# k  POINT_DATA 50372
# x  y  z  k
0.0101542 -2.71051e-20 1.02364e-07 3.59274e-07
-0.0101542 2.71051e-20 1.02364e-07 4.84037e-10
0.0101542 1.35525e-20 0.000172997 3.5189e-07
-0.0101542 -1.35525e-20 0.000173028 4.7916e-10
0.0101542 0 0.000494703 4.25805e-07
-0.0101542 -1.35525e-20 0.000494789 5.26431e-10
0.0101542 0 0.000670046 5.23494e-07
-0.0101542 -1.35525e-20 0.000670165 5.80367e-10
0.0101542 -1.35525e-20 0.000852458 6.13223e-07
-0.0101542 1.35525e-20 0.000852582 6.31227e-10
0.0101542 -2.71051e-20 0.00118307 6.61347e-07
-0.0101542 -1.35525e-20 0.00118319 6.7394e-10
0.0101542 0 0.00136546 6.30576e-07
-0.0101542 0 0.00136559 6.66958e-10
0.0102699 2.71051e-20 0.000142058 3.5265e-07
-0.0102699 -1.35525e-20 0.000142083 4.75902e-10
0.0101542 -1.35525e-20 0.00155417 5.99254e-07
-0.0101542 0 0.00155427 6.6588e-10
-0.0102737 0 9.61397e-08 4.76104e-10
0.0102737 -2.71051e-20 9.61398e-08 3.52603e-07
0.0102733 -1.35525e-20 0.000515395 4.38664e-07
-0.0102733 -1.35525e-20 0.000515489 5.308e-10
0.0102675 0 0.00080711 5.9776e-07
-0.0102675 0 0.000807229 6.19608e-10
0.0101542 0 0.00190096 6.28442e-07
-0.0101542 0 0.00190099 7.35139e-10
0.0102675 1.35525e-20 0.00119419 6.54102e-07
-0.0102675 1.35525e-20 0.00119431 6.69617e-10
0.0102594 -1.35525e-20 0.00147517 6.015e-07
-0.0102594 -1.35525e-20 0.00147528 6.62953e-10
0.0101542 2.71051e-20 0.002087 6.88743e-07
-0.0101542 -2.71051e-20 0.002087 8.14436e-10
0.0104134 -1.35525e-20 0.000325113 3.53272e-07
-0.0104134 0 0.000325172 4.7324e-10
0.0102564 0 0.00187922 6.35251e-07
-0.0102564 -1.35525e-20 0.00187926 7.43279e-10
0.010404 -2.71051e-20 0.000979256 6.84714e-07
-0.010404 0 0.000979372 6.73212e-10
-0.0102712 0 0.00214808 8.82051e-10
0.0102712 -1.35525e-20 0.00214808 7.41228e-07
0.0103833 0 0.00161108 5.66143e-07
-0.0103834 1.35525e-20 0.00161117 6.52834e-10
0.0103536 0 0.00205869 7.33071e-07
-0.0103536 1.35525e-20 0.0020587 8.70841e-10
0.0105837 0 0.000111818 6.82294e-07
-0.0105837 6.77626e-21 0.00011184 1.28932e-09
-0.0105846 6.77626e-21 8.37325e-08 1.28403e-09
0.0105846 0 8.37326e-08 6.80051e-07
-0.0106742 -1.35525e-20 7.93305e-08 1.73928e-09
0.0106742 1.35525e-20 7.93306e-08 8.63836e-07
0.0106592 -5.64689e-21 0.000632602 6.50192e-07
-0.0106592 5.64689e-21 0.000632714 1.11294e-09
0.0106428 -6.77626e-21 0.00125876 4.0416e-07
-0.0106428 -2.25875e-21 0.00125889 4.70294e-10
0.0107479 0 8.57829e-05 1.01344e-06
-0.0107479 0 8.57996e-05 2.10011e-09
0.0107513 0 7.04941e-08 1.01679e-06
-0.0107513 -1.35525e-20 7.04937e-08 2.10866e-09
0.0106336 -1.50584e-21 0.00171643 5.06902e-07
-0.0106336 1.50584e-21 0.00171652 6.03405e-10
0.0105534 -1.35525e-20 0.00229536 8.87189e-07
-0.0105534 6.77626e-21 0.00229537 1.0718e-09
0.0106374 2.71051e-20 0.00201566 7.89362e-07
-0.0106374 0 0.0020157 9.42769e-10
0.0106444 1.35525e-20 0.00223448 8.92707e-07
-0.0106444 0 0.0022345 1.07848e-09
0.0106479 0 0.0023447 9.43693e-07
-0.0106479 0 0.00234469 1.14697e-09
0.0109358 0 0.000311581 1.39372e-06
-0.0109358 -2.71051e-20 0.000311629 3.04553e-09
0.0109231 2.71051e-20 0.000931197 2.05746e-07
-0.0109231 2.71051e-20 0.00093132 3.6141e-10
-0.0107255 0 0.00238519 1.21495e-09
0.0107255 0 0.0023852 9.97843e-07
-0.0107633 0 0.00232245 1.2081e-09
0.0107633 0 0.00232244 9.92739e-07
0.0109068 0 0.00151925 1.31021e-07
-0.0109069 -2.71051e-20 0.00151936 1.78392e-10
-0.0111547 0 5.04036e-09 3.47673e-09
0.0111547 0 5.03949e-09 1.74794e-06
-0.0111547 0 6.05203e-05 3.47862e-09
0.0111547 0 6.05016e-05 1.74981e-06
-0.0112084 0 -1.4573e-09 3.58701e-09
0.0112084 6.77626e-21 -1.4573e-09 1.83464e-06
0.0112025 -2.25875e-21 0.000609617 1.06126e-06
-0.0112025 0 0.000609722 2.03949e-09
0.0111846 2.25875e-21 0.00122681 1.97803e-07
-0.0111847 2.25875e-21 0.00122694 3.14038e-10
0.0110963 2.71051e-21 0.00189319 4.86973e-07
-0.0110963 4.51751e-21 0.00189327 5.94779e-10
0.0110269 0 0.00227118 1.09544e-06
-0.0110269 0 0.00227121 1.34227e-09
0.0112589 -6.77626e-21 5.31432e-05 1.91189e-06
-0.0112589 -6.77626e-21 5.31594e-05 3.67825e-09
0.0112597 6.77626e-21 -1.24989e-09 1.91339e-06
-0.0112597 -6.77626e-21 -1.24984e-09 3.6804e-09
0.0110601 6.77626e-21 0.00255988 1.12667e-06
-0.0110601 -6.77626e-21 0.0025599 1.3756e-09
0.0110979 0 0.00251659 1.12619e-06
-0.0110979 1.35525e-20 0.00251662 1.37462e-09
0.011119 6.77626e-21 0.00259067 1.13564e-06
-0.011119 0 0.00259068 1.38557e-09
-0.0111709 -6.77626e-21 0.00261768 1.39512e-09
0.0111709 1.35525e-20 0.00261768 1.14695e-06
-0.0111908 0 0.00257887 1.3935e-09
0.0111908 -6.77626e-21 0.00257885 1.1456e-06
-0.0114906 0 0.000303969 4.13963e-09
0.0114906 0 0.00030393 2.29326e-06
0.0114869 -2.71051e-20 0.000915922 3.4204e-07
-0.0114869 2.71051e-20 0.000916008 5.72707e-10
0.0113199 -2.25875e-21 0.00230442 8.3559e-07
-0.0113199 0 0.00230446 1.01502e-09
0.0114565 5.42101e-20 0.00155258 1.183e-07
-0.0114565 0 0.00155266 1.52791e-10
0.0114952 0 0.00208526 2.27571e-07
-0.0114952 0 0.00208532 2.68431e-10
0.0114493 0 0.00253761 1.17134e-06
-0.0114493 -5.42101e-20 0.00253763 1.41913e-09
-0.0117381 -6.77626e-21 7.69922e-10 4.41535e-09
0.0117382 0 7.69993e-10 2.55116e-06
-0.0117389 -6.77626e-21 3.73394e-05 4.4158e-09
0.0117389 -6.77626e-21 3.73135e-05 2.55181e-06
-0.011774 -6.77626e-21 9.15475e-10 4.45201e-09
0.011774 -6.77626e-21 9.15461e-10 2.58722e-06
0.0117853 1.12938e-21 0.000597825 1.50978e-06
-0.0117853 0 0.00059789 2.57149e-09
0.0118096 0 8.62854e-10 2.61814e-06
-0.0118096 0 8.62835e-10 4.48426e-09
0.0118103 0 3.42357e-05 2.61787e-06
-0.0118103 -6.77626e-21 3.4259e-05 4.48388e-09
0.0117814 1.69407e-21 0.00122179 2.72619e-07
-0.0117814 1.12938e-21 0.00122188 4.28759e-10
0.0115287 -6.77626e-21 0.00280414 1.63507e-06
-0.0115287 0 0.00280416 2.04364e-09
0.0115503 6.77626e-21 0.00277325 1.64018e-06
-0.0115503 6.77626e-21 0.00277328 2.05057e-09
0.0115729 0 0.00282717 1.74784e-06
-0.0115729 0 0.00282718 2.20171e-09
0.0117842 0 0.00183865 1.98458e-07
-0.0117842 0 0.00183871 2.74628e-10
-0.0116142 0 0.00284907 2.35714e-09
0.0116142 0 0.00284907 1.86417e-06
-0.0116389 6.77626e-21 0.00280446 2.34617e-09
0.011639 0 0.00280444 1.8562e-06
0.0117437 -1.12938e-21 0.00238072 1.01852e-06
-0.0117437 1.69407e-21 0.00238075 1.2881e-09
-0.0120804 0 0.000295177 4.77264e-09
0.0120804 -2.71051e-20 0.000295157 2.88911e-06
0.0120943 0 0.000900328 4.69271e-07
-0.0120943 0 0.000900379 7.20004e-10
0.0121033 -2.71051e-20 0.00152699 1.57479e-07
-0.0121033 0 0.00152703 2.62616e-10
0.0119448 2.71051e-20 0.00270134 2.32451e-06
-0.0119448 2.71051e-20 0.00270136 2.9758e-09
0.0120973 -2.71051e-20 0.00216163 2.88497e-07
-0.0120973 -5.42101e-20 0.00216166 4.18591e-10
-0.0123534 -3.38813e-21 7.40909e-11 4.63105e-09
0.0123534 0 7.40185e-11 2.95352e-06
-0.0123542 -6.77626e-21 2.17304e-05 4.63091e-09
0.0123542 3.38813e-21 2.16841e-05 2.95359e-06
0.0119751 -6.77626e-21 0.00303983 2.29014e-06
-0.0119752 0 0.00303985 2.96104e-09
0.0120033 0 0.00299988 2.28809e-06
-0.0120034 0 0.00299991 2.95843e-09
-0.0123759 0 4.08374e-11 4.61801e-09
0.0123759 0 4.08336e-11 2.95809e-06
0.0120142 6.77626e-21 0.00306058 2.27606e-06
-0.0120143 0 0.00306059 2.95271e-09
0.0123981 3.38813e-21 3.93484e-11 2.95656e-06
-0.0123981 0 3.9349e-11 4.59166e-09
0.0123987 3.38813e-21 1.91886e-05 2.95654e-06
-0.0123988 0 1.92302e-05 4.59155e-09
0.0124008 1.12938e-21 0.000576145 1.74617e-06
-0.0124008 5.64689e-22 0.000576171 2.75075e-09
0.0120519 0 0.00308051 2.27199e-06
-0.012052 0 0.00308052 2.9493e-09
0.0120703 0 0.0030437 2.27109e-06
-0.0120704 6.77626e-21 0.00304372 2.94751e-09
0.0124207 8.47033e-22 0.00119162 3.46452e-07
-0.0124207 2.82344e-22 0.00119165 6.15773e-10
0.0124236 -2.82344e-22 0.00184651 2.12263e-07
-0.0124236 8.47033e-22 0.00184654 3.68945e-10
0.0123835 -9.03502e-22 0.00256027 1.12592e-06
-0.0123835 -2.03288e-21 0.00256029 1.48274e-09
-0.0126967 5.42101e-20 0.000276519 4.45079e-09
0.0126967 -2.71051e-20 0.000276513 3.02533e-06
0.0123513 0 0.00296166 2.22244e-06
-0.0123514 0 0.00296167 2.91173e-09
0.0127273 2.71051e-20 0.000857688 5.45541e-07
-0.0127273 2.71051e-20 0.000857703 9.74781e-10
0.0124095 0 0.00326997 2.13598e-06
-0.0124095 0 0.00327 2.78478e-09
0.0127511 2.71051e-20 0.0014915 2.11513e-07
-0.0127511 0 0.00149152 5.03047e-10
0.0124313 0 0.00323672 2.13356e-06
-0.0124313 0 0.00323675 2.78119e-09
0.0124457 0 0.00328913 2.11606e-06
-0.0124457 0 0.00328915 2.75606e-09
-0.0124807 -6.77626e-21 0.00330749 2.72477e-09
0.0124807 6.77626e-21 0.00330748 2.09216e-06
-0.0124951 0 0.00327724 2.7246e-09
0.0124951 0 0.00327722 2.09223e-06
0.0127412 0 0.00217415 1.91478e-07
-0.0127412 0 0.00217416 2.98746e-10
0.0126309 -2.63521e-21 0.00298509 1.54898e-06
-0.0126309 1.50584e-21 0.0029851 2.02601e-09
-0.0130119 0 3.91295e-06 4.14199e-09
0.0130206 0 3.15285e-06 2.8025e-06
-0.0130338 -2.82344e-22 0.000526404 3.25988e-09
0.0130338 -5.64689e-22 0.0005264 1.71181e-06
0.0127927 -5.42101e-20 0.00274396 3.9278e-07
-0.0127927 0 0.00274397 5.40807e-10
0.01305 -3.5293e-22 0.00108918 4.85386e-07
-0.0130502 7.05861e-23 0.00108947 1.77219e-09
0.0131021 -4.23516e-22 1.36103e-12 2.87203e-06
-0.0131041 3.38813e-21 1.35707e-12 1.12771e-08
0.0127559 0 0.00321821 1.99426e-06
-0.0127559 2.71051e-20 0.00321822 2.57913e-09
0.0130771 -4.70574e-23 0.0018121 2.4346e-07
-0.0130772 -2.35287e-23 0.00181208 8.3164e-10
0.0128312 0 0.00349147 2.6535e-06
-0.0128312 0 0.00349149 3.58314e-09
0.0128495 0 0.00346312 2.65963e-06
-0.0128495 6.77626e-21 0.00346314 3.59223e-09
0.0130837 -1.41172e-22 0.00247341 3.28573e-07
-0.0130837 -1.41172e-22 0.00247342 6.37649e-10
-0.0133275 0 0.000238489 3.80572e-09
0.0133275 -5.42101e-20 0.000238488 2.56699e-06
0.0128663 0 0.00350989 2.79913e-06
-0.0128663 0 0.0035099 3.80106e-09
-0.0129008 0 0.00352796 4.00152e-09
0.0129009 6.77626e-21 0.00352796 2.91948e-06
-0.0129238 6.77626e-21 0.00348629 3.98311e-09
0.0129238 0 0.00348628 2.90826e-06
0.0130386 5.64689e-22 0.00304624 1.64773e-06
-0.0130386 0 0.00304625 2.27498e-09
-0.0133691 2.71051e-20 0.000762344 3.67088e-09
0.0133691 0 0.000762343 6.49188e-07
0.013433 2.71051e-20 0.00137815 3.2267e-07
-0.013433 0 0.00137815 1.80737e-09
0.0134156 5.42101e-20 0.00211069 2.37136e-07
-0.0134156 -2.71051e-20 0.0021107 9.17619e-10
0.013227 0 0.00336665 3.5524e-06
-0.013227 -2.71051e-20 0.00336666 4.95609e-09
-0.0136582 -3.10579e-21 0.000454835 4.02168e-08
0.0136582 -4.51751e-21 0.00045481 2.33708e-06
0.0133906 2.71051e-20 0.00280402 4.80149e-07
-0.0133906 -2.71051e-20 0.00280402 8.16494e-10
0.0137198 6.77626e-21 1.35042e-13 3.33105e-06
-0.01372 0 1.34214e-13 5.88622e-08
0.0137205 6.77626e-21 2.22047e-05 3.33394e-06
-0.0137207 -6.77626e-21 2.20751e-05 5.91464e-08
0.0137215 -3.38813e-21 0.000181485 2.9714e-06
-0.0137217 -3.38813e-21 0.000180645 5.57318e-08
0.0137517 0 1.01802e-14 3.37031e-06
-0.0137517 0 1.00122e-14 6.18312e-08
0.0132451 0 0.0037083 3.51438e-06
-0.0132451 0 0.00370831 4.94094e-09
0.0132719 0 0.00367137 3.51234e-06
-0.0132719 0 0.00367139 4.93707e-09
-0.0137723 6.77626e-21 1.6111e-05 6.08489e-08
0.0137724 6.77626e-21 1.62075e-05 3.31538e-06
-0.0137739 3.38813e-21 5.87369e-15 6.06707e-08
0.013774 0 6.01109e-15 3.3118e-06
0.0132783 0 0.00372567 3.52351e-06
-0.0132783 6.77626e-21 0.00372568 4.9467e-09
0.0137945 1.12938e-21 0.000886616 1.65756e-06
-0.0137945 0 0.000886593 3.50162e-08
-0.0133097 0 0.00374319 4.93504e-09
0.0133097 -6.77626e-21 0.00374318 3.50668e-06
-0.0138294 6.77626e-21 2.58773e-15 7.71868e-08
0.0138298 0 2.6944e-15 3.37022e-06
-0.0133283 0 0.00371041 4.93228e-09
0.0133283 0 0.00371039 3.5055e-06
0.0137534 0 0.00171114 3.92005e-07
-0.0137534 -1.12938e-21 0.00171114 3.70651e-09
0.0136707 -1.05879e-22 0.00246353 3.70929e-07
-0.0136709 -1.05879e-22 0.00246353 1.42605e-09
0.0137202 0 0.002462 3.74566e-07
-0.0137215 1.82112e-20 0.00246192 1.49292e-09
-0.0137187 -2.11758e-22 0.00249057 1.5361e-09
0.0137187 1.05879e-22 0.00249065 4.26031e-07
0.013662 -9.03502e-22 0.00322324 1.77821e-06
-0.013662 6.77626e-22 0.00322324 2.67391e-09
-0.013613 2.71051e-20 0.00362485 4.87953e-09
0.0136131 0 0.00362485 3.44849e-06
0.0141363 1.69407e-21 0.000319446 3.77336e-06
-0.0141363 0 0.000319424 2.32548e-07
0.0140904 2.71051e-20 0.00128026 6.21593e-07
-0.0140904 -2.71051e-20 0.00128025 9.49583e-09
0.0140599 0 0.00206638 4.03409e-07
-0.0140599 2.71051e-20 0.00206638 3.18464e-09
0.0136637 0 0.00393551 3.22522e-06
-0.0136637 3.38813e-21 0.00393552 4.56005e-09
0.0136787 0 0.00391519 3.22234e-06
-0.0136787 0 0.00391522 4.55543e-09
-0.0142379 1.35525e-20 7.69362e-16 2.24359e-07
0.014238 1.35525e-20 7.95335e-16 3.72814e-06
0.0136843 -3.38813e-21 0.00394699 3.20167e-06
-0.0136843 -3.38813e-21 0.00394698 4.52446e-09
-0.0137016 0 0.00395979 4.49048e-09
0.0137016 0 0.00395981 3.16908e-06
-0.0137143 3.38813e-21 0.00394399 4.49034e-09
0.0137143 -3.38813e-21 0.00394399 3.16966e-06
-0.0140217 -2.71051e-20 0.00281655 1.18555e-09
0.0140217 2.71051e-20 0.00281655 3.8112e-07
-0.013895 1.50584e-21 0.00367137 3.35991e-09
0.0138951 -9.41148e-22 0.00367137 2.34428e-06
-0.0144242 5.64689e-22 0.000793237 1.0886e-07
0.0144242 1.56858e-23 0.000793235 2.75926e-06
0.014454 2.71051e-20 1.48066e-16 4.41686e-06
-0.014454 1.35525e-20 1.45757e-16 1.96507e-07
0.0143969 -2.82344e-22 0.00165239 8.34468e-07
-0.0143969 2.82344e-22 0.00165239 1.12345e-08
-0.0140802 2.71051e-20 0.00343827 1.00801e-09
0.0140802 2.71051e-20 0.00343827 6.06545e-07
-0.0140067 5.42101e-20 0.00392192 4.11263e-09
0.0140067 0 0.00392194 2.91974e-06
0.0143633 0 0.00242487 5.48053e-07
-0.0143633 -9.52912e-21 0.00242488 4.238e-09
-0.0143624 -2.11758e-22 0.00267917 3.46378e-09
0.0143624 -2.11758e-22 0.00267952 5.45953e-07
0.0140362 -1.69407e-21 0.00420871 2.96179e-06
-0.0140362 1.69407e-21 0.00420869 4.06537e-09
0.014043 0 0.00420186 2.96153e-06
-0.014043 1.69407e-21 0.00420185 4.06421e-09
-0.0140444 1.69407e-21 0.00421477 4.0601e-09
0.0140443 -1.69407e-21 0.00421479 2.96343e-06
-0.0140522 0 0.00422057 4.0593e-09
0.0140522 -1.69407e-21 0.0042206 2.96027e-06
-0.0140564 1.69407e-21 0.00421301 4.05857e-09
0.0140564 -1.69407e-21 0.00421303 2.96011e-06
-0.0146848 1.35525e-20 -3.35187e-17 3.61272e-07
0.0146849 6.77626e-21 -3.32302e-17 4.82913e-06
0.0143544 -2.58345e-20 0.00313093 5.40595e-07
-0.0143544 0 0.00313092 2.05761e-09
-0.0143606 0 0.00313712 2.07055e-09
0.0143549 4.23516e-22 0.00313705 5.42547e-07
-0.0147048 5.42101e-21 0.000271671 3.51546e-07
0.0147048 0 0.000271731 5.02191e-06
-0.014356 0 0.00329971 2.1766e-09
0.014356 8.47033e-22 0.00329991 8.31499e-07
0.0147336 -2.71051e-20 0.0012417 1.46154e-06
-0.0147336 0 0.00124169 2.47382e-08
-0.0146227 -2.11758e-22 0.0023874 6.75333e-09
0.0146235 2.11758e-22 0.00238728 7.48875e-07
0.0146912 2.71051e-20 0.002036 8.6321e-07
-0.0146912 -2.71051e-20 0.002036 8.11592e-09
-0.0143356 -4.03349e-23 0.00382206 2.63647e-09
0.0143356 3.63014e-22 0.00382208 1.82378e-06
-0.0143244 0 0.00417019 3.9649e-09
0.0143244 0 0.00417021 2.99436e-06
-0.0142789 -8.47033e-22 0.00438875 3.96488e-09
0.0142791 0 0.0043889 3.03318e-06
-0.0146906 0 0.00275581 4.47157e-09
0.0146906 2.71051e-20 0.00275581 5.48531e-07
-0.0149588 -1.41172e-22 0.00165211 1.79978e-08
0.0149603 0 0.00165061 1.4596e-06
-0.0146586 -2.71051e-20 0.00346816 1.8337e-09
0.0146586 -5.42101e-20 0.00346818 6.26373e-07
-0.0144053 -8.47033e-22 0.00448256 3.91455e-09
0.0144084 0 0.00447898 3.07158e-06
-0.0151194 2.37169e-20 -3.98229e-17 2.31626e-07
0.0151197 -3.38813e-21 -3.98169e-17 6.87716e-06
-0.0144514 -8.47033e-22 0.00451675 4.23388e-09
0.0144515 -1.69407e-21 0.00451675 3.25513e-06
-0.0151612 0 3.4719e-05 2.28196e-07
0.0151612 0 3.45049e-05 7.0307e-06
-0.0151666 0 -1.47629e-17 2.28627e-07
0.0151666 0 -1.47327e-17 7.03041e-06
-0.0145673 1.12938e-21 0.00422607 3.00668e-09
0.0145673 -1.50584e-21 0.00422609 2.41601e-06
0.0151843 0 -9.97127e-18 7.09494e-06
-0.0151843 0 -1.0005e-17 2.28548e-07
-0.015166 1.12938e-21 0.00086797 1.23214e-07
0.015166 2.25875e-21 0.000867968 4.59686e-06
0.0152148 3.38813e-21 -1.00637e-17 7.18424e-06
0.0152149 3.38813e-21 2.26461e-05 7.18507e-06
-0.0152151 3.38813e-21 -1.00978e-17 2.26469e-07
-0.0152151 0 2.27883e-05 2.26439e-07
-0.0147125 -2.71051e-20 0.00402551 1.20199e-09
0.0147125 0 0.00402553 1.08318e-06
-0.0150843 0 0.00231357 1.12683e-08
0.0150843 4.23516e-22 0.00231357 1.10716e-06
-0.0150902 -2.4564e-20 0.00232072 1.13072e-08
0.0150909 6.26804e-20 0.00231341 1.11027e-06
-0.0149792 2.82344e-22 0.0031214 6.8972e-09
0.0149792 2.82344e-22 0.00312141 7.27049e-07
-0.0146794 0 0.00445851 3.80812e-09
0.0146795 -5.42101e-20 0.00445853 3.13254e-06
-0.0149711 0 0.00367466 4.05068e-09
0.0149711 0 0.00367488 8.23289e-07
-0.0149706 0 0.00377567 3.5264e-09
0.0149706 0 0.00377568 8.41509e-07
-0.0147268 0 0.00472093 5.84479e-09
0.0147268 6.77626e-21 0.00472096 4.20786e-06
-0.0147397 0 0.0047038 5.85778e-09
0.0147397 0 0.00470382 4.21509e-06
-0.0147494 6.77626e-21 0.00473772 6.06147e-09
0.0147494 0 0.00473775 4.33181e-06
0.0150251 2.11758e-22 0.00377792 8.52685e-07
-0.0150252 1.05879e-21 0.00377791 4.455e-09
-0.0147753 0 0.0047569 6.57668e-09
0.0147753 6.77626e-21 0.00475694 4.62124e-06
-0.0147957 0 0.00471951 6.48628e-09
0.0147957 0 0.00471954 4.5699e-06
-0.0149236 -3.38813e-21 0.00432832 4.21147e-09
0.0149238 4.23516e-22 0.00432831 2.76235e-06
-0.0149307 0 0.0043143 4.14833e-09
0.0149308 3.59989e-20 0.00431433 2.71018e-06
0.0153072 -5.42101e-20 0.00276684 1.05862e-06
-0.0153072 0 0.00276684 1.30454e-08
-0.0149538 2.11758e-22 0.00432332 4.31521e-09
0.0149538 4.02341e-21 0.00432332 2.72065e-06
-0.0152762 2.71051e-20 0.00345527 8.32366e-09
0.0152762 2.71051e-20 0.00345527 6.83032e-07
-0.0156652 -5.42101e-20 0.00170503 2.47331e-08
0.0156652 5.42101e-20 0.00170503 2.53192e-06
-0.0150897 0 0.00463312 8.35004e-09
0.0150898 0 0.00463317 5.55329e-06
-0.0152566 0 0.00410558 3.28455e-09
0.0152566 -2.71051e-20 0.00410559 9.50249e-07
0.0156483 -7.05861e-23 0.00239976 1.79016e-06
-0.0156483 7.05861e-23 0.00239976 2.56782e-08
-0.0150378 0 0.00495164 9.08824e-09
0.0150379 -6.77626e-21 0.0049517 5.68552e-06
-0.0158313 -1.0842e-19 0.000505742 1.09968e-07
0.0158313 5.42101e-20 0.000505749 1.04436e-05
-0.0150929 0 0.00489488 9.08485e-09
0.015093 0 0.00489493 5.65988e-06
-0.0150892 -1.35525e-20 0.00498975 9.0941e-09
0.0150893 0 0.00498982 5.60841e-06
-0.015606 -2.82344e-22 0.00310341 2.1696e-08
0.015606 5.64689e-22 0.00310341 1.25138e-06
-0.0151438 0 0.00503029 9.63401e-09
0.0151439 6.77626e-21 0.00503035 5.69895e-06
-0.0151784 0 0.00496289 9.5546e-09
0.0151785 1.35525e-20 0.00496294 5.67289e-06
-0.0155884 -6.77626e-22 0.00378776 1.53591e-08
0.0155884 2.25875e-22 0.00378777 1.00467e-06
-0.0155033 0 0.00450864 8.11268e-09
0.0155033 -1.807e-21 0.00450867 2.94935e-06
-0.0154178 -2.71051e-20 0.00490558 1.00685e-08
0.0154179 0 0.00490563 5.65248e-06
-0.0159469 2.71051e-20 0.00273843 3.52896e-08
0.0159469 -2.71051e-20 0.00273843 1.94485e-06
-0.0153971 -1.35525e-20 0.00521815 1.11757e-08
0.0153972 2.03288e-20 0.00521821 5.52453e-06
-0.015903 0 0.0034351 3.00258e-08
0.015903 0 0.00343511 1.32747e-06
-0.0154387 0 0.00517349 1.11935e-08
0.0154387 6.77626e-21 0.00517354 5.49408e-06
-0.0154377 6.77626e-21 0.00524824 1.12958e-08
0.0154377 0 0.00524829 5.32849e-06
0.0163338 3.81165e-21 -1.09082e-18 1.04855e-05
-0.0163352 4.23516e-22 -1.08335e-18 1.17898e-07
-0.0154764 -6.77626e-21 0.00527693 1.18735e-08
0.0154764 6.77626e-21 0.00527698 5.34949e-06
-0.0155053 0 0.00524153 1.18279e-08
0.0155053 0 0.00524158 5.34725e-06
0.0163533 5.50571e-21 0.00112133 7.3195e-06
-0.0163536 0 0.00112139 8.28272e-08
-0.0158756 2.71051e-20 0.0041209 1.37161e-08
0.0158756 0 0.00412092 9.29816e-07
0.0163769 3.59989e-21 0.00112768 7.37101e-06
-0.0163768 3.34578e-20 0.00112767 8.19558e-08
-0.0156932 -7.52918e-22 0.00495312 9.4829e-09
0.0156933 1.50584e-21 0.00495315 3.99492e-06
0.0164701 4.23516e-22 3.15916e-06 1.08862e-05
-0.0164637 4.23516e-22 2.61009e-06 1.04764e-07
-0.0163214 0 0.00227444 5.99323e-08
0.0163214 1.12938e-21 0.00227444 3.05081e-06
-0.0162376 4.51751e-22 0.0030774 5.40026e-08
0.0162376 -4.51751e-22 0.0030774 2.17929e-06
-0.0159046 0 0.00473208 5.34719e-09
0.0159046 0 0.00473209 1.08323e-06
-0.0157801 -2.71051e-20 0.00520579 1.2867e-08
0.0157802 2.71051e-20 0.00520583 5.09824e-06
-0.0162469 -2.25875e-21 0.00372972 4.6274e-08
0.0162469 1.12938e-21 0.00372973 1.66376e-06
-0.0157745 0 0.00549808 1.61211e-08
0.0157746 0 0.00549812 5.02028e-06
-0.0158014 6.77626e-21 0.00547416 1.61511e-08
0.0158015 0 0.00547419 5.0135e-06
-0.0158049 6.77626e-21 0.00552063 1.68335e-08
0.015805 0 0.00552067 4.98807e-06
-0.0158346 6.77626e-21 0.00554267 1.73973e-08
0.0158347 0 0.00554272 4.96276e-06
-0.0158529 0 0.00551417 1.73464e-08
0.015853 0 0.00551421 4.9614e-06
-0.016198 0 0.00441893 2.49107e-08
0.0161981 2.25875e-22 0.00441893 1.28122e-06
-0.0166697 0 0.00284041 9.38637e-08
0.0166698 5.42101e-20 0.00284041 3.37529e-06
-0.0161695 -4.51751e-22 0.00510698 1.39444e-08
0.0161695 -4.51751e-22 0.00510701 2.8227e-06
-0.0166597 0 0.00328607 9.7139e-08
0.0166597 2.71051e-20 0.00328607 2.87221e-06
-0.0165248 -2.71051e-20 0.00409519 5.64485e-08
0.0165248 2.71051e-20 0.0040952 1.79743e-06
-0.0161206 2.71051e-20 0.00547661 2.0324e-08
0.0161207 2.71051e-20 0.00547665 4.84444e-06
-0.0170334 0 0.000576922 9.91626e-08
0.0170335 5.42101e-20 0.000576921 1.13248e-05
-0.0168875 -4.23516e-22 0.0023902 1.06444e-07
0.0168875 -2.11758e-22 0.00239021 4.21329e-06
-0.0169716 1.0842e-19 0.00176737 9.03577e-08
0.0169716 0 0.00176736 4.86282e-06
-0.0169179 -2.11758e-22 0.00239498 1.08963e-07
0.0169179 2.11758e-22 0.00239498 4.27554e-06
0.0169439 2.11758e-22 0.00239538 4.34944e-06
-0.0169439 2.11758e-22 0.00239538 1.15084e-07
-0.0168719 0 0.00305894 1.24643e-07
0.0168719 0 0.00305894 3.77473e-06
-0.0161674 -6.77626e-21 0.00578953 2.57602e-08
0.0161674 0 0.00578955 4.92962e-06
-0.0165034 5.42101e-20 0.00475625 2.14545e-08
0.0165034 2.71051e-20 0.00475627 1.2598e-06
-0.0161836 0 0.00577012 2.57861e-08
0.0161836 0 0.00577014 4.92835e-06
-0.0161897 0 0.00580603 2.66241e-08
0.0161897 0 0.00580606 4.93409e-06
-0.0162121 0 0.00582272 2.7229e-08
0.0162122 0 0.00582276 4.91325e-06
-0.0162243 0 0.00580494 2.71505e-08
0.0162243 -6.77626e-21 0.00580498 4.91283e-06
0.0168523 -4.51751e-22 0.00374134 2.99547e-06
-0.0168523 1.12938e-22 0.00374134 1.15672e-07
-0.0163971 -4.23516e-22 0.00553967 2.13922e-08
0.0163973 -4.23516e-22 0.00553971 3.74381e-06
-0.0170978 0 0.00283719 1.48447e-07
0.0170978 5.42101e-20 0.00283719 4.58607e-06
-0.0170665 2.71051e-20 0.00327483 1.64331e-07
0.0170665 0 0.00327484 4.32006e-06
-0.0165625 2.71051e-20 0.0053276 9.28436e-09
0.0165626 -2.71051e-20 0.00532762 1.34416e-06
-0.0168336 -1.41172e-22 0.0044175 7.8485e-08
0.0168336 1.41172e-22 0.00441751 2.11862e-06
-0.0164976 2.71051e-20 0.00578805 3.22047e-08
0.0164976 -2.71051e-20 0.00578809 4.98934e-06
-0.0168265 -1.69407e-22 0.00506999 3.68365e-08
0.0168265 -2.82344e-22 0.00507002 1.63326e-06
-0.0176289 0 1.51736e-05 1.46098e-07
0.0176289 0 1.51718e-05 1.3109e-05
-0.0176298 0 -8.11545e-23 1.46087e-07
0.0176298 0 -8.41405e-23 1.31087e-05
-0.0176062 -2.82344e-22 0.00116021 1.86528e-07
0.0176063 -5.64689e-22 0.00116021 1.00322e-05
-0.0176451 0 -1.69374e-23 1.47269e-07
0.0176451 3.38813e-21 -1.6139e-23 1.31497e-05
-0.0171749 -2.71051e-20 0.00405965 1.48047e-07
0.0171749 0 0.00405966 3.47828e-06
0.0176602 0 1.54588e-05 1.31935e-05
-0.0176602 -3.38813e-21 1.54608e-05 1.47933e-07
0.0176607 -3.38813e-21 -1.83247e-23 1.31935e-05
-0.0176607 0 -1.91174e-23 1.47933e-07
-0.0165809 0 0.00609702 5.71645e-08
0.016581 -6.77626e-21 0.00609706 6.40563e-06
-0.0165981 6.77626e-21 0.00608064 5.74012e-08
0.0165981 -6.77626e-21 0.00608065 6.42126e-06
-0.016605 0 0.00611494 5.98116e-08
0.0166051 0 0.00611499 6.53174e-06
-0.0166198 0 0.00612719 5.97981e-08
0.0166199 0 0.00612726 6.48183e-06
-0.0166291 0 0.00611136 5.98205e-08
0.0166292 0 0.00611141 6.4878e-06
-0.0175901 -2.25875e-21 0.00236117 2.65513e-07
0.0175901 1.12938e-21 0.00236117 6.1779e-06
-0.0166534 0 0.00615455 6.20333e-08
0.0166535 -6.77626e-21 0.00615465 6.55045e-06
-0.0168283 3.01167e-21 0.00572854 4.38408e-08
0.0168284 -9.41148e-22 0.00572855 4.43953e-06
-0.0175166 -3.5293e-22 0.00305113 2.70985e-07
0.0175166 1.41172e-22 0.00305113 5.33082e-06
-0.0171428 0 0.0047344 9.01286e-08
0.0171428 2.71051e-20 0.00473441 1.99091e-06
-0.017534 3.38813e-21 0.00360681 2.63608e-07
0.017534 -1.12938e-21 0.00360681 4.77413e-06
-0.0171172 0 0.00539736 3.03977e-08
0.0171172 2.71051e-20 0.00539737 1.67247e-06
0.01747 1.69407e-22 0.00438795 3.54548e-06
-0.01747 1.69407e-22 0.00438795 1.95801e-07
-0.0168947 6.77626e-21 0.00636212 8.22138e-08
0.0168947 2.03288e-20 0.00636216 8.1875e-06
0.0170243 0 0.00618637 8.45685e-06
-0.0170257 1.41172e-22 0.00618772 8.40319e-08
-0.0174372 -8.47033e-22 0.00507024 1.09365e-07
0.0174372 0 0.00507024 2.24735e-06
-0.0182236 -1.0842e-19 0.000583084 1.95327e-07
0.0182236 5.42101e-20 0.000583082 1.49951e-05
-0.0177925 0 0.00405319 3.137e-07
0.0177925 0 0.00405319 5.05246e-06
-0.018201 5.42101e-20 0.00177192 3.61089e-07
0.018201 -5.42101e-20 0.00177193 8.77207e-06
-0.0173656 -1.807e-21 0.00581376 6.37076e-08
0.0173656 1.807e-21 0.00581378 3.77746e-06
-0.0171242 0 0.00658581 9.63891e-08
0.0171243 0 0.00658585 6.53317e-06
-0.0177701 0 0.0047233 2.24916e-07
0.0177701 2.71051e-20 0.0047233 3.53894e-06
-0.0171594 -6.77626e-21 0.0066222 9.86769e-08
0.0171595 0 0.00662223 6.38611e-06
-0.0171745 -6.77626e-21 0.00660974 9.88873e-08
0.0171746 -6.77626e-21 0.00660977 6.40052e-06
-0.0171745 6.77626e-21 0.00663768 1.00855e-07
0.0171746 0 0.00663771 6.45393e-06
-0.0181606 -1.0842e-19 0.00305643 5.10682e-07
0.0181606 -5.42101e-20 0.00305643 7.01636e-06
-0.01719 -6.77626e-21 0.00665349 9.92619e-08
0.0171901 -6.77626e-21 0.00665351 6.30546e-06
-0.0172014 0 0.00663722 9.94436e-08
0.0172015 -6.77626e-21 0.00663725 6.3264e-06
-0.017284 0 0.00651866 9.1195e-08
0.0172841 -6.77626e-21 0.00651871 5.8758e-06
-0.0172277 -2.71051e-20 0.00669186 1.00392e-07
0.0172278 -2.03288e-20 0.00669187 6.27594e-06
0.0181264 -4.23516e-22 0.00381067 5.67961e-06
-0.0181264 0 0.00381068 4.14522e-07
-0.0177303 5.42101e-20 0.00540333 9.63142e-08
0.0177303 5.42101e-20 0.00540334 1.84167e-06
-0.0174485 0 0.00633776 7.90291e-08
0.0174485 -1.50584e-21 0.00633777 4.90697e-06
-0.0181015 0 0.00437909 3.59454e-07
0.0181015 2.82344e-22 0.00437909 4.74376e-06
-0.0177286 2.71051e-20 0.00604036 4.15919e-08
0.0177286 0 0.00604037 1.62324e-06
-0.018075 0 0.00504762 2.55434e-07
0.018075 5.64689e-22 0.00504762 3.3212e-06
-0.0174666 -6.77626e-21 0.00693497 1.10297e-07
0.0174666 -6.77626e-21 0.00693498 6.286e-06
-0.0188065 0 1.6274e-05 7.5849e-07
0.0188065 0 1.62693e-05 2.06107e-05
-0.0188069 0 2.04326e-24 7.5845e-07
0.0188069 0 2.046e-24 2.06103e-05
0.0188233 0 -2.50777e-25 2.07629e-05
-0.0188233 0 -2.47904e-25 7.72742e-07
0.0188396 0 1.62248e-05 2.09121e-05
-0.0188396 3.38813e-21 1.62294e-05 7.85748e-07
0.0188397 0 -2.4549e-25 2.09125e-05
-0.0188397 3.38813e-21 -2.42667e-25 7.85775e-07
-0.0188091 5.64689e-22 0.00116454 8.06402e-07
0.0188091 1.12938e-21 0.00116454 1.63751e-05
-0.0184387 0 0.00403102 4.66179e-07
0.0184387 0 0.00403102 5.71397e-06
0.0176208 7.05861e-23 0.00677694 6.60491e-06
-0.0176216 -1.41172e-22 0.00677769 1.1403e-07
-0.0180488 1.12938e-21 0.00571123 1.23795e-07
0.0180488 -2.25875e-21 0.00571124 2.0191e-06
-0.018794 8.47033e-22 0.00239227 8.98143e-07
0.018794 -2.82344e-22 0.00239227 1.02264e-05
-0.0184023 -5.42101e-20 0.0046998 4.29735e-07
0.0184023 0 0.0046998 4.65361e-06
-0.0179596 0 0.00643086 7.76295e-08
0.0179596 3.76459e-21 0.00643087 3.19759e-06
-0.0177051 -6.77626e-21 0.00717768 1.14298e-07
0.0177052 0 0.0071777 5.21645e-06
-0.0177437 0 0.00721691 1.15272e-07
0.0177437 0 0.00721692 5.12411e-06
-0.0184015 0 0.00534889 2.66528e-07
0.0184015 0 0.0053489 3.20446e-06
-0.0177602 0 0.007205 1.15532e-07
0.0177602 0 0.00720502 5.13724e-06
-0.0177596 6.77626e-21 0.0072331 1.17448e-07
0.0177596 0 0.00723311 5.19153e-06
0.0188295 1.41172e-22 0.00373127 6.86926e-06
-0.0177751 0 0.00724887 1.15099e-07
0.0177751 0 0.00724887 5.08286e-06
-0.0188307 7.05861e-23 0.00373002 7.84222e-07
-0.017788 0 0.0072329 1.15362e-07
0.017788 0 0.00723291 5.09838e-06
-0.018738 4.23516e-22 0.00435322 5.83408e-07
0.018738 -9.31736e-21 0.00435322 5.38433e-06
-0.0187376 0 0.00436113 5.85064e-07
0.0187376 -2.03288e-20 0.00436113 5.37863e-06
0.0178113 6.77626e-21 0.00728567 5.08911e-06
-0.0178113 1.35525e-20 0.00728567 1.15041e-07
0.0178795 0 0.00711716 4.70957e-06
-0.0178795 0 0.00711713 1.05856e-07
-0.0183488 -2.71051e-20 0.00603424 9.9316e-08
0.0183488 2.71051e-20 0.00603425 1.4904e-06
-0.0180549 -3.01167e-21 0.00694833 9.13078e-08
0.0180549 0 0.00694833 3.93699e-06
0.0194128 5.42101e-20 0.000584031 2.65563e-05
-0.0194128 0 0.000584032 1.35127e-06
-0.018803 0 0.00493677 5.08288e-07
0.018803 2.82344e-22 0.00493677 4.22254e-06
-0.0194073 0 0.00177875 1.32428e-06
0.0194073 -5.42101e-20 0.00177875 1.50408e-05
-0.0183455 -2.71051e-20 0.00666212 4.47604e-08
0.0183455 -2.71051e-20 0.00666213 1.28324e-06
-0.0186965 -5.64689e-22 0.00568331 2.86371e-07
0.0186965 -3.38813e-21 0.00568331 2.70049e-06
-0.0180388 2.03288e-20 0.007517 1.18465e-07
0.0180388 0 0.007517 5.37332e-06
0.0194176 0 0.0030161 9.96073e-06
-0.0194176 5.42101e-20 0.0030161 1.39167e-06
-0.0182202 9.41148e-23 0.00737491 1.20901e-07
0.0182202 -9.41148e-23 0.00737492 5.4909e-06
-0.0186656 1.12938e-21 0.00633956 1.22082e-07
0.0186656 1.12938e-21 0.00633956 1.52453e-06
-0.0190338 2.71051e-20 0.00534623 5.16587e-07
0.0190338 2.71051e-20 0.00534623 3.73009e-06
-0.0185755 9.03502e-22 0.00702539 7.73794e-08
0.0185755 -3.83988e-21 0.0070254 2.50311e-06
-0.0193824 0 0.00433462 1.02651e-06
0.0193824 5.42101e-20 0.00433462 5.9603e-06
0.0182812 -3.38813e-21 0.00776358 3.92133e-06
-0.0182812 -3.38813e-21 0.00776358 9.6659e-08
-0.0182994 0 0.00778213 9.58342e-08
0.0182994 -3.38813e-21 0.00778213 3.86793e-06
-0.0183082 0 0.0077765 9.58718e-08
0.0183082 0 0.0077765 3.86974e-06
-0.018307 3.38813e-21 0.00778984 9.61597e-08
0.018307 -3.38813e-21 0.00778984 3.87471e-06
-0.0183179 3.38813e-21 0.00780096 9.47477e-08
0.0183179 0 0.00780096 3.81941e-06
-0.0183258 0 0.00779182 9.48766e-08
0.0183258 3.38813e-21 0.00779182 3.82535e-06