# omega  POINT_DATA 50372
# x  y  z  omega
0.0101542 -2.71051e-20 1.02364e-07 991.966
-0.0101542 2.71051e-20 1.02364e-07 991.752
0.0101542 1.35525e-20 0.000172997 987.877
-0.0101542 -1.35525e-20 0.000173028 987.652
0.0101542 0 0.000494703 1069.41
-0.0101542 -1.35525e-20 0.000494789 1069.19
0.0101542 0 0.000670046 1154.26
-0.0101542 -1.35525e-20 0.000670165 1154.07
0.0101542 -1.35525e-20 0.000852458 1227.28
-0.0101542 1.35525e-20 0.000852582 1227.08
0.0101542 -2.71051e-20 0.00118307 1373.12
-0.0101542 -1.35525e-20 0.00118319 1372.93
0.0101542 0 0.00136546 1445.92
-0.0101542 0 0.00136559 1445.77
0.0102699 2.71051e-20 0.000142058 991.732
-0.0102699 -1.35525e-20 0.000142083 991.51
0.0101542 -1.35525e-20 0.00155417 1495.66
-0.0101542 0 0.00155427 1495.54
-0.0102737 0 9.61397e-08 991.27
0.0102737 -2.71051e-20 9.61398e-08 991.493
0.0102733 -1.35525e-20 0.000515395 1086.69
-0.0102733 -1.35525e-20 0.000515489 1086.49
0.0102675 0 0.00080711 1221.05
-0.0102675 0 0.000807229 1220.85
0.0101542 0 0.00190096 1394.5
-0.0101542 0 0.00190099 1394.44
0.0102675 1.35525e-20 0.00119419 1391.8
-0.0102675 1.35525e-20 0.00119431 1391.63
0.0102594 -1.35525e-20 0.00147517 1495.4
-0.0102594 -1.35525e-20 0.00147528 1495.27
0.0101542 2.71051e-20 0.002087 1252.32
-0.0101542 -2.71051e-20 0.002087 1252.31
0.0104134 -1.35525e-20 0.000325113 994.881
-0.0104134 0 0.000325172 994.661
0.0102564 0 0.00187922 1378.21
-0.0102564 -1.35525e-20 0.00187926 1378.16
0.010404 -2.71051e-20 0.000979256 1326.97
-0.010404 0 0.000979372 1326.78
-0.0102712 0 0.00214808 1131.97
0.0102712 -1.35525e-20 0.00214808 1131.92
0.0103833 0 0.00161108 1577.29
-0.0103834 1.35525e-20 0.00161117 1577.17
0.0103536 0 0.00205869 1150.56
-0.0103536 1.35525e-20 0.0020587 1150.6
0.0105837 0 0.000111818 936.872
-0.0105837 6.77626e-21 0.00011184 936.583
-0.0105846 6.77626e-21 8.37325e-08 936.763
0.0105846 0 8.37326e-08 937.051
-0.0106742 -1.35525e-20 7.93305e-08 914.807
0.0106742 1.35525e-20 7.93306e-08 915.119
0.0106592 -5.64689e-21 0.000632602 859.29
-0.0106592 5.64689e-21 0.000632714 858.071
0.0106428 -6.77626e-21 0.00125876 877.54
-0.0106428 -2.25875e-21 0.00125889 876.611
0.0107479 0 8.57829e-05 895.505
-0.0107479 0 8.57996e-05 895.158
0.0107513 0 7.04941e-08 894.916
-0.0107513 -1.35525e-20 7.04937e-08 894.569
0.0106336 -1.50584e-21 0.00171643 981.008
-0.0106336 1.50584e-21 0.00171652 981.126
0.0105534 -1.35525e-20 0.00229536 1104.51
-0.0105534 6.77626e-21 0.00229537 1104.6
0.0106374 2.71051e-20 0.00201566 980.323
-0.0106374 0 0.0020157 980.412
0.0106444 1.35525e-20 0.00223448 1117.47
-0.0106444 0 0.0022345 1117.57
0.0106479 0 0.0023447 1183.5
-0.0106479 0 0.00234469 1183.58
0.0109358 0 0.000311581 824.395
-0.0109358 -2.71051e-20 0.000311629 823.968
0.0109231 2.71051e-20 0.000931197 252.543
-0.0109231 2.71051e-20 0.00093132 248.395
-0.0107255 0 0.00238519 1246.59
0.0107255 0 0.0023852 1246.51
-0.0107633 0 0.00232245 1243.22
0.0107633 0 0.00232244 1243.13
0.0109068 0 0.00151925 264.916
-0.0109069 -2.71051e-20 0.00151936 265.382
-0.0111547 0 5.04036e-09 840.163
0.0111547 0 5.03949e-09 840.623
-0.0111547 0 6.05203e-05 840.264
0.0111547 0 6.05016e-05 840.724
-0.0112084 0 -1.4573e-09 844.163
0.0112084 6.77626e-21 -1.4573e-09 844.627
0.0112025 -2.25875e-21 0.000609617 529.814
-0.0112025 0 0.000609722 527.151
0.0111846 2.25875e-21 0.00122681 204.344
-0.0111847 2.25875e-21 0.00122694 199.151
0.0110963 2.71051e-21 0.00189319 642.891
-0.0110963 4.51751e-21 0.00189327 639.324
0.0110269 0 0.00227118 1393.86
-0.0110269 0 0.00227121 1393.96
0.0112589 -6.77626e-21 5.31432e-05 849.066
-0.0112589 -6.77626e-21 5.31594e-05 848.591
0.0112597 6.77626e-21 -1.24989e-09 849.14
-0.0112597 -6.77626e-21 -1.24984e-09 848.664
0.0110601 6.77626e-21 0.00255988 1628.66
-0.0110601 -6.77626e-21 0.0025599 1628.76
0.0110979 0 0.00251659 1636.21
-0.0110979 1.35525e-20 0.00251662 1636.31
0.011119 6.77626e-21 0.00259067 1706.38
-0.011119 0 0.00259068 1706.45
-0.0111709 -6.77626e-21 0.00261768 1770.15
0.0111709 1.35525e-20 0.00261768 1770.09
-0.0111908 0 0.00257887 1767.71
0.0111908 -6.77626e-21 0.00257885 1767.65
-0.0114906 0 0.000303969 865.83
0.0114906 0 0.00030393 866.34
0.0114869 -2.71051e-20 0.000915922 161.829
-0.0114869 2.71051e-20 0.000916008 156.249
0.0113199 -2.25875e-21 0.00230442 1261.29
-0.0113199 0 0.00230446 1258.72
0.0114565 5.42101e-20 0.00155258 130.27
-0.0114565 0 0.00155266 118.528
0.0114952 0 0.00208526 331.093
-0.0114952 0 0.00208532 322.908
0.0114493 0 0.00253761 2023.71
-0.0114493 -5.42101e-20 0.00253763 2023.77
-0.0117381 -6.77626e-21 7.69922e-10 888.089
0.0117382 0 7.69993e-10 888.592
-0.0117389 -6.77626e-21 3.73394e-05 888.143
0.0117389 -6.77626e-21 3.73135e-05 888.645
-0.011774 -6.77626e-21 9.15475e-10 891.632
0.011774 -6.77626e-21 9.15461e-10 892.128
0.0117853 1.12938e-21 0.000597825 530.113
-0.0117853 0 0.00059789 526.834
0.0118096 0 8.62854e-10 895.848
-0.0118096 0 8.62835e-10 895.354
0.0118103 0 3.42357e-05 895.81
-0.0118103 -6.77626e-21 3.4259e-05 895.316
0.0117814 1.69407e-21 0.00122179 133.586
-0.0117814 1.12938e-21 0.00122188 126.032
0.0115287 -6.77626e-21 0.00280414 1602.25
-0.0115287 0 0.00280416 1602.19
0.0115503 6.77626e-21 0.00277325 1598
-0.0115503 6.77626e-21 0.00277328 1597.95
0.0115729 0 0.00282717 1509.8
-0.0115729 0 0.00282718 1509.76
0.0117842 0 0.00183865 184.192
-0.0117842 0 0.00183871 177.1
-0.0116142 0 0.00284907 1415.51
0.0116142 0 0.00284907 1415.55
-0.0116389 6.77626e-21 0.00280446 1421.91
0.011639 0 0.00280444 1421.95
0.0117437 -1.12938e-21 0.00238072 919.85
-0.0117437 1.69407e-21 0.00238075 917.431
-0.0120804 0 0.000295177 918.27
0.0120804 -2.71051e-20 0.000295157 918.757
0.0120943 0 0.000900328 156.506
-0.0120943 0 0.000900379 149.854
0.0121033 -2.71051e-20 0.00152699 84.7405
-0.0121033 0 0.00152703 78.4338
0.0119448 2.71051e-20 0.00270134 993.427
-0.0119448 2.71051e-20 0.00270136 993.253
0.0120973 -2.71051e-20 0.00216163 173.034
-0.0120973 -5.42101e-20 0.00216166 171.487
-0.0123534 -3.38813e-21 7.40909e-11 976.647
0.0123534 0 7.40185e-11 977.114
-0.0123542 -6.77626e-21 2.17304e-05 976.683
0.0123542 3.38813e-21 2.16841e-05 977.15
0.0119751 -6.77626e-21 0.00303983 1135.39
-0.0119752 0 0.00303985 1135.19
0.0120033 0 0.00299988 1137.84
-0.0120034 0 0.00299991 1137.64
-0.0123759 0 4.08374e-11 981.613
0.0123759 0 4.08336e-11 982.067
0.0120142 6.77626e-21 0.00306058 1166.9
-0.0120143 0 0.00306059 1166.69
0.0123981 3.38813e-21 3.93484e-11 987.696
-0.0123981 0 3.9349e-11 987.257
0.0123987 3.38813e-21 1.91886e-05 987.724
-0.0123988 0 1.92302e-05 987.285
0.0124008 1.12938e-21 0.000576145 579.261
-0.0124008 5.64689e-22 0.000576171 574.203
0.0120519 0 0.00308051 1194.06
-0.012052 0 0.00308052 1193.84
0.0120703 0 0.0030437 1193.05
-0.0120704 6.77626e-21 0.00304372 1192.82
0.0124207 8.47033e-22 0.00119162 122.48
-0.0124207 2.82344e-22 0.00119165 113.727
0.0124236 -2.82344e-22 0.00184651 109.559
-0.0124236 8.47033e-22 0.00184654 101.293
0.0123835 -9.03502e-22 0.00256027 611.246
-0.0123835 -2.03288e-21 0.00256029 607.952
-0.0126967 5.42101e-20 0.000276519 1046.93
0.0126967 -2.71051e-20 0.000276513 1047.35
0.0123513 0 0.00296166 1342.61
-0.0123514 0 0.00296167 1342.33
0.0127273 2.71051e-20 0.000857688 176.138
-0.0127273 2.71051e-20 0.000857703 163.279
0.0124095 0 0.00326997 1566.49
-0.0124095 0 0.00327 1566.23
0.0127511 2.71051e-20 0.0014915 72.2713
-0.0127511 0 0.00149152 63.0483
0.0124313 0 0.00323672 1569.77
-0.0124313 0 0.00323675 1569.5
0.0124457 0 0.00328913 1613.56
-0.0124457 0 0.00328915 1613.27
-0.0124807 -6.77626e-21 0.00330749 1653.28
0.0124807 6.77626e-21 0.00330748 1653.58
-0.0124951 0 0.00327724 1651.7
0.0124951 0 0.00327722 1652
0.0127412 0 0.00217415 105.726
-0.0127412 0 0.00217416 89.6114
0.0126309 -2.63521e-21 0.00298509 1190.93
-0.0126309 1.50584e-21 0.0029851 1190.78
-0.0130119 0 3.91295e-06 1226.8
0.0130206 0 3.15285e-06 1227.16
-0.0130338 -2.82344e-22 0.000526404 717.158
0.0130338 -5.64689e-22 0.0005264 723.392
0.0127927 -5.42101e-20 0.00274396 301.244
-0.0127927 0 0.00274397 301.424
0.01305 -3.5293e-22 0.00108918 162.364
-0.0130502 7.05861e-23 0.00108947 150.457
0.0131021 -4.23516e-22 1.36103e-12 1221.61
-0.0131041 3.38813e-21 1.35707e-12 1221.11
0.0127559 0 0.00321821 1883.64
-0.0127559 2.71051e-20 0.00321822 1883.34
0.0130771 -4.70574e-23 0.0018121 84.7396
-0.0130772 -2.35287e-23 0.00181208 73.6522
0.0128312 0 0.00349147 1477.36
-0.0128312 0 0.00349149 1477
0.0128495 0 0.00346312 1473.88
-0.0128495 6.77626e-21 0.00346314 1473.52
0.0130837 -1.41172e-22 0.00247341 162.162
-0.0130837 -1.41172e-22 0.00247342 155.869
-0.0133275 0 0.000238489 1412.68
0.0133275 -5.42101e-20 0.000238488 1413
0.0128663 0 0.00350989 1402.3
-0.0128663 0 0.0035099 1401.95
-0.0129008 0 0.00352796 1322.79
0.0129009 6.77626e-21 0.00352796 1323.13
-0.0129238 6.77626e-21 0.00348629 1329.4
0.0129238 0 0.00348628 1329.73
0.0130386 5.64689e-22 0.00304624 858.348
-0.0130386 0 0.00304625 857.608
-0.0133691 2.71051e-20 0.000762344 217.59
0.0133691 0 0.000762343 229.226
0.013433 2.71051e-20 0.00137815 74.7055
-0.013433 0 0.00137815 60.5685
0.0134156 5.42101e-20 0.00211069 62.8208
-0.0134156 -2.71051e-20 0.0021107 55.5286
0.013227 0 0.00336665 932.51
-0.013227 -2.71051e-20 0.00336666 932.101
-0.0136582 -3.10579e-21 0.000454835 791.236
0.0136582 -4.51751e-21 0.00045481 788.124
0.0133906 2.71051e-20 0.00280402 159.055
-0.0133906 -2.71051e-20 0.00280402 156.441
0.0137198 6.77626e-21 1.35042e-13 1196.74
-0.01372 0 1.34214e-13 1196.26
0.0137205 6.77626e-21 2.22047e-05 1196.19
-0.0137207 -6.77626e-21 2.20751e-05 1195.71
0.0137215 -3.38813e-21 0.000181485 1045.71
-0.0137217 -3.38813e-21 0.000180645 1047.96
0.0137517 0 1.01802e-14 1191.37
-0.0137517 0 1.00122e-14 1190.92
0.0132451 0 0.0037083 1085.15
-0.0132451 0 0.00370831 1084.8
0.0132719 0 0.00367137 1087.97
-0.0132719 0 0.00367139 1087.61
-0.0137723 6.77626e-21 1.6111e-05 1216.22
0.0137724 6.77626e-21 1.62075e-05 1216.82
-0.0137739 3.38813e-21 5.87369e-15 1217.73
0.013774 0 6.01109e-15 1218.34
0.0132783 0 0.00372567 1113.42
-0.0132783 6.77626e-21 0.00372568 1113.06
0.0137945 1.12938e-21 0.000886616 266.875
-0.0137945 0 0.000886593 266.956
-0.0133097 0 0.00374319 1138.67
0.0133097 -6.77626e-21 0.00374318 1139.04
-0.0138294 6.77626e-21 2.58773e-15 1204.92
0.0138298 0 2.6944e-15 1205.46
-0.0133283 0 0.00371041 1137.7
0.0133283 0 0.00371039 1138.06
0.0137534 0 0.00171114 67.3824
-0.0137534 -1.12938e-21 0.00171114 56.3774
0.0136707 -1.05879e-22 0.00246353 98.5791
-0.0136709 -1.05879e-22 0.00246353 89.6423
0.0137202 0 0.002462 93.1492
-0.0137215 1.82112e-20 0.00246192 84.0044
-0.0137187 -2.11758e-22 0.00249057 102.402
0.0137187 1.05879e-22 0.00249065 111.362
0.013662 -9.03502e-22 0.00322324 586.633
-0.013662 6.77626e-22 0.00322324 583.992
-0.013613 2.71051e-20 0.00362485 1301.31
0.0136131 0 0.00362485 1301.62
0.0141363 1.69407e-21 0.000319446 821.554
-0.0141363 0 0.000319424 822.025
0.0140904 2.71051e-20 0.00128026 83.2805
-0.0140904 -2.71051e-20 0.00128025 69.9887
0.0140599 0 0.00206638 49.9897
-0.0140599 2.71051e-20 0.00206638 40.9489
0.0136637 0 0.00393551 1515.61
-0.0136637 3.38813e-21 0.00393552 1515.29
0.0136787 0 0.00391519 1517.76
-0.0136787 0 0.00391522 1517.44
-0.0142379 1.35525e-20 7.69362e-16 949.765
0.014238 1.35525e-20 7.95335e-16 950.428
0.0136843 -3.38813e-21 0.00394699 1538.71
-0.0136843 -3.38813e-21 0.00394698 1538.37
-0.0137016 0 0.00395979 1555.16
0.0137016 0 0.00395981 1555.51
-0.0137143 3.38813e-21 0.00394399 1554.84
0.0137143 -3.38813e-21 0.00394399 1555.19
-0.0140217 -2.71051e-20 0.00281655 80.0952
0.0140217 2.71051e-20 0.00281655 97.5323
-0.013895 1.50584e-21 0.00367137 1138.19
0.0138951 -9.41148e-22 0.00367137 1136.53
-0.0144242 5.64689e-22 0.000793237 329.677
0.0144242 1.56858e-23 0.000793235 327.048
0.014454 2.71051e-20 1.48066e-16 973.419
-0.014454 1.35525e-20 1.45757e-16 972.691
0.0143969 -2.82344e-22 0.00165239 67.1519
-0.0143969 2.82344e-22 0.00165239 55.6886
-0.0140802 2.71051e-20 0.00343827 282.799
0.0140802 2.71051e-20 0.00343827 277.22
-0.0140067 5.42101e-20 0.00392192 1796.72
0.0140067 0 0.00392194 1797.1
0.0143633 0 0.00242487 61.3047
-0.0143633 -9.52912e-21 0.00242488 49.8652
-0.0143624 -2.11758e-22 0.00267917 80.9945
0.0143624 -2.11758e-22 0.00267952 90.8113
0.0140362 -1.69407e-21 0.00420871 1876.19
-0.0140362 1.69407e-21 0.00420869 1875.69
0.014043 0 0.00420186 1876.87
-0.014043 1.69407e-21 0.00420185 1876.36
-0.0140444 1.69407e-21 0.00421477 1881.91
0.0140443 -1.69407e-21 0.00421479 1882.43
-0.0140522 0 0.00422057 1884.33
0.0140522 -1.69407e-21 0.0042206 1884.86
-0.0140564 1.69407e-21 0.00421301 1884.51
0.0140564 -1.69407e-21 0.00421303 1885.04
-0.0146848 1.35525e-20 -3.35187e-17 741.979
0.0146849 6.77626e-21 -3.32302e-17 742.532
0.0143544 -2.58345e-20 0.00313093 143.375
-0.0143544 0 0.00313092 136.5
-0.0143606 0 0.00313712 137.123
0.0143549 4.23516e-22 0.00313705 143.876
-0.0147048 5.42101e-21 0.000271671 714.394
0.0147048 0 0.000271731 714.963
-0.014356 0 0.00329971 342.644
0.014356 8.47033e-22 0.00329991 352.759
0.0147336 -2.71051e-20 0.0012417 87.8076
-0.0147336 0 0.00124169 77.4282
-0.0146227 -2.11758e-22 0.0023874 45.646
0.0146235 2.11758e-22 0.00238728 57.1448
0.0146912 2.71051e-20 0.002036 47.7627
-0.0146912 -2.71051e-20 0.002036 35.0621
-0.0143356 -4.03349e-23 0.00382206 1038.49
0.0143356 3.63014e-22 0.00382208 1056.24
-0.0143244 0 0.00417019 1979.9
0.0143244 0 0.00417021 1980.56
-0.0142789 -8.47033e-22 0.00438875 2087.9
0.0142791 0 0.0043889 2088.54
-0.0146906 0 0.00275581 44.5703
0.0146906 2.71051e-20 0.00275581 51.6652
-0.0149588 -1.41172e-22 0.00165211 52.9633
0.0149603 0 0.00165061 66.398
-0.0146586 -2.71051e-20 0.00346816 122.932
0.0146586 -5.42101e-20 0.00346818 131.948
-0.0144053 -8.47033e-22 0.00448256 2196.19
0.0144084 0 0.00447898 2196.68
-0.0151194 2.37169e-20 -3.98229e-17 569.087
0.0151197 -3.38813e-21 -3.98169e-17 569.861
-0.0144514 -8.47033e-22 0.00451675 2122.97
0.0144515 -1.69407e-21 0.00451675 2123.54
-0.0151612 0 3.4719e-05 553.303
0.0151612 0 3.45049e-05 554.195
-0.0151666 0 -1.47629e-17 554.722
0.0151666 0 -1.47327e-17 555.606
-0.0145673 1.12938e-21 0.00422607 1617.88
0.0145673 -1.50584e-21 0.00422609 1649.78
0.0151843 0 -9.97127e-18 559.207
-0.0151843 0 -1.0005e-17 558.339
-0.015166 1.12938e-21 0.00086797 313.074
0.015166 2.25875e-21 0.000867968 317.704
0.0152148 3.38813e-21 -1.00637e-17 556.02
0.0152149 3.38813e-21 2.26461e-05 555.959
-0.0152151 3.38813e-21 -1.00978e-17 555.119
-0.0152151 0 2.27883e-05 555.058
-0.0147125 -2.71051e-20 0.00402551 409.423
0.0147125 0 0.00402553 506.25
-0.0150843 0 0.00231357 38.0087
0.0150843 4.23516e-22 0.00231357 49.6608
-0.0150902 -2.4564e-20 0.00232072 38.0391
0.0150909 6.26804e-20 0.00231341 49.6755
-0.0149792 2.82344e-22 0.0031214 64.8645
0.0149792 2.82344e-22 0.00312141 72.6896
-0.0146794 0 0.00445851 2437.48
0.0146795 -5.42101e-20 0.00445853 2437.75
-0.0149711 0 0.00367466 181.182
0.0149711 0 0.00367488 204.678
-0.0149706 0 0.00377567 202.804
0.0149706 0 0.00377568 229.171
-0.0147268 0 0.00472093 1777.46
0.0147268 6.77626e-21 0.00472096 1777.99
-0.0147397 0 0.0047038 1773.6
0.0147397 0 0.00470382 1774.14
-0.0147494 6.77626e-21 0.00473772 1717.38
0.0147494 0 0.00473775 1717.91
0.0150251 2.11758e-22 0.00377792 216.364
-0.0150252 1.05879e-21 0.00377791 192.259
-0.0147753 0 0.0047569 1577.28
0.0147753 6.77626e-21 0.00475694 1577.81
-0.0147957 0 0.00471951 1601.17
0.0147957 0 0.00471954 1601.71
-0.0149236 -3.38813e-21 0.00432832 1093.42
0.0149238 4.23516e-22 0.00432831 1112.56
-0.0149307 0 0.0043143 1073.17
0.0149308 3.59989e-20 0.00431433 1093.02
0.0153072 -5.42101e-20 0.00276684 43.0568
-0.0153072 0 0.00276684 32.9512
-0.0149538 2.11758e-22 0.00432332 1051.88
0.0149538 4.02341e-21 0.00432332 1070.71
-0.0152762 2.71051e-20 0.00345527 59.3124
0.0152762 2.71051e-20 0.00345527 64.3734
-0.0156652 -5.42101e-20 0.00170503 42.2333
0.0156652 5.42101e-20 0.00170503 61.8013
-0.0150897 0 0.00463312 992.263
0.0150898 0 0.00463317 992.959
-0.0152566 0 0.00410558 186.996
0.0152566 -2.71051e-20 0.00410559 173.081
0.0156483 -7.05861e-23 0.00239976 46.1806
-0.0156483 7.05861e-23 0.00239976 32.8641
-0.0150378 0 0.00495164 1036.9
0.0150379 -6.77626e-21 0.0049517 1037.54
-0.0158313 -1.0842e-19 0.000505742 312.798
0.0158313 5.42101e-20 0.000505749 314.064
-0.0150929 0 0.00489488 1045.89
0.015093 0 0.00489493 1046.52
-0.0150892 -1.35525e-20 0.00498975 1112.14
0.0150893 0 0.00498982 1112.75
-0.015606 -2.82344e-22 0.00310341 38.3533
0.015606 5.64689e-22 0.00310341 47.0595
-0.0151438 0 0.00503029 1097.98
0.0151439 6.77626e-21 0.00503035 1098.56
-0.0151784 0 0.00496289 1097.93
0.0151785 1.35525e-20 0.00496294 1098.52
-0.0155884 -6.77626e-22 0.00378776 87.3547
0.0155884 2.25875e-22 0.00378777 89.564
-0.0155033 0 0.00450864 569.108
0.0155033 -1.807e-21 0.00450867 564.968
-0.0154178 -2.71051e-20 0.00490558 1171.12
0.0154179 0 0.00490563 1171.63
-0.0159469 2.71051e-20 0.00273843 27.1177
0.0159469 -2.71051e-20 0.00273843 39.708
-0.0153971 -1.35525e-20 0.00521815 1254.03
0.0153972 2.03288e-20 0.00521821 1254.63
-0.015903 0 0.0034351 34.6099
0.015903 0 0.00343511 41.7204
-0.0154387 0 0.00517349 1262.32
0.0154387 6.77626e-21 0.00517354 1262.92
-0.0154377 6.77626e-21 0.00524824 1332.3
0.0154377 0 0.00524829 1332.93
0.0163338 3.81165e-21 -1.09082e-18 307.83
-0.0163352 4.23516e-22 -1.08335e-18 306.246
-0.0154764 -6.77626e-21 0.00527693 1315.69
0.0154764 6.77626e-21 0.00527698 1316.35
-0.0155053 0 0.00524153 1315.19
0.0155053 0 0.00524158 1315.85
0.0163533 5.50571e-21 0.00112133 176.522
-0.0163536 0 0.00112139 167.487
-0.0158756 2.71051e-20 0.0041209 75.305
0.0158756 0 0.00412092 84.8991
0.0163769 3.59989e-21 0.00112768 173.546
-0.0163768 3.34578e-20 0.00112767 164.462
-0.0156932 -7.52918e-22 0.00495312 970.12
0.0156933 1.50584e-21 0.00495315 964.745
0.0164701 4.23516e-22 3.15916e-06 277.711
-0.0164637 4.23516e-22 2.61009e-06 276.383
-0.0163214 0 0.00227444 35.5886
0.0163214 1.12938e-21 0.00227444 50.2711
-0.0162376 4.51751e-22 0.0030774 30.5495
0.0162376 -4.51751e-22 0.0030774 41.072
-0.0159046 0 0.00473208 255.862
0.0159046 0 0.00473209 236.907
-0.0157801 -2.71051e-20 0.00520579 1431.72
0.0157802 2.71051e-20 0.00520583 1432.51
-0.0162469 -2.25875e-21 0.00372972 44.3538
0.0162469 1.12938e-21 0.00372973 51.9272
-0.0157745 0 0.00549808 1508.13
0.0157746 0 0.00549812 1508.81
-0.0158014 6.77626e-21 0.00547416 1510.7
0.0158015 0 0.00547419 1511.38
-0.0158049 6.77626e-21 0.00552063 1521.96
0.015805 0 0.00552067 1522.64
-0.0158346 6.77626e-21 0.00554267 1536.25
0.0158347 0 0.00554272 1536.9
-0.0158529 0 0.00551417 1536.41
0.015853 0 0.00551421 1537.07
-0.016198 0 0.00441893 116.12
0.0161981 2.25875e-22 0.00441893 118.231
-0.0166697 0 0.00284041 27.9686
0.0166698 5.42101e-20 0.00284041 41.2946
-0.0161695 -4.51751e-22 0.00510698 789.749
0.0161695 -4.51751e-22 0.00510701 794.808
-0.0166597 0 0.00328607 27.2418
0.0166597 2.71051e-20 0.00328607 36.5283
-0.0165248 -2.71051e-20 0.00409519 39.0508
0.0165248 2.71051e-20 0.0040952 44.4464
-0.0161206 2.71051e-20 0.00547661 1625.58
0.0161207 2.71051e-20 0.00547665 1626.13
-0.0170334 0 0.000576922 240.376
0.0170335 5.42101e-20 0.000576921 241.762
-0.0168875 -4.23516e-22 0.0023902 36.863
0.0168875 -2.11758e-22 0.00239021 49.9334
-0.0169716 1.0842e-19 0.00176737 52.2749
0.0169716 0 0.00176736 67.0912
-0.0169179 -2.11758e-22 0.00239498 36.9295
0.0169179 2.11758e-22 0.00239498 49.9137
0.0169439 2.11758e-22 0.00239538 50.1582
-0.0169439 2.11758e-22 0.00239538 37.3016
-0.0168719 0 0.00305894 28.151
0.0168719 0 0.00305894 38.7082
-0.0161674 -6.77626e-21 0.00578953 1815.16
0.0161674 0 0.00578955 1815.58
-0.0165034 5.42101e-20 0.00475625 99.9031
0.0165034 2.71051e-20 0.00475627 112.585
-0.0161836 0 0.00577012 1817.41
0.0161836 0 0.00577014 1817.83
-0.0161897 0 0.00580603 1838.27
0.0161897 0 0.00580606 1838.69
-0.0162121 0 0.00582272 1864.47
0.0162122 0 0.00582276 1864.9
-0.0162243 0 0.00580494 1863.66
0.0162243 -6.77626e-21 0.00580498 1864.09
0.0168523 -4.51751e-22 0.00374134 38.5009
-0.0168523 1.12938e-22 0.00374134 31.3414
-0.0163971 -4.23516e-22 0.00553967 1329.65
0.0163973 -4.23516e-22 0.00553971 1340.61
-0.0170978 0 0.00283719 30.4824
0.0170978 5.42101e-20 0.00283719 41.0842
-0.0170665 2.71051e-20 0.00327483 26.8148
0.0170665 0 0.00327484 35.8402
-0.0165625 2.71051e-20 0.0053276 326.017
0.0165626 -2.71051e-20 0.00532762 357.796
-0.0168336 -1.41172e-22 0.0044175 52.9036
0.0168336 1.41172e-22 0.00441751 60.5932
-0.0164976 2.71051e-20 0.00578805 2067.23
0.0164976 -2.71051e-20 0.00578809 2067.53
-0.0168265 -1.69407e-22 0.00506999 184.231
0.0168265 -2.82344e-22 0.00507002 197.41
-0.0176289 0 1.51736e-05 237.91
0.0176289 0 1.51718e-05 239.511
-0.0176298 0 -8.11545e-23 237.91
0.0176298 0 -8.41405e-23 239.511
-0.0176062 -2.82344e-22 0.00116021 150.833
0.0176063 -5.64689e-22 0.00116021 157.838
-0.0176451 0 -1.69374e-23 237.891
0.0176451 3.38813e-21 -1.6139e-23 239.497
-0.0171749 -2.71051e-20 0.00405965 27.4104
0.0171749 0 0.00405966 34.2031
0.0176602 0 1.54588e-05 239.412
-0.0176602 -3.38813e-21 1.54608e-05 237.8
0.0176607 -3.38813e-21 -1.83247e-23 239.412
-0.0176607 0 -1.91174e-23 237.8
-0.0165809 0 0.00609702 1749.94
0.016581 -6.77626e-21 0.00609706 1750.62
-0.0165981 6.77626e-21 0.00608064 1747.83
0.0165981 -6.77626e-21 0.00608065 1748.5
-0.016605 0 0.00611494 1729.5
0.0166051 0 0.00611499 1730.18
-0.0166198 0 0.00612719 1761.68
0.0166199 0 0.00612726 1762.4
-0.0166291 0 0.00611136 1759.86
0.0166292 0 0.00611141 1760.58
-0.0175901 -2.25875e-21 0.00236117 46.4307
0.0175901 1.12938e-21 0.00236117 56.1176
-0.0166534 0 0.00615455 1762.76
0.0166535 -6.77626e-21 0.00615465 1763.49
-0.0168283 3.01167e-21 0.00572854 1062.79
0.0168284 -9.41148e-22 0.00572855 1080.49
-0.0175166 -3.5293e-22 0.00305113 31.8528
0.0175166 1.41172e-22 0.00305113 39.2163
-0.0171428 0 0.0047344 45.4321
0.0171428 2.71051e-20 0.00473441 51.4684
-0.017534 3.38813e-21 0.00360681 28.733
0.017534 -1.12938e-21 0.00360681 34.7164
-0.0171172 0 0.00539736 144.58
0.0171172 2.71051e-20 0.00539737 143.624
0.01747 1.69407e-22 0.00438795 37.73
-0.01747 1.69407e-22 0.00438795 32.0137
-0.0168947 6.77626e-21 0.00636212 1537.75
0.0168947 2.03288e-20 0.00636216 1538.8
0.0170243 0 0.00618637 1441.61
-0.0170257 1.41172e-22 0.00618772 1440.26
-0.0174372 -8.47033e-22 0.00507024 69.0502
0.0174372 0 0.00507024 74.9055
-0.0182236 -1.0842e-19 0.000583084 235.328
0.0182236 5.42101e-20 0.000583082 237.155
-0.0177925 0 0.00405319 26.6747
0.0177925 0 0.00405319 31.3505
-0.018201 5.42101e-20 0.00177192 70.4346
0.018201 -5.42101e-20 0.00177193 80.7726
-0.0173656 -1.807e-21 0.00581376 503.88
0.0173656 1.807e-21 0.00581378 528.34
-0.0171242 0 0.00658581 1697.08
0.0171243 0 0.00658585 1697.88
-0.0177701 0 0.0047233 29.1549
0.0177701 2.71051e-20 0.0047233 34.4779
-0.0171594 -6.77626e-21 0.0066222 1720.07
0.0171595 0 0.00662223 1720.85
-0.0171745 -6.77626e-21 0.00660974 1714.34
0.0171746 -6.77626e-21 0.00660977 1715.11
-0.0171745 6.77626e-21 0.00663768 1663.81
0.0171746 0 0.00663771 1664.6
-0.0181606 -1.0842e-19 0.00305643 37.3585
0.0181606 -5.42101e-20 0.00305643 39.7966
-0.01719 -6.77626e-21 0.00665349 1717.73
0.0171901 -6.77626e-21 0.00665351 1718.48
-0.0172014 0 0.00663722 1711.82
0.0172015 -6.77626e-21 0.00663725 1712.57
-0.017284 0 0.00651866 1441.96
0.0172841 -6.77626e-21 0.00651871 1454.17
-0.0172277 -2.71051e-20 0.00669186 1713.52
0.0172278 -2.03288e-20 0.00669187 1714.27
0.0181264 -4.23516e-22 0.00381067 32.0673
-0.0181264 0 0.00381068 28.9909
-0.0177303 5.42101e-20 0.00540333 56.7217
0.0177303 5.42101e-20 0.00540334 69.4432
-0.0174485 0 0.00633776 1099.86
0.0174485 -1.50584e-21 0.00633777 1125.53
-0.0181015 0 0.00437909 26.8454
0.0181015 2.82344e-22 0.00437909 30.5611
-0.0177286 2.71051e-20 0.00604036 179.943
0.0177286 0 0.00604037 194.772
-0.018075 0 0.00504762 34.9636
0.018075 5.64689e-22 0.00504762 41.8796
-0.0174666 -6.77626e-21 0.00693497 1636.23
0.0174666 -6.77626e-21 0.00693498 1636.97
-0.0188065 0 1.6274e-05 235.017
0.0188065 0 1.62693e-05 237.462
-0.0188069 0 2.04326e-24 235.017
0.0188069 0 2.046e-24 237.462
0.0188233 0 -2.50777e-25 237.484
-0.0188233 0 -2.47904e-25 235.022
0.0188396 0 1.62248e-05 237.493
-0.0188396 3.38813e-21 1.62294e-05 235.015
0.0188397 0 -2.4549e-25 237.493
-0.0188397 3.38813e-21 -2.42667e-25 235.015
-0.0188091 5.64689e-22 0.00116454 156.127
0.0188091 1.12938e-21 0.00116454 159.695
-0.0184387 0 0.00403102 26.7777
0.0184387 0 0.00403102 28.5718
0.0176208 7.05861e-23 0.00677694 1524.29
-0.0176216 -1.41172e-22 0.00677769 1523.31
-0.0180488 1.12938e-21 0.00571123 83.3902
0.0180488 -2.25875e-21 0.00571124 96.4435
-0.018794 8.47033e-22 0.00239227 57.7162
0.018794 -2.82344e-22 0.00239227 59.2336
-0.0184023 -5.42101e-20 0.0046998 24.9011
0.0184023 0 0.0046998 27.9938
-0.0179596 0 0.00643086 576.627
0.0179596 3.76459e-21 0.00643087 603.88
-0.0177051 -6.77626e-21 0.00717768 1687.91
0.0177052 0 0.0071777 1688.53
-0.0177437 0 0.00721691 1685.93
0.0177437 0 0.00721692 1686.54
-0.0184015 0 0.00534889 30.1613
0.0184015 0 0.0053489 36.9303
-0.0177602 0 0.007205 1679.89
0.0177602 0 0.00720502 1680.5
-0.0177596 6.77626e-21 0.0072331 1628.77
0.0177596 0 0.00723311 1629.39
0.0188295 1.41172e-22 0.00373127 30.9835
-0.0177751 0 0.00724887 1678.56
0.0177751 0 0.00724887 1679.16
-0.0188307 7.05861e-23 0.00373002 31.6678
-0.017788 0 0.0072329 1673.22
0.017788 0 0.00723291 1673.83
-0.018738 4.23516e-22 0.00435322 25.9245
0.018738 -9.31736e-21 0.00435322 27.0275
-0.0187376 0 0.00436113 25.9067
0.0187376 -2.03288e-20 0.00436113 27.0088
0.0178113 6.77626e-21 0.00728567 1659.99
-0.0178113 1.35525e-20 0.00728567 1659.37
0.0178795 0 0.00711716 1421.1
-0.0178795 0 0.00711713 1409.34
-0.0183488 -2.71051e-20 0.00603424 66.3158
0.0183488 2.71051e-20 0.00603425 83.7169
-0.0180549 -3.01167e-21 0.00694833 1080.48
0.0180549 0 0.00694833 1105.5
0.0194128 5.42101e-20 0.000584031 237.806
-0.0194128 0 0.000584032 234.708
-0.018803 0 0.00493677 26.6558
0.018803 2.82344e-22 0.00493677 29.2715
-0.0194073 0 0.00177875 80.6329
0.0194073 -5.42101e-20 0.00177875 79.6997
-0.0183455 -2.71051e-20 0.00666212 186.901
0.0183455 -2.71051e-20 0.00666213 207.893
-0.0186965 -5.64689e-22 0.00568331 38.8031
0.0186965 -3.38813e-21 0.00568331 47.6529
-0.0180388 2.03288e-20 0.007517 1496.38
0.0180388 0 0.007517 1497.06
0.0194176 0 0.0030161 35.4968
-0.0194176 5.42101e-20 0.0030161 41.378
-0.0182202 9.41148e-23 0.00737491 1415.57
0.0182202 -9.41148e-23 0.00737492 1416.68
-0.0186656 1.12938e-21 0.00633956 90.2949
0.0186656 1.12938e-21 0.00633956 107.218
-0.0190338 2.71051e-20 0.00534623 25.7174
0.0190338 2.71051e-20 0.00534623 27.4036
-0.0185755 9.03502e-22 0.00702539 516.046
0.0185755 -3.83988e-21 0.0070254 542.035
-0.0193824 0 0.00433462 26.0405
0.0193824 5.42101e-20 0.00433462 22.8645
0.0182812 -3.38813e-21 0.00776358 1879.94
-0.0182812 -3.38813e-21 0.00776358 1879.37
-0.0182994 0 0.00778213 1887.38
0.0182994 -3.38813e-21 0.00778213 1887.96
-0.0183082 0 0.0077765 1886.74
0.0183082 0 0.0077765 1887.32
-0.018307 3.38813e-21 0.00778984 1875.07
0.018307 -3.38813e-21 0.00778984 1875.65
-0.0183179 3.38813e-21 0.00780096 1890.91
0.0183179 0 0.00780096 1891.48
-0.0183258 0 0.00779182 1889.79
0.0183258 3.38813e-21 0.00779182 1890.36
-0.0190083 0 0.00599366 34.3908
0.0190083 2.71051e-20 0.00599366 44.2179
-0.0184198 1.69407e-21 0.00771698 1663.48
0.0184198 1.69407e-21 0.00771698 1671.42
-0.019989 -3.38813e-21 1.55569e-05 235.984
0.019989 0 1.55557e-05 239.761
-0.019989 0 -4.667e-27 235.984
0.019989 0 -4.71098e-27 239.76
0.0193663 4.70574e-22 0.00500042 25.0734
-0.0193663 2.82344e-22 0.00500042 24.567
0.0200048 0 3.512e-28 239.817
-0.0200048 0 3.46741e-28 236.021
0.0200207 0 3.42341e-28 239.869
-0.0200207 0 3.37969e-28 236.053
0.0200208 0 1.54817e-05 239.869
-0.0200208 0 1.54827e-05 236.053
-0.0200101 2.82344e-22 0.0011652 159.062
0.0200101 -2.82344e-22 0.0011652 156.597
0.0189752 5.42101e-20 0.00665313 92.6617
-0.0189752 0 0.00665313 73.4761
-0.0184856 -1.69407e-21 0.00797148 2113.47
0.0184856 1.69407e-21 0.00797148 2113.93
-0.0193439 8.47033e-22 0.00565424 26.8243
0.0193439 0 0.00565424 31.6932
-0.0186909 9.03502e-22 0.00754644 1120.37
0.0186909 1.807e-21 0.00754644 1145.75
-0.020018 0 0.00238483 59.3968
0.020018 8.47033e-22 0.00238483 50.9152
-0.0186426 0 0.0078697 2445.59
0.0186426 -2.71051e-20 0.0078697 2445.99
-0.0193211 -1.12938e-21 0.006303 42.0715
0.0193211 0 0.006303 54.4314
0.0189891 -2.71051e-20 0.00726764 198.024
-0.0189891 5.42101e-20 0.00726763 185.781
0.020019 0 0.0036605 25.4693
-0.020019 -4.23516e-22 0.0036605 31.2313
0.0200253 4.23516e-22 0.0036605 25.3997
-0.0200254 -4.23516e-22 0.00366706 31.1671
-0.0186572 0 0.00814596 2378.43
0.0186572 3.38813e-21 0.00814596 2378.75
-0.0186658 0 0.00813527 2381.45
0.0186658 0 0.00813527 2381.77
0.0186692 0 0.0081582 2353.98
-0.0186692 0 0.0081582 2353.66
0.0196809 -2.71051e-20 0.00530872 24.1889
-0.0196809 0 0.00530872 22.637
0.0186808 3.38813e-21 0.00816999 2376.89
-0.0186808 0 0.00816999 2376.57
0.0186938 0 0.00816276 2379.83
-0.0186938 -3.38813e-21 0.00816276 2379.52
-0.0188968 -1.50584e-21 0.00796769 1744.26
0.0188968 -7.52918e-22 0.00796769 1767.97
0.0193082 -5.64689e-22 0.00694389 108.519
-0.0193082 0 0.00694389 93.1842
0.0196502 0 0.00596319 31.3458
-0.0196502 0 0.00596319 24.8024
-0.0200665 0 0.00447888 25.4596
0.0200665 -2.11758e-22 0.00447894 23.4822
0.0190752 2.71051e-20 0.00780496 524.207
-0.0190752 2.71051e-20 0.00780496 454.266
-0.0206063 -1.0842e-19 0.000581335 237.334
0.0206063 -1.0842e-19 0.000581332 241.832
-0.0200903 2.11758e-22 0.00488562 22.5936
0.020087 8.42798e-20 0.00488573 22.516
0.0189865 0 0.00821425 2366.02
-0.0189864 0 0.00821426 2365.79
-0.0206227 5.42101e-20 0.00176982 80.3256
0.0206227 5.42101e-20 0.00176982 63.5345
0.0196565 0 0.00659443 51.2515
-0.0196565 -2.71051e-20 0.00659443 37.1239
-0.0193221 0 0.00755322 231.805
0.0193221 -1.94884e-21 0.00755382 260.113
-0.0199866 6.58803e-22 0.00562695 22.636
0.0199866 0 0.00562695 26.6121
0.0189788 0 0.00847309 2327.3
-0.0189788 1.69407e-21 0.0084731 2326.95
0.0189845 0 0.0084671 2329.3
-0.0189845 -1.69407e-21 0.00846712 2328.95