# omega  POINT_DATA 42454
# x  y  z  omega
0 5.04436e-09 0.049924 1929.04
0 0.000625863 0.0499247 1929.57
0 -0.000623753 0.0499247 1929.54
0 0.00125175 0.0499254 1931.01
0 -0.00124749 0.0499254 1930.96
-4.23516e-22 0.00187767 0.0499261 1933.04
0 -0.0018712 0.0499261 1932.98
0 0.0025036 0.0499268 1935.47
0 -0.00249489 0.0499268 1935.41
8.47033e-22 0.00312954 0.0499276 1938.75
-8.47033e-22 -0.00311857 0.0499276 1938.67
0 0.00374219 0.049924 1943.41
8.47033e-22 -0.00374223 0.0499283 1943.31
8.47033e-22 0.00374886 0.049924 1943.96
-8.47033e-22 -0.00374886 0.049924 1943.86
0 -0.00375553 0.0499283 1943.51
0 0.00375553 0.0499283 1943.61
-8.47033e-22 0.00436576 0.049924 1950.63
0 -0.00436582 0.0499291 1950.52
0 0.00437368 0.049924 1951.23
1.69407e-21 -0.00437368 0.049924 1951.12
-8.47033e-22 -0.00438158 0.0499291 1950.88
-8.47033e-22 0.00438158 0.0499291 1950.99
-2.71051e-20 -0.000312415 0.0501277 1929.03
-2.71051e-20 0.000312416 0.0501277 1929.05
2.71051e-20 -0.000937254 0.0501276 1930.04
0 0.000937254 0.0501276 1930.08
0 0.00156209 0.0501275 1931.92
0 -0.00156209 0.0501275 1931.86
0 0.00498927 0.049924 1960.8
1.69407e-21 -0.00498933 0.0499299 1960.68
0 -0.00499848 0.049924 1961.06
1.69407e-21 0.00499848 0.049924 1961.18
1.69407e-21 -0.00500769 0.0499299 1961.24
0 0.00500769 0.0499299 1961.36
0 -0.00218693 0.0501274 1934.05
0 0.00218693 0.0501274 1934.1
5.42101e-20 0.00281176 0.0501273 1936.75
0 -0.00281176 0.0501273 1936.69
1.69407e-21 0.00561272 0.049924 1973.31
-1.69407e-21 -0.00561272 0.049924 1973.18
1.69407e-21 -0.00562327 0.049924 1973.11
0 0.00562327 0.049924 1973.24
0 -0.00563387 0.049924 1973.92
1.69407e-21 0.00563387 0.049924 1974.04
-2.71051e-20 0.0034366 0.0501271 1940.61
-2.71051e-20 -0.0034366 0.0501271 1940.52
-1.69407e-21 -0.0056128 0.0499307 1973.18
0 0.0056128 0.0499307 1973.3
0 -0.00563381 0.0499307 1973.91
-1.69407e-21 0.00563381 0.0499307 1974.03
2.71051e-20 0.00406145 0.0501268 1946.33
0 -0.00406145 0.0501268 1946.22
0 0.00623615 0.049924 1987.46
-1.69407e-21 -0.00623615 0.049924 1987.32
0 -0.00624806 0.049924 1986.67
0 0.00624806 0.049924 1986.81
0 -0.00626002 0.049924 1988.22
0 0.00626002 0.049924 1988.36
0 -0.00623625 0.0499315 1987.31
0 0.00623625 0.0499315 1987.45
-1.69407e-21 -0.00625994 0.0499315 1988.21
0 0.00625994 0.0499315 1988.35
2.88334e-21 1.03498e-09 0.0503315 1169.3
-1.20702e-20 0.000624243 0.050332 1167.13
1.05879e-22 -0.000624244 0.050332 1172.48
2.71051e-20 -0.00468628 0.0501264 1955.05
2.71051e-20 0.00468628 0.0501264 1955.17
8.25857e-21 0.00124847 0.0503324 1165.66
0 -0.00124847 0.0503324 1177.05
8.89385e-21 0.00187268 0.0503327 1163.83
0 -0.00187268 0.0503327 1182.22
1.43996e-20 0.00249688 0.050333 1161.3
0 -0.00250225 0.050333 1187.27
0 0.00685954 0.049924 2003.76
-1.69407e-21 -0.00685954 0.049924 2003.61
-1.69407e-21 -0.00687284 0.049924 2002.28
0 0.00687284 0.049924 2002.44
-1.69407e-21 -0.00688622 0.049924 2004.8
0 0.00688622 0.049924 2004.96
-1.69407e-21 -0.00685965 0.0499324 2003.6
0 0.00685965 0.0499324 2003.75
1.69407e-21 -0.00688613 0.0499324 2004.78
-1.69407e-21 0.00688613 0.0499324 2004.94
-2.71051e-20 0.00531111 0.0501258 1966.8
-2.71051e-20 -0.00531111 0.0501258 1966.68
0 0.00312104 0.0503286 1168.53
4.23516e-22 -0.00312104 0.0503286 1201.25
-1.60936e-20 0.00312109 0.0503332 1157.49
8.47033e-22 -0.00312109 0.0503332 1190.92
0 0.00374526 0.0503278 1170.78
0 -0.00374526 0.0503278 1209.91
5.92923e-21 0.00374533 0.0503334 1157.43
-8.47033e-22 -0.00374533 0.0503334 1197.56
0 0.00593591 0.0501252 1980.26
5.42101e-20 -0.00593591 0.0501252 1980.14
1.69407e-21 0.00748281 0.049924 2018.18
0 -0.00748281 0.049924 2018
-3.38813e-21 -0.00749765 0.049924 2015.44
0 0.00749765 0.049924 2015.62
1.69407e-21 -0.00751258 0.0499239 2018.43
0 0.00751258 0.0499239 2018.61
0 -0.00748294 0.0499333 2017.98
0 0.00748294 0.0499333 2018.16
1.69407e-21 -0.00751247 0.0499332 2018.4
-1.69407e-21 0.00751247 0.0499332 2018.58
0 0.00436948 0.0503269 1174.61
0 -0.00436948 0.0503269 1219.55
-9.31736e-21 0.00436958 0.0503334 1158.9
-8.47033e-22 -0.00436958 0.0503334 1205.15
2.71051e-20 0.00656072 0.0501246 1995.16
-2.71051e-20 -0.00656072 0.0501246 1995.01
0 -0.000312474 0.0505592 394.493
2.71051e-20 0.000312474 0.0505592 389.005
0 0.000937423 0.0505591 384.816
-2.71051e-20 -0.000937423 0.0505591 401.196
7.05861e-22 -0.00499923 0.0503295 1218.38
-2.82344e-22 0.00499923 0.0503295 1165.57
0 0.0081058 0.049924 2021.94
3.38813e-21 -0.0081058 0.049924 2021.75
0 0.00812243 0.0499239 2017.93
0 -0.00812243 0.0499239 2017.74
0 -0.00813919 0.0499236 2020.53
-3.38813e-21 0.00813919 0.0499236 2020.72
5.42101e-20 0.00156235 0.0505589 380.086
-5.42101e-20 -0.00156235 0.0505589 409.838
0 -0.00810604 0.0499343 2021.72
0 0.00810604 0.0499343 2021.91
0 -0.00813897 0.0499341 2020.49
-3.38813e-21 0.00813897 0.0499341 2020.69
2.71051e-20 -0.00218727 0.0505586 417.815
2.71051e-20 0.00218727 0.0505586 373.149
-2.71051e-20 0.00718552 0.0501238 2013.04
-2.71051e-20 -0.00718552 0.0501238 2012.88
2.71051e-20 -0.0028122 0.0505583 425.374
2.71051e-20 0.0028122 0.0505583 365.037
1.41172e-22 -0.00562411 0.0503286 1231.06
2.82344e-22 0.00562411 0.0503286 1169.98
0 -0.00343715 0.0505579 434.786
0 0.00343715 0.0505579 360.543
0 0.00872861 0.0499238 2017.03
0 -0.00872861 0.0499238 2016.84
0 0.00874717 0.0499235 2012.42
0 -0.00874717 0.0499235 2012.23
0 -0.00876588 0.0499233 2015.1
-3.38813e-21 0.00876588 0.0499233 2015.29
0 -0.00872902 0.0499353 2016.8
0 0.00872902 0.0499353 2016.99
0 -0.0087655 0.0499349 2015.08
0 0.0087655 0.0499349 2015.28
4.23516e-22 -0.00624897 0.0503277 1244.51
-4.23516e-22 0.00624897 0.0503277 1176.04
0 -0.00406216 0.0505573 444.07
2.71051e-20 0.00406216 0.0505573 356.936
-2.71051e-20 0.00781068 0.050122 2023.08
0 -0.00781068 0.050122 2022.89
0 0.00468717 0.0505565 353.329
-2.71051e-20 -0.00468717 0.0505565 452.046
8.19426e-24 -5.59832e-07 0.0507876 394.645
-1.09055e-20 0.000624757 0.0507873 388.904
2.64698e-23 -0.000624757 0.0507873 401.382
0 0.00935138 0.0499235 2012.4
-3.38813e-21 -0.00935138 0.0499235 2012.21
0 0.00687386 0.0503267 1184.12
1.41172e-22 -0.00687386 0.0503267 1258.84
0 0.00937186 0.0499232 2007.6
0 -0.00937186 0.0499232 2007.41
0 -0.00939252 0.0499229 2010.58
0 0.00939252 0.0499229 2010.77
8.36445e-21 0.0012495 0.0507871 383.708
0 -0.0012495 0.0507871 408.775
0 -0.009352 0.0499362 2012.19
0 0.009352 0.0499362 2012.38
0 -0.00939192 0.0499358 2010.61
3.38813e-21 0.00939192 0.0499358 2010.8
-6.56451e-21 0.00187424 0.0507867 377.577
-1.05879e-22 -0.00187424 0.0507867 415.98
-2.71051e-20 0.00843563 0.0501187 2018.82
-2.71051e-20 -0.00843563 0.0501187 2018.63
0 0.00531212 0.0505554 348.912
0 -0.00531212 0.0505554 463.686
1.30231e-20 0.00249898 0.0507863 370.273
-1.05879e-22 -0.00249899 0.0507878 422.333
2.82344e-22 0.00749889 0.0503253 1190.81
2.82344e-22 -0.00749889 0.0503253 1271.95
5.92923e-21 0.00312374 0.0507859 363.546
-2.11758e-22 -0.00312595 0.0507876 428.904
2.71051e-20 -0.00593703 0.0505542 477.187
-2.71051e-20 0.00593703 0.0505542 345.032
0 0.00997412 0.049923 2010.52
-3.38813e-21 -0.00997412 0.049923 2010.32
0 0.00999652 0.0499227 2005.52
0 -0.00999652 0.0499227 2005.32
3.38813e-21 -0.0100191 0.0499224 2008.77
0 0.0100191 0.0499224 2008.97
0 -0.00997499 0.0499369 2010.35
3.38813e-21 0.00997499 0.0499369 2010.55
6.56451e-21 0.00374859 0.0507874 357.915
-2.11758e-22 -0.00374857 0.0507854 436.051
5.42101e-20 0.00906035 0.0501147 2012.96
2.71051e-20 -0.00906035 0.0501147 2012.76
0 -0.0100183 0.0499364 2008.87
3.38813e-21 0.0100183 0.0499364 2009.07
-2.75286e-20 0.00437348 0.0507848 352.5
0 -0.00437348 0.0507848 442.604
-2.82344e-22 0.00812397 0.0503229 1191.31
-2.82344e-22 -0.00812397 0.0503229 1279.12
0 -0.00656193 0.0505529 488.656
0 0.00656193 0.0505529 343.991
-1.05879e-21 0.0050014 0.050784 346.54
0 -0.0050014 0.050784 449.655
3.38813e-21 0.0105968 0.0499225 2012.81
0 -0.0105968 0.0499225 2012.59
0 -0.00968503 0.0501107 2010.09
0 0.00968503 0.0501107 2010.28
0 0.0106212 0.0499222 2007.74
0 -0.0106212 0.0499222 2007.52
3.38813e-21 -0.0106459 0.0499218 2011.41
0 0.0106459 0.0499218 2011.64
0 -0.0105979 0.0499376 2012.71
3.38813e-21 0.0105979 0.0499376 2012.94
0 -0.000312515 0.0510505 401.247
-2.71051e-20 0.000312515 0.0510505 394.034
0 -0.000937516 0.0510504 408.84
-2.71051e-20 0.000937516 0.0510504 387.896
-6.77626e-21 -0.0106448 0.0499371 2011.62
0 0.0106448 0.0499371 2011.85
2.71051e-20 -0.00718694 0.0505514 501.245
0 0.00718694 0.0505514 343.815
0 0.00156252 0.0510502 382.116
5.42101e-20 -0.00156252 0.0510502 415.454
2.82344e-22 0.00874889 0.0503198 1187.87
2.82344e-22 -0.00874889 0.0503198 1282.76
4.44692e-21 0.00562641 0.0507831 339.846
-2.11758e-22 -0.00562639 0.0507855 457.988
2.71051e-20 0.0021875 0.05105 375.011
0 -0.0021875 0.05105 420.968
0 0.00281248 0.0510497 367.965
2.71051e-20 -0.00281248 0.0510497 425.241
0 -0.00781204 0.0505494 513.57
0 0.00781204 0.0505494 342.96
-2.71051e-20 0.0103097 0.0501065 2010.18
-5.42101e-20 -0.0103097 0.0501065 2009.97
0 0.0034375 0.0510494 360.688
5.42101e-20 -0.0034375 0.0510494 430.18
-6.56451e-21 0.0062514 0.0507821 334.431
-2.11758e-22 -0.00624826 0.0507821 465.835
3.38813e-21 0.0112196 0.0499219 2004.32
0 -0.0112196 0.0499219 2004.08
0 0.0112461 0.0499215 1997.98
0 -0.0112461 0.0499215 1997.73
3.38813e-21 -0.0112729 0.0499208 2000.19
3.38813e-21 0.0112729 0.0499208 2000.44
2.82344e-22 0.00937369 0.0503164 1185.34
0 -0.00937369 0.0503164 1287.11
0 -0.011221 0.0499383 2004.26
3.38813e-21 0.011221 0.0499383 2004.51
3.38813e-21 -0.0112717 0.0499376 2000.61
0 0.0112717 0.0499376 2000.86
2.71051e-20 0.00406254 0.051049 353.449
0 -0.00406254 0.051049 435.044
1.07997e-20 0.00687321 0.050781 330.606
2.11758e-22 -0.00687321 0.050781 473.034
0 -0.0084371 0.0505468 524.752
-2.71051e-20 0.0084371 0.0505468 340.416
-2.71051e-20 -0.00468758 0.0510484 439.076
0 0.00468758 0.0510484 346.142
-2.71051e-20 0.0109344 0.050102 2016.42
0 -0.0109344 0.050102 2016.19
0 0.0118408 0.0499059 1964.84
-3.38813e-21 -0.0118408 0.0499059 1964.57
-2.82344e-22 -0.00999845 0.0503128 1291.85
-5.64689e-22 0.00999845 0.0503128 1184.15
0 0.0118708 0.0499051 1957.57
0 -0.0118708 0.0499051 1957.3
0 -0.0119011 0.0499042 1957.34
0 0.0119011 0.0499042 1957.61
0 -0.0118427 0.0499246 1964.84
0 0.0118427 0.0499246 1965.11
5.04063e-25 -2.59356e-06 0.0513141 379.525
-1.11504e-20 0.000625038 0.0513141 376.082
0 -0.000625037 0.0513141 382.814
3.38813e-21 -0.0118997 0.0499236 1958.03
0 0.0118997 0.0499236 1958.3
0 -0.00531259 0.0510477 443.552
5.42101e-20 0.00531259 0.0510477 337.54
-2.28567e-20 0.00125006 0.051314 372.882
0 -0.00125006 0.051314 385.611
-9.31736e-21 0.00750152 0.0507797 326.62
0 -0.00750152 0.0507797 480.199
3.1327e-20 0.00187505 0.0513139 369.497
0 -0.00187505 0.0513139 387.434
0 -0.00906201 0.0505439 539.27
0 0.00906201 0.0505439 340.16
2.92954e-20 0.00249999 0.0513138 365.602
0 -0.00249999 0.0513138 388.543
0 -0.00593757 0.0510468 447.122
0 0.00593757 0.0510468 327.551
-2.19666e-20 0.003125 0.0513136 361.279
0 -0.00312504 0.0513136 389.447
-2.71051e-20 0.0115601 0.050095 1991.88
-2.71051e-20 -0.0115601 0.050095 1991.62
2.82344e-22 0.0106233 0.050309 1185.3
-2.82344e-22 -0.0106233 0.050309 1298.52
3.38813e-21 0.0124615 0.0498891 1911.66
-3.38813e-21 -0.0124615 0.0498891 1911.43
1.35525e-20 0.00812336 0.050778 321.875
-2.11758e-22 -0.0081266 0.050778 487.139
0 0.0124952 0.0498882 1905.72
0 -0.0124952 0.0498882 1905.51
1.65436e-24 -0.0034696 0.0513135 389.754
-1.65436e-24 0.00346995 0.0513135 358.772
3.38813e-21 -0.0125295 0.0498873 1904.13
0 0.0125295 0.0498873 1904.33
0 -0.0124637 0.0499106 1911.89
3.38813e-21 0.0124637 0.0499106 1912.12
1.19114e-22 -0.00375005 0.0513076 390.088
-1.65436e-24 0.00375004 0.0513134 356.739
-6.77626e-21 -0.0125278 0.0499095 1905.03
0 0.0125278 0.0499095 1905.24
-2.71051e-20 -0.00968685 0.0505408 551.961
5.42101e-20 0.00968685 0.0505408 340.02
-2.71051e-20 0.00656256 0.051046 320.665
0 -0.00656256 0.051046 449.8
-1.32349e-23 -0.00437508 0.0512871 393.018
1.45584e-22 0.00437508 0.0512871 352.2
0 -0.00312502 0.0513812 376.149
-6.61744e-24 0.00312502 0.0513812 353.907
3.46754e-21 -0.00437502 0.051313 390.453
3.0877e-20 0.00437502 0.051313 352.184
-7.94093e-23 -0.0050001 0.0512608 396.283
0 0.0050001 0.0512608 347.267
3.30872e-24 -0.00250002 0.0514534 361.768
6.61744e-24 0.00250002 0.0514536 348.878
-1.73642e-20 0.00874847 0.0507785 317.177
0 -0.00875153 0.0507785 494.547
1.58819e-22 -0.00562508 0.0512318 399.862
0 0.00562508 0.0512318 341.572
0 -0.00187502 0.0515104 351.431
6.61744e-24 0.00187502 0.0515106 344.394
0 0.0121849 0.0500854 1936.19
-2.71051e-20 -0.0121849 0.0500854 1935.91
2.82344e-22 0.0112484 0.0503042 1179.81
0 -0.0112484 0.0503042 1298.93
2.71051e-20 0.00718759 0.0510449 313.298
0 -0.00718759 0.0510449 451.661
1.94553e-20 -0.00500028 0.0513129 390.471
2.64698e-23 0.00499996 0.0513126 347.345
0 0.0130819 0.0498724 1863.74
6.77626e-21 -0.0130819 0.0498724 1863.59
6.77626e-21 0.0131198 0.0498714 1859.25
6.77626e-21 -0.0131198 0.0498714 1859.1
0 -0.00125003 0.0515605 342.203
-6.61744e-24 0.00125003 0.051561 338.882
-6.77626e-21 -0.0131584 0.0498703 1855.79
0 0.0131584 0.0498703 1855.94
0 -0.0103117 0.0505375 561.615
5.42101e-20 0.0103117 0.0505375 338.74
0 -0.0130844 0.0498969 1864.27
0 0.0130844 0.0498969 1864.42
-5.29396e-23 -0.00625005 0.0512045 404.001
0 0.00625005 0.0512046 336.249
0 -0.000625016 0.0515958 336.723
0 0.000625016 0.0515971 335.335
6.77626e-21 -0.0131564 0.0498957 1856.99
0 0.0131564 0.0498957 1857.14
2.71051e-20 -0.000312512 0.0516082 360.953
-2.71051e-20 0.000312512 0.0516082 360.7
2.71051e-20 0.000937538 0.0516081 360.737
-2.71051e-20 -0.000937538 0.0516081 358.809
0 -0.00562539 0.051312 389.448
0 0.00562485 0.051312 341.882
2.71051e-20 0.00156253 0.0516081 359.984
0 -0.00156253 0.0516081 357.674
-2.58345e-20 0.00937344 0.0507739 313.083
-2.11758e-22 -0.00937642 0.0507738 501.212
-2.71051e-20 0.00781266 0.0510437 305.565
0 -0.00781266 0.0510437 453.324
0 -0.00687505 0.0511805 408.485
-5.29396e-23 0.00687505 0.0511805 331.604
0 0.00218755 0.051608 360.264
5.42101e-20 -0.00218755 0.051608 353.719
-5.64689e-22 0.0118736 0.0502978 1158.17
0 -0.0118736 0.0502978 1283.59
2.71051e-20 0.00281255 0.0516078 358.748
-2.71051e-20 -0.00281255 0.0516078 352.113
2.71051e-20 -0.0128095 0.0500754 1887.72
0 0.0128095 0.0500754 1887.87
4.65868e-21 -0.0062505 0.0513121 388.307
0 0.00624972 0.0513121 336.714
-2.71051e-20 -0.0109367 0.0505339 572.723
2.71051e-20 0.0109367 0.0505339 338.657
6.77626e-21 0.0137016 0.0498556 1818.97
6.77626e-21 -0.0137016 0.0498556 1818.77
1.05879e-22 -0.0075001 0.0511575 412.784
0 0.0075001 0.0511576 326.723
-6.77626e-21 0.0137443 0.0498545 1816.23
0 -0.0137443 0.0498545 1816.03
2.71051e-20 0.00343756 0.0516077 357.464
-2.71051e-20 -0.00343756 0.0516077 347.913
0 -0.0137879 0.0498533 1810.44
0 0.0137879 0.0498533 1810.67
0 -0.0137045 0.0498836 1819.74
0 0.0137045 0.0498836 1819.94
0 0.00843772 0.0510423 297.536
-5.42101e-20 -0.00843772 0.0510423 455.696
2.11758e-22 0.00999837 0.0507715 308.921
-2.11758e-22 -0.0100013 0.0507738 506.042
0 -0.0137855 0.0498824 1812.01
0 0.0137855 0.0498824 1812.24
2.71051e-20 0.0040626 0.0516075 355.25
2.71051e-20 -0.0040626 0.0516075 344.302
1.05879e-22 -0.00687565 0.0513107 387.37
-1.05879e-22 0.00687565 0.0513116 331.937
-2.11758e-22 -0.00812515 0.0511321 417.504
0 0.00812515 0.0511321 321.61
2.71051e-20 0.00468763 0.0516072 353.95
5.42101e-20 -0.00468763 0.0516072 340.602
-2.82344e-22 -0.0124985 0.0502903 1261.79
0 0.0124985 0.0502903 1130.18
0 -0.0115618 0.0505295 581.536
0 0.0115618 0.0505295 335.093
0 -0.0134342 0.0500653 1842.75
0 0.0134342 0.0500653 1842.91
-5.42101e-20 0.00906271 0.0510407 289.372
5.42101e-20 -0.00906271 0.0510407 456.957
1.05879e-22 -0.00875017 0.0511035 423.468
0 0.00875017 0.0511035 316.581
0 -0.00750083 0.0513099 385.478
0 0.00749953 0.051311 326.773
0 0.0143207 0.049839 1775.64
0 -0.0143207 0.049839 1775.36
0 0.0143689 0.0498377 1774.85
6.77626e-21 -0.0143689 0.0498377 1774.59
-1.99053e-20 0.0106232 0.0507689 305.024
0 -0.0106232 0.0507689 510.496
-2.71051e-20 0.00531265 0.0516068 351.978
-2.71051e-20 -0.00531265 0.0516068 335.637
0 -0.014418 0.0498363 1766.64
6.77626e-21 0.014418 0.0498363 1766.92
0 -0.0143242 0.049871 1776.69
0 0.0143242 0.049871 1776.97
3.74816e-25 6.76043e-07 0.0519027 288.679
-3.82654e-20 -0.000625034 0.0519027 286.494
-3.30872e-24 0.00062499 0.0519027 291.336
6.77626e-21 -0.0144152 0.0498696 1768.65
6.77626e-21 0.0144152 0.0498696 1768.92
0 -0.00125006 0.0519027 281.933
0 0.00125006 0.0519027 291.845
-2.11758e-22 -0.00937512 0.0510757 430.085
0 0.00937512 0.0510757 311.958
1.21893e-20 -0.00187495 0.0519025 279.576
0 0.00187509 0.0519025 294.38
2.71051e-20 0.00593765 0.0516065 350.904
0 -0.00593765 0.0516065 328.181
1.05879e-22 -0.00812604 0.0513089 382.547
1.05879e-22 0.00812604 0.0513104 321.488
5.42101e-20 0.00968766 0.051039 281.328
0 -0.00968766 0.051039 454.732
6.8292e-21 -0.00250013 0.0519027 275.642
-1.32349e-23 0.00250013 0.0519025 295.134
-2.82344e-22 -0.0131232 0.0502825 1242.39
5.64689e-22 0.0131232 0.0502825 1105.5
0 0.0121869 0.0505245 328.201
-2.71051e-20 -0.0121869 0.0505245 588.071
0 0.0140588 0.050055 1801.48
0 -0.0140588 0.050055 1801.2
0 -0.00312516 0.0519024 273.554
2.64698e-23 0.00312516 0.0519024 297.079
2.0117e-20 0.0112482 0.0507658 300.77
-2.11758e-22 -0.0112516 0.0507658 514.283
-6.77626e-21 0.0149395 0.0498223 1727.22
6.77626e-21 -0.0149395 0.0498223 1726.93
2.71051e-20 0.00656266 0.0516061 348.353
2.71051e-20 -0.00656266 0.0516061 324.603
0 -0.01 0.0510557 435.224
0 0.01 0.0510558 307.409
0 0.0149933 0.0498208 1727.84
6.77626e-21 -0.0149933 0.0498208 1727.57
-1.45584e-20 -0.00375023 0.0519022 268.628
0 0.00374987 0.0519026 297.194
-6.77626e-21 -0.0150481 0.0498193 1718.09
6.77626e-21 0.0150481 0.0498193 1718.38
1.05879e-20 -0.00875124 0.0513096 378.839
0 0.00875123 0.0513079 316.221
6.77626e-21 -0.0149436 0.0498585 1728.58
-1.35525e-20 0.0149436 0.0498585 1728.87
0 0.0103126 0.0510372 273.908
2.71051e-20 -0.0103126 0.0510372 453.566
0 -0.0150448 0.0498569 1720.46
-6.77626e-21 0.0150448 0.0498569 1720.76
2.94344e-20 -0.0043753 0.0519021 265.817
0 0.00437483 0.0519025 298.55
-2.71051e-20 0.00718768 0.0516056 346.164
-2.71051e-20 -0.00718768 0.0516056 319.729
0 -0.0128118 0.050519 594.873
-2.71051e-20 0.0128118 0.050519 323.221
1.69407e-21 -0.013748 0.0502746 1224.51
-5.64689e-22 0.013748 0.0502746 1082.11
8.89385e-21 0.0118729 0.0507622 294.684
-4.23516e-22 -0.011877 0.0507655 516.918
2.8905e-20 -0.00500037 0.0519024 260.864
-5.29396e-23 0.00499979 0.0519018 298.72
0 -0.0106251 0.0510497 437.145
0 0.0106251 0.0510497 302.933
2.71051e-20 0.0146836 0.0500442 1759.78
0 -0.0146836 0.0500442 1759.51
0 -0.00937639 0.0513067 375.259
0 0.00937413 0.0513088 311.107
0 0.0155585 0.0498055 1672.16
0 -0.0155585 0.0498055 1671.84
0 0.00781273 0.0516051 342.91
0 -0.00781273 0.0516051 313.318
0 0.0109377 0.0510351 266.886
-2.71051e-20 -0.0109377 0.0510351 451.485
0 0.0156176 0.0498039 1673.06
0 -0.0156176 0.0498039 1672.77
-2.48816e-21 -0.00562545 0.0519017 256.825
0 0.00562545 0.0519017 300.801
0 -0.0156777 0.0498022 1663.23
-6.77626e-21 0.0156777 0.0498022 1663.56
0 -0.000300839 0.0522172 212.625
-5.42101e-20 0.000300839 0.0522172 220.99
6.77626e-21 -0.0155632 0.0498457 1673.66
-6.77626e-21 0.0155632 0.0498457 1673.98
-2.71051e-20 0.000949183 0.0522172 219.895
2.71051e-20 -0.000949183 0.0522172 210.399
-5.42101e-20 0.00155086 0.0522172 227.297
2.71051e-20 -0.00155086 0.0522172 201.454
6.77626e-21 -0.0156739 0.0498438 1665.77
-6.77626e-21 0.0156739 0.0498438 1666.09
2.71051e-20 0.00219919 0.0522171 227.113
-2.71051e-20 -0.00219919 0.0522171 202.154
0 -0.0134366 0.0505133 599.754
2.71051e-20 0.0134366 0.0505133 318.329
0 -0.0100015 0.0513055 372.547
1.46113e-20 0.00999892 0.0513078 306.089
1.77877e-20 0.0124975 0.050758 287.746
0 -0.0125024 0.050762 518.906
2.48287e-20 -0.00625053 0.0519023 251.558
0 0.00624965 0.0519023 301.157
-5.64689e-22 0.0143728 0.0502664 1058.92
-1.12938e-21 -0.0143728 0.0502664 1207.54
1.05879e-22 -0.0112501 0.0510577 434.336
0 0.0112501 0.0510577 298.173
-2.71051e-20 -0.00843776 0.0516045 303.708
2.71051e-20 0.00843776 0.0516045 340.905
-2.71051e-20 0.00280086 0.0522171 234.923
-5.42101e-20 -0.00280086 0.0522171 195.215
0 0.0153084 0.050032 1707.11
-2.71051e-20 -0.0153084 0.050032 1706.8
0 0.0115627 0.0510329 260.323
-5.42101e-20 -0.0115627 0.0510329 448.478
2.71051e-20 0.00344921 0.052217 234.545
2.71051e-20 -0.00344921 0.052217 195.692
0 0.0161781 0.0497885 1618.26
-1.35525e-20 -0.0161781 0.0497885 1617.96
-4.02341e-21 -0.00687562 0.0519011 249.089
0 0.00687566 0.0519021 301.992
-6.77626e-21 0.016242 0.0497868 1618.81
0 -0.016242 0.0497868 1618.55
2.71051e-20 0.00405089 0.0522169 241.997
-8.13152e-20 -0.00405089 0.0522169 187.256
6.77626e-21 -0.0163071 0.049785 1609.5
0 0.0163071 0.049785 1609.78
2.75286e-20 -0.0106239 0.0513042 370.118
-2.11758e-22 0.0106239 0.0513042 301.04
0 -0.00906278 0.0516039 294.556
2.71051e-20 0.00906278 0.0516039 338.161
0 -0.0161834 0.0498326 1619.81
-6.77626e-21 0.0161834 0.0498326 1620.12
-8.47033e-21 0.0131279 0.0507535 280.976
0 -0.0131219 0.0507536 520.032
2.71051e-20 0.00469923 0.0522168 240.603
2.71051e-20 -0.00469923 0.0522168 187.853
-2.71051e-20 -0.0140614 0.0505075 605.676
2.71051e-20 0.0140614 0.0505075 311.231
0 -0.0163029 0.0498305 1612.07
-6.77626e-21 0.0163029 0.0498305 1612.36
1.05879e-22 -0.0118752 0.0510752 427.929
0 0.0118752 0.0510752 292.441
-2.5411e-20 -0.00749952 0.0519008 243.875
0 0.00749952 0.051902 301.476
0 0.0149977 0.0502574 1032.03
-5.64689e-22 -0.0149977 0.0502574 1186.96
0 -0.0121878 0.0510304 446.427
0 0.0121878 0.0510304 252.854
-2.71051e-20 0.00530091 0.0522167 248.798
0 -0.00530091 0.0522167 180.039
5.42101e-20 0.015933 0.0500187 1649.92
0 -0.015933 0.0500187 1649.58
0 0.00968776 0.0516031 336.79
2.71051e-20 -0.00968776 0.0516031 290.184
2.11758e-22 -0.0112517 0.0513029 366.613
0 0.0112488 0.0513029 295.99
-7.72421e-21 -0.000625019 0.0525189 187.342
0 0.000625019 0.0525189 194.858
6.77626e-21 0.0167977 0.0497716 1568.71
-6.77626e-21 -0.0167977 0.0497716 1568.47
-1.17526e-20 -0.00812445 0.0519004 239.037
1.05879e-22 0.0081259 0.0519018 301.859
0 0.0168666 0.0497698 1568.77
-6.77626e-21 -0.0168666 0.0497698 1568.6
2.06464e-21 -0.00187506 0.0525189 179.333
0 0.00187496 0.0525189 200.75
0 0.00594925 0.0522166 249.385
2.71051e-20 -0.00594925 0.0522166 180.299
0 -0.0169369 0.0497678 1559.7
0 0.0169369 0.0497678 1559.91
0 -0.0168036 0.0498196 1570.35
0 0.0168036 0.0498196 1570.58
2.24464e-20 0.013746 0.0507488 274.379
-4.23516e-22 -0.013746 0.0507488 522.102
-1.27055e-21 0.0137536 0.0507487 273.659
0 -0.0137536 0.0507487 520.675
0 0.0146864 0.0505014 303.756
0 -0.0146864 0.0505014 610.923
0 -0.0125003 0.0510981 418.983
0 0.0125003 0.0510981 286.055
-1.57495e-21 -0.0031251 0.0525187 173.539
0 0.00312494 0.0525187 207.482
0 -0.0128128 0.0510276 442.841
5.42101e-20 0.0128128 0.0510276 244.21
1.35525e-20 -0.0169322 0.0498174 1562.35
6.77626e-21 0.0169322 0.0498174 1562.56
5.64689e-22 0.0156226 0.0502476 1000.72
-1.69407e-21 -0.0156226 0.0502476 1162.05
5.42101e-20 0.0103128 0.0516024 333.666
-5.42101e-20 -0.0103128 0.0516024 287.052
-2.71051e-20 0.00655093 0.0522165 256.423
2.71051e-20 -0.00655093 0.0522165 173.859
-2.2764e-20 -0.00875097 0.0519016 231.572
0 0.00874937 0.0519016 301.362
0 -0.0118769 0.0513014 363.003
-2.11758e-22 0.0118739 0.051304 290.819
1.37325e-26 1.85547e-07 0.0526734 175.446
0 0.0165576 0.0500052 1598.27
-2.71051e-20 -0.0165576 0.0500052 1598.01
2.21684e-22 -0.00125004 0.0526734 167.733
0 0.00124998 0.0526734 180.755
-1.45848e-20 -0.0043749 0.0525187 166.483
0 0.00437516 0.0525187 213.616
0 0.00719927 0.0522163 255.138
0 -0.00719927 0.0522163 175.156
0 0.0174165 0.0497547 1521.71
6.77626e-21 -0.0174165 0.0497547 1521.56
1.77017e-20 -0.00250006 0.0526733 162.046
0 0.00249996 0.0526733 186.692
0 0.0174914 0.0497527 1521.07
0 -0.0174914 0.0497527 1520.99
6.77626e-21 -0.00937607 0.0518997 227.352
0 0.0093742 0.0519014 301.943
2.82344e-22 0.0143747 0.0507475 266.536
4.23516e-22 -0.0143747 0.0507475 521.226
0 0.0109378 0.0516015 331.114
5.42101e-20 -0.0109378 0.0516015 283.688
0 -0.0175681 0.0497506 1512.01
6.77626e-21 0.0175681 0.0497506 1512.14
0 -0.0134377 0.0510248 438.923
0 0.0134377 0.0510248 235.238
5.42101e-20 -0.0153114 0.0504947 615.427
-2.71051e-20 0.0153114 0.0504947 294.934
6.77626e-21 -0.017423 0.0498073 1523.46
1.35525e-20 0.017423 0.0498073 1523.62
0 -0.0131252 0.0511274 406.949
0 0.0131252 0.0511274 279.576
-2.71051e-20 0.00780098 0.0522162 262.11
0 -0.00780098 0.0522162 168.048
1.12938e-21 0.0162473 0.0502372 969.814
1.69407e-21 -0.0162473 0.0502372 1137.42
2.11758e-22 -0.0125018 0.0512997 359.111
0 0.012499 0.0512997 285.054
2.55433e-21 -0.0037501 0.0526733 156.022
1.4426e-20 0.00374994 0.0526733 192.85
-6.77626e-21 -0.0175627 0.0498053 1514.83
0 0.0175627 0.0498053 1514.96
3.81165e-20 -0.00562523 0.0525185 159.82
-2.64698e-23 0.00562523 0.0525185 220.46
5.92923e-21 -0.0100012 0.0518992 223.332
8.47033e-21 0.00999921 0.0519011 301.393
2.71051e-20 0.0171823 0.0499917 1549.49
-2.71051e-20 -0.0171823 0.0499917 1549.3
5.42101e-20 0.0115628 0.0516006 327.104
-2.71051e-20 -0.0115628 0.0516006 278.084
0 0.00844931 0.052216 259.867
-5.42101e-20 -0.00844931 0.052216 168.27
-6.77626e-21 0.0180336 0.0497379 1476.79
0 -0.0180337 0.0497379 1476.74
3.26372e-20 -0.00500016 0.0526731 149.744
0 0.00500016 0.0526731 198.43
7.05861e-22 0.0149997 0.0507428 259.297
1.41172e-22 -0.0149997 0.0507428 520.746
2.71051e-20 -0.0140626 0.0510219 435.517
-2.71051e-20 0.0140626 0.0510219 227.171
1.35525e-20 0.018116 0.0497357 1475.27
1.35525e-20 -0.018116 0.0497357 1475.32
0 0.0159363 0.0504875 287.962
0 -0.0159363 0.0504875 621.564
-1.14349e-20 -0.013124 0.0512981 354.701
0 0.013124 0.0512981 278.935
6.77626e-21 -0.0182007 0.0497334 1466.22
-6.77626e-21 0.0182007 0.0497334 1466.23
-6.77626e-21 -0.0180411 0.0497963 1478.76
-6.77626e-21 0.0180411 0.0497963 1478.81
-1.79995e-20 -0.00687533 0.0525183 154.826
0 0.00687506 0.0525189 226.509
2.13876e-20 -0.0106263 0.0518987 221.245
0 0.0106263 0.0518987 301.362
-1.05879e-22 -0.0137502 0.0511647 392.053
-1.05879e-22 0.0137502 0.0511647 273.086
1.12938e-21 0.016872 0.0502266 941.459
-2.25875e-21 -0.016872 0.0502266 1113.95
2.71051e-20 0.00905101 0.0522158 266.903
0 -0.00905101 0.0522158 160.493
6.77626e-21 -0.0181943 0.0497943 1469.32
0 0.0181943 0.0497943 1469.34
2.71051e-20 0.0121879 0.0515996 324.525
2.71051e-20 -0.0121879 0.0515996 274.241
-1.32349e-20 -0.00625024 0.0526729 144.157
-2.64698e-23 0.00624986 0.0526733 204.953
2.71051e-20 0.0178069 0.0499782 1502.9
0 -0.0178069 0.0499782 1502.78
2.82344e-22 0.0156247 0.0507378 252.398
0 -0.0156247 0.0507378 520.888
-2.71051e-20 -0.0146876 0.0510189 428.175
0 0.0146876 0.0510189 220.287
-2.18111e-20 -0.0112513 0.0519005 216.629
0 0.0112491 0.0519005 300.135
-6.77626e-21 0.0186495 0.0497211 1434.26
1.35525e-20 -0.0186495 0.0497211 1434.32
2.11758e-22 -0.0137515 0.0512964 350.659
0 0.0137491 0.0512985 272.85
-2.71051e-20 0.00969931 0.0522156 264.49
2.71051e-20 -0.00969931 0.0522156 161.613
0 0.0165611 0.0504799 281.218
0 -0.0165611 0.0504799 627.65
-1.35525e-20 0.0187402 0.0497186 1432.1
1.35525e-20 -0.0187402 0.0497186 1432.28
1.55642e-20 -0.00812546 0.0525181 149.438
0 0.00812509 0.0525187 231.393
0 -0.000625008 0.0531412 107.708
0 0.000625008 0.0531412 110.561
-1.35525e-20 -0.0188333 0.0497161 1423.32
6.77626e-21 0.0188333 0.0497161 1423.23
0 0.0128129 0.0515986 320.261
0 -0.0128129 0.0515986 268.059
0 -0.0186582 0.0497859 1436.54
-1.35525e-20 0.0186582 0.0497859 1436.48
0 -0.00187502 0.0531412 105.301
0 0.00187502 0.0531412 113.584
1.12938e-21 0.0174969 0.050216 914.452
2.25875e-21 -0.0174969 0.050216 1090.95
-2.11758e-22 -0.0143752 0.0512069 373.598
0 0.0143752 0.0512069 267
-1.42937e-21 -0.00750035 0.0526727 139.818
-5.29396e-23 0.00749981 0.0526733 209.963
-5.42101e-20 0.010301 0.0522153 270.988
2.71051e-20 -0.010301 0.0522153 155.246
-1.35525e-20 -0.0188259 0.0497837 1426.72
0 0.0188259 0.0497837 1426.64
5.42101e-20 -0.00312502 0.0531411 101.338
0 0.00312502 0.0531411 117.686
3.11285e-20 -0.0118764 0.0518977 213.375
0 0.0118739 0.0519001 299.45
0 -0.0184314 0.0499647 1458.53
0 0.0184314 0.0499647 1458.49
0 0.0153127 0.0510156 214.247
0 -0.0153127 0.0510156 423.363
4.76456e-21 -0.0143744 0.0512948 345.139
-1.05879e-22 0.0143762 0.0512948 267.086
2.82344e-22 0.0162497 0.0507325 245.93
2.82344e-22 -0.0162497 0.0507325 521.149
0 0.0192655 0.0497043 1395.3
-1.35525e-20 -0.0192655 0.0497043 1395.45
2.71051e-20 0.0171859 0.0504722 275.961
2.71051e-20 -0.0171859 0.0504722 629.847
0 0.0134379 0.0515975 317.781
2.71051e-20 -0.0134379 0.0515975 264.07
1.0842e-19 0.00437504 0.0531411 122.404
0 -0.00437504 0.0531411 97.0737
0 0.0193639 0.0497016 1393.01
0 -0.0193639 0.0497016 1393.35
1.27055e-20 -0.00937558 0.0525179 143.588
-2.1917e-20 0.00937462 0.0525179 235.983
-2.71051e-20 0.0109493 0.0522151 268.448
-2.71051e-20 -0.0109493 0.0522151 156.514
0 -0.0194646 0.0496989 1384.99
0 0.0194646 0.0496989 1384.73
-2.25875e-21 0.0181216 0.0502053 888.459
-2.25875e-21 -0.0181216 0.0502053 1068.9
0 -0.0192754 0.0497752 1397.89
0 0.0192754 0.0497752 1397.74
7.41154e-21 -0.0125014 0.0518996 208.399
0 0.012499 0.0518971 298.33
-1.41349e-20 -0.00875046 0.0526733 134.614
-5.29396e-23 0.00875046 0.0526724 214.43
-1.05879e-22 -0.0150003 0.0512467 354.831
0 0.0150003 0.0512467 261.427
-5.42101e-20 0.00562506 0.053141 126.128
-5.42101e-20 -0.00562506 0.053141 92.7985
-1.35525e-20 -0.0194562 0.0497724 1388.57
0 0.0194562 0.0497724 1388.32
0 -0.0150009 0.0512931 339.411
0 0.0149999 0.0512931 261.621
2.71051e-20 0.0159377 0.051012 208.385
-2.71051e-20 -0.0159377 0.051012 417.665
0 0.0168745 0.050727 240.035
2.82344e-22 -0.0168745 0.050727 520.494
2.71051e-20 -0.0190555 0.049951 1417.52
0 0.0190555 0.049951 1417.44
0 0.011551 0.0522148 274.196
2.71051e-20 -0.011551 0.0522148 149.032
2.71051e-20 0.0140629 0.0515963 313.065
2.71051e-20 -0.0140629 0.0515963 259.177