# pMean  POINT_DATA 42454
# x  y  z  pMean
0 5.04436e-09 0.049924 -0.00972794
0 0.000625863 0.0499247 -0.00973001
0 -0.000623753 0.0499247 -0.00972666
0 0.00125175 0.0499254 -0.00973279
0 -0.00124749 0.0499254 -0.00972621
-4.23516e-22 0.00187767 0.0499261 -0.00973569
0 -0.0018712 0.0499261 -0.00972569
0 0.0025036 0.0499268 -0.00973796
0 -0.00249489 0.0499268 -0.0097248
8.47033e-22 0.00312954 0.0499276 -0.00974008
-8.47033e-22 -0.00311857 0.0499276 -0.00972407
0 0.00374219 0.049924 -0.00974278
8.47033e-22 -0.00374223 0.0499283 -0.00972345
8.47033e-22 0.00374886 0.049924 -0.00974288
-8.47033e-22 -0.00374886 0.049924 -0.00972374
0 -0.00375553 0.0499283 -0.0097235
0 0.00375553 0.0499283 -0.00974286
-8.47033e-22 0.00436576 0.049924 -0.00974593
0 -0.00436582 0.0499291 -0.00972424
0 0.00437368 0.049924 -0.00974605
1.69407e-21 -0.00437368 0.049924 -0.00972465
-8.47033e-22 -0.00438158 0.0499291 -0.00972437
-8.47033e-22 0.00438158 0.0499291 -0.00974604
-2.71051e-20 -0.000312415 0.0501277 -0.00972715
-2.71051e-20 0.000312416 0.0501277 -0.00972873
2.71051e-20 -0.000937254 0.0501276 -0.00972613
0 0.000937254 0.0501276 -0.00973132
0 0.00156209 0.0501275 -0.00973432
0 -0.00156209 0.0501275 -0.00972622
0 0.00498927 0.049924 -0.00974916
1.69407e-21 -0.00498933 0.0499299 -0.00972702
0 -0.00499848 0.049924 -0.00972757
1.69407e-21 0.00499848 0.049924 -0.00974929
1.69407e-21 -0.00500769 0.0499299 -0.00972724
0 0.00500769 0.0499299 -0.00974929
0 -0.00218693 0.0501274 -0.00972505
0 0.00218693 0.0501274 -0.00973716
5.42101e-20 0.00281176 0.0501273 -0.00973888
0 -0.00281176 0.0501273 -0.00972437
1.69407e-21 0.00561272 0.049924 -0.0097522
-1.69407e-21 -0.00561272 0.049924 -0.00973099
1.69407e-21 -0.00562327 0.049924 -0.00973165
0 0.00562327 0.049924 -0.00975232
0 -0.00563387 0.049924 -0.00973129
1.69407e-21 0.00563387 0.049924 -0.00975235
-2.71051e-20 0.0034366 0.0501271 -0.00974144
-2.71051e-20 -0.0034366 0.0501271 -0.00972355
-1.69407e-21 -0.0056128 0.0499307 -0.00973097
0 0.0056128 0.0499307 -0.00975221
0 -0.00563381 0.0499307 -0.00973127
-1.69407e-21 0.00563381 0.0499307 -0.00975236
2.71051e-20 0.00406145 0.0501268 -0.00974439
0 -0.00406145 0.0501268 -0.00972318
0 0.00623615 0.049924 -0.00975518
-1.69407e-21 -0.00623615 0.049924 -0.00973587
0 -0.00624806 0.049924 -0.00973665
0 0.00624806 0.049924 -0.00975528
0 -0.00626002 0.049924 -0.00973625
0 0.00626002 0.049924 -0.00975535
0 -0.00623625 0.0499315 -0.00973585
0 0.00623625 0.0499315 -0.00975519
-1.69407e-21 -0.00625994 0.0499315 -0.00973623
0 0.00625994 0.0499315 -0.00975536
2.88334e-21 1.03498e-09 0.0503315 -0.00972909
-1.20702e-20 0.000624243 0.050332 -0.00973134
1.05879e-22 -0.000624244 0.050332 -0.0097276
2.71051e-20 -0.00468628 0.0501264 -0.00972515
2.71051e-20 0.00468628 0.0501264 -0.00974779
8.25857e-21 0.00124847 0.0503324 -0.00973442
0 -0.00124847 0.0503324 -0.00972673
8.89385e-21 0.00187268 0.0503327 -0.0097376
0 -0.00187268 0.0503327 -0.00972513
1.43996e-20 0.00249688 0.050333 -0.00973989
0 -0.00250225 0.050333 -0.00972265
0 0.00685954 0.049924 -0.00975899
-1.69407e-21 -0.00685954 0.049924 -0.0097418
-1.69407e-21 -0.00687284 0.049924 -0.00974269
0 0.00687284 0.049924 -0.00975907
-1.69407e-21 -0.00688622 0.049924 -0.00974228
0 0.00688622 0.049924 -0.00975924
-1.69407e-21 -0.00685965 0.0499324 -0.00974178
0 0.00685965 0.0499324 -0.009759
1.69407e-21 -0.00688613 0.0499324 -0.00974225
-1.69407e-21 0.00688613 0.0499324 -0.00975925
-2.71051e-20 0.00531111 0.0501258 -0.0097509
-2.71051e-20 -0.00531111 0.0501258 -0.00972877
0 0.00312104 0.0503286 -0.00974186
4.23516e-22 -0.00312104 0.0503286 -0.00972034
-1.60936e-20 0.00312109 0.0503332 -0.00974189
8.47033e-22 -0.00312109 0.0503332 -0.00972026
0 0.00374526 0.0503278 -0.00974441
0 -0.00374526 0.0503278 -0.00971796
5.92923e-21 0.00374533 0.0503334 -0.00974445
-8.47033e-22 -0.00374533 0.0503334 -0.00971783
0 0.00593591 0.0501252 -0.00975392
5.42101e-20 -0.00593591 0.0501252 -0.00973306
1.69407e-21 0.00748281 0.049924 -0.00976389
0 -0.00748281 0.049924 -0.00974928
-3.38813e-21 -0.00749765 0.049924 -0.00975029
0 0.00749765 0.049924 -0.00976395
1.69407e-21 -0.00751258 0.0499239 -0.00974993
0 0.00751258 0.0499239 -0.00976418
0 -0.00748294 0.0499333 -0.00974926
0 0.00748294 0.0499333 -0.0097639
1.69407e-21 -0.00751247 0.0499332 -0.00974989
-1.69407e-21 0.00751247 0.0499332 -0.00976419
0 0.00436948 0.0503269 -0.00974714
0 -0.00436948 0.0503269 -0.00971712
-9.31736e-21 0.00436958 0.0503334 -0.00974718
-8.47033e-22 -0.00436958 0.0503334 -0.00971695
2.71051e-20 0.00656072 0.0501246 -0.00975689
-2.71051e-20 -0.00656072 0.0501246 -0.00973853
0 -0.000312474 0.0505592 -0.00972938
2.71051e-20 0.000312474 0.0505592 -0.00973114
0 0.000937423 0.0505591 -0.00973424
-2.71051e-20 -0.000937423 0.0505591 -0.0097278
7.05861e-22 -0.00499923 0.0503295 -0.00971816
-2.82344e-22 0.00499923 0.0503295 -0.00974968
0 0.0081058 0.049924 -0.00976885
3.38813e-21 -0.0081058 0.049924 -0.0097598
0 0.00812243 0.0499239 -0.00976889
0 -0.00812243 0.0499239 -0.00976095
0 -0.00813919 0.0499236 -0.00976077
-3.38813e-21 0.00813919 0.0499236 -0.0097691
5.42101e-20 0.00156235 0.0505589 -0.00973786
-5.42101e-20 -0.00156235 0.0505589 -0.0097268
0 -0.00810604 0.0499343 -0.00975976
0 0.00810604 0.0499343 -0.00976886
0 -0.00813897 0.0499341 -0.00976069
-3.38813e-21 0.00813897 0.0499341 -0.00976912
2.71051e-20 -0.00218727 0.0505586 -0.00972242
2.71051e-20 0.00218727 0.0505586 -0.00974114
-2.71051e-20 0.00718552 0.0501238 -0.00976161
-2.71051e-20 -0.00718552 0.0501238 -0.00974494
2.71051e-20 -0.0028122 0.0505583 -0.00971866
2.71051e-20 0.0028122 0.0505583 -0.00974246
1.41172e-22 -0.00562411 0.0503286 -0.00972001
2.82344e-22 0.00562411 0.0503286 -0.00975168
0 -0.00343715 0.0505579 -0.00971436
0 0.00343715 0.0505579 -0.00974486
0 0.00872861 0.0499238 -0.00977344
0 -0.00872861 0.0499238 -0.00977372
0 0.00874717 0.0499235 -0.00977353
0 -0.00874717 0.0499235 -0.00977492
0 -0.00876588 0.0499233 -0.00977498
-3.38813e-21 0.00876588 0.0499233 -0.00977368
0 -0.00872902 0.0499353 -0.00977366
0 0.00872902 0.0499353 -0.00977347
0 -0.0087655 0.0499349 -0.00977484
0 0.0087655 0.0499349 -0.00977371
4.23516e-22 -0.00624897 0.0503277 -0.0097227
-4.23516e-22 0.00624897 0.0503277 -0.00975354
0 -0.00406216 0.0505573 -0.0097101
2.71051e-20 0.00406216 0.0505573 -0.00974714
-2.71051e-20 0.00781068 0.050122 -0.00976677
0 -0.00781068 0.050122 -0.00975348
0 0.00468717 0.0505565 -0.00974943
-2.71051e-20 -0.00468717 0.0505565 -0.00970922
8.19426e-24 -5.59832e-07 0.0507876 -0.00971133
-1.09055e-20 0.000624757 0.0507873 -0.00971355
2.64698e-23 -0.000624757 0.0507873 -0.00970979
0 0.00935138 0.0499235 -0.00977792
-3.38813e-21 -0.00935138 0.0499235 -0.00978944
0 0.00687386 0.0503267 -0.00975663
1.41172e-22 -0.00687386 0.0503267 -0.00972657
0 0.00937186 0.0499232 -0.00977809
0 -0.00937186 0.0499232 -0.00979052
0 -0.00939252 0.0499229 -0.00979082
0 0.00939252 0.0499229 -0.00977817
8.36445e-21 0.0012495 0.0507871 -0.00971666
0 -0.0012495 0.0507871 -0.00970891
0 -0.009352 0.0499362 -0.00978932
0 0.009352 0.0499362 -0.00977797
0 -0.00939192 0.0499358 -0.00979062
3.38813e-21 0.00939192 0.0499358 -0.00977823
-6.56451e-21 0.00187424 0.0507867 -0.00971991
-1.05879e-22 -0.00187424 0.0507867 -0.00970707
-2.71051e-20 0.00843563 0.0501187 -0.00977162
-2.71051e-20 -0.00843563 0.0501187 -0.00976583
0 0.00531212 0.0505554 -0.00975064
0 -0.00531212 0.0505554 -0.0097091
1.30231e-20 0.00249898 0.0507863 -0.00972208
-1.05879e-22 -0.00249899 0.0507878 -0.0097041
2.82344e-22 0.00749889 0.0503253 -0.00976117
2.82344e-22 -0.00749889 0.0503253 -0.00973179
5.92923e-21 0.00312374 0.0507859 -0.00972417
-2.11758e-22 -0.00312595 0.0507876 -0.00970132
2.71051e-20 -0.00593703 0.0505542 -0.00970861
-2.71051e-20 0.00593703 0.0505542 -0.00975128
0 0.00997412 0.049923 -0.00978248
-3.38813e-21 -0.00997412 0.049923 -0.00980567
0 0.00999652 0.0499227 -0.00978276
0 -0.00999652 0.0499227 -0.00980658
3.38813e-21 -0.0100191 0.0499224 -0.00980718
0 0.0100191 0.0499224 -0.00978274
0 -0.00997499 0.0499369 -0.00980549
3.38813e-21 0.00997499 0.0499369 -0.00978255
6.56451e-21 0.00374859 0.0507874 -0.00972726
-2.11758e-22 -0.00374857 0.0507854 -0.00969813
5.42101e-20 0.00906035 0.0501147 -0.00977615
2.71051e-20 -0.00906035 0.0501147 -0.00978091
0 -0.0100183 0.0499364 -0.00980689
3.38813e-21 0.0100183 0.0499364 -0.00978282
-2.75286e-20 0.00437348 0.0507848 -0.00973043
0 -0.00437348 0.0507848 -0.00969649
-2.82344e-22 0.00812397 0.0503229 -0.00976595
-2.82344e-22 -0.00812397 0.0503229 -0.00974004
0 -0.00656193 0.0505529 -0.00970998
0 0.00656193 0.0505529 -0.00975207
-1.05879e-21 0.0050014 0.050784 -0.00973313
0 -0.0050014 0.050784 -0.00969688
3.38813e-21 0.0105968 0.0499225 -0.00978747
0 -0.0105968 0.0499225 -0.00982242
0 -0.00968503 0.0501107 -0.00979661
0 0.00968503 0.0501107 -0.00978081
0 0.0106212 0.0499222 -0.00978791
0 -0.0106212 0.0499222 -0.00982315
3.38813e-21 -0.0106459 0.0499218 -0.00982407
0 0.0106459 0.0499218 -0.00978783
0 -0.0105979 0.0499376 -0.00982216
3.38813e-21 0.0105979 0.0499376 -0.00978757
0 -0.000312515 0.0510505 -0.00969128
-2.71051e-20 0.000312515 0.0510505 -0.00969218
0 -0.000937516 0.0510504 -0.00968937
-2.71051e-20 0.000937516 0.0510504 -0.00969527
-6.77626e-21 -0.0106448 0.0499371 -0.00982368
0 0.0106448 0.0499371 -0.00978794
2.71051e-20 -0.00718694 0.0505514 -0.00971212
0 0.00718694 0.0505514 -0.0097559
0 0.00156252 0.0510502 -0.0096979
5.42101e-20 -0.00156252 0.0510502 -0.00969036
2.82344e-22 0.00874889 0.0503198 -0.00977057
2.82344e-22 -0.00874889 0.0503198 -0.00975176
4.44692e-21 0.00562641 0.0507831 -0.0097349
-2.11758e-22 -0.00562639 0.0507855 -0.00969711
2.71051e-20 0.0021875 0.05105 -0.00970134
0 -0.0021875 0.05105 -0.00968748
0 0.00281248 0.0510497 -0.00970195
2.71051e-20 -0.00281248 0.0510497 -0.00968667
0 -0.00781204 0.0505494 -0.00971588
0 0.00781204 0.0505494 -0.00976031
-2.71051e-20 0.0103097 0.0501065 -0.0097855
-5.42101e-20 -0.0103097 0.0501065 -0.00981273
0 0.0034375 0.0510494 -0.00970597
5.42101e-20 -0.0034375 0.0510494 -0.00968455
-6.56451e-21 0.0062514 0.0507821 -0.00973608
-2.11758e-22 -0.00624826 0.0507821 -0.00969782
3.38813e-21 0.0112196 0.0499219 -0.00979329
0 -0.0112196 0.0499219 -0.00983981
0 0.0112461 0.0499215 -0.0097939
0 -0.0112461 0.0499215 -0.00984032
3.38813e-21 -0.0112729 0.0499208 -0.00984152
3.38813e-21 0.0112729 0.0499208 -0.00979387
2.82344e-22 0.00937369 0.0503164 -0.0097751
0 -0.00937369 0.0503164 -0.00976521
0 -0.011221 0.0499383 -0.00983946
3.38813e-21 0.011221 0.0499383 -0.00979342
3.38813e-21 -0.0112717 0.0499376 -0.00984103
0 0.0112717 0.0499376 -0.00979398
2.71051e-20 0.00406254 0.051049 -0.00970964
0 -0.00406254 0.051049 -0.00968253
1.07997e-20 0.00687321 0.050781 -0.00973905
2.11758e-22 -0.00687321 0.050781 -0.0096998
0 -0.0084371 0.0505468 -0.0097243
-2.71051e-20 0.0084371 0.0505468 -0.00976495
-2.71051e-20 -0.00468758 0.0510484 -0.0096832
0 0.00468758 0.0510484 -0.00971412
-2.71051e-20 0.0109344 0.050102 -0.00979111
0 -0.0109344 0.050102 -0.0098295
0 0.0118408 0.0499059 -0.00979925
-3.38813e-21 -0.0118408 0.0499059 -0.00985849
-2.82344e-22 -0.00999845 0.0503128 -0.00977938
-5.64689e-22 0.00999845 0.0503128 -0.0097798
0 0.0118708 0.0499051 -0.00979993
0 -0.0118708 0.0499051 -0.00985887
0 -0.0119011 0.0499042 -0.00986038
0 0.0119011 0.0499042 -0.00979998
0 -0.0118427 0.0499246 -0.00985804
0 0.0118427 0.0499246 -0.00979941
5.04063e-25 -2.59356e-06 0.0513141 -0.00966132
-1.11504e-20 0.000625038 0.0513141 -0.00966517
0 -0.000625037 0.0513141 -0.00965768
3.38813e-21 -0.0118997 0.0499236 -0.00985981
0 0.0118997 0.0499236 -0.00980011
0 -0.00531259 0.0510477 -0.00968521
5.42101e-20 0.00531259 0.0510477 -0.00971696
-2.28567e-20 0.00125006 0.051314 -0.00966983
0 -0.00125006 0.051314 -0.00965454
-9.31736e-21 0.00750152 0.0507797 -0.00974441
0 -0.00750152 0.0507797 -0.00970282
3.1327e-20 0.00187505 0.0513139 -0.00967497
0 -0.00187505 0.0513139 -0.00965108
0 -0.00906201 0.0505439 -0.00973558
0 0.00906201 0.0505439 -0.00976928
2.92954e-20 0.00249999 0.0513138 -0.0096792
0 -0.00249999 0.0513138 -0.00964694
0 -0.00593757 0.0510468 -0.00968481
0 0.00593757 0.0510468 -0.00971939
-2.19666e-20 0.003125 0.0513136 -0.00968319
0 -0.00312504 0.0513136 -0.00964326
-2.71051e-20 0.0115601 0.050095 -0.00979749
-2.71051e-20 -0.0115601 0.050095 -0.00984696
2.82344e-22 0.0106233 0.050309 -0.0097853
-2.82344e-22 -0.0106233 0.050309 -0.00979417
3.38813e-21 0.0124615 0.0498891 -0.00980496
-3.38813e-21 -0.0124615 0.0498891 -0.00987754
1.35525e-20 0.00812336 0.050778 -0.00975032
-2.11758e-22 -0.0081266 0.050778 -0.00970872
0 0.0124952 0.0498882 -0.00980564
0 -0.0124952 0.0498882 -0.0098777
1.65436e-24 -0.0034696 0.0513135 -0.00964083
-1.65436e-24 0.00346995 0.0513135 -0.00968589
3.38813e-21 -0.0125295 0.0498873 -0.00987942
0 0.0125295 0.0498873 -0.00980575
0 -0.0124637 0.0499106 -0.00987702
3.38813e-21 0.0124637 0.0499106 -0.00980514
1.19114e-22 -0.00375005 0.0513076 -0.00963897
-1.65436e-24 0.00375004 0.0513134 -0.00968815
-6.77626e-21 -0.0125278 0.0499095 -0.00987876
0 0.0125278 0.0499095 -0.00980589
-2.71051e-20 -0.00968685 0.0505408 -0.00974762
5.42101e-20 0.00968685 0.0505408 -0.00977373
-2.71051e-20 0.00656256 0.051046 -0.00972024
0 -0.00656256 0.051046 -0.00968731
-1.32349e-23 -0.00437508 0.0512871 -0.00963875
1.45584e-22 0.00437508 0.0512871 -0.00969482
0 -0.00312502 0.0513812 -0.00962056
-6.61744e-24 0.00312502 0.0513812 -0.00966772
3.46754e-21 -0.00437502 0.051313 -0.00963576
3.0877e-20 0.00437502 0.051313 -0.00969297
-7.94093e-23 -0.0050001 0.0512608 -0.00964041
0 0.0050001 0.0512608 -0.00970099
3.30872e-24 -0.00250002 0.0514534 -0.00960121
6.61744e-24 0.00250002 0.0514536 -0.00964577
-1.73642e-20 0.00874847 0.0507785 -0.00975615
0 -0.00875153 0.0507785 -0.00971744
1.58819e-22 -0.00562508 0.0512318 -0.00964171
0 0.00562508 0.0512318 -0.0097064
0 -0.00187502 0.0515104 -0.00958951
6.61744e-24 0.00187502 0.0515106 -0.00962628
0 0.0121849 0.0500854 -0.00980342
-2.71051e-20 -0.0121849 0.0500854 -0.00986594
2.82344e-22 0.0112484 0.0503042 -0.00979179
0 -0.0112484 0.0503042 -0.00980949
2.71051e-20 0.00718759 0.0510449 -0.00972664
0 -0.00718759 0.0510449 -0.00968935
1.94553e-20 -0.00500028 0.0513129 -0.00963425
2.64698e-23 0.00499996 0.0513126 -0.00969748
0 0.0130819 0.0498724 -0.00981042
6.77626e-21 -0.0130819 0.0498724 -0.00989577
6.77626e-21 0.0131198 0.0498714 -0.00981109
6.77626e-21 -0.0131198 0.0498714 -0.00989575
0 -0.00125003 0.0515605 -0.00957972
-6.61744e-24 0.00125003 0.051561 -0.00960562
-6.77626e-21 -0.0131584 0.0498703 -0.00989774
0 0.0131584 0.0498703 -0.00981127
0 -0.0103117 0.0505375 -0.00976081
5.42101e-20 0.0103117 0.0505375 -0.00977856
0 -0.0130844 0.0498969 -0.00989518
0 0.0130844 0.0498969 -0.00981061
-5.29396e-23 -0.00625005 0.0512045 -0.00964323
0 0.00625005 0.0512046 -0.00971043
0 -0.000625016 0.0515958 -0.00957627
0 0.000625016 0.0515971 -0.00958946
6.77626e-21 -0.0131564 0.0498957 -0.00989699
0 0.0131564 0.0498957 -0.00981142
2.71051e-20 -0.000312512 0.0516082 -0.00962827
-2.71051e-20 0.000312512 0.0516082 -0.00963162
2.71051e-20 0.000937538 0.0516081 -0.00963979
-2.71051e-20 -0.000937538 0.0516081 -0.00961973
0 -0.00562539 0.051312 -0.00963178
0 0.00562485 0.051312 -0.00970127
2.71051e-20 0.00156253 0.0516081 -0.00964464
0 -0.00156253 0.0516081 -0.00961649
-2.58345e-20 0.00937344 0.0507739 -0.0097615
-2.11758e-22 -0.00937642 0.0507738 -0.00972668
-2.71051e-20 0.00781266 0.0510437 -0.0097335
0 -0.00781266 0.0510437 -0.00969364
0 -0.00687505 0.0511805 -0.00964563
-5.29396e-23 0.00687505 0.0511805 -0.00971542
0 0.00218755 0.051608 -0.00965439
5.42101e-20 -0.00218755 0.051608 -0.00960765
-5.64689e-22 0.0118736 0.0502978 -0.00979864
0 -0.0118736 0.0502978 -0.00982622
2.71051e-20 0.00281255 0.0516078 -0.00965763
-2.71051e-20 -0.00281255 0.0516078 -0.0096035
2.71051e-20 -0.0128095 0.0500754 -0.00988403
0 0.0128095 0.0500754 -0.00980914
4.65868e-21 -0.0062505 0.0513121 -0.00962937
0 0.00624972 0.0513121 -0.00970389
-2.71051e-20 -0.0109367 0.0505339 -0.00977431
2.71051e-20 0.0109367 0.0505339 -0.00978522
6.77626e-21 0.0137016 0.0498556 -0.0098155
6.77626e-21 -0.0137016 0.0498556 -0.00991397
1.05879e-22 -0.0075001 0.0511575 -0.00964865
0 0.0075001 0.0511576 -0.00972248
-6.77626e-21 0.0137443 0.0498545 -0.00981614
0 -0.0137443 0.0498545 -0.00991383
2.71051e-20 0.00343756 0.0516077 -0.0096658
-2.71051e-20 -0.00343756 0.0516077 -0.00959573
0 -0.0137879 0.0498533 -0.00991632
0 0.0137879 0.0498533 -0.00981638
0 -0.0137045 0.0498836 -0.00991329
0 0.0137045 0.0498836 -0.0098157
0 0.00843772 0.0510423 -0.00974126
-5.42101e-20 -0.00843772 0.0510423 -0.00970094
2.11758e-22 0.00999837 0.0507715 -0.00976671
-2.11758e-22 -0.0100013 0.0507738 -0.0097364
0 -0.0137855 0.0498824 -0.00991545
0 0.0137855 0.0498824 -0.00981654
2.71051e-20 0.0040626 0.0516075 -0.00966956
2.71051e-20 -0.0040626 0.0516075 -0.00958995
1.05879e-22 -0.00687565 0.0513107 -0.0096279
-1.05879e-22 0.00687565 0.0513116 -0.00970766
-2.11758e-22 -0.00812515 0.0511321 -0.0096544
0 0.00812515 0.0511321 -0.00972998
2.71051e-20 0.00468763 0.0516072 -0.00967726
5.42101e-20 -0.00468763 0.0516072 -0.00958458
-2.82344e-22 -0.0124985 0.0502903 -0.00984386
0 0.0124985 0.0502903 -0.00980529
0 -0.0115618 0.0505295 -0.00978824
0 0.0115618 0.0505295 -0.00979241
0 -0.0134342 0.0500653 -0.0099015
0 0.0134342 0.0500653 -0.00981455
-5.42101e-20 0.00906271 0.0510407 -0.00974791
5.42101e-20 -0.00906271 0.0510407 -0.00970902
1.05879e-22 -0.00875017 0.0511035 -0.00966254
0 0.00875017 0.0511035 -0.00973738
0 -0.00750083 0.0513099 -0.00962671
0 0.00749953 0.051311 -0.00971356
0 0.0143207 0.049839 -0.00982072
0 -0.0143207 0.049839 -0.00993176
0 0.0143689 0.0498377 -0.0098214
6.77626e-21 -0.0143689 0.0498377 -0.0099312
-1.99053e-20 0.0106232 0.0507689 -0.009773
0 -0.0106232 0.0507689 -0.00974667
-2.71051e-20 0.00531265 0.0516068 -0.00968031
-2.71051e-20 -0.00531265 0.0516068 -0.0095811
0 -0.014418 0.0498363 -0.00993408
6.77626e-21 0.014418 0.0498363 -0.00982176
0 -0.0143242 0.049871 -0.00993098
0 0.0143242 0.049871 -0.00982094
3.74816e-25 6.76043e-07 0.0519027 -0.00949608
-3.82654e-20 -0.000625034 0.0519027 -0.00948755
-3.30872e-24 0.00062499 0.0519027 -0.0095077
6.77626e-21 -0.0144152 0.0498696 -0.00993309
6.77626e-21 0.0144152 0.0498696 -0.00982193
0 -0.00125006 0.0519027 -0.00947585
0 0.00125006 0.0519027 -0.00951677
-2.11758e-22 -0.00937512 0.0510757 -0.00967099
0 0.00937512 0.0510757 -0.00974401
1.21893e-20 -0.00187495 0.0519025 -0.00946661
0 0.00187509 0.0519025 -0.00952924
2.71051e-20 0.00593765 0.0516065 -0.00968723
0 -0.00593765 0.0516065 -0.00957297
1.05879e-22 -0.00812604 0.0513089 -0.00962714
1.05879e-22 0.00812604 0.0513104 -0.00971973
5.42101e-20 0.00968766 0.051039 -0.0097539
0 -0.00968766 0.051039 -0.00971474
6.8292e-21 -0.00250013 0.0519027 -0.00945415
-1.32349e-23 0.00250013 0.0519025 -0.0095383
-2.82344e-22 -0.0131232 0.0502825 -0.00986119
5.64689e-22 0.0131232 0.0502825 -0.00981138
0 0.0121869 0.0505245 -0.00980025
-2.71051e-20 -0.0121869 0.0505245 -0.00980501
0 0.0140588 0.050055 -0.00981946
0 -0.0140588 0.050055 -0.00991978
0 -0.00312516 0.0519024 -0.00944552
2.64698e-23 0.00312516 0.0519024 -0.00954845
2.0117e-20 0.0112482 0.0507658 -0.00978069
-2.11758e-22 -0.0112516 0.0507658 -0.00975686
-6.77626e-21 0.0149395 0.0498223 -0.00982705
6.77626e-21 -0.0149395 0.0498223 -0.00994846
2.71051e-20 0.00656266 0.0516061 -0.00968759
2.71051e-20 -0.00656266 0.0516061 -0.00956924
0 -0.01 0.0510557 -0.00967902
0 0.01 0.0510558 -0.00974988
0 0.0149933 0.0498208 -0.00982787
6.77626e-21 -0.0149933 0.0498208 -0.0099476
-1.45584e-20 -0.00375023 0.0519022 -0.0094324
0 0.00374987 0.0519026 -0.00955595
-6.77626e-21 -0.0150481 0.0498193 -0.00995111
6.77626e-21 0.0150481 0.0498193 -0.00982836
1.05879e-20 -0.00875124 0.0513096 -0.0096281
0 0.00875123 0.0513079 -0.00972555
6.77626e-21 -0.0149436 0.0498585 -0.00994757
-1.35525e-20 0.0149436 0.0498585 -0.00982732
0 0.0103126 0.0510372 -0.00975945
2.71051e-20 -0.0103126 0.0510372 -0.0097228
0 -0.0150448 0.0498569 -0.00994997
-6.77626e-21 0.0150448 0.0498569 -0.00982855
2.94344e-20 -0.0043753 0.0519021 -0.00942413
0 0.00437483 0.0519025 -0.00956551
-2.71051e-20 0.00718768 0.0516056 -0.00969504
-2.71051e-20 -0.00718768 0.0516056 -0.00956243
0 -0.0128118 0.050519 -0.00982192
-2.71051e-20 0.0128118 0.050519 -0.00980733
1.69407e-21 -0.013748 0.0502746 -0.00987882
-5.64689e-22 0.013748 0.0502746 -0.00981681
8.89385e-21 0.0118729 0.0507622 -0.00978958
-4.23516e-22 -0.011877 0.0507655 -0.00976847
2.8905e-20 -0.00500037 0.0519024 -0.00941296
-5.29396e-23 0.00499979 0.0519018 -0.00957296
0 -0.0106251 0.0510497 -0.00968505
0 0.0106251 0.0510497 -0.00975596
2.71051e-20 0.0146836 0.0500442 -0.00982528
0 -0.0146836 0.0500442 -0.00993607
0 -0.00937639 0.0513067 -0.00962811
0 0.00937413 0.0513088 -0.00973048
0 0.0155585 0.0498055 -0.0098347
0 -0.0155585 0.0498055 -0.0099644
0 0.00781273 0.0516051 -0.00969785
0 -0.00781273 0.0516051 -0.00955796
0 0.0109377 0.0510351 -0.00976755
-2.71051e-20 -0.0109377 0.0510351 -0.0097293
0 0.0156176 0.0498039 -0.00983576
0 -0.0156176 0.0498039 -0.00996289
-2.48816e-21 -0.00562545 0.0519017 -0.00940371
0 0.00562545 0.0519017 -0.00958251
0 -0.0156777 0.0498022 -0.00996673
-6.77626e-21 0.0156777 0.0498022 -0.0098364
0 -0.000300839 0.0522172 -0.00935636
-5.42101e-20 0.000300839 0.0522172 -0.00936909
6.77626e-21 -0.0155632 0.0498457 -0.0099634
-6.77626e-21 0.0155632 0.0498457 -0.009835
-2.71051e-20 0.000949183 0.0522172 -0.00938471
2.71051e-20 -0.000949183 0.0522172 -0.00933992
-5.42101e-20 0.00155086 0.0522172 -0.00939889
2.71051e-20 -0.00155086 0.0522172 -0.00932841
6.77626e-21 -0.0156739 0.0498438 -0.0099655
-6.77626e-21 0.0156739 0.0498438 -0.0098366
2.71051e-20 0.00219919 0.0522171 -0.00941375
-2.71051e-20 -0.00219919 0.0522171 -0.00930765
0 -0.0134366 0.0505133 -0.00983891
2.71051e-20 0.0134366 0.0505133 -0.00981345
0 -0.0100015 0.0513055 -0.00962831
1.46113e-20 0.00999892 0.0513078 -0.00973493
1.77877e-20 0.0124975 0.050758 -0.00979895
0 -0.0125024 0.050762 -0.00978115
2.48287e-20 -0.00625053 0.0519023 -0.00939046
0 0.00624965 0.0519023 -0.00958865
-5.64689e-22 0.0143728 0.0502664 -0.00982249
-1.12938e-21 -0.0143728 0.0502664 -0.00989566
1.05879e-22 -0.0112501 0.0510577 -0.00968731
0 0.0112501 0.0510577 -0.00976239
-2.71051e-20 -0.00843776 0.0516045 -0.00955237
2.71051e-20 0.00843776 0.0516045 -0.00970508
-2.71051e-20 0.00280086 0.0522171 -0.0094283
-5.42101e-20 -0.00280086 0.0522171 -0.00929911
0 0.0153084 0.050032 -0.00983252
-2.71051e-20 -0.0153084 0.050032 -0.0099528
0 0.0115627 0.0510329 -0.00977635
-5.42101e-20 -0.0115627 0.0510329 -0.00973629
2.71051e-20 0.00344921 0.052217 -0.00943711
2.71051e-20 -0.00344921 0.052217 -0.0092772
0 0.0161781 0.0497885 -0.00984313
-1.35525e-20 -0.0161781 0.0497885 -0.00997789
-4.02341e-21 -0.00687562 0.0519011 -0.0093817
0 0.00687566 0.0519021 -0.00959663
-6.77626e-21 0.016242 0.0497868 -0.00984433
0 -0.016242 0.0497868 -0.00997558
2.71051e-20 0.00405089 0.0522169 -0.00945213
-8.13152e-20 -0.00405089 0.0522169 -0.00926815
6.77626e-21 -0.0163071 0.049785 -0.00997968
0 0.0163071 0.049785 -0.009845
2.75286e-20 -0.0106239 0.0513042 -0.00962883
-2.11758e-22 0.0106239 0.0513042 -0.00974034
0 -0.00906278 0.0516039 -0.00954618
2.71051e-20 0.00906278 0.0516039 -0.00970663
0 -0.0161834 0.0498326 -0.00997679
-6.77626e-21 0.0161834 0.0498326 -0.00984346
-8.47033e-21 0.0131279 0.0507535 -0.00980692
0 -0.0131219 0.0507536 -0.00979305
2.71051e-20 0.00469923 0.0522168 -0.00945836
2.71051e-20 -0.00469923 0.0522168 -0.00924701
-2.71051e-20 -0.0140614 0.0505075 -0.00985681
2.71051e-20 0.0140614 0.0505075 -0.00981877
0 -0.0163029 0.0498305 -0.0099784
-6.77626e-21 0.0163029 0.0498305 -0.00984521
1.05879e-22 -0.0118752 0.0510752 -0.00968756
0 0.0118752 0.0510752 -0.00976958
-2.5411e-20 -0.00749952 0.0519008 -0.00936789
0 0.00749952 0.051902 -0.00960308
0 0.0149977 0.0502574 -0.00982937
-5.64689e-22 -0.0149977 0.0502574 -0.00991175
0 -0.0121878 0.0510304 -0.00974518
0 0.0121878 0.0510304 -0.00978819
-2.71051e-20 0.00530091 0.0522167 -0.00947664
0 -0.00530091 0.0522167 -0.00924075
5.42101e-20 0.015933 0.0500187 -0.00984103
0 -0.015933 0.0500187 -0.00996741
0 0.00968776 0.0516031 -0.00971211
2.71051e-20 -0.00968776 0.0516031 -0.0095384
2.11758e-22 -0.0112517 0.0513029 -0.00962849
0 0.0112488 0.0513029 -0.00974684
-7.72421e-21 -0.000625019 0.0525189 -0.00924278
0 0.000625019 0.0525189 -0.00927762
6.77626e-21 0.0167977 0.0497716 -0.00985171
-6.77626e-21 -0.0167977 0.0497716 -0.00998908
-1.17526e-20 -0.00812445 0.0519004 -0.00935991
1.05879e-22 0.0081259 0.0519018 -0.00961146
0 0.0168666 0.0497698 -0.00985313
-6.77626e-21 -0.0168666 0.0497698 -0.00998604
2.06464e-21 -0.00187506 0.0525189 -0.00920706
0 0.00187496 0.0525189 -0.00931164
0 0.00594925 0.0522166 -0.00948143
2.71051e-20 -0.00594925 0.0522166 -0.00921292
0 -0.0169369 0.0497678 -0.00999057
0 0.0169369 0.0497678 -0.00985386
0 -0.0168036 0.0498196 -0.00998792
0 0.0168036 0.0498196 -0.00985207
2.24464e-20 0.013746 0.0507488 -0.00981287
-4.23516e-22 -0.013746 0.0507488 -0.00980592
-1.27055e-21 0.0137536 0.0507487 -0.00981289
0 -0.0137536 0.0507487 -0.0098052
0 0.0146864 0.0505014 -0.00982548
0 -0.0146864 0.0505014 -0.00987177
0 -0.0125003 0.0510981 -0.00968584
0 0.0125003 0.0510981 -0.00977716
-1.57495e-21 -0.0031251 0.0525187 -0.00917197
0 0.00312494 0.0525187 -0.00934325
0 -0.0128128 0.0510276 -0.0097534
5.42101e-20 0.0128128 0.0510276 -0.00979901
1.35525e-20 -0.0169322 0.0498174 -0.00998924
6.77626e-21 0.0169322 0.0498174 -0.00985407
5.64689e-22 0.0156226 0.0502476 -0.00983756
-1.69407e-21 -0.0156226 0.0502476 -0.00992762
5.42101e-20 0.0103128 0.0516024 -0.00971282
-5.42101e-20 -0.0103128 0.0516024 -0.00953297
-2.71051e-20 0.00655093 0.0522165 -0.00949904
2.71051e-20 -0.00655093 0.0522165 -0.00920857
-2.2764e-20 -0.00875097 0.0519016 -0.0093464
0 0.00874937 0.0519016 -0.00961745
0 -0.0118769 0.0513014 -0.00962864
-2.11758e-22 0.0118739 0.051304 -0.00975494
1.37325e-26 1.85547e-07 0.0526734 -0.00919384
0 0.0165576 0.0500052 -0.00984956
-2.71051e-20 -0.0165576 0.0500052 -0.00997936
2.21684e-22 -0.00125004 0.0526734 -0.0091553
0 0.00124998 0.0526734 -0.00923171
-1.45848e-20 -0.0043749 0.0525187 -0.00913472
0 0.00437516 0.0525187 -0.00937191
0 0.00719927 0.0522163 -0.00950071
0 -0.00719927 0.0522163 -0.00917916
0 0.0174165 0.0497547 -0.00986021
6.77626e-21 -0.0174165 0.0497547 -0.00999918
1.77017e-20 -0.00250006 0.0526733 -0.00911588
0 0.00249996 0.0526733 -0.00926853
0 0.0174914 0.0497527 -0.00986166
0 -0.0174914 0.0497527 -0.00999535
6.77626e-21 -0.00937607 0.0518997 -0.00933546
0 0.0093742 0.0519014 -0.00962445
2.82344e-22 0.0143747 0.0507475 -0.00981857
4.23516e-22 -0.0143747 0.0507475 -0.00981607
0 0.0109378 0.0516015 -0.00972001
5.42101e-20 -0.0109378 0.0516015 -0.00952571
0 -0.0175681 0.0497506 -0.0100005
6.77626e-21 0.0175681 0.0497506 -0.00986226
0 -0.0134377 0.0510248 -0.00975884
0 0.0134377 0.0510248 -0.00980697
5.42101e-20 -0.0153114 0.0504947 -0.00988816
-2.71051e-20 0.0153114 0.0504947 -0.00983329
6.77626e-21 -0.017423 0.0498073 -0.00999796
1.35525e-20 0.017423 0.0498073 -0.00986059
0 -0.0131252 0.0511274 -0.0096795
0 0.0131252 0.0511274 -0.00978299
-2.71051e-20 0.00780098 0.0522162 -0.00951942
0 -0.00780098 0.0522162 -0.00917417
1.12938e-21 0.0162473 0.0502372 -0.00984619
1.69407e-21 -0.0162473 0.0502372 -0.00994193
2.11758e-22 -0.0125018 0.0512997 -0.00962883
0 0.012499 0.0512997 -0.00976406
2.55433e-21 -0.0037501 0.0526733 -0.00907554
1.4426e-20 0.00374994 0.0526733 -0.0093018
-6.77626e-21 -0.0175627 0.0498053 -0.00999908
0 0.0175627 0.0498053 -0.00986249
3.81165e-20 -0.00562523 0.0525185 -0.00909765
-2.64698e-23 0.00562523 0.0525185 -0.00940071
5.92923e-21 -0.0100012 0.0518992 -0.00932056
8.47033e-21 0.00999921 0.0519011 -0.00962902
2.71051e-20 0.0171823 0.0499917 -0.00985843
-2.71051e-20 -0.0171823 0.0499917 -0.00998973
5.42101e-20 0.0115628 0.0516006 -0.0097218
-2.71051e-20 -0.0115628 0.0516006 -0.0095179
0 0.00844931 0.052216 -0.0095196
-5.42101e-20 -0.00844931 0.052216 -0.00914745
-6.77626e-21 0.0180336 0.0497379 -0.00986831
0 -0.0180337 0.0497379 -0.0100083
3.26372e-20 -0.00500016 0.0526731 -0.00903532
0 0.00500016 0.0526731 -0.00933398
7.05861e-22 0.0149997 0.0507428 -0.00982555
1.41172e-22 -0.0149997 0.0507428 -0.0098263
2.71051e-20 -0.0140626 0.0510219 -0.0097677
-2.71051e-20 0.0140626 0.0510219 -0.00981149
1.35525e-20 0.018116 0.0497357 -0.00986993
1.35525e-20 -0.018116 0.0497357 -0.0100032
0 0.0159363 0.0504875 -0.00984252
0 -0.0159363 0.0504875 -0.00990384
-1.14349e-20 -0.013124 0.0512981 -0.00962713
0 0.013124 0.0512981 -0.00977189
6.77626e-21 -0.0182007 0.0497334 -0.0100093
-6.77626e-21 0.0182007 0.0497334 -0.00987068
-6.77626e-21 -0.0180411 0.0497963 -0.010007
-6.77626e-21 0.0180411 0.0497963 -0.00986874
-1.79995e-20 -0.00687533 0.0525183 -0.00905828
0 0.00687506 0.0525189 -0.00942733
2.13876e-20 -0.0106263 0.0518987 -0.0093114
0 0.0106263 0.0518987 -0.00963533
-1.05879e-22 -0.0137502 0.0511647 -0.00966927
-1.05879e-22 0.0137502 0.0511647 -0.00978593
1.12938e-21 0.016872 0.0502266 -0.00985458
-2.25875e-21 -0.016872 0.0502266 -0.00995461
2.71051e-20 0.00905101 0.0522158 -0.00953914
0 -0.00905101 0.0522158 -0.00914203
6.77626e-21 -0.0181943 0.0497943 -0.0100078
0 0.0181943 0.0497943 -0.00987094
2.71051e-20 0.0121879 0.0515996 -0.00973167
2.71051e-20 -0.0121879 0.0515996 -0.00951016
-1.32349e-20 -0.00625024 0.0526729 -0.00899218
-2.64698e-23 0.00624986 0.0526733 -0.00936545
2.71051e-20 0.0178069 0.0499782 -0.00986644
0 -0.0178069 0.0499782 -0.00999965
2.82344e-22 0.0156247 0.0507378 -0.0098342
0 -0.0156247 0.0507378 -0.00983778
-2.71051e-20 -0.0146876 0.0510189 -0.0097687
0 0.0146876 0.0510189 -0.00981765
-2.18111e-20 -0.0112513 0.0519005 -0.00929581
0 0.0112491 0.0519005 -0.00964002
-6.77626e-21 0.0186495 0.0497211 -0.0098768
1.35525e-20 -0.0186495 0.0497211 -0.0100165
2.11758e-22 -0.0137515 0.0512964 -0.00962567
0 0.0137491 0.0512985 -0.00977723
-2.71051e-20 0.00969931 0.0522156 -0.00953628