# pMean  POINT_DATA 50372
# x  y  z  pMean
0.0101542 -2.71051e-20 1.02364e-07 -0.00889502
-0.0101542 2.71051e-20 1.02364e-07 0.0165052
0.0101542 1.35525e-20 0.000172997 -0.00889518
-0.0101542 -1.35525e-20 0.000173028 0.0165052
0.0101542 0 0.000494703 -0.008895
-0.0101542 -1.35525e-20 0.000494789 0.0165052
0.0101542 0 0.000670046 -0.0088947
-0.0101542 -1.35525e-20 0.000670165 0.0165052
0.0101542 -1.35525e-20 0.000852458 -0.00889464
-0.0101542 1.35525e-20 0.000852582 0.0165052
0.0101542 -2.71051e-20 0.00118307 -0.00889441
-0.0101542 -1.35525e-20 0.00118319 0.0165052
0.0101542 0 0.00136546 -0.0088944
-0.0101542 0 0.00136559 0.0165052
0.0102699 2.71051e-20 0.000142058 -0.00889479
-0.0102699 -1.35525e-20 0.000142083 0.0165052
0.0101542 -1.35525e-20 0.00155417 -0.00889446
-0.0101542 0 0.00155427 0.0165052
-0.0102737 0 9.61397e-08 0.0165052
0.0102737 -2.71051e-20 9.61398e-08 -0.00889482
0.0102733 -1.35525e-20 0.000515395 -0.00889457
-0.0102733 -1.35525e-20 0.000515489 0.0165052
0.0102675 0 0.00080711 -0.00889425
-0.0102675 0 0.000807229 0.0165052
0.0101542 0 0.00190096 -0.00889447
-0.0101542 0 0.00190099 0.0165052
0.0102675 1.35525e-20 0.00119419 -0.00889398
-0.0102675 1.35525e-20 0.00119431 0.0165052
0.0102594 -1.35525e-20 0.00147517 -0.00889404
-0.0102594 -1.35525e-20 0.00147528 0.0165052
0.0101542 2.71051e-20 0.002087 -0.00889465
-0.0101542 -2.71051e-20 0.002087 0.0165052
0.0104134 -1.35525e-20 0.000325113 -0.00889448
-0.0104134 0 0.000325172 0.0165052
0.0102564 0 0.00187922 -0.00889407
-0.0102564 -1.35525e-20 0.00187926 0.0165052
0.010404 -2.71051e-20 0.000979256 -0.00889361
-0.010404 0 0.000979372 0.0165052
-0.0102712 0 0.00214808 0.0165052
0.0102712 -1.35525e-20 0.00214808 -0.00889427
0.0103833 0 0.00161108 -0.00889365
-0.0103834 1.35525e-20 0.00161117 0.0165052
0.0103536 0 0.00205869 -0.00889397
-0.0103536 1.35525e-20 0.0020587 0.0165052
0.0105837 0 0.000111818 -0.0088937
-0.0105837 6.77626e-21 0.00011184 0.0165052
-0.0105846 6.77626e-21 8.37325e-08 0.0165052
0.0105846 0 8.37326e-08 -0.00889372
-0.0106742 -1.35525e-20 7.93305e-08 0.0165053
0.0106742 1.35525e-20 7.93306e-08 -0.00889334
0.0106592 -5.64689e-21 0.000632602 -0.00889307
-0.0106592 5.64689e-21 0.000632714 0.0165053
0.0106428 -6.77626e-21 0.00125876 -0.00889274
-0.0106428 -2.25875e-21 0.00125889 0.0165053
0.0107479 0 8.57829e-05 -0.0088931
-0.0107479 0 8.57996e-05 0.0165053
0.0107513 0 7.04941e-08 -0.00889313
-0.0107513 -1.35525e-20 7.04937e-08 0.0165053
0.0106336 -1.50584e-21 0.00171643 -0.00889293
-0.0106336 1.50584e-21 0.00171652 0.0165053
0.0105534 -1.35525e-20 0.00229536 -0.00889329
-0.0105534 6.77626e-21 0.00229537 0.0165052
0.0106374 2.71051e-20 0.00201566 -0.00889343
-0.0106374 0 0.0020157 0.0165052
0.0106444 1.35525e-20 0.00223448 -0.00889297
-0.0106444 0 0.0022345 0.0165053
0.0106479 0 0.0023447 -0.00889285
-0.0106479 0 0.00234469 0.0165052
0.0109358 0 0.000311581 -0.0088921
-0.0109358 -2.71051e-20 0.000311629 0.0165053
0.0109231 2.71051e-20 0.000931197 -0.00889196
-0.0109231 2.71051e-20 0.00093132 0.0165053
-0.0107255 0 0.00238519 0.0165053
0.0107255 0 0.0023852 -0.00889235
-0.0107633 0 0.00232245 0.0165053
0.0107633 0 0.00232244 -0.00889224
0.0109068 0 0.00151925 -0.00889164
-0.0109069 -2.71051e-20 0.00151936 0.0165053
-0.0111547 0 5.04036e-09 0.0165053
0.0111547 0 5.03949e-09 -0.00889142
-0.0111547 0 6.05203e-05 0.0165053
0.0111547 0 6.05016e-05 -0.00889139
-0.0112084 0 -1.4573e-09 0.0165054
0.0112084 6.77626e-21 -1.4573e-09 -0.00889124
0.0112025 -2.25875e-21 0.000609617 -0.00889119
-0.0112025 0 0.000609722 0.0165054
0.0111846 2.25875e-21 0.00122681 -0.00889122
-0.0111847 2.25875e-21 0.00122694 0.0165053
0.0110963 2.71051e-21 0.00189319 -0.0088914
-0.0110963 4.51751e-21 0.00189327 0.0165053
0.0110269 0 0.00227118 -0.00889122
-0.0110269 0 0.00227121 0.0165053
0.0112589 -6.77626e-21 5.31432e-05 -0.00889106
-0.0112589 -6.77626e-21 5.31594e-05 0.0165054
0.0112597 6.77626e-21 -1.24989e-09 -0.00889107
-0.0112597 -6.77626e-21 -1.24984e-09 0.0165054
0.0110601 6.77626e-21 0.00255988 -0.00889129
-0.0110601 -6.77626e-21 0.0025599 0.0165053
0.0110979 0 0.00251659 -0.00889118
-0.0110979 1.35525e-20 0.00251662 0.0165053
0.011119 6.77626e-21 0.00259067 -0.00889121
-0.011119 0 0.00259068 0.0165053
-0.0111709 -6.77626e-21 0.00261768 0.0165053
0.0111709 1.35525e-20 0.00261768 -0.00889108
-0.0111908 0 0.00257887 0.0165053
0.0111908 -6.77626e-21 0.00257885 -0.00889102
-0.0114906 0 0.000303969 0.0165054
0.0114906 0 0.00030393 -0.00889018
0.0114869 -2.71051e-20 0.000915922 -0.00889056
-0.0114869 2.71051e-20 0.000916008 0.0165054
0.0113199 -2.25875e-21 0.00230442 -0.00889062
-0.0113199 0 0.00230446 0.0165054
0.0114565 5.42101e-20 0.00155258 -0.00889075
-0.0114565 0 0.00155266 0.0165054
0.0114952 0 0.00208526 -0.00889019
-0.0114952 0 0.00208532 0.0165054
0.0114493 0 0.00253761 -0.00889058
-0.0114493 -5.42101e-20 0.00253763 0.0165054
-0.0117381 -6.77626e-21 7.69922e-10 0.0165054
0.0117382 0 7.69993e-10 -0.00888943
-0.0117389 -6.77626e-21 3.73394e-05 0.0165054
0.0117389 -6.77626e-21 3.73135e-05 -0.00888941
-0.011774 -6.77626e-21 9.15475e-10 0.0165054
0.011774 -6.77626e-21 9.15461e-10 -0.0088893
0.0117853 1.12938e-21 0.000597825 -0.00888931
-0.0117853 0 0.00059789 0.0165054
0.0118096 0 8.62854e-10 -0.00888919
-0.0118096 0 8.62835e-10 0.0165055
0.0118103 0 3.42357e-05 -0.00888919
-0.0118103 -6.77626e-21 3.4259e-05 0.0165055
0.0117814 1.69407e-21 0.00122179 -0.00888959
-0.0117814 1.12938e-21 0.00122188 0.0165054
0.0115287 -6.77626e-21 0.00280414 -0.00888997
-0.0115287 0 0.00280416 0.0165054
0.0115503 6.77626e-21 0.00277325 -0.0088899
-0.0115503 6.77626e-21 0.00277328 0.0165054
0.0115729 0 0.00282717 -0.00888979
-0.0115729 0 0.00282718 0.0165054
0.0117842 0 0.00183865 -0.00888932
-0.0117842 0 0.00183871 0.0165054
-0.0116142 0 0.00284907 0.0165054
0.0116142 0 0.00284907 -0.00888954
-0.0116389 6.77626e-21 0.00280446 0.0165054
0.011639 0 0.00280444 -0.00888949
0.0117437 -1.12938e-21 0.00238072 -0.00888918
-0.0117437 1.69407e-21 0.00238075 0.0165054
-0.0120804 0 0.000295177 0.0165055
0.0120804 -2.71051e-20 0.000295157 -0.00888828
0.0120943 0 0.000900328 -0.0088883
-0.0120943 0 0.000900379 0.0165054
0.0121033 -2.71051e-20 0.00152699 -0.00888885
-0.0121033 0 0.00152703 0.0165054
0.0119448 2.71051e-20 0.00270134 -0.0088884
-0.0119448 2.71051e-20 0.00270136 0.0165054
0.0120973 -2.71051e-20 0.00216163 -0.00888752
-0.0120973 -5.42101e-20 0.00216166 0.0165055
-0.0123534 -3.38813e-21 7.40909e-11 0.0165055
0.0123534 0 7.40185e-11 -0.00888762
-0.0123542 -6.77626e-21 2.17304e-05 0.0165055
0.0123542 3.38813e-21 2.16841e-05 -0.00888761
0.0119751 -6.77626e-21 0.00303983 -0.0088873
-0.0119752 0 0.00303985 0.0165055
0.0120033 0 0.00299988 -0.00888723
-0.0120034 0 0.00299991 0.0165055
-0.0123759 0 4.08374e-11 0.0165055
0.0123759 0 4.08336e-11 -0.00888755
0.0120142 6.77626e-21 0.00306058 -0.00888705
-0.0120143 0 0.00306059 0.0165055
0.0123981 3.38813e-21 3.93484e-11 -0.0088875
-0.0123981 0 3.9349e-11 0.0165055
0.0123987 3.38813e-21 1.91886e-05 -0.0088875
-0.0123988 0 1.92302e-05 0.0165055
0.0124008 1.12938e-21 0.000576145 -0.00888746
-0.0124008 5.64689e-22 0.000576171 0.0165055
0.0120519 0 0.00308051 -0.0088867
-0.012052 0 0.00308052 0.0165055
0.0120703 0 0.0030437 -0.00888667
-0.0120704 6.77626e-21 0.00304372 0.0165055
0.0124207 8.47033e-22 0.00119162 -0.0088875
-0.0124207 2.82344e-22 0.00119165 0.0165055
0.0124236 -2.82344e-22 0.00184651 -0.00888727
-0.0124236 8.47033e-22 0.00184654 0.0165055
0.0123835 -9.03502e-22 0.00256027 -0.008886
-0.0123835 -2.03288e-21 0.00256029 0.0165055
-0.0126967 5.42101e-20 0.000276519 0.0165056
0.0126967 -2.71051e-20 0.000276513 -0.00888679
0.0123513 0 0.00296166 -0.00888504
-0.0123514 0 0.00296167 0.0165056
0.0127273 2.71051e-20 0.000857688 -0.00888651
-0.0127273 2.71051e-20 0.000857703 0.0165055
0.0124095 0 0.00326997 -0.00888524
-0.0124095 0 0.00327 0.0165056
0.0127511 2.71051e-20 0.0014915 -0.00888645
-0.0127511 0 0.00149152 0.0165055
0.0124313 0 0.00323672 -0.00888519
-0.0124313 0 0.00323675 0.0165056
0.0124457 0 0.00328913 -0.00888527
-0.0124457 0 0.00328915 0.0165056
-0.0124807 -6.77626e-21 0.00330749 0.0165056
0.0124807 6.77626e-21 0.00330748 -0.00888522
-0.0124951 0 0.00327724 0.0165056
0.0124951 0 0.00327722 -0.00888517
0.0127412 0 0.00217415 -0.0088864
-0.0127412 0 0.00217416 0.0165055
0.0126309 -2.63521e-21 0.00298509 -0.00888434
-0.0126309 1.50584e-21 0.0029851 0.0165056
-0.0130119 0 3.91295e-06 0.0165055
0.0130206 0 3.15285e-06 -0.00888584
-0.0130338 -2.82344e-22 0.000526404 0.0165055
0.0130338 -5.64689e-22 0.0005264 -0.00888573
0.0127927 -5.42101e-20 0.00274396 -0.00888307
-0.0127927 0 0.00274397 0.0165056
0.01305 -3.5293e-22 0.00108918 -0.00888577
-0.0130502 7.05861e-23 0.00108947 0.0165056
0.0131021 -4.23516e-22 1.36103e-12 -0.00888558
-0.0131041 3.38813e-21 1.35707e-12 0.0165056
0.0127559 0 0.00321821 -0.00888488
-0.0127559 2.71051e-20 0.00321822 0.0165056
0.0130771 -4.70574e-23 0.0018121 -0.00888536
-0.0130772 -2.35287e-23 0.00181208 0.0165056
0.0128312 0 0.00349147 -0.00888392
-0.0128312 0 0.00349149 0.0165057
0.0128495 0 0.00346312 -0.00888386
-0.0128495 6.77626e-21 0.00346314 0.0165057
0.0130837 -1.41172e-22 0.00247341 -0.00888332
-0.0130837 -1.41172e-22 0.00247342 0.0165056
-0.0133275 0 0.000238489 0.0165053
0.0133275 -5.42101e-20 0.000238488 -0.00888524
0.0128663 0 0.00350989 -0.00888351
-0.0128663 0 0.0035099 0.0165057
-0.0129008 0 0.00352796 0.0165057
0.0129009 6.77626e-21 0.00352796 -0.00888335
-0.0129238 6.77626e-21 0.00348629 0.0165057
0.0129238 0 0.00348628 -0.00888331
0.0130386 5.64689e-22 0.00304624 -0.0088827
-0.0130386 0 0.00304625 0.0165057
-0.0133691 2.71051e-20 0.000762344 0.0165056
0.0133691 0 0.000762343 -0.00888432
0.013433 2.71051e-20 0.00137815 -0.00888598
-0.013433 0 0.00137815 0.0165056
0.0134156 5.42101e-20 0.00211069 -0.00888329
-0.0134156 -2.71051e-20 0.0021107 0.0165057
0.013227 0 0.00336665 -0.00888183
-0.013227 -2.71051e-20 0.00336666 0.0165058
-0.0136582 -3.10579e-21 0.000454835 0.0165062
0.0136582 -4.51751e-21 0.00045481 -0.00888232
0.0133906 2.71051e-20 0.00280402 -0.0088808
-0.0133906 -2.71051e-20 0.00280402 0.0165057
0.0137198 6.77626e-21 1.35042e-13 -0.0088837
-0.01372 0 1.34214e-13 0.0165065
0.0137205 6.77626e-21 2.22047e-05 -0.00888373
-0.0137207 -6.77626e-21 2.20751e-05 0.0165065
0.0137215 -3.38813e-21 0.000181485 -0.00888305
-0.0137217 -3.38813e-21 0.000180645 0.0165065
0.0137517 0 1.01802e-14 -0.00888363
-0.0137517 0 1.00122e-14 0.0165065
0.0132451 0 0.0037083 -0.00888118
-0.0132451 0 0.00370831 0.0165059
0.0132719 0 0.00367137 -0.00888111
-0.0132719 0 0.00367139 0.0165059
-0.0137723 6.77626e-21 1.6111e-05 0.0165065
0.0137724 6.77626e-21 1.62075e-05 -0.00888442
-0.0137739 3.38813e-21 5.87369e-15 0.0165065
0.013774 0 6.01109e-15 -0.00888443
0.0132783 0 0.00372567 -0.00888074
-0.0132783 6.77626e-21 0.00372568 0.0165059
0.0137945 1.12938e-21 0.000886616 -0.00888247
-0.0137945 0 0.000886593 0.0165061
-0.0133097 0 0.00374319 0.0165059
0.0133097 -6.77626e-21 0.00374318 -0.00888076
-0.0138294 6.77626e-21 2.58773e-15 0.0165067
0.0138298 0 2.6944e-15 -0.00888399
-0.0133283 0 0.00371041 0.0165059
0.0133283 0 0.00371039 -0.00888072
0.0137534 0 0.00171114 -0.00888443
-0.0137534 -1.12938e-21 0.00171114 0.0165057
0.0136707 -1.05879e-22 0.00246353 -0.0088817
-0.0136709 -1.05879e-22 0.00246353 0.0165058
0.0137202 0 0.002462 -0.00888156
-0.0137215 1.82112e-20 0.00246192 0.0165058
-0.0137187 -2.11758e-22 0.00249057 0.0165058
0.0137187 1.05879e-22 0.00249065 -0.0088815
0.013662 -9.03502e-22 0.00322324 -0.00887985
-0.013662 6.77626e-22 0.00322324 0.0165059
-0.013613 2.71051e-20 0.00362485 0.016506
0.0136131 0 0.00362485 -0.00887952
0.0141363 1.69407e-21 0.000319446 -0.00887672
-0.0141363 0 0.000319424 0.0165099
0.0140904 2.71051e-20 0.00128026 -0.00888723
-0.0140904 -2.71051e-20 0.00128025 0.0165057
0.0140599 0 0.00206638 -0.00888159
-0.0140599 2.71051e-20 0.00206638 0.0165058
0.0136637 0 0.00393551 -0.00888162
-0.0136637 3.38813e-21 0.00393552 0.0165061
0.0136787 0 0.00391519 -0.0088816
-0.0136787 0 0.00391522 0.0165061
-0.0142379 1.35525e-20 7.69362e-16 0.0165097
0.014238 1.35525e-20 7.95335e-16 -0.00887783
0.0136843 -3.38813e-21 0.00394699 -0.0088818
-0.0136843 -3.38813e-21 0.00394698 0.0165061
-0.0137016 0 0.00395979 0.0165061
0.0137016 0 0.00395981 -0.00888212
-0.0137143 3.38813e-21 0.00394399 0.0165061
0.0137143 -3.38813e-21 0.00394399 -0.00888208
-0.0140217 -2.71051e-20 0.00281655 0.0165059
0.0140217 2.71051e-20 0.00281655 -0.00888077
-0.013895 1.50584e-21 0.00367137 0.0165061
0.0138951 -9.41148e-22 0.00367137 -0.00887997
-0.0144242 5.64689e-22 0.000793237 0.0165069
0.0144242 1.56858e-23 0.000793235 -0.0088804
0.014454 2.71051e-20 1.48066e-16 -0.00888572
-0.014454 1.35525e-20 1.45757e-16 0.0165079
0.0143969 -2.82344e-22 0.00165239 -0.00888172
-0.0143969 2.82344e-22 0.00165239 0.0165058
-0.0140802 2.71051e-20 0.00343827 0.0165061
0.0140802 2.71051e-20 0.00343827 -0.00887653
-0.0140067 5.42101e-20 0.00392192 0.0165062
0.0140067 0 0.00392194 -0.00888367
0.0143633 0 0.00242487 -0.00887989
-0.0143633 -9.52912e-21 0.00242488 0.0165059
-0.0143624 -2.11758e-22 0.00267917 0.0165059
0.0143624 -2.11758e-22 0.00267952 -0.008879
0.0140362 -1.69407e-21 0.00420871 -0.00888211
-0.0140362 1.69407e-21 0.00420869 0.0165064
0.014043 0 0.00420186 -0.0088821
-0.014043 1.69407e-21 0.00420185 0.0165064
-0.0140444 1.69407e-21 0.00421477 0.0165065
0.0140443 -1.69407e-21 0.00421479 -0.00888202
-0.0140522 0 0.00422057 0.0165065
0.0140522 -1.69407e-21 0.0042206 -0.00888199
-0.0140564 1.69407e-21 0.00421301 0.0165065
0.0140564 -1.69407e-21 0.00421303 -0.00888198
-0.0146848 1.35525e-20 -3.35187e-17 0.0165092
0.0146849 6.77626e-21 -3.32302e-17 -0.00888507
0.0143544 -2.58345e-20 0.00313093 -0.00887744
-0.0143544 0 0.00313092 0.0165061
-0.0143606 0 0.00313712 0.0165061
0.0143549 4.23516e-22 0.00313705 -0.0088774
-0.0147048 5.42101e-21 0.000271671 0.016509
0.0147048 0 0.000271731 -0.00888626
-0.014356 0 0.00329971 0.0165062
0.014356 8.47033e-22 0.00329991 -0.00887822
0.0147336 -2.71051e-20 0.0012417 -0.00887763
-0.0147336 0 0.00124169 0.0165059
-0.0146227 -2.11758e-22 0.0023874 0.0165059
0.0146235 2.11758e-22 0.00238728 -0.0088786
0.0146912 2.71051e-20 0.002036 -0.00888037
-0.0146912 -2.71051e-20 0.002036 0.0165058
-0.0143356 -4.03349e-23 0.00382206 0.0165064
0.0143356 3.63014e-22 0.00382208 -0.00888081
-0.0143244 0 0.00417019 0.0165067
0.0143244 0 0.00417021 -0.00887975
-0.0142789 -8.47033e-22 0.00438875 0.0165067
0.0142791 0 0.0043889 -0.00887892
-0.0146906 0 0.00275581 0.0165059
0.0146906 2.71051e-20 0.00275581 -0.00887709
-0.0149588 -1.41172e-22 0.00165211 0.0165058
0.0149603 0 0.00165061 -0.00887776
-0.0146586 -2.71051e-20 0.00346816 0.0165063
0.0146586 -5.42101e-20 0.00346818 -0.0088754
-0.0144053 -8.47033e-22 0.00448256 0.0165068
0.0144084 0 0.00447898 -0.00887726
-0.0151194 2.37169e-20 -3.98229e-17 0.0165063
0.0151197 -3.38813e-21 -3.98169e-17 -0.0088841
-0.0144514 -8.47033e-22 0.00451675 0.0165068
0.0144515 -1.69407e-21 0.00451675 -0.00887613
-0.0151612 0 3.4719e-05 0.0165061
0.0151612 0 3.45049e-05 -0.00888462
-0.0151666 0 -1.47629e-17 0.0165061
0.0151666 0 -1.47327e-17 -0.0088845
-0.0145673 1.12938e-21 0.00422607 0.0165068
0.0145673 -1.50584e-21 0.00422609 -0.00888054
0.0151843 0 -9.97127e-18 -0.00888396
-0.0151843 0 -1.0005e-17 0.0165061
-0.015166 1.12938e-21 0.00086797 0.0165059
0.015166 2.25875e-21 0.000867968 -0.00887935
0.0152148 3.38813e-21 -1.00637e-17 -0.00888365
0.0152149 3.38813e-21 2.26461e-05 -0.00888365
-0.0152151 3.38813e-21 -1.00978e-17 0.016506
-0.0152151 0 2.27883e-05 0.016506
-0.0147125 -2.71051e-20 0.00402551 0.0165066
0.0147125 0 0.00402553 -0.00888835
-0.0150843 0 0.00231357 0.0165059
0.0150843 4.23516e-22 0.00231357 -0.00887627
-0.0150902 -2.4564e-20 0.00232072 0.0165059
0.0150909 6.26804e-20 0.00231341 -0.00887625
-0.0149792 2.82344e-22 0.0031214 0.0165062
0.0149792 2.82344e-22 0.00312141 -0.00887425
-0.0146794 0 0.00445851 0.0165069
0.0146795 -5.42101e-20 0.00445853 -0.00887399
-0.0149711 0 0.00367466 0.0165065
0.0149711 0 0.00367488 -0.00887639
-0.0149706 0 0.00377567 0.0165066
0.0149706 0 0.00377568 -0.00887679
-0.0147268 0 0.00472093 0.0165071
0.0147268 6.77626e-21 0.00472096 -0.0088701
-0.0147397 0 0.0047038 0.0165071
0.0147397 0 0.00470382 -0.00887
-0.0147494 6.77626e-21 0.00473772 0.0165071
0.0147494 0 0.00473775 -0.00886969
0.0150251 2.11758e-22 0.00377792 -0.00887628
-0.0150252 1.05879e-21 0.00377791 0.0165066
-0.0147753 0 0.0047569 0.0165071
0.0147753 6.77626e-21 0.00475694 -0.00886775
-0.0147957 0 0.00471951 0.0165071
0.0147957 0 0.00471954 -0.00886789
-0.0149236 -3.38813e-21 0.00432832 0.0165069
0.0149238 4.23516e-22 0.00432831 -0.00887392
-0.0149307 0 0.0043143 0.0165069
0.0149308 3.59989e-20 0.00431433 -0.00887408
0.0153072 -5.42101e-20 0.00276684 -0.00887312
-0.0153072 0 0.00276684 0.016506
-0.0149538 2.11758e-22 0.00432332 0.016507
0.0149538 4.02341e-21 0.00432332 -0.00887378
-0.0152762 2.71051e-20 0.00345527 0.0165065
0.0152762 2.71051e-20 0.00345527 -0.00887131
-0.0156652 -5.42101e-20 0.00170503 0.0165058
0.0156652 5.42101e-20 0.00170503 -0.00887304
-0.0150897 0 0.00463312 0.0165073
0.0150898 0 0.00463317 -0.00886303
-0.0152566 0 0.00410558 0.0165069
0.0152566 -2.71051e-20 0.00410559 -0.00887099
0.0156483 -7.05861e-23 0.00239976 -0.00887352
-0.0156483 7.05861e-23 0.00239976 0.0165059
-0.0150378 0 0.00495164 0.0165073
0.0150379 -6.77626e-21 0.0049517 -0.00886255
-0.0158313 -1.0842e-19 0.000505742 0.0165039
0.0158313 5.42101e-20 0.000505749 -0.00887545
-0.0150929 0 0.00489488 0.0165073
0.015093 0 0.00489493 -0.00886248
-0.0150892 -1.35525e-20 0.00498975 0.0165073
0.0150893 0 0.00498982 -0.00886397
-0.015606 -2.82344e-22 0.00310341 0.0165063
0.015606 5.64689e-22 0.00310341 -0.00887167
-0.0151438 0 0.00503029 0.0165074
0.0151439 6.77626e-21 0.00503035 -0.00886236
-0.0151784 0 0.00496289 0.0165074
0.0151785 1.35525e-20 0.00496294 -0.00886231
-0.0155884 -6.77626e-22 0.00378776 0.0165068
0.0155884 2.25875e-22 0.00378777 -0.00887123
-0.0155033 0 0.00450864 0.0165072
0.0155033 -1.807e-21 0.00450867 -0.00886734
-0.0154178 -2.71051e-20 0.00490558 0.0165075
0.0154179 0 0.00490563 -0.0088615
-0.0159469 2.71051e-20 0.00273843 0.0165058
0.0159469 -2.71051e-20 0.00273843 -0.00887393
-0.0153971 -1.35525e-20 0.00521815 0.0165075
0.0153972 2.03288e-20 0.00521821 -0.00886561
-0.015903 0 0.0034351 0.0165069
0.015903 0 0.00343511 -0.00886827
-0.0154387 0 0.00517349 0.0165075
0.0154387 6.77626e-21 0.00517354 -0.00886575
-0.0154377 6.77626e-21 0.00524824 0.0165075
0.0154377 0 0.00524829 -0.0088681
0.0163338 3.81165e-21 -1.09082e-18 -0.00887526
-0.0163352 4.23516e-22 -1.08335e-18 0.0165036
-0.0154764 -6.77626e-21 0.00527693 0.0165076
0.0154764 6.77626e-21 0.00527698 -0.00886878
-0.0155053 0 0.00524153 0.0165076
0.0155053 0 0.00524158 -0.00886861
0.0163533 5.50571e-21 0.00112133 -0.00887303
-0.0163536 0 0.00112139 0.0165045
-0.0158756 2.71051e-20 0.0041209 0.0165067
0.0158756 0 0.00412092 -0.00887446
0.0163769 3.59989e-21 0.00112768 -0.00887291
-0.0163768 3.34578e-20 0.00112767 0.0165045
-0.0156932 -7.52918e-22 0.00495312 0.0165076
0.0156933 1.50584e-21 0.00495315 -0.00886715
0.0164701 4.23516e-22 3.15916e-06 -0.00887424
-0.0164637 4.23516e-22 2.61009e-06 0.0165033
-0.0163214 0 0.00227444 0.0165058
0.0163214 1.12938e-21 0.00227444 -0.00887628
-0.0162376 4.51751e-22 0.0030774 0.0165063
0.0162376 -4.51751e-22 0.0030774 -0.00887307
-0.0159046 0 0.00473208 0.0165076
0.0159046 0 0.00473209 -0.00886694
-0.0157801 -2.71051e-20 0.00520579 0.0165076
0.0157802 2.71051e-20 0.00520583 -0.00887259
-0.0162469 -2.25875e-21 0.00372972 0.0165068
0.0162469 1.12938e-21 0.00372973 -0.00886964
-0.0157745 0 0.00549808 0.0165072
0.0157746 0 0.00549812 -0.00887377
-0.0158014 6.77626e-21 0.00547416 0.0165072
0.0158015 0 0.00547419 -0.00887371
-0.0158049 6.77626e-21 0.00552063 0.0165071
0.015805 0 0.00552067 -0.00887385
-0.0158346 6.77626e-21 0.00554267 0.016507
0.0158347 0 0.00554272 -0.0088739
-0.0158529 0 0.00551417 0.016507
0.015853 0 0.00551421 -0.00887385
-0.016198 0 0.00441893 0.016507
0.0161981 2.25875e-22 0.00441893 -0.00887082
-0.0166697 0 0.00284041 0.0165059
0.0166698 5.42101e-20 0.00284041 -0.00888746
-0.0161695 -4.51751e-22 0.00510698 0.0165071
0.0161695 -4.51751e-22 0.00510701 -0.00887189
-0.0166597 0 0.00328607 0.0165065
0.0166597 2.71051e-20 0.00328607 -0.0088681
-0.0165248 -2.71051e-20 0.00409519 0.0165069
0.0165248 2.71051e-20 0.0040952 -0.00887067
-0.0161206 2.71051e-20 0.00547661 0.0165066
0.0161207 2.71051e-20 0.00547665 -0.00887438
-0.0170334 0 0.000576922 0.0165027
0.0170335 5.42101e-20 0.000576921 -0.00887328
-0.0168875 -4.23516e-22 0.0023902 0.0165055
0.0168875 -2.11758e-22 0.00239021 -0.00887982
-0.0169716 1.0842e-19 0.00176737 0.0165056
0.0169716 0 0.00176736 -0.00886955
-0.0169179 -2.11758e-22 0.00239498 0.0165054
0.0169179 2.11758e-22 0.00239498 -0.00888001
0.0169439 2.11758e-22 0.00239538 -0.00887991
-0.0169439 2.11758e-22 0.00239538 0.0165054
-0.0168719 0 0.00305894 0.016506
0.0168719 0 0.00305894 -0.00887525
-0.0161674 -6.77626e-21 0.00578953 0.0165064
0.0161674 0 0.00578955 -0.0088754
-0.0165034 5.42101e-20 0.00475625 0.0165066
0.0165034 2.71051e-20 0.00475627 -0.0088718
-0.0161836 0 0.00577012 0.0165064
0.0161836 0 0.00577014 -0.00887538
-0.0161897 0 0.00580603 0.0165064
0.0161897 0 0.00580606 -0.00887573
-0.0162121 0 0.00582272 0.0165064
0.0162122 0 0.00582276 -0.00887623
-0.0162243 0 0.00580494 0.0165064
0.0162243 -6.77626e-21 0.00580498 -0.00887614
0.0168523 -4.51751e-22 0.00374134 -0.00886932
-0.0168523 1.12938e-22 0.00374134 0.0165061
-0.0163971 -4.23516e-22 0.00553967 0.0165065
0.0163973 -4.23516e-22 0.00553971 -0.00887478
-0.0170978 0 0.00283719 0.016505
0.0170978 5.42101e-20 0.00283719 -0.00888367
-0.0170665 2.71051e-20 0.00327483 0.0165064
0.0170665 0 0.00327484 -0.00886523
-0.0165625 2.71051e-20 0.0053276 0.0165068
0.0165626 -2.71051e-20 0.00532762 -0.00887375
-0.0168336 -1.41172e-22 0.0044175 0.0165059
0.0168336 1.41172e-22 0.00441751 -0.00887267
-0.0164976 2.71051e-20 0.00578805 0.0165062
0.0164976 -2.71051e-20 0.00578809 -0.0088761
-0.0168265 -1.69407e-22 0.00506999 0.0165057
0.0168265 -2.82344e-22 0.00507002 -0.00887355
-0.0176289 0 1.51736e-05 0.016502
0.0176289 0 1.51718e-05 -0.00887168
-0.0176298 0 -8.11545e-23 0.016502
0.0176298 0 -8.41405e-23 -0.00887168
-0.0176062 -2.82344e-22 0.00116021 0.0165032
0.0176063 -5.64689e-22 0.00116021 -0.00887129
-0.0176451 0 -1.69374e-23 0.0165019
0.0176451 3.38813e-21 -1.6139e-23 -0.00887163
-0.0171749 -2.71051e-20 0.00405965 0.0165048
0.0171749 0 0.00405966 -0.00887508
0.0176602 0 1.54588e-05 -0.00887158
-0.0176602 -3.38813e-21 1.54608e-05 0.0165019
0.0176607 -3.38813e-21 -1.83247e-23 -0.00887158
-0.0176607 0 -1.91174e-23 0.0165019
-0.0165809 0 0.00609702 0.0165046
0.016581 -6.77626e-21 0.00609706 -0.00887672
-0.0165981 6.77626e-21 0.00608064 0.0165046
0.0165981 -6.77626e-21 0.00608065 -0.00887662
-0.016605 0 0.00611494 0.0165044
0.0166051 0 0.00611499 -0.0088767
-0.0166198 0 0.00612719 0.0165042
0.0166199 0 0.00612726 -0.00887737
-0.0166291 0 0.00611136 0.0165042
0.0166292 0 0.00611141 -0.00887728
-0.0175901 -2.25875e-21 0.00236117 0.0165039
0.0175901 1.12938e-21 0.00236117 -0.00887698
-0.0166534 0 0.00615455 0.0165041
0.0166535 -6.77626e-21 0.00615465 -0.00887804
-0.0168283 3.01167e-21 0.00572854 0.0165045
0.0168284 -9.41148e-22 0.00572855 -0.00887775
-0.0175166 -3.5293e-22 0.00305113 0.0165042
0.0175166 1.41172e-22 0.00305113 -0.00887587
-0.0171428 0 0.0047344 0.0165051
0.0171428 2.71051e-20 0.00473441 -0.00887315
-0.017534 3.38813e-21 0.00360681 0.016504
0.017534 -1.12938e-21 0.00360681 -0.00887408
-0.0171172 0 0.00539736 0.0165041
0.0171172 2.71051e-20 0.00539737 -0.00887505
0.01747 1.69407e-22 0.00438795 -0.0088758
-0.01747 1.69407e-22 0.00438795 0.0165037
-0.0168947 6.77626e-21 0.00636212 0.0165023
0.0168947 2.03288e-20 0.00636216 -0.00888496
0.0170243 0 0.00618637 -0.00888301
-0.0170257 1.41172e-22 0.00618772 0.0165023
-0.0174372 -8.47033e-22 0.00507024 0.0165029
0.0174372 0 0.00507024 -0.00887581
-0.0182236 -1.0842e-19 0.000583084 0.0165012
0.0182236 5.42101e-20 0.000583082 -0.0088701
-0.0177925 0 0.00405319 0.0165029
0.0177925 0 0.00405319 -0.00887816
-0.018201 5.42101e-20 0.00177192 0.0165033
0.018201 -5.42101e-20 0.00177193 -0.00887204
-0.0173656 -1.807e-21 0.00581376 0.0165014
0.0173656 1.807e-21 0.00581378 -0.00887968
-0.0171242 0 0.00658581 0.0164999
0.0171243 0 0.00658585 -0.00888287
-0.0177701 0 0.0047233 0.0165021
0.0177701 2.71051e-20 0.0047233 -0.00887687
-0.0171594 -6.77626e-21 0.0066222 0.0164997
0.0171595 0 0.00662223 -0.00888278
-0.0171745 -6.77626e-21 0.00660974 0.0164997
0.0171746 -6.77626e-21 0.00660977 -0.00888265
-0.0171745 6.77626e-21 0.00663768 0.0164994
0.0171746 0 0.00663771 -0.00888266
-0.0181606 -1.0842e-19 0.00305643 0.0165012
0.0181606 -5.42101e-20 0.00305643 -0.00888281
-0.01719 -6.77626e-21 0.00665349 0.0164991
0.0171901 -6.77626e-21 0.00665351 -0.00888343
-0.0172014 0 0.00663722 0.0164991
0.0172015 -6.77626e-21 0.00663725 -0.00888325
-0.017284 0 0.00651866 0.0164993
0.0172841 -6.77626e-21 0.00651871 -0.00888386
-0.0172277 -2.71051e-20 0.00669186 0.0164989
0.0172278 -2.03288e-20 0.00669187 -0.00888407
0.0181264 -4.23516e-22 0.00381067 -0.00888703
-0.0181264 0 0.00381068 0.0164978
-0.0177303 5.42101e-20 0.00540333 0.0165004
0.0177303 5.42101e-20 0.00540334 -0.00887799
-0.0174485 0 0.00633776 0.0164993
0.0174485 -1.50584e-21 0.00633777 -0.00888424
-0.0181015 0 0.00437909 0.016498
0.0181015 2.82344e-22 0.00437909 -0.00888426
-0.0177286 2.71051e-20 0.00604036 0.0164989
0.0177286 0 0.00604037 -0.00887996
-0.018075 0 0.00504762 0.0164981
0.018075 5.64689e-22 0.00504762 -0.00888102
-0.0174666 -6.77626e-21 0.00693497 0.0164962
0.0174666 -6.77626e-21 0.00693498 -0.00889291
-0.0188065 0 1.6274e-05 0.0165004
0.0188065 0 1.62693e-05 -0.00886835
-0.0188069 0 2.04326e-24 0.0165004
0.0188069 0 2.046e-24 -0.00886835
0.0188233 0 -2.50777e-25 -0.00886831
-0.0188233 0 -2.47904e-25 0.0165004
0.0188396 0 1.62248e-05 -0.00886826
-0.0188396 3.38813e-21 1.62294e-05 0.0165004
0.0188397 0 -2.4549e-25 -0.00886826
-0.0188397 3.38813e-21 -2.42667e-25 0.0165004
-0.0188091 5.64689e-22 0.00116454 0.0164999
0.0188091 1.12938e-21 0.00116454 -0.00887107
-0.0184387 0 0.00403102 0.0164909
0.0184387 0 0.00403102 -0.00889851
0.0176208 7.05861e-23 0.00677694 -0.0088911
-0.0176216 -1.41172e-22 0.00677769 0.0164962
-0.0180488 1.12938e-21 0.00571123 0.0164968
0.0180488 -2.25875e-21 0.00571124 -0.0088807
-0.018794 8.47033e-22 0.00239227 0.0164955
0.018794 -2.82344e-22 0.00239227 -0.00888136
-0.0184023 -5.42101e-20 0.0046998 0.0164962
0.0184023 0 0.0046998 -0.00888376
-0.0179596 0 0.00643086 0.0164958
0.0179596 3.76459e-21 0.00643087 -0.00888378
-0.0177051 -6.77626e-21 0.00717768 0.0164943
0.0177052 0 0.0071777 -0.00888774
-0.0177437 0 0.00721691 0.0164941
0.0177437 0 0.00721692 -0.00888707
-0.0184015 0 0.00534889 0.016494
0.0184015 0 0.0053489 -0.00888515
-0.0177602 0 0.007205 0.0164941
0.0177602 0 0.00720502 -0.00888694
-0.0177596 6.77626e-21 0.0072331 0.0164938
0.0177596 0 0.00723311 -0.00888692
0.0188295 1.41172e-22 0.00373127 -0.00889552
-0.0177751 0 0.00724887 0.0164934
0.0177751 0 0.00724887 -0.0088874
-0.0188307 7.05861e-23 0.00373002 0.0164878
-0.017788 0 0.0072329 0.0164935
0.017788 0 0.00723291 -0.00888725
-0.018738 4.23516e-22 0.00435322 0.016489
0.018738 -9.31736e-21 0.00435322 -0.00889444
-0.0187376 0 0.00436113 0.016489
0.0187376 -2.03288e-20 0.00436113 -0.0088944
0.0178113 6.77626e-21 0.00728567 -0.00888799
-0.0178113 1.35525e-20 0.00728567 0.0164933
0.0178795 0 0.00711716 -0.00888793
-0.0178795 0 0.00711713 0.0164937
-0.0183488 -2.71051e-20 0.00603424 0.016494
0.0183488 2.71051e-20 0.00603425 -0.0088797
-0.0180549 -3.01167e-21 0.00694833 0.0164935
0.0180549 0 0.00694833 -0.00888793
0.0194128 5.42101e-20 0.000584031 -0.00886657
-0.0194128 0 0.000584032 0.0164996
-0.018803 0 0.00493677 0.0164892
0.018803 2.82344e-22 0.00493677 -0.00889043
-0.0194073 0 0.00177875 0.0164955
0.0194073 -5.42101e-20 0.00177875 -0.0088757
-0.0183455 -2.71051e-20 0.00666212 0.0164929
0.0183455 -2.71051e-20 0.00666213 -0.00888342
-0.0186965 -5.64689e-22 0.00568331 0.0164905
0.0186965 -3.38813e-21 0.00568331 -0.0088864
-0.0180388 2.03288e-20 0.007517 0.0164908
0.0180388 0 0.007517 -0.00889643
0.0194176 0 0.0030161 -0.00889507
-0.0194176 5.42101e-20 0.0030161 0.0164821
-0.0182202 9.41148e-23 0.00737491 0.0164908
0.0182202 -9.41148e-23 0.00737492 -0.00889456
-0.0186656 1.12938e-21 0.00633956 0.0164909
0.0186656 1.12938e-21 0.00633956 -0.00888268
-0.0190338 2.71051e-20 0.00534623 0.0164859
0.0190338 2.71051e-20 0.00534623 -0.00889431
-0.0185755 9.03502e-22 0.00702539 0.0164908
0.0185755 -3.83988e-21 0.0070254 -0.00888535
-0.0193824 0 0.00433462 0.0164745
0.0193824 5.42101e-20 0.00433462 -0.0089043
0.0182812 -3.38813e-21 0.00776358 -0.00888841
-0.0182812 -3.38813e-21 0.00776358 0.0164896
-0.0182994 0 0.00778213 0.0164896
0.0182994 -3.38813e-21 0.00778213 -0.008888
-0.0183082 0 0.0077765 0.0164896
0.0183082 0 0.0077765 -0.00888796
-0.018307 3.38813e-21 0.00778984 0.0164895
0.018307 -3.38813e-21 0.00778984 -0.00888786
-0.0183179 3.38813e-21 0.00780096 0.0164893
0.0183179 0 0.00780096 -0.00888813
-0.0183258 0 0.00779182 0.0164893
0.0183258 3.38813e-21 0.00779182 -0.00888807
-0.0190083 0 0.00599366 0.0164881
0.0190083 2.71051e-20 0.00599366 -0.0088861
-0.0184198 1.69407e-21 0.00771698 0.0164893
0.0184198 1.69407e-21 0.00771698 -0.00888824
-0.019989 -3.38813e-21 1.55569e-05 0.0164984
0.019989 0 1.55557e-05 -0.00886175
-0.019989 0 -4.667e-27 0.0164984
0.019989 0 -4.71098e-27 -0.00886175
0.0193663 4.70574e-22 0.00500042 -0.00889934
-0.0193663 2.82344e-22 0.00500042 0.0164778
0.0200048 0 3.512e-28 -0.00886163
-0.0200048 0 3.46741e-28 0.0164983
0.0200207 0 3.42341e-28 -0.0088615
-0.0200207 0 3.37969e-28 0.0164983
0.0200208 0 1.54817e-05 -0.00886151
-0.0200208 0 1.54827e-05 0.0164983
-0.0200101 2.82344e-22 0.0011652 0.0164927
0.0200101 -2.82344e-22 0.0011652 -0.00886815