# U  POINT_DATA 42454
# x  y  z  U_x  U_y  U_z
0 5.04436e-09 0.049924 -3.70334e-08 1.2352e-08 3.0674e-10
0 0.000625863 0.0499247 -1.77818e-05 6.38656e-06 6.31677e-08
0 -0.000623753 0.0499247 -1.62706e-05 3.78347e-06 4.96915e-08
0 0.00125175 0.0499254 -3.62555e-05 1.38752e-05 1.93664e-08
0 -0.00124749 0.0499254 -3.08117e-05 6.65962e-06 -6.05844e-08
-4.23516e-22 0.00187767 0.0499261 -5.56192e-05 2.23072e-05 -1.1929e-07
0 -0.0018712 0.0499261 -4.54277e-05 9.53215e-06 -6.24447e-07
0 0.0025036 0.0499268 -7.57482e-05 3.16639e-05 -4.77099e-07
0 -0.00249489 0.0499268 -5.94252e-05 1.21772e-05 -1.8945e-06
8.47033e-22 0.00312954 0.0499276 -9.6433e-05 4.23252e-05 -1.01998e-06
-8.47033e-22 -0.00311857 0.0499276 -7.33806e-05 1.44948e-05 -3.81835e-06
0 0.00374219 0.049924 -0.000128998 5.81139e-05 -1.55414e-06
8.47033e-22 -0.00374223 0.0499283 -9.67271e-05 1.87778e-05 -6.1265e-06
8.47033e-22 0.00374886 0.049924 0 0 0
-8.47033e-22 -0.00374886 0.049924 0 0 0
0 -0.00375553 0.0499283 -0.000106476 1.83017e-05 -9.39277e-06
0 0.00375553 0.0499283 -0.000144405 6.85191e-05 -1.84713e-06
-8.47033e-22 0.00436576 0.049924 -0.000153448 7.28103e-05 -1.96282e-06
0 -0.00436582 0.0499291 -0.000113145 1.9448e-05 -9.98107e-06
0 0.00437368 0.049924 0 0 0
1.69407e-21 -0.00437368 0.049924 0 0 0
-8.47033e-22 -0.00438158 0.0499291 -0.000127393 1.78618e-05 -1.33925e-05
-8.47033e-22 0.00438158 0.0499291 -0.000171112 8.44276e-05 -1.63637e-06
-2.71051e-20 -0.000312415 0.0501277 -0.00772548 0.0021952 6.55372e-05
-2.71051e-20 0.000312416 0.0501277 -0.00781439 0.00241954 4.69496e-05
2.71051e-20 -0.000937254 0.0501276 -0.00758158 0.00200124 7.15691e-05
0 0.000937254 0.0501276 -0.00788516 0.00263978 4.63866e-05
0 0.00156209 0.0501275 -0.00798626 0.00282883 4.87109e-05
0 -0.00156209 0.0501275 -0.00740904 0.00189061 7.21229e-05
0 0.00498927 0.049924 -0.000178552 8.80986e-05 -1.70752e-06
1.69407e-21 -0.00498933 0.0499299 -0.000132932 1.86384e-05 -1.39748e-05
0 -0.00499848 0.049924 0 0 0
1.69407e-21 0.00499848 0.049924 0 0 0
1.69407e-21 -0.00500769 0.0499299 -0.000146759 1.8447e-05 -1.84512e-05
0 0.00500769 0.0499299 -0.000199656 0.0001012 -1.04233e-06
0 -0.00218693 0.0501274 -0.00717059 0.00181738 2.56632e-06
0 0.00218693 0.0501274 -0.00814348 0.00297733 4.57093e-05
5.42101e-20 0.00281176 0.0501273 -0.00828787 0.00315673 7.77214e-06
0 -0.00281176 0.0501273 -0.0070179 0.00172387 -6.54156e-05
1.69407e-21 0.00561272 0.049924 0 0 0
-1.69407e-21 -0.00561272 0.049924 0 0 0
1.69407e-21 -0.00562327 0.049924 0 0 0
0 0.00562327 0.049924 0 0 0
0 -0.00563387 0.049924 0 0 0
1.69407e-21 0.00563387 0.049924 0 0 0
-2.71051e-20 0.0034366 0.0501271 -0.00841772 0.00338769 -1.26791e-05
-2.71051e-20 -0.0034366 0.0501271 -0.00687505 0.00162437 -0.000161147
-1.69407e-21 -0.0056128 0.0499307 -0.000214921 2.70147e-05 -2.70209e-05
0 0.0056128 0.0499307 -0.000292386 0.000148202 -1.52644e-06
0 -0.00563381 0.0499307 -0.000208179 2.54317e-05 -3.15925e-05
-1.69407e-21 0.00563381 0.0499307 -0.000294687 0.000152948 -3.95443e-07
2.71051e-20 0.00406145 0.0501268 -0.00850035 0.00360849 -2.80855e-05
0 -0.00406145 0.0501268 -0.00677211 0.00144093 -0.000273023
0 0.00623615 0.049924 0 0 0
-1.69407e-21 -0.00623615 0.049924 0 0 0
0 -0.00624806 0.049924 0 0 0
0 0.00624806 0.049924 0 0 0
0 -0.00626002 0.049924 0 0 0
0 0.00626002 0.049924 0 0 0
0 -0.00623625 0.0499315 -0.000233645 2.85427e-05 -3.54572e-05
0 0.00623625 0.0499315 -0.000330738 0.000171659 -4.4382e-07
-1.69407e-21 -0.00625994 0.0499315 -0.000229499 2.64941e-05 -3.94299e-05
0 0.00625994 0.0499315 -0.000333837 0.000179371 1.36438e-07
2.88334e-21 1.03498e-09 0.0503315 -0.00531314 0.00367697 8.67584e-05
-1.20702e-20 0.000624243 0.050332 -0.00564335 0.00401117 6.51767e-05
1.05879e-22 -0.000624244 0.050332 -0.00491257 0.00337116 0.000112202
2.71051e-20 -0.00468628 0.0501264 -0.00676599 0.00124898 -0.000354148
2.71051e-20 0.00468628 0.0501264 -0.00855026 0.0037753 -2.59486e-05
8.25857e-21 0.00124847 0.0503324 -0.00602408 0.00433965 3.97414e-05
0 -0.00124847 0.0503324 -0.00435263 0.00314305 0.000164635
8.89385e-21 0.00187268 0.0503327 -0.00653033 0.00463799 -9.35107e-06
0 -0.00187268 0.0503327 -0.00350273 0.00299572 0.000243254
1.43996e-20 0.00249688 0.050333 -0.0070635 0.00493306 -8.68706e-05
0 -0.00250225 0.050333 -0.00253259 0.00287084 0.000318378
0 0.00685954 0.049924 0 0 0
-1.69407e-21 -0.00685954 0.049924 0 0 0
-1.69407e-21 -0.00687284 0.049924 0 0 0
0 0.00687284 0.049924 0 0 0
-1.69407e-21 -0.00688622 0.049924 0 0 0
0 0.00688622 0.049924 0 0 0
-1.69407e-21 -0.00685965 0.0499324 -0.000255205 2.94616e-05 -4.38463e-05
0 0.00685965 0.0499324 -0.000371228 0.000199461 1.5172e-07
1.69407e-21 -0.00688613 0.0499324 -0.000247912 2.55229e-05 -4.83251e-05
-1.69407e-21 0.00688613 0.0499324 -0.000373734 0.000209982 2.58576e-06
-2.71051e-20 0.00531111 0.0501258 -0.00861169 0.00390716 -2.87193e-05
-2.71051e-20 -0.00531111 0.0501258 -0.00665587 0.0011516 -0.000454209
0 0.00312104 0.0503286 -0.00751676 0.00524976 -0.000150842
4.23516e-22 -0.00312104 0.0503286 -0.00167719 0.00275045 0.000373761
-1.60936e-20 0.00312109 0.0503332 -0.00751664 0.00528445 -0.000153081
8.47033e-22 -0.00312109 0.0503332 -0.00157162 0.00276507 0.00038447
0 0.00374526 0.0503278 -0.00790077 0.00561656 -0.00017578
0 -0.00374526 0.0503278 -0.000740183 0.0026154 0.0004155
5.92923e-21 0.00374533 0.0503334 -0.00790454 0.00566092 -0.000178063
-8.47033e-22 -0.00374533 0.0503334 -0.000594213 0.00263406 0.000432342
0 0.00593591 0.0501252 -0.00866915 0.00404006 -4.02871e-05
5.42101e-20 -0.00593591 0.0501252 -0.00644235 0.00108221 -0.000583508
1.69407e-21 0.00748281 0.049924 0 0 0
0 -0.00748281 0.049924 0 0 0
-3.38813e-21 -0.00749765 0.049924 0 0 0
0 0.00749765 0.049924 0 0 0
1.69407e-21 -0.00751258 0.0499239 0 0 0
0 0.00751258 0.0499239 0 0 0
0 -0.00748294 0.0499333 -0.000274996 2.83111e-05 -5.36045e-05
0 0.00748294 0.0499333 -0.000414562 0.000232921 2.86824e-06
1.69407e-21 -0.00751247 0.0499332 -0.000267205 1.81702e-05 -6.00989e-05
-1.69407e-21 0.00751247 0.0499332 -0.000415689 0.000243556 6.54041e-06
0 0.00436948 0.0503269 -0.00823578 0.00595153 -0.000170681
0 -0.00436948 0.0503269 2.20615e-05 0.00243585 0.000451979
-9.31736e-21 0.00436958 0.0503334 -0.00824474 0.00600603 -0.000172281
-8.47033e-22 -0.00436958 0.0503334 0.000210961 0.00245919 0.000476423
2.71051e-20 0.00656072 0.0501246 -0.00872497 0.00424578 -6.7814e-05
-2.71051e-20 -0.00656072 0.0501246 -0.0063273 0.000992472 -0.000692725
0 -0.000312474 0.0505592 -0.00251824 0.0048615 0.000137894
2.71051e-20 0.000312474 0.0505592 -0.00307953 0.00529599 9.80611e-05
0 0.000937423 0.0505591 -0.00368895 0.00575772 7.04307e-05
-2.71051e-20 -0.000937423 0.0505591 -0.0017017 0.00448634 0.000175369
7.05861e-22 -0.00499923 0.0503295 0.00103779 0.00235286 0.000548427
-2.82344e-22 0.00499923 0.0503295 -0.0085898 0.00628629 -0.000150816
0 0.0081058 0.049924 0 0 0
3.38813e-21 -0.0081058 0.049924 0 0 0
0 0.00812243 0.0499239 0 0 0
0 -0.00812243 0.0499239 0 0 0
0 -0.00813919 0.0499236 0 0 0
-3.38813e-21 0.00813919 0.0499236 0 0 0
5.42101e-20 0.00156235 0.0505589 -0.00444222 0.00620551 -6.55906e-06
-5.42101e-20 -0.00156235 0.0505589 -0.000579442 0.00425072 0.000342803
0 -0.00810604 0.0499343 -0.00029752 2.02316e-05 -6.69172e-05
0 0.00810604 0.0499343 -0.000462848 0.000271187 7.28241e-06
0 -0.00813897 0.0499341 -0.000294546 7.92272e-06 -7.41828e-05
-3.38813e-21 0.00813897 0.0499341 -0.000463012 0.000280347 1.37738e-05
2.71051e-20 -0.00218727 0.0505586 0.00131185 0.00407862 0.000563274
2.71051e-20 0.00218727 0.0505586 -0.00547087 0.006619 -0.000127646
-2.71051e-20 0.00718552 0.0501238 -0.00874504 0.00449238 -4.58955e-05
-2.71051e-20 -0.00718552 0.0501238 -0.00618355 0.000863829 -0.000809583
2.71051e-20 -0.0028122 0.0505583 0.00293797 0.00391537 0.000786109
2.71051e-20 0.0028122 0.0505583 -0.00628955 0.00706279 -0.000278663
1.41172e-22 -0.00562411 0.0503286 0.0023375 0.00236064 0.000679836
2.82344e-22 0.00562411 0.0503286 -0.00894382 0.00655163 -0.000132051
0 -0.00343715 0.0505579 0.00479734 0.00383453 0.0009869
0 0.00343715 0.0505579 -0.00702178 0.00758999 -0.000334339
0 0.00872861 0.0499238 0 0 0
0 -0.00872861 0.0499238 0 0 0
0 0.00874717 0.0499235 0 0 0
0 -0.00874717 0.0499235 0 0 0
0 -0.00876588 0.0499233 0 0 0
-3.38813e-21 0.00876588 0.0499233 0 0 0
0 -0.00872902 0.0499353 -0.000326177 8.77356e-06 -8.21494e-05
0 0.00872902 0.0499353 -0.000512738 0.000310456 1.5253e-05
0 -0.0087655 0.0499349 -0.000305924 4.33853e-06 -8.76711e-05
0 0.0087655 0.0499349 -0.000514401 0.000320597 2.32091e-05
4.23516e-22 -0.00624897 0.0503277 0.0036939 0.00239155 0.000832075
-4.23516e-22 0.00624897 0.0503277 -0.00923886 0.00685402 -0.000130009
0 -0.00406216 0.0505573 0.00659483 0.00366965 0.00118405
2.71051e-20 0.00406216 0.0505573 -0.00763619 0.00811452 -0.000343568
-2.71051e-20 0.00781068 0.050122 -0.00873672 0.00470859 -4.30901e-06
0 -0.00781068 0.050122 -0.0060696 0.000631916 -0.000942327
0 0.00468717 0.0505565 -0.0082555 0.00858047 -0.000298733
-2.71051e-20 -0.00468717 0.0505565 0.00789422 0.00350525 0.00135273
8.19426e-24 -5.59832e-07 0.0507876 0.0228948 0.00701619 0.00528675
-1.09055e-20 0.000624757 0.0507873 0.0212281 0.00718796 0.0049099
2.64698e-23 -0.000624757 0.0507873 0.024795 0.00688107 0.00571375
0 0.00935138 0.0499235 0 0 0
-3.38813e-21 -0.00935138 0.0499235 0 0 0
0 0.00687386 0.0503267 -0.00946195 0.00722897 -0.000112456
1.41172e-22 -0.00687386 0.0503267 0.00495042 0.00241453 0.000986953
0 0.00937186 0.0499232 0 0 0
0 -0.00937186 0.0499232 0 0 0
0 -0.00939252 0.0499229 0 0 0
0 0.00939252 0.0499229 0 0 0
8.36445e-21 0.0012495 0.0507871 0.0195146 0.00736638 0.00454467
0 -0.0012495 0.0507871 0.0269468 0.006813 0.00620018
0 -0.009352 0.0499362 -0.000334725 4.74699e-06 -9.59249e-05
0 0.009352 0.0499362 -0.000562828 0.000350779 2.53941e-05
0 -0.00939192 0.0499358 -0.000298546 7.31615e-06 -0.000100018
3.38813e-21 0.00939192 0.0499358 -0.000564808 0.00036208 3.3441e-05
-6.56451e-21 0.00187424 0.0507867 0.017492 0.00751168 0.00412759
-1.05879e-22 -0.00187424 0.0507867 0.0294791 0.00682544 0.00674722
-2.71051e-20 0.00843563 0.0501187 -0.0087323 0.0048823 7.44258e-05
-2.71051e-20 -0.00843563 0.0501187 -0.00604096 0.000403936 -0.00106204
0 0.00531212 0.0505554 -0.00892368 0.00899007 -0.000258568
0 -0.00531212 0.0505554 0.0099735 0.00355395 0.00167822
1.30231e-20 0.00249898 0.0507863 0.015481 0.00767226 0.00368679
-1.05879e-22 -0.00249899 0.0507878 0.032144 0.00687425 0.00730131
2.82344e-22 0.00749889 0.0503253 -0.00965286 0.00762604 -4.94295e-05
2.82344e-22 -0.00749889 0.0503253 0.00624751 0.00238513 0.00115179
5.92923e-21 0.00312374 0.0507859 0.0137563 0.007923 0.0033085
-2.11758e-22 -0.00312595 0.0507876 0.0347894 0.00697763 0.00786289
2.71051e-20 -0.00593703 0.0505542 0.0128085 0.00370527 0.0021144
-2.71051e-20 0.00593703 0.0505542 -0.00956389 0.00938292 -0.000209566
0 0.00997412 0.049923 0 0 0
-3.38813e-21 -0.00997412 0.049923 0 0 0
0 0.00999652 0.0499227 0 0 0
0 -0.00999652 0.0499227 0 0 0
3.38813e-21 -0.0100191 0.0499224 0 0 0
0 0.0100191 0.0499224 0 0 0
0 -0.00997499 0.0499369 -0.000323674 7.93192e-06 -0.000108436
3.38813e-21 0.00997499 0.0499369 -0.000612347 0.000392556 3.62557e-05
6.56451e-21 0.00374859 0.0507874 0.0121595 0.00821798 0.00300529
-2.11758e-22 -0.00374857 0.0507854 0.0375921 0.00709988 0.00844913
5.42101e-20 0.00906035 0.0501147 -0.00876318 0.00505421 0.000163621
2.71051e-20 -0.00906035 0.0501147 -0.00577039 0.00032228 -0.00116658
0 -0.0100183 0.0499364 -0.000292247 1.0418e-05 -0.000112456
3.38813e-21 0.0100183 0.0499364 -0.000615556 0.000406956 4.37221e-05
-2.75286e-20 0.00437348 0.0507848 0.0105896 0.00848571 0.0027478
0 -0.00437348 0.0507848 0.0400434 0.00715411 0.0090094
-2.82344e-22 0.00812397 0.0503229 -0.0098437 0.00799374 5.0828e-05
-2.82344e-22 -0.00812397 0.0503229 0.00740683 0.00228961 0.00132275
0 -0.00656193 0.0505529 0.0151126 0.0038396 0.00253326
0 0.00656193 0.0505529 -0.009999 0.00986708 -0.000211649
-1.05879e-21 0.0050014 0.050784 0.0088594 0.00870536 0.00249112
0 -0.0050014 0.050784 0.042559 0.0072632 0.009619
3.38813e-21 0.0105968 0.0499225 0 0 0
0 -0.0105968 0.0499225 0 0 0
0 -0.00968503 0.0501107 -0.00534207 0.000330207 -0.00126167
0 0.00968503 0.0501107 -0.00880057 0.00523051 0.000246773
0 0.0106212 0.0499222 0 0 0
0 -0.0106212 0.0499222 0 0 0
3.38813e-21 -0.0106459 0.0499218 0 0 0
0 0.0106459 0.0499218 0 0 0
0 -0.0105979 0.0499376 -0.000315257 1.12382e-05 -0.00012131
3.38813e-21 0.0105979 0.0499376 -0.000664024 0.000438999 4.71647e-05
0 -0.000312515 0.0510505 0.0509125 0.00908432 0.0110282
-2.71051e-20 0.000312515 0.0510505 0.0480644 0.00895885 0.0102449
0 -0.000937516 0.0510504 0.054367 0.00924472 0.0119009
-2.71051e-20 0.000937516 0.0510504 0.0453497 0.00885767 0.00956673
-6.77626e-21 -0.0106448 0.0499371 -0.000272609 1.62746e-05 -0.000125291
0 0.0106448 0.0499371 -0.00066677 0.000458023 5.5738e-05
2.71051e-20 -0.00718694 0.0505514 0.017616 0.00401924 0.00296722
0 0.00718694 0.0505514 -0.0103863 0.0104377 -0.000133781
0 0.00156252 0.0510502 0.0425027 0.00874519 0.00886766
5.42101e-20 -0.00156252 0.0510502 0.0576561 0.00943722 0.0127932
2.82344e-22 0.00874889 0.0503198 -0.0100739 0.00833813 0.00017929
2.82344e-22 -0.00874889 0.0503198 0.00875556 0.00227501 0.00154904
4.44692e-21 0.00562641 0.0507831 0.00705601 0.0089036 0.00222966
-2.11758e-22 -0.00562639 0.0507855 0.0457762 0.00749251 0.0103398
2.71051e-20 0.0021875 0.05105 0.0389687 0.00855944 0.00807599
0 -0.0021875 0.05105 0.0615495 0.00971553 0.0137235
0 0.00281248 0.0510497 0.0362315 0.00851311 0.007356
2.71051e-20 -0.00281248 0.0510497 0.0648519 0.0099809 0.0145859
0 -0.00781204 0.0505494 0.0200716 0.00408388 0.00344686
0 0.00781204 0.0505494 -0.0107568 0.010998 -2.19423e-05
-2.71051e-20 0.0103097 0.0501065 -0.00884855 0.00543611 0.000321341
-5.42101e-20 -0.0103097 0.0501065 -0.00502374 0.000328498 -0.00133655
0 0.0034375 0.0510494 0.0335586 0.00857676 0.0067515
5.42101e-20 -0.0034375 0.0510494 0.0687046 0.0103878 0.0155681
-6.56451e-21 0.0062514 0.0507821 0.00561396 0.00919035 0.00199957
-2.11758e-22 -0.00624826 0.0507821 0.0489932 0.00774516 0.0110573
3.38813e-21 0.0112196 0.0499219 0 0 0
0 -0.0112196 0.0499219 0 0 0
0 0.0112461 0.0499215 0 0 0
0 -0.0112461 0.0499215 0 0 0
3.38813e-21 -0.0112729 0.0499208 0 0 0
3.38813e-21 0.0112729 0.0499208 0 0 0
2.82344e-22 0.00937369 0.0503164 -0.0103385 0.00868152 0.000306522
0 -0.00937369 0.0503164 0.0105745 0.0024104 0.00185598
0 -0.011221 0.0499383 -0.000293092 1.74974e-05 -0.000134705
3.38813e-21 0.011221 0.0499383 -0.000716867 0.000492436 5.99259e-05
3.38813e-21 -0.0112717 0.0499376 -0.000258238 2.11312e-05 -0.000140782
0 0.0112717 0.0499376 -0.000725034 0.000517315 6.55008e-05
2.71051e-20 0.00406254 0.051049 0.0311373 0.00862661 0.00619129
0 -0.00406254 0.051049 0.0724855 0.0107338 0.0165611
1.07997e-20 0.00687321 0.050781 0.00453352 0.00962207 0.00184362
2.11758e-22 -0.00687321 0.050781 0.052024 0.00801767 0.011775
0 -0.0084371 0.0505468 0.022128 0.00409553 0.00390597
-2.71051e-20 0.0084371 0.0505468 -0.0111692 0.0115228 0.000148884
-2.71051e-20 -0.00468758 0.0510484 0.0754647 0.0109477 0.0174653
0 0.00468758 0.0510484 0.0284431 0.00864299 0.00566681
-2.71051e-20 0.0109344 0.050102 -0.00886761 0.00566211 0.000411588
0 -0.0109344 0.050102 -0.00459638 0.000327826 -0.00140704
0 0.0118408 0.0499059 0 0 0
-3.38813e-21 -0.0118408 0.0499059 0 0 0
-2.82344e-22 -0.00999845 0.0503128 0.0123553 0.00258935 0.00217564
-5.64689e-22 0.00999845 0.0503128 -0.0106045 0.00904748 0.000414185
0 0.0118708 0.0499051 0 0 0
0 -0.0118708 0.0499051 0 0 0
0 -0.0119011 0.0499042 0 0 0
0 0.0119011 0.0499042 0 0 0
0 -0.0118427 0.0499246 -0.000288419 2.36009e-05 -0.000157236
0 0.0118427 0.0499246 -0.000809773 0.000577776 7.31563e-05
5.04063e-25 -2.59356e-06 0.0513141 0.0902852 0.0134592 0.0203827
-1.11504e-20 0.000625038 0.0513141 0.0872351 0.0132421 0.0195014
0 -0.000625037 0.0513141 0.0937241 0.0137017 0.0213869
3.38813e-21 -0.0118997 0.0499236 -0.000278682 2.8184e-05 -0.000162299
0 0.0118997 0.0499236 -0.000821666 0.000603488 7.90937e-05
0 -0.00531259 0.0510477 0.0792149 0.0112957 0.0185261
5.42101e-20 0.00531259 0.0510477 0.0254251 0.00861628 0.00505917
-2.28567e-20 0.00125006 0.051314 0.0842617 0.0130484 0.0187034
0 -0.00125006 0.051314 0.0972918 0.0139361 0.0224152
-9.31736e-21 0.00750152 0.0507797 0.00346418 0.0100931 0.00174701
0 -0.00750152 0.0507797 0.0552466 0.00828967 0.0125846
3.1327e-20 0.00187505 0.0513139 0.0809519 0.0128315 0.0178634
0 -0.00187505 0.0513139 0.100822 0.01417 0.0233916
0 -0.00906201 0.0505439 0.0251797 0.00433286 0.00457785
0 0.00906201 0.0505439 -0.0116582 0.0120312 0.000326401
2.92954e-20 0.00249999 0.0513138 0.0776462 0.0126352 0.0169945
0 -0.00249999 0.0513138 0.104221 0.014423 0.0243104
0 -0.00593757 0.0510468 0.0834671 0.0116733 0.019608
0 0.00593757 0.0510468 0.0224572 0.0086213 0.00451175
-2.19666e-20 0.003125 0.0513136 0.0746303 0.0125121 0.0161599
0 -0.00312504 0.0513136 0.107615 0.0147349 0.0252569
-2.71051e-20 0.0115601 0.050095 -0.00888793 0.00588437 0.000483421
-2.71051e-20 -0.0115601 0.050095 -0.0042463 0.000273414 -0.00150881
2.82344e-22 0.0106233 0.050309 -0.0108421 0.00944323 0.000514398
-2.82344e-22 -0.0106233 0.050309 0.0140826 0.00278181 0.00251745
3.38813e-21 0.0124615 0.0498891 0 0 0
-3.38813e-21 -0.0124615 0.0498891 0 0 0
1.35525e-20 0.00812336 0.050778 0.002314 0.0105257 0.00167906
-2.11758e-22 -0.0081266 0.050778 0.0583948 0.00849241 0.0134546
0 0.0124952 0.0498882 0 0 0
0 -0.0124952 0.0498882 0 0 0
1.65436e-24 -0.0034696 0.0513135 0.109639 0.0149383 0.0258369
-1.65436e-24 0.00346995 0.0513135 0.0730188 0.0124516 0.0157293
3.38813e-21 -0.0125295 0.0498873 0 0 0
0 0.0125295 0.0498873 0 0 0
0 -0.0124637 0.0499106 -0.000309765 3.13276e-05 -0.000180401
3.38813e-21 0.0124637 0.0499106 -0.000913312 0.000670799 8.79155e-05
1.19114e-22 -0.00375005 0.0513076 0.111153 0.0150892 0.0262765
-1.65436e-24 0.00375004 0.0513134 0.0716019 0.0123948 0.0153571
-6.77626e-21 -0.0125278 0.0499095 -0.000267382 4.10782e-05 -0.000178229
0 0.0125278 0.0499095 -0.000925586 0.000696073 9.35647e-05
-2.71051e-20 -0.00968685 0.0505408 0.0287186 0.00470972 0.00533541
5.42101e-20 0.00968685 0.0505408 -0.0121656 0.0125462 0.000487882
-2.71051e-20 0.00656256 0.051046 0.0206628 0.00887771 0.00407484
0 -0.00656256 0.051046 0.086973 0.012027 0.0205561
-1.32349e-23 -0.00437508 0.0512871 0.110954 0.014987 0.0264445
1.45584e-22 0.00437508 0.0512871 0.065912 0.0120856 0.0140633
0 -0.00312502 0.0513812 0.116079 0.0156421 0.0274056
-6.61744e-24 0.00312502 0.0513812 0.0837646 0.0134618 0.0183368
3.46754e-21 -0.00437502 0.051313 0.114629 0.0153928 0.0273478
3.0877e-20 0.00437502 0.051313 0.0687796 0.0122724 0.0146499
-7.94093e-23 -0.0050001 0.0512608 0.110499 0.0148335 0.0265488
0 0.0050001 0.0512608 0.0599763 0.0117901 0.0127861
3.30872e-24 -0.00250002 0.0514534 0.122028 0.0163415 0.0288051
6.61744e-24 0.00250002 0.0514536 0.0965782 0.0146286 0.0215416
-1.73642e-20 0.00874847 0.0507785 0.00102899 0.0109378 0.00162573
0 -0.00875153 0.0507785 0.0617826 0.00871879 0.0143814
1.58819e-22 -0.00562508 0.0512318 0.110093 0.0146787 0.0265722
0 0.00562508 0.0512318 0.0537099 0.0115 0.0114603
0 -0.00187502 0.0515104 0.126055 0.0168964 0.0297196
6.61744e-24 0.00187502 0.0515106 0.107306 0.0156214 0.0242327
0 0.0121849 0.0500854 -0.00890826 0.00606235 0.000585269
-2.71051e-20 -0.0121849 0.0500854 -0.00411706 0.000239812 -0.00159945
2.82344e-22 0.0112484 0.0503042 -0.0110385 0.009845 0.000612274
0 -0.0112484 0.0503042 0.0159707 0.00297691 0.00289847
2.71051e-20 0.00718759 0.0510449 0.0189076 0.00928842 0.00379955
0 -0.00718759 0.0510449 0.0908191 0.0124574 0.021643
1.94553e-20 -0.00500028 0.0513129 0.117913 0.0156595 0.028396
2.64698e-23 0.00499996 0.0513126 0.0655569 0.0121274 0.0139103
0 0.0130819 0.0498724 0 0 0
6.77626e-21 -0.0130819 0.0498724 0 0 0
6.77626e-21 0.0131198 0.0498714 0 0 0
6.77626e-21 -0.0131198 0.0498714 0 0 0
0 -0.00125003 0.0515605 0.129476 0.0174174 0.0304355
-6.61744e-24 0.00125003 0.051561 0.117337 0.016565 0.0267513
-6.77626e-21 -0.0131584 0.0498703 0 0 0
0 0.0131584 0.0498703 0 0 0
0 -0.0103117 0.0505375 0.0315699 0.00504268 0.00602786
5.42101e-20 0.0103117 0.0505375 -0.0126417 0.0131124 0.00060173
0 -0.0130844 0.0498969 -0.000296459 4.55454e-05 -0.000197611
0 0.0130844 0.0498969 -0.00102624 0.00077177 0.00010374
-5.29396e-23 -0.00625005 0.0512045 0.10975 0.0145421 0.0265611
0 0.00625005 0.0512046 0.048277 0.0113561 0.0102802
0 -0.000625016 0.0515958 0.130629 0.0176839 0.0305274
0 0.000625016 0.0515971 0.12475 0.0172512 0.0286815
6.77626e-21 -0.0131564 0.0498957 -0.000241516 4.88195e-05 -0.000192934
0 0.0131564 0.0498957 -0.00103734 0.000797897 0.000107733
2.71051e-20 -0.000312512 0.0516082 0.134115 0.018179 0.0310287
-2.71051e-20 0.000312512 0.0516082 0.130646 0.0178974 0.0298489
2.71051e-20 0.000937538 0.0516081 0.127464 0.0175311 0.028957
-2.71051e-20 -0.000937538 0.0516081 0.138124 0.0185882 0.0322229
0 -0.00562539 0.051312 0.121641 0.0159687 0.0294861
0 0.00562485 0.051312 0.0620907 0.0119673 0.0131189
2.71051e-20 0.00156253 0.0516081 0.1243 0.0173307 0.0280269
0 -0.00156253 0.0516081 0.141656 0.0187673 0.0333866
-2.58345e-20 0.00937344 0.0507739 -0.000298302 0.0113704 0.00157307
-2.11758e-22 -0.00937642 0.0507738 0.0655335 0.00903354 0.0153161
-2.71051e-20 0.00781266 0.0510437 0.0170882 0.00962592 0.00348582
0 -0.00781266 0.0510437 0.0949465 0.012881 0.0229014
0 -0.00687505 0.0511805 0.109669 0.0144813 0.0266448
-5.29396e-23 0.00687505 0.0511805 0.0438414 0.0114128 0.00932289
0 0.00218755 0.051608 0.120592 0.0169573 0.0270801
5.42101e-20 -0.00218755 0.051608 0.145056 0.0190526 0.0343089
-5.64689e-22 0.0118736 0.0502978 -0.0112121 0.0102164 0.00072594
0 -0.0118736 0.0502978 0.0176416 0.00312561 0.00327187
2.71051e-20 0.00281255 0.0516078 0.117322 0.0167713 0.0260526
-2.71051e-20 -0.00281255 0.0516078 0.148033 0.019233 0.0352675
2.71051e-20 -0.0128095 0.0500754 -0.00370378 0.000278121 -0.00162773
0 0.0128095 0.0500754 -0.00892416 0.00621545 0.000683198
4.65868e-21 -0.0062505 0.0513121 0.125204 0.0162708 0.030504
0 0.00624972 0.0513121 0.059135 0.0119087 0.0123884
-2.71051e-20 -0.0109367 0.0505339 0.0348886 0.00548339 0.00684694
2.71051e-20 0.0109367 0.0505339 -0.0130525 0.0136977 0.000726647
6.77626e-21 0.0137016 0.0498556 0 0 0
6.77626e-21 -0.0137016 0.0498556 0 0 0
1.05879e-22 -0.0075001 0.0511575 0.109983 0.0144684 0.0268906
0 0.0075001 0.0511576 0.0396215 0.0115218 0.00847972
-6.77626e-21 0.0137443 0.0498545 0 0 0
0 -0.0137443 0.0498545 0 0 0
2.71051e-20 0.00343756 0.0516077 0.11391 0.016439 0.0250533
-2.71051e-20 -0.00343756 0.0516077 0.15146 0.019626 0.036251
0 -0.0137879 0.0498533 0 0 0
0 0.0137879 0.0498533 0 0 0
0 -0.0137045 0.0498836 -0.000267823 5.41371e-05 -0.00021395
0 0.0137045 0.0498836 -0.00115033 0.000884806 0.000119468
0 0.00843772 0.0510423 0.0150346 0.0099277 0.00323166
-5.42101e-20 -0.00843772 0.0510423 0.0989644 0.0132048 0.0242112
2.11758e-22 0.00999837 0.0507715 -0.00149463 0.0118775 0.00152745
-2.11758e-22 -0.0100013 0.0507738 0.0689682 0.00938673 0.0161861
0 -0.0137855 0.0498824 -0.000201066 6.36689e-05 -0.000206963
0 0.0137855 0.0498824 -0.00116516 0.000918154 0.000120464
2.71051e-20 0.0040626 0.0516075 0.110693 0.0162073 0.0240794
2.71051e-20 -0.0040626 0.0516075 0.155063 0.0199535 0.0375011
1.05879e-22 -0.00687565 0.0513107 0.128566 0.0166 0.0315185
-1.05879e-22 0.00687565 0.0513116 0.0567352 0.0120021 0.0117771
-2.11758e-22 -0.00812515 0.0511321 0.109991 0.014356 0.0271146
0 0.00812515 0.0511321 0.0352103 0.0116093 0.00765938
2.71051e-20 0.00468763 0.0516072 0.107261 0.0158418 0.0232035
5.42101e-20 -0.00468763 0.0516072 0.158055 0.0202217 0.0385116
-2.82344e-22 -0.0124985 0.0502903 0.0192812 0.00326875 0.00366925
0 0.0124985 0.0502903 -0.0113917 0.010545 0.000869271
0 -0.0115618 0.0505295 0.0383488 0.00588164 0.00772221
0 0.0115618 0.0505295 -0.0133902 0.0142728 0.000834117
0 -0.0134342 0.0500653 -0.00322941 0.000290977 -0.0016304
0 0.0134342 0.0500653 -0.00891866 0.00634752 0.000756986
-5.42101e-20 0.00906271 0.0510407 0.0127895 0.0102351 0.00291001
5.42101e-20 -0.00906271 0.0510407 0.10345 0.0135458 0.0255021
1.05879e-22 -0.00875017 0.0511035 0.109668 0.0141468 0.0271924
0 0.00875017 0.0511035 0.0305298 0.0117167 0.0068506
0 -0.00750083 0.0513099 0.132198 0.016976 0.0326957
0 0.00749953 0.051311 0.0543062 0.0121043 0.0112152
0 0.0143207 0.049839 0 0 0
0 -0.0143207 0.049839 0 0 0
0 0.0143689 0.0498377 0 0 0
6.77626e-21 -0.0143689 0.0498377 0 0 0
-1.99053e-20 0.0106232 0.0507689 -0.00249558 0.0124656 0.00152193
0 -0.0106232 0.0507689 0.0723404 0.00978393 0.017124
-2.71051e-20 0.00531265 0.0516068 0.103473 0.0156283 0.0222385
-2.71051e-20 -0.00531265 0.0516068 0.161456 0.0204562 0.0397302
0 -0.014418 0.0498363 0 0 0
6.77626e-21 0.014418 0.0498363 0 0 0
0 -0.0143242 0.049871 -0.000222426 7.04324e-05 -0.000228948
0 0.0143242 0.049871 -0.00128893 0.00101569 0.000133261
3.74816e-25 6.76043e-07 0.0519027 0.168391 0.0218521 0.039611
-3.82654e-20 -0.000625034 0.0519027 0.170849 0.0220238 0.0404889
-3.30872e-24 0.00062499 0.0519027 0.165258 0.0215801 0.0385937
6.77626e-21 -0.0144152 0.0498696 -9.29848e-05 9.25036e-05 -0.000221312
6.77626e-21 0.0144152 0.0498696 -0.0013149 0.00106222 0.000134468
0 -0.00125006 0.0519027 0.174166 0.0222512 0.041572
0 0.00125006 0.0519027 0.163092 0.0214297 0.0378843
-2.11758e-22 -0.00937512 0.0510757 0.109514 0.0139657 0.0271866
0 0.00937512 0.0510757 0.0260585 0.0118965 0.00610599
1.21893e-20 -0.00187495 0.0519025 0.176419 0.022338 0.0423498
0 0.00187509 0.0519025 0.159807 0.0211793 0.0369215
2.71051e-20 0.00593765 0.0516065 0.0993355 0.0152135 0.0211766
0 -0.00593765 0.0516065 0.164939 0.020729 0.0407287
1.05879e-22 -0.00812604 0.0513089 0.135939 0.0173048 0.033983
1.05879e-22 0.00812604 0.0513104 0.0517658 0.0121574 0.0106704
5.42101e-20 0.00968766 0.051039 0.0106616 0.010631 0.00266822
0 -0.00968766 0.051039 0.107409 0.0138511 0.0265352
6.8292e-21 -0.00250013 0.0519027 0.179311 0.0225129 0.0432638
-1.32349e-23 0.00250013 0.0519025 0.157409 0.0210336 0.036152
-2.82344e-22 -0.0131232 0.0502825 0.0210155 0.00342543 0.00408421
5.64689e-22 0.0131232 0.0502825 -0.0115748 0.0108348 0.00100236
0 0.0121869 0.0505245 -0.0137197 0.0148069 0.00101105
-2.71051e-20 -0.0121869 0.0505245 0.0411961 0.0061837 0.00855387
0 0.0140588 0.050055 -0.00891859 0.00651082 0.000801472
0 -0.0140588 0.050055 -0.00270687 0.000360789 -0.00160861
0 -0.00312516 0.0519024 0.181385 0.0226415 0.0439843
2.64698e-23 0.00312516 0.0519024 0.154157 0.020781 0.0351134
2.0117e-20 0.0112482 0.0507658 -0.00332627 0.0130921 0.0015505
-2.11758e-22 -0.0112516 0.0507658 0.0760721 0.0102168 0.0181943
-6.77626e-21 0.0149395 0.0498223 0 0 0
6.77626e-21 -0.0149395 0.0498223 0 0 0
2.71051e-20 0.00656266 0.0516061 0.0963499 0.0151199 0.0202809
2.71051e-20 -0.00656266 0.0516061 0.167912 0.0209274 0.0417676
0 -0.01 0.0510557 0.11015 0.0139681 0.027386
0 0.01 0.0510558 0.0225897 0.0122044 0.00554489
0 0.0149933 0.0498208 0 0 0
6.77626e-21 -0.0149933 0.0498208 0 0 0
-1.45584e-20 -0.00375023 0.0519022 0.184484 0.0229153 0.0450383
0 0.00374987 0.0519026 0.151867 0.0206151 0.0343254
-6.77626e-21 -0.0150481 0.0498193 0 0 0
6.77626e-21 0.0150481 0.0498193 0 0 0
1.05879e-20 -0.00875124 0.0513096 0.139782 0.0175605 0.0352474
0 0.00875123 0.0513079 0.0490959 0.0122104 0.0101406
6.77626e-21 -0.0149436 0.0498585 -0.000101795 0.000101269 -0.000242282
-1.35525e-20 0.0149436 0.0498585 -0.00143949 0.00116287 0.000147209
0 0.0103126 0.0510372 0.00893972 0.0111809 0.00244127
2.71051e-20 -0.0103126 0.0510372 0.110828 0.0142507 0.0275449
0 -0.0150448 0.0498569 -4.74019e-05 0.000117595 -0.000241481
-6.77626e-21 0.0150448 0.0498569 -0.00147781 0.00122599 0.000148368
2.94344e-20 -0.0043753 0.0519021 0.186649 0.0230509 0.0458959
0 0.00437483 0.0519025 0.148572 0.0203251 0.0333535
-2.71051e-20 0.00718768 0.0516056 0.093225 0.0149052 0.0194242
-2.71051e-20 -0.00718768 0.0516056 0.171006 0.0212571 0.0427488
0 -0.0128118 0.050519 0.0444722 0.00646652 0.00945548
-2.71051e-20 0.0128118 0.050519 -0.0140869 0.0152805 0.00121132
1.69407e-21 -0.013748 0.0502746 0.0227249 0.0036153 0.00452722
-5.64689e-22 0.013748 0.0502746 -0.0117466 0.0111182 0.00108808
8.89385e-21 0.0118729 0.0507622 -0.00411379 0.0137192 0.00161018
-4.23516e-22 -0.011877 0.0507655 0.0796337 0.0105909 0.0192916
2.8905e-20 -0.00500037 0.0519024 0.189457 0.0232293 0.0469142
-5.29396e-23 0.00499979 0.0519018 0.146042 0.0201602 0.0326296
0 -0.0106251 0.0510497 0.112779 0.0142462 0.0282083
0 0.0106251 0.0510497 0.0205902 0.0126264 0.00525538
2.71051e-20 0.0146836 0.0500442 -0.00895742 0.00674258 0.000842053
0 -0.0146836 0.0500442 -0.00189438 0.000479548 -0.00158964
0 -0.00937639 0.0513067 0.14346 0.0177728 0.036347
0 0.00937413 0.0513088 0.0464179 0.012307 0.00960956
0 0.0155585 0.0498055 0 0 0
0 -0.0155585 0.0498055 0 0 0
0 0.00781273 0.0516051 0.0901474 0.0147648 0.0186023
0 -0.00781273 0.0516051 0.174436 0.0215735 0.0441293
0 0.0109377 0.0510351 0.00750228 0.0118334 0.00239908
-2.71051e-20 -0.0109377 0.0510351 0.114747 0.014668 0.0287873
0 0.0156176 0.0498039 0 0 0
0 -0.0156176 0.0498039 0 0 0
-2.48816e-21 -0.00562545 0.0519017 0.19171 0.0233317 0.0477441
0 0.00562545 0.0519017 0.142254 0.019864 0.0315957
0 -0.0156777 0.0498022 0 0 0
-6.77626e-21 0.0156777 0.0498022 0 0 0
0 -0.000300839 0.0522172 0.205515 0.0259845 0.049192
-5.42101e-20 0.000300839 0.0522172 0.203012 0.0253182 0.0483043
6.77626e-21 -0.0155632 0.0498457 -5.10711e-05 0.000126698 -0.000260173
-6.77626e-21 0.0155632 0.0498457 -0.0015922 0.00132089 0.000159853
-2.71051e-20 0.000949183 0.0522172 0.201484 0.0257419 0.0476644
2.71051e-20 -0.000949183 0.0522172 0.207152 0.0255019 0.0498974
-5.42101e-20 0.00155086 0.0522172 0.198826 0.0250836 0.0468147
2.71051e-20 -0.00155086 0.0522172 0.209461 0.0261193 0.0507121
6.77626e-21 -0.0156739 0.0498438 5.83733e-05 0.000169988 -0.000243961
-6.77626e-21 0.0156739 0.0498438 -0.0016289 0.00138822 0.000164849
2.71051e-20 0.00219919 0.0522171 0.197132 0.0255205 0.046171