# U  POINT_DATA 50372
# x  y  z  U_x  U_y  U_z
0.0101542 -2.71051e-20 1.02364e-07 0 0 0
-0.0101542 2.71051e-20 1.02364e-07 0 0 0
0.0101542 1.35525e-20 0.000172997 0 0 0
-0.0101542 -1.35525e-20 0.000173028 0 0 0
0.0101542 0 0.000494703 0 0 0
-0.0101542 -1.35525e-20 0.000494789 0 0 0
0.0101542 0 0.000670046 0 0 0
-0.0101542 -1.35525e-20 0.000670165 0 0 0
0.0101542 -1.35525e-20 0.000852458 0 0 0
-0.0101542 1.35525e-20 0.000852582 0 0 0
0.0101542 -2.71051e-20 0.00118307 0 0 0
-0.0101542 -1.35525e-20 0.00118319 0 0 0
0.0101542 0 0.00136546 0 0 0
-0.0101542 0 0.00136559 0 0 0
0.0102699 2.71051e-20 0.000142058 -0.000178372 0.000931466 -1.27473e-05
-0.0102699 -1.35525e-20 0.000142083 1.11546e-06 -5.62165e-06 -1.19362e-08
0.0101542 -1.35525e-20 0.00155417 0 0 0
-0.0101542 0 0.00155427 0 0 0
-0.0102737 0 9.61397e-08 0 0 0
0.0102737 -2.71051e-20 9.61398e-08 0 0 0
0.0102733 -1.35525e-20 0.000515395 -0.00018371 0.000959341 -1.31287e-05
-0.0102733 -1.35525e-20 0.000515489 1.14886e-06 -5.78995e-06 -1.22935e-08
0.0102675 0 0.00080711 -0.000382337 0.00207319 -2.54692e-05
-0.0102675 0 0.000807229 1.23598e-05 -6.3657e-05 4.28011e-07
0.0101542 0 0.00190096 0 0 0
-0.0101542 0 0.00190099 0 0 0
0.0102675 1.35525e-20 0.00119419 -0.0003824 0.00207354 -2.54735e-05
-0.0102675 1.35525e-20 0.00119431 1.23621e-05 -6.36686e-05 4.28089e-07
0.0102594 -1.35525e-20 0.00147517 -0.000335294 0.00182934 8.70039e-06
-0.0102594 -1.35525e-20 0.00147528 1.21707e-05 -6.19519e-05 2.49184e-07
0.0101542 2.71051e-20 0.002087 0 0 0
-0.0101542 -2.71051e-20 0.002087 0 0 0
0.0104134 -1.35525e-20 0.000325113 -0.000392515 0.00202909 -2.74603e-05
-0.0104134 0 0.000325172 2.44251e-06 -1.30305e-05 1.26062e-09
0.0102564 0 0.00187922 -0.000325644 0.0017767 8.45001e-06
-0.0102564 -1.35525e-20 0.00187926 1.18202e-05 -6.01674e-05 2.42006e-07
0.010404 -2.71051e-20 0.000979256 -0.000847456 0.00460997 -6.71547e-05
-0.010404 0 0.000979372 2.69759e-05 -0.000140873 7.61165e-07
-0.0102712 0 0.00214808 0 0 0
0.0102712 -1.35525e-20 0.00214808 0 0 0
0.0103833 0 0.00161108 -0.000726931 0.00401319 1.22423e-05
-0.0103834 1.35525e-20 0.00161117 2.60403e-05 -0.000134934 3.21625e-07
0.0103536 0 0.00205869 -0.000367607 0.00198369 9.14517e-06
-0.0103536 1.35525e-20 0.0020587 1.35705e-05 -6.7976e-05 2.35704e-07
0.0105837 0 0.000111818 -0.000140392 0.000733134 -1.00331e-05
-0.0105837 6.77626e-21 0.00011184 8.77967e-07 -4.42473e-06 -9.39482e-09
-0.0105846 6.77626e-21 8.37325e-08 0 0 0
0.0105846 0 8.37326e-08 0 0 0
-0.0106742 -1.35525e-20 7.93305e-08 0 0 0
0.0106742 1.35525e-20 7.93306e-08 0 0 0
0.0106592 -5.64689e-21 0.000632602 -0.000989975 0.00533494 -4.46541e-05
-0.0106592 5.64689e-21 0.000632714 2.15652e-05 -0.000114968 2.32455e-07
0.0106428 -6.77626e-21 0.00125876 -0.00138089 0.00763191 -2.87876e-05
-0.0106428 -2.25875e-21 0.00125889 4.44043e-05 -0.000234955 -1.57192e-07
0.0107479 0 8.57829e-05 -0.00022308 0.00120592 -9.3508e-06
-0.0107479 0 8.57996e-05 3.99981e-07 -2.18147e-06 -2.04515e-08
0.0107513 0 7.04941e-08 0 0 0
-0.0107513 -1.35525e-20 7.04937e-08 0 0 0
0.0106336 -1.50584e-21 0.00171643 -0.00119301 0.00661286 6.46011e-06
-0.0106336 1.50584e-21 0.00171652 4.16608e-05 -0.000216918 -5.58225e-07
0.0105534 -1.35525e-20 0.00229536 0 0 0
-0.0105534 6.77626e-21 0.00229537 0 0 0
0.0106374 2.71051e-20 0.00201566 -0.000881433 0.00482711 6.98297e-06
-0.0106374 0 0.0020157 3.25341e-05 -0.000164276 -1.70562e-07
0.0106444 1.35525e-20 0.00223448 -0.00030096 0.00162405 7.48715e-06
-0.0106444 0 0.0022345 1.11094e-05 -5.56479e-05 1.92957e-07
0.0106479 0 0.0023447 0 0 0
-0.0106479 0 0.00234469 0 0 0
0.0109358 0 0.000311581 -0.000842957 0.00432068 -2.60615e-05
-0.0109358 -2.71051e-20 0.000311629 1.48718e-06 -7.94484e-06 -8.65989e-08
0.0109231 2.71051e-20 0.000931197 -0.00193668 0.0106594 -5.82054e-05
-0.0109231 2.71051e-20 0.00093132 5.65246e-05 -0.00030308 2.60028e-07
-0.0107255 0 0.00238519 0 0 0
0.0107255 0 0.0023852 0 0 0
-0.0107633 0 0.00232245 1.28384e-05 -6.16009e-05 -7.70077e-07
0.0107633 0 0.00232244 -0.000327117 0.00179043 -5.53049e-06
0.0109068 0 0.00151925 -0.00208761 0.0116238 6.1564e-07
-0.0109069 -2.71051e-20 0.00151936 7.02885e-05 -0.000370854 -1.91631e-06
-0.0111547 0 5.04036e-09 0 0 0
0.0111547 0 5.03949e-09 0 0 0
-0.0111547 0 6.05203e-05 2.82344e-07 -1.53989e-06 -1.44366e-08
0.0111547 0 6.05016e-05 -0.000157453 0.000851157 -6.59992e-06
-0.0112084 0 -1.4573e-09 0 0 0
0.0112084 6.77626e-21 -1.4573e-09 0 0 0
0.0112025 -2.25875e-21 0.000609617 -0.00159987 0.00878516 -2.10384e-05
-0.0112025 0 0.000609722 3.46925e-05 -0.000181114 -1.27349e-07
0.0111846 2.25875e-21 0.00122681 -0.00241884 0.0135344 -6.28136e-06
-0.0111847 2.25875e-21 0.00122694 7.87494e-05 -0.000408531 -1.8834e-06
0.0110963 2.71051e-21 0.00189319 -0.00186278 0.0104698 -4.92011e-06
-0.0110963 4.51751e-21 0.00189327 6.79287e-05 -0.000343842 -3.34178e-06
0.0110269 0 0.00227118 -0.00103475 0.00585887 -3.77378e-05
-0.0110269 0 0.00227121 4.16083e-05 -0.000201118 -2.98026e-06
0.0112589 -6.77626e-21 5.31432e-05 -0.000171375 0.000971947 -2.38951e-07
-0.0112589 -6.77626e-21 5.31594e-05 2.92336e-07 -1.39831e-06 -4.93623e-09
0.0112597 6.77626e-21 -1.24989e-09 0 0 0
-0.0112597 -6.77626e-21 -1.24984e-09 0 0 0
0.0110601 6.77626e-21 0.00255988 0 0 0
-0.0110601 -6.77626e-21 0.0025599 0 0 0
0.0110979 0 0.00251659 -0.000249804 0.00136727 -4.22338e-06
-0.0110979 1.35525e-20 0.00251662 9.80286e-06 -4.70359e-05 -5.87999e-07
0.011119 6.77626e-21 0.00259067 0 0 0
-0.011119 0 0.00259068 0 0 0
-0.0111709 -6.77626e-21 0.00261768 0 0 0
0.0111709 1.35525e-20 0.00261768 0 0 0
-0.0111908 0 0.00257887 8.86711e-06 -4.33261e-05 -6.7089e-07
0.0111908 -6.77626e-21 0.00257885 -0.00022497 0.00124734 6.43428e-07
-0.0114906 0 0.000303969 1.67262e-06 -7.96599e-06 3.6294e-08
0.0114906 0 0.00030393 -0.000998281 0.00552891 7.34335e-06
0.0114869 -2.71051e-20 0.000915922 -0.0026583 0.0148596 -7.79545e-06
-0.0114869 2.71051e-20 0.000916008 8.0675e-05 -0.000413678 -7.21408e-07
0.0113199 -2.25875e-21 0.00230442 -0.00148028 0.00838109 -2.56541e-05
-0.0113199 0 0.00230446 5.72856e-05 -0.000284256 -4.02458e-06
0.0114565 5.42101e-20 0.00155258 -0.00304105 0.017285 4.4198e-05
-0.0114565 0 0.00155266 0.000109161 -0.000554661 -5.1951e-06
0.0114952 0 0.00208526 -0.00244607 0.0137345 -2.52956e-05
-0.0114952 0 0.00208532 9.2011e-05 -0.000458602 -6.32209e-06
0.0114493 0 0.00253761 -0.000987154 0.00568283 -1.23072e-05
-0.0114493 -5.42101e-20 0.00253763 3.91448e-05 -0.00019722 -2.71983e-06
-0.0117381 -6.77626e-21 7.69922e-10 0 0 0
0.0117382 0 7.69993e-10 0 0 0
-0.0117389 -6.77626e-21 3.73394e-05 2.05329e-07 -9.82134e-07 -3.46708e-09
0.0117389 -6.77626e-21 3.73135e-05 -0.000120323 0.000682405 -1.67768e-07
-0.011774 -6.77626e-21 9.15475e-10 0 0 0
0.011774 -6.77626e-21 9.15461e-10 0 0 0
0.0117853 1.12938e-21 0.000597825 -0.00197107 0.0110816 -4.3662e-06
-0.0117853 0 0.00059789 4.53566e-05 -0.000229503 -1.01807e-06
0.0118096 0 8.62854e-10 0 0 0
-0.0118096 0 8.62835e-10 0 0 0
0.0118103 0 3.42357e-05 -0.000122811 0.000721501 -6.76475e-07
-0.0118103 -6.77626e-21 3.4259e-05 2.01816e-07 -9.62861e-07 2.82443e-08
0.0117814 1.69407e-21 0.00122179 -0.00321911 0.0181614 -1.57138e-05
-0.0117814 1.12938e-21 0.00122188 0.000108771 -0.000546991 -5.32952e-06
0.0115287 -6.77626e-21 0.00280414 0 0 0
-0.0115287 0 0.00280416 0 0 0
0.0115503 6.77626e-21 0.00277325 -0.000192865 0.00106933 5.51605e-07
-0.0115503 6.77626e-21 0.00277328 7.60107e-06 -3.71401e-05 -5.75101e-07
0.0115729 0 0.00282717 0 0 0
-0.0115729 0 0.00282718 0 0 0
0.0117842 0 0.00183865 -0.0032376 0.0182208 -2.95395e-05
-0.0117842 0 0.00183871 0.000120572 -0.000595542 -9.68295e-06
-0.0116142 0 0.00284907 0 0 0
0.0116142 0 0.00284907 0 0 0
-0.0116389 6.77626e-21 0.00280446 1.28629e-05 -5.43604e-05 -1.66209e-06
0.011639 0 0.00280444 -0.000305082 0.00155809 -8.55322e-06
0.0117437 -1.12938e-21 0.00238072 -0.00212116 0.0117249 -2.86404e-05
-0.0117437 1.69407e-21 0.00238075 8.31032e-05 -0.000396118 -8.13609e-06
-0.0120804 0 0.000295177 1.66845e-06 -8.20821e-06 3.56966e-07
0.0120804 -2.71051e-20 0.000295157 -0.00107146 0.00620966 1.29723e-06
0.0120943 0 0.000900328 -0.00320118 0.0179882 -1.89443e-05
-0.0120943 0 0.000900379 9.95466e-05 -0.000498796 -3.81802e-06
0.0121033 -2.71051e-20 0.00152699 -0.00399055 0.0226086 -7.97736e-05
-0.0121033 0 0.00152703 0.000146554 -0.000725134 -1.17013e-05
0.0119448 2.71051e-20 0.00270134 -0.00167477 0.0087129 -1.87568e-05
-0.0119448 2.71051e-20 0.00270136 7.03924e-05 -0.000301529 -8.34148e-06
0.0120973 -2.71051e-20 0.00216163 -0.00357698 0.0198406 -5.95519e-05
-0.0120973 -5.42101e-20 0.00216166 0.00013841 -0.000662125 -1.60599e-05
-0.0123534 -3.38813e-21 7.40909e-11 0 0 0
0.0123534 0 7.40185e-11 0 0 0
-0.0123542 -6.77626e-21 2.17304e-05 1.28014e-07 -6.10753e-07 1.79157e-08
0.0123542 3.38813e-21 2.16841e-05 -7.7787e-05 0.000456991 -4.28472e-07
0.0119751 -6.77626e-21 0.00303983 0 0 0
-0.0119752 0 0.00303985 0 0 0
0.0120033 0 0.00299988 -0.000289985 0.00148099 -8.12998e-06
-0.0120034 0 0.00299991 1.22265e-05 -5.1671e-05 -1.57986e-06
-0.0123759 0 4.08374e-11 0 0 0
0.0123759 0 4.08336e-11 0 0 0
0.0120142 6.77626e-21 0.00306058 0 0 0
-0.0120143 0 0.00306059 0 0 0
0.0123981 3.38813e-21 3.93484e-11 0 0 0
-0.0123981 0 3.9349e-11 0 0 0
0.0123987 3.38813e-21 1.91886e-05 -7.24084e-05 0.00043577 -5.79822e-07
-0.0123988 0 1.92302e-05 7.36915e-08 -6.27649e-07 3.86763e-08
0.0124008 1.12938e-21 0.000576145 -0.00219384 0.0125147 -9.95711e-06
-0.0124008 5.64689e-22 0.000576171 5.28523e-05 -0.000261878 -2.81683e-06
0.0120519 0 0.00308051 0 0 0
-0.012052 0 0.00308052 0 0 0
0.0120703 0 0.0030437 -0.000278399 0.00141718 -9.91273e-06
-0.0120704 6.77626e-21 0.00304372 1.25109e-05 -4.92102e-05 -2.33249e-06
0.0124207 8.47033e-22 0.00119162 -0.00383755 0.0217708 -5.79921e-05
-0.0124207 2.82344e-22 0.00119165 0.000134046 -0.000656851 -1.0552e-05
0.0124236 -2.82344e-22 0.00184651 -0.00419924 0.0236971 -0.000100293
-0.0124236 8.47033e-22 0.00184654 0.000163893 -0.00078256 -1.92594e-05
0.0123835 -9.03502e-22 0.00256027 -0.00293654 0.0159298 -8.84964e-05
-0.0123835 -2.03288e-21 0.00256029 0.000122876 -0.000546305 -1.99283e-05
-0.0126967 5.42101e-20 0.000276519 9.92075e-07 -8.77743e-06 6.60516e-07
0.0126967 -2.71051e-20 0.000276513 -0.00104074 0.00632194 2.05147e-06
0.0123513 0 0.00296166 -0.00163219 0.00839661 -5.80063e-05
-0.0123514 0 0.00296167 7.31569e-05 -0.000290833 -1.29851e-05
0.0127273 2.71051e-20 0.000857688 -0.00350973 0.0198068 -2.4538e-05
-0.0127273 2.71051e-20 0.000857703 0.000111624 -0.000542735 -8.5913e-06
0.0124095 0 0.00326997 0 0 0
-0.0124095 0 0.00327 0 0 0
0.0127511 2.71051e-20 0.0014915 -0.00465603 0.0267243 -0.000109204
-0.0127511 0 0.00149152 0.000178725 -0.000862567 -1.81011e-05
0.0124313 0 0.00323672 -0.000267873 0.00136359 -9.53794e-06
-0.0124313 0 0.00323675 1.20382e-05 -4.73511e-05 -2.24436e-06
0.0124457 0 0.00328913 0 0 0
-0.0124457 0 0.00328915 0 0 0
-0.0124807 -6.77626e-21 0.00330749 0 0 0
0.0124807 6.77626e-21 0.00330748 0 0 0
-0.0124951 0 0.00327724 1.14606e-05 -4.23236e-05 -2.80531e-06
0.0124951 0 0.00327722 -0.000234132 0.00118768 -4.86303e-06
0.0127412 0 0.00217415 -0.00460384 0.0258149 -0.000154138
-0.0127412 0 0.00217416 0.000193056 -0.000886282 -3.12582e-05
0.0126309 -2.63521e-21 0.00298509 -0.00217039 0.0113847 -7.74828e-05
-0.0126309 1.50584e-21 0.0029851 9.72647e-05 -0.000397473 -2.02872e-05
-0.0130119 0 3.91295e-06 7.22226e-09 -7.89518e-08 4.72296e-09
0.0130206 0 3.15285e-06 -8.18609e-06 5.35141e-05 -2.04722e-07
-0.0130338 -2.82344e-22 0.000526404 5.80913e-05 -0.0002587 -3.50175e-06
0.0130338 -5.64689e-22 0.0005264 -0.00216426 0.0127134 -1.61988e-05
0.0127927 -5.42101e-20 0.00274396 -0.00350643 0.0187029 -0.000159168
-0.0127927 0 0.00274397 0.000151337 -0.000651716 -3.23804e-05
0.01305 -3.5293e-22 0.00108918 -0.00405433 0.0231714 -4.99755e-05
-0.0130502 7.05861e-23 0.00108947 0.000148442 -0.000685698 -1.09202e-05
0.0131021 -4.23516e-22 1.36103e-12 0 0 0
-0.0131041 3.38813e-21 1.35707e-12 0 0 0
0.0127559 0 0.00321821 -0.00142686 0.00734645 -1.77853e-05
-0.0127559 2.71051e-20 0.00321822 6.93875e-05 -0.000259814 -1.5841e-05
0.0130771 -4.70574e-23 0.0018121 -0.00490495 0.0278765 -0.000159889
-0.0130772 -2.35287e-23 0.00181208 0.000200456 -0.000934843 -2.60886e-05
0.0128312 0 0.00349147 0 0 0
-0.0128312 0 0.00349149 0 0 0
0.0128495 0 0.00346312 -0.00023478 0.00119097 -4.87649e-06
-0.0128495 6.77626e-21 0.00346314 1.14927e-05 -4.24419e-05 -2.81315e-06
0.0130837 -1.41172e-22 0.00247341 -0.00458463 0.0251751 -0.000212159
-0.0130837 -1.41172e-22 0.00247342 0.000197344 -0.000874102 -3.95679e-05
-0.0133275 0 0.000238489 1.61963e-06 -7.97535e-06 8.97283e-07
0.0133275 -5.42101e-20 0.000238488 -0.000698566 0.00564609 -4.61382e-05
0.0128663 0 0.00350989 0 0 0
-0.0128663 0 0.0035099 0 0 0
-0.0129008 0 0.00352796 0 0 0
0.0129009 6.77626e-21 0.00352796 0 0 0
-0.0129238 6.77626e-21 0.00348629 1.95526e-05 -6.15551e-05 -5.89987e-06
0.0129238 0 0.00348628 -0.000363975 0.00172235 -2.16217e-05
0.0130386 5.64689e-22 0.00304624 -0.00292061 0.0152342 -0.000133165
-0.0130386 0 0.00304625 0.000135443 -0.000533567 -3.34835e-05
-0.0133691 2.71051e-20 0.000762344 0.000122178 -0.000489651 -7.0016e-06
0.0133691 0 0.000762343 -0.00347744 0.0194481 3.00733e-06
0.013433 2.71051e-20 0.00137815 -0.0049609 0.0288709 -7.66425e-05
-0.013433 0 0.00137815 0.000199364 -0.000932752 -1.14283e-05
0.0134156 5.42101e-20 0.00211069 -0.00558729 0.0314653 -0.000287717
-0.0134156 -2.71051e-20 0.0021107 0.000237289 -0.00109626 -4.02693e-05
0.013227 0 0.00336665 -0.00223605 0.0107505 -0.000117643
-0.013227 -2.71051e-20 0.00336666 0.00011854 -0.00038028 -3.36208e-05
-0.0136582 -3.10579e-21 0.000454835 5.32773e-05 -0.000189378 5.52153e-06
0.0136582 -4.51751e-21 0.00045481 -0.00196853 0.012386 -0.000183931
0.0133906 2.71051e-20 0.00280402 -0.00480277 0.0257119 -0.000257134
-0.0133906 -2.71051e-20 0.00280402 0.000214429 -0.00089678 -5.50666e-05
0.0137198 6.77626e-21 1.35042e-13 0 0 0
-0.01372 0 1.34214e-13 0 0 0
0.0137205 6.77626e-21 2.22047e-05 -5.90084e-05 0.000534071 -5.08561e-06
-0.0137207 -6.77626e-21 2.20751e-05 2.54573e-07 -7.27592e-07 1.2309e-07
0.0137215 -3.38813e-21 0.000181485 -0.000742521 0.00473949 -8.42323e-05
-0.0137217 -3.38813e-21 0.000180645 1.91926e-05 -6.22086e-05 2.39214e-06
0.0137517 0 1.01802e-14 0 0 0
-0.0137517 0 1.00122e-14 0 0 0
0.0132451 0 0.0037083 0 0 0
-0.0132451 0 0.00370831 0 0 0
0.0132719 0 0.00367137 -0.000345269 0.00163383 -2.05105e-05
-0.0132719 0 0.00367139 1.85471e-05 -5.83895e-05 -5.59645e-06
-0.0137723 6.77626e-21 1.6111e-05 2.55457e-07 1.06862e-07 1.88183e-07
0.0137724 6.77626e-21 1.62075e-05 -5.32779e-05 0.000382974 -4.19932e-05
-0.0137739 3.38813e-21 5.87369e-15 0 0 0
0.013774 0 6.01109e-15 0 0 0
0.0132783 0 0.00372567 0 0 0
-0.0132783 6.77626e-21 0.00372568 0 0 0
0.0137945 1.12938e-21 0.000886616 -0.00352635 0.0210813 -0.000133766
-0.0137945 0 0.000886593 0.00012781 -0.000518695 1.34688e-05
-0.0133097 0 0.00374319 0 0 0
0.0133097 -6.77626e-21 0.00374318 0 0 0
-0.0138294 6.77626e-21 2.58773e-15 0 0 0
0.0138298 0 2.6944e-15 0 0 0
-0.0133283 0 0.00371041 1.86633e-05 -5.58355e-05 -4.97689e-06
0.0133283 0 0.00371039 -0.00031631 0.00160241 -2.04576e-06
0.0137534 0 0.00171114 -0.00546437 0.0311236 -0.000132751
-0.0137534 -1.12938e-21 0.00171114 0.000224506 -0.00105188 -9.75097e-06
0.0136707 -1.05879e-22 0.00246353 -0.00554924 0.0305206 -0.000220392
-0.0136709 -1.05879e-22 0.00246353 0.000242469 -0.00108582 -4.39194e-05
0.0137202 0 0.002462 -0.00563161 0.0309771 -0.00022112
-0.0137215 1.82112e-20 0.00246192 0.000246307 -0.00110384 -4.42922e-05
-0.0137187 -2.11758e-22 0.00249057 0.000244193 -0.00108948 -4.43216e-05
0.0137187 1.05879e-22 0.00249065 -0.00556605 0.0305729 -0.000218921
0.013662 -9.03502e-22 0.00322324 -0.0038512 0.0200051 -0.00015967
-0.013662 6.77626e-22 0.00322324 0.000188743 -0.000712637 -4.50416e-05
-0.013613 2.71051e-20 0.00362485 0.000122521 -0.000368413 -3.23828e-05
0.0136131 0 0.00362485 -0.00212965 0.0105951 -8.65031e-05
0.0141363 1.69407e-21 0.000319446 -0.0013127 0.00972203 -0.000416787
-0.0141363 0 0.000319424 2.77603e-06 -3.35135e-05 -1.5325e-05
0.0140904 2.71051e-20 0.00128026 -0.0050443 0.0290082 -1.0387e-05
-0.0140904 -2.71051e-20 0.00128025 0.000200947 -0.000912591 3.80686e-05
0.0140599 0 0.00206638 -0.00623604 0.0349749 -0.000157617
-0.0140599 2.71051e-20 0.00206638 0.000259168 -0.00125594 -2.34279e-05
0.0136637 0 0.00393551 0 0 0
-0.0136637 3.38813e-21 0.00393552 0 0 0
0.0136787 0 0.00391519 -0.000209752 0.00106259 -1.35659e-06
-0.0136787 0 0.00391522 1.2368e-05 -3.70017e-05 -3.29814e-06
-0.0142379 1.35525e-20 7.69362e-16 0 0 0
0.014238 1.35525e-20 7.95335e-16 0 0 0
0.0136843 -3.38813e-21 0.00394699 0 0 0
-0.0136843 -3.38813e-21 0.00394698 0 0 0
-0.0137016 0 0.00395979 0 0 0
0.0137016 0 0.00395981 0 0 0
-0.0137143 3.38813e-21 0.00394399 1.10555e-05 -3.14517e-05 -3.72729e-06
0.0137143 -3.38813e-21 0.00394399 -0.000179239 0.000873384 -3.96064e-07
-0.0140217 -2.71051e-20 0.00281655 0.000275254 -0.00117722 -5.69517e-05
0.0140217 2.71051e-20 0.00281655 -0.00594197 0.0320387 -0.000177841
-0.013895 1.50584e-21 0.00367137 0.000156037 -0.000509505 -4.07426e-05
0.0138951 -9.41148e-22 0.00367137 -0.00288534 0.0144103 -0.000121299
-0.0144242 5.64689e-22 0.000793237 9.22353e-05 -0.000420549 2.13962e-05
0.0144242 1.56858e-23 0.000793235 -0.00307859 0.0192884 -0.000270544
0.014454 2.71051e-20 1.48066e-16 0 0 0
-0.014454 1.35525e-20 1.45757e-16 0 0 0
0.0143969 -2.82344e-22 0.00165239 -0.00567656 0.0319993 9.82215e-06
-0.0143969 2.82344e-22 0.00165239 0.000229596 -0.00111344 1.6507e-05
-0.0140802 2.71051e-20 0.00343827 0.00023205 -0.000841921 -5.08545e-05
0.0140802 2.71051e-20 0.00343827 -0.00463454 0.0236875 -0.00017392
-0.0140067 5.42101e-20 0.00392192 0.00011623 -0.00032996 -3.94126e-05
0.0140067 0 0.00392194 -0.00195452 0.00928131 -0.000104794
0.0143633 0 0.00242487 -0.00640629 0.0350095 2.80667e-06
-0.0143633 -9.52912e-21 0.00242488 0.00028484 -0.00131432 -1.17815e-05
-0.0143624 -2.11758e-22 0.00267917 0.000285154 -0.00125773 -1.43196e-05
0.0143624 -2.11758e-22 0.00267952 -0.00621319 0.0335834 7.36667e-06
0.0140362 -1.69407e-21 0.00420871 0 0 0
-0.0140362 1.69407e-21 0.00420869 0 0 0
0.014043 0 0.00420186 -8.49164e-05 0.000413776 -1.8764e-07
-0.014043 1.69407e-21 0.00420185 5.23699e-06 -1.48986e-05 -1.76561e-06
-0.0140444 1.69407e-21 0.00421477 0 0 0
0.0140443 -1.69407e-21 0.00421479 0 0 0
-0.0140522 0 0.00422057 0 0 0
0.0140522 -1.69407e-21 0.0042206 0 0 0
-0.0140564 1.69407e-21 0.00421301 4.72827e-06 -1.40447e-05 -8.67484e-07
0.0140564 -1.69407e-21 0.00421303 -7.5495e-05 0.000387968 -1.2721e-05
-0.0146848 1.35525e-20 -3.35187e-17 0 0 0
0.0146849 6.77626e-21 -3.32302e-17 0 0 0
0.0143544 -2.58345e-20 0.00313093 -0.00586689 0.031031 1.34728e-05
-0.0143544 0 0.00313092 0.000285596 -0.00115601 -1.93164e-05
-0.0143606 0 0.00313712 0.000285756 -0.00115587 -1.87654e-05
0.0143549 4.23516e-22 0.00313705 -0.00586634 0.031021 1.65319e-05
-0.0147048 5.42101e-21 0.000271671 -1.30738e-06 -1.18236e-05 -1.60613e-05
0.0147048 0 0.000271731 -0.000982029 0.00784694 -0.000399973
-0.014356 0 0.00329971 0.000262095 -0.0010385 -1.78676e-05
0.014356 8.47033e-22 0.00329991 -0.00529557 0.0279658 -1.23535e-05
0.0147336 -2.71051e-20 0.0012417 -0.00493475 0.0282363 -5.70609e-06
-0.0147336 0 0.00124169 0.000182167 -0.000915923 4.28255e-05
-0.0146227 -2.11758e-22 0.0023874 0.000302733 -0.00136186 2.2542e-05
0.0146235 2.11758e-22 0.00238728 -0.00653679 0.0354447 0.000174058
0.0146912 2.71051e-20 0.002036 -0.00647601 0.0356993 0.000195871
-0.0146912 -2.71051e-20 0.002036 0.000275488 -0.00136466 7.5314e-06
-0.0143356 -4.03349e-23 0.00382206 0.000177396 -0.000631067 -1.51196e-05
0.0143356 3.63014e-22 0.00382208 -0.00330984 0.017325 -9.68401e-05
-0.0143244 0 0.00417019 0.000106245 -0.000327352 -2.27872e-05
0.0143244 0 0.00417021 -0.001691 0.00928122 -0.000346181
-0.0142789 -8.47033e-22 0.00438875 0 0 0
0.0142791 0 0.0043889 0 0 0
-0.0146906 0 0.00275581 0.000327896 -0.00145131 2.33361e-05
0.0146906 2.71051e-20 0.00275581 -0.00693663 0.0371373 0.00014645
-0.0149588 -1.41172e-22 0.00165211 0.000248987 -0.00116889 3.76889e-05
0.0149603 0 0.00165061 -0.00576348 0.0316618 0.000248869
-0.0146586 -2.71051e-20 0.00346816 0.000314301 -0.00119602 1.35345e-05
0.0146586 -5.42101e-20 0.00346818 -0.00611528 0.0321857 0.000289305
-0.0144053 -8.47033e-22 0.00448256 1.42446e-06 -5.26575e-06 -2.69731e-07
0.0144084 0 0.00447898 -2.60807e-05 0.000153378 -6.47169e-06
-0.0151194 2.37169e-20 -3.98229e-17 0 0 0
0.0151197 -3.38813e-21 -3.98169e-17 0 0 0
-0.0144514 -8.47033e-22 0.00451675 0 0 0
0.0144515 -1.69407e-21 0.00451675 0 0 0
-0.0151612 0 3.4719e-05 -2.51244e-07 3.21922e-07 -1.96312e-07
0.0151612 0 3.45049e-05 -0.000118555 0.000876886 -4.36196e-05
-0.0151666 0 -1.47629e-17 0 0 0
0.0151666 0 -1.47327e-17 0 0 0
-0.0145673 1.12938e-21 0.00422607 0.00012791 -0.000477839 2.32874e-07
0.0145673 -1.50584e-21 0.00422609 -0.00239285 0.0131134 -0.000278036
0.0151843 0 -9.97127e-18 0 0 0
-0.0151843 0 -1.0005e-17 0 0 0
-0.015166 1.12938e-21 0.00086797 8.51004e-05 -0.000445633 2.4916e-05
0.015166 2.25875e-21 0.000867968 -0.00316911 0.0184271 -9.92589e-05
0.0152148 3.38813e-21 -1.00637e-17 0 0 0
0.0152149 3.38813e-21 2.26461e-05 -0.000102345 0.000523447 -5.13346e-06
-0.0152151 3.38813e-21 -1.00978e-17 0 0 0
-0.0152151 0 2.27883e-05 -2.63681e-06 -2.65381e-06 -5.77538e-07
-0.0147125 -2.71051e-20 0.00402551 0.000204788 -0.00080213 2.83262e-05
0.0147125 0 0.00402553 -0.00386485 0.0213708 -9.91681e-05
-0.0150843 0 0.00231357 0.000334475 -0.00144684 8.38223e-05
0.0150843 4.23516e-22 0.00231357 -0.00676792 0.0362193 0.000479025
-0.0150902 -2.4564e-20 0.00232072 0.000335281 -0.00144797 8.49203e-05
0.0150909 6.26804e-20 0.00231341 -0.00677226 0.0362283 0.000482932
-0.0149792 2.82344e-22 0.0031214 0.000368106 -0.00145489 0.000136153
0.0149792 2.82344e-22 0.00312141 -0.00689822 0.0366457 0.000570552
-0.0146794 0 0.00445851 7.4436e-05 -0.000312313 -3.7963e-06
0.0146795 -5.42101e-20 0.00445853 -0.00166603 0.00889208 -0.000387005
-0.0149711 0 0.00367466 0.000304861 -0.00121359 0.000144375
0.0149711 0 0.00367488 -0.00581128 0.0313506 0.000487665
-0.0149706 0 0.00377567 0.000293164 -0.00116889 0.00014582
0.0149706 0 0.00377568 -0.00561034 0.030371 0.000472234
-0.0147268 0 0.00472093 0 0 0
0.0147268 6.77626e-21 0.00472096 0 0 0
-0.0147397 0 0.0047038 9.42649e-06 -3.80296e-05 1.69693e-07
0.0147397 0 0.00470382 -0.000219644 0.00104921 -4.59812e-05
-0.0147494 6.77626e-21 0.00473772 0 0 0
0.0147494 0 0.00473775 0 0 0
0.0150251 2.11758e-22 0.00377792 -0.00572185 0.0310215 0.00056673
-0.0150252 1.05879e-21 0.00377791 0.000300052 -0.00120423 0.000184995
-0.0147753 0 0.0047569 0 0 0
0.0147753 6.77626e-21 0.00475694 0 0 0
-0.0147957 0 0.00471951 9.06751e-06 -7.61485e-05 1.0235e-05
0.0147957 0 0.00471954 -0.000353536 0.00203893 2.06597e-05
-0.0149236 -3.38813e-21 0.00432832 0.000140732 -0.0006611 8.17657e-05
0.0149238 4.23516e-22 0.00432831 -0.00317001 0.017678 0.000124717
-0.0149307 0 0.0043143 0.000145331 -0.000682621 8.43658e-05
0.0149308 3.59989e-20 0.00431433 -0.00327278 0.0182525 0.000128827
0.0153072 -5.42101e-20 0.00276684 -0.00737626 0.0390739 0.0009041
-0.0153072 0 0.00276684 0.000413244 -0.0016276 0.000219558
-0.0149538 2.11758e-22 0.00432332 0.000143464 -0.000696038 9.80276e-05
0.0149538 4.02341e-21 0.00432332 -0.00330862 0.0185343 0.000169194
-0.0152762 2.71051e-20 0.00345527 0.000416902 -0.00154382 0.000287284
0.0152762 2.71051e-20 0.00345527 -0.00716146 0.0381565 0.000942679
-0.0156652 -5.42101e-20 0.00170503 0.000315913 -0.00127244 8.16038e-05
0.0156652 5.42101e-20 0.00170503 -0.0059703 0.0306723 0.000779137
-0.0150897 0 0.00463312 6.58689e-05 -0.000509851 6.22802e-05
0.0150898 0 0.00463317 -0.00236478 0.0137751 0.000247264
-0.0152566 0 0.00410558 0.000253122 -0.00119798 0.000276838
0.0152566 -2.71051e-20 0.00410559 -0.00558344 0.0312533 0.00085437
0.0156483 -7.05861e-23 0.00239976 -0.00715014 0.0370493 0.00125291
-0.0156483 7.05861e-23 0.00239976 0.000463814 -0.00159556 0.000400016
-0.0150378 0 0.00495164 0 0 0
0.0150379 -6.77626e-21 0.0049517 0 0 0
-0.0158313 -1.0842e-19 0.000505742 -4.96688e-05 -5.14623e-05 -6.68995e-06
0.0158313 5.42101e-20 0.000505749 -0.00218007 0.0117514 -6.57797e-05
-0.0150929 0 0.00489488 1.68605e-05 -0.000141594 1.90314e-05
0.015093 0 0.00489493 -0.000657319 0.00379092 3.8412e-05
-0.0150892 -1.35525e-20 0.00498975 0 0 0
0.0150893 0 0.00498982 0 0 0
-0.015606 -2.82344e-22 0.00310341 0.00048877 -0.00168406 0.000524804
0.015606 5.64689e-22 0.00310341 -0.00751195 0.0394158 0.00144386
-0.0151438 0 0.00503029 0 0 0
0.0151439 6.77626e-21 0.00503035 0 0 0
-0.0151784 0 0.00496289 -3.22646e-06 -0.000150258 5.4063e-05
0.0151785 1.35525e-20 0.00496294 -0.000572828 0.00392494 0.000185586
-0.0155884 -6.77626e-22 0.00378776 0.000373058 -0.00156847 0.000613706
0.0155884 2.25875e-22 0.00378777 -0.00685731 0.0376288 0.00156539
-0.0155033 0 0.00450864 0.000101769 -0.0010018 0.000408711
0.0155033 -1.807e-21 0.00450867 -0.00411879 0.02496 0.00108646
-0.0154178 -2.71051e-20 0.00490558 -1.12535e-05 -0.000523113 0.000187125
0.0154179 0 0.00490563 -0.00203694 0.0137258 0.000660305
-0.0159469 2.71051e-20 0.00273843 0.000575467 -0.00175492 0.000713223
0.0159469 -2.71051e-20 0.00273843 -0.00759745 0.0389856 0.00179385
-0.0153971 -1.35525e-20 0.00521815 0 0 0
0.0153972 2.03288e-20 0.00521821 0 0 0
-0.015903 0 0.0034351 0.000549509 -0.00180425 0.000873131
0.015903 0 0.00343511 -0.00789398 0.0413289 0.00211978
-0.0154387 0 0.00517349 -2.61763e-06 -0.000121905 4.38615e-05
0.0154387 6.77626e-21 0.00517354 -0.000464742 0.00318435 0.000150568
-0.0154377 6.77626e-21 0.00524824 0 0 0
0.0154377 0 0.00524829 0 0 0
0.0163338 3.81165e-21 -1.09082e-18 0 0 0
-0.0163352 4.23516e-22 -1.08335e-18 0 0 0
-0.0154764 -6.77626e-21 0.00527693 0 0 0
0.0154764 6.77626e-21 0.00527698 0 0 0
-0.0155053 0 0.00524153 -2.76139e-05 -0.000103034 5.52793e-05
0.0155053 0 0.00524158 -0.00027006 0.0024579 0.000199472
0.0163533 5.50571e-21 0.00112133 -0.00447361 0.0207793 0.000708141
-0.0163536 0 0.00112139 0.000352068 -0.000665749 0.000242322
-0.0158756 2.71051e-20 0.0041209 0.00026094 -0.00167009 0.000859666
0.0158756 0 0.00412092 -0.006679 0.039076 0.00210159
0.0163769 3.59989e-21 0.00112768 -0.00449965 0.0208315 0.000723465
-0.0163768 3.34578e-20 0.00112767 0.000357077 -0.000670229 0.000246345
-0.0156932 -7.52918e-22 0.00495312 -6.11536e-05 -0.000757112 0.000393603
0.0156933 1.50584e-21 0.00495315 -0.00266608 0.018691 0.00110956
0.0164701 4.23516e-22 3.15916e-06 -7.93375e-06 4.23226e-05 -2.90949e-08
-0.0164637 4.23516e-22 2.61009e-06 -3.75408e-08 -4.30426e-07 -1.74204e-07
-0.0163214 0 0.00227444 0.000736058 -0.00157229 0.000911683
0.0163214 1.12938e-21 0.00227444 -0.00749287 0.03544 0.00202394
-0.0162376 4.51751e-22 0.0030774 0.000674175 -0.00182097 0.0011642
0.0162376 -4.51751e-22 0.0030774 -0.00797293 0.0401571 0.00243167
-0.0159046 0 0.00473208 -2.81247e-05 -0.00125417 0.000735145
0.0159046 0 0.00473209 -0.00454415 0.0303637 0.00173893
-0.0157801 -2.71051e-20 0.00520579 -0.000144426 -0.000526857 0.000281549
0.0157802 2.71051e-20 0.00520583 -0.00153907 0.0127668 0.000977944
-0.0162469 -2.25875e-21 0.00372972 0.000472023 -0.00188201 0.00138175
0.0162469 1.12938e-21 0.00372973 -0.00761412 0.0416365 0.00277932
-0.0157745 0 0.00549808 0 0 0
0.0157746 0 0.00549812 0 0 0
-0.0158014 6.77626e-21 0.00547416 -2.13145e-05 -7.95293e-05 4.26687e-05
0.0158015 0 0.00547419 -0.000208471 0.00189735 0.000153981
-0.0158049 6.77626e-21 0.00552063 0 0 0
0.015805 0 0.00552067 0 0 0
-0.0158346 6.77626e-21 0.00554267 0 0 0
0.0158347 0 0.00554272 0 0 0
-0.0158529 0 0.00551417 -4.95901e-05 -8.56653e-05 6.96536e-05
0.015853 0 0.00551421 -0.000189154 0.00187766 0.000145406
-0.016198 0 0.00441893 8.24804e-05 -0.00171828 0.00130248
0.0161981 2.25875e-22 0.00441893 -0.00613569 0.038384 0.0026752
-0.0166697 0 0.00284041 0.000933756 -0.00184958 0.00170238
0.0166698 5.42101e-20 0.00284041 -0.00847557 0.039213 0.00309278
-0.0161695 -4.51751e-22 0.00510698 -0.000274191 -0.00108787 0.000879881
0.0161695 -4.51751e-22 0.00510701 -0.00313922 0.0242758 0.00178344
-0.0166597 0 0.00328607 0.000869532 -0.00198983 0.0019728
0.0166597 2.71051e-20 0.00328607 -0.0085532 0.0420489 0.0034294
-0.0165248 -2.71051e-20 0.00409519 0.000293418 -0.00207797 0.00195531
0.0165248 2.71051e-20 0.0040952 -0.00748476 0.0439563 0.00359738
-0.0161206 2.71051e-20 0.00547661 -0.00032353 -0.00055652 0.000452622
0.0161207 2.71051e-20 0.00547665 -0.00121543 0.0123525 0.000810943
-0.0170334 0 0.000576922 3.34711e-05 -0.000178094 -0.000101276
0.0170335 5.42101e-20 0.000576921 -0.0024699 0.0119506 3.28298e-06
-0.0168875 -4.23516e-22 0.0023902 0.00111384 -0.0016346 0.00164636
0.0168875 -2.11758e-22 0.00239021 -0.00841499 0.036147 0.00298241
-0.0169716 1.0842e-19 0.00176737 0.00114317 -0.00122665 0.00101887
0.0169716 0 0.00176736 -0.00753185 0.0297044 0.00221492
-0.0169179 -2.11758e-22 0.00239498 0.00113405 -0.00163814 0.00168617
0.0169179 2.11758e-22 0.00239498 -0.00846447 0.0361873 0.00303412
0.0169439 2.11758e-22 0.00239538 -0.00851242 0.036222 0.00305391
-0.0169439 2.11758e-22 0.00239538 0.0011696 -0.00164183 0.00172615
-0.0168719 0 0.00305894 0.00105525 -0.00195049 0.00220797
0.0168719 0 0.00305894 -0.00884851 0.0409674 0.00364365
-0.0161674 -6.77626e-21 0.00578953 0 0 0
0.0161674 0 0.00578955 0 0 0
-0.0165034 5.42101e-20 0.00475625 -0.000262874 -0.00186902 0.00168596
0.0165034 2.71051e-20 0.00475627 -0.00564523 0.0400128 0.00330856
-0.0161836 0 0.00577012 -3.70464e-05 -6.39965e-05 5.20349e-05
0.0161836 0 0.00577014 -0.000141329 0.00140293 0.000108643
-0.0161897 0 0.00580603 0 0 0
0.0161897 0 0.00580606 0 0 0
-0.0162121 0 0.00582272 0 0 0
0.0162122 0 0.00582276 0 0 0
-0.0162243 0 0.00580494 -5.73854e-05 -6.28132e-05 6.75168e-05
0.0162243 -6.77626e-21 0.00580498 -0.000118405 0.00129364 0.000112857
0.0168523 -4.51751e-22 0.00374134 -0.0081512 0.0442024 0.00404692
-0.0168523 1.12938e-22 0.00374134 0.000613762 -0.00219042 0.00254727