# Probe 0 (-1 0.395 0)
# Probe 1 (1 0.395 0)
#       Probe             0             1
#        Time
  0.000600024       794.301       781.365
   0.00132009       794.287        781.36
   0.00216091       794.288       781.618
   0.00270081        794.29       781.426
   0.00280174       794.308       780.705
   0.00282805       794.342       779.396
   0.00283485       794.406       776.271
   0.00283643        794.59       767.049
   0.00283688       794.927       746.852
   0.00283697       795.387       658.191
     0.002837       793.361       455.007
   0.00283701       741.271      -607.602
   0.00283701       176.929      -3308.87
   0.00283701      -14094.3      -12802.3
   0.00283701       -166974       7696.16
   0.00283701  -3.97336e+06   1.52623e+06
   0.00283701  -4.55881e+07   1.93426e+07
   0.00283701  -1.04614e+09   4.80556e+08
   0.00283701  -1.23697e+10    5.5195e+09
   0.00283701  -2.76915e+11    1.2825e+11
   0.00283701  -3.33917e+12   1.49737e+12
   0.00283701  -7.25173e+13   3.35556e+13
   0.00283701  -8.97498e+14   4.03584e+14
   0.00283701  -1.91265e+16   8.85493e+15
   0.00283701  -2.39077e+17   1.07544e+17
   0.00283701   -5.0407e+18   2.33264e+18
   0.00283701  -6.35811e+19    2.8613e+19
   0.00283701  -1.32988e+21   6.15172e+20
   0.00283701  -1.68806e+22   7.59732e+21
   0.00283701    -3.511e+23   1.62368e+23
   0.00283701  -4.47751e+24   2.01533e+24
   0.00283701   -9.2784e+25   4.29005e+25
   0.00283701  -1.18691e+27   5.34204e+26
   0.00283701  -2.45251e+28   1.13453e+28
   0.00283701   -3.1451e+29    1.4156e+29
   0.00283701  -6.49057e+30   3.00236e+30
   0.00283701  -8.33044e+31   3.74865e+31
   0.00283701  -1.71779e+33    7.9454e+32
   0.00283701  -2.20572e+34   9.92486e+33
   0.00283701  -4.54837e+35   2.10381e+35
   0.00283701     -5.84e+36   2.62759e+36
   0.00283701  -1.20514e+38   5.57051e+37
   0.00283701  -1.54586e+39   6.95393e+38
   0.00283701  -3.19105e+40   1.47442e+40
   0.00283701  -4.09376e+41   1.84069e+41
   0.00283701  -8.43596e+42   3.89491e+42
   0.00283701  -1.08189e+44   4.86043e+43
   0.00283701  -2.23134e+45   1.02967e+45
   0.00283701  -2.86367e+46   1.28615e+46
   0.00283701  -5.90514e+47   2.72434e+47
   0.00283701  -7.58155e+48    3.4047e+48
   0.00283701  -1.56265e+50   7.20839e+49
   0.00283701  -2.00755e+51   9.01558e+50
   0.00283701  -4.13582e+52   1.90772e+52
   0.00283701  -5.31465e+53   2.38675e+53
   0.00283701  -1.09458e+55   5.04894e+54
   0.00283701   -1.4071e+56   6.31954e+55
   0.00283701  -2.89744e+57   1.33653e+57
   0.00283701  -3.72442e+58   1.67274e+58
   0.00283701  -7.66885e+59   3.53762e+59
   0.00283701  -9.85975e+60   4.42862e+60
   0.00283701  -2.02999e+62   9.36471e+61
   0.00283701  -2.60929e+63     1.172e+63
   0.00283701  -5.37254e+64   2.47855e+64
   0.00283701  -6.90697e+65   3.10255e+65
   0.00283701  -1.42205e+67   6.56074e+66
   0.00283701  -1.82785e+68   8.21063e+67
   0.00283701  -3.76347e+69   1.73637e+69
   0.00283701  -4.83871e+70   2.17372e+70
   0.00283701  -9.96127e+71   4.59606e+71
   0.00283701  -1.28048e+73   5.75245e+72
   0.00283701  -2.63627e+74   1.21642e+74
   0.00283701  -3.38965e+75    1.5229e+75
   0.00283701  -6.97799e+76    3.2199e+76
   0.00283701  -8.96948e+77   4.02984e+77
   0.00283701  -1.84675e+79   8.52207e+78
   0.00283701  -2.37429e+80   1.06682e+80
   0.00283701   -4.8882e+81   2.25583e+81
   0.00283701  -6.28264e+82   2.82297e+82
   0.00283701  -1.29361e+84   5.97006e+83
   0.00283701  -1.66295e+85   7.47272e+84
   0.00283701  -3.42401e+86   1.58028e+86
   0.00283701  -4.40012e+87   1.97729e+87
   0.00283701  -9.06135e+88   4.18226e+88
   0.00283701  -1.16456e+90   5.23358e+89
   0.00283701  -2.39838e+91   1.10703e+91
   0.00283701  -3.08127e+92   1.38477e+92
   0.00283701  -6.34694e+93   2.92972e+93
   0.00283701  -8.15427e+94    3.6649e+94
   0.00283701  -1.67988e+96   7.75466e+95
   0.00283701  -2.15743e+97   9.69672e+96
   0.00283701  -4.44552e+98   2.05224e+98
   0.00283701  -5.70861e+99   2.56591e+99
   0.00283701 -1.17663e+101  5.43228e+100
   0.00283701 -1.51039e+102  6.78916e+101
   0.00283701 -3.11383e+103  1.43768e+103
   0.00283701 -3.99645e+104   1.7965e+104
   0.00283701 -8.24019e+105  3.80484e+105
   0.00283701 -1.05738e+107  4.75346e+106
   0.00283701  -2.1805e+108  1.00691e+108
   0.00283701 -2.79751e+109  1.25769e+109
   0.00283701 -5.76819e+110  2.66379e+110
   0.00283701 -7.39976e+111  3.32691e+111
   0.00283701 -1.52574e+113  7.04674e+112
   0.00283701 -1.95743e+114  8.80143e+113
   0.00283701 -4.03473e+115  1.86365e+115
   0.00283701 -5.17761e+116  2.32841e+116
   0.00283701   -1.067e+118  4.92927e+117
   0.00283701 -1.36988e+119  6.16157e+118
   0.00283701 -2.82155e+120  1.30361e+120
   0.00283701 -3.62462e+121  1.63082e+121
   0.00283701 -7.46107e+122  3.44759e+122
   0.00283701 -9.57502e+123  4.30631e+123
   0.00283701 -1.97546e+125  9.13441e+124
   0.00283701 -2.54197e+126  1.14412e+126
   0.00283701 -5.19678e+127  2.39894e+127
   0.00283701 -6.75192e+128  3.04213e+128
   0.00283701 -1.37264e+130  6.34208e+129
   0.00283701 -1.77245e+131   7.9686e+130
   0.00283701 -3.67416e+132  1.70216e+132
   0.00283701 -4.71728e+133  2.12376e+133
   0.00283701 -9.54969e+134   4.4048e+134
   0.00283701  -1.2447e+136  5.60292e+135
   0.00283701 -2.54475e+137  1.17777e+137
   0.00283701 -3.30052e+138  1.48775e+138
   0.00283701 -6.69328e+139  3.09323e+139
   0.00283701 -8.73311e+140   3.9393e+140
   0.00283701 -1.77253e+142  8.20297e+141
   0.00283701 -2.29493e+143  1.03334e+143
   0.00283701 -4.70748e+144  2.18208e+144
   0.00283701 -6.08142e+145  2.74337e+145
   0.00283701 -1.23246e+147  5.69488e+146
   0.00283701 -1.61333e+148  7.28621e+147
   0.00283701 -3.27791e+149   1.5191e+149
   0.00283701 -4.21925e+150  1.89995e+150
   0.00283701 -8.65764e+151   4.0105e+151
   0.00283701 -1.11687e+153  5.03482e+152
   0.00283701 -2.27803e+154  1.05376e+154
   0.00283701 -2.95392e+155  1.33129e+155
   0.00283701 -6.02941e+156   2.7917e+156
   0.00283701 -7.79584e+157  3.51254e+157
   0.00283701 -1.59392e+159  7.37962e+158
   0.00283701 -2.06463e+160  9.31067e+159
   0.00283701 -4.20556e+161  1.94574e+161
   0.00283701 -5.45004e+162  2.45587e+162
   0.00283701 -1.11502e+164  5.16503e+163
   0.00283701 -1.43927e+165  6.48492e+164
   0.00283701 -2.94536e+166   1.3638e+166
   0.00283701 -3.81367e+167  1.71996e+167
   0.00283701 -7.77652e+168  3.59878e+168
   0.00283701 -1.00634e+170  4.53376e+169
   0.00283701 -2.06177e+171  9.55012e+170
   0.00283701 -2.66273e+172  1.20056e+172
   0.00283701 -5.44493e+173  2.52037e+173
   0.00283701 -7.02671e+174  3.16489e+174
   0.00283701 -1.44325e+176  6.68423e+175
   0.00283701 -1.85961e+177  8.38385e+176
   0.00283701 -3.81432e+178  1.76579e+178
   0.00283701 -4.89962e+179  2.20563e+179
   0.00283701 -1.01105e+181  4.68296e+180
   0.00283701 -1.29642e+182  5.84087e+181
   0.00283701 -2.67268e+183  1.23767e+183
   0.00283701 -3.42417e+184  1.54178e+184
   0.00283701  -7.0741e+185  3.27657e+185
   0.00283701 -9.05224e+186  4.07574e+186
   0.00283701 -1.87018e+188  8.66059e+187
   0.00283701 -2.39593e+189  1.07879e+189
   0.00283701 -4.94251e+190  2.28855e+190
   0.00283701 -6.34022e+191  2.85489e+191
   0.00283701 -1.30619e+193  6.04729e+192
   0.00283701 -1.67792e+194  7.55597e+193
   0.00283701 -3.45272e+195   1.5984e+195
   0.00283701 -4.43685e+196  1.99742e+196
