# k  POINT_DATA 28084
# x  y  z  k
0 0.000152009 5.5926e-11 0.000997995
-6.46235e-27 -0.000334729 0 0.000998441
0 -0.00109799 0.00116944 0.000999173
1.0842e-19 0.001402 0.00116944 0.000996816
0 0.000152004 0.00233887 0.000804007
-5.16988e-26 -0.00234799 2.31322e-10 0.00100029
0 -0.00234799 0.000212484 0.000982706
0 0.00265199 2.30541e-10 0.000995574
7.02041e-20 -0.002348 0.00233887 0.000806757
0 0.002652 0.00233887 0.000801165
-1.0842e-19 -0.001098 0.00356872 0.000608535
0 -0.003598 0.00116943 0.0010014
0 0.001402 0.00356873 0.000605294
0 0.003902 0.00116944 0.000994331
0 0.000152002 0.00479858 0.000498303
2.06795e-25 -0.00484801 1.64597e-09 0.00100246
2.06795e-25 -0.00484801 0.000833964 0.000933627
-2.1684e-19 -0.003598 0.00356872 0.000611722
1.03398e-25 0.00515199 6.60558e-10 0.000993021
0 -0.0051546 0 0.00100271
1.0842e-19 0.003902 0.00356872 0.000601994
-9.99668e-20 -0.002348 0.00479858 0.000500949
-1.36721e-20 -0.004848 0.00233887 0.000809419
0 0.002652 0.00479858 0.000495624
0 0.005152 0.00233887 0.000798226
0 -0.001098 0.00608215 0.000389158
-2.1684e-19 -0.006098 0.00116943 0.00100352
0 0.001402 0.00608215 0.000387084
0 0.006402 0.00116943 0.00099171
-1.35479e-19 -0.004848 0.00479858 0.000503565
0 0.005152 0.00479858 0.000492912
1.0842e-19 -0.006098 0.00356873 0.000614854
0 -0.003598 0.00608215 0.000391225
1.0842e-19 0.003902 0.00608215 0.000385003
0 0.006402 0.00356872 0.000598633
0 -0.007348 1.17757e-08 0.00100452
0 0.000151999 0.00736572 0.000349236
-3.30872e-24 0.00765203 1.4035e-08 0.00099033
0 -0.007348 0.00233887 0.000811996
0 -0.002348 0.00736572 0.000350688
2.06795e-25 0.002652 0.00736572 0.000347791
0 0.00765201 0.00233888 0.000795188
0 -0.006098 0.00608215 0.000393287
2.1684e-19 -0.008598 0.00116944 0.00100552
0 -0.001098 0.008656 0.000310691
1.0842e-19 0.001402 0.00865601 0.00030987
-4.1359e-25 -0.007348 0.00479858 0.000506152
0 -0.004848 0.00736572 0.000352145
0 0.006402 0.00608215 0.000382914
1.0842e-19 0.008902 0.00116944 0.000988951
-2.06795e-25 0.005152 0.00736572 0.000346353
0 0.007652 0.00479858 0.000490165
-1.0842e-19 -0.008598 0.00356872 0.000617935
0 -0.003598 0.008656 0.000311532
0 0.003902 0.008656 0.00030907
1.0842e-19 0.008902 0.00356872 0.00059521
0 -0.00984799 2.28661e-10 0.00100646
5.16988e-26 0.000152 0.00994629 0.000295666
8.27181e-25 -0.009848 0.00233887 0.000814493
-3.30872e-24 0.010152 1.3999e-08 0.000987499
0 -0.002348 0.00994629 0.000296069
-5.16988e-26 0.002652 0.00994629 0.00029529
0 -0.007348 0.00736572 0.000353607
0 0.010152 0.00233888 0.000792046
-1.03398e-25 -0.0104854 0 0.00100693
0 -0.008598 0.00608215 0.000395344
1.0842e-19 -0.006098 0.008656 0.000312389
0 0.007652 0.00736572 0.00034492
-2.1684e-19 0.006402 0.008656 0.000308289
0 0.008902 0.00608215 0.000380815
-4.1359e-25 -0.009848 0.00479858 0.000508712
5.16988e-26 -0.004848 0.00994629 0.000296492
1.0842e-19 -0.011098 0.00116943 0.0010074
0 0.005152 0.00994629 0.00029494
0 0.010152 0.00479858 0.00048738
1.0842e-19 -0.001098 0.011217 0.000281108
-1.0842e-19 0.001402 0.011217 0.000281147
-1.0842e-19 0.011402 0.00116943 0.000986047
0 -0.011098 0.00356872 0.000620969
2.1684e-19 -0.003598 0.011217 0.000281101
0 0.003902 0.011217 0.00028122
0 0.011402 0.00356872 0.000591721
0 -0.008598 0.00865601 0.000313262
0 -0.009848 0.00736572 0.000355077
-1.03398e-25 -0.012348 6.6811e-10 0.00100829
0 -0.012348 0.000490448 0.000968163
5.16988e-26 -0.007348 0.00994629 0.000296931
1.0842e-19 0.008902 0.008656 0.000307528
0 0.000152 0.0124878 0.000273107
-1.39051e-20 0.010152 0.00736572 0.000343492
0 0.007652 0.00994629 0.000294615
0 -0.012348 0.00233887 0.000816911
-1.65436e-24 0.012652 1.29297e-08 0.00098452
1.0842e-19 -0.011098 0.00608215 0.000397396
-1.29247e-26 -0.002348 0.0124878 0.000272839
0 0.002652 0.0124878 0.000273407
0 -0.006098 0.011217 0.000281106
-8.27181e-25 0.012652 0.00233888 0.000788797
1.0842e-19 0.006402 0.011217 0.000281324
1.0842e-19 0.011402 0.00608215 0.000378706
0 -0.012348 0.00479858 0.000511245
0 -0.004848 0.0124878 0.000272595
0 0.005152 0.0124878 0.00027374
-4.1359e-25 0.012652 0.00479858 0.000484555
-2.1684e-19 -0.013598 0.00116943 0.00100918
1.0842e-19 -0.001098 0.0137433 0.000264855
2.1684e-19 0.001402 0.0137433 0.000265383
1.0842e-19 0.013902 0.00116943 0.000982994
0 -0.009848 0.00994629 0.000297392
-2.1684e-19 -0.013598 0.00356872 0.000623956
-1.0842e-19 -0.011098 0.00865601 0.000314154
1.0842e-19 -0.008598 0.011217 0.000281131
0 -0.003598 0.0137433 0.000264356
-5.16988e-26 0.010152 0.00994629 0.000294313
0 0.003902 0.0137433 0.000265942
-1.0842e-19 0.011402 0.008656 0.000306785
0 0.008902 0.011217 0.000281456
1.0842e-19 0.013902 0.00356872 0.000588163
0 -0.012348 0.00736572 0.000356551
0 -0.007348 0.0124878 0.000272375
2.06795e-25 0.012652 0.00736572 0.000342067
0 0.007652 0.0124878 0.000274103
0 0.0146569 0 0.000982012
0 -0.014848 4.51806e-09 0.00101002
-2.1684e-19 -0.013598 0.00608215 0.000399444
-4.1359e-25 -0.014848 0.00182911 0.00086083
0 0.000152 0.0149988 0.000257656
0 -0.014848 0.00233887 0.000819251
1.0842e-19 -0.006098 0.0137433 0.000263887
0 0.015152 3.19293e-09 0.000981393
1.0842e-19 0.006402 0.0137433 0.000266533
0 0.013902 0.00608215 0.000376585
0 -0.002348 0.0149988 0.000257
4.1359e-25 0.015152 0.00133696 0.00086938
0 0.002652 0.0149988 0.000258342
0 0.015152 0.00233887 0.000785439
0 -0.014848 0.00479858 0.000513751
0 -0.004848 0.0149988 0.000256373
2.1684e-19 -0.011098 0.011217 0.000281189
0 -0.012348 0.00994629 0.000297876
8.07794e-28 0.005152 0.0149988 0.00025906
0 0.015152 0.00479858 0.000481689
0 -0.009848 0.0124878 0.000272177
0 0.011402 0.011217 0.000281617
-5.16988e-26 0.012652 0.00994629 0.000294035
0 0.010152 0.0124878 0.000274497
1.0842e-19 -0.013598 0.008656 0.000315059
2.1684e-19 -0.016098 0.00116943 0.00101086
2.1684e-19 -0.008598 0.0137433 0.000263447
0 -0.001098 0.0162494 0.000249796
0 0.001402 0.0162494 0.000250609
0 0.008902 0.0137433 0.000267158
0 0.013902 0.008656 0.000306061
1.0842e-19 0.016402 0.00116943 0.000979791
1.0842e-19 -0.016098 0.00356872 0.000626895
1.03398e-25 -0.014848 0.00736572 0.000358028
-1.0842e-19 -0.003598 0.0162494 0.000249012
0 -0.007348 0.0149988 0.000255775
0 0.003902 0.0162494 0.000251454
0 0.016402 0.00356872 0.000584534
0 0.007652 0.0149988 0.000259811
0 0.015152 0.00736572 0.000340644
0 -0.016098 0.00608215 0.000401482
0 -0.017348 7.40038e-09 0.00101165
0 -0.006098 0.0162494 0.000248257
9.04729e-26 -0.0172029 0.00233887 0.000821383
0 0.006402 0.0162494 0.00025233
-1.0842e-19 0.016402 0.00608215 0.00037445
-5.34848e-28 0.000152 0.0174957 0.000241418
-5.52613e-20 -0.017348 0.00233887 0.000821514
5.16988e-26 -0.017348 0.00263528 0.000784726
6.46235e-27 -0.012348 0.0124878 0.000271997
0 -0.013598 0.011217 0.000281275
-8.27181e-25 0.017652 5.04984e-09 0.000978114
-1.57772e-30 -0.002348 0.0175 0.000240549
2.1684e-19 -0.011098 0.0137433 0.000263014
1.26218e-29 0.002652 0.0174954 0.000242317
2.06795e-25 0.017652 0.00202524 0.00080827
0 0.012652 0.0124878 0.000274922
4.90094e-20 0.017652 0.00233887 0.000781968
0 0.011402 0.0137433 0.000267815
-1.0842e-19 0.013902 0.011217 0.000281808
-2.58494e-26 -0.014848 0.00994629 0.000298376
0 -0.009848 0.0149988 0.000255196
0 -0.017348 0.00479858 0.000516228
8.07794e-28 0.010152 0.0149988 0.000260593
0 0.015152 0.00994629 0.000293782
-9.15079e-29 -0.004848 0.0174955 0.000239708
-3.61298e-28 0.005152 0.0174953 0.000243245
0 -0.016098 0.008656 0.000315973
2.20506e-20 0.017652 0.00479858 0.00047878
0 -0.008598 0.0162494 0.000247528
1.0842e-19 0.008902 0.0162494 0.000253238
0 0.016402 0.008656 0.000305355
-1.0842e-19 -0.018598 0.00116943 0.00101243
0 -0.001098 0.01875 0.00023215
0 0.001402 0.01875 0.000233103
0 -0.017348 0.00736572 0.000359503
-1.0842e-19 -0.018598 0.00356872 0.000629786
0 0.018902 0.00116943 0.000976437
-1.43573e-28 -0.007348 0.0174953 0.000238892
0 -0.003598 0.01875 0.000231223
1.60928e-28 0.007652 0.0174955 0.000244203
0 0.017652 0.00736572 0.000339224
-1.0842e-19 0.003902 0.01875 0.000234084
0 0.018902 0.00356872 0.000580832
0 -0.013598 0.0137433 0.000262585
0 -0.014848 0.0124878 0.000271831
0 -0.012348 0.0149988 0.000254626
-1.0842e-19 0.013902 0.0137433 0.000268504
0 -0.018598 0.00608215 0.000403508
-2.1684e-19 -0.016098 0.011217 0.000281374
0 0.012652 0.0149988 0.000261409
0 0.015152 0.0124878 0.000275379
0 -0.011098 0.0162494 0.000246815
-1.0842e-19 -0.006098 0.01875 0.000230322
0 0.006402 0.01875 0.000235094
1.65436e-24 -0.019848 8.29598e-09 0.00101317
0 0.011402 0.0162494 0.00025418
-2.1684e-19 0.018902 0.00608215 0.0003723
-2.1684e-19 0.016402 0.011217 0.00028203
-1.24278e-20 -0.019848 0.00233887 0.000823701
1.29247e-26 -0.017348 0.00994629 0.000298886
3.28979e-21 0.000152 0.02 0.000221842
-3.07656e-28 -0.009848 0.017495 0.000238096
6.45119e-20 -0.002348 0.02 0.000220884
0 0.020152 4.1787e-09 0.000974685
8.08456e-20 0.002652 0.02 0.000222826
-1.89327e-28 0.010152 0.0174956 0.000245193
4.1359e-25 0.020152 0.00178799 0.000824621
-2.58494e-26 0.017652 0.00994629 0.000293553
0 0.020152 0.00233887 0.000778386
0 -0.019848 0.00443348 0.00056395
-2.58494e-26 -0.019848 0.00479858 0.000518673
-1.0842e-19 -0.018598 0.008656 0.000316893
-9.67102e-20 -0.004848 0.02 0.00021995
-1.0842e-19 -0.008598 0.01875 0.000229443
8.08456e-20 0.005152 0.02 0.000223836
2.06795e-25 0.020152 0.00479858 0.000475826
1.0842e-19 0.008902 0.01875 0.000236134
-1.0842e-19 0.018902 0.00865601 0.000304666
4.1359e-25 0.0208236 0 0.000973723
-4.03897e-28 -0.014848 0.0149988 0.000254065
-1.0842e-19 -0.021098 0.00116943 0.0010139
0 -0.016098 0.0137433 0.000262165
0 -0.019848 0.00736572 0.000360975
0 -0.013598 0.0162494 0.000246111
1.0842e-19 -0.001098 0.02125 0.000210565
0 0.001402 0.02125 0.000211553
8.08456e-20 -0.007348 0.02 0.000219038
0 0.015152 0.0149988 0.000262259
1.61559e-27 -0.017348 0.0124878 0.000271677
1.0842e-19 0.013902 0.0162494 0.000255155
-1.0842e-19 -0.021098 0.00356872 0.000632625
-1.0842e-19 0.016402 0.0137433 0.000269228
2.05104e-28 -0.012348 0.0174939 0.000237351
-9.67102e-20 0.007652 0.02 0.000224873
5.84013e-20 -0.012348 0.0175 0.000237309
-2.1684e-19 0.021402 0.00116943 0.000972932
0 0.020152 0.00736572 0.000337804
1.0842e-19 -0.003598 0.02125 0.0002096
-2.61902e-28 0.012652 0.0174953 0.000246215
0 0.003902 0.02125 0.000212564
0 0.017652 0.0124878 0.000275869
0 -0.0211569 0.00479858 0.000519935
0 0.021402 0.00356872 0.000577058
-1.0842e-19 -0.018598 0.011217 0.000281487
0 -0.011098 0.01875 0.00022858
1.0842e-19 0.011402 0.01875 0.000237204
0 -0.021098 0.00608215 0.000405521
-1.0842e-19 0.018902 0.011217 0.000282282
-1.0842e-19 -0.006098 0.02125 0.000208656
0 0.006402 0.02125 0.000213601
0 -0.019848 0.00994629 0.000299406
0 0.021402 0.00608215 0.000370133
8.08456e-20 -0.009848 0.02 0.000218144
0 -0.022348 8.9637e-09 0.00101459
3.28979e-21 0.010152 0.02 0.000225938
4.7591e-20 -0.022348 0.00233887 0.000825812
0 0.020152 0.00994629 0.000293348
8.08456e-20 0.000152 0.0225 0.00019828
-3.54881e-20 -0.002348 0.0225 0.000197322
-1.65436e-24 0.022652 1.13766e-08 0.000971105
8.08456e-20 0.002652 0.0225 0.000199259
0 0.022652 0.00233887 0.000774691
-1.0842e-19 -0.021098 0.008656 0.000317818
-5.63276e-21 -0.022348 0.00479858 0.000521084
-1.0842e-19 -0.016098 0.0162494 0.000245419
1.0842e-19 -0.008598 0.02125 0.000207732
0 -0.017348 0.0149988 0.000253515
-1.40417e-28 -0.014848 0.0174901 0.000236608
-1.57772e-30 -0.014848 0.0175 0.000236539
-3.54881e-20 -0.004848 0.0225 0.000196385
0 0.008902 0.02125 0.000214664
-3.54881e-20 0.005152 0.0225 0.000200261
2.1684e-19 0.021402 0.008656 0.000303994
-1.0842e-19 0.016402 0.0162494 0.000256164
-1.0842e-19 -0.018598 0.0137433 0.000261759
-1.10441e-28 0.015152 0.0174946 0.00024727
0 0.022652 0.00479858 0.000472828
0 -0.013598 0.01875 0.000227732
0 0.017652 0.0149988 0.000263143
0 0.013902 0.01875 0.000238304
0 -0.022348 0.00679963 0.000397423
1.0842e-19 0.018902 0.0137433 0.000269986
8.07794e-28 -0.019848 0.0124878 0.000271537
1.58401e-19 -0.012348 0.02 0.000217267
0 -0.022348 0.00736572 0.00036244
-1.0842e-19 -0.023598 0.00116943 0.00101527
3.28979e-21 0.012652 0.02 0.000227032
8.08456e-20 -0.007348 0.0225 0.000195467
0 0.020152 0.0124878 0.00027639
-9.67102e-20 0.007652 0.0225 0.000201287
1.0842e-19 -0.001098 0.02375 0.000185027
-1.0842e-19 0.001402 0.02375 0.000185976
0 0.022652 0.00736572 0.000336384
0 -0.023598 0.00356872 0.000635411
-1.0842e-19 -0.021098 0.011217 0.000281614
0 0.023902 0.00116944 0.000969277
-1.0842e-19 -0.011098 0.02125 0.000206824
0 -0.003598 0.02375 0.000184098
-1.0842e-19 0.003902 0.02375 0.000186945
0 0.011402 0.02125 0.000215753
1.0842e-19 0.021402 0.011217 0.000282563
-2.1684e-19 0.023902 0.00356872 0.00057321
1.0842e-19 -0.023598 0.00608215 0.000407517
0 -0.0233185 0.00736572 0.000363007
0 -0.022348 0.00994629 0.000299936
1.0842e-19 -0.006098 0.02375 0.000183187
1.58401e-19 -0.009848 0.0225 0.000194566
-1.0842e-19 0.006402 0.02375 0.000187936
9.6241e-29 -0.017348 0.0174762 0.00023595
1.97432e-20 -0.017348 0.0175 0.000235781
0 0.023902 0.00608215 0.000367952
3.28979e-21 0.010152 0.0225 0.000202337
1.0842e-19 -0.018598 0.0162494 0.00024474
1.0842e-19 -0.016098 0.01875 0.000226896
0 0.022652 0.00994629 0.000293165
1.65436e-24 -0.024848 1.04578e-08 0.00101591
-8.67747e-29 0.017652 0.0174937 0.000248389
-1.57772e-30 0.017652 0.0175 0.000248352
0 -0.019848 0.0149988 0.000252981
-5.99305e-20 -0.014848 0.02 0.000216403
-1.0842e-19 0.016402 0.01875 0.000239437
1.0842e-19 0.018902 0.0162494 0.000257208
0 -0.024848 0.00233887 0.000827848
-9.67102e-20 0.000152 0.025 0.000171109
3.28979e-21 0.015152 0.02 0.000228156
3.28979e-21 -0.002348 0.025 0.000170216
-8.07794e-28 0.020152 0.0149988 0.00026406
1.0842e-19 -0.023598 0.008656 0.000318747
-9.67102e-20 0.002652 0.025 0.000172021
1.65436e-24 0.025152 1.2557e-08 0.000967378
1.0842e-19 -0.021098 0.0137433 0.00026137
1.0842e-19 -0.013598 0.02125 0.000205931
1.0842e-19 -0.008598 0.02375 0.000182293
0 0.025152 0.00233887 0.000770887
0 -0.024848 0.00479858 0.00052346
1.0842e-19 0.008902 0.02375 0.000188948
-1.0842e-19 0.013902 0.02125 0.000216869
-1.0842e-19 0.023902 0.008656 0.000303338
1.0842e-19 0.021402 0.0137433 0.000270777
3.28979e-21 -0.004848 0.025 0.000169341
-3.54881e-20 0.005152 0.025 0.000172951
0 -0.022348 0.0124878 0.000271414
2.06795e-25 0.025152 0.00479858 0.000469786
1.58401e-19 -0.012348 0.0225 0.00019368
-9.67102e-20 0.012652 0.0225 0.000203411
-6.46235e-27 0.022652 0.0124878 0.000276943
4.59463e-20 -0.024848 0.00736572 0.0003639
8.08456e-20 -0.007348 0.025 0.000168482
0 -0.026098 0.00116943 0.00101655
0 -0.023598 0.011217 0.000281757
8.08456e-20 0.007652 0.025 0.000173902
0 0.025152 0.00736572 0.000334966
0 -0.011098 0.02375 0.000181415
0 -0.001098 0.02625 0.000156289
-1.0842e-19 0.001402 0.02625 0.000157145
0 -0.026098 0.00356872 0.000638142
1.0842e-19 0.011402 0.02375 0.000189983
-1.0842e-19 0.023902 0.011217 0.000282874
1.0842e-19 -0.018598 0.01875 0.000226073
1.26218e-29 -0.019848 0.0174442 0.000235438
0 0.026402 0.00116944 0.000965479
8.11948e-20 -0.019848 0.0175 0.000235038
3.20767e-20 -0.017348 0.02 0.000215552
1.0842e-19 -0.003598 0.02625 0.000155451
1.0842e-19 0.003902 0.02625 0.000158018
-1.61559e-27 -0.024848 0.0095575 0.000310032
-1.0842e-19 0.018902 0.01875 0.000240603
0 -0.021098 0.0162494 0.000244076
-2.1684e-19 0.026402 0.00356872 0.000569292
-2.1684e-19 -0.016098 0.02125 0.000205052
8.08456e-20 0.017652 0.02 0.00022931
-4.57539e-29 0.020152 0.0174939 0.000249509
0 0.020152 0.0175 0.000249474
0 -0.024848 0.00994629 0.000300476
0 -0.026098 0.00608215 0.000409495
-1.0842e-19 0.016402 0.02125 0.000218013
8.08456e-20 -0.009848 0.025 0.000167639
1.0842e-19 0.021402 0.0162494 0.000258286
-1.00974e-28 -0.022348 0.0149988 0.000252463
0 -0.006098 0.02625 0.000154628
1.01292e-19 -0.014848 0.0225 0.00019281
8.08456e-20 0.010152 0.025 0.000174873
1.0842e-19 0.006402 0.02625 0.000158908
5.16988e-26 0.025152 0.00994629 0.000293006
1.0842e-19 0.026402 0.00608215 0.000365757
8.08456e-20 0.015152 0.0225 0.000204511
0 0.022652 0.0149988 0.000265013
0 -0.023598 0.0137433 0.000261
0 -0.027348 1.20369e-08 0.00101714
0 -0.013598 0.02375 0.000180552
5.2784e-20 -0.027348 0.00233887 0.000829811
1.0842e-19 -0.026098 0.00865601 0.000319681
3.28979e-21 0.000152 0.0275 0.000141758
-6.46866e-29 0.000152 0.027515 0.000141582
0 0.013902 0.02375 0.000191041
0 -0.0256961 0.00994629 0.000300663
0 0.023902 0.0137433 0.000271603
8.08456e-20 -0.002348 0.0275 0.000140975
0 -0.008598 0.02625 0.00015382
6.45162e-20 0.002652 0.0275 0.000142556
-3.15544e-30 -0.002348 0.0275346 0.00014057
9.46633e-30 0.002652 0.0275104 0.000142433
1.65436e-24 0.027652 1.18528e-08 0.000963515
-1.0842e-19 0.008902 0.02625 0.000159818
-4.1359e-25 0.027652 0.00233887 0.000766981
7.78143e-20 -0.027348 0.00479858 0.0005258
-1.0842e-19 0.026402 0.008656 0.0003027
0 -0.024848 0.0124878 0.000271309
-9.67102e-20 -0.012348 0.025 0.000166811
-9.67102e-20 -0.004848 0.0275 0.000140208
-9.67102e-20 0.005152 0.0275 0.000143371
-1.41995e-28 0.005152 0.0275096 0.000143257
-9.67102e-20 0.012652 0.025 0.000175865
-1.41995e-29 -0.004848 0.0276314 0.000138677
0 0.027652 0.00479858 0.000466705
1.29247e-26 0.025152 0.0124878 0.000277527
1.01872e-19 -0.019848 0.02 0.000214715
0 -0.021098 0.01875 0.000225266
0 -0.018598 0.02125 0.000204187
-3.90552e-20 -0.027348 0.00736572 0.000365355
-1.57772e-30 -0.022348 0.01746 0.0002346
-1.57772e-30 -0.022348 0.0175 0.00023431
8.08456e-20 0.020152 0.02 0.000230494
0 -0.026098 0.011217 0.000281916
8.30758e-20 -0.017348 0.0225 0.000191953
1.0842e-19 0.018902 0.02125 0.000219186
0 0.021402 0.01875 0.000241801
-9.67087e-20 -0.007348 0.0275 0.000139454
1.0842e-19 -0.011098 0.02625 0.000153028
1.57772e-30 -0.007348 0.0275604 0.000138755
8.08456e-20 0.007652 0.0275 0.000144202
-1.49884e-28 0.007652 0.0275105 0.000144077
8.08456e-20 0.017652 0.0225 0.000205638
0 0.027652 0.00736572 0.00033355
-1.0842e-19 0.011402 0.02625 0.000160746
-1.26218e-28 0.022652 0.0174949 0.000250634
0 -0.028598 0.00116944 0.00101774
0 -0.023598 0.0162494 0.000243428
2.1684e-19 0.026402 0.011217 0.000283214
-1.0842e-19 -0.016098 0.02375 0.000179703
1.0842e-19 -0.001098 0.0287506 0.000126434
-1.0842e-19 0.001402 0.0287506 0.000127159
-1.0842e-19 -0.028598 0.00356873 0.00064082
-1.0842e-19 0.016402 0.02375 0.000192123
0 0.023902 0.0162494 0.0002594
1.0842e-19 0.028902 0.00116944 0.00096155
-1.0842e-19 -0.003598 0.0287506 0.000125722
0 0.003902 0.0287506 0.000127899
0 -0.024848 0.0149988 0.000251963
-9.67102e-20 -0.014848 0.025 0.000165997
-2.74669e-20 -0.027348 0.00994629 0.000301027
0 0.028902 0.00356872 0.000565311
3.28979e-21 -0.009848 0.0275 0.000138715
-3.15544e-30 -0.009848 0.0275241 0.000138437
8.08456e-20 0.015152 0.025 0.000176879
0 -0.028598 0.00608215 0.000411459
8.07794e-28 0.025152 0.0149988 0.000266
8.08456e-20 0.010152 0.0275 0.000145051
-3.47099e-29 0.010152 0.0275124 0.000144901
0 0.027652 0.00994629 0.00029287
0 -0.006098 0.0287506 0.000125025
0 0.006402 0.0287506 0.000128654
1.0842e-19 -0.026098 0.0137433 0.000260648
-1.0842e-19 0.028902 0.00608215 0.00036355
0 -0.013598 0.02625 0.000152249
-1.0842e-19 0.013902 0.02625 0.000161693
0 0.026402 0.0137433 0.000272462
0 -0.029848 1.28842e-08 0.00101829
0 -0.028598 0.008656 0.000320622
-5.67942e-20 -0.029848 0.00233887 0.000831705
-1.0842e-19 -0.021098 0.02125 0.000203336
0 -0.027348 0.0123058 0.000273355
-1.11768e-19 -0.022348 0.02 0.000213893
-2.01948e-28 0.000152 0.0300012 0.000112356
2.22018e-20 -0.019848 0.0225 0.000191109
0 -0.008598 0.0287506 0.00012434
0 -0.027348 0.0124878 0.000271221
1.00974e-28 -0.002348 0.0300012 0.000111712
1.0842e-19 0.008902 0.0287506 0.000129424
0 0.002652 0.0300012 0.000113013
0 -0.023598 0.01875 0.000224472
-1.30406e-20 -0.012348 0.0275 0.000137989
-1.65436e-24 0.030152 9.17765e-09 0.000959524
0 0.021402 0.02125 0.000220387
-9.15079e-29 -0.012348 0.0275167 0.000137797
-1.0842e-19 -0.018598 0.02375 0.000178868
1.0842e-19 0.028902 0.008656 0.00030208
8.08456e-20 0.020152 0.0225 0.00020679
-9.67102e-20 0.022652 0.02 0.000231709
-1.36003e-20 -0.029848 0.00479858 0.000528107
0 0.030152 0.00233887 0.000762981
-9.67063e-20 0.012652 0.0275 0.000145916
-7.25752e-29 0.012652 0.0275145 0.000145742
0 0.027652 0.0124878 0.000278143
-1.0842e-19 0.018902 0.02375 0.000193229
3.62876e-29 -0.024848 0.0174695 0.000233822
0 0.023902 0.01875 0.000243031
0 -0.004848 0.0300012 0.000111079
0 -0.024848 0.0175 0.000233598
-9.67102e-20 -0.017348 0.025 0.000165196
0 0.005152 0.0300012 0.000113684
0 0.030152 0.00479858 0.000463588
8.08456e-20 0.017652 0.025 0.000177915
1.30951e-28 0.025152 0.0174955 0.000251822
0 -0.028598 0.011217 0.000282091
1.0842e-19 -0.026098 0.0162494 0.000242798
-1.01162e-20 -0.029848 0.00736572 0.000366805
-1.0842e-19 -0.016098 0.02625 0.000151483
1.0842e-19 -0.011098 0.0287506 0.000123667
0 -0.0281823 0.0124878 0.000271197
5.04871e-29 -0.007348 0.0300012 0.000110459
-1.0842e-19 0.011402 0.0287506 0.00013021
0 0.016402 0.02625 0.000162661
0 0.007652 0.0300012 0.000114367
1.0842e-19 0.026402 0.0162494 0.000260548
0 0.028902 0.011217 0.000283585
5.16988e-26 0.030152 0.00736572 0.000332139
1.0842e-19 -0.031098 0.00116944 0.00101885
1.00974e-28 -0.027348 0.0149988 0.000251481
5.28799e-21 -0.014848 0.0275 0.000137276
-9.30856e-29 -0.014848 0.0275159 0.000137093
1.0842e-19 -0.001098 0.0312567 9.76083e-05
-1.0842e-19 0.001402 0.0312567 9.81843e-05
1.0842e-19 -0.031098 0.00356873 0.000643449
8.08456e-20 0.015152 0.0275 0.0001468
1.27795e-28 0.015152 0.0275161 0.000146605
0 0.031402 0.00116944 0.000957497
0 0.027652 0.0149988 0.00026702
-4.36306e-20 -0.029848 0.00994629 0.000301589
0 -0.003598 0.0312567 9.70433e-05
-2.1684e-19 0.003902 0.0312567 9.87717e-05
0 -0.009848 0.0300012 0.00010985
2.1684e-19 0.031402 0.00356872 0.000561272
0 0.010152 0.0300012 0.000115065
0 -0.031098 0.00608215 0.000413407
6.44825e-21 -0.022348 0.0225 0.000190278
0 -0.028598 0.0137433 0.000260316
0 0.030152 0.00994629 0.00029276
1.0842e-19 -0.023598 0.02125 0.000202498
-1.0842e-19 -0.021098 0.02375 0.000178045
1.0842e-19 -0.013598 0.0287506 0.000123007
-1.0842e-19 -0.006098 0.0312567 9.64888e-05
-2.52908e-20 -0.024848 0.02 0.000213085
1.0842e-19 0.006402 0.0312567 9.93708e-05
-3.54881e-20 -0.019848 0.025 0.000164407
-1.57772e-30 0.022652 0.0225 0.00020797
0 0.013902 0.0287506 0.000131011
0 0.021402 0.02375 0.000194359
0 0.023902 0.02125 0.000221618
-1.0842e-19 0.031402 0.00608215 0.000361336
0 0.028902 0.0137433 0.000273354
-1.91544e-20 0.020152 0.025 0.000178973
-9.67102e-20 0.025152 0.02 0.000232956
2.1684e-19 -0.026098 0.01875 0.000223695
1.0842e-19 -0.018598 0.02625 0.00015073
0 0.0319167 0.00479858 0.000461367
0 -0.031098 0.008656 0.000321568
-5.16988e-26 -0.0322927 0 0.00101934
1.0842e-19 0.018902 0.02625 0.000163648
-5.16988e-26 -0.032348 2.91356e-10 0.00101936
-4.1359e-25 -0.032348 0.000175023 0.00100545
4.03897e-28 -0.029848 0.0124878 0.00027115
-1.0842e-19 0.026402 0.01875 0.000244295
1.55096e-25 -0.0324042 0 0.00101938
-1.0842e-19 -0.008598 0.0312567 9.59448e-05
1.44542e-19 -0.032348 0.00233887 0.000833536
0 -0.012348 0.0300012 0.000109252
1.89327e-29 -0.027348 0.0174553 0.000233235
1.09087e-20 -0.027348 0.0175 0.000232903
2.1684e-19 0.008902 0.0312567 9.99818e-05
0 0.000152 0.0325122 8.4531e-05
6.22817e-20 -0.017348 0.0275 0.000136574
-3.47099e-29 -0.017348 0.0275201 0.000136345
2.58494e-26 0.0324498 0.00233887 0.000759224
0 0.012652 0.0300012 0.000115776
0 0.031402 0.008656 0.00030148
0 -0.002348 0.0325122 8.40352e-05
0 0.002652 0.0325122 8.50365e-05
-6.46235e-27 0.030152 0.0124878 0.000278792
8.27181e-25 0.032652 4.94574e-09 0.000955414
8.08456e-20 0.017652 0.0275 0.000147701
1.41995e-28 0.017652 0.0275173 0.00014749
-1.2015e-19 -0.032348 0.00479858 0.000530381
0 0.027652 0.0175 0.000253045
2.58494e-26 0.032652 0.00225989 0.000765529
8.04226e-22 0.032652 0.00233887 0.000758893
0 -0.004848 0.0325122 8.3549e-05
0 -0.028598 0.0162494 0.000242186
-6.46235e-27 0.005152 0.0325122 8.55522e-05
1.0842e-19 -0.016098 0.0287506 0.000122358
1.33458e-19 0.032652 0.00479858 0.000460441
0 -0.031098 0.011217 0.000282281
-1.0842e-19 0.016402 0.0287506 0.000131828
1.29247e-26 0.032292 0.00736572 0.000330939
-1.0842e-19 0.028902 0.0162494 0.00026173
-1.0842e-19 -0.011098 0.0312567 9.54108e-05
2.70902e-21 -0.032348 0.00736572 0.00036825
-1.0842e-19 0.011402 0.0312567 0.000100604
-4.03897e-28 -0.007348 0.0325122 8.30721e-05
0 0.031402 0.011217 0.000283987
0 -0.029848 0.0148717 0.000252037
-3.23117e-27 0.007652 0.0325122 8.6078e-05
-2.52435e-29 -0.029848 0.0149988 0.000251018
-2.16887e-20 0.032652 0.00736572 0.000330737
2.01948e-28 -0.014848 0.0300012 0.000108665
0 -0.023598 0.02375 0.000177235
-1.94123e-20 -0.024848 0.0225 0.000189462
6.45119e-20 -0.022348 0.025 0.000163631
2.01948e-28 0.015152 0.0300012 0.000116502
-1.0842e-19 -0.033598 0.00116944 0.00101988
1.0842e-19 -0.026098 0.02125 0.000201675
0 0.030152 0.0149988 0.000268074
1.0842e-19 -0.021098 0.02625 0.000149985
1.0842e-19 0.023902 0.02375 0.000195515
8.08456e-20 0.022652 0.025 0.000180054
8.08456e-20 0.025152 0.0225 0.000209177
2.1684e-19 -0.033598 0.00356873 0.000646026
-1.0842e-19 -0.001098 0.033783 7.08985e-05
1.0842e-19 0.001402 0.0337829 7.13234e-05
3.05031e-20 -0.032348 0.00994629 0.000302161
1.0842e-19 0.021402 0.02625 0.000164656
-8.38186e-20 -0.027348 0.02 0.000212293
0 0.026402 0.02125 0.000222879
4.56e-20 -0.019848 0.0275 0.000135882
1.0842e-19 0.033902 0.00116944 0.000953332
-5.52203e-29 -0.019848 0.0275551 0.000135257
1.61559e-27 -0.009848 0.0325122 8.26042e-05
2.1684e-19 -0.003598 0.0337829 7.04821e-05
-1.0842e-19 -0.031098 0.0137433 0.000260002
0 0.003902 0.033783 7.17568e-05
0 0.010152 0.0325122 8.66142e-05
0 0.032652 0.00973115 0.000295849
2.1684e-19 -0.013598 0.0312567 9.48862e-05
0 0.033902 0.00356872 0.000557181
8.08486e-20 0.020152 0.0275 0.000148621
7.57306e-29 0.020152 0.0275172 0.00014841
8.08456e-20 0.027652 0.02 0.000234233
0 0.032652 0.00994629 0.000292676
-1.0842e-19 -0.033598 0.00608215 0.000415339
0 -0.028598 0.01875 0.000222935
1.0842e-19 0.013902 0.0312567 0.00010124
-8.07794e-28 0.0327502 0.00994629 0.000292674
-2.1684e-19 -0.018598 0.0287506 0.000121719
2.1684e-19 0.031402 0.0137433 0.00027428
1.0842e-19 -0.006098 0.033783 7.00736e-05
-1.0842e-19 0.006402 0.033783 7.21987e-05
2.1684e-19 0.018902 0.0287506 0.000132662
1.0842e-19 0.033902 0.00608215 0.000359121
0 0.028902 0.01875 0.000245591
6.31089e-30 -0.029848 0.0173696 0.000233205
-1.57772e-30 -0.029848 0.0175 0.000232225
0 -0.017348 0.0300012 0.000108086
0 -0.032348 0.0124878 0.000271096
-2.1684e-19 -0.033598 0.008656 0.000322519
0 -0.012348 0.0325122 8.21449e-05
0 0.017652 0.0300012 0.000117242
0 -0.034848 1.26667e-08 0.00102035
-1.89327e-28 0.030152 0.0174931 0.000254334
-1.0842e-19 -0.008598 0.0337829 6.96734e-05
0 0.030152 0.0175 0.000254296
-3.23117e-27 0.012652 0.0325122 8.71609e-05
0 -0.034848 0.00233887 0.000835301
-2.1684e-19 0.008902 0.0337829 7.26496e-05
0 0.032652 0.0124878 0.000279473
0 0.033902 0.008656 0.000300903
-1.29247e-26 0.000152 0.0350537 5.94104e-05
1.0842e-19 -0.031098 0.0162494 0.000241592
6.46235e-27 -0.002348 0.0350537 5.90435e-05
2.06795e-25 0.035152 1.12789e-09 0.000951202
-2.58494e-26 0.002652 0.0350537 5.97838e-05
-1.0842e-19 -0.016098 0.0312567 9.43703e-05
2.06795e-25 0.035152 0.00080481 0.000883595
-2.06795e-25 -0.034848 0.00479858 0.000532622
-2.85501e-21 0.035152 0.00233887 0.00075473
-1.13044e-19 -0.024848 0.025 0.000162869
1.0842e-19 -0.026098 0.02375 0.000176441
1.0842e-19 -0.023598 0.02625 0.000149259
0 0.016402 0.0312567 0.000101888
1.0842e-19 0.031402 0.0162494 0.000262946
-1.61559e-27 0.0330881 0.0124878 0.000279598
0 -0.004848 0.0350537 5.86828e-05
4.239e-20 -0.027348 0.0225 0.000188661
0 -0.033598 0.011217 0.000282486
-5.16988e-26 0.005152 0.0350537 6.01639e-05
6.13535e-20 -0.022348 0.0275 0.000135202
-1.91544e-20 0.025152 0.025 0.000181158
3.79957e-20 0.035152 0.00479858 0.000457272
0 0.023902 0.02625 0.000165686
0 0.026402 0.02375 0.000196696
0 -0.032348 0.0147234 0.000252824
1.0842e-19 -0.011098 0.0337829 6.92809e-05
2.01948e-28 -0.0333543 0.0124878 0.000271081
1.0413e-19 -0.034848 0.00736572 0.00036969
-9.67071e-20 0.022652 0.0275 0.00014956
0 -0.028598 0.02125 0.000200869
-5.20648e-29 0.022652 0.0275165 0.000149357
8.08456e-20 0.027652 0.0225 0.000210412
2.1684e-19 0.011402 0.0337829 7.31091e-05
-5.04871e-29 -0.032348 0.0149988 0.000250573
0 -0.021098 0.0287506 0.000121089
-2.1684e-19 0.033902 0.011217 0.000284423
1.61559e-27 -0.014848 0.0325122 8.16933e-05
-4.03897e-28 -0.007348 0.0350537 5.83284e-05
0 0.021402 0.0287506 0.000133513
0 0.015152 0.0325122 8.77183e-05
0 0.028902 0.02125 0.000224169
0 0.007652 0.0350537 6.05507e-05
6.53299e-20 0.035152 0.00736572 0.000329348
-9.15793e-20 -0.029848 0.02 0.000211518
0 0.032652 0.0149988 0.000269162
-5.04871e-29 -0.019848 0.0300012 0.000107517
-4.03897e-28 -0.007348 0.0352421 5.67704e-05
-1.0842e-19 -0.036098 0.00116944 0.00102083
-2.01948e-28 0.020152 0.0300012 0.000117996
-1.91544e-20 0.030152 0.02 0.000235542
-1.38042e-19 -0.034848 0.00994629 0.000302744
1.0842e-19 -0.036098 0.00356873 0.000648553
1.0842e-19 -0.033598 0.0137433 0.000259706
0 -0.031098 0.01875 0.000222191
1.0842e-19 -0.001098 0.036344 4.74907e-05
1.0842e-19 0.001402 0.036344 4.78058e-05
1.0842e-19 -0.018598 0.0312567 9.386e-05
0 -0.009848 0.0350537 5.79798e-05
1.0842e-19 -0.013598 0.033783 6.88954e-05
0 0.036402 0.00116943 0.000949072
0 0.010152 0.0350537 6.09442e-05
0 -0.0207792 0.0300012 0.000107309
0 -0.003598 0.036344 4.71799e-05
0 0.018902 0.0312567 0.000102548
0 0.013902 0.0337829 7.35773e-05
-6.30886e-20 0.035152 0.00994629 0.000292623
0 0.0333192 0.0149988 0.000269462
0 0.003902 0.036344 4.81254e-05
1.0842e-19 0.031402 0.01875 0.00024692
-2.1684e-19 0.036402 0.00356873 0.000553047
2.1684e-19 0.033902 0.0137433 0.00027524
1.0842e-19 -0.036098 0.00608215 0.000417256
1.10441e-29 -0.032348 0.0174273 0.000232118
-5.04871e-29 -0.019848 0.0309282 9.76571e-05
0 -0.032348 0.0175 0.000231565
0 -0.017348 0.0325122 8.12481e-05
0 -0.006098 0.036344 4.68735e-05
-1.0842e-19 0.006402 0.036344 4.845e-05