# k  POINT_DATA 27775
# x  y  z  k
4.11098e-11 0 0 0.000998134
-0.000152009 2.71051e-20 0 0.000997318
0.00015201 0 0 0.000998959
-0.000152008 2.71051e-20 0.000142211 0.000997318
0.000152009 0 0.000142211 0.000998959
-0.00125 -1.0842e-19 0.00116944 0.000991384
0.00125 1.0842e-19 0.00116944 0.00100489
2.67344e-09 0 0.00234132 0.000804012
-0.00234799 0 0 0.000985558
0.002348 0 0 0.00101094
-0.00234799 -2.71051e-20 0.00014221 0.000985558
0.002348 0 0.000142211 0.00101094
-0.0025 2.71051e-20 0 0.000984749
0.00250001 0 0 0.00101177
-0.00265201 0 0 0.000983947
0.00265202 2.71051e-20 0 0.00101261
-0.00265201 -2.71051e-20 0.000142211 0.000983947
0.00265202 0 0.000142211 0.00101261
-0.0025 0 0.00234132 0.000794175
0.0025 1.35525e-20 0.00234132 0.000814039
-0.00125 0 0.00356872 0.000603963
0.00125 -1.0842e-19 0.00356873 0.000610261
-0.00374999 1.0842e-19 0.00116944 0.000978121
0.00375 0 0.00116944 0.00101865
2.03462e-09 4.51751e-21 0.00480076 0.000498381
-0.00484797 0 0 0.0009724
0.004848 0 0 0.00102481
-0.00484797 -2.71051e-20 0.000142211 0.0009724
0.004848 0 0.000142212 0.00102481
-0.00499998 2.71051e-20 0 0.000971605
0.00500001 2.71051e-20 0 0.00102565
-0.00515199 0 0 0.000970817
0.00515202 0 0 0.00102651
-0.00515199 0 0.00014221 0.000970817
0.00515202 -2.71051e-20 0.000142212 0.00102651
-0.00375 -2.1684e-19 0.00356873 0.000597787
0.00375 0 0.00356872 0.000616701
-0.0025 0 0.00480076 0.000494104
0.0025 4.51751e-21 0.00480076 0.000502751
-0.00499999 -9.03502e-21 0.00234132 0.000784525
0.005 -1.35525e-20 0.00234132 0.00082426
-0.00125 1.0842e-19 0.00608215 0.000387089
0.00125 0 0.00608215 0.000389405
-0.00624999 2.1684e-19 0.00116944 0.000965096
0.00625001 0 0.00116944 0.00103266
-0.005 0 0.00480076 0.000489921
0.005 -4.51751e-21 0.00480076 0.000507215
-0.00375 0 0.00608215 0.000384824
0.00375 1.0842e-19 0.00608215 0.000391779
-0.00624999 1.0842e-19 0.00356872 0.000591747
0.00625 0 0.00356873 0.000623269
-0.00734797 -2.71051e-20 0 0.000959479
0.00734801 0 0 0.00103893
-0.00734797 2.71051e-20 0.000142211 0.000959479
0.00734801 0 0.000142199 0.00103893
9.87617e-10 4.51751e-21 0.00736599 0.00034932
-0.00749998 0 0 0.000958699
0.00750001 0 0 0.0010398
-0.00765199 0 0 0.000957925
0.007652 2.71051e-20 0 0.00104067
-0.00765199 2.71051e-20 0.000142211 0.000957925
0.007652 0 0.0001422 0.00104067
-0.0025 4.51751e-21 0.00736599 0.000347726
0.0025 9.03502e-21 0.00736599 0.000350957
-0.00749999 -4.51751e-21 0.00234132 0.000775057
0.0075 -9.03502e-21 0.00234132 0.000834679
-0.00625 0 0.00608215 0.00038262
0.00625 1.0842e-19 0.00608215 0.000394204
-0.00125 1.0842e-19 0.008656 0.000309875
0.00125 0 0.00865601 0.000310786
-0.00874999 0 0.00116944 0.000952308
0.00875 1.0842e-19 0.00116944 0.00104694
0.005 0 0.00736599 0.000352636
-0.005 4.51751e-21 0.00736599 0.000346175
-0.0075 0 0.00480076 0.000485829
0.0075 -9.03502e-21 0.00480076 0.000511776
0.00375 0 0.00865601 0.000311728
-0.00375 -1.0842e-19 0.00865601 0.000308993
-0.00875 0 0.00356872 0.000585827
0.00875 -1.0842e-19 0.00356872 0.000629981
0.00984798 2.71051e-20 0 0.00105333
-0.00984799 0 0 0.000946792
0.00984798 0 0.000142209 0.00105333
-0.00984799 0 0.000142213 0.000946792
3.21115e-10 0 0.0099455 0.000295694
0.00999999 0 0 0.00105421
-0.01 2.71051e-20 0 0.000946026
0.010152 0 0 0.00105509
-0.010152 0 0 0.000945266
0.010152 0 0.000142209 0.00105509
-0.010152 0 0.000142213 0.000945266
-0.0025 0 0.0099455 0.000294956
0.0025 9.03502e-21 0.0099455 0.00029646
-0.01 9.03502e-21 0.00234132 0.000765768
0.01 -4.51751e-21 0.00234132 0.0008453
0.0075 -4.51751e-21 0.00736599 0.000354356
-0.0075 0 0.00736599 0.000344666
0.00875 -1.0842e-19 0.00608215 0.000396685
-0.00875 0 0.00608215 0.000380465
-0.00625 0 0.008656 0.000308141
0.00625 0 0.008656 0.0003127
-0.01 -4.51751e-21 0.00480076 0.000481826
0.01 -9.03502e-21 0.00480076 0.000516432
0.005 4.51751e-21 0.0099455 0.000297254
-0.005 4.51751e-21 0.0099455 0.000294244
-0.00125 -1.0842e-19 0.011217 0.000280829
0.00125 2.1684e-19 0.011217 0.000281422
0.01125 1.0842e-19 0.00116943 0.00106148
-0.01125 0 0.00116944 0.00093975
0.01125 1.0842e-19 0.00356873 0.000636828
-0.01125 0 0.00356872 0.000580035
0.00375 0 0.011217 0.000282041
-0.00375 1.0842e-19 0.011217 0.00028026
0.00875 0 0.008656 0.000313703
-0.00875 2.1684e-19 0.008656 0.000307317
-0.012348 -2.71051e-20 0 0.000934333
0.012348 0 0 0.00106799
-0.012348 0 0.000142215 0.000934333
0.012348 2.71051e-20 0.000142207 0.00106799
0.01 -4.51751e-21 0.00736599 0.000356119
-0.01 0 0.00736599 0.000343198
0.0075 0 0.0099455 0.000298077
-0.0075 0 0.0099455 0.000293557
6.4431e-11 -4.51751e-21 0.0124872 0.000273092
-0.0125 0 0 0.000933581
0.0125 -2.71051e-20 0 0.00106888
0.012652 2.71051e-20 0 0.00106979
-0.012652 2.71051e-20 0 0.000932835
0.012652 0 0.000142206 0.00106979
-0.012652 2.71051e-20 0.000142215 0.000932835
0.0125 4.51751e-21 0.00234132 0.000856127
-0.0125 4.51751e-21 0.00234132 0.000756656
-0.0025 -4.51751e-21 0.0124872 0.000272505
0.0025 0 0.0124872 0.000273704
0.01125 -1.0842e-19 0.00608215 0.000399217
-0.01125 -1.0842e-19 0.00608215 0.00037837
-0.00625 2.1684e-19 0.011217 0.000279714
0.00625 0 0.011217 0.000282686
0.0125 0 0.00480076 0.000521186
-0.0125 -4.51751e-21 0.00480076 0.000477914
0.005 0 0.0124872 0.000274341
-0.005 0 0.0124872 0.00027194
0.01375 0 0.00116943 0.0010763
-0.01375 0 0.00116944 0.000927417
-0.00125 0 0.0137433 0.000264785
0.00125 0 0.0137433 0.00026539
-0.01 0 0.0099455 0.000292895
0.01 0 0.0099455 0.000298927
0.01125 2.1684e-19 0.008656 0.000314735
-0.01125 -1.0842e-19 0.00865601 0.000306522
0.01375 1.0842e-19 0.00356873 0.000643827
-0.01375 0 0.00356872 0.000574364
-0.00875 2.1684e-19 0.011217 0.000279189
0.00875 2.1684e-19 0.011217 0.000283357
0.00375 0 0.0137433 0.00026602
-0.00375 0 0.0137433 0.000264202
0.0125 0 0.00736599 0.000357922
-0.0125 0 0.00736599 0.000341772
0.0075 4.51751e-21 0.0124872 0.000275004
-0.0075 0 0.0124872 0.000271398
-0.014848 -2.71051e-20 0 0.000922097
0.014848 0 0 0.00108293
-0.014848 -2.71051e-20 0.000142216 0.000922097
0.014848 0 0.000142191 0.00108293
6.19286e-12 0 0.0149986 0.000257616
-0.015 0 0 0.000921359
0.015 -2.71051e-20 0 0.00108384
0.01375 1.0842e-19 0.00608215 0.0004018
-0.01375 1.0842e-19 0.00608215 0.000376327
0.00625 2.1684e-19 0.0137433 0.000266675
-0.00625 0 0.0137433 0.000263643
0.015152 0 0 0.00108476
-0.015152 0 0 0.000920626
0.015152 0 0.000142191 0.00108476
-0.015152 0 0.000142217 0.000920626
0.015 1.35525e-20 0.00234132 0.000867168
-0.015 -4.51751e-21 0.00234132 0.000747716
-0.0025 0 0.0149986 0.000256977
0.0025 0 0.0149986 0.000258279
0.015 9.03502e-21 0.00480076 0.000526039
-0.015 1.35525e-20 0.00480076 0.00047409
-0.005 0 0.0149986 0.000256361
0.005 0 0.0149986 0.000258967
-0.01125 0 0.011217 0.000278683
0.01125 0 0.011217 0.000284053
0.0125 0 0.0099455 0.000299804
-0.0125 0 0.0099455 0.000292257
-0.01 0 0.0124872 0.000270877
0.01 9.03502e-21 0.0124872 0.000275693
0.01375 1.0842e-19 0.008656 0.000315797
-0.01375 0 0.00865601 0.000305754
0.01625 1.0842e-19 0.00116944 0.00109139
-0.01625 -1.0842e-19 0.00116944 0.000915306
-0.00875 0 0.0137433 0.000263105
0.00875 0 0.0137433 0.000267356
-0.00125 -1.0842e-19 0.0162494 0.000249805
0.00125 1.0842e-19 0.0162494 0.000250502
0.01625 1.0842e-19 0.00356873 0.000650965
-0.01625 1.0842e-19 0.00356872 0.000568814
0.00375 0 0.0162494 0.000251223
-0.00375 0 0.0162494 0.000249132
-0.015 -4.51751e-21 0.00736599 0.000340387
0.015 4.51751e-21 0.00736599 0.000359764
0.0075 4.51751e-21 0.0149986 0.000259681
-0.0075 0 0.0149986 0.000255767
-0.017348 0 0 0.00091008
0.017348 0 0 0.00109815
-0.017348 0 0.000142217 0.00091008
0.017348 0 0.00014219 0.00109815
-0.01625 0 0.00608215 0.00037434
0.01625 -1.0842e-19 0.00608215 0.000404433
0.00625 2.1684e-19 0.0162494 0.000251969
-0.00625 0 0.0162494 0.000248482
5.0225e-14 0 0.0175 0.00024136
-0.0175 0 0 0.000909355
0.0175 2.71051e-20 0 0.00109908
0.017652 0 0 0.00110002
-0.017652 0 0 0.000908635
0.017652 0 0.00014219 0.00110002
-0.017652 0 0.000142216 0.000908635
-0.0175 -4.51751e-21 0.00234132 0.000738945
0.0175 0 0.00234132 0.000878425
0.0125 4.51751e-21 0.0124872 0.000276408
-0.0125 0 0.0124872 0.000270376
-0.0025 0 0.0175 0.000240629
0.0025 0 0.0175 0.000242115
-0.01375 1.0842e-19 0.011217 0.000278197
0.01375 0 0.011217 0.000284775
-0.01125 0 0.0137433 0.000262588
0.01125 0 0.0137433 0.000268064
0.015 4.51751e-21 0.0099455 0.000300709
-0.015 4.51751e-21 0.0099455 0.000291642
-0.01 0 0.0149986 0.000255194
0.01 9.03502e-21 0.0149986 0.000260421
-0.0175 9.03502e-21 0.00480076 0.000470352
0.0175 4.51751e-21 0.00480076 0.000530989
0.005 4.51751e-21 0.0175 0.000242893
-0.005 0 0.0175 0.000239921
0.01625 -1.0842e-19 0.008656 0.000316887
-0.01625 1.0842e-19 0.008656 0.000305015
0.00875 0 0.0162494 0.000252741
-0.00875 1.0842e-19 0.0162494 0.000247854
-0.01875 0 0.00116944 0.000903409
0.01875 0 0.00116944 0.00110678
0.00125 0 0.01875 0.000232963
-0.00125 1.0842e-19 0.01875 0.000232174
-0.0175 -9.03502e-21 0.00736599 0.000339044
0.0175 0 0.00736599 0.000361645
0.0075 4.51751e-21 0.0175 0.000243697
-0.0075 0 0.0175 0.000239234
-0.01875 -1.0842e-19 0.00356872 0.000563381
0.01875 1.0842e-19 0.00356873 0.000658256
0.00375 0 0.01875 0.000233774
-0.00375 0 0.01875 0.000231408
0.01375 1.0842e-19 0.0137433 0.000268798
-0.01375 0 0.0137433 0.000262093
0.015 9.03502e-21 0.0124872 0.00027715
-0.015 9.03502e-21 0.0124872 0.000269895
0.0125 4.51751e-21 0.0149986 0.000261188
-0.0125 0 0.0149986 0.000254642
-0.01875 1.0842e-19 0.00608215 0.000372405
0.01875 1.0842e-19 0.00608215 0.000407114
0.01625 0 0.011217 0.000285523
-0.01625 -1.0842e-19 0.011217 0.000277731
0.01125 2.1684e-19 0.0162494 0.00025354
-0.01125 2.1684e-19 0.0162494 0.000247246
-0.00625 1.0842e-19 0.01875 0.000230663
0.00625 -1.0842e-19 0.01875 0.00023461
-0.019848 0 0 0.000898278
0.019848 0 0 0.00111367
-0.019848 0 0.000142216 0.000898278
0.019848 0 0.00014219 0.00111367
-0.02 2.71051e-20 0 0.000897565
0.02 2.71051e-20 0 0.00111462
-9.82494e-15 0 0.02 0.000221783
-0.0175 4.51751e-21 0.0099455 0.000291053
0.0175 4.51751e-21 0.0099455 0.000301641
-0.02 4.51751e-21 0.00234132 0.00073034
0.02 0 0.00234132 0.000889908
0.020152 -2.71051e-20 0 0.00111558
-0.020152 0 0 0.000896858
0.020152 0 0.00014219 0.00111558
-0.020152 0 0.000142216 0.000896858
0.01 0 0.0175 0.000244526
-0.01 0 0.0175 0.000238568
0.0025 0 0.02 0.000222616
-0.0025 0 0.02 0.000220973
-0.02 9.03502e-21 0.00480076 0.0004667
0.02 0 0.00480076 0.000536042
-0.005 0 0.02 0.000220182
0.005 4.51751e-21 0.02 0.000223471
-0.01875 0 0.008656 0.000304303
0.01875 1.0842e-19 0.008656 0.000318005
-0.00875 2.1684e-19 0.01875 0.000229939
0.00875 0 0.01875 0.00023547
0.015 9.03502e-21 0.0149986 0.000261983
-0.015 9.03502e-21 0.0149986 0.000254111
-0.02125 0 0.00116944 0.000891727
0.02125 1.0842e-19 0.00116944 0.00112247
0.01625 -1.0842e-19 0.0137433 0.000269562
-0.01625 -1.0842e-19 0.0137433 0.000261618
-0.01375 1.0842e-19 0.0162494 0.000246659
0.01375 1.0842e-19 0.0162494 0.000254367
0.00125 1.0842e-19 0.02125 0.000211426
-0.00125 -1.0842e-19 0.02125 0.000210571
-0.02 -9.03502e-21 0.00736599 0.00033774
0.02 4.51751e-21 0.00736599 0.000363565
0.0075 4.51751e-21 0.02 0.00022435
-0.0075 0 0.02 0.000219412
0.0175 9.03502e-21 0.0124872 0.000277919
-0.0175 9.03502e-21 0.0124872 0.000269435
0.0125 0 0.0175 0.000245383
-0.0125 0 0.0175 0.000237922
-0.02125 0 0.00356872 0.000558065
0.02125 1.0842e-19 0.00356873 0.000665705
0.00375 1.0842e-19 0.02125 0.000212301
-0.00375 0 0.02125 0.000209736
0.01875 1.0842e-19 0.011217 0.000286297
-0.01875 2.1684e-19 0.011217 0.000277288
-0.01125 2.1684e-19 0.01875 0.000229235
0.01125 0 0.01875 0.000236357
-0.02125 -1.0842e-19 0.00608215 0.000370524
0.02125 1.0842e-19 0.00608215 0.000409844
-0.00625 1.0842e-19 0.02125 0.000208921
0.00625 -1.0842e-19 0.02125 0.000213199
-0.02 0 0.0099455 0.000290488
0.02 4.51751e-21 0.0099455 0.0003026
-0.022348 0 0 0.000886685
0.022348 -2.71051e-20 0 0.00112949
-0.022348 0 0.000142214 0.000886685
0.022348 0 0.00014219 0.00112949
0.01 0 0.02 0.000225253
-0.01 0 0.02 0.000218661
-0.0225 0 0 0.000885985
0.0225 0 0 0.00113045
-9.82514e-15 0 0.0225 0.000198221
-0.0225 4.51751e-21 0.00234132 0.000721898
0.0225 -9.03502e-21 0.00234132 0.000901614
0.0025 0 0.0225 0.000199101
-0.0025 0 0.0225 0.00019736
0.022652 0 0 0.00113143
-0.022652 0 0 0.000885291
0.022652 -2.71051e-20 0.000142189 0.00113143
-0.022652 0 0.000142214 0.000885291
-0.02125 -1.0842e-19 0.008656 0.000303618
0.02125 -1.0842e-19 0.00865601 0.000319151
-0.01625 0 0.0162494 0.000246092
0.01625 -1.0842e-19 0.0162494 0.000255223
0.00875 -1.0842e-19 0.02125 0.00021412
-0.00875 0 0.02125 0.000208124
-0.0225 -1.35525e-20 0.00480076 0.000463132
0.0225 -4.51751e-21 0.00480076 0.000541195
0.0175 9.03502e-21 0.0149986 0.000262807
-0.0175 9.03502e-21 0.0149986 0.000253599
0.015 4.51751e-21 0.0175 0.000246268
-0.015 4.51751e-21 0.0175 0.000237295
-0.005 0 0.0225 0.000196518
0.005 4.51751e-21 0.0225 0.000200001
0.01875 -1.0842e-19 0.0137433 0.000270352
-0.01875 0 0.0137433 0.000261162
0.01375 0 0.01875 0.000237271
-0.01375 2.1684e-19 0.01875 0.000228549
-0.02 0 0.0124872 0.000268996
0.02 0 0.0124872 0.000278716
0.0125 0 0.02 0.000226182
-0.0125 0 0.02 0.000217928
-0.0225 -9.03502e-21 0.00736599 0.000336476
0.0225 4.51751e-21 0.00736599 0.000365521
0.0075 4.51751e-21 0.0225 0.000200923
-0.0075 0 0.0225 0.000195694
-0.02375 1.0842e-19 0.00116944 0.000880249
0.02375 0 0.00116944 0.00113844
0.00125 2.1684e-19 0.02375 0.000185887
-0.00125 0 0.02375 0.000185001
-0.02375 -2.1684e-19 0.00356872 0.000552863
0.02375 0 0.00356873 0.0006733
0.02125 0 0.011217 0.000287097
-0.02125 -1.0842e-19 0.011217 0.000276868
0.01125 1.0842e-19 0.02125 0.000215064
0.00375 0 0.02375 0.000186791
-0.00375 -1.0842e-19 0.02375 0.000184132
-0.01125 1.0842e-19 0.02125 0.000207346
-0.02375 2.1684e-19 0.00608215 0.000368694
0.02375 1.0842e-19 0.00608215 0.000412619
-0.00625 0 0.02375 0.000183282
0.00625 -1.0842e-19 0.02375 0.000187715
-0.0225 4.51751e-21 0.0099455 0.000289947
0.0225 4.51751e-21 0.0099455 0.000303586
0.01 0 0.0225 0.000201866
-0.01 0 0.0225 0.000194886
0.0175 4.51751e-21 0.0175 0.000247182
-0.0175 4.51751e-21 0.0175 0.000236686
0.01875 2.1684e-19 0.0162494 0.000256109
-0.01875 0 0.0162494 0.000245542
-0.01625 0 0.01875 0.000227882
0.01625 -1.0842e-19 0.01875 0.000238213
-0.024848 2.71051e-20 0 0.000875297
0.024848 0 0 0.00114561
-0.024848 2.71051e-20 0.000142213 0.000875297
0.024848 0 0.000142189 0.00114561
-0.02 0 0.0149986 0.000253106
0.02 0 0.0149986 0.000263661
0.015 0 0.02 0.000227137
-0.015 4.51751e-21 0.02 0.000217213
-0.025 2.71051e-20 0 0.00087461
0.025 2.71051e-20 0 0.00114659
-9.82504e-15 0 0.025 0.000171054
-0.025 -9.03502e-21 0.00234132 0.000713615
0.025 -1.35525e-20 0.00234132 0.000913557
0.0025 0 0.025 0.000171942
-0.0025 0 0.025 0.000170183
0.025152 0 0 0.00114759
-0.025152 0 0 0.000873928
0.025152 0 0.000142189 0.00114759
-0.025152 0 0.000142213 0.000873928
-0.02375 0 0.008656 0.00030296
0.02375 1.0842e-19 0.00865601 0.000320324
0.02125 0 0.0137433 0.000271174
-0.02125 2.1684e-19 0.0137433 0.000260726
-0.00875 0 0.02375 0.000182447
0.00875 1.0842e-19 0.02375 0.000188658
0.01375 0 0.02125 0.000216034
-0.01375 -1.0842e-19 0.02125 0.000206583
-0.025 -9.03502e-21 0.00480076 0.000459646
0.025 0 0.00480076 0.000546451
-0.005 0 0.025 0.000169328
0.005 4.51751e-21 0.025 0.000172849
0.0225 0 0.0124872 0.00027954
-0.0225 9.03502e-21 0.0124872 0.000268577
-0.0125 0 0.0225 0.000194095
0.0125 0 0.0225 0.000202833
-0.025 0 0.00736599 0.00033525
0.025 9.03502e-21 0.00736599 0.000367514
0.0075 4.51751e-21 0.025 0.000173773
-0.0075 0 0.025 0.000168489
0.02375 0 0.011217 0.000287923
-0.02375 0 0.011217 0.000276467
0.02625 1.0842e-19 0.00116944 0.00115475
-0.02625 1.0842e-19 0.00116944 0.000868976
0.00125 0 0.02625 0.000157101
-0.01125 2.1684e-19 0.02375 0.000181628
0.01125 2.1684e-19 0.02375 0.000189624
-0.00125 0 0.02625 0.000156228
-0.02625 1.0842e-19 0.00356872 0.000547772
0.02625 0 0.00356873 0.000681074
-0.01875 1.0842e-19 0.01875 0.000227231
0.00375 1.0842e-19 0.02625 0.000157991
0.01875 1.0842e-19 0.01875 0.000239185
-0.00375 -1.0842e-19 0.02625 0.00015537
-0.02 0 0.0175 0.000236094
0.02 0 0.0175 0.000248126
0.0175 0 0.02 0.00022812
-0.0175 4.51751e-21 0.02 0.000216514
0.02125 2.1684e-19 0.0162494 0.000257026
-0.02125 -1.0842e-19 0.0162494 0.00024501
0.01625 0 0.02125 0.000217029
-0.01625 -1.0842e-19 0.02125 0.000205837
-0.025 4.51751e-21 0.0099455 0.000289429
0.025 0 0.0099455 0.000304598
0.01 0 0.025 0.000174718
-0.01 0 0.025 0.000167665
-0.02625 -1.0842e-19 0.00608215 0.000366915
0.02625 -1.0842e-19 0.00608215 0.00041544
0.00625 0 0.02625 0.000158898
-0.00625 0 0.02625 0.000154528
0.0225 0 0.0149986 0.000264545
-0.0225 4.51751e-21 0.0149986 0.000252629
0.015 0 0.0225 0.000203824
-0.015 4.51751e-21 0.0225 0.00019332
-0.027348 0 0 0.000864111
0.027348 -2.71051e-20 0 0.00116205
-0.027348 -2.71051e-20 0.000142212 0.000864111
0.027348 0 0.000142188 0.00116205
0.02375 -1.0842e-19 0.0137433 0.000272023
-0.02375 0 0.0137433 0.000260306
-0.01375 0 0.02375 0.000180824
0.01375 -1.0842e-19 0.02375 0.000190611
0.0275 2.71051e-20 0 0.00116305
-0.0275 2.71051e-20 0 0.000863436
9.49036e-16 -4.51751e-21 0.0275 0.00014171
-0.0275 9.03502e-21 0.00234132 0.000705489
0.0275 -4.51751e-21 0.00234132 0.000925741
0.0025 0 0.0275 0.000142558
-0.0025 -4.51751e-21 0.0275 0.000140877
-0.02625 2.1684e-19 0.00865601 0.000302326
0.02625 0 0.00865601 0.000321522
0.027652 0 0 0.00116406
-0.027652 0 0 0.000862765
0.027652 0 0.000142188 0.00116406
-0.027652 0 0.000142212 0.000862765
0.00875 0 0.02625 0.000159822
-0.00875 0 0.02625 0.0001537
-0.0275 0 0.00480076 0.000456241
0.0275 4.51751e-21 0.00480076 0.000551816
0.025 0 0.0124872 0.000280392
-0.025 1.35525e-20 0.0124872 0.000268175
0.0125 0 0.025 0.000175682
-0.0125 0 0.025 0.000166856
0.005 0 0.0275 0.000143421
-0.005 0 0.0275 0.000140059
0.02 4.51751e-21 0.02 0.000229132
-0.02 0 0.02 0.000215831
0.01875 2.1684e-19 0.02125 0.000218051
0.02125 2.1684e-19 0.01875 0.000240188
-0.01875 0 0.02125 0.000205106
-0.02125 1.0842e-19 0.01875 0.000226596
-0.0275 0 0.00736599 0.000334062
0.0275 1.807e-20 0.00736599 0.000369544
0.0225 0 0.0175 0.000249102
-0.0225 0 0.0175 0.000235519
0.0175 0 0.0225 0.000204839
-0.0175 4.51751e-21 0.0225 0.000192559
0.0075 4.51751e-21 0.0275 0.000144301
-0.0075 0 0.0275 0.000139255
0.02625 1.0842e-19 0.011217 0.000288776
-0.02625 1.0842e-19 0.011217 0.000276086
-0.01125 -1.0842e-19 0.02625 0.000152886
0.01125 0 0.02625 0.000160766
-0.02875 0 0.00116944 0.0008579
0.02875 1.0842e-19 0.00116944 0.00117136
0.02375 1.0842e-19 0.0162494 0.000257975
-0.02375 1.0842e-19 0.0162494 0.000244494
-0.01625 0 0.02375 0.000180034
0.01625 -1.0842e-19 0.02375 0.000191621
0.00125 0 0.0287506 0.000127156
-0.00125 0 0.0287506 0.000126349
-0.02875 1.0842e-19 0.00356873 0.000542793
0.02875 1.0842e-19 0.00356873 0.000689003
0.00375 0 0.0287506 0.000127977
-0.00375 -1.0842e-19 0.0287506 0.000125557
0.025 0 0.0149986 0.000265461
-0.025 9.03502e-21 0.0149986 0.000252169
0.015 0 0.025 0.000176668
-0.015 0 0.025 0.000166061
-0.0275 0 0.0099455 0.000288932
0.0275 4.51751e-21 0.0099455 0.000305637
0.01 4.51751e-21 0.0275 0.000145197
-0.01 0 0.0275 0.000138464
-0.02875 0 0.00608215 0.000365186
0.02875 1.0842e-19 0.00608215 0.000418312
-0.00625 2.1684e-19 0.0287506 0.000124777
0.00625 1.0842e-19 0.0287506 0.000128814
-0.02625 0 0.0137433 0.0002599
0.02625 0 0.0137433 0.000272904
-0.01375 2.1684e-19 0.02625 0.000152086
0.01375 0 0.02625 0.000161728
-0.029848 2.71051e-20 0 0.000853121
0.029848 0 0 0.0011788
-0.029848 0 0.00014221 0.000853121
0.029848 0 0.000142187 0.0011788
-0.03 0 0 0.000852457
0.03 -2.71051e-20 0 0.00117982
1.69661e-12 -4.51751e-21 0.0300014 0.000112316
-0.02875 0 0.00865601 0.000301717
0.02875 0 0.00865601 0.000322749
-0.02125 1.0842e-19 0.02125 0.000204389
0.02125 -1.0842e-19 0.02125 0.000219102
0.00875 -1.0842e-19 0.0287506 0.000129664
-0.00875 -1.0842e-19 0.0287506 0.000124011
-0.03 -4.51751e-21 0.00234132 0.000697515
0.03 0 0.00234132 0.000938167
-0.02 0 0.0225 0.000191812
-0.0225 0 0.02 0.000215162
0.0225 4.51751e-21 0.02 0.000230173
0.02 4.51751e-21 0.0225 0.000205881
0.0025 0 0.0300014 0.000113073
-0.0025 -4.51751e-21 0.0300014 0.000111571
0.030152 0 0 0.00118086
-0.030152 0 0 0.000851799
0.030152 0 0.000142187 0.00118086
-0.030152 0 0.000142209 0.000851799
-0.0275 4.51751e-21 0.0124872 0.000267789
0.0275 4.51751e-21 0.0124872 0.000281274
0.0125 0 0.0275 0.000146112
-0.0125 0 0.0275 0.000137687
0.01875 0 0.02375 0.000192655
-0.01875 2.1684e-19 0.02375 0.000179257
-0.02375 1.0842e-19 0.01875 0.000225976
0.02375 -1.0842e-19 0.01875 0.000241221
-0.03 0 0.00480076 0.000452915
0.03 0 0.00480076 0.000557282
0.005 0 0.0300014 0.000113844
-0.005 0 0.0300014 0.000110838
0.025 0 0.0175 0.00025011
-0.025 0 0.0175 0.000234958
0.0175 0 0.025 0.000177675
-0.0175 0 0.025 0.000165278
-0.02875 0 0.011217 0.000275722
0.02875 -1.0842e-19 0.011217 0.000289656
-0.02625 1.0842e-19 0.0162494 0.000243993
0.02625 0 0.0162494 0.000258957
-0.01625 0 0.02625 0.000151298
0.01625 -2.1684e-19 0.02625 0.00016271
0.01125 0 0.0287506 0.000130532
-0.01125 0 0.0287506 0.000123256
-0.03 4.51751e-21 0.00736599 0.00033291
0.03 9.03502e-21 0.00736599 0.000371606
0.0075 4.51751e-21 0.0300014 0.000114629
-0.0075 0 0.0300014 0.000110118
-0.03125 1.0842e-19 0.00116944 0.000847019
0.03125 1.0842e-19 0.00116943 0.00118831
0.00125 2.1684e-19 0.0312567 9.8209e-05
-0.00125 -1.0842e-19 0.0312567 9.75136e-05
0.0275 0 0.0149986 0.000266408
-0.0275 4.51751e-21 0.0149986 0.000251722
0.015 0 0.0275 0.000147044
-0.015 0 0.0275 0.000136921
-0.03125 -1.0842e-19 0.00356873 0.00053792
0.03125 0 0.00356873 0.000697098
0.00375 0 0.0312567 9.89163e-05
-0.00375 0 0.0312567 9.68297e-05
-0.03 9.03502e-21 0.0099455 0.000288456
0.03 4.51751e-21 0.0099455 0.000306701
0.01 9.03502e-21 0.0300014 0.000115428
-0.01 0 0.0300014 0.000109409
0.0225 4.51751e-21 0.0225 0.00020695
-0.0225 0 0.0225 0.000191078
-0.03125 0 0.00608215 0.000363504
0.03125 1.0842e-19 0.00608215 0.000421215
-0.02875 0 0.0137433 0.000259508
0.02875 0 0.0137433 0.000273816
0.02125 2.1684e-19 0.02375 0.000193715
0.02375 1.0842e-19 0.02125 0.000220182
-0.02125 2.1684e-19 0.02375 0.000178494
-0.02375 0 0.02125 0.000203687
-0.01375 -1.0842e-19 0.0287506 0.000122514
0.01375 -1.0842e-19 0.0287506 0.000131416
0.00625 0 0.0312567 9.96359e-05
-0.00625 0 0.0312567 9.61569e-05
-0.02 0 0.025 0.000164509
0.02 0 0.025 0.000178706
0.025 0 0.02 0.000231246
-0.025 0 0.02 0.000214508
-0.01875 0 0.02625 0.000150523
0.02625 -1.0842e-19 0.01875 0.000242288
-0.02625 1.0842e-19 0.01875 0.000225371
0.01875 0 0.02625 0.000163714
-0.032348 0 0 0.000842324
0.032348 0 0 0.0011959
-0.032348 2.71051e-20 0.000142207 0.000842324
0.032348 0 0.0001422 0.0011959
-0.03125 -1.0842e-19 0.00865601 0.000301131
0.03125 -1.0842e-19 0.00865601 0.000323994
0.00875 0 0.0312567 0.000100368
-0.00875 1.0842e-19 0.0312567 9.54946e-05
-0.03 9.03502e-21 0.0124872 0.000267419
0.03 9.03502e-21 0.0124872 0.000282184
-0.0325 -2.71051e-20 0 0.000841672
0.0325 0 0 0.00119695
0.0125 9.03502e-21 0.0300014 0.000116243
-0.0125 4.51751e-21 0.0300014 0.000108712
1.93201e-11 0 0.0325128 8.44977e-05
-0.0325 -9.03502e-21 0.00234132 0.000689691
0.0325 9.03502e-21 0.00234132 0.000950859
0.0275 0 0.0175 0.000251151
-0.0275 0 0.0175 0.000234412
0.0175 0 0.0275 0.000147996
-0.0175 0 0.0275 0.000136168
0.0025 0 0.0325128 8.51302e-05
-0.0025 0 0.0325128 8.38759e-05
0.032652 0 0 0.001198
-0.032652 0 0 0.000841025
0.032652 0 0.0001422 0.001198
-0.032652 2.71051e-20 0.000142207 0.000841025
-0.0325 4.51751e-21 0.00480076 0.000449666
0.0325 0 0.00480076 0.000562867
0.005 0 0.0325128 8.57738e-05
-0.005 0 0.0325128 8.32646e-05
-0.02875 0 0.0162494 0.000243506
0.02875 1.0842e-19 0.0162494 0.000259972
0.01625 -1.0842e-19 0.0287506 0.000132317
-0.01625 1.0842e-19 0.0287506 0.000121783
0.03125 -1.0842e-19 0.011217 0.000290562
-0.03125 -2.1684e-19 0.011217 0.000275375
-0.01125 1.0842e-19 0.0312567 9.48426e-05
0.01125 -1.0842e-19 0.0312567 0.000101115
-0.0325 9.03502e-21 0.00736599 0.000331793
0.0325 4.51751e-21 0.00736599 0.000373707
-0.0075 0 0.0325128 8.26634e-05
0.0075 0 0.0325128 8.64288e-05
0.03 4.51751e-21 0.0149986 0.000267389
-0.03 4.51751e-21 0.0149986 0.00025129
0.015 9.03502e-21 0.0300014 0.000117073
-0.015 9.03502e-21 0.0300014 0.000108025
0.02375 1.0842e-19 0.02375 0.0001948
-0.02375 -2.1684e-19 0.02375 0.000177743
0.0225 0 0.025 0.00017976
0.025 0 0.0225 0.000208047
-0.0225 0 0.025 0.000163751
-0.025 0 0.0225 0.000190358
-0.03375 1.0842e-19 0.00116943 0.000836329
0.03375 1.0842e-19 0.00116943 0.0012056
0.02125 0 0.02625 0.000164739
0.02625 0 0.02125 0.000221293
-0.02125 0 0.02625 0.00014976
-0.02625 1.0842e-19 0.02125 0.000202998
0.00125 2.1684e-19 0.0337829 7.13644e-05
-0.00125 0 0.033783 7.08059e-05
0.03375 -1.0842e-19 0.00356873 0.0007054
-0.03375 1.0842e-19 0.00356873 0.000533153
-0.0325 1.807e-20 0.0099455 0.000288
0.0325 4.51751e-21 0.0099455 0.000307792
0.00375 1.0842e-19 0.0337829 7.19329e-05
-0.00375 0 0.0337829 7.02571e-05
0.0275 0 0.02 0.000232351
-0.0275 0 0.02 0.000213867
0.02 0 0.0275 0.000148968
-0.02 0 0.0275 0.000135426
0.01 4.51751e-21 0.0325128 8.70959e-05
-0.01 0 0.0325128 8.20718e-05
0.03125 -1.0842e-19 0.0137433 0.00027476
-0.03125 -1.0842e-19 0.0137433 0.00025913
0.01375 -1.0842e-19 0.0312567 0.000101874
-0.01375 -1.0842e-19 0.0312567 9.42005e-05
0.03375 0 0.00608215 0.000424187
-0.03375 0 0.00608215 0.00036187
0.02875 1.0842e-19 0.01875 0.000243388
-0.02875 1.0842e-19 0.01875 0.000224779
0.01875 0 0.0287506 0.000133237
-0.01875 0 0.0287506 0.000121064
0.00625 0 0.0337829 7.25114e-05
-0.00625 0 0.0337829 6.97178e-05
-0.03 0 0.0175 0.000233879
0.03 4.51751e-21 0.0175 0.000252227
0.0175 4.51751e-21 0.0300014 0.000117919
-0.0175 4.51751e-21 0.0300014 0.000107348
0.0325 1.35525e-20 0.0124872 0.000283124
-0.0325 1.807e-20 0.0124872 0.000267064
0.0125 9.03502e-21 0.0325128 8.77752e-05
-0.0125 4.51751e-21 0.0325128 8.14887e-05
-0.03375 0 0.00865601 0.000300568
0.03375 0 0.00865601 0.000325273
-0.034848 0 0 0.000831715
0.034848 0 0 0.00121334
-0.034848 -2.71051e-20 0.000142206 0.000831715
0.034848 0 0.000142202 0.00121334
0.00875 1.0842e-19 0.0337829 7.31006e-05
-0.00875 1.0842e-19 0.0337829 6.9188e-05
-0.035 0 0 0.000831075
0.035 0 0 0.0012144
1.06827e-10 0 0.0350545 5.93847e-05
-0.035 -4.51751e-21 0.00234132 0.000682014
0.035 1.35525e-20 0.00234132 0.000963802
0.0025 0 0.0350545 5.98914e-05
-0.0025 0 0.0350545 5.88851e-05
0.035152 0 0 0.00121548
-0.035152 0 0 0.000830439
0.035152 0 0.000142203 0.00121548
-0.035152 -2.71051e-20 0.000142206 0.000830439
0.03125 2.1684e-19 0.0162494 0.000261024
-0.03125 0 0.0162494 0.000243032
-0.01625 -1.0842e-19 0.0312567 9.35681e-05
0.01625 -1.0842e-19 0.0312567 0.000102648
-0.035 0 0.00480076 0.000446492
0.035 -4.51751e-21 0.00480076 0.000568559
0.025 0 0.025 0.00018084
-0.025 0 0.025 0.000163006
0.02375 1.0842e-19 0.02625 0.000165787
0.02625 2.1684e-19 0.02375 0.000195913
-0.02625 1.0842e-19 0.02375 0.000177004
-0.02375 0 0.02625 0.000149008
0.005 0 0.0350545 6.04055e-05
-0.005 0 0.0350545 5.83924e-05
0.0275 0 0.0225 0.000209173
-0.0275 0 0.0225 0.00018965
0.0225 0 0.0275 0.00014996
-0.0225 0 0.0275 0.000134696
-0.03375 -1.0842e-19 0.011217 0.000275045
0.03375 -1.0842e-19 0.011217 0.000291496
0.01125 0 0.0337829 7.37003e-05
-0.01125 1.0842e-19 0.0337829 6.8666e-05
0.02875 1.0842e-19 0.02125 0.000222435
-0.02875 1.0842e-19 0.02125 0.000202321
0.02125 -1.0842e-19 0.0287506 0.000134175
-0.02125 0 0.0287506 0.000120355
-0.035 4.51751e-21 0.00736599 0.000330711
0.035 4.51751e-21 0.00736599 0.000375842
0.0325 9.03502e-21 0.0149986 0.000268404
-0.0325 9.03502e-21 0.0149986 0.00025087
0.015 1.35525e-20 0.0325128 8.84671e-05
-0.015 1.35525e-20 0.0325128 8.0914e-05
0.0075 0 0.0350545 6.09274e-05
-0.0075 0 0.0350545 5.79064e-05
0.03 4.51751e-21 0.02 0.00023349
-0.03 0 0.02 0.000213239
0.02 0 0.0300014 0.000118782
-0.02 0 0.0300014 0.000106682
0.03625 0 0.00116943 0.00122321
-0.03625 -2.1684e-19 0.00116944 0.000825825
0.00125 0 0.036344 4.78528e-05
-0.00125 2.1684e-19 0.036344 4.74054e-05
-0.035 9.03502e-21 0.0099455 0.000287563
0.035 4.51751e-21 0.0099455 0.000308908
0.03625 1.0842e-19 0.00356873 0.000713831
-0.03625 0 0.00356873 0.00052849
-0.03375 -1.0842e-19 0.0137433 0.000258764
0.03375 -1.0842e-19 0.0137433 0.000275737
0.03125 -1.0842e-19 0.01875 0.000244525
-0.03125 1.0842e-19 0.01875 0.0002242
0.01875 0 0.0312567 0.000103437
-0.01875 -1.0842e-19 0.0312567 9.29447e-05
0.01 0 0.0350545 6.14572e-05
-0.01 0 0.0350545 5.74267e-05
-0.01375 2.1684e-19 0.0337829 6.81504e-05
0.01375 0 0.033783 7.43113e-05
0.00375 1.0842e-19 0.036344 4.83048e-05
-0.00375 1.0842e-19 0.036344 4.69623e-05
-0.03625 -1.0842e-19 0.00608215 0.000360281
0.03625 1.0842e-19 0.00608215 0.000427179
0.00625 0 0.036344 4.87616e-05
-0.00625 1.0842e-19 0.036344 4.65232e-05
0.0325 4.51751e-21 0.0175 0.000253339
-0.0325 0 0.0175 0.000233359
0.0175 9.03502e-21 0.0325128 8.9172e-05
-0.0175 9.03502e-21 0.0325128 8.03472e-05
0.02625 0 0.02625 0.000166859
-0.02625 -1.0842e-19 0.02625 0.000148267
0.035 9.03502e-21 0.0124872 0.000284095
-0.035 9.03502e-21 0.0124872 0.000266723
0.0275 0 0.025 0.000181945
-0.0275 0 0.025 0.000162271
0.025 0 0.0275 0.000150973
-0.025 0 0.0275 0.000133977
0.0125 0 0.0350545 6.19954e-05
-0.0125 0 0.0350545 5.69531e-05
-0.03625 -1.0842e-19 0.00865601 0.000300027
0.03625 -1.0842e-19 0.00865601 0.000326568
0.02875 0 0.02375 0.000197053
-0.02875 1.0842e-19 0.02375 0.000176277
-0.02375 1.0842e-19 0.0287506 0.000119657
0.02375 0 0.0287506 0.000135133
0.037348 0 0 0.00123114
-0.037348 0 0 0.000821291
0.037348 0 0.000142205 0.00123114
-0.037348 0 0.000142193 0.000821291
0.00875 0 0.036344 4.92238e-05
-0.00875 0 0.036344 4.60877e-05
-0.03375 2.1684e-19 0.0162494 0.000242572
0.03375 1.0842e-19 0.0162494 0.00026211
0.01625 0 0.0337829 7.49335e-05
-0.01625 -1.0842e-19 0.0337829 6.76419e-05
-0.03 4.51751e-21 0.0225 0.000188954
-0.0375 0 0 0.000820662
0.0375 0 0 0.00123223
0.03 0 0.0225 0.000210331