# kMean  POINT_DATA 28084
# x  y  z  kMean
0 0.000152009 5.5926e-11 0.000990328
-6.46235e-27 -0.000334729 0 0.000990771
0 -0.00109799 0.00116944 0.000991491
1.0842e-19 0.001402 0.00116944 0.000989165
0 0.000152004 0.00233887 0.00079311
-5.16988e-26 -0.00234799 2.31322e-10 0.000992601
0 -0.00234799 0.000212484 0.00097473
0 0.00265199 2.30541e-10 0.000987923
7.02041e-20 -0.002348 0.00233887 0.000795886
0 0.002652 0.00233887 0.00079024
-1.0842e-19 -0.001098 0.00356872 0.00059439
0 -0.003598 0.00116943 0.00099371
0 0.001402 0.00356873 0.000591081
0 0.003902 0.00116944 0.000986681
0 0.000152002 0.00479858 0.000483319
2.06795e-25 -0.00484801 1.64597e-09 0.000994746
2.06795e-25 -0.00484801 0.000833964 0.000924795
-2.1684e-19 -0.003598 0.00356872 0.000597654
1.03398e-25 0.00515199 6.60558e-10 0.000985395
0 -0.0051546 0 0.000994993
1.0842e-19 0.003902 0.00356872 0.000587702
-9.99668e-20 -0.002348 0.00479858 0.000485976
-1.36721e-20 -0.004848 0.00233887 0.000798567
0 0.002652 0.00479858 0.000480633
0 0.005152 0.00233887 0.000787283
0 -0.001098 0.00608215 0.000373327
-2.1684e-19 -0.006098 0.00116943 0.000995782
0 0.001402 0.00608215 0.000371314
0 0.006402 0.00116943 0.000984109
-1.35479e-19 -0.004848 0.00479858 0.000488607
0 0.005152 0.00479858 0.000477916
1.0842e-19 -0.006098 0.00356873 0.00060084
0 -0.003598 0.00608215 0.000375353
1.0842e-19 0.003902 0.00608215 0.000369289
0 0.006402 0.00356872 0.000584297
0 -0.007348 1.17757e-08 0.00099676
0 0.000151999 0.00736572 0.000333053
-3.30872e-24 0.00765203 1.4035e-08 0.000982761
0 -0.007348 0.00233887 0.000801155
0 -0.002348 0.00736572 0.000334468
2.06795e-25 0.002652 0.00736572 0.00033165
0 0.00765201 0.00233888 0.000784256
0 -0.006098 0.00608215 0.000377384
2.1684e-19 -0.008598 0.00116944 0.000997738
0 -0.001098 0.008656 0.000294114
1.0842e-19 0.001402 0.00865601 0.000293315
-4.1359e-25 -0.007348 0.00479858 0.000491213
0 -0.004848 0.00736572 0.000335893
0 0.006402 0.00608215 0.00036725
1.0842e-19 0.008902 0.00116944 0.000981412
-2.06795e-25 0.005152 0.00736572 0.00033025
0 0.007652 0.00479858 0.000475173
-1.0842e-19 -0.008598 0.00356872 0.000603999
0 -0.003598 0.008656 0.000294931
0 0.003902 0.008656 0.000292542
1.0842e-19 0.008902 0.00356872 0.00058085
0 -0.00984799 2.28661e-10 0.000998684
5.16988e-26 0.000152 0.00994629 0.000279035
8.27181e-25 -0.009848 0.00233887 0.000803678
-3.30872e-24 0.010152 1.3999e-08 0.000979984
0 -0.002348 0.00994629 0.000279434
-5.16988e-26 0.002652 0.00994629 0.000278658
0 -0.007348 0.00736572 0.000337328
0 0.010152 0.00233888 0.000781137
-1.03398e-25 -0.0104854 0 0.000999146
0 -0.008598 0.00608215 0.000379413
1.0842e-19 -0.006098 0.008656 0.000295759
0 0.007652 0.00736572 0.000328847
-2.1684e-19 0.006402 0.008656 0.000291779
0 0.008902 0.00608215 0.000365188
-4.1359e-25 -0.009848 0.00479858 0.000493804
5.16988e-26 -0.004848 0.00994629 0.00027985
1.0842e-19 -0.011098 0.00116943 0.000999631
0 0.005152 0.00994629 0.000278301
0 0.010152 0.00479858 0.000472399
1.0842e-19 -0.001098 0.011217 0.000264423
-1.0842e-19 0.001402 0.011217 0.000264439
-1.0842e-19 0.011402 0.00116943 0.000978555
0 -0.011098 0.00356872 0.0006071
2.1684e-19 -0.003598 0.011217 0.000264424
0 0.003902 0.011217 0.000264483
0 0.011402 0.00356872 0.000577364
0 -0.008598 0.00865601 0.000296606
0 -0.009848 0.00736572 0.00033878
-1.03398e-25 -0.012348 6.6811e-10 0.00100049
0 -0.012348 0.000490448 0.000959735
5.16988e-26 -0.007348 0.00994629 0.000280282
1.0842e-19 0.008902 0.008656 0.000291034
0 0.000152 0.0124878 0.000256589
-1.39051e-20 0.010152 0.00736572 0.000327442
0 0.007652 0.00994629 0.000277962
0 -0.012348 0.00233887 0.000806119
-1.65436e-24 0.012652 1.29297e-08 0.000977092
1.0842e-19 -0.011098 0.00608215 0.000381471
-1.29247e-26 -0.002348 0.0124878 0.000256348
0 0.002652 0.0124878 0.000256855
0 -0.006098 0.011217 0.000264446
-8.27181e-25 0.012652 0.00233888 0.000777925
1.0842e-19 0.006402 0.011217 0.000264546
1.0842e-19 0.011402 0.00608215 0.000363109
0 -0.012348 0.00479858 0.000496381
0 -0.004848 0.0124878 0.00025613
0 0.005152 0.0124878 0.000257143
-4.1359e-25 0.012652 0.00479858 0.000469583
-2.1684e-19 -0.013598 0.00116943 0.00100136
1.0842e-19 -0.001098 0.0137433 0.000248535
2.1684e-19 0.001402 0.0137433 0.000249022
1.0842e-19 0.013902 0.00116943 0.000975629
0 -0.009848 0.00994629 0.000280737
-2.1684e-19 -0.013598 0.00356872 0.000610165
-1.0842e-19 -0.011098 0.00865601 0.000297479
1.0842e-19 -0.008598 0.011217 0.000264483
0 -0.003598 0.0137433 0.000248074
-5.16988e-26 0.010152 0.00994629 0.000277642
0 0.003902 0.0137433 0.000249536
-1.0842e-19 0.011402 0.008656 0.000290304
0 0.008902 0.011217 0.00026463
1.0842e-19 0.013902 0.00356872 0.000573777
0 -0.012348 0.00736572 0.000340253
0 -0.007348 0.0124878 0.000255937
2.06795e-25 0.012652 0.00736572 0.000326039
0 0.007652 0.0124878 0.000257451
0 0.0146569 0 0.000974705
0 -0.014848 4.51806e-09 0.00100218
-2.1684e-19 -0.013598 0.00608215 0.000383541
-4.1359e-25 -0.014848 0.00182911 0.000850695
0 0.000152 0.0149988 0.00024162
0 -0.014848 0.00233887 0.000808478
1.0842e-19 -0.006098 0.0137433 0.000247643
0 0.015152 3.19293e-09 0.000974116
1.0842e-19 0.006402 0.0137433 0.000250065
0 0.013902 0.00608215 0.000361018
0 -0.002348 0.0149988 0.000241009
4.1359e-25 0.015152 0.00133696 0.000860089
0 0.002652 0.0149988 0.000242254
0 0.015152 0.00233887 0.000774637
0 -0.014848 0.00479858 0.000498937
0 -0.004848 0.0149988 0.000240426
2.1684e-19 -0.011098 0.011217 0.000264551
0 -0.012348 0.00994629 0.000281217
8.07794e-28 0.005152 0.0149988 0.000242911
0 0.015152 0.00479858 0.000466726
0 -0.009848 0.0124878 0.000255764
0 0.011402 0.011217 0.000264735
-5.16988e-26 0.012652 0.00994629 0.000277341
0 0.010152 0.0124878 0.00025778
1.0842e-19 -0.013598 0.008656 0.000298366
2.1684e-19 -0.016098 0.00116943 0.001003
2.1684e-19 -0.008598 0.0137433 0.000247245
0 -0.001098 0.0162494 0.000234091
0 0.001402 0.0162494 0.000234851
0 0.008902 0.0137433 0.000250621
0 0.013902 0.008656 0.000289594
1.0842e-19 0.016402 0.00116943 0.000972602
1.0842e-19 -0.016098 0.00356872 0.000613193
1.03398e-25 -0.014848 0.00736572 0.000341729
-1.0842e-19 -0.003598 0.0162494 0.000233356
0 -0.007348 0.0149988 0.000239873
0 0.003902 0.0162494 0.000235626
0 0.016402 0.00356872 0.000570155
0 0.007652 0.0149988 0.000243596
0 0.015152 0.00736572 0.000324636
0 -0.016098 0.00608215 0.00038559
0 -0.017348 7.40038e-09 0.00100375
0 -0.006098 0.0162494 0.00023265
9.04729e-26 -0.0172029 0.00233887 0.00081063
0 0.006402 0.0162494 0.000236436
-1.0842e-19 0.016402 0.00608215 0.000358909
-5.34848e-28 0.000152 0.0174957 0.000226111
-5.52613e-20 -0.017348 0.00233887 0.000810763
5.16988e-26 -0.017348 0.00263528 0.000773491
6.46235e-27 -0.012348 0.0124878 0.000255608
0 -0.013598 0.011217 0.000264647
-8.27181e-25 0.017652 5.04984e-09 0.000971026
-1.57772e-30 -0.002348 0.0175 0.000225298
2.1684e-19 -0.011098 0.0137433 0.000246849
1.26218e-29 0.002652 0.0174954 0.000226947
2.06795e-25 0.017652 0.00202524 0.000798055
0 0.012652 0.0124878 0.000258132
4.90094e-20 0.017652 0.00233887 0.000771269
0 0.011402 0.0137433 0.000251191
-1.0842e-19 0.013902 0.011217 0.000264863
-2.58494e-26 -0.014848 0.00994629 0.000281712
0 -0.009848 0.0149988 0.00023934
0 -0.017348 0.00479858 0.000501468
8.07794e-28 0.010152 0.0149988 0.000244303
0 0.015152 0.00994629 0.000277061
-9.15079e-29 -0.004848 0.0174955 0.000224509
-3.61298e-28 0.005152 0.0174953 0.000227807
0 -0.016098 0.008656 0.000299262
2.20506e-20 0.017652 0.00479858 0.000463831
0 -0.008598 0.0162494 0.000231971
1.0842e-19 0.008902 0.0162494 0.000237277
0 0.016402 0.008656 0.000288895
-1.0842e-19 -0.018598 0.00116943 0.0010045
0 -0.001098 0.01875 0.0002173
0 0.001402 0.01875 0.00021819
0 -0.017348 0.00736572 0.0003432
-1.0842e-19 -0.018598 0.00356872 0.000616186
0 0.018902 0.00116943 0.00096945
-1.43573e-28 -0.007348 0.0174953 0.000223748
0 -0.003598 0.01875 0.000216429
1.60928e-28 0.007652 0.0174955 0.000228699
0 0.017652 0.00736572 0.000323226
-1.0842e-19 0.003902 0.01875 0.000219106
0 0.018902 0.00356872 0.000566475
0 -0.013598 0.0137433 0.000246458
0 -0.014848 0.0124878 0.000255466
0 -0.012348 0.0149988 0.000238816
-1.0842e-19 0.013902 0.0137433 0.000251792
0 -0.018598 0.00608215 0.000387631
-2.1684e-19 -0.016098 0.011217 0.00026475
0 0.012652 0.0149988 0.000245033
0 0.015152 0.0124878 0.000258508
0 -0.011098 0.0162494 0.000231313
-1.0842e-19 -0.006098 0.01875 0.000215586
0 0.006402 0.01875 0.000220045
1.65436e-24 -0.019848 8.29598e-09 0.00100518
0 0.011402 0.0162494 0.00023814
-2.1684e-19 0.018902 0.00608215 0.000356766
-2.1684e-19 0.016402 0.011217 0.00026502
-1.24278e-20 -0.019848 0.00233887 0.00081295
1.29247e-26 -0.017348 0.00994629 0.000282215
3.28979e-21 0.000152 0.02 0.000207533
-3.07656e-28 -0.009848 0.017495 0.000223009
6.45119e-20 -0.002348 0.02 0.000206636
0 0.020152 4.1787e-09 0.000967751
8.08456e-20 0.002652 0.02 0.000208452
-1.89327e-28 0.010152 0.0174956 0.000229618
4.1359e-25 0.020152 0.00178799 0.000814875
-2.58494e-26 0.017652 0.00994629 0.000276801
0 0.020152 0.00233887 0.000767773
0 -0.019848 0.00443348 0.000549825
-2.58494e-26 -0.019848 0.00479858 0.00050396
-1.0842e-19 -0.018598 0.008656 0.000300157
-9.67102e-20 -0.004848 0.02 0.000205763
-1.0842e-19 -0.008598 0.01875 0.000214766
8.08456e-20 0.005152 0.02 0.000209396
2.06795e-25 0.020152 0.00479858 0.000460889
1.0842e-19 0.008902 0.01875 0.000221022
-1.0842e-19 0.018902 0.00865601 0.000288208
4.1359e-25 0.0208236 0 0.000966806
-4.03897e-28 -0.014848 0.0149988 0.000238302
-1.0842e-19 -0.021098 0.00116943 0.00100586
0 -0.016098 0.0137433 0.000246083
0 -0.019848 0.00736572 0.000344665
0 -0.013598 0.0162494 0.000230662
1.0842e-19 -0.001098 0.02125 0.000196857
0 0.001402 0.02125 0.000197785
8.08456e-20 -0.007348 0.02 0.000204909
0 0.015152 0.0149988 0.000245785
1.61559e-27 -0.017348 0.0124878 0.000255336
1.0842e-19 0.013902 0.0162494 0.000239024
-1.0842e-19 -0.021098 0.00356872 0.000619099
-1.0842e-19 0.016402 0.0137433 0.000252411
2.05104e-28 -0.012348 0.0174939 0.000222321
-9.67102e-20 0.007652 0.02 0.000210367
5.84013e-20 -0.012348 0.0175 0.000222281
-2.1684e-19 0.021402 0.00116943 0.000966052
0 0.020152 0.00736572 0.000321806
1.0842e-19 -0.003598 0.02125 0.00019596
-2.61902e-28 0.012652 0.0174953 0.000230558
0 0.003902 0.02125 0.000198729
0 0.017652 0.0124878 0.000258912
0 -0.0211569 0.00479858 0.000505231
0 0.021402 0.00356872 0.000562715
-1.0842e-19 -0.018598 0.011217 0.000264872
0 -0.011098 0.01875 0.000213968
1.0842e-19 0.011402 0.01875 0.000222019
0 -0.021098 0.00608215 0.000389638
-1.0842e-19 0.018902 0.011217 0.000265204
-1.0842e-19 -0.006098 0.02125 0.000195076
0 0.006402 0.02125 0.000199703
0 -0.019848 0.00994629 0.000282731
0 0.021402 0.00608215 0.0003546
8.08456e-20 -0.009848 0.02 0.000204075
0 -0.022348 8.9637e-09 0.00100653
3.28979e-21 0.010152 0.02 0.000211365
4.7591e-20 -0.022348 0.00233887 0.000815047
0 0.020152 0.00994629 0.000276558
8.08456e-20 0.000152 0.0225 0.000185281
-3.54881e-20 -0.002348 0.0225 0.000184386
-1.65436e-24 0.022652 1.13766e-08 0.000964235
8.08456e-20 0.002652 0.0225 0.000186197
0 0.022652 0.00233887 0.000764118
-1.0842e-19 -0.021098 0.008656 0.000301073
-5.63276e-21 -0.022348 0.00479858 0.000506388
-1.0842e-19 -0.016098 0.0162494 0.000230027
1.0842e-19 -0.008598 0.02125 0.000194209
0 -0.017348 0.0149988 0.000237804
-1.40417e-28 -0.014848 0.0174901 0.000221637
-1.57772e-30 -0.014848 0.0175 0.00022157
-3.54881e-20 -0.004848 0.0225 0.000183508
0 0.008902 0.02125 0.000200699
-3.54881e-20 0.005152 0.0225 0.000187136
2.1684e-19 0.021402 0.008656 0.000287525
-1.0842e-19 0.016402 0.0162494 0.000239929
-1.0842e-19 -0.018598 0.0137433 0.000245717
-1.10441e-28 0.015152 0.0174946 0.000231519
0 0.022652 0.00479858 0.000457893
0 -0.013598 0.01875 0.000213185
0 0.017652 0.0149988 0.000246561
0 0.013902 0.01875 0.000223034
0 -0.022348 0.00679963 0.00038146
1.0842e-19 0.018902 0.0137433 0.000253065
8.07794e-28 -0.019848 0.0124878 0.000255222
1.58401e-19 -0.012348 0.02 0.000203261
0 -0.022348 0.00736572 0.000346118
-1.0842e-19 -0.023598 0.00116943 0.0010072
3.28979e-21 0.012652 0.02 0.000212384
8.08456e-20 -0.007348 0.0225 0.000182647
0 0.020152 0.0124878 0.000259344
-9.67102e-20 0.007652 0.0225 0.000188099
1.0842e-19 -0.001098 0.02375 0.000172799
-1.0842e-19 0.001402 0.02375 0.000173684
0 0.022652 0.00736572 0.000320376
0 -0.023598 0.00356872 0.000621896
-1.0842e-19 -0.021098 0.011217 0.000265007
0 0.023902 0.00116944 0.000962418
-1.0842e-19 -0.011098 0.02125 0.000193358
0 -0.003598 0.02375 0.000171927
-1.0842e-19 0.003902 0.02375 0.000174592
0 0.011402 0.02125 0.000201721
1.0842e-19 0.021402 0.011217 0.000265413
-2.1684e-19 0.023902 0.00356872 0.00055888
1.0842e-19 -0.023598 0.00608215 0.000391623
0 -0.0233185 0.00736572 0.000346679
0 -0.022348 0.00994629 0.000283255
1.0842e-19 -0.006098 0.02375 0.000171068
1.58401e-19 -0.009848 0.0225 0.000181802
-1.0842e-19 0.006402 0.02375 0.00017552
9.6241e-29 -0.017348 0.0174762 0.000221034
1.97432e-20 -0.017348 0.0175 0.000220873
0 0.023902 0.00608215 0.000352402
3.28979e-21 0.010152 0.0225 0.000189085
1.0842e-19 -0.018598 0.0162494 0.000229411
1.0842e-19 -0.016098 0.01875 0.000212411
0 0.022652 0.00994629 0.000276333
1.65436e-24 -0.024848 1.04578e-08 0.00100782
-8.67747e-29 0.017652 0.0174937 0.000232529
-1.57772e-30 0.017652 0.0175 0.000232494
0 -0.019848 0.0149988 0.000237323
-5.99305e-20 -0.014848 0.02 0.000202464
-1.0842e-19 0.016402 0.01875 0.000224071
1.0842e-19 0.018902 0.0162494 0.000240855
0 -0.024848 0.00233887 0.000817064
-9.67102e-20 0.000152 0.025 0.00015973
3.28979e-21 0.015152 0.02 0.000213425
3.28979e-21 -0.002348 0.025 0.000158892
-8.07794e-28 0.020152 0.0149988 0.000247364
1.0842e-19 -0.023598 0.008656 0.000301977
-9.67102e-20 0.002652 0.025 0.000160583
1.65436e-24 0.025152 1.2557e-08 0.000960513
1.0842e-19 -0.021098 0.0137433 0.000245372
1.0842e-19 -0.013598 0.02125 0.000192535
1.0842e-19 -0.008598 0.02375 0.000170234
0 0.025152 0.00233887 0.000760319
0 -0.024848 0.00479858 0.000508759
1.0842e-19 0.008902 0.02375 0.000176473
-1.0842e-19 0.013902 0.02125 0.000202765
-1.0842e-19 0.023902 0.008656 0.000286858
1.0842e-19 0.021402 0.0137433 0.000253741
3.28979e-21 -0.004848 0.025 0.00015807
-3.54881e-20 0.005152 0.025 0.000161455
0 -0.022348 0.0124878 0.000255126
2.06795e-25 0.025152 0.00479858 0.000454848
1.58401e-19 -0.012348 0.0225 0.000180974
-9.67102e-20 0.012652 0.0225 0.000190093
-6.46235e-27 0.022652 0.0124878 0.000259803
4.59463e-20 -0.024848 0.00736572 0.000347563
8.08456e-20 -0.007348 0.025 0.000157264
0 -0.026098 0.00116943 0.00100844
0 -0.023598 0.011217 0.000265154
8.08456e-20 0.007652 0.025 0.000162347
0 0.025152 0.00736572 0.000318942
0 -0.011098 0.02375 0.000169407
0 -0.001098 0.02625 0.000145816
-1.0842e-19 0.001402 0.02625 0.000146621
0 -0.026098 0.00356872 0.000624615
1.0842e-19 0.011402 0.02375 0.000177448
-1.0842e-19 0.023902 0.011217 0.000265649
1.0842e-19 -0.018598 0.01875 0.000211647
1.26218e-29 -0.019848 0.0174442 0.000220575
0 0.026402 0.00116944 0.000958607
8.11948e-20 -0.019848 0.0175 0.000220192
3.20767e-20 -0.017348 0.02 0.000201677
1.0842e-19 -0.003598 0.02625 0.000145029
1.0842e-19 0.003902 0.02625 0.000147437
-1.61559e-27 -0.024848 0.0095575 0.000293397
-1.0842e-19 0.018902 0.01875 0.000225123
0 -0.021098 0.0162494 0.000228812
-2.1684e-19 0.026402 0.00356872 0.000554962
-2.1684e-19 -0.016098 0.02125 0.000191724
8.08456e-20 0.017652 0.02 0.000214484
-4.57539e-29 0.020152 0.0174939 0.000233528
0 0.020152 0.0175 0.000233494
0 -0.024848 0.00994629 0.000283789
0 -0.026098 0.00608215 0.000393594
-1.0842e-19 0.016402 0.02125 0.000203831
8.08456e-20 -0.009848 0.025 0.000156473
1.0842e-19 0.021402 0.0162494 0.00024181
-1.00974e-28 -0.022348 0.0149988 0.000236862
0 -0.006098 0.02625 0.000144256
1.01292e-19 -0.014848 0.0225 0.000180165
8.08456e-20 0.010152 0.025 0.000163259
1.0842e-19 0.006402 0.02625 0.000148271
5.16988e-26 0.025152 0.00994629 0.000276129
1.0842e-19 0.026402 0.00608215 0.000350195
8.08456e-20 0.015152 0.0225 0.000191121
0 0.022652 0.0149988 0.000248197
0 -0.023598 0.0137433 0.000245049
0 -0.027348 1.20369e-08 0.00100898
0 -0.013598 0.02375 0.000168597
5.2784e-20 -0.027348 0.00233887 0.000818988
1.0842e-19 -0.026098 0.00865601 0.000302898
3.28979e-21 0.000152 0.0275 0.000132207
-6.46866e-29 0.000152 0.027515 0.000132042
0 0.013902 0.02375 0.000178439
0 -0.0256961 0.00994629 0.000283975
0 0.023902 0.0137433 0.000254453
8.08456e-20 -0.002348 0.0275 0.000131473
0 -0.008598 0.02625 0.000143499
6.45162e-20 0.002652 0.0275 0.000132955
-3.15544e-30 -0.002348 0.0275346 0.000131094
9.46633e-30 0.002652 0.0275104 0.00013284
1.65436e-24 0.027652 1.18528e-08 0.000956675
-1.0842e-19 0.008902 0.02625 0.000149123
-4.1359e-25 0.027652 0.00233887 0.000756421
7.78143e-20 -0.027348 0.00479858 0.000511087
-1.0842e-19 0.026402 0.008656 0.000286194
0 -0.024848 0.0124878 0.000255047
-9.67102e-20 -0.012348 0.025 0.000155692
-9.67102e-20 -0.004848 0.0275 0.000130753
-9.67102e-20 0.005152 0.0275 0.000133717
-1.41995e-28 0.005152 0.0275096 0.00013361
-9.67102e-20 0.012652 0.025 0.000164188
-1.41995e-29 -0.004848 0.0276314 0.000129321
0 0.027652 0.00479858 0.000451752
1.29247e-26 0.025152 0.0124878 0.000260295
1.01872e-19 -0.019848 0.02 0.000200904
0 -0.021098 0.01875 0.000210903
0 -0.018598 0.02125 0.000190925
-3.90552e-20 -0.027348 0.00736572 0.000349
-1.57772e-30 -0.022348 0.01746 0.000219809
-1.57772e-30 -0.022348 0.0175 0.000219532
8.08456e-20 0.020152 0.02 0.000215556
0 -0.026098 0.011217 0.000265323
8.30758e-20 -0.017348 0.0225 0.000179372
1.0842e-19 0.018902 0.02125 0.000204911
0 0.021402 0.01875 0.000226189
-9.67087e-20 -0.007348 0.0275 0.000130045
1.0842e-19 -0.011098 0.02625 0.000142751
1.57772e-30 -0.007348 0.0275604 0.00012939
8.08456e-20 0.007652 0.0275 0.000134494
-1.49884e-28 0.007652 0.0275105 0.000134376
8.08456e-20 0.017652 0.0225 0.000192165
0 0.027652 0.00736572 0.000317498
-1.0842e-19 0.011402 0.02625 0.000149992
-1.26218e-28 0.022652 0.0174949 0.000234527
0 -0.028598 0.00116944 0.00100953
0 -0.023598 0.0162494 0.000228235
2.1684e-19 0.026402 0.011217 0.000265921
-1.0842e-19 -0.016098 0.02375 0.000167806
1.0842e-19 -0.001098 0.0287506 0.000117853
-1.0842e-19 0.001402 0.0287506 0.000118533
-1.0842e-19 -0.028598 0.00356873 0.000627289
-1.0842e-19 0.016402 0.02375 0.000179449
0 0.023902 0.0162494 0.000242798
1.0842e-19 0.028902 0.00116944 0.000954743
-1.0842e-19 -0.003598 0.0287506 0.000117191
0 0.003902 0.0287506 0.000119225
0 -0.024848 0.0149988 0.000236418
-9.67102e-20 -0.014848 0.025 0.000154929
-2.74669e-20 -0.027348 0.00994629 0.000284335
0 0.028902 0.00356872 0.000550959
3.28979e-21 -0.009848 0.0275 0.000129349
-3.15544e-30 -0.009848 0.0275241 0.000129089
8.08456e-20 0.015152 0.025 0.000165135
0 -0.028598 0.00608215 0.000395533
8.07794e-28 0.025152 0.0149988 0.000249065
8.08456e-20 0.010152 0.0275 0.000135287
-3.47099e-29 0.010152 0.0275124 0.000135147
0 0.027652 0.00994629 0.000275938
0 -0.006098 0.0287506 0.000116532
0 0.006402 0.0287506 0.000119931
1.0842e-19 -0.026098 0.0137433 0.000244744
-1.0842e-19 0.028902 0.00608215 0.000347964
0 -0.013598 0.02625 0.000142014
-1.0842e-19 0.013902 0.02625 0.000150875
0 0.026402 0.0137433 0.000255201
0 -0.029848 1.28842e-08 0.00101009
0 -0.028598 0.008656 0.000303812
-5.67942e-20 -0.029848 0.00233887 0.000820855
-1.0842e-19 -0.021098 0.02125 0.000190141
0 -0.027348 0.0123058 0.00025709
-1.11768e-19 -0.022348 0.02 0.000200147
-2.01948e-28 0.000152 0.0300012 0.000104695
2.22018e-20 -0.019848 0.0225 0.000178592
0 -0.008598 0.0287506 0.000115887
0 -0.027348 0.0124878 0.000254988
1.00974e-28 -0.002348 0.0300012 0.000104093
1.0842e-19 0.008902 0.0287506 0.000120646
0 0.002652 0.0300012 0.000105308
0 -0.023598 0.01875 0.000210182
-1.30406e-20 -0.012348 0.0275 0.000128665
-1.65436e-24 0.030152 9.17765e-09 0.000952816
0 0.021402 0.02125 0.000206
-9.15079e-29 -0.012348 0.0275167 0.000128485
-1.0842e-19 -0.018598 0.02375 0.000167032
1.0842e-19 0.028902 0.008656 0.000285523
8.08456e-20 0.020152 0.0225 0.000193223
-9.67102e-20 0.022652 0.02 0.000216646
-1.36003e-20 -0.029848 0.00479858 0.000513375
0 0.030152 0.00233887 0.00075248
-9.67063e-20 0.012652 0.0275 0.000136096
-7.25752e-29 0.012652 0.0275145 0.000135932
0 0.027652 0.0124878 0.000260819
-1.0842e-19 0.018902 0.02375 0.000180471
3.62876e-29 -0.024848 0.0174695 0.000219102
0 0.023902 0.01875 0.000227294
0 -0.004848 0.0300012 0.000103501
0 -0.024848 0.0175 0.000218888
-9.67102e-20 -0.017348 0.025 0.000154182
0 0.005152 0.0300012 0.000105934
0 0.030152 0.00479858 0.000448614
8.08456e-20 0.017652 0.025 0.000166097
1.30951e-28 0.025152 0.0174955 0.00023559
0 -0.028598 0.011217 0.00026551
1.0842e-19 -0.026098 0.0162494 0.000227666
-1.01162e-20 -0.029848 0.00736572 0.000350422
-1.0842e-19 -0.016098 0.02625 0.000141299
1.0842e-19 -0.011098 0.0287506 0.000115255
0 -0.0281823 0.0124878 0.000254975
5.04871e-29 -0.007348 0.0300012 0.000102918
-1.0842e-19 0.011402 0.0287506 0.000121383
0 0.016402 0.02625 0.000151778
0 0.007652 0.0300012 0.00010657
1.0842e-19 0.026402 0.0162494 0.000243823
0 0.028902 0.011217 0.000266217
5.16988e-26 0.030152 0.00736572 0.000316048
1.0842e-19 -0.031098 0.00116944 0.00101065
1.00974e-28 -0.027348 0.0149988 0.00023599
5.28799e-21 -0.014848 0.0275 0.000127994
-9.30856e-29 -0.014848 0.0275159 0.000127824
1.0842e-19 -0.001098 0.0312567 9.09092e-05
-1.0842e-19 0.001402 0.0312567 9.14466e-05
1.0842e-19 -0.031098 0.00356873 0.000629905
8.08456e-20 0.015152 0.0275 0.000136917
1.27795e-28 0.015152 0.0275161 0.000136735
0 0.031402 0.00116944 0.000950889
0 0.027652 0.0149988 0.000249968
-4.36306e-20 -0.029848 0.00994629 0.000284892
0 -0.003598 0.0312567 9.03839e-05
-2.1684e-19 0.003902 0.0312567 9.19933e-05
0 -0.009848 0.0300012 0.000102347
2.1684e-19 0.031402 0.00356872 0.000546915
0 0.010152 0.0300012 0.000107221
0 -0.031098 0.00608215 0.000397445
6.44825e-21 -0.022348 0.0225 0.000177827
0 -0.028598 0.0137433 0.000244462
0 0.030152 0.00994629 0.000275763
1.0842e-19 -0.023598 0.02125 0.000189364
-1.0842e-19 -0.021098 0.02375 0.000166272
1.0842e-19 -0.013598 0.0287506 0.000114635
-1.0842e-19 -0.006098 0.0312567 8.98628e-05
-2.52908e-20 -0.024848 0.02 0.000199404
1.0842e-19 0.006402 0.0312567 9.25486e-05
-3.54881e-20 -0.019848 0.025 0.000153449
-1.57772e-30 0.022652 0.0225 0.000194294
0 0.013902 0.0287506 0.000122128
0 0.021402 0.02375 0.000181511
0 0.023902 0.02125 0.000207103
-1.0842e-19 0.031402 0.00608215 0.000345716
0 0.028902 0.0137433 0.000255978
-1.91544e-20 0.020152 0.025 0.000167074
-9.67102e-20 0.025152 0.02 0.000217768
2.1684e-19 -0.026098 0.01875 0.000209474
1.0842e-19 -0.018598 0.02625 0.000140592
0 0.0319167 0.00479858 0.000446379
0 -0.031098 0.008656 0.000304734
-5.16988e-26 -0.0322927 0 0.00101112
1.0842e-19 0.018902 0.02625 0.000152692
-5.16988e-26 -0.032348 2.91356e-10 0.00101114
-4.1359e-25 -0.032348 0.000175023 0.000997037
4.03897e-28 -0.029848 0.0124878 0.000254948
-1.0842e-19 0.026402 0.01875 0.000228433
1.55096e-25 -0.0324042 0 0.00101116
-1.0842e-19 -0.008598 0.0312567 8.93546e-05
1.44542e-19 -0.032348 0.00233887 0.000822673
0 -0.012348 0.0300012 0.000101785
1.89327e-29 -0.027348 0.0174553 0.000218571
1.09087e-20 -0.027348 0.0175 0.000218255
2.1684e-19 0.008902 0.0312567 9.31179e-05
0 0.000152 0.0325122 7.87187e-05
6.22817e-20 -0.017348 0.0275 0.000127336
-3.47099e-29 -0.017348 0.0275201 0.000127122
2.58494e-26 0.0324498 0.00233887 0.000748802
0 0.012652 0.0300012 0.000107884
0 0.031402 0.008656 0.000284878
0 -0.002348 0.0325122 7.82573e-05
0 0.002652 0.0325122 7.919e-05
-6.46235e-27 0.030152 0.0124878 0.000261369
8.27181e-25 0.032652 4.94574e-09 0.000948881
8.08456e-20 0.017652 0.0275 0.000137751
1.41995e-28 0.017652 0.0275173 0.000137553
-1.2015e-19 -0.032348 0.00479858 0.000515627
0 0.027652 0.0175 0.000236688
2.58494e-26 0.032652 0.00225989 0.000755245
8.04226e-22 0.032652 0.00233887 0.000748478
0 -0.004848 0.0325122 7.78032e-05
0 -0.028598 0.0162494 0.000227111
-6.46235e-27 0.005152 0.0325122 7.96699e-05
1.0842e-19 -0.016098 0.0287506 0.000114025
1.33458e-19 0.032652 0.00479858 0.000445449
0 -0.031098 0.011217 0.000265715
-1.0842e-19 0.016402 0.0287506 0.000122881
1.29247e-26 0.032292 0.00736572 0.000314813
-1.0842e-19 0.028902 0.0162494 0.000244882
-1.0842e-19 -0.011098 0.0312567 8.88539e-05
2.70902e-21 -0.032348 0.00736572 0.000351839
-1.0842e-19 0.011402 0.0312567 9.36999e-05
-4.03897e-28 -0.007348 0.0325122 7.7357e-05
0 0.031402 0.011217 0.000266534
0 -0.029848 0.0148717 0.000236558
-3.23117e-27 0.007652 0.0325122 8.0158e-05
-2.52435e-29 -0.029848 0.0149988 0.000235578
-2.16887e-20 0.032652 0.00736572 0.000314605
2.01948e-28 -0.014848 0.0300012 0.000101234
0 -0.023598 0.02375 0.00016553
-1.94123e-20 -0.024848 0.0225 0.00017707
6.45119e-20 -0.022348 0.025 0.000152732
2.01948e-28 0.015152 0.0300012 0.000108556
-1.0842e-19 -0.033598 0.00116944 0.00101164
1.0842e-19 -0.026098 0.02125 0.000188596
0 0.030152 0.0149988 0.000250901
1.0842e-19 -0.021098 0.02625 0.0001399
1.0842e-19 0.023902 0.02375 0.000182562
8.08456e-20 0.022652 0.025 0.000168063
8.08456e-20 0.025152 0.0225 0.000195385
2.1684e-19 -0.033598 0.00356873 0.000632474
-1.0842e-19 -0.001098 0.033783 6.60109e-05
1.0842e-19 0.001402 0.0337829 6.6406e-05
3.05031e-20 -0.032348 0.00994629 0.000285461
1.0842e-19 0.021402 0.02625 0.000153624
-8.38186e-20 -0.027348 0.02 0.000198673
0 0.026402 0.02125 0.000208242
4.56e-20 -0.019848 0.0275 0.00012669
1.0842e-19 0.033902 0.00116944 0.000946873
-5.52203e-29 -0.019848 0.0275551 0.000126106
1.61559e-27 -0.009848 0.0325122 7.69197e-05
2.1684e-19 -0.003598 0.0337829 6.56237e-05
-1.0842e-19 -0.031098 0.0137433 0.000244193
0 0.003902 0.033783 6.68117e-05
0 0.010152 0.0325122 8.06568e-05
0 0.032652 0.00973115 0.000278862
2.1684e-19 -0.013598 0.0312567 8.83621e-05
0 0.033902 0.00356872 0.00054282
8.08486e-20 0.020152 0.0275 0.000138599
7.57306e-29 0.020152 0.0275172 0.000138402
8.08456e-20 0.027652 0.02 0.000218922
0 0.032652 0.00994629 0.000275611
-1.0842e-19 -0.033598 0.00608215 0.000399344
0 -0.028598 0.01875 0.00020877
1.0842e-19 0.013902 0.0312567 9.42882e-05
-8.07794e-28 0.0327502 0.00994629 0.000275606
-2.1684e-19 -0.018598 0.0287506 0.000113425
2.1684e-19 0.031402 0.0137433 0.000256788
1.0842e-19 -0.006098 0.033783 6.52418e-05
-1.0842e-19 0.006402 0.033783 6.72227e-05
2.1684e-19 0.018902 0.0287506 0.000123648
1.0842e-19 0.033902 0.00608215 0.00034347
0 0.028902 0.01875 0.000229602
6.31089e-30 -0.029848 0.0173696 0.00021857
-1.57772e-30 -0.029848 0.0175 0.000217635
0 -0.017348 0.0300012 0.000100691
0 -0.032348 0.0124878 0.000254922
-2.1684e-19 -0.033598 0.008656 0.000305664
0 -0.012348 0.0325122 7.64897e-05
0 0.017652 0.0300012 0.000109238
0 -0.034848 1.26667e-08 0.00101213
-1.89327e-28 0.030152 0.0174931 0.00023785
-1.0842e-19 -0.008598 0.0337829 6.48685e-05
0 0.030152 0.0175 0.000237814
-3.23117e-27 0.012652 0.0325122 8.11657e-05
0 -0.034848 0.00233887 0.000824419
-2.1684e-19 0.008902 0.0337829 6.76389e-05
0 0.032652 0.0124878 0.000261947
0 0.033902 0.008656 0.000284249
-1.29247e-26 0.000152 0.0350537 5.53343e-05
1.0842e-19 -0.031098 0.0162494 0.000226568
6.46235e-27 -0.002348 0.0350537 5.49931e-05
2.06795e-25 0.035152 1.12789e-09 0.000944842
-2.58494e-26 0.002652 0.0350537 5.56826e-05
-1.0842e-19 -0.016098 0.0312567 8.78784e-05
2.06795e-25 0.035152 0.00080481 0.00087587
-2.06795e-25 -0.034848 0.00479858 0.000517831
-2.85501e-21 0.035152 0.00233887 0.0007444
-1.13044e-19 -0.024848 0.025 0.000152027
1.0842e-19 -0.026098 0.02375 0.000164791
1.0842e-19 -0.023598 0.02625 0.000139228
0 0.016402 0.0312567 9.48878e-05
1.0842e-19 0.031402 0.0162494 0.000245968
-1.61559e-27 0.0330881 0.0124878 0.000262053
0 -0.004848 0.0350537 5.46568e-05
4.239e-20 -0.027348 0.0225 0.000176326
0 -0.033598 0.011217 0.000265938
-5.16988e-26 0.005152 0.0350537 5.60376e-05
6.13535e-20 -0.022348 0.0275 0.000126059
-1.91544e-20 0.025152 0.025 0.000169067
3.79957e-20 0.035152 0.00479858 0.000442259
0 0.023902 0.02625 0.000154555
0 0.026402 0.02375 0.000183633
0 -0.032348 0.0147234 0.000237345
1.0842e-19 -0.011098 0.0337829 6.45023e-05
2.01948e-28 -0.0333543 0.0124878 0.000254917
1.0413e-19 -0.034848 0.00736572 0.000353247
-9.67071e-20 0.022652 0.0275 0.000139459
0 -0.028598 0.02125 0.000187852
-5.20648e-29 0.022652 0.0275165 0.000139269
8.08456e-20 0.027652 0.0225 0.000196502
2.1684e-19 0.011402 0.0337829 6.80662e-05
-5.04871e-29 -0.032348 0.0149988 0.00023518
0 -0.021098 0.0287506 0.000112839
-2.1684e-19 0.033902 0.011217 0.000266876
1.61559e-27 -0.014848 0.0325122 7.60672e-05
-4.03897e-28 -0.007348 0.0350537 5.43262e-05
0 0.021402 0.0287506 0.000124429
0 0.015152 0.0325122 8.16825e-05
0 0.028902 0.02125 0.00020941
0 0.007652 0.0350537 5.63965e-05
6.53299e-20 0.035152 0.00736572 0.00031317
-9.15793e-20 -0.029848 0.02 0.000197958
0 0.032652 0.0149988 0.000251867
-5.04871e-29 -0.019848 0.0300012 0.000100159
-4.03897e-28 -0.007348 0.0352421 5.28819e-05
-1.0842e-19 -0.036098 0.00116944 0.00101262
-2.01948e-28 0.020152 0.0300012 0.000109934
-1.91544e-20 0.030152 0.02 0.000220107
-1.38042e-19 -0.034848 0.00994629 0.000286037
1.0842e-19 -0.036098 0.00356873 0.000634938
1.0842e-19 -0.033598 0.0137433 0.000243931
0 -0.031098 0.01875 0.000208093
1.0842e-19 -0.001098 0.036344 4.42565e-05
1.0842e-19 0.001402 0.036344 4.4549e-05
1.0842e-19 -0.018598 0.0312567 8.74018e-05
0 -0.009848 0.0350537 5.40015e-05
1.0842e-19 -0.013598 0.033783 6.41413e-05
0 0.036402 0.00116943 0.000942812
0 0.010152 0.0350537 5.67619e-05
0 -0.0207792 0.0300012 9.99652e-05
0 -0.003598 0.036344 4.39673e-05
0 0.018902 0.0312567 9.54981e-05
0 0.013902 0.0337829 6.85033e-05
-6.30886e-20 0.035152 0.00994629 0.000275481
0 0.0333192 0.0149988 0.000252133
0 0.003902 0.036344 4.48487e-05
1.0842e-19 0.031402 0.01875 0.000230806
-2.1684e-19 0.036402 0.00356873 0.00053868
2.1684e-19 0.033902 0.0137433 0.00025763
1.0842e-19 -0.036098 0.00608215 0.000401218
1.10441e-29 -0.032348 0.0174273 0.000217563
-5.04871e-29 -0.019848 0.0309282 9.096e-05
0 -0.032348 0.0175 0.000217036
0 -0.017348 0.0325122 7.56512e-05
0 -0.006098 0.036344 4.3681e-05