# kMean  POINT_DATA 27775
# x  y  z  kMean
4.11098e-11 0 0 0.000990467
-0.000152009 2.71051e-20 0 0.000989654
0.00015201 0 0 0.000991286
-0.000152008 2.71051e-20 0.000142211 0.000989654
0.000152009 0 0.000142211 0.000991286
-0.00125 -1.0842e-19 0.00116944 0.000983763
0.00125 1.0842e-19 0.00116944 0.000997176
2.67344e-09 0 0.00234132 0.000793114
-0.00234799 0 0 0.000977973
0.002348 0 0 0.00100316
-0.00234799 -2.71051e-20 0.00014221 0.000977973
0.002348 0 0.000142211 0.00100316
-0.0025 2.71051e-20 0 0.00097717
0.00250001 0 0 0.00100398
-0.00265201 0 0 0.000976371
0.00265202 2.71051e-20 0 0.00100481
-0.00265201 -2.71051e-20 0.000142211 0.000976371
0.00265202 0 0.000142211 0.00100481
-0.0025 0 0.00234132 0.000783432
0.0025 1.35525e-20 0.00234132 0.000802968
-0.00125 0 0.00356872 0.0005899
0.00125 -1.0842e-19 0.00356873 0.000595974
-0.00374999 1.0842e-19 0.00116944 0.00097058
0.00375 0 0.00116944 0.00101079
2.03462e-09 4.51751e-21 0.00480076 0.000483397
-0.00484797 0 0 0.000964843
0.004848 0 0 0.00101691
-0.00484797 -2.71051e-20 0.000142211 0.000964843
0.004848 0 0.000142212 0.00101691
-0.00499998 2.71051e-20 0 0.000964047
0.00500001 2.71051e-20 0 0.00101776
-0.00515199 0 0 0.000963255
0.00515202 0 0 0.0010186
-0.00515199 0 0.00014221 0.000963255
0.00515202 -2.71051e-20 0.000142212 0.0010186
-0.00375 -2.1684e-19 0.00356873 0.000583945
0.00375 0 0.00356872 0.000602182
-0.0025 0 0.00480076 0.000479302
0.0025 4.51751e-21 0.00480076 0.000487582
-0.00499999 -9.03502e-21 0.00234132 0.000773907
0.005 -1.35525e-20 0.00234132 0.000813012
-0.00125 1.0842e-19 0.00608215 0.000371358
0.00125 0 0.00608215 0.000373529
-0.00624999 2.1684e-19 0.00116944 0.000957518
0.00625001 0 0.00116944 0.00102472
-0.005 0 0.00480076 0.000475303
0.005 -4.51751e-21 0.00480076 0.000491853
-0.00375 0 0.00608215 0.00036923
0.00375 1.0842e-19 0.00608215 0.000375767
-0.00624999 1.0842e-19 0.00356872 0.000578148
0.00625 0 0.00356873 0.000608499
-0.00734797 -2.71051e-20 0 0.000951954
0.00734801 0 0 0.00103094
-0.00734797 2.71051e-20 0.000142211 0.000951954
0.00734801 0 0.000142199 0.00103094
9.87617e-10 4.51751e-21 0.00736599 0.000333135
-0.00749998 0 0 0.000951184
0.00750001 0 0 0.0010318
-0.00765199 0 0 0.000950416
0.007652 2.71051e-20 0 0.00103266
-0.00765199 2.71051e-20 0.000142211 0.000950416
0.007652 0 0.0001422 0.00103266
-0.0025 4.51751e-21 0.00736599 0.00033167
0.0025 9.03502e-21 0.00736599 0.000334642
-0.00749999 -4.51751e-21 0.00234132 0.000764566
0.0075 -9.03502e-21 0.00234132 0.000823261
-0.00625 0 0.00608215 0.00036716
0.00625 1.0842e-19 0.00608215 0.000378037
-0.00125 1.0842e-19 0.008656 0.000293368
0.00125 0 0.00865601 0.000294159
-0.00874999 0 0.00116944 0.000944852
0.00875 1.0842e-19 0.00116944 0.00103888
0.005 0 0.00736599 0.000336189
-0.005 4.51751e-21 0.00736599 0.000330242
-0.0075 0 0.00480076 0.000471383
0.0075 -9.03502e-21 0.00480076 0.000496215
0.00375 0 0.00865601 0.000294984
-0.00375 -1.0842e-19 0.00865601 0.000292598
-0.00875 0 0.00356872 0.00057241
0.00875 -1.0842e-19 0.00356872 0.000614981
0.00984798 2.71051e-20 0 0.00104524
-0.00984799 0 0 0.000939369
0.00984798 0 0.000142209 0.00104524
-0.00984799 0 0.000142213 0.000939369
3.21115e-10 0 0.0099455 0.000279063
0.00999999 0 0 0.00104612
-0.01 2.71051e-20 0 0.000938611
0.010152 0 0 0.001047
-0.010152 0 0 0.000937854
0.010152 0 0.000142209 0.001047
-0.010152 0 0.000142213 0.000937854
-0.0025 0 0.0099455 0.000278445
0.0025 9.03502e-21 0.0099455 0.000279704
-0.01 9.03502e-21 0.00234132 0.000755424
0.01 -4.51751e-21 0.00234132 0.00083372
0.0075 -4.51751e-21 0.00736599 0.000337774
-0.0075 0 0.00736599 0.000328852
0.00875 -1.0842e-19 0.00608215 0.000380361
-0.00875 0 0.00608215 0.000365135
-0.00625 0 0.008656 0.000291857
0.00625 0 0.008656 0.000295836
-0.01 -4.51751e-21 0.00480076 0.000467543
0.01 -9.03502e-21 0.00480076 0.00050067
0.005 4.51751e-21 0.0099455 0.000280372
-0.005 4.51751e-21 0.0099455 0.000277849
-0.00125 -1.0842e-19 0.011217 0.000264199
0.00125 2.1684e-19 0.011217 0.000264662
0.01125 1.0842e-19 0.00116943 0.00105336
-0.01125 0 0.00116944 0.000932371
0.01125 1.0842e-19 0.00356873 0.000621585
-0.01125 0 0.00356872 0.000566829
0.00375 0 0.011217 0.00026515
-0.00375 1.0842e-19 0.011217 0.000263751
0.00875 0 0.008656 0.000296727
-0.00875 2.1684e-19 0.008656 0.000291134
-0.012348 -2.71051e-20 0 0.000927015
0.012348 0 0 0.00105984
-0.012348 0 0.000142215 0.000927015
0.012348 2.71051e-20 0.000142207 0.00105984
0.01 -4.51751e-21 0.00736599 0.000339394
-0.01 0 0.00736599 0.000327499
0.0075 0 0.0099455 0.000281067
-0.0075 0 0.0099455 0.000277273
6.4431e-11 -4.51751e-21 0.0124872 0.000256576
-0.0125 0 0 0.000926275
0.0125 -2.71051e-20 0 0.00106074
0.012652 2.71051e-20 0 0.00106164
-0.012652 2.71051e-20 0 0.000925541
0.012652 0 0.000142206 0.00106164
-0.012652 2.71051e-20 0.000142215 0.000925541
0.0125 4.51751e-21 0.00234132 0.000844397
-0.0125 4.51751e-21 0.00234132 0.000746471
-0.0025 -4.51751e-21 0.0124872 0.000256113
0.0025 0 0.0124872 0.000257059
0.01125 -1.0842e-19 0.00608215 0.000382721
-0.01125 -1.0842e-19 0.00608215 0.000363166
-0.00625 2.1684e-19 0.011217 0.000263323
0.00625 0 0.011217 0.000265657
0.0125 0 0.00480076 0.000505218
-0.0125 -4.51751e-21 0.00480076 0.000463798
0.005 0 0.0124872 0.000257563
-0.005 0 0.0124872 0.000255669
0.01375 0 0.00116943 0.00106812
-0.01375 0 0.00116944 0.000920185
-0.00125 0 0.0137433 0.00024851
0.00125 0 0.0137433 0.000248987
-0.01 0 0.0099455 0.000276719
0.01 0 0.0099455 0.000281785
0.01125 2.1684e-19 0.008656 0.000297633
-0.01125 -1.0842e-19 0.00865601 0.000290444
0.01375 1.0842e-19 0.00356873 0.000628344
-0.01375 0 0.00356872 0.000561359
-0.00875 2.1684e-19 0.011217 0.00026291
0.00875 2.1684e-19 0.011217 0.00026619
0.00375 0 0.0137433 0.000249491
-0.00375 0 0.0137433 0.00024805
0.0125 0 0.00736599 0.000341049
-0.0125 0 0.00736599 0.000326187
0.0075 4.51751e-21 0.0124872 0.000258088
-0.0075 0 0.0124872 0.000255241
-0.014848 -2.71051e-20 0 0.000914901
0.014848 0 0 0.00107469
-0.014848 -2.71051e-20 0.000142216 0.000914901
0.014848 0 0.000142191 0.00107469
6.19286e-12 0 0.0149986 0.000241583
-0.015 0 0 0.000914163
0.015 -2.71051e-20 0 0.0010756
0.01375 1.0842e-19 0.00608215 0.000385131
-0.01375 1.0842e-19 0.00608215 0.00036125
0.00625 2.1684e-19 0.0137433 0.00025001
-0.00625 0 0.0137433 0.000247606
0.015152 0 0 0.00107651
-0.015152 0 0 0.000913434
0.015152 0 0.000142191 0.00107651
-0.015152 0 0.000142217 0.000913434
0.015 1.35525e-20 0.00234132 0.000855271
-0.015 -4.51751e-21 0.00234132 0.00073768
-0.0025 0 0.0149986 0.000241069
0.0025 0 0.0149986 0.000242117
0.015 9.03502e-21 0.00480076 0.00050986
-0.015 1.35525e-20 0.00480076 0.000460132
-0.005 0 0.0149986 0.000240572
0.005 0 0.0149986 0.000242672
-0.01125 0 0.011217 0.00026252
0.01125 0 0.011217 0.000266733
0.0125 0 0.0099455 0.000282524
-0.0125 0 0.0099455 0.000276186
-0.01 0 0.0124872 0.000254836
0.01 9.03502e-21 0.0124872 0.000258632
0.01375 1.0842e-19 0.008656 0.000298574
-0.01375 0 0.00865601 0.00028977
0.01625 1.0842e-19 0.00116944 0.00108308
-0.01625 -1.0842e-19 0.00116944 0.00090815
-0.00875 0 0.0137433 0.000247182
0.00875 0 0.0137433 0.000250552
-0.00125 -1.0842e-19 0.0162494 0.00023414
0.00125 1.0842e-19 0.0162494 0.000234709
0.01625 1.0842e-19 0.00356873 0.000635244
-0.01625 1.0842e-19 0.00356872 0.000555984
0.00375 0 0.0162494 0.000235298
-0.00375 0 0.0162494 0.000233592
-0.015 -4.51751e-21 0.00736599 0.000324912
0.015 4.51751e-21 0.00736599 0.000342738
0.0075 4.51751e-21 0.0149986 0.000243249
-0.0075 0 0.0149986 0.000240091
-0.017348 0 0 0.00090297
0.017348 0 0 0.00108981
-0.017348 0 0.000142217 0.00090297
0.017348 0 0.00014219 0.00108981
-0.01625 0 0.00608215 0.000359392
0.01625 -1.0842e-19 0.00608215 0.000387576
0.00625 2.1684e-19 0.0162494 0.000235907
-0.00625 0 0.0162494 0.000233055
5.0225e-14 0 0.0175 0.000226057
-0.0175 0 0 0.000902251
0.0175 2.71051e-20 0 0.00109074
0.017652 0 0 0.00109167
-0.017652 0 0 0.000901538
0.017652 0 0.00014219 0.00109167
-0.017652 0 0.000142216 0.000901538
-0.0175 -4.51751e-21 0.00234132 0.000729042
0.0175 0 0.00234132 0.000866354
0.0125 4.51751e-21 0.0124872 0.000259193
-0.0125 0 0.0124872 0.000254449
-0.0025 0 0.0175 0.00022545
0.0025 0 0.0175 0.000226684
-0.01375 1.0842e-19 0.011217 0.00026214
0.01375 0 0.011217 0.000267303
-0.01125 0 0.0137433 0.000246788
0.01125 0 0.0137433 0.000251108
0.015 4.51751e-21 0.0099455 0.000283287
-0.015 4.51751e-21 0.0099455 0.000275673
-0.01 0 0.0149986 0.000239637
0.01 9.03502e-21 0.0149986 0.000243846
-0.0175 9.03502e-21 0.00480076 0.000456543
0.0175 4.51751e-21 0.00480076 0.000514591
0.005 4.51751e-21 0.0175 0.000227332
-0.005 0 0.0175 0.000224858
0.01625 -1.0842e-19 0.008656 0.000299529
-0.01625 1.0842e-19 0.008656 0.000289123
0.00875 0 0.0162494 0.000236543
-0.00875 1.0842e-19 0.0162494 0.000232539
-0.01875 0 0.00116944 0.000896359
0.01875 0 0.00116944 0.0010984
0.00125 0 0.01875 0.000218022
-0.00125 1.0842e-19 0.01875 0.000217359
-0.0175 -9.03502e-21 0.00736599 0.000323675
0.0175 0 0.00736599 0.000344458
0.0075 4.51751e-21 0.0175 0.000228002
-0.0075 0 0.0175 0.000224283
-0.01875 -1.0842e-19 0.00356872 0.000550726
0.01875 1.0842e-19 0.00356873 0.000642274
0.00375 0 0.01875 0.000218709
-0.00375 0 0.01875 0.000216711
0.01375 1.0842e-19 0.0137433 0.000251686
-0.01375 0 0.0137433 0.000246404
0.015 9.03502e-21 0.0124872 0.000259774
-0.015 9.03502e-21 0.0124872 0.00025408
0.0125 4.51751e-21 0.0149986 0.000244465
-0.0125 0 0.0149986 0.000239202
-0.01875 1.0842e-19 0.00608215 0.000357573
0.01875 1.0842e-19 0.00608215 0.000390067
0.01625 0 0.011217 0.000267887
-0.01625 -1.0842e-19 0.011217 0.000261786
0.01125 2.1684e-19 0.0162494 0.000237199
-0.01125 2.1684e-19 0.0162494 0.000232055
-0.00625 1.0842e-19 0.01875 0.000216075
0.00625 -1.0842e-19 0.01875 0.000219416
-0.019848 0 0 0.000891279
0.019848 0 0 0.00110525
-0.019848 0 0.000142216 0.000891279
0.019848 0 0.00014219 0.00110525
-0.02 2.71051e-20 0 0.000890573
0.02 2.71051e-20 0 0.00110619
-9.82494e-15 0 0.02 0.000207477
-0.0175 4.51751e-21 0.0099455 0.000275181
0.0175 4.51751e-21 0.0099455 0.000284072
-0.02 4.51751e-21 0.00234132 0.00072058
0.02 0 0.00234132 0.000877668
0.020152 -2.71051e-20 0 0.00110715
-0.020152 0 0 0.000889875
0.020152 0 0.00014219 0.00110715
-0.020152 0 0.000142216 0.000889875
0.01 0 0.0175 0.000228695
-0.01 0 0.0175 0.000223734
0.0025 0 0.02 0.000208187
-0.0025 0 0.02 0.000206786
-0.02 9.03502e-21 0.00480076 0.000453036
0.02 0 0.00480076 0.000519418
-0.005 0 0.02 0.00020611
0.005 4.51751e-21 0.02 0.000208916
-0.01875 0 0.008656 0.000288499
0.01875 1.0842e-19 0.008656 0.000300517
-0.00875 2.1684e-19 0.01875 0.000215464
0.00875 0 0.01875 0.000220146
0.015 9.03502e-21 0.0149986 0.000245105
-0.015 9.03502e-21 0.0149986 0.000238785
-0.02125 0 0.00116944 0.000884796
0.02125 1.0842e-19 0.00116944 0.001114
0.01625 -1.0842e-19 0.0137433 0.000252278
-0.01625 -1.0842e-19 0.0137433 0.000246047
-0.01375 1.0842e-19 0.0162494 0.000231578
0.01375 1.0842e-19 0.0162494 0.000237885
0.00125 1.0842e-19 0.02125 0.000197632
-0.00125 -1.0842e-19 0.02125 0.000196897
-0.02 -9.03502e-21 0.00736599 0.000322474
0.02 4.51751e-21 0.00736599 0.000346211
0.0075 4.51751e-21 0.02 0.000209668
-0.0075 0 0.02 0.00020545
0.0175 9.03502e-21 0.0124872 0.000260378
-0.0175 9.03502e-21 0.0124872 0.000253731
0.0125 0 0.0175 0.000229411
-0.0125 0 0.0175 0.000223205
-0.02125 0 0.00356872 0.000545584
0.02125 1.0842e-19 0.00356873 0.000649467
0.00375 1.0842e-19 0.02125 0.000198383
-0.00375 0 0.02125 0.000196179
0.01875 1.0842e-19 0.011217 0.000268505
-0.01875 2.1684e-19 0.011217 0.000261444
-0.01125 2.1684e-19 0.01875 0.000214882
0.01125 0 0.01875 0.000220895
-0.02125 -1.0842e-19 0.00608215 0.000355809
0.02125 1.0842e-19 0.00608215 0.000392602
-0.00625 1.0842e-19 0.02125 0.000195476
0.00625 -1.0842e-19 0.02125 0.000199156
-0.02 0 0.0099455 0.000274713
0.02 4.51751e-21 0.0099455 0.000284882
-0.022348 0 0 0.000879784
0.022348 -2.71051e-20 0 0.00112099
-0.022348 0 0.000142214 0.000879784
0.022348 0 0.00014219 0.00112099
0.01 0 0.02 0.00021044
-0.01 0 0.02 0.000204815
-0.0225 0 0 0.000879088
0.0225 0 0 0.00112195
-9.82514e-15 0 0.0225 0.000185226
-0.0225 4.51751e-21 0.00234132 0.000712267
0.0225 -9.03502e-21 0.00234132 0.000889203
0.0025 0 0.0225 0.000185987
-0.0025 0 0.0225 0.00018448
0.022652 0 0 0.00112292
-0.022652 0 0 0.0008784
0.022652 -2.71051e-20 0.000142189 0.00112292
-0.022652 0 0.000142214 0.0008784
-0.02125 -1.0842e-19 0.008656 0.000287904
0.02125 -1.0842e-19 0.00865601 0.000301514
-0.01625 0 0.0162494 0.000231129
0.01625 -1.0842e-19 0.0162494 0.000238588
0.00875 -1.0842e-19 0.02125 0.000199952
-0.00875 0 0.02125 0.000194786
-0.0225 -1.35525e-20 0.00480076 0.000449606
0.0225 -4.51751e-21 0.00480076 0.000524335
0.0175 9.03502e-21 0.0149986 0.000245767
-0.0175 9.03502e-21 0.0149986 0.000238388
0.015 4.51751e-21 0.0175 0.000230152
-0.015 4.51751e-21 0.0175 0.000222693
-0.005 0 0.0225 0.000183746
0.005 4.51751e-21 0.0225 0.000186766
0.01875 -1.0842e-19 0.0137433 0.000252898
-0.01875 0 0.0137433 0.000245705
0.01375 0 0.01875 0.00022167
-0.01375 2.1684e-19 0.01875 0.000214306
-0.02 0 0.0124872 0.000253402
0.02 0 0.0124872 0.000261007
0.0125 0 0.02 0.000211236
-0.0125 0 0.02 0.000204196
-0.0225 -9.03502e-21 0.00736599 0.000321312
0.0225 4.51751e-21 0.00736599 0.000347993
0.0075 4.51751e-21 0.0225 0.000187565
-0.0075 0 0.0225 0.000183027
-0.02375 1.0842e-19 0.00116944 0.000873388
0.02375 0 0.00116944 0.00112991
0.00125 2.1684e-19 0.02375 0.000173573
-0.00125 0 0.02375 0.000172801
-0.02375 -2.1684e-19 0.00356872 0.000540531
0.02375 0 0.00356873 0.000656787
0.02125 0 0.011217 0.000269141
-0.02125 -1.0842e-19 0.011217 0.000261131
0.01125 1.0842e-19 0.02125 0.000200768
0.00375 0 0.02375 0.000174359
-0.00375 -1.0842e-19 0.02375 0.000172041
-0.01125 1.0842e-19 0.02125 0.000194126
-0.02375 2.1684e-19 0.00608215 0.000354089
0.02375 1.0842e-19 0.00608215 0.000395162
-0.00625 0 0.02375 0.000171289
0.00625 -1.0842e-19 0.02375 0.000175164
-0.0225 4.51751e-21 0.0099455 0.00027427
0.0225 4.51751e-21 0.0099455 0.000285713
0.01 0 0.0225 0.000188385
-0.01 0 0.0225 0.000182328
0.0175 4.51751e-21 0.0175 0.000230915
-0.0175 4.51751e-21 0.0175 0.0002222
0.01875 2.1684e-19 0.0162494 0.000239318
-0.01875 0 0.0162494 0.000230689
-0.01625 0 0.01875 0.000213762
0.01625 -1.0842e-19 0.01875 0.000222465
-0.024848 2.71051e-20 0 0.000868473
0.024848 0 0 0.00113705
-0.024848 2.71051e-20 0.000142213 0.000868473
0.024848 0 0.000142189 0.00113705
-0.02 0 0.0149986 0.000238009
0.02 0 0.0149986 0.000246451
0.015 0 0.02 0.000212055
-0.015 4.51751e-21 0.02 0.000203594
-0.025 2.71051e-20 0 0.000867789
0.025 2.71051e-20 0 0.00113803
-9.82504e-15 0 0.025 0.000159678
-0.025 -9.03502e-21 0.00234132 0.000704102
0.025 -1.35525e-20 0.00234132 0.000900981
0.0025 0 0.025 0.000160457
-0.0025 0 0.025 0.000158913
0.025152 0 0 0.00113903
-0.025152 0 0 0.000867114
0.025152 0 0.000142189 0.00113903
-0.025152 0 0.000142213 0.000867114
-0.02375 0 0.008656 0.000287338
0.02375 1.0842e-19 0.00865601 0.000302546
0.02125 0 0.0137433 0.000253541
-0.02125 2.1684e-19 0.0137433 0.000245386
-0.00875 0 0.02375 0.000170556
0.00875 1.0842e-19 0.02375 0.000175988
0.01375 0 0.02125 0.000201611
-0.01375 -1.0842e-19 0.02125 0.000193468
-0.025 -9.03502e-21 0.00480076 0.000446256
0.025 0 0.00480076 0.000529343
-0.005 0 0.025 0.000158157
0.005 4.51751e-21 0.025 0.00016125
0.0225 0 0.0124872 0.00026166
-0.0225 9.03502e-21 0.0124872 0.000253093
-0.0125 0 0.0225 0.000181644
0.0125 0 0.0225 0.000189229
-0.025 0 0.00736599 0.000320188
0.025 9.03502e-21 0.00736599 0.000349799
0.0075 4.51751e-21 0.025 0.000162062
-0.0075 0 0.025 0.000157413
0.02375 0 0.011217 0.000269802
-0.02375 0 0.011217 0.000260831
0.02625 1.0842e-19 0.00116944 0.00114617
-0.02625 1.0842e-19 0.00116944 0.000862199
0.00125 0 0.02625 0.000146555
-0.01125 2.1684e-19 0.02375 0.000169842
0.01125 2.1684e-19 0.02375 0.000176833
-0.00125 0 0.02625 0.000145784
-0.02625 1.0842e-19 0.00356872 0.000535613
0.02625 0 0.00356873 0.000664289
-0.01875 1.0842e-19 0.01875 0.000213222
0.00375 1.0842e-19 0.02625 0.00014734
0.01875 1.0842e-19 0.01875 0.000223292
-0.00375 -1.0842e-19 0.02625 0.000145024
-0.02 0 0.0175 0.000221721
0.02 0 0.0175 0.000231702
0.0175 0 0.02 0.000212897
-0.0175 4.51751e-21 0.02 0.000203009
0.02125 2.1684e-19 0.0162494 0.000240062
-0.02125 -1.0842e-19 0.0162494 0.000230273
0.01625 0 0.02125 0.000202471
-0.01625 -1.0842e-19 0.02125 0.000192838
-0.025 4.51751e-21 0.0099455 0.00027385
0.025 0 0.0099455 0.000286565
0.01 0 0.025 0.000162891
-0.01 0 0.025 0.000156688
-0.02625 -1.0842e-19 0.00608215 0.000352422
0.02625 -1.0842e-19 0.00608215 0.000397752
0.00625 0 0.02625 0.000148138
-0.00625 0 0.02625 0.000144274
0.0225 0 0.0149986 0.000247161
-0.0225 4.51751e-21 0.0149986 0.000237648
0.015 0 0.0225 0.000190093
-0.015 4.51751e-21 0.0225 0.000180976
-0.027348 0 0 0.000857383
0.027348 -2.71051e-20 0 0.0011534
-0.027348 -2.71051e-20 0.000142212 0.000857383
0.027348 0 0.000142188 0.0011534
0.02375 -1.0842e-19 0.0137433 0.000254212
-0.02375 0 0.0137433 0.00024508
-0.01375 0 0.02375 0.000169141
0.01375 -1.0842e-19 0.02375 0.000177703
0.0275 2.71051e-20 0 0.00115439
-0.0275 2.71051e-20 0 0.00085671
9.49036e-16 -4.51751e-21 0.0275 0.000132162
-0.0275 9.03502e-21 0.00234132 0.000696104
0.0275 -4.51751e-21 0.00234132 0.000912988
0.0025 0 0.0275 0.000132914
-0.0025 -4.51751e-21 0.0275 0.000131423
-0.02625 2.1684e-19 0.00865601 0.000286796
0.02625 0 0.00865601 0.000303588
0.027652 0 0 0.0011554
-0.027652 0 0 0.000856044
0.027652 0 0.000142188 0.0011554
-0.027652 0 0.000142212 0.000856044
0.00875 0 0.02625 0.000148956
-0.00875 0 0.02625 0.000143535
-0.0275 0 0.00480076 0.000442986
0.0275 4.51751e-21 0.00480076 0.000534465
0.025 0 0.0124872 0.000262335
-0.025 1.35525e-20 0.0124872 0.000252802
0.0125 0 0.025 0.000163739
-0.0125 0 0.025 0.000155976
0.005 0 0.0275 0.000133679
-0.005 0 0.0275 0.000130695
0.02 4.51751e-21 0.02 0.000213763
-0.02 0 0.02 0.000202436
0.01875 2.1684e-19 0.02125 0.000203361
0.02125 2.1684e-19 0.01875 0.000224136
-0.01875 0 0.02125 0.000192213
-0.02125 1.0842e-19 0.01875 0.000212703
-0.0275 0 0.00736599 0.000319098
0.0275 1.807e-20 0.00736599 0.000351639
0.0225 0 0.0175 0.000232514
-0.0225 0 0.0175 0.000221259
0.0175 0 0.0225 0.000190978
-0.0175 4.51751e-21 0.0225 0.000180322
0.0075 4.51751e-21 0.0275 0.000134458
-0.0075 0 0.0275 0.000129977
0.02625 1.0842e-19 0.011217 0.00027048
-0.02625 1.0842e-19 0.011217 0.000260559
-0.01125 -1.0842e-19 0.02625 0.000142818
0.01125 0 0.02625 0.000149787
-0.02875 0 0.00116944 0.000851227
0.02875 1.0842e-19 0.00116944 0.00116263
0.02375 1.0842e-19 0.0162494 0.000240844
-0.02375 1.0842e-19 0.0162494 0.000229869
-0.01625 0 0.02375 0.000168456
0.01625 -1.0842e-19 0.02375 0.000178587
0.00125 0 0.0287506 0.000118511
-0.00125 0 0.0287506 0.000117793
-0.02875 1.0842e-19 0.00356873 0.000530786
0.02875 1.0842e-19 0.00356873 0.000671964
0.00375 0 0.0287506 0.000119245
-0.00375 -1.0842e-19 0.0287506 0.000117085
0.025 0 0.0149986 0.000247896
-0.025 9.03502e-21 0.0149986 0.000237303
0.015 0 0.025 0.000164605
-0.015 0 0.025 0.000155277
-0.0275 0 0.0099455 0.00027345
0.0275 4.51751e-21 0.0099455 0.00028744
0.01 4.51751e-21 0.0275 0.000135252
-0.01 0 0.0275 0.000129273
-0.02875 0 0.00608215 0.000350796
0.02875 1.0842e-19 0.00608215 0.000400408
-0.00625 2.1684e-19 0.0287506 0.00011639
0.00625 1.0842e-19 0.0287506 0.000119987
-0.02625 0 0.0137433 0.000244795
0.02625 0 0.0137433 0.000254902
-0.01375 2.1684e-19 0.02625 0.000142104
0.01375 0 0.02625 0.000150634
-0.029848 2.71051e-20 0 0.000846493
0.029848 0 0 0.00117008
-0.029848 0 0.00014221 0.000846493
0.029848 0 0.000142187 0.00117008
-0.03 0 0 0.000845837
0.03 -2.71051e-20 0 0.0011711
1.69661e-12 -4.51751e-21 0.0300014 0.000104657
-0.02875 0 0.00865601 0.000286272
0.02875 0 0.00865601 0.000304657
-0.02125 1.0842e-19 0.02125 0.000191608
0.02125 -1.0842e-19 0.02125 0.000204264
0.00875 -1.0842e-19 0.0287506 0.000120745
-0.00875 -1.0842e-19 0.0287506 0.000115703
-0.03 -4.51751e-21 0.00234132 0.000688256
0.03 0 0.00234132 0.000925232
-0.02 0 0.0225 0.00017968
-0.0225 0 0.02 0.000201878
0.0225 4.51751e-21 0.02 0.000214655
0.02 4.51751e-21 0.0225 0.000191885
0.0025 0 0.0300014 0.000105333
-0.0025 -4.51751e-21 0.0300014 0.000103992
0.030152 0 0 0.00117213
-0.030152 0 0 0.000845184
0.030152 0 0.000142187 0.00117213
-0.030152 0 0.000142209 0.000845184
-0.0275 4.51751e-21 0.0124872 0.000252529
0.0275 4.51751e-21 0.0124872 0.000263037
0.0125 0 0.0275 0.00013606
-0.0125 0 0.0275 0.000128581
0.01875 0 0.02375 0.000179495
-0.01875 2.1684e-19 0.02375 0.000167779
-0.02375 1.0842e-19 0.01875 0.000212192
0.02375 -1.0842e-19 0.01875 0.000225015
-0.03 0 0.00480076 0.000439787
0.03 0 0.00480076 0.000539671
0.005 0 0.0300014 0.00010602
-0.005 0 0.0300014 0.000103338
0.025 0 0.0175 0.000233354
-0.025 0 0.0175 0.00022081
0.0175 0 0.025 0.000165491
-0.0175 0 0.025 0.00015459
-0.02875 0 0.011217 0.000260295
0.02875 -1.0842e-19 0.011217 0.000271191
-0.02625 1.0842e-19 0.0162494 0.000229485
0.02625 0 0.0162494 0.00024164
-0.01625 0 0.02625 0.000141406
0.01625 -2.1684e-19 0.02625 0.000151497
0.01125 0 0.0287506 0.000121514
-0.01125 0 0.0287506 0.000115033
-0.03 4.51751e-21 0.00736599 0.000318045
0.03 9.03502e-21 0.00736599 0.000353507
0.0075 4.51751e-21 0.0300014 0.00010672
-0.0075 0 0.0300014 0.000102692
-0.03125 1.0842e-19 0.00116944 0.000840449
0.03125 1.0842e-19 0.00116943 0.00117958
0.00125 2.1684e-19 0.0312567 9.14549e-05
-0.00125 -1.0842e-19 0.0312567 9.08356e-05
0.0275 0 0.0149986 0.000248659
-0.0275 4.51751e-21 0.0149986 0.000236974
0.015 0 0.0275 0.000136883
-0.015 0 0.0275 0.0001279
-0.03125 -1.0842e-19 0.00356873 0.000526056
0.03125 0 0.00356873 0.000679729
0.00375 0 0.0312567 9.20878e-05
-0.00375 0 0.0312567 9.02243e-05
-0.03 9.03502e-21 0.0099455 0.000273073
0.03 4.51751e-21 0.0099455 0.000288339
0.01 9.03502e-21 0.0300014 0.000107432
-0.01 0 0.0300014 0.000102059
0.0225 4.51751e-21 0.0225 0.000192816
-0.0225 0 0.0225 0.000179051
-0.03125 0 0.00608215 0.000349225
0.03125 1.0842e-19 0.00608215 0.000403071
-0.02875 0 0.0137433 0.000244522
0.02875 0 0.0137433 0.00025563
0.02125 2.1684e-19 0.02375 0.000180419
0.02375 1.0842e-19 0.02125 0.000205204
-0.02125 2.1684e-19 0.02375 0.000167119
-0.02375 0 0.02125 0.000191008
-0.01375 -1.0842e-19 0.0287506 0.000114367
0.01375 -1.0842e-19 0.0287506 0.0001223
0.00625 0 0.0312567 9.27299e-05
-0.00625 0 0.0312567 8.96196e-05
-0.02 0 0.025 0.000153916
0.02 0 0.025 0.000166396
0.025 0 0.02 0.000215574
-0.025 0 0.02 0.00020133
-0.01875 0 0.02625 0.000140719
0.02625 -1.0842e-19 0.01875 0.000225917
-0.02625 1.0842e-19 0.01875 0.000211698
0.01875 0 0.02625 0.000152386
-0.032348 0 0 0.000835782
0.032348 0 0 0.00118714
-0.032348 2.71051e-20 0.000142207 0.000835782
0.032348 0 0.0001422 0.00118714
-0.03125 -1.0842e-19 0.00865601 0.000285782
0.03125 -1.0842e-19 0.00865601 0.000305735
0.00875 0 0.0312567 9.33859e-05
-0.00875 1.0842e-19 0.0312567 8.90236e-05
-0.03 9.03502e-21 0.0124872 0.000252272
0.03 9.03502e-21 0.0124872 0.00026377
-0.0325 -2.71051e-20 0 0.000835136
0.0325 0 0 0.00118817
0.0125 9.03502e-21 0.0300014 0.000108155
-0.0125 4.51751e-21 0.0300014 0.000101436
1.93201e-11 0 0.0325128 7.86876e-05
-0.0325 -9.03502e-21 0.00234132 0.000680533
0.0325 9.03502e-21 0.00234132 0.000937744
0.0275 0 0.0175 0.00023422
-0.0275 0 0.0175 0.000220376
0.0175 0 0.0275 0.000137724
-0.0175 0 0.0275 0.00012723
0.0025 0 0.0325128 7.92529e-05
-0.0025 0 0.0325128 7.81316e-05
0.032652 0 0 0.00118923
-0.032652 0 0 0.000834493
0.032652 0 0.0001422 0.00118923
-0.032652 2.71051e-20 0.000142207 0.000834493
-0.0325 4.51751e-21 0.00480076 0.000436649
0.0325 0 0.00480076 0.000544971
0.005 0 0.0325128 7.98281e-05
-0.005 0 0.0325128 7.75825e-05
-0.02875 0 0.0162494 0.00022911
0.02875 1.0842e-19 0.0162494 0.000242477
0.01625 -1.0842e-19 0.0287506 0.000123096
-0.01625 1.0842e-19 0.0287506 0.000113718
0.03125 -1.0842e-19 0.011217 0.000271929
-0.03125 -2.1684e-19 0.011217 0.000260062
-0.01125 1.0842e-19 0.0312567 8.84445e-05
0.01125 -1.0842e-19 0.0312567 9.40488e-05
-0.0325 9.03502e-21 0.00736599 0.000317026
0.0325 4.51751e-21 0.00736599 0.000355392
-0.0075 0 0.0325128 7.70415e-05
0.0075 0 0.0325128 8.04136e-05
0.03 4.51751e-21 0.0149986 0.000249454
-0.03 4.51751e-21 0.0149986 0.000236658
0.015 9.03502e-21 0.0300014 0.000108892
-0.015 9.03502e-21 0.0300014 0.000100822
0.02375 1.0842e-19 0.02375 0.000181376
-0.02375 -2.1684e-19 0.02375 0.000166469
0.0225 0 0.025 0.000167323
0.025 0 0.0225 0.000193772
-0.0225 0 0.025 0.000153255
-0.025 0 0.0225 0.000178432
-0.03375 1.0842e-19 0.00116943 0.000829826
0.03375 1.0842e-19 0.00116943 0.00119678
0.02125 0 0.02625 0.000153284
0.02625 0 0.02125 0.000206159
-0.02125 0 0.02625 0.000140047
-0.02625 1.0842e-19 0.02125 0.000190424
0.00125 2.1684e-19 0.0337829 6.64343e-05
-0.00125 0 0.033783 6.59346e-05
0.03375 -1.0842e-19 0.00356873 0.00068773
-0.03375 1.0842e-19 0.00356873 0.000521383
-0.0325 1.807e-20 0.0099455 0.000272718
0.0325 4.51751e-21 0.0099455 0.000289256
0.00375 1.0842e-19 0.0337829 6.6943e-05
-0.00375 0 0.0337829 6.5441e-05
0.0275 0 0.02 0.00021652
-0.0275 0 0.02 0.000200796
0.02 0 0.0275 0.000138582
-0.02 0 0.0275 0.000126571
0.01 4.51751e-21 0.0325128 8.1009e-05
-0.01 0 0.0325128 7.65117e-05
0.03125 -1.0842e-19 0.0137433 0.000256387
-0.03125 -1.0842e-19 0.0137433 0.000244264
0.01375 -1.0842e-19 0.0312567 9.4727e-05
-0.01375 -1.0842e-19 0.0312567 8.78671e-05
0.03375 0 0.00608215 0.000405775
-0.03375 0 0.00608215 0.000347685
0.02875 1.0842e-19 0.01875 0.000226849
-0.02875 1.0842e-19 0.01875 0.000211214
0.01875 0 0.0287506 0.000123912
-0.01875 0 0.0287506 0.000113071
0.00625 0 0.0337829 6.74599e-05
-0.00625 0 0.0337829 6.49547e-05
-0.03 0 0.0175 0.000219954
0.03 4.51751e-21 0.0175 0.000235117
0.0175 4.51751e-21 0.0300014 0.000109643
-0.0175 4.51751e-21 0.0300014 0.000100217
0.0325 1.35525e-20 0.0124872 0.000264529
-0.0325 1.807e-20 0.0124872 0.000252031
0.0125 9.03502e-21 0.0325128 8.16154e-05
-0.0125 4.51751e-21 0.0325128 7.59898e-05
-0.03375 0 0.00865601 0.000285309
0.03375 0 0.00865601 0.00030683
-0.034848 0 0 0.000825252
0.034848 0 0 0.00120447
-0.034848 -2.71051e-20 0.000142206 0.000825252
0.034848 0 0.000142202 0.00120447
0.00875 1.0842e-19 0.0337829 6.79862e-05
-0.00875 1.0842e-19 0.0337829 6.44781e-05
-0.035 0 0 0.000824618
0.035 0 0 0.00120552
1.06827e-10 0 0.0350545 5.53103e-05
-0.035 -4.51751e-21 0.00234132 0.000672945
0.035 1.35525e-20 0.00234132 0.000950477
0.0025 0 0.0350545 5.57648e-05
-0.0025 0 0.0350545 5.48614e-05
0.035152 0 0 0.00120659
-0.035152 0 0 0.000823989
0.035152 0 0.000142203 0.00120659
-0.035152 -2.71051e-20 0.000142206 0.000823989
0.03125 2.1684e-19 0.0162494 0.000243335
-0.03125 0 0.0162494 0.000228753
-0.01625 -1.0842e-19 0.0312567 8.73042e-05
0.01625 -1.0842e-19 0.0312567 9.54143e-05
-0.035 0 0.00480076 0.000433573
0.035 -4.51751e-21 0.00480076 0.000550371
0.025 0 0.025 0.000168272
-0.025 0 0.025 0.000152603
0.02375 1.0842e-19 0.02625 0.000154212
0.02625 2.1684e-19 0.02375 0.000182348
-0.02625 1.0842e-19 0.02375 0.000165827
-0.02375 0 0.02625 0.000139384
0.005 0 0.0350545 5.62261e-05
-0.005 0 0.0350545 5.44174e-05
0.0275 0 0.0225 0.000194753
-0.0275 0 0.0225 0.000177823
0.0225 0 0.0275 0.000139458
-0.0225 0 0.0275 0.000125925
-0.03375 -1.0842e-19 0.011217 0.000259838
0.03375 -1.0842e-19 0.011217 0.000272689
0.01125 0 0.0337829 6.8522e-05
-0.01125 1.0842e-19 0.0337829 6.40112e-05
0.02875 1.0842e-19 0.02125 0.000207154
-0.02875 1.0842e-19 0.02125 0.000189849
0.02125 -1.0842e-19 0.0287506 0.00012474
-0.02125 0 0.0287506 0.000112444
-0.035 4.51751e-21 0.00736599 0.000316038
0.035 4.51751e-21 0.00736599 0.0003573
0.0325 9.03502e-21 0.0149986 0.000250274
-0.0325 9.03502e-21 0.0149986 0.000236355
0.015 1.35525e-20 0.0325128 8.22329e-05
-0.015 1.35525e-20 0.0325128 7.5475e-05
0.0075 0 0.0350545 5.66942e-05
-0.0075 0 0.0350545 5.39794e-05
0.03 4.51751e-21 0.02 0.000217495
-0.03 0 0.02 0.000200274
0.02 0 0.0300014 0.000110409
-0.02 0 0.0300014 9.96217e-05
0.03625 0 0.00116943 0.00121428
-0.03625 -2.1684e-19 0.00116944 0.000819415
0.00125 0 0.036344 4.45861e-05
-0.00125 2.1684e-19 0.036344 4.41839e-05
-0.035 9.03502e-21 0.0099455 0.000272382
0.035 4.51751e-21 0.0099455 0.000290192
0.03625 1.0842e-19 0.00356873 0.000695829
-0.03625 0 0.00356873 0.00051682
-0.03375 -1.0842e-19 0.0137433 0.000244017
0.03375 -1.0842e-19 0.0137433 0.000257166
0.03125 -1.0842e-19 0.01875 0.000227809
-0.03125 1.0842e-19 0.01875 0.000210744
0.01875 0 0.0312567 9.61174e-05
-0.01875 -1.0842e-19 0.0312567 8.67439e-05
0.01 0 0.0350545 5.7169e-05
-0.01 0 0.0350545 5.35485e-05
-0.01375 2.1684e-19 0.0337829 6.35475e-05
0.01375 0 0.033783 6.90704e-05
0.00375 1.0842e-19 0.036344 4.4993e-05
-0.00375 1.0842e-19 0.036344 4.37843e-05
-0.03625 -1.0842e-19 0.00608215 0.000346196
0.03625 1.0842e-19 0.00608215 0.000408502
0.00625 0 0.036344 4.54052e-05
-0.00625 1.0842e-19 0.036344 4.33881e-05
0.0325 4.51751e-21 0.0175 0.000236038
-0.0325 0 0.0175 0.000219546
0.0175 9.03502e-21 0.0325128 8.28613e-05
-0.0175 9.03502e-21 0.0325128 7.49672e-05
0.02625 0 0.02625 0.000155153
-0.02625 -1.0842e-19 0.02625 0.000138734
0.035 9.03502e-21 0.0124872 0.000265312
-0.035 9.03502e-21 0.0124872 0.000251804
0.0275 0 0.025 0.000169245
-0.0275 0 0.025 0.000151961
0.025 0 0.0275 0.000140353
-0.025 0 0.0275 0.000125289
0.0125 0 0.0350545 5.76515e-05
-0.0125 0 0.0350545 5.31227e-05
-0.03625 -1.0842e-19 0.00865601 0.000284863
0.03625 -1.0842e-19 0.00865601 0.000307931
0.02875 0 0.02375 0.000183352
-0.02875 1.0842e-19 0.02375 0.000165193
-0.02375 1.0842e-19 0.0287506 0.000111821
0.02375 0 0.0287506 0.00012559
0.037348 0 0 0.00122211
-0.037348 0 0 0.000814919
0.037348 0 0.000142205 0.00122211
-0.037348 0 0.000142193 0.000814919
0.00875 0 0.036344 4.58218e-05
-0.00875 0 0.036344 4.29958e-05
-0.03375 2.1684e-19 0.0162494 0.000228406
0.03375 1.0842e-19 0.0162494 0.00024422
0.01625 0 0.0337829 6.96258e-05
-0.01625 -1.0842e-19 0.0337829 6.30925e-05
-0.03 4.51751e-21 0.0225 0.000177227
-0.0375 0 0 0.000814294
0.0375 0 0 0.00122318
0.03 0 0.0225 0.000195763