# omega  POINT_DATA 28084
# x  y  z  omega
0 0.000152009 5.5926e-11 133.762
-6.46235e-27 -0.000334729 0 133.787
0 -0.00109799 0.00116944 133.826
1.0842e-19 0.001402 0.00116944 133.698
0 0.000152004 0.00233887 91.0412
-5.16988e-26 -0.00234799 2.31322e-10 133.887
0 -0.00234799 0.000212484 130.004
0 0.00265199 2.30541e-10 133.631
7.02041e-20 -0.002348 0.00233887 91.1537
0 0.002652 0.00233887 90.9238
-1.0842e-19 -0.001098 0.00356872 47.687
0 -0.003598 0.00116943 133.947
0 0.001402 0.00356873 47.585
0 0.003902 0.00116944 133.564
0 0.000152002 0.00479858 35.0843
2.06795e-25 -0.00484801 1.64597e-09 134.004
2.06795e-25 -0.00484801 0.000833964 118.764
-2.1684e-19 -0.003598 0.00356872 47.7865
1.03398e-25 0.00515199 6.60558e-10 133.493
0 -0.0051546 0 134.018
1.0842e-19 0.003902 0.00356872 47.4806
-9.99668e-20 -0.002348 0.00479858 35.1651
-1.36721e-20 -0.004848 0.00233887 91.2617
0 0.002652 0.00479858 35.0021
0 0.005152 0.00233887 90.8017
0 -0.001098 0.00608215 22.3816
-2.1684e-19 -0.006098 0.00116943 134.061
0 0.001402 0.00608215 22.3208
0 0.006402 0.00116943 133.422
-1.35479e-19 -0.004848 0.00479858 35.2445
0 0.005152 0.00479858 34.9184
1.0842e-19 -0.006098 0.00356873 47.8837
0 -0.003598 0.00608215 22.4419
1.0842e-19 0.003902 0.00608215 22.2597
0 0.006402 0.00356872 47.3736
0 -0.007348 1.17757e-08 134.115
0 0.000151999 0.00736572 18.0671
-3.30872e-24 0.00765203 1.4035e-08 133.347
0 -0.007348 0.00233887 91.3655
0 -0.002348 0.00736572 18.108
2.06795e-25 0.002652 0.00736572 18.0264
0 0.00765201 0.00233888 90.6743
0 -0.006098 0.00608215 22.5018
2.1684e-19 -0.008598 0.00116944 134.169
0 -0.001098 0.008656 13.7857
1.0842e-19 0.001402 0.00865601 13.7648
-4.1359e-25 -0.007348 0.00479858 35.3224
0 -0.004848 0.00736572 18.1489
0 0.006402 0.00608215 22.1982
1.0842e-19 0.008902 0.00116944 133.271
-2.06795e-25 0.005152 0.00736572 17.9857
0 0.007652 0.00479858 34.8334
-1.0842e-19 -0.008598 0.00356872 47.9785
0 -0.003598 0.008656 13.8072
0 0.003902 0.008656 13.7446
1.0842e-19 0.008902 0.00356872 47.2641
0 -0.00984799 2.28661e-10 134.22
5.16988e-26 0.000152 0.00994629 12.0224
8.27181e-25 -0.009848 0.00233887 91.4649
-3.30872e-24 0.010152 1.3999e-08 133.193
0 -0.002348 0.00994629 12.0317
-5.16988e-26 0.002652 0.00994629 12.0139
0 -0.007348 0.00736572 18.1898
0 0.010152 0.00233888 90.5417
-1.03398e-25 -0.0104854 0 134.246
0 -0.008598 0.00608215 22.5612
1.0842e-19 -0.006098 0.008656 13.8291
0 0.007652 0.00736572 17.9454
-2.1684e-19 0.006402 0.008656 13.725
0 0.008902 0.00608215 22.1366
-4.1359e-25 -0.009848 0.00479858 35.399
5.16988e-26 -0.004848 0.00994629 12.0415
1.0842e-19 -0.011098 0.00116943 134.271
0 0.005152 0.00994629 12.0062
0 0.010152 0.00479858 34.7469
1.0842e-19 -0.001098 0.011217 10.2772
-1.0842e-19 0.001402 0.011217 10.2802
-1.0842e-19 0.011402 0.00116943 133.114
0 -0.011098 0.00356872 48.0712
2.1684e-19 -0.003598 0.011217 10.275
0 0.003902 0.011217 10.2841
0 0.011402 0.00356872 47.152
0 -0.008598 0.00865601 13.8514
0 -0.009848 0.00736572 18.2306
-1.03398e-25 -0.012348 6.6811e-10 134.32
0 -0.012348 0.000490448 125.353
5.16988e-26 -0.007348 0.00994629 12.052
1.0842e-19 0.008902 0.008656 13.7063
0 0.000152 0.0124878 9.41437
-1.39051e-20 0.010152 0.00736572 17.9054
0 0.007652 0.00994629 11.9993
0 -0.012348 0.00233887 91.5603
-1.65436e-24 0.012652 1.29297e-08 133.031
1.0842e-19 -0.011098 0.00608215 22.62
-1.29247e-26 -0.002348 0.0124878 9.40567
0 0.002652 0.0124878 9.4239
0 -0.006098 0.011217 10.2734
-8.27181e-25 0.012652 0.00233888 90.4038
1.0842e-19 0.006402 0.011217 10.2889
1.0842e-19 0.011402 0.00608215 22.0748
0 -0.012348 0.00479858 35.4742
0 -0.004848 0.0124878 9.39773
0 0.005152 0.0124878 9.43434
-4.1359e-25 0.012652 0.00479858 34.6591
-2.1684e-19 -0.013598 0.00116943 134.368
1.0842e-19 -0.001098 0.0137433 8.54593
2.1684e-19 0.001402 0.0137433 8.56108
1.0842e-19 0.013902 0.00116943 132.947
0 -0.009848 0.00994629 12.063
-2.1684e-19 -0.013598 0.00356872 48.1619
-1.0842e-19 -0.011098 0.00865601 13.8741
1.0842e-19 -0.008598 0.011217 10.2726
0 -0.003598 0.0137433 8.53159
-5.16988e-26 0.010152 0.00994629 11.9934
0 0.003902 0.0137433 8.57712
-1.0842e-19 0.011402 0.008656 13.6885
0 0.008902 0.011217 10.2948
1.0842e-19 0.013902 0.00356872 47.0372
0 -0.012348 0.00736572 18.2714
0 -0.007348 0.0124878 9.39052
2.06795e-25 0.012652 0.00736572 17.8657
0 0.007652 0.0124878 9.44574
0 0.0146569 0 132.894
0 -0.014848 4.51806e-09 134.413
-2.1684e-19 -0.013598 0.00608215 22.6783
-4.1359e-25 -0.014848 0.00182911 100.972
0 0.000152 0.0149988 8.03928
0 -0.014848 0.00233887 91.6518
1.0842e-19 -0.006098 0.0137433 8.51801
0 0.015152 3.19293e-09 132.86
1.0842e-19 0.006402 0.0137433 8.59408
0 0.013902 0.00608215 22.0128
0 -0.002348 0.0149988 8.02174
4.1359e-25 0.015152 0.00133696 108.509
0 0.002652 0.0149988 8.05764
0 0.015152 0.00233887 90.2601
0 -0.014848 0.00479858 35.5482
0 -0.004848 0.0149988 8.00498
2.1684e-19 -0.011098 0.011217 10.2726
0 -0.012348 0.00994629 12.0745
8.07794e-28 0.005152 0.0149988 8.07687
0 0.015152 0.00479858 34.5698
0 -0.009848 0.0124878 9.38406
0 0.011402 0.011217 10.3016
-5.16988e-26 0.012652 0.00994629 11.9884
0 0.010152 0.0124878 9.45816
1.0842e-19 -0.013598 0.008656 13.8972
2.1684e-19 -0.016098 0.00116943 134.458
2.1684e-19 -0.008598 0.0137433 8.50517
0 -0.001098 0.0162494 7.51537
0 0.001402 0.0162494 7.53608
0 0.008902 0.0137433 8.61202
0 0.013902 0.008656 13.6715
1.0842e-19 0.016402 0.00116943 132.772
1.0842e-19 -0.016098 0.00356872 48.2505
1.03398e-25 -0.014848 0.00736572 18.3121
-1.0842e-19 -0.003598 0.0162494 7.49542
0 -0.007348 0.0149988 7.98898
0 0.003902 0.0162494 7.5576
0 0.016402 0.00356872 46.9197
0 0.007652 0.0149988 8.09701
0 0.015152 0.00736572 17.8264
0 -0.016098 0.00608215 22.7361
0 -0.017348 7.40038e-09 134.501
0 -0.006098 0.0162494 7.47626
9.04729e-26 -0.0172029 0.00233887 91.7342
0 0.006402 0.0162494 7.57998
-1.0842e-19 0.016402 0.00608215 21.9507
-5.34848e-28 0.000152 0.0174957 7.16227
-5.52613e-20 -0.017348 0.00233887 91.7393
5.16988e-26 -0.017348 0.00263528 84.9767
6.46235e-27 -0.012348 0.0124878 9.37828
0 -0.013598 0.011217 10.273
-8.27181e-25 0.017652 5.04984e-09 132.681
-1.57772e-30 -0.002348 0.0175 7.14089
2.1684e-19 -0.011098 0.0137433 8.49305
1.26218e-29 0.002652 0.0174954 7.18439
2.06795e-25 0.017652 0.00202524 95.8191
0 0.012652 0.0124878 9.47163
4.90094e-20 0.017652 0.00233887 90.1108
0 0.011402 0.0137433 8.631
-1.0842e-19 0.013902 0.011217 10.3096
-2.58494e-26 -0.014848 0.00994629 12.0867
0 -0.009848 0.0149988 7.97365
0 -0.017348 0.00479858 35.6208
8.07794e-28 0.010152 0.0149988 8.11811
0 0.015152 0.00994629 11.9844
-9.15079e-29 -0.004848 0.0174955 7.12024
-3.61298e-28 0.005152 0.0174953 7.20727
0 -0.016098 0.008656 13.9208
2.20506e-20 0.017652 0.00479858 34.479
0 -0.008598 0.0162494 7.45783
1.0842e-19 0.008902 0.0162494 7.60326
0 0.016402 0.008656 13.6555
-1.0842e-19 -0.018598 0.00116943 134.543
0 -0.001098 0.01875 6.787
0 0.001402 0.01875 6.80975
0 -0.017348 0.00736572 18.3527
-1.0842e-19 -0.018598 0.00356872 48.337
0 0.018902 0.00116943 132.589
-1.43573e-28 -0.007348 0.0174953 7.10028
0 -0.003598 0.01875 6.76491
1.60928e-28 0.007652 0.0174955 7.23096
0 0.017652 0.00736572 17.7875
-1.0842e-19 0.003902 0.01875 6.8332
0 0.018902 0.00356872 46.7992
0 -0.013598 0.0137433 8.48172
0 -0.014848 0.0124878 9.37334
0 -0.012348 0.0149988 7.95897
-1.0842e-19 0.013902 0.0137433 8.65105
0 -0.018598 0.00608215 22.7933
-2.1684e-19 -0.016098 0.011217 10.2746
0 0.012652 0.0149988 8.14023
0 0.015152 0.0124878 9.48623
0 -0.011098 0.0162494 7.43993
-1.0842e-19 -0.006098 0.01875 6.74347
0 0.006402 0.01875 6.85738
1.65436e-24 -0.019848 8.29598e-09 134.583
0 0.011402 0.0162494 7.62748
-2.1684e-19 0.018902 0.00608215 21.8885
-2.1684e-19 0.016402 0.011217 10.3187
-1.24278e-20 -0.019848 0.00233887 91.823
1.29247e-26 -0.017348 0.00994629 12.0997
3.28979e-21 0.000152 0.02 6.50316
-3.07656e-28 -0.009848 0.017495 7.08091
6.45119e-20 -0.002348 0.02 6.48076
0 0.020152 4.1787e-09 132.493
8.08456e-20 0.002652 0.02 6.52619
-1.89327e-28 0.010152 0.0174956 7.2555
4.1359e-25 0.020152 0.00178799 99.9746
-2.58494e-26 0.017652 0.00994629 11.9816
0 0.020152 0.00233887 89.9556
0 -0.019848 0.00443348 44.0238
-2.58494e-26 -0.019848 0.00479858 35.692
-1.0842e-19 -0.018598 0.008656 13.9447
-9.67102e-20 -0.004848 0.02 6.45895
-1.0842e-19 -0.008598 0.01875 6.72261
8.08456e-20 0.005152 0.02 6.54987
2.06795e-25 0.020152 0.00479858 34.3866
1.0842e-19 0.008902 0.01875 6.88232
-1.0842e-19 0.018902 0.00865601 13.6404
4.1359e-25 0.0208236 0 132.44
-4.03897e-28 -0.014848 0.0149988 7.94499
-1.0842e-19 -0.021098 0.00116943 134.622
0 -0.016098 0.0137433 8.47129
0 -0.019848 0.00736572 18.3932
0 -0.013598 0.0162494 7.42255
1.0842e-19 -0.001098 0.02125 6.19662
0 0.001402 0.02125 6.21929
8.08456e-20 -0.007348 0.02 6.43768
0 0.015152 0.0149988 8.1634
1.61559e-27 -0.017348 0.0124878 9.3695
1.0842e-19 0.013902 0.0162494 7.65269
-1.0842e-19 -0.021098 0.00356872 48.4212
-1.0842e-19 0.016402 0.0137433 8.67224
2.05104e-28 -0.012348 0.0174939 7.06393
-9.67102e-20 0.007652 0.02 6.57422
5.84013e-20 -0.012348 0.0175 7.06175
-2.1684e-19 0.021402 0.00116943 132.397
0 0.020152 0.00736572 17.7491
1.0842e-19 -0.003598 0.02125 6.17451
-2.61902e-28 0.012652 0.0174953 7.28095
0 0.003902 0.02125 6.24253
0 0.017652 0.0124878 9.502
0 -0.0211569 0.00479858 35.7285
0 0.021402 0.00356872 46.6756
-1.0842e-19 -0.018598 0.011217 10.2777
0 -0.011098 0.01875 6.70226
1.0842e-19 0.011402 0.01875 6.90806
0 -0.021098 0.00608215 22.8499
-1.0842e-19 0.018902 0.011217 10.3291
-1.0842e-19 -0.006098 0.02125 6.1529
0 0.006402 0.02125 6.26637
0 -0.019848 0.00994629 12.1133
0 0.021402 0.00608215 21.8261
8.08456e-20 -0.009848 0.02 6.41692
0 -0.022348 8.9637e-09 134.659
3.28979e-21 0.010152 0.02 6.59928
4.7591e-20 -0.022348 0.00233887 91.9027
0 0.020152 0.00994629 11.9798
8.08456e-20 0.000152 0.0225 5.94647
-3.54881e-20 -0.002348 0.0225 5.92472
-1.65436e-24 0.022652 1.13766e-08 132.297
8.08456e-20 0.002652 0.0225 5.96874
0 0.022652 0.00233887 89.7947
-1.0842e-19 -0.021098 0.008656 13.9688
-5.63276e-21 -0.022348 0.00479858 35.7617
-1.0842e-19 -0.016098 0.0162494 7.40577
1.0842e-19 -0.008598 0.02125 6.13176
0 -0.017348 0.0149988 7.93176
-1.40417e-28 -0.014848 0.0174901 7.04696
-1.57772e-30 -0.014848 0.0175 7.04339
-3.54881e-20 -0.004848 0.0225 5.90346
0 0.008902 0.02125 6.29083
-3.54881e-20 0.005152 0.0225 5.99154
2.1684e-19 0.021402 0.008656 13.6264
-1.0842e-19 0.016402 0.0162494 7.67891
-1.0842e-19 -0.018598 0.0137433 8.46173
-1.10441e-28 0.015152 0.0174946 7.30734
0 0.022652 0.00479858 34.2925
0 -0.013598 0.01875 6.68238
0 0.017652 0.0149988 8.18767
0 0.013902 0.01875 6.93463
0 -0.022348 0.00679963 22.2545
1.0842e-19 0.018902 0.0137433 8.69462
8.07794e-28 -0.019848 0.0124878 9.36655
1.58401e-19 -0.012348 0.02 6.39662
0 -0.022348 0.00736572 18.4334
-1.0842e-19 -0.023598 0.00116943 134.696
3.28979e-21 0.012652 0.02 6.62508
8.08456e-20 -0.007348 0.0225 5.88264
0 0.020152 0.0124878 9.519
-9.67102e-20 0.007652 0.0225 6.01489
1.0842e-19 -0.001098 0.02375 5.67433
-1.0842e-19 0.001402 0.02375 5.69567
0 0.022652 0.00736572 17.7111
0 -0.023598 0.00356872 48.5029
-1.0842e-19 -0.021098 0.011217 10.2813
0 0.023902 0.00116944 132.197
-1.0842e-19 -0.011098 0.02125 6.11106
0 -0.003598 0.02375 5.65345
-1.0842e-19 0.003902 0.02375 5.71748
0 0.011402 0.02125 6.31593
1.0842e-19 0.021402 0.011217 10.3407
-2.1684e-19 0.023902 0.00356872 46.5486
1.0842e-19 -0.023598 0.00608215 22.9056
0 -0.0233185 0.00736572 18.4488
0 -0.022348 0.00994629 12.1273
1.0842e-19 -0.006098 0.02375 5.63298
1.58401e-19 -0.009848 0.0225 5.86224
-1.0842e-19 0.006402 0.02375 5.73978
9.6241e-29 -0.017348 0.0174762 7.03419
1.97432e-20 -0.017348 0.0175 7.02557
0 0.023902 0.00608215 21.7635
3.28979e-21 0.010152 0.0225 6.03882
1.0842e-19 -0.018598 0.0162494 7.38962
1.0842e-19 -0.016098 0.01875 6.66297
0 0.022652 0.00994629 11.9793
1.65436e-24 -0.024848 1.04578e-08 134.73
-8.67747e-29 0.017652 0.0174937 7.3365
-1.57772e-30 0.017652 0.0175 7.33436
0 -0.019848 0.0149988 7.91923
-5.99305e-20 -0.014848 0.02 6.37676
-1.0842e-19 0.016402 0.01875 6.96206
1.0842e-19 0.018902 0.0162494 7.7062
0 -0.024848 0.00233887 91.9785
-9.67102e-20 0.000152 0.025 5.44276
3.28979e-21 0.015152 0.02 6.65164
3.28979e-21 -0.002348 0.025 5.42271
-8.07794e-28 0.020152 0.0149988 8.21308
1.0842e-19 -0.023598 0.008656 13.9931
-9.67102e-20 0.002652 0.025 5.46325
1.65436e-24 0.025152 1.2557e-08 132.093
1.0842e-19 -0.021098 0.0137433 8.45292
1.0842e-19 -0.013598 0.02125 6.09078
1.0842e-19 -0.008598 0.02375 5.61292
0 0.025152 0.00233887 89.6279
0 -0.024848 0.00479858 35.8296
1.0842e-19 0.008902 0.02375 5.76259
-1.0842e-19 0.013902 0.02125 6.34171
-1.0842e-19 0.023902 0.008656 13.6135
1.0842e-19 0.021402 0.0137433 8.71821
3.28979e-21 -0.004848 0.025 5.40306
-3.54881e-20 0.005152 0.025 5.48419
0 -0.022348 0.0124878 9.36425
2.06795e-25 0.025152 0.00479858 34.1965
1.58401e-19 -0.012348 0.0225 5.84225
-9.67102e-20 0.012652 0.0225 6.06334
-6.46235e-27 0.022652 0.0124878 9.53727
4.59463e-20 -0.024848 0.00736572 18.4732
8.08456e-20 -0.007348 0.025 5.38379
0 -0.026098 0.00116943 134.765
0 -0.023598 0.011217 10.2854
8.08456e-20 0.007652 0.025 5.50558
0 0.025152 0.00736572 17.6735
0 -0.011098 0.02375 5.59324
0 -0.001098 0.02625 5.19093
-1.0842e-19 0.001402 0.02625 5.21013
0 -0.026098 0.00356872 48.5822
1.0842e-19 0.011402 0.02375 5.78593
-1.0842e-19 0.023902 0.011217 10.3537
1.0842e-19 -0.018598 0.01875 6.64403
1.26218e-29 -0.019848 0.0174442 7.02862
0 0.026402 0.00116944 131.988
8.11948e-20 -0.019848 0.0175 7.00829
3.20767e-20 -0.017348 0.02 6.35734
1.0842e-19 -0.003598 0.02625 5.17213
1.0842e-19 0.003902 0.02625 5.22973
-1.61559e-27 -0.024848 0.0095575 13.0956
-1.0842e-19 0.018902 0.01875 6.99037
0 -0.021098 0.0162494 7.37407
-2.1684e-19 0.026402 0.00356872 46.418
-2.1684e-19 -0.016098 0.02125 6.07091
8.08456e-20 0.017652 0.02 6.67898
-4.57539e-29 0.020152 0.0174939 7.36473
0 0.020152 0.0175 7.36265
0 -0.024848 0.00994629 12.1417
0 -0.026098 0.00608215 22.9604
-1.0842e-19 0.016402 0.02125 6.36816
8.08456e-20 -0.009848 0.025 5.36489
1.0842e-19 0.021402 0.0162494 7.73458
-1.00974e-28 -0.022348 0.0149988 7.90738
0 -0.006098 0.02625 5.15368
1.01292e-19 -0.014848 0.0225 5.82267
8.08456e-20 0.010152 0.025 5.52745
1.0842e-19 0.006402 0.02625 5.24976
5.16988e-26 0.025152 0.00994629 11.98
1.0842e-19 0.026402 0.00608215 21.7007
8.08456e-20 0.015152 0.0225 6.08847
0 0.022652 0.0149988 8.23966
0 -0.023598 0.0137433 8.44482
0 -0.027348 1.20369e-08 134.796
0 -0.013598 0.02375 5.57395
5.2784e-20 -0.027348 0.00233887 92.0505
1.0842e-19 -0.026098 0.00865601 14.0176
3.28979e-21 0.000152 0.0275 4.98565
-6.46866e-29 0.000152 0.027515 4.98318
0 0.013902 0.02375 5.8098
0 -0.0256961 0.00994629 12.1467
0 0.023902 0.0137433 8.74308
8.08456e-20 -0.002348 0.0275 4.9679
0 -0.008598 0.02625 5.13558
6.45162e-20 0.002652 0.0275 5.00377
-3.15544e-30 -0.002348 0.0275346 4.96222
9.46633e-30 0.002652 0.0275104 5.00204
1.65436e-24 0.027652 1.18528e-08 131.88
-1.0842e-19 0.008902 0.02625 5.2702
-4.1359e-25 0.027652 0.00233887 89.4552
7.78143e-20 -0.027348 0.00479858 35.8958
-1.0842e-19 0.026402 0.008656 13.6016
0 -0.024848 0.0124878 9.36256
-9.67102e-20 -0.012348 0.025 5.34637
-9.67102e-20 -0.004848 0.0275 4.95049
-9.67102e-20 0.005152 0.0275 5.02228
-1.41995e-28 0.005152 0.0275096 5.02067
-9.67102e-20 0.012652 0.025 5.54981
-1.41995e-29 -0.004848 0.0276314 4.9291
0 0.027652 0.00479858 34.0985
1.29247e-26 0.025152 0.0124878 9.55689
1.01872e-19 -0.019848 0.02 6.33836
0 -0.021098 0.01875 6.62556
0 -0.018598 0.02125 6.05145
-3.90552e-20 -0.027348 0.00736572 18.5126
-1.57772e-30 -0.022348 0.01746 7.0062
-1.57772e-30 -0.022348 0.0175 6.99155
8.08456e-20 0.020152 0.02 6.70712
0 -0.026098 0.011217 10.2902
8.30758e-20 -0.017348 0.0225 5.80347
1.0842e-19 0.018902 0.02125 6.39533
0 0.021402 0.01875 7.01959
-9.67087e-20 -0.007348 0.0275 4.93342
1.0842e-19 -0.011098 0.02625 5.11784
1.57772e-30 -0.007348 0.0275604 4.92365
8.08456e-20 0.007652 0.0275 5.04118
-1.49884e-28 0.007652 0.0275105 5.03941
8.08456e-20 0.017652 0.0225 6.11423
0 0.027652 0.00736572 17.6363
-1.0842e-19 0.011402 0.02625 5.29108
-1.26218e-28 0.022652 0.0174949 7.39224
0 -0.028598 0.00116944 134.828
0 -0.023598 0.0162494 7.35911
2.1684e-19 0.026402 0.011217 10.368
-1.0842e-19 -0.016098 0.02375 5.55504
1.0842e-19 -0.001098 0.0287506 4.7624
-1.0842e-19 0.001402 0.0287506 4.77907
-1.0842e-19 -0.028598 0.00356873 48.6589
-1.0842e-19 0.016402 0.02375 5.83422
0 0.023902 0.0162494 7.76406
1.0842e-19 0.028902 0.00116944 131.772
-1.0842e-19 -0.003598 0.0287506 4.74606
0 0.003902 0.0287506 4.79609
0 -0.024848 0.0149988 7.89616
-9.67102e-20 -0.014848 0.025 5.32821
-2.74669e-20 -0.027348 0.00994629 12.1564
0 0.028902 0.00356872 46.2835
3.28979e-21 -0.009848 0.0275 4.91669
-3.15544e-30 -0.009848 0.0275241 4.91281
8.08456e-20 0.015152 0.025 5.57266
0 -0.028598 0.00608215 23.0142
8.07794e-28 0.025152 0.0149988 8.26745
8.08456e-20 0.010152 0.0275 5.06048
-3.47099e-29 0.010152 0.0275124 5.05837
0 0.027652 0.00994629 11.9819
0 -0.006098 0.0287506 4.73004
0 0.006402 0.0287506 4.81347
1.0842e-19 -0.026098 0.0137433 8.43736
-1.0842e-19 0.028902 0.00608215 21.6374
0 -0.013598 0.02625 5.10045
-1.0842e-19 0.013902 0.02625 5.31242
0 0.026402 0.0137433 8.76926
0 -0.029848 1.28842e-08 134.858
0 -0.028598 0.008656 14.0421
-5.67942e-20 -0.029848 0.00233887 92.1191
-1.0842e-19 -0.021098 0.02125 6.03239
0 -0.027348 0.0123058 9.56158
-1.11768e-19 -0.022348 0.02 6.31981
-2.01948e-28 0.000152 0.0300012 4.57349
2.22018e-20 -0.019848 0.0225 5.78465
0 -0.008598 0.0287506 4.71432
0 -0.027348 0.0124878 9.36143
1.00974e-28 -0.002348 0.0300012 4.55825
1.0842e-19 0.008902 0.0287506 4.83122
0 0.002652 0.0300012 4.58904
0 -0.023598 0.01875 6.60758
-1.30406e-20 -0.012348 0.0275 4.90028
-1.65436e-24 0.030152 9.17765e-09 131.661
0 0.021402 0.02125 6.42322
-9.15079e-29 -0.012348 0.0275167 4.89761
-1.0842e-19 -0.018598 0.02375 5.53649
1.0842e-19 0.028902 0.008656 13.591
8.08456e-20 0.020152 0.0225 6.14063
-9.67102e-20 0.022652 0.02 6.7361
-1.36003e-20 -0.029848 0.00479858 35.9604
0 0.030152 0.00233887 89.2766
-9.67063e-20 0.012652 0.0275 5.08019
-7.25752e-29 0.012652 0.0275145 5.07773
0 0.027652 0.0124878 9.57788
-1.0842e-19 0.018902 0.02375 5.8592
3.62876e-29 -0.024848 0.0174695 6.98657
0 0.023902 0.01875 7.04973
0 -0.004848 0.0300012 4.54331
0 -0.024848 0.0175 6.97534
-9.67102e-20 -0.017348 0.025 5.3104
0 0.005152 0.0300012 4.60493
0 0.030152 0.00479858 33.9982
8.08456e-20 0.017652 0.025 5.59602
1.30951e-28 0.025152 0.0174955 7.42253
0 -0.028598 0.011217 10.2953
1.0842e-19 -0.026098 0.0162494 7.34474
-1.01162e-20 -0.029848 0.00736572 18.5516
-1.0842e-19 -0.016098 0.02625 5.0834
1.0842e-19 -0.011098 0.0287506 4.69893
0 -0.0281823 0.0124878 9.36123
5.04871e-29 -0.007348 0.0300012 4.52867
-1.0842e-19 0.011402 0.0287506 4.84934
0 0.016402 0.02625 5.3342
0 0.007652 0.0300012 4.62115
1.0842e-19 0.026402 0.0162494 7.79467
0 0.028902 0.011217 10.3839
5.16988e-26 0.030152 0.00736572 17.5996
1.0842e-19 -0.031098 0.00116944 134.888
1.00974e-28 -0.027348 0.0149988 7.88552
5.28799e-21 -0.014848 0.0275 4.8842
-9.30856e-29 -0.014848 0.0275159 4.88166
1.0842e-19 -0.001098 0.0312567 4.36893
-1.0842e-19 0.001402 0.0312567 4.38304
1.0842e-19 -0.031098 0.00356873 48.7332
8.08456e-20 0.015152 0.0275 5.10032
1.27795e-28 0.015152 0.0275161 5.09757
0 0.031402 0.00116944 131.549
0 0.027652 0.0149988 8.29648
-4.36306e-20 -0.029848 0.00994629 12.1713
0 -0.003598 0.0312567 4.3551
-2.1684e-19 0.003902 0.0312567 4.39745
0 -0.009848 0.0300012 4.51431
2.1684e-19 0.031402 0.00356872 46.1447
0 0.010152 0.0300012 4.63772
0 -0.031098 0.00608215 23.0671
6.44825e-21 -0.022348 0.0225 5.76619
0 -0.028598 0.0137433 8.4305
0 0.030152 0.00994629 11.9853
1.0842e-19 -0.023598 0.02125 6.01374
-1.0842e-19 -0.021098 0.02375 5.5183
1.0842e-19 -0.013598 0.0287506 4.68384
-1.0842e-19 -0.006098 0.0312567 4.34154
-2.52908e-20 -0.024848 0.02 6.3017
1.0842e-19 0.006402 0.0312567 4.41217
-3.54881e-20 -0.019848 0.025 5.2929
-1.57772e-30 0.022652 0.0225 6.16768
0 0.013902 0.0287506 4.86784
0 0.021402 0.02375 5.88476
0 0.023902 0.02125 6.45185
-1.0842e-19 0.031402 0.00608215 21.5738
0 0.028902 0.0137433 8.79681
-1.91544e-20 0.020152 0.025 5.61989
-9.67102e-20 0.025152 0.02 6.7659
2.1684e-19 -0.026098 0.01875 6.59007
1.0842e-19 -0.018598 0.02625 5.06669
0 0.0319167 0.00479858 33.9256
0 -0.031098 0.008656 14.0667
-5.16988e-26 -0.0322927 0 134.914
1.0842e-19 0.018902 0.02625 5.35644
-5.16988e-26 -0.032348 2.91356e-10 134.916
-4.1359e-25 -0.032348 0.000175023 131.718
4.03897e-28 -0.029848 0.0124878 9.36082
-1.0842e-19 0.026402 0.01875 7.0808
1.55096e-25 -0.0324042 0 134.917
-1.0842e-19 -0.008598 0.0312567 4.32825
1.44542e-19 -0.032348 0.00233887 92.1845
0 -0.012348 0.0300012 4.50025
1.89327e-29 -0.027348 0.0174553 6.9762
1.09087e-20 -0.027348 0.0175 6.95966
2.1684e-19 0.008902 0.0312567 4.42722
0 0.000152 0.0325122 4.17442
6.22817e-20 -0.017348 0.0275 4.86842
-3.47099e-29 -0.017348 0.0275201 4.86524
2.58494e-26 0.0324498 0.00233887 89.1073
0 0.012652 0.0300012 4.65464
0 0.031402 0.008656 13.5816
0 -0.002348 0.0325122 4.16185
0 0.002652 0.0325122 4.18726
-6.46235e-27 0.030152 0.0124878 9.60037
8.27181e-25 0.032652 4.94574e-09 131.434
8.08456e-20 0.017652 0.0275 5.12086
1.41995e-28 0.017652 0.0275173 5.11788
-1.2015e-19 -0.032348 0.00479858 36.0232
0 0.027652 0.0175 7.4539
2.58494e-26 0.032652 0.00225989 90.5222
8.04226e-22 0.032652 0.00233887 89.0925
0 -0.004848 0.0325122 4.14952
0 -0.028598 0.0162494 7.33092
-6.46235e-27 0.005152 0.0325122 4.20039
1.0842e-19 -0.016098 0.0287506 4.66904
1.33458e-19 0.032652 0.00479858 33.8953
0 -0.031098 0.011217 10.301
-1.0842e-19 0.016402 0.0287506 4.88673
1.29247e-26 0.032292 0.00736572 17.5684
-1.0842e-19 0.028902 0.0162494 7.82643
-1.0842e-19 -0.011098 0.0312567 4.31524
2.70902e-21 -0.032348 0.00736572 18.5901
-1.0842e-19 0.011402 0.0312567 4.44257
-4.03897e-28 -0.007348 0.0325122 4.13745
0 0.031402 0.011217 10.4014
0 -0.029848 0.0148717 7.95063
-3.23117e-27 0.007652 0.0325122 4.2138
-2.52435e-29 -0.029848 0.0149988 7.87545
-2.16887e-20 0.032652 0.00736572 17.5632
2.01948e-28 -0.014848 0.0300012 4.48646
0 -0.023598 0.02375 5.50036
-1.94123e-20 -0.024848 0.0225 5.74812
6.45119e-20 -0.022348 0.025 5.27574
2.01948e-28 0.015152 0.0300012 4.67191
-1.0842e-19 -0.033598 0.00116944 134.944
1.0842e-19 -0.026098 0.02125 5.99542
0 0.030152 0.0149988 8.32679
1.0842e-19 -0.021098 0.02625 5.05014
1.0842e-19 0.023902 0.02375 5.91091
8.08456e-20 0.022652 0.025 5.64429
8.08456e-20 0.025152 0.0225 6.19541
2.1684e-19 -0.033598 0.00356873 48.8053
-1.0842e-19 -0.001098 0.033783 3.96638
1.0842e-19 0.001402 0.0337829 3.97767
3.05031e-20 -0.032348 0.00994629 12.1865
1.0842e-19 0.021402 0.02625 5.37916
-8.38186e-20 -0.027348 0.02 6.28405
0 0.026402 0.02125 6.48124
4.56e-20 -0.019848 0.0275 4.85288
1.0842e-19 0.033902 0.00116944 131.32
-5.52203e-29 -0.019848 0.0275551 4.84422
1.61559e-27 -0.009848 0.0325122 4.12563
2.1684e-19 -0.003598 0.0337829 3.95533
-1.0842e-19 -0.031098 0.0137433 8.42419
0 0.003902 0.033783 3.98922
0 0.010152 0.0325122 4.2275
0 0.032652 0.00973115 12.4547
2.1684e-19 -0.013598 0.0312567 4.30248
0 0.033902 0.00356872 46.0011
8.08486e-20 0.020152 0.0275 5.14184
7.57306e-29 0.020152 0.0275172 5.13885
8.08456e-20 0.027652 0.02 6.79656
0 0.032652 0.00994629 11.9901
-1.0842e-19 -0.033598 0.00608215 23.119
0 -0.028598 0.01875 6.57303
1.0842e-19 0.013902 0.0312567 4.45826
-8.07794e-28 0.0327502 0.00994629 11.9903
-2.1684e-19 -0.018598 0.0287506 4.65449
2.1684e-19 0.031402 0.0137433 8.8258
1.0842e-19 -0.006098 0.033783 3.9445
-1.0842e-19 0.006402 0.033783 4.00102
2.1684e-19 0.018902 0.0287506 4.90601
1.0842e-19 0.033902 0.00608215 21.5096
0 0.028902 0.01875 7.1128
6.31089e-30 -0.029848 0.0173696 6.99305
-1.57772e-30 -0.029848 0.0175 6.9445
0 -0.017348 0.0300012 4.47289
0 -0.032348 0.0124878 9.36072
-2.1684e-19 -0.033598 0.008656 14.0914
0 -0.012348 0.0325122 4.11404
0 0.017652 0.0300012 4.68955
0 -0.034848 1.26667e-08 134.969
-1.89327e-28 0.030152 0.0174931 7.48837
-1.0842e-19 -0.008598 0.0337829 3.9339
0 0.030152 0.0175 7.48605
-3.23117e-27 0.012652 0.0325122 4.2415
0 -0.034848 0.00233887 92.2465
-2.1684e-19 0.008902 0.0337829 4.01309
0 0.032652 0.0124878 9.6244
0 0.033902 0.008656 13.5734
-1.29247e-26 0.000152 0.0350537 3.75616
1.0842e-19 -0.031098 0.0162494 7.31763
6.46235e-27 -0.002348 0.0350537 3.74605
2.06795e-25 0.035152 1.12789e-09 131.202
-2.58494e-26 0.002652 0.0350537 3.76648
-1.0842e-19 -0.016098 0.0312567 4.28996
2.06795e-25 0.035152 0.00080481 116.647
-2.06795e-25 -0.034848 0.00479858 36.0846
-2.85501e-21 0.035152 0.00233887 88.9028
-1.13044e-19 -0.024848 0.025 5.25897
1.0842e-19 -0.026098 0.02375 5.48298
1.0842e-19 -0.023598 0.02625 5.03417
0 0.016402 0.0312567 4.47428
1.0842e-19 0.031402 0.0162494 7.85936
-1.61559e-27 0.0330881 0.0124878 9.62888
0 -0.004848 0.0350537 3.73613
4.239e-20 -0.027348 0.0225 5.73048
0 -0.033598 0.011217 10.3071
-5.16988e-26 0.005152 0.0350537 3.77701
6.13535e-20 -0.022348 0.0275 4.8377
-1.91544e-20 0.025152 0.025 5.66924
3.79957e-20 0.035152 0.00479858 33.7894
0 0.023902 0.02625 5.40235
0 0.026402 0.02375 5.93766
0 -0.032348 0.0147234 8.02985
1.0842e-19 -0.011098 0.0337829 3.92352
2.01948e-28 -0.0333543 0.0124878 9.36086
1.0413e-19 -0.034848 0.00736572 18.6282
-9.67071e-20 0.022652 0.0275 5.16325
0 -0.028598 0.02125 5.97769
-5.20648e-29 0.022652 0.0275165 5.16037
8.08456e-20 0.027652 0.0225 6.22383
2.1684e-19 0.011402 0.0337829 4.02542
-5.04871e-29 -0.032348 0.0149988 7.86591
0 -0.021098 0.0287506 4.64015
-2.1684e-19 0.033902 0.011217 10.4205
1.61559e-27 -0.014848 0.0325122 4.10267
-4.03897e-28 -0.007348 0.0350537 3.7264
0 0.021402 0.0287506 4.92568
0 0.015152 0.0325122 4.2558
0 0.028902 0.02125 6.51139
0 0.007652 0.0350537 3.78777
6.53299e-20 0.035152 0.00736572 17.5269
-9.15793e-20 -0.029848 0.02 6.26688
0 0.032652 0.0149988 8.35843
-5.04871e-29 -0.019848 0.0300012 4.45959
-4.03897e-28 -0.007348 0.0352421 3.69168
-1.0842e-19 -0.036098 0.00116944 134.995
-2.01948e-28 0.020152 0.0300012 4.70754
-1.91544e-20 0.030152 0.02 6.82805
-1.38042e-19 -0.034848 0.00994629 12.202
1.0842e-19 -0.036098 0.00356873 48.8753
1.0842e-19 -0.033598 0.0137433 8.41838
0 -0.031098 0.01875 6.55655
1.0842e-19 -0.001098 0.036344 3.53459
1.0842e-19 0.001402 0.036344 3.54371
1.0842e-19 -0.018598 0.0312567 4.27758
0 -0.009848 0.0350537 3.71684
1.0842e-19 -0.013598 0.033783 3.91333
0 0.036402 0.00116943 131.085
0 0.010152 0.0350537 3.79876
0 -0.0207792 0.0300012 4.45473
0 -0.003598 0.036344 3.52562
0 0.018902 0.0312567 4.49062
0 0.013902 0.0337829 4.03802
-6.30886e-20 0.035152 0.00994629 11.9963
0 0.0333192 0.0149988 8.36725
0 0.003902 0.036344 3.55301
1.0842e-19 0.031402 0.01875 7.14574
-2.1684e-19 0.036402 0.00356873 45.8521
2.1684e-19 0.033902 0.0137433 8.85632
1.0842e-19 -0.036098 0.00608215 23.1701
1.10441e-29 -0.032348 0.0174273 6.95706
-5.04871e-29 -0.019848 0.0309282 4.31963
0 -0.032348 0.0175 6.92986
0 -0.017348 0.0325122 4.09148
0 -0.006098 0.036344 3.5168
-1.0842e-19 0.006402 0.036344 3.5625
-1.0842e-19 0.036402 0.00608215 21.4441
8.07794e-28 -0.034848 0.0121694 9.71696
-1.61559e-27 -0.009848 0.0356518 3.60688
-1.61559e-27 0.017652 0.0325122 4.2704
1.0842e-19 -0.026098 0.02625 5.01839
0 -0.034848 0.0124878 9.36107
1.10441e-29 0.032652 0.0174693 7.52982
8.08456e-20 0.032652 0.0175 7.51953
3.28979e-21 -0.027348 0.025 5.24245
-1.12786e-19 -0.024848 0.0275 4.82282
0 0.0371187 0 131.015
0 -0.036098 0.008656 14.1162
0 -0.012348 0.0350537 3.70746
1.0842e-19 -0.028598 0.02375 5.46584
-1.0842e-19 -0.023598 0.0287506 4.62628
-1.0842e-19 0.026402 0.02625 5.42603
0 0.012652 0.0350537 3.80996
-9.67102e-20 0.025152 0.0275 5.18511
-4.15987e-20 0.027652 0.025 5.69474
-2.99767e-29 0.025152 0.0275199 5.18161
-1.71093e-19 0.035152 0.0124878 9.65007
-1.0842e-19 -0.033598 0.0162494 7.30487
0 -0.008598 0.036344 3.50814
0 -0.037348 1.10714e-08 135.018
-1.8484e-20 -0.029848 0.0225 5.71316
-2.1684e-19 0.023902 0.0287506 4.94576
0 0.028902 0.02375 5.96504
0 -0.022348 0.0300012 4.44656
0 0.036402 0.008656 13.5663
2.1684e-19 0.008902 0.036344 3.57216
-3.61023e-20 -0.037348 0.00233887 92.3054
-1.0842e-19 -0.016098 0.0337829 3.90331
0 0.016402 0.033783 4.0509
-2.01948e-28 0.022652 0.0300012 4.72591
2.1684e-19 0.033902 0.0162494 7.8935
8.08456e-20 0.030152 0.0225 6.25294
0 0.000152 0.0376343 3.2776
5.16988e-26 0.037652 3.05816e-10 130.965
-1.23806e-20 -0.037348 0.00479858 36.1444
-1.0842e-19 -0.031098 0.02125 5.96026
2.58494e-26 -0.002348 0.0376343 3.26863
0 -0.021098 0.0312567 4.26564
-7.73869e-20 0.037652 0.00233887 88.7077
0 0.002652 0.0376343 3.2867
-2.1684e-19 -0.036098 0.011217 10.3135
0 0.021402 0.0312567 4.50731
0 0.031402 0.02125 6.5423
0 -0.034848 0.0149988 7.85687
0 -0.004848 0.0376343 3.25977
-7.01652e-20 0.037652 0.00479858 33.6801
-7.06819e-28 -0.0196417 0.0325122 4.08141
0 0.005152 0.0376343 3.29594
-1.0842e-19 -0.011098 0.036344 3.49959
-7.71278e-20 -0.032348 0.02 6.25011
1.32262e-19 -0.037348 0.00736572 18.6659
0 -0.014848 0.0350537 3.69822
0 0.011402 0.036344 3.58201
-1.0842e-19 0.036402 0.011217 10.4414
0 -0.019848 0.0325122 4.08051
3.23117e-27 -0.012348 0.0360807 3.51897
6.46235e-27 -0.00620013 0.0376343 3.25504
0 0.015152 0.0350537 3.8214
0 -0.0368769 0.00994629 12.2147
3.6621e-20 0.035152 0.0149988 8.39147
0 0.020152 0.0325122 4.2853
-9.67102e-20 0.032652 0.02 6.86041
0 -0.007348 0.0376343 3.25103
3.59772e-20 0.037652 0.00736572 17.4905
-2.58494e-26 0.0384012 0 130.892
5.16988e-26 0.007652 0.0376343 3.30532
0 -0.033598 0.01875 6.54049
-2.1684e-19 -0.018598 0.0337829 3.89348
0 -0.038598 0.00116943 135.042
2.1684e-19 -0.036098 0.0137433 8.41306
-8.07794e-28 -0.037348 0.00985587 12.4436
0 -0.037348 0.00994629 12.2176
-1.0842e-19 0.018902 0.0337829 4.06405
3.23117e-27 -0.014848 0.0357822 3.56472
0 0.033902 0.01875 7.17963
-1.0842e-19 -0.038598 0.00356872 48.9432
8.05232e-20 -0.027348 0.0275 4.80802
1.0842e-19 -0.013598 0.036344 3.49117
-1.0842e-19 -0.028598 0.02625 5.00262
1.0842e-19 -0.026098 0.0287506 4.61237
5.71485e-22 -0.009848 0.0376343 3.24238