# p  POINT_DATA 27775
# x  y  z  p
4.11098e-11 0 0 0.0340404
-0.000152009 2.71051e-20 0 0.0340525
0.00015201 0 0 0.0340281
-0.000152008 2.71051e-20 0.000142211 0.0340525
0.000152009 0 0.000142211 0.0340281
-0.00125 -1.0842e-19 0.00116944 0.0341408
0.00125 1.0842e-19 0.00116944 0.0339399
2.67344e-09 0 0.00234132 0.0340434
-0.00234799 0 0 0.0342276
0.002348 0 0 0.03385
-0.00234799 -2.71051e-20 0.00014221 0.0342276
0.002348 0 0.000142211 0.03385
-0.0025 2.71051e-20 0 0.0342396
0.00250001 0 0 0.0338376
-0.00265201 0 0 0.0342516
0.00265202 2.71051e-20 0 0.0338252
-0.00265201 -2.71051e-20 0.000142211 0.0342516
0.00265202 0 0.000142211 0.0338252
-0.0025 0 0.00234132 0.0342426
0.0025 1.35525e-20 0.00234132 0.0338407
-0.00125 0 0.00356872 0.0341469
0.00125 -1.0842e-19 0.00356873 0.033946
-0.00374999 1.0842e-19 0.00116944 0.0343383
0.00375 0 0.00116944 0.0337353
2.03462e-09 4.51751e-21 0.00480076 0.0340461
-0.00484797 0 0 0.0344236
0.004848 0 0 0.0336439
-0.00484797 -2.71051e-20 0.000142211 0.0344236
0.004848 0 0.000142212 0.0336439
-0.00499998 2.71051e-20 0 0.0344355
0.00500001 2.71051e-20 0 0.0336313
-0.00515199 0 0 0.0344472
0.00515202 0 0 0.0336186
-0.00515199 0 0.00014221 0.0344472
0.00515202 -2.71051e-20 0.000142212 0.0336186
-0.00375 -2.1684e-19 0.00356873 0.0343443
0.00375 0 0.00356872 0.0337416
-0.0025 0 0.00480076 0.0342452
0.0025 4.51751e-21 0.00480076 0.0338434
-0.00499999 -9.03502e-21 0.00234132 0.0344383
0.005 -1.35525e-20 0.00234132 0.0336344
-0.00125 1.0842e-19 0.00608215 0.0341461
0.00125 0 0.00608215 0.0339453
-0.00624999 2.1684e-19 0.00116944 0.0345325
0.00625001 0 0.00116944 0.0335272
-0.005 0 0.00480076 0.0344409
0.005 -4.51751e-21 0.00480076 0.0336372
-0.00375 0 0.00608215 0.0343435
0.00375 1.0842e-19 0.00608215 0.0337408
-0.00624999 1.0842e-19 0.00356872 0.0345383
0.00625 0 0.00356873 0.0335336
-0.00734797 -2.71051e-20 0 0.0346163
0.00734801 0 0 0.0334341
-0.00734797 2.71051e-20 0.000142211 0.0346163
0.00734801 0 0.000142199 0.0334341
9.87617e-10 4.51751e-21 0.00736599 0.0340463
-0.00749998 0 0 0.034628
0.00750001 0 0 0.0334213
-0.00765199 0 0 0.0346395
0.007652 2.71051e-20 0 0.0334084
-0.00765199 2.71051e-20 0.000142211 0.0346395
0.007652 0 0.0001422 0.0334084
-0.0025 4.51751e-21 0.00736599 0.0342454
0.0025 9.03502e-21 0.00736599 0.0338437
-0.00749999 -4.51751e-21 0.00234132 0.0346308
0.0075 -9.03502e-21 0.00234132 0.0334245
-0.00625 0 0.00608215 0.0345376
0.00625 1.0842e-19 0.00608215 0.0335328
-0.00125 1.0842e-19 0.008656 0.0341473
0.00125 0 0.00865601 0.0339465
-0.00874999 0 0.00116944 0.0347233
0.00875 1.0842e-19 0.00116944 0.0333154
0.005 0 0.00736599 0.0336374
-0.005 4.51751e-21 0.00736599 0.0344411
-0.0075 0 0.00480076 0.0346333
0.0075 -9.03502e-21 0.00480076 0.0334274
0.00375 0 0.00865601 0.0337421
-0.00375 -1.0842e-19 0.00865601 0.0343447
-0.00875 0 0.00356872 0.0347291
0.00875 -1.0842e-19 0.00356872 0.0333219
0.00984798 2.71051e-20 0 0.0332207
-0.00984799 0 0 0.0348057
0.00984798 0 0.000142209 0.0332207
-0.00984799 0 0.000142213 0.0348057
3.21115e-10 0 0.0099455 0.0340461
0.00999999 0 0 0.0332076
-0.01 2.71051e-20 0 0.0348172
0.010152 0 0 0.0331944
-0.010152 0 0 0.0348286
0.010152 0 0.000142209 0.0331944
-0.010152 0 0.000142213 0.0348286
-0.0025 0 0.0099455 0.0342452
0.0025 9.03502e-21 0.0099455 0.0338435
-0.01 9.03502e-21 0.00234132 0.03482
0.01 -4.51751e-21 0.00234132 0.0332108
0.0075 -4.51751e-21 0.00736599 0.0334276
-0.0075 0 0.00736599 0.0346335
0.00875 -1.0842e-19 0.00608215 0.0333211
-0.00875 0 0.00608215 0.0347283
-0.00625 0 0.008656 0.0345387
0.00625 0 0.008656 0.033534
-0.01 -4.51751e-21 0.00480076 0.0348225
0.01 -9.03502e-21 0.00480076 0.0332137
0.005 4.51751e-21 0.0099455 0.0336372
-0.005 4.51751e-21 0.0099455 0.0344409
-0.00125 -1.0842e-19 0.011217 0.0341457
0.00125 2.1684e-19 0.011217 0.0339449
0.01125 1.0842e-19 0.00116943 0.0330997
-0.01125 0 0.00116944 0.034911
0.01125 1.0842e-19 0.00356873 0.0331063
-0.01125 0 0.00356872 0.0349166
0.00375 0 0.011217 0.0337404
-0.00375 1.0842e-19 0.011217 0.0343431
0.00875 0 0.008656 0.0333223
-0.00875 2.1684e-19 0.008656 0.0347294
-0.012348 -2.71051e-20 0 0.034992
0.012348 0 0 0.0330033
-0.012348 0 0.000142215 0.034992
0.012348 2.71051e-20 0.000142207 0.0330033
0.01 -4.51751e-21 0.00736599 0.0332139
-0.01 0 0.00736599 0.0348226
0.0075 0 0.0099455 0.0334274
-0.0075 0 0.0099455 0.0346333
6.4431e-11 -4.51751e-21 0.0124872 0.0340445
-0.0125 0 0 0.0350032
0.0125 -2.71051e-20 0 0.03299
0.012652 2.71051e-20 0 0.0329766
-0.012652 2.71051e-20 0 0.0350144
0.012652 0 0.000142206 0.0329766
-0.012652 2.71051e-20 0.000142215 0.0350144
0.0125 4.51751e-21 0.00234132 0.0329933
-0.0125 4.51751e-21 0.00234132 0.035006
-0.0025 -4.51751e-21 0.0124872 0.0342437
0.0025 0 0.0124872 0.0338419
0.01125 -1.0842e-19 0.00608215 0.0331055
-0.01125 -1.0842e-19 0.00608215 0.0349158
-0.00625 2.1684e-19 0.011217 0.0345371
0.00625 0 0.011217 0.0335324
0.0125 0 0.00480076 0.0329962
-0.0125 -4.51751e-21 0.00480076 0.0350084
0.005 0 0.0124872 0.0336357
-0.005 0 0.0124872 0.0344394
0.01375 0 0.00116943 0.0328802
-0.01375 0 0.00116944 0.0350954
-0.00125 0 0.0137433 0.0341442
0.00125 0 0.0137433 0.0339433
-0.01 0 0.0099455 0.0348224
0.01 0 0.0099455 0.0332137
0.01125 2.1684e-19 0.008656 0.0331068
-0.01125 -1.0842e-19 0.00865601 0.0349169
0.01375 1.0842e-19 0.00356873 0.0328869
-0.01375 0 0.00356872 0.035101
-0.00875 2.1684e-19 0.011217 0.0347279
0.00875 2.1684e-19 0.011217 0.0333207
0.00375 0 0.0137433 0.0337389
-0.00375 0 0.0137433 0.0343416
0.0125 0 0.00736599 0.0329965
-0.0125 0 0.00736599 0.0350086
0.0075 4.51751e-21 0.0124872 0.0334258
-0.0075 0 0.0124872 0.0346318
-0.014848 -2.71051e-20 0 0.0351751
0.014848 0 0 0.032782
-0.014848 -2.71051e-20 0.000142216 0.0351751
0.014848 0 0.000142191 0.032782
6.19286e-12 0 0.0149986 0.0340421
-0.015 0 0 0.0351862
0.015 -2.71051e-20 0 0.0327685
0.01375 1.0842e-19 0.00608215 0.0328861
-0.01375 1.0842e-19 0.00608215 0.0351002
0.00625 2.1684e-19 0.0137433 0.0335308
-0.00625 0 0.0137433 0.0345357
0.015152 0 0 0.0327548
-0.015152 0 0 0.0351972
0.015152 0 0.000142191 0.0327548
-0.015152 0 0.000142217 0.0351972
0.015 1.35525e-20 0.00234132 0.0327718
-0.015 -4.51751e-21 0.00234132 0.0351889
-0.0025 0 0.0149986 0.0342413
0.0025 0 0.0149986 0.0338394
0.015 9.03502e-21 0.00480076 0.0327748
-0.015 1.35525e-20 0.00480076 0.0351913
-0.005 0 0.0149986 0.0344371
0.005 0 0.0149986 0.0336332
-0.01125 0 0.011217 0.0349153
0.01125 0 0.011217 0.0331052
0.0125 0 0.0099455 0.0329963
-0.0125 0 0.0099455 0.0350083
-0.01 0 0.0124872 0.0348209
0.01 9.03502e-21 0.0124872 0.0332121
0.01375 1.0842e-19 0.008656 0.0328874
-0.01375 0 0.00865601 0.0351012
0.01625 1.0842e-19 0.00116944 0.0326566
-0.01625 -1.0842e-19 0.00116944 0.0352768
-0.00875 0 0.0137433 0.0347264
0.00875 0 0.0137433 0.0333191
-0.00125 -1.0842e-19 0.0162494 0.034141
0.00125 1.0842e-19 0.0162494 0.03394
0.01625 1.0842e-19 0.00356873 0.0326635
-0.01625 1.0842e-19 0.00356872 0.0352823
0.00375 0 0.0162494 0.0337355
-0.00375 0 0.0162494 0.0343384
-0.015 -4.51751e-21 0.00736599 0.0351914
0.015 4.51751e-21 0.00736599 0.032775
0.0075 4.51751e-21 0.0149986 0.0334232
-0.0075 0 0.0149986 0.0346295
-0.017348 0 0 0.0353552
0.017348 0 0 0.0325567
-0.017348 0 0.000142217 0.0353552
0.017348 0 0.00014219 0.0325567
-0.01625 0 0.00608215 0.0352815
0.01625 -1.0842e-19 0.00608215 0.0326627
0.00625 2.1684e-19 0.0162494 0.0335274
-0.00625 0 0.0162494 0.0345326
5.0225e-14 0 0.0175 0.0340388
-0.0175 0 0 0.0353661
0.0175 2.71051e-20 0 0.0325429
0.017652 0 0 0.032529
-0.017652 0 0 0.0353769
0.017652 0 0.00014219 0.032529
-0.017652 0 0.000142216 0.0353769
-0.0175 -4.51751e-21 0.00234132 0.0353687
0.0175 0 0.00234132 0.0325463
0.0125 4.51751e-21 0.0124872 0.0329946
-0.0125 0 0.0124872 0.0350068
-0.0025 0 0.0175 0.034238
0.0025 0 0.0175 0.033836
-0.01375 1.0842e-19 0.011217 0.0350997
0.01375 0 0.011217 0.0328858
-0.01125 0 0.0137433 0.034914
0.01125 0 0.0137433 0.0331035
0.015 4.51751e-21 0.0099455 0.0327749
-0.015 4.51751e-21 0.0099455 0.0351911
-0.01 0 0.0149986 0.0348187
0.01 9.03502e-21 0.0149986 0.0332095
-0.0175 9.03502e-21 0.00480076 0.0353711
0.0175 4.51751e-21 0.00480076 0.0325493
0.005 4.51751e-21 0.0175 0.0336296
-0.005 0 0.0175 0.0344339
0.01625 -1.0842e-19 0.008656 0.032664
-0.01625 1.0842e-19 0.008656 0.0352825
0.00875 0 0.0162494 0.0333156
-0.00875 1.0842e-19 0.0162494 0.0347234
-0.01875 0 0.00116944 0.0354552
0.01875 0 0.00116944 0.032429
0.00125 0 0.01875 0.0339365
-0.00125 1.0842e-19 0.01875 0.0341376
-0.0175 -9.03502e-21 0.00736599 0.0353711
0.0175 0 0.00736599 0.0325496
0.0075 4.51751e-21 0.0175 0.0334196
-0.0075 0 0.0175 0.0346264
-0.01875 -1.0842e-19 0.00356872 0.0354606
0.01875 1.0842e-19 0.00356873 0.032436
0.00375 0 0.01875 0.0337319
-0.00375 0 0.01875 0.0343352
0.01375 1.0842e-19 0.0137433 0.0328841
-0.01375 0 0.0137433 0.0350983
0.015 9.03502e-21 0.0124872 0.0327732
-0.015 9.03502e-21 0.0124872 0.0351897
0.0125 4.51751e-21 0.0149986 0.032992
-0.0125 0 0.0149986 0.0350047
-0.01875 1.0842e-19 0.00608215 0.0354597
0.01875 1.0842e-19 0.00608215 0.0324352
0.01625 0 0.011217 0.0326623
-0.01625 -1.0842e-19 0.011217 0.0352809
0.01125 2.1684e-19 0.0162494 0.0330999
-0.01125 2.1684e-19 0.0162494 0.034911
-0.00625 1.0842e-19 0.01875 0.0345293
0.00625 -1.0842e-19 0.01875 0.0335238
-0.019848 0 0 0.0355322
0.019848 0 0 0.0323272
-0.019848 0 0.000142216 0.0355322
0.019848 0 0.00014219 0.0323272
-0.02 2.71051e-20 0 0.0355429
0.02 2.71051e-20 0 0.0323132
-9.82494e-15 0 0.02 0.0340352
-0.0175 4.51751e-21 0.0099455 0.0353708
0.0175 4.51751e-21 0.0099455 0.0325494
-0.02 4.51751e-21 0.00234132 0.0355456
0.02 0 0.00234132 0.0323166
0.020152 -2.71051e-20 0 0.032299
-0.020152 0 0 0.0355536
0.020152 0 0.00014219 0.032299
-0.020152 0 0.000142216 0.0355536
0.01 0 0.0175 0.0332058
-0.01 0 0.0175 0.0348157
0.0025 0 0.02 0.0338323
-0.0025 0 0.02 0.0342345
-0.02 9.03502e-21 0.00480076 0.0355478
0.02 0 0.00480076 0.0323197
-0.005 0 0.02 0.0344305
0.005 4.51751e-21 0.02 0.0336259
-0.01875 0 0.008656 0.0354607
0.01875 1.0842e-19 0.008656 0.0324365
-0.00875 2.1684e-19 0.01875 0.0347202
0.00875 0 0.01875 0.0333118
0.015 9.03502e-21 0.0149986 0.0327704
-0.015 9.03502e-21 0.0149986 0.0351876
-0.02125 0 0.00116944 0.0356306
0.02125 1.0842e-19 0.00116944 0.0321972
0.01625 -1.0842e-19 0.0137433 0.0326606
-0.01625 -1.0842e-19 0.0137433 0.0352796
-0.01375 1.0842e-19 0.0162494 0.0350955
0.01375 1.0842e-19 0.0162494 0.0328803
0.00125 1.0842e-19 0.02125 0.0339327
-0.00125 -1.0842e-19 0.02125 0.0341338
-0.02 -9.03502e-21 0.00736599 0.0355479
0.02 4.51751e-21 0.00736599 0.03232
0.0075 4.51751e-21 0.02 0.0334157
-0.0075 0 0.02 0.034623
0.0175 9.03502e-21 0.0124872 0.0325477
-0.0175 9.03502e-21 0.0124872 0.0353694
0.0125 0 0.0175 0.0329882
-0.0125 0 0.0175 0.0350017
-0.02125 0 0.00356872 0.0356359
0.02125 1.0842e-19 0.00356873 0.0322042
0.00375 1.0842e-19 0.02125 0.033728
-0.00375 0 0.02125 0.0343315
0.01875 1.0842e-19 0.011217 0.0324348
-0.01875 2.1684e-19 0.011217 0.0354592
-0.01125 2.1684e-19 0.01875 0.0349079
0.01125 0 0.01875 0.033096
-0.02125 -1.0842e-19 0.00608215 0.035635
0.02125 1.0842e-19 0.00608215 0.0322034
-0.00625 1.0842e-19 0.02125 0.0345258
0.00625 -1.0842e-19 0.02125 0.0335197
-0.02 0 0.0099455 0.0355476
0.02 4.51751e-21 0.0099455 0.0323198
-0.022348 0 0 0.0357063
0.022348 -2.71051e-20 0 0.0320935
-0.022348 0 0.000142214 0.0357063
0.022348 0 0.00014219 0.0320935
0.01 0 0.02 0.0332018
-0.01 0 0.02 0.0348124
-0.0225 0 0 0.0357169
0.0225 0 0 0.0320792
-9.82514e-15 0 0.0225 0.0340314
-0.0225 4.51751e-21 0.00234132 0.0357195
0.0225 -9.03502e-21 0.00234132 0.0320827
0.0025 0 0.0225 0.0338285
-0.0025 0 0.0225 0.0342309
0.022652 0 0 0.0320648
-0.022652 0 0 0.0357273
0.022652 -2.71051e-20 0.000142189 0.0320648
-0.022652 0 0.000142214 0.0357273
-0.02125 -1.0842e-19 0.008656 0.035636
0.02125 -1.0842e-19 0.00865601 0.0322047
-0.01625 0 0.0162494 0.0352768
0.01625 -1.0842e-19 0.0162494 0.0326568
0.00875 -1.0842e-19 0.02125 0.0333077
-0.00875 0 0.02125 0.0347168
-0.0225 -1.35525e-20 0.00480076 0.0357217
0.0225 -4.51751e-21 0.00480076 0.0320859
0.0175 9.03502e-21 0.0149986 0.0325449
-0.0175 9.03502e-21 0.0149986 0.0353674
0.015 4.51751e-21 0.0175 0.0327666
-0.015 4.51751e-21 0.0175 0.0351846
-0.005 0 0.0225 0.0344269
0.005 4.51751e-21 0.0225 0.0336219
0.01875 -1.0842e-19 0.0137433 0.032433
-0.01875 0 0.0137433 0.0354578
0.01375 0 0.01875 0.0328764
-0.01375 2.1684e-19 0.01875 0.0350924
-0.02 0 0.0124872 0.0355462
0.02 0 0.0124872 0.032318
0.0125 0 0.02 0.0329841
-0.0125 0 0.02 0.0349985
-0.0225 -9.03502e-21 0.00736599 0.0357217
0.0225 4.51751e-21 0.00736599 0.0320861
0.0075 4.51751e-21 0.0225 0.0334117
-0.0075 0 0.0225 0.0346196
-0.02375 1.0842e-19 0.00116944 0.0358031
0.02375 0 0.00116944 0.031961
0.00125 2.1684e-19 0.02375 0.033929
-0.00125 0 0.02375 0.0341302
-0.02375 -2.1684e-19 0.00356872 0.0358084
0.02375 0 0.00356873 0.0319683
0.02125 0 0.011217 0.032203
-0.02125 -1.0842e-19 0.011217 0.0356344
0.01125 1.0842e-19 0.02125 0.0330918
0.00375 0 0.02375 0.0337242
-0.00375 -1.0842e-19 0.02375 0.034328
-0.01125 1.0842e-19 0.02125 0.0349045
-0.02375 2.1684e-19 0.00608215 0.0358075
0.02375 1.0842e-19 0.00608215 0.0319674
-0.00625 0 0.02375 0.0345223
0.00625 -1.0842e-19 0.02375 0.0335158
-0.0225 4.51751e-21 0.0099455 0.0357214
0.0225 4.51751e-21 0.0099455 0.0320859
0.01 0 0.0225 0.0331977
-0.01 0 0.0225 0.034809
0.0175 4.51751e-21 0.0175 0.0325409
-0.0175 4.51751e-21 0.0175 0.0353645
0.01875 2.1684e-19 0.0162494 0.0324291
-0.01875 0 0.0162494 0.0354552
-0.01625 0 0.01875 0.0352738
0.01625 -1.0842e-19 0.01875 0.0326528
-0.024848 2.71051e-20 0 0.0358776
0.024848 0 0 0.0318554
-0.024848 2.71051e-20 0.000142213 0.0358776
0.024848 0 0.000142189 0.0318554
-0.02 0 0.0149986 0.0355442
0.02 0 0.0149986 0.0323152
0.015 0 0.02 0.0327624
-0.015 4.51751e-21 0.02 0.0351815
-0.025 2.71051e-20 0 0.035888
0.025 2.71051e-20 0 0.0318408
-9.82504e-15 0 0.025 0.0340278
-0.025 -9.03502e-21 0.00234132 0.0358905
0.025 -1.35525e-20 0.00234132 0.0318444
0.0025 0 0.025 0.0338247
-0.0025 0 0.025 0.0342273
0.025152 0 0 0.0318262
-0.025152 0 0 0.0358982
0.025152 0 0.000142189 0.0318262
-0.025152 0 0.000142213 0.0358982
-0.02375 0 0.008656 0.0358084
0.02375 1.0842e-19 0.00865601 0.0319687
0.02125 0 0.0137433 0.0322012
-0.02125 2.1684e-19 0.0137433 0.0356332
-0.00875 0 0.02375 0.0347133
0.00875 1.0842e-19 0.02375 0.0333036
0.01375 0 0.02125 0.032872
-0.01375 -1.0842e-19 0.02125 0.0350891
-0.025 -9.03502e-21 0.00480076 0.0358927
0.025 0 0.00480076 0.0318476
-0.005 0 0.025 0.0344234
0.005 4.51751e-21 0.025 0.0336181
0.0225 0 0.0124872 0.0320842
-0.0225 9.03502e-21 0.0124872 0.03572
-0.0125 0 0.0225 0.0349952
0.0125 0 0.0225 0.0329798
-0.025 0 0.00736599 0.0358927
0.025 9.03502e-21 0.00736599 0.0318479
0.0075 4.51751e-21 0.025 0.0334077
-0.0075 0 0.025 0.0346162
0.02375 0 0.011217 0.0319671
-0.02375 0 0.011217 0.0358068
0.02625 1.0842e-19 0.00116944 0.0317205
-0.02625 1.0842e-19 0.00116944 0.0359728
0.00125 0 0.02625 0.0339253
-0.01125 2.1684e-19 0.02375 0.0349012
0.01125 2.1684e-19 0.02375 0.0330877
-0.00125 0 0.02625 0.0341266
-0.02625 1.0842e-19 0.00356872 0.035978
0.02625 0 0.00356873 0.0317279
-0.01875 1.0842e-19 0.01875 0.0354522
0.00375 1.0842e-19 0.02625 0.0337205
0.01875 1.0842e-19 0.01875 0.032425
-0.00375 -1.0842e-19 0.02625 0.0343245
-0.02 0 0.0175 0.0355414
0.02 0 0.0175 0.0323111
0.0175 0 0.02 0.0325366
-0.0175 4.51751e-21 0.02 0.0353614
0.02125 2.1684e-19 0.0162494 0.0321973
-0.02125 -1.0842e-19 0.0162494 0.0356305
0.01625 0 0.02125 0.0326483
-0.01625 -1.0842e-19 0.02125 0.0352706
-0.025 4.51751e-21 0.0099455 0.0358924
0.025 0 0.0099455 0.0318477
0.01 0 0.025 0.0331936
-0.01 0 0.025 0.0348057
-0.02625 -1.0842e-19 0.00608215 0.0359771
0.02625 -1.0842e-19 0.00608215 0.031727
0.00625 0 0.02625 0.0335119
-0.00625 0 0.02625 0.034519
0.0225 0 0.0149986 0.0320812
-0.0225 4.51751e-21 0.0149986 0.0357181
0.015 0 0.0225 0.032758
-0.015 4.51751e-21 0.0225 0.0351783
-0.027348 0 0 0.0360461
0.027348 -2.71051e-20 0 0.0316129
-0.027348 -2.71051e-20 0.000142212 0.0360461
0.027348 0 0.000142188 0.0316129
0.02375 -1.0842e-19 0.0137433 0.0319652
-0.02375 0 0.0137433 0.0358056
-0.01375 0 0.02375 0.0350859
0.01375 -1.0842e-19 0.02375 0.0328678
0.0275 2.71051e-20 0 0.031598
-0.0275 2.71051e-20 0 0.0360563
9.49036e-16 -4.51751e-21 0.0275 0.0340243
-0.0275 9.03502e-21 0.00234132 0.0360588
0.0275 -4.51751e-21 0.00234132 0.0316017
0.0025 0 0.0275 0.0338212
-0.0025 -4.51751e-21 0.0275 0.0342239
-0.02625 2.1684e-19 0.00865601 0.035978
0.02625 0 0.00865601 0.0317283
0.027652 0 0 0.0315831
-0.027652 0 0 0.0360664
0.027652 0 0.000142188 0.0315831
-0.027652 0 0.000142212 0.0360664
0.00875 0 0.02625 0.0332996
-0.00875 0 0.02625 0.0347101
-0.0275 0 0.00480076 0.0360609
0.0275 4.51751e-21 0.00480076 0.031605
0.025 0 0.0124872 0.0318459
-0.025 1.35525e-20 0.0124872 0.035891
0.0125 0 0.025 0.0329756
-0.0125 0 0.025 0.034992
0.005 0 0.0275 0.0336144
-0.005 0 0.0275 0.0344201
0.02 4.51751e-21 0.02 0.0323067
-0.02 0 0.02 0.0355384
0.01875 2.1684e-19 0.02125 0.0324204
0.02125 2.1684e-19 0.01875 0.0321931
-0.01875 0 0.02125 0.035449
-0.02125 1.0842e-19 0.01875 0.0356276
-0.0275 0 0.00736599 0.0360609
0.0275 1.807e-20 0.00736599 0.0316052
0.0225 0 0.0175 0.0320771
-0.0225 0 0.0175 0.0357153
0.0175 0 0.0225 0.0325321
-0.0175 4.51751e-21 0.0225 0.0353583
0.0075 4.51751e-21 0.0275 0.033404
-0.0075 0 0.0275 0.034613
0.02625 1.0842e-19 0.011217 0.0317267
-0.02625 1.0842e-19 0.011217 0.0359764
-0.01125 -1.0842e-19 0.02625 0.034898
0.01125 0 0.02625 0.0330836
-0.02875 0 0.00116944 0.0361397
0.02875 1.0842e-19 0.00116944 0.0314754
0.02375 1.0842e-19 0.0162494 0.0319612
-0.02375 1.0842e-19 0.0162494 0.035803
-0.01625 0 0.02375 0.0352674
0.01625 -1.0842e-19 0.02375 0.0326439
0.00125 0 0.0287506 0.0339219
-0.00125 0 0.0287506 0.0341233
-0.02875 1.0842e-19 0.00356873 0.0361448
0.02875 1.0842e-19 0.00356873 0.0314829
0.00375 0 0.0287506 0.0337169
-0.00375 -1.0842e-19 0.0287506 0.0343213
0.025 0 0.0149986 0.0318429
-0.025 9.03502e-21 0.0149986 0.0358891
0.015 0 0.025 0.0327537
-0.015 0 0.025 0.0351751
-0.0275 0 0.0099455 0.0360606
0.0275 4.51751e-21 0.0099455 0.031605
0.01 4.51751e-21 0.0275 0.0331897
-0.01 0 0.0275 0.0348025
-0.02875 0 0.00608215 0.0361438
0.02875 1.0842e-19 0.00608215 0.031482
-0.00625 2.1684e-19 0.0287506 0.0345158
0.00625 1.0842e-19 0.0287506 0.0335083
-0.02625 0 0.0137433 0.0359752
0.02625 0 0.0137433 0.0317247
-0.01375 2.1684e-19 0.02625 0.0350827
0.01375 0 0.02625 0.0328635
-0.029848 2.71051e-20 0 0.0362118
0.029848 0 0 0.0313657
-0.029848 0 0.00014221 0.0362118
0.029848 0 0.000142187 0.0313657
-0.03 0 0 0.0362218
0.03 -2.71051e-20 0 0.0313506
1.69661e-12 -4.51751e-21 0.0300014 0.0340211
-0.02875 0 0.00865601 0.0361447
0.02875 0 0.00865601 0.0314834
-0.02125 1.0842e-19 0.02125 0.0356245
0.02125 -1.0842e-19 0.02125 0.0321884
0.00875 -1.0842e-19 0.0287506 0.0332959
-0.00875 -1.0842e-19 0.0287506 0.034707
-0.03 -4.51751e-21 0.00234132 0.0362243
0.03 0 0.00234132 0.0313543
-0.02 0 0.0225 0.0355353
-0.0225 0 0.02 0.0357124
0.0225 4.51751e-21 0.02 0.0320725
0.02 4.51751e-21 0.0225 0.0323021
0.0025 0 0.0300014 0.0338178
-0.0025 -4.51751e-21 0.0300014 0.0342208
0.030152 0 0 0.0313354
-0.030152 0 0 0.0362318
0.030152 0 0.000142187 0.0313354
-0.030152 0 0.000142209 0.0362318
-0.0275 4.51751e-21 0.0124872 0.0360592
0.0275 4.51751e-21 0.0124872 0.0316032
0.0125 0 0.0275 0.0329716
-0.0125 0 0.0275 0.0349889
0.01875 0 0.02375 0.0324159
-0.01875 2.1684e-19 0.02375 0.0354459
-0.02375 1.0842e-19 0.01875 0.0358002
0.02375 -1.0842e-19 0.01875 0.0319568
-0.03 0 0.00480076 0.0362264
0.03 0 0.00480076 0.0313577
0.005 0 0.0300014 0.033611
-0.005 0 0.0300014 0.0344171
0.025 0 0.0175 0.0318387
-0.025 0 0.0175 0.0358865
0.0175 0 0.025 0.0325277
-0.0175 0 0.025 0.0353552
-0.02875 0 0.011217 0.0361432
0.02875 -1.0842e-19 0.011217 0.0314817
-0.02625 1.0842e-19 0.0162494 0.0359726
0.02625 0 0.0162494 0.0317206
-0.01625 0 0.02625 0.0352644
0.01625 -2.1684e-19 0.02625 0.0326396
0.01125 0 0.0287506 0.0330798
-0.01125 0 0.0287506 0.034895
-0.03 4.51751e-21 0.00736599 0.0362263
0.03 9.03502e-21 0.00736599 0.0313579
0.0075 4.51751e-21 0.0300014 0.0334004
-0.0075 0 0.0300014 0.03461
-0.03125 1.0842e-19 0.00116944 0.0363039
0.03125 1.0842e-19 0.00116943 0.0312257
0.00125 2.1684e-19 0.0312567 0.0339188
-0.00125 -1.0842e-19 0.0312567 0.0341203
0.0275 0 0.0149986 0.0316001
-0.0275 4.51751e-21 0.0149986 0.0360573
0.015 0 0.0275 0.0327496
-0.015 0 0.0275 0.0351721
-0.03125 -1.0842e-19 0.00356873 0.0363089
0.03125 0 0.00356873 0.0312333
0.00375 0 0.0312567 0.0337138
-0.00375 0 0.0312567 0.0343183
-0.03 9.03502e-21 0.0099455 0.036226
0.03 4.51751e-21 0.0099455 0.0313577
0.01 9.03502e-21 0.0300014 0.0331861
-0.01 0 0.0300014 0.0347996
0.0225 4.51751e-21 0.0225 0.0320678
-0.0225 0 0.0225 0.0357094
-0.03125 0 0.00608215 0.036308
0.03125 1.0842e-19 0.00608215 0.0312324
-0.02875 0 0.0137433 0.036142
0.02875 0 0.0137433 0.0314797
0.02125 2.1684e-19 0.02375 0.0321837
0.02375 1.0842e-19 0.02125 0.0319519
-0.02125 2.1684e-19 0.02375 0.0356215
-0.02375 0 0.02125 0.0357972
-0.01375 -1.0842e-19 0.0287506 0.0350798
0.01375 -1.0842e-19 0.0287506 0.0328597
0.00625 0 0.0312567 0.033505
-0.00625 0 0.0312567 0.034513
-0.02 0 0.025 0.0355323
0.02 0 0.025 0.0322975
0.025 0 0.02 0.031834
-0.025 0 0.02 0.0358836
-0.01875 0 0.02625 0.035443
0.02625 -1.0842e-19 0.01875 0.0317161
-0.02625 1.0842e-19 0.01875 0.0359699
0.01875 0 0.02625 0.0324114
-0.032348 0 0 0.0363748
0.032348 0 0 0.0311139
-0.032348 2.71051e-20 0.000142207 0.0363748
0.032348 0 0.0001422 0.0311139
-0.03125 -1.0842e-19 0.00865601 0.0363088
0.03125 -1.0842e-19 0.00865601 0.0312337
0.00875 0 0.0312567 0.0332925
-0.00875 1.0842e-19 0.0312567 0.0347043
-0.03 9.03502e-21 0.0124872 0.0362246
0.03 9.03502e-21 0.0124872 0.0313559
-0.0325 -2.71051e-20 0 0.0363847
0.0325 0 0 0.0310985
0.0125 9.03502e-21 0.0300014 0.0329679
-0.0125 4.51751e-21 0.0300014 0.0349861
1.93201e-11 0 0.0325128 0.0340182
-0.0325 -9.03502e-21 0.00234132 0.0363871
0.0325 9.03502e-21 0.00234132 0.0311022
0.0275 0 0.0175 0.0315958
-0.0275 0 0.0175 0.0360547
0.0175 0 0.0275 0.0325234
-0.0175 0 0.0275 0.0353523
0.0025 0 0.0325128 0.0338149
-0.0025 0 0.0325128 0.034218
0.032652 0 0 0.031083
-0.032652 0 0 0.0363945
0.032652 0 0.0001422 0.031083
-0.032652 2.71051e-20 0.000142207 0.0363945
-0.0325 4.51751e-21 0.00480076 0.0363892
0.0325 0 0.00480076 0.0311057
0.005 0 0.0325128 0.033608
-0.005 0 0.0325128 0.0344143
-0.02875 0 0.0162494 0.0361395
0.02875 1.0842e-19 0.0162494 0.0314755
0.01625 -1.0842e-19 0.0287506 0.0326355
-0.01625 1.0842e-19 0.0287506 0.0352615
0.03125 -1.0842e-19 0.011217 0.0312321
-0.03125 -2.1684e-19 0.011217 0.0363072
-0.01125 1.0842e-19 0.0312567 0.0348923
0.01125 -1.0842e-19 0.0312567 0.0330762
-0.0325 9.03502e-21 0.00736599 0.0363891
0.0325 4.51751e-21 0.00736599 0.0311059
-0.0075 0 0.0325128 0.0346073
0.0075 0 0.0325128 0.0333973
0.03 4.51751e-21 0.0149986 0.0313528
-0.03 4.51751e-21 0.0149986 0.0362228
0.015 9.03502e-21 0.0300014 0.0327458
-0.015 9.03502e-21 0.0300014 0.0351694
0.02375 1.0842e-19 0.02375 0.0319472
-0.02375 -2.1684e-19 0.02375 0.0357942
0.0225 0 0.025 0.0320631
0.025 0 0.0225 0.0318291
-0.0225 0 0.025 0.0357064
-0.025 0 0.0225 0.0358806
-0.03375 1.0842e-19 0.00116943 0.0364654
0.03375 1.0842e-19 0.00116943 0.0309712
0.02125 0 0.02625 0.0321791
0.02625 0 0.02125 0.0317111
-0.02125 0 0.02625 0.0356186
-0.02625 1.0842e-19 0.02125 0.0359669
0.00125 2.1684e-19 0.0337829 0.0339161
-0.00125 0 0.033783 0.0341176
0.03375 -1.0842e-19 0.00356873 0.0309789
-0.03375 1.0842e-19 0.00356873 0.0364704
-0.0325 1.807e-20 0.0099455 0.0363887
0.0325 4.51751e-21 0.0099455 0.0311057
0.00375 1.0842e-19 0.0337829 0.0337109
-0.00375 0 0.0337829 0.0343157
0.0275 0 0.02 0.031591
-0.0275 0 0.02 0.0360519
0.02 0 0.0275 0.0322931
-0.02 0 0.0275 0.0355294
0.01 4.51751e-21 0.0325128 0.0331829
-0.01 0 0.0325128 0.034797
0.03125 -1.0842e-19 0.0137433 0.0312301
-0.03125 -1.0842e-19 0.0137433 0.0363061
0.01375 -1.0842e-19 0.0312567 0.032856
-0.01375 -1.0842e-19 0.0312567 0.0350772
0.03375 0 0.00608215 0.030978
-0.03375 0 0.00608215 0.0364694
0.02875 1.0842e-19 0.01875 0.0314709
-0.02875 1.0842e-19 0.01875 0.0361368
0.01875 0 0.0287506 0.0324073
-0.01875 0 0.0287506 0.0354402
0.00625 0 0.0337829 0.0335021
-0.00625 0 0.0337829 0.0345104
-0.03 0 0.0175 0.0362203
0.03 4.51751e-21 0.0175 0.0313483
0.0175 4.51751e-21 0.0300014 0.0325195
-0.0175 4.51751e-21 0.0300014 0.0353496
0.0325 1.35525e-20 0.0124872 0.0311039
-0.0325 1.807e-20 0.0124872 0.0363874
0.0125 9.03502e-21 0.0325128 0.0329646
-0.0125 4.51751e-21 0.0325128 0.0349835
-0.03375 0 0.00865601 0.0364702
0.03375 0 0.00865601 0.0309794
-0.034848 0 0 0.0365352
0.034848 0 0 0.0308572
-0.034848 -2.71051e-20 0.000142206 0.0365352
0.034848 0 0.000142202 0.0308572
0.00875 1.0842e-19 0.0337829 0.0332896
-0.00875 1.0842e-19 0.0337829 0.0347017
-0.035 0 0 0.0365449
0.035 0 0 0.0308415
1.06827e-10 0 0.0350545 0.0340157
-0.035 -4.51751e-21 0.00234132 0.0365474
0.035 1.35525e-20 0.00234132 0.0308454
0.0025 0 0.0350545 0.0338123
-0.0025 0 0.0350545 0.0342156
0.035152 0 0 0.0308257
-0.035152 0 0 0.0365546
0.035152 0 0.000142203 0.0308257
-0.035152 -2.71051e-20 0.000142206 0.0365546
0.03125 2.1684e-19 0.0162494 0.0312257
-0.03125 0 0.0162494 0.0363037
-0.01625 -1.0842e-19 0.0312567 0.0352589
0.01625 -1.0842e-19 0.0312567 0.0326318
-0.035 0 0.00480076 0.0365493
0.035 -4.51751e-21 0.00480076 0.0308489
0.025 0 0.025 0.0318243
-0.025 0 0.025 0.0358777
0.02375 1.0842e-19 0.02625 0.0319424
0.02625 2.1684e-19 0.02375 0.0317062
-0.02625 1.0842e-19 0.02375 0.035964
-0.02375 0 0.02625 0.0357913
0.005 0 0.0350545 0.0336053
-0.005 0 0.0350545 0.034412
0.0275 0 0.0225 0.0315859
-0.0275 0 0.0225 0.036049
0.0225 0 0.0275 0.0320586
-0.0225 0 0.0275 0.0357036
-0.03375 -1.0842e-19 0.011217 0.0364686
0.03375 -1.0842e-19 0.011217 0.0309777
0.01125 0 0.0337829 0.0330732
-0.01125 1.0842e-19 0.0337829 0.0348898
0.02875 1.0842e-19 0.02125 0.0314658
-0.02875 1.0842e-19 0.02125 0.0361339
0.02125 -1.0842e-19 0.0287506 0.0321748
-0.02125 0 0.0287506 0.0356159
-0.035 4.51751e-21 0.00736599 0.0365493
0.035 4.51751e-21 0.00736599 0.0308491
0.0325 9.03502e-21 0.0149986 0.0311007
-0.0325 9.03502e-21 0.0149986 0.0363857
0.015 1.35525e-20 0.0325128 0.0327423
-0.015 1.35525e-20 0.0325128 0.0351669
0.0075 0 0.0350545 0.0333946
-0.0075 0 0.0350545 0.0346051
0.03 4.51751e-21 0.02 0.0313434
-0.03 0 0.02 0.0362175
0.02 0 0.0300014 0.0322891
-0.02 0 0.0300014 0.0355268
0.03625 0 0.00116943 0.0307118
-0.03625 -2.1684e-19 0.00116944 0.0366244
0.00125 0 0.036344 0.0339137
-0.00125 2.1684e-19 0.036344 0.0341154
-0.035 9.03502e-21 0.0099455 0.0365489
0.035 4.51751e-21 0.0099455 0.0308489
0.03625 1.0842e-19 0.00356873 0.0307197
-0.03625 0 0.00356873 0.0366293
-0.03375 -1.0842e-19 0.0137433 0.0364675
0.03375 -1.0842e-19 0.0137433 0.0309757
0.03125 -1.0842e-19 0.01875 0.031221
-0.03125 1.0842e-19 0.01875 0.036301
0.01875 0 0.0312567 0.0324034
-0.01875 -1.0842e-19 0.0312567 0.0354377
0.01 0 0.0350545 0.0331801
-0.01 0 0.0350545 0.0347948
-0.01375 2.1684e-19 0.0337829 0.0350748
0.01375 0 0.033783 0.0328528
0.00375 1.0842e-19 0.036344 0.0337085
-0.00375 1.0842e-19 0.036344 0.0343136
-0.03625 -1.0842e-19 0.00608215 0.0366283
0.03625 1.0842e-19 0.00608215 0.0307188
0.00625 0 0.036344 0.0334996
-0.00625 1.0842e-19 0.036344 0.0345083
0.0325 4.51751e-21 0.0175 0.0310961
-0.0325 0 0.0175 0.0363832
0.0175 9.03502e-21 0.0325128 0.0325159
-0.0175 9.03502e-21 0.0325128 0.0353472
0.02625 0 0.02625 0.0317013
-0.02625 -1.0842e-19 0.02625 0.0359612
0.035 9.03502e-21 0.0124872 0.0308471
-0.035 9.03502e-21 0.0124872 0.0365475
0.0275 0 0.025 0.031581
-0.0275 0 0.025 0.0360462
0.025 0 0.0275 0.0318196
-0.025 0 0.0275 0.035875
0.0125 0 0.0350545 0.0329617
-0.0125 0 0.0350545 0.0349814
-0.03625 -1.0842e-19 0.00865601 0.0366291
0.03625 -1.0842e-19 0.00865601 0.0307201
0.02875 0 0.02375 0.0314607
-0.02875 1.0842e-19 0.02375 0.0361311
-0.02375 1.0842e-19 0.0287506 0.0357887
0.02375 0 0.0287506 0.031938
0.037348 0 0 0.0305956
-0.037348 0 0 0.0366931
0.037348 0 0.000142205 0.0305956
-0.037348 0 0.000142193 0.0366931
0.00875 0 0.036344 0.033287
-0.00875 0 0.036344 0.0346998
-0.03375 2.1684e-19 0.0162494 0.0364653
0.03375 1.0842e-19 0.0162494 0.0309712
0.01625 0 0.0337829 0.0326285
-0.01625 -1.0842e-19 0.0337829 0.0352566
-0.03 4.51751e-21 0.0225 0.0362147
-0.0375 0 0 0.0367026
0.0375 0 0 0.0305797
0.03 0 0.0225 0.0313382
0.0225 0 0.0300014 0.0320544
-0.0225 4.51751e-21 0.0300014 0.0357011
-0.0375 9.03502e-21 0.00234132 0.036705
0.0375 0 0.00234132 0.0305835
3.80033e-10 4.51751e-21 0.037634 0.0340139
-0.037652 0 0 0.0367121
0.037652 -2.71051e-20 0 0.0305635
-0.037652 0 0.000142193 0.0367121
0.037652 -2.71051e-20 0.000142205 0.0305635
0.0025 4.51751e-21 0.037634 0.0338104
-0.0025 0 0.037634 0.0342139
-0.03125 2.1684e-19 0.02125 0.0362982
0.03125 2.1684e-19 0.02125 0.0312157
0.02125 0 0.0312567 0.0321708
-0.02125 0 0.0312567 0.0356134
-0.0375 -4.51751e-21 0.00480076 0.0367069
0.0375 4.51751e-21 0.00480076 0.0305871
0.03625 0 0.011217 0.0307185
-0.03625 0 0.011217 0.0366275
0.005 0 0.037634 0.0336034
-0.005 4.51751e-21 0.037634 0.0344104
0.01125 0 0.036344 0.0330705
-0.01125 2.1684e-19 0.036344 0.034888
0.035 4.51751e-21 0.0149986 0.0308438
-0.035 4.51751e-21 0.0149986 0.0365458
0.015 4.51751e-21 0.0350545 0.0327393
-0.015 4.51751e-21 0.0350545 0.0351648
-0.0325 0 0.02 0.0363804
0.0325 4.51751e-21 0.02 0.031091
0.02 0 0.0325128 0.0322854
-0.02 0 0.0325128 0.0355244
-0.0375 9.03502e-21 0.00736599 0.0367068
0.0375 4.51751e-21 0.00736599 0.0305873
0.0075 9.03502e-21 0.037634 0.0333926
-0.0075 9.03502e-21 0.037634 0.0346035
-0.03375 -1.0842e-19 0.01875 0.0364626
0.03375 0 0.01875 0.0309664
-0.01875 0 0.0337829 0.0354354
0.01875 0 0.0337829 0.0324001
0.03875 -1.0842e-19 0.00116943 0.0304474
-0.03875 0 0.00116943 0.0367808
0.03625 0 0.0137433 0.0307164
-0.03625 0 0.0137433 0.0366264
-0.0375 0 0.0099455 0.0367064
0.0375 4.51751e-21 0.0099455 0.0305872
0.01375 0 0.036344 0.0328501