# pMean  POINT_DATA 28084
# x  y  z  pMean
0 0.000152009 5.5926e-11 0.0331189
-6.46235e-27 -0.000334729 0 0.0331028
0 -0.00109799 0.00116944 0.0330771
1.0842e-19 0.001402 0.00116944 0.0331607
0 0.000152004 0.00233887 0.0331218
-5.16988e-26 -0.00234799 2.31322e-10 0.0330361
0 -0.00234799 0.000212484 0.0330363
0 0.00265199 2.30541e-10 0.0332033
7.02041e-20 -0.002348 0.00233887 0.0330389
0 0.002652 0.00233887 0.0332062
-1.0842e-19 -0.001098 0.00356872 0.0330829
0 -0.003598 0.00116943 0.032995
0 0.001402 0.00356873 0.0331665
0 0.003902 0.00116944 0.0332459
0 0.000152002 0.00479858 0.0331239
2.06795e-25 -0.00484801 1.64597e-09 0.0329547
2.06795e-25 -0.00484801 0.000833964 0.0329558
-2.1684e-19 -0.003598 0.00356872 0.0330008
1.03398e-25 0.00515199 6.60558e-10 0.0332893
0 -0.0051546 0 0.032945
1.0842e-19 0.003902 0.00356872 0.0332517
-9.99668e-20 -0.002348 0.00479858 0.0330411
-1.36721e-20 -0.004848 0.00233887 0.0329576
0 0.002652 0.00479858 0.0332083
0 0.005152 0.00233887 0.0332922
0 -0.001098 0.00608215 0.0330814
-2.1684e-19 -0.006098 0.00116943 0.0329145
0 0.001402 0.00608215 0.033165
0 0.006402 0.00116943 0.0333328
-1.35479e-19 -0.004848 0.00479858 0.0329598
0 0.005152 0.00479858 0.0332944
1.0842e-19 -0.006098 0.00356873 0.0329203
0 -0.003598 0.00608215 0.0329994
1.0842e-19 0.003902 0.00608215 0.0332503
0 0.006402 0.00356872 0.0333385
0 -0.007348 1.17757e-08 0.032875
0 0.000151999 0.00736572 0.0331236
-3.30872e-24 0.00765203 1.4035e-08 0.033377
0 -0.007348 0.00233887 0.0328779
0 -0.002348 0.00736572 0.0330407
2.06795e-25 0.002652 0.00736572 0.033208
0 0.00765201 0.00233888 0.0333799
0 -0.006098 0.00608215 0.0329189
2.1684e-19 -0.008598 0.00116944 0.0328356
0 -0.001098 0.008656 0.0330822
1.0842e-19 0.001402 0.00865601 0.0331659
-4.1359e-25 -0.007348 0.00479858 0.0328801
0 -0.004848 0.00736572 0.0329594
0 0.006402 0.00608215 0.0333372
1.0842e-19 0.008902 0.00116944 0.0334212
-2.06795e-25 0.005152 0.00736572 0.0332941
0 0.007652 0.00479858 0.0333821
-1.0842e-19 -0.008598 0.00356872 0.0328413
0 -0.003598 0.008656 0.033
0 0.003902 0.008656 0.033251
1.0842e-19 0.008902 0.00356872 0.0334271
0 -0.00984799 2.28661e-10 0.0327968
5.16988e-26 0.000152 0.00994629 0.0331231
8.27181e-25 -0.009848 0.00233887 0.0327997
-3.30872e-24 0.010152 1.3999e-08 0.0334662
0 -0.002348 0.00994629 0.0330402
-5.16988e-26 0.002652 0.00994629 0.0332075
0 -0.007348 0.00736572 0.0328796
0 0.010152 0.00233888 0.0334691
-1.03398e-25 -0.0104854 0 0.0327773
0 -0.008598 0.00608215 0.0328399
1.0842e-19 -0.006098 0.008656 0.0329194
0 0.007652 0.00736572 0.0333817
-2.1684e-19 0.006402 0.008656 0.0333378
0 0.008902 0.00608215 0.0334257
-4.1359e-25 -0.009848 0.00479858 0.0328018
5.16988e-26 -0.004848 0.00994629 0.0329588
1.0842e-19 -0.011098 0.00116943 0.0327581
0 0.005152 0.00994629 0.0332936
0 0.010152 0.00479858 0.0334714
1.0842e-19 -0.001098 0.011217 0.0330804
-1.0842e-19 0.001402 0.011217 0.033164
-1.0842e-19 0.011402 0.00116943 0.0335112
0 -0.011098 0.00356872 0.0327638
2.1684e-19 -0.003598 0.011217 0.0329983
0 0.003902 0.011217 0.0332493
0 0.011402 0.00356872 0.0335172
0 -0.008598 0.00865601 0.0328404
0 -0.009848 0.00736572 0.0328014
-1.03398e-25 -0.012348 6.6811e-10 0.0327202
0 -0.012348 0.000490448 0.0327207
5.16988e-26 -0.007348 0.00994629 0.032879
1.0842e-19 0.008902 0.008656 0.0334264
0 0.000152 0.0124878 0.0331214
-1.39051e-20 0.010152 0.00736572 0.033471
0 0.007652 0.00994629 0.0333813
0 -0.012348 0.00233887 0.032723
-1.65436e-24 0.012652 1.29297e-08 0.033557
1.0842e-19 -0.011098 0.00608215 0.0327625
-1.29247e-26 -0.002348 0.0124878 0.0330385
0 0.002652 0.0124878 0.0332059
0 -0.006098 0.011217 0.0329176
-8.27181e-25 0.012652 0.00233888 0.03356
1.0842e-19 0.006402 0.011217 0.0333363
1.0842e-19 0.011402 0.00608215 0.0335157
0 -0.012348 0.00479858 0.0327252
0 -0.004848 0.0124878 0.0329572
0 0.005152 0.0124878 0.033292
-4.1359e-25 0.012652 0.00479858 0.0335622
-2.1684e-19 -0.013598 0.00116943 0.0326822
1.0842e-19 -0.001098 0.0137433 0.0330789
2.1684e-19 0.001402 0.0137433 0.0331626
1.0842e-19 0.013902 0.00116943 0.0336029
0 -0.009848 0.00994629 0.0328007
-2.1684e-19 -0.013598 0.00356872 0.0326878
-1.0842e-19 -0.011098 0.00865601 0.032763
1.0842e-19 -0.008598 0.011217 0.0328386
0 -0.003598 0.0137433 0.0329967
-5.16988e-26 0.010152 0.00994629 0.0334705
0 0.003902 0.0137433 0.0332478
-1.0842e-19 0.011402 0.008656 0.0335165
0 0.008902 0.011217 0.0334247
1.0842e-19 0.013902 0.00356872 0.0336088
0 -0.012348 0.00736572 0.0327248
0 -0.007348 0.0124878 0.0328774
2.06795e-25 0.012652 0.00736572 0.0335619
0 0.007652 0.0124878 0.0333797
0 0.0146569 0 0.0336311
0 -0.014848 4.51806e-09 0.032645
-2.1684e-19 -0.013598 0.00608215 0.0326866
-4.1359e-25 -0.014848 0.00182911 0.0326472
0 0.000152 0.0149988 0.0331192
0 -0.014848 0.00233887 0.0326478
1.0842e-19 -0.006098 0.0137433 0.0329162
0 0.015152 3.19293e-09 0.0336494
1.0842e-19 0.006402 0.0137433 0.0333346
0 0.013902 0.00608215 0.0336073
0 -0.002348 0.0149988 0.0330363
4.1359e-25 0.015152 0.00133696 0.0336512
0 0.002652 0.0149988 0.0332036
0 0.015152 0.00233887 0.0336524
0 -0.014848 0.00479858 0.03265
0 -0.004848 0.0149988 0.032955
2.1684e-19 -0.011098 0.011217 0.0327611
0 -0.012348 0.00994629 0.0327242
8.07794e-28 0.005152 0.0149988 0.0332896
0 0.015152 0.00479858 0.0336546
0 -0.009848 0.0124878 0.0327992
0 0.011402 0.011217 0.0335147
-5.16988e-26 0.012652 0.00994629 0.0335614
0 0.010152 0.0124878 0.0334689
1.0842e-19 -0.013598 0.008656 0.0326873
2.1684e-19 -0.016098 0.00116943 0.0326078
2.1684e-19 -0.008598 0.0137433 0.0328373
0 -0.001098 0.0162494 0.0330759
0 0.001402 0.0162494 0.0331595
0 0.008902 0.0137433 0.0334232
0 0.013902 0.008656 0.0336081
1.0842e-19 0.016402 0.00116943 0.0336961
1.0842e-19 -0.016098 0.00356872 0.0326134
1.03398e-25 -0.014848 0.00736572 0.0326498
-1.0842e-19 -0.003598 0.0162494 0.0329938
0 -0.007348 0.0149988 0.0328753
0 0.003902 0.0162494 0.0332447
0 0.016402 0.00356872 0.0337021
0 0.007652 0.0149988 0.0333773
0 0.015152 0.00736572 0.0336543
0 -0.016098 0.00608215 0.0326123
0 -0.017348 7.40038e-09 0.0325714
0 -0.006098 0.0162494 0.0329134
9.04729e-26 -0.0172029 0.00233887 0.0325784
0 0.006402 0.0162494 0.0333315
-1.0842e-19 0.016402 0.00608215 0.0337004
-5.34848e-28 0.000152 0.0174957 0.0331161
-5.52613e-20 -0.017348 0.00233887 0.0325742
5.16988e-26 -0.017348 0.00263528 0.0325745
6.46235e-27 -0.012348 0.0124878 0.0327226
0 -0.013598 0.011217 0.0326854
-8.27181e-25 0.017652 5.04984e-09 0.0337434
-1.57772e-30 -0.002348 0.0175 0.0330333
2.1684e-19 -0.011098 0.0137433 0.0327599
1.26218e-29 0.002652 0.0174954 0.0332004
2.06795e-25 0.017652 0.00202524 0.033746
0 0.012652 0.0124878 0.0335597
4.90094e-20 0.017652 0.00233887 0.0337464
0 0.011402 0.0137433 0.0335132
-1.0842e-19 0.013902 0.011217 0.0336062
-2.58494e-26 -0.014848 0.00994629 0.0326491
0 -0.009848 0.0149988 0.0327972
0 -0.017348 0.00479858 0.0325765
8.07794e-28 0.010152 0.0149988 0.0334665
0 0.015152 0.00994629 0.0336538
-9.15079e-29 -0.004848 0.0174955 0.0329521
-3.61298e-28 0.005152 0.0174953 0.0332864
0 -0.016098 0.008656 0.032613
2.20506e-20 0.017652 0.00479858 0.0337487
0 -0.008598 0.0162494 0.0328346
1.0842e-19 0.008902 0.0162494 0.0334199
0 0.016402 0.008656 0.0337014
-1.0842e-19 -0.018598 0.00116943 0.032535
0 -0.001098 0.01875 0.0330728
0 0.001402 0.01875 0.0331562
0 -0.017348 0.00736572 0.0325762
-1.0842e-19 -0.018598 0.00356872 0.0325406
0 0.018902 0.00116943 0.0337909
-1.43573e-28 -0.007348 0.0174953 0.0328725
0 -0.003598 0.01875 0.0329908
1.60928e-28 0.007652 0.0174955 0.033374
0 0.017652 0.00736572 0.0337483
-1.0842e-19 0.003902 0.01875 0.0332414
0 0.018902 0.00356872 0.0337969
0 -0.013598 0.0137433 0.0326841
0 -0.014848 0.0124878 0.0326476
0 -0.012348 0.0149988 0.0327207
-1.0842e-19 0.013902 0.0137433 0.0336046
0 -0.018598 0.00608215 0.0325396
-2.1684e-19 -0.016098 0.011217 0.0326111
0 0.012652 0.0149988 0.0335572
0 0.015152 0.0124878 0.033652
0 -0.011098 0.0162494 0.0327573
-1.0842e-19 -0.006098 0.01875 0.0329103
0 0.006402 0.01875 0.0333281
1.65436e-24 -0.019848 8.29598e-09 0.0324993
0 0.011402 0.0162494 0.0335097
-2.1684e-19 0.018902 0.00608215 0.0337953
-2.1684e-19 0.016402 0.011217 0.0336994
-1.24278e-20 -0.019848 0.00233887 0.0325021
1.29247e-26 -0.017348 0.00994629 0.0325757
3.28979e-21 0.000152 0.02 0.0331128
-3.07656e-28 -0.009848 0.017495 0.0327944
6.45119e-20 -0.002348 0.02 0.0330301
0 0.020152 4.1787e-09 0.033839
8.08456e-20 0.002652 0.02 0.0331971
-1.89327e-28 0.010152 0.0174956 0.0334631
4.1359e-25 0.020152 0.00178799 0.0338413
-2.58494e-26 0.017652 0.00994629 0.0337477
0 0.020152 0.00233887 0.033842
0 -0.019848 0.00443348 0.0325041
-2.58494e-26 -0.019848 0.00479858 0.0325044
-1.0842e-19 -0.018598 0.008656 0.0325403
-9.67102e-20 -0.004848 0.02 0.0329489
-1.0842e-19 -0.008598 0.01875 0.0328315
8.08456e-20 0.005152 0.02 0.0332829
2.06795e-25 0.020152 0.00479858 0.0338442
1.0842e-19 0.008902 0.01875 0.0334164
-1.0842e-19 0.018902 0.00865601 0.0337961
4.1359e-25 0.0208236 0 0.0338651
-4.03897e-28 -0.014848 0.0149988 0.0326457
-1.0842e-19 -0.021098 0.00116943 0.0324636
0 -0.016098 0.0137433 0.0326099
0 -0.019848 0.00736572 0.0325042
0 -0.013598 0.0162494 0.0326815
1.0842e-19 -0.001098 0.02125 0.0330693
0 0.001402 0.02125 0.0331528
8.08456e-20 -0.007348 0.02 0.0328694
0 0.015152 0.0149988 0.0336494
1.61559e-27 -0.017348 0.0124878 0.0325741
1.0842e-19 0.013902 0.0162494 0.0336012
-1.0842e-19 -0.021098 0.00356872 0.0324692
-1.0842e-19 0.016402 0.0137433 0.0336978
2.05104e-28 -0.012348 0.0174939 0.0327179
-9.67102e-20 0.007652 0.02 0.0333704
5.84013e-20 -0.012348 0.0175 0.0327179
-2.1684e-19 0.021402 0.00116943 0.0338872
0 0.020152 0.00736572 0.0338438
1.0842e-19 -0.003598 0.02125 0.0329874
-2.61902e-28 0.012652 0.0174953 0.0335537
0 0.003902 0.02125 0.0332378
0 0.017652 0.0124878 0.0337459
0 -0.0211569 0.00479858 0.0324674
0 0.021402 0.00356872 0.0338932
-1.0842e-19 -0.018598 0.011217 0.0325384
0 -0.011098 0.01875 0.0327543
1.0842e-19 0.011402 0.01875 0.0335062
0 -0.021098 0.00608215 0.0324682
-1.0842e-19 0.018902 0.011217 0.0337942
-1.0842e-19 -0.006098 0.02125 0.0329071
0 0.006402 0.02125 0.0333244
0 -0.019848 0.00994629 0.0325037
0 0.021402 0.00608215 0.0338917
8.08456e-20 -0.009848 0.02 0.0327914
0 -0.022348 8.9637e-09 0.0324286
3.28979e-21 0.010152 0.02 0.0334594
4.7591e-20 -0.022348 0.00233887 0.0324314
0 0.020152 0.00994629 0.0338433
8.08456e-20 0.000152 0.0225 0.0331093
-3.54881e-20 -0.002348 0.0225 0.0330267
-1.65436e-24 0.022652 1.13766e-08 0.0339362
8.08456e-20 0.002652 0.0225 0.0331936
0 0.022652 0.00233887 0.0339391
-1.0842e-19 -0.021098 0.008656 0.032469
-5.63276e-21 -0.022348 0.00479858 0.0324337
-1.0842e-19 -0.016098 0.0162494 0.0326073
1.0842e-19 -0.008598 0.02125 0.0328284
0 -0.017348 0.0149988 0.0325722
-1.40417e-28 -0.014848 0.0174901 0.032643
-1.57772e-30 -0.014848 0.0175 0.032643
-3.54881e-20 -0.004848 0.0225 0.0329457
0 0.008902 0.02125 0.0334125
-3.54881e-20 0.005152 0.0225 0.0332794
2.1684e-19 0.021402 0.008656 0.0338924
-1.0842e-19 0.016402 0.0162494 0.0336942
-1.0842e-19 -0.018598 0.0137433 0.0325371
-1.10441e-28 0.015152 0.0174946 0.0336459
0 0.022652 0.00479858 0.0339414
0 -0.013598 0.01875 0.0326786
0 0.017652 0.0149988 0.0337433
0 0.013902 0.01875 0.0335976
0 -0.022348 0.00679963 0.0324336
1.0842e-19 0.018902 0.0137433 0.0337925
8.07794e-28 -0.019848 0.0124878 0.0325021
1.58401e-19 -0.012348 0.02 0.0327149
0 -0.022348 0.00736572 0.0324336
-1.0842e-19 -0.023598 0.00116943 0.0323936
3.28979e-21 0.012652 0.02 0.03355
8.08456e-20 -0.007348 0.0225 0.0328662
0 0.020152 0.0124878 0.0338414
-9.67102e-20 0.007652 0.0225 0.0333667
1.0842e-19 -0.001098 0.02375 0.0330659
-1.0842e-19 0.001402 0.02375 0.0331493
0 0.022652 0.00736572 0.033941
0 -0.023598 0.00356872 0.0323992
-1.0842e-19 -0.021098 0.011217 0.0324671
0 0.023902 0.00116944 0.0339851
-1.0842e-19 -0.011098 0.02125 0.0327512
0 -0.003598 0.02375 0.0329842
-1.0842e-19 0.003902 0.02375 0.0332343
0 0.011402 0.02125 0.0335024
1.0842e-19 0.021402 0.011217 0.0338905
-2.1684e-19 0.023902 0.00356872 0.0339912
1.0842e-19 -0.023598 0.00608215 0.0323981
0 -0.0233185 0.00736572 0.0324067
0 -0.022348 0.00994629 0.0324331
1.0842e-19 -0.006098 0.02375 0.0329039
1.58401e-19 -0.009848 0.0225 0.0327883
-1.0842e-19 0.006402 0.02375 0.0333209
9.6241e-29 -0.017348 0.0174762 0.0325695
1.97432e-20 -0.017348 0.0175 0.0325695
0 0.023902 0.00608215 0.0339896
3.28979e-21 0.010152 0.0225 0.0334557
1.0842e-19 -0.018598 0.0162494 0.0325346
1.0842e-19 -0.016098 0.01875 0.0326044
0 0.022652 0.00994629 0.0339404
1.65436e-24 -0.024848 1.04578e-08 0.0323594
-8.67747e-29 0.017652 0.0174937 0.0337398
-1.57772e-30 0.017652 0.0175 0.0337398
0 -0.019848 0.0149988 0.0325002
-5.99305e-20 -0.014848 0.02 0.03264
-1.0842e-19 0.016402 0.01875 0.0336906
1.0842e-19 0.018902 0.0162494 0.033789
0 -0.024848 0.00233887 0.0323622
-9.67102e-20 0.000152 0.025 0.033106
3.28979e-21 0.015152 0.02 0.0336421
3.28979e-21 -0.002348 0.025 0.0330235
-8.07794e-28 0.020152 0.0149988 0.0338388
1.0842e-19 -0.023598 0.008656 0.0323991
-9.67102e-20 0.002652 0.025 0.0331901
1.65436e-24 0.025152 1.2557e-08 0.0340349
1.0842e-19 -0.021098 0.0137433 0.0324659
1.0842e-19 -0.013598 0.02125 0.0326754
1.0842e-19 -0.008598 0.02375 0.0328253
0 0.025152 0.00233887 0.0340379
0 -0.024848 0.00479858 0.0323645
1.0842e-19 0.008902 0.02375 0.0334089
-1.0842e-19 0.013902 0.02125 0.0335937
-1.0842e-19 0.023902 0.008656 0.0339904
1.0842e-19 0.021402 0.0137433 0.0338887
3.28979e-21 -0.004848 0.025 0.0329425
-3.54881e-20 0.005152 0.025 0.0332759
0 -0.022348 0.0124878 0.0324315
2.06795e-25 0.025152 0.00479858 0.0340402
1.58401e-19 -0.012348 0.0225 0.0327118
-9.67102e-20 0.012652 0.0225 0.0335462
-6.46235e-27 0.022652 0.0124878 0.0339386
4.59463e-20 -0.024848 0.00736572 0.0323644
8.08456e-20 -0.007348 0.025 0.0328631
0 -0.026098 0.00116943 0.0323251
0 -0.023598 0.011217 0.0323972
8.08456e-20 0.007652 0.025 0.0333631
0 0.025152 0.00736572 0.0340398
0 -0.011098 0.02375 0.0327481
0 -0.001098 0.02625 0.0330628
-1.0842e-19 0.001402 0.02625 0.033146
0 -0.026098 0.00356872 0.0323307
1.0842e-19 0.011402 0.02375 0.0334987
-1.0842e-19 0.023902 0.011217 0.0339885
1.0842e-19 -0.018598 0.01875 0.0325317
1.26218e-29 -0.019848 0.0174442 0.0324976
0 0.026402 0.00116944 0.0340847
8.11948e-20 -0.019848 0.0175 0.0324976
3.20767e-20 -0.017348 0.02 0.0325666
1.0842e-19 -0.003598 0.02625 0.032981
1.0842e-19 0.003902 0.02625 0.0332308
-1.61559e-27 -0.024848 0.0095575 0.032364
-1.0842e-19 0.018902 0.01875 0.0337852
0 -0.021098 0.0162494 0.0324635
-2.1684e-19 0.026402 0.00356872 0.0340907
-2.1684e-19 -0.016098 0.02125 0.0326013
8.08456e-20 0.017652 0.02 0.0337359
-4.57539e-29 0.020152 0.0174939 0.0338352
0 0.020152 0.0175 0.0338352
0 -0.024848 0.00994629 0.0323639
0 -0.026098 0.00608215 0.0323297
-1.0842e-19 0.016402 0.02125 0.0336865
8.08456e-20 -0.009848 0.025 0.0327853
1.0842e-19 0.021402 0.0162494 0.0338852
-1.00974e-28 -0.022348 0.0149988 0.0324297
0 -0.006098 0.02625 0.0329008
1.01292e-19 -0.014848 0.0225 0.0326369
8.08456e-20 0.010152 0.025 0.033452
1.0842e-19 0.006402 0.02625 0.0333173
5.16988e-26 0.025152 0.00994629 0.0340392
1.0842e-19 0.026402 0.00608215 0.0340892
8.08456e-20 0.015152 0.0225 0.0336382
0 0.022652 0.0149988 0.0339358
0 -0.023598 0.0137433 0.032396
0 -0.027348 1.20369e-08 0.0322916
0 -0.013598 0.02375 0.0326725
5.2784e-20 -0.027348 0.00233887 0.0322943
1.0842e-19 -0.026098 0.00865601 0.0323305
3.28979e-21 0.000152 0.0275 0.0331029
-6.46866e-29 0.000152 0.027515 0.0331028
0 0.013902 0.02375 0.0335899
0 -0.0256961 0.00994629 0.0323409
0 0.023902 0.0137433 0.0339867
8.08456e-20 -0.002348 0.0275 0.0330204
0 -0.008598 0.02625 0.0328223
6.45162e-20 0.002652 0.0275 0.0331869
-3.15544e-30 -0.002348 0.0275346 0.0330203
9.46633e-30 0.002652 0.0275104 0.0331869
1.65436e-24 0.027652 1.18528e-08 0.0341352
-1.0842e-19 0.008902 0.02625 0.0334054
-4.1359e-25 0.027652 0.00233887 0.0341382
7.78143e-20 -0.027348 0.00479858 0.0322967
-1.0842e-19 0.026402 0.008656 0.03409
0 -0.024848 0.0124878 0.0323624
-9.67102e-20 -0.012348 0.025 0.0327089
-9.67102e-20 -0.004848 0.0275 0.0329395
-9.67102e-20 0.005152 0.0275 0.0332725
-1.41995e-28 0.005152 0.0275096 0.0332725
-9.67102e-20 0.012652 0.025 0.0335424
-1.41995e-29 -0.004848 0.0276314 0.0329393
0 0.027652 0.00479858 0.0341405
1.29247e-26 0.025152 0.0124878 0.0340373
1.01872e-19 -0.019848 0.02 0.0324947
0 -0.021098 0.01875 0.0324605
0 -0.018598 0.02125 0.0325287
-3.90552e-20 -0.027348 0.00736572 0.0322966
-1.57772e-30 -0.022348 0.01746 0.0324271
-1.57772e-30 -0.022348 0.0175 0.0324271
8.08456e-20 0.020152 0.02 0.0338313
0 -0.026098 0.011217 0.0323287
8.30758e-20 -0.017348 0.0225 0.0325636
1.0842e-19 0.018902 0.02125 0.0337811
0 0.021402 0.01875 0.0338814
-9.67087e-20 -0.007348 0.0275 0.0328601
1.0842e-19 -0.011098 0.02625 0.0327452
1.57772e-30 -0.007348 0.0275604 0.0328601
8.08456e-20 0.007652 0.0275 0.0333598
-1.49884e-28 0.007652 0.0275105 0.0333597
8.08456e-20 0.017652 0.0225 0.0337319
0 0.027652 0.00736572 0.0341402
-1.0842e-19 0.011402 0.02625 0.0334949
-1.26218e-28 0.022652 0.0174949 0.0339321
0 -0.028598 0.00116944 0.032258
0 -0.023598 0.0162494 0.0323937
2.1684e-19 0.026402 0.011217 0.0340881
-1.0842e-19 -0.016098 0.02375 0.0325984
1.0842e-19 -0.001098 0.0287506 0.0330597
-1.0842e-19 0.001402 0.0287506 0.0331429
-1.0842e-19 -0.028598 0.00356873 0.0322636
-1.0842e-19 0.016402 0.02375 0.0336826
0 0.023902 0.0162494 0.0339829
1.0842e-19 0.028902 0.00116944 0.0341857
-1.0842e-19 -0.003598 0.0287506 0.032978
0 0.003902 0.0287506 0.0332277
0 -0.024848 0.0149988 0.0323606
-9.67102e-20 -0.014848 0.025 0.032634
-2.74669e-20 -0.027348 0.00994629 0.0322961
0 0.028902 0.00356872 0.0341919
3.28979e-21 -0.009848 0.0275 0.0327824
-3.15544e-30 -0.009848 0.0275241 0.0327823
8.08456e-20 0.015152 0.025 0.0336344
0 -0.028598 0.00608215 0.0322626
8.07794e-28 0.025152 0.0149988 0.0340345
8.08456e-20 0.010152 0.0275 0.0334485
-3.47099e-29 0.010152 0.0275124 0.0334485
0 0.027652 0.00994629 0.0341396
0 -0.006098 0.0287506 0.032898
0 0.006402 0.0287506 0.0333141
1.0842e-19 -0.026098 0.0137433 0.0323276
-1.0842e-19 0.028902 0.00608215 0.0341904
0 -0.013598 0.02625 0.0326695
-1.0842e-19 0.013902 0.02625 0.033586
0 0.026402 0.0137433 0.0340861
0 -0.029848 1.28842e-08 0.0322252
0 -0.028598 0.008656 0.0322634
-5.67942e-20 -0.029848 0.00233887 0.032228
-1.0842e-19 -0.021098 0.02125 0.0324576
0 -0.027348 0.0123058 0.0322948
-1.11768e-19 -0.022348 0.02 0.0324242
-2.01948e-28 0.000152 0.0300012 0.0330999
2.22018e-20 -0.019848 0.0225 0.0324918
0 -0.008598 0.0287506 0.0328194
0 -0.027348 0.0124878 0.0322947
1.00974e-28 -0.002348 0.0300012 0.0330176
1.0842e-19 0.008902 0.0287506 0.0334022
0 0.002652 0.0300012 0.0331838
0 -0.023598 0.01875 0.0323907
-1.30406e-20 -0.012348 0.0275 0.032706
-1.65436e-24 0.030152 9.17765e-09 0.034237
0 0.021402 0.02125 0.0338773
-9.15079e-29 -0.012348 0.0275167 0.032706
-1.0842e-19 -0.018598 0.02375 0.032526
1.0842e-19 0.028902 0.008656 0.0341912
8.08456e-20 0.020152 0.0225 0.0338272
-9.67102e-20 0.022652 0.02 0.0339281
-1.36003e-20 -0.029848 0.00479858 0.0322303
0 0.030152 0.00233887 0.0342401
-9.67063e-20 0.012652 0.0275 0.0335388
-7.25752e-29 0.012652 0.0275145 0.0335388
0 0.027652 0.0124878 0.0341377
-1.0842e-19 0.018902 0.02375 0.0337771
3.62876e-29 -0.024848 0.0174695 0.032358
0 0.023902 0.01875 0.033979
0 -0.004848 0.0300012 0.0329368
0 -0.024848 0.0175 0.032358
-9.67102e-20 -0.017348 0.025 0.0325607
0 0.005152 0.0300012 0.0332694
0 0.030152 0.00479858 0.0342424
8.08456e-20 0.017652 0.025 0.033728
1.30951e-28 0.025152 0.0174955 0.0340306
0 -0.028598 0.011217 0.0322617
1.0842e-19 -0.026098 0.0162494 0.0323252
-1.01162e-20 -0.029848 0.00736572 0.0322302
-1.0842e-19 -0.016098 0.02625 0.0325955
1.0842e-19 -0.011098 0.0287506 0.0327424
0 -0.0281823 0.0124878 0.0322726
5.04871e-29 -0.007348 0.0300012 0.0328574
-1.0842e-19 0.011402 0.0287506 0.0334917
0 0.016402 0.02625 0.0336788
0 0.007652 0.0300012 0.0333566
1.0842e-19 0.026402 0.0162494 0.0340823
0 0.028902 0.011217 0.0341893
5.16988e-26 0.030152 0.00736572 0.0342421
1.0842e-19 -0.031098 0.00116944 0.0321923
1.00974e-28 -0.027348 0.0149988 0.0322929
5.28799e-21 -0.014848 0.0275 0.0326312
-9.30856e-29 -0.014848 0.0275159 0.0326312
1.0842e-19 -0.001098 0.0312567 0.033057
-1.0842e-19 0.001402 0.0312567 0.03314
1.0842e-19 -0.031098 0.00356873 0.0321979
8.08456e-20 0.015152 0.0275 0.0336307
1.27795e-28 0.015152 0.0275161 0.0336307
0 0.031402 0.00116944 0.0342883
0 0.027652 0.0149988 0.0341347
-4.36306e-20 -0.029848 0.00994629 0.0322298
0 -0.003598 0.0312567 0.0329756
-2.1684e-19 0.003902 0.0312567 0.0332248
0 -0.009848 0.0300012 0.0327797
2.1684e-19 0.031402 0.00356872 0.0342946
0 0.010152 0.0300012 0.0334453
0 -0.031098 0.00608215 0.0321969
6.44825e-21 -0.022348 0.0225 0.0324213
0 -0.028598 0.0137433 0.0322607
0 0.030152 0.00994629 0.0342416
1.0842e-19 -0.023598 0.02125 0.0323879
-1.0842e-19 -0.021098 0.02375 0.0324547
1.0842e-19 -0.013598 0.0287506 0.0326669
-1.0842e-19 -0.006098 0.0312567 0.0328955
-2.52908e-20 -0.024848 0.02 0.0323552
1.0842e-19 0.006402 0.0312567 0.0333111
-3.54881e-20 -0.019848 0.025 0.0324889
-1.57772e-30 0.022652 0.0225 0.033924
0 0.013902 0.0287506 0.0335827
0 0.021402 0.02375 0.0338732
0 0.023902 0.02125 0.0339748
-1.0842e-19 0.031402 0.00608215 0.0342929
0 0.028902 0.0137433 0.0341873
-1.91544e-20 0.020152 0.025 0.0338232
-9.67102e-20 0.025152 0.02 0.0340266
2.1684e-19 -0.026098 0.01875 0.0323224
1.0842e-19 -0.018598 0.02625 0.032523
0 0.0319167 0.00479858 0.0343154
0 -0.031098 0.008656 0.0321979
-5.16988e-26 -0.0322927 0 0.0321616
1.0842e-19 0.018902 0.02625 0.0337733
-5.16988e-26 -0.032348 2.91356e-10 0.0321602
-4.1359e-25 -0.032348 0.000175023 0.0321604
4.03897e-28 -0.029848 0.0124878 0.0322285
-1.0842e-19 0.026402 0.01875 0.0340783
1.55096e-25 -0.0324042 0 0.0321588
-1.0842e-19 -0.008598 0.0312567 0.0328169
1.44542e-19 -0.032348 0.00233887 0.032163
0 -0.012348 0.0300012 0.0327034
1.89327e-29 -0.027348 0.0174553 0.0322905
1.09087e-20 -0.027348 0.0175 0.0322904
2.1684e-19 0.008902 0.0312567 0.0333991
0 0.000152 0.0325122 0.0330973
6.22817e-20 -0.017348 0.0275 0.032558
-3.47099e-29 -0.017348 0.0275201 0.032558
2.58494e-26 0.0324498 0.00233887 0.0343351
0 0.012652 0.0300012 0.0335355
0 0.031402 0.008656 0.0342939
0 -0.002348 0.0325122 0.0330151
0 0.002652 0.0325122 0.0331812
-6.46235e-27 0.030152 0.0124878 0.0342396
8.27181e-25 0.032652 4.94574e-09 0.0343404
8.08456e-20 0.017652 0.0275 0.0337243
1.41995e-28 0.017652 0.0275173 0.0337243
-1.2015e-19 -0.032348 0.00479858 0.0321653
0 0.027652 0.0175 0.0341307
2.58494e-26 0.032652 0.00225989 0.0343433
8.04226e-22 0.032652 0.00233887 0.0343435
0 -0.004848 0.0325122 0.0329343
0 -0.028598 0.0162494 0.0322583
-6.46235e-27 0.005152 0.0325122 0.0332666
1.0842e-19 -0.016098 0.0287506 0.032593
1.33458e-19 0.032652 0.00479858 0.0343458
0 -0.031098 0.011217 0.0321962
-1.0842e-19 0.016402 0.0287506 0.0336753
1.29247e-26 0.032292 0.00736572 0.0343306
-1.0842e-19 0.028902 0.0162494 0.0341832
-1.0842e-19 -0.011098 0.0312567 0.03274
2.70902e-21 -0.032348 0.00736572 0.0321653
-1.0842e-19 0.011402 0.0312567 0.0334884
-4.03897e-28 -0.007348 0.0325122 0.032855
0 0.031402 0.011217 0.0342919
0 -0.029848 0.0148717 0.0322269
-3.23117e-27 0.007652 0.0325122 0.0333537
-2.52435e-29 -0.029848 0.0149988 0.0322268
-2.16887e-20 0.032652 0.00736572 0.0343455
2.01948e-28 -0.014848 0.0300012 0.0326287
0 -0.023598 0.02375 0.0323849
-1.94123e-20 -0.024848 0.0225 0.0323523
6.45119e-20 -0.022348 0.025 0.0324184
2.01948e-28 0.015152 0.0300012 0.0336273
-1.0842e-19 -0.033598 0.00116944 0.032128
1.0842e-19 -0.026098 0.02125 0.0323196
0 0.030152 0.0149988 0.0342365
1.0842e-19 -0.021098 0.02625 0.0324519
1.0842e-19 0.023902 0.02375 0.0339706
8.08456e-20 0.022652 0.025 0.0339199
8.08456e-20 0.025152 0.0225 0.0340223
2.1684e-19 -0.033598 0.00356873 0.0321336
-1.0842e-19 -0.001098 0.033783 0.0330547
1.0842e-19 0.001402 0.0337829 0.0331377
3.05031e-20 -0.032348 0.00994629 0.032165
1.0842e-19 0.021402 0.02625 0.0338691
-8.38186e-20 -0.027348 0.02 0.0322876
0 0.026402 0.02125 0.034074
4.56e-20 -0.019848 0.0275 0.0324862
1.0842e-19 0.033902 0.00116944 0.0343924
-5.52203e-29 -0.019848 0.0275551 0.0324861
1.61559e-27 -0.009848 0.0325122 0.0327773
2.1684e-19 -0.003598 0.0337829 0.0329731
-1.0842e-19 -0.031098 0.0137433 0.0321952
0 0.003902 0.033783 0.0332223
0 0.010152 0.0325122 0.0334423
0 0.032652 0.00973115 0.034345
2.1684e-19 -0.013598 0.0312567 0.0326645
0 0.033902 0.00356872 0.0343986
8.08486e-20 0.020152 0.0275 0.0338194
7.57306e-29 0.020152 0.0275172 0.0338194
8.08456e-20 0.027652 0.02 0.0341266
0 0.032652 0.00994629 0.034345
-1.0842e-19 -0.033598 0.00608215 0.0321327
0 -0.028598 0.01875 0.0322557
1.0842e-19 0.013902 0.0312567 0.0335794
-8.07794e-28 0.0327502 0.00994629 0.0343491
-2.1684e-19 -0.018598 0.0287506 0.0325205
2.1684e-19 0.031402 0.0137433 0.0342899
1.0842e-19 -0.006098 0.033783 0.032893
-1.0842e-19 0.006402 0.033783 0.0333084
2.1684e-19 0.018902 0.0287506 0.0337697
1.0842e-19 0.033902 0.00608215 0.0343971
0 0.028902 0.01875 0.0341791
6.31089e-30 -0.029848 0.0173696 0.0322244
-1.57772e-30 -0.029848 0.0175 0.0322243
0 -0.017348 0.0300012 0.0325555
0 -0.032348 0.0124878 0.0321637
-2.1684e-19 -0.033598 0.008656 0.0321337
0 -0.012348 0.0325122 0.0327011
0 0.017652 0.0300012 0.0337208
0 -0.034848 1.26667e-08 0.0320966
-1.89327e-28 0.030152 0.0174931 0.0342324
-1.0842e-19 -0.008598 0.0337829 0.0328146
0 0.030152 0.0175 0.0342324
-3.23117e-27 0.012652 0.0325122 0.0335325
0 -0.034848 0.00233887 0.0320993
-2.1684e-19 0.008902 0.0337829 0.0333963
0 0.032652 0.0124878 0.0343429
0 0.033902 0.008656 0.0343979
-1.29247e-26 0.000152 0.0350537 0.0330951
1.0842e-19 -0.031098 0.0162494 0.0321929
6.46235e-27 -0.002348 0.0350537 0.0330128
2.06795e-25 0.035152 1.12789e-09 0.0344452
-2.58494e-26 0.002652 0.0350537 0.0331789
-1.0842e-19 -0.016098 0.0312567 0.0325906
2.06795e-25 0.035152 0.00080481 0.0344463
-2.06795e-25 -0.034848 0.00479858 0.0321017
-2.85501e-21 0.035152 0.00233887 0.0344483
-1.13044e-19 -0.024848 0.025 0.0323495
1.0842e-19 -0.026098 0.02375 0.0323167
1.0842e-19 -0.023598 0.02625 0.0323822
0 0.016402 0.0312567 0.0336721
1.0842e-19 0.031402 0.0162494 0.0342857
-1.61559e-27 0.0330881 0.0124878 0.0343612
0 -0.004848 0.0350537 0.0329321
4.239e-20 -0.027348 0.0225 0.0322848
0 -0.033598 0.011217 0.0321321
-5.16988e-26 0.005152 0.0350537 0.0332643
6.13535e-20 -0.022348 0.0275 0.0324158
-1.91544e-20 0.025152 0.025 0.0340182
3.79957e-20 0.035152 0.00479858 0.0344507
0 0.023902 0.02625 0.0339666
0 0.026402 0.02375 0.0340698
0 -0.032348 0.0147234 0.0321622
1.0842e-19 -0.011098 0.0337829 0.0327377
2.01948e-28 -0.0333543 0.0124878 0.0321381
1.0413e-19 -0.034848 0.00736572 0.0321017
-9.67071e-20 0.022652 0.0275 0.033916
0 -0.028598 0.02125 0.0322528
-5.20648e-29 0.022652 0.0275165 0.033916
8.08456e-20 0.027652 0.0225 0.0341223
2.1684e-19 0.011402 0.0337829 0.0334857
-5.04871e-29 -0.032348 0.0149988 0.032162
0 -0.021098 0.0287506 0.0324493
-2.1684e-19 0.033902 0.011217 0.0343961
1.61559e-27 -0.014848 0.0325122 0.0326264
-4.03897e-28 -0.007348 0.0350537 0.0328529
0 0.021402 0.0287506 0.0338655
0 0.015152 0.0325122 0.0336243
0 0.028902 0.02125 0.0341748
0 0.007652 0.0350537 0.0333512
6.53299e-20 0.035152 0.00736572 0.0344504
-9.15793e-20 -0.029848 0.02 0.0322215
0 0.032652 0.0149988 0.0343397
-5.04871e-29 -0.019848 0.0300012 0.0324837
-4.03897e-28 -0.007348 0.0352421 0.0328528
-1.0842e-19 -0.036098 0.00116944 0.0320651
-2.01948e-28 0.020152 0.0300012 0.0338158
-1.91544e-20 0.030152 0.02 0.0342281
-1.38042e-19 -0.034848 0.00994629 0.0321014
1.0842e-19 -0.036098 0.00356873 0.0320705
1.0842e-19 -0.033598 0.0137433 0.0321311
0 -0.031098 0.01875 0.0321902
1.0842e-19 -0.001098 0.036344 0.0330525
1.0842e-19 0.001402 0.036344 0.0331356
1.0842e-19 -0.018598 0.0312567 0.0325181
0 -0.009848 0.0350537 0.0327752
1.0842e-19 -0.013598 0.033783 0.0326622
0 0.036402 0.00116943 0.034498
0 0.010152 0.0350537 0.0334398
0 -0.0207792 0.0300012 0.0324575
0 -0.003598 0.036344 0.0329711
0 0.018902 0.0312567 0.0337663
0 0.013902 0.0337829 0.0335766
-6.30886e-20 0.035152 0.00994629 0.0344499
0 0.0333192 0.0149988 0.0343677
0 0.003902 0.036344 0.0332201
1.0842e-19 0.031402 0.01875 0.0342816
-2.1684e-19 0.036402 0.00356873 0.0345042
2.1684e-19 0.033902 0.0137433 0.0343938
1.0842e-19 -0.036098 0.00608215 0.0320697
1.10441e-29 -0.032348 0.0174273 0.0321596
-5.04871e-29 -0.019848 0.0309282 0.0324829
0 -0.032348 0.0175 0.0321595
0 -0.017348 0.0325122 0.0325532
0 -0.006098 0.036344 0.0328912
-1.0842e-19 0.006402 0.036344 0.0333063
-1.0842e-19 0.036402 0.00608215 0.0345028
8.07794e-28 -0.034848 0.0121694 0.0321003
-1.61559e-27 -0.009848 0.0356518 0.0327749
-1.61559e-27 0.017652 0.0325122 0.0337177
1.0842e-19 -0.026098 0.02625 0.0323142
0 -0.034848 0.0124878 0.0321001
1.10441e-29 0.032652 0.0174693 0.0343357
8.08456e-20 0.032652 0.0175 0.0343356
3.28979e-21 -0.027348 0.025 0.0322821
-1.12786e-19 -0.024848 0.0275 0.032347
0 0.0371187 0 0.0345289
0 -0.036098 0.008656 0.0320706
0 -0.012348 0.0350537 0.0326991
1.0842e-19 -0.028598 0.02375 0.0322499
-1.0842e-19 -0.023598 0.0287506 0.0323797
-1.0842e-19 0.026402 0.02625 0.0340657
0 0.012652 0.0350537 0.03353
-9.67102e-20 0.025152 0.0275 0.0340142
-4.15987e-20 0.027652 0.025 0.0341181
-2.99767e-29 0.025152 0.0275199 0.0340142
-1.71093e-19 0.035152 0.0124878 0.0344478
-1.0842e-19 -0.033598 0.0162494 0.0321287
0 -0.008598 0.036344 0.0328127
0 -0.037348 1.10714e-08 0.0320343
-1.8484e-20 -0.029848 0.0225 0.0322187
-2.1684e-19 0.023902 0.0287506 0.0339628
0 0.028902 0.02375 0.0341705
0 -0.022348 0.0300012 0.0324134
0 0.036402 0.008656 0.0345037
2.1684e-19 0.008902 0.036344 0.033394
-3.61023e-20 -0.037348 0.00233887 0.032037
-1.0842e-19 -0.016098 0.0337829 0.0325883
0 0.016402 0.033783 0.0336692
-2.01948e-28 0.022652 0.0300012 0.0339124
2.1684e-19 0.033902 0.0162494 0.0343896
8.08456e-20 0.030152 0.0225 0.0342238
0 0.000152 0.0376343 0.0330934
5.16988e-26 0.037652 3.05816e-10 0.0345516
-1.23806e-20 -0.037348 0.00479858 0.0320393