# pMean  POINT_DATA 27775
# x  y  z  pMean
4.11098e-11 0 0 0.0331139
-0.000152009 2.71051e-20 0 0.0331261
0.00015201 0 0 0.0331015
-0.000152008 2.71051e-20 0.000142211 0.0331261
0.000152009 0 0.000142211 0.0331015
-0.00125 -1.0842e-19 0.00116944 0.0332153
0.00125 1.0842e-19 0.00116944 0.0330124
2.67344e-09 0 0.00234132 0.0331167
-0.00234799 0 0 0.0333028
0.002348 0 0 0.0329217
-0.00234799 -2.71051e-20 0.00014221 0.0333028
0.002348 0 0.000142211 0.0329217
-0.0025 2.71051e-20 0 0.033315
0.00250001 0 0 0.0329092
-0.00265201 0 0 0.0333271
0.00265202 2.71051e-20 0 0.0328966
-0.00265201 -2.71051e-20 0.000142211 0.0333271
0.00265202 0 0.000142211 0.0328966
-0.0025 0 0.00234132 0.0333178
0.0025 1.35525e-20 0.00234132 0.0329121
-0.00125 0 0.00356872 0.033221
0.00125 -1.0842e-19 0.00356873 0.0330182
-0.00374999 1.0842e-19 0.00116944 0.0334146
0.00375 0 0.00116944 0.0328059
2.03462e-09 4.51751e-21 0.00480076 0.0331189
-0.00484797 0 0 0.0335008
0.004848 0 0 0.0327136
-0.00484797 -2.71051e-20 0.000142211 0.0335008
0.004848 0 0.000142212 0.0327136
-0.00499998 2.71051e-20 0 0.0335127
0.00500001 2.71051e-20 0 0.0327009
-0.00515199 0 0 0.0335246
0.00515202 0 0 0.0326881
-0.00515199 0 0.00014221 0.0335246
0.00515202 -2.71051e-20 0.000142212 0.0326881
-0.00375 -2.1684e-19 0.00356873 0.0334203
0.00375 0 0.00356872 0.0328118
-0.0025 0 0.00480076 0.03332
0.0025 4.51751e-21 0.00480076 0.0329143
-0.00499999 -9.03502e-21 0.00234132 0.0335155
0.005 -1.35525e-20 0.00234132 0.0327038
-0.00125 1.0842e-19 0.00608215 0.0332196
0.00125 0 0.00608215 0.0330167
-0.00624999 2.1684e-19 0.00116944 0.0336107
0.00625001 0 0.00116944 0.0325958
-0.005 0 0.00480076 0.0335177
0.005 -4.51751e-21 0.00480076 0.0327061
-0.00375 0 0.00608215 0.033419
0.00375 1.0842e-19 0.00608215 0.0328103
-0.00624999 1.0842e-19 0.00356872 0.0336163
0.00625 0 0.00356873 0.0326018
-0.00734797 -2.71051e-20 0 0.0336953
0.00734801 0 0 0.0325019
-0.00734797 2.71051e-20 0.000142211 0.0336953
0.00734801 0 0.000142199 0.0325019
9.87617e-10 4.51751e-21 0.00736599 0.0331185
-0.00749998 0 0 0.0337071
0.00750001 0 0 0.0324889
-0.00765199 0 0 0.0337188
0.007652 2.71051e-20 0 0.0324759
-0.00765199 2.71051e-20 0.000142211 0.0337188
0.007652 0 0.0001422 0.0324759
-0.0025 4.51751e-21 0.00736599 0.0333197
0.0025 9.03502e-21 0.00736599 0.0329139
-0.00749999 -4.51751e-21 0.00234132 0.0337098
0.0075 -9.03502e-21 0.00234132 0.0324919
-0.00625 0 0.00608215 0.0336149
0.00625 1.0842e-19 0.00608215 0.0326003
-0.00125 1.0842e-19 0.008656 0.0332205
0.00125 0 0.00865601 0.0330175
-0.00874999 0 0.00116944 0.0338034
0.00875 1.0842e-19 0.00116944 0.032382
0.005 0 0.00736599 0.0327057
-0.005 4.51751e-21 0.00736599 0.0335174
-0.0075 0 0.00480076 0.033712
0.0075 -9.03502e-21 0.00480076 0.0324942
0.00375 0 0.00865601 0.0328111
-0.00375 -1.0842e-19 0.00865601 0.0334199
-0.00875 0 0.00356872 0.0338089
0.00875 -1.0842e-19 0.00356872 0.032388
0.00984798 2.71051e-20 0 0.0322864
-0.00984799 0 0 0.0338866
0.00984798 0 0.000142209 0.0322864
-0.00984799 0 0.000142213 0.0338866
3.21115e-10 0 0.0099455 0.033118
0.00999999 0 0 0.0322732
-0.01 2.71051e-20 0 0.0338982
0.010152 0 0 0.0322599
-0.010152 0 0 0.0339096
0.010152 0 0.000142209 0.0322599
-0.010152 0 0.000142213 0.0339096
-0.0025 0 0.0099455 0.0333192
0.0025 9.03502e-21 0.0099455 0.0329134
-0.01 9.03502e-21 0.00234132 0.0339009
0.01 -4.51751e-21 0.00234132 0.0322762
0.0075 -4.51751e-21 0.00736599 0.0324938
-0.0075 0 0.00736599 0.0337117
0.00875 -1.0842e-19 0.00608215 0.0323865
-0.00875 0 0.00608215 0.0338076
-0.00625 0 0.008656 0.0336158
0.00625 0 0.008656 0.032601
-0.01 -4.51751e-21 0.00480076 0.033903
0.01 -9.03502e-21 0.00480076 0.0322785
0.005 4.51751e-21 0.0099455 0.0327052
-0.005 4.51751e-21 0.0099455 0.0335169
-0.00125 -1.0842e-19 0.011217 0.0332186
0.00125 2.1684e-19 0.011217 0.0330156
0.01125 1.0842e-19 0.00116943 0.0321643
-0.01125 0 0.00116944 0.0339928
0.01125 1.0842e-19 0.00356873 0.0321704
-0.01125 0 0.00356872 0.0339983
0.00375 0 0.011217 0.0328093
-0.00375 1.0842e-19 0.011217 0.0334179
0.00875 0 0.008656 0.0323872
-0.00875 2.1684e-19 0.008656 0.0338084
-0.012348 -2.71051e-20 0 0.0340747
0.012348 0 0 0.032067
-0.012348 0 0.000142215 0.0340747
0.012348 2.71051e-20 0.000142207 0.032067
0.01 -4.51751e-21 0.00736599 0.0322781
-0.01 0 0.00736599 0.0339027
0.0075 0 0.0099455 0.0324932
-0.0075 0 0.0099455 0.0337112
6.4431e-11 -4.51751e-21 0.0124872 0.0331164
-0.0125 0 0 0.0340861
0.0125 -2.71051e-20 0 0.0320535
0.012652 2.71051e-20 0 0.03204
-0.012652 2.71051e-20 0 0.0340973
0.012652 0 0.000142206 0.03204
-0.012652 2.71051e-20 0.000142215 0.0340973
0.0125 4.51751e-21 0.00234132 0.0320566
-0.0125 4.51751e-21 0.00234132 0.0340887
-0.0025 -4.51751e-21 0.0124872 0.0333175
0.0025 0 0.0124872 0.0329117
0.01125 -1.0842e-19 0.00608215 0.0321689
-0.01125 -1.0842e-19 0.00608215 0.033997
-0.00625 2.1684e-19 0.011217 0.0336139
0.00625 0 0.011217 0.0325992
0.0125 0 0.00480076 0.032059
-0.0125 -4.51751e-21 0.00480076 0.0340908
0.005 0 0.0124872 0.0327035
-0.005 0 0.0124872 0.0335152
0.01375 0 0.00116943 0.0319427
-0.01375 0 0.00116944 0.0341792
-0.00125 0 0.0137433 0.0332171
0.00125 0 0.0137433 0.0330142
-0.01 0 0.0099455 0.0339021
0.01 0 0.0099455 0.0322776
0.01125 2.1684e-19 0.008656 0.0321697
-0.01125 -1.0842e-19 0.00865601 0.0339977
0.01375 1.0842e-19 0.00356873 0.031949
-0.01375 0 0.00356872 0.0341846
-0.00875 2.1684e-19 0.011217 0.0338065
0.00875 2.1684e-19 0.011217 0.0323855
0.00375 0 0.0137433 0.0328078
-0.00375 0 0.0137433 0.0334165
0.0125 0 0.00736599 0.0320586
-0.0125 0 0.00736599 0.0340905
0.0075 4.51751e-21 0.0124872 0.0324916
-0.0075 0 0.0124872 0.0337095
-0.014848 -2.71051e-20 0 0.0342596
0.014848 0 0 0.0318436
-0.014848 -2.71051e-20 0.000142216 0.0342596
0.014848 0 0.000142191 0.0318436
6.19286e-12 0 0.0149986 0.0331141
-0.015 0 0 0.0342708
0.015 -2.71051e-20 0 0.03183
0.01375 1.0842e-19 0.00608215 0.0319475
-0.01375 1.0842e-19 0.00608215 0.0341833
0.00625 2.1684e-19 0.0137433 0.0325978
-0.00625 0 0.0137433 0.0336124
0.015152 0 0 0.0318162
-0.015152 0 0 0.0342819
0.015152 0 0.000142191 0.0318162
-0.015152 0 0.000142217 0.0342819
0.015 1.35525e-20 0.00234132 0.0318331
-0.015 -4.51751e-21 0.00234132 0.0342734
-0.0025 0 0.0149986 0.0333153
0.0025 0 0.0149986 0.0329094
0.015 9.03502e-21 0.00480076 0.0318355
-0.015 1.35525e-20 0.00480076 0.0342755
-0.005 0 0.0149986 0.033513
0.005 0 0.0149986 0.0327012
-0.01125 0 0.011217 0.0339959
0.01125 0 0.011217 0.0321679
0.0125 0 0.0099455 0.032058
-0.0125 0 0.0099455 0.0340899
-0.01 0 0.0124872 0.0339005
0.01 9.03502e-21 0.0124872 0.032276
0.01375 1.0842e-19 0.008656 0.0319482
-0.01375 0 0.00865601 0.0341839
0.01625 1.0842e-19 0.00116944 0.0317171
-0.01625 -1.0842e-19 0.00116944 0.0343623
-0.00875 0 0.0137433 0.0338051
0.00875 0 0.0137433 0.032384
-0.00125 -1.0842e-19 0.0162494 0.0332141
0.00125 1.0842e-19 0.0162494 0.0330111
0.01625 1.0842e-19 0.00356873 0.0317235
-0.01625 1.0842e-19 0.00356872 0.0343677
0.00375 0 0.0162494 0.0328046
-0.00375 0 0.0162494 0.0334136
-0.015 -4.51751e-21 0.00736599 0.0342752
0.015 4.51751e-21 0.00736599 0.031835
0.0075 4.51751e-21 0.0149986 0.0324893
-0.0075 0 0.0149986 0.0337074
-0.017348 0 0 0.0344415
0.017348 0 0 0.0316162
-0.017348 0 0.000142217 0.0344415
0.017348 0 0.00014219 0.0316162
-0.01625 0 0.00608215 0.0343665
0.01625 -1.0842e-19 0.00608215 0.0317219
0.00625 2.1684e-19 0.0162494 0.0325945
-0.00625 0 0.0162494 0.0336096
5.0225e-14 0 0.0175 0.033111
-0.0175 0 0 0.0344524
0.0175 2.71051e-20 0 0.0316023
0.017652 0 0 0.0315883
-0.017652 0 0 0.0344634
0.017652 0 0.00014219 0.0315883
-0.017652 0 0.000142216 0.0344634
-0.0175 -4.51751e-21 0.00234132 0.034455
0.0175 0 0.00234132 0.0316054
0.0125 4.51751e-21 0.0124872 0.0320564
-0.0125 0 0.0124872 0.0340883
-0.0025 0 0.0175 0.0333123
0.0025 0 0.0175 0.0329063
-0.01375 1.0842e-19 0.011217 0.0341821
0.01375 0 0.011217 0.0319464
-0.01125 0 0.0137433 0.0339945
0.01125 0 0.0137433 0.0321664
0.015 4.51751e-21 0.0099455 0.0318345
-0.015 4.51751e-21 0.0099455 0.0342746
-0.01 0 0.0149986 0.0338984
0.01 9.03502e-21 0.0149986 0.0322735
-0.0175 9.03502e-21 0.00480076 0.0344571
0.0175 4.51751e-21 0.00480076 0.0316079
0.005 4.51751e-21 0.0175 0.032698
-0.005 0 0.0175 0.0335101
0.01625 -1.0842e-19 0.008656 0.0317225
-0.01625 1.0842e-19 0.008656 0.034367
0.00875 0 0.0162494 0.0323808
-0.00875 1.0842e-19 0.0162494 0.0338023
-0.01875 0 0.00116944 0.0345425
0.01875 0 0.00116944 0.0314874
0.00125 0 0.01875 0.0330079
-0.00125 1.0842e-19 0.01875 0.033211
-0.0175 -9.03502e-21 0.00736599 0.0344568
0.0175 0 0.00736599 0.0316074
0.0075 4.51751e-21 0.0175 0.032486
-0.0075 0 0.0175 0.0337045
-0.01875 -1.0842e-19 0.00356872 0.0345477
0.01875 1.0842e-19 0.00356873 0.0314939
0.00375 0 0.01875 0.0328014
-0.00375 0 0.01875 0.0334106
0.01375 1.0842e-19 0.0137433 0.0319448
-0.01375 0 0.0137433 0.0341807
0.015 9.03502e-21 0.0124872 0.0318328
-0.015 9.03502e-21 0.0124872 0.034273
0.0125 4.51751e-21 0.0149986 0.0320539
-0.0125 0 0.0149986 0.0340863
-0.01875 1.0842e-19 0.00608215 0.0345465
0.01875 1.0842e-19 0.00608215 0.0314922
0.01625 0 0.011217 0.0317208
-0.01625 -1.0842e-19 0.011217 0.0343652
0.01125 2.1684e-19 0.0162494 0.032163
-0.01125 2.1684e-19 0.0162494 0.0339917
-0.00625 1.0842e-19 0.01875 0.0336066
0.00625 -1.0842e-19 0.01875 0.0325913
-0.019848 0 0 0.0346203
0.019848 0 0 0.0313846
-0.019848 0 0.000142216 0.0346203
0.019848 0 0.00014219 0.0313846
-0.02 2.71051e-20 0 0.0346311
0.02 2.71051e-20 0 0.0313704
-9.82494e-15 0 0.02 0.0331077
-0.0175 4.51751e-21 0.0099455 0.0344562
0.0175 4.51751e-21 0.0099455 0.0316068
-0.02 4.51751e-21 0.00234132 0.0346336
0.02 0 0.00234132 0.0313736
0.020152 -2.71051e-20 0 0.0313561
-0.020152 0 0 0.0346418
0.020152 0 0.00014219 0.0313561
-0.020152 0 0.000142216 0.0346418
0.01 0 0.0175 0.0322702
-0.01 0 0.0175 0.0338956
0.0025 0 0.02 0.0329029
-0.0025 0 0.02 0.0333091
-0.02 9.03502e-21 0.00480076 0.0346357
0.02 0 0.00480076 0.0313761
-0.005 0 0.02 0.033507
0.005 4.51751e-21 0.02 0.0326945
-0.01875 0 0.008656 0.034547
0.01875 1.0842e-19 0.008656 0.0314929
-0.00875 2.1684e-19 0.01875 0.0337993
0.00875 0 0.01875 0.0323773
0.015 9.03502e-21 0.0149986 0.0318303
-0.015 9.03502e-21 0.0149986 0.034271
-0.02125 0 0.00116944 0.0347196
0.02125 1.0842e-19 0.00116944 0.0312533
0.01625 -1.0842e-19 0.0137433 0.0317192
-0.01625 -1.0842e-19 0.0137433 0.0343638
-0.01375 1.0842e-19 0.0162494 0.034178
0.01375 1.0842e-19 0.0162494 0.0319414
0.00125 1.0842e-19 0.02125 0.0330044
-0.00125 -1.0842e-19 0.02125 0.0332076
-0.02 -9.03502e-21 0.00736599 0.0346353
0.02 4.51751e-21 0.00736599 0.0313755
0.0075 4.51751e-21 0.02 0.0324824
-0.0075 0 0.02 0.0337014
0.0175 9.03502e-21 0.0124872 0.0316051
-0.0175 9.03502e-21 0.0124872 0.0344546
0.0125 0 0.0175 0.0320505
-0.0125 0 0.0175 0.0340835
-0.02125 0 0.00356872 0.0347248
0.02125 1.0842e-19 0.00356873 0.03126
0.00375 1.0842e-19 0.02125 0.0327977
-0.00375 0 0.02125 0.0334073
0.01875 1.0842e-19 0.011217 0.031491
-0.01875 2.1684e-19 0.011217 0.0345453
-0.01125 2.1684e-19 0.01875 0.0339888
0.01125 0 0.01875 0.0321595
-0.02125 -1.0842e-19 0.00608215 0.0347236
0.02125 1.0842e-19 0.00608215 0.0312582
-0.00625 1.0842e-19 0.02125 0.0336034
0.00625 -1.0842e-19 0.02125 0.0325875
-0.02 0 0.0099455 0.0346347
0.02 4.51751e-21 0.0099455 0.031375
-0.022348 0 0 0.0347961
0.022348 -2.71051e-20 0 0.0311487
-0.022348 0 0.000142214 0.0347961
0.022348 0 0.00014219 0.0311487
0.01 0 0.02 0.0322665
-0.01 0 0.02 0.0338926
-0.0225 0 0 0.0348068
0.0225 0 0 0.0311343
-9.82514e-15 0 0.0225 0.0331043
-0.0225 4.51751e-21 0.00234132 0.0348093
0.0225 -9.03502e-21 0.00234132 0.0311375
0.0025 0 0.0225 0.0328993
-0.0025 0 0.0225 0.0333058
0.022652 0 0 0.0311197
-0.022652 0 0 0.0348173
0.022652 -2.71051e-20 0.000142189 0.0311197
-0.022652 0 0.000142214 0.0348173
-0.02125 -1.0842e-19 0.008656 0.0347241
0.02125 -1.0842e-19 0.00865601 0.0312589
-0.01625 0 0.0162494 0.0343612
0.01625 -1.0842e-19 0.0162494 0.0317157
0.00875 -1.0842e-19 0.02125 0.0323735
-0.00875 0 0.02125 0.0337962
-0.0225 -1.35525e-20 0.00480076 0.0348113
0.0225 -4.51751e-21 0.00480076 0.03114
0.0175 9.03502e-21 0.0149986 0.0316026
-0.0175 9.03502e-21 0.0149986 0.0344526
0.015 4.51751e-21 0.0175 0.0318268
-0.015 4.51751e-21 0.0175 0.0342682
-0.005 0 0.0225 0.0335037
0.005 4.51751e-21 0.0225 0.0326909
0.01875 -1.0842e-19 0.0137433 0.0314894
-0.01875 0 0.0137433 0.0345439
0.01375 0 0.01875 0.0319378
-0.01375 2.1684e-19 0.01875 0.0341752
-0.02 0 0.0124872 0.0346332
0.02 0 0.0124872 0.0313732
0.0125 0 0.02 0.0320467
-0.0125 0 0.02 0.0340805
-0.0225 -9.03502e-21 0.00736599 0.034811
0.0225 4.51751e-21 0.00736599 0.0311394
0.0075 4.51751e-21 0.0225 0.0324787
-0.0075 0 0.0225 0.0336982
-0.02375 1.0842e-19 0.00116944 0.0348938
0.02375 0 0.00116944 0.0310151
0.00125 2.1684e-19 0.02375 0.0330009
-0.00125 0 0.02375 0.0332042
-0.02375 -2.1684e-19 0.00356872 0.034899
0.02375 0 0.00356873 0.0310218
0.02125 0 0.011217 0.0312571
-0.02125 -1.0842e-19 0.011217 0.0347224
0.01125 1.0842e-19 0.02125 0.0321557
0.00375 0 0.02375 0.0327943
-0.00375 -1.0842e-19 0.02375 0.033404
-0.01125 1.0842e-19 0.02125 0.0339858
-0.02375 2.1684e-19 0.00608215 0.0348978
0.02375 1.0842e-19 0.00608215 0.03102
-0.00625 0 0.02375 0.0336002
0.00625 -1.0842e-19 0.02375 0.0325839
-0.0225 4.51751e-21 0.0099455 0.0348104
0.0225 4.51751e-21 0.0099455 0.0311389
0.01 0 0.0225 0.0322628
-0.01 0 0.0225 0.0338894
0.0175 4.51751e-21 0.0175 0.031599
-0.0175 4.51751e-21 0.0175 0.0344498
0.01875 2.1684e-19 0.0162494 0.0314859
-0.01875 0 0.0162494 0.0345413
-0.01625 0 0.01875 0.0343584
0.01625 -1.0842e-19 0.01875 0.0317121
-0.024848 2.71051e-20 0 0.0349691
0.024848 0 0 0.0309084
-0.024848 2.71051e-20 0.000142213 0.0349691
0.024848 0 0.000142189 0.0309084
-0.02 0 0.0149986 0.0346312
0.02 0 0.0149986 0.0313706
0.015 0 0.02 0.0318229
-0.015 4.51751e-21 0.02 0.0342653
-0.025 2.71051e-20 0 0.0349796
0.025 2.71051e-20 0 0.0308937
-9.82504e-15 0 0.025 0.033101
-0.025 -9.03502e-21 0.00234132 0.034982
0.025 -1.35525e-20 0.00234132 0.0308971
0.0025 0 0.025 0.032896
-0.0025 0 0.025 0.0333026
0.025152 0 0 0.0308789
-0.025152 0 0 0.0349899
0.025152 0 0.000142189 0.0308789
-0.025152 0 0.000142213 0.0349899
-0.02375 0 0.008656 0.0348984
0.02375 1.0842e-19 0.00865601 0.0310206
0.02125 0 0.0137433 0.0312554
-0.02125 2.1684e-19 0.0137433 0.034721
-0.00875 0 0.02375 0.033793
0.00875 1.0842e-19 0.02375 0.0323699
0.01375 0 0.02125 0.0319338
-0.01375 -1.0842e-19 0.02125 0.0341722
-0.025 -9.03502e-21 0.00480076 0.034984
0.025 0 0.00480076 0.0308996
-0.005 0 0.025 0.0335006
0.005 4.51751e-21 0.025 0.0326874
0.0225 0 0.0124872 0.0311371
-0.0225 9.03502e-21 0.0124872 0.0348088
-0.0125 0 0.0225 0.0340775
0.0125 0 0.0225 0.0320429
-0.025 0 0.00736599 0.0349837
0.025 9.03502e-21 0.00736599 0.030899
0.0075 4.51751e-21 0.025 0.0324751
-0.0075 0 0.025 0.0336951
0.02375 0 0.011217 0.0310188
-0.02375 0 0.011217 0.0348966
0.02625 1.0842e-19 0.00116944 0.0307723
-0.02625 1.0842e-19 0.00116944 0.0350652
0.00125 0 0.02625 0.0329977
-0.01125 2.1684e-19 0.02375 0.0339827
0.01125 2.1684e-19 0.02375 0.032152
-0.00125 0 0.02625 0.0332011
-0.02625 1.0842e-19 0.00356872 0.0350702
0.02625 0 0.00356873 0.0307792
-0.01875 1.0842e-19 0.01875 0.0345385
0.00375 1.0842e-19 0.02625 0.0327909
0.01875 1.0842e-19 0.01875 0.0314821
-0.00375 -1.0842e-19 0.02625 0.033401
-0.02 0 0.0175 0.0346285
0.02 0 0.0175 0.0313669
0.0175 0 0.02 0.031595
-0.0175 4.51751e-21 0.02 0.034447
0.02125 2.1684e-19 0.0162494 0.0312518
-0.02125 -1.0842e-19 0.0162494 0.0347184
0.01625 0 0.02125 0.031708
-0.01625 -1.0842e-19 0.02125 0.0343554
-0.025 4.51751e-21 0.0099455 0.0349831
0.025 0 0.0099455 0.0308984
0.01 0 0.025 0.0322591
-0.01 0 0.025 0.0338864
-0.02625 -1.0842e-19 0.00608215 0.0350691
0.02625 -1.0842e-19 0.00608215 0.0307773
0.00625 0 0.02625 0.0325805
-0.00625 0 0.02625 0.0335972
0.0225 0 0.0149986 0.0311344
-0.0225 4.51751e-21 0.0149986 0.0348068
0.015 0 0.0225 0.0318189
-0.015 4.51751e-21 0.0225 0.0342623
-0.027348 0 0 0.0351392
0.027348 -2.71051e-20 0 0.0306636
-0.027348 -2.71051e-20 0.000142212 0.0351392
0.027348 0 0.000142188 0.0306636
0.02375 -1.0842e-19 0.0137433 0.0310171
-0.02375 0 0.0137433 0.0348952
-0.01375 0 0.02375 0.0341691
0.01375 -1.0842e-19 0.02375 0.03193
0.0275 2.71051e-20 0 0.0306487
-0.0275 2.71051e-20 0 0.0351495
9.49036e-16 -4.51751e-21 0.0275 0.0330978
-0.0275 9.03502e-21 0.00234132 0.035152
0.0275 -4.51751e-21 0.00234132 0.0306521
0.0025 0 0.0275 0.0328927
-0.0025 -4.51751e-21 0.0275 0.0332995
-0.02625 2.1684e-19 0.00865601 0.0350697
0.02625 0 0.00865601 0.030778
0.027652 0 0 0.0306336
-0.027652 0 0 0.0351597
0.027652 0 0.000142188 0.0306336
-0.027652 0 0.000142212 0.0351597
0.00875 0 0.02625 0.0323662
-0.00875 0 0.02625 0.0337902
-0.0275 0 0.00480076 0.0351539
0.0275 4.51751e-21 0.00480076 0.0306546
0.025 0 0.0124872 0.0308966
-0.025 1.35525e-20 0.0124872 0.0349815
0.0125 0 0.025 0.0320391
-0.0125 0 0.025 0.0340745
0.005 0 0.0275 0.0326841
-0.005 0 0.0275 0.0334977
0.02 4.51751e-21 0.02 0.0313629
-0.02 0 0.02 0.0346257
0.01875 2.1684e-19 0.02125 0.0314779
0.02125 2.1684e-19 0.01875 0.0312479
-0.01875 0 0.02125 0.0345356
-0.02125 1.0842e-19 0.01875 0.0347157
-0.0275 0 0.00736599 0.0351536
0.0275 1.807e-20 0.00736599 0.030654
0.0225 0 0.0175 0.0311306
-0.0225 0 0.0175 0.0348042
0.0175 0 0.0225 0.031591
-0.0175 4.51751e-21 0.0225 0.0344441
0.0075 4.51751e-21 0.0275 0.0324717
-0.0075 0 0.0275 0.0336923
0.02625 1.0842e-19 0.011217 0.0307761
-0.02625 1.0842e-19 0.011217 0.0350679
-0.01125 -1.0842e-19 0.02625 0.0339798
0.01125 0 0.02625 0.0321482
-0.02875 0 0.00116944 0.0352337
0.02875 1.0842e-19 0.00116944 0.030525
0.02375 1.0842e-19 0.0162494 0.0310134
-0.02375 1.0842e-19 0.0162494 0.0348926
-0.01625 0 0.02375 0.0343525
0.01625 -1.0842e-19 0.02375 0.031704
0.00125 0 0.0287506 0.0329945
-0.00125 0 0.0287506 0.0331979
-0.02875 1.0842e-19 0.00356873 0.0352387
0.02875 1.0842e-19 0.00356873 0.030532
0.00375 0 0.0287506 0.0327877
-0.00375 -1.0842e-19 0.0287506 0.033398
0.025 0 0.0149986 0.0308938
-0.025 9.03502e-21 0.0149986 0.0349796
0.015 0 0.025 0.031815
-0.015 0 0.025 0.0342594
-0.0275 0 0.0099455 0.035153
0.0275 4.51751e-21 0.0099455 0.0306534
0.01 4.51751e-21 0.0275 0.0322555
-0.01 0 0.0275 0.0338836
-0.02875 0 0.00608215 0.0352376
0.02875 1.0842e-19 0.00608215 0.03053
-0.00625 2.1684e-19 0.0287506 0.0335944
0.00625 1.0842e-19 0.0287506 0.0325772
-0.02625 0 0.0137433 0.0350665
0.02625 0 0.0137433 0.0307743
-0.01375 2.1684e-19 0.02625 0.0341663
0.01375 0 0.02625 0.0319261
-0.029848 2.71051e-20 0 0.0353066
0.029848 0 0 0.0304142
-0.029848 0 0.00014221 0.0353066
0.029848 0 0.000142187 0.0304142
-0.03 0 0 0.0353167
0.03 -2.71051e-20 0 0.030399
1.69661e-12 -4.51751e-21 0.0300014 0.0330948
-0.02875 0 0.00865601 0.0352381
0.02875 0 0.00865601 0.0305306
-0.02125 1.0842e-19 0.02125 0.0347128
0.02125 -1.0842e-19 0.02125 0.0312437
0.00875 -1.0842e-19 0.0287506 0.0323629
-0.00875 -1.0842e-19 0.0287506 0.0337874
-0.03 -4.51751e-21 0.00234132 0.0353191
0.03 0 0.00234132 0.0304024
-0.02 0 0.0225 0.0346228
-0.0225 0 0.02 0.0348015
0.0225 4.51751e-21 0.02 0.0311265
0.02 4.51751e-21 0.0225 0.0313587
0.0025 0 0.0300014 0.0328897
-0.0025 -4.51751e-21 0.0300014 0.0332966
0.030152 0 0 0.0303836
-0.030152 0 0 0.0353268
0.030152 0 0.000142187 0.0303836
-0.030152 0 0.000142209 0.0353268
-0.0275 4.51751e-21 0.0124872 0.0351515
0.0275 4.51751e-21 0.0124872 0.0306515
0.0125 0 0.0275 0.0320354
-0.0125 0 0.0275 0.0340717
0.01875 0 0.02375 0.0314739
-0.01875 2.1684e-19 0.02375 0.0345327
-0.02375 1.0842e-19 0.01875 0.03489
0.02375 -1.0842e-19 0.01875 0.0310094
-0.03 0 0.00480076 0.0353211
0.03 0 0.00480076 0.030405
0.005 0 0.0300014 0.032681
-0.005 0 0.0300014 0.0334949
0.025 0 0.0175 0.0308899
-0.025 0 0.0175 0.034977
0.0175 0 0.025 0.0315869
-0.0175 0 0.025 0.0344413
-0.02875 0 0.011217 0.0352363
0.02875 -1.0842e-19 0.011217 0.0305288
-0.02625 1.0842e-19 0.0162494 0.035064
0.02625 0 0.0162494 0.0307705
-0.01625 0 0.02625 0.0343497
0.01625 -2.1684e-19 0.02625 0.0317
0.01125 0 0.0287506 0.0321448
-0.01125 0 0.0287506 0.0339771
-0.03 4.51751e-21 0.00736599 0.0353208
0.03 9.03502e-21 0.00736599 0.0304043
0.0075 4.51751e-21 0.0300014 0.0324686
-0.0075 0 0.0300014 0.0336896
-0.03125 1.0842e-19 0.00116944 0.0353996
0.03125 1.0842e-19 0.00116943 0.0302729
0.00125 2.1684e-19 0.0312567 0.0329917
-0.00125 -1.0842e-19 0.0312567 0.0331952
0.0275 0 0.0149986 0.0306487
-0.0275 4.51751e-21 0.0149986 0.0351496
0.015 0 0.0275 0.0318113
-0.015 0 0.0275 0.0342567
-0.03125 -1.0842e-19 0.00356873 0.0354045
0.03125 0 0.00356873 0.03028
0.00375 0 0.0312567 0.0327848
-0.00375 0 0.0312567 0.0333953
-0.03 9.03502e-21 0.0099455 0.0353201
0.03 4.51751e-21 0.0099455 0.0304037
0.01 9.03502e-21 0.0300014 0.0322523
-0.01 0 0.0300014 0.033881
0.0225 4.51751e-21 0.0225 0.0311222
-0.0225 0 0.0225 0.0347986
-0.03125 0 0.00608215 0.0354033
0.03125 1.0842e-19 0.00608215 0.0302781
-0.02875 0 0.0137433 0.0352351
0.02875 0 0.0137433 0.0305269
0.02125 2.1684e-19 0.02375 0.0312394
0.02375 1.0842e-19 0.02125 0.0310051
-0.02125 2.1684e-19 0.02375 0.03471
-0.02375 0 0.02125 0.0348872
-0.01375 -1.0842e-19 0.0287506 0.0341637
0.01375 -1.0842e-19 0.0287506 0.0319227
0.00625 0 0.0312567 0.0325742
-0.00625 0 0.0312567 0.0335918
-0.02 0 0.025 0.0346201
0.02 0 0.025 0.0313546
0.025 0 0.02 0.0308857
-0.025 0 0.02 0.0349743
-0.01875 0 0.02625 0.03453
0.02625 -1.0842e-19 0.01875 0.0307664
-0.02625 1.0842e-19 0.01875 0.0350614
0.01875 0 0.02625 0.0314698
-0.032348 0 0 0.0354713
0.032348 0 0 0.03016
-0.032348 2.71051e-20 0.000142207 0.0354713
0.032348 0 0.0001422 0.03016
-0.03125 -1.0842e-19 0.00865601 0.0354039
0.03125 -1.0842e-19 0.00865601 0.0302786
0.00875 0 0.0312567 0.0323598
-0.00875 1.0842e-19 0.0312567 0.0337848
-0.03 9.03502e-21 0.0124872 0.0353186
0.03 9.03502e-21 0.0124872 0.0304019
-0.0325 -2.71051e-20 0 0.0354812
0.0325 0 0 0.0301445
0.0125 9.03502e-21 0.0300014 0.0320321
-0.0125 4.51751e-21 0.0300014 0.0340692
1.93201e-11 0 0.0325128 0.0330923
-0.0325 -9.03502e-21 0.00234132 0.0354836
0.0325 9.03502e-21 0.00234132 0.030148
0.0275 0 0.0175 0.0306447
-0.0275 0 0.0175 0.035147
0.0175 0 0.0275 0.0315831
-0.0175 0 0.0275 0.0344386
0.0025 0 0.0325128 0.032887
-0.0025 0 0.0325128 0.0332941
0.032652 0 0 0.0301289
-0.032652 0 0 0.0354911
0.032652 0 0.0001422 0.0301289
-0.032652 2.71051e-20 0.000142207 0.0354911
-0.0325 4.51751e-21 0.00480076 0.0354855
0.0325 0 0.00480076 0.0301507
0.005 0 0.0325128 0.0326782
-0.005 0 0.0325128 0.0334923
-0.02875 0 0.0162494 0.0352326
0.02875 1.0842e-19 0.0162494 0.0305231
0.01625 -1.0842e-19 0.0287506 0.0316964
-0.01625 1.0842e-19 0.0287506 0.0343471
0.03125 -1.0842e-19 0.011217 0.0302769
-0.03125 -2.1684e-19 0.011217 0.0354021
-0.01125 1.0842e-19 0.0312567 0.0339747
0.01125 -1.0842e-19 0.0312567 0.0321415
-0.0325 9.03502e-21 0.00736599 0.0354852
0.0325 4.51751e-21 0.00736599 0.0301499
-0.0075 0 0.0325128 0.0336871
0.0075 0 0.0325128 0.0324657
0.03 4.51751e-21 0.0149986 0.030399
-0.03 4.51751e-21 0.0149986 0.0353167
0.015 9.03502e-21 0.0300014 0.0318079
-0.015 9.03502e-21 0.0300014 0.0342542
0.02375 1.0842e-19 0.02375 0.0310007
-0.02375 -2.1684e-19 0.02375 0.0348845
0.0225 0 0.025 0.0311179
0.025 0 0.0225 0.0308813
-0.0225 0 0.025 0.0347959
-0.025 0 0.0225 0.0349716
-0.03375 1.0842e-19 0.00116943 0.0355628
0.03375 1.0842e-19 0.00116943 0.030016
0.02125 0 0.02625 0.0312353
0.02625 0 0.02125 0.030762
-0.02125 0 0.02625 0.0347073
-0.02625 1.0842e-19 0.02125 0.0350586
0.00125 2.1684e-19 0.0337829 0.0329893
-0.00125 0 0.033783 0.0331929
0.03375 -1.0842e-19 0.00356873 0.0300232
-0.03375 1.0842e-19 0.00356873 0.0355677
-0.0325 1.807e-20 0.0099455 0.0354846
0.0325 4.51751e-21 0.0099455 0.0301493
0.00375 1.0842e-19 0.0337829 0.0327823
-0.00375 0 0.0337829 0.0333929
0.0275 0 0.02 0.0306404
-0.0275 0 0.02 0.0351443
0.02 0 0.0275 0.0313507
-0.02 0 0.0275 0.0346175
0.01 4.51751e-21 0.0325128 0.0322493
-0.01 0 0.0325128 0.0338786
0.03125 -1.0842e-19 0.0137433 0.0302749
-0.03125 -1.0842e-19 0.0137433 0.0354008
0.01375 -1.0842e-19 0.0312567 0.0319193
-0.01375 -1.0842e-19 0.0312567 0.0341613
0.03375 0 0.00608215 0.0300213
-0.03375 0 0.00608215 0.0355665
0.02875 1.0842e-19 0.01875 0.0305189
-0.02875 1.0842e-19 0.01875 0.03523
0.01875 0 0.0287506 0.0314661
-0.01875 0 0.0287506 0.0345275
0.00625 0 0.0337829 0.0325716
-0.00625 0 0.0337829 0.0335894
-0.03 0 0.0175 0.0353142
0.03 4.51751e-21 0.0175 0.0303949
0.0175 4.51751e-21 0.0300014 0.0315795
-0.0175 4.51751e-21 0.0300014 0.0344362
0.0325 1.35525e-20 0.0124872 0.0301474
-0.0325 1.807e-20 0.0124872 0.035483
0.0125 9.03502e-21 0.0325128 0.032029
-0.0125 4.51751e-21 0.0325128 0.0340669
-0.03375 0 0.00865601 0.0355671
0.03375 0 0.00865601 0.0300217
-0.034848 0 0 0.0356333
0.034848 0 0 0.029901
-0.034848 -2.71051e-20 0.000142206 0.0356333
0.034848 0 0.000142202 0.029901
0.00875 1.0842e-19 0.0337829 0.0323572
-0.00875 1.0842e-19 0.0337829 0.0337825
-0.035 0 0 0.0356431
0.035 0 0 0.0298852
1.06827e-10 0 0.0350545 0.0330901
-0.035 -4.51751e-21 0.00234132 0.0356454
0.035 1.35525e-20 0.00234132 0.0298888
0.0025 0 0.0350545 0.0328847
-0.0025 0 0.0350545 0.0332919
0.035152 0 0 0.0298693
-0.035152 0 0 0.0356528
0.035152 0 0.000142203 0.0298693
-0.035152 -2.71051e-20 0.000142206 0.0356528
0.03125 2.1684e-19 0.0162494 0.0302709
-0.03125 0 0.0162494 0.0353984
-0.01625 -1.0842e-19 0.0312567 0.0343448
0.01625 -1.0842e-19 0.0312567 0.031693
-0.035 0 0.00480076 0.0356473
0.035 -4.51751e-21 0.00480076 0.0298914
0.025 0 0.025 0.0308769
-0.025 0 0.025 0.0349689
0.02375 1.0842e-19 0.02625 0.0309964
0.02625 2.1684e-19 0.02375 0.0307575
-0.02625 1.0842e-19 0.02375 0.035056
-0.02375 0 0.02625 0.0348818
0.005 0 0.0350545 0.0326758
-0.005 0 0.0350545 0.0334902
0.0275 0 0.0225 0.0306358
-0.0275 0 0.0225 0.0351416
0.0225 0 0.0275 0.0311139
-0.0225 0 0.0275 0.0347934
-0.03375 -1.0842e-19 0.011217 0.0355652
0.03375 -1.0842e-19 0.011217 0.0300199
0.01125 0 0.0337829 0.0321388
-0.01125 1.0842e-19 0.0337829 0.0339724
0.02875 1.0842e-19 0.02125 0.0305142
-0.02875 1.0842e-19 0.02125 0.0352272
0.02125 -1.0842e-19 0.0287506 0.0312315
-0.02125 0 0.0287506 0.0347049
-0.035 4.51751e-21 0.00736599 0.035647
0.035 4.51751e-21 0.00736599 0.0298907
0.0325 9.03502e-21 0.0149986 0.0301444
-0.0325 9.03502e-21 0.0149986 0.0354812
0.015 1.35525e-20 0.0325128 0.0318048
-0.015 1.35525e-20 0.0325128 0.034252
0.0075 0 0.0350545 0.0324632
-0.0075 0 0.0350545 0.0336851
0.03 4.51751e-21 0.02 0.0303904
-0.03 0 0.02 0.0353115
0.02 0 0.0300014 0.031347
-0.02 0 0.0300014 0.0346151
0.03625 0 0.00116943 0.0297543
-0.03625 -2.1684e-19 0.00116944 0.0357233
0.00125 0 0.036344 0.0329872
-0.00125 2.1684e-19 0.036344 0.0331908
-0.035 9.03502e-21 0.0099455 0.0356464
0.035 4.51751e-21 0.0099455 0.0298899
0.03625 1.0842e-19 0.00356873 0.0297615
-0.03625 0 0.00356873 0.0357281
-0.03375 -1.0842e-19 0.0137433 0.035564
0.03375 -1.0842e-19 0.0137433 0.0300179
0.03125 -1.0842e-19 0.01875 0.0302666
-0.03125 1.0842e-19 0.01875 0.0353959
0.01875 0 0.0312567 0.0314626
-0.01875 -1.0842e-19 0.0312567 0.0345253
0.01 0 0.0350545 0.0322468
-0.01 0 0.0350545 0.0338766
-0.01375 2.1684e-19 0.0337829 0.0341591
0.01375 0 0.033783 0.0319165
0.00375 1.0842e-19 0.036344 0.0327801
-0.00375 1.0842e-19 0.036344 0.033391
-0.03625 -1.0842e-19 0.00608215 0.0357269
0.03625 1.0842e-19 0.00608215 0.0297596
0.00625 0 0.036344 0.0325693
-0.00625 1.0842e-19 0.036344 0.0335876
0.0325 4.51751e-21 0.0175 0.0301402
-0.0325 0 0.0175 0.0354787
0.0175 9.03502e-21 0.0325128 0.0315763
-0.0175 9.03502e-21 0.0325128 0.034434
0.02625 0 0.02625 0.0307531
-0.02625 -1.0842e-19 0.02625 0.0350534
0.035 9.03502e-21 0.0124872 0.029888
-0.035 9.03502e-21 0.0124872 0.0356448
0.0275 0 0.025 0.0306313
-0.0275 0 0.025 0.0351391
0.025 0 0.0275 0.0308728
-0.025 0 0.0275 0.0349664
0.0125 0 0.0350545 0.0320264
-0.0125 0 0.0350545 0.0340649
-0.03625 -1.0842e-19 0.00865601 0.0357275
0.03625 -1.0842e-19 0.00865601 0.0297599
0.02875 0 0.02375 0.0305097
-0.02875 1.0842e-19 0.02375 0.0352247
-0.02375 1.0842e-19 0.0287506 0.0348794
0.02375 0 0.0287506 0.0309925
0.037348 0 0 0.0296371
-0.037348 0 0 0.0357927
0.037348 0 0.000142205 0.0296371
-0.037348 0 0.000142193 0.0357927
0.00875 0 0.036344 0.0323548
-0.00875 0 0.036344 0.0337808
-0.03375 2.1684e-19 0.0162494 0.0355615
0.03375 1.0842e-19 0.0162494 0.0300138
0.01625 0 0.0337829 0.0316901
-0.01625 -1.0842e-19 0.0337829 0.0343426
-0.03 4.51751e-21 0.0225 0.0353089
-0.0375 0 0 0.0358023
0.0375 0 0 0.0296209
0.03 0 0.0225 0.0303857
0.0225 0 0.0300014 0.0311101
-0.0225 4.51751e-21 0.0300014 0.034791
-0.0375 9.03502e-21 0.00234132 0.0358047
0.0375 0 0.00234132 0.0296245
3.80033e-10 4.51751e-21 0.037634 0.0330884
-0.037652 0 0 0.0358119
0.037652 -2.71051e-20 0 0.0296047
-0.037652 0 0.000142193 0.0358119
0.037652 -2.71051e-20 0.000142205 0.0296047
0.0025 4.51751e-21 0.037634 0.032883
-0.0025 0 0.037634 0.0332904
-0.03125 2.1684e-19 0.02125 0.0353931
0.03125 2.1684e-19 0.02125 0.0302618
0.02125 0 0.0312567 0.0312278
-0.02125 0 0.0312567 0.0347027
-0.0375 -4.51751e-21 0.00480076 0.0358065
0.0375 4.51751e-21 0.00480076 0.0296273
0.03625 0 0.011217 0.0297579
-0.03625 0 0.011217 0.0357257
0.005 0 0.037634 0.0326741
-0.005 4.51751e-21 0.037634 0.0334888
0.01125 0 0.036344 0.0321364
-0.01125 2.1684e-19 0.036344 0.0339707
0.035 4.51751e-21 0.0149986 0.0298849
-0.035 4.51751e-21 0.0149986 0.035643
0.015 4.51751e-21 0.0350545 0.031802
-0.015 4.51751e-21 0.0350545 0.0342501
-0.0325 0 0.02 0.0354761
0.0325 4.51751e-21 0.02 0.0301355
0.02 0 0.0325128 0.0313437
-0.02 0 0.0325128 0.0346129
-0.0375 9.03502e-21 0.00736599 0.0358062
0.0375 4.51751e-21 0.00736599 0.0296264
0.0075 9.03502e-21 0.037634 0.0324614
-0.0075 9.03502e-21 0.037634 0.0336837
-0.03375 -1.0842e-19 0.01875 0.0355591
0.03375 0 0.01875 0.0300094
-0.01875 0 0.0337829 0.0345231
0.01875 0 0.0337829 0.0314596
0.03875 -1.0842e-19 0.00116943 0.0294875
-0.03875 0 0.00116943 0.0358813
0.03625 0 0.0137433 0.0297561
-0.03625 0 0.0137433 0.0357244
-0.0375 0 0.0099455 0.0358056
0.0375 4.51751e-21 0.0099455 0.0296256
0.01375 0 0.036344 0.031914
-0.01375 1.0842e-19 0.036344 0.0341575