# U  POINT_DATA 28084
# x  y  z  U_x  U_y  U_z
0 0.000152009 5.5926e-11 2.74476e-09 -1.86508e-09 3.08356e-12
-6.46235e-27 -0.000334729 0 0 0 0
0 -0.00109799 0.00116944 0.0931246 -0.0628124 0.000103574
1.0842e-19 0.001402 0.00116944 0.0927136 -0.0633845 0.00010389
0 0.000152004 0.00233887 0.115596 -0.0784106 0.000192466
-5.16988e-26 -0.00234799 2.31322e-10 1.10989e-08 -7.4348e-09 1.22229e-11
0 -0.00234799 0.000212484 0.0105505 -0.00706231 1.73513e-05
0 0.00265199 2.30541e-10 1.1581e-08 -7.97186e-09 1.31046e-11
7.02041e-20 -0.002348 0.00233887 0.116133 -0.0777369 0.000190991
0 0.002652 0.00233887 0.115047 -0.0790827 0.000193962
-1.0842e-19 -0.001098 0.00356872 0.138974 -0.0935799 0.00028129
0 -0.003598 0.00116943 0.0935259 -0.0622398 0.000103215
0 0.001402 0.00356873 0.138297 -0.0943554 0.000283951
0 0.003902 0.00116944 0.0922926 -0.0639558 0.000104187
0 0.000152002 0.00479858 0.148379 -0.0982041 0.000426308
2.06795e-25 -0.00484801 1.64597e-09 8.59049e-08 -5.68036e-08 9.38938e-11
2.06795e-25 -0.00484801 0.000833964 0.0415961 -0.0274777 6.75798e-05
-2.1684e-19 -0.003598 0.00356872 0.139636 -0.092802 0.000278688
1.03398e-25 0.00515199 6.60558e-10 3.30299e-08 -2.30452e-08 3.76542e-11
0 -0.0051546 0 0 0 0
1.0842e-19 0.003902 0.00356872 0.137605 -0.0951283 0.000286697
-9.99668e-20 -0.002348 0.00479858 0.149096 -0.0974187 0.000421535
-1.36721e-20 -0.004848 0.00233887 0.116657 -0.0770618 0.000189529
0 0.002652 0.00479858 0.147646 -0.0989863 0.000431234
0 0.005152 0.00233887 0.114485 -0.0797529 0.00019549
0 -0.001098 0.00608215 0.158649 -0.102105 0.000568545
-2.1684e-19 -0.006098 0.00116943 0.0939178 -0.061667 0.000102826
0 0.001402 0.00608215 0.157876 -0.102898 0.000575599
0 0.006402 0.00116943 0.0918618 -0.064526 0.000104462
-1.35479e-19 -0.004848 0.00479858 0.149798 -0.0966305 0.000416903
0 0.005152 0.00479858 0.146899 -0.099765 0.000436337
1.0842e-19 -0.006098 0.00356873 0.140283 -0.092022 0.000276157
0 -0.003598 0.00608215 0.159407 -0.101309 0.000561709
1.0842e-19 0.003902 0.00608215 0.157087 -0.103686 0.000582905
0 0.006402 0.00356872 0.136899 -0.095898 0.000289533
0 -0.007348 1.17757e-08 6.30464e-07 -4.1131e-07 6.91703e-10
0 0.000151999 0.00736572 0.1641 -0.103095 0.000668364
-3.30872e-24 0.00765203 1.4035e-08 6.98473e-07 -4.93967e-07 8.02021e-10
0 -0.007348 0.00233887 0.11717 -0.0763857 0.000188112
0 -0.002348 0.00736572 0.164882 -0.102315 0.000659493
2.06795e-25 0.002652 0.00736572 0.163301 -0.103871 0.000677547
0 0.00765201 0.00233888 0.113911 -0.080421 0.000197042
0 -0.006098 0.00608215 0.160148 -0.10051 0.000555087
2.1684e-19 -0.008598 0.00116944 0.0943004 -0.0610941 0.000102448
0 -0.001098 0.008656 0.170351 -0.103307 0.000759339
1.0842e-19 0.001402 0.00865601 0.169543 -0.104072 0.000770322
-4.1359e-25 -0.007348 0.00479858 0.150485 -0.0958399 0.000412433
0 -0.004848 0.00736572 0.16565 -0.101531 0.000650908
0 0.006402 0.00608215 0.156282 -0.10447 0.000590496
1.0842e-19 0.008902 0.00116944 0.091421 -0.065095 0.000104686
-2.06795e-25 0.005152 0.00736572 0.162488 -0.104643 0.000687084
0 0.007652 0.00479858 0.146135 -0.10054 0.000441632
-1.0842e-19 -0.008598 0.00356872 0.140917 -0.0912402 0.000273754
0 -0.003598 0.008656 0.171143 -0.102539 0.000748718
0 0.003902 0.008656 0.16872 -0.104831 0.000781717
1.0842e-19 0.008902 0.00356872 0.136176 -0.0966644 0.000292445
0 -0.00984799 2.28661e-10 1.14119e-08 -7.35011e-09 1.2428e-11
5.16988e-26 0.000152 0.00994629 0.174029 -0.102985 0.000854986
8.27181e-25 -0.009848 0.00233887 0.117671 -0.0757088 0.000186762
-3.30872e-24 0.010152 1.3999e-08 6.933e-07 -4.97002e-07 8.01641e-10
0 -0.002348 0.00994629 0.174834 -0.102234 0.000842217
-5.16988e-26 0.002652 0.00994629 0.173209 -0.103732 0.000868181
0 -0.007348 0.00736572 0.166402 -0.100744 0.00064265
0 0.010152 0.00233888 0.113325 -0.0810866 0.000198617
-1.03398e-25 -0.0104854 0 0 0 0
0 -0.008598 0.00608215 0.160875 -0.0997083 0.000548707
1.0842e-19 -0.006098 0.008656 0.171921 -0.101767 0.000738451
0 0.007652 0.00736572 0.161658 -0.105411 0.000697024
-2.1684e-19 0.006402 0.008656 0.167882 -0.105587 0.000793581
0 0.008902 0.00608215 0.15546 -0.10525 0.000598407
-4.1359e-25 -0.009848 0.00479858 0.151157 -0.095047 0.000408157
5.16988e-26 -0.004848 0.00994629 0.175623 -0.101479 0.000829837
1.0842e-19 -0.011098 0.00116943 0.0946734 -0.0605212 0.000102068
0 0.005152 0.00994629 0.172374 -0.104475 0.000881865
0 0.010152 0.00479858 0.145356 -0.101311 0.000447141
1.0842e-19 -0.001098 0.011217 0.178497 -0.101917 0.000937199
-1.0842e-19 0.001402 0.011217 0.17768 -0.102651 0.000952141
-1.0842e-19 0.011402 0.00116943 0.0909697 -0.0656623 0.000104879
0 -0.011098 0.00356872 0.141536 -0.0904568 0.000271483
2.1684e-19 -0.003598 0.011217 0.179299 -0.101179 0.000922688
0 0.003902 0.011217 0.176849 -0.103381 0.000967579
0 0.011402 0.00356872 0.135439 -0.0974272 0.000295463
0 -0.008598 0.00865601 0.172682 -0.100991 0.000728682
0 -0.009848 0.00736572 0.167138 -0.0999537 0.000634797
-1.03398e-25 -0.012348 6.6811e-10 3.25815e-08 -2.0683e-08 3.47824e-11
0 -0.012348 0.000490448 0.0247776 -0.0157336 3.88913e-05
5.16988e-26 -0.007348 0.00994629 0.176398 -0.100721 0.000817884
1.0842e-19 0.008902 0.008656 0.167027 -0.106337 0.000805981
0 0.000152 0.0124878 0.181275 -0.101157 0.00100901
-1.39051e-20 0.010152 0.00736572 0.160812 -0.106174 0.000707416
0 0.007652 0.00994629 0.171524 -0.105212 0.000896115
0 -0.012348 0.00233887 0.11816 -0.0750313 0.000185467
-1.65436e-24 0.012652 1.29297e-08 6.67482e-07 -4.85043e-07 7.77053e-10
1.0842e-19 -0.011098 0.00608215 0.161586 -0.098904 0.000542601
-1.29247e-26 -0.002348 0.0124878 0.182078 -0.100436 0.000992612
0 0.002652 0.0124878 0.180457 -0.101874 0.00102588
0 -0.006098 0.011217 0.180086 -0.100438 0.000908586
-8.27181e-25 0.012652 0.00233888 0.112725 -0.0817494 0.000200231
1.0842e-19 0.006402 0.011217 0.176003 -0.104106 0.000983597
1.0842e-19 0.011402 0.00608215 0.154622 -0.106025 0.000606674
0 -0.012348 0.00479858 0.151815 -0.0942523 0.00040407
0 -0.004848 0.0124878 0.182866 -0.0997107 0.000976595
0 0.005152 0.0124878 0.179626 -0.102587 0.00104331
-4.1359e-25 0.012652 0.00479858 0.14456 -0.102078 0.000452883
-2.1684e-19 -0.013598 0.00116943 0.0950374 -0.0599487 0.000101673
1.0842e-19 -0.001098 0.0137433 0.184849 -0.099682 0.00106396
2.1684e-19 0.001402 0.0137433 0.184045 -0.100387 0.00108222
1.0842e-19 0.013902 0.00116943 0.0905081 -0.0662278 0.000105042
0 -0.009848 0.00994629 0.177158 -0.0999593 0.000806428
-2.1684e-19 -0.013598 0.00356872 0.142141 -0.0896721 0.000269319
-1.0842e-19 -0.011098 0.00865601 0.173429 -0.100213 0.000719521
1.0842e-19 -0.008598 0.011217 0.180859 -0.0996934 0.000894933
0 -0.003598 0.0137433 0.185639 -0.0989734 0.00104609
-5.16988e-26 0.010152 0.00994629 0.170658 -0.105945 0.000911008
0 0.003902 0.0137433 0.183227 -0.101087 0.00110103
-1.0842e-19 0.011402 0.008656 0.166157 -0.107083 0.000818982
0 0.008902 0.011217 0.175141 -0.104826 0.00100029
1.0842e-19 0.013902 0.00356872 0.134686 -0.098186 0.000298589
0 -0.012348 0.00736572 0.16786 -0.099161 0.000627323
0 -0.007348 0.0124878 0.183641 -0.0989821 0.000961012
2.06795e-25 0.012652 0.00736572 0.159949 -0.106931 0.000718301
0 0.007652 0.0124878 0.17878 -0.103294 0.00106141
0 0.0146569 0 0 0 0
0 -0.014848 4.51806e-09 2.28154e-07 -1.42984e-07 2.41754e-10
-2.1684e-19 -0.013598 0.00608215 0.162283 -0.0980971 0.000536738
-4.1359e-25 -0.014848 0.00182911 0.0927812 -0.058148 0.000144059
0 0.000152 0.0149988 0.187201 -0.0987542 0.00112262
0 -0.014848 0.00233887 0.118638 -0.0743533 0.000184207
1.0842e-19 -0.006098 0.0137433 0.186415 -0.0982608 0.00102852
0 0.015152 3.19293e-09 1.60495e-07 -1.18329e-07 1.85719e-10
1.0842e-19 0.006402 0.0137433 0.182396 -0.101782 0.00112048
0 0.013902 0.00608215 0.153767 -0.106795 0.00061531
0 -0.002348 0.0149988 0.187984 -0.0980628 0.0011034
4.1359e-25 0.015152 0.00133696 0.064086 -0.0471072 0.000115401
0 0.002652 0.0149988 0.186404 -0.0994412 0.00114237
0 0.015152 0.00233887 0.112112 -0.0824092 0.000201882
0 -0.014848 0.00479858 0.152458 -0.0934557 0.000400133
0 -0.004848 0.0149988 0.188754 -0.0973672 0.0010846
2.1684e-19 -0.011098 0.011217 0.181617 -0.0989457 0.000881712
0 -0.012348 0.00994629 0.177903 -0.0991948 0.000795429
8.07794e-28 0.005152 0.0149988 0.185594 -0.100124 0.00116276
0 0.015152 0.00479858 0.143748 -0.10284 0.000458861
0 -0.009848 0.0124878 0.184402 -0.0982503 0.000946034
0 0.011402 0.011217 0.174265 -0.10554 0.00101774
-5.16988e-26 0.012652 0.00994629 0.169777 -0.106672 0.000926612
0 0.010152 0.0124878 0.177919 -0.103997 0.00108027
1.0842e-19 -0.013598 0.008656 0.174161 -0.0994318 0.000710748
2.1684e-19 -0.016098 0.00116943 0.0953923 -0.0593765 0.000101261
2.1684e-19 -0.008598 0.0137433 0.187178 -0.0975449 0.00101152
0 -0.001098 0.0162494 0.190338 -0.0971387 0.00116176
0 0.001402 0.0162494 0.189562 -0.0978127 0.0011824
0 0.008902 0.0137433 0.181551 -0.102472 0.00114069
0 0.013902 0.008656 0.16527 -0.107822 0.000832627
1.0842e-19 0.016402 0.00116943 0.090036 -0.0667911 0.00010518
1.0842e-19 -0.016098 0.00356872 0.142733 -0.0888863 0.000267224
1.03398e-25 -0.014848 0.00736572 0.168567 -0.0983656 0.000620098
-1.0842e-19 -0.003598 0.0162494 0.191102 -0.0964603 0.00114165
0 -0.007348 0.0149988 0.189511 -0.0966677 0.00106627
0 0.003902 0.0162494 0.188774 -0.098482 0.00120369
0 0.016402 0.00356872 0.133916 -0.0989406 0.000301816
0 0.007652 0.0149988 0.184771 -0.100801 0.00118387
0 0.015152 0.00736572 0.15907 -0.107683 0.000729697
0 -0.016098 0.00608215 0.162965 -0.0972879 0.000531062
0 -0.017348 7.40038e-09 3.85626e-07 -2.38346e-07 4.05305e-10
0 -0.006098 0.0162494 0.191853 -0.0957776 0.001122
9.04729e-26 -0.0172029 0.00233887 0.119078 -0.0737145 0.000183034
0 0.006402 0.0162494 0.187972 -0.0991463 0.00122568
-1.0842e-19 0.016402 0.00608215 0.152896 -0.10756 0.000624313
-5.34848e-28 0.000152 0.0174957 0.192486 -0.0961293 0.00119935
-5.52613e-20 -0.017348 0.00233887 0.119105 -0.0736751 0.000182962
5.16988e-26 -0.017348 0.00263528 0.1232 -0.0759626 0.00020867
6.46235e-27 -0.012348 0.0124878 0.185148 -0.0975154 0.000931601
0 -0.013598 0.011217 0.182359 -0.098195 0.000868891
-8.27181e-25 0.017652 5.04984e-09 2.40464e-07 -1.79746e-07 2.80067e-10
-1.57772e-30 -0.002348 0.0175 0.19324 -0.0954679 0.00117843
2.1684e-19 -0.011098 0.0137433 0.187927 -0.0968258 0.000995496
1.26218e-29 0.002652 0.0174954 0.19172 -0.0967862 0.00122091
2.06795e-25 0.017652 0.00202524 0.0965361 -0.071927 0.000176271
0 0.012652 0.0124878 0.177044 -0.104693 0.00109997
4.90094e-20 0.017652 0.00233887 0.111486 -0.0830656 0.000203568
0 0.011402 0.0137433 0.180691 -0.103157 0.00116175
-1.0842e-19 0.013902 0.011217 0.173374 -0.106249 0.00103604
-2.58494e-26 -0.014848 0.00994629 0.178632 -0.0984275 0.000784766
0 -0.009848 0.0149988 0.190256 -0.0959647 0.00104867
0 -0.017348 0.00479858 0.153088 -0.0926576 0.000396296
8.07794e-28 0.010152 0.0149988 0.183934 -0.101473 0.00120582
0 0.015152 0.00994629 0.16888 -0.107393 0.000942974
-9.15079e-29 -0.004848 0.0174955 0.193982 -0.094802 0.00115812
-3.61298e-28 0.005152 0.0174953 0.190941 -0.0974381 0.00124319
0 -0.016098 0.008656 0.174878 -0.0986479 0.000702157
2.20506e-20 0.017652 0.00479858 0.14292 -0.103597 0.00046506
0 -0.008598 0.0162494 0.192592 -0.0950908 0.00110291
1.0842e-19 0.008902 0.0162494 0.187158 -0.0998054 0.00124848
0 0.016402 0.008656 0.164366 -0.108556 0.000846934
-1.0842e-19 -0.018598 0.00116943 0.0957384 -0.058805 0.000100833
0 -0.001098 0.01875 0.195396 -0.0944595 0.00121575
0 0.001402 0.01875 0.194652 -0.0951039 0.00123755
0 -0.017348 0.00736572 0.169258 -0.097568 0.000613018
-1.0842e-19 -0.018598 0.00356872 0.143312 -0.0880996 0.000265151
0 0.018902 0.00116943 0.0895534 -0.0673521 0.000105298
-1.43573e-28 -0.007348 0.0174953 0.194712 -0.0941319 0.00113846
0 -0.003598 0.01875 0.196129 -0.0938105 0.00119465
1.60928e-28 0.007652 0.0174955 0.19015 -0.0980848 0.00126626
0 0.017652 0.00736572 0.158174 -0.108429 0.000741597
-1.0842e-19 0.003902 0.01875 0.193896 -0.0957435 0.00126008
0 0.018902 0.00356872 0.133131 -0.0996905 0.000305125
0 -0.013598 0.0137433 0.188663 -0.0961037 0.000979844
0 -0.014848 0.0124878 0.18588 -0.0967777 0.000917535
0 -0.012348 0.0149988 0.190988 -0.0952583 0.00103181
-1.0842e-19 0.013902 0.0137433 0.179817 -0.103836 0.00118376
0 -0.018598 0.00608215 0.163632 -0.0964769 0.000525509
-2.1684e-19 -0.016098 0.011217 0.183086 -0.0974418 0.000856448
0 0.012652 0.0149988 0.183084 -0.102139 0.00122868
0 0.015152 0.0124878 0.176153 -0.105384 0.0011206
0 -0.011098 0.0162494 0.193319 -0.0944003 0.00108462
-1.0842e-19 -0.006098 0.01875 0.19685 -0.0931572 0.00117426
0 0.006402 0.01875 0.193128 -0.0963779 0.0012834
1.65436e-24 -0.019848 8.29598e-09 4.33839e-07 -2.64597e-07 4.52383e-10
0 0.011402 0.0162494 0.18633 -0.100458 0.00127219
-2.1684e-19 0.018902 0.00608215 0.152007 -0.108319 0.000633654
-2.1684e-19 0.016402 0.011217 0.172466 -0.106951 0.00105521
-1.24278e-20 -0.019848 0.00233887 0.119561 -0.0729969 0.000181707
1.29247e-26 -0.017348 0.00994629 0.179347 -0.0976578 0.000774345
3.28979e-21 0.000152 0.02 0.197403 -0.093428 0.00123597
-3.07656e-28 -0.009848 0.017495 0.195431 -0.0934579 0.00111961
6.45119e-20 -0.002348 0.02 0.198127 -0.0927948 0.00121438
0 0.020152 4.1787e-09 1.91849e-07 -1.45323e-07 2.24851e-10
8.08456e-20 0.002652 0.02 0.196669 -0.0940564 0.00125832
-1.89327e-28 0.010152 0.0174956 0.189347 -0.098726 0.00129021
4.1359e-25 0.020152 0.00178799 0.0847383 -0.064 0.00015693
-2.58494e-26 0.017652 0.00994629 0.167967 -0.108107 0.00096011
0 0.020152 0.00233887 0.110846 -0.0837185 0.00020528
0 -0.019848 0.00443348 0.148635 -0.0890586 0.000361217
-2.58494e-26 -0.019848 0.00479858 0.153703 -0.0918582 0.000392507
-1.0842e-19 -0.018598 0.008656 0.17558 -0.0978617 0.000693651
-9.67102e-20 -0.004848 0.02 0.198838 -0.0921571 0.00119353
-1.0842e-19 -0.008598 0.01875 0.19756 -0.0924996 0.00115475
8.08456e-20 0.005152 0.02 0.195923 -0.0946799 0.00128145
2.06795e-25 0.020152 0.00479858 0.142075 -0.104348 0.000471449
1.0842e-19 0.008902 0.01875 0.192348 -0.097007 0.00130758
-1.0842e-19 0.018902 0.00865601 0.163446 -0.109283 0.000861893
4.1359e-25 0.0208236 0 0 0 0
-4.03897e-28 -0.014848 0.0149988 0.191708 -0.0945488 0.0010155
-1.0842e-19 -0.021098 0.00116943 0.0960757 -0.0582343 0.000100383
0 -0.016098 0.0137433 0.189386 -0.0953786 0.000964507
0 -0.019848 0.00736572 0.169936 -0.0967684 0.000606021
0 -0.013598 0.0162494 0.194035 -0.0937064 0.00106717
1.0842e-19 -0.001098 0.02125 0.20014 -0.0917656 0.00123424
0 0.001402 0.02125 0.199427 -0.092383 0.00125637
8.08456e-20 -0.007348 0.02 0.199539 -0.0915151 0.00117348
0 0.015152 0.0149988 0.18222 -0.102799 0.00125254
1.61559e-27 -0.017348 0.0124878 0.186599 -0.0960373 0.000903818
1.0842e-19 0.013902 0.0162494 0.18549 -0.101106 0.00129688
-1.0842e-19 -0.021098 0.00356872 0.143876 -0.0873123 0.000263056
-1.0842e-19 0.016402 0.0137433 0.178929 -0.104509 0.00120676
2.05104e-28 -0.012348 0.0174939 0.196127 -0.0927854 0.00110145
-9.67102e-20 0.007652 0.02 0.195166 -0.095298 0.00130541
5.84013e-20 -0.012348 0.0175 0.19614 -0.0927794 0.00110162
-2.1684e-19 0.021402 0.00116943 0.0890603 -0.0679106 0.000105405
0 0.020152 0.00736572 0.157261 -0.109169 0.00075397
1.0842e-19 -0.003598 0.02125 0.200842 -0.0911435 0.00121289
-2.61902e-28 0.012652 0.0174953 0.188531 -0.0993615 0.0013151
0 0.003902 0.02125 0.198703 -0.0929954 0.00127928
0 0.017652 0.0124878 0.175248 -0.106068 0.00114217
0 -0.0211569 0.00479858 0.154018 -0.0914392 0.000390526
0 0.021402 0.00356872 0.13233 -0.100435 0.000308491
-1.0842e-19 -0.018598 0.011217 0.183799 -0.0966862 0.000844322
0 -0.011098 0.01875 0.198259 -0.0918381 0.00113623
1.0842e-19 0.011402 0.01875 0.191556 -0.0976304 0.00133268
0 -0.021098 0.00608215 0.164284 -0.0956642 0.000520022
-1.0842e-19 0.018902 0.011217 0.171544 -0.107647 0.00107529
-1.0842e-19 -0.006098 0.02125 0.201533 -0.0905171 0.00119232
0 0.006402 0.02125 0.197968 -0.0936027 0.00130303
0 -0.019848 0.00994629 0.180047 -0.096886 0.000764111
0 0.021402 0.00608215 0.1511 -0.109071 0.000643283
8.08456e-20 -0.009848 0.02 0.200228 -0.090869 0.00115433
0 -0.022348 8.9637e-09 4.70383e-07 -2.83096e-07 4.86553e-10
3.28979e-21 0.010152 0.02 0.194398 -0.0959107 0.00133027
4.7591e-20 -0.022348 0.00233887 0.120006 -0.072319 0.000180423
0 0.020152 0.00994629 0.167037 -0.108816 0.000978008
8.08456e-20 0.000152 0.0225 0.202025 -0.0907537 0.00123675
-3.54881e-20 -0.002348 0.0225 0.202717 -0.0901461 0.00121521
-1.65436e-24 0.022652 1.13766e-08 5.33662e-07 -4.09842e-07 6.3798e-10
8.08456e-20 0.002652 0.0225 0.201322 -0.0913565 0.00125909
0 0.022652 0.00233887 0.110194 -0.0843675 0.00020701
-1.0842e-19 -0.021098 0.008656 0.176267 -0.0970735 0.000685202
-5.63276e-21 -0.022348 0.00479858 0.154304 -0.0910579 0.000388724
-1.0842e-19 -0.016098 0.0162494 0.19474 -0.0930094 0.00105035
1.0842e-19 -0.008598 0.02125 0.202213 -0.0898865 0.0011726
0 -0.017348 0.0149988 0.192416 -0.0938363 0.000999628
-1.40417e-28 -0.014848 0.0174901 0.196816 -0.0921081 0.001084
-1.57772e-30 -0.014848 0.0175 0.196837 -0.0920984 0.00108428
-3.54881e-20 -0.004848 0.0225 0.203399 -0.089534 0.00119446
0 0.008902 0.02125 0.197222 -0.0942046 0.00132764
-3.54881e-20 0.005152 0.0225 0.200608 -0.0919542 0.00128223
2.1684e-19 0.021402 0.008656 0.16251 -0.110004 0.000877468
-1.0842e-19 0.016402 0.0162494 0.184636 -0.101747 0.0013226
-1.0842e-19 -0.018598 0.0137433 0.190096 -0.0946509 0.000949557
-1.10441e-28 0.015152 0.0174946 0.187702 -0.099991 0.00134101
0 0.022652 0.00479858 0.141212 -0.105094 0.000477982
0 -0.013598 0.01875 0.198947 -0.0911732 0.00111845
0 0.017652 0.0149988 0.181343 -0.103453 0.00127743
0 0.013902 0.01875 0.190752 -0.0982477 0.00135876
0 -0.022348 0.00679963 0.167005 -0.0948847 0.000552692
1.0842e-19 0.018902 0.0137433 0.178027 -0.105175 0.00123079
8.07794e-28 -0.019848 0.0124878 0.187303 -0.0952946 0.000890458
1.58401e-19 -0.012348 0.02 0.200907 -0.0902193 0.00113602
0 -0.022348 0.00736572 0.170598 -0.0959673 0.000599078
-1.0842e-19 -0.023598 0.00116943 0.0964048 -0.0576648 9.99065e-05
3.28979e-21 0.012652 0.02 0.193618 -0.0965174 0.00135608
8.08456e-20 -0.007348 0.0225 0.20407 -0.0889177 0.00117453
0 0.020152 0.0124878 0.174329 -0.106746 0.00116471
-9.67102e-20 0.007652 0.0225 0.199884 -0.0925466 0.00130623
1.0842e-19 -0.001098 0.02375 0.204608 -0.0891366 0.00121734
-1.0842e-19 0.001402 0.02375 0.203925 -0.0897297 0.00123908
0 0.022652 0.00736572 0.156331 -0.109903 0.000766758
0 -0.023598 0.00356872 0.144428 -0.0865247 0.000260916
-1.0842e-19 -0.021098 0.011217 0.184497 -0.0959287 0.000832487
0 0.023902 0.00116944 0.0885568 -0.0684663 0.000105508
-1.0842e-19 -0.011098 0.02125 0.202883 -0.089252 0.00115375
0 -0.003598 0.02375 0.20528 -0.0885389 0.0011964
-1.0842e-19 0.003902 0.02375 0.203233 -0.0903178 0.00126162
0 0.011402 0.02125 0.196465 -0.0948007 0.00135318
1.0842e-19 0.021402 0.011217 0.170606 -0.108337 0.00109624
-2.1684e-19 0.023902 0.00356872 0.131511 -0.101175 0.000311885
1.0842e-19 -0.023598 0.00608215 0.164922 -0.0948503 0.000514565
0 -0.0233185 0.00736572 0.170849 -0.0956557 0.000596402
0 -0.022348 0.00994629 0.180732 -0.0961124 0.000754058
1.0842e-19 -0.006098 0.02375 0.205942 -0.0879368 0.00117626
1.58401e-19 -0.009848 0.0225 0.204731 -0.0882974 0.00115543
-1.0842e-19 0.006402 0.02375 0.202529 -0.0909009 0.001285
9.6241e-29 -0.017348 0.0174762 0.197474 -0.0914374 0.00106675
1.97432e-20 -0.017348 0.0175 0.197522 -0.0914143 0.0010674
0 0.023902 0.00608215 0.150176 -0.109818 0.000653119
3.28979e-21 0.010152 0.0225 0.199149 -0.0931335 0.00133111
1.0842e-19 -0.018598 0.0162494 0.195433 -0.0923093 0.00103398
1.0842e-19 -0.016098 0.01875 0.199624 -0.090505 0.00110113
0 0.022652 0.00994629 0.166092 -0.109518 0.000996628
1.65436e-24 -0.024848 1.04578e-08 5.50639e-07 -3.27029e-07 5.64887e-10
-8.67747e-29 0.017652 0.0174937 0.18685 -0.10062 0.00136778
-1.57772e-30 0.017652 0.0175 0.186863 -0.100613 0.00136801
0 -0.019848 0.0149988 0.193112 -0.0931212 0.000984159
-5.99305e-20 -0.014848 0.02 0.201576 -0.0895663 0.00111834
-1.0842e-19 0.016402 0.01875 0.189937 -0.0988587 0.00138589
1.0842e-19 0.018902 0.0162494 0.18377 -0.102382 0.00134941
0 -0.024848 0.00233887 0.12044 -0.0716416 0.000179102
-9.67102e-20 0.000152 0.025 0.206379 -0.0881698 0.00120421
3.28979e-21 0.015152 0.02 0.192826 -0.0971179 0.0013829
3.28979e-21 -0.002348 0.025 0.207042 -0.0875854 0.00118333
-8.07794e-28 0.020152 0.0149988 0.180452 -0.1041 0.00130338
1.0842e-19 -0.023598 0.008656 0.17694 -0.0962836 0.000676818
-9.67102e-20 0.002652 0.025 0.205706 -0.0887495 0.00122588
1.65436e-24 0.025152 1.2557e-08 6.02185e-07 -4.68638e-07 7.24546e-10
1.0842e-19 -0.021098 0.0137433 0.190794 -0.0939209 0.00093504
1.0842e-19 -0.013598 0.02125 0.203542 -0.0886141 0.00113566
1.0842e-19 -0.008598 0.02375 0.206594 -0.0873305 0.00115694
0 0.025152 0.00233887 0.109527 -0.0850125 0.000208739
0 -0.024848 0.00479858 0.154891 -0.090257 0.000384929
1.0842e-19 0.008902 0.02375 0.201816 -0.0914784 0.00130924
-1.0842e-19 0.013902 0.02125 0.195697 -0.0953907 0.0013797
-1.0842e-19 0.023902 0.008656 0.161557 -0.110718 0.000893591
1.0842e-19 0.021402 0.0137433 0.177111 -0.105835 0.00125586
3.28979e-21 -0.004848 0.025 0.207695 -0.0869964 0.00116323
-3.54881e-20 0.005152 0.025 0.205022 -0.0893242 0.00124835
0 -0.022348 0.0124878 0.187994 -0.0945499 0.00087747
2.06795e-25 0.025152 0.00479858 0.140333 -0.105834 0.000484598
1.58401e-19 -0.012348 0.0225 0.205381 -0.0876734 0.00113711
-9.67102e-20 0.012652 0.0225 0.198403 -0.0937144 0.00135694
-6.46235e-27 0.022652 0.0124878 0.173395 -0.107417 0.00118819
4.59463e-20 -0.024848 0.00736572 0.171246 -0.0951648 0.000592186
8.08456e-20 -0.007348 0.025 0.208338 -0.0864032 0.00114391
0 -0.026098 0.00116943 0.0967255 -0.0570965 9.94026e-05
0 -0.023598 0.011217 0.185181 -0.0951694 0.000820957
8.08456e-20 0.007652 0.025 0.204329 -0.0898936 0.00127165
0 0.025152 0.00736572 0.155383 -0.11063 0.000779874
0 -0.011098 0.02375 0.207235 -0.0867205 0.00113844
0 -0.001098 0.02625 0.208818 -0.086621 0.00116982
-1.0842e-19 0.001402 0.02625 0.208165 -0.0871922 0.00119062
0 -0.026098 0.00356872 0.144966 -0.0857371 0.000258727
1.0842e-19 0.011402 0.02375 0.201092 -0.0920502 0.00133439
-1.0842e-19 0.023902 0.011217 0.169653 -0.109019 0.00111804
1.0842e-19 -0.018598 0.01875 0.200291 -0.0898339 0.00108412
1.26218e-29 -0.019848 0.0174442 0.198083 -0.0907808 0.00104937
0 0.026402 0.00116944 0.088043 -0.069019 0.000105602
8.11948e-20 -0.019848 0.0175 0.198197 -0.0907274 0.00105086
3.20767e-20 -0.017348 0.02 0.202234 -0.0889103 0.00110109
1.0842e-19 -0.003598 0.02625 0.209462 -0.0860451 0.00114978
1.0842e-19 0.003902 0.02625 0.207501 -0.0877585 0.0012122
-1.61559e-27 -0.024848 0.0095575 0.179873 -0.0953111 0.000721297
-1.0842e-19 0.018902 0.01875 0.18911 -0.099463 0.00141411
0 -0.021098 0.0162494 0.196115 -0.0916066 0.00101795
-2.1684e-19 0.026402 0.00356872 0.130677 -0.10191 0.000315264
-2.1684e-19 -0.016098 0.02125 0.204191 -0.0879731 0.00111812
8.08456e-20 0.017652 0.02 0.192023 -0.0977119 0.00141078
-4.57539e-29 0.020152 0.0174939 0.185997 -0.101236 0.00139584
0 0.020152 0.0175 0.18601 -0.101229 0.00139607
0 -0.024848 0.00994629 0.181404 -0.0953371 0.000744199
0 -0.026098 0.00608215 0.165546 -0.0940354 0.000509127
-1.0842e-19 0.016402 0.02125 0.194918 -0.0959745 0.00140725
8.08456e-20 -0.009848 0.025 0.208971 -0.0858061 0.00112537
1.0842e-19 0.021402 0.0162494 0.182891 -0.10301 0.00137731
-1.00974e-28 -0.022348 0.0149988 0.193795 -0.0924036 0.000969092
0 -0.006098 0.02625 0.210096 -0.085465 0.00113049
1.01292e-19 -0.014848 0.0225 0.206022 -0.0870462 0.00111943
8.08456e-20 0.010152 0.025 0.203626 -0.0904573 0.00129581
1.0842e-19 0.006402 0.02625 0.206828 -0.0883197 0.00123458
5.16988e-26 0.025152 0.00994629 0.165131 -0.110212 0.0010159
1.0842e-19 0.026402 0.00608215 0.149234 -0.110558 0.000663064
8.08456e-20 0.015152 0.0225 0.197647 -0.0942891 0.00138375
0 0.022652 0.0149988 0.179548 -0.10474 0.00133039
0 -0.023598 0.0137433 0.191478 -0.0931886 0.000920981
0 -0.027348 1.20369e-08 6.3586e-07 -3.72672e-07 6.46847e-10
0 -0.013598 0.02375 0.207867 -0.0861071 0.00112062
5.2784e-20 -0.027348 0.00233887 0.120864 -0.0709651 0.000177747
1.0842e-19 -0.026098 0.00865601 0.177598 -0.0954924 0.000668526
3.28979e-21 0.000152 0.0275 0.210463 -0.0857241 0.00114089
-6.46866e-29 0.000152 0.027515 0.210486 -0.0857107 0.00114033
0 0.013902 0.02375 0.200358 -0.0926159 0.00136048
0 -0.0256961 0.00994629 0.181627 -0.0950736 0.00074093
0 0.023902 0.0137433 0.176181 -0.106488 0.00128194
8.08456e-20 -0.002348 0.0275 0.211098 -0.0851605 0.00112116
0 -0.008598 0.02625 0.210721 -0.0848808 0.00111196
6.45162e-20 0.002652 0.0275 0.209818 -0.086283 0.00116137
-3.15544e-30 -0.002348 0.0275346 0.21115 -0.0851296 0.00111989
9.46633e-30 0.002652 0.0275104 0.209834 -0.0862736 0.00116097
1.65436e-24 0.027652 1.18528e-08 5.6508e-07 -4.45885e-07 6.84525e-10
-1.0842e-19 0.008902 0.02625 0.206145 -0.0888754 0.00125778
-4.1359e-25 0.027652 0.00233887 0.108848 -0.085653 0.000210442
7.78143e-20 -0.027348 0.00479858 0.155466 -0.0894558 0.000381122
-1.0842e-19 0.026402 0.008656 0.160586 -0.111425 0.000910163
0 -0.024848 0.0124878 0.188672 -0.0938033 0.000864871
-9.67102e-20 -0.012348 0.025 0.209594 -0.0852054 0.00110753
-9.67102e-20 -0.004848 0.0275 0.211724 -0.0845924 0.00110215
-9.67102e-20 0.005152 0.0275 0.209164 -0.0868369 0.00118261
-1.41995e-28 0.005152 0.0275096 0.209179 -0.0868281 0.00118224
-9.67102e-20 0.012652 0.025 0.202913 -0.0910152 0.00132088
-1.41995e-29 -0.004848 0.0276314 0.211919 -0.0844761 0.00109744
0 0.027652 0.00479858 0.139436 -0.106568 0.000491212
1.29247e-26 0.025152 0.0124878 0.172445 -0.108081 0.00121257
1.01872e-19 -0.019848 0.02 0.202881 -0.0882514 0.00108414
0 -0.021098 0.01875 0.200946 -0.08916 0.00106738
0 -0.018598 0.02125 0.204829 -0.0873292 0.00110097
-3.90552e-20 -0.027348 0.00736572 0.17188 -0.0943612 0.000585361
-1.57772e-30 -0.022348 0.01746 0.198779 -0.0900756 0.00103358
-1.57772e-30 -0.022348 0.0175 0.19886 -0.0900378 0.00103463
8.08456e-20 0.020152 0.02 0.191209 -0.098299 0.00143976
0 -0.026098 0.011217 0.185852 -0.0944086 0.000809746
8.30758e-20 -0.017348 0.0225 0.206652 -0.086416 0.00110221
1.0842e-19 0.018902 0.02125 0.194129 -0.0965514 0.00143588
0 0.021402 0.01875 0.18827 -0.10006 0.00144343
-9.67087e-20 -0.007348 0.0275 0.21234 -0.0840201 0.00108388
1.0842e-19 -0.011098 0.02625 0.211335 -0.0842928 0.00109413
1.57772e-30 -0.007348 0.0275604 0.212429 -0.0839671 0.00108175
8.08456e-20 0.007652 0.0275 0.2085 -0.0873854 0.00120462
-1.49884e-28 0.007652 0.0275105 0.208517 -0.0873757 0.00120421
8.08456e-20 0.017652 0.0225 0.19688 -0.0948573 0.00141161
0 0.027652 0.00736572 0.154418 -0.111349 0.000793207
-1.0842e-19 0.011402 0.02625 0.205452 -0.0894253 0.00128184
-1.26218e-28 0.022652 0.0174949 0.185143 -0.101839 0.00142519
0 -0.028598 0.00116944 0.0970384 -0.0565299 9.8881e-05
0 -0.023598 0.0162494 0.196786 -0.0909014 0.00100229
2.1684e-19 0.026402 0.011217 0.168684 -0.109695 0.00114062
-1.0842e-19 -0.016098 0.02375 0.208489 -0.0854906 0.00110333
1.0842e-19 -0.001098 0.0287506 0.212748 -0.0842657 0.00109185
-1.0842e-19 0.001402 0.0287506 0.212122 -0.0848172 0.00111125
-1.0842e-19 -0.028598 0.00356873 0.145492 -0.0849498 0.000256494
-1.0842e-19 0.016402 0.02375 0.199614 -0.0931753 0.00138758
0 0.023902 0.0162494 0.181999 -0.10363 0.00140629
1.0842e-19 0.028902 0.00116944 0.0875192 -0.0695686 0.000105689
-1.0842e-19 -0.003598 0.0287506 0.213365 -0.0837097 0.00107316
0 0.003902 0.0287506 0.211486 -0.0853638 0.00113138
0 -0.024848 0.0149988 0.194466 -0.0916839 0.000954454
-9.67102e-20 -0.014848 0.025 0.210208 -0.0846015 0.00109029
-2.74669e-20 -0.027348 0.00994629 0.182061 -0.0945604 0.000734562
0 0.028902 0.00356872 0.129825 -0.102638 0.000318567
3.28979e-21 -0.009848 0.0275 0.212947 -0.0834439 0.0010663
-3.15544e-30 -0.009848 0.0275241 0.212982 -0.0834229 0.00106546
8.08456e-20 0.015152 0.025 0.20219 -0.0915668 0.00134689
0 -0.028598 0.00608215 0.166156 -0.0932199 0.000503711
8.07794e-28 0.025152 0.0149988 0.178629 -0.105373 0.00135843
8.08456e-20 0.010152 0.0275 0.207827 -0.0879284 0.00122745
-3.47099e-29 0.010152 0.0275124 0.207846 -0.0879169 0.00122695
0 0.027652 0.00994629 0.164153 -0.1109 0.00103574
0 -0.006098 0.0287506 0.213973 -0.0831493 0.00105517
0 0.006402 0.0287506 0.210842 -0.0859052 0.00115225
1.0842e-19 -0.026098 0.0137433 0.19215 -0.0924546 0.000907396
-1.0842e-19 0.028902 0.00608215 0.148274 -0.11129 0.000672989
0 -0.013598 0.02625 0.211941 -0.0837014 0.00107695
-1.0842e-19 0.013902 0.02625 0.20475 -0.0899693 0.0013068
0 0.026402 0.0137433 0.175236 -0.107133 0.00130899
0 -0.029848 1.28842e-08 7.15294e-07 -4.13719e-07 7.21523e-10
0 -0.028598 0.008656 0.178243 -0.0946999 0.000660366
-5.67942e-20 -0.029848 0.00233887 0.121277 -0.0702896 0.000176369
-1.0842e-19 -0.021098 0.02125 0.205457 -0.0866825 0.00108411
0 -0.027348 0.0123058 0.188815 -0.0931629 0.000844219
-1.11768e-19 -0.022348 0.02 0.203518 -0.0875898 0.00106747
-2.01948e-28 0.000152 0.0300012 0.214227 -0.0834733 0.00104797
2.22018e-20 -0.019848 0.0225 0.207272 -0.0857829 0.00108534
0 -0.008598 0.0287506 0.214572 -0.0825849 0.00103787
0 -0.027348 0.0124878 0.189336 -0.0930551 0.000852677
1.00974e-28 -0.002348 0.0300012 0.214836 -0.0829284 0.0010299
1.0842e-19 0.008902 0.0287506 0.210188 -0.0864412 0.00117387
0 0.002652 0.0300012 0.213609 -0.0840135 0.00106671
0 -0.023598 0.01875 0.201592 -0.0884836 0.0010509
-1.30406e-20 -0.012348 0.0275 0.213544 -0.0828641 0.00104936
-1.65436e-24 0.030152 9.17765e-09 4.34916e-07 -3.47969e-07 5.30455e-10
0 0.021402 0.02125 0.193328 -0.0971214 0.00146562
-9.15079e-29 -0.012348 0.0275167 0.213569 -0.0828497 0.00104879
-1.0842e-19 -0.018598 0.02375 0.2091 -0.0848711 0.00108644
1.0842e-19 0.028902 0.008656 0.159598 -0.112125 0.000927064
8.08456e-20 0.020152 0.0225 0.196102 -0.0954186 0.00144054
-9.67102e-20 0.022652 0.02 0.190384 -0.0988789 0.00146984
-1.36003e-20 -0.029848 0.00479858 0.156027 -0.0886546 0.000377315
0 0.030152 0.00233887 0.108155 -0.0862887 0.000212083
-9.67063e-20 0.012652 0.0275 0.207144 -0.0884655 0.00125112