# U  POINT_DATA 27775
# x  y  z  U_x  U_y  U_z
4.11098e-11 0 0 0 0 0
-0.000152009 2.71051e-20 0 0 0 0
0.00015201 0 0 0 0 0
-0.000152008 2.71051e-20 0.000142211 0.0113014 -0.00762392 1.2645e-05
0.000152009 0 0.000142211 0.0113478 -0.00765293 1.25456e-05
-0.00125 -1.0842e-19 0.00116944 0.0927542 -0.0629428 0.000104125
0.00125 1.0842e-19 0.00116944 0.0931341 -0.0631846 0.0001033
2.67344e-09 0 0.00234132 0.115648 -0.0783826 0.000192451
-0.00234799 0 0 0 0 0
0.002348 0 0 0 0 0
-0.00234799 -2.71051e-20 0.00014221 0.0113014 -0.00762388 1.2645e-05
0.002348 0 0.000142211 0.0113478 -0.00765293 1.25456e-05
-0.0025 2.71051e-20 0 0 0 0
0.00250001 0 0 0 0 0
-0.00265201 0 0 0 0 0
0.00265202 2.71051e-20 0 0 0 0
-0.00265201 -2.71051e-20 0.000142211 0.011256 -0.0075946 1.2741e-05
0.00265202 0 0.000142211 0.011395 -0.00768168 1.24427e-05
-0.0025 0 0.00234132 0.115202 -0.077968 0.000192648
0.0025 1.35525e-20 0.00234132 0.116103 -0.0787966 0.00019225
-0.00125 0 0.00356872 0.138416 -0.0936259 0.000282242
0.00125 -1.0842e-19 0.00356873 0.138937 -0.0942152 0.000282676
-0.00374999 1.0842e-19 0.00116944 0.0923819 -0.0626989 0.000104923
0.00375 0 0.00116944 0.093522 -0.0634245 0.000102451
2.03462e-09 4.51751e-21 0.00480076 0.14843 -0.0981597 0.000426124
-0.00484797 0 0 0 0 0
0.004848 0 0 0 0 0
-0.00484797 -2.71051e-20 0.000142211 0.011256 -0.0075946 1.2741e-05
0.004848 0 0.000142212 0.0113951 -0.00768172 1.24428e-05
-0.00499998 2.71051e-20 0 0 0 0
0.00500001 2.71051e-20 0 0 0 0
-0.00515199 0 0 0 0 0
0.00515202 0 0 0 0 0
-0.00515199 0 0.00014221 0.0112115 -0.0075651 1.28352e-05
0.00515202 -2.71051e-20 0.000142212 0.0114433 -0.00771018 1.23362e-05
-0.00375 -2.1684e-19 0.00356873 0.137904 -0.0930375 0.000281822
0.00375 0 0.00356872 0.139468 -0.0948052 0.000283128
-0.0025 0 0.00480076 0.147892 -0.0974876 0.000423192
0.0025 4.51751e-21 0.00480076 0.148977 -0.0988342 0.000429126
-0.00499999 -9.03502e-21 0.00234132 0.114764 -0.0775528 0.000192842
0.005 -1.35525e-20 0.00234132 0.116565 -0.0792099 0.000192045
-0.00125 1.0842e-19 0.00608215 0.158028 -0.102074 0.00056888
0.00125 0 0.00608215 0.158591 -0.102833 0.000574407
-0.00624999 2.1684e-19 0.00116944 0.0920172 -0.0624532 0.000105705
0.00625001 0 0.00116944 0.093918 -0.063662 0.000101571
-0.005 0 0.00480076 0.147363 -0.0968179 0.000420325
0.005 -4.51751e-21 0.00480076 0.149532 -0.0995109 0.000432207
-0.00375 0 0.00608215 0.157473 -0.10132 0.000563467
0.00375 1.0842e-19 0.00608215 0.159163 -0.103595 0.000580065
-0.00624999 1.0842e-19 0.00356872 0.137399 -0.09245 0.000281423
0.00625 0 0.00356873 0.140007 -0.095396 0.000283605
-0.00734797 -2.71051e-20 0 0 0 0
0.00734801 0 0 0 0 0
-0.00734797 2.71051e-20 0.000142211 0.0112116 -0.00756515 1.28352e-05
0.00734801 0 0.000142199 0.0114423 -0.00770951 1.23351e-05
9.87617e-10 4.51751e-21 0.00736599 0.164148 -0.103048 0.000667826
-0.00749998 0 0 0 0 0
0.00750001 0 0 0 0 0
-0.00765199 0 0 0 0 0
0.007652 2.71051e-20 0 0 0 0
-0.00765199 2.71051e-20 0.000142211 0.011168 -0.00753543 1.29277e-05
0.007652 0 0.0001422 0.0114916 -0.00773769 1.22256e-05
-0.0025 4.51751e-21 0.00736599 0.163581 -0.102262 0.000659674
0.0025 9.03502e-21 0.00736599 0.164724 -0.103838 0.000676174
-0.00749999 -4.51751e-21 0.00234132 0.114334 -0.0771373 0.000193038
0.0075 -9.03502e-21 0.00234132 0.117037 -0.0796224 0.000191843
-0.00625 0 0.00608215 0.156926 -0.100569 0.000558166
0.00625 1.0842e-19 0.00608215 0.159744 -0.104361 0.000585871
-0.00125 1.0842e-19 0.008656 0.169707 -0.103234 0.00075868
0.00125 0 0.00865601 0.170286 -0.104052 0.000769646
-0.00874999 0 0.00116944 0.0916599 -0.0622057 0.000106471
0.00875 1.0842e-19 0.00116944 0.0943223 -0.0638974 0.000100666
0.005 0 0.00736599 0.165308 -0.104634 0.000684737
-0.005 4.51751e-21 0.00736599 0.163022 -0.101481 0.000651704
-0.0075 0 0.00480076 0.146842 -0.0961506 0.00041752
0.0075 -9.03502e-21 0.00480076 0.150096 -0.10019 0.000435383
0.00375 0 0.00865601 0.170875 -0.104876 0.000780893
-0.00375 -1.0842e-19 0.00865601 0.169136 -0.102422 0.00074797
-0.00875 0 0.00356872 0.136903 -0.0918635 0.00028104
0.00875 -1.0842e-19 0.00356872 0.140555 -0.0959872 0.000284124
0.00984798 2.71051e-20 0 0 0 0
-0.00984799 0 0 0 0 0
0.00984798 0 0.000142209 0.0114924 -0.00773823 1.22264e-05
-0.00984799 0 0.000142213 0.0111681 -0.00753552 1.29278e-05
3.21115e-10 0 0.0099455 0.174077 -0.10294 0.000854175
0.00999999 0 0 0 0 0
-0.01 2.71051e-20 0 0 0 0
0.010152 0 0 0 0 0
-0.010152 0 0 0 0 0
0.010152 0 0.000142209 0.0115427 -0.00776609 1.21142e-05
-0.010152 0 0.000142213 0.0111254 -0.00750559 1.30191e-05
-0.0025 0 0.0099455 0.173499 -0.102121 0.000840752
0.0025 9.03502e-21 0.0099455 0.174664 -0.103764 0.000867934
-0.01 9.03502e-21 0.00234132 0.113912 -0.0767213 0.000193232
0.01 -4.51751e-21 0.00234132 0.117517 -0.0800339 0.000191649
0.0075 -4.51751e-21 0.00736599 0.165902 -0.105434 0.000693534
-0.0075 0 0.00736599 0.162472 -0.100705 0.000643904
0.00875 -1.0842e-19 0.00608215 0.160333 -0.105132 0.000591845
-0.00875 0 0.00608215 0.156388 -0.0998226 0.00055297
-0.00625 0 0.008656 0.168573 -0.101615 0.000737501
0.00625 0 0.008656 0.171471 -0.105705 0.000792441
-0.01 -4.51751e-21 0.00480076 0.146328 -0.0954859 0.000414767
0.01 -9.03502e-21 0.00480076 0.15067 -0.100871 0.000438666
0.005 4.51751e-21 0.0099455 0.175259 -0.104594 0.000882055
-0.005 4.51751e-21 0.0099455 0.172929 -0.101309 0.000827646
-0.00125 -1.0842e-19 0.011217 0.177846 -0.101827 0.000935666
0.00125 2.1684e-19 0.011217 0.178431 -0.102652 0.000951857
0.01125 1.0842e-19 0.00116943 0.0947351 -0.0641301 9.97366e-05
-0.01125 0 0.00116944 0.0913097 -0.0619566 0.000107228
0.01125 1.0842e-19 0.00356873 0.141113 -0.0965789 0.000284686
-0.01125 0 0.00356872 0.136416 -0.091278 0.00028066
0.00375 0 0.011217 0.179025 -0.103483 0.000968465
-0.00375 1.0842e-19 0.011217 0.177269 -0.101009 0.000919869
0.00875 0 0.008656 0.172077 -0.10654 0.000804313
-0.00875 2.1684e-19 0.008656 0.168018 -0.100814 0.00072726
-0.012348 -2.71051e-20 0 0 0 0
0.012348 0 0 0 0 0
-0.012348 0 0.000142215 0.0111256 -0.00750568 1.30193e-05
0.012348 2.71051e-20 0.000142207 0.0115425 -0.00776595 1.21139e-05
0.01 -4.51751e-21 0.00736599 0.166504 -0.106239 0.000702584
-0.01 0 0.00736599 0.161929 -0.0999337 0.00063626
0.0075 0 0.0099455 0.175864 -0.105431 0.000896561
-0.0075 0 0.0099455 0.172368 -0.100502 0.000814835
6.4431e-11 -4.51751e-21 0.0124872 0.181323 -0.101114 0.00100799
-0.0125 0 0 0 0 0
0.0125 -2.71051e-20 0 0 0 0
0.012652 2.71051e-20 0 0 0 0
-0.012652 2.71051e-20 0 0 0 0
0.012652 0 0.000142206 0.0115938 -0.00779344 1.19955e-05
-0.012652 2.71051e-20 0.000142215 0.0110838 -0.00747555 1.311e-05
0.0125 4.51751e-21 0.00234132 0.118007 -0.0804442 0.000191452
-0.0125 4.51751e-21 0.00234132 0.113497 -0.0763051 0.000193423
-0.0025 -4.51751e-21 0.0124872 0.18074 -0.100299 0.000989882
0.0025 0 0.0124872 0.181915 -0.101934 0.00102657
0.01125 -1.0842e-19 0.00608215 0.160933 -0.105905 0.000597992
-0.01125 -1.0842e-19 0.00608215 0.155857 -0.0990804 0.000547856
-0.00625 2.1684e-19 0.011217 0.176701 -0.100197 0.000904441
0.00625 0 0.011217 0.179628 -0.10432 0.000985518
0.0125 0 0.00480076 0.151253 -0.101555 0.00044205
-0.0125 -4.51751e-21 0.00480076 0.145823 -0.0948238 0.000412054
0.005 0 0.0124872 0.182517 -0.102761 0.00104565
-0.005 0 0.0124872 0.180165 -0.0994914 0.000972216
0.01375 0 0.00116943 0.0951568 -0.0643602 9.87614e-05
-0.01375 0 0.00116944 0.0909667 -0.0617059 0.000107979
-0.00125 0 0.0137433 0.184201 -0.0995867 0.00106174
0.00125 0 0.0137433 0.184792 -0.100396 0.00108222
-0.01 0 0.0099455 0.171814 -0.0997018 0.000802306
0.01 0 0.0099455 0.176477 -0.106273 0.000911478
0.01125 2.1684e-19 0.008656 0.172693 -0.107381 0.000816529
-0.01125 -1.0842e-19 0.00865601 0.16747 -0.100019 0.00071723
0.01375 1.0842e-19 0.00356873 0.141681 -0.0971709 0.000285263
-0.01375 0 0.00356872 0.135935 -0.0906938 0.000280277
-0.00875 2.1684e-19 0.011217 0.176141 -0.0993904 0.000889362
0.00875 2.1684e-19 0.011217 0.18024 -0.105164 0.00100305
0.00375 0 0.0137433 0.18539 -0.101213 0.00110324
-0.00375 0 0.0137433 0.18362 -0.0987829 0.00104179
0.0125 0 0.00736599 0.167116 -0.107049 0.000711898
-0.0125 0 0.00736599 0.161394 -0.0991673 0.000628762
0.0075 4.51751e-21 0.0124872 0.183127 -0.103594 0.00106526
-0.0075 0 0.0124872 0.179598 -0.0986894 0.000954967
-0.014848 -2.71051e-20 0 0 0 0
0.014848 0 0 0 0 0
-0.014848 -2.71051e-20 0.000142216 0.0110839 -0.00747564 1.31102e-05
0.014848 0 0.000142191 0.0115926 -0.00779263 1.19943e-05
6.19286e-12 0 0.0149986 0.187248 -0.0987124 0.00112144
-0.015 0 0 0 0 0
0.015 -2.71051e-20 0 0 0 0
0.01375 1.0842e-19 0.00608215 0.161542 -0.106684 0.000604316
-0.01375 1.0842e-19 0.00608215 0.155334 -0.098342 0.000542821
0.00625 2.1684e-19 0.0137433 0.185999 -0.102035 0.00112486
-0.00625 0 0.0137433 0.183047 -0.0979852 0.00102232
0.015152 0 0 0 0 0
-0.015152 0 0 0 0 0
0.015152 0 0.000142191 0.0116451 -0.0078198 1.18718e-05
-0.015152 0 0.000142217 0.0110429 -0.00744531 1.31999e-05
0.015 1.35525e-20 0.00234132 0.118505 -0.0808533 0.000191249
-0.015 -4.51751e-21 0.00234132 0.11309 -0.0758887 0.000193608
-0.0025 0 0.0149986 0.186659 -0.0979181 0.00109965
0.0025 0 0.0149986 0.187847 -0.0995127 0.00114382
0.015 9.03502e-21 0.00480076 0.151846 -0.10224 0.000445538
-0.015 1.35525e-20 0.00480076 0.145325 -0.0941643 0.000409377
-0.005 0 0.0149986 0.186078 -0.0971296 0.00107843
0.005 0 0.0149986 0.188456 -0.100319 0.00116683
-0.01125 0 0.011217 0.175588 -0.0985903 0.000874617
0.01125 0 0.011217 0.180861 -0.106014 0.00102107
0.0125 0 0.0099455 0.177101 -0.107122 0.00092683
-0.0125 0 0.0099455 0.171268 -0.098907 0.000790043
-0.01 0 0.0124872 0.17904 -0.0978935 0.000938113
0.01 9.03502e-21 0.0124872 0.183747 -0.104433 0.00108544
0.01375 1.0842e-19 0.008656 0.173317 -0.108228 0.000829106
-0.01375 0 0.00865601 0.166932 -0.0992292 0.000707407
0.01625 1.0842e-19 0.00116944 0.0955876 -0.0645875 9.77575e-05
-0.01625 -1.0842e-19 0.00116944 0.0906305 -0.0614537 0.000108722
-0.00875 0 0.0137433 0.182482 -0.0971936 0.00100331
0.00875 0 0.0137433 0.186617 -0.102864 0.0011471
-0.00125 -1.0842e-19 0.0162494 0.189698 -0.0970424 0.00115899
0.00125 1.0842e-19 0.0162494 0.190297 -0.0978271 0.00118266
0.01625 1.0842e-19 0.00356873 0.142258 -0.097763 0.000285875
-0.01625 1.0842e-19 0.00356872 0.135463 -0.0901108 0.00027989
0.00375 0 0.0162494 0.190905 -0.0986176 0.00120701
-0.00375 0 0.0162494 0.18911 -0.0962633 0.00113597
-0.015 -4.51751e-21 0.00736599 0.160866 -0.0984056 0.000621403
0.015 4.51751e-21 0.00736599 0.167738 -0.107864 0.000721488
0.0075 4.51751e-21 0.0149986 0.189074 -0.101131 0.00119051
-0.0075 0 0.0149986 0.185506 -0.0963469 0.00105774
-0.017348 0 0 0 0 0
0.017348 0 0 0 0 0
-0.017348 0 0.000142217 0.0110429 -0.00744531 1.31999e-05
0.017348 0 0.00014219 0.011645 -0.00781971 1.18717e-05
-0.01625 0 0.00608215 0.154818 -0.0976077 0.000537857
0.01625 -1.0842e-19 0.00608215 0.16216 -0.107466 0.000610827
0.00625 2.1684e-19 0.0162494 0.191523 -0.0994137 0.00123207
-0.00625 0 0.0162494 0.18853 -0.0954899 0.00111354
5.0225e-14 0 0.0175 0.192533 -0.0960885 0.00119808
-0.0175 0 0 0 0 0
0.0175 2.71051e-20 0 0 0 0
0.017652 0 0 0 0 0
-0.017652 0 0 0 0 0
0.017652 0 0.00014219 0.0116986 -0.00784652 1.17467e-05
-0.017652 0 0.000142216 0.0110027 -0.0074148 1.32896e-05
-0.0175 -4.51751e-21 0.00234132 0.112689 -0.0754722 0.000193789
0.0175 0 0.00234132 0.119014 -0.081261 0.000191053
0.0125 4.51751e-21 0.0124872 0.184376 -0.105278 0.00110621
-0.0125 0 0.0124872 0.17849 -0.0971037 0.000921633
-0.0025 0 0.0175 0.191935 -0.0953214 0.00117384
0.0025 0 0.0175 0.193141 -0.096861 0.00122303
-0.01375 1.0842e-19 0.011217 0.175044 -0.0977962 0.000860183
0.01375 0 0.011217 0.181493 -0.106871 0.00103963
-0.01125 0 0.0137433 0.181926 -0.096408 0.000984743
0.01125 0 0.0137433 0.187245 -0.103698 0.00116999
0.015 4.51751e-21 0.0099455 0.177733 -0.107977 0.000942644
-0.015 4.51751e-21 0.0099455 0.17073 -0.0981179 0.000778038
-0.01 0 0.0149986 0.184942 -0.0955701 0.00103756
0.01 9.03502e-21 0.0149986 0.189702 -0.101949 0.00121489
-0.0175 9.03502e-21 0.00480076 0.144835 -0.0935074 0.000406735
0.0175 4.51751e-21 0.00480076 0.152449 -0.102927 0.00044914
0.005 4.51751e-21 0.0175 0.19376 -0.097639 0.00124872
-0.005 0 0.0175 0.191347 -0.0945596 0.00115026
0.01625 -1.0842e-19 0.008656 0.173952 -0.10908 0.000842064
-0.01625 1.0842e-19 0.008656 0.1664 -0.0984449 0.000697785
0.00875 0 0.0162494 0.192151 -0.100216 0.00125787
-0.00875 1.0842e-19 0.0162494 0.187958 -0.0947221 0.00109169
-0.01875 0 0.00116944 0.090301 -0.0611999 0.000109462
0.01875 0 0.00116944 0.0960275 -0.0648119 9.67309e-05
0.00125 0 0.01875 0.195373 -0.09512 0.00123807
-0.00125 1.0842e-19 0.01875 0.194765 -0.0943651 0.00121257
-0.0175 -9.03502e-21 0.00736599 0.160346 -0.0976487 0.000614182
0.0175 0 0.00736599 0.168369 -0.108683 0.000731368
0.0075 4.51751e-21 0.0175 0.194388 -0.0984224 0.00127518
-0.0075 0 0.0175 0.190767 -0.0938032 0.00112733
-0.01875 -1.0842e-19 0.00356872 0.134998 -0.089529 0.000279503
0.01875 1.0842e-19 0.00356873 0.142845 -0.098355 0.000286531
0.00375 0 0.01875 0.195991 -0.09588 0.00126435
-0.00375 0 0.01875 0.194167 -0.0936152 0.0011878
0.01375 1.0842e-19 0.0137433 0.187883 -0.104539 0.00119359
-0.01375 0 0.0137433 0.181379 -0.0956282 0.00096659
0.015 9.03502e-21 0.0124872 0.185016 -0.10613 0.00112762
-0.015 9.03502e-21 0.0124872 0.177948 -0.0963198 0.000905518
0.0125 4.51751e-21 0.0149986 0.19034 -0.102774 0.00124002
-0.0125 0 0.0149986 0.184387 -0.094799 0.00101787
-0.01875 1.0842e-19 0.00608215 0.15431 -0.0968773 0.000532968
0.01875 1.0842e-19 0.00608215 0.162788 -0.108251 0.000617535
0.01625 0 0.011217 0.182133 -0.107734 0.00105876
-0.01625 -1.0842e-19 0.011217 0.174507 -0.0970082 0.000846062
0.01125 2.1684e-19 0.0162494 0.192788 -0.101024 0.00128447
-0.01125 2.1684e-19 0.0162494 0.187396 -0.0939597 0.00107039
-0.00625 1.0842e-19 0.01875 0.193579 -0.0928705 0.00116374
0.00625 -1.0842e-19 0.01875 0.196619 -0.0966451 0.00129142
-0.019848 0 0 0 0 0
0.019848 0 0 0 0 0
-0.019848 0 0.000142216 0.0110026 -0.00741475 1.32895e-05
0.019848 0 0.00014219 0.0116986 -0.00784652 1.17467e-05
-0.02 2.71051e-20 0 0 0 0
0.02 2.71051e-20 0 0 0 0
-9.82494e-15 0 0.02 0.197448 -0.0933896 0.00123464
-0.0175 4.51751e-21 0.0099455 0.1702 -0.0973347 0.00076629
0.0175 4.51751e-21 0.0099455 0.178376 -0.108837 0.000958943
-0.02 4.51751e-21 0.00234132 0.112296 -0.0750556 0.000193966
0.02 0 0.00234132 0.119532 -0.081667 0.000190867
0.020152 -2.71051e-20 0 0 0 0
-0.020152 0 0 0 0 0
0.020152 0 0.00014219 0.0117533 -0.00787289 1.16198e-05
-0.020152 0 0.000142216 0.0109632 -0.00738406 1.33781e-05
0.01 0 0.0175 0.195026 -0.0992112 0.00130246
-0.01 0 0.0175 0.190196 -0.093052 0.00110501
0.0025 0 0.02 0.198065 -0.0941314 0.00126089
-0.0025 0 0.02 0.19684 -0.0926525 0.00120917
-0.02 9.03502e-21 0.00480076 0.144353 -0.0928531 0.000404128
0.02 0 0.00480076 0.153062 -0.103617 0.000452862
-0.005 0 0.02 0.196243 -0.0919203 0.00118444
0.005 4.51751e-21 0.02 0.198693 -0.0948781 0.00128795
-0.01875 0 0.008656 0.165875 -0.0976662 0.000688367
0.01875 1.0842e-19 0.008656 0.174596 -0.109939 0.000855419
-0.00875 2.1684e-19 0.01875 0.193 -0.0921308 0.00114035
0.00875 0 0.01875 0.197257 -0.0974154 0.00131934
0.015 9.03502e-21 0.0149986 0.190988 -0.103604 0.00126594
-0.015 9.03502e-21 0.0149986 0.183841 -0.0940336 0.000998648
-0.02125 0 0.00116944 0.0899781 -0.0609449 0.000110194
0.02125 1.0842e-19 0.00116944 0.096477 -0.0650329 9.56876e-05
0.01625 -1.0842e-19 0.0137433 0.188531 -0.105387 0.00121793
-0.01625 -1.0842e-19 0.0137433 0.180838 -0.0948544 0.00094885
-0.01375 1.0842e-19 0.0162494 0.186843 -0.0932029 0.00104964
0.01375 1.0842e-19 0.0162494 0.193436 -0.101837 0.00131189
0.00125 1.0842e-19 0.02125 0.200135 -0.0923987 0.00125705
-0.00125 -1.0842e-19 0.02125 0.199518 -0.0916747 0.00123086
-0.02 -9.03502e-21 0.00736599 0.159833 -0.0968965 0.000607099
0.02 4.51751e-21 0.00736599 0.169011 -0.109508 0.00074155
0.0075 4.51751e-21 0.02 0.199331 -0.0956295 0.00131585
-0.0075 0 0.02 0.195655 -0.0911927 0.00116042
0.0175 9.03502e-21 0.0124872 0.185665 -0.106989 0.00114971
-0.0175 9.03502e-21 0.0124872 0.177413 -0.0955418 0.000889768
0.0125 0 0.0175 0.195675 -0.100006 0.0013306
-0.0125 0 0.0175 0.189635 -0.0923061 0.00108329
-0.02125 0 0.00356872 0.134541 -0.0889485 0.000279113
0.02125 1.0842e-19 0.00356873 0.143443 -0.0989469 0.000287227
0.00375 1.0842e-19 0.02125 0.200762 -0.0931271 0.00128407
-0.00375 0 0.02125 0.198911 -0.0909552 0.00120544
0.01875 1.0842e-19 0.011217 0.182784 -0.108603 0.00107848
-0.01875 2.1684e-19 0.011217 0.173978 -0.0962261 0.000832251
-0.01125 2.1684e-19 0.01875 0.19243 -0.091396 0.0011176
0.01125 0 0.01875 0.197907 -0.0981907 0.00134814
-0.02125 -1.0842e-19 0.00608215 0.153809 -0.096151 0.00052815
0.02125 1.0842e-19 0.00608215 0.163427 -0.109041 0.000624442
-0.00625 1.0842e-19 0.02125 0.198314 -0.0902402 0.00118077
0.00625 -1.0842e-19 0.02125 0.2014 -0.0938601 0.00131194
-0.02 0 0.0099455 0.169676 -0.0965571 0.000754795
0.02 4.51751e-21 0.0099455 0.179029 -0.109704 0.000975749
-0.022348 0 0 0 0 0
0.022348 -2.71051e-20 0 0 0 0
-0.022348 0 0.000142214 0.0109631 -0.00738397 1.3378e-05
0.022348 0 0.00014219 0.0117533 -0.00787289 1.16198e-05
0.01 0 0.02 0.199981 -0.0963856 0.00134465
-0.01 0 0.02 0.195077 -0.09047 0.00113709
-0.0225 0 0 0 0 0
0.0225 0 0 0 0 0
-9.82514e-15 0 0.0225 0.202067 -0.0907169 0.00123542
-0.0225 4.51751e-21 0.00234132 0.11191 -0.074639 0.000194141
0.0225 -9.03502e-21 0.00234132 0.12006 -0.0820712 0.000190693
0.0025 0 0.0225 0.202694 -0.0914278 0.00126189
-0.0025 0 0.0225 0.201451 -0.0900101 0.00120976
0.022652 0 0 0 0 0
-0.022652 0 0 0 0 0
0.022652 -2.71051e-20 0.000142189 0.0118092 -0.00789884 1.14909e-05
-0.022652 0 0.000142214 0.0109245 -0.00735311 1.34665e-05
-0.02125 -1.0842e-19 0.008656 0.165358 -0.0968929 0.000679151
0.02125 -1.0842e-19 0.00865601 0.175251 -0.110803 0.000869187
-0.01625 0 0.0162494 0.186297 -0.0924516 0.00102941
0.01625 -1.0842e-19 0.0162494 0.194095 -0.102656 0.00134019
0.00875 -1.0842e-19 0.02125 0.202049 -0.0945974 0.0013407
-0.00875 0 0.02125 0.197727 -0.0895296 0.00115683
-0.0225 -1.35525e-20 0.00480076 0.143877 -0.0922015 0.000401555
0.0225 -4.51751e-21 0.00480076 0.153686 -0.104307 0.000456702
0.0175 9.03502e-21 0.0149986 0.191647 -0.10444 0.00129269
-0.0175 9.03502e-21 0.0149986 0.183302 -0.0932738 0.000979897
0.015 4.51751e-21 0.0175 0.196334 -0.100805 0.00135964
-0.015 4.51751e-21 0.0175 0.189082 -0.0915655 0.00106214
-0.005 0 0.0225 0.200845 -0.0893076 0.00118487
0.005 4.51751e-21 0.0225 0.203331 -0.0921429 0.0012892
0.01875 -1.0842e-19 0.0137433 0.189189 -0.10624 0.00124305
-0.01875 0 0.0137433 0.180306 -0.0940864 0.000931531
0.01375 0 0.01875 0.198567 -0.0989713 0.00137787
-0.01375 2.1684e-19 0.01875 0.19187 -0.0906663 0.0010955
-0.02 0 0.0124872 0.176886 -0.0947697 0.000874384
0.02 0 0.0124872 0.186325 -0.107853 0.00117249
0.0125 0 0.02 0.200641 -0.0971466 0.00137437
-0.0125 0 0.02 0.194508 -0.0897519 0.00111443
-0.0225 -9.03502e-21 0.00736599 0.159328 -0.0961491 0.000600153
0.0225 4.51751e-21 0.00736599 0.169663 -0.110337 0.000752038
0.0075 4.51751e-21 0.0225 0.203979 -0.0928621 0.00131738
-0.0075 0 0.0225 0.200249 -0.0886093 0.00116073
-0.02375 1.0842e-19 0.00116944 0.0896616 -0.0606885 0.000110925
0.02375 0 0.00116944 0.0969363 -0.0652506 9.46295e-05
0.00125 2.1684e-19 0.02375 0.204621 -0.0897439 0.00123984
-0.00125 0 0.02375 0.203995 -0.0890502 0.00121393
-0.02375 -2.1684e-19 0.00356872 0.13409 -0.0883694 0.000278721
0.02375 0 0.00356873 0.144052 -0.0995384 0.00028796
0.02125 0 0.011217 0.183445 -0.109479 0.00109883
-0.02125 -1.0842e-19 0.011217 0.173456 -0.0954499 0.000818739
0.01125 1.0842e-19 0.02125 0.202709 -0.0953392 0.00137039
0.00375 0 0.02375 0.205257 -0.0904415 0.00126657
-0.00375 -1.0842e-19 0.02375 0.20338 -0.0883605 0.00118881
-0.01125 1.0842e-19 0.02125 0.19715 -0.0888235 0.00113358
-0.02375 2.1684e-19 0.00608215 0.153315 -0.0954287 0.000523401
0.02375 1.0842e-19 0.00608215 0.164076 -0.109834 0.000631546
-0.00625 0 0.02375 0.202775 -0.0876747 0.00116446
0.00625 -1.0842e-19 0.02375 0.205905 -0.0911428 0.00129418
-0.0225 4.51751e-21 0.0099455 0.16916 -0.0957852 0.000743551
0.0225 4.51751e-21 0.0099455 0.179692 -0.110577 0.00099308
0.01 0 0.0225 0.204639 -0.0935854 0.00134648
-0.01 0 0.0225 0.199663 -0.0879152 0.0011373
0.0175 4.51751e-21 0.0175 0.197005 -0.101611 0.00138963
-0.0175 4.51751e-21 0.0175 0.188538 -0.09083 0.00104157
0.01875 2.1684e-19 0.0162494 0.194765 -0.103482 0.00136942
-0.01875 0 0.0162494 0.185761 -0.0917057 0.0010097
-0.01625 0 0.01875 0.191318 -0.0899415 0.00107401
0.01625 -1.0842e-19 0.01875 0.199238 -0.099757 0.00140858
-0.024848 2.71051e-20 0 0 0 0
0.024848 0 0 0 0 0
-0.024848 2.71051e-20 0.000142213 0.0109244 -0.00735307 1.34664e-05
0.024848 0 0.000142189 0.0118092 -0.00789879 1.14908e-05
-0.02 0 0.0149986 0.182772 -0.0925197 0.000961617
0.02 0 0.0149986 0.192316 -0.105283 0.00132031
0.015 0 0.02 0.201312 -0.0979124 0.00140507
-0.015 4.51751e-21 0.02 0.193948 -0.0890386 0.00109241
-0.025 2.71051e-20 0 0 0 0
0.025 2.71051e-20 0 0 0 0
-9.82504e-15 0 0.025 0.206419 -0.0881344 0.00120292
-0.025 -9.03502e-21 0.00234132 0.11153 -0.0742224 0.000194313
0.025 -1.35525e-20 0.00234132 0.120599 -0.0824734 0.000190526
0.0025 0 0.025 0.207055 -0.0888153 0.00122868
-0.0025 0 0.025 0.205795 -0.0874572 0.00117795
0.025152 0 0 0 0 0
-0.025152 0 0 0 0 0
0.025152 0 0.000142189 0.0118663 -0.00792428 1.13588e-05
-0.025152 0 0.000142213 0.0108865 -0.00732204 1.35549e-05
-0.02375 0 0.008656 0.164847 -0.0961251 0.000670142
0.02375 1.0842e-19 0.00865601 0.175916 -0.111674 0.000883372
0.02125 0 0.0137433 0.189858 -0.1071 0.00126898
-0.02125 2.1684e-19 0.0137433 0.179782 -0.0933243 0.000914648
-0.00875 0 0.02375 0.20218 -0.0869928 0.00114085
0.00875 1.0842e-19 0.02375 0.206564 -0.091848 0.00132268
0.01375 0 0.02125 0.203381 -0.0960854 0.00140106
-0.01375 -1.0842e-19 0.02125 0.196582 -0.0881219 0.00111101
-0.025 -9.03502e-21 0.00480076 0.143408 -0.0915526 0.000399015
0.025 0 0.00480076 0.15432 -0.105 0.000460656
-0.005 0 0.025 0.20518 -0.0867836 0.00115375
0.005 4.51751e-21 0.025 0.207702 -0.0894998 0.00125528
0.0225 0 0.0124872 0.186995 -0.108724 0.00119601
-0.0225 9.03502e-21 0.0124872 0.176367 -0.0940035 0.000859367
-0.0125 0 0.0225 0.199087 -0.0872253 0.00111456
0.0125 0 0.0225 0.20531 -0.0943128 0.00137655
-0.025 0 0.00736599 0.158829 -0.0954064 0.000593343
0.025 9.03502e-21 0.00736599 0.170326 -0.111172 0.000762833
0.0075 4.51751e-21 0.025 0.20836 -0.0901879 0.00128276
-0.0075 0 0.025 0.204576 -0.0861137 0.00113028
0.02375 0 0.011217 0.184117 -0.110361 0.00111982
-0.02375 0 0.011217 0.172941 -0.0946796 0.000805517
0.02625 1.0842e-19 0.00116944 0.0974056 -0.0654646 9.35511e-05
-0.02625 1.0842e-19 0.00116944 0.0893512 -0.0604308 0.000111655
0.00125 0 0.02625 0.208848 -0.0872041 0.00119135
-0.01125 2.1684e-19 0.02375 0.201595 -0.0863149 0.00111793
0.01125 2.1684e-19 0.02375 0.207234 -0.092557 0.00135214
-0.00125 0 0.02625 0.208214 -0.0865396 0.00116655
-0.02625 1.0842e-19 0.00356872 0.133647 -0.0877917 0.000278327
0.02625 0 0.00356873 0.144672 -0.10013 0.000288722
-0.01875 1.0842e-19 0.01875 0.190774 -0.0892216 0.00105314
0.00375 1.0842e-19 0.02625 0.209494 -0.0878719 0.00121696
0.01875 1.0842e-19 0.01875 0.199921 -0.100548 0.00144031
-0.00375 -1.0842e-19 0.02625 0.20759 -0.0858785 0.00114251
-0.02 0 0.0175 0.188002 -0.0900997 0.00102155
0.02 0 0.0175 0.197687 -0.102421 0.00142063
0.0175 0 0.02 0.201996 -0.0986829 0.00143681
-0.0175 4.51751e-21 0.02 0.193397 -0.0883299 0.00107101
0.02125 2.1684e-19 0.0162494 0.195446 -0.104313 0.00139963
-0.02125 -1.0842e-19 0.0162494 0.185232 -0.0909652 0.000990491
0.01625 0 0.02125 0.204064 -0.0968359 0.00143277
-0.01625 -1.0842e-19 0.02125 0.196023 -0.0874247 0.00108909
-0.025 4.51751e-21 0.0099455 0.168651 -0.0950189 0.000732552
0.025 0 0.0099455 0.180366 -0.111457 0.00101095
0.01 0 0.025 0.209029 -0.0908794 0.00131114
-0.01 0 0.025 0.203982 -0.0854475 0.00110751
-0.02625 -1.0842e-19 0.00608215 0.152827 -0.0947103 0.000518719
0.02625 -1.0842e-19 0.00608215 0.164737 -0.110632 0.000638843
0.00625 0 0.02625 0.210151 -0.0885431 0.00124341
-0.00625 0 0.02625 0.206977 -0.0852208 0.00111921
0.0225 0 0.0149986 0.192997 -0.106132 0.00134885
-0.0225 4.51751e-21 0.0149986 0.182249 -0.0917711 0.00094381
0.015 0 0.0225 0.205993 -0.0950443 0.00140763
-0.015 4.51751e-21 0.0225 0.19852 -0.0865396 0.00109248
-0.027348 0 0 0 0 0
0.027348 -2.71051e-20 0 0 0 0
-0.027348 -2.71051e-20 0.000142212 0.0108865 -0.00732199 1.35549e-05
0.027348 0 0.000142188 0.0118662 -0.00792424 1.13588e-05
0.02375 -1.0842e-19 0.0137433 0.190538 -0.107967 0.00129577
-0.02375 0 0.0137433 0.179265 -0.0925679 0.00089821
-0.01375 0 0.02375 0.20102 -0.085641 0.0010957
0.01375 -1.0842e-19 0.02375 0.207916 -0.0932698 0.00138258
0.0275 2.71051e-20 0 0 0 0
-0.0275 2.71051e-20 0 0 0 0
9.49036e-16 -4.51751e-21 0.0275 0.210502 -0.08569 0.00113967
-0.0275 9.03502e-21 0.00234132 0.111157 -0.0738059 0.000194484
0.0275 -4.51751e-21 0.00234132 0.121149 -0.0828734 0.000190369
0.0025 0 0.0275 0.211147 -0.0863421 0.001164
-0.0025 -4.51751e-21 0.0275 0.209868 -0.085041 0.0011161
-0.02625 2.1684e-19 0.00865601 0.164344 -0.0953626 0.00066134
0.02625 0 0.00865601 0.176592 -0.112549 0.000897976
0.027652 0 0 0 0 0
-0.027652 0 0 0 0 0
0.027652 0 0.000142188 0.0119246 -0.00794924 1.12262e-05
-0.027652 0 0.000142212 0.0108493 -0.00729081 1.36434e-05
0.00875 0 0.02625 0.210819 -0.0892176 0.00127074
-0.00875 0 0.02625 0.206373 -0.0845666 0.0010966
-0.0275 0 0.00480076 0.142946 -0.0909064 0.000396503
0.0275 4.51751e-21 0.00480076 0.154966 -0.105694 0.000464717
0.025 0 0.0124872 0.187677 -0.109602 0.0012203
-0.025 1.35525e-20 0.0124872 0.175855 -0.093243 0.000844717
0.0125 0 0.025 0.209711 -0.0915745 0.00134048
-0.0125 0 0.025 0.203398 -0.0847851 0.00108542
0.005 0 0.0275 0.211803 -0.0869973 0.00118914
-0.005 0 0.0275 0.209245 -0.0843952 0.00109325
0.02 4.51751e-21 0.02 0.202691 -0.099458 0.00146962
-0.02 0 0.02 0.192855 -0.0876259 0.00105024
0.01875 2.1684e-19 0.02125 0.20476 -0.0975909 0.00146556
0.02125 2.1684e-19 0.01875 0.200616 -0.101343 0.00147312
-0.01875 0 0.02125 0.195473 -0.086732 0.00106781
-0.02125 1.0842e-19 0.01875 0.190241 -0.0885066 0.00103286
-0.0275 0 0.00736599 0.158336 -0.0946683 0.000586664
0.0275 1.807e-20 0.00736599 0.170999 -0.11201 0.000773928
0.0225 0 0.0175 0.198381 -0.103237 0.00145267
-0.0225 0 0.0175 0.187475 -0.0893745 0.00100209
0.0175 0 0.0225 0.206688 -0.0957798 0.00143976
-0.0175 4.51751e-21 0.0225 0.197962 -0.0858582 0.00107105
0.0075 4.51751e-21 0.0275 0.212471 -0.0876555 0.0012151
-0.0075 0 0.0275 0.208632 -0.0837527 0.00107111
0.02625 1.0842e-19 0.011217 0.1848 -0.111249 0.00114148
-0.02625 1.0842e-19 0.011217 0.172434 -0.093915 0.000792577
-0.01125 -1.0842e-19 0.02625 0.20578 -0.0839159 0.00107466
0.01125 0 0.02625 0.2115 -0.0898952 0.00129898
-0.02875 0 0.00116944 0.0890469 -0.0601719 0.000112385
0.02875 1.0842e-19 0.00116944 0.0978853 -0.0656747 9.24702e-05
0.02375 1.0842e-19 0.0162494 0.196139 -0.10515 0.00143083
-0.02375 1.0842e-19 0.0162494 0.184711 -0.09023 0.000971792
-0.01625 0 0.02375 0.200454 -0.084971 0.00107412
0.01625 -1.0842e-19 0.02375 0.208611 -0.0939862 0.00141407
0.00125 0 0.0287506 0.212795 -0.0848263 0.00111192
-0.00125 0 0.0287506 0.212152 -0.0841896 0.00108883
-0.02875 1.0842e-19 0.00356873 0.133211 -0.0872154 0.000277925
0.02875 1.0842e-19 0.00356873 0.145304 -0.10072 0.000289515
0.00375 0 0.0287506 0.213451 -0.0854657 0.00113576
-0.00375 -1.0842e-19 0.0287506 0.211518 -0.083556 0.00106647
0.025 0 0.0149986 0.193689 -0.106986 0.00137833
-0.025 9.03502e-21 0.0149986 0.181734 -0.0910281 0.000926478
0.015 0 0.025 0.210404 -0.0922729 0.00137082
-0.015 0 0.025 0.202824 -0.0841265 0.00106398
-0.0275 0 0.0099455 0.168149 -0.0942581 0.000721791
0.0275 4.51751e-21 0.0099455 0.181051 -0.112342 0.00102936
0.01 4.51751e-21 0.0275 0.213151 -0.0883168 0.00124194
-0.01 0 0.0275 0.208029 -0.0831134 0.00104963
-0.02875 0 0.00608215 0.152347 -0.0939961 0.000514095
0.02875 1.0842e-19 0.00608215 0.165408 -0.111432 0.000646321
-0.00625 2.1684e-19 0.0287506 0.210895 -0.0829253 0.00104481
0.00625 1.0842e-19 0.0287506 0.214119 -0.0861081 0.00116039
-0.02625 0 0.0137433 0.178756 -0.0918171 0.000882225
0.02625 0 0.0137433 0.191229 -0.10884 0.00132344
-0.01375 2.1684e-19 0.02625 0.205198 -0.0832688 0.00105338
0.01375 0 0.02625 0.212192 -0.090576 0.00132819
-0.029848 2.71051e-20 0 0 0 0
0.029848 0 0 0 0 0
-0.029848 0 0.00014221 0.0108491 -0.00729068 1.36432e-05
0.029848 0 0.000142187 0.0119246 -0.0079492 1.12262e-05
-0.03 0 0 0 0 0
0.03 -2.71051e-20 0 0 0 0
1.69661e-12 -4.51751e-21 0.0300014 0.214264 -0.0834403 0.00104685
-0.02875 0 0.00865601 0.163847 -0.0946054 0.000652726
0.02875 0 0.00865601 0.177279 -0.113431 0.000912992
-0.02125 1.0842e-19 0.02125 0.194932 -0.0860436 0.00104713
0.02125 -1.0842e-19 0.02125 0.205467 -0.0983501 0.00149947
0.00875 -1.0842e-19 0.0287506 0.214797 -0.0867531 0.00118585
-0.00875 -1.0842e-19 0.0287506 0.210283 -0.0822977 0.00102381
-0.03 -4.51751e-21 0.00234132 0.11079 -0.0733894 0.000194651
0.03 0 0.00234132 0.121709 -0.0832709 0.000190225
-0.02 0 0.0225 0.197413 -0.0851809 0.00105023
-0.0225 0 0.02 0.192322 -0.0869266 0.00103006
0.0225 4.51751e-21 0.02 0.203398 -0.100238 0.00150356
0.02 4.51751e-21 0.0225 0.207396 -0.0965193 0.00147301
0.0025 0 0.0300014 0.21492 -0.084065 0.00106905
-0.0025 -4.51751e-21 0.0300014 0.21362 -0.0828182 0.00102535
0.030152 0 0 0 0 0
-0.030152 0 0 0 0 0
0.030152 0 0.000142187 0.0119842 -0.00797368 1.10939e-05
-0.030152 0 0.000142209 0.0108127 -0.00725931 1.37315e-05
-0.0275 4.51751e-21 0.0124872 0.175349 -0.0924882 0.000830421
0.0275 4.51751e-21 0.0124872 0.188369 -0.110486 0.00124537
0.0125 0 0.0275 0.213843 -0.0889809 0.00126969
-0.0125 0 0.0275 0.207437 -0.0824774 0.00102879
0.01875 0 0.02375 0.209318 -0.0947063 0.00144664
-0.01875 2.1684e-19 0.02375 0.199897 -0.084305 0.00105317
-0.02375 1.0842e-19 0.01875 0.189714 -0.0877965 0.00101318
0.02375 -1.0842e-19 0.01875 0.201323 -0.102144 0.00150706