# UMean  POINT_DATA 27775
# x  y  z  UMean_x  UMean_y  UMean_z
4.11098e-11 0 0 0 0 0
-0.000152009 2.71051e-20 0 0 0 0
0.00015201 0 0 0 0 0
-0.000152008 2.71051e-20 0.000142211 0.0113384 -0.00762284 1.28519e-05
0.000152009 0 0.000142211 0.0113854 -0.00765198 1.27562e-05
-0.00125 -1.0842e-19 0.00116944 0.0930582 -0.0629378 0.000105938
0.00125 1.0842e-19 0.00116944 0.0934438 -0.0631807 0.000105114
2.67344e-09 0 0.00234132 0.11603 -0.0783902 0.000195317
-0.00234799 0 0 0 0 0
0.002348 0 0 0 0 0
-0.00234799 -2.71051e-20 0.00014221 0.0113384 -0.00762279 1.28518e-05
0.002348 0 0.000142211 0.0113854 -0.00765198 1.27562e-05
-0.0025 2.71051e-20 0 0 0 0
0.00250001 0 0 0 0 0
-0.00265201 0 0 0 0 0
0.00265202 2.71051e-20 0 0 0 0
-0.00265201 -2.71051e-20 0.000142211 0.0112923 -0.00759338 1.29313e-05
0.00265202 0 0.000142211 0.0114334 -0.00768083 1.26336e-05
-0.0025 0 0.00234132 0.115578 -0.0779757 0.000195699
0.0025 1.35525e-20 0.00234132 0.11649 -0.0788042 0.000194877
-0.00125 0 0.00356872 0.138871 -0.0936463 0.000286359
0.00125 -1.0842e-19 0.00356873 0.139398 -0.0942344 0.000286425
-0.00374999 1.0842e-19 0.00116944 0.0926803 -0.0626928 0.000106622
0.00375 0 0.00116944 0.0938376 -0.0634213 0.000104123
2.03462e-09 4.51751e-21 0.00480076 0.148933 -0.0981711 0.00043185
-0.00484797 0 0 0 0 0
0.004848 0 0 0 0 0
-0.00484797 -2.71051e-20 0.000142211 0.0112923 -0.00759338 1.29313e-05
0.004848 0 0.000142212 0.0114335 -0.00768087 1.26337e-05
-0.00499998 2.71051e-20 0 0 0 0
0.00500001 2.71051e-20 0 0 0 0
-0.00515199 0 0 0 0 0
0.00515202 0 0 0 0 0
-0.00515199 0 0.00014221 0.0112472 -0.00756369 1.29928e-05
0.00515202 -2.71051e-20 0.000142212 0.0114825 -0.0077094 1.25208e-05
-0.00375 -2.1684e-19 0.00356873 0.138353 -0.0930594 0.000286432
0.00375 0 0.00356872 0.139935 -0.0948236 0.000286424
-0.0025 0 0.00480076 0.14839 -0.0975015 0.000429842
0.0025 4.51751e-21 0.00480076 0.149484 -0.0988435 0.000434114
-0.00499999 -9.03502e-21 0.00234132 0.115134 -0.0775601 0.000196079
0.005 -1.35525e-20 0.00234132 0.116959 -0.0792172 0.000194388
-0.00125 1.0842e-19 0.00608215 0.158574 -0.102079 0.000577027
0.00125 0 0.00608215 0.15914 -0.102834 0.000581339
-0.00624999 2.1684e-19 0.00116944 0.0923102 -0.0624456 0.000107156
0.00625001 0 0.00116944 0.0942395 -0.0636593 0.000103149
-0.005 0 0.00480076 0.147856 -0.0968335 0.000428107
0.005 -4.51751e-21 0.00480076 0.150045 -0.0995179 0.000436564
-0.00375 0 0.00608215 0.158015 -0.101328 0.00057325
0.00375 1.0842e-19 0.00608215 0.159716 -0.103593 0.000586073
-0.00624999 1.0842e-19 0.00356872 0.137842 -0.0924713 0.000286656
0.00625 0 0.00356873 0.140481 -0.095413 0.000286447
-0.00734797 -2.71051e-20 0 0 0 0
0.00734801 0 0 0 0 0
-0.00734797 2.71051e-20 0.000142211 0.0112472 -0.00756374 1.29928e-05
0.00734801 0 0.000142199 0.0114815 -0.00770873 1.25197e-05
9.87617e-10 4.51751e-21 0.00736599 0.164731 -0.102987 0.000675014
-0.00749998 0 0 0 0 0
0.00750001 0 0 0 0 0
-0.00765199 0 0 0 0 0
0.007652 2.71051e-20 0 0 0 0
-0.00765199 2.71051e-20 0.000142211 0.011203 -0.0075338 1.30674e-05
0.007652 0 0.0001422 0.0115315 -0.00773694 1.24159e-05
-0.0025 4.51751e-21 0.00736599 0.16416 -0.102205 0.000668375
0.0025 9.03502e-21 0.00736599 0.16531 -0.103774 0.000682195
-0.00749999 -4.51751e-21 0.00234132 0.114699 -0.0771433 0.000196477
0.0075 -9.03502e-21 0.00234132 0.117437 -0.079629 0.000193924
-0.00625 0 0.00608215 0.157465 -0.10058 0.000569747
0.00625 1.0842e-19 0.00608215 0.160301 -0.104355 0.000591177
-0.00125 1.0842e-19 0.008656 0.170322 -0.103111 0.000766223
0.00125 0 0.00865601 0.170906 -0.103925 0.00077576
-0.00874999 0 0.00116944 0.0919474 -0.0621964 0.000107803
0.00875 1.0842e-19 0.00116944 0.0946501 -0.0638948 0.00010223
0.005 0 0.00736599 0.165899 -0.104565 0.000689873
-0.005 4.51751e-21 0.00736599 0.163598 -0.101429 0.000662216
-0.0075 0 0.00480076 0.147329 -0.0961664 0.00042646
0.0075 -9.03502e-21 0.00480076 0.150615 -0.100194 0.000439151
0.00375 0 0.00865601 0.171498 -0.104744 0.000785905
-0.00375 -1.0842e-19 0.00865601 0.169748 -0.102305 0.00075729
-0.00875 0 0.00356872 0.13734 -0.0918837 0.000286837
0.00875 -1.0842e-19 0.00356872 0.141036 -0.0960023 0.000286478
0.00984798 2.71051e-20 0 0 0 0
-0.00984799 0 0 0 0 0
0.00984798 0 0.000142209 0.0115323 -0.00773748 1.24167e-05
-0.00984799 0 0.000142213 0.0112032 -0.00753389 1.30675e-05
3.21115e-10 0 0.0099455 0.174701 -0.102733 0.000859805
0.00999999 0 0 0 0 0
-0.01 2.71051e-20 0 0 0 0
0.010152 0 0 0 0 0
-0.010152 0 0 0 0 0
0.010152 0 0.000142209 0.0115833 -0.00776532 1.23166e-05
-0.010152 0 0.000142213 0.0111599 -0.00750376 1.31482e-05
-0.0025 0 0.0099455 0.174118 -0.101921 0.000847911
0.0025 9.03502e-21 0.0099455 0.175292 -0.103551 0.000872226
-0.01 9.03502e-21 0.00234132 0.114271 -0.076726 0.000196908
0.01 -4.51751e-21 0.00234132 0.117924 -0.0800396 0.000193481
0.0075 -4.51751e-21 0.00736599 0.166496 -0.105361 0.000697972
-0.0075 0 0.00736599 0.163043 -0.100655 0.000656314
0.00875 -1.0842e-19 0.00608215 0.160895 -0.105123 0.000596434
-0.00875 0 0.00608215 0.156922 -0.0998335 0.000566211
-0.00625 0 0.008656 0.169182 -0.101503 0.000748867
0.00625 0 0.008656 0.172099 -0.105569 0.000796643
-0.01 -4.51751e-21 0.00480076 0.146812 -0.0955011 0.000424777
0.01 -9.03502e-21 0.00480076 0.151194 -0.100873 0.000441841
0.005 4.51751e-21 0.0099455 0.175893 -0.104376 0.000885227
-0.005 4.51751e-21 0.0099455 0.173543 -0.101115 0.000836496
-0.00125 -1.0842e-19 0.011217 0.178473 -0.101542 0.000940833
0.00125 2.1684e-19 0.011217 0.179064 -0.102359 0.000955557
0.01125 1.0842e-19 0.00116943 0.095069 -0.0641274 0.00010129
-0.01125 0 0.00116944 0.0915922 -0.0619455 0.000108511
0.01125 1.0842e-19 0.00356873 0.141601 -0.0965922 0.000286549
-0.01125 0 0.00356872 0.136847 -0.0912976 0.000287017
0.00375 0 0.011217 0.179664 -0.103184 0.000970807
-0.00375 1.0842e-19 0.011217 0.17789 -0.100732 0.000926479
0.00875 0 0.008656 0.172709 -0.106399 0.000807952
-0.00875 2.1684e-19 0.008656 0.168623 -0.100705 0.00074072
-0.012348 -2.71051e-20 0 0 0 0
0.012348 0 0 0 0 0
-0.012348 0 0.000142215 0.01116 -0.00750384 1.31483e-05
0.012348 2.71051e-20 0.000142207 0.0115831 -0.00776519 1.23164e-05
0.01 -4.51751e-21 0.00736599 0.167104 -0.106163 0.000706447
-0.01 0 0.00736599 0.162497 -0.099885 0.000650471
0.0075 0 0.0099455 0.176503 -0.105206 0.000898849
-0.0075 0 0.0099455 0.172977 -0.100313 0.000825495
6.4431e-11 -4.51751e-21 0.0124872 0.181924 -0.100776 0.00100675
-0.0125 0 0 0 0 0
0.0125 -2.71051e-20 0 0 0 0
0.012652 2.71051e-20 0 0 0 0
-0.012652 2.71051e-20 0 0 0 0
0.012652 0 0.000142206 0.0116352 -0.00779264 1.21853e-05
-0.012652 2.71051e-20 0.000142215 0.0111176 -0.0074735 1.32275e-05
0.0125 4.51751e-21 0.00234132 0.11842 -0.0804489 0.000192998
-0.0125 4.51751e-21 0.00234132 0.113851 -0.0763083 0.000197309
-0.0025 -4.51751e-21 0.0124872 0.181335 -0.0999707 0.000989882
0.0025 0 0.0124872 0.182523 -0.101589 0.00102422
0.01125 -1.0842e-19 0.00608215 0.1615 -0.105894 0.000601904
-0.01125 -1.0842e-19 0.00608215 0.156388 -0.0990906 0.00056261
-0.00625 2.1684e-19 0.011217 0.177315 -0.0999264 0.000912558
0.00625 0 0.011217 0.180273 -0.104013 0.000986654
0.0125 0 0.00480076 0.151784 -0.101554 0.000444684
-0.0125 -4.51751e-21 0.00480076 0.146302 -0.094838 0.000423044
0.005 0 0.0124872 0.183131 -0.102408 0.00104236
-0.005 0 0.0124872 0.180753 -0.0991711 0.000973599
0.01375 0 0.00116943 0.0954972 -0.0643572 0.000100141
-0.01375 0 0.00116944 0.0912442 -0.0616929 0.000109104
-0.00125 0 0.0137433 0.18477 -0.0992056 0.00105528
0.00125 0 0.0137433 0.185368 -0.100007 0.00107486
-0.01 0 0.0099455 0.172419 -0.0995172 0.000814806
0.01 0 0.0099455 0.177122 -0.106043 0.000913141
0.01125 2.1684e-19 0.008656 0.173329 -0.107236 0.000819829
-0.01125 -1.0842e-19 0.00865601 0.168073 -0.0999126 0.000732629
0.01375 1.0842e-19 0.00356873 0.142176 -0.0971823 0.000286651
-0.01375 0 0.00356872 0.136361 -0.0907114 0.000287133
-0.00875 2.1684e-19 0.011217 0.176749 -0.0991264 0.000899075
0.00875 2.1684e-19 0.011217 0.180892 -0.10485 0.00100322
0.00375 0 0.0137433 0.185975 -0.100814 0.00109519
-0.00375 0 0.0137433 0.184182 -0.0984118 0.0010365
0.0125 0 0.00736599 0.167721 -0.106969 0.000715307
-0.0125 0 0.00736599 0.161959 -0.0991197 0.000644595
0.0075 4.51751e-21 0.0124872 0.183749 -0.103233 0.00106121
-0.0075 0 0.0124872 0.18018 -0.0983769 0.00095788
-0.014848 -2.71051e-20 0 0 0 0
0.014848 0 0 0 0 0
-0.014848 -2.71051e-20 0.000142216 0.0111177 -0.00747358 1.32277e-05
0.014848 0 0.000142191 0.011634 -0.00779182 1.2184e-05
6.19286e-12 0 0.0149986 0.187781 -0.0983066 0.00111069
-0.015 0 0 0 0 0
0.015 -2.71051e-20 0 0 0 0
0.01375 1.0842e-19 0.00608215 0.162115 -0.106669 0.000607704
-0.01375 1.0842e-19 0.00608215 0.155862 -0.0983516 0.000558934
0.00625 2.1684e-19 0.0137433 0.186591 -0.101628 0.00111632
-0.00625 0 0.0137433 0.183602 -0.0976227 0.00101844
0.015152 0 0 0 0 0
-0.015152 0 0 0 0 0
0.015152 0 0.000142191 0.0116873 -0.00781894 1.20381e-05
-0.015152 0 0.000142217 0.0110762 -0.00744306 1.32938e-05
0.015 1.35525e-20 0.00234132 0.118927 -0.080857 0.000192467
-0.015 -4.51751e-21 0.00234132 0.113438 -0.07589 0.000197599
-0.0025 0 0.0149986 0.187184 -0.0975219 0.00109008
0.0025 0 0.0149986 0.188388 -0.0990978 0.00113216
0.015 9.03502e-21 0.00480076 0.152385 -0.102238 0.00044767
-0.015 1.35525e-20 0.00480076 0.1458 -0.0941771 0.000421143
-0.005 0 0.0149986 0.186596 -0.0967429 0.00107031
0.005 0 0.0149986 0.189003 -0.0998951 0.0011545
-0.01125 0 0.011217 0.176191 -0.0983326 0.000886067
0.01125 0 0.011217 0.181519 -0.105693 0.00102061
0.0125 0 0.0099455 0.177751 -0.106886 0.000928053
-0.0125 0 0.0099455 0.171869 -0.098727 0.000804283
-0.01 0 0.0124872 0.179616 -0.0975884 0.000942725
0.01 9.03502e-21 0.0124872 0.184376 -0.104065 0.00108076
0.01375 1.0842e-19 0.008656 0.173959 -0.108078 0.000832133
-0.01375 0 0.00865601 0.167531 -0.0991255 0.000724488
0.01625 1.0842e-19 0.00116944 0.095935 -0.064584 9.8949e-05
-0.01625 -1.0842e-19 0.00116944 0.0909034 -0.061439 0.00010964
-0.00875 0 0.0137433 0.183031 -0.0968406 0.00100105
0.00875 0 0.0137433 0.187217 -0.102448 0.00113813
-0.00125 -1.0842e-19 0.0162494 0.190187 -0.0966209 0.00114498
0.00125 1.0842e-19 0.0162494 0.190793 -0.0973963 0.00116751
0.01625 1.0842e-19 0.00356873 0.142763 -0.0977729 0.000286785
-0.01625 1.0842e-19 0.00356872 0.135883 -0.0901262 0.000287041
0.00375 0 0.0162494 0.191408 -0.0981774 0.00119094
-0.00375 0 0.0162494 0.189591 -0.0958524 0.00112344
-0.015 -4.51751e-21 0.00736599 0.161428 -0.098359 0.000638585
0.015 4.51751e-21 0.00736599 0.168349 -0.10778 0.000724472
0.0075 4.51751e-21 0.0149986 0.189629 -0.100698 0.00117768
-0.0075 0 0.0149986 0.186017 -0.0959689 0.00105123
-0.017348 0 0 0 0 0
0.017348 0 0 0 0 0
-0.017348 0 0.000142217 0.0110762 -0.00744306 1.32938e-05
0.017348 0 0.00014219 0.0116872 -0.00781884 1.20379e-05
-0.01625 0 0.00608215 0.155343 -0.0976163 0.000554935
0.01625 -1.0842e-19 0.00608215 0.162741 -0.107448 0.000613687
0.00625 2.1684e-19 0.0162494 0.192033 -0.0989639 0.00121541
-0.00625 0 0.0162494 0.189003 -0.0950877 0.00110271
5.0225e-14 0 0.0175 0.192977 -0.0956676 0.00117909
-0.0175 0 0 0 0 0
0.0175 2.71051e-20 0 0 0 0
0.017652 0 0 0 0 0
-0.017652 0 0 0 0 0
0.017652 0 0.00014219 0.0117416 -0.00784556 1.1896e-05
-0.017652 0 0.000142216 0.0110355 -0.00741238 1.33653e-05
-0.0175 -4.51751e-21 0.00234132 0.113033 -0.0754714 0.000197815
0.0175 0 0.00234132 0.119444 -0.0812637 0.000191944
0.0125 4.51751e-21 0.0124872 0.185014 -0.104903 0.00110102
-0.0125 0 0.0124872 0.179059 -0.0968056 0.00092804
-0.0025 0 0.0175 0.192372 -0.0949101 0.00115624
0.0025 0 0.0175 0.193592 -0.0964308 0.00120293
-0.01375 1.0842e-19 0.011217 0.175641 -0.0975448 0.00087324
0.01375 0 0.011217 0.182158 -0.106543 0.00103866
-0.01125 0 0.0137433 0.182468 -0.0960626 0.00098433
0.01125 0 0.0137433 0.187854 -0.103275 0.00116056
0.015 4.51751e-21 0.0099455 0.178391 -0.107735 0.000943466
-0.015 4.51751e-21 0.0099455 0.171326 -0.0979422 0.00079385
-0.01 0 0.0149986 0.185446 -0.0952004 0.00103281
0.01 9.03502e-21 0.0149986 0.190265 -0.101508 0.00120161
-0.0175 9.03502e-21 0.00480076 0.145305 -0.0935183 0.000419037
0.0175 4.51751e-21 0.00480076 0.152996 -0.102923 0.000450736
0.005 4.51751e-21 0.0175 0.194216 -0.0971992 0.00122777
-0.005 0 0.0175 0.191776 -0.0941576 0.00113429
0.01625 -1.0842e-19 0.008656 0.1746 -0.108927 0.00084472
-0.01625 1.0842e-19 0.008656 0.166995 -0.0983438 0.000716259
0.00875 0 0.0162494 0.192668 -0.0997565 0.00124073
-0.00875 1.0842e-19 0.0162494 0.188425 -0.0943276 0.00108262
-0.01875 0 0.00116944 0.0905698 -0.0611837 0.000110189
0.01875 0 0.00116944 0.0963822 -0.0648076 9.7828e-05
0.00125 0 0.01875 0.195771 -0.0946996 0.00121401
-0.00125 1.0842e-19 0.01875 0.195157 -0.093954 0.00118984
-0.0175 -9.03502e-21 0.00736599 0.160904 -0.0976025 0.000632378
0.0175 0 0.00736599 0.168987 -0.108596 0.000733861
0.0075 4.51751e-21 0.0175 0.194851 -0.0979729 0.00125359
-0.0075 0 0.0175 0.19119 -0.0934095 0.00111312
-0.01875 -1.0842e-19 0.00356872 0.135414 -0.0895416 0.000286901
0.01875 1.0842e-19 0.00356873 0.14336 -0.098364 0.000286888
0.00375 0 0.01875 0.196395 -0.0954503 0.00123924
-0.00375 0 0.01875 0.194553 -0.0932136 0.00116666
0.01375 1.0842e-19 0.0137433 0.188501 -0.10411 0.0011837
-0.01375 0 0.0137433 0.181913 -0.0952906 0.000968157
0.015 9.03502e-21 0.0124872 0.185662 -0.105748 0.00112193
-0.015 9.03502e-21 0.0124872 0.17851 -0.0960283 0.000913713
0.0125 4.51751e-21 0.0149986 0.190911 -0.102323 0.00122631
-0.0125 0 0.0149986 0.184884 -0.0944373 0.00101499
-0.01875 1.0842e-19 0.00608215 0.154831 -0.0968844 0.000550686
0.01875 1.0842e-19 0.00608215 0.163377 -0.108231 0.000619809
0.01625 0 0.011217 0.182807 -0.107399 0.00105734
-0.01625 -1.0842e-19 0.011217 0.175098 -0.0967622 0.00086073
0.01125 2.1684e-19 0.0162494 0.193313 -0.100554 0.0012669
-0.01125 2.1684e-19 0.0162494 0.187855 -0.0935739 0.00106313
-0.00625 1.0842e-19 0.01875 0.193958 -0.0924772 0.00114434
0.00625 -1.0842e-19 0.01875 0.197029 -0.0962057 0.00126547
-0.019848 0 0 0 0 0
0.019848 0 0 0 0 0
-0.019848 0 0.000142216 0.0110354 -0.00741233 1.33652e-05
0.019848 0 0.00014219 0.0117416 -0.00784556 1.1896e-05
-0.02 2.71051e-20 0 0 0 0
0.02 2.71051e-20 0 0 0 0
-9.82494e-15 0 0.02 0.19779 -0.0929933 0.00120946
-0.0175 4.51751e-21 0.0099455 0.17079 -0.0971626 0.000783439
0.0175 4.51751e-21 0.0099455 0.179041 -0.10859 0.000959342
-0.02 4.51751e-21 0.00234132 0.112636 -0.0750527 0.000197993
0.02 0 0.00234132 0.11997 -0.0816683 0.000191439
0.020152 -2.71051e-20 0 0 0 0
-0.020152 0 0 0 0 0
0.020152 0 0.00014219 0.0117973 -0.0078718 1.17583e-05
-0.020152 0 0.000142216 0.0109956 -0.00738151 1.34462e-05
0.01 0 0.0175 0.195496 -0.0987518 0.00128034
-0.01 0 0.0175 0.190613 -0.0926666 0.00109263
0.0025 0 0.02 0.198414 -0.0937265 0.00123435
-0.0025 0 0.02 0.197177 -0.0922652 0.00118552
-0.02 9.03502e-21 0.00480076 0.144819 -0.0928619 0.000416723
0.02 0 0.00480076 0.153618 -0.10361 0.000453869
-0.005 0 0.02 0.196573 -0.0915416 0.00116247
0.005 4.51751e-21 0.02 0.199047 -0.0944642 0.00126021
-0.01875 0 0.008656 0.166467 -0.0975666 0.000707899
0.01875 1.0842e-19 0.008656 0.175251 -0.109781 0.000857597
-0.00875 2.1684e-19 0.01875 0.193373 -0.0917459 0.00112279
0.00875 0 0.01875 0.197674 -0.096966 0.00129274
0.015 9.03502e-21 0.0149986 0.191568 -0.103145 0.00125174
-0.015 9.03502e-21 0.0149986 0.18433 -0.0936796 0.000997665
-0.02125 0 0.00116944 0.090243 -0.0609274 0.000110808
0.02125 1.0842e-19 0.00116944 0.0968393 -0.0650275 9.66887e-05
0.01625 -1.0842e-19 0.0137433 0.189159 -0.10495 0.00120747
-0.01625 -1.0842e-19 0.0137433 0.181365 -0.0945237 0.000952374
-0.01375 1.0842e-19 0.0162494 0.187295 -0.0928251 0.00104425
0.01375 1.0842e-19 0.0162494 0.193969 -0.101358 0.00129394
0.00125 1.0842e-19 0.02125 0.200428 -0.092018 0.0012293
-0.00125 -1.0842e-19 0.02125 0.199804 -0.0913018 0.00120467
-0.02 -9.03502e-21 0.00736599 0.160388 -0.0968502 0.000625956
0.02 4.51751e-21 0.00736599 0.169636 -0.109418 0.000743427
0.0075 4.51751e-21 0.02 0.199691 -0.0952063 0.00128703
-0.0075 0 0.02 0.195979 -0.0908217 0.00114021
0.0175 9.03502e-21 0.0124872 0.186321 -0.106599 0.0011435
-0.0175 9.03502e-21 0.0124872 0.177968 -0.0952563 0.000899609
0.0125 0 0.0175 0.196152 -0.0995361 0.001308
-0.0125 0 0.0175 0.190045 -0.091929 0.00107277
-0.02125 0 0.00356872 0.134952 -0.0889581 0.000286575
0.02125 1.0842e-19 0.00356873 0.143968 -0.0989531 0.000287043
0.00375 1.0842e-19 0.02125 0.201061 -0.0927384 0.00125484
-0.00375 0 0.02125 0.199193 -0.0905917 0.00118091
0.01875 1.0842e-19 0.011217 0.183466 -0.108262 0.00107668
-0.01875 2.1684e-19 0.011217 0.174563 -0.0959853 0.000848205
-0.01125 2.1684e-19 0.01875 0.192798 -0.0910193 0.00110196
0.01125 0 0.01875 0.198329 -0.0977317 0.00132096
-0.02125 -1.0842e-19 0.00608215 0.154327 -0.0961566 0.000546089
0.02125 1.0842e-19 0.00608215 0.164024 -0.109019 0.000626043
-0.00625 1.0842e-19 0.02125 0.19859 -0.089884 0.00115797
0.00625 -1.0842e-19 0.02125 0.201704 -0.0934625 0.00128126
-0.02 0 0.0099455 0.170262 -0.096388 0.000772988
0.02 4.51751e-21 0.0099455 0.179701 -0.109452 0.000975645
-0.022348 0 0 0 0 0
0.022348 -2.71051e-20 0 0 0 0
-0.022348 0 0.000142214 0.0109954 -0.00738143 1.34461e-05
0.022348 0 0.00014219 0.0117973 -0.0078718 1.17583e-05
0.01 0 0.02 0.200346 -0.0959529 0.00131482
-0.01 0 0.02 0.195395 -0.0901066 0.00111867
-0.0225 0 0 0 0 0
0.0225 0 0 0 0 0
-9.82514e-15 0 0.0225 0.202299 -0.0903713 0.00120692
-0.0225 4.51751e-21 0.00234132 0.112246 -0.0746341 0.000198095
0.0225 -9.03502e-21 0.00234132 0.120508 -0.0820707 0.000190901
0.0025 0 0.0225 0.202931 -0.0910744 0.00123178
-0.0025 0 0.0225 0.201678 -0.0896727 0.00118293
0.022652 0 0 0 0 0
-0.022652 0 0 0 0 0
0.022652 -2.71051e-20 0.000142189 0.0118541 -0.00789756 1.16091e-05
-0.022652 0 0.000142214 0.0109564 -0.00735048 1.35244e-05
-0.02125 -1.0842e-19 0.008656 0.165946 -0.0967943 0.00069941
0.02125 -1.0842e-19 0.00865601 0.175912 -0.110641 0.000870644
-0.01625 0 0.0162494 0.186742 -0.0920817 0.00102578
0.01625 -1.0842e-19 0.0162494 0.194637 -0.102167 0.00132172
0.00875 -1.0842e-19 0.02125 0.202358 -0.0941911 0.00130864
-0.00875 0 0.02125 0.197997 -0.0891799 0.00113574
-0.0225 -1.35525e-20 0.00480076 0.144339 -0.0922079 0.000414173
0.0225 -4.51751e-21 0.00480076 0.154251 -0.104299 0.000457062
0.0175 9.03502e-21 0.0149986 0.192237 -0.103973 0.00127786
-0.0175 9.03502e-21 0.0149986 0.183784 -0.092927 0.000980687
0.015 4.51751e-21 0.0175 0.19682 -0.100326 0.00133655
-0.015 4.51751e-21 0.0175 0.189485 -0.0911964 0.00105343
-0.005 0 0.0225 0.201067 -0.0889782 0.00115976
0.005 4.51751e-21 0.0225 0.203573 -0.0917813 0.00125753
0.01875 -1.0842e-19 0.0137433 0.189828 -0.105797 0.00123194
-0.01875 0 0.0137433 0.180825 -0.0937622 0.000936791
0.01375 0 0.01875 0.198997 -0.098502 0.00135018
-0.01375 2.1684e-19 0.01875 0.192231 -0.0902981 0.00108171
-0.02 0 0.0124872 0.177435 -0.0944898 0.000885641
0.02 0 0.0124872 0.18699 -0.107457 0.00116573
0.0125 0 0.02 0.201012 -0.096704 0.00134358
-0.0125 0 0.02 0.194821 -0.0893963 0.00109779
-0.0225 -9.03502e-21 0.00736599 0.159879 -0.0961023 0.000619327
0.0225 4.51751e-21 0.00736599 0.170296 -0.110244 0.000753138
0.0075 4.51751e-21 0.0225 0.204227 -0.0924922 0.00128419
-0.0075 0 0.0225 0.200466 -0.088287 0.00113726
-0.02375 1.0842e-19 0.00116944 0.0899232 -0.0606701 0.000111426
0.02375 0 0.00116944 0.0973065 -0.0652437 9.54568e-05
0.00125 2.1684e-19 0.02375 0.204798 -0.0894258 0.00120894
-0.00125 0 0.02375 0.204167 -0.0887396 0.00118474
-0.02375 -2.1684e-19 0.00356872 0.134498 -0.0883763 0.000286056
0.02375 0 0.00356873 0.144587 -0.0995427 0.000287128
0.02125 0 0.011217 0.184136 -0.10913 0.0010966
-0.02125 -1.0842e-19 0.011217 0.174035 -0.0952134 0.000835792
0.01125 1.0842e-19 0.02125 0.203023 -0.0949231 0.00133692
0.00375 0 0.02375 0.205439 -0.0901156 0.00123404
-0.00375 -1.0842e-19 0.02375 0.203548 -0.088058 0.00116141
-0.01125 1.0842e-19 0.02125 0.197414 -0.0884814 0.00111419
-0.02375 2.1684e-19 0.00608215 0.153829 -0.0954318 0.000541274
0.02375 1.0842e-19 0.00608215 0.164682 -0.10981 0.000632423
-0.00625 0 0.02375 0.202938 -0.0873793 0.00113874
0.00625 -1.0842e-19 0.02375 0.206091 -0.0908088 0.00125996
-0.0225 4.51751e-21 0.0099455 0.169741 -0.0956187 0.000762487
0.0225 4.51751e-21 0.0099455 0.180372 -0.110319 0.000992299
0.01 0 0.0225 0.204891 -0.0932071 0.00131184
-0.01 0 0.0225 0.199875 -0.0875999 0.00111538
0.0175 4.51751e-21 0.0175 0.197499 -0.101121 0.00136593
-0.0175 4.51751e-21 0.0175 0.188934 -0.0904688 0.00103454
0.01875 2.1684e-19 0.0162494 0.195316 -0.102983 0.0013502
-0.01875 0 0.0162494 0.186198 -0.0913434 0.00100772
-0.01625 0 0.01875 0.191673 -0.0895812 0.00106196
0.01625 -1.0842e-19 0.01875 0.199675 -0.0992767 0.00138036
-0.024848 2.71051e-20 0 0 0 0
0.024848 0 0 0 0 0
-0.024848 2.71051e-20 0.000142213 0.0109564 -0.00735043 1.35243e-05
0.024848 0 0.000142189 0.011854 -0.00789751 1.16091e-05
-0.02 0 0.0149986 0.183246 -0.0921799 0.000964001
0.02 0 0.0149986 0.192916 -0.104808 0.00130473
0.015 0 0.02 0.20169 -0.0974595 0.00137338
-0.015 4.51751e-21 0.02 0.194255 -0.0886906 0.00107747
-0.025 2.71051e-20 0 0 0 0
0.025 2.71051e-20 0 0 0 0
-9.82504e-15 0 0.025 0.206533 -0.0878507 0.00117067
-0.025 -9.03502e-21 0.00234132 0.111863 -0.074216 0.000198117
0.025 -1.35525e-20 0.00234132 0.121056 -0.0824708 0.000190266
0.0025 0 0.025 0.207173 -0.0885249 0.00119504
-0.0025 0 0.025 0.205903 -0.0871808 0.00114722
0.025152 0 0 0 0 0
-0.025152 0 0 0 0 0
0.025152 0 0.000142189 0.0119122 -0.00792279 1.14474e-05
-0.025152 0 0.000142213 0.0109182 -0.00731937 1.35924e-05
-0.02375 0 0.008656 0.165432 -0.0960274 0.000690786
0.02375 1.0842e-19 0.00865601 0.176585 -0.111507 0.000883838
0.02125 0 0.0137433 0.190508 -0.10665 0.00125713
-0.02125 2.1684e-19 0.0137433 0.180293 -0.0930065 0.000921454
-0.00875 0 0.02375 0.20234 -0.0867047 0.0011166
0.00875 1.0842e-19 0.02375 0.206754 -0.0915064 0.00128689
0.01375 0 0.02125 0.2037 -0.0956594 0.00136626
-0.01375 -1.0842e-19 0.02125 0.196841 -0.0877866 0.00109328
-0.025 -9.03502e-21 0.00480076 0.143868 -0.0915565 0.000411441
0.025 0 0.00480076 0.154895 -0.104989 0.00046022
-0.005 0 0.025 0.205285 -0.0865144 0.00112469
0.005 4.51751e-21 0.025 0.207824 -0.0892023 0.00122025
0.0225 0 0.0124872 0.187671 -0.108321 0.00118861
-0.0225 9.03502e-21 0.0124872 0.176908 -0.0937288 0.00087179
-0.0125 0 0.0225 0.199294 -0.0869173 0.00109414
0.0125 0 0.0225 0.205568 -0.0939257 0.0013405
-0.025 0 0.00736599 0.159377 -0.0953587 0.000612507
0.025 9.03502e-21 0.00736599 0.170967 -0.111074 0.000762949
0.0075 4.51751e-21 0.025 0.208486 -0.0898833 0.00124631
-0.0075 0 0.025 0.204677 -0.085851 0.00110292
0.02375 0 0.011217 0.184817 -0.110005 0.00111702
-0.02375 0 0.011217 0.173513 -0.0944471 0.000823334
0.02625 1.0842e-19 0.00116944 0.097784 -0.0654557 9.41407e-05
-0.02625 1.0842e-19 0.00116944 0.0896099 -0.0604119 0.000112029
0.00125 0 0.02625 0.208903 -0.0869482 0.00115632
-0.01125 2.1684e-19 0.02375 0.201751 -0.0860338 0.00109499
0.01125 2.1684e-19 0.02375 0.20743 -0.092208 0.00131491
-0.00125 0 0.02625 0.208264 -0.0862894 0.00113267
-0.02625 1.0842e-19 0.00356872 0.134052 -0.0877968 0.000285424
0.02625 0 0.00356873 0.145218 -0.100131 0.00028707
-0.01875 1.0842e-19 0.01875 0.191124 -0.0888692 0.00104271
0.00375 1.0842e-19 0.02625 0.209552 -0.0876098 0.00118085
0.01875 1.0842e-19 0.01875 0.200366 -0.100056 0.00141143
-0.00375 -1.0842e-19 0.02625 0.207636 -0.0856361 0.00111007
-0.02 0 0.0175 0.188392 -0.0897461 0.00101607
0.02 0 0.0175 0.19819 -0.101921 0.00139615
0.0175 0 0.02 0.202381 -0.0982193 0.0014042
-0.0175 4.51751e-21 0.02 0.193699 -0.0879895 0.00105771
0.02125 2.1684e-19 0.0162494 0.196007 -0.103805 0.0013795
-0.02125 -1.0842e-19 0.0162494 0.185663 -0.0906104 0.000989961
0.01625 0 0.02125 0.20439 -0.0963999 0.00139672
-0.01625 -1.0842e-19 0.02125 0.196277 -0.0870967 0.00107293
-0.025 4.51751e-21 0.0099455 0.169226 -0.0948549 0.000751888
0.025 0 0.0099455 0.181054 -0.111193 0.00100931
0.01 0 0.025 0.20916 -0.0905678 0.0012734
-0.01 0 0.025 0.204079 -0.085191 0.00108179
-0.02625 -1.0842e-19 0.00608215 0.15334 -0.0947108 0.000536254
0.02625 -1.0842e-19 0.00608215 0.165351 -0.110604 0.000638735
0.00625 0 0.02625 0.210213 -0.0882751 0.00120613
-0.00625 0 0.02625 0.207019 -0.0849844 0.00108852
0.0225 0 0.0149986 0.193607 -0.105648 0.00133235
-0.0225 4.51751e-21 0.0149986 0.182717 -0.0914384 0.000947568
0.015 0 0.0225 0.206256 -0.0946481 0.00137021
-0.015 4.51751e-21 0.0225 0.198723 -0.0862387 0.00107354
-0.027348 0 0 0 0 0
0.027348 -2.71051e-20 0 0 0 0
-0.027348 -2.71051e-20 0.000142212 0.0109181 -0.00731933 1.35923e-05
0.027348 0 0.000142188 0.0119121 -0.00792274 1.14473e-05
0.02375 -1.0842e-19 0.0137433 0.191199 -0.107508 0.00128308
-0.02375 0 0.0137433 0.179769 -0.0922563 0.000906274
-0.01375 0 0.02375 0.201172 -0.0853674 0.00107408
0.01375 -1.0842e-19 0.02375 0.208117 -0.0929124 0.00134391
0.0275 2.71051e-20 0 0 0 0
-0.0275 2.71051e-20 0 0 0 0
9.49036e-16 -4.51751e-21 0.0275 0.210489 -0.0854765 0.00110675
-0.0275 9.03502e-21 0.00234132 0.111487 -0.0737985 0.000198062
0.0275 -4.51751e-21 0.00234132 0.121615 -0.0828682 0.000189601
0.0025 0 0.0275 0.211138 -0.0861236 0.00112977
-0.0025 -4.51751e-21 0.0275 0.209852 -0.0848337 0.00108449
-0.02625 2.1684e-19 0.00865601 0.164925 -0.095266 0.000681955
0.02625 0 0.00865601 0.177268 -0.112378 0.000897207
0.027652 0 0 0 0 0
-0.027652 0 0 0 0 0
0.027652 0 0.000142188 0.0119715 -0.00794746 1.13007e-05
-0.027652 0 0.000142212 0.0108806 -0.00728814 1.36458e-05
0.00875 0 0.02625 0.210885 -0.0889429 0.00123226
-0.00875 0 0.02625 0.206412 -0.0843356 0.00106781
-0.0275 0 0.00480076 0.143403 -0.0909082 0.000408565
0.0275 4.51751e-21 0.00480076 0.155551 -0.10568 0.000463326
0.025 0 0.0124872 0.188362 -0.109191 0.00121219
-0.025 1.35525e-20 0.0124872 0.176389 -0.0929734 0.000858004
0.0125 0 0.025 0.209846 -0.0912555 0.00130149
-0.0125 0 0.025 0.203491 -0.0845349 0.00106128
0.005 0 0.0275 0.211798 -0.0867738 0.0011535
-0.005 0 0.0275 0.209225 -0.0841943 0.00106309
0.02 4.51751e-21 0.02 0.203083 -0.0989837 0.00143603
-0.02 0 0.02 0.193152 -0.087293 0.00103845
0.01875 2.1684e-19 0.02125 0.205092 -0.0971445 0.00142827
0.02125 2.1684e-19 0.01875 0.201069 -0.100841 0.00144345
-0.01875 0 0.02125 0.195723 -0.0864111 0.00105321
-0.02125 1.0842e-19 0.01875 0.190583 -0.0881619 0.0010239
-0.0275 0 0.00736599 0.158881 -0.0946196 0.000605479
0.0275 1.807e-20 0.00736599 0.171648 -0.111909 0.000772854
0.0225 0 0.0175 0.198893 -0.102728 0.00142725
-0.0225 0 0.0175 0.187858 -0.0890287 0.000997987
0.0175 0 0.0225 0.206957 -0.0953744 0.00140098
-0.0175 4.51751e-21 0.0225 0.198161 -0.0855642 0.00105356
0.0075 4.51751e-21 0.0275 0.21247 -0.087427 0.00117798
-0.0075 0 0.0275 0.208609 -0.0835567 0.00104254
0.02625 1.0842e-19 0.011217 0.185508 -0.110887 0.00113803
-0.02625 1.0842e-19 0.011217 0.172999 -0.0936866 0.000810868
-0.01125 -1.0842e-19 0.02625 0.205815 -0.0836901 0.00104772
0.01125 0 0.02625 0.21157 -0.089614 0.00125953
-0.02875 0 0.00116944 0.089303 -0.0601527 0.000112558
0.02875 1.0842e-19 0.00116944 0.0982723 -0.0656633 9.30038e-05
0.02375 1.0842e-19 0.0162494 0.19671 -0.104633 0.00140955
-0.02375 1.0842e-19 0.0162494 0.185136 -0.0898832 0.000972504
-0.01625 0 0.02375 0.200602 -0.0847042 0.00105384
0.01625 -1.0842e-19 0.02375 0.208818 -0.0936209 0.00137394
0.00125 0 0.0287506 0.21272 -0.0846502 0.00107984
-0.00125 0 0.0287506 0.212072 -0.0840181 0.00105815
-0.02875 1.0842e-19 0.00356873 0.133612 -0.0872189 0.000284686
0.02875 1.0842e-19 0.00356873 0.145861 -0.100718 0.000286936
0.00375 0 0.0287506 0.213379 -0.0852857 0.00110207
-0.00375 -1.0842e-19 0.0287506 0.211436 -0.083391 0.00103704
0.025 0 0.0149986 0.19431 -0.106494 0.00136082
-0.025 9.03502e-21 0.0149986 0.182195 -0.0907024 0.000931342
0.015 0 0.025 0.210544 -0.0919464 0.0013305
-0.015 0 0.025 0.202913 -0.0838825 0.00104141
-0.0275 0 0.0099455 0.168719 -0.0940962 0.000741162
0.0275 4.51751e-21 0.0099455 0.181747 -0.112072 0.00102667
0.01 4.51751e-21 0.0275 0.213153 -0.0880828 0.00120336
-0.01 0 0.0275 0.208003 -0.0829219 0.00102269
-0.02875 0 0.00608215 0.152856 -0.0939942 0.000531082
0.02875 1.0842e-19 0.00608215 0.166032 -0.111401 0.000645125
-0.00625 2.1684e-19 0.0287506 0.210811 -0.0827655 0.0010167
0.00625 1.0842e-19 0.0287506 0.21405 -0.0859243 0.00112493
-0.02625 0 0.0137433 0.179252 -0.0915116 0.000891252
0.02625 0 0.0137433 0.191901 -0.108373 0.00130999
-0.01375 2.1684e-19 0.02625 0.205228 -0.0830483 0.0010283
0.01375 0 0.02625 0.212266 -0.0902877 0.00128759
-0.029848 2.71051e-20 0 0 0 0
0.029848 0 0 0 0 0
-0.029848 0 0.00014221 0.0108805 -0.00728802 1.36456e-05
0.029848 0 0.000142187 0.0119714 -0.00794741 1.13006e-05
-0.03 0 0 0 0 0
0.03 -2.71051e-20 0 0 0 0
1.69661e-12 -4.51751e-21 0.0300014 0.214123 -0.0833057 0.00101642
-0.02875 0 0.00865601 0.164424 -0.0945085 0.000672861
0.02875 0 0.00865601 0.177962 -0.113255 0.000910771
-0.02125 1.0842e-19 0.02125 0.195176 -0.0857299 0.00103398
0.02125 -1.0842e-19 0.02125 0.205806 -0.0978929 0.00146094
0.00875 -1.0842e-19 0.0287506 0.214732 -0.0865654 0.00114856
-0.00875 -1.0842e-19 0.0287506 0.210195 -0.0821411 0.000997105
-0.03 -4.51751e-21 0.00234132 0.111117 -0.0733812 0.000197948
0.03 0 0.00234132 0.122186 -0.0832626 0.00018896
-0.02 0 0.0225 0.197607 -0.0848937 0.00103418
-0.0225 0 0.02 0.192613 -0.0866012 0.00101966
0.0225 4.51751e-21 0.02 0.203798 -0.099753 0.00146893
0.02 4.51751e-21 0.0225 0.207671 -0.0961044 0.0014328
0.0025 0 0.0300014 0.214782 -0.0839261 0.00103715
-0.0025 -4.51751e-21 0.0300014 0.213476 -0.0826889 0.000996281
0.030152 0 0 0 0 0
-0.030152 0 0 0 0 0
0.030152 0 0.000142187 0.0120322 -0.00797151 1.11828e-05
-0.030152 0 0.000142209 0.0108437 -0.00725668 1.37128e-05
-0.0275 4.51751e-21 0.0124872 0.175877 -0.0922236 0.000844275
0.0275 4.51751e-21 0.0124872 0.189064 -0.110068 0.00123647
0.0125 0 0.0275 0.213849 -0.0887411 0.00122968
-0.0125 0 0.0275 0.207407 -0.0822905 0.00100344
0.01875 0 0.02375 0.20953 -0.0943323 0.00140497
-0.01875 2.1684e-19 0.02375 0.200041 -0.0840448 0.00103425
-0.02375 1.0842e-19 0.01875 0.190052 -0.0874596 0.00100558