# UMean  POINT_DATA 28084
# x  y  z  UMean_x  UMean_y  UMean_z
0 0.000152009 5.5926e-11 2.75376e-09 -1.86496e-09 3.13798e-12
-6.46235e-27 -0.000334729 0 0 0 0
0 -0.00109799 0.00116944 0.0934316 -0.0628041 0.000105291
1.0842e-19 0.001402 0.00116944 0.0930202 -0.0633851 0.000105828
0 0.000152004 0.00233887 0.115978 -0.0784187 0.000195317
-5.16988e-26 -0.00234799 2.31322e-10 1.11357e-08 -7.43334e-09 1.2418e-11
0 -0.00234799 0.000212484 0.0105852 -0.0070622 1.76309e-05
0 0.00265199 2.30541e-10 1.16191e-08 -7.97243e-09 1.33457e-11
7.02041e-20 -0.002348 0.00233887 0.116514 -0.0777356 0.000194068
0 0.002652 0.00233887 0.115428 -0.0790997 0.000196433
-1.0842e-19 -0.001098 0.00356872 0.139432 -0.0935956 0.000285531
0 -0.003598 0.00116943 0.0938335 -0.0622224 0.00010479
0 0.001402 0.00356873 0.138755 -0.0943805 0.000287491
0 0.003902 0.00116944 0.0925987 -0.063965 0.000106022
0 0.000152002 0.00479858 0.148881 -0.098216 0.000431959
2.06795e-25 -0.00484801 1.64597e-09 8.61889e-08 -5.67844e-08 9.52823e-11
2.06795e-25 -0.00484801 0.000833964 0.0417322 -0.0274736 6.87515e-05
-2.1684e-19 -0.003598 0.00356872 0.140093 -0.0928074 0.00028351
1.03398e-25 0.00515199 6.60558e-10 3.31387e-08 -2.30499e-08 3.82537e-11
0 -0.0051546 0 0 0 0
1.0842e-19 0.003902 0.00356872 0.138062 -0.0951617 0.000289289
-9.99668e-20 -0.002348 0.00479858 0.149599 -0.097423 0.000428533
-1.36721e-20 -0.004848 0.00233887 0.117039 -0.0770502 0.000192815
0 0.002652 0.00479858 0.148147 -0.0990047 0.000435828
0 0.005152 0.00233887 0.114865 -0.0797781 0.000197485
0 -0.001098 0.00608215 0.159198 -0.102106 0.000576825
-2.1684e-19 -0.006098 0.00116943 0.0942258 -0.0616405 0.000104301
0 0.001402 0.00608215 0.158422 -0.102903 0.000582193
0 0.006402 0.00116943 0.0921669 -0.0645434 0.000105768
-1.35479e-19 -0.004848 0.00479858 0.150301 -0.0966259 0.000425391
0 0.005152 0.00479858 0.147397 -0.0997901 0.000440341
1.0842e-19 -0.006098 0.00356873 0.140739 -0.0920145 0.000281485
0 -0.003598 0.00608215 0.159957 -0.101304 0.000572429
1.0842e-19 0.003902 0.00608215 0.157629 -0.103695 0.000588598
0 0.006402 0.00356872 0.137353 -0.095939 0.000291794
0 -0.007348 1.17757e-08 6.32515e-07 -4.11097e-07 7.01135e-10
0 0.000151999 0.00736572 0.164682 -0.103034 0.000675448
-3.30872e-24 0.00765203 1.4035e-08 7.00776e-07 -4.94128e-07 8.10938e-10
0 -0.007348 0.00233887 0.117551 -0.0763632 0.000191689
0 -0.002348 0.00736572 0.165466 -0.10225 0.000668706
2.06795e-25 0.002652 0.00736572 0.163882 -0.103814 0.000683568
0 0.00765201 0.00233888 0.11429 -0.0804542 0.000198776
0 -0.006098 0.00608215 0.160699 -0.100499 0.00056827
2.1684e-19 -0.008598 0.00116944 0.0946086 -0.0610583 0.000103813
0 -0.001098 0.008656 0.170968 -0.103181 0.000766887
1.0842e-19 0.001402 0.00865601 0.170161 -0.103948 0.000776232
-4.1359e-25 -0.007348 0.00479858 0.150987 -0.0958247 0.000422487
0 -0.004848 0.00736572 0.166233 -0.101462 0.000662782
0 0.006402 0.00608215 0.156822 -0.104486 0.00059601
1.0842e-19 0.008902 0.00116944 0.0917251 -0.0651204 0.000105423
-2.06795e-25 0.005152 0.00736572 0.163067 -0.10459 0.000693033
0 0.007652 0.00479858 0.146631 -0.100573 0.000445721
-1.0842e-19 -0.008598 0.00356872 0.141371 -0.0912201 0.000279963
0 -0.003598 0.008656 0.17176 -0.102411 0.000759022
0 0.003902 0.008656 0.169338 -0.104711 0.000787604
1.0842e-19 0.008902 0.00356872 0.136629 -0.0967141 0.000295103
0 -0.00984799 2.28661e-10 1.14488e-08 -7.34515e-09 1.25921e-11
5.16988e-26 0.000152 0.00994629 0.174653 -0.102778 0.000860507
8.27181e-25 -0.009848 0.00233887 0.118051 -0.0756746 0.000190824
-3.30872e-24 0.010152 1.3999e-08 6.95588e-07 -4.97224e-07 8.07213e-10
0 -0.002348 0.00994629 0.175455 -0.102026 0.000849818
-5.16988e-26 0.002652 0.00994629 0.173835 -0.103526 0.000872536
0 -0.007348 0.00736572 0.166985 -0.10067 0.000657132
0 0.010152 0.00233888 0.113702 -0.0811291 0.000200319
-1.03398e-25 -0.0104854 0 0 0 0
0 -0.008598 0.00608215 0.161425 -0.0996869 0.000564326
1.0842e-19 -0.006098 0.008656 0.172537 -0.101637 0.000751741
0 0.007652 0.00736572 0.162235 -0.105362 0.00070347
-2.1684e-19 0.006402 0.008656 0.168498 -0.105468 0.000800283
0 0.008902 0.00608215 0.155999 -0.105275 0.000604378
-4.1359e-25 -0.009848 0.00479858 0.151659 -0.0950203 0.000419753
5.16988e-26 -0.004848 0.00994629 0.176243 -0.101271 0.00083983
1.0842e-19 -0.011098 0.00116943 0.0949812 -0.0604757 0.000103445
0 0.005152 0.00994629 0.173002 -0.104269 0.000886138
0 0.010152 0.00479858 0.145851 -0.101353 0.000451648
1.0842e-19 -0.001098 0.011217 0.179125 -0.101628 0.000942465
-1.0842e-19 0.001402 0.011217 0.178312 -0.102362 0.000955511
-1.0842e-19 0.011402 0.00116943 0.0912728 -0.0656959 0.000105398
0 -0.011098 0.00356872 0.141989 -0.0904216 0.000278866
2.1684e-19 -0.003598 0.011217 0.179923 -0.100892 0.000929988
0 0.003902 0.011217 0.177485 -0.10309 0.000969846
0 0.011402 0.00356872 0.135891 -0.097489 0.000298389
0 -0.008598 0.00865601 0.173299 -0.10086 0.00074452
0 -0.009848 0.00736572 0.167721 -0.0998752 0.000651431
-1.03398e-25 -0.012348 6.6811e-10 3.26877e-08 -2.06659e-08 3.52894e-11
0 -0.012348 0.000490448 0.0248572 -0.015724 3.98578e-05
5.16988e-26 -0.007348 0.00994629 0.177015 -0.100513 0.000830138
1.0842e-19 0.008902 0.008656 0.167642 -0.106221 0.000813581
0 0.000152 0.0124878 0.181876 -0.10082 0.0010077
-1.39051e-20 0.010152 0.00736572 0.161388 -0.10613 0.00071446
0 0.007652 0.00994629 0.172154 -0.105009 0.000901081
0 -0.012348 0.00233887 0.11854 -0.0749852 0.000190076
-1.65436e-24 0.012652 1.29297e-08 6.69687e-07 -4.85319e-07 7.81107e-10
1.0842e-19 -0.011098 0.00608215 0.162137 -0.098874 0.000559914
-1.29247e-26 -0.002348 0.0124878 0.182674 -0.1001 0.000992728
0 0.002652 0.0124878 0.181064 -0.101536 0.00102388
0 -0.006098 0.011217 0.180706 -0.100153 0.000917682
-8.27181e-25 0.012652 0.00233888 0.113102 -0.0818018 0.000201933
1.0842e-19 0.006402 0.011217 0.176643 -0.103816 0.000985852
1.0842e-19 0.011402 0.00608215 0.15516 -0.106056 0.000613197
0 -0.012348 0.00479858 0.152316 -0.0942139 0.000416696
0 -0.004848 0.0124878 0.183459 -0.0993775 0.000978714
0 0.005152 0.0124878 0.180238 -0.102248 0.00104116
-4.1359e-25 0.012652 0.00479858 0.145055 -0.10213 0.000457722
-2.1684e-19 -0.013598 0.00116943 0.0953442 -0.0598931 0.000103238
1.0842e-19 -0.001098 0.0137433 0.185419 -0.0992971 0.00105709
2.1684e-19 0.001402 0.0137433 0.184622 -0.100001 0.00107526
1.0842e-19 0.013902 0.00116943 0.09081 -0.0662698 0.000105571
0 -0.009848 0.00994629 0.177772 -0.0997519 0.000820785
-2.1684e-19 -0.013598 0.00356872 0.142594 -0.089624 0.000277531
-1.0842e-19 -0.011098 0.00865601 0.174045 -0.100081 0.000737285
1.0842e-19 -0.008598 0.011217 0.181474 -0.0994098 0.00090575
0 -0.003598 0.0137433 0.186204 -0.0985918 0.00104091
-5.16988e-26 0.010152 0.00994629 0.17129 -0.105743 0.000917023
0 0.003902 0.0137433 0.183811 -0.1007 0.00109441
-1.0842e-19 0.011402 0.008656 0.166773 -0.10697 0.000827063
0 0.008902 0.011217 0.175787 -0.104537 0.00100362
1.0842e-19 0.013902 0.00356872 0.135138 -0.098259 0.000301462
0 -0.012348 0.00736572 0.168442 -0.0990769 0.000645382
0 -0.007348 0.0124878 0.184228 -0.0986512 0.000965228
2.06795e-25 0.012652 0.00736572 0.160526 -0.106894 0.000725626
0 0.007652 0.0124878 0.179398 -0.102956 0.00105962
0 0.0146569 0 0 0 0
0 -0.014848 4.51806e-09 2.28891e-07 -1.4284e-07 2.45832e-10
-2.1684e-19 -0.013598 0.00608215 0.162833 -0.0980572 0.000554477
-4.1359e-25 -0.014848 0.00182911 0.0930775 -0.0581029 0.000148052
0 0.000152 0.0149988 0.187734 -0.0983484 0.00111185
0 -0.014848 0.00233887 0.119017 -0.0742957 0.000189313
1.0842e-19 -0.006098 0.0137433 0.186975 -0.0978828 0.00102583
0 0.015152 3.19293e-09 1.61036e-07 -1.18413e-07 1.86798e-10
1.0842e-19 0.006402 0.0137433 0.182987 -0.101394 0.00111403
0 0.013902 0.00608215 0.154304 -0.106836 0.000622402
0 -0.002348 0.0149988 0.188511 -0.0976583 0.00109347
4.1359e-25 0.015152 0.00133696 0.0643012 -0.0471431 0.00011628
0 0.002652 0.0149988 0.186944 -0.0990342 0.0011315
0 0.015152 0.00233887 0.112488 -0.082472 0.00020342
0 -0.014848 0.00479858 0.152959 -0.093406 0.000413333
0 -0.004848 0.0149988 0.189275 -0.0969651 0.00107649
2.1684e-19 -0.011098 0.011217 0.182225 -0.0986634 0.000894745
0 -0.012348 0.00994629 0.178513 -0.0989871 0.000811916
8.07794e-28 0.005152 0.0149988 0.18614 -0.0997152 0.00115224
0 0.015152 0.00479858 0.144243 -0.102902 0.000463666
0 -0.009848 0.0124878 0.184982 -0.0979211 0.000952427
0 0.011402 0.011217 0.174916 -0.105253 0.00102281
-5.16988e-26 0.012652 0.00994629 0.170412 -0.106473 0.000933294
0 0.010152 0.0124878 0.178545 -0.103659 0.00107935
1.0842e-19 -0.013598 0.008656 0.174775 -0.0992973 0.00073017
2.1684e-19 -0.016098 0.00116943 0.0956976 -0.0593105 0.000102973
2.1684e-19 -0.008598 0.0137433 0.18773 -0.0971686 0.00101121
0 -0.001098 0.0162494 0.190827 -0.0967126 0.00114743
0 0.001402 0.0162494 0.190059 -0.0973865 0.0011675
0 0.008902 0.0137433 0.182149 -0.102085 0.00113443
0 0.013902 0.008656 0.165887 -0.107715 0.00084023
1.0842e-19 0.016402 0.00116943 0.0903369 -0.0668419 0.000105848
1.0842e-19 -0.016098 0.00356872 0.143185 -0.0888254 0.00027627
1.03398e-25 -0.014848 0.00736572 0.169148 -0.098275 0.000639027
-1.0842e-19 -0.003598 0.0162494 0.191584 -0.096035 0.00112833
0 -0.007348 0.0149988 0.190025 -0.0962672 0.0010605
0 0.003902 0.0162494 0.189275 -0.098053 0.00118871
0 0.016402 0.00356872 0.134369 -0.0990269 0.000303928
0 0.007652 0.0149988 0.185324 -0.100392 0.00117384
0 0.015152 0.00736572 0.159647 -0.107653 0.000736819
0 -0.016098 0.00608215 0.163515 -0.0972381 0.000548998
0 -0.017348 7.40038e-09 3.86862e-07 -2.3806e-07 4.12451e-10
0 -0.006098 0.0162494 0.192329 -0.0953539 0.00111079
9.04729e-26 -0.0172029 0.00233887 0.119456 -0.0736459 0.000188386
0 0.006402 0.0162494 0.18848 -0.0987167 0.00121167
-1.0842e-19 0.016402 0.00608215 0.153432 -0.107608 0.000631524
-5.34848e-28 0.000152 0.0174957 0.19293 -0.0957084 0.00118031
-5.52613e-20 -0.017348 0.00233887 0.119483 -0.0736059 0.000188329
5.16988e-26 -0.017348 0.00263528 0.123593 -0.0758944 0.000215022
6.46235e-27 -0.012348 0.0124878 0.185721 -0.0971876 0.000940353
0 -0.013598 0.011217 0.182961 -0.0979133 0.000884644
-8.27181e-25 0.017652 5.04984e-09 2.41277e-07 -1.79895e-07 2.8258e-10
-1.57772e-30 -0.002348 0.0175 0.193678 -0.0950468 0.00116032
2.1684e-19 -0.011098 0.0137433 0.188472 -0.0964514 0.000997572
1.26218e-29 0.002652 0.0174954 0.192169 -0.0963644 0.00120145
2.06795e-25 0.017652 0.00202524 0.0968614 -0.071991 0.00017727
0 0.012652 0.0124878 0.177676 -0.104357 0.00109999
4.90094e-20 0.017652 0.00233887 0.111861 -0.0831395 0.000204723
0 0.011402 0.0137433 0.181299 -0.102772 0.001156
-1.0842e-19 0.013902 0.011217 0.17403 -0.105962 0.00104202
-2.58494e-26 -0.014848 0.00994629 0.179238 -0.0982185 0.000803294
0 -0.009848 0.0149988 0.190763 -0.0955655 0.00104522
0 -0.017348 0.00479858 0.153588 -0.0925967 0.000409839
8.07794e-28 0.010152 0.0149988 0.184496 -0.101065 0.00119602
0 0.015152 0.00994629 0.169519 -0.107197 0.000949386
-9.15079e-29 -0.004848 0.0174955 0.194414 -0.0943811 0.00114159
-3.61298e-28 0.005152 0.0174953 0.191395 -0.0970153 0.00122398
0 -0.016098 0.008656 0.175489 -0.0985096 0.000722779
2.20506e-20 0.017652 0.00479858 0.143414 -0.103669 0.000469129
0 -0.008598 0.0162494 0.19306 -0.0946667 0.00109407
1.0842e-19 0.008902 0.0162494 0.187673 -0.0993759 0.00123511
0 0.016402 0.008656 0.164985 -0.108454 0.000853517
-1.0842e-19 -0.018598 0.00116943 0.0960426 -0.0587288 0.000102369
0 -0.001098 0.01875 0.195789 -0.094044 0.00119274
0 0.001402 0.01875 0.195049 -0.0946879 0.00121365
0 -0.017348 0.00736572 0.169838 -0.0974705 0.000632475
-1.0842e-19 -0.018598 0.00356872 0.143762 -0.0880258 0.000274444
0 0.018902 0.00116943 0.0898533 -0.0674115 0.00010641
-1.43573e-28 -0.007348 0.0174953 0.195138 -0.0937113 0.00112421
0 -0.003598 0.01875 0.196516 -0.0933933 0.00117286
1.60928e-28 0.007652 0.0174955 0.190611 -0.0976612 0.0012475
0 0.017652 0.00736572 0.158752 -0.108406 0.000748005
-1.0842e-19 0.003902 0.01875 0.194298 -0.0953276 0.00123601
0 0.018902 0.00356872 0.133583 -0.09979 0.000305861
0 -0.013598 0.0137433 0.1892 -0.0957312 0.000984037
0 -0.014848 0.0124878 0.186446 -0.0964515 0.000928663
0 -0.012348 0.0149988 0.191487 -0.0948606 0.00103048
-1.0842e-19 0.013902 0.0137433 0.180434 -0.103451 0.00117855
0 -0.018598 0.00608215 0.164181 -0.096418 0.000543531
-2.1684e-19 -0.016098 0.011217 0.183683 -0.097161 0.000874777
0 0.012652 0.0149988 0.183654 -0.101731 0.00121877
0 0.015152 0.0124878 0.176794 -0.105049 0.00112087
0 -0.011098 0.0162494 0.193781 -0.0939784 0.00107789
-1.0842e-19 -0.006098 0.01875 0.197232 -0.0927396 0.00115447
0 0.006402 0.01875 0.193535 -0.0959611 0.00125963
1.65436e-24 -0.019848 8.29598e-09 4.3522e-07 -2.64232e-07 4.59387e-10
0 0.011402 0.0162494 0.186853 -0.100029 0.00125839
-2.1684e-19 0.018902 0.00608215 0.152543 -0.108376 0.000639948
-2.1684e-19 0.016402 0.011217 0.173129 -0.106667 0.0010607
-1.24278e-20 -0.019848 0.00233887 0.119937 -0.0729162 0.000186855
1.29247e-26 -0.017348 0.00994629 0.179949 -0.0974472 0.000794495
3.28979e-21 0.000152 0.02 0.197746 -0.0930318 0.00121071
-3.07656e-28 -0.009848 0.017495 0.19585 -0.0930379 0.00110777
6.45119e-20 -0.002348 0.02 0.198464 -0.0923968 0.00119052
0 0.020152 4.1787e-09 1.92498e-07 -1.4546e-07 2.27526e-10
8.08456e-20 0.002652 0.02 0.197016 -0.093661 0.00123209
-1.89327e-28 0.010152 0.0174956 0.189814 -0.0983017 0.00127136
4.1359e-25 0.020152 0.00178799 0.0850245 -0.0640641 0.00015748
-2.58494e-26 0.017652 0.00994629 0.16861 -0.107917 0.000965533
0 0.020152 0.00233887 0.111221 -0.0838024 0.000205999
0 -0.019848 0.00443348 0.149115 -0.0889847 0.000373357
-2.58494e-26 -0.019848 0.00479858 0.154201 -0.0917856 0.000405865
-1.0842e-19 -0.018598 0.008656 0.176188 -0.0977185 0.000714902
-9.67102e-20 -0.004848 0.02 0.19917 -0.0917574 0.00117131
-1.0842e-19 -0.008598 0.01875 0.197937 -0.0920822 0.0011376
8.08456e-20 0.005152 0.02 0.196274 -0.0942848 0.00125473
2.06795e-25 0.020152 0.00479858 0.142568 -0.104432 0.000474287
1.0842e-19 0.008902 0.01875 0.19276 -0.0965884 0.00128366
-1.0842e-19 0.018902 0.00865601 0.164068 -0.109188 0.000867436
4.1359e-25 0.0208236 0 0 0 0
-4.03897e-28 -0.014848 0.0149988 0.192199 -0.094153 0.00101616
-1.0842e-19 -0.021098 0.00116943 0.0963803 -0.0581491 0.000101581
0 -0.016098 0.0137433 0.189915 -0.095009 0.000970793
0 -0.019848 0.00736572 0.170513 -0.0966632 0.000625678
0 -0.013598 0.0162494 0.194489 -0.0932847 0.00106232
1.0842e-19 -0.001098 0.02125 0.200427 -0.0913875 0.00120801
0 0.001402 0.02125 0.199719 -0.0920078 0.00122846
8.08456e-20 -0.007348 0.02 0.199866 -0.0911141 0.00115316
0 0.015152 0.0149988 0.182799 -0.102391 0.00124219
1.61559e-27 -0.017348 0.0124878 0.187158 -0.0957131 0.000917134
1.0842e-19 0.013902 0.0162494 0.186021 -0.100676 0.00128198
-1.0842e-19 -0.021098 0.00356872 0.144324 -0.0872247 0.000271742
-1.0842e-19 0.016402 0.0137433 0.179556 -0.104124 0.00120162
2.05104e-28 -0.012348 0.0174939 0.196541 -0.0923664 0.0010919
-9.67102e-20 0.007652 0.02 0.195522 -0.0949023 0.00127826
5.84013e-20 -0.012348 0.0175 0.196553 -0.0923603 0.00109205
-2.1684e-19 0.021402 0.00116943 0.0893586 -0.0679782 0.000106713
0 0.020152 0.00736572 0.15784 -0.109154 0.000759038
1.0842e-19 -0.003598 0.02125 0.201124 -0.0907626 0.00118846
-2.61902e-28 0.012652 0.0174953 0.189005 -0.0989365 0.00129566
0 0.003902 0.02125 0.198999 -0.0926208 0.00125025
0 0.017652 0.0124878 0.175897 -0.105735 0.0011418
0 -0.0211569 0.00479858 0.154514 -0.0913602 0.000403462
0 0.021402 0.00356872 0.13278 -0.100545 0.000308198
-1.0842e-19 -0.018598 0.011217 0.18439 -0.0964065 0.000864731
0 -0.011098 0.01875 0.19863 -0.0914215 0.0011216
1.0842e-19 0.011402 0.01875 0.191975 -0.0972112 0.00130834
0 -0.021098 0.00608215 0.164831 -0.0955941 0.000537582
-1.0842e-19 0.018902 0.011217 0.172214 -0.107367 0.00107938
-1.0842e-19 -0.006098 0.02125 0.20181 -0.0901341 0.00116944
0 0.006402 0.02125 0.198267 -0.0932296 0.00127305
0 -0.019848 0.00994629 0.180644 -0.0966726 0.000785394
0 0.021402 0.00608215 0.151637 -0.109139 0.000647975
8.08456e-20 -0.009848 0.02 0.200551 -0.0904674 0.00113603
0 -0.022348 8.9637e-09 4.71879e-07 -2.8266e-07 4.92718e-10
3.28979e-21 0.010152 0.02 0.194758 -0.095514 0.00130253
4.7591e-20 -0.022348 0.00233887 0.120381 -0.0722274 0.00018503
0 0.020152 0.00994629 0.167685 -0.10863 0.000981959
8.08456e-20 0.000152 0.0225 0.202257 -0.0904082 0.00120815
-3.54881e-20 -0.002348 0.0225 0.202946 -0.089799 0.00118818
-1.65436e-24 0.022652 1.13766e-08 5.35429e-07 -4.10273e-07 6.45467e-10
8.08456e-20 0.002652 0.0225 0.201557 -0.0910125 0.00122894
0 0.022652 0.00233887 0.110566 -0.0844606 0.000207295
-1.0842e-19 -0.021098 0.008656 0.176872 -0.0969245 0.000707003
-5.63276e-21 -0.022348 0.00479858 0.154799 -0.0909731 0.000401275
-1.0842e-19 -0.016098 0.0162494 0.195187 -0.09259 0.0010474
1.0842e-19 -0.008598 0.02125 0.202485 -0.0895004 0.00115113
0 -0.017348 0.0149988 0.1929 -0.0934431 0.00100234
-1.40417e-28 -0.014848 0.0174901 0.197223 -0.0916897 0.00107661
-1.57772e-30 -0.014848 0.0175 0.197243 -0.0916799 0.00107685
-3.54881e-20 -0.004848 0.0225 0.203625 -0.0891854 0.00116894
0 0.008902 0.02125 0.197525 -0.0938303 0.00129669
-3.54881e-20 0.005152 0.0225 0.200846 -0.0916118 0.00125068
2.1684e-19 0.021402 0.008656 0.163133 -0.109914 0.000881207
-1.0842e-19 0.016402 0.0162494 0.185176 -0.101316 0.00130645
-1.0842e-19 -0.018598 0.0137433 0.190618 -0.0942845 0.000957846
-1.10441e-28 0.015152 0.0174946 0.188185 -0.0995658 0.00132065
0 0.022652 0.00479858 0.141705 -0.105188 0.000479477
0 -0.013598 0.01875 0.199312 -0.0907569 0.00110637
0 0.017652 0.0149988 0.181931 -0.103045 0.00126626
0 0.013902 0.01875 0.191178 -0.0978273 0.001334
0 -0.022348 0.00679963 0.167562 -0.0947771 0.000570573
1.0842e-19 0.018902 0.0137433 0.178664 -0.104791 0.00122489
8.07794e-28 -0.019848 0.0124878 0.187856 -0.0949721 0.000905473
1.58401e-19 -0.012348 0.02 0.201225 -0.0898178 0.00111985
0 -0.022348 0.00736572 0.171172 -0.0958532 0.000618466
-1.0842e-19 -0.023598 0.00116943 0.096711 -0.0575721 0.000100899
3.28979e-21 0.012652 0.02 0.193983 -0.0961203 0.00132779
8.08456e-20 -0.007348 0.0225 0.204293 -0.0885674 0.00115049
0 0.020152 0.0124878 0.174987 -0.106415 0.00116314
-9.67102e-20 0.007652 0.0225 0.200126 -0.0922058 0.00127342
1.0842e-19 -0.001098 0.02375 0.204782 -0.088822 0.00118799
-1.0842e-19 0.001402 0.02375 0.204101 -0.0894157 0.00120814
0 0.022652 0.00736572 0.156911 -0.109895 0.000769855
0 -0.023598 0.00356872 0.144871 -0.0864239 0.000268578
-1.0842e-19 -0.021098 0.011217 0.185081 -0.0956477 0.000854161
0 0.023902 0.00116944 0.0888525 -0.0685413 0.000106641
-1.0842e-19 -0.011098 0.02125 0.203151 -0.0888655 0.0011338
0 -0.003598 0.02375 0.205453 -0.0882239 0.00116827
-1.0842e-19 0.003902 0.02375 0.20341 -0.0900057 0.00122894
0 0.011402 0.02125 0.196772 -0.0944263 0.00132143
1.0842e-19 0.021402 0.011217 0.171284 -0.10806 0.00109868
-2.1684e-19 0.023902 0.00356872 0.131959 -0.101296 0.000310849
1.0842e-19 -0.023598 0.00608215 0.165467 -0.0947698 0.000530989
0 -0.0233185 0.00736572 0.171422 -0.0955383 0.000615421
0 -0.022348 0.00994629 0.181324 -0.0958956 0.000775727
1.0842e-19 -0.006098 0.02375 0.206113 -0.0876212 0.00114958
1.58401e-19 -0.009848 0.0225 0.20495 -0.0879457 0.00113297
-1.0842e-19 0.006402 0.02375 0.20271 -0.0905913 0.00125051
9.6241e-29 -0.017348 0.0174762 0.197874 -0.0910204 0.00106151
1.97432e-20 -0.017348 0.0175 0.197921 -0.0909971 0.00106208
0 0.023902 0.00608215 0.150713 -0.109894 0.000655799
3.28979e-21 0.010152 0.0225 0.199394 -0.092794 0.00129722
1.0842e-19 -0.018598 0.0162494 0.195873 -0.091892 0.0010332
1.0842e-19 -0.016098 0.01875 0.199982 -0.0900885 0.00109131
0 0.022652 0.00994629 0.166745 -0.109337 0.000998602
1.65436e-24 -0.024848 1.04578e-08 5.52396e-07 -3.26478e-07 5.70659e-10
-8.67747e-29 0.017652 0.0174937 0.187341 -0.100195 0.00134628
-1.57772e-30 0.017652 0.0175 0.187355 -0.100188 0.00134648
0 -0.019848 0.0149988 0.193588 -0.0927306 0.00098889
-5.99305e-20 -0.014848 0.02 0.201888 -0.0891651 0.00110436
-1.0842e-19 0.016402 0.01875 0.190371 -0.0984398 0.00136027
1.0842e-19 0.018902 0.0162494 0.18432 -0.101951 0.00133194
0 -0.024848 0.00233887 0.120814 -0.0715404 0.000182955
-9.67102e-20 0.000152 0.025 0.206492 -0.0878863 0.00117189
3.28979e-21 0.015152 0.02 0.193198 -0.0967206 0.00135382
3.28979e-21 -0.002348 0.025 0.207153 -0.0872995 0.00115237
-8.07794e-28 0.020152 0.0149988 0.181051 -0.103693 0.00129112
1.0842e-19 -0.023598 0.008656 0.177539 -0.0961268 0.000698595
-9.67102e-20 0.002652 0.025 0.205821 -0.0884684 0.00119244
1.65436e-24 0.025152 1.2557e-08 6.04171e-07 -4.69175e-07 7.31909e-10
1.0842e-19 -0.021098 0.0137433 0.191308 -0.0935584 0.000944777
1.0842e-19 -0.013598 0.02125 0.203806 -0.0882274 0.00111764
1.0842e-19 -0.008598 0.02375 0.206763 -0.0870141 0.00113182
0 0.025152 0.00233887 0.109897 -0.0851139 0.000208602
0 -0.024848 0.00479858 0.155384 -0.0901607 0.000396131
1.0842e-19 0.008902 0.02375 0.202001 -0.0911719 0.00127343
-1.0842e-19 0.013902 0.02125 0.196009 -0.0950165 0.0013474
-1.0842e-19 0.023902 0.008656 0.162181 -0.110634 0.000894863
1.0842e-19 0.021402 0.0137433 0.177759 -0.105452 0.00124901
3.28979e-21 -0.004848 0.025 0.207805 -0.0867087 0.00113405
-3.54881e-20 0.005152 0.025 0.205139 -0.0890455 0.00121381
0 -0.022348 0.0124878 0.18854 -0.0942292 0.00089332
2.06795e-25 0.025152 0.00479858 0.140824 -0.105937 0.000484797
1.58401e-19 -0.012348 0.0225 0.205597 -0.0873204 0.00111654
-9.67102e-20 0.012652 0.0225 0.198653 -0.0933767 0.0013219
-6.46235e-27 0.022652 0.0124878 0.174062 -0.107089 0.00118512
4.59463e-20 -0.024848 0.00736572 0.171816 -0.095042 0.000610623
8.08456e-20 -0.007348 0.025 0.208446 -0.086114 0.00111683
0 -0.026098 0.00116943 0.0970349 -0.0569979 0.00010019
0 -0.023598 0.011217 0.18576 -0.0948897 0.000842382
8.08456e-20 0.007652 0.025 0.204449 -0.0896179 0.00123608
0 0.025152 0.00736572 0.155964 -0.110629 0.000780795
0 -0.011098 0.02375 0.207402 -0.0864026 0.00111512
0 -0.001098 0.02625 0.20887 -0.0863661 0.0011357
-1.0842e-19 0.001402 0.02625 0.208218 -0.0869415 0.00115573
0 -0.026098 0.00356872 0.145408 -0.0856242 0.000264791
1.0842e-19 0.011402 0.02375 0.201281 -0.0917474 0.00129732
-1.0842e-19 0.023902 0.011217 0.170338 -0.108748 0.00111849
1.0842e-19 -0.018598 0.01875 0.200643 -0.0894184 0.00107639
1.26218e-29 -0.019848 0.0174442 0.198478 -0.0903659 0.0010464
0 0.026402 0.00116944 0.0883348 -0.0691005 0.000106421
8.11948e-20 -0.019848 0.0175 0.198589 -0.0903119 0.00104771
3.20767e-20 -0.017348 0.02 0.202541 -0.0885096 0.00108912
1.0842e-19 -0.003598 0.02625 0.20951 -0.0857861 0.00111754
1.0842e-19 0.003902 0.02625 0.207555 -0.0875106 0.00117697
-1.61559e-27 -0.024848 0.0095575 0.180457 -0.0951055 0.000741883
-1.0842e-19 0.018902 0.01875 0.189552 -0.0990449 0.00138724
0 -0.021098 0.0162494 0.196547 -0.0911906 0.00101963
-2.1684e-19 0.026402 0.00356872 0.131123 -0.102039 0.000313763
-2.1684e-19 -0.016098 0.02125 0.204452 -0.0875877 0.00110214
8.08456e-20 0.017652 0.02 0.192401 -0.0973149 0.00138026
-4.57539e-29 0.020152 0.0174939 0.186498 -0.100812 0.00137299
0 0.020152 0.0175 0.186512 -0.100805 0.00137319
0 -0.024848 0.00994629 0.18199 -0.0951168 0.000765167
0 -0.026098 0.00608215 0.166087 -0.0939446 0.000523907
-1.0842e-19 0.016402 0.02125 0.195234 -0.095599 0.00137361
8.08456e-20 -0.009848 0.025 0.209077 -0.0855147 0.00110052
1.0842e-19 0.021402 0.0162494 0.183453 -0.102582 0.00135848
-1.00974e-28 -0.022348 0.0149988 0.194264 -0.0920154 0.000975546
0 -0.006098 0.02625 0.210143 -0.0852039 0.00110083
1.01292e-19 -0.014848 0.0225 0.206233 -0.0866919 0.00110095
8.08456e-20 0.010152 0.025 0.203748 -0.0901849 0.00125931
1.0842e-19 0.006402 0.02625 0.206883 -0.0880746 0.00119883
5.16988e-26 0.025152 0.00994629 0.165789 -0.110038 0.0010156
1.0842e-19 0.026402 0.00608215 0.149769 -0.110641 0.000663764
8.08456e-20 0.015152 0.0225 0.1979 -0.0939526 0.00134728
0 0.022652 0.0149988 0.180158 -0.104335 0.00131681
0 -0.023598 0.0137433 0.191986 -0.0928294 0.000931593
0 -0.027348 1.20369e-08 6.37903e-07 -3.72001e-07 6.51712e-10
0 -0.013598 0.02375 0.208029 -0.0857861 0.0010996
5.2784e-20 -0.027348 0.00233887 0.121239 -0.070856 0.000180624
1.0842e-19 -0.026098 0.00865601 0.178194 -0.0953291 0.000689304
3.28979e-21 0.000152 0.0275 0.210451 -0.085511 0.00110789
-6.46866e-29 0.000152 0.027515 0.210472 -0.085498 0.00110735
0 0.013902 0.02375 0.20055 -0.0923168 0.00132146
0 -0.0256961 0.00994629 0.182212 -0.0948522 0.000761345
0 0.023902 0.0137433 0.17684 -0.106107 0.00127367
8.08456e-20 -0.002348 0.0275 0.211084 -0.0849426 0.0010895
0 -0.008598 0.02625 0.210766 -0.0846167 0.00108511
6.45162e-20 0.002652 0.0275 0.209807 -0.0860745 0.00112714
-3.15544e-30 -0.002348 0.0275346 0.211134 -0.0849128 0.00108827
9.46633e-30 0.002652 0.0275104 0.209822 -0.0860654 0.00112675
1.65436e-24 0.027652 1.18528e-08 5.66928e-07 -4.46432e-07 6.89317e-10
-1.0842e-19 0.008902 0.02625 0.206202 -0.0886338 0.00122157
-4.1359e-25 0.027652 0.00233887 0.109215 -0.0857616 0.000210025
7.78143e-20 -0.027348 0.00479858 0.155956 -0.0893487 0.000390633
-1.0842e-19 0.026402 0.008656 0.161214 -0.111348 0.00090919
0 -0.024848 0.0124878 0.189212 -0.0934841 0.000880765
-9.67102e-20 -0.012348 0.025 0.209697 -0.0849115 0.00108498
-9.67102e-20 -0.004848 0.0275 0.211709 -0.0843707 0.00107206
-9.67102e-20 0.005152 0.0275 0.209154 -0.0866324 0.0011472
-1.41995e-28 0.005152 0.0275096 0.209168 -0.0866239 0.00114683
-9.67102e-20 0.012652 0.025 0.203037 -0.0907457 0.00128289
-1.41995e-29 -0.004848 0.0276314 0.211897 -0.0842585 0.00106744
0 0.027652 0.00479858 0.139926 -0.106679 0.0004905
1.29247e-26 0.025152 0.0124878 0.173123 -0.107758 0.00120746
1.01872e-19 -0.019848 0.02 0.203183 -0.0878518 0.00107402
0 -0.021098 0.01875 0.201294 -0.0887469 0.00106161
0 -0.018598 0.02125 0.205087 -0.0869439 0.00108665
-3.90552e-20 -0.027348 0.00736572 0.172447 -0.0942298 0.000602258
-1.57772e-30 -0.022348 0.01746 0.199167 -0.0896626 0.00103264
-1.57772e-30 -0.022348 0.0175 0.199246 -0.0896244 0.00103357
8.08456e-20 0.020152 0.02 0.191595 -0.0979026 0.00140731
0 -0.026098 0.011217 0.186425 -0.094128 0.000829641
8.30758e-20 -0.017348 0.0225 0.206859 -0.0860605 0.00108562
1.0842e-19 0.018902 0.02125 0.19445 -0.0961757 0.00139994
0 0.021402 0.01875 0.188721 -0.0996429 0.00141508
-9.67087e-20 -0.007348 0.0275 0.212324 -0.0837952 0.00105571
1.0842e-19 -0.011098 0.02625 0.211378 -0.0840253 0.00107004
1.57772e-30 -0.007348 0.0275604 0.21241 -0.0837441 0.00105361
8.08456e-20 0.007652 0.0275 0.208491 -0.0871848 0.0011681
-1.49884e-28 0.007652 0.0275105 0.208506 -0.0871754 0.00116769
8.08456e-20 0.017652 0.0225 0.197137 -0.0945211 0.00137321
0 0.027652 0.00736572 0.155 -0.111356 0.000792235
-1.0842e-19 0.011402 0.02625 0.20551 -0.0891867 0.00124491
-1.26218e-28 0.022652 0.0174949 0.185655 -0.101416 0.00140069
0 -0.028598 0.00116944 0.0973521 -0.0564269 9.92879e-05
0 -0.023598 0.0162494 0.197209 -0.090486 0.00100608
2.1684e-19 0.026402 0.011217 0.169378 -0.10943 0.00113865
-1.0842e-19 -0.016098 0.02375 0.208646 -0.0851665 0.00108444
1.0842e-19 -0.001098 0.0287506 0.21267 -0.0840893 0.00106125
-1.0842e-19 0.001402 0.0287506 0.212045 -0.0846467 0.00107888
-1.0842e-19 -0.028598 0.00356873 0.145933 -0.0848278 0.000260818
-1.0842e-19 0.016402 0.02375 0.199809 -0.092878 0.00134664
0 0.023902 0.0162494 0.182573 -0.103204 0.00138591
1.0842e-19 0.028902 0.00116944 0.0878061 -0.0696554 0.000106081
-1.0842e-19 -0.003598 0.0287506 0.213287 -0.0835286 0.0010435
0 0.003902 0.0287506 0.211411 -0.0851988 0.00109697
0 -0.024848 0.0149988 0.194928 -0.0912975 0.000962235
-9.67102e-20 -0.014848 0.025 0.210308 -0.0843055 0.0010698
-2.74669e-20 -0.027348 0.00994629 0.182643 -0.0943367 0.000753903
0 0.028902 0.00356872 0.130271 -0.102775 0.000317156
3.28979e-21 -0.009848 0.0275 0.21293 -0.083216 0.00104029
-3.15544e-30 -0.009848 0.0275241 0.212964 -0.0831957 0.00103946
8.08456e-20 0.015152 0.025 0.202316 -0.0912998 0.0013067
0 -0.028598 0.00608215 0.166694 -0.0931173 0.000516712
8.07794e-28 0.025152 0.0149988 0.179253 -0.104971 0.00134292
8.08456e-20 0.010152 0.0275 0.207819 -0.0877315 0.00118978
-3.47099e-29 0.010152 0.0275124 0.207837 -0.0877203 0.00118928
0 0.027652 0.00994629 0.164817 -0.110732 0.00103305
0 -0.006098 0.0287506 0.213895 -0.0829639 0.00102636
0 0.006402 0.0287506 0.210767 -0.0857453 0.001116
1.0842e-19 -0.026098 0.0137433 0.19265 -0.0920977 0.00091908
-1.0842e-19 0.028902 0.00608215 0.148808 -0.111381 0.000672377
0 -0.013598 0.02625 0.211981 -0.0834319 0.00105518
-1.0842e-19 0.013902 0.02625 0.204808 -0.0897321 0.00126789
0 0.026402 0.0137433 0.175908 -0.106755 0.00129837
0 -0.029848 1.28842e-08 7.17619e-07 -4.12938e-07 7.23068e-10
0 -0.028598 0.008656 0.178835 -0.0945308 0.000679406
-5.67942e-20 -0.029848 0.00233887 0.121655 -0.0701744 0.000178115
-1.0842e-19 -0.021098 0.02125 0.20571 -0.086298 0.00107142
0 -0.027348 0.0123058 0.189352 -0.092851 0.000859832
-1.11768e-19 -0.022348 0.02 0.203815 -0.0871917 0.00105919
-2.01948e-28 0.000152 0.0300012 0.214086 -0.0833391 0.00101745
2.22018e-20 -0.019848 0.0225 0.207475 -0.0854264 0.00107048
0 -0.008598 0.0287506 0.214494 -0.082396 0.00101055
0 -0.027348 0.0124878 0.18987 -0.0927364 0.000868003
1.00974e-28 -0.002348 0.0300012 0.214696 -0.0827895 0.00100052
1.0842e-19 0.008902 0.0287506 0.210113 -0.0862852 0.00113598
0 0.002652 0.0300012 0.213467 -0.0838837 0.00103465
0 -0.023598 0.01875 0.201935 -0.0880743 0.00104693
-1.30406e-20 -0.012348 0.0275 0.213527 -0.0826338 0.00102539
-1.65436e-24 0.030152 9.17765e-09 4.36322e-07 -3.48419e-07 5.32583e-10
0 0.021402 0.02125 0.193657 -0.0967469 0.00142699
-9.15079e-29 -0.012348 0.0275167 0.21355 -0.0826199 0.00102482
-1.0842e-19 -0.018598 0.02375 0.209253 -0.0845442 0.00106926
1.0842e-19 0.028902 0.008656 0.16023 -0.112053 0.000924058
8.08456e-20 0.020152 0.0225 0.196364 -0.0950833 0.00139965
-9.67102e-20 0.022652 0.02 0.190777 -0.0984829 0.00143503
-1.36003e-20 -0.029848 0.00479858 0.156516 -0.088538 0.000385047
0 0.030152 0.00233887 0.108519 -0.0864044 0.000211638
-9.67063e-20 0.012652 0.0275 0.207136 -0.0882715 0.00121183