# Solver information
# Time        	alpha.water_solver	alpha.water_initial	alpha.water_final	alpha.water_iters	alpha.water_converged	k_solver      	k_initial     	k_final       	k_iters       	k_converged   	p_rgh_solver  	p_rgh_initial 	p_rgh_final   	p_rgh_iters   	p_rgh_converged	omega_solver  	omega_initial 	omega_final   	omega_iters   	omega_converged
0.000600024   	smoothSolver	0.000000e+00	0.000000e+00	0	true	smoothSolver	1.000000e+00	8.674120e-03	1	true	GAMG	1.000000e+00	5.202370e-03	3	true	smoothSolver	1.524940e-03	8.879040e-05	1	true
0.00123689    	smoothSolver	3.512720e-04	2.349930e-09	3	true	smoothSolver	1.309340e-01	2.785530e-05	1	true	GAMG	1.857380e-03	1.375330e-05	8	true	smoothSolver	3.540260e-05	1.217570e-07	1	true
0.00156543    	smoothSolver	1.333360e-04	3.843610e-10	3	true	smoothSolver	3.144560e-02	2.598220e-06	1	true	GAMG	1.492870e-03	1.382500e-05	5	true	smoothSolver	1.919170e-05	3.620690e-08	1	true
0.00187576    	smoothSolver	1.282730e-04	2.372990e-10	3	true	smoothSolver	2.326520e-02	2.006860e-06	1	true	GAMG	1.125140e-03	6.075870e-06	7	true	smoothSolver	1.893040e-05	4.039310e-08	1	true
0.00221796    	smoothSolver	1.490840e-04	5.330510e-10	3	true	smoothSolver	2.139120e-02	2.415810e-06	1	true	GAMG	1.058660e-03	5.686940e-06	5	true	smoothSolver	2.204750e-05	6.338570e-08	1	true
0.00259984    	smoothSolver	1.705690e-04	1.279460e-09	3	true	smoothSolver	2.019050e-02	3.239300e-06	1	true	GAMG	1.333620e-03	7.559700e-06	5	true	smoothSolver	2.605090e-05	1.079660e-07	1	true
0.00302895    	smoothSolver	2.239010e-04	3.498630e-09	3	true	smoothSolver	1.952940e-02	4.439800e-06	1	true	GAMG	1.022360e-03	5.084950e-06	5	true	smoothSolver	3.118230e-05	1.949250e-07	1	true
0.00351443    	smoothSolver	2.754230e-04	9.145700e-09	3	true	smoothSolver	1.919620e-02	6.486860e-06	1	true	GAMG	1.248580e-03	7.724580e-06	4	true	smoothSolver	3.763780e-05	3.318970e-07	1	true
0.00406361    	smoothSolver	3.070860e-04	4.460790e-10	4	true	smoothSolver	1.909500e-02	9.571020e-06	1	true	GAMG	1.121420e-03	6.260700e-06	4	true	smoothSolver	4.610440e-05	5.868200e-07	1	true
0.00468662    	smoothSolver	3.366600e-04	1.136370e-09	4	true	smoothSolver	1.916950e-02	1.408020e-05	1	true	GAMG	1.128910e-03	1.105490e-05	3	true	smoothSolver	5.682190e-05	1.054760e-06	1	true
0.00539649    	smoothSolver	4.117440e-04	3.325670e-09	4	true	smoothSolver	1.946460e-02	2.079750e-05	1	true	GAMG	1.080650e-03	5.615420e-06	4	true	smoothSolver	7.151610e-05	1.815060e-06	1	true
0.00619537    	smoothSolver	4.530150e-04	8.271910e-09	4	true	smoothSolver	1.973100e-02	2.844870e-05	1	true	GAMG	1.262910e-03	1.064070e-05	3	true	smoothSolver	8.973150e-05	2.915320e-06	1	true
0.00701997    	smoothSolver	4.912790e-04	5.468480e-10	5	true	smoothSolver	1.849920e-02	3.214120e-05	1	true	GAMG	1.617200e-03	8.805680e-06	3	true	smoothSolver	1.051160e-04	3.638220e-06	1	true
0.00788847    	smoothSolver	4.796710e-04	7.345820e-10	5	true	smoothSolver	1.799220e-02	3.809680e-05	1	true	GAMG	1.301700e-03	1.085330e-05	3	true	smoothSolver	1.255260e-04	4.892160e-06	1	true
0.00868964    	smoothSolver	4.572750e-04	8.328230e-09	4	true	smoothSolver	1.550120e-02	3.243760e-05	1	true	GAMG	1.199950e-03	1.197070e-05	3	true	smoothSolver	1.300130e-04	4.679390e-06	1	true
0.00948204    	smoothSolver	4.718590e-04	6.740730e-09	4	true	smoothSolver	1.454200e-02	3.371620e-05	1	true	GAMG	1.160430e-03	5.884710e-06	4	true	smoothSolver	1.415730e-04	5.025960e-06	1	true
0.0102888     	smoothSolver	4.671470e-04	6.479170e-09	4	true	smoothSolver	1.416870e-02	3.729600e-05	1	true	GAMG	1.229040e-03	5.013320e-06	4	true	smoothSolver	1.552980e-04	5.659610e-06	1	true
0.0111194     	smoothSolver	4.795560e-04	6.940830e-09	4	true	smoothSolver	1.402280e-02	4.161580e-05	1	true	GAMG	1.212680e-03	5.163270e-06	4	true	smoothSolver	1.727740e-04	6.598910e-06	1	true
0.0119791     	smoothSolver	5.258580e-04	7.338530e-09	4	true	smoothSolver	1.395690e-02	4.714250e-05	1	true	GAMG	1.129400e-03	5.828300e-06	4	true	smoothSolver	1.927430e-04	7.543700e-06	1	true
0.0128694     	smoothSolver	5.137460e-04	7.551030e-09	4	true	smoothSolver	1.393000e-02	5.174020e-05	1	true	GAMG	1.266680e-03	7.247510e-06	4	true	smoothSolver	2.176260e-04	9.037620e-06	1	true
0.013791      	smoothSolver	5.206980e-04	8.112740e-09	4	true	smoothSolver	1.398100e-02	5.948760e-05	1	true	GAMG	1.266790e-03	1.190730e-05	3	true	smoothSolver	2.444420e-04	1.039350e-05	1	true
0.0147481     	smoothSolver	5.322260e-04	9.088960e-09	4	true	smoothSolver	1.411100e-02	6.582070e-05	1	true	GAMG	1.124750e-03	8.513150e-06	3	true	smoothSolver	2.700540e-04	1.207540e-05	1	true
0.015756      	smoothSolver	5.272370e-04	5.887290e-10	5	true	smoothSolver	1.451130e-02	7.576830e-05	1	true	GAMG	1.109570e-03	5.543430e-06	4	true	smoothSolver	3.036320e-04	1.446520e-05	1	true
0.0168235     	smoothSolver	5.352040e-04	6.602490e-10	5	true	smoothSolver	1.503590e-02	8.931540e-05	1	true	GAMG	1.265190e-03	9.759670e-06	3	true	smoothSolver	3.356650e-04	1.662810e-05	1	true
0.0179336     	smoothSolver	5.563420e-04	6.685870e-10	5	true	smoothSolver	1.536070e-02	1.008980e-04	1	true	GAMG	9.890630e-04	8.383720e-06	3	true	smoothSolver	3.612170e-04	1.839980e-05	1	true
0.0190955     	smoothSolver	5.256000e-04	6.993810e-10	5	true	smoothSolver	1.585590e-02	1.139520e-04	1	true	GAMG	1.205890e-03	7.929270e-06	3	true	smoothSolver	3.923010e-04	2.036450e-05	1	true
0.0203275     	smoothSolver	5.656090e-04	9.398410e-10	5	true	smoothSolver	1.660390e-02	1.330610e-04	1	true	GAMG	1.135880e-03	6.814350e-06	3	true	smoothSolver	4.199020e-04	2.195510e-05	1	true
0.0216372     	smoothSolver	5.646420e-04	1.262220e-09	5	true	smoothSolver	1.750930e-02	1.566930e-04	1	true	GAMG	1.129980e-03	6.421400e-06	3	true	smoothSolver	4.618350e-04	2.494650e-05	1	true
0.0230267     	smoothSolver	5.862340e-04	1.546450e-09	5	true	smoothSolver	1.842310e-02	1.866740e-04	1	true	GAMG	1.202470e-03	6.277400e-06	3	true	smoothSolver	4.952130e-04	2.798220e-05	1	true
0.0245005     	smoothSolver	6.128820e-04	1.961060e-09	5	true	smoothSolver	1.940660e-02	2.180400e-04	1	true	GAMG	1.108430e-03	5.701290e-06	3	true	smoothSolver	5.409390e-04	3.200820e-05	1	true
0.0260626     	smoothSolver	6.284680e-04	2.915240e-09	5	true	smoothSolver	2.032420e-02	2.551840e-04	1	true	GAMG	1.229790e-03	5.882060e-06	3	true	smoothSolver	5.817140e-04	3.636690e-05	1	true
0.0277284     	smoothSolver	6.648440e-04	4.360940e-09	5	true	smoothSolver	2.146150e-02	3.037770e-04	1	true	GAMG	1.145730e-03	6.597200e-06	3	true	smoothSolver	6.341260e-04	4.125960e-05	1	true
0.0295157     	smoothSolver	7.118600e-04	5.223520e-09	5	true	smoothSolver	2.282630e-02	3.631060e-04	1	true	GAMG	1.146560e-03	5.826110e-06	3	true	smoothSolver	6.929940e-04	4.753780e-05	1	true
0.0314415     	smoothSolver	7.500570e-04	6.564670e-09	5	true	smoothSolver	2.440180e-02	4.397290e-04	1	true	GAMG	1.121050e-03	6.058610e-06	3	true	smoothSolver	7.608620e-04	5.511390e-05	1	true
0.0335256     	smoothSolver	8.299580e-04	9.597520e-09	5	true	smoothSolver	2.624350e-02	5.340260e-04	1	true	GAMG	1.146960e-03	6.644000e-06	3	true	smoothSolver	8.415680e-04	6.498890e-05	1	true
0.0357944     	smoothSolver	8.663290e-04	1.335590e-09	6	true	smoothSolver	2.847680e-02	6.579920e-04	1	true	GAMG	1.241300e-03	6.926640e-06	3	true	smoothSolver	9.349410e-04	7.803240e-05	1	true
0.0382803     	smoothSolver	9.177520e-04	1.782070e-09	6	true	smoothSolver	3.113180e-02	8.239320e-04	1	true	GAMG	1.244330e-03	6.958300e-06	3	true	smoothSolver	1.034650e-03	9.157380e-05	1	true
0.0410291     	smoothSolver	9.984770e-04	3.548170e-09	6	true	smoothSolver	3.440900e-02	1.043220e-03	1	true	GAMG	1.355220e-03	7.704230e-06	3	true	smoothSolver	1.153530e-03	1.115800e-04	1	true
0.0440511     	smoothSolver	1.057930e-03	4.486480e-09	6	true	smoothSolver	3.800690e-02	1.321660e-03	1	true	GAMG	1.450870e-03	7.636460e-06	3	true	smoothSolver	1.280120e-03	2.515650e-05	2	true
0.0473817     	smoothSolver	1.143610e-03	7.222590e-09	6	true	smoothSolver	4.226360e-02	1.689440e-03	1	true	GAMG	1.340520e-03	7.781360e-06	3	true	smoothSolver	1.419670e-03	3.063780e-05	2	true
0.0510694     	smoothSolver	1.223570e-03	1.451510e-09	7	true	smoothSolver	4.749940e-02	2.192930e-03	1	true	GAMG	1.440550e-03	8.178650e-06	3	true	smoothSolver	1.594900e-03	3.904820e-05	2	true
0.0551662     	smoothSolver	1.335450e-03	2.984420e-09	7	true	smoothSolver	5.375380e-02	2.772570e-03	1	true	GAMG	1.301810e-03	8.740120e-06	3	true	smoothSolver	1.792400e-03	4.932310e-05	2	true
0.0597194     	smoothSolver	1.431440e-03	4.368150e-09	7	true	smoothSolver	6.113560e-02	3.431570e-03	1	true	GAMG	1.773910e-03	8.249350e-06	3	true	smoothSolver	2.026330e-03	5.839090e-05	2	true
0.0647864     	smoothSolver	1.541890e-03	7.956790e-09	7	true	smoothSolver	6.966140e-02	4.322240e-03	1	true	GAMG	1.901330e-03	8.553430e-06	3	true	smoothSolver	2.299020e-03	7.275610e-05	2	true
0.0704266     	smoothSolver	1.673980e-03	3.198280e-09	8	true	smoothSolver	7.924000e-02	5.457950e-03	1	true	GAMG	1.943250e-03	8.643160e-06	3	true	smoothSolver	2.628730e-03	8.849730e-05	2	true
0.0767144     	smoothSolver	1.831470e-03	5.820870e-09	8	true	smoothSolver	9.042200e-02	6.962810e-03	1	true	GAMG	1.827990e-03	9.491660e-06	3	true	smoothSolver	3.043050e-03	1.092700e-04	2	true
0.0837577     	smoothSolver	2.039690e-03	2.689170e-09	9	true	smoothSolver	1.040790e-01	8.959510e-03	1	true	GAMG	1.932840e-03	1.003520e-05	3	true	smoothSolver	3.564010e-03	1.434530e-04	2	true
0.0916237     	smoothSolver	2.264870e-03	5.814340e-09	9	true	smoothSolver	1.193420e-01	1.162120e-02	1	true	GAMG	2.185370e-03	1.046460e-05	3	true	smoothSolver	4.159060e-03	1.865730e-04	2	true
0.0998592     	smoothSolver	2.343260e-03	7.696580e-09	9	true	smoothSolver	1.273060e-01	2.641290e-03	2	true	GAMG	3.221010e-03	1.136880e-05	3	true	smoothSolver	4.571060e-03	2.052270e-04	2	true
0.107576      	smoothSolver	2.172330e-03	4.177770e-09	9	true	smoothSolver	1.188760e-01	1.183360e-02	1	true	GAMG	2.420510e-03	1.087300e-05	3	true	smoothSolver	4.552620e-03	1.838470e-04	2	true
0.114922      	smoothSolver	2.062290e-03	2.943950e-09	9	true	smoothSolver	1.108910e-01	2.053980e-03	2	true	GAMG	2.343560e-03	1.007220e-05	3	true	smoothSolver	4.613570e-03	1.744880e-04	2	true
0.121851      	smoothSolver	1.915260e-03	8.646820e-09	8	true	smoothSolver	1.043730e-01	9.999840e-03	1	true	GAMG	2.264880e-03	9.486280e-06	3	true	smoothSolver	4.650800e-03	1.554100e-04	2	true
0.127918      	smoothSolver	1.753020e-03	4.975310e-09	8	true	smoothSolver	9.741050e-02	8.597280e-03	1	true	GAMG	2.273870e-03	9.379720e-06	3	true	smoothSolver	4.350620e-03	1.187780e-04	2	true
0.134287      	smoothSolver	1.791370e-03	8.957260e-09	8	true	smoothSolver	1.143470e-01	1.117750e-02	1	true	GAMG	2.414460e-03	1.015430e-05	3	true	smoothSolver	4.946040e-03	1.478050e-04	2	true
0.139912      	smoothSolver	1.620660e-03	5.817780e-09	8	true	smoothSolver	1.144330e-01	1.033450e-02	1	true	GAMG	2.384020e-03	9.036290e-06	3	true	smoothSolver	4.762210e-03	1.172530e-04	2	true
0.144383      	smoothSolver	1.246950e-03	6.692420e-09	7	true	smoothSolver	9.732260e-02	7.185040e-03	1	true	GAMG	2.140580e-03	7.401330e-06	3	true	smoothSolver	4.001220e-03	3.706680e-04	1	true
0.147409      	smoothSolver	8.471020e-04	2.397710e-09	6	true	smoothSolver	6.930900e-02	3.358440e-03	1	true	GAMG	1.885760e-03	6.684800e-06	3	true	smoothSolver	2.848080e-03	1.812660e-04	1	true
0.150215      	smoothSolver	7.853720e-04	7.920650e-09	5	true	smoothSolver	6.527610e-02	2.969520e-03	1	true	GAMG	1.898850e-03	6.580420e-06	3	true	smoothSolver	2.792190e-03	1.671660e-04	1	true
0.152583      	smoothSolver	6.625100e-04	2.711810e-09	5	true	smoothSolver	5.598280e-02	2.197340e-03	1	true	GAMG	1.861920e-03	6.221960e-06	3	true	smoothSolver	2.453510e-03	1.292280e-04	1	true
0.15493       	smoothSolver	6.609580e-04	2.572140e-09	5	true	smoothSolver	5.607360e-02	2.306120e-03	1	true	GAMG	1.855330e-03	6.644710e-06	3	true	smoothSolver	2.546540e-03	1.404070e-04	1	true
0.157118      	smoothSolver	6.198910e-04	1.723640e-09	5	true	smoothSolver	5.278700e-02	2.067180e-03	1	true	GAMG	1.908510e-03	6.838180e-06	3	true	smoothSolver	2.475310e-03	1.262820e-04	1	true
0.15956       	smoothSolver	6.975670e-04	2.879990e-09	5	true	smoothSolver	5.882320e-02	2.859860e-03	1	true	GAMG	1.929370e-03	7.097530e-06	3	true	smoothSolver	2.902600e-03	1.716740e-04	1	true
0.162406      	smoothSolver	8.179880e-04	6.474870e-09	5	true	smoothSolver	6.782840e-02	4.151420e-03	1	true	GAMG	1.970970e-03	7.747720e-06	3	true	smoothSolver	3.542930e-03	2.472370e-04	1	true
0.16582       	smoothSolver	9.805100e-04	3.275570e-09	6	true	smoothSolver	8.031650e-02	6.464610e-03	1	true	GAMG	2.113240e-03	8.927090e-06	3	true	smoothSolver	4.464760e-03	3.885630e-04	1	true
0.169865      	smoothSolver	1.162980e-03	8.145500e-09	6	true	smoothSolver	9.341320e-02	1.952600e-03	2	true	GAMG	2.270290e-03	9.719860e-06	3	true	smoothSolver	5.576430e-03	1.260420e-04	2	true
0.174541      	smoothSolver	1.333780e-03	4.603790e-09	7	true	smoothSolver	1.075070e-01	3.242100e-03	2	true	GAMG	2.458000e-03	1.040690e-05	3	true	smoothSolver	6.780600e-03	2.073630e-04	2	true
0.17985       	smoothSolver	1.497190e-03	9.386850e-09	7	true	smoothSolver	1.238740e-01	4.970120e-03	2	true	GAMG	2.668990e-03	1.123800e-05	3	true	smoothSolver	8.407530e-03	3.289880e-04	2	true
0.1858        	smoothSolver	1.671430e-03	5.621000e-09	8	true	smoothSolver	1.413990e-01	7.116330e-03	2	true	GAMG	2.868770e-03	1.227430e-05	3	true	smoothSolver	1.052690e-02	5.077930e-04	2	true
0.192211      	smoothSolver	1.820270e-03	3.055270e-09	9	true	smoothSolver	1.565820e-01	9.332760e-03	2	true	GAMG	2.926480e-03	1.261840e-05	3	true	smoothSolver	1.280730e-02	7.068170e-04	2	true
0.198673      	smoothSolver	1.854260e-03	3.460170e-09	9	true	smoothSolver	1.646390e-01	1.068740e-02	2	true	GAMG	2.950870e-03	1.262470e-05	3	true	smoothSolver	1.470600e-02	8.615300e-04	2	true
0.205007      	smoothSolver	1.844920e-03	3.150780e-09	9	true	smoothSolver	1.661270e-01	1.146060e-02	2	true	GAMG	3.256020e-03	1.333850e-05	3	true	smoothSolver	1.630560e-02	9.670110e-04	2	true
0.211108      	smoothSolver	1.817970e-03	7.607740e-09	8	true	smoothSolver	1.669180e-01	1.197830e-02	2	true	GAMG	3.972220e-03	1.390000e-05	3	true	smoothSolver	1.760260e-02	1.033600e-03	2	true
0.216843      	smoothSolver	1.738780e-03	5.398820e-09	8	true	smoothSolver	1.646270e-01	1.163750e-02	2	true	GAMG	3.923320e-03	1.331910e-05	3	true	smoothSolver	1.847610e-02	1.037990e-03	2	true
0.222398      	smoothSolver	1.723990e-03	4.523820e-09	8	true	smoothSolver	1.658780e-01	1.241750e-02	2	true	GAMG	4.312740e-03	1.503120e-05	3	true	smoothSolver	1.986970e-02	1.125030e-03	2	true
0.22758       	smoothSolver	1.610380e-03	3.181510e-09	8	true	smoothSolver	1.609740e-01	1.176010e-02	2	true	GAMG	3.324740e-03	1.211660e-05	3	true	smoothSolver	2.002080e-02	1.087920e-03	2	true
0.232551      	smoothSolver	1.553020e-03	9.243150e-09	7	true	smoothSolver	1.618620e-01	1.195590e-02	2	true	GAMG	3.445400e-03	1.192050e-05	3	true	smoothSolver	2.120340e-02	1.123090e-03	2	true
0.2373        	smoothSolver	1.476610e-03	7.737600e-09	7	true	smoothSolver	1.651670e-01	1.247880e-02	2	true	GAMG	3.949420e-03	3.620200e-05	2	true	smoothSolver	2.225150e-02	1.194580e-03	2	true
0.242096      	smoothSolver	1.472050e-03	7.775360e-09	7	true	smoothSolver	1.749870e-01	1.439700e-02	2	true	GAMG	4.003420e-03	3.780680e-05	2	true	smoothSolver	2.464040e-02	1.398380e-03	2	true
0.246724      	smoothSolver	1.424110e-03	5.746160e-09	7	true	smoothSolver	1.783950e-01	1.511810e-02	2	true	GAMG	3.809590e-03	3.704910e-05	2	true	smoothSolver	2.582430e-02	1.477140e-03	2	true
0.251234      	smoothSolver	1.376230e-03	4.631980e-09	7	true	smoothSolver	1.830220e-01	1.537870e-02	2	true	GAMG	4.148450e-03	1.372350e-05	3	true	smoothSolver	2.722380e-02	1.526780e-03	2	true
0.255917      	smoothSolver	1.431900e-03	5.890630e-09	7	true	smoothSolver	1.947560e-01	1.743790e-02	2	true	GAMG	3.938820e-03	1.290130e-05	3	true	smoothSolver	3.049060e-02	1.874700e-03	2	true
0.260783      	smoothSolver	1.494540e-03	7.164720e-09	7	true	smoothSolver	2.024990e-01	2.004980e-02	2	true	GAMG	4.000240e-03	1.345110e-05	3	true	smoothSolver	3.363450e-02	2.309210e-03	2	true
0.265664      	smoothSolver	1.501290e-03	7.209670e-09	7	true	smoothSolver	1.979600e-01	7.289320e-03	3	true	GAMG	4.027290e-03	1.394260e-05	3	true	smoothSolver	3.551590e-02	2.627850e-03	2	true
0.270585      	smoothSolver	1.502730e-03	7.662950e-09	7	true	smoothSolver	1.923810e-01	7.707060e-03	3	true	GAMG	4.017890e-03	1.389180e-05	3	true	smoothSolver	3.772480e-02	3.061070e-03	2	true
0.275401      	smoothSolver	1.462500e-03	7.353820e-09	7	true	smoothSolver	1.783520e-01	7.577030e-03	3	true	GAMG	4.162840e-03	1.421960e-05	3	true	smoothSolver	3.847240e-02	3.260830e-03	2	true
0.280149      	smoothSolver	1.430470e-03	6.869060e-09	7	true	smoothSolver	1.652970e-01	7.404600e-03	3	true	GAMG	3.893150e-03	1.367310e-05	3	true	smoothSolver	3.927210e-02	3.478090e-03	2	true
0.284304      	smoothSolver	1.243570e-03	9.500100e-09	6	true	smoothSolver	1.399340e-01	5.547670e-03	3	true	GAMG	3.858080e-03	1.322190e-05	3	true	smoothSolver	3.591470e-02	2.849060e-03	2	true
0.288264      	smoothSolver	1.182600e-03	8.766650e-09	6	true	smoothSolver	1.285020e-01	5.173700e-03	3	true	GAMG	3.589490e-03	1.164500e-05	3	true	smoothSolver	3.535370e-02	2.726350e-03	2	true
0.292063      	smoothSolver	1.134670e-03	6.510220e-09	6	true	smoothSolver	1.185170e-01	4.795600e-03	3	true	GAMG	3.728990e-03	1.171020e-05	3	true	smoothSolver	3.445830e-02	2.508780e-03	2	true
0.295696      	smoothSolver	1.085410e-03	4.540660e-09	6	true	smoothSolver	1.094620e-01	4.250450e-03	3	true	GAMG	3.386790e-03	1.056860e-05	3	true	smoothSolver	3.273230e-02	2.267600e-03	2	true
0.299383      	smoothSolver	1.100590e-03	4.423310e-09	6	true	smoothSolver	1.048980e-01	4.147440e-03	3	true	GAMG	3.497490e-03	1.113280e-05	3	true	smoothSolver	3.228370e-02	2.169120e-03	2	true
0.303168      	smoothSolver	1.134420e-03	4.238420e-09	6	true	smoothSolver	9.963860e-02	3.752400e-03	3	true	GAMG	3.445460e-03	1.095670e-05	3	true	smoothSolver	3.153780e-02	2.080090e-03	2	true
0.307357      	smoothSolver	1.267350e-03	6.623440e-09	6	true	smoothSolver	9.778400e-02	4.087640e-03	3	true	GAMG	3.728490e-03	1.232720e-05	3	true	smoothSolver	3.216980e-02	2.525910e-03	2	true
0.312045      	smoothSolver	1.420860e-03	2.976120e-09	7	true	smoothSolver	9.443600e-02	4.994460e-03	3	true	GAMG	3.876360e-03	1.301690e-05	3	true	smoothSolver	3.285370e-02	3.028940e-03	2	true
0.317307      	smoothSolver	1.603070e-03	4.884710e-09	7	true	smoothSolver	9.101680e-02	6.148720e-03	3	true	GAMG	4.114540e-03	1.427000e-05	3	true	smoothSolver	3.366360e-02	1.554540e-03	3	true
0.323168      	smoothSolver	1.800280e-03	8.161530e-09	7	true	smoothSolver	8.749150e-02	7.212030e-03	3	true	GAMG	4.539650e-03	1.553860e-05	3	true	smoothSolver	3.358200e-02	1.734670e-03	3	true
0.329297      	smoothSolver	1.897240e-03	9.281590e-09	7	true	smoothSolver	8.011090e-02	7.414240e-03	3	true	GAMG	4.314860e-03	1.524800e-05	3	true	smoothSolver	3.204310e-02	1.687790e-03	3	true
0.335652      	smoothSolver	1.978280e-03	9.577140e-09	7	true	smoothSolver	7.397320e-02	7.391450e-03	3	true	GAMG	4.487140e-03	1.542890e-05	3	true	smoothSolver	3.068280e-02	1.627010e-03	3	true
0.34205       	smoothSolver	2.011720e-03	8.837430e-09	7	true	smoothSolver	6.725830e-02	3.803930e-03	4	true	GAMG	4.749100e-03	1.626170e-05	3	true	smoothSolver	2.898800e-02	1.483280e-03	3	true
0.348666      	smoothSolver	2.078830e-03	8.970470e-09	7	true	smoothSolver	6.277170e-02	3.761330e-03	4	true	GAMG	4.946720e-03	1.700760e-05	3	true	smoothSolver	2.848020e-02	1.475550e-03	3	true
0.355264      	smoothSolver	2.074110e-03	7.271090e-09	7	true	smoothSolver	5.772110e-02	3.436320e-03	4	true	GAMG	4.763120e-03	1.682190e-05	3	true	smoothSolver	2.725290e-02	1.349290e-03	3	true
0.362249      	smoothSolver	2.204400e-03	8.633800e-09	7	true	smoothSolver	5.674050e-02	3.634130e-03	4	true	GAMG	4.747780e-03	1.726360e-05	3	true	smoothSolver	2.770740e-02	1.432430e-03	3	true
0.369473      	smoothSolver	2.277990e-03	8.401500e-09	7	true	smoothSolver	5.484130e-02	3.631950e-03	4	true	GAMG	4.875400e-03	1.820560e-05	3	true	smoothSolver	2.759010e-02	1.428800e-03	3	true
0.377039      	smoothSolver	2.358560e-03	8.706080e-09	7	true	smoothSolver	5.381630e-02	3.751490e-03	4	true	GAMG	4.974900e-03	1.854670e-05	3	true	smoothSolver	2.757690e-02	1.470580e-03	3	true
0.384718      	smoothSolver	2.374310e-03	8.034280e-09	7	true	smoothSolver	5.176080e-02	3.613010e-03	4	true	GAMG	4.882550e-03	1.849800e-05	3	true	smoothSolver	2.693370e-02	1.404170e-03	3	true
0.392901      	smoothSolver	2.500230e-03	9.854220e-09	7	true	smoothSolver	5.177670e-02	3.907770e-03	4	true	GAMG	4.944510e-03	1.869290e-05	3	true	smoothSolver	2.740080e-02	1.494990e-03	3	true
0.401355      	smoothSolver	2.605420e-03	9.851710e-09	7	true	smoothSolver	5.049260e-02	3.925870e-03	4	true	GAMG	5.093990e-03	1.931540e-05	3	true	smoothSolver	2.697380e-02	1.491680e-03	3	true
0.410443      	smoothSolver	2.866000e-03	3.624670e-09	8	true	smoothSolver	5.106260e-02	4.311350e-03	4	true	GAMG	5.170160e-03	1.981190e-05	3	true	smoothSolver	2.784090e-02	1.635640e-03	3	true
0.419867      	smoothSolver	2.993890e-03	4.255510e-09	8	true	smoothSolver	4.978000e-02	4.342760e-03	4	true	GAMG	5.198590e-03	1.965900e-05	3	true	smoothSolver	2.766230e-02	1.648040e-03	3	true
0.429781      	smoothSolver	3.144270e-03	6.387330e-09	8	true	smoothSolver	4.927160e-02	4.514570e-03	4	true	GAMG	5.351790e-03	2.054390e-05	3	true	smoothSolver	2.766070e-02	1.710790e-03	3	true
0.440121      	smoothSolver	3.250850e-03	9.917440e-09	8	true	smoothSolver	4.850970e-02	4.605040e-03	4	true	GAMG	5.811810e-03	2.196850e-05	3	true	smoothSolver	2.759090e-02	1.738550e-03	3	true
0.451003      	smoothSolver	3.461860e-03	4.415560e-09	9	true	smoothSolver	4.816360e-02	4.786060e-03	4	true	GAMG	5.835680e-03	2.251570e-05	3	true	smoothSolver	2.775200e-02	1.787690e-03	3	true
0.4606        	smoothSolver	3.276080e-03	9.786290e-09	8	true	smoothSolver	4.085100e-02	3.332690e-03	4	true	GAMG	5.592240e-03	2.091780e-05	3	true	smoothSolver	2.360840e-02	1.233020e-03	3	true
0.471383      	smoothSolver	3.777670e-03	6.646690e-09	9	true	smoothSolver	4.326180e-02	4.038690e-03	4	true	GAMG	5.824760e-03	2.265050e-05	3	true	smoothSolver	2.531700e-02	1.485780e-03	3	true
0.483395      	smoothSolver	4.337660e-03	4.686730e-09	10	true	smoothSolver	4.530810e-02	3.039480e-03	5	true	GAMG	6.068690e-03	2.437800e-05	3	true	smoothSolver	2.679820e-02	1.736600e-03	3	true
0.496082      	smoothSolver	4.825600e-03	8.311610e-09	10	true	smoothSolver	4.490050e-02	3.146080e-03	5	true	GAMG	6.336660e-03	2.654440e-05	3	true	smoothSolver	2.692620e-02	1.794090e-03	3	true
0.508593      	smoothSolver	4.921280e-03	7.664990e-09	10	true	smoothSolver	4.184620e-02	2.768190e-03	5	true	GAMG	6.499540e-03	2.696510e-05	3	true	smoothSolver	2.540430e-02	1.599950e-03	3	true
0.522         	smoothSolver	5.544160e-03	3.914830e-09	11	true	smoothSolver	4.202540e-02	2.979550e-03	5	true	GAMG	6.830280e-03	2.870550e-05	3	true	smoothSolver	2.611320e-02	1.728670e-03	3	true
0.535653      	smoothSolver	6.109070e-03	4.306370e-09	11	true	smoothSolver	4.026720e-02	2.846110e-03	5	true	GAMG	6.668790e-03	2.770340e-05	3	true	smoothSolver	2.543130e-02	1.664650e-03	3	true
0.54978       	smoothSolver	6.521540e-03	7.031270e-09	11	true	smoothSolver	3.903480e-02	2.826760e-03	5	true	GAMG	6.429520e-03	2.749000e-05	3	true	smoothSolver	2.524760e-02	1.655830e-03	3	true
0.564136      	smoothSolver	7.115080e-03	9.011950e-09	11	true	smoothSolver	3.744090e-02	2.698180e-03	5	true	GAMG	6.310140e-03	2.731100e-05	3	true	smoothSolver	2.485700e-02	1.587120e-03	3	true
0.581329      	smoothSolver	8.806050e-03	4.759850e-09	13	true	smoothSolver	4.134370e-02	3.711200e-03	5	true	GAMG	6.614390e-03	2.860600e-05	3	true	smoothSolver	2.838450e-02	2.113270e-03	3	true
0.601977      	smoothSolver	1.133610e-02	9.433550e-09	14	true	smoothSolver	4.537120e-02	3.553530e-03	6	true	GAMG	6.756760e-03	2.882040e-05	3	true	smoothSolver	3.223240e-02	2.767160e-03	3	true
0.626685      	smoothSolver	1.432030e-02	8.838810e-09	16	true	smoothSolver	4.908990e-02	4.670760e-03	6	true	GAMG	6.690700e-03	2.743900e-05	3	true	smoothSolver	3.608880e-02	3.493450e-03	3	true
0.656235      	smoothSolver	1.833940e-02	8.325970e-09	19	true	smoothSolver	5.262250e-02	4.485270e-03	7	true	GAMG	6.752640e-03	2.790180e-05	3	true	smoothSolver	4.034610e-02	2.775600e-03	4	true
0.69155       	smoothSolver	2.391580e-02	9.949490e-09	22	true	smoothSolver	5.611570e-02	5.520030e-03	7	true	GAMG	5.859510e-03	2.489040e-05	3	true	smoothSolver	4.426470e-02	3.176710e-03	4	true
0.733789      	smoothSolver	3.110300e-02	9.723780e-09	25	true	smoothSolver	6.041490e-02	5.345230e-03	8	true	GAMG	6.953240e-03	2.978250e-05	3	true	smoothSolver	4.925810e-02	3.647800e-03	4	true
0.782826      	smoothSolver	4.044650e-02	9.036590e-09	27	true	smoothSolver	6.445140e-02	6.093700e-03	8	true	GAMG	5.385810e-03	3.376270e-05	3	true	smoothSolver	5.471350e-02	4.232010e-03	4	true
0.837595      	smoothSolver	5.151990e-02	9.141820e-09	28	true	smoothSolver	6.846030e-02	6.482130e-03	8	true	GAMG	5.629170e-03	3.765740e-05	3	true	smoothSolver	6.082370e-02	4.867400e-03	4	true
0.877618      	smoothSolver	4.251270e-02	8.198320e-09	23	true	smoothSolver	5.498890e-02	4.649160e-03	7	true	GAMG	6.100300e-03	3.074440e-05	3	true	smoothSolver	5.120570e-02	4.699630e-03	3	true
0.923937      	smoothSolver	4.541450e-02	6.897290e-09	25	true	smoothSolver	6.262420e-02	5.438800e-03	7	true	GAMG	5.610120e-03	2.911590e-05	3	true	smoothSolver	6.258530e-02	4.353760e-03	4	true
0.954584      	smoothSolver	3.599970e-02	7.819190e-09	20	true	smoothSolver	4.772670e-02	4.578880e-03	5	true	GAMG	5.662360e-03	2.486280e-05	3	true	smoothSolver	4.923760e-02	3.596860e-03	3	true
0.974222      	smoothSolver	2.123830e-02	5.076690e-09	16	true	smoothSolver	3.531070e-02	2.928690e-03	4	true	GAMG	5.159540e-03	2.048680e-05	3	true	smoothSolver	3.786790e-02	1.847440e-03	3	true
0.997492      	smoothSolver	2.404230e-02	5.704790e-09	18	true	smoothSolver	4.600990e-02	4.339640e-03	4	true	GAMG	5.066690e-03	2.080410e-05	3	true	smoothSolver	4.922000e-02	3.068920e-03	3	true
1.02435       	smoothSolver	2.946640e-02	5.833320e-09	20	true	smoothSolver	5.914100e-02	4.166670e-03	5	true	GAMG	4.778470e-03	2.057110e-05	3	true	smoothSolver	6.049240e-02	4.461660e-03	3	true
1.05541       	smoothSolver	3.595300e-02	7.504820e-09	22	true	smoothSolver	7.798500e-02	6.054230e-03	5	true	GAMG	4.771770e-03	2.070610e-05	3	true	smoothSolver	7.345810e-02	6.512250e-03	3	true
1.09032       	smoothSolver	4.442020e-02	7.495120e-09	24	true	smoothSolver	1.045430e-01	8.873860e-03	5	true	GAMG	4.833300e-03	2.032530e-05	3	true	smoothSolver	8.686150e-02	5.947090e-03	4	true
1.12756       	smoothSolver	5.276210e-02	8.554220e-09	26	true	smoothSolver	1.402650e-01	1.285090e-02	5	true	GAMG	5.059570e-03	2.056770e-05	3	true	smoothSolver	9.823150e-02	7.977310e-03	4	true
1.15117       	smoothSolver	3.791180e-02	9.279110e-09	21	true	smoothSolver	1.277510e-01	8.638840e-03	5	true	GAMG	5.462820e-03	1.944120e-05	3	true	smoothSolver	7.962410e-02	7.618010e-03	3	true
1.17243       	smoothSolver	3.062930e-02	7.414690e-09	21	true	smoothSolver	1.522350e-01	1.015990e-02	5	true	GAMG	4.914350e-03	1.906790e-05	3	true	smoothSolver	8.811070e-02	8.753090e-03	3	true
1.19129       	smoothSolver	2.914610e-02	7.534610e-09	20	true	smoothSolver	1.717300e-01	1.643110e-02	4	true	GAMG	4.878840e-03	1.783540e-05	3	true	smoothSolver	9.138090e-02	8.652480e-03	3	true
1.21245       	smoothSolver	3.389470e-02	7.667520e-09	22	true	smoothSolver	2.136470e-01	1.428850e-02	5	true	GAMG	4.934940e-03	1.795840e-05	3	true	smoothSolver	1.076670e-01	6.390150e-03	4	true
1.23228       	smoothSolver	3.526020e-02	8.423610e-09	21	true	smoothSolver	2.203060e-01	1.424790e-02	5	true	GAMG	4.858930e-03	1.899350e-05	3	true	smoothSolver	1.048330e-01	9.866390e-03	3	true
1.25444       	smoothSolver	4.015970e-02	7.531250e-09	23	true	smoothSolver	2.380770e-01	1.905740e-02	5	true	GAMG	4.820190e-03	1.928400e-05	3	true	smoothSolver	1.135370e-01	6.897700e-03	4	true
1.27609       	smoothSolver	4.204350e-02	6.800620e-09	23	true	smoothSolver	2.350270e-01	2.086230e-02	5	true	GAMG	4.776200e-03	1.808390e-05	3	true	smoothSolver	1.073060e-01	1.014110e-02	3	true
1.29529       	smoothSolver	3.770070e-02	9.694880e-09	20	true	smoothSolver	2.125190e-01	1.829720e-02	5	true	GAMG	4.651830e-03	1.663690e-05	3	true	smoothSolver	1.030060e-01	8.527330e-03	3	true
1.31622       	smoothSolver	3.896080e-02	7.329220e-09	21	true	smoothSolver	2.169590e-01	1.890600e-02	6	true	GAMG	4.672850e-03	1.673490e-05	3	true	smoothSolver	1.108260e-01	7.650080e-03	4	true
1.32875       	smoothSolver	2.391900e-02	8.782300e-09	14	true	smoothSolver	1.578070e-01	1.493860e-02	5	true	GAMG	4.479630e-03	1.470800e-05	3	true	smoothSolver	5.960120e-02	4.438440e-03	4	true
1.34287       	smoothSolver	2.358160e-02	6.815990e-09	15	true	smoothSolver	2.102620e-01	2.083120e-02	6	true	GAMG	4.325200e-03	1.363100e-05	3	true	smoothSolver	7.052980e-02	6.019590e-03	6	true
1.35395       	smoothSolver	1.879150e-02	5.449650e-09	13	true	smoothSolver	2.490600e-01	1.726990e-02	6	true	GAMG	4.078750e-03	1.293150e-05	3	true	smoothSolver	7.642890e-02	6.207060e-03	6	true
1.36188       	smoothSolver	1.290350e-02	4.565480e-09	12	true	smoothSolver	3.496100e-01	2.108640e-02	5	true	GAMG	3.779470e-03	1.157190e-05	3	true	smoothSolver	9.216050e-02	8.779030e-03	5	true
1.36693       	smoothSolver	8.069320e-03	7.526030e-09	12	true	smoothSolver	5.086170e-01	3.202590e-02	4	true	GAMG	3.466810e-03	1.128950e-05	3	true	smoothSolver	1.594580e-01	1.393570e-02	5	true
1.36919       	smoothSolver	3.640000e-03	8.120170e-09	11	true	smoothSolver	4.983090e-01	4.505330e-02	3	true	GAMG	3.320790e-03	2.152740e-05	3	true	smoothSolver	1.942370e-01	1.227300e-02	4	true
1.37045       	smoothSolver	2.074530e-03	6.894880e-09	10	true	smoothSolver	4.259900e-01	3.676500e-02	3	true	GAMG	4.065380e-03	3.433790e-05	3	true	smoothSolver	1.983980e-01	1.377060e-02	3	true