# k  POINT_DATA 29553
# x  y  z  k
0 0.00104602 7.11428e-09 0.00120684
0 -0.000203993 0.00116943 0.00120944
0 -0.00145398 7.75775e-09 0.00121197
1.08622e-19 0.001046 0.00233887 0.000938314
0 0.002296 0.00116944 0.00120424
1.18108e-20 -0.001454 0.00233887 0.000943452
1.0842e-19 -0.002704 0.00116943 0.0012145
0 0.001046 0.00323022 0.000792175
0 0.003546 7.22173e-09 0.00120156
0 -0.000203999 0.00356872 0.000668083
2.58494e-26 -0.00273457 0.00233887 0.00094603
-5.16988e-26 -0.001454 0.00361264 0.000734002
-1.65436e-24 -0.003954 7.73917e-09 0.00121695
-1.0842e-19 0.002296 0.00356872 0.000662908
5.16988e-26 0.003546 0.00233887 0.000933074
0 -0.002704 0.00356872 0.000673201
4.1359e-25 -0.003954 0.00225921 0.000957629
0 -0.003954 0.00233887 0.000948485
0 0.001046 0.00479858 0.000535037
0 0.004796 0.00116943 0.00119888
0 0.003546 0.00343605 0.000753751
5.16988e-26 -0.001454 0.00479858 0.000538994
0 -0.00520401 0.00116943 0.00121939
5.32577e-20 0.003546 0.00479858 0.000531061
0 0.004796 0.00356872 0.000657682
0 0.006046 7.79493e-09 0.00119611
0 -0.000204 0.00608215 0.000404064
0 -0.003954 0.00479858 0.000542925
0 -0.005204 0.00356872 0.000678255
-8.27181e-25 -0.00645401 6.20271e-09 0.00122176
5.41565e-20 0.006046 0.00233887 0.000927727
1.0842e-19 0.002296 0.00608215 0.000401321
0 -0.002704 0.00608215 0.000406822
0 -0.00645401 0.00212494 0.000977944
-1.03398e-25 -0.00645401 0.00233887 0.000953398
0 0.007296 0.00116943 0.00119335
2.58494e-26 0.006046 0.00431085 0.000606516
4.51289e-20 0.001046 0.00736572 0.000363925
0 -0.001454 0.00736572 0.000365675
-2.58494e-26 0.006046 0.00479858 0.000527072
0 0.004796 0.00608215 0.000398597
-1.0842e-19 -0.00770401 0.00116944 0.00122411
0 -0.005204 0.00608215 0.000409584
5.16988e-26 -0.006454 0.00479858 0.000546823
1.0842e-19 0.007296 0.00356872 0.000652409
3.50425e-20 0.003546 0.00736572 0.000362204
7.84787e-20 -0.003954 0.00736572 0.000367448
-1.0842e-19 -0.007704 0.00356872 0.000683236
-1.65436e-24 0.00854602 8.72316e-09 0.0011905
0 -0.000204 0.008656 0.000325451
-6.84192e-20 0.008546 0.00233886 0.000922279
0 -0.00895401 5.46843e-09 0.00122639
0 0.002296 0.008656 0.000324724
1.0842e-19 -0.002704 0.00865601 0.000326218
-1.03398e-25 -0.00895401 0.001998 0.000997271
0 -0.00895401 0.00233887 0.000958182
6.46235e-27 0.00800744 0.00479858 0.000523945
0 0.007296 0.00608215 0.000395899
0 0.006046 0.00736572 0.000360518
3.23117e-27 -0.001454 0.0096327 0.00032098
7.33351e-20 -0.006454 0.00736572 0.000369239
-7.59312e-20 0.008546 0.00479858 0.000523086
1.0842e-19 -0.007704 0.00608215 0.000412343
-2.1684e-19 0.009796 0.00116943 0.00118765
-1.0842e-19 0.004796 0.008656 0.000324038
8.07794e-28 -0.000473983 0.00994629 0.000314734
1.61559e-27 0.001046 0.00994629 0.000314636
0 -0.001454 0.00994629 0.000314798
0 -0.0100624 0 0.00122836
-2.1684e-19 -0.005204 0.00865601 0.000327021
0 -0.008954 0.00479858 0.000550677
0 -0.003954 0.00935899 0.000326937
1.0842e-19 -0.010204 0.00116944 0.00122865
-1.0842e-19 0.009796 0.00356872 0.00064712
0 0.003546 0.00994629 0.000314523
-2.03057e-20 -0.003954 0.00994629 0.000315001
-3.23117e-27 0.008546 0.0065421 0.000411562
2.1684e-19 -0.010204 0.00356873 0.000688134
0 0.011046 1.00042e-08 0.0011847
-1.0842e-19 -0.000204 0.011217 0.000304013
0 0.008546 0.00736572 0.00035888
-9.5347e-20 0.011046 0.00233887 0.000916741
1.0842e-19 0.007296 0.00865601 0.000323402
1.0842e-19 0.002296 0.011217 0.000304466
0 -0.011454 6.86537e-09 0.00123083
1.0842e-19 0.009796 0.00608215 0.000393256
-2.1684e-19 -0.002704 0.011217 0.000303624
0 -0.007704 0.00865601 0.000327855
0 -0.008954 0.00736572 0.000371041
0 0.006046 0.00994629 0.000314458
0 -0.011454 0.00233887 0.00096283
8.07794e-28 -0.006454 0.00988095 0.0003166
9.58885e-20 -0.006454 0.00994629 0.000315233
-3.23117e-27 0.00931614 0.00736572 0.000358395
0 -0.010204 0.00608215 0.000415092
-1.66384e-19 0.011046 0.00479858 0.00051914
4.03897e-28 -0.00682261 0.00994629 0.000315271
0 0.004796 0.011217 0.000304966
-4.03897e-28 0.001046 0.0122979 0.000300173
0 0.012296 0.00116943 0.00118176
0 -0.005204 0.011217 0.000303262
0 -0.011454 0.00479858 0.000554485
3.43961e-20 0.001046 0.0124878 0.000299004
-8.184e-20 -0.001454 0.0124878 0.000298244
2.01948e-28 0.00176244 0.0124878 0.000299238
8.27181e-25 -0.0126866 0 0.00123293
1.0842e-19 -0.012704 0.00116943 0.001233
0 0.012296 0.00356872 0.000641862
0 0.003546 0.0124878 0.000299821
-1.0842e-19 0.009796 0.008656 0.000322832
-6.60941e-20 -0.003954 0.0124878 0.000297533
0 0.008546 0.00994629 0.000314453
-2.1684e-19 -0.012704 0.00356872 0.000692946
-3.31624e-20 0.011046 0.00736572 0.000357307
0 -0.010204 0.008656 0.000328717
1.0842e-19 0.007296 0.011217 0.000305521
-1.61559e-27 -0.008954 0.00994629 0.00031549
-4.03897e-28 0.00908517 0.00994629 0.000314466
1.65436e-24 0.013546 1.10685e-08 0.00117868
0 -0.007704 0.011217 0.000302921
2.58494e-26 -0.011454 0.00736572 0.000372851
-2.1684e-19 0.012296 0.00608215 0.000390699
1.0842e-19 -0.000204 0.0137433 0.000293227
-1.18111e-19 0.013546 0.00233887 0.000911115
0 0.006046 0.0124878 0.000300691
0 0.002296 0.0137433 0.000294354
0 -0.013954 7.05929e-09 0.00123508
0 -0.002704 0.0137433 0.000292157
-1.14467e-19 -0.006454 0.0124878 0.000296857
0 -0.012704 0.00608215 0.000417832
-7.23783e-25 -0.013954 0.00214735 0.000989263
1.03398e-25 -0.013954 0.00233887 0.000967338
1.54667e-19 0.013546 0.00479858 0.000515274
1.0842e-19 0.004796 0.0137433 0.000295536
2.01948e-28 0.008546 0.0119353 0.000304413
0 -0.005204 0.0137433 0.000291137
-2.01948e-28 0.00782085 0.0124878 0.000301354
0 -0.013954 0.00479858 0.000558242
0 0.014796 0.00116943 0.0011756
1.37052e-19 0.011046 0.00994629 0.000314512
-1.0842e-19 0.009796 0.011217 0.000306146
7.21934e-20 0.001046 0.0149988 0.000287885
0 0.012296 0.008656 0.000322316
9.65262e-21 -0.001454 0.0149988 0.000286608
-2.01948e-28 0.008546 0.0124878 0.000301624
0 -0.010204 0.011217 0.000302601
0 -0.011454 0.00994629 0.000315773
0 0.014796 0.00356872 0.000636678
0 -0.015204 0.00116943 0.00123716
1.21169e-27 -0.008954 0.0123912 0.000296945
0 0.00296952 0.0149988 0.000288909
0 -0.008954 0.0124878 0.000296213
0 -0.012704 0.008656 0.000329604
0 0.003546 0.0149988 0.000289216
-3.98254e-20 0.013546 0.00736572 0.000355843
-4.43593e-20 -0.003954 0.0149988 0.000285384
1.0842e-19 0.007296 0.0137433 0.000296778
0 -0.015204 0.00356872 0.00069767
-1.51461e-28 -0.00938579 0.0124878 0.000296107
0 -0.007704 0.0137433 0.00029016
0 -0.013954 0.00736572 0.000374667
-1.0842e-19 0.014796 0.00608215 0.000388274
-1.65436e-24 0.016046 1.17795e-08 0.00117237
1.26218e-29 0.006046 0.0149988 0.000290604
2.79943e-20 0.016046 0.00233887 0.000905388
0 -0.000204 0.0162494 0.000281246
1.26879e-20 -0.006454 0.0149988 0.000284206
-2.1684e-19 -0.015204 0.00608215 0.000420557
0 0.002296 0.0162494 0.000282727
-6.31089e-30 0.00672626 0.0149988 0.000290999
-8.27181e-25 -0.016454 6.56922e-09 0.00123914
-1.0842e-19 -0.002704 0.0162494 0.000279818
8.07794e-28 -0.016454 0.00233887 0.00097174
0 0.012296 0.011217 0.000306841
5.18393e-20 0.011046 0.0124878 0.000302627
0 -0.0165244 0.00233887 0.000971821
-3.67342e-20 0.016046 0.00479858 0.00051153
6.18139e-20 0.013546 0.00994629 0.000314668
-1.0842e-19 0.009796 0.0137433 0.000298087
1.0842e-19 0.004796 0.0162494 0.000284261
-4.03897e-28 -0.011454 0.0124878 0.000295598
0 -0.012704 0.011217 0.000302307
1.0842e-19 -0.005204 0.0162494 0.00027844
0 -0.010204 0.0137433 0.000289222
0 -0.013954 0.00994629 0.000316079
-1.03398e-25 -0.016454 0.00479858 0.000561948
-1.0842e-19 0.014796 0.008656 0.000321961
0 0.008546 0.0149988 0.000292056
0 0.017296 0.00116943 0.00116913
-1.04052e-19 -0.008954 0.0149988 0.000283071
0 -0.015204 0.008656 0.000330513
-3.54893e-20 0.001046 0.0175 0.00027338
1.42066e-19 -0.001454 0.0175 0.000271858
-3.15544e-30 0.003546 0.0172644 0.000276297
-6.78833e-20 0.016046 0.00736572 0.000354544
-2.1684e-19 0.017296 0.00356872 0.000631601
1.0842e-19 -0.017704 0.00116943 0.00124111
-2.1684e-19 0.007296 0.0162494 0.000285857
-1.57772e-30 0.003546 0.0175 0.000274954
4.20658e-20 -0.003954 0.0175 0.000270383
-1.0842e-19 -0.007704 0.0162494 0.000277106
0 -0.016454 0.00736572 0.000376485
0 -0.017704 0.00356873 0.000702308
0 0.006046 0.0171736 0.000278413
1.26218e-29 -0.0105114 0.0149988 0.000282387
1.0842e-19 0.017296 0.00608215 0.000386023
-2.12774e-20 0.013546 0.0124878 0.000303709
-1.0842e-19 0.012296 0.0137433 0.000299466
0 0.006046 0.0175 0.000276583
1.65436e-24 0.018546 1.2351e-08 0.00116573
-1.0842e-19 0.014796 0.011217 0.000307632
1.26218e-28 0.0137547 0.0124878 0.000303807
-1.06602e-19 0.011046 0.0149988 0.000293575
8.08447e-20 -0.006454 0.0175 0.000268953
1.11276e-19 0.018546 0.00233887 0.000899571
1.0842e-19 -0.012704 0.0137433 0.000288317
0 -0.017704 0.00608215 0.000423265
0 -0.013954 0.0124878 0.000295011
0 -0.000204 0.01875 0.000263969
0 -0.011454 0.0149988 0.000281972
-8.56718e-20 0.016046 0.00994629 0.000314965
-1.0842e-19 0.002296 0.01875 0.000265583
1.0842e-19 -0.015204 0.011217 0.000302037
0 -0.002704 0.01875 0.000262401
8.27181e-25 -0.018954 6.6199e-09 0.00124299
1.0842e-19 0.009796 0.0162494 0.000287516
-2.58494e-26 -0.018954 0.00233887 0.000975922
4.97932e-20 0.018546 0.00479858 0.000507952
1.0842e-19 -0.010204 0.0162494 0.000275813
0 -0.018954 0.00305909 0.000855777
-4.73061e-20 -0.016454 0.00994629 0.000316407
2.1684e-19 0.017296 0.008656 0.000321801
0 0.004796 0.01875 0.000267249
0 -0.005204 0.01875 0.000260876
-3.54882e-20 0.008546 0.0175 0.000278271
0 -0.018954 0.00479858 0.000565599
0 0.013546 0.0141132 0.00029818
-1.91544e-20 -0.008954 0.0175 0.000267564
-1.26218e-29 0.0127207 0.0149988 0.000294642
0 -0.017704 0.008656 0.000331438
0 0.019796 0.00116943 0.00116233
-7.69895e-20 0.018546 0.00736572 0.000353416
3.28979e-21 0.001046 0.02 0.000253124
-9.67102e-20 -0.001454 0.02 0.000251534
0 0.016046 0.0120613 0.000306578
-1.0842e-19 0.019796 0.00356872 0.000626705
0 0.007296 0.01875 0.000268968
0 0.014796 0.0137433 0.000300926
1.26218e-29 0.013546 0.0149988 0.000295168
1.0842e-19 -0.020204 0.00116943 0.00124487
-1.0842e-19 -0.007704 0.01875 0.000259393
3.28979e-21 0.003546 0.02 0.00025476
-4.03897e-28 0.016046 0.0124878 0.000304887
0 -0.018954 0.00736572 0.0003783
1.0842e-19 0.012296 0.0162494 0.000289244
-9.67102e-20 -0.003954 0.02 0.000249986
-1.00974e-28 -0.013954 0.0149988 0.000280906
0 -0.015204 0.0137433 0.00028744
0 -0.020204 0.00356872 0.000706855
1.0842e-19 0.017296 0.011217 0.000308538
1.0842e-19 -0.012704 0.0162494 0.000274555
3.23117e-27 -0.016454 0.0124878 0.00029445
-3.54882e-20 0.011046 0.0175 0.000280022
-2.1684e-19 0.019796 0.00608215 0.000383976
1.57772e-29 -0.011454 0.0173004 0.000267469
6.45119e-20 0.006046 0.02 0.000256444
0 -0.011454 0.0175 0.000266211
1.0842e-19 -0.017704 0.011217 0.000301791
8.08456e-20 -0.006454 0.02 0.000248477
-3.70875e-20 0.018546 0.00994629 0.000315394
-1.65436e-24 0.021046 1.32786e-08 0.00115886
-1.0842e-19 -0.020204 0.00608215 0.000425952
-1.0842e-19 0.009796 0.01875 0.000270746
-3.32229e-20 0.021046 0.00233887 0.000893765
0 -0.000204 0.02125 0.000240668
0 -0.010204 0.01875 0.000257946
0 0.002296 0.02125 0.000242277
0 -0.018954 0.00994629 0.000316754
-1.0842e-19 -0.002704 0.02125 0.000239099
-1.65436e-24 -0.021454 7.86035e-09 0.00124664
-3.67055e-20 -0.021454 0.00233887 0.000979996
1.64666e-19 0.021046 0.00479858 0.000504625
0 0.019796 0.008656 0.000321748
0 0.0176473 0.0124878 0.000305708
-1.13044e-19 0.008546 0.02 0.000258182
1.0842e-19 0.004796 0.02125 0.00024393
-1.0842e-19 -0.005204 0.02125 0.000237568
8.08456e-20 -0.008954 0.02 0.000247005
0 -0.021454 0.00449012 0.000620711
3.15544e-30 0.013546 0.0172844 0.000282992
0 0.016046 0.0149988 0.000296844
1.0842e-19 0.014796 0.0162494 0.000291047
0 -0.020204 0.008656 0.000332377
0 -0.021454 0.00479858 0.000569195
-1.0842e-19 0.017296 0.0137433 0.000302477
-9.67096e-20 0.013546 0.0175 0.000281843
0 -0.015204 0.0162494 0.000273328
-2.01948e-28 -0.016454 0.0149988 0.000279867
1.19679e-19 0.021046 0.00736572 0.000352477
-1.0842e-19 0.022296 0.00116943 0.00115539
9.46633e-30 -0.013954 0.0174568 0.000265167
-7.79273e-20 0.018546 0.0124878 0.000306169
0 -0.013954 0.0175 0.000264891
0 -0.017704 0.0137433 0.00028659
-1.0842e-19 0.012296 0.01875 0.000272588
-1.0842e-19 0.007296 0.02125 0.000245631
8.08456e-20 0.001046 0.0225 0.000227134
8.08456e-20 -0.001454 0.0225 0.000225591
-1.0842e-19 0.022296 0.00356872 0.000622155
1.0842e-19 -0.007704 0.02125 0.000236072
0 -0.012704 0.01875 0.000256533
0 -0.021454 0.00736572 0.000380111
0 -0.018954 0.0124878 0.000293912
0 -0.022704 0.00116943 0.00124842
-2.1684e-19 0.019796 0.011217 0.000309558
-9.67102e-20 0.003546 0.0225 0.000228715
3.28979e-21 -0.003954 0.0225 0.000224085
3.28979e-21 0.011046 0.02 0.000259976
0 -0.0224661 0.00479858 0.000570627
2.1684e-19 -0.022704 0.00356872 0.000711312
1.58401e-19 -0.011454 0.02 0.000245566
-1.0842e-19 -0.020204 0.011217 0.000301566
2.1684e-19 0.022296 0.00608215 0.000382202
-1.26589e-20 0.021046 0.00994629 0.000315957
-3.54881e-20 0.006046 0.0225 0.000230339
0 0.009796 0.02125 0.000247383
-9.67102e-20 -0.006454 0.0225 0.000222613
0 -0.022704 0.00608215 0.000428617
0 0.023546 1.4979e-08 0.00115199
0 -0.010204 0.02125 0.000234609
-2.52435e-29 0.018546 0.0146545 0.000299648
0 -0.021454 0.00994629 0.000317118
-7.77765e-20 0.023546 0.00233888 0.000888115
-2.99767e-29 0.016046 0.0174447 0.00028403
1.0842e-19 0.017296 0.0162494 0.000292936
-1.91538e-20 0.016046 0.0175 0.00028374
-1.0842e-19 -0.000204 0.02375 0.000212039
0 0.018546 0.0149988 0.000298611
1.0842e-19 0.002296 0.02375 0.000213552
-1.0842e-19 0.014796 0.01875 0.000274497
0 -0.002704 0.02375 0.000210561
-1.0842e-19 0.022296 0.008656 0.000321871
1.65436e-24 -0.023954 9.64824e-09 0.00125009
1.26218e-29 -0.016454 0.0174796 0.000263731
-1.57772e-30 -0.016454 0.0175 0.000263599
-4.44498e-20 0.023546 0.00479858 0.00050158
-1.0842e-19 -0.017704 0.0162494 0.000272128
-9.04137e-20 -0.023954 0.00233887 0.00098392
-3.54881e-20 0.008546 0.0225 0.000232009
1.0842e-19 0.019796 0.0137433 0.000304126
0 -0.015204 0.01875 0.000255149
-1.91544e-20 0.013546 0.02 0.000261833
0 -0.018954 0.0149988 0.000278854
0 0.0189756 0.0149988 0.000298933
-1.91544e-20 -0.008954 0.0225 0.000221173
1.0842e-19 0.004796 0.02375 0.000215102
1.0842e-19 -0.022704 0.008656 0.000333327
-1.0842e-19 -0.005204 0.02375 0.000209115
1.58401e-19 -0.013954 0.02 0.000244157
6.90159e-20 -0.023954 0.00479858 0.000572732
2.1684e-19 -0.020204 0.0137433 0.000285764
-1.3697e-19 0.021046 0.0124878 0.000307565
-1.0842e-19 0.012296 0.02125 0.00024919
1.55749e-19 0.023546 0.00736572 0.000351767
-1.0842e-19 -0.012704 0.02125 0.000233176
0 -0.023954 0.00649991 0.000446272
0 0.024796 0.00116943 0.00114859
-3.23117e-27 -0.021454 0.0124878 0.000293398
0 0.007296 0.02375 0.000216693
1.0842e-19 0.022296 0.011217 0.000310713
0 -0.007704 0.02375 0.000207699
-1.91544e-20 0.001046 0.025 0.000196398
8.08456e-20 -0.001454 0.025 0.000194983
1.0842e-19 0.024796 0.00356872 0.000617888
0 -0.023954 0.00736572 0.000381916
8.08456e-20 0.011046 0.0225 0.000233728
-1.0842e-19 -0.025204 0.00116944 0.00125176
5.84013e-20 -0.011454 0.0225 0.000219762
8.08456e-20 0.003546 0.025 0.000197847
3.28979e-21 -0.003954 0.025 0.000193598
1.0842e-19 -0.022704 0.011217 0.000301365
7.88861e-30 0.018546 0.0173753 0.000286363
1.0842e-19 -0.025204 0.00356872 0.000715673
0 0.018546 0.0175 0.00028572
0 0.017296 0.01875 0.000276481
1.0842e-19 0.024796 0.00608215 0.000380654
1.18654e-21 0.023546 0.00994629 0.000316699
1.0842e-19 0.019796 0.0162494 0.000294919
1.58401e-19 0.016046 0.02 0.000263756
0 0.009796 0.02375 0.000218328
3.28979e-21 0.006046 0.025 0.000199332
0 -0.017704 0.01875 0.000253793
-5.83757e-29 -0.018954 0.0174859 0.000262427
-9.67102e-20 -0.018954 0.0175 0.000262334
3.28979e-21 -0.006454 0.025 0.000192243
-1.12244e-19 0.021046 0.0149988 0.00030048
1.0842e-19 -0.010204 0.02375 0.000206313
-1.0842e-19 0.014796 0.02125 0.000251057
-9.67102e-20 -0.016454 0.02 0.000242776
0 -0.025204 0.00608215 0.000431258
1.0842e-19 -0.020204 0.0162494 0.000270954
1.29247e-26 -0.023954 0.00994629 0.000317498
3.30872e-24 0.026046 1.67421e-08 0.00114549
0 -0.015204 0.02125 0.00023177
-1.18197e-19 0.026046 0.00233888 0.000882612
0 -0.021454 0.0149988 0.000277867
1.0842e-19 0.022296 0.0137433 0.000305883
-1.0842e-19 -0.000204 0.02625 0.000179326
1.58401e-19 0.013546 0.0225 0.000235501
-1.0842e-19 0.024796 0.008656 0.000322237
0 0.002296 0.02625 0.000180677
0 -0.002704 0.02625 0.000178005
3.28979e-21 0.008546 0.025 0.000200856
0 -0.026454 1.03089e-08 0.00125333
1.58401e-19 -0.013954 0.0225 0.000218379
-2.36214e-20 0.026046 0.00479858 0.000498493
-1.0842e-19 -0.022704 0.0137433 0.000284962
-9.67102e-20 -0.008954 0.025 0.000190915
0 -0.026454 0.00233887 0.000987695
-1.0842e-19 -0.025204 0.008656 0.000334286
-1.97619e-20 0.023546 0.0124878 0.000309094
-1.0842e-19 0.004796 0.02625 0.000182059
-1.0842e-19 0.012296 0.02375 0.000220011
0 -0.005204 0.02625 0.000176712
-5.16988e-26 -0.026454 0.00479858 0.000576209
0 -0.012704 0.02375 0.000204953
0 -0.023954 0.0124878 0.000292907
-1.29593e-20 0.026046 0.00736572 0.000351125
0 0.024796 0.011217 0.000312033
-1.0842e-19 0.007296 0.02625 0.000183476
0 0.019796 0.01875 0.000278547
1.58401e-19 0.018546 0.02 0.000265752
1.0842e-19 0.027296 0.00116943 0.00114239
8.08456e-20 0.011046 0.025 0.000202423
1.29247e-26 -0.026454 0.00693693 0.000415864
0 -0.007704 0.02625 0.000175445
-1.91544e-20 0.021046 0.0175 0.000287792
-1.0842e-19 0.017296 0.02125 0.00025299
-1.29247e-26 -0.026454 0.00736572 0.000383711
8.08456e-20 -0.011454 0.025 0.000189613
-1.91544e-20 0.001046 0.0275 0.00016283
0 0.027296 0.00356872 0.000613176
-1.91544e-20 -0.001454 0.0275 0.000161598
3.28979e-21 -0.018954 0.02 0.000241422
0 -0.020204 0.01875 0.000252463
0 -0.025204 0.011217 0.000301185
1.0842e-19 0.022296 0.0162494 0.000297005
1.58401e-19 0.016046 0.0225 0.000237332
0 -0.017704 0.02125 0.000230393
-1.13596e-28 -0.021454 0.0174875 0.000261179
-1.57772e-30 -0.021454 0.0175 0.000261095
1.58401e-19 0.003546 0.0275 0.00016409
1.0842e-19 -0.027704 0.00116943 0.00125491
4.20665e-20 -0.003954 0.0275 0.000160393
-1.57772e-30 -0.001454 0.027817 0.000157331
-9.67102e-20 -0.016454 0.0225 0.000217023
-1.225e-21 0.026046 0.00994629 0.000317592
-2.8766e-20 0.023546 0.0149988 0.000302463
0 -0.022704 0.0162494 0.000269806
0 -0.027704 0.00356872 0.000719941
-1.0842e-19 0.027296 0.00608215 0.000378873
0 0.014796 0.02375 0.000221746
0 0.009796 0.02625 0.000184929
-1.91544e-20 0.006046 0.0275 0.00016538
1.0842e-19 -0.010204 0.02625 0.000174202
1.0842e-19 -0.015204 0.02375 0.000203618
-9.67102e-20 -0.006454 0.0275 0.000159212
0 -0.026454 0.00994629 0.000317894
0 -0.023954 0.0149988 0.000276904
-2.1684e-19 0.024796 0.0137433 0.000307765
0 -0.027704 0.00608215 0.000433871
-1.91544e-20 0.013546 0.025 0.000204035
0 0.028546 1.77183e-08 0.0011404
8.08456e-20 -0.013954 0.025 0.000188336
0 0.027296 0.008656 0.000322636
4.87689e-20 0.028546 0.00233888 0.000877297
0 -0.025204 0.0137433 0.000284185
-1.0842e-19 -0.000204 0.0287506 0.000145087
-9.67102e-20 0.008546 0.0275 0.000166702
0 0.002296 0.0287506 0.000146227
1.0842e-19 -0.002704 0.0287506 0.000143971
3.25574e-20 0.026046 0.0124878 0.00031077
8.08456e-20 -0.008954 0.0275 0.000158055
-9.44979e-20 0.028546 0.00479858 0.000494509
1.65436e-24 -0.028954 9.40763e-09 0.00125638
-1.0842e-19 0.012296 0.02625 0.000186423
0 -0.027704 0.00865601 0.000335253
8.08456e-20 0.021046 0.02 0.000267826
0 0.019796 0.02125 0.00025499
-4.1359e-25 -0.028954 0.00233887 0.000991324
-1.0842e-19 0.022296 0.01875 0.000280701
0 0.004796 0.0287506 0.000147393
8.08456e-20 0.018546 0.0225 0.000239225
-1.0842e-19 -0.012704 0.02625 0.000172984
7.88861e-30 -0.008954 0.0277549 0.000154688
-1.0842e-19 -0.005204 0.0287506 0.000142879
0 -0.026454 0.0124878 0.000292441
1.0842e-19 -0.020204 0.02125 0.00022904
-1.91544e-20 -0.021454 0.02 0.000240094
-1.9158e-20 0.023546 0.0175 0.000289966
0 -0.028954 0.00479858 0.000579624
0 0.017296 0.02375 0.000223535
8.08456e-20 -0.018954 0.0225 0.000215692
0 -0.022704 0.01875 0.000251159
-1.39066e-19 0.028546 0.00736572 0.000350073
-1.0842e-19 0.027296 0.011217 0.000313513
-1.0842e-19 -0.017704 0.02375 0.00020231
8.08456e-20 0.011046 0.0275 0.000168059
-1.0842e-19 0.024796 0.0162494 0.00029921
0 -0.028954 0.00637191 0.000460649
4.57539e-29 -0.023954 0.0174875 0.000259967
-1.0842e-19 0.007296 0.0287506 0.000148587
0 -0.023954 0.0175 0.000259882
-1.91544e-20 0.016046 0.025 0.000205696
1.0842e-19 -0.007704 0.0287506 0.000141809
8.08456e-20 -0.011454 0.0275 0.00015692
1.48306e-28 -0.011454 0.027518 0.000156684
0 0.029796 0.00116943 0.00113842
-1.29247e-26 -0.028954 0.00736572 0.000385498
0 -0.027704 0.011217 0.000301028
-9.67102e-20 -0.016454 0.025 0.000187083
0 -0.025204 0.0162494 0.000268683
-1.0842e-19 0.029796 0.00356872 0.000606789
0 -0.000988381 0.0300012 0.000128119
7.96169e-20 0.001046 0.0300012 0.000128941
0 -0.001454 0.0300012 0.000127931
-1.26218e-29 -0.0017932 0.0300012 0.000127797
-3.34408e-20 0.026046 0.0149988 0.000304574
0 -0.001454 0.0300327 0.000127528
1.0842e-19 0.014796 0.02625 0.00018796
-1.73031e-20 0.003546 0.0300012 0.000129974
0 -0.030204 0.00116943 0.00125786
2.57079e-20 0.028546 0.00994629 0.000318511
1.03435e-19 -0.003954 0.0300012 0.000126942
0 -0.015204 0.02625 0.000171789
0 0.009796 0.0287506 0.000149812
0 -0.026454 0.0149988 0.000275968
1.0842e-19 0.029796 0.00608215 0.00037586
-1.0842e-19 -0.030204 0.00356872 0.000724111
0 -0.010204 0.0287506 0.000140759
-2.1684e-19 0.027296 0.0137433 0.000309787
-1.58081e-20 0.006046 0.0300012 0.000131031
-1.29247e-26 -0.028954 0.00994629 0.000318307
1.29247e-26 -0.0302455 0.00479858 0.000581356
5.84013e-20 0.013546 0.0275 0.000169455
0 -0.006454 0.0300012 0.000125973
1.0842e-19 0.022296 0.02125 0.000257067
1.58401e-19 0.021046 0.0225 0.000241185
0 -0.030204 0.00608215 0.000436457
8.08456e-20 -0.013954 0.0275 0.000155807
5.99534e-29 -0.013954 0.027515 0.000155612
-1.91544e-20 0.023546 0.02 0.000269987
-1.0842e-19 0.019796 0.02375 0.000225385
1.0842e-19 -0.027704 0.0137433 0.000283434
0 0.029796 0.008656 0.000322827
0 0.031046 1.76652e-08 0.00113756
0 0.024796 0.01875 0.000282953
8.08456e-20 -0.021454 0.0225 0.000214385
0 -0.022704 0.02125 0.000227713
-1.91544e-20 0.018546 0.025 0.000207411
-3.67731e-20 0.031046 0.00233888 0.000871869
3.07042e-20 0.028546 0.0124878 0.000312593
1.0842e-19 -0.020204 0.02375 0.000201025
3.23394e-22 0.008546 0.0300012 0.000132114
1.58401e-19 -0.023954 0.02 0.000238791
0 -0.00868468 0.0300012 0.000125126
0 -0.000204 0.0312567 0.000111753
-1.0842e-19 0.012296 0.0287506 0.000151069
0 -0.008954 0.0300012 0.000125024
2.1684e-19 0.002296 0.0312567 0.000112655
0 -0.008954 0.0300383 0.000124561
8.08456e-20 -0.018954 0.025 0.000185853
1.0842e-19 -0.002704 0.0312567 0.00011087
8.08456e-20 0.026046 0.0175 0.000292255
-1.0842e-19 -0.025204 0.01875 0.000249882
7.6781e-20 0.031046 0.00479858 0.000488612
0 -0.030204 0.008656 0.000336231
1.0842e-19 -0.012704 0.0287506 0.00013973
-1.0842e-19 0.017296 0.02625 0.000189544
-1.65436e-24 -0.031454 8.32919e-09 0.00125923
0 -0.028954 0.0124878 0.000292
0 -0.031454 0.00233887 0.000994802
0 0.004796 0.0312567 0.000113578
0 -0.017704 0.02625 0.000170615
-1.0842e-19 -0.005204 0.0312567 0.000110005
-1.67239e-28 -0.026454 0.017487 0.000258786
-1.91503e-20 -0.026454 0.0175 0.000258696
2.58494e-26 -0.031454 0.00420833 0.000681801
-1.0842e-19 0.027296 0.0162494 0.000301546
0 -0.031454 0.00479858 0.000582976
1.0842e-19 0.029796 0.011217 0.000315115
-1.91572e-20 0.016046 0.0275 0.000170891
1.71281e-19 0.031046 0.00736572 0.00034821
-8.99539e-20 0.011046 0.0300012 0.000133225
8.08456e-20 -0.016454 0.0275 0.000154714
1.0842e-19 0.007296 0.0312567 0.000114523
-7.88861e-30 -0.016454 0.027561 0.000153924
-2.01948e-28 -0.011454 0.0300012 0.000124093
1.0842e-19 -0.027704 0.0162494 0.000267589
-2.1684e-19 -0.007704 0.0312567 0.000109158
1.0842e-19 -0.030204 0.011217 0.000300898
-5.52037e-20 0.028546 0.0149988 0.000306828
0 -0.031454 0.00736572 0.000387278
0 0.032296 0.00116943 0.00113671
-1.0842e-19 0.014796 0.0287506 0.000152362
0 0.032296 0.00356872 0.000597061
0 -0.015204 0.0287506 0.00013872
-1.29305e-20 0.001046 0.0325122 9.66635e-05
0 -0.001454 0.0325122 9.58889e-05
5.84013e-20 0.023546 0.0225 0.000243219
-1.0842e-19 0.022296 0.02375 0.000227299
-6.70037e-20 0.031046 0.00994629 0.000319314
-2.01948e-28 -0.028954 0.0149988 0.000275061
1.0842e-19 0.024796 0.02125 0.000259226
1.58401e-19 0.021046 0.025 0.000209183
-3.82621e-20 0.003546 0.0325122 9.74551e-05
-1.0842e-19 -0.032704 0.00116943 0.0012606
-3.14271e-20 -0.003954 0.0325122 9.51304e-05
0 0.009796 0.0312567 0.000115491
1.0842e-19 0.029796 0.0137433 0.000311972
8.08456e-20 0.026046 0.02 0.000272242
-1.0842e-19 -0.022704 0.02375 0.000199763
0 0.032296 0.00608215 0.000371463
-9.67102e-20 -0.023954 0.0225 0.000213103
0 0.019796 0.02625 0.000191179
0 -0.010204 0.0312567 0.000108327
0 -0.032704 0.00356872 0.000728179
6.78939e-21 0.013546 0.0300012 0.000134366
8.08456e-20 -0.021454 0.025 0.000184646
8.27181e-25 -0.032962 0 0.00126083
0 -0.025204 0.02125 0.000226411
-1.29247e-26 -0.031454 0.00994629 0.00031874
-5.05912e-20 0.006046 0.0325122 9.8265e-05
2.01948e-28 -0.013954 0.0300012 0.000123179
0 0.027296 0.01875 0.000285313
0 -0.020204 0.02625 0.000169463
1.24582e-19 -0.006454 0.0325122 9.43874e-05
-9.67102e-20 -0.026454 0.02 0.000237515
1.58401e-19 0.018546 0.0275 0.000172372
1.0842e-19 -0.030204 0.0137433 0.000282713
0 -0.032704 0.00608215 0.000439018
-9.46633e-30 0.018546 0.0277129 0.00016934
-1.57772e-30 -0.018954 0.0275 0.000153642
-1.0842e-19 0.032296 0.008656 0.000322599
-2.58494e-26 -0.0333668 0.00233887 0.000997351
1.0842e-19 -0.027704 0.01875 0.000248633
-1.88327e-20 0.031046 0.0124878 0.000314536
-1.91627e-20 0.028546 0.0175 0.000294668
0 0.033546 1.63364e-08 0.00113648
0 0.017296 0.0287506 0.000153693
-1.0842e-19 0.012296 0.0312567 0.000116484
-3.71184e-21 0.008546 0.0325122 9.90943e-05
-5.80722e-20 0.033546 0.00233888 0.00086584
8.07794e-28 -0.008954 0.0325122 9.36592e-05
0 -0.012704 0.0312567 0.000107512
1.0842e-19 -0.017704 0.0287506 0.000137729
2.1684e-19 -0.000204 0.0337829 8.0728e-05
1.62505e-28 -0.028954 0.0174856 0.00025764
0 -0.032704 0.008656 0.000337223
-1.57772e-30 -0.028954 0.0175 0.000257539
1.61559e-27 -0.031454 0.0124878 0.000291589
0 0.002296 0.0337829 8.1391e-05
-2.95448e-20 0.033546 0.00479858 0.000480631
-2.1684e-19 -0.002704 0.0337829 8.00789e-05
0 0.029796 0.0162494 0.000304018
-8.27181e-25 -0.033954 5.47877e-09 0.00126188
-1.14856e-19 0.016046 0.0300012 0.000135541
1.21169e-27 -0.0100569 0.0325122 9.33441e-05
-4.00818e-21 -0.033954 0.00233887 0.000998134
1.0842e-19 0.004796 0.033783 8.20688e-05
0 -0.005204 0.0337829 7.94429e-05
1.0842e-19 0.032296 0.011217 0.000316754
0 -0.016454 0.0300012 0.000122283
8.29978e-21 -0.033954 0.00479858 0.000586268
1.0842e-19 -0.030204 0.0162494 0.000266526
-1.0842e-19 0.024796 0.02375 0.000229284
-2.57517e-20 0.011046 0.0325122 9.99445e-05
1.58401e-19 0.023546 0.025 0.000211017
-5.61775e-20 0.033546 0.00736572 0.000345517
-1.91544e-20 0.026046 0.0225 0.000245333
1.0842e-19 0.022296 0.02625 0.000192869
-1.61559e-27 -0.011454 0.0325122 9.2945e-05
-5.9729e-20 0.031046 0.0149988 0.000309235
0 -0.0170154 0.0300012 0.000122086
1.0842e-19 0.007296 0.0337829 8.27621e-05
0 -0.032704 0.011217 0.000300796
0 0.014796 0.0312567 0.000117506
-1.0842e-19 0.027296 0.02125 0.000261475
3.28979e-21 -0.023954 0.025 0.000183461
-1.91544e-20 0.021046 0.0275 0.000173901
0 -0.025204 0.02375 0.000198526
-2.58494e-26 -0.0345651 0.00233887 0.000998914
-3.62876e-29 0.021046 0.0275262 0.000173524
0 -0.007704 0.0337829 7.88199e-05
-1.0842e-19 -0.022704 0.02625 0.000168332
6.45119e-20 -0.026454 0.0225 0.000211846
-1.29247e-26 -0.033954 0.00736572 0.000389055
0 -0.015204 0.0312567 0.000106713
-1.0842e-19 0.034796 0.00116943 0.00113626
0 -0.031454 0.0149988 0.000274184
-1.91544e-20 0.028546 0.02 0.000274603
8.08456e-20 -0.021454 0.0275 0.000152589
-1.0842e-19 0.019796 0.0287506 0.000155066
0 -0.027704 0.02125 0.000225136
-4.1359e-25 -0.034974 0 0.00126289
1.0842e-19 0.034796 0.00356872 0.000584671
1.36189e-19 0.033546 0.00994629 0.000319862
1.08548e-19 0.001046 0.0350537 6.76642e-05
-2.6732e-20 -0.001454 0.0350537 6.71102e-05
2.1684e-19 0.032296 0.0137433 0.000314315
0 -0.020204 0.0287506 0.000136757
-1.26218e-29 0.0183015 0.0300012 0.000136632
1.0842e-19 0.009796 0.0337829 8.34721e-05
3.28979e-21 -0.028954 0.02 0.000236267
0 0.029796 0.01875 0.000287799
-3.94631e-20 0.013546 0.0325122 0.000100817
0 -0.035204 0.00116943 0.00126316
-1.27966e-20 0.003546 0.0350537 6.82298e-05
0 0.018546 0.0300012 0.00013675
3.29662e-20 -0.003954 0.0350537 6.65671e-05
-2.1684e-19 -0.010204 0.033783 7.82087e-05
0 -0.011454 0.0334075 8.31002e-05
0 0.034796 0.00608215 0.000366143
0 -0.013954 0.0325122 9.2244e-05
0 -0.033954 0.00994629 0.000319196
0 -0.035204 0.00356872 0.000732153
0 -0.032704 0.0137433 0.000282024
5.82475e-20 -0.018954 0.0300012 0.000121403
1.0842e-19 -0.030204 0.01875 0.000247411
-2.09986e-20 0.006046 0.0350537 6.88078e-05
1.58401e-19 0.031046 0.0175 0.000297223
7.43539e-20 -0.006454 0.0350537 6.60347e-05
0 0.017296 0.0312567 0.000118557
0 -0.035204 0.00608215 0.00044156
1.3705e-19 0.033546 0.0124878 0.000316551
2.1684e-19 0.034796 0.008656 0.000321778
-1.0842e-19 -0.017704 0.0312567 0.000105929
1.0842e-19 0.012296 0.0337829 8.42001e-05
1.23062e-28 -0.031454 0.0174805 0.000256551
8.08487e-20 -0.031454 0.0175 0.000256412
-1.65436e-24 0.036046 1.31538e-08 0.00113688
-2.80033e-20 0.008546 0.0350537 6.93989e-05
1.0842e-19 -0.012704 0.0337829 7.76088e-05
1.58401e-19 0.026046 0.025 0.00021292
-1.0842e-19 0.024796 0.02625 0.000194619
1.16035e-19 0.036046 0.00233887 0.000859392
0 0.032296 0.0162494 0.000306648
-8.07794e-28 -0.033954 0.0124878 0.000291209
-1.85554e-20 -0.008954 0.0350537 6.55124e-05
0 0.027296 0.02375 0.000231346
-4.15987e-20 0.023546 0.0275 0.000175482
-1.15174e-28 0.023546 0.0275249 0.000175122
-1.0842e-19 -0.035204 0.00865601 0.000338231
-3.55134e-20 0.016046 0.0325122 0.000101715