# kMean  POINT_DATA 29553
# x  y  z  kMean
0 0.00104602 7.11428e-09 0.00118924
0 -0.000203993 0.00116943 0.00119118
0 -0.00145398 7.75775e-09 0.00119319
1.08622e-19 0.001046 0.00233887 0.000915899
0 0.002296 0.00116944 0.0011873
1.18108e-20 -0.001454 0.00233887 0.000920453
1.0842e-19 -0.002704 0.00116943 0.00119521
0 0.001046 0.00323022 0.000767736
0 0.003546 7.22173e-09 0.0011853
0 -0.000203999 0.00356872 0.00064084
2.58494e-26 -0.00273457 0.00233887 0.000922822
-5.16988e-26 -0.001454 0.00361264 0.000708567
-1.65436e-24 -0.003954 7.73917e-09 0.00119753
-1.0842e-19 0.002296 0.00356872 0.000635536
5.16988e-26 0.003546 0.00233887 0.000911214
0 -0.002704 0.00356872 0.000645858
4.1359e-25 -0.003954 0.00225921 0.000934358
0 -0.003954 0.00233887 0.000925078
0 0.001046 0.00479858 0.000507039
0 0.004796 0.00116943 0.00118331
0 0.003546 0.00343605 0.000728921
5.16988e-26 -0.001454 0.00479858 0.000511291
0 -0.00520401 0.00116943 0.00119984
5.32577e-20 0.003546 0.00479858 0.000502541
0 0.004796 0.00356872 0.00062994
0 0.006046 7.79493e-09 0.00118132
0 -0.000204 0.00608215 0.000375728
0 -0.003954 0.00479858 0.00051528
0 -0.005204 0.00356872 0.000650685
-8.27181e-25 -0.00645401 6.20271e-09 0.00120228
5.41565e-20 0.006046 0.00233887 0.000906449
1.0842e-19 0.002296 0.00608215 0.000372262
0 -0.002704 0.00608215 0.000378919
0 -0.00645401 0.00212494 0.000954776
-1.03398e-25 -0.00645401 0.00233887 0.000929858
0 0.007296 0.00116943 0.00117933
2.58494e-26 0.006046 0.00431085 0.000578997
4.51289e-20 0.001046 0.00736572 0.000334464
0 -0.001454 0.00736572 0.000336729
-2.58494e-26 0.006046 0.00479858 0.000498008
0 0.004796 0.00608215 0.000368664
-1.0842e-19 -0.00770401 0.00116944 0.00120471
0 -0.005204 0.00608215 0.000381815
5.16988e-26 -0.006454 0.00479858 0.000519088
1.0842e-19 0.007296 0.00356872 0.000624422
3.50425e-20 0.003546 0.00736572 0.000332086
7.84787e-20 -0.003954 0.00736572 0.000338816
-1.0842e-19 -0.007704 0.00356872 0.000655471
-1.65436e-24 0.00854602 8.72316e-09 0.00117711
0 -0.000204 0.008656 0.00029547
-6.84192e-20 0.008546 0.00233886 0.000901593
0 -0.00895401 5.46843e-09 0.00120722
0 0.002296 0.008656 0.000294251
1.0842e-19 -0.002704 0.00865601 0.000296651
-1.03398e-25 -0.00895401 0.001998 0.000974437
0 -0.00895401 0.00233887 0.000934722
6.46235e-27 0.00800744 0.00479858 0.000494535
0 0.007296 0.00608215 0.000365274
0 0.006046 0.00736572 0.000329725
3.23117e-27 -0.001454 0.0096327 0.000290675
7.33351e-20 -0.006454 0.00736572 0.000340722
-7.59312e-20 0.008546 0.00479858 0.000493582
1.0842e-19 -0.007704 0.00608215 0.000384508
-2.1684e-19 0.009796 0.00116943 0.00117489
-1.0842e-19 0.004796 0.008656 0.000293026
8.07794e-28 -0.000473983 0.00994629 0.000284086
1.61559e-27 0.001046 0.00994629 0.000283747
0 -0.001454 0.00994629 0.000284304
0 -0.0100624 0 0.00120941
-2.1684e-19 -0.005204 0.00865601 0.000297727
0 -0.008954 0.00479858 0.000522802
0 -0.003954 0.00935899 0.000297112
1.0842e-19 -0.010204 0.00116944 0.00120972
-1.0842e-19 0.009796 0.00356872 0.000618915
0 0.003546 0.00994629 0.000283183
-2.03057e-20 -0.003954 0.00994629 0.000284824
-3.23117e-27 0.008546 0.0065421 0.000380761
2.1684e-19 -0.010204 0.00356873 0.00066026
0 0.011046 1.00042e-08 0.00117231
-1.0842e-19 -0.000204 0.011217 0.000272648
0 0.008546 0.00736572 0.000327466
-9.5347e-20 0.011046 0.00233887 0.000896428
1.0842e-19 0.007296 0.00865601 0.000291802
1.0842e-19 0.002296 0.011217 0.000272734
0 -0.011454 6.86537e-09 0.00121217
1.0842e-19 0.009796 0.00608215 0.000362015
-2.1684e-19 -0.002704 0.011217 0.00027257
0 -0.007704 0.00865601 0.000298681
0 -0.008954 0.00736572 0.00034249
0 0.006046 0.00994629 0.000282624
0 -0.011454 0.00233887 0.000939552
8.07794e-28 -0.006454 0.00988095 0.000286675
9.58885e-20 -0.006454 0.00994629 0.000285271
-3.23117e-27 0.00931614 0.00736572 0.000326807
0 -0.010204 0.00608215 0.000387063
-1.66384e-19 0.011046 0.00479858 0.000489208
4.03897e-28 -0.00682261 0.00994629 0.000285325
0 0.004796 0.011217 0.000272829
-4.03897e-28 0.001046 0.0122979 0.000268715
0 0.012296 0.00116943 0.00116973
0 -0.005204 0.011217 0.000272478
0 -0.011454 0.00479858 0.00052641
3.43961e-20 0.001046 0.0124878 0.000267501
-8.184e-20 -0.001454 0.0124878 0.000267076
2.01948e-28 0.00176244 0.0124878 0.000267629
8.27181e-25 -0.0126866 0 0.00121459
1.0842e-19 -0.012704 0.00116943 0.00121462
0 0.012296 0.00356872 0.000613351
0 0.003546 0.0124878 0.000267947
-1.0842e-19 0.009796 0.008656 0.000290645
-6.60941e-20 -0.003954 0.0124878 0.00026666
0 0.008546 0.00994629 0.000282101
-2.1684e-19 -0.012704 0.00356872 0.000664881
-3.31624e-20 0.011046 0.00736572 0.000325327
0 -0.010204 0.008656 0.000299551
1.0842e-19 0.007296 0.011217 0.000272942
-1.61559e-27 -0.008954 0.00994629 0.000285637
-4.03897e-28 0.00908517 0.00994629 0.000282005
1.65436e-24 0.013546 1.10685e-08 0.00116698
0 -0.007704 0.011217 0.000272332
2.58494e-26 -0.011454 0.00736572 0.000344143
-2.1684e-19 0.012296 0.00608215 0.000358884
1.0842e-19 -0.000204 0.0137433 0.000261939
-1.18111e-19 0.013546 0.00233887 0.000890956
0 0.006046 0.0124878 0.000268413
0 0.002296 0.0137433 0.000262724
0 -0.013954 7.05929e-09 0.00121708
0 -0.002704 0.0137433 0.000261194
-1.14467e-19 -0.006454 0.0124878 0.000266222
0 -0.012704 0.00608215 0.000389499
-7.23783e-25 -0.013954 0.00214735 0.000966651
1.03398e-25 -0.013954 0.00233887 0.000944316
1.54667e-19 0.013546 0.00479858 0.00048488
1.0842e-19 0.004796 0.0137433 0.000263537
2.01948e-28 0.008546 0.0119353 0.000271781
0 -0.005204 0.0137433 0.000260448
-2.01948e-28 0.00782085 0.0124878 0.000268769
0 -0.013954 0.00479858 0.000529939
0 0.014796 0.00116943 0.00116423
1.37052e-19 0.011046 0.00994629 0.000281658
-1.0842e-19 0.009796 0.011217 0.000273111
7.21934e-20 0.001046 0.0149988 0.000256905
0 0.012296 0.008656 0.000289639
9.65262e-21 -0.001454 0.0149988 0.000255949
-2.01948e-28 0.008546 0.0124878 0.000268915
0 -0.010204 0.011217 0.000272123
0 -0.011454 0.00994629 0.000285924
0 0.014796 0.00356872 0.000607683
0 -0.015204 0.00116943 0.00121953
1.21169e-27 -0.008954 0.0123912 0.000266506
0 0.00296952 0.0149988 0.000257662
0 -0.008954 0.0124878 0.00026575
0 -0.012704 0.008656 0.000300299
0 0.003546 0.0149988 0.000257889
-3.98254e-20 0.013546 0.00736572 0.00032338
-4.43593e-20 -0.003954 0.0149988 0.000255007
1.0842e-19 0.007296 0.0137433 0.000264378
0 -0.015204 0.00356872 0.000669499
-1.51461e-28 -0.00938579 0.0124878 0.000265663
0 -0.007704 0.0137433 0.000259679
0 -0.013954 0.00736572 0.000345715
-1.0842e-19 0.014796 0.00608215 0.000355972
-1.65436e-24 0.016046 1.17795e-08 0.00116125
1.26218e-29 0.006046 0.0149988 0.000258906
2.79943e-20 0.016046 0.00233887 0.000885283
0 -0.000204 0.0162494 0.000250912
1.26879e-20 -0.006454 0.0149988 0.000254074
-2.1684e-19 -0.015204 0.00608215 0.000391907
0 0.002296 0.0162494 0.00025206
-6.31089e-30 0.00672626 0.0149988 0.000259193
-8.27181e-25 -0.016454 6.56922e-09 0.00122173
-1.0842e-19 -0.002704 0.0162494 0.000249764
8.07794e-28 -0.016454 0.00233887 0.000948989
0 0.012296 0.011217 0.000273326
5.18393e-20 0.011046 0.0124878 0.000269467
0 -0.0165244 0.00233887 0.000949076
-3.67342e-20 0.016046 0.00479858 0.000480685
6.18139e-20 0.013546 0.00994629 0.000281362
-1.0842e-19 0.009796 0.0137433 0.000265262
1.0842e-19 0.004796 0.0162494 0.000253249
-4.03897e-28 -0.011454 0.0124878 0.000265247
0 -0.012704 0.011217 0.000271868
1.0842e-19 -0.005204 0.0162494 0.000248638
0 -0.010204 0.0137433 0.000258918
0 -0.013954 0.00994629 0.000286147
-1.03398e-25 -0.016454 0.00479858 0.000533463
-1.0842e-19 0.014796 0.008656 0.000288901
0 0.008546 0.0149988 0.000259959
0 0.017296 0.00116943 0.00115827
-1.04052e-19 -0.008954 0.0149988 0.000253139
0 -0.015204 0.008656 0.000300991
-3.54893e-20 0.001046 0.0175 0.000243642
1.42066e-19 -0.001454 0.0175 0.000242415
-3.15544e-30 0.003546 0.0172644 0.000246121
-6.78833e-20 0.016046 0.00736572 0.000321714
-2.1684e-19 0.017296 0.00356872 0.000602118
1.0842e-19 -0.017704 0.00116943 0.00122393
-2.1684e-19 0.007296 0.0162494 0.000254474
-1.57772e-30 0.003546 0.0175 0.000244897
4.20658e-20 -0.003954 0.0175 0.000241208
-1.0842e-19 -0.007704 0.0162494 0.000247546
0 -0.016454 0.00736572 0.000347275
0 -0.017704 0.00356873 0.000674116
0 0.006046 0.0171736 0.000247849
1.26218e-29 -0.0105114 0.0149988 0.000252551
1.0842e-19 0.017296 0.00608215 0.000353377
-2.12774e-20 0.013546 0.0124878 0.000270091
-1.0842e-19 0.012296 0.0137433 0.000266203
0 0.006046 0.0175 0.00024619
1.65436e-24 0.018546 1.2351e-08 0.00115496
-1.0842e-19 0.014796 0.011217 0.000273664
1.26218e-28 0.0137547 0.0124878 0.000270152
-1.06602e-19 0.011046 0.0149988 0.000261057
8.08447e-20 -0.006454 0.0175 0.000240021
1.11276e-19 0.018546 0.00233887 0.0008794
1.0842e-19 -0.012704 0.0137433 0.000258132
0 -0.017704 0.00608215 0.00039433
0 -0.013954 0.0124878 0.000264715
0 -0.000204 0.01875 0.000235135
0 -0.011454 0.0149988 0.000252196
-8.56718e-20 0.016046 0.00994629 0.000281287
-1.0842e-19 0.002296 0.01875 0.000236463
1.0842e-19 -0.015204 0.011217 0.000271581
0 -0.002704 0.01875 0.00023385
8.27181e-25 -0.018954 6.6199e-09 0.00122602
1.0842e-19 0.009796 0.0162494 0.000255733
-2.58494e-26 -0.018954 0.00233887 0.00095341
4.97932e-20 0.018546 0.00479858 0.000476731
1.0842e-19 -0.010204 0.0162494 0.000246428
0 -0.018954 0.00305909 0.000831483
-4.73061e-20 -0.016454 0.00994629 0.000286358
2.1684e-19 0.017296 0.008656 0.000288487
0 0.004796 0.01875 0.00023782
0 -0.005204 0.01875 0.000232584
-3.54882e-20 0.008546 0.0175 0.000247517
0 -0.018954 0.00479858 0.000537001
0 0.013546 0.0141132 0.000264991
-1.91544e-20 -0.008954 0.0175 0.000238842
-1.26218e-29 0.0127207 0.0149988 0.00026183
0 -0.017704 0.008656 0.000301703
0 0.019796 0.00116943 0.00115165
-7.69895e-20 0.018546 0.00736572 0.000320369
3.28979e-21 0.001046 0.02 0.000225276
-9.67102e-20 -0.001454 0.02 0.000223959
0 0.016046 0.0120613 0.00027258
-1.0842e-19 0.019796 0.00356872 0.000596743
0 0.007296 0.01875 0.00023922
0 0.014796 0.0137433 0.000267198
1.26218e-29 0.013546 0.0149988 0.000262212
1.0842e-19 -0.020204 0.00116943 0.00122812
-1.0842e-19 -0.007704 0.01875 0.000231319
3.28979e-21 0.003546 0.02 0.000226624
-4.03897e-28 0.016046 0.0124878 0.000270825
0 -0.018954 0.00736572 0.000348857
1.0842e-19 0.012296 0.0162494 0.000257044
-9.67102e-20 -0.003954 0.02 0.000222666
-1.00974e-28 -0.013954 0.0149988 0.000251243
0 -0.015204 0.0137433 0.000257334
0 -0.020204 0.00356872 0.00067876
1.0842e-19 0.017296 0.011217 0.000274175
1.0842e-19 -0.012704 0.0162494 0.000245321
3.23117e-27 -0.016454 0.0124878 0.00026418
-3.54882e-20 0.011046 0.0175 0.000248884
-2.1684e-19 0.019796 0.00608215 0.000351142
1.57772e-29 -0.011454 0.0173004 0.000238828
6.45119e-20 0.006046 0.02 0.000228009
0 -0.011454 0.0175 0.000237668
1.0842e-19 -0.017704 0.011217 0.000271314
8.08456e-20 -0.006454 0.02 0.000221392
-3.70875e-20 0.018546 0.00994629 0.000281463
-1.65436e-24 0.021046 1.32786e-08 0.00114844
-1.0842e-19 -0.020204 0.00608215 0.000396767
-1.0842e-19 0.009796 0.01875 0.000240646
-3.32229e-20 0.021046 0.00233887 0.000873485
0 -0.000204 0.02125 0.000214085
0 -0.010204 0.01875 0.000230077
0 0.002296 0.02125 0.000215421
0 -0.018954 0.00994629 0.000286594
-1.0842e-19 -0.002704 0.02125 0.000212767
-1.65436e-24 -0.021454 7.86035e-09 0.00122998
-3.67055e-20 -0.021454 0.00233887 0.000957696
1.64666e-19 0.021046 0.00479858 0.000473
0 0.019796 0.008656 0.000288356
0 0.0176473 0.0124878 0.000271391
-1.13044e-19 0.008546 0.02 0.000229431
1.0842e-19 0.004796 0.02125 0.000216793
-1.0842e-19 -0.005204 0.02125 0.000211462
8.08456e-20 -0.008954 0.02 0.00022014
0 -0.021454 0.00449012 0.000592861
3.15544e-30 0.013546 0.0172844 0.000251331
0 0.016046 0.0149988 0.000263438
1.0842e-19 0.014796 0.0162494 0.000258413
0 -0.020204 0.008656 0.000302457
0 -0.021454 0.00479858 0.000540549
-1.0842e-19 0.017296 0.0137433 0.000268286
-9.67096e-20 0.013546 0.0175 0.000250305
0 -0.015204 0.0162494 0.000244202
-2.01948e-28 -0.016454 0.0149988 0.000250293
1.19679e-19 0.021046 0.00736572 0.000319268
-1.0842e-19 0.022296 0.00116943 0.00114524
9.46633e-30 -0.013954 0.0174568 0.000236748
-7.79273e-20 0.018546 0.0124878 0.000271709
0 -0.013954 0.0175 0.000236494
0 -0.017704 0.0137433 0.000256549
-1.0842e-19 0.012296 0.01875 0.000242116
-1.0842e-19 0.007296 0.02125 0.000218205
8.08456e-20 0.001046 0.0225 0.000201911
8.08456e-20 -0.001454 0.0225 0.000200603
-1.0842e-19 0.022296 0.00356872 0.00059151
1.0842e-19 -0.007704 0.02125 0.000210202
0 -0.012704 0.01875 0.000228849
0 -0.021454 0.00736572 0.000350475
0 -0.018954 0.0124878 0.00026366
0 -0.022704 0.00116943 0.00123185
-2.1684e-19 0.019796 0.011217 0.000274906
-9.67102e-20 0.003546 0.0225 0.000203238
3.28979e-21 -0.003954 0.0225 0.000199309
3.28979e-21 0.011046 0.02 0.000230891
0 -0.0224661 0.00479858 0.000541983
2.1684e-19 -0.022704 0.00356872 0.00068335
1.58401e-19 -0.011454 0.02 0.000218897
-1.0842e-19 -0.020204 0.011217 0.000271063
2.1684e-19 0.022296 0.00608215 0.000349107
-1.26589e-20 0.021046 0.00994629 0.000281864
-3.54881e-20 0.006046 0.0225 0.000204596
0 0.009796 0.02125 0.000219653
-9.67102e-20 -0.006454 0.0225 0.000198042
0 -0.022704 0.00608215 0.000399258
0 0.023546 1.4979e-08 0.00114216
0 -0.010204 0.02125 0.000208962
-2.52435e-29 0.018546 0.0146545 0.000265708
0 -0.021454 0.00994629 0.000286862
-7.77765e-20 0.023546 0.00233888 0.000867722
-2.99767e-29 0.016046 0.0174447 0.000252053
1.0842e-19 0.017296 0.0162494 0.000259863
-1.91538e-20 0.016046 0.0175 0.000251796
-1.0842e-19 -0.000204 0.02375 0.000188425
0 0.018546 0.0149988 0.000264755
1.0842e-19 0.002296 0.02375 0.000189715
-1.0842e-19 0.014796 0.01875 0.00024365
0 -0.002704 0.02375 0.000187137
-1.0842e-19 0.022296 0.008656 0.000288357
1.65436e-24 -0.023954 9.64824e-09 0.00123357
1.26218e-29 -0.016454 0.0174796 0.000235444
-1.57772e-30 -0.016454 0.0175 0.000235323
-4.44498e-20 0.023546 0.00479858 0.000469344
-1.0842e-19 -0.017704 0.0162494 0.000243103
-9.04137e-20 -0.023954 0.00233887 0.000961774
-3.54881e-20 0.008546 0.0225 0.000205992
1.0842e-19 0.019796 0.0137433 0.000269491
0 -0.015204 0.01875 0.000227606
-1.91544e-20 0.013546 0.02 0.000232403
0 -0.018954 0.0149988 0.000249363
0 0.0189756 0.0149988 0.000265001
-1.91544e-20 -0.008954 0.0225 0.000196805
1.0842e-19 0.004796 0.02375 0.000191022
1.0842e-19 -0.022704 0.008656 0.000303247
-1.0842e-19 -0.005204 0.02375 0.000185869
1.58401e-19 -0.013954 0.02 0.00021765
6.90159e-20 -0.023954 0.00479858 0.000544091
2.1684e-19 -0.020204 0.0137433 0.000255774
-1.3697e-19 0.021046 0.0124878 0.000272784
-1.0842e-19 0.012296 0.02125 0.00022115
1.55749e-19 0.023546 0.00736572 0.000318248
-1.0842e-19 -0.012704 0.02125 0.000207702
0 -0.023954 0.00649991 0.000416873
0 0.024796 0.00116943 0.00113908
-3.23117e-27 -0.021454 0.0124878 0.00026316
0 0.007296 0.02375 0.000192366
1.0842e-19 0.022296 0.011217 0.000275904
0 -0.007704 0.02375 0.000184634
-1.91544e-20 0.001046 0.025 0.000174425
8.08456e-20 -0.001454 0.025 0.00017319
1.0842e-19 0.024796 0.00356872 0.000586283
0 -0.023954 0.00736572 0.000352132
8.08456e-20 0.011046 0.0225 0.000207424
-1.0842e-19 -0.025204 0.00116944 0.0012353
5.84013e-20 -0.011454 0.0225 0.000195579
8.08456e-20 0.003546 0.025 0.000175673
3.28979e-21 -0.003954 0.025 0.000171975
1.0842e-19 -0.022704 0.011217 0.000270846
7.88861e-30 0.018546 0.0173753 0.000253926
1.0842e-19 -0.025204 0.00356872 0.000687901
0 0.018546 0.0175 0.000253358
0 0.017296 0.01875 0.000245258
1.0842e-19 0.024796 0.00608215 0.000347022
1.18654e-21 0.023546 0.00994629 0.000282422
1.0842e-19 0.019796 0.0162494 0.000261389
1.58401e-19 0.016046 0.02 0.000233978
0 0.009796 0.02375 0.000193744
3.28979e-21 0.006046 0.025 0.000176943
0 -0.017704 0.01875 0.000226382
-5.83757e-29 -0.018954 0.0174859 0.000234264
-9.67102e-20 -0.018954 0.0175 0.000234178
3.28979e-21 -0.006454 0.025 0.000170782
-1.12244e-19 0.021046 0.0149988 0.00026619
1.0842e-19 -0.010204 0.02375 0.000183421
-1.0842e-19 0.014796 0.02125 0.000222697
-9.67102e-20 -0.016454 0.02 0.000216408
0 -0.025204 0.00608215 0.000401766
1.0842e-19 -0.020204 0.0162494 0.000242042
1.29247e-26 -0.023954 0.00994629 0.000287163
3.30872e-24 0.026046 1.67421e-08 0.00113653
0 -0.015204 0.02125 0.000206442
-1.18197e-19 0.026046 0.00233888 0.00086213
0 -0.021454 0.0149988 0.000248453
1.0842e-19 0.022296 0.0137433 0.000270857
-1.0842e-19 -0.000204 0.02625 0.000159182
1.58401e-19 0.013546 0.0225 0.000208899
-1.0842e-19 0.024796 0.008656 0.000288401
0 0.002296 0.02625 0.000160378
0 -0.002704 0.02625 0.000158018
3.28979e-21 0.008546 0.025 0.000178242
0 -0.026454 1.03089e-08 0.00123685
1.58401e-19 -0.013954 0.0225 0.000194356
-2.36214e-20 0.026046 0.00479858 0.000465376
-1.0842e-19 -0.022704 0.0137433 0.000255018
-9.67102e-20 -0.008954 0.025 0.000169611
0 -0.026454 0.00233887 0.000965686
-1.0842e-19 -0.025204 0.008656 0.00030408
-1.97619e-20 0.023546 0.0124878 0.000274066
-1.0842e-19 0.004796 0.02625 0.000161579
-1.0842e-19 0.012296 0.02375 0.00019515
0 -0.005204 0.02625 0.000156875
-5.16988e-26 -0.026454 0.00479858 0.000547644
0 -0.012704 0.02375 0.00018223
0 -0.023954 0.0124878 0.000262691
-1.29593e-20 0.026046 0.00736572 0.000317056
0 0.024796 0.011217 0.000277088
-1.0842e-19 0.007296 0.02625 0.000162804
0 0.019796 0.01875 0.000246925
1.58401e-19 0.018546 0.02 0.000235616
1.0842e-19 0.027296 0.00116943 0.00113398
8.08456e-20 0.011046 0.025 0.000179565
1.29247e-26 -0.026454 0.00693693 0.000386198
0 -0.007704 0.02625 0.000155749
-1.91544e-20 0.021046 0.0175 0.000255003
-1.0842e-19 0.017296 0.02125 0.000224309
-1.29247e-26 -0.026454 0.00736572 0.000353824
8.08456e-20 -0.011454 0.025 0.000168462
-1.91544e-20 0.001046 0.0275 0.000144462
0 0.027296 0.00356872 0.000580399
-1.91544e-20 -0.001454 0.0275 0.000143369
3.28979e-21 -0.018954 0.02 0.000215186
0 -0.020204 0.01875 0.000225186
0 -0.025204 0.011217 0.000270651
1.0842e-19 0.022296 0.0162494 0.000263032
1.58401e-19 0.016046 0.0225 0.000210427
0 -0.017704 0.02125 0.000205203
-1.13596e-28 -0.021454 0.0174875 0.000233133
-1.57772e-30 -0.021454 0.0175 0.000233056
1.58401e-19 0.003546 0.0275 0.000145573
1.0842e-19 -0.027704 0.00116943 0.0012384
4.20665e-20 -0.003954 0.0275 0.000142297
-1.57772e-30 -0.001454 0.027817 0.000139566
-9.67102e-20 -0.016454 0.0225 0.000193144
-1.225e-21 0.026046 0.00994629 0.000283004
-2.8766e-20 0.023546 0.0149988 0.000267782
0 -0.022704 0.0162494 0.000240993
0 -0.027704 0.00356872 0.000692461
-1.0842e-19 0.027296 0.00608215 0.000344394
0 0.014796 0.02375 0.000196599
0 0.009796 0.02625 0.000164053
-1.91544e-20 0.006046 0.0275 0.000146701
1.0842e-19 -0.010204 0.02625 0.00015464
1.0842e-19 -0.015204 0.02375 0.00018105
-9.67102e-20 -0.006454 0.0275 0.000141247
0 -0.026454 0.00994629 0.000287496
0 -0.023954 0.0149988 0.000247574
-2.1684e-19 0.024796 0.0137433 0.000272436
0 -0.027704 0.00608215 0.000404329
-1.91544e-20 0.013546 0.025 0.000180914
0 0.028546 1.77183e-08 0.00113276
8.08456e-20 -0.013954 0.025 0.000167335
0 0.027296 0.008656 0.000288306
4.87689e-20 0.028546 0.00233888 0.000856866
0 -0.025204 0.0137433 0.000254315
-1.0842e-19 -0.000204 0.0287506 0.000128635
-9.67102e-20 0.008546 0.0275 0.000147853
0 0.002296 0.0287506 0.00012965
1.0842e-19 -0.002704 0.0287506 0.000127637
3.25574e-20 0.026046 0.0124878 0.00027549
8.08456e-20 -0.008954 0.0275 0.000140216
-9.44979e-20 0.028546 0.00479858 0.000460353
1.65436e-24 -0.028954 9.40763e-09 0.00123983
-1.0842e-19 0.012296 0.02625 0.000165312
0 -0.027704 0.00865601 0.000304943
8.08456e-20 0.021046 0.02 0.000237318
0 0.019796 0.02125 0.000225972
-4.1359e-25 -0.028954 0.00233887 0.000969429
-1.0842e-19 0.022296 0.01875 0.000248668
0 0.004796 0.0287506 0.00013068
8.08456e-20 0.018546 0.0225 0.000212012
-1.0842e-19 -0.012704 0.02625 0.000153559
7.88861e-30 -0.008954 0.0277549 0.000137214
-1.0842e-19 -0.005204 0.0287506 0.000126653
0 -0.026454 0.0124878 0.000262256
1.0842e-19 -0.020204 0.02125 0.000203974
-1.91544e-20 -0.021454 0.02 0.000213987
-1.9158e-20 0.023546 0.0175 0.000256754
0 -0.028954 0.00479858 0.000551198
0 0.017296 0.02375 0.000198102
8.08456e-20 -0.018954 0.0225 0.000191948
0 -0.022704 0.01875 0.000224006
-1.39066e-19 0.028546 0.00736572 0.000315301
-1.0842e-19 0.027296 0.011217 0.000278279
-1.0842e-19 -0.017704 0.02375 0.000179882
8.08456e-20 0.011046 0.0275 0.000149024
-1.0842e-19 0.024796 0.0162494 0.000264813
0 -0.028954 0.00637191 0.000431291
4.57539e-29 -0.023954 0.0174875 0.000232038
-1.0842e-19 0.007296 0.0287506 0.000131735
0 -0.023954 0.0175 0.000231961
-1.91544e-20 0.016046 0.025 0.000182306
1.0842e-19 -0.007704 0.0287506 0.000125705
8.08456e-20 -0.011454 0.0275 0.000139204
1.48306e-28 -0.011454 0.027518 0.000138994
0 0.029796 0.00116943 0.00113153
-1.29247e-26 -0.028954 0.00736572 0.000355551
0 -0.027704 0.011217 0.00027049
-9.67102e-20 -0.016454 0.025 0.000166225
0 -0.025204 0.0162494 0.000239987
-1.0842e-19 0.029796 0.00356872 0.000572725
0 -0.000988381 0.0300012 0.000113534
7.96169e-20 0.001046 0.0300012 0.00011427
0 -0.001454 0.0300012 0.000113366
-1.26218e-29 -0.0017932 0.0300012 0.000113245
-3.34408e-20 0.026046 0.0149988 0.000269542
0 -0.001454 0.0300327 0.000113008
1.0842e-19 0.014796 0.02625 0.000166595
-1.73031e-20 0.003546 0.0300012 0.000115185
0 -0.030204 0.00116943 0.00124125
2.57079e-20 0.028546 0.00994629 0.000283469
1.03435e-19 -0.003954 0.0300012 0.000112477
0 -0.015204 0.02625 0.000152501
0 0.009796 0.0287506 0.000132817
0 -0.026454 0.0149988 0.000246728
1.0842e-19 0.029796 0.00608215 0.000340535
-1.0842e-19 -0.030204 0.00356872 0.000696952
0 -0.010204 0.0287506 0.000124765
-2.1684e-19 0.027296 0.0137433 0.000274177
-1.58081e-20 0.006046 0.0300012 0.000116121
-1.29247e-26 -0.028954 0.00994629 0.00028787
1.29247e-26 -0.0302455 0.00479858 0.00055301
5.84013e-20 0.013546 0.0275 0.000150208
0 -0.006454 0.0300012 0.00011161
1.0842e-19 0.022296 0.02125 0.000227706
1.58401e-19 0.021046 0.0225 0.000213653
0 -0.030204 0.00608215 0.000406902
8.08456e-20 -0.013954 0.0275 0.000138217
5.99534e-29 -0.013954 0.027515 0.000138042
-1.91544e-20 0.023546 0.02 0.000239101
-1.0842e-19 0.019796 0.02375 0.000199665
1.0842e-19 -0.027704 0.0137433 0.000253634
0 0.029796 0.008656 0.000287871
0 0.031046 1.76652e-08 0.00113149
0 0.024796 0.01875 0.000250506
8.08456e-20 -0.021454 0.0225 0.000190771
0 -0.022704 0.02125 0.000202784
-1.91544e-20 0.018546 0.025 0.00018375
-3.67731e-20 0.031046 0.00233888 0.000851705
3.07042e-20 0.028546 0.0124878 0.000276977
1.0842e-19 -0.020204 0.02375 0.000178733
3.23394e-22 0.008546 0.0300012 0.000117084
1.58401e-19 -0.023954 0.02 0.000212815
0 -0.00868468 0.0300012 0.000110854
0 -0.000204 0.0312567 9.89733e-05
-1.0842e-19 0.012296 0.0287506 0.00013391
0 -0.008954 0.0300012 0.000110763
2.1684e-19 0.002296 0.0312567 9.97816e-05
0 -0.008954 0.0300383 0.000110351
8.08456e-20 -0.018954 0.025 0.000165131
1.0842e-19 -0.002704 0.0312567 9.81795e-05
8.08456e-20 0.026046 0.0175 0.000258634
-1.0842e-19 -0.025204 0.01875 0.000222859
7.6781e-20 0.031046 0.00479858 0.000453512
0 -0.030204 0.008656 0.000305848
1.0842e-19 -0.012704 0.0287506 0.000123848
-1.0842e-19 0.017296 0.02625 0.000167927
-1.65436e-24 -0.031454 8.32919e-09 0.00124258
0 -0.028954 0.0124878 0.000261854
0 -0.031454 0.00233887 0.000973013
0 0.004796 0.0312567 0.000100591
0 -0.017704 0.02625 0.000151467
-1.0842e-19 -0.005204 0.0312567 9.74012e-05
-1.67239e-28 -0.026454 0.017487 0.000230974
-1.91503e-20 -0.026454 0.0175 0.000230892
2.58494e-26 -0.031454 0.00420833 0.000655085
-1.0842e-19 0.027296 0.0162494 0.000266752
0 -0.031454 0.00479858 0.000554705
1.0842e-19 0.029796 0.011217 0.000279471
-1.91572e-20 0.016046 0.0275 0.000151415
1.71281e-19 0.031046 0.00736572 0.000312714
-8.99539e-20 0.011046 0.0300012 0.000118063
8.08456e-20 -0.016454 0.0275 0.000137252
1.0842e-19 0.007296 0.0312567 0.00010144
-7.88861e-30 -0.016454 0.027561 0.000136547
-2.01948e-28 -0.011454 0.0300012 0.000109931
1.0842e-19 -0.027704 0.0162494 0.000238994
-2.1684e-19 -0.007704 0.0312567 9.66436e-05
1.0842e-19 -0.030204 0.011217 0.000270383
-5.52037e-20 0.028546 0.0149988 0.000271435
0 -0.031454 0.00736572 0.000357296
0 0.032296 0.00116943 0.00113145
-1.0842e-19 0.014796 0.0287506 0.00013501
0 0.032296 0.00356872 0.000562163
0 -0.015204 0.0287506 0.000122954
-1.29305e-20 0.001046 0.0325122 8.55819e-05
0 -0.001454 0.0325122 8.48889e-05
5.84013e-20 0.023546 0.0225 0.000215366
-1.0842e-19 0.022296 0.02375 0.000201271
-6.70037e-20 0.031046 0.00994629 0.000283743
-2.01948e-28 -0.028954 0.0149988 0.000245905
1.0842e-19 0.024796 0.02125 0.000229526
1.58401e-19 0.021046 0.025 0.000185246
-3.82621e-20 0.003546 0.0325122 8.62861e-05
-1.0842e-19 -0.032704 0.00116943 0.0012439
-3.14271e-20 -0.003954 0.0325122 8.42098e-05
0 0.009796 0.0312567 0.000102305
1.0842e-19 0.029796 0.0137433 0.000275999
8.08456e-20 0.026046 0.02 0.00024098
-1.0842e-19 -0.022704 0.02375 0.000177594
0 0.032296 0.00608215 0.00033533
-9.67102e-20 -0.023954 0.0225 0.000189617
0 0.019796 0.02625 0.000169306
0 -0.010204 0.0312567 9.58983e-05
0 -0.032704 0.00356872 0.00070132
6.78939e-21 0.013546 0.0300012 0.000119047
8.08456e-20 -0.021454 0.025 0.000164047
8.27181e-25 -0.032962 0 0.00124411
0 -0.025204 0.02125 0.000201612
-1.29247e-26 -0.031454 0.00994629 0.000288281
-5.05912e-20 0.006046 0.0325122 8.70073e-05
2.01948e-28 -0.013954 0.0300012 0.000109117
0 0.027296 0.01875 0.000252467
0 -0.020204 0.02625 0.000150442
1.24582e-19 -0.006454 0.0325122 8.3547e-05
-9.67102e-20 -0.026454 0.02 0.000211666
1.58401e-19 0.018546 0.0275 0.000152657
1.0842e-19 -0.030204 0.0137433 0.000252977
0 -0.032704 0.00608215 0.000409471
-9.46633e-30 0.018546 0.0277129 0.000149967
-1.57772e-30 -0.018954 0.0275 0.000136302
-1.0842e-19 0.032296 0.008656 0.000287029
-2.58494e-26 -0.0333668 0.00233887 0.000975632
1.0842e-19 -0.027704 0.01875 0.000221729
-1.88327e-20 0.031046 0.0124878 0.000278507
-1.91627e-20 0.028546 0.0175 0.000260648
0 0.033546 1.63364e-08 0.00113207
0 0.017296 0.0287506 0.000136123
-1.0842e-19 0.012296 0.0312567 0.000103179
-3.71184e-21 0.008546 0.0325122 8.77495e-05
-5.80722e-20 0.033546 0.00233888 0.000846066
8.07794e-28 -0.008954 0.0325122 8.28987e-05
0 -0.012704 0.0312567 9.51752e-05
1.0842e-19 -0.017704 0.0287506 0.000122081
2.1684e-19 -0.000204 0.0337829 7.14333e-05
1.62505e-28 -0.028954 0.0174856 0.000229935
0 -0.032704 0.008656 0.000306779
-1.57772e-30 -0.028954 0.0175 0.000229842
1.61559e-27 -0.031454 0.0124878 0.000261489
0 0.002296 0.0337829 7.20267e-05
-2.95448e-20 0.033546 0.00479858 0.000444679
-2.1684e-19 -0.002704 0.0337829 7.08578e-05
0 0.029796 0.0162494 0.000268823
-8.27181e-25 -0.033954 5.47877e-09 0.00124513
-1.14856e-19 0.016046 0.0300012 0.000120039
1.21169e-27 -0.0100569 0.0325122 8.26181e-05
-4.00818e-21 -0.033954 0.00233887 0.000976436
1.0842e-19 0.004796 0.033783 7.26322e-05
0 -0.005204 0.0337829 7.02897e-05
1.0842e-19 0.032296 0.011217 0.00028064
0 -0.016454 0.0300012 0.000108317
8.29978e-21 -0.033954 0.00479858 0.000558158
1.0842e-19 -0.030204 0.0162494 0.000238032
-1.0842e-19 0.024796 0.02375 0.000202962
-2.57517e-20 0.011046 0.0325122 8.85026e-05
1.58401e-19 0.023546 0.025 0.000186803
-5.61775e-20 0.033546 0.00736572 0.000309345
-1.91544e-20 0.026046 0.0225 0.000217159
1.0842e-19 0.022296 0.02625 0.000170741
-1.61559e-27 -0.011454 0.0325122 8.22627e-05
-5.9729e-20 0.031046 0.0149988 0.000273446
0 -0.0170154 0.0300012 0.000108141
1.0842e-19 0.007296 0.0337829 7.32519e-05
0 -0.032704 0.011217 0.000270304
0 0.014796 0.0312567 0.00010405
-1.0842e-19 0.027296 0.02125 0.000231421
3.28979e-21 -0.023954 0.025 0.000162979
-1.91544e-20 0.021046 0.0275 0.000153949
0 -0.025204 0.02375 0.00017648
-2.58494e-26 -0.0345651 0.00233887 0.000977229
-3.62876e-29 0.021046 0.0275262 0.000153615
0 -0.007704 0.0337829 6.97435e-05
-1.0842e-19 -0.022704 0.02625 0.000149421
6.45119e-20 -0.026454 0.0225 0.000188487
-1.29247e-26 -0.033954 0.00736572 0.000359068
0 -0.015204 0.0312567 9.44545e-05
-1.0842e-19 0.034796 0.00116943 0.0011327
0 -0.031454 0.0149988 0.000245115
-1.91544e-20 0.028546 0.02 0.000242964
8.08456e-20 -0.021454 0.0275 0.00013536
-1.0842e-19 0.019796 0.0287506 0.000137268
0 -0.027704 0.02125 0.000200465
-4.1359e-25 -0.034974 0 0.00124607
1.0842e-19 0.034796 0.00356872 0.000548799
1.36189e-19 0.033546 0.00994629 0.000283776
1.08548e-19 0.001046 0.0350537 5.99007e-05
-2.6732e-20 -0.001454 0.0350537 5.94081e-05
2.1684e-19 0.032296 0.0137433 0.000277933
0 -0.020204 0.0287506 0.000121215
-1.26218e-29 0.0183015 0.0300012 0.000120953
1.0842e-19 0.009796 0.0337829 7.38855e-05
3.28979e-21 -0.028954 0.02 0.000210536
0 0.029796 0.01875 0.000254553
-3.94631e-20 0.013546 0.0325122 8.92604e-05
0 -0.035204 0.00116943 0.00124636
-1.27966e-20 0.003546 0.0350537 6.04062e-05
0 0.018546 0.0300012 0.000121053
3.29662e-20 -0.003954 0.0350537 5.89269e-05
-2.1684e-19 -0.010204 0.033783 6.92e-05
0 -0.011454 0.0334075 7.35538e-05
0 0.034796 0.00608215 0.000329221
0 -0.013954 0.0325122 8.16369e-05
0 -0.033954 0.00994629 0.000288729
0 -0.035204 0.00356872 0.000705567
0 -0.032704 0.0137433 0.000252363
5.82475e-20 -0.018954 0.0300012 0.000107533
1.0842e-19 -0.030204 0.01875 0.000220617
-2.09986e-20 0.006046 0.0350537 6.0923e-05
1.58401e-19 0.031046 0.0175 0.000262798
7.43539e-20 -0.006454 0.0350537 5.84568e-05
0 0.017296 0.0312567 0.000104932
0 -0.035204 0.00608215 0.000412075
1.3705e-19 0.033546 0.0124878 0.000280076
2.1684e-19 0.034796 0.008656 0.000285719
-1.0842e-19 -0.017704 0.0312567 9.37425e-05
1.0842e-19 0.012296 0.0337829 7.4525e-05
1.23062e-28 -0.031454 0.0174805 0.00022895
8.08487e-20 -0.031454 0.0175 0.000228823
-1.65436e-24 0.036046 1.31538e-08 0.00113384
-2.80033e-20 0.008546 0.0350537 6.14501e-05
1.0842e-19 -0.012704 0.0337829 6.86687e-05
1.58401e-19 0.026046 0.025 0.000188433
-1.0842e-19 0.024796 0.02625 0.000172238
1.16035e-19 0.036046 0.00233887 0.000839765
0 0.032296 0.0162494 0.000271038
-8.07794e-28 -0.033954 0.0124878 0.000261162
-1.85554e-20 -0.008954 0.0350537 5.79957e-05
0 0.027296 0.02375 0.000204727
-4.15987e-20 0.023546 0.0275 0.000155299
-1.15174e-28 0.023546 0.0275249 0.00015498
-1.0842e-19 -0.035204 0.00865601 0.000307759
-3.55134e-20 0.016046 0.0325122 9.00254e-05