# kMean  POINT_DATA 24995
# x  y  z  kMean
-7.89225e-09 0 0 0.00119089
0.00104601 -5.42101e-20 0 0.00119912
-0.00104602 1.0842e-19 0 0.00118259
0.00145399 -1.0842e-19 0 0.00120238
-0.001454 1.0842e-19 0 0.00117943
0.00125 -2.25875e-20 0.00116943 0.00118101
-0.00125 0 0.00116944 0.0011617
-2.4659e-10 1.0842e-19 0.00233887 0.000917805
-0.00250001 0 0 0.00117159
0.00250001 1.0842e-19 0 0.00121077
-0.0025 1.0842e-19 0.00233887 0.000904376
0.00250001 0 0.00233887 0.000931573
-0.00354601 -2.71051e-20 0 0.00116358
0.00354603 -5.42101e-20 0 0.0012192
-0.00125 1.807e-20 0.00356873 0.000646995
0.00125 4.51751e-21 0.00356872 0.00065476
-0.00375 1.807e-20 0.00116944 0.00114316
0.00375001 -9.03502e-21 0.00116943 0.00120068
-0.00395399 -2.71051e-20 0 0.00116052
0.003954 -5.42101e-20 0 0.00122254
3.27698e-10 1.0842e-19 0.00479858 0.000508818
-0.00499999 0 0 0.00115297
0.00500002 1.0842e-19 0 0.00123119
-0.00375 9.03502e-21 0.00356873 0.000639328
0.00375 9.03502e-21 0.00356873 0.00066262
-0.0025 1.0842e-19 0.00479858 0.000504114
0.0025 1.0842e-19 0.00479858 0.000513525
-0.005 1.0842e-19 0.00233887 0.000891327
0.00500001 0 0.00233887 0.000945652
-0.006046 0 0 0.00114526
0.00604603 0 0 0.00123985
-0.00125 9.03502e-21 0.00608215 0.000381114
0.00125 0 0.00608215 0.000383128
-0.00625 9.03502e-21 0.00116944 0.00112528
0.00625001 1.807e-20 0.00116944 0.00122092
-0.00645398 0 0 0.0011423
0.006454 0 0 0.00124329
0.005 1.0842e-19 0.00479858 0.000518259
-0.005 1.0842e-19 0.00479858 0.000499382
0.00375 -9.03502e-21 0.00608215 0.000385034
-0.00375 -9.03502e-21 0.00608215 0.000378979
-0.00625 2.71051e-20 0.00356872 0.000631744
0.00625 9.03502e-21 0.00356873 0.000670485
9.90286e-11 1.0842e-19 0.00736572 0.000335411
-0.00749999 0 0 0.00113502
0.00750001 1.0842e-19 0 0.0012522
0.0025 1.0842e-19 0.00736572 0.000336642
-0.0025 1.0842e-19 0.00736572 0.000334119
-0.0075 1.0842e-19 0.00233887 0.000878676
0.0075 0 0.00233887 0.0009601
-0.00854601 0 0 0.00112763
0.00854602 0 0 0.00126117
0.00625 9.03502e-21 0.00608215 0.000386943
-0.00625 -9.03502e-21 0.00608215 0.000376729
-0.00125 0 0.008656 0.000297057
0.00125 3.61401e-20 0.00865601 0.000297751
-0.00875 0 0.00116943 0.00110809
0.00875 0 0.00116944 0.0012418
0.005 1.0842e-19 0.00736572 0.000337851
-0.005 1.0842e-19 0.00736572 0.000332741
0.0075 1.0842e-19 0.00479858 0.000523091
-0.0075 1.0842e-19 0.00479858 0.000494666
0.00895398 0 0 0.00126469
-0.00895399 2.71051e-20 0 0.00112478
0.00375 0 0.008656 0.000298427
-0.00375 -1.807e-20 0.008656 0.000296328
0.00875 1.807e-20 0.00356872 0.000678651
-0.00875 1.807e-20 0.00356872 0.000624366
4.41108e-12 1.0842e-19 0.00994629 0.00028398
0.00999999 1.0842e-19 0 0.00127381
-0.01 1.0842e-19 0 0.00111766
0.0025 1.0842e-19 0.00994629 0.000284659
-0.0025 1.0842e-19 0.00994629 0.000283291
-0.01 0 0.00233887 0.000866395
0.01 0 0.00233887 0.000974952
0.0075 1.0842e-19 0.00736572 0.000339086
-0.0075 1.0842e-19 0.00736572 0.000331287
0.00875 2.71051e-20 0.00608215 0.000389014
-0.00875 9.03502e-21 0.00608215 0.000374435
-0.00625 -9.03502e-21 0.008656 0.000295539
0.00625 -9.03502e-21 0.008656 0.000299093
0.011046 -2.71051e-20 0 0.00128315
-0.011046 5.42101e-20 0 0.0011105
0.01 1.0842e-19 0.00479858 0.000528092
-0.01 1.0842e-19 0.00479858 0.000489998
0.005 1.0842e-19 0.00994629 0.000285337
-0.005 1.0842e-19 0.00994629 0.000282581
-0.00125 -9.03502e-21 0.011217 0.000272717
0.00125 0 0.011217 0.000273431
0.01125 -9.03502e-21 0.00116943 0.00126332
-0.01125 -9.03502e-21 0.00116944 0.00109136
0.011454 -2.71051e-20 0 0.00128671
-0.011454 5.42101e-20 0 0.00110774
0.01125 -9.03502e-21 0.00356872 0.000687024
-0.01125 0 0.00356872 0.00061709
0.00375 9.03502e-21 0.011217 0.00027415
-0.00375 2.71051e-20 0.011217 0.000272014
-0.00875 9.03502e-21 0.008656 0.000294669
0.00875 0 0.00865601 0.000299758
0.01 1.0842e-19 0.00736572 0.00034039
-0.01 1.0842e-19 0.00736572 0.000329781
0.0075 1.0842e-19 0.00994629 0.000286024
-0.0075 1.0842e-19 0.00994629 0.000281835
-3.39195e-12 1.0842e-19 0.0124878 0.000267323
0.0125 1.0842e-19 0 0.00129573
-0.0125 1.0842e-19 0 0.00110084
0.0125 0 0.00233887 0.000990064
-0.0125 0 0.00233887 0.000854452
0.0025 1.0842e-19 0.0124878 0.000268152
-0.0025 1.0842e-19 0.0124878 0.000266512
0.01125 1.807e-20 0.00608215 0.000391234
-0.01125 9.03502e-21 0.00608215 0.000372103
0.00625 9.03502e-21 0.011217 0.000274893
-0.00625 2.71051e-20 0.011217 0.000271314
0.0125 1.0842e-19 0.00479858 0.000533257
-0.0125 1.0842e-19 0.00479858 0.000485392
0.005 1.0842e-19 0.0124878 0.000269007
-0.005 1.0842e-19 0.0124878 0.000265713
-0.013546 -5.42101e-20 0 0.0010939
0.013546 -5.42101e-20 0 0.00130508
-0.01375 -9.03502e-21 0.00116944 0.00107515
0.01375 9.03502e-21 0.00116944 0.00128479
0.00125 -9.03502e-21 0.0137433 0.00026245
-0.00125 -9.03502e-21 0.0137433 0.000261521
-0.013954 -5.42101e-20 0 0.00109123
0.013954 -5.42101e-20 0 0.00130869
0.01 1.0842e-19 0.00994629 0.000286731
-0.01 1.0842e-19 0.00994629 0.000281059
0.01125 9.03502e-21 0.008656 0.000300465
-0.01125 -9.03502e-21 0.008656 0.000293772
-0.01375 -9.03502e-21 0.00356873 0.000610024
0.01375 9.03502e-21 0.00356872 0.000695616
0.00875 -9.03502e-21 0.011217 0.000275659
-0.00875 -9.03502e-21 0.011217 0.000270589
0.00375 -9.03502e-21 0.0137433 0.00026341
-0.00375 -9.03502e-21 0.0137433 0.000260616
0.0125 1.0842e-19 0.00736572 0.000341785
-0.0125 1.0842e-19 0.00736572 0.00032825
0.0075 1.0842e-19 0.0124878 0.000269893
-0.0075 1.0842e-19 0.0124878 0.000264912
-5.62215e-13 1.0842e-19 0.0149988 0.000256505
0.015 1.0842e-19 0 0.00131798
-0.015 1.0842e-19 0 0.00108451
0.01375 1.807e-20 0.00608215 0.00039353
-0.01375 -9.03502e-21 0.00608215 0.000369777
0.00625 1.807e-20 0.0137433 0.000264412
-0.00625 9.03502e-21 0.0137433 0.000259729
0.015 0 0.00233887 0.00100545
-0.015 0 0.00233887 0.000842855
0.0025 1.0842e-19 0.0149988 0.00025757
-0.0025 1.0842e-19 0.0149988 0.000255472
0.015 1.0842e-19 0.00479858 0.000538589
-0.015 1.0842e-19 0.00479858 0.000480881
0.005 1.0842e-19 0.0149988 0.000258673
-0.005 1.0842e-19 0.0149988 0.000254465
0.01125 9.03502e-21 0.011217 0.000276445
-0.01125 0 0.011217 0.000269866
0.0125 1.0842e-19 0.00994629 0.000287488
-0.0125 1.0842e-19 0.00994629 0.000280271
0.01 1.0842e-19 0.0124878 0.000270813
-0.01 1.0842e-19 0.0124878 0.000264111
0.016046 2.71051e-20 0 0.00132755
-0.016046 2.71051e-20 0 0.00107779
-0.01375 -2.71051e-20 0.008656 0.00029286
0.01375 -9.03502e-21 0.008656 0.000301223
-0.01625 -9.03502e-21 0.00116944 0.00105941
0.01625 0 0.00116943 0.0013068
0.00875 -2.71051e-20 0.0137433 0.000265449
-0.00875 9.03502e-21 0.0137433 0.00025884
0.00125 0 0.0162494 0.000251412
-0.00125 1.807e-20 0.0162494 0.000250256
-0.016454 2.71051e-20 0 0.00107519
0.016454 -8.13152e-20 0 0.00133122
0.01625 9.03502e-21 0.00356872 0.000704432
-0.01625 0 0.00356873 0.000603143
-0.00375 1.807e-20 0.0162494 0.000249127
0.00375 -9.03502e-21 0.0162494 0.000252608
0.015 1.0842e-19 0.00736572 0.000343309
-0.015 1.0842e-19 0.00736572 0.000326708
0.0075 1.0842e-19 0.0149988 0.000259815
-0.0075 1.0842e-19 0.0149988 0.00025347
0.01625 -9.03502e-21 0.00608215 0.000395964
-0.01625 -9.03502e-21 0.00608215 0.000367461
0.00625 9.03502e-21 0.0162494 0.000253845
-0.00625 -9.03502e-21 0.0162494 0.000248026
-0.0175 -2.1684e-19 0 0.00106857
0.0175 -1.0842e-19 0 0.00134062
-1.02399e-14 1.0842e-19 0.0175 0.000243128
-0.0175 0 0.00233887 0.00083153
0.0175 1.0842e-19 0.00233887 0.00102113
0.0125 1.0842e-19 0.0124878 0.000271777
-0.0125 1.0842e-19 0.0124878 0.000263326
0.0025 1.0842e-19 0.0175 0.000244381
-0.0025 1.0842e-19 0.0175 0.000241917
0.01375 -9.03502e-21 0.011217 0.000277288
-0.01375 -9.03502e-21 0.011217 0.000269135
0.01125 -1.807e-20 0.0137433 0.00026654
-0.01125 -9.03502e-21 0.0137433 0.000257965
0.015 1.0842e-19 0.00994629 0.000288348
-0.015 1.0842e-19 0.00994629 0.000279468
0.01 1.0842e-19 0.0149988 0.000261005
-0.01 1.0842e-19 0.0149988 0.000252494
0.0175 1.0842e-19 0.00479858 0.000544119
-0.0175 1.0842e-19 0.00479858 0.00047646
0.005 1.0842e-19 0.0175 0.000245678
-0.005 1.0842e-19 0.0175 0.000240739
0.01625 -9.03502e-21 0.008656 0.000302176
-0.01625 9.03502e-21 0.008656 0.000291908
0.00875 -2.71051e-20 0.0162494 0.000255127
-0.00875 -1.807e-20 0.0162494 0.00024694
0.018546 -5.42101e-20 0 0.00135026
-0.018546 -1.35525e-19 0 0.00106196
0.01875 0 0.00116943 0.00132903
-0.01875 0 0.00116944 0.00104394
0.00125 2.71051e-20 0.01875 0.000235702
-0.00125 9.03502e-21 0.01875 0.000234406
-0.018954 -1.35525e-19 0 0.00105941
0.018954 -5.42101e-20 0 0.00135396
0.0175 1.0842e-19 0.00736572 0.000345028
-0.0175 1.0842e-19 0.00736572 0.00032517
0.0075 1.0842e-19 0.0175 0.000247022
-0.0075 1.0842e-19 0.0175 0.000239586
0.01875 1.807e-20 0.00356872 0.000713397
-0.01875 0 0.00356873 0.000596393
0.00375 -1.807e-20 0.01875 0.000237045
-0.00375 9.03502e-21 0.01875 0.000233156
0.01375 -9.03502e-21 0.0137433 0.000267674
-0.01375 -9.03502e-21 0.0137433 0.00025712
0.015 1.0842e-19 0.0124878 0.000272805
-0.015 1.0842e-19 0.0124878 0.000262549
0.0125 1.0842e-19 0.0149988 0.000262247
-0.0125 1.0842e-19 0.0149988 0.000251551
-0.01875 1.807e-20 0.00608215 0.000365179
0.01875 -1.807e-20 0.00608215 0.000398635
-0.01625 -2.71051e-20 0.011217 0.000268403
0.01625 -1.807e-20 0.011217 0.000278213
0.01125 -1.807e-20 0.0162494 0.000256461
-0.01125 -1.807e-20 0.0162494 0.000245893
-0.00625 9.03502e-21 0.01875 0.000231937
0.00625 -1.807e-20 0.01875 0.000238437
-0.02 -2.1684e-19 0 0.00105296
0.02 -1.0842e-19 0 0.00136344
-1.024e-14 1.0842e-19 0.02 0.000224725
0.0175 1.0842e-19 0.00994629 0.000289358
-0.0175 1.0842e-19 0.00994629 0.000278665
0.02 1.0842e-19 0.00233887 0.001037
-0.02 0 0.00233887 0.000820453
0.01 1.0842e-19 0.0175 0.000248416
0.0025 1.0842e-19 0.02 0.000226071
-0.0025 1.0842e-19 0.02 0.000223423
-0.01 1.0842e-19 0.0175 0.000238462
0.02 1.0842e-19 0.00479858 0.000549841
-0.02 1.0842e-19 0.00479858 0.000472147
0.005 1.0842e-19 0.02 0.000227463
-0.005 1.0842e-19 0.02 0.000222158
0.01875 9.03502e-21 0.008656 0.000303372
-0.01875 2.71051e-20 0.008656 0.000290964
-0.00875 1.807e-20 0.01875 0.000230748
0.00875 -1.807e-20 0.01875 0.000239883
0.021046 -5.42101e-20 0 0.00137329
-0.021046 -1.35525e-19 0 0.00104655
0.015 1.0842e-19 0.0149988 0.000263548
-0.015 1.0842e-19 0.0149988 0.00025063
0.02125 0 0.00116943 0.00135158
-0.02125 0 0.00116944 0.00102888
0.01625 0 0.0137433 0.000268874
-0.01625 2.71051e-20 0.0137433 0.000256288
0.01375 -9.03502e-21 0.0162494 0.000257854
-0.01375 -9.03502e-21 0.0162494 0.000244881
0.00125 1.807e-20 0.02125 0.000214701
-0.00125 -9.03502e-21 0.02125 0.000213358
0.02 1.0842e-19 0.00736572 0.000346973
-0.02 1.0842e-19 0.00736572 0.000323665
0.0075 1.0842e-19 0.02 0.000228908
-0.0075 1.0842e-19 0.02 0.000220922
-0.021454 -1.35525e-19 0 0.00104406
0.021454 -5.42101e-20 0 0.00137701
0.0175 1.0842e-19 0.0124878 0.000273919
-0.0175 1.0842e-19 0.0124878 0.000261785
0.0125 1.0842e-19 0.0175 0.000249867
-0.0125 1.0842e-19 0.0175 0.000237376
0.02125 2.71051e-20 0.00356873 0.000722524
-0.02125 0 0.00356873 0.000589827
-0.00375 1.807e-20 0.02125 0.000212056
0.00375 -9.03502e-21 0.02125 0.000216088
0.01875 -9.03502e-21 0.011217 0.000279259
-0.01875 0 0.011217 0.000267697
-0.01125 1.807e-20 0.01875 0.000229586
0.01125 9.03502e-21 0.01875 0.000241374
0.02125 0 0.00608215 0.000401503
-0.02125 1.807e-20 0.00608215 0.000362978
0.00625 -1.807e-20 0.02125 0.000217526
-0.00625 -9.03502e-21 0.02125 0.000210774
0.02 1.0842e-19 0.00994629 0.000290564
-0.02 1.0842e-19 0.00994629 0.000277876
0.01 1.0842e-19 0.02 0.000230406
-0.01 1.0842e-19 0.02 0.000219719
0.0225 -1.0842e-19 0 0.00138649
-0.0225 -2.1684e-19 0 0.0010377
-1.02402e-14 1.0842e-19 0.0225 0.000201364
0.0225 1.0842e-19 0.00233887 0.00105305
-0.0225 0 0.00233887 0.000809637
0.0025 1.0842e-19 0.0225 0.000202734
-0.0025 1.0842e-19 0.0225 0.000200037
0.02125 9.03502e-21 0.008656 0.000304825
-0.02125 0 0.008656 0.000290053
0.01625 0 0.0162494 0.000259311
-0.01625 -9.03502e-21 0.0162494 0.00024389
-0.00875 9.03502e-21 0.02125 0.00020953
0.00875 2.71051e-20 0.02125 0.000219016
0.0225 1.0842e-19 0.00479858 0.00055572
-0.0225 1.0842e-19 0.00479858 0.000467956
0.0175 1.0842e-19 0.0149988 0.000264919
-0.0175 1.0842e-19 0.0149988 0.000249734
0.005 1.0842e-19 0.0225 0.000204146
-0.005 1.0842e-19 0.0225 0.000198744
0.015 1.0842e-19 0.0175 0.000251379
-0.015 1.0842e-19 0.0175 0.000236319
-0.01875 -1.807e-20 0.0137433 0.000255478
0.01875 -1.807e-20 0.0137433 0.000270147
-0.01375 9.03502e-21 0.01875 0.000228464
0.01375 -1.807e-20 0.01875 0.000242936
0.023546 -2.71051e-20 0 0.00139661
-0.023546 -1.35525e-19 0 0.00103144
0.02 1.0842e-19 0.0124878 0.000275154
-0.02 1.0842e-19 0.0124878 0.000261043
0.0125 1.0842e-19 0.02 0.000231962
-0.0125 1.0842e-19 0.02 0.000218556
0.0225 1.0842e-19 0.00736572 0.000349081
-0.0225 1.0842e-19 0.00736572 0.000322212
0.0075 1.0842e-19 0.0225 0.000205605
-0.0075 1.0842e-19 0.0225 0.000197476
0.02375 0 0.00116943 0.00137439
-0.02375 0 0.00116944 0.0010141
0.00125 2.71051e-20 0.02375 0.000189078
-0.00125 -1.807e-20 0.02375 0.000187728
-0.023954 -1.35525e-19 0 0.001029
0.023954 -2.71051e-20 0 0.00140029
0.02375 -2.71051e-20 0.00356873 0.000731912
-0.02375 -9.03502e-21 0.00356873 0.000583444
-0.02125 -9.03502e-21 0.011217 0.000266992
0.02125 -9.03502e-21 0.011217 0.000280488
0.01125 -1.807e-20 0.02125 0.00022056
-0.01125 9.03502e-21 0.02125 0.000208324
0.00375 -9.03502e-21 0.02375 0.000190463
-0.00375 -9.03502e-21 0.02375 0.000186422
-0.02375 -1.807e-20 0.00608215 0.000360847
0.02375 0 0.00608215 0.000404576
0.00625 2.71051e-20 0.02375 0.000191889
-0.00625 -1.807e-20 0.02375 0.000185143
0.0225 1.0842e-19 0.00994629 0.000291943
-0.0225 1.0842e-19 0.00994629 0.000277113
0.01 1.0842e-19 0.0225 0.000207113
-0.01 1.0842e-19 0.0225 0.00019624
0.0175 1.0842e-19 0.0175 0.000252961
-0.0175 1.0842e-19 0.0175 0.000235294
0.01875 9.03502e-21 0.0162494 0.000260843
-0.01875 1.807e-20 0.0162494 0.000242947
0.01625 9.03502e-21 0.01875 0.000244554
-0.01625 9.03502e-21 0.01875 0.000227367
0.02 1.0842e-19 0.0149988 0.00026638
-0.02 1.0842e-19 0.0149988 0.000248869
0.015 1.0842e-19 0.02 0.00023358
-0.015 1.0842e-19 0.02 0.000217425
-0.025 -2.1684e-19 0 0.00102273
0.025 -1.0842e-19 0 0.0014094
-1.02403e-14 1.0842e-19 0.025 0.000173908
-0.025 0 0.00233887 0.000799053
0.025 1.0842e-19 0.00233887 0.00106897
0.0025 1.0842e-19 0.025 0.000175248
-0.0025 1.0842e-19 0.025 0.000172608
-0.02375 0 0.008656 0.00028918
0.02375 -1.807e-20 0.00865601 0.000306411
-0.02125 -1.807e-20 0.0137433 0.000254704
0.02125 -1.807e-20 0.0137433 0.000271541
0.01375 1.807e-20 0.02125 0.000222164
0.00875 1.807e-20 0.02375 0.000193355
-0.01375 2.71051e-20 0.02125 0.000207162
-0.00875 1.807e-20 0.02375 0.000183885
0.025 1.0842e-19 0.00479858 0.000561488
-0.025 1.0842e-19 0.00479858 0.00046388
0.005 1.0842e-19 0.025 0.000176625
-0.005 1.0842e-19 0.025 0.000171341
0.0225 1.0842e-19 0.0124878 0.00027654
-0.0225 1.0842e-19 0.0124878 0.000260327
0.0125 1.0842e-19 0.0225 0.000208674
-0.0125 1.0842e-19 0.0225 0.000195047
0.026046 -5.42101e-20 0 0.00141908
-0.026046 -1.35525e-19 0 0.00101659
0.025 1.0842e-19 0.00736572 0.000351154
-0.025 1.0842e-19 0.00736572 0.000320804
0.0075 1.0842e-19 0.025 0.00017804
-0.0075 1.0842e-19 0.025 0.000170097
0.02375 -2.71051e-20 0.011217 0.000281874
-0.02375 -9.03502e-21 0.011217 0.000266334
0.02625 0 0.00116943 0.00139636
-0.02625 1.807e-20 0.00116944 0.000999587
0.00125 9.03502e-21 0.02625 0.000159879
0.01125 -2.71051e-20 0.02375 0.000194876
-0.01125 1.807e-20 0.02375 0.000182663
-0.00125 -9.03502e-21 0.02625 0.000158586
-0.026454 -1.35525e-19 0 0.00101419
0.026454 -5.42101e-20 0 0.00142281
0.02625 -1.807e-20 0.00356873 0.000741041
-0.02625 0 0.00356873 0.000577242
0.00375 -1.807e-20 0.02625 0.000161206
-0.00375 9.03502e-21 0.02625 0.000157338
0.01875 2.71051e-20 0.01875 0.000246248
-0.01875 -1.807e-20 0.01875 0.000226318
0.02 1.0842e-19 0.0175 0.000254623
0.0175 1.0842e-19 0.02 0.000235265
-0.0175 1.0842e-19 0.02 0.000216324
-0.02 1.0842e-19 0.0175 0.000234302
0.02125 9.03502e-21 0.0162494 0.000262467
-0.02125 -9.03502e-21 0.0162494 0.000242015
-0.01625 -1.807e-20 0.02125 0.000206027
0.01625 2.71051e-20 0.02125 0.000223832
0.025 1.0842e-19 0.00994629 0.000293427
-0.025 1.0842e-19 0.00994629 0.00027638
0.01 1.0842e-19 0.025 0.0001795
-0.01 1.0842e-19 0.025 0.00016888
0.02625 -1.807e-20 0.00608215 0.000407445
-0.02625 1.807e-20 0.00608215 0.00035877
0.00625 2.71051e-20 0.02625 0.000162564
-0.00625 -9.03502e-21 0.02625 0.000156115
0.0225 1.0842e-19 0.0149988 0.000267953
-0.0225 1.0842e-19 0.0149988 0.000248036
0.015 1.0842e-19 0.0225 0.000210292
-0.015 1.0842e-19 0.0225 0.000193885
0.02375 -1.807e-20 0.0137433 0.000273064
-0.02375 0 0.0137433 0.000253955
0.01375 -1.807e-20 0.02375 0.000196436
-0.01375 -9.03502e-21 0.02375 0.000181484
-0.0275 -2.1684e-19 0 0.00100798
0.0275 -1.0842e-19 0 0.00143241
-1.02403e-14 1.0842e-19 0.0275 0.000144005
-0.0275 0 0.00233887 0.000788658
0.0275 1.0842e-19 0.00233887 0.00108451
0.0025 1.0842e-19 0.0275 0.000145244
-0.0025 1.0842e-19 0.0275 0.000142802
0.02625 9.03502e-21 0.008656 0.000307963
-0.02625 9.03502e-21 0.008656 0.000288342
0.00875 9.03502e-21 0.02625 0.000163964
-0.00875 9.03502e-21 0.02625 0.000154913
0.0275 1.0842e-19 0.00479858 0.000566466
-0.0275 1.0842e-19 0.00479858 0.000459916
0.025 1.0842e-19 0.0124878 0.000278087
-0.025 1.0842e-19 0.0124878 0.000259638
0.0125 1.0842e-19 0.025 0.000181002
0.005 1.0842e-19 0.0275 0.000146517
-0.005 1.0842e-19 0.0275 0.000141629
-0.0125 1.0842e-19 0.025 0.000167701
0.02 1.0842e-19 0.02 0.000237027
-0.02 1.0842e-19 0.02 0.000215254
0.02125 1.807e-20 0.01875 0.000248019
0.01875 -1.807e-20 0.02125 0.00022557
-0.01875 1.807e-20 0.02125 0.000204928
-0.02125 1.807e-20 0.01875 0.000225289
0.0275 1.0842e-19 0.00736572 0.000352782
-0.0275 1.0842e-19 0.00736572 0.000319448
0.0225 1.0842e-19 0.0175 0.000256376
0.0175 1.0842e-19 0.0225 0.000211975
-0.0175 1.0842e-19 0.0225 0.00019275
-0.0225 1.0842e-19 0.0175 0.000233343
0.0075 1.0842e-19 0.0275 0.000147826
-0.0075 1.0842e-19 0.0275 0.000140473
0.028546 -5.42101e-20 0 0.00144207
-0.028546 -1.35525e-19 0 0.00100186
0.02625 -9.03502e-21 0.011217 0.000283484
-0.02625 -9.03502e-21 0.011217 0.000265677
0.01125 -1.807e-20 0.02625 0.000165404
-0.01125 9.03502e-21 0.02625 0.000153744
-0.02875 9.03502e-21 0.00116943 0.000985179
0.02875 -9.03502e-21 0.00116943 0.00141881
-0.02375 9.03502e-21 0.0162494 0.000241137
0.02375 9.03502e-21 0.0162494 0.000264197
0.01625 1.807e-20 0.02375 0.000198057
-0.01625 -2.71051e-20 0.02375 0.000180319
-0.00125 9.03502e-21 0.0287506 0.000128176
0.00125 0 0.0287506 0.000129326
-0.028954 -1.35525e-19 0 0.000999493
0.028954 -5.42101e-20 0 0.00144595
0.02875 -1.807e-20 0.00356873 0.000748912
-0.02875 1.807e-20 0.00356872 0.000571166
-0.00375 -1.807e-20 0.0287506 0.000127059
0.00375 -1.807e-20 0.0287506 0.000130507
0.025 1.0842e-19 0.0149988 0.000269655
-0.025 1.0842e-19 0.0149988 0.000247236
0.015 1.0842e-19 0.025 0.000182551
-0.015 1.0842e-19 0.025 0.000166553
0.0275 1.0842e-19 0.00994629 0.000294865
-0.0275 1.0842e-19 0.00994629 0.000275677
0.01 1.0842e-19 0.0275 0.000149173
-0.01 1.0842e-19 0.0275 0.000139343
0.02875 -9.03502e-21 0.00608215 0.00040923
-0.02875 9.03502e-21 0.00608215 0.000356778
0.00625 9.03502e-21 0.0287506 0.000131727
-0.00625 -1.807e-20 0.0287506 0.000125964
0.02625 9.03502e-21 0.0137433 0.000274743
-0.02625 -1.807e-20 0.0137433 0.000253237
0.01375 -1.807e-20 0.02625 0.000166885
-0.01375 1.807e-20 0.02625 0.000152607
-0.03 -2.1684e-19 0 0.000993459
0.03 -1.0842e-19 0 0.00145606
-1.49751e-13 1.0842e-19 0.0300012 0.000113891
0.02875 -9.03502e-21 0.008656 0.000309167
-0.02875 -1.807e-20 0.008656 0.000287544
0.02125 1.807e-20 0.02125 0.000227393
-0.02125 1.807e-20 0.02125 0.000203843
0.00875 9.03502e-21 0.0287506 0.000132978
-0.00875 -1.807e-20 0.0287506 0.000124878
-0.03 0 0.00233887 0.000778451
0.03 1.0842e-19 0.00233887 0.00109954
0.0225 1.0842e-19 0.02 0.000238872
0.02 1.0842e-19 0.0225 0.000213731
-0.02 1.0842e-19 0.0225 0.000191643
-0.0225 1.0842e-19 0.02 0.000214212
0.0025 1.0842e-19 0.0300012 0.000114962
-0.0025 1.0842e-19 0.0300012 0.00011285
0.0275 1.0842e-19 0.0124878 0.000279766
-0.0275 1.0842e-19 0.0124878 0.000258974
0.0125 1.0842e-19 0.0275 0.00015056
-0.0125 1.0842e-19 0.0275 0.000138248
0.02375 9.03502e-21 0.01875 0.000249885
0.01875 1.807e-20 0.02375 0.000199741
-0.02375 -1.807e-20 0.01875 0.000224298
-0.01875 9.03502e-21 0.02375 0.000179191
0.03 1.0842e-19 0.00479858 0.000569976
-0.03 1.0842e-19 0.00479858 0.000456068
0.005 1.0842e-19 0.0300012 0.000116066
-0.005 1.0842e-19 0.0300012 0.000111831
0.025 1.0842e-19 0.0175 0.000258236
0.0175 1.0842e-19 0.025 0.000184155
-0.0175 1.0842e-19 0.025 0.000165432
-0.025 1.0842e-19 0.0175 0.000232417
0.02875 2.71051e-20 0.011217 0.000285128
-0.02875 -9.03502e-21 0.011217 0.000265062
-0.02625 -9.03502e-21 0.0162494 0.000240278
0.02625 1.807e-20 0.0162494 0.000266055
0.01625 -1.807e-20 0.02625 0.000168404
-0.01625 2.71051e-20 0.02625 0.000151501
0.01125 9.03502e-21 0.0287506 0.000134263
-0.01125 -1.807e-20 0.0287506 0.000123829
0.03 1.0842e-19 0.00736572 0.000353516
-0.03 1.0842e-19 0.00736572 0.00031815
0.0075 1.0842e-19 0.0300012 0.000117201
-0.0075 1.0842e-19 0.0300012 0.000110826
0.031046 0 0 0.00146584
-0.031046 -1.35525e-19 0 0.000987468
0.03125 9.03502e-21 0.00116943 0.00144197
-0.03125 9.03502e-21 0.00116943 0.000971115
-0.00125 -9.03502e-21 0.0312567 9.86381e-05
0.00125 -2.71051e-20 0.0312567 9.95989e-05
0.0275 1.0842e-19 0.0149988 0.00027151
-0.0275 1.0842e-19 0.0149988 0.000246461
0.015 1.0842e-19 0.0275 0.000151989
-0.015 1.0842e-19 0.0275 0.000137184
-0.03125 1.807e-20 0.00356872 0.000565242
0.03125 -2.71051e-20 0.00356872 0.000754953
-0.031454 -1.35525e-19 0 0.00098514
0.031454 0 0 0.00146995
0.00375 9.03502e-21 0.0312567 0.000100586
-0.00375 9.03502e-21 0.0312567 9.76985e-05
0.03 1.0842e-19 0.00994629 0.000296007
-0.03 1.0842e-19 0.00994629 0.000275006
0.01 1.0842e-19 0.0300012 0.000118369
-0.01 1.0842e-19 0.0300012 0.000109842
0.0225 1.0842e-19 0.0225 0.000215567
-0.0225 1.0842e-19 0.0225 0.000190561
0.03125 -9.03502e-21 0.00608215 0.000409415
-0.03125 -9.03502e-21 0.00608215 0.000354878
-0.02875 9.03502e-21 0.0137433 0.000252537
0.02875 9.03502e-21 0.0137433 0.000276599
0.02125 9.03502e-21 0.02375 0.000201503
0.02375 -9.03502e-21 0.02125 0.000229293
-0.02125 9.03502e-21 0.02375 0.000178082
-0.02375 0 0.02125 0.000202784
0.01375 9.03502e-21 0.0287506 0.000135593
-0.01375 -9.03502e-21 0.0287506 0.000122814
0.00625 -9.03502e-21 0.0312567 0.000101604
-0.00625 -9.03502e-21 0.0312567 9.67759e-05
0.02 1.0842e-19 0.025 0.00018582
0.025 1.0842e-19 0.02 0.000240811
-0.02 1.0842e-19 0.025 0.000164339
-0.025 1.0842e-19 0.02 0.000213195
-0.01875 0 0.02625 0.000150423
0.01875 0 0.02625 0.000169973
0.02625 2.71051e-20 0.01875 0.00025185
-0.02625 -2.71051e-20 0.01875 0.000223324
-0.03125 9.03502e-21 0.008656 0.000286771
0.03125 -9.03502e-21 0.00865601 0.000309705
0.00875 -1.807e-20 0.0312567 0.000102648
-0.00875 9.03502e-21 0.0312567 9.58691e-05
0.03 1.0842e-19 0.0124878 0.000281472
-0.03 1.0842e-19 0.0124878 0.000258339
-0.0325 -2.1684e-19 0 0.000979162
0.0325 0 0 0.00148072
0.0125 1.0842e-19 0.0300012 0.000119573
-0.0125 1.0842e-19 0.0300012 0.000108892
-7.80544e-12 1.0842e-19 0.0325122 8.5292e-05
-0.0325 0 0.00233887 0.000768437
0.0325 1.0842e-19 0.00233887 0.00111394
0.0275 1.0842e-19 0.0175 0.000260227
0.0175 1.0842e-19 0.0275 0.000153462
-0.0175 1.0842e-19 0.0275 0.000136144
-0.0275 1.0842e-19 0.0175 0.000231513
0.0025 1.0842e-19 0.0325122 8.61603e-05
-0.0025 1.0842e-19 0.0325122 8.44466e-05
0.0325 1.0842e-19 0.00479858 0.000571551
-0.0325 1.0842e-19 0.00479858 0.000452338
0.005 1.0842e-19 0.0325122 8.7055e-05
-0.005 1.0842e-19 0.0325122 8.36202e-05
0.02875 0 0.0162494 0.000268063
-0.02875 -2.71051e-20 0.0162494 0.00023944
-0.01625 -9.03502e-21 0.0287506 0.000121821
0.01625 -9.03502e-21 0.0287506 0.000136967
-0.03125 -2.71051e-20 0.011217 0.000264477
0.03125 9.03502e-21 0.011217 0.000286541
0.01125 -1.807e-20 0.0312567 0.000103729
-0.01125 -2.71051e-20 0.0312567 9.49871e-05
0.0325 1.0842e-19 0.00736572 0.000353057
-0.0325 1.0842e-19 0.00736572 0.000316907
0.0075 1.0842e-19 0.0325122 8.79748e-05
-0.0075 1.0842e-19 0.0325122 8.28089e-05
0.03 1.0842e-19 0.0149988 0.000273491
-0.03 1.0842e-19 0.0149988 0.000245711
0.015 1.0842e-19 0.0300012 0.000120817
-0.015 1.0842e-19 0.0300012 0.000107966
0.033546 -2.71051e-20 0 0.00149056
-0.033546 -1.35525e-19 0 0.000973252
0.02375 1.807e-20 0.02375 0.000203342
-0.02375 2.71051e-20 0.02375 0.000177017
0.0225 1.0842e-19 0.025 0.000187557
0.025 1.0842e-19 0.0225 0.000217487
-0.0225 1.0842e-19 0.025 0.000163274
-0.025 1.0842e-19 0.0225 0.000189506
0.03375 -9.03502e-21 0.00116943 0.001466
-0.03375 2.71051e-20 0.00116944 0.00095722
0.02125 -1.807e-20 0.02625 0.000171602
0.02625 -1.807e-20 0.02125 0.000231293
-0.02125 1.807e-20 0.02625 0.000149369
-0.02625 1.807e-20 0.02125 0.00020174
-0.00125 -3.61401e-20 0.0337829 7.12519e-05
0.00125 -2.71051e-20 0.033783 7.20018e-05
0.03375 -1.807e-20 0.00356872 0.000758536
-0.03375 -9.03502e-21 0.00356873 0.000559499
-0.033954 -1.35525e-19 0 0.000970962
0.033954 1.0842e-19 0 0.0014951
0.0325 1.0842e-19 0.00994629 0.000296642
-0.0325 1.0842e-19 0.00994629 0.000274369
-0.00375 1.807e-20 0.0337829 7.05242e-05
0.00375 -1.807e-20 0.033783 7.27731e-05
0.02 1.0842e-19 0.0275 0.000154983
0.0275 1.0842e-19 0.02 0.000242865
-0.02 1.0842e-19 0.0275 0.000135129
-0.0275 1.0842e-19 0.02 0.0002122
0.01 1.0842e-19 0.0325122 8.89207e-05
-0.01 1.0842e-19 0.0325122 8.20151e-05
0.03125 -1.807e-20 0.0137433 0.000278534
-0.03125 9.03502e-21 0.0137433 0.000251872
0.01375 9.03502e-21 0.0312567 0.000104839
-0.01375 9.03502e-21 0.0312567 9.41371e-05
0.03375 -9.03502e-21 0.00608215 0.000407864
-0.03375 1.807e-20 0.00608215 0.000353034
0.02875 -1.807e-20 0.01875 0.000253961
-0.02875 2.71051e-20 0.01875 0.000222376
-0.01875 -1.807e-20 0.0287506 0.000120845
0.01875 -1.807e-20 0.0287506 0.000138384
0.00625 -1.807e-20 0.0337829 7.3571e-05
-0.00625 2.71051e-20 0.0337829 6.98076e-05
0.03 1.0842e-19 0.0175 0.000262349
-0.03 1.0842e-19 0.0175 0.000230635
0.0175 1.0842e-19 0.0300012 0.000122099
-0.0175 1.0842e-19 0.0300012 0.000107057
0.0325 1.0842e-19 0.0124878 0.000283108
-0.0325 1.0842e-19 0.0124878 0.000257736
0.0125 1.0842e-19 0.0325122 8.98954e-05
-0.0125 1.0842e-19 0.0325122 8.12432e-05
-0.03375 -9.03502e-21 0.008656 0.000286047
0.03375 -9.03502e-21 0.00865601 0.000309085
-0.00875 -1.807e-20 0.0337829 6.91079e-05
0.00875 -1.807e-20 0.0337829 7.43858e-05
-0.035 -2.1684e-19 0 0.000965088
0.035 0 0 0.00150753
-7.51186e-11 1.0842e-19 0.0350537 5.96946e-05
-0.035 0 0.00233887 0.00075861
0.035 1.0842e-19 0.00233887 0.00112798
0.0025 1.0842e-19 0.0350537 6.03501e-05
-0.0025 1.0842e-19 0.0350537 5.90573e-05
0.03125 -1.807e-20 0.0162494 0.000270194
-0.03125 -1.807e-20 0.0162494 0.000238636
0.01625 0 0.0312567 0.000105991
-0.01625 9.03502e-21 0.0312567 9.32978e-05
0.035 1.0842e-19 0.00479858 0.000570736
-0.035 1.0842e-19 0.00479858 0.000448705
0.025 1.0842e-19 0.025 0.00018937
-0.025 1.0842e-19 0.025 0.000162236
0.02375 9.03502e-21 0.02625 0.0001733
0.02625 2.71051e-20 0.02375 0.000205272
-0.02375 9.03502e-21 0.02625 0.000148348
-0.02625 -2.71051e-20 0.02375 0.000175972
0.005 1.0842e-19 0.0350537 6.10238e-05
-0.005 1.0842e-19 0.0350537 5.84363e-05
0.0225 1.0842e-19 0.0275 0.000156559
0.0275 1.0842e-19 0.0225 0.000219511
-0.0225 1.0842e-19 0.0275 0.000134143
-0.0275 1.0842e-19 0.0225 0.000188475
0.03375 9.03502e-21 0.011217 0.000287779
-0.03375 -9.03502e-21 0.011217 0.000263921
-0.01125 -1.807e-20 0.0337829 6.84261e-05
0.01125 1.807e-20 0.0337829 7.52279e-05
0.02875 1.807e-20 0.02125 0.000233409
-0.02875 1.807e-20 0.02125 0.000200726
0.02125 -1.807e-20 0.0287506 0.000139842
-0.02125 1.807e-20 0.0287506 0.0001199
0.035 1.0842e-19 0.00736572 0.000351201
-0.035 1.0842e-19 0.00736572 0.000315705
0.0325 1.0842e-19 0.0149988 0.000275566
-0.0325 1.0842e-19 0.0149988 0.000244995
0.015 1.0842e-19 0.0325122 9.09e-05
-0.015 1.0842e-19 0.0325122 8.04897e-05
0.0075 1.0842e-19 0.0350537 6.17152e-05
-0.0075 1.0842e-19 0.0350537 5.78273e-05
0.036046 8.13152e-20 0 0.00151852
-0.036046 8.13152e-20 0 0.000959273
0.03 1.0842e-19 0.02 0.000245036
-0.03 1.0842e-19 0.02 0.000211231
0.02 1.0842e-19 0.0300012 0.000123421
-0.02 1.0842e-19 0.0300012 0.000106172
0.03625 -1.807e-20 0.00116944 0.00149307
-0.03625 -9.03502e-21 0.00116944 0.000943563
-0.00125 0 0.036344 4.7738e-05
0.00125 9.03502e-21 0.036344 4.8283e-05
0.035 1.0842e-19 0.00994629 0.000296624
-0.035 1.0842e-19 0.00994629 0.000273764
0.03625 9.03502e-21 0.00356872 0.00075872
-0.03625 0 0.00356873 0.000553884
0.03375 -1.807e-20 0.0137433 0.000280495
-0.03375 0 0.0137433 0.000251246
0.03125 9.03502e-21 0.01875 0.00025618
-0.03125 9.03502e-21 0.01875 0.000221452
-0.01875 9.03502e-21 0.0312567 9.24785e-05
0.01875 -1.807e-20 0.0312567 0.000107173
0.01 1.0842e-19 0.0350537 6.24247e-05
-0.01 1.0842e-19 0.0350537 5.72297e-05
-0.036454 8.13152e-20 0 0.000957026
0.036454 8.13152e-20 0 0.0015235
0.01375 -1.807e-20 0.0337829 7.60913e-05
-0.01375 -9.03502e-21 0.0337829 6.77583e-05
0.00375 9.03502e-21 0.036344 4.88403e-05
-0.00375 0 0.036344 4.72105e-05
0.03625 -9.03502e-21 0.00608215 0.000404578
-0.03625 1.807e-20 0.00608215 0.000351235
0.00625 9.03502e-21 0.036344 4.94123e-05
-0.00625 -1.807e-20 0.036344 4.66936e-05
0.0325 1.0842e-19 0.0175 0.000264599
-0.0325 1.0842e-19 0.0175 0.000229787
0.0175 1.0842e-19 0.0325122 9.19361e-05
-0.0175 1.0842e-19 0.0325122 7.97521e-05
-0.02625 1.807e-20 0.02625 0.000147341
0.02625 2.71051e-20 0.02625 0.000175076
0.035 1.0842e-19 0.0124878 0.000284556
-0.035 1.0842e-19 0.0124878 0.000257163
0.0275 1.0842e-19 0.025 0.000191275
0.025 1.0842e-19 0.0275 0.000158198
-0.025 1.0842e-19 0.0275 0.000133181
-0.0275 1.0842e-19 0.025 0.000161222
0.0125 1.0842e-19 0.0350537 6.31543e-05
-0.0125 1.0842e-19 0.0350537 5.66456e-05
-0.03625 -9.03502e-21 0.008656 0.000285354
0.03625 0 0.00865601 0.000307655
0.02875 -9.03502e-21 0.02375 0.000207301