# omega  POINT_DATA 29553
# x  y  z  omega
0 0.00104602 7.11428e-09 144.639
0 -0.000203993 0.00116943 144.769
0 -0.00145398 7.75775e-09 144.896
1.08622e-19 0.001046 0.00233887 97.7431
0 0.002296 0.00116944 144.508
1.18108e-20 -0.001454 0.00233887 97.9515
1.0842e-19 -0.002704 0.00116943 145.022
0 0.001046 0.00323022 75.6383
0 0.003546 7.22173e-09 144.374
0 -0.000203999 0.00356872 50.178
2.58494e-26 -0.00273457 0.00233887 98.0548
-5.16988e-26 -0.001454 0.00361264 66.3223
-1.65436e-24 -0.003954 7.73917e-09 145.144
-1.0842e-19 0.002296 0.00356872 50.0163
5.16988e-26 0.003546 0.00233887 97.528
0 -0.002704 0.00356872 50.3343
4.1359e-25 -0.003954 0.00225921 99.7537
0 -0.003954 0.00233887 98.1532
0 0.001046 0.00479858 36.7441
0 0.004796 0.00116943 144.239
0 0.003546 0.00343605 70.3551
5.16988e-26 -0.001454 0.00479858 36.874
0 -0.00520401 0.00116943 145.266
5.32577e-20 0.003546 0.00479858 36.6106
0 0.004796 0.00356872 49.849
0 0.006046 7.79493e-09 144.1
0 -0.000204 0.00608215 23.2487
0 -0.003954 0.00479858 37.0006
0 -0.005204 0.00356872 50.4858
-8.27181e-25 -0.00645401 6.20271e-09 145.384
5.41565e-20 0.006046 0.00233887 97.3057
1.0842e-19 0.002296 0.00608215 23.1475
0 -0.002704 0.00608215 23.3482
0 -0.00645401 0.00212494 102.651
-1.03398e-25 -0.00645401 0.00233887 98.3483
0 0.007296 0.00116943 143.962
2.58494e-26 0.006046 0.00431085 48.5355
4.51289e-20 0.001046 0.00736572 18.7923
0 -0.001454 0.00736572 18.8495
-2.58494e-26 0.006046 0.00479858 36.4732
0 0.004796 0.00608215 23.0445
-1.0842e-19 -0.00770401 0.00116944 145.502
0 -0.005204 0.00608215 23.4464
5.16988e-26 -0.006454 0.00479858 37.1242
1.0842e-19 0.007296 0.00356872 49.6757
3.50425e-20 0.003546 0.00736572 18.7346
7.84787e-20 -0.003954 0.00736572 18.9064
-1.0842e-19 -0.007704 0.00356872 50.6333
-1.65436e-24 0.00854602 8.72316e-09 143.818
0 -0.000204 0.008656 14.3853
-6.84192e-20 0.008546 0.00233886 97.0762
0 -0.00895401 5.46843e-09 145.615
0 0.002296 0.008656 14.3716
1.0842e-19 -0.002704 0.00865601 14.3997
-1.03398e-25 -0.00895401 0.001998 105.398
0 -0.00895401 0.00233887 98.5368
6.46235e-27 0.00800744 0.00479858 36.3625
0 0.007296 0.00608215 22.9396
0 0.006046 0.00736572 18.6762
3.23117e-27 -0.001454 0.0096327 13.4399
7.33351e-20 -0.006454 0.00736572 18.963
-7.59312e-20 0.008546 0.00479858 36.3321
1.0842e-19 -0.007704 0.00608215 23.543
-2.1684e-19 0.009796 0.00116943 143.674
-1.0842e-19 0.004796 0.008656 14.3587
8.07794e-28 -0.000473983 0.00994629 12.6935
1.61559e-27 0.001046 0.00994629 12.6965
0 -0.001454 0.00994629 12.6916
0 -0.0100624 0 145.713
-2.1684e-19 -0.005204 0.00865601 14.4149
0 -0.008954 0.00479858 37.245
0 -0.003954 0.00935899 14.1031
1.0842e-19 -0.010204 0.00116944 145.728
-1.0842e-19 0.009796 0.00356872 49.497
0 0.003546 0.00994629 12.7026
-2.03057e-20 -0.003954 0.00994629 12.6878
-3.23117e-27 0.008546 0.0065421 24.3007
2.1684e-19 -0.010204 0.00356873 50.7766
0 0.011046 1.00042e-08 143.525
-1.0842e-19 -0.000204 0.011217 11.011
0 0.008546 0.00736572 18.6173
-9.5347e-20 0.011046 0.00233887 96.8385
1.0842e-19 0.007296 0.00865601 14.3464
1.0842e-19 0.002296 0.011217 11.0355
0 -0.011454 6.86537e-09 145.836
1.0842e-19 0.009796 0.00608215 22.8332
-2.1684e-19 -0.002704 0.011217 10.9881
0 -0.007704 0.00865601 14.4312
0 -0.008954 0.00736572 19.0193
0 0.006046 0.00994629 12.7098
0 -0.011454 0.00233887 98.7184
8.07794e-28 -0.006454 0.00988095 12.8442
9.58885e-20 -0.006454 0.00994629 12.6853
-3.23117e-27 0.00931614 0.00736572 18.599
0 -0.010204 0.00608215 23.638
-1.66384e-19 0.011046 0.00479858 36.1877
4.03897e-28 -0.00682261 0.00994629 12.6851
0 0.004796 0.011217 11.0617
-4.03897e-28 0.001046 0.0122979 10.3955
0 0.012296 0.00116943 143.376
0 -0.005204 0.011217 10.9667
0 -0.011454 0.00479858 37.3629
3.43961e-20 0.001046 0.0124878 10.2097
-8.184e-20 -0.001454 0.0124878 10.179
2.01948e-28 0.00176244 0.0124878 10.219
8.27181e-25 -0.0126866 0 145.94
1.0842e-19 -0.012704 0.00116943 145.944
0 0.012296 0.00356872 49.3129
0 0.003546 0.0124878 10.2421
-1.0842e-19 0.009796 0.008656 14.3346
-6.60941e-20 -0.003954 0.0124878 10.1499
0 0.008546 0.00994629 12.7183
-2.1684e-19 -0.012704 0.00356872 50.916
-3.31624e-20 0.011046 0.00736572 18.5581
0 -0.010204 0.008656 14.4485
1.0842e-19 0.007296 0.011217 11.0896
-1.61559e-27 -0.008954 0.00994629 12.6839
-4.03897e-28 0.00908517 0.00994629 12.7203
1.65436e-24 0.013546 1.10685e-08 143.22
0 -0.007704 0.011217 10.9466
2.58494e-26 -0.011454 0.00736572 19.0753
-2.1684e-19 0.012296 0.00608215 22.726
1.0842e-19 -0.000204 0.0137433 9.3801
-1.18111e-19 0.013546 0.00233887 96.5927
0 0.006046 0.0124878 10.2763
0 0.002296 0.0137433 9.41869
0 -0.013954 7.05929e-09 146.048
0 -0.002704 0.0137433 9.34339
-1.14467e-19 -0.006454 0.0124878 10.1223
0 -0.012704 0.00608215 23.7313
-7.23783e-25 -0.013954 0.00214735 102.754
1.03398e-25 -0.013954 0.00233887 98.893
1.54667e-19 0.013546 0.00479858 36.0407
1.0842e-19 0.004796 0.0137433 9.45907
2.01948e-28 0.008546 0.0119353 10.8355
0 -0.005204 0.0137433 9.30827
-2.01948e-28 0.00782085 0.0124878 10.302
0 -0.013954 0.00479858 37.4781
0 0.014796 0.00116943 143.065
1.37052e-19 0.011046 0.00994629 12.7278
-1.0842e-19 0.009796 0.011217 11.1194
7.21934e-20 0.001046 0.0149988 8.89595
0 0.012296 0.008656 14.3233
9.65262e-21 -0.001454 0.0149988 8.85624
-2.01948e-28 0.008546 0.0124878 10.3125
0 -0.010204 0.011217 10.9278
0 -0.011454 0.00994629 12.6837
0 0.014796 0.00356872 49.1252
0 -0.015204 0.00116943 146.151
1.21169e-27 -0.008954 0.0123912 10.1944
0 0.00296952 0.0149988 8.92783
0 -0.008954 0.0124878 10.0961
0 -0.012704 0.008656 14.4666
0 0.003546 0.0149988 8.93738
-3.98254e-20 0.013546 0.00736572 18.4987
-4.43593e-20 -0.003954 0.0149988 8.81816
1.0842e-19 0.007296 0.0137433 9.50143
0 -0.015204 0.00356872 51.0516
-1.51461e-28 -0.00938579 0.0124878 10.0918
0 -0.007704 0.0137433 9.27453
0 -0.013954 0.00736572 19.1309
-1.0842e-19 0.014796 0.00608215 22.6179
-1.65436e-24 0.016046 1.17795e-08 142.9
1.26218e-29 0.006046 0.0149988 8.9806
2.79943e-20 0.016046 0.00233887 96.3384
0 -0.000204 0.0162494 8.37189
1.26879e-20 -0.006454 0.0149988 8.78151
-2.1684e-19 -0.015204 0.00608215 23.8229
0 0.002296 0.0162494 8.41446
-6.31089e-30 0.00672626 0.0149988 8.9929
-8.27181e-25 -0.016454 6.56922e-09 146.249
-1.0842e-19 -0.002704 0.0162494 8.33091
8.07794e-28 -0.016454 0.00233887 99.0675
0 0.012296 0.011217 11.1509
5.18393e-20 0.011046 0.0124878 10.3506
0 -0.0165244 0.00233887 99.0655
-3.67342e-20 0.016046 0.00479858 35.8925
6.18139e-20 0.013546 0.00994629 12.7386
-1.0842e-19 0.009796 0.0137433 9.54595
1.0842e-19 0.004796 0.0162494 8.45863
-4.03897e-28 -0.011454 0.0124878 10.0711
0 -0.012704 0.011217 10.9104
1.0842e-19 -0.005204 0.0162494 8.29139
0 -0.010204 0.0137433 9.24212
0 -0.013954 0.00994629 12.6846
-1.03398e-25 -0.016454 0.00479858 37.5908
-1.0842e-19 0.014796 0.008656 14.3125
0 0.008546 0.0149988 9.02578
0 0.017296 0.00116943 142.736
-1.04052e-19 -0.008954 0.0149988 8.74619
0 -0.015204 0.008656 14.4857
-3.54893e-20 0.001046 0.0175 8.01194
1.42066e-19 -0.001454 0.0175 7.97051
-3.15544e-30 0.003546 0.0172644 8.13793
-6.78833e-20 0.016046 0.00736572 18.4394
-2.1684e-19 0.017296 0.00356872 48.9375
1.0842e-19 -0.017704 0.00116943 146.347
-2.1684e-19 0.007296 0.0162494 8.50458
-1.57772e-30 0.003546 0.0175 8.05481
4.20658e-20 -0.003954 0.0175 7.93045
-1.0842e-19 -0.007704 0.0162494 8.2532
0 -0.016454 0.00736572 19.186
0 -0.017704 0.00356873 51.1846
0 0.006046 0.0171736 8.21425
1.26218e-29 -0.0105114 0.0149988 8.72495
1.0842e-19 0.017296 0.00608215 22.51
-2.12774e-20 0.013546 0.0124878 10.3908
-1.0842e-19 0.012296 0.0137433 9.59265
0 0.006046 0.0175 8.09923
1.65436e-24 0.018546 1.2351e-08 142.563
-1.0842e-19 0.014796 0.011217 11.1842
1.26218e-28 0.0137547 0.0124878 10.3943
-1.06602e-19 0.011046 0.0149988 9.07303
8.08447e-20 -0.006454 0.0175 7.89165
1.11276e-19 0.018546 0.00233887 96.0767
1.0842e-19 -0.012704 0.0137433 9.21095
0 -0.017704 0.00608215 23.913
0 -0.013954 0.0124878 10.0474
0 -0.000204 0.01875 7.60992
0 -0.011454 0.0149988 8.71209
-8.56718e-20 0.016046 0.00994629 12.7505
-1.0842e-19 0.002296 0.01875 7.65162
1.0842e-19 -0.015204 0.011217 10.8943
0 -0.002704 0.01875 7.56946
8.27181e-25 -0.018954 6.6199e-09 146.44
1.0842e-19 0.009796 0.0162494 8.55246
-2.58494e-26 -0.018954 0.00233887 99.2223
4.97932e-20 0.018546 0.00479858 35.7465
1.0842e-19 -0.010204 0.0162494 8.21624
0 -0.018954 0.00305909 81.2085
-4.73061e-20 -0.016454 0.00994629 12.6866
2.1684e-19 0.017296 0.008656 14.3023
0 0.004796 0.01875 7.69467
0 -0.005204 0.01875 7.53017
-3.54882e-20 0.008546 0.0175 8.14531
0 -0.018954 0.00479858 37.7012
0 0.013546 0.0141132 9.5698
-1.91544e-20 -0.008954 0.0175 7.85401
-1.26218e-29 0.0127207 0.0149988 9.10615
0 -0.017704 0.008656 14.5055
0 0.019796 0.00116943 142.391
-7.69895e-20 0.018546 0.00736572 18.3813
3.28979e-21 0.001046 0.02 7.30114
-9.67102e-20 -0.001454 0.02 7.26145
0 0.016046 0.0120613 10.822
-1.0842e-19 0.019796 0.00356872 48.7549
0 0.007296 0.01875 7.73915
0 0.014796 0.0137433 9.64172
1.26218e-29 0.013546 0.0149988 9.12247
1.0842e-19 -0.020204 0.00116943 146.533
-1.0842e-19 -0.007704 0.01875 7.49197
3.28979e-21 0.003546 0.02 7.34199
-4.03897e-28 0.016046 0.0124878 10.4331
0 -0.018954 0.00736572 19.2409
1.0842e-19 0.012296 0.0162494 8.60236
-9.67102e-20 -0.003954 0.02 7.22283
-1.00974e-28 -0.013954 0.0149988 8.67913
0 -0.015204 0.0137433 9.18098
0 -0.020204 0.00356872 51.3141
1.0842e-19 0.017296 0.011217 11.2194
1.0842e-19 -0.012704 0.0162494 8.18038
3.23117e-27 -0.016454 0.0124878 10.025
-3.54882e-20 0.011046 0.0175 8.19318
-2.1684e-19 0.019796 0.00608215 22.405
1.57772e-29 -0.011454 0.0173004 7.88884
6.45119e-20 0.006046 0.02 7.38408
0 -0.011454 0.0175 7.81744
1.0842e-19 -0.017704 0.011217 10.8796
8.08456e-20 -0.006454 0.02 7.18522
-3.70875e-20 0.018546 0.00994629 12.7638
-1.65436e-24 0.021046 1.32786e-08 142.213
-1.0842e-19 -0.020204 0.00608215 24.0015
-1.0842e-19 0.009796 0.01875 7.78517
-3.32229e-20 0.021046 0.00233887 95.8104
0 -0.000204 0.02125 6.95212
0 -0.010204 0.01875 7.45477
0 0.002296 0.02125 6.99092
0 -0.018954 0.00994629 12.6896
-1.0842e-19 -0.002704 0.02125 6.91431
-1.65436e-24 -0.021454 7.86035e-09 146.62
-3.67055e-20 -0.021454 0.00233887 99.3769
1.64666e-19 0.021046 0.00479858 35.6035
0 0.019796 0.008656 14.2932
0 0.0176473 0.0124878 10.4616
-1.13044e-19 0.008546 0.02 7.42751
1.0842e-19 0.004796 0.02125 7.03076
-1.0842e-19 -0.005204 0.02125 6.8774
8.08456e-20 -0.008954 0.02 7.14854
0 -0.021454 0.00449012 45.5301
3.15544e-30 0.013546 0.0172844 8.31877
0 0.016046 0.0149988 9.17428
1.0842e-19 0.014796 0.0162494 8.65443
0 -0.020204 0.008656 14.5263
0 -0.021454 0.00479858 37.8093
-1.0842e-19 0.017296 0.0137433 9.69334
-9.67096e-20 0.013546 0.0175 8.24296
0 -0.015204 0.0162494 8.14556
-2.01948e-28 -0.016454 0.0149988 8.64729
1.19679e-19 0.021046 0.00736572 18.3247
-1.0842e-19 0.022296 0.00116943 142.036
9.46633e-30 -0.013954 0.0174568 7.79733
-7.79273e-20 0.018546 0.0124878 10.4776
0 -0.013954 0.0175 7.78184
0 -0.017704 0.0137433 9.15222
-1.0842e-19 0.012296 0.01875 7.83286
-1.0842e-19 0.007296 0.02125 7.07176
8.08456e-20 0.001046 0.0225 6.66861
8.08456e-20 -0.001454 0.0225 6.63208
-1.0842e-19 0.022296 0.00356872 48.5751
1.0842e-19 -0.007704 0.02125 6.84135
0 -0.012704 0.01875 7.41848
0 -0.021454 0.00736572 19.2954
0 -0.018954 0.0124878 10.0039
0 -0.022704 0.00116943 146.708
-2.1684e-19 0.019796 0.011217 11.2564
-9.67102e-20 0.003546 0.0225 6.70605
3.28979e-21 -0.003954 0.0225 6.59641
3.28979e-21 0.011046 0.02 7.47238
0 -0.0224661 0.00479858 37.8522
2.1684e-19 -0.022704 0.00356872 51.4409
1.58401e-19 -0.011454 0.02 7.11273
-1.0842e-19 -0.020204 0.011217 10.8662
2.1684e-19 0.022296 0.00608215 22.3016
-1.26589e-20 0.021046 0.00994629 12.7784
-3.54881e-20 0.006046 0.0225 6.74448
0 0.009796 0.02125 7.11398
-9.67102e-20 -0.006454 0.0225 6.56153
0 -0.022704 0.00608215 24.0886
0 0.023546 1.4979e-08 141.862
0 -0.010204 0.02125 6.80609
-2.52435e-29 0.018546 0.0146545 9.39989
0 -0.021454 0.00994629 12.6939
-7.77765e-20 0.023546 0.00233888 95.543
-2.99767e-29 0.016046 0.0174447 8.31427
1.0842e-19 0.017296 0.0162494 8.70891
-1.91538e-20 0.016046 0.0175 8.29482
-1.0842e-19 -0.000204 0.02375 6.34814
0 0.018546 0.0149988 9.22862
1.0842e-19 0.002296 0.02375 6.38328
-1.0842e-19 0.014796 0.01875 7.88233
0 -0.002704 0.02375 6.31378
-1.0842e-19 0.022296 0.008656 14.2846
1.65436e-24 -0.023954 9.64824e-09 146.791
1.26218e-29 -0.016454 0.0174796 7.75449
-1.57772e-30 -0.016454 0.0175 7.74716
-4.44498e-20 0.023546 0.00479858 35.4595
-1.0842e-19 -0.017704 0.0162494 8.11173
-9.04137e-20 -0.023954 0.00233887 99.525
-3.54881e-20 0.008546 0.0225 6.78398
1.0842e-19 0.019796 0.0137433 9.74756
0 -0.015204 0.01875 7.38305
-1.91544e-20 0.013546 0.02 7.51879
0 -0.018954 0.0149988 8.61654
0 0.0189756 0.0149988 9.23841
-1.91544e-20 -0.008954 0.0225 6.52739
1.0842e-19 0.004796 0.02375 6.41926
1.0842e-19 -0.022704 0.008656 14.548
-1.0842e-19 -0.005204 0.02375 6.28016
1.58401e-19 -0.013954 0.02 7.07771
6.90159e-20 -0.023954 0.00479858 37.9153
2.1684e-19 -0.020204 0.0137433 9.12469
-1.3697e-19 0.021046 0.0124878 10.5244
-1.0842e-19 0.012296 0.02125 7.15751
1.55749e-19 0.023546 0.00736572 18.2677
-1.0842e-19 -0.012704 0.02125 6.77156
0 -0.023954 0.00649991 25.6113
0 0.024796 0.00116943 141.689
-3.23117e-27 -0.021454 0.0124878 9.98411
0 0.007296 0.02375 6.45616
1.0842e-19 0.022296 0.011217 11.2952
0 -0.007704 0.02375 6.24721
-1.91544e-20 0.001046 0.025 6.07957
8.08456e-20 -0.001454 0.025 6.04683
1.0842e-19 0.024796 0.00356872 48.3898
0 -0.023954 0.00736572 19.3497
8.08456e-20 0.011046 0.0225 6.82463
-1.0842e-19 -0.025204 0.00116944 146.874
5.84013e-20 -0.011454 0.0225 6.49395
8.08456e-20 0.003546 0.025 6.11306
3.28979e-21 -0.003954 0.025 6.01478
1.0842e-19 -0.022704 0.011217 10.8543
7.88861e-30 0.018546 0.0173753 8.3928
1.0842e-19 -0.025204 0.00356872 51.5646
0 0.018546 0.0175 8.34893
0 0.017296 0.01875 7.93373
1.0842e-19 0.024796 0.00608215 22.1953
1.18654e-21 0.023546 0.00994629 12.7939
1.0842e-19 0.019796 0.0162494 8.76595
1.58401e-19 0.016046 0.02 7.56686
0 0.009796 0.02375 6.49405
3.28979e-21 0.006046 0.025 6.14735
0 -0.017704 0.01875 7.34842
-5.83757e-29 -0.018954 0.0174859 7.71847
-9.67102e-20 -0.018954 0.0175 7.71337
3.28979e-21 -0.006454 0.025 5.98337
-1.12244e-19 0.021046 0.0149988 9.28562
1.0842e-19 -0.010204 0.02375 6.21491
-1.0842e-19 0.014796 0.02125 7.20246
-9.67102e-20 -0.016454 0.02 7.04345
0 -0.025204 0.00608215 24.1743
1.0842e-19 -0.020204 0.0162494 8.07887
1.29247e-26 -0.023954 0.00994629 12.6993
3.30872e-24 0.026046 1.67421e-08 141.53
0 -0.015204 0.02125 6.73774
-1.18197e-19 0.026046 0.00233888 95.2918
0 -0.021454 0.0149988 8.58689
1.0842e-19 0.022296 0.0137433 9.8045
-1.0842e-19 -0.000204 0.02625 5.77791
1.58401e-19 0.013546 0.0225 6.86651
-1.0842e-19 0.024796 0.008656 14.2751
0 0.002296 0.02625 5.80898
0 -0.002704 0.02625 5.7475
3.28979e-21 0.008546 0.025 6.1825
0 -0.026454 1.03089e-08 146.951
1.58401e-19 -0.013954 0.0225 6.46117
-2.36214e-20 0.026046 0.00479858 35.3209
-1.0842e-19 -0.022704 0.0137433 9.09838
-9.67102e-20 -0.008954 0.025 5.95258
0 -0.026454 0.00233887 99.6664
-1.0842e-19 -0.025204 0.008656 14.5706
-1.97619e-20 0.023546 0.0124878 10.5737
-1.0842e-19 0.004796 0.02625 5.84074
-1.0842e-19 0.012296 0.02375 6.533
0 -0.005204 0.02625 5.71768
-5.16988e-26 -0.026454 0.00479858 38.0191
0 -0.012704 0.02375 6.18323
0 -0.023954 0.0124878 9.96561
-1.29593e-20 0.026046 0.00736572 18.2076
0 0.024796 0.011217 11.3364
-1.0842e-19 0.007296 0.02625 5.87324
0 0.019796 0.01875 7.98724
1.58401e-19 0.018546 0.02 7.61675
1.0842e-19 0.027296 0.00116943 141.371
8.08456e-20 0.011046 0.025 6.21859
1.29247e-26 -0.026454 0.00693693 22.513
0 -0.007704 0.02625 5.68845
-1.91544e-20 0.021046 0.0175 8.40547
-1.0842e-19 0.017296 0.02125 7.24895
-1.29247e-26 -0.026454 0.00736572 19.4037
8.08456e-20 -0.011454 0.025 5.92238
-1.91544e-20 0.001046 0.0275 5.53552
0 0.027296 0.00356872 48.2384
-1.91544e-20 -0.001454 0.0275 5.50691
3.28979e-21 -0.018954 0.02 7.00993
0 -0.020204 0.01875 7.31458
0 -0.025204 0.011217 10.8437
1.0842e-19 0.022296 0.0162494 8.82575
1.58401e-19 0.016046 0.0225 6.90973
0 -0.017704 0.02125 6.70461
-1.13596e-28 -0.021454 0.0174875 7.68498
-1.57772e-30 -0.021454 0.0175 7.68045
1.58401e-19 0.003546 0.0275 5.56475
1.0842e-19 -0.027704 0.00116943 147.029
4.20665e-20 -0.003954 0.0275 5.47887
-1.57772e-30 -0.001454 0.027817 5.44454
-9.67102e-20 -0.016454 0.0225 6.42904
-1.225e-21 0.026046 0.00994629 12.8088
-2.8766e-20 0.023546 0.0149988 9.34555
0 -0.022704 0.0162494 8.04697
0 -0.027704 0.00356872 51.6855
-1.0842e-19 0.027296 0.00608215 22.0845
0 0.014796 0.02375 6.5731
0 0.009796 0.02625 5.90657
-1.91544e-20 0.006046 0.0275 5.59464
1.0842e-19 -0.010204 0.02625 5.65976
1.0842e-19 -0.015204 0.02375 6.15216
-9.67102e-20 -0.006454 0.0275 5.45138
0 -0.026454 0.00994629 12.7058
0 -0.023954 0.0149988 8.55831
-2.1684e-19 0.024796 0.0137433 9.86463
0 -0.027704 0.00608215 24.2586
-1.91544e-20 0.013546 0.025 6.25569
0 0.028546 1.77183e-08 141.269
8.08456e-20 -0.013954 0.025 5.89275
0 0.027296 0.008656 14.2612
4.87689e-20 0.028546 0.00233888 95.1008
0 -0.025204 0.0137433 9.07325
-1.0842e-19 -0.000204 0.0287506 5.26418
-9.67102e-20 0.008546 0.0275 5.62524
0 0.002296 0.0287506 5.29093
1.0842e-19 -0.002704 0.0287506 5.23797
3.25574e-20 0.026046 0.0124878 10.6251
8.08456e-20 -0.008954 0.0275 5.42441
-9.44979e-20 0.028546 0.00479858 35.2026
1.65436e-24 -0.028954 9.40763e-09 147.101
-1.0842e-19 0.012296 0.02625 5.94077
0 -0.027704 0.00865601 14.5939
8.08456e-20 0.021046 0.02 7.66862
0 0.019796 0.02125 7.2971
-4.1359e-25 -0.028954 0.00233887 99.8014
-1.0842e-19 0.022296 0.01875 8.04307
0 0.004796 0.0287506 5.31827
8.08456e-20 0.018546 0.0225 6.95439
-1.0842e-19 -0.012704 0.02625 5.63161
7.88861e-30 -0.008954 0.0277549 5.37548
-1.0842e-19 -0.005204 0.0287506 5.21227
0 -0.026454 0.0124878 9.94835
1.0842e-19 -0.020204 0.02125 6.67213
-1.91544e-20 -0.021454 0.02 6.97711
-1.9158e-20 0.023546 0.0175 8.46469
0 -0.028954 0.00479858 38.1207
0 0.017296 0.02375 6.61443
8.08456e-20 -0.018954 0.0225 6.39753
0 -0.022704 0.01875 7.28149
-1.39066e-19 0.028546 0.00736572 18.1394
-1.0842e-19 0.027296 0.011217 11.3777
-1.0842e-19 -0.017704 0.02375 6.12166
8.08456e-20 0.011046 0.0275 5.65662
-1.0842e-19 0.024796 0.0162494 8.88862
0 -0.028954 0.00637191 26.6824
4.57539e-29 -0.023954 0.0174875 7.6529
-1.0842e-19 0.007296 0.0287506 5.34622
0 -0.023954 0.0175 7.64837
-1.91544e-20 0.016046 0.025 6.29388
1.0842e-19 -0.007704 0.0287506 5.18706
8.08456e-20 -0.011454 0.0275 5.39795
1.48306e-28 -0.011454 0.027518 5.39453
0 0.029796 0.00116943 141.167
-1.29247e-26 -0.028954 0.00736572 19.4574
0 -0.027704 0.011217 10.8344
-9.67102e-20 -0.016454 0.025 5.86367
0 -0.025204 0.0162494 8.01599
-1.0842e-19 0.029796 0.00356872 48.15
0 -0.000988381 0.0300012 5.01941
7.96169e-20 0.001046 0.0300012 5.03932
0 -0.001454 0.0300012 5.01486
-1.26218e-29 -0.0017932 0.0300012 5.0116
-3.34408e-20 0.026046 0.0149988 9.40862
0 -0.001454 0.0300327 5.00882
1.0842e-19 0.014796 0.02625 5.97592
-1.73031e-20 0.003546 0.0300012 5.0643
0 -0.030204 0.00116943 147.174
2.57079e-20 0.028546 0.00994629 12.8191
1.03435e-19 -0.003954 0.0300012 4.99088
0 -0.015204 0.02625 5.60399
0 0.009796 0.0287506 5.37485
0 -0.026454 0.0149988 8.53078
1.0842e-19 0.029796 0.00608215 21.962
-1.0842e-19 -0.030204 0.00356872 51.8037
0 -0.010204 0.0287506 5.16232
-2.1684e-19 0.027296 0.0137433 9.92774
-1.58081e-20 0.006046 0.0300012 5.08983
-1.29247e-26 -0.028954 0.00994629 12.7133
1.29247e-26 -0.0302455 0.00479858 38.172
5.84013e-20 0.013546 0.0275 5.68883
0 -0.006454 0.0300012 4.96736
1.0842e-19 0.022296 0.02125 7.34707
1.58401e-19 0.021046 0.0225 7.00063
0 -0.030204 0.00608215 24.3413
8.08456e-20 -0.013954 0.0275 5.37198
5.99534e-29 -0.013954 0.027515 5.36916
-1.91544e-20 0.023546 0.02 7.72266
-1.0842e-19 0.019796 0.02375 6.65711
1.0842e-19 -0.027704 0.0137433 9.04929
0 0.029796 0.008656 14.2361
0 0.031046 1.76652e-08 141.123
0 0.024796 0.01875 8.10145
8.08456e-20 -0.021454 0.0225 6.36662
0 -0.022704 0.02125 6.64027
-1.91544e-20 0.018546 0.025 6.33325
-3.67731e-20 0.031046 0.00233888 94.9964
3.07042e-20 0.028546 0.0124878 10.6773
1.0842e-19 -0.020204 0.02375 6.09173
3.23394e-22 0.008546 0.0300012 5.11594
1.58401e-19 -0.023954 0.02 6.94498
0 -0.00868468 0.0300012 4.94678
0 -0.000204 0.0312567 4.78944
-1.0842e-19 0.012296 0.0287506 5.40421
0 -0.008954 0.0300012 4.9443
2.1684e-19 0.002296 0.0312567 4.81211
0 -0.008954 0.0300383 4.93739
8.08456e-20 -0.018954 0.025 5.83512
1.0842e-19 -0.002704 0.0312567 4.76723
8.08456e-20 0.026046 0.0175 8.52684
-1.0842e-19 -0.025204 0.01875 7.24914
7.6781e-20 0.031046 0.00479858 35.1021
0 -0.030204 0.008656 14.6181
1.0842e-19 -0.012704 0.0287506 5.13804
-1.0842e-19 0.017296 0.02625 6.01209
-1.65436e-24 -0.031454 8.32919e-09 147.242
0 -0.028954 0.0124878 9.9323
0 -0.031454 0.00233887 99.9299
0 0.004796 0.0312567 4.83526
0 -0.017704 0.02625 5.57686
-1.0842e-19 -0.005204 0.0312567 4.74544
-1.67239e-28 -0.026454 0.017487 7.62186
-1.91503e-20 -0.026454 0.0175 7.61712
2.58494e-26 -0.031454 0.00420833 53.0283
-1.0842e-19 0.027296 0.0162494 8.9548
0 -0.031454 0.00479858 38.22
1.0842e-19 0.029796 0.011217 11.4164
-1.91572e-20 0.016046 0.0275 5.72195
1.71281e-19 0.031046 0.00736572 18.0513
-8.99539e-20 0.011046 0.0300012 5.14271
8.08456e-20 -0.016454 0.0275 5.34649
1.0842e-19 0.007296 0.0312567 4.85893
-7.88861e-30 -0.016454 0.027561 5.33507
-2.01948e-28 -0.011454 0.0300012 4.92166
1.0842e-19 -0.027704 0.0162494 7.98595
-2.1684e-19 -0.007704 0.0312567 4.72409
1.0842e-19 -0.030204 0.011217 10.8263
-5.52037e-20 0.028546 0.0149988 9.4748
0 -0.031454 0.00736572 19.5105
0 0.032296 0.00116943 141.079
-1.0842e-19 0.014796 0.0287506 5.43436
0 0.032296 0.00356872 48.1137
0 -0.015204 0.0287506 5.11421
-1.29305e-20 0.001046 0.0325122 4.55491
0 -0.001454 0.0325122 4.53458
5.84013e-20 0.023546 0.0225 7.04859
-1.0842e-19 0.022296 0.02375 6.70125
-6.70037e-20 0.031046 0.00994629 12.8195
-2.01948e-28 -0.028954 0.0149988 8.50429
1.0842e-19 0.024796 0.02125 7.39906
1.58401e-19 0.021046 0.025 6.37389
-3.82621e-20 0.003546 0.0325122 4.57567
-1.0842e-19 -0.032704 0.00116943 147.309
-3.14271e-20 -0.003954 0.0325122 4.51465
0 0.009796 0.0312567 4.88315
1.0842e-19 0.029796 0.0137433 9.9934
8.08456e-20 0.026046 0.02 7.77911
-1.0842e-19 -0.022704 0.02375 6.06235
0 0.032296 0.00608215 21.8063
-9.67102e-20 -0.023954 0.0225 6.33629
0 0.019796 0.02625 6.04937
0 -0.010204 0.0312567 4.70313
0 -0.032704 0.00356872 51.9186
6.78939e-21 0.013546 0.0300012 5.17016
8.08456e-20 -0.021454 0.025 5.8071
8.27181e-25 -0.032962 0 147.32
0 -0.025204 0.02125 6.60904
-1.29247e-26 -0.031454 0.00994629 12.7217
-5.05912e-20 0.006046 0.0325122 4.59688
2.01948e-28 -0.013954 0.0300012 4.89945
0 0.027296 0.01875 8.16264
0 -0.020204 0.02625 5.55024
1.24582e-19 -0.006454 0.0325122 4.49511
-9.67102e-20 -0.026454 0.02 6.91355
1.58401e-19 0.018546 0.0275 5.75604
1.0842e-19 -0.030204 0.0137433 9.02646
0 -0.032704 0.00608215 24.4221
-9.46633e-30 0.018546 0.0277129 5.71104
-1.57772e-30 -0.018954 0.0275 5.32147
-1.0842e-19 0.032296 0.008656 14.1869
-2.58494e-26 -0.0333668 0.00233887 100.023
1.0842e-19 -0.027704 0.01875 7.21755
-1.88327e-20 0.031046 0.0124878 10.7298
-1.91627e-20 0.028546 0.0175 8.59219
0 0.033546 1.63364e-08 141.067
0 0.017296 0.0287506 5.46536
-1.0842e-19 0.012296 0.0312567 4.90798
-3.71184e-21 0.008546 0.0325122 4.61858
-5.80722e-20 0.033546 0.00233888 94.9618
8.07794e-28 -0.008954 0.0325122 4.47596
0 -0.012704 0.0312567 4.68256
1.0842e-19 -0.017704 0.0287506 5.09083
2.1684e-19 -0.000204 0.0337829 4.29885
1.62505e-28 -0.028954 0.0174856 7.592
0 -0.032704 0.008656 14.6428
-1.57772e-30 -0.028954 0.0175 7.58674
1.61559e-27 -0.031454 0.0124878 9.9174
0 0.002296 0.0337829 4.31725
-2.95448e-20 0.033546 0.00479858 35.0081
-2.1684e-19 -0.002704 0.0337829 4.28082
0 0.029796 0.0162494 9.02454
-8.27181e-25 -0.033954 5.47877e-09 147.372
-1.14856e-19 0.016046 0.0300012 5.19836
1.21169e-27 -0.0100569 0.0325122 4.46766
-4.00818e-21 -0.033954 0.00233887 100.052
1.0842e-19 0.004796 0.033783 4.33605
0 -0.005204 0.0337829 4.26315
1.0842e-19 0.032296 0.011217 11.4533
0 -0.016454 0.0300012 4.87765
8.29978e-21 -0.033954 0.00479858 38.3168
1.0842e-19 -0.030204 0.0162494 7.95685
-1.0842e-19 0.024796 0.02375 6.747
-2.57517e-20 0.011046 0.0325122 4.64079
1.58401e-19 0.023546 0.025 6.41594
-5.61775e-20 0.033546 0.00736572 17.9341
-1.91544e-20 0.026046 0.0225 7.09846
1.0842e-19 0.022296 0.02625 6.08785
-1.61559e-27 -0.011454 0.0325122 4.45716
-5.9729e-20 0.031046 0.0149988 9.54422
0 -0.0170154 0.0300012 4.87284
1.0842e-19 0.007296 0.0337829 4.35526
0 -0.032704 0.011217 10.8194
0 0.014796 0.0312567 4.93345
-1.0842e-19 0.027296 0.02125 7.45328
3.28979e-21 -0.023954 0.025 5.7796
-1.91544e-20 0.021046 0.0275 5.7912
0 -0.025204 0.02375 6.03352
-2.58494e-26 -0.0345651 0.00233887 100.08
-3.62876e-29 0.021046 0.0275262 5.78559
0 -0.007704 0.0337829 4.24583
-1.0842e-19 -0.022704 0.02625 5.52409
6.45119e-20 -0.026454 0.0225 6.30656
-1.29247e-26 -0.033954 0.00736572 19.563
0 -0.015204 0.0312567 4.66239
-1.0842e-19 0.034796 0.00116943 141.056
0 -0.031454 0.0149988 8.47883
-1.91544e-20 0.028546 0.02 7.8382
8.08456e-20 -0.021454 0.0275 5.2969
-1.0842e-19 0.019796 0.0287506 5.49728
0 -0.027704 0.02125 6.57846
-4.1359e-25 -0.034974 0 147.422
1.0842e-19 0.034796 0.00356872 48.1231
1.36189e-19 0.033546 0.00994629 12.8081
1.08548e-19 0.001046 0.0350537 4.05012
-2.6732e-20 -0.001454 0.0350537 4.03393
2.1684e-19 0.032296 0.0137433 10.062
0 -0.020204 0.0287506 5.06787
-1.26218e-29 0.0183015 0.0300012 5.22454
1.0842e-19 0.009796 0.0337829 4.37492
3.28979e-21 -0.028954 0.02 6.88281
0 0.029796 0.01875 8.22693
-3.94631e-20 0.013546 0.0325122 4.66357
0 -0.035204 0.00116943 147.435
-1.27966e-20 0.003546 0.0350537 4.06664
0 0.018546 0.0300012 5.22738
3.29662e-20 -0.003954 0.0350537 4.01804
-2.1684e-19 -0.010204 0.033783 4.22884
0 -0.011454 0.0334075 4.28631
0 0.034796 0.00608215 21.6105
0 -0.013954 0.0325122 4.43871
0 -0.033954 0.00994629 12.731
0 -0.035204 0.00356872 52.0306
0 -0.032704 0.0137433 9.00472
5.82475e-20 -0.018954 0.0300012 4.85625
1.0842e-19 -0.030204 0.01875 7.18673
-2.09986e-20 0.006046 0.0350537 4.08352
1.58401e-19 0.031046 0.0175 8.66108
7.43539e-20 -0.006454 0.0350537 4.00247
0 0.017296 0.0312567 4.95964
0 -0.035204 0.00608215 24.501
1.3705e-19 0.033546 0.0124878 10.7825
2.1684e-19 0.034796 0.008656 14.1192
-1.0842e-19 -0.017704 0.0312567 4.64258
1.0842e-19 0.012296 0.0337829 4.39505
1.23062e-28 -0.031454 0.0174805 7.5644
8.08487e-20 -0.031454 0.0175 7.55721
-1.65436e-24 0.036046 1.31538e-08 141.088
-2.80033e-20 0.008546 0.0350537 4.10077
1.0842e-19 -0.012704 0.0337829 4.21216
1.58401e-19 0.026046 0.025 6.45951
-1.0842e-19 0.024796 0.02625 6.12765
1.16035e-19 0.036046 0.00233887 94.9982
0 0.032296 0.0162494 9.09825
-8.07794e-28 -0.033954 0.0124878 9.90361
-1.85554e-20 -0.008954 0.0350537 3.98719
0 0.027296 0.02375 6.79452
-4.15987e-20 0.023546 0.0275 5.8275
-1.15174e-28 0.023546 0.0275249 5.82214
-1.0842e-19 -0.035204 0.00865601 14.6681
-3.55134e-20 0.016046 0.0325122 4.68695
0 -0.000204 0.036344 3.78369
-1.91544e-20 0.028546 0.0225 7.15045
-1.44582e-19 0.036046 0.00479858 34.9306
1.0842e-19 0.022296 0.0287506 5.5302
1.0842e-19 -0.025204 0.02625 5.49844
6.45119e-20 -0.026454 0.025 5.75261
0 0.002296 0.036344 3.79798
0 -0.016454 0.0325122 4.42056
0 -0.002704 0.036344 3.76965
0 -0.036454 7.94979e-09 147.494
3.28979e-21 -0.023954 0.0275 5.27278
0 -0.027704 0.02375 6.00524
1.0842e-19 -0.032704 0.0162494 7.92869
0 -0.036454 0.00233887 100.168
2.1684e-19 0.034796 0.011217 11.4872
-1.0842e-19 0.029796 0.02125 7.50998
0 -0.022704 0.0287506 5.04533
0 0.021046 0.0300012 5.25728
1.0842e-19 0.004796 0.036344 3.81256
-3.54881e-20 -0.028954 0.0225 6.27742
0 -0.005204 0.036344 3.75588
0 -0.036454 0.00453149 45.117
3.64346e-20 0.033546 0.0149988 9.61719
-1.07127e-20 0.011046 0.0350537 4.11841
0 -0.036454 0.00479858 38.411
6.69244e-20 0.036046 0.00736572 17.7918
1.38319e-19 -0.011454 0.0350537 3.97218
-2.1684e-19 0.014796 0.0337829 4.4157
0 -0.021454 0.0300012 4.83524
-1.0842e-19 -0.030204 0.02125 6.54852
1.58401e-19 0.031046 0.02 7.90027
1.0842e-19 -0.035204 0.011217 10.8136
2.1684e-19 0.019796 0.0312567 4.98658
0 0.0177167 0.0325122 4.70302
1.0842e-19 -0.015204 0.0337829 4.19581
0 0.007296 0.036344 3.82745
0 -0.033954 0.0149988 8.45438
0 -0.007704 0.036344 3.74237
0 -0.036454 0.00736572 19.6146
1.0842e-19 -0.020204 0.0312567 4.62315
8.08456e-20 -0.031454 0.02 6.85278
0 0.037296 0.00116944 141.12
-8.07794e-28 -0.0128305 0.0350537 3.96406
-1.0842e-19 0.032296 0.01875 8.29472
6.46235e-27 -0.0370623 0.00479858 38.4333
1.0479e-19 0.036046 0.00994629 12.7856
0 0.034796 0.0137433 10.1334
0 0.018546 0.0325122 4.711
-1.0842e-19 0.037296 0.00356872 48.2192
-2.27374e-20 0.013546 0.0350537 4.13648
-8.02172e-21 -0.018954 0.0325122 4.40284
1.0842e-19 0.009796 0.036344 3.84266
-4.93098e-20 0.001046 0.0376343 3.5063
-6.79855e-21 -0.001454 0.0376343 3.49318
-1.0842e-19 -0.032704 0.01875 7.15668
-1.0842e-19 -0.037704 0.00116943 147.552
1.61559e-27 -0.013954 0.0350537 3.95744
0 -0.010204 0.036344 3.72908
-6.77899e-20 -0.036454 0.00994629 12.741
-1.0842e-19 0.037296 0.00608215 21.3868
0 -0.035204 0.0137433 8.98405
-1.34591e-19 0.003546 0.0376343 3.51964
-1.91609e-20 0.033546 0.0175 8.73395
-6.91015e-20 -0.003954 0.0376343 3.48027
5.04871e-28 -0.0365157 0.00994629 12.7413
0 -0.013954 0.0352028 3.92699
-1.0842e-19 0.027296 0.02625 6.16889
-1.0842e-19 -0.037704 0.00356872 52.1393
-3.23117e-27 -0.0371535 0.00736572 19.6289
7.47349e-20 0.026046 0.0275 5.86507
-4.89094e-29 0.026046 0.0275344 5.85757
1.58401e-19 0.028546 0.025 6.50478
-1.0842e-19 0.017296 0.033783 4.4369
0 0.024796 0.0287506 5.56422
0 -0.014645 0.0350537 3.95344
0 -0.036454 0.0110216 11.5351
0 0.029796 0.02375 6.84401
2.30527e-20 0.006046 0.0376343 3.53322
0 0.023546 0.0300012 5.28813
-1.0842e-19 -0.017704 0.0337829 4.17975
1.64826e-20 0.036046 0.0124878 10.8338
-3.54881e-20 -0.026454 0.0275 5.24911
0 -0.027704 0.02625 5.47325
-1.57772e-30 -0.033954 0.0174555 7.545