# omega  POINT_DATA 24995
# x  y  z  omega
-7.89225e-09 0 0 144.746
0.00104601 -5.42101e-20 0 145.153
-0.00104602 1.0842e-19 0 144.343
0.00145399 -1.0842e-19 0 145.312
-0.001454 1.0842e-19 0 144.186
0.00125 -2.25875e-20 0.00116943 141.872
-0.00125 0 0.00116944 140.928
-2.4659e-10 1.0842e-19 0.00233887 97.8303
-0.00250001 0 0 143.787
0.00250001 1.0842e-19 0 145.722
-0.0025 1.0842e-19 0.00233887 97.1951
0.00250001 0 0.00233887 98.4768
-0.00354601 -2.71051e-20 0 143.392
0.00354603 -5.42101e-20 0 146.135
-0.00125 1.807e-20 0.00356873 52.4499
0.00125 4.51751e-21 0.00356872 52.7774
-0.00375 1.807e-20 0.00116944 140.001
0.00375001 -9.03502e-21 0.00116943 142.832
-0.00395399 -2.71051e-20 0 143.238
0.003954 -5.42101e-20 0 146.297
3.27698e-10 1.0842e-19 0.00479858 36.7985
-0.00499999 0 0 142.846
0.00500002 1.0842e-19 0 146.714
-0.00375 9.03502e-21 0.00356873 52.1286
0.00375 9.03502e-21 0.00356873 53.1103
-0.0025 1.0842e-19 0.00479858 36.5728
0.0025 1.0842e-19 0.00479858 37.0301
-0.005 1.0842e-19 0.00233887 96.5718
0.00500001 0 0.00233887 99.135
-0.006046 0 0 142.458
0.00604603 0 0 147.135
-0.00125 9.03502e-21 0.00608215 23.8181
0.00125 0 0.00608215 23.9684
-0.00625 9.03502e-21 0.00116944 139.091
0.00625001 1.807e-20 0.00116944 143.809
-0.00645398 0 0 142.307
0.006454 0 0 147.3
0.005 1.0842e-19 0.00479858 37.2683
-0.005 1.0842e-19 0.00479858 36.3536
0.00375 -9.03502e-21 0.00608215 24.1239
-0.00375 -9.03502e-21 0.00608215 23.6752
-0.00625 2.71051e-20 0.00356872 51.8141
0.00625 9.03502e-21 0.00356873 53.4512
9.90286e-11 1.0842e-19 0.00736572 18.8162
-0.00749999 0 0 141.922
0.00750001 1.0842e-19 0 147.725
0.0025 1.0842e-19 0.00736572 18.9222
-0.0025 1.0842e-19 0.00736572 18.7146
-0.0075 1.0842e-19 0.00233887 95.9593
0.0075 0 0.00233887 99.8059
-0.00854601 0 0 141.541
0.00854602 0 0 148.154
0.00625 9.03502e-21 0.00608215 24.2871
-0.00625 -9.03502e-21 0.00608215 23.5386
-0.00125 0 0.008656 14.5477
0.00125 3.61401e-20 0.00865601 14.6111
-0.00875 0 0.00116943 138.197
0.00875 0 0.00116944 144.806
0.005 1.0842e-19 0.00736572 19.0325
-0.005 1.0842e-19 0.00736572 18.6176
0.0075 1.0842e-19 0.00479858 37.5135
-0.0075 1.0842e-19 0.00479858 36.1401
0.00895398 0 0 148.322
-0.00895399 2.71051e-20 0 141.392
0.00375 0 0.008656 14.6767
-0.00375 -1.807e-20 0.008656 14.4868
0.00875 1.807e-20 0.00356872 53.7994
-0.00875 1.807e-20 0.00356872 51.5037
4.41108e-12 1.0842e-19 0.00994629 12.6944
0.00999999 1.0842e-19 0 148.753
-0.01 1.0842e-19 0 141.013
0.0025 1.0842e-19 0.00994629 12.7492
-0.0025 1.0842e-19 0.00994629 12.6417
-0.01 0 0.00233887 95.3565
0.01 0 0.00233887 100.489
0.0075 1.0842e-19 0.00736572 19.1474
-0.0075 1.0842e-19 0.00736572 18.5248
0.00875 2.71051e-20 0.00608215 24.4564
-0.00875 9.03502e-21 0.00608215 23.4078
-0.00625 -9.03502e-21 0.008656 14.4281
0.00625 -9.03502e-21 0.008656 14.7445
0.011046 -2.71051e-20 0 149.189
-0.011046 5.42101e-20 0 140.637
0.01 1.0842e-19 0.00479858 37.7655
-0.01 1.0842e-19 0.00479858 35.9318
0.005 1.0842e-19 0.00994629 12.8059
-0.005 1.0842e-19 0.00994629 12.591
-0.00125 -9.03502e-21 0.011217 11.0508
0.00125 0 0.011217 11.098
0.01125 -9.03502e-21 0.00116943 145.817
-0.01125 -9.03502e-21 0.00116944 137.316
0.011454 -2.71051e-20 0 149.359
-0.011454 5.42101e-20 0 140.491
0.01125 -9.03502e-21 0.00356872 54.1551
-0.01125 0 0.00356872 51.1987
0.00375 9.03502e-21 0.011217 11.1471
-0.00375 2.71051e-20 0.011217 11.0055
-0.00875 9.03502e-21 0.008656 14.3717
0.00875 0 0.00865601 14.8145
0.01 1.0842e-19 0.00736572 19.2666
-0.01 1.0842e-19 0.00736572 18.4361
0.0075 1.0842e-19 0.00994629 12.8647
-0.0075 1.0842e-19 0.00994629 12.5422
-3.39195e-12 1.0842e-19 0.0124878 10.1968
0.0125 1.0842e-19 0 149.795
-0.0125 1.0842e-19 0 140.118
0.0125 0 0.00233887 101.184
-0.0125 0 0.00233887 94.7634
0.0025 1.0842e-19 0.0124878 10.2442
-0.0025 1.0842e-19 0.0124878 10.1514
0.01125 1.807e-20 0.00608215 24.6321
-0.01125 9.03502e-21 0.00608215 23.2831
0.00625 9.03502e-21 0.011217 11.1982
-0.00625 2.71051e-20 0.011217 10.962
0.0125 1.0842e-19 0.00479858 38.0256
-0.0125 1.0842e-19 0.00479858 35.7287
0.005 1.0842e-19 0.0124878 10.2936
-0.005 1.0842e-19 0.0124878 10.1079
-0.013546 -5.42101e-20 0 139.749
0.013546 -5.42101e-20 0 150.238
-0.01375 -9.03502e-21 0.00116944 136.451
0.01375 9.03502e-21 0.00116944 146.843
0.00125 -9.03502e-21 0.0137433 9.4282
-0.00125 -9.03502e-21 0.0137433 9.38226
-0.013954 -5.42101e-20 0 139.606
0.013954 -5.42101e-20 0 150.411
0.01 1.0842e-19 0.00994629 12.9254
-0.01 1.0842e-19 0.00994629 12.4953
0.01125 9.03502e-21 0.008656 14.8868
-0.01125 -9.03502e-21 0.008656 14.3176
-0.01375 -9.03502e-21 0.00356873 50.8985
0.01375 9.03502e-21 0.00356872 54.5201
0.00875 -9.03502e-21 0.011217 11.2513
-0.00875 -9.03502e-21 0.011217 10.9202
0.00375 -9.03502e-21 0.0137433 9.4763
-0.00375 -9.03502e-21 0.0137433 9.33838
0.0125 1.0842e-19 0.00736572 19.3904
-0.0125 1.0842e-19 0.00736572 18.3513
0.0075 1.0842e-19 0.0124878 10.3452
-0.0075 1.0842e-19 0.0124878 10.0663
-5.62215e-13 1.0842e-19 0.0149988 8.87934
0.015 1.0842e-19 0 150.854
-0.015 1.0842e-19 0 139.238
0.01375 1.807e-20 0.00608215 24.8158
-0.01375 -9.03502e-21 0.00608215 23.1638
0.00625 1.807e-20 0.0137433 9.52662
-0.00625 9.03502e-21 0.0137433 9.29644
0.015 0 0.00233887 101.892
-0.015 0 0.00233887 94.1799
0.0025 1.0842e-19 0.0149988 8.92592
-0.0025 1.0842e-19 0.0149988 8.83486
0.015 1.0842e-19 0.00479858 38.2956
-0.015 1.0842e-19 0.00479858 35.5304
0.005 1.0842e-19 0.0149988 8.97471
-0.005 1.0842e-19 0.0149988 8.79237
0.01125 9.03502e-21 0.011217 11.3062
-0.01125 0 0.011217 10.88
0.0125 1.0842e-19 0.00994629 12.9881
-0.0125 1.0842e-19 0.00994629 12.4502
0.01 1.0842e-19 0.0124878 10.399
-0.01 1.0842e-19 0.0124878 10.0264
0.016046 2.71051e-20 0 151.306
-0.016046 2.71051e-20 0 138.875
-0.01375 -2.71051e-20 0.008656 14.2655
0.01375 -9.03502e-21 0.008656 14.9611
-0.01625 -9.03502e-21 0.00116944 135.599
0.01625 0 0.00116943 147.886
0.00875 -2.71051e-20 0.0137433 9.57936
-0.00875 9.03502e-21 0.0137433 9.25639
0.00125 0 0.0162494 8.40659
-0.00125 1.807e-20 0.0162494 8.36165
-0.016454 2.71051e-20 0 138.734
0.016454 -8.13152e-20 0 151.479
0.01625 9.03502e-21 0.00356872 54.899
-0.01625 0 0.00356873 50.6022
-0.00375 1.807e-20 0.0162494 8.31869
0.00375 -9.03502e-21 0.0162494 8.45371
0.015 1.0842e-19 0.00736572 19.5196
-0.015 1.0842e-19 0.00736572 18.2702
0.0075 1.0842e-19 0.0149988 9.02583
-0.0075 1.0842e-19 0.0149988 8.75179
0.01625 -9.03502e-21 0.00608215 25.0083
-0.01625 -9.03502e-21 0.00608215 23.0494
0.00625 9.03502e-21 0.0162494 8.50306
-0.00625 -9.03502e-21 0.0162494 8.27767
-0.0175 -2.1684e-19 0 138.372
0.0175 -1.0842e-19 0 151.921
-1.02399e-14 1.0842e-19 0.0175 7.99461
-0.0175 0 0.00233887 93.6049
0.0175 1.0842e-19 0.00233887 102.61
0.0125 1.0842e-19 0.0124878 10.455
-0.0125 1.0842e-19 0.0124878 9.98816
0.0025 1.0842e-19 0.0175 8.0395
-0.0025 1.0842e-19 0.0175 7.95169
0.01375 -9.03502e-21 0.011217 11.3633
-0.01375 -9.03502e-21 0.011217 10.8415
0.01125 -1.807e-20 0.0137433 9.6345
-0.01125 -9.03502e-21 0.0137433 9.21807
0.015 1.0842e-19 0.00994629 13.0531
-0.015 1.0842e-19 0.00994629 12.4069
0.01 1.0842e-19 0.0149988 9.07941
-0.01 1.0842e-19 0.0149988 8.71298
0.0175 1.0842e-19 0.00479858 38.5743
-0.0175 1.0842e-19 0.00479858 35.3365
0.005 1.0842e-19 0.0175 8.0865
-0.005 1.0842e-19 0.0175 7.91063
0.01625 -9.03502e-21 0.008656 15.0385
-0.01625 9.03502e-21 0.008656 14.2153
0.00875 -2.71051e-20 0.0162494 8.55482
-0.00875 -1.807e-20 0.0162494 8.23847
0.018546 -5.42101e-20 0 152.375
-0.018546 -1.35525e-19 0 138.014
0.01875 0 0.00116943 148.931
-0.01875 0 0.00116944 134.76
0.00125 2.71051e-20 0.01875 7.6384
-0.00125 9.03502e-21 0.01875 7.59573
-0.018954 -1.35525e-19 0 137.875
0.018954 -5.42101e-20 0 152.55
0.0175 1.0842e-19 0.00736572 19.6536
-0.0175 1.0842e-19 0.00736572 18.1926
0.0075 1.0842e-19 0.0175 8.13571
-0.0075 1.0842e-19 0.0175 7.87135
0.01875 1.807e-20 0.00356872 55.2846
-0.01875 0 0.00356873 50.3107
0.00375 -1.807e-20 0.01875 7.68301
-0.00375 9.03502e-21 0.01875 7.55483
0.01375 -9.03502e-21 0.0137433 9.69226
-0.01375 -9.03502e-21 0.0137433 9.18147
0.015 1.0842e-19 0.0124878 10.5134
-0.015 1.0842e-19 0.0124878 9.95154
0.0125 1.0842e-19 0.0149988 9.13558
-0.0125 1.0842e-19 0.0149988 8.67588
-0.01875 1.807e-20 0.00608215 22.94
0.01875 -1.807e-20 0.00608215 25.2055
-0.01625 -2.71051e-20 0.011217 10.8045
0.01625 -1.807e-20 0.011217 11.4224
0.01125 -1.807e-20 0.0162494 8.60913
-0.01125 -1.807e-20 0.0162494 8.20096
-0.00625 9.03502e-21 0.01875 7.51567
0.00625 -1.807e-20 0.01875 7.72964
-0.02 -2.1684e-19 0 137.518
0.02 -1.0842e-19 0 152.996
-1.024e-14 1.0842e-19 0.02 7.28453
0.0175 1.0842e-19 0.00994629 13.1204
-0.0175 1.0842e-19 0.00994629 12.3652
0.02 1.0842e-19 0.00233887 103.338
-0.02 0 0.00233887 93.0384
0.01 1.0842e-19 0.0175 8.18729
0.0025 1.0842e-19 0.02 7.32664
-0.0025 1.0842e-19 0.02 7.24415
-0.01 1.0842e-19 0.0175 7.83373
0.02 1.0842e-19 0.00479858 38.8629
-0.02 1.0842e-19 0.00479858 35.1467
0.005 1.0842e-19 0.02 7.37057
-0.005 1.0842e-19 0.02 7.2054
0.01875 9.03502e-21 0.008656 15.1184
-0.01875 2.71051e-20 0.008656 14.1673
-0.00875 1.807e-20 0.01875 7.47812
0.00875 -1.807e-20 0.01875 7.77845
0.021046 -5.42101e-20 0 153.454
-0.021046 -1.35525e-19 0 137.166
0.015 1.0842e-19 0.0149988 9.19453
-0.015 1.0842e-19 0.0149988 8.64041
0.02125 0 0.00116943 149.986
-0.02125 0 0.00116944 133.933
0.01625 0 0.0137433 9.75282
-0.01625 2.71051e-20 0.0137433 9.14642
0.01375 -9.03502e-21 0.0162494 8.66612
-0.01375 -9.03502e-21 0.0162494 8.16511
0.00125 1.807e-20 0.02125 6.97709
-0.00125 -9.03502e-21 0.02125 6.93741
0.02 1.0842e-19 0.00736572 19.7934
-0.02 1.0842e-19 0.00736572 18.1181
0.0075 1.0842e-19 0.02 7.41645
-0.0075 1.0842e-19 0.02 7.16819
-0.021454 -1.35525e-19 0 137.029
0.021454 -5.42101e-20 0 153.63
0.0175 1.0842e-19 0.0124878 10.5742
-0.0175 1.0842e-19 0.0124878 9.91644
0.0125 1.0842e-19 0.0175 8.24138
-0.0125 1.0842e-19 0.0175 7.7977
0.02125 2.71051e-20 0.00356873 55.687
-0.02125 0 0.00356873 50.0228
-0.00375 1.807e-20 0.02125 6.89926
0.00375 -9.03502e-21 0.02125 7.01841
0.01875 -9.03502e-21 0.011217 11.4837
-0.01875 0 0.011217 10.7689
-0.01125 1.807e-20 0.01875 7.44207
0.01125 9.03502e-21 0.01875 7.82955
0.02125 0 0.00608215 25.4147
-0.02125 1.807e-20 0.00608215 22.8345
0.00625 -1.807e-20 0.02125 7.06144
-0.00625 -9.03502e-21 0.02125 6.86257
0.02 1.0842e-19 0.00994629 13.1902
-0.02 1.0842e-19 0.00994629 12.3252
0.01 1.0842e-19 0.02 7.46441
-0.01 1.0842e-19 0.02 7.13242
0.0225 -1.0842e-19 0 154.08
-0.0225 -2.1684e-19 0 136.678
-1.02402e-14 1.0842e-19 0.0225 6.65333
0.0225 1.0842e-19 0.00233887 104.074
-0.0225 0 0.00233887 92.4802
0.0025 1.0842e-19 0.0225 6.69215
-0.0025 1.0842e-19 0.0225 6.61596
0.02125 9.03502e-21 0.008656 15.2011
-0.02125 0 0.008656 14.1208
0.01625 0 0.0162494 8.72608
-0.01625 -9.03502e-21 0.0162494 8.13078
-0.00875 9.03502e-21 0.02125 6.82726
0.00875 2.71051e-20 0.02125 7.10634
0.0225 1.0842e-19 0.00479858 39.1611
-0.0225 1.0842e-19 0.00479858 34.9608
0.0175 1.0842e-19 0.0149988 9.25635
-0.0175 1.0842e-19 0.0149988 8.60647
0.005 1.0842e-19 0.0225 6.73252
-0.005 1.0842e-19 0.0225 6.57997
0.015 1.0842e-19 0.0175 8.29817
-0.015 1.0842e-19 0.0175 7.76318
-0.01875 -1.807e-20 0.0137433 9.11292
0.01875 -1.807e-20 0.0137433 9.81606
-0.01375 9.03502e-21 0.01875 7.4075
0.01375 -1.807e-20 0.01875 7.8831
0.023546 -2.71051e-20 0 154.544
-0.023546 -1.35525e-19 0 136.331
0.02 1.0842e-19 0.0124878 10.6379
-0.02 1.0842e-19 0.0124878 9.88282
0.0125 1.0842e-19 0.02 7.51456
-0.0125 1.0842e-19 0.02 7.09804
0.0225 1.0842e-19 0.00736572 19.9398
-0.0225 1.0842e-19 0.00736572 18.0465
0.0075 1.0842e-19 0.0225 6.77453
-0.0075 1.0842e-19 0.0225 6.54529
0.02375 0 0.00116943 151.051
-0.02375 0 0.00116944 133.119
0.00125 2.71051e-20 0.02375 6.37045
-0.00125 -1.807e-20 0.02375 6.33405
-0.023954 -1.35525e-19 0 136.196
0.023954 -2.71051e-20 0 154.719
0.02375 -2.71051e-20 0.00356873 56.0889
-0.02375 -9.03502e-21 0.00356873 49.739
-0.02125 -9.03502e-21 0.011217 10.7348
0.02125 -9.03502e-21 0.011217 11.5479
0.01125 -1.807e-20 0.02125 7.15318
-0.01125 9.03502e-21 0.02125 6.79321
0.00375 -9.03502e-21 0.02375 6.40824
-0.00375 -9.03502e-21 0.02375 6.29892
-0.02375 -1.807e-20 0.00608215 22.7331
0.02375 0 0.00608215 25.632
0.00625 2.71051e-20 0.02375 6.44747
-0.00625 -1.807e-20 0.02375 6.26503
0.0225 1.0842e-19 0.00994629 13.2629
-0.0225 1.0842e-19 0.00994629 12.2866
0.01 1.0842e-19 0.0225 6.81829
-0.01 1.0842e-19 0.0225 6.51184
0.0175 1.0842e-19 0.0175 8.35781
-0.0175 1.0842e-19 0.0175 7.73007
0.01875 9.03502e-21 0.0162494 8.78901
-0.01875 1.807e-20 0.0162494 8.09794
0.01625 9.03502e-21 0.01875 7.93931
-0.01625 9.03502e-21 0.01875 7.37428
0.02 1.0842e-19 0.0149988 9.3213
-0.02 1.0842e-19 0.0149988 8.57401
0.015 1.0842e-19 0.02 7.56708
-0.015 1.0842e-19 0.02 7.06497
-0.025 -2.1684e-19 0 135.851
0.025 -1.0842e-19 0 155.165
-1.02403e-14 1.0842e-19 0.025 6.06587
-0.025 0 0.00233887 91.9303
0.025 1.0842e-19 0.00233887 104.822
0.0025 1.0842e-19 0.025 6.10111
-0.0025 1.0842e-19 0.025 6.03187
-0.02375 0 0.008656 14.0761
0.02375 -1.807e-20 0.00865601 15.2892
-0.02125 -1.807e-20 0.0137433 9.08086
0.02125 -1.807e-20 0.0137433 9.8826
0.01375 1.807e-20 0.02125 7.20212
0.00875 1.807e-20 0.02375 6.48827
-0.01375 2.71051e-20 0.02125 6.76045
-0.00875 1.807e-20 0.02375 6.23229
0.025 1.0842e-19 0.00479858 39.4744
-0.025 1.0842e-19 0.00479858 34.7785
0.005 1.0842e-19 0.025 6.13767
-0.005 1.0842e-19 0.025 5.99904
0.0225 1.0842e-19 0.0124878 10.7041
-0.0225 1.0842e-19 0.0124878 9.85059
0.0125 1.0842e-19 0.0225 6.86391
-0.0125 1.0842e-19 0.0225 6.47955
0.026046 -5.42101e-20 0 155.626
-0.026046 -1.35525e-19 0 135.509
0.025 1.0842e-19 0.00736572 20.092
-0.025 1.0842e-19 0.00736572 17.9775
0.0075 1.0842e-19 0.025 6.17561
-0.0075 1.0842e-19 0.025 5.96733
0.02375 -2.71051e-20 0.011217 11.6142
-0.02375 -9.03502e-21 0.011217 10.702
0.02625 0 0.00116943 152.111
-0.02625 1.807e-20 0.00116944 132.318
0.00125 9.03502e-21 0.02625 5.79887
0.01125 -2.71051e-20 0.02375 6.5307
-0.01125 1.807e-20 0.02375 6.20065
-0.00125 -9.03502e-21 0.02625 5.76613
-0.026454 -1.35525e-19 0 135.376
0.026454 -5.42101e-20 0 155.802
0.02625 -1.807e-20 0.00356873 56.5119
-0.02625 0 0.00356873 49.459
0.00375 -1.807e-20 0.02625 5.83281
-0.00375 9.03502e-21 0.02625 5.7345
0.01875 2.71051e-20 0.01875 7.99829
-0.01875 -1.807e-20 0.01875 7.34236
0.02 1.0842e-19 0.0175 8.42053
0.0175 1.0842e-19 0.02 7.62212
-0.0175 1.0842e-19 0.02 7.03313
-0.02 1.0842e-19 0.0175 7.69832
0.02125 9.03502e-21 0.0162494 8.85534
-0.02125 -9.03502e-21 0.0162494 8.06646
-0.01625 -1.807e-20 0.02125 6.72881
0.01625 2.71051e-20 0.02125 7.25331
0.025 1.0842e-19 0.00994629 13.3376
-0.025 1.0842e-19 0.00994629 12.2496
0.01 1.0842e-19 0.025 6.21503
-0.01 1.0842e-19 0.025 5.93666
0.02625 -1.807e-20 0.00608215 25.8602
-0.02625 1.807e-20 0.00608215 22.6349
0.00625 2.71051e-20 0.02625 5.86796
-0.00625 -9.03502e-21 0.02625 5.70393
0.0225 1.0842e-19 0.0149988 9.38952
-0.0225 1.0842e-19 0.0149988 8.54293
0.015 1.0842e-19 0.0225 6.91153
-0.015 1.0842e-19 0.0225 6.44838
0.02375 -1.807e-20 0.0137433 9.95212
-0.02375 0 0.0137433 9.05018
0.01375 -1.807e-20 0.02375 6.57489
-0.01375 -9.03502e-21 0.02375 6.17007
-0.0275 -2.1684e-19 0 135.035
0.0275 -1.0842e-19 0 156.251
-1.02403e-14 1.0842e-19 0.0275 5.52355
-0.0275 0 0.00233887 91.3884
0.0275 1.0842e-19 0.00233887 105.594
0.0025 1.0842e-19 0.0275 5.55479
-0.0025 1.0842e-19 0.0275 5.49337
0.02625 9.03502e-21 0.008656 15.3782
-0.02625 9.03502e-21 0.008656 14.033
0.00875 9.03502e-21 0.02625 5.90444
-0.00875 9.03502e-21 0.02625 5.67437
0.0275 1.0842e-19 0.00479858 39.8185
-0.0275 1.0842e-19 0.00479858 34.5997
0.025 1.0842e-19 0.0124878 10.7726
-0.025 1.0842e-19 0.0124878 9.81972
0.0125 1.0842e-19 0.025 6.25602
0.005 1.0842e-19 0.0275 5.58716
-0.005 1.0842e-19 0.0275 5.4642
-0.0125 1.0842e-19 0.025 5.907
0.02 1.0842e-19 0.02 7.67987
-0.02 1.0842e-19 0.02 7.00248
0.02125 1.807e-20 0.01875 8.06034
0.01875 -1.807e-20 0.02125 7.30686
-0.01875 1.807e-20 0.02125 6.69833
-0.02125 1.807e-20 0.01875 7.31169
0.0275 1.0842e-19 0.00736572 20.2498
-0.0275 1.0842e-19 0.00736572 17.911
0.0225 1.0842e-19 0.0175 8.48656
0.0175 1.0842e-19 0.0225 6.96127
-0.0175 1.0842e-19 0.0225 6.41826
-0.0225 1.0842e-19 0.0175 7.66785
0.0075 1.0842e-19 0.0275 5.62071
-0.0075 1.0842e-19 0.0275 5.43599
0.028546 -5.42101e-20 0 156.711
-0.028546 -1.35525e-19 0 134.699
0.02625 -9.03502e-21 0.011217 11.6809
-0.02625 -9.03502e-21 0.011217 10.6706
0.01125 -1.807e-20 0.02625 5.94232
-0.01125 9.03502e-21 0.02625 5.64575
-0.02875 9.03502e-21 0.00116943 131.528
0.02875 -9.03502e-21 0.00116943 153.176
-0.02375 9.03502e-21 0.0162494 8.03633
0.02375 9.03502e-21 0.0162494 8.92513
0.01625 1.807e-20 0.02375 6.62096
-0.01625 -2.71051e-20 0.02375 6.14046
-0.00125 9.03502e-21 0.0287506 5.25349
0.00125 0 0.0287506 5.28212
-0.028954 -1.35525e-19 0 134.568
0.028954 -5.42101e-20 0 156.888
0.02875 -1.807e-20 0.00356873 57.0138
-0.02875 1.807e-20 0.00356872 49.183
-0.00375 -1.807e-20 0.0287506 5.22581
0.00375 -1.807e-20 0.0287506 5.31176
0.025 1.0842e-19 0.0149988 9.46102
-0.025 1.0842e-19 0.0149988 8.51318
0.015 1.0842e-19 0.025 6.29868
-0.015 1.0842e-19 0.025 5.8783
0.0275 1.0842e-19 0.00994629 13.4136
-0.0275 1.0842e-19 0.00994629 12.2139
0.01 1.0842e-19 0.0275 5.65552
-0.01 1.0842e-19 0.0275 5.4087
0.02875 -9.03502e-21 0.00608215 26.1047
-0.02875 9.03502e-21 0.00608215 22.54
0.00625 9.03502e-21 0.0287506 5.34247
-0.00625 -1.807e-20 0.0287506 5.19905
0.02625 9.03502e-21 0.0137433 10.0246
-0.02625 -1.807e-20 0.0137433 9.02083
0.01375 -1.807e-20 0.02625 5.98168
-0.01375 1.807e-20 0.02625 5.61807
-0.03 -2.1684e-19 0 134.232
0.03 -1.0842e-19 0 157.343
-1.49751e-13 1.0842e-19 0.0300012 5.02908
0.02875 -9.03502e-21 0.008656 15.466
-0.02875 -1.807e-20 0.008656 13.9914
0.02125 1.807e-20 0.02125 7.36302
-0.02125 1.807e-20 0.02125 6.66889
0.00875 9.03502e-21 0.0287506 5.37429
-0.00875 -1.807e-20 0.0287506 5.17314
-0.03 0 0.00233887 90.8542
0.03 1.0842e-19 0.00233887 106.397
0.0225 1.0842e-19 0.02 7.74054
0.02 1.0842e-19 0.0225 7.0133
-0.02 1.0842e-19 0.0225 6.38916
-0.0225 1.0842e-19 0.02 6.97295
0.0025 1.0842e-19 0.0300012 5.05634
-0.0025 1.0842e-19 0.0300012 5.00273
0.0275 1.0842e-19 0.0124878 10.8444
-0.0275 1.0842e-19 0.0124878 9.79018
0.0125 1.0842e-19 0.0275 5.69165
-0.0125 1.0842e-19 0.0275 5.38228
0.02375 9.03502e-21 0.01875 8.12564
0.01875 1.807e-20 0.02375 6.66902
-0.02375 -1.807e-20 0.01875 7.28219
-0.01875 9.03502e-21 0.02375 6.11183
0.03 1.0842e-19 0.00479858 40.1935
-0.03 1.0842e-19 0.00479858 34.4242
0.005 1.0842e-19 0.0300012 5.08456
-0.005 1.0842e-19 0.0300012 4.97724
0.025 1.0842e-19 0.0175 8.55607
0.0175 1.0842e-19 0.025 6.34314
-0.0175 1.0842e-19 0.025 5.85052
-0.025 1.0842e-19 0.0175 7.63861
0.02875 2.71051e-20 0.011217 11.7527
-0.02875 -9.03502e-21 0.011217 10.6405
-0.02625 -9.03502e-21 0.0162494 8.00744
0.02625 1.807e-20 0.0162494 8.99857
0.01625 -1.807e-20 0.02625 6.02264
-0.01625 2.71051e-20 0.02625 5.59124
0.01125 9.03502e-21 0.0287506 5.40729
-0.01125 -1.807e-20 0.0287506 5.14807
0.03 1.0842e-19 0.00736572 20.4085
-0.03 1.0842e-19 0.00736572 17.8467
0.0075 1.0842e-19 0.0300012 5.11378
-0.0075 1.0842e-19 0.0300012 4.95257
0.031046 0 0 157.809
-0.031046 -1.35525e-19 0 133.9
0.03125 9.03502e-21 0.00116943 154.258
-0.03125 9.03502e-21 0.00116943 130.749
-0.00125 -9.03502e-21 0.0312567 4.77831
0.00125 -2.71051e-20 0.0312567 4.80327
0.0275 1.0842e-19 0.0149988 9.53606
-0.0275 1.0842e-19 0.0149988 8.48472
0.015 1.0842e-19 0.0275 5.72921
-0.015 1.0842e-19 0.0275 5.35671
-0.03125 1.807e-20 0.00356872 48.9107
0.03125 -2.71051e-20 0.00356872 57.5624
-0.031454 -1.35525e-19 0 133.771
0.031454 0 0 157.992
0.00375 9.03502e-21 0.0312567 4.82908
-0.00375 9.03502e-21 0.0312567 4.75416
0.03 1.0842e-19 0.00994629 13.4877
-0.03 1.0842e-19 0.00994629 12.1796
0.01 1.0842e-19 0.0300012 5.14406
-0.01 1.0842e-19 0.0300012 4.92869
0.0225 1.0842e-19 0.0225 7.06779
-0.0225 1.0842e-19 0.0225 6.36101
0.03125 -9.03502e-21 0.00608215 26.3533
-0.03125 -9.03502e-21 0.00608215 22.4476
-0.02875 9.03502e-21 0.0137433 8.99278
0.02875 9.03502e-21 0.0137433 10.1002
0.02125 9.03502e-21 0.02375 6.71925
0.02375 -9.03502e-21 0.02125 7.42194
-0.02125 9.03502e-21 0.02375 6.08408
-0.02375 0 0.02125 6.64046
0.01375 9.03502e-21 0.0287506 5.44156
-0.01375 -9.03502e-21 0.0287506 5.12381
0.00625 -9.03502e-21 0.0312567 4.85579
-0.00625 -9.03502e-21 0.0312567 4.73079
0.02 1.0842e-19 0.025 6.38951
0.025 1.0842e-19 0.02 7.80436
-0.02 1.0842e-19 0.025 5.82361
-0.025 1.0842e-19 0.02 6.94449
-0.01875 0 0.02625 5.56529
0.01875 0 0.02625 6.06528
0.02625 2.71051e-20 0.01875 8.19441
-0.02625 -2.71051e-20 0.01875 7.25381
-0.03125 9.03502e-21 0.008656 13.9513
0.03125 -9.03502e-21 0.00865601 15.5506
0.00875 -1.807e-20 0.0312567 4.88345
-0.00875 9.03502e-21 0.0312567 4.70815
0.03 1.0842e-19 0.0124878 10.918
-0.03 1.0842e-19 0.0124878 9.76192
-0.0325 -2.1684e-19 0 133.44
0.0325 0 0 158.454
0.0125 1.0842e-19 0.0300012 5.17547
-0.0125 1.0842e-19 0.0300012 4.90556
-7.80544e-12 1.0842e-19 0.0325122 4.54641
-0.0325 0 0.00233887 90.3275
0.0325 1.0842e-19 0.00233887 107.236
0.0275 1.0842e-19 0.0175 8.62937
0.0175 1.0842e-19 0.0275 5.76827
-0.0175 1.0842e-19 0.0275 5.33194
-0.0275 1.0842e-19 0.0175 7.61053
0.0025 1.0842e-19 0.0325122 4.56996
-0.0025 1.0842e-19 0.0325122 4.52361
0.0325 1.0842e-19 0.00479858 40.5934
-0.0325 1.0842e-19 0.00479858 34.2517
0.005 1.0842e-19 0.0325122 4.59433
-0.005 1.0842e-19 0.0325122 4.50155
0.02875 0 0.0162494 9.07604
-0.02875 -2.71051e-20 0.0162494 7.97978
-0.01625 -9.03502e-21 0.0287506 5.1003
0.01625 -9.03502e-21 0.0287506 5.47716
-0.03125 -2.71051e-20 0.011217 10.6118
0.03125 9.03502e-21 0.011217 11.8275
0.01125 -1.807e-20 0.0312567 4.9121
-0.01125 -2.71051e-20 0.0312567 4.68621
0.0325 1.0842e-19 0.00736572 20.557
-0.0325 1.0842e-19 0.00736572 17.7844
0.0075 1.0842e-19 0.0325122 4.61954
-0.0075 1.0842e-19 0.0325122 4.48019
0.03 1.0842e-19 0.0149988 9.61453
-0.03 1.0842e-19 0.0149988 8.45748
0.015 1.0842e-19 0.0300012 5.20807
-0.015 1.0842e-19 0.0300012 4.88316
0.033546 -2.71051e-20 0 158.891
-0.033546 -1.35525e-19 0 133.113
0.02375 1.807e-20 0.02375 6.77181
-0.02375 2.71051e-20 0.02375 6.05721
0.0225 1.0842e-19 0.025 6.43795
0.025 1.0842e-19 0.0225 7.12494
-0.0225 1.0842e-19 0.025 5.79754
-0.025 1.0842e-19 0.0225 6.33379
0.03375 -9.03502e-21 0.00116943 155.328
-0.03375 2.71051e-20 0.00116944 129.982
0.02125 -1.807e-20 0.02625 6.10974
0.02625 -1.807e-20 0.02125 7.48388
-0.02125 1.807e-20 0.02625 5.54012
-0.02625 1.807e-20 0.02125 6.61302
-0.00125 -3.61401e-20 0.0337829 4.28891
0.00125 -2.71051e-20 0.033783 4.31026
0.03375 -1.807e-20 0.00356872 58.1353
-0.03375 -9.03502e-21 0.00356873 48.6421
-0.033954 -1.35525e-19 0 132.985
0.033954 1.0842e-19 0 159.089
0.0325 1.0842e-19 0.00994629 13.5487
-0.0325 1.0842e-19 0.00994629 12.1467
-0.00375 1.807e-20 0.0337829 4.26824
0.00375 -1.807e-20 0.033783 4.33233
0.02 1.0842e-19 0.0275 5.80895
0.0275 1.0842e-19 0.02 7.8716
-0.02 1.0842e-19 0.0275 5.30795
-0.0275 1.0842e-19 0.02 6.91706
0.01 1.0842e-19 0.0325122 4.64565
-0.01 1.0842e-19 0.0325122 4.45949
0.03125 -1.807e-20 0.0137433 10.1788
-0.03125 9.03502e-21 0.0137433 8.96598
0.01375 9.03502e-21 0.0312567 4.94182
-0.01375 9.03502e-21 0.0312567 4.66496
0.03375 -9.03502e-21 0.00608215 26.5982
-0.03375 1.807e-20 0.00608215 22.358
0.02875 -1.807e-20 0.01875 8.26705
-0.02875 2.71051e-20 0.01875 7.2265
-0.01875 -1.807e-20 0.0287506 5.07754
0.01875 -1.807e-20 0.0287506 5.51418
0.00625 -1.807e-20 0.0337829 4.35515
-0.00625 2.71051e-20 0.0337829 4.24822
0.03 1.0842e-19 0.0175 8.70661
-0.03 1.0842e-19 0.0175 7.58358
0.0175 1.0842e-19 0.0300012 5.24194
-0.0175 1.0842e-19 0.0300012 4.86145
0.0325 1.0842e-19 0.0124878 10.9877
-0.0325 1.0842e-19 0.0124878 9.73491
0.0125 1.0842e-19 0.0325122 4.6727
-0.0125 1.0842e-19 0.0325122 4.43943
-0.03375 -9.03502e-21 0.008656 13.9128
0.03375 -9.03502e-21 0.00865601 15.6105
-0.00875 -1.807e-20 0.0337829 4.22882
0.00875 -1.807e-20 0.0337829 4.37876
-0.035 -2.1684e-19 0 132.659
0.035 0 0 159.63
-7.51186e-11 1.0842e-19 0.0350537 4.04334
-0.035 0 0.00233887 89.8083
0.035 1.0842e-19 0.00233887 108.152
0.0025 1.0842e-19 0.0350537 4.06314
-0.0025 1.0842e-19 0.0350537 4.02415
0.03125 -1.807e-20 0.0162494 9.15729
-0.03125 -1.807e-20 0.0162494 7.95327
0.01625 0 0.0312567 4.97265
-0.01625 9.03502e-21 0.0312567 4.64436
0.035 1.0842e-19 0.00479858 41.034
-0.035 1.0842e-19 0.00479858 34.0824
0.025 1.0842e-19 0.025 6.48861
-0.025 1.0842e-19 0.025 5.77229
0.02375 9.03502e-21 0.02625 6.15616
0.02625 2.71051e-20 0.02375 6.82685
-0.02375 9.03502e-21 0.02625 5.51575
-0.02625 -2.71051e-20 0.02375 6.03118
0.005 1.0842e-19 0.0350537 4.08359
-0.005 1.0842e-19 0.0350537 4.00554
0.0225 1.0842e-19 0.0275 5.85136
0.0275 1.0842e-19 0.0225 7.18499
-0.0225 1.0842e-19 0.0275 5.28471
-0.0275 1.0842e-19 0.0225 6.30745
0.03375 9.03502e-21 0.011217 11.8789
-0.03375 -9.03502e-21 0.011217 10.5842
-0.01125 -1.807e-20 0.0337829 4.21002
0.01125 1.807e-20 0.0337829 4.40322
0.02875 1.807e-20 0.02125 7.54912
-0.02875 1.807e-20 0.02125 6.58651
0.02125 -1.807e-20 0.0287506 5.55273
-0.02125 1.807e-20 0.0287506 5.05548
0.035 1.0842e-19 0.00736572 20.6864
-0.035 1.0842e-19 0.00736572 17.7241
0.0325 1.0842e-19 0.0149988 9.69589
-0.0325 1.0842e-19 0.0149988 8.43143
0.015 1.0842e-19 0.0325122 4.70075
-0.015 1.0842e-19 0.0325122 4.41999
0.0075 1.0842e-19 0.0350537 4.1047
-0.0075 1.0842e-19 0.0350537 3.98748
0.036046 8.13152e-20 0 160.111
-0.036046 8.13152e-20 0 132.336
0.03 1.0842e-19 0.02 7.94251
-0.03 1.0842e-19 0.02 6.89061
0.02 1.0842e-19 0.0300012 5.27717
-0.02 1.0842e-19 0.0300012 4.84041
0.03625 -1.807e-20 0.00116944 156.54
-0.03625 -9.03502e-21 0.00116944 129.225
-0.00125 0 0.036344 3.77422
0.00125 9.03502e-21 0.036344 3.79192
0.035 1.0842e-19 0.00994629 13.5875
-0.035 1.0842e-19 0.00994629 12.1151
0.03625 9.03502e-21 0.00356872 58.8354
-0.03625 0 0.00356873 48.3777
0.03375 -1.807e-20 0.0137433 10.2578
-0.03375 0 0.0137433 8.94039
0.03125 9.03502e-21 0.01875 8.34363
-0.03125 9.03502e-21 0.01875 7.20023
-0.01875 9.03502e-21 0.0312567 4.62438
0.01875 -1.807e-20 0.0312567 5.00469
0.01 1.0842e-19 0.0350537 4.12653
-0.01 1.0842e-19 0.0350537 3.96995
-0.036454 8.13152e-20 0 132.211
0.036454 8.13152e-20 0 160.325
0.01375 -1.807e-20 0.0337829 4.42855
-0.01375 -9.03502e-21 0.0337829 4.1918
0.00375 9.03502e-21 0.036344 3.81012
-0.00375 0 0.036344 3.75703
0.03625 -9.03502e-21 0.00608215 26.8276
-0.03625 1.807e-20 0.00608215 22.2707
0.00625 9.03502e-21 0.036344 3.82892
-0.00625 -1.807e-20 0.036344 3.74032
0.0325 1.0842e-19 0.0175 8.78805
-0.0325 1.0842e-19 0.0175 7.5577
0.0175 1.0842e-19 0.0325122 4.72987
-0.0175 1.0842e-19 0.0325122 4.40114
-0.02625 1.807e-20 0.02625 5.49211
0.02625 2.71051e-20 0.02625 6.20465
0.035 1.0842e-19 0.0124878 11.0492
-0.035 1.0842e-19 0.0124878 9.70913
0.0275 1.0842e-19 0.025 6.54169
0.025 1.0842e-19 0.0275 5.89564
-0.025 1.0842e-19 0.0275 5.26218
-0.0275 1.0842e-19 0.025 5.7478
0.0125 1.0842e-19 0.0350537 4.14913
-0.0125 1.0842e-19 0.0350537 3.95293
-0.03625 -9.03502e-21 0.008656 13.8755
0.03625 0 0.00865601 15.6332
0.02875 -9.03502e-21 0.02375 6.8847
-0.02875 9.03502e-21 0.02375 6.00593
0.02375 2.71051e-20 0.0287506 5.59293
-0.02375 -9.03502e-21 0.0287506 5.0341
0.00875 0 0.036344 3.84826
-0.00875 9.03502e-21 0.036344 3.72405
-0.03375 -1.807e-20 0.0162494 7.92787
0.03375 2.71051e-20 0.0162494 9.24284
0.01625 9.03502e-21 0.0337829 4.45481
-0.01625 -1.807e-20 0.0337829 4.17412
-0.0375 1.0842e-19 0 131.889
0.0375 -1.0842e-19 0 160.899
0.03 1.0842e-19 0.0225 7.24815
-0.03 1.0842e-19 0.0225 6.28195
0.0225 1.0842e-19 0.0300012 5.31385
-0.0225 1.0842e-19 0.0300012 4.82001
-0.0375 0 0.00233887 89.2965
0.0375 1.0842e-19 0.00233887 109.191
-3.91332e-10 1.0842e-19 0.0376343 3.50081
0.0025 1.0842e-19 0.0376343 3.518
-0.0025 1.0842e-19 0.0376343 3.48402
-0.03125 1.807e-20 0.02125 6.56089
0.03125 9.03502e-21 0.02125 7.6178
0.02125 -1.807e-20 0.0312567 5.03799
-0.02125 1.807e-20 0.0312567 4.605
0.0375 1.0842e-19 0.00479858 41.5462
-0.0375 1.0842e-19 0.00479858 33.916
0.03625 9.03502e-21 0.011217 11.915
-0.03625 9.03502e-21 0.011217 10.5579
0.005 1.0842e-19 0.0376343 3.53562
-0.005 1.0842e-19 0.0376343 3.46761
0.01125 0 0.036344 3.86827
-0.01125 2.71051e-20 0.036344 3.70822
0.035 1.0842e-19 0.0149988 9.77885
-0.035 1.0842e-19 0.0149988 8.40652
0.015 1.0842e-19 0.0350537 4.17255
-0.015 1.0842e-19 0.0350537 3.93639
0.0325 1.0842e-19 0.02 8.01745
-0.0325 1.0842e-19 0.02 6.8651
0.02 1.0842e-19 0.0325122 4.76011
-0.02 1.0842e-19 0.0325122 4.38285
0.0375 1.0842e-19 0.00736572 20.7944
-0.0375 1.0842e-19 0.00736572 17.6655
0.0075 1.0842e-19 0.0376343 3.55369
-0.0075 1.0842e-19 0.0376343 3.45156
0.038546 -8.13152e-20 0 161.428
-0.038546 1.0842e-19 0 131.571
0.03375 2.71051e-20 0.01875 8.42475
-0.03375 1.807e-20 0.01875 7.17493
0.01875 -2.71051e-20 0.0337829 4.48206
-0.01875 2.71051e-20 0.0337829 4.15698
-0.03875 9.03502e-21 0.00116944 128.479
0.03875 -9.03502e-21 0.00116944 157.85
0.03625 2.71051e-20 0.0137433 10.3336
-0.03625 -2.71051e-20 0.0137433 8.91596
0.0375 1.0842e-19 0.00994629 13.6033
-0.0375 1.0842e-19 0.00994629 12.0848
0.01375 -9.03502e-21 0.036344 3.88897
-0.01375 9.03502e-21 0.036344 3.69281
0.0275 1.0842e-19 0.0275 5.94193
-0.0275 1.0842e-19 0.0275 5.24035
-0.03875 9.03502e-21 0.00356872 48.1174
0.03875 2.71051e-20 0.00356872 59.7073
0.02875 2.71051e-20 0.02625 6.25548
-0.02875 2.71051e-20 0.02625 5.46921
0.02625 9.03502e-21 0.0287506 5.63487
-0.02625 1.807e-20 0.0287506 5.01339
-0.00125 0 0.0389178 3.20405
0.00125 9.03502e-21 0.0389179 3.22053
0.01 1.0842e-19 0.0376343 3.57225
-0.01 1.0842e-19 0.0376343 3.43585
-0.038954 0 0 131.447
0.038954 -8.13152e-20 0 161.652
0.03 1.0842e-19 0.025 6.59737
-0.03 1.0842e-19 0.025 5.72406
0.025 1.0842e-19 0.0300012 5.35209
-0.025 1.0842e-19 0.0300012 4.80023
0.00375 1.807e-20 0.0389178 3.23724
-0.00375 1.807e-20 0.0389178 3.1879
0.035 1.0842e-19 0.0175 8.8738
-0.035 1.0842e-19 0.0175 7.53284
0.0175 1.0842e-19 0.0350537 4.19683
-0.0175 1.0842e-19 0.0350537 3.92032
0.03875 -9.03502e-21 0.00608215 27.057