# p  POINT_DATA 29553
# x  y  z  p
0 0.00104602 7.11428e-09 0.0427047
0 -0.000203993 0.00116943 0.0426409
0 -0.00145398 7.75775e-09 0.0425782
1.08622e-19 0.001046 0.00233887 0.0427091
0 0.002296 0.00116944 0.0427684
1.18108e-20 -0.001454 0.00233887 0.0425826
1.0842e-19 -0.002704 0.00116943 0.0425156
0 0.001046 0.00323022 0.0427105
0 0.003546 7.22173e-09 0.0428333
0 -0.000203999 0.00356872 0.0426497
2.58494e-26 -0.00273457 0.00233887 0.042519
-5.16988e-26 -0.001454 0.00361264 0.0425846
-1.65436e-24 -0.003954 7.73917e-09 0.0424541
-1.0842e-19 0.002296 0.00356872 0.0427773
5.16988e-26 0.003546 0.00233887 0.0428377
0 -0.002704 0.00356872 0.0425244
4.1359e-25 -0.003954 0.00225921 0.0424583
0 -0.003954 0.00233887 0.0424584
0 0.001046 0.00479858 0.0427129
0 0.004796 0.00116943 0.0428982
0 0.003546 0.00343605 0.0428395
5.16988e-26 -0.001454 0.00479858 0.0425864
0 -0.00520401 0.00116943 0.0423926
5.32577e-20 0.003546 0.00479858 0.0428416
0 0.004796 0.00356872 0.0429071
0 0.006046 7.79493e-09 0.0429642
0 -0.000204 0.00608215 0.0426486
0 -0.003954 0.00479858 0.0424622
0 -0.005204 0.00356872 0.0424013
-8.27181e-25 -0.00645401 6.20271e-09 0.0423321
5.41565e-20 0.006046 0.00233887 0.0429686
1.0842e-19 0.002296 0.00608215 0.0427762
0 -0.002704 0.00608215 0.0425232
0 -0.00645401 0.00212494 0.0423361
-1.03398e-25 -0.00645401 0.00233887 0.0423365
0 0.007296 0.00116943 0.0430301
2.58494e-26 0.006046 0.00431085 0.0429717
4.51289e-20 0.001046 0.00736572 0.0427133
0 -0.001454 0.00736572 0.0425868
-2.58494e-26 0.006046 0.00479858 0.0429725
0 0.004796 0.00608215 0.042906
-1.0842e-19 -0.00770401 0.00116944 0.0422718
0 -0.005204 0.00608215 0.0424001
5.16988e-26 -0.006454 0.00479858 0.0423403
1.0842e-19 0.007296 0.00356872 0.0430389
3.50425e-20 0.003546 0.00736572 0.0428421
7.84787e-20 -0.003954 0.00736572 0.0424625
-1.0842e-19 -0.007704 0.00356872 0.0422805
-1.65436e-24 0.00854602 8.72316e-09 0.0430972
0 -0.000204 0.008656 0.0426505
-6.84192e-20 0.008546 0.00233886 0.0431016
0 -0.00895401 5.46843e-09 0.0422125
0 0.002296 0.008656 0.0427782
1.0842e-19 -0.002704 0.00865601 0.042525
-1.03398e-25 -0.00895401 0.001998 0.0422162
0 -0.00895401 0.00233887 0.0422168
6.46235e-27 0.00800744 0.00479858 0.0430769
0 0.007296 0.00608215 0.043038
0 0.006046 0.00736572 0.0429731
3.23117e-27 -0.001454 0.0096327 0.0425866
7.33351e-20 -0.006454 0.00736572 0.0423405
-7.59312e-20 0.008546 0.00479858 0.0431055
1.0842e-19 -0.007704 0.00608215 0.0422793
-2.1684e-19 0.009796 0.00116943 0.0431642
-1.0842e-19 0.004796 0.008656 0.0429082
8.07794e-28 -0.000473983 0.00994629 0.0426362
1.61559e-27 0.001046 0.00994629 0.0427131
0 -0.001454 0.00994629 0.0425865
0 -0.0100624 0 0.0421605
-2.1684e-19 -0.005204 0.00865601 0.0424018
0 -0.008954 0.00479858 0.0422206
0 -0.003954 0.00935899 0.0424623
1.0842e-19 -0.010204 0.00116944 0.0421533
-1.0842e-19 0.009796 0.00356872 0.043173
0 0.003546 0.00994629 0.042842
-2.03057e-20 -0.003954 0.00994629 0.0424622
-3.23117e-27 0.008546 0.0065421 0.043106
2.1684e-19 -0.010204 0.00356873 0.042162
0 0.011046 1.00042e-08 0.0432324
-1.0842e-19 -0.000204 0.011217 0.0426481
0 0.008546 0.00736572 0.0431062
-9.5347e-20 0.011046 0.00233887 0.0432367
1.0842e-19 0.007296 0.00865601 0.0430403
1.0842e-19 0.002296 0.011217 0.0427758
0 -0.011454 6.86537e-09 0.0420952
1.0842e-19 0.009796 0.00608215 0.0431721
-2.1684e-19 -0.002704 0.011217 0.0425226
0 -0.007704 0.00865601 0.0422809
0 -0.008954 0.00736572 0.0422208
0 0.006046 0.00994629 0.042973
0 -0.011454 0.00233887 0.0420995
8.07794e-28 -0.006454 0.00988095 0.0423402
9.58885e-20 -0.006454 0.00994629 0.0423401
-3.23117e-27 0.00931614 0.00736572 0.0431479
0 -0.010204 0.00608215 0.0421607
-1.66384e-19 0.011046 0.00479858 0.0432407
4.03897e-28 -0.00682261 0.00994629 0.0423225
0 0.004796 0.011217 0.0429057
-4.03897e-28 0.001046 0.0122979 0.0427104
0 0.012296 0.00116943 0.0433005
0 -0.005204 0.011217 0.0423994
0 -0.011454 0.00479858 0.0421032
3.43961e-20 0.001046 0.0124878 0.0427101
-8.184e-20 -0.001454 0.0124878 0.0425836
2.01948e-28 0.00176244 0.0124878 0.0427471
8.27181e-25 -0.0126866 0 0.0420384
1.0842e-19 -0.012704 0.00116943 0.0420371
0 0.012296 0.00356872 0.0433092
0 0.003546 0.0124878 0.0428389
-1.0842e-19 0.009796 0.008656 0.0431745
-6.60941e-20 -0.003954 0.0124878 0.0424593
0 0.008546 0.00994629 0.0431062
-2.1684e-19 -0.012704 0.00356872 0.0420457
-3.31624e-20 0.011046 0.00736572 0.0432415
0 -0.010204 0.008656 0.0421623
1.0842e-19 0.007296 0.011217 0.0430379
-1.61559e-27 -0.008954 0.00994629 0.0422204
-4.03897e-28 0.00908517 0.00994629 0.0431354
1.65436e-24 0.013546 1.10685e-08 0.0433696
0 -0.007704 0.011217 0.0422786
2.58494e-26 -0.011454 0.00736572 0.0421033
-2.1684e-19 0.012296 0.00608215 0.0433083
1.0842e-19 -0.000204 0.0137433 0.0426445
-1.18111e-19 0.013546 0.00233887 0.043374
0 0.006046 0.0124878 0.0429699
0 0.002296 0.0137433 0.0427722
0 -0.013954 7.05929e-09 0.0419801
0 -0.002704 0.0137433 0.0425191
-1.14467e-19 -0.006454 0.0124878 0.0423374
0 -0.012704 0.00608215 0.0420444
-7.23783e-25 -0.013954 0.00214735 0.041984
1.03398e-25 -0.013954 0.00233887 0.0419844
1.54667e-19 0.013546 0.00479858 0.043378
1.0842e-19 0.004796 0.0137433 0.0429021
2.01948e-28 0.008546 0.0119353 0.0431038
0 -0.005204 0.0137433 0.0423961
-2.01948e-28 0.00782085 0.0124878 0.0430645
0 -0.013954 0.00479858 0.0419881
0 0.014796 0.00116943 0.0434388
1.37052e-19 0.011046 0.00994629 0.0432416
-1.0842e-19 0.009796 0.011217 0.0431722
7.21934e-20 0.001046 0.0149988 0.0427053
0 0.012296 0.008656 0.043311
9.65262e-21 -0.001454 0.0149988 0.0425789
-2.01948e-28 0.008546 0.0124878 0.0431032
0 -0.010204 0.011217 0.04216
0 -0.011454 0.00994629 0.0421029
0 0.014796 0.00356872 0.0434475
0 -0.015204 0.00116943 0.0419231
1.21169e-27 -0.008954 0.0123912 0.0422178
0 0.00296952 0.0149988 0.0428044
0 -0.008954 0.0124878 0.0422177
0 -0.012704 0.008656 0.0420459
0 0.003546 0.0149988 0.0428341
-3.98254e-20 0.013546 0.00736572 0.0433789
-4.43593e-20 -0.003954 0.0149988 0.0424547
1.0842e-19 0.007296 0.0137433 0.0430342
0 -0.015204 0.00356872 0.0419317
-1.51461e-28 -0.00938579 0.0124878 0.0421974
0 -0.007704 0.0137433 0.0422754
0 -0.013954 0.00736572 0.0419881
-1.0842e-19 0.014796 0.00608215 0.0434467
-1.65436e-24 0.016046 1.17795e-08 0.043509
1.26218e-29 0.006046 0.0149988 0.0429651
2.79943e-20 0.016046 0.00233887 0.0435133
0 -0.000204 0.0162494 0.0426386
1.26879e-20 -0.006454 0.0149988 0.0423328
-2.1684e-19 -0.015204 0.00608215 0.0419304
0 0.002296 0.0162494 0.0427661
-6.31089e-30 0.00672626 0.0149988 0.0430013
-8.27181e-25 -0.016454 6.56922e-09 0.0418673
-1.0842e-19 -0.002704 0.0162494 0.0425133
8.07794e-28 -0.016454 0.00233887 0.0418715
0 0.012296 0.011217 0.0433087
5.18393e-20 0.011046 0.0124878 0.0432386
0 -0.0165244 0.00233887 0.0418684
-3.67342e-20 0.016046 0.00479858 0.0435174
6.18139e-20 0.013546 0.00994629 0.0433791
-1.0842e-19 0.009796 0.0137433 0.0431685
1.0842e-19 0.004796 0.0162494 0.042896
-4.03897e-28 -0.011454 0.0124878 0.0421003
0 -0.012704 0.011217 0.0420437
1.0842e-19 -0.005204 0.0162494 0.0423902
0 -0.010204 0.0137433 0.0421569
0 -0.013954 0.00994629 0.0419878
-1.03398e-25 -0.016454 0.00479858 0.0418752
-1.0842e-19 0.014796 0.008656 0.0434495
0 0.008546 0.0149988 0.0430982
0 0.017296 0.00116943 0.0435792
-1.04052e-19 -0.008954 0.0149988 0.0422132
0 -0.015204 0.008656 0.0419319
-3.54893e-20 0.001046 0.0175 0.0426992
1.42066e-19 -0.001454 0.0175 0.0425728
-3.15544e-30 0.003546 0.0172644 0.0428284
-6.78833e-20 0.016046 0.00736572 0.0435184
-2.1684e-19 0.017296 0.00356872 0.0435879
1.0842e-19 -0.017704 0.00116943 0.0418114
-2.1684e-19 0.007296 0.0162494 0.043028
-1.57772e-30 0.003546 0.0175 0.0428278
4.20658e-20 -0.003954 0.0175 0.0424487
-1.0842e-19 -0.007704 0.0162494 0.0422695
0 -0.016454 0.00736572 0.0418753
0 -0.017704 0.00356873 0.04182
0 0.006046 0.0171736 0.0429596
1.26218e-29 -0.0105114 0.0149988 0.0421402
1.0842e-19 0.017296 0.00608215 0.0435871
-2.12774e-20 0.013546 0.0124878 0.0433762
-1.0842e-19 0.012296 0.0137433 0.043305
0 0.006046 0.0175 0.0429587
1.65436e-24 0.018546 1.2351e-08 0.0436504
-1.0842e-19 0.014796 0.011217 0.0434473
1.26218e-28 0.0137547 0.0124878 0.0433878
-1.06602e-19 0.011046 0.0149988 0.0432336
8.08447e-20 -0.006454 0.0175 0.0423269
1.11276e-19 0.018546 0.00233887 0.0436547
1.0842e-19 -0.012704 0.0137433 0.0420407
0 -0.017704 0.00608215 0.0418187
0 -0.013954 0.0124878 0.0419852
0 -0.000204 0.01875 0.0426323
0 -0.011454 0.0149988 0.0420959
-8.56718e-20 0.016046 0.00994629 0.0435187
-1.0842e-19 0.002296 0.01875 0.0427597
1.0842e-19 -0.015204 0.011217 0.0419297
0 -0.002704 0.01875 0.0425071
8.27181e-25 -0.018954 6.6199e-09 0.0417567
1.0842e-19 0.009796 0.0162494 0.0431623
-2.58494e-26 -0.018954 0.00233887 0.041761
4.97932e-20 0.018546 0.00479858 0.0436588
1.0842e-19 -0.010204 0.0162494 0.0421511
0 -0.018954 0.00305909 0.0417621
-4.73061e-20 -0.016454 0.00994629 0.0418749
2.1684e-19 0.017296 0.008656 0.04359
0 0.004796 0.01875 0.0428895
0 -0.005204 0.01875 0.0423842
-3.54882e-20 0.008546 0.0175 0.0430918
0 -0.018954 0.00479858 0.0417647
0 0.013546 0.0141132 0.043373
-1.91544e-20 -0.008954 0.0175 0.0422074
-1.26218e-29 0.0127207 0.0149988 0.0433258
0 -0.017704 0.008656 0.0418201
0 0.019796 0.00116943 0.0437215
-7.69895e-20 0.018546 0.00736572 0.0436599
3.28979e-21 0.001046 0.02 0.0426924
-9.67102e-20 -0.001454 0.02 0.0425662
0 0.016046 0.0120613 0.0435163
-1.0842e-19 0.019796 0.00356872 0.0437303
0 0.007296 0.01875 0.0430214
0 0.014796 0.0137433 0.0434437
1.26218e-29 0.013546 0.0149988 0.0433712
1.0842e-19 -0.020204 0.00116943 0.041702
-1.0842e-19 -0.007704 0.01875 0.0422635
3.28979e-21 0.003546 0.02 0.042821
-4.03897e-28 0.016046 0.0124878 0.0435158
0 -0.018954 0.00736572 0.0417647
1.0842e-19 0.012296 0.0162494 0.0432987
-9.67102e-20 -0.003954 0.02 0.0424422
-1.00974e-28 -0.013954 0.0149988 0.0419809
0 -0.015204 0.0137433 0.0419268
0 -0.020204 0.00356872 0.0417106
1.0842e-19 0.017296 0.011217 0.043588
1.0842e-19 -0.012704 0.0162494 0.042035
3.23117e-27 -0.016454 0.0124878 0.0418723
-3.54882e-20 0.011046 0.0175 0.0432271
-2.1684e-19 0.019796 0.00608215 0.0437296
1.57772e-29 -0.011454 0.0173004 0.0420906
6.45119e-20 0.006046 0.02 0.0429518
0 -0.011454 0.0175 0.0420901
1.0842e-19 -0.017704 0.011217 0.0418179
8.08456e-20 -0.006454 0.02 0.0423205
-3.70875e-20 0.018546 0.00994629 0.0436603
-1.65436e-24 0.021046 1.32786e-08 0.0437937
-1.0842e-19 -0.020204 0.00608215 0.0417093
-1.0842e-19 0.009796 0.01875 0.0431556
-3.32229e-20 0.021046 0.00233887 0.0437981
0 -0.000204 0.02125 0.0426252
0 -0.010204 0.01875 0.0421452
0 0.002296 0.02125 0.0427525
0 -0.018954 0.00994629 0.0417643
-1.0842e-19 -0.002704 0.02125 0.0425001
-1.65436e-24 -0.021454 7.86035e-09 0.0416485
-3.67055e-20 -0.021454 0.00233887 0.0416527
1.64666e-19 0.021046 0.00479858 0.0438022
0 0.019796 0.008656 0.0437326
0 0.0176473 0.0124878 0.0436066
-1.13044e-19 0.008546 0.02 0.0430847
1.0842e-19 0.004796 0.02125 0.0428821
-1.0842e-19 -0.005204 0.02125 0.0423773
8.08456e-20 -0.008954 0.02 0.0422011
0 -0.021454 0.00449012 0.0416559
3.15544e-30 0.013546 0.0172844 0.0433652
0 0.016046 0.0149988 0.0435109
1.0842e-19 0.014796 0.0162494 0.0434374
0 -0.020204 0.008656 0.0417107
0 -0.021454 0.00479858 0.0416564
-1.0842e-19 0.017296 0.0137433 0.0435844
-9.67096e-20 0.013546 0.0175 0.0433646
0 -0.015204 0.0162494 0.0419212
-2.01948e-28 -0.016454 0.0149988 0.0418682
1.19679e-19 0.021046 0.00736572 0.0438033
-1.0842e-19 0.022296 0.00116943 0.0438659
9.46633e-30 -0.013954 0.0174568 0.0419753
-7.79273e-20 0.018546 0.0124878 0.0436576
0 -0.013954 0.0175 0.0419752
0 -0.017704 0.0137433 0.0418151
-1.0842e-19 0.012296 0.01875 0.0432919
-1.0842e-19 0.007296 0.02125 0.0430139
8.08456e-20 0.001046 0.0225 0.0426853
8.08456e-20 -0.001454 0.0225 0.0425591
-1.0842e-19 0.022296 0.00356872 0.0438747
1.0842e-19 -0.007704 0.02125 0.0422568
0 -0.012704 0.01875 0.0420292
0 -0.021454 0.00736572 0.0416564
0 -0.018954 0.0124878 0.0417618
0 -0.022704 0.00116943 0.041595
-2.1684e-19 0.019796 0.011217 0.0437307
-9.67102e-20 0.003546 0.0225 0.0428136
3.28979e-21 -0.003954 0.0225 0.0424353
3.28979e-21 0.011046 0.02 0.0432199
0 -0.0224661 0.00479858 0.0416134
2.1684e-19 -0.022704 0.00356872 0.0416034
1.58401e-19 -0.011454 0.02 0.042084
-1.0842e-19 -0.020204 0.011217 0.0417085
2.1684e-19 0.022296 0.00608215 0.043874
-1.26589e-20 0.021046 0.00994629 0.0438039
-3.54881e-20 0.006046 0.0225 0.0429443
0 0.009796 0.02125 0.043148
-9.67102e-20 -0.006454 0.0225 0.0423137
0 -0.022704 0.00608215 0.0416021
0 0.023546 1.4979e-08 0.0439391
0 -0.010204 0.02125 0.0421386
-2.52435e-29 0.018546 0.0146545 0.0436533
0 -0.021454 0.00994629 0.0416559
-7.77765e-20 0.023546 0.00233888 0.0439435
-2.99767e-29 0.016046 0.0174447 0.0435044
1.0842e-19 0.017296 0.0162494 0.0435781
-1.91538e-20 0.016046 0.0175 0.0435042
-1.0842e-19 -0.000204 0.02375 0.042618
0 0.018546 0.0149988 0.0436526
1.0842e-19 0.002296 0.02375 0.0427452
-1.0842e-19 0.014796 0.01875 0.0434305
0 -0.002704 0.02375 0.0424931
-1.0842e-19 0.022296 0.008656 0.0438771
1.65436e-24 -0.023954 9.64824e-09 0.0415425
1.26218e-29 -0.016454 0.0174796 0.0418627
-1.57772e-30 -0.016454 0.0175 0.0418626
-4.44498e-20 0.023546 0.00479858 0.0439475
-1.0842e-19 -0.017704 0.0162494 0.0418097
-9.04137e-20 -0.023954 0.00233887 0.0415467
-3.54881e-20 0.008546 0.0225 0.0430771
1.0842e-19 0.019796 0.0137433 0.0437271
0 -0.015204 0.01875 0.0419155
-1.91544e-20 0.013546 0.02 0.0433573
0 -0.018954 0.0149988 0.0417577
0 0.0189756 0.0149988 0.0436773
-1.91544e-20 -0.008954 0.0225 0.0421944
1.0842e-19 0.004796 0.02375 0.0428746
1.0842e-19 -0.022704 0.008656 0.0416034
-1.0842e-19 -0.005204 0.02375 0.0423705
1.58401e-19 -0.013954 0.02 0.0419692
6.90159e-20 -0.023954 0.00479858 0.0415503
2.1684e-19 -0.020204 0.0137433 0.0417057
-1.3697e-19 0.021046 0.0124878 0.0438013
-1.0842e-19 0.012296 0.02125 0.0432842
1.55749e-19 0.023546 0.00736572 0.0439487
-1.0842e-19 -0.012704 0.02125 0.0420228
0 -0.023954 0.00649991 0.0415503
0 0.024796 0.00116943 0.0440123
-3.23117e-27 -0.021454 0.0124878 0.0416535
0 0.007296 0.02375 0.0430063
1.0842e-19 0.022296 0.011217 0.0438753
0 -0.007704 0.02375 0.0422501
-1.91544e-20 0.001046 0.025 0.042678
8.08456e-20 -0.001454 0.025 0.0425521
1.0842e-19 0.024796 0.00356872 0.044021
0 -0.023954 0.00736572 0.0415503
8.08456e-20 0.011046 0.0225 0.0432121
-1.0842e-19 -0.025204 0.00116944 0.0414901
5.84013e-20 -0.011454 0.0225 0.0420775
8.08456e-20 0.003546 0.025 0.0428062
3.28979e-21 -0.003954 0.025 0.0424284
1.0842e-19 -0.022704 0.011217 0.0416013
7.88861e-30 0.018546 0.0173753 0.0436462
1.0842e-19 -0.025204 0.00356872 0.0414985
0 0.018546 0.0175 0.0436459
0 0.017296 0.01875 0.043571
1.0842e-19 0.024796 0.00608215 0.0440202
1.18654e-21 0.023546 0.00994629 0.0439494
1.0842e-19 0.019796 0.0162494 0.0437208
1.58401e-19 0.016046 0.02 0.0434968
0 0.009796 0.02375 0.0431401
3.28979e-21 0.006046 0.025 0.0429366
0 -0.017704 0.01875 0.0418041
-5.83757e-29 -0.018954 0.0174859 0.0417523
-9.67102e-20 -0.018954 0.0175 0.0417523
3.28979e-21 -0.006454 0.025 0.042307
-1.12244e-19 0.021046 0.0149988 0.0437963
1.0842e-19 -0.010204 0.02375 0.0421321
-1.0842e-19 0.014796 0.02125 0.0434225
-9.67102e-20 -0.016454 0.02 0.0418567
0 -0.025204 0.00608215 0.0414971
1.0842e-19 -0.020204 0.0162494 0.0417004
1.29247e-26 -0.023954 0.00994629 0.0415499
3.30872e-24 0.026046 1.67421e-08 0.0440865
0 -0.015204 0.02125 0.0419092
-1.18197e-19 0.026046 0.00233888 0.0440908
0 -0.021454 0.0149988 0.0416495
1.0842e-19 0.022296 0.0137433 0.0438719
-1.0842e-19 -0.000204 0.02625 0.0426109
1.58401e-19 0.013546 0.0225 0.0433493
-1.0842e-19 0.024796 0.008656 0.0440234
0 0.002296 0.02625 0.0427378
0 -0.002704 0.02625 0.0424861
3.28979e-21 0.008546 0.025 0.0430693
0 -0.026454 1.03089e-08 0.0414388
1.58401e-19 -0.013954 0.0225 0.0419628
-2.36214e-20 0.026046 0.00479858 0.0440947
-1.0842e-19 -0.022704 0.0137433 0.0415987
-9.67102e-20 -0.008954 0.025 0.0421879
0 -0.026454 0.00233887 0.041443
-1.0842e-19 -0.025204 0.008656 0.0414985
-1.97619e-20 0.023546 0.0124878 0.0439469
-1.0842e-19 0.004796 0.02625 0.042867
-1.0842e-19 0.012296 0.02375 0.0432761
0 -0.005204 0.02625 0.0423637
-5.16988e-26 -0.026454 0.00479858 0.0414465
0 -0.012704 0.02375 0.0420164
0 -0.023954 0.0124878 0.0415475
-1.29593e-20 0.026046 0.00736572 0.0440958
0 0.024796 0.011217 0.0440218
-1.0842e-19 0.007296 0.02625 0.0429985
0 0.019796 0.01875 0.0437137
1.58401e-19 0.018546 0.02 0.0436383
1.0842e-19 0.027296 0.00116943 0.0441607
8.08456e-20 0.011046 0.025 0.0432041
1.29247e-26 -0.026454 0.00693693 0.0414465
0 -0.007704 0.02625 0.0422435
-1.91544e-20 0.021046 0.0175 0.0437896
-1.0842e-19 0.017296 0.02125 0.043563
-1.29247e-26 -0.026454 0.00736572 0.0414465
8.08456e-20 -0.011454 0.025 0.0420711
-1.91544e-20 0.001046 0.0275 0.0426709
0 0.027296 0.00356872 0.0441694
-1.91544e-20 -0.001454 0.0275 0.0425452
3.28979e-21 -0.018954 0.02 0.0417464
0 -0.020204 0.01875 0.0416949
0 -0.025204 0.011217 0.0414964
1.0842e-19 0.022296 0.0162494 0.0438655
1.58401e-19 0.016046 0.0225 0.0434886
0 -0.017704 0.02125 0.0417979
-1.13596e-28 -0.021454 0.0174875 0.0416443
-1.57772e-30 -0.021454 0.0175 0.0416442
1.58401e-19 0.003546 0.0275 0.0427989
1.0842e-19 -0.027704 0.00116943 0.0413875
4.20665e-20 -0.003954 0.0275 0.0424217
-1.57772e-30 -0.001454 0.027817 0.0425443
-9.67102e-20 -0.016454 0.0225 0.0418504
-1.225e-21 0.026046 0.00994629 0.0440967
-2.8766e-20 0.023546 0.0149988 0.0439421
0 -0.022704 0.0162494 0.0415935
0 -0.027704 0.00356872 0.0413959
-1.0842e-19 0.027296 0.00608215 0.0441683
0 0.014796 0.02375 0.0434143
0 0.009796 0.02625 0.0431321
-1.91544e-20 0.006046 0.0275 0.0429291
1.0842e-19 -0.010204 0.02625 0.0421256
1.0842e-19 -0.015204 0.02375 0.0419029
-9.67102e-20 -0.006454 0.0275 0.0423005
0 -0.026454 0.00994629 0.0414461
0 -0.023954 0.0149988 0.0415437
-2.1684e-19 0.024796 0.0137433 0.0440186
0 -0.027704 0.00608215 0.0413945
-1.91544e-20 0.013546 0.025 0.043341
0 0.028546 1.77183e-08 0.0442358
8.08456e-20 -0.013954 0.025 0.0419565
0 0.027296 0.008656 0.0441714
4.87689e-20 0.028546 0.00233888 0.0442402
0 -0.025204 0.0137433 0.0414939
-1.0842e-19 -0.000204 0.0287506 0.042604
-9.67102e-20 0.008546 0.0275 0.0430615
0 0.002296 0.0287506 0.0427309
1.0842e-19 -0.002704 0.0287506 0.0424795
3.25574e-20 0.026046 0.0124878 0.0440945
8.08456e-20 -0.008954 0.0275 0.0421815
-9.44979e-20 0.028546 0.00479858 0.0442439
1.65436e-24 -0.028954 9.40763e-09 0.0413373
-1.0842e-19 0.012296 0.02625 0.0432679
0 -0.027704 0.00865601 0.0413958
8.08456e-20 0.021046 0.02 0.0437819
0 0.019796 0.02125 0.0437055
-4.1359e-25 -0.028954 0.00233887 0.0413415
-1.0842e-19 0.022296 0.01875 0.0438584
0 0.004796 0.0287506 0.0428599
8.08456e-20 0.018546 0.0225 0.0436299
-1.0842e-19 -0.012704 0.02625 0.04201
7.88861e-30 -0.008954 0.0277549 0.0421809
-1.0842e-19 -0.005204 0.0287506 0.0423572
0 -0.026454 0.0124878 0.0414438
1.0842e-19 -0.020204 0.02125 0.0416888
-1.91544e-20 -0.021454 0.02 0.0416385
-1.9158e-20 0.023546 0.0175 0.0439353
0 -0.028954 0.00479858 0.041345
0 0.017296 0.02375 0.0435545
8.08456e-20 -0.018954 0.0225 0.0417403
0 -0.022704 0.01875 0.0415881
-1.39066e-19 0.028546 0.00736572 0.0442447
-1.0842e-19 0.027296 0.011217 0.0441701
-1.0842e-19 -0.017704 0.02375 0.0417917
8.08456e-20 0.011046 0.0275 0.0431961
-1.0842e-19 0.024796 0.0162494 0.0440123
0 -0.028954 0.00637191 0.0413449
4.57539e-29 -0.023954 0.0174875 0.0415385
-1.0842e-19 0.007296 0.0287506 0.042991
0 -0.023954 0.0175 0.0415384
-1.91544e-20 0.016046 0.025 0.0434801
1.0842e-19 -0.007704 0.0287506 0.0422372
8.08456e-20 -0.011454 0.0275 0.0420648
1.48306e-28 -0.011454 0.027518 0.0420648
0 0.029796 0.00116943 0.0443109
-1.29247e-26 -0.028954 0.00736572 0.0413449
0 -0.027704 0.011217 0.0413937
-9.67102e-20 -0.016454 0.025 0.0418443
0 -0.025204 0.0162494 0.0414888
-1.0842e-19 0.029796 0.00356872 0.0443197
0 -0.000988381 0.0300012 0.042562
7.96169e-20 0.001046 0.0300012 0.0426642
0 -0.001454 0.0300012 0.0425386
-1.26218e-29 -0.0017932 0.0300012 0.0425219
-3.34408e-20 0.026046 0.0149988 0.0440898
0 -0.001454 0.0300327 0.0425386
1.0842e-19 0.014796 0.02625 0.0434058
-1.73031e-20 0.003546 0.0300012 0.042792
0 -0.030204 0.00116943 0.0412871
2.57079e-20 0.028546 0.00994629 0.0442457
1.03435e-19 -0.003954 0.0300012 0.0424153
0 -0.015204 0.02625 0.0418967
0 0.009796 0.0287506 0.0431244
0 -0.026454 0.0149988 0.04144
1.0842e-19 0.029796 0.00608215 0.0443181
-1.0842e-19 -0.030204 0.00356872 0.0412954
0 -0.010204 0.0287506 0.0421196
-2.1684e-19 0.027296 0.0137433 0.0441672
-1.58081e-20 0.006046 0.0300012 0.042922
-1.29247e-26 -0.028954 0.00994629 0.0413445
1.29247e-26 -0.0302455 0.00479858 0.0412937
5.84013e-20 0.013546 0.0275 0.0433328
0 -0.006454 0.0300012 0.0422943
1.0842e-19 0.022296 0.02125 0.04385
1.58401e-19 0.021046 0.0225 0.0437733
0 -0.030204 0.00608215 0.0412941
8.08456e-20 -0.013954 0.0275 0.0419505
5.99534e-29 -0.013954 0.027515 0.0419504
-1.91544e-20 0.023546 0.02 0.0439275
-1.0842e-19 0.019796 0.02375 0.0436968
1.0842e-19 -0.027704 0.0137433 0.0413912
0 0.029796 0.008656 0.0443211
0 0.031046 1.76652e-08 0.044387
0 0.024796 0.01875 0.0440051
8.08456e-20 -0.021454 0.0225 0.0416326
0 -0.022704 0.02125 0.0415821
-1.91544e-20 0.018546 0.025 0.0436212
-3.67731e-20 0.031046 0.00233888 0.0443914
3.07042e-20 0.028546 0.0124878 0.0442438
1.0842e-19 -0.020204 0.02375 0.0416829
3.23394e-22 0.008546 0.0300012 0.0430541
1.58401e-19 -0.023954 0.02 0.0415329
0 -0.00868468 0.0300012 0.0421883
0 -0.000204 0.0312567 0.0425976
-1.0842e-19 0.012296 0.0287506 0.04326
0 -0.008954 0.0300012 0.0421755
2.1684e-19 0.002296 0.0312567 0.0427242
0 -0.008954 0.0300383 0.0421754
8.08456e-20 -0.018954 0.025 0.0417343
1.0842e-19 -0.002704 0.0312567 0.0424733
8.08456e-20 0.026046 0.0175 0.044083
-1.0842e-19 -0.025204 0.01875 0.0414835
7.6781e-20 0.031046 0.00479858 0.0443949
0 -0.030204 0.008656 0.0412953
1.0842e-19 -0.012704 0.0287506 0.0420041
-1.0842e-19 0.017296 0.02625 0.0435457
-1.65436e-24 -0.031454 8.32919e-09 0.0412381
0 -0.028954 0.0124878 0.0413422
0 -0.031454 0.00233887 0.0412422
0 0.004796 0.0312567 0.0428529
0 -0.017704 0.02625 0.0417857
-1.0842e-19 -0.005204 0.0312567 0.0423512
-1.67239e-28 -0.026454 0.017487 0.041435
-1.91503e-20 -0.026454 0.0175 0.0414349
2.58494e-26 -0.031454 0.00420833 0.0412448
-1.0842e-19 0.027296 0.0162494 0.0441609
0 -0.031454 0.00479858 0.0412457
1.0842e-19 0.029796 0.011217 0.0443201
-1.91572e-20 0.016046 0.0275 0.0434716
1.71281e-19 0.031046 0.00736572 0.0443954
-8.99539e-20 0.011046 0.0300012 0.0431884
8.08456e-20 -0.016454 0.0275 0.0418384
1.0842e-19 0.007296 0.0312567 0.0429839
-7.88861e-30 -0.016454 0.027561 0.0418382
-2.01948e-28 -0.011454 0.0300012 0.042059
1.0842e-19 -0.027704 0.0162494 0.0413863
-2.1684e-19 -0.007704 0.0312567 0.0422313
1.0842e-19 -0.030204 0.011217 0.0412933
-5.52037e-20 0.028546 0.0149988 0.0442393
0 -0.031454 0.00736572 0.0412456
0 0.032296 0.00116943 0.0444631
-1.0842e-19 0.014796 0.0287506 0.0433975
0 0.032296 0.00356872 0.0444719
0 -0.015204 0.0287506 0.041891
-1.29305e-20 0.001046 0.0325122 0.042658
0 -0.001454 0.0325122 0.0425327
5.84013e-20 0.023546 0.0225 0.0439187
-1.0842e-19 0.022296 0.02375 0.043841
-6.70037e-20 0.031046 0.00994629 0.0443965
-2.01948e-28 -0.028954 0.0149988 0.0413386
1.0842e-19 0.024796 0.02125 0.0439964
1.58401e-19 0.021046 0.025 0.0437643
-3.82621e-20 0.003546 0.0325122 0.0427856
-1.0842e-19 -0.032704 0.00116943 0.041189
-3.14271e-20 -0.003954 0.0325122 0.0424095
0 0.009796 0.0312567 0.043117
1.0842e-19 0.029796 0.0137433 0.0443176
8.08456e-20 0.026046 0.02 0.044075
-1.0842e-19 -0.022704 0.02375 0.0415763
0 0.032296 0.00608215 0.0444696
-9.67102e-20 -0.023954 0.0225 0.041527
0 0.019796 0.02625 0.0436877
0 -0.010204 0.0312567 0.0421138
0 -0.032704 0.00356872 0.0411973
6.78939e-21 0.013546 0.0300012 0.0433249
8.08456e-20 -0.021454 0.025 0.0416267
8.27181e-25 -0.032962 0 0.0411795
0 -0.025204 0.02125 0.0414777
-1.29247e-26 -0.031454 0.00994629 0.0412452
-5.05912e-20 0.006046 0.0325122 0.0429154
2.01948e-28 -0.013954 0.0300012 0.0419447
0 0.027296 0.01875 0.0441536
0 -0.020204 0.02625 0.041677
1.24582e-19 -0.006454 0.0325122 0.0422886
-9.67102e-20 -0.026454 0.02 0.0414294
1.58401e-19 0.018546 0.0275 0.0436124
1.0842e-19 -0.030204 0.0137433 0.0412909
0 -0.032704 0.00608215 0.0411959
-9.46633e-30 0.018546 0.0277129 0.0436116
-1.57772e-30 -0.018954 0.0275 0.0417286
-1.0842e-19 0.032296 0.008656 0.0444726
-2.58494e-26 -0.0333668 0.00233887 0.0411679
1.0842e-19 -0.027704 0.01875 0.0413811
-1.88327e-20 0.031046 0.0124878 0.0443949
-1.91627e-20 0.028546 0.0175 0.0442325
0 0.033546 1.63364e-08 0.0445402
0 0.017296 0.0287506 0.0435372
-1.0842e-19 0.012296 0.0312567 0.0432523
-3.71184e-21 0.008546 0.0325122 0.0430473
-5.80722e-20 0.033546 0.00233888 0.0445445
8.07794e-28 -0.008954 0.0325122 0.04217
0 -0.012704 0.0312567 0.0419985
1.0842e-19 -0.017704 0.0287506 0.04178
2.1684e-19 -0.000204 0.0337829 0.0425919
1.62505e-28 -0.028954 0.0174856 0.0413336
0 -0.032704 0.008656 0.0411971
-1.57772e-30 -0.028954 0.0175 0.0413336
1.61559e-27 -0.031454 0.0124878 0.041243
0 0.002296 0.0337829 0.0427183
-2.95448e-20 0.033546 0.00479858 0.0445475
-2.1684e-19 -0.002704 0.0337829 0.0424677
0 0.029796 0.0162494 0.0443114
-8.27181e-25 -0.033954 5.47877e-09 0.041141
-1.14856e-19 0.016046 0.0300012 0.0434633
1.21169e-27 -0.0100569 0.0325122 0.0421187
-4.00818e-21 -0.033954 0.00233887 0.0411451
1.0842e-19 0.004796 0.033783 0.0428469
0 -0.005204 0.0337829 0.0423458
1.0842e-19 0.032296 0.011217 0.0444719
0 -0.016454 0.0300012 0.0418328
8.29978e-21 -0.033954 0.00479858 0.0411485
1.0842e-19 -0.030204 0.0162494 0.041286
-1.0842e-19 0.024796 0.02375 0.0439872
-2.57517e-20 0.011046 0.0325122 0.0431813
1.58401e-19 0.023546 0.025 0.0439093
-5.61775e-20 0.033546 0.00736572 0.0445476
-1.91544e-20 0.026046 0.0225 0.0440659
1.0842e-19 0.022296 0.02625 0.0438316
-1.61559e-27 -0.011454 0.0325122 0.0420537
-5.9729e-20 0.031046 0.0149988 0.0443906
0 -0.0170154 0.0300012 0.0418082
1.0842e-19 0.007296 0.0337829 0.0429776
0 -0.032704 0.011217 0.0411951
0 0.014796 0.0312567 0.0433896
-1.0842e-19 0.027296 0.02125 0.0441448
3.28979e-21 -0.023954 0.025 0.0415213
-1.91544e-20 0.021046 0.0275 0.0437551
0 -0.025204 0.02375 0.0414719
-2.58494e-26 -0.0345651 0.00233887 0.0411219
-3.62876e-29 0.021046 0.0275262 0.043755
0 -0.007704 0.0337829 0.0422261
-1.0842e-19 -0.022704 0.02625 0.0415705
6.45119e-20 -0.026454 0.0225 0.0414237
-1.29247e-26 -0.033954 0.00736572 0.0411484
0 -0.015204 0.0312567 0.0418855
-1.0842e-19 0.034796 0.00116943 0.0446172
0 -0.031454 0.0149988 0.0412394
-1.91544e-20 0.028546 0.02 0.0442244
8.08456e-20 -0.021454 0.0275 0.041621
-1.0842e-19 0.019796 0.0287506 0.0436788
0 -0.027704 0.02125 0.0413754
-4.1359e-25 -0.034974 0 0.0411023
1.0842e-19 0.034796 0.00356872 0.0446259
1.36189e-19 0.033546 0.00994629 0.0445489
1.08548e-19 0.001046 0.0350537 0.0426526
-2.6732e-20 -0.001454 0.0350537 0.0425274
2.1684e-19 0.032296 0.0137433 0.0444698
0 -0.020204 0.0287506 0.0416714
-1.26218e-29 0.0183015 0.0300012 0.04359
1.0842e-19 0.009796 0.0337829 0.0431105
3.28979e-21 -0.028954 0.02 0.0413283
0 0.029796 0.01875 0.044304
-3.94631e-20 0.013546 0.0325122 0.0433175
0 -0.035204 0.00116943 0.041093
-1.27966e-20 0.003546 0.0350537 0.0427799
0 0.018546 0.0300012 0.0436038
3.29662e-20 -0.003954 0.0350537 0.0424044
-2.1684e-19 -0.010204 0.033783 0.0421087
0 -0.011454 0.0334075 0.042052
0 0.034796 0.00608215 0.0446227
0 -0.013954 0.0325122 0.0419396
0 -0.033954 0.00994629 0.041148
0 -0.035204 0.00356872 0.0411012
0 -0.032704 0.0137433 0.0411928
5.82475e-20 -0.018954 0.0300012 0.0417231
1.0842e-19 -0.030204 0.01875 0.041281
-2.09986e-20 0.006046 0.0350537 0.0429095
1.58401e-19 0.031046 0.0175 0.0443839
7.43539e-20 -0.006454 0.0350537 0.0422837
0 0.017296 0.0312567 0.0435289
0 -0.035204 0.00608215 0.0410998
1.3705e-19 0.033546 0.0124878 0.0445477
2.1684e-19 0.034796 0.008656 0.0446256
-1.0842e-19 -0.017704 0.0312567 0.0417747
1.0842e-19 0.012296 0.0337829 0.0432454
1.23062e-28 -0.031454 0.0174805 0.0412346
8.08487e-20 -0.031454 0.0175 0.0412345
-1.65436e-24 0.036046 1.31538e-08 0.0446951
-2.80033e-20 0.008546 0.0350537 0.0430412
1.0842e-19 -0.012704 0.0337829 0.0419936
1.58401e-19 0.026046 0.025 0.0440562
-1.0842e-19 0.024796 0.02625 0.0439774
1.16035e-19 0.036046 0.00233887 0.0446994
0 0.032296 0.0162494 0.0444637
-8.07794e-28 -0.033954 0.0124878 0.0411459
-1.85554e-20 -0.008954 0.0350537 0.0421652
0 0.027296 0.02375 0.0441352
-4.15987e-20 0.023546 0.0275 0.0438998
-1.15174e-28 0.023546 0.0275249 0.0438997
-1.0842e-19 -0.035204 0.00865601 0.041101
-3.55134e-20 0.016046 0.0325122 0.0434556
0 -0.000204 0.036344 0.0425869
-1.91544e-20 0.028546 0.0225 0.044215
-1.44582e-19 0.036046 0.00479858 0.0447018
1.0842e-19 0.022296 0.0287506 0.0438224
1.0842e-19 -0.025204 0.02625 0.0414663
6.45119e-20 -0.026454 0.025 0.0414181
0 0.002296 0.036344 0.0427131
0 -0.016454 0.0325122 0.0418277
0 -0.002704 0.036344 0.0424629
0 -0.036454 7.94979e-09 0.0410461
3.28979e-21 -0.023954 0.0275 0.0415158
0 -0.027704 0.02375 0.0413698
1.0842e-19 -0.032704 0.0162494 0.041188
0 -0.036454 0.00233887 0.0410502
2.1684e-19 0.034796 0.011217 0.0446253
-1.0842e-19 0.029796 0.02125 0.0442949
0 -0.022704 0.0287506 0.0415651
0 0.021046 0.0300012 0.0437462
1.0842e-19 0.004796 0.036344 0.0428414
-3.54881e-20 -0.028954 0.0225 0.0413227
0 -0.005204 0.036344 0.0423411
0 -0.036454 0.00453149 0.0410532
3.64346e-20 0.033546 0.0149988 0.0445437
-1.07127e-20 0.011046 0.0350537 0.043175
0 -0.036454 0.00479858 0.0410536
6.69244e-20 0.036046 0.00736572 0.0447014
1.38319e-19 -0.011454 0.0350537 0.042049
-2.1684e-19 0.014796 0.0337829 0.0433824
0 -0.021454 0.0300012 0.0416157
-1.0842e-19 -0.030204 0.02125 0.0412754
1.58401e-19 0.031046 0.02 0.0443756
1.0842e-19 -0.035204 0.011217 0.041099
2.1684e-19 0.019796 0.0312567 0.0436702
0 0.0177167 0.0325122 0.0435492
1.0842e-19 -0.015204 0.0337829 0.0418807
0 0.007296 0.036344 0.042972
0 -0.033954 0.0149988 0.0411424
0 -0.007704 0.036344 0.0422215
0 -0.036454 0.00736572 0.0410535
1.0842e-19 -0.020204 0.0312567 0.0416663
8.08456e-20 -0.031454 0.02 0.0412293