# p  POINT_DATA 24995
# x  y  z  p
-7.89225e-09 0 0 0.0426518
0.00104601 -5.42101e-20 0 0.0425401
-0.00104602 1.0842e-19 0 0.0427625
0.00145399 -1.0842e-19 0 0.0424963
-0.001454 1.0842e-19 0 0.0428054
0.00125 -2.25875e-20 0.00116943 0.0425185
-0.00125 0 0.00116944 0.0427843
-2.4659e-10 1.0842e-19 0.00233887 0.0426561
-0.00250001 0 0 0.0429146
0.00250001 1.0842e-19 0 0.0423832
-0.0025 1.0842e-19 0.00233887 0.0429189
0.00250001 0 0.00233887 0.0423876
-0.00354601 -2.71051e-20 0 0.0430229
0.00354603 -5.42101e-20 0 0.042269
-0.00125 1.807e-20 0.00356873 0.0427923
0.00125 4.51751e-21 0.00356872 0.0425268
-0.00375 1.807e-20 0.00116944 0.0430442
0.00375001 -9.03502e-21 0.00116943 0.042247
-0.00395399 -2.71051e-20 0 0.0430649
0.003954 -5.42101e-20 0 0.0422242
3.27698e-10 1.0842e-19 0.00479858 0.04266
-0.00499999 0 0 0.0431718
0.00500002 1.0842e-19 0 0.0421086
-0.00375 9.03502e-21 0.00356873 0.0430522
0.00375 9.03502e-21 0.00356873 0.0422554
-0.0025 1.0842e-19 0.00479858 0.0429227
0.0025 1.0842e-19 0.00479858 0.0423915
-0.005 1.0842e-19 0.00233887 0.0431761
0.00500001 0 0.00233887 0.0421131
-0.006046 0 0 0.0432779
0.00604603 0 0 0.0419919
-0.00125 9.03502e-21 0.00608215 0.0427917
0.00125 0 0.00608215 0.042526
-0.00625 9.03502e-21 0.00116944 0.0432988
0.00625001 1.807e-20 0.00116944 0.0419694
-0.00645398 0 0 0.043319
0.006454 0 0 0.0419462
0.005 1.0842e-19 0.00479858 0.0421171
-0.005 1.0842e-19 0.00479858 0.0431798
0.00375 -9.03502e-21 0.00608215 0.0422547
-0.00375 -9.03502e-21 0.00608215 0.0430515
-0.00625 2.71051e-20 0.00356872 0.0433066
0.00625 9.03502e-21 0.00356873 0.0419779
9.90286e-11 1.0842e-19 0.00736572 0.0426604
-0.00749999 0 0 0.0434237
0.00750001 1.0842e-19 0 0.0418279
0.0025 1.0842e-19 0.00736572 0.0423919
-0.0025 1.0842e-19 0.00736572 0.0429231
-0.0075 1.0842e-19 0.00233887 0.0434279
0.0075 0 0.00233887 0.0418325
-0.00854601 0 0 0.0435276
0.00854602 0 0 0.0417087
0.00625 9.03502e-21 0.00608215 0.0419771
-0.00625 -9.03502e-21 0.00608215 0.0433059
-0.00125 0 0.008656 0.0427933
0.00125 3.61401e-20 0.00865601 0.0425278
-0.00875 0 0.00116943 0.0435481
0.00875 0 0.00116944 0.0416857
0.005 1.0842e-19 0.00736572 0.0421176
-0.005 1.0842e-19 0.00736572 0.0431802
0.0075 1.0842e-19 0.00479858 0.0418366
-0.0075 1.0842e-19 0.00479858 0.0434315
0.00895398 0 0 0.0416619
-0.00895399 2.71051e-20 0 0.0435678
0.00375 0 0.008656 0.0422564
-0.00375 -1.807e-20 0.008656 0.0430532
0.00875 1.807e-20 0.00356872 0.0416942
-0.00875 1.807e-20 0.00356872 0.0435557
4.41108e-12 1.0842e-19 0.00994629 0.0426602
0.00999999 1.0842e-19 0 0.041541
-0.01 1.0842e-19 0 0.0436704
0.0025 1.0842e-19 0.00994629 0.0423918
-0.0025 1.0842e-19 0.00994629 0.0429228
-0.01 0 0.00233887 0.0436745
0.01 0 0.00233887 0.0415457
0.0075 1.0842e-19 0.00736572 0.041837
-0.0075 1.0842e-19 0.00736572 0.0434319
0.00875 2.71051e-20 0.00608215 0.0416935
-0.00875 9.03502e-21 0.00608215 0.0435551
-0.00625 -9.03502e-21 0.008656 0.0433076
0.00625 -9.03502e-21 0.008656 0.041979
0.011046 -2.71051e-20 0 0.041419
-0.011046 5.42101e-20 0 0.0437722
0.01 1.0842e-19 0.00479858 0.0415498
-0.01 1.0842e-19 0.00479858 0.0436781
0.005 1.0842e-19 0.00994629 0.0421174
-0.005 1.0842e-19 0.00994629 0.0431799
-0.00125 -9.03502e-21 0.011217 0.042791
0.00125 0 0.011217 0.0425255
0.01125 -9.03502e-21 0.00116943 0.0413955
-0.01125 -9.03502e-21 0.00116944 0.0437922
0.011454 -2.71051e-20 0 0.0413712
-0.011454 5.42101e-20 0 0.0438116
0.01125 -9.03502e-21 0.00356872 0.0414043
-0.01125 0 0.00356872 0.0437998
0.00375 9.03502e-21 0.011217 0.0422541
-0.00375 2.71051e-20 0.011217 0.0430508
-0.00875 9.03502e-21 0.008656 0.0435566
0.00875 0 0.00865601 0.0416954
0.01 1.0842e-19 0.00736572 0.0415502
-0.01 1.0842e-19 0.00736572 0.0436785
0.0075 1.0842e-19 0.00994629 0.0418369
-0.0075 1.0842e-19 0.00994629 0.0434316
-3.39195e-12 1.0842e-19 0.0124878 0.0426572
0.0125 1.0842e-19 0 0.0412476
-0.0125 1.0842e-19 0 0.0439121
0.0125 0 0.00233887 0.0412523
-0.0125 0 0.00233887 0.0439161
0.0025 1.0842e-19 0.0124878 0.0423887
-0.0025 1.0842e-19 0.0124878 0.0429199
0.01125 1.807e-20 0.00608215 0.0414034
-0.01125 9.03502e-21 0.00608215 0.0437991
0.00625 9.03502e-21 0.011217 0.0419767
-0.00625 2.71051e-20 0.011217 0.0433053
0.0125 1.0842e-19 0.00479858 0.0412564
-0.0125 1.0842e-19 0.00479858 0.0439197
0.005 1.0842e-19 0.0124878 0.0421143
-0.005 1.0842e-19 0.0124878 0.043177
-0.013546 -5.42101e-20 0 0.0440118
0.013546 -5.42101e-20 0 0.0411228
-0.01375 -9.03502e-21 0.00116944 0.0440315
0.01375 9.03502e-21 0.00116944 0.0410987
0.00125 -9.03502e-21 0.0137433 0.0425218
-0.00125 -9.03502e-21 0.0137433 0.0427875
-0.013954 -5.42101e-20 0 0.0440504
0.013954 -5.42101e-20 0 0.0410739
0.01 1.0842e-19 0.00994629 0.0415501
-0.01 1.0842e-19 0.00994629 0.0436782
0.01125 9.03502e-21 0.008656 0.0414053
-0.01125 -9.03502e-21 0.008656 0.0438007
-0.01375 -9.03502e-21 0.00356873 0.0440388
0.01375 9.03502e-21 0.00356872 0.0411076
0.00875 -9.03502e-21 0.011217 0.0416931
-0.00875 -9.03502e-21 0.011217 0.0435543
0.00375 -9.03502e-21 0.0137433 0.0422505
-0.00375 -9.03502e-21 0.0137433 0.0430474
0.0125 1.0842e-19 0.00736572 0.0412568
-0.0125 1.0842e-19 0.00736572 0.04392
0.0075 1.0842e-19 0.0124878 0.0418338
-0.0075 1.0842e-19 0.0124878 0.0434288
-5.62215e-13 1.0842e-19 0.0149988 0.0426524
0.015 1.0842e-19 0 0.0409474
-0.015 1.0842e-19 0 0.0441489
0.01375 1.807e-20 0.00608215 0.0411066
-0.01375 -9.03502e-21 0.00608215 0.0440382
0.00625 1.807e-20 0.0137433 0.0419729
-0.00625 9.03502e-21 0.0137433 0.0433019
0.015 0 0.00233887 0.0409522
-0.015 0 0.00233887 0.0441528
0.0025 1.0842e-19 0.0149988 0.0423839
-0.0025 1.0842e-19 0.0149988 0.0429153
0.015 1.0842e-19 0.00479858 0.0409563
-0.015 1.0842e-19 0.00479858 0.0441563
0.005 1.0842e-19 0.0149988 0.0421094
-0.005 1.0842e-19 0.0149988 0.0431725
0.01125 9.03502e-21 0.011217 0.041403
-0.01125 0 0.011217 0.0437983
0.0125 1.0842e-19 0.00994629 0.0412568
-0.0125 1.0842e-19 0.00994629 0.0439196
0.01 1.0842e-19 0.0124878 0.041547
-0.01 1.0842e-19 0.0124878 0.0436754
0.016046 2.71051e-20 0 0.0408197
-0.016046 2.71051e-20 0 0.0442466
-0.01375 -2.71051e-20 0.008656 0.0440396
0.01375 -9.03502e-21 0.008656 0.0411086
-0.01625 -9.03502e-21 0.00116944 0.0442658
0.01625 0 0.00116943 0.040795
0.00875 -2.71051e-20 0.0137433 0.0416892
-0.00875 9.03502e-21 0.0137433 0.0435511
0.00125 0 0.0162494 0.0425159
-0.00125 1.807e-20 0.0162494 0.0427817
-0.016454 2.71051e-20 0 0.0442844
0.016454 -8.13152e-20 0 0.0407696
0.01625 9.03502e-21 0.00356872 0.0408041
-0.01625 0 0.00356873 0.0442731
-0.00375 1.807e-20 0.0162494 0.0430417
0.00375 -9.03502e-21 0.0162494 0.0422443
0.015 1.0842e-19 0.00736572 0.0409567
-0.015 1.0842e-19 0.00736572 0.0441566
0.0075 1.0842e-19 0.0149988 0.0418287
-0.0075 1.0842e-19 0.0149988 0.0434244
0.01625 -9.03502e-21 0.00608215 0.040803
-0.01625 -9.03502e-21 0.00608215 0.0442724
0.00625 9.03502e-21 0.0162494 0.0419667
-0.00625 -9.03502e-21 0.0162494 0.0432963
-0.0175 -2.1684e-19 0 0.044381
0.0175 -1.0842e-19 0 0.0406402
-1.02399e-14 1.0842e-19 0.0175 0.0426463
-0.0175 0 0.00233887 0.0443848
0.0175 1.0842e-19 0.00233887 0.0406451
0.0125 1.0842e-19 0.0124878 0.0412536
-0.0125 1.0842e-19 0.0124878 0.0439169
0.0025 1.0842e-19 0.0175 0.0423776
-0.0025 1.0842e-19 0.0175 0.0429093
0.01375 -9.03502e-21 0.011217 0.0411064
-0.01375 -9.03502e-21 0.011217 0.0440374
0.01125 -1.807e-20 0.0137433 0.0413991
-0.01125 -9.03502e-21 0.0137433 0.0437951
0.015 1.0842e-19 0.00994629 0.0409567
-0.015 1.0842e-19 0.00994629 0.0441563
0.01 1.0842e-19 0.0149988 0.0415417
-0.01 1.0842e-19 0.0149988 0.0436711
0.0175 1.0842e-19 0.00479858 0.0406493
-0.0175 1.0842e-19 0.00479858 0.0443882
0.005 1.0842e-19 0.0175 0.0421029
-0.005 1.0842e-19 0.0175 0.0431666
0.01625 -9.03502e-21 0.008656 0.040805
-0.01625 9.03502e-21 0.008656 0.0442739
0.00875 -2.71051e-20 0.0162494 0.0416828
-0.00875 -1.807e-20 0.0162494 0.0435456
0.018546 -5.42101e-20 0 0.0405095
-0.018546 -1.35525e-19 0 0.0444767
0.01875 0 0.00116943 0.0404843
-0.01875 0 0.00116944 0.0444955
0.00125 2.71051e-20 0.01875 0.0425095
-0.00125 9.03502e-21 0.01875 0.0427754
-0.018954 -1.35525e-19 0 0.0445138
0.018954 -5.42101e-20 0 0.0404582
0.0175 1.0842e-19 0.00736572 0.0406496
-0.0175 1.0842e-19 0.00736572 0.0443885
0.0075 1.0842e-19 0.0175 0.0418221
-0.0075 1.0842e-19 0.0175 0.0434187
0.01875 1.807e-20 0.00356872 0.0404935
-0.01875 0 0.00356873 0.0445027
0.00375 -1.807e-20 0.01875 0.0422377
-0.00375 9.03502e-21 0.01875 0.0430356
0.01375 -9.03502e-21 0.0137433 0.0411024
-0.01375 -9.03502e-21 0.0137433 0.0440343
0.015 1.0842e-19 0.0124878 0.0409535
-0.015 1.0842e-19 0.0124878 0.0441536
0.0125 1.0842e-19 0.0149988 0.0412482
-0.0125 1.0842e-19 0.0149988 0.0439127
-0.01875 1.807e-20 0.00608215 0.0445021
0.01875 -1.807e-20 0.00608215 0.0404924
-0.01625 -2.71051e-20 0.011217 0.0442716
0.01625 -1.807e-20 0.011217 0.0408029
0.01125 -1.807e-20 0.0162494 0.0413924
-0.01125 -1.807e-20 0.0162494 0.0437898
-0.00625 9.03502e-21 0.01875 0.0432904
0.00625 -1.807e-20 0.01875 0.0419599
-0.02 -2.1684e-19 0 0.0446084
0.02 -1.0842e-19 0 0.0403258
-1.024e-14 1.0842e-19 0.02 0.0426396
0.0175 1.0842e-19 0.00994629 0.0406496
-0.0175 1.0842e-19 0.00994629 0.0443882
0.02 1.0842e-19 0.00233887 0.0403308
-0.02 0 0.00233887 0.0446122
0.01 1.0842e-19 0.0175 0.0415349
0.0025 1.0842e-19 0.02 0.0423707
-0.0025 1.0842e-19 0.02 0.0429028
-0.01 1.0842e-19 0.0175 0.0436655
0.02 1.0842e-19 0.00479858 0.0403351
-0.02 1.0842e-19 0.00479858 0.0446155
0.005 1.0842e-19 0.02 0.0420958
-0.005 1.0842e-19 0.02 0.0431603
0.01875 9.03502e-21 0.008656 0.0404944
-0.01875 2.71051e-20 0.008656 0.0445034
-0.00875 1.807e-20 0.01875 0.0435398
0.00875 -1.807e-20 0.01875 0.0416758
0.021046 -5.42101e-20 0 0.0401921
-0.021046 -1.35525e-19 0 0.0447022
0.015 1.0842e-19 0.0149988 0.040948
-0.015 1.0842e-19 0.0149988 0.0441495
0.02125 0 0.00116943 0.0401662
-0.02125 0 0.00116944 0.0447207
0.01625 0 0.0137433 0.0407988
-0.01625 2.71051e-20 0.0137433 0.0442686
0.01375 -9.03502e-21 0.0162494 0.0410956
-0.01375 -9.03502e-21 0.0162494 0.0440291
0.00125 1.807e-20 0.02125 0.0425023
-0.00125 -9.03502e-21 0.02125 0.0427685
0.02 1.0842e-19 0.00736572 0.0403353
-0.02 1.0842e-19 0.00736572 0.0446158
0.0075 1.0842e-19 0.02 0.0418147
-0.0075 1.0842e-19 0.02 0.0434125
-0.021454 -1.35525e-19 0 0.0447386
0.021454 -5.42101e-20 0 0.0401396
0.0175 1.0842e-19 0.0124878 0.0406465
-0.0175 1.0842e-19 0.0124878 0.0443856
0.0125 1.0842e-19 0.0175 0.0412412
-0.0125 1.0842e-19 0.0175 0.0439073
0.02125 2.71051e-20 0.00356873 0.0401756
-0.02125 0 0.00356873 0.0447277
-0.00375 1.807e-20 0.02125 0.0430289
0.00375 -9.03502e-21 0.02125 0.0422303
0.01875 -9.03502e-21 0.011217 0.0404923
-0.01875 0 0.011217 0.0445013
-0.01125 1.807e-20 0.01875 0.0437842
0.01125 9.03502e-21 0.01875 0.0413852
0.02125 0 0.00608215 0.0401745
-0.02125 1.807e-20 0.00608215 0.044727
0.00625 -1.807e-20 0.02125 0.0419523
-0.00625 -9.03502e-21 0.02125 0.0432839
0.02 1.0842e-19 0.00994629 0.0403353
-0.02 1.0842e-19 0.00994629 0.0446154
0.01 1.0842e-19 0.02 0.0415273
-0.01 1.0842e-19 0.02 0.0436595
0.0225 -1.0842e-19 0 0.040004
-0.0225 -2.1684e-19 0 0.0448313
-1.02402e-14 1.0842e-19 0.0225 0.0426325
0.0225 1.0842e-19 0.00233887 0.0400092
-0.0225 0 0.00233887 0.044835
0.0025 1.0842e-19 0.0225 0.0423633
-0.0025 1.0842e-19 0.0225 0.0428959
0.02125 9.03502e-21 0.008656 0.0401764
-0.02125 0 0.008656 0.0447284
0.01625 0 0.0162494 0.0407918
-0.01625 -9.03502e-21 0.0162494 0.0442636
-0.00875 9.03502e-21 0.02125 0.0435334
0.00875 2.71051e-20 0.02125 0.0416679
0.0225 1.0842e-19 0.00479858 0.0400134
-0.0225 1.0842e-19 0.00479858 0.0448383
0.0175 1.0842e-19 0.0149988 0.0406408
-0.0175 1.0842e-19 0.0149988 0.0443816
0.005 1.0842e-19 0.0225 0.0420882
-0.005 1.0842e-19 0.0225 0.0431536
0.015 1.0842e-19 0.0175 0.0409408
-0.015 1.0842e-19 0.0175 0.0441442
-0.01875 -1.807e-20 0.0137433 0.0444984
0.01875 -1.807e-20 0.0137433 0.0404881
-0.01375 9.03502e-21 0.01875 0.0440236
0.01375 -1.807e-20 0.01875 0.0410881
0.023546 -2.71051e-20 0 0.0398671
-0.023546 -1.35525e-19 0 0.0449233
0.02 1.0842e-19 0.0124878 0.0403322
-0.02 1.0842e-19 0.0124878 0.0446129
0.0125 1.0842e-19 0.02 0.0412334
-0.0125 1.0842e-19 0.02 0.0439015
0.0225 1.0842e-19 0.00736572 0.0400136
-0.0225 1.0842e-19 0.00736572 0.0448386
0.0075 1.0842e-19 0.0225 0.0418068
-0.0075 1.0842e-19 0.0225 0.043406
0.02375 0 0.00116943 0.0398406
-0.02375 0 0.00116944 0.0449414
0.00125 2.71051e-20 0.02375 0.0424951
-0.00125 -1.807e-20 0.02375 0.0427614
-0.023954 -1.35525e-19 0 0.044959
0.023954 -2.71051e-20 0 0.0398134
0.02375 -2.71051e-20 0.00356873 0.0398503
-0.02375 -9.03502e-21 0.00356873 0.0449483
-0.02125 -9.03502e-21 0.011217 0.0447263
0.02125 -9.03502e-21 0.011217 0.0401743
0.01125 -1.807e-20 0.02125 0.041377
-0.01125 9.03502e-21 0.02125 0.043778
0.00375 -9.03502e-21 0.02375 0.0422228
-0.00375 -9.03502e-21 0.02375 0.043022
-0.02375 -1.807e-20 0.00608215 0.0449477
0.02375 0 0.00608215 0.0398489
0.00625 2.71051e-20 0.02375 0.0419444
-0.00625 -1.807e-20 0.02375 0.0432772
0.0225 1.0842e-19 0.00994629 0.0400136
-0.0225 1.0842e-19 0.00994629 0.0448382
0.01 1.0842e-19 0.0225 0.0415191
-0.01 1.0842e-19 0.0225 0.0436532
0.0175 1.0842e-19 0.0175 0.0406334
-0.0175 1.0842e-19 0.0175 0.0443764
0.01875 9.03502e-21 0.0162494 0.0404809
-0.01875 1.807e-20 0.0162494 0.0444934
0.01625 9.03502e-21 0.01875 0.0407841
-0.01625 9.03502e-21 0.01875 0.0442583
0.02 1.0842e-19 0.0149988 0.0403264
-0.02 1.0842e-19 0.0149988 0.044609
0.015 1.0842e-19 0.02 0.0409327
-0.015 1.0842e-19 0.02 0.0441386
-0.025 -2.1684e-19 0 0.0450499
0.025 -1.0842e-19 0 0.0396746
-1.02403e-14 1.0842e-19 0.025 0.0426253
-0.025 0 0.00233887 0.0450535
0.025 1.0842e-19 0.00233887 0.0396799
0.0025 1.0842e-19 0.025 0.0423559
-0.0025 1.0842e-19 0.025 0.0428889
-0.02375 0 0.008656 0.0449489
0.02375 -1.807e-20 0.00865601 0.0398508
-0.02125 -1.807e-20 0.0137433 0.0447234
0.02125 -1.807e-20 0.0137433 0.04017
0.01375 1.807e-20 0.02125 0.0410796
0.00875 1.807e-20 0.02375 0.0416598
-0.01375 2.71051e-20 0.02125 0.0440177
-0.00875 1.807e-20 0.02375 0.043527
0.025 1.0842e-19 0.00479858 0.0396842
-0.025 1.0842e-19 0.00479858 0.0450567
0.005 1.0842e-19 0.025 0.0420805
-0.005 1.0842e-19 0.025 0.0431469
0.0225 1.0842e-19 0.0124878 0.0400104
-0.0225 1.0842e-19 0.0124878 0.0448358
0.0125 1.0842e-19 0.0225 0.0412249
-0.0125 1.0842e-19 0.0225 0.0438953
0.026046 -5.42101e-20 0 0.0395344
-0.026046 -1.35525e-19 0 0.0451401
0.025 1.0842e-19 0.00736572 0.0396841
-0.025 1.0842e-19 0.00736572 0.045057
0.0075 1.0842e-19 0.025 0.0417988
-0.0075 1.0842e-19 0.025 0.0433995
0.02375 -2.71051e-20 0.011217 0.0398487
-0.02375 -9.03502e-21 0.011217 0.0449469
0.02625 0 0.00116943 0.0395073
-0.02625 1.807e-20 0.00116944 0.0451579
0.00125 9.03502e-21 0.02625 0.0424878
0.01125 -2.71051e-20 0.02375 0.0413686
-0.01125 1.807e-20 0.02375 0.0437718
-0.00125 -9.03502e-21 0.02625 0.0427543
-0.026454 -1.35525e-19 0 0.0451751
0.026454 -5.42101e-20 0 0.0394793
0.02625 -1.807e-20 0.00356873 0.0395172
-0.02625 0 0.00356873 0.0451646
0.00375 -1.807e-20 0.02625 0.0422152
-0.00375 9.03502e-21 0.02625 0.0430152
0.01875 2.71051e-20 0.01875 0.040473
-0.01875 -1.807e-20 0.01875 0.0444882
0.02 1.0842e-19 0.0175 0.0403187
0.0175 1.0842e-19 0.02 0.040625
-0.0175 1.0842e-19 0.02 0.0443709
-0.02 1.0842e-19 0.0175 0.044604
0.02125 9.03502e-21 0.0162494 0.0401627
-0.02125 -9.03502e-21 0.0162494 0.0447186
-0.01625 -1.807e-20 0.02125 0.0442525
0.01625 2.71051e-20 0.02125 0.0407753
0.025 1.0842e-19 0.00994629 0.0396839
-0.025 1.0842e-19 0.00994629 0.0450566
0.01 1.0842e-19 0.025 0.0415108
-0.01 1.0842e-19 0.025 0.0436469
0.02625 -1.807e-20 0.00608215 0.0395155
-0.02625 1.807e-20 0.00608215 0.0451639
0.00625 2.71051e-20 0.02625 0.0419365
-0.00625 -9.03502e-21 0.02625 0.0432707
0.0225 1.0842e-19 0.0149988 0.0400045
-0.0225 1.0842e-19 0.0149988 0.044832
0.015 1.0842e-19 0.0225 0.0409238
-0.015 1.0842e-19 0.0225 0.0441326
0.02375 -1.807e-20 0.0137433 0.0398444
-0.02375 0 0.0137433 0.0449442
0.01375 -1.807e-20 0.02375 0.0410708
-0.01375 -9.03502e-21 0.02375 0.0440116
-0.0275 -2.1684e-19 0 0.0452642
0.0275 -1.0842e-19 0 0.0393372
-1.02403e-14 1.0842e-19 0.0275 0.0426183
-0.0275 0 0.00233887 0.0452678
0.0275 1.0842e-19 0.00233887 0.0393427
0.0025 1.0842e-19 0.0275 0.0423486
-0.0025 1.0842e-19 0.0275 0.0428821
0.02625 9.03502e-21 0.008656 0.0395171
-0.02625 9.03502e-21 0.008656 0.0451652
0.00875 9.03502e-21 0.02625 0.0416515
-0.00875 9.03502e-21 0.02625 0.0435207
0.0275 1.0842e-19 0.00479858 0.039347
-0.0275 1.0842e-19 0.00479858 0.0452709
0.025 1.0842e-19 0.0124878 0.0396808
-0.025 1.0842e-19 0.0124878 0.0450542
0.0125 1.0842e-19 0.025 0.0412162
0.005 1.0842e-19 0.0275 0.0420729
-0.005 1.0842e-19 0.0275 0.0431404
-0.0125 1.0842e-19 0.025 0.0438893
0.02 1.0842e-19 0.02 0.04031
-0.02 1.0842e-19 0.02 0.0445987
0.02125 1.807e-20 0.01875 0.0401545
0.01875 -1.807e-20 0.02125 0.0404639
-0.01875 1.807e-20 0.02125 0.0444826
-0.02125 1.807e-20 0.01875 0.0447136
0.0275 1.0842e-19 0.00736572 0.0393465
-0.0275 1.0842e-19 0.00736572 0.0452711
0.0225 1.0842e-19 0.0175 0.0399966
0.0175 1.0842e-19 0.0225 0.0406158
-0.0175 1.0842e-19 0.0225 0.0443652
-0.0225 1.0842e-19 0.0175 0.0448271
0.0075 1.0842e-19 0.0275 0.0417909
-0.0075 1.0842e-19 0.0275 0.0433932
0.028546 -5.42101e-20 0 0.0391935
-0.028546 -1.35525e-19 0 0.0453527
0.02625 -9.03502e-21 0.011217 0.039515
-0.02625 -9.03502e-21 0.011217 0.0451632
0.01125 -1.807e-20 0.02625 0.04136
-0.01125 9.03502e-21 0.02625 0.0437657
-0.02875 9.03502e-21 0.00116943 0.0453701
0.02875 -9.03502e-21 0.00116943 0.0391658
-0.02375 9.03502e-21 0.0162494 0.0449395
0.02375 9.03502e-21 0.0162494 0.0398368
0.01625 1.807e-20 0.02375 0.0407662
-0.01625 -2.71051e-20 0.02375 0.0442466
-0.00125 9.03502e-21 0.0287506 0.0427476
0.00125 0 0.0287506 0.0424808
-0.028954 -1.35525e-19 0 0.045387
0.028954 -5.42101e-20 0 0.0391371
0.02875 -1.807e-20 0.00356873 0.0391761
-0.02875 1.807e-20 0.00356872 0.0453767
-0.00375 -1.807e-20 0.0287506 0.0430088
0.00375 -1.807e-20 0.0287506 0.042208
0.025 1.0842e-19 0.0149988 0.0396748
-0.025 1.0842e-19 0.0149988 0.0450506
0.015 1.0842e-19 0.025 0.0409148
-0.015 1.0842e-19 0.025 0.0441267
0.0275 1.0842e-19 0.00994629 0.0393462
-0.0275 1.0842e-19 0.00994629 0.0452708
0.01 1.0842e-19 0.0275 0.0415025
-0.01 1.0842e-19 0.0275 0.0436408
0.02875 -9.03502e-21 0.00608215 0.0391741
-0.02875 9.03502e-21 0.00608215 0.0453761
0.00625 9.03502e-21 0.0287506 0.0419289
-0.00625 -1.807e-20 0.0287506 0.0432644
0.02625 9.03502e-21 0.0137433 0.0395107
-0.02625 -1.807e-20 0.0137433 0.0451605
0.01375 -1.807e-20 0.02625 0.0410619
-0.01375 1.807e-20 0.02625 0.0440056
-0.03 -2.1684e-19 0 0.0454744
0.03 -1.0842e-19 0 0.0389915
-1.49751e-13 1.0842e-19 0.0300012 0.0426117
0.02875 -9.03502e-21 0.008656 0.0391752
-0.02875 -1.807e-20 0.008656 0.0453772
0.02125 1.807e-20 0.02125 0.040145
-0.02125 1.807e-20 0.02125 0.0447081
0.00875 9.03502e-21 0.0287506 0.0416437
-0.00875 -1.807e-20 0.0287506 0.0435146
-0.03 0 0.00233887 0.0454779
0.03 1.0842e-19 0.00233887 0.0389972
0.0225 1.0842e-19 0.02 0.0399876
0.02 1.0842e-19 0.0225 0.0403005
-0.02 1.0842e-19 0.0225 0.0445931
-0.0225 1.0842e-19 0.02 0.0448219
0.0025 1.0842e-19 0.0300012 0.0423417
-0.0025 1.0842e-19 0.0300012 0.0428758
0.0275 1.0842e-19 0.0124878 0.039343
-0.0275 1.0842e-19 0.0124878 0.0452684
0.0125 1.0842e-19 0.0275 0.0412075
-0.0125 1.0842e-19 0.0275 0.0438834
0.02375 9.03502e-21 0.01875 0.0398284
0.01875 1.807e-20 0.02375 0.0404544
-0.02375 -1.807e-20 0.01875 0.0449346
-0.01875 9.03502e-21 0.02375 0.0444769
0.03 1.0842e-19 0.00479858 0.0390016
-0.03 1.0842e-19 0.00479858 0.0454809
0.005 1.0842e-19 0.0300012 0.0420657
-0.005 1.0842e-19 0.0300012 0.0431342
0.025 1.0842e-19 0.0175 0.0396667
0.0175 1.0842e-19 0.025 0.0406064
-0.0175 1.0842e-19 0.025 0.0443595
-0.025 1.0842e-19 0.0175 0.0450458
0.02875 2.71051e-20 0.011217 0.039173
-0.02875 -9.03502e-21 0.011217 0.0453753
-0.02625 -9.03502e-21 0.0162494 0.0451559
0.02625 1.807e-20 0.0162494 0.039503
0.01625 -1.807e-20 0.02625 0.0407568
-0.01625 2.71051e-20 0.02625 0.0442409
0.01125 9.03502e-21 0.0287506 0.0413518
-0.01125 -1.807e-20 0.0287506 0.0437598
0.03 1.0842e-19 0.00736572 0.0390006
-0.03 1.0842e-19 0.00736572 0.0454811
0.0075 1.0842e-19 0.0300012 0.0417834
-0.0075 1.0842e-19 0.0300012 0.0433872
0.031046 0 0 0.0388443
-0.031046 -1.35525e-19 0 0.0455612
0.03125 9.03502e-21 0.00116943 0.0388158
-0.03125 9.03502e-21 0.00116943 0.0455783
-0.00125 -9.03502e-21 0.0312567 0.0427413
0.00125 -2.71051e-20 0.0312567 0.0424743
0.0275 1.0842e-19 0.0149988 0.039337
-0.0275 1.0842e-19 0.0149988 0.0452649
0.015 1.0842e-19 0.0275 0.0409057
-0.015 1.0842e-19 0.0275 0.044121
-0.03125 1.807e-20 0.00356872 0.0455847
0.03125 -2.71051e-20 0.00356872 0.0388267
-0.031454 -1.35525e-19 0 0.0455948
0.031454 0 0 0.0387864
0.00375 9.03502e-21 0.0312567 0.0422011
-0.00375 9.03502e-21 0.0312567 0.0430027
0.03 1.0842e-19 0.00994629 0.0389999
-0.03 1.0842e-19 0.00994629 0.0454808
0.01 1.0842e-19 0.0300012 0.0414946
-0.01 1.0842e-19 0.0300012 0.043635
0.0225 1.0842e-19 0.0225 0.0399777
-0.0225 1.0842e-19 0.0225 0.0448165
0.03125 -9.03502e-21 0.00608215 0.0388242
-0.03125 -9.03502e-21 0.00608215 0.045584
-0.02875 9.03502e-21 0.0137433 0.0453727
0.02875 9.03502e-21 0.0137433 0.0391688
0.02125 9.03502e-21 0.02375 0.0401351
0.02375 -9.03502e-21 0.02125 0.0398186
-0.02125 9.03502e-21 0.02375 0.0447026
-0.02375 0 0.02125 0.0449293
0.01375 9.03502e-21 0.0287506 0.0410532
-0.01375 -9.03502e-21 0.0287506 0.044
0.00625 -9.03502e-21 0.0312567 0.0419218
-0.00625 -9.03502e-21 0.0312567 0.0432585
0.02 1.0842e-19 0.025 0.0402906
0.025 1.0842e-19 0.02 0.0396574
-0.02 1.0842e-19 0.025 0.0445876
-0.025 1.0842e-19 0.02 0.0450408
-0.01875 0 0.02625 0.0444713
0.01875 0 0.02625 0.0404446
0.02625 2.71051e-20 0.01875 0.0394943
-0.02625 -2.71051e-20 0.01875 0.0451512
-0.03125 9.03502e-21 0.008656 0.0455852
0.03125 -9.03502e-21 0.00865601 0.0388247
0.00875 -1.807e-20 0.0312567 0.0416361
-0.00875 9.03502e-21 0.0312567 0.043509
0.03 1.0842e-19 0.0124878 0.0389967
-0.03 1.0842e-19 0.0124878 0.0454785
-0.0325 -2.1684e-19 0 0.0456805
0.0325 0 0 0.0386372
0.0125 1.0842e-19 0.0300012 0.0411992
-0.0125 1.0842e-19 0.0300012 0.0438778
-7.80544e-12 1.0842e-19 0.0325122 0.0426056
-0.0325 0 0.00233887 0.0456839
0.0325 1.0842e-19 0.00233887 0.0386432
0.0275 1.0842e-19 0.0175 0.0393286
0.0175 1.0842e-19 0.0275 0.0405969
-0.0175 1.0842e-19 0.0275 0.044354
-0.0275 1.0842e-19 0.0175 0.0452603
0.0025 1.0842e-19 0.0325122 0.0423354
-0.0025 1.0842e-19 0.0325122 0.0428699
0.0325 1.0842e-19 0.00479858 0.0386475
-0.0325 1.0842e-19 0.00479858 0.0456869
0.005 1.0842e-19 0.0325122 0.042059
-0.005 1.0842e-19 0.0325122 0.0431285
0.02875 0 0.0162494 0.0391609
-0.02875 -2.71051e-20 0.0162494 0.0453683
-0.01625 -9.03502e-21 0.0287506 0.0442354
0.01625 -9.03502e-21 0.0287506 0.0407477
-0.03125 -2.71051e-20 0.011217 0.0455832
0.03125 9.03502e-21 0.011217 0.0388223
0.01125 -1.807e-20 0.0312567 0.0413439
-0.01125 -2.71051e-20 0.0312567 0.0437544
0.0325 1.0842e-19 0.00736572 0.0386459
-0.0325 1.0842e-19 0.00736572 0.0456871
0.0075 1.0842e-19 0.0325122 0.0417764
-0.0075 1.0842e-19 0.0325122 0.0433818
0.03 1.0842e-19 0.0149988 0.0389907
-0.03 1.0842e-19 0.0149988 0.045475
0.015 1.0842e-19 0.0300012 0.040897
-0.015 1.0842e-19 0.0300012 0.0441157
0.033546 -2.71051e-20 0 0.0384863
-0.033546 -1.35525e-19 0 0.0457656
0.02375 1.807e-20 0.02375 0.0398082
-0.02375 2.71051e-20 0.02375 0.0449239
0.0225 1.0842e-19 0.025 0.0399673
0.025 1.0842e-19 0.0225 0.0396471
-0.0225 1.0842e-19 0.025 0.0448112
-0.025 1.0842e-19 0.0225 0.0450355
0.03375 -9.03502e-21 0.00116943 0.0384571
-0.03375 2.71051e-20 0.00116944 0.0457823
0.02125 -1.807e-20 0.02625 0.0401249
0.02625 -1.807e-20 0.02125 0.0394841
-0.02125 1.807e-20 0.02625 0.0446973
-0.02625 1.807e-20 0.02125 0.0451461
-0.00125 -3.61401e-20 0.0337829 0.0427357
0.00125 -2.71051e-20 0.033783 0.0424683
0.03375 -1.807e-20 0.00356872 0.0384685
-0.03375 -9.03502e-21 0.00356873 0.0457887
-0.033954 -1.35525e-19 0 0.0457985
0.033954 1.0842e-19 0 0.038427
0.0325 1.0842e-19 0.00994629 0.0386448
-0.0325 1.0842e-19 0.00994629 0.0456867
-0.00375 1.807e-20 0.0337829 0.0429973
0.00375 -1.807e-20 0.033783 0.042195
0.02 1.0842e-19 0.0275 0.0402807
0.0275 1.0842e-19 0.02 0.039319
-0.02 1.0842e-19 0.0275 0.0445823
-0.0275 1.0842e-19 0.02 0.0452554
0.01 1.0842e-19 0.0325122 0.0414873
-0.01 1.0842e-19 0.0325122 0.0436298
0.03125 -1.807e-20 0.0137433 0.0388182
-0.03125 9.03502e-21 0.0137433 0.0455807
0.01375 9.03502e-21 0.0312567 0.0410449
-0.01375 9.03502e-21 0.0312567 0.0439947
0.03375 -9.03502e-21 0.00608215 0.0384654
-0.03375 1.807e-20 0.00608215 0.045788
0.02875 -1.807e-20 0.01875 0.039152
-0.02875 2.71051e-20 0.01875 0.0453636
-0.01875 -1.807e-20 0.0287506 0.0444661
0.01875 -1.807e-20 0.0287506 0.040435
0.00625 -1.807e-20 0.0337829 0.0419154
-0.00625 2.71051e-20 0.0337829 0.0432533
0.03 1.0842e-19 0.0175 0.0389822
-0.03 1.0842e-19 0.0175 0.0454705
0.0175 1.0842e-19 0.0300012 0.0405877
-0.0175 1.0842e-19 0.0300012 0.0443488
0.0325 1.0842e-19 0.0124878 0.0386416
-0.0325 1.0842e-19 0.0124878 0.0456845
0.0125 1.0842e-19 0.0325122 0.0411915
-0.0125 1.0842e-19 0.0325122 0.0438727
-0.03375 -9.03502e-21 0.008656 0.0457891
0.03375 -9.03502e-21 0.00865601 0.0384652
-0.00875 -1.807e-20 0.0337829 0.043504
0.00875 -1.807e-20 0.0337829 0.0416293
-0.035 -2.1684e-19 0 0.0458826
0.035 0 0 0.038274
-7.51186e-11 1.0842e-19 0.0350537 0.0426002
-0.035 0 0.00233887 0.045886
0.035 1.0842e-19 0.00233887 0.0382803
0.0025 1.0842e-19 0.0350537 0.0423297
-0.0025 1.0842e-19 0.0350537 0.0428647
0.03125 -1.807e-20 0.0162494 0.0388102
-0.03125 -1.807e-20 0.0162494 0.0455764
0.01625 0 0.0312567 0.040739
-0.01625 9.03502e-21 0.0312567 0.0442304
0.035 1.0842e-19 0.00479858 0.0382845
-0.035 1.0842e-19 0.00479858 0.0458889
0.025 1.0842e-19 0.025 0.0396362
-0.025 1.0842e-19 0.025 0.0450304
0.02375 9.03502e-21 0.02625 0.0397974
0.02625 2.71051e-20 0.02375 0.0394733
-0.02375 9.03502e-21 0.02625 0.0449187
-0.02625 -2.71051e-20 0.02375 0.0451409
0.005 1.0842e-19 0.0350537 0.0420531
-0.005 1.0842e-19 0.0350537 0.0431236
0.0225 1.0842e-19 0.0275 0.0399569
0.0275 1.0842e-19 0.0225 0.0393083
-0.0225 1.0842e-19 0.0275 0.044806
-0.0275 1.0842e-19 0.0225 0.0452503
0.03375 9.03502e-21 0.011217 0.0384625
-0.03375 -9.03502e-21 0.011217 0.0457872
-0.01125 -1.807e-20 0.0337829 0.0437496
0.01125 1.807e-20 0.0337829 0.0413368
0.02875 1.807e-20 0.02125 0.0391414
-0.02875 1.807e-20 0.02125 0.0453586
0.02125 -1.807e-20 0.0287506 0.0401147
-0.02125 1.807e-20 0.0287506 0.0446922
0.035 1.0842e-19 0.00736572 0.0382821
-0.035 1.0842e-19 0.00736572 0.0458891
0.0325 1.0842e-19 0.0149988 0.0386355
-0.0325 1.0842e-19 0.0149988 0.0456811
0.015 1.0842e-19 0.0325122 0.0408889
-0.015 1.0842e-19 0.0325122 0.0441108
0.0075 1.0842e-19 0.0350537 0.0417702
-0.0075 1.0842e-19 0.0350537 0.043377
0.036046 8.13152e-20 0 0.0381192
-0.036046 8.13152e-20 0 0.0459661
0.03 1.0842e-19 0.02 0.0389723
-0.03 1.0842e-19 0.02 0.0454657
0.02 1.0842e-19 0.0300012 0.0402711
-0.02 1.0842e-19 0.0300012 0.0445773
0.03625 -1.807e-20 0.00116944 0.0380893
-0.03625 -9.03502e-21 0.00116944 0.0459825
-0.00125 0 0.036344 0.0427308
0.00125 9.03502e-21 0.036344 0.0424633
0.035 1.0842e-19 0.00994629 0.0382805
-0.035 1.0842e-19 0.00994629 0.0458887
0.03625 9.03502e-21 0.00356872 0.0381013
-0.03625 0 0.00356873 0.0459887
0.03375 -1.807e-20 0.0137433 0.0384584
-0.03375 0 0.0137433 0.0457848
0.03125 9.03502e-21 0.01875 0.0388011
-0.03125 9.03502e-21 0.01875 0.0455719
-0.01875 9.03502e-21 0.0312567 0.0444612
0.01875 -1.807e-20 0.0312567 0.0404258
0.01 1.0842e-19 0.0350537 0.0414808
-0.01 1.0842e-19 0.0350537 0.0436252
-0.036454 8.13152e-20 0 0.0459984
0.036454 8.13152e-20 0 0.0380584
0.01375 -1.807e-20 0.0337829 0.0410375
-0.01375 -9.03502e-21 0.0337829 0.0439901
0.00375 9.03502e-21 0.036344 0.0421896
-0.00375 0 0.036344 0.0429925
0.03625 -9.03502e-21 0.00608215 0.0380971
-0.03625 1.807e-20 0.00608215 0.0459881
0.00625 9.03502e-21 0.036344 0.0419097
-0.00625 -1.807e-20 0.036344 0.0432488
0.0325 1.0842e-19 0.0175 0.0386269
-0.0325 1.0842e-19 0.0175 0.0456767
0.0175 1.0842e-19 0.0325122 0.0405792
-0.0175 1.0842e-19 0.0325122 0.0443441
-0.02625 1.807e-20 0.02625 0.0451359
0.02625 2.71051e-20 0.02625 0.0394619
0.035 1.0842e-19 0.0124878 0.0382771
-0.035 1.0842e-19 0.0124878 0.0458865
0.0275 1.0842e-19 0.025 0.0392969
0.025 1.0842e-19 0.0275 0.0396251
-0.025 1.0842e-19 0.0275 0.0450254
-0.0275 1.0842e-19 0.025 0.0452453
0.0125 1.0842e-19 0.0350537 0.0411847
-0.0125 1.0842e-19 0.0350537 0.0438683
-0.03625 -9.03502e-21 0.008656 0.0459892
0.03625 0 0.00865601 0.0380962
0.02875 -9.03502e-21 0.02375 0.03913
-0.02875 9.03502e-21 0.02375 0.0453536
0.02375 2.71051e-20 0.0287506 0.0397867
-0.02375 -9.03502e-21 0.0287506 0.0449138
0.00875 0 0.036344 0.0416234
-0.00875 9.03502e-21 0.036344 0.0434996
-0.03375 -1.807e-20 0.0162494 0.0457806
0.03375 2.71051e-20 0.0162494 0.0384505
0.01625 9.03502e-21 0.0337829 0.0407311
-0.01625 -1.807e-20 0.0337829 0.0442259
-0.0375 1.0842e-19 0 0.0460809
0.0375 -1.0842e-19 0 0.0379014
0.03 1.0842e-19 0.0225 0.038961
-0.03 1.0842e-19 0.0225 0.0454608
0.0225 1.0842e-19 0.0300012 0.0399467
-0.0225 1.0842e-19 0.0300012 0.0448012
-0.0375 0 0.00233887 0.0460842
0.0375 1.0842e-19 0.00233887 0.0379081
-3.91332e-10 1.0842e-19 0.0376343 0.0425959
0.0025 1.0842e-19 0.0376343 0.0423253
-0.0025 1.0842e-19 0.0376343 0.0428606
-0.03125 1.807e-20 0.02125 0.045567
0.03125 9.03502e-21 0.02125 0.0387901
0.02125 -1.807e-20 0.0312567 0.0401051
-0.02125 1.807e-20 0.0312567 0.0446875
0.0375 1.0842e-19 0.00479858 0.037912
-0.0375 1.0842e-19 0.00479858 0.0460871
0.03625 9.03502e-21 0.011217 0.0380934
-0.03625 9.03502e-21 0.011217 0.0459872
0.005 1.0842e-19 0.0376343 0.0420484
-0.005 1.0842e-19 0.0376343 0.0431197
0.01125 0 0.036344 0.0413306
-0.01125 2.71051e-20 0.036344 0.0437453
0.035 1.0842e-19 0.0149988 0.0382712
-0.035 1.0842e-19 0.0149988 0.0458832
0.015 1.0842e-19 0.0350537 0.0408817
-0.015 1.0842e-19 0.0350537 0.0441065
0.0325 1.0842e-19 0.02 0.0386167
-0.0325 1.0842e-19 0.02 0.0456721