# pMean  POINT_DATA 24995
# x  y  z  pMean
-7.89225e-09 0 0 0.0406497
0.00104601 -5.42101e-20 0 0.0405367
-0.00104602 1.0842e-19 0 0.0407617
0.00145399 -1.0842e-19 0 0.0404924
-0.001454 1.0842e-19 0 0.0408051
0.00125 -2.25875e-20 0.00116943 0.0405148
-0.00125 0 0.00116944 0.0407837
-2.4659e-10 1.0842e-19 0.00233887 0.0406538
-0.00250001 0 0 0.0409158
0.00250001 1.0842e-19 0 0.040378
-0.0025 1.0842e-19 0.00233887 0.0409198
0.00250001 0 0.00233887 0.040382
-0.00354601 -2.71051e-20 0 0.0410255
0.00354603 -5.42101e-20 0 0.0402625
-0.00125 1.807e-20 0.00356873 0.0407912
0.00125 4.51751e-21 0.00356872 0.0405224
-0.00375 1.807e-20 0.00116944 0.041047
0.00375001 -9.03502e-21 0.00116943 0.0402402
-0.00395399 -2.71051e-20 0 0.0410679
0.003954 -5.42101e-20 0 0.0402172
3.27698e-10 1.0842e-19 0.00479858 0.0406565
-0.00499999 0 0 0.0411763
0.00500002 1.0842e-19 0 0.0401003
-0.00375 9.03502e-21 0.00356873 0.0410545
0.00375 9.03502e-21 0.00356873 0.0402476
-0.0025 1.0842e-19 0.00479858 0.0409227
0.0025 1.0842e-19 0.00479858 0.0403845
-0.005 1.0842e-19 0.00233887 0.0411803
0.00500001 0 0.00233887 0.0401044
-0.006046 0 0 0.0412837
0.00604603 0 0 0.0399823
-0.00125 9.03502e-21 0.00608215 0.040789
0.00125 0 0.00608215 0.0405198
-0.00625 9.03502e-21 0.00116944 0.0413048
0.00625001 1.807e-20 0.00116944 0.0399595
-0.00645398 0 0 0.0413252
0.006454 0 0 0.0399361
0.005 1.0842e-19 0.00479858 0.0401066
-0.005 1.0842e-19 0.00479858 0.0411833
0.00375 -9.03502e-21 0.00608215 0.0402445
-0.00375 -9.03502e-21 0.00608215 0.0410528
-0.00625 2.71051e-20 0.00356872 0.0413121
0.00625 9.03502e-21 0.00356873 0.0399669
9.90286e-11 1.0842e-19 0.00736572 0.040655
-0.00749999 0 0 0.0414313
0.00750001 1.0842e-19 0 0.0398166
0.0025 1.0842e-19 0.00736572 0.0403825
-0.0025 1.0842e-19 0.00736572 0.0409217
-0.0075 1.0842e-19 0.00233887 0.0414352
0.0075 0 0.00233887 0.0398207
-0.00854601 0 0 0.0415365
0.00854602 0 0 0.0396961
0.00625 9.03502e-21 0.00608215 0.0399634
-0.00625 -9.03502e-21 0.00608215 0.0413108
-0.00125 0 0.008656 0.040789
0.00125 3.61401e-20 0.00865601 0.0405192
-0.00875 0 0.00116943 0.0415571
0.00875 0 0.00116944 0.0396728
0.005 1.0842e-19 0.00736572 0.0401043
-0.005 1.0842e-19 0.00736572 0.0411827
0.0075 1.0842e-19 0.00479858 0.0398227
-0.0075 1.0842e-19 0.00479858 0.0414384
0.00895398 0 0 0.0396488
-0.00895399 2.71051e-20 0 0.0415771
0.00375 0 0.008656 0.0402436
-0.00375 -1.807e-20 0.008656 0.0410532
0.00875 1.807e-20 0.00356872 0.0396801
-0.00875 1.807e-20 0.00356872 0.0415644
4.41108e-12 1.0842e-19 0.00994629 0.0406533
0.00999999 1.0842e-19 0 0.0395267
-0.01 1.0842e-19 0 0.0416809
0.0025 1.0842e-19 0.00994629 0.0403805
-0.0025 1.0842e-19 0.00994629 0.0409203
-0.01 0 0.00233887 0.0416848
0.01 0 0.00233887 0.0395308
0.0075 1.0842e-19 0.00736572 0.03982
-0.0075 1.0842e-19 0.00736572 0.041438
0.00875 2.71051e-20 0.00608215 0.0396763
-0.00875 9.03502e-21 0.00608215 0.0415633
-0.00625 -9.03502e-21 0.008656 0.0413115
0.00625 -9.03502e-21 0.008656 0.0399623
0.011046 -2.71051e-20 0 0.0394035
-0.011046 5.42101e-20 0 0.0417839
0.01 1.0842e-19 0.00479858 0.0395326
-0.01 1.0842e-19 0.00479858 0.041688
0.005 1.0842e-19 0.00994629 0.0401019
-0.005 1.0842e-19 0.00994629 0.0411816
-0.00125 -9.03502e-21 0.011217 0.0407859
0.00125 0 0.011217 0.040516
0.01125 -9.03502e-21 0.00116943 0.0393796
-0.01125 -9.03502e-21 0.00116944 0.0418041
0.011454 -2.71051e-20 0 0.0393551
-0.011454 5.42101e-20 0 0.0418238
0.01125 -9.03502e-21 0.00356872 0.0393871
-0.01125 0 0.00356872 0.0418113
0.00375 9.03502e-21 0.011217 0.0402401
-0.00375 2.71051e-20 0.011217 0.0410502
-0.00875 9.03502e-21 0.008656 0.0415642
0.00875 0 0.00865601 0.0396747
0.01 1.0842e-19 0.00736572 0.0395296
-0.01 1.0842e-19 0.00736572 0.0416879
0.0075 1.0842e-19 0.00994629 0.0398174
-0.0075 1.0842e-19 0.00994629 0.0414372
-3.39195e-12 1.0842e-19 0.0124878 0.0406496
0.0125 1.0842e-19 0 0.0392304
-0.0125 1.0842e-19 0 0.0419254
0.0125 0 0.00233887 0.0392344
-0.0125 0 0.00233887 0.0419292
0.0025 1.0842e-19 0.0124878 0.0403766
-0.0025 1.0842e-19 0.0124878 0.0409168
0.01125 1.807e-20 0.00608215 0.0393828
-0.01125 9.03502e-21 0.00608215 0.0418104
0.00625 9.03502e-21 0.011217 0.0399584
-0.00625 2.71051e-20 0.011217 0.0413088
0.0125 1.0842e-19 0.00479858 0.0392361
-0.0125 1.0842e-19 0.00479858 0.0419324
0.005 1.0842e-19 0.0124878 0.0400978
-0.005 1.0842e-19 0.0124878 0.0411783
-0.013546 -5.42101e-20 0 0.0420262
0.013546 -5.42101e-20 0 0.0391043
-0.01375 -9.03502e-21 0.00116944 0.042046
0.01375 9.03502e-21 0.00116944 0.03908
0.00125 -9.03502e-21 0.0137433 0.0405116
-0.00125 -9.03502e-21 0.0137433 0.0407818
-0.013954 -5.42101e-20 0 0.0420652
0.013954 -5.42101e-20 0 0.0390549
0.01 1.0842e-19 0.00994629 0.0395267
-0.01 1.0842e-19 0.00994629 0.0416871
0.01125 9.03502e-21 0.008656 0.0393811
-0.01125 -9.03502e-21 0.008656 0.0418114
-0.01375 -9.03502e-21 0.00356873 0.0420531
0.01375 9.03502e-21 0.00356872 0.0390874
0.00875 -9.03502e-21 0.011217 0.0396706
-0.00875 -9.03502e-21 0.011217 0.0415616
0.00375 -9.03502e-21 0.0137433 0.0402357
-0.00375 -9.03502e-21 0.0137433 0.0410464
0.0125 1.0842e-19 0.00736572 0.0392329
-0.0125 1.0842e-19 0.00736572 0.0419324
0.0075 1.0842e-19 0.0124878 0.0398131
-0.0075 1.0842e-19 0.0124878 0.0414341
-5.62215e-13 1.0842e-19 0.0149988 0.0406448
0.015 1.0842e-19 0 0.0389273
-0.015 1.0842e-19 0 0.0421649
0.01375 1.807e-20 0.00608215 0.0390829
-0.01375 -9.03502e-21 0.00608215 0.0420522
0.00625 1.807e-20 0.0137433 0.0399538
-0.00625 9.03502e-21 0.0137433 0.0413052
0.015 0 0.00233887 0.0389314
-0.015 0 0.00233887 0.0421686
0.0025 1.0842e-19 0.0149988 0.0403718
-0.0025 1.0842e-19 0.0149988 0.0409121
0.015 1.0842e-19 0.00479858 0.038933
-0.015 1.0842e-19 0.00479858 0.0421718
0.005 1.0842e-19 0.0149988 0.0400929
-0.005 1.0842e-19 0.0149988 0.0411737
0.01125 9.03502e-21 0.011217 0.0393766
-0.01125 0 0.011217 0.0418089
0.0125 1.0842e-19 0.00994629 0.0392298
-0.0125 1.0842e-19 0.00994629 0.0419318
0.01 1.0842e-19 0.0124878 0.0395223
-0.01 1.0842e-19 0.0124878 0.0416842
0.016046 2.71051e-20 0 0.0387984
-0.016046 2.71051e-20 0 0.0422637
-0.01375 -2.71051e-20 0.008656 0.0420535
0.01375 -9.03502e-21 0.008656 0.039081
-0.01625 -9.03502e-21 0.00116944 0.0422831
0.01625 0 0.00116943 0.0387735
0.00875 -2.71051e-20 0.0137433 0.039666
-0.00875 9.03502e-21 0.0137433 0.0415582
0.00125 0 0.0162494 0.0405064
-0.00125 1.807e-20 0.0162494 0.0407765
-0.016454 2.71051e-20 0 0.042302
0.016454 -8.13152e-20 0 0.0387479
0.01625 9.03502e-21 0.00356872 0.038781
-0.01625 0 0.00356873 0.04229
-0.00375 1.807e-20 0.0162494 0.0410408
0.00375 -9.03502e-21 0.0162494 0.0402303
0.015 1.0842e-19 0.00736572 0.0389296
-0.015 1.0842e-19 0.00736572 0.0421719
0.0075 1.0842e-19 0.0149988 0.0398081
-0.0075 1.0842e-19 0.0149988 0.0414295
0.01625 -9.03502e-21 0.00608215 0.0387761
-0.01625 -9.03502e-21 0.00608215 0.0422892
0.00625 9.03502e-21 0.0162494 0.0399484
-0.00625 -9.03502e-21 0.0162494 0.0412996
-0.0175 -2.1684e-19 0 0.0423996
0.0175 -1.0842e-19 0 0.0386173
-1.02399e-14 1.0842e-19 0.0175 0.0406394
-0.0175 0 0.00233887 0.0424032
0.0175 1.0842e-19 0.00233887 0.0386215
0.0125 1.0842e-19 0.0124878 0.0392253
-0.0125 1.0842e-19 0.0124878 0.041929
0.0025 1.0842e-19 0.0175 0.0403665
-0.0025 1.0842e-19 0.0175 0.0409066
0.01375 -9.03502e-21 0.011217 0.0390765
-0.01375 -9.03502e-21 0.011217 0.0420511
0.01125 -1.807e-20 0.0137433 0.0393721
-0.01125 -9.03502e-21 0.0137433 0.0418056
0.015 1.0842e-19 0.00994629 0.0389264
-0.015 1.0842e-19 0.00994629 0.0421714
0.01 1.0842e-19 0.0149988 0.0395172
-0.01 1.0842e-19 0.0149988 0.0416798
0.0175 1.0842e-19 0.00479858 0.0386229
-0.0175 1.0842e-19 0.00479858 0.0424063
0.005 1.0842e-19 0.0175 0.0400876
-0.005 1.0842e-19 0.0175 0.0411682
0.01625 -9.03502e-21 0.008656 0.0387744
-0.01625 9.03502e-21 0.008656 0.0422904
0.00875 -2.71051e-20 0.0162494 0.0396605
-0.00875 -1.807e-20 0.0162494 0.0415526
0.018546 -5.42101e-20 0 0.0384854
-0.018546 -1.35525e-19 0 0.0424965
0.01875 0 0.00116943 0.0384598
-0.01875 0 0.00116944 0.0425155
0.00125 2.71051e-20 0.01875 0.040501
-0.00125 9.03502e-21 0.01875 0.040771
-0.018954 -1.35525e-19 0 0.042534
0.018954 -5.42101e-20 0 0.0384336
0.0175 1.0842e-19 0.00736572 0.0386194
-0.0175 1.0842e-19 0.00736572 0.0424064
0.0075 1.0842e-19 0.0175 0.0398029
-0.0075 1.0842e-19 0.0175 0.041424
0.01875 1.807e-20 0.00356872 0.0384675
-0.01875 0 0.00356873 0.0425221
0.00375 -1.807e-20 0.01875 0.0402251
-0.00375 9.03502e-21 0.01875 0.0410354
0.01375 -9.03502e-21 0.0137433 0.0390719
-0.01375 -9.03502e-21 0.0137433 0.0420479
0.015 1.0842e-19 0.0124878 0.0389219
-0.015 1.0842e-19 0.0124878 0.0421686
0.0125 1.0842e-19 0.0149988 0.0392202
-0.0125 1.0842e-19 0.0149988 0.0419247
-0.01875 1.807e-20 0.00608215 0.0425213
0.01875 -1.807e-20 0.00608215 0.0384625
-0.01625 -2.71051e-20 0.011217 0.0422882
0.01625 -1.807e-20 0.011217 0.0387697
0.01125 -1.807e-20 0.0162494 0.0393664
-0.01125 -1.807e-20 0.0162494 0.0418002
-0.00625 9.03502e-21 0.01875 0.0412942
0.00625 -1.807e-20 0.01875 0.0399435
-0.02 -2.1684e-19 0 0.0426296
0.02 -1.0842e-19 0 0.0383001
-1.024e-14 1.0842e-19 0.02 0.0406339
0.0175 1.0842e-19 0.00994629 0.0386163
-0.0175 1.0842e-19 0.00994629 0.042406
0.02 1.0842e-19 0.00233887 0.0383043
-0.02 0 0.00233887 0.0426331
0.01 1.0842e-19 0.0175 0.039512
0.0025 1.0842e-19 0.02 0.0403611
-0.0025 1.0842e-19 0.02 0.0409011
-0.01 1.0842e-19 0.0175 0.0416744
0.02 1.0842e-19 0.00479858 0.0383058
-0.02 1.0842e-19 0.00479858 0.0426361
0.005 1.0842e-19 0.02 0.0400823
-0.005 1.0842e-19 0.02 0.0411627
0.01875 9.03502e-21 0.008656 0.0384606
-0.01875 2.71051e-20 0.008656 0.0425226
-0.00875 1.807e-20 0.01875 0.0415473
0.00875 -1.807e-20 0.01875 0.0396556
0.021046 -5.42101e-20 0 0.0381651
-0.021046 -1.35525e-19 0 0.0427246
0.015 1.0842e-19 0.0149988 0.0389167
-0.015 1.0842e-19 0.0149988 0.0421644
0.02125 0 0.00116943 0.038139
-0.02125 0 0.00116944 0.0427432
0.01625 0 0.0137433 0.0387652
-0.01625 2.71051e-20 0.0137433 0.0422852
0.01375 -9.03502e-21 0.0162494 0.0390662
-0.01375 -9.03502e-21 0.0162494 0.0420426
0.00125 1.807e-20 0.02125 0.0404953
-0.00125 -9.03502e-21 0.02125 0.0407654
0.02 1.0842e-19 0.00736572 0.0383021
-0.02 1.0842e-19 0.00736572 0.0426363
0.0075 1.0842e-19 0.02 0.0397977
-0.0075 1.0842e-19 0.02 0.0414185
-0.021454 -1.35525e-19 0 0.0427613
0.021454 -5.42101e-20 0 0.0381122
0.0175 1.0842e-19 0.0124878 0.0386117
-0.0175 1.0842e-19 0.0124878 0.0424033
0.0125 1.0842e-19 0.0175 0.0392148
-0.0125 1.0842e-19 0.0175 0.0419193
0.02125 2.71051e-20 0.00356873 0.0381468
-0.02125 0 0.00356873 0.0427497
-0.00375 1.807e-20 0.02125 0.0410299
0.00375 -9.03502e-21 0.02125 0.0402195
0.01875 -9.03502e-21 0.011217 0.0384562
-0.01875 0 0.011217 0.0425203
-0.01125 1.807e-20 0.01875 0.041795
0.01125 9.03502e-21 0.01875 0.0393615
0.02125 0 0.00608215 0.0381415
-0.02125 1.807e-20 0.00608215 0.0427489
0.00625 -1.807e-20 0.02125 0.0399379
-0.00625 -9.03502e-21 0.02125 0.0412886
0.02 1.0842e-19 0.00994629 0.0382991
-0.02 1.0842e-19 0.00994629 0.0426358
0.01 1.0842e-19 0.02 0.0395068
-0.01 1.0842e-19 0.02 0.0416689
0.0225 -1.0842e-19 0 0.0379755
-0.0225 -2.1684e-19 0 0.0428551
-1.02402e-14 1.0842e-19 0.0225 0.0406284
0.0225 1.0842e-19 0.00233887 0.0379799
-0.0225 0 0.00233887 0.0428586
0.0025 1.0842e-19 0.0225 0.0403555
-0.0025 1.0842e-19 0.0225 0.0408956
0.02125 9.03502e-21 0.008656 0.0381398
-0.02125 0 0.008656 0.0427502
0.01625 0 0.0162494 0.0387594
-0.01625 -9.03502e-21 0.0162494 0.0422799
-0.00875 9.03502e-21 0.02125 0.0415416
0.00875 2.71051e-20 0.02125 0.0396502
0.0225 1.0842e-19 0.00479858 0.0379813
-0.0225 1.0842e-19 0.00479858 0.0428614
0.0175 1.0842e-19 0.0149988 0.0386064
-0.0175 1.0842e-19 0.0149988 0.0423992
0.005 1.0842e-19 0.0225 0.0400769
-0.005 1.0842e-19 0.0225 0.0411572
0.015 1.0842e-19 0.0175 0.0389113
-0.015 1.0842e-19 0.0175 0.0421592
-0.01875 -1.807e-20 0.0137433 0.0425173
0.01875 -1.807e-20 0.0137433 0.0384515
-0.01375 9.03502e-21 0.01875 0.0420374
0.01375 -1.807e-20 0.01875 0.0390612
0.023546 -2.71051e-20 0 0.0378374
-0.023546 -1.35525e-19 0 0.0429482
0.02 1.0842e-19 0.0124878 0.0382946
-0.02 1.0842e-19 0.0124878 0.0426331
0.0125 1.0842e-19 0.02 0.0392096
-0.0125 1.0842e-19 0.02 0.0419139
0.0225 1.0842e-19 0.00736572 0.0379775
-0.0225 1.0842e-19 0.00736572 0.0428615
0.0075 1.0842e-19 0.0225 0.0397922
-0.0075 1.0842e-19 0.0225 0.0414131
0.02375 0 0.00116943 0.0378106
-0.02375 0 0.00116944 0.0429665
0.00125 2.71051e-20 0.02375 0.04049
-0.00125 -1.807e-20 0.02375 0.0407599
-0.023954 -1.35525e-19 0 0.0429842
0.023954 -2.71051e-20 0 0.0377832
0.02375 -2.71051e-20 0.00356873 0.0378187
-0.02375 -9.03502e-21 0.00356873 0.0429728
-0.02125 -9.03502e-21 0.011217 0.0427479
0.02125 -9.03502e-21 0.011217 0.0381354
0.01125 -1.807e-20 0.02125 0.0393562
-0.01125 9.03502e-21 0.02125 0.0417893
0.00375 -9.03502e-21 0.02375 0.0402142
-0.00375 -9.03502e-21 0.02375 0.0410244
-0.02375 -1.807e-20 0.00608215 0.0429719
0.02375 0 0.00608215 0.0378133
0.00625 2.71051e-20 0.02375 0.0399326
-0.00625 -1.807e-20 0.02375 0.0412832
0.0225 1.0842e-19 0.00994629 0.0379746
-0.0225 1.0842e-19 0.00994629 0.042861
0.01 1.0842e-19 0.0225 0.0395014
-0.01 1.0842e-19 0.0225 0.0416634
0.0175 1.0842e-19 0.0175 0.0386009
-0.0175 1.0842e-19 0.0175 0.042394
0.01875 9.03502e-21 0.0162494 0.0384455
-0.01875 1.807e-20 0.0162494 0.0425123
0.01625 9.03502e-21 0.01875 0.0387542
-0.01625 9.03502e-21 0.01875 0.0422747
0.02 1.0842e-19 0.0149988 0.0382892
-0.02 1.0842e-19 0.0149988 0.0426291
0.015 1.0842e-19 0.02 0.038906
-0.015 1.0842e-19 0.02 0.0421538
-0.025 -2.1684e-19 0 0.0430761
0.025 -1.0842e-19 0 0.0376434
-1.02403e-14 1.0842e-19 0.025 0.040623
-0.025 0 0.00233887 0.0430795
0.025 1.0842e-19 0.00233887 0.0376479
0.0025 1.0842e-19 0.025 0.0403501
-0.0025 1.0842e-19 0.025 0.0408902
-0.02375 0 0.008656 0.042973
0.02375 -1.807e-20 0.00865601 0.0378114
-0.02125 -1.807e-20 0.0137433 0.0427448
0.02125 -1.807e-20 0.0137433 0.0381308
0.01375 1.807e-20 0.02125 0.0390558
0.00875 1.807e-20 0.02375 0.0396447
-0.01375 2.71051e-20 0.02125 0.0420318
-0.00875 1.807e-20 0.02375 0.0415364
0.025 1.0842e-19 0.00479858 0.0376494
-0.025 1.0842e-19 0.00479858 0.0430823
0.005 1.0842e-19 0.025 0.0400714
-0.005 1.0842e-19 0.025 0.0411518
0.0225 1.0842e-19 0.0124878 0.0379701
-0.0225 1.0842e-19 0.0124878 0.0428583
0.0125 1.0842e-19 0.0225 0.0392041
-0.0125 1.0842e-19 0.0225 0.0419084
0.026046 -5.42101e-20 0 0.037502
-0.026046 -1.35525e-19 0 0.0431673
0.025 1.0842e-19 0.00736572 0.0376453
-0.025 1.0842e-19 0.00736572 0.0430822
0.0075 1.0842e-19 0.025 0.0397867
-0.0075 1.0842e-19 0.025 0.0414077
0.02375 -2.71051e-20 0.011217 0.0378073
-0.02375 -9.03502e-21 0.011217 0.0429706
0.02625 0 0.00116943 0.0374747
-0.02625 1.807e-20 0.00116944 0.0431852
0.00125 9.03502e-21 0.02625 0.0404846
0.01125 -2.71051e-20 0.02375 0.0393507
-0.01125 1.807e-20 0.02375 0.0417839
-0.00125 -9.03502e-21 0.02625 0.0407547
-0.026454 -1.35525e-19 0 0.0432026
0.026454 -5.42101e-20 0 0.0374466
0.02625 -1.807e-20 0.00356873 0.0374831
-0.02625 0 0.00356873 0.0431916
0.00375 -1.807e-20 0.02625 0.0402088
-0.00375 9.03502e-21 0.02625 0.0410191
0.01875 2.71051e-20 0.01875 0.0384403
-0.01875 -1.807e-20 0.01875 0.0425072
0.02 1.0842e-19 0.0175 0.0382835
0.0175 1.0842e-19 0.02 0.0385954
-0.0175 1.0842e-19 0.02 0.0423888
-0.02 1.0842e-19 0.0175 0.0426241
0.02125 9.03502e-21 0.0162494 0.0381247
-0.02125 -9.03502e-21 0.0162494 0.04274
-0.01625 -1.807e-20 0.02125 0.0422693
0.01625 2.71051e-20 0.02125 0.0387486
0.025 1.0842e-19 0.00994629 0.0376423
-0.025 1.0842e-19 0.00994629 0.0430816
0.01 1.0842e-19 0.025 0.0394957
-0.01 1.0842e-19 0.025 0.0416581
0.02625 -1.807e-20 0.00608215 0.0374772
-0.02625 1.807e-20 0.00608215 0.0431905
0.00625 2.71051e-20 0.02625 0.039927
-0.00625 -9.03502e-21 0.02625 0.0412779
0.0225 1.0842e-19 0.0149988 0.0379648
-0.0225 1.0842e-19 0.0149988 0.0428544
0.015 1.0842e-19 0.0225 0.0389003
-0.015 1.0842e-19 0.0225 0.0421484
0.02375 -1.807e-20 0.0137433 0.0378027
-0.02375 0 0.0137433 0.0429679
0.01375 -1.807e-20 0.02375 0.0390502
-0.01375 -9.03502e-21 0.02375 0.0420265
-0.0275 -2.1684e-19 0 0.0432927
0.0275 -1.0842e-19 0 0.0373035
-1.02403e-14 1.0842e-19 0.0275 0.0406178
-0.0275 0 0.00233887 0.0432961
0.0275 1.0842e-19 0.00233887 0.0373082
0.0025 1.0842e-19 0.0275 0.0403449
-0.0025 1.0842e-19 0.0275 0.0408851
0.02625 9.03502e-21 0.008656 0.0374752
-0.02625 9.03502e-21 0.008656 0.0431915
0.00875 9.03502e-21 0.02625 0.0396391
-0.00875 9.03502e-21 0.02625 0.0415309
0.0275 1.0842e-19 0.00479858 0.0373095
-0.0275 1.0842e-19 0.00479858 0.0432988
0.025 1.0842e-19 0.0124878 0.0376381
-0.025 1.0842e-19 0.0124878 0.043079
0.0125 1.0842e-19 0.025 0.0391984
0.005 1.0842e-19 0.0275 0.0400661
-0.005 1.0842e-19 0.0275 0.0411467
-0.0125 1.0842e-19 0.025 0.0419032
0.02 1.0842e-19 0.02 0.0382779
-0.02 1.0842e-19 0.02 0.042619
0.02125 1.807e-20 0.01875 0.0381193
0.01875 -1.807e-20 0.02125 0.0384345
-0.01875 1.807e-20 0.02125 0.0425018
-0.02125 1.807e-20 0.01875 0.0427351
0.0275 1.0842e-19 0.00736572 0.037305
-0.0275 1.0842e-19 0.00736572 0.0432986
0.0225 1.0842e-19 0.0175 0.037959
0.0175 1.0842e-19 0.0225 0.0385896
-0.0175 1.0842e-19 0.0225 0.0423834
-0.0225 1.0842e-19 0.0175 0.0428496
0.0075 1.0842e-19 0.0275 0.0397812
-0.0075 1.0842e-19 0.0275 0.0414026
0.028546 -5.42101e-20 0 0.0371587
-0.028546 -1.35525e-19 0 0.0433822
0.02625 -9.03502e-21 0.011217 0.0374711
-0.02625 -9.03502e-21 0.011217 0.0431891
0.01125 -1.807e-20 0.02625 0.0393448
-0.01125 9.03502e-21 0.02625 0.0417788
-0.02875 9.03502e-21 0.00116943 0.0433998
0.02875 -9.03502e-21 0.00116943 0.0371307
-0.02375 9.03502e-21 0.0162494 0.042963
0.02375 9.03502e-21 0.0162494 0.0377966
0.01625 1.807e-20 0.02375 0.0387428
-0.01625 -2.71051e-20 0.02375 0.0422639
-0.00125 9.03502e-21 0.0287506 0.0407498
0.00125 0 0.0287506 0.0404795
-0.028954 -1.35525e-19 0 0.0434168
0.028954 -5.42101e-20 0 0.0371019
0.02875 -1.807e-20 0.00356873 0.0371394
-0.02875 1.807e-20 0.00356872 0.0434059
-0.00375 -1.807e-20 0.0287506 0.0410143
0.00375 -1.807e-20 0.0287506 0.0402036
0.025 1.0842e-19 0.0149988 0.0376328
-0.025 1.0842e-19 0.0149988 0.0430752
0.015 1.0842e-19 0.025 0.0388944
-0.015 1.0842e-19 0.025 0.0421432
0.0275 1.0842e-19 0.00994629 0.037302
-0.0275 1.0842e-19 0.00994629 0.043298
0.01 1.0842e-19 0.0275 0.0394901
-0.01 1.0842e-19 0.0275 0.0416531
0.02875 -9.03502e-21 0.00608215 0.0371331
-0.02875 9.03502e-21 0.00608215 0.0434049
0.00625 9.03502e-21 0.0287506 0.0399218
-0.00625 -1.807e-20 0.0287506 0.041273
0.02625 9.03502e-21 0.0137433 0.0374667
-0.02625 -1.807e-20 0.0137433 0.0431863
0.01375 -1.807e-20 0.02625 0.0390441
-0.01375 1.807e-20 0.02625 0.0420214
-0.03 -2.1684e-19 0 0.0435052
0.03 -1.0842e-19 0 0.0369554
-1.49751e-13 1.0842e-19 0.0300012 0.040613
0.02875 -9.03502e-21 0.008656 0.0371305
-0.02875 -1.807e-20 0.008656 0.0434057
0.02125 1.807e-20 0.02125 0.0381132
-0.02125 1.807e-20 0.02125 0.0427298
0.00875 9.03502e-21 0.0287506 0.0396337
-0.00875 -1.807e-20 0.0287506 0.0415262
-0.03 0 0.00233887 0.0435085
0.03 1.0842e-19 0.00233887 0.0369602
0.0225 1.0842e-19 0.02 0.0379531
0.02 1.0842e-19 0.0225 0.0382718
-0.02 1.0842e-19 0.0225 0.0426137
-0.0225 1.0842e-19 0.02 0.0428446
0.0025 1.0842e-19 0.0300012 0.0403399
-0.0025 1.0842e-19 0.0300012 0.0408804
0.0275 1.0842e-19 0.0124878 0.0372979
-0.0275 1.0842e-19 0.0124878 0.0432953
0.0125 1.0842e-19 0.0275 0.0391926
-0.0125 1.0842e-19 0.0275 0.0418983
0.02375 9.03502e-21 0.01875 0.037791
0.01875 1.807e-20 0.02375 0.0384286
-0.02375 -1.807e-20 0.01875 0.0429583
-0.01875 9.03502e-21 0.02375 0.0424965
0.03 1.0842e-19 0.00479858 0.0369614
-0.03 1.0842e-19 0.00479858 0.0435111
0.005 1.0842e-19 0.0300012 0.040061
-0.005 1.0842e-19 0.0300012 0.0411421
0.025 1.0842e-19 0.0175 0.0376269
0.0175 1.0842e-19 0.025 0.0385834
-0.0175 1.0842e-19 0.025 0.0423783
-0.025 1.0842e-19 0.0175 0.0430705
0.02875 2.71051e-20 0.011217 0.0371267
-0.02875 -9.03502e-21 0.011217 0.0434033
-0.02625 -9.03502e-21 0.0162494 0.0431816
0.02625 1.807e-20 0.0162494 0.0374605
0.01625 -1.807e-20 0.02625 0.0387366
-0.01625 2.71051e-20 0.02625 0.0422589
0.01125 9.03502e-21 0.0287506 0.0393393
-0.01125 -1.807e-20 0.0287506 0.041774
0.03 1.0842e-19 0.00736572 0.0369562
-0.03 1.0842e-19 0.00736572 0.0435109
0.0075 1.0842e-19 0.0300012 0.039776
-0.0075 1.0842e-19 0.0300012 0.041398
0.031046 0 0 0.036807
-0.031046 -1.35525e-19 0 0.0435929
0.03125 9.03502e-21 0.00116943 0.0367783
-0.03125 9.03502e-21 0.00116943 0.0436101
-0.00125 -9.03502e-21 0.0312567 0.040745
0.00125 -2.71051e-20 0.0312567 0.0404747
0.0275 1.0842e-19 0.0149988 0.0372927
-0.0275 1.0842e-19 0.0149988 0.0432916
0.015 1.0842e-19 0.0275 0.0388884
-0.015 1.0842e-19 0.0275 0.0421384
-0.03125 1.807e-20 0.00356872 0.0436162
0.03125 -2.71051e-20 0.00356872 0.0367872
-0.031454 -1.35525e-19 0 0.0436268
0.031454 0 0 0.0367488
0.00375 9.03502e-21 0.0312567 0.0401988
-0.00375 9.03502e-21 0.0312567 0.0410096
0.03 1.0842e-19 0.00994629 0.036953
-0.03 1.0842e-19 0.00994629 0.0435101
0.01 1.0842e-19 0.0300012 0.0394848
-0.01 1.0842e-19 0.0300012 0.0416485
0.0225 1.0842e-19 0.0225 0.0379467
-0.0225 1.0842e-19 0.0225 0.0428394
0.03125 -9.03502e-21 0.00608215 0.0367802
-0.03125 -9.03502e-21 0.00608215 0.0436151
-0.02875 9.03502e-21 0.0137433 0.0434006
0.02875 9.03502e-21 0.0137433 0.0371226
0.02125 9.03502e-21 0.02375 0.038107
0.02375 -9.03502e-21 0.02125 0.0377844
-0.02125 9.03502e-21 0.02375 0.0427248
-0.02375 0 0.02125 0.0429531
0.01375 9.03502e-21 0.0287506 0.0390385
-0.01375 -9.03502e-21 0.0287506 0.0420166
0.00625 -9.03502e-21 0.0312567 0.0399168
-0.00625 -9.03502e-21 0.0312567 0.0412686
0.02 1.0842e-19 0.025 0.0382654
0.025 1.0842e-19 0.02 0.0376207
-0.02 1.0842e-19 0.025 0.0426087
-0.025 1.0842e-19 0.02 0.0430656
-0.01875 0 0.02625 0.0424917
0.01875 0 0.02625 0.0384219
0.02625 2.71051e-20 0.01875 0.0374548
-0.02625 -2.71051e-20 0.01875 0.0431771
-0.03125 9.03502e-21 0.008656 0.0436159
0.03125 -9.03502e-21 0.00865601 0.036777
0.00875 -1.807e-20 0.0312567 0.0396286
-0.00875 9.03502e-21 0.0312567 0.0415216
0.03 1.0842e-19 0.0124878 0.0369492
-0.03 1.0842e-19 0.0124878 0.0435075
-0.0325 -2.1684e-19 0 0.0437136
0.0325 0 0 0.0365985
0.0125 1.0842e-19 0.0300012 0.039187
-0.0125 1.0842e-19 0.0300012 0.0418937
-7.80544e-12 1.0842e-19 0.0325122 0.0406084
-0.0325 0 0.00233887 0.0437168
0.0325 1.0842e-19 0.00233887 0.0366034
0.0275 1.0842e-19 0.0175 0.0372867
0.0175 1.0842e-19 0.0275 0.0385772
-0.0175 1.0842e-19 0.0275 0.0423736
-0.0275 1.0842e-19 0.0175 0.043287
0.0025 1.0842e-19 0.0325122 0.0403353
-0.0025 1.0842e-19 0.0325122 0.0408759
0.0325 1.0842e-19 0.00479858 0.0366043
-0.0325 1.0842e-19 0.00479858 0.0437193
0.005 1.0842e-19 0.0325122 0.0400563
-0.005 1.0842e-19 0.0325122 0.0411378
0.02875 0 0.0162494 0.0371164
-0.02875 -2.71051e-20 0.0162494 0.043396
-0.01625 -9.03502e-21 0.0287506 0.0422544
0.01625 -9.03502e-21 0.0287506 0.0387307
-0.03125 -2.71051e-20 0.011217 0.0436134
0.03125 9.03502e-21 0.011217 0.0367732
0.01125 -1.807e-20 0.0312567 0.039334
-0.01125 -2.71051e-20 0.0312567 0.0417696
0.0325 1.0842e-19 0.00736572 0.0365984
-0.0325 1.0842e-19 0.00736572 0.043719
0.0075 1.0842e-19 0.0325122 0.0397713
-0.0075 1.0842e-19 0.0325122 0.0413938
0.03 1.0842e-19 0.0149988 0.0369442
-0.03 1.0842e-19 0.0149988 0.0435039
0.015 1.0842e-19 0.0300012 0.0388826
-0.015 1.0842e-19 0.0300012 0.0421338
0.033546 -2.71051e-20 0 0.0364463
-0.033546 -1.35525e-19 0 0.0437997
0.02375 1.807e-20 0.02375 0.0377777
-0.02375 2.71051e-20 0.02375 0.0429482
0.0225 1.0842e-19 0.025 0.0379398
0.025 1.0842e-19 0.0225 0.0376139
-0.0225 1.0842e-19 0.025 0.0428345
-0.025 1.0842e-19 0.0225 0.0430606
0.03375 -9.03502e-21 0.00116943 0.0364169
-0.03375 2.71051e-20 0.00116944 0.0438166
0.02125 -1.807e-20 0.02625 0.0380999
0.02625 -1.807e-20 0.02125 0.0374479
-0.02125 1.807e-20 0.02625 0.0427199
-0.02625 1.807e-20 0.02125 0.0431721
-0.00125 -3.61401e-20 0.0337829 0.0407408
0.00125 -2.71051e-20 0.033783 0.0404704
0.03375 -1.807e-20 0.00356872 0.0364261
-0.03375 -9.03502e-21 0.00356873 0.0438225
-0.033954 -1.35525e-19 0 0.043833
0.033954 1.0842e-19 0 0.0363866
0.0325 1.0842e-19 0.00994629 0.0365948
-0.0325 1.0842e-19 0.00994629 0.0437182
-0.00375 1.807e-20 0.0337829 0.0410056
0.00375 -1.807e-20 0.033783 0.0401943
0.02 1.0842e-19 0.0275 0.0382588
0.0275 1.0842e-19 0.02 0.0372803
-0.02 1.0842e-19 0.0275 0.042604
-0.0275 1.0842e-19 0.02 0.0432823
0.01 1.0842e-19 0.0325122 0.0394798
-0.01 1.0842e-19 0.0325122 0.0416444
0.03125 -1.807e-20 0.0137433 0.0367695
-0.03125 9.03502e-21 0.0137433 0.0436107
0.01375 9.03502e-21 0.0312567 0.0390327
-0.01375 9.03502e-21 0.0312567 0.0420122
0.03375 -9.03502e-21 0.00608215 0.0364182
-0.03375 1.807e-20 0.00608215 0.0438213
0.02875 -1.807e-20 0.01875 0.0371105
-0.02875 2.71051e-20 0.01875 0.0433916
-0.01875 -1.807e-20 0.0287506 0.0424871
0.01875 -1.807e-20 0.0287506 0.0384158
0.00625 -1.807e-20 0.0337829 0.0399124
-0.00625 2.71051e-20 0.0337829 0.0412647
0.03 1.0842e-19 0.0175 0.0369381
-0.03 1.0842e-19 0.0175 0.0434995
0.0175 1.0842e-19 0.0300012 0.0385711
-0.0175 1.0842e-19 0.0300012 0.0423691
0.0325 1.0842e-19 0.0124878 0.0365912
-0.0325 1.0842e-19 0.0124878 0.0437156
0.0125 1.0842e-19 0.0325122 0.0391818
-0.0125 1.0842e-19 0.0325122 0.0418896
-0.03375 -9.03502e-21 0.008656 0.043822
0.03375 -9.03502e-21 0.00865601 0.0364141
-0.00875 -1.807e-20 0.0337829 0.0415179
0.00875 -1.807e-20 0.0337829 0.039624
-0.035 -2.1684e-19 0 0.043918
0.035 0 0 0.0362323
-7.51186e-11 1.0842e-19 0.0350537 0.0406044
-0.035 0 0.00233887 0.0439212
0.035 1.0842e-19 0.00233887 0.0362375
0.0025 1.0842e-19 0.0350537 0.0403312
-0.0025 1.0842e-19 0.0350537 0.0408721
0.03125 -1.807e-20 0.0162494 0.0367634
-0.03125 -1.807e-20 0.0162494 0.0436063
0.01625 0 0.0312567 0.0387247
-0.01625 9.03502e-21 0.0312567 0.0422499
0.035 1.0842e-19 0.00479858 0.036238
-0.035 1.0842e-19 0.00479858 0.0439236
0.025 1.0842e-19 0.025 0.0376066
-0.025 1.0842e-19 0.025 0.0430559
0.02375 9.03502e-21 0.02625 0.0377704
0.02625 2.71051e-20 0.02375 0.0374409
-0.02375 9.03502e-21 0.02625 0.0429434
-0.02625 -2.71051e-20 0.02375 0.0431673
0.005 1.0842e-19 0.0350537 0.0400521
-0.005 1.0842e-19 0.0350537 0.041134
0.0225 1.0842e-19 0.0275 0.0379328
0.0275 1.0842e-19 0.0225 0.0372731
-0.0225 1.0842e-19 0.0275 0.04283
-0.0275 1.0842e-19 0.0225 0.0432775
0.03375 9.03502e-21 0.011217 0.0364103
-0.03375 -9.03502e-21 0.011217 0.0438195
-0.01125 -1.807e-20 0.0337829 0.0417658
0.01125 1.807e-20 0.0337829 0.0393292
0.02875 1.807e-20 0.02125 0.0371032
-0.02875 1.807e-20 0.02125 0.0433867
0.02125 -1.807e-20 0.0287506 0.0380933
-0.02125 1.807e-20 0.0287506 0.0427154
0.035 1.0842e-19 0.00736572 0.0362311
-0.035 1.0842e-19 0.00736572 0.0439232
0.0325 1.0842e-19 0.0149988 0.0365866
-0.0325 1.0842e-19 0.0149988 0.0437121
0.015 1.0842e-19 0.0325122 0.0388771
-0.015 1.0842e-19 0.0325122 0.0421298
0.0075 1.0842e-19 0.0350537 0.0397669
-0.0075 1.0842e-19 0.0350537 0.0413902
0.036046 8.13152e-20 0 0.0360763
-0.036046 8.13152e-20 0 0.0440024
0.03 1.0842e-19 0.02 0.0369313
-0.03 1.0842e-19 0.02 0.0434949
0.02 1.0842e-19 0.0300012 0.0382523
-0.02 1.0842e-19 0.0300012 0.0425997
0.03625 -1.807e-20 0.00116944 0.0360461
-0.03625 -9.03502e-21 0.00116944 0.044019
-0.00125 0 0.036344 0.0407371
0.00125 9.03502e-21 0.036344 0.0404666
0.035 1.0842e-19 0.00994629 0.0362272
-0.035 1.0842e-19 0.00994629 0.0439224
0.03625 9.03502e-21 0.00356872 0.0360556
-0.03625 0 0.00356873 0.0440249
0.03375 -1.807e-20 0.0137433 0.0364071
-0.03375 0 0.0137433 0.043817
0.03125 9.03502e-21 0.01875 0.0367572
-0.03125 9.03502e-21 0.01875 0.0436021
-0.01875 9.03502e-21 0.0312567 0.0424829
0.01875 -1.807e-20 0.0312567 0.0384095
0.01 1.0842e-19 0.0350537 0.0394753
-0.01 1.0842e-19 0.0350537 0.0416407
-0.036454 8.13152e-20 0 0.0440351
0.036454 8.13152e-20 0 0.036015
0.01375 -1.807e-20 0.0337829 0.0390277
-0.01375 -9.03502e-21 0.0337829 0.0420085
0.00375 9.03502e-21 0.036344 0.0401905
-0.00375 0 0.036344 0.041002
0.03625 -9.03502e-21 0.00608215 0.0360463
-0.03625 1.807e-20 0.00608215 0.0440236
0.00625 9.03502e-21 0.036344 0.0399083
-0.00625 -1.807e-20 0.036344 0.0412611
0.0325 1.0842e-19 0.0175 0.0365806
-0.0325 1.0842e-19 0.0175 0.0437078
0.0175 1.0842e-19 0.0325122 0.0385653
-0.0175 1.0842e-19 0.0325122 0.0423652
-0.02625 1.807e-20 0.02625 0.0431628
0.02625 2.71051e-20 0.02625 0.0374328
0.035 1.0842e-19 0.0124878 0.036224
-0.035 1.0842e-19 0.0124878 0.0439198
0.0275 1.0842e-19 0.025 0.0372653
0.025 1.0842e-19 0.0275 0.037599
-0.025 1.0842e-19 0.0275 0.0430515
-0.0275 1.0842e-19 0.025 0.043273
0.0125 1.0842e-19 0.0350537 0.0391771
-0.0125 1.0842e-19 0.0350537 0.041886
-0.03625 -9.03502e-21 0.008656 0.0440243
0.03625 0 0.00865601 0.0360419
0.02875 -9.03502e-21 0.02375 0.0370956
-0.02875 9.03502e-21 0.02375 0.0433822
0.02375 2.71051e-20 0.0287506 0.0377632
-0.02375 -9.03502e-21 0.0287506 0.0429392
0.00875 0 0.036344 0.0396198
-0.00875 9.03502e-21 0.036344 0.0415144
-0.03375 -1.807e-20 0.0162494 0.0438126
0.03375 2.71051e-20 0.0162494 0.0364014
0.01625 9.03502e-21 0.0337829 0.0387195
-0.01625 -1.807e-20 0.0337829 0.0422464
-0.0375 1.0842e-19 0 0.0441184
0.0375 -1.0842e-19 0 0.0358568
0.03 1.0842e-19 0.0225 0.0369236
-0.03 1.0842e-19 0.0225 0.0434902
0.0225 1.0842e-19 0.0300012 0.0379259
-0.0225 1.0842e-19 0.0300012 0.0428258
-0.0375 0 0.00233887 0.0441216
0.0375 1.0842e-19 0.00233887 0.0358621
-3.91332e-10 1.0842e-19 0.0376343 0.0406014
0.0025 1.0842e-19 0.0376343 0.040328
-0.0025 1.0842e-19 0.0376343 0.0408691
-0.03125 1.807e-20 0.02125 0.0435973
0.03125 9.03502e-21 0.02125 0.0367495
0.02125 -1.807e-20 0.0312567 0.0380866
-0.02125 1.807e-20 0.0312567 0.0427113
0.0375 1.0842e-19 0.00479858 0.0358621
-0.0375 1.0842e-19 0.00479858 0.0441239
0.03625 9.03502e-21 0.011217 0.0360381
-0.03625 9.03502e-21 0.011217 0.0440217
0.005 1.0842e-19 0.0376343 0.0400488
-0.005 1.0842e-19 0.0376343 0.0411311
0.01125 0 0.036344 0.0393249
-0.01125 2.71051e-20 0.036344 0.0417623
0.035 1.0842e-19 0.0149988 0.0362198
-0.035 1.0842e-19 0.0149988 0.0439165
0.015 1.0842e-19 0.0350537 0.0388721
-0.015 1.0842e-19 0.0350537 0.0421263
0.0325 1.0842e-19 0.02 0.0365735
-0.0325 1.0842e-19 0.02 0.0437034