# U  POINT_DATA 29553
# x  y  z  U_x  U_y  U_z
0 0.00104602 7.11428e-09 3.53857e-07 -3.04242e-07 4.02001e-10
0 -0.000203993 0.00116943 0.0915235 -0.0780508 0.000104375
0 -0.00145398 7.75775e-09 3.88669e-07 -3.29001e-07 4.38085e-10
1.08622e-19 0.001046 0.00233887 0.112528 -0.0978553 0.000217918
0 0.002296 0.00116944 0.0908561 -0.0786961 0.000104418
1.18108e-20 -0.001454 0.00233887 0.113405 -0.0971087 0.00021743
1.0842e-19 -0.002704 0.00116943 0.0921794 -0.0774002 0.000104242
0 0.001046 0.00323022 0.123752 -0.107014 0.000338817
0 0.003546 7.22173e-09 3.56545e-07 -3.11383e-07 4.08221e-10
0 -0.000203999 0.00356872 0.134761 -0.117228 0.000332935
2.58494e-26 -0.00273457 0.00233887 0.113846 -0.096722 0.000217045
-5.16988e-26 -0.001454 0.00361264 0.129596 -0.110143 0.000388531
-1.65436e-24 -0.003954 7.73917e-09 3.7976e-07 -3.16688e-07 4.24666e-10
-1.0842e-19 0.002296 0.00356872 0.133655 -0.118069 0.000333578
5.16988e-26 0.003546 0.00233887 0.111635 -0.0985927 0.000218069
0 -0.002704 0.00356872 0.135847 -0.116376 0.000331789
4.1359e-25 -0.003954 0.00225921 0.110374 -0.0930718 0.000209298
0 -0.003954 0.00233887 0.114266 -0.0963537 0.000216678
0 0.001046 0.00479858 0.1435 -0.123129 0.000551542
0 0.004796 0.00116943 0.0901775 -0.0793355 0.000104421
0 0.003546 0.00343605 0.125317 -0.109911 0.000368142
5.16988e-26 -0.001454 0.00479858 0.144671 -0.122278 0.000547835
0 -0.00520401 0.00116943 0.0928235 -0.0767448 0.000104122
5.32577e-20 0.003546 0.00479858 0.142308 -0.123966 0.000554507
0 0.004796 0.00356872 0.132528 -0.118896 0.0003335
0 0.006046 7.79493e-09 3.8193e-07 -3.3882e-07 4.4065e-10
0 -0.000204 0.00608215 0.153555 -0.128263 0.000769875
0 -0.003954 0.00479858 0.145819 -0.121414 0.000543563
0 -0.005204 0.00356872 0.136911 -0.115511 0.00033016
-8.27181e-25 -0.00645401 6.20271e-09 3.06472e-07 -2.51638e-07 3.39904e-10
5.41565e-20 0.006046 0.00233887 0.110726 -0.0993199 0.000217853
1.0842e-19 0.002296 0.00608215 0.152297 -0.129111 0.000776089
0 -0.002704 0.00608215 0.154789 -0.127402 0.000762968
0 -0.00645401 0.00212494 0.104582 -0.086847 0.000196003
-1.03398e-25 -0.00645401 0.00233887 0.115111 -0.0955906 0.000215736
0 0.007296 0.00116943 0.0894877 -0.0799685 0.000104413
2.58494e-26 0.006046 0.00431085 0.135072 -0.119738 0.000489399
4.51289e-20 0.001046 0.00736572 0.158763 -0.129413 0.000949601
0 -0.001454 0.00736572 0.160028 -0.128574 0.00093894
-2.58494e-26 0.006046 0.00479858 0.141093 -0.124787 0.000556561
0 0.004796 0.00608215 0.151016 -0.129944 0.000781249
-1.0842e-19 -0.00770401 0.00116944 0.0934553 -0.0760848 0.00010404
0 -0.005204 0.00608215 0.156 -0.126526 0.00075548
5.16988e-26 -0.006454 0.00479858 0.146946 -0.120538 0.000538835
1.0842e-19 0.007296 0.00356872 0.131381 -0.119709 0.000332707
3.50425e-20 0.003546 0.00736572 0.157475 -0.130238 0.000959476
7.84787e-20 -0.003954 0.00736572 0.16127 -0.127722 0.000927684
-1.0842e-19 -0.007704 0.00356872 0.137956 -0.114635 0.000328196
-1.65436e-24 0.00854602 8.72316e-09 4.24093e-07 -3.82177e-07 4.93093e-10
0 -0.000204 0.008656 0.165258 -0.129732 0.00111931
-6.84192e-20 0.008546 0.00233886 0.109801 -0.100036 0.000217311
0 -0.00895401 5.46843e-09 2.8561e-07 -2.30912e-07 3.14252e-10
0 0.002296 0.008656 0.163963 -0.130548 0.00113377
1.0842e-19 -0.002704 0.00865601 0.166531 -0.128902 0.00110423
-1.03398e-25 -0.00895401 0.001998 0.0990416 -0.0810008 0.000183338
0 -0.00895401 0.00233887 0.115939 -0.0948202 0.000214617
6.46235e-27 0.00800744 0.00479858 0.140123 -0.125419 0.000557455
0 0.007296 0.00608215 0.149711 -0.130759 0.000785244
0 0.006046 0.00736572 0.156163 -0.131048 0.000968376
3.23117e-27 -0.001454 0.0096327 0.168933 -0.12841 0.00123625
7.33351e-20 -0.006454 0.00736572 0.162489 -0.126856 0.000915961
-7.59312e-20 0.008546 0.00479858 0.139856 -0.125593 0.000557701
1.0842e-19 -0.007704 0.00608215 0.157189 -0.125638 0.000747562
-2.1684e-19 0.009796 0.00116943 0.0887864 -0.0805935 0.000104354
-1.0842e-19 0.004796 0.008656 0.162644 -0.131351 0.00114745
8.07794e-28 -0.000473983 0.00994629 0.169665 -0.128704 0.00128498
1.61559e-27 0.001046 0.00994629 0.168891 -0.129194 0.00129676
0 -0.001454 0.00994629 0.170165 -0.128388 0.00127738
0 -0.0100624 0 0 0 0
-2.1684e-19 -0.005204 0.00865601 0.16778 -0.128058 0.00108866
0 -0.008954 0.00479858 0.148051 -0.119652 0.00053373
0 -0.003954 0.00935899 0.169107 -0.127603 0.00118263
1.0842e-19 -0.010204 0.00116944 0.0940742 -0.0754204 0.000103892
-1.0842e-19 0.009796 0.00356872 0.130213 -0.120505 0.000331386
0 0.003546 0.00994629 0.167596 -0.129986 0.00131567
-2.03057e-20 -0.003954 0.00994629 0.171416 -0.127569 0.00125775
-3.23117e-27 0.008546 0.0065421 0.150024 -0.129836 0.000841924
2.1684e-19 -0.010204 0.00356873 0.138979 -0.11375 0.000325882
0 0.011046 1.00042e-08 4.82491e-07 -4.41696e-07 5.65852e-10
-1.0842e-19 -0.000204 0.011217 0.173786 -0.127861 0.00145415
0 0.008546 0.00736572 0.154827 -0.131841 0.000976188
-9.5347e-20 0.011046 0.00233887 0.10886 -0.100738 0.000216628
1.0842e-19 0.007296 0.00865601 0.161301 -0.132138 0.00116023
1.0842e-19 0.002296 0.011217 0.172512 -0.128643 0.00147805
0 -0.011454 6.86537e-09 3.59176e-07 -2.85908e-07 3.98245e-10
1.0842e-19 0.009796 0.00608215 0.148382 -0.131558 0.000787988
-2.1684e-19 -0.002704 0.011217 0.175038 -0.127066 0.00143011
0 -0.007704 0.00865601 0.169006 -0.127203 0.00107273
0 -0.008954 0.00736572 0.163684 -0.125979 0.000903875
0 0.006046 0.00994629 0.166277 -0.130765 0.001334
0 -0.011454 0.00233887 0.11675 -0.094043 0.000213331
8.07794e-28 -0.006454 0.00988095 0.172388 -0.12674 0.0012298
9.58885e-20 -0.006454 0.00994629 0.172645 -0.126737 0.00123795
-3.23117e-27 0.00931614 0.00736572 0.154408 -0.13208 0.00097828
0 -0.010204 0.00608215 0.158354 -0.124739 0.000739253
-1.66384e-19 0.011046 0.00479858 0.138596 -0.12638 0.000558175
4.03897e-28 -0.00682261 0.00994629 0.172823 -0.126613 0.001235
0 0.004796 0.011217 0.171217 -0.129413 0.00150159
-4.03897e-28 0.001046 0.0122979 0.176136 -0.126915 0.00156992
0 0.012296 0.00116943 0.0880718 -0.0812085 0.000104391
0 -0.005204 0.011217 0.176269 -0.126258 0.00140631
0 -0.011454 0.00479858 0.149133 -0.118754 0.000528341
3.43961e-20 0.001046 0.0124878 0.176721 -0.126731 0.00159199
-8.184e-20 -0.001454 0.0124878 0.177959 -0.125961 0.00156443
2.01948e-28 0.00176244 0.0124878 0.176361 -0.126948 0.0015999
8.27181e-25 -0.0126866 0 0 0 0
1.0842e-19 -0.012704 0.00116943 0.0946799 -0.0747519 0.000103668
0 0.012296 0.00356872 0.129023 -0.121281 0.000329973
0 0.003546 0.0124878 0.175463 -0.127489 0.00161959
-1.0842e-19 0.009796 0.008656 0.159935 -0.13291 0.00117198
-6.60941e-20 -0.003954 0.0124878 0.179178 -0.125178 0.00153712
0 0.008546 0.00994629 0.164935 -0.131528 0.00135168
-2.1684e-19 -0.012704 0.00356872 0.139982 -0.112856 0.000323388
-3.31624e-20 0.011046 0.00736572 0.153466 -0.132616 0.00098298
0 -0.010204 0.008656 0.170208 -0.126336 0.00105653
1.0842e-19 0.007296 0.011217 0.169899 -0.130168 0.00152483
-1.61559e-27 -0.008954 0.00994629 0.173852 -0.125894 0.00121797
-4.03897e-28 0.00908517 0.00994629 0.16464 -0.13169 0.00135534
1.65436e-24 0.013546 1.10685e-08 5.29434e-07 -4.92369e-07 6.28111e-10
0 -0.007704 0.011217 0.177479 -0.125438 0.00138244
2.58494e-26 -0.011454 0.00736572 0.164857 -0.12509 0.000891555
-2.1684e-19 0.012296 0.00608215 0.147027 -0.132336 0.00078993
1.0842e-19 -0.000204 0.0137433 0.180891 -0.124844 0.00170172
-1.18111e-19 0.013546 0.00233887 0.1079 -0.101424 0.000216165
0 0.006046 0.0124878 0.174183 -0.128233 0.00164724
0 0.002296 0.0137433 0.179667 -0.125589 0.001733
0 -0.013954 7.05929e-09 3.44832e-07 -2.70183e-07 3.72964e-10
0 -0.002704 0.0137433 0.182095 -0.124086 0.00167076
-1.14467e-19 -0.006454 0.0124878 0.180376 -0.124383 0.0015101
0 -0.012704 0.00608215 0.159497 -0.123829 0.000730727
-7.23783e-25 -0.013954 0.00214735 0.107919 -0.0856226 0.000194575
1.03398e-25 -0.013954 0.00233887 0.117544 -0.0932594 0.000211929
1.54667e-19 0.013546 0.00479858 0.137311 -0.127146 0.000558467
1.0842e-19 0.004796 0.0137433 0.178424 -0.126321 0.00176464
2.01948e-28 0.008546 0.0119353 0.171155 -0.12952 0.0016047
0 -0.005204 0.0137433 0.18328 -0.123315 0.00164032
-2.01948e-28 0.00782085 0.0124878 0.17326 -0.128751 0.00166694
0 -0.013954 0.00479858 0.150195 -0.117847 0.000522749
0 0.014796 0.00116943 0.0873412 -0.0818103 0.000104752
1.37052e-19 0.011046 0.00994629 0.163569 -0.132276 0.00136866
-1.0842e-19 0.009796 0.011217 0.168559 -0.130908 0.00154776
7.21934e-20 0.001046 0.0149988 0.18354 -0.123452 0.0018098
0 0.012296 0.008656 0.158542 -0.133663 0.00118273
9.65262e-21 -0.001454 0.0149988 0.184725 -0.122719 0.00177629
-2.01948e-28 0.008546 0.0124878 0.172882 -0.128962 0.00167498
0 -0.010204 0.011217 0.178668 -0.124608 0.00135856
0 -0.011454 0.00994629 0.175037 -0.125041 0.00119793
0 0.014796 0.00356872 0.127809 -0.122035 0.000329113
0 -0.015204 0.00116943 0.0952725 -0.0740798 0.000103416
1.21169e-27 -0.008954 0.0123912 0.181263 -0.123665 0.00147327
0 0.00296952 0.0149988 0.182614 -0.124007 0.00183611
0 -0.008954 0.0124878 0.181555 -0.123577 0.00148335
0 -0.012704 0.008656 0.171388 -0.125459 0.00104027
0 0.003546 0.0149988 0.182336 -0.124173 0.00184399
-3.98254e-20 0.013546 0.00736572 0.152079 -0.133371 0.00098903
-4.43593e-20 -0.003954 0.0149988 0.185892 -0.121973 0.00174349
1.0842e-19 0.007296 0.0137433 0.177162 -0.12704 0.00179679
0 -0.015204 0.00356872 0.140964 -0.111953 0.000320714
-1.51461e-28 -0.00938579 0.0124878 0.181756 -0.123436 0.00147878
0 -0.007704 0.0137433 0.184448 -0.122533 0.0016104
0 -0.013954 0.00736572 0.166007 -0.124192 0.000879089
-1.0842e-19 0.014796 0.00608215 0.145645 -0.133091 0.000791468
-1.65436e-24 0.016046 1.17795e-08 5.58643e-07 -5.27809e-07 6.74561e-10
1.26218e-29 0.006046 0.0149988 0.181114 -0.124881 0.00187895
2.79943e-20 0.016046 0.00233887 0.106918 -0.102091 0.000216494
0 -0.000204 0.0162494 0.187379 -0.121337 0.00188392
1.26879e-20 -0.006454 0.0149988 0.187042 -0.121216 0.00171146
-2.1684e-19 -0.015204 0.00608215 0.160617 -0.122909 0.000721968
0 0.002296 0.0162494 0.186214 -0.122045 0.00192031
-6.31089e-30 0.00672626 0.0149988 0.180776 -0.12507 0.00188868
-8.27181e-25 -0.016454 6.56922e-09 3.33047e-07 -2.57137e-07 3.5729e-10
-1.0842e-19 -0.002704 0.0162494 0.188527 -0.120616 0.00184851
8.07794e-28 -0.016454 0.00233887 0.118305 -0.0924572 0.000210468
0 0.012296 0.011217 0.167195 -0.131634 0.00157017
5.18393e-20 0.011046 0.0124878 0.17156 -0.129678 0.00170277
0 -0.0165244 0.00233887 0.118343 -0.0924478 0.000210457
-3.67342e-20 0.016046 0.00479858 0.136001 -0.127888 0.000559366
6.18139e-20 0.013546 0.00994629 0.162178 -0.133006 0.00138494
-1.0842e-19 0.009796 0.0137433 0.175879 -0.127746 0.00182943
1.0842e-19 0.004796 0.0162494 0.18503 -0.122741 0.00195777
-4.03897e-28 -0.011454 0.0124878 0.182715 -0.12276 0.0014569
0 -0.012704 0.011217 0.179838 -0.123768 0.00133477
1.0842e-19 -0.005204 0.0162494 0.189659 -0.119882 0.00181416
0 -0.010204 0.0137433 0.185597 -0.12174 0.00158108
0 -0.013954 0.00994629 0.176201 -0.124177 0.00117794
-1.03398e-25 -0.016454 0.00479858 0.151235 -0.116932 0.000517007
-1.0842e-19 0.014796 0.008656 0.157123 -0.134397 0.00119271
0 0.008546 0.0149988 0.179873 -0.125575 0.00191474
0 0.017296 0.00116943 0.0865915 -0.0823963 0.000105677
-1.04052e-19 -0.008954 0.0149988 0.188174 -0.120447 0.00168012
0 -0.015204 0.008656 0.172545 -0.124572 0.00102394
-3.54893e-20 0.001046 0.0175 0.189834 -0.119853 0.00195408
1.42066e-19 -0.001454 0.0175 0.190962 -0.119154 0.00191659
-3.15544e-30 0.003546 0.0172644 0.18809 -0.120881 0.00197876
-6.78833e-20 0.016046 0.00736572 0.150665 -0.134104 0.000994741
-2.1684e-19 0.017296 0.00356872 0.12657 -0.122765 0.000329995
1.0842e-19 -0.017704 0.00116943 0.0958516 -0.0734044 0.000103273
-2.1684e-19 0.007296 0.0162494 0.18383 -0.123425 0.00199632
-1.57772e-30 0.003546 0.0175 0.188688 -0.120539 0.00199277
4.20658e-20 -0.003954 0.0175 0.192075 -0.118444 0.00188026
-1.0842e-19 -0.007704 0.0162494 0.190773 -0.119138 0.00178073
0 -0.016454 0.00736572 0.167134 -0.123283 0.000866544
0 -0.017704 0.00356873 0.141926 -0.111043 0.000318019
0 0.006046 0.0171736 0.186689 -0.121691 0.0020127
1.26218e-29 -0.0105114 0.0149988 0.188869 -0.119961 0.00166101
1.0842e-19 0.017296 0.00608215 0.144237 -0.133821 0.000793529
-2.12774e-20 0.013546 0.0124878 0.170214 -0.130378 0.00173055
-1.0842e-19 0.012296 0.0137433 0.174575 -0.128436 0.00186255
0 0.006046 0.0175 0.187526 -0.121212 0.00203278
1.65436e-24 0.018546 1.2351e-08 5.80567e-07 -5.57298e-07 7.19351e-10
-1.0842e-19 0.014796 0.011217 0.165807 -0.132342 0.00159211
1.26218e-28 0.0137547 0.0124878 0.1701 -0.130435 0.00173286
-1.06602e-19 0.011046 0.0149988 0.178612 -0.126255 0.00195142
8.08447e-20 -0.006454 0.0175 0.193171 -0.117722 0.00184502
1.11276e-19 0.018546 0.00233887 0.105914 -0.102738 0.000218394
1.0842e-19 -0.012704 0.0137433 0.186729 -0.120935 0.00155228
0 -0.017704 0.00608215 0.161715 -0.12198 0.000713037
0 -0.013954 0.0124878 0.183857 -0.121933 0.0014308
0 -0.000204 0.01875 0.193425 -0.117677 0.00198617
0 -0.011454 0.0149988 0.189289 -0.119667 0.00164944
-8.56718e-20 0.016046 0.00994629 0.160761 -0.133718 0.00140061
-1.0842e-19 0.002296 0.01875 0.192316 -0.118353 0.0020259
1.0842e-19 -0.015204 0.011217 0.180988 -0.122917 0.00131123
0 -0.002704 0.01875 0.194518 -0.116989 0.00194776
8.27181e-25 -0.018954 6.6199e-09 3.47154e-07 -2.63816e-07 3.69258e-10
1.0842e-19 0.009796 0.0162494 0.182611 -0.124094 0.00203614
-2.58494e-26 -0.018954 0.00233887 0.119082 -0.0916759 0.000209047
4.97932e-20 0.018546 0.00479858 0.134665 -0.128604 0.000562014
1.0842e-19 -0.010204 0.0162494 0.19187 -0.118382 0.00174807
0 -0.018954 0.00305909 0.128795 -0.0988007 0.000297517
-4.73061e-20 -0.016454 0.00994629 0.177344 -0.123303 0.00115813
2.1684e-19 0.017296 0.008656 0.155676 -0.13511 0.00120199
0 0.004796 0.01875 0.191192 -0.119016 0.0020671
0 -0.005204 0.01875 0.195595 -0.11629 0.00191059
-3.54882e-20 0.008546 0.0175 0.186347 -0.121872 0.00207422
0 -0.018954 0.00479858 0.152253 -0.116009 0.000511193
0 0.013546 0.0141132 0.174821 -0.12814 0.00189787
-1.91544e-20 -0.008954 0.0175 0.194251 -0.116989 0.00181079
-1.26218e-29 0.0127207 0.0149988 0.177754 -0.126701 0.00197662
0 -0.017704 0.008656 0.17368 -0.123675 0.00100776
0 0.019796 0.00116943 0.0858195 -0.0829644 0.000107464
-7.69895e-20 0.018546 0.00736572 0.149223 -0.134812 0.00100071
3.28979e-21 0.001046 0.02 0.195709 -0.116198 0.00202589
-9.67102e-20 -0.001454 0.02 0.196783 -0.115531 0.00198601
0 0.016046 0.0120613 0.167489 -0.131507 0.00169828
-1.0842e-19 0.019796 0.00356872 0.125307 -0.123469 0.000334022
0 0.007296 0.01875 0.190051 -0.119666 0.00210992
0 0.014796 0.0137433 0.17325 -0.129112 0.00189614
1.26218e-29 0.013546 0.0149988 0.177332 -0.126921 0.00198903
1.0842e-19 -0.020204 0.00116943 0.0964171 -0.0727261 0.000103022
-1.0842e-19 -0.007704 0.01875 0.196657 -0.115579 0.00187461
3.28979e-21 0.003546 0.02 0.19462 -0.116853 0.00206728
-4.03897e-28 0.016046 0.0124878 0.168846 -0.131062 0.0017583
0 -0.018954 0.00736572 0.168239 -0.122366 0.000854013
1.0842e-19 0.012296 0.0162494 0.181374 -0.12475 0.0020773
-9.67102e-20 -0.003954 0.02 0.197843 -0.114852 0.00194755
-1.00974e-28 -0.013954 0.0149988 0.190387 -0.118877 0.00161939
0 -0.015204 0.0137433 0.187844 -0.120121 0.00152404
0 -0.020204 0.00356872 0.142867 -0.110126 0.000315264
1.0842e-19 0.017296 0.011217 0.164394 -0.133034 0.0016135
1.0842e-19 -0.012704 0.0162494 0.192951 -0.117616 0.00171613
3.23117e-27 -0.016454 0.0124878 0.18498 -0.121095 0.00140513
-3.54882e-20 0.011046 0.0175 0.185151 -0.122519 0.00211722
-2.1684e-19 0.019796 0.00608215 0.1428 -0.134523 0.000797159
1.57772e-29 -0.011454 0.0173004 0.194834 -0.116519 0.00176725
6.45119e-20 0.006046 0.02 0.193515 -0.117495 0.00211036
0 -0.011454 0.0175 0.195315 -0.116246 0.00177747
1.0842e-19 -0.017704 0.011217 0.182118 -0.122057 0.00128807
8.08456e-20 -0.006454 0.02 0.198887 -0.114163 0.0019104
-3.70875e-20 0.018546 0.00994629 0.159318 -0.134409 0.00141571
-1.65436e-24 0.021046 1.32786e-08 6.18421e-07 -6.0319e-07 7.92835e-10
-1.0842e-19 -0.020204 0.00608215 0.16279 -0.121042 0.000704073
-1.0842e-19 0.009796 0.01875 0.188895 -0.120304 0.00215447
-3.32229e-20 0.021046 0.00233887 0.104887 -0.103363 0.0002226
0 -0.000204 0.02125 0.199075 -0.114058 0.002025
0 -0.010204 0.01875 0.197703 -0.114859 0.00183977
0 0.002296 0.02125 0.19802 -0.114704 0.00206647
0 -0.018954 0.00994629 0.178466 -0.12242 0.00113859
-1.0842e-19 -0.002704 0.02125 0.200116 -0.1134 0.00198511
-1.65436e-24 -0.021454 7.86035e-09 4.14605e-07 -3.10321e-07 4.37464e-10
-3.67055e-20 -0.021454 0.00233887 0.119825 -0.090877 0.00020756
1.64666e-19 0.021046 0.00479858 0.133304 -0.129294 0.00056754
0 0.019796 0.008656 0.154202 -0.135799 0.0012109
0 0.0176473 0.0124878 0.167954 -0.131489 0.00177601
-1.13044e-19 0.008546 0.02 0.192395 -0.118124 0.0021553
1.0842e-19 0.004796 0.02125 0.196951 -0.115338 0.00210964
-1.0842e-19 -0.005204 0.02125 0.201142 -0.112731 0.00194674
8.08456e-20 -0.008954 0.02 0.199916 -0.113462 0.00187449
0 -0.021454 0.00449012 0.149059 -0.112043 0.000468018
3.15544e-30 0.013546 0.0172844 0.183368 -0.123476 0.00214704
0 0.016046 0.0149988 0.176031 -0.127572 0.00202759
1.0842e-19 0.014796 0.0162494 0.180118 -0.125391 0.00211985
0 -0.020204 0.008656 0.174793 -0.12277 0.000991704
0 -0.021454 0.00479858 0.15325 -0.115078 0.000505363
-1.0842e-19 0.017296 0.0137433 0.171903 -0.129772 0.00193018
-9.67096e-20 0.013546 0.0175 0.183937 -0.123151 0.00216194
0 -0.015204 0.0162494 0.194016 -0.11684 0.00168487
-2.01948e-28 -0.016454 0.0149988 0.191469 -0.118077 0.00158994
1.19679e-19 0.021046 0.00736572 0.147754 -0.135494 0.00100759
-1.0842e-19 0.022296 0.00116943 0.0850232 -0.0835138 0.000110272
9.46633e-30 -0.013954 0.0174568 0.196259 -0.115551 0.00174281
-7.79273e-20 0.018546 0.0124878 0.167453 -0.131729 0.00178594
0 -0.013954 0.0175 0.196362 -0.115492 0.00174498
0 -0.017704 0.0137433 0.188942 -0.119297 0.00149633
-1.0842e-19 0.012296 0.01875 0.187723 -0.120928 0.00220098
-1.0842e-19 0.007296 0.02125 0.195867 -0.115959 0.00215479
8.08456e-20 0.001046 0.0225 0.201203 -0.112633 0.00203466
8.08456e-20 -0.001454 0.0225 0.202226 -0.111995 0.00199386
-1.0842e-19 0.022296 0.00356872 0.124022 -0.124149 0.000342283
1.0842e-19 -0.007704 0.02125 0.202153 -0.112051 0.00190969
0 -0.012704 0.01875 0.198734 -0.114127 0.00180591
0 -0.021454 0.00736572 0.169322 -0.121441 0.000841592
0 -0.018954 0.0124878 0.186084 -0.120249 0.00137996
0 -0.022704 0.00116943 0.0969692 -0.0720453 0.000102788
-2.1684e-19 0.019796 0.011217 0.162954 -0.133707 0.00163428
-9.67102e-20 0.003546 0.0225 0.200166 -0.11326 0.00207719
3.28979e-21 -0.003954 0.0225 0.203235 -0.111345 0.00195466
3.28979e-21 0.011046 0.02 0.191261 -0.11874 0.00220228
0 -0.0224661 0.00479858 0.153645 -0.114698 0.00050302
2.1684e-19 -0.022704 0.00356872 0.143788 -0.109203 0.000312514
1.58401e-19 -0.011454 0.02 0.20093 -0.112752 0.00183969
-1.0842e-19 -0.020204 0.011217 0.183228 -0.121187 0.00126537
2.1684e-19 0.022296 0.00608215 0.141337 -0.135195 0.000803328
-1.26589e-20 0.021046 0.00994629 0.157847 -0.135079 0.00143035
-3.54881e-20 0.006046 0.0225 0.199116 -0.113875 0.00212164
0 0.009796 0.02125 0.194769 -0.116568 0.00220204
-9.67102e-20 -0.006454 0.0225 0.20423 -0.110684 0.00191693
0 -0.022704 0.00608215 0.163844 -0.120097 0.000695136
0 0.023546 1.4979e-08 6.9093e-07 -6.84848e-07 9.21753e-10
0 -0.010204 0.02125 0.20315 -0.111361 0.00187388
-2.52435e-29 0.018546 0.0146545 0.173715 -0.128691 0.00202855
0 -0.021454 0.00994629 0.179567 -0.121529 0.0011194
-7.77765e-20 0.023546 0.00233888 0.103838 -0.103969 0.000229435
-2.99767e-29 0.016046 0.0174447 0.182559 -0.123854 0.00220448
1.0842e-19 0.017296 0.0162494 0.178844 -0.126018 0.0021639
-1.91538e-20 0.016046 0.0175 0.182706 -0.12377 0.00220848
-1.0842e-19 -0.000204 0.02375 0.204361 -0.110577 0.00200269
0 0.018546 0.0149988 0.17471 -0.128209 0.00206711
1.0842e-19 0.002296 0.02375 0.203356 -0.111196 0.00204448
-1.0842e-19 0.014796 0.01875 0.186534 -0.121538 0.00224962
0 -0.002704 0.02375 0.205352 -0.109946 0.00196265
-1.0842e-19 0.022296 0.008656 0.1527 -0.136463 0.00121974
1.65436e-24 -0.023954 9.64824e-09 5.11782e-07 -3.77297e-07 5.35245e-10
1.26218e-29 -0.016454 0.0174796 0.197346 -0.114756 0.00171226
-1.57772e-30 -0.016454 0.0175 0.197394 -0.114729 0.00171326
-4.44498e-20 0.023546 0.00479858 0.131921 -0.129959 0.000576554
-1.0842e-19 -0.017704 0.0162494 0.195064 -0.116054 0.0016543
-9.04137e-20 -0.023954 0.00233887 0.120551 -0.090074 0.000206038
-3.54881e-20 0.008546 0.0225 0.198052 -0.114476 0.00216822
1.0842e-19 0.019796 0.0137433 0.170533 -0.130418 0.00196449
0 -0.015204 0.01875 0.199748 -0.113387 0.001773
-1.91544e-20 0.013546 0.02 0.19011 -0.119343 0.00225153
0 -0.018954 0.0149988 0.192533 -0.117268 0.00156109
0 0.0189756 0.0149988 0.174479 -0.128315 0.00207406
-1.91544e-20 -0.008954 0.0225 0.205211 -0.110013 0.0018805
1.0842e-19 0.004796 0.02375 0.202338 -0.111803 0.00208819
1.0842e-19 -0.022704 0.008656 0.175884 -0.121856 0.000975967
-1.0842e-19 -0.005204 0.02375 0.20633 -0.109304 0.00192416
1.58401e-19 -0.013954 0.02 0.201929 -0.112031 0.00180591
6.90159e-20 -0.023954 0.00479858 0.154226 -0.11414 0.000499574
2.1684e-19 -0.020204 0.0137433 0.190021 -0.118464 0.00146921
-1.3697e-19 0.021046 0.0124878 0.166036 -0.132379 0.00181334
-1.0842e-19 0.012296 0.02125 0.193656 -0.117162 0.00225165
1.55749e-19 0.023546 0.00736572 0.146259 -0.136148 0.00101559
-1.0842e-19 -0.012704 0.02125 0.204133 -0.11066 0.00183919
0 -0.023954 0.00649991 0.164934 -0.11836 0.000718118
0 0.024796 0.00116943 0.0842031 -0.0840461 0.000113831
-3.23117e-27 -0.021454 0.0124878 0.18717 -0.119393 0.00135529
0 0.007296 0.02375 0.201307 -0.112398 0.00213394
1.0842e-19 0.022296 0.011217 0.161487 -0.134359 0.00165424
0 -0.007704 0.02375 0.207295 -0.108652 0.00188714
-1.91544e-20 0.001046 0.025 0.206344 -0.109232 0.00198532
8.08456e-20 -0.001454 0.025 0.207319 -0.10862 0.00194492
1.0842e-19 0.024796 0.00356872 0.122721 -0.124812 0.000355112
0 -0.023954 0.00736572 0.170384 -0.120508 0.000829336
8.08456e-20 0.011046 0.0225 0.196973 -0.115065 0.00221716
-1.0842e-19 -0.025204 0.00116944 0.0975077 -0.0713623 0.000102378
5.84013e-20 -0.011454 0.0225 0.206177 -0.109332 0.00184528
8.08456e-20 0.003546 0.025 0.205357 -0.109833 0.00202758
3.28979e-21 -0.003954 0.025 0.208281 -0.107996 0.00190618
1.0842e-19 -0.022704 0.011217 0.184318 -0.12031 0.00124315
7.88861e-30 0.018546 0.0173753 0.181121 -0.124566 0.00224753
1.0842e-19 -0.025204 0.00356872 0.144688 -0.108274 0.000309785
0 0.018546 0.0175 0.181457 -0.124374 0.002257
0 0.017296 0.01875 0.185328 -0.122134 0.00230053
1.0842e-19 0.024796 0.00608215 0.139852 -0.13584 0.000812078
1.18654e-21 0.023546 0.00994629 0.156349 -0.135725 0.00144427
1.0842e-19 0.019796 0.0162494 0.177551 -0.126631 0.00220956
1.58401e-19 0.016046 0.02 0.188944 -0.119932 0.00230326
0 0.009796 0.02375 0.200263 -0.11298 0.00218211
3.28979e-21 0.006046 0.025 0.204356 -0.110422 0.00207187
0 -0.017704 0.01875 0.200748 -0.112636 0.00174086
-5.83757e-29 -0.018954 0.0174859 0.198378 -0.113976 0.00168157
-9.67102e-20 -0.018954 0.0175 0.198411 -0.113957 0.00168225
3.28979e-21 -0.006454 0.025 0.20923 -0.107361 0.00186898
-1.12244e-19 0.021046 0.0149988 0.173367 -0.128829 0.00210755
1.0842e-19 -0.010204 0.02375 0.208245 -0.107989 0.00185131
-1.0842e-19 0.014796 0.02125 0.192529 -0.117744 0.00230389
-9.67102e-20 -0.016454 0.02 0.202913 -0.111302 0.00177302
0 -0.025204 0.00608215 0.164875 -0.119145 0.000686309
1.0842e-19 -0.020204 0.0162494 0.196097 -0.11526 0.0016243
1.29247e-26 -0.023954 0.00994629 0.180647 -0.12063 0.0011006
3.30872e-24 0.026046 1.67421e-08 7.64603e-07 -7.70275e-07 1.06255e-09
0 -0.015204 0.02125 0.205101 -0.109951 0.00180553
-1.18197e-19 0.026046 0.00233888 0.102774 -0.104561 0.000238463
0 -0.021454 0.0149988 0.193581 -0.11645 0.00153281
1.0842e-19 0.022296 0.0137433 0.169139 -0.131046 0.00199897
-1.0842e-19 -0.000204 0.02625 0.209309 -0.107281 0.00192667
1.58401e-19 0.013546 0.0225 0.195881 -0.11564 0.00226871
-1.0842e-19 0.024796 0.008656 0.15117 -0.137099 0.00122799
0 0.002296 0.02625 0.208352 -0.107876 0.00196745
0 -0.002704 0.02625 0.210255 -0.106675 0.00188769
3.28979e-21 0.008546 0.025 0.203344 -0.110998 0.00211842
0 -0.026454 1.03089e-08 5.49815e-07 -3.99262e-07 5.69676e-10
1.58401e-19 -0.013954 0.0225 0.20713 -0.108641 0.00181118
-2.36214e-20 0.026046 0.00479858 0.130525 -0.130606 0.000588529
-1.0842e-19 -0.022704 0.0137433 0.191083 -0.117622 0.0014426
-9.67102e-20 -0.008954 0.025 0.210165 -0.106716 0.00183312
0 -0.026454 0.00233887 0.121261 -0.0892672 0.000204503
-1.0842e-19 -0.025204 0.008656 0.176954 -0.120935 0.000960433
-1.97619e-20 0.023546 0.0124878 0.164592 -0.13301 0.00184015
-1.0842e-19 0.004796 0.02625 0.207382 -0.108458 0.0020102
-1.0842e-19 0.012296 0.02375 0.199206 -0.113549 0.00223284
0 -0.005204 0.02625 0.211187 -0.106058 0.00185025
-5.16988e-26 -0.026454 0.00479858 0.15518 -0.113197 0.000493855
0 -0.012704 0.02375 0.209183 -0.107317 0.00181674
0 -0.023954 0.0124878 0.188236 -0.11853 0.00133115
-1.29593e-20 0.026046 0.00736572 0.144743 -0.136777 0.00102402
0 0.024796 0.011217 0.159992 -0.134991 0.0016728
-1.0842e-19 0.007296 0.02625 0.206399 -0.109029 0.00205515
0 0.019796 0.01875 0.184106 -0.122715 0.00235402
1.58401e-19 0.018546 0.02 0.187763 -0.120506 0.00235772
1.0842e-19 0.027296 0.00116943 0.0833647 -0.0845672 0.000117707
8.08456e-20 0.011046 0.025 0.202318 -0.111562 0.0021675
1.29247e-26 -0.026454 0.00693693 0.16871 -0.118503 0.000763271
0 -0.007704 0.02625 0.212107 -0.105431 0.00181436
-1.91544e-20 0.021046 0.0175 0.18019 -0.124964 0.00230768
-1.0842e-19 0.017296 0.02125 0.191387 -0.118311 0.002359
-1.29247e-26 -0.026454 0.00736572 0.171423 -0.119567 0.000817295
8.08456e-20 -0.011454 0.025 0.211088 -0.106061 0.00179849
-1.91544e-20 0.001046 0.0275 0.21114 -0.106039 0.00188311
0 0.027296 0.00356872 0.121415 -0.125469 0.000371131
-1.91544e-20 -0.001454 0.0275 0.212069 -0.105451 0.00184432
3.28979e-21 -0.018954 0.02 0.203882 -0.110563 0.00174094
0 -0.020204 0.01875 0.201733 -0.111878 0.00170953
0 -0.025204 0.011217 0.185388 -0.119424 0.00122145
1.0842e-19 0.022296 0.0162494 0.176237 -0.127228 0.00225684
1.58401e-19 0.016046 0.0225 0.194776 -0.116201 0.00232318
0 -0.017704 0.02125 0.206054 -0.109233 0.00177271
-1.13596e-28 -0.021454 0.0174875 0.199382 -0.113192 0.00165128
-1.57772e-30 -0.021454 0.0175 0.199412 -0.113176 0.00165187
1.58401e-19 0.003546 0.0275 0.210198 -0.106617 0.00192377
1.0842e-19 -0.027704 0.00116943 0.0980328 -0.0706773 0.000102039
4.20665e-20 -0.003954 0.0275 0.212987 -0.104851 0.00180717
-1.57772e-30 -0.001454 0.027817 0.212622 -0.105082 0.00182527
-9.67102e-20 -0.016454 0.0225 0.208069 -0.107941 0.00177804
-1.225e-21 0.026046 0.00994629 0.154823 -0.136347 0.00145663
-2.8766e-20 0.023546 0.0149988 0.172001 -0.129434 0.00214875
0 -0.022704 0.0162494 0.197114 -0.114457 0.00159491
0 -0.027704 0.00356872 0.145567 -0.10734 0.000307084
-1.0842e-19 0.027296 0.00608215 0.138355 -0.136463 0.00082231
0 0.014796 0.02375 0.198135 -0.114104 0.00228648
0 0.009796 0.02625 0.205405 -0.109587 0.00210251
-1.91544e-20 0.006046 0.0275 0.209244 -0.107182 0.00196649
1.0842e-19 -0.010204 0.02625 0.213015 -0.104793 0.00177969
1.0842e-19 -0.015204 0.02375 0.210106 -0.106635 0.00178328
-9.67102e-20 -0.006454 0.0275 0.213892 -0.10424 0.00177154
0 -0.026454 0.00994629 0.181707 -0.119723 0.00108223
0 -0.023954 0.0149988 0.194612 -0.115623 0.0015051
-2.1684e-19 0.024796 0.0137433 0.167719 -0.131657 0.00203318
0 -0.027704 0.00608215 0.165884 -0.118186 0.000677603
-1.91544e-20 0.013546 0.025 0.201281 -0.112111 0.00221939
0 0.028546 1.77183e-08 8.01041e-07 -8.20291e-07 1.15353e-09
8.08456e-20 -0.013954 0.025 0.211997 -0.105397 0.001765
0 0.027296 0.008656 0.149617 -0.13771 0.00123446
4.87689e-20 0.028546 0.00233888 0.101706 -0.105153 0.000248294
0 -0.025204 0.0137433 0.192127 -0.116772 0.0014166
-1.0842e-19 -0.000204 0.0287506 0.213906 -0.104215 0.00179987
-9.67102e-20 0.008546 0.0275 0.208279 -0.107735 0.0020115
0 0.002296 0.0287506 0.212993 -0.104787 0.00183845
1.0842e-19 -0.002704 0.0287506 0.214808 -0.103632 0.00176304
3.25574e-20 0.026046 0.0124878 0.163121 -0.133621 0.00186571
8.08456e-20 -0.008954 0.0275 0.214786 -0.103619 0.00173726
-9.44979e-20 0.028546 0.00479858 0.129127 -0.131246 0.000601386
1.65436e-24 -0.028954 9.40763e-09 5.0441e-07 -3.60821e-07 5.18071e-10
-1.0842e-19 0.012296 0.02625 0.2044 -0.110131 0.00215256
0 -0.027704 0.00865601 0.178002 -0.120007 0.000945327
8.08456e-20 0.021046 0.02 0.186566 -0.121066 0.00241524
0 0.019796 0.02125 0.190231 -0.118864 0.00241735
-4.1359e-25 -0.028954 0.00233887 0.121953 -0.0884571 0.000203003
-1.0842e-19 0.022296 0.01875 0.182867 -0.123282 0.00241027
0 0.004796 0.0287506 0.212067 -0.105347 0.00187896
8.08456e-20 0.018546 0.0225 0.193656 -0.116748 0.00238091
-1.0842e-19 -0.012704 0.02625 0.213909 -0.104146 0.00174624
7.88861e-30 -0.008954 0.0277549 0.215218 -0.10333 0.00172274
-1.0842e-19 -0.005204 0.0287506 0.215699 -0.103038 0.00172771
0 -0.026454 0.0124878 0.189284 -0.117658 0.00130761
1.0842e-19 -0.020204 0.02125 0.206993 -0.108506 0.00174068
-1.91544e-20 -0.021454 0.02 0.204836 -0.109816 0.00170956
-1.9158e-20 0.023546 0.0175 0.178904 -0.125538 0.00236061
0 -0.028954 0.00479858 0.156114 -0.112248 0.000488207
0 0.017296 0.02375 0.197052 -0.114645 0.00234337
8.08456e-20 -0.018954 0.0225 0.208994 -0.107232 0.00174572
0 -0.022704 0.01875 0.202702 -0.111111 0.00167874
-1.39066e-19 0.028546 0.00736572 0.143213 -0.137385 0.00103097
-1.0842e-19 0.027296 0.011217 0.158469 -0.1356 0.00168893
-1.0842e-19 -0.017704 0.02375 0.211016 -0.105945 0.00175066
8.08456e-20 0.011046 0.0275 0.207303 -0.108275 0.00205906
-1.0842e-19 0.024796 0.0162494 0.174901 -0.12781 0.00230569
0 -0.028954 0.00637191 0.16612 -0.116153 0.000682678
4.57539e-29 -0.023954 0.0174875 0.200368 -0.112403 0.00162149
-1.0842e-19 0.007296 0.0287506 0.211131 -0.105894 0.00192163
0 -0.023954 0.0175 0.200396 -0.112387 0.00162208
-1.91544e-20 0.016046 0.025 0.20023 -0.112647 0.00227443
1.0842e-19 -0.007704 0.0287506 0.216577 -0.102434 0.00169381