# U  POINT_DATA 24995
# x  y  z  U_x  U_y  U_z
-7.89225e-09 0 0 0 0 0
0.00104601 -5.42101e-20 0 0 0 0
-0.00104602 1.0842e-19 0 0 0 0
0.00145399 -1.0842e-19 0 0 0 0
-0.001454 1.0842e-19 0 0 0 0
0.00125 -2.25875e-20 0.00116943 0.0866836 -0.0741048 0.00010451
-0.00125 0 0.00116944 0.0862805 -0.0736928 0.000105542
-2.4659e-10 1.0842e-19 0.00233887 0.112895 -0.0975429 0.000217714
-0.00250001 0 0 0 0 0
0.00250001 1.0842e-19 0 0 0 0
-0.0025 1.0842e-19 0.00233887 0.112443 -0.0968774 0.000218597
0.00250001 0 0.00233887 0.11336 -0.0982128 0.000216646
-0.00354601 -2.71051e-20 0 0 0 0
0.00354603 -5.42101e-20 0 0 0 0
-0.00125 1.807e-20 0.00356873 0.133545 -0.115823 0.000340573
0.00125 4.51751e-21 0.00356872 0.134028 -0.116728 0.000340076
-0.00375 1.807e-20 0.00116944 0.0858895 -0.073283 0.000106544
0.00375001 -9.03502e-21 0.00116943 0.0870992 -0.0745189 0.00010348
-0.00395399 -2.71051e-20 0 0 0 0
0.003954 -5.42101e-20 0 0 0 0
3.27698e-10 1.0842e-19 0.00479858 0.14399 -0.122773 0.000549991
-0.00499999 0 0 0 0 0
0.00500002 1.0842e-19 0 0 0 0
-0.00375 9.03502e-21 0.00356873 0.133073 -0.114925 0.000340834
0.00375 9.03502e-21 0.00356873 0.134522 -0.11764 0.00033911
-0.0025 1.0842e-19 0.00479858 0.143513 -0.121742 0.000546798
0.0025 1.0842e-19 0.00479858 0.144475 -0.123812 0.00055271
-0.005 1.0842e-19 0.00233887 0.112001 -0.0962162 0.000219425
0.00500001 0 0.00233887 0.113836 -0.0988868 0.000215314
-0.006046 0 0 0 0 0
0.00604603 0 0 0 0 0
-0.00125 9.03502e-21 0.00608215 0.152958 -0.127412 0.000763631
0.00125 0 0.00608215 0.153436 -0.128564 0.000770696
-0.00625 9.03502e-21 0.00116944 0.0855092 -0.0728751 0.000107761
0.00625001 1.807e-20 0.00116944 0.0875271 -0.0749353 0.000102339
-0.00645398 0 0 0 0 0
0.006454 0 0 0 0 0
0.005 1.0842e-19 0.00479858 0.14497 -0.124861 0.00055482
-0.005 1.0842e-19 0.00479858 0.143045 -0.120721 0.000543275
0.00375 -9.03502e-21 0.00608215 0.153921 -0.129729 0.000777075
-0.00375 -9.03502e-21 0.00608215 0.152487 -0.126271 0.000756179
-0.00625 2.71051e-20 0.00356872 0.132609 -0.114032 0.000340874
0.00625 9.03502e-21 0.00356873 0.135028 -0.118558 0.000337636
9.90286e-11 1.0842e-19 0.00736572 0.159293 -0.129062 0.000945141
-0.00749999 0 0 0 0 0
0.00750001 1.0842e-19 0 0 0 0
0.0025 1.0842e-19 0.00736572 0.159776 -0.130269 0.00095721
-0.0025 1.0842e-19 0.00736572 0.158816 -0.127869 0.000932623
-0.0075 1.0842e-19 0.00233887 0.11157 -0.0955592 0.000220223
0.0075 0 0.00233887 0.114325 -0.0995649 0.000213762
-0.00854601 0 0 0 0 0
0.00854602 0 0 0 0 0
0.00625 9.03502e-21 0.00608215 0.154413 -0.130905 0.000782656
-0.00625 -9.03502e-21 0.00608215 0.152023 -0.125143 0.000748339
-0.00125 0 0.008656 0.164799 -0.12906 0.00111104
0.00125 3.61401e-20 0.00865601 0.165283 -0.130299 0.00112896
-0.00875 0 0.00116943 0.085139 -0.0724692 0.000108975
0.00875 0 0.00116944 0.0879678 -0.0753537 0.000101195
0.005 1.0842e-19 0.00736572 0.160266 -0.131489 0.000968662
-0.005 1.0842e-19 0.00736572 0.158346 -0.126689 0.000919826
0.0075 1.0842e-19 0.00479858 0.145474 -0.125919 0.000556349
-0.0075 1.0842e-19 0.00479858 0.142584 -0.119708 0.000539512
0.00895398 0 0 0 0 0
-0.00895399 2.71051e-20 0 0 0 0
0.00375 0 0.008656 0.165773 -0.131553 0.00114643
-0.00375 -1.807e-20 0.008656 0.164322 -0.127836 0.00109291
0.00875 1.807e-20 0.00356872 0.135544 -0.119482 0.000335786
-0.00875 1.807e-20 0.00356872 0.132154 -0.113147 0.000340779
4.41108e-12 1.0842e-19 0.00994629 0.169424 -0.128856 0.00128865
0.00999999 1.0842e-19 0 0 0 0
-0.01 1.0842e-19 0 0 0 0
0.0025 1.0842e-19 0.00994629 0.16992 -0.130108 0.00131241
-0.0025 1.0842e-19 0.00994629 0.168934 -0.12762 0.00126486
-0.01 0 0.00233887 0.111148 -0.0949065 0.000220927
0.01 0 0.00233887 0.114826 -0.100246 0.000212159
0.0075 1.0842e-19 0.00736572 0.160762 -0.132724 0.000979444
-0.0075 1.0842e-19 0.00736572 0.157882 -0.125522 0.000906863
0.00875 2.71051e-20 0.00608215 0.154913 -0.132093 0.000787502
-0.00875 9.03502e-21 0.00608215 0.151566 -0.124025 0.000740312
-0.00625 -9.03502e-21 0.008656 0.163851 -0.126625 0.00107477
0.00625 -9.03502e-21 0.008656 0.166268 -0.132824 0.0011634
0.011046 -2.71051e-20 0 0 0 0
-0.011046 5.42101e-20 0 0 0 0
0.01 1.0842e-19 0.00479858 0.145987 -0.126985 0.000557463
-0.01 1.0842e-19 0.00479858 0.142131 -0.118705 0.000535575
0.005 1.0842e-19 0.00994629 0.170422 -0.131376 0.00133599
-0.005 1.0842e-19 0.00994629 0.16845 -0.126399 0.00124118
-0.00125 -9.03502e-21 0.011217 0.173382 -0.127261 0.00143812
0.00125 0 0.011217 0.173885 -0.128506 0.00146788
0.01125 -9.03502e-21 0.00116943 0.088421 -0.0757731 0.000100189
-0.01125 -9.03502e-21 0.00116944 0.084778 -0.0720655 0.000110131
0.011454 -2.71051e-20 0 0 0 0
-0.011454 5.42101e-20 0 0 0 0
0.01125 -9.03502e-21 0.00356872 0.13607 -0.120411 0.000333795
-0.01125 0 0.00356872 0.131708 -0.112268 0.000340527
0.00375 9.03502e-21 0.011217 0.174394 -0.129767 0.00149777
-0.00375 2.71051e-20 0.011217 0.172884 -0.126032 0.00140869
-0.00875 9.03502e-21 0.008656 0.163384 -0.125431 0.00105662
0.00875 0 0.00865601 0.166769 -0.134109 0.00117975
0.01 1.0842e-19 0.00736572 0.161264 -0.133971 0.000989614
-0.01 1.0842e-19 0.00736572 0.157423 -0.124368 0.000893816
0.0075 1.0842e-19 0.00994629 0.170929 -0.132661 0.0013593
-0.0075 1.0842e-19 0.00994629 0.167972 -0.125193 0.0012177
-3.39195e-12 1.0842e-19 0.0124878 0.177239 -0.126409 0.00158046
0.0125 1.0842e-19 0 0 0 0
-0.0125 1.0842e-19 0 0 0 0
0.0125 0 0.00233887 0.115339 -0.10093 0.000210731
-0.0125 0 0.00233887 0.110736 -0.0942578 0.00022148
0.0025 1.0842e-19 0.0124878 0.177762 -0.127648 0.00161564
-0.0025 1.0842e-19 0.0124878 0.176724 -0.125186 0.00154587
0.01125 1.807e-20 0.00608215 0.15542 -0.133292 0.000791762
-0.01125 9.03502e-21 0.00608215 0.151114 -0.122919 0.000732136
0.00625 9.03502e-21 0.011217 0.174911 -0.131045 0.00152781
-0.00625 2.71051e-20 0.011217 0.172393 -0.124819 0.00137969
0.0125 1.0842e-19 0.00479858 0.146508 -0.128059 0.000558525
-0.0125 1.0842e-19 0.00479858 0.141684 -0.117711 0.000531436
0.005 1.0842e-19 0.0124878 0.17829 -0.128903 0.00165132
-0.005 1.0842e-19 0.0124878 0.176215 -0.123979 0.00151193
-0.013546 -5.42101e-20 0 0 0 0
0.013546 -5.42101e-20 0 0 0 0
-0.01375 -9.03502e-21 0.00116944 0.0844257 -0.0716634 0.00011117
0.01375 9.03502e-21 0.00116944 0.0888858 -0.0761924 9.93832e-05
0.00125 -9.03502e-21 0.0137433 0.181038 -0.125495 0.00172191
-0.00125 -9.03502e-21 0.0137433 0.180502 -0.12428 0.001682
-0.013954 -5.42101e-20 0 0 0 0
0.013954 -5.42101e-20 0 0 0 0
0.01 1.0842e-19 0.00994629 0.171442 -0.133961 0.00138233
-0.01 1.0842e-19 0.00994629 0.1675 -0.124002 0.00119446
0.01125 9.03502e-21 0.008656 0.167274 -0.13541 0.00119549
-0.01125 -9.03502e-21 0.008656 0.162923 -0.124249 0.00103853
-0.01375 -9.03502e-21 0.00356873 0.131269 -0.111395 0.000340006
0.01375 9.03502e-21 0.00356872 0.136607 -0.121343 0.000332109
0.00875 -9.03502e-21 0.011217 0.175432 -0.13234 0.00155788
-0.00875 -9.03502e-21 0.011217 0.171908 -0.123621 0.00135113
0.00375 -9.03502e-21 0.0137433 0.18158 -0.126726 0.00176278
-0.00375 -9.03502e-21 0.0137433 0.179974 -0.123081 0.00164298
0.0125 1.0842e-19 0.00736572 0.161772 -0.135232 0.00099944
-0.0125 1.0842e-19 0.00736572 0.15697 -0.123227 0.000880711
0.0075 1.0842e-19 0.0124878 0.178826 -0.130175 0.00168748
-0.0075 1.0842e-19 0.0124878 0.175713 -0.122787 0.00147869
-5.62215e-13 1.0842e-19 0.0149988 0.184036 -0.123146 0.00179578
0.015 1.0842e-19 0 0 0 0
-0.015 1.0842e-19 0 0 0 0
0.01375 1.807e-20 0.00608215 0.155933 -0.134501 0.000795916
-0.01375 -9.03502e-21 0.00608215 0.150668 -0.121824 0.000723776
0.00625 1.807e-20 0.0137433 0.18213 -0.127973 0.00180443
-0.00625 9.03502e-21 0.0137433 0.179454 -0.121897 0.00160494
0.015 0 0.00233887 0.115862 -0.101614 0.000209834
-0.015 0 0.00233887 0.110332 -0.0936133 0.000221892
0.0025 1.0842e-19 0.0149988 0.184593 -0.124345 0.00184023
-0.0025 1.0842e-19 0.0149988 0.183486 -0.121962 0.00175254
0.015 1.0842e-19 0.00479858 0.147037 -0.129138 0.000560221
-0.015 1.0842e-19 0.00479858 0.141245 -0.116725 0.000527123
0.005 1.0842e-19 0.0149988 0.185159 -0.12556 0.00188591
-0.005 1.0842e-19 0.0149988 0.182945 -0.120793 0.00171049
0.01125 9.03502e-21 0.011217 0.175958 -0.133653 0.00158793
-0.01125 0 0.011217 0.171428 -0.122437 0.00132306
0.0125 1.0842e-19 0.00994629 0.171959 -0.135278 0.00140514
-0.0125 1.0842e-19 0.00994629 0.167032 -0.122825 0.0011715
0.01 1.0842e-19 0.0124878 0.179367 -0.131464 0.0017241
-0.01 1.0842e-19 0.0124878 0.175217 -0.12161 0.00144613
0.016046 2.71051e-20 0 0 0 0
-0.016046 2.71051e-20 0 0 0 0
-0.01375 -2.71051e-20 0.008656 0.162467 -0.123082 0.00102056
0.01375 -9.03502e-21 0.008656 0.167786 -0.136726 0.00121097
-0.01625 -9.03502e-21 0.00116944 0.0840824 -0.0712633 0.000112165
0.01625 0 0.00116943 0.0893601 -0.0766097 9.89153e-05
0.00875 -2.71051e-20 0.0137433 0.182686 -0.129237 0.00184703
-0.00875 9.03502e-21 0.0137433 0.178941 -0.120727 0.00156783
0.00125 0 0.0162494 0.187555 -0.121973 0.00190784
-0.00125 1.807e-20 0.0162494 0.186982 -0.120805 0.00186028
-0.016454 2.71051e-20 0 0 0 0
0.016454 -8.13152e-20 0 0 0 0
0.01625 9.03502e-21 0.00356872 0.137152 -0.122277 0.000331523
-0.01625 0 0.00356873 0.130838 -0.11053 0.000339353
-0.00375 1.807e-20 0.0162494 0.186419 -0.119652 0.00181418
0.00375 -9.03502e-21 0.0162494 0.188136 -0.123156 0.00195691
0.015 1.0842e-19 0.00736572 0.162284 -0.136504 0.00100946
-0.015 1.0842e-19 0.00736572 0.156522 -0.122098 0.000867598
0.0075 1.0842e-19 0.0149988 0.185733 -0.126791 0.00193284
-0.0075 1.0842e-19 0.0149988 0.182412 -0.119638 0.00166962
0.01625 -9.03502e-21 0.00608215 0.156451 -0.135719 0.000800917
-0.01625 -9.03502e-21 0.00608215 0.150228 -0.120741 0.000715346
0.00625 9.03502e-21 0.0162494 0.188727 -0.124354 0.00200757
-0.00625 -9.03502e-21 0.0162494 0.185865 -0.118513 0.00176951
-0.0175 -2.1684e-19 0 0 0 0
0.0175 -1.0842e-19 0 0 0 0
-1.02399e-14 1.0842e-19 0.0175 0.190306 -0.11956 0.00193839
-0.0175 0 0.00233887 0.109936 -0.092973 0.000222266
0.0175 1.0842e-19 0.00233887 0.116393 -0.102297 0.000209951
0.0125 1.0842e-19 0.0124878 0.179915 -0.132772 0.00176116
-0.0125 1.0842e-19 0.0124878 0.174728 -0.120447 0.00141427
0.0025 1.0842e-19 0.0175 0.190902 -0.120709 0.00198934
-0.0025 1.0842e-19 0.0175 0.18972 -0.118426 0.00188914
0.01375 -9.03502e-21 0.011217 0.17649 -0.134983 0.001618
-0.01375 -9.03502e-21 0.011217 0.170954 -0.121268 0.00129553
0.01125 -1.807e-20 0.0137433 0.183251 -0.130519 0.00189054
-0.01125 -9.03502e-21 0.0137433 0.178435 -0.119573 0.00153163
0.015 1.0842e-19 0.00994629 0.172482 -0.136612 0.00142793
-0.015 1.0842e-19 0.00994629 0.166571 -0.121662 0.00114886
0.01 1.0842e-19 0.0149988 0.186315 -0.128039 0.00198108
-0.01 1.0842e-19 0.0149988 0.181886 -0.118497 0.00162989
0.0175 1.0842e-19 0.00479858 0.147571 -0.130221 0.000563528
-0.0175 1.0842e-19 0.00479858 0.140812 -0.115749 0.000522754
0.005 1.0842e-19 0.0175 0.191507 -0.121872 0.0020421
-0.005 1.0842e-19 0.0175 0.189144 -0.117305 0.00184152
0.01625 -9.03502e-21 0.008656 0.1683 -0.138056 0.00122662
-0.01625 9.03502e-21 0.008656 0.162017 -0.121928 0.00100272
0.00875 -2.71051e-20 0.0162494 0.189327 -0.125567 0.00205989
-0.00875 -1.807e-20 0.0162494 0.185319 -0.117388 0.00172619
0.018546 -5.42101e-20 0 0 0 0
-0.018546 -1.35525e-19 0 0 0 0
0.01875 0 0.00116943 0.0898421 -0.0770238 9.896e-05
-0.01875 0 0.00116944 0.0837473 -0.0708647 0.000113238
0.00125 2.71051e-20 0.01875 0.193625 -0.118292 0.00201338
-0.00125 9.03502e-21 0.01875 0.193016 -0.117177 0.001961
-0.018954 -1.35525e-19 0 0 0 0
0.018954 -5.42101e-20 0 0 0 0
0.0175 1.0842e-19 0.00736572 0.162801 -0.137787 0.00102047
-0.0175 1.0842e-19 0.00736572 0.15608 -0.120982 0.000854567
0.0075 1.0842e-19 0.0175 0.192123 -0.123049 0.00209676
-0.0075 1.0842e-19 0.0175 0.188578 -0.116198 0.00179547
0.01875 1.807e-20 0.00356872 0.137704 -0.123212 0.000332972
-0.01875 0 0.00356873 0.130415 -0.10967 0.00033865
0.00375 -1.807e-20 0.01875 0.194245 -0.11942 0.00206771
-0.00375 9.03502e-21 0.01875 0.192418 -0.116074 0.00191041
0.01375 -9.03502e-21 0.0137433 0.183821 -0.131819 0.00193492
-0.01375 -9.03502e-21 0.0137433 0.177936 -0.118432 0.00149633
0.015 1.0842e-19 0.0124878 0.180468 -0.134096 0.00179865
-0.015 1.0842e-19 0.0124878 0.174245 -0.119299 0.00138314
0.0125 1.0842e-19 0.0149988 0.186905 -0.129304 0.00203066
-0.0125 1.0842e-19 0.0149988 0.181369 -0.117371 0.00159129
-0.01875 1.807e-20 0.00608215 0.149794 -0.119668 0.000706947
0.01875 -1.807e-20 0.00608215 0.156973 -0.136942 0.000807981
-0.01625 -2.71051e-20 0.011217 0.170485 -0.120113 0.00126854
0.01625 -1.807e-20 0.011217 0.177027 -0.136331 0.00164814
0.01125 -1.807e-20 0.0162494 0.189937 -0.126797 0.00211396
-0.01125 -1.807e-20 0.0162494 0.184781 -0.116277 0.00168424
-0.00625 9.03502e-21 0.01875 0.19183 -0.114986 0.00186164
0.00625 -1.807e-20 0.01875 0.194876 -0.120562 0.00212419
-0.02 -2.1684e-19 0 0 0 0
0.02 -1.0842e-19 0 0 0 0
-1.024e-14 1.0842e-19 0.02 0.196159 -0.115919 0.0020092
0.0175 1.0842e-19 0.00994629 0.173008 -0.13796 0.00145095
-0.0175 1.0842e-19 0.00994629 0.166114 -0.120513 0.00112659
0.02 1.0842e-19 0.00233887 0.116931 -0.102978 0.000211467
-0.02 0 0.00233887 0.109549 -0.0923365 0.000222633
0.01 1.0842e-19 0.0175 0.19275 -0.124242 0.00215343
0.0025 1.0842e-19 0.02 0.19679 -0.117014 0.00206397
-0.0025 1.0842e-19 0.02 0.195539 -0.114836 0.00195647
-0.01 1.0842e-19 0.0175 0.188021 -0.115104 0.00175092
0.02 1.0842e-19 0.00479858 0.148111 -0.131308 0.000569541
-0.02 1.0842e-19 0.00479858 0.140386 -0.114781 0.000518394
0.005 1.0842e-19 0.02 0.197433 -0.118122 0.00212093
-0.005 1.0842e-19 0.02 0.19493 -0.113766 0.00190567
0.01875 9.03502e-21 0.008656 0.168818 -0.1394 0.00124294
-0.01875 2.71051e-20 0.008656 0.161571 -0.120788 0.000985145
-0.00875 1.807e-20 0.01875 0.191252 -0.113909 0.00181454
0.00875 -1.807e-20 0.01875 0.195519 -0.121719 0.00218289
0.021046 -5.42101e-20 0 0 0 0
-0.021046 -1.35525e-19 0 0 0 0
0.015 1.0842e-19 0.0149988 0.187503 -0.130587 0.00208157
-0.015 1.0842e-19 0.0149988 0.180858 -0.116258 0.00155379
0.02125 0 0.00116943 0.0903297 -0.0774337 9.93013e-05
-0.02125 0 0.00116944 0.0834203 -0.0704679 0.000114266
0.01625 0 0.0137433 0.184398 -0.133137 0.00198016
-0.01625 2.71051e-20 0.0137433 0.177443 -0.117305 0.00146195
0.01375 -9.03502e-21 0.0162494 0.190555 -0.128044 0.00216983
-0.01375 -9.03502e-21 0.0162494 0.184252 -0.115179 0.00164359
0.00125 1.807e-20 0.02125 0.199298 -0.114647 0.00205366
-0.00125 -9.03502e-21 0.02125 0.198655 -0.113585 0.00199885
0.02 1.0842e-19 0.00736572 0.163322 -0.139079 0.00103339
-0.02 1.0842e-19 0.00736572 0.155643 -0.119878 0.000841672
0.0075 1.0842e-19 0.02 0.198089 -0.119243 0.00218026
-0.0075 1.0842e-19 0.02 0.194332 -0.112708 0.00185672
-0.021454 -1.35525e-19 0 0 0 0
0.021454 -5.42101e-20 0 0 0 0
0.0175 1.0842e-19 0.0124878 0.181026 -0.135439 0.00183658
-0.0175 1.0842e-19 0.0124878 0.173768 -0.118164 0.00135273
0.0125 1.0842e-19 0.0175 0.193386 -0.125451 0.00221222
-0.0125 1.0842e-19 0.0175 0.187473 -0.114022 0.00170784
0.02125 2.71051e-20 0.00356873 0.138261 -0.124146 0.000337353
-0.02125 0 0.00356873 0.129999 -0.108817 0.000337961
-0.00375 1.807e-20 0.02125 0.198025 -0.112533 0.00194608
0.00375 -9.03502e-21 0.02125 0.199952 -0.115722 0.00211074
0.01875 -9.03502e-21 0.011217 0.177566 -0.137696 0.00167845
-0.01875 0 0.011217 0.170023 -0.118973 0.00124207
-0.01125 1.807e-20 0.01875 0.190684 -0.112845 0.00176907
0.01125 9.03502e-21 0.01875 0.196172 -0.12289 0.00224395
0.02125 0 0.00608215 0.157499 -0.138172 0.000818485
-0.02125 1.807e-20 0.00608215 0.149365 -0.118607 0.000698612
0.00625 -1.807e-20 0.02125 0.200619 -0.116809 0.00217026
-0.00625 -9.03502e-21 0.02125 0.197407 -0.111494 0.00189536
0.02 1.0842e-19 0.00994629 0.173537 -0.139323 0.00147455
-0.02 1.0842e-19 0.00994629 0.165663 -0.119378 0.00110471
0.01 1.0842e-19 0.02 0.198756 -0.120378 0.00224213
-0.01 1.0842e-19 0.02 0.193745 -0.111662 0.00180952
0.0225 -1.0842e-19 0 0 0 0
-0.0225 -2.1684e-19 0 0 0 0
-1.02402e-14 1.0842e-19 0.0225 0.201631 -0.112366 0.00201759
0.0225 1.0842e-19 0.00233887 0.117474 -0.103658 0.000214477
-0.0225 0 0.00233887 0.10917 -0.0917042 0.000222944
0.0025 1.0842e-19 0.0225 0.202295 -0.113409 0.00207383
-0.0025 1.0842e-19 0.0225 0.20098 -0.111335 0.0019636
0.02125 9.03502e-21 0.008656 0.16934 -0.140753 0.00126061
-0.02125 0 0.008656 0.161131 -0.119661 0.00096776
0.01625 0 0.0162494 0.191182 -0.129309 0.00222754
-0.01625 -9.03502e-21 0.0162494 0.183732 -0.114093 0.00160424
-0.00875 9.03502e-21 0.02125 0.196799 -0.110467 0.0018465
0.00875 2.71051e-20 0.02125 0.2013 -0.117909 0.00223243
0.0225 1.0842e-19 0.00479858 0.148657 -0.1324 0.000579232
-0.0225 1.0842e-19 0.00479858 0.139966 -0.113821 0.000514028
0.0175 1.0842e-19 0.0149988 0.188108 -0.131887 0.00213381
-0.0175 1.0842e-19 0.0149988 0.180356 -0.115158 0.00151739
0.005 1.0842e-19 0.0225 0.202972 -0.114464 0.00213252
-0.005 1.0842e-19 0.0225 0.200342 -0.110314 0.00191172
0.015 1.0842e-19 0.0175 0.194032 -0.126676 0.00227322
-0.015 1.0842e-19 0.0175 0.186934 -0.112953 0.00166618
-0.01875 -1.807e-20 0.0137433 0.176957 -0.116192 0.00142855
0.01875 -1.807e-20 0.0137433 0.18498 -0.134473 0.0020262
-0.01375 9.03502e-21 0.01875 0.190126 -0.111793 0.00172515
0.01375 -1.807e-20 0.01875 0.196837 -0.124076 0.00230753
0.023546 -2.71051e-20 0 0 0 0
-0.023546 -1.35525e-19 0 0 0 0
0.02 1.0842e-19 0.0124878 0.181588 -0.1368 0.00187493
-0.02 1.0842e-19 0.0124878 0.173297 -0.117043 0.00132309
0.0125 1.0842e-19 0.02 0.199436 -0.121528 0.0023067
-0.0125 1.0842e-19 0.02 0.193168 -0.110627 0.001764
0.0225 1.0842e-19 0.00736572 0.163848 -0.140381 0.00104923
-0.0225 1.0842e-19 0.00736572 0.155211 -0.118786 0.000828928
0.0075 1.0842e-19 0.0225 0.203663 -0.115531 0.00219387
-0.0075 1.0842e-19 0.0225 0.199715 -0.109304 0.00186182
0.02375 0 0.00116943 0.0908209 -0.0778388 9.94163e-05
-0.02375 0 0.00116944 0.0831012 -0.0700728 0.00011524
0.00125 2.71051e-20 0.02375 0.204604 -0.11114 0.0020318
-0.00125 -1.807e-20 0.02375 0.203931 -0.110128 0.00197668
-0.023954 -1.35525e-19 0 0 0 0
0.023954 -2.71051e-20 0 0 0 0
0.02375 -2.71051e-20 0.00356873 0.138825 -0.125084 0.000345245
-0.02375 -9.03502e-21 0.00356873 0.129592 -0.107971 0.000337162
-0.02125 -9.03502e-21 0.011217 0.169566 -0.117846 0.00121623
0.02125 -9.03502e-21 0.011217 0.17811 -0.139076 0.00170904
0.01125 -1.807e-20 0.02125 0.201994 -0.119022 0.00229744
-0.01125 9.03502e-21 0.02125 0.196203 -0.10945 0.00179943
0.00375 -9.03502e-21 0.02375 0.20529 -0.112164 0.00208938
-0.00375 -9.03502e-21 0.02375 0.203272 -0.109126 0.00192379
-0.02375 -1.807e-20 0.00608215 0.148942 -0.117556 0.000690327
0.02375 0 0.00608215 0.158032 -0.13941 0.000833665
0.00625 2.71051e-20 0.02375 0.20599 -0.113199 0.00214953
-0.00625 -1.807e-20 0.02375 0.202626 -0.108135 0.00187299
0.0225 1.0842e-19 0.00994629 0.174072 -0.1407 0.0014991
-0.0225 1.0842e-19 0.00994629 0.165218 -0.118256 0.00108328
0.01 1.0842e-19 0.0225 0.204367 -0.11661 0.00225811
-0.01 1.0842e-19 0.0225 0.1991 -0.108305 0.00181381
0.0175 1.0842e-19 0.0175 0.194689 -0.127918 0.00233651
-0.0175 1.0842e-19 0.0175 0.186403 -0.111896 0.00162589
0.01875 9.03502e-21 0.0162494 0.191818 -0.13059 0.00228711
-0.01875 1.807e-20 0.0162494 0.183219 -0.113019 0.00156611
0.01625 9.03502e-21 0.01875 0.197513 -0.125279 0.00237377
-0.01625 9.03502e-21 0.01875 0.189577 -0.110752 0.00168272
0.02 1.0842e-19 0.0149988 0.18872 -0.133207 0.00218732
-0.02 1.0842e-19 0.0149988 0.17986 -0.114071 0.00148208
0.015 1.0842e-19 0.02 0.200127 -0.122691 0.00237414
-0.015 1.0842e-19 0.02 0.192601 -0.109604 0.00172009
-0.025 -2.1684e-19 0 0 0 0
0.025 -1.0842e-19 0 0 0 0
-1.02403e-14 1.0842e-19 0.025 0.206752 -0.108976 0.00196842
-0.025 0 0.00233887 0.108798 -0.0910758 0.000223197
0.025 1.0842e-19 0.00233887 0.118025 -0.104339 0.000218662
0.0025 1.0842e-19 0.025 0.207446 -0.10997 0.00202408
-0.0025 1.0842e-19 0.025 0.206073 -0.107992 0.00191511
-0.02375 0 0.008656 0.160696 -0.118547 0.000950681
0.02375 -1.807e-20 0.00865601 0.169867 -0.14212 0.00128043
-0.02125 -1.807e-20 0.0137433 0.176479 -0.115092 0.00139604
0.02125 -1.807e-20 0.0137433 0.185568 -0.135829 0.00207292
0.01375 1.807e-20 0.02125 0.2027 -0.120148 0.00236548
0.00875 1.807e-20 0.02375 0.206705 -0.114244 0.0022126
-0.01375 2.71051e-20 0.02125 0.195618 -0.108444 0.00175411
-0.00875 1.807e-20 0.02375 0.201992 -0.107153 0.00182412
0.025 1.0842e-19 0.00479858 0.149215 -0.133502 0.000593149
-0.025 1.0842e-19 0.00479858 0.139553 -0.11287 0.000509677
0.005 1.0842e-19 0.025 0.208154 -0.110974 0.00208232
-0.005 1.0842e-19 0.025 0.205407 -0.107018 0.00186397
0.0225 1.0842e-19 0.0124878 0.182156 -0.138178 0.00191364
-0.0225 1.0842e-19 0.0124878 0.172833 -0.115936 0.00129424
0.0125 1.0842e-19 0.0225 0.205086 -0.117701 0.00232544
-0.0125 1.0842e-19 0.0225 0.198497 -0.107316 0.0017676
0.026046 -5.42101e-20 0 0 0 0
-0.026046 -1.35525e-19 0 0 0 0
0.025 1.0842e-19 0.00736572 0.164385 -0.141696 0.00106873
-0.025 1.0842e-19 0.00736572 0.154785 -0.117706 0.000816386
0.0075 1.0842e-19 0.025 0.208876 -0.111989 0.00214336
-0.0075 1.0842e-19 0.025 0.204754 -0.106054 0.00181485
0.02375 -2.71051e-20 0.011217 0.178659 -0.140474 0.00173999
-0.02375 -9.03502e-21 0.011217 0.169115 -0.116733 0.00119102
0.02625 0 0.00116943 0.0913146 -0.0782387 9.84656e-05
-0.02625 1.807e-20 0.00116944 0.0827897 -0.0696794 0.000116155
0.00125 9.03502e-21 0.02625 0.209569 -0.107821 0.00195503
0.01125 -2.71051e-20 0.02375 0.207434 -0.115301 0.00227878
-0.01125 1.807e-20 0.02375 0.20137 -0.106182 0.00177715
-0.00125 -9.03502e-21 0.02625 0.208868 -0.106856 0.00190146
-0.026454 -1.35525e-19 0 0 0 0
0.026454 -5.42101e-20 0 0 0 0
0.02625 -1.807e-20 0.00356873 0.139401 -0.126033 0.000356553
-0.02625 0 0.00356873 0.129191 -0.107131 0.000336343
0.00375 -1.807e-20 0.02625 0.210284 -0.108796 0.00201111
-0.00375 9.03502e-21 0.02625 0.208183 -0.1059 0.00185017
0.01875 2.71051e-20 0.01875 0.198201 -0.126498 0.0024428
-0.01875 -1.807e-20 0.01875 0.189037 -0.109723 0.00164176
0.02 1.0842e-19 0.0175 0.195355 -0.129178 0.00240216
0.0175 1.0842e-19 0.02 0.200832 -0.12387 0.00244462
-0.0175 1.0842e-19 0.02 0.192044 -0.108592 0.00167774
-0.02 1.0842e-19 0.0175 0.185881 -0.11085 0.00158693
0.02125 9.03502e-21 0.0162494 0.192462 -0.131891 0.00234855
-0.02125 -9.03502e-21 0.0162494 0.182714 -0.111958 0.0015292
-0.01625 -1.807e-20 0.02125 0.195042 -0.107449 0.00171043
0.01625 2.71051e-20 0.02125 0.203421 -0.121289 0.00243675
0.025 1.0842e-19 0.00994629 0.174613 -0.142092 0.00152484
-0.025 1.0842e-19 0.00994629 0.164778 -0.117147 0.00106231
0.01 1.0842e-19 0.025 0.209614 -0.113014 0.00220746
-0.01 1.0842e-19 0.025 0.204113 -0.105099 0.00176766
0.02625 -1.807e-20 0.00608215 0.15858 -0.140662 0.000854257
-0.02625 1.807e-20 0.00608215 0.148526 -0.116515 0.000682193
0.00625 2.71051e-20 0.02625 0.211015 -0.109781 0.00206985
-0.00625 -9.03502e-21 0.02625 0.20751 -0.104953 0.00180094
0.0225 1.0842e-19 0.0149988 0.189339 -0.134545 0.00224198
-0.0225 1.0842e-19 0.0149988 0.179373 -0.112996 0.00144784
0.015 1.0842e-19 0.0225 0.205818 -0.118805 0.00239609
-0.015 1.0842e-19 0.0225 0.197904 -0.106337 0.00172312
0.02375 -1.807e-20 0.0137433 0.186162 -0.137203 0.00212009
-0.02375 0 0.0137433 0.176007 -0.114005 0.00136451
0.01375 -1.807e-20 0.02375 0.208178 -0.116371 0.0023483
-0.01375 -9.03502e-21 0.02375 0.200758 -0.10522 0.00173196
-0.0275 -2.1684e-19 0 0 0 0
0.0275 -1.0842e-19 0 0 0 0
-1.02403e-14 1.0842e-19 0.0275 0.211529 -0.105793 0.00186688
-0.0275 0 0.00233887 0.108435 -0.0904514 0.000223423
0.0275 1.0842e-19 0.00233887 0.118587 -0.105028 0.000223032
0.0025 1.0842e-19 0.0275 0.21225 -0.106741 0.00192018
-0.0025 1.0842e-19 0.0275 0.210822 -0.104855 0.00181592
0.02625 9.03502e-21 0.008656 0.170405 -0.1435 0.00130294
-0.02625 9.03502e-21 0.008656 0.160265 -0.117445 0.000933931
0.00875 9.03502e-21 0.02625 0.211761 -0.110775 0.00213157
-0.00875 9.03502e-21 0.02625 0.206851 -0.104016 0.00175367
0.0275 1.0842e-19 0.00479858 0.149796 -0.134626 0.000611013
-0.0275 1.0842e-19 0.00479858 0.139146 -0.111928 0.000505366
0.025 1.0842e-19 0.0124878 0.182728 -0.139574 0.00195251
-0.025 1.0842e-19 0.0124878 0.172375 -0.114841 0.00126616
0.0125 1.0842e-19 0.025 0.210368 -0.114051 0.00227485
0.005 1.0842e-19 0.0275 0.212987 -0.107697 0.00197605
-0.005 1.0842e-19 0.0275 0.21013 -0.103925 0.0017671
-0.0125 1.0842e-19 0.025 0.203485 -0.104154 0.0017223
0.02 1.0842e-19 0.02 0.201549 -0.125065 0.00251835
-0.02 1.0842e-19 0.02 0.191496 -0.10759 0.00163688
0.02125 1.807e-20 0.01875 0.1989 -0.127733 0.00251476
0.01875 -1.807e-20 0.02125 0.204155 -0.122444 0.00251151
-0.01875 1.807e-20 0.02125 0.194478 -0.106464 0.00166835
-0.02125 1.807e-20 0.01875 0.188506 -0.108706 0.00160225
0.0275 1.0842e-19 0.00736572 0.164941 -0.14303 0.00109192
-0.0275 1.0842e-19 0.00736572 0.154364 -0.116637 0.000804059
0.0225 1.0842e-19 0.0175 0.196032 -0.130455 0.00247019
0.0175 1.0842e-19 0.0225 0.206565 -0.119923 0.0024703
-0.0175 1.0842e-19 0.0225 0.197322 -0.105369 0.00168029
-0.0225 1.0842e-19 0.0175 0.185368 -0.109817 0.00154928
0.0075 1.0842e-19 0.0275 0.213739 -0.108663 0.00203474
-0.0075 1.0842e-19 0.0275 0.209452 -0.103004 0.00172027
0.028546 -5.42101e-20 0 0 0 0
-0.028546 -1.35525e-19 0 0 0 0
0.02625 -9.03502e-21 0.011217 0.179212 -0.141887 0.00177116
-0.02625 -9.03502e-21 0.011217 0.16867 -0.115632 0.00116634
0.01125 -1.807e-20 0.02625 0.212523 -0.11178 0.00219647
-0.01125 9.03502e-21 0.02625 0.206204 -0.103087 0.00170828
-0.02875 9.03502e-21 0.00116943 0.0824857 -0.0692874 0.000117085
0.02875 -9.03502e-21 0.00116943 0.0918113 -0.0786336 9.48784e-05
-0.02375 9.03502e-21 0.0162494 0.182217 -0.110909 0.00149349
0.02375 9.03502e-21 0.0162494 0.193115 -0.133211 0.00241173
0.01625 1.807e-20 0.02375 0.208938 -0.117452 0.00242143
-0.01625 -2.71051e-20 0.02375 0.200159 -0.104268 0.00168851
-0.00125 9.03502e-21 0.0287506 0.213453 -0.103812 0.0017761
0.00125 0 0.0287506 0.21418 -0.104732 0.00182651
-0.028954 -1.35525e-19 0 0 0 0
0.028954 -5.42101e-20 0 0 0 0
0.02875 -1.807e-20 0.00356873 0.140004 -0.127005 0.000370198
-0.02875 1.807e-20 0.00356872 0.128796 -0.106297 0.000335489
-0.00375 -1.807e-20 0.0287506 0.212741 -0.102899 0.00172788
0.00375 -1.807e-20 0.0287506 0.214923 -0.105662 0.00187932
0.025 1.0842e-19 0.0149988 0.189965 -0.135902 0.00229751
-0.025 1.0842e-19 0.0149988 0.178892 -0.111934 0.00141466
0.015 1.0842e-19 0.025 0.211137 -0.115099 0.0023458
-0.015 1.0842e-19 0.025 0.202868 -0.103218 0.0016787
0.0275 1.0842e-19 0.00994629 0.175165 -0.143501 0.00155158
-0.0275 1.0842e-19 0.00994629 0.164343 -0.11605 0.00104178
0.01 1.0842e-19 0.0275 0.214509 -0.109638 0.00209648
-0.01 1.0842e-19 0.0275 0.208787 -0.102092 0.00167534
0.02875 -9.03502e-21 0.00608215 0.159157 -0.141942 0.000880087
-0.02875 9.03502e-21 0.00608215 0.148114 -0.115485 0.000674138
0.00625 9.03502e-21 0.0287506 0.215682 -0.106599 0.0019348
-0.00625 -1.807e-20 0.0287506 0.212043 -0.101995 0.00168168
0.02625 9.03502e-21 0.0137433 0.186761 -0.138597 0.00216738
-0.02625 -1.807e-20 0.0137433 0.175543 -0.11293 0.0013339
0.01375 -1.807e-20 0.02625 0.213301 -0.112796 0.00226487
-0.01375 1.807e-20 0.02625 0.20557 -0.102167 0.00166466
-0.03 -2.1684e-19 0 0 0 0
0.03 -1.0842e-19 0 0 0 0
-1.49751e-13 1.0842e-19 0.0300012 0.215914 -0.102876 0.001715
0.02875 -9.03502e-21 0.008656 0.170961 -0.144899 0.00132768
-0.02875 -1.807e-20 0.008656 0.159841 -0.116356 0.000917489
0.02125 1.807e-20 0.02125 0.204902 -0.123613 0.00258999
-0.02125 1.807e-20 0.02125 0.193923 -0.105489 0.00162772
0.00875 9.03502e-21 0.0287506 0.216458 -0.107547 0.00199316
-0.00875 -1.807e-20 0.0287506 0.211359 -0.101099 0.00163737
-0.03 0 0.00233887 0.108078 -0.0898308 0.000223639
0.03 1.0842e-19 0.00233887 0.119173 -0.105734 0.000225901
0.0225 1.0842e-19 0.02 0.202279 -0.126276 0.00259551
0.02 1.0842e-19 0.0225 0.207327 -0.121054 0.00254837
-0.02 1.0842e-19 0.0225 0.196751 -0.10441 0.00163902
-0.0225 1.0842e-19 0.02 0.190958 -0.106599 0.00159742
0.0025 1.0842e-19 0.0300012 0.216663 -0.103779 0.0017643
-0.0025 1.0842e-19 0.0300012 0.215181 -0.10198 0.00166793
0.0275 1.0842e-19 0.0124878 0.183307 -0.140989 0.00199111
-0.0275 1.0842e-19 0.0124878 0.171924 -0.113759 0.00123883
0.0125 1.0842e-19 0.0275 0.215294 -0.110623 0.00216154
-0.0125 1.0842e-19 0.0275 0.208135 -0.101188 0.00163219
0.02375 9.03502e-21 0.01875 0.19961 -0.128986 0.00258973
0.01875 1.807e-20 0.02375 0.209713 -0.118546 0.00249845
-0.02375 -1.807e-20 0.01875 0.187985 -0.107699 0.00156404
-0.01875 9.03502e-21 0.02375 0.199571 -0.103325 0.00164667
0.03 1.0842e-19 0.00479858 0.150417 -0.13579 0.000631001
-0.03 1.0842e-19 0.00479858 0.138745 -0.110994 0.000501094
0.005 1.0842e-19 0.0300012 0.217427 -0.104691 0.00181606
-0.005 1.0842e-19 0.0300012 0.214464 -0.101092 0.00162288
0.025 1.0842e-19 0.0175 0.196718 -0.131751 0.00254052
0.0175 1.0842e-19 0.025 0.211922 -0.116158 0.00242061
-0.0175 1.0842e-19 0.025 0.202263 -0.102291 0.00163676
-0.025 1.0842e-19 0.0175 0.184863 -0.108795 0.00151286
0.02875 2.71051e-20 0.011217 0.179776 -0.143318 0.00180218
-0.02875 -9.03502e-21 0.011217 0.168231 -0.114544 0.00114227
-0.02625 -9.03502e-21 0.0162494 0.181728 -0.109872 0.00145894
0.02625 1.807e-20 0.0162494 0.193775 -0.13455 0.00247642
0.01625 -1.807e-20 0.02625 0.214096 -0.113821 0.00233702
-0.01625 2.71051e-20 0.02625 0.204948 -0.101256 0.00162276
0.01125 9.03502e-21 0.0287506 0.217251 -0.108502 0.00205464
-0.01125 -1.807e-20 0.0287506 0.210689 -0.100211 0.00159486
0.03 1.0842e-19 0.00736572 0.16553 -0.144395 0.00111729
-0.03 1.0842e-19 0.00736572 0.153949 -0.11558 0.000791951
0.0075 1.0842e-19 0.0300012 0.218209 -0.105611 0.0018705
-0.0075 1.0842e-19 0.0300012 0.213761 -0.100212 0.00157972
0.031046 0 0 0 0 0
-0.031046 -1.35525e-19 0 0 0 0
0.03125 9.03502e-21 0.00116943 0.0923179 -0.0790279 8.74374e-05
-0.03125 9.03502e-21 0.00116943 0.082189 -0.068897 0.000118027
-0.00125 -9.03502e-21 0.0312567 0.217608 -0.101068 0.00160171
0.00125 -2.71051e-20 0.0312567 0.218362 -0.101947 0.00164741
0.0275 1.0842e-19 0.0149988 0.190597 -0.137279 0.00235352
-0.0275 1.0842e-19 0.0149988 0.178419 -0.110883 0.00138251
0.015 1.0842e-19 0.0275 0.216097 -0.111617 0.00223022