# UMean  POINT_DATA 24995
# x  y  z  UMean_x  UMean_y  UMean_z
-7.89225e-09 0 0 0 0 0
0.00104601 -5.42101e-20 0 0 0 0
-0.00104602 1.0842e-19 0 0 0 0
0.00145399 -1.0842e-19 0 0 0 0
-0.001454 1.0842e-19 0 0 0 0
0.00125 -2.25875e-20 0.00116943 0.0870485 -0.0739461 0.00012368
-0.00125 0 0.00116944 0.0866525 -0.0735196 0.000120403
-2.4659e-10 1.0842e-19 0.00233887 0.113442 -0.0974673 0.00026298
-0.00250001 0 0 0 0 0
0.00250001 1.0842e-19 0 0 0 0
-0.0025 1.0842e-19 0.00233887 0.11298 -0.0967734 0.000257166
0.00250001 0 0.00233887 0.113924 -0.0981755 0.000266663
-0.00354601 -2.71051e-20 0 0 0 0
0.00354603 -5.42101e-20 0 0 0 0
-0.00125 1.807e-20 0.00356873 0.134229 -0.11582 0.000413023
0.00125 4.51751e-21 0.00356872 0.134748 -0.116777 0.000419734
-0.00375 1.807e-20 0.00116944 0.0862744 -0.0731048 0.000116817
0.00375001 -9.03502e-21 0.00116943 0.0874626 -0.0743848 0.000126357
-0.00395399 -2.71051e-20 0 0 0 0
0.003954 -5.42101e-20 0 0 0 0
3.27698e-10 1.0842e-19 0.00479858 0.144808 -0.122833 0.000651909
-0.00499999 0 0 0 0 0
0.00500002 1.0842e-19 0 0 0 0
-0.00375 9.03502e-21 0.00356873 0.133732 -0.114879 0.000402337
0.00375 9.03502e-21 0.00356873 0.135288 -0.117751 0.000422302
-0.0025 1.0842e-19 0.00479858 0.144291 -0.121756 0.000639157
0.0025 1.0842e-19 0.00479858 0.145345 -0.123928 0.000659175
-0.005 1.0842e-19 0.00233887 0.112537 -0.0960947 0.000249813
0.00500001 0 0.00233887 0.114426 -0.0988961 0.000267804
-0.006046 0 0 0 0 0
0.00604603 0 0 0 0 0
-0.00125 9.03502e-21 0.00608215 0.153855 -0.127463 0.000889842
0.00125 0 0.00608215 0.154388 -0.128662 0.000904539
-0.00625 9.03502e-21 0.00116944 0.085912 -0.0727012 0.000113243
0.00625001 1.807e-20 0.00116944 0.0878962 -0.0748327 0.000128025
-0.00645398 0 0 0 0 0
0.006454 0 0 0 0 0
0.005 1.0842e-19 0.00479858 0.1459 -0.125038 0.000660153
-0.005 1.0842e-19 0.00479858 0.143794 -0.120698 0.000622107
0.00375 -9.03502e-21 0.00608215 0.15494 -0.129885 0.000911023
-0.00375 -9.03502e-21 0.00608215 0.15334 -0.126278 0.00086885
-0.00625 2.71051e-20 0.00356872 0.133255 -0.113961 0.000389268
0.00625 9.03502e-21 0.00356873 0.135847 -0.118737 0.000420089
9.90286e-11 1.0842e-19 0.00736572 0.160332 -0.129024 0.00107656
-0.00749999 0 0 0 0 0
0.00750001 1.0842e-19 0 0 0 0
0.0025 1.0842e-19 0.00736572 0.160873 -0.130265 0.00108948
-0.0025 1.0842e-19 0.00736572 0.159809 -0.127801 0.0010562
-0.0075 1.0842e-19 0.00233887 0.112112 -0.0954307 0.000241527
0.0075 0 0.00233887 0.114947 -0.0996249 0.00026617
-0.00854601 0 0 0 0 0
0.00854602 0 0 0 0 0
0.00625 9.03502e-21 0.00608215 0.155505 -0.131121 0.000908627
-0.00625 -9.03502e-21 0.00608215 0.152847 -0.125121 0.000842927
-0.00125 0 0.008656 0.165922 -0.128881 0.00124465
0.00125 3.61401e-20 0.00865601 0.166454 -0.130136 0.00126488
-0.00875 0 0.00116943 0.0855639 -0.0723072 0.00010975
0.00875 0 0.00116944 0.0883499 -0.0752873 0.000128134
0.005 1.0842e-19 0.00736572 0.161428 -0.131524 0.00109381
-0.005 1.0842e-19 0.00736572 0.159303 -0.126599 0.00102995
0.0075 1.0842e-19 0.00479858 0.146469 -0.126158 0.00065489
-0.0075 1.0842e-19 0.00479858 0.143317 -0.119661 0.000602123
0.00895398 0 0 0 0 0
-0.00895399 2.71051e-20 0 0 0 0
0.00375 0 0.008656 0.167003 -0.13141 0.00127646
-0.00375 -1.807e-20 0.008656 0.165406 -0.127647 0.00121737
0.00875 1.807e-20 0.00356872 0.136423 -0.119727 0.00041341
-0.00875 1.807e-20 0.00356872 0.132797 -0.113058 0.000374633
4.41108e-12 1.0842e-19 0.00994629 0.17067 -0.1285 0.00140853
0.00999999 1.0842e-19 0 0 0 0
-0.01 1.0842e-19 0 0 0 0
0.0025 1.0842e-19 0.00994629 0.171215 -0.129755 0.00142616
-0.0025 1.0842e-19 0.00994629 0.170138 -0.127263 0.00138339
-0.01 0 0.00233887 0.111702 -0.0947793 0.000232931
0.01 0 0.00233887 0.115487 -0.100358 0.000262001
0.0075 1.0842e-19 0.00736572 0.161995 -0.132796 0.00108955
-0.0075 1.0842e-19 0.00736572 0.158816 -0.125417 0.000999605
0.00875 2.71051e-20 0.00608215 0.156081 -0.132364 0.000898429
-0.00875 9.03502e-21 0.00608215 0.152374 -0.123983 0.00081408
-0.00625 -9.03502e-21 0.008656 0.164907 -0.126431 0.00118463
0.00625 -9.03502e-21 0.008656 0.167563 -0.132701 0.00127866
0.011046 -2.71051e-20 0 0 0 0
-0.011046 5.42101e-20 0 0 0 0
0.01 1.0842e-19 0.00479858 0.14705 -0.127281 0.00064437
-0.01 1.0842e-19 0.00479858 0.142858 -0.118643 0.000580645
0.005 1.0842e-19 0.00994629 0.171773 -0.131026 0.0014355
-0.005 1.0842e-19 0.00994629 0.16962 -0.126044 0.00135206
-0.00125 -9.03502e-21 0.011217 0.174691 -0.126725 0.00154925
0.00125 0 0.011217 0.175239 -0.127959 0.00157297
0.01125 -9.03502e-21 0.00116943 0.0888227 -0.0757452 0.000126717
-0.01125 -9.03502e-21 0.00116944 0.0852268 -0.0719212 0.000106785
0.011454 -2.71051e-20 0 0 0 0
-0.011454 5.42101e-20 0 0 0 0
0.01125 -9.03502e-21 0.00356872 0.137014 -0.120719 0.000403342
-0.01125 0 0.00356872 0.132356 -0.112173 0.000359659
0.00375 9.03502e-21 0.011217 0.175798 -0.12921 0.00158886
-0.00375 2.71051e-20 0.011217 0.174156 -0.125506 0.00151853
-0.00875 9.03502e-21 0.008656 0.164424 -0.125231 0.00114872
0.00875 0 0.00865601 0.168136 -0.134003 0.00127168
0.01 1.0842e-19 0.00736572 0.16257 -0.134076 0.00107772
-0.01 1.0842e-19 0.00736572 0.158346 -0.124253 0.000967062
0.0075 1.0842e-19 0.00994629 0.172342 -0.132312 0.00143643
-0.0075 1.0842e-19 0.00994629 0.169117 -0.124841 0.00131629
-3.39195e-12 1.0842e-19 0.0124878 0.178581 -0.125727 0.00166225
0.0125 1.0842e-19 0 0 0 0
-0.0125 1.0842e-19 0 0 0 0
0.0125 0 0.00233887 0.116043 -0.101091 0.000256125
-0.0125 0 0.00233887 0.111306 -0.0941401 0.000224776
0.0025 1.0842e-19 0.0124878 0.179149 -0.126947 0.00168417
-0.0025 1.0842e-19 0.0124878 0.178024 -0.124522 0.00163346
0.01125 1.807e-20 0.00608215 0.156662 -0.133611 0.000881672
-0.01125 9.03502e-21 0.00608215 0.151919 -0.122868 0.000784374
0.00625 9.03502e-21 0.011217 0.176367 -0.130475 0.00159681
-0.00625 2.71051e-20 0.011217 0.173633 -0.124305 0.00148221
0.0125 1.0842e-19 0.00479858 0.147639 -0.128404 0.000630416
-0.0125 1.0842e-19 0.00479858 0.142416 -0.117644 0.000559314
0.005 1.0842e-19 0.0124878 0.179727 -0.128183 0.00169896
-0.005 1.0842e-19 0.0124878 0.177478 -0.123333 0.00159866
-0.013546 -5.42101e-20 0 0 0 0
0.013546 -5.42101e-20 0 0 0 0
-0.01375 -9.03502e-21 0.00116944 0.0848968 -0.0715416 0.000104575
0.01375 9.03502e-21 0.00116944 0.0893135 -0.0762037 0.000124184
0.00125 -9.03502e-21 0.0137433 0.182396 -0.12467 0.00177547
-0.00125 -9.03502e-21 0.0137433 0.181816 -0.123479 0.00174775
-0.013954 -5.42101e-20 0 0 0 0
0.013954 -5.42101e-20 0 0 0 0
0.01 1.0842e-19 0.00994629 0.17292 -0.133612 0.00142966
-0.01 1.0842e-19 0.00994629 0.168628 -0.123651 0.00127788
0.01125 9.03502e-21 0.008656 0.168715 -0.13532 0.00125701
-0.01125 -9.03502e-21 0.008656 0.163955 -0.124047 0.00111125
-0.01375 -9.03502e-21 0.00356873 0.131929 -0.111304 0.000345484
0.01375 9.03502e-21 0.00356872 0.137615 -0.121707 0.000391819
0.00875 -9.03502e-21 0.011217 0.176947 -0.131755 0.0015967
-0.00875 -9.03502e-21 0.011217 0.173124 -0.123115 0.00144229
0.00375 -9.03502e-21 0.0137433 0.182985 -0.125875 0.00179617
-0.00375 -9.03502e-21 0.0137433 0.181247 -0.122305 0.00171363
0.0125 1.0842e-19 0.00736572 0.163149 -0.135361 0.00106023
-0.0125 1.0842e-19 0.00736572 0.157891 -0.123107 0.000934326
0.0075 1.0842e-19 0.0124878 0.180314 -0.129433 0.0017068
-0.0075 1.0842e-19 0.0124878 0.176945 -0.122158 0.00155927
-5.62215e-13 1.0842e-19 0.0149988 0.1853 -0.122256 0.00182466
0.015 1.0842e-19 0 0 0 0
-0.015 1.0842e-19 0 0 0 0
0.01375 1.807e-20 0.00608215 0.157245 -0.134853 0.000861274
-0.01375 -9.03502e-21 0.00608215 0.15148 -0.121769 0.000756044
0.00625 1.807e-20 0.0137433 0.183584 -0.127095 0.0018103
-0.00625 9.03502e-21 0.0137433 0.18069 -0.121146 0.00167403
0.015 0 0.00233887 0.116612 -0.101821 0.000249875
-0.015 0 0.00233887 0.110918 -0.0935117 0.000217721
0.0025 1.0842e-19 0.0149988 0.185902 -0.123426 0.00185158
-0.0025 1.0842e-19 0.0149988 0.18471 -0.121101 0.00179201
0.015 1.0842e-19 0.00479858 0.148233 -0.129523 0.000615666
-0.015 1.0842e-19 0.00479858 0.141986 -0.116662 0.000539581
0.005 1.0842e-19 0.0149988 0.186514 -0.124611 0.00187267
-0.005 1.0842e-19 0.0149988 0.18413 -0.119961 0.00175426
0.01125 9.03502e-21 0.011217 0.177535 -0.133053 0.00158997
-0.01125 0 0.011217 0.172626 -0.121937 0.00140016
0.0125 1.0842e-19 0.00994629 0.173505 -0.134925 0.0014167
-0.0125 1.0842e-19 0.00994629 0.16815 -0.122477 0.00123858
0.01 1.0842e-19 0.0124878 0.180911 -0.130701 0.00170832
-0.01 1.0842e-19 0.0124878 0.176424 -0.120994 0.00151693
0.016046 2.71051e-20 0 0 0 0
-0.016046 2.71051e-20 0 0 0 0
-0.01375 -2.71051e-20 0.008656 0.163499 -0.122881 0.00107449
0.01375 -9.03502e-21 0.008656 0.169298 -0.136642 0.00123648
-0.01625 -9.03502e-21 0.00116944 0.084571 -0.0711657 0.000103279
0.01625 0 0.00116943 0.0898181 -0.0766584 0.000121479
0.00875 -2.71051e-20 0.0137433 0.184191 -0.12833 0.00181838
-0.00875 9.03502e-21 0.0137433 0.180145 -0.119998 0.00163051
0.00125 0 0.0162494 0.188759 -0.120999 0.00190268
-0.00125 1.807e-20 0.0162494 0.188145 -0.119867 0.00187046
-0.016454 2.71051e-20 0 0 0 0
0.016454 -8.13152e-20 0 0 0 0
0.01625 9.03502e-21 0.00356872 0.138224 -0.122687 0.000381324
-0.01625 0 0.00356873 0.131512 -0.110451 0.000333369
-0.00375 1.807e-20 0.0162494 0.187543 -0.118746 0.00183322
0.00375 -9.03502e-21 0.0162494 0.189385 -0.122151 0.00192972
0.015 1.0842e-19 0.00736572 0.163729 -0.136647 0.00103998
-0.015 1.0842e-19 0.00736572 0.157448 -0.121979 0.000903133
0.0075 1.0842e-19 0.0149988 0.187136 -0.125812 0.00188832
-0.0075 1.0842e-19 0.0149988 0.183563 -0.118833 0.00171258
0.01625 -9.03502e-21 0.00608215 0.157827 -0.136091 0.00084104
-0.01625 -9.03502e-21 0.00608215 0.151051 -0.120692 0.000730283
0.00625 9.03502e-21 0.0162494 0.190022 -0.123315 0.00195137
-0.00625 -9.03502e-21 0.0162494 0.186954 -0.11764 0.00179209
-0.0175 -2.1684e-19 0 0 0 0
0.0175 -1.0842e-19 0 0 0 0
-1.02399e-14 1.0842e-19 0.0175 0.191381 -0.118612 0.00190941
-0.0175 0 0.00233887 0.110537 -0.0928912 0.000212152
0.0175 1.0842e-19 0.00233887 0.117191 -0.102544 0.000244761
0.0125 1.0842e-19 0.0124878 0.181516 -0.131984 0.00170492
-0.0125 1.0842e-19 0.0124878 0.175913 -0.119843 0.00147323
0.0025 1.0842e-19 0.0175 0.192016 -0.119727 0.00194155
-0.0025 1.0842e-19 0.0175 0.190758 -0.117511 0.00187333
0.01375 -9.03502e-21 0.011217 0.17813 -0.134363 0.00157803
-0.01375 -9.03502e-21 0.011217 0.172138 -0.120775 0.00135765
0.01125 -1.807e-20 0.0137433 0.184808 -0.129584 0.0018213
-0.01125 -9.03502e-21 0.0137433 0.179612 -0.118859 0.00158484
0.015 1.0842e-19 0.00994629 0.174093 -0.136248 0.00139979
-0.015 1.0842e-19 0.00994629 0.167683 -0.121317 0.00120003
0.01 1.0842e-19 0.0149988 0.187768 -0.127031 0.00189933
-0.01 1.0842e-19 0.0149988 0.183009 -0.117716 0.00166832
0.0175 1.0842e-19 0.00479858 0.148832 -0.130635 0.000603158
-0.0175 1.0842e-19 0.00479858 0.141566 -0.115695 0.00052245
0.005 1.0842e-19 0.0175 0.192662 -0.120857 0.00196944
-0.005 1.0842e-19 0.0175 0.190148 -0.116425 0.00183388
0.01625 -9.03502e-21 0.008656 0.169878 -0.137969 0.00121339
-0.01625 9.03502e-21 0.008656 0.163051 -0.121727 0.00103965
0.00875 -2.71051e-20 0.0162494 0.190669 -0.124498 0.00196856
-0.00875 -1.807e-20 0.0162494 0.186378 -0.116544 0.00174819
0.018546 -5.42101e-20 0 0 0 0
-0.018546 -1.35525e-19 0 0 0 0
0.01875 0 0.00116943 0.0903314 -0.0771065 0.000119271
-0.01875 0 0.00116944 0.0842481 -0.0707914 0.000102612
0.00125 2.71051e-20 0.01875 0.194604 -0.117342 0.00194903
-0.00125 9.03502e-21 0.01875 0.19396 -0.116261 0.00191254
-0.018954 -1.35525e-19 0 0 0 0
0.018954 -5.42101e-20 0 0 0 0
0.0175 1.0842e-19 0.00736572 0.164309 -0.137931 0.00102043
-0.0175 1.0842e-19 0.00736572 0.157015 -0.120866 0.000874633
0.0075 1.0842e-19 0.0175 0.193319 -0.122003 0.00199339
-0.0075 1.0842e-19 0.0175 0.189551 -0.11535 0.00179184
0.01875 1.807e-20 0.00356872 0.138838 -0.123659 0.00037418
-0.01875 0 0.00356873 0.131103 -0.109609 0.000323876
0.00375 -1.807e-20 0.01875 0.19526 -0.118438 0.00198199
-0.00375 9.03502e-21 0.01875 0.193328 -0.115194 0.00187363
0.01375 -9.03502e-21 0.0137433 0.185432 -0.130854 0.00182106
-0.01375 -9.03502e-21 0.0137433 0.17909 -0.117735 0.00153859
0.015 1.0842e-19 0.0124878 0.182129 -0.133284 0.00169839
-0.015 1.0842e-19 0.0124878 0.175413 -0.118705 0.00142968
0.0125 1.0842e-19 0.0149988 0.188408 -0.128266 0.00190703
-0.0125 1.0842e-19 0.0149988 0.182465 -0.116611 0.00162282
-0.01875 1.807e-20 0.00608215 0.150632 -0.119626 0.000708277
0.01875 -1.807e-20 0.00608215 0.158411 -0.137321 0.000825053
-0.01625 -2.71051e-20 0.011217 0.171659 -0.119626 0.00131642
0.01625 -1.807e-20 0.011217 0.17873 -0.13569 0.0015633
0.01125 -1.807e-20 0.0162494 0.191325 -0.125697 0.00198241
-0.01125 -1.807e-20 0.0162494 0.185813 -0.115459 0.00170271
-0.00625 9.03502e-21 0.01875 0.192711 -0.11414 0.00183243
0.00625 -1.807e-20 0.01875 0.195927 -0.119546 0.00201114
-0.02 -2.1684e-19 0 0 0 0
0.02 -1.0842e-19 0 0 0 0
-1.024e-14 1.0842e-19 0.02 0.196994 -0.115035 0.00192953
0.0175 1.0842e-19 0.00994629 0.174682 -0.137578 0.00138163
-0.0175 1.0842e-19 0.00994629 0.167224 -0.120171 0.00116346
0.02 1.0842e-19 0.00233887 0.117776 -0.103261 0.000241826
-0.02 0 0.00233887 0.110161 -0.0922762 0.000208306
0.01 1.0842e-19 0.0175 0.193988 -0.123165 0.00201431
0.0025 1.0842e-19 0.02 0.197658 -0.116099 0.00196517
-0.0025 1.0842e-19 0.02 0.196344 -0.113985 0.00189171
-0.01 1.0842e-19 0.0175 0.188967 -0.114285 0.00174811
0.02 1.0842e-19 0.00479858 0.149437 -0.131742 0.000595476
-0.02 1.0842e-19 0.00479858 0.141153 -0.11474 0.000508612
0.005 1.0842e-19 0.02 0.198333 -0.117177 0.00199837
-0.005 1.0842e-19 0.02 0.195708 -0.112947 0.00185209
0.01875 9.03502e-21 0.008656 0.170456 -0.139294 0.00119112
-0.01875 2.71051e-20 0.008656 0.162612 -0.120589 0.00100775
-0.00875 1.807e-20 0.01875 0.192107 -0.113096 0.00178967
0.00875 -1.807e-20 0.01875 0.196608 -0.120671 0.00203722
0.021046 -5.42101e-20 0 0 0 0
-0.021046 -1.35525e-19 0 0 0 0
0.015 1.0842e-19 0.0149988 0.189057 -0.12952 0.00191298
-0.015 1.0842e-19 0.0149988 0.181933 -0.115518 0.00157728
0.02125 0 0.00116943 0.0908478 -0.0775452 0.000117753
-0.02125 0 0.00116944 0.0839267 -0.0704166 0.00010283
0.01625 0 0.0137433 0.186066 -0.132144 0.00181926
-0.01625 2.71051e-20 0.0137433 0.178578 -0.116623 0.00149308
0.01375 -9.03502e-21 0.0162494 0.191991 -0.126916 0.00199422
-0.01375 -9.03502e-21 0.0162494 0.185261 -0.114386 0.00165688
0.00125 1.807e-20 0.02125 0.20002 -0.113803 0.00194574
-0.00125 -9.03502e-21 0.02125 0.19935 -0.112769 0.00190835
0.02 1.0842e-19 0.00736572 0.164891 -0.139212 0.00100493
-0.02 1.0842e-19 0.00736572 0.156588 -0.119766 0.000849653
0.0075 1.0842e-19 0.02 0.199021 -0.118269 0.00202935
-0.0075 1.0842e-19 0.02 0.195085 -0.111921 0.00181097
-0.021454 -1.35525e-19 0 0 0 0
0.021454 -5.42101e-20 0 0 0 0
0.0175 1.0842e-19 0.0124878 0.182747 -0.1346 0.00169076
-0.0175 1.0842e-19 0.0124878 0.174922 -0.11758 0.00138748
0.0125 1.0842e-19 0.0175 0.194666 -0.124346 0.00203329
-0.0125 1.0842e-19 0.0175 0.188396 -0.11323 0.00170363
0.02125 2.71051e-20 0.00356873 0.13946 -0.124626 0.000371975
-0.02125 0 0.00356873 0.130699 -0.108776 0.000317442
-0.00375 1.807e-20 0.02125 0.198693 -0.111749 0.00186948
0.00375 -9.03502e-21 0.02125 0.200703 -0.114848 0.00198139
0.01875 -9.03502e-21 0.011217 0.179333 -0.137027 0.00154826
-0.01875 0 0.011217 0.171189 -0.11849 0.00127743
-0.01125 1.807e-20 0.01875 0.191516 -0.112061 0.00174604
0.01125 9.03502e-21 0.01875 0.197299 -0.121815 0.00206158
0.02125 0 0.00608215 0.158999 -0.138547 0.000816511
-0.02125 1.807e-20 0.00608215 0.150218 -0.118574 0.000690517
0.00625 -1.807e-20 0.02125 0.201399 -0.115909 0.00201557
-0.00625 -9.03502e-21 0.02125 0.198051 -0.11074 0.00182949
0.02 1.0842e-19 0.00994629 0.175271 -0.138914 0.00136501
-0.02 1.0842e-19 0.00994629 0.166772 -0.119038 0.00112964
0.01 1.0842e-19 0.02 0.199722 -0.119378 0.00205882
-0.01 1.0842e-19 0.02 0.194475 -0.110903 0.00176884
0.0225 -1.0842e-19 0 0 0 0
-0.0225 -2.1684e-19 0 0 0 0
-1.02402e-14 1.0842e-19 0.0225 0.202208 -0.111622 0.00190287
0.0225 1.0842e-19 0.00233887 0.118367 -0.103971 0.000241389
-0.0225 0 0.00233887 0.109789 -0.0916645 0.000206316
0.0025 1.0842e-19 0.0225 0.202896 -0.11264 0.00194018
-0.0025 1.0842e-19 0.0225 0.201533 -0.110617 0.00186463
0.02125 9.03502e-21 0.008656 0.171033 -0.140619 0.0011734
-0.02125 0 0.008656 0.162179 -0.119461 0.000979379
0.01625 0 0.0162494 0.192666 -0.128152 0.00200571
-0.01625 -9.03502e-21 0.0162494 0.18472 -0.113323 0.00161126
-0.00875 9.03502e-21 0.02125 0.197423 -0.10974 0.00178849
0.00875 2.71051e-20 0.02125 0.202109 -0.116984 0.00204859
0.0225 1.0842e-19 0.00479858 0.150053 -0.132849 0.000594054
-0.0225 1.0842e-19 0.00479858 0.140746 -0.113795 0.000498257
0.0175 1.0842e-19 0.0149988 0.189715 -0.130792 0.00191887
-0.0175 1.0842e-19 0.0149988 0.181412 -0.114436 0.00153257
0.005 1.0842e-19 0.0225 0.203597 -0.113671 0.00197663
-0.005 1.0842e-19 0.0225 0.200873 -0.109623 0.00182563
0.015 1.0842e-19 0.0175 0.195356 -0.125543 0.0020516
-0.015 1.0842e-19 0.0175 0.187836 -0.112186 0.00165915
-0.01875 -1.807e-20 0.0137433 0.178076 -0.115522 0.00144925
0.01875 -1.807e-20 0.0137433 0.186707 -0.133451 0.001818
-0.01375 9.03502e-21 0.01875 0.190938 -0.111036 0.00170231
0.01375 -1.807e-20 0.01875 0.198001 -0.122975 0.00208512
0.023546 -2.71051e-20 0 0 0 0
-0.023546 -1.35525e-19 0 0 0 0
0.02 1.0842e-19 0.0124878 0.18337 -0.13593 0.00168389
-0.02 1.0842e-19 0.0124878 0.17444 -0.116467 0.00134743
0.0125 1.0842e-19 0.02 0.200435 -0.120503 0.00208767
-0.0125 1.0842e-19 0.02 0.193878 -0.109894 0.00172628
0.0225 1.0842e-19 0.00736572 0.165479 -0.140494 0.000995811
-0.0225 1.0842e-19 0.00736572 0.156167 -0.118679 0.000828453
0.0075 1.0842e-19 0.0225 0.204313 -0.114715 0.00201246
-0.0075 1.0842e-19 0.0225 0.200227 -0.108639 0.00178595
0.02375 0 0.00116943 0.0913628 -0.0779726 0.000116566
-0.02375 0 0.00116944 0.083607 -0.0700402 0.000103896
0.00125 2.71051e-20 0.02375 0.205058 -0.110473 0.00189576
-0.00125 -1.807e-20 0.02375 0.204365 -0.109483 0.0018579
-0.023954 -1.35525e-19 0 0 0 0
0.023954 -2.71051e-20 0 0 0 0
0.02375 -2.71051e-20 0.00356873 0.140093 -0.125594 0.000375135
-0.02375 -9.03502e-21 0.00356873 0.130301 -0.107949 0.000313948
-0.02125 -9.03502e-21 0.011217 0.170726 -0.117367 0.001241
0.02125 -9.03502e-21 0.011217 0.179937 -0.138376 0.0015353
0.01125 -1.807e-20 0.02125 0.202832 -0.118075 0.00208106
-0.01125 9.03502e-21 0.02125 0.196807 -0.108747 0.00174695
0.00375 -9.03502e-21 0.02375 0.205765 -0.111475 0.00193333
-0.00375 -9.03502e-21 0.02375 0.203686 -0.108504 0.00181945
-0.02375 -1.807e-20 0.00608215 0.149808 -0.117532 0.000676883
0.02375 0 0.00608215 0.159602 -0.139777 0.000816852
0.00625 2.71051e-20 0.02375 0.206485 -0.112488 0.00197091
-0.00625 -1.807e-20 0.02375 0.203022 -0.107537 0.00178072
0.0225 1.0842e-19 0.00994629 0.175862 -0.140255 0.00135201
-0.0225 1.0842e-19 0.00994629 0.166327 -0.117918 0.00109897
0.01 1.0842e-19 0.0225 0.205042 -0.115774 0.00204801
-0.01 1.0842e-19 0.0225 0.199594 -0.107663 0.0017457
0.0175 1.0842e-19 0.0175 0.196055 -0.126759 0.00207062
-0.0175 1.0842e-19 0.0175 0.187287 -0.111151 0.00161526
0.01875 9.03502e-21 0.0162494 0.19335 -0.129406 0.00201848
-0.01875 1.807e-20 0.0162494 0.184189 -0.112271 0.00156663
0.01625 9.03502e-21 0.01875 0.198714 -0.124151 0.0021092
-0.01625 9.03502e-21 0.01875 0.190371 -0.11002 0.00165896
0.02 1.0842e-19 0.0149988 0.190381 -0.132083 0.00192602
-0.02 1.0842e-19 0.0149988 0.1809 -0.113365 0.00148957
0.015 1.0842e-19 0.02 0.20116 -0.121644 0.00211689
-0.015 1.0842e-19 0.02 0.193294 -0.108895 0.00168378
-0.025 -2.1684e-19 0 0 0 0
0.025 -1.0842e-19 0 0 0 0
-1.02403e-14 1.0842e-19 0.025 0.207061 -0.108406 0.00183171
-0.025 0 0.00233887 0.10942 -0.0910548 0.000206046
0.025 1.0842e-19 0.00233887 0.118966 -0.104681 0.000242942
0.0025 1.0842e-19 0.025 0.207772 -0.109382 0.00186932
-0.0025 1.0842e-19 0.025 0.206364 -0.107441 0.00179411
-0.02375 0 0.008656 0.161751 -0.11835 0.000954647
0.02375 -1.807e-20 0.00865601 0.171613 -0.141943 0.00116222
-0.02125 -1.807e-20 0.0137433 0.177583 -0.114435 0.00140805
0.02125 -1.807e-20 0.0137433 0.187354 -0.134776 0.00181842
0.01375 1.807e-20 0.02125 0.203568 -0.119181 0.00211392
0.00875 1.807e-20 0.02375 0.20722 -0.113516 0.00200864
-0.01375 2.71051e-20 0.02125 0.196206 -0.107766 0.00170501
-0.00875 1.807e-20 0.02375 0.202371 -0.106578 0.00174148
0.025 1.0842e-19 0.00479858 0.15069 -0.133968 0.000598754
-0.025 1.0842e-19 0.00479858 0.140343 -0.112859 0.000491059
0.005 1.0842e-19 0.025 0.208498 -0.11037 0.00190717
-0.005 1.0842e-19 0.025 0.205682 -0.106487 0.0017564
0.0225 1.0842e-19 0.0124878 0.183996 -0.137274 0.00167891
-0.0225 1.0842e-19 0.0124878 0.173966 -0.115369 0.00131009
0.0125 1.0842e-19 0.0225 0.205785 -0.116847 0.00208389
-0.0125 1.0842e-19 0.0225 0.198975 -0.106696 0.00170519
0.026046 -5.42101e-20 0 0 0 0
-0.026046 -1.35525e-19 0 0 0 0
0.025 1.0842e-19 0.00736572 0.166084 -0.141784 0.000993409
-0.025 1.0842e-19 0.00736572 0.155751 -0.117604 0.000810749
0.0075 1.0842e-19 0.025 0.209238 -0.111369 0.00194546
-0.0075 1.0842e-19 0.025 0.205014 -0.105542 0.0017185
0.02375 -2.71051e-20 0.011217 0.180543 -0.139732 0.00152557
-0.02375 -9.03502e-21 0.011217 0.170269 -0.116258 0.00120773
0.02625 0 0.00116943 0.0918748 -0.0783887 0.000114774
-0.02625 1.807e-20 0.00116944 0.0832901 -0.0696618 0.000105687
0.00125 9.03502e-21 0.02625 0.20975 -0.10733 0.0018029
0.01125 -2.71051e-20 0.02375 0.20797 -0.114557 0.00204665
-0.01125 1.807e-20 0.02375 0.201733 -0.105625 0.00170195
-0.00125 -9.03502e-21 0.02625 0.209035 -0.106379 0.00176602
-0.026454 -1.35525e-19 0 0 0 0
0.026454 -5.42101e-20 0 0 0 0
0.02625 -1.807e-20 0.00356873 0.140749 -0.126577 0.000382645
-0.02625 0 0.00356873 0.129905 -0.107128 0.000313075
0.00375 -1.807e-20 0.02625 0.21048 -0.108291 0.00184021
-0.00375 9.03502e-21 0.02625 0.208333 -0.105438 0.00172949
0.01875 2.71051e-20 0.01875 0.19944 -0.125348 0.00213495
-0.01875 -1.807e-20 0.01875 0.189815 -0.109013 0.00161646
0.02 1.0842e-19 0.0175 0.196765 -0.127995 0.00209149
0.0175 1.0842e-19 0.02 0.201897 -0.122802 0.0021474
-0.0175 1.0842e-19 0.02 0.192721 -0.107905 0.00164179
-0.02 1.0842e-19 0.0175 0.186749 -0.110127 0.00157256
0.02125 9.03502e-21 0.0162494 0.194044 -0.130682 0.00203354
-0.02125 -9.03502e-21 0.0162494 0.183668 -0.111228 0.00152402
-0.01625 -1.807e-20 0.02125 0.195615 -0.106791 0.00166349
0.01625 2.71051e-20 0.02125 0.204316 -0.120304 0.00214835
0.025 1.0842e-19 0.00994629 0.17646 -0.141602 0.00134308
-0.025 1.0842e-19 0.00994629 0.165887 -0.116813 0.00107155
0.01 1.0842e-19 0.025 0.209992 -0.11238 0.00198443
-0.01 1.0842e-19 0.025 0.20436 -0.104605 0.00168041
0.02625 -1.807e-20 0.00608215 0.160234 -0.141023 0.000825099
-0.02625 1.807e-20 0.00608215 0.149403 -0.116503 0.000666469
0.00625 2.71051e-20 0.02625 0.211226 -0.109264 0.00187834
-0.00625 -9.03502e-21 0.02625 0.207648 -0.104509 0.00169281
0.0225 1.0842e-19 0.0149988 0.191055 -0.133392 0.00193512
-0.0225 1.0842e-19 0.0149988 0.180398 -0.112306 0.00144887
0.015 1.0842e-19 0.0225 0.206541 -0.117934 0.00212088
-0.015 1.0842e-19 0.0225 0.198368 -0.105738 0.00166477
0.02375 -1.807e-20 0.0137433 0.188007 -0.136117 0.00182097
-0.02375 0 0.0137433 0.177099 -0.11336 0.00136971
0.01375 -1.807e-20 0.02375 0.208734 -0.115611 0.00208537
-0.01375 -9.03502e-21 0.02375 0.201111 -0.104682 0.00166248
-0.0275 -2.1684e-19 0 0 0 0
0.0275 -1.0842e-19 0 0 0 0
-1.02403e-14 1.0842e-19 0.0275 0.211563 -0.105408 0.00172097
-0.0275 0 0.00233887 0.109054 -0.0904463 0.000207182
0.0275 1.0842e-19 0.00233887 0.119583 -0.105397 0.000245024
0.0025 1.0842e-19 0.0275 0.212296 -0.106345 0.0017574
-0.0025 1.0842e-19 0.0275 0.210845 -0.10448 0.00168508
0.02625 9.03502e-21 0.008656 0.17221 -0.143275 0.00115739
-0.02625 9.03502e-21 0.008656 0.161327 -0.11725 0.000933164
0.00875 9.03502e-21 0.02625 0.211984 -0.110246 0.00191733
-0.00875 9.03502e-21 0.02625 0.206978 -0.103586 0.00165587
0.0275 1.0842e-19 0.00479858 0.151364 -0.135112 0.000607259
-0.0275 1.0842e-19 0.00479858 0.139943 -0.11193 0.000486519
0.025 1.0842e-19 0.0124878 0.184627 -0.13863 0.00167594
-0.025 1.0842e-19 0.0124878 0.173499 -0.114283 0.00127575
0.0125 1.0842e-19 0.025 0.210761 -0.113403 0.00202441
0.005 1.0842e-19 0.0275 0.213045 -0.107292 0.00179457
-0.005 1.0842e-19 0.0275 0.210141 -0.103563 0.0016495
-0.0125 1.0842e-19 0.025 0.20372 -0.103675 0.00164241
0.02 1.0842e-19 0.02 0.202646 -0.123979 0.00218002
-0.02 1.0842e-19 0.02 0.192159 -0.106924 0.00160066
0.02125 1.807e-20 0.01875 0.200178 -0.126564 0.00216315
0.01875 -1.807e-20 0.02125 0.205077 -0.121443 0.00218449
-0.01875 1.807e-20 0.02125 0.195037 -0.105826 0.00162252
-0.02125 1.807e-20 0.01875 0.189269 -0.108014 0.0015751
0.0275 1.0842e-19 0.00736572 0.166721 -0.143093 0.000995412
-0.0275 1.0842e-19 0.00736572 0.155338 -0.116541 0.00079619
0.0225 1.0842e-19 0.0175 0.197486 -0.12925 0.00211497
0.0175 1.0842e-19 0.0225 0.207311 -0.119038 0.0021596
-0.0175 1.0842e-19 0.0225 0.197773 -0.104788 0.00162479
-0.0225 1.0842e-19 0.0175 0.18622 -0.109112 0.00153147
0.0075 1.0842e-19 0.0275 0.213808 -0.10825 0.00183263
-0.0075 1.0842e-19 0.0275 0.209453 -0.102655 0.00161407
0.028546 -5.42101e-20 0 0 0 0
-0.028546 -1.35525e-19 0 0 0 0
0.02625 -9.03502e-21 0.011217 0.181153 -0.141097 0.00151902
-0.02625 -9.03502e-21 0.011217 0.169819 -0.115164 0.00117789
0.01125 -1.807e-20 0.02625 0.212759 -0.111241 0.00195768
-0.01125 9.03502e-21 0.02625 0.20632 -0.102671 0.00161891
-0.02875 9.03502e-21 0.00116943 0.0829764 -0.0692815 0.000107928
0.02875 -9.03502e-21 0.00116943 0.0923871 -0.078796 0.000111674
-0.02375 9.03502e-21 0.0162494 0.183156 -0.110195 0.00148356
0.02375 9.03502e-21 0.0162494 0.194747 -0.131974 0.00205146
0.01625 1.807e-20 0.02375 0.209512 -0.116681 0.00212564
-0.01625 -2.71051e-20 0.02375 0.2005 -0.103747 0.00162334
-0.00125 9.03502e-21 0.0287506 0.213344 -0.103528 0.00163758
0.00125 0 0.0287506 0.214081 -0.104442 0.00167277
-0.028954 -1.35525e-19 0 0 0 0
0.028954 -5.42101e-20 0 0 0 0
0.02875 -1.807e-20 0.00356873 0.141447 -0.12759 0.000391631
-0.02875 1.807e-20 0.00356872 0.129512 -0.106309 0.000314043
-0.00375 -1.807e-20 0.0287506 0.212623 -0.102625 0.00160295
0.00375 -1.807e-20 0.0287506 0.214832 -0.105364 0.00170871
0.025 1.0842e-19 0.0149988 0.191735 -0.134718 0.00194628
-0.025 1.0842e-19 0.0149988 0.179904 -0.111258 0.00141064
0.015 1.0842e-19 0.025 0.211545 -0.11444 0.00206592
-0.015 1.0842e-19 0.025 0.203093 -0.102754 0.00160474
0.0275 1.0842e-19 0.00994629 0.177074 -0.142959 0.00133638
-0.0275 1.0842e-19 0.00994629 0.165453 -0.11572 0.0010473
0.01 1.0842e-19 0.0275 0.214587 -0.109219 0.00187194
-0.01 1.0842e-19 0.0275 0.208779 -0.101753 0.00157874
0.02875 -9.03502e-21 0.00608215 0.160914 -0.142304 0.000837274
-0.02875 9.03502e-21 0.00608215 0.149 -0.115481 0.000658903
0.00625 9.03502e-21 0.0287506 0.215599 -0.106298 0.0017453
-0.00625 -1.807e-20 0.0287506 0.211917 -0.10173 0.00156877
0.02625 9.03502e-21 0.0137433 0.188663 -0.137475 0.00182524
-0.02625 -1.807e-20 0.0137433 0.176623 -0.112298 0.00133441
0.01375 -1.807e-20 0.02625 0.213547 -0.112246 0.00199959
-0.01375 1.807e-20 0.02625 0.205677 -0.101764 0.00158261
-0.03 -2.1684e-19 0 0 0 0
0.03 -1.0842e-19 0 0 0 0
-1.49751e-13 1.0842e-19 0.0300012 0.215674 -0.10268 0.00157244
0.02875 -9.03502e-21 0.008656 0.172836 -0.144622 0.00115537
-0.02875 -1.807e-20 0.008656 0.160907 -0.116164 0.000915048
0.02125 1.807e-20 0.02125 0.205852 -0.122598 0.00222355
-0.02125 1.807e-20 0.02125 0.194468 -0.104869 0.00158257
0.00875 9.03502e-21 0.0287506 0.216383 -0.107241 0.00178302
-0.00875 -1.807e-20 0.0287506 0.211225 -0.100843 0.00153491
-0.03 0 0.00233887 0.108691 -0.0898383 0.000209342
0.03 1.0842e-19 0.00233887 0.120234 -0.106135 0.000245121
0.0225 1.0842e-19 0.02 0.203409 -0.125174 0.00221576
0.02 1.0842e-19 0.0225 0.208096 -0.120157 0.0022008
-0.02 1.0842e-19 0.0225 0.19719 -0.103847 0.00158546
-0.0225 1.0842e-19 0.02 0.191607 -0.105951 0.00156067
0.0025 1.0842e-19 0.0300012 0.216429 -0.10358 0.00160683
-0.0025 1.0842e-19 0.0300012 0.214934 -0.10179 0.00153877
0.0275 1.0842e-19 0.0124878 0.185263 -0.139999 0.00167366
-0.0275 1.0842e-19 0.0124878 0.173038 -0.113209 0.00124433
0.0125 1.0842e-19 0.0275 0.215382 -0.110198 0.00191288
-0.0125 1.0842e-19 0.0275 0.208119 -0.10086 0.00154375
0.02375 9.03502e-21 0.01875 0.200927 -0.1278 0.00219497
0.01875 1.807e-20 0.02375 0.210307 -0.117766 0.00216816
-0.02375 -1.807e-20 0.01875 0.188733 -0.107025 0.00153514
-0.01875 9.03502e-21 0.02375 0.199901 -0.102821 0.00158459
0.03 1.0842e-19 0.00479858 0.152096 -0.136299 0.000614958
-0.03 1.0842e-19 0.00479858 0.139546 -0.111007 0.000484158
0.005 1.0842e-19 0.0300012 0.217199 -0.10449 0.00164199
-0.005 1.0842e-19 0.0300012 0.21421 -0.100908 0.00150578
0.025 1.0842e-19 0.0175 0.198217 -0.130524 0.00214152
0.0175 1.0842e-19 0.025 0.212345 -0.115491 0.00210959
-0.0175 1.0842e-19 0.025 0.202479 -0.101842 0.0015676
-0.025 1.0842e-19 0.0175 0.185701 -0.108107 0.00149215
0.02875 2.71051e-20 0.011217 0.181773 -0.142472 0.00151269
-0.02875 -9.03502e-21 0.011217 0.169375 -0.114081 0.00115106
-0.02625 -9.03502e-21 0.0162494 0.182653 -0.109175 0.00144525
0.02625 1.807e-20 0.0162494 0.195457 -0.133286 0.00207225
0.01625 -1.807e-20 0.02625 0.214353 -0.113264 0.00204352
-0.01625 2.71051e-20 0.02625 0.205046 -0.100865 0.00154662
0.01125 9.03502e-21 0.0287506 0.217183 -0.108196 0.00182228
-0.01125 -1.807e-20 0.0287506 0.210548 -0.099962 0.00150126
0.03 1.0842e-19 0.00736572 0.167405 -0.144431 0.000996509
-0.03 1.0842e-19 0.00736572 0.154928 -0.115488 0.000784499
0.0075 1.0842e-19 0.0300012 0.217986 -0.105408 0.0016781
-0.0075 1.0842e-19 0.0300012 0.213501 -0.100035 0.00147335
0.031046 0 0 0 0 0
-0.031046 -1.35525e-19 0 0 0 0
0.03125 9.03502e-21 0.00116943 0.092916 -0.0792043 0.000105068
-0.03125 9.03502e-21 0.00116943 0.0826674 -0.0688992 0.000110448
-0.00125 -9.03502e-21 0.0312567 0.21723 -0.100964 0.00147063
0.00125 -2.71051e-20 0.0312567 0.217989 -0.101842 0.00150324
0.0275 1.0842e-19 0.0149988 0.192422 -0.136062 0.00195883
-0.0275 1.0842e-19 0.0149988 0.179418 -0.110222 0.00137477
0.015 1.0842e-19 0.0275 0.216192 -0.111189 0.00195586