# UMean  POINT_DATA 29553
# x  y  z  UMean_x  UMean_y  UMean_z
0 0.00104602 7.11428e-09 3.55293e-07 -3.03633e-07 4.82235e-10
0 -0.000203993 0.00116943 0.091908 -0.0778605 0.000120163
0 -0.00145398 7.75775e-09 3.90344e-07 -3.28155e-07 5.0168e-10
1.08622e-19 0.001046 0.00233887 0.113074 -0.0978068 0.000266438
0 0.002296 0.00116944 0.0912173 -0.0785515 0.000125842
1.18108e-20 -0.001454 0.00233887 0.113953 -0.0969954 0.000258173
1.0842e-19 -0.002704 0.00116943 0.092603 -0.0771836 0.000113917
0 0.001046 0.00323022 0.124403 -0.107018 0.000408049
0 0.003546 7.22173e-09 3.57966e-07 -3.10997e-07 5.05729e-10
0 -0.000203999 0.00356872 0.135464 -0.11725 0.000408907
2.58494e-26 -0.00273457 0.00233887 0.114404 -0.0965854 0.00025213
-5.16988e-26 -0.001454 0.00361264 0.130272 -0.110092 0.000458249
-1.65436e-24 -0.003954 7.73917e-09 3.81545e-07 -3.15773e-07 4.62497e-10
-1.0842e-19 0.002296 0.00356872 0.134394 -0.118192 0.000415433
5.16988e-26 0.003546 0.00233887 0.112195 -0.0986236 0.000269853
0 -0.002704 0.00356872 0.136532 -0.116311 0.000394223
4.1359e-25 -0.003954 0.00225921 0.110921 -0.0929184 0.000237985
0 -0.003954 0.00233887 0.114832 -0.0961949 0.000246376
0 0.001046 0.00479858 0.144336 -0.123227 0.000657218
0 0.004796 0.00116943 0.090532 -0.0792521 0.00012982
0 0.003546 0.00343605 0.126026 -0.110015 0.000443128
5.16988e-26 -0.001454 0.00479858 0.145465 -0.122286 0.000644529
0 -0.00520401 0.00116943 0.0932969 -0.0765216 0.000107785
5.32577e-20 0.003546 0.00479858 0.143201 -0.124162 0.000658308
0 0.004796 0.00356872 0.133319 -0.119129 0.000412865
0 0.006046 7.79493e-09 3.83492e-07 -3.38698e-07 5.52279e-10
0 -0.000204 0.00608215 0.154475 -0.128342 0.000901919
0 -0.003954 0.00479858 0.146592 -0.12135 0.000622422
0 -0.005204 0.00356872 0.137598 -0.115382 0.000373918
-8.27181e-25 -0.00645401 6.20271e-09 3.08068e-07 -2.50888e-07 3.51454e-10
5.41565e-20 0.006046 0.00233887 0.111315 -0.0994376 0.000267977
1.0842e-19 0.002296 0.00608215 0.153282 -0.129281 0.000909696
0 -0.002704 0.00608215 0.155662 -0.127401 0.000880089
0 -0.00645401 0.00212494 0.105125 -0.0866802 0.000211646
-1.03398e-25 -0.00645401 0.00233887 0.115708 -0.095407 0.000232954
0 0.007296 0.00116943 0.0898514 -0.0799556 0.000131054
2.58494e-26 0.006046 0.00431085 0.135957 -0.119996 0.000572494
4.51289e-20 0.001046 0.00736572 0.159825 -0.1294 0.00108284
0 -0.001454 0.00736572 0.161037 -0.128501 0.00106781
-2.58494e-26 0.006046 0.00479858 0.142052 -0.12508 0.00064781
0 0.004796 0.00608215 0.152076 -0.130202 0.000902294
-1.0842e-19 -0.00770401 0.00116944 0.0939824 -0.0758707 0.000102619
0 -0.005204 0.00608215 0.156848 -0.126463 0.000848347
5.16988e-26 -0.006454 0.00479858 0.147716 -0.120422 0.000594499
1.0842e-19 0.007296 0.00356872 0.132232 -0.120048 0.000402573
3.50425e-20 0.003546 0.00736572 0.158604 -0.130289 0.00108323
7.84787e-20 -0.003954 0.00736572 0.162242 -0.127597 0.00104047
-1.0842e-19 -0.007704 0.00356872 0.138662 -0.114468 0.000351583
-1.65436e-24 0.00854602 8.72316e-09 4.25935e-07 -3.82386e-07 6.10741e-10
0 -0.000204 0.008656 0.166401 -0.129562 0.00125601
-6.84192e-20 0.008546 0.00233886 0.110427 -0.100238 0.00026139
0 -0.00895401 5.46843e-09 2.87251e-07 -2.30247e-07 3.09232e-10
0 0.002296 0.008656 0.165164 -0.130416 0.00126439
1.0842e-19 -0.002704 0.00865601 0.16763 -0.128699 0.00123387
-1.03398e-25 -0.00895401 0.001998 0.099585 -0.0808385 0.000187625
0 -0.00895401 0.00233887 0.116575 -0.0946302 0.000219635
6.46235e-27 0.00800744 0.00479858 0.141134 -0.125779 0.000632494
0 0.007296 0.00608215 0.150848 -0.131101 0.000880448
0 0.006046 0.00736572 0.157367 -0.13116 0.00106843
3.23117e-27 -0.001454 0.0096327 0.170125 -0.128078 0.00135977
7.33351e-20 -0.006454 0.00736572 0.163443 -0.126692 0.0010042
-7.59312e-20 0.008546 0.00479858 0.140882 -0.125971 0.000628288
1.0842e-19 -0.007704 0.00608215 0.158032 -0.125532 0.000810847
-2.1684e-19 0.009796 0.00116943 0.0891718 -0.0806538 0.000128854
-1.0842e-19 0.004796 0.008656 0.163916 -0.131257 0.0012572
8.07794e-28 -0.000473983 0.00994629 0.170902 -0.128343 0.0014058
1.61559e-27 0.001046 0.00994629 0.170158 -0.128846 0.00141456
0 -0.001454 0.00994629 0.171382 -0.128019 0.00140015
0 -0.0100624 0 0 0 0
-2.1684e-19 -0.005204 0.00865601 0.16885 -0.127826 0.00120022
0 -0.008954 0.00479858 0.148836 -0.119503 0.000564705
0 -0.003954 0.00935899 0.17024 -0.127276 0.0012974
1.0842e-19 -0.010204 0.00116944 0.094652 -0.0752258 9.80916e-05
-1.0842e-19 0.009796 0.00356872 0.131125 -0.120932 0.000387287
0 0.003546 0.00994629 0.168921 -0.129659 0.00141488
-2.03057e-20 -0.003954 0.00994629 0.172596 -0.127182 0.0013731
-3.23117e-27 0.008546 0.0065421 0.15122 -0.130069 0.000908578
2.1684e-19 -0.010204 0.00356873 0.139716 -0.113567 0.000330065
0 0.011046 1.00042e-08 4.84752e-07 -4.42314e-07 6.79551e-10
-1.0842e-19 -0.000204 0.011217 0.17512 -0.127315 0.00156466
0 0.008546 0.00736572 0.156104 -0.132005 0.00104098
-9.5347e-20 0.011046 0.00233887 0.109528 -0.101016 0.000251776
1.0842e-19 0.007296 0.00865601 0.162647 -0.13208 0.00123444
1.0842e-19 0.002296 0.011217 0.173898 -0.128103 0.00157157
0 -0.011454 6.86537e-09 3.61482e-07 -2.85266e-07 3.64945e-10
1.0842e-19 0.009796 0.00608215 0.149588 -0.131963 0.00084959
-2.1684e-19 -0.002704 0.011217 0.17633 -0.126514 0.00154445
0 -0.007704 0.00865601 0.170065 -0.126948 0.00115803
0 -0.008954 0.00736572 0.16464 -0.125787 0.000963312
0 0.006046 0.00994629 0.167667 -0.130455 0.00140091
0 -0.011454 0.00233887 0.117425 -0.0938593 0.000207502
8.07794e-28 -0.006454 0.00988095 0.17354 -0.126344 0.00132741
9.58885e-20 -0.006454 0.00994629 0.173802 -0.126334 0.00133581
-3.23117e-27 0.00931614 0.00736572 0.155705 -0.132255 0.00103034
0 -0.010204 0.00608215 0.159212 -0.124605 0.000772797
-1.66384e-19 0.011046 0.00479858 0.139682 -0.126824 0.00060431
4.03897e-28 -0.00682261 0.00994629 0.173978 -0.126208 0.00132937
0 0.004796 0.011217 0.172658 -0.12887 0.00156473
-4.03897e-28 0.001046 0.0122979 0.17749 -0.126257 0.00164899
0 0.012296 0.00116943 0.0884854 -0.0813372 0.000124417
0 -0.005204 0.011217 0.177529 -0.125699 0.00151225
0 -0.011454 0.00479858 0.149946 -0.118592 0.000536677
3.43961e-20 0.001046 0.0124878 0.178082 -0.126048 0.00166792
-8.184e-20 -0.001454 0.0124878 0.179274 -0.125281 0.00165437
2.01948e-28 0.00176244 0.0124878 0.177736 -0.126264 0.00166806
8.27181e-25 -0.0126866 0 0 0 0
1.0842e-19 -0.012704 0.00116943 0.0952995 -0.0745812 9.41455e-05
0 0.012296 0.00356872 0.129991 -0.121782 0.00037055
0 0.003546 0.0124878 0.176874 -0.126801 0.0016684
-1.0842e-19 0.009796 0.008656 0.161354 -0.132878 0.00120009
-6.60941e-20 -0.003954 0.0124878 0.180454 -0.124499 0.00162818
0 0.008546 0.00994629 0.166392 -0.131233 0.0013748
-2.1684e-19 -0.012704 0.00356872 0.140752 -0.11267 0.000311271
-3.31624e-20 0.011046 0.00736572 0.154809 -0.132816 0.00100645
0 -0.010204 0.008656 0.17127 -0.126064 0.00111219
1.0842e-19 0.007296 0.011217 0.171399 -0.129624 0.00154565
-1.61559e-27 -0.008954 0.00994629 0.174998 -0.125479 0.00129218
-4.03897e-28 0.00908517 0.00994629 0.166112 -0.131396 0.00136756
1.65436e-24 0.013546 1.10685e-08 5.32096e-07 -4.93413e-07 7.28142e-10
0 -0.007704 0.011217 0.178718 -0.124875 0.00147109
2.58494e-26 -0.011454 0.00736572 0.165827 -0.124881 0.000923047
-2.1684e-19 0.012296 0.00608215 0.14829 -0.132779 0.000816328
1.0842e-19 -0.000204 0.0137433 0.182229 -0.124027 0.00176386
-1.18111e-19 0.013546 0.00233887 0.108608 -0.101766 0.000242145
0 0.006046 0.0124878 0.175648 -0.127538 0.00165711
0 0.002296 0.0137433 0.181051 -0.124761 0.00177079
0 -0.013954 7.05929e-09 3.47119e-07 -2.69554e-07 3.37311e-10
0 -0.002704 0.0137433 0.18339 -0.123281 0.00174372
-1.14467e-19 -0.006454 0.0124878 0.181621 -0.123705 0.00159149
0 -0.012704 0.00608215 0.160383 -0.123685 0.000738819
-7.23783e-25 -0.013954 0.00214735 0.108571 -0.0854659 0.000181552
1.03398e-25 -0.013954 0.00233887 0.118254 -0.0930887 0.000197745
1.54667e-19 0.013546 0.00479858 0.13845 -0.127634 0.0005812
1.0842e-19 0.004796 0.0137433 0.179857 -0.125482 0.00176567
2.01948e-28 0.008546 0.0119353 0.172661 -0.128907 0.00157985
0 -0.005204 0.0137433 0.184538 -0.122517 0.00171152
-2.01948e-28 0.00782085 0.0124878 0.174764 -0.128051 0.0016427
0 -0.013954 0.00479858 0.151039 -0.117683 0.000513041
0 0.014796 0.00116943 0.0877807 -0.0819967 0.000120482
1.37052e-19 0.011046 0.00994629 0.165092 -0.13199 0.00134121
-1.0842e-19 0.009796 0.011217 0.170122 -0.130363 0.00151738
7.21934e-20 0.001046 0.0149988 0.184822 -0.122557 0.00183061
0 0.012296 0.008656 0.160027 -0.133648 0.00116042
9.65262e-21 -0.001454 0.0149988 0.185965 -0.121838 0.0018164
-2.01948e-28 0.008546 0.0124878 0.174403 -0.128261 0.00163681
0 -0.010204 0.011217 0.179893 -0.124038 0.00142577
0 -0.011454 0.00994629 0.176182 -0.124613 0.00124701
0 0.014796 0.00356872 0.12883 -0.122591 0.000356961
0 -0.015204 0.00116943 0.0959206 -0.0739319 9.18951e-05
1.21169e-27 -0.008954 0.0123912 0.182482 -0.122996 0.00153858
0 0.00296952 0.0149988 0.183931 -0.123101 0.00183284
0 -0.008954 0.0124878 0.182777 -0.122898 0.00154831
0 -0.012704 0.008656 0.172463 -0.125173 0.00106898
0 0.003546 0.0149988 0.183664 -0.123264 0.00183351
-3.98254e-20 0.013546 0.00736572 0.153477 -0.133586 0.000971283
-4.43593e-20 -0.003954 0.0149988 0.187094 -0.121105 0.00179102
1.0842e-19 0.007296 0.0137433 0.178646 -0.126189 0.00175156
0 -0.015204 0.00356872 0.141768 -0.111774 0.000297019
-1.51461e-28 -0.00938579 0.0124878 0.182975 -0.122756 0.00154045
0 -0.007704 0.0137433 0.185673 -0.12174 0.00167028
0 -0.013954 0.00736572 0.166999 -0.123973 0.000887543
-1.0842e-19 0.014796 0.00608215 0.146953 -0.133544 0.000787245
-1.65436e-24 0.016046 1.17795e-08 5.61585e-07 -5.29211e-07 7.63157e-10
1.26218e-29 0.006046 0.0149988 0.182489 -0.123959 0.00182697
2.79943e-20 0.016046 0.00233887 0.107662 -0.102483 0.000235774
0 -0.000204 0.0162494 0.188562 -0.120375 0.00188886
1.26879e-20 -0.006454 0.0149988 0.18821 -0.120359 0.00175619
-2.1684e-19 -0.015204 0.00608215 0.161534 -0.122761 0.00071109
0 0.002296 0.0162494 0.18744 -0.121068 0.00189876
-6.31089e-30 0.00672626 0.0149988 0.182164 -0.124145 0.00182355
-8.27181e-25 -0.016454 6.56922e-09 3.35333e-07 -2.56606e-07 3.17836e-10
-1.0842e-19 -0.002704 0.0162494 0.189671 -0.119673 0.001869
8.07794e-28 -0.016454 0.00233887 0.119041 -0.0923015 0.000191243
0 0.012296 0.011217 0.16882 -0.131086 0.00148524
5.18393e-20 0.011046 0.0124878 0.173136 -0.12897 0.00161143
0 -0.0165244 0.00233887 0.11908 -0.0922925 0.00019117
-3.67342e-20 0.016046 0.00479858 0.137188 -0.128402 0.000563978
6.18139e-20 0.013546 0.00994629 0.16376 -0.132721 0.00130592
-1.0842e-19 0.009796 0.0137433 0.177414 -0.126881 0.00173178
1.0842e-19 0.004796 0.0162494 0.1863 -0.121748 0.00189865
-4.03897e-28 -0.011454 0.0124878 0.183921 -0.122078 0.0015028
0 -0.012704 0.011217 0.181054 -0.123188 0.00137946
1.0842e-19 -0.005204 0.0162494 0.190768 -0.118957 0.0018397
0 -0.010204 0.0137433 0.186797 -0.12095 0.0016253
0 -0.013954 0.00994629 0.17735 -0.123739 0.00120419
-1.03398e-25 -0.016454 0.00479858 0.152111 -0.116772 0.000495038
-1.0842e-19 0.014796 0.008656 0.15866 -0.134378 0.00112175
0 0.008546 0.0149988 0.181295 -0.124642 0.00181441
0 0.017296 0.00116943 0.0870465 -0.0826255 0.000119035
-1.04052e-19 -0.008954 0.0149988 0.189313 -0.119599 0.00171518
0 -0.015204 0.008656 0.173638 -0.124277 0.00103187
-3.54893e-20 0.001046 0.0175 0.190924 -0.118897 0.00191612
1.42066e-19 -0.001454 0.0175 0.192016 -0.118216 0.00190008
-3.15544e-30 0.003546 0.0172644 0.189237 -0.119915 0.00191553
-6.78833e-20 0.016046 0.00736572 0.152107 -0.134314 0.000941553
-2.1684e-19 0.017296 0.00356872 0.127642 -0.123365 0.000350332
1.0842e-19 -0.017704 0.00116943 0.0965145 -0.0732741 9.13166e-05
-2.1684e-19 0.007296 0.0162494 0.185145 -0.122422 0.00189182
-1.57772e-30 0.003546 0.0175 0.189816 -0.119567 0.00192406
4.20658e-20 -0.003954 0.0175 0.193095 -0.117524 0.00187593
-1.0842e-19 -0.007704 0.0162494 0.191852 -0.118229 0.00180309
0 -0.016454 0.00736572 0.168152 -0.123061 0.000858427
0 -0.017704 0.00356873 0.142759 -0.110876 0.000288037
0 0.006046 0.0171736 0.187883 -0.120715 0.00191232
1.26218e-29 -0.0105114 0.0149988 0.189992 -0.119117 0.00168787
1.0842e-19 0.017296 0.00608215 0.145586 -0.134267 0.000767452
-2.12774e-20 0.013546 0.0124878 0.171847 -0.129665 0.0015858
-1.0842e-19 0.012296 0.0137433 0.176161 -0.127564 0.00171041
0 0.006046 0.0175 0.188693 -0.120229 0.00192513
1.65436e-24 0.018546 1.2351e-08 5.83662e-07 -5.58966e-07 8.08491e-10
-1.0842e-19 0.014796 0.011217 0.167488 -0.131787 0.00145454
1.26218e-28 0.0137547 0.0124878 0.171737 -0.129722 0.00158399
-1.06602e-19 0.011046 0.0149988 0.180081 -0.125314 0.00179955
8.08447e-20 -0.006454 0.0175 0.194161 -0.116819 0.00184486
1.11276e-19 0.018546 0.00233887 0.106688 -0.103167 0.00023445
1.0842e-19 -0.012704 0.0137433 0.187911 -0.120149 0.00157984
0 -0.017704 0.00608215 0.162664 -0.121833 0.000689858
0 -0.013954 0.0124878 0.185051 -0.121248 0.00145752
0 -0.000204 0.01875 0.194385 -0.116743 0.00193145
0 -0.011454 0.0149988 0.190403 -0.118825 0.00167134
-8.56718e-20 0.016046 0.00994629 0.162393 -0.133421 0.00127452
-1.0842e-19 0.002296 0.01875 0.193309 -0.117403 0.00194541
1.0842e-19 -0.015204 0.011217 0.182198 -0.122327 0.00133485
0 -0.002704 0.01875 0.195447 -0.116075 0.00191102
8.27181e-25 -0.018954 6.6199e-09 3.49572e-07 -2.6333e-07 3.27265e-10
1.0842e-19 0.009796 0.0162494 0.183969 -0.123083 0.0018823
-2.58494e-26 -0.018954 0.00233887 0.119835 -0.0915333 0.000187747
4.97932e-20 0.018546 0.00479858 0.135901 -0.129134 0.000555492
1.0842e-19 -0.010204 0.0162494 0.19292 -0.117481 0.00176188
0 -0.018954 0.00305909 0.129592 -0.0986548 0.000274111
-4.73061e-20 -0.016454 0.00994629 0.1785 -0.122858 0.0011661
2.1684e-19 0.017296 0.008656 0.157253 -0.135067 0.00109036
0 0.004796 0.01875 0.192217 -0.118052 0.00195341
0 -0.005204 0.01875 0.196495 -0.115393 0.00188402
-3.54882e-20 0.008546 0.0175 0.187553 -0.120882 0.00192215
0 -0.018954 0.00479858 0.153157 -0.115855 0.0004827
0 0.013546 0.0141132 0.176378 -0.127278 0.00171541
-1.91544e-20 -0.008954 0.0175 0.195215 -0.1161 0.00180879
-1.26218e-29 0.0127207 0.0149988 0.179254 -0.125759 0.00179049
0 -0.017704 0.008656 0.174792 -0.123375 0.00100146
0 0.019796 0.00116943 0.0862736 -0.0832199 0.000120556
-7.69895e-20 0.018546 0.00736572 0.150707 -0.135001 0.000921228
3.28979e-21 0.001046 0.02 0.196557 -0.115309 0.00193706
-9.67102e-20 -0.001454 0.02 0.197603 -0.114656 0.00191906
0 0.016046 0.0120613 0.169165 -0.13086 0.00151551
-1.0842e-19 0.019796 0.00356872 0.126434 -0.124108 0.000351547
0 0.007296 0.01875 0.19111 -0.118694 0.00195664
0 0.014796 0.0137433 0.174888 -0.128238 0.00169206
1.26218e-29 0.013546 0.0149988 0.178847 -0.125977 0.00178602
1.0842e-19 -0.020204 0.00116943 0.0970834 -0.0726071 9.1621e-05
-1.0842e-19 -0.007704 0.01875 0.197531 -0.114699 0.00185263
3.28979e-21 0.003546 0.02 0.195496 -0.115952 0.0019499
-4.03897e-28 0.016046 0.0124878 0.17053 -0.130343 0.0015641
0 -0.018954 0.00736572 0.169281 -0.122141 0.000835982
1.0842e-19 0.012296 0.0162494 0.182773 -0.123735 0.00187352
-9.67102e-20 -0.003954 0.02 0.198636 -0.113992 0.00189569
-1.00974e-28 -0.013954 0.0149988 0.191483 -0.118039 0.00162671
0 -0.015204 0.0137433 0.189011 -0.119337 0.00153513
0 -0.020204 0.00356872 0.143722 -0.109971 0.000283095
1.0842e-19 0.017296 0.011217 0.166124 -0.132466 0.00142965
1.0842e-19 -0.012704 0.0162494 0.193977 -0.116722 0.00171817
3.23117e-27 -0.016454 0.0124878 0.186166 -0.120407 0.00141459
-3.54882e-20 0.011046 0.0175 0.186393 -0.121528 0.00191821
-2.1684e-19 0.019796 0.00608215 0.1442 -0.134955 0.000758548
1.57772e-29 -0.011454 0.0173004 0.195789 -0.115643 0.00176136
6.45119e-20 0.006046 0.02 0.19442 -0.116588 0.00195876
0 -0.011454 0.0175 0.196256 -0.115367 0.00176917
1.0842e-19 -0.017704 0.011217 0.183328 -0.12146 0.00129467
8.08456e-20 -0.006454 0.02 0.199657 -0.113316 0.0018678
-3.70875e-20 0.018546 0.00994629 0.16099 -0.134088 0.0012508
-1.65436e-24 0.021046 1.32786e-08 6.21659e-07 -6.05112e-07 8.98092e-10
-1.0842e-19 -0.020204 0.00608215 0.163767 -0.120896 0.000675507
-1.0842e-19 0.009796 0.01875 0.189987 -0.119332 0.00195783
-3.32229e-20 0.021046 0.00233887 0.105688 -0.103824 0.000238141
0 -0.000204 0.02125 0.199782 -0.113226 0.00192741
0 -0.010204 0.01875 0.198556 -0.113991 0.00181755
0 0.002296 0.02125 0.198752 -0.113864 0.00194399
0 -0.018954 0.00994629 0.179632 -0.121969 0.00113377
-1.0842e-19 -0.002704 0.02125 0.2008 -0.11258 0.00190637
-1.65436e-24 -0.021454 7.86035e-09 4.17485e-07 -3.0979e-07 3.88239e-10
-3.67055e-20 -0.021454 0.00233887 0.120587 -0.0907425 0.00018641
1.64666e-19 0.021046 0.00479858 0.134601 -0.129841 0.00055508
0 0.019796 0.008656 0.155811 -0.135716 0.00106912
0 0.0176473 0.0124878 0.169669 -0.130764 0.0015542
-1.13044e-19 0.008546 0.02 0.193328 -0.117217 0.00196554
1.0842e-19 0.004796 0.02125 0.197707 -0.114492 0.00195679
-1.0842e-19 -0.005204 0.02125 0.201804 -0.11192 0.00188137
8.08456e-20 -0.008954 0.02 0.200665 -0.112628 0.00183608
0 -0.021454 0.00449012 0.149962 -0.111895 0.000439236
3.15544e-30 0.013546 0.0172844 0.184666 -0.122493 0.00190472
0 0.016046 0.0149988 0.177592 -0.12663 0.00177681
1.0842e-19 0.014796 0.0162494 0.181557 -0.124378 0.00186788
0 -0.020204 0.008656 0.175922 -0.122462 0.000977654
0 -0.021454 0.00479858 0.154174 -0.114928 0.000475487
-1.0842e-19 0.017296 0.0137433 0.173591 -0.128897 0.00167916
-9.67096e-20 0.013546 0.0175 0.185215 -0.122164 0.00191592
0 -0.015204 0.0162494 0.195025 -0.115951 0.00167352
-2.01948e-28 -0.016454 0.0149988 0.192551 -0.117243 0.00158324
1.19679e-19 0.021046 0.00736572 0.149287 -0.135657 0.000909982
-1.0842e-19 0.022296 0.00116943 0.0854626 -0.0837848 0.000125105
9.46633e-30 -0.013954 0.0174568 0.197185 -0.11468 0.00172557
-7.79273e-20 0.018546 0.0124878 0.169185 -0.131 0.00154864
0 -0.013954 0.0175 0.197285 -0.114621 0.00172731
0 -0.017704 0.0137433 0.190098 -0.118515 0.0014929
-1.0842e-19 0.012296 0.01875 0.188845 -0.119962 0.0019592
-1.0842e-19 0.007296 0.02125 0.196647 -0.115114 0.0019682
8.08456e-20 0.001046 0.0225 0.201788 -0.111887 0.00191109
8.08456e-20 -0.001454 0.0225 0.202792 -0.111255 0.00189143
-1.0842e-19 0.022296 0.00356872 0.125216 -0.124836 0.000359049
1.0842e-19 -0.007704 0.02125 0.202797 -0.111252 0.00185318
0 -0.012704 0.01875 0.19957 -0.113273 0.00177907
0 -0.021454 0.00736572 0.170384 -0.121212 0.000819602
0 -0.018954 0.0124878 0.187266 -0.119559 0.00137578
0 -0.022704 0.00116943 0.0976309 -0.0719319 9.2083e-05
-2.1684e-19 0.019796 0.011217 0.164726 -0.133116 0.00141228
-9.67102e-20 0.003546 0.0225 0.20077 -0.112509 0.00192768
3.28979e-21 -0.003954 0.0225 0.203782 -0.110612 0.00186854
3.28979e-21 0.011046 0.02 0.192219 -0.117837 0.00197192
0 -0.0224661 0.00479858 0.154574 -0.114548 0.000474158
2.1684e-19 -0.022704 0.00356872 0.144655 -0.109052 0.000281867
1.58401e-19 -0.011454 0.02 0.201662 -0.111929 0.00180106
-1.0842e-19 -0.020204 0.011217 0.18444 -0.120586 0.0012598
2.1684e-19 0.022296 0.00608215 0.142809 -0.135623 0.00075695
-1.26589e-20 0.021046 0.00994629 0.159558 -0.134723 0.00123495
-3.54881e-20 0.006046 0.0225 0.199739 -0.113123 0.0019424
0 0.009796 0.02125 0.19557 -0.115726 0.00197951
-9.67102e-20 -0.006454 0.0225 0.20476 -0.109959 0.00184258
0 -0.022704 0.00608215 0.16484 -0.119949 0.000667056
0 0.023546 1.4979e-08 6.94509e-07 -6.87193e-07 1.05688e-09
0 -0.010204 0.02125 0.203777 -0.110572 0.00182098
-2.52435e-29 0.018546 0.0146545 0.175336 -0.127779 0.00174257
0 -0.021454 0.00994629 0.180741 -0.121072 0.00110717
-7.77765e-20 0.023546 0.00233888 0.104672 -0.104467 0.000244981
-2.99767e-29 0.016046 0.0174447 0.183875 -0.122875 0.00191471
1.0842e-19 0.017296 0.0162494 0.180321 -0.125011 0.00186788
-1.91538e-20 0.016046 0.0175 0.184017 -0.12279 0.00191783
-1.0842e-19 -0.000204 0.02375 0.204804 -0.109921 0.0018768
0 0.018546 0.0149988 0.176314 -0.127268 0.00177339
1.0842e-19 0.002296 0.02375 0.203814 -0.110537 0.00189618
-1.0842e-19 0.014796 0.01875 0.187685 -0.120582 0.00196306
0 -0.002704 0.02375 0.205781 -0.109294 0.00185514
-1.0842e-19 0.022296 0.008656 0.15435 -0.136336 0.00105585
1.65436e-24 -0.023954 9.64824e-09 5.15288e-07 -3.76672e-07 4.79757e-10
1.26218e-29 -0.016454 0.0174796 0.198255 -0.11389 0.00168468
-1.57772e-30 -0.016454 0.0175 0.198302 -0.113862 0.00168551
-4.44498e-20 0.023546 0.00479858 0.133299 -0.130535 0.000558519
-1.0842e-19 -0.017704 0.0162494 0.196061 -0.115172 0.00163121
-9.04137e-20 -0.023954 0.00233887 0.121313 -0.0899413 0.000187084
-3.54881e-20 0.008546 0.0225 0.198694 -0.113731 0.00195661
1.0842e-19 0.019796 0.0137433 0.172268 -0.129538 0.00167243
0 -0.015204 0.01875 0.200569 -0.112537 0.00173847
-1.91544e-20 0.013546 0.02 0.191092 -0.118449 0.00197949
0 -0.018954 0.0149988 0.193605 -0.116438 0.00154317
0 0.0189756 0.0149988 0.17609 -0.127375 0.00177376
-1.91544e-20 -0.008954 0.0225 0.205726 -0.109296 0.00181334
1.0842e-19 0.004796 0.02375 0.20281 -0.111144 0.00191375
1.0842e-19 -0.022704 0.008656 0.177028 -0.121545 0.000958729
-1.0842e-19 -0.005204 0.02375 0.206744 -0.108657 0.00183128
1.58401e-19 -0.013954 0.02 0.202645 -0.111216 0.00176415
6.90159e-20 -0.023954 0.00479858 0.155162 -0.113989 0.000472205
2.1684e-19 -0.020204 0.0137433 0.191169 -0.117685 0.00145496
-1.3697e-19 0.021046 0.0124878 0.16781 -0.131634 0.00153935
-1.0842e-19 0.012296 0.02125 0.194475 -0.11633 0.00199116
1.55749e-19 0.023546 0.00736572 0.147859 -0.136291 0.000902627
-1.0842e-19 -0.012704 0.02125 0.204745 -0.109881 0.00178666
0 -0.023954 0.00649991 0.165963 -0.118155 0.000694601
0 0.024796 0.00116943 0.0846333 -0.0843389 0.000130844
-3.23117e-27 -0.021454 0.0124878 0.188347 -0.118702 0.00134225
0 0.007296 0.02375 0.201794 -0.111745 0.00193088
1.0842e-19 0.022296 0.011217 0.163299 -0.13374 0.00140074
0 -0.007704 0.02375 0.207696 -0.10801 0.00180451
-1.91544e-20 0.001046 0.025 0.206658 -0.108662 0.00184029
8.08456e-20 -0.001454 0.025 0.207622 -0.108049 0.00181978
1.0842e-19 0.024796 0.00356872 0.124003 -0.125561 0.000368671
0 -0.023954 0.00736572 0.17146 -0.120274 0.00080778
8.08456e-20 0.011046 0.0225 0.197632 -0.114329 0.00197108
-1.0842e-19 -0.025204 0.00116944 0.0981593 -0.0712487 9.36957e-05
5.84013e-20 -0.011454 0.0225 0.20668 -0.108622 0.00178144
8.08456e-20 0.003546 0.025 0.205682 -0.109265 0.00185954
3.28979e-21 -0.003954 0.025 0.208572 -0.107426 0.00179749
1.0842e-19 -0.022704 0.011217 0.18553 -0.119705 0.00123105
7.88861e-30 0.018546 0.0173753 0.182477 -0.123597 0.00191809
1.0842e-19 -0.025204 0.00356872 0.145558 -0.10812 0.000283705
0 0.018546 0.0175 0.182801 -0.123404 0.00192569
0 0.017296 0.01875 0.186506 -0.121189 0.00197249
1.0842e-19 0.024796 0.00608215 0.14142 -0.136274 0.000755034
1.18654e-21 0.023546 0.00994629 0.158105 -0.135332 0.00122279
1.0842e-19 0.019796 0.0162494 0.179067 -0.12563 0.00187385
1.58401e-19 0.016046 0.02 0.189948 -0.119052 0.00199055
0 0.009796 0.02375 0.200764 -0.112338 0.00194787
3.28979e-21 0.006046 0.025 0.204692 -0.109859 0.00187843
0 -0.017704 0.01875 0.201552 -0.111788 0.00169884
-5.83757e-29 -0.018954 0.0174859 0.199272 -0.113111 0.0016458
-9.67102e-20 -0.018954 0.0175 0.199304 -0.113092 0.00164639
3.28979e-21 -0.006454 0.025 0.209511 -0.106793 0.00177308
-1.12244e-19 0.021046 0.0149988 0.175013 -0.12789 0.00177554
1.0842e-19 -0.010204 0.02375 0.208636 -0.107353 0.0017747
-1.0842e-19 0.014796 0.02125 0.193363 -0.116925 0.00200454
-9.67102e-20 -0.016454 0.02 0.203615 -0.11049 0.00172683
0 -0.025204 0.00608215 0.165886 -0.118991 0.000661666
1.0842e-19 -0.020204 0.0162494 0.197082 -0.114382 0.00159343
1.29247e-26 -0.023954 0.00994629 0.181826 -0.120167 0.00108605
3.30872e-24 0.026046 1.67421e-08 7.68776e-07 -7.73306e-07 1.22749e-09
0 -0.015204 0.02125 0.205699 -0.109175 0.00175241
-1.18197e-19 0.026046 0.00233888 0.10366 -0.105112 0.000251624
0 -0.021454 0.0149988 0.194641 -0.115621 0.00150775
1.0842e-19 0.022296 0.0137433 0.170917 -0.13016 0.00167086
-1.0842e-19 -0.000204 0.02625 0.209482 -0.106796 0.00178414
1.58401e-19 0.013546 0.0225 0.196552 -0.114917 0.0019869
-1.0842e-19 0.024796 0.008656 0.152878 -0.136934 0.0010432
0 0.002296 0.02625 0.208534 -0.107397 0.00180404
0 -0.002704 0.02625 0.21042 -0.106188 0.00176304
3.28979e-21 0.008546 0.025 0.203689 -0.110444 0.00189741
0 -0.026454 1.03089e-08 5.535e-07 -3.9859e-07 5.23253e-10
1.58401e-19 -0.013954 0.0225 0.207621 -0.107935 0.00174865
-2.36214e-20 0.026046 0.00479858 0.132005 -0.131223 0.000559147
-1.0842e-19 -0.022704 0.0137433 0.192221 -0.116842 0.00142239
-9.67102e-20 -0.008954 0.025 0.210437 -0.10615 0.00174637
0 -0.026454 0.00233887 0.122018 -0.0891311 0.000189516
-1.0842e-19 -0.025204 0.008656 0.178107 -0.120615 0.000944186
-1.97619e-20 0.023546 0.0124878 0.166408 -0.132246 0.00153338
-1.0842e-19 0.004796 0.02625 0.20757 -0.107985 0.00182419
-1.0842e-19 0.012296 0.02375 0.199718 -0.112922 0.00196579
0 -0.005204 0.02625 0.211345 -0.105568 0.0017405
-5.16988e-26 -0.026454 0.00479858 0.156123 -0.113041 0.000471449
0 -0.012704 0.02375 0.209563 -0.106683 0.00174342
0 -0.023954 0.0124878 0.189407 -0.117835 0.00131451
-1.29593e-20 0.026046 0.00736572 0.146428 -0.136908 0.00089056
0 0.024796 0.011217 0.161846 -0.134335 0.00138955
-1.0842e-19 0.007296 0.02625 0.206594 -0.108564 0.0018449
0 0.019796 0.01875 0.185309 -0.121787 0.00198853
1.58401e-19 0.018546 0.02 0.188787 -0.119644 0.00200703
1.0842e-19 0.027296 0.00116943 0.0838164 -0.0849068 0.000136264
8.08456e-20 0.011046 0.025 0.20267 -0.11102 0.00191707
1.29247e-26 -0.026454 0.00693693 0.169771 -0.118277 0.000744565
0 -0.007704 0.02625 0.212258 -0.10494 0.00171604
-1.91544e-20 0.021046 0.0175 0.181565 -0.124007 0.00193949
-1.0842e-19 0.017296 0.02125 0.192237 -0.117513 0.00202213
-1.29247e-26 -0.026454 0.00736572 0.172508 -0.119327 0.000799332
8.08456e-20 -0.011454 0.025 0.21135 -0.105495 0.00171799
-1.91544e-20 0.001046 0.0275 0.211176 -0.105657 0.00172948
0 0.027296 0.00356872 0.122811 -0.126297 0.000374497
-1.91544e-20 -0.001454 0.0275 0.212101 -0.105061 0.00170916
3.28979e-21 -0.018954 0.02 0.20457 -0.109751 0.00169033
0 -0.020204 0.01875 0.202521 -0.111027 0.00166206
0 -0.025204 0.011217 0.186595 -0.118812 0.00120881
1.0842e-19 0.022296 0.0162494 0.177791 -0.126239 0.00188477
1.58401e-19 0.016046 0.0225 0.195457 -0.115496 0.00200559
0 -0.017704 0.02125 0.20664 -0.108459 0.00171761
-1.13596e-28 -0.021454 0.0174875 0.200262 -0.112328 0.00161039
-1.57772e-30 -0.021454 0.0175 0.200291 -0.112311 0.0016109
1.58401e-19 0.003546 0.0275 0.210238 -0.106243 0.00174954
1.0842e-19 -0.027704 0.00116943 0.0986715 -0.0705581 9.63517e-05
4.20665e-20 -0.003954 0.0275 0.213014 -0.104455 0.00168787
-1.57772e-30 -0.001454 0.027817 0.21262 -0.104717 0.00169038
-9.67102e-20 -0.016454 0.0225 0.208549 -0.107238 0.00171559
-1.225e-21 0.026046 0.00994629 0.156635 -0.13592 0.00120623
-2.8766e-20 0.023546 0.0149988 0.173687 -0.128497 0.00178141
0 -0.022704 0.0162494 0.198084 -0.113579 0.00156002
0 -0.027704 0.00356872 0.146437 -0.107181 0.000287334
-1.0842e-19 0.027296 0.00608215 0.140036 -0.136914 0.000743808
0 0.014796 0.02375 0.198654 -0.113493 0.00198611
0 0.009796 0.02625 0.205603 -0.109131 0.00186601
-1.91544e-20 0.006046 0.0275 0.209289 -0.10682 0.00177002
1.0842e-19 -0.010204 0.02625 0.213157 -0.104298 0.00169025
1.0842e-19 -0.015204 0.02375 0.210478 -0.106004 0.00171211
-9.67102e-20 -0.006454 0.0275 0.213915 -0.10384 0.00166529
0 -0.026454 0.00994629 0.182887 -0.119253 0.0010697
0 -0.023954 0.0149988 0.195659 -0.114794 0.00147694
-2.1684e-19 0.024796 0.0137433 0.169539 -0.130763 0.00167126
0 -0.027704 0.00608215 0.166903 -0.118026 0.000658463
-1.91544e-20 0.013546 0.025 0.201637 -0.111585 0.00193861
0 0.028546 1.77183e-08 8.06043e-07 -8.24217e-07 1.32812e-09
8.08456e-20 -0.013954 0.025 0.212252 -0.104831 0.00168879
0 0.027296 0.008656 0.151398 -0.137514 0.00102071
4.87689e-20 0.028546 0.00233888 0.102676 -0.105776 0.000253998
0 -0.025204 0.0137433 0.193254 -0.115991 0.001395
-1.0842e-19 -0.000204 0.0287506 0.213802 -0.103927 0.00165493
-9.67102e-20 0.008546 0.0275 0.208325 -0.107386 0.00179105
0 0.002296 0.0287506 0.212888 -0.104509 0.00167478
1.0842e-19 -0.002704 0.0287506 0.214703 -0.103334 0.0016345
3.25574e-20 0.026046 0.0124878 0.164979 -0.132835 0.00152495
8.08456e-20 -0.008954 0.0275 0.214803 -0.103215 0.00164121
-9.44979e-20 0.028546 0.00479858 0.130729 -0.131913 0.000549235
1.65436e-24 -0.028954 9.40763e-09 5.07705e-07 -3.60174e-07 4.90716e-10
-1.0842e-19 0.012296 0.02625 0.204597 -0.109689 0.00188862
0 -0.027704 0.00865601 0.17916 -0.119679 0.000933515
8.08456e-20 0.021046 0.02 0.187609 -0.120224 0.0020294
0 0.019796 0.02125 0.191095 -0.118086 0.00204499
-4.1359e-25 -0.028954 0.00233887 0.122702 -0.0883135 0.000192629
-1.0842e-19 0.022296 0.01875 0.184095 -0.122372 0.00201082
0 0.004796 0.0287506 0.211964 -0.105084 0.00169515
8.08456e-20 0.018546 0.0225 0.194348 -0.116065 0.00202844
-1.0842e-19 -0.012704 0.02625 0.214045 -0.103649 0.00166361
7.88861e-30 -0.008954 0.0277549 0.21521 -0.102943 0.00162657
-1.0842e-19 -0.005204 0.0287506 0.215591 -0.102732 0.00161342
0 -0.026454 0.0124878 0.190446 -0.11696 0.00129164
1.0842e-19 -0.020204 0.02125 0.207568 -0.107732 0.00168284
-1.91544e-20 -0.021454 0.02 0.205511 -0.109003 0.00165549
-1.9158e-20 0.023546 0.0175 0.18031 -0.124596 0.001958
0 -0.028954 0.00479858 0.157057 -0.112084 0.000472247
0 0.017296 0.02375 0.197576 -0.114055 0.0020096
8.08456e-20 -0.018954 0.0225 0.209464 -0.106529 0.00168239
0 -0.022704 0.01875 0.203475 -0.110258 0.0016281
-1.39066e-19 0.028546 0.00736572 0.144995 -0.137509 0.000864298
-1.0842e-19 0.027296 0.011217 0.16037 -0.134912 0.00136964
-1.0842e-19 -0.017704 0.02375 0.21138 -0.105314 0.00168026
8.08456e-20 0.011046 0.0275 0.207348 -0.107941 0.00181329
-1.0842e-19 0.024796 0.0162494 0.176492 -0.126831 0.00189849
0 -0.028954 0.00637191 0.167153 -0.115937 0.000669146
4.57539e-29 -0.023954 0.0174875 0.201233 -0.111537 0.00157815
-1.0842e-19 0.007296 0.0287506 0.211028 -0.105649 0.00171582
0 -0.023954 0.0175 0.201261 -0.111521 0.00157866
-1.91544e-20 0.016046 0.025 0.200589 -0.11214 0.00196293
1.0842e-19 -0.007704 0.0287506 0.216468 -0.102121 0.00159118