# Wall shear stress
# Time        	patch         	min           	max           
20            	cylinder	(-4.317446e-03 -2.137701e-03 -2.682897e-03)	(1.725928e-03 1.979632e-03 2.371781e-03)
40            	cylinder	(-9.863829e-04 -1.705707e-03 -8.762510e-04)	(5.884354e-04 1.734586e-03 4.809152e-04)
60            	cylinder	(-1.028670e-03 -1.696655e-03 -9.210601e-04)	(3.669029e-04 1.751686e-03 4.565029e-04)
80            	cylinder	(-9.553861e-04 -1.808203e-03 -5.521478e-04)	(3.734990e-04 1.790598e-03 5.403197e-04)
100           	cylinder	(-1.001060e-03 -1.756158e-03 -4.134922e-04)	(4.002105e-04 1.722839e-03 7.247334e-04)
120           	cylinder	(-9.493113e-04 -1.684528e-03 -4.036864e-04)	(4.861374e-04 1.674138e-03 8.050550e-04)
140           	cylinder	(-8.843625e-04 -1.713481e-03 -3.815316e-04)	(4.886209e-04 1.678223e-03 8.494750e-04)
160           	cylinder	(-8.530683e-04 -1.634759e-03 -3.721396e-04)	(5.512216e-04 1.566024e-03 7.253352e-04)
180           	cylinder	(-9.073073e-04 -1.528579e-03 -3.749912e-04)	(3.067530e-04 1.471595e-03 5.517727e-04)
200           	cylinder	(-8.639867e-04 -1.491961e-03 -3.857471e-04)	(2.755077e-04 1.417563e-03 5.448058e-04)
220           	cylinder	(-8.170393e-04 -1.464195e-03 -3.678017e-04)	(2.911965e-04 1.434360e-03 5.423004e-04)
240           	cylinder	(-7.977294e-04 -1.498987e-03 -3.741289e-04)	(3.931759e-04 1.440022e-03 5.541424e-04)
260           	cylinder	(-7.947709e-04 -1.509248e-03 -3.784791e-04)	(3.361171e-04 1.449840e-03 5.562156e-04)
280           	cylinder	(-7.896151e-04 -1.505684e-03 -3.756259e-04)	(2.974391e-04 1.455796e-03 5.593207e-04)
300           	cylinder	(-7.836178e-04 -1.477598e-03 -3.807927e-04)	(2.855924e-04 1.453554e-03 5.531335e-04)
320           	cylinder	(-7.721180e-04 -1.432521e-03 -3.855840e-04)	(2.637188e-04 1.439263e-03 5.467400e-04)
340           	cylinder	(-7.527992e-04 -1.391624e-03 -3.835970e-04)	(2.395909e-04 1.431084e-03 5.400379e-04)
360           	cylinder	(-7.490746e-04 -1.375621e-03 -3.770585e-04)	(2.400903e-04 1.427301e-03 5.383000e-04)
380           	cylinder	(-7.576143e-04 -1.366083e-03 -3.742241e-04)	(2.409931e-04 1.423192e-03 5.398594e-04)
400           	cylinder	(-7.548914e-04 -1.368422e-03 -3.734426e-04)	(2.406395e-04 1.411182e-03 5.419407e-04)
420           	cylinder	(-7.469774e-04 -1.374080e-03 -3.740659e-04)	(2.382054e-04 1.399580e-03 5.444791e-04)
440           	cylinder	(-7.462277e-04 -1.379037e-03 -3.750321e-04)	(2.364497e-04 1.395587e-03 5.462654e-04)
460           	cylinder	(-7.427778e-04 -1.385977e-03 -3.764310e-04)	(2.358030e-04 1.396804e-03 5.461279e-04)
480           	cylinder	(-7.381042e-04 -1.387471e-03 -3.769090e-04)	(2.361306e-04 1.401749e-03 5.455574e-04)
500           	cylinder	(-7.333308e-04 -1.387722e-03 -3.766815e-04)	(2.375485e-04 1.401714e-03 5.429183e-04)
520           	cylinder	(-7.255373e-04 -1.385805e-03 -3.771744e-04)	(2.369126e-04 1.395185e-03 5.429384e-04)
540           	cylinder	(-7.189213e-04 -1.383960e-03 -3.762513e-04)	(2.360280e-04 1.394732e-03 5.431465e-04)
560           	cylinder	(-7.161887e-04 -1.382907e-03 -3.750904e-04)	(2.357391e-04 1.399274e-03 5.426436e-04)
580           	cylinder	(-7.143787e-04 -1.384362e-03 -3.738070e-04)	(2.365011e-04 1.395499e-03 5.428050e-04)
600           	cylinder	(-7.139448e-04 -1.382826e-03 -3.732970e-04)	(2.356594e-04 1.389869e-03 5.433537e-04)
620           	cylinder	(-7.148593e-04 -1.372781e-03 -3.731197e-04)	(2.346116e-04 1.391558e-03 5.434469e-04)
640           	cylinder	(-7.151691e-04 -1.360357e-03 -3.734600e-04)	(2.350793e-04 1.392632e-03 5.426725e-04)
660           	cylinder	(-7.242139e-04 -1.354968e-03 -3.743088e-04)	(2.360852e-04 1.393553e-03 5.420161e-04)
680           	cylinder	(-7.377091e-04 -1.355569e-03 -3.752585e-04)	(2.367968e-04 1.396777e-03 5.417056e-04)
700           	cylinder	(-7.276849e-04 -1.356665e-03 -3.759975e-04)	(2.374720e-04 1.398986e-03 5.412341e-04)
720           	cylinder	(-7.203382e-04 -1.358582e-03 -3.764686e-04)	(2.377280e-04 1.398933e-03 5.404623e-04)
740           	cylinder	(-7.191278e-04 -1.361918e-03 -3.765449e-04)	(2.375626e-04 1.397615e-03 5.412182e-04)
760           	cylinder	(-7.183630e-04 -1.365711e-03 -3.762348e-04)	(2.374392e-04 1.397429e-03 5.406668e-04)
780           	cylinder	(-7.177491e-04 -1.368779e-03 -3.762017e-04)	(2.375096e-04 1.397055e-03 5.410537e-04)
800           	cylinder	(-7.165543e-04 -1.371499e-03 -3.763482e-04)	(2.373452e-04 1.395007e-03 5.418978e-04)
820           	cylinder	(-7.156225e-04 -1.374560e-03 -3.761393e-04)	(2.369577e-04 1.391813e-03 5.431548e-04)
840           	cylinder	(-7.141030e-04 -1.377761e-03 -3.755147e-04)	(2.363436e-04 1.387863e-03 5.437688e-04)
860           	cylinder	(-7.110721e-04 -1.380909e-03 -3.746050e-04)	(2.356135e-04 1.383562e-03 5.432120e-04)
880           	cylinder	(-7.072683e-04 -1.382592e-03 -3.733356e-04)	(2.348752e-04 1.380566e-03 5.426268e-04)
900           	cylinder	(-7.048137e-04 -1.381749e-03 -3.722906e-04)	(2.346523e-04 1.378396e-03 5.421987e-04)
920           	cylinder	(-7.043180e-04 -1.379062e-03 -3.718142e-04)	(2.345095e-04 1.376482e-03 5.411277e-04)
940           	cylinder	(-7.055403e-04 -1.375863e-03 -3.717395e-04)	(2.339933e-04 1.376287e-03 5.405880e-04)
960           	cylinder	(-7.058547e-04 -1.374037e-03 -3.719094e-04)	(2.335866e-04 1.377423e-03 5.409189e-04)
980           	cylinder	(-7.055253e-04 -1.373441e-03 -3.716698e-04)	(2.338085e-04 1.380218e-03 5.411617e-04)
1000          	cylinder	(-7.051305e-04 -1.373861e-03 -3.715429e-04)	(2.345046e-04 1.383446e-03 5.416878e-04)
1020          	cylinder	(-7.063418e-04 -1.374952e-03 -3.718073e-04)	(2.353378e-04 1.386312e-03 5.422767e-04)
1040          	cylinder	(-7.073663e-04 -1.376284e-03 -3.720749e-04)	(2.356585e-04 1.387556e-03 5.424990e-04)
1060          	cylinder	(-7.073510e-04 -1.377812e-03 -3.721615e-04)	(2.356541e-04 1.387055e-03 5.426063e-04)
1080          	cylinder	(-7.067026e-04 -1.379833e-03 -3.721365e-04)	(2.354920e-04 1.386099e-03 5.429491e-04)
1100          	cylinder	(-7.060541e-04 -1.382518e-03 -3.720992e-04)	(2.353239e-04 1.385374e-03 5.431140e-04)
1120          	cylinder	(-7.052548e-04 -1.384887e-03 -3.720575e-04)	(2.351482e-04 1.384296e-03 5.428038e-04)
1140          	cylinder	(-7.045674e-04 -1.386578e-03 -3.718660e-04)	(2.349696e-04 1.383154e-03 5.426466e-04)
1160          	cylinder	(-7.044782e-04 -1.387461e-03 -3.717475e-04)	(2.351459e-04 1.382192e-03 5.427833e-04)
1180          	cylinder	(-7.043917e-04 -1.387698e-03 -3.719227e-04)	(2.352458e-04 1.381310e-03 5.429191e-04)
1200          	cylinder	(-7.041716e-04 -1.387561e-03 -3.719793e-04)	(2.352791e-04 1.380855e-03 5.428513e-04)
1220          	cylinder	(-7.037840e-04 -1.387278e-03 -3.719756e-04)	(2.352823e-04 1.380558e-03 5.427550e-04)
1240          	cylinder	(-7.032460e-04 -1.386882e-03 -3.719100e-04)	(2.352981e-04 1.379984e-03 5.427329e-04)
1260          	cylinder	(-7.026510e-04 -1.386174e-03 -3.718241e-04)	(2.352764e-04 1.379398e-03 5.427332e-04)
1280          	cylinder	(-7.020268e-04 -1.385184e-03 -3.717342e-04)	(2.351857e-04 1.378885e-03 5.427131e-04)
1300          	cylinder	(-7.014095e-04 -1.384183e-03 -3.716197e-04)	(2.350634e-04 1.378135e-03 5.426514e-04)
1320          	cylinder	(-7.008245e-04 -1.383320e-03 -3.714850e-04)	(2.349459e-04 1.377399e-03 5.425299e-04)
1340          	cylinder	(-7.003555e-04 -1.382622e-03 -3.713584e-04)	(2.348612e-04 1.376741e-03 5.423782e-04)
1360          	cylinder	(-7.000055e-04 -1.381918e-03 -3.712701e-04)	(2.347862e-04 1.375971e-03 5.422714e-04)
1380          	cylinder	(-6.997123e-04 -1.381154e-03 -3.712039e-04)	(2.346955e-04 1.375333e-03 5.422411e-04)
1400          	cylinder	(-6.994857e-04 -1.380417e-03 -3.711313e-04)	(2.346046e-04 1.374942e-03 5.422406e-04)
1420          	cylinder	(-6.993556e-04 -1.379801e-03 -3.710551e-04)	(2.345228e-04 1.374754e-03 5.422111e-04)
1440          	cylinder	(-6.992312e-04 -1.379254e-03 -3.709929e-04)	(2.344512e-04 1.374901e-03 5.421599e-04)
1460          	cylinder	(-6.990162e-04 -1.378727e-03 -3.709403e-04)	(2.343798e-04 1.375094e-03 5.421872e-04)
1480          	cylinder	(-6.987428e-04 -1.378245e-03 -3.708785e-04)	(2.342949e-04 1.375397e-03 5.423185e-04)
1500          	cylinder	(-6.984926e-04 -1.377912e-03 -3.708092e-04)	(2.342265e-04 1.375717e-03 5.424629e-04)
1520          	cylinder	(-6.982354e-04 -1.377622e-03 -3.707460e-04)	(2.341578e-04 1.376345e-03 5.425214e-04)
1540          	cylinder	(-6.979122e-04 -1.377303e-03 -3.706810e-04)	(2.340913e-04 1.376382e-03 5.425519e-04)
1560          	cylinder	(-6.975987e-04 -1.377056e-03 -3.705959e-04)	(2.340425e-04 1.377048e-03 5.426330e-04)
1580          	cylinder	(-6.973661e-04 -1.376933e-03 -3.705038e-04)	(2.340897e-04 1.377202e-03 5.427078e-04)
1600          	cylinder	(-6.972504e-04 -1.376809e-03 -3.704262e-04)	(2.341312e-04 1.377686e-03 5.427170e-04)
1620          	cylinder	(-6.973815e-04 -1.376654e-03 -3.703610e-04)	(2.341738e-04 1.377650e-03 5.427239e-04)
1640          	cylinder	(-6.975033e-04 -1.376533e-03 -3.702978e-04)	(2.341796e-04 1.378418e-03 5.427690e-04)
1660          	cylinder	(-6.976361e-04 -1.376506e-03 -3.702401e-04)	(2.342169e-04 1.378145e-03 5.427993e-04)
1680          	cylinder	(-6.977556e-04 -1.376497e-03 -3.701914e-04)	(2.342538e-04 1.378811e-03 5.427940e-04)
1700          	cylinder	(-6.978366e-04 -1.376497e-03 -3.702204e-04)	(2.343093e-04 1.379054e-03 5.428024e-04)
1720          	cylinder	(-6.979077e-04 -1.376490e-03 -3.702649e-04)	(2.343344e-04 1.379145e-03 5.428255e-04)
1740          	cylinder	(-6.979871e-04 -1.376545e-03 -3.703040e-04)	(2.343751e-04 1.379290e-03 5.428329e-04)
1760          	cylinder	(-6.980482e-04 -1.376593e-03 -3.703362e-04)	(2.343733e-04 1.379332e-03 5.428290e-04)
1780          	cylinder	(-6.980991e-04 -1.376678e-03 -3.703660e-04)	(2.343957e-04 1.378850e-03 5.428337e-04)
1800          	cylinder	(-6.981484e-04 -1.376792e-03 -3.703942e-04)	(2.344140e-04 1.379525e-03 5.428444e-04)
1820          	cylinder	(-6.981879e-04 -1.376923e-03 -3.704164e-04)	(2.344319e-04 1.379564e-03 5.428458e-04)
1840          	cylinder	(-6.982341e-04 -1.377088e-03 -3.704326e-04)	(2.344556e-04 1.379206e-03 5.428542e-04)
1860          	cylinder	(-6.982921e-04 -1.377268e-03 -3.704481e-04)	(2.344792e-04 1.379564e-03 5.428665e-04)
1880          	cylinder	(-6.983457e-04 -1.377442e-03 -3.704637e-04)	(2.344753e-04 1.379364e-03 5.428789e-04)
1900          	cylinder	(-6.983956e-04 -1.377636e-03 -3.704765e-04)	(2.344773e-04 1.379502e-03 5.428836e-04)
1920          	cylinder	(-6.984364e-04 -1.377849e-03 -3.704833e-04)	(2.345018e-04 1.379391e-03 5.428789e-04)
1940          	cylinder	(-6.984679e-04 -1.378018e-03 -3.704903e-04)	(2.344788e-04 1.378772e-03 5.428783e-04)
1960          	cylinder	(-6.984798e-04 -1.378239e-03 -3.704926e-04)	(2.344948e-04 1.379129e-03 5.428663e-04)
1980          	cylinder	(-6.984896e-04 -1.378409e-03 -3.704916e-04)	(2.344576e-04 1.379032e-03 5.428237e-04)
2000          	cylinder	(-6.984889e-04 -1.378624e-03 -3.704864e-04)	(2.344672e-04 1.378400e-03 5.427849e-04)
2020          	cylinder	(-6.984637e-04 -1.378790e-03 -3.704799e-04)	(2.344286e-04 1.378784e-03 5.427637e-04)
2040          	cylinder	(-6.984302e-04 -1.378976e-03 -3.704683e-04)	(2.344085e-04 1.378586e-03 5.427491e-04)
2060          	cylinder	(-6.983984e-04 -1.379170e-03 -3.704543e-04)	(2.344152e-04 1.378530e-03 5.427338e-04)
2080          	cylinder	(-6.983496e-04 -1.379347e-03 -3.704417e-04)	(2.343833e-04 1.378037e-03 5.427239e-04)
2100          	cylinder	(-6.982857e-04 -1.379480e-03 -3.704219e-04)	(2.343453e-04 1.377778e-03 5.427106e-04)
2120          	cylinder	(-6.982201e-04 -1.379644e-03 -3.704070e-04)	(2.343248e-04 1.377644e-03 5.426951e-04)
2140          	cylinder	(-6.981571e-04 -1.379828e-03 -3.703874e-04)	(2.343271e-04 1.378048e-03 5.426777e-04)
2160          	cylinder	(-6.980859e-04 -1.379950e-03 -3.703658e-04)	(2.343067e-04 1.377831e-03 5.426589e-04)
2180          	cylinder	(-6.980059e-04 -1.380075e-03 -3.703479e-04)	(2.342980e-04 1.377712e-03 5.426479e-04)
2200          	cylinder	(-6.979646e-04 -1.380168e-03 -3.703290e-04)	(2.342866e-04 1.377658e-03 5.426384e-04)
2220          	cylinder	(-6.980331e-04 -1.380235e-03 -3.703057e-04)	(2.343049e-04 1.377560e-03 5.426417e-04)
2240          	cylinder	(-6.981010e-04 -1.380307e-03 -3.703128e-04)	(2.343170e-04 1.377472e-03 5.426415e-04)
2259          	cylinder	(-6.981550e-04 -1.380376e-03 -3.703316e-04)	(2.343287e-04 1.377376e-03 5.426383e-04)
