# Force       
# CofR        : (0.000000e+00 0.000000e+00 0.000000e+00)
#
# Time        	(total_x total_y total_z)	(pressure_x pressure_y pressure_z)	(viscous_x viscous_y viscous_z)
1             	(3.544228e+01 1.076166e-03 -4.334089e-02)	(3.539355e+01 1.075847e-03 -4.266371e-02)	(4.872888e-02 3.189798e-07 -6.771837e-04)
2             	(3.018240e+01 -2.889190e-03 -1.235454e-02)	(3.015531e+01 -2.889790e-03 -1.234074e-02)	(2.708712e-02 5.996688e-07 -1.380523e-05)
3             	(1.815368e+01 -5.441774e-03 3.668943e-01)	(1.814018e+01 -5.442678e-03 3.670180e-01)	(1.350054e-02 9.039717e-07 -1.237657e-04)
4             	(2.664372e+00 -5.778868e-03 8.730701e-01)	(2.661183e+00 -5.773763e-03 8.714663e-01)	(3.188433e-03 -5.104895e-06 1.603803e-03)
5             	(-1.127760e+01 -2.801796e-03 1.802580e+00)	(-1.127411e+01 -2.786335e-03 1.800713e+00)	(-3.489025e-03 -1.546161e-05 1.866543e-03)
6             	(-1.667371e+01 1.547054e-03 2.305855e+00)	(-1.667172e+01 1.555513e-03 2.301393e+00)	(-1.993311e-03 -8.458837e-06 4.461423e-03)
7             	(-1.567684e+01 5.892842e-03 2.238800e+00)	(-1.568848e+01 5.883628e-03 2.233140e+00)	(1.164125e-02 9.213876e-06 5.660652e-03)
8             	(-1.138212e+01 8.574840e-03 1.746137e+00)	(-1.140564e+01 8.539630e-03 1.739794e+00)	(2.351966e-02 3.521011e-05 6.343238e-03)
9             	(-5.104480e+00 9.269938e-03 1.143213e+00)	(-5.131680e+00 9.208164e-03 1.136320e+00)	(2.719985e-02 6.177390e-05 6.893427e-03)
10            	(1.426965e+00 5.680236e-03 4.565218e-01)	(1.402492e+00 5.630650e-03 4.486296e-01)	(2.447297e-02 4.958621e-05 7.892213e-03)
11            	(5.640970e+00 1.594104e-03 -1.656741e-01)	(5.625910e+00 1.549667e-03 -1.728195e-01)	(1.506001e-02 4.443669e-05 7.145338e-03)
12            	(7.064094e+00 -2.599984e-03 -3.758402e-01)	(7.057762e+00 -2.628434e-03 -3.811527e-01)	(6.331945e-03 2.845010e-05 5.312541e-03)
13            	(6.324804e+00 -4.966625e-03 -1.950984e-01)	(6.325483e+00 -4.984138e-03 -1.975565e-01)	(-6.792773e-04 1.751283e-05 2.458112e-03)
14            	(4.574686e+00 -6.301606e-03 1.377072e-01)	(4.578504e+00 -6.294310e-03 1.376464e-01)	(-3.818028e-03 -7.296052e-06 6.076344e-05)
15            	(2.455171e+00 -6.436621e-03 5.493807e-01)	(2.458418e+00 -6.411484e-03 5.496167e-01)	(-3.247086e-03 -2.513727e-05 -2.360939e-04)
16            	(5.351276e-01 -5.213379e-03 9.500925e-01)	(5.355062e-01 -5.204327e-03 9.495047e-01)	(-3.785935e-04 -9.052026e-06 5.878559e-04)
17            	(-7.300461e-01 -3.315517e-03 1.240075e+00)	(-7.332735e-01 -3.328027e-03 1.237428e+00)	(3.227453e-03 1.251006e-05 2.646883e-03)
18            	(-1.293683e+00 -1.150217e-03 1.358326e+00)	(-1.300511e+00 -1.171755e-03 1.353577e+00)	(6.828009e-03 2.153852e-05 4.749126e-03)
19            	(-1.352416e+00 1.341962e-03 1.315234e+00)	(-1.361859e+00 1.310036e-03 1.308546e+00)	(9.443122e-03 3.192576e-05 6.688304e-03)
20            	(-9.249308e-01 2.384726e-03 1.170274e+00)	(-9.356132e-01 2.347697e-03 1.162391e+00)	(1.068233e-02 3.702921e-05 7.883190e-03)
21            	(-3.386551e-01 3.050280e-03 9.784818e-01)	(-3.490852e-01 3.010190e-03 9.700832e-01)	(1.043006e-02 4.009010e-05 8.398585e-03)
22            	(2.619549e-01 3.132537e-03 7.870112e-01)	(2.526555e-01 3.097299e-03 7.786682e-01)	(9.299392e-03 3.523786e-05 8.342927e-03)
23            	(7.465339e-01 3.010868e-03 6.337488e-01)	(7.386238e-01 2.987682e-03 6.259175e-01)	(7.910094e-03 2.318597e-05 7.831235e-03)
24            	(1.059015e+00 2.268398e-03 5.397601e-01)	(1.052172e+00 2.259593e-03 5.328744e-01)	(6.843477e-03 8.804386e-06 6.885737e-03)
25            	(1.209604e+00 1.248180e-03 4.968864e-01)	(1.203399e+00 1.254466e-03 4.909488e-01)	(6.205281e-03 -6.285578e-06 5.937574e-03)
26            	(1.239514e+00 1.680761e-04 4.866506e-01)	(1.233324e+00 1.885293e-04 4.814927e-01)	(6.190098e-03 -2.045322e-05 5.157894e-03)
27            	(1.183838e+00 -8.271892e-04 4.914395e-01)	(1.177054e+00 -7.963003e-04 4.868091e-01)	(6.783444e-03 -3.088894e-05 4.630483e-03)
28            	(1.091627e+00 -1.006671e-03 4.970302e-01)	(1.083814e+00 -9.770980e-04 4.926249e-01)	(7.813095e-03 -2.957296e-05 4.405250e-03)
29            	(1.006516e+00 -1.089011e-03 4.992836e-01)	(9.975930e-01 -1.066500e-03 4.948320e-01)	(8.922811e-03 -2.251109e-05 4.451602e-03)
30            	(9.380605e-01 -1.075032e-03 4.965246e-01)	(9.281196e-01 -1.060884e-03 4.918992e-01)	(9.940861e-03 -1.414738e-05 4.625418e-03)
31            	(8.840103e-01 -1.291871e-03 4.863418e-01)	(8.732507e-01 -1.286235e-03 4.815415e-01)	(1.075959e-02 -5.635910e-06 4.800296e-03)
32            	(8.603514e-01 -7.629364e-04 4.653070e-01)	(8.490181e-01 -7.643318e-04 4.604095e-01)	(1.133331e-02 1.395392e-06 4.897517e-03)
33            	(8.868393e-01 -6.286605e-04 4.395494e-01)	(8.751570e-01 -6.324797e-04 4.346661e-01)	(1.168232e-02 3.819225e-06 4.883289e-03)
34            	(9.034784e-01 -1.953098e-04 4.005673e-01)	(8.916722e-01 -1.970475e-04 3.958116e-01)	(1.180616e-02 1.737744e-06 4.755696e-03)
35            	(9.131018e-01 -3.211656e-04 3.700910e-01)	(9.013261e-01 -3.191504e-04 3.655574e-01)	(1.177572e-02 -2.015211e-06 4.533646e-03)
36            	(9.126166e-01 -4.577859e-04 3.376482e-01)	(9.009602e-01 -4.501016e-04 3.333804e-01)	(1.165645e-02 -7.684318e-06 4.267842e-03)
37            	(9.040137e-01 -5.718798e-04 3.046237e-01)	(8.924955e-01 -5.560494e-04 3.006610e-01)	(1.151819e-02 -1.583035e-05 3.962706e-03)
38            	(8.918759e-01 -5.932938e-04 2.727574e-01)	(8.804811e-01 -5.665024e-04 2.691041e-01)	(1.139487e-02 -2.679138e-05 3.653237e-03)
39            	(8.766784e-01 -5.474747e-04 2.450237e-01)	(8.653759e-01 -5.090125e-04 2.416545e-01)	(1.130247e-02 -3.846213e-05 3.369234e-03)
40            	(8.728350e-01 9.990601e-05 2.111467e-01)	(8.615777e-01 1.486210e-04 2.080287e-01)	(1.125725e-02 -4.871500e-05 3.117995e-03)
41            	(8.544775e-01 1.587083e-04 2.001892e-01)	(8.432568e-01 2.193805e-04 1.972579e-01)	(1.122063e-02 -6.067218e-05 2.931260e-03)
42            	(8.372772e-01 2.542313e-04 1.944189e-01)	(8.260954e-01 3.268584e-04 1.915994e-01)	(1.118174e-02 -7.262701e-05 2.819545e-03)
43            	(8.109177e-01 4.863496e-04 1.858155e-01)	(7.997942e-01 5.690630e-04 1.830792e-01)	(1.112349e-02 -8.271341e-05 2.736281e-03)
44            	(7.838550e-01 4.255774e-04 1.819485e-01)	(7.728107e-01 5.176337e-04 1.792921e-01)	(1.104435e-02 -9.205628e-05 2.656407e-03)
45            	(7.712325e-01 5.047517e-04 1.846703e-01)	(7.602656e-01 6.027317e-04 1.820791e-01)	(1.096690e-02 -9.797999e-05 2.591148e-03)
46            	(7.570083e-01 5.844834e-04 1.876232e-01)	(7.461249e-01 6.864705e-04 1.850868e-01)	(1.088340e-02 -1.019872e-04 2.536394e-03)
47            	(7.407971e-01 6.462560e-04 1.899363e-01)	(7.299976e-01 7.537866e-04 1.874557e-01)	(1.079945e-02 -1.075306e-04 2.480601e-03)
48            	(7.088903e-01 4.282973e-04 1.880637e-01)	(6.981988e-01 5.454361e-04 1.856391e-01)	(1.069155e-02 -1.171388e-04 2.424586e-03)
49            	(6.918489e-01 4.677604e-04 1.876445e-01)	(6.812481e-01 5.961412e-04 1.852748e-01)	(1.060079e-02 -1.283808e-04 2.369694e-03)
50            	(6.589392e-01 1.986279e-04 1.812786e-01)	(6.484566e-01 3.382171e-04 1.789667e-01)	(1.048267e-02 -1.395892e-04 2.311949e-03)
51            	(6.455586e-01 2.512405e-04 1.781716e-01)	(6.351655e-01 3.998637e-04 1.759175e-01)	(1.039310e-02 -1.486232e-04 2.254158e-03)
52            	(6.333592e-01 3.324796e-04 1.735562e-01)	(6.230567e-01 4.861908e-04 1.713570e-01)	(1.030250e-02 -1.537111e-04 2.199223e-03)
53            	(6.128729e-01 2.778731e-04 1.615781e-01)	(6.026639e-01 4.332024e-04 1.594476e-01)	(1.020901e-02 -1.553293e-04 2.130562e-03)
54            	(6.061671e-01 4.218502e-04 1.544093e-01)	(5.960338e-01 5.745522e-04 1.523457e-01)	(1.013332e-02 -1.527020e-04 2.063585e-03)
55            	(5.968074e-01 4.769067e-04 1.401482e-01)	(5.867524e-01 6.242874e-04 1.381692e-01)	(1.005501e-02 -1.473807e-04 1.978941e-03)
56            	(5.944848e-01 6.484000e-04 1.311248e-01)	(5.844999e-01 7.873847e-04 1.292207e-01)	(9.984808e-03 -1.389846e-04 1.904084e-03)
57            	(5.937859e-01 8.030582e-04 1.210235e-01)	(5.838686e-01 9.325209e-04 1.191946e-01)	(9.917233e-03 -1.294627e-04 1.828937e-03)
58            	(5.944645e-01 9.117792e-04 1.097229e-01)	(5.846066e-01 1.031908e-03 1.079669e-01)	(9.857884e-03 -1.201288e-04 1.756028e-03)
59            	(5.965985e-01 9.689244e-04 9.736479e-02)	(5.867868e-01 1.081204e-03 9.568389e-02)	(9.811670e-03 -1.122793e-04 1.680900e-03)
60            	(6.052516e-01 9.763326e-04 7.789036e-02)	(5.954600e-01 1.084586e-03 7.631225e-02)	(9.791603e-03 -1.082538e-04 1.578113e-03)
61            	(6.088676e-01 9.176491e-04 6.629814e-02)	(5.990846e-01 1.024739e-03 6.482381e-02)	(9.782947e-03 -1.070903e-04 1.474326e-03)
62            	(6.128176e-01 8.150635e-04 5.560630e-02)	(6.030305e-01 9.229427e-04 5.424715e-02)	(9.787084e-03 -1.078792e-04 1.359157e-03)
63            	(6.165524e-01 6.846802e-04 4.588848e-02)	(6.067551e-01 7.944767e-04 4.464560e-02)	(9.797217e-03 -1.097965e-04 1.242875e-03)
64            	(6.195704e-01 5.473885e-04 3.722622e-02)	(6.097600e-01 6.594327e-04 3.609979e-02)	(9.810372e-03 -1.120442e-04 1.126433e-03)
65            	(6.219267e-01 4.266130e-04 2.968575e-02)	(6.121041e-01 5.408381e-04 2.867307e-02)	(9.822630e-03 -1.142251e-04 1.012678e-03)
66            	(6.233261e-01 3.343149e-04 2.336311e-02)	(6.134952e-01 4.508232e-04 2.245980e-02)	(9.830877e-03 -1.165083e-04 9.033160e-04)
67            	(6.237166e-01 2.764211e-04 1.836485e-02)	(6.138847e-01 3.934957e-04 1.756652e-02)	(9.831933e-03 -1.170746e-04 7.983323e-04)
68            	(6.231497e-01 2.479739e-04 1.482056e-02)	(6.133257e-01 3.632594e-04 1.412177e-02)	(9.823976e-03 -1.152855e-04 6.987935e-04)
69            	(6.211857e-01 2.536479e-04 1.281835e-02)	(6.113814e-01 3.670908e-04 1.221258e-02)	(9.804332e-03 -1.134429e-04 6.057629e-04)
70            	(6.192474e-01 2.575729e-04 1.235886e-02)	(6.094730e-01 3.725229e-04 1.183674e-02)	(9.774408e-03 -1.149500e-04 5.221147e-04)
71            	(6.171456e-01 2.669645e-04 1.340636e-02)	(6.074090e-01 3.875971e-04 1.295448e-02)	(9.736588e-03 -1.206327e-04 4.518776e-04)
72            	(6.151890e-01 2.774746e-04 1.586637e-02)	(6.054957e-01 4.079706e-04 1.546917e-02)	(9.693356e-03 -1.304960e-04 3.972007e-04)
73            	(6.136435e-01 2.813509e-04 1.961478e-02)	(6.039970e-01 4.246161e-04 1.925658e-02)	(9.646443e-03 -1.432653e-04 3.581992e-04)
74            	(6.127351e-01 2.764006e-04 2.449277e-02)	(6.031364e-01 4.328671e-04 2.415864e-02)	(9.598693e-03 -1.564666e-04 3.341303e-04)
75            	(6.127060e-01 2.505553e-04 3.031172e-02)	(6.031524e-01 4.191747e-04 2.998661e-02)	(9.553691e-03 -1.686194e-04 3.251141e-04)
76            	(6.138974e-01 2.251204e-04 3.687674e-02)	(6.043818e-01 4.040550e-04 3.654684e-02)	(9.515557e-03 -1.789346e-04 3.298995e-04)
77            	(6.154917e-01 1.223037e-04 4.398723e-02)	(6.060069e-01 3.098053e-04 4.364022e-02)	(9.484843e-03 -1.875015e-04 3.470131e-04)
78            	(6.179275e-01 -4.134058e-06 5.135510e-02)	(6.084645e-01 1.890492e-04 5.098029e-02)	(9.463017e-03 -1.931832e-04 3.748168e-04)
79            	(6.211052e-01 -1.234115e-04 5.872300e-02)	(6.116546e-01 7.334752e-05 5.831054e-02)	(9.450630e-03 -1.967590e-04 4.124542e-04)
80            	(6.248311e-01 -2.541477e-04 6.591094e-02)	(6.153840e-01 -5.513215e-05 6.545185e-02)	(9.447066e-03 -1.990156e-04 4.590898e-04)
81            	(6.293192e-01 -3.957617e-04 7.276816e-02)	(6.198668e-01 -1.948747e-04 7.225533e-02)	(9.452457e-03 -2.008870e-04 5.128257e-04)
82            	(6.347744e-01 -5.413734e-04 7.953103e-02)	(6.253066e-01 -3.386829e-04 7.895861e-02)	(9.467835e-03 -2.026905e-04 5.724210e-04)
83            	(6.409120e-01 -6.761181e-04 8.623006e-02)	(6.314195e-01 -4.708895e-04 8.559261e-02)	(9.492490e-03 -2.052286e-04 6.374502e-04)
84            	(6.473163e-01 -7.871118e-04 9.286954e-02)	(6.377912e-01 -5.780169e-04 9.216224e-02)	(9.525079e-03 -2.090949e-04 7.073054e-04)
85            	(6.536183e-01 -8.612255e-04 9.947071e-02)	(6.440525e-01 -6.480992e-04 9.869071e-02)	(9.565721e-03 -2.131263e-04 7.799918e-04)
86            	(6.593879e-01 -8.866759e-04 1.060441e-01)	(6.497756e-01 -6.706074e-04 1.051903e-01)	(9.612294e-03 -2.160685e-04 8.538008e-04)
87            	(6.642802e-01 -8.513879e-04 1.126208e-01)	(6.546188e-01 -6.347310e-04 1.116931e-01)	(9.661467e-03 -2.166570e-04 9.277598e-04)
88            	(6.680859e-01 -7.451994e-04 1.192298e-01)	(6.583747e-01 -5.323646e-04 1.182300e-01)	(9.711232e-03 -2.128347e-04 9.997812e-04)
89            	(6.703531e-01 -5.549518e-04 1.258598e-01)	(6.605936e-01 -3.508673e-04 1.247918e-01)	(9.759597e-03 -2.040844e-04 1.067999e-03)
90            	(6.713895e-01 -3.023816e-04 1.324522e-01)	(6.615836e-01 -1.102842e-04 1.313210e-01)	(9.805953e-03 -1.920974e-04 1.131197e-03)
91            	(6.712705e-01 -8.642852e-06 1.388547e-01)	(6.614206e-01 1.690336e-04 1.376659e-01)	(9.849926e-03 -1.776765e-04 1.188774e-03)
92            	(6.700754e-01 3.061725e-04 1.448538e-01)	(6.601844e-01 4.674214e-04 1.436133e-01)	(9.890951e-03 -1.612489e-04 1.240508e-03)
93            	(6.679619e-01 6.210316e-04 1.502318e-01)	(6.580337e-01 7.633313e-04 1.489456e-01)	(9.928267e-03 -1.422996e-04 1.286209e-03)
94            	(6.650897e-01 9.117683e-04 1.547861e-01)	(6.551289e-01 1.031924e-03 1.534596e-01)	(9.960872e-03 -1.201559e-04 1.326488e-03)
95            	(6.616862e-01 1.160705e-03 1.583344e-01)	(6.516988e-01 1.254784e-03 1.569716e-01)	(9.987419e-03 -9.407897e-05 1.362722e-03)
96            	(6.579825e-01 1.355928e-03 1.607323e-01)	(6.479754e-01 1.419902e-03 1.593376e-01)	(1.000705e-02 -6.397373e-05 1.394676e-03)
97            	(6.542203e-01 1.491789e-03 1.619232e-01)	(6.442006e-01 1.521300e-03 1.605017e-01)	(1.001969e-02 -2.951122e-05 1.421495e-03)
98            	(6.505968e-01 1.569136e-03 1.619218e-01)	(6.405711e-01 1.560820e-03 1.604790e-01)	(1.002570e-02 8.316634e-06 1.442807e-03)
99            	(6.473119e-01 1.598251e-03 1.608628e-01)	(6.372865e-01 1.549959e-03 1.594046e-01)	(1.002541e-02 4.829266e-05 1.458178e-03)
100           	(6.445626e-01 1.591440e-03 1.589526e-01)	(6.345431e-01 1.503178e-03 1.574854e-01)	(1.001949e-02 8.826142e-05 1.467149e-03)
101           	(6.424699e-01 1.563750e-03 1.564344e-01)	(6.324599e-01 1.436671e-03 1.549644e-01)	(1.000993e-02 1.270793e-04 1.469948e-03)
102           	(6.410663e-01 1.526365e-03 1.535176e-01)	(6.310685e-01 1.362516e-03 1.520510e-01)	(9.997770e-03 1.638495e-04 1.466593e-03)
103           	(6.403133e-01 1.484560e-03 1.503538e-01)	(6.303275e-01 1.287405e-03 1.488973e-01)	(9.985800e-03 1.971550e-04 1.456519e-03)
104           	(6.401210e-01 1.441196e-03 1.470596e-01)	(6.301462e-01 1.215531e-03 1.456183e-01)	(9.974773e-03 2.256653e-04 1.441255e-03)
105           	(6.404328e-01 1.396782e-03 1.437232e-01)	(6.304674e-01 1.147640e-03 1.423003e-01)	(9.965335e-03 2.491424e-04 1.422921e-03)
106           	(6.411921e-01 1.354720e-03 1.404321e-01)	(6.312340e-01 1.086819e-03 1.390290e-01)	(9.958088e-03 2.679006e-04 1.403060e-03)
107           	(6.422790e-01 1.320852e-03 1.372613e-01)	(6.323249e-01 1.038219e-03 1.358786e-01)	(9.954066e-03 2.826331e-04 1.382693e-03)
108           	(6.439607e-01 1.301143e-03 1.342239e-01)	(6.340066e-01 1.007395e-03 1.328615e-01)	(9.954148e-03 2.937473e-04 1.362400e-03)
109           	(6.456803e-01 1.294773e-03 1.313018e-01)	(6.357226e-01 9.933437e-04 1.299590e-01)	(9.957694e-03 3.014292e-04 1.342804e-03)
110           	(6.485798e-01 1.280626e-03 1.276020e-01)	(6.386134e-01 9.742736e-04 1.262804e-01)	(9.966377e-03 3.063520e-04 1.321657e-03)
111           	(6.498523e-01 1.302972e-03 1.250862e-01)	(6.398761e-01 9.946291e-04 1.237837e-01)	(9.976220e-03 3.083425e-04 1.302482e-03)
112           	(6.506423e-01 1.316393e-03 1.226032e-01)	(6.406565e-01 1.007267e-03 1.213205e-01)	(9.985775e-03 3.091253e-04 1.282772e-03)
113           	(6.521708e-01 1.317164e-03 1.192967e-01)	(6.421740e-01 1.008564e-03 1.180360e-01)	(9.996795e-03 3.086000e-04 1.260692e-03)
114           	(6.523396e-01 1.322816e-03 1.170641e-01)	(6.423332e-01 1.016278e-03 1.158245e-01)	(1.000636e-02 3.065377e-04 1.239551e-03)
115           	(6.524682e-01 1.315607e-03 1.142437e-01)	(6.424532e-01 1.011229e-03 1.130277e-01)	(1.001504e-02 3.043780e-04 1.215961e-03)
116           	(6.519671e-01 1.307391e-03 1.124836e-01)	(6.419445e-01 1.006053e-03 1.112907e-01)	(1.002261e-02 3.013381e-04 1.192958e-03)
117           	(6.509061e-01 1.249507e-03 1.105503e-01)	(6.408772e-01 9.508427e-04 1.093823e-01)	(1.002892e-02 2.986648e-04 1.168060e-03)
118           	(6.493185e-01 1.158513e-03 1.092374e-01)	(6.392839e-01 8.627908e-04 1.080948e-01)	(1.003467e-02 2.957223e-04 1.142669e-03)
119           	(6.477977e-01 1.101088e-03 1.086261e-01)	(6.377586e-01 8.080277e-04 1.075087e-01)	(1.003912e-02 2.930603e-04 1.117382e-03)
120           	(6.449166e-01 9.489851e-04 1.085129e-01)	(6.348769e-01 6.583107e-04 1.074192e-01)	(1.003972e-02 2.906744e-04 1.093737e-03)
121           	(6.417494e-01 7.563129e-04 1.089127e-01)	(6.317119e-01 4.682766e-04 1.078399e-01)	(1.003756e-02 2.880363e-04 1.072794e-03)
122           	(6.383827e-01 5.250542e-04 1.097784e-01)	(6.283513e-01 2.397391e-04 1.087230e-01)	(1.003141e-02 2.853150e-04 1.055417e-03)
123           	(6.349149e-01 2.602824e-04 1.110511e-01)	(6.248954e-01 -2.204829e-05 1.100084e-01)	(1.001945e-02 2.823306e-04 1.042782e-03)
124           	(6.314554e-01 -3.769066e-05 1.126933e-01)	(6.214537e-01 -3.166906e-04 1.116576e-01)	(1.000167e-02 2.789999e-04 1.035681e-03)
125           	(6.280403e-01 -3.706173e-04 1.146742e-01)	(6.180620e-01 -6.454061e-04 1.136398e-01)	(9.978290e-03 2.747889e-04 1.034393e-03)
126           	(6.246713e-01 -7.368167e-04 1.169597e-01)	(6.147216e-01 -1.006400e-03 1.159210e-01)	(9.949696e-03 2.695833e-04 1.038698e-03)
127           	(6.212276e-01 -1.128413e-03 1.195302e-01)	(6.113120e-01 -1.391901e-03 1.184815e-01)	(9.915534e-03 2.634876e-04 1.048726e-03)
128           	(6.178623e-01 -1.541015e-03 1.223014e-01)	(6.079856e-01 -1.797330e-03 1.212375e-01)	(9.876673e-03 2.563147e-04 1.063966e-03)
129           	(6.158719e-01 -1.849669e-03 1.241647e-01)	(6.060358e-01 -2.098030e-03 1.230836e-01)	(9.836028e-03 2.483616e-04 1.081140e-03)
130           	(6.124509e-01 -2.321813e-03 1.276230e-01)	(6.026601e-01 -2.560993e-03 1.265176e-01)	(9.790767e-03 2.391799e-04 1.105358e-03)
131           	(6.092481e-01 -2.786280e-03 1.311075e-01)	(5.995037e-01 -3.014963e-03 1.299757e-01)	(9.744390e-03 2.286833e-04 1.131793e-03)
132           	(6.064355e-01 -3.223856e-03 1.344346e-01)	(5.967379e-01 -3.441131e-03 1.332738e-01)	(9.697587e-03 2.172742e-04 1.160861e-03)
133           	(6.042654e-01 -3.621438e-03 1.374662e-01)	(5.946127e-01 -3.826772e-03 1.362758e-01)	(9.652676e-03 2.053348e-04 1.190383e-03)
134           	(6.031148e-01 -3.897177e-03 1.391610e-01)	(5.935034e-01 -4.090407e-03 1.379444e-01)	(9.611350e-03 1.932301e-04 1.216634e-03)
135           	(6.018077e-01 -4.219495e-03 1.419492e-01)	(5.922347e-01 -4.400194e-03 1.407045e-01)	(9.573012e-03 1.806987e-04 1.244705e-03)
136           	(6.011241e-01 -4.487661e-03 1.444305e-01)	(5.915842e-01 -4.655384e-03 1.431615e-01)	(9.539882e-03 1.677233e-04 1.269022e-03)
137           	(6.013825e-01 -4.710666e-03 1.465310e-01)	(5.918704e-01 -4.865070e-03 1.452391e-01)	(9.512147e-03 1.544039e-04 1.291881e-03)
138           	(6.022700e-01 -4.892163e-03 1.482084e-01)	(5.927798e-01 -5.033223e-03 1.468961e-01)	(9.490239e-03 1.410597e-04 1.312346e-03)
139           	(6.036865e-01 -5.037564e-03 1.494798e-01)	(5.942123e-01 -5.165301e-03 1.481500e-01)	(9.474178e-03 1.277373e-04 1.329763e-03)
140           	(6.043385e-01 -5.141945e-03 1.498328e-01)	(5.948773e-01 -5.256817e-03 1.484904e-01)	(9.461153e-03 1.148721e-04 1.342479e-03)
141           	(6.067771e-01 -5.245888e-03 1.506773e-01)	(5.973220e-01 -5.348496e-03 1.493229e-01)	(9.455053e-03 1.026083e-04 1.354387e-03)
142           	(6.094015e-01 -5.333176e-03 1.513301e-01)	(5.999463e-01 -5.424583e-03 1.499694e-01)	(9.455190e-03 9.140741e-05 1.360738e-03)
143           	(6.119731e-01 -5.402412e-03 1.517837e-01)	(6.025128e-01 -5.483886e-03 1.504187e-01)	(9.460298e-03 8.147314e-05 1.365020e-03)
144           	(6.143060e-01 -5.444662e-03 1.520182e-01)	(6.048371e-01 -5.517229e-03 1.506506e-01)	(9.468902e-03 7.256713e-05 1.367639e-03)
145           	(6.164908e-01 -5.459428e-03 1.520395e-01)	(6.070112e-01 -5.523962e-03 1.506703e-01)	(9.479592e-03 6.453317e-05 1.369148e-03)
146           	(6.171701e-01 -5.421475e-03 1.515178e-01)	(6.076816e-01 -5.478825e-03 1.501487e-01)	(9.488540e-03 5.734984e-05 1.369089e-03)
147           	(6.196655e-01 -5.363015e-03 1.512257e-01)	(6.101658e-01 -5.414377e-03 1.498546e-01)	(9.499742e-03 5.136229e-05 1.371135e-03)
148           	(6.222298e-01 -5.251190e-03 1.507946e-01)	(6.127179e-01 -5.296694e-03 1.494239e-01)	(9.511822e-03 4.550403e-05 1.370709e-03)
149           	(6.248037e-01 -5.086487e-03 1.502086e-01)	(6.152794e-01 -5.127130e-03 1.488370e-01)	(9.524282e-03 4.064299e-05 1.371580e-03)
150           	(6.257608e-01 -4.897312e-03 1.492878e-01)	(6.162274e-01 -4.934192e-03 1.479146e-01)	(9.533418e-03 3.688003e-05 1.373253e-03)
151           	(6.288841e-01 -4.611149e-03 1.483406e-01)	(6.193400e-01 -4.646192e-03 1.469624e-01)	(9.544046e-03 3.504265e-05 1.378210e-03)
152           	(6.317392e-01 -4.303555e-03 1.472446e-01)	(6.221850e-01 -4.337140e-03 1.458630e-01)	(9.554137e-03 3.358450e-05 1.381679e-03)
153           	(6.328536e-01 -4.048705e-03 1.460801e-01)	(6.232922e-01 -4.081439e-03 1.446934e-01)	(9.561386e-03 3.273377e-05 1.386728e-03)
154           	(6.359130e-01 -3.660777e-03 1.446693e-01)	(6.263424e-01 -3.693914e-03 1.432746e-01)	(9.570631e-03 3.313724e-05 1.394757e-03)
155           	(6.371457e-01 -3.379430e-03 1.433354e-01)	(6.275685e-01 -3.412465e-03 1.419344e-01)	(9.577224e-03 3.303541e-05 1.401001e-03)
156           	(6.386351e-01 -3.072088e-03 1.418638e-01)	(6.290513e-01 -3.105667e-03 1.404539e-01)	(9.583794e-03 3.357866e-05 1.409842e-03)
157           	(6.421666e-01 -2.583971e-03 1.400889e-01)	(6.325730e-01 -2.618683e-03 1.386712e-01)	(9.593558e-03 3.471251e-05 1.417647e-03)
158           	(6.438103e-01 -2.301566e-03 1.385653e-01)	(6.342078e-01 -2.336643e-03 1.371422e-01)	(9.602444e-03 3.507724e-05 1.423062e-03)
159           	(6.457664e-01 -2.040001e-03 1.369907e-01)	(6.361534e-01 -2.075660e-03 1.355606e-01)	(9.613016e-03 3.565855e-05 1.430109e-03)
160           	(6.477798e-01 -1.817868e-03 1.353714e-01)	(6.381551e-01 -1.853830e-03 1.339359e-01)	(9.624675e-03 3.596274e-05 1.435485e-03)
161           	(6.499512e-01 -1.644682e-03 1.337272e-01)	(6.403132e-01 -1.680517e-03 1.322880e-01)	(9.638009e-03 3.583560e-05 1.439243e-03)
162           	(6.545244e-01 -1.399526e-03 1.318440e-01)	(6.448671e-01 -1.435124e-03 1.304034e-01)	(9.657322e-03 3.559757e-05 1.440584e-03)
163           	(6.563518e-01 -1.384570e-03 1.303851e-01)	(6.466753e-01 -1.418506e-03 1.289456e-01)	(9.676483e-03 3.393536e-05 1.439424e-03)
164           	(6.580748e-01 -1.430701e-03 1.289670e-01)	(6.483784e-01 -1.462410e-03 1.275275e-01)	(9.696397e-03 3.170977e-05 1.439482e-03)
165           	(6.597354e-01 -1.517215e-03 1.275399e-01)	(6.500187e-01 -1.545895e-03 1.261018e-01)	(9.716681e-03 2.868016e-05 1.438071e-03)
166           	(6.613707e-01 -1.621024e-03 1.260667e-01)	(6.516332e-01 -1.646231e-03 1.246317e-01)	(9.737566e-03 2.520670e-05 1.435028e-03)
167           	(6.630306e-01 -1.722348e-03 1.245183e-01)	(6.532715e-01 -1.743890e-03 1.230883e-01)	(9.759125e-03 2.154164e-05 1.430014e-03)
168           	(6.646956e-01 -1.805326e-03 1.228836e-01)	(6.549143e-01 -1.823066e-03 1.214609e-01)	(9.781366e-03 1.773956e-05 1.422715e-03)
169           	(6.663603e-01 -1.862596e-03 1.211690e-01)	(6.565560e-01 -1.876484e-03 1.197561e-01)	(9.804281e-03 1.388740e-05 1.412906e-03)
170           	(6.682745e-01 -1.900300e-03 1.193950e-01)	(6.584463e-01 -1.910448e-03 1.179944e-01)	(9.828137e-03 1.014765e-05 1.400597e-03)
171           	(6.701640e-01 -1.908965e-03 1.176197e-01)	(6.603113e-01 -1.915555e-03 1.162336e-01)	(9.852724e-03 6.590303e-06 1.386129e-03)
172           	(6.719766e-01 -1.888657e-03 1.158956e-01)	(6.620989e-01 -1.891948e-03 1.145256e-01)	(9.877706e-03 3.290786e-06 1.369979e-03)
173           	(6.734070e-01 -1.839873e-03 1.142808e-01)	(6.635047e-01 -1.839957e-03 1.129280e-01)	(9.902285e-03 8.390681e-08 1.352826e-03)
174           	(6.746842e-01 -1.770920e-03 1.128104e-01)	(6.647580e-01 -1.767673e-03 1.114751e-01)	(9.926179e-03 -3.246463e-06 1.335326e-03)
175           	(6.757442e-01 -1.688769e-03 1.115074e-01)	(6.657952e-01 -1.682066e-03 1.101893e-01)	(9.948939e-03 -6.703305e-06 1.318155e-03)
176           	(6.766340e-01 -1.597187e-03 1.103853e-01)	(6.666639e-01 -1.586925e-03 1.090834e-01)	(9.970155e-03 -1.026159e-05 1.301862e-03)
177           	(6.773102e-01 -1.503374e-03 1.094355e-01)	(6.673207e-01 -1.489509e-03 1.081486e-01)	(9.989496e-03 -1.386522e-05 1.286926e-03)
178           	(6.773678e-01 -1.407669e-03 1.086338e-01)	(6.673618e-01 -1.390422e-03 1.073599e-01)	(1.000593e-02 -1.724718e-05 1.273867e-03)
179           	(6.770523e-01 -1.316226e-03 1.079755e-01)	(6.670331e-01 -1.296076e-03 1.067126e-01)	(1.001918e-02 -2.014953e-05 1.262965e-03)
180           	(6.765155e-01 -1.231768e-03 1.074306e-01)	(6.664862e-01 -1.209420e-03 1.061763e-01)	(1.002931e-02 -2.234750e-05 1.254353e-03)
181           	(6.759364e-01 -1.163570e-03 1.069659e-01)	(6.658996e-01 -1.139768e-03 1.057181e-01)	(1.003681e-02 -2.380205e-05 1.247826e-03)
182           	(6.751396e-01 -1.104689e-03 1.065547e-01)	(6.650980e-01 -1.080286e-03 1.053115e-01)	(1.004159e-02 -2.440289e-05 1.243176e-03)
183           	(6.741857e-01 -1.054878e-03 1.061670e-01)	(6.641419e-01 -1.030801e-03 1.049269e-01)	(1.004378e-02 -2.407747e-05 1.240109e-03)
184           	(6.731659e-01 -1.013273e-03 1.057768e-01)	(6.631223e-01 -9.904626e-04 1.045386e-01)	(1.004363e-02 -2.281082e-05 1.238200e-03)
185           	(6.721254e-01 -9.815508e-04 1.053513e-01)	(6.620839e-01 -9.608804e-04 1.041144e-01)	(1.004146e-02 -2.067037e-05 1.236977e-03)
186           	(6.710665e-01 -9.616480e-04 1.048646e-01)	(6.610290e-01 -9.437848e-04 1.036285e-01)	(1.003756e-02 -1.786323e-05 1.236103e-03)
187           	(6.699738e-01 -9.545048e-04 1.042749e-01)	(6.599416e-01 -9.399477e-04 1.030397e-01)	(1.003216e-02 -1.455713e-05 1.235238e-03)
188           	(6.689668e-01 -9.661582e-04 1.035740e-01)	(6.589411e-01 -9.551149e-04 1.023399e-01)	(1.002567e-02 -1.104337e-05 1.234039e-03)
189           	(6.681079e-01 -9.945078e-04 1.027307e-01)	(6.580893e-01 -9.868884e-04 1.014987e-01)	(1.001859e-02 -7.619412e-06 1.232060e-03)
190           	(6.675499e-01 -1.038649e-03 1.017124e-01)	(6.575383e-01 -1.034174e-03 1.004836e-01)	(1.001163e-02 -4.475068e-06 1.228824e-03)
191           	(6.672382e-01 -1.094679e-03 1.004750e-01)	(6.572329e-01 -1.092857e-03 9.925117e-02)	(1.000525e-02 -1.822204e-06 1.223872e-03)
192           	(6.671740e-01 -1.157333e-03 9.899838e-02)	(6.571741e-01 -1.157584e-03 9.778155e-02)	(9.999841e-03 2.518462e-07 1.216828e-03)
193           	(6.673426e-01 -1.220871e-03 9.728122e-02)	(6.573469e-01 -1.222534e-03 9.607388e-02)	(9.995729e-03 1.663594e-06 1.207346e-03)
194           	(6.677167e-01 -1.279920e-03 9.534079e-02)	(6.577236e-01 -1.282293e-03 9.414561e-02)	(9.993118e-03 2.373866e-06 1.195186e-03)
195           	(6.682727e-01 -1.328940e-03 9.319992e-02)	(6.582805e-01 -1.331349e-03 9.201965e-02)	(9.992198e-03 2.408459e-06 1.180269e-03)
196           	(6.689712e-01 -1.364698e-03 9.088335e-02)	(6.589782e-01 -1.366500e-03 8.972067e-02)	(9.993051e-03 1.801714e-06 1.162684e-03)
197           	(6.697735e-01 -1.384568e-03 8.841579e-02)	(6.597780e-01 -1.384980e-03 8.727335e-02)	(9.995513e-03 4.119997e-07 1.142434e-03)
198           	(6.706483e-01 -1.387138e-03 8.581592e-02)	(6.606490e-01 -1.385311e-03 8.469631e-02)	(9.999294e-03 -1.826508e-06 1.119613e-03)
199           	(6.715649e-01 -1.371782e-03 8.310963e-02)	(6.615608e-01 -1.366910e-03 8.201525e-02)	(1.000416e-02 -4.871624e-06 1.094383e-03)
200           	(6.724454e-01 -1.343501e-03 8.031049e-02)	(6.624356e-01 -1.334824e-03 7.924362e-02)	(1.000979e-02 -8.677143e-06 1.066875e-03)
201           	(6.734161e-01 -1.299196e-03 7.746304e-02)	(6.633999e-01 -1.286011e-03 7.642580e-02)	(1.001623e-02 -1.318466e-05 1.037241e-03)
202           	(6.744982e-01 -1.240127e-03 7.460074e-02)	(6.644745e-01 -1.221826e-03 7.359500e-02)	(1.002371e-02 -1.830011e-05 1.005743e-03)
203           	(6.755723e-01 -1.162650e-03 7.177566e-02)	(6.655400e-01 -1.139025e-03 7.080314e-02)	(1.003229e-02 -2.362486e-05 9.725154e-04)
204           	(6.766926e-01 -1.072714e-03 6.900779e-02)	(6.666506e-01 -1.043942e-03 6.807040e-02)	(1.004202e-02 -2.877193e-05 9.373933e-04)
205           	(6.781258e-01 -9.837416e-04 6.632678e-02)	(6.680724e-01 -9.503612e-04 6.542625e-02)	(1.005334e-02 -3.338034e-05 9.005271e-04)
206           	(6.792617e-01 -8.835947e-04 6.381212e-02)	(6.691964e-01 -8.465655e-04 6.294964e-02)	(1.006533e-02 -3.702922e-05 8.624869e-04)
207           	(6.803829e-01 -7.844457e-04 6.149744e-02)	(6.703049e-01 -7.450113e-04 6.067386e-02)	(1.007798e-02 -3.943443e-05 8.235747e-04)
208           	(6.830106e-01 -7.137117e-04 5.852472e-02)	(6.729156e-01 -6.730606e-04 5.774361e-02)	(1.009498e-02 -4.065114e-05 7.811141e-04)
209           	(6.838577e-01 -6.329789e-04 5.696394e-02)	(6.737466e-01 -5.932295e-04 5.622209e-02)	(1.011108e-02 -3.974943e-05 7.418489e-04)
210           	(6.845755e-01 -5.624998e-04 5.575574e-02)	(6.744482e-01 -5.252715e-04 5.505336e-02)	(1.012733e-02 -3.722829e-05 7.023742e-04)
211           	(6.851372e-01 -5.030948e-04 5.487097e-02)	(6.749938e-01 -4.698599e-04 5.420535e-02)	(1.014340e-02 -3.323487e-05 6.656199e-04)
212           	(6.863797e-01 -4.937911e-04 5.407117e-02)	(6.762187e-01 -4.644785e-04 5.344061e-02)	(1.016102e-02 -2.931262e-05 6.305543e-04)
213           	(6.866313e-01 -4.660569e-04 5.375543e-02)	(6.764544e-01 -4.402867e-04 5.315512e-02)	(1.017688e-02 -2.577020e-05 6.003102e-04)