# Moment      
# CofR        : (0.000000e+00 0.000000e+00 0.000000e+00)
#
# Time        	(total_x total_y total_z)	(pressure_x pressure_y pressure_z)	(viscous_x viscous_y viscous_z)
1             	(5.318451e-04 9.569335e-01 5.519718e-04)	(5.315700e-04 9.556157e-01 5.518628e-04)	(2.750779e-07 1.317811e-03 1.090352e-07)
2             	(1.278451e-03 8.149902e-01 -7.896863e-04)	(1.278406e-03 8.141845e-01 -7.843752e-04)	(4.474538e-08 8.057440e-04 -5.311156e-06)
3             	(1.980680e-03 4.902675e-01 5.483914e-05)	(1.981762e-03 4.897794e-01 6.646136e-05)	(-1.081199e-06 4.881614e-04 -1.162222e-05)
4             	(-1.790280e-03 7.199505e-02 5.086648e-03)	(-1.780991e-03 7.185217e-02 5.097756e-03)	(-9.288779e-06 1.428869e-04 -1.110815e-05)
5             	(-1.031546e-02 -3.044368e-01 3.088225e-03)	(-1.030554e-02 -3.043958e-01 3.095794e-03)	(-9.913837e-06 -4.099535e-05 -7.568932e-06)
6             	(-1.299803e-02 -4.500456e-01 3.733964e-04)	(-1.295500e-02 -4.501299e-01 3.554636e-04)	(-4.302948e-05 8.427267e-05 1.793283e-05)
7             	(-9.453113e-03 -4.231403e-01 -3.917568e-04)	(-9.442975e-03 -4.235830e-01 -4.061478e-04)	(-1.013885e-05 4.427372e-04 1.439104e-05)
8             	(-5.607060e-03 -3.072326e-01 1.196090e-03)	(-5.590943e-03 -3.079476e-01 1.202737e-03)	(-1.611708e-05 7.150886e-04 -6.647227e-06)
9             	(1.433227e-03 -1.377660e-01 9.000681e-04)	(1.446620e-03 -1.385524e-01 8.986635e-04)	(-1.339259e-05 7.863937e-04 1.404568e-06)
10            	(6.238891e-03 3.857383e-02 -1.723012e-04)	(6.246461e-03 3.786808e-02 -1.856677e-04)	(-7.569376e-06 7.057492e-04 1.336656e-05)
11            	(9.580949e-03 1.523648e-01 6.290909e-04)	(9.600681e-03 1.518989e-01 6.068012e-04)	(-1.973203e-05 4.658981e-04 2.228972e-05)
12            	(9.316624e-03 1.907823e-01 5.778921e-04)	(9.323451e-03 1.905583e-01 5.260650e-04)	(-6.826893e-06 2.239978e-04 5.182707e-05)
13            	(7.150446e-03 1.708191e-01 1.170191e-03)	(7.166471e-03 1.707869e-01 1.087842e-03)	(-1.602563e-05 3.218135e-05 8.234842e-05)
14            	(4.195828e-03 1.235699e-01 1.802417e-03)	(4.207026e-03 1.236189e-01 1.701876e-03)	(-1.119872e-05 -4.902312e-05 1.005404e-04)
15            	(5.168411e-04 6.633564e-02 2.585132e-03)	(5.251853e-04 6.637710e-02 2.495904e-03)	(-8.344157e-06 -4.146057e-05 8.922756e-05)
16            	(-2.312823e-03 1.448261e-02 3.255703e-03)	(-2.299388e-03 1.445900e-02 3.183466e-03)	(-1.343534e-05 2.361619e-05 7.223680e-05)
17            	(-3.534016e-03 -1.970845e-02 3.307451e-03)	(-3.505203e-03 -1.979773e-02 3.252444e-03)	(-2.881269e-05 8.927775e-05 5.500622e-05)
18            	(-3.688400e-03 -3.495562e-02 2.210415e-03)	(-3.653326e-03 -3.511302e-02 2.174431e-03)	(-3.507403e-05 1.573963e-04 3.598378e-05)
19            	(-3.111451e-03 -3.656720e-02 9.925685e-04)	(-3.075045e-03 -3.676945e-02 9.772917e-04)	(-3.640587e-05 2.022580e-04 1.527682e-05)
20            	(-2.112128e-03 -2.503798e-02 -2.946328e-04)	(-2.077804e-03 -2.526097e-02 -3.004900e-04)	(-3.432394e-05 2.229880e-04 5.857207e-06)
21            	(-1.340818e-03 -9.213276e-03 -1.258778e-03)	(-1.310955e-03 -9.424910e-03 -1.266420e-03)	(-2.986334e-05 2.116336e-04 7.641821e-06)
22            	(-7.002633e-04 6.999662e-03 -1.843582e-03)	(-6.737879e-04 6.821890e-03 -1.855664e-03)	(-2.647541e-05 1.777719e-04 1.208279e-05)
23            	(-1.900512e-04 2.008009e-02 -1.905152e-03)	(-1.644257e-04 1.994288e-02 -1.916273e-03)	(-2.562551e-05 1.372153e-04 1.112104e-05)
24            	(-3.572443e-05 2.851706e-02 -1.507800e-03)	(-1.243678e-05 2.840857e-02 -1.516213e-03)	(-2.328765e-05 1.084949e-04 8.412711e-06)
25            	(-2.089217e-04 3.257956e-02 -9.071537e-04)	(-1.890952e-04 3.249165e-02 -9.107357e-04)	(-1.982644e-05 8.791318e-05 3.581950e-06)
26            	(-6.679440e-04 3.338322e-02 -3.042854e-04)	(-6.517430e-04 3.329962e-02 -3.046436e-04)	(-1.620100e-05 8.359984e-05 3.582266e-07)
27            	(-1.231301e-03 3.187813e-02 1.250519e-04)	(-1.217118e-03 3.178034e-02 1.263478e-04)	(-1.418295e-05 9.778997e-05 -1.295937e-06)
28            	(-1.587111e-03 2.938893e-02 2.178184e-04)	(-1.572948e-03 2.926286e-02 2.202997e-04)	(-1.416316e-05 1.260670e-04 -2.481258e-06)
29            	(-1.715861e-03 2.709018e-02 3.003302e-04)	(-1.699768e-03 2.693490e-02 3.037559e-04)	(-1.609272e-05 1.552849e-04 -3.425746e-06)
30            	(-1.713946e-03 2.524133e-02 3.361572e-04)	(-1.695747e-03 2.505911e-02 3.393542e-04)	(-1.819843e-05 1.822209e-04 -3.196997e-06)
31            	(-1.632675e-03 2.378288e-02 3.432165e-04)	(-1.612943e-03 2.357765e-02 3.446552e-04)	(-1.973280e-05 2.052285e-04 -1.438645e-06)
32            	(-1.411326e-03 2.314614e-02 2.178865e-04)	(-1.391821e-03 2.292336e-02 2.167024e-04)	(-1.950470e-05 2.227779e-04 1.184128e-06)
33            	(-1.125930e-03 2.386336e-02 3.061049e-04)	(-1.108214e-03 2.362908e-02 3.022997e-04)	(-1.771661e-05 2.342824e-04 3.805142e-06)
34            	(-7.694900e-04 2.431367e-02 2.102579e-04)	(-7.539362e-04 2.407495e-02 2.047600e-04)	(-1.555380e-05 2.387176e-04 5.497960e-06)
35            	(-5.470634e-04 2.457348e-02 1.877990e-04)	(-5.325847e-04 2.433558e-02 1.814876e-04)	(-1.447868e-05 2.379052e-04 6.311324e-06)
36            	(-3.146005e-04 2.455889e-02 9.975977e-05)	(-2.999132e-04 2.432567e-02 9.393284e-05)	(-1.468726e-05 2.332149e-04 5.826933e-06)
37            	(-5.913332e-05 2.432479e-02 -2.734112e-05)	(-4.390393e-05 2.409711e-02 -3.166029e-05)	(-1.522940e-05 2.276789e-04 4.319175e-06)
38            	(2.106357e-04 2.399514e-02 -1.745736e-04)	(2.265183e-04 2.377271e-02 -1.761064e-04)	(-1.588263e-05 2.224318e-04 1.532858e-06)
39            	(4.591043e-04 2.358294e-02 -2.872292e-04)	(4.752196e-04 2.336486e-02 -2.855076e-04)	(-1.611536e-05 2.180728e-04 -1.721618e-06)
40            	(7.563479e-04 2.347733e-02 -4.168029e-04)	(7.718318e-04 2.326230e-02 -4.120017e-04)	(-1.548392e-05 2.150294e-04 -4.801224e-06)
41            	(8.268927e-04 2.298005e-02 -4.223940e-04)	(8.406419e-04 2.276765e-02 -4.157375e-04)	(-1.374918e-05 2.124005e-04 -6.656402e-06)
42            	(8.140251e-04 2.251299e-02 -3.713186e-04)	(8.255094e-04 2.230430e-02 -3.641608e-04)	(-1.148428e-05 2.086851e-04 -7.157838e-06)
43            	(6.582508e-04 2.179842e-02 -1.739783e-04)	(6.672543e-04 2.159418e-02 -1.674287e-04)	(-9.003469e-06 2.042388e-04 -6.549560e-06)
44            	(3.639047e-04 2.106503e-02 9.212568e-05)	(3.703519e-04 2.086564e-02 9.709574e-05)	(-6.447245e-06 1.993831e-04 -4.970063e-06)
45            	(1.420543e-04 2.072149e-02 1.357427e-04)	(1.466721e-04 2.052694e-02 1.392519e-04)	(-4.617805e-06 1.945549e-04 -3.509247e-06)
46            	(-1.299883e-04 2.033461e-02 1.883313e-04)	(-1.258598e-04 2.014515e-02 1.907090e-04)	(-4.128508e-06 1.894561e-04 -2.377725e-06)
47            	(-4.265797e-04 1.989439e-02 2.462315e-04)	(-4.216823e-04 1.970973e-02 2.478897e-04)	(-4.897399e-06 1.846592e-04 -1.658160e-06)
48            	(-8.664709e-04 1.903033e-02 5.079357e-04)	(-8.602541e-04 1.885117e-02 5.086651e-04)	(-6.216838e-06 1.791602e-04 -7.293775e-07)
49            	(-1.065638e-03 1.856810e-02 5.794421e-04)	(-1.058072e-03 1.839351e-02 5.796828e-04)	(-7.565633e-06 1.745826e-04 -2.407076e-07)
50            	(-1.282455e-03 1.767713e-02 8.430707e-04)	(-1.273319e-03 1.750815e-02 8.426182e-04)	(-9.135242e-06 1.689777e-04 4.524871e-07)
51            	(-1.310157e-03 1.731405e-02 9.015863e-04)	(-1.299291e-03 1.714930e-02 9.009271e-04)	(-1.086605e-05 1.647504e-04 6.591114e-07)
52            	(-1.259360e-03 1.698278e-02 9.695266e-04)	(-1.247055e-03 1.682236e-02 9.686644e-04)	(-1.230526e-05 1.604126e-04 8.622268e-07)
53            	(-1.082206e-03 1.642796e-02 1.210399e-03)	(-1.068859e-03 1.627176e-02 1.209434e-03)	(-1.334684e-05 1.562009e-04 9.650763e-07)
54            	(-9.045777e-04 1.624558e-02 1.284838e-03)	(-8.904202e-04 1.609275e-02 1.283950e-03)	(-1.415754e-05 1.528317e-04 8.880624e-07)
55            	(-5.868155e-04 1.599149e-02 1.493315e-03)	(-5.725089e-04 1.584216e-02 1.491840e-03)	(-1.430655e-05 1.493270e-04 1.474451e-06)
56            	(-3.472426e-04 1.592742e-02 1.551123e-03)	(-3.328437e-04 1.578135e-02 1.548737e-03)	(-1.439890e-05 1.460727e-04 2.385692e-06)
57            	(-9.379502e-05 1.590713e-02 1.600542e-03)	(-7.960943e-05 1.576431e-02 1.596657e-03)	(-1.418559e-05 1.428192e-04 3.885237e-06)
58            	(1.527995e-04 1.592417e-02 1.639110e-03)	(1.666229e-04 1.578424e-02 1.633640e-03)	(-1.382338e-05 1.399317e-04 5.469201e-06)
59            	(3.645065e-04 1.598077e-02 1.655838e-03)	(3.780596e-04 1.584311e-02 1.648895e-03)	(-1.355316e-05 1.376589e-04 6.942665e-06)
60            	(5.527558e-04 1.621408e-02 1.662479e-03)	(5.659098e-04 1.607729e-02 1.654351e-03)	(-1.315399e-05 1.367933e-04 8.127637e-06)
61            	(5.947723e-04 1.631194e-02 1.601412e-03)	(6.080533e-04 1.617516e-02 1.592434e-03)	(-1.328091e-05 1.367839e-04 8.978798e-06)
62            	(5.328079e-04 1.641927e-02 1.485066e-03)	(5.462111e-04 1.628170e-02 1.475400e-03)	(-1.340324e-05 1.375723e-04 9.666197e-06)
63            	(3.644208e-04 1.652119e-02 1.308862e-03)	(3.779312e-04 1.638227e-02 1.298317e-03)	(-1.351041e-05 1.389199e-04 1.054472e-05)
64            	(9.954329e-05 1.660407e-02 1.075381e-03)	(1.132476e-04 1.646340e-02 1.063909e-03)	(-1.370435e-05 1.406613e-04 1.147181e-05)
65            	(-2.409811e-04 1.666930e-02 7.866013e-04)	(-2.267013e-04 1.652669e-02 7.743936e-04)	(-1.427972e-05 1.426053e-04 1.220777e-05)
66            	(-6.225150e-04 1.670888e-02 4.599567e-04)	(-6.071287e-04 1.656425e-02 4.474460e-04)	(-1.538632e-05 1.446273e-04 1.251076e-05)
67            	(-1.009288e-03 1.672134e-02 1.186461e-04)	(-9.924924e-04 1.657477e-02 1.063359e-04)	(-1.679546e-05 1.465702e-04 1.231020e-05)
68            	(-1.365188e-03 1.670794e-02 -2.098966e-04)	(-1.346907e-03 1.655967e-02 -2.215753e-04)	(-1.828112e-05 1.482689e-04 1.167866e-05)
69            	(-1.664964e-03 1.665675e-02 -4.960137e-04)	(-1.645121e-03 1.650717e-02 -5.065568e-04)	(-1.984302e-05 1.495752e-04 1.054305e-05)
70            	(-1.897672e-03 1.660615e-02 -7.181772e-04)	(-1.876374e-03 1.645564e-02 -7.273324e-04)	(-2.129751e-05 1.505055e-04 9.155261e-06)
71            	(-2.055785e-03 1.655100e-02 -8.548673e-04)	(-2.033380e-03 1.639991e-02 -8.627657e-04)	(-2.240550e-05 1.510949e-04 7.898351e-06)
72            	(-2.141283e-03 1.649966e-02 -9.001943e-04)	(-2.118164e-03 1.634824e-02 -9.071403e-04)	(-2.311878e-05 1.514197e-04 6.946057e-06)
73            	(-2.155427e-03 1.645930e-02 -8.562278e-04)	(-2.131983e-03 1.630777e-02 -8.624454e-04)	(-2.344343e-05 1.515261e-04 6.217538e-06)
74            	(-2.104991e-03 1.643599e-02 -7.376677e-04)	(-2.081510e-03 1.628453e-02 -7.434092e-04)	(-2.348095e-05 1.514618e-04 5.741530e-06)
75            	(-1.997743e-03 1.643630e-02 -5.662340e-04)	(-1.974614e-03 1.628496e-02 -5.717761e-04)	(-2.312925e-05 1.513419e-04 5.542116e-06)
76            	(-1.842616e-03 1.646942e-02 -3.757883e-04)	(-1.820328e-03 1.631815e-02 -3.814107e-04)	(-2.228784e-05 1.512688e-04 5.622398e-06)
77            	(-1.644420e-03 1.651324e-02 -1.703740e-04)	(-1.623496e-03 1.636202e-02 -1.763757e-04)	(-2.092401e-05 1.512195e-04 6.001699e-06)
78            	(-1.416288e-03 1.657961e-02 1.062650e-05)	(-1.397084e-03 1.642837e-02 4.052576e-06)	(-1.920422e-05 1.512367e-04 6.573919e-06)
79            	(-1.170392e-03 1.666587e-02 1.461226e-04)	(-1.153156e-03 1.651450e-02 1.388707e-04)	(-1.723652e-05 1.513674e-04 7.251899e-06)
80            	(-9.199013e-04 1.676685e-02 2.378958e-04)	(-9.048685e-04 1.661520e-02 2.300188e-04)	(-1.503273e-05 1.516494e-04 7.876937e-06)
81            	(-6.830085e-04 1.688839e-02 2.855196e-04)	(-6.703293e-04 1.673623e-02 2.772017e-04)	(-1.267923e-05 1.521602e-04 8.317820e-06)
82            	(-4.590387e-04 1.703611e-02 2.852420e-04)	(-4.487691e-04 1.688310e-02 2.768188e-04)	(-1.026966e-05 1.530031e-04 8.423220e-06)
83            	(-2.537494e-04 1.720233e-02 2.428680e-04)	(-2.459660e-04 1.704815e-02 2.347692e-04)	(-7.783444e-06 1.541813e-04 8.098789e-06)
84            	(-7.137423e-05 1.737585e-02 1.670076e-04)	(-6.612450e-05 1.722019e-02 1.597752e-04)	(-5.249725e-06 1.556578e-04 7.232415e-06)
85            	(8.632005e-05 1.754668e-02 6.847545e-05)	(8.910940e-05 1.738924e-02 6.264752e-05)	(-2.789342e-06 1.574361e-04 5.827932e-06)
86            	(2.178381e-04 1.770315e-02 -4.151584e-05)	(2.183875e-04 1.754377e-02 -4.561273e-05)	(-5.494903e-07 1.593867e-04 4.096892e-06)
87            	(3.120760e-04 1.783584e-02 -1.504032e-04)	(3.107195e-04 1.767453e-02 -1.527052e-04)	(1.356437e-06 1.613127e-04 2.302068e-06)
88            	(3.554868e-04 1.793905e-02 -2.480448e-04)	(3.527003e-04 1.777594e-02 -2.486439e-04)	(2.786512e-06 1.631094e-04 5.991051e-07)
89            	(3.315624e-04 1.800054e-02 -3.246521e-04)	(3.279946e-04 1.783585e-02 -3.236579e-04)	(3.567746e-06 1.646944e-04 -9.941568e-07)
90            	(2.282264e-04 1.802861e-02 -3.759726e-04)	(2.245413e-04 1.786258e-02 -3.734485e-04)	(3.685116e-06 1.660342e-04 -2.524096e-06)
91            	(3.808349e-05 1.802528e-02 -3.961467e-04)	(3.491300e-05 1.785818e-02 -3.922125e-04)	(3.170486e-06 1.671020e-04 -3.934243e-06)
92            	(-2.341965e-04 1.799266e-02 -3.856150e-04)	(-2.363119e-04 1.782480e-02 -3.805065e-04)	(2.115419e-06 1.678573e-04 -5.108497e-06)
93            	(-5.696403e-04 1.793500e-02 -3.504932e-04)	(-5.701319e-04 1.776673e-02 -3.445136e-04)	(4.915761e-07 1.682671e-04 -5.979546e-06)
94            	(-9.368199e-04 1.785661e-02 -2.999516e-04)	(-9.352142e-04 1.768830e-02 -2.934575e-04)	(-1.605639e-06 1.683119e-04 -6.494120e-06)
95            	(-1.297862e-03 1.776368e-02 -2.476720e-04)	(-1.293795e-03 1.759569e-02 -2.409987e-04)	(-4.067387e-06 1.679880e-04 -6.673282e-06)
96            	(-1.611094e-03 1.766245e-02 -2.065509e-04)	(-1.604426e-03 1.749516e-02 -1.998435e-04)	(-6.668730e-06 1.672909e-04 -6.707474e-06)
97            	(-1.844349e-03 1.755947e-02 -1.864036e-04)	(-1.835192e-03 1.739324e-02 -1.797288e-04)	(-9.156687e-06 1.662324e-04 -6.674795e-06)
98            	(-1.980444e-03 1.746011e-02 -1.912067e-04)	(-1.969125e-03 1.729525e-02 -1.846767e-04)	(-1.131896e-05 1.648606e-04 -6.529970e-06)
99            	(-2.019685e-03 1.736977e-02 -2.194860e-04)	(-2.006646e-03 1.720657e-02 -2.133310e-04)	(-1.303860e-05 1.632044e-04 -6.155067e-06)
100           	(-1.972723e-03 1.729382e-02 -2.641020e-04)	(-1.958372e-03 1.713250e-02 -2.585527e-04)	(-1.435101e-05 1.613219e-04 -5.549301e-06)
101           	(-1.861075e-03 1.723556e-02 -3.183892e-04)	(-1.845824e-03 1.707626e-02 -3.134887e-04)	(-1.525011e-05 1.592977e-04 -4.900527e-06)
102           	(-1.705883e-03 1.719590e-02 -3.766923e-04)	(-1.690081e-03 1.703870e-02 -3.724206e-04)	(-1.580254e-05 1.572007e-04 -4.271662e-06)
103           	(-1.526164e-03 1.717387e-02 -4.341725e-04)	(-1.510112e-03 1.701869e-02 -4.304597e-04)	(-1.605200e-05 1.551764e-04 -3.712845e-06)
104           	(-1.339082e-03 1.716707e-02 -4.861467e-04)	(-1.322974e-03 1.701380e-02 -4.828914e-04)	(-1.610746e-05 1.532723e-04 -3.255305e-06)
105           	(-1.161892e-03 1.717398e-02 -5.265766e-04)	(-1.145754e-03 1.702247e-02 -5.236889e-04)	(-1.613724e-05 1.515097e-04 -2.887611e-06)
106           	(-1.013183e-03 1.719309e-02 -5.496777e-04)	(-9.969725e-04 1.704318e-02 -5.470721e-04)	(-1.621082e-05 1.499165e-04 -2.605534e-06)
107           	(-9.091748e-04 1.722114e-02 -5.538119e-04)	(-8.927774e-04 1.707263e-02 -5.515259e-04)	(-1.639740e-05 1.485126e-04 -2.286028e-06)
108           	(-8.546484e-04 1.726537e-02 -5.428536e-04)	(-8.379588e-04 1.711804e-02 -5.410095e-04)	(-1.668962e-05 1.473276e-04 -1.844097e-06)
109           	(-8.447504e-04 1.731071e-02 -5.177447e-04)	(-8.276914e-04 1.716437e-02 -5.165060e-04)	(-1.705895e-05 1.463361e-04 -1.238749e-06)
110           	(-8.718157e-04 1.738803e-02 -4.600182e-04)	(-8.542976e-04 1.724243e-02 -4.595351e-04)	(-1.751805e-05 1.456031e-04 -4.831301e-07)
111           	(-9.003186e-04 1.742149e-02 -4.273693e-04)	(-8.823163e-04 1.727652e-02 -4.276458e-04)	(-1.800237e-05 1.449652e-04 2.765555e-07)
112           	(-9.247084e-04 1.744199e-02 -3.700363e-04)	(-9.062926e-04 1.729759e-02 -3.710837e-04)	(-1.841579e-05 1.443938e-04 1.047443e-06)
113           	(-9.237201e-04 1.748252e-02 -2.129324e-04)	(-9.049461e-04 1.733857e-02 -2.148769e-04)	(-1.877401e-05 1.439562e-04 1.944488e-06)
114           	(-9.106107e-04 1.748641e-02 -1.164412e-04)	(-8.915137e-04 1.734287e-02 -1.191138e-04)	(-1.909699e-05 1.435398e-04 2.672540e-06)
115           	(-8.385266e-04 1.748928e-02 1.038456e-04)	(-8.193027e-04 1.734611e-02 1.004168e-04)	(-1.922388e-05 1.431689e-04 3.428799e-06)
116           	(-7.798935e-04 1.747523e-02 2.410944e-04)	(-7.605894e-04 1.733237e-02 2.372130e-04)	(-1.930407e-05 1.428574e-04 3.881415e-06)
117           	(-6.351727e-04 1.744614e-02 5.101167e-04)	(-6.160165e-04 1.730356e-02 5.056900e-04)	(-1.915618e-05 1.425841e-04 4.426726e-06)
118           	(-4.699994e-04 1.740294e-02 7.729959e-04)	(-4.511824e-04 1.726054e-02 7.681199e-04)	(-1.881699e-05 1.424046e-04 4.875994e-06)
119           	(-3.568088e-04 1.736163e-02 9.390193e-04)	(-3.383378e-04 1.721936e-02 9.337432e-04)	(-1.847100e-05 1.422770e-04 5.276084e-06)
120           	(-1.275419e-04 1.728362e-02 1.207524e-03)	(-1.097340e-04 1.714155e-02 1.201668e-03)	(-1.780796e-05 1.420702e-04 5.856093e-06)
121           	(1.185231e-04 1.719794e-02 1.464905e-03)	(1.353733e-04 1.705610e-02 1.458398e-03)	(-1.685016e-05 1.418439e-04 6.506518e-06)
122           	(3.767861e-04 1.710689e-02 1.710265e-03)	(3.923807e-04 1.696536e-02 1.702881e-03)	(-1.559459e-05 1.415214e-04 7.383990e-06)
123           	(6.395020e-04 1.701308e-02 1.938432e-03)	(6.535677e-04 1.687206e-02 1.929849e-03)	(-1.406566e-05 1.410196e-04 8.582792e-06)
124           	(8.977946e-04 1.691947e-02 2.144497e-03)	(9.100881e-04 1.677913e-02 2.134336e-03)	(-1.229347e-05 1.403363e-04 1.016086e-05)
125           	(1.144310e-03 1.682706e-02 2.325399e-03)	(1.154616e-03 1.668756e-02 2.313277e-03)	(-1.030625e-05 1.394972e-04 1.212243e-05)
126           	(1.372347e-03 1.673589e-02 2.478439e-03)	(1.380486e-03 1.659737e-02 2.464028e-03)	(-8.139392e-06 1.385258e-04 1.441157e-05)
127           	(1.576583e-03 1.664273e-02 2.599897e-03)	(1.582441e-03 1.650531e-02 2.582918e-03)	(-5.857460e-06 1.374185e-04 1.697969e-05)
128           	(1.750610e-03 1.655172e-02 2.683972e-03)	(1.754100e-03 1.641550e-02 2.664320e-03)	(-3.489486e-06 1.362206e-04 1.965235e-05)
129           	(1.847077e-03 1.649791e-02 2.703069e-03)	(1.848251e-03 1.636286e-02 2.680841e-03)	(-1.173569e-06 1.350531e-04 2.222743e-05)
130           	(1.970941e-03 1.640548e-02 2.711995e-03)	(1.969792e-03 1.627171e-02 2.687331e-03)	(1.148131e-06 1.337671e-04 2.466471e-05)
131           	(2.061147e-03 1.631898e-02 2.680308e-03)	(2.057835e-03 1.618649e-02 2.653578e-03)	(3.312688e-06 1.324850e-04 2.672986e-05)
132           	(2.117399e-03 1.624302e-02 2.612703e-03)	(2.112055e-03 1.611182e-02 2.584287e-03)	(5.343722e-06 1.312082e-04 2.841551e-05)
133           	(2.142027e-03 1.618444e-02 2.516065e-03)	(2.134777e-03 1.605443e-02 2.486416e-03)	(7.250026e-06 1.300031e-04 2.964944e-05)
134           	(2.135905e-03 1.615342e-02 2.428491e-03)	(2.126896e-03 1.602448e-02 2.398127e-03)	(9.009614e-06 1.289321e-04 3.036433e-05)
135           	(2.106197e-03 1.611818e-02 2.284235e-03)	(2.095591e-03 1.599023e-02 2.253680e-03)	(1.060638e-05 1.279477e-04 3.055428e-05)
136           	(2.054689e-03 1.609978e-02 2.130965e-03)	(2.042759e-03 1.597267e-02 2.100697e-03)	(1.192999e-05 1.271113e-04 3.026823e-05)
137           	(1.984781e-03 1.610684e-02 1.980043e-03)	(1.971718e-03 1.598039e-02 1.950349e-03)	(1.306388e-05 1.264478e-04 2.969417e-05)
138           	(1.899628e-03 1.613093e-02 1.839637e-03)	(1.885661e-03 1.600494e-02 1.810699e-03)	(1.396734e-05 1.259837e-04 2.893805e-05)
139           	(1.803222e-03 1.616935e-02 1.714239e-03)	(1.788609e-03 1.604362e-02 1.686180e-03)	(1.461359e-05 1.257357e-04 2.805991e-05)
140           	(1.720139e-03 1.618721e-02 1.649879e-03)	(1.705126e-03 1.606157e-02 1.622745e-03)	(1.501379e-05 1.256325e-04 2.713386e-05)
141           	(1.602305e-03 1.625338e-02 1.541725e-03)	(1.587149e-03 1.612758e-02 1.515554e-03)	(1.515559e-05 1.257992e-04 2.617156e-05)
142           	(1.488175e-03 1.632464e-02 1.450766e-03)	(1.473218e-03 1.619843e-02 1.425511e-03)	(1.495612e-05 1.262104e-04 2.525569e-05)
143           	(1.381254e-03 1.639457e-02 1.377807e-03)	(1.366622e-03 1.626773e-02 1.353347e-03)	(1.463280e-05 1.268414e-04 2.445993e-05)
144           	(1.281833e-03 1.645812e-02 1.318681e-03)	(1.267491e-03 1.633048e-02 1.294862e-03)	(1.434202e-05 1.276405e-04 2.381836e-05)
145           	(1.187450e-03 1.651773e-02 1.271008e-03)	(1.173280e-03 1.638918e-02 1.247614e-03)	(1.416908e-05 1.285497e-04 2.339487e-05)
146           	(1.115618e-03 1.653671e-02 1.257587e-03)	(1.101451e-03 1.640728e-02 1.234304e-03)	(1.416678e-05 1.294287e-04 2.328276e-05)
147           	(1.012527e-03 1.660475e-02 1.206710e-03)	(9.981427e-04 1.647435e-02 1.183268e-03)	(1.438429e-05 1.304043e-04 2.344239e-05)
148           	(9.094531e-04 1.667467e-02 1.153438e-03)	(8.948243e-04 1.654325e-02 1.129671e-03)	(1.462880e-05 1.314199e-04 2.376641e-05)
149           	(8.096292e-04 1.674486e-02 1.097975e-03)	(7.946790e-04 1.661241e-02 1.073731e-03)	(1.495025e-05 1.324454e-04 2.424426e-05)
150           	(7.416657e-04 1.677134e-02 1.083654e-03)	(7.263429e-04 1.663800e-02 1.058796e-03)	(1.532281e-05 1.333369e-04 2.485765e-05)
151           	(6.450773e-04 1.685630e-02 1.006045e-03)	(6.293906e-04 1.672204e-02 9.806388e-04)	(1.568679e-05 1.342580e-04 2.540620e-05)
152           	(5.608975e-04 1.693400e-02 9.319382e-04)	(5.449991e-04 1.679885e-02 9.061458e-04)	(1.589844e-05 1.351431e-04 2.579241e-05)
153           	(5.161099e-04 1.696463e-02 9.083116e-04)	(5.000579e-04 1.682874e-02 8.822921e-04)	(1.605201e-05 1.358842e-04 2.601954e-05)
154           	(4.493970e-04 1.704774e-02 8.057321e-04)	(4.333418e-04 1.691110e-02 7.798721e-04)	(1.605523e-05 1.366473e-04 2.585998e-05)
155           	(4.215241e-04 1.708147e-02 7.596637e-04)	(4.056007e-04 1.694420e-02 7.343012e-04)	(1.592339e-05 1.372768e-04 2.536247e-05)
156           	(3.947933e-04 1.712208e-02 6.888308e-04)	(3.790305e-04 1.698423e-02 6.643856e-04)	(1.576276e-05 1.378498e-04 2.444522e-05)
157           	(3.345689e-04 1.721784e-02 4.951965e-04)	(3.191893e-04 1.707931e-02 4.723046e-04)	(1.537968e-05 1.385219e-04 2.289188e-05)
158           	(3.115234e-04 1.726261e-02 3.813384e-04)	(2.966078e-04 1.712345e-02 3.603889e-04)	(1.491557e-05 1.391561e-04 2.094957e-05)
159           	(2.808301e-04 1.731581e-02 2.387501e-04)	(2.664462e-04 1.717598e-02 2.201173e-04)	(1.438396e-05 1.398274e-04 1.863279e-05)
160           	(2.388574e-04 1.737056e-02 6.648642e-05)	(2.251266e-04 1.723002e-02 5.052930e-05)	(1.373071e-05 1.405402e-04 1.595712e-05)
161           	(1.833209e-04 1.742961e-02 -1.289745e-04)	(1.703707e-04 1.728829e-02 -1.419158e-04)	(1.295015e-05 1.413169e-04 1.294131e-05)
162           	(6.319703e-05 1.755356e-02 -4.433660e-04)	(5.133776e-05 1.741124e-02 -4.527800e-04)	(1.185927e-05 1.423248e-04 9.414033e-06)
163           	(1.854948e-06 1.760339e-02 -6.292740e-04)	(-8.863862e-06 1.746006e-02 -6.351144e-04)	(1.071881e-05 1.433326e-04 5.840419e-06)
164           	(-6.628221e-05 1.765038e-02 -8.025599e-04)	(-7.584164e-05 1.750604e-02 -8.048133e-04)	(9.559438e-06 1.443360e-04 2.253347e-06)
165           	(-1.425829e-04 1.769567e-02 -9.579331e-04)	(-1.509638e-04 1.755033e-02 -9.567293e-04)	(8.380880e-06 1.453387e-04 -1.203818e-06)
166           	(-2.270266e-04 1.774026e-02 -1.090838e-03)	(-2.342233e-04 1.759392e-02 -1.086407e-03)	(7.196675e-06 1.463485e-04 -4.431249e-06)
167           	(-3.181996e-04 1.778552e-02 -1.198116e-03)	(-3.242476e-04 1.763815e-02 -1.190782e-03)	(6.048002e-06 1.473685e-04 -7.334045e-06)
168           	(-4.140700e-04 1.783090e-02 -1.277671e-03)	(-4.190057e-04 1.768250e-02 -1.267817e-03)	(4.935669e-06 1.484003e-04 -9.854153e-06)
169           	(-5.113270e-04 1.787627e-02 -1.329282e-03)	(-5.151761e-04 1.772683e-02 -1.317300e-03)	(3.849110e-06 1.494456e-04 -1.198228e-05)
170           	(-6.062199e-04 1.792838e-02 -1.351377e-03)	(-6.089932e-04 1.777787e-02 -1.337698e-03)	(2.773266e-06 1.505131e-04 -1.367909e-05)
171           	(-6.956105e-04 1.797981e-02 -1.348852e-03)	(-6.973076e-04 1.782822e-02 -1.333893e-03)	(1.697049e-06 1.515941e-04 -1.495897e-05)
172           	(-7.759931e-04 1.802916e-02 -1.323652e-03)	(-7.765939e-04 1.787648e-02 -1.307802e-03)	(6.008098e-07 1.526740e-04 -1.585033e-05)
173           	(-8.445929e-04 1.806816e-02 -1.279087e-03)	(-8.440996e-04 1.791444e-02 -1.262696e-03)	(-4.933332e-07 1.537202e-04 -1.639039e-05)
174           	(-8.999819e-04 1.810299e-02 -1.217110e-03)	(-8.984331e-04 1.794828e-02 -1.200478e-03)	(-1.548856e-06 1.547176e-04 -1.663125e-05)
175           	(-9.408451e-04 1.813192e-02 -1.140583e-03)	(-9.383174e-04 1.797628e-02 -1.123983e-03)	(-2.527714e-06 1.556445e-04 -1.660002e-05)
176           	(-9.671033e-04 1.815622e-02 -1.053841e-03)	(-9.637068e-04 1.799973e-02 -1.037497e-03)	(-3.396470e-06 1.564826e-04 -1.634391e-05)
177           	(-9.799538e-04 1.817469e-02 -9.587787e-04)	(-9.758325e-04 1.801747e-02 -9.428861e-04)	(-4.121314e-06 1.572180e-04 -1.589256e-05)
178           	(-9.817572e-04 1.817639e-02 -8.550556e-04)	(-9.770719e-04 1.801858e-02 -8.397887e-04)	(-4.685302e-06 1.578129e-04 -1.526686e-05)
179           	(-9.758683e-04 1.816796e-02 -7.480845e-04)	(-9.707758e-04 1.800970e-02 -7.335781e-04)	(-5.092475e-06 1.582571e-04 -1.450635e-05)
180           	(-9.658460e-04 1.815349e-02 -6.395599e-04)	(-9.604837e-04 1.799493e-02 -6.259303e-04)	(-5.362376e-06 1.585547e-04 -1.362955e-05)
181           	(-9.548094e-04 1.813782e-02 -5.296913e-04)	(-9.492923e-04 1.797910e-02 -5.170219e-04)	(-5.517140e-06 1.587269e-04 -1.266946e-05)
182           	(-9.448211e-04 1.811623e-02 -4.167923e-04)	(-9.392592e-04 1.795745e-02 -4.051400e-04)	(-5.561897e-06 1.587756e-04 -1.165238e-05)
183           	(-9.376287e-04 1.809035e-02 -3.022149e-04)	(-9.321215e-04 1.793164e-02 -2.916148e-04)	(-5.507148e-06 1.587099e-04 -1.060018e-05)
184           	(-9.340729e-04 1.806265e-02 -1.887565e-04)	(-9.287053e-04 1.790411e-02 -1.792071e-04)	(-5.367575e-06 1.585470e-04 -9.549387e-06)
185           	(-9.345081e-04 1.803438e-02 -7.875044e-05)	(-9.293470e-04 1.787607e-02 -7.020819e-05)	(-5.161108e-06 1.583063e-04 -8.542251e-06)
186           	(-9.395024e-04 1.800559e-02 2.512752e-05)	(-9.346003e-04 1.784759e-02 3.274831e-05)	(-4.902159e-06 1.580039e-04 -7.620796e-06)
187           	(-9.497121e-04 1.797588e-02 1.223553e-04)	(-9.450909e-04 1.781823e-02 1.291648e-04)	(-4.621162e-06 1.576515e-04 -6.809465e-06)
188           	(-9.659806e-04 1.794848e-02 2.097814e-04)	(-9.616238e-04 1.779121e-02 2.159081e-04)	(-4.356827e-06 1.572676e-04 -6.126658e-06)
189           	(-9.886171e-04 1.792509e-02 2.858911e-04)	(-9.844782e-04 1.776821e-02 2.914681e-04)	(-4.138939e-06 1.568740e-04 -5.577054e-06)
190           	(-1.018131e-03 1.790984e-02 3.493255e-04)	(-1.014136e-03 1.775334e-02 3.544727e-04)	(-3.995109e-06 1.564999e-04 -5.147285e-06)
191           	(-1.055299e-03 1.790125e-02 4.005334e-04)	(-1.051351e-03 1.774509e-02 4.053633e-04)	(-3.947130e-06 1.561648e-04 -4.829826e-06)
192           	(-1.100741e-03 1.789939e-02 4.382862e-04)	(-1.096720e-03 1.774350e-02 4.428955e-04)	(-4.020997e-06 1.558830e-04 -4.609204e-06)
193           	(-1.154494e-03 1.790383e-02 4.616197e-04)	(-1.150251e-03 1.774816e-02 4.660849e-04)	(-4.242882e-06 1.556679e-04 -4.465212e-06)
194           	(-1.215861e-03 1.791386e-02 4.703372e-04)	(-1.211230e-03 1.775834e-02 4.747202e-04)	(-4.631593e-06 1.555288e-04 -4.383054e-06)
195           	(-1.283310e-03 1.792884e-02 4.653799e-04)	(-1.278115e-03 1.777337e-02 4.697260e-04)	(-5.194893e-06 1.554715e-04 -4.346166e-06)
196           	(-1.353916e-03 1.794770e-02 4.481816e-04)	(-1.347987e-03 1.779221e-02 4.525242e-04)	(-5.928572e-06 1.554972e-04 -4.342545e-06)
197           	(-1.424914e-03 1.796940e-02 4.204404e-04)	(-1.418092e-03 1.781380e-02 4.247980e-04)	(-6.821379e-06 1.556032e-04 -4.357551e-06)
198           	(-1.492663e-03 1.799310e-02 3.847671e-04)	(-1.484807e-03 1.783731e-02 3.891484e-04)	(-7.856736e-06 1.557827e-04 -4.381359e-06)
199           	(-1.553749e-03 1.801796e-02 3.444531e-04)	(-1.544739e-03 1.786193e-02 3.488523e-04)	(-9.009803e-06 1.560272e-04 -4.399208e-06)
200           	(-1.605259e-03 1.804188e-02 3.050833e-04)	(-1.595003e-03 1.788555e-02 3.094827e-04)	(-1.025629e-05 1.563275e-04 -4.399340e-06)
201           	(-1.645568e-03 1.806827e-02 2.676187e-04)	(-1.633988e-03 1.791159e-02 2.719893e-04)	(-1.157940e-05 1.566857e-04 -4.370544e-06)
202           	(-1.674138e-03 1.809771e-02 2.353680e-04)	(-1.661208e-03 1.794060e-02 2.396809e-04)	(-1.293019e-05 1.571098e-04 -4.312820e-06)
203           	(-1.691304e-03 1.812697e-02 2.103451e-04)	(-1.677039e-03 1.796936e-02 2.145559e-04)	(-1.426494e-05 1.576042e-04 -4.210790e-06)
204           	(-1.697549e-03 1.815753e-02 1.969207e-04)	(-1.682010e-03 1.799935e-02 2.009554e-04)	(-1.553964e-05 1.581792e-04 -4.034632e-06)
205           	(-1.694154e-03 1.819659e-02 1.996679e-04)	(-1.677429e-03 1.803774e-02 2.034169e-04)	(-1.672481e-05 1.588530e-04 -3.748991e-06)
206           	(-1.683208e-03 1.822767e-02 2.155961e-04)	(-1.665401e-03 1.806808e-02 2.189281e-04)	(-1.780710e-05 1.595902e-04 -3.332025e-06)
207           	(-1.666875e-03 1.825840e-02 2.458094e-04)	(-1.648095e-03 1.809801e-02 2.485744e-04)	(-1.877920e-05 1.603881e-04 -2.764950e-06)
208           	(-1.650778e-03 1.832991e-02 3.234617e-04)	(-1.631170e-03 1.816850e-02 3.254102e-04)	(-1.960807e-05 1.614099e-04 -1.948485e-06)
209           	(-1.627225e-03 1.835331e-02 3.671140e-04)	(-1.606847e-03 1.819093e-02 3.681444e-04)	(-2.037781e-05 1.623769e-04 -1.030366e-06)
210           	(-1.603048e-03 1.837326e-02 4.141334e-04)	(-1.582035e-03 1.820987e-02 4.141005e-04)	(-2.101360e-05 1.633849e-04 3.293173e-08)