# Force       
# CofR        : (0.000000e+00 0.000000e+00 0.000000e+00)
#
# Time        	(total_x total_y total_z)	(pressure_x pressure_y pressure_z)	(viscous_x viscous_y viscous_z)
1             	(3.618065e+01 -1.997049e+02 9.418375e+02)	(3.613383e+01 -1.997075e+02 9.418390e+02)	(4.682426e-02 2.639356e-03 -1.565956e-03)
2             	(3.053034e+01 -2.017147e+02 9.419956e+02)	(3.050727e+01 -2.017115e+02 9.419962e+02)	(2.306547e-02 -3.181894e-03 -6.432972e-04)
3             	(1.911955e+01 -2.057760e+02 9.424061e+02)	(1.912039e+01 -2.057661e+02 9.424061e+02)	(-8.393398e-04 -9.888786e-03 -1.620471e-05)
4             	(3.186809e+00 -2.114339e+02 9.432974e+02)	(3.194264e+00 -2.114218e+02 9.432950e+02)	(-7.454609e-03 -1.207054e-02 2.398041e-03)
5             	(-1.056233e+01 -2.163451e+02 9.441694e+02)	(-1.055480e+01 -2.163336e+02 9.441659e+02)	(-7.529893e-03 -1.145411e-02 3.472193e-03)
6             	(-1.871357e+01 -2.192585e+02 9.445336e+02)	(-1.871074e+01 -2.192491e+02 9.445286e+02)	(-2.838569e-03 -9.412827e-03 5.026867e-03)
7             	(-1.925010e+01 -2.194485e+02 9.443862e+02)	(-1.925411e+01 -2.194422e+02 9.443819e+02)	(4.009551e-03 -6.270990e-03 4.360441e-03)
8             	(-1.547956e+01 -2.180915e+02 9.438775e+02)	(-1.549190e+01 -2.180891e+02 9.438737e+02)	(1.233525e-02 -2.472026e-03 3.808051e-03)
9             	(-8.825953e+00 -2.156822e+02 9.430392e+02)	(-8.844199e+00 -2.156824e+02 9.430362e+02)	(1.824617e-02 2.332931e-04 3.013568e-03)
10            	(-1.384219e+00 -2.130018e+02 9.422827e+02)	(-1.405217e+00 -2.130034e+02 9.422807e+02)	(2.099794e-02 1.526722e-03 1.973895e-03)
11            	(4.611703e+00 -2.108540e+02 9.417380e+02)	(4.591788e+00 -2.108553e+02 9.417371e+02)	(1.991543e-02 1.277578e-03 8.763713e-04)
12            	(7.315145e+00 -2.098746e+02 9.414326e+02)	(7.299253e+00 -2.098745e+02 9.414329e+02)	(1.589181e-02 -9.547082e-05 -3.071363e-04)
13            	(7.341028e+00 -2.098630e+02 9.414356e+02)	(7.330489e+00 -2.098609e+02 9.414362e+02)	(1.053908e-02 -2.050386e-03 -6.331323e-04)
14            	(5.925149e+00 -2.103741e+02 9.416536e+02)	(5.919224e+00 -2.103703e+02 9.416541e+02)	(5.924467e-03 -3.810012e-03 -4.589271e-04)
15            	(3.582610e+00 -2.112323e+02 9.420618e+02)	(3.579412e+00 -2.112274e+02 9.420616e+02)	(3.197683e-03 -4.858887e-03 1.305242e-04)
16            	(1.008360e+00 -2.121664e+02 9.424664e+02)	(1.006046e+00 -2.121613e+02 9.424654e+02)	(2.314103e-03 -5.106180e-03 1.038576e-03)
17            	(-1.008825e+00 -2.128945e+02 9.427849e+02)	(-1.011765e+00 -2.128898e+02 9.427829e+02)	(2.939952e-03 -4.704527e-03 2.009750e-03)
18            	(-1.866808e+00 -2.132088e+02 9.429479e+02)	(-1.871207e+00 -2.132049e+02 9.429450e+02)	(4.399754e-03 -3.945098e-03 2.982887e-03)
19            	(-2.019144e+00 -2.132671e+02 9.429942e+02)	(-2.025254e+00 -2.132640e+02 9.429903e+02)	(6.110373e-03 -3.091635e-03 3.825013e-03)
20            	(-1.683520e+00 -2.131472e+02 9.429377e+02)	(-1.690976e+00 -2.131448e+02 9.429332e+02)	(7.456224e-03 -2.388649e-03 4.476723e-03)
21            	(-1.057017e+00 -2.129195e+02 9.428016e+02)	(-1.065165e+00 -2.129175e+02 9.427966e+02)	(8.147724e-03 -1.972503e-03 4.982921e-03)
22            	(-3.280484e-01 -2.126496e+02 9.426101e+02)	(-3.362026e-01 -2.126477e+02 9.426048e+02)	(8.154159e-03 -1.882997e-03 5.357511e-03)
23            	(3.142069e-01 -2.124129e+02 9.424363e+02)	(3.065819e-01 -2.124109e+02 9.424307e+02)	(7.625085e-03 -2.059018e-03 5.586224e-03)
24            	(7.869720e-01 -2.122407e+02 9.423143e+02)	(7.801885e-01 -2.122383e+02 9.423087e+02)	(6.783482e-03 -2.408147e-03 5.672288e-03)
25            	(9.582771e-01 -2.121783e+02 9.422613e+02)	(9.524324e-01 -2.121755e+02 9.422556e+02)	(5.844672e-03 -2.802330e-03 5.662276e-03)
26            	(9.485310e-01 -2.121826e+02 9.422533e+02)	(9.435215e-01 -2.121795e+02 9.422477e+02)	(5.009529e-03 -3.166740e-03 5.581239e-03)
27            	(8.450678e-01 -2.122197e+02 9.422658e+02)	(8.406484e-01 -2.122162e+02 9.422603e+02)	(4.419397e-03 -3.446620e-03 5.480976e-03)
28            	(6.883325e-01 -2.122765e+02 9.423012e+02)	(6.842368e-01 -2.122729e+02 9.422958e+02)	(4.095735e-03 -3.609407e-03 5.388510e-03)
29            	(5.071567e-01 -2.123433e+02 9.423542e+02)	(5.031517e-01 -2.123396e+02 9.423488e+02)	(4.005005e-03 -3.654952e-03 5.335220e-03)
30            	(3.416170e-01 -2.124037e+02 9.424088e+02)	(3.375580e-01 -2.124001e+02 9.424035e+02)	(4.058966e-03 -3.603816e-03 5.349098e-03)
31            	(2.432068e-01 -2.124395e+02 9.424438e+02)	(2.390412e-01 -2.124360e+02 9.424383e+02)	(4.165587e-03 -3.507133e-03 5.427180e-03)
32            	(2.077147e-01 -2.124524e+02 9.424586e+02)	(2.034632e-01 -2.124489e+02 9.424531e+02)	(4.251534e-03 -3.404909e-03 5.557894e-03)
33            	(2.169644e-01 -2.124490e+02 9.424560e+02)	(2.126917e-01 -2.124457e+02 9.424503e+02)	(4.272709e-03 -3.323982e-03 5.712731e-03)
34            	(2.481241e-01 -2.124378e+02 9.424411e+02)	(2.439114e-01 -2.124346e+02 9.424352e+02)	(4.212766e-03 -3.279915e-03 5.860351e-03)
35            	(2.716335e-01 -2.124294e+02 9.424247e+02)	(2.675600e-01 -2.124261e+02 9.424188e+02)	(4.073522e-03 -3.270961e-03 5.980692e-03)
36            	(3.046667e-01 -2.124175e+02 9.423966e+02)	(3.007669e-01 -2.124142e+02 9.423905e+02)	(3.899835e-03 -3.287699e-03 6.043182e-03)
37            	(3.265522e-01 -2.124098e+02 9.423702e+02)	(3.228466e-01 -2.124065e+02 9.423642e+02)	(3.705588e-03 -3.323630e-03 6.047212e-03)
38            	(3.225180e-01 -2.124112e+02 9.423557e+02)	(3.189948e-01 -2.124079e+02 9.423497e+02)	(3.523163e-03 -3.360585e-03 6.027503e-03)
39            	(3.181475e-01 -2.124129e+02 9.423432e+02)	(3.147728e-01 -2.124095e+02 9.423373e+02)	(3.374699e-03 -3.387894e-03 5.973957e-03)
40            	(3.173008e-01 -2.124134e+02 9.423330e+02)	(3.140364e-01 -2.124100e+02 9.423271e+02)	(3.264369e-03 -3.403517e-03 5.892401e-03)
41            	(3.344769e-01 -2.124086e+02 9.423236e+02)	(3.312887e-01 -2.124052e+02 9.423179e+02)	(3.188165e-03 -3.408172e-03 5.759922e-03)
42            	(3.449105e-01 -2.124054e+02 9.423207e+02)	(3.417633e-01 -2.124020e+02 9.423150e+02)	(3.147205e-03 -3.396994e-03 5.634000e-03)
43            	(3.573511e-01 -2.124014e+02 9.423203e+02)	(3.542254e-01 -2.123980e+02 9.423148e+02)	(3.125765e-03 -3.373162e-03 5.508212e-03)
44            	(3.698155e-01 -2.123974e+02 9.423221e+02)	(3.667005e-01 -2.123940e+02 9.423167e+02)	(3.114972e-03 -3.341470e-03 5.392865e-03)
45            	(3.801823e-01 -2.123941e+02 9.423253e+02)	(3.770727e-01 -2.123908e+02 9.423200e+02)	(3.109614e-03 -3.305717e-03 5.290937e-03)
46            	(3.880862e-01 -2.123918e+02 9.423300e+02)	(3.849801e-01 -2.123885e+02 9.423248e+02)	(3.106084e-03 -3.268068e-03 5.207270e-03)
47            	(3.889923e-01 -2.123932e+02 9.423409e+02)	(3.858823e-01 -2.123899e+02 9.423358e+02)	(3.109990e-03 -3.229906e-03 5.150543e-03)
48            	(3.799246e-01 -2.123983e+02 9.423547e+02)	(3.768199e-01 -2.123951e+02 9.423496e+02)	(3.104707e-03 -3.189330e-03 5.113878e-03)
49            	(3.673615e-01 -2.124038e+02 9.423622e+02)	(3.642625e-01 -2.124006e+02 9.423571e+02)	(3.098903e-03 -3.146631e-03 5.087393e-03)
50            	(3.581815e-01 -2.124075e+02 9.423636e+02)	(3.550688e-01 -2.124044e+02 9.423585e+02)	(3.112685e-03 -3.100696e-03 5.065992e-03)
51            	(3.485511e-01 -2.124113e+02 9.423632e+02)	(3.454056e-01 -2.124082e+02 9.423582e+02)	(3.145508e-03 -3.050010e-03 5.042585e-03)
52            	(3.401744e-01 -2.124144e+02 9.423615e+02)	(3.369850e-01 -2.124114e+02 9.423564e+02)	(3.189443e-03 -2.995587e-03 5.013452e-03)
53            	(3.338404e-01 -2.124167e+02 9.423587e+02)	(3.306004e-01 -2.124137e+02 9.423537e+02)	(3.239975e-03 -2.938663e-03 4.976523e-03)
54            	(3.296022e-01 -2.124182e+02 9.423554e+02)	(3.263097e-01 -2.124153e+02 9.423504e+02)	(3.292527e-03 -2.880669e-03 4.933659e-03)
55            	(3.274644e-01 -2.124189e+02 9.423518e+02)	(3.241264e-01 -2.124161e+02 9.423469e+02)	(3.337923e-03 -2.824668e-03 4.889851e-03)
56            	(3.236368e-01 -2.124204e+02 9.423502e+02)	(3.202711e-01 -2.124177e+02 9.423453e+02)	(3.365750e-03 -2.772297e-03 4.847264e-03)
57            	(3.259447e-01 -2.124197e+02 9.423469e+02)	(3.225597e-01 -2.124169e+02 9.423421e+02)	(3.384985e-03 -2.726050e-03 4.806208e-03)
58            	(3.298928e-01 -2.124183e+02 9.423443e+02)	(3.264944e-01 -2.124157e+02 9.423395e+02)	(3.398350e-03 -2.684917e-03 4.768645e-03)
59            	(3.350267e-01 -2.124166e+02 9.423424e+02)	(3.316198e-01 -2.124139e+02 9.423377e+02)	(3.406928e-03 -2.648531e-03 4.737012e-03)
60            	(3.407855e-01 -2.124146e+02 9.423415e+02)	(3.373734e-01 -2.124120e+02 9.423368e+02)	(3.412083e-03 -2.616594e-03 4.714481e-03)
61            	(3.465349e-01 -2.124126e+02 9.423413e+02)	(3.431199e-01 -2.124100e+02 9.423366e+02)	(3.415055e-03 -2.587492e-03 4.703254e-03)
62            	(3.517472e-01 -2.124107e+02 9.423417e+02)	(3.483305e-01 -2.124081e+02 9.423370e+02)	(3.416701e-03 -2.559655e-03 4.705673e-03)
63            	(3.560397e-01 -2.124091e+02 9.423424e+02)	(3.526227e-01 -2.124065e+02 9.423377e+02)	(3.416975e-03 -2.531984e-03 4.723079e-03)
64            	(3.591714e-01 -2.124078e+02 9.423433e+02)	(3.557565e-01 -2.124053e+02 9.423385e+02)	(3.414913e-03 -2.505052e-03 4.755262e-03)
65            	(3.610572e-01 -2.124070e+02 9.423440e+02)	(3.576497e-01 -2.124045e+02 9.423392e+02)	(3.407472e-03 -2.479686e-03 4.800614e-03)
66            	(3.617501e-01 -2.124066e+02 9.423443e+02)	(3.583579e-01 -2.124041e+02 9.423394e+02)	(3.392152e-03 -2.456452e-03 4.855874e-03)
67            	(3.614024e-01 -2.124065e+02 9.423441e+02)	(3.580329e-01 -2.124041e+02 9.423392e+02)	(3.369452e-03 -2.435133e-03 4.916706e-03)
68            	(3.602275e-01 -2.124068e+02 9.423432e+02)	(3.568835e-01 -2.124043e+02 9.423382e+02)	(3.343986e-03 -2.414760e-03 4.978230e-03)
69            	(3.584718e-01 -2.124072e+02 9.423415e+02)	(3.551527e-01 -2.124048e+02 9.423365e+02)	(3.319142e-03 -2.394222e-03 5.037602e-03)
70            	(3.564025e-01 -2.124078e+02 9.423390e+02)	(3.531070e-01 -2.124054e+02 9.423339e+02)	(3.295486e-03 -2.373571e-03 5.094621e-03)
71            	(3.542999e-01 -2.124084e+02 9.423355e+02)	(3.510274e-01 -2.124060e+02 9.423304e+02)	(3.272470e-03 -2.353809e-03 5.148855e-03)
72            	(3.524338e-01 -2.124090e+02 9.423312e+02)	(3.491832e-01 -2.124066e+02 9.423260e+02)	(3.250520e-03 -2.335809e-03 5.198545e-03)
73            	(3.510613e-01 -2.124094e+02 9.423261e+02)	(3.478303e-01 -2.124071e+02 9.423209e+02)	(3.230909e-03 -2.318804e-03 5.243055e-03)
74            	(3.503719e-01 -2.124096e+02 9.423204e+02)	(3.471579e-01 -2.124073e+02 9.423151e+02)	(3.213965e-03 -2.301907e-03 5.281316e-03)
75            	(3.514259e-01 -2.124093e+02 9.423141e+02)	(3.482254e-01 -2.124070e+02 9.423088e+02)	(3.200456e-03 -2.284496e-03 5.311756e-03)
76            	(3.530862e-01 -2.124087e+02 9.423077e+02)	(3.498972e-01 -2.124064e+02 9.423023e+02)	(3.188948e-03 -2.266200e-03 5.332513e-03)
77            	(3.559046e-01 -2.124077e+02 9.423012e+02)	(3.527257e-01 -2.124055e+02 9.422959e+02)	(3.178928e-03 -2.246048e-03 5.342926e-03)
78            	(3.599895e-01 -2.124063e+02 9.422951e+02)	(3.568192e-01 -2.124041e+02 9.422898e+02)	(3.170313e-03 -2.224149e-03 5.342710e-03)
79            	(3.650226e-01 -2.124045e+02 9.422895e+02)	(3.618598e-01 -2.124023e+02 9.422842e+02)	(3.162770e-03 -2.200207e-03 5.334695e-03)
80            	(3.708710e-01 -2.124025e+02 9.422845e+02)	(3.677153e-01 -2.124003e+02 9.422792e+02)	(3.155712e-03 -2.174740e-03 5.323462e-03)
81            	(3.772931e-01 -2.124002e+02 9.422803e+02)	(3.741448e-01 -2.123981e+02 9.422750e+02)	(3.148297e-03 -2.148313e-03 5.314455e-03)
82            	(3.841062e-01 -2.123978e+02 9.422768e+02)	(3.809666e-01 -2.123957e+02 9.422715e+02)	(3.139566e-03 -2.121432e-03 5.312592e-03)
83            	(3.912007e-01 -2.123954e+02 9.422741e+02)	(3.880718e-01 -2.123933e+02 9.422687e+02)	(3.128959e-03 -2.093959e-03 5.320940e-03)
84            	(3.984026e-01 -2.123929e+02 9.422719e+02)	(3.952868e-01 -2.123909e+02 9.422666e+02)	(3.115818e-03 -2.066584e-03 5.340770e-03)
85            	(4.055104e-01 -2.123905e+02 9.422702e+02)	(4.024099e-01 -2.123885e+02 9.422649e+02)	(3.100529e-03 -2.038606e-03 5.371110e-03)
86            	(4.122906e-01 -2.123883e+02 9.422688e+02)	(4.092066e-01 -2.123863e+02 9.422634e+02)	(3.084079e-03 -2.009361e-03 5.408211e-03)
87            	(4.185730e-01 -2.123862e+02 9.422676e+02)	(4.155044e-01 -2.123842e+02 9.422621e+02)	(3.068579e-03 -1.977377e-03 5.446478e-03)
88            	(4.242620e-01 -2.123844e+02 9.422662e+02)	(4.212020e-01 -2.123824e+02 9.422608e+02)	(3.060028e-03 -1.941995e-03 5.477533e-03)
89            	(4.293352e-01 -2.123828e+02 9.422647e+02)	(4.262724e-01 -2.123809e+02 9.422592e+02)	(3.062845e-03 -1.902798e-03 5.496236e-03)
90            	(4.338465e-01 -2.123814e+02 9.422629e+02)	(4.307679e-01 -2.123795e+02 9.422574e+02)	(3.078554e-03 -1.860397e-03 5.501311e-03)
91            	(4.379098e-01 -2.123801e+02 9.422608e+02)	(4.348031e-01 -2.123783e+02 9.422554e+02)	(3.106749e-03 -1.815051e-03 5.493116e-03)
92            	(4.416645e-01 -2.123789e+02 9.422584e+02)	(4.385186e-01 -2.123772e+02 9.422530e+02)	(3.145858e-03 -1.767513e-03 5.472514e-03)
93            	(4.452779e-01 -2.123778e+02 9.422557e+02)	(4.420851e-01 -2.123761e+02 9.422503e+02)	(3.192811e-03 -1.719053e-03 5.441093e-03)
94            	(4.489164e-01 -2.123767e+02 9.422526e+02)	(4.456729e-01 -2.123750e+02 9.422472e+02)	(3.243551e-03 -1.671102e-03 5.401268e-03)
95            	(4.527223e-01 -2.123755e+02 9.422491e+02)	(4.494297e-01 -2.123739e+02 9.422438e+02)	(3.292629e-03 -1.626363e-03 5.355339e-03)
96            	(4.568497e-01 -2.123743e+02 9.422453e+02)	(4.535117e-01 -2.123727e+02 9.422400e+02)	(3.338085e-03 -1.585312e-03 5.304627e-03)
97            	(4.612807e-01 -2.123729e+02 9.422410e+02)	(4.579027e-01 -2.123713e+02 9.422357e+02)	(3.377999e-03 -1.548992e-03 5.250193e-03)
98            	(4.660736e-01 -2.123714e+02 9.422362e+02)	(4.626624e-01 -2.123699e+02 9.422310e+02)	(3.411253e-03 -1.517955e-03 5.193082e-03)
99            	(4.711971e-01 -2.123698e+02 9.422310e+02)	(4.677601e-01 -2.123683e+02 9.422258e+02)	(3.437075e-03 -1.492196e-03 5.134172e-03)
100           	(4.767378e-01 -2.123681e+02 9.422252e+02)	(4.732816e-01 -2.123666e+02 9.422201e+02)	(3.456266e-03 -1.470574e-03 5.073250e-03)
101           	(4.827708e-01 -2.123662e+02 9.422188e+02)	(4.793003e-01 -2.123647e+02 9.422138e+02)	(3.470473e-03 -1.451732e-03 5.009882e-03)
102           	(4.894125e-01 -2.123641e+02 9.422117e+02)	(4.859307e-01 -2.123627e+02 9.422068e+02)	(3.481783e-03 -1.434017e-03 4.942344e-03)
103           	(4.968761e-01 -2.123618e+02 9.422039e+02)	(4.933833e-01 -2.123604e+02 9.421991e+02)	(3.492777e-03 -1.415698e-03 4.868196e-03)
104           	(5.054218e-01 -2.123591e+02 9.421954e+02)	(5.019156e-01 -2.123577e+02 9.421906e+02)	(3.506159e-03 -1.394969e-03 4.784844e-03)
105           	(5.152619e-01 -2.123559e+02 9.421859e+02)	(5.117372e-01 -2.123545e+02 9.421812e+02)	(3.524684e-03 -1.370165e-03 4.688673e-03)
106           	(5.271406e-01 -2.123521e+02 9.421756e+02)	(5.235886e-01 -2.123507e+02 9.421710e+02)	(3.552022e-03 -1.339783e-03 4.576014e-03)
107           	(5.413859e-01 -2.123474e+02 9.421644e+02)	(5.377946e-01 -2.123461e+02 9.421600e+02)	(3.591270e-03 -1.302579e-03 4.443746e-03)
108           	(5.582303e-01 -2.123419e+02 9.421526e+02)	(5.545852e-01 -2.123406e+02 9.421483e+02)	(3.645061e-03 -1.258069e-03 4.290028e-03)
109           	(5.798161e-01 -2.123356e+02 9.421415e+02)	(5.761011e-01 -2.123344e+02 9.421374e+02)	(3.714989e-03 -1.202654e-03 4.099655e-03)
110           	(6.021684e-01 -2.123289e+02 9.421313e+02)	(5.983678e-01 -2.123278e+02 9.421274e+02)	(3.800673e-03 -1.140772e-03 3.887722e-03)
111           	(6.233223e-01 -2.123221e+02 9.421209e+02)	(6.194214e-01 -2.123211e+02 9.421172e+02)	(3.900857e-03 -1.079693e-03 3.673332e-03)
112           	(6.457015e-01 -2.123154e+02 9.421118e+02)	(6.416867e-01 -2.123144e+02 9.421084e+02)	(4.014794e-03 -1.016058e-03 3.449227e-03)
113           	(6.669091e-01 -2.123092e+02 9.421036e+02)	(6.627704e-01 -2.123082e+02 9.421004e+02)	(4.138733e-03 -9.521269e-04 3.218815e-03)
114           	(6.846277e-01 -2.123036e+02 9.420942e+02)	(6.803617e-01 -2.123027e+02 9.420912e+02)	(4.265994e-03 -8.913865e-04 2.991730e-03)
115           	(7.000644e-01 -2.122989e+02 9.420857e+02)	(6.956717e-01 -2.122980e+02 9.420829e+02)	(4.392654e-03 -8.346606e-04 2.771205e-03)
116           	(7.123997e-01 -2.122954e+02 9.420783e+02)	(7.078857e-01 -2.122946e+02 9.420757e+02)	(4.513953e-03 -7.829168e-04 2.559712e-03)
117           	(7.207723e-01 -2.122934e+02 9.420722e+02)	(7.161477e-01 -2.122927e+02 9.420698e+02)	(4.624555e-03 -7.372318e-04 2.358586e-03)
118           	(7.244174e-01 -2.122933e+02 9.420674e+02)	(7.196982e-01 -2.122926e+02 9.420652e+02)	(4.719233e-03 -6.984298e-04 2.169239e-03)
119           	(7.258295e-01 -2.122936e+02 9.420607e+02)	(7.210243e-01 -2.122929e+02 9.420587e+02)	(4.805113e-03 -6.725492e-04 1.996413e-03)
120           	(7.189101e-01 -2.122974e+02 9.420598e+02)	(7.140435e-01 -2.122967e+02 9.420579e+02)	(4.866532e-03 -6.545208e-04 1.841911e-03)
121           	(7.087578e-01 -2.123023e+02 9.420603e+02)	(7.038529e-01 -2.123017e+02 9.420586e+02)	(4.904917e-03 -6.428962e-04 1.702756e-03)
122           	(6.933601e-01 -2.123099e+02 9.420618e+02)	(6.884501e-01 -2.123093e+02 9.420602e+02)	(4.910061e-03 -6.380941e-04 1.575234e-03)
123           	(6.710470e-01 -2.123184e+02 9.420617e+02)	(6.661561e-01 -2.123177e+02 9.420602e+02)	(4.890906e-03 -6.426629e-04 1.465906e-03)
124           	(6.476672e-01 -2.123272e+02 9.420624e+02)	(6.428219e-01 -2.123265e+02 9.420610e+02)	(4.845285e-03 -6.533841e-04 1.374787e-03)
125           	(6.240332e-01 -2.123361e+02 9.420638e+02)	(6.192503e-01 -2.123355e+02 9.420625e+02)	(4.782846e-03 -6.723394e-04 1.303200e-03)
126           	(5.959675e-01 -2.123475e+02 9.420663e+02)	(5.912654e-01 -2.123468e+02 9.420650e+02)	(4.702128e-03 -7.017911e-04 1.252912e-03)
127           	(5.747575e-01 -2.123554e+02 9.420681e+02)	(5.701387e-01 -2.123546e+02 9.420669e+02)	(4.618809e-03 -7.357287e-04 1.220712e-03)
128           	(5.545948e-01 -2.123627e+02 9.420702e+02)	(5.500630e-01 -2.123620e+02 9.420690e+02)	(4.531863e-03 -7.705433e-04 1.204222e-03)
129           	(5.355285e-01 -2.123696e+02 9.420727e+02)	(5.310829e-01 -2.123688e+02 9.420715e+02)	(4.445616e-03 -8.071773e-04 1.203754e-03)
130           	(5.176803e-01 -2.123758e+02 9.420754e+02)	(5.133178e-01 -2.123750e+02 9.420742e+02)	(4.362509e-03 -8.446602e-04 1.217674e-03)
131           	(5.011673e-01 -2.123815e+02 9.420784e+02)	(4.968831e-01 -2.123806e+02 9.420771e+02)	(4.284163e-03 -8.820007e-04 1.244676e-03)
132           	(4.861224e-01 -2.123865e+02 9.420816e+02)	(4.819110e-01 -2.123856e+02 9.420803e+02)	(4.211439e-03 -9.184165e-04 1.283126e-03)
133           	(4.725968e-01 -2.123909e+02 9.420850e+02)	(4.684527e-01 -2.123899e+02 9.420836e+02)	(4.144113e-03 -9.532534e-04 1.331037e-03)
134           	(4.606599e-01 -2.123946e+02 9.420885e+02)	(4.565783e-01 -2.123936e+02 9.420871e+02)	(4.081636e-03 -9.859512e-04 1.386664e-03)
135           	(4.503001e-01 -2.123976e+02 9.420921e+02)	(4.462767e-01 -2.123966e+02 9.420907e+02)	(4.023326e-03 -1.016311e-03 1.447774e-03)
136           	(4.414780e-01 -2.124001e+02 9.420959e+02)	(4.375093e-01 -2.123990e+02 9.420944e+02)	(3.968738e-03 -1.044288e-03 1.512097e-03)
137           	(4.339886e-01 -2.124019e+02 9.420997e+02)	(4.300712e-01 -2.124009e+02 9.420981e+02)	(3.917415e-03 -1.069875e-03 1.578292e-03)
138           	(4.274919e-01 -2.124034e+02 9.421035e+02)	(4.236231e-01 -2.124023e+02 9.421018e+02)	(3.868771e-03 -1.093402e-03 1.645520e-03)
139           	(4.218230e-01 -2.124046e+02 9.421071e+02)	(4.180010e-01 -2.124035e+02 9.421054e+02)	(3.822064e-03 -1.115056e-03 1.713079e-03)
140           	(4.170954e-01 -2.124054e+02 9.421107e+02)	(4.133181e-01 -2.124043e+02 9.421089e+02)	(3.777356e-03 -1.134603e-03 1.780366e-03)
141           	(4.129139e-01 -2.124060e+02 9.421142e+02)	(4.091796e-01 -2.124048e+02 9.421123e+02)	(3.734300e-03 -1.152129e-03 1.847338e-03)
142           	(4.092513e-01 -2.124063e+02 9.421175e+02)	(4.055582e-01 -2.124052e+02 9.421155e+02)	(3.693109e-03 -1.167213e-03 1.913753e-03)
143           	(4.064655e-01 -2.124064e+02 9.421206e+02)	(4.028110e-01 -2.124052e+02 9.421186e+02)	(3.654552e-03 -1.179304e-03 1.979405e-03)
144           	(4.041245e-01 -2.124062e+02 9.421235e+02)	(4.005054e-01 -2.124050e+02 9.421214e+02)	(3.619105e-03 -1.188097e-03 2.044428e-03)
145           	(4.022574e-01 -2.124059e+02 9.421261e+02)	(3.986703e-01 -2.124047e+02 9.421240e+02)	(3.587146e-03 -1.193462e-03 2.108293e-03)
146           	(4.010488e-01 -2.124052e+02 9.421284e+02)	(3.974897e-01 -2.124040e+02 9.421262e+02)	(3.559144e-03 -1.195200e-03 2.170187e-03)
147           	(4.004000e-01 -2.124043e+02 9.421302e+02)	(3.968648e-01 -2.124031e+02 9.421280e+02)	(3.535212e-03 -1.193509e-03 2.229213e-03)
148           	(4.004577e-01 -2.124030e+02 9.421316e+02)	(3.969420e-01 -2.124018e+02 9.421293e+02)	(3.515659e-03 -1.188554e-03 2.284274e-03)
149           	(4.013675e-01 -2.124013e+02 9.421323e+02)	(3.978667e-01 -2.124002e+02 9.421300e+02)	(3.500781e-03 -1.180697e-03 2.334105e-03)
150           	(4.033504e-01 -2.123992e+02 9.421324e+02)	(3.998595e-01 -2.123981e+02 9.421301e+02)	(3.490942e-03 -1.170061e-03 2.377248e-03)
151           	(4.066078e-01 -2.123966e+02 9.421319e+02)	(4.031214e-01 -2.123954e+02 9.421295e+02)	(3.486453e-03 -1.156839e-03 2.412218e-03)
152           	(4.162242e-01 -2.123912e+02 9.421269e+02)	(4.127284e-01 -2.123901e+02 9.421244e+02)	(3.495856e-03 -1.142540e-03 2.436587e-03)
153           	(4.223177e-01 -2.123874e+02 9.421254e+02)	(4.188103e-01 -2.123863e+02 9.421229e+02)	(3.507387e-03 -1.124507e-03 2.451387e-03)
154           	(4.295734e-01 -2.123833e+02 9.421235e+02)	(4.260523e-01 -2.123822e+02 9.421210e+02)	(3.521064e-03 -1.103450e-03 2.455523e-03)
155           	(4.374562e-01 -2.123791e+02 9.421213e+02)	(4.339190e-01 -2.123780e+02 9.421188e+02)	(3.537242e-03 -1.080682e-03 2.450064e-03)
156           	(4.482128e-01 -2.123736e+02 9.421153e+02)	(4.446518e-01 -2.123726e+02 9.421129e+02)	(3.561046e-03 -1.059420e-03 2.436202e-03)
157           	(4.549164e-01 -2.123701e+02 9.421132e+02)	(4.513346e-01 -2.123690e+02 9.421108e+02)	(3.581746e-03 -1.036925e-03 2.416069e-03)
158           	(4.615092e-01 -2.123668e+02 9.421113e+02)	(4.579090e-01 -2.123657e+02 9.421089e+02)	(3.600194e-03 -1.013707e-03 2.390216e-03)
159           	(4.677397e-01 -2.123638e+02 9.421098e+02)	(4.641224e-01 -2.123628e+02 9.421074e+02)	(3.617331e-03 -9.908405e-04 2.360711e-03)
160           	(4.736821e-01 -2.123611e+02 9.421087e+02)	(4.700486e-01 -2.123601e+02 9.421064e+02)	(3.633453e-03 -9.686213e-04 2.328907e-03)
161           	(4.790528e-01 -2.123588e+02 9.421082e+02)	(4.754044e-01 -2.123578e+02 9.421059e+02)	(3.648363e-03 -9.471617e-04 2.296341e-03)
162           	(4.835449e-01 -2.123569e+02 9.421082e+02)	(4.798835e-01 -2.123560e+02 9.421059e+02)	(3.661349e-03 -9.265950e-04 2.264593e-03)
163           	(4.867576e-01 -2.123556e+02 9.421086e+02)	(4.830861e-01 -2.123547e+02 9.421064e+02)	(3.671450e-03 -9.071010e-04 2.235192e-03)
164           	(4.888550e-01 -2.123548e+02 9.421096e+02)	(4.851768e-01 -2.123539e+02 9.421074e+02)	(3.678289e-03 -8.885316e-04 2.209452e-03)
165           	(4.897844e-01 -2.123544e+02 9.421111e+02)	(4.861028e-01 -2.123535e+02 9.421089e+02)	(3.681686e-03 -8.708183e-04 2.188433e-03)
166           	(4.894901e-01 -2.123544e+02 9.421128e+02)	(4.858086e-01 -2.123536e+02 9.421107e+02)	(3.681493e-03 -8.539551e-04 2.172682e-03)
167           	(4.843975e-01 -2.123566e+02 9.421178e+02)	(4.807262e-01 -2.123557e+02 9.421157e+02)	(3.671328e-03 -8.368431e-04 2.163146e-03)
168           	(4.825778e-01 -2.123572e+02 9.421198e+02)	(4.789168e-01 -2.123564e+02 9.421176e+02)	(3.661043e-03 -8.213431e-04 2.157594e-03)
169           	(4.801946e-01 -2.123581e+02 9.421217e+02)	(4.765438e-01 -2.123573e+02 9.421196e+02)	(3.650749e-03 -8.074698e-04 2.156741e-03)
170           	(4.771552e-01 -2.123591e+02 9.421237e+02)	(4.735157e-01 -2.123583e+02 9.421216e+02)	(3.639487e-03 -7.949193e-04 2.159755e-03)
171           	(4.721732e-01 -2.123608e+02 9.421258e+02)	(4.685481e-01 -2.123600e+02 9.421236e+02)	(3.625072e-03 -7.840499e-04 2.166975e-03)
172           	(4.671484e-01 -2.123625e+02 9.421279e+02)	(4.635398e-01 -2.123617e+02 9.421257e+02)	(3.608649e-03 -7.745507e-04 2.177457e-03)
173           	(4.623844e-01 -2.123641e+02 9.421300e+02)	(4.587928e-01 -2.123633e+02 9.421278e+02)	(3.591627e-03 -7.662574e-04 2.190800e-03)
174           	(4.589964e-01 -2.123652e+02 9.421319e+02)	(4.554202e-01 -2.123644e+02 9.421297e+02)	(3.576231e-03 -7.585894e-04 2.206053e-03)
175           	(4.531974e-01 -2.123672e+02 9.421350e+02)	(4.496395e-01 -2.123665e+02 9.421327e+02)	(3.557928e-03 -7.508572e-04 2.224023e-03)
176           	(4.501031e-01 -2.123683e+02 9.421367e+02)	(4.465607e-01 -2.123676e+02 9.421344e+02)	(3.542422e-03 -7.445666e-04 2.243133e-03)
177           	(4.467909e-01 -2.123695e+02 9.421383e+02)	(4.432617e-01 -2.123687e+02 9.421360e+02)	(3.529216e-03 -7.400116e-04 2.264152e-03)
178           	(4.429269e-01 -2.123709e+02 9.421398e+02)	(4.394102e-01 -2.123701e+02 9.421375e+02)	(3.516755e-03 -7.372292e-04 2.287020e-03)
179           	(4.388441e-01 -2.123723e+02 9.421414e+02)	(4.353395e-01 -2.123716e+02 9.421391e+02)	(3.504605e-03 -7.361112e-04 2.311896e-03)
180           	(4.346118e-01 -2.123739e+02 9.421430e+02)	(4.311192e-01 -2.123731e+02 9.421406e+02)	(3.492622e-03 -7.366060e-04 2.338938e-03)
181           	(4.301898e-01 -2.123755e+02 9.421447e+02)	(4.267092e-01 -2.123747e+02 9.421423e+02)	(3.480586e-03 -7.386670e-04 2.368366e-03)
182           	(4.258007e-01 -2.123771e+02 9.421465e+02)	(4.223322e-01 -2.123763e+02 9.421441e+02)	(3.468516e-03 -7.421447e-04 2.400178e-03)
183           	(4.214956e-01 -2.123786e+02 9.421485e+02)	(4.180392e-01 -2.123779e+02 9.421461e+02)	(3.456405e-03 -7.469293e-04 2.434296e-03)
184           	(4.173046e-01 -2.123802e+02 9.421505e+02)	(4.138604e-01 -2.123794e+02 9.421481e+02)	(3.444223e-03 -7.528525e-04 2.470461e-03)
185           	(4.132355e-01 -2.123816e+02 9.421526e+02)	(4.098036e-01 -2.123809e+02 9.421501e+02)	(3.431910e-03 -7.596743e-04 2.508302e-03)
186           	(4.078612e-01 -2.123838e+02 9.421568e+02)	(4.044449e-01 -2.123830e+02 9.421542e+02)	(3.416280e-03 -7.656906e-04 2.547606e-03)
187           	(4.051398e-01 -2.123847e+02 9.421587e+02)	(4.017370e-01 -2.123839e+02 9.421561e+02)	(3.402730e-03 -7.719659e-04 2.586959e-03)
188           	(4.024764e-01 -2.123856e+02 9.421605e+02)	(3.990855e-01 -2.123848e+02 9.421579e+02)	(3.390889e-03 -7.784818e-04 2.626532e-03)
189           	(3.999819e-01 -2.123863e+02 9.421621e+02)	(3.966022e-01 -2.123856e+02 9.421595e+02)	(3.379707e-03 -7.847476e-04 2.665730e-03)
190           	(3.976161e-01 -2.123870e+02 9.421636e+02)	(3.942472e-01 -2.123862e+02 9.421609e+02)	(3.368898e-03 -7.906649e-04 2.704246e-03)
191           	(3.954386e-01 -2.123875e+02 9.421650e+02)	(3.920802e-01 -2.123867e+02 9.421623e+02)	(3.358317e-03 -7.960903e-04 2.741883e-03)
192           	(3.935434e-01 -2.123879e+02 9.421664e+02)	(3.901955e-01 -2.123871e+02 9.421636e+02)	(3.347957e-03 -8.009012e-04 2.778542e-03)
193           	(3.919825e-01 -2.123882e+02 9.421677e+02)	(3.886446e-01 -2.123874e+02 9.421649e+02)	(3.337888e-03 -8.049012e-04 2.814118e-03)
194           	(3.908458e-01 -2.123882e+02 9.421690e+02)	(3.875175e-01 -2.123874e+02 9.421661e+02)	(3.328280e-03 -8.080105e-04 2.848800e-03)
195           	(3.900145e-01 -2.123881e+02 9.421703e+02)	(3.866953e-01 -2.123873e+02 9.421674e+02)	(3.319214e-03 -8.102190e-04 2.882831e-03)
196           	(3.893805e-01 -2.123879e+02 9.421716e+02)	(3.860699e-01 -2.123870e+02 9.421687e+02)	(3.310646e-03 -8.115535e-04 2.916609e-03)
197           	(3.863011e-01 -2.123888e+02 9.421756e+02)	(3.830030e-01 -2.123880e+02 9.421726e+02)	(3.298084e-03 -8.108900e-04 2.950864e-03)
198           	(3.859884e-01 -2.123884e+02 9.421770e+02)	(3.827008e-01 -2.123876e+02 9.421740e+02)	(3.287632e-03 -8.098618e-04 2.985565e-03)
199           	(3.856418e-01 -2.123879e+02 9.421784e+02)	(3.823623e-01 -2.123871e+02 9.421754e+02)	(3.279454e-03 -8.085460e-04 3.021331e-03)
200           	(3.853125e-01 -2.123873e+02 9.421800e+02)	(3.820399e-01 -2.123865e+02 9.421770e+02)	(3.272527e-03 -8.065119e-04 3.058396e-03)
201           	(3.849552e-01 -2.123867e+02 9.421817e+02)	(3.816885e-01 -2.123859e+02 9.421786e+02)	(3.266679e-03 -8.036201e-04 3.096974e-03)
202           	(3.846013e-01 -2.123860e+02 9.421835e+02)	(3.813395e-01 -2.123852e+02 9.421804e+02)	(3.261831e-03 -7.998601e-04 3.137085e-03)
203           	(3.842931e-01 -2.123853e+02 9.421854e+02)	(3.810351e-01 -2.123845e+02 9.421822e+02)	(3.257960e-03 -7.952524e-04 3.178621e-03)
204           	(3.840625e-01 -2.123845e+02 9.421873e+02)	(3.808074e-01 -2.123837e+02 9.421841e+02)	(3.255048e-03 -7.899351e-04 3.221322e-03)
205           	(3.838897e-01 -2.123838e+02 9.421894e+02)	(3.806367e-01 -2.123830e+02 9.421861e+02)	(3.252953e-03 -7.839316e-04 3.264885e-03)
206           	(3.838711e-01 -2.123830e+02 9.421914e+02)	(3.806195e-01 -2.123822e+02 9.421881e+02)	(3.251564e-03 -7.773490e-04 3.308974e-03)
207           	(3.840048e-01 -2.123822e+02 9.421935e+02)	(3.807540e-01 -2.123814e+02 9.421902e+02)	(3.250825e-03 -7.704209e-04 3.353246e-03)
208           	(3.829340e-01 -2.123822e+02 9.421981e+02)	(3.796858e-01 -2.123814e+02 9.421947e+02)	(3.248229e-03 -7.625676e-04 3.397949e-03)
209           	(3.834585e-01 -2.123813e+02 9.422001e+02)	(3.802113e-01 -2.123806e+02 9.421966e+02)	(3.247184e-03 -7.550532e-04 3.441727e-03)
210           	(3.844438e-01 -2.123804e+02 9.422021e+02)	(3.811961e-01 -2.123796e+02 9.421986e+02)	(3.247728e-03 -7.476475e-04 3.484577e-03)
211           	(3.841501e-01 -2.123802e+02 9.422057e+02)	(3.809032e-01 -2.123794e+02 9.422022e+02)	(3.246990e-03 -7.400389e-04 3.526718e-03)