# Moment      
# CofR        : (0.000000e+00 0.000000e+00 0.000000e+00)
#
# Time        	(total_x total_y total_z)	(pressure_x pressure_y pressure_z)	(viscous_x viscous_y viscous_z)
1             	(1.712542e+02 -5.960825e-01 9.974356e+00)	(1.712546e+02 -5.977851e-01 9.982232e+00)	(-4.803355e-04 1.702600e-03 -7.876179e-03)
2             	(1.713302e+02 -7.272168e-01 1.099104e+01)	(1.713305e+02 -7.287761e-01 1.099448e+01)	(-2.756197e-04 1.559289e-03 -3.444629e-03)
3             	(1.715178e+02 -9.876056e-01 1.307203e+01)	(1.715179e+02 -9.889492e-01 1.307116e+01)	(-8.098250e-05 1.343569e-03 8.693547e-04)
4             	(1.717706e+02 -1.373686e+00 1.600354e+01)	(1.717702e+02 -1.374734e+00 1.600175e+01)	(4.121379e-04 1.048014e-03 1.792116e-03)
5             	(1.719679e+02 -1.718339e+00 1.857789e+01)	(1.719673e+02 -1.718894e+00 1.857646e+01)	(5.354229e-04 5.553693e-04 1.424970e-03)
6             	(1.720183e+02 -1.936035e+00 2.009615e+01)	(1.720175e+02 -1.936117e+00 2.009581e+01)	(7.777312e-04 8.134269e-05 3.416679e-04)
7             	(1.719990e+02 -1.947832e+00 2.017472e+01)	(1.719984e+02 -1.947566e+00 2.017578e+01)	(6.388091e-04 -2.660635e-04 -1.065541e-03)
8             	(1.719236e+02 -1.844473e+00 1.944235e+01)	(1.719232e+02 -1.844001e+00 1.944492e+01)	(4.727650e-04 -4.719933e-04 -2.575340e-03)
9             	(1.717870e+02 -1.666386e+00 1.817928e+01)	(1.717867e+02 -1.665922e+00 1.818284e+01)	(2.859184e-04 -4.643170e-04 -3.560056e-03)
10            	(1.716641e+02 -1.468079e+00 1.678653e+01)	(1.716640e+02 -1.467822e+00 1.679044e+01)	(9.524988e-05 -2.573218e-04 -3.910954e-03)
11            	(1.715690e+02 -1.310860e+00 1.567739e+01)	(1.715691e+02 -1.310898e+00 1.568096e+01)	(-4.963200e-05 3.749288e-05 -3.570744e-03)
12            	(1.715098e+02 -1.241310e+00 1.519028e+01)	(1.715100e+02 -1.241607e+00 1.519302e+01)	(-1.767876e-04 2.973429e-04 -2.740392e-03)
13            	(1.715029e+02 -1.242652e+00 1.519536e+01)	(1.715031e+02 -1.243119e+00 1.519709e+01)	(-1.403676e-04 4.671309e-04 -1.731605e-03)
14            	(1.715334e+02 -1.282214e+00 1.546307e+01)	(1.715335e+02 -1.282753e+00 1.546399e+01)	(-4.976887e-05 5.391199e-04 -9.183460e-04)
15            	(1.715975e+02 -1.346423e+00 1.589659e+01)	(1.715974e+02 -1.346938e+00 1.589708e+01)	(7.423662e-05 5.151645e-04 -4.876144e-04)
16            	(1.716655e+02 -1.415279e+00 1.636938e+01)	(1.716652e+02 -1.415696e+00 1.636980e+01)	(2.281092e-04 4.167469e-04 -4.136064e-04)
17            	(1.717225e+02 -1.468161e+00 1.673513e+01)	(1.717221e+02 -1.468455e+00 1.673575e+01)	(3.772826e-04 2.948337e-04 -6.178911e-04)
18            	(1.717543e+02 -1.489964e+00 1.688915e+01)	(1.717538e+02 -1.490157e+00 1.689009e+01)	(5.261070e-04 1.923155e-04 -9.454071e-04)
19            	(1.717670e+02 -1.492660e+00 1.691435e+01)	(1.717663e+02 -1.492781e+00 1.691564e+01)	(6.547400e-04 1.210861e-04 -1.289144e-03)
20            	(1.717615e+02 -1.482426e+00 1.685154e+01)	(1.717607e+02 -1.482514e+00 1.685307e+01)	(7.637445e-04 8.754774e-05 -1.533314e-03)
21            	(1.717406e+02 -1.464858e+00 1.673645e+01)	(1.717398e+02 -1.464943e+00 1.673808e+01)	(8.620251e-04 8.490774e-05 -1.636818e-03)
22            	(1.717082e+02 -1.445064e+00 1.660346e+01)	(1.717073e+02 -1.445170e+00 1.660507e+01)	(9.503803e-04 1.060295e-04 -1.603103e-03)
23            	(1.716777e+02 -1.427975e+00 1.648644e+01)	(1.716767e+02 -1.428113e+00 1.648791e+01)	(1.018945e-03 1.387561e-04 -1.471794e-03)
24            	(1.716559e+02 -1.415548e+00 1.639957e+01)	(1.716549e+02 -1.415723e+00 1.640086e+01)	(1.065141e-03 1.748244e-04 -1.290479e-03)
25            	(1.716471e+02 -1.410819e+00 1.636956e+01)	(1.716460e+02 -1.411021e+00 1.637066e+01)	(1.091639e-03 2.021853e-04 -1.102821e-03)
26            	(1.716456e+02 -1.411113e+00 1.637243e+01)	(1.716445e+02 -1.411334e+00 1.637338e+01)	(1.101859e-03 2.201835e-04 -9.437760e-04)
27            	(1.716467e+02 -1.414241e+00 1.639123e+01)	(1.716456e+02 -1.414472e+00 1.639206e+01)	(1.102883e-03 2.302610e-04 -8.364082e-04)
28            	(1.716519e+02 -1.418760e+00 1.641944e+01)	(1.716508e+02 -1.418994e+00 1.642022e+01)	(1.099374e-03 2.337762e-04 -7.812256e-04)
29            	(1.716602e+02 -1.423953e+00 1.645244e+01)	(1.716591e+02 -1.424184e+00 1.645321e+01)	(1.096164e-03 2.312686e-04 -7.694131e-04)
30            	(1.716694e+02 -1.428516e+00 1.648320e+01)	(1.716683e+02 -1.428740e+00 1.648399e+01)	(1.099249e-03 2.244165e-04 -7.829163e-04)
31            	(1.716751e+02 -1.431314e+00 1.650163e+01)	(1.716740e+02 -1.431530e+00 1.650244e+01)	(1.110593e-03 2.161732e-04 -8.040112e-04)
32            	(1.716772e+02 -1.432438e+00 1.650828e+01)	(1.716761e+02 -1.432646e+00 1.650910e+01)	(1.129311e-03 2.078926e-04 -8.195983e-04)
33            	(1.716763e+02 -1.432330e+00 1.650652e+01)	(1.716752e+02 -1.432530e+00 1.650734e+01)	(1.151896e-03 2.003471e-04 -8.226036e-04)
34            	(1.716735e+02 -1.431570e+00 1.650072e+01)	(1.716723e+02 -1.431764e+00 1.650153e+01)	(1.174118e-03 1.936799e-04 -8.110944e-04)
35            	(1.716707e+02 -1.430908e+00 1.649655e+01)	(1.716695e+02 -1.431094e+00 1.649733e+01)	(1.192735e-03 1.867757e-04 -7.867159e-04)
36            	(1.716660e+02 -1.429917e+00 1.649050e+01)	(1.716648e+02 -1.430099e+00 1.649126e+01)	(1.203680e-03 1.819832e-04 -7.564663e-04)
37            	(1.716617e+02 -1.429186e+00 1.648680e+01)	(1.716605e+02 -1.429364e+00 1.648752e+01)	(1.206028e-03 1.780670e-04 -7.232987e-04)
38            	(1.716596e+02 -1.429138e+00 1.648847e+01)	(1.716584e+02 -1.429312e+00 1.648916e+01)	(1.205594e-03 1.743288e-04 -6.916545e-04)
39            	(1.716578e+02 -1.429111e+00 1.649012e+01)	(1.716566e+02 -1.429283e+00 1.649078e+01)	(1.200187e-03 1.715023e-04 -6.656070e-04)
40            	(1.716563e+02 -1.429032e+00 1.649100e+01)	(1.716551e+02 -1.429202e+00 1.649165e+01)	(1.189806e-03 1.694837e-04 -6.462399e-04)
41            	(1.716547e+02 -1.428579e+00 1.648866e+01)	(1.716535e+02 -1.428748e+00 1.648929e+01)	(1.169231e-03 1.688850e-04 -6.334089e-04)
42            	(1.716541e+02 -1.428318e+00 1.648731e+01)	(1.716530e+02 -1.428487e+00 1.648794e+01)	(1.148817e-03 1.689146e-04 -6.265605e-04)
43            	(1.716539e+02 -1.428033e+00 1.648549e+01)	(1.716528e+02 -1.428202e+00 1.648611e+01)	(1.127305e-03 1.692898e-04 -6.232529e-04)
44            	(1.716541e+02 -1.427772e+00 1.648364e+01)	(1.716530e+02 -1.427942e+00 1.648426e+01)	(1.106359e-03 1.696407e-04 -6.218257e-04)
45            	(1.716544e+02 -1.427591e+00 1.648226e+01)	(1.716533e+02 -1.427761e+00 1.648289e+01)	(1.086548e-03 1.697500e-04 -6.213413e-04)
46            	(1.716549e+02 -1.427491e+00 1.648136e+01)	(1.716538e+02 -1.427660e+00 1.648198e+01)	(1.068648e-03 1.692587e-04 -6.213302e-04)
47            	(1.716564e+02 -1.427626e+00 1.648204e+01)	(1.716553e+02 -1.427794e+00 1.648266e+01)	(1.054215e-03 1.678005e-04 -6.227971e-04)
48            	(1.716588e+02 -1.427884e+00 1.648431e+01)	(1.716578e+02 -1.428049e+00 1.648493e+01)	(1.043077e-03 1.652155e-04 -6.225546e-04)
49            	(1.716603e+02 -1.428190e+00 1.648708e+01)	(1.716592e+02 -1.428353e+00 1.648771e+01)	(1.034068e-03 1.621110e-04 -6.220622e-04)
50            	(1.716604e+02 -1.428480e+00 1.648905e+01)	(1.716593e+02 -1.428640e+00 1.648968e+01)	(1.026280e-03 1.593965e-04 -6.249971e-04)
51            	(1.716602e+02 -1.428744e+00 1.649091e+01)	(1.716592e+02 -1.428902e+00 1.649155e+01)	(1.018784e-03 1.574733e-04 -6.314671e-04)
52            	(1.716600e+02 -1.428941e+00 1.649237e+01)	(1.716590e+02 -1.429097e+00 1.649301e+01)	(1.011094e-03 1.562419e-04 -6.402289e-04)
53            	(1.716596e+02 -1.429064e+00 1.649334e+01)	(1.716586e+02 -1.429220e+00 1.649399e+01)	(1.002701e-03 1.556833e-04 -6.503903e-04)
54            	(1.716591e+02 -1.429122e+00 1.649387e+01)	(1.716581e+02 -1.429278e+00 1.649453e+01)	(9.936867e-04 1.556618e-04 -6.610530e-04)
55            	(1.716586e+02 -1.429122e+00 1.649400e+01)	(1.716576e+02 -1.429277e+00 1.649467e+01)	(9.847554e-04 1.557465e-04 -6.704932e-04)
56            	(1.716586e+02 -1.429128e+00 1.649458e+01)	(1.716576e+02 -1.429284e+00 1.649525e+01)	(9.762570e-04 1.555129e-04 -6.767750e-04)
57            	(1.716581e+02 -1.429039e+00 1.649399e+01)	(1.716571e+02 -1.429195e+00 1.649467e+01)	(9.680419e-04 1.553167e-04 -6.814891e-04)
58            	(1.716577e+02 -1.428917e+00 1.649317e+01)	(1.716567e+02 -1.429072e+00 1.649386e+01)	(9.602524e-04 1.552488e-04 -6.851431e-04)
59            	(1.716574e+02 -1.428772e+00 1.649222e+01)	(1.716564e+02 -1.428927e+00 1.649291e+01)	(9.532312e-04 1.552670e-04 -6.880671e-04)
60            	(1.716572e+02 -1.428616e+00 1.649123e+01)	(1.716563e+02 -1.428771e+00 1.649192e+01)	(9.474770e-04 1.553393e-04 -6.906625e-04)
61            	(1.716572e+02 -1.428463e+00 1.649029e+01)	(1.716563e+02 -1.428619e+00 1.649099e+01)	(9.432716e-04 1.554194e-04 -6.931133e-04)
62            	(1.716573e+02 -1.428327e+00 1.648948e+01)	(1.716563e+02 -1.428482e+00 1.649018e+01)	(9.409945e-04 1.554261e-04 -6.955355e-04)
63            	(1.716574e+02 -1.428214e+00 1.648884e+01)	(1.716565e+02 -1.428370e+00 1.648954e+01)	(9.409044e-04 1.552611e-04 -6.979203e-04)
64            	(1.716576e+02 -1.428132e+00 1.648840e+01)	(1.716566e+02 -1.428287e+00 1.648910e+01)	(9.431976e-04 1.548396e-04 -7.002044e-04)
65            	(1.716577e+02 -1.428082e+00 1.648814e+01)	(1.716567e+02 -1.428236e+00 1.648884e+01)	(9.479267e-04 1.540548e-04 -7.019722e-04)
66            	(1.716578e+02 -1.428062e+00 1.648806e+01)	(1.716568e+02 -1.428215e+00 1.648876e+01)	(9.548125e-04 1.528636e-04 -7.028192e-04)
67            	(1.716577e+02 -1.428068e+00 1.648812e+01)	(1.716568e+02 -1.428219e+00 1.648882e+01)	(9.632385e-04 1.513623e-04 -7.027138e-04)
68            	(1.716576e+02 -1.428093e+00 1.648829e+01)	(1.716566e+02 -1.428243e+00 1.648899e+01)	(9.722977e-04 1.497973e-04 -7.022918e-04)
69            	(1.716573e+02 -1.428132e+00 1.648853e+01)	(1.716563e+02 -1.428280e+00 1.648923e+01)	(9.813395e-04 1.483150e-04 -7.017817e-04)
70            	(1.716569e+02 -1.428178e+00 1.648881e+01)	(1.716559e+02 -1.428325e+00 1.648951e+01)	(9.902442e-04 1.468923e-04 -7.010547e-04)
71            	(1.716563e+02 -1.428225e+00 1.648908e+01)	(1.716553e+02 -1.428370e+00 1.648978e+01)	(9.989300e-04 1.454674e-04 -6.998202e-04)
72            	(1.716555e+02 -1.428267e+00 1.648931e+01)	(1.716545e+02 -1.428411e+00 1.649001e+01)	(1.006987e-03 1.439976e-04 -6.979769e-04)
73            	(1.716546e+02 -1.428301e+00 1.648946e+01)	(1.716536e+02 -1.428443e+00 1.649015e+01)	(1.014106e-03 1.424854e-04 -6.957119e-04)
74            	(1.716536e+02 -1.428321e+00 1.648950e+01)	(1.716525e+02 -1.428462e+00 1.649020e+01)	(1.019971e-03 1.409426e-04 -6.931259e-04)
75            	(1.716524e+02 -1.428307e+00 1.648922e+01)	(1.716514e+02 -1.428446e+00 1.648991e+01)	(1.024161e-03 1.394343e-04 -6.904519e-04)
76            	(1.716512e+02 -1.428278e+00 1.648886e+01)	(1.716502e+02 -1.428416e+00 1.648955e+01)	(1.026311e-03 1.379643e-04 -6.875654e-04)
77            	(1.716500e+02 -1.428223e+00 1.648830e+01)	(1.716490e+02 -1.428359e+00 1.648899e+01)	(1.026264e-03 1.365524e-04 -6.845270e-04)
78            	(1.716488e+02 -1.428138e+00 1.648751e+01)	(1.716478e+02 -1.428273e+00 1.648820e+01)	(1.024099e-03 1.352936e-04 -6.815123e-04)
79            	(1.716477e+02 -1.428032e+00 1.648656e+01)	(1.716467e+02 -1.428166e+00 1.648724e+01)	(1.020384e-03 1.341699e-04 -6.785625e-04)
80            	(1.716468e+02 -1.427907e+00 1.648547e+01)	(1.716457e+02 -1.428040e+00 1.648614e+01)	(1.016107e-03 1.331573e-04 -6.756586e-04)
81            	(1.716459e+02 -1.427770e+00 1.648428e+01)	(1.716449e+02 -1.427902e+00 1.648495e+01)	(1.012340e-03 1.321608e-04 -6.728155e-04)
82            	(1.716452e+02 -1.427628e+00 1.648303e+01)	(1.716441e+02 -1.427759e+00 1.648370e+01)	(1.010037e-03 1.310862e-04 -6.699742e-04)
83            	(1.716445e+02 -1.427481e+00 1.648173e+01)	(1.716435e+02 -1.427611e+00 1.648240e+01)	(1.009763e-03 1.298614e-04 -6.668768e-04)
84            	(1.716440e+02 -1.427334e+00 1.648043e+01)	(1.716430e+02 -1.427462e+00 1.648110e+01)	(1.011830e-03 1.284677e-04 -6.632719e-04)
85            	(1.716436e+02 -1.427188e+00 1.647916e+01)	(1.716426e+02 -1.427315e+00 1.647982e+01)	(1.015969e-03 1.269100e-04 -6.591135e-04)
86            	(1.716432e+02 -1.427048e+00 1.647798e+01)	(1.716422e+02 -1.427173e+00 1.647863e+01)	(1.021424e-03 1.252770e-04 -6.545678e-04)
87            	(1.716429e+02 -1.426917e+00 1.647690e+01)	(1.716419e+02 -1.427041e+00 1.647755e+01)	(1.027131e-03 1.237446e-04 -6.499142e-04)
88            	(1.716426e+02 -1.426796e+00 1.647594e+01)	(1.716415e+02 -1.426918e+00 1.647659e+01)	(1.031553e-03 1.226967e-04 -6.463929e-04)
89            	(1.716422e+02 -1.426683e+00 1.647510e+01)	(1.716412e+02 -1.426805e+00 1.647574e+01)	(1.033784e-03 1.224072e-04 -6.448977e-04)
90            	(1.716418e+02 -1.426577e+00 1.647433e+01)	(1.716408e+02 -1.426700e+00 1.647497e+01)	(1.033581e-03 1.229297e-04 -6.458355e-04)
91            	(1.716414e+02 -1.426475e+00 1.647360e+01)	(1.716404e+02 -1.426599e+00 1.647425e+01)	(1.030994e-03 1.242160e-04 -6.492156e-04)
92            	(1.716410e+02 -1.426371e+00 1.647286e+01)	(1.716400e+02 -1.426497e+00 1.647352e+01)	(1.026206e-03 1.261703e-04 -6.548725e-04)
93            	(1.716406e+02 -1.426262e+00 1.647207e+01)	(1.716395e+02 -1.426390e+00 1.647273e+01)	(1.019580e-03 1.286280e-04 -6.623258e-04)
94            	(1.716400e+02 -1.426143e+00 1.647118e+01)	(1.716390e+02 -1.426274e+00 1.647185e+01)	(1.011597e-03 1.313514e-04 -6.707900e-04)
95            	(1.716395e+02 -1.426012e+00 1.647017e+01)	(1.716385e+02 -1.426146e+00 1.647085e+01)	(1.002892e-03 1.340983e-04 -6.789864e-04)
96            	(1.716389e+02 -1.425866e+00 1.646901e+01)	(1.716379e+02 -1.426002e+00 1.646970e+01)	(9.936665e-04 1.367538e-04 -6.866367e-04)
97            	(1.716382e+02 -1.425705e+00 1.646774e+01)	(1.716373e+02 -1.425844e+00 1.646844e+01)	(9.841308e-04 1.392313e-04 -6.934062e-04)
98            	(1.716375e+02 -1.425528e+00 1.646636e+01)	(1.716366e+02 -1.425669e+00 1.646706e+01)	(9.744385e-04 1.414719e-04 -6.990946e-04)
99            	(1.716367e+02 -1.425336e+00 1.646492e+01)	(1.716358e+02 -1.425479e+00 1.646562e+01)	(9.647812e-04 1.434695e-04 -7.034566e-04)
100           	(1.716359e+02 -1.425125e+00 1.646341e+01)	(1.716349e+02 -1.425271e+00 1.646412e+01)	(9.551077e-04 1.453002e-04 -7.065740e-04)
101           	(1.716349e+02 -1.424895e+00 1.646186e+01)	(1.716340e+02 -1.425042e+00 1.646256e+01)	(9.453017e-04 1.470698e-04 -7.087159e-04)
102           	(1.716339e+02 -1.424640e+00 1.646023e+01)	(1.716329e+02 -1.424789e+00 1.646094e+01)	(9.349311e-04 1.488876e-04 -7.103304e-04)
103           	(1.716327e+02 -1.424356e+00 1.645852e+01)	(1.716318e+02 -1.424506e+00 1.645923e+01)	(9.234750e-04 1.508975e-04 -7.119153e-04)
104           	(1.716314e+02 -1.424036e+00 1.645666e+01)	(1.716305e+02 -1.424189e+00 1.645738e+01)	(9.103812e-04 1.532568e-04 -7.140177e-04)
105           	(1.716300e+02 -1.423676e+00 1.645463e+01)	(1.716291e+02 -1.423832e+00 1.645535e+01)	(8.949888e-04 1.561490e-04 -7.171825e-04)
106           	(1.716284e+02 -1.423262e+00 1.645227e+01)	(1.716275e+02 -1.423422e+00 1.645299e+01)	(8.765643e-04 1.597887e-04 -7.221072e-04)
107           	(1.716267e+02 -1.422788e+00 1.644954e+01)	(1.716258e+02 -1.422953e+00 1.645027e+01)	(8.544578e-04 1.643416e-04 -7.292683e-04)
108           	(1.716248e+02 -1.422254e+00 1.644640e+01)	(1.716239e+02 -1.422424e+00 1.644714e+01)	(8.281763e-04 1.699075e-04 -7.390389e-04)
109           	(1.716232e+02 -1.421538e+00 1.644282e+01)	(1.716224e+02 -1.421715e+00 1.644358e+01)	(7.950844e-04 1.769192e-04 -7.512702e-04)
110           	(1.716215e+02 -1.420871e+00 1.643902e+01)	(1.716208e+02 -1.421056e+00 1.643978e+01)	(7.574159e-04 1.848892e-04 -7.660523e-04)
111           	(1.716196e+02 -1.420334e+00 1.643513e+01)	(1.716189e+02 -1.420527e+00 1.643591e+01)	(7.188816e-04 1.934532e-04 -7.833405e-04)
112           	(1.716180e+02 -1.419728e+00 1.643126e+01)	(1.716173e+02 -1.419931e+00 1.643206e+01)	(6.783891e-04 2.028224e-04 -8.025187e-04)
113           	(1.716165e+02 -1.419178e+00 1.642753e+01)	(1.716158e+02 -1.419391e+00 1.642836e+01)	(6.361183e-04 2.126222e-04 -8.231849e-04)
114           	(1.716147e+02 -1.418722e+00 1.642437e+01)	(1.716141e+02 -1.418945e+00 1.642522e+01)	(5.942260e-04 2.225046e-04 -8.440685e-04)
115           	(1.716131e+02 -1.418332e+00 1.642149e+01)	(1.716126e+02 -1.418564e+00 1.642235e+01)	(5.533422e-04 2.322529e-04 -8.646284e-04)
116           	(1.716117e+02 -1.418021e+00 1.641898e+01)	(1.716112e+02 -1.418263e+00 1.641986e+01)	(5.139836e-04 2.416334e-04 -8.841855e-04)
117           	(1.716106e+02 -1.417806e+00 1.641696e+01)	(1.716101e+02 -1.418056e+00 1.641786e+01)	(4.765541e-04 2.504244e-04 -9.019629e-04)
118           	(1.716098e+02 -1.417701e+00 1.641555e+01)	(1.716093e+02 -1.417960e+00 1.641647e+01)	(4.413398e-04 2.583454e-04 -9.171891e-04)
119           	(1.716084e+02 -1.417735e+00 1.641479e+01)	(1.716080e+02 -1.418001e+00 1.641572e+01)	(4.095888e-04 2.655289e-04 -9.306912e-04)
120           	(1.716084e+02 -1.417880e+00 1.641526e+01)	(1.716080e+02 -1.418151e+00 1.641620e+01)	(3.816306e-04 2.713878e-04 -9.401691e-04)
121           	(1.716087e+02 -1.418074e+00 1.641598e+01)	(1.716084e+02 -1.418350e+00 1.641693e+01)	(3.565821e-04 2.759738e-04 -9.462714e-04)
122           	(1.716092e+02 -1.418434e+00 1.641634e+01)	(1.716089e+02 -1.418713e+00 1.641729e+01)	(3.328887e-04 2.786716e-04 -9.482338e-04)
123           	(1.716098e+02 -1.418830e+00 1.641974e+01)	(1.716095e+02 -1.419110e+00 1.642069e+01)	(3.134245e-04 2.800444e-04 -9.460210e-04)
124           	(1.716104e+02 -1.419268e+00 1.642344e+01)	(1.716101e+02 -1.419548e+00 1.642438e+01)	(2.980904e-04 2.800329e-04 -9.392454e-04)
125           	(1.716112e+02 -1.419738e+00 1.642729e+01)	(1.716109e+02 -1.420017e+00 1.642822e+01)	(2.867091e-04 2.788895e-04 -9.296878e-04)
126           	(1.716119e+02 -1.420405e+00 1.643126e+01)	(1.716116e+02 -1.420681e+00 1.643218e+01)	(2.787807e-04 2.760887e-04 -9.174122e-04)
127           	(1.716126e+02 -1.420832e+00 1.643507e+01)	(1.716124e+02 -1.421105e+00 1.643597e+01)	(2.745065e-04 2.728244e-04 -9.044625e-04)
128           	(1.716134e+02 -1.421245e+00 1.643882e+01)	(1.716131e+02 -1.421514e+00 1.643971e+01)	(2.735593e-04 2.691881e-04 -8.904684e-04)
129           	(1.716141e+02 -1.421645e+00 1.644249e+01)	(1.716139e+02 -1.421910e+00 1.644336e+01)	(2.758182e-04 2.652915e-04 -8.761809e-04)
130           	(1.716149e+02 -1.422030e+00 1.644601e+01)	(1.716146e+02 -1.422291e+00 1.644687e+01)	(2.809157e-04 2.612607e-04 -8.620256e-04)
131           	(1.716156e+02 -1.422395e+00 1.644934e+01)	(1.716153e+02 -1.422652e+00 1.645019e+01)	(2.885247e-04 2.571818e-04 -8.483212e-04)
132           	(1.716164e+02 -1.422735e+00 1.645243e+01)	(1.716161e+02 -1.422988e+00 1.645327e+01)	(2.982431e-04 2.531138e-04 -8.352601e-04)
133           	(1.716171e+02 -1.423044e+00 1.645527e+01)	(1.716168e+02 -1.423293e+00 1.645609e+01)	(3.097034e-04 2.491094e-04 -8.229515e-04)
134           	(1.716179e+02 -1.423317e+00 1.645782e+01)	(1.716176e+02 -1.423563e+00 1.645863e+01)	(3.225319e-04 2.451861e-04 -8.114191e-04)
135           	(1.716186e+02 -1.423553e+00 1.646007e+01)	(1.716183e+02 -1.423795e+00 1.646087e+01)	(3.363464e-04 2.413940e-04 -8.006030e-04)
136           	(1.716194e+02 -1.423749e+00 1.646205e+01)	(1.716191e+02 -1.423987e+00 1.646284e+01)	(3.507414e-04 2.377786e-04 -7.904424e-04)
137           	(1.716202e+02 -1.423908e+00 1.646377e+01)	(1.716198e+02 -1.424142e+00 1.646456e+01)	(3.654466e-04 2.343556e-04 -7.808855e-04)
138           	(1.716210e+02 -1.424038e+00 1.646534e+01)	(1.716206e+02 -1.424270e+00 1.646611e+01)	(3.803568e-04 2.311451e-04 -7.718079e-04)
139           	(1.716217e+02 -1.424144e+00 1.646678e+01)	(1.716214e+02 -1.424372e+00 1.646755e+01)	(3.953742e-04 2.281551e-04 -7.630224e-04)
140           	(1.716225e+02 -1.424224e+00 1.646806e+01)	(1.716221e+02 -1.424449e+00 1.646882e+01)	(4.104172e-04 2.254265e-04 -7.545465e-04)
141           	(1.716233e+02 -1.424288e+00 1.646927e+01)	(1.716228e+02 -1.424511e+00 1.647002e+01)	(4.254984e-04 2.229601e-04 -7.462615e-04)
142           	(1.716240e+02 -1.424342e+00 1.647041e+01)	(1.716235e+02 -1.424562e+00 1.647115e+01)	(4.405398e-04 2.207594e-04 -7.381886e-04)
143           	(1.716246e+02 -1.424380e+00 1.647137e+01)	(1.716242e+02 -1.424598e+00 1.647210e+01)	(4.554311e-04 2.188397e-04 -7.304877e-04)
144           	(1.716252e+02 -1.424415e+00 1.647226e+01)	(1.716247e+02 -1.424632e+00 1.647299e+01)	(4.701080e-04 2.171714e-04 -7.232767e-04)
145           	(1.716257e+02 -1.424448e+00 1.647306e+01)	(1.716252e+02 -1.424664e+00 1.647378e+01)	(4.843732e-04 2.157210e-04 -7.166736e-04)
146           	(1.716261e+02 -1.424476e+00 1.647372e+01)	(1.716256e+02 -1.424691e+00 1.647443e+01)	(4.979514e-04 2.144617e-04 -7.108264e-04)
147           	(1.716264e+02 -1.424504e+00 1.647425e+01)	(1.716258e+02 -1.424717e+00 1.647495e+01)	(5.106086e-04 2.133683e-04 -7.057922e-04)
148           	(1.716265e+02 -1.424529e+00 1.647462e+01)	(1.716260e+02 -1.424741e+00 1.647532e+01)	(5.220525e-04 2.124223e-04 -7.016129e-04)
149           	(1.716265e+02 -1.424549e+00 1.647480e+01)	(1.716259e+02 -1.424761e+00 1.647550e+01)	(5.319938e-04 2.116187e-04 -6.982921e-04)
150           	(1.716263e+02 -1.424560e+00 1.647475e+01)	(1.716258e+02 -1.424771e+00 1.647545e+01)	(5.401127e-04 2.109707e-04 -6.958607e-04)
151           	(1.716259e+02 -1.424556e+00 1.647443e+01)	(1.716254e+02 -1.424767e+00 1.647512e+01)	(5.461142e-04 2.105123e-04 -6.943278e-04)
152           	(1.716245e+02 -1.424457e+00 1.647283e+01)	(1.716240e+02 -1.424668e+00 1.647353e+01)	(5.495448e-04 2.106862e-04 -6.950077e-04)
153           	(1.716240e+02 -1.424384e+00 1.647183e+01)	(1.716234e+02 -1.424595e+00 1.647253e+01)	(5.506481e-04 2.110065e-04 -6.961106e-04)
154           	(1.716233e+02 -1.424290e+00 1.647060e+01)	(1.716228e+02 -1.424502e+00 1.647129e+01)	(5.493058e-04 2.115086e-04 -6.975570e-04)
155           	(1.716226e+02 -1.424187e+00 1.646927e+01)	(1.716220e+02 -1.424399e+00 1.646997e+01)	(5.458847e-04 2.122462e-04 -6.992550e-04)
156           	(1.716210e+02 -1.424054e+00 1.646748e+01)	(1.716205e+02 -1.424267e+00 1.646819e+01)	(5.408959e-04 2.134857e-04 -7.018078e-04)
157           	(1.716204e+02 -1.423955e+00 1.646649e+01)	(1.716199e+02 -1.424170e+00 1.646719e+01)	(5.347876e-04 2.147860e-04 -7.035985e-04)
158           	(1.716198e+02 -1.423857e+00 1.646557e+01)	(1.716193e+02 -1.424073e+00 1.646628e+01)	(5.278093e-04 2.162105e-04 -7.047677e-04)
159           	(1.716193e+02 -1.423765e+00 1.646479e+01)	(1.716188e+02 -1.423983e+00 1.646550e+01)	(5.204867e-04 2.178090e-04 -7.054482e-04)
160           	(1.716189e+02 -1.423675e+00 1.646411e+01)	(1.716184e+02 -1.423894e+00 1.646482e+01)	(5.131866e-04 2.196054e-04 -7.057293e-04)
161           	(1.716187e+02 -1.423588e+00 1.646358e+01)	(1.716182e+02 -1.423810e+00 1.646429e+01)	(5.062778e-04 2.215878e-04 -7.056233e-04)
162           	(1.716186e+02 -1.423509e+00 1.646323e+01)	(1.716181e+02 -1.423733e+00 1.646394e+01)	(5.001215e-04 2.237119e-04 -7.050781e-04)
163           	(1.716186e+02 -1.423445e+00 1.646313e+01)	(1.716181e+02 -1.423671e+00 1.646383e+01)	(4.950388e-04 2.259074e-04 -7.039841e-04)
164           	(1.716188e+02 -1.423392e+00 1.646320e+01)	(1.716183e+02 -1.423620e+00 1.646390e+01)	(4.912431e-04 2.281141e-04 -7.023770e-04)
165           	(1.716191e+02 -1.423352e+00 1.646343e+01)	(1.716186e+02 -1.423582e+00 1.646413e+01)	(4.888822e-04 2.302738e-04 -7.002946e-04)
166           	(1.716195e+02 -1.423329e+00 1.646384e+01)	(1.716190e+02 -1.423561e+00 1.646454e+01)	(4.880059e-04 2.323329e-04 -6.977540e-04)
167           	(1.716206e+02 -1.423372e+00 1.646508e+01)	(1.716201e+02 -1.423606e+00 1.646577e+01)	(4.887212e-04 2.339531e-04 -6.937959e-04)
168           	(1.716211e+02 -1.423383e+00 1.646565e+01)	(1.716206e+02 -1.423619e+00 1.646634e+01)	(4.904986e-04 2.355310e-04 -6.899556e-04)
169           	(1.716216e+02 -1.423401e+00 1.646626e+01)	(1.716211e+02 -1.423638e+00 1.646695e+01)	(4.933972e-04 2.370408e-04 -6.862689e-04)
170           	(1.716221e+02 -1.423428e+00 1.646697e+01)	(1.716216e+02 -1.423666e+00 1.646765e+01)	(4.972346e-04 2.384350e-04 -6.825643e-04)
171           	(1.716227e+02 -1.423487e+00 1.646800e+01)	(1.716221e+02 -1.423726e+00 1.646868e+01)	(5.020815e-04 2.395994e-04 -6.784526e-04)
172           	(1.716232e+02 -1.423546e+00 1.646902e+01)	(1.716227e+02 -1.423787e+00 1.646970e+01)	(5.076580e-04 2.405697e-04 -6.741102e-04)
173           	(1.716238e+02 -1.423602e+00 1.646997e+01)	(1.716233e+02 -1.423843e+00 1.647064e+01)	(5.137892e-04 2.413882e-04 -6.697684e-04)
174           	(1.716243e+02 -1.423632e+00 1.647061e+01)	(1.716238e+02 -1.423874e+00 1.647128e+01)	(5.201659e-04 2.421437e-04 -6.658097e-04)
175           	(1.716251e+02 -1.423694e+00 1.647173e+01)	(1.716246e+02 -1.423936e+00 1.647240e+01)	(5.269347e-04 2.426275e-04 -6.614206e-04)
176           	(1.716256e+02 -1.423734e+00 1.647228e+01)	(1.716250e+02 -1.423977e+00 1.647293e+01)	(5.337579e-04 2.430819e-04 -6.575334e-04)
177           	(1.716260e+02 -1.423782e+00 1.647284e+01)	(1.716254e+02 -1.424025e+00 1.647350e+01)	(5.407869e-04 2.434774e-04 -6.540124e-04)
178           	(1.716263e+02 -1.423847e+00 1.647352e+01)	(1.716258e+02 -1.424091e+00 1.647417e+01)	(5.480566e-04 2.437579e-04 -6.505263e-04)
179           	(1.716267e+02 -1.423920e+00 1.647422e+01)	(1.716262e+02 -1.424164e+00 1.647487e+01)	(5.555992e-04 2.439111e-04 -6.470017e-04)
180           	(1.716271e+02 -1.424001e+00 1.647494e+01)	(1.716265e+02 -1.424245e+00 1.647558e+01)	(5.634445e-04 2.439365e-04 -6.434340e-04)
181           	(1.716275e+02 -1.424092e+00 1.647567e+01)	(1.716269e+02 -1.424336e+00 1.647631e+01)	(5.716470e-04 2.438326e-04 -6.397857e-04)
182           	(1.716279e+02 -1.424187e+00 1.647639e+01)	(1.716273e+02 -1.424430e+00 1.647703e+01)	(5.802025e-04 2.436082e-04 -6.360854e-04)
183           	(1.716283e+02 -1.424284e+00 1.647708e+01)	(1.716277e+02 -1.424527e+00 1.647771e+01)	(5.890922e-04 2.432712e-04 -6.323724e-04)
184           	(1.716287e+02 -1.424381e+00 1.647773e+01)	(1.716281e+02 -1.424624e+00 1.647836e+01)	(5.982643e-04 2.428296e-04 -6.286750e-04)
185           	(1.716291e+02 -1.424477e+00 1.647836e+01)	(1.716285e+02 -1.424720e+00 1.647898e+01)	(6.076585e-04 2.422947e-04 -6.250041e-04)
186           	(1.716300e+02 -1.424583e+00 1.647923e+01)	(1.716294e+02 -1.424824e+00 1.647986e+01)	(6.171920e-04 2.415466e-04 -6.209019e-04)
187           	(1.716303e+02 -1.424657e+00 1.647956e+01)	(1.716297e+02 -1.424898e+00 1.648018e+01)	(6.265912e-04 2.408224e-04 -6.172684e-04)
188           	(1.716306e+02 -1.424730e+00 1.647988e+01)	(1.716300e+02 -1.424970e+00 1.648049e+01)	(6.359066e-04 2.401088e-04 -6.140301e-04)
189           	(1.716309e+02 -1.424797e+00 1.648016e+01)	(1.716303e+02 -1.425036e+00 1.648077e+01)	(6.450562e-04 2.393839e-04 -6.109962e-04)
190           	(1.716312e+02 -1.424860e+00 1.648043e+01)	(1.716306e+02 -1.425098e+00 1.648103e+01)	(6.540091e-04 2.386518e-04 -6.081280e-04)
191           	(1.716315e+02 -1.424918e+00 1.648066e+01)	(1.716308e+02 -1.425156e+00 1.648127e+01)	(6.627332e-04 2.379160e-04 -6.054053e-04)
192           	(1.716317e+02 -1.424970e+00 1.648086e+01)	(1.716310e+02 -1.425207e+00 1.648146e+01)	(6.711921e-04 2.371785e-04 -6.028296e-04)
193           	(1.716319e+02 -1.425015e+00 1.648100e+01)	(1.716312e+02 -1.425251e+00 1.648160e+01)	(6.793388e-04 2.364411e-04 -6.004109e-04)
194           	(1.716321e+02 -1.425053e+00 1.648107e+01)	(1.716314e+02 -1.425288e+00 1.648167e+01)	(6.871685e-04 2.357034e-04 -5.981724e-04)
195           	(1.716323e+02 -1.425087e+00 1.648110e+01)	(1.716316e+02 -1.425322e+00 1.648170e+01)	(6.946862e-04 2.349544e-04 -5.961257e-04)
196           	(1.716325e+02 -1.425121e+00 1.648110e+01)	(1.716318e+02 -1.425355e+00 1.648170e+01)	(7.019351e-04 2.341757e-04 -5.942542e-04)
197           	(1.716333e+02 -1.425188e+00 1.648162e+01)	(1.716326e+02 -1.425421e+00 1.648221e+01)	(7.090359e-04 2.331546e-04 -5.918221e-04)
198           	(1.716334e+02 -1.425233e+00 1.648159e+01)	(1.716327e+02 -1.425465e+00 1.648218e+01)	(7.159302e-04 2.321246e-04 -5.898102e-04)
199           	(1.716335e+02 -1.425281e+00 1.648157e+01)	(1.716328e+02 -1.425512e+00 1.648216e+01)	(7.227222e-04 2.310770e-04 -5.882354e-04)
200           	(1.716337e+02 -1.425330e+00 1.648153e+01)	(1.716330e+02 -1.425560e+00 1.648212e+01)	(7.294598e-04 2.299651e-04 -5.869284e-04)
201           	(1.716339e+02 -1.425379e+00 1.648149e+01)	(1.716331e+02 -1.425608e+00 1.648208e+01)	(7.361977e-04 2.287826e-04 -5.858602e-04)
202           	(1.716341e+02 -1.425427e+00 1.648144e+01)	(1.716333e+02 -1.425655e+00 1.648203e+01)	(7.429682e-04 2.275350e-04 -5.850152e-04)
203           	(1.716343e+02 -1.425473e+00 1.648138e+01)	(1.716335e+02 -1.425700e+00 1.648197e+01)	(7.498000e-04 2.262387e-04 -5.843851e-04)
204           	(1.716345e+02 -1.425517e+00 1.648131e+01)	(1.716338e+02 -1.425741e+00 1.648190e+01)	(7.566945e-04 2.249127e-04 -5.839653e-04)
205           	(1.716348e+02 -1.425556e+00 1.648123e+01)	(1.716340e+02 -1.425779e+00 1.648182e+01)	(7.636398e-04 2.235712e-04 -5.837395e-04)
206           	(1.716350e+02 -1.425590e+00 1.648113e+01)	(1.716343e+02 -1.425813e+00 1.648172e+01)	(7.706210e-04 2.222352e-04 -5.837030e-04)
207           	(1.716353e+02 -1.425622e+00 1.648101e+01)	(1.716345e+02 -1.425842e+00 1.648159e+01)	(7.776239e-04 2.209261e-04 -5.838537e-04)
208           	(1.716361e+02 -1.425669e+00 1.648110e+01)	(1.716353e+02 -1.425888e+00 1.648169e+01)	(7.847026e-04 2.195404e-04 -5.838581e-04)
209           	(1.716363e+02 -1.425696e+00 1.648095e+01)	(1.716355e+02 -1.425915e+00 1.648153e+01)	(7.916802e-04 2.182599e-04 -5.841278e-04)
210           	(1.716365e+02 -1.425713e+00 1.648070e+01)	(1.716357e+02 -1.425930e+00 1.648129e+01)	(7.985286e-04 2.170947e-04 -5.847161e-04)
211           	(1.716371e+02 -1.425750e+00 1.648070e+01)	(1.716363e+02 -1.425966e+00 1.648129e+01)	(8.053253e-04 2.159183e-04 -5.852006e-04)