# Moment      
# CofR        : (0.000000e+00 0.000000e+00 0.000000e+00)
#
# Time        	(total_x total_y total_z)	(pressure_x pressure_y pressure_z)	(viscous_x viscous_y viscous_z)
3501          	(-2.371772e-02 4.595389e-02 -2.937512e-02)	(-2.381242e-02 4.594410e-02 -2.944300e-02)	(9.470026e-05 9.794368e-06 6.787613e-05)
3502          	(-2.370730e-02 4.593571e-02 -2.933608e-02)	(-2.380168e-02 4.592610e-02 -2.940415e-02)	(9.437546e-05 9.605126e-06 6.807584e-05)
3503          	(-2.370268e-02 4.591840e-02 -2.928930e-02)	(-2.379673e-02 4.590898e-02 -2.935762e-02)	(9.404941e-05 9.424063e-06 6.832141e-05)
3504          	(-2.370312e-02 4.590224e-02 -2.923549e-02)	(-2.379685e-02 4.589299e-02 -2.930409e-02)	(9.373299e-05 9.253068e-06 6.859600e-05)
3505          	(-2.370762e-02 4.588671e-02 -2.917773e-02)	(-2.380106e-02 4.587762e-02 -2.924661e-02)	(9.343432e-05 9.093600e-06 6.888707e-05)
3506          	(-2.371536e-02 4.587105e-02 -2.911987e-02)	(-2.380851e-02 4.586211e-02 -2.918906e-02)	(9.315741e-05 8.945713e-06 6.918619e-05)
3507          	(-2.372536e-02 4.585474e-02 -2.906437e-02)	(-2.381827e-02 4.584593e-02 -2.913386e-02)	(9.290704e-05 8.811280e-06 6.949044e-05)
3508          	(-2.373633e-02 4.583757e-02 -2.901203e-02)	(-2.382902e-02 4.582888e-02 -2.908183e-02)	(9.268829e-05 8.692683e-06 6.979742e-05)
3509          	(-2.374679e-02 4.581975e-02 -2.896187e-02)	(-2.383930e-02 4.581116e-02 -2.903198e-02)	(9.250798e-05 8.594153e-06 7.010686e-05)
3510          	(-2.375560e-02 4.580198e-02 -2.891358e-02)	(-2.384797e-02 4.579346e-02 -2.898399e-02)	(9.237197e-05 8.519683e-06 7.041375e-05)
3511          	(-2.365094e-02 4.539935e-02 -2.864835e-02)	(-2.374316e-02 4.539098e-02 -2.871919e-02)	(9.222196e-05 8.366180e-06 7.083879e-05)
3512          	(-2.364234e-02 4.538122e-02 -2.865195e-02)	(-2.373449e-02 4.537292e-02 -2.872315e-02)	(9.215556e-05 8.296003e-06 7.119616e-05)
3513          	(-2.363147e-02 4.536509e-02 -2.866496e-02)	(-2.372364e-02 4.535680e-02 -2.873647e-02)	(9.216522e-05 8.289714e-06 7.151838e-05)
3514          	(-2.363954e-02 4.540054e-02 -2.877046e-02)	(-2.373178e-02 4.539220e-02 -2.884223e-02)	(9.223667e-05 8.346542e-06 7.177025e-05)
3515          	(-2.362708e-02 4.534412e-02 -2.874682e-02)	(-2.371942e-02 4.533570e-02 -2.881885e-02)	(9.234103e-05 8.421606e-06 7.202293e-05)
3516          	(-2.363480e-02 4.539399e-02 -2.876620e-02)	(-2.372729e-02 4.538544e-02 -2.883842e-02)	(9.249097e-05 8.545563e-06 7.222092e-05)
3517          	(-2.364103e-02 4.544248e-02 -2.876536e-02)	(-2.373371e-02 4.543378e-02 -2.883773e-02)	(9.268144e-05 8.701665e-06 7.237039e-05)
3518          	(-2.364645e-02 4.548926e-02 -2.874824e-02)	(-2.373935e-02 4.548038e-02 -2.882070e-02)	(9.290383e-05 8.877802e-06 7.245897e-05)
3519          	(-2.364225e-02 4.552796e-02 -2.869654e-02)	(-2.373540e-02 4.551889e-02 -2.876902e-02)	(9.315944e-05 9.067254e-06 7.247996e-05)
3520          	(-2.363805e-02 4.553921e-02 -2.865090e-02)	(-2.373149e-02 4.552996e-02 -2.872332e-02)	(9.343382e-05 9.252934e-06 7.242754e-05)
3521          	(-2.363388e-02 4.555643e-02 -2.862303e-02)	(-2.372760e-02 4.554700e-02 -2.869532e-02)	(9.372113e-05 9.431602e-06 7.229240e-05)
3522          	(-2.363317e-02 4.557442e-02 -2.863259e-02)	(-2.372718e-02 4.556483e-02 -2.870466e-02)	(9.401141e-05 9.598399e-06 7.207416e-05)
3523          	(-2.362871e-02 4.559309e-02 -2.865980e-02)	(-2.372301e-02 4.558333e-02 -2.873159e-02)	(9.429705e-05 9.751940e-06 7.178766e-05)
3524          	(-2.362028e-02 4.561199e-02 -2.870036e-02)	(-2.371485e-02 4.560209e-02 -2.877181e-02)	(9.457170e-05 9.892220e-06 7.144553e-05)
3525          	(-2.360869e-02 4.563087e-02 -2.875310e-02)	(-2.370352e-02 4.562086e-02 -2.882416e-02)	(9.482872e-05 1.001897e-05 7.106508e-05)
3526          	(-2.359500e-02 4.564969e-02 -2.881553e-02)	(-2.369006e-02 4.563956e-02 -2.888620e-02)	(9.505922e-05 1.012946e-05 7.066454e-05)
3527          	(-2.358058e-02 4.566837e-02 -2.888493e-02)	(-2.367583e-02 4.565815e-02 -2.895519e-02)	(9.525536e-05 1.022128e-05 7.026386e-05)
3528          	(-2.356672e-02 4.568677e-02 -2.895754e-02)	(-2.366213e-02 4.567648e-02 -2.902742e-02)	(9.540856e-05 1.029054e-05 6.988031e-05)
3529          	(-2.355444e-02 4.570471e-02 -2.902846e-02)	(-2.364995e-02 4.569437e-02 -2.909799e-02)	(9.551118e-05 1.033367e-05 6.952888e-05)
3530          	(-2.354491e-02 4.572403e-02 -2.910335e-02)	(-2.364046e-02 4.571369e-02 -2.917257e-02)	(9.555592e-05 1.034710e-05 6.921923e-05)
3531          	(-2.353832e-02 4.574293e-02 -2.916808e-02)	(-2.363386e-02 4.573260e-02 -2.923704e-02)	(9.553893e-05 1.032878e-05 6.896042e-05)
3532          	(-2.353486e-02 4.576129e-02 -2.921917e-02)	(-2.363032e-02 4.575101e-02 -2.928793e-02)	(9.545746e-05 1.027705e-05 6.875390e-05)
3533          	(-2.353595e-02 4.578616e-02 -2.926935e-02)	(-2.363126e-02 4.577596e-02 -2.933795e-02)	(9.531305e-05 1.019409e-05 6.859685e-05)
3534          	(-2.353978e-02 4.580924e-02 -2.929243e-02)	(-2.363490e-02 4.579916e-02 -2.936092e-02)	(9.511062e-05 1.008180e-05 6.848893e-05)
3535          	(-2.354555e-02 4.582252e-02 -2.928625e-02)	(-2.364040e-02 4.581258e-02 -2.935468e-02)	(9.485351e-05 9.941236e-06 6.842818e-05)
3536          	(-2.355326e-02 4.583308e-02 -2.926694e-02)	(-2.364781e-02 4.582331e-02 -2.933535e-02)	(9.454988e-05 9.777435e-06 6.840760e-05)
3537          	(-2.356221e-02 4.584071e-02 -2.923782e-02)	(-2.365642e-02 4.583111e-02 -2.930625e-02)	(9.421061e-05 9.596714e-06 6.842448e-05)
3538          	(-2.357155e-02 4.584522e-02 -2.920151e-02)	(-2.366540e-02 4.583581e-02 -2.926999e-02)	(9.384804e-05 9.405532e-06 6.847712e-05)
3539          	(-2.358027e-02 4.584652e-02 -2.915893e-02)	(-2.367375e-02 4.583730e-02 -2.922750e-02)	(9.347722e-05 9.211957e-06 6.856661e-05)
3540          	(-2.358729e-02 4.584465e-02 -2.910978e-02)	(-2.368040e-02 4.583563e-02 -2.917847e-02)	(9.311438e-05 9.024326e-06 6.869184e-05)
3541          	(-2.359159e-02 4.583972e-02 -2.905221e-02)	(-2.368437e-02 4.583087e-02 -2.912106e-02)	(9.277470e-05 8.850597e-06 6.885315e-05)
3542          	(-2.358597e-02 4.582950e-02 -2.896550e-02)	(-2.367845e-02 4.582080e-02 -2.903456e-02)	(9.247411e-05 8.698732e-06 6.905562e-05)
3543          	(-2.357459e-02 4.581589e-02 -2.886181e-02)	(-2.366682e-02 4.580732e-02 -2.893110e-02)	(9.222823e-05 8.577130e-06 6.928970e-05)
3544          	(-2.355737e-02 4.580002e-02 -2.874293e-02)	(-2.364942e-02 4.579153e-02 -2.881247e-02)	(9.204855e-05 8.491776e-06 6.953888e-05)
3545          	(-2.353610e-02 4.578333e-02 -2.861826e-02)	(-2.362804e-02 4.577488e-02 -2.868805e-02)	(9.194255e-05 8.447075e-06 6.978553e-05)
3546          	(-2.351353e-02 4.576695e-02 -2.850136e-02)	(-2.360544e-02 4.575851e-02 -2.857137e-02)	(9.190987e-05 8.442836e-06 7.001353e-05)
3547          	(-2.349172e-02 4.575119e-02 -2.840205e-02)	(-2.358366e-02 4.574271e-02 -2.847226e-02)	(9.194451e-05 8.476009e-06 7.021445e-05)
3548          	(-2.347129e-02 4.573575e-02 -2.832405e-02)	(-2.356333e-02 4.572720e-02 -2.839443e-02)	(9.203904e-05 8.542716e-06 7.038210e-05)
3549          	(-2.343421e-02 4.569745e-02 -2.822703e-02)	(-2.352640e-02 4.568881e-02 -2.829756e-02)	(9.219150e-05 8.639398e-06 7.052763e-05)
3550          	(-2.339287e-02 4.564744e-02 -2.813975e-02)	(-2.348526e-02 4.563868e-02 -2.821040e-02)	(9.239631e-05 8.762977e-06 7.064469e-05)
3551          	(-2.335097e-02 4.555490e-02 -2.805735e-02)	(-2.344361e-02 4.554600e-02 -2.812809e-02)	(9.263540e-05 8.896684e-06 7.074148e-05)
3552          	(-2.333645e-02 4.554855e-02 -2.807042e-02)	(-2.342936e-02 4.553949e-02 -2.814120e-02)	(9.291466e-05 9.063444e-06 7.077821e-05)
3553          	(-2.331983e-02 4.554236e-02 -2.808887e-02)	(-2.341306e-02 4.553311e-02 -2.815964e-02)	(9.323335e-05 9.257539e-06 7.077109e-05)
3554          	(-2.330387e-02 4.553841e-02 -2.811353e-02)	(-2.339745e-02 4.552894e-02 -2.818425e-02)	(9.357958e-05 9.470597e-06 7.072101e-05)
3555          	(-2.328885e-02 4.553689e-02 -2.814235e-02)	(-2.338279e-02 4.552720e-02 -2.821298e-02)	(9.394279e-05 9.694370e-06 7.063127e-05)
3556          	(-2.327454e-02 4.553789e-02 -2.817282e-02)	(-2.336885e-02 4.552797e-02 -2.824332e-02)	(9.431297e-05 9.920906e-06 7.050168e-05)
3557          	(-2.326018e-02 4.554131e-02 -2.820163e-02)	(-2.335486e-02 4.553116e-02 -2.827196e-02)	(9.468323e-05 1.014452e-05 7.033206e-05)
3558          	(-2.324534e-02 4.554740e-02 -2.822772e-02)	(-2.334039e-02 4.553704e-02 -2.829784e-02)	(9.504649e-05 1.035946e-05 7.012157e-05)
3559          	(-2.323019e-02 4.555491e-02 -2.825547e-02)	(-2.332559e-02 4.554435e-02 -2.832534e-02)	(9.539496e-05 1.056035e-05 6.987265e-05)
3560          	(-2.321598e-02 4.556322e-02 -2.829153e-02)	(-2.331169e-02 4.555248e-02 -2.836112e-02)	(9.571685e-05 1.074000e-05 6.958980e-05)
3561          	(-2.320362e-02 4.557103e-02 -2.833934e-02)	(-2.329962e-02 4.556014e-02 -2.840863e-02)	(9.599973e-05 1.089207e-05 6.928500e-05)
3562          	(-2.319372e-02 4.557965e-02 -2.838484e-02)	(-2.328996e-02 4.556864e-02 -2.845381e-02)	(9.623407e-05 1.101250e-05 6.897216e-05)
3563          	(-2.318406e-02 4.558732e-02 -2.843027e-02)	(-2.328047e-02 4.557622e-02 -2.849893e-02)	(9.641615e-05 1.110053e-05 6.866355e-05)
3564          	(-2.317451e-02 4.559368e-02 -2.847466e-02)	(-2.327106e-02 4.558253e-02 -2.854303e-02)	(9.654208e-05 1.115476e-05 6.836857e-05)
3565          	(-2.316687e-02 4.559604e-02 -2.854027e-02)	(-2.326348e-02 4.558486e-02 -2.860837e-02)	(9.660540e-05 1.117190e-05 6.810073e-05)
3566          	(-2.315885e-02 4.559583e-02 -2.859659e-02)	(-2.325546e-02 4.558468e-02 -2.866446e-02)	(9.660411e-05 1.115176e-05 6.787573e-05)
3567          	(-2.315017e-02 4.559259e-02 -2.863753e-02)	(-2.324671e-02 4.558149e-02 -2.870524e-02)	(9.653855e-05 1.109696e-05 6.770295e-05)
3568          	(-2.314052e-02 4.558599e-02 -2.865677e-02)	(-2.323693e-02 4.557498e-02 -2.872436e-02)	(9.640968e-05 1.100965e-05 6.758754e-05)
3569          	(-2.312981e-02 4.557609e-02 -2.864972e-02)	(-2.322603e-02 4.556520e-02 -2.871725e-02)	(9.622399e-05 1.089548e-05 6.753028e-05)
3570          	(-2.313099e-02 4.571660e-02 -2.857911e-02)	(-2.322702e-02 4.570578e-02 -2.864662e-02)	(9.603052e-05 1.081702e-05 6.751108e-05)
3571          	(-2.313464e-02 4.571317e-02 -2.852914e-02)	(-2.323042e-02 4.570247e-02 -2.859666e-02)	(9.578693e-05 1.070296e-05 6.752040e-05)
3572          	(-2.314228e-02 4.571031e-02 -2.847723e-02)	(-2.323778e-02 4.569975e-02 -2.854479e-02)	(9.549461e-05 1.055783e-05 6.755493e-05)
3573          	(-2.315297e-02 4.570734e-02 -2.843285e-02)	(-2.324815e-02 4.569694e-02 -2.850046e-02)	(9.517699e-05 1.039457e-05 6.760945e-05)
3574          	(-2.316450e-02 4.570295e-02 -2.839532e-02)	(-2.325935e-02 4.569273e-02 -2.846301e-02)	(9.484755e-05 1.022126e-05 6.768641e-05)
3575          	(-2.317574e-02 4.569681e-02 -2.836256e-02)	(-2.327026e-02 4.568676e-02 -2.843035e-02)	(9.452192e-05 1.004789e-05 6.779230e-05)
3576          	(-2.318576e-02 4.568882e-02 -2.833062e-02)	(-2.327998e-02 4.567894e-02 -2.839856e-02)	(9.421309e-05 9.882908e-06 6.793226e-05)
