# k  POINT_DATA 14073
# x  y  z  k
-1.35525e-20 0.0101542 1.397e-07 9.01189e-10
1.35525e-20 -0.0101542 1.397e-07 4.00068e-07
-1.35525e-20 0.0101542 0.000269592 5.79674e-10
2.71051e-20 -0.0101542 0.000269592 3.33009e-07
2.71051e-20 0.0101542 0.000769234 3.88523e-10
1.35525e-20 -0.0101542 0.000769234 3.06179e-07
0 0.0101542 0.00104357 4.85152e-10
0 -0.0101542 0.00104357 3.53045e-07
1.35525e-20 0.0101542 0.00131779 5.86994e-10
1.35525e-20 -0.0101542 0.00131779 4.05747e-07
0 0.0102506 0.000298259 6.1879e-10
-1.35525e-20 -0.0102506 0.00029826 3.424e-07
-1.35525e-20 0.0102543 0.000875898 3.9971e-10
0 -0.0102543 0.000875897 3.11799e-07
0 0.0101542 0.00181774 8.20303e-10
1.35525e-20 -0.0101542 0.00181774 5.42866e-07
-1.35525e-20 0.0103268 1.10555e-07 1.09302e-09
-1.35525e-20 -0.0103268 1.10554e-07 4.38508e-07
0 0.0102523 0.00124394 5.71146e-10
0 -0.0102523 0.00124394 3.97805e-07
2.71051e-20 0.0101542 0.002087 9.79052e-10
-2.71051e-20 -0.0101542 0.002087 6.46366e-07
-1.35525e-20 0.0103709 0.000111967 1.07214e-09
0 -0.0103709 0.000111968 4.35068e-07
0 -0.0103677 0.000675216 2.62133e-07
-1.35525e-20 0.0103677 0.000675216 3.01594e-10
-1.35525e-20 0.0102487 0.0018202 8.3939e-10
0 -0.0102487 0.0018202 5.55405e-07
4.06576e-20 -0.0103636 0.00148271 4.45303e-07
0 0.0103636 0.00148271 6.64907e-10
-1.35525e-20 0.0102712 0.00214806 1.0824e-09
0 -0.0102712 0.00214806 7.07049e-07
-1.35525e-20 0.0103514 0.00204723 1.06771e-09
0 -0.0103515 0.00204723 6.98336e-07
0 -0.0106317 0.000607139 2.92813e-07
-7.52918e-21 0.0106317 0.00060714 6.05296e-10
-6.77626e-21 -0.0106102 0.00112187 2.32305e-07
5.64689e-21 0.0106102 0.00112187 3.33766e-10
2.71051e-20 -0.0106774 0.000276333 5.04672e-07
0 0.0106774 0.000276333 1.32868e-09
9.03502e-21 -0.0106161 0.00164334 4.4777e-07
4.51751e-21 0.0106161 0.00164334 6.74706e-10
6.77626e-21 -0.0107648 4.28324e-08 7.97432e-07
0 0.0107648 4.28305e-08 1.96559e-09
0 -0.0105533 0.0022953 8.54936e-07
0 0.0105533 0.0022953 1.34258e-09
-2.71051e-20 -0.01063 0.00198748 7.71524e-07
-2.71051e-20 0.01063 0.00198748 1.18136e-09
0 -0.0108244 8.90628e-05 8.14774e-07
0 0.0108244 8.90541e-05 1.99778e-09
-1.35525e-20 -0.0106418 0.00222461 8.59754e-07
0 0.0106418 0.00222461 1.35159e-09
-1.35525e-20 -0.0108971 2.09162e-08 9.76642e-07
0 0.0108971 2.09164e-08 2.32883e-09
-1.35525e-20 -0.0106478 0.00234462 9.06949e-07
0 0.0106478 0.00234461 1.43687e-09
0 -0.0108702 0.00088437 1.0162e-07
0 0.0108702 0.000884371 1.90521e-10
2.71051e-20 -0.0108765 0.00145343 1.23372e-07
0 0.0108765 0.00145343 1.74965e-10
0 0.0107254 0.0023851 1.52321e-09
-1.35525e-20 -0.0107254 0.0023851 9.45432e-07
1.35525e-20 0.0110033 1.81925e-08 2.61523e-09
0 -0.0110033 1.81919e-08 1.11574e-06
1.35525e-20 0.0107624 0.00231965 1.51532e-09
0 -0.0107624 0.00231965 9.41645e-07
0 0.0110153 7.96742e-05 2.60082e-09
0 -0.0110153 7.96834e-05 1.10936e-06
-1.12938e-21 -0.0110632 0.000577057 5.75789e-07
-2.25875e-21 0.0110632 0.000577058 1.34488e-09
-1.12938e-21 -0.0111416 0.00118798 1.38111e-07
-1.12938e-21 0.0111416 0.00118798 2.53956e-10
1.35525e-21 -0.0110829 0.0018675 4.71173e-07
9.03502e-22 0.0110829 0.0018675 7.34339e-10
0 -0.0110229 0.00226207 1.03145e-06
0 0.0110229 0.00226208 1.68624e-09
2.71051e-20 0.0113157 0.000285027 3.32309e-09
-2.71051e-20 -0.0113157 0.000285023 1.44449e-06
0 -0.0110601 0.00255975 1.09075e-06
-6.77626e-21 0.0110601 0.00255975 1.73793e-09
6.77626e-21 -0.0110969 0.00251423 1.09158e-06
6.77626e-21 0.0110969 0.00251423 1.7374e-09
0 -0.011119 0.00259052 1.11318e-06
0 0.011119 0.00259052 1.75458e-09
2.71051e-20 -0.0114092 0.000887746 2.21475e-07
0 0.0114092 0.000887747 4.8629e-10
-6.77626e-21 0.0111709 0.00261751 1.77068e-09
6.77626e-21 -0.0111709 0.00261751 1.12961e-06
6.77626e-21 -0.0111905 0.00257812 1.12819e-06
1.35525e-20 0.0111905 0.00257812 1.76869e-09
0 -0.0114292 0.00153027 1.0557e-07
0 0.0114292 0.00153027 1.65167e-10
6.77626e-21 0.0115336 3.98168e-09 4.00846e-09
6.77626e-21 -0.0115337 3.98217e-09 1.82957e-06
0 -0.011316 0.00229781 8.25522e-07
0 0.011316 0.00229782 1.2852e-09
6.77626e-21 0.0115492 5.75064e-05 4.01617e-09
0 -0.0115493 5.75224e-05 1.83425e-06
0 0.0116095 2.02397e-09 4.1889e-09
6.77626e-21 -0.0116096 2.02388e-09 1.93379e-06
-2.71051e-20 -0.0114857 0.00207363 2.45631e-07
0 0.0114857 0.00207364 3.38663e-10
0 0.0116746 1.84338e-09 4.34404e-09
6.77626e-21 -0.0116747 1.84324e-09 2.02027e-06
0 0.011679 5.25147e-05 4.34059e-09
0 -0.0116791 5.25298e-05 2.01843e-06
0 0.0116878 0.000581186 2.43479e-09
1.12938e-21 -0.0116878 0.000581184 1.12053e-06
2.71051e-20 -0.0114474 0.00253473 1.18648e-06
0 0.0114475 0.00253474 1.81321e-09
1.12938e-21 -0.0117411 0.00120508 2.2087e-07
-1.69407e-21 0.0117411 0.00120508 4.62173e-10
0 -0.0115287 0.00280389 1.7692e-06
6.77626e-21 0.0115287 0.00280391 2.68308e-09
0 -0.01155 0.00277247 1.776e-06
0 0.01155 0.00277248 2.69281e-09
-2.25875e-21 -0.0117713 0.00182833 2.34507e-07
-5.64689e-22 0.0117713 0.00182833 3.52881e-10
-6.77626e-21 -0.0115729 0.0028269 1.9161e-06
0 0.0115729 0.00282691 2.90404e-09
0 -0.0116142 0.00284883 2.06094e-06
6.77626e-21 0.0116142 0.00284884 3.1198e-09
-6.77626e-21 -0.0116388 0.00280394 2.05143e-06
0 0.0116388 0.00280395 3.10505e-09
5.64689e-22 -0.0117403 0.00237663 1.13613e-06
2.25875e-21 0.0117404 0.00237664 1.69913e-09
5.42101e-20 0.0119843 0.000286092 5.04884e-09
-2.71051e-20 -0.0119843 0.000286091 2.41742e-06
-2.71051e-20 -0.0120413 0.000886344 3.76366e-07
0 0.0120413 0.000886345 8.46875e-10
-5.42101e-20 -0.0120819 0.00151673 1.78008e-07
0 0.0120819 0.00151673 3.45617e-10
-2.71051e-20 -0.0119435 0.00269977 2.64359e-06
0 0.0119435 0.00269979 3.98494e-09
-6.77626e-21 0.0122585 2.35686e-10 5.47232e-09
0 -0.0122585 2.35721e-10 2.66893e-06
0 0.0122629 3.33592e-05 5.47337e-09
6.77626e-21 -0.012263 3.33761e-05 2.66962e-06
2.71051e-20 -0.0120908 0.00215653 4.10002e-07
0 0.0120908 0.00215653 5.66249e-10
0 0.0122996 1.21642e-10 5.52448e-09
0 -0.0122997 1.21624e-10 2.70113e-06
-6.77626e-21 0.0123364 1.15215e-10 5.57423e-09
0 -0.0123366 1.15195e-10 2.72402e-06
-6.77626e-21 0.012338 2.92482e-05 5.57423e-09
0 -0.0123381 2.92633e-05 2.72402e-06
0 -0.0119749 0.00303994 2.56655e-06
0 0.011975 0.00303995 4.06061e-09
0 0.0123477 0.000568685 3.53506e-09
2.25875e-21 -0.0123477 0.000568684 1.57344e-06
0 -0.0120029 0.0029997 2.56397e-06
6.77626e-21 0.012003 0.00299971 4.05861e-09
0 -0.012014 0.00306072 2.54631e-06
6.77626e-21 0.0120141 0.00306073 4.07349e-09
6.77626e-21 -0.0120517 0.00308065 2.52922e-06
-6.77626e-21 0.0120518 0.00308066 4.09018e-09
6.77626e-21 -0.0120701 0.00304376 2.52888e-06
0 0.0120702 0.00304377 4.08664e-09
1.69407e-21 -0.0123957 0.00118429 3.52626e-07
0 0.0123957 0.00118429 1.05489e-09
0 -0.0124154 0.00184242 3.46717e-07
-1.12938e-21 0.0124154 0.00184242 5.43077e-10
-1.35525e-21 -0.0123818 0.00255904 1.36261e-06
0 0.0123818 0.00255905 2.06315e-09
0 0.012651 0.000272684 6.0015e-09
0 -0.012651 0.00027269 2.97948e-06
0 -0.0123509 0.00296128 2.4375e-06
0 0.0123509 0.00296129 4.13627e-09
2.71051e-20 0.0126986 0.000851202 2.1915e-09
-2.71051e-20 -0.0126986 0.000851197 4.9154e-07
5.42101e-20 -0.0127386 0.00148681 3.64149e-07
-2.71051e-20 0.0127386 0.00148681 8.3338e-10
0 -0.0124094 0.00326998 2.44687e-06
0 0.0124094 0.00326999 4.07577e-09
-6.77626e-21 -0.0124311 0.00323665 2.44561e-06
0 0.0124312 0.00323666 4.07219e-09
-6.77626e-21 -0.0124456 0.00328913 2.44431e-06
6.77626e-21 0.0124456 0.00328914 4.06167e-09
0 -0.0124806 0.00330747 2.44431e-06
0 0.0124806 0.00330748 4.04404e-09
0 -0.012495 0.00327721 2.44325e-06
0 0.012495 0.00327723 4.04236e-09
0 -0.0127373 0.00217209 4.33103e-07
-5.42101e-20 0.0127373 0.00217209 4.35136e-10
-1.69407e-21 -0.0129741 5.65819e-12 2.97702e-06
1.69407e-21 0.0129741 5.65714e-12 8.53212e-09
0 -0.0129746 9.31075e-06 2.97702e-06
1.69407e-21 0.0129746 9.29611e-06 8.53212e-09
0 -0.0126307 0.00298498 1.86221e-06
0 0.0126307 0.00298499 2.98846e-09
-1.69407e-21 -0.0129857 3.6289e-12 2.97583e-06
0 0.0129857 3.6307e-12 8.61172e-09
1.69407e-21 0.0129965 7.57985e-06 8.8245e-09
-1.69407e-21 -0.0129965 7.59166e-06 2.97338e-06
-1.69407e-21 0.0129967 3.57671e-12 8.81302e-09
-3.38813e-21 -0.0129967 3.57485e-12 2.97373e-06
-8.47033e-22 0.0130091 0.000523313 9.38472e-09
2.82344e-22 -0.0130091 0.000523311 1.86314e-06
-1.05879e-22 0.0130269 0.00111835 5.51744e-09
-7.41154e-22 -0.0130272 0.00111832 7.01228e-07
0 -0.0127919 0.00274345 6.66998e-07
2.71051e-20 0.0127919 0.00274346 8.02117e-10
1.05879e-22 0.0130596 0.00107364 6.0165e-09
7.41154e-22 -0.0130596 0.001074 7.99506e-07
-2.11758e-22 0.0130622 0.00111376 5.76713e-09
0 -0.0130642 0.00111354 7.21073e-07
0 -0.0127558 0.00321819 2.44088e-06
0 0.0127558 0.0032182 3.95548e-09
-1.69407e-21 -0.0131793 2.72144e-12 3.58963e-06
0 0.0131795 2.72155e-12 5.58097e-08
-5.99982e-22 0.0130717 0.00181695 1.35689e-09
0 -0.0130717 0.00181692 7.33227e-07
6.77626e-21 -0.012831 0.00349155 3.55181e-06
6.77626e-21 0.0128311 0.00349157 5.81789e-09
0 -0.0128493 0.00346319 3.5627e-06
6.77626e-21 0.0128494 0.00346321 5.83535e-09
5.42101e-20 0.0133093 0.000237076 1.14135e-08
0 -0.0133094 0.00023707 2.96507e-06
-7.05861e-22 -0.0130828 0.00247294 8.18894e-07
-4.23516e-22 0.0130828 0.00247294 9.19038e-10
-6.77626e-21 -0.0128661 0.00350997 3.75839e-06
0 0.0128662 0.00350999 6.22426e-09
0 -0.0129007 0.00352804 3.999e-06
-6.77626e-21 0.0129008 0.00352806 6.60444e-09
-2.71051e-20 0.0133556 0.00075963 1.70478e-08
0 -0.0133557 0.000759628 9.59734e-07
0 -0.0129237 0.00348634 3.98096e-06
6.77626e-21 0.0129237 0.00348637 6.57035e-09
0 -0.0130384 0.00304619 2.35848e-06
1.69407e-21 0.0130384 0.0030462 3.67503e-09
-2.71051e-20 0.013427 0.001376 3.27871e-09
0 -0.013427 0.00137599 1.04829e-06
2.71051e-20 -0.0134136 0.00210978 1.13148e-06
2.71051e-20 0.0134136 0.00210979 1.2331e-09
2.71051e-20 -0.0132269 0.00336666 5.07386e-06
0 0.0132269 0.00336668 8.3784e-09
0 0.013648 0.000454486 1.24988e-07
0 -0.013648 0.000454497 3.95449e-06
-2.71051e-20 -0.0133902 0.00280379 1.07308e-06
0 0.0133902 0.0028038 1.2323e-09
3.38813e-21 0.0137151 2.8075e-13 1.78972e-07
3.38813e-21 -0.0137152 2.80907e-13 5.20123e-06
0 0.0137159 2.06276e-05 1.79796e-07
0 -0.013716 2.06975e-05 5.21112e-06
0 0.0137165 0.000169655 1.69357e-07
6.77626e-21 -0.0137166 0.000170015 4.84781e-06
-3.38813e-21 0.0137459 2.40788e-14 1.87443e-07
-3.38813e-21 -0.0137461 2.3368e-14 5.32395e-06
0 -0.013245 0.00370834 5.02205e-06
0 0.0132451 0.00370836 8.66338e-09
0 0.0137656 1.52129e-05 1.83647e-07
3.38813e-21 -0.0137659 1.52648e-05 5.30292e-06
0 0.0137671 1.75123e-14 1.83061e-07
0 -0.0137675 1.67966e-14 5.29815e-06
6.77626e-21 -0.0132718 0.0036714 5.01974e-06
0 0.0132719 0.00367142 8.66084e-09
0 -0.0132782 0.00372571 4.99769e-06
0 0.0132783 0.00372573 8.73259e-09
-1.12938e-21 0.0137896 0.000885059 9.52351e-08
0 -0.0137896 0.000885057 4.04477e-06
-6.77626e-21 0.0138204 1.18218e-14 1.96508e-07
0 -0.0138208 1.11447e-14 5.7717e-06
0 -0.0133096 0.00374322 5.02234e-06
6.77626e-21 0.0133097 0.00374323 8.77807e-09
6.77626e-21 -0.0133282 0.00371043 5.02046e-06
-6.77626e-21 0.0133283 0.00371044 8.7691e-09
-2.82344e-22 0.0137515 0.00171046 5.83849e-09
8.47033e-22 -0.0137515 0.00171046 2.5819e-06
0 0.0136783 0.0024632 1.73719e-09
0 -0.0136788 0.00246319 1.94335e-06
-3.59989e-21 0.013721 0.00246185 1.7948e-09
-9.74088e-21 -0.013721 0.00246186 2.02174e-06
8.47033e-22 -0.0137186 0.00248611 2.05439e-06
1.05879e-22 0.0137186 0.00248639 1.87857e-09
-2.25875e-22 -0.0136619 0.00322322 3.07448e-06
-4.51751e-22 0.0136619 0.00322323 4.46886e-09
0 -0.013613 0.00362484 4.9426e-06
2.71051e-20 0.013613 0.00362486 8.98806e-09
-8.47033e-22 0.0141333 0.000318961 4.37083e-07
2.82344e-22 -0.0141334 0.000318978 9.50358e-06
2.71051e-20 0.014088 0.00127938 1.61319e-08
-2.71051e-20 -0.014088 0.00127938 4.24051e-06
0 0.014059 0.00206597 3.7946e-09
0 -0.014059 0.00206597 4.02157e-06
0 -0.0136636 0.00393548 4.77659e-06
-3.38813e-21 0.0136637 0.00393551 8.69623e-09
3.38813e-21 -0.0136786 0.00391516 4.77352e-06
-3.38813e-21 0.0136787 0.00391521 8.68967e-09
3.38813e-20 0.0142351 2.9685e-15 4.02691e-07
0 -0.0142352 2.82035e-15 9.43632e-06
-3.38813e-21 -0.0136842 0.00394696 4.75543e-06
0 0.0136843 0.00394697 8.66485e-09
3.38813e-21 -0.0137015 0.00395978 4.75101e-06
0 0.0137016 0.00395978 8.63707e-09
3.38813e-21 -0.0137143 0.00394396 4.74985e-06
0 0.0137143 0.00394398 8.63483e-09
2.71051e-20 -0.0140215 0.00281646 2.01006e-06
-2.71051e-20 0.0140215 0.00281646 1.07806e-09
-1.50584e-21 -0.013895 0.00367137 3.78247e-06
-7.52918e-22 0.013895 0.00367138 6.31979e-09
4.8626e-22 -0.0144216 0.000792956 1.00482e-05
-1.56858e-22 0.0144216 0.000792939 1.34333e-07
0 -0.014453 3.04526e-16 1.20251e-05
2.71051e-20 0.0144531 3.07448e-16 2.34109e-07
0 0.0143962 0.00165212 1.24811e-08
-2.82344e-22 -0.0143962 0.00165211 7.1912e-06
-2.71051e-20 -0.0140801 0.00343826 1.82612e-06
2.71051e-20 0.0140801 0.00343826 1.61556e-09
-2.71051e-20 -0.0140066 0.00392192 4.53047e-06
2.71051e-20 0.0140066 0.00392193 8.24154e-09
2.03288e-20 0.0143632 0.00242485 3.22125e-09
2.58345e-20 -0.0143665 0.00242469 5.30403e-06
-2.11758e-22 -0.0143623 0.00267349 4.56982e-06
-2.11758e-22 0.0143623 0.00267458 2.57932e-09
0 -0.0140362 0.00420868 4.18399e-06
0 0.0140362 0.00420869 8.46464e-09
0 -0.014043 0.00420183 4.18198e-06
-1.69407e-21 0.014043 0.00420185 8.46314e-09
-1.69407e-21 -0.0140443 0.00421476 4.16593e-06
1.69407e-21 0.0140444 0.00421477 8.47266e-09
0 0.0140522 0.00422058 8.48721e-09
0 -0.0140522 0.00422057 4.15444e-06
-1.69407e-21 0.0140564 0.00421301 8.48483e-09
0 -0.0140564 0.004213 4.15408e-06
-2.71051e-20 -0.0146839 -1.74587e-17 1.62963e-05
-2.71051e-20 0.014684 -1.48501e-17 2.8468e-07
0 -0.0143543 0.0031309 3.1817e-06
-4.23516e-22 0.0143543 0.00313091 1.38242e-09
0 -0.0143605 0.00313713 3.19964e-06
0 0.0143548 0.00313704 1.38605e-09
0 -0.0147037 0.000271518 1.70423e-05
0 0.0147037 0.000271561 2.72716e-07
0 0.014356 0.00330018 2.15006e-09
-4.23516e-22 -0.014356 0.00330043 3.16557e-06
0 0.0147328 0.00124141 2.45063e-08
0 -0.0147328 0.00124141 1.16249e-05
-6.35275e-22 -0.0146156 0.00238839 7.61732e-06
0 0.0146171 0.00238816 3.94397e-09
0 0.0146909 0.00203584 6.11068e-09
0 -0.0146909 0.00203584 9.07311e-06
2.42009e-22 0.0143356 0.00382207 4.79929e-09
4.43684e-22 -0.0143356 0.00382206 3.16309e-06
0 -0.0143244 0.00417019 3.76306e-06
0 0.0143244 0.0041702 8.58437e-09
8.47033e-22 -0.014279 0.00438886 3.99872e-06
-8.47033e-22 0.014279 0.00438882 8.79204e-09
-2.71051e-20 0.0146905 0.00275577 1.94991e-09
0 -0.0146905 0.00275577 6.10382e-06
2.82344e-22 0.0149562 0.00165197 1.44635e-08
1.41172e-22 -0.0149585 0.00165056 1.34705e-05
2.71051e-20 -0.0146586 0.00346816 3.12502e-06
0 0.0146586 0.00346816 9.20677e-10
8.47033e-22 -0.0144053 0.00448257 3.91074e-06
0 0.0144084 0.00447896 8.95605e-09
-6.77626e-21 -0.0151189 -5.5903e-17 2.03368e-05
-3.38813e-21 0.0151192 -5.49994e-17 2.0048e-07
0 -0.0144514 0.00451673 4.2367e-06
-4.23516e-21 0.0144515 0.00451673 9.87718e-09
0 -0.0151608 3.48457e-05 2.10125e-05
0 0.0151609 3.46302e-05 1.90756e-07
3.38813e-21 -0.0151663 -1.81511e-17 2.10022e-05
-3.38813e-21 0.0151663 -1.7962e-17 1.90958e-07
-3.38813e-21 -0.0145673 0.00422607 3.21428e-06
2.63521e-21 0.0145673 0.00422607 6.58946e-09
0 0.0151841 -1.09408e-17 1.91149e-07
-3.38813e-21 -0.0151841 -1.0993e-17 2.10628e-05
0 -0.0151655 0.000867912 1.85378e-05
0 0.0151655 0.000867909 1.04173e-07
3.38813e-21 0.0152147 -1.10521e-17 1.89206e-07
0 0.0152148 2.27204e-05 1.89187e-07
3.38813e-21 -0.015215 -1.11033e-17 2.14612e-05
0 -0.015215 2.28647e-05 2.14641e-05
2.71051e-20 -0.0147125 0.00402551 1.85348e-06
2.71051e-20 0.0147125 0.00402552 1.88164e-09
-4.23516e-22 -0.0150841 0.00231349 1.19517e-05
0 0.0150841 0.0023135 5.30411e-09
0 -0.0150901 0.00232073 1.19812e-05
0 0.015084 0.00232059 5.28697e-09
-1.41172e-22 -0.0149792 0.0031214 8.0111e-06
-1.41172e-22 0.0149792 0.0031214 1.87132e-09
2.71051e-20 -0.0146794 0.00445852 4.00536e-06
5.42101e-20 0.0146795 0.00445852 9.19961e-09
0 0.0149711 0.00367516 1.73928e-09
2.11758e-22 -0.0149711 0.00367537 5.13143e-06
0 0.0149706 0.00377567 1.71692e-09
0 -0.0149706 0.00377568 4.60675e-06
6.77626e-21 -0.0147268 0.00472094 5.88668e-06
0 0.0147268 0.00472094 1.4588e-08
0 -0.0147397 0.0047038 5.89917e-06
6.77626e-21 0.0147397 0.0047038 1.46233e-08
6.77626e-21 -0.0147494 0.00473773 6.03478e-06
6.77626e-21 0.0147494 0.00473773 1.51556e-08
8.47033e-22 -0.0150248 0.0037779 5.34779e-06
-8.47033e-22 0.0150249 0.0037779 1.74528e-09
-6.77626e-21 -0.0147753 0.00475693 6.41738e-06
-6.77626e-21 0.0147753 0.00475692 1.65361e-08
0 0.0147957 0.00471952 1.62974e-08
6.77626e-21 -0.0147957 0.00471952 6.36028e-06
1.69407e-21 0.0149238 0.00432823 9.03678e-09
0 -0.0149238 0.00432823 4.59572e-06
2.11758e-22 0.0149301 0.00431631 8.83256e-09
-1.37643e-20 -0.0149308 0.00431431 4.54537e-06
2.71051e-20 0.0153071 0.00276682 3.27203e-09
0 -0.0153071 0.00276682 1.2949e-05
2.75286e-21 -0.0149537 0.00432327 4.70359e-06
-6.35275e-22 0.0149537 0.00432327 8.93571e-09
2.71051e-20 -0.0152762 0.00345526 9.89938e-06
-2.71051e-20 0.0152762 0.00345526 1.37176e-09
0 0.015665 0.00170495 1.26671e-08
0 -0.015665 0.00170495 2.47859e-05
-2.71051e-20 0.0150898 0.00463314 2.12461e-08
-5.42101e-20 -0.0150898 0.00463315 8.14468e-06
0 -0.0152566 0.00410558 4.14892e-06
2.71051e-20 0.0152566 0.00410558 2.66768e-09
-2.11758e-22 0.0156482 0.00239974 6.39852e-09
7.05861e-23 -0.0156482 0.00239974 2.32576e-05
-6.77626e-21 0.0150378 0.00495165 2.241e-08
6.77626e-21 -0.0150378 0.00495167 8.28024e-06
0 0.0158311 0.00050574 9.39129e-08
1.0842e-19 -0.0158311 0.000505741 3.23446e-05
-1.35525e-20 0.0150929 0.00489487 2.23517e-08
1.35525e-20 -0.0150929 0.0048949 8.29628e-06
0 0.0150892 0.00498978 2.20938e-08
0 -0.0150892 0.0049898 8.13798e-06
8.47033e-22 -0.015606 0.0031034 1.89757e-05
-2.82344e-22 0.015606 0.0031034 3.10681e-09
-6.77626e-21 0.0151439 0.00503033 2.30495e-08
6.77626e-21 -0.0151439 0.00503034 8.4899e-06
-1.35525e-20 -0.0151784 0.00496291 8.47576e-06
-1.35525e-20 0.0151784 0.0049629 2.29052e-08
2.25875e-22 0.0155884 0.00378776 2.09413e-09
7.90564e-22 -0.0155884 0.00378777 1.34716e-05
-2.03288e-21 0.0155033 0.00450865 1.12798e-08
-6.77626e-22 -0.0155033 0.00450866 8.30893e-06
2.71051e-20 0.0154178 0.0049056 2.34891e-08
-2.71051e-20 -0.0154178 0.0049056 8.63061e-06
5.42101e-20 -0.0159469 0.00273841 3.06135e-05
0 0.0159469 0.00273841 5.38553e-09
6.77626e-21 0.0153971 0.00521817 2.37033e-08
6.77626e-21 -0.0153971 0.00521817 8.96584e-06
0 -0.015903 0.0034351 2.25664e-05
-2.71051e-20 0.015903 0.0034351 2.43371e-09
0 0.0154387 0.00517349 2.36211e-08
-6.77626e-21 -0.0154387 0.00517349 8.97976e-06
0 -0.0154377 0.00524826 8.91963e-06
-6.77626e-21 0.0154377 0.00524826 2.30524e-08
1.27055e-21 0.0163339 -1.19726e-18 1.11008e-07
4.23516e-22 -0.0163364 -1.1809e-18 4.42296e-05
-6.77626e-21 0.0154764 0.00527696 2.35513e-08
0 -0.0154764 0.00527696 9.27676e-06
0 0.0155053 0.00524155 2.352e-08
0 -0.0155053 0.00524155 9.25959e-06
5.29396e-21 0.0163537 0.00112142 6.02486e-08
-2.11758e-22 -0.0163543 0.00112154 4.74492e-05
0 0.0158756 0.0041209 1.70265e-09
-2.71051e-20 -0.0158756 0.00412091 1.47244e-05
3.74812e-20 0.0163741 0.00112742 5.93836e-08
-3.02814e-20 -0.0163767 0.0011276 4.79727e-05
0 -0.0156933 0.00495313 8.17776e-06
0 0.0156933 0.00495313 1.73028e-08
0 0.0164702 3.16747e-06 1.01513e-07
-4.23516e-22 -0.0164638 2.59234e-06 4.68761e-05
-2.25875e-21 0.0163214 0.00227442 9.91636e-09
1.12938e-21 -0.0163214 0.00227441 4.1053e-05
2.25875e-22 -0.0162376 0.00307739 3.25345e-05
3.38813e-22 0.0162376 0.0030774 4.97861e-09
0 0.0159046 0.00473208 4.45266e-09
-2.71051e-20 -0.0159046 0.00473208 6.24015e-06
2.71051e-20 0.0157801 0.0052058 2.33337e-08
-2.71051e-20 -0.0157801 0.00520581 9.57581e-06
5.64689e-22 0.0162469 0.00372972 3.05735e-09
2.82344e-21 -0.0162469 0.00372972 2.71714e-05
0 -0.0157746 0.00549809 9.17891e-06
0 0.0157746 0.00549809 2.44382e-08
0 -0.0158015 0.00547415 9.16415e-06
6.77626e-21 0.0158015 0.00547415 2.44277e-08
0 0.015805 0.00552064 2.46708e-08
0 -0.015805 0.00552065 9.09455e-06
6.77626e-21 0.0158347 0.00554269 2.4833e-08
6.77626e-21 -0.0158347 0.00554271 9.0429e-06
0 0.015853 0.00551418 2.4804e-08
6.77626e-21 -0.015853 0.00551419 9.04055e-06
1.12938e-22 -0.0161981 0.00441892 1.74066e-05
-1.24231e-21 0.0161981 0.00441892 2.90746e-09
0 0.0166697 0.00284041 7.21367e-09
0 -0.0166697 0.00284041 4.1565e-05
2.25875e-22 -0.0161695 0.00510699 9.35759e-06
0 0.0161695 0.00510699 1.27429e-08
5.42101e-20 0.0166597 0.00328606 5.8606e-09
-2.71051e-20 -0.0166597 0.00328606 4.23092e-05
0 0.0165248 0.00409519 2.93608e-09
-5.42101e-20 -0.0165248 0.00409519 3.19424e-05
0 0.0161207 0.00547662 2.56312e-08
0 -0.0161207 0.00547663 8.55872e-06
5.42101e-20 -0.0170334 0.00057692 6.11824e-05
0 0.0170334 0.000576921 1.09829e-07
-2.11758e-22 -0.0168873 0.00239015 5.21757e-05
0 0.0168875 0.00239019 1.15108e-08
0 0.0169716 0.00176735 1.80762e-08
0 -0.0169716 0.00176735 7.30609e-05
0 -0.0169175 0.00239894 5.27797e-05
-2.11758e-22 0.0169179 0.00239497 1.1593e-08
0 0.0169439 0.00239537 1.1929e-08
-2.11758e-22 -0.016944 0.00239536 5.38193e-05
0 0.0168719 0.00305894 7.61391e-09
0 -0.0168719 0.00305894 4.32169e-05
0 -0.0161674 0.00578952 8.64745e-06
0 0.0161674 0.00578953 2.66478e-08
2.71051e-20 0.0165034 0.00475626 2.45014e-09
2.71051e-20 -0.0165034 0.00475626 1.57297e-05
0 -0.0161836 0.0057701 8.64267e-06
0 0.0161836 0.00577012 2.66399e-08
6.77626e-21 -0.0161897 0.00580604 8.65842e-06
0 0.0161897 0.00580604 2.67882e-08
0 0.0162121 0.00582274 2.67389e-08
0 -0.0162122 0.00582275 8.64667e-06
0 0.0162243 0.00580495 2.67216e-08
-6.77626e-21 -0.0162243 0.00580495 8.64043e-06
-1.12938e-22 -0.0168523 0.00374134 4.0662e-05
0 0.0168523 0.00374134 6.00584e-09
-4.23516e-22 0.0163973 0.00553969 1.95387e-08
0 -0.0163973 0.00553969 8.16662e-06
0 -0.0170978 0.00283719 4.52251e-05
2.71051e-20 0.0170978 0.00283718 9.63463e-09
2.71051e-20 -0.0170665 0.00327483 4.45422e-05
2.71051e-20 0.0170665 0.00327483 7.94614e-09
2.71051e-20 0.0165625 0.00532761 5.0019e-09
0 -0.0165626 0.0053276 7.07218e-06
-2.82344e-22 0.0168336 0.0044175 4.47403e-09
2.82344e-22 -0.0168336 0.00441751 3.24681e-05
0 0.0164976 0.00578806 2.75606e-08
0 -0.0164976 0.00578806 8.6418e-06
-3.38813e-22 0.0168265 0.00507001 5.16486e-09
-2.25875e-22 -0.0168265 0.00507001 1.77429e-05
0 0.0176289 1.51894e-05 1.37817e-07
-3.38813e-21 -0.0176289 1.51557e-05 7.5602e-05
0 0.0176298 -6.86503e-23 1.37813e-07
0 -0.0176298 -6.83393e-23 7.55989e-05
8.47033e-22 -0.0176062 0.00116021 8.7346e-05
-2.82344e-22 0.0176062 0.00116021 8.20148e-08
0 -0.0176451 -1.78387e-23 7.6002e-05
0 0.0176451 -1.76965e-23 1.384e-07
0 0.0171749 0.00405965 7.49196e-09
2.71051e-20 -0.0171749 0.00405966 4.63869e-05
0 -0.0176602 1.5443e-05 7.63877e-05
3.38813e-21 0.0176603 1.54771e-05 1.39005e-07
0 -0.0176607 -2.00316e-23 7.63884e-05
0 0.0176607 -1.99007e-23 1.39007e-07
6.77626e-21 0.0165809 0.00609703 3.92472e-08
0 -0.0165809 0.00609703 9.78714e-06
0 0.0165981 0.00608064 3.9363e-08
6.77626e-21 -0.0165981 0.00608064 9.79263e-06
0 -0.016605 0.00611494 9.85426e-06
0 0.016605 0.00611495 4.03938e-08
0 -0.0166198 0.0061272 9.67088e-06
0 0.0166198 0.00612721 3.9958e-08
0 -0.0166291 0.00611137 9.67957e-06
0 0.0166291 0.00611138 3.99956e-08
0 0.0175901 0.00236116 2.01491e-08
0 -0.0175901 0.00236116 7.93473e-05
0 -0.0166534 0.00615457 9.717e-06
0 0.0166534 0.00615459 4.06089e-08
-7.52918e-22 -0.0168284 0.00572854 1.06015e-05
-7.52918e-22 0.0168284 0.00572853 2.56116e-08
7.05861e-23 0.0175166 0.00305113 1.46125e-08
3.5293e-22 -0.0175166 0.00305113 5.84234e-05
0 0.0171428 0.00473441 5.11866e-09
-2.71051e-20 -0.0171428 0.00473441 3.60097e-05
-1.12938e-21 0.017534 0.00360681 1.40444e-08
-2.25875e-21 -0.017534 0.00360681 5.60003e-05
2.71051e-20 0.0171172 0.00539736 5.8623e-09
-2.71051e-20 -0.0171172 0.00539736 1.46672e-05
-2.25875e-22 -0.01747 0.00438795 4.85788e-05
2.25875e-22 0.01747 0.00438795 1.14554e-08
6.77626e-21 -0.0168947 0.00636213 9.5705e-06
1.35525e-20 0.0168947 0.00636213 5.00534e-08
0 -0.0170243 0.00618637 9.85022e-06
0 0.017024 0.00618835 5.16863e-08
8.47033e-22 0.0174372 0.00507024 8.54602e-09
2.82344e-22 -0.0174372 0.00507024 3.54321e-05
1.0842e-19 -0.0182236 0.000583086 9.09965e-05
0 0.0182236 0.000583086 1.67182e-07
0 0.0177925 0.00405319 1.83998e-08
-2.71051e-20 -0.0177925 0.00405319 5.75071e-05
-5.42101e-20 -0.018201 0.00177192 0.000124524
0 0.018201 0.00177192 3.03118e-08
-1.12938e-21 -0.0173656 0.00581376 1.74642e-05
1.58113e-21 0.0173656 0.00581376 2.40233e-08
0 0.0171242 0.00658581 5.16923e-08
0 -0.0171242 0.00658582 1.05909e-05
2.71051e-20 0.0177701 0.0047233 1.45772e-08
-5.42101e-20 -0.0177701 0.0047233 5.35301e-05
6.77626e-21 0.0171594 0.0066222 5.20181e-08
-6.77626e-21 -0.0171594 0.0066222 1.07469e-05
0 0.0171745 0.00660974 5.21716e-08
0 -0.0171745 0.00660974 1.07607e-05
-6.77626e-21 0.0171745 0.00663768 5.3452e-08
0 -0.0171745 0.00663768 1.08971e-05
-5.42101e-20 0.0181606 0.00305643 2.63409e-08
-5.42101e-20 -0.0181606 0.00305643 8.61315e-05
0 -0.01719 0.00665349 1.05855e-05
0 0.01719 0.00665349 5.21801e-08
6.77626e-21 -0.0172014 0.00663722 1.06115e-05
0 0.0172014 0.00663722 5.23313e-08
-3.38813e-21 -0.017284 0.00651867 1.11012e-05
-3.38813e-21 0.017284 0.00651867 4.73723e-08
6.77626e-21 -0.0172277 0.00669185 1.05763e-05
0 0.0172277 0.00669185 5.26607e-08
1.41172e-22 -0.0181264 0.00381062 6.75683e-05
1.41172e-22 0.0181264 0.00381066 3.05996e-08
0 -0.0177303 0.00540333 3.8003e-05
0 0.0177303 0.00540333 8.892e-09
-3.01167e-21 -0.0174485 0.00633775 1.18997e-05
0 0.0174485 0.00633776 3.91887e-08
-2.82344e-22 0.0181015 0.00437909 2.97543e-08
0 -0.0181015 0.00437909 5.94491e-05
2.71051e-20 0.0177286 0.00604036 1.01399e-08
-2.71051e-20 -0.0177286 0.00604036 1.55562e-05
-5.64689e-22 0.018075 0.00504761 2.38826e-08
5.64689e-22 -0.018075 0.00504762 5.20554e-05
-6.77626e-21 -0.0174666 0.00693495 9.41252e-06
-6.77626e-21 0.0174666 0.00693496 5.61377e-08
0 0.0188065 1.6283e-05 2.1036e-07
0 -0.0188065 1.62599e-05 0.000106967
0 0.0188069 2.06869e-24 2.10357e-07
0 -0.0188069 2.05913e-24 0.000106966
0 -0.0188233 -2.46345e-25 0.000107424
3.38813e-21 0.0188233 -2.46725e-25 2.11582e-07
0 -0.0188396 1.62155e-05 0.000107879
0 0.0188396 1.62383e-05 2.12786e-07
0 -0.0188397 -2.41124e-25 0.00010788
0 0.0188397 -2.41491e-25 2.12789e-07
0 -0.0188091 0.00116454 0.000129036
5.64689e-22 0.0188091 0.00116454 1.2773e-07
0 0.0184387 0.00403102 4.47875e-08
2.71051e-20 -0.0184387 0.00403102 6.8108e-05
1.41172e-22 -0.0176208 0.00677688 9.65998e-06
7.05861e-23 0.0176205 0.00677795 5.86772e-08
0 -0.0180488 0.00571123 3.7472e-05
-1.69407e-21 0.0180488 0.00571123 1.63049e-08
5.64689e-22 0.018794 0.00239227 4.86902e-08
0 -0.018794 0.00239227 0.000131662
5.42101e-20 0.0184023 0.0046998 4.10631e-08
0 -0.0184023 0.0046998 5.87297e-05
-3.38813e-21 -0.0179596 0.00643086 1.81005e-05
-1.50584e-21 0.0179596 0.00643086 3.09743e-08
0 0.0177052 0.00717767 6.27765e-08
0 -0.0177052 0.00717767 1.09962e-05
0 -0.0177437 0.00721689 1.12307e-05
-6.77626e-21 0.0177437 0.0072169 6.37517e-08
0 0.0184015 0.00534889 3.05749e-08
2.71051e-20 -0.0184015 0.00534889 5.72289e-05
0 -0.0177602 0.00720499 1.12482e-05
0 0.0177602 0.00720499 6.39659e-08
0 -0.0177596 0.00723308 1.14196e-05
0 0.0177596 0.00723309 6.57397e-08
0 -0.0177751 0.00724885 1.11005e-05
0 0.0177751 0.00724886 6.42421e-08
7.05861e-23 -0.0188307 0.00372998 8.78954e-05
7.05861e-23 0.0188307 0.00373003 6.90268e-08
-6.77626e-21 -0.017788 0.00723288 1.11264e-05
-6.77626e-21 0.017788 0.00723289 6.44157e-08
0 -0.018738 0.00435322 6.7272e-05
-4.23516e-22 0.018738 0.00435322 6.52615e-08
4.23516e-22 -0.0187376 0.00436113 6.7238e-05
2.6258e-20 0.0187376 0.00436113 6.55523e-08
6.77626e-21 -0.0178113 0.00728564 1.12201e-05
6.77626e-21 0.0178113 0.00728566 6.54912e-08
-6.77626e-21 -0.0178794 0.00711713 1.18323e-05
3.38813e-21 0.0178794 0.00711713 5.82385e-08
-2.71051e-20 -0.0183488 0.00603424 3.99424e-05
-2.71051e-20 0.0183488 0.00603424 1.65799e-08
-3.01167e-21 -0.0180548 0.00694831 1.29217e-05
0 0.0180548 0.00694832 4.85323e-08
0 -0.0194128 0.000584032 0.000123944
0 0.0194128 0.000584032 2.56224e-07
0 0.018803 0.00493677 6.67087e-08
0 -0.018803 0.00493677 6.36403e-05
-5.42101e-20 0.0194073 0.00177875 5.40151e-08
0 -0.0194073 0.00177875 0.00017776
0 -0.0183455 0.00666212 1.83053e-05
-2.71051e-20 0.0183455 0.00666212 1.41144e-08
1.12938e-21 -0.0186965 0.00568331 5.69017e-05
0 0.0186965 0.00568331 4.8241e-08
2.71051e-20 -0.0180387 0.00751698 1.09598e-05
-6.77626e-21 0.0180387 0.00751699 7.48452e-08
0 -0.0194176 0.0030161 0.000136623
-5.42101e-20 0.0194176 0.0030161 8.38347e-08
-5.64689e-22 -0.0182201 0.0073749 1.13706e-05
-1.8823e-22 0.0182201 0.0073749 7.67615e-08
-1.12938e-21 -0.0186655 0.00633955 4.24612e-05
5.64689e-22 0.0186655 0.00633956 2.99997e-08
-2.71051e-20 -0.0190338 0.00534623 6.57581e-05
0 0.0190338 0.00534623 8.50239e-08
-6.77626e-22 -0.0185755 0.00702539 2.20892e-05
-3.83988e-21 0.0185755 0.00702539 3.96653e-08
5.42101e-20 0.0193824 0.00433462 1.38628e-07
0 -0.0193824 0.00433462 7.92063e-05
3.38813e-21 0.0182812 0.00776357 6.89105e-08
3.38813e-21 -0.0182812 0.00776356 1.07451e-05
-3.38813e-21 -0.0182994 0.00778211 1.08158e-05
0 0.0182994 0.00778212 6.90692e-08
0 -0.0183082 0.00777648 1.08157e-05
-3.38813e-21 0.0183082 0.00777649 6.91085e-08
0 -0.018307 0.00778982 1.08539e-05
3.38813e-21 0.018307 0.00778983 6.97909e-08
-3.38813e-21 -0.0183179 0.00780093 1.0759e-05
0 0.0183179 0.00780095 6.9383e-08
-3.38813e-21 -0.0183258 0.0077918 1.07628e-05
0 0.0183258 0.00779181 6.94149e-08
-2.71051e-20 -0.0190082 0.00599365 6.38426e-05
0 0.0190082 0.00599365 5.99835e-08
-3.38813e-21 -0.0184198 0.00771698 1.14812e-05
1.69407e-21 0.0184198 0.00771698 6.22452e-08
3.38813e-21 0.019989 1.55635e-05 3.0428e-07
0 -0.019989 1.55498e-05 0.000137202
0 0.019989 -4.66467e-27 3.04276e-07
0 -0.0199891 -4.6553e-27 0.000137201
6.58803e-22 0.0193663 0.00500042 1.46245e-07
1.8823e-22 -0.0193663 0.00500042 7.12247e-05
3.38813e-21 -0.0200048 3.45034e-28 0.000137569
-3.38813e-21 0.0200048 3.45402e-28 3.05585e-07
0 -0.0200207 3.36263e-28 0.000137939
0 0.0200207 3.36626e-28 3.06873e-07
0 -0.0200208 1.5476e-05 0.000137938