# k  POINT_DATA 38356
# x  y  z  k
0.057587 -6.77626e-21 1.35324e-07 3.36585e-09
-0.057587 6.77626e-21 1.35324e-07 4.4033e-07
0.0575869 0 0.000409945 1.66469e-09
-0.0575869 -3.38813e-21 0.000409945 3.25639e-07
0.0575869 1.69407e-21 0.000633502 1.32094e-09
-0.0575869 0 0.000633503 2.9946e-07
0.0575868 0 0.00104356 1.6658e-09
-0.0575868 6.77626e-21 0.00104356 3.51105e-07
0.0575868 3.38813e-21 0.00145414 2.36755e-09
-0.0575868 0 0.00145414 4.64763e-07
0.0575868 -1.69407e-21 0.00167624 2.78261e-09
-0.0575868 -3.38813e-21 0.00167624 5.39141e-07
0.0575868 0 0.002087 3.58033e-09
-0.0575868 0 0.002087 6.99936e-07
0.0577687 6.77626e-21 0.000993828 1.5132e-09
-0.0577687 6.77626e-21 0.00099383 3.21302e-07
0.0577684 0 0.00110475 1.70081e-09
-0.0577684 0 0.00110475 3.50953e-07
0.0577859 0 0.000103253 2.95226e-09
-0.0577859 0 0.000103251 4.31565e-07
0.0577942 0 1.15393e-07 3.5196e-09
-0.0577942 0 1.15393e-07 4.64463e-07
0.0578027 -6.77626e-21 1.9009e-05 3.46106e-09
-0.0578027 0 1.90089e-05 4.62685e-07
-0.0578191 0 1.14264e-07 4.91578e-07
0.0578191 6.77626e-21 1.14264e-07 3.54671e-09
0.0577854 0 0.00199428 3.36192e-09
-0.0577854 0 0.00199429 6.49154e-07
0.0577823 0 0.002105 3.64502e-09
-0.0577823 0 0.002105 7.10423e-07
-0.0578229 -6.77626e-21 0.00105089 3.0884e-07
0.057823 -6.77626e-21 0.00105089 1.48049e-09
0.0578007 6.77626e-21 0.00208013 3.58504e-09
-0.0578007 -6.77626e-21 0.00208013 6.95932e-07
-0.0578427 0 5.77437e-05 4.38179e-07
0.0578427 0 5.77443e-05 3.11341e-09
-0.0578443 6.77626e-21 1.78361e-05 4.73377e-07
0.0578443 0 1.78361e-05 3.45131e-09
-0.0578469 6.77626e-21 1.13152e-07 4.76702e-07
0.0578469 0 1.13152e-07 3.48992e-09
-0.0578171 0 0.00210819 7.10768e-07
0.0578171 0 0.00210819 3.69967e-09
-0.0578434 0 0.00204429 6.44153e-07
0.0578434 0 0.00204429 3.34345e-09
-0.0578462 0 0.00208444 7.02604e-07
0.0578462 6.77626e-21 0.00208444 3.65532e-09
-0.0578583 6.77626e-21 0.00211199 7.206e-07
0.0578583 0 0.00211199 3.75796e-09
-0.0579123 3.38813e-21 0.000912365 2.7793e-07
0.0579123 0 0.000912358 1.25477e-09
-0.0579215 0 5.62241e-05 4.73069e-07
0.0579215 6.77626e-21 5.62242e-05 2.97727e-09
-0.0579145 6.77626e-21 0.0011972 3.24797e-07
0.0579145 3.38813e-21 0.00119721 1.60085e-09
0.0579296 -6.77626e-21 1.06809e-07 3.42762e-09
-0.0579296 6.77626e-21 1.06809e-07 4.86446e-07
-0.057935 -3.38813e-21 0.000246015 3.56729e-07
0.0579351 0 0.000246023 2.30446e-09
-0.0579259 -6.77626e-21 0.00205416 6.2835e-07
0.0579259 6.77626e-21 0.00205416 3.2916e-09
-0.0579372 -6.77626e-21 0.00186079 5.43293e-07
0.0579372 -1.01644e-20 0.00186077 2.8211e-09
-0.057965 0 0.00212181 6.78316e-07
0.0579651 0 0.00212181 3.57096e-09
0.0580744 -3.38813e-21 1.10802e-07 2.50225e-09
-0.0580744 -3.38813e-21 1.10803e-07 5.01662e-07
0.0581721 -4.51751e-21 0.0006106 8.17487e-10
-0.0581721 -2.25875e-21 0.0006106 2.2283e-07
0.0581735 2.25875e-21 0.00151344 1.6315e-09
-0.0581735 4.51751e-21 0.00151345 3.13946e-07
-0.0581926 -3.38813e-21 0.00214274 4.96037e-07
0.0581927 2.5411e-21 0.00214276 2.70517e-09
-0.058277 1.01644e-20 1.16392e-07 5.14238e-07
0.058277 1.35525e-20 1.16392e-07 1.83712e-09
-0.0583193 -1.35525e-20 0.000122998 4.75017e-07
0.0583193 0 0.000122997 1.64041e-09
0.0582823 -1.18585e-20 0.002151 2.49316e-09
-0.0582823 5.0822e-21 0.002151 4.50219e-07
-0.0583281 -1.35525e-20 0.00201521 4.18373e-07
0.0583281 -1.35525e-20 0.0020152 2.28681e-09
-0.0583808 2.71051e-20 0.000286504 3.11247e-07
0.0583808 0 0.000286506 1.02469e-09
-0.058383 0 0.00106968 1.45872e-07
0.058383 0 0.00106967 6.86562e-10
-0.0583862 0 0.00185761 2.96742e-07
0.0583862 0 0.00185759 1.59374e-09
0.0584351 -2.71051e-20 1.20751e-07 2.43326e-09
-0.0584351 0 1.20752e-07 5.08617e-07
-0.0584722 -2.71051e-20 0.00216847 5.07971e-07
0.0584722 -1.35525e-20 0.00216848 2.80979e-09
0.0585878 1.8823e-22 0.000684239 4.6111e-10
-0.0585878 9.41148e-22 0.00068424 1.40392e-07
-0.0586022 -3.38813e-21 0.000178774 4.78491e-07
0.0586022 -3.38813e-21 0.000178774 1.31784e-09
0.0585913 -1.8823e-21 0.00147248 1.07643e-09
-0.0585913 1.12938e-21 0.00147248 2.0871e-07
0.0586254 -3.38813e-21 8.46296e-05 1.19938e-09
-0.0586254 0 8.46309e-05 5.05344e-07
0.0586312 1.01644e-20 9.46986e-08 1.58193e-09
-0.0586312 1.69407e-20 9.46999e-08 5.2532e-07
-0.058614 -3.38813e-21 0.00198107 3.85408e-07
0.058614 -3.38813e-21 0.00198105 1.98163e-09
-0.0586388 3.38813e-21 0.00205711 3.80445e-07
0.0586389 -3.38813e-21 0.00205707 1.93644e-09
-0.0586526 -2.03288e-20 0.00218507 4.4765e-07
0.0586526 2.71051e-20 0.00218507 2.36324e-09
-0.0587868 0 7.40296e-08 5.23065e-07
0.0587868 1.35525e-20 7.4028e-08 3.20495e-09
0.0587871 0 0.00108477 6.13145e-10
-0.0587871 0 0.00108477 1.32115e-07
0.0588138 0 0.00041924 1.21078e-09
-0.0588138 0 0.000419239 2.45915e-07
0.0587904 -1.35525e-20 0.00219775 3.09557e-09
-0.0587904 0 0.00219775 5.65494e-07
0.0588211 0 0.00175686 1.39234e-09
-0.0588211 1.35525e-20 0.00175688 2.74874e-07
0.0589944 -2.25875e-21 0.00075431 1.11267e-09
-0.0589944 -6.77626e-21 0.000754313 2.05237e-07
0.0589984 -4.51751e-21 0.00142978 1.52136e-09
-0.0589984 -9.03502e-21 0.00142979 3.02619e-07
0.059008 6.77626e-21 0.00221778 3.27412e-09
-0.0590081 6.77626e-21 0.00221778 6.22083e-07
-0.0590549 1.35525e-20 8.3519e-08 5.08214e-07
0.0590549 0 8.35176e-08 4.24525e-09
-0.0590696 0 0.000188904 4.74196e-07
0.0590696 0 0.000188898 3.7719e-09
-0.0590838 -2.71051e-20 8.57398e-08 5.10558e-07
0.0590838 -1.35525e-20 8.57395e-08 4.3324e-09
0.05908 0 0.00199667 2.91408e-09
-0.05908 0 0.00199668 5.66158e-07
0.059078 6.77626e-21 0.00212677 3.11528e-09
-0.059078 0 0.00212682 6.04673e-07
-0.0591578 6.77626e-21 0.00223156 6.51011e-07
0.0591578 6.77626e-21 0.00223157 3.43387e-09
-0.0593378 2.71051e-20 9.41278e-08 6.44875e-07
0.0593379 5.42101e-20 9.41279e-08 5.28479e-09
-0.0593529 2.25875e-21 0.000581993 2.52381e-07
0.0593529 -4.51751e-21 0.00058199 1.59234e-09
-0.0593596 -1.12938e-21 0.00110181 2.11848e-07
0.0593596 -2.25875e-21 0.0011018 9.95588e-10
-0.0593591 -2.25875e-21 0.00162171 3.75057e-07
0.0593591 0 0.0016217 1.89679e-09
0.059356 0 0.0022498 3.83432e-09
-0.059356 4.06576e-20 0.0022498 7.05361e-07
0.0594899 0 0.00226213 3.999e-09
-0.05949 -1.35525e-20 0.00226213 7.44009e-07
-0.0596053 0 7.49137e-08 5.39198e-07
0.0596053 -3.38813e-21 7.49138e-08 4.55235e-09
-0.0596378 -3.38813e-21 6.7265e-05 5.00793e-07
0.0596378 1.35525e-20 6.7278e-05 4.22316e-09
-0.0596391 0 0.000281382 4.50227e-07
0.0596391 0 0.000281382 3.63092e-09
-0.0596522 -1.35525e-20 0.000750556 1.6956e-07
0.0596522 -1.35525e-20 0.000750553 7.23067e-10
-0.0596652 0 7.43487e-08 5.50097e-07
0.0596653 1.01644e-20 7.43486e-08 4.64099e-09
-0.0596556 -1.35525e-20 0.00146976 2.85653e-07
0.0596556 0 0.00146976 1.41655e-09
-0.0596502 -1.12938e-21 0.00197793 6.86901e-07
0.0596502 1.12938e-21 0.00197792 3.57021e-09
-0.0598453 6.77626e-21 0.00229482 8.56965e-07
0.0598454 -1.35525e-20 0.00229483 4.66886e-09
0.0599214 -2.71051e-20 5.8673e-08 6.16743e-09
-0.0599214 2.71051e-20 5.86732e-08 7.41714e-07
-0.0599318 0 0.000596737 2.80584e-07
0.0599318 -2.25875e-21 0.000596735 1.94506e-09
-0.0599376 -1.12938e-21 0.00163636 4.4843e-07
0.0599376 -1.12938e-21 0.00163637 2.31949e-09
0.0599523 3.38813e-22 0.00111691 1.12343e-09
-0.0599523 1.12938e-22 0.00111691 2.2909e-07
-0.0599299 2.71051e-20 0.00230261 8.82533e-07
0.0599299 0 0.00230261 4.85743e-09
0.059989 6.77626e-21 0.00230805 4.94514e-09
-0.059989 -6.77626e-21 0.00230805 9.00733e-07
-0.0601336 -1.35525e-20 6.56213e-08 6.11235e-07
0.0601336 0 6.56212e-08 5.77592e-09
0.0602132 1.12938e-21 0.000252409 4.76578e-09
-0.0602132 0 0.00025241 4.86391e-07
0.0602294 4.06576e-20 0.000784297 8.9375e-10
-0.0602294 -1.35525e-20 0.000784301 1.87181e-07
-0.0602309 -2.71051e-20 0.00146539 3.00917e-07
0.0602309 0 0.00146538 1.53724e-09
0.0602724 -1.35525e-20 6.43014e-08 6.10412e-09
-0.0602724 0 6.43015e-08 6.42991e-07
0.0602424 1.41172e-22 0.00197213 4.43695e-09
-0.0602424 5.64689e-22 0.00197212 8.32424e-07
-0.060476 0 6.96067e-08 8.52354e-07
0.060476 0 6.96065e-08 7.48714e-09
0.0604796 -2.25875e-21 0.000600001 2.67819e-09
-0.0604796 7.52918e-22 0.000600003 3.13453e-07
-0.0604927 1.90582e-20 0.00235439 1.03416e-06
0.0604959 0 0.00235469 5.7762e-09
0.0605079 0 0.00234001 5.75399e-09
-0.060508 0 0.00233988 1.03254e-06
-0.0605575 -2.25875e-21 0.0011318 2.24244e-07
0.0605575 -1.12938e-21 0.00113179 1.1948e-09
-0.0605507 0 0.00162686 4.61627e-07
0.0605507 0 0.00162685 2.42757e-09
0.0605441 -1.27055e-21 0.00235913 5.86319e-09
-0.0605446 4.23516e-22 0.00235917 1.05112e-06
-0.0606726 0 5.84249e-08 7.37713e-07
0.0606726 1.35525e-20 5.84249e-08 7.67686e-09
0.0608243 -1.03526e-21 0.0002887 6.66301e-09
-0.0608243 8.47033e-22 0.000288701 5.58176e-07
-0.0608389 4.51751e-21 0.00196303 8.86209e-07
0.0608389 -1.12938e-21 0.00196301 4.66101e-09
0.0608907 1.35525e-20 5.77037e-08 7.98395e-09
-0.0608907 1.35525e-20 5.77037e-08 7.99269e-07
0.061022 0 0.000858041 1.02646e-09
-0.061022 9.03502e-21 0.000858044 1.52085e-07
0.0610196 -1.35525e-20 0.0014351 1.06158e-09
-0.0610196 -4.51751e-21 0.00143511 1.97323e-07
0.0610807 0 4.80731e-08 8.22011e-09
-0.0610807 -2.71051e-20 4.80731e-08 1.01046e-06
0.0610587 -3.38813e-21 0.00240648 6.74229e-09
-0.0610588 0 0.00240649 1.21659e-06
0.0610729 3.38813e-21 0.00238496 6.71638e-09
-0.061073 -3.38813e-21 0.002385 1.21519e-06
-0.0610955 0 0.00240987 1.22855e-06
0.0610955 -3.38813e-21 0.00240986 6.77101e-09
-0.0610995 0 0.00235733 1.17029e-06
0.0610995 3.38813e-21 0.00235725 6.4302e-09
-0.0611234 0 0.0023884 1.23798e-06
0.0611234 0 0.00238837 6.82952e-09
-0.0611363 3.38813e-21 0.00241362 1.25231e-06
0.0611364 0 0.00241362 6.92067e-09
-0.0612633 0 0.000606688 4.07944e-07
0.0612633 0 0.000606686 3.11841e-09
0.0612584 2.71051e-20 0.00172056 2.33989e-09
-0.0612584 0 0.00172055 4.34874e-07
0.0612897 0 0.00114617 8.38281e-10
-0.0612897 2.71051e-20 0.00114617 1.41468e-07
-0.0613382 -2.71051e-20 3.75146e-08 8.69354e-07
0.0613382 -2.71051e-20 3.7514e-08 7.60547e-09
-0.0614691 1.41172e-22 0.000272853 7.2723e-07
0.0614691 -1.8823e-22 0.000272849 6.61235e-09
-0.0614658 -3.38813e-21 0.00200447 1.00859e-06
0.0614659 -7.90564e-21 0.00200446 5.24085e-09
-0.0615061 -1.35525e-20 3.67859e-08 9.30471e-07
0.0615061 1.35525e-20 3.67852e-08 7.96605e-09
-0.0615545 -6.77626e-21 0.000876319 1.38592e-07
0.0615545 2.25875e-21 0.000876318 1.02107e-09
-0.0615509 -9.03502e-21 0.00144997 1.5385e-07
0.0615509 -9.03502e-21 0.00144997 8.8503e-10
0.061707 -3.38813e-21 0.00246613 8.53536e-09
-0.0617071 0 0.00246613 1.47709e-06
0.0617173 0 0.00245301 8.5326e-09
-0.0617173 3.38813e-21 0.00245302 1.47574e-06
-0.0617319 0 0.00246842 1.48137e-06
0.0617319 0 0.00246843 8.57095e-09
-0.0617337 0 0.00243692 1.44301e-06
0.0617337 0 0.00243691 8.34724e-09
-0.061748 0 0.00245429 1.4872e-06
0.061748 0 0.00245428 8.63205e-09
-0.0617555 -3.38813e-21 0.00247059 1.49593e-06
0.0617555 -3.38813e-21 0.00247059 8.6983e-09
0.0618119 0 0.000576099 3.67279e-09
-0.0618119 0 0.000576101 5.07142e-07
-0.0618206 0 1.81838e-08 1.13584e-06
0.0618207 -2.71051e-20 1.81818e-08 8.50715e-09
-0.0618057 0 0.00179046 4.70423e-07
0.0618057 2.71051e-20 0.00179046 2.6594e-09
-0.0618911 1.93608e-21 0.00110224 1.12816e-07
0.0618911 -7.7443e-21 0.00110224 8.61676e-10
-0.0620668 -1.35525e-20 0.000803504 1.91709e-07
0.0620668 -5.42101e-21 0.000803499 1.47113e-09
0.0620551 9.03502e-21 0.0014783 9.80028e-10
-0.0620551 -4.51751e-21 0.0014783 1.43394e-07
-0.062113 -2.37169e-20 1.60896e-08 1.18111e-06
0.062113 -3.72694e-20 1.60878e-08 1.05639e-08
-0.0620964 -5.64689e-22 0.0020808 1.37264e-06
0.0620964 2.82344e-21 0.00208081 8.32606e-09
-0.0621537 -2.25875e-21 0.000297886 1.06218e-06
0.0621538 -1.12938e-21 0.000297887 9.4778e-09
-0.0621775 -6.77626e-21 1.56614e-08 1.1997e-06
0.0621776 4.06576e-20 1.56595e-08 1.08447e-08
-0.0621833 0 0.00250996 1.49443e-06
0.0621833 0 0.00250996 9.37314e-09
-0.0621909 0 0.00249508 1.48566e-06
0.0621909 3.38813e-21 0.00249509 9.33087e-09
0.0622064 0 0.00247948 9.04073e-09
-0.0622064 -4.40457e-20 0.00247946 1.43755e-06
0.062211 1.69407e-20 0.00251251 9.26816e-09
-0.062211 3.38813e-21 0.00251251 1.47901e-06
0.0622439 0 0.00247181 9.15671e-09
-0.0622439 0 0.00247177 1.43642e-06
-0.062464 2.71051e-20 1.36276e-08 1.33351e-06
0.0624641 0 1.36259e-08 1.10649e-08
-0.0624707 0 0.000664989 4.47574e-07
0.0624707 0 0.000664986 3.83787e-09
-0.062477 -1.12938e-21 0.00119037 1.30509e-07
0.062477 -2.25875e-21 0.00119036 9.47647e-10
0.062456 -1.01644e-20 0.00253505 8.63058e-09
-0.062456 2.71051e-20 0.00253505 1.27136e-06
0.0624641 -3.38813e-21 0.00247936 8.57617e-09
-0.0624641 -6.77626e-21 0.00247929 1.24552e-06
0.0625428 4.51751e-21 0.0018227 3.12172e-09
-0.0625428 -2.25875e-21 0.0018227 4.95932e-07
-0.062548 2.25875e-21 0.00223368 1.07288e-06
0.062548 0 0.00223368 7.21132e-09
-0.0626458 -3.38813e-21 0.00247189 1.10901e-06
0.0626458 3.38813e-21 0.00247193 7.20347e-09
-0.0627253 -6.77626e-21 1.30352e-08 1.34373e-06
0.0627253 6.77626e-21 1.30342e-08 1.17876e-08
-0.0626789 6.77626e-21 0.00255556 1.11443e-06
0.0626789 6.77626e-21 0.00255556 6.94323e-09
0.0627232 1.35525e-20 0.00247251 6.28351e-09
-0.0627232 0 0.00247247 9.94506e-07
-0.0627775 0 0.000301894 1.17639e-06
0.0627776 2.25875e-21 0.000301892 1.03298e-08
0.0627289 0 0.00253277 6.50922e-09
-0.0627289 -6.77626e-21 0.00253275 1.04703e-06
0.0627357 6.77626e-21 0.00256079 6.44551e-09
-0.0627358 6.77626e-21 0.00256079 1.04399e-06
-0.0627919 1.35525e-20 0.000886652 1.60745e-07
0.0627919 0 0.000886656 1.29104e-09
-0.0628164 0 1.26849e-08 1.35956e-06
0.0628164 -6.77626e-21 1.2684e-08 1.19506e-08
-0.0628008 -1.35525e-20 0.00150627 1.08421e-07
0.0628008 -2.71051e-20 0.00150627 5.72139e-10
-0.0628112 1.35525e-20 0.00226818 8.52867e-07
0.0628112 -1.35525e-20 0.00226818 5.3691e-09
-0.0628645 6.77626e-21 0.00225928 7.80187e-07
0.0628645 -6.77626e-21 0.00225928 4.77716e-09
-0.0630768 -2.71051e-20 1.21048e-08 1.45664e-06
0.0630768 5.42101e-20 1.21046e-08 1.24187e-08
-0.0630912 -4.51751e-21 0.000666653 4.93876e-07
0.0630913 1.35525e-20 0.000666654 4.26454e-09
-0.0630462 0 0.00258936 1.04985e-06
0.0630463 -6.77626e-21 0.00258936 6.02349e-09
-0.0630991 3.38813e-21 0.00119257 1.47131e-07
0.0630991 5.64689e-21 0.00119258 1.00588e-09
-0.0630753 0 0.00254724 1.05558e-06
0.0630753 0 0.00254725 6.07304e-09
-0.0631146 -2.25875e-21 0.0018442 3.65784e-07
0.0631146 -6.77626e-21 0.0018442 2.11919e-09
0.0631295 6.77626e-21 0.00220804 4.6408e-09
-0.0631295 6.77626e-21 0.00220804 7.87628e-07
-0.0631287 0 0.00259695 1.20005e-06
0.0631287 6.77626e-21 0.00259695 6.83038e-09
-0.0631356 1.35525e-20 0.00244816 9.57129e-07
0.0631356 6.77626e-21 0.0024482 5.54624e-09
0.0632025 0 0.00255032 6.41437e-09
-0.0632025 6.77626e-21 0.00255031 1.12355e-06
0.063231 6.77626e-21 0.00260636 6.51682e-09
-0.063231 0 0.00260636 1.14885e-06
-0.063349 3.38813e-21 1.19264e-08 1.48362e-06
0.063349 -1.35525e-20 1.19262e-08 1.28175e-08
-0.0633802 1.12938e-21 0.000299346 1.31522e-06
0.0633802 2.25875e-21 0.00029935 1.14043e-08
-0.0634014 1.01644e-20 1.18937e-08 1.49481e-06
0.0634014 -1.69407e-20 1.18936e-08 1.29228e-08
-0.0633962 4.06576e-20 0.000886345 1.90019e-07
0.0633962 2.71051e-20 0.000886349 1.51282e-09
-0.0634042 0 0.00150026 1.27532e-07
0.0634042 -2.71051e-20 0.00150026 6.40257e-10
-0.0634115 -6.77626e-21 0.00227415 9.65685e-07
0.0634115 0 0.00227415 5.55213e-09
-0.0635497 0 0.0026357 1.266e-06
0.0635497 0 0.00263569 7.14322e-09
-0.0636291 -5.80823e-21 0.000643872 5.6633e-07
0.0636291 5.80823e-21 0.000643874 4.89406e-09
-0.0635905 1.35525e-20 0.00256259 1.25966e-06
0.0635905 2.71051e-20 0.00256259 7.15657e-09
-0.0636736 -2.71051e-20 1.17146e-08 1.5757e-06
0.0636736 2.71051e-20 1.17145e-08 1.35788e-08
-0.0637074 1.12938e-21 0.00119084 1.69697e-07
0.0637074 7.90564e-21 0.00119084 1.16063e-09
-0.0637064 9.03502e-21 0.00183861 3.96164e-07
0.0637064 -4.51751e-21 0.00183862 2.20453e-09
0.0636972 0 0.00228451 5.48274e-09
-0.0636972 1.12938e-21 0.00228451 9.52038e-07
0.0636864 0 0.00264828 8.47342e-09
-0.0636864 -1.35525e-20 0.00264828 1.5042e-06
0.0638056 0 0.00256928 7.47579e-09
-0.0638056 0 0.00256928 1.30711e-06
0.0638572 -6.77626e-21 0.00266399 7.61718e-09
-0.0638572 0 0.002664 1.339e-06
-0.0639761 -5.02926e-21 1.11264e-08 1.62257e-06
0.0639761 4.09752e-20 1.11265e-08 1.40849e-08
-0.063985 -4.51751e-21 0.000294135 1.47856e-06
0.063985 0 0.000294132 1.28931e-08
-0.0639986 4.51751e-21 0.000797603 3.82079e-07
0.0639987 0 0.000797603 3.24651e-09
0.0639966 1.35525e-20 0.00216928 4.28405e-09
-0.0639966 -1.35525e-20 0.00216927 7.28073e-07
0.0639893 2.71051e-20 0.00242216 7.61765e-09
-0.0639893 -1.35525e-20 0.00242216 1.30744e-06
-0.0640906 -2.71051e-21 0.00161504 2.62913e-07
0.0640906 0 0.00161505 1.46308e-09
-0.0640774 1.35525e-20 0.00268425 1.3941e-06
0.0640774 0 0.00268425 7.94022e-09
-0.0641378 -2.71051e-20 0.0025811 1.38632e-06
0.0641378 -2.71051e-20 0.00258111 7.94959e-09
-0.0642238 0 0.0011939 1.86866e-07
0.0642238 4.51751e-21 0.0011939 1.28886e-09
-0.0642454 -1.54886e-20 0.00190905 4.65586e-07
0.0642454 -1.54886e-20 0.00190906 2.573e-09
-0.0642765 2.71051e-20 1.05719e-08 1.71742e-06
0.0642765 -2.71051e-20 1.0572e-08 1.46747e-08
-0.0643071 0 0.000580294 8.98985e-07
0.0643071 2.71051e-20 0.000580294 7.66118e-09
0.0642698 1.35525e-20 0.00270196 9.95735e-09
-0.0642698 0 0.00270196 1.75993e-06
0.0642914 1.12938e-21 0.00231061 5.97386e-09
-0.0642914 -3.38813e-21 0.0023106 1.03429e-06
0.064507 -1.35525e-20 0.00272379 8.62143e-09
-0.064507 6.77626e-21 0.00272379 1.5125e-06
-0.0645717 0 1.00932e-08 1.79211e-06
0.0645718 0 1.00933e-08 1.48014e-08
-0.0645942 3.38813e-21 0.000105204 1.76499e-06
0.0645942 -5.0822e-21 0.000105297 1.4584e-08
-0.0646037 -5.0822e-21 0.000289957 1.67774e-06
0.0646037 0 0.000289963 1.39327e-08
-0.0646061 0 1.00752e-08 1.80378e-06
0.0646062 1.69407e-20 1.00752e-08 1.48515e-08
-0.0645786 0 0.00255742 1.48995e-06
0.0645786 -1.35525e-20 0.00255743 8.59684e-09
-0.0646301 9.03502e-21 0.000896905 3.25271e-07
0.0646301 -2.25875e-21 0.000896903 2.56316e-09
0.0646074 9.03502e-21 0.00205695 3.08732e-09
-0.0646074 9.03502e-21 0.00205694 5.47976e-07
0.0646289 0 0.00152581 1.31128e-09
-0.0646289 0 0.00152581 2.25189e-07
-0.0646281 -2.03288e-20 0.00273494 1.54591e-06
0.0646282 -1.35525e-20 0.00273494 8.85236e-09
-0.0649009 0 9.60311e-09 1.91501e-06
0.0649009 -5.42101e-20 9.60308e-09 1.56157e-08
0.064875 1.35525e-20 0.00275765 1.18325e-08
-0.064875 0 0.00275765 1.98405e-06
-0.0649356 0 0.000580114 1.01899e-06
0.0649357 2.71051e-20 0.000580114 8.26369e-09
0.0649299 0 0.00188429 3.0553e-09
-0.0649299 0 0.00188429 5.35461e-07
0.0649159 0 0.00234646 6.67894e-09
-0.0649159 2.82344e-22 0.00234647 1.13051e-06
0.064955 0 0.00120177 1.44349e-09
-0.064955 2.71051e-20 0.00120177 2.20067e-07
-0.0652158 0 7.83123e-09 2.04405e-06
0.0652158 0 7.83116e-09 1.57828e-08
-0.0652252 0 4.89574e-05 2.03416e-06
0.0652252 4.23516e-21 4.89963e-05 1.56975e-08
-0.0652301 -1.69407e-21 7.82292e-09 2.05015e-06
0.0652302 -1.35525e-20 7.82284e-09 1.58233e-08
-0.065238 1.12938e-21 0.000289529 1.92799e-06
0.0652381 -2.25875e-21 0.000289519 1.49757e-08
-0.0652635 2.25875e-21 0.000898212 3.75452e-07
0.0652635 -1.35525e-20 0.000898216 2.81758e-09
0.0652136 0 0.00278879 1.00274e-08
-0.0652137 -2.03288e-20 0.00278879 1.68627e-06
-0.0652598 4.51751e-21 0.0015412 2.21766e-07
0.0652598 0 0.0015412 1.30739e-09
0.0652523 -1.35525e-20 0.00209337 3.21235e-09
-0.0652523 -4.51751e-21 0.00209337 5.507e-07
-0.065247 1.69407e-21 0.00279186 1.68583e-06
0.065247 3.38813e-20 0.00279186 1.00286e-08
0.0652921 0 0.00257089 9.38023e-09
-0.0652921 -6.77626e-21 0.00257088 1.56722e-06
-0.0655524 5.42101e-20 5.83763e-09 2.18036e-06
0.0655525 -2.71051e-20 5.83746e-09 1.74488e-08
-0.0655704 -2.71051e-20 0.000580836 1.18337e-06
0.0655704 0 0.000580835 9.40159e-09
0.0655566 2.71051e-20 0.00189805 2.62526e-09
-0.0655566 0 0.00189804 4.65498e-07
0.0655812 -2.71051e-20 0.00120809 1.56168e-09
-0.0655812 2.71051e-20 0.00120809 2.44087e-07
0.0655609 2.71051e-20 0.00282073 1.18194e-08
-0.0655609 -2.71051e-20 0.00282072 1.86147e-06
0.065626 0 0.00230052 4.80945e-09
-0.065626 4.51751e-21 0.00230051 8.34302e-07
0.0657942 0 0.00153773 1.28625e-09
-0.0657942 -4.51751e-21 0.00153773 2.30464e-07
-0.0658501 -3.38813e-21 4.27431e-09 2.34286e-06
0.0658502 -1.35525e-20 4.27416e-09 1.84759e-08
0.0658196 -8.13152e-21 0.0020679 2.00892e-09
-0.0658196 -1.89735e-20 0.0020679 4.10386e-07
-0.0658851 -1.12938e-21 0.000294061 2.20099e-06
0.0658851 -3.38813e-21 0.00029407 1.74608e-08
-0.0659037 -6.77626e-21 3.74108e-09 2.36044e-06
0.0659037 2.03288e-20 3.741e-09 1.86579e-08
-0.0658977 4.51751e-21 0.000900808 4.54572e-07
0.0658977 -2.25875e-21 0.000900806 3.45407e-09
-0.0658696 -2.37169e-20 0.00284913 2.02013e-06
0.0658696 -2.5411e-20 0.00284914 1.13734e-08
0.0658846 -3.38813e-21 0.0028246 1.12378e-08
-0.0658846 3.38813e-21 0.00282453 2.00943e-06
0.0659008 0 0.00285201 1.137e-08
-0.0659009 5.0822e-21 0.00285201 2.02622e-06
0.0659303 5.64689e-21 0.00259415 9.68829e-09
-0.0659304 7.90564e-21 0.00259415 1.72175e-06
-0.0662017 5.42101e-20 2.04737e-09 2.41357e-06
0.0662017 0 2.04729e-09 1.97326e-08
-0.0662096 -2.71051e-20 0.000583165 1.33913e-06
0.0662096 0 0.000583165 1.08682e-08
0.066226 2.25875e-21 0.00182287 1.21303e-09
-0.066226 0 0.00182287 2.70917e-07
-0.0662614 0 0.00125249 2.57972e-07
0.0662614 0 0.00125249 1.65769e-09
0.0662443 1.35525e-20 0.00230825 4.58487e-09
-0.0662443 4.51751e-21 0.00230824 8.75556e-07
0.0662396 -1.35525e-20 0.00288319 1.17617e-08
-0.0662396 0 0.00288318 2.03346e-06
-0.0664688 6.77626e-21 1.83905e-09 2.54523e-06
0.0664688 1.35525e-20 1.83897e-09 2.0819e-08
-0.0665215 4.51751e-21 0.000297039 2.37054e-06
0.0665216 0 0.000297033 1.94248e-08
-0.0665293 -4.51751e-21 0.000803441 6.72023e-07
0.0665293 9.03502e-21 0.000803445 5.38707e-09
-0.0664922 -1.35525e-20 0.00290641 2.65888e-06
0.0664922 6.77626e-21 0.00290641 1.48386e-08
-0.0665402 2.71051e-20 0.00152016 1.95076e-07
0.0665402 0 0.00152016 9.05992e-10
-0.0665636 2.03288e-20 1.7259e-09 2.57032e-06
0.0665637 1.35525e-20 1.72584e-09 2.10179e-08
-0.0665513 0 0.00210904 4.0746e-07
0.0665513 2.71051e-20 0.00210904 1.75483e-09
0.0665489 2.25875e-21 0.00261517 1.25665e-08
-0.0665489 -3.38813e-21 0.00261517 2.27168e-06
0.0665444 -6.77626e-21 0.00282557 1.50796e-08
-0.0665444 6.77626e-21 0.00282553 2.72749e-06
0.0665984 6.77626e-21 0.00291617 1.53431e-08
-0.0665984 0 0.00291617 2.74105e-06
-0.0668291 2.71051e-20 1.5155e-09 2.58888e-06
0.0668291 2.71051e-20 1.51544e-09 2.12503e-08
-0.0668395 2.71051e-20 0.000583569 1.44205e-06
0.0668395 2.71051e-20 0.00058357 1.17292e-08
-0.0668469 1.88079e-37 0.00119952 3.02752e-07
0.0668469 0 0.00119952 1.98566e-09
-0.0668544 -4.51751e-21 0.00182468 3.16595e-07
0.0668544 9.03502e-21 0.00182468 1.43221e-09
-0.0668557 0 0.00232115 1.06496e-06
0.0668557 4.51751e-21 0.00232116 5.65255e-09
0.0668437 -1.35525e-20 0.00293872 1.46972e-08
-0.0668437 0 0.00293872 2.53011e-06
-0.0670865 2.03288e-20 1.47833e-09 2.70583e-06
0.0670865 -6.77626e-21 1.4783e-09 2.20043e-08
-0.0670533 6.77626e-21 0.00295798 2.99699e-06
0.0670533 1.35525e-20 0.00295798 1.7102e-08
-0.0671423 6.77626e-21 0.000297525 2.51821e-06
0.0671423 -2.25875e-21 0.000297532 2.05014e-08
-0.0671508 -1.35525e-20 0.00080171 7.38019e-07
0.0671508 -4.51751e-21 0.000801707 5.85228e-09
-0.0671599 0 0.00152361 2.16462e-07
0.0671599 0 0.0015236 1.03582e-09
-0.0671866 0 1.45247e-09 2.73314e-06
0.0671867 2.03288e-20 1.45245e-09 2.22093e-08
-0.0671599 0 0.00212274 4.46354e-07
0.0671599 0 0.00212275 2.07645e-09
-0.0671485 0 0.00265064 2.68331e-06
0.0671485 -2.25875e-21 0.00265064 1.51152e-08
-0.0671466 -6.77626e-21 0.00281337 3.0798e-06
0.0671466 0 0.0028134 1.73597e-08
0.0672434 6.77626e-21 0.00297542 1.7833e-08
-0.0672434 1.35525e-20 0.00297542 3.09973e-06
-0.0674436 0 1.41552e-09 2.75747e-06
0.0674436 0 1.41554e-09 2.25266e-08
-0.0674568 0 0.000584109 1.54754e-06
0.0674569 -2.71051e-20 0.000584109 1.24897e-08
-0.0674669 -2.25875e-21 0.00120273 3.35434e-07
0.0674669 -2.25875e-21 0.00120273 2.16181e-09
0.067468 9.03502e-21 0.00183542 1.65213e-09
-0.067468 -2.25875e-21 0.00183543 3.49223e-07
0.0674616 0 0.00233498 6.25142e-09
-0.0674616 4.51751e-21 0.00233497 1.14895e-06
0.0674388 1.35525e-20 0.00299338 1.71181e-08
-0.0674388 2.71051e-20 0.00299338 2.89643e-06
-0.0676069 6.77626e-21 0.00300882 3.31961e-06
0.067607 0 0.00300882 1.91703e-08
-0.0677028 -1.35525e-20 1.38308e-09 2.8815e-06
0.0677028 0 1.38311e-09 2.33351e-08
-0.067757 -6.77626e-21 0.000297263 2.69803e-06
0.067757 -6.77626e-21 0.000297257 2.18533e-08
-0.0677742 0 0.00153093 2.46281e-07
0.0677742 0 0.00153093 1.15449e-09
-0.0677979 -2.71051e-20 1.35976e-09 2.91069e-06
0.0677979 2.71051e-20 1.35979e-09 2.35251e-08
0.0677676 2.71051e-20 0.00214267 2.39113e-09
-0.0677676 5.42101e-20 0.00214267 4.8265e-07
-0.0677493 -1.807e-21 0.00270581 3.2179e-06
0.0677493 -4.51751e-22 0.00270581 1.81569e-08
-0.0678144 4.51751e-21 0.000856819 6.75919e-07
0.0678145 2.25875e-21 0.000856823 5.16557e-09
0.0678888 0 0.00303468 2.02481e-08
-0.0678889 0 0.00303468 3.47131e-06
-0.0680566 0 1.32749e-09 2.94999e-06
0.0680567 0 1.32754e-09 2.36654e-08
-0.0680721 -2.71051e-20 0.000585619 1.66808e-06
0.0680721 0 0.000585619 1.31916e-08
0.0680839 -1.35525e-20 0.00131313 1.85397e-09
-0.0680839 4.51751e-21 0.00131313 3.2974e-07
0.0680357 -1.35525e-20 0.00304817 1.96147e-08
-0.0680357 -4.06576e-20 0.00304816 3.27434e-06
0.0680812 -6.77626e-21 0.00185058 1.85286e-09
-0.0680812 2.25875e-21 0.00185058 3.81161e-07
0.0680701 4.51751e-21 0.0023508 6.71804e-09
-0.0680701 9.03502e-21 0.0023508 1.20212e-06
-0.0681604 6.77626e-21 0.00305961 3.56308e-06
0.0681604 6.77626e-21 0.00305962 2.12198e-08
-0.0683162 -2.03288e-20 1.26055e-09 3.08656e-06
0.0683162 -2.71051e-20 1.26058e-09 2.43763e-08
-0.0683744 -2.25875e-21 0.000297284 2.90569e-06
0.0683744 -2.25875e-21 0.000297287 2.29011e-08
-0.0683872 4.51751e-21 0.000907119 6.5952e-07
0.0683872 -6.77626e-21 0.000907119 4.83298e-09
0.0683925 0 0.00154133 1.2542e-09
-0.0683925 -2.71051e-20 0.00154133 2.77466e-07
0.0683557 1.807e-21 0.00274299 2.09462e-08
-0.0683557 -1.35525e-21 0.00274298 3.56886e-06
-0.068418 0 1.20782e-09 3.12496e-06
0.068418 -2.71051e-20 1.20784e-09 2.45445e-08
0.0684733 1.0842e-20 0.00225349 5.02863e-09
-0.0684733 8.13152e-21 0.00225348 8.67218e-07
0.0685255 0 0.00309309 2.2935e-08
-0.0685255 -6.77626e-21 0.0030931 3.66255e-06
-0.0686762 -2.71051e-20 1.13946e-09 3.19034e-06
0.0686762 0 1.13947e-09 2.44543e-08
-0.0686216 3.38813e-20 0.00310191 3.5119e-06
0.0686216 6.77626e-21 0.00310191 2.26158e-08
-0.0686918 0 0.000587021 1.81463e-06
0.0686918 -2.71051e-20 0.000587021 1.3739e-08
0.0687027 0 0.00132333 1.97013e-09
-0.0687027 4.51751e-21 0.00132333 3.6998e-07
0.0687032 4.51751e-21 0.00186893 1.9882e-09
-0.0687032 2.25875e-21 0.00186894 4.05681e-07
0.0686865 0 0.00248811 1.04403e-08
-0.0686866 0 0.00248812 1.74475e-06
-0.0687017 6.77626e-21 0.00310928 3.61973e-06
0.0687017 0 0.00310928 2.38357e-08
-0.0689263 6.77626e-21 1.01571e-09 3.34338e-06
0.0689263 1.35525e-20 1.0157e-09 2.52436e-08
0.0689231 -8.13152e-21 0.00227183 5.03012e-09
-0.0689231 8.13152e-21 0.00227182 8.51248e-07
0.0689994 2.25875e-21 0.000297457 2.3745e-08
-0.0689994 0 0.000297458 3.14404e-06
0.0689618 -2.25875e-22 0.00278188 2.39609e-08
-0.0689618 4.51751e-22 0.00278188 3.46678e-06
0.0690126 -4.51751e-21 0.000908099 5.25225e-09
-0.0690126 6.77626e-21 0.000908099 7.27369e-07
0.0690164 0 0.00154865 1.3494e-09
-0.0690164 0 0.00154865 3.21201e-07
0.0690595 -2.03288e-20 8.83068e-10 2.56533e-08
-0.0690595 0 8.83102e-10 3.39961e-06
0.0690357 -6.77626e-21 0.00313993 2.3639e-08
-0.0690357 0 0.00313993 3.32002e-06
-0.0690924 -6.77626e-21 0.00314514 3.1838e-06
0.0690924 -3.38813e-20 0.00314515 2.27569e-08
-0.0693056 0 7.53379e-10 3.45128e-06
0.0693056 0 7.53321e-10 2.61646e-08
-0.069319 -2.71051e-20 0.000586453 1.97463e-06
0.069319 2.71051e-20 0.000586452 1.49018e-08
0.0693341 -6.77626e-21 0.00187509 1.77491e-09
-0.0693341 2.25875e-21 0.00187509 4.31319e-07
0.0693765 -4.51751e-21 0.00126522 2.58668e-09
-0.0693765 -2.25875e-21 0.00126522 4.45284e-07
-0.0693211 1.01644e-20 0.00316745 2.55229e-06
0.0693211 2.71051e-20 0.00316745 2.03473e-08
-0.0693497 1.35525e-20 0.00297788 2.52561e-06
0.0693497 1.35525e-20 0.00297788 1.94921e-08
0.0694191 2.25875e-21 0.00258723 9.60058e-09
-0.0694191 0 0.00258724 1.45442e-06
-0.0695352 1.35525e-20 6.33628e-10 3.57957e-06
0.0695352 0 6.33571e-10 2.75723e-08
-0.0696321 -4.51751e-21 0.000296641 3.3307e-06
0.0696321 6.77626e-21 0.00029664 2.59983e-08
0.0695674 0 0.00318911 1.60413e-08
-0.0695674 0 0.00318911 2.28094e-06
-0.0696425 0 0.000797123 1.05297e-06
0.0696425 0 0.000797124 8.44263e-09
-0.0695807 0 0.00319033 2.26794e-06
0.0695807 0 0.00319034 1.59337e-08
-0.069586 0 0.00317441 2.26224e-06
0.069586 0 0.00317436 1.58766e-08
0.0696473 0 0.00154038 1.48247e-09
-0.0696473 0 0.00154038 3.83165e-07
0.0696642 2.71051e-20 0.00219167 1.52836e-09
-0.0696642 0 0.00219168 4.95475e-07
0.0697196 0 4.40682e-10 2.87452e-08
-0.0697196 1.35525e-20 4.40731e-10 3.63585e-06
-0.0697545 2.5411e-21 0.00320646 2.36069e-06
0.0697673 0 0.00292576 1.35412e-08
-0.0697673 -2.25875e-21 0.00292575 1.99829e-06
0.069755 8.47033e-22 0.00320652 1.57628e-08
-0.0699415 0 3.15633e-10 3.62027e-06
0.0699415 0 3.15585e-10 3.32256e-08
-0.0699612 9.03502e-21 0.00120417 5.07874e-07
0.0699612 0 0.00120417 3.50732e-09
-0.069973 -4.51751e-21 0.00186132 5.03641e-07
0.069973 0 0.00186132 1.735e-09
-0.0700188 0 0.000642771 1.59451e-06
0.0700188 0 0.000642772 1.44632e-08
-0.0699962 6.32451e-21 0.0025455 1.26969e-06
0.0699962 -1.807e-21 0.00254551 6.74931e-09
-0.0699992 0 0.00322937 2.46407e-06
0.0699992 0 0.00322937 1.52492e-08
-0.070005 1.69407e-21 0.00322125 2.4696e-06
0.0700051 1.69407e-21 0.00322126 1.52897e-08
-0.0700172 1.69407e-21 0.00320117 2.43432e-06
0.0700172 -1.69407e-21 0.00320122 1.50518e-08
-0.0700158 1.69407e-21 0.00323094 2.53235e-06
0.0700159 1.69407e-21 0.00323094 1.56348e-08
0.0700303 -1.69407e-21 0.00322213 1.54573e-08
-0.0700303 0 0.00322211 2.50277e-06
0.0700358 0 0.00323282 1.54873e-08
-0.0700358 -1.69407e-21 0.00323282 2.51158e-06
-0.070147 -1.35525e-20 2.68716e-10 3.69089e-06