# kMean  POINT_DATA 14073
# x  y  z  kMean
-1.35525e-20 0.0101542 1.397e-07 1.01884e-09
1.35525e-20 -0.0101542 1.397e-07 3.95785e-07
-1.35525e-20 0.0101542 0.000269592 6.54776e-10
2.71051e-20 -0.0101542 0.000269592 3.29995e-07
2.71051e-20 0.0101542 0.000769234 4.41029e-10
1.35525e-20 -0.0101542 0.000769234 3.05383e-07
0 0.0101542 0.00104357 5.52528e-10
0 -0.0101542 0.00104357 3.52333e-07
1.35525e-20 0.0101542 0.00131779 6.69448e-10
1.35525e-20 -0.0101542 0.00131779 4.05101e-07
0 0.0102506 0.000298259 6.98859e-10
-1.35525e-20 -0.0102506 0.00029826 3.39066e-07
-1.35525e-20 0.0102543 0.000875898 4.53894e-10
0 -0.0102543 0.000875897 3.11012e-07
0 0.0101542 0.00181774 9.36526e-10
1.35525e-20 -0.0101542 0.00181774 5.42234e-07
-1.35525e-20 0.0103268 1.10555e-07 1.23376e-09
-1.35525e-20 -0.0103268 1.10554e-07 4.34761e-07
0 0.0102523 0.00124394 6.51199e-10
0 -0.0102523 0.00124394 3.97147e-07
2.71051e-20 0.0101542 0.002087 1.1183e-09
-2.71051e-20 -0.0101542 0.002087 6.45613e-07
-1.35525e-20 0.0103709 0.000111967 1.21019e-09
0 -0.0103709 0.000111968 4.31184e-07
0 -0.0103677 0.000675216 2.61227e-07
-1.35525e-20 0.0103677 0.000675216 3.41109e-10
-1.35525e-20 0.0102487 0.0018202 9.58272e-10
0 -0.0102487 0.0018202 5.54764e-07
4.06576e-20 -0.0103636 0.00148271 4.44761e-07
0 0.0103636 0.00148271 7.58956e-10
-1.35525e-20 0.0102712 0.00214806 1.23616e-09
0 -0.0102712 0.00214806 7.06237e-07
-1.35525e-20 0.0103514 0.00204723 1.21931e-09
0 -0.0103515 0.00204723 6.97537e-07
0 -0.0106317 0.000607139 2.90172e-07
-7.52918e-21 0.0106317 0.00060714 6.84072e-10
-6.77626e-21 -0.0106102 0.00112187 2.31862e-07
5.64689e-21 0.0106102 0.00112187 3.80366e-10
2.71051e-20 -0.0106774 0.000276333 4.98008e-07
0 0.0106774 0.000276333 1.49945e-09
9.03502e-21 -0.0106161 0.00164334 4.47285e-07
4.51751e-21 0.0106161 0.00164334 7.7059e-10
6.77626e-21 -0.0107648 4.28324e-08 7.92951e-07
0 0.0107648 4.28305e-08 2.2241e-09
0 -0.0105533 0.0022953 8.54281e-07
0 0.0105533 0.0022953 1.53516e-09
-2.71051e-20 -0.01063 0.00198748 7.70673e-07
-2.71051e-20 0.01063 0.00198748 1.34893e-09
0 -0.0108244 8.90628e-05 8.10144e-07
0 0.0108244 8.90541e-05 2.26074e-09
-1.35525e-20 -0.0106418 0.00222461 8.59122e-07
0 0.0106418 0.00222461 1.54553e-09
-1.35525e-20 -0.0108971 2.09162e-08 9.71255e-07
0 0.0108971 2.09164e-08 2.6389e-09
-1.35525e-20 -0.0106478 0.00234462 9.06409e-07
0 0.0106478 0.00234461 1.64431e-09
0 -0.0108702 0.00088437 1.01323e-07
0 0.0108702 0.000884371 2.17099e-10
2.71051e-20 -0.0108765 0.00145343 1.23321e-07
0 0.0108765 0.00145343 2.00652e-10
0 0.0107254 0.0023851 1.7439e-09
-1.35525e-20 -0.0107254 0.0023851 9.45e-07
1.35525e-20 0.0110033 1.81925e-08 2.96511e-09
0 -0.0110033 1.81919e-08 1.11074e-06
1.35525e-20 0.0107624 0.00231965 1.73477e-09
0 -0.0107624 0.00231965 9.41209e-07
0 0.0110153 7.96742e-05 2.94864e-09
0 -0.0110153 7.96834e-05 1.10431e-06
-1.12938e-21 -0.0110632 0.000577057 5.73244e-07
-2.25875e-21 0.0110632 0.000577058 1.52467e-09
-1.12938e-21 -0.0111416 0.00118798 1.38024e-07
-1.12938e-21 0.0111416 0.00118798 2.8989e-10
1.35525e-21 -0.0110829 0.0018675 4.7103e-07
9.03502e-22 0.0110829 0.0018675 8.40802e-10
0 -0.0110229 0.00226207 1.03127e-06
0 0.0110229 0.00226208 1.93204e-09
2.71051e-20 0.0113157 0.000285027 3.76999e-09
-2.71051e-20 -0.0113157 0.000285023 1.44179e-06
0 -0.0110601 0.00255975 1.09086e-06
-6.77626e-21 0.0110601 0.00255975 1.99254e-09
6.77626e-21 -0.0110969 0.00251423 1.0917e-06
6.77626e-21 0.0110969 0.00251423 1.99192e-09
0 -0.011119 0.00259052 1.1134e-06
0 0.011119 0.00259052 2.01209e-09
2.71051e-20 -0.0114092 0.000887746 2.21329e-07
0 0.0114092 0.000887747 5.53828e-10
-6.77626e-21 0.0111709 0.00261751 2.03079e-09
6.77626e-21 -0.0111709 0.00261751 1.12992e-06
6.77626e-21 -0.0111905 0.00257812 1.1285e-06
1.35525e-20 0.0111905 0.00257812 2.02847e-09
0 -0.0114292 0.00153027 1.05735e-07
0 0.0114292 0.00153027 1.8922e-10
6.77626e-21 0.0115336 3.98168e-09 4.55713e-09
6.77626e-21 -0.0115337 3.98217e-09 1.82782e-06
0 -0.011316 0.00229781 8.25757e-07
0 0.011316 0.00229782 1.47415e-09
6.77626e-21 0.0115492 5.75064e-05 4.56593e-09
0 -0.0115493 5.75224e-05 1.83251e-06
0 0.0116095 2.02397e-09 4.76446e-09
6.77626e-21 -0.0116096 2.02388e-09 1.93227e-06
-2.71051e-20 -0.0114857 0.00207363 2.45856e-07
0 0.0114857 0.00207364 3.89826e-10
0 0.0116746 1.84338e-09 4.94277e-09
6.77626e-21 -0.0116747 1.84324e-09 2.01893e-06
0 0.011679 5.25147e-05 4.93879e-09
0 -0.0116791 5.25298e-05 2.01709e-06
0 0.0116878 0.000581186 2.76617e-09
1.12938e-21 -0.0116878 0.000581184 1.11984e-06
2.71051e-20 -0.0114474 0.00253473 1.18713e-06
0 0.0114475 0.00253474 2.08062e-09
1.12938e-21 -0.0117411 0.00120508 2.2113e-07
-1.69407e-21 0.0117411 0.00120508 5.21224e-10
0 -0.0115287 0.00280389 1.77088e-06
6.77626e-21 0.0115287 0.00280391 3.07728e-09
0 -0.01155 0.00277247 1.7777e-06
0 0.01155 0.00277248 3.0884e-09
-2.25875e-21 -0.0117713 0.00182833 2.35e-07
-5.64689e-22 0.0117713 0.00182833 4.02838e-10
-6.77626e-21 -0.0115729 0.0028269 1.91804e-06
0 0.0115729 0.00282691 3.33072e-09
0 -0.0116142 0.00284883 2.06313e-06
6.77626e-21 0.0116142 0.00284884 3.57798e-09
-6.77626e-21 -0.0116388 0.00280394 2.05361e-06
0 0.0116388 0.00280395 3.56104e-09
5.64689e-22 -0.0117403 0.00237663 1.13741e-06
2.25875e-21 0.0117404 0.00237664 1.949e-09
5.42101e-20 0.0119843 0.000286092 5.75192e-09
-2.71051e-20 -0.0119843 0.000286091 2.41709e-06
-2.71051e-20 -0.0120413 0.000886344 3.76767e-07
0 0.0120413 0.000886345 9.49219e-10
-5.42101e-20 -0.0120819 0.00151673 1.78632e-07
0 0.0120819 0.00151673 3.87148e-10
-2.71051e-20 -0.0119435 0.00269977 2.64685e-06
0 0.0119435 0.00269979 4.56889e-09
-6.77626e-21 0.0122585 2.35686e-10 6.2266e-09
0 -0.0122585 2.35721e-10 2.66976e-06
0 0.0122629 3.33592e-05 6.22777e-09
6.77626e-21 -0.012263 3.33761e-05 2.67047e-06
2.71051e-20 -0.0120908 0.00215653 4.10995e-07
0 0.0120908 0.00215653 6.49593e-10
0 0.0122996 1.21642e-10 6.28548e-09
0 -0.0122997 1.21624e-10 2.70213e-06
-6.77626e-21 0.0123364 1.15215e-10 6.33388e-09
0 -0.0123366 1.15195e-10 2.72515e-06
-6.77626e-21 0.012338 2.92482e-05 6.33388e-09
0 -0.0123381 2.92633e-05 2.72515e-06
0 -0.0119749 0.00303994 2.57e-06
0 0.011975 0.00303995 4.65254e-09
0 0.0123477 0.000568685 3.95812e-09
2.25875e-21 -0.0123477 0.000568684 1.57433e-06
0 -0.0120029 0.0029997 2.56742e-06
6.77626e-21 0.012003 0.00299971 4.65017e-09
0 -0.012014 0.00306072 2.54981e-06
6.77626e-21 0.0120141 0.00306073 4.66659e-09
6.77626e-21 -0.0120517 0.00308065 2.53276e-06
-6.77626e-21 0.0120518 0.00308066 4.68484e-09
6.77626e-21 -0.0120701 0.00304376 2.53242e-06
0 0.0120702 0.00304377 4.68079e-09
1.69407e-21 -0.0123957 0.00118429 3.53556e-07
0 0.0123957 0.00118429 1.12184e-09
0 -0.0124154 0.00184242 3.4786e-07
-1.12938e-21 0.0124154 0.00184242 6.00467e-10
-1.35525e-21 -0.0123818 0.00255904 1.36485e-06
0 0.0123818 0.00255905 2.36004e-09
0 0.012651 0.000272684 6.8143e-09
0 -0.012651 0.00027269 2.9818e-06
0 -0.0123509 0.00296128 2.44124e-06
0 0.0123509 0.00296129 4.73423e-09
2.71051e-20 0.0126986 0.000851202 2.25722e-09
-2.71051e-20 -0.0126986 0.000851197 4.92639e-07
5.42101e-20 -0.0127386 0.00148681 3.65745e-07
-2.71051e-20 0.0127386 0.00148681 8.90464e-10
0 -0.0124094 0.00326998 2.45088e-06
0 0.0124094 0.00326999 4.6595e-09
-6.77626e-21 -0.0124311 0.00323665 2.44962e-06
0 0.0124312 0.00323666 4.65532e-09
-6.77626e-21 -0.0124456 0.00328913 2.44837e-06
6.77626e-21 0.0124456 0.00328914 4.64205e-09
0 -0.0124806 0.00330747 2.44842e-06
0 0.0124806 0.00330748 4.62075e-09
0 -0.012495 0.00327721 2.44736e-06
0 0.012495 0.00327723 4.61886e-09
0 -0.0127373 0.00217209 4.34475e-07
-5.42101e-20 0.0127373 0.00217209 4.82161e-10
-1.69407e-21 -0.0129741 5.65819e-12 2.98036e-06
1.69407e-21 0.0129741 5.65714e-12 9.16278e-09
0 -0.0129746 9.31075e-06 2.98036e-06
1.69407e-21 0.0129746 9.29611e-06 9.16278e-09
0 -0.0126307 0.00298498 1.86547e-06
0 0.0126307 0.00298499 3.41536e-09
-1.69407e-21 -0.0129857 3.6289e-12 2.97921e-06
0 0.0129857 3.6307e-12 9.24231e-09
1.69407e-21 0.0129965 7.57985e-06 9.42076e-09
-1.69407e-21 -0.0129965 7.59166e-06 2.97679e-06
-1.69407e-21 0.0129967 3.57671e-12 9.41098e-09
-3.38813e-21 -0.0129967 3.57485e-12 2.97714e-06
-8.47033e-22 0.0130091 0.000523313 9.41129e-09
2.82344e-22 -0.0130091 0.000523311 1.86585e-06
-1.05879e-22 0.0130269 0.00111835 5.31272e-09
-7.41154e-22 -0.0130272 0.00111832 7.03744e-07
0 -0.0127919 0.00274345 6.68573e-07
2.71051e-20 0.0127919 0.00274346 9.16795e-10
1.05879e-22 0.0130596 0.00107364 5.81406e-09
7.41154e-22 -0.0130596 0.001074 8.0212e-07
-2.11758e-22 0.0130622 0.00111376 5.54743e-09
0 -0.0130642 0.00111354 7.23679e-07
0 -0.0127558 0.00321819 2.44526e-06
0 0.0127558 0.0032182 4.51368e-09
-1.69407e-21 -0.0131793 2.72144e-12 3.59464e-06
0 0.0131795 2.72155e-12 5.04868e-08
-5.99982e-22 0.0130717 0.00181695 1.42607e-09
0 -0.0130717 0.00181692 7.35628e-07
6.77626e-21 -0.012831 0.00349155 3.5591e-06
6.77626e-21 0.0128311 0.00349157 6.61831e-09
0 -0.0128493 0.00346319 3.57003e-06
6.77626e-21 0.0128494 0.00346321 6.63798e-09
5.42101e-20 0.0133093 0.000237076 1.18136e-08
0 -0.0133094 0.00023707 2.96947e-06
-7.05861e-22 -0.0130828 0.00247294 8.20879e-07
-4.23516e-22 0.0130828 0.00247294 1.01903e-09
-6.77626e-21 -0.0128661 0.00350997 3.76623e-06
0 0.0128662 0.00350999 7.07732e-09
0 -0.0129007 0.00352804 4.00748e-06
-6.77626e-21 0.0129008 0.00352806 7.50754e-09
-2.71051e-20 0.0133556 0.00075963 1.59211e-08
0 -0.0133557 0.000759628 9.6263e-07
0 -0.0129237 0.00348634 3.98939e-06
6.77626e-21 0.0129237 0.00348637 7.4689e-09
0 -0.0130384 0.00304619 2.36356e-06
1.69407e-21 0.0130384 0.0030462 4.17725e-09
-2.71051e-20 0.013427 0.001376 3.36784e-09
0 -0.013427 0.00137599 1.05303e-06
2.71051e-20 -0.0134136 0.00210978 1.13383e-06
2.71051e-20 0.0134136 0.00210979 1.31224e-09
2.71051e-20 -0.0132269 0.00336666 5.0852e-06
0 0.0132269 0.00336668 9.51122e-09
0 0.013648 0.000454486 1.11124e-07
0 -0.013648 0.000454497 3.96253e-06
-2.71051e-20 -0.0133902 0.00280379 1.07578e-06
0 0.0133902 0.0028038 1.38861e-09
3.38813e-21 0.0137151 2.8075e-13 1.58158e-07
3.38813e-21 -0.0137152 2.80907e-13 5.21061e-06
0 0.0137159 2.06276e-05 1.58876e-07
0 -0.013716 2.06975e-05 5.22052e-06
0 0.0137165 0.000169655 1.49646e-07
6.77626e-21 -0.0137166 0.000170015 4.85687e-06
-3.38813e-21 0.0137459 2.40788e-14 1.65558e-07
-3.38813e-21 -0.0137461 2.3368e-14 5.33362e-06
0 -0.013245 0.00370834 5.03335e-06
0 0.0132451 0.00370836 9.80696e-09
0 0.0137656 1.52129e-05 1.62375e-07
3.38813e-21 -0.0137659 1.52648e-05 5.31258e-06
0 0.0137671 1.75123e-14 1.61872e-07
0 -0.0137675 1.67966e-14 5.30781e-06
6.77626e-21 -0.0132718 0.0036714 5.03104e-06
0 0.0132719 0.00367142 9.80358e-09
0 -0.0132782 0.00372571 5.00894e-06
0 0.0132783 0.00372573 9.87911e-09
-1.12938e-21 0.0137896 0.000885059 8.73117e-08
0 -0.0137896 0.000885057 4.05536e-06
-6.77626e-21 0.0138204 1.18218e-14 1.77837e-07
0 -0.0138208 1.11447e-14 5.7823e-06
0 -0.0133096 0.00374322 5.03368e-06
6.77626e-21 0.0133097 0.00374323 9.92538e-09
6.77626e-21 -0.0133282 0.00371043 5.0318e-06
-6.77626e-21 0.0133283 0.00371044 9.91551e-09
-2.82344e-22 0.0137515 0.00171046 6.10497e-09
8.47033e-22 -0.0137515 0.00171046 2.58792e-06
0 0.0136783 0.0024632 1.85427e-09
0 -0.0136788 0.00246319 1.94531e-06
-3.59989e-21 0.013721 0.00246185 1.91308e-09
-9.74088e-21 -0.013721 0.00246186 2.02371e-06
8.47033e-22 -0.0137186 0.00248611 2.05649e-06
1.05879e-22 0.0137186 0.00248639 2.01101e-09
-2.25875e-22 -0.0136619 0.00322322 3.08085e-06
-4.51751e-22 0.0136619 0.00322323 5.04034e-09
0 -0.013613 0.00362484 4.95387e-06
2.71051e-20 0.013613 0.00362486 1.01355e-08
-8.47033e-22 0.0141333 0.000318961 3.88756e-07
2.82344e-22 -0.0141334 0.000318978 9.5226e-06
2.71051e-20 0.014088 0.00127938 1.69151e-08
-2.71051e-20 -0.014088 0.00127938 4.25682e-06
0 0.014059 0.00206597 3.95529e-09
0 -0.014059 0.00206597 4.0232e-06
0 -0.0136636 0.00393548 4.78675e-06
-3.38813e-21 0.0136637 0.00393551 9.77819e-09
3.38813e-21 -0.0136786 0.00391516 4.78367e-06
-3.38813e-21 0.0136787 0.00391521 9.77056e-09
3.38813e-20 0.0142351 2.9685e-15 3.6353e-07
0 -0.0142352 2.82035e-15 9.45512e-06
-3.38813e-21 -0.0136842 0.00394696 4.76544e-06
0 0.0136843 0.00394697 9.73905e-09
3.38813e-21 -0.0137015 0.00395978 4.76093e-06
0 0.0137016 0.00395978 9.70416e-09
3.38813e-21 -0.0137143 0.00394396 4.75977e-06
0 0.0137143 0.00394398 9.70182e-09
2.71051e-20 -0.0140215 0.00281646 2.01124e-06
-2.71051e-20 0.0140215 0.00281646 1.15911e-09
-1.50584e-21 -0.013895 0.00367137 3.79049e-06
-7.52918e-22 0.013895 0.00367138 7.10251e-09
4.8626e-22 -0.0144216 0.000792956 1.00713e-05
-1.56858e-22 0.0144216 0.000792939 1.43254e-07
0 -0.014453 3.04526e-16 1.20468e-05
2.71051e-20 0.0144531 3.07448e-16 2.53069e-07
0 0.0143962 0.00165212 1.33033e-08
-2.82344e-22 -0.0143962 0.00165211 7.20699e-06
-2.71051e-20 -0.0140801 0.00343826 1.8301e-06
2.71051e-20 0.0140801 0.00343826 1.81467e-09
-2.71051e-20 -0.0140066 0.00392192 4.53917e-06
2.71051e-20 0.0140066 0.00392193 9.22924e-09
2.03288e-20 0.0143632 0.00242485 3.39574e-09
2.58345e-20 -0.0143665 0.00242469 5.30603e-06
-2.11758e-22 -0.0143623 0.00267349 4.5715e-06
-2.11758e-22 0.0143623 0.00267458 2.73486e-09
0 -0.0140362 0.00420868 4.19162e-06
0 0.0140362 0.00420869 9.43843e-09
0 -0.014043 0.00420183 4.18961e-06
-1.69407e-21 0.014043 0.00420185 9.43663e-09
-1.69407e-21 -0.0140443 0.00421476 4.1735e-06
1.69407e-21 0.0140444 0.00421477 9.44518e-09
0 0.0140522 0.00422058 9.45936e-09
0 -0.0140522 0.00422057 4.16198e-06
-1.69407e-21 0.0140564 0.00421301 9.45681e-09
0 -0.0140564 0.004213 4.16162e-06
-2.71051e-20 -0.0146839 -1.74587e-17 1.63261e-05
-2.71051e-20 0.014684 -1.48501e-17 3.79141e-07
0 -0.0143543 0.0031309 3.18276e-06
-4.23516e-22 0.0143543 0.00313091 1.50265e-09
0 -0.0143605 0.00313713 3.2007e-06
0 0.0143548 0.00313704 1.50671e-09
0 -0.0147037 0.000271518 1.70726e-05
0 0.0147037 0.000271561 3.63011e-07
0 0.014356 0.00330018 2.36679e-09
-4.23516e-22 -0.014356 0.00330043 3.16757e-06
0 0.0147328 0.00124141 2.64327e-08
0 -0.0147328 0.00124141 1.16615e-05
-6.35275e-22 -0.0146156 0.00238839 7.61957e-06
0 0.0146171 0.00238816 4.24727e-09
0 0.0146909 0.00203584 6.46134e-09
0 -0.0146909 0.00203584 9.08238e-06
2.42009e-22 0.0143356 0.00382207 5.3488e-09
4.43684e-22 -0.0143356 0.00382206 3.16826e-06
0 -0.0143244 0.00417019 3.76949e-06
0 0.0143244 0.0041702 9.53102e-09
8.47033e-22 -0.014279 0.00438886 4.0054e-06
-8.47033e-22 0.014279 0.00438882 9.74771e-09
-2.71051e-20 0.0146905 0.00275577 2.05778e-09
0 -0.0146905 0.00275577 6.10022e-06
2.82344e-22 0.0149562 0.00165197 1.58191e-08
1.41172e-22 -0.0149585 0.00165056 1.35004e-05
2.71051e-20 -0.0146586 0.00346816 3.12718e-06
0 0.0146586 0.00346816 1.0084e-09
8.47033e-22 -0.0144053 0.00448257 3.91695e-06
0 0.0144084 0.00447896 9.903e-09
-6.77626e-21 -0.0151189 -5.5903e-17 2.03668e-05
-3.38813e-21 0.0151192 -5.49994e-17 2.69187e-07
0 -0.0144514 0.00451673 4.24314e-06
-4.23516e-21 0.0144515 0.00451673 1.08973e-08
0 -0.0151608 3.48457e-05 2.10429e-05
0 0.0151609 3.46302e-05 2.59735e-07
3.38813e-21 -0.0151663 -1.81511e-17 2.10326e-05
-3.38813e-21 0.0151663 -1.7962e-17 2.60482e-07
-3.38813e-21 -0.0145673 0.00422607 3.2192e-06
2.63521e-21 0.0145673 0.00422607 7.2861e-09
0 0.0151841 -1.09408e-17 2.62417e-07
-3.38813e-21 -0.0151841 -1.0993e-17 2.1093e-05
0 -0.0151655 0.000867912 1.85721e-05
0 0.0151655 0.000867909 1.38031e-07
3.38813e-21 0.0152147 -1.10521e-17 2.60837e-07
0 0.0152148 2.27204e-05 2.60805e-07
3.38813e-21 -0.015215 -1.11033e-17 2.14914e-05
0 -0.015215 2.28647e-05 2.14943e-05
2.71051e-20 -0.0147125 0.00402551 1.85583e-06
2.71051e-20 0.0147125 0.00402552 2.07835e-09
-4.23516e-22 -0.0150841 0.00231349 1.19545e-05
0 0.0150841 0.0023135 5.84503e-09
0 -0.0150901 0.00232073 1.19839e-05
0 0.015084 0.00232059 5.82905e-09
-1.41172e-22 -0.0149792 0.0031214 8.00102e-06
-1.41172e-22 0.0149792 0.0031214 2.00337e-09
2.71051e-20 -0.0146794 0.00445852 4.01126e-06
5.42101e-20 0.0146795 0.00445852 1.01337e-08
0 0.0149711 0.00367516 1.89393e-09
2.11758e-22 -0.0149711 0.00367537 5.12895e-06
0 0.0149706 0.00377567 1.87578e-09
0 -0.0149706 0.00377568 4.60567e-06
6.77626e-21 -0.0147268 0.00472094 5.89423e-06
0 0.0147268 0.00472094 1.59788e-08
0 -0.0147397 0.0047038 5.90673e-06
6.77626e-21 0.0147397 0.0047038 1.6017e-08
6.77626e-21 -0.0147494 0.00473773 6.04239e-06
6.77626e-21 0.0147494 0.00473773 1.65907e-08
8.47033e-22 -0.0150248 0.0037779 5.34486e-06
-8.47033e-22 0.0150249 0.0037779 1.90432e-09
-6.77626e-21 -0.0147753 0.00475693 6.42527e-06
-6.77626e-21 0.0147753 0.00475692 1.80883e-08
0 0.0147957 0.00471952 1.78298e-08
6.77626e-21 -0.0147957 0.00471952 6.36814e-06
1.69407e-21 0.0149238 0.00432823 9.89865e-09
0 -0.0149238 0.00432823 4.60077e-06
2.11758e-22 0.0149301 0.00431631 9.67529e-09
-1.37643e-20 -0.0149308 0.00431431 4.55034e-06
2.71051e-20 0.0153071 0.00276682 3.50624e-09
0 -0.0153071 0.00276682 1.29212e-05
2.75286e-21 -0.0149537 0.00432327 4.70834e-06
-6.35275e-22 0.0149537 0.00432327 9.78421e-09
2.71051e-20 -0.0152762 0.00345526 9.88808e-06
-2.71051e-20 0.0152762 0.00345526 1.47206e-09
0 0.015665 0.00170495 1.47816e-08
0 -0.015665 0.00170495 2.48411e-05
-2.71051e-20 0.0150898 0.00463314 2.31975e-08
-5.42101e-20 -0.0150898 0.00463315 8.15415e-06
0 -0.0152566 0.00410558 4.15048e-06
2.71051e-20 0.0152566 0.00410558 2.91084e-09
-2.11758e-22 0.0156482 0.00239974 7.13455e-09
7.05861e-23 -0.0156482 0.00239974 2.3238e-05
-6.77626e-21 0.0150378 0.00495165 2.43927e-08
6.77626e-21 -0.0150378 0.00495167 8.28909e-06
0 0.0158311 0.00050574 1.25516e-07
1.0842e-19 -0.0158311 0.000505741 3.23774e-05
-1.35525e-20 0.0150929 0.00489487 2.43258e-08
1.35525e-20 -0.0150929 0.0048949 8.30515e-06
0 0.0150892 0.00498978 2.40215e-08
0 -0.0150892 0.0049898 8.1465e-06
8.47033e-22 -0.015606 0.0031034 1.8938e-05
-2.82344e-22 0.015606 0.0031034 3.32771e-09
-6.77626e-21 0.0151439 0.00503033 2.50255e-08
6.77626e-21 -0.0151439 0.00503034 8.49862e-06
-1.35525e-20 -0.0151784 0.00496291 8.48451e-06
-1.35525e-20 0.0151784 0.0049629 2.48741e-08
2.25875e-22 0.0155884 0.00378776 2.26001e-09
7.90564e-22 -0.0155884 0.00378777 1.34486e-05
-2.03288e-21 0.0155033 0.00450865 1.22588e-08
-6.77626e-22 -0.0155033 0.00450866 8.30883e-06
2.71051e-20 0.0154178 0.0049056 2.54424e-08
-2.71051e-20 -0.0154178 0.0049056 8.6389e-06
5.42101e-20 -0.0159469 0.00273841 3.05567e-05
0 0.0159469 0.00273841 5.77296e-09
6.77626e-21 0.0153971 0.00521817 2.56108e-08
6.77626e-21 -0.0153971 0.00521817 8.97364e-06
0 -0.015903 0.0034351 2.25121e-05
-2.71051e-20 0.015903 0.0034351 2.59973e-09
0 0.0154387 0.00517349 2.55192e-08
-6.77626e-21 -0.0154387 0.00517349 8.98754e-06
0 -0.0154377 0.00524826 8.92709e-06
-6.77626e-21 0.0154377 0.00524826 2.48886e-08
1.27055e-21 0.0163339 -1.19726e-18 1.36756e-07
4.23516e-22 -0.0163364 -1.1809e-18 4.42793e-05
-6.77626e-21 0.0154764 0.00527696 2.54055e-08
0 -0.0154764 0.00527696 9.28423e-06
0 0.0155053 0.00524155 2.53734e-08
0 -0.0155053 0.00524155 9.26708e-06
5.29396e-21 0.0163537 0.00112142 7.18861e-08
-2.11758e-22 -0.0163543 0.00112154 4.75157e-05
0 0.0158756 0.0041209 1.841e-09
-2.71051e-20 -0.0158756 0.00412091 1.47019e-05
3.74812e-20 0.0163741 0.00112742 7.05363e-08
-3.02814e-20 -0.0163767 0.0011276 4.80398e-05
0 -0.0156933 0.00495313 8.18265e-06
0 0.0156933 0.00495313 1.86818e-08
0 0.0164702 3.16747e-06 1.21655e-07
-4.23516e-22 -0.0164638 2.59234e-06 4.6928e-05
-2.25875e-21 0.0163214 0.00227442 1.08825e-08
1.12938e-21 -0.0163214 0.00227441 4.10461e-05
2.25875e-22 -0.0162376 0.00307739 3.247e-05
3.38813e-22 0.0162376 0.0030774 5.34827e-09
0 0.0159046 0.00473208 4.81418e-09
-2.71051e-20 -0.0159046 0.00473208 6.23922e-06
2.71051e-20 0.0157801 0.0052058 2.51022e-08
-2.71051e-20 -0.0157801 0.00520581 9.58274e-06
5.64689e-22 0.0162469 0.00372972 3.29245e-09
2.82344e-21 -0.0162469 0.00372972 2.71164e-05
0 -0.0157746 0.00549809 9.18444e-06
0 0.0157746 0.00549809 2.61895e-08
0 -0.0158015 0.00547415 9.16966e-06
6.77626e-21 0.0158015 0.00547415 2.61768e-08
0 0.015805 0.00552064 2.64187e-08
0 -0.015805 0.00552065 9.09986e-06
6.77626e-21 0.0158347 0.00554269 2.65734e-08
6.77626e-21 -0.0158347 0.00554271 9.04794e-06
0 0.015853 0.00551418 2.65435e-08
6.77626e-21 -0.015853 0.00551419 9.04561e-06
1.12938e-22 -0.0161981 0.00441892 1.73806e-05
-1.24231e-21 0.0161981 0.00441892 3.14184e-09
0 0.0166697 0.00284041 7.72517e-09
0 -0.0166697 0.00284041 4.14842e-05
2.25875e-22 -0.0161695 0.00510699 9.35558e-06
0 0.0161695 0.00510699 1.36537e-08
5.42101e-20 0.0166597 0.00328606 6.31131e-09
-2.71051e-20 -0.0166597 0.00328606 4.22184e-05
0 0.0165248 0.00409519 3.17437e-09
-5.42101e-20 -0.0165248 0.00409519 3.1884e-05
0 0.0161207 0.00547662 2.73374e-08
0 -0.0161207 0.00547663 8.5624e-06
5.42101e-20 -0.0170334 0.00057692 6.12528e-05
0 0.0170334 0.000576921 1.18149e-07
-2.11758e-22 -0.0168873 0.00239015 5.21546e-05
0 0.0168875 0.00239019 1.23232e-08
0 0.0169716 0.00176735 1.93881e-08
0 -0.0169716 0.00176735 7.31712e-05
0 -0.0169175 0.00239894 5.27578e-05
-2.11758e-22 0.0169179 0.00239497 1.23982e-08
0 0.0169439 0.00239537 1.27628e-08
-2.11758e-22 -0.016944 0.00239536 5.3798e-05
0 0.0168719 0.00305894 8.15647e-09
0 -0.0168719 0.00305894 4.31253e-05
0 -0.0161674 0.00578952 8.65089e-06
0 0.0161674 0.00578953 2.83296e-08
2.71051e-20 0.0165034 0.00475626 2.64462e-09
2.71051e-20 -0.0165034 0.00475626 1.57115e-05
0 -0.0161836 0.0057701 8.64611e-06
0 0.0161836 0.00577012 2.83207e-08
6.77626e-21 -0.0161897 0.00580604 8.66186e-06
0 0.0161897 0.00580604 2.8467e-08
0 0.0162121 0.00582274 2.84034e-08
0 -0.0162122 0.00582275 8.65009e-06
0 0.0162243 0.00580495 2.8386e-08
-6.77626e-21 -0.0162243 0.00580495 8.64385e-06
-1.12938e-22 -0.0168523 0.00374134 4.05728e-05
0 0.0168523 0.00374134 6.49034e-09
-4.23516e-22 0.0163973 0.00553969 2.07615e-08
0 -0.0163973 0.00553969 8.1675e-06
0 -0.0170978 0.00283719 4.51364e-05
2.71051e-20 0.0170978 0.00283718 1.02646e-08
2.71051e-20 -0.0170665 0.00327483 4.44393e-05
2.71051e-20 0.0170665 0.00327483 8.54735e-09
2.71051e-20 0.0165625 0.00532761 5.33186e-09
0 -0.0165626 0.0053276 7.06861e-06
-2.82344e-22 0.0168336 0.0044175 4.84629e-09
2.82344e-22 -0.0168336 0.00441751 3.24082e-05
0 0.0164976 0.00578806 2.91919e-08
0 -0.0164976 0.00578806 8.64497e-06
-3.38813e-22 0.0168265 0.00507001 5.52024e-09
-2.25875e-22 -0.0168265 0.00507001 1.77195e-05
0 0.0176289 1.51894e-05 1.48803e-07
-3.38813e-21 -0.0176289 1.51557e-05 7.56913e-05
0 0.0176298 -6.86503e-23 1.48797e-07
0 -0.0176298 -6.83393e-23 7.56883e-05
8.47033e-22 -0.0176062 0.00116021 8.74409e-05
-2.82344e-22 0.0176062 0.00116021 8.85998e-08
0 -0.0176451 -1.78387e-23 7.60918e-05
0 0.0176451 -1.76965e-23 1.49588e-07
0 0.0171749 0.00405965 8.12749e-09
2.71051e-20 -0.0171749 0.00405966 4.62802e-05
0 -0.0176602 1.5443e-05 7.6478e-05
3.38813e-21 0.0176603 1.54771e-05 1.50321e-07
0 -0.0176607 -2.00316e-23 7.64788e-05
0 0.0176607 -1.99007e-23 1.50322e-07
6.77626e-21 0.0165809 0.00609703 4.13427e-08
0 -0.0165809 0.00609703 9.78905e-06
0 0.0165981 0.00608064 4.14631e-08
6.77626e-21 -0.0165981 0.00608064 9.79453e-06
0 -0.016605 0.00611494 9.856e-06
0 0.016605 0.00611495 4.2532e-08
0 -0.0166198 0.0061272 9.6725e-06
0 0.0166198 0.00612721 4.20671e-08
0 -0.0166291 0.00611137 9.6812e-06
0 0.0166291 0.00611138 4.21068e-08
0 0.0175901 0.00236116 2.16869e-08
0 -0.0175901 0.00236116 7.93422e-05
0 -0.0166534 0.00615457 9.71864e-06
0 0.0166534 0.00615459 4.273e-08
-7.52918e-22 -0.0168284 0.00572854 1.05973e-05
-7.52918e-22 0.0168284 0.00572853 2.69879e-08
7.05861e-23 0.0175166 0.00305113 1.57277e-08
3.5293e-22 -0.0175166 0.00305113 5.83232e-05
0 0.0171428 0.00473441 5.5482e-09
-2.71051e-20 -0.0171428 0.00473441 3.59522e-05
-1.12938e-21 0.017534 0.00360681 1.52203e-08
-2.25875e-21 -0.017534 0.00360681 5.58693e-05
2.71051e-20 0.0171172 0.00539736 6.22268e-09
-2.71051e-20 -0.0171172 0.00539736 1.46476e-05
-2.25875e-22 -0.01747 0.00438795 4.84695e-05
2.25875e-22 0.01747 0.00438795 1.24568e-08
6.77626e-21 -0.0168947 0.00636213 9.5715e-06
1.35525e-20 0.0168947 0.00636213 5.24718e-08
0 -0.0170243 0.00618637 9.85089e-06
0 0.017024 0.00618835 5.41818e-08
8.47033e-22 0.0174372 0.00507024 9.24203e-09
2.82344e-22 -0.0174372 0.00507024 3.53739e-05
1.0842e-19 -0.0182236 0.000583086 9.1106e-05
0 0.0182236 0.000583086 1.81316e-07
0 0.0177925 0.00405319 2.00277e-08
-2.71051e-20 -0.0177925 0.00405319 5.73249e-05
-5.42101e-20 -0.018201 0.00177192 0.000124615
0 0.018201 0.00177192 3.27364e-08
-1.12938e-21 -0.0173656 0.00581376 1.74441e-05
1.58113e-21 0.0173656 0.00581376 2.52605e-08
0 0.0171242 0.00658581 5.4004e-08
0 -0.0171242 0.00658582 1.05915e-05
2.71051e-20 0.0177701 0.0047233 1.58744e-08
-5.42101e-20 -0.0177701 0.0047233 5.34397e-05
6.77626e-21 0.0171594 0.0066222 5.43206e-08
-6.77626e-21 -0.0171594 0.0066222 1.07475e-05
0 0.0171745 0.00660974 5.44802e-08
0 -0.0171745 0.00660974 1.07612e-05
-6.77626e-21 0.0171745 0.00663768 5.58066e-08
0 -0.0171745 0.00663768 1.08975e-05
-5.42101e-20 0.0181606 0.00305643 2.84802e-08
-5.42101e-20 -0.0181606 0.00305643 8.60226e-05
0 -0.01719 0.00665349 1.05858e-05
0 0.01719 0.00665349 5.44725e-08
6.77626e-21 -0.0172014 0.00663722 1.06118e-05
0 0.0172014 0.00663722 5.46308e-08
-3.38813e-21 -0.017284 0.00651867 1.10995e-05
-3.38813e-21 0.017284 0.00651867 4.947e-08
6.77626e-21 -0.0172277 0.00669185 1.05766e-05
0 0.0172277 0.00669185 5.49462e-08
1.41172e-22 -0.0181264 0.00381062 6.74155e-05
1.41172e-22 0.0181264 0.00381066 3.32091e-08
0 -0.0177303 0.00540333 3.79369e-05
0 0.0177303 0.00540333 9.61349e-09
-3.01167e-21 -0.0174485 0.00633775 1.18946e-05
0 0.0174485 0.00633776 4.09429e-08
-2.82344e-22 0.0181015 0.00437909 3.23445e-08
0 -0.0181015 0.00437909 5.93209e-05
2.71051e-20 0.0177286 0.00604036 1.06904e-08
-2.71051e-20 -0.0177286 0.00604036 1.55319e-05
-5.64689e-22 0.018075 0.00504761 2.5974e-08
5.64689e-22 -0.018075 0.00504762 5.19718e-05
-6.77626e-21 -0.0174666 0.00693495 9.41181e-06
-6.77626e-21 0.0174666 0.00693496 5.8348e-08
0 0.0188065 1.6283e-05 2.25487e-07
0 -0.0188065 1.62599e-05 0.000107089
0 0.0188069 2.06869e-24 2.25483e-07
0 -0.0188069 2.05913e-24 0.000107088
0 -0.0188233 -2.46345e-25 0.000107546
3.38813e-21 0.0188233 -2.46725e-25 2.26739e-07
0 -0.0188396 1.62155e-05 0.000108001
0 0.0188396 1.62383e-05 2.27967e-07
0 -0.0188397 -2.41124e-25 0.000108002
0 0.0188397 -2.41491e-25 2.2797e-07
0 -0.0188091 0.00116454 0.000129139
5.64689e-22 0.0188091 0.00116454 1.36909e-07
0 0.0184387 0.00403102 4.86017e-08
2.71051e-20 -0.0184387 0.00403102 6.79497e-05
1.41172e-22 -0.0176208 0.00677688 9.65894e-06
7.05861e-23 0.0176205 0.00677795 6.09856e-08
0 -0.0180488 0.00571123 3.74097e-05
-1.69407e-21 0.0180488 0.00571123 1.76051e-08
5.64689e-22 0.018794 0.00239227 5.24197e-08
0 -0.018794 0.00239227 0.000131668
5.42101e-20 0.0184023 0.0046998 4.46658e-08
0 -0.0184023 0.0046998 5.86457e-05
-3.38813e-21 -0.0179596 0.00643086 1.80796e-05
-1.50584e-21 0.0179596 0.00643086 3.23716e-08
0 0.0177052 0.00717767 6.50682e-08
0 -0.0177052 0.00717767 1.09956e-05
0 -0.0177437 0.00721689 1.12303e-05
-6.77626e-21 0.0177437 0.0072169 6.6058e-08
0 0.0184015 0.00534889 3.32783e-08
2.71051e-20 -0.0184015 0.00534889 5.71366e-05
0 -0.0177602 0.00720499 1.12478e-05
0 0.0177602 0.00720499 6.62791e-08
0 -0.0177596 0.00723308 1.1419e-05
0 0.0177596 0.00723309 6.81071e-08
0 -0.0177751 0.00724885 1.10999e-05
0 0.0177751 0.00724886 6.65516e-08
7.05861e-23 -0.0188307 0.00372998 8.77876e-05
7.05861e-23 0.0188307 0.00373003 7.46765e-08
-6.77626e-21 -0.017788 0.00723288 1.11257e-05
-6.77626e-21 0.017788 0.00723289 6.67318e-08
0 -0.018738 0.00435322 6.71557e-05
-4.23516e-22 0.018738 0.00435322 7.07458e-08
4.23516e-22 -0.0187376 0.00436113 6.71238e-05
2.6258e-20 0.0187376 0.00436113 7.10604e-08
6.77626e-21 -0.0178113 0.00728564 1.12196e-05
6.77626e-21 0.0178113 0.00728566 6.78189e-08
-6.77626e-21 -0.0178794 0.00711713 1.18295e-05
3.38813e-21 0.0178794 0.00711713 6.03559e-08
-2.71051e-20 -0.0183488 0.00603424 3.9875e-05
-2.71051e-20 0.0183488 0.00603424 1.78917e-08
-3.01167e-21 -0.0180548 0.00694831 1.29156e-05
0 0.0180548 0.00694832 5.03319e-08
0 -0.0194128 0.000584032 0.000124079
0 0.0194128 0.000584032 2.72403e-07
0 0.018803 0.00493677 7.24125e-08
0 -0.018803 0.00493677 6.3555e-05
-5.42101e-20 0.0194073 0.00177875 5.77446e-08
0 -0.0194073 0.00177875 0.000177838
0 -0.0183455 0.00666212 1.82796e-05
-2.71051e-20 0.0183455 0.00666212 1.48199e-08
1.12938e-21 -0.0186965 0.00568331 5.68266e-05
0 0.0186965 0.00568331 5.23818e-08
2.71051e-20 -0.0180387 0.00751698 1.09592e-05
-6.77626e-21 0.0180387 0.00751699 7.7299e-08
0 -0.0194176 0.0030161 0.000136579
-5.42101e-20 0.0194176 0.0030161 9.04448e-08
-5.64689e-22 -0.0182201 0.0073749 1.13694e-05
-1.8823e-22 0.0182201 0.0073749 7.92809e-08
-1.12938e-21 -0.0186655 0.00633955 4.24076e-05
5.64689e-22 0.0186655 0.00633956 3.23222e-08
-2.71051e-20 -0.0190338 0.00534623 6.56791e-05
0 0.0190338 0.00534623 9.24111e-08
-6.77626e-22 -0.0185755 0.00702539 2.20677e-05
-3.83988e-21 0.0185755 0.00702539 4.13408e-08
5.42101e-20 0.0193824 0.00433462 1.49953e-07
0 -0.0193824 0.00433462 7.91167e-05
3.38813e-21 0.0182812 0.00776357 7.10845e-08
3.38813e-21 -0.0182812 0.00776356 1.07451e-05
-3.38813e-21 -0.0182994 0.00778211 1.0816e-05
0 0.0182994 0.00778212 7.12409e-08
0 -0.0183082 0.00777648 1.08158e-05
-3.38813e-21 0.0183082 0.00777649 7.12812e-08
0 -0.018307 0.00778982 1.08539e-05
3.38813e-21 0.018307 0.00778983 7.1981e-08
-3.38813e-21 -0.0183179 0.00780093 1.0759e-05
0 0.0183179 0.00780095 7.15559e-08
-3.38813e-21 -0.0183258 0.0077918 1.07628e-05
0 0.0183258 0.00779181 7.15892e-08
-2.71051e-20 -0.0190082 0.00599365 6.37815e-05
0 0.0190082 0.00599365 6.50712e-08
-3.38813e-21 -0.0184198 0.00771698 1.14795e-05
1.69407e-21 0.0184198 0.00771698 6.42291e-08
3.38813e-21 0.019989 1.55635e-05 3.21209e-07
0 -0.019989 1.55498e-05 0.000137335
0 0.019989 -4.66467e-27 3.21204e-07
0 -0.0199891 -4.6553e-27 0.000137334
6.58803e-22 0.0193663 0.00500042 1.58331e-07
1.8823e-22 -0.0193663 0.00500042 7.11409e-05
3.38813e-21 -0.0200048 3.45034e-28 0.000137702
-3.38813e-21 0.0200048 3.45402e-28 3.22535e-07
0 -0.0200207 3.36263e-28 0.000138072
0 0.0200207 3.36626e-28 3.23841e-07
0 -0.0200208 1.5476e-05 0.000138071