# kMean  POINT_DATA 38356
# x  y  z  kMean
0.057587 -6.77626e-21 1.35324e-07 3.88646e-09
-0.057587 6.77626e-21 1.35324e-07 4.34224e-07
0.0575869 0 0.000409945 1.90856e-09
-0.0575869 -3.38813e-21 0.000409945 3.22651e-07
0.0575869 1.69407e-21 0.000633502 1.50434e-09
-0.0575869 0 0.000633503 2.97942e-07
0.0575868 0 0.00104356 1.89232e-09
-0.0575868 6.77626e-21 0.00104356 3.49477e-07
0.0575868 3.38813e-21 0.00145414 2.6828e-09
-0.0575868 0 0.00145414 4.62752e-07
0.0575868 -1.69407e-21 0.00167624 3.14975e-09
-0.0575868 -3.38813e-21 0.00167624 5.36876e-07
0.0575868 0 0.002087 4.04954e-09
-0.0575868 0 0.002087 6.97099e-07
0.0577687 6.77626e-21 0.000993828 1.71756e-09
-0.0577687 6.77626e-21 0.00099383 3.1974e-07
0.0577684 0 0.00110475 1.92881e-09
-0.0577684 0 0.00110475 3.49303e-07
0.0577859 0 0.000103253 3.40858e-09
-0.0577859 0 0.000103251 4.23926e-07
0.0577942 0 1.15393e-07 4.06454e-09
-0.0577942 0 1.15393e-07 4.56237e-07
0.0578027 -6.77626e-21 1.9009e-05 3.99744e-09
-0.0578027 0 1.90089e-05 4.54348e-07
-0.0578191 0 1.14264e-07 4.83013e-07
0.0578191 6.77626e-21 1.14264e-07 4.09241e-09
0.0577854 0 0.00199428 3.79723e-09
-0.0577854 0 0.00199429 6.46482e-07
0.0577823 0 0.002105 4.11691e-09
-0.0577823 0 0.002105 7.07518e-07
-0.0578229 -6.77626e-21 0.00105089 3.07348e-07
0.057823 -6.77626e-21 0.00105089 1.67924e-09
0.0578007 6.77626e-21 0.00208013 4.04852e-09
-0.0578007 -6.77626e-21 0.00208013 6.93083e-07
-0.0578427 0 5.77437e-05 4.29898e-07
0.0578427 0 5.77443e-05 3.59736e-09
-0.0578443 6.77626e-21 1.78361e-05 4.65031e-07
0.0578443 0 1.78361e-05 3.98867e-09
-0.0578469 6.77626e-21 1.13152e-07 4.68431e-07
0.0578469 0 1.13152e-07 4.0334e-09
-0.0578171 0 0.00210819 7.07877e-07
0.0578171 0 0.00210819 4.17308e-09
-0.0578434 0 0.00204429 6.41507e-07
0.0578434 0 0.00204429 3.77449e-09
-0.0578462 0 0.00208444 6.9974e-07
0.0578462 6.77626e-21 0.00208444 4.1252e-09
-0.0578583 6.77626e-21 0.00211199 7.17673e-07
0.0578583 0 0.00211199 4.23997e-09
-0.0579123 3.38813e-21 0.000912365 2.76523e-07
0.0579123 0 0.000912358 1.42487e-09
-0.0579215 0 5.62241e-05 4.59871e-07
0.0579215 6.77626e-21 5.62242e-05 3.44967e-09
-0.0579145 6.77626e-21 0.0011972 3.23233e-07
0.0579145 3.38813e-21 0.00119721 1.81305e-09
0.0579296 -6.77626e-21 1.06809e-07 3.96418e-09
-0.0579296 6.77626e-21 1.06809e-07 4.81056e-07
-0.057935 -3.38813e-21 0.000246015 3.50823e-07
0.0579351 0 0.000246023 2.65912e-09
-0.0579259 -6.77626e-21 0.00205416 6.25768e-07
0.0579259 6.77626e-21 0.00205416 3.71553e-09
-0.0579372 -6.77626e-21 0.00186079 5.4098e-07
0.0579372 -1.01644e-20 0.00186077 3.18534e-09
-0.057965 0 0.00212181 6.75614e-07
0.0579651 0 0.00212181 4.0283e-09
0.0580744 -3.38813e-21 1.10802e-07 2.91675e-09
-0.0580744 -3.38813e-21 1.10803e-07 4.808e-07
0.0581721 -4.51751e-21 0.0006106 9.39047e-10
-0.0581721 -2.25875e-21 0.0006106 2.22686e-07
0.0581735 2.25875e-21 0.00151344 1.84288e-09
-0.0581735 4.51751e-21 0.00151345 3.12494e-07
-0.0581926 -3.38813e-21 0.00214274 4.93981e-07
0.0581927 2.5411e-21 0.00214276 3.05135e-09
-0.058277 1.01644e-20 1.16392e-07 4.90974e-07
0.058277 1.35525e-20 1.16392e-07 2.16465e-09
-0.0583193 -1.35525e-20 0.000122998 4.64069e-07
0.0583193 0 0.000122997 1.93299e-09
0.0582823 -1.18585e-20 0.002151 2.81149e-09
-0.0582823 5.0822e-21 0.002151 4.48348e-07
-0.0583281 -1.35525e-20 0.00201521 4.1664e-07
0.0583281 -1.35525e-20 0.0020152 2.57962e-09
-0.0583808 2.71051e-20 0.000286504 3.16028e-07
0.0583808 0 0.000286506 1.20399e-09
-0.058383 0 0.00106968 1.45335e-07
0.058383 0 0.00106967 7.76881e-10
-0.0583862 0 0.00185761 2.95476e-07
0.0583862 0 0.00185759 1.79726e-09
0.0584351 -2.71051e-20 1.20751e-07 2.84136e-09
-0.0584351 0 1.20752e-07 5.17551e-07
-0.0584722 -2.71051e-20 0.00216847 5.06067e-07
0.0584722 -1.35525e-20 0.00216848 3.16373e-09
0.0585878 1.8823e-22 0.000684239 5.33072e-10
-0.0585878 9.41148e-22 0.00068424 1.46829e-07
-0.0586022 -3.38813e-21 0.000178774 5.43153e-07
0.0586022 -3.38813e-21 0.000178774 1.56688e-09
0.0585913 -1.8823e-21 0.00147248 1.21485e-09
-0.0585913 1.12938e-21 0.00147248 2.07816e-07
0.0586254 -3.38813e-21 8.46296e-05 1.43514e-09
-0.0586254 0 8.46309e-05 5.89494e-07
0.0586312 1.01644e-20 9.46986e-08 1.87448e-09
-0.0586312 1.69407e-20 9.46999e-08 6.01694e-07
-0.058614 -3.38813e-21 0.00198107 3.84001e-07
0.058614 -3.38813e-21 0.00198105 2.23902e-09
-0.0586388 3.38813e-21 0.00205711 3.79072e-07
0.0586389 -3.38813e-21 0.00205707 2.18896e-09
-0.0586526 -2.03288e-20 0.00218507 4.46062e-07
0.0586526 2.71051e-20 0.00218507 2.66596e-09
-0.0587868 0 7.40296e-08 5.43862e-07
0.0587868 1.35525e-20 7.4028e-08 3.73061e-09
0.0587871 0 0.00108477 6.94054e-10
-0.0587871 0 0.00108477 1.31823e-07
0.0588138 0 0.00041924 1.4133e-09
-0.0588138 0 0.000419239 2.59425e-07
0.0587904 -1.35525e-20 0.00219775 3.48407e-09
-0.0587904 0 0.00219775 5.63594e-07
0.0588211 0 0.00175686 1.57071e-09
-0.0588211 1.35525e-20 0.00175688 2.73909e-07
0.0589944 -2.25875e-21 0.00075431 1.2851e-09
-0.0589944 -6.77626e-21 0.000754313 2.05099e-07
0.0589984 -4.51751e-21 0.00142978 1.71655e-09
-0.0589984 -9.03502e-21 0.00142979 3.01673e-07
0.059008 6.77626e-21 0.00221778 3.69037e-09
-0.0590081 6.77626e-21 0.00221778 6.20251e-07
-0.0590549 1.35525e-20 8.3519e-08 5.02885e-07
0.0590549 0 8.35176e-08 4.94949e-09
-0.0590696 0 0.000188904 4.74607e-07
0.0590696 0 0.000188898 4.39483e-09
-0.0590838 -2.71051e-20 8.57398e-08 5.03821e-07
0.0590838 -1.35525e-20 8.57395e-08 5.04931e-09
0.05908 0 0.00199667 3.28703e-09
-0.05908 0 0.00199668 5.64555e-07
0.059078 6.77626e-21 0.00212677 3.51442e-09
-0.059078 0 0.00212682 6.02974e-07
-0.0591578 6.77626e-21 0.00223156 6.49204e-07
0.0591578 6.77626e-21 0.00223157 3.86489e-09
-0.0593378 2.71051e-20 9.41278e-08 6.52085e-07
0.0593379 5.42101e-20 9.41279e-08 6.08654e-09
-0.0593529 2.25875e-21 0.000581993 2.5604e-07
0.0593529 -4.51751e-21 0.00058199 1.83697e-09
-0.0593596 -1.12938e-21 0.00110181 2.11404e-07
0.0593596 -2.25875e-21 0.0011018 1.12641e-09
-0.0593591 -2.25875e-21 0.00162171 3.7404e-07
0.0593591 0 0.0016217 2.1368e-09
0.059356 0 0.0022498 4.30161e-09
-0.059356 4.06576e-20 0.0022498 7.03471e-07
0.0594899 0 0.00226213 4.48826e-09
-0.05949 -1.35525e-20 0.00226213 7.42142e-07
-0.0596053 0 7.49137e-08 5.73293e-07
0.0596053 -3.38813e-21 7.49138e-08 5.2505e-09
-0.0596378 -3.38813e-21 6.7265e-05 5.37981e-07
0.0596378 1.35525e-20 6.7278e-05 4.8739e-09
-0.0596391 0 0.000281382 4.7897e-07
0.0596391 0 0.000281382 4.18846e-09
-0.0596522 -1.35525e-20 0.000750556 1.69785e-07
0.0596522 -1.35525e-20 0.000750553 8.22489e-10
-0.0596652 0 7.43487e-08 5.84346e-07
0.0596653 1.01644e-20 7.43486e-08 5.34342e-09
-0.0596556 -1.35525e-20 0.00146976 2.84938e-07
0.0596556 0 0.00146976 1.59441e-09
-0.0596502 -1.12938e-21 0.00197793 6.85344e-07
0.0596502 1.12938e-21 0.00197792 4.01465e-09
-0.0598453 6.77626e-21 0.00229482 8.55042e-07
0.0598454 -1.35525e-20 0.00229483 5.21874e-09
0.0599214 -2.71051e-20 5.8673e-08 7.03655e-09
-0.0599214 2.71051e-20 5.86732e-08 7.50759e-07
-0.0599318 0 0.000596737 2.8595e-07
0.0599318 -2.25875e-21 0.000596735 2.22813e-09
-0.0599376 -1.12938e-21 0.00163636 4.47486e-07
0.0599376 -1.12938e-21 0.00163637 2.60393e-09
0.0599523 3.38813e-22 0.00111691 1.26643e-09
-0.0599523 1.12938e-22 0.00111691 2.28787e-07
-0.0599299 2.71051e-20 0.00230261 8.80575e-07
0.0599299 0 0.00230261 5.42231e-09
0.059989 6.77626e-21 0.00230805 5.52214e-09
-0.059989 -6.77626e-21 0.00230805 8.988e-07
-0.0601336 -1.35525e-20 6.56213e-08 6.13142e-07
0.0601336 0 6.56212e-08 6.6087e-09
0.0602132 1.12938e-21 0.000252409 5.46332e-09
-0.0602132 0 0.00025241 4.86668e-07
0.0602294 4.06576e-20 0.000784297 1.0124e-09
-0.0602294 -1.35525e-20 0.000784301 1.86984e-07
-0.0602309 -2.71051e-20 0.00146539 3.00284e-07
0.0602309 0 0.00146538 1.72476e-09
0.0602724 -1.35525e-20 6.43014e-08 6.96523e-09
-0.0602724 0 6.43015e-08 6.42698e-07
0.0602424 1.41172e-22 0.00197213 4.9719e-09
-0.0602424 5.64689e-22 0.00197212 8.3094e-07
-0.060476 0 6.96067e-08 8.51559e-07
0.060476 0 6.96065e-08 8.48356e-09
0.0604796 -2.25875e-21 0.000600001 3.04913e-09
-0.0604796 7.52918e-22 0.000600003 3.13771e-07
-0.0604927 1.90582e-20 0.00235439 1.03222e-06
0.0604959 0 0.00235469 6.42228e-09
0.0605079 0 0.00234001 6.39849e-09
-0.060508 0 0.00233988 1.03062e-06
-0.0605575 -2.25875e-21 0.0011318 2.23841e-07
0.0605575 -1.12938e-21 0.00113179 1.34092e-09
-0.0605507 0 0.00162686 4.60773e-07
0.0605507 0 0.00162685 2.71529e-09
0.0605441 -1.27055e-21 0.00235913 6.5162e-09
-0.0605446 4.23516e-22 0.00235917 1.04917e-06
-0.0606726 0 5.84249e-08 7.37431e-07
0.0606726 1.35525e-20 5.84249e-08 8.70514e-09
0.0608243 -1.03526e-21 0.0002887 7.56575e-09
-0.0608243 8.47033e-22 0.000288701 5.5834e-07
-0.0608389 4.51751e-21 0.00196303 8.84806e-07
0.0608389 -1.12938e-21 0.00196301 5.20198e-09
0.0608907 1.35525e-20 5.77037e-08 9.03485e-09
-0.0608907 1.35525e-20 5.77037e-08 7.99003e-07
0.061022 0 0.000858041 1.15621e-09
-0.061022 9.03502e-21 0.000858044 1.52362e-07
0.0610196 -1.35525e-20 0.0014351 1.183e-09
-0.0610196 -4.51751e-21 0.00143511 1.96906e-07
0.0610807 0 4.80731e-08 9.27509e-09
-0.0610807 -2.71051e-20 4.80731e-08 1.01203e-06
0.0610587 -3.38813e-21 0.00240648 7.46389e-09
-0.0610588 0 0.00240649 1.21452e-06
0.0610729 3.38813e-21 0.00238496 7.43603e-09
-0.061073 -3.38813e-21 0.002385 1.21313e-06
-0.0610955 0 0.00240987 1.22648e-06
0.0610955 -3.38813e-21 0.00240986 7.49166e-09
-0.0610995 0 0.00235733 1.16832e-06
0.0610995 3.38813e-21 0.00235725 7.12011e-09
-0.0611234 0 0.0023884 1.23591e-06
0.0611234 0 0.00238837 7.55725e-09
-0.0611363 3.38813e-21 0.00241362 1.25021e-06
0.0611364 0 0.00241362 7.655e-09
-0.0612633 0 0.000606688 4.09695e-07
0.0612633 0 0.000606686 3.52202e-09
0.0612584 2.71051e-20 0.00172056 2.59603e-09
-0.0612584 0 0.00172055 4.34051e-07
0.0612897 0 0.00114617 9.34037e-10
-0.0612897 2.71051e-20 0.00114617 1.41217e-07
-0.0613382 -2.71051e-20 3.75146e-08 8.68842e-07
0.0613382 -2.71051e-20 3.7514e-08 8.62475e-09
-0.0614691 1.41172e-22 0.000272853 7.26959e-07
0.0614691 -1.8823e-22 0.000272849 7.52504e-09
-0.0614658 -3.38813e-21 0.00200447 1.00702e-06
0.0614659 -7.90564e-21 0.00200446 5.82625e-09
-0.0615061 -1.35525e-20 3.67859e-08 9.30017e-07
0.0615061 1.35525e-20 3.67852e-08 9.02801e-09
-0.0615545 -6.77626e-21 0.000876319 1.39101e-07
0.0615545 2.25875e-21 0.000876318 1.15147e-09
-0.0615509 -9.03502e-21 0.00144997 1.53507e-07
0.0615509 -9.03502e-21 0.00144997 9.82088e-10
0.061707 -3.38813e-21 0.00246613 9.38983e-09
-0.0617071 0 0.00246613 1.47471e-06
0.0617173 0 0.00245301 9.38697e-09
-0.0617173 3.38813e-21 0.00245302 1.47336e-06
-0.0617319 0 0.00246842 1.479e-06
0.0617319 0 0.00246843 9.42558e-09
-0.0617337 0 0.00243692 1.44069e-06
0.0617337 0 0.00243691 9.18302e-09
-0.061748 0 0.00245429 1.48481e-06
0.061748 0 0.00245428 9.49229e-09
-0.0617555 -3.38813e-21 0.00247059 1.49353e-06
0.0617555 -3.38813e-21 0.00247059 9.56237e-09
0.0618119 0 0.000576099 4.14795e-09
-0.0618119 0 0.000576101 5.10799e-07
-0.0618206 0 1.81838e-08 1.14618e-06
0.0618207 -2.71051e-20 1.81818e-08 9.6144e-09
-0.0618057 0 0.00179046 4.69615e-07
0.0618057 2.71051e-20 0.00179046 2.93201e-09
-0.0618911 1.93608e-21 0.00110224 1.12575e-07
0.0618911 -7.7443e-21 0.00110224 9.62777e-10
-0.0620668 -1.35525e-20 0.000803504 1.92952e-07
0.0620668 -5.42101e-21 0.000803499 1.66103e-09
0.0620551 9.03502e-21 0.0014783 1.08004e-09
-0.0620551 -4.51751e-21 0.0014783 1.43083e-07
-0.062113 -2.37169e-20 1.60896e-08 1.18336e-06
0.062113 -3.72694e-20 1.60878e-08 1.20125e-08
-0.0620964 -5.64689e-22 0.0020808 1.37049e-06
0.0620964 2.82344e-21 0.00208081 9.17711e-09
-0.0621537 -2.25875e-21 0.000297886 1.06226e-06
0.0621538 -1.12938e-21 0.000297887 1.07742e-08
-0.0621775 -6.77626e-21 1.56614e-08 1.1994e-06
0.0621776 4.06576e-20 1.56595e-08 1.2326e-08
-0.0621833 0 0.00250996 1.49215e-06
0.0621833 0 0.00250996 1.02792e-08
-0.0621909 0 0.00249508 1.4834e-06
0.0621909 3.38813e-21 0.00249509 1.02345e-08
0.0622064 0 0.00247948 9.9185e-09
-0.0622064 -4.40457e-20 0.00247946 1.43537e-06
0.062211 1.69407e-20 0.00251251 1.01637e-08
-0.062211 3.38813e-21 0.00251251 1.47679e-06
0.0622439 0 0.00247181 1.00464e-08
-0.0622439 0 0.00247177 1.43427e-06
-0.062464 2.71051e-20 1.36276e-08 1.33033e-06
0.0624641 0 1.36259e-08 1.24559e-08
-0.0624707 0 0.000664989 4.46503e-07
0.0624707 0 0.000664986 4.32947e-09
-0.062477 -1.12938e-21 0.00119037 1.30329e-07
0.062477 -2.25875e-21 0.00119036 1.05266e-09
0.062456 -1.01644e-20 0.00253505 9.46367e-09
-0.062456 2.71051e-20 0.00253505 1.26966e-06
0.0624641 -3.38813e-21 0.00247936 9.41048e-09
-0.0624641 -6.77626e-21 0.00247929 1.24385e-06
0.0625428 4.51751e-21 0.0018227 3.43404e-09
-0.0625428 -2.25875e-21 0.0018227 4.95304e-07
-0.062548 2.25875e-21 0.00223368 1.07151e-06
0.062548 0 0.00223368 7.91963e-09
-0.0626458 -3.38813e-21 0.00247189 1.10759e-06
0.0626458 3.38813e-21 0.00247193 7.89728e-09
-0.0627253 -6.77626e-21 1.30352e-08 1.34284e-06
0.0627253 6.77626e-21 1.30342e-08 1.32526e-08
-0.0626789 6.77626e-21 0.00255556 1.11303e-06
0.0626789 6.77626e-21 0.00255556 7.59999e-09
0.0627232 1.35525e-20 0.00247251 6.88483e-09
-0.0627232 0 0.00247247 9.93264e-07
-0.0627775 0 0.000301894 1.17769e-06
0.0627776 2.25875e-21 0.000301892 1.16138e-08
0.0627289 0 0.00253277 7.12797e-09
-0.0627289 -6.77626e-21 0.00253275 1.04571e-06
0.0627357 6.77626e-21 0.00256079 7.05589e-09
-0.0627358 6.77626e-21 0.00256079 1.04267e-06
-0.0627919 1.35525e-20 0.000886652 1.61094e-07
0.0627919 0 0.000886656 1.43791e-09
-0.0628164 0 1.26849e-08 1.36087e-06
0.0628164 -6.77626e-21 1.2684e-08 1.3425e-08
-0.0628008 -1.35525e-20 0.00150627 1.08249e-07
0.0628008 -2.71051e-20 0.00150627 6.27815e-10
-0.0628112 1.35525e-20 0.00226818 8.51894e-07
0.0628112 -1.35525e-20 0.00226818 5.89167e-09
-0.0628645 6.77626e-21 0.00225928 7.7933e-07
0.0628645 -6.77626e-21 0.00225928 5.24073e-09
-0.0630768 -2.71051e-20 1.21048e-08 1.46195e-06
0.0630768 5.42101e-20 1.21046e-08 1.38909e-08
-0.0630912 -4.51751e-21 0.000666653 4.9658e-07
0.0630913 1.35525e-20 0.000666654 4.77715e-09
-0.0630462 0 0.00258936 1.04871e-06
0.0630463 -6.77626e-21 0.00258936 6.57181e-09
-0.0630991 3.38813e-21 0.00119257 1.4708e-07
0.0630991 5.64689e-21 0.00119258 1.11331e-09
-0.0630753 0 0.00254724 1.05447e-06
0.0630753 0 0.00254725 6.62702e-09
-0.0631146 -2.25875e-21 0.0018442 3.65467e-07
0.0631146 -6.77626e-21 0.0018442 2.32599e-09
0.0631295 6.77626e-21 0.00220804 5.07666e-09
-0.0631295 6.77626e-21 0.00220804 7.86887e-07
-0.0631287 0 0.00259695 1.19885e-06
0.0631287 6.77626e-21 0.00259695 7.43503e-09
-0.0631356 1.35525e-20 0.00244816 9.5617e-07
0.0631356 6.77626e-21 0.0024482 6.05382e-09
0.0632025 0 0.00255032 6.98963e-09
-0.0632025 6.77626e-21 0.00255031 1.12245e-06
0.063231 6.77626e-21 0.00260636 7.09541e-09
-0.063231 0 0.00260636 1.14773e-06
-0.063349 3.38813e-21 1.19264e-08 1.48502e-06
0.063349 -1.35525e-20 1.19262e-08 1.43528e-08
-0.0633802 1.12938e-21 0.000299346 1.31648e-06
0.0633802 2.25875e-21 0.00029935 1.27712e-08
-0.0634014 1.01644e-20 1.18937e-08 1.4953e-06
0.0634014 -1.69407e-20 1.18936e-08 1.44661e-08
-0.0633962 4.06576e-20 0.000886345 1.8983e-07
0.0633962 2.71051e-20 0.000886349 1.67943e-09
-0.0634042 0 0.00150026 1.27338e-07
0.0634042 -2.71051e-20 0.00150026 7.00273e-10
-0.0634115 -6.77626e-21 0.00227415 9.64904e-07
0.0634115 0 0.00227415 6.05759e-09
-0.0635497 0 0.0026357 1.26494e-06
0.0635497 0 0.00263569 7.7549e-09
-0.0636291 -5.80823e-21 0.000643872 5.66299e-07
0.0636291 5.80823e-21 0.000643874 5.45424e-09
-0.0635905 1.35525e-20 0.00256259 1.25867e-06
0.0635905 2.71051e-20 0.00256259 7.77195e-09
-0.0636736 -2.71051e-20 1.17146e-08 1.57585e-06
0.0636736 2.71051e-20 1.17145e-08 1.51131e-08
-0.0637074 1.12938e-21 0.00119084 1.6951e-07
0.0637074 7.90564e-21 0.00119084 1.27882e-09
-0.0637064 9.03502e-21 0.00183861 3.95889e-07
0.0637064 -4.51751e-21 0.00183862 2.40877e-09
0.0636972 0 0.00228451 5.96433e-09
-0.0636972 1.12938e-21 0.00228451 9.51364e-07
0.0636864 0 0.00264828 9.16606e-09
-0.0636864 -1.35525e-20 0.00264828 1.50304e-06
0.0638056 0 0.00256928 8.10325e-09
-0.0638056 0 0.00256928 1.3062e-06
0.0638572 -6.77626e-21 0.00266399 8.24583e-09
-0.0638572 0 0.002664 1.33806e-06
-0.0639761 -5.02926e-21 1.11264e-08 1.62338e-06
0.0639761 4.09752e-20 1.11265e-08 1.56689e-08
-0.063985 -4.51751e-21 0.000294135 1.47933e-06
0.063985 0 0.000294132 1.43478e-08
-0.0639986 4.51751e-21 0.000797603 3.82049e-07
0.0639987 0 0.000797603 3.60361e-09
0.0639966 1.35525e-20 0.00216928 4.66291e-09
-0.0639966 -1.35525e-20 0.00216927 7.27652e-07
0.0639893 2.71051e-20 0.00242216 8.2585e-09
-0.0639893 -1.35525e-20 0.00242216 1.30668e-06
-0.0640906 -2.71051e-21 0.00161504 2.62716e-07
0.0640906 0 0.00161505 1.59338e-09
-0.0640774 1.35525e-20 0.00268425 1.39322e-06
0.0640774 0 0.00268425 8.58085e-09
-0.0641378 -2.71051e-20 0.0025811 1.38551e-06
0.0641378 -2.71051e-20 0.00258111 8.59548e-09
-0.0642238 0 0.0011939 1.86675e-07
0.0642238 4.51751e-21 0.0011939 1.41385e-09
-0.0642454 -1.54886e-20 0.00190905 4.65324e-07
0.0642454 -1.54886e-20 0.00190906 2.79783e-09
-0.0642765 2.71051e-20 1.05719e-08 1.71823e-06
0.0642765 -2.71051e-20 1.0572e-08 1.62305e-08
-0.0643071 0 0.000580294 8.99325e-07
0.0643071 2.71051e-20 0.000580294 8.47572e-09
0.0642698 1.35525e-20 0.00270196 1.07098e-08
-0.0642698 0 0.00270196 1.75887e-06
0.0642914 1.12938e-21 0.00231061 6.46849e-09
-0.0642914 -3.38813e-21 0.0023106 1.03376e-06
0.064507 -1.35525e-20 0.00272379 9.28382e-09
-0.064507 6.77626e-21 0.00272379 1.51176e-06
-0.0645717 0 1.00932e-08 1.79322e-06
0.0645718 0 1.00933e-08 1.63697e-08
-0.0645942 3.38813e-21 0.000105204 1.76613e-06
0.0645942 -5.0822e-21 0.000105297 1.6133e-08
-0.0646037 -5.0822e-21 0.000289957 1.67886e-06
0.0646037 0 0.000289963 1.54158e-08
-0.0646061 0 1.00752e-08 1.80492e-06
0.0646062 1.69407e-20 1.00752e-08 1.64179e-08
-0.0645786 0 0.00255742 1.48929e-06
0.0645786 -1.35525e-20 0.00255743 9.26738e-09
-0.0646301 9.03502e-21 0.000896905 3.25182e-07
0.0646301 -2.25875e-21 0.000896903 2.82317e-09
0.0646074 9.03502e-21 0.00205695 3.34512e-09
-0.0646074 9.03502e-21 0.00205694 5.47675e-07
0.0646289 0 0.00152581 1.42428e-09
-0.0646289 0 0.00152581 2.24975e-07
-0.0646281 -2.03288e-20 0.00273494 1.54519e-06
0.0646282 -1.35525e-20 0.00273494 9.52286e-09
-0.0649009 0 9.60311e-09 1.91631e-06
0.0649009 -5.42101e-20 9.60308e-09 1.71814e-08
0.064875 1.35525e-20 0.00275765 1.2641e-08
-0.064875 0 0.00275765 1.98312e-06
-0.0649356 0 0.000580114 1.01954e-06
0.0649357 2.71051e-20 0.000580114 9.09544e-09
0.0649299 0 0.00188429 3.30277e-09
-0.0649299 0 0.00188429 5.35219e-07
0.0649159 0 0.00234646 7.19179e-09
-0.0649159 2.82344e-22 0.00234647 1.1301e-06
0.064955 0 0.00120177 1.57131e-09
-0.064955 2.71051e-20 0.00120177 2.19845e-07
-0.0652158 0 7.83123e-09 2.04598e-06
0.0652158 0 7.83116e-09 1.73866e-08
-0.0652252 0 4.89574e-05 2.03611e-06
0.0652252 4.23516e-21 4.89963e-05 1.72952e-08
-0.0652301 -1.69407e-21 7.82292e-09 2.05209e-06
0.0652302 -1.35525e-20 7.82284e-09 1.74282e-08
-0.065238 1.12938e-21 0.000289529 1.92986e-06
0.0652381 -2.25875e-21 0.000289519 1.65051e-08
-0.0652635 2.25875e-21 0.000898212 3.7534e-07
0.0652635 -1.35525e-20 0.000898216 3.09143e-09
0.0652136 0 0.00278879 1.07273e-08
-0.0652137 -2.03288e-20 0.00278879 1.68588e-06
-0.0652598 4.51751e-21 0.0015412 2.21525e-07
0.0652598 0 0.0015412 1.41318e-09
0.0652523 -1.35525e-20 0.00209337 3.45969e-09
-0.0652523 -4.51751e-21 0.00209337 5.50397e-07
-0.065247 1.69407e-21 0.00279186 1.68545e-06
0.065247 3.38813e-20 0.00279186 1.07261e-08
0.0652921 0 0.00257089 1.00511e-08
-0.0652921 -6.77626e-21 0.00257088 1.56686e-06
-0.0655524 5.42101e-20 5.83763e-09 2.18226e-06
0.0655525 -2.71051e-20 5.83746e-09 1.9129e-08
-0.0655704 -2.71051e-20 0.000580836 1.18418e-06
0.0655704 0 0.000580835 1.03116e-08
0.0655566 2.71051e-20 0.00189805 2.82868e-09
-0.0655566 0 0.00189804 4.65238e-07
0.0655812 -2.71051e-20 0.00120809 1.69411e-09
-0.0655812 2.71051e-20 0.00120809 2.4383e-07
0.0655609 2.71051e-20 0.00282073 1.25596e-08
-0.0655609 -2.71051e-20 0.00282072 1.8609e-06
0.065626 0 0.00230052 5.1536e-09
-0.065626 4.51751e-21 0.00230051 8.3399e-07
0.0657942 0 0.00153773 1.38698e-09
-0.0657942 -4.51751e-21 0.00153773 2.30241e-07
-0.0658501 -3.38813e-21 4.27431e-09 2.34498e-06
0.0658502 -1.35525e-20 4.27416e-09 2.02607e-08
0.0658196 -8.13152e-21 0.0020679 2.1552e-09
-0.0658196 -1.89735e-20 0.0020679 4.10074e-07
-0.0658851 -1.12938e-21 0.000294061 2.20299e-06
0.0658851 -3.38813e-21 0.00029407 1.91526e-08
-0.0659037 -6.77626e-21 3.74108e-09 2.36255e-06
0.0659037 2.03288e-20 3.741e-09 2.04553e-08
-0.0658977 4.51751e-21 0.000900808 4.54434e-07
0.0658977 -2.25875e-21 0.000900806 3.77555e-09
-0.0658696 -2.37169e-20 0.00284913 2.01977e-06
0.0658696 -2.5411e-20 0.00284914 1.21085e-08
0.0658846 -3.38813e-21 0.0028246 1.19691e-08
-0.0658846 3.38813e-21 0.00282453 2.00909e-06
0.0659008 0 0.00285201 1.21024e-08
-0.0659009 5.0822e-21 0.00285201 2.02587e-06
0.0659303 5.64689e-21 0.00259415 1.03305e-08
-0.0659304 7.90564e-21 0.00259415 1.72144e-06
-0.0662017 5.42101e-20 2.04737e-09 2.41544e-06
0.0662017 0 2.04729e-09 2.1539e-08
-0.0662096 -2.71051e-20 0.000583165 1.33994e-06
0.0662096 0 0.000583165 1.18683e-08
0.066226 2.25875e-21 0.00182287 1.29204e-09
-0.066226 0 0.00182287 2.70632e-07
-0.0662614 0 0.00125249 2.57726e-07
0.0662614 0 0.00125249 1.79131e-09
0.0662443 1.35525e-20 0.00230825 4.87964e-09
-0.0662443 4.51751e-21 0.00230824 8.75224e-07
0.0662396 -1.35525e-20 0.00288319 1.24538e-08
-0.0662396 0 0.00288318 2.03304e-06
-0.0664688 6.77626e-21 1.83905e-09 2.54681e-06
0.0664688 1.35525e-20 1.83897e-09 2.27182e-08
-0.0665215 4.51751e-21 0.000297039 2.37202e-06
0.0665216 0 0.000297033 2.1196e-08
-0.0665293 -4.51751e-21 0.000803441 6.7214e-07
0.0665293 9.03502e-21 0.000803445 5.87341e-09
-0.0664922 -1.35525e-20 0.00290641 2.65822e-06
0.0664922 6.77626e-21 0.00290641 1.57063e-08
-0.0665402 2.71051e-20 0.00152016 1.94805e-07
0.0665402 0 0.00152016 9.6543e-10
-0.0665636 2.03288e-20 1.7259e-09 2.57189e-06
0.0665637 1.35525e-20 1.72584e-09 2.29217e-08
-0.0665513 0 0.00210904 4.07108e-07
0.0665513 2.71051e-20 0.00210904 1.86072e-09
0.0665489 2.25875e-21 0.00261517 1.33195e-08
-0.0665489 -3.38813e-21 0.00261517 2.27111e-06
0.0665444 -6.77626e-21 0.00282557 1.59702e-08
-0.0665444 6.77626e-21 0.00282553 2.72679e-06
0.0665984 6.77626e-21 0.00291617 1.62218e-08
-0.0665984 0 0.00291617 2.74039e-06
-0.0668291 2.71051e-20 1.5155e-09 2.59081e-06
0.0668291 2.71051e-20 1.51544e-09 2.30971e-08
-0.0668395 2.71051e-20 0.000583569 1.44291e-06
0.0668395 2.71051e-20 0.00058357 1.27521e-08
-0.0668469 1.88079e-37 0.00119952 3.02519e-07
0.0668469 0 0.00119952 2.13858e-09
-0.0668544 -4.51751e-21 0.00182468 3.16297e-07
0.0668544 9.03502e-21 0.00182468 1.51665e-09
-0.0668557 0 0.00232115 1.06457e-06
0.0668557 4.51751e-21 0.00232116 5.98454e-09
0.0668437 -1.35525e-20 0.00293872 1.54787e-08
-0.0668437 0 0.00293872 2.52965e-06
-0.0670865 2.03288e-20 1.47833e-09 2.70792e-06
0.0670865 -6.77626e-21 1.4783e-09 2.39397e-08
-0.0670533 6.77626e-21 0.00295798 2.99639e-06
0.0670533 1.35525e-20 0.00295798 1.8007e-08
-0.0671423 6.77626e-21 0.000297525 2.52021e-06
0.0671423 -2.25875e-21 0.000297532 2.23024e-08
-0.0671508 -1.35525e-20 0.00080171 7.38181e-07
0.0671508 -4.51751e-21 0.000801707 6.3536e-09
-0.0671599 0 0.00152361 2.16216e-07
0.0671599 0 0.0015236 1.09756e-09
-0.0671866 0 1.45247e-09 2.73533e-06
0.0671867 2.03288e-20 1.45245e-09 2.41489e-08
-0.0671599 0 0.00212274 4.45994e-07
0.0671599 0 0.00212275 2.18933e-09
-0.0671485 0 0.00265064 2.68277e-06
0.0671485 -2.25875e-21 0.00265064 1.5942e-08
-0.0671466 -6.77626e-21 0.00281337 3.07916e-06
0.0671466 0 0.0028134 1.82976e-08
0.0672434 6.77626e-21 0.00297542 1.87409e-08
-0.0672434 1.35525e-20 0.00297542 3.09919e-06
-0.0674436 0 1.41552e-09 2.75998e-06
0.0674436 0 1.41554e-09 2.43839e-08
-0.0674568 0 0.000584109 1.54869e-06
0.0674569 -2.71051e-20 0.000584109 1.35204e-08
-0.0674669 -2.25875e-21 0.00120273 3.35202e-07
0.0674669 -2.25875e-21 0.00120273 2.31614e-09
0.067468 9.03502e-21 0.00183542 1.73915e-09
-0.067468 -2.25875e-21 0.00183543 3.48943e-07
0.0674616 0 0.00233498 6.58494e-09
-0.0674616 4.51751e-21 0.00233497 1.14861e-06
0.0674388 1.35525e-20 0.00299338 1.79352e-08
-0.0674388 2.71051e-20 0.00299338 2.89611e-06
-0.0676069 6.77626e-21 0.00300882 3.31913e-06
0.067607 0 0.00300882 2.00822e-08
-0.0677028 -1.35525e-20 1.38308e-09 2.88407e-06
0.0677028 0 1.38311e-09 2.52524e-08
-0.067757 -6.77626e-21 0.000297263 2.70047e-06
0.067757 -6.77626e-21 0.000297257 2.36438e-08
-0.0677742 0 0.00153093 2.46056e-07
0.0677742 0 0.00153093 1.21527e-09
-0.0677979 -2.71051e-20 1.35976e-09 2.91333e-06
0.0677979 2.71051e-20 1.35979e-09 2.54386e-08
0.0677676 2.71051e-20 0.00214267 2.50591e-09
-0.0677676 5.42101e-20 0.00214267 4.82329e-07
-0.0677493 -1.807e-21 0.00270581 3.21737e-06
0.0677493 -4.51751e-22 0.00270581 1.90568e-08
-0.0678144 4.51751e-21 0.000856819 6.76008e-07
0.0678145 2.25875e-21 0.000856823 5.56976e-09
0.0678888 0 0.00303468 2.11528e-08
-0.0678889 0 0.00303468 3.47087e-06
-0.0680566 0 1.32749e-09 2.95298e-06
0.0680567 0 1.32754e-09 2.54694e-08
-0.0680721 -2.71051e-20 0.000585619 1.66946e-06
0.0680721 0 0.000585619 1.41959e-08
0.0680839 -1.35525e-20 0.00131313 1.96505e-09
-0.0680839 4.51751e-21 0.00131313 3.29532e-07
0.0680357 -1.35525e-20 0.00304817 2.0445e-08
-0.0680357 -4.06576e-20 0.00304816 3.27408e-06
0.0680812 -6.77626e-21 0.00185058 1.93779e-09
-0.0680812 2.25875e-21 0.00185058 3.80902e-07
0.0680701 4.51751e-21 0.0023508 7.04045e-09
-0.0680701 9.03502e-21 0.0023508 1.20188e-06
-0.0681604 6.77626e-21 0.00305961 3.56266e-06
0.0681604 6.77626e-21 0.00305962 2.21146e-08
-0.0683162 -2.03288e-20 1.26055e-09 3.08959e-06
0.0683162 -2.71051e-20 1.26058e-09 2.62207e-08
-0.0683744 -2.25875e-21 0.000297284 2.90855e-06
0.0683744 -2.25875e-21 0.000297287 2.46292e-08
-0.0683872 4.51751e-21 0.000907119 6.59539e-07
0.0683872 -6.77626e-21 0.000907119 5.17578e-09
0.0683925 0 0.00154133 1.30814e-09
-0.0683925 -2.71051e-20 0.00154133 2.77231e-07
0.0683557 1.807e-21 0.00274299 2.18775e-08
-0.0683557 -1.35525e-21 0.00274298 3.56829e-06
-0.068418 0 1.20782e-09 3.12804e-06
0.068418 -2.71051e-20 1.20784e-09 2.63842e-08
0.0684733 1.0842e-20 0.00225349 5.24469e-09
-0.0684733 8.13152e-21 0.00225348 8.66959e-07
0.0685255 0 0.00309309 2.37993e-08
-0.0685255 -6.77626e-21 0.0030931 3.6621e-06
-0.0686762 -2.71051e-20 1.13946e-09 3.19372e-06
0.0686762 0 1.13947e-09 2.61791e-08
-0.0686216 3.38813e-20 0.00310191 3.51158e-06
0.0686216 6.77626e-21 0.00310191 2.34279e-08
-0.0686918 0 0.000587021 1.81618e-06
0.0686918 -2.71051e-20 0.000587021 1.4702e-08
0.0687027 0 0.00132333 2.06896e-09
-0.0687027 4.51751e-21 0.00132333 3.69753e-07
0.0687032 4.51751e-21 0.00186893 2.06228e-09
-0.0687032 2.25875e-21 0.00186894 4.05414e-07
0.0686865 0 0.00248811 1.0866e-08
-0.0686866 0 0.00248812 1.74455e-06
-0.0687017 6.77626e-21 0.00310928 3.61932e-06
0.0687017 0 0.00310928 2.46803e-08
-0.0689263 6.77626e-21 1.01571e-09 3.34684e-06
0.0689263 1.35525e-20 1.0157e-09 2.70173e-08
0.0689231 -8.13152e-21 0.00227183 5.2288e-09
-0.0689231 8.13152e-21 0.00227182 8.50957e-07
0.0689994 2.25875e-21 0.000297457 2.54083e-08
-0.0689994 0 0.000297458 3.14727e-06
0.0689618 -2.25875e-22 0.00278188 2.485e-08
-0.0689618 4.51751e-22 0.00278188 3.46631e-06
0.0690126 -4.51751e-21 0.000908099 5.58817e-09
-0.0690126 6.77626e-21 0.000908099 7.27421e-07
0.0690164 0 0.00154865 1.38883e-09
-0.0690164 0 0.00154865 3.20951e-07
0.0690595 -2.03288e-20 8.83068e-10 2.74405e-08
-0.0690595 0 8.83102e-10 3.40314e-06
0.0690357 -6.77626e-21 0.00313993 2.44212e-08
-0.0690357 0 0.00313993 3.31966e-06
-0.0690924 -6.77626e-21 0.00314514 3.18352e-06
0.0690924 -3.38813e-20 0.00314515 2.35015e-08
-0.0693056 0 7.53379e-10 3.45504e-06
0.0693056 0 7.53321e-10 2.78762e-08
-0.069319 -2.71051e-20 0.000586453 1.97637e-06
0.069319 2.71051e-20 0.000586452 1.58511e-08
0.0693341 -6.77626e-21 0.00187509 1.8205e-09
-0.0693341 2.25875e-21 0.00187509 4.31e-07
0.0693765 -4.51751e-21 0.00126522 2.68517e-09
-0.0693765 -2.25875e-21 0.00126522 4.45033e-07
-0.0693211 1.01644e-20 0.00316745 2.55212e-06
0.0693211 2.71051e-20 0.00316745 2.10247e-08
-0.0693497 1.35525e-20 0.00297788 2.52553e-06
0.0693497 1.35525e-20 0.00297788 2.0167e-08
0.0694191 2.25875e-21 0.00258723 9.94912e-09
-0.0694191 0 0.00258724 1.45429e-06
-0.0695352 1.35525e-20 6.33628e-10 3.58327e-06
0.0695352 0 6.33571e-10 2.93854e-08
-0.0696321 -4.51751e-21 0.000296641 3.33408e-06
0.0696321 6.77626e-21 0.00029664 2.76899e-08
0.0695674 0 0.00318911 1.65644e-08
-0.0695674 0 0.00318911 2.28107e-06
-0.0696425 0 0.000797123 1.05342e-06
0.0696425 0 0.000797124 8.92798e-09
-0.0695807 0 0.00319033 2.26808e-06
0.0695807 0 0.00319034 1.64528e-08
-0.069586 0 0.00317441 2.2624e-06
0.069586 0 0.00317436 1.63958e-08
0.0696473 0 0.00154038 1.49091e-09
-0.0696473 0 0.00154038 3.82901e-07
0.0696642 2.71051e-20 0.00219167 1.57056e-09
-0.0696642 0 0.00219168 4.94994e-07
0.0697196 0 4.40682e-10 3.06072e-08
-0.0697196 1.35525e-20 4.40731e-10 3.63958e-06
-0.0697545 2.5411e-21 0.00320646 2.36094e-06
0.0697673 0 0.00292576 1.40109e-08
-0.0697673 -2.25875e-21 0.00292575 1.9986e-06
0.069755 8.47033e-22 0.00320652 1.62533e-08
-0.0699415 0 3.15633e-10 3.62415e-06
0.0699415 0 3.15585e-10 3.48542e-08
-0.0699612 9.03502e-21 0.00120417 5.07611e-07
0.0699612 0 0.00120417 3.54976e-09
-0.069973 -4.51751e-21 0.00186132 5.03391e-07
0.069973 0 0.00186132 1.7426e-09
-0.0700188 0 0.000642771 1.59567e-06
0.0700188 0 0.000642772 1.5106e-08
-0.0699962 6.32451e-21 0.0025455 1.26973e-06
0.0699962 -1.807e-21 0.00254551 6.98124e-09
-0.0699992 0 0.00322937 2.46448e-06
0.0699992 0 0.00322937 1.5692e-08
-0.070005 1.69407e-21 0.00322125 2.47001e-06
0.0700051 1.69407e-21 0.00322126 1.57344e-08
-0.0700172 1.69407e-21 0.00320117 2.43473e-06
0.0700172 -1.69407e-21 0.00320122 1.54907e-08
-0.0700158 1.69407e-21 0.00323094 2.53277e-06
0.0700159 1.69407e-21 0.00323094 1.60824e-08
0.0700303 -1.69407e-21 0.00322213 1.59029e-08
-0.0700303 0 0.00322211 2.5032e-06
0.0700358 0 0.00323282 1.59313e-08
-0.0700358 -1.69407e-21 0.00323282 2.51201e-06