# omega  POINT_DATA 14073
# x  y  z  omega
-1.35525e-20 0.0101542 1.397e-07 1386.29
1.35525e-20 -0.0101542 1.397e-07 1386.34
-1.35525e-20 0.0101542 0.000269592 1573.56
2.71051e-20 -0.0101542 0.000269592 1573.6
2.71051e-20 0.0101542 0.000769234 1813.05
1.35525e-20 -0.0101542 0.000769234 1813.09
0 0.0101542 0.00104357 1851.18
0 -0.0101542 0.00104357 1851.23
1.35525e-20 0.0101542 0.00131779 1851.15
1.35525e-20 -0.0101542 0.00131779 1851.21
0 0.0102506 0.000298259 1551.48
-1.35525e-20 -0.0102506 0.00029826 1551.53
-1.35525e-20 0.0102543 0.000875898 1826.99
0 -0.0102543 0.000875897 1827.04
0 0.0101542 0.00181774 1550.25
1.35525e-20 -0.0101542 0.00181774 1550.32
-1.35525e-20 0.0103268 1.10555e-07 1249.96
-1.35525e-20 -0.0103268 1.10554e-07 1250.01
0 0.0102523 0.00124394 1859.84
0 -0.0102523 0.00124394 1859.89
2.71051e-20 0.0101542 0.002087 1261.01
-2.71051e-20 -0.0101542 0.002087 1261.09
-1.35525e-20 0.0103709 0.000111967 1264.75
0 -0.0103709 0.000111968 1264.8
0 -0.0103677 0.000675216 1818.08
-1.35525e-20 0.0103677 0.000675216 1818.04
-1.35525e-20 0.0102487 0.0018202 1514.31
0 -0.0102487 0.0018202 1514.39
4.06576e-20 -0.0103636 0.00148271 1889.56
0 0.0103636 0.00148271 1889.5
-1.35525e-20 0.0102712 0.00214806 1078.49
0 -0.0102712 0.00214806 1078.58
-1.35525e-20 0.0103514 0.00204723 1103.6
0 -0.0103515 0.00204723 1103.69
0 -0.0106317 0.000607139 1114.89
-7.52918e-21 0.0106317 0.00060714 1112.74
-6.77626e-21 -0.0106102 0.00112187 1070.81
5.64689e-21 0.0106102 0.00112187 1066.36
2.71051e-20 -0.0106774 0.000276333 1048.27
0 0.0106774 0.000276333 1048.21
9.03502e-21 -0.0106161 0.00164334 1044.87
4.51751e-21 0.0106161 0.00164334 1041.45
6.77626e-21 -0.0107648 4.28324e-08 1026.62
0 0.0107648 4.28305e-08 1026.52
0 -0.0105533 0.0022953 993.125
0 0.0105533 0.0022953 993.02
-2.71051e-20 -0.01063 0.00198748 847.857
-2.71051e-20 0.01063 0.00198748 847.76
0 -0.0108244 8.90628e-05 1025.89
0 0.0108244 8.90541e-05 1025.78
-1.35525e-20 -0.0106418 0.00222461 1006.79
0 0.0106418 0.00222461 1006.68
-1.35525e-20 -0.0108971 2.09162e-08 1015.62
0 0.0108971 2.09164e-08 1015.48
-1.35525e-20 -0.0106478 0.00234462 1083.76
0 0.0106478 0.00234461 1083.65
0 -0.0108702 0.00088437 310.083
0 0.0108702 0.000884371 302.861
2.71051e-20 -0.0108765 0.00145343 288.073
0 0.0108765 0.00145343 277.144
0 0.0107254 0.0023851 1156.28
-1.35525e-20 -0.0107254 0.0023851 1156.4
1.35525e-20 0.0110033 1.81925e-08 1008.93
0 -0.0110033 1.81919e-08 1009.09
1.35525e-20 0.0107624 0.00231965 1152.12
0 -0.0107624 0.00231965 1152.24
0 0.0110153 7.96742e-05 1009.38
0 -0.0110153 7.96834e-05 1009.53
-1.12938e-21 -0.0110632 0.000577057 630.497
-2.25875e-21 0.0110632 0.000577058 627.484
-1.12938e-21 -0.0111416 0.00118798 228.859
-1.12938e-21 0.0111416 0.00118798 221.519
1.35525e-21 -0.0110829 0.0018675 606.653
9.03502e-22 0.0110829 0.0018675 599.357
0 -0.0110229 0.00226207 1325.24
0 0.0110229 0.00226208 1325.11
2.71051e-20 0.0113157 0.000285027 984.8
-2.71051e-20 -0.0113157 0.000285023 985.006
0 -0.0110601 0.00255975 1575.17
-6.77626e-21 0.0110601 0.00255975 1574.98
6.77626e-21 -0.0110969 0.00251423 1582.71
6.77626e-21 0.0110969 0.00251423 1582.52
0 -0.011119 0.00259052 1657.3
0 0.011119 0.00259052 1657.08
2.71051e-20 -0.0114092 0.000887746 175.453
0 0.0114092 0.000887747 171.095
-6.77626e-21 0.0111709 0.00261751 1724.81
6.77626e-21 -0.0111709 0.00261751 1725.05
6.77626e-21 -0.0111905 0.00257812 1722.4
1.35525e-20 0.0111905 0.00257812 1722.16
0 -0.0114292 0.00153027 129.616
0 0.0114292 0.00153027 123.247
6.77626e-21 0.0115336 3.98168e-09 981.341
6.77626e-21 -0.0115337 3.98217e-09 981.586
0 -0.011316 0.00229781 1227.87
0 0.011316 0.00229782 1221.2
6.77626e-21 0.0115492 5.75064e-05 981.307
0 -0.0115493 5.75224e-05 981.552
0 0.0116095 2.02397e-09 981.095
6.77626e-21 -0.0116096 2.02388e-09 981.349
-2.71051e-20 -0.0114857 0.00207363 334.961
0 0.0114857 0.00207364 314.946
0 0.0116746 1.84338e-09 981.449
6.77626e-21 -0.0116747 1.84324e-09 981.713
0 0.011679 5.25147e-05 981.433
0 -0.0116791 5.25298e-05 981.697
0 0.0116878 0.000581186 572.576
1.12938e-21 -0.0116878 0.000581184 575.02
2.71051e-20 -0.0114474 0.00253473 1993.55
0 0.0114475 0.00253474 1993.24
1.12938e-21 -0.0117411 0.00120508 138.647
-1.69407e-21 0.0117411 0.00120508 132.958
0 -0.0115287 0.00280389 1582.36
6.77626e-21 0.0115287 0.00280391 1582.06
0 -0.01155 0.00277247 1578.3
0 0.01155 0.00277248 1578.01
-2.25875e-21 -0.0117713 0.00182833 188.262
-5.64689e-22 0.0117713 0.00182833 176.892
-6.77626e-21 -0.0115729 0.0028269 1492.07
0 0.0115729 0.00282691 1491.78
0 -0.0116142 0.00284883 1399.94
6.77626e-21 0.0116142 0.00284884 1399.65
-6.77626e-21 -0.0116388 0.00280394 1406.1
0 0.0116388 0.00280395 1405.82
5.64689e-22 -0.0117403 0.00237663 915.015
2.25875e-21 0.0117404 0.00237664 907.429
5.42101e-20 0.0119843 0.000286092 977.479
-2.71051e-20 -0.0119843 0.000286091 977.783
-2.71051e-20 -0.0120413 0.000886344 161.064
0 0.0120413 0.000886345 156.156
-5.42101e-20 -0.0120819 0.00151673 87.3138
0 0.0120819 0.00151673 80.189
-2.71051e-20 -0.0119435 0.00269977 987.923
0 0.0119435 0.00269979 987.643
-6.77626e-21 0.0122585 2.35686e-10 1020.49
0 -0.0122585 2.35721e-10 1020.8
0 0.0122629 3.33592e-05 1020.59
6.77626e-21 -0.012263 3.33761e-05 1020.91
2.71051e-20 -0.0120908 0.00215653 182.304
0 0.0120908 0.00215653 171.656
0 0.0122996 1.21642e-10 1026.8
0 -0.0122997 1.21624e-10 1027.12
-6.77626e-21 0.0123364 1.15215e-10 1033.85
0 -0.0123366 1.15195e-10 1034.17
-6.77626e-21 0.012338 2.92482e-05 1033.85
0 -0.0123381 2.92633e-05 1034.17
0 -0.0119749 0.00303994 1131.18
0 0.011975 0.00303995 1130.93
0 0.0123477 0.000568685 596.366
2.25875e-21 -0.0123477 0.000568684 599.208
0 -0.0120029 0.0029997 1133.6
6.77626e-21 0.012003 0.00299971 1133.35
0 -0.012014 0.00306072 1162.91
6.77626e-21 0.0120141 0.00306073 1162.66
6.77626e-21 -0.0120517 0.00308065 1190.3
-6.77626e-21 0.0120518 0.00308066 1190.07
6.77626e-21 -0.0120701 0.00304376 1189.27
0 0.0120702 0.00304377 1189.04
1.69407e-21 -0.0123957 0.00118429 124.032
0 0.0123957 0.00118429 116.614
0 -0.0124154 0.00184242 112.796
-1.12938e-21 0.0124154 0.00184242 101.831
-1.35525e-21 -0.0123818 0.00255904 618.488
0 0.0123818 0.00255905 606.86
0 0.012651 0.000272684 1076.52
0 -0.012651 0.00027269 1076.84
0 -0.0123509 0.00296128 1340.02
0 0.0123509 0.00296129 1339.79
2.71051e-20 0.0126986 0.000851202 166.529
-2.71051e-20 -0.0126986 0.000851197 172.393
5.42101e-20 -0.0127386 0.00148681 74.9623
-2.71051e-20 0.0127386 0.00148681 63.1589
0 -0.0124094 0.00326998 1564.75
0 0.0124094 0.00326999 1564.58
-6.77626e-21 -0.0124311 0.00323665 1568.02
0 0.0124312 0.00323666 1567.85
-6.77626e-21 -0.0124456 0.00328913 1611.93
6.77626e-21 0.0124456 0.00328914 1611.77
0 -0.0124806 0.00330747 1652.08
0 0.0124806 0.00330748 1651.93
0 -0.012495 0.00327721 1650.5
0 0.012495 0.00327723 1650.34
0 -0.0127373 0.00217209 103.543
-5.42101e-20 0.0127373 0.00217209 89.2364
-1.69407e-21 -0.0129741 5.65819e-12 1244.8
1.69407e-21 0.0129741 5.65714e-12 1244.45
0 -0.0129746 9.31075e-06 1244.8
1.69407e-21 0.0129746 9.29611e-06 1244.45
0 -0.0126307 0.00298498 1200.97
0 0.0126307 0.00298499 1189.91
-1.69407e-21 -0.0129857 3.6289e-12 1251.54
0 0.0129857 3.6307e-12 1251.17
1.69407e-21 0.0129965 7.57985e-06 1258.81
-1.69407e-21 -0.0129965 7.59166e-06 1259.19
-1.69407e-21 0.0129967 3.57671e-12 1258.28
-3.38813e-21 -0.0129967 3.57485e-12 1258.66
-8.47033e-22 0.0130091 0.000523313 729.055
2.82344e-22 -0.0130091 0.000523311 732.701
-1.05879e-22 0.0130269 0.00111835 126.714
-7.41154e-22 -0.0130272 0.00111832 138.522
0 -0.0127919 0.00274345 335.909
2.71051e-20 0.0127919 0.00274346 302.142
1.05879e-22 0.0130596 0.00107364 168.772
7.41154e-22 -0.0130596 0.001074 179.876
-2.11758e-22 0.0130622 0.00111376 127.284
0 -0.0130642 0.00111354 139.335
0 -0.0127558 0.00321819 1882.93
0 0.0127558 0.0032182 1882.85
-1.69407e-21 -0.0131793 2.72144e-12 1235.31
0 0.0131795 2.72155e-12 1234.89
-5.99982e-22 0.0130717 0.00181695 72.5726
0 -0.0130717 0.00181692 89.0713
6.77626e-21 -0.012831 0.00349155 1476.97
6.77626e-21 0.0128311 0.00349157 1476.67
0 -0.0128493 0.00346319 1473.49
6.77626e-21 0.0128494 0.00346321 1473.19
5.42101e-20 0.0133093 0.000237076 1429.43
0 -0.0133094 0.00023707 1429.86
-7.05861e-22 -0.0130828 0.00247294 178.075
-4.23516e-22 0.0130828 0.00247294 156.075
-6.77626e-21 -0.0128661 0.00350997 1401.96
0 0.0128662 0.00350999 1401.63
0 -0.0129007 0.00352804 1322.85
-6.77626e-21 0.0129008 0.00352806 1322.49
-2.71051e-20 0.0133556 0.00075963 218.681
0 -0.0133557 0.000759628 226.602
0 -0.0129237 0.00348634 1329.45
6.77626e-21 0.0129237 0.00348637 1329.09
0 -0.0130384 0.00304619 871.079
1.69407e-21 0.0130384 0.0030462 857.874
-2.71051e-20 0.013427 0.001376 59.9298
0 -0.013427 0.00137599 82.3723
2.71051e-20 -0.0134136 0.00210978 72.8554
2.71051e-20 0.0134136 0.00210979 55.2939
2.71051e-20 -0.0132269 0.00336666 932.486
0 0.0132269 0.00336668 931.947
0 0.013648 0.000454486 798.86
0 -0.013648 0.000454497 811.941
-2.71051e-20 -0.0133902 0.00280379 177.9
0 0.0133902 0.0028038 156.979
3.38813e-21 0.0137151 2.8075e-13 1202.69
3.38813e-21 -0.0137152 2.80907e-13 1203.25
0 0.0137159 2.06276e-05 1202.14
0 -0.013716 2.06975e-05 1202.7
0 0.0137165 0.000169655 1061.43
6.77626e-21 -0.0137166 0.000170015 1066.51
-3.38813e-21 0.0137459 2.40788e-14 1197.15
-3.38813e-21 -0.0137461 2.3368e-14 1197.69
0 -0.013245 0.00370834 1085.18
0 0.0132451 0.00370836 1084.69
0 0.0137656 1.52129e-05 1220.81
3.38813e-21 -0.0137659 1.52648e-05 1221.43
0 0.0137671 1.75123e-14 1222.25
0 -0.0137675 1.67966e-14 1222.87
6.77626e-21 -0.0132718 0.0036714 1088
0 0.0132719 0.00367142 1087.51
0 -0.0132782 0.00372571 1113.46
0 0.0132783 0.00372573 1112.96
-1.12938e-21 0.0137896 0.000885059 267.106
0 -0.0137896 0.000885057 290.471
-6.77626e-21 0.0138204 1.18218e-14 1209.69
0 -0.0138208 1.11447e-14 1210.32
0 -0.0133096 0.00374322 1139.1
6.77626e-21 0.0133097 0.00374323 1138.59
6.77626e-21 -0.0133282 0.00371043 1138.12
-6.77626e-21 0.0133283 0.00371044 1137.62
-2.82344e-22 0.0137515 0.00171046 55.9871
8.47033e-22 -0.0137515 0.00171046 77.6241
0 0.0136783 0.0024632 88.5809
0 -0.0136788 0.00246319 110.746
-3.59989e-21 0.013721 0.00246185 83.7954
-9.74088e-21 -0.013721 0.00246186 106.031
8.47033e-22 -0.0137186 0.00248611 121.554
1.05879e-22 0.0137186 0.00248639 99.5806
-2.25875e-22 -0.0136619 0.00322322 604.431
-4.51751e-22 0.0136619 0.00322323 584.75
0 -0.013613 0.00362484 1301.72
2.71051e-20 0.013613 0.00362486 1301.25
-8.47033e-22 0.0141333 0.000318961 822.064
2.82344e-22 -0.0141334 0.000318978 824.802
2.71051e-20 0.014088 0.00127938 69.5511
-2.71051e-20 -0.014088 0.00127938 93.3096
0 0.014059 0.00206597 40.7467
0 -0.014059 0.00206597 63.4365
0 -0.0136636 0.00393548 1515.8
-3.38813e-21 0.0136637 0.00393551 1515.33
3.38813e-21 -0.0136786 0.00391516 1517.95
-3.38813e-21 0.0136787 0.00391521 1517.48
3.38813e-20 0.0142351 2.9685e-15 949.385
0 -0.0142352 2.82035e-15 950.369
-3.38813e-21 -0.0136842 0.00394696 1538.91
0 0.0136843 0.00394697 1538.42
3.38813e-21 -0.0137015 0.00395978 1555.72
0 0.0137016 0.00395978 1555.21
3.38813e-21 -0.0137143 0.00394396 1555.4
0 0.0137143 0.00394398 1554.89
2.71051e-20 -0.0140215 0.00281646 106.795
-2.71051e-20 0.0140215 0.00281646 79.1014
-1.50584e-21 -0.013895 0.00367137 1154.2
-7.52918e-22 0.013895 0.00367138 1136.72
4.8626e-22 -0.0144216 0.000792956 366.093
-1.56858e-22 0.0144216 0.000792939 330.168
0 -0.014453 3.04526e-16 974.346
2.71051e-20 0.0144531 3.07448e-16 972.978
0 0.0143962 0.00165212 55.3354
-2.82344e-22 -0.0143962 0.00165211 82.5205
-2.71051e-20 -0.0140801 0.00343826 339.339
2.71051e-20 0.0140801 0.00343826 286.613
-2.71051e-20 -0.0140066 0.00392192 1797.41
2.71051e-20 0.0140066 0.00392193 1796.88
2.03288e-20 0.0143632 0.00242485 49.4787
2.58345e-20 -0.0143665 0.00242469 75.7139
-2.11758e-22 -0.0143623 0.00267349 110.689
-2.11758e-22 0.0143623 0.00267458 80.6043
0 -0.0140362 0.00420868 1876.33
0 0.0140362 0.00420869 1875.93
0 -0.014043 0.00420183 1877
-1.69407e-21 0.014043 0.00420185 1876.61
-1.69407e-21 -0.0140443 0.00421476 1882.56
1.69407e-21 0.0140444 0.00421477 1882.16
0 0.0140522 0.00422058 1884.59
0 -0.0140522 0.00422057 1884.97
-1.69407e-21 0.0140564 0.00421301 1884.77
0 -0.0140564 0.004213 1885.15
-2.71051e-20 -0.0146839 -1.74587e-17 743.845
-2.71051e-20 0.014684 -1.48501e-17 741.834
0 -0.0143543 0.0031309 175.251
-4.23516e-22 0.0143543 0.00313091 137.692
0 -0.0143605 0.00313713 175.96
0 0.0143548 0.00313704 138.314
0 -0.0147037 0.000271518 716.272
0 0.0147037 0.000271561 714.16
0 0.014356 0.00330018 344.269
-4.23516e-22 -0.014356 0.00330043 378.155
0 0.0147328 0.00124141 77.464
0 -0.0147328 0.00124141 115.605
-6.35275e-22 -0.0146156 0.00238839 72.8463
0 0.0146171 0.00238816 45.4347
0 0.0146909 0.00203584 34.4173
0 -0.0146909 0.00203584 59.1109
2.42009e-22 0.0143356 0.00382207 1037.6
4.43684e-22 -0.0143356 0.00382206 1057.07
0 -0.0143244 0.00417019 1980.51
0 0.0143244 0.0041702 1980.25
8.47033e-22 -0.014279 0.00438886 2088.48
-8.47033e-22 0.014279 0.00438882 2088.14
-2.71051e-20 0.0146905 0.00275577 44.7582
0 -0.0146905 0.00275577 74.5677
2.82344e-22 0.0149562 0.00165197 52.5523
1.41172e-22 -0.0149585 0.00165056 85.1457
2.71051e-20 -0.0146586 0.00346816 162.886
0 0.0146586 0.00346816 124.462
8.47033e-22 -0.0144053 0.00448257 2195.91
0 0.0144084 0.00447896 2195.67
-6.77626e-21 -0.0151189 -5.5903e-17 571.504
-3.38813e-21 0.0151192 -5.49994e-17 568.986
0 -0.0144514 0.00451673 2123.42
-4.23516e-21 0.0144515 0.00451673 2123.12
0 -0.0151608 3.48457e-05 555.75
0 0.0151609 3.46302e-05 553.244
3.38813e-21 -0.0151663 -1.81511e-17 557.175
-3.38813e-21 0.0151663 -1.7962e-17 554.663
-3.38813e-21 -0.0145673 0.00422607 1622.8
2.63521e-21 0.0145673 0.00422607 1616.83
0 0.0151841 -1.09408e-17 558.266
-3.38813e-21 -0.0151841 -1.0993e-17 560.808
0 -0.0151655 0.000867912 343.99
0 0.0151655 0.000867909 313.985
3.38813e-21 0.0152147 -1.10521e-17 555.056
0 0.0152148 2.27204e-05 554.995
3.38813e-21 -0.015215 -1.11033e-17 557.626
0 -0.015215 2.28647e-05 557.565
2.71051e-20 -0.0147125 0.00402551 423.086
2.71051e-20 0.0147125 0.00402552 405.985
-4.23516e-22 -0.0150841 0.00231349 67.3956
0 0.0150841 0.0023135 37.8819
0 -0.0150901 0.00232073 67.4894
0 0.015084 0.00232059 37.9191
-1.41172e-22 -0.0149792 0.0031214 100.945
-1.41172e-22 0.0149792 0.0031214 66.1134
2.71051e-20 -0.0146794 0.00445852 2437.58
5.42101e-20 0.0146795 0.00445852 2437.32
0 0.0149711 0.00367516 181.029
2.11758e-22 -0.0149711 0.00367537 218.699
0 0.0149706 0.00377567 202.265
0 -0.0149706 0.00377568 240.335
6.77626e-21 -0.0147268 0.00472094 1777.99
0 0.0147268 0.00472094 1777.39
0 -0.0147397 0.0047038 1774.14
6.77626e-21 0.0147397 0.0047038 1773.54
6.77626e-21 -0.0147494 0.00473773 1717.93
6.77626e-21 0.0147494 0.00473773 1717.28
8.47033e-22 -0.0150248 0.0037779 230.765
-8.47033e-22 0.0150249 0.0037779 191.902
-6.77626e-21 -0.0147753 0.00475693 1577.85
-6.77626e-21 0.0147753 0.00475692 1577.13
0 0.0147957 0.00471952 1601.04
6.77626e-21 -0.0147957 0.00471952 1601.74
1.69407e-21 0.0149238 0.00432823 1091.77
0 -0.0149238 0.00432823 1109.41
2.11758e-22 0.0149301 0.00431631 1071.99
-1.37643e-20 -0.0149308 0.00431431 1090.12
2.71051e-20 0.0153071 0.00276682 33.3893
0 -0.0153071 0.00276682 63.0707
2.75286e-21 -0.0149537 0.00432327 1069.49
-6.35275e-22 0.0149537 0.00432327 1050.57
2.71051e-20 -0.0152762 0.00345526 103.506
-2.71051e-20 0.0152762 0.00345526 62.2626
0 0.015665 0.00170495 41.5668
0 -0.015665 0.00170495 79.3798
-2.71051e-20 0.0150898 0.00463314 992.163
-5.42101e-20 -0.0150898 0.00463315 993.193
0 -0.0152566 0.00410558 237.808
2.71051e-20 0.0152566 0.00410558 183.769
-2.11758e-22 0.0156482 0.00239974 32.4107
7.05861e-23 -0.0156482 0.00239974 66.1329
-6.77626e-21 0.0150378 0.00495165 1036.75
6.77626e-21 -0.0150378 0.00495167 1037.8
0 0.0158311 0.00050574 312.796
1.0842e-19 -0.0158311 0.000505741 316.763
-1.35525e-20 0.0150929 0.00489487 1045.75
1.35525e-20 -0.0150929 0.0048949 1046.79
0 0.0150892 0.00498978 1112
0 -0.0150892 0.0049898 1113.01
8.47033e-22 -0.015606 0.0031034 74.6433
-2.82344e-22 0.015606 0.0031034 39.5805
-6.77626e-21 0.0151439 0.00503033 1097.83
6.77626e-21 -0.0151439 0.00503034 1098.88
-1.35525e-20 -0.0151784 0.00496291 1098.83
-1.35525e-20 0.0151784 0.0049629 1097.79
2.25875e-22 0.0155884 0.00378776 88.3718
7.90564e-22 -0.0155884 0.00378777 133.968
-2.03288e-21 0.0155033 0.00450865 571.29
-6.77626e-22 -0.0155033 0.00450866 606.322
2.71051e-20 0.0154178 0.0049056 1170.94
-2.71051e-20 -0.0154178 0.0049056 1171.99
5.42101e-20 -0.0159469 0.00273841 61.2131
0 0.0159469 0.00273841 26.2745
6.77626e-21 0.0153971 0.00521817 1253.94
6.77626e-21 -0.0153971 0.00521817 1255.03
0 -0.015903 0.0034351 71.7421
-2.71051e-20 0.015903 0.0034351 36.9555
0 0.0154387 0.00517349 1262.24
-6.77626e-21 -0.0154387 0.00517349 1263.32
0 -0.0154377 0.00524826 1333.36
-6.77626e-21 0.0154377 0.00524826 1332.27
1.27055e-21 0.0163339 -1.19726e-18 306.525
4.23516e-22 -0.0163364 -1.1809e-18 311.367
-6.77626e-21 0.0154764 0.00527696 1315.69
0 -0.0154764 0.00527696 1316.82
0 0.0155053 0.00524155 1315.19
0 -0.0155053 0.00524155 1316.32
5.29396e-21 0.0163537 0.00112142 164.156
-2.11758e-22 -0.0163543 0.00112154 186.672
0 0.0158756 0.0041209 76.934
-2.71051e-20 -0.0158756 0.00412091 129.757
3.74812e-20 0.0163741 0.00112742 161.122
-3.02814e-20 -0.0163767 0.0011276 183.554
0 -0.0156933 0.00495313 995.847
0 0.0156933 0.00495313 971.267
0 0.0164702 3.16747e-06 276.363
-4.23516e-22 -0.0164638 2.59234e-06 282.085
-2.25875e-21 0.0163214 0.00227442 30.7909
1.12938e-21 -0.0163214 0.00227441 66.7695
2.25875e-22 -0.0162376 0.00307739 63.2648
3.38813e-22 0.0162376 0.0030774 29.0798
0 0.0159046 0.00473208 259.618
-2.71051e-20 -0.0159046 0.00473208 335.045
2.71051e-20 0.0157801 0.0052058 1431.83
-2.71051e-20 -0.0157801 0.00520581 1433
5.64689e-22 0.0162469 0.00372972 45.9143
2.82344e-21 -0.0162469 0.00372972 86.248
0 -0.0157746 0.00549809 1509.27
0 0.0157746 0.00549809 1508.2
0 -0.0158015 0.00547415 1511.84
6.77626e-21 0.0158015 0.00547415 1510.77
0 0.015805 0.00552064 1522.03
0 -0.015805 0.00552065 1523.08
6.77626e-21 0.0158347 0.00554269 1536.31
6.77626e-21 -0.0158347 0.00554271 1537.36
0 0.015853 0.00551418 1536.47
6.77626e-21 -0.015853 0.00551419 1537.52
1.12938e-22 -0.0161981 0.00441892 177.286
-1.24231e-21 0.0161981 0.00441892 120.376
0 0.0166697 0.00284041 21.5193
0 -0.0166697 0.00284041 53.0757
2.25875e-22 -0.0161695 0.00510699 844.372
0 0.0161695 0.00510699 794.731
5.42101e-20 0.0166597 0.00328606 23.1797
-2.71051e-20 -0.0166597 0.00328606 55.9621
0 0.0165248 0.00409519 43.7501
-5.42101e-20 -0.0165248 0.00409519 84.101
0 0.0161207 0.00547662 1625.6
0 -0.0161207 0.00547663 1626.53
5.42101e-20 -0.0170334 0.00057692 247.829
0 0.0170334 0.000576921 240.378
-2.11758e-22 -0.0168873 0.00239015 62.3402
0 0.0168875 0.00239019 27.2006
0 0.0169716 0.00176735 39.4625
0 -0.0169716 0.00176735 81.302
0 -0.0169175 0.00239894 62.0997
-2.11758e-22 0.0169179 0.00239497 27.0066
0 0.0169439 0.00239537 27.0599
-2.11758e-22 -0.016944 0.00239536 62.2459
0 0.0168719 0.00305894 21.3623
0 -0.0168719 0.00305894 53.8691
0 -0.0161674 0.00578952 1815.99
0 0.0161674 0.00578953 1815.01
2.71051e-20 0.0165034 0.00475626 107.321
2.71051e-20 -0.0165034 0.00475626 167.993
0 -0.0161836 0.0057701 1818.24
0 0.0161836 0.00577012 1817.26
6.77626e-21 -0.0161897 0.00580604 1839.12
0 0.0161897 0.00580604 1838.12
0 0.0162121 0.00582274 1864.31
0 -0.0162122 0.00582275 1865.33
0 0.0162243 0.00580495 1863.5
-6.77626e-21 -0.0162243 0.00580495 1864.52
-1.12938e-22 -0.0168523 0.00374134 65.9036
0 0.0168523 0.00374134 30.6282
-4.23516e-22 0.0163973 0.00553969 1332.93
0 -0.0163973 0.00553969 1373.83
0 -0.0170978 0.00283719 52.7574
2.71051e-20 0.0170978 0.00283718 20.2127
2.71051e-20 -0.0170665 0.00327483 53.5738
2.71051e-20 0.0170665 0.00327483 20.1838
2.71051e-20 0.0165625 0.00532761 340.547
0 -0.0165626 0.0053276 460.995
-2.82344e-22 0.0168336 0.0044175 58.23
2.82344e-22 -0.0168336 0.00441751 104.958
0 0.0164976 0.00578806 2066.93
0 -0.0164976 0.00578806 2067.97
-3.38813e-22 0.0168265 0.00507001 193.831
-2.25875e-22 -0.0168265 0.00507001 270.684
0 0.0176289 1.51894e-05 237.909
-3.38813e-21 -0.0176289 1.51557e-05 247.075
0 0.0176298 -6.86503e-23 237.909
0 -0.0176298 -6.83393e-23 247.075
8.47033e-22 -0.0176062 0.00116021 166.12
-2.82344e-22 0.0176062 0.00116021 139.939
0 -0.0176451 -1.78387e-23 247.104
0 0.0176451 -1.76965e-23 237.89
0 0.0171749 0.00405965 27.2585
2.71051e-20 -0.0171749 0.00405966 60.019
0 -0.0176602 1.5443e-05 247.059
3.38813e-21 0.0176603 1.54771e-05 237.799
0 -0.0176607 -2.00316e-23 247.059
0 0.0176607 -1.99007e-23 237.799
6.77626e-21 0.0165809 0.00609703 1749.74
0 -0.0165809 0.00609703 1750.96
0 0.0165981 0.00608064 1747.63
6.77626e-21 -0.0165981 0.00608064 1748.84
0 -0.016605 0.00611494 1730.53
0 0.016605 0.00611495 1729.31
0 -0.0166198 0.0061272 1762.7
0 0.0166198 0.00612721 1761.5
0 -0.0166291 0.00611137 1760.87
0 0.0166291 0.00611138 1759.67
0 0.0175901 0.00236116 28.3966
0 -0.0175901 0.00236116 65.953
0 -0.0166534 0.00615457 1763.79
0 0.0166534 0.00615459 1762.59
-7.52918e-22 -0.0168284 0.00572854 1102.9
-7.52918e-22 0.0168284 0.00572853 1066.33
7.05861e-23 0.0175166 0.00305113 19.3741
3.5293e-22 -0.0175166 0.00305113 52.0118
0 0.0171428 0.00473441 54.5212
-2.71051e-20 -0.0171428 0.00473441 107.368
-1.12938e-21 0.017534 0.00360681 21.685
-2.25875e-21 -0.017534 0.00360681 53.6811
2.71051e-20 0.0171172 0.00539736 152.381
-2.71051e-20 -0.0171172 0.00539736 224.676
-2.25875e-22 -0.01747 0.00438795 71.838
2.25875e-22 0.01747 0.00438795 33.3151
6.77626e-21 -0.0168947 0.00636213 1538.82
1.35525e-20 0.0168947 0.00636213 1537.63
0 -0.0170243 0.00618637 1442.01
0 0.017024 0.00618835 1440.23
8.47033e-22 0.0174372 0.00507024 76.7466
2.82344e-22 -0.0174372 0.00507024 134.538
1.0842e-19 -0.0182236 0.000583086 246.32
0 0.0182236 0.000583086 235.323
0 0.0177925 0.00405319 20.574
-2.71051e-20 -0.0177925 0.00405319 50.6863
-5.42101e-20 -0.018201 0.00177192 84.6238
0 0.018201 0.00177192 39.2783
-1.12938e-21 -0.0173656 0.00581376 553.882
1.58113e-21 0.0173656 0.00581376 509.191
0 0.0171242 0.00658581 1697.05
0 -0.0171242 0.00658582 1698.35
2.71051e-20 0.0177701 0.0047233 32.3524
-5.42101e-20 -0.0177701 0.0047233 71.6223
6.77626e-21 0.0171594 0.0066222 1720.06
-6.77626e-21 -0.0171594 0.0066222 1721.37
0 0.0171745 0.00660974 1714.32
0 -0.0171745 0.00660974 1715.64
-6.77626e-21 0.0171745 0.00663768 1663.8
0 -0.0171745 0.00663768 1665.14
-5.42101e-20 0.0181606 0.00305643 16.7314
-5.42101e-20 -0.0181606 0.00305643 48.5996
0 -0.01719 0.00665349 1719.01
0 0.01719 0.00665349 1717.71
6.77626e-21 -0.0172014 0.00663722 1713.1
0 0.0172014 0.00663722 1711.8
-3.38813e-21 -0.017284 0.00651867 1451.72
-3.38813e-21 0.017284 0.00651867 1442.23
6.77626e-21 -0.0172277 0.00669185 1714.82
0 0.0172277 0.00669185 1713.53
1.41172e-22 -0.0181264 0.00381062 49.4566
1.41172e-22 0.0181264 0.00381066 18.4918
0 -0.0177303 0.00540333 133.253
0 0.0177303 0.00540333 67.2135
-3.01167e-21 -0.0174485 0.00633775 1123.19
0 0.0174485 0.00633776 1100.95
-2.82344e-22 0.0181015 0.00437909 22.8352
0 -0.0181015 0.00437909 55.9535
2.71051e-20 0.0177286 0.00604036 191.336
-2.71051e-20 -0.0177286 0.00604036 268.237
-5.64689e-22 0.018075 0.00504761 38.7625
5.64689e-22 -0.018075 0.00504762 84.0417
-6.77626e-21 -0.0174666 0.00693495 1637.49
-6.77626e-21 0.0174666 0.00693496 1636.34
0 0.0188065 1.6283e-05 234.949
0 -0.0188065 1.62599e-05 247.816
0 0.0188069 2.06869e-24 234.949
0 -0.0188069 2.05913e-24 247.816
0 -0.0188233 -2.46345e-25 247.873
3.38813e-21 0.0188233 -2.46725e-25 234.952
0 -0.0188396 1.62155e-05 247.918
0 0.0188396 1.62383e-05 234.944
0 -0.0188397 -2.41124e-25 247.918
0 0.0188397 -2.41491e-25 234.944
0 -0.0188091 0.00116454 167.61
5.64689e-22 0.0188091 0.00116454 138.132
0 0.0184387 0.00403102 16.4904
2.71051e-20 -0.0184387 0.00403102 47.189
1.41172e-22 -0.0176208 0.00677688 1524.99
7.05861e-23 0.0176205 0.00677795 1523.44
0 -0.0180488 0.00571123 158.248
-1.69407e-21 0.0180488 0.00571123 91.707
5.64689e-22 0.018794 0.00239227 28.0402
0 -0.018794 0.00239227 67.0581
5.42101e-20 0.0184023 0.0046998 22.1173
0 -0.0184023 0.0046998 54.7002
-3.38813e-21 -0.0179596 0.00643086 627.853
-1.50584e-21 0.0179596 0.00643086 578.951
0 0.0177052 0.00717767 1688
0 -0.0177052 0.00717767 1689.38
0 -0.0177437 0.00721689 1687.45
-6.77626e-21 0.0177437 0.0072169 1686.03
0 0.0184015 0.00534889 34.6518
2.71051e-20 -0.0184015 0.00534889 78.753
0 -0.0177602 0.00720499 1681.41
0 0.0177602 0.00720499 1679.99
0 -0.0177596 0.00723308 1630.3
0 0.0177596 0.00723309 1628.86
0 -0.0177751 0.00724885 1680.06
0 0.0177751 0.00724886 1678.65
7.05861e-23 -0.0188307 0.00372998 46.6295
7.05861e-23 0.0188307 0.00373003 16.2441
-6.77626e-21 -0.017788 0.00723288 1674.73
-6.77626e-21 0.017788 0.00723289 1673.32
0 -0.018738 0.00435322 48.7494
-4.23516e-22 0.018738 0.00435322 18.0793
4.23516e-22 -0.0187376 0.00436113 48.7733
2.6258e-20 0.0187376 0.00436113 18.1086
6.77626e-21 -0.0178113 0.00728564 1660.87
6.77626e-21 0.0178113 0.00728566 1659.46
-6.77626e-21 -0.0178794 0.00711713 1419.03
3.38813e-21 0.0178794 0.00711713 1408.34
-2.71051e-20 -0.0183488 0.00603424 150.647
-2.71051e-20 0.0183488 0.00603424 73.1085
-3.01167e-21 -0.0180548 0.00694831 1103.01
0 0.0180548 0.00694832 1078.39
0 -0.0194128 0.000584032 249.428
0 0.0194128 0.000584032 234.572
0 0.018803 0.00493677 24.414
0 -0.018803 0.00493677 59.5532
-5.42101e-20 0.0194073 0.00177875 39.1793
0 -0.0194073 0.00177875 86.6246
0 -0.0183455 0.00666212 273.822
-2.71051e-20 0.0183455 0.00666212 190.875
1.12938e-21 -0.0186965 0.00568331 92.3979
0 0.0186965 0.00568331 41.7104
2.71051e-20 -0.0180387 0.00751698 1497.74
-6.77626e-21 0.0180387 0.00751699 1496.37
0 -0.0194176 0.0030161 47.3305
-5.42101e-20 0.0194176 0.0030161 16.3289
-5.64689e-22 -0.0182201 0.0073749 1417.81
-1.8823e-22 0.0182201 0.0073749 1415.45
-1.12938e-21 -0.0186655 0.00633955 165.953
5.64689e-22 0.0186655 0.00633956 93.4034
-2.71051e-20 -0.0190338 0.00534623 57.1969
0 0.0190338 0.00534623 23.2085
-6.77626e-22 -0.0185755 0.00702539 564.865
-3.83988e-21 0.0185755 0.00702539 511.436
5.42101e-20 0.0193824 0.00433462 14.4793
0 -0.0193824 0.00433462 42.0608
3.38813e-21 0.0182812 0.00776357 1879.45
3.38813e-21 -0.0182812 0.00776356 1880.64
-3.38813e-21 -0.0182994 0.00778211 1888.65
0 0.0182994 0.00778212 1887.47
0 -0.0183082 0.00777648 1888.02
-3.38813e-21 0.0183082 0.00777649 1886.83
0 -0.018307 0.00778982 1876.35
3.38813e-21 0.018307 0.00778983 1875.15
-3.38813e-21 -0.0183179 0.00780093 1892.16
0 0.0183179 0.00780095 1891
-3.38813e-21 -0.0183258 0.0077918 1891.04
0 0.0183258 0.00779181 1889.87
-2.71051e-20 -0.0190082 0.00599365 85.6149
0 0.0190082 0.00599365 37.3119
-3.38813e-21 -0.0184198 0.00771698 1674.13
1.69407e-21 0.0184198 0.00771698 1660.96
3.38813e-21 0.019989 1.55635e-05 235.638
0 -0.019989 1.55498e-05 252.027
0 0.019989 -4.66467e-27 235.638
0 -0.0199891 -4.6553e-27 252.027
6.58803e-22 0.0193663 0.00500042 18.7648
1.8823e-22 -0.0193663 0.00500042 49.7075
3.38813e-21 -0.0200048 3.45034e-28 252.101
-3.38813e-21 0.0200048 3.45402e-28 235.669
0 -0.0200207 3.36263e-28 252.171
0 0.0200207 3.36626e-28 235.696
0 -0.0200208 1.5476e-05 252.171
3.38813e-21 0.0200208 1.54891e-05 235.696
1.41172e-21 0.0200101 0.0011652 138.783
5.64689e-22 -0.0200101 0.0011652 170.904
2.71051e-20 -0.0189752 0.00665313 152.411
5.42101e-20 0.0189752 0.00665313 72.3372
-1.69407e-21 -0.0184855 0.00797139 2114.53
1.69407e-21 0.0184856 0.00797146 2113.51
-5.64689e-22 -0.0193439 0.00565423 62.5369
0 0.0193439 0.00565423 25.3445
6.77626e-22 -0.0186909 0.00754643 1141.89
-3.38813e-21 0.0186909 0.00754644 1101.27
-2.82344e-22 0.020018 0.00238483 28.2309
5.64689e-22 -0.020018 0.00238483 67.6916
0 -0.0186426 0.00786969 2446.43
-2.71051e-20 0.0186426 0.00786969 2445.66
-1.69407e-21 -0.0193211 0.006303 96.1003
1.12938e-21 0.0193211 0.006303 42.1328
-5.42101e-20 -0.0189891 0.00726762 265.131
-2.71051e-20 0.0189891 0.00726763 173.943
-9.74088e-21 0.020019 0.0036605 15.0015
-4.65868e-20 -0.020019 0.0036605 42.8968
4.23516e-22 0.0200253 0.0036605 14.9936
-7.19978e-21 -0.0200254 0.00366706 42.8702
-3.38813e-21 -0.0186571 0.00814594 2379.46
0 0.0186572 0.00814595 2378.45
0 -0.0186657 0.00813525 2382.48
-3.38813e-21 0.0186658 0.00813526 2381.47
0 -0.0186691 0.00815819 2354.7
0 0.0186692 0.00815819 2353.68
-2.71051e-20 -0.0196809 0.00530872 47.1361
-2.71051e-20 0.0196809 0.00530872 17.0958
0 -0.0186807 0.00816999 2377.62
-3.38813e-21 0.0186808 0.00816998 2376.59
0 -0.0186937 0.00816275 2380.56
0 0.0186938 0.00816275 2379.53
-3.01167e-21 -0.0188968 0.00796768 1768.07
2.25875e-21 0.0188968 0.00796768 1735.33
-5.64689e-22 -0.0193082 0.00694388 164.402
2.82344e-21 0.0193082 0.00694389 88.1257
0 -0.0196501 0.00596319 60.7949
-2.71051e-20 0.0196501 0.00596319 24.0619
2.11758e-22 -0.0200665 0.00447881 42.2769
2.11758e-22 0.0200665 0.00447894 15.0596
0 -0.0190752 0.00780495 521.793
-2.71051e-20 0.0190752 0.00780496 427.613
5.42101e-20 0.0206063 0.000581334 236.765
-5.42101e-20 -0.0206063 0.000581333 254.782
-2.11758e-22 -0.0200903 0.00488562 41.9786
0 0.0200903 0.00488562 15.0921
2.71051e-20 -0.0189864 0.00821425 2366.99
2.71051e-20 0.0189864 0.00821425 2365.75
-5.42101e-20 0.0206227 0.00176982 40.5262
0 -0.0206227 0.00176982 89.3561
2.71051e-20 -0.0196565 0.00659442 88.1412
5.42101e-20 0.0196565 0.00659442 36.2282
-8.27181e-22 0.0193221 0.00755384 217.707
-8.74164e-21 -0.0193221 0.00755321 309.591
4.70574e-22 0.0199866 0.00562695 19.1981
-4.70574e-22 -0.0199866 0.00562695 50.6596
-1.69407e-21 -0.0189788 0.00847309 2328.16
0 0.0189788 0.00847309 2326.92
-1.69407e-21 -0.0189845 0.00846709 2330.16
0 0.0189845 0.0084671 2328.92
1.69407e-21 0.0189847 0.00847911 2303.8
0 -0.0189847 0.00847911 2305.04
1.69407e-21 0.0189906 0.00848515 2326.22
1.69407e-21 -0.0189906 0.00848516 2327.47
1.69407e-21 0.0189971 0.00847969 2328.08
1.69407e-21 -0.0189971 0.00847969 2329.32
-1.0842e-19 -0.0206377 0.00301732 46.899
5.42101e-20 0.0206377 0.00301732 16.5717
0 -0.0196276 0.00724804 150.299
0 0.0196276 0.00724804 69.4678