# pMean  POINT_DATA 38356
# x  y  z  pMean
0.057587 -6.77626e-21 1.35324e-07 0.00257709
-0.057587 6.77626e-21 1.35324e-07 0.013792
0.0575869 0 0.000409945 0.002577
-0.0575869 -3.38813e-21 0.000409945 0.0137919
0.0575869 1.69407e-21 0.000633502 0.00257696
-0.0575869 0 0.000633503 0.0137918
0.0575868 0 0.00104356 0.00257698
-0.0575868 6.77626e-21 0.00104356 0.0137918
0.0575868 3.38813e-21 0.00145414 0.00257698
-0.0575868 0 0.00145414 0.0137924
0.0575868 -1.69407e-21 0.00167624 0.00257699
-0.0575868 -3.38813e-21 0.00167624 0.0137925
0.0575868 0 0.002087 0.00257703
-0.0575868 0 0.002087 0.0137925
0.0577687 6.77626e-21 0.000993828 0.00257727
-0.0577687 6.77626e-21 0.00099383 0.0137947
0.0577684 0 0.00110475 0.00257727
-0.0577684 0 0.00110475 0.0137948
0.0577859 0 0.000103253 0.00257744
-0.0577859 0 0.000103251 0.0137952
0.0577942 0 1.15393e-07 0.00257749
-0.0577942 0 1.15393e-07 0.0137957
0.0578027 -6.77626e-21 1.9009e-05 0.0025775
-0.0578027 0 1.90089e-05 0.0137957
-0.0578191 0 1.14264e-07 0.013796
0.0578191 6.77626e-21 1.14264e-07 0.00257754
0.0577854 0 0.00199428 0.00257733
-0.0577854 0 0.00199429 0.0137954
0.0577823 0 0.002105 0.00257736
-0.0577823 0 0.002105 0.0137958
-0.0578229 -6.77626e-21 0.00105089 0.0137959
0.057823 -6.77626e-21 0.00105089 0.00257739
0.0578007 6.77626e-21 0.00208013 0.00257738
-0.0578007 -6.77626e-21 0.00208013 0.0137959
-0.0578427 0 5.77437e-05 0.0137963
0.0578427 0 5.77443e-05 0.00257757
-0.0578443 6.77626e-21 1.78361e-05 0.0137963
0.0578443 0 1.78361e-05 0.00257758
-0.0578469 6.77626e-21 1.13152e-07 0.0137964
0.0578469 0 1.13152e-07 0.00257759
-0.0578171 0 0.00210819 0.0137959
0.0578171 0 0.00210819 0.0025774
-0.0578434 0 0.00204429 0.0137963
0.0578434 0 0.00204429 0.00257744
-0.0578462 0 0.00208444 0.0137962
0.0578462 6.77626e-21 0.00208444 0.00257743
-0.0578583 6.77626e-21 0.00211199 0.0137963
0.0578583 0 0.00211199 0.00257745
-0.0579123 3.38813e-21 0.000912365 0.0137967
0.0579123 0 0.000912358 0.0025775
-0.0579215 0 5.62241e-05 0.0137966
0.0579215 6.77626e-21 5.62242e-05 0.00257765
-0.0579145 6.77626e-21 0.0011972 0.0137967
0.0579145 3.38813e-21 0.00119721 0.00257747
0.0579296 -6.77626e-21 1.06809e-07 0.00257768
-0.0579296 6.77626e-21 1.06809e-07 0.0137978
-0.057935 -3.38813e-21 0.000246015 0.0137972
0.0579351 0 0.000246023 0.00257765
-0.0579259 -6.77626e-21 0.00205416 0.0137963
0.0579259 6.77626e-21 0.00205416 0.00257749
-0.0579372 -6.77626e-21 0.00186079 0.0137973
0.0579372 -1.01644e-20 0.00186077 0.00257753
-0.057965 0 0.00212181 0.0137982
0.0579651 0 0.00212181 0.00257761
0.0580744 -3.38813e-21 1.10802e-07 0.00257783
-0.0580744 -3.38813e-21 1.10803e-07 0.0137974
0.0581721 -4.51751e-21 0.0006106 0.0025779
-0.0581721 -2.25875e-21 0.0006106 0.0138
0.0581735 2.25875e-21 0.00151344 0.00257782
-0.0581735 4.51751e-21 0.00151345 0.0138
-0.0581926 -3.38813e-21 0.00214274 0.0137971
0.0581927 2.5411e-21 0.00214276 0.00257769
-0.058277 1.01644e-20 1.16392e-07 0.0137992
0.058277 1.35525e-20 1.16392e-07 0.00257806
-0.0583193 -1.35525e-20 0.000122998 0.0138004
0.0583193 0 0.000122997 0.00257809
0.0582823 -1.18585e-20 0.002151 0.00257778
-0.0582823 5.0822e-21 0.002151 0.0137975
-0.0583281 -1.35525e-20 0.00201521 0.0137991
0.0583281 -1.35525e-20 0.0020152 0.00257789
-0.0583808 2.71051e-20 0.000286504 0.0138026
0.0583808 0 0.000286506 0.00257819
-0.058383 0 0.00106968 0.0138038
0.058383 0 0.00106967 0.00257822
-0.0583862 0 0.00185761 0.013802
0.0583862 0 0.00185759 0.00257812
0.0584351 -2.71051e-20 1.20751e-07 0.00257826
-0.0584351 0 1.20752e-07 0.0138043
-0.0584722 -2.71051e-20 0.00216847 0.0138038
0.0584722 -1.35525e-20 0.00216848 0.00257824
0.0585878 1.8823e-22 0.000684239 0.00257839
-0.0585878 9.41148e-22 0.00068424 0.0138065
-0.0586022 -3.38813e-21 0.000178774 0.013808
0.0586022 -3.38813e-21 0.000178774 0.0025783
0.0585913 -1.8823e-21 0.00147248 0.00257835
-0.0585913 1.12938e-21 0.00147248 0.0138048
0.0586254 -3.38813e-21 8.46296e-05 0.00257826
-0.0586254 0 8.46309e-05 0.0138083
0.0586312 1.01644e-20 9.46986e-08 0.00257829
-0.0586312 1.69407e-20 9.46999e-08 0.0138084
-0.058614 -3.38813e-21 0.00198107 0.0138067
0.058614 -3.38813e-21 0.00198105 0.00257849
-0.0586388 3.38813e-21 0.00205711 0.013807
0.0586389 -3.38813e-21 0.00205707 0.00257852
-0.0586526 -2.03288e-20 0.00218507 0.0138073
0.0586526 2.71051e-20 0.00218507 0.00257854
-0.0587868 0 7.40296e-08 0.0138121
0.0587868 1.35525e-20 7.4028e-08 0.00257873
0.0587871 0 0.00108477 0.00257889
-0.0587871 0 0.00108477 0.0138122
0.0588138 0 0.00041924 0.00257887
-0.0588138 0 0.000419239 0.0138132
0.0587904 -1.35525e-20 0.00219775 0.0025788
-0.0587904 0 0.00219775 0.0138109
0.0588211 0 0.00175686 0.00257895
-0.0588211 1.35525e-20 0.00175688 0.0138125
0.0589944 -2.25875e-21 0.00075431 0.00257935
-0.0589944 -6.77626e-21 0.000754313 0.0138196
0.0589984 -4.51751e-21 0.00142978 0.00257938
-0.0589984 -9.03502e-21 0.00142979 0.0138184
0.059008 6.77626e-21 0.00221778 0.00257937
-0.0590081 6.77626e-21 0.00221778 0.0138185
-0.0590549 1.35525e-20 8.3519e-08 0.0138211
0.0590549 0 8.35176e-08 0.00257936
-0.0590696 0 0.000188904 0.0138215
0.0590696 0 0.000188898 0.0025794
-0.0590838 -2.71051e-20 8.57398e-08 0.0138219
0.0590838 -1.35525e-20 8.57395e-08 0.00257943
0.05908 0 0.00199667 0.00257953
-0.05908 0 0.00199668 0.0138206
0.059078 6.77626e-21 0.00212677 0.00257956
-0.059078 0 0.00212682 0.0138209
-0.0591578 6.77626e-21 0.00223156 0.0138217
0.0591578 6.77626e-21 0.00223157 0.00257963
-0.0593378 2.71051e-20 9.41278e-08 0.0138262
0.0593379 5.42101e-20 9.41279e-08 0.00257984
-0.0593529 2.25875e-21 0.000581993 0.0138268
0.0593529 -4.51751e-21 0.00058199 0.00257991
-0.0593596 -1.12938e-21 0.00110181 0.0138261
0.0593596 -2.25875e-21 0.0011018 0.00257992
-0.0593591 -2.25875e-21 0.00162171 0.0138263
0.0593591 0 0.0016217 0.00257996
0.059356 0 0.0022498 0.00257986
-0.059356 4.06576e-20 0.0022498 0.0138246
0.0594899 0 0.00226213 0.0025801
-0.05949 -1.35525e-20 0.00226213 0.013828
-0.0596053 0 7.49137e-08 0.0138323
0.0596053 -3.38813e-21 7.49138e-08 0.00258032
-0.0596378 -3.38813e-21 6.7265e-05 0.0138331
0.0596378 1.35525e-20 6.7278e-05 0.00258039
-0.0596391 0 0.000281382 0.0138332
0.0596391 0 0.000281382 0.0025804
-0.0596522 -1.35525e-20 0.000750556 0.0138328
0.0596522 -1.35525e-20 0.000750553 0.00258042
-0.0596652 0 7.43487e-08 0.0138335
0.0596653 1.01644e-20 7.43486e-08 0.00258043
-0.0596556 -1.35525e-20 0.00146976 0.0138326
0.0596556 0 0.00146976 0.00258041
-0.0596502 -1.12938e-21 0.00197793 0.0138332
0.0596502 1.12938e-21 0.00197792 0.00258045
-0.0598453 6.77626e-21 0.00229482 0.0138365
0.0598454 -1.35525e-20 0.00229483 0.0025807
0.0599214 -2.71051e-20 5.8673e-08 0.00258081
-0.0599214 2.71051e-20 5.86732e-08 0.0138382
-0.0599318 0 0.000596737 0.0138388
0.0599318 -2.25875e-21 0.000596735 0.00258087
-0.0599376 -1.12938e-21 0.00163636 0.0138399
0.0599376 -1.12938e-21 0.00163637 0.00258097
0.0599523 3.38813e-22 0.00111691 0.00258092
-0.0599523 1.12938e-22 0.00111691 0.0138391
-0.0599299 2.71051e-20 0.00230261 0.0138381
0.0599299 0 0.00230261 0.00258083
0.059989 6.77626e-21 0.00230805 0.00258095
-0.059989 -6.77626e-21 0.00230805 0.0138397
-0.0601336 -1.35525e-20 6.56213e-08 0.0138435
0.0601336 0 6.56212e-08 0.00258121
0.0602132 1.12938e-21 0.000252409 0.00258134
-0.0602132 0 0.00025241 0.0138454
0.0602294 4.06576e-20 0.000784297 0.00258136
-0.0602294 -1.35525e-20 0.000784301 0.0138448
-0.0602309 -2.71051e-20 0.00146539 0.0138449
0.0602309 0 0.00146538 0.00258136
0.0602724 -1.35525e-20 6.43014e-08 0.00258144
-0.0602724 0 6.43015e-08 0.0138464
0.0602424 1.41172e-22 0.00197213 0.00258145
-0.0602424 5.64689e-22 0.00197212 0.0138467
-0.060476 0 6.96067e-08 0.0138499
0.060476 0 6.96065e-08 0.00258177
0.0604796 -2.25875e-21 0.000600001 0.00258176
-0.0604796 7.52918e-22 0.000600003 0.01385
-0.0604927 1.90582e-20 0.00235439 0.0138509
0.0604959 0 0.00235469 0.00258182
0.0605079 0 0.00234001 0.00258185
-0.060508 0 0.00233988 0.0138513
-0.0605575 -2.25875e-21 0.0011318 0.0138518
0.0605575 -1.12938e-21 0.00113179 0.00258191
-0.0605507 0 0.00162686 0.0138521
0.0605507 0 0.00162685 0.00258191
0.0605441 -1.27055e-21 0.00235913 0.0025819
-0.0605446 4.23516e-22 0.00235917 0.0138519
-0.0606726 0 5.84249e-08 0.0138542
0.0606726 1.35525e-20 5.84249e-08 0.00258211
0.0608243 -1.03526e-21 0.0002887 0.00258228
-0.0608243 8.47033e-22 0.000288701 0.0138565
-0.0608389 4.51751e-21 0.00196303 0.0138594
0.0608389 -1.12938e-21 0.00196301 0.00258246
0.0608907 1.35525e-20 5.77037e-08 0.0025825
-0.0608907 1.35525e-20 5.77037e-08 0.0138581
0.061022 0 0.000858041 0.00258279
-0.061022 9.03502e-21 0.000858044 0.0138615
0.0610196 -1.35525e-20 0.0014351 0.00258281
-0.0610196 -4.51751e-21 0.00143511 0.0138625
0.0610807 0 4.80731e-08 0.0025829
-0.0610807 -2.71051e-20 4.80731e-08 0.0138607
0.0610587 -3.38813e-21 0.00240648 0.00258275
-0.0610588 0 0.00240649 0.0138613
0.0610729 3.38813e-21 0.00238496 0.00258278
-0.061073 -3.38813e-21 0.002385 0.0138616
-0.0610955 0 0.00240987 0.013862
0.0610955 -3.38813e-21 0.00240986 0.00258282
-0.0610995 0 0.00235733 0.0138621
0.0610995 3.38813e-21 0.00235725 0.00258283
-0.0611234 0 0.0023884 0.0138624
0.0611234 0 0.00238837 0.00258286
-0.0611363 3.38813e-21 0.00241362 0.0138625
0.0611364 0 0.00241362 0.00258288
-0.0612633 0 0.000606688 0.0138634
0.0612633 0 0.000606686 0.00258315
0.0612584 2.71051e-20 0.00172056 0.00258311
-0.0612584 0 0.00172055 0.0138647
0.0612897 0 0.00114617 0.00258329
-0.0612897 2.71051e-20 0.00114617 0.0138663
-0.0613382 -2.71051e-20 3.75146e-08 0.013864
0.0613382 -2.71051e-20 3.7514e-08 0.0025834
-0.0614691 1.41172e-22 0.000272853 0.0138656
0.0614691 -1.8823e-22 0.000272849 0.00258361
-0.0614658 -3.38813e-21 0.00200447 0.0138681
0.0614659 -7.90564e-21 0.00200446 0.0025834
-0.0615061 -1.35525e-20 3.67859e-08 0.0138671
0.0615061 1.35525e-20 3.67852e-08 0.00258368
-0.0615545 -6.77626e-21 0.000876319 0.0138692
0.0615545 2.25875e-21 0.000876318 0.00258361
-0.0615509 -9.03502e-21 0.00144997 0.01387
0.0615509 -9.03502e-21 0.00144997 0.00258361
0.061707 -3.38813e-21 0.00246613 0.00258376
-0.0617071 0 0.00246613 0.0138709
0.0617173 0 0.00245301 0.00258378
-0.0617173 3.38813e-21 0.00245302 0.0138711
-0.0617319 0 0.00246842 0.0138713
0.0617319 0 0.00246843 0.00258381
-0.0617337 0 0.00243692 0.0138714
0.0617337 0 0.00243691 0.00258381
-0.061748 0 0.00245429 0.0138715
0.061748 0 0.00245428 0.00258383
-0.0617555 -3.38813e-21 0.00247059 0.0138716
0.0617555 -3.38813e-21 0.00247059 0.00258384
0.0618119 0 0.000576099 0.00258398
-0.0618119 0 0.000576101 0.0138728
-0.0618206 0 1.81838e-08 0.0138734
0.0618207 -2.71051e-20 1.81818e-08 0.00258397
-0.0618057 0 0.00179046 0.0138729
0.0618057 2.71051e-20 0.00179046 0.00258395
-0.0618911 1.93608e-21 0.00110224 0.013876
0.0618911 -7.7443e-21 0.00110224 0.00258424
-0.0620668 -1.35525e-20 0.000803504 0.0138774
0.0620668 -5.42101e-21 0.000803499 0.00258438
0.0620551 9.03502e-21 0.0014783 0.00258436
-0.0620551 -4.51751e-21 0.0014783 0.0138767
-0.062113 -2.37169e-20 1.60896e-08 0.0138797
0.062113 -3.72694e-20 1.60878e-08 0.00258442
-0.0620964 -5.64689e-22 0.0020808 0.0138777
0.0620964 2.82344e-21 0.00208081 0.00258442
-0.0621537 -2.25875e-21 0.000297886 0.013881
0.0621538 -1.12938e-21 0.000297887 0.00258453
-0.0621775 -6.77626e-21 1.56614e-08 0.0138813
0.0621776 4.06576e-20 1.56595e-08 0.00258454
-0.0621833 0 0.00250996 0.0138803
0.0621833 0 0.00250996 0.00258459
-0.0621909 0 0.00249508 0.0138805
0.0621909 3.38813e-21 0.00249509 0.00258461
0.0622064 0 0.00247948 0.00258464
-0.0622064 -4.40457e-20 0.00247946 0.013881
0.062211 1.69407e-20 0.00251251 0.00258465
-0.062211 3.38813e-21 0.00251251 0.0138811
0.0622439 0 0.00247181 0.00258473
-0.0622439 0 0.00247177 0.0138823
-0.062464 2.71051e-20 1.36276e-08 0.0138883
0.0624641 0 1.36259e-08 0.00258511
-0.0624707 0 0.000664989 0.0138877
0.0624707 0 0.000664986 0.00258513
-0.062477 -1.12938e-21 0.00119037 0.0138868
0.062477 -2.25875e-21 0.00119036 0.00258513
0.062456 -1.01644e-20 0.00253505 0.00258527
-0.062456 2.71051e-20 0.00253505 0.0138898
0.0624641 -3.38813e-21 0.00247936 0.00258529
-0.0624641 -6.77626e-21 0.00247929 0.0138901
0.0625428 4.51751e-21 0.0018227 0.0025853
-0.0625428 -2.25875e-21 0.0018227 0.013889
-0.062548 2.25875e-21 0.00223368 0.0138902
0.062548 0 0.00223368 0.00258535
-0.0626458 -3.38813e-21 0.00247189 0.0138911
0.0626458 3.38813e-21 0.00247193 0.00258546
-0.0627253 -6.77626e-21 1.30352e-08 0.0138937
0.0627253 6.77626e-21 1.30342e-08 0.0025856
-0.0626789 6.77626e-21 0.00255556 0.0138909
0.0626789 6.77626e-21 0.00255556 0.00258548
0.0627232 1.35525e-20 0.00247251 0.00258556
-0.0627232 0 0.00247247 0.0138921
-0.0627775 0 0.000301894 0.0138949
0.0627776 2.25875e-21 0.000301892 0.0025857
0.0627289 0 0.00253277 0.00258554
-0.0627289 -6.77626e-21 0.00253275 0.0138916
0.0627357 6.77626e-21 0.00256079 0.00258554
-0.0627358 6.77626e-21 0.00256079 0.0138916
-0.0627919 1.35525e-20 0.000886652 0.0138952
0.0627919 0 0.000886656 0.00258573
-0.0628164 0 1.26849e-08 0.0138956
0.0628164 -6.77626e-21 1.2684e-08 0.00258576
-0.0628008 -1.35525e-20 0.00150627 0.0138941
0.0628008 -2.71051e-20 0.00150627 0.00258574
-0.0628112 1.35525e-20 0.00226818 0.0138934
0.0628112 -1.35525e-20 0.00226818 0.00258569
-0.0628645 6.77626e-21 0.00225928 0.013894
0.0628645 -6.77626e-21 0.00225928 0.00258576
-0.0630768 -2.71051e-20 1.21048e-08 0.0139015
0.0630768 5.42101e-20 1.21046e-08 0.00258623
-0.0630912 -4.51751e-21 0.000666653 0.0139017
0.0630913 1.35525e-20 0.000666654 0.00258626
-0.0630462 0 0.00258936 0.0138979
0.0630463 -6.77626e-21 0.00258936 0.00258604
-0.0630991 3.38813e-21 0.00119257 0.0139015
0.0630991 5.64689e-21 0.00119258 0.00258627
-0.0630753 0 0.00254724 0.0138987
0.0630753 0 0.00254725 0.0025861
-0.0631146 -2.25875e-21 0.0018442 0.0139022
0.0631146 -6.77626e-21 0.0018442 0.00258632
0.0631295 6.77626e-21 0.00220804 0.00258629
-0.0631295 6.77626e-21 0.00220804 0.0139015
-0.0631287 0 0.00259695 0.0139006
0.0631287 6.77626e-21 0.00259695 0.00258623
-0.0631356 1.35525e-20 0.00244816 0.0139011
0.0631356 6.77626e-21 0.0024482 0.00258626
0.0632025 0 0.00255032 0.00258638
-0.0632025 6.77626e-21 0.00255031 0.0139027
0.063231 6.77626e-21 0.00260636 0.00258644
-0.063231 0 0.00260636 0.0139037
-0.063349 3.38813e-21 1.19264e-08 0.0139072
0.063349 -1.35525e-20 1.19262e-08 0.00258672
-0.0633802 1.12938e-21 0.000299346 0.013908
0.0633802 2.25875e-21 0.00029935 0.00258677
-0.0634014 1.01644e-20 1.18937e-08 0.0139083
0.0634014 -1.69407e-20 1.18936e-08 0.00258681
-0.0633962 4.06576e-20 0.000886345 0.0139082
0.0633962 2.71051e-20 0.000886349 0.00258679
-0.0634042 0 0.00150026 0.0139087
0.0634042 -2.71051e-20 0.00150026 0.00258682
-0.0634115 -6.77626e-21 0.00227415 0.0139088
0.0634115 0 0.00227415 0.00258682
-0.0635497 0 0.0026357 0.0139125
0.0635497 0 0.00263569 0.00258707
-0.0636291 -5.80823e-21 0.000643872 0.0139125
0.0636291 5.80823e-21 0.000643874 0.00258714
-0.0635905 1.35525e-20 0.00256259 0.0139134
0.0635905 2.71051e-20 0.00256259 0.00258714
-0.0636736 -2.71051e-20 1.17146e-08 0.0139142
0.0636736 2.71051e-20 1.17145e-08 0.00258728
-0.0637074 1.12938e-21 0.00119084 0.013915
0.0637074 7.90564e-21 0.00119084 0.00258734
-0.0637064 9.03502e-21 0.00183861 0.0139154
0.0637064 -4.51751e-21 0.00183862 0.00258734
0.0636972 0 0.00228451 0.00258732
-0.0636972 1.12938e-21 0.00228451 0.0139154
0.0636864 0 0.00264828 0.00258731
-0.0636864 -1.35525e-20 0.00264828 0.0139158
0.0638056 0 0.00256928 0.00258752
-0.0638056 0 0.00256928 0.0139184
0.0638572 -6.77626e-21 0.00266399 0.00258762
-0.0638572 0 0.002664 0.0139198
-0.0639761 -5.02926e-21 1.11264e-08 0.0139203
0.0639761 4.09752e-20 1.11265e-08 0.00258779
-0.063985 -4.51751e-21 0.000294135 0.0139205
0.063985 0 0.000294132 0.0025878
-0.0639986 4.51751e-21 0.000797603 0.0139209
0.0639987 0 0.000797603 0.00258784
0.0639966 1.35525e-20 0.00216928 0.00258783
-0.0639966 -1.35525e-20 0.00216927 0.0139218
0.0639893 2.71051e-20 0.00242216 0.00258784
-0.0639893 -1.35525e-20 0.00242216 0.0139225
-0.0640906 -2.71051e-21 0.00161504 0.0139236
0.0640906 0 0.00161505 0.00258803
-0.0640774 1.35525e-20 0.00268425 0.0139246
0.0640774 0 0.00268425 0.00258801
-0.0641378 -2.71051e-20 0.0025811 0.0139257
0.0641378 -2.71051e-20 0.00258111 0.00258811
-0.0642238 0 0.0011939 0.0139258
0.0642238 4.51751e-21 0.0011939 0.00258822
-0.0642454 -1.54886e-20 0.00190905 0.0139265
0.0642454 -1.54886e-20 0.00190906 0.00258823
-0.0642765 2.71051e-20 1.05719e-08 0.0139264
0.0642765 -2.71051e-20 1.0572e-08 0.00258832
-0.0643071 0 0.000580294 0.0139272
0.0643071 2.71051e-20 0.000580294 0.00258837
0.0642698 1.35525e-20 0.00270196 0.00258834
-0.0642698 0 0.00270196 0.0139286
0.0642914 1.12938e-21 0.00231061 0.00258836
-0.0642914 -3.38813e-21 0.0023106 0.0139281
0.064507 -1.35525e-20 0.00272379 0.00258877
-0.064507 6.77626e-21 0.00272379 0.0139333
-0.0645717 0 1.00932e-08 0.0139321
0.0645718 0 1.00933e-08 0.00258885
-0.0645942 3.38813e-21 0.000105204 0.0139325
0.0645942 -5.0822e-21 0.000105297 0.00258889
-0.0646037 -5.0822e-21 0.000289957 0.0139326
0.0646037 0 0.000289963 0.0025889
-0.0646061 0 1.00752e-08 0.0139328
0.0646062 1.69407e-20 1.00752e-08 0.00258891
-0.0645786 0 0.00255742 0.0139339
0.0645786 -1.35525e-20 0.00255743 0.00258885
-0.0646301 9.03502e-21 0.000896905 0.0139342
0.0646301 -2.25875e-21 0.000896903 0.00258896
0.0646074 9.03502e-21 0.00205695 0.00258891
-0.0646074 9.03502e-21 0.00205694 0.0139342
0.0646289 0 0.00152581 0.00258896
-0.0646289 0 0.00152581 0.0139351
-0.0646281 -2.03288e-20 0.00273494 0.0139353
0.0646282 -1.35525e-20 0.00273494 0.00258897
-0.0649009 0 9.60311e-09 0.013938
0.0649009 -5.42101e-20 9.60308e-09 0.00258943
0.064875 1.35525e-20 0.00275765 0.00258931
-0.064875 0 0.00275765 0.0139374
-0.0649356 0 0.000580114 0.0139392
0.0649357 2.71051e-20 0.000580114 0.00258948
0.0649299 0 0.00188429 0.00258944
-0.0649299 0 0.00188429 0.0139395
0.0649159 0 0.00234646 0.0025894
-0.0649159 2.82344e-22 0.00234647 0.0139385
0.064955 0 0.00120177 0.00258953
-0.064955 2.71051e-20 0.00120177 0.0139406
-0.0652158 0 7.83123e-09 0.0139439
0.0652158 0 7.83116e-09 0.00258995
-0.0652252 0 4.89574e-05 0.0139441
0.0652252 4.23516e-21 4.89963e-05 0.00258997
-0.0652301 -1.69407e-21 7.82292e-09 0.0139442
0.0652302 -1.35525e-20 7.82284e-09 0.00258998
-0.065238 1.12938e-21 0.000289529 0.0139442
0.0652381 -2.25875e-21 0.000289519 0.00258999
-0.0652635 2.25875e-21 0.000898212 0.0139456
0.0652635 -1.35525e-20 0.000898216 0.00259005
0.0652136 0 0.00278879 0.0025899
-0.0652137 -2.03288e-20 0.00278879 0.0139423
-0.0652598 4.51751e-21 0.0015412 0.013946
0.0652598 0 0.0015412 0.00259003
0.0652523 -1.35525e-20 0.00209337 0.00259
-0.0652523 -4.51751e-21 0.00209337 0.0139445
-0.065247 1.69407e-21 0.00279186 0.0139429
0.065247 3.38813e-20 0.00279186 0.00258996
0.0652921 0 0.00257089 0.00259
-0.0652921 -6.77626e-21 0.00257088 0.0139436
-0.0655524 5.42101e-20 5.83763e-09 0.0139507
0.0655525 -2.71051e-20 5.83746e-09 0.00259053
-0.0655704 -2.71051e-20 0.000580836 0.0139509
0.0655704 0 0.000580835 0.00259057
0.0655566 2.71051e-20 0.00189805 0.00259052
-0.0655566 0 0.00189804 0.0139495
0.0655812 -2.71051e-20 0.00120809 0.00259057
-0.0655812 2.71051e-20 0.00120809 0.0139504
0.0655609 2.71051e-20 0.00282073 0.00259051
-0.0655609 -2.71051e-20 0.00282072 0.0139487
0.065626 0 0.00230052 0.00259064
-0.065626 4.51751e-21 0.00230051 0.0139504
0.0657942 0 0.00153773 0.00259086
-0.0657942 -4.51751e-21 0.00153773 0.0139522
-0.0658501 -3.38813e-21 4.27431e-09 0.0139569
0.0658502 -1.35525e-20 4.27416e-09 0.00259101
0.0658196 -8.13152e-21 0.0020679 0.00259094
-0.0658196 -1.89735e-20 0.0020679 0.0139526
-0.0658851 -1.12938e-21 0.000294061 0.0139576
0.0658851 -3.38813e-21 0.00029407 0.00259108
-0.0659037 -6.77626e-21 3.74108e-09 0.0139581
0.0659037 2.03288e-20 3.741e-09 0.0025911
-0.0658977 4.51751e-21 0.000900808 0.0139572
0.0658977 -2.25875e-21 0.000900806 0.00259114
-0.0658696 -2.37169e-20 0.00284913 0.0139543
0.0658696 -2.5411e-20 0.00284914 0.00259108
0.0658846 -3.38813e-21 0.0028246 0.00259111
-0.0658846 3.38813e-21 0.00282453 0.0139546
0.0659008 0 0.00285201 0.00259114
-0.0659009 5.0822e-21 0.00285201 0.013955
0.0659303 5.64689e-21 0.00259415 0.00259117
-0.0659304 7.90564e-21 0.00259415 0.0139559
-0.0662017 5.42101e-20 2.04737e-09 0.0139644
0.0662017 0 2.04729e-09 0.00259166
-0.0662096 -2.71051e-20 0.000583165 0.0139643
0.0662096 0 0.000583165 0.0025917
0.066226 2.25875e-21 0.00182287 0.0025917
-0.066226 0 0.00182287 0.0139629
-0.0662614 0 0.00125249 0.0139641
0.0662614 0 0.00125249 0.00259176
0.0662443 1.35525e-20 0.00230825 0.00259174
-0.0662443 4.51751e-21 0.00230824 0.0139634
0.0662396 -1.35525e-20 0.00288319 0.00259171
-0.0662396 0 0.00288318 0.0139627
-0.0664688 6.77626e-21 1.83905e-09 0.0139702
0.0664688 1.35525e-20 1.83897e-09 0.00259218
-0.0665215 4.51751e-21 0.000297039 0.0139714
0.0665216 0 0.000297033 0.00259228
-0.0665293 -4.51751e-21 0.000803441 0.0139714
0.0665293 9.03502e-21 0.000803445 0.0025923
-0.0664922 -1.35525e-20 0.00290641 0.0139714
0.0664922 6.77626e-21 0.00290641 0.00259226
-0.0665402 2.71051e-20 0.00152016 0.0139716
0.0665402 0 0.00152016 0.00259231
-0.0665636 2.03288e-20 1.7259e-09 0.0139723
0.0665637 1.35525e-20 1.72584e-09 0.00259235
-0.0665513 0 0.00210904 0.0139713
0.0665513 2.71051e-20 0.00210904 0.00259231
0.0665489 2.25875e-21 0.00261517 0.00259239
-0.0665489 -3.38813e-21 0.00261517 0.0139731
0.0665444 -6.77626e-21 0.00282557 0.00259239
-0.0665444 6.77626e-21 0.00282553 0.0139734
0.0665984 6.77626e-21 0.00291617 0.00259246
-0.0665984 0 0.00291617 0.0139742
-0.0668291 2.71051e-20 1.5155e-09 0.0139779
0.0668291 2.71051e-20 1.51544e-09 0.00259281
-0.0668395 2.71051e-20 0.000583569 0.0139782
0.0668395 2.71051e-20 0.00058357 0.00259285
-0.0668469 1.88079e-37 0.00119952 0.0139782
0.0668469 0 0.00119952 0.00259286
-0.0668544 -4.51751e-21 0.00182468 0.0139782
0.0668544 9.03502e-21 0.00182468 0.00259286
-0.0668557 0 0.00232115 0.0139787
0.0668557 4.51751e-21 0.00232116 0.00259288
0.0668437 -1.35525e-20 0.00293872 0.00259285
-0.0668437 0 0.00293872 0.0139789
-0.0670865 2.03288e-20 1.47833e-09 0.0139835
0.0670865 -6.77626e-21 1.4783e-09 0.00259328
-0.0670533 6.77626e-21 0.00295798 0.0139846
0.0670533 1.35525e-20 0.00295798 0.00259325
-0.0671423 6.77626e-21 0.000297525 0.0139847
0.0671423 -2.25875e-21 0.000297532 0.00259338
-0.0671508 -1.35525e-20 0.00080171 0.0139849
0.0671508 -4.51751e-21 0.000801707 0.00259341
-0.0671599 0 0.00152361 0.0139849
0.0671599 0 0.0015236 0.00259342
-0.0671866 0 1.45247e-09 0.0139856
0.0671867 2.03288e-20 1.45245e-09 0.00259346
-0.0671599 0 0.00212274 0.0139847
0.0671599 0 0.00212275 0.00259339
-0.0671485 0 0.00265064 0.0139872
0.0671485 -2.25875e-21 0.00265064 0.00259346
-0.0671466 -6.77626e-21 0.00281337 0.0139874
0.0671466 0 0.0028134 0.00259345
0.0672434 6.77626e-21 0.00297542 0.00259359
-0.0672434 1.35525e-20 0.00297542 0.013989
-0.0674436 0 1.41552e-09 0.013991
0.0674436 0 1.41554e-09 0.0025939
-0.0674568 0 0.000584109 0.0139914
0.0674569 -2.71051e-20 0.000584109 0.00259394
-0.0674669 -2.25875e-21 0.00120273 0.0139917
0.0674669 -2.25875e-21 0.00120273 0.00259397
0.067468 9.03502e-21 0.00183542 0.00259396
-0.067468 -2.25875e-21 0.00183543 0.0139919
0.0674616 0 0.00233498 0.00259396
-0.0674616 4.51751e-21 0.00233497 0.0139926
0.0674388 1.35525e-20 0.00299338 0.00259391
-0.0674388 2.71051e-20 0.00299338 0.0139929
-0.0676069 6.77626e-21 0.00300882 0.0139978
0.067607 0 0.00300882 0.00259424
-0.0677028 -1.35525e-20 1.38308e-09 0.0139965
0.0677028 0 1.38311e-09 0.00259437
-0.067757 -6.77626e-21 0.000297263 0.0139976
0.067757 -6.77626e-21 0.000297257 0.00259447
-0.0677742 0 0.00153093 0.0139987
0.0677742 0 0.00153093 0.00259452
-0.0677979 -2.71051e-20 1.35976e-09 0.0139985
0.0677979 2.71051e-20 1.35979e-09 0.00259454
0.0677676 2.71051e-20 0.00214267 0.0025945
-0.0677676 5.42101e-20 0.00214267 0.013999
-0.0677493 -1.807e-21 0.00270581 0.0140019
0.0677493 -4.51751e-22 0.00270581 0.00259454
-0.0678144 4.51751e-21 0.000856819 0.0139991
0.0678145 2.25875e-21 0.000856823 0.00259459
0.0678888 0 0.00303468 0.00259474
-0.0678889 0 0.00303468 0.0140035
-0.0680566 0 1.32749e-09 0.0140037
0.0680567 0 1.32754e-09 0.00259499
-0.0680721 -2.71051e-20 0.000585619 0.0140043
0.0680721 0 0.000585619 0.00259504
0.0680839 -1.35525e-20 0.00131313 0.00259508
-0.0680839 4.51751e-21 0.00131313 0.0140053
0.0680357 -1.35525e-20 0.00304817 0.00259499
-0.0680357 -4.06576e-20 0.00304816 0.0140054
0.0680812 -6.77626e-21 0.00185058 0.00259508
-0.0680812 2.25875e-21 0.00185058 0.0140056
0.0680701 4.51751e-21 0.0023508 0.00259507
-0.0680701 9.03502e-21 0.0023508 0.014006
-0.0681604 6.77626e-21 0.00305961 0.0140083
0.0681604 6.77626e-21 0.00305962 0.00259523
-0.0683162 -2.03288e-20 1.26055e-09 0.0140089
0.0683162 -2.71051e-20 1.26058e-09 0.00259546
-0.0683744 -2.25875e-21 0.000297284 0.0140101
0.0683744 -2.25875e-21 0.000297287 0.00259556
-0.0683872 4.51751e-21 0.000907119 0.014011
0.0683872 -6.77626e-21 0.000907119 0.00259563
0.0683925 0 0.00154133 0.00259564
-0.0683925 -2.71051e-20 0.00154133 0.0140125
0.0683557 1.807e-21 0.00274299 0.00259562
-0.0683557 -1.35525e-21 0.00274298 0.014013
-0.068418 0 1.20782e-09 0.0140109
0.068418 -2.71051e-20 1.20784e-09 0.00259564
0.0684733 1.0842e-20 0.00225349 0.00259579
-0.0684733 8.13152e-21 0.00225348 0.0140134
0.0685255 0 0.00309309 0.00259579
-0.0685255 -6.77626e-21 0.0030931 0.0140123
-0.0686762 -2.71051e-20 1.13946e-09 0.014016
0.0686762 0 1.13947e-09 0.00259612
-0.0686216 3.38813e-20 0.00310191 0.0140124
0.0686216 6.77626e-21 0.00310191 0.00259591
-0.0686918 0 0.000587021 0.0140166
0.0686918 -2.71051e-20 0.000587021 0.00259616
0.0687027 0 0.00132333 0.0025962
-0.0687027 4.51751e-21 0.00132333 0.0140178
0.0687032 4.51751e-21 0.00186893 0.00259621
-0.0687032 2.25875e-21 0.00186894 0.0140176
0.0686865 0 0.00248811 0.00259612
-0.0686866 0 0.00248812 0.0140155
-0.0687017 6.77626e-21 0.00310928 0.0140125
0.0687017 0 0.00310928 0.00259601
-0.0689263 6.77626e-21 1.01571e-09 0.0140208
0.0689263 1.35525e-20 1.0157e-09 0.00259658
0.0689231 -8.13152e-21 0.00227183 0.00259659
-0.0689231 8.13152e-21 0.00227182 0.0140201
0.0689994 2.25875e-21 0.000297457 0.00259671
-0.0689994 0 0.000297458 0.0140222
0.0689618 -2.25875e-22 0.00278188 0.00259637
-0.0689618 4.51751e-22 0.00278188 0.0140144
0.0690126 -4.51751e-21 0.000908099 0.00259676
-0.0690126 6.77626e-21 0.000908099 0.0140227
0.0690164 0 0.00154865 0.00259678
-0.0690164 0 0.00154865 0.014024
0.0690595 -2.03288e-20 8.83068e-10 0.00259682
-0.0690595 0 8.83102e-10 0.0140234
0.0690357 -6.77626e-21 0.00313993 0.00259665
-0.0690357 0 0.00313993 0.0140189
-0.0690924 -6.77626e-21 0.00314514 0.0140206
0.0690924 -3.38813e-20 0.00314515 0.00259679
-0.0693056 0 7.53379e-10 0.0140283
0.0693056 0 7.53321e-10 0.00259728
-0.069319 -2.71051e-20 0.000586453 0.0140283
0.069319 2.71051e-20 0.000586452 0.00259731
0.0693341 -6.77626e-21 0.00187509 0.00259732
-0.0693341 2.25875e-21 0.00187509 0.0140265
0.0693765 -4.51751e-21 0.00126522 0.0025974
-0.0693765 -2.25875e-21 0.00126522 0.0140287
-0.0693211 1.01644e-20 0.00316745 0.0140314
0.0693211 2.71051e-20 0.00316745 0.00259754
-0.0693497 1.35525e-20 0.00297788 0.01403
0.0693497 1.35525e-20 0.00297788 0.00259749
0.0694191 2.25875e-21 0.00258723 0.0025975
-0.0694191 0 0.00258724 0.0140284
-0.0695352 1.35525e-20 6.33628e-10 0.0140328
0.0695352 0 6.33571e-10 0.00259773
-0.0696321 -4.51751e-21 0.000296641 0.0140347
0.0696321 6.77626e-21 0.00029664 0.00259791
0.0695674 0 0.00318911 0.00259771
-0.0695674 0 0.00318911 0.014029
-0.0696425 0 0.000797123 0.0140339
0.0696425 0 0.000797124 0.00259791
-0.0695807 0 0.00319033 0.014029
0.0695807 0 0.00319034 0.00259773
-0.069586 0 0.00317441 0.014029
0.069586 0 0.00317436 0.00259773
0.0696473 0 0.00154038 0.00259787
-0.0696473 0 0.00154038 0.0140318
0.0696642 2.71051e-20 0.00219167 0.00259786
-0.0696642 0 0.00219168 0.0140286
0.0697196 0 4.40682e-10 0.00259809
-0.0697196 1.35525e-20 4.40731e-10 0.0140365
-0.0697545 2.5411e-21 0.00320646 0.014033
0.0697673 0 0.00292576 0.00259793
-0.0697673 -2.25875e-21 0.00292575 0.0140304
0.069755 8.47033e-22 0.00320652 0.00259804
-0.0699415 0 3.15633e-10 0.0140411
0.0699415 0 3.15585e-10 0.00259856
-0.0699612 9.03502e-21 0.00120417 0.0140399
0.0699612 0 0.00120417 0.00259849
-0.069973 -4.51751e-21 0.00186132 0.0140396
0.069973 0 0.00186132 0.00259852
-0.0700188 0 0.000642771 0.0140423
0.0700188 0 0.000642772 0.00259869
-0.0699962 6.32451e-21 0.0025455 0.0140414
0.0699962 -1.807e-21 0.00254551 0.0025986
-0.0699992 0 0.00322937 0.014038
0.0699992 0 0.00322937 0.00259845
-0.070005 1.69407e-21 0.00322125 0.0140382
0.0700051 1.69407e-21 0.00322126 0.00259846
-0.0700172 1.69407e-21 0.00320117 0.0140389
0.0700172 -1.69407e-21 0.00320122 0.0025985
-0.0700158 1.69407e-21 0.00323094 0.0140387
0.0700159 1.69407e-21 0.00323094 0.00259849
0.0700303 -1.69407e-21 0.00322213 0.00259852
-0.0700303 0 0.00322211 0.0140392
0.0700358 0 0.00323282 0.00259854
-0.0700358 -1.69407e-21 0.00323282 0.0140395
-0.070147 -1.35525e-20 2.68716e-10 0.0140454
0.070147 1.35525e-20 2.68675e-10 0.00259899
-0.0702674 2.25875e-21 0.000292959 0.0140479
0.0702674 4.51751e-21 0.000292959 0.00259921
-0.0702765 0 0.000883287 0.0140466
0.0702765 -2.71051e-20 0.000883288 0.00259908
0.0702887 0 0.0015184 0.00259915
-0.0702887 0 0.0015184 0.0140479
0.0702991 0 0.0021711 0.00259921
-0.0702991 0 0.0021711 0.0140505
-0.0703095 -4.51751e-21 0.00294431 0.014049
0.0703095 4.51751e-21 0.00294431 0.00259916
0.0703806 0 1.62739e-10 0.00259944
-0.0703806 -1.35525e-20 1.62753e-10 0.0140504
-0.0705784 -2.71051e-20 1.14589e-10 0.0140548
0.0705784 2.71051e-20 1.14583e-10 0.00259987
-0.0705999 -4.51751e-21 0.00118732 0.0140551
0.0705999 -2.25875e-21 0.00118731 0.00259972
-0.0705383 -6.77626e-21 0.00328029 0.0140565
0.0705383 6.77626e-21 0.00328029 0.00259963
-0.070555 -6.77626e-21 0.00325355 0.0140569
0.070555 0 0.00325356 0.00259966
-0.0706079 -9.03502e-21 0.00184657 0.0140569
0.0706079 -2.25875e-21 0.00184657 0.00259977
-0.070638 6.77626e-21 0.000612685 0.0140556
0.070638 0 0.000612687 0.00259983