# pMean  POINT_DATA 14073
# x  y  z  pMean
-1.35525e-20 0.0101542 1.397e-07 0.00250353
1.35525e-20 -0.0101542 1.397e-07 0.0126164
-1.35525e-20 0.0101542 0.000269592 0.00250353
2.71051e-20 -0.0101542 0.000269592 0.0126165
2.71051e-20 0.0101542 0.000769234 0.00250355
1.35525e-20 -0.0101542 0.000769234 0.0126168
0 0.0101542 0.00104357 0.00250354
0 -0.0101542 0.00104357 0.0126167
1.35525e-20 0.0101542 0.00131779 0.00250354
1.35525e-20 -0.0101542 0.00131779 0.012617
0 0.0102506 0.000298259 0.00250351
-1.35525e-20 -0.0102506 0.00029826 0.0126161
-1.35525e-20 0.0102543 0.000875898 0.00250353
0 -0.0102543 0.000875897 0.0126164
0 0.0101542 0.00181774 0.00250354
1.35525e-20 -0.0101542 0.00181774 0.012617
-1.35525e-20 0.0103268 1.10555e-07 0.0025035
-1.35525e-20 -0.0103268 1.10554e-07 0.012616
0 0.0102523 0.00124394 0.00250353
0 -0.0102523 0.00124394 0.0126166
2.71051e-20 0.0101542 0.002087 0.00250355
-2.71051e-20 -0.0101542 0.002087 0.012617
-1.35525e-20 0.0103709 0.000111967 0.00250349
0 -0.0103709 0.000111968 0.0126158
0 -0.0103677 0.000675216 0.0126159
-1.35525e-20 0.0103677 0.000675216 0.00250351
-1.35525e-20 0.0102487 0.0018202 0.00250352
0 -0.0102487 0.0018202 0.0126166
4.06576e-20 -0.0103636 0.00148271 0.0126162
0 0.0103636 0.00148271 0.00250351
-1.35525e-20 0.0102712 0.00214806 0.00250353
0 -0.0102712 0.00214806 0.012617
-1.35525e-20 0.0103514 0.00204723 0.00250352
0 -0.0103515 0.00204723 0.0126166
0 -0.0106317 0.000607139 0.0126148
-7.52918e-21 0.0106317 0.00060714 0.00250347
-6.77626e-21 -0.0106102 0.00112187 0.0126147
5.64689e-21 0.0106102 0.00112187 0.00250347
2.71051e-20 -0.0106774 0.000276333 0.0126151
0 0.0106774 0.000276333 0.00250346
9.03502e-21 -0.0106161 0.00164334 0.0126151
4.51751e-21 0.0106161 0.00164334 0.00250347
6.77626e-21 -0.0107648 4.28324e-08 0.0126143
0 0.0107648 4.28305e-08 0.00250344
0 -0.0105533 0.0022953 0.0126156
0 0.0105533 0.0022953 0.00250348
-2.71051e-20 -0.01063 0.00198748 0.0126159
-2.71051e-20 0.01063 0.00198748 0.00250349
0 -0.0108244 8.90628e-05 0.0126141
0 0.0108244 8.90541e-05 0.00250343
-1.35525e-20 -0.0106418 0.00222461 0.0126152
0 0.0106418 0.00222461 0.00250346
-1.35525e-20 -0.0108971 2.09162e-08 0.0126135
0 0.0108971 2.09164e-08 0.00250341
-1.35525e-20 -0.0106478 0.00234462 0.0126148
0 0.0106478 0.00234461 0.00250346
0 -0.0108702 0.00088437 0.0126133
0 0.0108702 0.000884371 0.00250342
2.71051e-20 -0.0108765 0.00145343 0.0126133
0 0.0108765 0.00145343 0.00250342
0 0.0107254 0.0023851 0.00250344
-1.35525e-20 -0.0107254 0.0023851 0.0126143
1.35525e-20 0.0110033 1.81925e-08 0.0025034
0 -0.0110033 1.81919e-08 0.012613
1.35525e-20 0.0107624 0.00231965 0.00250343
0 -0.0107624 0.00231965 0.0126142
0 0.0110153 7.96742e-05 0.00250339
0 -0.0110153 7.96834e-05 0.012613
-1.12938e-21 -0.0110632 0.000577057 0.0126127
-2.25875e-21 0.0110632 0.000577058 0.00250339
-1.12938e-21 -0.0111416 0.00118798 0.0126122
-1.12938e-21 0.0111416 0.00118798 0.00250338
1.35525e-21 -0.0110829 0.0018675 0.012613
9.03502e-22 0.0110829 0.0018675 0.00250339
0 -0.0110229 0.00226207 0.0126128
0 0.0110229 0.00226208 0.00250338
2.71051e-20 0.0113157 0.000285027 0.00250334
-2.71051e-20 -0.0113157 0.000285023 0.0126114
0 -0.0110601 0.00255975 0.0126131
-6.77626e-21 0.0110601 0.00255975 0.00250338
6.77626e-21 -0.0110969 0.00251423 0.012613
6.77626e-21 0.0110969 0.00251423 0.00250338
0 -0.011119 0.00259052 0.012613
0 0.011119 0.00259052 0.00250338
2.71051e-20 -0.0114092 0.000887746 0.012611
0 0.0114092 0.000887747 0.00250334
-6.77626e-21 0.0111709 0.00261751 0.00250337
6.77626e-21 -0.0111709 0.00261751 0.0126131
6.77626e-21 -0.0111905 0.00257812 0.012613
1.35525e-20 0.0111905 0.00257812 0.00250337
0 -0.0114292 0.00153027 0.0126115
0 0.0114292 0.00153027 0.00250334
6.77626e-21 0.0115336 3.98168e-09 0.00250331
6.77626e-21 -0.0115337 3.98217e-09 0.0126106
0 -0.011316 0.00229781 0.0126123
0 0.011316 0.00229782 0.00250335
6.77626e-21 0.0115492 5.75064e-05 0.00250331
0 -0.0115493 5.75224e-05 0.0126105
0 0.0116095 2.02397e-09 0.0025033
6.77626e-21 -0.0116096 2.02388e-09 0.0126102
-2.71051e-20 -0.0114857 0.00207363 0.0126116
0 0.0114857 0.00207364 0.00250333
0 0.0116746 1.84338e-09 0.00250329
6.77626e-21 -0.0116747 1.84324e-09 0.01261
0 0.011679 5.25147e-05 0.00250329
0 -0.0116791 5.25298e-05 0.0126099
0 0.0116878 0.000581186 0.00250329
1.12938e-21 -0.0116878 0.000581184 0.0126099
2.71051e-20 -0.0114474 0.00253473 0.0126127
0 0.0114475 0.00253474 0.00250335
1.12938e-21 -0.0117411 0.00120508 0.0126099
-1.69407e-21 0.0117411 0.00120508 0.00250328
0 -0.0115287 0.00280389 0.012613
6.77626e-21 0.0115287 0.00280391 0.00250334
0 -0.01155 0.00277247 0.012613
0 0.01155 0.00277248 0.00250333
-2.25875e-21 -0.0117713 0.00182833 0.0126103
-5.64689e-22 0.0117713 0.00182833 0.00250328
-6.77626e-21 -0.0115729 0.0028269 0.0126129
0 0.0115729 0.00282691 0.00250333
0 -0.0116142 0.00284883 0.0126131
6.77626e-21 0.0116142 0.00284884 0.00250333
-6.77626e-21 -0.0116388 0.00280394 0.012613
0 0.0116388 0.00280395 0.00250332
5.64689e-22 -0.0117403 0.00237663 0.0126116
2.25875e-21 0.0117404 0.00237664 0.0025033
5.42101e-20 0.0119843 0.000286092 0.00250325
-2.71051e-20 -0.0119843 0.000286091 0.0126088
-2.71051e-20 -0.0120413 0.000886344 0.0126087
0 0.0120413 0.000886345 0.00250323
-5.42101e-20 -0.0120819 0.00151673 0.0126086
0 0.0120819 0.00151673 0.00250322
-2.71051e-20 -0.0119435 0.00269977 0.0126128
0 0.0119435 0.00269979 0.00250329
-6.77626e-21 0.0122585 2.35686e-10 0.00250322
0 -0.0122585 2.35721e-10 0.012608
0 0.0122629 3.33592e-05 0.00250322
6.77626e-21 -0.012263 3.33761e-05 0.012608
2.71051e-20 -0.0120908 0.00215653 0.0126095
0 0.0120908 0.00215653 0.00250322
0 0.0122996 1.21642e-10 0.00250322
0 -0.0122997 1.21624e-10 0.0126079
-6.77626e-21 0.0123364 1.15215e-10 0.00250321
0 -0.0123366 1.15195e-10 0.0126078
-6.77626e-21 0.012338 2.92482e-05 0.00250321
0 -0.0123381 2.92633e-05 0.0126078
0 -0.0119749 0.00303994 0.0126113
0 0.011975 0.00303995 0.00250325
0 0.0123477 0.000568685 0.0025032
2.25875e-21 -0.0123477 0.000568684 0.0126078
0 -0.0120029 0.0029997 0.0126112
6.77626e-21 0.012003 0.00299971 0.00250324
0 -0.012014 0.00306072 0.0126108
6.77626e-21 0.0120141 0.00306073 0.00250323
6.77626e-21 -0.0120517 0.00308065 0.0126105
-6.77626e-21 0.0120518 0.00308066 0.00250322
6.77626e-21 -0.0120701 0.00304376 0.0126105
0 0.0120702 0.00304377 0.00250322
1.69407e-21 -0.0123957 0.00118429 0.0126078
0 0.0123957 0.00118429 0.00250318
0 -0.0124154 0.00184242 0.0126084
-1.12938e-21 0.0124154 0.00184242 0.00250318
-1.35525e-21 -0.0123818 0.00255904 0.012609
0 0.0123818 0.00255905 0.00250317
0 0.012651 0.000272684 0.00250318
0 -0.012651 0.00027269 0.012607
0 -0.0123509 0.00296128 0.0126083
0 0.0123509 0.00296129 0.00250315
2.71051e-20 0.0126986 0.000851202 0.00250314
-2.71051e-20 -0.0126986 0.000851197 0.0126067
5.42101e-20 -0.0127386 0.00148681 0.0126073
-2.71051e-20 0.0127386 0.00148681 0.00250313
0 -0.0124094 0.00326998 0.0126093
0 0.0124094 0.00326999 0.00250316
-6.77626e-21 -0.0124311 0.00323665 0.0126093
0 0.0124312 0.00323666 0.00250315
-6.77626e-21 -0.0124456 0.00328913 0.0126093
6.77626e-21 0.0124456 0.00328914 0.00250315
0 -0.0124806 0.00330747 0.0126096
0 0.0124806 0.00330748 0.00250315
0 -0.012495 0.00327721 0.0126095
0 0.012495 0.00327723 0.00250315
0 -0.0127373 0.00217209 0.0126084
-5.42101e-20 0.0127373 0.00217209 0.00250314
-1.69407e-21 -0.0129741 5.65819e-12 0.0126061
1.69407e-21 0.0129741 5.65714e-12 0.00250325
0 -0.0129746 9.31075e-06 0.0126061
1.69407e-21 0.0129746 9.29611e-06 0.00250325
0 -0.0126307 0.00298498 0.0126082
0 0.0126307 0.00298499 0.00250312
-1.69407e-21 -0.0129857 3.6289e-12 0.012606
0 0.0129857 3.6307e-12 0.00250325
1.69407e-21 0.0129965 7.57985e-06 0.00250325
-1.69407e-21 -0.0129965 7.59166e-06 0.012606
-1.69407e-21 0.0129967 3.57671e-12 0.00250325
-3.38813e-21 -0.0129967 3.57485e-12 0.012606
-8.47033e-22 0.0130091 0.000523313 0.00250318
2.82344e-22 -0.0130091 0.000523311 0.0126056
-1.05879e-22 0.0130269 0.00111835 0.00250309
-7.41154e-22 -0.0130272 0.00111832 0.0126057
0 -0.0127919 0.00274345 0.0126063
2.71051e-20 0.0127919 0.00274346 0.00250309
1.05879e-22 0.0130596 0.00107364 0.00250309
7.41154e-22 -0.0130596 0.001074 0.0126056
-2.11758e-22 0.0130622 0.00111376 0.00250308
0 -0.0130642 0.00111354 0.0126056
0 -0.0127558 0.00321819 0.0126099
0 0.0127558 0.0032182 0.00250314
-1.69407e-21 -0.0131793 2.72144e-12 0.0126058
0 0.0131795 2.72155e-12 0.00250304
-5.99982e-22 0.0130717 0.00181695 0.00250307
0 -0.0130717 0.00181692 0.0126071
6.77626e-21 -0.012831 0.00349155 0.0126107
6.77626e-21 0.0128311 0.00349157 0.00250312
0 -0.0128493 0.00346319 0.0126106
6.77626e-21 0.0128494 0.00346321 0.00250312
5.42101e-20 0.0133093 0.000237076 0.00250332
0 -0.0133094 0.00023707 0.0126055
-7.05861e-22 -0.0130828 0.00247294 0.0126068
-4.23516e-22 0.0130828 0.00247294 0.00250305
-6.77626e-21 -0.0128661 0.00350997 0.0126103
0 0.0128662 0.00350999 0.00250311
0 -0.0129007 0.00352804 0.0126109
-6.77626e-21 0.0129008 0.00352806 0.00250311
-2.71051e-20 0.0133556 0.00075963 0.00250305
0 -0.0133557 0.000759628 0.0126033
0 -0.0129237 0.00348634 0.0126108
6.77626e-21 0.0129237 0.00348637 0.00250311
0 -0.0130384 0.00304619 0.0126082
1.69407e-21 0.0130384 0.0030462 0.00250307
-2.71051e-20 0.013427 0.001376 0.00250302
0 -0.013427 0.00137599 0.0126058
2.71051e-20 -0.0134136 0.00210978 0.0126073
2.71051e-20 0.0134136 0.00210979 0.00250301
2.71051e-20 -0.0132269 0.00336666 0.0126108
0 0.0132269 0.00336668 0.00250307
0 0.013648 0.000454486 0.00250262
0 -0.013648 0.000454497 0.0126017
-2.71051e-20 -0.0133902 0.00280379 0.0126055
0 0.0133902 0.0028038 0.00250297
3.38813e-21 0.0137151 2.8075e-13 0.0025025
3.38813e-21 -0.0137152 2.80907e-13 0.0126049
0 0.0137159 2.06276e-05 0.00250249
0 -0.013716 2.06975e-05 0.012605
0 0.0137165 0.000169655 0.00250247
6.77626e-21 -0.0137166 0.000170015 0.0126034
-3.38813e-21 0.0137459 2.40788e-14 0.00250243
-3.38813e-21 -0.0137461 2.3368e-14 0.0126049
0 -0.013245 0.00370834 0.0126088
0 0.0132451 0.00370836 0.00250302
0 0.0137656 1.52129e-05 0.00250241
3.38813e-21 -0.0137659 1.52648e-05 0.0126052
0 0.0137671 1.75123e-14 0.00250241
0 -0.0137675 1.67966e-14 0.0126052
6.77626e-21 -0.0132718 0.0036714 0.0126087
0 0.0132719 0.00367142 0.00250301
0 -0.0132782 0.00372571 0.0126079
0 0.0132783 0.00372573 0.002503
-1.12938e-21 0.0137896 0.000885059 0.00250261
0 -0.0137896 0.000885057 0.0126021
-6.77626e-21 0.0138204 1.18218e-14 0.00250228
0 -0.0138208 1.11447e-14 0.0126046
0 -0.0133096 0.00374322 0.0126081
6.77626e-21 0.0133097 0.00374323 0.00250299
6.77626e-21 -0.0133282 0.00371043 0.0126081
-6.77626e-21 0.0133283 0.00371044 0.00250299
-2.82344e-22 0.0137515 0.00171046 0.00250293
8.47033e-22 -0.0137515 0.00171046 0.0126065
0 0.0136783 0.0024632 0.00250294
0 -0.0136788 0.00246319 0.0126061
-3.59989e-21 0.013721 0.00246185 0.00250294
-9.74088e-21 -0.013721 0.00246186 0.012606
8.47033e-22 -0.0137186 0.00248611 0.012606
1.05879e-22 0.0137186 0.00248639 0.00250294
-2.25875e-22 -0.0136619 0.00322322 0.012605
-4.51751e-22 0.0136619 0.00322323 0.00250292
0 -0.013613 0.00362484 0.0126051
2.71051e-20 0.013613 0.00362486 0.0025029
-8.47033e-22 0.0141333 0.000318961 0.00250024
2.82344e-22 -0.0141334 0.000318978 0.012597
2.71051e-20 0.014088 0.00127938 0.00250284
-2.71051e-20 -0.014088 0.00127938 0.012607
0 0.014059 0.00206597 0.00250288
0 -0.014059 0.00206597 0.0126061
0 -0.0136636 0.00393548 0.0126046
-3.38813e-21 0.0136637 0.00393551 0.00250294
3.38813e-21 -0.0136786 0.00391516 0.0126046
-3.38813e-21 0.0136787 0.00391521 0.00250294
3.38813e-20 0.0142351 2.9685e-15 0.00250035
0 -0.0142352 2.82035e-15 0.0125972
-3.38813e-21 -0.0136842 0.00394696 0.0126043
0 0.0136843 0.00394697 0.00250294
3.38813e-21 -0.0137015 0.00395978 0.0126045
0 0.0137016 0.00395978 0.00250294
3.38813e-21 -0.0137143 0.00394396 0.0126044
0 0.0137143 0.00394398 0.00250294
2.71051e-20 -0.0140215 0.00281646 0.0126055
-2.71051e-20 0.0140215 0.00281646 0.00250289
-1.50584e-21 -0.013895 0.00367137 0.012602
-7.52918e-22 0.013895 0.00367138 0.00250288
4.8626e-22 -0.0144216 0.000792956 0.0125975
-1.56858e-22 0.0144216 0.000792939 0.00250196
0 -0.014453 3.04526e-16 0.0126063
2.71051e-20 0.0144531 3.07448e-16 0.00250132
0 0.0143962 0.00165212 0.00250276
-2.82344e-22 -0.0143962 0.00165211 0.0126037
-2.71051e-20 -0.0140801 0.00343826 0.012598
2.71051e-20 0.0140801 0.00343826 0.00250279
-2.71051e-20 -0.0140066 0.00392192 0.0126029
2.71051e-20 0.0140066 0.00392193 0.00250295
2.03288e-20 0.0143632 0.00242485 0.00250284
2.58345e-20 -0.0143665 0.00242469 0.0126046
-2.11758e-22 -0.0143623 0.00267349 0.0126028
-2.11758e-22 0.0143623 0.00267458 0.00250282
0 -0.0140362 0.00420868 0.0125974
0 0.0140362 0.00420869 0.00250282
0 -0.014043 0.00420183 0.0125974
-1.69407e-21 0.014043 0.00420185 0.00250282
-1.69407e-21 -0.0140443 0.00421476 0.0125971
1.69407e-21 0.0140444 0.00421477 0.00250281
0 0.0140522 0.00422058 0.00250281
0 -0.0140522 0.00422057 0.0125969
-1.69407e-21 0.0140564 0.00421301 0.00250281
0 -0.0140564 0.004213 0.0125969
-2.71051e-20 -0.0146839 -1.74587e-17 0.012601
-2.71051e-20 0.014684 -1.48501e-17 0.00250024
0 -0.0143543 0.0031309 0.0125995
-4.23516e-22 0.0143543 0.00313091 0.00250278
0 -0.0143605 0.00313713 0.0125994
0 0.0143548 0.00313704 0.00250278
0 -0.0147037 0.000271518 0.0126039
0 0.0147037 0.000271561 0.00250045
0 0.014356 0.00330018 0.00250279
-4.23516e-22 -0.014356 0.00330043 0.0125992
0 0.0147328 0.00124141 0.00250248
0 -0.0147328 0.00124141 0.0125917
-6.35275e-22 -0.0146156 0.00238839 0.0126034
0 0.0146171 0.00238816 0.0025028
0 0.0146909 0.00203584 0.00250283
0 -0.0146909 0.00203584 0.01261
2.42009e-22 0.0143356 0.00382207 0.00250281
4.43684e-22 -0.0143356 0.00382206 0.0125987
0 -0.0143244 0.00417019 0.0125905
0 0.0143244 0.0041702 0.00250265
8.47033e-22 -0.014279 0.00438886 0.0125939
-8.47033e-22 0.014279 0.00438882 0.0025027
-2.71051e-20 0.0146905 0.00275577 0.00250275
0 -0.0146905 0.00275577 0.0125977
2.82344e-22 0.0149562 0.00165197 0.00250264
1.41172e-22 -0.0149585 0.00165056 0.0125997
2.71051e-20 -0.0146586 0.00346816 0.0125966
0 0.0146586 0.00346816 0.00250271
8.47033e-22 -0.0144053 0.00448257 0.0125922
0 0.0144084 0.00447896 0.00250263
-6.77626e-21 -0.0151189 -5.5903e-17 0.0126004
-3.38813e-21 0.0151192 -5.49994e-17 0.00250212
0 -0.0144514 0.00451673 0.0125928
-4.23516e-21 0.0144515 0.00451673 0.00250263
0 -0.0151608 3.48457e-05 0.0126015
0 0.0151609 3.46302e-05 0.00250225
3.38813e-21 -0.0151663 -1.81511e-17 0.0126011
-3.38813e-21 0.0151663 -1.7962e-17 0.00250225
-3.38813e-21 -0.0145673 0.00422607 0.0125965
2.63521e-21 0.0145673 0.00422607 0.00250272
0 0.0151841 -1.09408e-17 0.00250222
-3.38813e-21 -0.0151841 -1.0993e-17 0.0125996
0 -0.0151655 0.000867912 0.0125944
0 0.0151655 0.000867909 0.00250238
3.38813e-21 0.0152147 -1.10521e-17 0.00250223
0 0.0152148 2.27204e-05 0.00250223
3.38813e-21 -0.015215 -1.11033e-17 0.0125985
0 -0.015215 2.28647e-05 0.0125985
2.71051e-20 -0.0147125 0.00402551 0.0126068
2.71051e-20 0.0147125 0.00402552 0.00250294
-4.23516e-22 -0.0150841 0.00231349 0.0126012
0 0.0150841 0.0023135 0.00250273
0 -0.0150901 0.00232073 0.0126011
0 0.015084 0.00232059 0.00250273
-1.41172e-22 -0.0149792 0.0031214 0.0125965
-1.41172e-22 0.0149792 0.0031214 0.0025027
2.71051e-20 -0.0146794 0.00445852 0.0125929
5.42101e-20 0.0146795 0.00445852 0.00250258
0 0.0149711 0.00367516 0.00250272
2.11758e-22 -0.0149711 0.00367537 0.0125981
0 0.0149706 0.00377567 0.00250273
0 -0.0149706 0.00377568 0.0125984
6.77626e-21 -0.0147268 0.00472094 0.0125957
0 0.0147268 0.00472094 0.00250259
0 -0.0147397 0.0047038 0.0125957
6.77626e-21 0.0147397 0.0047038 0.00250259
6.77626e-21 -0.0147494 0.00473773 0.0125956
6.77626e-21 0.0147494 0.00473773 0.00250259
8.47033e-22 -0.0150248 0.0037779 0.0125984
-8.47033e-22 0.0150249 0.0037779 0.00250272
-6.77626e-21 -0.0147753 0.00475693 0.0125952
-6.77626e-21 0.0147753 0.00475692 0.00250256
0 0.0147957 0.00471952 0.00250256
6.77626e-21 -0.0147957 0.00471952 0.0125951
1.69407e-21 0.0149238 0.00432823 0.00250266
0 -0.0149238 0.00432823 0.0125979
2.11758e-22 0.0149301 0.00431631 0.00250266
-1.37643e-20 -0.0149308 0.00431431 0.012598
2.71051e-20 0.0153071 0.00276682 0.0025027
0 -0.0153071 0.00276682 0.0125983
2.75286e-21 -0.0149537 0.00432327 0.012598
-6.35275e-22 0.0149537 0.00432327 0.00250266
2.71051e-20 -0.0152762 0.00345526 0.0125935
-2.71051e-20 0.0152762 0.00345526 0.00250262
0 0.015665 0.00170495 0.00250257
0 -0.015665 0.00170495 0.0125951
-2.71051e-20 0.0150898 0.00463314 0.00250253
-5.42101e-20 -0.0150898 0.00463315 0.0125966
0 -0.0152566 0.00410558 0.0125967
2.71051e-20 0.0152566 0.00410558 0.00250261
-2.11758e-22 0.0156482 0.00239974 0.00250264
7.05861e-23 -0.0156482 0.00239974 0.0125986
-6.77626e-21 0.0150378 0.00495165 0.00250248
6.77626e-21 -0.0150378 0.00495167 0.0125969
0 0.0158311 0.00050574 0.00250259
1.0842e-19 -0.0158311 0.000505741 0.0125921
-1.35525e-20 0.0150929 0.00489487 0.00250247
1.35525e-20 -0.0150929 0.0048949 0.0125969
0 0.0150892 0.00498978 0.00250251
0 -0.0150892 0.0049898 0.0125986
8.47033e-22 -0.015606 0.0031034 0.0125977
-2.82344e-22 0.015606 0.0031034 0.00250264
-6.77626e-21 0.0151439 0.00503033 0.00250243
6.77626e-21 -0.0151439 0.00503034 0.012598
-1.35525e-20 -0.0151784 0.00496291 0.0125978
-1.35525e-20 0.0151784 0.0049629 0.00250243
2.25875e-22 0.0155884 0.00378776 0.00250262
7.90564e-22 -0.0155884 0.00378777 0.012599
-2.03288e-21 0.0155033 0.00450865 0.00250253
-6.77626e-22 -0.0155033 0.00450866 0.0125993
2.71051e-20 0.0154178 0.0049056 0.00250234
-2.71051e-20 -0.0154178 0.0049056 0.0125978
5.42101e-20 -0.0159469 0.00273841 0.0126002
0 0.0159469 0.00273841 0.00250261
6.77626e-21 0.0153971 0.00521817 0.00250248
6.77626e-21 -0.0153971 0.00521817 0.0126004
0 -0.015903 0.0034351 0.0125984
-2.71051e-20 0.015903 0.0034351 0.0025026
0 0.0154387 0.00517349 0.00250248
-6.77626e-21 -0.0154387 0.00517349 0.0126004
0 -0.0154377 0.00524826 0.0126016
-6.77626e-21 0.0154377 0.00524826 0.00250256
1.27055e-21 0.0163339 -1.19726e-18 0.00250242
4.23516e-22 -0.0163364 -1.1809e-18 0.0125934
-6.77626e-21 0.0154764 0.00527696 0.00250259
0 -0.0154764 0.00527696 0.0126031
0 0.0155053 0.00524155 0.00250258
0 -0.0155053 0.00524155 0.0126029
5.29396e-21 0.0163537 0.00112142 0.00250244
-2.11758e-22 -0.0163543 0.00112154 0.0125923
0 0.0158756 0.0041209 0.00250267
-2.71051e-20 -0.0158756 0.00412091 0.0126078
3.74812e-20 0.0163741 0.00112742 0.00250244
-3.02814e-20 -0.0163767 0.0011276 0.0125923
0 -0.0156933 0.00495313 0.0126001
0 0.0156933 0.00495313 0.00250252
0 0.0164702 3.16747e-06 0.00250244
-4.23516e-22 -0.0164638 2.59234e-06 0.0125927
-2.25875e-21 0.0163214 0.00227442 0.00250264
1.12938e-21 -0.0163214 0.00227441 0.0126086
2.25875e-22 -0.0162376 0.00307739 0.0126058
3.38813e-22 0.0162376 0.0030774 0.00250268
0 0.0159046 0.00473208 0.0025025
-2.71051e-20 -0.0159046 0.00473208 0.0125975
2.71051e-20 0.0157801 0.0052058 0.00250269
-2.71051e-20 -0.0157801 0.00520581 0.0126045
5.64689e-22 0.0162469 0.00372972 0.00250255
2.82344e-21 -0.0162469 0.00372972 0.0125969
0 -0.0157746 0.00549809 0.012598
0 0.0157746 0.00549809 0.00250254
0 -0.0158015 0.00547415 0.0125978
6.77626e-21 0.0158015 0.00547415 0.00250253
0 0.015805 0.00552064 0.0025025
0 -0.015805 0.00552065 0.0125965
6.77626e-21 0.0158347 0.00554269 0.00250247
6.77626e-21 -0.0158347 0.00554271 0.0125953
0 0.015853 0.00551418 0.00250247
6.77626e-21 -0.015853 0.00551419 0.0125953
1.12938e-22 -0.0161981 0.00441892 0.0126
-1.24231e-21 0.0161981 0.00441892 0.00250251
0 0.0166697 0.00284041 0.00250305
0 -0.0166697 0.00284041 0.0126425
2.25875e-22 -0.0161695 0.00510699 0.0125942
0 0.0161695 0.00510699 0.00250244
5.42101e-20 0.0166597 0.00328606 0.00250265
-2.71051e-20 -0.0166597 0.00328606 0.0125889
0 0.0165248 0.00409519 0.00250242
-5.42101e-20 -0.0165248 0.00409519 0.0125963
0 0.0161207 0.00547662 0.00250228
0 -0.0161207 0.00547663 0.0125877
5.42101e-20 -0.0170334 0.00057692 0.0125934
0 0.0170334 0.000576921 0.00250231
-2.11758e-22 -0.0168873 0.00239015 0.0126069
0 0.0168875 0.00239019 0.00250239
0 0.0169716 0.00176735 0.00250228
0 -0.0169716 0.00176735 0.0125885
0 -0.0169175 0.00239894 0.0126069
-2.11758e-22 0.0169179 0.00239497 0.00250238
0 0.0169439 0.00239537 0.00250237
-2.11758e-22 -0.016944 0.00239536 0.0126063
0 0.0168719 0.00305894 0.00250231
0 -0.0168719 0.00305894 0.0125915
0 -0.0161674 0.00578952 0.0125859
0 0.0161674 0.00578953 0.0025023
2.71051e-20 0.0165034 0.00475626 0.00250245
2.71051e-20 -0.0165034 0.00475626 0.0125991
0 -0.0161836 0.0057701 0.0125858
0 0.0161836 0.00577012 0.0025023
6.77626e-21 -0.0161897 0.00580604 0.0125858
0 0.0161897 0.00580604 0.00250231
0 0.0162121 0.00582274 0.00250232
0 -0.0162122 0.00582275 0.012585
0 0.0162243 0.00580495 0.00250232
-6.77626e-21 -0.0162243 0.00580495 0.012585
-1.12938e-22 -0.0168523 0.00374134 0.0125797
0 0.0168523 0.00374134 0.00250221
-4.23516e-22 0.0163973 0.00553969 0.00250228
0 -0.0163973 0.00553969 0.0125843
0 -0.0170978 0.00283719 0.0125878
2.71051e-20 0.0170978 0.00283718 0.00250199
2.71051e-20 -0.0170665 0.00327483 0.0125504
2.71051e-20 0.0170665 0.00327483 0.00250171
2.71051e-20 0.0165625 0.00532761 0.00250229
0 -0.0165626 0.0053276 0.0125839
-2.82344e-22 0.0168336 0.0044175 0.00250233
2.82344e-22 -0.0168336 0.00441751 0.0125916
0 0.0164976 0.00578806 0.0025023
0 -0.0164976 0.00578806 0.0125823
-3.38813e-22 0.0168265 0.00507001 0.00250229
-2.25875e-22 -0.0168265 0.00507001 0.0125874
0 0.0176289 1.51894e-05 0.00250222
-3.38813e-21 -0.0176289 1.51557e-05 0.0125931
0 0.0176298 -6.86503e-23 0.00250222
0 -0.0176298 -6.83393e-23 0.0125931
8.47033e-22 -0.0176062 0.00116021 0.012592
-2.82344e-22 0.0176062 0.00116021 0.00250223
0 -0.0176451 -1.78387e-23 0.012593
0 0.0176451 -1.76965e-23 0.00250222
0 0.0171749 0.00405965 0.00250217
2.71051e-20 -0.0171749 0.00405966 0.0125807
0 -0.0176602 1.5443e-05 0.012593
3.38813e-21 0.0176603 1.54771e-05 0.00250221
0 -0.0176607 -2.00316e-23 0.012593
0 0.0176607 -1.99007e-23 0.00250221
6.77626e-21 0.0165809 0.00609703 0.00250226
0 -0.0165809 0.00609703 0.0125799
0 0.0165981 0.00608064 0.00250226
6.77626e-21 -0.0165981 0.00608064 0.0125798
0 -0.016605 0.00611494 0.0125796
0 0.016605 0.00611495 0.00250223
0 -0.0166198 0.0061272 0.0125769
0 0.0166198 0.00612721 0.00250219
0 -0.0166291 0.00611137 0.012577
0 0.0166291 0.00611138 0.00250219
0 0.0175901 0.00236116 0.00250213
0 -0.0175901 0.00236116 0.0125905
0 -0.0166534 0.00615457 0.012578
0 0.0166534 0.00615459 0.00250222
-7.52918e-22 -0.0168284 0.00572854 0.012581
-7.52918e-22 0.0168284 0.00572853 0.00250224
7.05861e-23 0.0175166 0.00305113 0.00250187
3.5293e-22 -0.0175166 0.00305113 0.0125747
0 0.0171428 0.00473441 0.00250229
-2.71051e-20 -0.0171428 0.00473441 0.0125898
-1.12938e-21 0.017534 0.00360681 0.00250204
-2.25875e-21 -0.017534 0.00360681 0.0125764
2.71051e-20 0.0171172 0.00539736 0.00250212
-2.71051e-20 -0.0171172 0.00539736 0.0125775
-2.25875e-22 -0.01747 0.00438795 0.0125858
2.25875e-22 0.01747 0.00438795 0.00250221
6.77626e-21 -0.0168947 0.00636213 0.0125934
1.35525e-20 0.0168947 0.00636213 0.00250272
0 -0.0170243 0.00618637 0.012596
0 0.017024 0.00618835 0.00250275
8.47033e-22 0.0174372 0.00507024 0.00250217
2.82344e-22 -0.0174372 0.00507024 0.0125816
1.0842e-19 -0.0182236 0.000583086 0.0125927
0 0.0182236 0.000583086 0.00250213
0 0.0177925 0.00405319 0.0025022
-2.71051e-20 -0.0177925 0.00405319 0.0125864
-5.42101e-20 -0.018201 0.00177192 0.0125931
0 0.018201 0.00177192 0.00250218
-1.12938e-21 -0.0173656 0.00581376 0.0125749
1.58113e-21 0.0173656 0.00581376 0.00250207
0 0.0171242 0.00658581 0.00250205
0 -0.0171242 0.00658582 0.0125738
2.71051e-20 0.0177701 0.0047233 0.0025022
-5.42101e-20 -0.0177701 0.0047233 0.0125869
6.77626e-21 0.0171594 0.0066222 0.002502
-6.77626e-21 -0.0171594 0.0066222 0.0125726
0 0.0171745 0.00660974 0.002502
0 -0.0171745 0.00660974 0.0125727
-6.77626e-21 0.0171745 0.00663768 0.00250201
0 -0.0171745 0.00663768 0.0125742
-5.42101e-20 0.0181606 0.00305643 0.00250225
-5.42101e-20 -0.0181606 0.00305643 0.0125961
0 -0.01719 0.00665349 0.0125704
0 0.01719 0.00665349 0.00250193
6.77626e-21 -0.0172014 0.00663722 0.0125706
0 0.0172014 0.00663722 0.00250193
-3.38813e-21 -0.017284 0.00651867 0.0125737
-3.38813e-21 0.017284 0.00651867 0.00250203
6.77626e-21 -0.0172277 0.00669185 0.0125722
0 0.0172277 0.00669185 0.002502
1.41172e-22 -0.0181264 0.00381062 0.0125902
1.41172e-22 0.0181264 0.00381066 0.00250219
0 -0.0177303 0.00540333 0.0125719
0 0.0177303 0.00540333 0.00250206
-3.01167e-21 -0.0174485 0.00633775 0.012574
0 0.0174485 0.00633776 0.00250202
-2.82344e-22 0.0181015 0.00437909 0.00250221
0 -0.0181015 0.00437909 0.0125897
2.71051e-20 0.0177286 0.00604036 0.0025018
-2.71051e-20 -0.0177286 0.00604036 0.0125572
-5.64689e-22 0.018075 0.00504761 0.00250216
5.64689e-22 -0.018075 0.00504762 0.0125847
-6.77626e-21 -0.0174666 0.00693495 0.0125873
-6.77626e-21 0.0174666 0.00693496 0.00250257
0 0.0188065 1.6283e-05 0.00250205
0 -0.0188065 1.62599e-05 0.012592
0 0.0188069 2.06869e-24 0.00250205
0 -0.0188069 2.05913e-24 0.012592
0 -0.0188233 -2.46345e-25 0.0125919
3.38813e-21 0.0188233 -2.46725e-25 0.00250205
0 -0.0188396 1.62155e-05 0.0125919
0 0.0188396 1.62383e-05 0.00250205
0 -0.0188397 -2.41124e-25 0.0125919
0 0.0188397 -2.41491e-25 0.00250205
0 -0.0188091 0.00116454 0.012592
5.64689e-22 0.0188091 0.00116454 0.00250207
0 0.0184387 0.00403102 0.00250214
2.71051e-20 -0.0184387 0.00403102 0.0125904
1.41172e-22 -0.0176208 0.00677688 0.0125918
7.05861e-23 0.0176205 0.00677795 0.00250265
0 -0.0180488 0.00571123 0.0125698
-1.69407e-21 0.0180488 0.00571123 0.00250195
5.64689e-22 0.018794 0.00239227 0.00250209
0 -0.018794 0.00239227 0.0125924
5.42101e-20 0.0184023 0.0046998 0.00250229
0 -0.0184023 0.0046998 0.0125951
-3.38813e-21 -0.0179596 0.00643086 0.0125671
-1.50584e-21 0.0179596 0.00643086 0.00250186
0 0.0177052 0.00717767 0.0025019
0 -0.0177052 0.00717767 0.01257
0 -0.0177437 0.00721689 0.0125695
-6.77626e-21 0.0177437 0.0072169 0.00250187
0 0.0184015 0.00534889 0.00250206
2.71051e-20 -0.0184015 0.00534889 0.0125842
0 -0.0177602 0.00720499 0.0125696
0 0.0177602 0.00720499 0.00250187
0 -0.0177596 0.00723308 0.0125713
0 0.0177596 0.00723309 0.00250188
0 -0.0177751 0.00724885 0.0125671
0 0.0177751 0.00724886 0.00250178
7.05861e-23 -0.0188307 0.00372998 0.0125925
7.05861e-23 0.0188307 0.00373003 0.00250207
-6.77626e-21 -0.017788 0.00723288 0.0125674
-6.77626e-21 0.017788 0.00723289 0.00250178
0 -0.018738 0.00435322 0.012593
-4.23516e-22 0.018738 0.00435322 0.00250214
4.23516e-22 -0.0187376 0.00436113 0.0125932
2.6258e-20 0.0187376 0.00436113 0.00250214
6.77626e-21 -0.0178113 0.00728564 0.0125704
6.77626e-21 0.0178113 0.00728566 0.00250189
-6.77626e-21 -0.0178794 0.00711713 0.0125707
3.38813e-21 0.0178794 0.00711713 0.0025019
-2.71051e-20 -0.0183488 0.00603424 0.012566
-2.71051e-20 0.0183488 0.00603424 0.00250188
-3.01167e-21 -0.0180548 0.00694831 0.0125707
0 0.0180548 0.00694832 0.00250187
0 -0.0194128 0.000584032 0.0125913
0 0.0194128 0.000584032 0.00250197
0 0.018803 0.00493677 0.00250206
0 -0.018803 0.00493677 0.0125882
-5.42101e-20 0.0194073 0.00177875 0.00250199
0 -0.0194073 0.00177875 0.0125908
0 -0.0183455 0.00666212 0.012552
-2.71051e-20 0.0183455 0.00666212 0.00250155
1.12938e-21 -0.0186965 0.00568331 0.0125777
0 0.0186965 0.00568331 0.00250193
2.71051e-20 -0.0180387 0.00751698 0.012592
-6.77626e-21 0.0180387 0.00751699 0.00250275
0 -0.0194176 0.0030161 0.0125898
-5.42101e-20 0.0194176 0.0030161 0.00250195
-5.64689e-22 -0.0182201 0.0073749 0.0125937
-1.8823e-22 0.0182201 0.0073749 0.00250276
-1.12938e-21 -0.0186655 0.00633955 0.0125628
5.64689e-22 0.0186655 0.00633956 0.00250172
-2.71051e-20 -0.0190338 0.00534623 0.0125813
0 0.0190338 0.00534623 0.00250193
-6.77626e-22 -0.0185755 0.00702539 0.0125638
-3.83988e-21 0.0185755 0.00702539 0.00250171
5.42101e-20 0.0193824 0.00433462 0.0025019
0 -0.0193824 0.00433462 0.0125948
3.38813e-21 0.0182812 0.00776357 0.00250151
3.38813e-21 -0.0182812 0.00776356 0.0125617
-3.38813e-21 -0.0182994 0.00778211 0.0125615
0 0.0182994 0.00778212 0.00250149
0 -0.0183082 0.00777648 0.0125615
-3.38813e-21 0.0183082 0.00777649 0.00250149
0 -0.018307 0.00778982 0.0125619
3.38813e-21 0.018307 0.00778983 0.00250149
-3.38813e-21 -0.0183179 0.00780093 0.0125614
0 0.0183179 0.00780095 0.00250147
-3.38813e-21 -0.0183258 0.0077918 0.0125613
0 0.0183258 0.00779181 0.00250147
-2.71051e-20 -0.0190082 0.00599365 0.0125782
0 0.0190082 0.00599365 0.00250185
-3.38813e-21 -0.0184198 0.00771698 0.0125618
1.69407e-21 0.0184198 0.00771698 0.00250151
3.38813e-21 0.019989 1.55635e-05 0.0025019
0 -0.019989 1.55498e-05 0.0125915
0 0.019989 -4.66467e-27 0.0025019
0 -0.0199891 -4.6553e-27 0.0125915
6.58803e-22 0.0193663 0.00500042 0.00250197
1.8823e-22 -0.0193663 0.00500042 0.0125887
3.38813e-21 -0.0200048 3.45034e-28 0.0125915
-3.38813e-21 0.0200048 3.45402e-28 0.0025019
0 -0.0200207 3.36263e-28 0.0125915
0 0.0200207 3.36626e-28 0.00250189
0 -0.0200208 1.5476e-05 0.0125915
3.38813e-21 0.0200208 1.54891e-05 0.00250189
1.41172e-21 0.0200101 0.0011652 0.00250191
5.64689e-22 -0.0200101 0.0011652 0.0125911
2.71051e-20 -0.0189752 0.00665313 0.012555
5.42101e-20 0.0189752 0.00665313 0.0025016
-1.69407e-21 -0.0184855 0.00797139 0.012558
1.69407e-21 0.0184856 0.00797146 0.00250142
-5.64689e-22 -0.0193439 0.00565423 0.0125849
0 0.0193439 0.00565423 0.00250198
6.77626e-22 -0.0186909 0.00754643 0.012562
-3.38813e-21 0.0186909 0.00754644 0.00250156
-2.82344e-22 0.020018 0.00238483 0.0025019
5.64689e-22 -0.020018 0.00238483 0.0125891
0 -0.0186426 0.00786969 0.0125447
-2.71051e-20 0.0186426 0.00786969 0.00250095
-1.69407e-21 -0.0193211 0.006303 0.0125738
1.12938e-21 0.0193211 0.006303 0.00250181
-5.42101e-20 -0.0189891 0.00726762 0.0125519
-2.71051e-20 0.0189891 0.00726763 0.00250135
-9.74088e-21 0.020019 0.0036605 0.00250182
-4.65868e-20 -0.020019 0.0036605 0.0125882
4.23516e-22 0.0200253 0.0036605 0.00250181
-7.19978e-21 -0.0200254 0.00366706 0.0125882
-3.38813e-21 -0.0186571 0.00814594 0.0125531
0 0.0186572 0.00814595 0.00250132