# U  POINT_DATA 14073
# x  y  z  U_x  U_y  U_z
-1.35525e-20 0.0101542 1.397e-07 0 0 0
1.35525e-20 -0.0101542 1.397e-07 0 0 0
-1.35525e-20 0.0101542 0.000269592 0 0 0
2.71051e-20 -0.0101542 0.000269592 0 0 0
2.71051e-20 0.0101542 0.000769234 0 0 0
1.35525e-20 -0.0101542 0.000769234 0 0 0
0 0.0101542 0.00104357 0 0 0
0 -0.0101542 0.00104357 0 0 0
1.35525e-20 0.0101542 0.00131779 0 0 0
1.35525e-20 -0.0101542 0.00131779 0 0 0
0 0.0102506 0.000298259 -3.74355e-05 7.38931e-06 -2.56191e-07
-1.35525e-20 -0.0102506 0.00029826 0.00118607 -0.00022988 -7.30755e-06
-1.35525e-20 0.0102543 0.000875898 -3.8864e-05 7.67128e-06 -2.65967e-07
0 -0.0102543 0.000875897 0.00123133 -0.000238652 -7.58639e-06
0 0.0101542 0.00181774 0 0 0
1.35525e-20 -0.0101542 0.00181774 0 0 0
-1.35525e-20 0.0103268 1.10555e-07 0 0 0
-1.35525e-20 -0.0103268 1.10554e-07 0 0 0
0 0.0102523 0.00124394 -6.44411e-05 1.22983e-05 -4.42734e-07
0 -0.0102523 0.00124394 0.00164641 -0.000305642 -2.09596e-05
2.71051e-20 0.0101542 0.002087 0 0 0
-2.71051e-20 -0.0101542 0.002087 0 0 0
-1.35525e-20 0.0103709 0.000111967 -3.48292e-06 5.94451e-07 -5.54709e-08
0 -0.0103709 0.000111968 0.000966361 -0.000175063 1.18603e-05
0 -0.0103677 0.000675216 0.00264794 -0.000504651 -9.94241e-06
-1.35525e-20 0.0103677 0.000675216 -8.31349e-05 1.60416e-05 -6.14639e-07
-1.35525e-20 0.0102487 0.0018202 -6.21027e-05 1.1852e-05 -4.26669e-07
0 -0.0102487 0.0018202 0.00158667 -0.000294551 -2.0199e-05
4.06576e-20 -0.0103636 0.00148271 0.00354703 -0.000656737 -3.72945e-05
0 0.0103636 0.00148271 -0.000138216 2.59822e-05 -8.10147e-07
-1.35525e-20 0.0102712 0.00214806 0 0 0
0 -0.0102712 0.00214806 0 0 0
-1.35525e-20 0.0103514 0.00204723 -7.73351e-05 1.46406e-05 -6.8985e-07
0 -0.0103515 0.00204723 0.00194061 -0.000344819 -2.15809e-05
0 -0.0106317 0.000607139 0.00445548 -0.000791879 -3.30413e-06
-7.52918e-21 0.0106317 0.00060714 -0.000128141 2.3145e-05 -1.13212e-07
-6.77626e-21 -0.0106102 0.00112187 0.00645122 -0.00113224 -2.3905e-05
5.64689e-21 0.0106102 0.00112187 -0.000235551 4.2737e-05 -7.70382e-08
2.71051e-20 -0.0106774 0.000276333 0.00230679 -0.000424191 1.73511e-05
0 0.0106774 0.000276333 -8.67361e-06 1.43439e-06 -1.62296e-07
9.03502e-21 -0.0106161 0.00164334 0.00613765 -0.00108434 -3.51513e-05
4.51751e-21 0.0106161 0.00164334 -0.000238694 4.39094e-05 -3.61627e-07
6.77626e-21 -0.0107648 4.28324e-08 0 0 0
0 0.0107648 4.28305e-08 0 0 0
0 -0.0105533 0.0022953 0 0 0
0 0.0105533 0.0022953 0 0 0
-2.71051e-20 -0.01063 0.00198748 0.0047209 -0.000852845 -3.84868e-05
-2.71051e-20 0.01063 0.00198748 -0.000186949 3.53924e-05 -7.35632e-07
0 -0.0108244 8.90628e-05 0.000769093 -0.000139327 9.43916e-06
0 0.0108244 8.90541e-05 -2.7717e-06 4.73063e-07 -4.41437e-08
-1.35525e-20 -0.0106418 0.00222461 0.00158958 -0.000282446 -1.76772e-05
0 0.0106418 0.00222461 -6.33446e-05 1.1992e-05 -5.6505e-07
-1.35525e-20 -0.0108971 2.09162e-08 0 0 0
0 0.0108971 2.09164e-08 0 0 0
-1.35525e-20 -0.0106478 0.00234462 0 0 0
0 0.0106478 0.00234461 0 0 0
0 -0.0108702 0.00088437 0.00897788 -0.0015454 -1.65378e-05
0 0.0108702 0.000884371 -0.000312013 5.55224e-05 6.25342e-07
2.71051e-20 -0.0108765 0.00145343 0.0104535 -0.00179837 -3.34704e-05
0 0.0108765 0.00145343 -0.00040291 7.27988e-05 4.59586e-07
0 0.0107254 0.0023851 0 0 0
-1.35525e-20 -0.0107254 0.0023851 0 0 0
1.35525e-20 0.0110033 1.81925e-08 0 0 0
0 -0.0110033 1.81919e-08 0 0 0
1.35525e-20 0.0107624 0.00231965 -6.97088e-05 1.34914e-05 1.3905e-07
0 -0.0107624 0.00231965 0.00168151 -0.000312763 1.17372e-06
0 0.0110153 7.96742e-05 -2.41149e-06 4.529e-07 -2.54037e-09
0 -0.0110153 7.96834e-05 0.00123507 -0.000234678 -3.02984e-06
-1.12938e-21 -0.0110632 0.000577057 0.00723772 -0.00128929 -1.18884e-05
-2.25875e-21 0.0110632 0.000577058 -0.000191129 3.44536e-05 3.46601e-07
-1.12938e-21 -0.0111416 0.00118798 0.0122623 -0.0021413 -2.33407e-05
-1.12938e-21 0.0111416 0.00118798 -0.000440277 8.02483e-05 1.049e-06
1.35525e-21 -0.0110829 0.0018675 0.00995194 -0.00175346 -1.38308e-05
9.03502e-22 0.0110829 0.0018675 -0.000385518 7.17024e-05 8.99016e-07
0 -0.0110229 0.00226207 0.00555092 -0.00102418 1.08674e-05
0 0.0110229 0.00226208 -0.000227986 4.41236e-05 1.14504e-06
2.71051e-20 0.0113157 0.000285027 -8.62633e-06 1.63604e-06 -7.80514e-08
-2.71051e-20 -0.0113157 0.000285023 0.00437835 -0.000842927 -1.19885e-05
0 -0.0110601 0.00255975 0 0 0
-6.77626e-21 0.0110601 0.00255975 0 0 0
6.77626e-21 -0.0110969 0.00251423 0.00128431 -0.000238883 8.96466e-07
6.77626e-21 0.0110969 0.00251423 -5.32409e-05 1.03043e-05 1.06201e-07
0 -0.011119 0.00259052 0 0 0
0 0.011119 0.00259052 0 0 0
2.71051e-20 -0.0114092 0.000887746 0.013476 -0.00237771 -3.64942e-05
0 0.0114092 0.000887747 -0.000442138 8.06319e-05 1.02051e-06
-6.77626e-21 0.0111709 0.00261751 0 0 0
6.77626e-21 -0.0111709 0.00261751 0 0 0
6.77626e-21 -0.0111905 0.00257812 0.00124791 -0.000203847 -1.41463e-05
1.35525e-20 0.0111905 0.00257812 -4.93168e-05 9.00344e-06 -2.8765e-08
0 -0.0114292 0.00153027 0.0165296 -0.00290995 -7.885e-06
0 0.0114292 0.00153027 -0.000618103 0.000114631 2.10491e-06
6.77626e-21 0.0115336 3.98168e-09 0 0 0
6.77626e-21 -0.0115337 3.98217e-09 0 0 0
0 -0.011316 0.00229781 0.00818565 -0.00141346 -2.33624e-05
0 0.011316 0.00229782 -0.00032389 6.02039e-05 7.46127e-07
6.77626e-21 0.0115492 5.75064e-05 -1.74083e-06 3.26943e-07 -1.83386e-09
0 -0.0115493 5.75224e-05 0.000891725 -0.000169439 -2.18756e-06
0 0.0116095 2.02397e-09 0 0 0
6.77626e-21 -0.0116096 2.02388e-09 0 0 0
-2.71051e-20 -0.0114857 0.00207363 0.013364 -0.00232616 -8.7212e-06
0 0.0114857 0.00207364 -0.000522735 9.72702e-05 1.22839e-06
0 0.0116746 1.84338e-09 0 0 0
6.77626e-21 -0.0116747 1.84324e-09 0 0 0
0 0.011679 5.25147e-05 -1.58765e-06 3.00224e-07 -4.12472e-08
0 -0.0116791 5.25298e-05 0.00105196 -0.000184482 -3.71046e-06
0 0.0116878 0.000581186 -0.000254105 4.69615e-05 1.05249e-06
1.12938e-21 -0.0116878 0.000581184 0.0102301 -0.00181176 -2.03879e-05
2.71051e-20 -0.0114474 0.00253473 0.00574455 -0.000910739 -7.33534e-05
0 0.0114475 0.00253474 -0.000225078 4.00876e-05 -2.24786e-07
1.12938e-21 -0.0117411 0.00120508 0.0175382 -0.00307436 -1.87009e-05
-1.69407e-21 0.0117411 0.00120508 -0.000614277 0.00011469 2.97747e-06
0 -0.0115287 0.00280389 0 0 0
6.77626e-21 0.0115287 0.00280391 0 0 0
0 -0.01155 0.00277247 0.00106961 -0.000174722 -1.21251e-05
0 0.01155 0.00277248 -4.22706e-05 7.71707e-06 -2.46552e-08
-2.25875e-21 -0.0117713 0.00182833 0.0180036 -0.00314116 -2.23342e-05
-5.64689e-22 0.0117713 0.00182833 -0.000684597 0.000128732 2.9298e-06
-6.77626e-21 -0.0115729 0.0028269 0 0 0
0 0.0115729 0.00282691 0 0 0
0 -0.0116142 0.00284883 0 0 0
6.77626e-21 0.0116142 0.00284884 0 0 0
-6.77626e-21 -0.0116388 0.00280394 0.00161356 -0.000301188 5.78852e-06
0 0.0116388 0.00280395 -6.35104e-05 1.29559e-05 4.94567e-07
5.64689e-22 -0.0117403 0.00237663 0.0117508 -0.00204223 -3.52453e-05
2.25875e-21 0.0117404 0.00237664 -0.00045971 8.7149e-05 1.68466e-06
5.42101e-20 0.0119843 0.000286092 -8.58852e-06 1.59822e-06 -3.53704e-07
-2.71051e-20 -0.0119843 0.000286091 0.0057048 -0.00100228 -1.37341e-05
-2.71051e-20 -0.0120413 0.000886344 0.0174824 -0.00304548 -1.88082e-05
0 0.0120413 0.000886345 -0.000561777 0.000105006 3.76871e-06
-5.42101e-20 -0.0120819 0.00151673 0.0227462 -0.00397835 -1.1886e-05
0 0.0120819 0.00151673 -0.000838969 0.000159183 5.00342e-06
-2.71051e-20 -0.0119435 0.00269977 0.0089894 -0.00167254 5.27959e-06
0 0.0119435 0.00269979 -0.000352725 7.15067e-05 2.34742e-06
-6.77626e-21 0.0122585 2.35686e-10 0 0 0
0 -0.0122585 2.35721e-10 0 0 0
0 0.0122629 3.33592e-05 -1.00856e-06 1.90718e-07 -2.62024e-08
6.77626e-21 -0.012263 3.33761e-05 0.000668411 -0.000117218 -2.3576e-06
2.71051e-20 -0.0120908 0.00215653 0.0199579 -0.00345123 -6.16205e-05
0 0.0120908 0.00215653 -0.000779448 0.000147824 3.61903e-06
0 0.0122996 1.21642e-10 0 0 0
0 -0.0122997 1.21624e-10 0 0 0
-6.77626e-21 0.0123364 1.15215e-10 0 0 0
0 -0.0123366 1.15195e-10 0 0 0
-6.77626e-21 0.012338 2.92482e-05 -9.53606e-07 1.26003e-07 -5.59211e-08
0 -0.0123381 2.92633e-05 0.00067947 -0.000117683 -4.22633e-06
0 -0.0119749 0.00303994 0 0 0
0 0.011975 0.00303995 0 0 0
0 0.0123477 0.000568685 -0.000304743 5.81421e-05 2.68439e-06
2.25875e-21 -0.0123477 0.000568684 0.0124662 -0.00216722 -1.66334e-05
0 -0.0120029 0.0029997 0.0015345 -0.000286432 5.50492e-06
6.77626e-21 0.012003 0.00299971 -6.04006e-05 1.23215e-05 4.7035e-07
0 -0.012014 0.00306072 0 0 0
6.77626e-21 0.0120141 0.00306073 0 0 0
6.77626e-21 -0.0120517 0.00308065 0 0 0
-6.77626e-21 0.0120518 0.00308066 0 0 0
6.77626e-21 -0.0120701 0.00304376 0.00139548 -0.000276518 1.12132e-05
0 0.0120702 0.00304377 -5.96355e-05 1.21263e-05 5.45148e-07
1.69407e-21 -0.0123957 0.00118429 0.0223092 -0.0039247 -1.30462e-05
0 0.0123957 0.00118429 -0.000773611 0.000149754 5.83279e-06
0 -0.0124154 0.00184242 0.0248586 -0.00436374 -6.30767e-06
-1.12938e-21 0.0124154 0.00184242 -0.000940597 0.000182542 5.4727e-06
-1.35525e-21 -0.0123818 0.00255904 0.0167769 -0.0029928 2.33241e-05
0 0.0123818 0.00255905 -0.000667042 0.000130558 4.55035e-06
0 0.012651 0.000272684 -8.79594e-06 1.14832e-06 -7.29158e-07
0 -0.012651 0.00027269 0.00636243 -0.00108812 -2.29597e-05
0 -0.0123509 0.00296128 0.00831176 -0.00161686 4.18698e-05
0 0.0123509 0.00296129 -0.00035256 7.15945e-05 3.04605e-06
2.71051e-20 0.0126986 0.000851202 -0.000645335 0.000126164 8.20548e-06
-2.71051e-20 -0.0126986 0.000851197 0.0204351 -0.00355456 -1.11588e-05
5.42101e-20 -0.0127386 0.00148681 0.0286149 -0.0051278 -1.01959e-05
-2.71051e-20 0.0127386 0.00148681 -0.00105035 0.000208937 6.27007e-06
0 -0.0124094 0.00326998 0 0 0
0 0.0124094 0.00326999 0 0 0
-6.77626e-21 -0.0124311 0.00323665 0.00134233 -0.000265986 1.07861e-05
0 0.0124312 0.00323666 -5.73637e-05 1.16643e-05 5.2438e-07
-6.77626e-21 -0.0124456 0.00328913 0 0 0
6.77626e-21 0.0124456 0.00328914 0 0 0
0 -0.0124806 0.00330747 0 0 0
0 0.0124806 0.00330748 0 0 0
0 -0.012495 0.00327721 0.00131688 -0.000238299 -9.80342e-07
0 0.012495 0.00327723 -5.35212e-05 1.03532e-05 3.35381e-07
0 -0.0127373 0.00217209 0.028353 -0.00494373 6.05999e-05
-5.42101e-20 0.0127373 0.00217209 -0.00110119 0.000215904 7.10422e-06
-1.69407e-21 -0.0129741 5.65819e-12 0 0 0
1.69407e-21 0.0129741 5.65714e-12 0 0 0
0 -0.0129746 9.31075e-06 0.000216189 -3.74435e-05 -1.3447e-06
1.69407e-21 0.0129746 9.29611e-06 -3.03091e-07 4.00482e-08 -1.77737e-08
0 -0.0126307 0.00298498 0.0121516 -0.00219737 1.50649e-05
0 0.0126307 0.00298499 -0.000497651 9.77115e-05 3.78779e-06
-1.69407e-21 -0.0129857 3.6289e-12 0 0 0
0 0.0129857 3.6307e-12 0 0 0
1.69407e-21 0.0129965 7.57985e-06 -1.64069e-07 2.6358e-08 1.20326e-09
-1.69407e-21 -0.0129965 7.59166e-06 0.000194872 -2.28196e-05 -1.61747e-06
-1.69407e-21 0.0129967 3.57671e-12 0 0 0
-3.38813e-21 -0.0129967 3.57485e-12 0 0 0
-8.47033e-22 0.0130091 0.000523313 -0.00031979 6.87427e-05 3.13176e-06
2.82344e-22 -0.0130091 0.000523311 0.0134657 -0.00226875 -1.9729e-05
-1.05879e-22 0.0130269 0.00111835 -0.000879594 0.000184245 4.5735e-06
-7.41154e-22 -0.0130272 0.00111832 0.025571 -0.00453029 -1.6634e-05
0 -0.0127919 0.00274345 0.0202984 -0.00361446 7.00557e-05
2.71051e-20 0.0127919 0.00274346 -0.000824482 0.000160298 6.91265e-06
1.05879e-22 0.0130596 0.00107364 -0.000846617 0.000178133 4.40819e-06
7.41154e-22 -0.0130596 0.001074 0.0249165 -0.00440792 -1.70202e-05
-2.11758e-22 0.0130622 0.00111376 -0.000885759 0.000186258 4.50077e-06
0 -0.0130642 0.00111354 0.0257588 -0.00456521 -1.68918e-05
0 -0.0127558 0.00321819 0.00815162 -0.00141805 -6.2116e-05
0 0.0127558 0.0032182 -0.000328336 6.36682e-05 1.4826e-06
-1.69407e-21 -0.0131793 2.72144e-12 0 0 0
0 0.0131795 2.72155e-12 0 0 0
-5.99982e-22 0.0130717 0.00181695 -0.00119565 0.000241722 3.78924e-06
0 -0.0130717 0.00181692 0.0313891 -0.0055367 5.16518e-06
6.77626e-21 -0.012831 0.00349155 0 0 0
6.77626e-21 0.0128311 0.00349157 0 0 0
0 -0.0128493 0.00346319 0.00132084 -0.000239015 -9.8329e-07
6.77626e-21 0.0128494 0.00346321 -5.36785e-05 1.03836e-05 3.36367e-07
5.42101e-20 0.0133093 0.000237076 -6.47828e-06 1.80023e-06 -1.06948e-06
0 -0.0133094 0.00023707 0.00621554 -0.000761798 -1.49478e-05
-7.05861e-22 -0.0130828 0.00247294 0.0285635 -0.00500208 2.884e-05
-4.23516e-22 0.0130828 0.00247294 -0.00113597 0.000225095 6.99265e-06
-6.77626e-21 -0.0128661 0.00350997 0 0 0
0 0.0128662 0.00350999 0 0 0
0 -0.0129007 0.00352804 0 0 0
-6.77626e-21 0.0129008 0.00352806 0 0 0
-2.71051e-20 0.0133556 0.00075963 -0.000631577 0.000149265 6.46236e-06
0 -0.0133557 0.000759628 0.0211377 -0.00373577 -3.31675e-05
0 -0.0129237 0.00348634 0.00208517 -0.000360198 2.22139e-05
6.77626e-21 0.0129237 0.00348637 -8.27411e-05 1.7744e-05 1.28778e-06
0 -0.0130384 0.00304619 0.0172855 -0.00303894 2.05001e-05
1.69407e-21 0.0130384 0.0030462 -0.000699432 0.000139619 6.16579e-06
-2.71051e-20 0.013427 0.001376 -0.00121776 0.000259529 -3.03028e-06
0 -0.013427 0.00137599 0.0328617 -0.00583774 -1.17281e-05
2.71051e-20 -0.0134136 0.00210978 0.0371798 -0.00650745 -1.83991e-05
2.71051e-20 0.0134136 0.00210979 -0.00145695 0.000294352 3.48174e-06
2.71051e-20 -0.0132269 0.00336666 0.0127863 -0.0022768 8.5403e-05
0 0.0132269 0.00336668 -0.000508932 0.000109115 6.62665e-06
0 0.013648 0.000454486 -0.000263343 6.70742e-05 -1.20383e-06
0 -0.013648 0.000454497 0.0135554 -0.00213883 4.75871e-05
-2.71051e-20 -0.0133902 0.00280379 0.0297166 -0.00516388 -1.77352e-06
0 0.0133902 0.0028038 -0.00120985 0.000240001 1.03391e-05
3.38813e-21 0.0137151 2.8075e-13 0 0 0
3.38813e-21 -0.0137152 2.80907e-13 0 0 0
0 0.0137159 2.06276e-05 -6.84473e-07 2.44175e-07 -1.9237e-07
0 -0.013716 2.06975e-05 0.000554364 -7.09372e-05 1.89604e-06
0 0.0137165 0.000169655 -8.18994e-05 2.20028e-05 2.35442e-07
6.77626e-21 -0.0137166 0.000170015 0.00482879 -0.000748879 2.55042e-05
-3.38813e-21 0.0137459 2.40788e-14 0 0 0
-3.38813e-21 -0.0137461 2.3368e-14 0 0 0
0 -0.013245 0.00370834 0 0 0
0 0.0132451 0.00370836 0 0 0
0 0.0137656 1.52129e-05 -3.18961e-07 7.36461e-08 -2.44947e-07
3.38813e-21 -0.0137659 1.52648e-05 0.000443177 -6.28412e-05 4.39062e-05
0 0.0137671 1.75123e-14 0 0 0
0 -0.0137675 1.67966e-14 0 0 0
6.77626e-21 -0.0132718 0.0036714 0.00197805 -0.000341695 2.10728e-05
0 0.0132719 0.00367142 -7.84836e-05 1.6831e-05 1.22152e-06
0 -0.0132782 0.00372571 0 0 0
0 0.0132783 0.00372573 0 0 0
-1.12938e-21 0.0137896 0.000885059 -0.000741615 0.000173384 -1.68281e-05
0 -0.0137896 0.000885057 0.0244116 -0.00419026 -2.09155e-05
-6.77626e-21 0.0138204 1.18218e-14 0 0 0
0 -0.0138208 1.11447e-14 0 0 0
0 -0.0133096 0.00374322 0 0 0
6.77626e-21 0.0133097 0.00374323 0 0 0
6.77626e-21 -0.0133282 0.00371043 0.00182013 -0.000321886 7.73224e-06
-6.77626e-21 0.0133283 0.00371044 -7.90849e-05 1.61586e-05 3.02265e-07
-2.82344e-22 0.0137515 0.00171046 -0.00145567 0.000304871 -1.75049e-05
8.47033e-22 -0.0137515 0.00171046 0.038265 -0.00674418 -2.11249e-05
0 0.0136783 0.0024632 -0.0015192 0.000302581 2.49424e-06
0 -0.0136788 0.00246319 0.037902 -0.00663555 1.33992e-05
-3.59989e-21 0.013721 0.00246185 -0.00154631 0.000308061 2.17778e-06
-9.74088e-21 -0.013721 0.00246186 0.0385545 -0.0067497 1.23623e-05
8.47033e-22 -0.0137186 0.00248611 0.0381119 -0.00667423 1.31985e-05
1.05879e-22 0.0137186 0.00248639 -0.00152959 0.000304735 2.3497e-06
-2.25875e-22 -0.0136619 0.00322322 0.0242948 -0.00431361 4.03679e-05
-4.51751e-22 0.0136619 0.00322323 -0.00101379 0.000202067 7.67721e-06
0 -0.013613 0.00362484 0.0118847 -0.00224349 4.96651e-05
2.71051e-20 0.013613 0.00362486 -0.000520239 0.000107522 2.90251e-06
-8.47033e-22 0.0141333 0.000318961 -1.49551e-05 4.13495e-06 2.15261e-05
2.82344e-22 -0.0141334 0.000318978 0.00966517 -0.00104057 7.8551e-06
2.71051e-20 0.014088 0.00127938 -0.00132197 0.000302237 -5.70328e-05
-2.71051e-20 -0.014088 0.00127938 0.0368916 -0.00658997 -1.63945e-05
0 0.014059 0.00206597 -0.00181417 0.000362853 -1.61238e-05
0 -0.014059 0.00206597 0.0459426 -0.00801442 -3.20717e-05
0 -0.0136636 0.00393548 0 0 0
-3.38813e-21 0.0136637 0.00393551 0 0 0
3.38813e-21 -0.0136786 0.00391516 0.0012069 -0.000213438 5.12713e-06
-3.38813e-21 0.0136787 0.00391521 -5.24077e-05 1.07079e-05 2.00304e-07
3.38813e-20 0.0142351 2.9685e-15 0 0 0
0 -0.0142352 2.82035e-15 0 0 0
-3.38813e-21 -0.0136842 0.00394696 0 0 0
0 0.0136843 0.00394697 0 0 0
3.38813e-21 -0.0137015 0.00395978 0 0 0
0 0.0137016 0.00395978 0 0 0
3.38813e-21 -0.0137143 0.00394396 0.00107373 -0.000207963 4.55951e-06
0 0.0137143 0.00394398 -4.65695e-05 9.87555e-06 6.11115e-07
2.71051e-20 -0.0140215 0.00281646 0.0418988 -0.00740077 9.76282e-05
-2.71051e-20 0.0140215 0.00281646 -0.00172305 0.000338889 9.63629e-06
-1.50584e-21 -0.013895 0.00367137 0.017267 -0.00321655 5.94249e-05
-7.52918e-22 0.013895 0.00367138 -0.000751089 0.000151079 7.08613e-06
4.8626e-22 -0.0144216 0.000792956 0.0248037 -0.00415564 0.000154542
-1.56858e-22 0.0144216 0.000792939 -0.000692023 0.000149548 -2.68596e-05
0 -0.014453 3.04526e-16 0 0 0
2.71051e-20 0.0144531 3.07448e-16 0 0 0
0 0.0143962 0.00165212 -0.00170291 0.000354701 -3.77911e-05
-2.82344e-22 -0.0143962 0.00165211 0.0442254 -0.0078885 9.02295e-06
-2.71051e-20 -0.0140801 0.00343826 0.0289591 -0.00512018 -2.08728e-05
2.71051e-20 0.0140801 0.00343826 -0.00125721 0.000243687 9.85485e-06
-2.71051e-20 -0.0140066 0.00392192 0.0112703 -0.00233501 0.000149221
2.71051e-20 0.0140066 0.00392193 -0.000488855 0.000104461 8.59095e-06
2.03288e-20 0.0143632 0.00242485 -0.00202334 0.000399607 -3.03066e-06
2.58345e-20 -0.0143665 0.00242469 0.0490835 -0.00872592 2.75372e-05
-2.11758e-22 -0.0143623 0.00267349 0.0465061 -0.00826512 3.14327e-05
-2.11758e-22 0.0143623 0.00267458 -0.00194285 0.000381924 2.15762e-06
0 -0.0140362 0.00420868 0 0 0
0 0.0140362 0.00420869 0 0 0
0 -0.014043 0.00420183 0.000508643 -9.85153e-05 2.15991e-06
-1.69407e-21 0.014043 0.00420185 -2.20657e-05 4.67925e-06 2.89559e-07
-1.69407e-21 -0.0140443 0.00421476 0 0 0
1.69407e-21 0.0140444 0.00421477 0 0 0
0 0.0140522 0.00422058 0 0 0
0 -0.0140522 0.00422057 0 0 0
-1.69407e-21 0.0140564 0.00421301 -2.1579e-05 4.57554e-06 5.75145e-07
0 -0.0140564 0.004213 0.000436351 -9.05671e-05 8.76567e-06
-2.71051e-20 -0.0146839 -1.74587e-17 0 0 0
-2.71051e-20 0.014684 -1.48501e-17 0 0 0
0 -0.0143543 0.0031309 0.0416964 -0.00740431 3.92969e-05
-4.23516e-22 0.0143543 0.00313091 -0.00179282 0.000349014 1.17664e-05
0 -0.0143605 0.00313713 0.0417015 -0.00740562 3.88653e-05
0 0.0143548 0.00313704 -0.00179405 0.000349209 1.18097e-05
0 -0.0147037 0.000271518 0.0102862 -0.00146879 0.000270063
0 0.0147037 0.000271561 -1.67563e-05 5.28111e-06 1.8671e-05
0 0.014356 0.00330018 -0.00161225 0.000313553 1.26018e-05
-4.23516e-22 -0.014356 0.00330043 0.0371896 -0.00662557 6.69161e-05
0 0.0147328 0.00124141 -0.00147083 0.000316054 -5.97627e-05
0 -0.0147328 0.00124141 0.0400155 -0.00721247 0.000135237
-6.35275e-22 -0.0146156 0.00238839 0.0520367 -0.00930036 2.96598e-05
0 0.0146171 0.00238816 -0.0021954 0.000433096 7.73048e-07
0 0.0146909 0.00203584 -0.00219276 0.000435046 -1.82453e-05
0 -0.0146909 0.00203584 0.0538134 -0.00968287 -3.32759e-05
2.42009e-22 0.0143356 0.00382207 -0.000983067 0.000190452 1.3996e-05
4.43684e-22 -0.0143356 0.00382206 0.0217883 -0.0039534 0.000142384
0 -0.0143244 0.00417019 0.0100225 -0.00185892 0.000327579
0 0.0143244 0.0041702 -0.00050081 9.65357e-05 1.53009e-05
8.47033e-22 -0.014279 0.00438886 0 0 0
-8.47033e-22 0.014279 0.00438882 0 0 0
-2.71051e-20 0.0146905 0.00275577 -0.00234804 0.000458685 1.22529e-05
0 -0.0146905 0.00275577 0.054382 -0.00975359 7.71921e-05
2.82344e-22 0.0149562 0.00165197 -0.00199244 0.000404934 -2.64432e-05
1.41172e-22 -0.0149585 0.00165056 0.0488486 -0.00880976 6.3752e-05
2.71051e-20 -0.0146586 0.00346816 0.0433313 -0.00766696 7.73632e-06
0 0.0146586 0.00346816 -0.00192178 0.000370193 1.55057e-05
8.47033e-22 -0.0144053 0.00448257 0.000168046 -2.62354e-05 7.0738e-06
0 0.0144084 0.00447896 -8.21294e-06 1.41738e-06 3.05026e-07
-6.77626e-21 -0.0151189 -5.5903e-17 0 0 0
-3.38813e-21 0.0151192 -5.49994e-17 0 0 0
0 -0.0144514 0.00451673 0 0 0
-4.23516e-21 0.0144515 0.00451673 0 0 0
0 -0.0151608 3.48457e-05 0.00132639 -0.000229627 2.25041e-05
0 0.0151609 3.46302e-05 -1.06453e-05 -2.41815e-07 -2.60903e-06
3.38813e-21 -0.0151663 -1.81511e-17 0 0 0
-3.38813e-21 0.0151663 -1.7962e-17 0 0 0
-3.38813e-21 -0.0145673 0.00422607 0.0158624 -0.0028259 0.000309228
2.63521e-21 0.0145673 0.00422607 -0.000756892 0.000141512 1.98085e-05
0 0.0151841 -1.09408e-17 0 0 0
-3.38813e-21 -0.0151841 -1.0993e-17 0 0 0
0 -0.0151655 0.000867912 0.0282815 -0.00498894 0.000264228
0 0.0151655 0.000867909 -0.000803414 0.00015869 -1.69185e-05
3.38813e-21 0.0152147 -1.10521e-17 0 0 0
0 0.0152148 2.27204e-05 -3.41368e-06 4.46045e-07 7.16554e-08
3.38813e-21 -0.015215 -1.11033e-17 0 0 0
0 -0.015215 2.28647e-05 0.000930296 -0.000182688 5.49871e-06
2.71051e-20 -0.0147125 0.00402551 0.0275002 -0.00488258 0.000262356
2.71051e-20 0.0147125 0.00402552 -0.00129007 0.000239432 2.67168e-05
-4.23516e-22 -0.0150841 0.00231349 0.0575545 -0.0103742 3.32339e-05
0 0.0150841 0.0023135 -0.00251311 0.000494929 7.60601e-06
0 -0.0150901 0.00232073 0.0576029 -0.0103832 3.38508e-05
0 0.015084 0.00232059 -0.00251724 0.000495761 7.96285e-06
-1.41172e-22 -0.0149792 0.0031214 0.05527 -0.0098616 4.2887e-05
-1.41172e-22 0.0149792 0.0031214 -0.00249536 0.000485304 2.2283e-05
2.71051e-20 -0.0146794 0.00445852 0.0103656 -0.0018006 0.00033435
5.42101e-20 0.0146795 0.00445852 -0.000493572 9.13932e-05 1.75429e-05
0 0.0149711 0.00367516 -0.00204692 0.000394274 2.5357e-05
2.11758e-22 -0.0149711 0.00367537 0.0441738 -0.00783005 7.43937e-05
0 0.0149706 0.00377567 -0.00196447 0.000377544 2.59196e-05
0 -0.0149706 0.00377568 0.0421385 -0.00745744 8.01434e-05
6.77626e-21 -0.0147268 0.00472094 0 0 0
0 0.0147268 0.00472094 0 0 0
0 -0.0147397 0.0047038 0.00124679 -0.000256308 2.95972e-05
6.77626e-21 0.0147397 0.0047038 -6.0076e-05 1.22057e-05 1.77597e-06
6.77626e-21 -0.0147494 0.00473773 0 0 0
6.77626e-21 0.0147494 0.00473773 0 0 0
8.47033e-22 -0.0150248 0.0037779 0.043599 -0.00771778 7.79225e-05
-8.47033e-22 0.0150249 0.0037779 -0.00204767 0.000394394 2.70318e-05
-6.77626e-21 -0.0147753 0.00475693 0 0 0
-6.77626e-21 0.0147753 0.00475692 0 0 0
0 0.0147957 0.00471952 -0.000124952 2.39083e-05 2.48994e-06
6.77626e-21 -0.0147957 0.00471952 0.00255932 -0.000395384 4.67449e-05
1.69407e-21 0.0149238 0.00432823 -0.00108518 0.000207669 2.0512e-05
0 -0.0149238 0.00432823 0.0227898 -0.00394294 0.000177191
2.11758e-22 0.0149301 0.00431631 -0.00112 0.000214314 2.11823e-05
-1.37643e-20 -0.0149308 0.00431431 0.0235223 -0.0040692 0.000182983
2.71051e-20 0.0153071 0.00276682 -0.00296917 0.000582804 2.67257e-05
0 -0.0153071 0.00276682 0.065129 -0.0117628 1.2896e-05
2.75286e-21 -0.0149537 0.00432327 0.0239814 -0.00414875 0.000177413
-6.35275e-22 0.0149537 0.00432327 -0.0011458 0.000219673 2.13389e-05
2.71051e-20 -0.0152762 0.00345526 0.0582255 -0.0102669 7.0357e-05
-2.71051e-20 0.0152762 0.00345526 -0.00274079 0.000529417 3.4327e-05
0 0.015665 0.00170495 -0.00256341 0.00050856 1.50491e-05
0 -0.015665 0.00170495 0.0560857 -0.0101777 0.000124472
-2.71051e-20 0.0150898 0.00463314 -0.00082924 0.000161191 1.50553e-05
-5.42101e-20 -0.0150898 0.00463315 0.0173966 -0.00268752 0.000173957
0 -0.0152566 0.00410558 0.0421187 -0.00746419 -3.90865e-05
2.71051e-20 0.0152566 0.00410558 -0.00202693 0.000395007 2.73843e-05
-2.11758e-22 0.0156482 0.00239974 -0.00319638 0.000625904 2.34638e-05
7.05861e-23 -0.0156482 0.00239974 0.0663205 -0.0119503 2.18051e-05
-6.77626e-21 0.0150378 0.00495165 0 0 0
6.77626e-21 -0.0150378 0.00495167 0 0 0
0 0.0158311 0.00050574 -4.00269e-05 3.934e-06 1.45213e-06
1.0842e-19 -0.0158311 0.000505741 0.0208001 -0.00396508 5.86619e-05
-1.35525e-20 0.0150929 0.00489487 -0.000232362 4.44602e-05 4.63032e-06
1.35525e-20 -0.0150929 0.0048949 0.00475833 -0.000735103 8.69087e-05
0 0.0150892 0.00498978 0 0 0
0 -0.0150892 0.0049898 0 0 0
8.47033e-22 -0.015606 0.0031034 0.0671479 -0.0119884 2.27001e-05
-2.82344e-22 0.015606 0.0031034 -0.00327859 0.000639587 3.30532e-05
-6.77626e-21 0.0151439 0.00503033 0 0 0
6.77626e-21 -0.0151439 0.00503034 0 0 0
-1.35525e-20 -0.0151784 0.00496291 0.00473655 -0.000726139 7.60616e-05
-1.35525e-20 0.0151784 0.0049629 -0.00024474 5.29057e-05 5.79934e-06
2.25875e-22 0.0155884 0.00378776 -0.00292606 0.000572615 3.88806e-05
7.90564e-22 -0.0155884 0.00378777 0.0588058 -0.0104351 6.21586e-05
-2.03288e-21 0.0155033 0.00450865 -0.00173027 0.00034071 2.53372e-05
-6.77626e-22 -0.0155033 0.00450866 0.0343631 -0.00593519 6.17362e-05
2.71051e-20 0.0154178 0.0049056 -0.000848716 0.000178394 1.50205e-05
-2.71051e-20 -0.0154178 0.0049056 0.0165613 -0.00260463 0.000156374
5.42101e-20 -0.0159469 0.00273841 0.0730869 -0.0131035 -3.71561e-05
0 0.0159469 0.00273841 -0.00373234 0.000724742 2.46912e-05
6.77626e-21 0.0153971 0.00521817 0 0 0
6.77626e-21 -0.0153971 0.00521817 0 0 0
0 -0.015903 0.0034351 0.0719395 -0.0127772 4.43459e-05
-2.71051e-20 0.015903 0.0034351 -0.00366375 0.000718991 4.6057e-05
0 0.0154387 0.00517349 -0.000198533 4.29171e-05 4.70442e-06
-6.77626e-21 -0.0154387 0.00517349 0.00384319 -0.000589182 6.17156e-05
0 -0.0154377 0.00524826 0 0 0
-6.77626e-21 0.0154377 0.00524826 0 0 0
1.27055e-21 0.0163339 -1.19726e-18 0 0 0
4.23516e-22 -0.0163364 -1.1809e-18 0 0 0
-6.77626e-21 0.0154764 0.00527696 0 0 0
0 -0.0154764 0.00527696 0 0 0
0 0.0155053 0.00524155 -0.000159415 3.11916e-05 1.49504e-06
0 -0.0155053 0.00524155 0.00314674 -0.000510112 -2.63756e-05
5.29396e-21 0.0163537 0.00112142 -0.00178299 0.000360165 1.43879e-05
-2.11758e-22 -0.0163543 0.00112154 0.0421776 -0.00761215 0.000104539
0 0.0158756 0.0041209 -0.00308568 0.000607461 4.46327e-05
-2.71051e-20 -0.0158756 0.00412091 0.0605671 -0.0107803 0.000149255
3.74812e-20 0.0163741 0.00112742 -0.00180137 0.000363938 1.49349e-05
-3.02814e-20 -0.0163767 0.0011276 0.0424364 -0.0076612 0.000101588
0 -0.0156933 0.00495313 0.0242646 -0.00415393 -1.1424e-05
0 0.0156933 0.00495313 -0.00125652 0.000251448 1.81215e-05
0 0.0164702 3.16747e-06 -1.55767e-06 3.2181e-07 1.7816e-08
-4.23516e-22 -0.0164638 2.59234e-06 8.06239e-05 -1.44037e-05 1.76082e-07
-2.25875e-21 0.0163214 0.00227442 -0.00377569 0.000749712 3.11074e-05
1.12938e-21 -0.0163214 0.00227441 0.0703692 -0.0126491 0.000118763
2.25875e-22 -0.0162376 0.00307739 0.0756625 -0.0135831 0.000134277
3.38813e-22 0.0162376 0.0030774 -0.00408986 0.000810447 4.32003e-05
0 0.0159046 0.00473208 -0.00215551 0.000419177 2.90611e-05
-2.71051e-20 -0.0159046 0.00473208 0.0409921 -0.00721425 -0.000124264
2.71051e-20 0.0157801 0.0052058 -0.000824772 0.000168539 1.14552e-05
-2.71051e-20 -0.0157801 0.00520581 0.0163452 -0.00284103 -6.68948e-05
5.64689e-22 0.0162469 0.00372972 -0.00394563 0.000785896 5.49759e-05
2.82344e-21 -0.0162469 0.00372972 0.0727117 -0.0130466 0.000171881
0 -0.0157746 0.00549809 0 0 0
0 0.0157746 0.00549809 0 0 0
0 -0.0158015 0.00547415 0.00242933 -0.000393813 -2.03623e-05
6.77626e-21 0.0158015 0.00547415 -0.000123058 2.4078e-05 1.15408e-06
0 0.015805 0.00552064 0 0 0
0 -0.015805 0.00552065 0 0 0
6.77626e-21 0.0158347 0.00554269 0 0 0
6.77626e-21 -0.0158347 0.00554271 0 0 0
0 0.015853 0.00551418 -0.000132515 2.81388e-05 2.29274e-06
6.77626e-21 -0.015853 0.00551419 0.0022525 -0.000444102 2.23623e-06
1.12938e-22 -0.0161981 0.00441892 0.0602832 -0.0107632 8.90212e-05
-1.24231e-21 0.0161981 0.00441892 -0.00326037 0.000644797 4.91674e-05
0 0.0166697 0.00284041 -0.00477812 0.000957198 4.64395e-05
0 -0.0166697 0.00284041 0.0811317 -0.0146121 0.000256902
2.25875e-22 -0.0161695 0.00510699 0.0336241 -0.00609601 5.41191e-05
0 0.0161695 0.00510699 -0.0018639 0.00037272 3.32928e-05
5.42101e-20 0.0166597 0.00328606 -0.00489688 0.000992066 6.39319e-05
-2.71051e-20 -0.0166597 0.00328606 0.0829252 -0.0150459 0.000375657
0 0.0165248 0.00409519 -0.00432218 0.000865144 6.53687e-05
-5.42101e-20 -0.0165248 0.00409519 0.0769696 -0.0138886 0.000157438
0 0.0161207 0.00547662 -0.000868724 0.000187046 2.21544e-05
0 -0.0161207 0.00547663 0.0147413 -0.00302232 0.000159468
5.42101e-20 -0.0170334 0.00057692 0.0280971 -0.00491965 6.02283e-05
0 0.0170334 0.000576921 -0.000954484 0.000202267 6.95558e-06
-2.11758e-22 -0.0168873 0.00239015 0.0768694 -0.0138821 0.00028595
0 0.0168875 0.00239019 -0.00456487 0.000928757 5.19949e-05
0 0.0169716 0.00176735 -0.00374266 0.0007599 3.69109e-05
0 -0.0169716 0.00176735 0.06614 -0.0118301 0.000167682
0 -0.0169175 0.00239894 0.0772223 -0.0139485 0.000294738
-2.11758e-22 0.0169179 0.00239497 -0.00460742 0.000938345 5.30944e-05
0 0.0169439 0.00239537 -0.00463559 0.000944022 5.31902e-05
-2.11758e-22 -0.016944 0.00239536 0.0773473 -0.0139677 0.000295582
0 0.0168719 0.00305894 -0.00512098 0.00104271 5.93413e-05
0 -0.0168719 0.00305894 0.0838003 -0.0151829 0.000341509
0 -0.0161674 0.00578952 0 0 0
0 0.0161674 0.00578953 0 0 0
2.71051e-20 0.0165034 0.00475626 -0.00342365 0.000676366 5.79878e-05
2.71051e-20 -0.0165034 0.00475626 0.0615146 -0.010975 0.000169024
0 -0.0161836 0.0057701 0.00168348 -0.000331914 1.67132e-06
0 0.0161836 0.00577012 -9.9001e-05 2.10223e-05 1.71289e-06
6.77626e-21 -0.0161897 0.00580604 0 0 0
0 0.0161897 0.00580604 0 0 0
0 0.0162121 0.00582274 0 0 0
0 -0.0162122 0.00582275 0 0 0
0 0.0162243 0.00580495 -9.52055e-05 2.14577e-05 3.49419e-06
-6.77626e-21 -0.0162243 0.00580495 0.00165738 -0.000368395 4.16078e-05
-1.12938e-22 -0.0168523 0.00374134 0.0837053 -0.0151179 0.000228421
0 0.0168523 0.00374134 -0.00508815 0.00102311 5.82916e-05
-4.23516e-22 0.0163973 0.00553969 -0.0013841 0.000286524 3.64299e-05
0 -0.0163973 0.00553969 0.023589 -0.00461265 0.000251083
0 -0.0170978 0.00283719 0.0845223 -0.0153806 0.000407477
2.71051e-20 0.0170978 0.00283718 -0.00534693 0.0011014 7.24846e-05
2.71051e-20 -0.0170665 0.00327483 0.0868651 -0.01571 0.000295077
2.71051e-20 0.0170665 0.00327483 -0.0055212 0.00112841 5.38942e-05
2.71051e-20 0.0165625 0.00532761 -0.00232967 0.000465689 4.92524e-05
0 -0.0165626 0.0053276 0.0397137 -0.00729599 0.000120176
-2.82344e-22 0.0168336 0.0044175 -0.00461239 0.00091579 6.07115e-05
2.82344e-22 -0.0168336 0.00441751 0.0769309 -0.0138342 0.000150557