# U  POINT_DATA 38356
# x  y  z  U_x  U_y  U_z
0.057587 -6.77626e-21 1.35324e-07 0 0 0
-0.057587 6.77626e-21 1.35324e-07 0 0 0
0.0575869 0 0.000409945 0 0 0
-0.0575869 -3.38813e-21 0.000409945 0 0 0
0.0575869 1.69407e-21 0.000633502 0 0 0
-0.0575869 0 0.000633503 0 0 0
0.0575868 0 0.00104356 0 0 0
-0.0575868 6.77626e-21 0.00104356 0 0 0
0.0575868 3.38813e-21 0.00145414 0 0 0
-0.0575868 0 0.00145414 0 0 0
0.0575868 -1.69407e-21 0.00167624 0 0 0
-0.0575868 -3.38813e-21 0.00167624 0 0 0
0.0575868 0 0.002087 0 0 0
-0.0575868 0 0.002087 0 0 0
0.0577687 6.77626e-21 0.000993828 -2.23785e-05 5.78588e-06 -2.09797e-07
-0.0577687 6.77626e-21 0.00099383 0.000391227 -7.9729e-05 -6.93243e-06
0.0577684 0 0.00110475 -3.79419e-05 7.98176e-06 1.39732e-07
-0.0577684 0 0.00110475 0.000536383 -9.68224e-05 2.16062e-06
0.0577859 0 0.000103253 -2.44679e-05 6.32607e-06 -2.29385e-07
-0.0577859 0 0.000103251 0.000427755 -8.7173e-05 -7.57969e-06
0.0577942 0 1.15393e-07 0 0 0
-0.0577942 0 1.15393e-07 0 0 0
0.0578027 -6.77626e-21 1.9009e-05 -5.66267e-07 5.3584e-08 -6.59676e-09
-0.0578027 0 1.90089e-05 0.000169767 -2.29855e-05 1.76033e-06
-0.0578191 0 1.14264e-07 0 0 0
0.0578191 6.77626e-21 1.14264e-07 0 0 0
0.0577854 0 0.00199428 -4.14973e-05 8.7297e-06 1.52826e-07
-0.0577854 0 0.00199429 0.000586647 -0.000105896 2.36309e-06
0.0577823 0 0.002105 0 0 0
-0.0577823 0 0.002105 0 0 0
-0.0578229 -6.77626e-21 0.00105089 0.000614957 -0.000117754 2.12285e-06
0.057823 -6.77626e-21 0.00105089 -4.04844e-05 7.67747e-06 3.30492e-07
0.0578007 6.77626e-21 0.00208013 -2.65176e-05 4.34605e-06 -3.55009e-07
-0.0578007 -6.77626e-21 0.00208013 0.000383607 -5.84019e-05 2.30938e-06
-0.0578427 0 5.77437e-05 0.000440709 -8.70121e-05 -6.7031e-06
0.0578427 0 5.77443e-05 -2.37843e-05 4.8344e-06 -5.41121e-07
-0.0578443 6.77626e-21 1.78361e-05 0.000192267 -2.89158e-05 2.50008e-06
0.0578443 0 1.78361e-05 -5.48456e-07 1.85796e-07 -5.78136e-08
-0.0578469 6.77626e-21 1.13152e-07 0 0 0
0.0578469 0 1.13152e-07 0 0 0
-0.0578171 0 0.00210819 0 0 0
0.0578171 0 0.00210819 0 0 0
-0.0578434 0 0.00204429 0.000625548 -0.000121057 1.3863e-05
0.0578434 0 0.00204429 -4.36888e-05 8.33908e-06 1.27302e-06
-0.0578462 0 0.00208444 0.000446634 -6.70772e-05 6.52141e-06
0.0578462 6.77626e-21 0.00208444 -3.12829e-05 4.9312e-06 4.15481e-07
-0.0578583 6.77626e-21 0.00211199 0 0 0
0.0578583 0 0.00211199 0 0 0
-0.0579123 3.38813e-21 0.000912365 0.000769224 -0.00016047 -1.89876e-05
0.0579123 0 0.000912358 -4.33359e-05 8.18319e-06 4.13938e-07
-0.0579215 0 5.62241e-05 0.00020179 -5.59619e-05 3.15138e-05
0.0579215 6.77626e-21 5.62242e-05 -1.20228e-06 7.1753e-08 9.96317e-07
-0.0579145 6.77626e-21 0.0011972 0.00107025 -0.000210501 4.89004e-05
0.0579145 3.38813e-21 0.00119721 -7.54658e-05 1.4615e-05 3.33448e-06
0.0579296 -6.77626e-21 1.06809e-07 0 0 0
-0.0579296 6.77626e-21 1.06809e-07 0 0 0
-0.057935 -3.38813e-21 0.000246015 0.000822506 -0.000171586 -2.03028e-05
0.0579351 0 0.000246023 -4.63375e-05 8.74999e-06 4.42609e-07
-0.0579259 -6.77626e-21 0.00205416 0.000681869 -0.000167204 3.96976e-05
0.0579259 6.77626e-21 0.00205416 -4.89682e-05 1.20599e-05 3.12443e-06
-0.0579372 -6.77626e-21 0.00186079 0.00114435 -0.000225075 5.22858e-05
0.0579372 -1.01644e-20 0.00186077 -8.069e-05 1.56267e-05 3.56531e-06
-0.057965 0 0.00212181 0 0 0
0.0579651 0 0.00212181 0 0 0
0.0580744 -3.38813e-21 1.10802e-07 0 0 0
-0.0580744 -3.38813e-21 1.10803e-07 0 0 0
0.0581721 -4.51751e-21 0.0006106 -7.91754e-05 1.49508e-05 7.56271e-07
-0.0581721 -2.25875e-21 0.0006106 0.00140541 -0.000293187 -3.46913e-05
0.0581735 2.25875e-21 0.00151344 -0.000137335 2.65968e-05 6.06819e-06
-0.0581735 4.51751e-21 0.00151345 0.00194775 -0.000383091 8.89936e-05
-0.0581926 -3.38813e-21 0.00214274 0 0 0
0.0581927 2.5411e-21 0.00214276 0 0 0
-0.058277 1.01644e-20 1.16392e-07 0 0 0
0.058277 1.35525e-20 1.16392e-07 0 0 0
-0.0583193 -1.35525e-20 0.000122998 0.000441859 -0.000122539 6.90055e-05
0.0583193 0 0.000122997 -2.63262e-06 1.57116e-07 2.18162e-06
0.0582823 -1.18585e-20 0.002151 0 0 0
-0.0582823 5.0822e-21 0.002151 0 0 0
-0.0583281 -1.35525e-20 0.00201521 0.00149066 -0.000365531 8.67844e-05
0.0583281 -1.35525e-20 0.0020152 -0.000107048 2.63638e-05 6.83022e-06
-0.0583808 2.71051e-20 0.000286504 0.00163833 -0.000334051 -2.44222e-05
0.0583808 0 0.000286506 -9.43415e-05 1.96431e-05 -3.19112e-06
-0.058383 0 0.00106968 0.00270558 -0.000502772 2.21275e-05
0.058383 0 0.00106967 -0.000179264 3.33404e-05 1.68089e-06
-0.0583862 0 0.00185761 0.00243657 -0.000484406 8.07198e-05
0.0583862 0 0.00185759 -0.000171348 3.39268e-05 7.73576e-06
0.0584351 -2.71051e-20 1.20751e-07 0 0 0
-0.0584351 0 1.20752e-07 0 0 0
-0.0584722 -2.71051e-20 0.00216847 0 0 0
0.0584722 -1.35525e-20 0.00216848 0 0 0
0.0585878 1.8823e-22 0.000684239 -0.000128619 2.09912e-05 1.73527e-07
-0.0585878 9.41148e-22 0.00068424 0.00217673 -0.00033444 4.62762e-05
-0.0586022 -3.38813e-21 0.000178774 0.000473643 -4.98359e-05 2.95544e-05
0.0586022 -3.38813e-21 0.000178774 -3.17715e-06 -2.09151e-06 1.58979e-06
0.0585913 -1.8823e-21 0.00147248 -0.00021979 3.54831e-05 3.46266e-06
-0.0585913 1.12938e-21 0.00147248 0.00311017 -0.000497796 4.33927e-05
0.0586254 -3.38813e-21 8.46296e-05 -1.50316e-06 -9.89529e-07 7.52157e-07
-0.0586254 0 8.46309e-05 0.000224091 -2.35785e-05 1.39828e-05
0.0586312 1.01644e-20 9.46986e-08 0 0 0
-0.0586312 1.69407e-20 9.46999e-08 0 0 0
-0.058614 -3.38813e-21 0.00198107 0.00211706 -0.000424945 8.04336e-05
0.058614 -3.38813e-21 0.00198105 -0.000149834 3.00061e-05 6.68236e-06
-0.0586388 3.38813e-21 0.00205711 0.00133814 -0.000268597 5.084e-05
0.0586389 -3.38813e-21 0.00205707 -9.47267e-05 1.89702e-05 4.22467e-06
-0.0586526 -2.03288e-20 0.00218507 0 0 0
0.0586526 2.71051e-20 0.00218507 0 0 0
-0.0587868 0 7.40296e-08 0 0 0
0.0587868 1.35525e-20 7.4028e-08 0 0 0
0.0587871 0 0.00108477 -0.00024504 4.40255e-05 1.91243e-06
-0.0587871 0 0.00108477 0.00365468 -0.000647855 3.80034e-05
0.0588138 0 0.00041924 -0.000147143 2.55436e-05 1.44466e-07
-0.0588138 0 0.000419239 0.00251696 -0.000422401 4.33134e-05
0.0587904 -1.35525e-20 0.00219775 0 0 0
-0.0587904 0 0.00219775 0 0 0
0.0588211 0 0.00175686 -0.000254056 4.605e-05 3.78682e-06
-0.0588211 1.35525e-20 0.00175688 0.00359518 -0.000642938 3.26224e-05
0.0589944 -2.25875e-21 0.00075431 -0.00017419 2.90746e-05 -9.09672e-07
-0.0589944 -6.77626e-21 0.000754313 0.00308299 -0.000498132 4.67891e-05
0.0589984 -4.51751e-21 0.00142978 -0.000288815 4.94926e-05 -2.23421e-07
-0.0589984 -9.03502e-21 0.00142979 0.00411466 -0.000721219 2.23339e-05
0.059008 6.77626e-21 0.00221778 0 0 0
-0.0590081 6.77626e-21 0.00221778 0 0 0
-0.0590549 1.35525e-20 8.3519e-08 0 0 0
0.0590549 0 8.35176e-08 0 0 0
-0.0590696 0 0.000188904 0.00124133 -0.000142976 7.87966e-06
0.0590696 0 0.000188898 -5.92318e-06 -4.14098e-09 -4.80712e-07
-0.0590838 -2.71051e-20 8.57398e-08 0 0 0
0.0590838 -1.35525e-20 8.57395e-08 0 0 0
0.05908 0 0.00199667 -0.000213895 3.78015e-05 -1.55661e-07
-0.05908 0 0.00199668 0.00297242 -0.000585364 2.68652e-05
0.059078 6.77626e-21 0.00212677 -9.15216e-05 1.61746e-05 -6.66044e-08
-0.059078 0 0.00212682 0.00127132 -0.000250363 1.14904e-05
-0.0591578 6.77626e-21 0.00223156 0 0 0
0.0591578 6.77626e-21 0.00223157 0 0 0
-0.0593378 2.71051e-20 9.41278e-08 0 0 0
0.0593379 5.42101e-20 9.41279e-08 0 0 0
-0.0593529 2.25875e-21 0.000581993 0.00322436 -0.000564022 2.9995e-05
0.0593529 -4.51751e-21 0.00058199 -0.000171297 3.02472e-05 -6.53496e-07
-0.0593596 -1.12938e-21 0.00110181 0.00480571 -0.000862375 1.38778e-05
0.0593596 -2.25875e-21 0.0011018 -0.000318029 5.74191e-05 -9.60581e-07
-0.0593591 -2.25875e-21 0.00162171 0.00465957 -0.00084739 -4.24869e-06
0.0593591 0 0.0016217 -0.000330151 5.97751e-05 -8.36126e-07
0.059356 0 0.0022498 0 0 0
-0.059356 4.06576e-20 0.0022498 0 0 0
0.0594899 0 0.00226213 0 0 0
-0.05949 -1.35525e-20 0.00226213 0 0 0
-0.0596053 0 7.49137e-08 0 0 0
0.0596053 -3.38813e-21 7.49138e-08 0 0 0
-0.0596378 -3.38813e-21 6.7265e-05 0.000518425 -0.000101807 -1.38984e-07
0.0596378 1.35525e-20 6.7278e-05 -2.08772e-06 2.68349e-07 -5.24335e-08
-0.0596391 0 0.000281382 0.00183815 -0.000356437 1.26299e-06
0.0596391 0 0.000281382 -2.23227e-05 3.63059e-06 -2.93321e-07
-0.0596522 -1.35525e-20 0.000750556 0.00478909 -0.000874698 1.24927e-05
0.0596522 -1.35525e-20 0.000750553 -0.000293383 5.39312e-05 7.72242e-09
-0.0596652 0 7.43487e-08 0 0 0
0.0596653 1.01644e-20 7.43486e-08 0 0 0
-0.0596556 -1.35525e-20 0.00146976 0.005917 -0.00106011 -2.85345e-05
0.0596556 0 0.00146976 -0.000417809 7.67018e-05 -3.82618e-07
-0.0596502 -1.12938e-21 0.00197793 0.00372256 -0.000722905 1.34182e-05
0.0596502 1.12938e-21 0.00197792 -0.00026859 5.22962e-05 2.55801e-06
-0.0598453 6.77626e-21 0.00229482 0 0 0
0.0598454 -1.35525e-20 0.00229483 0 0 0
0.0599214 -2.71051e-20 5.8673e-08 0 0 0
-0.0599214 2.71051e-20 5.86732e-08 0 0 0
-0.0599318 0 0.000596737 0.00407252 -0.000743758 -1.43874e-06
0.0599318 -2.25875e-21 0.000596735 -0.000213835 3.89619e-05 -4.29204e-07
-0.0599376 -1.12938e-21 0.00163636 0.00595022 -0.00107782 -3.33626e-05
0.0599376 -1.12938e-21 0.00163637 -0.000425137 7.87181e-05 -6.94631e-07
0.0599523 3.38813e-22 0.00111691 -0.000421074 7.68627e-05 -7.5268e-07
-0.0599523 1.12938e-22 0.00111691 0.0062946 -0.00112837 -2.55241e-05
-0.0599299 2.71051e-20 0.00230261 0 0 0
0.0599299 0 0.00230261 0 0 0
0.059989 6.77626e-21 0.00230805 0 0 0
-0.059989 -6.77626e-21 0.00230805 0 0 0
-0.0601336 -1.35525e-20 6.56213e-08 0 0 0
0.0601336 0 6.56212e-08 0 0 0
0.0602132 1.12938e-21 0.000252409 -1.3593e-05 2.34528e-06 -1.84373e-07
-0.0602132 0 0.00025241 0.00205797 -0.00038304 1.26963e-05
0.0602294 4.06576e-20 0.000784297 -0.000376485 6.79427e-05 -1.05589e-06
-0.0602294 -1.35525e-20 0.000784301 0.00603392 -0.00107732 -3.0396e-05
-0.0602309 -2.71051e-20 0.00146539 0.00728769 -0.00129358 -5.16388e-05
0.0602309 0 0.00146538 -0.000520313 9.45327e-05 -2.00274e-06
0.0602724 -1.35525e-20 6.43014e-08 0 0 0
-0.0602724 0 6.43015e-08 0 0 0
0.0602424 1.41172e-22 0.00197213 -0.00035854 6.88304e-05 -1.93811e-06
-0.0602424 5.64689e-22 0.00197212 0.00489779 -0.000917715 -5.23367e-05
-0.060476 0 6.96067e-08 0 0 0
0.060476 0 6.96065e-08 0 0 0
0.0604796 -2.25875e-21 0.000600001 -0.000249077 4.46336e-05 -1.5368e-06
-0.0604796 7.52918e-22 0.000600003 0.00483875 -0.000852424 -2.65974e-05
-0.0604927 1.90582e-20 0.00235439 0 0 0
0.0604959 0 0.00235469 0 0 0
0.0605079 0 0.00234001 -1.66482e-05 2.83938e-06 -3.65992e-07
-0.060508 0 0.00233988 0.000232006 -3.88627e-05 -2.81531e-06
-0.0605575 -2.25875e-21 0.0011318 0.00760485 -0.00132982 -4.60593e-05
0.0605575 -1.12938e-21 0.00113179 -0.000511817 9.00287e-05 -1.81394e-06
-0.0605507 0 0.00162686 0.00725276 -0.00127028 -3.78286e-05
0.0605507 0 0.00162685 -0.000519437 9.24734e-05 -1.96339e-06
0.0605441 -1.27055e-21 0.00235913 0 0 0
-0.0605446 4.23516e-22 0.00235917 0 0 0
-0.0606726 0 5.84249e-08 0 0 0
0.0606726 1.35525e-20 5.84249e-08 0 0 0
0.0608243 -1.03526e-21 0.0002887 -1.86754e-05 2.62906e-06 -2.45431e-07
-0.0608243 8.47033e-22 0.000288701 0.00265078 -0.000380999 1.94419e-05
-0.0608389 4.51751e-21 0.00196303 0.00612568 -0.00104321 -4.90039e-05
0.0608389 -1.12938e-21 0.00196301 -0.000442915 7.62599e-05 -6.66525e-06
0.0608907 1.35525e-20 5.77037e-08 0 0 0
-0.0608907 1.35525e-20 5.77037e-08 0 0 0
0.061022 0 0.000858041 -0.000495605 8.48548e-05 -4.83246e-06
-0.061022 9.03502e-21 0.000858044 0.00783217 -0.00137718 -8.1851e-05
0.0610196 -1.35525e-20 0.0014351 -0.000645916 0.00011058 1.99986e-06
-0.0610196 -4.51751e-21 0.00143511 0.00912628 -0.00158728 1.05487e-05
0.0610807 0 4.80731e-08 0 0 0
-0.0610807 -2.71051e-20 4.80731e-08 0 0 0
0.0610587 -3.38813e-21 0.00240648 0 0 0
-0.0610588 0 0.00240649 0 0 0
0.0610729 3.38813e-21 0.00238496 -3.72639e-05 7.30376e-06 1.16152e-07
-0.061073 -3.38813e-21 0.002385 0.000479118 -9.59333e-05 4.38539e-06
-0.0610955 0 0.00240987 0 0 0
0.0610955 -3.38813e-21 0.00240986 0 0 0
-0.0610995 0 0.00235733 0.000838394 -0.000150737 2.98074e-06
0.0610995 3.38813e-21 0.00235725 -6.00943e-05 1.10619e-05 2.27547e-07
-0.0611234 0 0.0023884 0.000547818 -0.000111419 6.13085e-06
0.0611234 0 0.00238837 -4.19284e-05 8.4233e-06 2.38241e-07
-0.0611363 3.38813e-21 0.00241362 0 0 0
0.0611364 0 0.00241362 0 0 0
-0.0612633 0 0.000606688 0.00583811 -0.00110052 -6.7031e-05
0.0612633 0 0.000606686 -0.000301927 6.00124e-05 -4.62323e-06
0.0612584 2.71051e-20 0.00172056 -0.000573853 0.000108112 6.66383e-06
-0.0612584 0 0.00172055 0.007996 -0.00147654 7.42437e-05
0.0612897 0 0.00114617 -0.000603386 0.000113339 1.36128e-06
-0.0612897 2.71051e-20 0.00114617 0.00903271 -0.00165513 -4.77756e-06
-0.0613382 -2.71051e-20 3.75146e-08 0 0 0
0.0613382 -2.71051e-20 3.7514e-08 0 0 0
-0.0614691 1.41172e-22 0.000272853 0.00301311 -0.000467884 2.58331e-05
0.0614691 -1.8823e-22 0.000272849 -1.38335e-05 3.96668e-06 -7.23614e-07
-0.0614658 -3.38813e-21 0.00200447 0.00709667 -0.00125871 3.62971e-06
0.0614659 -7.90564e-21 0.00200446 -0.000507216 9.32012e-05 -2.21462e-06
-0.0615061 -1.35525e-20 3.67859e-08 0 0 0
0.0615061 1.35525e-20 3.67852e-08 0 0 0
-0.0615545 -6.77626e-21 0.000876319 0.00874932 -0.00161305 -7.08098e-07
0.0615545 2.25875e-21 0.000876318 -0.000551603 0.000106008 2.42231e-06
-0.0615509 -9.03502e-21 0.00144997 0.0101963 -0.00185272 3.60314e-05
0.0615509 -9.03502e-21 0.00144997 -0.000720604 0.000133522 6.38454e-06
0.061707 -3.38813e-21 0.00246613 0 0 0
-0.0617071 0 0.00246613 0 0 0
0.0617173 0 0.00245301 -2.45089e-05 4.92377e-06 1.39262e-07
-0.0617173 3.38813e-21 0.00245302 0.000320465 -6.51784e-05 3.58645e-06
-0.0617319 0 0.00246842 0 0 0
0.0617319 0 0.00246843 0 0 0
-0.0617337 0 0.00243692 0.000533334 -9.64294e-05 2.00141e-06
0.0617337 0 0.00243691 -3.83372e-05 7.20331e-06 2.19616e-07
-0.061748 0 0.00245429 0.00038141 -7.4157e-05 6.56263e-06
0.061748 0 0.00245428 -2.90464e-05 6.32565e-06 4.62422e-07
-0.0617555 -3.38813e-21 0.00247059 0 0 0
0.0617555 -3.38813e-21 0.00247059 0 0 0
0.0618119 0 0.000576099 -0.000325044 6.47088e-05 -2.54735e-06
-0.0618119 0 0.000576101 0.00635286 -0.00119773 4.44666e-07
-0.0618206 0 1.81838e-08 0 0 0
0.0618207 -2.71051e-20 1.81818e-08 0 0 0
-0.0618057 0 0.00179046 0.00880202 -0.001607 8.14005e-05
0.0618057 2.71051e-20 0.00179046 -0.000635257 0.000119787 7.7823e-06
-0.0618911 1.93608e-21 0.00110224 0.0100253 -0.00185608 6.57828e-05
0.0618911 -7.7443e-21 0.00110224 -0.000659045 0.000125883 2.0482e-06
-0.0620668 -1.35525e-20 0.000803504 0.00935367 -0.00175743 8.74504e-05
0.0620668 -5.42101e-21 0.000803499 -0.000574048 0.000111616 1.10738e-07
0.0620551 9.03502e-21 0.0014783 -0.000802329 0.000150994 1.04209e-06
-0.0620551 -4.51751e-21 0.0014783 0.0113057 -0.0020787 9.78697e-06
-0.062113 -2.37169e-20 1.60896e-08 0 0 0
0.062113 -3.72694e-20 1.60878e-08 0 0 0
-0.0620964 -5.64689e-22 0.0020808 0.00779471 -0.00134601 0.000102304
0.0620964 2.82344e-21 0.00208081 -0.000568983 0.000106435 8.58154e-06
-0.0621537 -2.25875e-21 0.000297886 0.003866 -0.000789066 4.13683e-06
0.0621538 -1.12938e-21 0.000297887 -5.17582e-05 1.02679e-05 -1.71763e-07
-0.0621775 -6.77626e-21 1.56614e-08 0 0 0
0.0621776 4.06576e-20 1.56595e-08 0 0 0
-0.0621833 0 0.00250996 0 0 0
0.0621833 0 0.00250996 0 0 0
-0.0621909 0 0.00249508 0.00038064 -7.40073e-05 6.54939e-06
0.0621909 3.38813e-21 0.00249509 -2.89489e-05 6.30443e-06 4.60871e-07
0.0622064 0 0.00247948 -4.13393e-05 7.47461e-06 2.20568e-07
-0.0622064 -4.40457e-20 0.00247946 0.00057337 -0.000100695 1.29978e-06
0.062211 1.69407e-20 0.00251251 0 0 0
-0.062211 3.38813e-21 0.00251251 0 0 0
0.0622439 0 0.00247181 -8.18246e-05 1.17051e-05 2.08297e-06
-0.0622439 0 0.00247177 0.00108332 -0.000152166 2.36498e-05
-0.062464 2.71051e-20 1.36276e-08 0 0 0
0.0624641 0 1.36259e-08 0 0 0
-0.0624707 0 0.000664989 0.00867496 -0.00160401 4.91272e-05
0.0624707 0 0.000664986 -0.000478922 9.08176e-05 1.15153e-06
-0.062477 -1.12938e-21 0.00119037 0.011658 -0.00214158 3.75431e-05
0.062477 -2.25875e-21 0.00119036 -0.000789011 0.000147613 5.50925e-07
0.062456 -1.01644e-20 0.00253505 0 0 0
-0.062456 2.71051e-20 0.00253505 0 0 0
0.0624641 -3.38813e-21 0.00247936 -0.00010561 1.51076e-05 2.68848e-06
-0.0624641 -6.77626e-21 0.00247929 0.00139882 -0.000196483 3.05376e-05
0.0625428 4.51751e-21 0.0018227 -0.000734921 0.000129809 4.20098e-06
-0.0625428 -2.25875e-21 0.0018227 0.0100841 -0.00177166 5.08611e-05
-0.062548 2.25875e-21 0.00223368 0.00647029 -0.000976061 0.000122798
0.062548 0 0.00223368 -0.00048838 7.4869e-05 1.02216e-05
-0.0626458 -3.38813e-21 0.00247189 0.00199589 -0.00028035 4.35722e-05
0.0626458 3.38813e-21 0.00247193 -0.000150797 2.15716e-05 3.83877e-06
-0.0627253 -6.77626e-21 1.30352e-08 0 0 0
0.0627253 6.77626e-21 1.30342e-08 0 0 0
-0.0626789 6.77626e-21 0.00255556 0 0 0
0.0626789 6.77626e-21 0.00255556 0 0 0
0.0627232 1.35525e-20 0.00247251 -0.000147383 2.31995e-05 2.30551e-06
-0.0627232 0 0.00247247 0.00196747 -0.000308152 2.87751e-05
-0.0627775 0 0.000301894 0.00425916 -0.000830558 -4.1454e-06
0.0627776 2.25875e-21 0.000301892 -7.24803e-05 1.36781e-05 5.75179e-08
0.0627289 0 0.00253277 -5.26362e-05 7.75937e-06 9.64421e-07
-0.0627289 -6.77626e-21 0.00253275 0.000706947 -9.87985e-05 1.39779e-05
0.0627357 6.77626e-21 0.00256079 0 0 0
-0.0627358 6.77626e-21 0.00256079 0 0 0
-0.0627919 1.35525e-20 0.000886652 0.0114336 -0.00208011 2.46372e-05
0.0627919 0 0.000886656 -0.000720733 0.000135084 1.88347e-06
-0.0628164 0 1.26849e-08 0 0 0
0.0628164 -6.77626e-21 1.2684e-08 0 0 0
-0.0628008 -1.35525e-20 0.00150627 0.013475 -0.00243408 -2.31319e-05
0.0628008 -2.71051e-20 0.00150627 -0.0009712 0.000176201 -8.77125e-07
-0.0628112 1.35525e-20 0.00226818 0.00648164 -0.0010397 0.000112363
0.0628112 -1.35525e-20 0.00226818 -0.000494812 8.06531e-05 8.00386e-06
-0.0628645 6.77626e-21 0.00225928 0.00649723 -0.00106347 0.000104985
0.0628645 -6.77626e-21 0.00225928 -0.000495787 8.23343e-05 7.11355e-06
-0.0630768 -2.71051e-20 1.21048e-08 0 0 0
0.0630768 5.42101e-20 1.21046e-08 0 0 0
-0.0630912 -4.51751e-21 0.000666653 0.00954573 -0.00173443 -6.38361e-06
0.0630913 1.35525e-20 0.000666654 -0.000527756 9.78378e-05 1.15442e-06
-0.0630462 0 0.00258936 0 0 0
0.0630463 -6.77626e-21 0.00258936 0 0 0
-0.0630991 3.38813e-21 0.00119257 0.0129359 -0.00232036 -9.07724e-06
0.0630991 5.64689e-21 0.00119258 -0.000875838 0.000160539 7.79963e-07
-0.0630753 0 0.00254724 0.00115515 -0.000161436 2.28397e-05
0.0630753 0 0.00254725 -8.60287e-05 1.26819e-05 1.57625e-06
-0.0631146 -2.25875e-21 0.0018442 0.0115888 -0.00205517 1.4151e-05
0.0631146 -6.77626e-21 0.0018442 -0.000843948 0.000150852 1.6821e-06
0.0631295 6.77626e-21 0.00220804 -0.000575267 0.000100319 3.56679e-06
-0.0631295 6.77626e-21 0.00220804 0.00765759 -0.00130811 4.23259e-05
-0.0631287 0 0.00259695 0 0 0
0.0631287 6.77626e-21 0.00259695 0 0 0
-0.0631356 1.35525e-20 0.00244816 0.00326785 -0.000546098 1.34927e-05
0.0631356 6.77626e-21 0.0024482 -0.000244157 4.17093e-05 1.29756e-06
0.0632025 0 0.00255032 -0.000107157 1.76075e-05 -5.60202e-07
-0.0632025 6.77626e-21 0.00255031 0.00145284 -0.000220275 -2.1686e-05
0.063231 6.77626e-21 0.00260636 0 0 0
-0.063231 0 0.00260636 0 0 0
-0.063349 3.38813e-21 1.19264e-08 0 0 0
0.063349 -1.35525e-20 1.19262e-08 0 0 0
-0.0633802 1.12938e-21 0.000299346 0.00450674 -0.000866131 -1.22507e-05
0.0633802 2.25875e-21 0.00029935 -6.59713e-05 1.2147e-05 -1.16256e-07
-0.0634014 1.01644e-20 1.18937e-08 0 0 0
0.0634014 -1.69407e-20 1.18936e-08 0 0 0
-0.0633962 4.06576e-20 0.000886345 0.0123131 -0.00219642 -2.29018e-05
0.0633962 2.71051e-20 0.000886349 -0.000775777 0.000142585 1.87252e-06
-0.0634042 0 0.00150026 0.0147827 -0.00261679 -1.79005e-05
0.0634042 -2.71051e-20 0.00150026 -0.00105446 0.000191396 -1.14838e-07
-0.0634115 -6.77626e-21 0.00227415 0.00752277 -0.00131464 -1.2419e-05
0.0634115 0 0.00227415 -0.000567476 0.000102751 4.45038e-07
-0.0635497 0 0.0026357 0 0 0
0.0635497 0 0.00263569 0 0 0
-0.0636291 -5.80823e-21 0.000643872 0.00997243 -0.00178461 -2.43575e-05
0.0636291 5.80823e-21 0.000643874 -0.000545949 9.89991e-05 8.56902e-07
-0.0635905 1.35525e-20 0.00256259 0.00209014 -0.0003169 -3.11988e-05
0.0635905 2.71051e-20 0.00256259 -0.000154182 2.53346e-05 -8.06047e-07
-0.0636736 -2.71051e-20 1.17146e-08 0 0 0
0.0636736 2.71051e-20 1.17145e-08 0 0 0
-0.0637074 1.12938e-21 0.00119084 0.0140272 -0.00248076 -1.79257e-05
0.0637074 7.90564e-21 0.00119084 -0.000946037 0.00016985 7.72162e-07
-0.0637064 9.03502e-21 0.00183861 0.0128876 -0.00228892 2.75373e-06
0.0637064 -4.51751e-21 0.00183862 -0.000936473 0.000169313 3.79748e-07
0.0636972 0 0.00228451 -0.000574435 0.000103768 1.0256e-07
-0.0636972 1.12938e-21 0.00228451 0.00764456 -0.00134099 -7.47816e-06
0.0636864 0 0.00264828 0 0 0
-0.0636864 -1.35525e-20 0.00264828 0 0 0
0.0638056 0 0.00256928 -0.000180404 3.18216e-05 -6.97883e-07
-0.0638056 0 0.00256928 0.00241721 -0.000396857 -2.51781e-05
0.0638572 -6.77626e-21 0.00266399 0 0 0
-0.0638572 0 0.002664 0 0 0
-0.0639761 -5.02926e-21 1.11264e-08 0 0 0
0.0639761 4.09752e-20 1.11265e-08 0 0 0
-0.063985 -4.51751e-21 0.000294135 0.00464015 -0.000871419 -1.58312e-05
0.063985 0 0.000294132 -4.61247e-05 8.12411e-06 5.2255e-09
-0.0639986 4.51751e-21 0.000797603 0.0119942 -0.00212347 -2.88133e-05
0.0639987 0 0.000797603 -0.000712492 0.0001252 1.18772e-07
0.0639966 1.35525e-20 0.00216928 -0.000786529 0.000142505 1.77755e-06
-0.0639966 -1.35525e-20 0.00216927 0.0104199 -0.00186287 3.83564e-05
0.0639893 2.71051e-20 0.00242216 -0.000465301 8.46269e-05 -9.85872e-07
-0.0639893 -1.35525e-20 0.00242216 0.00608172 -0.00105912 -2.94873e-05
-0.0640906 -2.71051e-21 0.00161504 0.0153049 -0.00271385 2.33829e-05
0.0640906 0 0.00161505 -0.00109315 0.000195349 1.74718e-06
-0.0640774 1.35525e-20 0.00268425 0 0 0
0.0640774 0 0.00268425 0 0 0
-0.0641378 -2.71051e-20 0.0025811 0.00292068 -0.000479515 -3.04223e-05
0.0641378 -2.71051e-20 0.00258111 -0.000217988 3.84511e-05 -8.43277e-07
-0.0642238 0 0.0011939 0.0149319 -0.00262891 -2.53401e-06
0.0642238 4.51751e-21 0.0011939 -0.00100315 0.000176028 1.16577e-06
-0.0642454 -1.54886e-20 0.00190905 0.0131718 -0.002321 4.5739e-05
0.0642454 -1.54886e-20 0.00190906 -0.00096589 0.000172188 2.93714e-06
-0.0642765 2.71051e-20 1.05719e-08 0 0 0
0.0642765 -2.71051e-20 1.0572e-08 0 0 0
-0.0643071 0 0.000580294 0.00912926 -0.00160495 -1.72772e-05
0.0643071 2.71051e-20 0.000580294 -0.000440684 7.60044e-05 -3.99911e-07
0.0642698 1.35525e-20 0.00270196 0 0 0
-0.0642698 0 0.00270196 0 0 0
0.0642914 1.12938e-21 0.00231061 -0.000647049 0.000117039 2.10923e-06
-0.0642914 -3.38813e-21 0.0023106 0.00858209 -0.00153135 3.83942e-05
0.064507 -1.35525e-20 0.00272379 0 0 0
-0.064507 6.77626e-21 0.00272379 0 0 0
-0.0645717 0 1.00932e-08 0 0 0
0.0645718 0 1.00933e-08 0 0 0
-0.0645942 3.38813e-21 0.000105204 0.00177677 -0.000318068 -8.03898e-06
0.0645942 -5.0822e-21 0.000105297 -3.11308e-06 5.19384e-07 2.54961e-08
-0.0646037 -5.0822e-21 0.000289957 0.00483393 -0.000861828 -1.96382e-05
0.0646037 0 0.000289963 -3.08357e-05 5.24084e-06 5.65082e-08
-0.0646061 0 1.00752e-08 0 0 0
0.0646062 1.69407e-20 1.00752e-08 0 0 0
-0.0645786 0 0.00255742 0.00444581 -0.000800093 2.98463e-05
0.0645786 -1.35525e-20 0.00255743 -0.000335324 6.11005e-05 8.14231e-07
-0.0646301 9.03502e-21 0.000896905 0.0138228 -0.00244267 -9.09391e-07
0.0646301 -2.25875e-21 0.000896903 -0.000853652 0.00014968 3.17866e-07
0.0646074 9.03502e-21 0.00205695 -0.000963486 0.000171431 7.58903e-06
-0.0646074 9.03502e-21 0.00205694 0.0129575 -0.00230956 9.88469e-05
0.0646289 0 0.00152581 -0.00116087 0.000208669 5.58167e-06
-0.0646289 0 0.00152581 0.0164999 -0.00293376 5.57724e-05
-0.0646281 -2.03288e-20 0.00273494 0 0 0
0.0646282 -1.35525e-20 0.00273494 0 0 0
-0.0649009 0 9.60311e-09 0 0 0
0.0649009 -5.42101e-20 9.60308e-09 0 0 0
0.064875 1.35525e-20 0.00275765 0 0 0
-0.064875 0 0.00275765 0 0 0
-0.0649356 0 0.000580114 0.00972457 -0.00169365 1.5105e-05
0.0649357 2.71051e-20 0.000580114 -0.000465831 8.10121e-05 3.9497e-07
0.0649299 0 0.00188429 -0.00108731 0.000196082 8.84435e-06
-0.0649299 0 0.00188429 0.0150255 -0.0026745 8.05205e-05
0.0649159 0 0.00234646 -0.000724952 0.000135054 7.51833e-06
-0.0649159 2.82344e-22 0.00234647 0.00959752 -0.00177658 9.80792e-05
0.064955 0 0.00120177 -0.00108026 0.000190295 4.81865e-06
-0.064955 2.71051e-20 0.00120177 0.0161426 -0.0028462 4.5569e-05
-0.0652158 0 7.83123e-09 0 0 0
0.0652158 0 7.83116e-09 0 0 0
-0.0652252 0 4.89574e-05 0.000888273 -0.000148264 1.72096e-06
0.0652252 4.23516e-21 4.89963e-05 -1.44035e-06 2.59702e-07 -1.38955e-08
-0.0652301 -1.69407e-21 7.82292e-09 0 0 0
0.0652302 -1.35525e-20 7.82284e-09 0 0 0
-0.065238 1.12938e-21 0.000289529 0.00518633 -0.00087019 1.13479e-05
0.0652381 -2.25875e-21 0.000289519 -3.4364e-05 6.12432e-06 1.76371e-08
-0.0652635 2.25875e-21 0.000898212 0.0147553 -0.00260115 6.57955e-05
0.0652635 -1.35525e-20 0.000898216 -0.000906506 0.000161861 3.39095e-06
0.0652136 0 0.00278879 0 0 0
-0.0652137 -2.03288e-20 0.00278879 0 0 0
-0.0652598 4.51751e-21 0.0015412 0.0178195 -0.00317472 7.16928e-05
0.0652598 0 0.0015412 -0.00125288 0.000226629 9.06755e-06
0.0652523 -1.35525e-20 0.00209337 -0.00105186 0.000191474 1.33968e-05
-0.0652523 -4.51751e-21 0.00209337 0.0141623 -0.00257721 9.41216e-05
-0.065247 1.69407e-21 0.00279186 0 0 0
0.065247 3.38813e-20 0.00279186 0 0 0
0.0652921 0 0.00257089 -0.000457309 8.71616e-05 5.53232e-06
-0.0652921 -6.77626e-21 0.00257088 0.00599847 -0.00118039 9.84316e-05
-0.0655524 5.42101e-20 5.83763e-09 0 0 0
0.0655525 -2.71051e-20 5.83746e-09 0 0 0
-0.0655704 -2.71051e-20 0.000580836 0.0103822 -0.00184698 4.80081e-05
0.0655704 0 0.000580835 -0.000491432 8.78707e-05 1.56251e-06
0.0655566 2.71051e-20 0.00189805 -0.00118976 0.000217703 9.63942e-06
-0.0655566 0 0.00189804 0.0164058 -0.00294553 5.53811e-05
0.0655812 -2.71051e-20 0.00120809 -0.00115709 0.000209568 5.55529e-06
-0.0655812 2.71051e-20 0.00120809 0.0172892 -0.00309379 6.30896e-05
0.0655609 2.71051e-20 0.00282073 0 0 0
-0.0655609 -2.71051e-20 0.00282072 0 0 0
0.065626 0 0.00230052 -0.000927563 0.000171332 1.08751e-05
-0.065626 4.51751e-21 0.00230051 0.0123964 -0.00226437 7.24538e-05
0.0657942 0 0.00153773 -0.00133085 0.000243768 9.3808e-06
-0.0657942 -4.51751e-21 0.00153773 0.0188675 -0.00340007 5.90702e-05
-0.0658501 -3.38813e-21 4.27431e-09 0 0 0
0.0658502 -1.35525e-20 4.27416e-09 0 0 0
0.0658196 -8.13152e-21 0.0020679 -0.00118884 0.00022291 9.4977e-06
-0.0658196 -1.89735e-20 0.0020679 0.0160468 -0.00291937 4.91385e-06
-0.0658851 -1.12938e-21 0.000294061 0.00558233 -0.0010165 1.65064e-05
0.0658851 -3.38813e-21 0.00029407 -5.3839e-05 9.67567e-06 2.997e-07
-0.0659037 -6.77626e-21 3.74108e-09 0 0 0
0.0659037 2.03288e-20 3.741e-09 0 0 0
-0.0658977 4.51751e-21 0.000900808 0.0156515 -0.00278943 7.30601e-05
0.0658977 -2.25875e-21 0.000900806 -0.000958996 0.000171532 3.0393e-06
-0.0658696 -2.37169e-20 0.00284913 0 0 0
0.0658696 -2.5411e-20 0.00284914 0 0 0
0.0658846 -3.38813e-21 0.0028246 -5.72786e-05 1.13809e-05 4.38512e-07
-0.0658846 3.38813e-21 0.00282453 0.000760912 -0.000154269 5.76413e-06
0.0659008 0 0.00285201 0 0 0
-0.0659009 5.0822e-21 0.00285201 0 0 0
0.0659303 5.64689e-21 0.00259415 -0.000545699 0.000105873 4.37594e-06
-0.0659304 7.90564e-21 0.00259415 0.00724591 -0.00141576 4.98836e-05
-0.0662017 5.42101e-20 2.04737e-09 0 0 0
0.0662017 0 2.04729e-09 0 0 0
-0.0662096 -2.71051e-20 0.000583165 0.0109947 -0.00199356 2.02282e-05
0.0662096 0 0.000583165 -0.000516162 9.35122e-05 6.01034e-07
0.066226 2.25875e-21 0.00182287 -0.00135883 0.000254214 5.68675e-06
-0.066226 0 0.00182287 0.0187494 -0.00337661 2.06838e-06
-0.0662614 0 0.00125249 0.0189141 -0.0034127 2.76044e-05
0.0662614 0 0.00125249 -0.00127524 0.000235825 4.57449e-06
0.0662443 1.35525e-20 0.00230825 -0.00101357 0.000190797 4.86341e-06
-0.0662443 4.51751e-21 0.00230824 0.0136001 -0.00244255 -9.74282e-07
0.0662396 -1.35525e-20 0.00288319 0 0 0
-0.0662396 0 0.00288318 0 0 0
-0.0664688 6.77626e-21 1.83905e-09 0 0 0
0.0664688 1.35525e-20 1.83897e-09 0 0 0
-0.0665215 4.51751e-21 0.000297039 0.00589306 -0.00108111 -6.70151e-06
0.0665216 0 0.000297033 -7.2384e-05 1.3191e-05 6.80876e-08
-0.0665293 -4.51751e-21 0.000803441 0.0152755 -0.00275325 -5.68711e-06
0.0665293 9.03502e-21 0.000803445 -0.000891356 0.000163453 1.11554e-06
-0.0664922 -1.35525e-20 0.00290641 0 0 0
0.0664922 6.77626e-21 0.00290641 0 0 0
-0.0665402 2.71051e-20 0.00152016 0.0214101 -0.00386518 2.32739e-05
0.0665402 0 0.00152016 -0.00151408 0.000284313 6.26537e-06
-0.0665636 2.03288e-20 1.7259e-09 0 0 0
0.0665637 1.35525e-20 1.72584e-09 0 0 0
-0.0665513 0 0.00210904 0.0178072 -0.00314886 -3.35782e-05
0.0665513 2.71051e-20 0.00210904 -0.00132588 0.000250941 1.2781e-06
0.0665489 2.25875e-21 0.00261517 -0.000634696 0.000125478 2.7165e-06
-0.0665489 -3.38813e-21 0.00261517 0.00847213 -0.00159548 -1.24559e-05
0.0665444 -6.77626e-21 0.00282557 -0.000193996 3.92268e-05 9.42562e-07
-0.0665444 6.77626e-21 0.00282553 0.00258797 -0.000499462 -3.86361e-06
0.0665984 6.77626e-21 0.00291617 0 0 0
-0.0665984 0 0.00291617 0 0 0
-0.0668291 2.71051e-20 1.5155e-09 0 0 0
0.0668291 2.71051e-20 1.51544e-09 0 0 0
-0.0668395 2.71051e-20 0.000583569 0.0115286 -0.00209068 -1.02254e-05
0.0668395 2.71051e-20 0.00058357 -0.000543226 0.000100079 -3.52972e-09
-0.0668469 1.88079e-37 0.00119952 0.0196069 -0.00353615 3.94259e-06
0.0668469 0 0.00119952 -0.00130884 0.000244692 3.03665e-06
-0.0668544 -4.51751e-21 0.00182468 0.0201323 -0.0036041 2.03074e-06
0.0668544 9.03502e-21 0.00182468 -0.00146083 0.00027589 3.77338e-06
-0.0668557 0 0.00232115 0.014964 -0.00266134 -2.13564e-05
0.0668557 4.51751e-21 0.00232116 -0.00111765 0.000212116 2.1941e-06
0.0668437 -1.35525e-20 0.00293872 0 0 0
-0.0668437 0 0.00293872 0 0 0
-0.0670865 2.03288e-20 1.47833e-09 0 0 0
0.0670865 -6.77626e-21 1.4783e-09 0 0 0
-0.0670533 6.77626e-21 0.00295798 0 0 0
0.0670533 1.35525e-20 0.00295798 0 0 0
-0.0671423 6.77626e-21 0.000297525 0.00610383 -0.00111704 -1.18773e-05
0.0671423 -2.25875e-21 0.000297532 -7.87936e-05 1.44376e-05 9.02215e-08
-0.0671508 -1.35525e-20 0.00080171 0.0159001 -0.00287002 -1.00781e-05
0.0671508 -4.51751e-21 0.000801707 -0.000926562 0.00017199 3.47278e-07