# UMean  POINT_DATA 14073
# x  y  z  UMean_x  UMean_y  UMean_z
-1.35525e-20 0.0101542 1.397e-07 0 0 0
1.35525e-20 -0.0101542 1.397e-07 0 0 0
-1.35525e-20 0.0101542 0.000269592 0 0 0
2.71051e-20 -0.0101542 0.000269592 0 0 0
2.71051e-20 0.0101542 0.000769234 0 0 0
1.35525e-20 -0.0101542 0.000769234 0 0 0
0 0.0101542 0.00104357 0 0 0
0 -0.0101542 0.00104357 0 0 0
1.35525e-20 0.0101542 0.00131779 0 0 0
1.35525e-20 -0.0101542 0.00131779 0 0 0
0 0.0102506 0.000298259 -3.93392e-05 7.75876e-06 -2.67475e-07
-1.35525e-20 -0.0102506 0.00029826 0.00118326 -0.000228535 -7.52929e-06
-1.35525e-20 0.0102543 0.000875898 -4.08403e-05 8.05482e-06 -2.77682e-07
0 -0.0102543 0.000875897 0.00122842 -0.000237256 -7.8166e-06
0 0.0101542 0.00181774 0 0 0
1.35525e-20 -0.0101542 0.00181774 0 0 0
-1.35525e-20 0.0103268 1.10555e-07 0 0 0
-1.35525e-20 -0.0103268 1.10554e-07 0 0 0
0 0.0102523 0.00124394 -6.80725e-05 1.29821e-05 -4.73047e-07
0 -0.0102523 0.00124394 0.00164414 -0.000305234 -2.1003e-05
2.71051e-20 0.0101542 0.002087 0 0 0
-2.71051e-20 -0.0101542 0.002087 0 0 0
-1.35525e-20 0.0103709 0.000111967 -3.43346e-06 5.85543e-07 -5.89495e-08
0 -0.0103709 0.000111968 0.000965067 -0.000174716 9.19361e-06
0 -0.0103677 0.000675216 0.00264192 -0.000502623 -1.05547e-05
-1.35525e-20 0.0103677 0.000675216 -8.73264e-05 1.68433e-05 -6.36309e-07
-1.35525e-20 0.0102487 0.0018202 -6.56024e-05 1.2511e-05 -4.55882e-07
0 -0.0102487 0.0018202 0.00158448 -0.000294158 -2.02409e-05
4.06576e-20 -0.0103636 0.00148271 0.00354209 -0.000655942 -3.74482e-05
0 0.0103636 0.00148271 -0.000145949 2.74264e-05 -8.71195e-07
-1.35525e-20 0.0102712 0.00214806 0 0 0
0 -0.0102712 0.00214806 0 0 0
-1.35525e-20 0.0103514 0.00204723 -8.16648e-05 1.55152e-05 -6.93799e-07
0 -0.0103515 0.00204723 0.00193798 -0.000344437 -2.14306e-05
0 -0.0106317 0.000607139 0.00445583 -0.000791375 -4.77214e-06
-7.52918e-21 0.0106317 0.00060714 -0.000134997 2.44398e-05 -1.17058e-07
-6.77626e-21 -0.0106102 0.00112187 0.00644405 -0.00113047 -2.48479e-05
5.64689e-21 0.0106102 0.00112187 -0.000248924 4.52669e-05 -6.37673e-08
2.71051e-20 -0.0106774 0.000276333 0.00232387 -0.000427292 1.51371e-05
0 0.0106774 0.000276333 -8.55127e-06 1.41247e-06 -1.69387e-07
9.03502e-21 -0.0106161 0.00164334 0.00613153 -0.00108328 -3.54798e-05
4.51751e-21 0.0106161 0.00164334 -0.000252358 4.6541e-05 -3.37701e-07
6.77626e-21 -0.0107648 4.28324e-08 0 0 0
0 0.0107648 4.28305e-08 0 0 0
0 -0.0105533 0.0022953 0 0 0
0 0.0105533 0.0022953 0 0 0
-2.71051e-20 -0.01063 0.00198748 0.0047146 -0.000851891 -3.82417e-05
-2.71051e-20 0.01063 0.00198748 -0.000197323 3.74944e-05 -7.10024e-07
0 -0.0108244 8.90628e-05 0.000768063 -0.000139051 7.31687e-06
0 0.0108244 8.90541e-05 -2.73234e-06 4.65974e-07 -4.69119e-08
-1.35525e-20 -0.0106418 0.00222461 0.00158743 -0.000282133 -1.75541e-05
0 0.0106418 0.00222461 -6.6891e-05 1.27084e-05 -5.68285e-07
-1.35525e-20 -0.0108971 2.09162e-08 0 0 0
0 0.0108971 2.09164e-08 0 0 0
-1.35525e-20 -0.0106478 0.00234462 0 0 0
0 0.0106478 0.00234461 0 0 0
0 -0.0108702 0.00088437 0.00896764 -0.00154252 -1.84071e-05
0 0.0108702 0.000884371 -0.000329635 5.88417e-05 6.52355e-07
2.71051e-20 -0.0108765 0.00145343 0.0104463 -0.0017969 -3.45675e-05
0 0.0108765 0.00145343 -0.000426492 7.7293e-05 5.70537e-07
0 0.0107254 0.0023851 0 0 0
-1.35525e-20 -0.0107254 0.0023851 0 0 0
1.35525e-20 0.0110033 1.81925e-08 0 0 0
0 -0.0110033 1.81919e-08 0 0 0
1.35525e-20 0.0107624 0.00231965 -7.3824e-05 1.43376e-05 1.83346e-07
0 -0.0107624 0.00231965 0.00168007 -0.000312401 1.15262e-06
0 0.0110153 7.96742e-05 -2.3815e-06 4.49151e-07 -3.12144e-09
0 -0.0110153 7.96834e-05 0.00123266 -0.00023416 -3.38216e-06
-1.12938e-21 -0.0110632 0.000577057 0.00723625 -0.00128795 -1.30548e-05
-2.25875e-21 0.0110632 0.000577058 -0.000201783 3.6527e-05 3.59986e-07
-1.12938e-21 -0.0111416 0.00118798 0.0122562 -0.00213879 -2.45967e-05
-1.12938e-21 0.0111416 0.00118798 -0.000466098 8.53167e-05 1.15223e-06
1.35525e-21 -0.0110829 0.0018675 0.00994802 -0.00175178 -1.45428e-05
9.03502e-22 0.0110829 0.0018675 -0.000408431 7.62957e-05 1.06586e-06
0 -0.0110229 0.00226207 0.00554659 -0.00102292 1.071e-05
0 0.0110229 0.00226208 -0.000241332 4.68466e-05 1.31569e-06
2.71051e-20 0.0113157 0.000285027 -8.51753e-06 1.62341e-06 -8.32914e-08
-2.71051e-20 -0.0113157 0.000285023 0.00437091 -0.000840442 -1.22868e-05
0 -0.0110601 0.00255975 0 0 0
-6.77626e-21 0.0110601 0.00255975 0 0 0
6.77626e-21 -0.0110969 0.00251423 0.00128321 -0.000238607 8.80349e-07
6.77626e-21 0.0110969 0.00251423 -5.6384e-05 1.09505e-05 1.40032e-07
0 -0.011119 0.00259052 0 0 0
0 0.011119 0.00259052 0 0 0
2.71051e-20 -0.0114092 0.000887746 0.0134699 -0.00237443 -3.73006e-05
0 0.0114092 0.000887747 -0.000467786 8.57353e-05 1.06009e-06
-6.77626e-21 0.0111709 0.00261751 0 0 0
6.77626e-21 -0.0111709 0.00261751 0 0 0
6.77626e-21 -0.0111905 0.00257812 0.00124732 -0.000203507 -1.43026e-05
1.35525e-20 0.0111905 0.00257812 -5.22979e-05 9.59387e-06 -1.37014e-08
0 -0.0114292 0.00153027 0.0165288 -0.00290749 -9.08956e-06
0 0.0114292 0.00153027 -0.000655422 0.000122174 2.34306e-06
6.77626e-21 0.0115336 3.98168e-09 0 0 0
6.77626e-21 -0.0115337 3.98217e-09 0 0 0
0 -0.011316 0.00229781 0.00818317 -0.00141175 -2.41532e-05
0 0.011316 0.00229782 -0.000343364 6.41202e-05 9.18491e-07
6.77626e-21 0.0115492 5.75064e-05 -1.71917e-06 3.24236e-07 -2.25333e-09
0 -0.0115493 5.75224e-05 0.000889984 -0.000169064 -2.44193e-06
0 0.0116095 2.02397e-09 0 0 0
6.77626e-21 -0.0116096 2.02388e-09 0 0 0
-2.71051e-20 -0.0114857 0.00207363 0.0133632 -0.00232384 -1.01499e-05
0 0.0114857 0.00207364 -0.000554568 0.000103748 1.50437e-06
0 0.0116746 1.84338e-09 0 0 0
6.77626e-21 -0.0116747 1.84324e-09 0 0 0
0 0.011679 5.25147e-05 -1.56941e-06 2.98868e-07 -4.29123e-08
0 -0.0116791 5.25298e-05 0.00105107 -0.000184224 -3.74647e-06
0 0.0116878 0.000581186 -0.000268744 4.99846e-05 1.09884e-06
1.12938e-21 -0.0116878 0.000581184 0.0102266 -0.00180916 -2.0805e-05
2.71051e-20 -0.0114474 0.00253473 0.00574223 -0.000909154 -7.41431e-05
0 0.0114475 0.00253474 -0.000238571 4.26928e-05 -1.57288e-07
1.12938e-21 -0.0117411 0.00120508 0.017541 -0.00307154 -1.98026e-05
-1.69407e-21 0.0117411 0.00120508 -0.000651254 0.000122377 3.19309e-06
0 -0.0115287 0.00280389 0 0 0
6.77626e-21 0.0115287 0.00280391 0 0 0
0 -0.01155 0.00277247 0.0010691 -0.00017443 -1.2259e-05
0 0.01155 0.00277248 -4.48258e-05 8.22314e-06 -1.17438e-08
-2.25875e-21 -0.0117713 0.00182833 0.0180096 -0.00313873 -2.41199e-05
-5.64689e-22 0.0117713 0.00182833 -0.000726554 0.000137496 3.27922e-06
-6.77626e-21 -0.0115729 0.0028269 0 0 0
0 0.0115729 0.00282691 0 0 0
0 -0.0116142 0.00284883 0 0 0
6.77626e-21 0.0116142 0.00284884 0 0 0
-6.77626e-21 -0.0116388 0.00280394 0.00161355 -0.000300777 5.54358e-06
0 0.0116388 0.00280395 -6.73787e-05 1.3851e-05 5.61451e-07
5.64689e-22 -0.0117403 0.00237663 0.0117529 -0.00204008 -3.68347e-05
2.25875e-21 0.0117404 0.00237664 -0.000487779 9.30642e-05 1.97448e-06
5.42101e-20 0.0119843 0.000286092 -8.48612e-06 1.59295e-06 -3.74436e-07
-2.71051e-20 -0.0119843 0.000286091 0.00570066 -0.00100075 -1.37126e-05
-2.71051e-20 -0.0120413 0.000886344 0.0174864 -0.00304241 -1.94644e-05
0 0.0120413 0.000886345 -0.000595194 0.000112091 3.94942e-06
-5.42101e-20 -0.0120819 0.00151673 0.0227608 -0.00397587 -1.36308e-05
0 0.0120819 0.00151673 -0.000890754 0.000170258 5.40882e-06
-2.71051e-20 -0.0119435 0.00269977 0.00898965 -0.00167021 3.82186e-06
0 0.0119435 0.00269979 -0.000374027 7.63951e-05 2.70058e-06
-6.77626e-21 0.0122585 2.35686e-10 0 0 0
0 -0.0122585 2.35721e-10 0 0 0
0 0.0122629 3.33592e-05 -9.96972e-07 1.89857e-07 -2.72602e-08
6.77626e-21 -0.012263 3.33761e-05 0.000667845 -0.000117054 -2.38048e-06
2.71051e-20 -0.0120908 0.00215653 0.0199697 -0.00344875 -6.44372e-05
0 0.0120908 0.00215653 -0.000827658 0.00015808 4.11105e-06
0 0.0122996 1.21642e-10 0 0 0
0 -0.0122997 1.21624e-10 0 0 0
-6.77626e-21 0.0123364 1.15215e-10 0 0 0
0 -0.0123366 1.15195e-10 0 0 0
-6.77626e-21 0.012338 2.92482e-05 -9.50382e-07 1.25387e-07 -5.58923e-08
0 -0.0123381 2.92633e-05 0.000679312 -0.000117512 -4.21786e-06
0 -0.0119749 0.00303994 0 0 0
0 0.011975 0.00303995 0 0 0
0 0.0123477 0.000568685 -0.000322696 6.21243e-05 2.80449e-06
2.25875e-21 -0.0123477 0.000568684 0.0124695 -0.00216497 -1.69286e-05
0 -0.0120029 0.0029997 0.0015345 -0.000286041 5.27198e-06
6.77626e-21 0.012003 0.00299971 -6.40795e-05 1.31728e-05 5.33959e-07
0 -0.012014 0.00306072 0 0 0
6.77626e-21 0.0120141 0.00306073 0 0 0
6.77626e-21 -0.0120517 0.00308065 0 0 0
-6.77626e-21 0.0120518 0.00308066 0 0 0
6.77626e-21 -0.0120701 0.00304376 0.00139584 -0.000276169 1.09643e-05
0 0.0120702 0.00304377 -6.32666e-05 1.29584e-05 6.13608e-07
1.69407e-21 -0.0123957 0.00118429 0.0223256 -0.00392219 -1.43895e-05
0 0.0123957 0.00118429 -0.000820937 0.000160278 6.15827e-06
0 -0.0124154 0.00184242 0.0248817 -0.00436153 -8.99536e-06
-1.12938e-21 0.0124154 0.00184242 -0.00099898 0.000195455 5.94705e-06
-1.35525e-21 -0.0123818 0.00255904 0.0167898 -0.00299034 2.06462e-05
0 0.0123818 0.00255905 -0.000708123 0.000139685 5.08649e-06
0 0.012651 0.000272684 -8.7312e-06 1.13834e-06 -7.71168e-07
0 -0.012651 0.00027269 0.00636149 -0.00108651 -2.2838e-05
0 -0.0123509 0.00296128 0.0083143 -0.00161466 4.02975e-05
0 0.0123509 0.00296129 -0.000373871 7.64662e-05 3.44767e-06
2.71051e-20 0.0126986 0.000851202 -0.000684231 0.000135111 8.58245e-06
-2.71051e-20 -0.0126986 0.000851197 0.0204495 -0.00355177 -1.18491e-05
5.42101e-20 -0.0127386 0.00148681 0.0286479 -0.00512607 -1.24834e-05
-2.71051e-20 0.0127386 0.00148681 -0.00111569 0.000223954 6.60283e-06
0 -0.0124094 0.00326998 0 0 0
0 0.0124094 0.00326999 0 0 0
-6.77626e-21 -0.0124311 0.00323665 0.00134268 -0.00026565 1.05467e-05
0 0.0124312 0.00323666 -6.08565e-05 1.24647e-05 5.90233e-07
-6.77626e-21 -0.0124456 0.00328913 0 0 0
6.77626e-21 0.0124456 0.00328914 0 0 0
0 -0.0124806 0.00330747 0 0 0
0 0.0124806 0.00330748 0 0 0
0 -0.012495 0.00327721 0.00131745 -0.000237928 -1.26864e-06
0 0.012495 0.00327723 -5.67559e-05 1.10682e-05 3.87988e-07
0 -0.0127373 0.00217209 0.0283864 -0.00494156 5.67132e-05
-5.42101e-20 0.0127373 0.00217209 -0.00116989 0.000231347 7.76881e-06
-1.69407e-21 -0.0129741 5.65819e-12 0 0 0
1.69407e-21 0.0129741 5.65714e-12 0 0 0
0 -0.0129746 9.31075e-06 0.000216139 -3.73892e-05 -1.34201e-06
1.69407e-21 0.0129746 9.29611e-06 -3.02066e-07 3.98524e-08 -1.77646e-08
0 -0.0126307 0.00298498 0.0121602 -0.00219481 1.26161e-05
0 0.0126307 0.00298499 -0.000527945 0.00010447 4.279e-06
-1.69407e-21 -0.0129857 3.6289e-12 0 0 0
0 0.0129857 3.6307e-12 0 0 0
1.69407e-21 0.0129965 7.57985e-06 -1.73458e-07 3.11265e-08 7.67955e-09
-1.69407e-21 -0.0129965 7.59166e-06 0.000194891 -2.27621e-05 -1.60258e-06
-1.69407e-21 0.0129967 3.57671e-12 0 0 0
-3.38813e-21 -0.0129967 3.57485e-12 0 0 0
-8.47033e-22 0.0130091 0.000523313 -0.00033896 7.37204e-05 3.26825e-06
2.82344e-22 -0.0130091 0.000523311 0.0134743 -0.00226654 -1.9892e-05
-1.05879e-22 0.0130269 0.00111835 -0.000933586 0.000197558 4.66182e-06
-7.41154e-22 -0.0130272 0.00111832 0.0255986 -0.00452811 -1.81036e-05
0 -0.0127919 0.00274345 0.020318 -0.00361137 6.61926e-05
2.71051e-20 0.0127919 0.00274346 -0.000875128 0.000171515 7.70213e-06
1.05879e-22 0.0130596 0.00107364 -0.000898563 0.00019102 4.48744e-06
7.41154e-22 -0.0130596 0.001074 0.0249434 -0.00440576 -1.84069e-05
-2.11758e-22 0.0130622 0.00111376 -0.000940139 0.000199732 4.57608e-06
0 -0.0130642 0.00111354 0.025787 -0.00456305 -1.8369e-05
0 -0.0127558 0.00321819 0.00815556 -0.00141563 -6.40673e-05
0 0.0127558 0.0032182 -0.000348032 6.8028e-05 1.77554e-06
-1.69407e-21 -0.0131793 2.72144e-12 0 0 0
0 0.0131795 2.72155e-12 0 0 0
-5.99982e-22 0.0130717 0.00181695 -0.00126959 0.000259126 3.95471e-06
0 -0.0130717 0.00181692 0.0314307 -0.0055352 1.68406e-06
6.77626e-21 -0.012831 0.00349155 0 0 0
6.77626e-21 0.0128311 0.00349157 0 0 0
0 -0.0128493 0.00346319 0.00132141 -0.000238644 -1.27245e-06
6.77626e-21 0.0128494 0.00346321 -5.69227e-05 1.11007e-05 3.89129e-07
5.42101e-20 0.0133093 0.000237076 -6.60149e-06 1.88533e-06 -1.09728e-06
0 -0.0133094 0.00023707 0.006217 -0.000760067 -1.44657e-05
-7.05861e-22 -0.0130828 0.00247294 0.0286008 -0.00499995 2.41405e-05
-4.23516e-22 0.0130828 0.00247294 -0.00120557 0.00024105 7.63701e-06
-6.77626e-21 -0.0128661 0.00350997 0 0 0
0 0.0128662 0.00350999 0 0 0
0 -0.0129007 0.00352804 0 0 0
-6.77626e-21 0.0129008 0.00352806 0 0 0
-2.71051e-20 0.0133556 0.00075963 -0.000670085 0.000160368 6.75682e-06
0 -0.0133557 0.000759628 0.0211575 -0.00373305 -3.37785e-05
0 -0.0129237 0.00348634 0.00208692 -0.000359592 2.17382e-05
6.77626e-21 0.0129237 0.00348637 -8.76106e-05 1.8952e-05 1.43375e-06
0 -0.0130384 0.00304619 0.0173037 -0.00303602 1.68817e-05
1.69407e-21 0.0130384 0.0030462 -0.00074143 0.000149252 6.85637e-06
-2.71051e-20 0.013427 0.001376 -0.0012927 0.000278298 -3.73996e-06
0 -0.013427 0.00137599 0.0329074 -0.00583633 -1.40687e-05
2.71051e-20 -0.0134136 0.00210978 0.0372374 -0.00650694 -2.35446e-05
2.71051e-20 0.0134136 0.00210979 -0.0015466 0.000315691 3.65198e-06
2.71051e-20 -0.0132269 0.00336666 0.0127972 -0.0022732 8.24351e-05
0 0.0132269 0.00336668 -0.000538637 0.0001165 7.44408e-06
0 0.013648 0.000454486 -0.000279315 7.23377e-05 -1.63466e-06
0 -0.013648 0.000454497 0.0135661 -0.00213614 4.7626e-05
-2.71051e-20 -0.0133902 0.00280379 0.0297582 -0.00516132 -7.77904e-06
0 0.0133902 0.0028038 -0.00128224 0.000256589 1.12531e-05
3.38813e-21 0.0137151 2.8075e-13 0 0 0
3.38813e-21 -0.0137152 2.80907e-13 0 0 0
0 0.0137159 2.06276e-05 -6.79903e-07 2.45835e-07 -2.15454e-07
0 -0.013716 2.06975e-05 0.000554572 -7.07919e-05 1.93967e-06
0 0.0137165 0.000169655 -8.69461e-05 2.37423e-05 9.2304e-08
6.77626e-21 -0.0137166 0.000170015 0.00483231 -0.000747835 2.55689e-05
-3.38813e-21 0.0137459 2.40788e-14 0 0 0
-3.38813e-21 -0.0137461 2.3368e-14 0 0 0
0 -0.013245 0.00370834 0 0 0
0 0.0132451 0.00370836 0 0 0
0 0.0137656 1.52129e-05 -3.0081e-07 7.76647e-08 -2.76181e-07
3.38813e-21 -0.0137659 1.52648e-05 0.000443361 -6.27256e-05 4.4028e-05
0 0.0137671 1.75123e-14 0 0 0
0 -0.0137675 1.67966e-14 0 0 0
6.77626e-21 -0.0132718 0.0036714 0.00197972 -0.00034112 2.06216e-05
0 0.0132719 0.00367142 -8.31025e-05 1.79768e-05 1.35998e-06
0 -0.0132782 0.00372571 0 0 0
0 0.0132783 0.00372573 0 0 0
-1.12938e-21 0.0137896 0.000885059 -0.000784833 0.000186153 -1.80543e-05
0 -0.0137896 0.000885057 0.0244402 -0.00418761 -2.20441e-05
-6.77626e-21 0.0138204 1.18218e-14 0 0 0
0 -0.0138208 1.11447e-14 0 0 0
0 -0.0133096 0.00374322 0 0 0
6.77626e-21 0.0133097 0.00374323 0 0 0
6.77626e-21 -0.0133282 0.00371043 0.00182195 -0.000321345 7.25054e-06
-6.77626e-21 0.0133283 0.00371044 -8.34935e-05 1.72192e-05 3.78979e-07
-2.82344e-22 0.0137515 0.00171046 -0.00154421 0.000327012 -1.92246e-05
8.47033e-22 -0.0137515 0.00171046 0.038322 -0.00674343 -2.50211e-05
0 0.0136783 0.0024632 -0.0016099 0.000323904 2.52973e-06
0 -0.0136788 0.00246319 0.03796 -0.00663453 7.29679e-06
-3.59989e-21 0.013721 0.00246185 -0.0016385 0.000329764 2.17029e-06
-9.74088e-21 -0.013721 0.00246186 0.038614 -0.00674876 6.162e-06
8.47033e-22 -0.0137186 0.00248611 0.0381705 -0.00667323 7.03029e-06
1.05879e-22 0.0137186 0.00248639 -0.00162071 0.00032618 2.36539e-06
-2.25875e-22 -0.0136619 0.00322322 0.0243272 -0.00431076 3.51985e-05
-4.51751e-22 0.0136619 0.00322323 -0.00107175 0.00021553 8.41111e-06
0 -0.013613 0.00362484 0.0118965 -0.00224022 4.66331e-05
2.71051e-20 0.013613 0.00362486 -0.000549068 0.00011452 3.45041e-06
-8.47033e-22 0.0141333 0.000318961 -1.61112e-05 4.85543e-06 2.15071e-05
2.82344e-22 -0.0141334 0.000318978 0.00966884 -0.00103683 8.24547e-06
2.71051e-20 0.014088 0.00127938 -0.00140217 0.000324377 -6.17984e-05
-2.71051e-20 -0.014088 0.00127938 0.0369423 -0.00658812 -1.86344e-05
0 0.014059 0.00206597 -0.00192286 0.00038918 -1.7888e-05
0 -0.014059 0.00206597 0.0460158 -0.00801511 -3.78334e-05
0 -0.0136636 0.00393548 0 0 0
-3.38813e-21 0.0136637 0.00393551 0 0 0
3.38813e-21 -0.0136786 0.00391516 0.00120811 -0.000213079 4.80772e-06
-3.38813e-21 0.0136787 0.00391521 -5.53292e-05 1.14107e-05 2.5114e-07
3.38813e-20 0.0142351 2.9685e-15 0 0 0
0 -0.0142352 2.82035e-15 0 0 0
-3.38813e-21 -0.0136842 0.00394696 0 0 0
0 0.0136843 0.00394697 0 0 0
3.38813e-21 -0.0137015 0.00395978 0 0 0
0 0.0137016 0.00395978 0 0 0
3.38813e-21 -0.0137143 0.00394396 0.00107455 -0.000207704 4.27375e-06
0 0.0137143 0.00394398 -4.90507e-05 1.0483e-05 6.79192e-07
2.71051e-20 -0.0140215 0.00281646 0.0419652 -0.0073995 8.97757e-05
-2.71051e-20 0.0140215 0.00281646 -0.00182229 0.000361783 1.01538e-05
-1.50584e-21 -0.013895 0.00367137 0.0172864 -0.00321355 5.53414e-05
-7.52918e-22 0.013895 0.00367138 -0.000791933 0.000160644 7.84537e-06
4.8626e-22 -0.0144216 0.000792956 0.0248301 -0.0041521 0.000153936
-1.56858e-22 0.0144216 0.000792939 -0.000733767 0.000161566 -3.04301e-05
0 -0.014453 3.04526e-16 0 0 0
2.71051e-20 0.0144531 3.07448e-16 0 0 0
0 0.0143962 0.00165212 -0.00180411 0.000380451 -4.23016e-05
-2.82344e-22 -0.0143962 0.00165211 0.0442875 -0.00788727 5.04175e-06
-2.71051e-20 -0.0140801 0.00343826 0.0289974 -0.00511681 -2.74724e-05
2.71051e-20 0.0140801 0.00343826 -0.00132569 0.000259135 1.07406e-05
-2.71051e-20 -0.0140066 0.00392192 0.0112791 -0.00233261 0.000146537
2.71051e-20 0.0140066 0.00392193 -0.000514792 0.000110864 9.44026e-06
2.03288e-20 0.0143632 0.00242485 -0.00213903 0.00042687 -4.41808e-06
2.58345e-20 -0.0143665 0.00242469 0.0491582 -0.0087256 2.04619e-05
-2.11758e-22 -0.0143623 0.00267349 0.0465759 -0.00826421 2.4118e-05
-2.11758e-22 0.0143623 0.00267458 -0.00205211 0.000407387 1.42737e-06
0 -0.0140362 0.00420868 0 0 0
0 0.0140362 0.00420869 0 0 0
0 -0.014043 0.00420183 0.000509029 -9.83926e-05 2.02454e-06
-1.69407e-21 0.014043 0.00420185 -2.32413e-05 4.96705e-06 3.21816e-07
-1.69407e-21 -0.0140443 0.00421476 0 0 0
1.69407e-21 0.0140444 0.00421477 0 0 0
0 0.0140522 0.00422058 0 0 0
0 -0.0140522 0.00422057 0 0 0
-1.69407e-21 0.0140564 0.00421301 -2.26345e-05 4.83125e-06 6.15845e-07
0 -0.0140564 0.004213 0.000436682 -9.04632e-05 8.66374e-06
-2.71051e-20 -0.0146839 -1.74587e-17 0 0 0
-2.71051e-20 0.014684 -1.48501e-17 0 0 0
0 -0.0143543 0.0031309 0.0417573 -0.00740231 3.15329e-05
-4.23516e-22 0.0143543 0.00313091 -0.00189019 0.000371145 1.22569e-05
0 -0.0143605 0.00313713 0.0417624 -0.00740362 3.1101e-05
0 0.0143548 0.00313704 -0.0018914 0.000371333 1.23006e-05
0 -0.0147037 0.000271518 0.0102897 -0.00146554 0.000270941
0 0.0147037 0.000271561 -1.87718e-05 5.53676e-06 1.29207e-05
0 0.014356 0.00330018 -0.00169891 0.000333209 1.32352e-05
-4.23516e-22 -0.014356 0.00330043 0.0372422 -0.00662334 5.98837e-05
0 0.0147328 0.00124141 -0.00156 0.0003401 -6.75798e-05
0 -0.0147328 0.00124141 0.0400629 -0.00720891 0.000133515
-6.35275e-22 -0.0146156 0.00238839 0.0521119 -0.00929978 2.26844e-05
0 0.0146171 0.00238816 -0.00231803 0.000461994 -1.0157e-06
0 0.0146909 0.00203584 -0.00231905 0.000465428 -2.20931e-05
0 -0.0146909 0.00203584 0.0538896 -0.0096826 -3.93879e-05
2.42009e-22 0.0143356 0.00382207 -0.00103331 0.000201731 1.50038e-05
4.43684e-22 -0.0143356 0.00382206 0.0218139 -0.0039506 0.000137892
0 -0.0143244 0.00417019 0.0100302 -0.00185593 0.000325429
0 0.0143244 0.0041702 -0.000525379 0.000102005 1.639e-05
8.47033e-22 -0.014279 0.00438886 0 0 0
-8.47033e-22 0.014279 0.00438882 0 0 0
-2.71051e-20 0.0146905 0.00275577 -0.00247591 0.000488 1.17647e-05
0 -0.0146905 0.00275577 0.0544643 -0.00975309 6.86433e-05
2.82344e-22 0.0149562 0.00165197 -0.00210701 0.000433835 -3.2445e-05
1.41172e-22 -0.0149585 0.00165056 0.0489079 -0.00880724 5.99598e-05
2.71051e-20 -0.0146586 0.00346816 0.0433908 -0.0076643 -4.60112e-07
0 0.0146586 0.00346816 -0.00201976 0.000392016 1.64531e-05
8.47033e-22 -0.0144053 0.00448257 0.000168169 -2.61866e-05 7.04513e-06
0 0.0144084 0.00447896 -8.60748e-06 1.4968e-06 3.26423e-07
-6.77626e-21 -0.0151189 -5.5903e-17 0 0 0
-3.38813e-21 0.0151192 -5.49994e-17 0 0 0
0 -0.0144514 0.00451673 0 0 0
-4.23516e-21 0.0144515 0.00451673 0 0 0
0 -0.0151608 3.48457e-05 0.00132698 -0.000229245 2.26004e-05
0 0.0151609 3.46302e-05 -1.27236e-05 5.98622e-08 -3.15268e-06
3.38813e-21 -0.0151663 -1.81511e-17 0 0 0
-3.38813e-21 0.0151663 -1.7962e-17 0 0 0
-3.38813e-21 -0.0145673 0.00422607 0.015877 -0.00282304 0.00030622
2.63521e-21 0.0145673 0.00422607 -0.000793086 0.000149304 2.1097e-05
0 0.0151841 -1.09408e-17 0 0 0
-3.38813e-21 -0.0151841 -1.0993e-17 0 0 0
0 -0.0151655 0.000867912 0.0283051 -0.00498412 0.000263899
0 0.0151655 0.000867909 -0.000863824 0.00017418 -2.1868e-05
3.38813e-21 0.0152147 -1.10521e-17 0 0 0
0 0.0152148 2.27204e-05 -5.72861e-06 8.11829e-07 -4.99993e-08
3.38813e-21 -0.015215 -1.11033e-17 0 0 0
0 -0.015215 2.28647e-05 0.000930368 -0.000182364 5.54405e-06
2.71051e-20 -0.0147125 0.00402551 0.0275299 -0.00487916 0.000257194
2.71051e-20 0.0147125 0.00402552 -0.00135187 0.000252675 2.83305e-05
-4.23516e-22 -0.0150841 0.00231349 0.0576308 -0.0103732 2.64555e-05
0 0.0150841 0.0023135 -0.00264861 0.000526863 5.053e-06
0 -0.0150901 0.00232073 0.0576791 -0.0103821 2.70614e-05
0 0.015084 0.00232059 -0.00265286 0.00052771 5.43168e-06
-1.41172e-22 -0.0149792 0.0031214 0.0553451 -0.00986022 3.46155e-05
-1.41172e-22 0.0149792 0.0031214 -0.00262132 0.000513761 2.25443e-05
2.71051e-20 -0.0146794 0.00445852 0.0103723 -0.0017984 0.000332577
5.42101e-20 0.0146795 0.00445852 -0.000516415 9.62073e-05 1.87085e-05
0 0.0149711 0.00367516 -0.00214473 0.000415914 2.64659e-05
2.11758e-22 -0.0149711 0.00367537 0.0442282 -0.00782748 6.72065e-05
0 0.0149706 0.00377567 -0.00205711 0.00039793 2.71837e-05
0 -0.0149706 0.00377568 0.0421891 -0.00745465 7.31563e-05
6.77626e-21 -0.0147268 0.00472094 0 0 0
0 0.0147268 0.00472094 0 0 0
0 -0.0147397 0.0047038 0.00124757 -0.000256051 2.93403e-05
6.77626e-21 0.0147397 0.0047038 -6.28339e-05 1.28319e-05 1.88763e-06
6.77626e-21 -0.0147494 0.00473773 0 0 0
6.77626e-21 0.0147494 0.00473773 0 0 0
8.47033e-22 -0.0150248 0.0037779 0.0436506 -0.00771507 7.08969e-05
-8.47033e-22 0.0150249 0.0037779 -0.00214302 0.000415379 2.82706e-05
-6.77626e-21 -0.0147753 0.00475693 0 0 0
-6.77626e-21 0.0147753 0.00475692 0 0 0
0 0.0147957 0.00471952 -0.000130225 2.50032e-05 2.64043e-06
6.77626e-21 -0.0147957 0.00471952 0.00256103 -0.000394956 4.6337e-05
1.69407e-21 0.0149238 0.00432823 -0.00113391 0.000218154 2.17493e-05
0 -0.0149238 0.00432823 0.022811 -0.00394018 0.00017338
2.11758e-22 0.0149301 0.00431631 -0.00117029 0.000225135 2.24603e-05
-1.37643e-20 -0.0149308 0.00431431 0.0235442 -0.00406635 0.000179051
2.71051e-20 0.0153071 0.00276682 -0.00311903 0.000617008 2.62129e-05
0 -0.0153071 0.00276682 0.0652144 -0.0117624 5.05101e-06
2.75286e-21 -0.0149537 0.00432327 0.0240036 -0.00414591 0.000173465
-6.35275e-22 0.0149537 0.00432327 -0.00119686 0.000230662 2.26057e-05
2.71051e-20 -0.0152762 0.00345526 0.0582985 -0.0102649 6.18802e-05
-2.71051e-20 0.0152762 0.00345526 -0.00286896 0.000557928 3.5398e-05
0 0.015665 0.00170495 -0.00270263 0.000543466 8.06751e-06
0 -0.015665 0.00170495 0.0561364 -0.010173 0.000121121
-2.71051e-20 0.0150898 0.00463314 -0.000864486 0.000168632 1.60727e-05
-5.42101e-20 -0.0150898 0.00463315 0.0174081 -0.00268456 0.000171128
0 -0.0152566 0.00410558 0.0421624 -0.00746125 -4.55045e-05
2.71051e-20 0.0152566 0.00410558 -0.0021151 0.000414226 2.87689e-05
-2.11758e-22 0.0156482 0.00239974 -0.00335155 0.00066229 2.11988e-05
7.05861e-23 -0.0156482 0.00239974 0.0663948 -0.0119484 1.52506e-05
-6.77626e-21 0.0150378 0.00495165 0 0 0
6.77626e-21 -0.0150378 0.00495167 0 0 0
0 0.0158311 0.00050574 -0.000104536 2.04102e-05 6.08396e-07
1.0842e-19 -0.0158311 0.000505741 0.0208053 -0.00395832 5.92762e-05
-1.35525e-20 0.0150929 0.00489487 -0.000242168 4.64964e-05 4.91017e-06
1.35525e-20 -0.0150929 0.0048949 0.0047615 -0.000734308 8.61504e-05
0 0.0150892 0.00498978 0 0 0
0 -0.0150892 0.0049898 0 0 0
8.47033e-22 -0.015606 0.0031034 0.0672265 -0.0119872 1.47358e-05
-2.82344e-22 0.015606 0.0031034 -0.0034287 0.000673579 3.30368e-05
-6.77626e-21 0.0151439 0.00503033 0 0 0
6.77626e-21 -0.0151439 0.00503034 0 0 0
-1.35525e-20 -0.0151784 0.00496291 0.00473938 -0.000725373 7.54636e-05
-1.35525e-20 0.0151784 0.0049629 -0.000254019 5.49708e-05 6.12584e-06
2.25875e-22 0.0155884 0.00378776 -0.00304951 0.00059979 3.98209e-05
7.90564e-22 -0.0155884 0.00378777 0.058868 -0.0104332 5.47754e-05
-2.03288e-21 0.0155033 0.00450865 -0.00179848 0.000355478 2.63705e-05
-6.77626e-22 -0.0155033 0.00450866 0.0343915 -0.00593263 5.74559e-05
2.71051e-20 0.0154178 0.0049056 -0.00088102 0.00018558 1.59549e-05
-2.71051e-20 -0.0154178 0.0049056 0.0165709 -0.00260203 0.000154308
5.42101e-20 -0.0159469 0.00273841 0.0731654 -0.0131018 -4.44535e-05
0 0.0159469 0.00273841 -0.00390104 0.000763834 2.36479e-05
6.77626e-21 0.0153971 0.00521817 0 0 0
6.77626e-21 -0.0153971 0.00521817 0 0 0
0 -0.015903 0.0034351 0.0720165 -0.0127764 3.61295e-05
-2.71051e-20 0.015903 0.0034351 -0.0038172 0.000753125 4.64752e-05
0 0.0154387 0.00517349 -0.00020606 4.45923e-05 4.96928e-06
-6.77626e-21 -0.0154387 0.00517349 0.00384549 -0.000588561 6.12304e-05
0 -0.0154377 0.00524826 0 0 0
-6.77626e-21 0.0154377 0.00524826 0 0 0
1.27055e-21 0.0163339 -1.19726e-18 0 0 0
4.23516e-22 -0.0163364 -1.1809e-18 0 0 0
-6.77626e-21 0.0154764 0.00527696 0 0 0
0 -0.0154764 0.00527696 0 0 0
0 0.0155053 0.00524155 -0.000165007 3.23879e-05 1.59573e-06
0 -0.0155053 0.00524155 0.00314786 -0.000509755 -2.67127e-05
5.29396e-21 0.0163537 0.00112142 -0.00188761 0.000385592 1.02559e-05
-2.11758e-22 -0.0163543 0.00112154 0.0422036 -0.00760521 0.000103407
0 0.0158756 0.0041209 -0.00320578 0.000633506 4.569e-05
-2.71051e-20 -0.0158756 0.00412091 0.0606225 -0.0107784 0.000142727
3.74812e-20 0.0163741 0.00112742 -0.00190686 0.00038956 1.08139e-05
-3.02814e-20 -0.0163767 0.0011276 0.0424624 -0.00765421 0.000100441
0 -0.0156933 0.00495313 0.0242789 -0.00415184 -1.39811e-05
0 0.0156933 0.00495313 -0.00130196 0.00026135 1.89143e-05
0 0.0164702 3.16747e-06 -1.85459e-06 4.0138e-07 1.61521e-08
-4.23516e-22 -0.0164638 2.59234e-06 8.06581e-05 -1.438e-05 1.77368e-07
-2.25875e-21 0.0163214 0.00227442 -0.00394033 0.000788694 2.74476e-05
1.12938e-21 -0.0163214 0.00227441 0.0704316 -0.0126451 0.00011325
2.25875e-22 -0.0162376 0.00307739 0.0757361 -0.0135813 0.000126818
3.38813e-22 0.0162376 0.0030774 -0.00425731 0.000848474 4.24025e-05
0 0.0159046 0.00473208 -0.00223253 0.000435673 2.98886e-05
-2.71051e-20 -0.0159046 0.00473208 0.0410201 -0.00721199 -0.000128401
2.71051e-20 0.0157801 0.0052058 -0.000853827 0.000174996 1.2089e-05
-2.71051e-20 -0.0157801 0.00520581 0.0163512 -0.00283966 -6.84366e-05
5.64689e-22 0.0162469 0.00372972 -0.00409427 0.000818381 5.50192e-05
2.82344e-21 -0.0162469 0.00372972 0.0727769 -0.0130453 0.000164755
0 -0.0157746 0.00549809 0 0 0
0 0.0157746 0.00549809 0 0 0
0 -0.0158015 0.00547415 0.00243019 -0.000393537 -2.06226e-05
6.77626e-21 0.0158015 0.00547415 -0.000127375 2.50014e-05 1.2318e-06
0 0.015805 0.00552064 0 0 0
0 -0.015805 0.00552065 0 0 0
6.77626e-21 0.0158347 0.00554269 0 0 0
6.77626e-21 -0.0158347 0.00554271 0 0 0
0 0.015853 0.00551418 -0.000136553 2.90648e-05 2.3785e-06
6.77626e-21 -0.015853 0.00551419 0.00225308 -0.000443896 2.09132e-06
1.12938e-22 -0.0161981 0.00441892 0.0603286 -0.0107614 8.3598e-05
-1.24231e-21 0.0161981 0.00441892 -0.00337446 0.000669052 4.96709e-05
0 0.0166697 0.00284041 -0.00496116 0.000999166 4.47145e-05
0 -0.0166697 0.00284041 0.0812006 -0.0146088 0.000249776
2.25875e-22 -0.0161695 0.00510699 0.0336413 -0.00609448 5.17694e-05
0 0.0161695 0.00510699 -0.00192358 0.00038539 3.39866e-05
5.42101e-20 0.0166597 0.00328606 -0.00507574 0.00103195 6.27821e-05
-2.71051e-20 -0.0166597 0.00328606 0.0829943 -0.0150438 0.000368215
0 0.0165248 0.00409519 -0.00446951 0.00089631 6.49413e-05
-5.42101e-20 -0.0165248 0.00409519 0.0770286 -0.0138878 0.000151041
0 0.0161207 0.00547662 -0.000895455 0.000193244 2.2901e-05
0 -0.0161207 0.00547663 0.0147451 -0.00302135 0.000158818
5.42101e-20 -0.0170334 0.00057692 0.0281078 -0.0049114 6.08938e-05
0 0.0170334 0.000576921 -0.00101674 0.000215316 5.19295e-06
-2.11758e-22 -0.0168873 0.00239015 0.0769277 -0.0138768 0.000280345
0 0.0168875 0.00239019 -0.0047415 0.000969902 4.83373e-05
0 0.0169716 0.00176735 -0.00390219 0.000798797 2.97488e-05
0 -0.0169716 0.00176735 0.0661794 -0.0118219 0.000165003
0 -0.0169175 0.00239894 0.0772805 -0.0139432 0.000289128
-2.11758e-22 0.0169179 0.00239497 -0.00478469 0.000979604 4.94382e-05
0 0.0169439 0.00239537 -0.00481283 0.000985275 4.95206e-05
-2.11758e-22 -0.016944 0.00239536 0.0774051 -0.0139623 0.000290005
0 0.0168719 0.00305894 -0.00530493 0.00108404 5.75928e-05
0 -0.0168719 0.00305894 0.0838674 -0.0151796 0.000334308
0 -0.0161674 0.00578952 0 0 0
0 0.0161674 0.00578953 0 0 0
2.71051e-20 0.0165034 0.00475626 -0.00353137 0.000698596 5.8596e-05
2.71051e-20 -0.0165034 0.00475626 0.0615508 -0.0109729 0.000164639
0 -0.0161836 0.0057701 0.00168392 -0.00033176 1.56302e-06
0 0.0161836 0.00577012 -0.000102018 2.17141e-05 1.77696e-06
6.77626e-21 -0.0161897 0.00580604 0 0 0
0 0.0161897 0.00580604 0 0 0
0 0.0162121 0.00582274 0 0 0
0 -0.0162122 0.00582275 0 0 0
0 0.0162243 0.00580495 -9.78427e-05 2.20707e-05 3.58522e-06
-6.77626e-21 -0.0162243 0.00580495 0.00165769 -0.000368414 4.1574e-05
-1.12938e-22 -0.0168523 0.00374134 0.0837676 -0.0151163 0.000221668
0 0.0168523 0.00374134 -0.00525544 0.00105877 5.70048e-05
-4.23516e-22 0.0163973 0.00553969 -0.001424 0.000295108 3.72047e-05
0 -0.0163973 0.00553969 0.0235964 -0.00461204 0.000250362
0 -0.0170978 0.00283719 0.0845867 -0.015376 0.000400525
2.71051e-20 0.0170978 0.00283718 -0.00553556 0.001144 7.01864e-05
2.71051e-20 -0.0170665 0.00327483 0.0869301 -0.0157068 0.000287808
2.71051e-20 0.0170665 0.00327483 -0.00570711 0.00116936 5.19279e-05
2.71051e-20 0.0165625 0.00532761 -0.00239667 0.00047947 4.98919e-05
0 -0.0165626 0.0053276 0.039729 -0.00729482 0.000118708
-2.82344e-22 0.0168336 0.0044175 -0.00475233 0.000944422 6.00406e-05
2.82344e-22 -0.0168336 0.00441751 0.0769793 -0.0138327 0.000145333