# UMean  POINT_DATA 38356
# x  y  z  UMean_x  UMean_y  UMean_z
0.057587 -6.77626e-21 1.35324e-07 0 0 0
-0.057587 6.77626e-21 1.35324e-07 0 0 0
0.0575869 0 0.000409945 0 0 0
-0.0575869 -3.38813e-21 0.000409945 0 0 0
0.0575869 1.69407e-21 0.000633502 0 0 0
-0.0575869 0 0.000633503 0 0 0
0.0575868 0 0.00104356 0 0 0
-0.0575868 6.77626e-21 0.00104356 0 0 0
0.0575868 3.38813e-21 0.00145414 0 0 0
-0.0575868 0 0.00145414 0 0 0
0.0575868 -1.69407e-21 0.00167624 0 0 0
-0.0575868 -3.38813e-21 0.00167624 0 0 0
0.0575868 0 0.002087 0 0 0
-0.0575868 0 0.002087 0 0 0
0.0577687 6.77626e-21 0.000993828 -2.39235e-05 6.19659e-06 -2.13573e-07
-0.0577687 6.77626e-21 0.00099383 0.000390455 -7.97497e-05 -6.73171e-06
0.0577684 0 0.00110475 -4.0466e-05 8.5423e-06 1.28692e-07
-0.0577684 0 0.00110475 0.000535788 -9.69733e-05 2.32434e-06
0.0577859 0 0.000103253 -2.61571e-05 6.77513e-06 -2.33513e-07
-0.0577859 0 0.000103251 0.000426911 -8.71956e-05 -7.36022e-06
0.0577942 0 1.15393e-07 0 0 0
-0.0577942 0 1.15393e-07 0 0 0
0.0578027 -6.77626e-21 1.9009e-05 -5.71374e-07 5.35132e-08 -9.16587e-09
-0.0578027 0 1.90089e-05 0.000169507 -2.30825e-05 1.86948e-06
-0.0578191 0 1.14264e-07 0 0 0
0.0578191 6.77626e-21 1.14264e-07 0 0 0
0.0577854 0 0.00199428 -4.42579e-05 9.34277e-06 1.40751e-07
-0.0577854 0 0.00199429 0.000585997 -0.000106061 2.54215e-06
0.0577823 0 0.002105 0 0 0
-0.0577823 0 0.002105 0 0 0
-0.0578229 -6.77626e-21 0.00105089 0.000613801 -0.000117699 2.19045e-06
0.057823 -6.77626e-21 0.00105089 -4.29577e-05 8.09113e-06 3.4057e-07
0.0578007 6.77626e-21 0.00208013 -2.83096e-05 4.62088e-06 -4.18472e-07
-0.0578007 -6.77626e-21 0.00208013 0.00038332 -5.85126e-05 2.31966e-06
-0.0578427 0 5.77437e-05 0.000440242 -8.71665e-05 -6.86424e-06
0.0578427 0 5.77443e-05 -2.52791e-05 5.09638e-06 -5.55259e-07
-0.0578443 6.77626e-21 1.78361e-05 0.000192329 -2.89893e-05 2.52858e-06
0.0578443 0 1.78361e-05 -5.53836e-07 1.84376e-07 -6.60012e-08
-0.0578469 6.77626e-21 1.13152e-07 0 0 0
0.0578469 0 1.13152e-07 0 0 0
-0.0578171 0 0.00210819 0 0 0
0.0578171 0 0.00210819 0 0 0
-0.0578434 0 0.00204429 0.000624557 -0.000121017 1.39274e-05
0.0578434 0 0.00204429 -4.63755e-05 8.8067e-06 1.30373e-06
-0.0578462 0 0.00208444 0.000446213 -6.71682e-05 6.53688e-06
0.0578462 6.77626e-21 0.00208444 -3.32857e-05 5.2343e-06 3.95051e-07
-0.0578583 6.77626e-21 0.00211199 0 0 0
0.0578583 0 0.00211199 0 0 0
-0.0579123 3.38813e-21 0.000912365 0.000767753 -0.000160643 -1.9803e-05
0.0579123 0 0.000912358 -4.62745e-05 8.7587e-06 4.76057e-07
-0.0579215 0 5.62241e-05 0.000208884 -5.90965e-05 2.67205e-05
0.0579215 6.77626e-21 5.62242e-05 -1.23398e-06 1.03342e-07 1.00464e-06
-0.0579145 6.77626e-21 0.0011972 0.00106876 -0.000210307 4.87022e-05
0.0579145 3.38813e-21 0.00119721 -8.03846e-05 1.55468e-05 3.33434e-06
0.0579296 -6.77626e-21 1.06809e-07 0 0 0
-0.0579296 6.77626e-21 1.06809e-07 0 0 0
-0.057935 -3.38813e-21 0.000246015 0.000820934 -0.00017177 -2.11747e-05
0.0579351 0 0.000246023 -4.94797e-05 9.36536e-06 5.09031e-07
-0.0579259 -6.77626e-21 0.00205416 0.000681333 -0.000167336 3.97658e-05
0.0579259 6.77626e-21 0.00205416 -5.22442e-05 1.28405e-05 3.32763e-06
-0.0579372 -6.77626e-21 0.00186079 0.00114275 -0.000224867 5.2074e-05
0.0579372 -1.01644e-20 0.00186077 -8.59494e-05 1.6623e-05 3.56516e-06
-0.057965 0 0.00212181 0 0 0
0.0579651 0 0.00212181 0 0 0
0.0580744 -3.38813e-21 1.10802e-07 0 0 0
-0.0580744 -3.38813e-21 1.10803e-07 0 0 0
0.0581721 -4.51751e-21 0.0006106 -8.45443e-05 1.60023e-05 8.69765e-07
-0.0581721 -2.25875e-21 0.0006106 0.00140272 -0.000293503 -3.61811e-05
0.0581735 2.25875e-21 0.00151344 -0.000146287 2.82926e-05 6.06794e-06
-0.0581735 4.51751e-21 0.00151345 0.00194503 -0.000382738 8.8633e-05
-0.0581926 -3.38813e-21 0.00214274 0 0 0
0.0581927 2.5411e-21 0.00214276 0 0 0
-0.058277 1.01644e-20 1.16392e-07 0 0 0
0.058277 1.35525e-20 1.16392e-07 0 0 0
-0.0583193 -1.35525e-20 0.000122998 0.000457391 -0.000129403 5.85097e-05
0.0583193 0 0.000122997 -2.70202e-06 2.26286e-07 2.19983e-06
0.0582823 -1.18585e-20 0.002151 0 0 0
-0.0582823 5.0822e-21 0.002151 0 0 0
-0.0583281 -1.35525e-20 0.00201521 0.00148949 -0.00036582 8.69334e-05
0.0583281 -1.35525e-20 0.0020152 -0.00011421 2.80703e-05 7.27443e-06
-0.0583808 2.71051e-20 0.000286504 0.00163108 -0.000334059 -2.72188e-05
0.0583808 0 0.000286506 -0.000100151 2.06823e-05 -3.34687e-06
-0.058383 0 0.00106968 0.00269959 -0.00050237 2.2068e-05
0.058383 0 0.00106967 -0.00018993 3.50562e-05 1.69977e-06
-0.0583862 0 0.00185761 0.00243225 -0.000484096 8.09534e-05
0.0583862 0 0.00185759 -0.000181601 3.58178e-05 8.03515e-06
0.0584351 -2.71051e-20 1.20751e-07 0 0 0
-0.0584351 0 1.20752e-07 0 0 0
-0.0584722 -2.71051e-20 0.00216847 0 0 0
0.0584722 -1.35525e-20 0.00216848 0 0 0
0.0585878 1.8823e-22 0.000684239 -0.000136922 2.23881e-05 4.00213e-09
-0.0585878 9.41148e-22 0.00068424 0.00216067 -0.000332665 4.19539e-05
-0.0586022 -3.38813e-21 0.000178774 0.000380659 -3.72795e-05 6.91902e-06
0.0586022 -3.38813e-21 0.000178774 -3.36103e-06 -2.07575e-06 1.65422e-06
0.0585913 -1.8823e-21 0.00147248 -0.000233592 3.76917e-05 3.58914e-06
-0.0585913 1.12938e-21 0.00147248 0.00310638 -0.000497652 4.36975e-05
0.0586254 -3.38813e-21 8.46296e-05 -1.59016e-06 -9.82071e-07 7.82638e-07
-0.0586254 0 8.46309e-05 0.000180098 -1.76377e-05 3.27354e-06
0.0586312 1.01644e-20 9.46986e-08 0 0 0
-0.0586312 1.69407e-20 9.46999e-08 0 0 0
-0.058614 -3.38813e-21 0.00198107 0.00211703 -0.000425314 8.09418e-05
0.058614 -3.38813e-21 0.00198105 -0.000160079 3.20703e-05 7.27655e-06
-0.0586388 3.38813e-21 0.00205711 0.00133812 -0.00026883 5.11612e-05
0.0586389 -3.38813e-21 0.00205707 -0.000101204 2.02752e-05 4.60032e-06
-0.0586526 -2.03288e-20 0.00218507 0 0 0
0.0586526 2.71051e-20 0.00218507 0 0 0
-0.0587868 0 7.40296e-08 0 0 0
0.0587868 1.35525e-20 7.4028e-08 0 0 0
0.0587871 0 0.00108477 -0.000259709 4.65315e-05 1.91989e-06
-0.0587871 0 0.00108477 0.00364876 -0.000647423 3.82339e-05
0.0588138 0 0.00041924 -0.000156199 2.70942e-05 5.04371e-08
-0.0588138 0 0.000419239 0.0025046 -0.000421015 4.06914e-05
0.0587904 -1.35525e-20 0.00219775 0 0 0
-0.0587904 0 0.00219775 0 0 0
0.0588211 0 0.00175686 -0.000269316 4.87645e-05 3.96708e-06
-0.0588211 1.35525e-20 0.00175688 0.00359056 -0.000642591 3.3126e-05
0.0589944 -2.25875e-21 0.00075431 -0.000185332 3.08206e-05 -1.07888e-06
-0.0589944 -6.77626e-21 0.000754313 0.00308131 -0.000497752 4.59893e-05
0.0589984 -4.51751e-21 0.00142978 -0.000306928 5.24199e-05 -1.8215e-07
-0.0589984 -9.03502e-21 0.00142979 0.0041117 -0.000720646 2.2916e-05
0.059008 6.77626e-21 0.00221778 0 0 0
-0.0590081 6.77626e-21 0.00221778 0 0 0
-0.0590549 1.35525e-20 8.3519e-08 0 0 0
0.0590549 0 8.35176e-08 0 0 0
-0.0590696 0 0.000188904 0.00123843 -0.000141667 4.69044e-06
0.0590696 0 0.000188898 -5.9862e-06 -5.52785e-08 -4.68438e-07
-0.0590838 -2.71051e-20 8.57398e-08 0 0 0
0.0590838 -1.35525e-20 8.57395e-08 0 0 0
0.05908 0 0.00199667 -0.000227906 4.00281e-05 -2.03767e-08
-0.05908 0 0.00199668 0.00297246 -0.000585145 2.72889e-05
0.059078 6.77626e-21 0.00212677 -9.75168e-05 1.71273e-05 -8.71881e-09
-0.059078 0 0.00212682 0.00127134 -0.00025027 1.16716e-05
-0.0591578 6.77626e-21 0.00223156 0 0 0
0.0591578 6.77626e-21 0.00223157 0 0 0
-0.0593378 2.71051e-20 9.41278e-08 0 0 0
0.0593379 5.42101e-20 9.41279e-08 0 0 0
-0.0593529 2.25875e-21 0.000581993 0.00321199 -0.000561704 3.00176e-05
0.0593529 -4.51751e-21 0.00058199 -0.000182254 3.21892e-05 -7.43378e-07
-0.0593596 -1.12938e-21 0.00110181 0.00480401 -0.000862277 1.41368e-05
0.0593596 -2.25875e-21 0.0011018 -0.000337878 6.10247e-05 -1.06341e-06
-0.0593591 -2.25875e-21 0.00162171 0.00465794 -0.000847218 -3.88608e-06
0.0593591 0 0.0016217 -0.000350683 6.34234e-05 -8.71714e-07
0.059356 0 0.0022498 0 0 0
-0.059356 4.06576e-20 0.0022498 0 0 0
0.0594899 0 0.00226213 0 0 0
-0.05949 -1.35525e-20 0.00226213 0 0 0
-0.0596053 0 7.49137e-08 0 0 0
0.0596053 -3.38813e-21 7.49138e-08 0 0 0
-0.0596378 -3.38813e-21 6.7265e-05 0.000491078 -9.65949e-05 8.73662e-07
0.0596378 1.35525e-20 6.7278e-05 -2.1101e-06 2.66614e-07 -5.30902e-08
-0.0596391 0 0.000281382 0.00175579 -0.000340897 4.25449e-06
0.0596391 0 0.000281382 -2.34824e-05 3.81702e-06 -3.02387e-07
-0.0596522 -1.35525e-20 0.000750556 0.00478598 -0.000874807 1.18874e-05
0.0596522 -1.35525e-20 0.000750553 -0.000311841 5.74548e-05 2.80585e-08
-0.0596652 0 7.43487e-08 0 0 0
0.0596653 1.01644e-20 7.43486e-08 0 0 0
-0.0596556 -1.35525e-20 0.00146976 0.00591483 -0.00106003 -2.85346e-05
0.0596556 0 0.00146976 -0.000442987 8.14464e-05 -5.00543e-07
-0.0596502 -1.12938e-21 0.00197793 0.00372336 -0.000723307 1.36344e-05
0.0596502 1.12938e-21 0.00197792 -0.000285813 5.54758e-05 2.67532e-06
-0.0598453 6.77626e-21 0.00229482 0 0 0
0.0598454 -1.35525e-20 0.00229483 0 0 0
0.0599214 -2.71051e-20 5.8673e-08 0 0 0
-0.0599214 2.71051e-20 5.86732e-08 0 0 0
-0.0599318 0 0.000596737 0.00405761 -0.000741331 -1.27774e-07
0.0599318 -2.25875e-21 0.000596735 -0.000227018 4.14013e-05 -4.41946e-07
-0.0599376 -1.12938e-21 0.00163636 0.0059497 -0.0010781 -3.32967e-05
0.0599376 -1.12938e-21 0.00163637 -0.000450684 8.33761e-05 -8.72057e-07
0.0599523 3.38813e-22 0.00111691 -0.00044637 8.15087e-05 -8.61117e-07
-0.0599523 1.12938e-22 0.00111691 0.00629386 -0.00112865 -2.55334e-05
-0.0599299 2.71051e-20 0.00230261 0 0 0
0.0599299 0 0.00230261 0 0 0
0.059989 6.77626e-21 0.00230805 0 0 0
-0.059989 -6.77626e-21 0.00230805 0 0 0
-0.0601336 -1.35525e-20 6.56213e-08 0 0 0
0.0601336 0 6.56212e-08 0 0 0
0.0602132 1.12938e-21 0.000252409 -1.41202e-05 2.43409e-06 -1.94198e-07
-0.0602132 0 0.00025241 0.0020598 -0.000382919 1.75328e-05
0.0602294 4.06576e-20 0.000784297 -0.000399382 7.20319e-05 -1.10772e-06
-0.0602294 -1.35525e-20 0.000784301 0.00603746 -0.00107857 -2.99993e-05
-0.0602309 -2.71051e-20 0.00146539 0.00728654 -0.00129365 -5.14658e-05
0.0602309 0 0.00146538 -0.000550647 9.99123e-05 -2.30469e-06
0.0602724 -1.35525e-20 6.43014e-08 0 0 0
-0.0602724 0 6.43015e-08 0 0 0
0.0602424 1.41172e-22 0.00197213 -0.000380872 7.28493e-05 -2.23312e-06
-0.0602424 5.64689e-22 0.00197212 0.00490038 -0.000918768 -5.24608e-05
-0.060476 0 6.96067e-08 0 0 0
0.060476 0 6.96065e-08 0 0 0
0.0604796 -2.25875e-21 0.000600001 -0.000263854 4.71775e-05 -1.5852e-06
-0.0604796 7.52918e-22 0.000600003 0.00484045 -0.000852565 -2.47318e-05
-0.0604927 1.90582e-20 0.00235439 0 0 0
0.0604959 0 0.00235469 0 0 0
0.0605079 0 0.00234001 -1.76619e-05 3.0035e-06 -4.09393e-07
-0.060508 0 0.00233988 0.000232181 -3.89309e-05 -2.84903e-06
-0.0605575 -2.25875e-21 0.0011318 0.00760561 -0.00132999 -4.56105e-05
0.0605575 -1.12938e-21 0.00113179 -0.000541542 9.497e-05 -2.00446e-06
-0.0605507 0 0.00162686 0.00725278 -0.00127069 -3.7826e-05
0.0605507 0 0.00162685 -0.000549509 9.75458e-05 -2.35675e-06
0.0605441 -1.27055e-21 0.00235913 0 0 0
-0.0605446 4.23516e-22 0.00235917 0 0 0
-0.0606726 0 5.84249e-08 0 0 0
0.0606726 1.35525e-20 5.84249e-08 0 0 0
0.0608243 -1.03526e-21 0.0002887 -1.93474e-05 2.7353e-06 -2.85163e-07
-0.0608243 8.47033e-22 0.000288701 0.00265634 -0.000381927 2.0494e-05
-0.0608389 4.51751e-21 0.00196303 0.00612852 -0.00104457 -4.95418e-05
0.0608389 -1.12938e-21 0.00196301 -0.000468967 8.04606e-05 -7.54888e-06
0.0608907 1.35525e-20 5.77037e-08 0 0 0
-0.0608907 1.35525e-20 5.77037e-08 0 0 0
0.061022 0 0.000858041 -0.000524056 8.90863e-05 -4.96717e-06
-0.061022 9.03502e-21 0.000858044 0.00783124 -0.00137647 -8.11283e-05
0.0610196 -1.35525e-20 0.0014351 -0.000681772 0.000116002 1.79748e-06
-0.0610196 -4.51751e-21 0.00143511 0.0091238 -0.00158683 1.08343e-05
0.0610807 0 4.80731e-08 0 0 0
-0.0610807 -2.71051e-20 4.80731e-08 0 0 0
0.0610587 -3.38813e-21 0.00240648 0 0 0
-0.0610588 0 0.00240649 0 0 0
0.0610729 3.38813e-21 0.00238496 -3.92777e-05 7.6858e-06 8.58889e-08
-0.061073 -3.38813e-21 0.002385 0.000479203 -9.60882e-05 4.4202e-06
-0.0610955 0 0.00240987 0 0 0
0.0610955 -3.38813e-21 0.00240986 0 0 0
-0.0610995 0 0.00235733 0.000838097 -0.000150824 3.0363e-06
0.0610995 3.38813e-21 0.00235725 -6.31395e-05 1.15727e-05 1.99565e-07
-0.0611234 0 0.0023884 0.000547949 -0.000111598 6.18983e-06
0.0611234 0 0.00238837 -4.41006e-05 8.81983e-06 2.0189e-07
-0.0611363 3.38813e-21 0.00241362 0 0 0
0.0611364 0 0.00241362 0 0 0
-0.0612633 0 0.000606688 0.00583324 -0.00109934 -6.62221e-05
0.0612633 0 0.000606686 -0.000318621 6.28859e-05 -4.68223e-06
0.0612584 2.71051e-20 0.00172056 -0.000604201 0.000113307 6.5509e-06
-0.0612584 0 0.00172055 0.00799335 -0.00147712 7.45356e-05
0.0612897 0 0.00114617 -0.000635563 0.000118704 1.36278e-06
-0.0612897 2.71051e-20 0.00114617 0.00902768 -0.00165501 -4.41059e-06
-0.0613382 -2.71051e-20 3.75146e-08 0 0 0
0.0613382 -2.71051e-20 3.7514e-08 0 0 0
-0.0614691 1.41172e-22 0.000272853 0.0030138 -0.000462404 2.64805e-05
0.0614691 -1.8823e-22 0.000272849 -1.42338e-05 3.99654e-06 -8.32312e-07
-0.0614658 -3.38813e-21 0.00200447 0.00709895 -0.00126051 3.97389e-06
0.0614659 -7.90564e-21 0.00200446 -0.000535885 9.81388e-05 -2.76851e-06
-0.0615061 -1.35525e-20 3.67859e-08 0 0 0
0.0615061 1.35525e-20 3.67852e-08 0 0 0
-0.0615545 -6.77626e-21 0.000876319 0.00874613 -0.00161359 -6.68916e-07
0.0615545 2.25875e-21 0.000876318 -0.000582498 0.000111571 2.82252e-06
-0.0615509 -9.03502e-21 0.00144997 0.0101926 -0.00185331 3.67908e-05
0.0615509 -9.03502e-21 0.00144997 -0.00075951 0.000140321 6.48591e-06
0.061707 -3.38813e-21 0.00246613 0 0 0
-0.0617071 0 0.00246613 0 0 0
0.0617173 0 0.00245301 -2.57787e-05 5.15556e-06 1.18013e-07
-0.0617173 3.38813e-21 0.00245302 0.000320541 -6.52833e-05 3.62095e-06
-0.0617319 0 0.00246842 0 0 0
0.0617319 0 0.00246843 0 0 0
-0.0617337 0 0.00243692 0.000533168 -9.64979e-05 2.05066e-06
0.0617337 0 0.00243691 -4.01854e-05 7.52123e-06 2.13957e-07
-0.061748 0 0.00245429 0.000381462 -7.42867e-05 6.61977e-06
0.061748 0 0.00245428 -3.0442e-05 6.59857e-06 4.77033e-07
-0.0617555 -3.38813e-21 0.00247059 0 0 0
0.0617555 -3.38813e-21 0.00247059 0 0 0
0.0618119 0 0.000576099 -0.000342385 6.79319e-05 -2.59916e-06
-0.0618119 0 0.000576101 0.00634857 -0.00119781 1.30182e-06
-0.0618206 0 1.81838e-08 0 0 0
0.0618207 -2.71051e-20 1.81818e-08 0 0 0
-0.0618057 0 0.00179046 0.00879973 -0.00160796 8.23081e-05
0.0618057 2.71051e-20 0.00179046 -0.00066743 0.000125497 7.96039e-06
-0.0618911 1.93608e-21 0.00110224 0.0100224 -0.00185738 6.66323e-05
0.0618911 -7.7443e-21 0.00110224 -0.000694142 0.000132486 2.15678e-06
-0.0620668 -1.35525e-20 0.000803504 0.00935303 -0.00175954 8.88314e-05
0.0620668 -5.42101e-21 0.000803499 -0.000605681 0.000117959 1.17536e-07
0.0620551 9.03502e-21 0.0014783 -0.000844353 0.000158875 1.27347e-06
-0.0620551 -4.51751e-21 0.0014783 0.0113028 -0.00207985 1.10748e-05
-0.062113 -2.37169e-20 1.60896e-08 0 0 0
0.062113 -3.72694e-20 1.60878e-08 0 0 0
-0.0620964 -5.64689e-22 0.0020808 0.00779704 -0.00134796 0.000103395
0.0620964 2.82344e-21 0.00208081 -0.000599325 0.000111843 8.91003e-06
-0.0621537 -2.25875e-21 0.000297886 0.00387906 -0.000792843 5.03002e-06
0.0621538 -1.12938e-21 0.000297887 -5.42557e-05 1.07518e-05 -1.64897e-07
-0.0621775 -6.77626e-21 1.56614e-08 0 0 0
0.0621776 4.06576e-20 1.56595e-08 0 0 0
-0.0621833 0 0.00250996 0 0 0
0.0621833 0 0.00250996 0 0 0
-0.0621909 0 0.00249508 0.000380692 -7.41367e-05 6.6064e-06
0.0621909 3.38813e-21 0.00249509 -3.03399e-05 6.57643e-06 4.75433e-07
0.0622064 0 0.00247948 -4.3209e-05 7.78005e-06 2.19896e-07
-0.0622064 -4.40457e-20 0.00247946 0.000573187 -0.000100749 1.3458e-06
0.062211 1.69407e-20 0.00251251 0 0 0
-0.062211 3.38813e-21 0.00251251 0 0 0
0.0622439 0 0.00247181 -8.60329e-05 1.22711e-05 2.12053e-06
-0.0622439 0 0.00247177 0.00108361 -0.000152418 2.37443e-05
-0.062464 2.71051e-20 1.36276e-08 0 0 0
0.0624641 0 1.36259e-08 0 0 0
-0.0624707 0 0.000664989 0.00867905 -0.00160539 4.95155e-05
0.0624707 0 0.000664986 -0.000504328 9.56851e-05 1.2391e-06
-0.062477 -1.12938e-21 0.00119037 0.0116575 -0.00214293 3.8312e-05
0.062477 -2.25875e-21 0.00119036 -0.000829974 0.000155269 6.79541e-07
0.062456 -1.01644e-20 0.00253505 0 0 0
-0.062456 2.71051e-20 0.00253505 0 0 0
0.0624641 -3.38813e-21 0.00247936 -0.000111042 1.58383e-05 2.73695e-06
-0.0624641 -6.77626e-21 0.00247929 0.0013992 -0.000196809 3.06596e-05
0.0625428 4.51751e-21 0.0018227 -0.000771648 0.000136107 4.39985e-06
-0.0625428 -2.25875e-21 0.0018227 0.0100841 -0.00177298 5.17728e-05
-0.062548 2.25875e-21 0.00223368 0.00647213 -0.000977634 0.000123403
0.062548 0 0.00223368 -0.000513496 7.86241e-05 1.04456e-05
-0.0626458 -3.38813e-21 0.00247189 0.00199643 -0.000280814 4.37463e-05
0.0626458 3.38813e-21 0.00247193 -0.000158553 2.26149e-05 3.90799e-06
-0.0627253 -6.77626e-21 1.30352e-08 0 0 0
0.0627253 6.77626e-21 1.30342e-08 0 0 0
-0.0626789 6.77626e-21 0.00255556 0 0 0
0.0626789 6.77626e-21 0.00255556 0 0 0
0.0627232 1.35525e-20 0.00247251 -0.000154509 2.4274e-05 2.33359e-06
-0.0627232 0 0.00247247 0.00196771 -0.0003086 2.89809e-05
-0.0627775 0 0.000301894 0.00425696 -0.000830422 -5.26495e-06
0.0627776 2.25875e-21 0.000301892 -7.60065e-05 1.43411e-05 6.70613e-08
0.0627289 0 0.00253277 -5.51453e-05 8.07695e-06 9.31632e-07
-0.0627289 -6.77626e-21 0.00253275 0.000707137 -9.89985e-05 1.40559e-05
0.0627357 6.77626e-21 0.00256079 0 0 0
-0.0627358 6.77626e-21 0.00256079 0 0 0
-0.0627919 1.35525e-20 0.000886652 0.0114322 -0.00208044 2.41294e-05
0.0627919 0 0.000886656 -0.000758243 0.000142001 2.0953e-06
-0.0628164 0 1.26849e-08 0 0 0
0.0628164 -6.77626e-21 1.2684e-08 0 0 0
-0.0628008 -1.35525e-20 0.00150627 0.0134731 -0.00243474 -2.28426e-05
0.0628008 -2.71051e-20 0.00150627 -0.00101865 0.000184535 -8.32053e-07
-0.0628112 1.35525e-20 0.00226818 0.00648346 -0.00104176 0.000113101
0.0628112 -1.35525e-20 0.00226818 -0.0005193 8.47794e-05 8.16455e-06
-0.0628645 6.77626e-21 0.00225928 0.00649893 -0.00106557 0.000105751
0.0628645 -6.77626e-21 0.00225928 -0.000520067 8.65356e-05 7.25104e-06
-0.0630768 -2.71051e-20 1.21048e-08 0 0 0
0.0630768 5.42101e-20 1.21046e-08 0 0 0
-0.0630912 -4.51751e-21 0.000666653 0.00954005 -0.00173373 -6.79337e-06
0.0630913 1.35525e-20 0.000666654 -0.000554176 0.000102464 1.29268e-06
-0.0630462 0 0.00258936 0 0 0
0.0630463 -6.77626e-21 0.00258936 0 0 0
-0.0630991 3.38813e-21 0.00119257 0.0129359 -0.00232097 -9.12206e-06
0.0630991 5.64689e-21 0.00119258 -0.000918727 0.000168004 8.69279e-07
-0.0630753 0 0.00254724 0.00115546 -0.000161763 2.29673e-05
0.0630753 0 0.00254725 -9.01295e-05 1.3201e-05 1.52266e-06
-0.0631146 -2.25875e-21 0.0018442 0.0115885 -0.00205613 1.46445e-05
0.0631146 -6.77626e-21 0.0018442 -0.000883569 0.000157503 1.64719e-06
0.0631295 6.77626e-21 0.00220804 -0.000602539 0.000104951 3.5286e-06
-0.0631295 6.77626e-21 0.00220804 0.0076594 -0.00130976 4.29776e-05
-0.0631287 0 0.00259695 0 0 0
0.0631287 6.77626e-21 0.00259695 0 0 0
-0.0631356 1.35525e-20 0.00244816 0.00326833 -0.000546745 1.38074e-05
0.0631356 6.77626e-21 0.0024482 -0.000255446 4.35299e-05 1.25046e-06
0.0632025 0 0.00255032 -0.000111993 1.83314e-05 -6.39873e-07
-0.0632025 6.77626e-21 0.00255031 0.00145344 -0.000220667 -2.14551e-05
0.063231 6.77626e-21 0.00260636 0 0 0
-0.063231 0 0.00260636 0 0 0
-0.063349 3.38813e-21 1.19264e-08 0 0 0
0.063349 -1.35525e-20 1.19262e-08 0 0 0
-0.0633802 1.12938e-21 0.000299346 0.00451274 -0.000867024 -1.16923e-05
0.0633802 2.25875e-21 0.00029935 -6.90073e-05 1.26709e-05 -1.12141e-07
-0.0634014 1.01644e-20 1.18937e-08 0 0 0
0.0634014 -1.69407e-20 1.18936e-08 0 0 0
-0.0633962 4.06576e-20 0.000886345 0.0123173 -0.00219754 -2.30567e-05
0.0633962 2.71051e-20 0.000886349 -0.000814225 0.000149097 2.07846e-06
-0.0634042 0 0.00150026 0.0147814 -0.00261709 -1.76911e-05
0.0634042 -2.71051e-20 0.00150026 -0.00110348 0.000199627 -2.31518e-07
-0.0634115 -6.77626e-21 0.00227415 0.00752533 -0.00131612 -1.18239e-05
0.0634115 0 0.00227415 -0.000593694 0.000107247 2.40607e-07
-0.0635497 0 0.0026357 0 0 0
0.0635497 0 0.00263569 0 0 0
-0.0636291 -5.80823e-21 0.000643872 0.00997718 -0.00178568 -2.38613e-05
0.0636291 5.80823e-21 0.000643874 -0.000572199 0.000103303 9.63774e-07
-0.0635905 1.35525e-20 0.00256259 0.00209101 -0.000317464 -3.08666e-05
0.0635905 2.71051e-20 0.00256259 -0.000161142 2.63761e-05 -9.20681e-07
-0.0636736 -2.71051e-20 1.17146e-08 0 0 0
0.0636736 2.71051e-20 1.17145e-08 0 0 0
-0.0637074 1.12938e-21 0.00119084 0.0140288 -0.00248141 -1.78236e-05
0.0637074 7.90564e-21 0.00119084 -0.000989947 0.000176973 7.28656e-07
-0.0637064 9.03502e-21 0.00183861 0.0128878 -0.00228963 3.04229e-06
0.0637064 -4.51751e-21 0.00183862 -0.000978043 0.000176064 9.11126e-08
0.0636972 0 0.00228451 -0.000600084 0.000108027 -1.58363e-07
-0.0636972 1.12938e-21 0.00228451 0.0076469 -0.00134222 -7.05028e-06
0.0636864 0 0.00264828 0 0 0
-0.0636864 -1.35525e-20 0.00264828 0 0 0
0.0638056 0 0.00256928 -0.000188178 3.306e-05 -8.05065e-07
-0.0638056 0 0.00256928 0.00241855 -0.000397443 -2.4925e-05
0.0638572 -6.77626e-21 0.00266399 0 0 0
-0.0638572 0 0.002664 0 0 0
-0.0639761 -5.02926e-21 1.11264e-08 0 0 0
0.0639761 4.09752e-20 1.11265e-08 0 0 0
-0.063985 -4.51751e-21 0.000294135 0.00464802 -0.000872436 -1.53138e-05
0.063985 0 0.000294132 -4.80572e-05 8.42157e-06 1.36442e-08
-0.0639986 4.51751e-21 0.000797603 0.0119986 -0.00212455 -2.8413e-05
0.0639987 0 0.000797603 -0.000745686 0.000130414 1.65066e-07
0.0639966 1.35525e-20 0.00216928 -0.00082018 0.000147965 1.40233e-06
-0.0639966 -1.35525e-20 0.00216927 0.0104222 -0.00186407 3.8652e-05
0.0639893 2.71051e-20 0.00242216 -0.00048622 8.8145e-05 -1.27959e-06
-0.0639893 -1.35525e-20 0.00242216 0.00608602 -0.00106065 -2.91279e-05
-0.0640906 -2.71051e-21 0.00161504 0.0153038 -0.00271415 2.35228e-05
0.0640906 0 0.00161505 -0.00114065 0.000202772 1.40601e-06
-0.0640774 1.35525e-20 0.00268425 0 0 0
0.0640774 0 0.00268425 0 0 0
-0.0641378 -2.71051e-20 0.0025811 0.00292229 -0.000480224 -3.01165e-05
0.0641378 -2.71051e-20 0.00258111 -0.000227382 3.99475e-05 -9.72787e-07
-0.0642238 0 0.0011939 0.0149333 -0.00262948 -2.29674e-06
0.0642238 4.51751e-21 0.0011939 -0.00104767 0.000182804 1.03799e-06
-0.0642454 -1.54886e-20 0.00190905 0.0131729 -0.00232181 4.59484e-05
0.0642454 -1.54886e-20 0.00190906 -0.0010062 0.000178387 2.5076e-06
-0.0642765 2.71051e-20 1.05719e-08 0 0 0
0.0642765 -2.71051e-20 1.0572e-08 0 0 0
-0.0643071 0 0.000580294 0.0091353 -0.00160609 -1.6747e-05
0.0643071 2.71051e-20 0.000580294 -0.000460247 7.88994e-05 -3.72737e-07
0.0642698 1.35525e-20 0.00270196 0 0 0
-0.0642698 0 0.00270196 0 0 0
0.0642914 1.12938e-21 0.00231061 -0.000674366 0.000121427 1.74365e-06
-0.0642914 -3.38813e-21 0.0023106 0.00858533 -0.00153262 3.86757e-05
0.064507 -1.35525e-20 0.00272379 0 0 0
-0.064507 6.77626e-21 0.00272379 0 0 0
-0.0645717 0 1.00932e-08 0 0 0
0.0645718 0 1.00933e-08 0 0 0
-0.0645942 3.38813e-21 0.000105204 0.00177989 -0.000318521 -7.84408e-06
0.0645942 -5.0822e-21 0.000105297 -3.14245e-06 5.15759e-07 2.69732e-08
-0.0646037 -5.0822e-21 0.000289957 0.00484202 -0.000863003 -1.91182e-05
0.0646037 0 0.000289963 -3.19732e-05 5.39167e-06 6.35256e-08
-0.0646061 0 1.00752e-08 0 0 0
0.0646062 1.69407e-20 1.00752e-08 0 0 0
-0.0645786 0 0.00255742 0.00444912 -0.000801118 2.99627e-05
0.0645786 -1.35525e-20 0.00255743 -0.000349398 6.33667e-05 5.60505e-07
-0.0646301 9.03502e-21 0.000896905 0.013826 -0.00244384 -4.48824e-07
0.0646301 -2.25875e-21 0.000896903 -0.000891561 0.00015544 4.1436e-07
0.0646074 9.03502e-21 0.00205695 -0.00100237 0.000177363 7.18764e-06
-0.0646074 9.03502e-21 0.00205694 0.0129595 -0.0023106 9.92579e-05
0.0646289 0 0.00152581 -0.00120926 0.000216079 5.24496e-06
-0.0646289 0 0.00152581 0.0164988 -0.00293419 5.5988e-05
-0.0646281 -2.03288e-20 0.00273494 0 0 0
0.0646282 -1.35525e-20 0.00273494 0 0 0
-0.0649009 0 9.60311e-09 0 0 0
0.0649009 -5.42101e-20 9.60308e-09 0 0 0
0.064875 1.35525e-20 0.00275765 0 0 0
-0.064875 0 0.00275765 0 0 0
-0.0649356 0 0.000580114 0.00973002 -0.00169478 1.55454e-05
0.0649357 2.71051e-20 0.000580114 -0.000485566 8.3993e-05 5.02364e-07
0.0649299 0 0.00188429 -0.00112883 0.000202296 8.42846e-06
-0.0649299 0 0.00188429 0.015026 -0.00267533 8.07835e-05
0.0649159 0 0.00234646 -0.000753664 0.000139594 7.1556e-06
-0.0649159 2.82344e-22 0.00234647 0.00960154 -0.00177794 9.83881e-05
0.064955 0 0.00120177 -0.00112457 0.00019698 4.77622e-06
-0.064955 2.71051e-20 0.00120177 0.0161435 -0.00284723 4.58666e-05
-0.0652158 0 7.83123e-09 0 0 0
0.0652158 0 7.83116e-09 0 0 0
-0.0652252 0 4.89574e-05 0.00088969 -0.000148481 1.76295e-06
0.0652252 4.23516e-21 4.89963e-05 -1.45459e-06 2.55508e-07 -1.17655e-08
-0.0652301 -1.69407e-21 7.82292e-09 0 0 0
0.0652302 -1.35525e-20 7.82284e-09 0 0 0
-0.065238 1.12938e-21 0.000289529 0.00519417 -0.000871386 1.16119e-05
0.0652381 -2.25875e-21 0.000289519 -3.56216e-05 6.29862e-06 3.66549e-08
-0.0652635 2.25875e-21 0.000898212 0.0147582 -0.00260286 6.61302e-05
0.0652635 -1.35525e-20 0.000898216 -0.000944907 0.000168099 3.60542e-06
0.0652136 0 0.00278879 0 0 0
-0.0652137 -2.03288e-20 0.00278879 0 0 0
-0.0652598 4.51751e-21 0.0015412 0.0178177 -0.00317557 7.19784e-05
0.0652598 0 0.0015412 -0.00130235 0.000234492 8.68005e-06
0.0652523 -1.35525e-20 0.00209337 -0.0010917 0.000197554 1.3142e-05
-0.0652523 -4.51751e-21 0.00209337 0.0141643 -0.00257836 9.48614e-05
-0.065247 1.69407e-21 0.00279186 0 0 0
0.065247 3.38813e-20 0.00279186 0 0 0
0.0652921 0 0.00257089 -0.000475008 8.99459e-05 5.15667e-06
-0.0652921 -6.77626e-21 0.00257088 0.00600296 -0.0011816 9.83546e-05
-0.0655524 5.42101e-20 5.83763e-09 0 0 0
0.0655525 -2.71051e-20 5.83746e-09 0 0 0
-0.0655704 -2.71051e-20 0.000580836 0.0103887 -0.00184875 4.83511e-05
0.0655704 0 0.000580835 -0.000511263 9.12662e-05 1.68085e-06
0.0655566 2.71051e-20 0.00189805 -0.00123234 0.000224328 9.28716e-06
-0.0655566 0 0.00189804 0.0164058 -0.00294654 5.58338e-05
0.0655812 -2.71051e-20 0.00120809 -0.00120191 0.000217113 5.46586e-06
-0.0655812 2.71051e-20 0.00120809 0.0172898 -0.00309534 6.32707e-05
0.0655609 2.71051e-20 0.00282073 0 0 0
-0.0655609 -2.71051e-20 0.00282072 0 0 0
0.065626 0 0.00230052 -0.000961174 0.00017642 1.05884e-05
-0.065626 4.51751e-21 0.00230051 0.0123992 -0.00226565 7.30078e-05
0.0657942 0 0.00153773 -0.00138012 0.000252114 8.94405e-06
-0.0657942 -4.51751e-21 0.00153773 0.0188649 -0.00340095 5.93039e-05
-0.0658501 -3.38813e-21 4.27431e-09 0 0 0
0.0658502 -1.35525e-20 4.27416e-09 0 0 0
0.0658196 -8.13152e-21 0.0020679 -0.00123094 0.000229542 9.19151e-06
-0.0658196 -1.89735e-20 0.0020679 0.0160476 -0.0029206 5.61267e-06
-0.0658851 -1.12938e-21 0.000294061 0.00559156 -0.00101892 1.66033e-05
0.0658851 -3.38813e-21 0.00029407 -5.5855e-05 1.00413e-05 3.20781e-07
-0.0659037 -6.77626e-21 3.74108e-09 0 0 0
0.0659037 2.03288e-20 3.741e-09 0 0 0
-0.0658977 4.51751e-21 0.000900808 0.0156543 -0.00279114 7.30969e-05
0.0658977 -2.25875e-21 0.000900806 -0.000997049 0.00017828 3.09951e-06
-0.0658696 -2.37169e-20 0.00284913 0 0 0
0.0658696 -2.5411e-20 0.00284914 0 0 0
0.0658846 -3.38813e-21 0.0028246 -5.93463e-05 1.16866e-05 3.78685e-07
-0.0658846 3.38813e-21 0.00282453 0.000761474 -0.000154429 5.75908e-06
0.0659008 0 0.00285201 0 0 0
-0.0659009 5.0822e-21 0.00285201 0 0 0
0.0659303 5.64689e-21 0.00259415 -0.000565524 0.000108841 3.91105e-06
-0.0659304 7.90564e-21 0.00259415 0.00725046 -0.0014171 4.99379e-05
-0.0662017 5.42101e-20 2.04737e-09 0 0 0
0.0662017 0 2.04729e-09 0 0 0
-0.0662096 -2.71051e-20 0.000583165 0.0110006 -0.00199512 2.01113e-05
0.0662096 0 0.000583165 -0.000535724 9.70443e-05 6.28336e-07
0.066226 2.25875e-21 0.00182287 -0.00140552 0.000261965 5.12402e-06
-0.066226 0 0.00182287 0.0187476 -0.00337725 2.39281e-06
-0.0662614 0 0.00125249 0.0189131 -0.00341342 2.74613e-05
0.0662614 0 0.00125249 -0.0013214 0.000243928 4.27537e-06
0.0662443 1.35525e-20 0.00230825 -0.00104741 0.000196013 4.32443e-06
-0.0662443 4.51751e-21 0.00230824 0.0136018 -0.00244361 -5.08658e-07
0.0662396 -1.35525e-20 0.00288319 0 0 0
-0.0662396 0 0.00288318 0 0 0
-0.0664688 6.77626e-21 1.83905e-09 0 0 0
0.0664688 1.35525e-20 1.83897e-09 0 0 0
-0.0665215 4.51751e-21 0.000297039 0.00589974 -0.00108222 -6.92621e-06
0.0665216 0 0.000297033 -7.50127e-05 1.36712e-05 7.36881e-08
-0.0665293 -4.51751e-21 0.000803441 0.0152787 -0.00275419 -6.06351e-06
0.0665293 9.03502e-21 0.000803445 -0.000924488 0.000169372 1.14862e-06
-0.0664922 -1.35525e-20 0.00290641 0 0 0
0.0664922 6.77626e-21 0.00290641 0 0 0
-0.0665402 2.71051e-20 0.00152016 0.0214054 -0.00386495 2.31962e-05
0.0665402 0 0.00152016 -0.00156509 0.000293017 5.69172e-06
-0.0665636 2.03288e-20 1.7259e-09 0 0 0
0.0665637 1.35525e-20 1.72584e-09 0 0 0
-0.0665513 0 0.00210904 0.017807 -0.00314952 -3.32613e-05
0.0665513 2.71051e-20 0.00210904 -0.00136839 0.000257754 3.70072e-07
0.0665489 2.25875e-21 0.00261517 -0.000656046 0.000128674 2.281e-06
-0.0665489 -3.38813e-21 0.00261517 0.00847644 -0.00159672 -1.19294e-05
0.0665444 -6.77626e-21 0.00282557 -0.000200483 4.01774e-05 7.99702e-07
-0.0665444 6.77626e-21 0.00282553 0.00258952 -0.000499884 -3.6814e-06
0.0665984 6.77626e-21 0.00291617 0 0 0
-0.0665984 0 0.00291617 0 0 0
-0.0668291 2.71051e-20 1.5155e-09 0 0 0
0.0668291 2.71051e-20 1.51544e-09 0 0 0
-0.0668395 2.71051e-20 0.000583569 0.0115335 -0.00209184 -1.05318e-05
0.0668395 2.71051e-20 0.00058357 -0.000562498 0.000103468 1.04567e-08
-0.0668469 1.88079e-37 0.00119952 0.0196059 -0.0035365 3.765e-06
0.0668469 0 0.00119952 -0.00135336 0.000252328 2.77736e-06
-0.0668544 -4.51751e-21 0.00182468 0.0201295 -0.00360422 2.15656e-06
0.0668544 9.03502e-21 0.00182468 -0.00150701 0.000283423 3.04526e-06
-0.0668557 0 0.00232115 0.0149651 -0.0026621 -2.09584e-05
0.0668557 4.51751e-21 0.00232116 -0.00115185 0.000217411 1.46822e-06
0.0668437 -1.35525e-20 0.00293872 0 0 0
-0.0668437 0 0.00293872 0 0 0
-0.0670865 2.03288e-20 1.47833e-09 0 0 0
0.0670865 -6.77626e-21 1.4783e-09 0 0 0
-0.0670533 6.77626e-21 0.00295798 0 0 0
0.0670533 1.35525e-20 0.00295798 0 0 0
-0.0671423 6.77626e-21 0.000297525 0.00611115 -0.00111839 -1.18891e-05
0.0671423 -2.25875e-21 0.000297532 -8.15056e-05 1.49126e-05 9.82422e-08
-0.0671508 -1.35525e-20 0.00080171 0.0159032 -0.00287115 -1.01146e-05
0.0671508 -4.51751e-21 0.000801707 -0.000958749 0.00017758 3.71492e-07