# Moment      
# CofR        : (0.000000e+00 0.000000e+00 0.000000e+00)
#
# Time        	(total_x total_y total_z)	(pressure_x pressure_y pressure_z)	(viscous_x viscous_y viscous_z)
5001          	(6.147800e-02 -7.797392e-02 -6.486935e-02)	(6.130789e-02 -7.830129e-02 -6.384802e-02)	(1.701063e-04 3.273731e-04 -1.021329e-03)
5002          	(7.210634e-02 -9.224275e-02 -5.510413e-02)	(7.190841e-02 -9.244257e-02 -5.400549e-02)	(1.979311e-04 1.998194e-04 -1.098645e-03)
5003          	(6.053298e-02 -6.628396e-02 -4.337808e-02)	(6.031888e-02 -6.638078e-02 -4.222416e-02)	(2.140980e-04 9.682432e-05 -1.153919e-03)
5004          	(3.591463e-02 -2.174899e-02 -3.570110e-02)	(3.570038e-02 -2.183328e-02 -3.455502e-02)	(2.142522e-04 8.429131e-05 -1.146085e-03)
5005          	(8.112380e-03 2.809273e-02 -2.766335e-02)	(7.911165e-03 2.793108e-02 -2.659292e-02)	(2.012150e-04 1.616484e-04 -1.070424e-03)
5006          	(-1.423700e-02 6.777635e-02 -2.369365e-02)	(-1.441409e-02 6.746951e-02 -2.274774e-02)	(1.770925e-04 3.068364e-04 -9.459118e-04)
5007          	(-2.594642e-02 8.471785e-02 -2.818090e-02)	(-2.609188e-02 8.426020e-02 -2.734968e-02)	(1.454583e-04 4.576524e-04 -8.312207e-04)
5008          	(-2.780203e-02 8.596096e-02 -3.071746e-02)	(-2.792295e-02 8.538377e-02 -2.998258e-02)	(1.209229e-04 5.771922e-04 -7.348784e-04)
5009          	(-2.283257e-02 7.549410e-02 -3.772932e-02)	(-2.293794e-02 7.485131e-02 -3.704805e-02)	(1.053672e-04 6.427936e-04 -6.812724e-04)
5010          	(-1.312078e-02 5.677728e-02 -4.650678e-02)	(-1.322204e-02 5.612462e-02 -4.583586e-02)	(1.012530e-04 6.526560e-04 -6.709239e-04)
5011          	(-3.210991e-03 4.057959e-02 -4.945363e-02)	(-3.318433e-03 3.995235e-02 -4.876494e-02)	(1.074415e-04 6.272378e-04 -6.886848e-04)
5012          	(4.240826e-03 2.839418e-02 -4.974808e-02)	(4.123061e-03 2.781128e-02 -4.902697e-02)	(1.177647e-04 5.829053e-04 -7.211095e-04)
5013          	(7.904289e-03 2.231682e-02 -4.833286e-02)	(7.777389e-03 2.177881e-02 -4.757922e-02)	(1.268993e-04 5.380183e-04 -7.536358e-04)
5014          	(8.582913e-03 2.010540e-02 -4.972977e-02)	(8.452256e-03 1.960644e-02 -4.894708e-02)	(1.306570e-04 4.989603e-04 -7.826926e-04)
5015          	(6.777634e-03 2.337022e-02 -4.677119e-02)	(6.647573e-03 2.289030e-02 -4.597728e-02)	(1.300608e-04 4.799164e-04 -7.939145e-04)
5016          	(3.489809e-03 2.868235e-02 -4.331089e-02)	(3.365222e-03 2.820172e-02 -4.252404e-02)	(1.245871e-04 4.806284e-04 -7.868475e-04)
5017          	(1.343452e-04 3.390720e-02 -4.039771e-02)	(1.867191e-05 3.341198e-02 -3.962939e-02)	(1.156733e-04 4.952222e-04 -7.683190e-04)
5018          	(-2.507921e-03 3.751063e-02 -3.891496e-02)	(-2.612536e-03 3.699491e-02 -3.816832e-02)	(1.046151e-04 5.157254e-04 -7.466471e-04)
5019          	(-4.310128e-03 3.865403e-02 -3.946764e-02)	(-4.402341e-03 3.812065e-02 -3.873870e-02)	(9.221258e-05 5.333715e-04 -7.289377e-04)
5020          	(-4.385492e-03 3.706751e-02 -4.089566e-02)	(-4.466741e-03 3.652523e-02 -4.017733e-02)	(8.124847e-05 5.422743e-04 -7.183236e-04)
5021          	(-4.066668e-03 3.556637e-02 -4.158125e-02)	(-4.139443e-03 3.502015e-02 -4.086932e-02)	(7.277552e-05 5.462256e-04 -7.119262e-04)
5022          	(-3.122304e-03 3.366349e-02 -4.210738e-02)	(-3.189551e-03 3.311785e-02 -4.139797e-02)	(6.724692e-05 5.456400e-04 -7.094104e-04)
5023          	(-2.244058e-03 3.192704e-02 -4.262212e-02)	(-2.307892e-03 3.138496e-02 -4.191251e-02)	(6.383441e-05 5.420811e-04 -7.096076e-04)
5024          	(-1.474931e-03 3.056793e-02 -4.286942e-02)	(-1.537202e-03 3.003076e-02 -4.215838e-02)	(6.227114e-05 5.371631e-04 -7.110398e-04)
5025          	(-1.111822e-03 3.034237e-02 -4.243213e-02)	(-1.173998e-03 2.980808e-02 -4.172124e-02)	(6.217590e-05 5.342888e-04 -7.108921e-04)
5026          	(-8.733152e-04 2.970706e-02 -4.234492e-02)	(-9.357383e-04 2.917589e-02 -4.163491e-02)	(6.242315e-05 5.311721e-04 -7.100119e-04)
5027          	(-8.447839e-04 2.941444e-02 -4.229953e-02)	(-9.074407e-04 2.888592e-02 -4.159092e-02)	(6.265681e-05 5.285177e-04 -7.086068e-04)
5028          	(-1.185542e-03 2.951551e-02 -4.201571e-02)	(-1.247874e-03 2.898819e-02 -4.130958e-02)	(6.233149e-05 5.273159e-04 -7.061334e-04)
5029          	(-1.531587e-03 2.982382e-02 -4.160967e-02)	(-1.593279e-03 2.929636e-02 -4.090730e-02)	(6.169253e-05 5.274601e-04 -7.023680e-04)
5030          	(-1.828859e-03 2.965483e-02 -4.150562e-02)	(-1.889428e-03 2.912767e-02 -4.080695e-02)	(6.056887e-05 5.271606e-04 -6.986725e-04)
5031          	(-2.230698e-03 2.976709e-02 -4.128641e-02)	(-2.289821e-03 2.923991e-02 -4.059161e-02)	(5.912348e-05 5.271803e-04 -6.948035e-04)
5032          	(-2.429605e-03 2.976187e-02 -4.113874e-02)	(-2.487343e-03 2.923490e-02 -4.044743e-02)	(5.773860e-05 5.269771e-04 -6.913091e-04)
5033          	(-2.268647e-03 2.955970e-02 -4.087668e-02)	(-2.325687e-03 2.903350e-02 -4.018822e-02)	(5.703993e-05 5.261970e-04 -6.884568e-04)
5034          	(-1.926522e-03 2.902955e-02 -4.091085e-02)	(-1.983353e-03 2.850547e-02 -4.022406e-02)	(5.683031e-05 5.240827e-04 -6.867951e-04)
5035          	(-1.554503e-03 2.875405e-02 -4.037956e-02)	(-1.611782e-03 2.823229e-02 -3.969444e-02)	(5.727893e-05 5.217527e-04 -6.851215e-04)
5036          	(-1.351243e-03 2.875064e-02 -3.999157e-02)	(-1.409003e-03 2.823072e-02 -3.930833e-02)	(5.776000e-05 5.199140e-04 -6.832372e-04)
5037          	(-1.086229e-03 2.866868e-02 -3.964450e-02)	(-1.144742e-03 2.815050e-02 -3.896312e-02)	(5.851213e-05 5.181778e-04 -6.813738e-04)
5038          	(-7.523735e-04 2.856432e-02 -3.916319e-02)	(-8.119296e-04 2.804778e-02 -3.848384e-02)	(5.955607e-05 5.165395e-04 -6.793554e-04)
5039          	(-3.682125e-04 2.844806e-02 -3.856552e-02)	(-4.290712e-04 2.793307e-02 -3.788840e-02)	(6.085871e-05 5.149813e-04 -6.771219e-04)
5040          	(1.541912e-05 2.838011e-02 -3.797197e-02)	(-4.694593e-05 2.786654e-02 -3.729724e-02)	(6.236505e-05 5.135744e-04 -6.747279e-04)
5041          	(4.918198e-04 2.795165e-02 -3.764608e-02)	(4.279356e-04 2.744048e-02 -3.697319e-02)	(6.388419e-05 5.111706e-04 -6.728817e-04)
5042          	(8.885662e-04 2.771236e-02 -3.712101e-02)	(8.230221e-04 2.720385e-02 -3.645008e-02)	(6.554416e-05 5.085078e-04 -6.709397e-04)
5043          	(1.022524e-03 2.768973e-02 -3.677404e-02)	(9.556330e-04 2.718350e-02 -3.610552e-02)	(6.689131e-05 5.062312e-04 -6.685167e-04)
5044          	(1.101317e-03 2.764013e-02 -3.659187e-02)	(1.033173e-03 2.713608e-02 -3.592580e-02)	(6.814340e-05 5.040507e-04 -6.660707e-04)
5045          	(1.158065e-03 2.756193e-02 -3.645349e-02)	(1.088857e-03 2.706017e-02 -3.578971e-02)	(6.920820e-05 5.017616e-04 -6.637819e-04)
5046          	(1.198095e-03 2.744607e-02 -3.634337e-02)	(1.128070e-03 2.694683e-02 -3.568156e-02)	(7.002488e-05 4.992391e-04 -6.618095e-04)
5047          	(1.222350e-03 2.728085e-02 -3.627168e-02)	(1.151828e-03 2.678450e-02 -3.561137e-02)	(7.052180e-05 4.963481e-04 -6.603121e-04)
5048          	(1.237010e-03 2.703886e-02 -3.625426e-02)	(1.166321e-03 2.654591e-02 -3.559486e-02)	(7.068949e-05 4.929524e-04 -6.593981e-04)
5049          	(1.248912e-03 2.671770e-02 -3.628276e-02)	(1.178361e-03 2.622873e-02 -3.562365e-02)	(7.055089e-05 4.889686e-04 -6.591087e-04)
5050          	(1.245992e-03 2.638900e-02 -3.627146e-02)	(1.175731e-03 2.590435e-02 -3.561225e-02)	(7.026098e-05 4.846506e-04 -6.592165e-04)
5051          	(1.226652e-03 2.596048e-02 -3.642715e-02)	(1.156817e-03 2.548061e-02 -3.576729e-02)	(6.983450e-05 4.798753e-04 -6.598609e-04)
5052          	(1.171972e-03 2.552192e-02 -3.678308e-02)	(1.102740e-03 2.504719e-02 -3.612196e-02)	(6.923126e-05 4.747303e-04 -6.611198e-04)
5053          	(1.018351e-03 2.525670e-02 -3.695322e-02)	(9.497627e-04 2.478684e-02 -3.629089e-02)	(6.858797e-05 4.698669e-04 -6.623222e-04)
5054          	(8.577382e-04 2.504713e-02 -3.712475e-02)	(7.899192e-04 2.458174e-02 -3.646145e-02)	(6.781906e-05 4.653919e-04 -6.633044e-04)
5055          	(6.656445e-04 2.487288e-02 -3.726711e-02)	(5.986263e-04 2.441174e-02 -3.660297e-02)	(6.701824e-05 4.611449e-04 -6.641478e-04)
5056          	(4.230874e-04 2.468793e-02 -3.743036e-02)	(3.569262e-04 2.423082e-02 -3.676540e-02)	(6.616123e-05 4.571051e-04 -6.649532e-04)
5057          	(1.236389e-04 2.447095e-02 -3.763812e-02)	(5.842074e-05 2.401776e-02 -3.697226e-02)	(6.521821e-05 4.531899e-04 -6.658582e-04)
5058          	(-2.192995e-04 2.422642e-02 -3.789391e-02)	(-2.834786e-04 2.377706e-02 -3.722694e-02)	(6.417916e-05 4.493532e-04 -6.669644e-04)
5059          	(-5.787117e-04 2.397041e-02 -3.817964e-02)	(-6.417734e-04 2.352483e-02 -3.751137e-02)	(6.306171e-05 4.455840e-04 -6.682729e-04)
5060          	(-9.231532e-04 2.372557e-02 -3.847313e-02)	(-9.850986e-04 2.328365e-02 -3.780334e-02)	(6.194539e-05 4.419208e-04 -6.697884e-04)
5061          	(-1.226712e-03 2.351280e-02 -3.875193e-02)	(-1.287645e-03 2.307437e-02 -3.808047e-02)	(6.093295e-05 4.384292e-04 -6.714601e-04)
5062          	(-1.475760e-03 2.334528e-02 -3.899644e-02)	(-1.535870e-03 2.291009e-02 -3.832323e-02)	(6.010970e-05 4.351935e-04 -6.732100e-04)
5063          	(-1.668568e-03 2.322797e-02 -3.918869e-02)	(-1.728112e-03 2.279570e-02 -3.851372e-02)	(5.954392e-05 4.322679e-04 -6.749660e-04)
5064          	(-1.810215e-03 2.316158e-02 -3.932299e-02)	(-1.869494e-03 2.273189e-02 -3.864630e-02)	(5.927902e-05 4.296926e-04 -6.766931e-04)
5065          	(-1.910435e-03 2.314123e-02 -3.940020e-02)	(-1.969748e-03 2.271375e-02 -3.872186e-02)	(5.931301e-05 4.274733e-04 -6.783391e-04)
5066          	(-1.979756e-03 2.315879e-02 -3.941950e-02)	(-2.039379e-03 2.273319e-02 -3.873964e-02)	(5.962311e-05 4.255991e-04 -6.798591e-04)
5067          	(-2.029283e-03 2.320496e-02 -3.938367e-02)	(-2.089449e-03 2.278091e-02 -3.870249e-02)	(6.016542e-05 4.240505e-04 -6.811743e-04)
5068          	(-2.067608e-03 2.327308e-02 -3.929540e-02)	(-2.128490e-03 2.285028e-02 -3.861316e-02)	(6.088131e-05 4.227991e-04 -6.822350e-04)
5069          	(-2.101147e-03 2.335418e-02 -3.916009e-02)	(-2.162880e-03 2.293236e-02 -3.847707e-02)	(6.173295e-05 4.218190e-04 -6.830153e-04)
5070          	(-2.133569e-03 2.344017e-02 -3.898208e-02)	(-2.196250e-03 2.301910e-02 -3.829857e-02)	(6.268066e-05 4.210676e-04 -6.835085e-04)
5071          	(-2.167198e-03 2.352493e-02 -3.876603e-02)	(-2.230908e-03 2.310441e-02 -3.808230e-02)	(6.370961e-05 4.205160e-04 -6.837287e-04)
5072          	(-2.202420e-03 2.360438e-02 -3.851703e-02)	(-2.267210e-03 2.318423e-02 -3.783330e-02)	(6.479002e-05 4.201503e-04 -6.837264e-04)
5073          	(-2.237549e-03 2.367548e-02 -3.823917e-02)	(-2.303414e-03 2.325555e-02 -3.755561e-02)	(6.586482e-05 4.199334e-04 -6.835589e-04)
5074          	(-2.272261e-03 2.373842e-02 -3.793528e-02)	(-2.339125e-03 2.331860e-02 -3.725202e-02)	(6.686336e-05 4.198173e-04 -6.832611e-04)
5075          	(-2.304381e-03 2.379264e-02 -3.760761e-02)	(-2.372126e-03 2.337288e-02 -3.692475e-02)	(6.774466e-05 4.197598e-04 -6.828611e-04)
5076          	(-2.333279e-03 2.383905e-02 -3.725522e-02)	(-2.401755e-03 2.341932e-02 -3.657285e-02)	(6.847572e-05 4.197368e-04 -6.823724e-04)
5077          	(-2.358133e-03 2.387799e-02 -3.687901e-02)	(-2.427156e-03 2.345828e-02 -3.619721e-02)	(6.902313e-05 4.197177e-04 -6.818042e-04)
5078          	(-2.378758e-03 2.390905e-02 -3.648132e-02)	(-2.448108e-03 2.348939e-02 -3.580015e-02)	(6.935036e-05 4.196608e-04 -6.811632e-04)
5079          	(-2.395730e-03 2.393019e-02 -3.606709e-02)	(-2.465143e-03 2.351069e-02 -3.538665e-02)	(6.941374e-05 4.195055e-04 -6.804408e-04)
5080          	(-2.410019e-03 2.393847e-02 -3.564353e-02)	(-2.479192e-03 2.351927e-02 -3.496391e-02)	(6.917328e-05 4.191959e-04 -6.796183e-04)
5081          	(-2.422972e-03 2.393172e-02 -3.521610e-02)	(-2.491591e-03 2.351303e-02 -3.453744e-02)	(6.861890e-05 4.186889e-04 -6.786545e-04)
5082          	(-2.435963e-03 2.390861e-02 -3.479240e-02)	(-2.503718e-03 2.349066e-02 -3.411488e-02)	(6.775490e-05 4.179553e-04 -6.775160e-04)
5083          	(-2.450931e-03 2.386860e-02 -3.438148e-02)	(-2.517532e-03 2.345162e-02 -3.370531e-02)	(6.660157e-05 4.169767e-04 -6.761636e-04)
5084          	(-2.470187e-03 2.381282e-02 -3.398687e-02)	(-2.535378e-03 2.339707e-02 -3.331231e-02)	(6.519092e-05 4.157541e-04 -6.745589e-04)
5085          	(-2.494444e-03 2.374354e-02 -3.360732e-02)	(-2.558010e-03 2.332923e-02 -3.293467e-02)	(6.356600e-05 4.143043e-04 -6.726512e-04)
5086          	(-2.523403e-03 2.366387e-02 -3.323752e-02)	(-2.585178e-03 2.325120e-02 -3.256709e-02)	(6.177447e-05 4.126726e-04 -6.704230e-04)
5087          	(-2.566821e-03 2.359733e-02 -3.281363e-02)	(-2.626675e-03 2.318634e-02 -3.214589e-02)	(5.985344e-05 4.109882e-04 -6.677454e-04)
5088          	(-2.615729e-03 2.352956e-02 -3.241105e-02)	(-2.673521e-03 2.312031e-02 -3.174636e-02)	(5.779234e-05 4.092525e-04 -6.646831e-04)
5089          	(-2.665360e-03 2.345891e-02 -3.204790e-02)	(-2.720990e-03 2.305145e-02 -3.138655e-02)	(5.563055e-05 4.074608e-04 -6.613546e-04)
5090          	(-2.717160e-03 2.338860e-02 -3.172795e-02)	(-2.770557e-03 2.298297e-02 -3.107009e-02)	(5.339779e-05 4.056307e-04 -6.578690e-04)
5091          	(-2.760994e-03 2.330810e-02 -3.148649e-02)	(-2.812094e-03 2.290440e-02 -3.083210e-02)	(5.110045e-05 4.037037e-04 -6.543909e-04)
5092          	(-2.802047e-03 2.323120e-02 -3.125014e-02)	(-2.850854e-03 2.282944e-02 -3.059923e-02)	(4.880710e-05 4.017574e-04 -6.509049e-04)
5093          	(-2.837252e-03 2.316002e-02 -3.101480e-02)	(-2.883831e-03 2.276016e-02 -3.036741e-02)	(4.657872e-05 3.998657e-04 -6.473908e-04)
5094          	(-2.863506e-03 2.309685e-02 -3.077856e-02)	(-2.907982e-03 2.269875e-02 -3.013470e-02)	(4.447621e-05 3.980958e-04 -6.438537e-04)
5095          	(-2.877822e-03 2.304624e-02 -3.053688e-02)	(-2.920368e-03 2.264974e-02 -2.989660e-02)	(4.254601e-05 3.964967e-04 -6.402835e-04)
5096          	(-2.879164e-03 2.300811e-02 -3.029375e-02)	(-2.919995e-03 2.261300e-02 -2.965706e-02)	(4.083091e-05 3.951122e-04 -6.366906e-04)
5097          	(-2.879273e-03 2.301739e-02 -2.998792e-02)	(-2.918639e-03 2.262329e-02 -2.935498e-02)	(3.936541e-05 3.941001e-04 -6.329363e-04)
5098          	(-2.854949e-03 2.300980e-02 -2.977227e-02)	(-2.893018e-03 2.261656e-02 -2.914295e-02)	(3.806956e-05 3.932407e-04 -6.293251e-04)
5099          	(-2.816489e-03 2.301792e-02 -2.956117e-02)	(-2.853472e-03 2.262539e-02 -2.893527e-02)	(3.698264e-05 3.925367e-04 -6.258934e-04)
5100          	(-2.763521e-03 2.304130e-02 -2.935248e-02)	(-2.799631e-03 2.264929e-02 -2.872985e-02)	(3.610965e-05 3.920147e-04 -6.226337e-04)
5101          	(-2.706284e-03 2.312341e-02 -2.909884e-02)	(-2.741796e-03 2.273154e-02 -2.847942e-02)	(3.551168e-05 3.918681e-04 -6.194139e-04)
5102          	(-2.633762e-03 2.317137e-02 -2.891543e-02)	(-2.668884e-03 2.277950e-02 -2.829896e-02)	(3.512192e-05 3.918740e-04 -6.164674e-04)
5103          	(-2.553654e-03 2.325537e-02 -2.868798e-02)	(-2.588655e-03 2.286322e-02 -2.807430e-02)	(3.500082e-05 3.921448e-04 -6.136794e-04)
5104          	(-2.468509e-03 2.331508e-02 -2.853827e-02)	(-2.503578e-03 2.292253e-02 -2.792705e-02)	(3.506958e-05 3.925496e-04 -6.112202e-04)
5105          	(-2.376387e-03 2.337769e-02 -2.840055e-02)	(-2.411715e-03 2.298462e-02 -2.779147e-02)	(3.532759e-05 3.930671e-04 -6.090792e-04)
5106          	(-2.277452e-03 2.344134e-02 -2.827255e-02)	(-2.313222e-03 2.304762e-02 -2.766532e-02)	(3.577037e-05 3.937175e-04 -6.072211e-04)
5107          	(-2.172347e-03 2.350435e-02 -2.815238e-02)	(-2.208736e-03 2.310986e-02 -2.754678e-02)	(3.638952e-05 3.944879e-04 -6.056031e-04)
5108          	(-2.062119e-03 2.356540e-02 -2.803852e-02)	(-2.099296e-03 2.317002e-02 -2.743433e-02)	(3.717728e-05 3.953744e-04 -6.041954e-04)
5109          	(-1.947838e-03 2.362371e-02 -2.792948e-02)	(-1.985958e-03 2.322735e-02 -2.732653e-02)	(3.811998e-05 3.963601e-04 -6.029441e-04)
5110          	(-1.831303e-03 2.368188e-02 -2.781077e-02)	(-1.870501e-03 2.328444e-02 -2.720897e-02)	(3.919780e-05 3.974426e-04 -6.017969e-04)
5111          	(-1.712586e-03 2.373583e-02 -2.769617e-02)	(-1.752964e-03 2.333725e-02 -2.709545e-02)	(4.037816e-05 3.985834e-04 -6.007161e-04)
5112          	(-1.592627e-03 2.378585e-02 -2.758374e-02)	(-1.634244e-03 2.338611e-02 -2.698403e-02)	(4.161675e-05 3.997431e-04 -5.997075e-04)
5113          	(-1.471718e-03 2.385373e-02 -2.746361e-02)	(-1.514630e-03 2.345276e-02 -2.686492e-02)	(4.291202e-05 4.009691e-04 -5.986956e-04)
5114          	(-1.356584e-03 2.391074e-02 -2.735100e-02)	(-1.400807e-03 2.350853e-02 -2.675330e-02)	(4.422277e-05 4.022111e-04 -5.976988e-04)
5115          	(-1.254918e-03 2.394644e-02 -2.727103e-02)	(-1.300411e-03 2.354307e-02 -2.667427e-02)	(4.549276e-05 4.033654e-04 -5.967578e-04)
5116          	(-1.155925e-03 2.397872e-02 -2.718799e-02)	(-1.202648e-03 2.357428e-02 -2.659215e-02)	(4.672244e-05 4.044391e-04 -5.958395e-04)
5117          	(-1.059261e-03 2.400745e-02 -2.709861e-02)	(-1.107171e-03 2.360201e-02 -2.650375e-02)	(4.790942e-05 4.054384e-04 -5.948660e-04)
5118          	(-9.648821e-04 2.403188e-02 -2.700041e-02)	(-1.013929e-03 2.362552e-02 -2.640660e-02)	(4.904665e-05 4.063631e-04 -5.938099e-04)
5119          	(-8.747802e-04 2.405233e-02 -2.689421e-02)	(-9.249047e-04 2.364512e-02 -2.630158e-02)	(5.012447e-05 4.072097e-04 -5.926289e-04)
5120          	(-7.796986e-04 2.408085e-02 -2.674513e-02)	(-8.308742e-04 2.367282e-02 -2.615390e-02)	(5.117565e-05 4.080365e-04 -5.912265e-04)
5121          	(-7.091947e-04 2.409439e-02 -2.663906e-02)	(-7.613197e-04 2.368561e-02 -2.604935e-02)	(5.212497e-05 4.087781e-04 -5.897037e-04)
5122          	(-6.367186e-04 2.412003e-02 -2.649414e-02)	(-6.897322e-04 2.371052e-02 -2.590617e-02)	(5.301358e-05 4.095026e-04 -5.879705e-04)
5123          	(-5.869275e-04 2.413035e-02 -2.639599e-02)	(-6.407168e-04 2.372020e-02 -2.580985e-02)	(5.378933e-05 4.101465e-04 -5.861397e-04)
5124          	(-5.434455e-04 2.414158e-02 -2.629965e-02)	(-5.978936e-04 2.373088e-02 -2.571545e-02)	(5.444815e-05 4.107092e-04 -5.842046e-04)
5125          	(-4.992188e-04 2.417616e-02 -2.617556e-02)	(-5.542391e-04 2.376488e-02 -2.559349e-02)	(5.502038e-05 4.112816e-04 -5.820621e-04)
5126          	(-4.665964e-04 2.419255e-02 -2.609056e-02)	(-5.220510e-04 2.378078e-02 -2.551070e-02)	(5.545463e-05 4.117639e-04 -5.798571e-04)
5127          	(-4.344615e-04 2.423296e-02 -2.598691e-02)	(-4.902193e-04 2.382074e-02 -2.540941e-02)	(5.575775e-05 4.122195e-04 -5.774994e-04)
5128          	(-4.075157e-04 2.427075e-02 -2.589844e-02)	(-4.634437e-04 2.385811e-02 -2.532340e-02)	(5.592799e-05 4.126335e-04 -5.750377e-04)
5129          	(-3.827328e-04 2.430369e-02 -2.582399e-02)	(-4.386806e-04 2.389074e-02 -2.525149e-02)	(5.594776e-05 4.129501e-04 -5.725057e-04)
5130          	(-3.576728e-04 2.432602e-02 -2.577457e-02)	(-4.134893e-04 2.391289e-02 -2.520459e-02)	(5.581651e-05 4.131258e-04 -5.699752e-04)
5131          	(-3.335208e-04 2.435146e-02 -2.573165e-02)	(-3.890647e-04 2.393829e-02 -2.516422e-02)	(5.554390e-05 4.131758e-04 -5.674288e-04)
5132          	(-3.073400e-04 2.437638e-02 -2.569486e-02)	(-3.624923e-04 2.396327e-02 -2.513000e-02)	(5.515224e-05 4.131175e-04 -5.648593e-04)
5133          	(-2.780747e-04 2.440018e-02 -2.566213e-02)	(-3.327357e-04 2.398722e-02 -2.509987e-02)	(5.466101e-05 4.129526e-04 -5.622519e-04)
5134          	(-2.414506e-04 2.441742e-02 -2.562686e-02)	(-2.955451e-04 2.400474e-02 -2.506727e-02)	(5.409446e-05 4.126774e-04 -5.595953e-04)
5135          	(-2.027007e-04 2.444923e-02 -2.559006e-02)	(-2.561783e-04 2.403687e-02 -2.503322e-02)	(5.347765e-05 4.123556e-04 -5.568338e-04)
5136          	(-1.575359e-04 2.447943e-02 -2.554698e-02)	(-2.103730e-04 2.406742e-02 -2.499301e-02)	(5.283712e-05 4.120006e-04 -5.539710e-04)
5137          	(-1.075907e-04 2.450292e-02 -2.549680e-02)	(-1.597709e-04 2.409135e-02 -2.494578e-02)	(5.218013e-05 4.115772e-04 -5.510253e-04)
5138          	(-4.486700e-05 2.453488e-02 -2.543860e-02)	(-9.642437e-05 2.412374e-02 -2.489062e-02)	(5.155736e-05 4.111380e-04 -5.479736e-04)
5139          	(2.640026e-05 2.457012e-02 -2.537182e-02)	(-2.458790e-05 2.415942e-02 -2.482702e-02)	(5.098816e-05 4.107015e-04 -5.448013e-04)
5140          	(1.030529e-04 2.460723e-02 -2.529804e-02)	(5.255841e-05 2.419694e-02 -2.475648e-02)	(5.049453e-05 4.102862e-04 -5.415578e-04)
5141          	(1.928902e-04 2.464999e-02 -2.522238e-02)	(1.427722e-04 2.424007e-02 -2.468414e-02)	(5.011802e-05 4.099196e-04 -5.382478e-04)
5142          	(2.952257e-04 2.470026e-02 -2.514655e-02)	(2.453413e-04 2.429063e-02 -2.461164e-02)	(4.988433e-05 4.096284e-04 -5.349126e-04)
5143          	(4.098008e-04 2.475854e-02 -2.507332e-02)	(3.599836e-04 2.434910e-02 -2.454173e-02)	(4.981716e-05 4.094349e-04 -5.315860e-04)
5144          	(5.356294e-04 2.482500e-02 -2.500498e-02)	(4.857110e-04 2.441565e-02 -2.447666e-02)	(4.991845e-05 4.093503e-04 -5.283224e-04)
5145          	(6.710681e-04 2.489947e-02 -2.494315e-02)	(6.208792e-04 2.449009e-02 -2.441802e-02)	(5.018893e-05 4.093809e-04 -5.251392e-04)
5146          	(8.239973e-04 2.499682e-02 -2.488755e-02)	(7.733305e-04 2.458723e-02 -2.436552e-02)	(5.066684e-05 4.095961e-04 -5.220369e-04)
5147          	(9.648180e-04 2.508425e-02 -2.484040e-02)	(9.135316e-04 2.467431e-02 -2.432134e-02)	(5.128635e-05 4.099401e-04 -5.190602e-04)
5148          	(1.118538e-03 2.519559e-02 -2.480124e-02)	(1.066437e-03 2.478510e-02 -2.428502e-02)	(5.210158e-05 4.104915e-04 -5.162130e-04)
5149          	(1.259270e-03 2.529475e-02 -2.477589e-02)	(1.206220e-03 2.488355e-02 -2.426236e-02)	(5.304973e-05 4.111918e-04 -5.135284e-04)
5150          	(1.402786e-03 2.540102e-02 -2.476557e-02)	(1.348641e-03 2.498897e-02 -2.425453e-02)	(5.414564e-05 4.120525e-04 -5.110385e-04)
5151          	(1.549050e-03 2.551385e-02 -2.477253e-02)	(1.493665e-03 2.510077e-02 -2.426379e-02)	(5.538567e-05 4.130792e-04 -5.087433e-04)
5152          	(1.696581e-03 2.563148e-02 -2.479828e-02)	(1.639823e-03 2.521722e-02 -2.429162e-02)	(5.675725e-05 4.142602e-04 -5.066614e-04)
5153          	(1.850392e-03 2.576844e-02 -2.484718e-02)	(1.792126e-03 2.535282e-02 -2.434241e-02)	(5.826641e-05 4.156230e-04 -5.047730e-04)
5154          	(1.987185e-03 2.588482e-02 -2.490312e-02)	(1.927328e-03 2.546774e-02 -2.440005e-02)	(5.985754e-05 4.170826e-04 -5.030716e-04)
5155          	(2.118611e-03 2.599847e-02 -2.497678e-02)	(2.057106e-03 2.557987e-02 -2.447522e-02)	(6.150571e-05 4.186005e-04 -5.015595e-04)
5156          	(2.243260e-03 2.610730e-02 -2.506812e-02)	(2.180069e-03 2.568714e-02 -2.456789e-02)	(6.319143e-05 4.201595e-04 -5.002252e-04)
5157          	(2.365048e-03 2.622475e-02 -2.518317e-02)	(2.300154e-03 2.580299e-02 -2.468410e-02)	(6.489375e-05 4.217625e-04 -4.990607e-04)
5158          	(2.464274e-03 2.631236e-02 -2.529986e-02)	(2.397722e-03 2.588904e-02 -2.480179e-02)	(6.655184e-05 4.233155e-04 -4.980695e-04)
5159          	(2.548457e-03 2.638591e-02 -2.542876e-02)	(2.480310e-03 2.596112e-02 -2.493147e-02)	(6.814708e-05 4.247900e-04 -4.972892e-04)
5160          	(2.615889e-03 2.644402e-02 -2.556937e-02)	(2.546208e-03 2.601783e-02 -2.507266e-02)	(6.968067e-05 4.261911e-04 -4.967179e-04)
5161          	(2.665094e-03 2.648479e-02 -2.571673e-02)	(2.593942e-03 2.605727e-02 -2.522036e-02)	(7.115133e-05 4.275162e-04 -4.963687e-04)
5162          	(2.696129e-03 2.651787e-02 -2.587815e-02)	(2.623567e-03 2.608907e-02 -2.538193e-02)	(7.256271e-05 4.287940e-04 -4.962265e-04)
5163          	(2.706495e-03 2.652185e-02 -2.602523e-02)	(2.632608e-03 2.609188e-02 -2.552895e-02)	(7.388700e-05 4.299656e-04 -4.962703e-04)
5164          	(2.699805e-03 2.650940e-02 -2.617224e-02)	(2.624704e-03 2.607840e-02 -2.567576e-02)	(7.510170e-05 4.310024e-04 -4.964793e-04)
5165          	(2.678182e-03 2.648194e-02 -2.631902e-02)	(2.601984e-03 2.605004e-02 -2.582219e-02)	(7.619746e-05 4.319004e-04 -4.968354e-04)
5166          	(2.644047e-03 2.644146e-02 -2.646450e-02)	(2.566881e-03 2.600881e-02 -2.596721e-02)	(7.716617e-05 4.326510e-04 -4.972942e-04)
5167          	(2.599903e-03 2.639001e-02 -2.660752e-02)	(2.521906e-03 2.595677e-02 -2.610969e-02)	(7.799697e-05 4.332472e-04 -4.978254e-04)
5168          	(2.543531e-03 2.633441e-02 -2.675139e-02)	(2.464847e-03 2.590070e-02 -2.625300e-02)	(7.868425e-05 4.337131e-04 -4.983868e-04)
5169          	(2.486674e-03 2.626917e-02 -2.687985e-02)	(2.407440e-03 2.583514e-02 -2.638092e-02)	(7.923410e-05 4.340339e-04 -4.989259e-04)
5170          	(2.424366e-03 2.619796e-02 -2.700219e-02)	(2.344732e-03 2.576376e-02 -2.650278e-02)	(7.963358e-05 4.341971e-04 -4.994070e-04)
5171          	(2.356988e-03 2.612009e-02 -2.712029e-02)	(2.277113e-03 2.568589e-02 -2.662050e-02)	(7.987473e-05 4.341979e-04 -4.997917e-04)
5172          	(2.284852e-03 2.603482e-02 -2.723542e-02)	(2.204903e-03 2.560080e-02 -2.673536e-02)	(7.994948e-05 4.340255e-04 -5.000585e-04)
5173          	(2.208239e-03 2.594243e-02 -2.734751e-02)	(2.128385e-03 2.550875e-02 -2.684730e-02)	(7.985433e-05 4.336724e-04 -5.002109e-04)
5174          	(2.128308e-03 2.584404e-02 -2.745532e-02)	(2.048713e-03 2.541090e-02 -2.695506e-02)	(7.959568e-05 4.331442e-04 -5.002590e-04)
5175          	(2.046747e-03 2.574151e-02 -2.755764e-02)	(1.967562e-03 2.530906e-02 -2.705742e-02)	(7.918576e-05 4.324509e-04 -5.002218e-04)
5176          	(1.965565e-03 2.563715e-02 -2.765405e-02)	(1.886921e-03 2.520554e-02 -2.715394e-02)	(7.864363e-05 4.316101e-04 -5.001174e-04)
5177          	(1.886856e-03 2.553345e-02 -2.774501e-02)	(1.808868e-03 2.510281e-02 -2.724502e-02)	(7.798812e-05 4.306443e-04 -4.999840e-04)
5178          	(1.812315e-03 2.543264e-02 -2.783222e-02)	(1.735078e-03 2.500306e-02 -2.733237e-02)	(7.723728e-05 4.295734e-04 -4.998553e-04)
5179          	(1.743424e-03 2.533669e-02 -2.791657e-02)	(1.667011e-03 2.490827e-02 -2.741680e-02)	(7.641273e-05 4.284155e-04 -4.997693e-04)
5180          	(1.667347e-03 2.525052e-02 -2.799523e-02)	(1.591823e-03 2.482330e-02 -2.749548e-02)	(7.552322e-05 4.272197e-04 -4.997473e-04)
5181          	(1.614135e-03 2.517551e-02 -2.807107e-02)	(1.539512e-03 2.474950e-02 -2.757124e-02)	(7.462329e-05 4.260073e-04 -4.998278e-04)
5182          	(1.565966e-03 2.510740e-02 -2.815056e-02)	(1.492208e-03 2.468259e-02 -2.765048e-02)	(7.375750e-05 4.248027e-04 -5.000774e-04)
5183          	(1.520998e-03 2.504422e-02 -2.823712e-02)	(1.448059e-03 2.462059e-02 -2.773662e-02)	(7.293896e-05 4.236284e-04 -5.005031e-04)
5184          	(1.468303e-03 2.498985e-02 -2.833664e-02)	(1.396133e-03 2.456733e-02 -2.783552e-02)	(7.217032e-05 4.225226e-04 -5.011259e-04)
5185          	(1.425906e-03 2.493500e-02 -2.843838e-02)	(1.354416e-03 2.451352e-02 -2.793644e-02)	(7.149052e-05 4.214846e-04 -5.019371e-04)
5186          	(1.382160e-03 2.488169e-02 -2.855029e-02)	(1.311254e-03 2.446118e-02 -2.804731e-02)	(7.090605e-05 4.205159e-04 -5.029794e-04)
5187          	(1.336466e-03 2.482933e-02 -2.867120e-02)	(1.266063e-03 2.440972e-02 -2.816696e-02)	(7.040314e-05 4.196141e-04 -5.042449e-04)
5188          	(1.288831e-03 2.477797e-02 -2.879868e-02)	(1.218870e-03 2.435920e-02 -2.829294e-02)	(6.996044e-05 4.187684e-04 -5.057358e-04)
5189          	(1.240359e-03 2.472780e-02 -2.893079e-02)	(1.170799e-03 2.430983e-02 -2.842335e-02)	(6.955967e-05 4.179628e-04 -5.074331e-04)
5190          	(1.191818e-03 2.467944e-02 -2.906493e-02)	(1.122636e-03 2.426226e-02 -2.855561e-02)	(6.918268e-05 4.171842e-04 -5.093221e-04)
5191          	(1.142983e-03 2.463389e-02 -2.919651e-02)	(1.074182e-03 2.421748e-02 -2.868513e-02)	(6.880095e-05 4.164118e-04 -5.113725e-04)
5192          	(1.097349e-03 2.459062e-02 -2.932823e-02)	(1.028955e-03 2.417500e-02 -2.881465e-02)	(6.839403e-05 4.156231e-04 -5.135816e-04)
5193          	(1.052508e-03 2.455123e-02 -2.945212e-02)	(9.845738e-04 2.413643e-02 -2.893621e-02)	(6.793418e-05 4.147978e-04 -5.159108e-04)
5194          	(1.010969e-03 2.451446e-02 -2.957242e-02)	(9.435584e-04 2.410054e-02 -2.905407e-02)	(6.741086e-05 4.139236e-04 -5.183474e-04)
5195          	(9.708198e-04 2.448154e-02 -2.968106e-02)	(9.040044e-04 2.406855e-02 -2.916021e-02)	(6.681545e-05 4.129953e-04 -5.208507e-04)
5196          	(9.336524e-04 2.445088e-02 -2.978305e-02)	(8.675033e-04 2.403886e-02 -2.925965e-02)	(6.614903e-05 4.120129e-04 -5.233986e-04)
5197          	(8.976525e-04 2.442359e-02 -2.986849e-02)	(8.322343e-04 2.401260e-02 -2.934255e-02)	(6.541819e-05 4.109865e-04 -5.259402e-04)
5198          	(8.637820e-04 2.439871e-02 -2.994062e-02)	(7.991462e-04 2.398878e-02 -2.941217e-02)	(6.463579e-05 4.099312e-04 -5.284466e-04)
5199          	(8.297604e-04 2.438344e-02 -2.999437e-02)	(7.659475e-04 2.397456e-02 -2.946349e-02)	(6.381287e-05 4.088816e-04 -5.308784e-04)
5200          	(8.003059e-04 2.436208e-02 -3.004176e-02)	(7.373313e-04 2.395425e-02 -2.950853e-02)	(6.297464e-05 4.078255e-04 -5.332249e-04)
5201          	(7.722827e-04 2.434260e-02 -3.007291e-02)	(7.101423e-04 2.393582e-02 -2.953744e-02)	(6.214040e-05 4.067794e-04 -5.354743e-04)
5202          	(7.450871e-04 2.432460e-02 -3.008668e-02)	(6.837572e-04 2.391883e-02 -2.954909e-02)	(6.132994e-05 4.057700e-04 -5.375932e-04)
5203          	(7.181613e-04 2.430667e-02 -3.008539e-02)	(6.576005e-04 2.390186e-02 -2.954582e-02)	(6.056081e-05 4.048103e-04 -5.395718e-04)
5204          	(6.859979e-04 2.429960e-02 -3.006289e-02)	(6.261509e-04 2.389564e-02 -2.952151e-02)	(5.984696e-05 4.039570e-04 -5.413794e-04)
5205          	(6.561756e-04 2.427807e-02 -3.004072e-02)	(5.969861e-04 2.387492e-02 -2.949766e-02)	(5.918953e-05 4.031497e-04 -5.430599e-04)
5206          	(6.233164e-04 2.425251e-02 -3.001095e-02)	(5.647180e-04 2.385011e-02 -2.946634e-02)	(5.859838e-05 4.023910e-04 -5.446151e-04)
5207          	(5.864035e-04 2.422172e-02 -2.997423e-02)	(5.283362e-04 2.382005e-02 -2.942819e-02)	(5.806731e-05 4.016770e-04 -5.460398e-04)
5208          	(5.447931e-04 2.418480e-02 -2.993334e-02)	(4.872110e-04 2.378381e-02 -2.938601e-02)	(5.758202e-05 4.009929e-04 -5.473289e-04)
5209          	(4.983633e-04 2.414132e-02 -2.989258e-02)	(4.412259e-04 2.374099e-02 -2.934409e-02)	(5.713737e-05 4.003245e-04 -5.484893e-04)