# Force       
# CofR        : (0.000000e+00 0.000000e+00 0.000000e+00)
#
# Time        	(total_x total_y total_z)	(pressure_x pressure_y pressure_z)	(viscous_x viscous_y viscous_z)
9.29333       	(2.123099e+07 -1.710141e+07 2.090410e+07)	(2.122687e+07 -1.710220e+07 2.091452e+07)	(4.115111e+03 7.937531e+02 -1.042082e+04)
9.30667       	(1.922389e+07 -1.891686e+07 2.113434e+07)	(1.921978e+07 -1.891766e+07 2.114471e+07)	(4.106302e+03 7.978816e+02 -1.036552e+04)
9.32          	(1.922327e+07 -1.891805e+07 2.113570e+07)	(1.921917e+07 -1.891885e+07 2.114603e+07)	(4.103913e+03 8.041520e+02 -1.032579e+04)
9.33333       	(1.922409e+07 -1.891826e+07 2.113675e+07)	(1.921999e+07 -1.891907e+07 2.114704e+07)	(4.099297e+03 8.070954e+02 -1.029155e+04)
9.34667       	(1.922531e+07 -1.891799e+07 2.113754e+07)	(1.922122e+07 -1.891880e+07 2.114780e+07)	(4.094322e+03 8.118789e+02 -1.025425e+04)
9.36          	(1.922667e+07 -1.891734e+07 2.113817e+07)	(1.922257e+07 -1.891816e+07 2.114840e+07)	(4.095323e+03 8.204206e+02 -1.022946e+04)
9.37333       	(1.922804e+07 -1.891657e+07 2.113860e+07)	(1.922394e+07 -1.891739e+07 2.114881e+07)	(4.097172e+03 8.226415e+02 -1.020714e+04)
9.38667       	(1.922949e+07 -1.891573e+07 2.113893e+07)	(1.922539e+07 -1.891655e+07 2.114912e+07)	(4.101494e+03 8.226398e+02 -1.018378e+04)
9.4           	(1.923096e+07 -1.891484e+07 2.113924e+07)	(1.922685e+07 -1.891566e+07 2.114941e+07)	(4.108687e+03 8.217677e+02 -1.016588e+04)
9.41333       	(1.923250e+07 -1.891389e+07 2.113969e+07)	(1.922838e+07 -1.891471e+07 2.114984e+07)	(4.120917e+03 8.207605e+02 -1.015017e+04)
9.42667       	(1.923411e+07 -1.891285e+07 2.114015e+07)	(1.922997e+07 -1.891367e+07 2.115028e+07)	(4.135583e+03 8.208738e+02 -1.013639e+04)
9.44          	(1.923578e+07 -1.891197e+07 2.114061e+07)	(1.923163e+07 -1.891279e+07 2.115073e+07)	(4.153180e+03 8.213259e+02 -1.012402e+04)
9.45333       	(1.923753e+07 -1.891101e+07 2.114109e+07)	(1.923336e+07 -1.891183e+07 2.115120e+07)	(4.174089e+03 8.200421e+02 -1.011163e+04)
9.46667       	(1.923939e+07 -1.890995e+07 2.114150e+07)	(1.923519e+07 -1.891077e+07 2.115160e+07)	(4.197121e+03 8.190290e+02 -1.009878e+04)
9.48          	(1.924136e+07 -1.890883e+07 2.114190e+07)	(1.923714e+07 -1.890965e+07 2.115199e+07)	(4.222412e+03 8.176372e+02 -1.008670e+04)
9.49333       	(1.924352e+07 -1.890770e+07 2.114230e+07)	(1.923927e+07 -1.890852e+07 2.115238e+07)	(4.249514e+03 8.149137e+02 -1.007546e+04)
9.50667       	(1.924566e+07 -1.890657e+07 2.114279e+07)	(1.924138e+07 -1.890738e+07 2.115286e+07)	(4.280372e+03 8.123942e+02 -1.006490e+04)
9.52          	(1.924792e+07 -1.890542e+07 2.114326e+07)	(1.924361e+07 -1.890622e+07 2.115332e+07)	(4.314075e+03 8.088676e+02 -1.005475e+04)
9.53333       	(1.925020e+07 -1.890426e+07 2.114364e+07)	(1.924585e+07 -1.890506e+07 2.115369e+07)	(4.348704e+03 8.032650e+02 -1.004396e+04)
9.54667       	(1.925248e+07 -1.890312e+07 2.114401e+07)	(1.924809e+07 -1.890392e+07 2.115404e+07)	(4.382368e+03 7.982386e+02 -1.003060e+04)
9.56          	(1.925470e+07 -1.890197e+07 2.114434e+07)	(1.925028e+07 -1.890276e+07 2.115436e+07)	(4.416180e+03 7.938968e+02 -1.001763e+04)
9.57333       	(1.925685e+07 -1.890081e+07 2.114475e+07)	(1.925240e+07 -1.890160e+07 2.115476e+07)	(4.449899e+03 7.877710e+02 -1.000297e+04)
9.58667       	(1.925900e+07 -1.889960e+07 2.114514e+07)	(1.925451e+07 -1.890038e+07 2.115513e+07)	(4.481932e+03 7.832678e+02 -9.986095e+03)
9.6           	(1.926122e+07 -1.889828e+07 2.114555e+07)	(1.925670e+07 -1.889906e+07 2.115552e+07)	(4.512939e+03 7.808508e+02 -9.968655e+03)
9.61333       	(1.926355e+07 -1.889705e+07 2.114601e+07)	(1.925901e+07 -1.889783e+07 2.115596e+07)	(4.540616e+03 7.791870e+02 -9.950776e+03)
9.62667       	(1.926601e+07 -1.889580e+07 2.114641e+07)	(1.926145e+07 -1.889658e+07 2.115634e+07)	(4.565430e+03 7.777652e+02 -9.931808e+03)
9.64          	(1.926861e+07 -1.889452e+07 2.114688e+07)	(1.926402e+07 -1.889530e+07 2.115679e+07)	(4.587510e+03 7.791945e+02 -9.911709e+03)
9.65333       	(1.927120e+07 -1.889326e+07 2.114729e+07)	(1.926659e+07 -1.889405e+07 2.115720e+07)	(4.608269e+03 7.843349e+02 -9.906084e+03)
9.66667       	(1.927372e+07 -1.889205e+07 2.114775e+07)	(1.926910e+07 -1.889284e+07 2.115765e+07)	(4.624154e+03 7.852682e+02 -9.897190e+03)
9.68          	(1.927618e+07 -1.889078e+07 2.114811e+07)	(1.927155e+07 -1.889157e+07 2.115800e+07)	(4.633695e+03 7.826087e+02 -9.887454e+03)
9.69333       	(1.927865e+07 -1.888955e+07 2.114853e+07)	(1.927401e+07 -1.889033e+07 2.115840e+07)	(4.643195e+03 7.834581e+02 -9.874157e+03)
9.70667       	(1.928113e+07 -1.888824e+07 2.114892e+07)	(1.927648e+07 -1.888902e+07 2.115880e+07)	(4.650069e+03 7.761071e+02 -9.871092e+03)
9.72          	(1.928365e+07 -1.888703e+07 2.114921e+07)	(1.927899e+07 -1.888780e+07 2.115908e+07)	(4.656902e+03 7.769431e+02 -9.869819e+03)
9.73          	(1.929327e+07 -1.888646e+07 2.115160e+07)	(1.928861e+07 -1.888723e+07 2.116149e+07)	(4.660243e+03 7.627663e+02 -9.889481e+03)
9.74          	(1.929364e+07 -1.888542e+07 2.115142e+07)	(1.928898e+07 -1.888618e+07 2.116133e+07)	(4.661195e+03 7.517356e+02 -9.916141e+03)
9.75          	(1.929432e+07 -1.888456e+07 2.115142e+07)	(1.928966e+07 -1.888531e+07 2.116132e+07)	(4.659173e+03 7.536160e+02 -9.898975e+03)
9.76          	(1.929524e+07 -1.888362e+07 2.115139e+07)	(1.929060e+07 -1.888436e+07 2.116126e+07)	(4.643436e+03 7.385477e+02 -9.876007e+03)
9.77333       	(1.928964e+07 -1.888208e+07 2.114928e+07)	(1.928502e+07 -1.888281e+07 2.115910e+07)	(4.621413e+03 7.280245e+02 -9.827809e+03)
9.78667       	(1.929349e+07 -1.888090e+07 2.114956e+07)	(1.928889e+07 -1.888162e+07 2.115936e+07)	(4.602010e+03 7.251436e+02 -9.795935e+03)
9.8           	(1.929724e+07 -1.887967e+07 2.114988e+07)	(1.929266e+07 -1.888039e+07 2.115964e+07)	(4.580099e+03 7.153347e+02 -9.760444e+03)
9.81333       	(1.930090e+07 -1.887845e+07 2.115020e+07)	(1.929634e+07 -1.887916e+07 2.115993e+07)	(4.561390e+03 7.102486e+02 -9.730926e+03)
9.82667       	(1.930437e+07 -1.887730e+07 2.115055e+07)	(1.929982e+07 -1.887800e+07 2.116026e+07)	(4.546403e+03 7.023795e+02 -9.705545e+03)
9.84          	(1.930759e+07 -1.887615e+07 2.115080e+07)	(1.930306e+07 -1.887684e+07 2.116049e+07)	(4.536895e+03 6.921799e+02 -9.687057e+03)
9.86          	(1.930212e+07 -1.887383e+07 2.114812e+07)	(1.929760e+07 -1.887451e+07 2.115775e+07)	(4.523462e+03 6.742121e+02 -9.628118e+03)
9.88          	(1.930914e+07 -1.887219e+07 2.114877e+07)	(1.930462e+07 -1.887284e+07 2.115836e+07)	(4.520929e+03 6.540739e+02 -9.593599e+03)
9.9           	(1.931542e+07 -1.887048e+07 2.114935e+07)	(1.931090e+07 -1.887111e+07 2.115892e+07)	(4.522033e+03 6.343270e+02 -9.568484e+03)
9.92          	(1.932052e+07 -1.886890e+07 2.114964e+07)	(1.931599e+07 -1.886951e+07 2.115919e+07)	(4.528369e+03 6.150073e+02 -9.549532e+03)
9.94          	(1.932507e+07 -1.886725e+07 2.114983e+07)	(1.932053e+07 -1.886785e+07 2.115936e+07)	(4.539173e+03 5.980248e+02 -9.533244e+03)
9.96          	(1.932911e+07 -1.886568e+07 2.114987e+07)	(1.932455e+07 -1.886626e+07 2.115938e+07)	(4.558178e+03 5.844460e+02 -9.517523e+03)
9.98          	(1.933308e+07 -1.886408e+07 2.114981e+07)	(1.932849e+07 -1.886466e+07 2.115931e+07)	(4.582629e+03 5.751416e+02 -9.499402e+03)
10            	(1.933712e+07 -1.886237e+07 2.114966e+07)	(1.933251e+07 -1.886294e+07 2.115914e+07)	(4.612804e+03 5.700506e+02 -9.477722e+03)
10.02         	(1.934143e+07 -1.886063e+07 2.114950e+07)	(1.933678e+07 -1.886120e+07 2.115896e+07)	(4.647530e+03 5.697754e+02 -9.451419e+03)
10.04         	(1.934609e+07 -1.885878e+07 2.114940e+07)	(1.934140e+07 -1.885935e+07 2.115882e+07)	(4.686201e+03 5.718414e+02 -9.423324e+03)
10.06         	(1.935094e+07 -1.885697e+07 2.114923e+07)	(1.934622e+07 -1.885755e+07 2.115862e+07)	(4.723386e+03 5.769873e+02 -9.393276e+03)
10.08         	(1.935604e+07 -1.885513e+07 2.114905e+07)	(1.935128e+07 -1.885571e+07 2.115841e+07)	(4.757069e+03 5.844666e+02 -9.360578e+03)
10.1          	(1.936143e+07 -1.885322e+07 2.114887e+07)	(1.935664e+07 -1.885381e+07 2.115819e+07)	(4.784796e+03 5.928429e+02 -9.327303e+03)
10.12         	(1.936661e+07 -1.885138e+07 2.114867e+07)	(1.936180e+07 -1.885199e+07 2.115796e+07)	(4.808609e+03 6.022331e+02 -9.294887e+03)
10.14         	(1.937158e+07 -1.884958e+07 2.114838e+07)	(1.936675e+07 -1.885019e+07 2.115764e+07)	(4.829015e+03 6.123725e+02 -9.261340e+03)
10.16         	(1.937644e+07 -1.884775e+07 2.114801e+07)	(1.937159e+07 -1.884838e+07 2.115724e+07)	(4.845582e+03 6.231228e+02 -9.223418e+03)
10.18         	(1.938124e+07 -1.884584e+07 2.114762e+07)	(1.937638e+07 -1.884647e+07 2.115681e+07)	(4.859184e+03 6.344847e+02 -9.184020e+03)
10.2          	(1.938599e+07 -1.884395e+07 2.114719e+07)	(1.938112e+07 -1.884460e+07 2.115633e+07)	(4.869079e+03 6.473890e+02 -9.142438e+03)
10.22         	(1.939092e+07 -1.884205e+07 2.114674e+07)	(1.938604e+07 -1.884271e+07 2.115584e+07)	(4.877018e+03 6.607391e+02 -9.096402e+03)
10.24         	(1.939596e+07 -1.884010e+07 2.114637e+07)	(1.939108e+07 -1.884077e+07 2.115542e+07)	(4.883476e+03 6.748766e+02 -9.046565e+03)
10.26         	(1.940128e+07 -1.883819e+07 2.114598e+07)	(1.939639e+07 -1.883887e+07 2.115497e+07)	(4.889754e+03 6.892662e+02 -8.991697e+03)
10.28         	(1.940664e+07 -1.883627e+07 2.114564e+07)	(1.940174e+07 -1.883697e+07 2.115457e+07)	(4.898222e+03 7.032294e+02 -8.935671e+03)
10.3          	(1.941180e+07 -1.883442e+07 2.114529e+07)	(1.940689e+07 -1.883514e+07 2.115417e+07)	(4.910647e+03 7.164573e+02 -8.880006e+03)
10.32         	(1.941720e+07 -1.883252e+07 2.114488e+07)	(1.941227e+07 -1.883325e+07 2.115371e+07)	(4.927466e+03 7.288887e+02 -8.826413e+03)
10.34         	(1.942259e+07 -1.883069e+07 2.114445e+07)	(1.941764e+07 -1.883143e+07 2.115323e+07)	(4.950320e+03 7.393412e+02 -8.775196e+03)
10.36         	(1.942815e+07 -1.882888e+07 2.114406e+07)	(1.942317e+07 -1.882963e+07 2.115279e+07)	(4.979116e+03 7.497985e+02 -8.726600e+03)
10.38         	(1.943386e+07 -1.882708e+07 2.114362e+07)	(1.942885e+07 -1.882784e+07 2.115230e+07)	(5.012549e+03 7.594315e+02 -8.682028e+03)
10.4          	(1.943963e+07 -1.882545e+07 2.114302e+07)	(1.943459e+07 -1.882621e+07 2.115166e+07)	(5.048108e+03 7.690506e+02 -8.641829e+03)
10.42         	(1.944532e+07 -1.882381e+07 2.114244e+07)	(1.944024e+07 -1.882458e+07 2.115104e+07)	(5.085932e+03 7.789605e+02 -8.606069e+03)
10.44         	(1.945128e+07 -1.882215e+07 2.114165e+07)	(1.944616e+07 -1.882294e+07 2.115022e+07)	(5.125187e+03 7.895801e+02 -8.574156e+03)
10.46         	(1.945667e+07 -1.882056e+07 2.114093e+07)	(1.945151e+07 -1.882136e+07 2.114947e+07)	(5.163582e+03 7.994485e+02 -8.543565e+03)
10.48         	(1.946233e+07 -1.881899e+07 2.114009e+07)	(1.945713e+07 -1.881980e+07 2.114861e+07)	(5.201033e+03 8.065385e+02 -8.513743e+03)
10.5          	(1.946815e+07 -1.881725e+07 2.113929e+07)	(1.946291e+07 -1.881806e+07 2.114777e+07)	(5.237182e+03 8.089659e+02 -8.486985e+03)
10.52         	(1.947398e+07 -1.881553e+07 2.113844e+07)	(1.946871e+07 -1.881634e+07 2.114690e+07)	(5.272331e+03 8.086616e+02 -8.460511e+03)
10.54         	(1.947976e+07 -1.881384e+07 2.113758e+07)	(1.947446e+07 -1.881464e+07 2.114602e+07)	(5.303888e+03 8.037323e+02 -8.433761e+03)
10.56         	(1.948578e+07 -1.881220e+07 2.113672e+07)	(1.948045e+07 -1.881299e+07 2.114513e+07)	(5.333474e+03 7.962152e+02 -8.406163e+03)
10.58         	(1.949173e+07 -1.881064e+07 2.113582e+07)	(1.948637e+07 -1.881143e+07 2.114420e+07)	(5.360553e+03 7.865778e+02 -8.379737e+03)
10.6          	(1.949780e+07 -1.880904e+07 2.113490e+07)	(1.949242e+07 -1.880982e+07 2.114326e+07)	(5.386738e+03 7.757188e+02 -8.352609e+03)
10.62         	(1.950388e+07 -1.880753e+07 2.113407e+07)	(1.949847e+07 -1.880830e+07 2.114240e+07)	(5.412526e+03 7.645629e+02 -8.326365e+03)
10.64         	(1.950986e+07 -1.880603e+07 2.113327e+07)	(1.950442e+07 -1.880679e+07 2.114158e+07)	(5.439141e+03 7.530891e+02 -8.301219e+03)
10.66         	(1.951572e+07 -1.880461e+07 2.113247e+07)	(1.951025e+07 -1.880535e+07 2.114075e+07)	(5.466908e+03 7.424870e+02 -8.277467e+03)
10.68         	(1.952157e+07 -1.880313e+07 2.113168e+07)	(1.951607e+07 -1.880386e+07 2.113993e+07)	(5.496691e+03 7.323415e+02 -8.259321e+03)
10.7          	(1.952736e+07 -1.880168e+07 2.113076e+07)	(1.952184e+07 -1.880240e+07 2.113900e+07)	(5.525719e+03 7.221677e+02 -8.243229e+03)
10.72         	(1.953320e+07 -1.880028e+07 2.112990e+07)	(1.952765e+07 -1.880099e+07 2.113813e+07)	(5.555261e+03 7.129846e+02 -8.226269e+03)
10.74         	(1.953930e+07 -1.879888e+07 2.112904e+07)	(1.953372e+07 -1.879958e+07 2.113724e+07)	(5.580588e+03 7.041070e+02 -8.204945e+03)
10.76         	(1.954549e+07 -1.879745e+07 2.112824e+07)	(1.953989e+07 -1.879814e+07 2.113641e+07)	(5.605217e+03 6.955287e+02 -8.177769e+03)
10.78         	(1.955160e+07 -1.879608e+07 2.112736e+07)	(1.954597e+07 -1.879677e+07 2.113550e+07)	(5.625037e+03 6.892651e+02 -8.145996e+03)
10.8          	(1.955781e+07 -1.879460e+07 2.112660e+07)	(1.955217e+07 -1.879528e+07 2.113471e+07)	(5.643349e+03 6.846117e+02 -8.114545e+03)
10.82         	(1.956399e+07 -1.879308e+07 2.112589e+07)	(1.955834e+07 -1.879376e+07 2.113398e+07)	(5.656512e+03 6.826714e+02 -8.084788e+03)
10.84         	(1.957017e+07 -1.879149e+07 2.112519e+07)	(1.956451e+07 -1.879217e+07 2.113325e+07)	(5.665344e+03 6.819056e+02 -8.054746e+03)
10.86         	(1.957608e+07 -1.878996e+07 2.112443e+07)	(1.957042e+07 -1.879065e+07 2.113245e+07)	(5.666274e+03 6.835227e+02 -8.026223e+03)
10.88         	(1.958181e+07 -1.878849e+07 2.112361e+07)	(1.957615e+07 -1.878917e+07 2.113161e+07)	(5.664945e+03 6.865904e+02 -7.997903e+03)
10.9          	(1.958742e+07 -1.878705e+07 2.112279e+07)	(1.958176e+07 -1.878774e+07 2.113076e+07)	(5.661903e+03 6.892746e+02 -7.969802e+03)
10.92         	(1.959299e+07 -1.878561e+07 2.112185e+07)	(1.958734e+07 -1.878630e+07 2.112979e+07)	(5.654064e+03 6.881153e+02 -7.941123e+03)
10.94         	(1.959866e+07 -1.878419e+07 2.112079e+07)	(1.959302e+07 -1.878487e+07 2.112870e+07)	(5.644585e+03 6.850905e+02 -7.910511e+03)
10.96         	(1.960425e+07 -1.878286e+07 2.111964e+07)	(1.959862e+07 -1.878354e+07 2.112752e+07)	(5.633632e+03 6.799264e+02 -7.880805e+03)
10.98         	(1.961013e+07 -1.878147e+07 2.111845e+07)	(1.960451e+07 -1.878215e+07 2.112630e+07)	(5.620634e+03 6.760196e+02 -7.852276e+03)
11            	(1.961580e+07 -1.878018e+07 2.111715e+07)	(1.961020e+07 -1.878086e+07 2.112497e+07)	(5.605497e+03 6.745647e+02 -7.823092e+03)
11.02         	(1.962177e+07 -1.877881e+07 2.111580e+07)	(1.961618e+07 -1.877949e+07 2.112359e+07)	(5.590251e+03 6.758098e+02 -7.797448e+03)
11.04         	(1.962772e+07 -1.877752e+07 2.111443e+07)	(1.962215e+07 -1.877820e+07 2.112221e+07)	(5.575664e+03 6.791201e+02 -7.775092e+03)
11.06         	(1.963364e+07 -1.877629e+07 2.111310e+07)	(1.962808e+07 -1.877697e+07 2.112086e+07)	(5.559925e+03 6.835639e+02 -7.756887e+03)
11.08         	(1.963948e+07 -1.877498e+07 2.111172e+07)	(1.963393e+07 -1.877567e+07 2.111946e+07)	(5.546980e+03 6.899678e+02 -7.741189e+03)
11.1          	(1.964517e+07 -1.877373e+07 2.111038e+07)	(1.963963e+07 -1.877442e+07 2.111810e+07)	(5.535125e+03 6.978127e+02 -7.728361e+03)
11.12         	(1.965092e+07 -1.877244e+07 2.110904e+07)	(1.964540e+07 -1.877315e+07 2.111676e+07)	(5.526764e+03 7.066763e+02 -7.718471e+03)
11.14         	(1.965659e+07 -1.877122e+07 2.110774e+07)	(1.965107e+07 -1.877194e+07 2.111545e+07)	(5.522338e+03 7.156929e+02 -7.710305e+03)
11.16         	(1.966224e+07 -1.877003e+07 2.110644e+07)	(1.965672e+07 -1.877075e+07 2.111414e+07)	(5.520671e+03 7.249193e+02 -7.704092e+03)
11.18         	(1.966785e+07 -1.876881e+07 2.110514e+07)	(1.966233e+07 -1.876954e+07 2.111284e+07)	(5.521179e+03 7.333995e+02 -7.699223e+03)
11.2          	(1.967335e+07 -1.876756e+07 2.110388e+07)	(1.966783e+07 -1.876830e+07 2.111157e+07)	(5.524012e+03 7.382229e+02 -7.693531e+03)
11.22         	(1.967882e+07 -1.876628e+07 2.110265e+07)	(1.967329e+07 -1.876702e+07 2.111034e+07)	(5.530529e+03 7.361763e+02 -7.689380e+03)
11.24         	(1.968415e+07 -1.876501e+07 2.110141e+07)	(1.967861e+07 -1.876575e+07 2.110909e+07)	(5.539313e+03 7.314386e+02 -7.686452e+03)
11.26         	(1.968938e+07 -1.876374e+07 2.110012e+07)	(1.968383e+07 -1.876446e+07 2.110780e+07)	(5.547534e+03 7.224080e+02 -7.683556e+03)
11.28         	(1.969452e+07 -1.876243e+07 2.109882e+07)	(1.968896e+07 -1.876314e+07 2.110650e+07)	(5.557657e+03 7.058579e+02 -7.681227e+03)
11.3          	(1.969965e+07 -1.876114e+07 2.109755e+07)	(1.969408e+07 -1.876183e+07 2.110523e+07)	(5.568921e+03 6.844394e+02 -7.679584e+03)
11.32         	(1.970468e+07 -1.875990e+07 2.109629e+07)	(1.969910e+07 -1.876056e+07 2.110396e+07)	(5.580476e+03 6.628456e+02 -7.677467e+03)
11.34         	(1.970964e+07 -1.875865e+07 2.109500e+07)	(1.970405e+07 -1.875929e+07 2.110267e+07)	(5.591945e+03 6.391809e+02 -7.672392e+03)
11.36         	(1.971468e+07 -1.875738e+07 2.109377e+07)	(1.970908e+07 -1.875799e+07 2.110143e+07)	(5.601027e+03 6.133246e+02 -7.664730e+03)
11.38         	(1.971943e+07 -1.875620e+07 2.109258e+07)	(1.971382e+07 -1.875678e+07 2.110024e+07)	(5.608786e+03 5.854337e+02 -7.656981e+03)
11.4          	(1.972417e+07 -1.875501e+07 2.109142e+07)	(1.971856e+07 -1.875557e+07 2.109907e+07)	(5.615568e+03 5.607656e+02 -7.648141e+03)
11.42         	(1.972889e+07 -1.875381e+07 2.109027e+07)	(1.972327e+07 -1.875435e+07 2.109791e+07)	(5.619517e+03 5.348863e+02 -7.638972e+03)
11.44         	(1.973350e+07 -1.875260e+07 2.108908e+07)	(1.972788e+07 -1.875311e+07 2.109671e+07)	(5.622971e+03 5.103500e+02 -7.629326e+03)
11.46         	(1.973801e+07 -1.875140e+07 2.108787e+07)	(1.973239e+07 -1.875189e+07 2.109549e+07)	(5.623987e+03 4.859794e+02 -7.618836e+03)
11.48         	(1.974246e+07 -1.875022e+07 2.108663e+07)	(1.973684e+07 -1.875068e+07 2.109424e+07)	(5.624025e+03 4.628258e+02 -7.607556e+03)
11.5          	(1.974686e+07 -1.874906e+07 2.108539e+07)	(1.974124e+07 -1.874950e+07 2.109299e+07)	(5.620727e+03 4.409756e+02 -7.595324e+03)
11.52         	(1.975128e+07 -1.874789e+07 2.108417e+07)	(1.974566e+07 -1.874831e+07 2.109175e+07)	(5.617270e+03 4.219862e+02 -7.583294e+03)
11.54         	(1.975563e+07 -1.874672e+07 2.108297e+07)	(1.975002e+07 -1.874713e+07 2.109054e+07)	(5.612391e+03 4.046768e+02 -7.572436e+03)
11.56         	(1.975995e+07 -1.874557e+07 2.108179e+07)	(1.975434e+07 -1.874596e+07 2.108935e+07)	(5.608865e+03 3.879410e+02 -7.562566e+03)
11.58         	(1.976417e+07 -1.874442e+07 2.108060e+07)	(1.975857e+07 -1.874479e+07 2.108815e+07)	(5.604923e+03 3.731898e+02 -7.554317e+03)
11.6          	(1.976834e+07 -1.874326e+07 2.107943e+07)	(1.976274e+07 -1.874362e+07 2.108697e+07)	(5.600754e+03 3.597828e+02 -7.545793e+03)
11.62         	(1.977244e+07 -1.874218e+07 2.107826e+07)	(1.976684e+07 -1.874252e+07 2.108580e+07)	(5.597500e+03 3.481075e+02 -7.538357e+03)
11.64         	(1.977649e+07 -1.874111e+07 2.107710e+07)	(1.977089e+07 -1.874145e+07 2.108463e+07)	(5.594606e+03 3.391563e+02 -7.531011e+03)
11.66         	(1.978043e+07 -1.874009e+07 2.107589e+07)	(1.977484e+07 -1.874043e+07 2.108342e+07)	(5.589821e+03 3.334180e+02 -7.525160e+03)
11.68         	(1.978435e+07 -1.873904e+07 2.107470e+07)	(1.977876e+07 -1.873937e+07 2.108222e+07)	(5.584358e+03 3.318433e+02 -7.520097e+03)
11.7          	(1.978822e+07 -1.873795e+07 2.107346e+07)	(1.978265e+07 -1.873828e+07 2.108098e+07)	(5.577096e+03 3.339074e+02 -7.518165e+03)
11.72         	(1.979203e+07 -1.873684e+07 2.107221e+07)	(1.978647e+07 -1.873718e+07 2.107973e+07)	(5.568402e+03 3.391141e+02 -7.519883e+03)
11.74         	(1.979558e+07 -1.873578e+07 2.107091e+07)	(1.979002e+07 -1.873613e+07 2.107844e+07)	(5.559651e+03 3.463756e+02 -7.524702e+03)
11.76         	(1.979916e+07 -1.873472e+07 2.106963e+07)	(1.979360e+07 -1.873507e+07 2.107717e+07)	(5.551754e+03 3.557870e+02 -7.532134e+03)
11.78         	(1.980256e+07 -1.873368e+07 2.106837e+07)	(1.979701e+07 -1.873405e+07 2.107591e+07)	(5.547505e+03 3.667206e+02 -7.543371e+03)
11.8          	(1.980602e+07 -1.873266e+07 2.106705e+07)	(1.980047e+07 -1.873304e+07 2.107461e+07)	(5.545715e+03 3.768843e+02 -7.556012e+03)
11.82         	(1.980942e+07 -1.873171e+07 2.106583e+07)	(1.980387e+07 -1.873209e+07 2.107340e+07)	(5.547173e+03 3.873197e+02 -7.568741e+03)
11.84         	(1.981283e+07 -1.873075e+07 2.106470e+07)	(1.980728e+07 -1.873115e+07 2.107228e+07)	(5.554757e+03 3.960205e+02 -7.580097e+03)
11.86         	(1.981619e+07 -1.872976e+07 2.106362e+07)	(1.981063e+07 -1.873017e+07 2.107121e+07)	(5.566250e+03 4.038076e+02 -7.591041e+03)
11.88         	(1.981948e+07 -1.872886e+07 2.106253e+07)	(1.981390e+07 -1.872927e+07 2.107013e+07)	(5.582948e+03 4.092301e+02 -7.603551e+03)
11.9          	(1.982258e+07 -1.872789e+07 2.106145e+07)	(1.981698e+07 -1.872830e+07 2.106907e+07)	(5.604624e+03 4.127740e+02 -7.616069e+03)
11.92         	(1.982557e+07 -1.872687e+07 2.106037e+07)	(1.981993e+07 -1.872728e+07 2.106800e+07)	(5.633357e+03 4.107947e+02 -7.624416e+03)
11.94         	(1.982838e+07 -1.872584e+07 2.105928e+07)	(1.982271e+07 -1.872625e+07 2.106691e+07)	(5.666923e+03 4.037802e+02 -7.626105e+03)
11.96         	(1.983117e+07 -1.872479e+07 2.105815e+07)	(1.982547e+07 -1.872518e+07 2.106578e+07)	(5.703207e+03 3.909111e+02 -7.623593e+03)
11.98         	(1.983389e+07 -1.872377e+07 2.105702e+07)	(1.982815e+07 -1.872415e+07 2.106464e+07)	(5.740988e+03 3.724691e+02 -7.616542e+03)
12            	(1.983672e+07 -1.872275e+07 2.105593e+07)	(1.983094e+07 -1.872310e+07 2.106353e+07)	(5.778742e+03 3.504887e+02 -7.605139e+03)
12.02         	(1.983944e+07 -1.872171e+07 2.105483e+07)	(1.983363e+07 -1.872204e+07 2.106242e+07)	(5.817304e+03 3.256285e+02 -7.591969e+03)
12.04         	(1.984214e+07 -1.872069e+07 2.105377e+07)	(1.983628e+07 -1.872099e+07 2.106135e+07)	(5.856459e+03 2.981675e+02 -7.578289e+03)
12.06         	(1.984466e+07 -1.871964e+07 2.105272e+07)	(1.983877e+07 -1.871992e+07 2.106029e+07)	(5.894696e+03 2.714132e+02 -7.564670e+03)
12.08         	(1.984708e+07 -1.871859e+07 2.105171e+07)	(1.984114e+07 -1.871884e+07 2.105926e+07)	(5.931730e+03 2.460626e+02 -7.548801e+03)
12.1          	(1.984933e+07 -1.871754e+07 2.105066e+07)	(1.984336e+07 -1.871776e+07 2.105819e+07)	(5.964252e+03 2.222438e+02 -7.528273e+03)
12.12         	(1.985143e+07 -1.871651e+07 2.104955e+07)	(1.984543e+07 -1.871671e+07 2.105705e+07)	(5.991737e+03 2.004973e+02 -7.501746e+03)
12.14         	(1.985345e+07 -1.871547e+07 2.104844e+07)	(1.984744e+07 -1.871565e+07 2.105591e+07)	(6.012363e+03 1.804931e+02 -7.467029e+03)
12.16         	(1.985534e+07 -1.871443e+07 2.104731e+07)	(1.984932e+07 -1.871459e+07 2.105474e+07)	(6.025476e+03 1.619880e+02 -7.426168e+03)
12.18         	(1.985720e+07 -1.871338e+07 2.104616e+07)	(1.985117e+07 -1.871352e+07 2.105354e+07)	(6.030962e+03 1.452373e+02 -7.380102e+03)
12.2          	(1.985890e+07 -1.871237e+07 2.104498e+07)	(1.985287e+07 -1.871250e+07 2.105231e+07)	(6.031171e+03 1.302854e+02 -7.332181e+03)
12.22         	(1.986053e+07 -1.871139e+07 2.104384e+07)	(1.985450e+07 -1.871151e+07 2.105113e+07)	(6.024964e+03 1.174482e+02 -7.285932e+03)
12.24         	(1.986194e+07 -1.871042e+07 2.104265e+07)	(1.985592e+07 -1.871052e+07 2.104989e+07)	(6.014150e+03 1.074214e+02 -7.241383e+03)
12.26         	(1.986318e+07 -1.870944e+07 2.104143e+07)	(1.985718e+07 -1.870954e+07 2.104863e+07)	(5.998174e+03 1.002046e+02 -7.200122e+03)
12.28         	(1.986429e+07 -1.870847e+07 2.104024e+07)	(1.985831e+07 -1.870856e+07 2.104740e+07)	(5.979459e+03 9.661177e+01 -7.164272e+03)
12.3          	(1.986522e+07 -1.870761e+07 2.103906e+07)	(1.985926e+07 -1.870771e+07 2.104619e+07)	(5.956912e+03 9.648200e+01 -7.132006e+03)
12.32         	(1.986610e+07 -1.870674e+07 2.103787e+07)	(1.986017e+07 -1.870684e+07 2.104498e+07)	(5.930854e+03 1.013319e+02 -7.104234e+03)
12.34         	(1.986700e+07 -1.870586e+07 2.103674e+07)	(1.986110e+07 -1.870597e+07 2.104382e+07)	(5.902144e+03 1.080986e+02 -7.079720e+03)
12.36         	(1.986795e+07 -1.870498e+07 2.103564e+07)	(1.986208e+07 -1.870510e+07 2.104270e+07)	(5.870158e+03 1.173215e+02 -7.061171e+03)
12.38         	(1.986893e+07 -1.870412e+07 2.103459e+07)	(1.986310e+07 -1.870425e+07 2.104163e+07)	(5.837695e+03 1.275427e+02 -7.045579e+03)
12.4          	(1.986985e+07 -1.870339e+07 2.103362e+07)	(1.986404e+07 -1.870353e+07 2.104065e+07)	(5.804966e+03 1.390492e+02 -7.033002e+03)
12.42         	(1.987069e+07 -1.870265e+07 2.103266e+07)	(1.986492e+07 -1.870280e+07 2.103968e+07)	(5.775100e+03 1.522711e+02 -7.022610e+03)
12.44         	(1.987142e+07 -1.870192e+07 2.103172e+07)	(1.986567e+07 -1.870209e+07 2.103873e+07)	(5.747303e+03 1.673057e+02 -7.012099e+03)
12.46         	(1.987205e+07 -1.870123e+07 2.103084e+07)	(1.986633e+07 -1.870141e+07 2.103784e+07)	(5.722698e+03 1.853269e+02 -7.000498e+03)
12.48         	(1.987257e+07 -1.870053e+07 2.103006e+07)	(1.986686e+07 -1.870074e+07 2.103705e+07)	(5.701711e+03 2.026468e+02 -6.989063e+03)
12.5          	(1.987318e+07 -1.869986e+07 2.102932e+07)	(1.986748e+07 -1.870008e+07 2.103629e+07)	(5.693863e+03 2.148778e+02 -6.974671e+03)
12.52         	(1.987380e+07 -1.869921e+07 2.102863e+07)	(1.986810e+07 -1.869943e+07 2.103559e+07)	(5.698339e+03 2.189102e+02 -6.956084e+03)
12.54         	(1.987448e+07 -1.869855e+07 2.102794e+07)	(1.986877e+07 -1.869877e+07 2.103487e+07)	(5.711113e+03 2.163456e+02 -6.931373e+03)
12.56         	(1.987509e+07 -1.869788e+07 2.102730e+07)	(1.986936e+07 -1.869809e+07 2.103420e+07)	(5.731890e+03 2.075955e+02 -6.904840e+03)
12.58         	(1.987565e+07 -1.869715e+07 2.102668e+07)	(1.986990e+07 -1.869735e+07 2.103355e+07)	(5.756561e+03 1.960491e+02 -6.875091e+03)
12.6          	(1.987616e+07 -1.869644e+07 2.102602e+07)	(1.987038e+07 -1.869662e+07 2.103287e+07)	(5.783390e+03 1.838517e+02 -6.843295e+03)
12.62         	(1.987664e+07 -1.869570e+07 2.102543e+07)	(1.987083e+07 -1.869587e+07 2.103224e+07)	(5.809530e+03 1.715799e+02 -6.809952e+03)
12.64         	(1.987705e+07 -1.869493e+07 2.102487e+07)	(1.987122e+07 -1.869509e+07 2.103165e+07)	(5.831859e+03 1.596381e+02 -6.777843e+03)
12.66         	(1.987744e+07 -1.869417e+07 2.102427e+07)	(1.987159e+07 -1.869432e+07 2.103102e+07)	(5.852196e+03 1.484945e+02 -6.747010e+03)
12.68         	(1.987778e+07 -1.869338e+07 2.102362e+07)	(1.987191e+07 -1.869352e+07 2.103034e+07)	(5.868478e+03 1.404058e+02 -6.715209e+03)
12.7          	(1.987813e+07 -1.869255e+07 2.102296e+07)	(1.987225e+07 -1.869268e+07 2.102965e+07)	(5.882789e+03 1.343576e+02 -6.683137e+03)
12.72         	(1.987841e+07 -1.869173e+07 2.102230e+07)	(1.987251e+07 -1.869186e+07 2.102895e+07)	(5.892036e+03 1.332585e+02 -6.650745e+03)
12.74         	(1.987864e+07 -1.869085e+07 2.102162e+07)	(1.987275e+07 -1.869099e+07 2.102824e+07)	(5.897208e+03 1.339886e+02 -6.615000e+03)
12.76         	(1.987876e+07 -1.869002e+07 2.102095e+07)	(1.987286e+07 -1.869016e+07 2.102753e+07)	(5.897322e+03 1.389858e+02 -6.579242e+03)
12.78         	(1.987895e+07 -1.868916e+07 2.102030e+07)	(1.987306e+07 -1.868931e+07 2.102685e+07)	(5.893020e+03 1.448140e+02 -6.541334e+03)
12.8          	(1.987912e+07 -1.868832e+07 2.101964e+07)	(1.987324e+07 -1.868847e+07 2.102614e+07)	(5.886405e+03 1.527677e+02 -6.497803e+03)
12.82         	(1.987929e+07 -1.868743e+07 2.101902e+07)	(1.987342e+07 -1.868759e+07 2.102548e+07)	(5.872626e+03 1.611246e+02 -6.450940e+03)
12.84         	(1.987947e+07 -1.868655e+07 2.101846e+07)	(1.987362e+07 -1.868672e+07 2.102486e+07)	(5.856433e+03 1.698569e+02 -6.399759e+03)
12.86         	(1.987991e+07 -1.868568e+07 2.101798e+07)	(1.987407e+07 -1.868585e+07 2.102433e+07)	(5.836666e+03 1.773887e+02 -6.346428e+03)
12.88         	(1.988053e+07 -1.868481e+07 2.101754e+07)	(1.987471e+07 -1.868499e+07 2.102384e+07)	(5.814331e+03 1.839301e+02 -6.292918e+03)
12.9          	(1.988112e+07 -1.868399e+07 2.101713e+07)	(1.987533e+07 -1.868418e+07 2.102337e+07)	(5.789521e+03 1.902758e+02 -6.236562e+03)
12.92         	(1.988163e+07 -1.868317e+07 2.101663e+07)	(1.987586e+07 -1.868337e+07 2.102281e+07)	(5.765473e+03 1.971923e+02 -6.177854e+03)
12.94         	(1.988197e+07 -1.868240e+07 2.101611e+07)	(1.987623e+07 -1.868261e+07 2.102223e+07)	(5.740013e+03 2.050853e+02 -6.120707e+03)
12.96         	(1.988217e+07 -1.868167e+07 2.101553e+07)	(1.987645e+07 -1.868189e+07 2.102159e+07)	(5.718678e+03 2.132139e+02 -6.066097e+03)
12.98         	(1.988228e+07 -1.868094e+07 2.101492e+07)	(1.987659e+07 -1.868117e+07 2.102093e+07)	(5.697832e+03 2.245203e+02 -6.013875e+03)
13            	(1.988243e+07 -1.868016e+07 2.101432e+07)	(1.987675e+07 -1.868040e+07 2.102028e+07)	(5.682800e+03 2.373121e+02 -5.967547e+03)
13.02         	(1.988238e+07 -1.867947e+07 2.101375e+07)	(1.987671e+07 -1.867972e+07 2.101968e+07)	(5.671241e+03 2.525152e+02 -5.925443e+03)
13.04         	(1.988243e+07 -1.867873e+07 2.101314e+07)	(1.987677e+07 -1.867899e+07 2.101903e+07)	(5.663462e+03 2.669406e+02 -5.887668e+03)
13.06         	(1.988234e+07 -1.867803e+07 2.101258e+07)	(1.987668e+07 -1.867831e+07 2.101844e+07)	(5.659930e+03 2.809541e+02 -5.854654e+03)
13.08         	(1.988227e+07 -1.867732e+07 2.101206e+07)	(1.987661e+07 -1.867761e+07 2.101788e+07)	(5.660352e+03 2.947173e+02 -5.824324e+03)
13.1          	(1.988235e+07 -1.867660e+07 2.101157e+07)	(1.987669e+07 -1.867691e+07 2.101736e+07)	(5.661407e+03 3.092270e+02 -5.796206e+03)
13.12         	(1.988253e+07 -1.867595e+07 2.101111e+07)	(1.987687e+07 -1.867627e+07 2.101689e+07)	(5.666122e+03 3.213726e+02 -5.771880e+03)
13.14         	(1.988262e+07 -1.867528e+07 2.101063e+07)	(1.987695e+07 -1.867561e+07 2.101637e+07)	(5.675058e+03 3.306193e+02 -5.747048e+03)
13.16         	(1.988265e+07 -1.867456e+07 2.101010e+07)	(1.987696e+07 -1.867490e+07 2.101582e+07)	(5.686237e+03 3.358320e+02 -5.722297e+03)
13.18         	(1.988265e+07 -1.867386e+07 2.100955e+07)	(1.987696e+07 -1.867420e+07 2.101525e+07)	(5.699483e+03 3.393949e+02 -5.696237e+03)
13.2          	(1.988266e+07 -1.867312e+07 2.100906e+07)	(1.987695e+07 -1.867346e+07 2.101473e+07)	(5.714256e+03 3.402297e+02 -5.671673e+03)