# Moment      
# CofR        : (0.000000e+00 0.000000e+00 0.000000e+00)
#
# Time        	(total_x total_y total_z)	(pressure_x pressure_y pressure_z)	(viscous_x viscous_y viscous_z)
9.29333       	(1.486991e+08 2.794903e+07 -5.275514e+07)	(1.486299e+08 2.788122e+07 -5.276456e+07)	(6.917287e+04 6.781349e+04 9.424815e+03)
9.30667       	(1.503947e+08 2.332916e+07 -6.818323e+07)	(1.503256e+08 2.326172e+07 -6.819258e+07)	(6.908579e+04 6.744588e+04 9.352150e+03)
9.32          	(1.503964e+08 2.332070e+07 -6.819005e+07)	(1.503275e+08 2.325349e+07 -6.819931e+07)	(6.894229e+04 6.720863e+04 9.254390e+03)
9.33333       	(1.503982e+08 2.331670e+07 -6.818209e+07)	(1.503294e+08 2.324972e+07 -6.819125e+07)	(6.884720e+04 6.698312e+04 9.163044e+03)
9.34667       	(1.503999e+08 2.331578e+07 -6.816989e+07)	(1.503311e+08 2.324906e+07 -6.817900e+07)	(6.880538e+04 6.672243e+04 9.115418e+03)
9.36          	(1.504015e+08 2.331597e+07 -6.815625e+07)	(1.503329e+08 2.324940e+07 -6.816532e+07)	(6.869689e+04 6.657517e+04 9.062030e+03)
9.37333       	(1.504030e+08 2.331821e+07 -6.814364e+07)	(1.503344e+08 2.325178e+07 -6.815262e+07)	(6.865458e+04 6.642978e+04 8.978692e+03)
9.38667       	(1.504044e+08 2.332132e+07 -6.813030e+07)	(1.503357e+08 2.325504e+07 -6.813917e+07)	(6.865532e+04 6.627792e+04 8.871886e+03)
9.4           	(1.504060e+08 2.332464e+07 -6.811704e+07)	(1.503374e+08 2.325847e+07 -6.812580e+07)	(6.863799e+04 6.616611e+04 8.756318e+03)
9.41333       	(1.504085e+08 2.332704e+07 -6.810213e+07)	(1.503399e+08 2.326095e+07 -6.811074e+07)	(6.861465e+04 6.608777e+04 8.613861e+03)
9.42667       	(1.504111e+08 2.332973e+07 -6.808627e+07)	(1.503425e+08 2.326371e+07 -6.809475e+07)	(6.860368e+04 6.602085e+04 8.482775e+03)
9.44          	(1.504141e+08 2.333243e+07 -6.807146e+07)	(1.503455e+08 2.326646e+07 -6.807980e+07)	(6.858500e+04 6.596613e+04 8.338880e+03)
9.45333       	(1.504172e+08 2.333504e+07 -6.805469e+07)	(1.503486e+08 2.326912e+07 -6.806286e+07)	(6.858560e+04 6.591695e+04 8.168403e+03)
9.46667       	(1.504197e+08 2.333827e+07 -6.803580e+07)	(1.503511e+08 2.327240e+07 -6.804379e+07)	(6.859067e+04 6.586975e+04 7.984299e+03)
9.48          	(1.504222e+08 2.334140e+07 -6.801592e+07)	(1.503536e+08 2.327556e+07 -6.802371e+07)	(6.859024e+04 6.583457e+04 7.790033e+03)
9.49333       	(1.504247e+08 2.334513e+07 -6.799351e+07)	(1.503561e+08 2.327932e+07 -6.800109e+07)	(6.858410e+04 6.580808e+04 7.579376e+03)
9.50667       	(1.504273e+08 2.334789e+07 -6.797092e+07)	(1.503587e+08 2.328209e+07 -6.797827e+07)	(6.856047e+04 6.579845e+04 7.357727e+03)
9.52          	(1.504299e+08 2.335153e+07 -6.794642e+07)	(1.503614e+08 2.328573e+07 -6.795354e+07)	(6.851616e+04 6.580053e+04 7.115158e+03)
9.53333       	(1.504321e+08 2.335590e+07 -6.792199e+07)	(1.503637e+08 2.329009e+07 -6.792885e+07)	(6.846468e+04 6.580049e+04 6.850960e+03)
9.54667       	(1.504345e+08 2.336038e+07 -6.789860e+07)	(1.503661e+08 2.329460e+07 -6.790518e+07)	(6.841393e+04 6.578104e+04 6.587999e+03)
9.56          	(1.504368e+08 2.336513e+07 -6.787569e+07)	(1.503685e+08 2.329937e+07 -6.788201e+07)	(6.835724e+04 6.576356e+04 6.327761e+03)
9.57333       	(1.504398e+08 2.336895e+07 -6.785366e+07)	(1.503715e+08 2.330321e+07 -6.785972e+07)	(6.832201e+04 6.573203e+04 6.056747e+03)
9.58667       	(1.504428e+08 2.337308e+07 -6.783141e+07)	(1.503745e+08 2.330739e+07 -6.783722e+07)	(6.826635e+04 6.568759e+04 5.804765e+03)
9.6           	(1.504457e+08 2.337722e+07 -6.780703e+07)	(1.503775e+08 2.331158e+07 -6.781260e+07)	(6.819687e+04 6.563752e+04 5.568626e+03)
9.61333       	(1.504488e+08 2.338073e+07 -6.778219e+07)	(1.503807e+08 2.331516e+07 -6.778754e+07)	(6.811751e+04 6.557246e+04 5.352815e+03)
9.62667       	(1.504516e+08 2.338452e+07 -6.775554e+07)	(1.503836e+08 2.331903e+07 -6.776069e+07)	(6.806216e+04 6.549210e+04 5.151256e+03)
9.64          	(1.504546e+08 2.338746e+07 -6.772691e+07)	(1.503866e+08 2.332207e+07 -6.773189e+07)	(6.800999e+04 6.539862e+04 4.983875e+03)
9.65333       	(1.504575e+08 2.339114e+07 -6.769876e+07)	(1.503896e+08 2.332573e+07 -6.770362e+07)	(6.786894e+04 6.540939e+04 4.853510e+03)
9.66667       	(1.504610e+08 2.339381e+07 -6.767221e+07)	(1.503932e+08 2.332843e+07 -6.767693e+07)	(6.779590e+04 6.537950e+04 4.722625e+03)
9.68          	(1.504642e+08 2.339748e+07 -6.764516e+07)	(1.503965e+08 2.333216e+07 -6.764976e+07)	(6.777373e+04 6.531469e+04 4.604168e+03)
9.69333       	(1.504679e+08 2.340067e+07 -6.761890e+07)	(1.504002e+08 2.333543e+07 -6.762341e+07)	(6.775699e+04 6.523110e+04 4.510228e+03)
9.70667       	(1.504717e+08 2.340368e+07 -6.759214e+07)	(1.504040e+08 2.333846e+07 -6.759651e+07)	(6.770277e+04 6.521797e+04 4.367519e+03)
9.72          	(1.504749e+08 2.340743e+07 -6.756545e+07)	(1.504073e+08 2.334220e+07 -6.756972e+07)	(6.758019e+04 6.522975e+04 4.274940e+03)
9.73          	(1.504776e+08 2.339883e+07 -6.745720e+07)	(1.504099e+08 2.333350e+07 -6.746136e+07)	(6.771924e+04 6.532505e+04 4.160378e+03)
9.74          	(1.504805e+08 2.340415e+07 -6.745539e+07)	(1.504129e+08 2.333867e+07 -6.745947e+07)	(6.769211e+04 6.547938e+04 4.086287e+03)
9.75          	(1.504852e+08 2.340800e+07 -6.745010e+07)	(1.504174e+08 2.334267e+07 -6.745420e+07)	(6.782576e+04 6.532834e+04 4.101103e+03)
9.76          	(1.504897e+08 2.341168e+07 -6.744221e+07)	(1.504216e+08 2.334661e+07 -6.744629e+07)	(6.809986e+04 6.507068e+04 4.073499e+03)
9.77333       	(1.504945e+08 2.342855e+07 -6.750825e+07)	(1.504264e+08 2.336387e+07 -6.751226e+07)	(6.818036e+04 6.468435e+04 4.005043e+03)
9.78667       	(1.504966e+08 2.343313e+07 -6.746238e+07)	(1.504284e+08 2.336870e+07 -6.746636e+07)	(6.819366e+04 6.443412e+04 3.972993e+03)
9.8           	(1.504986e+08 2.343803e+07 -6.741771e+07)	(1.504303e+08 2.337388e+07 -6.742162e+07)	(6.828869e+04 6.415020e+04 3.910793e+03)
9.81333       	(1.505008e+08 2.344337e+07 -6.737367e+07)	(1.504325e+08 2.337945e+07 -6.737755e+07)	(6.833366e+04 6.392654e+04 3.879304e+03)
9.82667       	(1.505039e+08 2.344831e+07 -6.733263e+07)	(1.504355e+08 2.338457e+07 -6.733644e+07)	(6.841149e+04 6.374738e+04 3.814615e+03)
9.84          	(1.505074e+08 2.345410e+07 -6.729481e+07)	(1.504389e+08 2.339047e+07 -6.729852e+07)	(6.847130e+04 6.363044e+04 3.712910e+03)
9.86          	(1.505091e+08 2.348087e+07 -6.735270e+07)	(1.504408e+08 2.341758e+07 -6.735616e+07)	(6.831136e+04 6.328844e+04 3.462335e+03)
9.88          	(1.505125e+08 2.348849e+07 -6.726755e+07)	(1.504442e+08 2.342538e+07 -6.727075e+07)	(6.831399e+04 6.310867e+04 3.193579e+03)
9.9           	(1.505172e+08 2.349706e+07 -6.719374e+07)	(1.504489e+08 2.343408e+07 -6.719665e+07)	(6.836897e+04 6.298141e+04 2.917373e+03)
9.92          	(1.505231e+08 2.350763e+07 -6.713642e+07)	(1.504547e+08 2.344473e+07 -6.713906e+07)	(6.845908e+04 6.289349e+04 2.641623e+03)
9.94          	(1.505309e+08 2.351796e+07 -6.708717e+07)	(1.504623e+08 2.345514e+07 -6.708953e+07)	(6.855550e+04 6.282212e+04 2.360845e+03)
9.96          	(1.505393e+08 2.352888e+07 -6.704524e+07)	(1.504707e+08 2.346612e+07 -6.704733e+07)	(6.866897e+04 6.276008e+04 2.087532e+03)
9.98          	(1.505480e+08 2.354044e+07 -6.700260e+07)	(1.504792e+08 2.347775e+07 -6.700444e+07)	(6.877243e+04 6.268906e+04 1.831561e+03)
10            	(1.505563e+08 2.355265e+07 -6.695590e+07)	(1.504874e+08 2.349004e+07 -6.695752e+07)	(6.883771e+04 6.260604e+04 1.615804e+03)
10.02         	(1.505643e+08 2.356472e+07 -6.690509e+07)	(1.504955e+08 2.350222e+07 -6.690653e+07)	(6.887284e+04 6.250007e+04 1.436261e+03)
10.04         	(1.505726e+08 2.357638e+07 -6.684894e+07)	(1.505037e+08 2.351399e+07 -6.685021e+07)	(6.887416e+04 6.239511e+04 1.267651e+03)
10.06         	(1.505805e+08 2.358826e+07 -6.678943e+07)	(1.505116e+08 2.352599e+07 -6.679056e+07)	(6.885784e+04 6.227366e+04 1.122677e+03)
10.08         	(1.505882e+08 2.360052e+07 -6.672695e+07)	(1.505194e+08 2.353839e+07 -6.672796e+07)	(6.883255e+04 6.212851e+04 1.009532e+03)
10.1          	(1.505960e+08 2.361308e+07 -6.666131e+07)	(1.505273e+08 2.355111e+07 -6.666224e+07)	(6.878995e+04 6.197278e+04 9.242739e+02)
10.12         	(1.506044e+08 2.362512e+07 -6.659889e+07)	(1.505357e+08 2.356330e+07 -6.659976e+07)	(6.873328e+04 6.181794e+04 8.665366e+02)
10.14         	(1.506132e+08 2.363828e+07 -6.654009e+07)	(1.505445e+08 2.357663e+07 -6.654091e+07)	(6.866811e+04 6.164931e+04 8.152541e+02)
10.16         	(1.506220e+08 2.365213e+07 -6.648270e+07)	(1.505535e+08 2.359069e+07 -6.648348e+07)	(6.856615e+04 6.144039e+04 7.764929e+02)
10.18         	(1.506312e+08 2.366606e+07 -6.642545e+07)	(1.505628e+08 2.360485e+07 -6.642618e+07)	(6.845491e+04 6.121034e+04 7.316686e+02)
10.2          	(1.506405e+08 2.368060e+07 -6.636851e+07)	(1.505722e+08 2.361965e+07 -6.636922e+07)	(6.832648e+04 6.095443e+04 7.107034e+02)
10.22         	(1.506498e+08 2.369527e+07 -6.630912e+07)	(1.505817e+08 2.363460e+07 -6.630979e+07)	(6.816549e+04 6.066235e+04 6.745115e+02)
10.24         	(1.506596e+08 2.370902e+07 -6.624758e+07)	(1.505916e+08 2.364868e+07 -6.624822e+07)	(6.795827e+04 6.034122e+04 6.461286e+02)
10.26         	(1.506693e+08 2.372286e+07 -6.618308e+07)	(1.506016e+08 2.366287e+07 -6.618368e+07)	(6.771360e+04 5.998726e+04 6.060281e+02)
10.28         	(1.506794e+08 2.373585e+07 -6.611953e+07)	(1.506120e+08 2.367621e+07 -6.612010e+07)	(6.745857e+04 5.963460e+04 5.665108e+02)
10.3          	(1.506902e+08 2.374854e+07 -6.605791e+07)	(1.506230e+08 2.368924e+07 -6.605841e+07)	(6.720270e+04 5.929481e+04 4.984082e+02)
10.32         	(1.507011e+08 2.376200e+07 -6.599291e+07)	(1.506342e+08 2.370302e+07 -6.599332e+07)	(6.694125e+04 5.898516e+04 4.099214e+02)
10.34         	(1.507118e+08 2.377568e+07 -6.592916e+07)	(1.506451e+08 2.371696e+07 -6.592943e+07)	(6.666203e+04 5.871482e+04 2.735128e+02)
10.36         	(1.507228e+08 2.378900e+07 -6.586243e+07)	(1.506565e+08 2.373051e+07 -6.586255e+07)	(6.635956e+04 5.848978e+04 1.205503e+02)
10.38         	(1.507340e+08 2.380315e+07 -6.579287e+07)	(1.506679e+08 2.374484e+07 -6.579283e+07)	(6.606006e+04 5.830926e+04 -3.740798e+01)
10.4          	(1.507449e+08 2.381898e+07 -6.572297e+07)	(1.506791e+08 2.376081e+07 -6.572279e+07)	(6.576930e+04 5.816666e+04 -1.765053e+02)
10.42         	(1.507559e+08 2.383426e+07 -6.565423e+07)	(1.506904e+08 2.377619e+07 -6.565393e+07)	(6.548921e+04 5.806445e+04 -2.971421e+02)
10.44         	(1.507671e+08 2.385235e+07 -6.558287e+07)	(1.507019e+08 2.379436e+07 -6.558246e+07)	(6.523034e+04 5.799199e+04 -4.029685e+02)
10.46         	(1.507782e+08 2.386853e+07 -6.551916e+07)	(1.507132e+08 2.381061e+07 -6.551865e+07)	(6.499883e+04 5.792498e+04 -5.068130e+02)
10.48         	(1.507898e+08 2.388673e+07 -6.545322e+07)	(1.507250e+08 2.382887e+07 -6.545259e+07)	(6.475637e+04 5.786035e+04 -6.284115e+02)
10.5          	(1.508020e+08 2.390447e+07 -6.538376e+07)	(1.507374e+08 2.384666e+07 -6.538298e+07)	(6.454942e+04 5.781019e+04 -7.841526e+02)
10.52         	(1.508142e+08 2.392257e+07 -6.531349e+07)	(1.507499e+08 2.386480e+07 -6.531252e+07)	(6.432960e+04 5.776052e+04 -9.729337e+02)
10.54         	(1.508263e+08 2.394083e+07 -6.524361e+07)	(1.507622e+08 2.388313e+07 -6.524242e+07)	(6.410323e+04 5.770324e+04 -1.196835e+03)
10.56         	(1.508390e+08 2.395936e+07 -6.517088e+07)	(1.507752e+08 2.390172e+07 -6.516942e+07)	(6.383823e+04 5.763831e+04 -1.458821e+03)
10.58         	(1.508511e+08 2.397783e+07 -6.509970e+07)	(1.507875e+08 2.392025e+07 -6.509795e+07)	(6.357759e+04 5.757713e+04 -1.745191e+03)
10.6          	(1.508637e+08 2.399628e+07 -6.502620e+07)	(1.508004e+08 2.393877e+07 -6.502414e+07)	(6.331220e+04 5.751078e+04 -2.058724e+03)
10.62         	(1.508774e+08 2.401379e+07 -6.495416e+07)	(1.508143e+08 2.395634e+07 -6.495177e+07)	(6.308519e+04 5.744930e+04 -2.388092e+03)
10.64         	(1.508918e+08 2.403076e+07 -6.488319e+07)	(1.508289e+08 2.397338e+07 -6.488046e+07)	(6.289961e+04 5.738803e+04 -2.730066e+03)
10.66         	(1.509065e+08 2.404733e+07 -6.481491e+07)	(1.508437e+08 2.399000e+07 -6.481185e+07)	(6.276891e+04 5.732932e+04 -3.068586e+03)
10.68         	(1.509219e+08 2.406346e+07 -6.474663e+07)	(1.508592e+08 2.400615e+07 -6.474322e+07)	(6.268331e+04 5.731025e+04 -3.408283e+03)
10.7          	(1.509370e+08 2.408087e+07 -6.467893e+07)	(1.508744e+08 2.402357e+07 -6.467518e+07)	(6.263787e+04 5.729725e+04 -3.742225e+03)
10.72         	(1.509526e+08 2.409745e+07 -6.461069e+07)	(1.508900e+08 2.404017e+07 -6.460663e+07)	(6.257293e+04 5.727614e+04 -4.067048e+03)
10.74         	(1.509677e+08 2.411441e+07 -6.453802e+07)	(1.509053e+08 2.405719e+07 -6.453366e+07)	(6.245383e+04 5.721553e+04 -4.355522e+03)
10.76         	(1.509831e+08 2.413032e+07 -6.446332e+07)	(1.509208e+08 2.407320e+07 -6.445869e+07)	(6.226579e+04 5.711893e+04 -4.628695e+03)
10.78         	(1.509980e+08 2.414710e+07 -6.438989e+07)	(1.509360e+08 2.409012e+07 -6.438505e+07)	(6.201473e+04 5.698778e+04 -4.845434e+03)
10.8          	(1.510136e+08 2.416269e+07 -6.431359e+07)	(1.509518e+08 2.410583e+07 -6.430856e+07)	(6.174778e+04 5.685410e+04 -5.033231e+03)
10.82         	(1.510295e+08 2.417749e+07 -6.423711e+07)	(1.509680e+08 2.412077e+07 -6.423194e+07)	(6.149871e+04 5.671679e+04 -5.162690e+03)
10.84         	(1.510457e+08 2.419209e+07 -6.416020e+07)	(1.509844e+08 2.413552e+07 -6.415493e+07)	(6.124832e+04 5.657372e+04 -5.272209e+03)
10.86         	(1.510620e+08 2.420681e+07 -6.408694e+07)	(1.510010e+08 2.415037e+07 -6.408160e+07)	(6.099573e+04 5.643309e+04 -5.342771e+03)
10.88         	(1.510787e+08 2.422158e+07 -6.401649e+07)	(1.510179e+08 2.416529e+07 -6.401108e+07)	(6.072939e+04 5.629316e+04 -5.406281e+03)
10.9          	(1.510958e+08 2.423636e+07 -6.394863e+07)	(1.510353e+08 2.418020e+07 -6.394315e+07)	(6.044552e+04 5.616185e+04 -5.480541e+03)
10.92         	(1.511127e+08 2.425189e+07 -6.388122e+07)	(1.510525e+08 2.419588e+07 -6.387565e+07)	(6.015921e+04 5.601713e+04 -5.578075e+03)
10.94         	(1.511292e+08 2.426864e+07 -6.381269e+07)	(1.510693e+08 2.421278e+07 -6.380700e+07)	(5.985317e+04 5.585632e+04 -5.682190e+03)
10.96         	(1.511453e+08 2.428581e+07 -6.374503e+07)	(1.510857e+08 2.423011e+07 -6.373923e+07)	(5.953263e+04 5.570298e+04 -5.799903e+03)
10.98         	(1.511612e+08 2.430362e+07 -6.367315e+07)	(1.511020e+08 2.424807e+07 -6.366726e+07)	(5.922441e+04 5.555625e+04 -5.888515e+03)
11            	(1.511764e+08 2.432210e+07 -6.360403e+07)	(1.511175e+08 2.426669e+07 -6.359809e+07)	(5.888172e+04 5.540943e+04 -5.939207e+03)
11.02         	(1.511917e+08 2.434142e+07 -6.353017e+07)	(1.511331e+08 2.428613e+07 -6.352421e+07)	(5.853871e+04 5.529111e+04 -5.957144e+03)
11.04         	(1.512067e+08 2.436084e+07 -6.345615e+07)	(1.511485e+08 2.430564e+07 -6.345019e+07)	(5.817323e+04 5.520132e+04 -5.957821e+03)
11.06         	(1.512222e+08 2.438008e+07 -6.338293e+07)	(1.511644e+08 2.432494e+07 -6.337700e+07)	(5.779215e+04 5.513936e+04 -5.933378e+03)
11.08         	(1.512374e+08 2.439971e+07 -6.330990e+07)	(1.511800e+08 2.434461e+07 -6.330401e+07)	(5.739009e+04 5.509825e+04 -5.897740e+03)
11.1          	(1.512531e+08 2.441873e+07 -6.323899e+07)	(1.511961e+08 2.436365e+07 -6.323314e+07)	(5.696100e+04 5.508182e+04 -5.849878e+03)
11.12         	(1.512691e+08 2.443786e+07 -6.316750e+07)	(1.512126e+08 2.438276e+07 -6.316169e+07)	(5.649655e+04 5.509492e+04 -5.818430e+03)
11.14         	(1.512851e+08 2.445655e+07 -6.309746e+07)	(1.512291e+08 2.440141e+07 -6.309164e+07)	(5.599634e+04 5.513638e+04 -5.815822e+03)
11.16         	(1.513011e+08 2.447540e+07 -6.302797e+07)	(1.512457e+08 2.442019e+07 -6.302213e+07)	(5.546632e+04 5.520179e+04 -5.834257e+03)
11.18         	(1.513172e+08 2.449404e+07 -6.295872e+07)	(1.512623e+08 2.443875e+07 -6.295284e+07)	(5.491777e+04 5.528967e+04 -5.879065e+03)
11.2          	(1.513336e+08 2.451188e+07 -6.289015e+07)	(1.512792e+08 2.445650e+07 -6.288417e+07)	(5.436373e+04 5.537828e+04 -5.981894e+03)
11.22         	(1.513504e+08 2.452910e+07 -6.282138e+07)	(1.512966e+08 2.447362e+07 -6.281521e+07)	(5.384699e+04 5.548329e+04 -6.167578e+03)
11.24         	(1.513674e+08 2.454621e+07 -6.275423e+07)	(1.513140e+08 2.449060e+07 -6.274786e+07)	(5.335280e+04 5.560764e+04 -6.366411e+03)
11.26         	(1.513843e+08 2.456341e+07 -6.268814e+07)	(1.513314e+08 2.450768e+07 -6.268156e+07)	(5.291436e+04 5.572914e+04 -6.582232e+03)
11.28         	(1.514013e+08 2.458039e+07 -6.262361e+07)	(1.513487e+08 2.452455e+07 -6.261672e+07)	(5.254122e+04 5.583695e+04 -6.885064e+03)
11.3          	(1.514185e+08 2.459695e+07 -6.255990e+07)	(1.513662e+08 2.454102e+07 -6.255267e+07)	(5.223050e+04 5.593652e+04 -7.229232e+03)
11.32         	(1.514357e+08 2.461326e+07 -6.249790e+07)	(1.513838e+08 2.455724e+07 -6.249033e+07)	(5.194359e+04 5.601734e+04 -7.568251e+03)
11.34         	(1.514530e+08 2.462984e+07 -6.243708e+07)	(1.514013e+08 2.457378e+07 -6.242916e+07)	(5.171112e+04 5.605723e+04 -7.923378e+03)
11.36         	(1.514704e+08 2.464596e+07 -6.237622e+07)	(1.514189e+08 2.458989e+07 -6.236793e+07)	(5.148837e+04 5.606906e+04 -8.299505e+03)
11.38         	(1.514879e+08 2.466106e+07 -6.231850e+07)	(1.514366e+08 2.460499e+07 -6.230981e+07)	(5.127877e+04 5.607843e+04 -8.695615e+03)
11.4          	(1.515054e+08 2.467602e+07 -6.226059e+07)	(1.514544e+08 2.461994e+07 -6.225154e+07)	(5.104526e+04 5.607900e+04 -9.054549e+03)
11.42         	(1.515229e+08 2.469082e+07 -6.220394e+07)	(1.514721e+08 2.463474e+07 -6.219452e+07)	(5.081879e+04 5.607709e+04 -9.420511e+03)
11.44         	(1.515401e+08 2.470581e+07 -6.214756e+07)	(1.514895e+08 2.464973e+07 -6.213781e+07)	(5.058637e+04 5.607266e+04 -9.758393e+03)
11.46         	(1.515571e+08 2.472087e+07 -6.209184e+07)	(1.515067e+08 2.466482e+07 -6.208177e+07)	(5.040366e+04 5.604750e+04 -1.006639e+04)
11.48         	(1.515738e+08 2.473591e+07 -6.203690e+07)	(1.515235e+08 2.467991e+07 -6.202655e+07)	(5.024220e+04 5.600537e+04 -1.034275e+04)
11.5          	(1.515904e+08 2.475085e+07 -6.198310e+07)	(1.515403e+08 2.469491e+07 -6.197251e+07)	(5.009972e+04 5.594041e+04 -1.059029e+04)
11.52         	(1.516069e+08 2.476545e+07 -6.192965e+07)	(1.515569e+08 2.470958e+07 -6.191883e+07)	(4.994166e+04 5.587433e+04 -1.081758e+04)
11.54         	(1.516233e+08 2.477992e+07 -6.187677e+07)	(1.515735e+08 2.472411e+07 -6.186576e+07)	(4.981112e+04 5.581068e+04 -1.100730e+04)
11.56         	(1.516396e+08 2.479395e+07 -6.182493e+07)	(1.515899e+08 2.473819e+07 -6.181373e+07)	(4.966458e+04 5.575652e+04 -1.120765e+04)
11.58         	(1.516557e+08 2.480805e+07 -6.177463e+07)	(1.516062e+08 2.475233e+07 -6.176325e+07)	(4.951688e+04 5.571281e+04 -1.138674e+04)
11.6          	(1.516717e+08 2.482189e+07 -6.172499e+07)	(1.516224e+08 2.476622e+07 -6.171343e+07)	(4.934842e+04 5.566940e+04 -1.155718e+04)
11.62         	(1.516877e+08 2.483594e+07 -6.167699e+07)	(1.516385e+08 2.478030e+07 -6.166527e+07)	(4.918449e+04 5.563746e+04 -1.172068e+04)
11.64         	(1.517035e+08 2.484964e+07 -6.162955e+07)	(1.516545e+08 2.479403e+07 -6.161769e+07)	(4.900366e+04 5.560558e+04 -1.186453e+04)
11.66         	(1.517188e+08 2.486357e+07 -6.158319e+07)	(1.516700e+08 2.480798e+07 -6.157122e+07)	(4.880701e+04 5.558196e+04 -1.197502e+04)
11.68         	(1.517338e+08 2.487737e+07 -6.153673e+07)	(1.516853e+08 2.482181e+07 -6.152469e+07)	(4.857790e+04 5.556413e+04 -1.204533e+04)
11.7          	(1.517484e+08 2.489133e+07 -6.149016e+07)	(1.517001e+08 2.483577e+07 -6.147808e+07)	(4.835318e+04 5.556575e+04 -1.207685e+04)
11.72         	(1.517627e+08 2.490526e+07 -6.144406e+07)	(1.517146e+08 2.484967e+07 -6.143198e+07)	(4.811092e+04 5.559235e+04 -1.207522e+04)
11.74         	(1.517769e+08 2.491905e+07 -6.140155e+07)	(1.517290e+08 2.486340e+07 -6.138950e+07)	(4.785905e+04 5.564573e+04 -1.204907e+04)
11.76         	(1.517912e+08 2.493266e+07 -6.135957e+07)	(1.517436e+08 2.487693e+07 -6.134756e+07)	(4.757891e+04 5.572944e+04 -1.200900e+04)
11.78         	(1.518054e+08 2.494603e+07 -6.131966e+07)	(1.517582e+08 2.489017e+07 -6.130769e+07)	(4.727934e+04 5.585840e+04 -1.197474e+04)
11.8          	(1.518194e+08 2.495990e+07 -6.127956e+07)	(1.517724e+08 2.490389e+07 -6.126759e+07)	(4.696335e+04 5.601117e+04 -1.196656e+04)
11.82         	(1.518336e+08 2.497283e+07 -6.124022e+07)	(1.517870e+08 2.491665e+07 -6.122825e+07)	(4.664253e+04 5.617594e+04 -1.197815e+04)
11.84         	(1.518480e+08 2.498481e+07 -6.120079e+07)	(1.518017e+08 2.492847e+07 -6.118876e+07)	(4.635113e+04 5.633548e+04 -1.202683e+04)
11.86         	(1.518625e+08 2.499607e+07 -6.116182e+07)	(1.518164e+08 2.493957e+07 -6.114972e+07)	(4.605480e+04 5.649975e+04 -1.209951e+04)
11.88         	(1.518770e+08 2.500729e+07 -6.112546e+07)	(1.518312e+08 2.495060e+07 -6.111326e+07)	(4.576722e+04 5.668780e+04 -1.220150e+04)
11.9          	(1.518914e+08 2.501804e+07 -6.109093e+07)	(1.518459e+08 2.496116e+07 -6.107859e+07)	(4.549672e+04 5.688648e+04 -1.234024e+04)
11.92         	(1.519056e+08 2.502858e+07 -6.105775e+07)	(1.518604e+08 2.497151e+07 -6.104518e+07)	(4.522008e+04 5.707243e+04 -1.257681e+04)
11.94         	(1.519198e+08 2.503874e+07 -6.102682e+07)	(1.518748e+08 2.498152e+07 -6.101393e+07)	(4.493563e+04 5.722210e+04 -1.288786e+04)
11.96         	(1.519334e+08 2.504896e+07 -6.099578e+07)	(1.518887e+08 2.499162e+07 -6.098252e+07)	(4.467794e+04 5.733760e+04 -1.326095e+04)
11.98         	(1.519464e+08 2.505909e+07 -6.096512e+07)	(1.519019e+08 2.500167e+07 -6.095142e+07)	(4.444810e+04 5.741133e+04 -1.369883e+04)
12            	(1.519591e+08 2.506893e+07 -6.093326e+07)	(1.519149e+08 2.501148e+07 -6.091908e+07)	(4.420284e+04 5.745092e+04 -1.417639e+04)
12.02         	(1.519715e+08 2.507850e+07 -6.090234e+07)	(1.519275e+08 2.502103e+07 -6.088766e+07)	(4.398559e+04 5.747001e+04 -1.468425e+04)
12.04         	(1.519839e+08 2.508754e+07 -6.087195e+07)	(1.519401e+08 2.503006e+07 -6.085675e+07)	(4.377672e+04 5.747885e+04 -1.520265e+04)
12.06         	(1.519961e+08 2.509624e+07 -6.084322e+07)	(1.519525e+08 2.503876e+07 -6.082752e+07)	(4.360907e+04 5.747686e+04 -1.569578e+04)
12.08         	(1.520085e+08 2.510442e+07 -6.081643e+07)	(1.519650e+08 2.504697e+07 -6.080025e+07)	(4.345595e+04 5.745447e+04 -1.617699e+04)
12.1          	(1.520205e+08 2.511275e+07 -6.079195e+07)	(1.519772e+08 2.505536e+07 -6.077532e+07)	(4.329843e+04 5.738855e+04 -1.663174e+04)
12.12         	(1.520321e+08 2.512125e+07 -6.076935e+07)	(1.519890e+08 2.506398e+07 -6.075231e+07)	(4.311572e+04 5.726926e+04 -1.703359e+04)
12.14         	(1.520435e+08 2.512963e+07 -6.074763e+07)	(1.520006e+08 2.507256e+07 -6.073026e+07)	(4.294423e+04 5.706835e+04 -1.737665e+04)
12.16         	(1.520544e+08 2.513798e+07 -6.072730e+07)	(1.520116e+08 2.508117e+07 -6.070962e+07)	(4.276785e+04 5.680954e+04 -1.767193e+04)
12.18         	(1.520649e+08 2.514619e+07 -6.070742e+07)	(1.520223e+08 2.508969e+07 -6.068951e+07)	(4.260101e+04 5.649918e+04 -1.791012e+04)
12.2          	(1.520749e+08 2.515423e+07 -6.068885e+07)	(1.520324e+08 2.509807e+07 -6.067075e+07)	(4.244556e+04 5.616467e+04 -1.809872e+04)
12.22         	(1.520849e+08 2.516170e+07 -6.067147e+07)	(1.520426e+08 2.510587e+07 -6.065324e+07)	(4.230434e+04 5.583448e+04 -1.823059e+04)
12.24         	(1.520947e+08 2.516921e+07 -6.065652e+07)	(1.520525e+08 2.511370e+07 -6.063821e+07)	(4.217192e+04 5.551090e+04 -1.830986e+04)
12.26         	(1.521043e+08 2.517663e+07 -6.064413e+07)	(1.520622e+08 2.512142e+07 -6.062579e+07)	(4.204092e+04 5.520523e+04 -1.833972e+04)
12.28         	(1.521141e+08 2.518365e+07 -6.063450e+07)	(1.520722e+08 2.512873e+07 -6.061618e+07)	(4.194409e+04 5.492540e+04 -1.832006e+04)
12.3          	(1.521239e+08 2.519012e+07 -6.062776e+07)	(1.520821e+08 2.513545e+07 -6.060951e+07)	(4.183412e+04 5.466942e+04 -1.825083e+04)
12.32         	(1.521333e+08 2.519667e+07 -6.062206e+07)	(1.520916e+08 2.514223e+07 -6.060394e+07)	(4.171099e+04 5.444103e+04 -1.811760e+04)
12.34         	(1.521425e+08 2.520243e+07 -6.061579e+07)	(1.521009e+08 2.514820e+07 -6.059783e+07)	(4.154837e+04 5.423763e+04 -1.796007e+04)
12.36         	(1.521513e+08 2.520788e+07 -6.060838e+07)	(1.521099e+08 2.515381e+07 -6.059062e+07)	(4.138636e+04 5.406955e+04 -1.776090e+04)
12.38         	(1.521597e+08 2.521250e+07 -6.059970e+07)	(1.521185e+08 2.515857e+07 -6.058215e+07)	(4.119967e+04 5.392873e+04 -1.754730e+04)
12.4          	(1.521682e+08 2.521603e+07 -6.059214e+07)	(1.521272e+08 2.516222e+07 -6.057482e+07)	(4.099316e+04 5.381352e+04 -1.731372e+04)
12.42         	(1.521766e+08 2.521935e+07 -6.058584e+07)	(1.521358e+08 2.516562e+07 -6.056876e+07)	(4.076154e+04 5.372707e+04 -1.708288e+04)
12.44         	(1.521849e+08 2.522217e+07 -6.058211e+07)	(1.521443e+08 2.516853e+07 -6.056527e+07)	(4.051047e+04 5.364708e+04 -1.684604e+04)
12.46         	(1.521932e+08 2.522413e+07 -6.058044e+07)	(1.521530e+08 2.517056e+07 -6.056384e+07)	(4.021097e+04 5.357407e+04 -1.660831e+04)
12.48         	(1.522015e+08 2.522500e+07 -6.058030e+07)	(1.521616e+08 2.517148e+07 -6.056390e+07)	(3.987456e+04 5.351852e+04 -1.639935e+04)
12.5          	(1.522097e+08 2.522542e+07 -6.057923e+07)	(1.521702e+08 2.517196e+07 -6.056292e+07)	(3.955763e+04 5.346760e+04 -1.630679e+04)
12.52         	(1.522176e+08 2.522508e+07 -6.057805e+07)	(1.521783e+08 2.517167e+07 -6.056170e+07)	(3.926625e+04 5.340941e+04 -1.635631e+04)
12.54         	(1.522251e+08 2.522483e+07 -6.057570e+07)	(1.521861e+08 2.517151e+07 -6.055920e+07)	(3.900727e+04 5.331557e+04 -1.650154e+04)
12.56         	(1.522324e+08 2.522403e+07 -6.057376e+07)	(1.521936e+08 2.517082e+07 -6.055703e+07)	(3.880388e+04 5.321134e+04 -1.672411e+04)
12.58         	(1.522395e+08 2.522294e+07 -6.057212e+07)	(1.522008e+08 2.516985e+07 -6.055513e+07)	(3.861211e+04 5.308119e+04 -1.699281e+04)
12.6          	(1.522459e+08 2.522193e+07 -6.057171e+07)	(1.522075e+08 2.516900e+07 -6.055443e+07)	(3.843833e+04 5.292740e+04 -1.727849e+04)
12.62         	(1.522524e+08 2.522015e+07 -6.057194e+07)	(1.522141e+08 2.516740e+07 -6.055437e+07)	(3.828261e+04 5.274650e+04 -1.756418e+04)
12.64         	(1.522584e+08 2.521805e+07 -6.057252e+07)	(1.522203e+08 2.516550e+07 -6.055469e+07)	(3.814034e+04 5.255090e+04 -1.782974e+04)
12.66         	(1.522639e+08 2.521588e+07 -6.057295e+07)	(1.522260e+08 2.516353e+07 -6.055486e+07)	(3.797897e+04 5.235268e+04 -1.808507e+04)
12.68         	(1.522687e+08 2.521396e+07 -6.057338e+07)	(1.522309e+08 2.516183e+07 -6.055508e+07)	(3.779934e+04 5.213030e+04 -1.829806e+04)
12.7          	(1.522729e+08 2.521216e+07 -6.057314e+07)	(1.522353e+08 2.516026e+07 -6.055465e+07)	(3.759493e+04 5.189809e+04 -1.848920e+04)
12.72         	(1.522767e+08 2.521034e+07 -6.057324e+07)	(1.522394e+08 2.515869e+07 -6.055463e+07)	(3.733484e+04 5.165512e+04 -1.861126e+04)
12.74         	(1.522801e+08 2.520846e+07 -6.057319e+07)	(1.522431e+08 2.515709e+07 -6.055449e+07)	(3.702006e+04 5.137833e+04 -1.869955e+04)
12.76         	(1.522832e+08 2.520641e+07 -6.057447e+07)	(1.522465e+08 2.515532e+07 -6.055576e+07)	(3.668849e+04 5.109098e+04 -1.871734e+04)
12.78         	(1.522860e+08 2.520405e+07 -6.057488e+07)	(1.522496e+08 2.515327e+07 -6.055617e+07)	(3.632382e+04 5.078075e+04 -1.870969e+04)
12.8          	(1.522883e+08 2.520165e+07 -6.057558e+07)	(1.522524e+08 2.515122e+07 -6.055692e+07)	(3.593391e+04 5.042694e+04 -1.866028e+04)
12.82         	(1.522903e+08 2.519852e+07 -6.057528e+07)	(1.522548e+08 2.514848e+07 -6.055671e+07)	(3.548883e+04 5.003791e+04 -1.857142e+04)
12.84         	(1.522920e+08 2.519468e+07 -6.057556e+07)	(1.522570e+08 2.514507e+07 -6.055709e+07)	(3.501309e+04 4.961190e+04 -1.846918e+04)
12.86         	(1.522936e+08 2.519007e+07 -6.057351e+07)	(1.522591e+08 2.514089e+07 -6.055515e+07)	(3.449079e+04 4.917554e+04 -1.836013e+04)
12.88         	(1.522946e+08 2.518504e+07 -6.056852e+07)	(1.522607e+08 2.513630e+07 -6.055029e+07)	(3.396441e+04 4.873635e+04 -1.823070e+04)
12.9          	(1.522952e+08 2.517938e+07 -6.056310e+07)	(1.522618e+08 2.513109e+07 -6.054501e+07)	(3.340095e+04 4.828495e+04 -1.809117e+04)
12.92         	(1.522955e+08 2.517464e+07 -6.055969e+07)	(1.522626e+08 2.512682e+07 -6.054175e+07)	(3.285931e+04 4.781721e+04 -1.794166e+04)
12.94         	(1.522957e+08 2.516982e+07 -6.055908e+07)	(1.522634e+08 2.512245e+07 -6.054132e+07)	(3.231454e+04 4.736559e+04 -1.776837e+04)
12.96         	(1.522955e+08 2.516541e+07 -6.056153e+07)	(1.522638e+08 2.511847e+07 -6.054391e+07)	(3.178781e+04 4.694136e+04 -1.761497e+04)
12.98         	(1.522953e+08 2.516122e+07 -6.056538e+07)	(1.522640e+08 2.511469e+07 -6.054796e+07)	(3.128972e+04 4.653325e+04 -1.742280e+04)
13            	(1.522948e+08 2.515729e+07 -6.056906e+07)	(1.522640e+08 2.511111e+07 -6.055181e+07)	(3.082058e+04 4.618249e+04 -1.724295e+04)
13.02         	(1.522946e+08 2.515278e+07 -6.057634e+07)	(1.522643e+08 2.510690e+07 -6.055929e+07)	(3.033054e+04 4.588436e+04 -1.705119e+04)
13.04         	(1.522939e+08 2.514889e+07 -6.058240e+07)	(1.522641e+08 2.510327e+07 -6.056552e+07)	(2.986910e+04 4.562223e+04 -1.688558e+04)
13.06         	(1.522935e+08 2.514439e+07 -6.058976e+07)	(1.522640e+08 2.509899e+07 -6.057303e+07)	(2.942676e+04 4.540004e+04 -1.673148e+04)
13.08         	(1.522930e+08 2.513958e+07 -6.059676e+07)	(1.522639e+08 2.509439e+07 -6.058017e+07)	(2.903363e+04 4.518987e+04 -1.659520e+04)
13.1          	(1.522923e+08 2.513443e+07 -6.060225e+07)	(1.522636e+08 2.508944e+07 -6.058581e+07)	(2.866853e+04 4.499073e+04 -1.643877e+04)
13.12         	(1.522915e+08 2.512900e+07 -6.060725e+07)	(1.522631e+08 2.508417e+07 -6.059092e+07)	(2.835129e+04 4.482311e+04 -1.632415e+04)
13.14         	(1.522905e+08 2.512378e+07 -6.061283e+07)	(1.522624e+08 2.507912e+07 -6.059657e+07)	(2.806196e+04 4.465996e+04 -1.625953e+04)
13.16         	(1.522892e+08 2.511895e+07 -6.061889e+07)	(1.522614e+08 2.507445e+07 -6.060265e+07)	(2.783303e+04 4.449677e+04 -1.624694e+04)
13.18         	(1.522877e+08 2.511427e+07 -6.062507e+07)	(1.522600e+08 2.506994e+07 -6.060881e+07)	(2.761203e+04 4.432886e+04 -1.625883e+04)
13.2          	(1.522859e+08 2.510922e+07 -6.063084e+07)	(1.522585e+08 2.506504e+07 -6.061454e+07)	(2.742937e+04 4.417488e+04 -1.629750e+04)