# Force       
# CofR        : (0.000000e+00 0.000000e+00 0.000000e+00)
#
# Time        	(total_x total_y total_z)	(pressure_x pressure_y pressure_z)	(viscous_x viscous_y viscous_z)
3601          	(7.625705e-01 8.465461e-01 -4.700076e+02)	(7.599037e-01 8.483362e-01 -4.700069e+02)	(2.666800e-03 -1.790107e-03 -7.541855e-04)
3602          	(7.564913e-01 8.377536e-01 -4.700022e+02)	(7.538139e-01 8.395552e-01 -4.700014e+02)	(2.677380e-03 -1.801586e-03 -7.538158e-04)
3603          	(7.514354e-01 8.312115e-01 -4.699990e+02)	(7.487480e-01 8.330245e-01 -4.699983e+02)	(2.687445e-03 -1.812997e-03 -7.534339e-04)
3604          	(7.509170e-01 8.308008e-01 -4.699988e+02)	(7.482222e-01 8.326225e-01 -4.699981e+02)	(2.694790e-03 -1.821717e-03 -7.532010e-04)
3605          	(7.510561e-01 8.312379e-01 -4.699988e+02)	(7.483558e-01 8.330663e-01 -4.699980e+02)	(2.700277e-03 -1.828333e-03 -7.530204e-04)
3606          	(7.525611e-01 8.335868e-01 -4.699987e+02)	(7.498571e-01 8.354191e-01 -4.699979e+02)	(2.703909e-03 -1.832360e-03 -7.528293e-04)
3607          	(7.570526e-01 8.393159e-01 -4.699994e+02)	(7.543459e-01 8.411500e-01 -4.699987e+02)	(2.706676e-03 -1.834142e-03 -7.526265e-04)
3608          	(7.581475e-01 8.416422e-01 -4.700033e+02)	(7.554409e-01 8.434754e-01 -4.700026e+02)	(2.706579e-03 -1.833198e-03 -7.523306e-04)
3609          	(7.589467e-01 8.430175e-01 -4.700059e+02)	(7.562408e-01 8.448493e-01 -4.700052e+02)	(2.705913e-03 -1.831783e-03 -7.518455e-04)
3610          	(7.591148e-01 8.432752e-01 -4.700077e+02)	(7.564086e-01 8.451060e-01 -4.700069e+02)	(2.706210e-03 -1.830814e-03 -7.512835e-04)
3611          	(7.587720e-01 8.424010e-01 -4.700079e+02)	(7.560632e-01 8.442325e-01 -4.700071e+02)	(2.708785e-03 -1.831531e-03 -7.507481e-04)
3612          	(7.582806e-01 8.412060e-01 -4.700080e+02)	(7.555673e-01 8.430399e-01 -4.700073e+02)	(2.713292e-03 -1.833844e-03 -7.503416e-04)
3613          	(7.572166e-01 8.393439e-01 -4.700082e+02)	(7.544977e-01 8.411814e-01 -4.700074e+02)	(2.718876e-03 -1.837572e-03 -7.500817e-04)
3614          	(7.556033e-01 8.368916e-01 -4.700083e+02)	(7.528783e-01 8.387341e-01 -4.700075e+02)	(2.724986e-03 -1.842502e-03 -7.499128e-04)
3615          	(7.530883e-01 8.336073e-01 -4.700084e+02)	(7.503574e-01 8.354554e-01 -4.700076e+02)	(2.730895e-03 -1.848105e-03 -7.498012e-04)
3616          	(7.516375e-01 8.317111e-01 -4.700084e+02)	(7.489013e-01 8.335646e-01 -4.700077e+02)	(2.736257e-03 -1.853521e-03 -7.496886e-04)
3617          	(7.507444e-01 8.306118e-01 -4.700084e+02)	(7.480035e-01 8.324702e-01 -4.700076e+02)	(2.740877e-03 -1.858414e-03 -7.495922e-04)
3618          	(7.507063e-01 8.305164e-01 -4.700084e+02)	(7.479613e-01 8.323792e-01 -4.700076e+02)	(2.745026e-03 -1.862770e-03 -7.494753e-04)
3619          	(7.505689e-01 8.303369e-01 -4.700083e+02)	(7.478202e-01 8.322035e-01 -4.700076e+02)	(2.748765e-03 -1.866625e-03 -7.493421e-04)
3620          	(7.503344e-01 8.300493e-01 -4.700083e+02)	(7.475822e-01 8.319193e-01 -4.700075e+02)	(2.752181e-03 -1.870012e-03 -7.491576e-04)
3621          	(7.499712e-01 8.295780e-01 -4.700083e+02)	(7.472158e-01 8.314511e-01 -4.700075e+02)	(2.755421e-03 -1.873088e-03 -7.489396e-04)
3622          	(7.495640e-01 8.290296e-01 -4.700083e+02)	(7.468054e-01 8.309056e-01 -4.700075e+02)	(2.758603e-03 -1.875950e-03 -7.486906e-04)
3623          	(7.485228e-01 8.277705e-01 -4.700082e+02)	(7.457612e-01 8.296491e-01 -4.700075e+02)	(2.761616e-03 -1.878678e-03 -7.484396e-04)
3624          	(7.470661e-01 8.258372e-01 -4.700069e+02)	(7.443009e-01 8.277190e-01 -4.700061e+02)	(2.765205e-03 -1.881883e-03 -7.481860e-04)
3625          	(7.460852e-01 8.246242e-01 -4.700067e+02)	(7.433165e-01 8.265091e-01 -4.700060e+02)	(2.768736e-03 -1.884925e-03 -7.479735e-04)
3626          	(7.460890e-01 8.244810e-01 -4.700067e+02)	(7.433166e-01 8.263690e-01 -4.700060e+02)	(2.772317e-03 -1.887913e-03 -7.477667e-04)
3627          	(7.460915e-01 8.243272e-01 -4.700067e+02)	(7.433155e-01 8.262182e-01 -4.700059e+02)	(2.775938e-03 -1.890930e-03 -7.475910e-04)
3628          	(7.460456e-01 8.241012e-01 -4.700066e+02)	(7.432660e-01 8.259952e-01 -4.700059e+02)	(2.779578e-03 -1.894025e-03 -7.474194e-04)
3629          	(7.454997e-01 8.232175e-01 -4.700065e+02)	(7.427163e-01 8.251149e-01 -4.700058e+02)	(2.783419e-03 -1.897451e-03 -7.472597e-04)
3630          	(7.453626e-01 8.228691e-01 -4.700065e+02)	(7.425754e-01 8.247700e-01 -4.700058e+02)	(2.787232e-03 -1.900892e-03 -7.471163e-04)
3631          	(7.451219e-01 8.223884e-01 -4.700065e+02)	(7.423309e-01 8.242929e-01 -4.700057e+02)	(2.791004e-03 -1.904405e-03 -7.470073e-04)
3632          	(7.441593e-01 8.209929e-01 -4.700064e+02)	(7.413643e-01 8.229011e-01 -4.700056e+02)	(2.795003e-03 -1.908253e-03 -7.469089e-04)
3633          	(7.433197e-01 8.197980e-01 -4.700063e+02)	(7.405206e-01 8.217102e-01 -4.700055e+02)	(2.799079e-03 -1.912184e-03 -7.468693e-04)
3634          	(7.426680e-01 8.188756e-01 -4.700062e+02)	(7.398649e-01 8.207916e-01 -4.700054e+02)	(2.803089e-03 -1.915997e-03 -7.468763e-04)
3635          	(7.425887e-01 8.186803e-01 -4.700062e+02)	(7.397818e-01 8.205998e-01 -4.700054e+02)	(2.806909e-03 -1.919506e-03 -7.469527e-04)
3636          	(7.424721e-01 8.184367e-01 -4.700061e+02)	(7.396615e-01 8.203595e-01 -4.700054e+02)	(2.810588e-03 -1.922788e-03 -7.470551e-04)
3637          	(7.422932e-01 8.181134e-01 -4.700061e+02)	(7.394790e-01 8.200393e-01 -4.700053e+02)	(2.814152e-03 -1.925916e-03 -7.471835e-04)
3638          	(7.420068e-01 8.176487e-01 -4.700060e+02)	(7.391892e-01 8.195777e-01 -4.700053e+02)	(2.817657e-03 -1.928948e-03 -7.472999e-04)
3639          	(7.415987e-01 8.170298e-01 -4.700060e+02)	(7.387776e-01 8.189618e-01 -4.700053e+02)	(2.821132e-03 -1.931939e-03 -7.474100e-04)
3640          	(7.410975e-01 8.162998e-01 -4.700060e+02)	(7.382729e-01 8.182347e-01 -4.700053e+02)	(2.824612e-03 -1.934903e-03 -7.474946e-04)
3641          	(7.406069e-01 8.155983e-01 -4.700060e+02)	(7.377788e-01 8.175361e-01 -4.700053e+02)	(2.828084e-03 -1.937816e-03 -7.475749e-04)
3642          	(7.401456e-01 8.149469e-01 -4.700060e+02)	(7.373141e-01 8.168876e-01 -4.700053e+02)	(2.831552e-03 -1.940644e-03 -7.476336e-04)
3643          	(7.396892e-01 8.143119e-01 -4.700060e+02)	(7.368542e-01 8.162553e-01 -4.700053e+02)	(2.835004e-03 -1.943394e-03 -7.476919e-04)
3644          	(7.392156e-01 8.136653e-01 -4.700060e+02)	(7.363772e-01 8.156114e-01 -4.700053e+02)	(2.838437e-03 -1.946053e-03 -7.477292e-04)
3645          	(7.387128e-01 8.129940e-01 -4.700060e+02)	(7.358709e-01 8.149426e-01 -4.700053e+02)	(2.841827e-03 -1.948624e-03 -7.477617e-04)
3646          	(7.367350e-01 8.106350e-01 -4.700060e+02)	(7.338900e-01 8.125863e-01 -4.700053e+02)	(2.845044e-03 -1.951269e-03 -7.477444e-04)
3647          	(7.362904e-01 8.100620e-01 -4.700060e+02)	(7.334422e-01 8.120157e-01 -4.700053e+02)	(2.848267e-03 -1.953720e-03 -7.477461e-04)
3648          	(7.358598e-01 8.095155e-01 -4.700060e+02)	(7.330083e-01 8.114714e-01 -4.700053e+02)	(2.851496e-03 -1.955972e-03 -7.477519e-04)
3649          	(7.354674e-01 8.090208e-01 -4.700060e+02)	(7.326127e-01 8.109789e-01 -4.700053e+02)	(2.854666e-03 -1.958061e-03 -7.477678e-04)
3650          	(7.351775e-01 8.086585e-01 -4.700060e+02)	(7.323198e-01 8.106185e-01 -4.700053e+02)	(2.857745e-03 -1.959950e-03 -7.477742e-04)
3651          	(7.349124e-01 8.083240e-01 -4.700060e+02)	(7.320517e-01 8.102857e-01 -4.700053e+02)	(2.860711e-03 -1.961673e-03 -7.477823e-04)
3652          	(7.346551e-01 8.079978e-01 -4.700060e+02)	(7.317915e-01 8.099610e-01 -4.700053e+02)	(2.863559e-03 -1.963238e-03 -7.477721e-04)
3653          	(7.343443e-01 8.076023e-01 -4.700060e+02)	(7.314780e-01 8.095670e-01 -4.700053e+02)	(2.866278e-03 -1.964684e-03 -7.477517e-04)
3654          	(7.340321e-01 8.072095e-01 -4.700061e+02)	(7.311633e-01 8.091755e-01 -4.700053e+02)	(2.868879e-03 -1.966007e-03 -7.477074e-04)
3655          	(7.309313e-01 8.041040e-01 -4.700078e+02)	(7.280619e-01 8.060703e-01 -4.700071e+02)	(2.869424e-03 -1.966310e-03 -7.476177e-04)
3656          	(7.306727e-01 8.037596e-01 -4.700078e+02)	(7.278023e-01 8.057264e-01 -4.700071e+02)	(2.870425e-03 -1.966807e-03 -7.474840e-04)
3657          	(7.304539e-01 8.034521e-01 -4.700078e+02)	(7.275819e-01 8.054196e-01 -4.700071e+02)	(2.872092e-03 -1.967426e-03 -7.474102e-04)
3658          	(7.302919e-01 8.031951e-01 -4.700079e+02)	(7.274177e-01 8.051632e-01 -4.700071e+02)	(2.874147e-03 -1.968144e-03 -7.473598e-04)
3659          	(7.302342e-01 8.030344e-01 -4.700079e+02)	(7.273577e-01 8.050034e-01 -4.700071e+02)	(2.876492e-03 -1.968963e-03 -7.473563e-04)
3660          	(7.305702e-01 8.033160e-01 -4.700081e+02)	(7.276911e-01 8.052857e-01 -4.700073e+02)	(2.879049e-03 -1.969797e-03 -7.473857e-04)
3661          	(7.307076e-01 8.034310e-01 -4.700081e+02)	(7.278261e-01 8.054015e-01 -4.700074e+02)	(2.881479e-03 -1.970515e-03 -7.474599e-04)
3662          	(7.317127e-01 8.045061e-01 -4.700084e+02)	(7.288287e-01 8.064773e-01 -4.700076e+02)	(2.883972e-03 -1.971139e-03 -7.475578e-04)
3663          	(7.319099e-01 8.047641e-01 -4.700084e+02)	(7.290239e-01 8.067357e-01 -4.700076e+02)	(2.886013e-03 -1.971510e-03 -7.476868e-04)
3664          	(7.321072e-01 8.050510e-01 -4.700084e+02)	(7.292197e-01 8.070226e-01 -4.700076e+02)	(2.887567e-03 -1.971623e-03 -7.478022e-04)
3665          	(7.323063e-01 8.053564e-01 -4.700084e+02)	(7.294176e-01 8.073279e-01 -4.700076e+02)	(2.888715e-03 -1.971507e-03 -7.479172e-04)
3666          	(7.324986e-01 8.056646e-01 -4.700084e+02)	(7.296091e-01 8.076358e-01 -4.700076e+02)	(2.889537e-03 -1.971198e-03 -7.480155e-04)
3667          	(7.326492e-01 8.059240e-01 -4.700084e+02)	(7.297591e-01 8.078948e-01 -4.700076e+02)	(2.890109e-03 -1.970749e-03 -7.481052e-04)
3668          	(7.327870e-01 8.061762e-01 -4.700084e+02)	(7.298965e-01 8.081463e-01 -4.700076e+02)	(2.890467e-03 -1.970155e-03 -7.481743e-04)
3669          	(7.329151e-01 8.064271e-01 -4.700083e+02)	(7.300244e-01 8.083965e-01 -4.700076e+02)	(2.890615e-03 -1.969410e-03 -7.482437e-04)
3670          	(7.330311e-01 8.066728e-01 -4.700083e+02)	(7.301405e-01 8.086413e-01 -4.700075e+02)	(2.890567e-03 -1.968505e-03 -7.483030e-04)
3671          	(7.331305e-01 8.069034e-01 -4.700083e+02)	(7.302401e-01 8.088709e-01 -4.700075e+02)	(2.890336e-03 -1.967453e-03 -7.483648e-04)
3672          	(7.332111e-01 8.071131e-01 -4.700082e+02)	(7.303211e-01 8.090793e-01 -4.700075e+02)	(2.889950e-03 -1.966272e-03 -7.484209e-04)
3673          	(7.332745e-01 8.073055e-01 -4.700082e+02)	(7.303851e-01 8.092704e-01 -4.700074e+02)	(2.889407e-03 -1.964970e-03 -7.484831e-04)
3674          	(7.329203e-01 8.070831e-01 -4.700067e+02)	(7.300318e-01 8.090465e-01 -4.700060e+02)	(2.888473e-03 -1.963391e-03 -7.485548e-04)
3675          	(7.332307e-01 8.074971e-01 -4.700049e+02)	(7.303430e-01 8.094590e-01 -4.700041e+02)	(2.887741e-03 -1.961855e-03 -7.486494e-04)
3676          	(7.336876e-01 8.081807e-01 -4.700047e+02)	(7.308008e-01 8.101407e-01 -4.700040e+02)	(2.886842e-03 -1.960089e-03 -7.487326e-04)
3677          	(7.336937e-01 8.082340e-01 -4.700047e+02)	(7.308077e-01 8.101925e-01 -4.700040e+02)	(2.886035e-03 -1.958506e-03 -7.487826e-04)
3678          	(7.337008e-01 8.082882e-01 -4.700047e+02)	(7.308155e-01 8.102452e-01 -4.700039e+02)	(2.885348e-03 -1.957037e-03 -7.488008e-04)
3679          	(7.364212e-01 8.111541e-01 -4.700022e+02)	(7.335351e-01 8.131101e-01 -4.700014e+02)	(2.886041e-03 -1.956030e-03 -7.488751e-04)
3680          	(7.366776e-01 8.115850e-01 -4.700021e+02)	(7.337914e-01 8.135397e-01 -4.700013e+02)	(2.886160e-03 -1.954675e-03 -7.489336e-04)
3681          	(7.367258e-01 8.117116e-01 -4.700021e+02)	(7.338400e-01 8.136649e-01 -4.700013e+02)	(2.885803e-03 -1.953336e-03 -7.489301e-04)
3682          	(7.367755e-01 8.118619e-01 -4.700020e+02)	(7.338903e-01 8.138138e-01 -4.700013e+02)	(2.885168e-03 -1.951935e-03 -7.488817e-04)
3683          	(7.368248e-01 8.120376e-01 -4.700020e+02)	(7.339406e-01 8.139880e-01 -4.700012e+02)	(2.884283e-03 -1.950433e-03 -7.488128e-04)
3684          	(7.371305e-01 8.127025e-01 -4.700018e+02)	(7.342479e-01 8.146508e-01 -4.700011e+02)	(2.882600e-03 -1.948308e-03 -7.487405e-04)
3685          	(7.370920e-01 8.127851e-01 -4.700018e+02)	(7.342111e-01 8.147314e-01 -4.700010e+02)	(2.880864e-03 -1.946258e-03 -7.486355e-04)
3686          	(7.370343e-01 8.128567e-01 -4.700017e+02)	(7.341551e-01 8.148009e-01 -4.700010e+02)	(2.879157e-03 -1.944208e-03 -7.485297e-04)
3687          	(7.369801e-01 8.129587e-01 -4.700017e+02)	(7.341027e-01 8.149008e-01 -4.700009e+02)	(2.877368e-03 -1.942056e-03 -7.484548e-04)
3688          	(7.371744e-01 8.132316e-01 -4.699998e+02)	(7.342984e-01 8.151716e-01 -4.699991e+02)	(2.875934e-03 -1.940026e-03 -7.484301e-04)
3689          	(7.371902e-01 8.133970e-01 -4.699998e+02)	(7.343158e-01 8.153348e-01 -4.699990e+02)	(2.874417e-03 -1.937875e-03 -7.484494e-04)
3690          	(7.372448e-01 8.136041e-01 -4.699997e+02)	(7.343721e-01 8.155397e-01 -4.699990e+02)	(2.872732e-03 -1.935628e-03 -7.484906e-04)
3691          	(7.373422e-01 8.138599e-01 -4.699997e+02)	(7.344713e-01 8.157932e-01 -4.699989e+02)	(2.870905e-03 -1.933289e-03 -7.485508e-04)
3692          	(7.375467e-01 8.142692e-01 -4.699996e+02)	(7.346779e-01 8.162000e-01 -4.699989e+02)	(2.868876e-03 -1.930775e-03 -7.486164e-04)
3693          	(7.380312e-01 8.150478e-01 -4.699995e+02)	(7.351647e-01 8.169758e-01 -4.699988e+02)	(2.866529e-03 -1.927960e-03 -7.487084e-04)
3694          	(7.385798e-01 8.158764e-01 -4.699995e+02)	(7.357159e-01 8.178014e-01 -4.699987e+02)	(2.863981e-03 -1.924962e-03 -7.487882e-04)
3695          	(7.406326e-01 8.182638e-01 -4.699993e+02)	(7.377707e-01 8.201859e-01 -4.699986e+02)	(2.861917e-03 -1.922087e-03 -7.488711e-04)
3696          	(7.423453e-01 8.202700e-01 -4.699993e+02)	(7.394852e-01 8.221893e-01 -4.699985e+02)	(2.860088e-03 -1.919296e-03 -7.489497e-04)
3697          	(7.437745e-01 8.219561e-01 -4.699993e+02)	(7.409162e-01 8.238727e-01 -4.699986e+02)	(2.858281e-03 -1.916598e-03 -7.490184e-04)
3698          	(7.450167e-01 8.234504e-01 -4.699995e+02)	(7.421603e-01 8.253643e-01 -4.699987e+02)	(2.856380e-03 -1.913935e-03 -7.490671e-04)
3699          	(7.451318e-01 8.237627e-01 -4.699995e+02)	(7.422778e-01 8.256739e-01 -4.699987e+02)	(2.853956e-03 -1.911170e-03 -7.491099e-04)
3700          	(7.450691e-01 8.240750e-01 -4.700010e+02)	(7.422187e-01 8.259829e-01 -4.700002e+02)	(2.850472e-03 -1.907866e-03 -7.491197e-04)
3701          	(7.449225e-01 8.243003e-01 -4.700025e+02)	(7.420763e-01 8.262044e-01 -4.700018e+02)	(2.846184e-03 -1.904166e-03 -7.490953e-04)
3702          	(7.449321e-01 8.244696e-01 -4.700025e+02)	(7.420898e-01 8.263704e-01 -4.700018e+02)	(2.842284e-03 -1.900754e-03 -7.490536e-04)
3703          	(7.449900e-01 8.246956e-01 -4.700026e+02)	(7.421512e-01 8.265931e-01 -4.700018e+02)	(2.838833e-03 -1.897527e-03 -7.490318e-04)
3704          	(7.468060e-01 8.268800e-01 -4.700033e+02)	(7.439699e-01 8.287743e-01 -4.700026e+02)	(2.836026e-03 -1.894360e-03 -7.490373e-04)
3705          	(7.464849e-01 8.269594e-01 -4.700050e+02)	(7.436527e-01 8.288500e-01 -4.700043e+02)	(2.832207e-03 -1.890604e-03 -7.490384e-04)
3706          	(7.478029e-01 8.286288e-01 -4.700056e+02)	(7.449743e-01 8.305157e-01 -4.700049e+02)	(2.828611e-03 -1.886934e-03 -7.489991e-04)
3707          	(7.487047e-01 8.298603e-01 -4.700061e+02)	(7.458796e-01 8.317435e-01 -4.700054e+02)	(2.825130e-03 -1.883251e-03 -7.489685e-04)
3708          	(7.486352e-01 8.299990e-01 -4.700061e+02)	(7.458138e-01 8.318786e-01 -4.700054e+02)	(2.821446e-03 -1.879597e-03 -7.489069e-04)
3709          	(7.486203e-01 8.302069e-01 -4.700061e+02)	(7.458027e-01 8.320828e-01 -4.700054e+02)	(2.817615e-03 -1.875937e-03 -7.488346e-04)
3710          	(7.486997e-01 8.305362e-01 -4.700061e+02)	(7.458860e-01 8.324084e-01 -4.700054e+02)	(2.813699e-03 -1.872232e-03 -7.487534e-04)
3711          	(7.489054e-01 8.310237e-01 -4.700061e+02)	(7.460957e-01 8.328922e-01 -4.700054e+02)	(2.809718e-03 -1.868461e-03 -7.486847e-04)
3712          	(7.492741e-01 8.317182e-01 -4.700061e+02)	(7.464685e-01 8.335828e-01 -4.700053e+02)	(2.805667e-03 -1.864578e-03 -7.486150e-04)
3713          	(7.504046e-01 8.333806e-01 -4.700060e+02)	(7.476033e-01 8.352409e-01 -4.700053e+02)	(2.801310e-03 -1.860285e-03 -7.485671e-04)
3714          	(7.517035e-01 8.352377e-01 -4.700060e+02)	(7.489069e-01 8.370934e-01 -4.700052e+02)	(2.796655e-03 -1.855662e-03 -7.485048e-04)
3715          	(7.530194e-01 8.370738e-01 -4.700059e+02)	(7.502276e-01 8.389247e-01 -4.700052e+02)	(2.791824e-03 -1.850876e-03 -7.484218e-04)
3716          	(7.542575e-01 8.387615e-01 -4.700059e+02)	(7.514705e-01 8.406076e-01 -4.700052e+02)	(2.786966e-03 -1.846089e-03 -7.483028e-04)
3717          	(7.558804e-01 8.408390e-01 -4.700058e+02)	(7.530982e-01 8.426804e-01 -4.700051e+02)	(2.782187e-03 -1.841377e-03 -7.481661e-04)
3718          	(7.576820e-01 8.430580e-01 -4.700057e+02)	(7.549044e-01 8.448948e-01 -4.700050e+02)	(2.777618e-03 -1.836831e-03 -7.480180e-04)
3719          	(7.579837e-01 8.435448e-01 -4.700057e+02)	(7.552106e-01 8.453774e-01 -4.700050e+02)	(2.773100e-03 -1.832585e-03 -7.478832e-04)
3720          	(7.583511e-01 8.441048e-01 -4.700057e+02)	(7.555824e-01 8.459333e-01 -4.700049e+02)	(2.768705e-03 -1.828580e-03 -7.477765e-04)
3721          	(7.618245e-01 8.477909e-01 -4.700049e+02)	(7.590583e-01 8.496164e-01 -4.700042e+02)	(2.766192e-03 -1.825521e-03 -7.477601e-04)
3722          	(7.621768e-01 8.483415e-01 -4.700049e+02)	(7.594135e-01 8.501639e-01 -4.700042e+02)	(2.763312e-03 -1.822443e-03 -7.478013e-04)
3723          	(7.625750e-01 8.489655e-01 -4.700049e+02)	(7.598152e-01 8.507849e-01 -4.700041e+02)	(2.759851e-03 -1.819380e-03 -7.478450e-04)
3724          	(7.631764e-01 8.499056e-01 -4.700048e+02)	(7.604205e-01 8.517218e-01 -4.700040e+02)	(2.755948e-03 -1.816132e-03 -7.479163e-04)
3725          	(7.637592e-01 8.508155e-01 -4.700047e+02)	(7.610074e-01 8.526283e-01 -4.700039e+02)	(2.751801e-03 -1.812816e-03 -7.480030e-04)
3726          	(7.643084e-01 8.516688e-01 -4.700046e+02)	(7.615609e-01 8.534783e-01 -4.700039e+02)	(2.747563e-03 -1.809499e-03 -7.480826e-04)
3727          	(7.650592e-01 8.526990e-01 -4.700046e+02)	(7.623157e-01 8.545053e-01 -4.700039e+02)	(2.743439e-03 -1.806283e-03 -7.481561e-04)
3728          	(7.660015e-01 8.540044e-01 -4.700046e+02)	(7.632623e-01 8.558073e-01 -4.700038e+02)	(2.739224e-03 -1.802942e-03 -7.482151e-04)
3729          	(7.667956e-01 8.551067e-01 -4.700046e+02)	(7.640606e-01 8.569063e-01 -4.700038e+02)	(2.734998e-03 -1.799592e-03 -7.482635e-04)
3730          	(7.674460e-01 8.560137e-01 -4.700046e+02)	(7.647151e-01 8.578100e-01 -4.700038e+02)	(2.730869e-03 -1.796293e-03 -7.482902e-04)
3731          	(7.679688e-01 8.567450e-01 -4.700046e+02)	(7.652419e-01 8.585381e-01 -4.700038e+02)	(2.726901e-03 -1.793099e-03 -7.483141e-04)
3732          	(7.683022e-01 8.571846e-01 -4.700046e+02)	(7.655789e-01 8.589748e-01 -4.700039e+02)	(2.723292e-03 -1.790169e-03 -7.483171e-04)
3733          	(7.683612e-01 8.573681e-01 -4.700046e+02)	(7.656414e-01 8.591554e-01 -4.700039e+02)	(2.719779e-03 -1.787324e-03 -7.483252e-04)
3734          	(7.684604e-01 8.575989e-01 -4.700047e+02)	(7.657440e-01 8.593834e-01 -4.700039e+02)	(2.716372e-03 -1.784556e-03 -7.483235e-04)
3735          	(7.686335e-01 8.579165e-01 -4.700047e+02)	(7.659204e-01 8.596984e-01 -4.700039e+02)	(2.713080e-03 -1.781875e-03 -7.483380e-04)
3736          	(7.689032e-01 8.583443e-01 -4.700047e+02)	(7.661933e-01 8.601235e-01 -4.700039e+02)	(2.709913e-03 -1.779275e-03 -7.483490e-04)
3737          	(7.698602e-01 8.595586e-01 -4.700047e+02)	(7.671533e-01 8.613353e-01 -4.700040e+02)	(2.706908e-03 -1.776718e-03 -7.483779e-04)
3738          	(7.712095e-01 8.611581e-01 -4.700048e+02)	(7.685053e-01 8.629324e-01 -4.700041e+02)	(2.704222e-03 -1.774324e-03 -7.484021e-04)
3739          	(7.722707e-01 8.623995e-01 -4.700050e+02)	(7.695689e-01 8.641717e-01 -4.700042e+02)	(2.701774e-03 -1.772152e-03 -7.484258e-04)
3740          	(7.723877e-01 8.626657e-01 -4.700050e+02)	(7.696887e-01 8.644357e-01 -4.700042e+02)	(2.699000e-03 -1.769952e-03 -7.484266e-04)
3741          	(7.724751e-01 8.628880e-01 -4.700050e+02)	(7.697791e-01 8.646558e-01 -4.700042e+02)	(2.695984e-03 -1.767778e-03 -7.484159e-04)
3742          	(7.725271e-01 8.630616e-01 -4.700050e+02)	(7.698342e-01 8.648272e-01 -4.700042e+02)	(2.692883e-03 -1.765664e-03 -7.483911e-04)
3743          	(7.725616e-01 8.632012e-01 -4.700050e+02)	(7.698718e-01 8.649649e-01 -4.700043e+02)	(2.689797e-03 -1.763655e-03 -7.483731e-04)
3744          	(7.725782e-01 8.633011e-01 -4.700050e+02)	(7.698914e-01 8.650628e-01 -4.700043e+02)	(2.686823e-03 -1.761783e-03 -7.483540e-04)
3745          	(7.725831e-01 8.633690e-01 -4.700050e+02)	(7.698991e-01 8.651291e-01 -4.700043e+02)	(2.684005e-03 -1.760072e-03 -7.483534e-04)
3746          	(7.725930e-01 8.634072e-01 -4.700050e+02)	(7.699116e-01 8.651658e-01 -4.700043e+02)	(2.681425e-03 -1.758556e-03 -7.483536e-04)
3747          	(7.725842e-01 8.634280e-01 -4.700051e+02)	(7.699052e-01 8.651852e-01 -4.700043e+02)	(2.679008e-03 -1.757188e-03 -7.483731e-04)
3748          	(7.725582e-01 8.634371e-01 -4.700051e+02)	(7.698815e-01 8.651930e-01 -4.700043e+02)	(2.676700e-03 -1.755912e-03 -7.483961e-04)
3749          	(7.725236e-01 8.634311e-01 -4.700051e+02)	(7.698492e-01 8.651858e-01 -4.700043e+02)	(2.674480e-03 -1.754727e-03 -7.484360e-04)
3750          	(7.724855e-01 8.634122e-01 -4.700051e+02)	(7.698131e-01 8.651658e-01 -4.700043e+02)	(2.672367e-03 -1.753628e-03 -7.484788e-04)
3751          	(7.724547e-01 8.633809e-01 -4.700051e+02)	(7.697843e-01 8.651336e-01 -4.700043e+02)	(2.670391e-03 -1.752649e-03 -7.485383e-04)
3752          	(7.724373e-01 8.633464e-01 -4.700051e+02)	(7.697687e-01 8.650981e-01 -4.700043e+02)	(2.668582e-03 -1.751796e-03 -7.486044e-04)
3753          	(7.724323e-01 8.633080e-01 -4.700051e+02)	(7.697653e-01 8.650591e-01 -4.700043e+02)	(2.666947e-03 -1.751093e-03 -7.486966e-04)
3754          	(7.724419e-01 8.632677e-01 -4.700051e+02)	(7.697764e-01 8.650183e-01 -4.700043e+02)	(2.665512e-03 -1.750558e-03 -7.487983e-04)
3755          	(7.724663e-01 8.632260e-01 -4.700051e+02)	(7.698020e-01 8.649762e-01 -4.700043e+02)	(2.664284e-03 -1.750217e-03 -7.489210e-04)
3756          	(7.725028e-01 8.631830e-01 -4.700051e+02)	(7.698395e-01 8.649331e-01 -4.700043e+02)	(2.663264e-03 -1.750069e-03 -7.490458e-04)
3757          	(7.725458e-01 8.631365e-01 -4.700051e+02)	(7.698833e-01 8.648866e-01 -4.700043e+02)	(2.662438e-03 -1.750125e-03 -7.491766e-04)
3758          	(7.725748e-01 8.630623e-01 -4.700051e+02)	(7.699130e-01 8.648127e-01 -4.700043e+02)	(2.661802e-03 -1.750387e-03 -7.492918e-04)
3759          	(7.725896e-01 8.629735e-01 -4.700051e+02)	(7.699283e-01 8.647244e-01 -4.700043e+02)	(2.661313e-03 -1.750836e-03 -7.493986e-04)
3760          	(7.725755e-01 8.628602e-01 -4.700051e+02)	(7.699146e-01 8.646116e-01 -4.700043e+02)	(2.660922e-03 -1.751422e-03 -7.494734e-04)
3761          	(7.729719e-01 8.629721e-01 -4.700037e+02)	(7.703104e-01 8.647248e-01 -4.700030e+02)	(2.661480e-03 -1.752670e-03 -7.495409e-04)
3762          	(7.730849e-01 8.628202e-01 -4.700025e+02)	(7.704223e-01 8.645745e-01 -4.700018e+02)	(2.662610e-03 -1.754298e-03 -7.496098e-04)
3763          	(7.729843e-01 8.625336e-01 -4.700017e+02)	(7.703206e-01 8.642896e-01 -4.700009e+02)	(2.663716e-03 -1.755981e-03 -7.496809e-04)
3764          	(7.726464e-01 8.622500e-01 -4.700015e+02)	(7.699825e-01 8.640071e-01 -4.700007e+02)	(2.663879e-03 -1.757090e-03 -7.497441e-04)
3765          	(7.727514e-01 8.623436e-01 -4.700015e+02)	(7.700876e-01 8.641017e-01 -4.700007e+02)	(2.663804e-03 -1.758105e-03 -7.497870e-04)
3766          	(7.727880e-01 8.623497e-01 -4.700015e+02)	(7.701243e-01 8.641088e-01 -4.700007e+02)	(2.663707e-03 -1.759079e-03 -7.498106e-04)
3767          	(7.727619e-01 8.622736e-01 -4.700015e+02)	(7.700983e-01 8.640337e-01 -4.700007e+02)	(2.663614e-03 -1.760036e-03 -7.498224e-04)
3768          	(7.726432e-01 8.620790e-01 -4.700015e+02)	(7.699796e-01 8.638400e-01 -4.700007e+02)	(2.663572e-03 -1.761007e-03 -7.498098e-04)
3769          	(7.723866e-01 8.617008e-01 -4.700015e+02)	(7.697230e-01 8.634628e-01 -4.700007e+02)	(2.663637e-03 -1.762064e-03 -7.497824e-04)
3770          	(7.712496e-01 8.602625e-01 -4.700015e+02)	(7.685857e-01 8.620259e-01 -4.700008e+02)	(2.663887e-03 -1.763392e-03 -7.497159e-04)
3771          	(7.701364e-01 8.588212e-01 -4.700015e+02)	(7.674720e-01 8.605862e-01 -4.700008e+02)	(2.664437e-03 -1.764998e-03 -7.496410e-04)
3772          	(7.691402e-01 8.574986e-01 -4.700015e+02)	(7.664749e-01 8.592655e-01 -4.700008e+02)	(2.665329e-03 -1.766841e-03 -7.495590e-04)
3773          	(7.689510e-01 8.571364e-01 -4.700016e+02)	(7.662846e-01 8.589052e-01 -4.700008e+02)	(2.666458e-03 -1.768719e-03 -7.495030e-04)
3774          	(7.682582e-01 8.561493e-01 -4.700016e+02)	(7.655903e-01 8.579201e-01 -4.700008e+02)	(2.667853e-03 -1.770816e-03 -7.494425e-04)
3775          	(7.681236e-01 8.558358e-01 -4.700016e+02)	(7.654542e-01 8.576088e-01 -4.700008e+02)	(2.669390e-03 -1.772948e-03 -7.493979e-04)
3776          	(7.679667e-01 8.554875e-01 -4.700016e+02)	(7.652957e-01 8.572626e-01 -4.700009e+02)	(2.671026e-03 -1.775136e-03 -7.493494e-04)
3777          	(7.677632e-01 8.550768e-01 -4.700016e+02)	(7.650905e-01 8.568542e-01 -4.700009e+02)	(2.672738e-03 -1.777416e-03 -7.493050e-04)
3778          	(7.674985e-01 8.545896e-01 -4.700017e+02)	(7.648239e-01 8.563694e-01 -4.700009e+02)	(2.674519e-03 -1.779788e-03 -7.492486e-04)
3779          	(7.666793e-01 8.534370e-01 -4.700017e+02)	(7.640029e-01 8.552193e-01 -4.700010e+02)	(2.676412e-03 -1.782383e-03 -7.491907e-04)
3780          	(7.663787e-01 8.529146e-01 -4.700017e+02)	(7.637003e-01 8.546996e-01 -4.700010e+02)	(2.678357e-03 -1.784991e-03 -7.491388e-04)
3781          	(7.660451e-01 8.523604e-01 -4.700018e+02)	(7.633648e-01 8.541481e-01 -4.700010e+02)	(2.680333e-03 -1.787624e-03 -7.491069e-04)
3782          	(7.651138e-01 8.511086e-01 -4.700018e+02)	(7.624315e-01 8.528990e-01 -4.700011e+02)	(2.682347e-03 -1.790378e-03 -7.490735e-04)
3783          	(7.648040e-01 8.505961e-01 -4.700018e+02)	(7.621196e-01 8.523892e-01 -4.700011e+02)	(2.684407e-03 -1.793102e-03 -7.490692e-04)
3784          	(7.644716e-01 8.500599e-01 -4.700019e+02)	(7.617851e-01 8.518557e-01 -4.700011e+02)	(2.686506e-03 -1.795806e-03 -7.490752e-04)
3785          	(7.640925e-01 8.494687e-01 -4.700019e+02)	(7.614038e-01 8.512672e-01 -4.700011e+02)	(2.688637e-03 -1.798524e-03 -7.490998e-04)
3786          	(7.623608e-01 8.473240e-01 -4.700019e+02)	(7.596701e-01 8.491254e-01 -4.700011e+02)	(2.690675e-03 -1.801372e-03 -7.491078e-04)
3787          	(7.620453e-01 8.468047e-01 -4.700019e+02)	(7.593524e-01 8.486089e-01 -4.700012e+02)	(2.692854e-03 -1.804210e-03 -7.491373e-04)
3788          	(7.617994e-01 8.463783e-01 -4.700019e+02)	(7.591043e-01 8.481853e-01 -4.700012e+02)	(2.695137e-03 -1.807003e-03 -7.491846e-04)
3789          	(7.615143e-01 8.459010e-01 -4.700019e+02)	(7.588168e-01 8.477108e-01 -4.700012e+02)	(2.697497e-03 -1.809808e-03 -7.492454e-04)
3790          	(7.610514e-01 8.451964e-01 -4.700019e+02)	(7.583515e-01 8.470091e-01 -4.700011e+02)	(2.699941e-03 -1.812692e-03 -7.492866e-04)
3791          	(7.587715e-01 8.424251e-01 -4.700018e+02)	(7.560693e-01 8.442409e-01 -4.700010e+02)	(2.702211e-03 -1.815757e-03 -7.492977e-04)
3792          	(7.584016e-01 8.418262e-01 -4.700017e+02)	(7.556969e-01 8.436450e-01 -4.700010e+02)	(2.704716e-03 -1.818838e-03 -7.493068e-04)
3793          	(7.580171e-01 8.412086e-01 -4.700017e+02)	(7.553097e-01 8.430305e-01 -4.700009e+02)	(2.707437e-03 -1.821953e-03 -7.493367e-04)
3794          	(7.558740e-01 8.385308e-01 -4.700014e+02)	(7.531637e-01 8.403562e-01 -4.700006e+02)	(2.710314e-03 -1.825353e-03 -7.493430e-04)
3795          	(7.557066e-01 8.381787e-01 -4.700013e+02)	(7.529932e-01 8.400074e-01 -4.700005e+02)	(2.713408e-03 -1.828679e-03 -7.493725e-04)
3796          	(7.555593e-01 8.378513e-01 -4.700012e+02)	(7.528427e-01 8.396833e-01 -4.700005e+02)	(2.716615e-03 -1.831924e-03 -7.494039e-04)
3797          	(7.561224e-01 8.378637e-01 -4.699989e+02)	(7.534009e-01 8.396999e-01 -4.699982e+02)	(2.721571e-03 -1.836212e-03 -7.494505e-04)
3798          	(7.562067e-01 8.378606e-01 -4.699989e+02)	(7.534807e-01 8.397006e-01 -4.699981e+02)	(2.726084e-03 -1.839990e-03 -7.495330e-04)
3799          	(7.562776e-01 8.378457e-01 -4.699989e+02)	(7.535477e-01 8.396891e-01 -4.699981e+02)	(2.729877e-03 -1.843388e-03 -7.495822e-04)
3800          	(7.562875e-01 8.377564e-01 -4.699988e+02)	(7.535543e-01 8.396030e-01 -4.699981e+02)	(2.733241e-03 -1.846548e-03 -7.495911e-04)
3801          	(7.561975e-01 8.375421e-01 -4.699988e+02)	(7.534612e-01 8.393917e-01 -4.699980e+02)	(2.736323e-03 -1.849570e-03 -7.495765e-04)
3802          	(7.559780e-01 8.371650e-01 -4.699988e+02)	(7.532387e-01 8.390175e-01 -4.699980e+02)	(2.739271e-03 -1.852530e-03 -7.495229e-04)
3803          	(7.540075e-01 8.346780e-01 -4.699986e+02)	(7.512652e-01 8.365339e-01 -4.699978e+02)	(2.742310e-03 -1.855879e-03 -7.494260e-04)
3804          	(7.538272e-01 8.343648e-01 -4.699985e+02)	(7.510818e-01 8.362238e-01 -4.699978e+02)	(2.745346e-03 -1.859021e-03 -7.493547e-04)
3805          	(7.536051e-01 8.340066e-01 -4.699985e+02)	(7.508567e-01 8.358686e-01 -4.699977e+02)	(2.748360e-03 -1.862022e-03 -7.493191e-04)
3806          	(7.514383e-01 8.313377e-01 -4.699981e+02)	(7.486869e-01 8.332031e-01 -4.699973e+02)	(2.751445e-03 -1.865324e-03 -7.492623e-04)
3807          	(7.513393e-01 8.311470e-01 -4.699980e+02)	(7.485848e-01 8.330153e-01 -4.699973e+02)	(2.754519e-03 -1.868360e-03 -7.492688e-04)
3808          	(7.511541e-01 8.308255e-01 -4.699979e+02)	(7.483965e-01 8.326968e-01 -4.699972e+02)	(2.757598e-03 -1.871254e-03 -7.492984e-04)
3809          	(7.510881e-01 8.302765e-01 -4.699954e+02)	(7.483262e-01 8.321515e-01 -4.699946e+02)	(2.761898e-03 -1.874982e-03 -7.493499e-04)