# Moment      
# CofR        : (0.000000e+00 0.000000e+00 0.000000e+00)
#
# Time        	(total_x total_y total_z)	(pressure_x pressure_y pressure_z)	(viscous_x viscous_y viscous_z)
3601          	(-1.765958e-02 2.122335e-02 -3.227250e-02)	(-1.769273e-02 2.119401e-02 -3.221253e-02)	(3.314992e-05 2.933778e-05 -5.997777e-05)
3602          	(-1.739191e-02 2.114717e-02 -3.213160e-02)	(-1.742534e-02 2.111756e-02 -3.207124e-02)	(3.342417e-05 2.960922e-05 -6.035645e-05)
3603          	(-1.721794e-02 2.104775e-02 -3.201932e-02)	(-1.725165e-02 2.101786e-02 -3.195863e-02)	(3.370965e-05 2.988822e-05 -6.068846e-05)
3604          	(-1.721730e-02 2.102438e-02 -3.196936e-02)	(-1.725126e-02 2.099424e-02 -3.190838e-02)	(3.396072e-05 3.014060e-05 -6.097649e-05)
3605          	(-1.723524e-02 2.101875e-02 -3.196596e-02)	(-1.726942e-02 2.098838e-02 -3.190471e-02)	(3.417990e-05 3.037011e-05 -6.125076e-05)
3606          	(-1.731088e-02 2.103132e-02 -3.196210e-02)	(-1.734523e-02 2.100076e-02 -3.190062e-02)	(3.434658e-05 3.056325e-05 -6.148056e-05)
3607          	(-1.746109e-02 2.112243e-02 -3.213313e-02)	(-1.749555e-02 2.109171e-02 -3.207145e-02)	(3.445561e-05 3.072545e-05 -6.167697e-05)
3608          	(-1.755372e-02 2.110429e-02 -3.222579e-02)	(-1.758820e-02 2.107350e-02 -3.216397e-02)	(3.448114e-05 3.079366e-05 -6.181546e-05)
3609          	(-1.760150e-02 2.110555e-02 -3.233553e-02)	(-1.763597e-02 2.107473e-02 -3.227364e-02)	(3.447296e-05 3.081714e-05 -6.189880e-05)
3610          	(-1.761055e-02 2.110616e-02 -3.238692e-02)	(-1.764501e-02 2.107532e-02 -3.232497e-02)	(3.445792e-05 3.083719e-05 -6.194681e-05)
3611          	(-1.757346e-02 2.111742e-02 -3.239545e-02)	(-1.760792e-02 2.108653e-02 -3.233347e-02)	(3.446770e-05 3.088964e-05 -6.198164e-05)
3612          	(-1.752715e-02 2.112695e-02 -3.237269e-02)	(-1.756167e-02 2.109596e-02 -3.231066e-02)	(3.451488e-05 3.098638e-05 -6.202135e-05)
3613          	(-1.746448e-02 2.112331e-02 -3.233084e-02)	(-1.749908e-02 2.109220e-02 -3.226875e-02)	(3.459696e-05 3.111254e-05 -6.209219e-05)
3614          	(-1.738869e-02 2.110539e-02 -3.225894e-02)	(-1.742340e-02 2.107413e-02 -3.219672e-02)	(3.471231e-05 3.126016e-05 -6.222142e-05)
3615          	(-1.730000e-02 2.105765e-02 -3.214599e-02)	(-1.733485e-02 2.102624e-02 -3.208358e-02)	(3.484508e-05 3.140853e-05 -6.240796e-05)
3616          	(-1.725087e-02 2.102762e-02 -3.209424e-02)	(-1.728585e-02 2.099607e-02 -3.203163e-02)	(3.497830e-05 3.155284e-05 -6.261397e-05)
3617          	(-1.722517e-02 2.100563e-02 -3.207419e-02)	(-1.726027e-02 2.097394e-02 -3.201136e-02)	(3.510383e-05 3.168745e-05 -6.282328e-05)
3618          	(-1.722331e-02 2.100419e-02 -3.207869e-02)	(-1.725853e-02 2.097236e-02 -3.201567e-02)	(3.522418e-05 3.182160e-05 -6.301703e-05)
3619          	(-1.722065e-02 2.099893e-02 -3.209851e-02)	(-1.725598e-02 2.096698e-02 -3.203532e-02)	(3.533404e-05 3.194902e-05 -6.318663e-05)
3620          	(-1.721585e-02 2.099085e-02 -3.213198e-02)	(-1.725129e-02 2.095877e-02 -3.206865e-02)	(3.543693e-05 3.207445e-05 -6.332171e-05)
3621          	(-1.720565e-02 2.098094e-02 -3.217585e-02)	(-1.724118e-02 2.094874e-02 -3.211243e-02)	(3.553254e-05 3.219569e-05 -6.341741e-05)
3622          	(-1.719271e-02 2.097106e-02 -3.221281e-02)	(-1.722834e-02 2.093874e-02 -3.214934e-02)	(3.562661e-05 3.231892e-05 -6.347561e-05)
3623          	(-1.716299e-02 2.094585e-02 -3.223858e-02)	(-1.719871e-02 2.091341e-02 -3.217508e-02)	(3.571810e-05 3.243791e-05 -6.350201e-05)
3624          	(-1.711081e-02 2.091837e-02 -3.222970e-02)	(-1.714663e-02 2.088580e-02 -3.216618e-02)	(3.582494e-05 3.257334e-05 -6.351600e-05)
3625          	(-1.708279e-02 2.089389e-02 -3.219750e-02)	(-1.711871e-02 2.086118e-02 -3.213400e-02)	(3.592686e-05 3.270487e-05 -6.350355e-05)
3626          	(-1.707745e-02 2.089628e-02 -3.218427e-02)	(-1.711347e-02 2.086344e-02 -3.212078e-02)	(3.602898e-05 3.283861e-05 -6.348494e-05)
3627          	(-1.707168e-02 2.089884e-02 -3.217123e-02)	(-1.710781e-02 2.086587e-02 -3.210777e-02)	(3.612782e-05 3.296770e-05 -6.345991e-05)
3628          	(-1.706381e-02 2.090068e-02 -3.216073e-02)	(-1.710003e-02 2.086759e-02 -3.209729e-02)	(3.622459e-05 3.309238e-05 -6.343621e-05)
3629          	(-1.703667e-02 2.089486e-02 -3.215435e-02)	(-1.707299e-02 2.086165e-02 -3.209093e-02)	(3.631991e-05 3.321099e-05 -6.342204e-05)
3630          	(-1.702579e-02 2.089461e-02 -3.215102e-02)	(-1.706221e-02 2.086128e-02 -3.208760e-02)	(3.641160e-05 3.332482e-05 -6.341356e-05)
3631          	(-1.701135e-02 2.089237e-02 -3.215374e-02)	(-1.704785e-02 2.085894e-02 -3.209033e-02)	(3.649756e-05 3.342993e-05 -6.341250e-05)
3632          	(-1.697086e-02 2.087795e-02 -3.216469e-02)	(-1.700745e-02 2.084442e-02 -3.210126e-02)	(3.658571e-05 3.353458e-05 -6.342440e-05)
3633          	(-1.693721e-02 2.086403e-02 -3.217663e-02)	(-1.697389e-02 2.083039e-02 -3.211320e-02)	(3.667121e-05 3.363638e-05 -6.343664e-05)
3634          	(-1.691211e-02 2.085215e-02 -3.218680e-02)	(-1.694887e-02 2.081842e-02 -3.212335e-02)	(3.675338e-05 3.373658e-05 -6.344552e-05)
3635          	(-1.690751e-02 2.085017e-02 -3.218793e-02)	(-1.694434e-02 2.081634e-02 -3.212449e-02)	(3.682815e-05 3.383268e-05 -6.343982e-05)
3636          	(-1.690181e-02 2.084724e-02 -3.219259e-02)	(-1.693870e-02 2.081331e-02 -3.212916e-02)	(3.689792e-05 3.392622e-05 -6.342712e-05)
3637          	(-1.689407e-02 2.084297e-02 -3.220188e-02)	(-1.693103e-02 2.080895e-02 -3.213848e-02)	(3.696118e-05 3.401392e-05 -6.340654e-05)
3638          	(-1.688240e-02 2.083680e-02 -3.221652e-02)	(-1.691942e-02 2.080270e-02 -3.215314e-02)	(3.702118e-05 3.409922e-05 -6.338312e-05)
3639          	(-1.686636e-02 2.082856e-02 -3.223577e-02)	(-1.690344e-02 2.079438e-02 -3.217241e-02)	(3.707704e-05 3.418006e-05 -6.335830e-05)
3640          	(-1.684709e-02 2.081879e-02 -3.225628e-02)	(-1.688422e-02 2.078453e-02 -3.219295e-02)	(3.713154e-05 3.425994e-05 -6.333476e-05)
3641          	(-1.682848e-02 2.080931e-02 -3.227350e-02)	(-1.686566e-02 2.077497e-02 -3.221019e-02)	(3.718284e-05 3.433687e-05 -6.331054e-05)
3642          	(-1.681125e-02 2.080032e-02 -3.228611e-02)	(-1.684848e-02 2.076590e-02 -3.222282e-02)	(3.723380e-05 3.441520e-05 -6.328993e-05)
3643          	(-1.679468e-02 2.079111e-02 -3.229541e-02)	(-1.683196e-02 2.075662e-02 -3.223214e-02)	(3.728211e-05 3.449176e-05 -6.327081e-05)
3644          	(-1.677820e-02 2.078105e-02 -3.230211e-02)	(-1.681553e-02 2.074648e-02 -3.223886e-02)	(3.733045e-05 3.457022e-05 -6.325481e-05)
3645          	(-1.676161e-02 2.076974e-02 -3.230677e-02)	(-1.679899e-02 2.073509e-02 -3.224353e-02)	(3.737678e-05 3.464773e-05 -6.323952e-05)
3646          	(-1.670482e-02 2.072316e-02 -3.229669e-02)	(-1.674225e-02 2.068844e-02 -3.223346e-02)	(3.742364e-05 3.471991e-05 -6.323455e-05)
3647          	(-1.669194e-02 2.071161e-02 -3.229353e-02)	(-1.672941e-02 2.067681e-02 -3.223031e-02)	(3.747107e-05 3.479861e-05 -6.321748e-05)
3648          	(-1.668025e-02 2.069972e-02 -3.228927e-02)	(-1.671777e-02 2.066484e-02 -3.222607e-02)	(3.751900e-05 3.488386e-05 -6.320179e-05)
3649          	(-1.667004e-02 2.068846e-02 -3.228561e-02)	(-1.670761e-02 2.065349e-02 -3.222243e-02)	(3.756614e-05 3.497163e-05 -6.318052e-05)
3650          	(-1.666306e-02 2.067955e-02 -3.228311e-02)	(-1.670068e-02 2.064449e-02 -3.221995e-02)	(3.761438e-05 3.506450e-05 -6.315548e-05)
3651          	(-1.665677e-02 2.067121e-02 -3.228243e-02)	(-1.669443e-02 2.063606e-02 -3.221930e-02)	(3.766052e-05 3.515705e-05 -6.312582e-05)
3652          	(-1.665074e-02 2.066297e-02 -3.228352e-02)	(-1.668845e-02 2.062772e-02 -3.222043e-02)	(3.770578e-05 3.525020e-05 -6.309400e-05)
3653          	(-1.664311e-02 2.065341e-02 -3.228698e-02)	(-1.668086e-02 2.061807e-02 -3.222392e-02)	(3.774748e-05 3.533916e-05 -6.305973e-05)
3654          	(-1.663554e-02 2.064381e-02 -3.229118e-02)	(-1.667333e-02 2.060838e-02 -3.222815e-02)	(3.778728e-05 3.542630e-05 -6.302473e-05)
3655          	(-1.658353e-02 2.054345e-02 -3.224575e-02)	(-1.662133e-02 2.050799e-02 -3.218277e-02)	(3.779895e-05 3.546123e-05 -6.297768e-05)
3656          	(-1.657456e-02 2.053821e-02 -3.224886e-02)	(-1.661237e-02 2.050270e-02 -3.218594e-02)	(3.781950e-05 3.551090e-05 -6.291741e-05)
3657          	(-1.656613e-02 2.053432e-02 -3.225206e-02)	(-1.660397e-02 2.049875e-02 -3.218919e-02)	(3.783945e-05 3.557038e-05 -6.286512e-05)
3658          	(-1.655868e-02 2.053204e-02 -3.225419e-02)	(-1.659654e-02 2.049640e-02 -3.219137e-02)	(3.785928e-05 3.563557e-05 -6.281205e-05)
3659          	(-1.655309e-02 2.053278e-02 -3.225513e-02)	(-1.659097e-02 2.049708e-02 -3.219237e-02)	(3.787493e-05 3.569965e-05 -6.275457e-05)
3660          	(-1.655790e-02 2.054309e-02 -3.226649e-02)	(-1.659579e-02 2.050733e-02 -3.220380e-02)	(3.788667e-05 3.576354e-05 -6.269412e-05)
3661          	(-1.656133e-02 2.054557e-02 -3.226798e-02)	(-1.659922e-02 2.050975e-02 -3.220535e-02)	(3.789026e-05 3.581818e-05 -6.262660e-05)
3662          	(-1.658567e-02 2.057112e-02 -3.228679e-02)	(-1.662356e-02 2.053524e-02 -3.222424e-02)	(3.789021e-05 3.587218e-05 -6.255137e-05)
3663          	(-1.659513e-02 2.057188e-02 -3.229241e-02)	(-1.663301e-02 2.053597e-02 -3.222994e-02)	(3.787847e-05 3.590862e-05 -6.247078e-05)
3664          	(-1.660589e-02 2.057191e-02 -3.229959e-02)	(-1.664375e-02 2.053598e-02 -3.223721e-02)	(3.785995e-05 3.593230e-05 -6.238050e-05)
3665          	(-1.661730e-02 2.057175e-02 -3.230806e-02)	(-1.665514e-02 2.053580e-02 -3.224577e-02)	(3.783415e-05 3.594334e-05 -6.228510e-05)
3666          	(-1.662884e-02 2.057135e-02 -3.231739e-02)	(-1.666665e-02 2.053540e-02 -3.225520e-02)	(3.780399e-05 3.594608e-05 -6.218788e-05)
3667          	(-1.663886e-02 2.057037e-02 -3.232785e-02)	(-1.667663e-02 2.053443e-02 -3.226576e-02)	(3.776897e-05 3.594015e-05 -6.208990e-05)
3668          	(-1.664886e-02 2.056893e-02 -3.233839e-02)	(-1.668659e-02 2.053300e-02 -3.227640e-02)	(3.773165e-05 3.592986e-05 -6.199307e-05)
3669          	(-1.665912e-02 2.056689e-02 -3.234885e-02)	(-1.669681e-02 2.053098e-02 -3.228695e-02)	(3.769014e-05 3.591333e-05 -6.189511e-05)
3670          	(-1.666955e-02 2.056423e-02 -3.235863e-02)	(-1.670720e-02 2.052834e-02 -3.229684e-02)	(3.764639e-05 3.589379e-05 -6.179695e-05)
3671          	(-1.667975e-02 2.056101e-02 -3.236723e-02)	(-1.671735e-02 2.052514e-02 -3.230554e-02)	(3.759953e-05 3.587009e-05 -6.169674e-05)
3672          	(-1.668946e-02 2.055733e-02 -3.237425e-02)	(-1.672702e-02 2.052149e-02 -3.231265e-02)	(3.755164e-05 3.584502e-05 -6.159582e-05)
3673          	(-1.669882e-02 2.055319e-02 -3.237987e-02)	(-1.673632e-02 2.051737e-02 -3.231837e-02)	(3.750158e-05 3.581694e-05 -6.149316e-05)
3674          	(-1.670206e-02 2.053456e-02 -3.235660e-02)	(-1.673951e-02 2.049878e-02 -3.229522e-02)	(3.745002e-05 3.578639e-05 -6.137841e-05)
3675          	(-1.671455e-02 2.053887e-02 -3.235101e-02)	(-1.675196e-02 2.050310e-02 -3.228976e-02)	(3.740353e-05 3.576589e-05 -6.125364e-05)
3676          	(-1.673689e-02 2.054259e-02 -3.236133e-02)	(-1.677425e-02 2.050684e-02 -3.230019e-02)	(3.735619e-05 3.574675e-05 -6.113918e-05)
3677          	(-1.673934e-02 2.054135e-02 -3.236475e-02)	(-1.677665e-02 2.050562e-02 -3.230371e-02)	(3.731192e-05 3.572764e-05 -6.104281e-05)
3678          	(-1.674165e-02 2.054033e-02 -3.236984e-02)	(-1.677892e-02 2.050462e-02 -3.230888e-02)	(3.727101e-05 3.571122e-05 -6.096030e-05)
3679          	(-1.679824e-02 2.061934e-02 -3.241971e-02)	(-1.683549e-02 2.058361e-02 -3.235883e-02)	(3.724493e-05 3.573087e-05 -6.087928e-05)
3680          	(-1.681383e-02 2.061913e-02 -3.243104e-02)	(-1.685104e-02 2.058340e-02 -3.237022e-02)	(3.720805e-05 3.573359e-05 -6.081315e-05)
3681          	(-1.681886e-02 2.061790e-02 -3.243998e-02)	(-1.685603e-02 2.058218e-02 -3.237923e-02)	(3.716773e-05 3.571998e-05 -6.075394e-05)
3682          	(-1.682488e-02 2.061621e-02 -3.244963e-02)	(-1.686200e-02 2.058051e-02 -3.238893e-02)	(3.712655e-05 3.569955e-05 -6.070511e-05)
3683          	(-1.683207e-02 2.061382e-02 -3.245928e-02)	(-1.686916e-02 2.057814e-02 -3.239862e-02)	(3.708340e-05 3.567254e-05 -6.066079e-05)
3684          	(-1.685921e-02 2.060767e-02 -3.246388e-02)	(-1.689624e-02 2.057204e-02 -3.240327e-02)	(3.703187e-05 3.563380e-05 -6.060503e-05)
3685          	(-1.686372e-02 2.060374e-02 -3.247394e-02)	(-1.690070e-02 2.056815e-02 -3.241339e-02)	(3.698252e-05 3.559323e-05 -6.055371e-05)
3686          	(-1.686833e-02 2.059892e-02 -3.248158e-02)	(-1.690527e-02 2.056336e-02 -3.242107e-02)	(3.693691e-05 3.555700e-05 -6.050645e-05)
3687          	(-1.687474e-02 2.059291e-02 -3.248426e-02)	(-1.691163e-02 2.055739e-02 -3.242380e-02)	(3.689035e-05 3.552042e-05 -6.045554e-05)
3688          	(-1.688183e-02 2.059690e-02 -3.247465e-02)	(-1.691868e-02 2.056140e-02 -3.241426e-02)	(3.685094e-05 3.549764e-05 -6.039533e-05)
3689          	(-1.688985e-02 2.059243e-02 -3.246983e-02)	(-1.692666e-02 2.055696e-02 -3.240950e-02)	(3.680812e-05 3.547241e-05 -6.033095e-05)
3690          	(-1.689911e-02 2.058861e-02 -3.246400e-02)	(-1.693587e-02 2.055316e-02 -3.240373e-02)	(3.676263e-05 3.544282e-05 -6.027035e-05)
3691          	(-1.690977e-02 2.058552e-02 -3.245895e-02)	(-1.694648e-02 2.055011e-02 -3.239874e-02)	(3.671278e-05 3.540669e-05 -6.021109e-05)
3692          	(-1.692528e-02 2.058357e-02 -3.245358e-02)	(-1.696194e-02 2.054821e-02 -3.239343e-02)	(3.665899e-05 3.536521e-05 -6.015025e-05)
3693          	(-1.695167e-02 2.058582e-02 -3.244837e-02)	(-1.698827e-02 2.055051e-02 -3.238829e-02)	(3.659669e-05 3.531367e-05 -6.007820e-05)
3694          	(-1.697808e-02 2.059101e-02 -3.245229e-02)	(-1.701461e-02 2.055575e-02 -3.239228e-02)	(3.652929e-05 3.525529e-05 -6.000216e-05)
3695          	(-1.703387e-02 2.064140e-02 -3.250030e-02)	(-1.707034e-02 2.060619e-02 -3.244037e-02)	(3.646269e-05 3.520382e-05 -5.992693e-05)
3696          	(-1.708125e-02 2.068285e-02 -3.254112e-02)	(-1.711764e-02 2.064770e-02 -3.248126e-02)	(3.639423e-05 3.515184e-05 -5.985939e-05)
3697          	(-1.712118e-02 2.071731e-02 -3.257791e-02)	(-1.715751e-02 2.068221e-02 -3.251811e-02)	(3.632250e-05 3.509310e-05 -5.979452e-05)
3698          	(-1.715715e-02 2.074656e-02 -3.261168e-02)	(-1.719340e-02 2.071153e-02 -3.255194e-02)	(3.624895e-05 3.502855e-05 -5.973691e-05)
3699          	(-1.716947e-02 2.074350e-02 -3.261828e-02)	(-1.720564e-02 2.070855e-02 -3.255859e-02)	(3.616871e-05 3.494667e-05 -5.968503e-05)
3700          	(-1.718904e-02 2.072754e-02 -3.263591e-02)	(-1.722512e-02 2.069270e-02 -3.257628e-02)	(3.607724e-05 3.484189e-05 -5.963674e-05)
3701          	(-1.720606e-02 2.071016e-02 -3.264476e-02)	(-1.724204e-02 2.067544e-02 -3.258517e-02)	(3.597834e-05 3.472009e-05 -5.958965e-05)
3702          	(-1.721172e-02 2.070850e-02 -3.263844e-02)	(-1.724760e-02 2.067389e-02 -3.257890e-02)	(3.588839e-05 3.460871e-05 -5.954158e-05)
3703          	(-1.721873e-02 2.070798e-02 -3.262850e-02)	(-1.725453e-02 2.067347e-02 -3.256900e-02)	(3.580487e-05 3.450950e-05 -5.949260e-05)
3704          	(-1.726978e-02 2.075261e-02 -3.265319e-02)	(-1.730551e-02 2.071818e-02 -3.259374e-02)	(3.572902e-05 3.443218e-05 -5.944599e-05)
3705          	(-1.728601e-02 2.072786e-02 -3.262716e-02)	(-1.732165e-02 2.069353e-02 -3.256777e-02)	(3.563747e-05 3.433003e-05 -5.939704e-05)
3706          	(-1.732805e-02 2.075670e-02 -3.262939e-02)	(-1.736360e-02 2.072246e-02 -3.257006e-02)	(3.555370e-05 3.424009e-05 -5.933251e-05)
3707          	(-1.736187e-02 2.077293e-02 -3.261960e-02)	(-1.739734e-02 2.073878e-02 -3.256033e-02)	(3.546997e-05 3.415307e-05 -5.927140e-05)
3708          	(-1.737072e-02 2.076469e-02 -3.260415e-02)	(-1.740611e-02 2.073062e-02 -3.254494e-02)	(3.538799e-05 3.406303e-05 -5.921224e-05)
3709          	(-1.738130e-02 2.075766e-02 -3.258691e-02)	(-1.741660e-02 2.072368e-02 -3.252776e-02)	(3.530824e-05 3.397241e-05 -5.915395e-05)
3710          	(-1.739506e-02 2.075254e-02 -3.256773e-02)	(-1.743029e-02 2.071865e-02 -3.250863e-02)	(3.523206e-05 3.388506e-05 -5.910225e-05)
3711          	(-1.741292e-02 2.075004e-02 -3.254687e-02)	(-1.744808e-02 2.071624e-02 -3.248782e-02)	(3.515705e-05 3.379888e-05 -5.905535e-05)
3712          	(-1.743634e-02 2.075070e-02 -3.252482e-02)	(-1.747142e-02 2.071698e-02 -3.246581e-02)	(3.508352e-05 3.371541e-05 -5.901267e-05)
3713          	(-1.748713e-02 2.076441e-02 -3.249240e-02)	(-1.752213e-02 2.073079e-02 -3.243344e-02)	(3.500430e-05 3.362894e-05 -5.896060e-05)
3714          	(-1.754230e-02 2.078246e-02 -3.247553e-02)	(-1.757722e-02 2.074893e-02 -3.241662e-02)	(3.491901e-05 3.353694e-05 -5.890586e-05)
3715          	(-1.759516e-02 2.080307e-02 -3.247754e-02)	(-1.762999e-02 2.076963e-02 -3.241869e-02)	(3.482761e-05 3.343728e-05 -5.885295e-05)
3716          	(-1.764207e-02 2.082469e-02 -3.249544e-02)	(-1.767680e-02 2.079136e-02 -3.243663e-02)	(3.473348e-05 3.333282e-05 -5.880575e-05)
3717          	(-1.769606e-02 2.085814e-02 -3.253667e-02)	(-1.773070e-02 2.082492e-02 -3.247791e-02)	(3.463604e-05 3.322297e-05 -5.876506e-05)
3718          	(-1.775070e-02 2.089911e-02 -3.258776e-02)	(-1.778524e-02 2.086600e-02 -3.252903e-02)	(3.453954e-05 3.311348e-05 -5.873075e-05)
3719          	(-1.776376e-02 2.090460e-02 -3.260502e-02)	(-1.779821e-02 2.087160e-02 -3.254633e-02)	(3.444421e-05 3.299825e-05 -5.869527e-05)
3720          	(-1.777825e-02 2.091204e-02 -3.261206e-02)	(-1.781260e-02 2.087916e-02 -3.255341e-02)	(3.435314e-05 3.288444e-05 -5.865208e-05)
3721          	(-1.784898e-02 2.101550e-02 -3.270365e-02)	(-1.788326e-02 2.098268e-02 -3.264502e-02)	(3.428445e-05 3.281344e-05 -5.862799e-05)
3722          	(-1.786512e-02 2.102032e-02 -3.268944e-02)	(-1.789933e-02 2.098759e-02 -3.263082e-02)	(3.420856e-05 3.272590e-05 -5.862181e-05)
3723          	(-1.788379e-02 2.102530e-02 -3.266572e-02)	(-1.791792e-02 2.099268e-02 -3.260712e-02)	(3.413060e-05 3.262321e-05 -5.860202e-05)
3724          	(-1.791274e-02 2.103187e-02 -3.263170e-02)	(-1.794679e-02 2.099936e-02 -3.257312e-02)	(3.405071e-05 3.251402e-05 -5.858395e-05)
3725          	(-1.794054e-02 2.103849e-02 -3.260384e-02)	(-1.797451e-02 2.100609e-02 -3.254527e-02)	(3.396962e-05 3.240009e-05 -5.857114e-05)
3726          	(-1.796626e-02 2.104519e-02 -3.258541e-02)	(-1.800015e-02 2.101291e-02 -3.252684e-02)	(3.389015e-05 3.228621e-05 -5.856490e-05)
3727          	(-1.799425e-02 2.105902e-02 -3.257715e-02)	(-1.802806e-02 2.102685e-02 -3.251859e-02)	(3.381226e-05 3.217429e-05 -5.856454e-05)
3728          	(-1.803142e-02 2.107430e-02 -3.257963e-02)	(-1.806516e-02 2.104223e-02 -3.252106e-02)	(3.373438e-05 3.206396e-05 -5.856754e-05)
3729          	(-1.806204e-02 2.108809e-02 -3.259145e-02)	(-1.809570e-02 2.105613e-02 -3.253288e-02)	(3.365612e-05 3.195331e-05 -5.856976e-05)
3730          	(-1.808646e-02 2.110030e-02 -3.260835e-02)	(-1.812004e-02 2.106845e-02 -3.254978e-02)	(3.358087e-05 3.184698e-05 -5.856862e-05)
3731          	(-1.810533e-02 2.111110e-02 -3.262577e-02)	(-1.813883e-02 2.107936e-02 -3.256721e-02)	(3.350795e-05 3.174398e-05 -5.856036e-05)
3732          	(-1.811414e-02 2.112108e-02 -3.264284e-02)	(-1.814758e-02 2.108943e-02 -3.258429e-02)	(3.344212e-05 3.164993e-05 -5.854822e-05)
3733          	(-1.811916e-02 2.112175e-02 -3.265642e-02)	(-1.815254e-02 2.109019e-02 -3.259789e-02)	(3.337901e-05 3.155847e-05 -5.852815e-05)
3734          	(-1.812552e-02 2.112314e-02 -3.266128e-02)	(-1.815884e-02 2.109166e-02 -3.260278e-02)	(3.332082e-05 3.147307e-05 -5.850330e-05)
3735          	(-1.813420e-02 2.112599e-02 -3.265722e-02)	(-1.816747e-02 2.109459e-02 -3.259874e-02)	(3.326539e-05 3.139118e-05 -5.847666e-05)
3736          	(-1.814576e-02 2.113082e-02 -3.264518e-02)	(-1.817898e-02 2.109950e-02 -3.258672e-02)	(3.321541e-05 3.131672e-05 -5.845311e-05)
3737          	(-1.817634e-02 2.115175e-02 -3.262407e-02)	(-1.820951e-02 2.112050e-02 -3.256564e-02)	(3.316814e-05 3.124832e-05 -5.843144e-05)
3738          	(-1.821324e-02 2.118544e-02 -3.264137e-02)	(-1.824637e-02 2.115425e-02 -3.258295e-02)	(3.312678e-05 3.119035e-05 -5.842558e-05)
3739          	(-1.824087e-02 2.121313e-02 -3.265574e-02)	(-1.827395e-02 2.118200e-02 -3.259730e-02)	(3.308921e-05 3.113669e-05 -5.843265e-05)
3740          	(-1.825078e-02 2.121166e-02 -3.265429e-02)	(-1.828383e-02 2.118058e-02 -3.259584e-02)	(3.305149e-05 3.107703e-05 -5.844606e-05)
3741          	(-1.825902e-02 2.121023e-02 -3.265318e-02)	(-1.829204e-02 2.117921e-02 -3.259472e-02)	(3.301445e-05 3.101298e-05 -5.846062e-05)
3742          	(-1.826543e-02 2.120875e-02 -3.265279e-02)	(-1.829841e-02 2.117780e-02 -3.259431e-02)	(3.298129e-05 3.095072e-05 -5.848277e-05)
3743          	(-1.827019e-02 2.120786e-02 -3.265167e-02)	(-1.830314e-02 2.117697e-02 -3.259316e-02)	(3.295113e-05 3.089014e-05 -5.851035e-05)
3744          	(-1.827316e-02 2.120754e-02 -3.264950e-02)	(-1.830609e-02 2.117671e-02 -3.259096e-02)	(3.292589e-05 3.083478e-05 -5.854427e-05)
3745          	(-1.827467e-02 2.120780e-02 -3.264580e-02)	(-1.830757e-02 2.117702e-02 -3.258722e-02)	(3.290344e-05 3.078247e-05 -5.858188e-05)
3746          	(-1.827443e-02 2.120941e-02 -3.263968e-02)	(-1.830732e-02 2.117867e-02 -3.258106e-02)	(3.288611e-05 3.073686e-05 -5.862474e-05)
3747          	(-1.827383e-02 2.121050e-02 -3.263316e-02)	(-1.830670e-02 2.117981e-02 -3.257449e-02)	(3.286968e-05 3.069248e-05 -5.866975e-05)
3748          	(-1.827325e-02 2.121083e-02 -3.262681e-02)	(-1.830611e-02 2.118018e-02 -3.256809e-02)	(3.285412e-05 3.064936e-05 -5.871551e-05)
3749          	(-1.827237e-02 2.121089e-02 -3.262148e-02)	(-1.830521e-02 2.118028e-02 -3.256272e-02)	(3.283748e-05 3.060460e-05 -5.875893e-05)
3750          	(-1.827113e-02 2.121092e-02 -3.261653e-02)	(-1.830395e-02 2.118036e-02 -3.255773e-02)	(3.282169e-05 3.056082e-05 -5.879909e-05)
3751          	(-1.826928e-02 2.121151e-02 -3.261174e-02)	(-1.830209e-02 2.118100e-02 -3.255290e-02)	(3.280620e-05 3.051708e-05 -5.883446e-05)
3752          	(-1.826705e-02 2.121278e-02 -3.260611e-02)	(-1.829984e-02 2.118230e-02 -3.254725e-02)	(3.279417e-05 3.047766e-05 -5.886531e-05)
3753          	(-1.826419e-02 2.121498e-02 -3.259895e-02)	(-1.829698e-02 2.118454e-02 -3.254006e-02)	(3.278442e-05 3.044082e-05 -5.889214e-05)
3754          	(-1.826071e-02 2.121822e-02 -3.259038e-02)	(-1.829349e-02 2.118781e-02 -3.253146e-02)	(3.277991e-05 3.041034e-05 -5.891916e-05)
3755          	(-1.825657e-02 2.122255e-02 -3.258080e-02)	(-1.828935e-02 2.119217e-02 -3.252185e-02)	(3.277940e-05 3.038416e-05 -5.894793e-05)
3756          	(-1.825185e-02 2.122782e-02 -3.257079e-02)	(-1.828463e-02 2.119746e-02 -3.251181e-02)	(3.278427e-05 3.036397e-05 -5.898228e-05)
3757          	(-1.824661e-02 2.123376e-02 -3.256130e-02)	(-1.827941e-02 2.120341e-02 -3.250227e-02)	(3.279246e-05 3.034674e-05 -5.902428e-05)
3758          	(-1.824008e-02 2.124012e-02 -3.255407e-02)	(-1.827289e-02 2.120979e-02 -3.249499e-02)	(3.280478e-05 3.033314e-05 -5.907736e-05)
3759          	(-1.823325e-02 2.124609e-02 -3.254945e-02)	(-1.826606e-02 2.121577e-02 -3.249031e-02)	(3.281829e-05 3.031912e-05 -5.914013e-05)
3760          	(-1.822615e-02 2.125098e-02 -3.254809e-02)	(-1.825898e-02 2.122068e-02 -3.248888e-02)	(3.283416e-05 3.030638e-05 -5.921294e-05)
3761          	(-1.821467e-02 2.127733e-02 -3.255704e-02)	(-1.824753e-02 2.124702e-02 -3.249774e-02)	(3.286252e-05 3.031123e-05 -5.929525e-05)
3762          	(-1.819998e-02 2.129322e-02 -3.256291e-02)	(-1.823288e-02 2.126289e-02 -3.250353e-02)	(3.289893e-05 3.032810e-05 -5.938788e-05)
3763          	(-1.818701e-02 2.129812e-02 -3.256816e-02)	(-1.821995e-02 2.126778e-02 -3.250867e-02)	(3.293613e-05 3.034450e-05 -5.948388e-05)
3764          	(-1.818527e-02 2.128403e-02 -3.256015e-02)	(-1.821824e-02 2.125368e-02 -3.250058e-02)	(3.296411e-05 3.034560e-05 -5.956966e-05)
3765          	(-1.818680e-02 2.128734e-02 -3.256014e-02)	(-1.821980e-02 2.125700e-02 -3.250049e-02)	(3.299291e-05 3.034563e-05 -5.964770e-05)
3766          	(-1.818592e-02 2.128942e-02 -3.256065e-02)	(-1.821894e-02 2.125907e-02 -3.250092e-02)	(3.302472e-05 3.035031e-05 -5.972562e-05)
3767          	(-1.818273e-02 2.129041e-02 -3.256067e-02)	(-1.821579e-02 2.126005e-02 -3.250087e-02)	(3.305794e-05 3.035777e-05 -5.979818e-05)
3768          	(-1.817615e-02 2.128988e-02 -3.256065e-02)	(-1.820924e-02 2.125951e-02 -3.250078e-02)	(3.309387e-05 3.036991e-05 -5.986800e-05)
3769          	(-1.816399e-02 2.128748e-02 -3.256098e-02)	(-1.819712e-02 2.125709e-02 -3.250104e-02)	(3.313149e-05 3.038461e-05 -5.993748e-05)
3770          	(-1.812461e-02 2.126639e-02 -3.255190e-02)	(-1.815779e-02 2.123599e-02 -3.249188e-02)	(3.317474e-05 3.040305e-05 -6.001463e-05)
3771          	(-1.808408e-02 2.124718e-02 -3.253608e-02)	(-1.811730e-02 2.121675e-02 -3.247599e-02)	(3.322228e-05 3.042571e-05 -6.009400e-05)
3772          	(-1.804605e-02 2.123114e-02 -3.251415e-02)	(-1.807933e-02 2.120069e-02 -3.245397e-02)	(3.327596e-05 3.045693e-05 -6.017708e-05)
3773          	(-1.803274e-02 2.123221e-02 -3.249602e-02)	(-1.806607e-02 2.120171e-02 -3.243576e-02)	(3.333080e-05 3.049391e-05 -6.025623e-05)
3774          	(-1.800272e-02 2.122340e-02 -3.247189e-02)	(-1.803611e-02 2.119286e-02 -3.241155e-02)	(3.339041e-05 3.053651e-05 -6.034015e-05)
3775          	(-1.799091e-02 2.122534e-02 -3.245030e-02)	(-1.802436e-02 2.119476e-02 -3.238988e-02)	(3.344998e-05 3.058134e-05 -6.041992e-05)
3776          	(-1.797818e-02 2.122686e-02 -3.243090e-02)	(-1.801169e-02 2.119623e-02 -3.237039e-02)	(3.351069e-05 3.062835e-05 -6.050195e-05)
3777          	(-1.796371e-02 2.122755e-02 -3.241598e-02)	(-1.799728e-02 2.119688e-02 -3.235540e-02)	(3.357096e-05 3.067418e-05 -6.058395e-05)
3778          	(-1.794712e-02 2.122714e-02 -3.240674e-02)	(-1.798075e-02 2.119642e-02 -3.234607e-02)	(3.363241e-05 3.072067e-05 -6.066890e-05)
3779          	(-1.791284e-02 2.121567e-02 -3.240538e-02)	(-1.794653e-02 2.118490e-02 -3.234462e-02)	(3.369510e-05 3.076518e-05 -6.076011e-05)
3780          	(-1.789552e-02 2.121426e-02 -3.240341e-02)	(-1.792928e-02 2.118345e-02 -3.234256e-02)	(3.375774e-05 3.081064e-05 -6.084886e-05)
3781          	(-1.787760e-02 2.121190e-02 -3.240434e-02)	(-1.791142e-02 2.118104e-02 -3.234340e-02)	(3.381883e-05 3.085450e-05 -6.093668e-05)
3782          	(-1.784206e-02 2.119643e-02 -3.240994e-02)	(-1.787594e-02 2.116553e-02 -3.234892e-02)	(3.388145e-05 3.089794e-05 -6.102619e-05)
3783          	(-1.782579e-02 2.119385e-02 -3.240826e-02)	(-1.785973e-02 2.116291e-02 -3.234716e-02)	(3.394182e-05 3.094082e-05 -6.110635e-05)
3784          	(-1.780916e-02 2.119048e-02 -3.240553e-02)	(-1.784316e-02 2.115949e-02 -3.234435e-02)	(3.400191e-05 3.098528e-05 -6.118331e-05)
3785          	(-1.779126e-02 2.118595e-02 -3.240222e-02)	(-1.782532e-02 2.115492e-02 -3.234096e-02)	(3.406005e-05 3.102816e-05 -6.125420e-05)
3786          	(-1.773659e-02 2.114879e-02 -3.239286e-02)	(-1.777071e-02 2.111773e-02 -3.233153e-02)	(3.411873e-05 3.106656e-05 -6.132668e-05)
3787          	(-1.772014e-02 2.114609e-02 -3.238022e-02)	(-1.775432e-02 2.111498e-02 -3.231883e-02)	(3.417763e-05 3.110905e-05 -6.138770e-05)
3788          	(-1.770651e-02 2.114433e-02 -3.236409e-02)	(-1.774075e-02 2.111317e-02 -3.230264e-02)	(3.423745e-05 3.115690e-05 -6.144821e-05)
3789          	(-1.769158e-02 2.114174e-02 -3.234953e-02)	(-1.772588e-02 2.111053e-02 -3.228803e-02)	(3.429651e-05 3.120574e-05 -6.150408e-05)
3790          	(-1.767042e-02 2.113586e-02 -3.234028e-02)	(-1.770478e-02 2.110460e-02 -3.227872e-02)	(3.435701e-05 3.125635e-05 -6.156281e-05)
3791          	(-1.760103e-02 2.108536e-02 -3.232143e-02)	(-1.763545e-02 2.105406e-02 -3.225980e-02)	(3.441808e-05 3.129924e-05 -6.162753e-05)
3792          	(-1.758197e-02 2.108222e-02 -3.230219e-02)	(-1.761645e-02 2.105086e-02 -3.224051e-02)	(3.448395e-05 3.135298e-05 -6.168252e-05)
3793          	(-1.756257e-02 2.107858e-02 -3.228138e-02)	(-1.759713e-02 2.104717e-02 -3.221964e-02)	(3.455221e-05 3.141397e-05 -6.174254e-05)
3794          	(-1.749350e-02 2.103364e-02 -3.223112e-02)	(-1.752813e-02 2.100216e-02 -3.216931e-02)	(3.462757e-05 3.147974e-05 -6.180168e-05)
3795          	(-1.748086e-02 2.103469e-02 -3.221009e-02)	(-1.751557e-02 2.100313e-02 -3.214824e-02)	(3.470586e-05 3.155644e-05 -6.185222e-05)
3796          	(-1.746920e-02 2.103575e-02 -3.219465e-02)	(-1.750398e-02 2.100411e-02 -3.213274e-02)	(3.478618e-05 3.164087e-05 -6.191412e-05)
3797          	(-1.744699e-02 2.107605e-02 -3.218849e-02)	(-1.748188e-02 2.104428e-02 -3.212651e-02)	(3.489124e-05 3.176581e-05 -6.198375e-05)
3798          	(-1.744668e-02 2.107830e-02 -3.218726e-02)	(-1.748167e-02 2.104641e-02 -3.212521e-02)	(3.498739e-05 3.188483e-05 -6.205259e-05)
3799          	(-1.744634e-02 2.107994e-02 -3.219401e-02)	(-1.748142e-02 2.104795e-02 -3.213189e-02)	(3.507603e-05 3.199023e-05 -6.211828e-05)
3800          	(-1.744390e-02 2.108050e-02 -3.220764e-02)	(-1.747906e-02 2.104841e-02 -3.214546e-02)	(3.516174e-05 3.208908e-05 -6.218314e-05)
3801          	(-1.743773e-02 2.107958e-02 -3.222618e-02)	(-1.747298e-02 2.104740e-02 -3.216394e-02)	(3.524428e-05 3.218147e-05 -6.224635e-05)
3802          	(-1.742672e-02 2.107673e-02 -3.224651e-02)	(-1.746204e-02 2.104445e-02 -3.218419e-02)	(3.532712e-05 3.227264e-05 -6.231046e-05)
3803          	(-1.736072e-02 2.103766e-02 -3.226432e-02)	(-1.739613e-02 2.100530e-02 -3.220193e-02)	(3.541378e-05 3.235930e-05 -6.238847e-05)
3804          	(-1.735135e-02 2.103561e-02 -3.226742e-02)	(-1.738685e-02 2.100316e-02 -3.220497e-02)	(3.550090e-05 3.245221e-05 -6.245082e-05)
3805          	(-1.734115e-02 2.103227e-02 -3.226635e-02)	(-1.737673e-02 2.099973e-02 -3.220384e-02)	(3.558502e-05 3.254535e-05 -6.250826e-05)
3806          	(-1.727313e-02 2.098577e-02 -3.222833e-02)	(-1.730880e-02 2.095313e-02 -3.216576e-02)	(3.567273e-05 3.263630e-05 -6.256349e-05)
3807          	(-1.726799e-02 2.098410e-02 -3.222169e-02)	(-1.730375e-02 2.095137e-02 -3.215909e-02)	(3.575694e-05 3.273088e-05 -6.259711e-05)
3808          	(-1.725934e-02 2.098084e-02 -3.221809e-02)	(-1.729517e-02 2.094802e-02 -3.215546e-02)	(3.583830e-05 3.282654e-05 -6.263262e-05)