# Moment bins 
# bins        : 20
# start       : -1.974731e-01
# end         : 1.975127e-01
# delta       : 1.974929e-02
# direction   : (1.000000e+00 0.000000e+00 0.000000e+00)
# x co-ords  :	-1.777238e-01	-1.579745e-01	-1.382252e-01	-1.184759e-01	-9.872666e-02	-7.897737e-02	-5.922808e-02	-3.947880e-02	-1.972951e-02	1.978085e-05	1.976907e-02	3.951836e-02	5.926765e-02	7.901693e-02	9.876622e-02	1.185155e-01	1.382648e-01	1.580141e-01	1.777634e-01	1.975127e-01
# y co-ords  :	-0.000000e+00	-0.000000e+00	-0.000000e+00	-0.000000e+00	-0.000000e+00	-0.000000e+00	-0.000000e+00	-0.000000e+00	-0.000000e+00	0.000000e+00	0.000000e+00	0.000000e+00	0.000000e+00	0.000000e+00	0.000000e+00	0.000000e+00	0.000000e+00	0.000000e+00	0.000000e+00	0.000000e+00
# z co-ords  :	-0.000000e+00	-0.000000e+00	-0.000000e+00	-0.000000e+00	-0.000000e+00	-0.000000e+00	-0.000000e+00	-0.000000e+00	-0.000000e+00	0.000000e+00	0.000000e+00	0.000000e+00	0.000000e+00	0.000000e+00	0.000000e+00	0.000000e+00	0.000000e+00	0.000000e+00	0.000000e+00	0.000000e+00
#
# Time        	0:(total_x total_y total_z)	0:(pressure_x pressure_y pressure_z)	0:(viscous_x viscous_y viscous_z)	1:(total_x total_y total_z)	1:(pressure_x pressure_y pressure_z)	1:(viscous_x viscous_y viscous_z)	2:(total_x total_y total_z)	2:(pressure_x pressure_y pressure_z)	2:(viscous_x viscous_y viscous_z)	3:(total_x total_y total_z)	3:(pressure_x pressure_y pressure_z)	3:(viscous_x viscous_y viscous_z)	4:(total_x total_y total_z)	4:(pressure_x pressure_y pressure_z)	4:(viscous_x viscous_y viscous_z)	5:(total_x total_y total_z)	5:(pressure_x pressure_y pressure_z)	5:(viscous_x viscous_y viscous_z)	6:(total_x total_y total_z)	6:(pressure_x pressure_y pressure_z)	6:(viscous_x viscous_y viscous_z)	7:(total_x total_y total_z)	7:(pressure_x pressure_y pressure_z)	7:(viscous_x viscous_y viscous_z)	8:(total_x total_y total_z)	8:(pressure_x pressure_y pressure_z)	8:(viscous_x viscous_y viscous_z)	9:(total_x total_y total_z)	9:(pressure_x pressure_y pressure_z)	9:(viscous_x viscous_y viscous_z)	10:(total_x total_y total_z)	10:(pressure_x pressure_y pressure_z)	10:(viscous_x viscous_y viscous_z)	11:(total_x total_y total_z)	11:(pressure_x pressure_y pressure_z)	11:(viscous_x viscous_y viscous_z)	12:(total_x total_y total_z)	12:(pressure_x pressure_y pressure_z)	12:(viscous_x viscous_y viscous_z)	13:(total_x total_y total_z)	13:(pressure_x pressure_y pressure_z)	13:(viscous_x viscous_y viscous_z)	14:(total_x total_y total_z)	14:(pressure_x pressure_y pressure_z)	14:(viscous_x viscous_y viscous_z)	15:(total_x total_y total_z)	15:(pressure_x pressure_y pressure_z)	15:(viscous_x viscous_y viscous_z)	16:(total_x total_y total_z)	16:(pressure_x pressure_y pressure_z)	16:(viscous_x viscous_y viscous_z)	17:(total_x total_y total_z)	17:(pressure_x pressure_y pressure_z)	17:(viscous_x viscous_y viscous_z)	18:(total_x total_y total_z)	18:(pressure_x pressure_y pressure_z)	18:(viscous_x viscous_y viscous_z)	19:(total_x total_y total_z)	19:(pressure_x pressure_y pressure_z)	19:(viscous_x viscous_y viscous_z)
3601          	(-1.067544e+00 -5.138691e+00 2.209341e+01)	(-1.067508e+00 -5.138647e+00 2.209346e+01)	(-3.628660e-05 -4.383809e-05 -4.650436e-05)	(-4.265498e+00 -1.112778e+01 3.274346e+01)	(-4.265443e+00 -1.112773e+01 3.274359e+01)	(-5.572536e-05 -5.403540e-05 -1.281722e-04)	(-7.455024e+00 -1.492588e+01 2.865826e+01)	(-7.454968e+00 -1.492583e+01 2.865839e+01)	(-5.613229e-05 -5.545650e-05 -1.237824e-04)	(-1.023413e+01 -1.822629e+01 2.451331e+01)	(-1.023407e+01 -1.822623e+01 2.451343e+01)	(-5.532721e-05 -5.524127e-05 -1.198582e-04)	(-1.253352e+01 -2.098076e+01 2.044366e+01)	(-1.253347e+01 -2.098071e+01 2.044378e+01)	(-5.407124e-05 -5.442900e-05 -1.161872e-04)	(-1.443286e+01 -2.322539e+01 1.630677e+01)	(-1.443281e+01 -2.322534e+01 1.630688e+01)	(-5.253726e-05 -5.327262e-05 -1.126943e-04)	(-1.592900e+01 -2.500079e+01 1.218559e+01)	(-1.592895e+01 -2.500073e+01 1.218570e+01)	(-5.072059e-05 -5.179453e-05 -1.092739e-04)	(-1.697477e+01 -2.625185e+01 8.115934e+00)	(-1.697472e+01 -2.625180e+01 8.116039e+00)	(-4.859716e-05 -5.000812e-05 -1.058683e-04)	(-1.761140e+01 -2.700910e+01 4.011630e+00)	(-1.761136e+01 -2.700906e+01 4.011733e+00)	(-4.607529e-05 -4.782831e-05 -1.024135e-04)	(-1.781163e+01 -2.726042e+01 -8.979961e-02)	(-1.781159e+01 -2.726037e+01 -8.970074e-02)	(-4.306649e-05 -4.518684e-05 -9.887059e-05)	(-1.761819e+01 -2.700547e+01 -4.172447e+00)	(-1.761815e+01 -2.700543e+01 -4.172352e+00)	(-3.947324e-05 -4.198798e-05 -9.523270e-05)	(-1.697800e+01 -2.624201e+01 -8.271204e+00)	(-1.697797e+01 -2.624197e+01 -8.271113e+00)	(-3.513441e-05 -3.805172e-05 -9.140731e-05)	(-1.593014e+01 -2.499408e+01 -1.235551e+01)	(-1.593011e+01 -2.499404e+01 -1.235543e+01)	(-2.985934e-05 -3.320010e-05 -8.743487e-05)	(-1.444488e+01 -2.322290e+01 -1.645449e+01)	(-1.444486e+01 -2.322288e+01 -1.645441e+01)	(-2.342841e-05 -2.716707e-05 -8.323965e-05)	(-1.254886e+01 -2.096641e+01 -2.056832e+01)	(-1.254884e+01 -2.096639e+01 -2.056824e+01)	(-1.556882e-05 -1.965469e-05 -7.881058e-05)	(-1.024228e+01 -1.820674e+01 -2.461953e+01)	(-1.024228e+01 -1.820673e+01 -2.461945e+01)	(-5.826162e-06 -1.017131e-05 -7.406559e-05)	(-7.463788e+00 -1.490035e+01 -2.873416e+01)	(-7.463795e+00 -1.490035e+01 -2.873409e+01)	(6.524877e-06 2.137986e-06 -6.845125e-05)	(-4.268264e+00 -1.109937e+01 -3.284130e+01)	(-4.268287e+00 -1.109939e+01 -3.284124e+01)	(2.296865e-05 1.905371e-05 -6.039825e-05)	(-1.058787e+00 -5.083944e+00 -2.210329e+01)	(-1.058820e+00 -5.083973e+00 -2.210323e+01)	(3.262273e-05 2.936691e-05 -5.509805e-05)	(-1.765958e-02 2.122335e-02 -3.227250e-02)	(-1.769273e-02 2.119401e-02 -3.221253e-02)	(3.314992e-05 2.933778e-05 -5.997777e-05)
3602          	(-1.067530e+00 -5.138631e+00 2.209317e+01)	(-1.067493e+00 -5.138587e+00 2.209321e+01)	(-3.625991e-05 -4.382228e-05 -4.644956e-05)	(-4.265433e+00 -1.112765e+01 3.274317e+01)	(-4.265377e+00 -1.112760e+01 3.274330e+01)	(-5.569952e-05 -5.402275e-05 -1.280837e-04)	(-7.454904e+00 -1.492571e+01 2.865815e+01)	(-7.454848e+00 -1.492566e+01 2.865827e+01)	(-5.609903e-05 -5.543261e-05 -1.236900e-04)	(-1.023396e+01 -1.822608e+01 2.451336e+01)	(-1.023390e+01 -1.822603e+01 2.451348e+01)	(-5.528437e-05 -5.520454e-05 -1.197675e-04)	(-1.253331e+01 -2.098053e+01 2.044385e+01)	(-1.253326e+01 -2.098048e+01 2.044396e+01)	(-5.401981e-05 -5.438107e-05 -1.160982e-04)	(-1.443262e+01 -2.322514e+01 1.630709e+01)	(-1.443256e+01 -2.322508e+01 1.630720e+01)	(-5.247833e-05 -5.321475e-05 -1.126073e-04)	(-1.592872e+01 -2.500052e+01 1.218602e+01)	(-1.592867e+01 -2.500047e+01 1.218612e+01)	(-5.065412e-05 -5.172681e-05 -1.091891e-04)	(-1.697447e+01 -2.625158e+01 8.116453e+00)	(-1.697442e+01 -2.625153e+01 8.116559e+00)	(-4.852405e-05 -4.993180e-05 -1.057851e-04)	(-1.761108e+01 -2.700884e+01 4.012225e+00)	(-1.761104e+01 -2.700879e+01 4.012328e+00)	(-4.599547e-05 -4.774372e-05 -1.023316e-04)	(-1.781129e+01 -2.726016e+01 -8.914703e-02)	(-1.781125e+01 -2.726011e+01 -8.904824e-02)	(-4.297890e-05 -4.509345e-05 -9.878973e-05)	(-1.761784e+01 -2.700522e+01 -4.171756e+00)	(-1.761780e+01 -2.700518e+01 -4.171661e+00)	(-3.937738e-05 -4.188571e-05 -9.515485e-05)	(-1.697765e+01 -2.624178e+01 -8.270492e+00)	(-1.697761e+01 -2.624174e+01 -8.270400e+00)	(-3.503051e-05 -3.794049e-05 -9.133301e-05)	(-1.592978e+01 -2.499387e+01 -1.235480e+01)	(-1.592975e+01 -2.499384e+01 -1.235471e+01)	(-2.974746e-05 -3.307980e-05 -8.736402e-05)	(-1.444453e+01 -2.322273e+01 -1.645379e+01)	(-1.444451e+01 -2.322270e+01 -1.645371e+01)	(-2.330710e-05 -2.703563e-05 -8.317511e-05)	(-1.254851e+01 -2.096627e+01 -2.056765e+01)	(-1.254850e+01 -2.096625e+01 -2.056757e+01)	(-1.543571e-05 -1.950951e-05 -7.875725e-05)	(-1.024195e+01 -1.820663e+01 -2.461891e+01)	(-1.024194e+01 -1.820662e+01 -2.461883e+01)	(-5.677787e-06 -1.000774e-05 -7.402708e-05)	(-7.463473e+00 -1.490028e+01 -2.873359e+01)	(-7.463479e+00 -1.490029e+01 -2.873352e+01)	(6.692708e-06 2.324967e-06 -6.843416e-05)	(-4.267968e+00 -1.109934e+01 -3.284079e+01)	(-4.267991e+00 -1.109936e+01 -3.284073e+01)	(2.316167e-05 1.927141e-05 -6.041389e-05)	(-1.058513e+00 -5.083975e+00 -2.210293e+01)	(-1.058546e+00 -5.084005e+00 -2.210288e+01)	(3.284681e-05 2.962616e-05 -5.512756e-05)	(-1.739191e-02 2.114717e-02 -3.213160e-02)	(-1.742534e-02 2.111756e-02 -3.207124e-02)	(3.342417e-05 2.960922e-05 -6.035645e-05)
3603          	(-1.067521e+00 -5.138598e+00 2.209304e+01)	(-1.067484e+00 -5.138554e+00 2.209309e+01)	(-3.622052e-05 -4.379440e-05 -4.637568e-05)	(-4.265395e+00 -1.112758e+01 3.274303e+01)	(-4.265340e+00 -1.112752e+01 3.274316e+01)	(-5.565105e-05 -5.399341e-05 -1.279276e-04)	(-7.454836e+00 -1.492562e+01 2.865812e+01)	(-7.454780e+00 -1.492556e+01 2.865824e+01)	(-5.604499e-05 -5.539434e-05 -1.235236e-04)	(-1.023386e+01 -1.822597e+01 2.451343e+01)	(-1.023381e+01 -1.822592e+01 2.451355e+01)	(-5.522597e-05 -5.515895e-05 -1.195979e-04)	(-1.253319e+01 -2.098041e+01 2.044402e+01)	(-1.253314e+01 -2.098036e+01 2.044414e+01)	(-5.395616e-05 -5.432768e-05 -1.159278e-04)	(-1.443247e+01 -2.322501e+01 1.630735e+01)	(-1.443242e+01 -2.322495e+01 1.630746e+01)	(-5.240902e-05 -5.315330e-05 -1.124374e-04)	(-1.592856e+01 -2.500039e+01 1.218636e+01)	(-1.592851e+01 -2.500033e+01 1.218646e+01)	(-5.057929e-05 -5.165742e-05 -1.090202e-04)	(-1.697429e+01 -2.625144e+01 8.116856e+00)	(-1.697424e+01 -2.625139e+01 8.116962e+00)	(-4.844359e-05 -4.985473e-05 -1.056171e-04)	(-1.761088e+01 -2.700870e+01 4.012678e+00)	(-1.761084e+01 -2.700866e+01 4.012780e+00)	(-4.590884e-05 -4.765867e-05 -1.021647e-04)	(-1.781108e+01 -2.726003e+01 -8.865940e-02)	(-1.781104e+01 -2.725999e+01 -8.856077e-02)	(-4.288477e-05 -4.499970e-05 -9.862458e-05)	(-1.761762e+01 -2.700511e+01 -4.171247e+00)	(-1.761759e+01 -2.700507e+01 -4.171152e+00)	(-3.927502e-05 -4.178278e-05 -9.499344e-05)	(-1.697742e+01 -2.624167e+01 -8.269976e+00)	(-1.697739e+01 -2.624164e+01 -8.269885e+00)	(-3.491953e-05 -3.782773e-05 -9.117688e-05)	(-1.592956e+01 -2.499378e+01 -1.235429e+01)	(-1.592953e+01 -2.499375e+01 -1.235420e+01)	(-2.962751e-05 -3.295673e-05 -8.721429e-05)	(-1.444430e+01 -2.322266e+01 -1.645330e+01)	(-1.444428e+01 -2.322263e+01 -1.645322e+01)	(-2.317658e-05 -2.690002e-05 -8.303358e-05)	(-1.254829e+01 -2.096622e+01 -2.056719e+01)	(-1.254827e+01 -2.096620e+01 -2.056711e+01)	(-1.529255e-05 -1.935887e-05 -7.862851e-05)	(-1.024173e+01 -1.820661e+01 -2.461848e+01)	(-1.024173e+01 -1.820660e+01 -2.461840e+01)	(-5.519452e-06 -9.838599e-06 -7.391645e-05)	(-7.463265e+00 -1.490029e+01 -2.873320e+01)	(-7.463272e+00 -1.490029e+01 -2.873313e+01)	(6.870671e-06 2.518220e-06 -6.834754e-05)	(-4.267774e+00 -1.109937e+01 -3.284044e+01)	(-4.267797e+00 -1.109939e+01 -3.284037e+01)	(2.336478e-05 1.949555e-05 -6.036345e-05)	(-1.058334e+00 -5.084044e+00 -2.210268e+01)	(-1.058367e+00 -5.084074e+00 -2.210262e+01)	(3.307978e-05 2.988709e-05 -5.512194e-05)	(-1.721794e-02 2.104775e-02 -3.201932e-02)	(-1.725165e-02 2.101786e-02 -3.195863e-02)	(3.370965e-05 2.988822e-05 -6.068846e-05)
3604          	(-1.067520e+00 -5.138597e+00 2.209305e+01)	(-1.067483e+00 -5.138554e+00 2.209309e+01)	(-3.617787e-05 -4.375777e-05 -4.632879e-05)	(-4.265393e+00 -1.112758e+01 3.274304e+01)	(-4.265337e+00 -1.112752e+01 3.274316e+01)	(-5.560046e-05 -5.395097e-05 -1.278385e-04)	(-7.454833e+00 -1.492562e+01 2.865813e+01)	(-7.454777e+00 -1.492556e+01 2.865826e+01)	(-5.598997e-05 -5.534559e-05 -1.234182e-04)	(-1.023386e+01 -1.822597e+01 2.451346e+01)	(-1.023380e+01 -1.822592e+01 2.451358e+01)	(-5.516838e-05 -5.510613e-05 -1.194833e-04)	(-1.253319e+01 -2.098041e+01 2.044406e+01)	(-1.253313e+01 -2.098036e+01 2.044417e+01)	(-5.389466e-05 -5.426958e-05 -1.158078e-04)	(-1.443246e+01 -2.322501e+01 1.630739e+01)	(-1.443241e+01 -2.322495e+01 1.630750e+01)	(-5.234344e-05 -5.308983e-05 -1.123146e-04)	(-1.592855e+01 -2.500039e+01 1.218640e+01)	(-1.592850e+01 -2.500033e+01 1.218651e+01)	(-5.051064e-05 -5.158968e-05 -1.088955e-04)	(-1.697428e+01 -2.625144e+01 8.116907e+00)	(-1.697423e+01 -2.625139e+01 8.117013e+00)	(-4.837138e-05 -4.978226e-05 -1.054920e-04)	(-1.761087e+01 -2.700870e+01 4.012732e+00)	(-1.761083e+01 -2.700866e+01 4.012834e+00)	(-4.583251e-05 -4.758096e-05 -1.020402e-04)	(-1.781107e+01 -2.726003e+01 -8.860255e-02)	(-1.781103e+01 -2.725999e+01 -8.850405e-02)	(-4.280314e-05 -4.491611e-05 -9.850094e-05)	(-1.761761e+01 -2.700511e+01 -4.171189e+00)	(-1.761757e+01 -2.700507e+01 -4.171094e+00)	(-3.918694e-05 -4.169223e-05 -9.487253e-05)	(-1.697741e+01 -2.624168e+01 -8.269916e+00)	(-1.697738e+01 -2.624164e+01 -8.269825e+00)	(-3.482467e-05 -3.772949e-05 -9.105987e-05)	(-1.592954e+01 -2.499379e+01 -1.235423e+01)	(-1.592951e+01 -2.499375e+01 -1.235414e+01)	(-2.952570e-05 -3.285064e-05 -8.710269e-05)	(-1.444429e+01 -2.322266e+01 -1.645324e+01)	(-1.444427e+01 -2.322263e+01 -1.645316e+01)	(-2.306599e-05 -2.678368e-05 -8.292870e-05)	(-1.254828e+01 -2.096623e+01 -2.056712e+01)	(-1.254826e+01 -2.096621e+01 -2.056704e+01)	(-1.517098e-05 -1.922967e-05 -7.853459e-05)	(-1.024172e+01 -1.820662e+01 -2.461841e+01)	(-1.024172e+01 -1.820661e+01 -2.461834e+01)	(-5.384663e-06 -9.693416e-06 -7.383892e-05)	(-7.463258e+00 -1.490030e+01 -2.873313e+01)	(-7.463265e+00 -1.490030e+01 -2.873306e+01)	(7.023049e-06 2.685123e-06 -6.829163e-05)	(-4.267770e+00 -1.109939e+01 -3.284036e+01)	(-4.267793e+00 -1.109941e+01 -3.284030e+01)	(2.354009e-05 1.969078e-05 -6.034017e-05)	(-1.058333e+00 -5.084063e+00 -2.210261e+01)	(-1.058366e+00 -5.084093e+00 -2.210255e+01)	(3.328107e-05 3.011195e-05 -5.515437e-05)	(-1.721730e-02 2.102438e-02 -3.196936e-02)	(-1.725126e-02 2.099424e-02 -3.190838e-02)	(3.396072e-05 3.014060e-05 -6.097649e-05)
3605          	(-1.067519e+00 -5.138596e+00 2.209304e+01)	(-1.067482e+00 -5.138552e+00 2.209309e+01)	(-3.613442e-05 -4.371411e-05 -4.630972e-05)	(-4.265392e+00 -1.112757e+01 3.274303e+01)	(-4.265337e+00 -1.112752e+01 3.274316e+01)	(-5.554919e-05 -5.389757e-05 -1.278080e-04)	(-7.454833e+00 -1.492562e+01 2.865812e+01)	(-7.454777e+00 -1.492556e+01 2.865825e+01)	(-5.593247e-05 -5.528356e-05 -1.233782e-04)	(-1.023386e+01 -1.822597e+01 2.451344e+01)	(-1.023380e+01 -1.822592e+01 2.451356e+01)	(-5.510777e-05 -5.503959e-05 -1.194363e-04)	(-1.253319e+01 -2.098041e+01 2.044404e+01)	(-1.253313e+01 -2.098035e+01 2.044415e+01)	(-5.383058e-05 -5.419848e-05 -1.157559e-04)	(-1.443246e+01 -2.322500e+01 1.630737e+01)	(-1.443241e+01 -2.322495e+01 1.630748e+01)	(-5.227606e-05 -5.301457e-05 -1.122592e-04)	(-1.592855e+01 -2.500038e+01 1.218638e+01)	(-1.592850e+01 -2.500033e+01 1.218649e+01)	(-5.044098e-05 -5.151140e-05 -1.088370e-04)	(-1.697428e+01 -2.625144e+01 8.116884e+00)	(-1.697423e+01 -2.625139e+01 8.116989e+00)	(-4.829898e-05 -4.970036e-05 -1.054326e-04)	(-1.761087e+01 -2.700870e+01 4.012708e+00)	(-1.761083e+01 -2.700865e+01 4.012810e+00)	(-4.575671e-05 -4.749483e-05 -1.019806e-04)	(-1.781107e+01 -2.726003e+01 -8.862693e-02)	(-1.781103e+01 -2.725998e+01 -8.852849e-02)	(-4.272301e-05 -4.482524e-05 -9.844193e-05)	(-1.761762e+01 -2.700510e+01 -4.171212e+00)	(-1.761758e+01 -2.700506e+01 -4.171118e+00)	(-3.910154e-05 -4.159564e-05 -9.481551e-05)	(-1.697742e+01 -2.624167e+01 -8.269939e+00)	(-1.697738e+01 -2.624163e+01 -8.269848e+00)	(-3.473373e-05 -3.762666e-05 -9.100560e-05)	(-1.592955e+01 -2.499378e+01 -1.235425e+01)	(-1.592952e+01 -2.499375e+01 -1.235416e+01)	(-2.942908e-05 -3.274153e-05 -8.705245e-05)	(-1.444429e+01 -2.322266e+01 -1.645326e+01)	(-1.444427e+01 -2.322263e+01 -1.645317e+01)	(-2.296212e-05 -2.666616e-05 -8.288336e-05)	(-1.254829e+01 -2.096622e+01 -2.056713e+01)	(-1.254827e+01 -2.096620e+01 -2.056705e+01)	(-1.505800e-05 -1.910165e-05 -7.849774e-05)	(-1.024173e+01 -1.820661e+01 -2.461841e+01)	(-1.024173e+01 -1.820660e+01 -2.461834e+01)	(-5.260827e-06 -9.552697e-06 -7.381578e-05)	(-7.463268e+00 -1.490029e+01 -2.873312e+01)	(-7.463275e+00 -1.490030e+01 -2.873305e+01)	(7.161739e-06 2.844042e-06 -6.828628e-05)	(-4.267783e+00 -1.109938e+01 -3.284034e+01)	(-4.267807e+00 -1.109940e+01 -3.284028e+01)	(2.369760e-05 1.987260e-05 -6.036317e-05)	(-1.058350e+00 -5.084064e+00 -2.210259e+01)	(-1.058383e+00 -5.084094e+00 -2.210253e+01)	(3.345868e-05 3.031245e-05 -5.525069e-05)	(-1.723524e-02 2.101875e-02 -3.196596e-02)	(-1.726942e-02 2.098838e-02 -3.190471e-02)	(3.417990e-05 3.037011e-05 -6.125076e-05)
3606          	(-1.067518e+00 -5.138595e+00 2.209304e+01)	(-1.067482e+00 -5.138551e+00 2.209309e+01)	(-3.609530e-05 -4.366724e-05 -4.633352e-05)	(-4.265394e+00 -1.112757e+01 3.274302e+01)	(-4.265339e+00 -1.112752e+01 3.274315e+01)	(-5.549807e-05 -5.383318e-05 -1.278418e-04)	(-7.454838e+00 -1.492562e+01 2.865808e+01)	(-7.454782e+00 -1.492556e+01 2.865821e+01)	(-5.587401e-05 -5.520869e-05 -1.234125e-04)	(-1.023387e+01 -1.822597e+01 2.451338e+01)	(-1.023381e+01 -1.822591e+01 2.451350e+01)	(-5.504570e-05 -5.495961e-05 -1.194688e-04)	(-1.253320e+01 -2.098041e+01 2.044395e+01)	(-1.253315e+01 -2.098035e+01 2.044407e+01)	(-5.376560e-05 -5.411445e-05 -1.157866e-04)	(-1.443248e+01 -2.322500e+01 1.630726e+01)	(-1.443243e+01 -2.322495e+01 1.630738e+01)	(-5.220889e-05 -5.292751e-05 -1.122884e-04)	(-1.592857e+01 -2.500038e+01 1.218626e+01)	(-1.592852e+01 -2.500033e+01 1.218637e+01)	(-5.037261e-05 -5.142250e-05 -1.088648e-04)	(-1.697430e+01 -2.625143e+01 8.116752e+00)	(-1.697425e+01 -2.625138e+01 8.116857e+00)	(-4.822929e-05 -4.960925e-05 -1.054607e-04)	(-1.761090e+01 -2.700869e+01 4.012569e+00)	(-1.761086e+01 -2.700864e+01 4.012671e+00)	(-4.568500e-05 -4.740079e-05 -1.020094e-04)	(-1.781110e+01 -2.726001e+01 -8.876838e-02)	(-1.781106e+01 -2.725997e+01 -8.866991e-02)	(-4.264844e-05 -4.472787e-05 -9.847174e-05)	(-1.761765e+01 -2.700509e+01 -4.171351e+00)	(-1.761761e+01 -2.700505e+01 -4.171256e+00)	(-3.902329e-05 -4.149410e-05 -9.484682e-05)	(-1.697745e+01 -2.624165e+01 -8.270069e+00)	(-1.697742e+01 -2.624161e+01 -8.269978e+00)	(-3.465189e-05 -3.752082e-05 -9.103827e-05)	(-1.592959e+01 -2.499376e+01 -1.235436e+01)	(-1.592956e+01 -2.499373e+01 -1.235428e+01)	(-2.934373e-05 -3.263167e-05 -8.708689e-05)	(-1.444434e+01 -2.322263e+01 -1.645335e+01)	(-1.444432e+01 -2.322261e+01 -1.645327e+01)	(-2.287213e-05 -2.655064e-05 -8.291967e-05)	(-1.254834e+01 -2.096619e+01 -2.056720e+01)	(-1.254832e+01 -2.096617e+01 -2.056712e+01)	(-1.496182e-05 -1.897881e-05 -7.853845e-05)	(-1.024179e+01 -1.820658e+01 -2.461845e+01)	(-1.024178e+01 -1.820657e+01 -2.461838e+01)	(-5.156774e-06 -9.420778e-06 -7.386480e-05)	(-7.463330e+00 -1.490027e+01 -2.873313e+01)	(-7.463337e+00 -1.490027e+01 -2.873306e+01)	(7.276478e-06 2.989137e-06 -6.834564e-05)	(-4.267850e+00 -1.109936e+01 -3.284031e+01)	(-4.267874e+00 -1.109938e+01 -3.284025e+01)	(2.382522e-05 2.003313e-05 -6.044225e-05)	(-1.058423e+00 -5.084045e+00 -2.210256e+01)	(-1.058457e+00 -5.084075e+00 -2.210250e+01)	(3.359667e-05 3.047903e-05 -5.539780e-05)	(-1.731088e-02 2.103132e-02 -3.196210e-02)	(-1.734523e-02 2.100076e-02 -3.190062e-02)	(3.434658e-05 3.056325e-05 -6.148056e-05)
3607          	(-1.067520e+00 -5.138598e+00 2.209305e+01)	(-1.067483e+00 -5.138554e+00 2.209309e+01)	(-3.606920e-05 -4.362382e-05 -4.642859e-05)	(-4.265406e+00 -1.112758e+01 3.274298e+01)	(-4.265351e+00 -1.112753e+01 3.274311e+01)	(-5.546096e-05 -5.376730e-05 -1.279915e-04)	(-7.454864e+00 -1.492563e+01 2.865796e+01)	(-7.454808e+00 -1.492557e+01 2.865809e+01)	(-5.582743e-05 -5.512874e-05 -1.235771e-04)	(-1.023391e+01 -1.822598e+01 2.451318e+01)	(-1.023385e+01 -1.822592e+01 2.451330e+01)	(-5.499281e-05 -5.487116e-05 -1.196393e-04)	(-1.253325e+01 -2.098041e+01 2.044368e+01)	(-1.253320e+01 -2.098036e+01 2.044380e+01)	(-5.370863e-05 -5.402037e-05 -1.159603e-04)	(-1.443255e+01 -2.322501e+01 1.630693e+01)	(-1.443249e+01 -2.322495e+01 1.630704e+01)	(-5.214922e-05 -5.282959e-05 -1.124634e-04)	(-1.592865e+01 -2.500038e+01 1.218587e+01)	(-1.592860e+01 -2.500033e+01 1.218598e+01)	(-5.031091e-05 -5.132165e-05 -1.090405e-04)	(-1.697439e+01 -2.625143e+01 8.116326e+00)	(-1.697434e+01 -2.625138e+01 8.116431e+00)	(-4.816616e-05 -4.950578e-05 -1.056374e-04)	(-1.761100e+01 -2.700868e+01 4.012116e+00)	(-1.761095e+01 -2.700863e+01 4.012218e+00)	(-4.561994e-05 -4.729424e-05 -1.021867e-04)	(-1.781121e+01 -2.726000e+01 -8.923533e-02)	(-1.781117e+01 -2.725996e+01 -8.913668e-02)	(-4.258104e-05 -4.461815e-05 -9.864942e-05)	(-1.761777e+01 -2.700507e+01 -4.171820e+00)	(-1.761773e+01 -2.700503e+01 -4.171725e+00)	(-3.895332e-05 -4.138110e-05 -9.502469e-05)	(-1.697758e+01 -2.624162e+01 -8.270527e+00)	(-1.697754e+01 -2.624158e+01 -8.270436e+00)	(-3.457978e-05 -3.740494e-05 -9.121523e-05)	(-1.592972e+01 -2.499372e+01 -1.235480e+01)	(-1.592969e+01 -2.499369e+01 -1.235471e+01)	(-2.926987e-05 -3.251348e-05 -8.726193e-05)	(-1.444448e+01 -2.322258e+01 -1.645376e+01)	(-1.444445e+01 -2.322256e+01 -1.645367e+01)	(-2.279648e-05 -2.642979e-05 -8.309229e-05)	(-1.254848e+01 -2.096614e+01 -2.056757e+01)	(-1.254846e+01 -2.096612e+01 -2.056749e+01)	(-1.488361e-05 -1.885480e-05 -7.870990e-05)	(-1.024193e+01 -1.820652e+01 -2.461877e+01)	(-1.024193e+01 -1.820651e+01 -2.461870e+01)	(-5.074611e-06 -9.292368e-06 -7.403667e-05)	(-7.463477e+00 -1.490019e+01 -2.873341e+01)	(-7.463484e+00 -1.490020e+01 -2.873334e+01)	(7.363852e-06 3.124159e-06 -6.851751e-05)	(-4.267999e+00 -1.109928e+01 -3.284055e+01)	(-4.268023e+00 -1.109930e+01 -3.284049e+01)	(2.391825e-05 2.017470e-05 -6.062149e-05)	(-1.058573e+00 -5.083957e+00 -2.210275e+01)	(-1.058607e+00 -5.083988e+00 -2.210270e+01)	(3.369043e-05 3.061701e-05 -5.561540e-05)	(-1.746109e-02 2.112243e-02 -3.213313e-02)	(-1.749555e-02 2.109171e-02 -3.207145e-02)	(3.445561e-05 3.072545e-05 -6.167697e-05)
3608          	(-1.067529e+00 -5.138643e+00 2.209324e+01)	(-1.067493e+00 -5.138599e+00 2.209329e+01)	(-3.605388e-05 -4.358940e-05 -4.654273e-05)	(-4.265448e+00 -1.112768e+01 3.274325e+01)	(-4.265392e+00 -1.112763e+01 3.274338e+01)	(-5.543527e-05 -5.370915e-05 -1.281720e-04)	(-7.454938e+00 -1.492576e+01 2.865816e+01)	(-7.454883e+00 -1.492570e+01 2.865828e+01)	(-5.579449e-05 -5.505992e-05 -1.237659e-04)	(-1.023401e+01 -1.822614e+01 2.451330e+01)	(-1.023396e+01 -1.822608e+01 2.451342e+01)	(-5.495749e-05 -5.479852e-05 -1.198289e-04)	(-1.253338e+01 -2.098060e+01 2.044374e+01)	(-1.253333e+01 -2.098054e+01 2.044386e+01)	(-5.367120e-05 -5.394451e-05 -1.161511e-04)	(-1.443269e+01 -2.322521e+01 1.630693e+01)	(-1.443264e+01 -2.322515e+01 1.630705e+01)	(-5.211016e-05 -5.275144e-05 -1.126545e-04)	(-1.592881e+01 -2.500059e+01 1.218582e+01)	(-1.592876e+01 -2.500054e+01 1.218593e+01)	(-5.027125e-05 -5.124227e-05 -1.092314e-04)	(-1.697457e+01 -2.625165e+01 8.116230e+00)	(-1.697452e+01 -2.625160e+01 8.116336e+00)	(-4.812640e-05 -4.942549e-05 -1.058286e-04)	(-1.761119e+01 -2.700891e+01 4.011977e+00)	(-1.761114e+01 -2.700886e+01 4.012079e+00)	(-4.558010e-05 -4.721304e-05 -1.023773e-04)	(-1.781140e+01 -2.726023e+01 -8.941250e-02)	(-1.781136e+01 -2.726018e+01 -8.931366e-02)	(-4.254117e-05 -4.453652e-05 -9.883863e-05)	(-1.761796e+01 -2.700529e+01 -4.172030e+00)	(-1.761792e+01 -2.700525e+01 -4.171934e+00)	(-3.891324e-05 -4.129904e-05 -9.521222e-05)	(-1.697777e+01 -2.624183e+01 -8.270764e+00)	(-1.697774e+01 -2.624180e+01 -8.270673e+00)	(-3.454027e-05 -3.732323e-05 -9.139979e-05)	(-1.592991e+01 -2.499392e+01 -1.235506e+01)	(-1.592988e+01 -2.499389e+01 -1.235497e+01)	(-2.923149e-05 -3.243291e-05 -8.744247e-05)	(-1.444466e+01 -2.322277e+01 -1.645404e+01)	(-1.444463e+01 -2.322274e+01 -1.645395e+01)	(-2.275950e-05 -2.635043e-05 -8.326755e-05)	(-1.254865e+01 -2.096630e+01 -2.056786e+01)	(-1.254863e+01 -2.096628e+01 -2.056778e+01)	(-1.484837e-05 -1.877755e-05 -7.888051e-05)	(-1.024208e+01 -1.820666e+01 -2.461908e+01)	(-1.024208e+01 -1.820665e+01 -2.461900e+01)	(-5.041102e-06 -9.217554e-06 -7.420442e-05)	(-7.463612e+00 -1.490031e+01 -2.873372e+01)	(-7.463619e+00 -1.490031e+01 -2.873365e+01)	(7.395517e-06 3.196887e-06 -6.867972e-05)	(-4.268115e+00 -1.109936e+01 -3.284086e+01)	(-4.268139e+00 -1.109938e+01 -3.284080e+01)	(2.394721e-05 2.024373e-05 -6.078300e-05)	(-1.058671e+00 -5.084006e+00 -2.210299e+01)	(-1.058705e+00 -5.084037e+00 -2.210293e+01)	(3.371273e-05 3.067148e-05 -5.581644e-05)	(-1.755372e-02 2.110429e-02 -3.222579e-02)	(-1.758820e-02 2.107350e-02 -3.216397e-02)	(3.448114e-05 3.079366e-05 -6.181546e-05)
3609          	(-1.067535e+00 -5.138670e+00 2.209336e+01)	(-1.067499e+00 -5.138627e+00 2.209341e+01)	(-3.604855e-05 -4.356323e-05 -4.667671e-05)	(-4.265473e+00 -1.112774e+01 3.274341e+01)	(-4.265418e+00 -1.112769e+01 3.274354e+01)	(-5.541928e-05 -5.366265e-05 -1.283453e-04)	(-7.454985e+00 -1.492584e+01 2.865827e+01)	(-7.454929e+00 -1.492578e+01 2.865839e+01)	(-5.577145e-05 -5.500436e-05 -1.239370e-04)	(-1.023408e+01 -1.822624e+01 2.451337e+01)	(-1.023402e+01 -1.822618e+01 2.451349e+01)	(-5.493113e-05 -5.473851e-05 -1.199963e-04)	(-1.253346e+01 -2.098071e+01 2.044377e+01)	(-1.253341e+01 -2.098065e+01 2.044388e+01)	(-5.364195e-05 -5.388071e-05 -1.163178e-04)	(-1.443279e+01 -2.322533e+01 1.630692e+01)	(-1.443274e+01 -2.322528e+01 1.630703e+01)	(-5.207840e-05 -5.268468e-05 -1.128201e-04)	(-1.592892e+01 -2.500073e+01 1.218577e+01)	(-1.592887e+01 -2.500067e+01 1.218588e+01)	(-5.023775e-05 -5.117317e-05 -1.093958e-04)	(-1.697468e+01 -2.625179e+01 8.116149e+00)	(-1.697463e+01 -2.625174e+01 8.116255e+00)	(-4.809227e-05 -4.935500e-05 -1.059919e-04)	(-1.761131e+01 -2.700905e+01 4.011868e+00)	(-1.761126e+01 -2.700900e+01 4.011970e+00)	(-4.554568e-05 -4.714168e-05 -1.025386e-04)	(-1.781153e+01 -2.726036e+01 -8.954673e-02)	(-1.781148e+01 -2.726032e+01 -8.944774e-02)	(-4.250708e-05 -4.446516e-05 -9.899754e-05)	(-1.761808e+01 -2.700542e+01 -4.172186e+00)	(-1.761805e+01 -2.700538e+01 -4.172090e+00)	(-3.887985e-05 -4.122822e-05 -9.536858e-05)	(-1.697789e+01 -2.624196e+01 -8.270940e+00)	(-1.697786e+01 -2.624193e+01 -8.270848e+00)	(-3.450815e-05 -3.725357e-05 -9.155269e-05)	(-1.593003e+01 -2.499404e+01 -1.235525e+01)	(-1.593000e+01 -2.499401e+01 -1.235517e+01)	(-2.920122e-05 -3.236502e-05 -8.759097e-05)	(-1.444477e+01 -2.322288e+01 -1.645424e+01)	(-1.444475e+01 -2.322285e+01 -1.645416e+01)	(-2.273226e-05 -2.628566e-05 -8.341012e-05)	(-1.254875e+01 -2.096640e+01 -2.056808e+01)	(-1.254873e+01 -2.096638e+01 -2.056800e+01)	(-1.482522e-05 -1.871760e-05 -7.901638e-05)	(-1.024218e+01 -1.820674e+01 -2.461931e+01)	(-1.024217e+01 -1.820673e+01 -2.461924e+01)	(-5.022090e-06 -9.162774e-06 -7.433439e-05)	(-7.463692e+00 -1.490037e+01 -2.873396e+01)	(-7.463699e+00 -1.490038e+01 -2.873389e+01)	(7.408750e-06 3.244545e-06 -6.880112e-05)	(-4.268180e+00 -1.109941e+01 -3.284112e+01)	(-4.268204e+00 -1.109943e+01 -3.284106e+01)	(2.395302e-05 2.028184e-05 -6.089780e-05)	(-1.058723e+00 -5.084027e+00 -2.210320e+01)	(-1.058756e+00 -5.084058e+00 -2.210314e+01)	(3.370758e-05 3.069067e-05 -5.595888e-05)	(-1.760150e-02 2.110555e-02 -3.233553e-02)	(-1.763597e-02 2.107473e-02 -3.227364e-02)	(3.447296e-05 3.081714e-05 -6.189880e-05)
3610          	(-1.067539e+00 -5.138689e+00 2.209344e+01)	(-1.067503e+00 -5.138645e+00 2.209349e+01)	(-3.605120e-05 -4.354610e-05 -4.681293e-05)	(-4.265490e+00 -1.112778e+01 3.274352e+01)	(-4.265434e+00 -1.112773e+01 3.274365e+01)	(-5.541179e-05 -5.362724e-05 -1.285093e-04)	(-7.455014e+00 -1.492589e+01 2.865836e+01)	(-7.454958e+00 -1.492584e+01 2.865849e+01)	(-5.575774e-05 -5.496124e-05 -1.240957e-04)	(-1.023412e+01 -1.822630e+01 2.451344e+01)	(-1.023406e+01 -1.822625e+01 2.451356e+01)	(-5.491425e-05 -5.469099e-05 -1.201517e-04)	(-1.253351e+01 -2.098078e+01 2.044382e+01)	(-1.253346e+01 -2.098073e+01 2.044393e+01)	(-5.362205e-05 -5.382908e-05 -1.164730e-04)	(-1.443285e+01 -2.322541e+01 1.630695e+01)	(-1.443279e+01 -2.322536e+01 1.630706e+01)	(-5.205557e-05 -5.262943e-05 -1.129749e-04)	(-1.592898e+01 -2.500082e+01 1.218579e+01)	(-1.592893e+01 -2.500076e+01 1.218590e+01)	(-5.021249e-05 -5.111451e-05 -1.095503e-04)	(-1.697475e+01 -2.625189e+01 8.116142e+00)	(-1.697470e+01 -2.625184e+01 8.116248e+00)	(-4.806596e-05 -4.929424e-05 -1.061457e-04)	(-1.761138e+01 -2.700914e+01 4.011844e+00)	(-1.761133e+01 -2.700910e+01 4.011947e+00)	(-4.551873e-05 -4.707936e-05 -1.026906e-04)	(-1.781160e+01 -2.726046e+01 -8.958635e-02)	(-1.781156e+01 -2.726042e+01 -8.948720e-02)	(-4.248001e-05 -4.440189e-05 -9.914757e-05)	(-1.761816e+01 -2.700552e+01 -4.172241e+00)	(-1.761812e+01 -2.700548e+01 -4.172145e+00)	(-3.885334e-05 -4.116483e-05 -9.551626e-05)	(-1.697796e+01 -2.624206e+01 -8.271010e+00)	(-1.697793e+01 -2.624202e+01 -8.270918e+00)	(-3.448222e-05 -3.719007e-05 -9.169769e-05)	(-1.593009e+01 -2.499413e+01 -1.235534e+01)	(-1.593006e+01 -2.499410e+01 -1.235525e+01)	(-2.917596e-05 -3.230142e-05 -8.773224e-05)	(-1.444483e+01 -2.322296e+01 -1.645434e+01)	(-1.444481e+01 -2.322293e+01 -1.645426e+01)	(-2.270970e-05 -2.622459e-05 -8.354574e-05)	(-1.254880e+01 -2.096647e+01 -2.056819e+01)	(-1.254879e+01 -2.096645e+01 -2.056811e+01)	(-1.480716e-05 -1.866137e-05 -7.914360e-05)	(-1.024222e+01 -1.820680e+01 -2.461944e+01)	(-1.024222e+01 -1.820679e+01 -2.461936e+01)	(-5.008442e-06 -9.111338e-06 -7.445198e-05)	(-7.463727e+00 -1.490042e+01 -2.873411e+01)	(-7.463734e+00 -1.490043e+01 -2.873404e+01)	(7.415562e-06 3.287754e-06 -6.890646e-05)	(-4.268204e+00 -1.109945e+01 -3.284129e+01)	(-4.268228e+00 -1.109947e+01 -3.284123e+01)	(2.395117e-05 2.031439e-05 -6.099021e-05)	(-1.058735e+00 -5.084044e+00 -2.210333e+01)	(-1.058769e+00 -5.084075e+00 -2.210327e+01)	(3.369577e-05 3.070901e-05 -5.605213e-05)	(-1.761055e-02 2.110616e-02 -3.238692e-02)	(-1.764501e-02 2.107532e-02 -3.232497e-02)	(3.445792e-05 3.083719e-05 -6.194681e-05)