# Moment      
# CofR        : (0.000000e+00 0.000000e+00 0.000000e+00)
#
# Time        	(total_x total_y total_z)	(pressure_x pressure_y pressure_z)	(viscous_x viscous_y viscous_z)
1             	(-1.049733e-01 2.167416e-02 5.168453e-04)	(-1.049269e-01 2.034366e-02 5.168675e-04)	(-4.642776e-05 1.330493e-03 -2.220921e-08)
2             	(-9.181929e-02 1.276871e-02 -1.528958e-03)	(-9.176578e-02 1.164677e-02 -1.529580e-03)	(-5.350635e-05 1.121942e-03 6.218804e-07)
3             	(-5.781900e-02 -1.268357e-03 -6.752023e-03)	(-5.776880e-02 -2.233740e-03 -6.758996e-03)	(-5.020520e-05 9.653825e-04 6.973230e-06)
4             	(-2.215628e-02 -2.855708e-02 -1.341295e-02)	(-2.212496e-02 -2.937438e-02 -1.337664e-02)	(-3.131526e-05 8.173050e-04 -3.630977e-05)
5             	(1.000682e-02 -4.186551e-02 -2.060643e-02)	(1.002121e-02 -4.260675e-02 -2.057883e-02)	(-1.439182e-05 7.412347e-04 -2.760375e-05)
6             	(2.981263e-02 -3.693063e-02 -2.314725e-02)	(2.980490e-02 -3.765598e-02 -2.307047e-02)	(7.723745e-06 7.253453e-04 -7.678011e-05)
7             	(3.450348e-02 -2.503509e-02 -2.141311e-02)	(3.447628e-02 -2.579468e-02 -2.132827e-02)	(2.719461e-05 7.595864e-04 -8.483776e-05)
8             	(3.142008e-02 -9.014906e-03 -1.710510e-02)	(3.138551e-02 -9.789917e-03 -1.702511e-02)	(3.457131e-05 7.750112e-04 -7.999031e-05)
9             	(2.097836e-02 8.181358e-03 -9.534541e-03)	(2.095117e-02 7.427244e-03 -9.459215e-03)	(2.719204e-05 7.541145e-04 -7.532639e-05)
10            	(8.153541e-03 1.903405e-02 -2.022534e-03)	(8.138433e-03 1.833998e-02 -1.929388e-03)	(1.510817e-05 6.940744e-04 -9.314576e-05)
11            	(-3.751097e-03 2.064244e-02 3.569542e-03)	(-3.750174e-03 2.001981e-02 3.645264e-03)	(-9.229918e-07 6.226356e-04 -7.572170e-05)
12            	(-1.122873e-02 1.594388e-02 5.694941e-03)	(-1.121421e-02 1.539994e-02 5.752616e-03)	(-1.451964e-05 5.439436e-04 -5.767483e-05)
13            	(-1.305835e-02 9.500942e-03 4.731502e-03)	(-1.303724e-02 9.024406e-03 4.772415e-03)	(-2.110976e-05 4.765360e-04 -4.091354e-05)
14            	(-1.210210e-02 2.349887e-03 2.036277e-03)	(-1.208143e-02 1.916558e-03 2.070378e-03)	(-2.067806e-05 4.333289e-04 -3.410079e-05)
15            	(-8.949797e-03 -3.613376e-03 -2.100734e-03)	(-8.934082e-03 -4.026715e-03 -2.052597e-03)	(-1.571509e-05 4.133390e-04 -4.813723e-05)
16            	(-4.230588e-03 -7.077669e-03 -6.720055e-03)	(-4.220730e-03 -7.477004e-03 -6.656831e-03)	(-9.857828e-06 3.993351e-04 -6.322416e-05)
17            	(1.891365e-04 -7.271055e-03 -9.998127e-03)	(1.940342e-04 -7.663064e-03 -9.911568e-03)	(-4.897743e-06 3.920088e-04 -8.655895e-05)
18            	(2.807863e-03 -5.524290e-03 -1.093314e-02)	(2.810325e-03 -5.912044e-03 -1.082592e-02)	(-2.462238e-06 3.877536e-04 -1.072246e-04)
19            	(3.675809e-03 -3.052321e-03 -1.012969e-02)	(3.679169e-03 -3.435018e-03 -1.001103e-02)	(-3.359802e-06 3.826964e-04 -1.186544e-04)
20            	(3.307495e-03 -6.986825e-04 -8.387740e-03)	(3.314088e-03 -1.073917e-03 -8.271157e-03)	(-6.592959e-06 3.752341e-04 -1.165828e-04)
21            	(2.217217e-03 1.183837e-03 -6.084118e-03)	(2.228215e-03 8.189588e-04 -5.979575e-03)	(-1.099759e-05 3.648780e-04 -1.045431e-04)
22            	(7.389351e-04 2.138792e-03 -3.831327e-03)	(7.544817e-04 1.784619e-03 -3.742251e-03)	(-1.554661e-05 3.541724e-04 -8.907598e-05)
23            	(-7.020404e-04 2.192338e-03 -2.181034e-03)	(-6.828223e-04 1.847650e-03 -2.105636e-03)	(-1.921806e-05 3.446881e-04 -7.539784e-05)
24            	(-1.216219e-03 1.865875e-03 -1.791340e-03)	(-1.195077e-03 1.532151e-03 -1.725910e-03)	(-2.114179e-05 3.337238e-04 -6.542987e-05)
25            	(-1.987905e-03 1.171727e-03 -1.676060e-03)	(-1.964530e-03 8.486318e-04 -1.615270e-03)	(-2.337511e-05 3.230954e-04 -6.078971e-05)
26            	(-2.201520e-03 4.973256e-04 -2.206514e-03)	(-2.176609e-03 1.846440e-04 -2.145705e-03)	(-2.491142e-05 3.126816e-04 -6.080913e-05)
27            	(-2.016252e-03 8.740161e-05 -2.694413e-03)	(-1.990498e-03 -2.168475e-04 -2.630579e-03)	(-2.575386e-05 3.042491e-04 -6.383384e-05)
28            	(-1.551595e-03 -1.693743e-04 -3.701954e-03)	(-1.525617e-03 -4.652635e-04 -3.633585e-03)	(-2.597803e-05 2.958892e-04 -6.836949e-05)
29            	(-1.267177e-03 -1.778979e-04 -4.143514e-03)	(-1.240863e-03 -4.695925e-04 -4.071744e-03)	(-2.631400e-05 2.916945e-04 -7.177009e-05)
30            	(-1.013459e-03 -9.784608e-05 -4.484490e-03)	(-9.871595e-04 -3.882670e-04 -4.410350e-03)	(-2.629916e-05 2.904209e-04 -7.413968e-05)
31            	(-7.636065e-04 6.945452e-05 -4.730178e-03)	(-7.377707e-04 -2.218327e-04 -4.654683e-03)	(-2.583576e-05 2.912872e-04 -7.549508e-05)
32            	(-2.456292e-04 4.678946e-04 -4.951361e-03)	(-2.215509e-04 1.754026e-04 -4.874825e-03)	(-2.407837e-05 2.924919e-04 -7.653579e-05)
33            	(-1.411703e-04 6.674535e-04 -4.870948e-03)	(-1.186940e-04 3.744870e-04 -4.793703e-03)	(-2.247635e-05 2.929665e-04 -7.724486e-05)
34            	(-5.875250e-05 9.855263e-04 -4.591448e-03)	(-3.800992e-05 6.921864e-04 -4.513490e-03)	(-2.074257e-05 2.933399e-04 -7.795885e-05)
35            	(-1.652016e-04 9.343248e-04 -4.318717e-03)	(-1.458315e-04 6.416210e-04 -4.240006e-03)	(-1.937009e-05 2.927039e-04 -7.871035e-05)
36            	(-2.740409e-04 1.179013e-03 -3.897180e-03)	(-2.556755e-04 8.868491e-04 -3.817940e-03)	(-1.836540e-05 2.921637e-04 -7.924000e-05)
37            	(-3.830392e-04 1.183919e-03 -3.709534e-03)	(-3.655004e-04 8.924263e-04 -3.629736e-03)	(-1.753888e-05 2.914927e-04 -7.979820e-05)
38            	(-4.519506e-04 1.247467e-03 -3.581103e-03)	(-4.350422e-04 9.564080e-04 -3.500833e-03)	(-1.690838e-05 2.910587e-04 -8.026950e-05)
39            	(-5.268075e-04 1.325021e-03 -3.479091e-03)	(-5.103476e-04 1.033661e-03 -3.398163e-03)	(-1.645986e-05 2.913597e-04 -8.092830e-05)
40            	(-6.027463e-04 1.413952e-03 -3.416368e-03)	(-5.865846e-04 1.121280e-03 -3.334373e-03)	(-1.616170e-05 2.926727e-04 -8.199478e-05)
41            	(-6.718578e-04 1.504715e-03 -3.402235e-03)	(-6.558699e-04 1.209869e-03 -3.318682e-03)	(-1.598793e-05 2.948468e-04 -8.355349e-05)
42            	(-7.274178e-04 1.590849e-03 -3.437480e-03)	(-7.114997e-04 1.293383e-03 -3.351846e-03)	(-1.591807e-05 2.974662e-04 -8.563363e-05)
43            	(-8.379849e-04 1.617570e-03 -3.575055e-03)	(-8.218737e-04 1.317325e-03 -3.486751e-03)	(-1.611122e-05 3.002445e-04 -8.830433e-05)
44            	(-8.076440e-04 1.839739e-03 -3.713419e-03)	(-7.914172e-04 1.537387e-03 -3.622034e-03)	(-1.622673e-05 3.023524e-04 -9.138516e-05)
45            	(-7.715403e-04 1.874403e-03 -3.929507e-03)	(-7.553328e-04 1.570691e-03 -3.834858e-03)	(-1.620750e-05 3.037116e-04 -9.464895e-05)
46            	(-6.778923e-04 2.034081e-03 -4.111767e-03)	(-6.618415e-04 1.729932e-03 -4.013744e-03)	(-1.605086e-05 3.041482e-04 -9.802295e-05)
47            	(-5.830441e-04 2.120479e-03 -4.286057e-03)	(-5.672743e-04 1.816751e-03 -4.184652e-03)	(-1.576977e-05 3.037283e-04 -1.014047e-04)
48            	(-5.216548e-04 2.167990e-03 -4.397596e-03)	(-5.061719e-04 1.865259e-03 -4.293065e-03)	(-1.548290e-05 3.027302e-04 -1.045312e-04)
49            	(-4.572578e-04 2.225906e-03 -4.501278e-03)	(-4.420678e-04 1.924820e-03 -4.394014e-03)	(-1.518993e-05 3.010869e-04 -1.072637e-04)
50            	(-3.964354e-04 2.295478e-03 -4.592879e-03)	(-3.815242e-04 1.996632e-03 -4.483419e-03)	(-1.491119e-05 2.988451e-04 -1.094597e-04)
51            	(-3.439522e-04 2.374406e-03 -4.668683e-03)	(-3.292542e-04 2.078493e-03 -4.557674e-03)	(-1.469808e-05 2.959126e-04 -1.110087e-04)
52            	(-3.024844e-04 2.455862e-03 -4.725903e-03)	(-2.878836e-04 2.163619e-03 -4.614034e-03)	(-1.460080e-05 2.922434e-04 -1.118690e-04)
53            	(-2.721059e-04 2.537605e-03 -4.765331e-03)	(-2.574434e-04 2.249755e-03 -4.653223e-03)	(-1.466245e-05 2.878497e-04 -1.121080e-04)
54            	(-2.516684e-04 2.610145e-03 -4.791384e-03)	(-2.367653e-04 2.327362e-03 -4.679580e-03)	(-1.490311e-05 2.827823e-04 -1.118039e-04)
55            	(-2.405500e-04 2.670105e-03 -4.807041e-03)	(-2.252325e-04 2.392942e-03 -4.695988e-03)	(-1.531747e-05 2.771629e-04 -1.110531e-04)
56            	(-2.372575e-04 2.722143e-03 -4.817320e-03)	(-2.213761e-04 2.451000e-03 -4.707413e-03)	(-1.588141e-05 2.711428e-04 -1.099068e-04)
57            	(-2.424220e-04 2.757979e-03 -4.820532e-03)	(-2.258436e-04 2.493134e-03 -4.712125e-03)	(-1.657836e-05 2.648453e-04 -1.084073e-04)
58            	(-2.549750e-04 2.775478e-03 -4.815888e-03)	(-2.375942e-04 2.517031e-03 -4.709273e-03)	(-1.738084e-05 2.584472e-04 -1.066149e-04)
59            	(-2.733773e-04 2.772718e-03 -4.800189e-03)	(-2.551079e-04 2.520615e-03 -4.695586e-03)	(-1.826940e-05 2.521035e-04 -1.046036e-04)
60            	(-2.963135e-04 2.750929e-03 -4.771438e-03)	(-2.770773e-04 2.505008e-03 -4.668961e-03)	(-1.923616e-05 2.459215e-04 -1.024771e-04)
61            	(-3.217885e-04 2.713143e-03 -4.728000e-03)	(-3.015201e-04 2.473161e-03 -4.627674e-03)	(-2.026844e-05 2.399819e-04 -1.003261e-04)
62            	(-3.468225e-04 2.663312e-03 -4.668066e-03)	(-3.254698e-04 2.429003e-03 -4.569843e-03)	(-2.135276e-05 2.343093e-04 -9.822343e-05)
63            	(-3.697086e-04 2.597894e-03 -4.591802e-03)	(-3.472474e-04 2.368944e-03 -4.495566e-03)	(-2.246116e-05 2.289500e-04 -9.623672e-05)
64            	(-3.868533e-04 2.538525e-03 -4.500481e-03)	(-3.632734e-04 2.314621e-03 -4.406089e-03)	(-2.357990e-05 2.239033e-04 -9.439168e-05)
65            	(-3.966074e-04 2.492953e-03 -4.396381e-03)	(-3.719192e-04 2.273781e-03 -4.303665e-03)	(-2.468822e-05 2.191726e-04 -9.271576e-05)
66            	(-3.979083e-04 2.467769e-03 -4.282597e-03)	(-3.721515e-04 2.252973e-03 -4.191363e-03)	(-2.575678e-05 2.147961e-04 -9.123394e-05)
67            	(-3.874471e-04 2.477612e-03 -4.150382e-03)	(-3.607196e-04 2.266739e-03 -4.060512e-03)	(-2.672748e-05 2.108738e-04 -8.986970e-05)
68            	(-3.736278e-04 2.494892e-03 -4.025214e-03)	(-3.460695e-04 2.287404e-03 -3.936603e-03)	(-2.755826e-05 2.074883e-04 -8.861089e-05)
69            	(-3.467834e-04 2.556865e-03 -3.896058e-03)	(-3.185487e-04 2.352246e-03 -3.808563e-03)	(-2.823471e-05 2.046191e-04 -8.749461e-05)
70            	(-3.178862e-04 2.633852e-03 -3.781003e-03)	(-2.891211e-04 2.431601e-03 -3.694453e-03)	(-2.876505e-05 2.022504e-04 -8.654967e-05)
71            	(-2.905002e-04 2.717928e-03 -3.683677e-03)	(-2.613311e-04 2.517591e-03 -3.597876e-03)	(-2.916908e-05 2.003371e-04 -8.580106e-05)
72            	(-2.667557e-04 2.802555e-03 -3.604200e-03)	(-2.372856e-04 2.603744e-03 -3.518972e-03)	(-2.947007e-05 1.988110e-04 -8.522810e-05)
73            	(-2.510791e-04 2.869296e-03 -3.544969e-03)	(-2.213819e-04 2.671715e-03 -3.460188e-03)	(-2.969723e-05 1.975804e-04 -8.478142e-05)
74            	(-2.384911e-04 2.934119e-03 -3.492909e-03)	(-2.086217e-04 2.737547e-03 -3.408492e-03)	(-2.986948e-05 1.965727e-04 -8.441684e-05)
75            	(-2.295067e-04 2.994745e-03 -3.446346e-03)	(-1.994948e-04 2.799040e-03 -3.362265e-03)	(-3.001195e-05 1.957051e-04 -8.408069e-05)
76            	(-2.201970e-04 3.067994e-03 -3.399083e-03)	(-1.900446e-04 2.873123e-03 -3.315347e-03)	(-3.015235e-05 1.948705e-04 -8.373533e-05)
77            	(-2.150590e-04 3.133360e-03 -3.361903e-03)	(-1.847503e-04 2.939358e-03 -3.278546e-03)	(-3.030868e-05 1.940015e-04 -8.335713e-05)
78            	(-2.133715e-04 3.189121e-03 -3.334106e-03)	(-1.828910e-04 2.996025e-03 -3.251140e-03)	(-3.048050e-05 1.930953e-04 -8.296593e-05)
79            	(-2.143058e-04 3.239018e-03 -3.314323e-03)	(-1.836430e-04 3.046848e-03 -3.231740e-03)	(-3.066288e-05 1.921696e-04 -8.258323e-05)
80            	(-2.166726e-04 3.286597e-03 -3.301277e-03)	(-1.858250e-04 3.095340e-03 -3.219035e-03)	(-3.084757e-05 1.912573e-04 -8.224183e-05)
81            	(-2.201504e-04 3.329147e-03 -3.294695e-03)	(-1.891286e-04 3.138749e-03 -3.212712e-03)	(-3.102181e-05 1.903976e-04 -8.198218e-05)
82            	(-2.227997e-04 3.377233e-03 -3.292701e-03)	(-1.916216e-04 3.187601e-03 -3.210840e-03)	(-3.117815e-05 1.896323e-04 -8.186088e-05)
83            	(-2.238940e-04 3.431584e-03 -3.295656e-03)	(-1.925881e-04 3.242572e-03 -3.213721e-03)	(-3.130592e-05 1.890117e-04 -8.193493e-05)
84            	(-2.222933e-04 3.492608e-03 -3.303778e-03)	(-1.908941e-04 3.304051e-03 -3.221523e-03)	(-3.139921e-05 1.885565e-04 -8.225532e-05)
85            	(-2.187543e-04 3.558249e-03 -3.317397e-03)	(-1.873002e-04 3.369965e-03 -3.234541e-03)	(-3.145417e-05 1.882843e-04 -8.285580e-05)
86            	(-2.132309e-04 3.626916e-03 -3.336766e-03)	(-1.817641e-04 3.438718e-03 -3.253031e-03)	(-3.146672e-05 1.881981e-04 -8.373536e-05)
87            	(-2.058013e-04 3.696716e-03 -3.362069e-03)	(-1.743603e-04 3.508450e-03 -3.277181e-03)	(-3.144097e-05 1.882659e-04 -8.488804e-05)
88            	(-1.967734e-04 3.765582e-03 -3.393519e-03)	(-1.653931e-04 3.577121e-03 -3.307213e-03)	(-3.138028e-05 1.884611e-04 -8.630572e-05)
89            	(-1.864038e-04 3.831457e-03 -3.431061e-03)	(-1.551171e-04 3.642695e-03 -3.343076e-03)	(-3.128674e-05 1.887623e-04 -8.798490e-05)
90            	(-1.750653e-04 3.892534e-03 -3.474867e-03)	(-1.439010e-04 3.703400e-03 -3.384957e-03)	(-3.116431e-05 1.891344e-04 -8.991008e-05)
91            	(-1.629751e-04 3.947577e-03 -3.525243e-03)	(-1.319631e-04 3.758029e-03 -3.433193e-03)	(-3.101198e-05 1.895482e-04 -9.205014e-05)
92            	(-1.505405e-04 3.995543e-03 -3.582225e-03)	(-1.197127e-04 3.805547e-03 -3.487839e-03)	(-3.082779e-05 1.899963e-04 -9.438625e-05)
93            	(-1.371598e-04 4.038100e-03 -3.645653e-03)	(-1.065518e-04 3.847633e-03 -3.548761e-03)	(-3.060804e-05 1.904670e-04 -9.689162e-05)
94            	(-1.242849e-04 4.073037e-03 -3.714385e-03)	(-9.393120e-05 3.882072e-03 -3.614850e-03)	(-3.035365e-05 1.909652e-04 -9.953590e-05)
95            	(-1.122293e-04 4.100305e-03 -3.786882e-03)	(-8.216171e-05 3.908827e-03 -3.684609e-03)	(-3.006758e-05 1.914780e-04 -1.022733e-04)
96            	(-1.015106e-04 4.120613e-03 -3.861495e-03)	(-7.175476e-05 3.928625e-03 -3.756454e-03)	(-2.975589e-05 1.919885e-04 -1.050415e-04)
97            	(-9.290458e-05 4.133779e-03 -3.936073e-03)	(-6.347138e-05 3.941317e-03 -3.828289e-03)	(-2.943320e-05 1.924627e-04 -1.077839e-04)
98            	(-8.692952e-05 4.140209e-03 -4.008298e-03)	(-5.781468e-05 3.947324e-03 -3.897856e-03)	(-2.911485e-05 1.928848e-04 -1.104419e-04)
99            	(-8.396277e-05 4.139263e-03 -4.076108e-03)	(-5.515029e-05 3.946011e-03 -3.963159e-03)	(-2.881248e-05 1.932518e-04 -1.129494e-04)
100           	(-8.421891e-05 4.130930e-03 -4.137417e-03)	(-5.567120e-05 3.937403e-03 -4.022165e-03)	(-2.854771e-05 1.935271e-04 -1.152513e-04)
101           	(-8.759909e-05 4.116349e-03 -4.191223e-03)	(-5.926392e-05 3.922662e-03 -4.073932e-03)	(-2.833517e-05 1.936868e-04 -1.172910e-04)
102           	(-9.542013e-05 4.090408e-03 -4.235531e-03)	(-6.722973e-05 3.896704e-03 -4.116504e-03)	(-2.819040e-05 1.937044e-04 -1.190274e-04)
103           	(-1.062959e-04 4.058724e-03 -4.267691e-03)	(-7.816737e-05 3.865193e-03 -4.147267e-03)	(-2.812851e-05 1.935315e-04 -1.204240e-04)
104           	(-1.196505e-04 4.022761e-03 -4.286405e-03)	(-9.149284e-05 3.829621e-03 -4.164949e-03)	(-2.815770e-05 1.931400e-04 -1.214561e-04)
105           	(-1.342122e-04 3.985360e-03 -4.290773e-03)	(-1.059281e-04 3.792863e-03 -4.168659e-03)	(-2.828407e-05 1.924966e-04 -1.221143e-04)
106           	(-1.498707e-04 3.948073e-03 -4.281241e-03)	(-1.213654e-04 3.756484e-03 -4.158856e-03)	(-2.850531e-05 1.915895e-04 -1.223851e-04)
107           	(-1.671970e-04 3.908432e-03 -4.259201e-03)	(-1.383764e-04 3.718028e-03 -4.136941e-03)	(-2.882056e-05 1.904037e-04 -1.222598e-04)
108           	(-1.860633e-04 3.866642e-03 -4.226011e-03)	(-1.568361e-04 3.677698e-03 -4.104253e-03)	(-2.922718e-05 1.889438e-04 -1.217574e-04)
109           	(-2.083624e-04 3.815424e-03 -4.182200e-03)	(-1.786345e-04 3.628202e-03 -4.061296e-03)	(-2.972786e-05 1.872214e-04 -1.209038e-04)
110           	(-2.292010e-04 3.770675e-03 -4.132737e-03)	(-1.988925e-04 3.585417e-03 -4.012985e-03)	(-3.030848e-05 1.852578e-04 -1.197519e-04)
111           	(-2.501662e-04 3.725019e-03 -4.077870e-03)	(-2.192102e-04 3.541941e-03 -3.959543e-03)	(-3.095603e-05 1.830786e-04 -1.183270e-04)
112           	(-2.709218e-04 3.678879e-03 -4.019569e-03)	(-2.392716e-04 3.498154e-03 -3.902923e-03)	(-3.165023e-05 1.807252e-04 -1.166454e-04)
113           	(-2.909558e-04 3.632761e-03 -3.959848e-03)	(-2.585821e-04 3.454535e-03 -3.845117e-03)	(-3.237368e-05 1.782263e-04 -1.147311e-04)
114           	(-3.098750e-04 3.587313e-03 -3.900790e-03)	(-2.767654e-04 3.411700e-03 -3.788171e-03)	(-3.310960e-05 1.756122e-04 -1.126185e-04)
115           	(-3.273368e-04 3.543278e-03 -3.844078e-03)	(-2.934998e-04 3.370350e-03 -3.733729e-03)	(-3.383700e-05 1.729287e-04 -1.103483e-04)
116           	(-3.431008e-04 3.501437e-03 -3.791037e-03)	(-3.085641e-04 3.331220e-03 -3.683070e-03)	(-3.453669e-05 1.702165e-04 -1.079669e-04)
117           	(-3.564604e-04 3.463036e-03 -3.742319e-03)	(-3.212650e-04 3.295521e-03 -3.636776e-03)	(-3.519545e-05 1.675150e-04 -1.055429e-04)
118           	(-3.678296e-04 3.428789e-03 -3.698715e-03)	(-3.320211e-04 3.263933e-03 -3.595583e-03)	(-3.580850e-05 1.648562e-04 -1.031321e-04)
119           	(-3.770078e-04 3.399648e-03 -3.660194e-03)	(-3.406311e-04 3.237377e-03 -3.559394e-03)	(-3.637673e-05 1.622707e-04 -1.008002e-04)
120           	(-3.838119e-04 3.376264e-03 -3.626304e-03)	(-3.469121e-04 3.216472e-03 -3.527696e-03)	(-3.689978e-05 1.597916e-04 -9.860794e-05)
121           	(-3.880101e-04 3.359077e-03 -3.596838e-03)	(-3.506379e-04 3.201621e-03 -3.500249e-03)	(-3.737224e-05 1.574557e-04 -9.658932e-05)
122           	(-3.901237e-04 3.348643e-03 -3.571456e-03)	(-3.523335e-04 3.193332e-03 -3.476690e-03)	(-3.779017e-05 1.553113e-04 -9.476516e-05)
123           	(-3.902559e-04 3.344986e-03 -3.550260e-03)	(-3.521049e-04 3.191588e-03 -3.457105e-03)	(-3.815102e-05 1.533982e-04 -9.315552e-05)
124           	(-3.887095e-04 3.348214e-03 -3.533946e-03)	(-3.502532e-04 3.196485e-03 -3.442169e-03)	(-3.845634e-05 1.517293e-04 -9.177759e-05)
125           	(-3.857373e-04 3.357900e-03 -3.523499e-03)	(-3.470309e-04 3.207582e-03 -3.432863e-03)	(-3.870642e-05 1.503176e-04 -9.063634e-05)
126           	(-3.814579e-04 3.373860e-03 -3.520814e-03)	(-3.425554e-04 3.224697e-03 -3.431082e-03)	(-3.890250e-05 1.491632e-04 -8.973160e-05)
127           	(-3.762003e-04 3.394985e-03 -3.526863e-03)	(-3.371493e-04 3.246755e-03 -3.437796e-03)	(-3.905098e-05 1.482304e-04 -8.906653e-05)
128           	(-3.701348e-04 3.420081e-03 -3.542329e-03)	(-3.309776e-04 3.272599e-03 -3.453690e-03)	(-3.915718e-05 1.474825e-04 -8.863853e-05)
129           	(-3.625775e-04 3.448720e-03 -3.565950e-03)	(-3.233525e-04 3.301841e-03 -3.477511e-03)	(-3.922502e-05 1.468790e-04 -8.843867e-05)
130           	(-3.548995e-04 3.477893e-03 -3.594481e-03)	(-3.156346e-04 3.331508e-03 -3.506030e-03)	(-3.926495e-05 1.463857e-04 -8.845075e-05)
131           	(-3.476988e-04 3.505883e-03 -3.624066e-03)	(-3.084123e-04 3.359922e-03 -3.535414e-03)	(-3.928647e-05 1.459608e-04 -8.865192e-05)
132           	(-3.413763e-04 3.531507e-03 -3.652265e-03)	(-3.020785e-04 3.385934e-03 -3.563248e-03)	(-3.929780e-05 1.455733e-04 -8.901711e-05)
133           	(-3.357710e-04 3.554234e-03 -3.677472e-03)	(-2.964679e-04 3.409025e-03 -3.587947e-03)	(-3.930315e-05 1.452094e-04 -8.952493e-05)
134           	(-3.311510e-04 3.573344e-03 -3.698361e-03)	(-2.918470e-04 3.428467e-03 -3.608216e-03)	(-3.930402e-05 1.448776e-04 -9.014511e-05)
135           	(-3.273995e-04 3.589202e-03 -3.713590e-03)	(-2.880970e-04 3.444636e-03 -3.622757e-03)	(-3.930252e-05 1.445660e-04 -9.083314e-05)
136           	(-3.242236e-04 3.602085e-03 -3.723349e-03)	(-2.849232e-04 3.457829e-03 -3.631813e-03)	(-3.930044e-05 1.442557e-04 -9.153579e-05)
137           	(-3.214610e-04 3.612257e-03 -3.728237e-03)	(-2.821611e-04 3.468324e-03 -3.636034e-03)	(-3.929991e-05 1.439332e-04 -9.220335e-05)
138           	(-3.189858e-04 3.620001e-03 -3.728683e-03)	(-2.796835e-04 3.476409e-03 -3.635885e-03)	(-3.930237e-05 1.435919e-04 -9.279781e-05)
139           	(-3.166728e-04 3.625704e-03 -3.724875e-03)	(-2.773617e-04 3.482483e-03 -3.631578e-03)	(-3.931111e-05 1.432213e-04 -9.329633e-05)
140           	(-3.145436e-04 3.629644e-03 -3.716569e-03)	(-2.752113e-04 3.486832e-03 -3.622881e-03)	(-3.933236e-05 1.428126e-04 -9.368807e-05)
141           	(-3.127814e-04 3.631964e-03 -3.703409e-03)	(-2.734118e-04 3.489600e-03 -3.609454e-03)	(-3.936962e-05 1.423631e-04 -9.395441e-05)
142           	(-3.116000e-04 3.632660e-03 -3.685013e-03)	(-2.721716e-04 3.490792e-03 -3.590928e-03)	(-3.942840e-05 1.418687e-04 -9.408530e-05)
143           	(-3.111940e-04 3.631687e-03 -3.661498e-03)	(-2.716814e-04 3.490349e-03 -3.567416e-03)	(-3.951262e-05 1.413378e-04 -9.408231e-05)
144           	(-3.119017e-04 3.629053e-03 -3.632910e-03)	(-2.722754e-04 3.488273e-03 -3.538962e-03)	(-3.962625e-05 1.407807e-04 -9.394795e-05)
145           	(-3.139838e-04 3.624999e-03 -3.599933e-03)	(-2.742129e-04 3.484783e-03 -3.506246e-03)	(-3.977093e-05 1.402161e-04 -9.368739e-05)
146           	(-3.176098e-04 3.619868e-03 -3.563652e-03)	(-2.776652e-04 3.480203e-03 -3.470350e-03)	(-3.994456e-05 1.396653e-04 -9.330141e-05)
147           	(-3.228223e-04 3.614073e-03 -3.525310e-03)	(-2.826774e-04 3.474926e-03 -3.432509e-03)	(-4.014489e-05 1.391475e-04 -9.280128e-05)
148           	(-3.296186e-04 3.607994e-03 -3.485918e-03)	(-2.892494e-04 3.469318e-03 -3.393717e-03)	(-4.036914e-05 1.386759e-04 -9.220128e-05)
149           	(-3.377295e-04 3.601976e-03 -3.447118e-03)	(-2.971152e-04 3.463725e-03 -3.355600e-03)	(-4.061438e-05 1.382510e-04 -9.151887e-05)
150           	(-3.468116e-04 3.596186e-03 -3.410138e-03)	(-3.059355e-04 3.458319e-03 -3.319365e-03)	(-4.087603e-05 1.378668e-04 -9.077221e-05)
151           	(-3.562525e-04 3.590602e-03 -3.376000e-03)	(-3.151039e-04 3.453087e-03 -3.286013e-03)	(-4.114863e-05 1.375147e-04 -8.998701e-05)
152           	(-3.656908e-04 3.585284e-03 -3.345428e-03)	(-3.242652e-04 3.448088e-03 -3.256244e-03)	(-4.142565e-05 1.371957e-04 -8.918346e-05)
153           	(-3.746306e-04 3.580202e-03 -3.318731e-03)	(-3.329310e-04 3.443306e-03 -3.230357e-03)	(-4.169957e-05 1.368959e-04 -8.837447e-05)
154           	(-3.826387e-04 3.575436e-03 -3.295852e-03)	(-3.406743e-04 3.438826e-03 -3.208274e-03)	(-4.196443e-05 1.366093e-04 -8.757827e-05)
155           	(-3.893147e-04 3.571234e-03 -3.276640e-03)	(-3.471022e-04 3.434885e-03 -3.189834e-03)	(-4.221249e-05 1.363487e-04 -8.680592e-05)
156           	(-3.942918e-04 3.567942e-03 -3.260968e-03)	(-3.518555e-04 3.431808e-03 -3.174898e-03)	(-4.243633e-05 1.361340e-04 -8.607065e-05)
157           	(-3.972751e-04 3.565954e-03 -3.248739e-03)	(-3.546465e-04 3.429983e-03 -3.163362e-03)	(-4.262859e-05 1.359718e-04 -8.537763e-05)
158           	(-3.980711e-04 3.565655e-03 -3.239919e-03)	(-3.552877e-04 3.429782e-03 -3.155184e-03)	(-4.278331e-05 1.358724e-04 -8.473448e-05)
159           	(-3.965024e-04 3.567396e-03 -3.234393e-03)	(-3.536058e-04 3.431550e-03 -3.150239e-03)	(-4.289662e-05 1.358460e-04 -8.415402e-05)
160           	(-3.927310e-04 3.571467e-03 -3.232139e-03)	(-3.497646e-04 3.435557e-03 -3.148495e-03)	(-4.296639e-05 1.359103e-04 -8.364413e-05)
161           	(-3.870642e-04 3.577710e-03 -3.232878e-03)	(-3.440718e-04 3.441649e-03 -3.149671e-03)	(-4.299243e-05 1.360610e-04 -8.320757e-05)
162           	(-3.797600e-04 3.585901e-03 -3.236106e-03)	(-3.367830e-04 3.449614e-03 -3.153257e-03)	(-4.297694e-05 1.362872e-04 -8.284899e-05)
163           	(-3.711558e-04 3.595232e-03 -3.241424e-03)	(-3.282326e-04 3.458652e-03 -3.158850e-03)	(-4.292324e-05 1.365799e-04 -8.257338e-05)
164           	(-3.614059e-04 3.605102e-03 -3.248147e-03)	(-3.185714e-04 3.468167e-03 -3.165762e-03)	(-4.283457e-05 1.369348e-04 -8.238565e-05)
165           	(-3.511237e-04 3.615223e-03 -3.255549e-03)	(-3.084070e-04 3.477885e-03 -3.173267e-03)	(-4.271673e-05 1.373384e-04 -8.228236e-05)
166           	(-3.407888e-04 3.625358e-03 -3.263122e-03)	(-2.982130e-04 3.487580e-03 -3.180862e-03)	(-4.257586e-05 1.377773e-04 -8.226003e-05)
167           	(-3.306408e-04 3.635077e-03 -3.270452e-03)	(-2.882236e-04 3.496837e-03 -3.188141e-03)	(-4.241725e-05 1.382399e-04 -8.231113e-05)
168           	(-3.212077e-04 3.644561e-03 -3.276984e-03)	(-2.789602e-04 3.505837e-03 -3.194556e-03)	(-4.224753e-05 1.387248e-04 -8.242740e-05)
169           	(-3.119095e-04 3.658543e-03 -3.283742e-03)	(-2.698368e-04 3.519318e-03 -3.201139e-03)	(-4.207270e-05 1.392249e-04 -8.260286e-05)
170           	(-3.051931e-04 3.667381e-03 -3.287350e-03)	(-2.632934e-04 3.527645e-03 -3.204533e-03)	(-4.189973e-05 1.397360e-04 -8.281673e-05)
171           	(-2.999676e-04 3.676016e-03 -3.289343e-03)	(-2.582333e-04 3.535766e-03 -3.206283e-03)	(-4.173435e-05 1.402502e-04 -8.306074e-05)
172           	(-2.961686e-04 3.684475e-03 -3.289770e-03)	(-2.545884e-04 3.543708e-03 -3.206446e-03)	(-4.158016e-05 1.407666e-04 -8.332330e-05)
173           	(-2.933774e-04 3.696273e-03 -3.289369e-03)	(-2.519366e-04 3.554985e-03 -3.205775e-03)	(-4.144082e-05 1.412878e-04 -8.359378e-05)
174           	(-2.921547e-04 3.706125e-03 -3.287533e-03)	(-2.508362e-04 3.564317e-03 -3.203674e-03)	(-4.131851e-05 1.418085e-04 -8.385896e-05)
175           	(-2.917971e-04 3.713314e-03 -3.283648e-03)	(-2.505858e-04 3.570990e-03 -3.199546e-03)	(-4.121120e-05 1.423240e-04 -8.410229e-05)
176           	(-2.923630e-04 3.720157e-03 -3.278280e-03)	(-2.512418e-04 3.577330e-03 -3.193969e-03)	(-4.112111e-05 1.428275e-04 -8.431093e-05)
177           	(-2.935008e-04 3.726344e-03 -3.272162e-03)	(-2.524515e-04 3.583031e-03 -3.187683e-03)	(-4.104927e-05 1.433126e-04 -8.447811e-05)
178           	(-2.950856e-04 3.731830e-03 -3.265523e-03)	(-2.540901e-04 3.588056e-03 -3.180928e-03)	(-4.099549e-05 1.437744e-04 -8.459556e-05)
179           	(-2.970422e-04 3.736573e-03 -3.258541e-03)	(-2.560828e-04 3.592366e-03 -3.173885e-03)	(-4.095935e-05 1.442066e-04 -8.465556e-05)
180           	(-2.993851e-04 3.740357e-03 -3.251186e-03)	(-2.584447e-04 3.595749e-03 -3.166535e-03)	(-4.094044e-05 1.446071e-04 -8.465115e-05)
181           	(-3.017415e-04 3.743650e-03 -3.243511e-03)	(-2.608046e-04 3.598675e-03 -3.158934e-03)	(-4.093693e-05 1.449752e-04 -8.457691e-05)
182           	(-3.039685e-04 3.746634e-03 -3.235547e-03)	(-2.630224e-04 3.601323e-03 -3.151120e-03)	(-4.094616e-05 1.453108e-04 -8.442710e-05)
183           	(-3.059536e-04 3.749509e-03 -3.227332e-03)	(-2.649886e-04 3.603893e-03 -3.143133e-03)	(-4.096493e-05 1.456158e-04 -8.419923e-05)
184           	(-3.076231e-04 3.752530e-03 -3.218926e-03)	(-2.666330e-04 3.606635e-03 -3.135032e-03)	(-4.099003e-05 1.458949e-04 -8.389458e-05)
185           	(-3.089069e-04 3.755829e-03 -3.210713e-03)	(-2.678878e-04 3.609678e-03 -3.127194e-03)	(-4.101904e-05 1.461508e-04 -8.351911e-05)
186           	(-3.099380e-04 3.759339e-03 -3.203045e-03)	(-2.688881e-04 3.612951e-03 -3.119963e-03)	(-4.104996e-05 1.463879e-04 -8.308234e-05)
187           	(-3.107437e-04 3.763059e-03 -3.196236e-03)	(-2.696622e-04 3.616450e-03 -3.113638e-03)	(-4.108148e-05 1.466093e-04 -8.259821e-05)
188           	(-3.113434e-04 3.766917e-03 -3.190588e-03)	(-2.702312e-04 3.620097e-03 -3.108505e-03)	(-4.111218e-05 1.468192e-04 -8.208260e-05)
189           	(-3.117657e-04 3.770727e-03 -3.186381e-03)	(-2.706245e-04 3.623708e-03 -3.104828e-03)	(-4.114125e-05 1.470183e-04 -8.155254e-05)
190           	(-3.118701e-04 3.774197e-03 -3.183873e-03)	(-2.707026e-04 3.626992e-03 -3.102849e-03)	(-4.116754e-05 1.472049e-04 -8.102424e-05)
191           	(-3.118381e-04 3.777122e-03 -3.183317e-03)	(-2.706472e-04 3.629746e-03 -3.102805e-03)	(-4.119084e-05 1.473765e-04 -8.051239e-05)
192           	(-3.117440e-04 3.779478e-03 -3.185060e-03)	(-2.705325e-04 3.631950e-03 -3.105030e-03)	(-4.121151e-05 1.475276e-04 -8.003017e-05)
193           	(-3.112243e-04 3.780478e-03 -3.189657e-03)	(-2.699971e-04 3.632824e-03 -3.110067e-03)	(-4.122714e-05 1.476539e-04 -7.959027e-05)
194           	(-3.106010e-04 3.780558e-03 -3.197284e-03)	(-2.693635e-04 3.632805e-03 -3.118083e-03)	(-4.123747e-05 1.477526e-04 -7.920107e-05)
195           	(-3.098686e-04 3.779964e-03 -3.207637e-03)	(-2.686274e-04 3.632139e-03 -3.128771e-03)	(-4.124115e-05 1.478248e-04 -7.886613e-05)
196           	(-3.089007e-04 3.778853e-03 -3.220110e-03)	(-2.676650e-04 3.630980e-03 -3.141523e-03)	(-4.123571e-05 1.478729e-04 -7.858678e-05)
197           	(-3.076138e-04 3.777380e-03 -3.233652e-03)	(-2.663959e-04 3.629477e-03 -3.155293e-03)	(-4.121784e-05 1.479033e-04 -7.835903e-05)
198           	(-3.058341e-04 3.775804e-03 -3.247429e-03)	(-2.646503e-04 3.627879e-03 -3.169251e-03)	(-4.118371e-05 1.479249e-04 -7.817835e-05)
199           	(-3.034735e-04 3.774345e-03 -3.260709e-03)	(-2.623437e-04 3.626397e-03 -3.182670e-03)	(-4.112980e-05 1.479475e-04 -7.803961e-05)
200           	(-2.997777e-04 3.775363e-03 -3.273714e-03)	(-2.587256e-04 3.627385e-03 -3.195772e-03)	(-4.105213e-05 1.479775e-04 -7.794270e-05)
201           	(-2.956853e-04 3.776212e-03 -3.285729e-03)	(-2.547357e-04 3.628186e-03 -3.207850e-03)	(-4.094965e-05 1.480257e-04 -7.787826e-05)
202           	(-2.914033e-04 3.776007e-03 -3.296144e-03)	(-2.505806e-04 3.627907e-03 -3.218304e-03)	(-4.082274e-05 1.481000e-04 -7.783957e-05)
203           	(-2.866580e-04 3.776573e-03 -3.305612e-03)	(-2.459863e-04 3.628368e-03 -3.227788e-03)	(-4.067169e-05 1.482047e-04 -7.782443e-05)
204           	(-2.813757e-04 3.778492e-03 -3.314156e-03)	(-2.408783e-04 3.630151e-03 -3.236322e-03)	(-4.049745e-05 1.483413e-04 -7.783357e-05)
205           	(-2.759623e-04 3.780581e-03 -3.321370e-03)	(-2.356591e-04 3.632071e-03 -3.243508e-03)	(-4.030313e-05 1.485098e-04 -7.786208e-05)
206           	(-2.703463e-04 3.783241e-03 -3.327011e-03)	(-2.302555e-04 3.634530e-03 -3.249103e-03)	(-4.009079e-05 1.487105e-04 -7.790855e-05)
207           	(-2.646599e-04 3.786315e-03 -3.330789e-03)	(-2.247968e-04 3.637373e-03 -3.252819e-03)	(-3.986310e-05 1.489420e-04 -7.796906e-05)