# k  POINT_DATA 13056
# x  y  z  k
-1.93744e-27 -0.01 1.38404e-07 5.15924e-08
0 0.01 8.31199e-08 2.4556e-09
0 0.01 0.00067832 2.29299e-09
0 -0.01 0.00067832 6.00957e-08
3.10193e-25 0.0100155 0.000677146 2.35819e-09
2.58494e-26 -0.0100173 0.000677006 6.19933e-08
0 0.01 0.00137372 2.01673e-09
2.06795e-25 -0.01 0.00137372 6.7342e-08
1.03398e-24 0.0100736 0.00135825 1.94402e-09
0 -0.010074 0.00135817 6.45391e-08
1.57772e-30 -0.01 0.002087 7.89768e-08
7.88861e-31 0.01 0.002087 2.07689e-09
0 -0.0102613 0.000329046 5.15921e-08
0 0.0102613 0.000329046 2.4556e-09
5.42101e-20 0.0102561 0.000988366 2.12815e-09
0 -0.0102561 0.000988366 6.87164e-08
0 0.0102356 0.00161953 1.90373e-09
0 -0.0102356 0.00161953 6.59479e-08
2.06795e-25 0.0105293 8.68458e-08 7.24991e-09
2.06795e-25 -0.0105293 8.80408e-08 1.82266e-07
-2.06795e-25 -0.0105286 0.000176899 1.64412e-07
-3.39558e-21 0.0105268 0.000638363 4.5132e-09
-1.3378e-20 -0.0105268 0.000638363 1.17812e-07
-8.27181e-25 0.0105159 0.00126532 1.50709e-09
-2.02907e-21 -0.0105159 0.0012653 4.77983e-08
2.02924e-20 0.0105028 0.0017228 1.60072e-09
-9.24126e-21 -0.0105028 0.0017228 5.9401e-08
-2.71051e-20 0.010496 0.00202291 2.23053e-09
0 -0.010496 0.00202291 9.05359e-08
0 0.0104977 0.00235078 1.90554e-09
0 -0.0104977 0.00235077 1.10145e-07
0 -0.0108033 0.000314595 3.14688e-07
-2.71051e-20 0.0108033 0.000314595 1.21084e-08
2.71051e-20 0.0108031 0.00093799 1.44627e-09
-2.71051e-20 -0.0108031 0.00093799 3.9131e-08
2.71051e-20 -0.01079 0.00152732 1.86071e-08
2.71051e-20 0.01079 0.00152732 5.8748e-10
0 0.0110754 7.74069e-09 1.10195e-08
0 -0.0110754 5.27285e-09 3.2444e-07
0 -0.0110772 7.95759e-05 3.06542e-07
0 0.0110889 0.000613667 6.32641e-09
-1.93924e-20 -0.0110889 0.000613667 1.86413e-07
-5.42101e-20 0.0108991 0.00228385 1.58318e-09
2.71051e-20 -0.0108991 0.00228385 1.29596e-07
2.72606e-20 -0.010988 0.00190081 5.73352e-08
3.30872e-24 0.010988 0.00190078 1.18105e-09
2.70323e-21 -0.0110831 0.00123266 3.0933e-08
0 0.0110831 0.00123268 1.13926e-09
1.03398e-25 -0.0112621 3.77028e-09 3.32865e-07
-6.61744e-24 0.0109863 0.00260985 1.16542e-09
0 -0.0109863 0.00260985 1.34991e-07
5.42101e-20 0.0113733 0.000305239 9.90828e-09
0 -0.0113733 0.000305239 3.34392e-07
0 -0.0113913 0.000918847 5.13482e-08
-2.71051e-20 0.0113913 0.000918847 1.62307e-09
1.58819e-20 0.0112123 0.00231934 9.8224e-10
-1.34797e-20 -0.0112123 0.00231934 9.90766e-08
2.71051e-20 -0.0113682 0.00155884 1.48445e-08
0 0.0113682 0.00155884 9.0729e-10
0 -0.0114039 0.00209577 2.67588e-08
0 0.0114039 0.00209577 6.38384e-10
0 -0.0113392 0.00255892 1.40312e-07
2.71051e-20 0.0113392 0.00255892 7.53447e-10
0 -0.0116471 3.55939e-09 3.50246e-07
0 0.0116471 3.19951e-09 7.35631e-09
-1.00354e-20 -0.0116865 0.000598051 2.04811e-07
-8.27181e-25 0.0116865 0.000598049 4.60109e-09
-2.19368e-21 -0.0117045 0.00122297 3.7427e-08
0 0.0117045 0.00122299 2.37297e-09
-6.61744e-24 0.0114599 0.00285977 1.09855e-09
-6.61744e-24 -0.0114598 0.00285975 2.19911e-07
3.88775e-21 -0.0117133 0.00184588 2.72679e-08
0 0.0117133 0.00184592 2.67188e-09
3.13137e-20 -0.0116596 0.00239949 1.2963e-07
0 0.0116596 0.00239948 1.7631e-09
-2.71051e-20 0.0119676 0.000293859 4.75707e-09
5.42101e-20 -0.0119676 0.000293859 3.66393e-07
2.71051e-20 -0.0120131 0.000895955 5.88774e-08
-2.71051e-20 0.0120131 0.000895955 2.02831e-09
0 -0.0120433 0.00152444 2.34368e-08
-2.71051e-20 0.0120433 0.00152444 4.90798e-09
0 0.0118604 0.00273056 1.43794e-09
0 -0.0118604 0.00273056 2.98187e-07
0 0.0120387 0.00217273 4.47113e-09
2.71051e-20 -0.0120387 0.00217273 4.43166e-08
-8.27181e-25 -0.0122418 4.68912e-09 4.12892e-07
0 0.0122418 1.66918e-09 3.38317e-09
-6.61744e-24 0.0119119 0.00310459 4.72001e-09
-6.61744e-24 -0.0119119 0.00310459 3.00407e-07
2.12569e-20 -0.0123043 0.000568948 2.41864e-07
-1.03398e-25 0.0123043 0.000568944 3.83321e-09
1.03398e-25 0.0123971 0.000559198 5.52548e-09
9.03612e-21 -0.01236 0.00118123 4.75783e-08
0 0.01236 0.00118124 9.58002e-09
4.1359e-25 0.0124373 1.54461e-10 5.56762e-09
2.13313e-20 -0.0123814 0.00184432 3.5603e-08
0 0.0123814 0.00184434 1.70269e-08
0 -0.0125711 0.000269457 4.59861e-07
0 0.0125711 0.000269458 1.99535e-09
-8.66554e-21 -0.0123374 0.00258488 1.53763e-07
-2.46434e-20 0.0123374 0.00258488 1.23467e-08
2.71051e-20 0.0122817 0.00299995 7.94986e-09
2.71051e-20 -0.0122817 0.00299995 3.02592e-07
0 -0.0126475 0.000839062 6.93918e-08
-2.71051e-20 0.0126475 0.000839063 6.64952e-09
0 0.0123472 0.00333734 1.18878e-08
0 -0.0123472 0.00333734 2.80103e-07
2.71051e-20 0.0127108 0.0014705 2.47466e-08
0 -0.0127108 0.0014705 3.78203e-08
0 0.0127518 0.00112259 2.82453e-08
1.65436e-24 -0.0128491 7.71817e-09 5.54963e-07
4.1359e-25 0.0128491 2.48242e-09 1.01704e-08
2.71051e-20 0.0127172 0.00217074 3.42467e-08
2.71051e-20 -0.0127172 0.00217074 3.70656e-08
1.3852e-20 -0.0129129 0.000505056 3.29561e-07
0 0.0129129 0.000505055 1.49288e-08
-1.97365e-20 -0.0125922 0.00303079 2.07386e-07
-3.70742e-21 0.0125922 0.00303079 1.3262e-08
-4.94985e-21 -0.0130203 0.00108239 8.22797e-08
-1.23304e-20 0.0130203 0.0010824 4.10366e-08
-5.42101e-20 -0.012793 0.00278388 5.65949e-08
2.71051e-20 0.012793 0.00278388 1.59133e-08
-2.71051e-20 -0.0127108 0.00327268 2.57918e-07
2.71051e-20 0.0127108 0.00327268 1.57728e-08
0 -0.0131383 0.000218118 6.5033e-07
2.71051e-20 0.0131383 0.000218118 1.83684e-08
0 0.0130692 0.00171594 9.1303e-08
-1.88821e-20 -0.013073 0.00176509 8.23079e-08
0 0.013073 0.0017651 9.52031e-08
2.58494e-26 0.0130931 0.00176192 1.03429e-07
0 0.0127674 0.00356123 2.43145e-08
0 -0.0127674 0.00356123 2.61598e-07
0 0.0132689 0.000719695 3.22938e-08
-2.71051e-20 -0.0132689 0.000719694 1.07756e-07
0 -0.0130872 0.00246808 7.93071e-08
-4.1359e-25 0.0130872 0.00246808 9.35247e-08
1.43499e-20 -0.0133747 0.000406315 4.17924e-07
1.524e-20 0.0133747 0.000406311 7.51122e-08
3.30872e-24 -0.0134599 1.1061e-08 5.68101e-07
0 0.0134599 2.11019e-13 9.86509e-08
1.27287e-20 -0.0130916 0.00314268 1.51923e-07
0 0.0130916 0.00314268 4.25295e-08
-2.71051e-20 -0.0134186 0.00131377 1.11373e-07
0 0.0134186 0.00131377 1.00708e-07
0 0.0133031 0.00245086 2.21585e-07
2.71051e-20 0.013075 0.00349045 3.27709e-08
-5.42101e-20 -0.013075 0.00349045 2.65242e-07
-5.42101e-20 -0.0134232 0.00207248 1.42306e-07
2.71051e-20 0.0134232 0.00207248 2.15651e-07
0 0.0131963 0.00330884 4.11732e-08
2.06795e-25 -0.0132124 0.00333436 1.74445e-07
0 0.0132965 0.0031224 1.15542e-07
2.71051e-20 -0.0136984 0.000300344 4.85852e-07
0 0.0136984 0.000300344 1.78953e-07
0 0.013418 0.00277569 1.20099e-07
5.42101e-20 -0.013418 0.00277569 8.64307e-08
-2.06795e-25 0.0131762 0.0037788 4.10605e-08
0 -0.0131762 0.0037788 2.63987e-07
3.10193e-25 -0.0132273 0.00369735 2.42328e-07
2.06795e-25 0.0132292 0.00369443 4.04998e-08
0 -0.0133968 0.00311247 1.70923e-07
2.74459e-20 -0.0137612 0.00078614 4.78311e-07
4.44361e-21 0.0137612 0.000786141 1.68669e-07
-3.61916e-20 0.0133341 0.00352736 3.93894e-08
-4.1359e-25 -0.0133341 0.00352736 1.97122e-07
0 -0.0132735 0.00383757 3.04429e-07
-4.1359e-25 0.0132832 0.00384344 5.91817e-08
-4.1905e-21 -0.0137678 0.00165537 3.06154e-07
-6.50164e-22 0.0137678 0.00165537 3.79269e-07
2.71051e-20 0.013482 0.00331696 3.59134e-08
2.71051e-20 -0.013482 0.00331696 6.2921e-08
3.33015e-20 0.0137484 0.00241532 4.85778e-07
0 -0.0137484 0.00241533 3.03963e-07
0 -0.013458 0.00374223 2.6274e-07
0 0.013458 0.00374223 4.92945e-08
4.1359e-25 -0.0137485 0.00262819 2.68248e-07
-3.30872e-24 -0.014071 -1.61666e-15 9.0613e-07
0 0.014071 3.38398e-08 1.92981e-07
-6.42223e-21 0.0137488 0.00307761 2.76759e-07
0 -0.0137488 0.00307762 1.92837e-07
0 -0.0135651 0.00401367 4.25624e-07
0 0.0135651 0.00401367 1.06901e-07
-2.71051e-20 -0.0141231 0.00120897 4.27177e-07
2.71051e-20 0.0141231 0.00120897 3.32268e-07
-8.47364e-21 0.0137164 0.00361035 1.165e-07
8.27181e-25 -0.0137164 0.00361035 2.78369e-07
-5.42101e-20 -0.014089 0.00201377 5.42619e-07
-2.71051e-20 0.014089 0.00201377 8.46639e-07
-2.71051e-20 -0.0142657 0.000418225 1.33063e-06
-2.71051e-20 0.0142657 0.000418225 2.07151e-07
-2.71051e-20 -0.014069 0.0027392 4.53414e-07
2.71051e-20 0.014069 0.0027392 7.71815e-07
0 0.0138967 0.00392747 1.64276e-07
0 -0.0138967 0.00392747 5.87855e-07
-5.42101e-20 0.0140496 0.00340311 2.28414e-07
2.71051e-20 -0.0140496 0.00340311 1.94754e-07
-2.82251e-20 0.014441 0.00161389 1.28394e-06
-2.5593e-20 -0.014441 0.00161389 1.01636e-06
-2.25754e-20 -0.0145429 0.000823391 1.41583e-06
-1.51506e-20 0.0145429 0.000823383 6.02529e-07
8.27181e-25 -0.0139237 0.00428406 5.95674e-07
8.27181e-25 0.0139237 0.00428406 1.8495e-07
1.4785e-20 0.014397 0.00237993 1.80757e-06
0 -0.014397 0.00237994 1.09915e-06
2.06795e-25 -0.0143809 0.0027439 9.34106e-07
2.09707e-20 0.0143653 0.00309536 1.30103e-06
0 -0.0143653 0.00309537 7.74729e-07
-6.61744e-24 -0.0147021 5.53624e-08 1.9169e-06
6.61744e-24 0.0147022 5.46449e-08 3.47398e-07
-2.01253e-20 0.014305 0.00382188 4.27726e-07
0 -0.014305 0.00382189 4.95617e-07
-2.71051e-20 -0.0142451 0.00421792 6.03476e-07
0 0.0142451 0.00421792 2.0558e-07
5.42101e-20 0.0147298 0.00200539 2.52849e-06
0 -0.0147298 0.00200539 1.65028e-06
0 0.0148165 0.00124392 1.36001e-06
-2.71051e-20 -0.0148165 0.00124392 1.40744e-06
2.71051e-20 0.014711 0.00272495 3.06109e-06
0 -0.014711 0.00272495 1.74256e-06
-2.71051e-20 0.0149558 0.000461599 4.78925e-07
0 -0.0149558 0.000461599 2.46671e-06
8.27181e-25 -0.0142802 0.00455258 5.87204e-07
-8.27181e-25 0.0142802 0.00455258 2.13674e-07
0 0.0146561 0.00344874 1.27837e-06
0 -0.0146561 0.00344874 7.82224e-07
7.38093e-21 -0.014516 0.0042716 4.94143e-07
1.6853e-20 0.014516 0.0042716 2.5882e-07
8.52327e-21 -0.0150862 0.00165186 2.44185e-06
-3.18961e-21 0.0150862 0.00165186 3.2546e-06
2.71051e-20 -0.014707 0.0040482 3.01572e-07
-5.42101e-20 0.014707 0.0040482 3.52238e-07
3.49749e-20 0.0151175 0.00230445 5.07919e-06
2.31379e-20 -0.0151175 0.00230445 3.16294e-06
0 0.0146108 0.00452168 2.21758e-07
-2.71051e-20 -0.0146108 0.00452168 5.70953e-07
-5.16988e-26 -0.0149972 0.00307322 2.74882e-06
2.20791e-20 0.0149933 0.00309787 4.61685e-06
0 -0.0149933 0.00309786 2.73555e-06
5.16988e-26 -0.0150551 0.00309623 3.20584e-06
1.11636e-20 -0.0153398 0.000978663 3.17504e-06
-4.03664e-21 0.0153398 0.000978658 2.29989e-06
0 -0.0153748 1.34592e-07 3.33384e-06
0 0.015375 6.5057e-08 8.92687e-07
0 -0.0146354 0.00482017 5.89095e-07
-4.1359e-25 0.0146354 0.00482017 2.46149e-07
-2.55921e-20 0.0149803 0.0037633 2.33059e-06
-2.35842e-20 -0.0149803 0.0037633 1.47815e-06
0 0.0153272 0.00275021 8.17686e-06
0 -0.0153272 0.00275021 4.76557e-06
0 -0.0149658 0.00441693 6.40319e-07
-1.11363e-20 0.0149658 0.00441693 6.44956e-07
2.71051e-20 -0.014927 0.00477487 6.07222e-07
2.71051e-20 0.014927 0.00477488 2.7052e-07
0 -0.0152999 0.00342237 3.60892e-06
-2.71051e-20 0.0152999 0.00342237 5.88549e-06
0 0.0149195 0.0050341 2.84979e-07
-5.42101e-20 0.015716 0.00173426 7.29098e-06
-5.42101e-20 -0.015716 0.00173426 5.24394e-06
5.42101e-20 -0.0152841 0.00407715 1.37807e-06
0 0.0152841 0.00407715 2.07361e-06
0 -0.0149898 0.00508707 6.34626e-07
1.03398e-25 0.0149898 0.00508707 2.94594e-07
-9.69787e-21 0.0156647 0.00240044 1.23882e-05
-1.87108e-21 -0.0156647 0.00240044 7.54502e-06
-2.06795e-25 0.0150316 0.00502549 3.07345e-07
0 0.0158728 0.000521005 1.58238e-06
-1.0842e-19 -0.0158728 0.000521006 4.77919e-06
-3.76202e-21 -0.0151702 0.00482145 5.54109e-07
2.05753e-20 0.0151702 0.00482145 3.49597e-07
8.84422e-21 0.015623 0.00308125 1.22214e-05
-1.88998e-20 -0.015623 0.00308126 7.52927e-06
-2.71051e-20 0.0153271 0.00461022 4.62018e-07
0 -0.0153271 0.00461022 3.90242e-07
-4.1359e-25 -0.0156085 0.00354717 6.18403e-06
1.08969e-20 0.0156022 0.00374982 8.47448e-06
-2.06795e-25 -0.0156022 0.00374982 5.59892e-06
-5.42101e-20 0.015269 0.00505544 3.18642e-07
0 -0.015269 0.00505544 6.62e-07
-2.71051e-20 -0.0159605 0.00272816 1.14483e-05
2.71051e-20 0.0159605 0.00272816 1.92376e-05
0 -0.0155971 0.0043751 2.55965e-06
-1.06905e-20 0.0155971 0.0043751 3.65275e-06
0 0.0153431 0.00535318 6.18232e-07
2.58494e-26 -0.0153431 0.00535318 1.11538e-06
-2.71051e-20 -0.0159183 0.00340547 1.03135e-05
-2.71051e-20 0.0159183 0.00340547 1.56625e-05
5.16988e-26 0.0155093 0.00497609 9.28689e-07
0 -0.0155359 0.00491577 1.07569e-06
1.58095e-21 0.0155359 0.00491577 9.7835e-07
-1.03398e-25 -0.0158827 0.00371014 9.30904e-06
-2.71051e-20 0.0159245 0.00405169 1.03414e-05
0 -0.0159245 0.00405169 7.13346e-06
4.44163e-20 -0.0163948 0.00113363 9.45064e-06
-3.84804e-20 0.0163948 0.00113363 9.84585e-06
0 -0.0164795 6.04198e-08 7.95693e-06
-3.30872e-24 0.0164796 2.21654e-08 3.88855e-06
5.16988e-26 0.0157156 0.00498366 1.65299e-06
2.53448e-20 0.0162478 0.00305838 2.29293e-05
-2.05976e-20 -0.0162478 0.00305839 1.50452e-05
4.84777e-20 -0.016378 0.00230524 1.48912e-05
-5.19519e-20 0.016378 0.00230524 2.23577e-05
-2.71051e-20 0.0156904 0.00524875 9.17451e-07
0 -0.0156904 0.00524875 1.5682e-06
-5.42101e-20 0.0158759 0.00471202 2.34737e-06
2.71051e-20 -0.0158759 0.00471202 1.75543e-06
-8.27181e-25 0.0156951 0.00561829 9.97776e-07
0 -0.0156951 0.00561829 1.64596e-06
-2.36578e-20 0.0163084 0.00364992 2.13093e-05
2.40441e-21 -0.0163084 0.00364992 1.49407e-05
5.16988e-26 -0.0162303 0.00419321 1.0532e-05
-9.86568e-21 0.016199 0.00441125 1.21061e-05
0 -0.016199 0.00441125 8.76266e-06
-5.16988e-26 0.0161616 0.00473168 8.13814e-06
0 -0.0161146 0.00513441 2.76382e-06
0 0.0161146 0.00513441 3.15098e-06
0 0.016031 0.0055414 1.07799e-06
-5.42101e-20 -0.016031 0.0055414 1.72361e-06
2.71051e-20 0.0165301 0.00408038 2.65078e-05
2.71051e-20 -0.0165301 0.00408038 1.93334e-05
5.42101e-20 -0.0170241 0.000577593 1.10725e-05
-1.0842e-19 0.0170241 0.000577593 6.14963e-06
0 -0.0169742 0.00175445 1.66796e-05
0 0.0169742 0.00175445 2.45661e-05
0 0.0160456 0.00588233 1.13013e-06
0 -0.0160456 0.00588233 1.76148e-06
-5.42101e-20 0.0168708 0.00304668 4.03778e-05
-5.42101e-20 -0.0168708 0.00304668 2.84008e-05
0 -0.0164827 0.00476235 7.14621e-06
-5.42101e-20 0.0164827 0.00476235 9.66132e-06
-8.18743e-21 0.0163092 0.00559034 1.57193e-06
-5.28858e-21 -0.0163092 0.00559034 1.86353e-06
2.58494e-26 -0.0166741 0.00441187 1.89093e-05
-1.17038e-20 0.0168571 0.00372694 3.83044e-05
8.73089e-22 -0.0168571 0.00372694 2.85056e-05
0 -0.0165194 0.0053648 2.07777e-06
2.71051e-20 0.0165194 0.0053648 2.50204e-06
1.21968e-20 0.0168293 0.00441207 2.92794e-05
2.58494e-26 -0.0168293 0.00441207 2.22225e-05
0 -0.016393 0.00584515 1.79931e-06
-2.71051e-20 0.016393 0.00584515 1.1822e-06
5.16988e-26 -0.0168244 0.00457624 1.9364e-05
0 0.0168198 0.00472892 2.18812e-05
8.27181e-25 0.0163955 0.00614428 1.38457e-06
0 -0.0163955 0.00614428 2.01683e-06
1.03398e-25 -0.0168096 0.00506989 1.07687e-05
0 0.0168096 0.00506989 1.392e-05
-6.61744e-24 -0.0176231 3.91596e-08 1.51438e-05
0 0.0176231 3.09317e-08 1.00558e-05
1.90582e-20 -0.0175916 0.0011589 2.15045e-05
-2.92458e-20 0.0175916 0.00115889 2.44685e-05
0 -0.0171737 0.004052 3.73119e-05
2.71051e-20 0.0171737 0.004052 4.83289e-05
-3.10391e-20 -0.0175442 0.00239622 3.76768e-05
4.50913e-20 0.0175442 0.0023962 5.05675e-05
0 0.0167746 0.00574376 4.03138e-06
2.06795e-25 -0.0167746 0.00574376 3.68016e-06
0 -0.0171404 0.0047287 2.50683e-05
-5.42101e-20 0.0171404 0.0047287 3.25394e-05
-2.71051e-20 -0.016705 0.00611265 2.23413e-06
2.71051e-20 0.016705 0.00611265 1.58673e-06
2.4018e-20 -0.0174986 0.00354413 4.84997e-05
5.78902e-21 0.0174986 0.00354412 6.16858e-05
8.27181e-25 0.0167191 0.00643602 1.70531e-06
0 -0.0167191 0.00643602 2.38476e-06
0 -0.0171168 0.00539052 9.81399e-06
0 0.0171168 0.00539052 1.23288e-05
-3.07334e-20 0.0174702 0.00438304 5.44879e-05
2.58835e-20 -0.0174702 0.00438304 4.38137e-05
1.4256e-20 0.0169667 0.00617943 2.31824e-06
-1.62251e-20 -0.0169667 0.00617943 2.63919e-06
-2.58494e-26 0.0174562 0.0048306 4.35299e-05
0 -0.0174549 0.00487038 3.45966e-05
-5.16988e-26 0.0174493 0.00505023 3.81527e-05
5.16988e-26 -0.0174493 0.00505023 3.11951e-05
0 0.0171679 0.00597129 3.58316e-06
2.71051e-20 -0.0171679 0.00597129 3.16422e-06
0 0.0182005 0.000583389 1.40095e-05
0 -0.0182005 0.000583389 1.92645e-05
-5.42101e-20 -0.017043 0.00643779 2.53531e-06
0 0.017043 0.00643779 1.82382e-06
0 0.0177879 0.00403219 7.39826e-05
0 -0.0177879 0.00403219 6.05186e-05
5.42101e-20 -0.0181761 0.00178292 3.93681e-05
0 0.0181761 0.00178292 5.38977e-05
-8.27181e-25 0.0170214 0.00674884 2.1032e-06
0 -0.0170214 0.00674883 2.84478e-06
-2.85967e-20 0.0174458 0.00568734 1.92184e-05
-1.99723e-20 -0.0174458 0.00568734 1.618e-05
-5.42101e-20 0.0177804 0.00470438 6.2755e-05
0 -0.0177804 0.00470438 5.20819e-05
5.42101e-20 0.0181642 0.00305698 8.40924e-05
5.42101e-20 -0.0181642 0.00305697 6.6791e-05
-1.38106e-20 -0.0181317 0.00370155 7.3086e-05
9.05639e-21 0.0181317 0.00370155 8.78579e-05
-3.53868e-20 0.01741 0.00635261 5.96523e-06
-2.15572e-20 -0.01741 0.00635261 5.71115e-06
-2.71051e-20 -0.0177702 0.00535529 3.78522e-05
0 0.0177702 0.00535529 4.5007e-05
-2.71051e-20 -0.0173274 0.00672747 3.15419e-06
2.71051e-20 0.0173274 0.00672747 2.38251e-06
6.31501e-21 -0.0181076 0.00436205 7.08749e-05
1.41228e-20 0.0181076 0.00436205 8.33904e-05
0 0.0173238 0.00706119 2.5346e-06
8.27181e-25 -0.0173238 0.00706119 3.36115e-06
0 -0.0177503 0.00600627 1.55101e-05
2.71051e-20 0.0177503 0.00600627 1.78957e-05
6.46235e-27 0.0180987 0.00497196 7.25965e-05
1.45403e-26 -0.0180912 0.00501859 6.19084e-05
0 0.018098 0.00501826 7.1777e-05
3.21523e-20 -0.018098 0.00501826 6.22127e-05
0 -0.0187969 2.4032e-08 2.38715e-05
0 0.0187969 1.70778e-08 1.88374e-05
-7.5644e-20 -0.0187878 0.00116732 3.85238e-05
-3.44603e-20 0.0187878 0.00116731 4.39666e-05
1.3091e-20 0.0175851 0.00679799 3.53799e-06
-3.51746e-20 -0.0175851 0.00679799 4.00375e-06
5.42101e-20 -0.0184432 0.00401963 8.87359e-05
2.71051e-20 0.0184432 0.00401963 0.000103242
7.80296e-20 -0.0187844 0.00239453 7.08693e-05
3.49699e-20 0.0187844 0.00239455 8.8117e-05
-5.16988e-26 0.0180831 0.00566925 5.21053e-05
0 -0.0180831 0.00566925 4.60524e-05
0 0.018287 0.00499127 8.11738e-05
0 -0.0177912 0.00658995 5.33967e-06
-2.71051e-20 0.0177912 0.00658995 5.6229e-06
0 0.0184158 0.00467993 9.32244e-05
-2.71051e-20 -0.0184158 0.00467993 8.17948e-05
-2.71051e-20 -0.0176529 0.00706043 3.56814e-06
0 0.0176529 0.00706043 2.68671e-06
0 -0.0176264 0.00737367 4.05537e-06
0 0.0176264 0.00737367 3.128e-06
1.03398e-25 0.0180712 0.00630777 2.68572e-05
-2.0628e-20 -0.0180712 0.00630777 2.44049e-05
-2.71051e-20 0.0184261 0.0053197 8.55296e-05
-2.71051e-20 -0.0184261 0.0053197 7.66454e-05
-6.1211e-20 -0.0188515 0.00360143 9.74175e-05
1.2813e-21 0.0188515 0.00360143 0.000113523
-1.12078e-20 -0.0187497 0.00434473 9.57425e-05
-1.66333e-20 0.0187497 0.00434473 0.000108998
0 0.018025 0.00697581 8.87386e-06
2.06795e-25 -0.018025 0.00697581 8.93653e-06
-2.71051e-20 -0.0183967 0.00598007 5.46963e-05
5.42101e-20 0.0183967 0.00598007 6.04945e-05
2.71051e-20 -0.0179363 0.0073519 4.54272e-06
-2.71051e-20 0.0179363 0.0073519 3.56939e-06
5.42101e-20 0.0193896 0.000584898 2.3685e-05
-5.42101e-20 -0.0193896 0.000584906 2.84972e-05
2.24903e-20 -0.0188216 0.00491492 9.75003e-05
-3.30198e-21 0.0188216 0.00491492 0.000107757
0 0.0193933 0.00177944 8.54564e-05
0 -0.0193933 0.00177943 6.76422e-05
0 -0.0179292 0.00768641 4.80324e-06
0 0.0179292 0.00768641 3.76301e-06
0 0.0187687 0.00532689 9.97518e-05
0 -0.0187614 0.00538336 9.03887e-05
-2.71051e-20 -0.018369 0.00663164 2.43303e-05
2.71051e-20 0.018369 0.00663164 2.59262e-05
1.29247e-26 -0.0187273 0.00564917 8.63534e-05
2.58494e-26 0.0187273 0.00564917 9.34895e-05
-1.0842e-19 -0.0194147 0.00301348 0.000110145
-5.42101e-20 0.0194147 0.00301349 0.000129527
-3.35521e-20 -0.0181958 0.00742304 6.08334e-06
8.06501e-22 0.0181958 0.00742304 5.35926e-06
0 -0.0187015 0.00629873 6.38647e-05
0 0.0187015 0.00629873 6.78531e-05
-5.42101e-20 0.0184056 0.00721495 8.68462e-06
-2.71051e-20 -0.0184056 0.00721495 8.75042e-06
5.42101e-20 -0.0190533 0.0053245 0.000113962
-5.42101e-20 0.0190533 0.0053245 0.000122166
0 -0.0182616 0.0076859 5.06381e-06
0 0.0182616 0.0076859 3.95668e-06
0 -0.0193893 0.0043251 0.00012956
0 0.0193893 0.0043251 0.000143623
0 -0.0182322 0.00799942 5.82144e-06
4.1359e-25 0.0182322 0.00799942 4.65576e-06
-1.03398e-25 -0.0186894 0.00693288 3.59949e-05
0 0.0186894 0.00693288 3.71154e-05
-2.71051e-20 -0.019034 0.00596484 9.94658e-05
-5.42101e-20 0.019034 0.00596484 0.000105101
-1.65436e-24 -0.0199808 1.26037e-08 3.27642e-05
0 0.0199808 5.89873e-09 2.83213e-05
2.58494e-26 -0.0193786 0.00498454 0.000132706
-1.27172e-20 0.0193786 0.00498454 0.000142257
6.97313e-22 0.0199934 0.00116523 6.41479e-05
1.60754e-20 -0.0199935 0.00116524 5.71245e-05
0 -0.018638 0.00760163 1.37738e-05
0 0.018638 0.00760163 1.31582e-05
0 -0.0190175 0.00660576 7.68223e-05
2.71051e-20 0.0190175 0.00660576 7.9717e-05
-3.23117e-27 -0.0193645 0.00555805 0.000127532
2.39717e-20 -0.0200103 0.00238385 0.000107153
-7.36737e-20 0.0200103 0.00238385 0.000126535
0 0.0193626 0.005634 0.00013353
-2.05588e-20 -0.0193626 0.005634 0.000126847
-2.71051e-20 -0.0185453 0.00797801 6.57928e-06
0 0.0185453 0.00797801 5.35504e-06
8.27181e-25 -0.0185355 0.00831268 7.0004e-06
4.1359e-25 0.0185355 0.00831268 5.69283e-06
-2.71051e-20 -0.0189879 0.00725654 3.71966e-05
-2.71051e-20 0.0189879 0.00725654 3.73889e-05
0 -0.0193479 0.00627375 0.00011262
0 0.0193479 0.00627375 0.000116367
6.03108e-20 -0.0200226 0.00365995 0.000146293
-5.74384e-21 0.0200226 0.00365995 0.000163252
0 0.019693 0.00529521 0.00016046
0 -0.019693 0.00529521 0.000152275
7.03104e-23 -0.0188066 0.00805004 9.3612e-06
-8.9929e-21 0.0188066 0.00805004 8.24652e-06
-1.10782e-20 -0.0193268 0.00692069 8.72034e-05
0 0.0193268 0.00692069 8.84001e-05
-2.71051e-20 0.0196676 0.00594439 0.000146084
0 -0.0196676 0.00594439 0.00014138
8.13152e-20 -0.01902 0.00784265 1.42861e-05
2.71051e-20 0.01902 0.00784265 1.35739e-05
-5.42101e-20 0.0205868 0.000581102 3.29717e-05
-5.42101e-20 -0.0205869 0.000581094 3.70445e-05
0 -0.0188712 0.00831333 7.42166e-06
0 0.0188712 0.00831333 6.03071e-06
-2.58494e-26 -0.020095 0.00487938 0.00016668
-7.53099e-21 0.020095 0.00487938 0.000176974
-5.42101e-20 0.0206115 0.00176879 0.000115971
0 -0.0206115 0.00176879 9.63383e-05
0 0.020052 0.00521248 0.000172317
0 -0.0188391 0.00862624 8.87198e-06
0 0.0188391 0.00862624 7.37801e-06
0 -0.0193074 0.00756039 5.17618e-05
2.58494e-26 0.0193074 0.00756039 5.11501e-05
2.71051e-20 -0.0196738 0.00657561 0.000131967
-2.71051e-20 0.0196738 0.00657561 0.000133709
0 -0.0200044 0.00558131 0.000160478
0 0.0200001 0.00561439 0.000166697
1.61559e-27 -0.0200001 0.00561439 0.000160185
-3.23117e-27 0.0202172 0.00488474 0.000183293
-1.0842e-19 -0.0206346 0.00301452 0.000155379
5.42101e-20 0.0206346 0.00301452 0.000176101
0 0.019727 0.00691044 0.000122847
0 0.0196391 0.00723369 0.000103027
0 -0.0196391 0.00723369 0.000103088
0 -0.0192519 0.00823155 2.18439e-05
0 0.0192519 0.00823155 2.03362e-05
8.07794e-28 0.0200058 0.00618474 0.00015846
-4.03897e-28 0.0200623 0.00610384 0.000163179
0 -0.0200715 0.00617586 0.000159741
0 0.0200715 0.00617586 0.000162661
-2.71051e-20 0.0191557 0.00860727 8.72595e-06
-5.42101e-20 -0.0191557 0.00860727 1.0323e-05
0 0.0190685 0.00886293 9.10968e-06
2.58494e-26 0.0193106 0.00839138 1.81384e-05
-2.58494e-26 0.0196848 0.00755606 8.77215e-05
3.10193e-25 0.0211 -1.23378e-29 3.6171e-05
0 -0.0206641 0.00428079 0.000189889
0 0.0206641 0.00428079 0.000203486
-8.27181e-25 -0.0191433 0.00894011 1.15015e-05
0 0.0191433 0.00894011 9.67434e-06
-2.71051e-20 -0.0196055 0.00788712 5.6594e-05
-2.71051e-20 0.0196055 0.00788712 5.47521e-05
0 -0.0199746 0.0069041 0.000144178
9.25311e-21 0.0199746 0.0069041 0.000144153
2.01948e-28 0.0202321 0.00619616 0.000174505
5.16988e-26 0.0211723 3.7275e-10 3.66781e-05
8.27181e-25 -0.0211724 3.99074e-09 4.03557e-05
0 0.0211803 0.000282864 4.80049e-05
1.29247e-26 0.0195457 0.00821361 4.31658e-05
5.28488e-20 0.0212048 0.00115268 8.28352e-05
0 -0.0212049 0.00115268 7.46722e-05
-2.58494e-26 0.0209497 0.00364551 0.000201872
-4.23351e-21 -0.0194188 0.0086858 1.59802e-05
2.95891e-20 0.0194188 0.0086858 1.40897e-05
0 -0.0199446 0.00755308 0.000114698
-7.89833e-21 0.0199446 0.00755308 0.000112901
-2.71051e-20 0.0203041 0.00658402 0.000178737
-2.71051e-20 -0.0203041 0.00658402 0.000178588
6.01935e-20 -0.0212384 0.0023678 0.000142917
1.95375e-21 0.0212384 0.0023678 0.000163866
0 -0.0206408 0.00559143 0.000203552
5.42101e-20 0.0206408 0.00559143 0.000210139
2.71051e-20 -0.0196393 0.00847876 2.53297e-05
-2.71051e-20 0.0196393 0.00847876 2.33059e-05
-5.42101e-20 0.0194792 0.0089564 1.06234e-05
2.71051e-20 -0.0194792 0.0089564 1.26808e-05
-5.16988e-26 0.0212584 0.00323002 0.000198593
-1.29247e-26 -0.0209468 0.00491676 0.000210678
0 -0.0194172 0.00928185 1.5369e-05
0 0.0194172 0.00928186 1.30818e-05
-2.71051e-20 0.0202831 0.00722169 0.000160174
0 -0.0202831 0.00722169 0.000162108
2.06795e-25 -0.0199297 0.00819016 7.59799e-05
9.11843e-21 0.0199297 0.00819016 7.30127e-05
0 -0.0206294 0.00624638 0.00020233
0 0.0206294 0.00624638 0.000203811
0 0.020628 0.00632028 0.000202588
0 0.0212679 0.00364055 0.000215127
2.32655e-20 -0.0212679 0.00364055 0.000197108
0 0.0213756 0.0036358 0.000219444
1.03398e-25 -0.02142 0.00363384 0.000202704
0 -0.0212752 0.00442723 0.000215862
-2.71051e-20 -0.0202625 0.00786089 0.000136338
0 0.0202625 0.00786089 0.000132978
0 -0.0206173 0.00689381 0.000194391
0 0.0206173 0.00689381 0.000193094
-2.87379e-20 -0.0198766 0.00887843 3.77e-05
2.87445e-21 0.0198766 0.00887843 3.45846e-05
-8.07794e-28 0.0208755 0.00620919 0.00021783
0 0.0217896 0.000568406 4.03935e-05
0 -0.0217897 0.000568406 4.3675e-05
-2.58494e-26 0.0212798 0.00493138 0.00023824
0 -0.0212798 0.00493138 0.00022788
0 0.0197714 0.0092976 1.55427e-05
0 -0.0197714 0.0092976 1.80599e-05
-6.20385e-25 -0.0218782 2.18013e-32 4.30237e-05
-8.27181e-25 -0.019669 0.00964181 1.36853e-05
0 0.019669 0.00964181 1.17509e-05
0 0.0218374 0.00173743 0.000143749
5.42101e-20 -0.0218374 0.00173743 0.000122934
5.16988e-26 -0.0205995 0.0075318 0.000178049
-2.43729e-20 0.0205995 0.0075318 0.000174741
-2.71051e-20 -0.0209456 0.00655441 0.000224114
0 0.0209456 0.00655441 0.000223861
0 -0.0218292 0.00233842 0.000158232
2.71051e-20 0.0202362 0.00851518 8.58913e-05
-2.71051e-20 -0.0202362 0.00851518 9.06074e-05
1.29247e-26 0.0214369 0.00492681 0.000245718
-1.03398e-25 -0.0220386 0.00112574 8.43481e-05
-5.42101e-20 -0.021882 0.00297573 0.000197896
5.42101e-20 0.021882 0.00297573 0.000220541
1.03398e-25 -0.0205755 0.00817149 0.000150484
3.89612e-21 0.0205755 0.00817149 0.000145893
-2.71051e-20 0.0209362 0.00721472 0.00020938
-2.71051e-20 -0.0209362 0.00721472 0.000212546
1.45403e-26 0.0213396 0.00603198 0.000244045
2.71051e-20 0.0199576 0.00972223 7.95544e-06
0 -0.0199576 0.00972223 9.30633e-06
-1.85069e-20 -0.0200954 0.00945691 2.4048e-05
1.3775e-20 0.0200954 0.00945691 2.15384e-05
6.46235e-27 -0.0213454 0.00613816 0.00024222
5.48378e-20 0.0213454 0.00613817 0.000244605
0 0.0202913 0.0091201 4.43477e-05
0 -0.0202913 0.0091201 4.88763e-05
-8.27181e-25 -0.0199226 0.0100021 9.8943e-06
0 0.0199226 0.0100021 8.40662e-06
5.42101e-20 0.0219071 0.00426287 0.000260585
5.42101e-20 -0.0219071 0.00426287 0.00024539
1.29247e-26 -0.0212536 0.00687047 0.000232771
2.35331e-21 0.0212536 0.00687047 0.000231199
0 0.0209198 0.00783 0.000194904
0 -0.0209198 0.00783 0.000199649
0 0.0223699 4.09183e-10 4.24725e-05
-4.1359e-25 -0.02237 2.71976e-09 4.48826e-05
0 0.0223737 7.76866e-05 4.64061e-05
0 -0.0205825 0.00880038 0.000116142
-1.14027e-21 0.0205825 0.00880038 0.000110887
1.34417e-24 0.0223904 -1.2827e-35 4.24566e-05
2.40904e-20 -0.0201854 0.00982489 1.4081e-05
-2.01902e-20 0.0201854 0.00982489 1.24746e-05
-3.00291e-20 0.0224248 0.00111326 9.8842e-05
0 -0.0224249 0.00111325 8.88318e-05
0 -0.0208973 0.00847326 0.000174193
-2.71051e-20 0.0208973 0.00847326 0.000168638
-2.71051e-20 0.020392 0.00967037 2.07195e-05
0 -0.020392 0.00967037 2.25665e-05
0 0.0202271 0.0100702 8.85823e-06
0 -0.0202271 0.0100702 1.04829e-05
6.33232e-20 0.0224885 0.00230562 0.000199661
0 -0.0224885 0.00230562 0.000175324
-1.0842e-19 0.0219242 0.0055407 0.000278348
-5.42101e-20 -0.0219242 0.0055407 0.000272251
0 -0.0206219 0.00940243 7.65083e-05
3.17637e-21 0.0206219 0.00940243 7.1921e-05
-8.27181e-25 -0.0201769 0.0103635 1.25776e-05
0 0.0201769 0.0103635 1.08451e-05
-1.29247e-26 -0.0214053 0.00750768 0.000232452
6.61485e-20 0.0214053 0.00750768 0.000228971
0 -0.0212331 0.0081501 0.000206217
2.73705e-20 0.0212331 0.0081501 0.000201287
1.03398e-25 -0.0225307 0.00358481 0.000243565
4.18653e-20 0.0225307 0.00358482 0.000265736
-2.71051e-20 -0.0209306 0.009079 0.000152299
2.71051e-20 0.0209306 0.00907901 0.000146071
0 -0.0205788 0.0100354 3.46953e-05
-8.36259e-21 0.0205788 0.0100354 3.16264e-05
0 -0.0218832 0.00683353 0.00027951
1.0842e-19 0.0218832 0.00683353 0.000278271
2.71051e-20 -0.02047 0.0103922 1.4674e-05
0 0.02047 0.0103922 1.28335e-05
0 0.0229944 0.000536085 4.45565e-05
-5.42101e-20 -0.0229945 0.000536078 4.60931e-05
-2.45888e-20 -0.0213123 0.00869943 0.000196677
-2.02563e-20 0.0213123 0.00869943 0.000190629
2.71051e-20 -0.020909 0.00972034 9.03548e-05
0 0.020909 0.00972035 8.42332e-05
0 0.0225437 0.00489464 0.000298389
-1.03398e-25 -0.0225437 0.00489464 0.000285304
0 -0.0204318 0.0107257 1.65452e-05
0 0.0204318 0.0107257 1.43469e-05
0 0.0230802 0.00165832 0.000169288
0 -0.0230803 0.00165833 0.000144673
-9.55052e-21 -0.0212246 0.00940472 0.000162526
-4.16661e-21 0.0212246 0.00940473 0.0001557
-9.93278e-21 -0.0207156 0.0104897 2.5177e-05
-1.14705e-20 0.0207156 0.0104897 2.22654e-05
2.71051e-20 -0.0209353 0.0102994 4.30329e-05
2.71051e-20 0.0209354 0.0102994 3.86421e-05
0 0.0231589 0.00287977 0.00026631
5.42101e-20 -0.0231589 0.00287976 0.000237022
0 0.0218885 0.00814494 0.000264976
5.42101e-20 -0.0218885 0.00814494 0.000269206
8.24301e-21 0.0225301 0.00619313 0.000310928
-7.24602e-21 -0.0225301 0.00619313 0.000307078
-2.71051e-20 0.0207613 0.0107635 1.58609e-05
-2.71051e-20 -0.0207613 0.0107635 1.84173e-05
-5.42101e-20 -0.0215469 0.00909429 0.000218833
0 0.0215469 0.0090943 0.000211471
0 -0.0212144 0.0100278 0.000112494
4.83663e-21 0.0212145 0.0100278 0.000106122
0 -0.020687 0.0110884 2.25796e-05