# k  POINT_DATA 18760
# x  y  z  k
-0.237 0 8.31749e-08 1.50499e-05
0.237 0 8.31749e-08 3.61328e-07
0.237 2.06795e-25 0.000550925 2.00119e-07
-0.237 0 0.000550926 1.77198e-05
-0.237 5.16988e-26 0.000576239 1.79985e-05
0.237 1.03398e-24 0.000661329 1.74306e-07
-0.237 0 0.0011232 2.40211e-05
0.237 8.27181e-25 0.0011232 6.63201e-08
0.237 -8.27181e-25 0.00153384 1.40174e-07
0.237 0 0.00172954 1.7537e-07
-0.237 -2.58494e-26 0.00172954 3.18858e-05
-0.237 -2.58494e-26 0.00184676 3.24891e-05
0.237 0 0.00236831 3.5936e-07
-0.237 -1.03398e-25 0.0023683 3.51736e-05
0.237 0 0.00302579 5.4961e-07
-0.237 0 0.00302578 2.89222e-05
-0.237 0 0.00333716 2.36033e-05
-0.237 0 0.00368597 1.7645e-05
0.237 2.58494e-26 0.00368597 6.8089e-07
0.237 2.58494e-26 0.00386407 6.96273e-07
-0.237 0 0.00418269 1.1026e-05
-0.237 0 0.00433887 8.94491e-06
0.237 0 0.00433887 7.37282e-07
-0.237 -5.16988e-26 0.00454125 7.58551e-06
0.237 0 0.00498192 7.42039e-07
-0.237 0 0.00498192 4.62552e-06
0.237 0 0.0056169 8.08359e-07
-0.237 0 0.0056169 2.06945e-06
-0.237 0 0.00598745 2.30233e-06
0.237 0 0.00624674 9.68575e-07
-0.237 0 0.00624674 2.4653e-06
0.237 4.1359e-25 0.00687382 1.13945e-06
-0.237 0 0.00687382 7.25634e-06
-0.237117 -1.03398e-25 0.000553557 2.10679e-05
0.237 0 0.00749962 1.28759e-06
-0.237 0 0.00749962 1.55796e-05
0.237 0 0.00812489 1.40387e-06
-0.237 0 0.00812489 2.57574e-05
0.237 0 0.00874998 1.48644e-06
-0.237 0 0.00874998 3.61954e-05
0.237 0 0.009375 1.53456e-06
-0.237 0 0.009375 4.58289e-05
-0.237 0 0.00999999 5.41193e-05
0.237 4.1359e-25 0.01 1.54803e-06
0.237 0 0.010625 1.52878e-06
-0.237 0 0.010625 6.08658e-05
-0.237263 0 0.000279273 1.50498e-05
0.237263 -2.71051e-20 0.000279185 3.61328e-07
-0.237 -4.1359e-25 0.01125 6.60569e-05
0.237 0 0.01125 1.48302e-06
-0.237267 2.71051e-20 0.000847159 2.04355e-05
0.237267 0 0.000847159 3.61395e-08
-0.237269 0 0.00144351 2.77055e-05
0.237269 0 0.00144351 9.73337e-08
0.23727 5.42101e-20 0.00206936 2.55456e-07
-0.23727 0 0.00206936 3.61758e-05
0.23727 2.71051e-20 0.00271568 4.64829e-07
-0.23727 0 0.00271568 3.41563e-05
-0.23727 0 0.00336939 2.36769e-05
0.23727 0 0.00336939 6.34574e-07
-0.237 0 0.011875 6.9836e-05
0.237 4.1359e-25 0.011875 1.41733e-06
-0.237271 0 0.00402047 1.16481e-05
0.237271 0 0.00402047 7.26938e-07
0.237 -2.06795e-25 0.0121783 1.37886e-06
-0.237271 0 0.00466435 6.26288e-06
0.237271 2.71051e-20 0.00466435 7.47545e-07
-0.237 2.06795e-25 0.012345 7.1843e-05
0.237 -4.1359e-25 0.0125 1.33806e-06
-0.237 0 0.0125 7.25048e-05
-0.237272 0 0.00530117 2.99869e-06
0.237272 2.71051e-20 0.00530117 7.36569e-07
-0.237272 -2.71051e-20 0.0059324 1.14401e-06
0.237272 -2.71051e-20 0.0059324 8.79854e-07
0.237272 0 0.00656043 1.0571e-06
-0.237272 5.42101e-20 0.00656043 3.78367e-06
0.237 0 0.013125 1.25088e-06
-0.237 0 0.013125 7.42522e-05
0.237272 0 0.00718674 1.22171e-06
-0.237272 0 0.00718674 1.07255e-05
0.237 0 0.01375 1.16101e-06
-0.237 0 0.01375 7.51884e-05
-0.237272 -2.71051e-20 0.00781225 2.04317e-05
0.237272 2.71051e-20 0.00781225 1.35344e-06
-0.237272 -2.71051e-20 0.00843742 3.10825e-05
0.237272 0 0.00843742 1.45429e-06
0.237 4.1359e-25 0.014375 1.07259e-06
-0.237 4.1359e-25 0.014375 7.55596e-05
0.237272 2.71051e-20 0.00906248 1.51859e-06
-0.237272 -2.71051e-20 0.00906248 4.13081e-05
0.237426 0 0.00434749 5.2513e-06
0.237272 0 0.0096875 1.55052e-06
-0.237272 0 0.00968749 5.03497e-05
-0.237433 0 0.00434764 9.62963e-06
-0.237 0 0.015 7.54804e-05
0.237 4.1359e-25 0.015 9.88714e-07
-0.237272 2.71051e-20 0.0103125 5.78891e-05
0.237272 -2.71051e-20 0.0103125 1.54554e-06
-0.237 0 0.015625 7.4918e-05
0.237 -4.1359e-25 0.015625 9.11346e-07
-0.23752 0 8.32931e-08 3.20548e-05
0.237521 -2.06795e-25 8.48621e-08 3.46619e-07
-0.237272 0 0.0109375 6.38425e-05
0.237272 0 0.0109375 1.51202e-06
0.237525 0 0.00114972 1.9723e-07
-0.237529 2.87921e-21 0.000562809 3.28394e-05
0.237529 1.57376e-21 0.000562807 2.1496e-07
-0.237533 0 0.00115011 3.28367e-05
0.237533 1.29247e-26 0.00115011 1.99147e-07
0.237538 5.61304e-21 0.00176909 6.87015e-07
-0.237538 -2.33606e-21 0.00176909 3.17025e-05
-0.237539 0 0.00214216 2.98782e-05
0.23754 0 0.0024097 1.80046e-06
-0.23754 0 0.0024097 2.857e-05
-0.237524 -1.29247e-26 0.00370618 1.44361e-05
-0.237272 -2.71051e-20 0.0115625 6.82713e-05
0.237272 0 0.0115625 1.45401e-06
-0.237 0 0.01625 7.39633e-05
0.237 0 0.01625 8.41775e-07
0.237541 -1.71359e-20 0.00305869 3.39091e-06
-0.237541 -6.69644e-21 0.00305869 2.16545e-05
-0.237486 0 0.0062472 1.10483e-05
0.237542 2.13249e-20 0.00370687 5.03646e-06
-0.237542 -2.84214e-23 0.00370687 1.43264e-05
-0.237542 -6.46235e-27 0.0038992 1.29737e-05
-0.237543 0 0.00434987 9.80406e-06
0.237543 2.58494e-26 0.00434987 6.49743e-06
-0.237272 -2.71051e-20 0.0121875 7.14007e-05
0.237272 0 0.0121875 1.38065e-06
0.237543 -2.58494e-26 0.0045907 6.91668e-06
-0.237543 0 0.00498678 8.29721e-06
0.237543 0 0.00498678 7.60617e-06
-0.237 4.1359e-25 0.016875 7.26981e-05
0.237 4.1359e-25 0.016875 7.80322e-07
0.237544 -2.74417e-21 0.00561869 8.43986e-06
-0.237544 5.16988e-26 0.00561869 8.86278e-06
-0.237272 0 0.0128125 7.36087e-05
0.237272 2.71051e-20 0.0128125 1.29548e-06
0.237544 1.65924e-20 0.00624726 9.0361e-06
-0.237544 0 0.00624726 1.2074e-05
-0.237544 1.29247e-26 0.0065926 1.54412e-05
0.237544 1.60719e-20 0.00687391 9.3868e-06
-0.237544 0 0.00687391 1.81841e-05
-0.237 0 0.0175 7.1159e-05
0.237 0 0.0175 7.2691e-07
-0.237272 0 0.0134375 7.48958e-05
0.237272 5.42101e-20 0.0134375 1.20627e-06
0.237544 2.77689e-20 0.00749961 9.5168e-06
-0.237544 -5.16988e-26 0.00749961 2.58554e-05
0.237544 -8.29931e-21 0.00812487 9.45971e-06
-0.237544 8.71125e-22 0.00812487 3.374e-05
-0.237272 0 0.0140625 7.5481e-05
0.237272 -5.42101e-20 0.0140625 1.11575e-06
-0.237 0 0.018125 6.93911e-05
0.237 0 0.018125 6.81071e-07
0.237544 -1.00194e-20 0.00874996 9.27112e-06
-0.237544 9.90838e-21 0.00874996 4.08849e-05
-0.237272 0 0.0146875 7.56382e-05
0.237272 0 0.0146875 1.02944e-06
0.237544 -1.3397e-20 0.00937499 8.97678e-06
-0.237544 2.00914e-20 0.00937499 4.68378e-05
-0.237402 0 0.0125 6.34361e-05
-0.237 -8.27181e-25 0.01875 6.74283e-05
0.237 0 0.01875 6.4207e-07
0.237544 -9.58537e-21 0.01 8.58647e-06
-0.237544 1.0298e-20 0.01 5.15488e-05
-0.237272 0 0.0153125 7.53227e-05
0.237272 -2.71051e-20 0.0153125 9.47993e-07
0.237544 -1.75815e-20 0.010625 8.11727e-06
-0.237544 2.48461e-20 0.010625 5.51498e-05
-0.237 8.27181e-25 0.019375 6.53022e-05
0.237 0 0.019375 6.09033e-07
-0.237799 2.71051e-20 0.000284465 4.93302e-05
0.237799 0 0.000284553 3.31699e-07
0.237272 2.71051e-20 0.0159375 8.747e-07
-0.237272 2.71051e-20 0.0159375 7.45134e-05
-0.237544 -1.05337e-20 0.01125 5.76601e-05
0.237544 -7.12358e-21 0.01125 7.61013e-06
-0.237811 -5.42101e-20 0.000863452 4.70611e-05
0.237811 0 0.000863452 1.27804e-07
0.23782 2.71051e-20 0.00147122 5.51542e-07
-0.23782 -5.42101e-20 0.00147122 3.62671e-05
-0.237826 -8.13152e-20 0.00210431 2.62762e-05
0.237826 0 0.00210431 1.89509e-06
-0.237544 1.41766e-20 0.011875 5.92668e-05
0.237544 1.34177e-20 0.011875 7.08248e-06
0.237 0 0.02 5.81199e-07
-0.237 -4.1359e-25 0.02 6.30419e-05
-0.237829 0 0.00274869 1.73143e-05
0.237829 0 0.00274869 4.6864e-06
0.237272 -5.42101e-20 0.0165625 8.0885e-07
-0.237272 2.71051e-20 0.0165625 7.34132e-05
-0.23783 -2.71051e-20 0.00339421 1.13971e-05
0.23783 -2.71051e-20 0.00339421 7.89608e-06
0.237544 0 0.0121682 6.83437e-06
-0.237831 2.71051e-20 0.00403604 1.0671e-05
0.237831 0 0.00403604 1.10214e-05
0.237544 0 0.0125 6.55366e-06
-0.237544 -2.00903e-20 0.0125 6.02477e-05
-0.237832 0 0.00467279 1.07047e-05
0.237832 -2.71051e-20 0.00467279 1.3654e-05
-0.237833 0 0.00530504 1.33593e-05
0.237833 -2.71051e-20 0.00530504 1.55037e-05
0.237272 0 0.0171875 7.51794e-07
-0.237272 0 0.0171875 7.1983e-05
0.237 0 0.020625 5.57675e-07
-0.237 -4.1359e-25 0.020625 6.06718e-05
-0.237544 -6.46235e-27 0.0130436 6.06076e-05
0.237544 0 0.013125 6.0397e-06
-0.237544 0 0.013125 6.06614e-05
-0.237833 0 0.00593404 1.81761e-05
0.237833 2.71051e-20 0.00593404 1.68838e-05
-0.237834 0 0.00656112 2.55285e-05
0.237834 -5.42101e-20 0.00656112 1.76052e-05
0.237272 -2.71051e-20 0.0178125 7.02025e-07
-0.237272 -8.13152e-20 0.0178125 7.0335e-05
0.237544 0 0.01375 5.55439e-06
-0.237544 -5.16988e-26 0.01375 6.06198e-05
-0.237834 0 0.00718692 3.30939e-05
0.237834 5.42101e-20 0.00718692 1.79617e-05
0.237 0 0.02125 5.3783e-07
-0.237 0 0.02125 5.82162e-05
0.237907 -1.29247e-26 0.00499071 2.18223e-05
-0.237834 2.71051e-20 0.00781229 3.95495e-05
0.237834 -2.71051e-20 0.00781229 1.78347e-05
0.237544 0 0.014375 5.10806e-06
-0.237544 1.03398e-25 0.014375 6.02376e-05
-0.237834 -2.71051e-20 0.00843743 4.41927e-05
0.237834 2.71051e-20 0.00843743 1.74957e-05
0.237272 5.42101e-20 0.0184375 6.60117e-07
-0.237272 -2.71051e-20 0.0184375 6.84472e-05
0.237 1.03398e-25 0.021692 5.25939e-07
-0.23799 0 0.00243355 2.6895e-05
-0.237904 6.46235e-27 0.00687421 4.39323e-05
-0.237834 0 0.00906248 4.71309e-05
0.237834 0 0.00906248 1.69055e-05
-0.237 0 0.021875 5.56946e-05
0.237 0 0.021875 5.21017e-07
-0.237544 1.03398e-25 0.015 5.95983e-05
0.237544 -1.16724e-20 0.015 4.7065e-06
-0.237834 2.71051e-20 0.0096875 4.86002e-05
0.237834 0 0.0096875 1.62095e-05
0.237272 2.71051e-20 0.0190625 6.24022e-07
-0.237272 5.42101e-20 0.0190625 6.64095e-05
-0.237544 1.03398e-25 0.015625 5.86828e-05
0.237544 1.32307e-20 0.015625 4.35179e-06
-0.237834 0 0.0103125 4.92604e-05
0.237834 -2.71051e-20 0.0103125 1.53023e-05
-0.23806 0 2.8441e-10 5.39979e-05
0.23806 0 -5.02801e-10 3.51281e-07
-0.237 4.1359e-25 0.0225 5.31264e-05
0.237 -2.06795e-25 0.0225 5.0657e-07
-0.238083 4.1359e-25 0.000570196 5.79619e-05
0.238083 2.11515e-20 0.000570195 3.38264e-07
-0.237834 0 0.0109375 4.93945e-05
0.237834 5.42101e-20 0.0109375 1.43544e-05
0.237272 -2.71051e-20 0.0196875 5.94043e-07
-0.237272 0 0.0196875 6.4195e-05
-0.237544 2.06795e-25 0.01625 5.75535e-05
0.237544 0 0.01625 4.0456e-06
-0.238097 -2.06795e-25 0.00116715 5.09425e-05
0.238097 1.00619e-20 0.00116715 1.02187e-06
-0.237834 -2.71051e-20 0.0115625 4.88196e-05
0.237834 -2.71051e-20 0.0115625 1.33481e-05
-0.238109 0 0.00179591 3.41353e-05
0.238109 5.16988e-26 0.00179591 3.70832e-06
0.237 2.06795e-25 0.023125 4.9381e-07
-0.237 2.06795e-25 0.023125 5.05265e-05
0.238117 0 0.00244027 8.90411e-06
-0.238117 -3.85535e-20 0.00244027 2.64227e-05
-0.237768 -6.46235e-27 0.013125 6.40464e-05
-0.238119 2.58494e-26 0.00283525 2.49145e-05
-0.237272 -2.71051e-20 0.0203125 6.18887e-05
0.237272 2.71051e-20 0.0203125 5.68355e-07
0.23812 0 0.00308541 1.53118e-05
-0.23812 0 0.00308541 2.39592e-05
-0.237544 0 0.016875 5.6251e-05
0.237544 -5.16988e-26 0.016875 3.78666e-06
-0.237 0 0.0233232 4.96966e-05
-0.237834 2.71051e-20 0.0121875 4.81819e-05
0.237834 5.42101e-20 0.0121875 1.2358e-05
0.238121 -1.03398e-25 0.00372595 2.12564e-05
-0.238121 0 0.00372595 2.68837e-05
-0.238121 -3.23117e-27 0.00397633 2.91458e-05
0.238122 0 0.00436151 2.62726e-05
-0.238122 -1.29247e-26 0.00436151 3.26258e-05
0.238122 2.58494e-26 0.00499302 3.02023e-05
-0.238122 0 0.00499302 3.88441e-05
-0.237834 -2.71051e-20 0.0128125 4.7343e-05
0.237834 -2.71051e-20 0.0128125 1.13746e-05
0.238123 5.70952e-21 0.00562167 3.31835e-05
-0.237 0 0.02375 4.79098e-05
0.237 0 0.02375 4.82356e-07
-0.237544 0 0.0175 5.4804e-05
0.237544 0 0.0175 3.57302e-06
-0.238123 -2.58494e-26 0.00562167 4.56848e-05
0.238123 8.07794e-28 0.00564417 3.32974e-05
-0.237272 0 0.0209375 5.9455e-05
0.237272 0 0.0209375 5.46995e-07
0.238123 7.44863e-21 0.00624853 3.54283e-05
-0.238123 0 0.00624853 5.2832e-05
-0.238092 0 0.00749976 6.31304e-05
-0.237834 0 0.0134375 4.62924e-05
0.237834 -2.71051e-20 0.0134375 1.04606e-05
0.238124 2.28466e-20 0.0068744 3.69509e-05
-0.238124 0 0.0068744 5.9662e-05
-0.237544 0 0.018125 5.32354e-05
0.237544 1.03398e-25 0.018125 3.40067e-06
0.238124 -1.34611e-20 0.00749977 3.78407e-05
-0.238124 0 0.00749977 6.52823e-05
-0.238124 -1.61559e-27 0.00771005 6.67107e-05
-0.237834 -2.71051e-20 0.0140625 4.5268e-05
0.237834 -2.71051e-20 0.0140625 9.59843e-06
-0.237272 -5.42101e-20 0.0215625 5.69775e-05
0.237272 5.42101e-20 0.0215625 5.28664e-07
-0.237 0 0.024375 4.52922e-05
0.237 0 0.024375 4.71707e-07
0.238124 3.04806e-21 0.00812492 3.8168e-05
-0.238124 0 0.00812492 6.9529e-05
-0.238255 -2.58494e-26 0.00308857 3.30062e-05
-0.237544 2.06795e-25 0.01875 5.15692e-05
0.237544 -1.03398e-25 0.01875 3.26508e-06
0.238124 1.59473e-20 0.00874998 3.80518e-05
-0.238124 -2.00575e-20 0.00874998 7.2189e-05
0.237834 -2.71051e-20 0.0146875 8.83884e-06
-0.237834 2.71051e-20 0.0146875 4.39931e-05
-0.238259 0 0.00372833 3.82318e-05
-0.237272 0 0.0221875 5.44117e-05
0.237272 2.71051e-20 0.0221875 5.13371e-07
0.238124 3.70334e-20 0.00937499 3.75322e-05
-0.238124 6.07834e-21 0.00937499 7.36473e-05
-0.237 -8.27181e-25 0.025 4.26831e-05
0.237 2.06795e-25 0.025 4.61495e-07
0.237834 -2.71051e-20 0.0153125 8.14809e-06
-0.237834 0 0.0153125 4.28483e-05
0.237544 0 0.019375 3.16076e-06
-0.237544 0 0.019375 4.98216e-05
0.238124 1.42367e-20 0.01 3.66525e-05
-0.238124 -8.42253e-21 0.01 7.41547e-05
-0.238124 -7.49389e-21 0.010625 7.39301e-05
0.238124 2.94791e-20 0.010625 3.54826e-05
0.238362 2.71051e-20 0.000287929 3.71367e-07
-0.238362 2.71051e-20 0.000287929 5.8782e-05
-0.237272 2.71051e-20 0.0228125 5.18412e-05
0.237272 0 0.0228125 4.99769e-07
0.237834 0 0.0159375 7.56444e-06
-0.237834 0 0.0159375 4.14427e-05
-0.237 -8.27181e-25 0.025625 4.0098e-05
0.237 0 0.025625 4.51361e-07
0.237544 0 0.02 3.08339e-06
-0.237544 0 0.02 4.80133e-05
-0.238124 2.36637e-20 0.01125 7.32031e-05
0.238124 -1.56397e-20 0.01125 3.41386e-05
-0.238389 -2.71051e-20 0.000874094 7.75458e-05
0.238389 2.71051e-20 0.000874094 5.31057e-07
0.237834 -2.71051e-20 0.0165625 7.05366e-06
-0.237834 2.71051e-20 0.0165625 4.02338e-05
0.238408 2.71051e-20 0.00148916 2.97241e-06
-0.238408 0 0.00148916 4.24981e-05
-0.238124 1.15681e-20 0.011875 7.21222e-05
0.238124 -7.7227e-21 0.011875 3.26604e-05
-0.237272 -2.71051e-20 0.0234375 4.92118e-05
0.237272 2.71051e-20 0.0234375 4.87851e-07
0.238422 0 0.00212682 9.64763e-06
-0.238422 0 0.00212682 3.15369e-05
0.238124 6.46235e-27 0.012136 3.20066e-05
0.237544 0 0.020625 3.02742e-06
-0.237544 -5.16988e-26 0.020625 4.6157e-05
0.238429 2.71051e-20 0.00277088 1.96885e-05
-0.238429 0 0.00277088 3.08909e-05
-0.237 0 0.02625 3.75471e-05
0.237 0 0.02625 4.40857e-07
-0.238124 -2.60663e-20 0.0125 7.087e-05
0.238124 0 0.0125 3.10946e-05
0.237834 0 0.0171875 6.64424e-06
-0.237834 -2.71051e-20 0.0171875 3.87621e-05
-0.238431 -2.71051e-20 0.0034119 3.67229e-05
0.238431 0 0.0034119 2.93205e-05
0.237453 0 0.021875 2.55432e-06
-0.238431 2.71051e-20 0.00404796 4.93705e-05
0.238431 0 0.00404796 3.71999e-05
-0.238431 0 0.00467997 6.05459e-05
0.238431 -2.71051e-20 0.00467997 4.36925e-05
0.238124 -5.16988e-26 0.013125 2.9499e-05
-0.238124 -3.19934e-20 0.013125 6.94104e-05
-0.237272 -2.71051e-20 0.0240625 4.66077e-05
0.237272 5.42101e-20 0.0240625 4.76861e-07
0.238432 0 0.00530874 4.85511e-05
-0.238432 -2.71051e-20 0.00530874 7.179e-05
0.237544 0 0.02125 2.98901e-06
-0.237544 0 0.02125 4.42709e-05
0.237834 0 0.0178125 6.29995e-06
-0.237834 5.42101e-20 0.0178125 3.75274e-05
0.238432 -2.71051e-20 0.00593583 5.25739e-05
-0.238432 0 0.00593583 8.05339e-05
-0.238124 0 0.0135349 6.83848e-05
-0.237 0 0.026875 3.50415e-05
0.237 0 0.026875 4.29869e-07
0.238124 0 0.01375 2.79209e-05
-0.238124 0 0.01375 6.78466e-05
0.238432 0 0.00656171 5.53804e-05
-0.238432 -2.71051e-20 0.00656171 8.83274e-05
0.238432 0 0.00718722 5.75886e-05
-0.238432 5.42101e-20 0.00718722 9.28539e-05
0.237834 0 0.0184375 6.04181e-06
-0.237834 0 0.0184375 3.60305e-05
-0.237544 0 0.021875 4.23671e-05
0.237544 -1.9683e-20 0.021875 2.96389e-06
-0.237272 -2.71051e-20 0.0246875 4.39766e-05
0.237272 2.71051e-20 0.0246875 4.66552e-07
0.238124 5.16988e-26 0.014375 2.64059e-05
-0.238124 2.58494e-26 0.014375 6.61628e-05
-0.238432 2.71051e-20 0.00781239 9.67586e-05
0.238432 5.42101e-20 0.00781239 5.87544e-05
-0.237456 2.58494e-26 0.023125 4.05052e-05
0.238432 0 0.00843746 5.93896e-05
-0.238432 2.71051e-20 0.00843746 9.86972e-05
-0.237 -8.27181e-25 0.0275 3.25924e-05
0.237 0 0.0275 4.18194e-07
-0.238124 0 0.015 6.44185e-05
0.238124 0 0.015 2.49851e-05
0.237544 6.46235e-27 0.0223821 2.95092e-06
0.237834 -2.71051e-20 0.0190625 5.83198e-06
-0.237834 2.71051e-20 0.0190625 3.47996e-05
-0.238432 2.71051e-20 0.00906249 9.9775e-05
0.238433 0 0.00906249 5.92339e-05
-0.237544 4.02545e-21 0.0225 4.04656e-05
0.237544 0 0.0225 2.94791e-06
-0.237272 -2.71051e-20 0.0253125 4.13896e-05
0.237272 2.71051e-20 0.0253125 4.56438e-07
-0.237544 1.29247e-26 0.0227211 3.97969e-05
-0.238432 -2.71051e-20 0.0096875 0.000100094
0.238432 2.71051e-20 0.0096875 5.86028e-05
0.238631 -4.1359e-25 4.63152e-09 3.83904e-07
-0.238631 0 1.52166e-09 5.86851e-05
-0.238124 -5.16988e-26 0.015625 6.26048e-05
0.238124 1.5785e-20 0.015625 2.3683e-05
0.237834 2.71051e-20 0.0196875 5.68796e-06
-0.237834 2.71051e-20 0.0196875 3.33062e-05
-0.238432 0 0.0103125 9.96532e-05
0.238433 0 0.0103125 5.73155e-05
-0.237 0 0.028125 3.02076e-05
0.237 0 0.028125 4.05752e-07
-0.237544 -1.31301e-20 0.023125 3.85755e-05
0.237544 3.25132e-21 0.023125 2.93722e-06
-0.238672 -8.27181e-25 0.00057569 7.52709e-05
0.238672 -1.40724e-20 0.000575687 5.51476e-07
-0.238124 5.16988e-26 0.01625 6.07618e-05
0.238124 0 0.01625 2.25175e-05
0.237544 -1.29247e-26 0.023246 2.93589e-06
0.237497 0 0.02375 2.72055e-06
-0.238433 0 0.0109375 9.83776e-05
0.238433 -2.71051e-20 0.0109375 5.57686e-05
-0.237272 -2.71051e-20 0.0259375 3.88065e-05
0.237272 2.71051e-20 0.0259375 4.46284e-07
0.23744 0 0.024375 2.45217e-06
-0.237834 2.71051e-20 0.0203125 3.21042e-05
0.237834 0 0.0203125 5.57634e-06
-0.238565 1.61559e-27 0.00812496 0.000108409
0.238622 0 0.00624927 5.75664e-05
-0.238701 4.1359e-25 0.00117836 7.78251e-05
0.238701 -1.31444e-21 0.00117836 2.45862e-06
-0.238432 -2.71051e-20 0.0115625 9.71659e-05
0.238433 -2.71051e-20 0.0115625 5.38794e-05
-0.238124 0 0.016875 5.88819e-05
0.238124 1.29247e-26 0.016875 2.14989e-05
0.237415 0 0.025 2.33253e-06
-0.237544 -2.47141e-21 0.02375 3.66962e-05
0.237544 2.58494e-26 0.02375 2.9304e-06
-0.238723 0 0.00181179 5.87388e-05
0.238723 -1.29247e-26 0.00181179 8.59917e-06
-0.237 4.1359e-25 0.02875 2.78973e-05
0.237 2.06795e-25 0.02875 3.92443e-07
-0.238432 -2.71051e-20 0.0121875 9.52483e-05
0.238432 2.71051e-20 0.0121875 5.18332e-05
-0.238737 0 0.00245721 5.7094e-05
0.238737 0 0.00245721 1.89355e-05
-0.237834 -2.71051e-20 0.0209375 3.06402e-05
0.237834 -2.71051e-20 0.0209375 5.50993e-06
-0.237272 0 0.0265625 3.62876e-05
0.237272 -2.71051e-20 0.0265625 4.35429e-07
-0.238742 5.16988e-26 0.00309995 6.55685e-05
0.238742 0 0.00309995 3.00182e-05
-0.238124 1.03398e-25 0.0175 5.69925e-05
0.238124 -1.29247e-26 0.0175 2.06349e-05
0.238742 0 0.00373666 3.94762e-05
-0.238742 0 0.00373666 7.79999e-05
-0.238432 5.42101e-20 0.0128125 9.36135e-05
0.238433 0 0.0128125 4.9567e-05
0.238741 -2.58494e-26 0.0043684 4.73419e-05
-0.238741 1.29247e-26 0.0043684 8.98235e-05
0.237668 -3.23117e-27 0.023125 6.14122e-06
-0.237544 -4.24191e-20 0.024375 3.48515e-05
0.237544 0 0.024375 2.92269e-06
0.238741 0 0.00499695 5.36391e-05
-0.238741 0 0.00499695 0.000100232
0.23742 0 0.025625 2.34165e-06
-0.237 -4.1359e-25 0.0292779 2.60166e-05
0.238741 -1.74597e-20 0.00562368 5.87448e-05
-0.238741 0 0.00562368 0.000108854
-0.237834 5.42101e-20 0.0215625 2.9492e-05
0.237834 -2.71051e-20 0.0215625 5.46166e-06
-0.238432 -2.71051e-20 0.0134375 9.12791e-05
0.238433 0 0.0134375 4.73227e-05
-0.238124 1.03398e-25 0.018125 5.50878e-05
0.238124 2.58494e-26 0.018125 1.9922e-05
0.237 -2.06795e-25 0.029375 3.7824e-07
-0.237 0 0.029375 2.56705e-05
0.237755 -1.29247e-26 0.0225 8.42527e-06
-0.238741 0 0.00624945 0.000115326
0.238741 0 0.00624945 6.28421e-05
-0.237272 2.71051e-20 0.0271875 3.37954e-05
0.237272 0 0.0271875 4.24307e-07
-0.237 -3.10193e-25 0.0295184 2.51799e-05
0.238741 -3.23117e-27 0.00666769 6.50034e-05
-0.238741 -6.46235e-27 0.00687478 0.000119797
0.238741 1.52607e-20 0.00687478 6.60736e-05
-0.238432 -2.71051e-20 0.0140625 8.94129e-05
0.238432 -2.71051e-20 0.0140625 4.5004e-05
-0.237544 2.59755e-21 0.025 3.30268e-05
0.237544 0 0.025 2.91249e-06
0.238741 5.69617e-21 0.00749992 6.85043e-05
-0.238741 -6.46235e-27 0.00749992 0.00012246
-0.238124 -5.16988e-26 0.01875 5.31873e-05
0.238124 0 0.01875 1.93506e-05
-0.237834 0 0.0221875 2.80913e-05
0.237834 2.71051e-20 0.0221875 5.44278e-06
0.238741 4.11099e-20 0.00812497 7.01705e-05
-0.238741 0 0.00812497 0.000123896
0.238432 -2.71051e-20 0.0146875 4.28568e-05
-0.238432 -2.71051e-20 0.0146875 8.68221e-05
-0.237 4.1359e-25 0.03 2.35321e-05
0.237 -1.03398e-25 0.03 3.63177e-07
0.237445 5.16988e-26 0.02625 2.42986e-06
-0.238741 -1.21169e-27 0.00861111 0.00012416
0.237272 -5.42101e-20 0.0278125 4.12081e-07
-0.237272 5.42101e-20 0.0278125 3.13895e-05
0.238741 -1.80708e-20 0.00874999 7.11844e-05
-0.238741 0 0.00874999 0.000124235
0.237 0 0.0300806 3.61136e-07
0.238124 0 0.019375 1.89075e-05
-0.238124 5.16988e-26 0.019375 5.12841e-05
-0.237544 -1.12346e-20 0.025625 3.12377e-05
0.237544 -5.16988e-26 0.025625 2.89744e-06
-0.238432 -2.71051e-20 0.0153125 8.48346e-05
0.238432 2.71051e-20 0.0153125 4.07439e-05
0.238741 -8.45744e-21 0.009375 7.15427e-05
-0.238741 3.56585e-20 0.009375 0.000123653
-0.237834 -2.71051e-20 0.0228125 2.70469e-05
0.237834 5.42101e-20 0.0228125 5.42658e-06
-0.237 -2.06795e-25 0.0303451 2.24069e-05
0.238928 -1.29247e-26 0.00180987 9.55593e-06
0.238741 -4.83733e-22 0.01 7.13206e-05
-0.238741 -2.63671e-20 0.01 0.000122533
0.238956 5.42101e-20 0.000288814 3.96745e-07
-0.238956 -2.71051e-20 0.000288814 5.85858e-05
0.238124 -1.03398e-25 0.02 1.85791e-05
-0.238124 -2.58494e-26 0.02 4.93941e-05
0.238432 -2.71051e-20 0.0159375 3.88966e-05
-0.238432 2.71051e-20 0.0159375 8.20967e-05
0.237272 0 0.0284375 3.99424e-07
-0.237272 0 0.0284375 2.90256e-05
0.237 0 0.030625 3.47359e-07
-0.237 0 0.030625 2.14945e-05
-0.238741 -2.87419e-21 0.010625 0.000120718
0.238741 2.17859e-22 0.010625 7.05622e-05
-0.237834 2.71051e-20 0.0234375 2.57573e-05
0.237834 2.71051e-20 0.0234375 5.4256e-06
0.237471 7.75482e-26 0.026875 2.51584e-06
-0.237544 6.31139e-22 0.02625 2.94882e-05
0.237544 0 0.02625 2.87344e-06
-0.239 2.71051e-20 0.000876671 0.000107684
0.239 2.71051e-20 0.000876671 9.23868e-07
0.238992 -1.29247e-26 0.00245395 2.12761e-05
-0.238741 2.42302e-21 0.01125 0.000118598
0.238741 6.41491e-22 0.01125 6.94158e-05
-0.238432 -2.71051e-20 0.0165625 8.00559e-05
0.238433 0 0.0165625 3.71522e-05
-0.237949 6.46235e-27 0.0225 4.15386e-05
0.238124 1.03398e-25 0.020625 1.83423e-05
-0.238124 6.46235e-27 0.020625 4.75123e-05
0.239031 2.71051e-20 0.00149329 5.52016e-06
-0.239031 2.71051e-20 0.00149329 8.36967e-05
-0.238741 2.24936e-20 0.011875 0.000116146
0.238741 2.29496e-20 0.011875 6.79295e-05
0.237272 0 0.0290625 3.85462e-07
-0.237272 -2.71051e-20 0.0290625 2.67689e-05
0.238741 0 0.0120684 6.73884e-05
-0.237834 -5.42101e-20 0.0240625 2.47905e-05
0.237834 0 0.0240625 5.42238e-06
0.238432 0 0.0171875 3.57204e-05
-0.238432 2.71051e-20 0.0171875 7.72366e-05
0.237 0 0.03125 3.30879e-07
-0.237 0 0.03125 1.95599e-05
-0.237544 -1.32138e-20 0.026875 2.77823e-05
0.237544 2.58494e-26 0.026875 2.84106e-06
-0.239054 2.71051e-20 0.0021315 7.78082e-05
0.239054 -2.71051e-20 0.0021315 1.63706e-05
-0.238124 -1.61559e-27 0.0211991 4.58017e-05
-0.23812 9.69352e-27 0.02125 4.56485e-05
-0.237256 1.03398e-25 0.029375 2.37063e-05
-0.238741 2.27322e-20 0.0125 0.000113507
0.238741 0 0.0125 6.61813e-05
0.238124 0 0.02125 1.81835e-05
0.237494 2.58494e-26 0.0275 2.5786e-06
0.239065 2.71051e-20 0.00277514 3.00237e-05
-0.239065 2.71051e-20 0.00277515 8.87338e-05
-0.239066 0 0.00341637 0.000106557
0.239066 -2.71051e-20 0.00341637 4.10287e-05
-0.238432 -2.71051e-20 0.0178125 7.51835e-05
0.238433 0 0.0178125 3.44306e-05
0.239063 -5.42101e-20 0.00405176 5.04088e-05
-0.239063 -2.71051e-20 0.00405176 0.000120042
0.238741 -1.54988e-21 0.013125 6.42686e-05
-0.238741 3.76649e-20 0.013125 0.00011067
-0.238104 -1.61559e-27 0.021875 4.37555e-05
0.239062 5.42101e-20 0.00468248 5.81796e-05
-0.239062 -5.42101e-20 0.00468248 0.000130081
-0.237834 2.71051e-20 0.0246875 2.36425e-05
0.237834 2.71051e-20 0.0246875 5.41619e-06
0.239061 0 0.00531037 6.42761e-05
-0.239061 0 0.00531037 0.000139209
-0.237272 0 0.0296875 2.45719e-05
0.237272 0 0.0296875 3.71018e-07
0.237235 -5.16988e-26 0.03 1.303e-06
0.238124 0 0.021875 1.80825e-05
-0.238124 -5.19057e-21 0.021875 4.38054e-05
-0.237544 8.54105e-21 0.0275 2.61299e-05
0.237544 0 0.0275 2.79932e-06
-0.238741 1.61559e-27 0.0136813 0.000108057
0.237 -8.27181e-25 0.031875 3.13844e-07
-0.237 0 0.031875 1.77289e-05
0.23906 2.71051e-20 0.0059367 6.97454e-05
-0.23906 -5.42101e-20 0.0059367 0.000144568
0.238741 -4.22283e-21 0.01375 6.22598e-05
-0.238741 0 0.01375 0.000107734
-0.238432 -2.71051e-20 0.0184375 7.23284e-05
0.238432 -2.71051e-20 0.0184375 3.34553e-05
-0.23906 0 0.00656221 0.000148558
0.23906 -5.42101e-20 0.00656221 7.38635e-05
-0.23906 5.42101e-20 0.0071874 0.000150118
0.23906 -5.42101e-20 0.0071874 7.76808e-05
0.237511 -3.87741e-26 0.028125 2.60626e-06
0.238741 -1.29247e-26 0.014375 6.02418e-05
-0.238741 0 0.014375 0.000104692
-0.237834 0 0.0253125 2.27391e-05
0.237834 0 0.0253125 5.40201e-06
0.23916 -2.58494e-26 0.0030969 3.49597e-05
0.238124 -4.14239e-21 0.0225 1.80206e-05
-0.238124 -6.6503e-21 0.0225 4.20033e-05
-0.23906 0 0.00781246 0.000150761
0.23906 0 0.00781246 8.02357e-05
-0.238432 0 0.0190625 7.02883e-05
0.238432 0 0.0190625 3.25998e-05
-0.237272 0 0.0303125 2.24922e-05
0.237272 0 0.0303125 3.55336e-07
-0.237544 3.24317e-21 0.028125 2.45254e-05
0.237544 -1.29247e-26 0.028125 2.74839e-06
-0.23906 2.71051e-20 0.00843749 0.000149984
0.23906 0 0.00843749 8.25638e-05
-0.238741 0 0.015 0.000101598
0.238741 1.37357e-20 0.015 5.82633e-05
0.237 0 0.0325 2.96354e-07
-0.237 0 0.0325 1.6008e-05
0.23912 0 0.00687486 7.42347e-05
-0.239232 -1.65436e-24 1.00757e-08 5.96704e-05
0.239232 8.27181e-25 5.78724e-09 4.3655e-07
0.23906 0 0.0090625 8.38305e-05
-0.23906 2.71051e-20 0.0090625 0.000149075
0.238432 0 0.0196875 3.2026e-05
-0.238432 0 0.0196875 6.74185e-05
-0.237834 2.71051e-20 0.0259375 2.16858e-05
0.237834 2.71051e-20 0.0259375 5.37608e-06
-0.238124 -1.97687e-20 0.023125 4.02443e-05
0.238124 0 0.023125 1.79804e-05
-0.238741 1.29247e-26 0.015625 9.84556e-05
0.238741 0 0.015625 5.63879e-05
-0.239094 0 0.00875 0.000147607
0.239061 0 0.0096875 8.48019e-05
-0.239061 -2.71051e-20 0.0096875 0.000146229
0.237531 0 0.02875 2.63273e-06
-0.237544 -1.76897e-20 0.02875 2.29739e-05
0.237544 0 0.02875 2.68855e-06
-0.237272 0 0.0309375 2.04969e-05
0.237272 0 0.0309375 3.39381e-07
0.239061 -2.71051e-20 0.0103125 8.48778e-05
-0.239061 2.71051e-20 0.0103125 0.00014469
-0.238393 -1.61559e-27 0.020625 5.8834e-05
0.237479 -1.03398e-25 0.029375 2.35342e-06
-0.239291 0 0.000573875 9.87503e-05
0.239291 -3.20783e-20 0.000573866 7.00337e-07
-0.238741 0 0.01625 9.52986e-05
0.238741 -3.23117e-27 0.01625 5.4647e-05
0.238432 2.71051e-20 0.0203125 3.15342e-05
-0.238432 -2.71051e-20 0.0203125 6.54026e-05
0.237 0 0.033125 2.7851e-07
-0.237 -8.27181e-25 0.033125 1.43981e-05
-0.238124 3.16331e-20 0.02375 3.85363e-05
0.238124 0 0.02375 1.79591e-05
0.239061 0 0.0109375 8.46183e-05
-0.239061 2.71051e-20 0.0109375 0.000140664
0.237834 0 0.0265625 5.32651e-06
-0.237834 0 0.0265625 2.08729e-05
0.239294 -1.9387e-26 0.0037352 4.68784e-05
-0.238741 -2.58494e-26 0.016875 9.21297e-05
0.238741 -3.23117e-27 0.016875 5.308e-05
-0.239335 0 0.00117391 0.000131623
0.239335 1.70171e-20 0.00117392 3.39103e-06
0.23906 0 0.0115625 8.37419e-05
-0.239061 0 0.0115625 0.000138675
0.238432 -2.71051e-20 0.0209375 3.1251e-05
-0.238432 2.71051e-20 0.0209375 6.25356e-05
-0.237544 -5.78447e-21 0.029375 2.14891e-05
0.237544 -2.58494e-26 0.029375 2.62016e-06
0.239356 0 0.00159183 8.81968e-06
-0.237272 2.71051e-20 0.0315625 1.8623e-05
0.237272 -2.71051e-20 0.0315625 3.22378e-07
-0.238124 -1.76968e-20 0.024375 3.68774e-05
0.238124 0 0.024375 1.79319e-05
0.239061 2.71051e-20 0.0121875 8.26197e-05
-0.239061 2.71051e-20 0.0121875 0.000133965
-0.239367 8.27181e-25 0.00180576 0.000119863
0.239367 0 0.00180576 1.15986e-05
-0.238741 0 0.0175 8.89612e-05
0.238741 0 0.0175 5.17115e-05
0.237834 0 0.0271875 5.26773e-06
-0.237834 -5.42101e-20 0.0271875 1.99029e-05
0.237 0 0.03375 2.60471e-07
-0.237 0 0.03375 1.2893e-05
-0.239388 0 0.00244888 0.000123077
0.239388 2.58494e-26 0.00244888 2.49092e-05
0.23906 0 0.0128125 8.10711e-05
-0.239061 -2.71051e-20 0.0128125 0.000131653
0.238432 0 0.0215625 3.10097e-05
-0.238432 2.71051e-20 0.0215625 6.05438e-05
-0.239391 0 0.00309523 0.000133421
0.239391 0 0.00309522 3.76905e-05
-0.239387 -1.03398e-25 0.00373495 0.000145955
0.239387 0 0.00373495 4.81198e-05
0.239384 -1.61559e-27 0.0041834 5.44119e-05
-0.239383 -5.16988e-26 0.00436802 0.000154891
0.239383 0 0.00436802 5.70022e-05
-0.238741 2.58494e-26 0.018125 8.58073e-05
0.238741 0 0.018125 5.05506e-05
0.237544 -1.03398e-25 0.03 2.54331e-06
-0.237544 -1.22006e-20 0.03 2.00549e-05
-0.238124 -1.29253e-20 0.025 3.5277e-05
0.238124 0 0.025 1.78882e-05
-0.239381 2.58494e-26 0.00499721 0.000161891
0.239381 -6.46235e-27 0.00499721 6.42112e-05
0.239061 0 0.0134375 7.94876e-05
-0.239061 -2.71051e-20 0.0134375 0.000126566
-0.237272 0 0.0321875 1.68349e-05
0.237272 -2.71051e-20 0.0321875 3.0531e-07
-0.23938 0 0.00562396 0.000166249
0.23938 0 0.00562396 7.02972e-05
0.237834 0 0.0278125 5.18176e-06
-0.237834 -2.71051e-20 0.0278125 1.91911e-05
-0.23938 0 0.0062497 0.000168875
0.23938 3.23117e-27 0.0062497 7.5483e-05
0.238432 -5.42101e-20 0.0221875 3.09115e-05
-0.238432 0 0.0221875 5.76835e-05
0.239347 0 0.00749998 8.27566e-05
-0.237502 0 0.030625 1.89173e-05
0.23906 0 0.0140625 7.76052e-05
-0.239061 2.71051e-20 0.0140625 0.000124091
-0.238741 0 0.01875 8.26734e-05
0.238741 0 0.01875 4.95985e-05
-0.23938 3.23117e-27 0.00687491 0.000169758
0.23938 0 0.00687491 7.98244e-05
-0.237 0 0.034375 1.14855e-05
0.237 0 0.034375 2.42372e-07
0.239449 -1.61559e-27 0.00436714 5.73963e-05
-0.23938 0 0.00749998 0.000169732
0.23938 0 0.00749998 8.35291e-05