# kMean  POINT_DATA 18760
# x  y  z  kMean
-0.237 0 8.31749e-08 1.50321e-05
0.237 0 8.31749e-08 1.91304e-07
0.237 2.06795e-25 0.000550925 1.12768e-07
-0.237 0 0.000550926 1.77096e-05
-0.237 5.16988e-26 0.000576239 1.7989e-05
0.237 1.03398e-24 0.000661329 1.03996e-07
-0.237 0 0.0011232 2.40269e-05
0.237 8.27181e-25 0.0011232 6.73006e-08
0.237 -8.27181e-25 0.00153384 1.43636e-07
0.237 0 0.00172954 1.80015e-07
-0.237 -2.58494e-26 0.00172954 3.19003e-05
-0.237 -2.58494e-26 0.00184676 3.25038e-05
0.237 0 0.00236831 3.588e-07
-0.237 -1.03398e-25 0.0023683 3.5189e-05
0.237 0 0.00302579 5.39027e-07
-0.237 0 0.00302578 2.89387e-05
-0.237 0 0.00333716 2.36196e-05
-0.237 0 0.00368597 1.76611e-05
0.237 2.58494e-26 0.00368597 6.60625e-07
0.237 2.58494e-26 0.00386407 6.73967e-07
-0.237 0 0.00418269 1.104e-05
-0.237 0 0.00433887 8.95821e-06
0.237 0 0.00433887 7.09534e-07
-0.237 -5.16988e-26 0.00454125 7.59734e-06
0.237 0 0.00498192 7.14199e-07
-0.237 0 0.00498192 4.63414e-06
0.237 0 0.0056169 7.45029e-07
-0.237 0 0.0056169 2.07213e-06
-0.237 0 0.00598745 2.29732e-06
0.237 0 0.00624674 8.20098e-07
-0.237 0 0.00624674 2.4549e-06
0.237 4.1359e-25 0.00687382 9.03031e-07
-0.237 0 0.00687382 7.22352e-06
-0.237117 -1.03398e-25 0.000553557 2.10589e-05
0.237 0 0.00749962 9.75989e-07
-0.237 0 0.00749962 1.55232e-05
0.237 0 0.00812489 1.03388e-06
-0.237 0 0.00812489 2.56825e-05
0.237 0 0.00874998 1.07584e-06
-0.237 0 0.00874998 3.61093e-05
0.237 0 0.009375 1.0998e-06
-0.237 0 0.009375 4.57379e-05
-0.237 0 0.00999999 5.40284e-05
0.237 4.1359e-25 0.01 1.10563e-06
0.237 0 0.010625 1.09509e-06
-0.237 0 0.010625 6.07784e-05
-0.237263 0 0.000279273 1.5032e-05
0.237263 -2.71051e-20 0.000279185 1.91305e-07
-0.237 -4.1359e-25 0.01125 6.59743e-05
0.237 0 0.01125 1.07226e-06
-0.237267 2.71051e-20 0.000847159 2.04331e-05
0.237267 0 0.000847159 3.28823e-08
-0.237269 0 0.00144351 2.77197e-05
0.237269 0 0.00144351 1.02668e-07
0.23727 5.42101e-20 0.00206936 2.59393e-07
-0.23727 0 0.00206936 3.61907e-05
0.23727 2.71051e-20 0.00271568 4.59706e-07
-0.23727 0 0.00271568 3.41723e-05
-0.23727 0 0.00336939 2.36939e-05
0.23727 0 0.00336939 6.1852e-07
-0.237 0 0.011875 6.97576e-05
0.237 4.1359e-25 0.011875 1.04087e-06
-0.237271 0 0.00402047 1.16634e-05
0.237271 0 0.00402047 7.02485e-07
0.237 -2.06795e-25 0.0121783 1.02319e-06
-0.237271 0 0.00466435 6.27424e-06
0.237271 2.71051e-20 0.00466435 7.16527e-07
-0.237 2.06795e-25 0.012345 7.17671e-05
0.237 -4.1359e-25 0.0125 1.00445e-06
-0.237 0 0.0125 7.24297e-05
-0.237272 0 0.00530117 3.00458e-06
0.237272 2.71051e-20 0.00530117 7.11885e-07
-0.237272 -2.71051e-20 0.0059324 1.14351e-06
0.237272 -2.71051e-20 0.0059324 7.78037e-07
0.237272 0 0.00656043 8.62066e-07
-0.237272 5.42101e-20 0.00656043 3.7634e-06
0.237 0 0.013125 9.65516e-07
-0.237 0 0.013125 7.41807e-05
0.237272 0 0.00718674 9.43954e-07
-0.237272 0 0.00718674 1.06801e-05
0.237 0 0.01375 9.26164e-07
-0.237 0 0.01375 7.51201e-05
-0.237272 -2.71051e-20 0.00781225 2.03641e-05
0.237272 2.71051e-20 0.00781225 1.00801e-06
-0.237272 -2.71051e-20 0.00843742 3.10001e-05
0.237272 0 0.00843742 1.05974e-06
0.237 4.1359e-25 0.014375 8.8774e-07
-0.237 4.1359e-25 0.014375 7.54939e-05
0.237272 2.71051e-20 0.00906248 1.09194e-06
-0.237272 -2.71051e-20 0.00906248 4.12182e-05
0.237426 0 0.00434749 4.13765e-06
0.237272 0 0.0096875 1.10766e-06
-0.237272 0 0.00968749 5.02574e-05
-0.237433 0 0.00434764 9.63614e-06
-0.237 0 0.015 7.54192e-05
0.237 4.1359e-25 0.015 8.51271e-07
-0.237272 2.71051e-20 0.0103125 5.77994e-05
0.237272 -2.71051e-20 0.0103125 1.1036e-06
-0.237 0 0.015625 7.48611e-05
0.237 -4.1359e-25 0.015625 8.17216e-07
-0.23752 0 8.32931e-08 3.20355e-05
0.237521 -2.06795e-25 8.48621e-08 2.34187e-07
-0.237272 0 0.0109375 6.37573e-05
0.237272 0 0.0109375 1.08658e-06
0.237525 0 0.00114972 1.69132e-07
-0.237529 2.87921e-21 0.000562809 3.28345e-05
0.237529 1.57376e-21 0.000562807 1.52983e-07
-0.237533 0 0.00115011 3.2861e-05
0.237533 1.29247e-26 0.00115011 1.70623e-07
0.237538 5.61304e-21 0.00176909 5.60391e-07
-0.237538 -2.33606e-21 0.00176909 3.1736e-05
-0.237539 0 0.00214216 2.9906e-05
0.23754 0 0.0024097 1.41038e-06
-0.23754 0 0.0024097 2.85936e-05
-0.237524 -1.29247e-26 0.00370618 1.4446e-05
-0.237272 -2.71051e-20 0.0115625 6.81911e-05
0.237272 0 0.0115625 1.05794e-06
-0.237 0 0.01625 7.39093e-05
0.237 0 0.01625 7.85828e-07
0.237541 -1.71359e-20 0.00305869 2.63246e-06
-0.237541 -6.69644e-21 0.00305869 2.16705e-05
-0.237486 0 0.0062472 1.10275e-05
0.237542 2.13249e-20 0.00370687 3.92768e-06
-0.237542 -2.84214e-23 0.00370687 1.43361e-05
-0.237542 -6.46235e-27 0.0038992 1.2982e-05
-0.237543 0 0.00434987 9.80884e-06
0.237543 2.58494e-26 0.00434987 5.08401e-06
-0.237272 -2.71051e-20 0.0121875 7.1324e-05
0.237272 0 0.0121875 1.02379e-06
0.237543 -2.58494e-26 0.0045907 5.41387e-06
-0.237543 0 0.00498678 8.29468e-06
0.237543 0 0.00498678 5.95637e-06
-0.237 4.1359e-25 0.016875 7.26473e-05
0.237 4.1359e-25 0.016875 7.57089e-07
0.237544 -2.74417e-21 0.00561869 6.5916e-06
-0.237544 5.16988e-26 0.00561869 8.8518e-06
-0.237272 0 0.0128125 7.35354e-05
0.237272 2.71051e-20 0.0128125 9.85106e-07
0.237544 1.65924e-20 0.00624726 7.01336e-06
-0.237544 0 0.00624726 1.20519e-05
-0.237544 1.29247e-26 0.0065926 1.54115e-05
0.237544 1.60719e-20 0.00687391 7.23161e-06
-0.237544 0 0.00687391 1.81482e-05
-0.237 0 0.0175 7.11113e-05
0.237 0 0.0175 7.30937e-07
-0.237272 0 0.0134375 7.48261e-05
0.237272 5.42101e-20 0.0134375 9.45926e-07
0.237544 2.77689e-20 0.00749961 7.28425e-06
-0.237544 -5.16988e-26 0.00749961 2.58083e-05
0.237544 -8.29931e-21 0.00812487 7.20845e-06
-0.237544 8.71125e-22 0.00812487 3.36862e-05
-0.237272 0 0.0140625 7.54141e-05
0.237272 -5.42101e-20 0.0140625 9.06402e-07
-0.237 0 0.018125 6.93466e-05
0.237 0 0.018125 7.07156e-07
0.237544 -1.00194e-20 0.00874996 7.05336e-06
-0.237544 9.90838e-21 0.00874996 4.08297e-05
-0.237272 0 0.0146875 7.55738e-05
0.237272 0 0.0146875 8.69078e-07
0.237544 -1.3397e-20 0.00937499 6.84296e-06
-0.237544 2.00914e-20 0.00937499 4.67835e-05
-0.237402 0 0.0125 6.3386e-05
-0.237 -8.27181e-25 0.01875 6.73871e-05
0.237 0 0.01875 6.85494e-07
0.237544 -9.58537e-21 0.01 6.5965e-06
-0.237544 1.0298e-20 0.01 5.14962e-05
-0.237272 0 0.0153125 7.52646e-05
0.237272 -2.71051e-20 0.0153125 8.33463e-07
0.237544 -1.75815e-20 0.010625 6.32716e-06
-0.237544 2.48461e-20 0.010625 5.51005e-05
-0.237 8.27181e-25 0.019375 6.52643e-05
0.237 0 0.019375 6.65665e-07
-0.237799 2.71051e-20 0.000284465 4.93095e-05
0.237799 0 0.000284553 2.77684e-07
0.237272 2.71051e-20 0.0159375 8.00969e-07
-0.237272 2.71051e-20 0.0159375 7.44577e-05
-0.237544 -1.05337e-20 0.01125 5.76151e-05
0.237544 -7.12358e-21 0.01125 6.05164e-06
-0.237811 -5.42101e-20 0.000863452 4.70834e-05
0.237811 0 0.000863452 1.08583e-07
0.23782 2.71051e-20 0.00147122 4.51138e-07
-0.23782 -5.42101e-20 0.00147122 3.6332e-05
-0.237826 -8.13152e-20 0.00210431 2.63166e-05
0.237826 0 0.00210431 1.46632e-06
-0.237544 1.41766e-20 0.011875 5.9224e-05
0.237544 1.34177e-20 0.011875 5.77967e-06
0.237 0 0.02 6.47396e-07
-0.237 -4.1359e-25 0.02 6.30072e-05
-0.237829 0 0.00274869 1.73374e-05
0.237829 0 0.00274869 3.52854e-06
0.237272 -5.42101e-20 0.0165625 7.70687e-07
-0.237272 2.71051e-20 0.0165625 7.33609e-05
-0.23783 -2.71051e-20 0.00339421 1.14047e-05
0.23783 -2.71051e-20 0.00339421 6.01131e-06
0.237544 0 0.0121682 5.65814e-06
-0.237831 2.71051e-20 0.00403604 1.067e-05
0.237831 0 0.00403604 8.4793e-06
0.237544 0 0.0125 5.52064e-06
-0.237544 -2.00903e-20 0.0125 6.02063e-05
-0.237832 0 0.00467279 1.0698e-05
0.237832 -2.71051e-20 0.00467279 1.05598e-05
-0.237833 0 0.00530504 1.33384e-05
0.237833 -2.71051e-20 0.00530504 1.20032e-05
0.237272 0 0.0171875 7.43491e-07
-0.237272 0 0.0171875 7.19338e-05
0.237 0 0.020625 6.30392e-07
-0.237 -4.1359e-25 0.020625 6.06401e-05
-0.237544 -6.46235e-27 0.0130436 6.0568e-05
0.237544 0 0.013125 5.27793e-06
-0.237544 0 0.013125 6.06221e-05
-0.237833 0 0.00593404 1.81474e-05
0.237833 2.71051e-20 0.00593404 1.30608e-05
-0.237834 0 0.00656112 2.54894e-05
0.237834 -5.42101e-20 0.00656112 1.35688e-05
0.237272 -2.71051e-20 0.0178125 7.18383e-07
-0.237272 -8.13152e-20 0.0178125 7.02889e-05
0.237544 0 0.01375 5.05512e-06
-0.237544 -5.16988e-26 0.01375 6.05818e-05
-0.237834 0 0.00718692 3.30547e-05
0.237834 5.42101e-20 0.00718692 1.37808e-05
0.237 0 0.02125 6.14402e-07
-0.237 0 0.02125 5.8187e-05
0.237907 -1.29247e-26 0.00499071 1.6643e-05
-0.237834 2.71051e-20 0.00781229 3.95135e-05
0.237834 -2.71051e-20 0.00781229 1.36377e-05
0.237544 0 0.014375 4.85283e-06
-0.237544 1.03398e-25 0.014375 6.02011e-05
-0.237834 -2.71051e-20 0.00843743 4.41639e-05
0.237834 2.71051e-20 0.00843743 1.33579e-05
0.237272 5.42101e-20 0.0184375 6.9593e-07
-0.237272 -2.71051e-20 0.0184375 6.84043e-05
0.237 1.03398e-25 0.021692 6.0364e-07
-0.23799 0 0.00243355 2.69184e-05
-0.237904 6.46235e-27 0.00687421 4.3903e-05
-0.237834 0 0.00906248 4.71122e-05
0.237834 0 0.00906248 1.29263e-05
-0.237 0 0.021875 5.56677e-05
0.237 0 0.021875 5.99186e-07
-0.237544 1.03398e-25 0.015 5.95638e-05
0.237544 -1.16724e-20 0.015 4.67188e-06
-0.237834 2.71051e-20 0.0096875 4.85849e-05
0.237834 0 0.0096875 1.24597e-05
0.237272 2.71051e-20 0.0190625 6.75058e-07
-0.237272 5.42101e-20 0.0190625 6.63699e-05
-0.237544 1.03398e-25 0.015625 5.86506e-05
0.237544 1.32307e-20 0.015625 4.51103e-06
-0.237834 0 0.0103125 4.92489e-05
0.237834 -2.71051e-20 0.0103125 1.19195e-05
-0.23806 0 2.8441e-10 5.39808e-05
0.23806 0 -5.02801e-10 3.16083e-07
-0.237 4.1359e-25 0.0225 5.31017e-05
0.237 -2.06795e-25 0.0225 5.84496e-07
-0.238083 4.1359e-25 0.000570196 5.79852e-05
0.238083 2.11515e-20 0.000570195 3.05389e-07
-0.237834 0 0.0109375 4.93849e-05
0.237834 5.42101e-20 0.0109375 1.13938e-05
0.237272 -2.71051e-20 0.0196875 6.56272e-07
-0.237272 0 0.0196875 6.41587e-05
-0.237544 2.06795e-25 0.01625 5.75225e-05
0.237544 0 0.01625 4.36903e-06
-0.238097 -2.06795e-25 0.00116715 5.10102e-05
0.238097 1.00619e-20 0.00116715 8.57716e-07
-0.237834 -2.71051e-20 0.0115625 4.88159e-05
0.237834 -2.71051e-20 0.0115625 1.08537e-05
-0.238109 0 0.00179591 3.41855e-05
0.238109 5.16988e-26 0.00179591 2.86148e-06
0.237 2.06795e-25 0.023125 5.70088e-07
-0.237 2.06795e-25 0.023125 5.05039e-05
0.238117 0 0.00244027 6.50437e-06
-0.238117 -3.85535e-20 0.00244027 2.6446e-05
-0.237768 -6.46235e-27 0.013125 6.40202e-05
-0.238119 2.58494e-26 0.00283525 2.49293e-05
-0.237272 -2.71051e-20 0.0203125 6.18556e-05
0.237272 2.71051e-20 0.0203125 6.38519e-07
0.23812 0 0.00308541 1.09647e-05
-0.23812 0 0.00308541 2.39686e-05
-0.237544 0 0.016875 5.62218e-05
0.237544 -5.16988e-26 0.016875 4.24376e-06
-0.237 0 0.0233232 4.96746e-05
-0.237834 2.71051e-20 0.0121875 4.8173e-05
0.237834 5.42101e-20 0.0121875 1.03597e-05
0.238121 -1.03398e-25 0.00372595 1.54071e-05
-0.238121 0 0.00372595 2.68814e-05
-0.238121 -3.23117e-27 0.00397633 2.91403e-05
0.238122 0 0.00436151 1.9509e-05
-0.238122 -1.29247e-26 0.00436151 3.26152e-05
0.238122 2.58494e-26 0.00499302 2.29425e-05
-0.238122 0 0.00499302 3.88276e-05
-0.237834 -2.71051e-20 0.0128125 4.73379e-05
0.237834 -2.71051e-20 0.0128125 9.88205e-06
0.238123 5.70952e-21 0.00562167 2.57022e-05
-0.237 0 0.02375 4.78891e-05
0.237 0 0.02375 5.55766e-07
-0.237544 0 0.0175 5.47764e-05
0.237544 0 0.0175 4.1337e-06
-0.238123 -2.58494e-26 0.00562167 4.56645e-05
0.238123 8.07794e-28 0.00564417 2.58031e-05
-0.237272 0 0.0209375 5.94246e-05
0.237272 0 0.0209375 6.22266e-07
0.238123 7.44863e-21 0.00624853 2.77944e-05
-0.238123 0 0.00624853 5.28085e-05
-0.238092 0 0.00749976 6.31046e-05
-0.237834 0 0.0134375 4.62843e-05
0.237834 -2.71051e-20 0.0134375 9.45915e-06
0.238124 2.28466e-20 0.0068744 2.92096e-05
-0.238124 0 0.0068744 5.96368e-05
-0.237544 0 0.018125 5.32093e-05
0.237544 1.03398e-25 0.018125 4.03678e-06
0.238124 -1.34611e-20 0.00749977 3.0054e-05
-0.238124 0 0.00749977 6.52578e-05
-0.238124 -1.61559e-27 0.00771005 6.66872e-05
-0.237834 -2.71051e-20 0.0140625 4.52615e-05
0.237834 -2.71051e-20 0.0140625 9.0627e-06
-0.237272 -5.42101e-20 0.0215625 5.69495e-05
0.237272 5.42101e-20 0.0215625 6.06538e-07
-0.237 0 0.024375 4.52733e-05
0.237 0 0.024375 5.41377e-07
0.238124 3.04806e-21 0.00812492 3.0429e-05
-0.238124 0 0.00812492 6.95074e-05
-0.238255 -2.58494e-26 0.00308857 3.30161e-05
-0.237544 2.06795e-25 0.01875 5.1545e-05
0.237544 -1.03398e-25 0.01875 3.95093e-06
0.238124 1.59473e-20 0.00874998 3.04736e-05
-0.238124 -2.00575e-20 0.00874998 7.21721e-05
0.237834 -2.71051e-20 0.0146875 8.72072e-06
-0.237834 2.71051e-20 0.0146875 4.39858e-05
-0.238259 0 0.00372833 3.82289e-05
-0.237272 0 0.0221875 5.43859e-05
0.237272 2.71051e-20 0.0221875 5.91835e-07
0.238124 3.70334e-20 0.00937499 3.02477e-05
-0.238124 6.07834e-21 0.00937499 7.36343e-05
-0.237 -8.27181e-25 0.025 4.26659e-05
0.237 2.06795e-25 0.025 5.2674e-07
0.237834 -2.71051e-20 0.0153125 8.40647e-06
-0.237834 0 0.0153125 4.28408e-05
0.237544 0 0.019375 3.874e-06
-0.237544 0 0.019375 4.9799e-05
0.238124 1.42367e-20 0.01 2.9831e-05
-0.238124 -8.42253e-21 0.01 7.41457e-05
-0.238124 -7.49389e-21 0.010625 7.39231e-05
0.238124 2.94791e-20 0.010625 2.92766e-05
0.238362 2.71051e-20 0.000287929 3.5547e-07
-0.238362 2.71051e-20 0.000287929 5.87686e-05
-0.237272 2.71051e-20 0.0228125 5.18175e-05
0.237272 0 0.0228125 5.77156e-07
0.237834 0 0.0159375 8.1407e-06
-0.237834 0 0.0159375 4.14359e-05
-0.237 -8.27181e-25 0.025625 4.00827e-05
0.237 0 0.025625 5.11744e-07
0.237544 0 0.02 3.80406e-06
-0.237544 0 0.02 4.79925e-05
-0.238124 2.36637e-20 0.01125 7.31977e-05
0.238124 -1.56397e-20 0.01125 2.86413e-05
-0.238389 -2.71051e-20 0.000874094 7.76548e-05
0.238389 2.71051e-20 0.000874094 4.88035e-07
0.237834 -2.71051e-20 0.0165625 7.89712e-06
-0.237834 2.71051e-20 0.0165625 4.02259e-05
0.238408 2.71051e-20 0.00148916 2.46148e-06
-0.238408 0 0.00148916 4.25731e-05
-0.238124 1.15681e-20 0.011875 7.21172e-05
0.238124 -7.7227e-21 0.011875 2.79613e-05
-0.237272 -2.71051e-20 0.0234375 4.91903e-05
0.237272 2.71051e-20 0.0234375 5.6302e-07
0.238422 0 0.00212682 7.23905e-06
-0.238422 0 0.00212682 3.15564e-05
0.238124 6.46235e-27 0.012136 2.7672e-05
0.237544 0 0.020625 3.73917e-06
-0.237544 -5.16988e-26 0.020625 4.61377e-05
0.238429 2.71051e-20 0.00277088 1.39919e-05
-0.238429 0 0.00277088 3.09009e-05
-0.237 0 0.02625 3.75336e-05
0.237 0 0.02625 4.96272e-07
-0.238124 -2.60663e-20 0.0125 7.08642e-05
0.238124 0 0.0125 2.72684e-05
0.237834 0 0.0171875 7.69349e-06
-0.237834 -2.71051e-20 0.0171875 3.87554e-05
-0.238431 -2.71051e-20 0.0034119 3.672e-05
0.238431 0 0.0034119 2.05584e-05
0.237453 0 0.021875 3.11183e-06
-0.238431 2.71051e-20 0.00404796 4.93576e-05
0.238431 0 0.00404796 2.68647e-05
-0.238431 0 0.00467997 6.05239e-05
0.238431 -2.71051e-20 0.00467997 3.24755e-05
0.238124 -5.16988e-26 0.013125 2.65832e-05
-0.238124 -3.19934e-20 0.013125 6.94048e-05
-0.237272 -2.71051e-20 0.0240625 4.65879e-05
0.237272 5.42101e-20 0.0240625 5.48512e-07
0.238432 0 0.00530874 3.71748e-05
-0.238432 -2.71051e-20 0.00530874 7.17739e-05
0.237544 0 0.02125 3.67765e-06
-0.237544 0 0.02125 4.42529e-05
0.237834 0 0.0178125 7.50609e-06
-0.237834 5.42101e-20 0.0178125 3.75197e-05
0.238432 -2.71051e-20 0.00593583 4.11742e-05
-0.238432 0 0.00593583 8.05189e-05
-0.238124 0 0.0135349 6.83788e-05
-0.237 0 0.026875 3.50298e-05
0.237 0 0.026875 4.8026e-07
0.238124 0 0.01375 2.59246e-05
-0.238124 0 0.01375 6.78403e-05
0.238432 0 0.00656171 4.39559e-05
-0.238432 -2.71051e-20 0.00656171 8.83168e-05
0.238432 0 0.00718722 4.61267e-05
-0.238432 5.42101e-20 0.00718722 9.28424e-05
0.237834 0 0.0184375 7.35064e-06
-0.237834 0 0.0184375 3.60239e-05
-0.237544 0 0.021875 4.23504e-05
0.237544 -1.9683e-20 0.021875 3.61796e-06
-0.237272 -2.71051e-20 0.0246875 4.39586e-05
0.237272 2.71051e-20 0.0246875 5.34242e-07
0.238124 5.16988e-26 0.014375 2.53033e-05
-0.238124 2.58494e-26 0.014375 6.61566e-05
-0.238432 2.71051e-20 0.00781239 9.67479e-05
0.238432 5.42101e-20 0.00781239 4.73079e-05
-0.237456 2.58494e-26 0.023125 4.04898e-05
0.238432 0 0.00843746 4.80754e-05
-0.238432 2.71051e-20 0.00843746 9.86869e-05
-0.237 -8.27181e-25 0.0275 3.25824e-05
0.237 0 0.0275 4.63634e-07
-0.238124 0 0.015 6.44118e-05
0.238124 0 0.015 2.47282e-05
0.237544 6.46235e-27 0.0223821 3.56967e-06
0.237834 -2.71051e-20 0.0190625 7.20363e-06
-0.237834 2.71051e-20 0.0190625 3.47922e-05
-0.238432 2.71051e-20 0.00906249 9.97656e-05
0.238433 0 0.00906249 4.82143e-05
-0.237544 4.02545e-21 0.0225 4.04502e-05
0.237544 0 0.0225 3.55845e-06
-0.237272 -2.71051e-20 0.0253125 4.13733e-05
0.237272 2.71051e-20 0.0253125 5.19237e-07
-0.237544 1.29247e-26 0.0227211 3.97819e-05
-0.238432 -2.71051e-20 0.0096875 0.000100086
0.238432 2.71051e-20 0.0096875 4.80793e-05
0.238631 -4.1359e-25 4.63152e-09 3.95116e-07
-0.238631 0 1.52166e-09 5.86689e-05
-0.238124 -5.16988e-26 0.015625 6.25981e-05
0.238124 1.5785e-20 0.015625 2.42019e-05
0.237834 2.71051e-20 0.0196875 7.08044e-06
-0.237834 2.71051e-20 0.0196875 3.32997e-05
-0.238432 0 0.0103125 9.96527e-05
0.238433 0 0.0103125 4.7558e-05
-0.237 0 0.028125 3.0199e-05
0.237 0 0.028125 4.46372e-07
-0.237544 -1.31301e-20 0.023125 3.85614e-05
0.237544 3.25132e-21 0.023125 3.4977e-06
-0.238672 -8.27181e-25 0.00057569 7.5312e-05
0.238672 -1.40724e-20 0.000575687 5.53294e-07
-0.238124 5.16988e-26 0.01625 6.07548e-05
0.238124 0 0.01625 2.37258e-05
0.237544 -1.29247e-26 0.023246 3.48547e-06
0.237497 0 0.02375 3.18779e-06
-0.238433 0 0.0109375 9.83715e-05
0.238433 -2.71051e-20 0.0109375 4.69269e-05
-0.237272 -2.71051e-20 0.0259375 3.87921e-05
0.237272 2.71051e-20 0.0259375 5.0425e-07
0.23744 0 0.024375 2.8255e-06
-0.237834 2.71051e-20 0.0203125 3.20973e-05
0.237834 0 0.0203125 6.95849e-06
-0.238565 1.61559e-27 0.00812496 0.000108394
0.238622 0 0.00624927 4.60284e-05
-0.238701 4.1359e-25 0.00117836 7.79156e-05
0.238701 -1.31444e-21 0.00117836 2.14674e-06
-0.238432 -2.71051e-20 0.0115625 9.7164e-05
0.238433 -2.71051e-20 0.0115625 4.60784e-05
-0.238124 0 0.016875 5.88748e-05
0.238124 1.29247e-26 0.016875 2.32976e-05
0.237415 0 0.025 2.64184e-06
-0.237544 -2.47141e-21 0.02375 3.66832e-05
0.237544 2.58494e-26 0.02375 3.43456e-06
-0.238723 0 0.00181179 5.88043e-05
0.238723 -1.29247e-26 0.00181179 6.63599e-06
-0.237 4.1359e-25 0.02875 2.789e-05
0.237 2.06795e-25 0.02875 4.28479e-07
-0.238432 -2.71051e-20 0.0121875 9.52429e-05
0.238432 2.71051e-20 0.0121875 4.52345e-05
-0.238737 0 0.00245721 5.71289e-05
0.238737 0 0.00245721 1.35446e-05
-0.237834 -2.71051e-20 0.0209375 3.06338e-05
0.237834 -2.71051e-20 0.0209375 6.85311e-06
-0.237272 0 0.0265625 3.6275e-05
0.237272 -2.71051e-20 0.0265625 4.88293e-07
-0.238742 5.16988e-26 0.00309995 6.55798e-05
0.238742 0 0.00309995 2.09155e-05
-0.238124 1.03398e-25 0.0175 5.69853e-05
0.238124 -1.29247e-26 0.0175 2.29146e-05
0.238742 0 0.00373666 2.79711e-05
-0.238742 0 0.00373666 7.79947e-05
-0.238432 5.42101e-20 0.0128125 9.36098e-05
0.238433 0 0.0128125 4.42703e-05
0.238741 -2.58494e-26 0.0043684 3.46493e-05
-0.238741 1.29247e-26 0.0043684 8.98062e-05
0.237668 -3.23117e-27 0.023125 7.11663e-06
-0.237544 -4.24191e-20 0.024375 3.48394e-05
0.237544 0 0.024375 3.36817e-06
0.238741 0 0.00499695 4.06716e-05
-0.238741 0 0.00499695 0.000100211
0.23742 0 0.025625 2.60621e-06
-0.237 -4.1359e-25 0.0292779 2.60103e-05
0.238741 -1.74597e-20 0.00562368 4.60295e-05
-0.238741 0 0.00562368 0.000108835
-0.237834 5.42101e-20 0.0215625 2.94854e-05
0.237834 -2.71051e-20 0.0215625 6.74272e-06
-0.238432 -2.71051e-20 0.0134375 9.12737e-05
0.238433 0 0.0134375 4.33848e-05
-0.238124 1.03398e-25 0.018125 5.50807e-05
0.238124 2.58494e-26 0.018125 2.25713e-05
0.237 -2.06795e-25 0.029375 4.09985e-07
-0.237 0 0.029375 2.56643e-05
0.237755 -1.29247e-26 0.0225 9.80454e-06
-0.238741 0 0.00624945 0.000115308
0.238741 0 0.00624945 5.03736e-05
-0.237272 2.71051e-20 0.0271875 3.37846e-05
0.237272 0 0.0271875 4.72226e-07
-0.237 -3.10193e-25 0.0295184 2.5174e-05
0.238741 -3.23117e-27 0.00666769 5.26763e-05
-0.238741 -6.46235e-27 0.00687478 0.000119781
0.238741 1.52607e-20 0.00687478 5.38165e-05
-0.238432 -2.71051e-20 0.0140625 8.94077e-05
0.238432 -2.71051e-20 0.0140625 4.24455e-05
-0.237544 2.59755e-21 0.025 3.30155e-05
0.237544 0 0.025 3.29745e-06
0.238741 5.69617e-21 0.00749992 5.63906e-05
-0.238741 -6.46235e-27 0.00749992 0.000122446
-0.238124 -5.16988e-26 0.01875 5.31803e-05
0.238124 0 0.01875 2.22622e-05
-0.237834 0 0.0221875 2.80851e-05
0.237834 2.71051e-20 0.0221875 6.6431e-06
0.238741 4.11099e-20 0.00812497 5.81828e-05
-0.238741 0 0.00812497 0.000123884
0.238432 -2.71051e-20 0.0146875 4.16284e-05
-0.238432 -2.71051e-20 0.0146875 8.68164e-05
-0.237 4.1359e-25 0.03 2.35271e-05
0.237 -1.03398e-25 0.03 3.90917e-07
0.237445 5.16988e-26 0.02625 2.65904e-06
-0.238741 -1.21169e-27 0.00861111 0.000124149
0.237272 -5.42101e-20 0.0278125 4.55042e-07
-0.237272 5.42101e-20 0.0278125 3.13802e-05
0.238741 -1.80708e-20 0.00874999 5.93968e-05
-0.238741 0 0.00874999 0.000124225
0.237 0 0.0300806 3.8839e-07
0.238124 0 0.019375 2.19805e-05
-0.238124 5.16988e-26 0.019375 5.12772e-05
-0.237544 -1.12346e-20 0.025625 3.12272e-05
0.237544 -5.16988e-26 0.025625 3.22203e-06
-0.238432 -2.71051e-20 0.0153125 8.48283e-05
0.238432 2.71051e-20 0.0153125 4.07916e-05
0.238741 -8.45744e-21 0.009375 6.01088e-05
-0.238741 3.56585e-20 0.009375 0.000123644
-0.237834 -2.71051e-20 0.0228125 2.70413e-05
0.237834 5.42101e-20 0.0228125 6.53241e-06
-0.237 -2.06795e-25 0.0303451 2.24026e-05
0.238928 -1.29247e-26 0.00180987 7.34718e-06
0.238741 -4.83733e-22 0.01 6.04435e-05
-0.238741 -2.63671e-20 0.01 0.000122526
0.238956 5.42101e-20 0.000288814 4.35723e-07
-0.238956 -2.71051e-20 0.000288814 5.85668e-05
0.238124 -1.03398e-25 0.02 2.17196e-05
-0.238124 -2.58494e-26 0.02 4.93874e-05
0.238432 -2.71051e-20 0.0159375 4.00939e-05
-0.238432 2.71051e-20 0.0159375 8.20903e-05
0.237272 0 0.0284375 4.37702e-07
-0.237272 0 0.0284375 2.90177e-05
0.237 0 0.030625 3.71327e-07
-0.237 0 0.030625 2.14907e-05
-0.238741 -2.87419e-21 0.010625 0.000120713
0.238741 2.17859e-22 0.010625 6.04685e-05
-0.237834 2.71051e-20 0.0234375 2.57522e-05
0.237834 2.71051e-20 0.0234375 6.42719e-06
0.237471 7.75482e-26 0.026875 2.70809e-06
-0.237544 6.31139e-22 0.02625 2.94783e-05
0.237544 0 0.02625 3.14138e-06
-0.239 2.71051e-20 0.000876671 0.000107774
0.239 2.71051e-20 0.000876671 9.51628e-07
0.238992 -1.29247e-26 0.00245395 1.50837e-05
-0.238741 2.42302e-21 0.01125 0.000118592
0.238741 6.41491e-22 0.01125 6.0268e-05
-0.238432 -2.71051e-20 0.0165625 8.00489e-05
0.238433 0 0.0165625 3.93879e-05
-0.237949 6.46235e-27 0.0225 4.15294e-05
0.238124 1.03398e-25 0.020625 2.14721e-05
-0.238124 6.46235e-27 0.020625 4.75056e-05
0.239031 2.71051e-20 0.00149329 4.78262e-06
-0.239031 2.71051e-20 0.00149329 8.3785e-05
-0.238741 2.24936e-20 0.011875 0.000116141
0.238741 2.29496e-20 0.011875 5.99003e-05
0.237272 0 0.0290625 4.19257e-07
-0.237272 -2.71051e-20 0.0290625 2.67621e-05
0.238741 0 0.0120684 5.97501e-05
-0.237834 -5.42101e-20 0.0240625 2.47854e-05
0.237834 0 0.0240625 6.30666e-06
0.238432 0 0.0171875 3.88202e-05
-0.238432 2.71051e-20 0.0171875 7.72296e-05
0.237 0 0.03125 3.51329e-07
-0.237 0 0.03125 1.95574e-05
-0.237544 -1.32138e-20 0.026875 2.77729e-05
0.237544 2.58494e-26 0.026875 3.05542e-06
-0.239054 2.71051e-20 0.0021315 7.78885e-05
0.239054 -2.71051e-20 0.0021315 1.21411e-05
-0.238124 -1.61559e-27 0.0211991 4.5795e-05
-0.23812 9.69352e-27 0.02125 4.56418e-05
-0.237256 1.03398e-25 0.029375 2.36991e-05
-0.238741 2.27322e-20 0.0125 0.000113502
0.238741 0 0.0125 5.94151e-05
0.238124 0 0.02125 2.12319e-05
0.237494 2.58494e-26 0.0275 2.73211e-06
0.239065 2.71051e-20 0.00277514 2.07989e-05
-0.239065 2.71051e-20 0.00277515 8.8764e-05
-0.239066 0 0.00341637 0.000106565
0.239066 -2.71051e-20 0.00341637 2.83022e-05
-0.238432 -2.71051e-20 0.0178125 7.51764e-05
0.238433 0 0.0178125 3.82397e-05
0.239063 -5.42101e-20 0.00405176 3.61832e-05
-0.239063 -2.71051e-20 0.00405176 0.000120029
0.238741 -1.54988e-21 0.013125 5.88562e-05
-0.238741 3.76649e-20 0.013125 0.000110665
-0.238104 -1.61559e-27 0.021875 4.37485e-05
0.239062 5.42101e-20 0.00468248 4.31479e-05
-0.239062 -5.42101e-20 0.00468248 0.00013006
-0.237834 2.71051e-20 0.0246875 2.36375e-05
0.237834 2.71051e-20 0.0246875 6.18847e-06
0.239061 0 0.00531037 4.99943e-05
-0.239061 0 0.00531037 0.000139185
-0.237272 0 0.0296875 2.45665e-05
0.237272 0 0.0296875 4.00713e-07
0.237235 -5.16988e-26 0.03 1.32034e-06
0.238124 0 0.021875 2.09922e-05
-0.238124 -5.19057e-21 0.021875 4.37987e-05
-0.237544 8.54105e-21 0.0275 2.61209e-05
0.237544 0 0.0275 2.96388e-06
-0.238741 1.61559e-27 0.0136813 0.000108052
0.237 -8.27181e-25 0.031875 3.31046e-07
-0.237 0 0.031875 1.77275e-05
0.23906 2.71051e-20 0.0059367 5.59132e-05
-0.23906 -5.42101e-20 0.0059367 0.000144549
0.238741 -4.22283e-21 0.01375 5.82564e-05
-0.238741 0 0.01375 0.000107729
-0.238432 -2.71051e-20 0.0184375 7.23213e-05
0.238432 -2.71051e-20 0.0184375 3.7783e-05
-0.23906 0 0.00656221 0.00014853
0.23906 -5.42101e-20 0.00656221 6.06228e-05
-0.23906 5.42101e-20 0.0071874 0.000150101
0.23906 -5.42101e-20 0.0071874 6.47609e-05
0.237511 -3.87741e-26 0.028125 2.72004e-06
0.238741 -1.29247e-26 0.014375 5.76453e-05
-0.238741 0 0.014375 0.000104685
-0.237834 0 0.0253125 2.27335e-05
0.237834 0 0.0253125 6.05096e-06
0.23916 -2.58494e-26 0.0030969 2.39898e-05
0.238124 -4.14239e-21 0.0225 2.07466e-05
-0.238124 -6.6503e-21 0.0225 4.19968e-05
-0.23906 0 0.00781246 0.000150743
0.23906 0 0.00781246 6.75943e-05
-0.238432 0 0.0190625 7.02815e-05
0.238432 0 0.0190625 3.72996e-05
-0.237272 0 0.0303125 2.24877e-05
0.237272 0 0.0303125 3.81121e-07
-0.237544 3.24317e-21 0.028125 2.45167e-05
0.237544 -1.29247e-26 0.028125 2.8669e-06
-0.23906 2.71051e-20 0.00843749 0.000149975
0.23906 0 0.00843749 7.00011e-05
-0.238741 0 0.015 0.000101591
0.238741 1.37357e-20 0.015 5.70407e-05
0.237 0 0.0325 3.10614e-07
-0.237 0 0.0325 1.60076e-05
0.23912 0 0.00687486 6.1468e-05
-0.239232 -1.65436e-24 1.00757e-08 5.96721e-05
0.239232 8.27181e-25 5.78724e-09 4.7983e-07
0.23906 0 0.0090625 7.15623e-05
-0.23906 2.71051e-20 0.0090625 0.000149063
0.238432 0 0.0196875 3.69208e-05
-0.238432 0 0.0196875 6.74118e-05
-0.237834 2.71051e-20 0.0259375 2.16801e-05
0.237834 2.71051e-20 0.0259375 5.91456e-06
-0.238124 -1.97687e-20 0.023125 4.0238e-05
0.238124 0 0.023125 2.0489e-05
-0.238741 1.29247e-26 0.015625 9.84487e-05
0.238741 0 0.015625 5.64587e-05
-0.239094 0 0.00875 0.000147593
0.239061 0 0.0096875 7.28621e-05
-0.239061 -2.71051e-20 0.0096875 0.000146221
0.237531 0 0.02875 2.70801e-06
-0.237544 -1.76897e-20 0.02875 2.29652e-05
0.237544 0 0.02875 2.7648e-06
-0.237272 0 0.0309375 2.04937e-05
0.237272 0 0.0309375 3.61533e-07
0.239061 -2.71051e-20 0.0103125 7.35733e-05
-0.239061 2.71051e-20 0.0103125 0.000144681
-0.238393 -1.61559e-27 0.020625 5.88266e-05
0.237479 -1.03398e-25 0.029375 2.39056e-06
-0.239291 0 0.000573875 9.8801e-05
0.239291 -3.20783e-20 0.000573866 7.33089e-07
-0.238741 0 0.01625 9.52914e-05
0.238741 -3.23117e-27 0.01625 5.59068e-05
0.238432 2.71051e-20 0.0203125 3.64955e-05
-0.238432 -2.71051e-20 0.0203125 6.53958e-05
0.237 0 0.033125 2.90159e-07
-0.237 -8.27181e-25 0.033125 1.43987e-05
-0.238124 3.16331e-20 0.02375 3.853e-05
0.238124 0 0.02375 2.02144e-05
0.239061 0 0.0109375 7.41286e-05
-0.239061 2.71051e-20 0.0109375 0.000140659
0.237834 0 0.0265625 5.75686e-06
-0.237834 0 0.0265625 2.08662e-05
0.239294 -1.9387e-26 0.0037352 3.27901e-05
-0.238741 -2.58494e-26 0.016875 9.2122e-05
0.238741 -3.23117e-27 0.016875 5.5391e-05
-0.239335 0 0.00117391 0.00013173
0.239335 1.70171e-20 0.00117392 2.94661e-06
0.23906 0 0.0115625 7.42636e-05
-0.239061 0 0.0115625 0.000138667
0.238432 -2.71051e-20 0.0209375 3.61532e-05
-0.238432 2.71051e-20 0.0209375 6.25288e-05
-0.237544 -5.78447e-21 0.029375 2.14806e-05
0.237544 -2.58494e-26 0.029375 2.65803e-06
0.239356 0 0.00159183 6.86151e-06
-0.237272 2.71051e-20 0.0315625 1.8621e-05
0.237272 -2.71051e-20 0.0315625 3.41126e-07
-0.238124 -1.76968e-20 0.024375 3.68709e-05
0.238124 0 0.024375 1.99196e-05
0.239061 2.71051e-20 0.0121875 7.43613e-05
-0.239061 2.71051e-20 0.0121875 0.000133961
-0.239367 8.27181e-25 0.00180576 0.000119951
0.239367 0 0.00180576 8.86554e-06
-0.238741 0 0.0175 8.89536e-05
0.238741 0 0.0175 5.49104e-05
0.237834 0 0.0271875 5.60017e-06
-0.237834 -5.42101e-20 0.0271875 1.98956e-05
0.237 0 0.03375 2.69864e-07
-0.237 0 0.03375 1.28947e-05
-0.239388 0 0.00244888 0.000123111
0.239388 2.58494e-26 0.00244888 1.74726e-05
0.23906 0 0.0128125 7.41407e-05
-0.239061 -2.71051e-20 0.0128125 0.000131645
0.238432 0 0.0215625 3.57449e-05
-0.238432 2.71051e-20 0.0215625 6.0537e-05
-0.239391 0 0.00309523 0.000133431
0.239391 0 0.00309522 2.56888e-05
-0.239387 -1.03398e-25 0.00373495 0.000145946
0.239387 0 0.00373495 3.35982e-05
0.239384 -1.61559e-27 0.0041834 3.90584e-05
-0.239383 -5.16988e-26 0.00436802 0.000154889
0.239383 0 0.00436802 4.13062e-05
-0.238741 2.58494e-26 0.018125 8.57997e-05
0.238741 0 0.018125 5.4463e-05
0.237544 -1.03398e-25 0.03 2.5469e-06
-0.237544 -1.22006e-20 0.03 2.00467e-05
-0.238124 -1.29253e-20 0.025 3.52701e-05
0.238124 0 0.025 1.9599e-05
-0.239381 2.58494e-26 0.00499721 0.000161829
0.239381 -6.46235e-27 0.00499721 4.86959e-05
0.239061 0 0.0134375 7.39842e-05
-0.239061 -2.71051e-20 0.0134375 0.000126562
-0.237272 0 0.0321875 1.6834e-05
0.237272 -2.71051e-20 0.0321875 3.20966e-07
-0.23938 0 0.00562396 0.000166187
0.23938 0 0.00562396 5.56772e-05
0.237834 0 0.0278125 5.42113e-06
-0.237834 -2.71051e-20 0.0278125 1.91826e-05
-0.23938 0 0.0062497 0.000168867
0.23938 3.23117e-27 0.0062497 6.16133e-05
0.238432 -5.42101e-20 0.0221875 3.53993e-05
-0.238432 0 0.0221875 5.76764e-05
0.239347 0 0.00749998 7.01239e-05
-0.237502 0 0.030625 1.89097e-05
0.23906 0 0.0140625 7.35739e-05
-0.239061 2.71051e-20 0.0140625 0.000124083
-0.238741 0 0.01875 8.26657e-05
0.238741 0 0.01875 5.40434e-05
-0.23938 3.23117e-27 0.00687491 0.000169729
0.23938 0 0.00687491 6.67087e-05
-0.237 0 0.034375 1.14879e-05
0.237 0 0.034375 2.4988e-07
0.239449 -1.61559e-27 0.00436714 4.15161e-05
-0.23938 0 0.00749998 0.000169711
0.23938 0 0.00749998 7.08683e-05