# kMean  POINT_DATA 13056
# x  y  z  kMean
-1.93744e-27 -0.01 1.38404e-07 1.57967e-08
0 0.01 8.31199e-08 1.67964e-08
0 0.01 0.00067832 1.83374e-08
0 -0.01 0.00067832 1.73388e-08
3.10193e-25 0.0100155 0.000677146 1.88886e-08
2.58494e-26 -0.0100173 0.000677006 1.79133e-08
0 0.01 0.00137372 1.93741e-08
2.06795e-25 -0.01 0.00137372 1.84147e-08
1.03398e-24 0.0100736 0.00135825 1.86042e-08
0 -0.010074 0.00135817 1.76738e-08
1.57772e-30 -0.01 0.002087 2.15349e-08
7.88861e-31 0.01 0.002087 2.26009e-08
0 -0.0102613 0.000329046 1.57966e-08
0 0.0102613 0.000329046 1.67964e-08
5.42101e-20 0.0102561 0.000988366 1.98997e-08
0 -0.0102561 0.000988366 1.89022e-08
0 0.0102356 0.00161953 1.8841e-08
0 -0.0102356 0.00161953 1.79203e-08
2.06795e-25 0.0105293 8.68458e-08 5.83791e-08
2.06795e-25 -0.0105293 8.80408e-08 5.46618e-08
-2.06795e-25 -0.0105286 0.000176899 4.9164e-08
-3.39558e-21 0.0105268 0.000638363 3.7106e-08
-1.3378e-20 -0.0105268 0.000638363 3.48154e-08
-8.27181e-25 0.0105159 0.00126532 1.3978e-08
-2.02907e-21 -0.0105159 0.0012653 1.32483e-08
2.02924e-20 0.0105028 0.0017228 1.70413e-08
-9.24126e-21 -0.0105028 0.0017228 1.62293e-08
-2.71051e-20 0.010496 0.00202291 2.59365e-08
0 -0.010496 0.00202291 2.47417e-08
0 0.0104977 0.00235078 3.18226e-08
0 -0.0104977 0.00235077 3.04405e-08
0 -0.0108033 0.000314595 9.40469e-08
-2.71051e-20 0.0108033 0.000314595 1.00518e-07
2.71051e-20 0.0108031 0.00093799 1.20648e-08
-2.71051e-20 -0.0108031 0.00093799 1.13225e-08
2.71051e-20 -0.01079 0.00152732 5.1852e-09
2.71051e-20 0.01079 0.00152732 5.4645e-09
0 0.0110754 7.74069e-09 1.14702e-07
0 -0.0110754 5.27285e-09 1.07991e-07
0 -0.0110772 7.95759e-05 1.01991e-07
0 0.0110889 0.000613667 6.55412e-08
-1.93924e-20 -0.0110889 0.000613667 6.17174e-08
-5.42101e-20 0.0108991 0.00228385 3.7661e-08
2.71051e-20 -0.0108991 0.00228385 3.60932e-08
2.72606e-20 -0.010988 0.00190081 1.61672e-08
3.30872e-24 0.010988 0.00190078 1.69016e-08
2.70323e-21 -0.0110831 0.00123266 9.67496e-09
0 0.0110831 0.00123268 1.02372e-08
1.03398e-25 -0.0112621 3.77028e-09 1.15649e-07
-6.61744e-24 0.0109863 0.00260985 4.02008e-08
0 -0.0109863 0.00260985 3.86415e-08
5.42101e-20 0.0113733 0.000305239 1.29178e-07
0 -0.0113733 0.000305239 1.22223e-07
0 -0.0113913 0.000918847 1.73291e-08
-2.71051e-20 0.0113913 0.000918847 1.83275e-08
1.58819e-20 0.0112123 0.00231934 2.96736e-08
-1.34797e-20 -0.0112123 0.00231934 2.8524e-08
2.71051e-20 -0.0113682 0.00155884 4.99346e-09
0 0.0113682 0.00155884 5.22711e-09
0 -0.0114039 0.00209577 8.0937e-09
0 0.0114039 0.00209577 8.42221e-09
0 -0.0113392 0.00255892 4.11544e-08
2.71051e-20 0.0113392 0.00255892 4.27054e-08
0 -0.0116471 3.55939e-09 1.31447e-07
0 0.0116471 3.19951e-09 1.39197e-07
-1.00354e-20 -0.0116865 0.000598051 7.62857e-08
-8.27181e-25 0.0116865 0.000598049 8.07582e-08
-2.19368e-21 -0.0117045 0.00122297 1.3786e-08
0 0.0117045 0.00122299 1.44533e-08
-6.61744e-24 0.0114599 0.00285977 7.10323e-08
-6.61744e-24 -0.0114598 0.00285975 6.87255e-08
3.88775e-21 -0.0117133 0.00184588 1.01698e-08
0 0.0117133 0.00184592 1.04614e-08
3.13137e-20 -0.0116596 0.00239949 4.11458e-08
0 0.0116596 0.00239948 4.24967e-08
-2.71051e-20 0.0119676 0.000293859 1.49401e-07
5.42101e-20 -0.0119676 0.000293859 1.40842e-07
2.71051e-20 -0.0120131 0.000895955 2.15581e-08
-2.71051e-20 0.0120131 0.000895955 2.27382e-08
0 -0.0120433 0.00152444 1.08474e-08
-2.71051e-20 0.0120433 0.00152444 1.1079e-08
0 0.0118604 0.00273056 9.88887e-08
0 -0.0118604 0.00273056 9.58384e-08
0 0.0120387 0.00217273 1.74207e-08
2.71051e-20 -0.0120387 0.00217273 1.70509e-08
-8.27181e-25 -0.0122418 4.68912e-09 1.48809e-07
0 0.0122418 1.66918e-09 1.58135e-07
-6.61744e-24 0.0119119 0.00310459 1.04915e-07
-6.61744e-24 -0.0119119 0.00310459 1.01968e-07
2.12569e-20 -0.0123043 0.000568948 8.80549e-08
-1.03398e-25 0.0123043 0.000568944 9.34108e-08
1.03398e-25 0.0123971 0.000559198 1.00415e-07
9.03612e-21 -0.01236 0.00118123 2.25384e-08
0 0.01236 0.00118124 2.31484e-08
4.1359e-25 0.0124373 1.54461e-10 1.78659e-07
2.13313e-20 -0.0123814 0.00184432 2.24738e-08
0 0.0123814 0.00184434 2.23644e-08
0 -0.0125711 0.000269457 1.56858e-07
0 0.0125711 0.000269458 1.66957e-07
-8.66554e-21 -0.0123374 0.00258488 5.85602e-08
-2.46434e-20 0.0123374 0.00258488 5.9759e-08
2.71051e-20 0.0122817 0.00299995 1.10844e-07
2.71051e-20 -0.0122817 0.00299995 1.08e-07
0 -0.0126475 0.000839062 2.88248e-08
-2.71051e-20 0.0126475 0.000839063 3.01259e-08
0 0.0123472 0.00333734 1.07478e-07
0 -0.0123472 0.00333734 1.05006e-07
2.71051e-20 0.0127108 0.0014705 2.83536e-08
0 -0.0127108 0.0014705 2.86459e-08
0 0.0127518 0.00112259 4.3428e-08
1.65436e-24 -0.0128491 7.71817e-09 2.09899e-07
4.1359e-25 0.0128491 2.48242e-09 2.21903e-07
2.71051e-20 0.0127172 0.00217074 3.28621e-08
2.71051e-20 -0.0127172 0.00217074 3.36138e-08
1.3852e-20 -0.0129129 0.000505056 1.32665e-07
0 0.0129129 0.000505055 1.39336e-07
-1.97365e-20 -0.0125922 0.00303079 8.0492e-08
-3.70742e-21 0.0125922 0.00303079 8.21893e-08
-4.94985e-21 -0.0130203 0.00108239 5.7352e-08
-1.23304e-20 0.0130203 0.0010824 5.73256e-08
-5.42101e-20 -0.012793 0.00278388 2.93988e-08
2.71051e-20 0.012793 0.00278388 2.94968e-08
-2.71051e-20 -0.0127108 0.00327268 1.02053e-07
2.71051e-20 0.0127108 0.00327268 1.04157e-07
0 -0.0131383 0.000218118 2.63088e-07
2.71051e-20 0.0131383 0.000218118 2.77004e-07
0 0.0130692 0.00171594 8.18935e-08
-1.88821e-20 -0.013073 0.00176509 8.58517e-08
0 0.013073 0.0017651 8.37997e-08
2.58494e-26 0.0130931 0.00176192 9.06662e-08
0 0.0127674 0.00356123 1.12423e-07
0 -0.0127674 0.00356123 1.10482e-07
0 0.0132689 0.000719695 7.00615e-08
-2.71051e-20 -0.0132689 0.000719694 6.93839e-08
0 -0.0130872 0.00246808 8.28657e-08
-4.1359e-25 0.0130872 0.00246808 8.0749e-08
1.43499e-20 -0.0133747 0.000406315 2.40752e-07
1.524e-20 0.0133747 0.000406311 2.4426e-07
3.30872e-24 -0.0134599 1.1061e-08 3.27077e-07
0 0.0134599 2.11019e-13 3.31694e-07
1.27287e-20 -0.0130916 0.00314268 8.04575e-08
0 0.0130916 0.00314268 8.07002e-08
-2.71051e-20 -0.0134186 0.00131377 1.01373e-07
0 0.0134186 0.00131377 9.95138e-08
0 0.0133031 0.00245086 1.76793e-07
2.71051e-20 0.013075 0.00349045 1.20606e-07
-5.42101e-20 -0.013075 0.00349045 1.18828e-07
-5.42101e-20 -0.0134232 0.00207248 1.76559e-07
2.71051e-20 0.0134232 0.00207248 1.71413e-07
0 0.0131963 0.00330884 8.86092e-08
2.06795e-25 -0.0132124 0.00333436 8.9234e-08
0 0.0132965 0.0031224 1.2475e-07
2.71051e-20 -0.0136984 0.000300344 3.9108e-07
0 0.0136984 0.000300344 3.86396e-07
0 0.013418 0.00277569 9.76668e-08
5.42101e-20 -0.013418 0.00277569 1.00639e-07
-2.06795e-25 0.0131762 0.0037788 1.26382e-07
0 -0.0131762 0.0037788 1.24788e-07
3.10193e-25 -0.0132273 0.00369735 1.16134e-07
2.06795e-25 0.0132292 0.00369443 1.17198e-07
0 -0.0133968 0.00311247 1.49083e-07
2.74459e-20 -0.0137612 0.00078614 2.9494e-07
4.44361e-21 0.0137612 0.000786141 2.94704e-07
-3.61916e-20 0.0133341 0.00352736 9.90105e-08
-4.1359e-25 -0.0133341 0.00352736 9.80708e-08
0 -0.0132735 0.00383757 1.51285e-07
-4.1359e-25 0.0132832 0.00384344 1.55563e-07
-4.1905e-21 -0.0137678 0.00165537 3.28426e-07
-6.50164e-22 0.0137678 0.00165537 3.20933e-07
2.71051e-20 0.013482 0.00331696 4.39816e-08
2.71051e-20 -0.013482 0.00331696 4.4352e-08
3.33015e-20 0.0137484 0.00241532 3.74936e-07
0 -0.0137484 0.00241533 3.85876e-07
0 -0.013458 0.00374223 1.30709e-07
0 0.013458 0.00374223 1.3212e-07
4.1359e-25 -0.0137485 0.00262819 3.3521e-07
-3.30872e-24 -0.014071 -1.61666e-15 4.86318e-07
0 0.014071 3.38398e-08 4.8904e-07
-6.42223e-21 0.0137488 0.00307761 2.22015e-07
0 -0.0137488 0.00307762 2.2823e-07
0 -0.0135651 0.00401367 2.30688e-07
0 0.0135651 0.00401367 2.32405e-07
-2.71051e-20 -0.0141231 0.00120897 3.47606e-07
2.71051e-20 0.0141231 0.00120897 3.4319e-07
-8.47364e-21 0.0137164 0.00361035 1.7607e-07
8.27181e-25 -0.0137164 0.00361035 1.76411e-07
-5.42101e-20 -0.014089 0.00201377 6.75656e-07
-2.71051e-20 0.014089 0.00201377 6.57719e-07
-2.71051e-20 -0.0142657 0.000418225 5.82512e-07
-2.71051e-20 0.0142657 0.000418225 5.92718e-07
-2.71051e-20 -0.014069 0.0027392 6.00147e-07
2.71051e-20 0.014069 0.0027392 5.82283e-07
0 0.0138967 0.00392747 3.32288e-07
0 -0.0138967 0.00392747 3.30264e-07
-5.42101e-20 0.0140496 0.00340311 2.00252e-07
2.71051e-20 -0.0140496 0.00340311 2.05091e-07
-2.82251e-20 0.014441 0.00161389 1.08016e-06
-2.5593e-20 -0.014441 0.00161389 1.10435e-06
-2.25754e-20 -0.0145429 0.000823391 8.80776e-07
-1.51506e-20 0.0145429 0.000823383 8.78043e-07
8.27181e-25 -0.0139237 0.00428406 3.47708e-07
8.27181e-25 0.0139237 0.00428406 3.49654e-07
1.4785e-20 0.014397 0.00237993 1.38159e-06
0 -0.014397 0.00237994 1.4195e-06
2.06795e-25 -0.0143809 0.0027439 1.21655e-06
2.09707e-20 0.0143653 0.00309536 9.91823e-07
0 -0.0143653 0.00309537 1.02056e-06
-6.61744e-24 -0.0147021 5.53624e-08 9.28724e-07
6.61744e-24 0.0147022 5.46449e-08 9.37218e-07
-2.01253e-20 0.014305 0.00382188 4.3309e-07
0 -0.014305 0.00382189 4.39941e-07
-2.71051e-20 -0.0142451 0.00421792 3.65112e-07
0 0.0142451 0.00421792 3.66982e-07
5.42101e-20 0.0147298 0.00200539 1.98007e-06
0 -0.0147298 0.00200539 2.02982e-06
0 0.0148165 0.00124392 1.28899e-06
-2.71051e-20 -0.0148165 0.00124392 1.31226e-06
2.71051e-20 0.014711 0.00272495 2.29166e-06
0 -0.014711 0.00272495 2.35718e-06
-2.71051e-20 0.0149558 0.000461599 1.2603e-06
0 -0.0149558 0.000461599 1.2534e-06
8.27181e-25 -0.0142802 0.00455258 3.64778e-07
-8.27181e-25 0.0142802 0.00455258 3.66395e-07
0 0.0146561 0.00344874 9.93033e-07
0 -0.0146561 0.00344874 1.02263e-06
7.38093e-21 -0.014516 0.0042716 3.51003e-07
1.6853e-20 0.014516 0.0042716 3.49928e-07
8.52327e-21 -0.0150862 0.00165186 2.74798e-06
-3.18961e-21 0.0150862 0.00165186 2.68859e-06
2.71051e-20 -0.014707 0.0040482 3.22469e-07
-5.42101e-20 0.014707 0.0040482 3.15823e-07
3.49749e-20 0.0151175 0.00230445 3.94079e-06
2.31379e-20 -0.0151175 0.00230445 4.04122e-06
0 0.0146108 0.00452168 3.65809e-07
-2.71051e-20 -0.0146108 0.00452168 3.64445e-07
-5.16988e-26 -0.0149972 0.00307322 3.65467e-06
2.20791e-20 0.0149933 0.00309787 3.54576e-06
0 -0.0149933 0.00309786 3.64228e-06
5.16988e-26 -0.0150551 0.00309623 4.2509e-06
1.11636e-20 -0.0153398 0.000978663 2.55533e-06
-4.03664e-21 0.0153398 0.000978658 2.52173e-06
0 -0.0153748 1.34592e-07 1.87538e-06
0 0.015375 6.5057e-08 1.8738e-06
0 -0.0146354 0.00482017 3.87445e-07
-4.1359e-25 0.0146354 0.00482017 3.88984e-07
-2.55921e-20 0.0149803 0.0037633 1.84714e-06
-2.35842e-20 -0.0149803 0.0037633 1.896e-06
0 0.0153272 0.00275021 6.24549e-06
0 -0.0153272 0.00275021 6.41098e-06
0 -0.0149658 0.00441693 6.28735e-07
-1.11363e-20 0.0149658 0.00441693 6.1919e-07
2.71051e-20 -0.014927 0.00477487 4.10426e-07
2.71051e-20 0.014927 0.00477488 4.1214e-07
0 -0.0152999 0.00342237 4.72409e-06
-2.71051e-20 0.0152999 0.00342237 4.60004e-06
0 0.0149195 0.0050341 4.29023e-07
-5.42101e-20 0.015716 0.00173426 5.93105e-06
-5.42101e-20 -0.015716 0.00173426 6.06101e-06
5.42101e-20 -0.0152841 0.00407715 1.72669e-06
0 0.0152841 0.00407715 1.68578e-06
0 -0.0149898 0.00508707 4.37259e-07
1.03398e-25 0.0149898 0.00508707 4.38936e-07
-9.69787e-21 0.0156647 0.00240044 9.65146e-06
-1.87108e-21 -0.0156647 0.00240044 9.87462e-06
-2.06795e-25 0.0150316 0.00502549 4.37273e-07
0 0.0158728 0.000521005 2.89643e-06
-1.0842e-19 -0.0158728 0.000521006 2.91212e-06
-3.76202e-21 -0.0151702 0.00482145 4.33012e-07
2.05753e-20 0.0151702 0.00482145 4.3176e-07
8.84422e-21 0.015623 0.00308125 9.61744e-06
-1.88998e-20 -0.015623 0.00308126 9.84604e-06
-2.71051e-20 0.0153271 0.00461022 4.17428e-07
0 -0.0153271 0.00461022 4.24653e-07
-4.1359e-25 -0.0156085 0.00354717 7.8897e-06
1.08969e-20 0.0156022 0.00374982 6.87923e-06
-2.06795e-25 -0.0156022 0.00374982 7.03879e-06
-5.42101e-20 0.015269 0.00505544 4.65705e-07
0 -0.015269 0.00505544 4.64064e-07
-2.71051e-20 -0.0159605 0.00272816 1.52881e-05
2.71051e-20 0.0159605 0.00272816 1.49575e-05
0 -0.0155971 0.0043751 3.11008e-06
-1.06905e-20 0.0155971 0.0043751 3.04745e-06
0 0.0153431 0.00535318 8.32306e-07
2.58494e-26 -0.0153431 0.00535318 8.30234e-07
-2.71051e-20 -0.0159183 0.00340547 1.30076e-05
-2.71051e-20 0.0159183 0.00340547 1.27129e-05
5.16988e-26 0.0155093 0.00497609 9.77577e-07
0 -0.0155359 0.00491577 1.00929e-06
1.58095e-21 0.0155359 0.00491577 1.00081e-06
-1.03398e-25 -0.0158827 0.00371014 1.14467e-05
-2.71051e-20 0.0159245 0.00405169 8.56876e-06
0 -0.0159245 0.00405169 8.74875e-06
4.44163e-20 -0.0163948 0.00113363 9.2909e-06
-3.84804e-20 0.0163948 0.00113363 9.11995e-06
0 -0.0164795 6.04198e-08 5.59126e-06
-3.30872e-24 0.0164796 2.21654e-08 5.52573e-06
5.16988e-26 0.0157156 0.00498366 1.59504e-06
2.53448e-20 0.0162478 0.00305838 1.85657e-05
-2.05976e-20 -0.0162478 0.00305839 1.89461e-05
4.84777e-20 -0.016378 0.00230524 1.84115e-05
-5.19519e-20 0.016378 0.00230524 1.80456e-05
-2.71051e-20 0.0156904 0.00524875 1.19845e-06
0 -0.0156904 0.00524875 1.19595e-06
-5.42101e-20 0.0158759 0.00471202 2.02412e-06
2.71051e-20 -0.0158759 0.00471202 2.05715e-06
-8.27181e-25 0.0156951 0.00561829 1.28165e-06
0 -0.0156951 0.00561829 1.27781e-06
-2.36578e-20 0.0163084 0.00364992 1.78019e-05
2.40441e-21 -0.0163084 0.00364992 1.81376e-05
5.16988e-26 -0.0162303 0.00419321 1.26662e-05
-9.86568e-21 0.016199 0.00441125 1.02896e-05
0 -0.016199 0.00441125 1.04703e-05
-5.16988e-26 0.0161616 0.00473168 7.02174e-06
0 -0.0161146 0.00513441 2.95026e-06
0 0.0161146 0.00513441 2.91447e-06
0 0.016031 0.0055414 1.36472e-06
-5.42101e-20 -0.016031 0.0055414 1.35955e-06
2.71051e-20 0.0165301 0.00408038 2.26222e-05
2.71051e-20 -0.0165301 0.00408038 2.29963e-05
5.42101e-20 -0.0170241 0.000577593 8.21799e-06
-1.0842e-19 0.0170241 0.000577593 8.10361e-06
0 -0.0169742 0.00175445 2.00652e-05
0 0.0169742 0.00175445 1.96374e-05
0 0.0160456 0.00588233 1.41115e-06
0 -0.0160456 0.00588233 1.40605e-06
-5.42101e-20 0.0168708 0.00304668 3.36799e-05
-5.42101e-20 -0.0168708 0.00304668 3.42766e-05
0 -0.0164827 0.00476235 8.45608e-06
-5.42101e-20 0.0164827 0.00476235 8.31437e-06
-8.18743e-21 0.0163092 0.00559034 1.6874e-06
-5.28858e-21 -0.0163092 0.00559034 1.692e-06
2.58494e-26 -0.0166741 0.00441187 2.21321e-05
-1.17038e-20 0.0168571 0.00372694 3.30428e-05
8.73089e-22 -0.0168571 0.00372694 3.35818e-05
0 -0.0165194 0.0053648 2.2937e-06
2.71051e-20 0.0165194 0.0053648 2.26867e-06
1.21968e-20 0.0168293 0.00441207 2.55433e-05
2.58494e-26 -0.0168293 0.00441207 2.594e-05
0 -0.016393 0.00584515 1.45249e-06
-2.71051e-20 0.016393 0.00584515 1.45752e-06
5.16988e-26 -0.0168244 0.00457624 2.25656e-05
0 0.0168198 0.00472892 1.91367e-05
8.27181e-25 0.0163955 0.00614428 1.66788e-06
0 -0.0163955 0.00614428 1.66157e-06
1.03398e-25 -0.0168096 0.00506989 1.24185e-05
0 0.0168096 0.00506989 1.22426e-05
-6.61744e-24 -0.0176231 3.91596e-08 1.21485e-05
0 0.0176231 3.09317e-08 1.19499e-05
1.90582e-20 -0.0175916 0.0011589 2.24026e-05
-2.92458e-20 0.0175916 0.00115889 2.19946e-05
0 -0.0171737 0.004052 4.32643e-05
2.71051e-20 0.0171737 0.004052 4.2602e-05
-3.10391e-20 -0.0175442 0.00239622 4.36952e-05
4.50913e-20 0.0175442 0.0023962 4.29853e-05
0 0.0167746 0.00574376 3.81706e-06
2.06795e-25 -0.0167746 0.00574376 3.85042e-06
0 -0.0171404 0.0047287 2.89962e-05
-5.42101e-20 0.0171404 0.0047287 2.85871e-05
-2.71051e-20 -0.016705 0.00611265 1.87043e-06
2.71051e-20 0.016705 0.00611265 1.87802e-06
2.4018e-20 -0.0174986 0.00354413 5.52533e-05
5.78902e-21 0.0174986 0.00354412 5.44647e-05
8.27181e-25 0.0167191 0.00643602 2.01045e-06
0 -0.0167191 0.00643602 2.00292e-06
0 -0.0171168 0.00539052 1.11279e-05
0 0.0171168 0.00539052 1.09828e-05
-3.07334e-20 0.0174702 0.00438304 4.87504e-05
2.58835e-20 -0.0174702 0.00438304 4.94171e-05
1.4256e-20 0.0169667 0.00617943 2.44822e-06
-1.62251e-20 -0.0169667 0.00617943 2.45106e-06
-2.58494e-26 0.0174562 0.0048306 3.91063e-05
0 -0.0174549 0.00487038 3.87326e-05
-5.16988e-26 0.0174493 0.00505023 3.43738e-05
5.16988e-26 -0.0174493 0.00505023 3.47896e-05
0 0.0171679 0.00597129 3.35161e-06
2.71051e-20 -0.0171679 0.00597129 3.37586e-06
0 0.0182005 0.000583389 1.5843e-05
0 -0.0182005 0.000583389 1.61268e-05
-5.42101e-20 -0.017043 0.00643779 2.13534e-06
0 0.017043 0.00643779 2.14281e-06
0 0.0177879 0.00403219 6.66004e-05
0 -0.0177879 0.00403219 6.74972e-05
5.42101e-20 -0.0181761 0.00178292 4.57509e-05
0 0.0181761 0.00178292 4.49336e-05
-8.27181e-25 0.0170214 0.00674884 2.43626e-06
0 -0.0170214 0.00674883 2.42734e-06
-2.85967e-20 0.0174458 0.00568734 1.75553e-05
-1.99723e-20 -0.0174458 0.00568734 1.77323e-05
-5.42101e-20 0.0177804 0.00470438 5.69005e-05
0 -0.0177804 0.00470438 5.75941e-05
5.42101e-20 0.0181642 0.00305698 7.43031e-05
5.42101e-20 -0.0181642 0.00305697 7.53065e-05
-1.38106e-20 -0.0181317 0.00370155 8.06862e-05
9.05639e-21 0.0181317 0.00370155 7.96613e-05
-3.53868e-20 0.01741 0.00635261 5.79297e-06
-2.15572e-20 -0.01741 0.00635261 5.82249e-06
-2.71051e-20 -0.0177702 0.00535529 4.14687e-05
0 0.0177702 0.00535529 4.10515e-05
-2.71051e-20 -0.0173274 0.00672747 2.71927e-06
2.71051e-20 0.0173274 0.00672747 2.72964e-06
6.31501e-21 -0.0181076 0.00436205 7.74029e-05
1.41228e-20 0.0181076 0.00436205 7.64647e-05
0 0.0173238 0.00706119 2.90576e-06
8.27181e-25 -0.0173238 0.00706119 2.89495e-06
0 -0.0177503 0.00600627 1.674e-05
2.71051e-20 0.0177503 0.00600627 1.66e-05
6.46235e-27 0.0180987 0.00497196 6.71486e-05
1.45403e-26 -0.0180912 0.00501859 6.68227e-05
0 0.018098 0.00501826 6.64413e-05
3.21523e-20 -0.018098 0.00501826 6.71386e-05
0 -0.0187969 2.4032e-08 2.07822e-05
0 0.0187969 1.70778e-08 2.03943e-05
-7.5644e-20 -0.0187878 0.00116732 4.0464e-05
-3.44603e-20 0.0187878 0.00116731 3.9757e-05
1.3091e-20 0.0175851 0.00679799 3.73264e-06
-3.51746e-20 -0.0175851 0.00679799 3.73038e-06
5.42101e-20 -0.0184432 0.00401963 9.63807e-05
2.71051e-20 0.0184432 0.00401963 9.52217e-05
7.80296e-20 -0.0187844 0.00239453 7.89319e-05
3.49699e-20 0.0187844 0.00239455 7.77845e-05
-5.16988e-26 0.0180831 0.00566925 4.87141e-05
0 -0.0180831 0.00566925 4.9121e-05
0 0.018287 0.00499127 7.56809e-05
0 -0.0177912 0.00658995 5.46658e-06
-2.71051e-20 0.0177912 0.00658995 5.45109e-06
0 0.0184158 0.00467993 8.67769e-05
-2.71051e-20 -0.0184158 0.00467993 8.77771e-05
-2.71051e-20 -0.0176529 0.00706043 3.07066e-06
0 0.0176529 0.00706043 3.0819e-06
0 -0.0176264 0.00737367 3.53166e-06
0 0.0176264 0.00737367 3.54458e-06
1.03398e-25 0.0180712 0.00630777 2.54877e-05
-2.0628e-20 -0.0180712 0.00630777 2.56187e-05
-2.71051e-20 0.0184261 0.0053197 8.04668e-05
-2.71051e-20 -0.0184261 0.0053197 8.12264e-05
-6.1211e-20 -0.0188515 0.00360143 0.000105547
1.2813e-21 0.0188515 0.00360143 0.000104304
-1.12078e-20 -0.0187497 0.00434473 0.000102613
-1.66333e-20 0.0187497 0.00434473 0.000101473
0 0.018025 0.00697581 8.85465e-06
2.06795e-25 -0.018025 0.00697581 8.8636e-06
-2.71051e-20 -0.0183967 0.00598007 5.7555e-05
5.42101e-20 0.0183967 0.00598007 5.72344e-05
2.71051e-20 -0.0179363 0.0073519 3.99277e-06
-2.71051e-20 0.0179363 0.0073519 4.00737e-06
5.42101e-20 0.0193896 0.000584898 2.49641e-05
-5.42101e-20 -0.0193896 0.000584906 2.54564e-05
2.24903e-20 -0.0188216 0.00491492 0.000102794
-3.30198e-21 0.0188216 0.00491492 0.00010182
0 0.0193933 0.00177944 7.41914e-05
0 -0.0193933 0.00177943 7.54414e-05
0 -0.0179292 0.00768641 4.21477e-06
0 0.0179292 0.00768641 4.22971e-06
0 0.0187687 0.00532689 9.48163e-05
0 -0.0187614 0.00538336 9.46312e-05
-2.71051e-20 -0.018369 0.00663164 2.50964e-05
2.71051e-20 0.018369 0.00663164 2.50345e-05
1.29247e-26 -0.0187273 0.00564917 8.99996e-05
2.58494e-26 0.0187273 0.00564917 8.93378e-05
-1.0842e-19 -0.0194147 0.00301348 0.000119736
-5.42101e-20 0.0194147 0.00301349 0.000118216
-3.35521e-20 -0.0181958 0.00742304 5.66314e-06
8.06501e-22 0.0181958 0.00742304 5.67304e-06
0 -0.0187015 0.00629873 6.58297e-05
0 0.0187015 0.00629873 6.55055e-05
-5.42101e-20 0.0184056 0.00721495 8.67997e-06
-2.71051e-20 -0.0184056 0.00721495 8.68058e-06
5.42101e-20 -0.0190533 0.0053245 0.000118264
-5.42101e-20 0.0190533 0.0053245 0.000117323
0 -0.0182616 0.0076859 4.43682e-06
0 0.0182616 0.0076859 4.45211e-06
0 -0.0193893 0.0043251 0.000136546
0 0.0193893 0.0043251 0.000135217
0 -0.0182322 0.00799942 5.162e-06
4.1359e-25 0.0182322 0.00799942 5.17738e-06
-1.03398e-25 -0.0186894 0.00693288 3.64998e-05
0 0.0186894 0.00693288 3.64147e-05
-2.71051e-20 -0.019034 0.00596484 0.000102296
-5.42101e-20 0.019034 0.00596484 0.000101677
-1.65436e-24 -0.0199808 1.26037e-08 2.9897e-05
0 0.0199808 5.89873e-09 2.93191e-05
2.58494e-26 -0.0193786 0.00498454 0.000137698
-1.27172e-20 0.0193786 0.00498454 0.000136513
6.97313e-22 0.0199934 0.00116523 5.87689e-05
1.60754e-20 -0.0199935 0.00116524 5.97354e-05
0 -0.018638 0.00760163 1.33939e-05
0 0.018638 0.00760163 1.34012e-05
0 -0.0190175 0.00660576 7.82139e-05
2.71051e-20 0.0190175 0.00660576 7.79174e-05
-3.23117e-27 -0.0193645 0.00555805 0.000131242
2.39717e-20 -0.0200103 0.00238385 0.000116238
-7.36737e-20 0.0200103 0.00238385 0.00011472
0 0.0193626 0.005634 0.000129419
-2.05588e-20 -0.0193626 0.005634 0.000130387
-2.71051e-20 -0.0185453 0.00797801 5.88739e-06
0 0.0185453 0.00797801 5.90286e-06
8.27181e-25 -0.0185355 0.00831268 6.26085e-06
4.1359e-25 0.0185355 0.00831268 6.27702e-06
-2.71051e-20 -0.0189879 0.00725654 3.71946e-05
-2.71051e-20 0.0189879 0.00725654 3.72008e-05
0 -0.0193479 0.00627375 0.000114558
0 0.0193479 0.00627375 0.000113885
6.03108e-20 -0.0200226 0.00365995 0.000154869
-5.74384e-21 0.0200226 0.00365995 0.000153248
0 0.019693 0.00529521 0.00015542
0 -0.019693 0.00529521 0.000156752
7.03104e-23 -0.0188066 0.00805004 8.72225e-06
-8.9929e-21 0.0188066 0.00805004 8.73267e-06
-1.10782e-20 -0.0193268 0.00692069 8.77571e-05
0 0.0193268 0.00692069 8.74161e-05
-2.71051e-20 0.0196676 0.00594439 0.00014294
0 -0.0196676 0.00594439 0.00014394
8.13152e-20 -0.01902 0.00784265 1.38571e-05
2.71051e-20 0.01902 0.00784265 1.38555e-05
-5.42101e-20 0.0205868 0.000581102 3.36875e-05
-5.42101e-20 -0.0205869 0.000581094 3.43512e-05
0 -0.0188712 0.00831333 6.63441e-06
0 0.0188712 0.00831333 6.65128e-06
-2.58494e-26 -0.020095 0.00487938 0.000172206
-7.53099e-21 0.020095 0.00487938 0.000170701
-5.42101e-20 0.0206115 0.00176879 0.000103465
0 -0.0206115 0.00176879 0.000104939
0 0.020052 0.00521248 0.000167001
0 -0.0188391 0.00862624 8.03132e-06
0 0.0188391 0.00862624 8.04293e-06
0 -0.0193074 0.00756039 5.13431e-05
2.58494e-26 0.0193074 0.00756039 5.12595e-05
2.71051e-20 -0.0196738 0.00657561 0.00013293
-2.71051e-20 0.0196738 0.00657561 0.000132162
0 -0.0200044 0.00558131 0.000164199
0 0.0200001 0.00561439 0.000162536
1.61559e-27 -0.0200001 0.00561439 0.000163822
-3.23117e-27 0.0202172 0.00488474 0.000177022
-1.0842e-19 -0.0206346 0.00301452 0.000165752
5.42101e-20 0.0206346 0.00301452 0.00016392
0 0.019727 0.00691044 0.00012206
0 0.0196391 0.00723369 0.000102632
0 -0.0196391 0.00723369 0.000102947
0 -0.0192519 0.00823155 2.09831e-05
0 0.0192519 0.00823155 2.09645e-05
8.07794e-28 0.0200058 0.00618474 0.00015616
-4.03897e-28 0.0200623 0.00610384 0.000160656
0 -0.0200715 0.00617586 0.000161483
0 0.0200715 0.00617586 0.00016038
-2.71051e-20 0.0191557 0.00860727 9.43526e-06
-5.42101e-20 -0.0191557 0.00860727 9.42889e-06
0 0.0190685 0.00886293 9.88353e-06
2.58494e-26 0.0193106 0.00839138 1.88312e-05
-2.58494e-26 0.0196848 0.00755606 8.80114e-05
3.10193e-25 0.0211 -1.23378e-29 3.67717e-05
0 -0.0206641 0.00428079 0.000197207
0 0.0206641 0.00428079 0.000195409
-8.27181e-25 -0.0191433 0.00894011 1.0476e-05
0 0.0191433 0.00894011 1.04837e-05
-2.71051e-20 -0.0196055 0.00788712 5.5501e-05
-2.71051e-20 0.0196055 0.00788712 5.5464e-05
0 -0.0199746 0.0069041 0.000144301
9.25311e-21 0.0199746 0.0069041 0.000143487
2.01948e-28 0.0202321 0.00619616 0.000172394
5.16988e-26 0.0211723 3.7275e-10 3.72531e-05
8.27181e-25 -0.0211724 3.99074e-09 3.7971e-05
0 0.0211803 0.000282864 4.69661e-05
1.29247e-26 0.0195457 0.00821361 4.40088e-05
5.28488e-20 0.0212048 0.00115268 7.68338e-05
0 -0.0212049 0.00115268 7.79822e-05
-2.58494e-26 0.0209497 0.00364551 0.000191481
-4.23351e-21 -0.0194188 0.0086858 1.4924e-05
2.95891e-20 0.0194188 0.0086858 1.49014e-05
0 -0.0199446 0.00755308 0.000113821
-7.89833e-21 0.0199446 0.00755308 0.000113315
-2.71051e-20 0.0203041 0.00658402 0.00017779
-2.71051e-20 -0.0203041 0.00658402 0.000178985
6.01935e-20 -0.0212384 0.0023678 0.000152952
1.95375e-21 0.0212384 0.0023678 0.000151182
0 -0.0206408 0.00559143 0.000207495
5.42101e-20 0.0206408 0.00559143 0.000205829
2.71051e-20 -0.0196393 0.00847876 2.42088e-05
-2.71051e-20 0.0196393 0.00847876 2.41231e-05
-5.42101e-20 0.0194792 0.0089564 1.15328e-05
2.71051e-20 -0.0194792 0.0089564 1.15238e-05
-5.16988e-26 0.0212584 0.00323002 0.000187373
-1.29247e-26 -0.0209468 0.00491676 0.000216628
0 -0.0194172 0.00928185 1.4078e-05
0 0.0194172 0.00928186 1.40777e-05
-2.71051e-20 0.0202831 0.00722169 0.000160409
0 -0.0202831 0.00722169 0.000161376
2.06795e-25 -0.0199297 0.00819016 7.44488e-05
9.11843e-21 0.0199297 0.00819016 7.41366e-05
0 -0.0206294 0.00624638 0.000203626
0 0.0206294 0.00624638 0.000202121
0 0.020628 0.00632028 0.000201063
0 0.0212679 0.00364055 0.000204604
2.32655e-20 -0.0212679 0.00364055 0.000206597
0 0.0213756 0.0036358 0.000208792
1.03398e-25 -0.02142 0.00363384 0.000212543
0 -0.0212752 0.00442723 0.000223295
-2.71051e-20 -0.0202625 0.00786089 0.000134791
0 0.0202625 0.00786089 0.000134091
0 -0.0206173 0.00689381 0.000194194
0 0.0206173 0.00689381 0.000192853
-2.87379e-20 -0.0198766 0.00887843 3.59903e-05
2.87445e-21 0.0198766 0.00887843 3.58744e-05
-8.07794e-28 0.0208755 0.00620919 0.000215989
0 0.0217896 0.000568406 4.08275e-05
0 -0.0217897 0.000568406 4.15995e-05
-2.58494e-26 0.0212798 0.00493138 0.00023199
0 -0.0212798 0.00493138 0.000233996
0 0.0197714 0.0092976 1.66251e-05
0 -0.0197714 0.0092976 1.66348e-05
-6.20385e-25 -0.0218782 2.18013e-32 4.12747e-05
-8.27181e-25 -0.019669 0.00964181 1.25906e-05
0 0.019669 0.00964181 1.25831e-05
0 0.0218374 0.00173743 0.000130854
5.42101e-20 -0.0218374 0.00173743 0.000132553
5.16988e-26 -0.0205995 0.0075318 0.000176771
-2.43729e-20 0.0205995 0.0075318 0.000175643
-2.71051e-20 -0.0209456 0.00655441 0.000224708
0 0.0209456 0.00655441 0.000223004
0 -0.0218292 0.00233842 0.000169435
2.71051e-20 0.0202362 0.00851518 8.77646e-05
-2.71051e-20 -0.0202362 0.00851518 8.82174e-05
1.29247e-26 0.0214369 0.00492681 0.000239366
-1.03398e-25 -0.0220386 0.00112574 8.87389e-05
-5.42101e-20 -0.021882 0.00297573 0.000209471
5.42101e-20 0.021882 0.00297573 0.000207389
1.03398e-25 -0.0205755 0.00817149 0.000148493
3.89612e-21 0.0205755 0.00817149 0.00014758
-2.71051e-20 0.0209362 0.00721472 0.000209997
-2.71051e-20 -0.0209362 0.00721472 0.000211492
1.45403e-26 0.0213396 0.00603198 0.000241551
2.71051e-20 0.0199576 0.00972223 8.53704e-06
0 -0.0199576 0.00972223 8.54238e-06
-1.85069e-20 -0.0200954 0.00945691 2.26104e-05
1.3775e-20 0.0200954 0.00945691 2.25729e-05
6.46235e-27 -0.0213454 0.00613816 0.000244395
5.48378e-20 0.0213454 0.00613817 0.000242474
0 0.0202913 0.0091201 4.62118e-05
0 -0.0202913 0.0091201 4.62906e-05
-8.27181e-25 -0.0199226 0.0100021 9.05336e-06
0 0.0199226 0.0100021 9.05412e-06
5.42101e-20 0.0219071 0.00426287 0.000251855
5.42101e-20 -0.0219071 0.00426287 0.000254119
1.29247e-26 -0.0212536 0.00687047 0.000232764
2.35331e-21 0.0212536 0.00687047 0.000231034
0 0.0209198 0.00783 0.000196538
0 -0.0209198 0.00783 0.000197873
0 0.0223699 4.09183e-10 4.28566e-05
-4.1359e-25 -0.02237 2.71976e-09 4.35766e-05
0 0.0223737 7.76866e-05 4.63239e-05
0 -0.0205825 0.00880038 0.00011352
-1.14027e-21 0.0205825 0.00880038 0.000112967
1.34417e-24 0.0223904 -1.2827e-35 4.28543e-05
2.40904e-20 -0.0201854 0.00982489 1.31565e-05
-2.01902e-20 0.0201854 0.00982489 1.31366e-05
-3.00291e-20 0.0224248 0.00111326 9.25439e-05
0 -0.0224249 0.00111325 9.37235e-05
0 -0.0208973 0.00847326 0.000171931
-2.71051e-20 0.0208973 0.00847326 0.000170771
-2.71051e-20 0.020392 0.00967037 2.14107e-05
0 -0.020392 0.00967037 2.14726e-05
0 0.0202271 0.0100702 9.57171e-06
0 -0.0202271 0.0100702 9.56484e-06
6.33232e-20 0.0224885 0.00230562 0.000185961
0 -0.0224885 0.00230562 0.000187832
-1.0842e-19 0.0219242 0.0055407 0.000274444
-5.42101e-20 -0.0219242 0.0055407 0.000276738
0 -0.0206219 0.00940243 7.39346e-05
3.17637e-21 0.0206219 0.00940243 7.37569e-05
-8.27181e-25 -0.0201769 0.0103635 1.16061e-05
0 0.0201769 0.0103635 1.16063e-05
-1.29247e-26 -0.0214053 0.00750768 0.000231605
6.61485e-20 0.0214053 0.00750768 0.000229969
0 -0.0212331 0.0081501 0.000204543
2.73705e-20 0.0212331 0.0081501 0.000203159
1.03398e-25 -0.0225307 0.00358481 0.000255963
4.18653e-20 0.0225307 0.00358482 0.000253703
-2.71051e-20 -0.0209306 0.009079 0.000149058
2.71051e-20 0.0209306 0.00907901 0.000148522
0 -0.0205788 0.0100354 3.29154e-05
-8.36259e-21 0.0205788 0.0100354 3.28894e-05
0 -0.0218832 0.00683353 0.000280165
1.0842e-19 0.0218832 0.00683353 0.000278017
2.71051e-20 -0.02047 0.0103922 1.36489e-05
0 0.02047 0.0103922 1.36424e-05
0 0.0229944 0.000536085 4.48906e-05
-5.42101e-20 -0.0229945 0.000536078 4.55584e-05
-2.45888e-20 -0.0213123 0.00869943 0.000194171
-2.02563e-20 0.0213123 0.00869943 0.000193074
2.71051e-20 -0.020909 0.00972034 8.67825e-05
0 0.020909 0.00972035 8.67271e-05
0 0.0225437 0.00489464 0.000291313
-1.03398e-25 -0.0225437 0.00489464 0.00029381
0 -0.0204318 0.0107257 1.53165e-05
0 0.0204318 0.0107257 1.53195e-05
0 0.0230802 0.00165832 0.000155903
0 -0.0230803 0.00165833 0.000157507
-9.55052e-21 -0.0212246 0.00940472 0.000159081
-4.16661e-21 0.0212246 0.00940473 0.000158486
-9.93278e-21 -0.0207156 0.0104897 2.35097e-05
-1.14705e-20 0.0207156 0.0104897 2.35057e-05
2.71051e-20 -0.0209353 0.0102994 4.04561e-05
2.71051e-20 0.0209354 0.0102994 4.04383e-05
0 0.0231589 0.00287977 0.000250939
5.42101e-20 -0.0231589 0.00287976 0.000253048
0 0.0218885 0.00814494 0.000266827
5.42101e-20 -0.0218885 0.00814494 0.000268657
8.24301e-21 0.0225301 0.00619313 0.000308529
-7.24602e-21 -0.0225301 0.00619313 0.000311037
-2.71051e-20 0.0207613 0.0107635 1.69973e-05
-2.71051e-20 -0.0207613 0.0107635 1.69849e-05
-5.42101e-20 -0.0215469 0.00909429 0.000215679
0 0.0215469 0.0090943 0.000214541
0 -0.0212144 0.0100278 0.000108946
4.83663e-21 0.0212145 0.0100278 0.000108719
0 -0.020687 0.0110884 2.09596e-05