# p  POINT_DATA 13056
# x  y  z  p
-1.93744e-27 -0.01 1.38404e-07 0.0102004
0 0.01 8.31199e-08 0.0100468
0 0.01 0.00067832 0.0100468
0 -0.01 0.00067832 0.0102004
3.10193e-25 0.0100155 0.000677146 0.0100468
2.58494e-26 -0.0100173 0.000677006 0.0102004
0 0.01 0.00137372 0.0100468
2.06795e-25 -0.01 0.00137372 0.0102004
1.03398e-24 0.0100736 0.00135825 0.0100468
0 -0.010074 0.00135817 0.0102005
1.57772e-30 -0.01 0.002087 0.0102005
7.88861e-31 0.01 0.002087 0.0100468
0 -0.0102613 0.000329046 0.0102004
0 0.0102613 0.000329046 0.0100468
5.42101e-20 0.0102561 0.000988366 0.0100467
0 -0.0102561 0.000988366 0.0102004
0 0.0102356 0.00161953 0.0100468
0 -0.0102356 0.00161953 0.0102005
2.06795e-25 0.0105293 8.68458e-08 0.0100468
2.06795e-25 -0.0105293 8.80408e-08 0.0102004
-2.06795e-25 -0.0105286 0.000176899 0.0102004
-3.39558e-21 0.0105268 0.000638363 0.0100468
-1.3378e-20 -0.0105268 0.000638363 0.0102004
-8.27181e-25 0.0105159 0.00126532 0.0100468
-2.02907e-21 -0.0105159 0.0012653 0.0102005
2.02924e-20 0.0105028 0.0017228 0.0100468
-9.24126e-21 -0.0105028 0.0017228 0.0102005
-2.71051e-20 0.010496 0.00202291 0.0100467
0 -0.010496 0.00202291 0.0102004
0 0.0104977 0.00235078 0.0100467
0 -0.0104977 0.00235077 0.0102006
0 -0.0108033 0.000314595 0.0102005
-2.71051e-20 0.0108033 0.000314595 0.0100468
2.71051e-20 0.0108031 0.00093799 0.0100467
-2.71051e-20 -0.0108031 0.00093799 0.0102004
2.71051e-20 -0.01079 0.00152732 0.0102005
2.71051e-20 0.01079 0.00152732 0.0100467
0 0.0110754 7.74069e-09 0.0100468
0 -0.0110754 5.27285e-09 0.0102005
0 -0.0110772 7.95759e-05 0.0102005
0 0.0110889 0.000613667 0.0100468
-1.93924e-20 -0.0110889 0.000613667 0.0102005
-5.42101e-20 0.0108991 0.00228385 0.0100467
2.71051e-20 -0.0108991 0.00228385 0.0102006
2.72606e-20 -0.010988 0.00190081 0.0102006
3.30872e-24 0.010988 0.00190078 0.0100467
2.70323e-21 -0.0110831 0.00123266 0.0102005
0 0.0110831 0.00123268 0.0100467
1.03398e-25 -0.0112621 3.77028e-09 0.0102006
-6.61744e-24 0.0109863 0.00260985 0.0100466
0 -0.0109863 0.00260985 0.0102007
5.42101e-20 0.0113733 0.000305239 0.0100468
0 -0.0113733 0.000305239 0.0102006
0 -0.0113913 0.000918847 0.0102006
-2.71051e-20 0.0113913 0.000918847 0.0100467
1.58819e-20 0.0112123 0.00231934 0.0100466
-1.34797e-20 -0.0112123 0.00231934 0.0102007
2.71051e-20 -0.0113682 0.00155884 0.0102006
0 0.0113682 0.00155884 0.0100466
0 -0.0114039 0.00209577 0.0102007
0 0.0114039 0.00209577 0.0100466
0 -0.0113392 0.00255892 0.0102008
2.71051e-20 0.0113392 0.00255892 0.0100465
0 -0.0116471 3.55939e-09 0.0102007
0 0.0116471 3.19951e-09 0.0100467
-1.00354e-20 -0.0116865 0.000598051 0.0102007
-8.27181e-25 0.0116865 0.000598049 0.0100466
-2.19368e-21 -0.0117045 0.00122297 0.0102007
0 0.0117045 0.00122299 0.0100466
-6.61744e-24 0.0114599 0.00285977 0.0100464
-6.61744e-24 -0.0114598 0.00285975 0.0102009
3.88775e-21 -0.0117133 0.00184588 0.0102008
0 0.0117133 0.00184592 0.0100465
3.13137e-20 -0.0116596 0.00239949 0.0102009
0 0.0116596 0.00239948 0.0100465
-2.71051e-20 0.0119676 0.000293859 0.0100465
5.42101e-20 -0.0119676 0.000293859 0.0102009
2.71051e-20 -0.0120131 0.000895955 0.0102008
-2.71051e-20 0.0120131 0.000895955 0.0100464
0 -0.0120433 0.00152444 0.0102009
-2.71051e-20 0.0120433 0.00152444 0.0100464
0 0.0118604 0.00273056 0.0100463
0 -0.0118604 0.00273056 0.010201
0 0.0120387 0.00217273 0.0100464
2.71051e-20 -0.0120387 0.00217273 0.010201
-8.27181e-25 -0.0122418 4.68912e-09 0.0102011
0 0.0122418 1.66918e-09 0.0100465
-6.61744e-24 0.0119119 0.00310459 0.0100462
-6.61744e-24 -0.0119119 0.00310459 0.0102012
2.12569e-20 -0.0123043 0.000568948 0.010201
-1.03398e-25 0.0123043 0.000568944 0.0100464
1.03398e-25 0.0123971 0.000559198 0.0100463
9.03612e-21 -0.01236 0.00118123 0.010201
0 0.01236 0.00118124 0.0100463
4.1359e-25 0.0124373 1.54461e-10 0.0100464
2.13313e-20 -0.0123814 0.00184432 0.0102011
0 0.0123814 0.00184434 0.0100463
0 -0.0125711 0.000269457 0.0102012
0 0.0125711 0.000269458 0.0100464
-8.66554e-21 -0.0123374 0.00258488 0.0102012
-2.46434e-20 0.0123374 0.00258488 0.0100462
2.71051e-20 0.0122817 0.00299995 0.0100462
2.71051e-20 -0.0122817 0.00299995 0.0102013
0 -0.0126475 0.000839062 0.0102011
-2.71051e-20 0.0126475 0.000839063 0.0100462
0 0.0123472 0.00333734 0.010046
0 -0.0123472 0.00333734 0.0102014
2.71051e-20 0.0127108 0.0014705 0.0100462
0 -0.0127108 0.0014705 0.0102013
0 0.0127518 0.00112259 0.0100462
1.65436e-24 -0.0128491 7.71817e-09 0.0102017
4.1359e-25 0.0128491 2.48242e-09 0.0100463
2.71051e-20 0.0127172 0.00217074 0.0100461
2.71051e-20 -0.0127172 0.00217074 0.0102013
1.3852e-20 -0.0129129 0.000505056 0.0102015
0 0.0129129 0.000505055 0.0100461
-1.97365e-20 -0.0125922 0.00303079 0.0102014
-3.70742e-21 0.0125922 0.00303079 0.010046
-4.94985e-21 -0.0130203 0.00108239 0.0102014
-1.23304e-20 0.0130203 0.0010824 0.010046
-5.42101e-20 -0.012793 0.00278388 0.0102015
2.71051e-20 0.012793 0.00278388 0.010046
-2.71051e-20 -0.0127108 0.00327268 0.0102015
2.71051e-20 0.0127108 0.00327268 0.0100458
0 -0.0131383 0.000218118 0.0102021
2.71051e-20 0.0131383 0.000218118 0.0100463
0 0.0130692 0.00171594 0.010046
-1.88821e-20 -0.013073 0.00176509 0.0102015
0 0.013073 0.0017651 0.010046
2.58494e-26 0.0130931 0.00176192 0.010046
0 0.0127674 0.00356123 0.0100457
0 -0.0127674 0.00356123 0.0102017
0 0.0132689 0.000719695 0.0100458
-2.71051e-20 -0.0132689 0.000719694 0.0102015
0 -0.0130872 0.00246808 0.0102016
-4.1359e-25 0.0130872 0.00246808 0.0100459
1.43499e-20 -0.0133747 0.000406315 0.0102019
1.524e-20 0.0133747 0.000406311 0.010046
3.30872e-24 -0.0134599 1.1061e-08 0.010202
0 0.0134599 2.11019e-13 0.0100461
1.27287e-20 -0.0130916 0.00314268 0.0102017
0 0.0130916 0.00314268 0.0100457
-2.71051e-20 -0.0134186 0.00131377 0.0102018
0 0.0134186 0.00131377 0.010046
0 0.0133031 0.00245086 0.0100457
2.71051e-20 0.013075 0.00349045 0.0100455
-5.42101e-20 -0.013075 0.00349045 0.0102018
-5.42101e-20 -0.0134232 0.00207248 0.0102017
2.71051e-20 0.0134232 0.00207248 0.0100458
0 0.0131963 0.00330884 0.0100455
2.06795e-25 -0.0132124 0.00333436 0.0102018
0 0.0132965 0.0031224 0.0100455
2.71051e-20 -0.0136984 0.000300344 0.010202
0 0.0136984 0.000300344 0.0100459
0 0.013418 0.00277569 0.0100456
5.42101e-20 -0.013418 0.00277569 0.0102017
-2.06795e-25 0.0131762 0.0037788 0.0100453
0 -0.0131762 0.0037788 0.0102019
3.10193e-25 -0.0132273 0.00369735 0.0102019
2.06795e-25 0.0132292 0.00369443 0.0100453
0 -0.0133968 0.00311247 0.0102018
2.74459e-20 -0.0137612 0.00078614 0.010202
4.44361e-21 0.0137612 0.000786141 0.0100457
-3.61916e-20 0.0133341 0.00352736 0.0100453
-4.1359e-25 -0.0133341 0.00352736 0.0102019
0 -0.0132735 0.00383757 0.0102019
-4.1359e-25 0.0132832 0.00384344 0.0100451
-4.1905e-21 -0.0137678 0.00165537 0.010202
-6.50164e-22 0.0137678 0.00165537 0.0100456
2.71051e-20 0.013482 0.00331696 0.0100453
2.71051e-20 -0.013482 0.00331696 0.0102019
3.33015e-20 0.0137484 0.00241532 0.0100454
0 -0.0137484 0.00241533 0.0102019
0 -0.013458 0.00374223 0.010202
0 0.013458 0.00374223 0.010045
4.1359e-25 -0.0137485 0.00262819 0.0102019
-3.30872e-24 -0.014071 -1.61666e-15 0.0102022
0 0.014071 3.38398e-08 0.0100457
-6.42223e-21 0.0137488 0.00307761 0.0100452
0 -0.0137488 0.00307762 0.0102019
0 -0.0135651 0.00401367 0.0102021
0 0.0135651 0.00401367 0.0100447
-2.71051e-20 -0.0141231 0.00120897 0.0102021
2.71051e-20 0.0141231 0.00120897 0.0100454
-8.47364e-21 0.0137164 0.00361035 0.0100449
8.27181e-25 -0.0137164 0.00361035 0.010202
-5.42101e-20 -0.014089 0.00201377 0.0102021
-2.71051e-20 0.014089 0.00201377 0.0100453
-2.71051e-20 -0.0142657 0.000418225 0.0102025
-2.71051e-20 0.0142657 0.000418225 0.0100456
-2.71051e-20 -0.014069 0.0027392 0.0102021
2.71051e-20 0.014069 0.0027392 0.0100451
0 0.0138967 0.00392747 0.0100444
0 -0.0138967 0.00392747 0.0102021
-5.42101e-20 0.0140496 0.00340311 0.0100447
2.71051e-20 -0.0140496 0.00340311 0.0102021
-2.82251e-20 0.014441 0.00161389 0.0100451
-2.5593e-20 -0.014441 0.00161389 0.0102025
-2.25754e-20 -0.0145429 0.000823391 0.0102027
-1.51506e-20 0.0145429 0.000823383 0.0100453
8.27181e-25 -0.0139237 0.00428406 0.0102021
8.27181e-25 0.0139237 0.00428406 0.0100441
1.4785e-20 0.014397 0.00237993 0.0100449
0 -0.014397 0.00237994 0.0102024
2.06795e-25 -0.0143809 0.0027439 0.0102023
2.09707e-20 0.0143653 0.00309536 0.0100445
0 -0.0143653 0.00309537 0.0102022
-6.61744e-24 -0.0147021 5.53624e-08 0.0102028
6.61744e-24 0.0147022 5.46449e-08 0.0100454
-2.01253e-20 0.014305 0.00382188 0.010044
0 -0.014305 0.00382189 0.0102021
-2.71051e-20 -0.0142451 0.00421792 0.0102021
0 0.0142451 0.00421792 0.0100438
5.42101e-20 0.0147298 0.00200539 0.0100447
0 -0.0147298 0.00200539 0.0102027
0 0.0148165 0.00124392 0.0100451
-2.71051e-20 -0.0148165 0.00124392 0.0102031
2.71051e-20 0.014711 0.00272495 0.0100444
0 -0.014711 0.00272495 0.0102025
-2.71051e-20 0.0149558 0.000461599 0.0100452
0 -0.0149558 0.000461599 0.0102031
8.27181e-25 -0.0142802 0.00455258 0.0102021
-8.27181e-25 0.0142802 0.00455258 0.0100434
0 0.0146561 0.00344874 0.0100439
0 -0.0146561 0.00344874 0.0102022
7.38093e-21 -0.014516 0.0042716 0.0102021
1.6853e-20 0.014516 0.0042716 0.0100434
8.52327e-21 -0.0150862 0.00165186 0.010203
-3.18961e-21 0.0150862 0.00165186 0.0100448
2.71051e-20 -0.014707 0.0040482 0.0102022
-5.42101e-20 0.014707 0.0040482 0.0100435
3.49749e-20 0.0151175 0.00230445 0.0100443
2.31379e-20 -0.0151175 0.00230445 0.0102028
0 0.0146108 0.00452168 0.0100431
-2.71051e-20 -0.0146108 0.00452168 0.0102021
-5.16988e-26 -0.0149972 0.00307322 0.0102025
2.20791e-20 0.0149933 0.00309787 0.0100438
0 -0.0149933 0.00309786 0.0102025
5.16988e-26 -0.0150551 0.00309623 0.0102025
1.11636e-20 -0.0153398 0.000978663 0.0102033
-4.03664e-21 0.0153398 0.000978658 0.010045
0 -0.0153748 1.34592e-07 0.0102034
0 0.015375 6.5057e-08 0.0100452
0 -0.0146354 0.00482017 0.010202
-4.1359e-25 0.0146354 0.00482017 0.0100427
-2.55921e-20 0.0149803 0.0037633 0.0100433
-2.35842e-20 -0.0149803 0.0037633 0.0102022
0 0.0153272 0.00275021 0.0100437
0 -0.0153272 0.00275021 0.0102028
0 -0.0149658 0.00441693 0.010202
-1.11363e-20 0.0149658 0.00441693 0.0100427
2.71051e-20 -0.014927 0.00477487 0.0102019
2.71051e-20 0.014927 0.00477488 0.0100424
0 -0.0152999 0.00342237 0.0102024
-2.71051e-20 0.0152999 0.00342237 0.0100431
0 0.0149195 0.0050341 0.0100421
-5.42101e-20 0.015716 0.00173426 0.0100444
-5.42101e-20 -0.015716 0.00173426 0.0102034
5.42101e-20 -0.0152841 0.00407715 0.0102022
0 0.0152841 0.00407715 0.0100427
0 -0.0149898 0.00508707 0.0102018
1.03398e-25 0.0149898 0.00508707 0.010042
-9.69787e-21 0.0156647 0.00240044 0.0100438
-1.87108e-21 -0.0156647 0.00240044 0.0102034
-2.06795e-25 0.0150316 0.00502549 0.010042
0 0.0158728 0.000521005 0.0100453
-1.0842e-19 -0.0158728 0.000521006 0.0102038
-3.76202e-21 -0.0151702 0.00482145 0.0102018
2.05753e-20 0.0151702 0.00482145 0.010042
8.84422e-21 0.015623 0.00308125 0.0100431
-1.88998e-20 -0.015623 0.00308126 0.0102029
-2.71051e-20 0.0153271 0.00461022 0.010042
0 -0.0153271 0.00461022 0.0102019
-4.1359e-25 -0.0156085 0.00354717 0.0102025
1.08969e-20 0.0156022 0.00374982 0.0100425
-2.06795e-25 -0.0156022 0.00374982 0.0102024
-5.42101e-20 0.015269 0.00505544 0.0100416
0 -0.015269 0.00505544 0.0102018
-2.71051e-20 -0.0159605 0.00272816 0.0102038
2.71051e-20 0.0159605 0.00272816 0.0100434
0 -0.0155971 0.0043751 0.0102021
-1.06905e-20 0.0155971 0.0043751 0.010042
0 0.0153431 0.00535318 0.0100411
2.58494e-26 -0.0153431 0.00535318 0.0102016
-2.71051e-20 -0.0159183 0.00340547 0.0102025
-2.71051e-20 0.0159183 0.00340547 0.0100422
5.16988e-26 0.0155093 0.00497609 0.0100414
0 -0.0155359 0.00491577 0.0102017
1.58095e-21 0.0155359 0.00491577 0.0100414
-1.03398e-25 -0.0158827 0.00371014 0.0102024
-2.71051e-20 0.0159245 0.00405169 0.010042
0 -0.0159245 0.00405169 0.0102024
4.44163e-20 -0.0163948 0.00113363 0.0102043
-3.84804e-20 0.0163948 0.00113363 0.010045
0 -0.0164795 6.04198e-08 0.0102046
-3.30872e-24 0.0164796 2.21654e-08 0.0100456
5.16988e-26 0.0157156 0.00498366 0.0100411
2.53448e-20 0.0162478 0.00305838 0.0100427
-2.05976e-20 -0.0162478 0.00305839 0.0102033
4.84777e-20 -0.016378 0.00230524 0.0102039
-5.19519e-20 0.016378 0.00230524 0.0100436
-2.71051e-20 0.0156904 0.00524875 0.0100407
0 -0.0156904 0.00524875 0.0102014
-5.42101e-20 0.0158759 0.00471202 0.0100413
2.71051e-20 -0.0158759 0.00471202 0.0102017
-8.27181e-25 0.0156951 0.00561829 0.0100406
0 -0.0156951 0.00561829 0.0102014
-2.36578e-20 0.0163084 0.00364992 0.0100417
2.40441e-21 -0.0163084 0.00364992 0.0102025
5.16988e-26 -0.0162303 0.00419321 0.0102021
-9.86568e-21 0.016199 0.00441125 0.0100412
0 -0.016199 0.00441125 0.010202
-5.16988e-26 0.0161616 0.00473168 0.0100409
0 -0.0161146 0.00513441 0.0102015
0 0.0161146 0.00513441 0.0100405
0 0.016031 0.0055414 0.0100404
-5.42101e-20 -0.016031 0.0055414 0.0102014
2.71051e-20 0.0165301 0.00408038 0.0100408
2.71051e-20 -0.0165301 0.00408038 0.0102019
5.42101e-20 -0.0170241 0.000577593 0.0102053
-1.0842e-19 0.0170241 0.000577593 0.010046
0 -0.0169742 0.00175445 0.0102045
0 0.0169742 0.00175445 0.0100444
0 0.0160456 0.00588233 0.0100397
0 -0.0160456 0.00588233 0.010201
-5.42101e-20 0.0168708 0.00304668 0.0100421
-5.42101e-20 -0.0168708 0.00304668 0.0102036
0 -0.0164827 0.00476235 0.0102018
-5.42101e-20 0.0164827 0.00476235 0.0100406
-8.18743e-21 0.0163092 0.00559034 0.0100396
-5.28858e-21 -0.0163092 0.00559034 0.010201
2.58494e-26 -0.0166741 0.00441187 0.0102022
-1.17038e-20 0.0168571 0.00372694 0.0100412
8.73089e-22 -0.0168571 0.00372694 0.010203
0 -0.0165194 0.0053648 0.010201
2.71051e-20 0.0165194 0.0053648 0.0100395
1.21968e-20 0.0168293 0.00441207 0.0100407
2.58494e-26 -0.0168293 0.00441207 0.0102023
0 -0.016393 0.00584515 0.0102006
-2.71051e-20 0.016393 0.00584515 0.010039
5.16988e-26 -0.0168244 0.00457624 0.0102021
0 0.0168198 0.00472892 0.0100403
8.27181e-25 0.0163955 0.00614428 0.0100393
0 -0.0163955 0.00614428 0.0102009
1.03398e-25 -0.0168096 0.00506989 0.0102016
0 0.0168096 0.00506989 0.0100399
-6.61744e-24 -0.0176231 3.91596e-08 0.0102061
0 0.0176231 3.09317e-08 0.0100458
1.90582e-20 -0.0175916 0.0011589 0.0102057
-2.92458e-20 0.0175916 0.00115889 0.0100449
0 -0.0171737 0.004052 0.0102037
2.71051e-20 0.0171737 0.004052 0.0100412
-3.10391e-20 -0.0175442 0.00239622 0.0102046
4.50913e-20 0.0175442 0.0023962 0.0100426
0 0.0167746 0.00574376 0.0100392
2.06795e-25 -0.0167746 0.00574376 0.010201
0 -0.0171404 0.0047287 0.0102019
-5.42101e-20 0.0171404 0.0047287 0.0100401
-2.71051e-20 -0.016705 0.00611265 0.0102012
2.71051e-20 0.016705 0.00611265 0.0100395
2.4018e-20 -0.0174986 0.00354413 0.0102037
5.78902e-21 0.0174986 0.00354412 0.0100406
8.27181e-25 0.0167191 0.00643602 0.0100388
0 -0.0167191 0.00643602 0.0102005
0 -0.0171168 0.00539052 0.0102018
0 0.0171168 0.00539052 0.0100396
-3.07334e-20 0.0174702 0.00438304 0.01004
2.58835e-20 -0.0174702 0.00438304 0.010203
1.4256e-20 0.0169667 0.00617943 0.0100387
-1.62251e-20 -0.0169667 0.00617943 0.0102005
-2.58494e-26 0.0174562 0.0048306 0.0100397
0 -0.0174549 0.00487038 0.0102023
-5.16988e-26 0.0174493 0.00505023 0.0100395
5.16988e-26 -0.0174493 0.00505023 0.010202
0 0.0171679 0.00597129 0.0100385
2.71051e-20 -0.0171679 0.00597129 0.0102006
0 0.0182005 0.000583389 0.0100457
0 -0.0182005 0.000583389 0.0102069
-5.42101e-20 -0.017043 0.00643779 0.0101999
0 0.017043 0.00643779 0.010038
0 0.0177879 0.00403219 0.0100393
0 -0.0177879 0.00403219 0.0102032
5.42101e-20 -0.0181761 0.00178292 0.0102058
0 0.0181761 0.00178292 0.0100437
-8.27181e-25 0.0170214 0.00674884 0.0100387
0 -0.0170214 0.00674883 0.0102005
-2.85967e-20 0.0174458 0.00568734 0.0100389
-1.99723e-20 -0.0174458 0.00568734 0.0102012
-5.42101e-20 0.0177804 0.00470438 0.0100395
0 -0.0177804 0.00470438 0.0102029
5.42101e-20 0.0181642 0.00305698 0.0100403
5.42101e-20 -0.0181642 0.00305697 0.0102044
-1.38106e-20 -0.0181317 0.00370155 0.0102049
9.05639e-21 0.0181317 0.00370155 0.0100398
-3.53868e-20 0.01741 0.00635261 0.0100385
-2.15572e-20 -0.01741 0.00635261 0.0102005
-2.71051e-20 -0.0177702 0.00535529 0.0102016
0 0.0177702 0.00535529 0.0100389
-2.71051e-20 -0.0173274 0.00672747 0.0102011
2.71051e-20 0.0173274 0.00672747 0.0100394
6.31501e-21 -0.0181076 0.00436205 0.0102041
1.41228e-20 0.0181076 0.00436205 0.0100392
0 0.0173238 0.00706119 0.0100385
8.27181e-25 -0.0173238 0.00706119 0.0102001
0 -0.0177503 0.00600627 0.0102012
2.71051e-20 0.0177503 0.00600627 0.0100387
6.46235e-27 0.0180987 0.00497196 0.0100389
1.45403e-26 -0.0180912 0.00501859 0.0102028
0 0.018098 0.00501826 0.0100389
3.21523e-20 -0.018098 0.00501826 0.0102029
0 -0.0187969 2.4032e-08 0.0102072
0 0.0187969 1.70778e-08 0.0100446
-7.5644e-20 -0.0187878 0.00116732 0.0102067
-3.44603e-20 0.0187878 0.00116731 0.0100435
1.3091e-20 0.0175851 0.00679799 0.0100383
-3.51746e-20 -0.0175851 0.00679799 0.0102
5.42101e-20 -0.0184432 0.00401963 0.0102068
2.71051e-20 0.0184432 0.00401963 0.01004
7.80296e-20 -0.0187844 0.00239453 0.0102052
3.49699e-20 0.0187844 0.00239455 0.0100405
-5.16988e-26 0.0180831 0.00566925 0.0100388
0 -0.0180831 0.00566925 0.0102018
0 0.018287 0.00499127 0.0100385
0 -0.0177912 0.00658995 0.0101999
-2.71051e-20 0.0177912 0.00658995 0.010038
0 0.0184158 0.00467993 0.010038
-2.71051e-20 -0.0184158 0.00467993 0.0102036
-2.71051e-20 -0.0176529 0.00706043 0.0101991
0 0.0176529 0.00706043 0.0100375
0 -0.0176264 0.00737367 0.0102001
0 0.0176264 0.00737367 0.0100388
1.03398e-25 0.0180712 0.00630777 0.0100385
-2.0628e-20 -0.0180712 0.00630777 0.0102007
-2.71051e-20 0.0184261 0.0053197 0.0100392
-2.71051e-20 -0.0184261 0.0053197 0.0102034
-6.1211e-20 -0.0188515 0.00360143 0.0102052
1.2813e-21 0.0188515 0.00360143 0.0100383
-1.12078e-20 -0.0187497 0.00434473 0.010205
-1.66333e-20 0.0187497 0.00434473 0.0100381
0 0.018025 0.00697581 0.0100386
2.06795e-25 -0.018025 0.00697581 0.0102
-2.71051e-20 -0.0183967 0.00598007 0.0102013
5.42101e-20 0.0183967 0.00598007 0.0100385
2.71051e-20 -0.0179363 0.0073519 0.0102011
-2.71051e-20 0.0179363 0.0073519 0.01004
5.42101e-20 0.0193896 0.000584898 0.0100436
-5.42101e-20 -0.0193896 0.000584906 0.0102076
2.24903e-20 -0.0188216 0.00491492 0.0102034
-3.30198e-21 0.0188216 0.00491492 0.0100374
0 0.0193933 0.00177944 0.0100411
0 -0.0193933 0.00177943 0.0102063
0 -0.0179292 0.00768641 0.0101998
0 0.0179292 0.00768641 0.0100391
0 0.0187687 0.00532689 0.0100378
0 -0.0187614 0.00538336 0.0102028
-2.71051e-20 -0.018369 0.00663164 0.0102008
2.71051e-20 0.018369 0.00663164 0.0100388
1.29247e-26 -0.0187273 0.00564917 0.0102024
2.58494e-26 0.0187273 0.00564917 0.0100381
-1.0842e-19 -0.0194147 0.00301348 0.0102043
-5.42101e-20 0.0194147 0.00301349 0.0100369
-3.35521e-20 -0.0181958 0.00742304 0.0101997
8.06501e-22 0.0181958 0.00742304 0.0100389
0 -0.0187015 0.00629873 0.0102012
0 0.0187015 0.00629873 0.0100385
-5.42101e-20 0.0184056 0.00721495 0.0100383
-2.71051e-20 -0.0184056 0.00721495 0.0101994
5.42101e-20 -0.0190533 0.0053245 0.0102029
-5.42101e-20 0.0190533 0.0053245 0.0100366
0 -0.0182616 0.0076859 0.0101985
0 0.0182616 0.0076859 0.0100381
0 -0.0193893 0.0043251 0.0102041
0 0.0193893 0.0043251 0.0100348
0 -0.0182322 0.00799942 0.0102
4.1359e-25 0.0182322 0.00799942 0.01004
-1.03398e-25 -0.0186894 0.00693288 0.0102003
0 0.0186894 0.00693288 0.0100389
-2.71051e-20 -0.019034 0.00596484 0.010202
-5.42101e-20 0.019034 0.00596484 0.0100382
-1.65436e-24 -0.0199808 1.26037e-08 0.0102075
0 0.0199808 5.89873e-09 0.0100413
2.58494e-26 -0.0193786 0.00498454 0.010204
-1.27172e-20 0.0193786 0.00498454 0.0100361
6.97313e-22 0.0199934 0.00116523 0.01004
1.60754e-20 -0.0199935 0.00116524 0.010207
0 -0.018638 0.00760163 0.0101998
0 0.018638 0.00760163 0.0100396
0 -0.0190175 0.00660576 0.0102007
2.71051e-20 0.0190175 0.00660576 0.0100386
-3.23117e-27 -0.0193645 0.00555805 0.0102031
2.39717e-20 -0.0200103 0.00238385 0.0102053
-7.36737e-20 0.0200103 0.00238385 0.0100365
0 0.0193626 0.005634 0.0100369
-2.05588e-20 -0.0193626 0.005634 0.010203
-2.71051e-20 -0.0185453 0.00797801 0.0102015
0 0.0185453 0.00797801 0.0100418
8.27181e-25 -0.0185355 0.00831268 0.0102
4.1359e-25 0.0185355 0.00831268 0.0100409
-2.71051e-20 -0.0189879 0.00725654 0.0102005
-2.71051e-20 0.0189879 0.00725654 0.0100398
0 -0.0193479 0.00627375 0.0102015
0 0.0193479 0.00627375 0.010038
6.03108e-20 -0.0200226 0.00365995 0.0102039
-5.74384e-21 0.0200226 0.00365995 0.0100333
0 0.019693 0.00529521 0.0100365
0 -0.019693 0.00529521 0.0102049
7.03104e-23 -0.0188066 0.00805004 0.0101997
-8.9929e-21 0.0188066 0.00805004 0.0100405
-1.10782e-20 -0.0193268 0.00692069 0.0102008
0 0.0193268 0.00692069 0.0100393
-2.71051e-20 0.0196676 0.00594439 0.0100366
0 -0.0196676 0.00594439 0.0102021
8.13152e-20 -0.01902 0.00784265 0.010199
2.71051e-20 0.01902 0.00784265 0.0100396
-5.42101e-20 0.0205868 0.000581102 0.010039
-5.42101e-20 -0.0205869 0.000581094 0.0102075
0 -0.0188712 0.00831333 0.0101986
0 0.0188712 0.00831333 0.01004
-2.58494e-26 -0.020095 0.00487938 0.0102036
-7.53099e-21 0.020095 0.00487938 0.0100336
-5.42101e-20 0.0206115 0.00176879 0.0100363
0 -0.0206115 0.00176879 0.0102064
0 0.020052 0.00521248 0.0100344
0 -0.0188391 0.00862624 0.0102004
0 0.0188391 0.00862624 0.0100425
0 -0.0193074 0.00756039 0.0102002
2.58494e-26 0.0193074 0.00756039 0.0100404
2.71051e-20 -0.0196738 0.00657561 0.0102014
-2.71051e-20 0.0196738 0.00657561 0.0100386
0 -0.0200044 0.00558131 0.0102032
0 0.0200001 0.00561439 0.0100354
1.61559e-27 -0.0200001 0.00561439 0.0102032
-3.23117e-27 0.0202172 0.00488474 0.010033
-1.0842e-19 -0.0206346 0.00301452 0.0102042
5.42101e-20 0.0206346 0.00301452 0.0100316
0 0.019727 0.00691044 0.0100387
0 0.0196391 0.00723369 0.0100401
0 -0.0196391 0.00723369 0.0102006
0 -0.0192519 0.00823155 0.0102001
0 0.0192519 0.00823155 0.010042
8.07794e-28 0.0200058 0.00618474 0.0100363
-4.03897e-28 0.0200623 0.00610384 0.010036
0 -0.0200715 0.00617586 0.0102016
0 0.0200715 0.00617586 0.0100361
-2.71051e-20 0.0191557 0.00860727 0.010045
-5.42101e-20 -0.0191557 0.00860727 0.0102024
0 0.0190685 0.00886293 0.0100442
2.58494e-26 0.0193106 0.00839138 0.0100428
-2.58494e-26 0.0196848 0.00755606 0.0100407
3.10193e-25 0.0211 -1.23378e-29 0.0100358
0 -0.0206641 0.00428079 0.0102028
0 0.0206641 0.00428079 0.01003
-8.27181e-25 -0.0191433 0.00894011 0.0102012
0 0.0191433 0.00894011 0.0100448
-2.71051e-20 -0.0196055 0.00788712 0.0102008
-2.71051e-20 0.0196055 0.00788712 0.0100423
0 -0.0199746 0.0069041 0.0102007
9.25311e-21 0.0199746 0.0069041 0.0100384
2.01948e-28 0.0202321 0.00619616 0.0100354
5.16988e-26 0.0211723 3.7275e-10 0.0100355
8.27181e-25 -0.0211724 3.99074e-09 0.0102072
0 0.0211803 0.000282864 0.0100351
1.29247e-26 0.0195457 0.00821361 0.0100426
5.28488e-20 0.0212048 0.00115268 0.0100341
0 -0.0212049 0.00115268 0.0102068
-2.58494e-26 0.0209497 0.00364551 0.0100288
-4.23351e-21 -0.0194188 0.0086858 0.0102008
2.95891e-20 0.0194188 0.0086858 0.0100442
0 -0.0199446 0.00755308 0.0102004
-7.89833e-21 0.0199446 0.00755308 0.0100409
-2.71051e-20 0.0203041 0.00658402 0.0100359
-2.71051e-20 -0.0203041 0.00658402 0.010201
6.01935e-20 -0.0212384 0.0023678 0.0102054
1.95375e-21 0.0212384 0.0023678 0.0100304
0 -0.0206408 0.00559143 0.010202
5.42101e-20 0.0206408 0.00559143 0.0100316
2.71051e-20 -0.0196393 0.00847876 0.0101999
-2.71051e-20 0.0196393 0.00847876 0.010043
-5.42101e-20 0.0194792 0.0089564 0.0100445
2.71051e-20 -0.0194792 0.0089564 0.0102001
-5.16988e-26 0.0212584 0.00323002 0.0100282
-1.29247e-26 -0.0209468 0.00491676 0.0102021
0 -0.0194172 0.00928185 0.0102018
0 0.0194172 0.00928186 0.0100471
-2.71051e-20 0.0202831 0.00722169 0.010039
0 -0.0202831 0.00722169 0.0102
2.06795e-25 -0.0199297 0.00819016 0.0102008
9.11843e-21 0.0199297 0.00819016 0.0100435
0 -0.0206294 0.00624638 0.0102002
0 0.0206294 0.00624638 0.0100337
0 0.020628 0.00632028 0.010034
0 0.0212679 0.00364055 0.0100272
2.32655e-20 -0.0212679 0.00364055 0.0102034
0 0.0213756 0.0036358 0.0100265
1.03398e-25 -0.02142 0.00363384 0.0102035
0 -0.0212752 0.00442723 0.0102022
-2.71051e-20 -0.0202625 0.00786089 0.0102004
0 0.0202625 0.00786089 0.0100421
0 -0.0206173 0.00689381 0.0101996
0 0.0206173 0.00689381 0.0100363
-2.87379e-20 -0.0198766 0.00887843 0.0102016
2.87445e-21 0.0198766 0.00887843 0.0100465
-8.07794e-28 0.0208755 0.00620919 0.0100326
0 0.0217896 0.000568406 0.010032
0 -0.0217897 0.000568406 0.0102069
-2.58494e-26 0.0212798 0.00493138 0.0100275
0 -0.0212798 0.00493138 0.0102015
0 0.0197714 0.0092976 0.0100498
0 -0.0197714 0.0092976 0.0102036
-6.20385e-25 -0.0218782 2.18013e-32 0.010207
-8.27181e-25 -0.019669 0.00964181 0.010204
0 0.019669 0.00964181 0.0100513
0 0.0218374 0.00173743 0.0100292
5.42101e-20 -0.0218374 0.00173743 0.0102062
5.16988e-26 -0.0205995 0.0075318 0.0101993
-2.43729e-20 0.0205995 0.0075318 0.0100396
-2.71051e-20 -0.0209456 0.00655441 0.0101985
0 0.0209456 0.00655441 0.0100328
0 -0.0218292 0.00233842 0.0102057
2.71051e-20 0.0202362 0.00851518 0.0100465
-2.71051e-20 -0.0202362 0.00851518 0.0102023
1.29247e-26 0.0214369 0.00492681 0.0100266
-1.03398e-25 -0.0220386 0.00112574 0.0102067
-5.42101e-20 -0.021882 0.00297573 0.0102049
5.42101e-20 0.021882 0.00297573 0.0100248
1.03398e-25 -0.0205755 0.00817149 0.0102004
3.89612e-21 0.0205755 0.00817149 0.0100436
-2.71051e-20 0.0209362 0.00721472 0.0100373
-2.71051e-20 -0.0209362 0.00721472 0.010199
1.45403e-26 0.0213396 0.00603198 0.0100303
2.71051e-20 0.0199576 0.00972223 0.0100529
0 -0.0199576 0.00972223 0.0102045
-1.85069e-20 -0.0200954 0.00945691 0.0102036
1.3775e-20 0.0200954 0.00945691 0.0100513
6.46235e-27 -0.0213454 0.00613816 0.0101987
5.48378e-20 0.0213454 0.00613817 0.0100306
0 0.0202913 0.0091201 0.0100489
0 -0.0202913 0.0091201 0.0102024
-8.27181e-25 -0.0199226 0.0100021 0.0102039
0 0.0199226 0.0100021 0.0100536
5.42101e-20 0.0219071 0.00426287 0.0100225
5.42101e-20 -0.0219071 0.00426287 0.0102017
1.29247e-26 -0.0212536 0.00687047 0.0101979
2.35331e-21 0.0212536 0.00687047 0.010034
0 0.0209198 0.00783 0.0100398
0 -0.0209198 0.00783 0.0101977
0 0.0223699 4.09183e-10 0.0100275
-4.1359e-25 -0.02237 2.71976e-09 0.0102068
0 0.0223737 7.76866e-05 0.0100274
0 -0.0205825 0.00880038 0.010202
-1.14027e-21 0.0205825 0.00880038 0.0100479
1.34417e-24 0.0223904 -1.2827e-35 0.0100273
2.40904e-20 -0.0201854 0.00982489 0.0102039
-2.01902e-20 0.0201854 0.00982489 0.0100536
-3.00291e-20 0.0224248 0.00111326 0.0100261
0 -0.0224249 0.00111325 0.0102066
0 -0.0208973 0.00847326 0.0102011
-2.71051e-20 0.0208973 0.00847326 0.0100458
-2.71051e-20 0.020392 0.00967037 0.0100534
0 -0.020392 0.00967037 0.0102041
0 0.0202271 0.0100702 0.0100545
0 -0.0202271 0.0100702 0.0102034
6.33232e-20 0.0224885 0.00230562 0.0100223
0 -0.0224885 0.00230562 0.010206
-1.0842e-19 0.0219242 0.0055407 0.010026
-5.42101e-20 -0.0219242 0.0055407 0.0101995
0 -0.0206219 0.00940243 0.0102033
3.17637e-21 0.0206219 0.00940243 0.0100521
-8.27181e-25 -0.0201769 0.0103635 0.0102053
0 0.0201769 0.0103635 0.010058
-1.29247e-26 -0.0214053 0.00750768 0.0101971
6.61485e-20 0.0214053 0.00750768 0.0100366
0 -0.0212331 0.0081501 0.0101983
2.73705e-20 0.0212331 0.0081501 0.0100413
1.03398e-25 -0.0225307 0.00358481 0.0102041
4.18653e-20 0.0225307 0.00358482 0.0100187
-2.71051e-20 -0.0209306 0.009079 0.0102023
2.71051e-20 0.0209306 0.00907901 0.0100501
0 -0.0205788 0.0100354 0.0102048
-8.36259e-21 0.0205788 0.0100354 0.010057
0 -0.0218832 0.00683353 0.0101952
1.0842e-19 0.0218832 0.00683353 0.0100304
2.71051e-20 -0.02047 0.0103922 0.0102073
0 0.02047 0.0103922 0.0100617
0 0.0229944 0.000536085 0.0100231
-5.42101e-20 -0.0229945 0.000536078 0.0102068
-2.45888e-20 -0.0213123 0.00869943 0.0102005
-2.02563e-20 0.0213123 0.00869943 0.0100463
2.71051e-20 -0.020909 0.00972034 0.0102042
0 0.020909 0.00972035 0.0100555
0 0.0225437 0.00489464 0.0100197
-1.03398e-25 -0.0225437 0.00489464 0.0102008
0 -0.0204318 0.0107257 0.0102061
0 0.0204318 0.0107257 0.0100617
0 0.0230802 0.00165832 0.0100203
0 -0.0230803 0.00165833 0.0102067
-9.55052e-21 -0.0212246 0.00940472 0.0102026
-4.16661e-21 0.0212246 0.00940473 0.0100523
-9.93278e-21 -0.0207156 0.0104897 0.0102058
-1.14705e-20 0.0207156 0.0104897 0.0100612
2.71051e-20 -0.0209353 0.0102994 0.0102053
2.71051e-20 0.0209354 0.0102994 0.01006
0 0.0231589 0.00287977 0.010015
5.42101e-20 -0.0231589 0.00287976 0.0102064
0 0.0218885 0.00814494 0.0100364
5.42101e-20 -0.0218885 0.00814494 0.0101948
8.24301e-21 0.0225301 0.00619313 0.010024
-7.24602e-21 -0.0225301 0.00619313 0.0101962
-2.71051e-20 0.0207613 0.0107635 0.0100619
-2.71051e-20 -0.0207613 0.0107635 0.0102048
-5.42101e-20 -0.0215469 0.00909429 0.0102014
0 0.0215469 0.0090943 0.0100487
0 -0.0212144 0.0100278 0.0102042
4.83663e-21 0.0212145 0.0100278 0.0100582
0 -0.020687 0.0110884 0.010206
0 0.020687 0.0110884 0.0100647
-5.42101e-20 0.0231865 0.00419035 0.0100125
-1.0842e-19 -0.0231866 0.00419035 0.0102036
1.58197e-20 -0.0218725 0.00877017 0.0101955
-3.18116e-20 0.0218725 0.00877017 0.0100416
3.30872e-24 0.0235735 1.99433e-08 0.0100168
0 -0.0235737 5.76514e-09 0.0102067
2.71051e-20 -0.0215348 0.00971337 0.0102026
0 0.0215348 0.00971336 0.010055
6.91126e-20 0.0236424 0.00102427 0.010015
0 -0.0236425 0.00102424 0.0102072
0 -0.0211543 0.0107041 0.0102057
-9.49676e-21 0.0211543 0.0107041 0.0100639
3.81306e-20 0.0225191 0.00747875 0.0100295
2.21289e-20 -0.0225191 0.00747875 0.0101928
1.56548e-20 -0.0218553 0.00939598 0.0101982
-1.69348e-20 0.0218553 0.00939598 0.0100483
0 0.021043 0.011115 0.0100677
-2.71051e-20 -0.021043 0.011115 0.0102073
5.42101e-20 0.0231776 0.0055198 0.0100177
0 -0.0231777 0.00551979 0.0101986
-8.27181e-25 -0.0209424 0.0114514 0.0102071
0 0.0209424 0.0114514 0.0100695
2.71051e-20 -0.0215108 0.0103577 0.0102048
-5.42101e-20 0.0215108 0.0103577 0.0100624
-1.07997e-20 0.0237791 0.00216485 0.0100123
4.1359e-25 -0.0237792 0.00216487 0.0102094
2.71051e-20 -0.0221872 0.00906953 0.0101903
2.71051e-20 0.0221872 0.00906953 0.0100379
5.16988e-26 -0.0218425 0.0100258 0.0102009
1.32807e-20 0.0218425 0.0100258 0.0100563
-3.6123e-20 0.0238309 0.00346141 0.0100074
0 -0.023831 0.00346142 0.0102073
2.58494e-26 0.0210934 0.011666 0.0100715
-1.0842e-19 0.024136 0.000451688 0.0100104
5.42101e-20 -0.0241362 0.000451689 0.0102067