# pMean  POINT_DATA 18760
# x  y  z  pMean
-0.237 0 8.31749e-08 0.0267791
0.237 0 8.31749e-08 0.00803403
0.237 2.06795e-25 0.000550925 0.00803209
-0.237 0 0.000550926 0.0266912
-0.237 5.16988e-26 0.000576239 0.0266756
0.237 1.03398e-24 0.000661329 0.00803173
-0.237 0 0.0011232 0.0263386
0.237 8.27181e-25 0.0011232 0.00803022
0.237 -8.27181e-25 0.00153384 0.00803112
0.237 0 0.00172954 0.00803156
-0.237 -2.58494e-26 0.00172954 0.0258433
-0.237 -2.58494e-26 0.00184676 0.0257933
0.237 0 0.00236831 0.00803592
-0.237 -1.03398e-25 0.0023683 0.025571
0.237 0 0.00302579 0.00804353
-0.237 0 0.00302578 0.0255815
-0.237 0 0.00333716 0.0256114
-0.237 0 0.00368597 0.0256449
0.237 2.58494e-26 0.00368597 0.00805294
0.237 2.58494e-26 0.00386407 0.0080554
-0.237 0 0.00418269 0.0256175
-0.237 0 0.00433887 0.0256088
0.237 0 0.00433887 0.00806196
-0.237 -5.16988e-26 0.00454125 0.0255792
0.237 0 0.00498192 0.00806876
-0.237 0 0.00498192 0.0255147
0.237 0 0.0056169 0.00807268
-0.237 0 0.0056169 0.0254324
-0.237 0 0.00598745 0.0253947
0.237 0 0.00624674 0.00807375
-0.237 0 0.00624674 0.0253683
0.237 4.1359e-25 0.00687382 0.00807232
-0.237 0 0.00687382 0.0253089
-0.237117 -1.03398e-25 0.000553557 0.0266715
0.237 0 0.00749962 0.0080689
-0.237 0 0.00749962 0.0252475
0.237 0 0.00812489 0.00806403
-0.237 0 0.00812489 0.0251846
0.237 0 0.00874998 0.00805819
-0.237 0 0.00874998 0.0251245
0.237 0 0.009375 0.00805176
-0.237 0 0.009375 0.0250722
-0.237 0 0.00999999 0.0250325
0.237 4.1359e-25 0.01 0.00804504
0.237 0 0.010625 0.00803824
-0.237 0 0.010625 0.0250082
-0.237263 0 0.000279273 0.0267792
0.237263 -2.71051e-20 0.000279185 0.00803403
-0.237 -4.1359e-25 0.01125 0.0250009
0.237 0 0.01125 0.00803152
-0.237267 2.71051e-20 0.000847159 0.0266018
0.237267 0 0.000847159 0.00803012
-0.237269 0 0.00144351 0.0260681
0.237269 0 0.00144351 0.00803032
0.23727 5.42101e-20 0.00206936 0.00803282
-0.23727 0 0.00206936 0.0256126
0.23727 2.71051e-20 0.00271568 0.00803905
-0.23727 0 0.00271568 0.0255287
-0.23727 0 0.00336939 0.0256344
0.23727 0 0.00336939 0.00804801
-0.237 0 0.011875 0.0250115
0.237 4.1359e-25 0.011875 0.00802498
-0.237271 0 0.00402047 0.0256553
0.237271 0 0.00402047 0.00805785
0.237 -2.06795e-25 0.0121783 0.00802192
-0.237271 0 0.00466435 0.0255627
0.237271 2.71051e-20 0.00466435 0.00806605
-0.237 2.06795e-25 0.012345 0.0250327
0.237 -4.1359e-25 0.0125 0.00801868
-0.237 0 0.0125 0.0250397
-0.237272 0 0.00530117 0.0254671
0.237272 2.71051e-20 0.00530117 0.00807145
-0.237272 -2.71051e-20 0.0059324 0.0253979
0.237272 -2.71051e-20 0.0059324 0.00807391
0.237272 0 0.00656043 0.00807359
-0.237272 5.42101e-20 0.00656043 0.0253388
0.237 0 0.013125 0.00801265
-0.237 0 0.013125 0.0250843
0.237272 0 0.00718674 0.00807105
-0.237272 0 0.00718674 0.025279
0.237 0 0.01375 0.0080069
-0.237 0 0.01375 0.0251436
-0.237272 -2.71051e-20 0.00781225 0.025216
0.237272 2.71051e-20 0.00781225 0.00806676
-0.237272 -2.71051e-20 0.00843742 0.0251532
0.237272 0 0.00843742 0.00806131
0.237 4.1359e-25 0.014375 0.00800143
-0.237 4.1359e-25 0.014375 0.0252159
0.237272 2.71051e-20 0.00906248 0.00805507
-0.237272 -2.71051e-20 0.00906248 0.0250957
0.237426 0 0.00434749 0.00806025
0.237272 0 0.0096875 0.00804844
-0.237272 0 0.00968749 0.0250487
-0.237433 0 0.00434764 0.0256344
-0.237 0 0.015 0.0252995
0.237 4.1359e-25 0.015 0.00799624
-0.237272 2.71051e-20 0.0103125 0.0250162
0.237272 -2.71051e-20 0.0103125 0.00804163
-0.237 0 0.015625 0.0253927
0.237 -4.1359e-25 0.015625 0.00799128
-0.23752 0 8.32931e-08 0.0267356
0.237521 -2.06795e-25 8.48621e-08 0.00803459
-0.237272 0 0.0109375 0.0250002
0.237272 0 0.0109375 0.00803484
0.237525 0 0.00114972 0.00803028
-0.237529 2.87921e-21 0.000562809 0.0266023
0.237529 1.57376e-21 0.000562807 0.0080325
-0.237533 0 0.00115011 0.0261794
0.237533 1.29247e-26 0.00115011 0.00803028
0.237538 5.61304e-21 0.00176909 0.00803106
-0.237538 -2.33606e-21 0.00176909 0.0256766
-0.237539 0 0.00214216 0.0255476
0.23754 0 0.0024097 0.00803477
-0.23754 0 0.0024097 0.025455
-0.237524 -1.29247e-26 0.00370618 0.025657
-0.237272 -2.71051e-20 0.0115625 0.0250017
0.237272 0 0.0115625 0.00802819
-0.237 0 0.01625 0.0254942
0.237 0 0.01625 0.00798655
0.237541 -1.71359e-20 0.00305869 0.00804189
-0.237541 -6.69644e-21 0.00305869 0.0255362
-0.237486 0 0.0062472 0.0253646
0.237542 2.13249e-20 0.00370687 0.00805096
-0.237542 -2.84214e-23 0.00370687 0.0256574
-0.237542 -6.46235e-27 0.0038992 0.0256524
-0.237543 0 0.00434987 0.0256409
0.237543 2.58494e-26 0.00434987 0.00805978
-0.237272 -2.71051e-20 0.0121875 0.0250212
0.237272 0 0.0121875 0.00802177
0.237543 -2.58494e-26 0.0045907 0.00806232
-0.237543 0 0.00498678 0.0255364
0.237543 0 0.00498678 0.00806648
-0.237 4.1359e-25 0.016875 0.0256027
0.237 4.1359e-25 0.016875 0.00798202
0.237544 -2.74417e-21 0.00561869 0.00807041
-0.237544 5.16988e-26 0.00561869 0.0254377
-0.237272 0 0.0128125 0.0250581
0.237272 2.71051e-20 0.0128125 0.00801559
0.237544 1.65924e-20 0.00624726 0.00807155
-0.237544 0 0.00624726 0.0253641
-0.237544 1.29247e-26 0.0065926 0.0253284
0.237544 1.60719e-20 0.00687391 0.00807024
-0.237544 0 0.00687391 0.0252993
-0.237 0 0.0175 0.0257169
0.237 0 0.0175 0.00797767
-0.237272 0 0.0134375 0.0251105
0.237272 5.42101e-20 0.0134375 0.00800971
0.237544 2.77689e-20 0.00749961 0.00806698
-0.237544 -5.16988e-26 0.00749961 0.0252331
0.237544 -8.29931e-21 0.00812487 0.00806227
-0.237544 8.71125e-22 0.00812487 0.0251662
-0.237272 0 0.0140625 0.0251768
0.237272 -5.42101e-20 0.0140625 0.0080041
-0.237 0 0.018125 0.025836
0.237 0 0.018125 0.00797347
0.237544 -1.00194e-20 0.00874996 0.00805659
-0.237544 9.90838e-21 0.00874996 0.0251033
-0.237272 0 0.0146875 0.0252551
0.237272 0 0.0146875 0.00799877
0.237544 -1.3397e-20 0.00937499 0.00805032
-0.237544 2.00914e-20 0.00937499 0.0250498
-0.237402 0 0.0125 0.0250299
-0.237 -8.27181e-25 0.01875 0.0259588
0.237 0 0.01875 0.00796942
0.237544 -9.58537e-21 0.01 0.00804375
-0.237544 1.0298e-20 0.01 0.0250102
-0.237272 0 0.0153125 0.0253439
0.237272 -2.71051e-20 0.0153125 0.0079937
0.237544 -1.75815e-20 0.010625 0.00803709
-0.237544 2.48461e-20 0.010625 0.0249877
-0.237 8.27181e-25 0.019375 0.0260846
0.237 0 0.019375 0.0079655
-0.237799 2.71051e-20 0.000284465 0.0266914
0.237799 0 0.000284553 0.00803515
0.237272 2.71051e-20 0.0159375 0.00798887
-0.237272 2.71051e-20 0.0159375 0.0254416
-0.237544 -1.05337e-20 0.01125 0.0249831
0.237544 -7.12358e-21 0.01125 0.00803051
-0.237811 -5.42101e-20 0.000863452 0.0263269
0.237811 0 0.000863452 0.00803065
0.23782 2.71051e-20 0.00147122 0.00803002
-0.23782 -5.42101e-20 0.00147122 0.0257019
-0.237826 -8.13152e-20 0.00210431 0.025315
0.237826 0 0.00210431 0.00803102
-0.237544 1.41766e-20 0.011875 0.0249962
0.237544 1.34177e-20 0.011875 0.0080241
0.237 0 0.02 0.00796169
-0.237 -4.1359e-25 0.02 0.0262127
-0.237829 0 0.00274869 0.0253626
0.237829 0 0.00274869 0.00803613
0.237272 -5.42101e-20 0.0165625 0.00798424
-0.237272 2.71051e-20 0.0165625 0.0255469
-0.23783 -2.71051e-20 0.00339421 0.0256198
0.23783 -2.71051e-20 0.00339421 0.00804427
0.237544 0 0.0121682 0.00802119
-0.237831 2.71051e-20 0.00403604 0.0257209
0.237831 0 0.00403604 0.00805364
0.237544 0 0.0125 0.00801791
-0.237544 -2.00903e-20 0.0125 0.0250264
-0.237832 0 0.00467279 0.0256259
0.237832 -2.71051e-20 0.00467279 0.00806152
-0.237833 0 0.00530504 0.0254909
0.237833 -2.71051e-20 0.00530504 0.00806683
0.237272 0 0.0171875 0.0079798
-0.237272 0 0.0171875 0.0256585
0.237 0 0.020625 0.00795798
-0.237 -4.1359e-25 0.020625 0.0263423
-0.237544 -6.46235e-27 0.0130436 0.0250666
0.237544 0 0.013125 0.00801198
-0.237544 0 0.013125 0.0250726
-0.237833 0 0.00593404 0.0253954
0.237833 2.71051e-20 0.00593404 0.00806936
-0.237834 0 0.00656112 0.0253244
0.237834 -5.42101e-20 0.00656112 0.00806926
0.237272 -2.71051e-20 0.0178125 0.00797554
-0.237272 -8.13152e-20 0.0178125 0.0257754
0.237544 0 0.01375 0.00800632
-0.237544 -5.16988e-26 0.01375 0.0251332
-0.237834 0 0.00718692 0.0252546
0.237834 5.42101e-20 0.00718692 0.008067
0.237 0 0.02125 0.00795437
-0.237 0 0.02125 0.0264727
0.237907 -1.29247e-26 0.00499071 0.00806171
-0.237834 2.71051e-20 0.00781229 0.0251823
0.237834 -2.71051e-20 0.00781229 0.00806302
0.237544 0 0.014375 0.00800093
-0.237544 1.03398e-25 0.014375 0.0252064
-0.237834 -2.71051e-20 0.00843743 0.0251125
0.237834 2.71051e-20 0.00843743 0.00805792
0.237272 5.42101e-20 0.0184375 0.00797142
-0.237272 -2.71051e-20 0.0184375 0.0258966
0.237 1.03398e-25 0.021692 0.00795187
-0.23799 0 0.00243355 0.0253808
-0.237904 6.46235e-27 0.00687421 0.0252498
-0.237834 0 0.00906248 0.025051
0.237834 0 0.00906248 0.00805199
-0.237 0 0.021875 0.0266034
0.237 0 0.021875 0.00795083
-0.237544 1.03398e-25 0.015 0.0252906
0.237544 -1.16724e-20 0.015 0.00799579
-0.237834 2.71051e-20 0.0096875 0.0250027
0.237834 0 0.0096875 0.0080457
0.237272 2.71051e-20 0.0190625 0.00796744
-0.237272 5.42101e-20 0.0190625 0.0260211
-0.237544 1.03398e-25 0.015625 0.0253843
0.237544 1.32307e-20 0.015625 0.00799089
-0.237834 0 0.0103125 0.0249724
0.237834 -2.71051e-20 0.0103125 0.00803917
-0.23806 0 2.8441e-10 0.0267565
0.23806 0 -5.02801e-10 0.00803334
-0.237 4.1359e-25 0.0225 0.0267339
0.237 -2.06795e-25 0.0225 0.00794738
-0.238083 4.1359e-25 0.000570196 0.0265637
0.238083 2.11515e-20 0.000570195 0.00803118
-0.237834 0 0.0109375 0.0249612
0.237834 5.42101e-20 0.0109375 0.00803269
0.237272 -2.71051e-20 0.0196875 0.00796357
-0.237272 0 0.0196875 0.0261482
-0.237544 2.06795e-25 0.01625 0.0254862
0.237544 0 0.01625 0.00798619
-0.238097 -2.06795e-25 0.00116715 0.0260602
0.238097 1.00619e-20 0.00116715 0.00802831
-0.237834 -2.71051e-20 0.0115625 0.0249684
0.237834 -2.71051e-20 0.0115625 0.00802629
-0.238109 0 0.00179591 0.0255523
0.238109 5.16988e-26 0.00179591 0.00802767
0.237 2.06795e-25 0.023125 0.00794401
-0.237 2.06795e-25 0.023125 0.0268637
0.238117 0 0.00244027 0.00803005
-0.238117 -3.85535e-20 0.00244027 0.0253599
-0.237768 -6.46235e-27 0.013125 0.0250565
-0.238119 2.58494e-26 0.00283525 0.0254324
-0.237272 -2.71051e-20 0.0203125 0.0262772
0.237272 2.71051e-20 0.0203125 0.00795981
0.23812 0 0.00308541 0.00803623
-0.23812 0 0.00308541 0.0254783
-0.237544 0 0.016875 0.0255949
0.237544 -5.16988e-26 0.016875 0.00798169
-0.237 0 0.0233232 0.0269044
-0.237834 2.71051e-20 0.0121875 0.0249927
0.237834 5.42101e-20 0.0121875 0.00802011
0.238121 -1.03398e-25 0.00372595 0.0080445
-0.238121 0 0.00372595 0.0256319
-0.238121 -3.23117e-27 0.00397633 0.0256306
0.238122 0 0.00436151 0.00805267
-0.238122 -1.29247e-26 0.00436151 0.0256287
0.238122 2.58494e-26 0.00499302 0.0080589
-0.238122 0 0.00499302 0.0255195
-0.237834 -2.71051e-20 0.0128125 0.0250332
0.237834 -2.71051e-20 0.0128125 0.00801415
0.238123 5.70952e-21 0.00562167 0.00806261
-0.237 0 0.02375 0.0269922
0.237 0 0.02375 0.00794071
-0.237544 0 0.0175 0.0257093
0.237544 0 0.0175 0.00797737
-0.238123 -2.58494e-26 0.00562167 0.0253997
0.238123 8.07794e-28 0.00564417 0.00806264
-0.237272 0 0.0209375 0.0264074
0.237272 0 0.0209375 0.00795615
0.238123 7.44863e-21 0.00624853 0.00806377
-0.238123 0 0.00624853 0.0253022
-0.238092 0 0.00749976 0.0251488
-0.237834 0 0.0134375 0.0250883
0.237834 -2.71051e-20 0.0134375 0.00800845
0.238124 2.28466e-20 0.0068744 0.00806273
-0.238124 0 0.0068744 0.0252196
-0.237544 0 0.018125 0.0258285
0.237544 1.03398e-25 0.018125 0.0079732
0.238124 -1.34611e-20 0.00749977 0.00805991
-0.238124 0 0.00749977 0.025144
-0.238124 -1.61559e-27 0.00771005 0.0251206
-0.237834 -2.71051e-20 0.0140625 0.0251567
0.237834 -2.71051e-20 0.0140625 0.00800301
-0.237272 -5.42101e-20 0.0215625 0.0265381
0.237272 5.42101e-20 0.0215625 0.00795258
-0.237 0 0.024375 0.0271191
0.237 0 0.024375 0.00793749
0.238124 3.04806e-21 0.00812492 0.00805576
-0.238124 0 0.00812492 0.0250746
-0.238255 -2.58494e-26 0.00308857 0.0254888
-0.237544 2.06795e-25 0.01875 0.0259514
0.237544 -1.03398e-25 0.01875 0.00796916
0.238124 1.59473e-20 0.00874998 0.00805066
-0.238124 -2.00575e-20 0.00874998 0.0250148
0.237834 -2.71051e-20 0.0146875 0.00799782
-0.237834 2.71051e-20 0.0146875 0.0252365
-0.238259 0 0.00372833 0.0256133
-0.237272 0 0.0221875 0.0266688
0.237272 2.71051e-20 0.0221875 0.00794909
0.238124 3.70334e-20 0.00937499 0.00804497
-0.238124 6.07834e-21 0.00937499 0.0249681
-0.237 -8.27181e-25 0.025 0.027244
0.237 2.06795e-25 0.025 0.00793433
0.237834 -2.71051e-20 0.0153125 0.00799286
-0.237834 0 0.0153125 0.0253265
0.237544 0 0.019375 0.00796525
-0.237544 0 0.019375 0.0260774
0.238124 1.42367e-20 0.01 0.00803895
-0.238124 -8.42253e-21 0.01 0.0249371
-0.238124 -7.49389e-21 0.010625 0.0249229
0.238124 2.94791e-20 0.010625 0.00803281
0.238362 2.71051e-20 0.000287929 0.00803149
-0.238362 2.71051e-20 0.000287929 0.0268234
-0.237272 2.71051e-20 0.0228125 0.0267991
0.237272 0 0.0228125 0.00794568
0.237834 0 0.0159375 0.00798811
-0.237834 0 0.0159375 0.0254249
-0.237 -8.27181e-25 0.025625 0.0273665
0.237 0 0.025625 0.00793125
0.237544 0 0.02 0.00796145
-0.237544 0 0.02 0.0262055
-0.238124 2.36637e-20 0.01125 0.0249258
0.238124 -1.56397e-20 0.01125 0.00802671
-0.238389 -2.71051e-20 0.000874094 0.0264055
0.238389 2.71051e-20 0.000874094 0.00802726
0.237834 -2.71051e-20 0.0165625 0.00798355
-0.237834 2.71051e-20 0.0165625 0.0255309
0.238408 2.71051e-20 0.00148916 0.00802517
-0.238408 0 0.00148916 0.0257961
-0.238124 1.15681e-20 0.011875 0.0249454
0.238124 -7.7227e-21 0.011875 0.00802071
-0.237272 -2.71051e-20 0.0234375 0.0269283
0.237272 2.71051e-20 0.0234375 0.00794234
0.238422 0 0.00212682 0.00802431
-0.238422 0 0.00212682 0.0253952
0.238124 6.46235e-27 0.012136 0.00801829
0.237544 0 0.020625 0.00795774
-0.237544 -5.16988e-26 0.020625 0.0263351
0.238429 2.71051e-20 0.00277088 0.00802858
-0.238429 0 0.00277088 0.0253665
-0.237 0 0.02625 0.0274861
0.237 0 0.02625 0.00792825
-0.238124 -2.60663e-20 0.0125 0.0249808
0.238124 0 0.0125 0.0080149
0.237834 0 0.0171875 0.00797918
-0.237834 -2.71051e-20 0.0171875 0.0256429
-0.238431 -2.71051e-20 0.0034119 0.0255612
0.238431 0 0.0034119 0.00803572
0.237453 0 0.021875 0.00795065
-0.238431 2.71051e-20 0.00404796 0.0256233
0.238431 0 0.00404796 0.00804416
-0.238431 0 0.00467997 0.0255436
0.238431 -2.71051e-20 0.00467997 0.00805116
0.238124 -5.16988e-26 0.013125 0.0080093
-0.238124 -3.19934e-20 0.013125 0.025031
-0.237272 -2.71051e-20 0.0240625 0.0270561
0.237272 5.42101e-20 0.0240625 0.00793909
0.238432 0 0.00530874 0.00805587
-0.238432 -2.71051e-20 0.00530874 0.0254165
0.237544 0 0.02125 0.00795413
-0.237544 0 0.02125 0.0264656
0.237834 0 0.0178125 0.00797496
-0.237834 5.42101e-20 0.0178125 0.0257602
0.238432 -2.71051e-20 0.00593583 0.00805812
-0.238432 0 0.00593583 0.0252947
-0.238124 0 0.0135349 0.0250727
-0.237 0 0.026875 0.0276027
0.237 0 0.026875 0.00792532
0.238124 0 0.01375 0.00800393
-0.238124 0 0.01375 0.0250946
0.238432 0 0.00656171 0.00805812
-0.238432 -2.71051e-20 0.00656171 0.025192
0.238432 0 0.00718722 0.00805635
-0.238432 5.42101e-20 0.00718722 0.0251049
0.237834 0 0.0184375 0.00797087
-0.237834 0 0.0184375 0.0258815
-0.237544 0 0.021875 0.0265964
0.237544 -1.9683e-20 0.021875 0.00795061
-0.237272 -2.71051e-20 0.0246875 0.0271821
0.237272 2.71051e-20 0.0246875 0.00793589
0.238124 5.16988e-26 0.014375 0.00799877
-0.238124 2.58494e-26 0.014375 0.0251701
-0.238432 2.71051e-20 0.00781239 0.0250312
0.238432 5.42101e-20 0.00781239 0.00805307
-0.237456 2.58494e-26 0.023125 0.0268578
0.238432 0 0.00843746 0.00804883
-0.238432 2.71051e-20 0.00843746 0.0249695
-0.237 -8.27181e-25 0.0275 0.0277159
0.237 0 0.0275 0.00792247
-0.238124 0 0.015 0.0252561
0.238124 0 0.015 0.00799384
0.237544 6.46235e-27 0.0223821 0.00794781
0.237834 -2.71051e-20 0.0190625 0.00796692
-0.237834 2.71051e-20 0.0190625 0.0260064
-0.238432 2.71051e-20 0.00906249 0.0249236
0.238433 0 0.00906249 0.00804372
-0.237544 4.02545e-21 0.0225 0.0267269
0.237544 0 0.0225 0.00794716
-0.237272 -2.71051e-20 0.0253125 0.0273059
0.237272 2.71051e-20 0.0253125 0.00793278
-0.237544 1.29247e-26 0.0227211 0.0267728
-0.238432 -2.71051e-20 0.0096875 0.0248928
0.238432 2.71051e-20 0.0096875 0.0080383
0.238631 -4.1359e-25 4.63152e-09 0.00802813
-0.238631 0 1.52166e-09 0.0270278
-0.238124 -5.16988e-26 0.015625 0.0253512
0.238124 1.5785e-20 0.015625 0.00798911
0.237834 2.71051e-20 0.0196875 0.00796307
-0.237834 2.71051e-20 0.0196875 0.0261335
-0.238432 0 0.0103125 0.0248783
0.238433 0 0.0103125 0.0080325
-0.237 0 0.028125 0.0278254
0.237 0 0.028125 0.00791971
-0.237544 -1.31301e-20 0.023125 0.0268567
0.237544 3.25132e-21 0.023125 0.0079438
-0.238672 -8.27181e-25 0.00057569 0.0268372
0.238672 -1.40724e-20 0.000575687 0.00802601
-0.238124 5.16988e-26 0.01625 0.0254541
0.238124 0 0.01625 0.00798457
0.237544 -1.29247e-26 0.023246 0.00794316
0.237497 0 0.02375 0.00794052
-0.238433 0 0.0109375 0.0248778
0.238433 -2.71051e-20 0.0109375 0.00802677
-0.237272 -2.71051e-20 0.0259375 0.027427
0.237272 2.71051e-20 0.0259375 0.00792973
0.23744 0 0.024375 0.00793732
-0.237834 2.71051e-20 0.0203125 0.0262627
0.237834 0 0.0203125 0.00795933
-0.238565 1.61559e-27 0.00812496 0.0249719
0.238622 0 0.00624927 0.00805226
-0.238701 4.1359e-25 0.00117836 0.0263507
0.238701 -1.31444e-21 0.00117836 0.0080226
-0.238432 -2.71051e-20 0.0115625 0.0248941
0.238433 -2.71051e-20 0.0115625 0.00802096
-0.238124 0 0.016875 0.0255636
0.238124 1.29247e-26 0.016875 0.00798019
0.237415 0 0.025 0.00793418
-0.237544 -2.47141e-21 0.02375 0.0269853
0.237544 2.58494e-26 0.02375 0.0079405
-0.238723 0 0.00181179 0.0258426
0.238723 -1.29247e-26 0.00181179 0.00802054
-0.237 4.1359e-25 0.02875 0.027931
0.237 2.06795e-25 0.02875 0.00791704
-0.238432 -2.71051e-20 0.0121875 0.0249248
0.238432 2.71051e-20 0.0121875 0.00801539
-0.238737 0 0.00245721 0.0255634
0.238737 0 0.00245721 0.00802192
-0.237834 -2.71051e-20 0.0209375 0.0263929
0.237834 -2.71051e-20 0.0209375 0.00795568
-0.237272 0 0.0265625 0.0275452
0.237272 -2.71051e-20 0.0265625 0.00792677
-0.238742 5.16988e-26 0.00309995 0.0255263
0.238742 0 0.00309995 0.00802718
-0.238124 1.03398e-25 0.0175 0.0256787
0.238124 -1.29247e-26 0.0175 0.00797597
0.238742 0 0.00373666 0.00803415
-0.238742 0 0.00373666 0.025548
-0.238432 5.42101e-20 0.0128125 0.0249714
0.238433 0 0.0128125 0.00800988
0.238741 -2.58494e-26 0.0043684 0.00804102
-0.238741 1.29247e-26 0.0043684 0.025495
0.237668 -3.23117e-27 0.023125 0.00794359
-0.237544 -4.24191e-20 0.024375 0.0271122
0.237544 0 0.024375 0.00793728
0.238741 0 0.00499695 0.00804597
-0.238741 0 0.00499695 0.0253873
0.23742 0 0.025625 0.0079311
-0.237 -4.1359e-25 0.0292779 0.0280167
0.238741 -1.74597e-20 0.00562368 0.00804881
-0.238741 0 0.00562368 0.025268
-0.237834 5.42101e-20 0.0215625 0.0265238
0.237834 -2.71051e-20 0.0215625 0.00795212
-0.238432 -2.71051e-20 0.0134375 0.02503
0.238433 0 0.0134375 0.00800464
-0.238124 1.03398e-25 0.018125 0.0257984
0.238124 2.58494e-26 0.018125 0.00797188
0.237 -2.06795e-25 0.029375 0.00791447
-0.237 0 0.029375 0.0280324
0.237755 -1.29247e-26 0.0225 0.0079468
-0.238741 0 0.00624945 0.0251608
0.238741 0 0.00624945 0.00804952
-0.237272 2.71051e-20 0.0271875 0.0276602
0.237272 0 0.0271875 0.00792388
-0.237 -3.10193e-25 0.0295184 0.0280547
0.238741 -3.23117e-27 0.00666769 0.00804883
-0.238741 -6.46235e-27 0.00687478 0.0250698
0.238741 1.52607e-20 0.00687478 0.00804849
-0.238432 -2.71051e-20 0.0140625 0.0251024
0.238432 -2.71051e-20 0.0140625 0.00799954
-0.237544 2.59755e-21 0.025 0.0272372
0.237544 0 0.025 0.00793413
0.238741 5.69617e-21 0.00749992 0.00804608
-0.238741 -6.46235e-27 0.00749992 0.0249937
-0.238124 -5.16988e-26 0.01875 0.0259217
0.238124 0 0.01875 0.00796791
-0.237834 0 0.0221875 0.0266545
0.237834 2.71051e-20 0.0221875 0.00794864
0.238741 4.11099e-20 0.00812497 0.00804263
-0.238741 0 0.00812497 0.0249309
0.238432 -2.71051e-20 0.0146875 0.00799468
-0.238432 -2.71051e-20 0.0146875 0.025184
-0.237 4.1359e-25 0.03 0.0281295
0.237 -1.03398e-25 0.03 0.00791199
0.237445 5.16988e-26 0.02625 0.00792809
-0.238741 -1.21169e-27 0.00861111 0.0248931
0.237272 -5.42101e-20 0.0278125 0.00792107
-0.237272 5.42101e-20 0.0278125 0.0277716
0.238741 -1.80708e-20 0.00874999 0.00803844
-0.238741 0 0.00874999 0.0248823
0.237 0 0.0300806 0.00791169
0.238124 0 0.019375 0.00796406
-0.238124 5.16988e-26 0.019375 0.026048
-0.237544 -1.12346e-20 0.025625 0.0273596
0.237544 -5.16988e-26 0.025625 0.00793106
-0.238432 -2.71051e-20 0.0153125 0.0252766
0.238432 2.71051e-20 0.0153125 0.00798997
0.238741 -8.45744e-21 0.009375 0.0080337
-0.238741 3.56585e-20 0.009375 0.0248487
-0.237834 -2.71051e-20 0.0228125 0.026785
0.237834 5.42101e-20 0.0228125 0.00794524
-0.237 -2.06795e-25 0.0303451 0.0281806
0.238928 -1.29247e-26 0.00180987 0.00801783
0.238741 -4.83733e-22 0.01 0.00802866
-0.238741 -2.63671e-20 0.01 0.0248305
0.238956 5.42101e-20 0.000288814 0.00802468
-0.238956 -2.71051e-20 0.000288814 0.0272372
0.238124 -1.03398e-25 0.02 0.00796031
-0.238124 -2.58494e-26 0.02 0.0261765
0.238432 -2.71051e-20 0.0159375 0.00798547
-0.238432 2.71051e-20 0.0159375 0.0253758
0.237272 0 0.0284375 0.00791835
-0.237272 0 0.0284375 0.0278792
0.237 0 0.030625 0.00790963
-0.237 0 0.030625 0.0282221
-0.238741 -2.87419e-21 0.010625 0.0248275
0.238741 2.17859e-22 0.010625 0.00802344
-0.237834 2.71051e-20 0.0234375 0.0269142
0.237834 2.71051e-20 0.0234375 0.00794192
0.237471 7.75482e-26 0.026875 0.00792516
-0.237544 6.31139e-22 0.02625 0.0274793
0.237544 0 0.02625 0.00792806
-0.239 2.71051e-20 0.000876671 0.0268801
0.239 2.71051e-20 0.000876671 0.00802045
0.238992 -1.29247e-26 0.00245395 0.0080185
-0.238741 2.42302e-21 0.01125 0.0248397
0.238741 6.41491e-22 0.01125 0.0080182
-0.238432 -2.71051e-20 0.0165625 0.0254838
0.238433 0 0.0165625 0.0079811
-0.237949 6.46235e-27 0.0225 0.0267076
0.238124 1.03398e-25 0.020625 0.00795665
-0.238124 6.46235e-27 0.020625 0.0263065
0.239031 2.71051e-20 0.00149329 0.00801738
-0.239031 2.71051e-20 0.00149329 0.0263182
-0.238741 2.24936e-20 0.011875 0.024867
0.238741 2.29496e-20 0.011875 0.00801298
0.237272 0 0.0290625 0.00791573
-0.237272 -2.71051e-20 0.0290625 0.0279828
0.238741 0 0.0120684 0.0080114
-0.237834 -5.42101e-20 0.0240625 0.0270422
0.237834 0 0.0240625 0.00793867
0.238432 0 0.0171875 0.0079769
-0.238432 2.71051e-20 0.0171875 0.0255959
0.237 0 0.03125 0.00790737
-0.237 0 0.03125 0.02831
-0.237544 -1.32138e-20 0.026875 0.027596
0.237544 2.58494e-26 0.026875 0.00792514
-0.239054 2.71051e-20 0.0021315 0.0258662
0.239054 -2.71051e-20 0.0021315 0.00801519
-0.238124 -1.61559e-27 0.0211991 0.0264267
-0.23812 9.69352e-27 0.02125 0.0264373
-0.237256 1.03398e-25 0.029375 0.0280294
-0.238741 2.27322e-20 0.0125 0.0249089
0.238741 0 0.0125 0.00800788
0.238124 0 0.02125 0.00795307
0.237494 2.58494e-26 0.0275 0.00792232
0.239065 2.71051e-20 0.00277514 0.00801946
-0.239065 2.71051e-20 0.00277515 0.0256295
-0.239066 0 0.00341637 0.0255477
0.239066 -2.71051e-20 0.00341637 0.00802476
-0.238432 -2.71051e-20 0.0178125 0.0257149
0.238433 0 0.0178125 0.00797281
0.239063 -5.42101e-20 0.00405176 0.00803173
-0.239063 -2.71051e-20 0.00405176 0.0254586
0.238741 -1.54988e-21 0.013125 0.00800289
-0.238741 3.76649e-20 0.013125 0.0249641
-0.238104 -1.61559e-27 0.021875 0.0265694
0.239062 5.42101e-20 0.00468248 0.00803683
-0.239062 -5.42101e-20 0.00468248 0.0253531
-0.237834 2.71051e-20 0.0246875 0.0271682
0.237834 2.71051e-20 0.0246875 0.00793548
0.239061 0 0.00531037 0.00803985
-0.239061 0 0.00531037 0.0252345
-0.237272 0 0.0296875 0.028082
0.237272 0 0.0296875 0.00791321
0.237235 -5.16988e-26 0.03 0.00791194
0.238124 0 0.021875 0.00794958
-0.238124 -5.19057e-21 0.021875 0.0265684
-0.237544 8.54105e-21 0.0275 0.0277092
0.237544 0 0.0275 0.0079223
-0.238741 1.61559e-27 0.0136813 0.0250243
0.237 -8.27181e-25 0.031875 0.00790523
-0.237 0 0.031875 0.0283932
0.23906 2.71051e-20 0.0059367 0.00804123
-0.23906 -5.42101e-20 0.0059367 0.0251247
0.238741 -4.22283e-21 0.01375 0.00799808
-0.238741 0 0.01375 0.0250318
-0.238432 -2.71051e-20 0.0184375 0.025836
0.238432 -2.71051e-20 0.0184375 0.00796885
-0.23906 0 0.00656221 0.02503
0.23906 -5.42101e-20 0.00656221 0.00804042
-0.23906 5.42101e-20 0.0071874 0.0249505
0.23906 -5.42101e-20 0.0071874 0.00803886
0.237511 -3.87741e-26 0.028125 0.00791956
0.238741 -1.29247e-26 0.014375 0.0079934
-0.238741 0 0.014375 0.0251105
-0.237834 0 0.0253125 0.0272921
0.237834 0 0.0253125 0.00793238
0.23916 -2.58494e-26 0.0030969 0.00802096
0.238124 -4.14239e-21 0.0225 0.00794617
-0.238124 -6.6503e-21 0.0225 0.0266993
-0.23906 0 0.00781246 0.0248865
0.23906 0 0.00781246 0.00803581
-0.238432 0 0.0190625 0.0259623
0.238432 0 0.0190625 0.00796499
-0.237272 0 0.0303125 0.0281769
0.237272 0 0.0303125 0.00791079
-0.237544 3.24317e-21 0.028125 0.0278188
0.237544 -1.29247e-26 0.028125 0.00791955
-0.23906 2.71051e-20 0.00843749 0.024835
0.23906 0 0.00843749 0.0080326
-0.238741 0 0.015 0.025199
0.238741 1.37357e-20 0.015 0.00798888
0.237 0 0.0325 0.00790321
-0.237 0 0.0325 0.0284716
0.23912 0 0.00687486 0.00803753
-0.239232 -1.65436e-24 1.00757e-08 0.0273782
0.239232 8.27181e-25 5.78724e-09 0.00802056
0.23906 0 0.0090625 0.00802842
-0.23906 2.71051e-20 0.0090625 0.0247996
0.238432 0 0.0196875 0.00796124
-0.238432 0 0.0196875 0.0260891
-0.237834 2.71051e-20 0.0259375 0.0274132
0.237834 2.71051e-20 0.0259375 0.00792935
-0.238124 -1.97687e-20 0.023125 0.0268294
0.238124 0 0.023125 0.00794283
-0.238741 1.29247e-26 0.015625 0.025296
0.238741 0 0.015625 0.0079845
-0.239094 0 0.00875 0.0248038
0.239061 0 0.0096875 0.00802419
-0.239061 -2.71051e-20 0.0096875 0.0247772
0.237531 0 0.02875 0.00791689
-0.237544 -1.76897e-20 0.02875 0.0279244
0.237544 0 0.02875 0.00791689
-0.237272 0 0.0309375 0.0282672
0.237272 0 0.0309375 0.00790847
0.239061 -2.71051e-20 0.0103125 0.00801949
-0.239061 2.71051e-20 0.0103125 0.0247722
-0.238393 -1.61559e-27 0.020625 0.0262854
0.237479 -1.03398e-25 0.029375 0.00791434
-0.239291 0 0.000573875 0.0272177
0.239291 -3.20783e-20 0.000573866 0.00801856
-0.238741 0 0.01625 0.0254005
0.238741 -3.23117e-27 0.01625 0.00798027
0.238432 2.71051e-20 0.0203125 0.00795757
-0.238432 -2.71051e-20 0.0203125 0.0262199
0.237 0 0.033125 0.00790132
-0.237 -8.27181e-25 0.033125 0.0285453
-0.238124 3.16331e-20 0.02375 0.0269583
0.238124 0 0.02375 0.00793956
0.239061 0 0.0109375 0.00801484
-0.239061 2.71051e-20 0.0109375 0.0247803
0.237834 0 0.0265625 0.0079264
-0.237834 0 0.0265625 0.0275317
0.239294 -1.9387e-26 0.0037352 0.00802382
-0.238741 -2.58494e-26 0.016875 0.0255113
0.238741 -3.23117e-27 0.016875 0.00797616
-0.239335 0 0.00117391 0.0267846
0.239335 1.70171e-20 0.00117392 0.00801524
0.23906 0 0.0115625 0.00801009
-0.239061 0 0.0115625 0.0248053
0.238432 -2.71051e-20 0.0209375 0.00795399
-0.238432 2.71051e-20 0.0209375 0.0263496
-0.237544 -5.78447e-21 0.029375 0.0280259
0.237544 -2.58494e-26 0.029375 0.00791432
0.239356 0 0.00159183 0.00801314
-0.237272 2.71051e-20 0.0315625 0.0283528
0.237272 -2.71051e-20 0.0315625 0.00790628
-0.238124 -1.76968e-20 0.024375 0.0270856
0.238124 0 0.024375 0.00793636
0.239061 2.71051e-20 0.0121875 0.00800537
-0.239061 2.71051e-20 0.0121875 0.0248427
-0.239367 8.27181e-25 0.00180576 0.0262789
0.239367 0 0.00180576 0.00801206
-0.238741 0 0.0175 0.0256274
0.238741 0 0.0175 0.00797216
0.237834 0 0.0271875 0.00792352
-0.237834 -5.42101e-20 0.0271875 0.0276466
0.237 0 0.03375 0.00789956
-0.237 0 0.03375 0.0286143
-0.239388 0 0.00244888 0.0258859
0.239388 2.58494e-26 0.00244888 0.00801318
0.23906 0 0.0128125 0.00800079
-0.239061 -2.71051e-20 0.0128125 0.0248956
0.238432 0 0.0215625 0.00795048
-0.238432 2.71051e-20 0.0215625 0.0264821
-0.239391 0 0.00309523 0.0256438
0.239391 0 0.00309522 0.00801751
-0.239387 -1.03398e-25 0.00373495 0.0254865
0.239387 0 0.00373495 0.00802209
0.239384 -1.61559e-27 0.0041834 0.00802589
-0.239383 -5.16988e-26 0.00436802 0.0253463
0.239383 0 0.00436802 0.00802745
-0.238741 2.58494e-26 0.018125 0.0257479
0.238741 0 0.018125 0.00796827
0.237544 -1.03398e-25 0.03 0.00791186
-0.237544 -1.22006e-20 0.03 0.0281231
-0.238124 -1.29253e-20 0.025 0.0272108
0.238124 0 0.025 0.00793324
-0.239381 2.58494e-26 0.00499721 0.0252152
0.239381 -6.46235e-27 0.00499721 0.00803009
0.239061 0 0.0134375 0.00799618
-0.239061 -2.71051e-20 0.0134375 0.0249586
-0.237272 0 0.0321875 0.0284336
0.237272 -2.71051e-20 0.0321875 0.00790419
-0.23938 0 0.00562396 0.0250959
0.23938 0 0.00562396 0.00803178
0.237834 0 0.0278125 0.00792073
-0.237834 -2.71051e-20 0.0278125 0.0277582
-0.23938 0 0.0062497 0.024991
0.23938 3.23117e-27 0.0062497 0.00803139
0.238432 -5.42101e-20 0.0221875 0.00794706
-0.238432 0 0.0221875 0.0266124
0.239347 0 0.00749998 0.00802842
-0.237502 0 0.030625 0.0282162
0.23906 0 0.0140625 0.00799186
-0.239061 2.71051e-20 0.0140625 0.0250353
-0.238741 0 0.01875 0.0258719
0.238741 0 0.01875 0.00796447
-0.23938 3.23117e-27 0.00687491 0.0249057
0.23938 0 0.00687491 0.00803003
-0.237 0 0.034375 0.0286786
0.237 0 0.034375 0.00789792
0.239449 -1.61559e-27 0.00436714 0.00802653
-0.23938 0 0.00749998 0.0248343
0.23938 0 0.00749998 0.00802747
-0.238124 1.00502e-20 0.025625 0.0273336
0.238124 -5.16988e-26 0.025625 0.0079302
0.23938 4.03897e-28 0.00785678 0.00802571
0.237544 2.06795e-25 0.030625 0.0079095
-0.237544 -2.73485e-20 0.030625 0.0282157
0.23906 2.71051e-20 0.0146875 0.00798743
-0.23906 -5.42101e-20 0.0146875 0.0251195
-0.23938 0 0.00812499 0.0247812
0.23938 -2.01948e-28 0.00812499 0.00802438
0.238432 -2.71051e-20 0.0228125 0.0079437
-0.238432 0 0.0228125 0.0267445
0.238741 0 0.019375 0.00796076
-0.238741 2.38541e-20 0.019375 0.0259988
0.237834 0 0.0284375 0.00791803
-0.237834 0 0.0284375 0.0278658
-0.237272 -2.71051e-20 0.0328125 0.0285097
0.237272 0 0.0328125 0.00790224
0.23938 -9.76727e-21 0.00875 0.00802085
-0.23938 0 0.00875 0.0247401
-0.23938 0 0.008971 0.0247319
0.239061 0 0.0153125 0.00798337
-0.239061 0 0.0153125 0.0252153
0.23938 -7.80763e-21 0.009375 0.00801696
-0.23938 8.07794e-28 0.009375 0.0247169
-0.237544 -2.58494e-26 0.0310419 0.0282744
-0.238124 -3.01094e-22 0.02625 0.0274536
0.238124 0 0.02625 0.00792723
-0.237 -8.27181e-25 0.035 0.0287384
0.237 0 0.035 0.00789641
-0.239571 -2.71051e-20 0.000281055 0.0275215
0.239571 -2.71051e-20 0.000281054 0.00801638