# pMean  POINT_DATA 13056
# x  y  z  pMean
-1.93744e-27 -0.01 1.38404e-07 0.0101141
0 0.01 8.31199e-08 0.0101152
0 0.01 0.00067832 0.0101151
0 -0.01 0.00067832 0.0101141
3.10193e-25 0.0100155 0.000677146 0.0101151
2.58494e-26 -0.0100173 0.000677006 0.0101141
0 0.01 0.00137372 0.0101151
2.06795e-25 -0.01 0.00137372 0.0101141
1.03398e-24 0.0100736 0.00135825 0.0101152
0 -0.010074 0.00135817 0.0101141
1.57772e-30 -0.01 0.002087 0.0101141
7.88861e-31 0.01 0.002087 0.0101152
0 -0.0102613 0.000329046 0.010114
0 0.0102613 0.000329046 0.0101152
5.42101e-20 0.0102561 0.000988366 0.0101152
0 -0.0102561 0.000988366 0.010114
0 0.0102356 0.00161953 0.0101152
0 -0.0102356 0.00161953 0.0101141
2.06795e-25 0.0105293 8.68458e-08 0.0101152
2.06795e-25 -0.0105293 8.80408e-08 0.0101141
-2.06795e-25 -0.0105286 0.000176899 0.0101141
-3.39558e-21 0.0105268 0.000638363 0.0101152
-1.3378e-20 -0.0105268 0.000638363 0.0101141
-8.27181e-25 0.0105159 0.00126532 0.0101152
-2.02907e-21 -0.0105159 0.0012653 0.0101141
2.02924e-20 0.0105028 0.0017228 0.0101152
-9.24126e-21 -0.0105028 0.0017228 0.0101141
-2.71051e-20 0.010496 0.00202291 0.0101152
0 -0.010496 0.00202291 0.010114
0 0.0104977 0.00235078 0.0101152
0 -0.0104977 0.00235077 0.0101141
0 -0.0108033 0.000314595 0.0101141
-2.71051e-20 0.0108033 0.000314595 0.0101152
2.71051e-20 0.0108031 0.00093799 0.0101152
-2.71051e-20 -0.0108031 0.00093799 0.010114
2.71051e-20 -0.01079 0.00152732 0.0101141
2.71051e-20 0.01079 0.00152732 0.0101152
0 0.0110754 7.74069e-09 0.0101152
0 -0.0110754 5.27285e-09 0.0101142
0 -0.0110772 7.95759e-05 0.0101141
0 0.0110889 0.000613667 0.0101152
-1.93924e-20 -0.0110889 0.000613667 0.0101141
-5.42101e-20 0.0108991 0.00228385 0.0101152
2.71051e-20 -0.0108991 0.00228385 0.0101141
2.72606e-20 -0.010988 0.00190081 0.0101141
3.30872e-24 0.010988 0.00190078 0.0101152
2.70323e-21 -0.0110831 0.00123266 0.0101141
0 0.0110831 0.00123268 0.0101152
1.03398e-25 -0.0112621 3.77028e-09 0.0101141
-6.61744e-24 0.0109863 0.00260985 0.0101152
0 -0.0109863 0.00260985 0.0101141
5.42101e-20 0.0113733 0.000305239 0.0101152
0 -0.0113733 0.000305239 0.0101141
0 -0.0113913 0.000918847 0.010114
-2.71051e-20 0.0113913 0.000918847 0.0101152
1.58819e-20 0.0112123 0.00231934 0.0101152
-1.34797e-20 -0.0112123 0.00231934 0.0101141
2.71051e-20 -0.0113682 0.00155884 0.0101141
0 0.0113682 0.00155884 0.0101152
0 -0.0114039 0.00209577 0.0101141
0 0.0114039 0.00209577 0.0101152
0 -0.0113392 0.00255892 0.0101141
2.71051e-20 0.0113392 0.00255892 0.0101152
0 -0.0116471 3.55939e-09 0.0101141
0 0.0116471 3.19951e-09 0.0101152
-1.00354e-20 -0.0116865 0.000598051 0.0101141
-8.27181e-25 0.0116865 0.000598049 0.0101152
-2.19368e-21 -0.0117045 0.00122297 0.0101141
0 0.0117045 0.00122299 0.0101152
-6.61744e-24 0.0114599 0.00285977 0.0101152
-6.61744e-24 -0.0114598 0.00285975 0.0101141
3.88775e-21 -0.0117133 0.00184588 0.0101141
0 0.0117133 0.00184592 0.0101152
3.13137e-20 -0.0116596 0.00239949 0.0101141
0 0.0116596 0.00239948 0.0101152
-2.71051e-20 0.0119676 0.000293859 0.0101152
5.42101e-20 -0.0119676 0.000293859 0.0101141
2.71051e-20 -0.0120131 0.000895955 0.010114
-2.71051e-20 0.0120131 0.000895955 0.0101152
0 -0.0120433 0.00152444 0.0101141
-2.71051e-20 0.0120433 0.00152444 0.0101152
0 0.0118604 0.00273056 0.0101152
0 -0.0118604 0.00273056 0.0101141
0 0.0120387 0.00217273 0.0101153
2.71051e-20 -0.0120387 0.00217273 0.0101141
-8.27181e-25 -0.0122418 4.68912e-09 0.0101141
0 0.0122418 1.66918e-09 0.0101152
-6.61744e-24 0.0119119 0.00310459 0.0101153
-6.61744e-24 -0.0119119 0.00310459 0.0101142
2.12569e-20 -0.0123043 0.000568948 0.0101141
-1.03398e-25 0.0123043 0.000568944 0.0101152
1.03398e-25 0.0123971 0.000559198 0.0101152
9.03612e-21 -0.01236 0.00118123 0.0101141
0 0.01236 0.00118124 0.0101152
4.1359e-25 0.0124373 1.54461e-10 0.0101152
2.13313e-20 -0.0123814 0.00184432 0.0101142
0 0.0123814 0.00184434 0.0101152
0 -0.0125711 0.000269457 0.0101141
0 0.0125711 0.000269458 0.0101152
-8.66554e-21 -0.0123374 0.00258488 0.0101142
-2.46434e-20 0.0123374 0.00258488 0.0101153
2.71051e-20 0.0122817 0.00299995 0.0101153
2.71051e-20 -0.0122817 0.00299995 0.0101142
0 -0.0126475 0.000839062 0.0101141
-2.71051e-20 0.0126475 0.000839063 0.0101151
0 0.0123472 0.00333734 0.0101153
0 -0.0123472 0.00333734 0.0101142
2.71051e-20 0.0127108 0.0014705 0.0101153
0 -0.0127108 0.0014705 0.0101142
0 0.0127518 0.00112259 0.0101152
1.65436e-24 -0.0128491 7.71817e-09 0.0101143
4.1359e-25 0.0128491 2.48242e-09 0.0101153
2.71051e-20 0.0127172 0.00217074 0.0101152
2.71051e-20 -0.0127172 0.00217074 0.0101141
1.3852e-20 -0.0129129 0.000505056 0.0101142
0 0.0129129 0.000505055 0.0101152
-1.97365e-20 -0.0125922 0.00303079 0.0101142
-3.70742e-21 0.0125922 0.00303079 0.0101153
-4.94985e-21 -0.0130203 0.00108239 0.0101142
-1.23304e-20 0.0130203 0.0010824 0.0101152
-5.42101e-20 -0.012793 0.00278388 0.0101142
2.71051e-20 0.012793 0.00278388 0.0101153
-2.71051e-20 -0.0127108 0.00327268 0.0101142
2.71051e-20 0.0127108 0.00327268 0.0101153
0 -0.0131383 0.000218118 0.0101144
2.71051e-20 0.0131383 0.000218118 0.0101155
0 0.0130692 0.00171594 0.0101153
-1.88821e-20 -0.013073 0.00176509 0.0101142
0 0.013073 0.0017651 0.0101153
2.58494e-26 0.0130931 0.00176192 0.0101153
0 0.0127674 0.00356123 0.0101153
0 -0.0127674 0.00356123 0.0101142
0 0.0132689 0.000719695 0.010115
-2.71051e-20 -0.0132689 0.000719694 0.010114
0 -0.0130872 0.00246808 0.0101142
-4.1359e-25 0.0130872 0.00246808 0.0101152
1.43499e-20 -0.0133747 0.000406315 0.0101143
1.524e-20 0.0133747 0.000406311 0.0101153
3.30872e-24 -0.0134599 1.1061e-08 0.0101145
0 0.0134599 2.11019e-13 0.0101155
1.27287e-20 -0.0130916 0.00314268 0.0101142
0 0.0130916 0.00314268 0.0101152
-2.71051e-20 -0.0134186 0.00131377 0.0101143
0 0.0134186 0.00131377 0.0101153
0 0.0133031 0.00245086 0.0101152
2.71051e-20 0.013075 0.00349045 0.0101153
-5.42101e-20 -0.013075 0.00349045 0.0101142
-5.42101e-20 -0.0134232 0.00207248 0.0101142
2.71051e-20 0.0134232 0.00207248 0.0101152
0 0.0131963 0.00330884 0.0101152
2.06795e-25 -0.0132124 0.00333436 0.0101142
0 0.0132965 0.0031224 0.0101152
2.71051e-20 -0.0136984 0.000300344 0.0101145
0 0.0136984 0.000300344 0.0101154
0 0.013418 0.00277569 0.0101152
5.42101e-20 -0.013418 0.00277569 0.0101141
-2.06795e-25 0.0131762 0.0037788 0.0101152
0 -0.0131762 0.0037788 0.0101141
3.10193e-25 -0.0132273 0.00369735 0.0101141
2.06795e-25 0.0132292 0.00369443 0.0101152
0 -0.0133968 0.00311247 0.0101141
2.74459e-20 -0.0137612 0.00078614 0.0101144
4.44361e-21 0.0137612 0.000786141 0.0101154
-3.61916e-20 0.0133341 0.00352736 0.0101152
-4.1359e-25 -0.0133341 0.00352736 0.0101141
0 -0.0132735 0.00383757 0.0101141
-4.1359e-25 0.0132832 0.00384344 0.0101152
-4.1905e-21 -0.0137678 0.00165537 0.0101143
-6.50164e-22 0.0137678 0.00165537 0.0101153
2.71051e-20 0.013482 0.00331696 0.0101151
2.71051e-20 -0.013482 0.00331696 0.0101142
3.33015e-20 0.0137484 0.00241532 0.0101152
0 -0.0137484 0.00241533 0.0101142
0 -0.013458 0.00374223 0.0101141
0 0.013458 0.00374223 0.0101151
4.1359e-25 -0.0137485 0.00262819 0.0101142
-3.30872e-24 -0.014071 -1.61666e-15 0.0101146
0 0.014071 3.38398e-08 0.0101155
-6.42223e-21 0.0137488 0.00307761 0.0101151
0 -0.0137488 0.00307762 0.0101141
0 -0.0135651 0.00401367 0.0101139
0 0.0135651 0.00401367 0.010115
-2.71051e-20 -0.0141231 0.00120897 0.0101143
2.71051e-20 0.0141231 0.00120897 0.0101154
-8.47364e-21 0.0137164 0.00361035 0.0101151
8.27181e-25 -0.0137164 0.00361035 0.010114
-5.42101e-20 -0.014089 0.00201377 0.0101142
-2.71051e-20 0.014089 0.00201377 0.0101153
-2.71051e-20 -0.0142657 0.000418225 0.0101146
-2.71051e-20 0.0142657 0.000418225 0.0101156
-2.71051e-20 -0.014069 0.0027392 0.0101142
2.71051e-20 0.014069 0.0027392 0.0101152
0 0.0138967 0.00392747 0.0101149
0 -0.0138967 0.00392747 0.0101139
-5.42101e-20 0.0140496 0.00340311 0.010115
2.71051e-20 -0.0140496 0.00340311 0.010114
-2.82251e-20 0.014441 0.00161389 0.0101154
-2.5593e-20 -0.014441 0.00161389 0.0101144
-2.25754e-20 -0.0145429 0.000823391 0.0101146
-1.51506e-20 0.0145429 0.000823383 0.0101156
8.27181e-25 -0.0139237 0.00428406 0.0101137
8.27181e-25 0.0139237 0.00428406 0.0101147
1.4785e-20 0.014397 0.00237993 0.0101152
0 -0.014397 0.00237994 0.0101142
2.06795e-25 -0.0143809 0.0027439 0.0101141
2.09707e-20 0.0143653 0.00309536 0.010115
0 -0.0143653 0.00309537 0.0101139
-6.61744e-24 -0.0147021 5.53624e-08 0.0101147
6.61744e-24 0.0147022 5.46449e-08 0.0101157
-2.01253e-20 0.014305 0.00382188 0.0101147
0 -0.014305 0.00382189 0.0101137
-2.71051e-20 -0.0142451 0.00421792 0.0101135
0 0.0142451 0.00421792 0.0101145
5.42101e-20 0.0147298 0.00200539 0.0101153
0 -0.0147298 0.00200539 0.0101143
0 0.0148165 0.00124392 0.0101157
-2.71051e-20 -0.0148165 0.00124392 0.0101146
2.71051e-20 0.014711 0.00272495 0.0101151
0 -0.014711 0.00272495 0.010114
-2.71051e-20 0.0149558 0.000461599 0.0101158
0 -0.0149558 0.000461599 0.0101147
8.27181e-25 -0.0142802 0.00455258 0.0101133
-8.27181e-25 0.0142802 0.00455258 0.0101144
0 0.0146561 0.00344874 0.0101147
0 -0.0146561 0.00344874 0.0101137
7.38093e-21 -0.014516 0.0042716 0.0101134
1.6853e-20 0.014516 0.0042716 0.0101144
8.52327e-21 -0.0150862 0.00165186 0.0101145
-3.18961e-21 0.0150862 0.00165186 0.0101155
2.71051e-20 -0.014707 0.0040482 0.0101134
-5.42101e-20 0.014707 0.0040482 0.0101145
3.49749e-20 0.0151175 0.00230445 0.0101152
2.31379e-20 -0.0151175 0.00230445 0.0101141
0 0.0146108 0.00452168 0.0101142
-2.71051e-20 -0.0146108 0.00452168 0.0101132
-5.16988e-26 -0.0149972 0.00307322 0.0101137
2.20791e-20 0.0149933 0.00309787 0.0101148
0 -0.0149933 0.00309786 0.0101137
5.16988e-26 -0.0150551 0.00309623 0.0101137
1.11636e-20 -0.0153398 0.000978663 0.0101148
-4.03664e-21 0.0153398 0.000978658 0.0101158
0 -0.0153748 1.34592e-07 0.0101149
0 0.015375 6.5057e-08 0.0101159
0 -0.0146354 0.00482017 0.0101129
-4.1359e-25 0.0146354 0.00482017 0.010114
-2.55921e-20 0.0149803 0.0037633 0.0101144
-2.35842e-20 -0.0149803 0.0037633 0.0101133
0 0.0153272 0.00275021 0.0101148
0 -0.0153272 0.00275021 0.0101138
0 -0.0149658 0.00441693 0.010113
-1.11363e-20 0.0149658 0.00441693 0.0101141
2.71051e-20 -0.014927 0.00477487 0.0101127
2.71051e-20 0.014927 0.00477488 0.0101138
0 -0.0152999 0.00342237 0.0101134
-2.71051e-20 0.0152999 0.00342237 0.0101144
0 0.0149195 0.0050341 0.0101137
-5.42101e-20 0.015716 0.00173426 0.0101155
-5.42101e-20 -0.015716 0.00173426 0.0101145
5.42101e-20 -0.0152841 0.00407715 0.010113
0 0.0152841 0.00407715 0.0101141
0 -0.0149898 0.00508707 0.0101124
1.03398e-25 0.0149898 0.00508707 0.0101136
-9.69787e-21 0.0156647 0.00240044 0.0101152
-1.87108e-21 -0.0156647 0.00240044 0.0101142
-2.06795e-25 0.0150316 0.00502549 0.0101136
0 0.0158728 0.000521005 0.0101162
-1.0842e-19 -0.0158728 0.000521006 0.0101152
-3.76202e-21 -0.0151702 0.00482145 0.0101125
2.05753e-20 0.0151702 0.00482145 0.0101136
8.84422e-21 0.015623 0.00308125 0.0101147
-1.88998e-20 -0.015623 0.00308126 0.0101136
-2.71051e-20 0.0153271 0.00461022 0.0101136
0 -0.0153271 0.00461022 0.0101126
-4.1359e-25 -0.0156085 0.00354717 0.0101132
1.08969e-20 0.0156022 0.00374982 0.0101142
-2.06795e-25 -0.0156022 0.00374982 0.010113
-5.42101e-20 0.015269 0.00505544 0.0101134
0 -0.015269 0.00505544 0.0101122
-2.71051e-20 -0.0159605 0.00272816 0.0101143
2.71051e-20 0.0159605 0.00272816 0.0101154
0 -0.0155971 0.0043751 0.0101126
-1.06905e-20 0.0155971 0.0043751 0.0101137
0 0.0153431 0.00535318 0.010113
2.58494e-26 -0.0153431 0.00535318 0.0101119
-2.71051e-20 -0.0159183 0.00340547 0.010113
-2.71051e-20 0.0159183 0.00340547 0.0101141
5.16988e-26 0.0155093 0.00497609 0.0101132
0 -0.0155359 0.00491577 0.0101121
1.58095e-21 0.0155359 0.00491577 0.0101132
-1.03398e-25 -0.0158827 0.00371014 0.0101129
-2.71051e-20 0.0159245 0.00405169 0.010114
0 -0.0159245 0.00405169 0.0101128
4.44163e-20 -0.0163948 0.00113363 0.0101153
-3.84804e-20 0.0163948 0.00113363 0.0101163
0 -0.0164795 6.04198e-08 0.0101158
-3.30872e-24 0.0164796 2.21654e-08 0.0101167
5.16988e-26 0.0157156 0.00498366 0.0101131
2.53448e-20 0.0162478 0.00305838 0.0101147
-2.05976e-20 -0.0162478 0.00305839 0.0101137
4.84777e-20 -0.016378 0.00230524 0.0101144
-5.19519e-20 0.016378 0.00230524 0.0101155
-2.71051e-20 0.0156904 0.00524875 0.0101128
0 -0.0156904 0.00524875 0.0101116
-5.42101e-20 0.0158759 0.00471202 0.0101132
2.71051e-20 -0.0158759 0.00471202 0.0101121
-8.27181e-25 0.0156951 0.00561829 0.0101127
0 -0.0156951 0.00561829 0.0101115
-2.36578e-20 0.0163084 0.00364992 0.0101139
2.40441e-21 -0.0163084 0.00364992 0.0101128
5.16988e-26 -0.0162303 0.00419321 0.0101123
-9.86568e-21 0.016199 0.00441125 0.0101133
0 -0.016199 0.00441125 0.0101122
-5.16988e-26 0.0161616 0.00473168 0.010113
0 -0.0161146 0.00513441 0.0101115
0 0.0161146 0.00513441 0.0101127
0 0.016031 0.0055414 0.0101127
-5.42101e-20 -0.016031 0.0055414 0.0101115
2.71051e-20 0.0165301 0.00408038 0.0101131
2.71051e-20 -0.0165301 0.00408038 0.010112
5.42101e-20 -0.0170241 0.000577593 0.0101163
-1.0842e-19 0.0170241 0.000577593 0.0101172
0 -0.0169742 0.00175445 0.0101152
0 0.0169742 0.00175445 0.0101162
0 0.0160456 0.00588233 0.0101121
0 -0.0160456 0.00588233 0.0101109
-5.42101e-20 0.0168708 0.00304668 0.0101146
-5.42101e-20 -0.0168708 0.00304668 0.0101136
0 -0.0164827 0.00476235 0.0101118
-5.42101e-20 0.0164827 0.00476235 0.0101129
-8.18743e-21 0.0163092 0.00559034 0.0101121
-5.28858e-21 -0.0163092 0.00559034 0.0101109
2.58494e-26 -0.0166741 0.00441187 0.0101121
-1.17038e-20 0.0168571 0.00372694 0.0101139
8.73089e-22 -0.0168571 0.00372694 0.0101128
0 -0.0165194 0.0053648 0.0101108
2.71051e-20 0.0165194 0.0053648 0.0101121
1.21968e-20 0.0168293 0.00441207 0.0101133
2.58494e-26 -0.0168293 0.00441207 0.0101121
0 -0.016393 0.00584515 0.0101103
-2.71051e-20 0.016393 0.00584515 0.0101116
5.16988e-26 -0.0168244 0.00457624 0.0101119
0 0.0168198 0.00472892 0.0101129
8.27181e-25 0.0163955 0.00614428 0.0101118
0 -0.0163955 0.00614428 0.0101106
1.03398e-25 -0.0168096 0.00506989 0.0101113
0 0.0168096 0.00506989 0.0101125
-6.61744e-24 -0.0176231 3.91596e-08 0.0101166
0 0.0176231 3.09317e-08 0.0101175
1.90582e-20 -0.0175916 0.0011589 0.010116
-2.92458e-20 0.0175916 0.00115889 0.0101169
0 -0.0171737 0.004052 0.0101132
2.71051e-20 0.0171737 0.004052 0.0101143
-3.10391e-20 -0.0175442 0.00239622 0.0101143
4.50913e-20 0.0175442 0.0023962 0.0101154
0 0.0167746 0.00574376 0.0101119
2.06795e-25 -0.0167746 0.00574376 0.0101106
0 -0.0171404 0.0047287 0.0101116
-5.42101e-20 0.0171404 0.0047287 0.0101127
-2.71051e-20 -0.016705 0.00611265 0.0101109
2.71051e-20 0.016705 0.00611265 0.0101121
2.4018e-20 -0.0174986 0.00354413 0.0101128
5.78902e-21 0.0174986 0.00354412 0.010114
8.27181e-25 0.0167191 0.00643602 0.0101114
0 -0.0167191 0.00643602 0.0101101
0 -0.0171168 0.00539052 0.0101112
0 0.0171168 0.00539052 0.0101124
-3.07334e-20 0.0174702 0.00438304 0.0101133
2.58835e-20 -0.0174702 0.00438304 0.0101121
1.4256e-20 0.0169667 0.00617943 0.0101113
-1.62251e-20 -0.0169667 0.00617943 0.0101101
-2.58494e-26 0.0174562 0.0048306 0.0101128
0 -0.0174549 0.00487038 0.0101115
-5.16988e-26 0.0174493 0.00505023 0.0101125
5.16988e-26 -0.0174493 0.00505023 0.0101113
0 0.0171679 0.00597129 0.0101112
2.71051e-20 -0.0171679 0.00597129 0.01011
0 0.0182005 0.000583389 0.0101178
0 -0.0182005 0.000583389 0.0101169
-5.42101e-20 -0.017043 0.00643779 0.0101094
0 0.017043 0.00643779 0.0101107
0 0.0177879 0.00403219 0.010113
0 -0.0177879 0.00403219 0.0101119
5.42101e-20 -0.0181761 0.00178292 0.0101154
0 0.0181761 0.00178292 0.0101163
-8.27181e-25 0.0170214 0.00674884 0.0101113
0 -0.0170214 0.00674883 0.01011
-2.85967e-20 0.0174458 0.00568734 0.0101118
-1.99723e-20 -0.0174458 0.00568734 0.0101105
-5.42101e-20 0.0177804 0.00470438 0.010113
0 -0.0177804 0.00470438 0.0101118
5.42101e-20 0.0181642 0.00305698 0.0101141
5.42101e-20 -0.0181642 0.00305697 0.0101131
-1.38106e-20 -0.0181317 0.00370155 0.010113
9.05639e-21 0.0181317 0.00370155 0.0101141
-3.53868e-20 0.01741 0.00635261 0.0101112
-2.15572e-20 -0.01741 0.00635261 0.0101099
-2.71051e-20 -0.0177702 0.00535529 0.0101107
0 0.0177702 0.00535529 0.010112
-2.71051e-20 -0.0173274 0.00672747 0.0101107
2.71051e-20 0.0173274 0.00672747 0.010112
6.31501e-21 -0.0181076 0.00436205 0.0101122
1.41228e-20 0.0181076 0.00436205 0.0101134
0 0.0173238 0.00706119 0.010111
8.27181e-25 -0.0173238 0.00706119 0.0101097
0 -0.0177503 0.00600627 0.0101104
2.71051e-20 0.0177503 0.00600627 0.0101117
6.46235e-27 0.0180987 0.00497196 0.0101126
1.45403e-26 -0.0180912 0.00501859 0.0101114
0 0.018098 0.00501826 0.0101126
3.21523e-20 -0.018098 0.00501826 0.0101114
0 -0.0187969 2.4032e-08 0.0101166
0 0.0187969 1.70778e-08 0.0101174
-7.5644e-20 -0.0187878 0.00116732 0.0101158
-3.44603e-20 0.0187878 0.00116731 0.0101166
1.3091e-20 0.0175851 0.00679799 0.0101109
-3.51746e-20 -0.0175851 0.00679799 0.0101096
5.42101e-20 -0.0184432 0.00401963 0.010114
2.71051e-20 0.0184432 0.00401963 0.010115
7.80296e-20 -0.0187844 0.00239453 0.0101135
3.49699e-20 0.0187844 0.00239455 0.0101145
-5.16988e-26 0.0180831 0.00566925 0.010112
0 -0.0180831 0.00566925 0.0101107
0 0.018287 0.00499127 0.0101124
0 -0.0177912 0.00658995 0.0101094
-2.71051e-20 0.0177912 0.00658995 0.0101107
0 0.0184158 0.00467993 0.0101124
-2.71051e-20 -0.0184158 0.00467993 0.0101112
-2.71051e-20 -0.0176529 0.00706043 0.0101087
0 0.0176529 0.00706043 0.0101101
0 -0.0176264 0.00737367 0.0101097
0 0.0176264 0.00737367 0.0101112
1.03398e-25 0.0180712 0.00630777 0.0101113
-2.0628e-20 -0.0180712 0.00630777 0.01011
-2.71051e-20 0.0184261 0.0053197 0.0101129
-2.71051e-20 -0.0184261 0.0053197 0.0101117
-6.1211e-20 -0.0188515 0.00360143 0.0101123
1.2813e-21 0.0188515 0.00360143 0.0101134
-1.12078e-20 -0.0187497 0.00434473 0.010112
-1.66333e-20 0.0187497 0.00434473 0.0101131
0 0.018025 0.00697581 0.0101111
2.06795e-25 -0.018025 0.00697581 0.0101096
-2.71051e-20 -0.0183967 0.00598007 0.0101102
5.42101e-20 0.0183967 0.00598007 0.0101115
2.71051e-20 -0.0179363 0.0073519 0.0101109
-2.71051e-20 0.0179363 0.0073519 0.0101124
5.42101e-20 0.0193896 0.000584898 0.010117
-5.42101e-20 -0.0193896 0.000584906 0.0101162
2.24903e-20 -0.0188216 0.00491492 0.0101108
-3.30198e-21 0.0188216 0.00491492 0.010112
0 0.0193933 0.00177944 0.0101153
0 -0.0193933 0.00177943 0.0101144
0 -0.0179292 0.00768641 0.0101098
0 0.0179292 0.00768641 0.0101113
0 0.0187687 0.00532689 0.0101119
0 -0.0187614 0.00538336 0.0101106
-2.71051e-20 -0.018369 0.00663164 0.0101102
2.71051e-20 0.018369 0.00663164 0.0101116
1.29247e-26 -0.0187273 0.00564917 0.0101105
2.58494e-26 0.0187273 0.00564917 0.0101118
-1.0842e-19 -0.0194147 0.00301348 0.0101112
-5.42101e-20 0.0194147 0.00301349 0.0101123
-3.35521e-20 -0.0181958 0.00742304 0.0101096
8.06501e-22 0.0181958 0.00742304 0.010111
0 -0.0187015 0.00629873 0.0101101
0 0.0187015 0.00629873 0.0101114
-5.42101e-20 0.0184056 0.00721495 0.0101106
-2.71051e-20 -0.0184056 0.00721495 0.0101092
5.42101e-20 -0.0190533 0.0053245 0.01011
-5.42101e-20 0.0190533 0.0053245 0.0101113
0 -0.0182616 0.0076859 0.0101087
0 0.0182616 0.0076859 0.0101102
0 -0.0193893 0.0043251 0.0101097
0 0.0193893 0.0043251 0.0101109
0 -0.0182322 0.00799942 0.0101103
4.1359e-25 0.0182322 0.00799942 0.0101118
-1.03398e-25 -0.0186894 0.00693288 0.0101099
0 0.0186894 0.00693288 0.0101113
-2.71051e-20 -0.019034 0.00596484 0.0101102
-5.42101e-20 0.019034 0.00596484 0.0101115
-1.65436e-24 -0.0199808 1.26037e-08 0.0101151
0 0.0199808 5.89873e-09 0.010116
2.58494e-26 -0.0193786 0.00498454 0.0101103
-1.27172e-20 0.0193786 0.00498454 0.0101114
6.97313e-22 0.0199934 0.00116523 0.0101151
1.60754e-20 -0.0199935 0.00116524 0.0101142
0 -0.018638 0.00760163 0.0101099
0 0.018638 0.00760163 0.0101115
0 -0.0190175 0.00660576 0.0101099
2.71051e-20 0.0190175 0.00660576 0.0101113
-3.23117e-27 -0.0193645 0.00555805 0.0101101
2.39717e-20 -0.0200103 0.00238385 0.0101116
-7.36737e-20 0.0200103 0.00238385 0.0101126
0 0.0193626 0.005634 0.0101113
-2.05588e-20 -0.0193626 0.005634 0.0101101
-2.71051e-20 -0.0185453 0.00797801 0.0101119
0 0.0185453 0.00797801 0.0101135
8.27181e-25 -0.0185355 0.00831268 0.0101107
4.1359e-25 0.0185355 0.00831268 0.0101123
-2.71051e-20 -0.0189879 0.00725654 0.0101104
-2.71051e-20 0.0189879 0.00725654 0.0101119
0 -0.0193479 0.00627375 0.0101099
0 0.0193479 0.00627375 0.0101112
6.03108e-20 -0.0200226 0.00365995 0.010109
-5.74384e-21 0.0200226 0.00365995 0.0101102
0 0.019693 0.00529521 0.0101119
0 -0.019693 0.00529521 0.0101108
7.03104e-23 -0.0188066 0.00805004 0.0101104
-8.9929e-21 0.0188066 0.00805004 0.0101119
-1.10782e-20 -0.0193268 0.00692069 0.0101102
0 0.0193268 0.00692069 0.0101116
-2.71051e-20 0.0196676 0.00594439 0.0101107
0 -0.0196676 0.00594439 0.0101094
8.13152e-20 -0.01902 0.00784265 0.0101096
2.71051e-20 0.01902 0.00784265 0.0101112
-5.42101e-20 0.0205868 0.000581102 0.0101148
-5.42101e-20 -0.0205869 0.000581094 0.010114
0 -0.0188712 0.00831333 0.0101096
0 0.0188712 0.00831333 0.0101112
-2.58494e-26 -0.020095 0.00487938 0.0101087
-7.53099e-21 0.020095 0.00487938 0.0101099
-5.42101e-20 0.0206115 0.00176879 0.010113
0 -0.0206115 0.00176879 0.0101121
0 0.020052 0.00521248 0.0101102
0 -0.0188391 0.00862624 0.0101118
0 0.0188391 0.00862624 0.0101134
0 -0.0193074 0.00756039 0.0101105
2.58494e-26 0.0193074 0.00756039 0.0101121
2.71051e-20 -0.0196738 0.00657561 0.01011
-2.71051e-20 0.0196738 0.00657561 0.0101114
0 -0.0200044 0.00558131 0.0101093
0 0.0200001 0.00561439 0.0101105
1.61559e-27 -0.0200001 0.00561439 0.0101093
-3.23117e-27 0.0202172 0.00488474 0.0101095
-1.0842e-19 -0.0206346 0.00301452 0.0101085
5.42101e-20 0.0206346 0.00301452 0.0101097
0 0.019727 0.00691044 0.0101113
0 0.0196391 0.00723369 0.010112
0 -0.0196391 0.00723369 0.0101105
0 -0.0192519 0.00823155 0.0101113
0 0.0192519 0.00823155 0.010113
8.07794e-28 0.0200058 0.00618474 0.0101102
-4.03897e-28 0.0200623 0.00610384 0.0101102
0 -0.0200715 0.00617586 0.0101088
0 0.0200715 0.00617586 0.0101101
-2.71051e-20 0.0191557 0.00860727 0.0101156
-5.42101e-20 -0.0191557 0.00860727 0.010114
0 0.0190685 0.00886293 0.0101146
2.58494e-26 0.0193106 0.00839138 0.0101135
-2.58494e-26 0.0196848 0.00755606 0.0101123
3.10193e-25 0.0211 -1.23378e-29 0.0101132
0 -0.0206641 0.00428079 0.0101065
0 0.0206641 0.00428079 0.0101078
-8.27181e-25 -0.0191433 0.00894011 0.0101133
0 0.0191433 0.00894011 0.010115
-2.71051e-20 -0.0196055 0.00788712 0.0101118
-2.71051e-20 0.0196055 0.00788712 0.0101134
0 -0.0199746 0.0069041 0.0101096
9.25311e-21 0.0199746 0.0069041 0.0101111
2.01948e-28 0.0202321 0.00619616 0.0101096
5.16988e-26 0.0211723 3.7275e-10 0.010113
8.27181e-25 -0.0211724 3.99074e-09 0.0101122
0 0.0211803 0.000282864 0.0101128
1.29247e-26 0.0195457 0.00821361 0.0101135
5.28488e-20 0.0212048 0.00115268 0.0101121
0 -0.0212049 0.00115268 0.0101112
-2.58494e-26 0.0209497 0.00364551 0.0101078
-4.23351e-21 -0.0194188 0.0086858 0.0101128
2.95891e-20 0.0194188 0.0086858 0.0101145
0 -0.0199446 0.00755308 0.0101109
-7.89833e-21 0.0199446 0.00755308 0.0101124
-2.71051e-20 0.0203041 0.00658402 0.0101098
-2.71051e-20 -0.0203041 0.00658402 0.0101084
6.01935e-20 -0.0212384 0.0023678 0.0101086
1.95375e-21 0.0212384 0.0023678 0.0101097
0 -0.0206408 0.00559143 0.0101066
5.42101e-20 0.0206408 0.00559143 0.0101079
2.71051e-20 -0.0196393 0.00847876 0.0101117
-2.71051e-20 0.0196393 0.00847876 0.0101134
-5.42101e-20 0.0194792 0.0089564 0.0101143
2.71051e-20 -0.0194792 0.0089564 0.0101126
-5.16988e-26 0.0212584 0.00323002 0.0101078
-1.29247e-26 -0.0209468 0.00491676 0.0101057
0 -0.0194172 0.00928185 0.0101148
0 0.0194172 0.00928186 0.0101165
-2.71051e-20 0.0202831 0.00722169 0.0101111
0 -0.0202831 0.00722169 0.0101097
2.06795e-25 -0.0199297 0.00819016 0.0101124
9.11843e-21 0.0199297 0.00819016 0.0101141
0 -0.0206294 0.00624638 0.0101068
0 0.0206294 0.00624638 0.0101082
0 0.020628 0.00632028 0.0101083
0 0.0212679 0.00364055 0.0101069
2.32655e-20 -0.0212679 0.00364055 0.0101057
0 0.0213756 0.0036358 0.0101066
1.03398e-25 -0.02142 0.00363384 0.0101052
0 -0.0212752 0.00442723 0.0101049
-2.71051e-20 -0.0202625 0.00786089 0.0101115
0 0.0202625 0.00786089 0.0101131
0 -0.0206173 0.00689381 0.0101079
0 0.0206173 0.00689381 0.0101094
-2.87379e-20 -0.0198766 0.00887843 0.0101144
2.87445e-21 0.0198766 0.00887843 0.0101162
-8.07794e-28 0.0208755 0.00620919 0.0101074
0 0.0217896 0.000568406 0.0101111
0 -0.0217897 0.000568406 0.0101103
-2.58494e-26 0.0212798 0.00493138 0.0101058
0 -0.0212798 0.00493138 0.0101045
0 0.0197714 0.0092976 0.0101187
0 -0.0197714 0.0092976 0.0101171
-6.20385e-25 -0.0218782 2.18013e-32 0.0101097
-8.27181e-25 -0.019669 0.00964181 0.0101181
0 0.019669 0.00964181 0.0101199
0 0.0218374 0.00173743 0.0101095
5.42101e-20 -0.0218374 0.00173743 0.0101084
5.16988e-26 -0.0205995 0.0075318 0.0101095
-2.43729e-20 0.0205995 0.0075318 0.0101111
-2.71051e-20 -0.0209456 0.00655441 0.0101055
0 0.0209456 0.00655441 0.0101068
0 -0.0218292 0.00233842 0.0101068
2.71051e-20 0.0202362 0.00851518 0.0101164
-2.71051e-20 -0.0202362 0.00851518 0.0101148
1.29247e-26 0.0214369 0.00492681 0.0101053
-1.03398e-25 -0.0220386 0.00112574 0.0101084
-5.42101e-20 -0.021882 0.00297573 0.0101054
5.42101e-20 0.021882 0.00297573 0.0101066
1.03398e-25 -0.0205755 0.00817149 0.0101122
3.89612e-21 0.0205755 0.00817149 0.0101139
-2.71051e-20 0.0209362 0.00721472 0.0101096
-2.71051e-20 -0.0209362 0.00721472 0.0101081
1.45403e-26 0.0213396 0.00603198 0.0101059
2.71051e-20 0.0199576 0.00972223 0.010121
0 -0.0199576 0.00972223 0.0101193
-1.85069e-20 -0.0200954 0.00945691 0.010118
1.3775e-20 0.0200954 0.00945691 0.0101198
6.46235e-27 -0.0213454 0.00613816 0.0101045
5.48378e-20 0.0213454 0.00613817 0.0101059
0 0.0202913 0.0091201 0.0101179
0 -0.0202913 0.0091201 0.0101162
-8.27181e-25 -0.0199226 0.0100021 0.0101195
0 0.0199226 0.0100021 0.0101213
5.42101e-20 0.0219071 0.00426287 0.0101036
5.42101e-20 -0.0219071 0.00426287 0.0101022
1.29247e-26 -0.0212536 0.00687047 0.0101058
2.35331e-21 0.0212536 0.00687047 0.0101073
0 0.0209198 0.00783 0.0101104
0 -0.0209198 0.00783 0.0101089
0 0.0223699 4.09183e-10 0.0101089
-4.1359e-25 -0.02237 2.71976e-09 0.010108
0 0.0223737 7.76866e-05 0.0101088
0 -0.0205825 0.00880038 0.0101153
-1.14027e-21 0.0205825 0.00880038 0.0101171
1.34417e-24 0.0223904 -1.2827e-35 0.0101088
2.40904e-20 -0.0201854 0.00982489 0.0101195
-2.01902e-20 0.0201854 0.00982489 0.0101213
-3.00291e-20 0.0224248 0.00111326 0.0101081
0 -0.0224249 0.00111325 0.0101072
0 -0.0208973 0.00847326 0.0101137
-2.71051e-20 0.0208973 0.00847326 0.0101154
-2.71051e-20 0.020392 0.00967037 0.0101212
0 -0.020392 0.00967037 0.0101194
0 0.0202271 0.0100702 0.0101216
0 -0.0202271 0.0100702 0.0101197
6.33232e-20 0.0224885 0.00230562 0.0101059
0 -0.0224885 0.00230562 0.0101047
-1.0842e-19 0.0219242 0.0055407 0.010104
-5.42101e-20 -0.0219242 0.0055407 0.0101026
0 -0.0206219 0.00940243 0.0101183
3.17637e-21 0.0206219 0.00940243 0.0101201
-8.27181e-25 -0.0201769 0.0103635 0.0101226
0 0.0201769 0.0103635 0.0101244
-1.29247e-26 -0.0214053 0.00750768 0.0101068
6.61485e-20 0.0214053 0.00750768 0.0101084
0 -0.0212331 0.0081501 0.0101099
2.73705e-20 0.0212331 0.0081501 0.0101116
1.03398e-25 -0.0225307 0.00358481 0.0101016
4.18653e-20 0.0225307 0.00358482 0.0101029
-2.71051e-20 -0.0209306 0.009079 0.0101167
2.71051e-20 0.0209306 0.00907901 0.0101185
0 -0.0205788 0.0100354 0.0101218
-8.36259e-21 0.0205788 0.0100354 0.0101237
0 -0.0218832 0.00683353 0.0101026
1.0842e-19 0.0218832 0.00683353 0.0101042
2.71051e-20 -0.02047 0.0103922 0.0101255
0 0.02047 0.0103922 0.0101273
0 0.0229944 0.000536085 0.0101066
-5.42101e-20 -0.0229945 0.000536078 0.0101057
-2.45888e-20 -0.0213123 0.00869943 0.0101137
-2.02563e-20 0.0213123 0.00869943 0.0101155
2.71051e-20 -0.020909 0.00972034 0.0101207
0 0.020909 0.00972035 0.0101224
0 0.0225437 0.00489464 0.0101016
-1.03398e-25 -0.0225437 0.00489464 0.0101002
0 -0.0204318 0.0107257 0.0101251
0 0.0204318 0.0107257 0.010127
0 0.0230802 0.00165832 0.0101053
0 -0.0230803 0.00165833 0.0101042
-9.55052e-21 -0.0212246 0.00940472 0.0101181
-4.16661e-21 0.0212246 0.00940473 0.0101199
-9.93278e-21 -0.0207156 0.0104897 0.0101247
-1.14705e-20 0.0207156 0.0104897 0.0101266
2.71051e-20 -0.0209353 0.0102994 0.0101238
2.71051e-20 0.0209354 0.0102994 0.0101257
0 0.0231589 0.00287977 0.0101021
5.42101e-20 -0.0231589 0.00287976 0.0101008
0 0.0218885 0.00814494 0.0101072
5.42101e-20 -0.0218885 0.00814494 0.0101056
8.24301e-21 0.0225301 0.00619313 0.0101016
-7.24602e-21 -0.0225301 0.00619313 0.0101001
-2.71051e-20 0.0207613 0.0107635 0.0101267
-2.71051e-20 -0.0207613 0.0107635 0.0101247
-5.42101e-20 -0.0215469 0.00909429 0.0101155
0 0.0215469 0.0090943 0.0101173
0 -0.0212144 0.0100278 0.0101223
4.83663e-21 0.0212145 0.0100278 0.0101242
0 -0.020687 0.0110884 0.0101269
0 0.020687 0.0110884 0.0101288
-5.42101e-20 0.0231865 0.00419035 0.0100991
-1.0842e-19 -0.0231866 0.00419035 0.0100978
1.58197e-20 -0.0218725 0.00877017 0.0101088
-3.18116e-20 0.0218725 0.00877017 0.0101106
3.30872e-24 0.0235735 1.99433e-08 0.0101033
0 -0.0235737 5.76514e-09 0.0101023
2.71051e-20 -0.0215348 0.00971337 0.0101197
0 0.0215348 0.00971336 0.0101215
6.91126e-20 0.0236424 0.00102427 0.0101027
0 -0.0236425 0.00102424 0.0101016
0 -0.0211543 0.0107041 0.0101262
-9.49676e-21 0.0211543 0.0107041 0.0101282
3.81306e-20 0.0225191 0.00747875 0.0101029
2.21289e-20 -0.0225191 0.00747875 0.0101012
1.56548e-20 -0.0218553 0.00939598 0.0101139
-1.69348e-20 0.0218553 0.00939598 0.0101157
0 0.021043 0.011115 0.010131
-2.71051e-20 -0.021043 0.011115 0.0101291
5.42101e-20 0.0231776 0.0055198 0.0100996
0 -0.0231777 0.00551979 0.0100981
-8.27181e-25 -0.0209424 0.0114514 0.0101301
0 0.0209424 0.0114514 0.010132
2.71051e-20 -0.0215108 0.0103577 0.0101251
-5.42101e-20 0.0215108 0.0103577 0.0101269
-1.07997e-20 0.0237791 0.00216485 0.0101023
4.1359e-25 -0.0237792 0.00216487 0.0101011
2.71051e-20 -0.0221872 0.00906953 0.0101045
2.71051e-20 0.0221872 0.00906953 0.0101062
5.16988e-26 -0.0218425 0.0100258 0.0101198
1.32807e-20 0.0218425 0.0100258 0.0101217
-3.6123e-20 0.0238309 0.00346141 0.0100981
0 -0.023831 0.00346142 0.0100968
2.58494e-26 0.0210934 0.011666 0.0101332
-1.0842e-19 0.024136 0.000451688 0.0100999