# U  POINT_DATA 13056
# x  y  z  U_x  U_y  U_z
-1.93744e-27 -0.01 1.38404e-07 9.85194e-17 -6.7028e-19 -6.12895e-19
0 0.01 8.31199e-08 -7.00061e-17 -6.64809e-20 2.42934e-18
0 0.01 0.00067832 -2.21452e-11 1.54798e-12 7.94142e-13
0 -0.01 0.00067832 1.31969e-10 1.33142e-12 -6.72944e-13
3.10193e-25 0.0100155 0.000677146 -4.07679e-06 3.83543e-07 1.98077e-07
2.58494e-26 -0.0100173 0.000677006 3.54019e-05 6.13425e-07 -1.62445e-07
0 0.01 0.00137372 -5.20205e-10 3.91106e-11 1.30732e-11
2.06795e-25 -0.01 0.00137372 3.38156e-09 3.58194e-11 -1.5915e-11
1.03398e-24 0.0100736 0.00135825 -4.01303e-05 3.93788e-06 1.35774e-06
0 -0.010074 0.00135817 0.000332429 5.93702e-06 -1.61989e-06
1.57772e-30 -0.01 0.002087 2.65353e-14 3.98501e-16 -1.74747e-16
7.88861e-31 0.01 0.002087 -2.80993e-11 2.65132e-12 4.48994e-13
0 -0.0102613 0.000329046 1.23433e-05 -8.73887e-08 -4.96304e-08
0 0.0102613 0.000329046 -1.04972e-05 -1.62616e-08 3.15467e-07
5.42101e-20 0.0102561 0.000988366 -0.000221304 1.61734e-05 6.85467e-06
0 -0.0102561 0.000988366 0.00137073 1.42481e-05 -6.96238e-06
0 0.0102356 0.00161953 -0.000212166 1.61648e-05 2.19202e-06
0 -0.0102356 0.00161953 0.00132007 1.42148e-05 -5.22139e-06
2.06795e-25 0.0105293 8.68458e-08 -2.61179e-11 1.4144e-13 1.27406e-12
2.06795e-25 -0.0105293 8.80408e-08 2.2798e-11 -9.00199e-14 -1.09239e-12
-2.06795e-25 -0.0105286 0.000176899 0.000298291 5.16864e-06 -1.36874e-06
-3.39558e-21 0.0105268 0.000638363 -0.000138821 1.30602e-05 6.7448e-06
-1.3378e-20 -0.0105268 0.000638363 0.0010768 1.86582e-05 -4.941e-06
-8.27181e-25 0.0105159 0.00126532 -0.000281275 2.76007e-05 9.51641e-06
-2.02907e-21 -0.0105159 0.0012653 0.00231793 4.13971e-05 -1.1295e-05
2.02924e-20 0.0105028 0.0017228 -0.000269278 2.54081e-05 4.30287e-06
-9.24126e-21 -0.0105028 0.0017228 0.00212958 3.9057e-05 -1.3139e-05
-2.71051e-20 0.010496 0.00202291 -0.000234908 1.96548e-05 1.25787e-06
0 -0.010496 0.00202291 0.00157163 3.00876e-05 -1.46177e-05
0 0.0104977 0.00235078 -1.14266e-08 1.35169e-09 6.88412e-11
0 -0.0104977 0.00235077 8.69996e-08 1.98175e-09 -8.53959e-10
0 -0.0108033 0.000314595 1.01425e-05 8.785e-08 -5.84857e-07
-2.71051e-20 0.0108033 0.000314595 -6.03977e-06 1.64832e-07 5.11257e-07
2.71051e-20 0.0108031 0.00093799 -0.000318056 3.5724e-05 1.91312e-05
-2.71051e-20 -0.0108031 0.00093799 0.00289975 5.96419e-05 -1.21516e-05
2.71051e-20 -0.01079 0.00152732 0.00362364 7.61143e-05 -2.02722e-05
2.71051e-20 0.01079 0.00152732 -0.0003693 4.18019e-05 9.91356e-06
0 0.0110754 7.74069e-09 -4.01917e-11 2.8439e-12 3.81648e-12
0 -0.0110754 5.27285e-09 3.95529e-11 9.71904e-13 -6.69962e-13
0 -0.0110772 7.95759e-05 0.000222503 5.46506e-06 -8.97437e-07
0 0.0110889 0.000613667 -0.000142078 2.27693e-05 1.14302e-05
-1.93924e-20 -0.0110889 0.000613667 0.00171595 4.21468e-05 -6.92107e-06
-5.42101e-20 0.0108991 0.00228385 -0.000201779 3.24277e-05 1.29836e-06
2.71051e-20 -0.0108991 0.00228385 0.00198664 5.21426e-05 -2.13179e-05
2.72606e-20 -0.010988 0.00190081 0.00342084 8.48864e-05 -2.52914e-05
3.30872e-24 0.010988 0.00190078 -0.000236734 4.29117e-05 1.03907e-05
2.70323e-21 -0.0110831 0.00123266 0.00398053 9.72829e-05 -2.07862e-05
0 0.0110831 0.00123268 -0.000296304 4.9132e-05 1.94298e-05
1.03398e-25 -0.0112621 3.77028e-09 0 0 0
-6.61744e-24 0.0109863 0.00260985 -1.27598e-08 2.58912e-09 4.17675e-10
0 -0.0109863 0.00260985 1.53767e-07 4.03653e-09 -1.72671e-09
5.42101e-20 0.0113733 0.000305239 -6.26183e-06 7.77632e-07 6.51409e-07
0 -0.0113733 0.000305239 5.2048e-05 1.55092e-06 -1.1648e-07
0 -0.0113913 0.000918847 0.00397503 0.000109056 -1.51161e-05
-2.71051e-20 0.0113913 0.000918847 -0.000244167 5.53682e-05 2.58976e-05
1.58819e-20 0.0112123 0.00231934 -0.000144897 4.12243e-05 9.33154e-06
-1.34797e-20 -0.0112123 0.00231934 0.00286313 7.66776e-05 -2.69953e-05
2.71051e-20 -0.0113682 0.00155884 0.00547851 0.000146586 -3.59225e-05
0 0.0113682 0.00155884 -0.00025027 6.44563e-05 2.31137e-05
0 -0.0114039 0.00209577 0.00461034 0.000124294 -3.50922e-05
0 0.0114039 0.00209577 -0.000124454 5.74026e-05 1.76762e-05
0 -0.0113392 0.00255892 0.00199657 5.36655e-05 -2.44854e-05
2.71051e-20 0.0113392 0.00255892 -0.000111578 3.38349e-05 8.7785e-06
0 -0.0116471 3.55939e-09 1.60338e-10 5.615e-12 -6.02397e-13
0 0.0116471 3.19951e-09 -1.38081e-11 2.88362e-12 1.69472e-12
-1.00354e-20 -0.0116865 0.000598051 0.00218712 6.65933e-05 -7.02859e-06
-8.27181e-25 0.0116865 0.000598049 -5.04059e-05 3.03253e-05 1.46649e-05
-2.19368e-21 -0.0117045 0.00122297 0.00534061 0.000159543 -2.29967e-05
0 0.0117045 0.00122299 -2.90846e-05 6.12433e-05 2.84318e-05
-6.61744e-24 0.0114599 0.00285977 -2.56265e-09 3.16432e-09 9.25412e-10
-6.61744e-24 -0.0114598 0.00285975 2.0861e-07 5.82359e-09 -2.47415e-09
3.88775e-21 -0.0117133 0.00184588 0.00595319 0.000172599 -3.26537e-05
0 0.0117133 0.00184592 0.000100909 6.04271e-05 2.6201e-05
3.13137e-20 -0.0116596 0.00239949 0.00402625 0.00011471 -3.18255e-05
0 0.0116596 0.00239948 7.13976e-05 4.78351e-05 1.77214e-05
-2.71051e-20 0.0119676 0.000293859 -5.61182e-06 1.67506e-06 8.55614e-07
5.42101e-20 -0.0119676 0.000293859 5.64582e-05 2.01097e-06 -4.18097e-07
2.71051e-20 -0.0120131 0.000895955 0.00478441 0.000157491 -1.28166e-05
-2.71051e-20 0.0120131 0.000895955 5.33698e-05 6.50943e-05 3.20362e-05
0 -0.0120433 0.00152444 0.00716734 0.00022594 -2.88049e-05
-2.71051e-20 0.0120433 0.00152444 0.000322774 6.0286e-05 3.25553e-05
0 0.0118604 0.00273056 7.57641e-05 4.20781e-05 1.36567e-05
0 -0.0118604 0.00273056 0.00311762 9.17716e-05 -3.75233e-05
0 0.0120387 0.00217273 0.000484788 5.97953e-05 3.23758e-05
2.71051e-20 -0.0120387 0.00217273 0.00670061 0.000198918 -3.04903e-05
-8.27181e-25 -0.0122418 4.68912e-09 3.20797e-10 3.09222e-12 -1.06593e-11
0 0.0122418 1.66918e-09 -1.02261e-11 5.5954e-12 2.80363e-12
-6.61744e-24 0.0119119 0.00310459 1.38168e-08 3.1779e-09 1.07348e-09
-6.61744e-24 -0.0119119 0.00310459 2.11838e-07 5.83773e-09 -1.9868e-09
2.12569e-20 -0.0123043 0.000568948 0.00249975 8.72016e-05 -3.48742e-06
-1.03398e-25 0.0123043 0.000568944 0.000146706 2.89373e-05 1.63066e-05
1.03398e-25 0.0123971 0.000559198 0.000183033 2.61283e-05 1.70065e-05
9.03612e-21 -0.01236 0.00118123 0.00646983 0.000220182 -1.03929e-05
0 0.01236 0.00118124 0.000577049 4.72008e-05 3.63763e-05
4.1359e-25 0.0124373 1.54461e-10 0 0 0
2.13313e-20 -0.0123814 0.00184432 0.00791691 0.000248444 -1.51e-05
0 0.0123814 0.00184434 0.00101249 4.02037e-05 4.4257e-05
0 -0.0125711 0.000269457 8.58702e-06 -1.70982e-06 -1.94029e-06
0 0.0125711 0.000269458 3.87117e-07 1.42907e-06 7.96494e-07
-8.66554e-21 -0.0123374 0.00258488 0.00569384 0.00015816 -1.69494e-05
-2.46434e-20 0.0123374 0.00258488 0.00087451 4.52318e-05 3.4315e-05
2.71051e-20 0.0122817 0.00299995 0.000366165 4.93131e-05 1.70449e-05
2.71051e-20 -0.0122817 0.00299995 0.0031102 8.39857e-05 -2.26781e-05
0 -0.0126475 0.000839062 0.00530077 0.000196386 1.11324e-06
-2.71051e-20 0.0126475 0.000839063 0.000547203 4.924e-05 3.2483e-05
0 0.0123472 0.00333734 1.97917e-08 2.26945e-09 1.08651e-09
0 -0.0123472 0.00333734 1.33746e-07 3.16591e-09 -8.8428e-10
2.71051e-20 0.0127108 0.0014705 0.00138494 1.42477e-05 4.8443e-05
0 -0.0127108 0.0014705 0.00866716 0.000301815 -1.51152e-06
0 0.0127518 0.00112259 0.00109525 1.82981e-05 4.52624e-05
1.65436e-24 -0.0128491 7.71817e-09 1.64053e-10 1.09555e-12 -1.28516e-10
4.1359e-25 0.0128491 2.48242e-09 1.01307e-11 1.18565e-12 7.72046e-13
2.71051e-20 0.0127172 0.00217074 0.00187139 2.54732e-05 6.37717e-05
2.71051e-20 -0.0127172 0.00217074 0.00915646 0.000269021 9.0275e-07
1.3852e-20 -0.0129129 0.000505056 0.00260042 0.00010214 1.03879e-05
0 0.0129129 0.000505055 0.000384888 1.052e-05 2.08953e-05
-1.97365e-20 -0.0125922 0.00303079 0.00427752 0.000102751 -1.16992e-05
-3.70742e-21 0.0125922 0.00303079 0.000866104 4.87015e-05 3.1658e-05
-4.94985e-21 -0.0130203 0.00108239 0.00726883 0.000274876 2.41989e-05
-1.23304e-20 0.0130203 0.0010824 0.00145038 -1.50881e-06 5.1352e-05
-5.42101e-20 -0.012793 0.00278388 0.00701555 0.000166439 7.02399e-06
2.71051e-20 0.012793 0.00278388 0.00171544 4.75187e-05 4.93384e-05
-2.71051e-20 -0.0127108 0.00327268 0.00283545 6.13715e-05 -1.87607e-05
2.71051e-20 0.0127108 0.00327268 0.000547562 4.92241e-05 2.89568e-05
0 -0.0131383 0.000218118 8.99618e-06 1.6839e-06 -1.33354e-05
2.71051e-20 0.0131383 0.000218118 2.08556e-06 -1.12731e-06 -3.90857e-07
0 0.0130692 0.00171594 0.00252761 -2.48379e-05 7.03457e-05
-1.88821e-20 -0.013073 0.00176509 0.00989479 0.00032695 2.8324e-05
0 0.013073 0.0017651 0.00261119 -2.6648e-05 7.18194e-05
2.58494e-26 0.0130931 0.00176192 0.00267429 -2.99139e-05 7.2393e-05
0 0.0127674 0.00356123 1.49044e-08 1.23528e-09 6.89293e-10
0 -0.0127674 0.00356123 6.12019e-08 1.06173e-09 -1.82827e-10
0 0.0132689 0.000719695 0.00102453 -5.85193e-06 5.26607e-05
-2.71051e-20 -0.0132689 0.000719694 0.00534439 0.000222152 5.75312e-05
0 -0.0130872 0.00246808 0.00947228 0.000248831 3.51605e-05
-4.1359e-25 0.0130872 0.00246808 0.0029384 2.56772e-06 7.90459e-05
1.43499e-20 -0.0133747 0.000406315 0.00251541 0.000114381 1.49062e-05
1.524e-20 0.0133747 0.000406311 0.00033988 -2.57009e-06 1.5929e-05
3.30872e-24 -0.0134599 1.1061e-08 3.76146e-08 1.86209e-09 -1.62464e-10
0 0.0134599 2.11019e-13 6.86113e-11 -4.99638e-11 -4.60432e-11
1.27287e-20 -0.0130916 0.00314268 0.00582822 0.000111793 1.75771e-05
0 0.0130916 0.00314268 0.0019461 4.80529e-05 5.78529e-05
-2.71051e-20 -0.0134186 0.00131377 0.00994164 0.000384038 3.78302e-05
0 0.0134186 0.00131377 0.00287616 -6.39156e-05 7.20724e-05
0 0.0133031 0.00245086 0.00388126 -3.20912e-05 8.69129e-05
2.71051e-20 0.013075 0.00349045 0.00087479 6.31425e-05 3.30383e-05
-5.42101e-20 -0.013075 0.00349045 0.00291142 4.37075e-05 -3.65449e-07
-5.42101e-20 -0.0134232 0.00207248 0.0117446 0.000354801 7.45707e-05
2.71051e-20 0.0134232 0.00207248 0.00427227 -8.21538e-05 0.000102186
0 0.0131963 0.00330884 0.0018042 5.46039e-05 5.59359e-05
2.06795e-25 -0.0132124 0.00333436 0.00504501 8.19203e-05 1.81516e-05
0 0.0132965 0.0031224 0.00289348 3.51279e-05 7.02051e-05
2.71051e-20 -0.0136984 0.000300344 0.00230705 0.000124751 1.63942e-06
0 0.0136984 0.000300344 3.60766e-06 -7.70616e-07 -4.02932e-06
0 0.013418 0.00277569 0.00402102 1.09023e-05 0.000103451
5.42101e-20 -0.013418 0.00277569 0.0102499 0.000218173 6.15445e-05
-2.06795e-25 0.0131762 0.0037788 2.69489e-09 1.82221e-10 1.13681e-10
0 -0.0131762 0.0037788 7.46326e-09 7.52956e-11 1.63011e-11
3.10193e-25 -0.0132273 0.00369735 0.00137872 1.67925e-05 6.06695e-06
2.06795e-25 0.0132292 0.00369443 0.000542751 2.1212e-05 1.79223e-05
0 -0.0133968 0.00311247 0.00789991 0.000137232 5.15128e-05
2.74459e-20 -0.0137612 0.00078614 0.00649543 0.000283916 3.16696e-05
4.44361e-21 0.0137612 0.000786141 0.00183303 -5.49161e-05 4.84288e-05
-3.61916e-20 0.0133341 0.00352736 0.00161759 6.32192e-05 5.34147e-05
-4.1359e-25 -0.0133341 0.00352736 0.00425642 5.18421e-05 1.873e-05
0 -0.0132735 0.00383757 0 0 0
-4.1359e-25 0.0132832 0.00384344 0 0 0
-4.1905e-21 -0.0137678 0.00165537 0.011861 0.000414117 7.2391e-05
-6.50164e-22 0.0137678 0.00165537 0.00479029 -0.000139434 9.16283e-05
2.71051e-20 0.013482 0.00331696 0.00294238 6.40555e-05 8.25237e-05
2.71051e-20 -0.013482 0.00331696 0.00709899 9.29792e-05 4.56103e-05
3.33015e-20 0.0137484 0.00241532 0.00582643 -0.000103594 0.000103143
0 -0.0137484 0.00241533 0.0125643 0.000322346 9.88705e-05
0 -0.013458 0.00374223 0.00277074 1.92517e-05 1.09227e-05
0 0.013458 0.00374223 0.00103868 6.247e-05 4.46642e-05
4.1359e-25 -0.0137485 0.00262819 0.0118331 0.000272281 9.62291e-05
-3.30872e-24 -0.014071 -1.61666e-15 2.00065e-07 1.00485e-08 1.65123e-10
0 0.014071 3.38398e-08 2.53196e-08 -6.27106e-10 1.24263e-09
-6.42223e-21 0.0137488 0.00307761 0.00498534 6.58866e-06 9.74795e-05
0 -0.0137488 0.00307762 0.0102893 0.000166572 9.06518e-05
0 -0.0135651 0.00401367 2.93017e-08 1.01109e-10 2.01991e-10
0 0.0135651 0.00401367 1.24308e-08 6.1682e-10 4.60166e-10
-2.71051e-20 -0.0141231 0.00120897 0.0112466 0.000476908 6.24015e-05
2.71051e-20 0.0141231 0.00120897 0.00456434 -0.000181006 9.09946e-05
-8.47364e-21 0.0137164 0.00361035 0.00283643 6.98694e-05 7.44892e-05
8.27181e-25 -0.0137164 0.00361035 0.00602624 4.86245e-05 5.16523e-05
-5.42101e-20 -0.014089 0.00201377 0.014409 0.000442965 0.0001134
-2.71051e-20 0.014089 0.00201377 0.00735942 -0.000230096 0.000101841
-2.71051e-20 -0.0142657 0.000418225 0.00427541 0.00023803 -2.74831e-06
-2.71051e-20 0.0142657 0.000418225 0.000968769 -3.14833e-05 3.63685e-05
-2.71051e-20 -0.014069 0.0027392 0.0139032 0.000281039 0.000145004
2.71051e-20 0.014069 0.0027392 0.00767809 -0.000119377 0.000104956
0 0.0138967 0.00392747 0.00204452 9.47678e-05 7.44401e-05
0 -0.0138967 0.00392747 0.00438084 -1.76122e-07 3.9581e-05
-5.42101e-20 0.0140496 0.00340311 0.00566965 5.85407e-05 0.000101378
2.71051e-20 -0.0140496 0.00340311 0.010473 8.86034e-05 0.000118379
-2.82251e-20 0.014441 0.00161389 0.00756465 -0.000291362 8.51442e-05
-2.5593e-20 -0.014441 0.00161389 0.0143001 0.000509775 7.37026e-05
-2.25754e-20 -0.0145429 0.000823391 0.00870619 0.000403685 1.78011e-05
-1.51506e-20 0.0145429 0.000823383 0.00369415 -0.000167831 6.65576e-05
8.27181e-25 -0.0139237 0.00428406 5.25592e-08 -8.38325e-11 5.37446e-10
8.27181e-25 0.0139237 0.00428406 2.54978e-08 1.15611e-09 7.39393e-10
1.4785e-20 0.014397 0.00237993 0.00956607 -0.000262518 6.84597e-05
0 -0.014397 0.00237994 0.0159764 0.000398248 0.000127869
2.06795e-25 -0.0143809 0.0027439 0.0150879 0.00029529 0.000137855
2.09707e-20 0.0143653 0.00309536 0.00881244 -9.04789e-05 6.6726e-05
0 -0.0143653 0.00309537 0.01423 0.000195867 0.000147498
-6.61744e-24 -0.0147021 5.53624e-08 4.24363e-07 2.1989e-08 1.01721e-09
6.61744e-24 0.0147022 5.46449e-08 1.08803e-07 -4.98915e-09 5.28816e-09
-2.01253e-20 0.014305 0.00382188 0.00519444 6.34139e-05 6.03207e-05
0 -0.014305 0.00382189 0.00869414 2.26129e-05 9.80745e-05
-2.71051e-20 -0.0142451 0.00421792 0.00433498 -2.36975e-05 5.24407e-05
0 0.0142451 0.00421792 0.00228975 0.000103574 5.70952e-05
5.42101e-20 0.0147298 0.00200539 0.0109081 -0.000408984 5.33819e-05
0 -0.0147298 0.00200539 0.0175874 0.000532466 9.19454e-05
0 0.0148165 0.00124392 0.00726279 -0.000338765 9.63576e-05
-2.71051e-20 -0.0148165 0.00124392 0.0138022 0.0005847 2.67844e-05
2.71051e-20 0.014711 0.00272495 0.0122689 -0.000293265 1.49536e-05
0 -0.014711 0.00272495 0.0179782 0.000340266 0.00015957
-2.71051e-20 0.0149558 0.000461599 0.00197814 -0.000119277 4.37079e-05
0 -0.0149558 0.000461599 0.00558722 0.000318136 -1.25787e-05
8.27181e-25 -0.0142802 0.00455258 4.43603e-08 -3.12346e-10 5.55963e-10
-8.27181e-25 0.0142802 0.00455258 2.28826e-08 9.23792e-10 5.37153e-10
0 0.0146561 0.00344874 0.00992504 -2.48331e-05 4.17395e-05
0 -0.0146561 0.00344874 0.0148986 8.62479e-05 0.000168535
7.38093e-21 -0.014516 0.0042716 0.0063106 -3.16814e-05 7.77456e-05
1.6853e-20 0.014516 0.0042716 0.00380938 8.70195e-05 4.74854e-05
8.52327e-21 -0.0150862 0.00165186 0.0171209 0.000611089 9.57964e-06
-3.18961e-21 0.0150862 0.00165186 0.0105347 -0.000394237 2.63448e-05
2.71051e-20 -0.014707 0.0040482 0.0105891 -2.47054e-05 0.000125346
-5.42101e-20 0.014707 0.0040482 0.0068767 7.26831e-05 2.67863e-05
3.49749e-20 0.0151175 0.00230445 0.0137327 -0.000397143 -5.78909e-05
2.31379e-20 -0.0151175 0.00230445 0.0197378 0.000493554 5.1697e-05
0 0.0146108 0.00452168 0.00236717 8.44387e-05 5.78542e-05
-2.71051e-20 -0.0146108 0.00452168 0.00415673 -4.62446e-05 5.70626e-05
-5.16988e-26 -0.0149972 0.00307322 0.018982 0.00025912 0.000106536
2.20791e-20 0.0149933 0.00309787 0.0138458 -0.000245368 -8.96073e-05
0 -0.0149933 0.00309786 0.0189577 0.000251607 0.000108293
5.16988e-26 -0.0150551 0.00309623 0.0194584 0.000258802 9.02101e-05
1.11636e-20 -0.0153398 0.000978663 0.0115932 0.000517647 -2.30015e-05
-4.03664e-21 0.0153398 0.000978658 0.00647677 -0.000271084 3.16171e-05
0 -0.0153748 1.34592e-07 8.48792e-07 4.66677e-08 1.79809e-09
0 0.015375 6.5057e-08 3.07932e-07 -1.79236e-08 1.00503e-08
0 -0.0146354 0.00482017 2.55228e-08 -2.86857e-10 3.46119e-10
-4.1359e-25 0.0146354 0.00482017 1.24024e-08 4.04436e-10 1.87082e-10
-2.55921e-20 0.0149803 0.0037633 0.011104 -4.7975e-05 -6.82e-05
-2.35842e-20 -0.0149803 0.0037633 0.0153955 4.5527e-05 0.000119665
0 0.0153272 0.00275021 0.0171242 -0.000442565 -0.000197173
0 -0.0153272 0.00275021 0.0224247 0.00043381 2.48145e-05
0 -0.0149658 0.00441693 0.00900179 -4.45305e-05 8.54338e-05
-1.11363e-20 0.0149658 0.00441693 0.00620007 4.54017e-05 -1.87607e-05
2.71051e-20 -0.014927 0.00477487 0.00429082 -5.91994e-05 5.9145e-05
2.71051e-20 0.014927 0.00477488 0.00265907 7.7731e-05 2.42875e-05
0 -0.0152999 0.00342237 0.0204325 0.000147315 8.11255e-05
-2.71051e-20 0.0152999 0.00342237 0.0159525 -0.000218511 -0.000212757
0 0.0149195 0.0050341 0 0 0
-5.42101e-20 0.015716 0.00173426 0.0150414 -0.000457897 -0.000123126
-5.42101e-20 -0.015716 0.00173426 0.0215591 0.000771045 -0.000141809
5.42101e-20 -0.0152841 0.00407715 0.0161961 -1.66161e-05 0.000102637
0 0.0152841 0.00407715 0.0121339 -3.63867e-05 -0.000138916
0 -0.0149898 0.00508707 8.47069e-09 -1.04175e-10 1.14637e-10
1.03398e-25 0.0149898 0.00508707 3.19394e-09 7.28051e-11 2.64493e-11
-9.69787e-21 0.0156647 0.00240044 0.0186955 -0.000474887 -0.000311582
-1.87108e-21 -0.0156647 0.00240044 0.0241181 0.000527545 -0.00011744
-2.06795e-25 0.0150316 0.00502549 0.00103192 1.12791e-05 -3.15163e-06
0 0.0158728 0.000521005 0.00364772 -0.000208478 6.19075e-05
-1.0842e-19 -0.0158728 0.000521006 0.00747891 0.000459505 -1.3694e-06
-3.76202e-21 -0.0151702 0.00482145 0.00653317 -6.16882e-05 6.81921e-05
2.05753e-20 0.0151702 0.00482145 0.00445131 4.86541e-05 -1.3595e-05
8.84422e-21 0.015623 0.00308125 0.0193932 -0.000395066 -0.000384677
-1.88998e-20 -0.015623 0.00308126 0.0240609 0.000324949 -7.60332e-05
-2.71051e-20 0.0153271 0.00461022 0.00801577 1.84537e-05 -7.91777e-05
0 -0.0153271 0.00461022 0.0111443 -7.11397e-05 9.07082e-05
-4.1359e-25 -0.0156085 0.00354717 0.0223193 0.000175163 -4.58103e-05
1.08969e-20 0.0156022 0.00374982 0.0175308 -0.000237045 -0.000382771
-2.06795e-25 -0.0156022 0.00374982 0.0215619 0.000110014 -3.26648e-05
-5.42101e-20 0.015269 0.00505544 0.00274772 4.90573e-05 1.27936e-05
0 -0.015269 0.00505544 0.00425233 -5.48848e-05 5.51337e-05
-2.71051e-20 -0.0159605 0.00272816 0.0271679 0.000472751 -0.000234691
2.71051e-20 0.0159605 0.00272816 0.0222684 -0.000514606 -0.000526678
0 -0.0155971 0.0043751 0.0166847 -1.21217e-05 1.20671e-05
-1.06905e-20 0.0155971 0.0043751 0.0131542 -0.000110191 -0.000280147
0 0.0153431 0.00535318 2.25089e-08 5.74059e-11 -9.85605e-11
2.58494e-26 -0.0153431 0.00535318 2.27939e-09 -1.7164e-11 2.14359e-11
-2.71051e-20 -0.0159183 0.00340547 0.0262117 0.000246936 -0.000176335
-2.71051e-20 0.0159183 0.00340547 0.0222111 -0.000403376 -0.000600524
5.16988e-26 0.0155093 0.00497609 0.00609973 -2.0743e-05 -9.84778e-05
0 -0.0155359 0.00491577 0.00955604 -4.52488e-05 4.29583e-05
1.58095e-21 0.0155359 0.00491577 0.00707543 -2.4061e-05 -0.00011423
-1.03398e-25 -0.0158827 0.00371014 0.0240829 0.000155585 -0.000167417
-2.71051e-20 0.0159245 0.00405169 0.0198342 -0.000290434 -0.000578227
0 -0.0159245 0.00405169 0.0234209 6.46497e-05 -0.000138369
4.44163e-20 -0.0163948 0.00113363 0.0173326 0.000621166 -0.000171759
-3.84804e-20 0.0163948 0.00113363 0.0122401 -0.00026083 -0.000156103
0 -0.0164795 6.04198e-08 7.06133e-07 3.46774e-08 -1.64248e-09
-3.30872e-24 0.0164796 2.21654e-08 1.35737e-07 -4.22753e-09 9.48684e-10
5.16988e-26 0.0157156 0.00498366 0.00854089 -8.23646e-05 -0.0002022
2.53448e-20 0.0162478 0.00305838 0.024141 -0.000456469 -0.000704183
-2.05976e-20 -0.0162478 0.00305839 0.0285326 0.000385816 -0.00034017
4.84777e-20 -0.016378 0.00230524 0.0279923 0.000595938 -0.000389356
-5.19519e-20 0.016378 0.00230524 0.0226455 -0.000433642 -0.00058752
-2.71051e-20 0.0156904 0.00524875 0.00481312 -2.2756e-05 -5.56046e-05
0 -0.0156904 0.00524875 0.00686012 -3.71775e-05 4.37954e-05
-5.42101e-20 0.0158759 0.00471202 0.013497 -0.000154764 -0.00035986
2.71051e-20 -0.0158759 0.00471202 0.0168915 -1.55128e-05 -2.18363e-05
-8.27181e-25 0.0156951 0.00561829 4.62524e-08 -3.86724e-10 -8.4537e-10
0 -0.0156951 0.00561829 5.36159e-08 -1.59873e-10 1.25919e-10
-2.36578e-20 0.0163084 0.00364992 0.0242455 -0.000412554 -0.000819533
2.40441e-21 -0.0163084 0.00364992 0.0279097 0.000224758 -0.00037196
5.16988e-26 -0.0162303 0.00419321 0.0249563 0.000136902 -0.000304984
-9.86568e-21 0.016199 0.00441125 0.0204768 -0.000354941 -0.000717383
0 -0.016199 0.00441125 0.0237709 0.000101642 -0.000278103
-5.16988e-26 0.0161616 0.00473168 0.0166299 -0.000291527 -0.000575659
0 -0.0161146 0.00513441 0.01439 4.11649e-05 -0.000125319
0 0.0161146 0.00513441 0.0117948 -0.000211824 -0.000397529
0 0.016031 0.0055414 0.00525377 -6.07285e-05 -0.000138903
-5.42101e-20 -0.016031 0.0055414 0.00706012 -1.26517e-05 -1.42272e-05
2.71051e-20 0.0165301 0.00408038 0.0270045 -0.000516292 -0.00107492
2.71051e-20 -0.0165301 0.00408038 0.0301213 0.000218348 -0.000564807
5.42101e-20 -0.0170241 0.000577593 0.0115076 0.000515913 -4.45181e-05
-1.0842e-19 0.0170241 0.000577593 0.00742358 -0.000110241 1.27497e-05
0 -0.0169742 0.00175445 0.0293479 0.000750918 -0.000504913
0 0.0169742 0.00175445 0.0232995 -0.000277949 -0.000583344
0 0.0160456 0.00588233 5.89295e-08 -1.25298e-09 -1.83205e-09
0 -0.0160456 0.00588233 6.41439e-08 1.70744e-10 -3.54088e-10
-5.42101e-20 0.0168708 0.00304668 0.0302664 -0.0004417 -0.00116175
-5.42101e-20 -0.0168708 0.00304668 0.0344158 0.000456054 -0.000770744
0 -0.0164827 0.00476235 0.024878 0.000143295 -0.00039754
-5.42101e-20 0.0164827 0.00476235 0.0218058 -0.000464754 -0.000869552
-8.18743e-21 0.0163092 0.00559034 0.00853515 -0.000204391 -0.000317694
-5.28858e-21 -0.0163092 0.00559034 0.0106116 5.63629e-05 -0.000112742
2.58494e-26 -0.0166741 0.00441187 0.029799 0.000220033 -0.000644664
-1.17038e-20 0.0168571 0.00372694 0.0307663 -0.000549825 -0.00129316
8.73089e-22 -0.0168571 0.00372694 0.0339516 0.0003057 -0.000820223
0 -0.0165194 0.0053648 0.0180501 0.000141841 -0.000271211
2.71051e-20 0.0165194 0.0053648 0.0152496 -0.000394262 -0.000634571
1.21968e-20 0.0168293 0.00441207 0.0289322 -0.000598124 -0.00126587
2.58494e-26 -0.0168293 0.00441207 0.0317674 0.000258691 -0.000764357
0 -0.016393 0.00584515 0.00710482 4.36385e-05 -6.03776e-05
-2.71051e-20 0.016393 0.00584515 0.00544363 -0.000166706 -0.000195194
5.16988e-26 -0.0168244 0.00457624 0.030437 0.000261374 -0.000724889
0 0.0168198 0.00472892 0.0263968 -0.000601229 -0.00117547
8.27181e-25 0.0163955 0.00614428 7.11919e-08 -2.42561e-09 -3.12262e-09
0 -0.0163955 0.00614428 7.43379e-08 7.20159e-10 -9.75975e-10
1.03398e-25 -0.0168096 0.00506989 0.0264365 0.00026944 -0.000606208
0 0.0168096 0.00506989 0.0236686 -0.00060457 -0.0010782
-6.61744e-24 -0.0176231 3.91596e-08 5.73879e-07 1.62203e-08 -3.38901e-09
0 0.0176231 3.09317e-08 3.16041e-07 2.65947e-09 -1.47744e-09
1.90582e-20 -0.0175916 0.0011589 0.0228311 0.000465242 -0.000379646
-2.92458e-20 0.0175916 0.00115889 0.0180971 2.81958e-05 -0.000426152
0 -0.0171737 0.004052 0.0373297 0.000300379 -0.00109288
2.71051e-20 0.0171737 0.004052 0.0346472 -0.000645509 -0.00157867
-3.10391e-20 -0.0175442 0.00239622 0.0357836 0.000440188 -0.000885855
4.50913e-20 0.0175442 0.0023962 0.0310329 -0.000198903 -0.00113616
0 0.0167746 0.00574376 0.0139259 -0.00044648 -0.000672305
2.06795e-25 -0.0167746 0.00574376 0.0161557 0.000210112 -0.00034698
0 -0.0171404 0.0047287 0.0346374 0.00036757 -0.000999057
-5.42101e-20 0.0171404 0.0047287 0.0321624 -0.000759962 -0.00153406
-2.71051e-20 -0.016705 0.00611265 0.00798431 9.47509e-05 -0.000132026
2.71051e-20 0.016705 0.00611265 0.006428 -0.000235965 -0.000324008
2.4018e-20 -0.0174986 0.00354413 0.0397745 0.000329812 -0.00122143
5.78902e-21 0.0174986 0.00354412 0.0366811 -0.000553108 -0.0016535
8.27181e-25 0.0167191 0.00643602 8.20347e-08 -3.53775e-09 -4.54042e-09
0 -0.0167191 0.00643602 8.27564e-08 1.35221e-09 -1.6676e-09
0 -0.0171168 0.00539052 0.0289364 0.000434622 -0.000789135
0 0.0171168 0.00539052 0.0262251 -0.000815269 -0.00131469
-3.07334e-20 0.0174702 0.00438304 0.0370906 -0.000752996 -0.00178916
2.58835e-20 -0.0174702 0.00438304 0.0395627 0.000377038 -0.00129684
1.4256e-20 0.0169667 0.00617943 0.0105641 -0.000417469 -0.00057757
-1.62251e-20 -0.0169667 0.00617943 0.0124712 0.000210671 -0.000291625
-2.58494e-26 0.0174562 0.0048306 0.0353097 -0.000851055 -0.00176385
0 -0.0174549 0.00487038 0.0376067 0.000472921 -0.00124412
-5.16988e-26 0.0174493 0.00505023 0.0344359 -0.000899174 -0.00175143
5.16988e-26 -0.0174493 0.00505023 0.0368849 0.000508305 -0.00122467
0 0.0171679 0.00597129 0.0187228 -0.000693579 -0.00101772
2.71051e-20 -0.0171679 0.00597129 0.0213112 0.000378221 -0.000560599
0 0.0182005 0.000583389 0.0112482 0.000318724 -0.000105926
0 -0.0182005 0.000583389 0.0149425 0.000279022 -0.000116182
-5.42101e-20 -0.017043 0.00643779 0.00839114 0.000164188 -0.000190537
0 0.017043 0.00643779 0.00679365 -0.000331353 -0.000404548
0 0.0177879 0.00403219 0.0406397 -0.000712271 -0.00196037
0 -0.0177879 0.00403219 0.0431494 0.000340866 -0.00151081
5.42101e-20 -0.0181761 0.00178292 0.036022 0.000316509 -0.000867893
0 0.0181761 0.00178292 0.0308749 0.000182357 -0.00104728
-8.27181e-25 0.0170214 0.00674884 9.0124e-08 -4.40877e-09 -5.73998e-09
0 -0.0170214 0.00674883 9.12229e-08 1.93293e-09 -2.42753e-09
-2.85967e-20 0.0174458 0.00568734 0.0285747 -0.000952331 -0.00154633
-1.99723e-20 -0.0174458 0.00568734 0.0311767 0.000579413 -0.00101881
-5.42101e-20 0.0177804 0.00470438 0.0408291 -0.000895112 -0.00208015
0 -0.0177804 0.00470438 0.0430482 0.000499107 -0.00158038
5.42101e-20 0.0181642 0.00305698 0.0399609 -0.000268189 -0.00177485
5.42101e-20 -0.0181642 0.00305697 0.0435501 0.000228616 -0.00141165
-1.38106e-20 -0.0181317 0.00370155 0.0453595 0.000271986 -0.00156815
9.05639e-21 0.0181317 0.00370155 0.0426071 -0.000585965 -0.00200934
-3.53868e-20 0.01741 0.00635261 0.0170325 -0.000704285 -0.001009
-2.15572e-20 -0.01741 0.00635261 0.0192234 0.000426819 -0.000612528
-2.71051e-20 -0.0177702 0.00535529 0.0408475 0.000727245 -0.00152671
0 0.0177702 0.00535529 0.0384562 -0.00112146 -0.00207201
-2.71051e-20 -0.0173274 0.00672747 0.00937071 0.000203379 -0.000273959
2.71051e-20 0.0173274 0.00672747 0.00782783 -0.000380812 -0.000522492
6.31501e-21 -0.0181076 0.00436205 0.0460917 0.000390499 -0.00165911
1.41228e-20 0.0181076 0.00436205 0.0437336 -0.000790602 -0.00215374
0 0.0173238 0.00706119 9.26745e-08 -5.09422e-09 -6.51929e-09
8.27181e-25 -0.0173238 0.00706119 9.88569e-08 2.59559e-09 -3.18344e-09
0 -0.0177503 0.00600627 0.0346173 0.000796073 -0.0012471
2.71051e-20 0.0177503 0.00600627 0.0319064 -0.00120226 -0.0018347
6.46235e-27 0.0180987 0.00497196 0.0436496 -0.00101287 -0.00225168
1.45403e-26 -0.0180912 0.00501859 0.0458026 0.000629957 -0.00171707
0 0.018098 0.00501826 0.0436432 -0.00102975 -0.00225912
3.21523e-20 -0.018098 0.00501826 0.0458934 0.000631505 -0.00172218
0 -0.0187969 2.4032e-08 4.32129e-07 2.00519e-09 -3.37725e-09
0 0.0187969 1.70778e-08 2.41521e-07 1.09362e-08 -2.75117e-09
-7.5644e-20 -0.0187878 0.00116732 0.0273509 9.16605e-05 -0.000499344
-3.44603e-20 0.0187878 0.00116731 0.0232638 0.000548926 -0.000637077
1.3091e-20 0.0175851 0.00679799 0.0128356 -0.000626314 -0.000843458
-3.51746e-20 -0.0175851 0.00679799 0.0147855 0.000383476 -0.000501178
5.42101e-20 -0.0184432 0.00401963 0.0485293 0.00023252 -0.00171553
2.71051e-20 0.0184432 0.00401963 0.0460447 -0.00065528 -0.00219517
7.80296e-20 -0.0187844 0.00239453 0.0427038 8.44839e-05 -0.00113081
3.49699e-20 0.0187844 0.00239455 0.0385926 0.000188028 -0.00148585
-5.16988e-26 0.0180831 0.00566925 0.0408332 -0.00125203 -0.00223096
0 -0.0180831 0.00566925 0.0432742 0.000853335 -0.00165906
0 0.018287 0.00499127 0.0453935 -0.00102899 -0.00232374
0 -0.0177912 0.00658995 0.0255557 0.000665871 -0.000908884
-2.71051e-20 0.0177912 0.00658995 0.0228737 -0.00101749 -0.00143128
0 0.0184158 0.00467993 0.0473166 -0.000897691 -0.00237372
-2.71051e-20 -0.0184158 0.00467993 0.0495368 0.000487213 -0.00182542
-2.71051e-20 -0.0176529 0.00706043 0.00983031 0.000291905 -0.00033598
0 0.0176529 0.00706043 0.00817811 -0.000495483 -0.000598606
0 -0.0176264 0.00737367 1.08929e-07 3.30314e-09 -4.07848e-09
0 0.0176264 0.00737367 9.07148e-08 -5.44015e-09 -6.88582e-09
1.03398e-25 0.0180712 0.00630777 0.0342121 -0.00131685 -0.00200532
-2.0628e-20 -0.0180712 0.00630777 0.0368922 0.000921891 -0.00141837
-2.71051e-20 0.0184261 0.0053197 0.0478337 -0.00120375 -0.00250451
-2.71051e-20 -0.0184261 0.0053197 0.0500212 0.000810274 -0.00195003
-6.1211e-20 -0.0188515 0.00360143 0.0493766 0.000184037 -0.00157545
1.2813e-21 0.0188515 0.00360143 0.0464645 -0.00040488 -0.00209438
-1.12078e-20 -0.0187497 0.00434473 0.0506066 0.000345227 -0.0017592
-1.66333e-20 0.0187497 0.00434473 0.0482216 -0.000738839 -0.00232003
0 0.018025 0.00697581 0.0205441 -0.000981104 -0.00133935
2.06795e-25 -0.018025 0.00697581 0.0228236 0.000665442 -0.00088606
-2.71051e-20 -0.0183967 0.00598007 0.0476283 0.00107401 -0.00191129
5.42101e-20 0.0183967 0.00598007 0.0451577 -0.00147494 -0.00251109
2.71051e-20 -0.0179363 0.0073519 0.0111302 0.000334637 -0.00044046
-2.71051e-20 0.0179363 0.0073519 0.00953736 -0.000562772 -0.000740073
5.42101e-20 0.0193896 0.000584898 0.0146622 0.00093408 -0.000196226
-5.42101e-20 -0.0193896 0.000584906 0.0178612 -7.51272e-05 -0.00014535
2.24903e-20 -0.0188216 0.00491492 0.052559 0.000633715 -0.00190503
-3.30198e-21 0.0188216 0.00491492 0.0503451 -0.00102683 -0.00250654
0 0.0193933 0.00177944 0.0367717 0.000757497 -0.00122252
0 -0.0193933 0.00177943 0.041111 -0.000154334 -0.000886045
0 -0.0179292 0.00768641 1.19572e-07 4.1273e-09 -5.0222e-09
0 0.0179292 0.00768641 8.18536e-08 -5.32146e-09 -6.65123e-09
0 0.0187687 0.00532689 0.0503332 -0.00121253 -0.00257193
0 -0.0187614 0.00538336 0.0525505 0.000839866 -0.00197595
-2.71051e-20 -0.018369 0.00663164 0.0408756 0.00117368 -0.00165631
2.71051e-20 0.018369 0.00663164 0.0380256 -0.00159791 -0.00229908
1.29247e-26 -0.0187273 0.00564917 0.0525456 0.000956841 -0.00201619
2.58494e-26 0.0187273 0.00564917 0.0503239 -0.0013578 -0.00262308