# U  POINT_DATA 18760
# x  y  z  U_x  U_y  U_z
-0.237 0 8.31749e-08 7.50391e-14 9.18949e-15 6.18318e-14
0.237 0 8.31749e-08 -1.96745e-16 1.61773e-17 3.78128e-17
0.237 2.06795e-25 0.000550925 1.72928e-10 -9.45712e-10 -2.276e-10
-0.237 0 0.000550926 8.01944e-09 1.04111e-09 1.0742e-08
-0.237 5.16988e-26 0.000576239 0 0 0
0.237 1.03398e-24 0.000661329 0 0 0
-0.237 0 0.0011232 2.04235e-07 -3.02642e-08 5.03792e-07
0.237 8.27181e-25 0.0011232 2.10579e-09 -4.02857e-09 -7.96663e-09
0.237 -8.27181e-25 0.00153384 0 0 0
0.237 0 0.00172954 1.36328e-09 -3.92555e-09 -1.0097e-08
-0.237 -2.58494e-26 0.00172954 2.42592e-09 -6.05802e-10 1.18659e-08
-0.237 -2.58494e-26 0.00184676 0 0 0
0.237 0 0.00236831 2.47713e-09 -6.77345e-09 -2.81781e-08
-0.237 -1.03398e-25 0.0023683 3.3042e-09 3.0283e-09 5.32987e-08
0.237 0 0.00302579 8.75233e-10 -3.81304e-09 -2.19157e-08
-0.237 0 0.00302578 -1.83534e-09 7.08407e-09 1.05206e-07
-0.237 0 0.00333716 0 0 0
-0.237 0 0.00368597 -1.96593e-09 -6.51434e-09 7.71898e-08
0.237 2.58494e-26 0.00368597 -6.52293e-12 -1.33552e-10 -8.95376e-10
0.237 2.58494e-26 0.00386407 0 0 0
-0.237 0 0.00418269 0 0 0
-0.237 0 0.00433887 1.1488e-09 2.1989e-09 1.73621e-08
0.237 0 0.00433887 -9.60029e-11 3.48679e-10 -1.55371e-09
-0.237 -5.16988e-26 0.00454125 0 0 0
0.237 0 0.00498192 -3.33282e-10 1.00786e-09 -1.62263e-09
-0.237 0 0.00498192 4.32869e-09 -4.55647e-09 2.79569e-08
0.237 0 0.0056169 -5.79093e-10 1.66498e-09 1.30482e-09
-0.237 0 0.0056169 1.85704e-09 -4.5478e-09 1.39488e-08
-0.237 0 0.00598745 0 0 0
0.237 0 0.00624674 -7.40394e-10 2.07153e-09 6.74788e-09
-0.237 0 0.00624674 -2.00448e-09 2.9399e-09 -5.99641e-09
0.237 4.1359e-25 0.00687382 -7.84307e-10 2.11855e-09 1.34191e-08
-0.237 0 0.00687382 -5.52272e-09 3.8838e-09 -3.0257e-08
-0.237117 -1.03398e-25 0.000553557 0.00357808 1.63823e-05 0.00232844
0.237 0 0.00749962 -6.89974e-10 1.75848e-09 1.9217e-08
-0.237 0 0.00749962 -8.54746e-09 4.96747e-09 -6.61618e-08
0.237 0 0.00812489 -5.03861e-10 1.1474e-09 2.23706e-08
-0.237 0 0.00812489 -9.7177e-09 5.50859e-09 -1.0165e-07
0.237 0 0.00874998 -3.15507e-10 5.5065e-10 2.37658e-08
-0.237 0 0.00874998 -9.57201e-09 5.78386e-09 -1.34384e-07
0.237 0 0.009375 -1.64271e-10 4.60557e-11 2.52267e-08
-0.237 0 0.009375 -8.80677e-09 6.03988e-09 -1.67275e-07
-0.237 0 0.00999999 -7.92482e-09 6.51307e-09 -2.07521e-07
0.237 4.1359e-25 0.01 -4.61456e-11 -4.0765e-10 2.69175e-08
0.237 0 0.010625 4.36558e-11 -8.10826e-10 2.7775e-08
-0.237 0 0.010625 -7.00938e-09 7.25496e-09 -2.59544e-07
-0.237263 0 0.000279273 0.00650448 4.41323e-05 0.00536023
0.237263 -2.71051e-20 0.000279185 -2.32471e-05 1.16938e-06 6.61985e-06
-0.237 -4.1359e-25 0.01125 -5.58027e-09 7.59623e-09 -2.99712e-07
0.237 0 0.01125 9.2777e-11 -1.06304e-09 2.58616e-08
-0.237267 2.71051e-20 0.000847159 0.0110406 8.07468e-05 0.0186999
0.237267 0 0.000847159 0.000112819 -0.000384032 -0.000105069
-0.237269 0 0.00144351 0.00871606 9.15996e-05 0.0300395
0.237269 0 0.00144351 0.000184974 -0.000464409 -0.00106406
0.23727 5.42101e-20 0.00206936 0.000225121 -0.000367835 -0.00186787
-0.23727 0 0.00206936 0.0041867 9.10886e-05 0.0351886
0.23727 2.71051e-20 0.00271568 0.00014994 -0.000229124 -0.00226875
-0.23727 0 0.00271568 0.000183479 8.18776e-05 0.0306209
-0.23727 0 0.00336939 -0.00108519 7.09466e-05 0.0212749
0.23727 0 0.00336939 3.86992e-05 -9.9214e-05 -0.00217123
-0.237 0 0.011875 -3.81449e-09 7.10807e-09 -3.04825e-07
0.237 4.1359e-25 0.011875 8.69566e-11 -9.63256e-10 1.88869e-08
-0.237271 0 0.00402047 0.000169788 6.36031e-05 0.0145978
0.237271 0 0.00402047 -5.73381e-05 2.79928e-06 -0.00168612
0.237 -2.06795e-25 0.0121783 0 0 0
-0.237271 0 0.00466435 0.00152845 5.77786e-05 0.011072
0.237271 2.71051e-20 0.00466435 -0.000106547 6.81938e-05 -0.000952249
-0.237 2.06795e-25 0.012345 0 0 0
0.237 -4.1359e-25 0.0125 9.6637e-11 -2.88532e-09 1.99271e-08
-0.237 0 0.0125 -8.06092e-10 -2.13034e-09 -1.01419e-07
-0.237272 0 0.00530117 0.00125629 5.01165e-05 0.00690492
0.237272 2.71051e-20 0.00530117 -0.000123749 9.58968e-05 -0.000128868
-0.237272 -2.71051e-20 0.0059324 -0.000277044 4.04629e-05 0.000863999
0.237272 -2.71051e-20 0.0059324 -0.000124667 8.92421e-05 0.000697308
0.237272 0 0.00656043 -0.000113434 5.56799e-05 0.0014681
-0.237272 5.42101e-20 0.00656043 -0.00146854 3.37308e-05 -0.00608074
0.237 0 0.013125 1.15581e-10 -3.92787e-09 2.61719e-08
-0.237 0 0.013125 -8.16356e-10 -3.34387e-09 -1.68012e-07
0.237272 0 0.00718674 -9.81283e-05 6.58543e-06 0.00215813
-0.237272 0 0.00718674 -0.00201247 3.06969e-05 -0.0129851
0.237 0 0.01375 9.1781e-11 -4.13881e-09 2.66653e-08
-0.237 0 0.01375 -5.30318e-10 -4.1722e-09 -2.19689e-07
-0.237272 -2.71051e-20 0.00781225 -0.00218458 2.87873e-05 -0.0194971
0.237272 2.71051e-20 0.00781225 -7.73017e-05 -5.45803e-05 0.0027513
-0.237272 -2.71051e-20 0.00843742 -0.00210698 2.72275e-05 -0.0253899
0.237272 0 0.00843742 -5.64052e-05 -0.000119022 0.00324243
0.237 4.1359e-25 0.014375 5.33009e-11 -3.86084e-09 2.41488e-08
-0.237 4.1359e-25 0.014375 -1.36032e-10 -4.78391e-09 -2.6188e-07
0.237272 2.71051e-20 0.00906248 -3.40893e-05 -0.000184666 0.0036297
-0.237272 -2.71051e-20 0.00906248 -0.00187649 2.53669e-05 -0.030533
0.237426 0 0.00434749 -0.000690337 0.000237862 -0.000974133
0.237272 0 0.0096875 -1.50289e-05 -0.000245832 0.00391969
-0.237272 0 0.00968749 -0.00156788 2.39095e-05 -0.034891
-0.237433 0 0.00434764 -0.00169812 5.16258e-05 -0.00297432
-0.237 0 0.015 2.92375e-10 -5.25652e-09 -2.97103e-07
0.237 4.1359e-25 0.015 1.92442e-11 -3.52402e-09 2.14916e-08
-0.237272 2.71051e-20 0.0103125 -0.00123394 2.23433e-05 -0.0384862
0.237272 -2.71051e-20 0.0103125 1.33454e-06 -0.000302062 0.00412054
-0.237 0 0.015625 6.98846e-10 -5.45636e-09 -3.16502e-07
0.237 -4.1359e-25 0.015625 -8.29903e-12 -3.32412e-09 1.98582e-08
-0.23752 0 8.32931e-08 3.41248e-08 -2.40782e-09 1.38516e-08
0.237521 -2.06795e-25 8.48621e-08 8.36194e-12 -9.66729e-11 1.35108e-10
-0.237272 0 0.0109375 -0.000922237 2.03003e-05 -0.0413714
0.237272 0 0.0109375 1.20212e-05 -0.000350605 0.00424154
0.237525 0 0.00114972 0.000496708 -0.000593357 -0.000984713
-0.237529 2.87921e-21 0.000562809 0.0161582 7.39736e-05 0.010515
0.237529 1.57376e-21 0.000562807 0.000232732 -0.000289655 -0.000162169
-0.237533 0 0.00115011 0.0157407 9.49107e-05 0.0189029
0.237533 1.29247e-26 0.00115011 0.000503979 -0.000602044 -0.000999129
0.237538 5.61304e-21 0.00176909 0.000417961 -0.000528041 -0.00210174
-0.237538 -2.33606e-21 0.00176909 0.00918618 9.78859e-05 0.0238995
-0.237539 0 0.00214216 0.00500538 9.60573e-05 0.0237661
0.23754 0 0.0024097 6.4117e-05 -0.000288644 -0.00267425
-0.23754 0 0.0024097 0.00200712 9.4746e-05 0.0236704
-0.237524 -1.29247e-26 0.00370618 -0.00273955 7.11557e-05 0.00593568
-0.237272 -2.71051e-20 0.0115625 -0.000659541 1.83903e-05 -0.043622
0.237272 0 0.0115625 1.8789e-05 -0.00039181 0.00429364
-0.237 0 0.01625 1.06198e-09 -5.54892e-09 -3.28559e-07
0.237 0 0.01625 -3.14791e-11 -3.16467e-09 1.86167e-08
0.237541 -1.71359e-20 0.00305869 -0.000360918 -4.61959e-05 -0.00261305
-0.237541 -6.69644e-21 0.00305869 -0.0024136 8.61343e-05 0.0170443
-0.237486 0 0.0062472 -0.00342157 4.39984e-05 -0.0243034
0.237542 2.13249e-20 0.00370687 -0.000686027 0.000156182 -0.00207498
-0.237542 -2.84214e-23 0.00370687 -0.00283319 7.35883e-05 0.00613858
-0.237542 -6.46235e-27 0.0038992 -0.00262307 7.09526e-05 0.00318619
-0.237543 0 0.00434987 -0.00213071 6.47765e-05 -0.00373202
0.237543 2.58494e-26 0.00434987 -0.000880911 0.000303525 -0.00124305
-0.237272 -2.71051e-20 0.0121875 -0.000452768 1.65323e-05 -0.0453329
0.237272 0 0.0121875 2.09873e-05 -0.000424253 0.00428759
0.237543 -2.58494e-26 0.0045907 -0.000911533 0.000336243 -0.000876755
-0.237543 0 0.00498678 -0.00236719 5.98433e-05 -0.0117354
0.237543 0 0.00498678 -0.000961894 0.000390052 -0.000274341
-0.237 4.1359e-25 0.016875 1.45804e-09 -5.8977e-09 -3.54745e-07
0.237 4.1359e-25 0.016875 -4.91834e-11 -2.98182e-09 1.73603e-08
0.237544 -2.74417e-21 0.00561869 -0.000976098 0.000418267 0.000720086
-0.237544 5.16988e-26 0.00561869 -0.00316641 5.43134e-05 -0.0195922
-0.237272 0 0.0128125 -0.000292175 1.45735e-05 -0.0466178
0.237272 2.71051e-20 0.0128125 2.03301e-05 -0.000449029 0.00423549
0.237544 1.65924e-20 0.00624726 -0.000948729 0.000398324 0.00167971
-0.237544 0 0.00624726 -0.00383044 4.92555e-05 -0.0272076
-0.237544 1.29247e-26 0.0065926 -0.00389025 4.76494e-05 -0.0310868
0.237544 1.60719e-20 0.00687391 -0.000897222 0.000344997 0.0025675
-0.237544 0 0.00687391 -0.00393897 4.63411e-05 -0.0342469
-0.237 0 0.0175 1.8793e-09 -6.32718e-09 -3.84916e-07
0.237 0 0.0175 -6.46236e-11 -2.89746e-09 1.67736e-08
-0.237272 0 0.0134375 -0.000166444 1.25777e-05 -0.0475475
0.237272 5.42101e-20 0.0134375 1.65249e-05 -0.000465139 0.00414827
0.237544 2.77689e-20 0.00749961 -0.000830574 0.000267812 0.00336642
-0.237544 -5.16988e-26 0.00749961 -0.0036108 4.4943e-05 -0.0404678
0.237544 -8.29931e-21 0.00812487 -0.000754487 0.000176645 0.00406483
-0.237544 8.71125e-22 0.00812487 -0.0030527 4.40177e-05 -0.0458131
-0.237272 0 0.0140625 -6.58382e-05 1.05325e-05 -0.0481855
0.237272 -5.42101e-20 0.0140625 1.16672e-05 -0.000474536 0.00403581
-0.237 0 0.018125 2.21414e-09 -6.47615e-09 -3.96873e-07
0.237 0 0.018125 -8.21648e-11 -2.96886e-09 1.71547e-08
0.237544 -1.00194e-20 0.00874996 -0.000673854 7.9165e-05 0.00465861
-0.237544 9.90838e-21 0.00874996 -0.00239131 4.31236e-05 -0.0502866
-0.237272 0 0.0146875 1.42842e-05 8.46682e-06 -0.0485776
0.237272 0 0.0146875 6.11076e-06 -0.000477375 0.00390657
0.237544 -1.3397e-20 0.00937499 -0.000591832 -1.87152e-05 0.00514716
-0.237544 2.00914e-20 0.00937499 -0.00171578 4.223e-05 -0.0539346
-0.237402 0 0.0125 0.00047684 2.68894e-05 -0.0466108
-0.237 -8.27181e-25 0.01875 2.43248e-09 -6.35269e-09 -3.90703e-07
0.237 0 0.01875 -1.03707e-10 -3.20083e-09 1.8531e-08
0.237544 -9.58537e-21 0.01 -0.000512375 -0.000112307 0.00553557
-0.237544 1.0298e-20 0.01 -0.00108253 4.13608e-05 -0.0568378
-0.237272 0 0.0153125 8.01186e-05 6.37962e-06 -0.0487633
0.237272 -2.71051e-20 0.0153125 8.42523e-07 -0.000474999 0.00376824
0.237544 -1.75815e-20 0.010625 -0.000438224 -0.000198774 0.0058304
-0.237544 2.48461e-20 0.010625 -0.000523087 4.02855e-05 -0.0591023
-0.237 8.27181e-25 0.019375 2.44609e-09 -5.81397e-09 -3.57589e-07
0.237 0 0.019375 -1.30173e-10 -3.58707e-09 2.08794e-08
-0.237799 2.71051e-20 0.000284465 0.0213843 6.98333e-05 0.00634668
0.237799 0 0.000284553 2.65567e-05 -3.61133e-05 5.96723e-05
0.237272 2.71051e-20 0.0159375 -3.69034e-06 -0.000467488 0.00362724
-0.237272 2.71051e-20 0.0159375 0.000133758 4.29336e-06 -0.0487713
-0.237544 -1.05337e-20 0.01125 -5.07404e-05 3.90285e-05 -0.0608313
0.237544 -7.12358e-21 0.01125 -0.000371596 -0.000275814 0.00603872
-0.237811 -5.42101e-20 0.000863452 0.0260665 0.000102188 0.0116801
0.237811 0 0.000863452 0.000837356 -0.000756721 -0.000627249
0.23782 2.71051e-20 0.00147122 0.000899178 -0.00081253 -0.00225295
-0.23782 -5.42101e-20 0.00147122 0.0172312 0.000105545 0.0149252
-0.237826 -8.13152e-20 0.00210431 0.00653352 0.000103538 0.0150069
0.237826 0 0.00210431 0.000357535 -0.000465048 -0.00326038
-0.237544 1.41766e-20 0.011875 0.000334938 3.77346e-05 -0.0621056
0.237544 1.34177e-20 0.011875 -0.00031326 -0.000342035 0.00616935
0.237 0 0.02 -1.52373e-10 -3.84978e-09 2.25963e-08
-0.237 -4.1359e-25 0.02 2.17009e-09 -4.75921e-09 -2.9175e-07
-0.237829 0 0.00274869 -0.00299445 0.000102923 0.0136296
0.237829 0 0.00274869 -0.000496128 -8.73409e-05 -0.00331259
0.237272 -5.42101e-20 0.0165625 -7.80626e-06 -0.000456215 0.0034878
-0.237272 2.71051e-20 0.0165625 0.000179464 2.22142e-06 -0.0486268
-0.23783 -2.71051e-20 0.00339421 -0.00582692 8.90411e-05 0.00243447
0.23783 -2.71051e-20 0.00339421 -0.00115569 0.000236293 -0.00270245
0.237544 0 0.0121682 -0.000290041 -0.00036771 0.00619833
-0.237831 2.71051e-20 0.00403604 -0.00465369 7.08395e-05 -0.0140998
0.237831 0 0.00403604 -0.00158877 0.000490741 -0.00174119
0.237544 0 0.0125 -0.000263771 -0.000396758 0.00623112
-0.237544 -2.00903e-20 0.0125 0.000644493 3.63449e-05 -0.0629987
-0.237832 0 0.00467279 -0.00566073 6.70191e-05 -0.026956
0.237832 -2.71051e-20 0.00467279 -0.0017919 0.000659485 -0.000591099
-0.237833 0 0.00530504 -0.00671044 6.46738e-05 -0.0386138
0.237833 -2.71051e-20 0.00530504 -0.00185162 0.000746248 0.000582175
0.237272 0 0.0171875 -1.11979e-05 -0.000441881 0.0033526
-0.237272 0 0.0171875 0.000217401 1.81566e-07 -0.0483481
0.237 0 0.020625 -1.53874e-10 -3.63157e-09 2.15457e-08
-0.237 -4.1359e-25 0.020625 1.86126e-09 -3.80623e-09 -2.31817e-07
-0.237544 -6.46235e-27 0.0130436 0.000860921 3.50307e-05 -0.0634979
0.237544 0 0.013125 -0.000222738 -0.000439524 0.0062333
-0.237544 0 0.013125 0.000893319 3.48339e-05 -0.0635726
-0.237833 0 0.00593404 -0.0070476 6.23087e-05 -0.0482695
0.237833 2.71051e-20 0.00593404 -0.00183147 0.000752082 0.00174307
-0.237834 0 0.00656112 -0.00663031 6.09495e-05 -0.056199
0.237834 -5.42101e-20 0.00656112 -0.00175425 0.000707668 0.00283095
0.237272 -2.71051e-20 0.0178125 -1.39938e-05 -0.000425644 0.00322379
-0.237272 -8.13152e-20 0.0178125 0.000250947 -1.75006e-06 -0.0479526
0.237544 0 0.01375 -0.000190064 -0.000470512 0.00618581
-0.237544 -5.16988e-26 0.01375 0.00109563 3.32158e-05 -0.0638763
-0.237834 0 0.00718692 -0.0057237 6.05002e-05 -0.0626162
0.237834 5.42101e-20 0.00718692 -0.0016517 0.000621413 0.00384014
0.237 0 0.02125 -1.33636e-10 -2.99109e-09 1.79614e-08
-0.237 0 0.02125 1.76116e-09 -3.38542e-09 -2.0422e-07
0.237907 -1.29247e-26 0.00499071 -0.00208682 0.000730649 0.000199873
-0.237834 2.71051e-20 0.00781229 -0.00457836 6.03504e-05 -0.0676685
0.237834 -2.71051e-20 0.00781229 -0.00152265 0.000508633 0.00474975
0.237544 0 0.014375 -0.000164606 -0.000490651 0.00609843
-0.237544 1.03398e-25 0.014375 0.0012618 3.15045e-05 -0.0639499
-0.237834 -2.71051e-20 0.00843743 -0.0033746 6.03006e-05 -0.0715653
0.237834 2.71051e-20 0.00843743 -0.00138714 0.00038134 0.00555548
0.237272 5.42101e-20 0.0184375 -1.62697e-05 -0.000408115 0.00310235
-0.237272 -2.71051e-20 0.0184375 0.000279383 -3.58053e-06 -0.0474522
0.237 1.03398e-25 0.021692 0 0 0
-0.23799 0 0.00243355 -0.000935865 9.52252e-05 -0.00146748
-0.237904 6.46235e-27 0.00687421 -0.00531293 5.9475e-05 -0.0552383
-0.237834 0 0.00906248 -0.00222202 6.02257e-05 -0.0744889
0.237834 0 0.00906248 -0.00124116 0.000247603 0.00625231
-0.237 0 0.021875 1.74655e-09 -3.17812e-09 -1.89308e-07
0.237 0 0.021875 -5.36796e-11 -5.41643e-10 7.05376e-09
-0.237544 1.03398e-25 0.015 0.0014 2.97146e-05 -0.0638262
0.237544 -1.16724e-20 0.015 -0.000145598 -0.000500899 0.00597957
-0.237834 2.71051e-20 0.0096875 -0.0011965 6.0071e-05 -0.0766155
0.237834 0 0.0096875 -0.00109816 0.000115349 0.00683801
0.237272 2.71051e-20 0.0190625 -1.78109e-05 -0.000389849 0.00298903
-0.237272 5.42101e-20 0.0190625 0.000305751 -5.31092e-06 -0.0468589
-0.237544 1.03398e-25 0.015625 0.00151631 2.78477e-05 -0.0635315
0.237544 1.32307e-20 0.015625 -0.000131872 -0.000502093 0.00583728
-0.237834 0 0.0103125 -0.000319951 5.97966e-05 -0.0781084
0.237834 -2.71051e-20 0.0103125 -0.000956465 -1.06656e-05 0.00732044
-0.23806 0 2.8441e-10 7.80884e-08 -4.79538e-09 1.13303e-08
0.23806 0 -5.02801e-10 2.57767e-10 -1.89813e-10 9.28071e-11
-0.237 4.1359e-25 0.0225 1.59579e-09 -2.76458e-09 -1.62115e-07
0.237 -2.06795e-25 0.0225 -7.371e-11 -6.91676e-10 9.334e-09
-0.238083 4.1359e-25 0.000570196 0.0245868 8.63705e-05 0.00256012
0.238083 2.11515e-20 0.000570195 0.00068867 -0.000471121 -0.000307745
-0.237834 0 0.0109375 0.000404433 5.94072e-05 -0.0791568
0.237834 5.42101e-20 0.0109375 -0.000826348 -0.000127015 0.00770045
0.237272 -2.71051e-20 0.0196875 -1.88333e-05 -0.000371373 0.00288372
-0.237272 0 0.0196875 0.000328539 -6.97546e-06 -0.046181
-0.237544 2.06795e-25 0.01625 0.00161564 2.59192e-05 -0.0630876
0.237544 0 0.01625 -0.000122502 -0.00049515 0.00567975
-0.238097 -2.06795e-25 0.00116715 0.0197214 9.83739e-05 0.000147725
0.238097 1.00619e-20 0.00116715 0.00117868 -0.000865777 -0.00139714
-0.237834 -2.71051e-20 0.0115625 0.00100193 5.87472e-05 -0.0798573
0.237834 -2.71051e-20 0.0115625 -0.000705252 -0.000230277 0.00798517
-0.238109 0 0.00179591 0.00857094 9.79458e-05 -0.00367728
0.238109 5.16988e-26 0.00179591 0.00060889 -0.000661541 -0.00247975
0.237 2.06795e-25 0.023125 -7.34625e-11 -6.49483e-10 9.10965e-09
-0.237 2.06795e-25 0.023125 1.1266e-09 -1.86763e-09 -1.07519e-07
0.238117 0 0.00244027 -0.000524555 -0.000234911 -0.00275711
-0.238117 -3.85535e-20 0.00244027 -0.00176574 9.53602e-05 -0.00855597
-0.237768 -6.46235e-27 0.013125 0.00190385 4.66338e-05 -0.0705167
-0.238119 2.58494e-26 0.00283525 -0.00541572 9.09923e-05 -0.0132101
-0.237272 -2.71051e-20 0.0203125 0.000350595 -8.60716e-06 -0.045428
0.237272 2.71051e-20 0.0203125 -1.93895e-05 -0.000353023 0.00278643
0.23812 0 0.00308541 -0.0015697 0.000176783 -0.00233468
-0.23812 0 0.00308541 -0.0077275 8.82257e-05 -0.0161579
-0.237544 0 0.016875 0.0017014 2.39454e-05 -0.0625123
0.237544 -5.16988e-26 0.016875 -0.000116599 -0.000481612 0.0055133
-0.237 0 0.0233232 0 0 0
-0.237834 2.71051e-20 0.0121875 0.00148329 5.80216e-05 -0.0802662
0.237834 5.42101e-20 0.0121875 -0.000599966 -0.000319345 0.00818094
0.238121 -1.03398e-25 0.00372595 -0.0022377 0.000521171 -0.0015401
-0.238121 0 0.00372595 -0.00891907 7.67764e-05 -0.0277869
-0.238121 -3.23117e-27 0.00397633 -0.00880104 7.40789e-05 -0.0323555
0.238122 0 0.00436151 -0.00260858 0.000774566 -0.000564169
-0.238122 -1.29247e-26 0.00436151 -0.00861949 6.99292e-05 -0.0393837
0.238122 2.58494e-26 0.00499302 -0.00274992 0.00093142 0.000479406
-0.238122 0 0.00499302 -0.00854536 6.85069e-05 -0.048957
-0.237834 -2.71051e-20 0.0128125 0.00187747 5.70259e-05 -0.0804117
0.237834 -2.71051e-20 0.0128125 -0.000507023 -0.00039292 0.00829378
0.238123 5.70952e-21 0.00562167 -0.00275936 0.000997298 0.00151591
-0.237 0 0.02375 2.57802e-09 3.92199e-09 -2.32385e-07
0.237 0 0.02375 -6.13061e-11 -5.16626e-10 7.54541e-09
-0.237544 0 0.0175 0.00177647 2.19548e-05 -0.0618203
0.237544 0 0.0175 -0.00011379 -0.000463035 0.00534247
-0.238123 -2.58494e-26 0.00562167 -0.00818178 6.77497e-05 -0.0569363
0.238123 8.07794e-28 0.00564417 -0.00275928 0.000997885 0.00155285
-0.237272 0 0.0209375 0.000369886 -1.02693e-05 -0.044606
0.237272 0 0.0209375 -1.93119e-05 -0.000335019 0.00269644
0.238123 7.44863e-21 0.00624853 -0.00269024 0.000991895 0.00251497
-0.238123 0 0.00624853 -0.00735988 6.7376e-05 -0.0631886
-0.238092 0 0.00749976 -0.00467868 6.66046e-05 -0.0701072
-0.237834 0 0.0134375 0.00219621 5.59501e-05 -0.0803274
0.237834 -2.71051e-20 0.0134375 -0.000429762 -0.000450356 0.00833167
0.238124 2.28466e-20 0.0068744 -0.00256964 0.000932319 0.00344915
-0.238124 0 0.0068744 -0.00615229 6.74986e-05 -0.0680621
-0.237544 0 0.018125 0.00184282 1.99838e-05 -0.0610241
0.237544 1.03398e-25 0.018125 -0.000113258 -0.000440866 0.0051714
0.238124 -1.34611e-20 0.00749977 -0.00241661 0.000833575 0.00431048
-0.238124 0 0.00749977 -0.00474033 6.78551e-05 -0.0718182
-0.238124 -1.61559e-27 0.00771005 -0.00425298 6.79822e-05 -0.0727872
-0.237834 -2.71051e-20 0.0140625 0.00246369 5.46091e-05 -0.0800408
0.237834 -2.71051e-20 0.0140625 -0.000366285 -0.00049204 0.00830541
-0.237272 -5.42101e-20 0.0215625 0.000389308 -1.20004e-05 -0.0437226
0.237272 5.42101e-20 0.0215625 -1.96076e-05 -0.00031843 0.00261367
-0.237 0 0.024375 3.26906e-09 4.78523e-09 -2.78144e-07
0.237 0 0.024375 -5.14197e-11 -4.17345e-10 6.32447e-09
0.238124 3.04806e-21 0.00812492 -0.00224338 0.000710629 0.00508862
-0.238124 0 0.00812492 -0.00329147 6.82328e-05 -0.074699
-0.238255 -2.58494e-26 0.00308857 -0.00867445 8.56214e-05 -0.0239523
-0.237544 2.06795e-25 0.01875 0.00190236 1.80303e-05 -0.0601341
0.237544 -1.03398e-25 0.01875 -0.000114157 -0.00041629 0.0050036
0.238124 1.59473e-20 0.00874998 -0.00206123 0.000575841 0.00577958
-0.238124 -2.00575e-20 0.00874998 -0.00191991 6.85355e-05 -0.0768937
0.237834 -2.71051e-20 0.0146875 -0.000316372 -0.000519201 0.00822509
-0.237834 2.71051e-20 0.0146875 0.00268298 5.32286e-05 -0.0795754
-0.238259 0 0.00372833 -0.00989003 7.59216e-05 -0.0346516
-0.237272 0 0.0221875 0.00040616 -1.37702e-05 -0.042782
0.237272 2.71051e-20 0.0221875 -1.97912e-05 -0.000302527 0.0025372
0.238124 3.70334e-20 0.00937499 -0.00187434 0.000438418 0.00637933
-0.238124 6.07834e-21 0.00937499 -0.000692096 6.87091e-05 -0.0785453
-0.237 -8.27181e-25 0.025 3.66962e-09 5.18019e-09 -2.94216e-07
0.237 2.06795e-25 0.025 -4.50994e-11 -3.55486e-10 5.57655e-09
0.237834 -2.71051e-20 0.0153125 -0.000278522 -0.000532939 0.00809809
-0.237834 0 0.0153125 0.00287298 5.16134e-05 -0.0789524
0.237544 0 0.019375 -0.000115688 -0.000390039 0.00484158
-0.237544 0 0.019375 0.00195613 1.6088e-05 -0.059159
0.238124 1.42367e-20 0.01 -0.00168919 0.00030467 0.00688952
-0.238124 -8.42253e-21 0.01 0.000363209 6.87136e-05 -0.0797654
-0.238124 -7.49389e-21 0.010625 0.00124866 6.85215e-05 -0.0806351
0.238124 2.94791e-20 0.010625 -0.00150903 0.000179139 0.00731258
0.238362 2.71051e-20 0.000287929 0.000259203 -0.000142564 5.93266e-05
-0.238362 2.71051e-20 0.000287929 0.0270554 8.05634e-05 0.000678232
-0.237272 2.71051e-20 0.0228125 0.000423563 -1.55383e-05 -0.0417905
0.237272 0 0.0228125 -2.00204e-05 -0.000288204 0.00246623
0.237834 0 0.0159375 -0.000250972 -0.000534094 0.00793519
-0.237834 0 0.0159375 0.00303083 4.99433e-05 -0.0781886
-0.237 -8.27181e-25 0.025625 4.10016e-09 5.60312e-09 -3.09965e-07
0.237 0 0.025625 -4.40647e-11 -3.39671e-10 5.50613e-09
0.237544 0 0.02 -0.00011751 -0.000363007 0.00468688
-0.237544 0 0.02 0.00200513 1.41247e-05 -0.0581068
-0.238124 2.36637e-20 0.01125 0.00198348 6.80908e-05 -0.0812132
0.238124 -1.56397e-20 0.01125 -0.0013396 6.52485e-05 0.00765227
-0.238389 -2.71051e-20 0.000874094 0.0237752 9.31536e-05 -0.00897832
0.238389 2.71051e-20 0.000874094 0.00167673 -0.000972011 -0.000743074
0.237834 -2.71051e-20 0.0165625 -0.000231885 -0.00052404 0.00774775
-0.237834 2.71051e-20 0.0165625 0.0031728 4.80631e-05 -0.0772995
0.238408 2.71051e-20 0.00148916 0.00130705 -0.000924406 -0.00198815
-0.238408 0 0.00148916 0.0114365 9.22936e-05 -0.0179379
-0.238124 1.15681e-20 0.011875 0.00259083 6.74155e-05 -0.0815378
0.238124 -7.7227e-21 0.011875 -0.00118235 -3.48231e-05 0.00791258
-0.237272 -2.71051e-20 0.0234375 0.000438466 -1.70106e-05 -0.0407506
0.237272 2.71051e-20 0.0234375 -1.95012e-05 -0.000274111 0.00240044
0.238422 0 0.00212682 -0.000151836 -0.000439813 -0.00240029
-0.238422 0 0.00212682 -0.00119103 9.00768e-05 -0.0277663
0.238124 6.46235e-27 0.012136 -0.00112299 -7.03257e-05 0.00799034
0.237544 0 0.020625 -0.000119224 -0.000335727 0.00454024
-0.237544 -5.16988e-26 0.020625 0.00204975 1.20729e-05 -0.0569843
0.238429 2.71051e-20 0.00277088 -0.00183265 5.40605e-05 -0.00202883
-0.238429 0 0.00277088 -0.00949151 8.45324e-05 -0.0360686
-0.237 0 0.02625 4.61727e-09 6.12719e-09 -3.29103e-07
0.237 0 0.02625 -4.56949e-11 -3.48436e-10 5.80023e-09
-0.238124 -2.60663e-20 0.0125 0.00309122 6.64868e-05 -0.0816335
0.238124 0 0.0125 -0.00104018 -0.00011985 0.00809881
0.237834 0 0.0171875 -0.000219494 -0.000505525 0.00754294
-0.237834 -2.71051e-20 0.0171875 0.00329188 4.6163e-05 -0.0762969
-0.238431 -2.71051e-20 0.0034119 -0.0126937 7.62943e-05 -0.045382
0.238431 0 0.0034119 -0.00281759 0.000505835 -0.00127507
0.237453 0 0.021875 -0.000101949 -0.000237244 0.00355613
-0.238431 2.71051e-20 0.00404796 -0.0126473 7.10298e-05 -0.0547052
0.238431 0 0.00404796 -0.00341646 0.000855654 -0.000426237
-0.238431 0 0.00467997 -0.0116248 7.08947e-05 -0.0623379
0.238431 -2.71051e-20 0.00467997 -0.00366793 0.00109851 0.000515487
0.238124 -5.16988e-26 0.013125 -0.000913077 -0.000189106 0.00821612
-0.238124 -3.19934e-20 0.013125 0.00350517 6.53324e-05 -0.0815206
-0.237272 -2.71051e-20 0.0240625 0.000454338 -1.82716e-05 -0.0396676
0.237272 5.42101e-20 0.0240625 -1.89457e-05 -0.000261724 0.00233958
0.238432 0 0.00530874 -0.00372331 0.0012299 0.001425
-0.238432 -2.71051e-20 0.00530874 -0.0102677 7.15547e-05 -0.068486
0.237544 0 0.02125 -0.00012084 -0.000309482 0.00440205
-0.237544 0 0.02125 0.00209066 9.8731e-06 -0.0557978
0.237834 0 0.0178125 -0.000214238 -0.000480179 0.00732699
-0.237834 5.42101e-20 0.0178125 0.00340307 4.40729e-05 -0.0751926
0.238432 -2.71051e-20 0.00593583 -0.00367568 0.0012736 0.00232873
-0.238432 0 0.00593583 -0.0087483 7.26297e-05 -0.0728608
-0.238124 0 0.0135349 0.00373131 6.4428e-05 -0.0813236
-0.237 0 0.026875 4.95956e-09 6.4108e-09 -3.33284e-07
0.237 0 0.026875 -4.71137e-11 -3.58092e-10 6.12138e-09
0.238124 0 0.01375 -0.000803031 -0.000242553 0.00827115
-0.238124 0 0.01375 0.00384998 6.39535e-05 -0.0812202
0.238432 0 0.00656171 -0.00353564 0.0012448 0.00316527
-0.238432 -2.71051e-20 0.00656171 -0.00703405 7.38498e-05 -0.0758562
0.238432 0 0.00718722 -0.00337008 0.00116566 0.00396417
-0.238432 5.42101e-20 0.00718722 -0.0052203 7.49549e-05 -0.0779043
0.237834 0 0.0184375 -0.000212182 -0.000450418 0.00710719
-0.237834 0 0.0184375 0.00349662 4.20379e-05 -0.0739952
-0.237544 0 0.021875 0.00212814 7.49007e-06 -0.0545527
0.237544 -1.9683e-20 0.021875 -0.000122485 -0.000285033 0.00427245
-0.237272 -2.71051e-20 0.0246875 0.000467703 -1.93386e-05 -0.0385437
0.237272 2.71051e-20 0.0246875 -1.83185e-05 -0.000249967 0.00228239
0.238124 5.16988e-26 0.014375 -0.000709208 -0.000281141 0.00827086
-0.238124 2.58494e-26 0.014375 0.00414007 6.23838e-05 -0.0807509
-0.238432 2.71051e-20 0.00781239 -0.0034231 7.5905e-05 -0.0793431
0.238432 5.42101e-20 0.00781239 -0.00315431 0.00104907 0.00468831
-0.237456 2.58494e-26 0.023125 0.00184133 2.54202e-06 -0.0435252
0.238432 0 0.00843746 -0.00294028 0.000913873 0.00535839
-0.238432 2.71051e-20 0.00843746 -0.00176306 7.66851e-05 -0.0804179
-0.237 -8.27181e-25 0.0275 4.98519e-09 6.29573e-09 -3.15808e-07
0.237 0 0.0275 -4.8277e-11 -3.63619e-10 6.39031e-09
-0.238124 0 0.015 0.00438653 6.06495e-05 -0.0801301
0.238124 0 0.015 -0.000631176 -0.000305784 0.0082226
0.237544 6.46235e-27 0.0223821 -0.000123661 -0.000266493 0.00417409
0.237834 -2.71051e-20 0.0190625 -0.000213981 -0.00041742 0.00688867
-0.237834 2.71051e-20 0.0190625 0.0035876 3.98129e-05 -0.0727133
-0.238432 2.71051e-20 0.00906249 -0.000285566 7.72551e-05 -0.0812544
0.238433 0 0.00906249 -0.00270564 0.000770801 0.00594726
-0.237544 4.02545e-21 0.0225 0.00216312 5.14737e-06 -0.0532541
0.237544 0 0.0225 -0.000123934 -0.000262184 0.00415124
-0.237272 -2.71051e-20 0.0253125 0.000482104 -2.02484e-05 -0.037384
0.237272 2.71051e-20 0.0253125 -1.77261e-05 -0.000239696 0.00222819
-0.237544 1.29247e-26 0.0227211 0.00217472 4.39901e-06 -0.0527773
-0.238432 -2.71051e-20 0.0096875 0.000975608 7.76203e-05 -0.0819397
0.238432 2.71051e-20 0.0096875 -0.00248003 0.000629998 0.00647325
0.238631 -4.1359e-25 4.63152e-09 2.56554e-09 -1.59088e-09 4.66171e-10
-0.238631 0 1.52166e-09 1.24285e-08 -9.53354e-10 -1.53316e-09
-0.238124 -5.16988e-26 0.015625 0.00459821 5.87221e-05 -0.0793728
0.238124 1.5785e-20 0.015625 -0.000567668 -0.000317574 0.00813327
0.237834 2.71051e-20 0.0196875 -0.00021575 -0.000381863 0.00667579
-0.237834 2.71051e-20 0.0196875 0.00366363 3.76535e-05 -0.0713534
-0.238432 0 0.0103125 0.00203768 7.77104e-05 -0.0824923
0.238433 0 0.0103125 -0.00224807 0.0004939 0.00691891
-0.237 0 0.028125 4.59509e-09 5.68887e-09 -2.74463e-07
0.237 0 0.028125 -4.86656e-11 -3.64102e-10 6.56816e-09
-0.237544 -1.31301e-20 0.023125 0.0021959 3.03227e-06 -0.0519064
0.237544 3.25132e-21 0.023125 -0.000124823 -0.000241034 0.0040381
-0.238672 -8.27181e-25 0.00057569 0.020792 8.31091e-05 -0.00986526
0.238672 -1.40724e-20 0.000575687 0.00107057 -0.000567372 -0.000251698
-0.238124 5.16988e-26 0.01625 0.0047822 5.66165e-05 -0.0784925
0.238124 0 0.01625 -0.000517468 -0.000317505 0.00801141
0.237544 -1.29247e-26 0.023246 -0.000124863 -0.000237224 0.00401768
0.237497 0 0.02375 -0.000114313 -0.000202387 0.00359555
-0.238433 0 0.0109375 0.0029198 7.75206e-05 -0.0828613
0.238433 -2.71051e-20 0.0109375 -0.00202946 0.000370069 0.00730273
-0.237272 -2.71051e-20 0.0259375 0.000493892 -2.10864e-05 -0.0361907
0.237272 2.71051e-20 0.0259375 -1.71873e-05 -0.00023009 0.00217636
0.23744 0 0.024375 -0.000100899 -0.000164332 0.00309801
-0.237834 2.71051e-20 0.0203125 0.00373974 3.52444e-05 -0.0699227
0.237834 0 0.0203125 -0.00021973 -0.000345799 0.00647048
-0.238565 1.61559e-27 0.00812496 -0.00186393 7.71995e-05 -0.0778311
0.238622 0 0.00624927 -0.00405351 0.00131528 0.00273047
-0.238701 4.1359e-25 0.00117836 0.0133103 8.73953e-05 -0.0232092
0.238701 -1.31444e-21 0.00117836 0.0015122 -0.000970899 -0.00101007
-0.238432 -2.71051e-20 0.0115625 0.003658 7.70406e-05 -0.0830444
0.238433 -2.71051e-20 0.0115625 -0.00181984 0.000257787 0.00761323
-0.238124 0 0.016875 0.00494379 5.43363e-05 -0.0775007
0.238124 1.29247e-26 0.016875 -0.000478794 -0.000307483 0.00786395
0.237415 0 0.025 -9.4851e-05 -0.000142923 0.00285591
-0.237544 -2.47141e-21 0.02375 0.00222689 1.08857e-06 -0.0505136
0.237544 2.58494e-26 0.02375 -0.000125031 -0.000221362 0.00393265
-0.238723 0 0.00181179 0.0022257 8.45436e-05 -0.0348481
0.238723 -1.29247e-26 0.00181179 0.000265684 -0.00071829 -0.00156892
-0.237 4.1359e-25 0.02875 4.14876e-09 5.05113e-09 -2.33593e-07
0.237 2.06795e-25 0.02875 -4.70023e-11 -3.53647e-10 6.51473e-09
-0.238432 -2.71051e-20 0.0121875 0.004273 7.62055e-05 -0.0830413
0.238432 2.71051e-20 0.0121875 -0.00162514 0.000161959 0.00786428
-0.238737 0 0.00245721 -0.00699521 8.0815e-05 -0.0443992
0.238737 0 0.00245721 -0.0016088 -0.000227022 -0.00148202
-0.237834 -2.71051e-20 0.0209375 0.00380167 3.27249e-05 -0.0684261
0.237834 -2.71051e-20 0.0209375 -0.000222181 -0.000308758 0.00627456
-0.237272 0 0.0265625 0.000507194 -2.1876e-05 -0.0349684
0.237272 -2.71051e-20 0.0265625 -1.67537e-05 -0.000222005 0.00212617
-0.238742 5.16988e-26 0.00309995 -0.0120827 7.62479e-05 -0.0520062
0.238742 0 0.00309995 -0.00308994 0.000281868 -0.000945259
-0.238124 1.03398e-25 0.0175 0.00508728 5.18992e-05 -0.0764077
0.238124 -1.29247e-26 0.0175 -0.000451022 -0.000289498 0.00769686
0.238742 0 0.00373666 -0.00391379 0.000723328 -0.000245687
-0.238742 0 0.00373666 -0.0132927 7.29261e-05 -0.0587079