# UMean  POINT_DATA 13056
# x  y  z  UMean_x  UMean_y  UMean_z
-1.93744e-27 -0.01 1.38404e-07 9.54391e-17 -3.85048e-19 1.72093e-18
0 0.01 8.31199e-08 6.83653e-17 2.55415e-19 1.53019e-18
0 0.01 0.00067832 5.89369e-11 -1.23372e-13 -1.22691e-13
0 -0.01 0.00067832 5.90598e-11 1.63203e-13 -1.63512e-13
3.10193e-25 0.0100155 0.000677146 1.41739e-05 -9.59967e-08 -1.42376e-08
2.58494e-26 -0.0100173 0.000677006 1.60453e-05 1.17474e-07 -2.62346e-08
0 0.01 0.00137372 1.43441e-09 -3.44987e-12 -3.67357e-12
2.06795e-25 -0.01 0.00137372 1.49294e-09 4.6902e-12 -4.55882e-12
1.03398e-24 0.0100736 0.00135825 0.00014764 -1.18085e-06 -3.78616e-07
0 -0.010074 0.00135817 0.000149777 1.3023e-06 -4.61612e-07
1.57772e-30 -0.01 0.002087 1.16491e-14 7.36071e-17 -5.12036e-17
7.88861e-31 0.01 0.002087 9.86357e-11 -8.49137e-13 -3.9784e-13
0 -0.0102613 0.000329046 1.19732e-05 -3.14853e-08 2.12226e-07
0 0.0102613 0.000329046 1.03931e-05 3.6802e-08 2.20737e-07
5.42101e-20 0.0102561 0.000988366 0.000596589 -1.30079e-06 -1.42451e-06
0 -0.0102561 0.000988366 0.000604374 1.67288e-06 -1.86257e-06
0 0.0102356 0.00161953 0.000571359 -1.51936e-06 -1.45994e-06
0 -0.0102356 0.00161953 0.000578459 1.94262e-06 -1.67273e-06
2.06795e-25 0.0105293 8.68458e-08 2.71338e-11 3.10421e-13 5.95996e-13
2.06795e-25 -0.0105293 8.80408e-08 2.22314e-11 -2.97716e-13 4.02875e-13
-2.06795e-25 -0.0105286 0.000176899 0.000135195 9.89822e-07 -2.21049e-07
-3.39558e-21 0.0105268 0.000638363 0.000482643 -3.26883e-06 -4.84811e-07
-1.3378e-20 -0.0105268 0.000638363 0.00048804 3.57314e-06 -7.97963e-07
-8.27181e-25 0.0105159 0.00126532 0.00103482 -8.27662e-06 -2.65373e-06
-2.02907e-21 -0.0105159 0.0012653 0.00104435 9.08055e-06 -3.21868e-06
2.02924e-20 0.0105028 0.0017228 0.000945246 -8.13763e-06 -3.81258e-06
-9.24126e-21 -0.0105028 0.0017228 0.000954215 8.98548e-06 -4.23278e-06
-2.71051e-20 0.010496 0.00202291 0.00068766 -5.69033e-06 -3.69198e-06
0 -0.010496 0.00202291 0.000695905 6.37414e-06 -3.9714e-06
0 0.0104977 0.00235078 4.00432e-08 -4.45017e-10 -2.4291e-10
0 -0.0104977 0.00235077 3.90899e-08 4.58998e-10 -2.41508e-10
0 -0.0108033 0.000314595 7.41787e-06 -2.35567e-07 1.42691e-07
-2.71051e-20 0.0108033 0.000314595 6.53926e-06 1.74179e-07 1.57153e-07
2.71051e-20 0.0108031 0.00093799 0.0013098 -1.17882e-05 -9.23668e-07
-2.71051e-20 -0.0108031 0.00093799 0.00132115 1.26828e-05 -1.71347e-06
2.71051e-20 -0.01079 0.00152732 0.001647 1.95652e-05 -7.3367e-06
2.71051e-20 0.01079 0.00152732 0.00163518 -1.80724e-05 -6.53603e-06
0 0.0110754 7.74069e-09 5.37161e-11 1.27137e-12 9.88701e-13
0 -0.0110754 5.27285e-09 1.14115e-11 -3.37533e-13 1.68136e-13
0 -0.0110772 7.95759e-05 0.00010312 1.33935e-06 -9.46236e-08
0 0.0110889 0.000613667 0.000789888 -9.75675e-06 -2.05196e-07
-1.93924e-20 -0.0110889 0.000613667 0.000795266 1.03291e-05 -7.29742e-07
-5.42101e-20 0.0108991 0.00228385 0.000900047 -1.18124e-05 -5.82314e-06
2.71051e-20 -0.0108991 0.00228385 0.000907003 1.29654e-05 -6.05342e-06
2.72606e-20 -0.010988 0.00190081 0.00160243 2.52915e-05 -7.51274e-06
3.30872e-24 0.010988 0.00190078 0.00159337 -2.36419e-05 -6.93376e-06
2.70323e-21 -0.0110831 0.00123266 0.00185612 2.72076e-05 -5.24361e-06
0 0.0110831 0.00123268 0.00184534 -2.55896e-05 -4.24939e-06
1.03398e-25 -0.0112621 3.77028e-09 0 0 0
-6.61744e-24 0.0109863 0.00260985 7.02836e-08 -9.95524e-10 -4.62543e-10
0 -0.0109863 0.00260985 7.1614e-08 1.05221e-09 -4.66227e-10
5.42101e-20 0.0113733 0.000305239 9.76439e-06 2.32962e-07 1.33527e-07
0 -0.0113733 0.000305239 9.57132e-06 -2.93335e-07 9.78836e-08
0 -0.0113913 0.000918847 0.0018769 2.96006e-05 -1.48466e-06
-2.71051e-20 0.0113913 0.000918847 0.00186719 -2.8057e-05 -2.05002e-07
1.58819e-20 0.0112123 0.00231934 0.00135803 -2.17188e-05 -7.10019e-06
-1.34797e-20 -0.0112123 0.00231934 0.00136492 2.3253e-05 -7.37527e-06
2.71051e-20 -0.0113682 0.00155884 0.00260767 4.78208e-05 -1.04922e-05
0 0.0113682 0.00155884 0.00259749 -4.52471e-05 -9.3688e-06
0 -0.0114039 0.00209577 0.00223825 4.17381e-05 -9.85429e-06
0 0.0114039 0.00209577 0.00223007 -3.9329e-05 -9.3492e-06
0 -0.0113392 0.00255892 0.000950241 1.50304e-05 -6.21869e-06
2.71051e-20 0.0113392 0.00255892 0.000944646 -1.39842e-05 -6.12347e-06
0 -0.0116471 3.55939e-09 2.88413e-11 -1.14063e-12 -8.25877e-14
0 0.0116471 3.19951e-09 2.46607e-11 8.48246e-13 1.76956e-13
-1.00354e-20 -0.0116865 0.000598051 0.00106295 2.0251e-05 -5.41887e-07
-8.27181e-25 0.0116865 0.000598049 0.00105951 -1.94796e-05 1.79643e-07
-2.19368e-21 -0.0117045 0.00122297 0.00264928 5.6298e-05 -4.34941e-06
0 0.0117045 0.00122299 0.00264154 -5.40183e-05 -3.05249e-06
-6.61744e-24 0.0114599 0.00285977 1.02422e-07 -1.7779e-09 -6.90539e-10
-6.61744e-24 -0.0114598 0.00285975 1.04002e-07 1.83412e-09 -6.65221e-10
3.88775e-21 -0.0117133 0.00184588 0.00301018 6.53837e-05 -6.96915e-06
0 0.0117133 0.00184592 0.0030028 -6.23826e-05 -6.26303e-06
3.13137e-20 -0.0116596 0.00239949 0.00204358 4.08061e-05 -7.22149e-06
0 0.0116596 0.00239948 0.00203705 -3.86648e-05 -7.15125e-06
-2.71051e-20 0.0119676 0.000293859 1.16661e-05 4.76718e-07 -3.47368e-08
5.42101e-20 -0.0119676 0.000293859 1.03574e-05 -4.41181e-07 -1.4496e-07
2.71051e-20 -0.0120131 0.000895955 0.00241462 5.33685e-05 -6.57354e-07
-2.71051e-20 0.0120131 0.000895955 0.00240882 -5.176e-05 8.38591e-07
0 -0.0120433 0.00152444 0.00371789 9.48387e-05 -5.05391e-06
-2.71051e-20 0.0120433 0.00152444 0.00371259 -9.14137e-05 -3.77151e-06
0 0.0118604 0.00273056 0.00159398 -2.93678e-05 -1.06215e-05
0 -0.0118604 0.00273056 0.00160061 3.09919e-05 -1.03702e-05
0 0.0120387 0.00217273 0.00355638 -7.61741e-05 -2.19391e-06
2.71051e-20 -0.0120387 0.00217273 0.00356211 7.98383e-05 -2.11968e-06
-8.27181e-25 -0.0122418 4.68912e-09 9.29875e-11 -6.3987e-12 -7.06818e-12
0 0.0122418 1.66918e-09 3.71216e-11 2.72675e-12 -2.15085e-12
-6.61744e-24 0.0119119 0.00310459 1.11821e-07 -1.80285e-09 -4.20964e-10
-6.61744e-24 -0.0119119 0.00310459 1.1319e-07 1.8364e-09 -3.81121e-10
2.12569e-20 -0.0123043 0.000568948 0.00131013 3.30118e-05 1.50845e-06
-1.03398e-25 0.0123043 0.000568944 0.00130884 -3.22523e-05 2.34437e-06
1.03398e-25 0.0123971 0.000559198 0.00132942 -3.49806e-05 3.83224e-06
9.03612e-21 -0.01236 0.00118123 0.00349111 9.7715e-05 4.75489e-06
0 0.01236 0.00118124 0.00348831 -9.50325e-05 6.03793e-06
4.1359e-25 0.0124373 1.54461e-10 0 0 0
2.13313e-20 -0.0123814 0.00184432 0.00441637 0.000117469 8.70059e-06
0 0.0123814 0.00184434 0.00441364 -0.000113464 8.94225e-06
0 -0.0125711 0.000269457 8.95025e-06 -8.83367e-07 -1.28971e-06
0 0.0125711 0.000269458 9.08743e-06 9.81041e-07 -1.21053e-06
-8.66554e-21 -0.0123374 0.00258488 0.00324813 6.59823e-05 6.91864e-06
-2.46434e-20 0.0123374 0.00258488 0.00324432 -6.34523e-05 6.26788e-06
2.71051e-20 0.0122817 0.00299995 0.00172255 -2.30671e-05 -1.54214e-06
2.71051e-20 -0.0122817 0.00299995 0.00172707 2.42397e-05 -1.08303e-06
0 -0.0126475 0.000839062 0.0028855 8.20429e-05 8.28433e-06
-2.71051e-20 0.0126475 0.000839063 0.00288459 -8.07063e-05 9.98853e-06
0 0.0123472 0.00333734 7.58548e-08 -8.19418e-10 4.76791e-11
0 -0.0123472 0.00333734 7.65113e-08 8.0563e-10 7.72602e-11
2.71051e-20 0.0127108 0.0014705 0.00496734 -0.000156712 1.69153e-05
0 -0.0127108 0.0014705 0.00496658 0.00016111 1.62724e-05
0 0.0127518 0.00112259 0.00394802 -0.000127779 2.05738e-05
1.65436e-24 -0.0128491 7.71817e-09 1.55956e-10 2.08936e-11 -6.26255e-11
4.1359e-25 0.0128491 2.48242e-09 6.61915e-11 -7.06159e-12 -2.59236e-11
2.71051e-20 0.0127172 0.00217074 0.0054369 -0.000131154 2.51103e-05
2.71051e-20 -0.0127172 0.00217074 0.00543745 0.0001357 2.5985e-05
1.3852e-20 -0.0129129 0.000505056 0.00144287 5.11796e-05 1.14721e-05
0 0.0129129 0.000505055 0.00144378 -5.01408e-05 1.20998e-05
-1.97365e-20 -0.0125922 0.00303079 0.00253826 3.51684e-05 9.14244e-06
-3.70742e-21 0.0125922 0.00303079 0.00253517 -3.40617e-05 8.28241e-06
-4.94985e-21 -0.0130203 0.00108239 0.00425997 0.00015424 3.01623e-05
-1.23304e-20 0.0130203 0.0010824 0.00426307 -0.00015022 3.05351e-05
-5.42101e-20 -0.012793 0.00278388 0.00429314 7.05093e-05 2.46334e-05
2.71051e-20 0.012793 0.00278388 0.00429184 -6.85065e-05 2.30063e-05
-2.71051e-20 -0.0127108 0.00327268 0.00167287 1.26883e-05 4.36701e-06
2.71051e-20 0.0127108 0.00327268 0.00166946 -1.24719e-05 3.84195e-06
0 -0.0131383 0.000218118 8.19535e-06 2.69424e-06 -5.72105e-06
2.71051e-20 0.0131383 0.000218118 8.45737e-06 -2.60206e-06 -5.89174e-06
0 0.0130692 0.00171594 0.00601558 -0.00018582 4.15895e-05
-1.88821e-20 -0.013073 0.00176509 0.00614723 0.000194508 4.40525e-05
0 0.013073 0.0017651 0.00615155 -0.000188582 4.24472e-05
2.58494e-26 0.0130931 0.00176192 0.00620962 -0.000191349 4.34126e-05
0 0.0127674 0.00356123 3.75804e-08 -1.08727e-10 1.9427e-10
0 -0.0127674 0.00356123 3.7619e-08 7.69598e-11 2.14077e-10
0 0.0132689 0.000719695 0.00301668 -0.000122715 4.69762e-05
-2.71051e-20 -0.0132689 0.000719694 0.0030125 0.000125427 4.59941e-05
0 -0.0130872 0.00246808 0.00608706 0.000134689 5.20434e-05
-4.1359e-25 0.0130872 0.00246808 0.00609011 -0.000130748 4.92587e-05
1.43499e-20 -0.0133747 0.000406315 0.00117384 5.48997e-05 1.36655e-05
1.524e-20 0.0133747 0.000406311 0.00117573 -5.47921e-05 1.37539e-05
3.30872e-24 -0.0134599 1.1061e-08 8.96273e-09 6.55022e-10 -2.10674e-11
0 0.0134599 2.11019e-13 6.51145e-09 -4.95154e-10 -3.13199e-11
1.27287e-20 -0.0130916 0.00314268 0.00380725 3.89329e-05 3.53075e-05
0 0.0130916 0.00314268 0.00380719 -3.84313e-05 3.29484e-05
-2.71051e-20 -0.0134186 0.00131377 0.00628321 0.000251338 4.93976e-05
0 0.0134186 0.00131377 0.00629151 -0.000243578 4.75228e-05
0 0.0133031 0.00245086 0.00703493 -0.000157475 6.30013e-05
2.71051e-20 0.013075 0.00349045 0.00185531 3.48486e-06 1.43675e-05
-5.42101e-20 -0.013075 0.00349045 0.0018572 -4.29011e-06 1.56994e-05
-5.42101e-20 -0.0134232 0.00207248 0.00784735 0.000231623 8.34289e-05
2.71051e-20 0.0134232 0.00207248 0.00785615 -0.000224518 7.9154e-05
0 0.0131963 0.00330884 0.00340298 -2.16724e-05 3.27377e-05
2.06795e-25 -0.0132124 0.00333436 0.00334125 1.87925e-05 3.51393e-05
0 0.0132965 0.0031224 0.00494274 -5.18546e-05 4.92408e-05
2.71051e-20 -0.0136984 0.000300344 0.000545669 3.87725e-05 1.44126e-06
0 0.0136984 0.000300344 0.000546954 -4.12946e-05 8.9746e-07
0 0.013418 0.00277569 0.00697403 -0.000109502 7.25559e-05
5.42101e-20 -0.013418 0.00277569 0.0069682 0.000111987 7.70292e-05
-2.06795e-25 0.0131762 0.0037788 5.29685e-09 2.77209e-11 5.70401e-11
0 -0.0131762 0.0037788 4.8949e-09 -3.19833e-11 5.64315e-11
3.10193e-25 -0.0132273 0.00369735 0.000930304 -4.8151e-07 1.13273e-05
2.06795e-25 0.0132292 0.00369443 0.000963443 1.2319e-07 1.08915e-05
0 -0.0133968 0.00311247 0.00549533 5.87899e-05 6.17107e-05
2.74459e-20 -0.0137612 0.00078614 0.00392336 0.000176998 3.94966e-05
4.44361e-21 0.0137612 0.000786141 0.0039275 -0.00017287 3.73387e-05
-3.61916e-20 0.0133341 0.00352736 0.00287139 3.67163e-07 3.24605e-05
-4.1359e-25 -0.0133341 0.00352736 0.00287206 -1.48653e-06 3.49698e-05
0 -0.0132735 0.00383757 0 0 0
-4.1359e-25 0.0132832 0.00384344 0 0 0
-4.1905e-21 -0.0137678 0.00165537 0.00814492 0.000292569 8.18313e-05
-6.50164e-22 0.0137678 0.00165537 0.00815697 -0.00028413 7.57891e-05
2.71051e-20 0.013482 0.00331696 0.0049009 -1.98542e-05 5.75779e-05
2.71051e-20 -0.013482 0.00331696 0.00489957 1.89121e-05 6.17729e-05
3.33015e-20 0.0137484 0.00241532 0.00898411 -0.000212614 9.13529e-05
0 -0.0137484 0.00241533 0.00897139 0.000217927 9.86876e-05
0 -0.013458 0.00374223 0.0018667 -1.88512e-05 2.74098e-05
0 0.013458 0.00374223 0.00186528 1.72497e-05 2.54098e-05
4.1359e-25 -0.0137485 0.00262819 0.00847993 0.000174142 9.65904e-05
-3.30872e-24 -0.014071 -1.61666e-15 9.37883e-08 4.93343e-09 9.90875e-10
0 0.014071 3.38398e-08 7.97632e-08 -4.2443e-09 7.23153e-10
-6.42223e-21 0.0137488 0.00307761 0.00745011 -8.14939e-05 8.52151e-05
0 -0.0137488 0.00307762 0.00744224 8.16914e-05 9.21622e-05
0 -0.0135651 0.00401367 2.05924e-08 -2.67131e-10 3.58642e-10
0 0.0135651 0.00401367 1.99724e-08 2.50784e-10 3.15531e-10
-2.71051e-20 -0.0141231 0.00120897 0.00773801 0.000348326 8.50084e-05
2.71051e-20 0.0141231 0.00120897 0.00775006 -0.000338589 7.70432e-05
-8.47364e-21 0.0137164 0.00361035 0.00432984 6.63945e-06 5.82138e-05
8.27181e-25 -0.0137164 0.00361035 0.00432851 -9.0588e-06 6.29732e-05
-5.42101e-20 -0.014089 0.00201377 0.0106194 0.000340158 0.000109655
-2.71051e-20 0.014089 0.00201377 0.0106381 -0.000330966 9.95626e-05
-2.71051e-20 -0.0142657 0.000418225 0.0025476 0.00014315 1.78727e-05
-2.71051e-20 0.0142657 0.000418225 0.00254229 -0.000139091 1.61104e-05
-2.71051e-20 -0.014069 0.0027392 0.0104881 0.000195146 0.000124297
2.71051e-20 0.014069 0.0027392 0.0105058 -0.000192388 0.000113742
0 0.0138967 0.00392747 0.00314903 4.31553e-05 5.41271e-05
0 -0.0138967 0.00392747 0.00315084 -4.71532e-05 5.84374e-05
-5.42101e-20 0.0140496 0.00340311 0.0078761 -1.67758e-05 0.000101727
2.71051e-20 -0.0140496 0.00340311 0.00786824 1.35262e-05 0.000110781
-2.82251e-20 0.014441 0.00161389 0.0106946 -0.000393021 7.44711e-05
-2.5593e-20 -0.014441 0.00161389 0.0106792 0.000403969 8.51439e-05
-2.25754e-20 -0.0145429 0.000823391 0.00607326 0.000293154 4.70409e-05
-1.51506e-20 0.0145429 0.000823383 0.00607568 -0.00028449 4.13328e-05
8.27181e-25 -0.0139237 0.00428406 3.86282e-08 -6.44055e-10 7.07637e-10
8.27181e-25 0.0139237 0.00428406 3.75114e-08 6.08244e-10 6.16739e-10
1.4785e-20 0.014397 0.00237993 0.0124553 -0.000315972 8.75421e-05
0 -0.014397 0.00237994 0.0124332 0.000322534 0.000100343
2.06795e-25 -0.0143809 0.0027439 0.0118132 0.000226834 0.000104576
2.09707e-20 0.0143653 0.00309536 0.0112326 -0.000135237 9.61274e-05
0 -0.0143653 0.00309537 0.0112145 0.00013442 0.000108664
-6.61744e-24 -0.0147021 5.53624e-08 2.69878e-07 1.40702e-08 3.71973e-09
6.61744e-24 0.0147022 5.46449e-08 2.3065e-07 -1.18062e-08 2.94572e-09
-2.01253e-20 0.014305 0.00382188 0.00679753 1.70435e-05 7.29923e-05
0 -0.014305 0.00382189 0.00679075 -2.24109e-05 8.17136e-05
-2.71051e-20 -0.0142451 0.00421792 0.003258 -6.28464e-05 5.76546e-05
0 0.0142451 0.00421792 0.00325844 5.76529e-05 5.26294e-05
5.42101e-20 0.0147298 0.00200539 0.0139147 -0.000450621 6.32252e-05
0 -0.0147298 0.00200539 0.0138922 0.000461898 7.73593e-05
0 0.0148165 0.00124392 0.0103204 -0.000448163 5.90669e-05
-2.71051e-20 -0.0148165 0.00124392 0.0103124 0.000461712 6.93869e-05
2.71051e-20 0.014711 0.00272495 0.0147257 -0.000292762 7.36055e-05
0 -0.014711 0.00272495 0.0146964 0.000295951 8.99539e-05
-2.71051e-20 0.0149558 0.000461599 0.00373334 -0.000214065 1.51831e-05
0 -0.0149558 0.000461599 0.00373781 0.000221433 1.80401e-05
8.27181e-25 -0.0142802 0.00455258 3.38061e-08 -6.49577e-10 6.25295e-10
-8.27181e-25 0.0142802 0.00455258 3.17063e-08 5.93177e-10 5.25398e-10
0 0.0146561 0.00344874 0.012126 -5.26004e-05 9.39992e-05
0 -0.0146561 0.00344874 0.0121074 4.69849e-05 0.000108503
7.38093e-21 -0.014516 0.0042716 0.00496975 -5.98029e-05 6.61618e-05
1.6853e-20 0.014516 0.0042716 0.00497348 5.31027e-05 5.87374e-05
8.52327e-21 -0.0150862 0.00165186 0.0135318 0.000491534 2.49259e-05
-3.18961e-21 0.0150862 0.00165186 0.0135425 -0.00047762 1.26841e-05
2.71051e-20 -0.014707 0.0040482 0.00856083 -5.06545e-05 8.00893e-05
-5.42101e-20 0.014707 0.0040482 0.0085717 4.18443e-05 6.83192e-05
3.49749e-20 0.0151175 0.00230445 0.0163516 -0.000415925 -1.36717e-05
2.31379e-20 -0.0151175 0.00230445 0.0163277 0.000424231 1.75744e-06
0 0.0146108 0.00452168 0.00321494 5.94098e-05 5.55744e-05
-2.71051e-20 -0.0146108 0.00452168 0.00321479 -6.55727e-05 6.11982e-05
-5.16988e-26 -0.0149972 0.00307322 0.0160031 0.000235578 1.20227e-05
2.20791e-20 0.0149933 0.00309787 0.016023 -0.000230498 -4.25669e-06
0 -0.0149933 0.00309786 0.0159927 0.000229532 1.23517e-05
5.16988e-26 -0.0150551 0.00309623 0.0165095 0.000239787 -1.14482e-05
1.11636e-20 -0.0153398 0.000978663 0.00888945 0.000387435 9.29748e-06
-4.03664e-21 0.0153398 0.000978658 0.00888523 -0.000374314 2.36928e-06
0 -0.0153748 1.34592e-07 5.8994e-07 3.28335e-08 6.67471e-09
0 0.015375 6.5057e-08 5.27487e-07 -2.83681e-08 5.61905e-09
0 -0.0146354 0.00482017 2.00849e-08 -3.89176e-10 3.27436e-10
-4.1359e-25 0.0146354 0.00482017 1.63754e-08 3.09273e-10 2.26855e-10
-2.55921e-20 0.0149803 0.0037633 0.0129904 -4.72656e-05 1.28898e-05
-2.35842e-20 -0.0149803 0.0037633 0.0129671 3.90123e-05 2.80339e-05
0 0.0153272 0.00275021 0.0193206 -0.000406334 -9.92727e-05
0 -0.0153272 0.00275021 0.0192847 0.000410461 -8.16293e-05
0 -0.0149658 0.00441693 0.00747537 -4.5675e-05 3.61178e-05
-1.11363e-20 0.0149658 0.00441693 0.00748671 3.62118e-05 2.56309e-05
2.71051e-20 -0.014927 0.00477487 0.00343279 -6.83802e-05 4.50162e-05
2.71051e-20 0.014927 0.00477488 0.00343646 6.10181e-05 3.87338e-05
0 -0.0152999 0.00342237 0.0177791 0.000164331 -6.43036e-05
-2.71051e-20 0.0152999 0.00342237 0.0178161 -0.000169821 -8.21625e-05
0 0.0149195 0.0050341 0 0 0
-5.42101e-20 0.015716 0.00173426 0.0179735 -0.000564164 -0.000135746
-5.42101e-20 -0.015716 0.00173426 0.0179765 0.000582634 -0.00012339
5.42101e-20 -0.0152841 0.00407715 0.0139107 7.14072e-06 -1.79605e-05
0 0.0152841 0.00407715 0.0139385 -2.00187e-05 -3.47363e-05
0 -0.0149898 0.00508707 6.84132e-09 -1.14362e-10 8.65714e-11
1.03398e-25 0.0149898 0.00508707 4.08197e-09 5.89227e-11 4.38614e-11
-9.69787e-21 0.0156647 0.00240044 0.0209793 -0.000460696 -0.000225356
-1.87108e-21 -0.0156647 0.00240044 0.0209497 0.000468858 -0.000210841
-2.06795e-25 0.0150316 0.00502549 0.00125858 1.05596e-05 5.03053e-06
0 0.0158728 0.000521005 0.00552774 -0.000311379 2.82737e-05
-1.0842e-19 -0.0158728 0.000521006 0.00555014 0.000326724 3.0903e-05
-3.76202e-21 -0.0151702 0.00482145 0.00542129 -5.4568e-05 3.0278e-05
2.05753e-20 0.0151702 0.00482145 0.00542905 4.55502e-05 2.16999e-05
8.84422e-21 0.015623 0.00308125 0.0213043 -0.000333729 -0.000245854
-1.88998e-20 -0.015623 0.00308126 0.0212608 0.000334065 -0.000230246
-2.71051e-20 0.0153271 0.00461022 0.00945985 3.11043e-05 -5.0286e-06
0 -0.0153271 0.00461022 0.00944298 -4.38253e-05 8.1906e-06
-4.1359e-25 -0.0156085 0.00354717 0.0198104 0.000214467 -0.000216935
1.08969e-20 0.0156022 0.00374982 0.0192246 -0.000170736 -0.000227047
-2.06795e-25 -0.0156022 0.00374982 0.0191796 0.000162448 -0.000211145
-5.42101e-20 0.015269 0.00505544 0.00346809 4.4168e-05 3.0844e-05
0 -0.015269 0.00505544 0.00346518 -5.12076e-05 3.71658e-05
-2.71051e-20 -0.0159605 0.00272816 0.0242139 0.000456739 -0.000380965
2.71051e-20 0.0159605 0.00272816 0.0242564 -0.000450835 -0.000393844
0 -0.0155971 0.0043751 0.0146937 4.84586e-05 -0.000136163
-1.06905e-20 0.0155971 0.0043751 0.0147279 -6.16914e-05 -0.000151105
0 0.0153431 0.00535318 2.75596e-08 9.09433e-11 7.48456e-11
2.58494e-26 -0.0153431 0.00535318 1.89877e-09 -1.08628e-11 9.12243e-12
-2.71051e-20 -0.0159183 0.00340547 0.0237539 0.000304312 -0.000393691
-2.71051e-20 0.0159183 0.00340547 0.0238121 -0.000307429 -0.000407704
5.16988e-26 0.0155093 0.00497609 0.00709771 -1.76164e-06 -3.8562e-05
0 -0.0155359 0.00491577 0.00821722 -9.38189e-06 -3.38784e-05
1.58095e-21 0.0155359 0.00491577 0.00823304 -2.04342e-06 -4.47303e-05
-1.03398e-25 -0.0158827 0.00371014 0.0217564 0.000217105 -0.00036736
-2.71051e-20 0.0159245 0.00405169 0.0213416 -0.000186702 -0.000383274
0 -0.0159245 0.00405169 0.0212847 0.000175143 -0.00036834
4.44163e-20 -0.0163948 0.00113363 0.0145868 0.000406033 -0.000157288
-3.84804e-20 0.0163948 0.00113363 0.0145563 -0.000387059 -0.00016131
0 -0.0164795 6.04198e-08 5.54469e-07 2.253e-08 5.84008e-10
-3.30872e-24 0.0164796 2.21654e-08 1.82456e-07 -7.02366e-09 1.3785e-10
5.16988e-26 0.0157156 0.00498366 0.00971505 -4.56022e-05 -0.000116057
2.53448e-20 0.0162478 0.00305838 0.0259082 -0.000383477 -0.000533297
-2.05976e-20 -0.0162478 0.00305839 0.0258574 0.00038567 -0.000523938
4.84777e-20 -0.016378 0.00230524 0.0248795 0.000465637 -0.000482503
-5.19519e-20 0.016378 0.00230524 0.0248977 -0.000454068 -0.00048876
-2.71051e-20 0.0156904 0.00524875 0.00579484 -5.16954e-06 -1.24544e-05
0 -0.0156904 0.00524875 0.0057868 -5.66134e-06 -2.93626e-06
-5.42101e-20 0.0158759 0.00471202 0.0150488 -8.70541e-05 -0.000207784
2.71051e-20 -0.0158759 0.00471202 0.0150109 7.12564e-05 -0.000192734
-8.27181e-25 0.0156951 0.00561829 5.48561e-08 -2.05758e-10 -4.03225e-10
0 -0.0156951 0.00561829 4.58939e-08 9.13028e-11 -2.69711e-10
-2.36578e-20 0.0163084 0.00364992 0.0257304 -0.00030543 -0.000613526
2.40441e-21 -0.0163084 0.00364992 0.0256678 0.00030007 -0.000604481
5.16988e-26 -0.0162303 0.00419321 0.0229348 0.000247631 -0.000535161
-9.86568e-21 0.016199 0.00441125 0.0218974 -0.000238983 -0.000518828
0 -0.016199 0.00441125 0.0218379 0.000226585 -0.00050734
-5.16988e-26 0.0161616 0.00473168 0.0179576 -0.000196153 -0.000410538
0 -0.0161146 0.00513441 0.0129722 0.000129207 -0.000263838
0 0.0161146 0.00513441 0.0130057 -0.000142322 -0.000274432
0 0.016031 0.0055414 0.00613614 -3.59895e-05 -8.29481e-05
-5.42101e-20 -0.016031 0.0055414 0.00612164 2.57175e-05 -7.46847e-05
2.71051e-20 0.0165301 0.00408038 0.0282541 -0.000364415 -0.000842179
2.71051e-20 -0.0165301 0.00408038 0.0281764 0.000357016 -0.000836517
5.42101e-20 -0.0170241 0.000577593 0.00941028 0.000289738 -1.56607e-05
-1.0842e-19 0.0170241 0.000577593 0.00934694 -0.000268212 -1.75403e-05
0 -0.0169742 0.00175445 0.025905 0.000436104 -0.000527133
0 0.0169742 0.00175445 0.0258728 -0.000415461 -0.000526772
0 0.0160456 0.00588233 6.82834e-08 -8.46023e-10 -1.19572e-09
0 -0.0160456 0.00588233 5.60138e-08 6.03546e-10 -9.08066e-10
-5.42101e-20 0.0168708 0.00304668 0.0319222 -0.000388919 -0.000961304
-5.42101e-20 -0.0168708 0.00304668 0.0318692 0.000393152 -0.000965051
0 -0.0164827 0.00476235 0.0231076 0.000308055 -0.000643603
-5.42101e-20 0.0164827 0.00476235 0.0231736 -0.000322754 -0.000653723
-8.18743e-21 0.0163092 0.00559034 0.00953607 -0.00014409 -0.000224847
-5.28858e-21 -0.0163092 0.00559034 0.00951182 0.000132523 -0.000215886
2.58494e-26 -0.0166741 0.00441187 0.028003 0.000373422 -0.000904934
-1.17038e-20 0.0168571 0.00372694 0.0320201 -0.000405065 -0.00106937
8.73089e-22 -0.0168571 0.00372694 0.0319427 0.000402078 -0.00107234
0 -0.0165194 0.0053648 0.0165313 0.000272929 -0.00045902
2.71051e-20 0.0165194 0.0053648 0.0165778 -0.00028742 -0.000469348
1.21968e-20 0.0168293 0.00441207 0.0300976 -0.000429495 -0.00103472
2.58494e-26 -0.0168293 0.00441207 0.030016 0.000421369 -0.00103476
0 -0.016393 0.00584515 0.00624053 0.00010521 -0.000125821
-2.71051e-20 0.016393 0.00584515 0.00625344 -0.000115302 -0.000134182
5.16988e-26 -0.0168244 0.00457624 0.0287252 0.000426379 -0.000990573
0 0.0168198 0.00472892 0.0276001 -0.000440951 -0.000951633
8.27181e-25 0.0163955 0.00614428 8.06396e-08 -1.75881e-09 -2.23378e-09
0 -0.0163955 0.00614428 6.61105e-08 1.34913e-09 -1.75528e-09
1.03398e-25 -0.0168096 0.00506989 0.0248434 0.000441445 -0.000857703
0 0.0168096 0.00506989 0.0249125 -0.000453279 -0.000862225
-6.61744e-24 -0.0176231 3.91596e-08 4.8473e-07 4.94256e-09 -2.61258e-09
0 0.0176231 3.09317e-08 3.76132e-07 -3.23954e-09 -2.03631e-09
1.90582e-20 -0.0175916 0.0011589 0.020197 0.000155146 -0.000393169
-2.92458e-20 0.0175916 0.00115889 0.0201335 -0.00013807 -0.000388044
0 -0.0171737 0.004052 0.0355768 0.000450297 -0.00136039
2.71051e-20 0.0171737 0.004052 0.0356683 -0.000453333 -0.00134964
-3.10391e-20 -0.0175442 0.00239622 0.0329367 0.000234712 -0.00100064
4.50913e-20 0.0175442 0.0023962 0.0329426 -0.000225884 -0.000986127
0 0.0167746 0.00574376 0.0149841 -0.000342529 -0.000523487
2.06795e-25 -0.0167746 0.00574376 0.0149446 0.000331707 -0.000516487
0 -0.0171404 0.0047287 0.0330992 0.000564255 -0.00129349
-5.42101e-20 0.0171404 0.0047287 0.0331898 -0.000571744 -0.00128827
-2.71051e-20 -0.016705 0.00611265 0.00717158 0.000165152 -0.00022807
2.71051e-20 0.016705 0.00611265 0.00718958 -0.000174607 -0.000236055
2.4018e-20 -0.0174986 0.00354413 0.0377782 0.00039586 -0.00145158
5.78902e-21 0.0174986 0.00354412 0.0378553 -0.000395827 -0.00143224
8.27181e-25 0.0167191 0.00643602 9.15889e-08 -2.69812e-09 -3.38348e-09
0 -0.0167191 0.00643602 7.44439e-08 2.11062e-09 -2.67663e-09
0 -0.0171168 0.00539052 0.027389 0.000633104 -0.00107172
0 0.0171168 0.00539052 0.0274644 -0.00064346 -0.0010739
-3.07334e-20 0.0174702 0.00438304 0.0380441 -0.000552302 -0.00155351
2.58835e-20 -0.0174702 0.00438304 0.0379495 0.000549517 -0.00157137
1.4256e-20 0.0169667 0.00617943 0.0114812 -0.000324874 -0.000445904
-1.62251e-20 -0.0169667 0.00617943 0.0114528 0.000315791 -0.000438742
-2.58494e-26 0.0174562 0.0048306 0.0363171 -0.000659082 -0.00152148
0 -0.0174549 0.00487038 0.0360718 0.000664502 -0.00153285
-5.16988e-26 0.0174493 0.00505023 0.0354696 -0.000711481 -0.00150576
5.16988e-26 -0.0174493 0.00505023 0.0353788 0.000706936 -0.00151864
0 0.0171679 0.00597129 0.0199474 -0.000551088 -0.000807415
2.71051e-20 -0.0171679 0.00597129 0.0198952 0.000541132 -0.000801775
0 0.0182005 0.000583389 0.0128723 7.66248e-05 -0.000105562
0 -0.0182005 0.000583389 0.0129853 -6.01564e-05 -0.000108022
-5.42101e-20 -0.017043 0.00643779 0.0075525 0.000248015 -0.000297572
0 0.017043 0.00643779 0.00756822 -0.00025588 -0.000305386
0 0.0177879 0.00403219 0.0415513 -0.000493631 -0.00173226
0 -0.0177879 0.00403219 0.0414562 0.000493736 -0.00176036
5.42101e-20 -0.0181761 0.00178292 0.0329546 -4.61311e-05 -0.000938499
0 0.0181761 0.00178292 0.03291 5.56644e-05 -0.000918681
-8.27181e-25 0.0170214 0.00674884 9.95415e-08 -3.46022e-09 -4.42306e-09
0 -0.0170214 0.00674883 8.27764e-08 2.80819e-09 -3.61453e-09
-2.85967e-20 0.0174458 0.00568734 0.0297532 -0.000780533 -0.00130223
-1.99723e-20 -0.0174458 0.00568734 0.0296776 0.000774869 -0.0013076
-5.42101e-20 0.0177804 0.00470438 0.0416841 -0.000691295 -0.00184014
0 -0.0177804 0.00470438 0.0415831 0.000690449 -0.00186735
5.42101e-20 0.0181642 0.00305698 0.0413029 -0.00015693 -0.00155536
5.42101e-20 -0.0181642 0.00305697 0.0412522 0.000157285 -0.00158967
-1.38106e-20 -0.0181317 0.00370155 0.0435191 0.00037711 -0.00180456
9.05639e-21 0.0181317 0.00370155 0.043602 -0.00037743 -0.00176832
-3.53868e-20 0.01741 0.00635261 0.0180638 -0.00057721 -0.000825525
-2.15572e-20 -0.01741 0.00635261 0.0180211 0.000571098 -0.000823582
-2.71051e-20 -0.0177702 0.00535529 0.039374 0.000934862 -0.0018377
0 0.0177702 0.00535529 0.0394701 -0.00093445 -0.00181644
-2.71051e-20 -0.0173274 0.00672747 0.00855863 0.00029376 -0.000401219
2.71051e-20 0.0173274 0.00672747 0.00857737 -0.000300595 -0.000407358
6.31501e-21 -0.0181076 0.00436205 0.0444961 0.000564475 -0.00193598
1.41228e-20 0.0181076 0.00436205 0.0445931 -0.000564504 -0.00189939
0 0.0173238 0.00706119 1.01642e-07 -4.10392e-09 -5.15472e-09
8.27181e-25 -0.0173238 0.00706119 9.01984e-08 3.58483e-09 -4.52334e-09
0 -0.0177503 0.00600627 0.0330528 0.00101157 -0.00157159
2.71051e-20 0.0177503 0.00600627 0.0331339 -0.00101383 -0.00156227
6.46235e-27 0.0180987 0.00497196 0.0445267 -0.000807076 -0.00198905
1.45403e-26 -0.0180912 0.00501859 0.0443272 0.000826263 -0.00202554
0 0.018098 0.00501826 0.0445216 -0.000825492 -0.00199585
3.21523e-20 -0.018098 0.00501826 0.0444183 0.000827802 -0.00203083
0 -0.0187969 2.4032e-08 3.8259e-07 -8.12006e-09 -3.54773e-09
0 0.0187969 1.70778e-08 2.68701e-07 5.91446e-09 -2.43424e-09
-7.5644e-20 -0.0187878 0.00116732 0.0249903 -0.000321288 -0.000557997
-3.44603e-20 0.0187878 0.00116731 0.0249001 0.00032576 -0.000542479
1.3091e-20 0.0175851 0.00679799 0.0137634 -0.000514915 -0.000684944
-3.51746e-20 -0.0175851 0.00679799 0.0137338 0.000509633 -0.000681685
5.42101e-20 -0.0184432 0.00401963 0.0468217 0.000397344 -0.00197421
2.71051e-20 0.0184432 0.00401963 0.0469121 -0.00039847 -0.00192913
7.80296e-20 -0.0187844 0.00239453 0.0401317 -0.000176451 -0.00129789
3.49699e-20 0.0187844 0.00239455 0.0401334 0.000173674 -0.00126264
-5.16988e-26 0.0180831 0.00566925 0.0418631 -0.00105913 -0.0019582
0 -0.0180831 0.00566925 0.0417697 0.00106264 -0.00198647
0 0.018287 0.00499127 0.0462533 -0.000820413 -0.00204717
0 -0.0177912 0.00658995 0.0240715 0.000851258 -0.00119134
-2.71051e-20 0.0177912 0.00658995 0.0241249 -0.000854432 -0.00118907
0 0.0184158 0.00467993 0.0481216 -0.000672499 -0.0020912
-2.71051e-20 -0.0184158 0.00467993 0.0480202 0.000674164 -0.00213689
-2.71051e-20 -0.0176529 0.00706043 0.0089554 0.000396846 -0.000471585
0 0.0176529 0.00706043 0.00897296 -0.000402605 -0.000477288
0 -0.0176264 0.00737367 1.00018e-07 4.45386e-09 -5.59227e-09
0 0.0176264 0.00737367 9.87424e-08 -4.44246e-09 -5.55436e-09
1.03398e-25 0.0180712 0.00630777 0.0354095 -0.00112972 -0.00172932
-2.0628e-20 -0.0180712 0.00630777 0.0353334 0.00113243 -0.00174707
-2.71051e-20 0.0184261 0.0053197 0.0486769 -0.00100288 -0.00222951
-2.71051e-20 -0.0184261 0.0053197 0.048575 0.00100966 -0.00227514
-6.1211e-20 -0.0188515 0.00360143 0.0474318 0.000212813 -0.00184522
1.2813e-21 0.0188515 0.00360143 0.047504 -0.000216436 -0.00179595
-1.12078e-20 -0.0187497 0.00434473 0.0489731 0.000499848 -0.00206688
-1.66333e-20 0.0187497 0.00434473 0.0490668 -0.000500376 -0.00201637
0 0.018025 0.00697581 0.0216038 -0.000833548 -0.00112742
2.06795e-25 -0.018025 0.00697581 0.0215609 0.00083282 -0.00113282
-2.71051e-20 -0.0183967 0.00598007 0.0460954 0.00128839 -0.00226001
5.42101e-20 0.0183967 0.00598007 0.0461899 -0.00127933 -0.00222295
2.71051e-20 -0.0179363 0.0073519 0.0102854 0.000453735 -0.000597824
-2.71051e-20 0.0179363 0.0073519 0.0103051 -0.000458579 -0.000600833
5.42101e-20 0.0193896 0.000584898 0.0159598 0.000566921 -0.000160041
-5.42101e-20 -0.0193896 0.000584906 0.016114 -0.0005661 -0.000166554
2.24903e-20 -0.0188216 0.00491492 0.0510549 0.000810723 -0.00224682
-3.30198e-21 0.0188216 0.00491492 0.0511521 -0.000806043 -0.00219233
0 0.0193933 0.00177944 0.0383684 0.000604382 -0.00100565
0 -0.0193933 0.00177943 0.0384156 -0.000613536 -0.00103945
0 -0.0179292 0.00768641 1.10319e-07 5.44465e-09 -6.74772e-09
0 0.0179292 0.00768641 8.85708e-08 -4.39544e-09 -5.42796e-09
0 0.0187687 0.00532689 0.0511681 -0.000999021 -0.00226233
0 -0.0187614 0.00538336 0.0510751 0.0010338 -0.00232512
-2.71051e-20 -0.018369 0.00663164 0.0392179 0.0014024 -0.00201919
2.71051e-20 0.018369 0.00663164 0.0392954 -0.00139459 -0.00199519