# Moment      
# CofR        : (0.000000e+00 0.000000e+00 0.000000e+00)
#
# Time        	(total_x total_y total_z)	(pressure_x pressure_y pressure_z)	(viscous_x viscous_y viscous_z)
5001          	(3.833029e-03 1.557100e-02 -1.421674e-02)	(3.770326e-03 1.525993e-02 -1.396195e-02)	(6.270234e-05 3.110693e-04 -2.547970e-04)
5002          	(3.828193e-03 1.555756e-02 -1.420783e-02)	(3.765313e-03 1.524645e-02 -1.395322e-02)	(6.288044e-05 3.111050e-04 -2.546105e-04)
5003          	(3.822965e-03 1.554563e-02 -1.420198e-02)	(3.759900e-03 1.523449e-02 -1.394756e-02)	(6.306444e-05 3.111428e-04 -2.544167e-04)
5004          	(3.817495e-03 1.553543e-02 -1.419890e-02)	(3.754250e-03 1.522425e-02 -1.394467e-02)	(6.324528e-05 3.111795e-04 -2.542330e-04)
5005          	(3.811691e-03 1.552709e-02 -1.419837e-02)	(3.748267e-03 1.521587e-02 -1.394431e-02)	(6.342373e-05 3.112210e-04 -2.540529e-04)
5006          	(3.805323e-03 1.552057e-02 -1.420033e-02)	(3.741735e-03 1.520930e-02 -1.394644e-02)	(6.358809e-05 3.112628e-04 -2.538959e-04)
5007          	(3.798085e-03 1.551546e-02 -1.420471e-02)	(3.734345e-03 1.520415e-02 -1.395096e-02)	(6.373995e-05 3.113098e-04 -2.537516e-04)
5008          	(3.789667e-03 1.551136e-02 -1.421151e-02)	(3.725798e-03 1.520000e-02 -1.395787e-02)	(6.386884e-05 3.113575e-04 -2.536373e-04)
5009          	(3.779847e-03 1.550788e-02 -1.422069e-02)	(3.715871e-03 1.519647e-02 -1.396715e-02)	(6.397583e-05 3.114081e-04 -2.535399e-04)
5010          	(3.768557e-03 1.550473e-02 -1.423214e-02)	(3.704505e-03 1.519327e-02 -1.397867e-02)	(6.405189e-05 3.114569e-04 -2.534747e-04)
5011          	(3.755965e-03 1.550178e-02 -1.424557e-02)	(3.691865e-03 1.519027e-02 -1.399215e-02)	(6.410050e-05 3.115063e-04 -2.534216e-04)
5012          	(3.742490e-03 1.549905e-02 -1.426066e-02)	(3.678377e-03 1.518750e-02 -1.400726e-02)	(6.411277e-05 3.115494e-04 -2.533944e-04)
5013          	(3.728726e-03 1.549679e-02 -1.427660e-02)	(3.664628e-03 1.518520e-02 -1.402323e-02)	(6.409714e-05 3.115907e-04 -2.533718e-04)
5014          	(3.715425e-03 1.549533e-02 -1.429253e-02)	(3.651377e-03 1.518371e-02 -1.403917e-02)	(6.404799e-05 3.116249e-04 -2.533663e-04)
5015          	(3.703292e-03 1.549502e-02 -1.430765e-02)	(3.639315e-03 1.518336e-02 -1.405429e-02)	(6.397696e-05 3.116588e-04 -2.533569e-04)
5016          	(3.692634e-03 1.549593e-02 -1.432124e-02)	(3.628752e-03 1.518424e-02 -1.406788e-02)	(6.388153e-05 3.116899e-04 -2.533597e-04)
5017          	(3.684670e-03 1.549881e-02 -1.433266e-02)	(3.620897e-03 1.518709e-02 -1.407930e-02)	(6.377293e-05 3.117232e-04 -2.533576e-04)
5018          	(3.679881e-03 1.550372e-02 -1.434153e-02)	(3.616233e-03 1.519196e-02 -1.408816e-02)	(6.364805e-05 3.117534e-04 -2.533680e-04)
5019          	(3.678501e-03 1.551053e-02 -1.434766e-02)	(3.614983e-03 1.519875e-02 -1.409428e-02)	(6.351752e-05 3.117841e-04 -2.533776e-04)
5020          	(3.680871e-03 1.551919e-02 -1.435114e-02)	(3.617492e-03 1.520738e-02 -1.409774e-02)	(6.337906e-05 3.118093e-04 -2.534034e-04)
5021          	(3.686466e-03 1.552925e-02 -1.435166e-02)	(3.623222e-03 1.521741e-02 -1.409823e-02)	(6.324399e-05 3.118329e-04 -2.534296e-04)
5022          	(3.694947e-03 1.554016e-02 -1.434908e-02)	(3.631834e-03 1.522831e-02 -1.409561e-02)	(6.311241e-05 3.118521e-04 -2.534693e-04)
5023          	(3.705826e-03 1.555124e-02 -1.434320e-02)	(3.642828e-03 1.523936e-02 -1.408970e-02)	(6.299792e-05 3.118734e-04 -2.535032e-04)
5024          	(3.718533e-03 1.556207e-02 -1.433414e-02)	(3.655630e-03 1.525017e-02 -1.408060e-02)	(6.290294e-05 3.118961e-04 -2.535386e-04)
5025          	(3.732425e-03 1.557218e-02 -1.432196e-02)	(3.669585e-03 1.526025e-02 -1.406841e-02)	(6.283997e-05 3.119273e-04 -2.535558e-04)
5026          	(3.746741e-03 1.558101e-02 -1.430687e-02)	(3.683931e-03 1.526904e-02 -1.405331e-02)	(6.281002e-05 3.119672e-04 -2.535626e-04)
5027          	(3.760648e-03 1.558800e-02 -1.428924e-02)	(3.697827e-03 1.527598e-02 -1.403570e-02)	(6.282153e-05 3.120206e-04 -2.535391e-04)
5028          	(3.773244e-03 1.559268e-02 -1.426986e-02)	(3.710371e-03 1.528060e-02 -1.401637e-02)	(6.287233e-05 3.120869e-04 -2.534958e-04)
5029          	(3.783865e-03 1.559487e-02 -1.424977e-02)	(3.720902e-03 1.528270e-02 -1.399635e-02)	(6.296282e-05 3.121664e-04 -2.534214e-04)
5030          	(3.791947e-03 1.559438e-02 -1.423010e-02)	(3.728861e-03 1.528212e-02 -1.397676e-02)	(6.308571e-05 3.122565e-04 -2.533312e-04)
5031          	(3.797273e-03 1.559141e-02 -1.421176e-02)	(3.734034e-03 1.527905e-02 -1.395855e-02)	(6.323900e-05 3.123564e-04 -2.532142e-04)
5032          	(3.799962e-03 1.558635e-02 -1.419556e-02)	(3.736548e-03 1.527388e-02 -1.394248e-02)	(6.341369e-05 3.124622e-04 -2.530875e-04)
5033          	(3.800138e-03 1.557940e-02 -1.418224e-02)	(3.736531e-03 1.526683e-02 -1.392930e-02)	(6.360686e-05 3.125720e-04 -2.529409e-04)
5034          	(3.798230e-03 1.557153e-02 -1.417223e-02)	(3.734422e-03 1.525885e-02 -1.391943e-02)	(6.380787e-05 3.126826e-04 -2.527966e-04)
5035          	(3.794810e-03 1.556347e-02 -1.416571e-02)	(3.730795e-03 1.525067e-02 -1.391307e-02)	(6.401561e-05 3.127962e-04 -2.526480e-04)
5036          	(3.790443e-03 1.555580e-02 -1.416267e-02)	(3.726222e-03 1.524289e-02 -1.391016e-02)	(6.422070e-05 3.129081e-04 -2.525107e-04)
5037          	(3.785621e-03 1.554906e-02 -1.416283e-02)	(3.721197e-03 1.523604e-02 -1.391045e-02)	(6.442439e-05 3.130226e-04 -2.523812e-04)
5038          	(3.780541e-03 1.554329e-02 -1.416611e-02)	(3.715924e-03 1.523015e-02 -1.391383e-02)	(6.461724e-05 3.131345e-04 -2.522761e-04)
5039          	(3.775285e-03 1.553858e-02 -1.417237e-02)	(3.710486e-03 1.522533e-02 -1.392018e-02)	(6.479920e-05 3.132462e-04 -2.521915e-04)
5040          	(3.769778e-03 1.553474e-02 -1.418147e-02)	(3.704816e-03 1.522138e-02 -1.392933e-02)	(6.496181e-05 3.133527e-04 -2.521424e-04)
5041          	(3.763847e-03 1.553148e-02 -1.419337e-02)	(3.698742e-03 1.521803e-02 -1.394125e-02)	(6.510452e-05 3.134538e-04 -2.521201e-04)
5042          	(3.757288e-03 1.552849e-02 -1.420809e-02)	(3.692069e-03 1.521495e-02 -1.395596e-02)	(6.521880e-05 3.135433e-04 -2.521350e-04)
5043          	(3.742953e-03 1.552432e-02 -1.425547e-02)	(3.677675e-03 1.521071e-02 -1.400325e-02)	(6.527794e-05 3.136136e-04 -2.522192e-04)
5044          	(3.737588e-03 1.552270e-02 -1.426968e-02)	(3.672275e-03 1.520904e-02 -1.401737e-02)	(6.531299e-05 3.136582e-04 -2.523105e-04)
5045          	(3.732057e-03 1.552109e-02 -1.428442e-02)	(3.666730e-03 1.520739e-02 -1.403203e-02)	(6.532718e-05 3.136943e-04 -2.523986e-04)
5046          	(3.725882e-03 1.551943e-02 -1.430031e-02)	(3.660570e-03 1.520572e-02 -1.404781e-02)	(6.531183e-05 3.137110e-04 -2.524987e-04)
5047          	(3.719833e-03 1.551814e-02 -1.431730e-02)	(3.654560e-03 1.520443e-02 -1.406470e-02)	(6.527275e-05 3.137112e-04 -2.525944e-04)
5048          	(3.714113e-03 1.551745e-02 -1.433488e-02)	(3.648909e-03 1.520376e-02 -1.408218e-02)	(6.520396e-05 3.136904e-04 -2.526998e-04)
5049          	(3.709279e-03 1.551770e-02 -1.435255e-02)	(3.644165e-03 1.520404e-02 -1.409975e-02)	(6.511373e-05 3.136533e-04 -2.527989e-04)
5050          	(3.705151e-03 1.551863e-02 -1.436950e-02)	(3.640154e-03 1.520503e-02 -1.411660e-02)	(6.499755e-05 3.135970e-04 -2.529054e-04)
5051          	(3.702863e-03 1.552103e-02 -1.438519e-02)	(3.637999e-03 1.520751e-02 -1.413219e-02)	(6.486403e-05 3.135262e-04 -2.530061e-04)
5052          	(3.703757e-03 1.552553e-02 -1.439934e-02)	(3.639046e-03 1.521209e-02 -1.414623e-02)	(6.471120e-05 3.134366e-04 -2.531178e-04)
5053          	(3.706906e-03 1.553146e-02 -1.441099e-02)	(3.642358e-03 1.521812e-02 -1.415776e-02)	(6.454806e-05 3.133340e-04 -2.532276e-04)
5054          	(3.712273e-03 1.553873e-02 -1.441972e-02)	(3.647898e-03 1.522551e-02 -1.416638e-02)	(6.437516e-05 3.132189e-04 -2.533446e-04)
5055          	(3.719728e-03 1.554715e-02 -1.442507e-02)	(3.655525e-03 1.523405e-02 -1.417162e-02)	(6.420344e-05 3.130990e-04 -2.534546e-04)
5056          	(3.729028e-03 1.555642e-02 -1.442669e-02)	(3.664991e-03 1.524344e-02 -1.417313e-02)	(6.403736e-05 3.129783e-04 -2.535637e-04)
5057          	(3.739823e-03 1.556619e-02 -1.442438e-02)	(3.675934e-03 1.525333e-02 -1.417073e-02)	(6.388897e-05 3.128652e-04 -2.536546e-04)
5058          	(3.751628e-03 1.557598e-02 -1.441803e-02)	(3.687865e-03 1.526321e-02 -1.416429e-02)	(6.376345e-05 3.127642e-04 -2.537324e-04)
5059          	(3.763928e-03 1.558535e-02 -1.440780e-02)	(3.700257e-03 1.527267e-02 -1.415402e-02)	(6.367109e-05 3.126827e-04 -2.537812e-04)
5060          	(3.776052e-03 1.559377e-02 -1.439400e-02)	(3.712438e-03 1.528115e-02 -1.414019e-02)	(6.361449e-05 3.126231e-04 -2.538067e-04)
5061          	(3.787247e-03 1.560064e-02 -1.437761e-02)	(3.723648e-03 1.528805e-02 -1.412381e-02)	(6.359872e-05 3.125891e-04 -2.537997e-04)
5062          	(3.796808e-03 1.560556e-02 -1.435984e-02)	(3.733190e-03 1.529298e-02 -1.410607e-02)	(6.361777e-05 3.125768e-04 -2.537716e-04)
5063          	(3.804308e-03 1.560840e-02 -1.434181e-02)	(3.740636e-03 1.529581e-02 -1.408809e-02)	(6.367237e-05 3.125874e-04 -2.537158e-04)
5064          	(3.809494e-03 1.560912e-02 -1.432450e-02)	(3.745742e-03 1.529650e-02 -1.407085e-02)	(6.375238e-05 3.126134e-04 -2.536457e-04)
5065          	(3.812235e-03 1.560778e-02 -1.430891e-02)	(3.748379e-03 1.529513e-02 -1.405536e-02)	(6.385642e-05 3.126546e-04 -2.535563e-04)
5066          	(3.812634e-03 1.560474e-02 -1.429599e-02)	(3.748659e-03 1.529203e-02 -1.404253e-02)	(6.397447e-05 3.127052e-04 -2.534632e-04)
5067          	(3.811027e-03 1.560048e-02 -1.428609e-02)	(3.746923e-03 1.528771e-02 -1.403272e-02)	(6.410324e-05 3.127645e-04 -2.533654e-04)
5068          	(3.807872e-03 1.559559e-02 -1.427930e-02)	(3.743638e-03 1.528276e-02 -1.402602e-02)	(6.423469e-05 3.128285e-04 -2.532768e-04)
5069          	(3.803700e-03 1.559066e-02 -1.427541e-02)	(3.739331e-03 1.527776e-02 -1.402222e-02)	(6.436911e-05 3.128996e-04 -2.531948e-04)
5070          	(3.798995e-03 1.558619e-02 -1.427409e-02)	(3.734495e-03 1.527321e-02 -1.402096e-02)	(6.450052e-05 3.129758e-04 -2.531322e-04)
5071          	(3.794158e-03 1.558252e-02 -1.427489e-02)	(3.729529e-03 1.526946e-02 -1.402180e-02)	(6.462915e-05 3.130590e-04 -2.530859e-04)
5072          	(3.789426e-03 1.557981e-02 -1.427753e-02)	(3.724676e-03 1.526666e-02 -1.402446e-02)	(6.475008e-05 3.131482e-04 -2.530699e-04)
5073          	(3.784906e-03 1.557803e-02 -1.428184e-02)	(3.720042e-03 1.526479e-02 -1.402877e-02)	(6.486432e-05 3.132437e-04 -2.530764e-04)
5074          	(3.780574e-03 1.557699e-02 -1.428779e-02)	(3.715608e-03 1.526365e-02 -1.403468e-02)	(6.496603e-05 3.133417e-04 -2.531167e-04)
5075          	(3.776308e-03 1.557641e-02 -1.429547e-02)	(3.711253e-03 1.526297e-02 -1.404229e-02)	(6.505546e-05 3.134399e-04 -2.531779e-04)
5076          	(3.771971e-03 1.557599e-02 -1.430502e-02)	(3.706845e-03 1.526246e-02 -1.405175e-02)	(6.512631e-05 3.135322e-04 -2.532694e-04)
5077          	(3.767499e-03 1.557548e-02 -1.431650e-02)	(3.702320e-03 1.526187e-02 -1.406312e-02)	(6.517877e-05 3.136157e-04 -2.533778e-04)
5078          	(3.762886e-03 1.557470e-02 -1.432988e-02)	(3.697679e-03 1.526102e-02 -1.407637e-02)	(6.520627e-05 3.136833e-04 -2.535109e-04)
5079          	(3.758340e-03 1.557377e-02 -1.434495e-02)	(3.693128e-03 1.526003e-02 -1.409129e-02)	(6.521225e-05 3.137347e-04 -2.536532e-04)
5080          	(3.754138e-03 1.557289e-02 -1.436141e-02)	(3.688946e-03 1.525912e-02 -1.410760e-02)	(6.519166e-05 3.137645e-04 -2.538121e-04)
5081          	(3.750664e-03 1.557238e-02 -1.437870e-02)	(3.685515e-03 1.525861e-02 -1.412473e-02)	(6.514905e-05 3.137734e-04 -2.539703e-04)
5082          	(3.748339e-03 1.557261e-02 -1.439604e-02)	(3.683258e-03 1.525885e-02 -1.414190e-02)	(6.508128e-05 3.137590e-04 -2.541374e-04)
5083          	(3.747503e-03 1.557378e-02 -1.441260e-02)	(3.682508e-03 1.526006e-02 -1.415830e-02)	(6.499547e-05 3.137251e-04 -2.542967e-04)
5084          	(3.748374e-03 1.557608e-02 -1.442760e-02)	(3.683484e-03 1.526241e-02 -1.417314e-02)	(6.488921e-05 3.136707e-04 -2.544614e-04)
5085          	(3.751057e-03 1.557957e-02 -1.444047e-02)	(3.686287e-03 1.526597e-02 -1.418585e-02)	(6.477003e-05 3.136005e-04 -2.546175e-04)
5086          	(3.755570e-03 1.558429e-02 -1.445082e-02)	(3.690932e-03 1.527077e-02 -1.419604e-02)	(6.463771e-05 3.135153e-04 -2.547766e-04)
5087          	(3.761851e-03 1.559012e-02 -1.445828e-02)	(3.697349e-03 1.527670e-02 -1.420336e-02)	(6.450219e-05 3.134220e-04 -2.549239e-04)
5088          	(3.769785e-03 1.559703e-02 -1.446272e-02)	(3.705420e-03 1.528371e-02 -1.420765e-02)	(6.436538e-05 3.133235e-04 -2.550715e-04)
5089          	(3.779173e-03 1.560487e-02 -1.446398e-02)	(3.714935e-03 1.529164e-02 -1.420877e-02)	(6.423779e-05 3.132274e-04 -2.552044e-04)
5090          	(3.789547e-03 1.561317e-02 -1.446170e-02)	(3.725422e-03 1.530003e-02 -1.420637e-02)	(6.412467e-05 3.131400e-04 -2.553301e-04)
5091          	(3.800822e-03 1.562221e-02 -1.445672e-02)	(3.736789e-03 1.530914e-02 -1.420128e-02)	(6.403360e-05 3.130674e-04 -2.554364e-04)
5092          	(3.812155e-03 1.563078e-02 -1.444885e-02)	(3.748188e-03 1.531776e-02 -1.419332e-02)	(6.396708e-05 3.130120e-04 -2.555299e-04)
5093          	(3.823403e-03 1.563902e-02 -1.443851e-02)	(3.759471e-03 1.532604e-02 -1.418291e-02)	(6.393227e-05 3.129789e-04 -2.555970e-04)
5094          	(3.833987e-03 1.564644e-02 -1.442634e-02)	(3.770059e-03 1.533347e-02 -1.417069e-02)	(6.392769e-05 3.129686e-04 -2.556489e-04)
5095          	(3.843570e-03 1.565285e-02 -1.441296e-02)	(3.779615e-03 1.533987e-02 -1.415729e-02)	(6.395449e-05 3.129814e-04 -2.556763e-04)
5096          	(3.851731e-03 1.565800e-02 -1.439933e-02)	(3.787723e-03 1.534498e-02 -1.414364e-02)	(6.400748e-05 3.130142e-04 -2.556908e-04)
5097          	(3.858179e-03 1.566174e-02 -1.438637e-02)	(3.794094e-03 1.534867e-02 -1.413069e-02)	(6.408530e-05 3.130655e-04 -2.556868e-04)
5098          	(3.862744e-03 1.566406e-02 -1.437506e-02)	(3.798564e-03 1.535093e-02 -1.411938e-02)	(6.418070e-05 3.131304e-04 -2.556745e-04)
5099          	(3.865577e-03 1.566520e-02 -1.436589e-02)	(3.801286e-03 1.535200e-02 -1.411024e-02)	(6.429184e-05 3.132076e-04 -2.556487e-04)
5100          	(3.866890e-03 1.566544e-02 -1.435923e-02)	(3.802480e-03 1.535215e-02 -1.410360e-02)	(6.441056e-05 3.132925e-04 -2.556250e-04)
5101          	(3.867020e-03 1.566512e-02 -1.435504e-02)	(3.802485e-03 1.535174e-02 -1.409945e-02)	(6.453515e-05 3.133838e-04 -2.555965e-04)
5102          	(3.866279e-03 1.566457e-02 -1.435339e-02)	(3.801618e-03 1.535108e-02 -1.409781e-02)	(6.466135e-05 3.134801e-04 -2.555747e-04)
5103          	(3.864990e-03 1.566408e-02 -1.435394e-02)	(3.800202e-03 1.535050e-02 -1.409839e-02)	(6.478755e-05 3.135808e-04 -2.555540e-04)
5104          	(3.863350e-03 1.566379e-02 -1.435638e-02)	(3.798440e-03 1.535010e-02 -1.410083e-02)	(6.490973e-05 3.136853e-04 -2.555481e-04)
5105          	(3.861523e-03 1.566380e-02 -1.436054e-02)	(3.796497e-03 1.535000e-02 -1.410499e-02)	(6.502617e-05 3.137920e-04 -2.555523e-04)
5106          	(3.859533e-03 1.566403e-02 -1.436633e-02)	(3.794400e-03 1.535013e-02 -1.411075e-02)	(6.513332e-05 3.139002e-04 -2.555778e-04)
5107          	(3.857270e-03 1.566430e-02 -1.437371e-02)	(3.792038e-03 1.535029e-02 -1.411810e-02)	(6.523154e-05 3.140091e-04 -2.556140e-04)
5108          	(3.854548e-03 1.566433e-02 -1.438279e-02)	(3.789234e-03 1.535021e-02 -1.412711e-02)	(6.531409e-05 3.141138e-04 -2.556727e-04)
5109          	(3.851218e-03 1.566387e-02 -1.439373e-02)	(3.785836e-03 1.534966e-02 -1.413799e-02)	(6.538167e-05 3.142129e-04 -2.557447e-04)
5110          	(3.847187e-03 1.566273e-02 -1.440664e-02)	(3.781759e-03 1.534843e-02 -1.415080e-02)	(6.542772e-05 3.143007e-04 -2.558396e-04)
5111          	(3.842523e-03 1.566085e-02 -1.442139e-02)	(3.777070e-03 1.534648e-02 -1.416545e-02)	(6.545245e-05 3.143741e-04 -2.559434e-04)
5112          	(3.837435e-03 1.565831e-02 -1.443768e-02)	(3.771985e-03 1.534388e-02 -1.418162e-02)	(6.545026e-05 3.144273e-04 -2.560661e-04)
5113          	(3.832215e-03 1.565529e-02 -1.445504e-02)	(3.766791e-03 1.534083e-02 -1.419885e-02)	(6.542386e-05 3.144588e-04 -2.561922e-04)
5114          	(3.827242e-03 1.565207e-02 -1.447297e-02)	(3.761872e-03 1.533761e-02 -1.421664e-02)	(6.536951e-05 3.144646e-04 -2.563291e-04)
5115          	(3.822926e-03 1.564901e-02 -1.449085e-02)	(3.757633e-03 1.533456e-02 -1.423439e-02)	(6.529246e-05 3.144464e-04 -2.564605e-04)
5116          	(3.819665e-03 1.564645e-02 -1.450804e-02)	(3.754475e-03 1.533205e-02 -1.425144e-02)	(6.518968e-05 3.144014e-04 -2.565963e-04)
5117          	(3.817805e-03 1.564469e-02 -1.452383e-02)	(3.752737e-03 1.533036e-02 -1.426711e-02)	(6.506838e-05 3.143331e-04 -2.567205e-04)
5118          	(3.817578e-03 1.564394e-02 -1.453760e-02)	(3.752651e-03 1.532970e-02 -1.428076e-02)	(6.492700e-05 3.142412e-04 -2.568442e-04)
5119          	(3.819129e-03 1.564442e-02 -1.454886e-02)	(3.754353e-03 1.533029e-02 -1.429191e-02)	(6.477585e-05 3.141329e-04 -2.569501e-04)
5120          	(3.822422e-03 1.564603e-02 -1.455717e-02)	(3.757807e-03 1.533202e-02 -1.430012e-02)	(6.461495e-05 3.140094e-04 -2.570520e-04)
5121          	(3.827354e-03 1.564870e-02 -1.456224e-02)	(3.762899e-03 1.533482e-02 -1.430510e-02)	(6.445574e-05 3.138789e-04 -2.571335e-04)
5122          	(3.833712e-03 1.565228e-02 -1.456393e-02)	(3.769413e-03 1.533853e-02 -1.430672e-02)	(6.429961e-05 3.137442e-04 -2.572065e-04)
5123          	(3.841249e-03 1.565665e-02 -1.456223e-02)	(3.777090e-03 1.534303e-02 -1.430497e-02)	(6.415907e-05 3.136152e-04 -2.572542e-04)
5124          	(3.849573e-03 1.566143e-02 -1.455723e-02)	(3.785539e-03 1.534794e-02 -1.429994e-02)	(6.403398e-05 3.134932e-04 -2.572907e-04)
5125          	(3.858271e-03 1.566631e-02 -1.454918e-02)	(3.794337e-03 1.535292e-02 -1.429188e-02)	(6.393431e-05 3.133856e-04 -2.573008e-04)
5126          	(3.866874e-03 1.567089e-02 -1.453854e-02)	(3.803015e-03 1.535760e-02 -1.428125e-02)	(6.385874e-05 3.132924e-04 -2.572957e-04)
5127          	(3.874830e-03 1.567470e-02 -1.452598e-02)	(3.811016e-03 1.536148e-02 -1.426872e-02)	(6.381416e-05 3.132191e-04 -2.572638e-04)
5128          	(3.881745e-03 1.567754e-02 -1.451219e-02)	(3.817952e-03 1.536437e-02 -1.425497e-02)	(6.379335e-05 3.131612e-04 -2.572213e-04)
5129          	(3.887220e-03 1.567916e-02 -1.449800e-02)	(3.823422e-03 1.536604e-02 -1.424084e-02)	(6.379747e-05 3.131203e-04 -2.571607e-04)
5130          	(3.890964e-03 1.567944e-02 -1.448428e-02)	(3.827144e-03 1.536635e-02 -1.422718e-02)	(6.381995e-05 3.130933e-04 -2.570971e-04)
5131          	(3.892836e-03 1.567848e-02 -1.447217e-02)	(3.828976e-03 1.536540e-02 -1.421515e-02)	(6.386024e-05 3.130806e-04 -2.570234e-04)
5132          	(3.892999e-03 1.567655e-02 -1.446200e-02)	(3.829088e-03 1.536347e-02 -1.420505e-02)	(6.391086e-05 3.130785e-04 -2.569531e-04)
5133          	(3.891574e-03 1.567376e-02 -1.445400e-02)	(3.827603e-03 1.536067e-02 -1.419712e-02)	(6.397115e-05 3.130871e-04 -2.568799e-04)
5134          	(3.888743e-03 1.567024e-02 -1.444823e-02)	(3.824709e-03 1.535714e-02 -1.419141e-02)	(6.403373e-05 3.131036e-04 -2.568191e-04)
5135          	(3.884772e-03 1.566628e-02 -1.444469e-02)	(3.820672e-03 1.535315e-02 -1.418793e-02)	(6.410024e-05 3.131298e-04 -2.567608e-04)
5136          	(3.880101e-03 1.566237e-02 -1.444352e-02)	(3.815937e-03 1.534921e-02 -1.418680e-02)	(6.416405e-05 3.131625e-04 -2.567194e-04)
5137          	(3.875035e-03 1.565877e-02 -1.444454e-02)	(3.810808e-03 1.534557e-02 -1.418785e-02)	(6.422663e-05 3.132038e-04 -2.566889e-04)
5138          	(3.869807e-03 1.565564e-02 -1.444761e-02)	(3.805524e-03 1.534239e-02 -1.419093e-02)	(6.428303e-05 3.132521e-04 -2.566845e-04)
5139          	(3.864582e-03 1.565305e-02 -1.445257e-02)	(3.800247e-03 1.533974e-02 -1.419587e-02)	(6.433485e-05 3.133078e-04 -2.566977e-04)
5140          	(3.859452e-03 1.565097e-02 -1.445927e-02)	(3.795074e-03 1.533760e-02 -1.420254e-02)	(6.437861e-05 3.133684e-04 -2.567386e-04)
5141          	(3.854450e-03 1.564930e-02 -1.446763e-02)	(3.790035e-03 1.533587e-02 -1.421083e-02)	(6.441481e-05 3.134321e-04 -2.567972e-04)
5142          	(3.849462e-03 1.564780e-02 -1.447762e-02)	(3.785023e-03 1.533431e-02 -1.422073e-02)	(6.443887e-05 3.134951e-04 -2.568845e-04)
5143          	(3.844584e-03 1.564645e-02 -1.448916e-02)	(3.780132e-03 1.533290e-02 -1.423217e-02)	(6.445229e-05 3.135561e-04 -2.569893e-04)
5144          	(3.839652e-03 1.564504e-02 -1.450230e-02)	(3.775204e-03 1.533143e-02 -1.424518e-02)	(6.444819e-05 3.136081e-04 -2.571199e-04)
5145          	(3.835080e-03 1.564373e-02 -1.451655e-02)	(3.770653e-03 1.533008e-02 -1.425928e-02)	(6.442775e-05 3.136487e-04 -2.572646e-04)
5146          	(3.830935e-03 1.564250e-02 -1.453159e-02)	(3.766549e-03 1.532883e-02 -1.427416e-02)	(6.438603e-05 3.136720e-04 -2.574286e-04)
5147          	(3.827414e-03 1.564142e-02 -1.454689e-02)	(3.763087e-03 1.532775e-02 -1.428930e-02)	(6.432697e-05 3.136778e-04 -2.575949e-04)
5148          	(3.824706e-03 1.564057e-02 -1.456191e-02)	(3.760461e-03 1.532691e-02 -1.430414e-02)	(6.424580e-05 3.136608e-04 -2.577742e-04)
5149          	(3.823063e-03 1.564002e-02 -1.457576e-02)	(3.758915e-03 1.532640e-02 -1.431781e-02)	(6.414819e-05 3.136224e-04 -2.579486e-04)
5150          	(3.822499e-03 1.563986e-02 -1.458827e-02)	(3.758467e-03 1.532630e-02 -1.433014e-02)	(6.403202e-05 3.135606e-04 -2.581267e-04)
5151          	(3.823150e-03 1.564019e-02 -1.459890e-02)	(3.759244e-03 1.532671e-02 -1.434061e-02)	(6.390618e-05 3.134814e-04 -2.582921e-04)
5152          	(3.825097e-03 1.564105e-02 -1.460721e-02)	(3.761328e-03 1.532767e-02 -1.434876e-02)	(6.376871e-05 3.133834e-04 -2.584574e-04)
5153          	(3.828372e-03 1.564245e-02 -1.461283e-02)	(3.764741e-03 1.532918e-02 -1.435422e-02)	(6.363045e-05 3.132742e-04 -2.586054e-04)
5154          	(3.832928e-03 1.564434e-02 -1.461551e-02)	(3.769437e-03 1.533119e-02 -1.435676e-02)	(6.349065e-05 3.131543e-04 -2.587508e-04)
5155          	(3.838684e-03 1.564654e-02 -1.461517e-02)	(3.775322e-03 1.533350e-02 -1.435629e-02)	(6.336226e-05 3.130330e-04 -2.588760e-04)
5156          	(3.845382e-03 1.564889e-02 -1.461165e-02)	(3.782138e-03 1.533598e-02 -1.435265e-02)	(6.324350e-05 3.129099e-04 -2.589957e-04)
5157          	(3.852711e-03 1.565115e-02 -1.460506e-02)	(3.789562e-03 1.533836e-02 -1.434596e-02)	(6.314809e-05 3.127956e-04 -2.590924e-04)
5158          	(3.860268e-03 1.565304e-02 -1.459572e-02)	(3.797194e-03 1.534035e-02 -1.433654e-02)	(6.307361e-05 3.126901e-04 -2.591807e-04)
5159          	(3.870986e-03 1.565624e-02 -1.458349e-02)	(3.807955e-03 1.534364e-02 -1.432425e-02)	(6.303099e-05 3.125956e-04 -2.592459e-04)
5160          	(3.877472e-03 1.565654e-02 -1.457065e-02)	(3.814458e-03 1.534403e-02 -1.431135e-02)	(6.301412e-05 3.125179e-04 -2.593009e-04)
5161          	(3.882831e-03 1.565607e-02 -1.455697e-02)	(3.819804e-03 1.534361e-02 -1.429765e-02)	(6.302701e-05 3.124607e-04 -2.593288e-04)
5162          	(3.886781e-03 1.565471e-02 -1.454331e-02)	(3.823721e-03 1.534229e-02 -1.428396e-02)	(6.305970e-05 3.124185e-04 -2.593502e-04)
5163          	(3.889147e-03 1.565254e-02 -1.453033e-02)	(3.826032e-03 1.534015e-02 -1.427097e-02)	(6.311527e-05 3.123958e-04 -2.593555e-04)
5164          	(3.889887e-03 1.564973e-02 -1.451863e-02)	(3.826702e-03 1.533734e-02 -1.425927e-02)	(6.318447e-05 3.123887e-04 -2.593615e-04)
5165          	(3.889123e-03 1.564654e-02 -1.450857e-02)	(3.825855e-03 1.533414e-02 -1.424922e-02)	(6.326808e-05 3.123988e-04 -2.593563e-04)
5166          	(3.887041e-03 1.564318e-02 -1.450036e-02)	(3.823682e-03 1.533075e-02 -1.424100e-02)	(6.335945e-05 3.124243e-04 -2.593546e-04)
5167          	(3.883920e-03 1.563989e-02 -1.449399e-02)	(3.820462e-03 1.532742e-02 -1.423464e-02)	(6.345802e-05 3.124654e-04 -2.593482e-04)
5168          	(3.881989e-03 1.563774e-02 -1.449009e-02)	(3.818431e-03 1.532523e-02 -1.423073e-02)	(6.355786e-05 3.125151e-04 -2.593576e-04)
5169          	(3.877794e-03 1.563531e-02 -1.448723e-02)	(3.814134e-03 1.532273e-02 -1.422786e-02)	(6.366011e-05 3.125796e-04 -2.593662e-04)
5170          	(3.875003e-03 1.563475e-02 -1.448649e-02)	(3.811244e-03 1.532210e-02 -1.422710e-02)	(6.375935e-05 3.126551e-04 -2.593927e-04)
5171          	(3.871877e-03 1.563466e-02 -1.448723e-02)	(3.808018e-03 1.532192e-02 -1.422781e-02)	(6.385867e-05 3.127437e-04 -2.594270e-04)
5172          	(3.867390e-03 1.563386e-02 -1.448870e-02)	(3.803437e-03 1.532102e-02 -1.422922e-02)	(6.395250e-05 3.128442e-04 -2.594816e-04)
5173          	(3.863142e-03 1.563362e-02 -1.449123e-02)	(3.799099e-03 1.532066e-02 -1.423169e-02)	(6.404321e-05 3.129557e-04 -2.595438e-04)
5174          	(3.859057e-03 1.563378e-02 -1.449487e-02)	(3.794932e-03 1.532071e-02 -1.423524e-02)	(6.412565e-05 3.130732e-04 -2.596256e-04)
5175          	(3.855192e-03 1.563418e-02 -1.449955e-02)	(3.790992e-03 1.532099e-02 -1.423983e-02)	(6.420082e-05 3.131950e-04 -2.597177e-04)
5176          	(3.851504e-03 1.563461e-02 -1.450532e-02)	(3.787242e-03 1.532130e-02 -1.424549e-02)	(6.426219e-05 3.133144e-04 -2.598321e-04)
5177          	(3.848018e-03 1.563489e-02 -1.451211e-02)	(3.783709e-03 1.532147e-02 -1.425216e-02)	(6.430911e-05 3.134266e-04 -2.599555e-04)
5178          	(3.845421e-03 1.563553e-02 -1.451963e-02)	(3.781087e-03 1.532201e-02 -1.425953e-02)	(6.433394e-05 3.135231e-04 -2.601006e-04)
5179          	(3.843038e-03 1.563564e-02 -1.452783e-02)	(3.778699e-03 1.532204e-02 -1.426758e-02)	(6.433931e-05 3.136016e-04 -2.602512e-04)
5180          	(3.840842e-03 1.563513e-02 -1.453650e-02)	(3.776524e-03 1.532147e-02 -1.427608e-02)	(6.431861e-05 3.136546e-04 -2.604172e-04)
5181          	(3.838904e-03 1.563385e-02 -1.454500e-02)	(3.774627e-03 1.532017e-02 -1.428442e-02)	(6.427669e-05 3.136823e-04 -2.605826e-04)
5182          	(3.837299e-03 1.563201e-02 -1.455329e-02)	(3.773091e-03 1.531834e-02 -1.429253e-02)	(6.420793e-05 3.136789e-04 -2.607558e-04)
5183          	(3.836148e-03 1.562974e-02 -1.456097e-02)	(3.772027e-03 1.531609e-02 -1.430005e-02)	(6.412053e-05 3.136486e-04 -2.609182e-04)
5184          	(3.835548e-03 1.562716e-02 -1.456770e-02)	(3.771537e-03 1.531357e-02 -1.430662e-02)	(6.401068e-05 3.135884e-04 -2.610818e-04)
5185          	(3.835740e-03 1.562444e-02 -1.457326e-02)	(3.771851e-03 1.531094e-02 -1.431203e-02)	(6.388959e-05 3.135053e-04 -2.612281e-04)
5186          	(3.836601e-03 1.562160e-02 -1.457707e-02)	(3.772847e-03 1.530820e-02 -1.431571e-02)	(6.375427e-05 3.133975e-04 -2.613677e-04)
5187          	(3.838132e-03 1.561872e-02 -1.457879e-02)	(3.774514e-03 1.530544e-02 -1.431731e-02)	(6.361838e-05 3.132748e-04 -2.614818e-04)
5188          	(3.840280e-03 1.561587e-02 -1.457813e-02)	(3.776801e-03 1.530273e-02 -1.431655e-02)	(6.347851e-05 3.131361e-04 -2.615846e-04)
5189          	(3.842942e-03 1.561311e-02 -1.457489e-02)	(3.779594e-03 1.530012e-02 -1.431323e-02)	(6.334828e-05 3.129918e-04 -2.616563e-04)
5190          	(3.845945e-03 1.561037e-02 -1.456898e-02)	(3.782720e-03 1.529752e-02 -1.430727e-02)	(6.322501e-05 3.128418e-04 -2.617113e-04)
5191          	(3.851868e-03 1.560940e-02 -1.456065e-02)	(3.788744e-03 1.529671e-02 -1.429892e-02)	(6.312392e-05 3.126937e-04 -2.617303e-04)
5192          	(3.854832e-03 1.560697e-02 -1.455034e-02)	(3.791792e-03 1.529442e-02 -1.428861e-02)	(6.304015e-05 3.125541e-04 -2.617281e-04)
5193          	(3.857482e-03 1.560471e-02 -1.453828e-02)	(3.794498e-03 1.529228e-02 -1.427659e-02)	(6.298398e-05 3.124323e-04 -2.616858e-04)
5194          	(3.859612e-03 1.560260e-02 -1.452494e-02)	(3.796664e-03 1.529028e-02 -1.426333e-02)	(6.294835e-05 3.123237e-04 -2.616179e-04)
5195          	(3.861054e-03 1.560063e-02 -1.451090e-02)	(3.798114e-03 1.528839e-02 -1.424939e-02)	(6.294028e-05 3.122353e-04 -2.615092e-04)
5196          	(3.861676e-03 1.559880e-02 -1.449681e-02)	(3.798728e-03 1.528664e-02 -1.423543e-02)	(6.294829e-05 3.121620e-04 -2.613843e-04)
5197          	(3.861458e-03 1.559718e-02 -1.448318e-02)	(3.798480e-03 1.528506e-02 -1.422195e-02)	(6.297815e-05 3.121105e-04 -2.612338e-04)
5198          	(3.860467e-03 1.559593e-02 -1.447057e-02)	(3.797449e-03 1.528386e-02 -1.420949e-02)	(6.301771e-05 3.120734e-04 -2.610768e-04)
5199          	(3.858814e-03 1.559504e-02 -1.445911e-02)	(3.795740e-03 1.528298e-02 -1.419821e-02)	(6.307357e-05 3.120579e-04 -2.609046e-04)
5200          	(3.856686e-03 1.559464e-02 -1.444900e-02)	(3.793549e-03 1.528258e-02 -1.418827e-02)	(6.313671e-05 3.120585e-04 -2.607364e-04)
5201          	(3.854307e-03 1.559484e-02 -1.444032e-02)	(3.791098e-03 1.528276e-02 -1.417975e-02)	(6.320920e-05 3.120784e-04 -2.605675e-04)
5202          	(3.851886e-03 1.559573e-02 -1.443309e-02)	(3.788603e-03 1.528361e-02 -1.417267e-02)	(6.328325e-05 3.121130e-04 -2.604155e-04)
5203          	(3.849610e-03 1.559734e-02 -1.442730e-02)	(3.786246e-03 1.528517e-02 -1.416703e-02)	(6.336443e-05 3.121672e-04 -2.602711e-04)
5204          	(3.847599e-03 1.559963e-02 -1.442292e-02)	(3.784153e-03 1.528740e-02 -1.416277e-02)	(6.344546e-05 3.122360e-04 -2.601517e-04)
5205          	(3.845916e-03 1.560251e-02 -1.441994e-02)	(3.782387e-03 1.529019e-02 -1.415989e-02)	(6.352881e-05 3.123207e-04 -2.600497e-04)
5206          	(3.844562e-03 1.560580e-02 -1.441835e-02)	(3.780953e-03 1.529339e-02 -1.415837e-02)	(6.360913e-05 3.124172e-04 -2.599791e-04)
5207          	(3.843516e-03 1.560933e-02 -1.441811e-02)	(3.779826e-03 1.529680e-02 -1.415818e-02)	(6.368999e-05 3.125263e-04 -2.599265e-04)
5208          	(3.842684e-03 1.561294e-02 -1.441919e-02)	(3.778919e-03 1.530030e-02 -1.415928e-02)	(6.376452e-05 3.126418e-04 -2.599059e-04)
5209          	(3.842070e-03 1.561640e-02 -1.442152e-02)	(3.778237e-03 1.530364e-02 -1.416162e-02)	(6.383356e-05 3.127616e-04 -2.599046e-04)
5210          	(3.841625e-03 1.561952e-02 -1.442504e-02)	(3.777736e-03 1.530664e-02 -1.416511e-02)	(6.388937e-05 3.128781e-04 -2.599343e-04)
5211          	(3.841320e-03 1.562216e-02 -1.442962e-02)	(3.777388e-03 1.530917e-02 -1.416964e-02)	(6.393246e-05 3.129882e-04 -2.599830e-04)