# k  POINT_DATA 14024
# x  y  z  k
0 0.0100383 9.88059e-08 4.50229e-07
0 -0.0100383 9.88059e-08 1.74623e-07
-6.77626e-21 0.0100383 0.000270318 4.73043e-07
-3.38813e-20 -0.0100383 0.000270355 1.58113e-07
0 0.0100383 0.000399158 5.16339e-07
-6.77626e-21 -0.0100383 0.000399216 1.59707e-07
0 0.0100383 0.000671987 6.46188e-07
0 -0.0100383 0.000672082 1.59881e-07
0 0.0100383 0.000954688 8.62987e-07
1.35525e-20 -0.0100383 0.000954778 1.52506e-07
2.71051e-20 0.0100383 0.00108461 8.92044e-07
-1.35525e-20 -0.0100383 0.00108472 1.52879e-07
0 0.0100383 0.00136726 7.78807e-07
0 -0.0100383 0.00136736 1.36313e-07
-2.03288e-20 0.0100382 0.00165828 7.88429e-07
6.77626e-21 -0.0100382 0.00165833 1.42408e-07
0 0.0100382 0.00179903 8.13713e-07
-1.35525e-20 -0.0100382 0.00179907 1.48445e-07
1.35525e-20 -0.0102118 8.66105e-08 1.53435e-07
0 0.0102118 8.66107e-08 4.73046e-07
-1.807e-20 0.0102382 0.000331506 5.08221e-07
0 -0.0102382 0.000331549 1.5377e-07
-2.71051e-20 0.0100382 0.002087 9.34419e-07
2.71051e-20 -0.0100382 0.002087 1.69207e-07
-4.51751e-21 0.0102243 0.000990461 8.61276e-07
0 -0.0102243 0.000990555 1.51886e-07
0 0.0102083 0.00163603 8.21429e-07
0 -0.0102083 0.00163609 1.48836e-07
-1.35525e-20 -0.0102224 0.00218426 2.07203e-07
2.71051e-20 0.0102224 0.00218426 1.15197e-06
0 0.010458 6.24978e-08 8.52459e-07
-2.71051e-20 -0.010458 6.24966e-08 2.2318e-07
-1.35525e-20 0.0104623 0.000144468 8.68601e-07
0 -0.0104623 0.000144482 2.25744e-07
2.25875e-21 0.0105577 0.000633897 8.86374e-07
-4.51751e-21 -0.0105577 0.000633982 1.91121e-07
1.35525e-20 0.01058 5.25664e-08 1.17134e-06
1.35525e-20 -0.01058 5.25657e-08 2.84393e-07
1.35525e-20 0.0104079 0.00203701 1.14958e-06
2.71051e-21 -0.0104079 0.00203703 2.07653e-07
-2.25875e-21 0.010539 0.0012563 5.66725e-07
6.77626e-21 -0.010539 0.00125641 1.00743e-07
0 0.0106667 9.98927e-05 1.42912e-06
-1.35525e-20 -0.0106667 9.99038e-05 3.17797e-07
7.52918e-21 0.0105324 0.00171547 7.50065e-07
7.52918e-21 -0.0105324 0.00171555 1.36264e-07
0 0.0104246 0.00229102 1.30645e-06
-1.35525e-20 -0.0104246 0.00229102 2.40616e-07
0 -0.0106751 3.95308e-08 3.1993e-07
1.35525e-20 0.0106752 3.95301e-08 1.44163e-06
0 0.0105566 0.00221564 1.32674e-06
1.35525e-20 -0.0105566 0.00221565 2.46361e-07
1.35525e-20 -0.0105735 0.00236965 2.70771e-07
1.35525e-20 0.0105735 0.00236965 1.43256e-06
0 -0.0108504 0.000315325 4.16313e-07
0 0.0108504 0.000315285 1.93681e-06
2.71051e-20 0.0108348 0.000932849 3.00516e-07
-2.71051e-20 -0.0108348 0.000932939 5.85922e-08
-2.71051e-20 0.0108178 0.0015192 2.21526e-07
0 -0.0108178 0.00151928 3.97136e-08
-1.35525e-20 -0.0106814 0.00242665 2.91554e-07
1.35525e-20 0.0106814 0.00242665 1.51443e-06
0 -0.0107334 0.002339 2.89731e-07
1.35525e-20 0.0107334 0.00233899 1.50605e-06
-6.77626e-21 -0.0110782 8.04033e-09 4.70134e-07
0 0.0110782 8.03996e-09 2.417e-06
0 -0.0110788 6.39066e-05 4.71028e-07
6.77626e-21 0.0110788 6.38974e-05 2.42368e-06
0 -0.0111402 -5.0826e-11 4.86724e-07
0 0.0111402 -5.09721e-11 2.55313e-06
-1.12938e-21 0.0111346 0.0006105 1.48801e-06
-2.25875e-21 -0.0111346 0.000610587 2.81766e-07
1.12938e-21 0.0111195 0.00122922 3.02461e-07
-2.25875e-21 -0.0111195 0.00122932 5.35971e-08
0 0.0110331 0.00190695 7.54969e-07
-1.807e-21 -0.0110331 0.00190701 1.41577e-07
0 0.0111969 4.05707e-11 2.67253e-06
0 -0.0111969 4.06969e-11 5.01827e-07
0 0.011197 5.94825e-05 2.6711e-06
0 -0.011197 5.94923e-05 5.01662e-07
2.71051e-20 0.0109687 0.00229798 1.63047e-06
0 -0.0109687 0.002298 3.19168e-07
0 0.0109784 0.0025835 1.73655e-06
1.35525e-20 -0.0109784 0.0025835 3.39262e-07
0 0.0110322 0.00252115 1.73948e-06
-1.35525e-20 -0.0110322 0.00252116 3.39875e-07
-1.35525e-20 -0.0110647 0.00262905 3.51399e-07
1.35525e-20 0.0110647 0.00262905 1.79855e-06
0 -0.0114329 0.000303637 5.56718e-07
-2.71051e-20 0.0114329 0.000303602 3.16226e-06
0 -0.0111379 0.00266759 3.60167e-07
0 0.0111379 0.00266759 1.84206e-06
0 -0.0111676 0.0026113 3.59639e-07
1.35525e-20 0.0111676 0.0026113 1.83932e-06
-2.71051e-20 0.0114367 0.000916218 4.95782e-07
-2.71051e-20 -0.0114367 0.000916296 8.36013e-08
6.02335e-21 0.011273 0.00233142 1.33354e-06
-1.50584e-21 -0.011273 0.00233144 2.58774e-07
-2.71051e-20 0.0114108 0.00155884 1.93664e-07
-2.71051e-20 -0.0114108 0.00155891 3.27853e-08
0 0.0114547 0.00210257 3.98085e-07
-2.71051e-20 -0.0114548 0.00210261 7.20133e-08
0 -0.0116763 1.11166e-09 6.49453e-07
0 0.0116763 1.11171e-09 3.53744e-06
0 -0.0116771 3.85435e-05 6.49597e-07
0 0.0116771 3.8534e-05 3.53798e-06
-2.71051e-20 0.011407 0.00257358 1.94632e-06
-2.71051e-20 -0.011407 0.00257359 3.80014e-07
0 -0.0117135 1.17278e-09 6.63685e-07
-6.77626e-21 0.0117135 1.17283e-09 3.59576e-06
-6.77626e-21 0.0117497 1.11165e-09 3.64753e-06
6.77626e-21 -0.0117497 1.11158e-09 6.76676e-07
0 0.0117514 3.59557e-05 3.64712e-06
0 -0.0117514 3.59627e-05 6.76582e-07
-1.12938e-21 0.0117364 0.000596544 2.11608e-06
-1.69407e-21 -0.0117364 0.000596601 3.86221e-07
-5.64689e-22 0.0117435 0.00122269 4.21524e-07
5.64689e-22 -0.0117435 0.00122276 7.33071e-08
6.77626e-21 0.0114702 0.00284265 2.83962e-06
-6.77626e-21 -0.0114702 0.00284265 5.65432e-07
-6.77626e-21 0.0114996 0.00279927 2.85246e-06
-6.77626e-21 -0.0114996 0.00279927 5.68105e-07
0 0.0115305 0.00287442 3.15642e-06
0 -0.0115305 0.00287442 6.32623e-07
3.38813e-21 0.0117521 0.00184882 3.67629e-07
0 -0.0117521 0.00184887 7.20269e-08
-1.35525e-20 -0.011585 0.00290382 6.95266e-07
6.77626e-21 0.011585 0.00290383 3.45834e-06
-5.64689e-21 0.0117097 0.00240795 1.84838e-06
4.51751e-21 -0.0117097 0.00240797 3.70093e-07
0 -0.01162 0.00284239 6.92033e-07
0 0.01162 0.00284239 3.44305e-06
0 -0.0120252 0.000293165 7.7076e-07
0 0.0120252 0.000293146 4.02749e-06
2.71051e-20 0.0120563 0.000895205 7.02193e-07
2.71051e-20 -0.0120563 0.000895248 1.19281e-07
-2.71051e-20 0.0120785 0.0015256 2.87246e-07
2.71051e-20 -0.0120785 0.00152564 5.63558e-08
2.71051e-20 0.0119134 0.00273995 4.35037e-06
-2.71051e-20 -0.0119134 0.00273996 8.80167e-07
-2.71051e-20 0.0120751 0.00217652 5.9108e-07
0 -0.0120751 0.00217654 1.27486e-07
-3.38813e-21 -0.0122802 1.16251e-10 8.04287e-07
-3.38813e-21 0.0122802 1.16247e-10 4.09188e-06
0 -0.0122814 2.10156e-05 8.04299e-07
-3.38813e-21 0.0122814 2.10087e-05 4.09188e-06
3.38813e-21 -0.0123014 8.01245e-11 8.07033e-07
3.38813e-21 0.0123014 8.01301e-11 4.09725e-06
-3.38813e-21 0.012322 7.76986e-11 4.10066e-06
0 -0.012322 7.76925e-11 8.09385e-07
0 0.0123232 1.85971e-05 4.10062e-06
-3.38813e-21 -0.0123232 1.86029e-05 8.09371e-07
0 0.01193 0.00308971 4.24532e-06
0 -0.01193 0.00308971 8.91066e-07
6.77626e-21 0.0119644 0.0030398 4.2427e-06
6.77626e-21 -0.0119644 0.0030398 8.909e-07
-1.12938e-21 0.0123483 0.000568672 2.44797e-06
0 -0.0123483 0.000568694 4.75073e-07
0 -0.0119766 0.00311487 8.94051e-07
6.77626e-21 0.0119766 0.00311487 4.21539e-06
0 -0.0120209 0.00313842 8.9658e-07
0 0.0120209 0.00313842 4.1984e-06
-1.35525e-20 -0.0120441 0.00309412 8.96197e-07
6.77626e-21 0.0120441 0.00309412 4.19815e-06
1.12938e-21 0.012391 0.00118191 5.66398e-07
1.69407e-21 -0.012391 0.00118194 1.08605e-07
5.64689e-22 0.0124059 0.00184694 4.53798e-07
-1.12938e-21 -0.0124059 0.00184696 1.06133e-07
2.71051e-20 0.0126198 0.000269535 4.16494e-06
2.71051e-20 -0.0126198 0.000269545 8.43115e-07
1.807e-21 0.0123629 0.00258809 2.15695e-06
9.03502e-22 -0.0123629 0.00258809 4.65429e-07
2.71051e-20 -0.012324 0.00300712 9.0495e-07
2.71051e-20 0.012324 0.00300712 4.08077e-06
0 0.0126818 0.000839769 7.99341e-07
0 -0.0126819 0.000839778 1.46563e-07
0 -0.0123691 0.00332403 9.09977e-07
6.77626e-21 0.0123692 0.00332402 3.94588e-06
2.71051e-20 0.0127333 0.00147339 4.69241e-07
0 -0.0127333 0.0014734 1.10947e-07
6.77626e-21 -0.0123952 0.00328327 9.09749e-07
6.77626e-21 0.0123952 0.00328326 3.94298e-06
-6.77626e-21 -0.0124114 0.00334656 9.07799e-07
0 0.0124115 0.00334656 3.89126e-06
0 -0.0128908 5.71212e-06 8.27338e-07
0 0.0128903 3.97342e-12 3.75515e-06
0 -0.0128967 3.22163e-12 8.26952e-07
8.47033e-22 0.0128967 3.22196e-12 3.74616e-06
0 -0.0124524 0.00336833 9.07614e-07
0 0.0124525 0.00336833 3.84731e-06
0 0.0129024 4.47165e-06 3.73717e-06
0 -0.0129024 4.47647e-06 8.27559e-07
-6.77626e-21 -0.0124699 0.00333453 9.07468e-07
6.77626e-21 0.01247 0.00333453 3.84895e-06
0 0.0127306 0.0021762 4.68691e-07
2.71051e-20 -0.0127306 0.00217621 1.30206e-07
0 0.0129435 0.000502357 2.44832e-06
0 -0.0129436 0.000502359 5.34892e-07
-3.89635e-20 0.0129444 0.000510125 2.41742e-06
1.69407e-21 -0.0129526 0.000508428 5.29494e-07
0 -0.0126107 0.00303067 6.81088e-07
-2.25875e-21 0.0126107 0.00303067 2.93308e-06
0 0.0127835 0.00277774 9.19991e-07
0 -0.0127835 0.00277774 2.04652e-07
-1.97641e-22 -0.0130621 0.00107673 3.20516e-07
1.41172e-22 0.0130621 0.00107673 1.30741e-06
-2.71051e-20 -0.0127348 0.00327342 9.10793e-07
-2.71051e-20 0.0127349 0.00327342 3.70163e-06
0 0.0131536 0.000461241 3.24642e-06
0 -0.0131537 0.000461237 7.48662e-07
0 0.0131765 0.000218763 3.32599e-06
2.71051e-20 -0.0131765 0.000218756 8.10925e-07
4.23516e-22 0.0131833 1.68074e-12 4.70956e-06
0 -0.0131834 1.67988e-12 1.09358e-06
8.47033e-22 0.013081 0.00177272 7.58426e-07
-1.12938e-21 -0.013081 0.00177273 2.50476e-07
0 0.0127833 0.00354412 4.83144e-06
0 -0.0127833 0.00354413 1.32687e-06
-1.35525e-20 0.0128061 0.00351006 4.84539e-06
0 -0.0128061 0.00351007 1.33191e-06
5.64689e-22 0.0130749 0.00248236 8.21686e-07
0 -0.0130749 0.00248236 2.71282e-07
6.77626e-21 0.0128267 0.00356714 5.00778e-06
6.77626e-21 -0.0128267 0.00356715 1.40377e-06
0 0.0132939 0.000722069 1.28921e-06
0 -0.0132939 0.000722074 2.89636e-07
1.35525e-20 -0.0128705 0.00359021 1.53878e-06
6.77626e-21 0.0128705 0.0035902 5.30806e-06
0 -0.0129024 0.00352957 1.52265e-06
0 0.0129024 0.00352956 5.27937e-06
0 -0.0130201 0.00308568 8.68707e-07
-1.12938e-21 0.0130201 0.00308568 3.09576e-06
0 -0.0133991 0.000404506 1.00876e-06
0 0.0133991 0.000404507 4.22756e-06
0 0.013401 0.000412597 4.25321e-06
6.77626e-21 -0.013401 0.000412597 1.01518e-06
8.47033e-22 0.0134864 4.8798e-06 5.69854e-06
0 -0.0134865 4.88093e-06 1.36815e-06
-8.47033e-22 0.0134935 6.35544e-15 5.75288e-06
0 -0.0134936 6.33962e-15 1.38182e-06
-2.71051e-20 0.0134291 0.0013211 1.17958e-06
0 -0.0134291 0.0013211 3.3375e-07
8.47033e-22 0.0134987 6.99577e-06 5.8084e-06
0 -0.0134988 6.99782e-06 1.3949e-06
0 0.0135005 6.30778e-15 5.80909e-06
0 -0.0135006 6.29213e-15 1.39506e-06
-2.71051e-20 0.0134156 0.00209107 9.4715e-07
0 -0.0134156 0.00209107 4.27429e-07
0 0.0131946 0.003407 6.34408e-06
2.71051e-20 -0.0131946 0.00340701 1.90504e-06
2.71051e-20 -0.0133762 0.00281985 3.37523e-07
0 0.0133762 0.00281985 9.52005e-07
0 0.0131542 0.00373938 6.38658e-06
0 -0.0131543 0.00373939 1.96121e-06
1.35525e-20 0.0132115 0.00367304 6.41732e-06
0 -0.0132115 0.00367305 1.96714e-06
0 0.0137224 0.000302331 8.18254e-06
-2.71051e-20 -0.0137225 0.000302334 1.95302e-06
0 0.0132141 0.00377084 6.37571e-06
0 -0.0132141 0.00377085 1.95313e-06
-2.25875e-22 0.0137748 0.000790616 6.40806e-06
-2.82344e-22 -0.0137748 0.000790615 1.70127e-06
0 0.0132699 0.00380392 6.5989e-06
0 -0.0132699 0.00380392 2.03269e-06
0 0.0133033 0.0037381 6.60052e-06
1.35525e-20 -0.0133033 0.0037381 2.02962e-06
-6.35275e-22 0.013766 0.00148261 3.25179e-06
-2.11758e-22 -0.013766 0.00148308 1.08827e-06
-6.56451e-21 0.0137616 0.00166834 2.39757e-06
-2.11758e-22 -0.0137654 0.0016726 9.2307e-07
-1.12938e-21 0.0137168 0.00245604 1.51844e-06
-2.82344e-22 -0.0137168 0.00245604 7.93129e-07
-9.03502e-22 0.0136289 0.00324654 3.59018e-06
-4.51751e-22 -0.0136289 0.00324654 1.22223e-06
-2.71051e-20 0.0135494 0.00365539 6.73131e-06
-2.71051e-20 -0.0135494 0.00365539 2.09506e-06
1.69407e-21 0.0140721 1.55614e-05 1.25149e-05
1.69407e-21 -0.0140722 1.55723e-05 3.27375e-06
0 0.0140756 -2.0176e-16 1.2512e-05
-1.69407e-21 -0.0140757 -2.01911e-16 3.27287e-06
3.38813e-21 0.0140911 -3.05359e-16 1.27503e-05
0 -0.0140912 -3.0516e-16 3.34525e-06
1.69407e-21 0.0141007 2.2037e-05 1.29879e-05
0 -0.0141008 2.20527e-05 3.41682e-06
0 0.0141074 -2.98024e-16 1.29933e-05
1.69407e-21 -0.0141076 -2.97827e-16 3.41844e-06
0 -0.0135544 0.00397426 2.06388e-06
0 0.0135544 0.00397427 6.50465e-06
0 -0.0140341 0.00165404 1.76731e-06
-2.11758e-22 0.0140348 0.001654 3.99736e-06
-6.77626e-21 -0.0135849 0.0039369 2.06286e-06
0 0.0135849 0.00393691 6.50275e-06
0 -0.0135876 0.00399408 2.03089e-06
6.77626e-21 0.0135876 0.00399409 6.40577e-06
-2.71051e-20 0.0141246 0.00121981 4.73991e-06
0 -0.0141246 0.00121981 1.40796e-06
6.77626e-21 0.0136161 0.00401528 6.47863e-06
0 -0.0136161 0.00401529 2.05906e-06
0 0.013638 0.00398927 6.47919e-06
-6.77626e-21 -0.013638 0.00398927 2.05889e-06
-2.71051e-20 0.0140719 0.00204106 2.8856e-06
5.42101e-20 -0.0140719 0.00204106 1.53993e-06
2.71051e-20 0.0142772 0.000421917 1.73794e-05
0 -0.0142772 0.000421919 4.75559e-06
0 0.0140129 0.00281709 1.3962e-06
2.71051e-20 -0.0140129 0.00281709 9.18768e-07
0 -0.0138313 0.00369716 1.61556e-06
3.76459e-22 0.0138313 0.00369716 4.96048e-06
2.71051e-20 0.0140444 0.00346029 1.67295e-06
-2.71051e-20 -0.0140444 0.00346029 6.63156e-07
0 0.0139247 0.00394753 6.2132e-06
-2.71051e-20 -0.0139247 0.00394753 2.01784e-06
-4.23516e-22 -0.0144296 0.00162635 2.99584e-06
4.23516e-22 0.0144296 0.00162636 6.32586e-06
-1.05879e-20 -0.0144358 0.00162651 3.01191e-06
0 0.0144292 0.00163346 6.34559e-06
2.11758e-22 0.0144133 0.00187151 5.39209e-06
2.11758e-22 -0.0144133 0.00187201 2.88249e-06
3.38813e-21 -0.0139302 0.00424974 2.03211e-06
0 0.0139302 0.00424974 5.89506e-06
0 0.0145459 0.000829512 1.54453e-05
-1.41172e-21 -0.0145459 0.000829511 4.77358e-06
-1.41172e-22 0.0143705 0.00241704 3.24935e-06
5.64689e-22 -0.0143705 0.00241704 2.59661e-06
0 -0.0139467 0.00423388 2.03183e-06
3.38813e-21 0.0139467 0.00423389 5.89195e-06
-3.38813e-21 -0.0139493 0.00426393 2.03615e-06
0 0.0139493 0.00426393 5.86736e-06
-3.38813e-21 0.0139672 0.00427742 5.82891e-06
3.38813e-21 -0.0139673 0.00427743 2.03682e-06
0 0.0139799 0.00425949 5.82913e-06
3.38813e-21 -0.0139799 0.00425949 2.03658e-06
-2.82344e-22 0.0143443 0.0031393 1.94921e-06
8.47033e-22 -0.0143443 0.0031393 1.64571e-06
0 -0.0146845 2.60901e-05 6.4198e-06
0 0.0146845 2.60619e-05 2.20711e-05
-3.38813e-21 -0.0146916 -2.56338e-19 6.41722e-06
-3.38813e-21 0.0146916 -2.5093e-19 2.20639e-05
0 -0.0147109 8.3978e-18 6.52749e-06
0 0.0147109 8.40222e-18 2.23777e-05
0 0.0147271 2.99299e-05 2.26544e-05
-3.38813e-21 -0.0147271 2.99641e-05 6.61808e-06
0 0.0147301 8.1741e-18 2.26592e-05
3.38813e-21 -0.0147302 8.16959e-18 6.61963e-06
-1.69407e-21 0.0143144 0.00384164 3.47804e-06
-5.64689e-22 -0.0143144 0.00384165 1.47778e-06
2.71051e-20 -0.0147153 0.00202632 4.38815e-06
0 0.0147153 0.00202632 5.55821e-06
2.71051e-20 -0.0148123 0.00125345 4.60348e-06
2.71051e-20 0.0148123 0.00125345 1.21741e-05
-5.42101e-20 0.0142662 0.00421646 5.49432e-06
0 -0.0142662 0.00421647 2.04445e-06
0 0.0146941 0.00275223 3.13956e-06
2.71051e-20 -0.0146941 0.00275223 3.4846e-06
0 -0.0149583 0.000465189 8.18891e-06
2.71051e-20 0.0149583 0.000465187 2.70757e-05
0 -0.0143128 0.00453664 2.05844e-06
0 0.0143129 0.00453665 5.31684e-06
1.69407e-21 -0.0143174 0.0045308 2.05838e-06
1.69407e-21 0.0143174 0.00453082 5.31647e-06
0 -0.014319 0.00454125 2.05951e-06
0 0.014319 0.00454125 5.31212e-06
0 0.0143246 0.00454547 5.30805e-06
0 -0.0143246 0.00454547 2.06081e-06
0 0.014329 0.00454047 5.30793e-06
0 -0.014329 0.00454047 2.06071e-06
0 0.0146519 0.00346949 1.68725e-06
2.71051e-20 -0.0146519 0.00346949 1.67995e-06
0 -0.0145371 0.00427137 1.66435e-06
-4.23516e-22 0.0145371 0.00427137 4.12242e-06
-1.8823e-22 -0.0150759 0.00166227 6.59422e-06
0 0.0150759 0.00166227 1.07629e-05
0 0.0146079 0.0042979 3.92418e-06
0 -0.0146083 0.00429801 1.67752e-06
-5.29396e-22 -0.0150582 0.00232575 6.47632e-06
1.05879e-22 0.0150585 0.0023257 6.35679e-06
0 0.0147146 0.00405696 1.75618e-06
0 -0.0147146 0.00405696 8.77167e-07
0 -0.0151053 0.00231902 6.74423e-06
3.52048e-20 0.0151053 0.00231902 6.56964e-06
0 0.015093 0.00240332 6.21554e-06
2.64698e-22 -0.0150929 0.00240387 6.55771e-06
1.69407e-21 0.014553 0.00471681 4.93009e-06
4.23516e-22 -0.0145535 0.00471718 2.06505e-06
4.23516e-22 0.0149811 0.00311066 3.20799e-06
4.23516e-22 -0.0149812 0.00311066 4.96707e-06
-9.74088e-21 0.0149807 0.00311889 3.20768e-06
0 -0.0149884 0.00311084 4.98771e-06
5.42101e-20 0.0146393 0.00452216 5.1048e-06
0 -0.0146393 0.00452217 2.06596e-06
0 -0.0153521 2.62975e-05 1.01071e-05
0 0.0153522 2.62884e-05 3.01571e-05
0 -0.0153541 1.06036e-19 1.01046e-05
0 0.0153541 1.06058e-19 3.01532e-05
5.64689e-22 -0.0153336 0.000981682 9.18619e-06
-5.64689e-22 0.0153336 0.000981684 2.23315e-05
-3.38813e-21 -0.015371 -9.43424e-20 1.02147e-05
0 0.015371 -9.43934e-20 3.03344e-05
-3.38813e-21 0.0153889 1.38802e-05 3.05182e-05
0 -0.0153889 1.38838e-05 1.03284e-05
0 0.0153893 -9.17904e-20 3.05192e-05
0 -0.0153893 -9.17398e-20 1.0329e-05
0 0.0146775 0.00480513 4.73533e-06
0 -0.0146713 0.00480158 2.06782e-06
0 -0.0149797 0.00377544 2.77843e-06
-2.49875e-20 0.0149766 0.00377561 2.00871e-06
-6.35275e-22 0.0149779 0.00383376 2.08937e-06
8.47033e-22 -0.0149779 0.00383404 2.68564e-06
-2.71051e-20 0.0153191 0.00276241 5.11885e-06
5.42101e-20 -0.0153191 0.00276241 8.45903e-06
2.25875e-22 -0.0149757 0.00442242 1.74148e-06
-6.77626e-22 0.0149757 0.00442242 2.91713e-06
2.71051e-20 0.0152934 0.00343578 2.89707e-06
0 -0.0152934 0.00343579 6.2705e-06
0 0.0149462 0.00476533 4.36188e-06
-2.71051e-20 -0.0149462 0.00476533 2.05691e-06
-5.42101e-20 0.0157071 0.00173869 1.63346e-05
5.42101e-20 -0.0157071 0.00173869 1.29921e-05
2.71051e-20 0.0152785 0.00409439 1.7453e-06
0 -0.0152785 0.0040944 2.56981e-06
0 0.014998 0.00505066 4.45805e-06
0 -0.014998 0.00505067 2.19764e-06
0 0.0150083 0.00502928 4.4556e-06
0 -0.0150083 0.00502931 2.19598e-06
-8.68209e-21 -0.01566 0.00240905 1.42405e-05
0 0.01566 0.00240905 9.17364e-06
0 -0.0150173 0.00506515 2.22994e-06
0 0.0150173 0.00506514 4.49832e-06
-2.11758e-22 0.015642 0.00267535 7.60904e-06
0 -0.015642 0.00267557 1.36018e-05
0 -0.0150364 0.00507946 2.22771e-06
0 0.0150364 0.00507947 4.47916e-06
-6.77626e-21 -0.0150495 0.00506281 2.22745e-06
0 0.0150495 0.00506281 4.47732e-06
-5.42101e-20 0.015871 0.000522609 3.58763e-05
-5.42101e-20 -0.0158711 0.00052261 1.36653e-05
0 -0.0156198 0.00308833 1.261e-05
0 0.0156143 0.00308867 5.17697e-06
-1.50584e-21 0.0151805 0.0048173 3.37374e-06
0 -0.0151805 0.0048173 1.84497e-06
0 0.0153242 0.00462128 1.12799e-06
-2.71051e-20 -0.0153242 0.00462128 1.092e-06
-4.23516e-22 0.0155928 0.00376523 2.89197e-06
2.82344e-22 -0.0155928 0.00376523 8.86123e-06
-2.71051e-20 0.0152849 0.0050422 4.55191e-06
0 -0.0152849 0.0050422 2.35641e-06
0 -0.015956 0.00273569 2.02994e-05
-2.71051e-20 0.015956 0.00273569 8.7358e-06
3.5293e-23 -0.0156111 0.00436319 5.09885e-06
1.41172e-22 0.0156111 0.00436314 2.03424e-06
0 0.01536 0.00532139 6.87582e-06
0 -0.015359 0.00532072 3.90472e-06
2.71051e-20 -0.0159107 0.00341804 1.55594e-05
0 0.0159107 0.00341804 4.06535e-06
0 -0.0153751 0.00533351 3.97774e-06
1.05879e-22 0.0153755 0.00533384 6.97185e-06
0 0.0155376 0.00491086 4.28445e-06
1.12938e-21 -0.0155376 0.00491087 3.00893e-06
2.71051e-20 0.015907 0.00407426 2.87997e-06
0 -0.015907 0.00407427 1.11615e-05
0 0.0163929 0.00113505 3.30372e-05
-2.82344e-22 -0.0163929 0.00113505 2.44717e-05
1.69407e-21 -0.0164714 7.31819e-06 2.12361e-05
-1.69407e-21 0.0164714 7.30942e-06 4.25669e-05
0 -0.0164715 3.37843e-21 2.12354e-05
0 0.0164715 3.38102e-21 4.25662e-05
0 -0.0164799 3.92501e-21 2.13366e-05
0 0.0164799 3.92783e-21 4.26557e-05
0 0.0164875 7.98184e-06 4.27496e-05
0 -0.0164875 7.99151e-06 2.14391e-05
0 0.0164879 3.93933e-21 4.27498e-05
1.69407e-21 -0.0164879 3.93671e-21 2.14393e-05
8.47033e-22 -0.0162419 0.00306677 2.17195e-05
2.82344e-22 0.0162419 0.00306677 6.67092e-06
0 -0.0163552 0.00243071 2.57455e-05
1.05879e-22 0.0163553 0.00243042 1.34899e-05
1.19643e-20 -0.0163749 0.00231073 2.65092e-05
1.05879e-22 0.0163752 0.00230864 1.47849e-05
2.71051e-20 0.0156952 0.00522881 9.30664e-06
0 -0.0156952 0.00522881 5.52754e-06
0 0.0158708 0.00471772 2.03114e-06
0 -0.0158708 0.00471773 3.25234e-06
0 -0.0156945 0.00557308 5.47861e-06
0 0.0156945 0.00557309 8.89929e-06
1.69407e-21 -0.0157031 0.00556196 5.47795e-06
0 0.0157031 0.00556198 8.89808e-06
0 -0.0157032 0.00557964 5.46693e-06
0 0.0157032 0.00557964 8.86529e-06
-1.69407e-21 0.0157125 0.0055866 8.85018e-06
0 -0.0157125 0.00558661 5.46776e-06
0 0.0157204 0.00557597 8.85037e-06
0 -0.0157205 0.00557597 5.46743e-06
1.41172e-22 -0.0163001 0.00366347 1.98249e-05
-2.82344e-22 0.0163001 0.00366347 4.29897e-06
1.41172e-22 0.0161921 0.00441855 2.86256e-06
2.82344e-22 -0.0161921 0.00441855 1.22761e-05
-2.35287e-22 -0.0161069 0.00511691 5.70077e-06
3.76459e-22 0.0161069 0.0051169 5.06631e-06
2.71051e-20 0.01604 0.00551404 8.42141e-06
5.42101e-20 -0.01604 0.00551404 5.39146e-06
2.71051e-20 -0.016526 0.00408753 2.42517e-05
5.42101e-20 0.016526 0.00408753 4.1915e-06
0 0.0170249 0.000578089 4.93417e-05
0 -0.0170249 0.000578088 2.89001e-05
0 0.0169748 0.00175444 2.96571e-05
-5.42101e-20 -0.0169748 0.00175444 4.21819e-05
0 -0.0160444 0.00583567 5.36523e-06
0 0.0160444 0.00583566 7.98105e-06
3.38813e-21 -0.0160574 0.00581994 5.36448e-06
0 0.0160574 0.00581994 7.9793e-06
0 0.0160586 0.00584628 7.93023e-06
0 -0.0160586 0.00584629 5.35286e-06
0 0.0160728 0.00585689 7.88996e-06
3.38813e-21 -0.0160728 0.00585691 5.34822e-06
-3.38813e-21 0.0160861 0.00584361 7.89063e-06
3.38813e-21 -0.0160861 0.00584362 5.34794e-06
0 -0.0168748 0.00305299 3.37684e-05
0 0.0168748 0.00305299 7.2391e-06
0 0.0164851 0.00475809 2.40173e-06
0 -0.0164851 0.00475809 1.09352e-05
-1.8823e-22 0.0163205 0.005565 6.18901e-06
0 -0.0163205 0.00556501 5.03776e-06
-1.8823e-22 0.0168571 0.00373388 5.52769e-06
8.47033e-22 -0.0168571 0.00373388 3.15478e-05
0 0.0165295 0.00534686 2.57203e-06
0 -0.0165295 0.00534686 4.38838e-06
-5.64689e-22 -0.0168299 0.0044115 2.56045e-05
4.23516e-22 0.0168299 0.0044115 4.21726e-06
2.71051e-20 0.0164078 0.00581578 7.43721e-06
0 -0.0164078 0.00581579 5.3082e-06
3.38813e-21 -0.0163998 0.00610069 5.27052e-06
0 0.0163998 0.00610068 7.01078e-06
-3.38813e-21 0.0164127 0.00608898 7.00956e-06
3.38813e-21 -0.0164127 0.00608898 5.2701e-06
0 0.0164129 0.00611042 6.97477e-06
-3.38813e-21 -0.0164129 0.00611043 5.2658e-06
0 0.016425 0.00612105 6.93962e-06
0 -0.016425 0.00612106 5.26178e-06
0 0.0164353 0.00610824 6.94019e-06
0 -0.0164353 0.00610825 5.2616e-06
-8.47033e-22 -0.0168163 0.00505861 1.43904e-05
4.23516e-22 0.0168163 0.00505861 3.05254e-06
0 -0.0176215 4.77892e-06 4.0437e-05
-8.47033e-22 0.0176265 -3.90468e-24 5.38522e-05
8.47033e-22 0.0176313 4.81285e-06 5.39174e-05
-8.47033e-22 -0.0176314 -3.86162e-24 4.06016e-05
5.64689e-22 0.0175955 0.00115783 4.40337e-05
0 -0.0175956 0.00115783 5.26498e-05
0 -0.017176 0.0040533 3.71461e-05
0 0.017176 0.0040533 5.79535e-06
6.60686e-20 -0.0175451 0.00239264 5.86041e-05
0 0.0175451 0.00239265 2.18515e-05
3.98105e-20 -0.0175529 0.00240109 5.87434e-05
0 0.017553 0.00239273 2.17897e-05
-2.25875e-22 -0.016789 0.00571973 6.58088e-06
-2.25875e-22 0.016789 0.00571973 4.46361e-06
-2.71051e-20 -0.0171455 0.00472285 2.99285e-05
0 0.0171455 0.00472285 4.47092e-06
5.42101e-20 0.0167243 0.00608098 6.50658e-06
0 -0.0167243 0.00608098 5.21698e-06
-5.29396e-23 -0.0175066 0.00343173 4.77024e-05
1.58819e-22 0.0175066 0.00343177 8.85783e-06
0 -0.0175023 0.00354698 4.64822e-05
5.29396e-23 0.0175024 0.00354592 7.42564e-06
0 -0.0167347 0.00638838 5.51619e-06
3.38813e-21 0.0167347 0.00638838 6.54146e-06
3.38813e-21 -0.0167445 0.00637729 5.51647e-06
0 0.0167445 0.0063773 6.5413e-06
-3.38813e-21 -0.0167456 0.00639795 5.53826e-06
0 0.0167456 0.00639795 6.54469e-06
5.29396e-23 0.0175745 0.00356409 7.5178e-06
0 -0.0175745 0.0035641 4.76812e-05
3.38813e-21 0.0167557 0.00640831 6.54651e-06
0 -0.0167557 0.00640832 5.55929e-06
0 0.0167665 0.00639832 6.54623e-06
3.38813e-21 -0.0167665 0.00639832 5.55855e-06
-2.71051e-20 0.017128 0.00537448 2.845e-06
2.71051e-20 -0.017128 0.00537448 1.34802e-05
-2.0117e-20 -0.0174754 0.00438289 4.08767e-05
3.1552e-20 0.0174755 0.00437875 5.99992e-06
3.76459e-22 -0.0169872 0.00615002 5.39654e-06
9.41148e-22 0.0169872 0.00615002 5.14963e-06
0 -0.0174587 0.00503849 3.21662e-05
1.43996e-20 0.0174538 0.00503866 4.89244e-06
0 0.0171853 0.00594727 2.30027e-06
-2.71051e-20 -0.0171853 0.00594727 5.10983e-06
0 0.0182056 0.000582761 5.84729e-05
0 -0.0182056 0.000582755 5.22537e-05
0 0.0170678 0.00640561 6.57557e-06
-5.42101e-20 -0.0170678 0.00640561 5.85166e-06
-5.42101e-20 -0.0177914 0.004032 4.86274e-05
5.42101e-20 0.0177914 0.004032 6.87111e-06
-5.42101e-20 0.018185 0.00177763 3.82697e-05
-5.42101e-20 -0.018185 0.00177763 8.78965e-05
0 -0.0170411 0.00670226 5.76251e-06
-3.38813e-21 0.0170411 0.00670226 6.23185e-06
-3.38813e-21 -0.0170521 0.00669292 5.7621e-06
0 0.0170521 0.00669292 6.23106e-06
0 -0.017051 0.00671245 5.75613e-06
0 0.017051 0.00671244 6.20801e-06
0 0.0170609 0.00672261 6.1829e-06
3.38813e-21 -0.0170609 0.00672262 5.74887e-06
-3.38813e-21 0.0170703 0.0067113 6.18327e-06
0 -0.0170703 0.0067113 5.74879e-06
4.23516e-22 -0.0174549 0.00566696 1.75141e-05
-7.6233e-21 0.0174549 0.00566696 3.36961e-06
0 -0.0174621 0.00566666 1.75748e-05
-2.49875e-20 0.0174555 0.00567336 3.37805e-06
2.71051e-20 -0.0177854 0.00469986 4.76229e-05
2.71051e-20 0.0177854 0.00469986 6.82659e-06
5.42101e-20 0.0181697 0.0030568 1.10275e-05
0 -0.0181697 0.0030568 7.02949e-05
4.23516e-22 0.0181311 0.00370549 8.21041e-06
0 -0.0181311 0.00370549 5.68166e-05
4.23516e-22 0.0181386 0.00370544 8.23196e-06
-1.2282e-20 -0.0181386 0.00370544 5.69539e-05
4.51751e-22 -0.0174312 0.00632674 7.52741e-06
0 0.0174312 0.00632674 4.12291e-06
0 -0.0177791 0.00534408 3.76482e-05
5.42101e-20 0.0177791 0.00534408 5.4387e-06
2.71051e-20 0.0173547 0.00669604 5.83369e-06
-2.71051e-20 -0.0173547 0.00669604 5.65286e-06
0 -0.0181107 0.00435386 5.17659e-05
0 0.0181107 0.00435393 7.30538e-06
0 -0.0181104 0.00436061 5.17122e-05
0 0.0181104 0.00436061 7.29588e-06
-6.61744e-23 0.0181186 0.00436044 7.31679e-06
0 -0.0181187 0.00436044 5.18428e-05
0 -0.017346 0.00701596 6.04492e-06
0 0.017346 0.00701596 5.95314e-06
0 -0.017356 0.00700506 6.04532e-06
0 0.017356 0.00700507 5.95313e-06
0 -0.017356 0.0070262 6.07406e-06
-3.38813e-21 0.017356 0.0070262 5.96244e-06
0 0.017366 0.00703645 5.9707e-06
0 -0.017366 0.00703645 6.1022e-06
-3.38813e-21 0.0173769 0.00702633 5.97027e-06
3.38813e-21 -0.0173769 0.00702633 6.10124e-06
0 -0.0177656 0.00598778 1.55272e-05
-2.71051e-20 0.0177656 0.00598778 3.05979e-06
0 -0.0181031 0.00501242 4.82689e-05
-3.44637e-20 0.0181027 0.00501244 6.99312e-06
0 0.018806 3.41784e-06 6.17786e-05
-4.23516e-22 -0.018799 3.40978e-06 6.77002e-05
0 -0.0187936 0.00116587 8.95156e-05
-5.64689e-22 0.0187936 0.00116588 5.18559e-05
1.05879e-22 0.0181603 0.0050047 7.24655e-06
0 -0.0181605 0.00500468 4.94531e-05
-3.76459e-22 0.0176114 0.00676943 4.7565e-06
5.64689e-22 -0.0176114 0.00676944 6.12013e-06
0 -0.0184458 0.00401954 5.68541e-05
5.42101e-20 0.0184458 0.00401954 7.85165e-06
5.64689e-22 0.0187881 0.00239454 2.84191e-05
-5.64689e-22 -0.0187881 0.00239454 0.000101998
0 -0.0180923 0.0056577 3.77232e-05
2.51728e-20 0.0180923 0.0056577 5.84507e-06
0 -0.017813 0.00656607 6.22381e-06
0 0.017813 0.00656607 2.2795e-06
2.71051e-20 0.018419 0.0046774 7.62896e-06
0 -0.018419 0.0046774 5.3727e-05
1.85288e-22 0.0181646 0.00565621 6.36494e-06
0 -0.018165 0.0056562 4.01434e-05
5.42101e-20 0.0176826 0.00702997 6.08387e-06
-2.71051e-20 -0.0176826 0.00702997 6.48601e-06
3.38813e-21 -0.0176504 0.0073291 6.4861e-06
-3.38813e-21 0.0176504 0.0073291 5.8797e-06
0 -0.0176622 0.00731917 6.48577e-06
0 0.0176622 0.00731917 5.8791e-06
0 -0.0176607 0.00733968 6.48655e-06
0 0.0176607 0.00733968 5.86505e-06
-3.38813e-21 0.017671 0.0073503 5.8492e-06
0 -0.017671 0.0073503 6.48563e-06
0 0.0176811 0.0073384 5.84933e-06
0 -0.0176811 0.0073384 6.4853e-06
-4.23516e-22 -0.0180892 0.00628819 2.11749e-05
-8.47033e-21 0.0180852 0.00629219 3.94411e-06
2.71051e-20 0.0184318 0.00531284 8.04169e-06
5.42101e-20 -0.0184318 0.00531284 5.38603e-05
-1.41172e-22 0.0188513 0.00360407 1.19469e-05
1.41172e-22 -0.0188513 0.00360407 7.78589e-05
-4.23516e-22 0.0187481 0.00434154 8.93285e-06
4.23516e-22 -0.0187481 0.00434154 6.18316e-05
-3.38813e-22 0.0180499 0.006951 4.13024e-06
5.64689e-22 -0.0180499 0.006951 9.3618e-06
-2.71051e-20 -0.0184073 0.00596812 4.40455e-05
0 0.0184073 0.00596812 6.87144e-06
2.71051e-20 -0.0179676 0.00732197 6.47666e-06
0 0.0179676 0.00732197 5.63857e-06
-5.42101e-20 0.0193955 0.00058428 6.50938e-05
0 -0.0193955 0.00058428 8.3193e-05
0 0.0188202 0.00491059 1.01758e-05
0 -0.0188202 0.00491059 6.30922e-05
-5.42101e-20 0.0193971 0.00177916 4.51919e-05
0 -0.0193971 0.00177916 0.00013577
0 -0.0179547 0.00764207 7.01743e-06
0 0.0179547 0.00764207 5.82033e-06
-3.38813e-21 -0.0179658 0.00763011 7.01808e-06
0 0.0179658 0.00763011 5.82041e-06
0 -0.0179656 0.00765323 7.06105e-06
0 0.0179656 0.00765323 5.83496e-06
-2.71051e-20 -0.0183868 0.00661376 2.06565e-05
-2.71051e-20 0.0183868 0.00661376 3.76802e-06
0 0.0179765 0.00766446 5.84887e-06
0 -0.0179765 0.00766446 7.10389e-06
0 0.0179886 0.00765336 5.84824e-06
0 -0.0179886 0.00765336 7.10239e-06
2.11758e-22 0.0187313 0.00564103 1.04624e-05
1.75759e-20 -0.0187346 0.00564108 5.91043e-05
1.0842e-19 0.0194124 0.00301785 1.84678e-05
1.0842e-19 -0.0194124 0.00301785 0.000113325
-5.29396e-23 0.0186153 0.00628803 7.85895e-06
1.05879e-22 -0.0186155 0.00628803 4.32724e-05
-3.76459e-22 0.0182255 0.00739575 4.72873e-06
7.52918e-22 -0.0182255 0.00739575 7.38501e-06
0 0.0187129 0.00628722 8.57975e-06
2.21287e-20 -0.0187129 0.00628722 4.73314e-05
-5.29396e-23 -0.0187119 0.00636687 4.47725e-05
-5.29396e-23 0.0187119 0.00636701 8.14475e-06
0 0.0184304 0.00719208 2.45037e-06
-2.71051e-20 -0.0184305 0.00719208 8.06526e-06
-2.71051e-20 -0.0190561 0.00532095 6.96834e-05
2.71051e-20 0.0190561 0.00532095 1.31624e-05
0 0.0182948 0.00765678 6.02373e-06
-2.71051e-20 -0.0182948 0.00765678 7.63407e-06
-1.0842e-19 0.0193887 0.00432607 1.28365e-05
1.0842e-19 -0.0193888 0.00432607 8.31712e-05
-3.38813e-21 -0.0182591 0.0079553 7.62622e-06
0 0.0182591 0.0079553 5.85846e-06