# k  POINT_DATA 30784
# x  y  z  k
-0.114738 -1.05879e-22 1.35459e-05 3.71562e-07
0.114738 0 1.3545e-05 4.16271e-07
-0.114738 -1.05879e-22 1.20534e-07 3.72184e-07
0.114738 1.05879e-22 1.20534e-07 4.17156e-07
-0.114737 0 0.00063622 4.93224e-07
0.114737 0 0.000636151 5.44193e-07
-0.114737 -3.38813e-21 0.000671589 5.0346e-07
0.114737 -4.23516e-22 0.000671523 5.57205e-07
-0.114737 0 0.00070873 5.09394e-07
0.114737 4.23516e-22 0.000708671 5.65237e-07
-0.114737 4.23516e-22 0.00132981 5.90762e-07
0.114737 4.23516e-22 0.00132972 6.4204e-07
-0.114737 -4.23516e-22 0.00136709 5.88002e-07
0.114737 0 0.00136702 6.37966e-07
-0.114737 0 0.00140502 5.79768e-07
0.114737 -4.23516e-22 0.00140497 6.27969e-07
-0.114737 -3.17637e-22 0.00207515 7.82122e-07
0.114737 -1.16467e-21 0.00207515 7.96316e-07
0.114737 2.64698e-21 0.002087 8.02081e-07
-0.114737 -2.64698e-21 0.002087 7.88284e-07
-0.114996 1.69407e-20 0.000337663 3.55044e-07
0.114996 1.35525e-20 0.000337642 3.61618e-07
0.114997 6.77626e-21 0.00101334 5.59056e-07
-0.114997 0 0.00101338 5.06772e-07
0.115 0 0.00170594 4.2657e-07
-0.115 0 0.00170596 4.03089e-07
-0.115215 0 6.13258e-05 3.66591e-07
0.115215 -2.03288e-20 6.13221e-05 3.51627e-07
-0.115216 0 8.56694e-08 3.66756e-07
0.115216 0 8.56692e-08 3.51484e-07
0.115205 0 0.00196621 4.0415e-07
-0.115205 6.77626e-21 0.00196622 3.91853e-07
-0.115222 6.77626e-21 0.00073865 4.18474e-07
0.115222 -6.77626e-21 0.000738632 4.37291e-07
0.115216 6.77626e-21 0.00142698 3.99246e-07
-0.115216 6.77626e-21 0.00142699 3.71719e-07
-0.115227 0 0.000602617 3.85395e-07
0.115227 0 0.000602603 3.93987e-07
-0.115223 0 0.00127728 3.93888e-07
0.115223 0 0.00127727 4.28076e-07
0.115233 3.38813e-21 0.00210989 4.25897e-07
-0.115233 0 0.00210989 4.18726e-07
0.11527 0 8.03367e-08 3.95563e-07
-0.11527 6.77626e-21 8.03371e-08 4.05758e-07
0.115253 0 0.00205872 4.09739e-07
-0.115253 0 0.00205872 4.01787e-07
0.115284 0 0.00066507 4.04162e-07
-0.115284 0 0.000665081 3.90975e-07
0.115283 -6.77626e-21 0.00134258 3.54356e-07
-0.115283 0 0.00134258 3.28374e-07
0.115275 0 0.00200988 3.63887e-07
-0.115275 -6.77626e-21 0.00200987 3.55763e-07
-0.115317 0 0.00211377 4.7038e-07
0.115317 -6.77626e-21 0.00211377 4.69184e-07
0.115333 0 0.00205101 3.76736e-07
-0.115333 -6.77626e-21 0.002051 3.69118e-07
-0.115354 0 8.43506e-08 3.74378e-07
0.115354 -6.77626e-21 8.43503e-08 3.4489e-07
-0.115358 0 0.000107306 3.7471e-07
0.115358 1.01644e-20 0.000107309 3.44603e-07
0.11537 0 0.000550762 3.79086e-07
-0.11537 -3.38813e-21 0.000550768 3.90251e-07
0.115379 3.38813e-21 0.000791865 3.82679e-07
-0.115379 6.77626e-21 0.000791869 3.65752e-07
0.11538 -6.77626e-21 0.00120909 3.75462e-07
-0.11538 0 0.00120909 3.46633e-07
0.115396 3.38813e-21 0.00184969 3.08163e-07
-0.115396 3.38813e-21 0.00184968 2.98536e-07
0.115406 6.77626e-21 0.00148522 3.03364e-07
-0.115406 -6.77626e-21 0.00148522 2.83535e-07
-0.115453 0 0.00212005 3.42098e-07
0.115453 0 0.00212005 3.48343e-07
-0.115556 2.03288e-20 0.000327278 3.85375e-07
0.115556 0 0.000327284 3.35375e-07
-0.115608 1.12938e-21 0.00164723 2.479e-07
0.115608 -1.12938e-21 0.00164725 2.57232e-07
-0.115627 -4.51751e-21 0.000993521 3.35833e-07
0.115627 -9.03502e-21 0.000993543 3.57829e-07
0.115635 3.38813e-21 0.00212847 3.36592e-07
-0.115635 6.77626e-21 0.00212847 3.33658e-07
-0.115696 0 0.00032771 3.74921e-07
0.115696 6.77626e-21 0.000327723 3.453e-07
0.115709 0 9.72445e-08 3.34642e-07
-0.115709 0 9.72452e-08 3.68378e-07
-0.115724 6.77626e-21 0.00202738 3.65111e-07
0.115724 6.77626e-21 0.00202739 3.65101e-07
-0.115786 1.35525e-20 0.00132428 2.89131e-07
0.115786 0 0.00132432 3.00813e-07
0.115779 0 0.00213509 5.28672e-07
-0.115779 1.35525e-20 0.00213509 5.46139e-07
-0.115807 -1.35525e-20 0.000667664 3.79043e-07
0.115807 0 0.000667699 3.88134e-07
-0.115798 0 0.0019411 3.3989e-07
0.115798 1.35525e-20 0.00194111 3.37568e-07
-0.115838 -1.35525e-20 1.04109e-07 4.44684e-07
0.115838 0 1.04109e-07 4.4555e-07
0.115892 0 0.00204539 4.70818e-07
-0.115892 0 0.00204539 4.80573e-07
0.115953 0 0.00214313 5.28446e-07
-0.115953 6.77626e-21 0.00214313 5.43209e-07
-0.115994 6.77626e-21 9.47789e-08 3.3162e-07
0.115994 6.77626e-21 9.47783e-08 3.33057e-07
-0.116078 1.12938e-21 0.000992193 4.53008e-07
0.116078 0 0.000992243 4.66986e-07
0.116073 -1.69407e-21 0.00162164 3.65673e-07
-0.116073 -2.25875e-21 0.0016216 3.65758e-07
-0.11609 -1.12938e-21 0.000334102 3.33655e-07
0.11609 3.38813e-21 0.000334126 3.44964e-07
-0.116143 1.35525e-20 0.00215193 6.15851e-07
0.116143 0 0.00215193 5.93313e-07
0.11619 1.35525e-20 8.45417e-08 3.37681e-07
-0.11619 0 8.4542e-08 3.20747e-07
-0.11622 0 0.00203355 5.94486e-07
0.11622 0 0.00203356 5.72052e-07
-0.116329 -2.71051e-20 0.00216054 8.34328e-07
0.116329 0 0.00216054 7.72521e-07
0.116362 0 7.42117e-08 5.22936e-07
-0.116362 0 7.42121e-08 4.94393e-07
-0.116353 2.71051e-20 0.00192291 4.94793e-07
0.116353 0 0.00192293 4.75259e-07
-0.116372 0 0.000657195 4.82227e-07
0.116372 1.35525e-20 0.000657253 4.99629e-07
-0.116367 -1.35525e-20 0.00131844 3.98507e-07
0.116367 -1.35525e-20 0.00131851 3.97719e-07
0.116472 1.35525e-20 0.00205464 6.05095e-07
-0.116472 -1.35525e-20 0.00205463 6.36647e-07
0.116547 0 0.0021706 6.53652e-07
-0.116547 -1.35525e-20 0.0021706 6.9193e-07
-0.116588 1.35525e-20 8.0167e-08 3.35224e-07
0.116588 1.35525e-20 8.01668e-08 3.61895e-07
-0.116656 5.64689e-22 0.000325357 3.46905e-07
0.116656 2.82344e-21 0.000325386 3.7319e-07
-0.11666 2.25875e-21 0.000983991 5.66576e-07
0.11666 1.12938e-21 0.000984053 5.65161e-07
-0.116665 1.69407e-22 0.00161349 4.39708e-07
0.116665 -3.38813e-22 0.00161354 4.24415e-07
0.11671 6.77626e-21 8.17014e-08 3.66777e-07
-0.11671 6.77626e-21 8.17016e-08 3.39833e-07
-0.116715 2.03288e-20 0.00217836 7.26813e-07
0.116715 -1.35525e-20 0.00217837 6.8231e-07
-0.116803 1.35525e-20 0.00204843 6.97984e-07
0.116803 2.71051e-20 0.00204845 6.54883e-07
-0.116945 0 8.84455e-08 5.9923e-07
0.116945 0 8.84455e-08 6.16334e-07
-0.116948 -1.35525e-20 0.000654747 5.74153e-07
0.116948 -1.35525e-20 0.000654804 5.77037e-07
0.116934 -1.35525e-20 0.00218849 8.0167e-07
-0.116934 -2.71051e-20 0.00218848 8.8468e-07
-0.116948 0 0.00131454 4.73902e-07
0.116948 -2.71051e-20 0.00131461 4.57581e-07
-0.116946 -2.71051e-20 0.00190304 5.62154e-07
0.116946 1.35525e-20 0.00190307 5.26432e-07
0.117091 1.35525e-20 0.00205422 6.76848e-07
-0.117091 -1.35525e-20 0.00205421 7.29031e-07
0.11719 3.38813e-21 0.0022003 7.31283e-07
-0.11719 3.38813e-21 0.0022003 7.92527e-07
-0.117223 1.69407e-21 8.45568e-08 3.60803e-07
0.117223 -2.03288e-20 8.45568e-08 3.75159e-07
-0.117231 -6.77626e-22 0.000980531 6.90241e-07
0.117231 0 0.000980583 6.68691e-07
0.117237 0 0.000327533 3.75671e-07
-0.117239 2.11758e-22 0.000325498 3.61639e-07
0.11724 -6.35275e-22 0.000392969 4.06677e-07
-0.11724 -1.05879e-21 0.000392909 3.96382e-07
-0.117245 -1.52466e-20 8.4286e-08 3.61976e-07
0.117245 -1.52466e-20 8.42859e-08 3.75821e-07
-0.117243 1.35525e-21 0.00160918 5.40757e-07
0.117243 -9.03502e-22 0.00160922 5.08273e-07
-0.117255 8.47033e-22 0.000325416 3.62419e-07
0.117255 3.81165e-21 0.00032544 3.76121e-07
-0.117253 6.77626e-21 0.00220321 8.0385e-07
0.117253 -1.69407e-20 0.00220321 7.40086e-07
-0.117365 0 0.0020504 7.72791e-07
0.117365 1.35525e-20 0.00205042 7.1026e-07
-0.117522 4.06576e-20 8.03478e-08 7.14447e-07
0.117522 1.35525e-20 8.03478e-08 7.05682e-07
-0.117533 -1.35525e-20 0.000652009 6.64717e-07
0.117533 0 0.000652048 6.45353e-07
-0.117534 1.35525e-20 0.00130699 5.3208e-07
0.117534 0 0.00130703 4.9991e-07
-0.11753 -2.71051e-20 0.00187116 6.14097e-07
0.11753 1.35525e-20 0.00187118 5.61715e-07
0.117533 -1.35525e-20 0.00221616 8.07942e-07
-0.117533 4.06576e-20 0.00221616 9.07471e-07
-0.117782 -3.38813e-21 8.01445e-08 4.86835e-07
0.117782 3.38813e-21 8.01445e-08 4.84299e-07
-0.117774 -2.71051e-20 0.0022273 9.24497e-07
0.117774 -2.03288e-20 0.0022273 8.25098e-07
0.11783 2.25875e-21 0.000324846 4.91406e-07
-0.11783 0 0.000324833 4.98102e-07
0.117836 1.12938e-21 0.000977432 7.01937e-07
-0.117836 0 0.000977404 7.45619e-07
0.117824 6.77626e-21 0.00203764 7.57472e-07
-0.117824 -6.77626e-21 0.00203762 8.41458e-07
-0.117836 -2.71051e-21 0.00160419 5.90095e-07
0.117836 -2.71051e-21 0.00160421 5.40825e-07
0.117831 0 0.00215881 8.00892e-07
-0.117831 2.03288e-20 0.00215877 8.92594e-07
-0.117872 1.35525e-20 8.08535e-08 5.14447e-07
0.117872 -1.35525e-20 8.08535e-08 5.05502e-07
0.117904 0 0.00223329 8.47084e-07
-0.117904 -6.77626e-21 0.00223329 9.58292e-07
-0.118121 -1.35525e-20 8.10337e-08 8.3948e-07
0.118121 1.35525e-20 8.10337e-08 7.99924e-07
-0.118127 0 0.000648622 7.45762e-07
0.118127 1.35525e-20 0.000648636 7.0133e-07
-0.118129 -1.35525e-20 0.00129645 5.61837e-07
0.118129 0 0.00129647 5.13795e-07
-0.118129 0 0.00183213 6.49161e-07
0.118129 0 0.00183214 5.79669e-07
0.11813 -2.71051e-20 0.00224374 8.95364e-07
-0.11813 0 0.00224373 1.0373e-06
-0.118331 0 8.4226e-08 6.4355e-07
0.118331 0 8.4226e-08 6.14962e-07
-0.118312 0 0.00225214 1.03537e-06
0.118312 -6.77626e-21 0.00225215 8.97126e-07
-0.11834 1.35525e-20 0.00157067 6.39164e-07
0.11834 9.03502e-21 0.00157067 5.72157e-07
0.118432 1.12938e-21 0.000324873 6.10007e-07
-0.118432 1.12938e-21 0.000324872 6.45906e-07
-0.118436 -2.25875e-21 0.000972945 7.75378e-07
0.118436 -1.12938e-21 0.000972947 7.09856e-07
0.118425 -6.77626e-21 0.00202942 8.04818e-07
-0.118425 -1.35525e-20 0.00202941 9.14896e-07
0.11843 0 0.00211663 8.35821e-07
-0.11843 6.77626e-21 0.00211662 9.52079e-07
-0.118533 1.35525e-20 8.39687e-08 7.04998e-07
0.118533 -1.35525e-20 8.39687e-08 6.60782e-07
0.118572 -6.77626e-21 0.00226416 9.28055e-07
-0.118572 6.77626e-21 0.00226416 1.08765e-06
-0.118724 -2.71051e-20 8.63336e-08 9.62501e-07
0.118724 2.71051e-20 8.63336e-08 8.87704e-07
0.118723 0 0.00171367 5.75831e-07
-0.118723 0 0.00171367 6.57559e-07
0.118728 -1.35525e-20 0.00227134 9.60694e-07
-0.118728 0 0.00227135 1.14392e-06
0.118768 3.38813e-21 0.00132504 5.49843e-07
-0.118768 -2.25875e-21 0.00132505 6.18868e-07
0.118825 0 0.000642427 7.25111e-07
-0.118825 -4.51751e-21 0.00064244 7.96765e-07
-0.118855 0 0.00227722 1.1424e-06
0.118855 1.35525e-20 0.00227722 9.61214e-07
-0.118884 1.35525e-20 8.25008e-08 8.03302e-07
0.118884 -1.35525e-20 8.25008e-08 7.41997e-07
0.11894 5.42101e-21 0.000230178 7.62738e-07
-0.11894 8.13152e-21 0.000230188 8.29385e-07
0.11903 -1.35525e-20 0.000968919 6.69648e-07
-0.11903 0 0.000968945 7.53744e-07
-0.119031 0 0.00158378 5.45058e-07
0.119031 0 0.00158376 4.73169e-07
-0.119029 1.12938e-21 0.0020094 9.77649e-07
0.119029 1.12938e-21 0.00200939 8.38796e-07
-0.119194 -1.35525e-20 7.95716e-08 8.97343e-07
0.119194 1.35525e-20 7.95716e-08 8.10313e-07
0.119198 -6.77626e-21 0.000141176 8.1759e-07
-0.119198 -6.77626e-21 0.000141182 9.05765e-07
0.119237 -6.77626e-21 0.00229488 1.00613e-06
-0.119237 -6.77626e-21 0.00229488 1.22233e-06
0.119324 2.25875e-21 0.000639919 7.63309e-07
-0.119324 1.12938e-21 0.000639954 8.59391e-07
-0.119327 0 7.67102e-08 1.08274e-06
0.119327 0 7.67102e-08 9.69365e-07
0.119327 4.51751e-21 0.00127022 5.54338e-07
-0.119327 3.38813e-21 0.00127026 6.39922e-07
-0.119329 2.25875e-21 0.00171491 6.93868e-07
0.119329 2.25875e-21 0.00171488 5.90152e-07
-0.119328 -2.71051e-20 0.00229909 1.25669e-06
0.119328 0 0.00229909 1.0254e-06
0.119403 0 0.00230257 1.02496e-06
-0.119403 6.77626e-21 0.00230257 1.25515e-06
0.119436 -1.35525e-20 0.000117398 8.70045e-07
-0.119436 0 0.00011741 9.71337e-07
0.119439 0 8.09182e-08 8.65861e-07
-0.119439 0 8.09182e-08 9.66585e-07
0.119631 0 0.000320659 9.16054e-07
-0.119631 1.35525e-20 0.000320689 1.03507e-06
0.119633 -1.35525e-20 0.000964822 6.50969e-07
-0.119633 -1.35525e-20 0.000964885 7.54836e-07
-0.119635 -2.71051e-20 0.00157725 5.45211e-07
0.119635 -2.71051e-20 0.0015772 4.58692e-07
-0.119634 -1.69407e-21 0.00201287 1.06187e-06
0.119634 -5.0822e-21 0.00201285 8.86194e-07
-0.119855 6.77626e-21 8.52625e-08 1.08745e-06
0.119855 6.77626e-21 8.52624e-08 9.50367e-07
0.119856 1.35525e-20 8.18892e-05 9.539e-07
-0.119856 -6.77626e-21 8.18975e-05 1.09164e-06
-0.119901 0 0.00232555 1.3643e-06
0.119901 0 0.00232555 1.0841e-06
0.11993 1.12938e-21 0.000637232 8.13322e-07
-0.11993 3.38813e-21 0.000637304 9.42648e-07
-0.119932 6.77626e-21 8.78252e-08 1.19783e-06
0.119932 0 8.7825e-08 1.04273e-06
-0.119934 0 0.00126452 6.43291e-07
0.119934 -5.64689e-22 0.00126444 5.39597e-07
-0.119936 0 0.00171637 7.43423e-07
0.119936 0 0.00171631 6.09931e-07
-0.119932 1.35525e-20 0.00232696 1.37698e-06
0.119932 0 0.00232696 1.09115e-06
0.119956 0 0.0023281 1.09142e-06
-0.119956 0 0.0023281 1.37719e-06
0.119995 0 6.93509e-05 9.83363e-07
-0.119995 6.77626e-21 6.93625e-05 1.12926e-06
0.119996 -6.77626e-21 8.41045e-08 9.806e-07
-0.119996 -6.77626e-21 8.41047e-08 1.12604e-06
0.120207 -7.05861e-23 0.00201414 9.3886e-07
-0.120207 7.05861e-23 0.00201419 1.16036e-06
0.120233 2.71051e-20 0.000320486 1.03637e-06
-0.120233 0 0.000320535 1.20543e-06
0.120235 0 0.000960794 6.28929e-07
-0.120235 -2.71051e-20 0.000960897 7.51655e-07
-0.120237 0 0.00156987 5.55883e-07
0.120237 0 0.00156979 4.50337e-07
0.12026 1.69407e-21 0.00234212 1.12732e-06
-0.12026 -1.69407e-21 0.00234212 1.44719e-06
-0.120505 0 6.18504e-08 1.26527e-06
0.120505 0 6.18504e-08 1.07277e-06
-0.120506 0 2.78072e-05 1.26687e-06
0.120506 3.38813e-21 2.78023e-05 1.07408e-06
0.120507 0 0.00235355 1.15692e-06
-0.120507 0 0.00235356 1.50448e-06
-0.12053 0 6.04228e-08 1.30297e-06
0.12053 0 6.04228e-08 1.10339e-06
0.120515 0 0.00234188 1.15283e-06
-0.120515 -3.38813e-21 0.00234189 1.49872e-06
0.120531 -9.41148e-23 0.0012457 5.40265e-07
-0.120531 -2.35287e-22 0.00124588 6.64627e-07
0.120547 -1.12938e-22 0.000634174 8.53812e-07
-0.120547 -1.69407e-22 0.000634288 1.02e-06
0.120528 0 0.00232802 1.12486e-06
-0.120528 0 0.00232804 1.46348e-06
0.120528 0 0.00235451 1.15521e-06
-0.120528 3.38813e-21 0.00235452 1.50704e-06
-0.120539 0 0.00171142 7.69838e-07
0.120539 1.12938e-21 0.00171132 6.10915e-07
0.120552 -3.38813e-21 2.32852e-05 1.08263e-06
-0.120552 -3.38813e-21 2.32903e-05 1.27843e-06
0.120553 0 6.17097e-08 1.08194e-06
-0.120553 0 6.17096e-08 1.27761e-06
-0.120543 0 0.00234205 1.5042e-06
0.120543 0 0.00234204 1.15529e-06
-0.120552 0 0.00235562 1.51458e-06
0.120552 0 0.00235561 1.16172e-06
0.120834 -2.71051e-20 0.000318139 1.13614e-06
-0.120834 0 0.0003182 1.36085e-06
0.120836 0 0.000956941 5.98123e-07
-0.120836 0 0.000957074 7.38222e-07
-0.120838 -2.71051e-20 0.00156511 5.57791e-07
0.120838 0 0.001565 4.33928e-07
-0.120836 1.12938e-21 0.00200519 1.21458e-06
0.120837 -3.38813e-21 0.00200513 9.44535e-07
-0.120859 -3.38813e-21 7.60868e-08 1.35497e-06
0.120859 0 7.60871e-08 1.12883e-06
0.121065 -6.77626e-21 0.00237934 1.22657e-06
-0.121065 -6.77626e-21 0.00237934 1.64515e-06
0.121088 -6.77626e-21 0.00234429 1.21503e-06
-0.121088 0 0.00234429 1.62896e-06
-0.121119 0 1.89551e-05 1.42112e-06
0.121119 3.38813e-21 1.89514e-05 1.16923e-06
-0.121119 -3.38813e-21 8.69662e-08 1.42031e-06
0.121119 0 8.69665e-08 1.16855e-06
0.121137 0 8.72831e-08 1.16596e-06
-0.121137 0 8.72828e-08 1.42085e-06
-0.121142 1.12938e-21 0.000632732 1.08853e-06
0.121142 5.64689e-22 0.000632605 8.85485e-07
-0.121126 0 0.00238219 1.65589e-06
0.121126 0 0.00238219 1.22284e-06
-0.121128 0 0.00230298 1.52097e-06
0.121128 0 0.00230296 1.13076e-06
-0.121145 -1.12938e-21 0.00125656 6.3755e-07
0.121145 0 0.0012564 4.99141e-07
-0.121145 4.51751e-21 0.00169995 7.89034e-07
0.121145 -4.51751e-21 0.00169983 6.02078e-07
0.121158 0 8.63068e-08 1.17415e-06
-0.121158 -3.38813e-21 8.63065e-08 1.43133e-06
0.121159 0 2.14148e-05 1.17539e-06
-0.121159 0 2.14188e-05 1.43293e-06
-0.12117 0 0.00234527 1.6472e-06
0.12117 0 0.00234526 1.22303e-06
-0.121195 0 0.00238537 1.67695e-06
0.121195 0 0.00238537 1.24103e-06
-0.121444 -2.71051e-20 0.000318955 1.52402e-06
0.121444 2.71051e-20 0.000318897 1.23202e-06
-0.121449 0 0.0009532 7.05332e-07
0.121449 0 0.000953073 5.5534e-07
0.121442 0 0.00199676 9.82705e-07
-0.121442 6.77626e-21 0.00199682 1.31698e-06
-0.12145 0 0.00155715 5.55696e-07
0.12145 -2.71051e-20 0.00155704 4.18021e-07
0.121634 0 0.00240564 1.30645e-06
-0.121634 -6.77626e-21 0.00240564 1.81253e-06
0.121669 0 0.00235306 1.29188e-06
-0.121669 0 0.00235306 1.79283e-06
-0.121699 6.77626e-21 5.8685e-05 1.58405e-06
0.121699 0 5.86723e-05 1.26592e-06
-0.121699 0 4.03272e-08 1.58045e-06
0.121699 0 4.03261e-08 1.26298e-06
-0.121726 1.35525e-20 0.00240987 1.83714e-06
0.121726 1.35525e-20 0.00240987 1.30487e-06
-0.121732 0 0.00229092 1.62809e-06
0.121732 -1.35525e-20 0.00229091 1.16503e-06
0.121756 0 3.78957e-08 1.25765e-06
-0.121756 -6.77626e-21 3.78966e-08 1.58519e-06
-0.121781 -3.38813e-21 0.000632934 1.15558e-06
0.121781 1.12938e-21 0.000632842 9.11775e-07
-0.121792 1.12938e-21 0.00125124 5.90337e-07
0.121792 0 0.00125112 4.46567e-07
-0.121788 -4.51751e-21 0.00168176 7.81919e-07
0.121788 4.51751e-21 0.00168168 5.71901e-07
-0.121791 0 0.00235671 1.83157e-06
0.121791 0 0.00235671 1.30849e-06
0.121828 0 4.12177e-08 1.29142e-06
-0.121828 0 4.12189e-08 1.62985e-06
0.121837 0 6.99672e-05 1.30129e-06
-0.121837 6.77626e-21 6.99779e-05 1.64289e-06
0.121825 0 0.00241445 1.33359e-06
-0.121825 -6.77626e-21 0.00241445 1.87526e-06
-0.122099 2.71051e-20 0.000321025 1.75856e-06
0.122099 0 0.000320991 1.37748e-06
0.122085 0 0.00198069 1.00605e-06
-0.122085 0 0.00198072 1.41248e-06
0.122263 2.43945e-20 0.00101903 3.41552e-07
-0.122263 2.71051e-21 0.00101909 4.53172e-07
0.122263 -4.51751e-21 0.0015084 2.75767e-07
-0.122263 0 0.00150845 3.90382e-07
-0.122256 -6.77626e-21 0.00243436 2.05299e-06
0.122256 0 0.00243436 1.41925e-06
-0.122296 0 0.00238067 2.04026e-06
0.122296 0 0.00238068 1.40911e-06
-0.122326 -1.35525e-20 8.40641e-08 1.75436e-06
0.122326 -1.35525e-20 8.40676e-08 1.36361e-06
-0.122327 0 0.000118199 1.7728e-06
0.122327 2.71051e-20 0.000118171 1.3782e-06
0.122354 0 0.00243889 1.42596e-06
-0.122354 -1.35525e-20 0.00243889 2.09208e-06
0.122363 0 0.00231848 1.27769e-06
-0.122363 0 0.00231847 1.86494e-06
0.122419 0 0.00238775 1.44684e-06
-0.122419 0 0.00238774 2.11817e-06
0.122444 0 8.89963e-08 1.33891e-06
-0.122444 0 8.89934e-08 1.74449e-06
0.122449 6.77626e-21 0.00244327 1.47638e-06
-0.122449 1.35525e-20 0.00244327 2.17178e-06
0.122512 4.51751e-21 0.000639005 8.27687e-07
-0.122512 -4.51751e-21 0.000639028 1.08008e-06
0.122514 0 0.00177574 5.35762e-07
-0.122514 0 0.00177575 7.86852e-07
0.122552 -2.71051e-20 0.00122858 2.62455e-07
-0.122552 -2.71051e-20 0.0012286 3.76154e-07
0.122565 0 8.12044e-08 1.3886e-06
-0.122565 -2.71051e-20 8.12004e-08 1.80965e-06
0.122569 0 0.00010807 1.402e-06
-0.122569 1.35525e-20 0.000108087 1.82763e-06
-0.122701 -1.35525e-20 0.00106834 3.48932e-07
0.122701 0 0.00106833 2.56649e-07
0.122733 0 0.00202314 1.1213e-06
-0.122733 9.03502e-21 0.00202314 1.63605e-06
0.122781 2.25875e-21 0.00153791 2.19653e-07
-0.122781 9.03502e-21 0.00153791 3.25895e-07
-0.122832 1.35525e-20 0.000298119 1.903e-06
0.122832 0 0.00029812 1.45143e-06
-0.122835 1.35525e-20 0.000912539 2.73636e-07
0.122835 1.35525e-20 0.000912547 2.00321e-07
-0.12298 3.38813e-21 0.0024678 2.40735e-06
0.12298 0 0.0024678 1.6084e-06
-0.122996 3.38813e-21 0.00244983 2.40054e-06
0.122996 -3.38813e-21 0.00244983 1.60476e-06
0.123017 -3.38813e-21 0.00246949 1.60573e-06
-0.123017 0 0.00246949 2.40923e-06
0.123018 0 0.00243 1.55619e-06
-0.123018 0 0.00242999 2.33069e-06
0.123037 0 0.00245141 1.61401e-06
-0.123037 -3.38813e-21 0.0024514 2.41768e-06
0.123046 0 0.00247085 1.62282e-06
-0.123046 3.38813e-21 0.00247085 2.43407e-06
-0.123082 0 0.00181615 7.7814e-07
0.123082 0 0.00181617 5.0863e-07
0.123099 -2.25875e-21 0.00121936 1.5709e-07
-0.123099 -2.25875e-21 0.00121933 2.34691e-07
-0.123111 -3.38813e-21 0.000615393 1.05515e-06
0.123111 4.51751e-21 0.000615423 7.8302e-07
0.123224 5.29396e-21 -7.39903e-09 1.43291e-06
-0.123231 0 -8.15793e-09 1.92003e-06
0.123348 1.89735e-20 0.00159634 1.88641e-07
-0.123348 1.0842e-20 0.0015963 2.9455e-07
0.123383 -2.82344e-22 0.00210433 1.52955e-06
-0.123383 -2.82344e-22 0.0021043 2.23556e-06
0.123447 -1.69407e-21 0.00248936 1.55837e-06
-0.123447 -2.11758e-21 0.00248939 2.32706e-06
-0.123475 -1.35525e-20 0.000922922 3.34098e-07
0.123475 -4.06576e-20 0.000922971 2.30671e-07
0.123479 4.23516e-22 0.00243573 1.55542e-06
-0.123479 -4.23516e-22 0.00243628 2.3145e-06
-0.123507 4.06576e-20 0.00031515 2.33054e-06
0.123507 -1.35525e-20 0.000315172 1.70953e-06
0.123498 4.23516e-21 0.00249174 1.55072e-06
-0.123494 0 0.00249155 2.31507e-06
-0.123732 -1.35525e-20 8.93512e-05 2.34173e-06
0.123732 0 8.9354e-05 1.69804e-06
-0.123734 -6.77626e-21 6.17809e-09 2.32378e-06
0.123734 0 6.17697e-09 1.68563e-06
0.123777 -1.35525e-21 0.000610963 1.00286e-06
-0.123777 -1.12938e-21 0.000610907 1.39653e-06
-0.123762 -1.01644e-20 0.00250391 1.87834e-06
0.123762 1.69407e-20 0.00250391 1.27738e-06
0.123782 -7.05861e-22 0.00122929 1.90323e-07
-0.123782 6.58803e-22 0.00122921 2.93401e-07
0.123792 -2.71051e-20 0.00231617 1.20483e-06
-0.123792 1.35525e-20 0.00231613 1.76759e-06
0.123814 0 4.7663e-09 1.69643e-06
-0.123814 0 4.76768e-09 2.34474e-06
0.123842 -1.12938e-21 0.00191141 5.89634e-07
-0.123842 2.82344e-21 0.00191139 8.84023e-07
0.123905 0 9.56164e-05 1.72797e-06
-0.123905 6.77626e-21 9.56125e-05 2.3981e-06
0.123911 -6.77626e-21 6.5703e-09 1.7207e-06
-0.123911 -6.77626e-21 6.57156e-09 2.38829e-06
0.12401 0 0.00251537 1.05297e-06
-0.12401 -1.69407e-21 0.00251537 1.59672e-06
-0.124023 0 0.00251596 1.58951e-06
0.124023 0 0.00251597 1.04795e-06
-0.12403 0 0.00249603 1.57852e-06
0.12403 0 0.00249597 1.04157e-06
-0.124107 0 0.000926585 3.72006e-07
0.124107 -1.35525e-20 0.000926643 2.49028e-07
0.124113 2.71051e-20 0.000309668 1.77993e-06
-0.124113 2.71051e-20 0.000309642 2.4969e-06
-0.124109 -1.35525e-20 0.00153604 2.03398e-07
0.124109 2.71051e-20 0.00153609 1.15056e-07
0.124199 0 0.00224856 8.86099e-07
-0.124199 4.51751e-21 0.00224854 1.33197e-06
-0.124312 0 5.9528e-09 2.52762e-06
0.124312 -6.77626e-21 5.95239e-09 1.78787e-06
-0.124316 0 0.000101998 2.54173e-06
0.124316 0 0.000102006 1.79738e-06
-0.124351 0 0.00253113 1.60996e-06
0.124352 0 0.00253117 1.02559e-06
-0.124411 -4.51751e-21 0.000610848 1.52658e-06
0.124411 4.51751e-21 0.000610898 1.0676e-06
0.124413 -1.35525e-20 7.80603e-09 1.79839e-06
-0.124413 0 7.80623e-09 2.55051e-06
-0.124412 -3.16226e-21 0.00125277 3.4591e-07
0.124412 -1.35525e-21 0.00125284 2.15123e-07
-0.124428 -1.807e-21 0.00188222 6.739e-07
0.124428 9.03502e-22 0.00188226 4.2504e-07
-0.124454 -4.23516e-22 0.00253417 1.61329e-06
0.12446 0 0.00253424 1.0163e-06
0.124507 -6.77626e-21 9.76902e-05 1.83785e-06
-0.124507 -6.77626e-21 9.76851e-05 2.61135e-06
0.12451 0 6.4083e-09 1.83234e-06
-0.12451 6.77626e-21 6.40846e-09 2.60355e-06
0.124715 -1.35525e-20 0.000308871 1.87651e-06
-0.124715 0 0.000308852 2.68744e-06
-0.124717 4.06576e-20 0.00092527 4.15623e-07
0.124717 -1.35525e-20 0.000925313 2.70344e-07
-0.124722 -2.71051e-20 0.00152785 2.45766e-07
0.124722 0 0.00152789 1.29339e-07
-0.12474 0 0.00225265 1.52139e-06
0.12474 2.25875e-21 0.00225267 9.64177e-07
-0.124928 6.77626e-21 4.52659e-09 2.72734e-06
0.124928 -6.77626e-21 4.52646e-09 1.89071e-06
0.124931 0 8.62013e-05 1.89651e-06
-0.124931 6.77626e-21 8.61959e-05 2.7362e-06
0.125013 0 3.37598e-09 1.88956e-06
-0.125013 0 3.37608e-09 2.73535e-06
0.125015 -4.51751e-21 0.000609995 1.11663e-06
-0.125015 1.12938e-21 0.000609967 1.63102e-06
-0.124994 3.38813e-21 0.00256083 1.85265e-06
0.124994 0 0.00256083 1.13052e-06
-0.12502 1.58113e-21 0.00124401 3.78984e-07
0.12502 2.48463e-21 0.00124405 2.2626e-07
-0.125004 0 0.00254316 1.84979e-06
0.125004 0 0.00254316 1.12985e-06
-0.125027 3.16226e-21 0.0018792 7.59872e-07
0.125027 -2.71051e-21 0.00187923 4.62144e-07
-0.12503 3.38813e-21 0.00250699 1.77387e-06
0.12503 -3.38813e-21 0.002507 1.08417e-06
-0.125029 -3.38813e-21 0.00256248 1.93145e-06
0.125029 0 0.00256247 1.17075e-06
0.125057 0 0.00254379 1.13474e-06
-0.125058 0 0.00254379 1.86263e-06
0.125089 0 7.79237e-05 1.9221e-06
-0.125089 6.77626e-21 7.7922e-05 2.78442e-06
0.125091 0 3.20057e-09 1.91846e-06
-0.125091 -1.35525e-20 3.20067e-09 2.77913e-06
0.12507 3.38813e-21 0.00256435 1.13784e-06
-0.12507 0 0.00256435 1.87208e-06
-0.125318 0 0.000307701 2.85098e-06
0.125318 2.71051e-20 0.000307692 1.95334e-06
0.125323 0 0.000922882 2.86581e-07
-0.125323 0 0.000922865 4.54169e-07
-0.125326 2.71051e-20 0.00152712 2.68486e-07
0.125326 0 0.00152713 1.34281e-07
-0.125333 -2.25875e-21 0.00226101 1.59925e-06
0.125333 -6.77626e-21 0.00226101 9.88457e-07
-0.125563 6.77626e-21 1.13573e-09 2.90137e-06
0.125563 6.77626e-21 1.13563e-09 1.97605e-06
-0.125566 0 5.45783e-05 2.90599e-06
0.125566 -6.77626e-21 5.4579e-05 1.97904e-06
-0.125551 -6.77626e-21 0.00258658 1.98742e-06
0.125551 -6.77626e-21 0.00258658 1.18224e-06
-0.125572 -6.77626e-21 0.0025497 1.98048e-06
0.125572 6.77626e-21 0.0025497 1.18057e-06
-0.125618 0 9.99745e-10 2.90269e-06
0.125618 0 9.99651e-10 1.97337e-06
0.125621 1.12938e-21 0.00060893 1.15858e-06
-0.125621 -1.69407e-21 0.000608925 1.72388e-06
-0.12563 4.51751e-22 0.00188213 8.01697e-07
0.12563 3.16226e-21 0.00188214 4.71075e-07
0.125641 -1.8823e-22 0.00122765 2.23171e-07
-0.125641 5.17631e-22 0.00122764 3.92106e-07
-0.125626 0 0.00247651 1.8185e-06
0.125626 0 0.00247652 1.08522e-06
0.125624 6.77626e-21 0.00258997 1.27016e-06
-0.125624 0 0.00258997 2.16351e-06
0.125665 0 4.82049e-05 1.99454e-06
-0.125665 0 4.82067e-05 2.93444e-06
0.125666 6.77626e-21 3.71959e-10 1.99264e-06
-0.125666 6.77626e-21 3.72055e-10 2.93161e-06
0.125682 6.77626e-21 0.00255094 1.19192e-06
-0.125682 6.77626e-21 0.00255093 2.01039e-06
0.125708 -6.77626e-21 0.00259387 1.19937e-06
-0.125708 -6.77626e-21 0.00259387 2.03301e-06
-0.125766 1.35525e-20 0.00226798 1.64378e-06
0.125766 1.35525e-20 0.00226799 9.95739e-07
-0.125924 0 0.000307115 2.9988e-06
0.125924 -2.71051e-20 0.000307127 2.02584e-06
0.125929 -2.71051e-20 0.000921475 3.00343e-07
-0.125929 -2.71051e-20 0.000921486 4.90738e-07
-0.125931 -2.71051e-20 0.00152925 3.00895e-07
0.125931 2.71051e-20 0.00152925 1.39388e-07
-0.12593 6.77626e-21 0.00227153 1.6795e-06
0.12593 0 0.00227153 1.0104e-06
-0.126113 6.77626e-21 0.00261254 2.13245e-06
0.126113 -6.77626e-21 0.00261254 1.23616e-06
-0.126147 1.35525e-20 0.00255527 2.11818e-06
0.126147 -1.35525e-20 0.00255528 1.23219e-06
-0.12621 0 -2.76942e-09 3.06009e-06
0.12621 0 -2.76959e-09 2.05382e-06
-0.126211 0 1.46893e-05 3.06115e-06
0.126211 0 1.46869e-05 2.0545e-06
-0.126225 1.69407e-21 -2.94615e-09 3.05939e-06
0.126225 0 -2.94631e-09 2.05242e-06
0.126237 -1.69407e-21 1.28088e-05 2.05804e-06
-0.126237 0 1.28117e-05 3.06803e-06
0.126238 -1.69407e-21 -2.95873e-09 2.05764e-06
-0.126238 0 -2.95857e-09 3.06744e-06
0.126238 -2.82344e-22 0.000619266 1.16969e-06
-0.126238 0 0.000619298 1.77126e-06
-0.126235 5.64689e-22 0.00122346 4.14685e-07
0.126235 2.82344e-22 0.00122343 2.25427e-07
0.126226 -1.35525e-20 0.00227599 1.00241e-06
-0.126226 -6.77626e-21 0.00227599 1.69013e-06
-0.126236 7.22801e-21 0.00188697 8.4054e-07
0.126236 -9.03502e-22 0.00188696 4.7533e-07
-0.126226 0 0.00261776 2.41692e-06
0.126226 0 0.00261777 1.37504e-06
-0.126229 0 0.00244352 1.85271e-06
0.126229 0 0.00244352 1.07933e-06
0.126315 0 0.00255712 1.24693e-06
-0.126315 0 0.00255712 2.15993e-06
0.126356 6.77626e-21 0.00262376 1.25879e-06
-0.126356 0 0.00262375 2.19704e-06
0.126428 -1.69407e-21 -3.96826e-09 2.07746e-06
-0.126428 1.69407e-21 -3.96825e-09 3.11184e-06
0.126532 -2.71051e-20 0.000306588 2.08655e-06
-0.126532 0 0.000306607 3.13083e-06
0.126537 -2.71051e-20 0.000920861 3.12587e-07
-0.126537 0 0.000920906 5.25715e-07
-0.126538 2.71051e-20 0.00153271 3.31275e-07
0.126538 0 0.00153267 1.43914e-07
-0.126534 -6.77626e-21 0.00228266 1.73974e-06
0.126534 0 0.00228265 1.0183e-06
-0.126678 -6.77626e-21 0.00263866 2.27369e-06
0.126678 -1.35525e-20 0.00263866 1.28587e-06
-0.126725 -1.35525e-20 0.00256107 2.2511e-06
0.126725 1.35525e-20 0.00256107 1.27944e-06
0.12681 0 -2.33736e-09 2.11612e-06
-0.12681 0 -2.33751e-09 3.19875e-06
0.12681 0 2.38797e-05 2.11608e-06
-0.12681 0 2.38782e-05 3.19869e-06
-0.126834 -3.38813e-21 -2.28167e-09 3.19272e-06
0.126834 3.38813e-21 -2.28152e-09 2.11078e-06
-0.126841 -5.64689e-22 0.000608425 1.89414e-06
0.126841 -5.64689e-22 0.000608368 1.23164e-06
-0.126845 -1.12938e-21 0.00122627 4.49808e-07
0.126845 2.25875e-21 0.0012262 2.33272e-07
0.126835 1.12938e-21 0.00228348 9.66957e-07
-0.126835 -1.12938e-21 0.0022835 1.68933e-06
-0.126844 0 0.00186227 7.86421e-07
0.126844 2.25875e-21 0.00186223 4.21198e-07
0.12683 -1.35525e-20 0.00264569 1.47821e-06
-0.12683 2.71051e-20 0.00264569 2.67624e-06
-0.126861 3.38813e-21 2.66631e-05 3.20908e-06
-0.126861 0 -2.23719e-09 3.20973e-06
0.126861 -3.38813e-21 2.66635e-05 2.11985e-06
0.126861 3.38813e-21 -2.23703e-09 2.12025e-06
-0.126948 0 0.00256381 2.30762e-06
0.126948 0 0.00256381 1.29903e-06
0.127003 0 0.00265368 1.31612e-06
-0.127003 0 0.00265368 2.3616e-06
0.127141 2.71051e-20 0.000306506 2.14384e-06
-0.127141 0 0.000306542 3.26847e-06
0.127145 0 0.000920575 3.24587e-07
-0.127145 -2.71051e-20 0.000920659 5.61335e-07
-0.127146 2.71051e-20 0.00153687 3.68879e-07
0.127146 -2.71051e-20 0.0015368 1.48441e-07
-0.127142 -1.35525e-20 0.00217837 1.33895e-06
0.127142 -1.35525e-20 0.00217834 7.65829e-07
-0.127139 2.71051e-20 0.00241072 2.27146e-06
0.127139 -1.35525e-20 0.00241071 1.29011e-06
-0.127248 0 0.00266497 2.42215e-06
0.127248 2.03288e-20 0.00266497 1.3375e-06
0.127307 0 0.0025681 1.32862e-06
-0.127307 -1.35525e-20 0.0025681 2.39062e-06
0.127382 -6.77626e-21 -8.22232e-10 2.17034e-06
-0.127382 -6.77626e-21 -8.22387e-10 3.33191e-06
0.127384 0 5.89438e-05 2.16955e-06
-0.127384 6.77626e-21 5.89471e-05 3.33073e-06
-0.127443 -6.77626e-21 -7.3248e-10 3.31709e-06
0.127443 0 -7.3232e-10 2.15708e-06
-0.127452 2.25875e-21 0.000608325 1.97465e-06
0.127452 4.51751e-21 0.000608231 1.26024e-06
-0.127454 -4.51751e-21 0.00122918 4.87328e-07
0.127454 -2.25875e-21 0.00122906 2.40653e-07
-0.127443 4.51751e-21 0.00229674 1.7735e-06
0.127443 0 0.00229672 9.88988e-07
0.127436 0 0.00267368 1.58295e-06
-0.127436 0 0.00267368 2.94577e-06
-0.127451 -6.77626e-21 0.00186218 8.09086e-07
0.127451 0 0.00186211 4.11895e-07