# kMean  POINT_DATA 14024
# x  y  z  kMean
0 0.0100383 9.88059e-08 4.2583e-07
0 -0.0100383 9.88059e-08 1.92949e-07
-6.77626e-21 0.0100383 0.000270318 4.43085e-07
-3.38813e-20 -0.0100383 0.000270355 1.69265e-07
0 0.0100383 0.000399158 4.84906e-07
-6.77626e-21 -0.0100383 0.000399216 1.71535e-07
0 0.0100383 0.000671987 6.13889e-07
0 -0.0100383 0.000672082 1.78537e-07
0 0.0100383 0.000954688 8.21812e-07
1.35525e-20 -0.0100383 0.000954778 1.72017e-07
2.71051e-20 0.0100383 0.00108461 8.49973e-07
-1.35525e-20 -0.0100383 0.00108472 1.72879e-07
0 0.0100383 0.00136726 7.40969e-07
0 -0.0100383 0.00136736 1.54216e-07
-2.03288e-20 0.0100382 0.00165828 7.49896e-07
6.77626e-21 -0.0100382 0.00165833 1.60922e-07
0 0.0100382 0.00179903 7.73694e-07
-1.35525e-20 -0.0100382 0.00179907 1.67644e-07
1.35525e-20 -0.0102118 8.66105e-08 1.65129e-07
0 0.0102118 8.66107e-08 4.42958e-07
-1.807e-20 0.0102382 0.000331506 4.76908e-07
0 -0.0102382 0.000331549 1.66125e-07
-2.71051e-20 0.0100382 0.002087 8.87603e-07
2.71051e-20 -0.0100382 0.002087 1.91049e-07
-4.51751e-21 0.0102243 0.000990461 8.19381e-07
0 -0.0102243 0.000990555 1.71408e-07
0 0.0102083 0.00163603 7.80601e-07
0 -0.0102083 0.00163609 1.68136e-07
-1.35525e-20 -0.0102224 0.00218426 2.33695e-07
2.71051e-20 0.0102224 0.00218426 1.09327e-06
0 0.010458 6.24978e-08 8.02901e-07
-2.71051e-20 -0.010458 6.24966e-08 2.26659e-07
-1.35525e-20 0.0104623 0.000144468 8.18204e-07
0 -0.0104623 0.000144482 2.2892e-07
2.25875e-21 0.0105577 0.000633897 8.39299e-07
-4.51751e-21 -0.0105577 0.000633982 1.95979e-07
1.35525e-20 0.01058 5.25664e-08 1.10677e-06
1.35525e-20 -0.01058 5.25657e-08 2.8648e-07
1.35525e-20 0.0104079 0.00203701 1.09079e-06
2.71051e-21 -0.0104079 0.00203703 2.34178e-07
-2.25875e-21 0.010539 0.0012563 5.39581e-07
6.77626e-21 -0.010539 0.00125641 1.12576e-07
0 0.0106667 9.98927e-05 1.35041e-06
-1.35525e-20 -0.0106667 9.99038e-05 3.10778e-07
7.52918e-21 0.0105324 0.00171547 7.12508e-07
7.52918e-21 -0.0105324 0.00171555 1.5367e-07
0 0.0104246 0.00229102 1.242e-06
-1.35525e-20 -0.0104246 0.00229102 2.70689e-07
0 -0.0106751 3.95308e-08 3.12692e-07
1.35525e-20 0.0106752 3.95301e-08 1.3623e-06
0 0.0105566 0.00221564 1.26181e-06
1.35525e-20 -0.0105566 0.00221565 2.76978e-07
1.35525e-20 -0.0105735 0.00236965 3.03907e-07
1.35525e-20 0.0105735 0.00236965 1.365e-06
0 -0.0108504 0.000315325 3.97535e-07
0 0.0108504 0.000315285 1.832e-06
2.71051e-20 0.0108348 0.000932849 2.87445e-07
-2.71051e-20 -0.0108348 0.000932939 6.07858e-08
-2.71051e-20 0.0108178 0.0015192 2.12169e-07
0 -0.0108178 0.00151928 4.4506e-08
-1.35525e-20 -0.0106814 0.00242665 3.26622e-07
1.35525e-20 0.0106814 0.00242665 1.44479e-06
0 -0.0107334 0.002339 3.24613e-07
1.35525e-20 0.0107334 0.00233899 1.43662e-06
-6.77626e-21 -0.0110782 8.04033e-09 4.88835e-07
0 0.0110782 8.03996e-09 2.29459e-06
0 -0.0110788 6.39066e-05 4.90258e-07
6.77626e-21 0.0110788 6.38974e-05 2.30101e-06
0 -0.0111402 -5.0826e-11 5.16676e-07
0 0.0111402 -5.09721e-11 2.42587e-06
-1.12938e-21 0.0111346 0.0006105 1.4156e-06
-2.25875e-21 -0.0111346 0.000610587 2.994e-07
1.12938e-21 0.0111195 0.00122922 2.90575e-07
-2.25875e-21 -0.0111195 0.00122932 5.8943e-08
0 0.0110331 0.00190695 7.2075e-07
-1.807e-21 -0.0110331 0.00190701 1.58713e-07
0 0.0111969 4.05707e-11 2.54093e-06
0 -0.0111969 4.06969e-11 5.39657e-07
0 0.011197 5.94825e-05 2.53954e-06
0 -0.011197 5.94923e-05 5.39391e-07
2.71051e-20 0.0109687 0.00229798 1.55772e-06
0 -0.0109687 0.002298 3.56992e-07
0 0.0109784 0.0025835 1.66196e-06
1.35525e-20 -0.0109784 0.0025835 3.78429e-07
0 0.0110322 0.00252115 1.66485e-06
-1.35525e-20 -0.0110322 0.00252116 3.79073e-07
-1.35525e-20 -0.0110647 0.00262905 3.91432e-07
1.35525e-20 0.0110647 0.00262905 1.72292e-06
0 -0.0114329 0.000303637 6.32999e-07
-2.71051e-20 0.0114329 0.000303602 3.0126e-06
0 -0.0111379 0.00266759 4.00696e-07
0 0.0111379 0.00266759 1.76587e-06
0 -0.0111676 0.0026113 4.00129e-07
1.35525e-20 0.0111676 0.0026113 1.76317e-06
-2.71051e-20 0.0114367 0.000916218 4.76687e-07
-2.71051e-20 -0.0114367 0.000916296 9.41504e-08
6.02335e-21 0.011273 0.00233142 1.27782e-06
-1.50584e-21 -0.011273 0.00233144 2.88282e-07
-2.71051e-20 0.0114108 0.00155884 1.87631e-07
-2.71051e-20 -0.0114108 0.00155891 3.66575e-08
0 0.0114547 0.00210257 3.82704e-07
-2.71051e-20 -0.0114548 0.00210261 8.03473e-08
0 -0.0116763 1.11166e-09 7.31944e-07
0 0.0116763 1.11171e-09 3.37665e-06
0 -0.0116771 3.85435e-05 7.32098e-07
0 0.0116771 3.8534e-05 3.37717e-06
-2.71051e-20 0.011407 0.00257358 1.86831e-06
-2.71051e-20 -0.011407 0.00257359 4.2183e-07
0 -0.0117135 1.17278e-09 7.47158e-07
-6.77626e-21 0.0117135 1.17283e-09 3.43327e-06
-6.77626e-21 0.0117497 1.11165e-09 3.48354e-06
6.77626e-21 -0.0117497 1.11158e-09 7.61044e-07
0 0.0117514 3.59557e-05 3.48315e-06
0 -0.0117514 3.59627e-05 7.60943e-07
-1.12938e-21 0.0117364 0.000596544 2.02294e-06
-1.69407e-21 -0.0117364 0.000596601 4.34564e-07
-5.64689e-22 0.0117435 0.00122269 4.06765e-07
5.64689e-22 -0.0117435 0.00122276 8.16633e-08
6.77626e-21 0.0114702 0.00284265 2.73229e-06
-6.77626e-21 -0.0114702 0.00284265 6.23505e-07
-6.77626e-21 0.0114996 0.00279927 2.7447e-06
-6.77626e-21 -0.0114996 0.00279927 6.26412e-07
0 0.0115305 0.00287442 3.0392e-06
0 -0.0115305 0.00287442 6.96529e-07
3.38813e-21 0.0117521 0.00184882 3.5575e-07
0 -0.0117521 0.00184887 7.91442e-08
-1.35525e-20 -0.011585 0.00290382 7.64662e-07
6.77626e-21 0.011585 0.00290383 3.33181e-06
-5.64689e-21 0.0117097 0.00240795 1.78049e-06
4.51751e-21 -0.0117097 0.00240797 4.07485e-07
0 -0.01162 0.00284239 7.61147e-07
0 0.01162 0.00284239 3.31695e-06
0 -0.0120252 0.000293165 8.61422e-07
0 0.0120252 0.000293146 3.85218e-06
2.71051e-20 0.0120563 0.000895205 6.77243e-07
2.71051e-20 -0.0120563 0.000895248 1.33346e-07
-2.71051e-20 0.0120785 0.0015256 2.78623e-07
2.71051e-20 -0.0120785 0.00152564 6.11359e-08
2.71051e-20 0.0119134 0.00273995 4.19419e-06
-2.71051e-20 -0.0119134 0.00273996 9.65782e-07
-2.71051e-20 0.0120751 0.00217652 5.73903e-07
0 -0.0120751 0.00217654 1.38893e-07
-3.38813e-21 -0.0122802 1.16251e-10 8.96242e-07
-3.38813e-21 0.0122802 1.16247e-10 3.91935e-06
0 -0.0122814 2.10156e-05 8.96255e-07
-3.38813e-21 0.0122814 2.10087e-05 3.91935e-06
3.38813e-21 -0.0123014 8.01245e-11 8.99076e-07
3.38813e-21 0.0123014 8.01301e-11 3.92493e-06
-3.38813e-21 0.012322 7.76986e-11 3.9286e-06
0 -0.012322 7.76925e-11 9.01505e-07
0 0.0123232 1.85971e-05 3.92856e-06
-3.38813e-21 -0.0123232 1.86029e-05 9.01489e-07
0 0.01193 0.00308971 4.09502e-06
0 -0.01193 0.00308971 9.73094e-07
6.77626e-21 0.0119644 0.0030398 4.09245e-06
6.77626e-21 -0.0119644 0.0030398 9.72855e-07
-1.12938e-21 0.0123483 0.000568672 2.34774e-06
0 -0.0123483 0.000568694 5.28822e-07
0 -0.0119766 0.00311487 9.7507e-07
6.77626e-21 0.0119766 0.00311487 4.06639e-06
0 -0.0120209 0.00313842 9.76719e-07
0 0.0120209 0.00313842 4.05027e-06
-1.35525e-20 -0.0120441 0.00309412 9.76355e-07
6.77626e-21 0.0120441 0.00309412 4.04997e-06
1.12938e-21 0.012391 0.00118191 5.47317e-07
1.69407e-21 -0.012391 0.00118194 1.18135e-07
5.64689e-22 0.0124059 0.00184694 4.40186e-07
-1.12938e-21 -0.0124059 0.00184696 1.12426e-07
2.71051e-20 0.0126198 0.000269535 3.99566e-06
2.71051e-20 -0.0126198 0.000269545 9.36539e-07
1.807e-21 0.0123629 0.00258809 2.08257e-06
9.03502e-22 -0.0123629 0.00258809 5.05352e-07
2.71051e-20 -0.012324 0.00300712 9.81276e-07
2.71051e-20 0.012324 0.00300712 3.93853e-06
0 0.0126818 0.000839769 7.72031e-07
0 -0.0126819 0.000839778 1.61151e-07
0 -0.0123691 0.00332403 9.82603e-07
6.77626e-21 0.0123692 0.00332402 3.81381e-06
2.71051e-20 0.0127333 0.00147339 4.54085e-07
0 -0.0127333 0.0014734 1.15483e-07
6.77626e-21 -0.0123952 0.00328327 9.82313e-07
6.77626e-21 0.0123952 0.00328326 3.81104e-06
-6.77626e-21 -0.0124114 0.00334656 9.79217e-07
0 0.0124115 0.00334656 3.7622e-06
0 -0.0128908 5.71212e-06 8.77396e-07
0 0.0128903 3.97342e-12 3.60669e-06
0 -0.0128967 3.22163e-12 8.76069e-07
8.47033e-22 0.0128967 3.22196e-12 3.59815e-06
0 -0.0124524 0.00336833 9.77938e-07
0 0.0124525 0.00336833 3.72102e-06
0 0.0129024 4.47165e-06 3.5896e-06
0 -0.0129024 4.47647e-06 8.74727e-07
-6.77626e-21 -0.0124699 0.00333453 9.77838e-07
6.77626e-21 0.01247 0.00333453 3.72251e-06
0 0.0127306 0.0021762 4.55169e-07
2.71051e-20 -0.0127306 0.00217621 1.34595e-07
0 0.0129435 0.000502357 2.35473e-06
0 -0.0129436 0.000502359 5.68073e-07
-3.89635e-20 0.0129444 0.000510125 2.32517e-06
1.69407e-21 -0.0129526 0.000508428 5.61417e-07
0 -0.0126107 0.00303067 7.34113e-07
-2.25875e-21 0.0126107 0.00303067 2.83625e-06
0 0.0127835 0.00277774 8.91122e-07
0 -0.0127835 0.00277774 2.19099e-07
-1.97641e-22 -0.0130621 0.00107673 3.38673e-07
1.41172e-22 0.0130621 0.00107673 1.26565e-06
-2.71051e-20 -0.0127348 0.00327342 9.77226e-07
-2.71051e-20 0.0127349 0.00327342 3.58568e-06
0 0.0131536 0.000461241 3.12913e-06
0 -0.0131537 0.000461237 7.94136e-07
0 0.0131765 0.000218763 3.1993e-06
2.71051e-20 -0.0131765 0.000218756 8.15422e-07
4.23516e-22 0.0131833 1.68074e-12 4.53632e-06
0 -0.0131834 1.67988e-12 1.15993e-06
8.47033e-22 0.013081 0.00177272 7.35878e-07
-1.12938e-21 -0.013081 0.00177273 2.54228e-07
0 0.0127833 0.00354412 4.69719e-06
0 -0.0127833 0.00354413 1.41254e-06
-1.35525e-20 0.0128061 0.00351006 4.71088e-06
0 -0.0128061 0.00351007 1.41782e-06
5.64689e-22 0.0130749 0.00248236 7.98617e-07
0 -0.0130749 0.00248236 2.78266e-07
6.77626e-21 0.0128267 0.00356714 4.87157e-06
6.77626e-21 -0.0128267 0.00356715 1.49249e-06
0 0.0132939 0.000722069 1.24692e-06
0 -0.0132939 0.000722074 3.0764e-07
1.35525e-20 -0.0128705 0.00359021 1.633e-06
6.77626e-21 0.0128705 0.0035902 5.16948e-06
0 -0.0129024 0.00352957 1.61632e-06
0 0.0129024 0.00352956 5.14067e-06
0 -0.0130201 0.00308568 9.21396e-07
-1.12938e-21 0.0130201 0.00308568 3.01079e-06
0 -0.0133991 0.000404506 1.07002e-06
0 0.0133991 0.000404507 4.08062e-06
0 0.013401 0.000412597 4.10562e-06
6.77626e-21 -0.013401 0.000412597 1.07708e-06
8.47033e-22 0.0134864 4.8798e-06 5.49962e-06
0 -0.0134865 4.88093e-06 1.45246e-06
-8.47033e-22 0.0134935 6.35544e-15 5.55227e-06
0 -0.0134936 6.33962e-15 1.46696e-06
-2.71051e-20 0.0134291 0.0013211 1.14218e-06
0 -0.0134291 0.0013211 3.41937e-07
8.47033e-22 0.0134987 6.99577e-06 5.60606e-06
0 -0.0134988 6.99782e-06 1.48177e-06
0 0.0135005 6.30778e-15 5.60672e-06
0 -0.0135006 6.29213e-15 1.48196e-06
-2.71051e-20 0.0134156 0.00209107 9.21838e-07
0 -0.0134156 0.00209107 4.25989e-07
0 0.0131946 0.003407 6.18696e-06
2.71051e-20 -0.0131946 0.00340701 2.01675e-06
2.71051e-20 -0.0133762 0.00281985 3.46919e-07
0 0.0133762 0.00281985 9.27645e-07
0 0.0131542 0.00373938 6.23015e-06
0 -0.0131543 0.00373939 2.07254e-06
1.35525e-20 0.0132115 0.00367304 6.25964e-06
0 -0.0132115 0.00367305 2.07885e-06
0 0.0137224 0.000302331 7.90792e-06
-2.71051e-20 -0.0137225 0.000302334 2.11904e-06
0 0.0132141 0.00377084 6.21823e-06
0 -0.0132141 0.00377085 2.06355e-06
-2.25875e-22 0.0137748 0.000790616 6.21328e-06
-2.82344e-22 -0.0137748 0.000790615 1.81263e-06
0 0.0132699 0.00380392 6.43707e-06
0 -0.0132699 0.00380392 2.14647e-06
0 0.0133033 0.0037381 6.43827e-06
1.35525e-20 -0.0133033 0.0037381 2.14343e-06
-6.35275e-22 0.013766 0.00148261 3.15712e-06
-2.11758e-22 -0.013766 0.00148308 1.12055e-06
-6.56451e-21 0.0137616 0.00166834 2.32997e-06
-2.11758e-22 -0.0137654 0.0016726 9.34012e-07
-1.12938e-21 0.0137168 0.00245604 1.48011e-06
-2.82344e-22 -0.0137168 0.00245604 7.92041e-07
-9.03502e-22 0.0136289 0.00324654 3.5013e-06
-4.51751e-22 -0.0136289 0.00324654 1.27765e-06
-2.71051e-20 0.0135494 0.00365539 6.56531e-06
-2.71051e-20 -0.0135494 0.00365539 2.2096e-06
1.69407e-21 0.0140721 1.55614e-05 1.21361e-05
1.69407e-21 -0.0140722 1.55723e-05 3.51588e-06
0 0.0140756 -2.0176e-16 1.21333e-05
-1.69407e-21 -0.0140757 -2.01911e-16 3.51494e-06
3.38813e-21 0.0140911 -3.05359e-16 1.23658e-05
0 -0.0140912 -3.0516e-16 3.5914e-06
1.69407e-21 0.0141007 2.2037e-05 1.25974e-05
0 -0.0141008 2.20527e-05 3.66708e-06
0 0.0141074 -2.98024e-16 1.26027e-05
1.69407e-21 -0.0141076 -2.97827e-16 3.66879e-06
0 -0.0135544 0.00397426 2.17548e-06
0 0.0135544 0.00397427 6.34379e-06
0 -0.0140341 0.00165404 1.78993e-06
-2.11758e-22 0.0140348 0.001654 3.89394e-06
-6.77626e-21 -0.0135849 0.0039369 2.17442e-06
0 0.0135849 0.00393691 6.34164e-06
0 -0.0135876 0.00399408 2.14084e-06
6.77626e-21 0.0135876 0.00399409 6.24535e-06
-2.71051e-20 0.0141246 0.00121981 4.59907e-06
0 -0.0141246 0.00121981 1.45683e-06
6.77626e-21 0.0136161 0.00401528 6.31598e-06
0 -0.0136161 0.00401529 2.17037e-06
0 0.013638 0.00398927 6.31653e-06
-6.77626e-21 -0.013638 0.00398927 2.1702e-06
-2.71051e-20 0.0140719 0.00204106 2.81343e-06
5.42101e-20 -0.0140719 0.00204106 1.53166e-06
2.71051e-20 0.0142772 0.000421917 1.68835e-05
0 -0.0142772 0.000421919 5.08298e-06
0 0.0140129 0.00281709 1.36202e-06
2.71051e-20 -0.0140129 0.00281709 9.14393e-07
0 -0.0138313 0.00369716 1.70038e-06
3.76459e-22 0.0138313 0.00369716 4.83694e-06
2.71051e-20 0.0140444 0.00346029 1.63308e-06
-2.71051e-20 -0.0140444 0.00346029 6.90872e-07
0 0.0139247 0.00394753 6.05595e-06
-2.71051e-20 -0.0139247 0.00394753 2.12553e-06
-4.23516e-22 -0.0144296 0.00162635 3.03572e-06
4.23516e-22 0.0144296 0.00162636 6.17015e-06
-1.05879e-20 -0.0144358 0.00162651 3.05175e-06
0 0.0144292 0.00163346 6.18947e-06
2.11758e-22 0.0144133 0.00187151 5.26222e-06
2.11758e-22 -0.0144133 0.00187201 2.90497e-06
3.38813e-21 -0.0139302 0.00424974 2.13756e-06
0 0.0139302 0.00424974 5.74553e-06
0 0.0145459 0.000829512 1.50497e-05
-1.41172e-21 -0.0145459 0.000829511 5.03597e-06
-1.41172e-22 0.0143705 0.00241704 3.17838e-06
5.64689e-22 -0.0143705 0.00241704 2.57996e-06
0 -0.0139467 0.00423388 2.13725e-06
3.38813e-21 0.0139467 0.00423389 5.7425e-06
-3.38813e-21 -0.0139493 0.00426393 2.14147e-06
0 0.0139493 0.00426393 5.71857e-06
-3.38813e-21 0.0139672 0.00427742 5.68107e-06
3.38813e-21 -0.0139673 0.00427743 2.14183e-06
0 0.0139799 0.00425949 5.68129e-06
3.38813e-21 -0.0139799 0.00425949 2.14159e-06
-2.82344e-22 0.0143443 0.0031393 1.91111e-06
8.47033e-22 -0.0143443 0.0031393 1.64755e-06
0 -0.0146845 2.60901e-05 6.84001e-06
0 0.0146845 2.60619e-05 2.14982e-05
-3.38813e-21 -0.0146916 -2.56338e-19 6.83728e-06
-3.38813e-21 0.0146916 -2.5093e-19 2.14911e-05
0 -0.0147109 8.3978e-18 6.95369e-06
0 0.0147109 8.40222e-18 2.17997e-05
0 0.0147271 2.99299e-05 2.20713e-05
-3.38813e-21 -0.0147271 2.99641e-05 7.04963e-06
0 0.0147301 8.1741e-18 2.20761e-05
3.38813e-21 -0.0147302 8.16959e-18 7.05128e-06
-1.69407e-21 0.0143144 0.00384164 3.39295e-06
-5.64689e-22 -0.0143144 0.00384165 1.53649e-06
2.71051e-20 -0.0147153 0.00202632 4.36262e-06
0 0.0147153 0.00202632 5.42659e-06
2.71051e-20 -0.0148123 0.00125345 4.75057e-06
2.71051e-20 0.0148123 0.00125345 1.18949e-05
-5.42101e-20 0.0142662 0.00421646 5.3545e-06
0 -0.0142662 0.00421647 2.14687e-06
0 0.0146941 0.00275223 3.09214e-06
2.71051e-20 -0.0146941 0.00275223 3.4567e-06
0 -0.0149583 0.000465189 8.70803e-06
2.71051e-20 0.0149583 0.000465187 2.64205e-05
0 -0.0143128 0.00453664 2.16124e-06
0 0.0143129 0.00453665 5.18854e-06
1.69407e-21 -0.0143174 0.0045308 2.16118e-06
1.69407e-21 0.0143174 0.00453082 5.18818e-06
0 -0.014319 0.00454125 2.16236e-06
0 0.014319 0.00454125 5.18422e-06
0 0.0143246 0.00454547 5.18048e-06
0 -0.0143246 0.00454547 2.16371e-06
0 0.014329 0.00454047 5.18036e-06
0 -0.014329 0.00454047 2.1636e-06
0 0.0146519 0.00346949 1.65582e-06
2.71051e-20 -0.0146519 0.00346949 1.68917e-06
0 -0.0145371 0.00427137 1.74432e-06
-4.23516e-22 0.0145371 0.00427137 4.02341e-06
-1.8823e-22 -0.0150759 0.00166227 6.65938e-06
0 0.0150759 0.00166227 1.05479e-05
0 0.0146079 0.0042979 3.83146e-06
0 -0.0146083 0.00429801 1.75573e-06
-5.29396e-22 -0.0150582 0.00232575 6.45326e-06
1.05879e-22 0.0150585 0.0023257 6.24455e-06
0 0.0147146 0.00405696 1.71482e-06
0 -0.0147146 0.00405696 9.11586e-07
0 -0.0151053 0.00231902 6.72071e-06
3.52048e-20 0.0151053 0.00231902 6.45455e-06
0 0.015093 0.00240332 6.10742e-06
2.64698e-22 -0.0150929 0.00240387 6.53383e-06
1.69407e-21 0.014553 0.00471681 4.81747e-06
4.23516e-22 -0.0145535 0.00471718 2.16697e-06
4.23516e-22 0.0149811 0.00311066 3.15867e-06
4.23516e-22 -0.0149812 0.00311066 4.93963e-06
-9.74088e-21 0.0149807 0.00311889 3.15865e-06
0 -0.0149884 0.00311084 4.9608e-06
5.42101e-20 0.0146393 0.00452216 4.98924e-06
0 -0.0146393 0.00452217 2.16876e-06
0 -0.0153521 2.62975e-05 1.07018e-05
0 0.0153522 2.62884e-05 2.94352e-05
0 -0.0153541 1.06036e-19 1.06992e-05
0 0.0153541 1.06058e-19 2.94313e-05
5.64689e-22 -0.0153336 0.000981682 9.55186e-06
-5.64689e-22 0.0153336 0.000981684 2.1831e-05
-3.38813e-21 -0.015371 -9.43424e-20 1.08137e-05
0 0.015371 -9.43934e-20 2.96091e-05
-3.38813e-21 0.0153889 1.38802e-05 2.97891e-05
0 -0.0153889 1.38838e-05 1.0932e-05
0 0.0153893 -9.17904e-20 2.979e-05
0 -0.0153893 -9.17398e-20 1.09326e-05
0 0.0146775 0.00480513 4.63051e-06
0 -0.0146713 0.00480158 2.16927e-06
0 -0.0149797 0.00377544 2.79848e-06
-2.49875e-20 0.0149766 0.00377561 1.9764e-06
-6.35275e-22 0.0149779 0.00383376 2.05452e-06
8.47033e-22 -0.0149779 0.00383404 2.71005e-06
-2.71051e-20 0.0153191 0.00276241 5.03062e-06
5.42101e-20 -0.0153191 0.00276241 8.38726e-06
2.25875e-22 -0.0149757 0.00442242 1.81081e-06
-6.77626e-22 0.0149757 0.00442242 2.85634e-06
2.71051e-20 0.0152934 0.00343578 2.86658e-06
0 -0.0152934 0.00343579 6.25226e-06
0 0.0149462 0.00476533 4.26756e-06
-2.71051e-20 -0.0149462 0.00476533 2.15644e-06
-5.42101e-20 0.0157071 0.00173869 1.60957e-05
5.42101e-20 -0.0157071 0.00173869 1.30652e-05
2.71051e-20 0.0152785 0.00409439 1.7202e-06
0 -0.0152785 0.0040944 2.62157e-06
0 0.014998 0.00505066 4.36585e-06
0 -0.014998 0.00505067 2.30715e-06
0 0.0150083 0.00502928 4.36343e-06
0 -0.0150083 0.00502931 2.30539e-06
-8.68209e-21 -0.01566 0.00240905 1.42627e-05
0 0.01566 0.00240905 9.05803e-06
0 -0.0150173 0.00506515 2.34094e-06
0 0.0150173 0.00506514 4.40634e-06
-2.11758e-22 0.015642 0.00267535 7.51853e-06
0 -0.015642 0.00267557 1.36346e-05
0 -0.0150364 0.00507946 2.33956e-06
0 0.0150364 0.00507947 4.38746e-06
-6.77626e-21 -0.0150495 0.00506281 2.3393e-06
0 0.0150495 0.00506281 4.38567e-06
-5.42101e-20 0.015871 0.000522609 3.50316e-05
-5.42101e-20 -0.0158711 0.00052261 1.44004e-05
0 -0.0156198 0.00308833 1.26591e-05
0 0.0156143 0.00308867 5.12539e-06
-1.50584e-21 0.0151805 0.0048173 3.30666e-06
0 -0.0151805 0.0048173 1.93513e-06
0 0.0153242 0.00462128 1.11192e-06
-2.71051e-20 -0.0153242 0.00462128 1.14032e-06
-4.23516e-22 0.0155928 0.00376523 2.86853e-06
2.82344e-22 -0.0155928 0.00376523 8.97194e-06
-2.71051e-20 0.0152849 0.0050422 4.46267e-06
0 -0.0152849 0.0050422 2.47761e-06
0 -0.015956 0.00273569 2.03788e-05
-2.71051e-20 0.015956 0.00273569 8.66699e-06
3.5293e-23 -0.0156111 0.00436319 5.21839e-06
1.41172e-22 0.0156111 0.00436314 2.01205e-06
0 0.01536 0.00532139 6.75179e-06
0 -0.015359 0.00532072 4.1109e-06
2.71051e-20 -0.0159107 0.00341804 1.57642e-05
0 0.0159107 0.00341804 4.04627e-06
0 -0.0153751 0.00533351 4.18809e-06
1.05879e-22 0.0153755 0.00533384 6.84649e-06
0 0.0155376 0.00491086 4.20975e-06
1.12938e-21 -0.0155376 0.00491087 3.15587e-06
2.71051e-20 0.015907 0.00407426 2.86096e-06
0 -0.015907 0.00407427 1.13679e-05
0 0.0163929 0.00113505 3.24397e-05
-2.82344e-22 -0.0163929 0.00113505 2.51056e-05
1.69407e-21 -0.0164714 7.31819e-06 2.22441e-05
-1.69407e-21 0.0164714 7.30942e-06 4.16238e-05
0 -0.0164715 3.37843e-21 2.22434e-05
0 0.0164715 3.38102e-21 4.16232e-05
0 -0.0164799 3.92501e-21 2.23482e-05
0 0.0164799 3.92783e-21 4.17111e-05
0 0.0164875 7.98184e-06 4.18037e-05
0 -0.0164875 7.99151e-06 2.24542e-05
0 0.0164879 3.93933e-21 4.18038e-05
1.69407e-21 -0.0164879 3.93671e-21 2.24543e-05
8.47033e-22 -0.0162419 0.00306677 2.19932e-05
2.82344e-22 0.0162419 0.00306677 6.63389e-06
0 -0.0163552 0.00243071 2.60298e-05
1.05879e-22 0.0163553 0.00243042 1.33738e-05
1.19643e-20 -0.0163749 0.00231073 2.67955e-05
1.05879e-22 0.0163752 0.00230864 1.46538e-05
2.71051e-20 0.0156952 0.00522881 9.14614e-06
0 -0.0156952 0.00522881 5.82293e-06
0 0.0158708 0.00471772 2.00286e-06
0 -0.0158708 0.00471773 3.38163e-06
0 -0.0156945 0.00557308 5.77425e-06
0 0.0156945 0.00557309 8.7474e-06
1.69407e-21 -0.0157031 0.00556196 5.77357e-06
0 0.0157031 0.00556198 8.7462e-06
0 -0.0157032 0.00557964 5.76224e-06
0 0.0157032 0.00557964 8.71403e-06
-1.69407e-21 0.0157125 0.0055866 8.69935e-06
0 -0.0157125 0.00558661 5.76337e-06
0 0.0157204 0.00557597 8.69953e-06
0 -0.0157205 0.00557597 5.76302e-06
1.41172e-22 -0.0163001 0.00366347 2.02265e-05
-2.82344e-22 0.0163001 0.00366347 4.28123e-06
1.41172e-22 0.0161921 0.00441855 2.83988e-06
2.82344e-22 -0.0161921 0.00441855 1.26155e-05
-2.35287e-22 -0.0161069 0.00511691 5.97478e-06
3.76459e-22 0.0161069 0.0051169 4.98578e-06
2.71051e-20 0.01604 0.00551404 8.27883e-06
5.42101e-20 -0.01604 0.00551404 5.6862e-06
2.71051e-20 -0.016526 0.00408753 2.48593e-05
5.42101e-20 0.016526 0.00408753 4.17281e-06
0 0.0170249 0.000578089 4.82989e-05
0 -0.0170249 0.000578088 3.01842e-05
0 0.0169748 0.00175444 2.94209e-05
-5.42101e-20 -0.0169748 0.00175444 4.2593e-05
0 -0.0160444 0.00583567 5.66475e-06
0 0.0160444 0.00583566 7.85225e-06
3.38813e-21 -0.0160574 0.00581994 5.66398e-06
0 0.0160574 0.00581994 7.85051e-06
0 0.0160586 0.00584628 7.80249e-06
0 -0.0160586 0.00584629 5.65243e-06
0 0.0160728 0.00585689 7.76335e-06
3.38813e-21 -0.0160728 0.00585691 5.64817e-06
-3.38813e-21 0.0160861 0.00584361 7.76397e-06
3.38813e-21 -0.0160861 0.00584362 5.64786e-06
0 -0.0168748 0.00305299 3.44797e-05
0 0.0168748 0.00305299 7.22776e-06
0 0.0164851 0.00475809 2.37721e-06
0 -0.0164851 0.00475809 1.13605e-05
-1.8823e-22 0.0163205 0.005565 6.09204e-06
0 -0.0163205 0.00556501 5.32447e-06
-1.8823e-22 0.0168571 0.00373388 5.50178e-06
8.47033e-22 -0.0168571 0.00373388 3.23713e-05
0 0.0165295 0.00534686 2.53921e-06
0 -0.0165295 0.00534686 4.64862e-06
-5.64689e-22 -0.0168299 0.0044115 2.64056e-05
4.23516e-22 0.0168299 0.0044115 4.18428e-06
2.71051e-20 0.0164078 0.00581578 7.32408e-06
0 -0.0164078 0.00581579 5.6122e-06
3.38813e-21 -0.0163998 0.00610069 5.56689e-06
0 0.0163998 0.00610068 6.90134e-06
-3.38813e-21 0.0164127 0.00608898 6.90012e-06
3.38813e-21 -0.0164127 0.00608898 5.56644e-06
0 0.0164129 0.00611042 6.86552e-06
-3.38813e-21 -0.0164129 0.00611043 5.56152e-06
0 0.016425 0.00612105 6.83065e-06
0 -0.016425 0.00612106 5.55674e-06
0 0.0164353 0.00610824 6.83121e-06
0 -0.0164353 0.00610825 5.55656e-06
-8.47033e-22 -0.0168163 0.00505861 1.49854e-05
4.23516e-22 0.0168163 0.00505861 3.01686e-06
0 -0.0176215 4.77892e-06 4.2027e-05
-8.47033e-22 0.0176265 -3.90468e-24 5.27834e-05
8.47033e-22 0.0176313 4.81285e-06 5.28482e-05
-8.47033e-22 -0.0176314 -3.86162e-24 4.2196e-05
5.64689e-22 0.0175955 0.00115783 4.33878e-05
0 -0.0175956 0.00115783 5.38233e-05
0 -0.017176 0.0040533 3.82386e-05
0 0.017176 0.0040533 5.75415e-06
6.60686e-20 -0.0175451 0.00239264 5.95057e-05
0 0.0175451 0.00239265 2.17351e-05
3.98105e-20 -0.0175529 0.00240109 5.96492e-05
0 0.017553 0.00239273 2.16743e-05
-2.25875e-22 -0.016789 0.00571973 6.94654e-06
-2.25875e-22 0.016789 0.00571973 4.39733e-06
-2.71051e-20 -0.0171455 0.00472285 3.10038e-05
0 0.0171455 0.00472285 4.42336e-06
5.42101e-20 0.0167243 0.00608098 6.40121e-06
0 -0.0167243 0.00608098 5.50392e-06
-5.29396e-23 -0.0175066 0.00343173 4.88256e-05
1.58819e-22 0.0175066 0.00343177 8.79886e-06
0 -0.0175023 0.00354698 4.76296e-05
5.29396e-23 0.0175024 0.00354592 7.37294e-06
0 -0.0167347 0.00638838 5.83002e-06
3.38813e-21 0.0167347 0.00638838 6.43987e-06
3.38813e-21 -0.0167445 0.00637729 5.83032e-06
0 0.0167445 0.0063773 6.43971e-06
-3.38813e-21 -0.0167456 0.00639795 5.85414e-06
0 0.0167456 0.00639795 6.44332e-06
5.29396e-23 0.0175745 0.00356409 7.45994e-06
0 -0.0175745 0.0035641 4.8853e-05
3.38813e-21 0.0167557 0.00640831 6.44541e-06
0 -0.0167557 0.00640832 5.87709e-06
0 0.0167665 0.00639832 6.44513e-06
3.38813e-21 -0.0167665 0.00639832 5.87628e-06
-2.71051e-20 0.017128 0.00537448 2.80663e-06
2.71051e-20 -0.017128 0.00537448 1.41367e-05
-2.0117e-20 -0.0174754 0.00438289 4.20923e-05
3.1552e-20 0.0174755 0.00437875 5.92189e-06
3.76459e-22 -0.0169872 0.00615002 5.72355e-06
9.41148e-22 0.0169872 0.00615002 5.07168e-06
0 -0.0174587 0.00503849 3.33229e-05
1.43996e-20 0.0174538 0.00503866 4.81914e-06
0 0.0171853 0.00594727 2.27035e-06
-2.71051e-20 -0.0171853 0.00594727 5.45997e-06
0 0.0182056 0.000582761 5.73773e-05
0 -0.0182056 0.000582755 5.41571e-05
0 0.0170678 0.00640561 6.47821e-06
-5.42101e-20 -0.0170678 0.00640561 6.19589e-06
-5.42101e-20 -0.0177914 0.004032 4.99284e-05
5.42101e-20 0.0177914 0.004032 6.75901e-06
-5.42101e-20 0.018185 0.00177763 3.80796e-05
-5.42101e-20 -0.018185 0.00177763 8.89764e-05
0 -0.0170411 0.00670226 6.09285e-06
-3.38813e-21 0.0170411 0.00670226 6.13564e-06
-3.38813e-21 -0.0170521 0.00669292 6.0924e-06
0 0.0170521 0.00669292 6.13486e-06
0 -0.017051 0.00671245 6.08546e-06
0 0.017051 0.00671244 6.11188e-06
0 0.0170609 0.00672261 6.08686e-06
3.38813e-21 -0.0170609 0.00672262 6.07711e-06
-3.38813e-21 0.0170703 0.0067113 6.08723e-06
0 -0.0170703 0.0067113 6.07704e-06
4.23516e-22 -0.0174549 0.00566696 1.8357e-05
-7.6233e-21 0.0174549 0.00566696 3.31744e-06
0 -0.0174621 0.00566666 1.84205e-05
-2.49875e-20 0.0174555 0.00567336 3.32567e-06
2.71051e-20 -0.0177854 0.00469986 4.90149e-05
2.71051e-20 0.0177854 0.00469986 6.71502e-06
5.42101e-20 0.0181697 0.0030568 1.10115e-05
0 -0.0181697 0.0030568 7.17204e-05
4.23516e-22 0.0181311 0.00370549 8.11231e-06
0 -0.0181311 0.00370549 5.81768e-05
4.23516e-22 0.0181386 0.00370544 8.13429e-06
-1.2282e-20 -0.0181386 0.00370544 5.83149e-05
4.51751e-22 -0.0174312 0.00632674 7.99687e-06
0 0.0174312 0.00632674 4.06061e-06
0 -0.0177791 0.00534408 3.9144e-05
5.42101e-20 0.0177791 0.00534408 5.34259e-06
2.71051e-20 0.0173547 0.00669604 5.73877e-06
-2.71051e-20 -0.0173547 0.00669604 5.96678e-06
0 -0.0181107 0.00435386 5.31091e-05
0 0.0181107 0.00435393 7.17903e-06
0 -0.0181104 0.00436061 5.30552e-05
0 0.0181104 0.00436061 7.16924e-06
-6.61744e-23 0.0181186 0.00436044 7.1894e-06
0 -0.0181187 0.00436044 5.31853e-05
0 -0.017346 0.00701596 6.38933e-06
0 0.017346 0.00701596 5.85804e-06
0 -0.017356 0.00700506 6.38977e-06
0 0.017356 0.00700507 5.85803e-06
0 -0.017356 0.0070262 6.42069e-06
-3.38813e-21 0.017356 0.0070262 5.8673e-06
0 0.017366 0.00703645 5.87554e-06
0 -0.017366 0.00703645 6.45104e-06
-3.38813e-21 0.0173769 0.00702633 5.87511e-06
3.38813e-21 -0.0173769 0.00702633 6.45001e-06
0 -0.0177656 0.00598778 1.64622e-05
-2.71051e-20 0.0177656 0.00598778 3.01201e-06
0 -0.0181031 0.00501242 4.97034e-05
-3.44637e-20 0.0181027 0.00501244 6.86183e-06
0 0.018806 3.41784e-06 6.06902e-05
-4.23516e-22 -0.018799 3.40978e-06 6.99275e-05
0 -0.0187936 0.00116587 9.1366e-05
-5.64689e-22 0.0187936 0.00116588 5.12147e-05
1.05879e-22 0.0181603 0.0050047 7.10709e-06
0 -0.0181605 0.00500468 5.08865e-05
-3.76459e-22 0.0176114 0.00676943 4.68187e-06
5.64689e-22 -0.0176114 0.00676944 6.50226e-06
0 -0.0184458 0.00401954 5.8233e-05
5.42101e-20 0.0184458 0.00401954 7.7191e-06
5.64689e-22 0.0187881 0.00239454 2.82848e-05
-5.64689e-22 -0.0187881 0.00239454 0.000103452
0 -0.0180923 0.0056577 3.92091e-05
2.51728e-20 0.0180923 0.0056577 5.73239e-06
0 -0.017813 0.00656607 6.67965e-06
0 0.017813 0.00656607 2.24725e-06
2.71051e-20 0.018419 0.0046774 7.47919e-06
0 -0.018419 0.0046774 5.50293e-05
1.85288e-22 0.0181646 0.00565621 6.23796e-06
0 -0.018165 0.0056562 4.16565e-05
5.42101e-20 0.0176826 0.00702997 5.98851e-06
-2.71051e-20 -0.0176826 0.00702997 6.86484e-06
3.38813e-21 -0.0176504 0.0073291 6.84886e-06
-3.38813e-21 0.0176504 0.0073291 5.78367e-06
0 -0.0176622 0.00731917 6.84849e-06
0 0.0176622 0.00731917 5.78307e-06
0 -0.0176607 0.00733968 6.84806e-06
0 0.0176607 0.00733968 5.76897e-06
-3.38813e-21 0.017671 0.0073503 5.75307e-06
0 -0.017671 0.0073503 6.84587e-06
0 0.0176811 0.0073384 5.75321e-06
0 -0.0176811 0.0073384 6.84556e-06
-4.23516e-22 -0.0180892 0.00628819 2.23191e-05
-8.47033e-21 0.0180852 0.00629219 3.87274e-06
2.71051e-20 0.0184318 0.00531284 7.87471e-06
5.42101e-20 -0.0184318 0.00531284 5.54065e-05
-1.41172e-22 0.0188513 0.00360407 1.1794e-05
1.41172e-22 -0.0188513 0.00360407 7.92269e-05
-4.23516e-22 0.0187481 0.00434154 8.74728e-06
4.23516e-22 -0.0187481 0.00434154 6.31379e-05
-3.38813e-22 0.0180499 0.006951 4.06307e-06
5.64689e-22 -0.0180499 0.006951 9.96221e-06
-2.71051e-20 -0.0184073 0.00596812 4.59988e-05
0 0.0184073 0.00596812 6.73074e-06
2.71051e-20 -0.0179676 0.00732197 6.82034e-06
0 0.0179676 0.00732197 5.54177e-06
-5.42101e-20 0.0193955 0.00058428 6.40126e-05
0 -0.0193955 0.00058428 8.5745e-05
0 0.0188202 0.00491059 9.9418e-06
0 -0.0188202 0.00491059 6.45131e-05
-5.42101e-20 0.0193971 0.00177916 4.50129e-05
0 -0.0193971 0.00177916 0.000137623
0 -0.0179547 0.00764207 7.39833e-06
0 0.0179547 0.00764207 5.7234e-06
-3.38813e-21 -0.0179658 0.00763011 7.39904e-06
0 0.0179658 0.00763011 5.72349e-06
0 -0.0179656 0.00765323 7.44489e-06
0 0.0179656 0.00765323 5.73802e-06
-2.71051e-20 -0.0183868 0.00661376 2.19657e-05
-2.71051e-20 0.0183868 0.00661376 3.6985e-06
0 0.0179765 0.00766446 5.75192e-06
0 -0.0179765 0.00766446 7.49071e-06
0 0.0179886 0.00765336 5.75129e-06
0 -0.0179886 0.00765336 7.48911e-06
2.11758e-22 0.0187313 0.00564103 1.02227e-05
1.75759e-20 -0.0187346 0.00564108 6.08302e-05
1.0842e-19 0.0194124 0.00301785 1.83192e-05
1.0842e-19 -0.0194124 0.00301785 0.000114785
-5.29396e-23 0.0186153 0.00628803 7.69106e-06
1.05879e-22 -0.0186155 0.00628803 4.50097e-05
-3.76459e-22 0.0182255 0.00739575 4.652e-06
7.52918e-22 -0.0182255 0.00739575 7.83838e-06
0 0.0187129 0.00628722 8.39409e-06
2.21287e-20 -0.0187129 0.00628722 4.91776e-05
-5.29396e-23 -0.0187119 0.00636687 4.65665e-05
-5.29396e-23 0.0187119 0.00636701 7.97022e-06
0 0.0184304 0.00719208 2.41555e-06
-2.71051e-20 -0.0184305 0.00719208 8.66292e-06
-2.71051e-20 -0.0190561 0.00532095 7.12392e-05
2.71051e-20 0.0190561 0.00532095 1.28383e-05
0 0.0182948 0.00765678 5.92664e-06
-2.71051e-20 -0.0182948 0.00765678 8.05757e-06
-1.0842e-19 0.0193887 0.00432607 1.25048e-05
1.0842e-19 -0.0193888 0.00432607 8.43629e-05
-3.38813e-21 -0.0182591 0.0079553 8.02226e-06
0 0.0182591 0.0079553 5.76002e-06