# kMean  POINT_DATA 30784
# x  y  z  kMean
-0.114738 -1.05879e-22 1.35459e-05 3.9708e-07
0.114738 0 1.3545e-05 4.14324e-07
-0.114738 -1.05879e-22 1.20534e-07 3.97634e-07
0.114738 1.05879e-22 1.20534e-07 4.15412e-07
-0.114737 0 0.00063622 5.33679e-07
0.114737 0 0.000636151 5.42824e-07
-0.114737 -3.38813e-21 0.000671589 5.46102e-07
0.114737 -4.23516e-22 0.000671523 5.56287e-07
-0.114737 0 0.00070873 5.54408e-07
0.114737 4.23516e-22 0.000708671 5.64195e-07
-0.114737 4.23516e-22 0.00132981 6.46095e-07
0.114737 4.23516e-22 0.00132972 6.41742e-07
-0.114737 -4.23516e-22 0.00136709 6.42726e-07
0.114737 0 0.00136702 6.37668e-07
-0.114737 0 0.00140502 6.33559e-07
0.114737 -4.23516e-22 0.00140497 6.27679e-07
-0.114737 -3.17637e-22 0.00207515 8.47257e-07
0.114737 -1.16467e-21 0.00207515 7.95967e-07
0.114737 2.64698e-21 0.002087 8.01729e-07
-0.114737 -2.64698e-21 0.002087 8.53838e-07
-0.114996 1.69407e-20 0.000337663 3.62526e-07
0.114996 1.35525e-20 0.000337642 3.58317e-07
0.114997 6.77626e-21 0.00101334 5.58818e-07
-0.114997 0 0.00101338 5.5702e-07
0.115 0 0.00170594 4.26405e-07
-0.115 0 0.00170596 4.3884e-07
-0.115215 0 6.13258e-05 3.55944e-07
0.115215 -2.03288e-20 6.13221e-05 3.55528e-07
-0.115216 0 8.56694e-08 3.5585e-07
0.115216 0 8.56692e-08 3.55488e-07
0.115205 0 0.00196621 4.03997e-07
-0.115205 6.77626e-21 0.00196622 4.23961e-07
-0.115222 6.77626e-21 0.00073865 4.38881e-07
0.115222 -6.77626e-21 0.000738632 4.39549e-07
0.115216 6.77626e-21 0.00142698 3.99077e-07
-0.115216 6.77626e-21 0.00142699 4.05541e-07
-0.115227 0 0.000602617 3.96291e-07
0.115227 0 0.000602603 3.95739e-07
-0.115223 0 0.00127728 4.30907e-07
0.115223 0 0.00127727 4.27891e-07
0.115233 3.38813e-21 0.00210989 4.25737e-07
-0.115233 0 0.00210989 4.51968e-07
0.11527 0 8.03367e-08 4.00811e-07
-0.11527 6.77626e-21 8.03371e-08 3.9872e-07
0.115253 0 0.00205872 4.09586e-07
-0.115253 0 0.00205872 4.33732e-07
0.115284 0 0.00066507 4.06821e-07
-0.115284 0 0.000665081 4.05971e-07
0.115283 -6.77626e-21 0.00134258 3.54202e-07
-0.115283 0 0.00134258 3.58619e-07
0.115275 0 0.00200988 3.63752e-07
-0.115275 -6.77626e-21 0.00200987 3.84263e-07
-0.115317 0 0.00211377 5.07114e-07
0.115317 -6.77626e-21 0.00211377 4.69022e-07
0.115333 0 0.00205101 3.76598e-07
-0.115333 -6.77626e-21 0.002051 3.98055e-07
-0.115354 0 8.43506e-08 3.51505e-07
0.115354 -6.77626e-21 8.43503e-08 3.53647e-07
-0.115358 0 0.000107306 3.51316e-07
0.115358 1.01644e-20 0.000107309 3.53567e-07
0.11537 0 0.000550762 3.86398e-07
-0.11537 -3.38813e-21 0.000550768 3.84203e-07
0.115379 3.38813e-21 0.000791865 3.8439e-07
-0.115379 6.77626e-21 0.000791869 3.8497e-07
0.11538 -6.77626e-21 0.00120909 3.7528e-07
-0.11538 0 0.00120909 3.78714e-07
0.115396 3.38813e-21 0.00184969 3.08049e-07
-0.115396 3.38813e-21 0.00184968 3.22021e-07
0.115406 6.77626e-21 0.00148522 3.0324e-07
-0.115406 -6.77626e-21 0.00148522 3.08038e-07
-0.115453 0 0.00212005 3.68246e-07
0.115453 0 0.00212005 3.48218e-07
-0.115556 2.03288e-20 0.000327278 3.45237e-07
0.115556 0 0.000327284 3.50991e-07
-0.115608 1.12938e-21 0.00164723 2.66705e-07
0.115608 -1.12938e-21 0.00164725 2.57151e-07
-0.115627 -4.51751e-21 0.000993521 3.62402e-07
0.115627 -9.03502e-21 0.000993543 3.58062e-07
0.115635 3.38813e-21 0.00212847 3.36486e-07
-0.115635 6.77626e-21 0.00212847 3.57957e-07
-0.115696 0 0.00032771 3.53159e-07
0.115696 6.77626e-21 0.000327723 3.55123e-07
0.115709 0 9.72445e-08 3.44827e-07
-0.115709 0 9.72452e-08 3.41412e-07
-0.115724 6.77626e-21 0.00202738 3.91114e-07
0.115724 6.77626e-21 0.00202739 3.65002e-07
-0.115786 1.35525e-20 0.00132428 3.1259e-07
0.115786 0 0.00132432 3.0074e-07
0.115779 0 0.00213509 5.28538e-07
-0.115779 1.35525e-20 0.00213509 5.8552e-07
-0.115807 -1.35525e-20 0.000667664 3.95013e-07
0.115807 0 0.000667699 3.90042e-07
-0.115798 0 0.0019411 3.6397e-07
0.115798 1.35525e-20 0.00194111 3.3749e-07
-0.115838 -1.35525e-20 1.04109e-07 4.48256e-07
0.115838 0 1.04109e-07 4.49587e-07
0.115892 0 0.00204539 4.70717e-07
-0.115892 0 0.00204539 5.13437e-07
0.115953 0 0.00214313 5.28339e-07
-0.115953 6.77626e-21 0.00214313 5.79955e-07
-0.115994 6.77626e-21 9.47789e-08 3.33142e-07
0.115994 6.77626e-21 9.47783e-08 3.31496e-07
-0.116078 1.12938e-21 0.000992193 4.87179e-07
0.116078 0 0.000992243 4.6685e-07
0.116073 -1.69407e-21 0.00162164 3.6563e-07
-0.116073 -2.25875e-21 0.0016216 3.90876e-07
-0.11609 -1.12938e-21 0.000334102 3.44879e-07
0.11609 3.38813e-21 0.000334126 3.40482e-07
-0.116143 1.35525e-20 0.00215193 6.56787e-07
0.116143 0 0.00215193 5.93218e-07
0.11619 1.35525e-20 8.45417e-08 3.30599e-07
-0.11619 0 8.4542e-08 3.34417e-07
-0.11622 0 0.00203355 6.33843e-07
0.11622 0 0.00203356 5.71975e-07
-0.116329 -2.71051e-20 0.00216054 8.91587e-07
0.116329 0 0.00216054 7.72419e-07
0.116362 0 7.42117e-08 5.1518e-07
-0.116362 0 7.42121e-08 5.28084e-07
-0.116353 2.71051e-20 0.00192291 5.27627e-07
0.116353 0 0.00192293 4.75218e-07
-0.116372 0 0.000657195 5.17698e-07
0.116372 1.35525e-20 0.000657253 4.95714e-07
-0.116367 -1.35525e-20 0.00131844 4.28118e-07
0.116367 -1.35525e-20 0.00131851 3.97714e-07
0.116472 1.35525e-20 0.00205464 6.05049e-07
-0.116472 -1.35525e-20 0.00205463 6.78039e-07
0.116547 0 0.0021706 6.53607e-07
-0.116547 -1.35525e-20 0.0021706 7.36623e-07
-0.116588 1.35525e-20 8.0167e-08 3.5491e-07
0.116588 1.35525e-20 8.01668e-08 3.49958e-07
-0.116656 5.64689e-22 0.000325357 3.68572e-07
0.116656 2.82344e-21 0.000325386 3.61515e-07
-0.11666 2.25875e-21 0.000983991 6.09341e-07
0.11666 1.12938e-21 0.000984053 5.64926e-07
-0.116665 1.69407e-22 0.00161349 4.68703e-07
0.116665 -3.38813e-22 0.00161354 4.24433e-07
0.11671 6.77626e-21 8.17014e-08 3.55227e-07
-0.11671 6.77626e-21 8.17016e-08 3.61758e-07
-0.116715 2.03288e-20 0.00217836 7.73847e-07
0.116715 -1.35525e-20 0.00217837 6.82274e-07
-0.116803 1.35525e-20 0.00204843 7.43569e-07
0.116803 2.71051e-20 0.00204845 6.54856e-07
-0.116945 0 8.84455e-08 6.47165e-07
0.116945 0 8.84455e-08 6.11254e-07
-0.116948 -1.35525e-20 0.000654747 6.19147e-07
0.116948 -1.35525e-20 0.000654804 5.7447e-07
0.116934 -1.35525e-20 0.00218849 8.0162e-07
-0.116934 -2.71051e-20 0.00218848 9.44509e-07
-0.116948 0 0.00131454 5.08603e-07
0.116948 -2.71051e-20 0.00131461 4.5757e-07
-0.116946 -2.71051e-20 0.00190304 5.99919e-07
0.116946 1.35525e-20 0.00190307 5.26424e-07
0.117091 1.35525e-20 0.00205422 6.76833e-07
-0.117091 -1.35525e-20 0.00205421 7.77931e-07
0.11719 3.38813e-21 0.0022003 7.31266e-07
-0.11719 3.38813e-21 0.0022003 8.45999e-07
-0.117223 1.69407e-21 8.45568e-08 3.94496e-07
0.117223 -2.03288e-20 8.45568e-08 3.74828e-07
-0.117231 -6.77626e-22 0.000980531 7.41961e-07
0.117231 0 0.000980583 6.68616e-07
0.117237 0 0.000327533 3.75584e-07
-0.117239 2.11758e-22 0.000325498 3.95605e-07
0.11724 -6.35275e-22 0.000392969 4.06604e-07
-0.11724 -1.05879e-21 0.000392909 4.32255e-07
-0.117245 -1.52466e-20 8.4286e-08 3.95909e-07
0.117245 -1.52466e-20 8.42859e-08 3.75744e-07
-0.117243 1.35525e-21 0.00160918 5.77861e-07
0.117243 -9.03502e-22 0.00160922 5.08273e-07
-0.117255 8.47033e-22 0.000325416 3.96333e-07
0.117255 3.81165e-21 0.00032544 3.76042e-07
-0.117253 6.77626e-21 0.00220321 8.58227e-07
0.117253 -1.69407e-20 0.00220321 7.40071e-07
-0.117365 0 0.0020504 8.25245e-07
0.117365 1.35525e-20 0.00205042 7.10254e-07
-0.117522 4.06576e-20 8.03478e-08 7.72385e-07
0.117522 1.35525e-20 8.03478e-08 7.05476e-07
-0.117533 -1.35525e-20 0.000652009 7.17018e-07
0.117533 0 0.000652048 6.45221e-07
-0.117534 1.35525e-20 0.00130699 5.71228e-07
0.117534 0 0.00130703 4.99887e-07
-0.11753 -2.71051e-20 0.00187116 6.56567e-07
0.11753 1.35525e-20 0.00187118 5.61724e-07
0.117533 -1.35525e-20 0.00221616 8.07931e-07
-0.117533 4.06576e-20 0.00221616 9.70403e-07
-0.117782 -3.38813e-21 8.01445e-08 5.25693e-07
0.117782 3.38813e-21 8.01445e-08 4.84048e-07
-0.117774 -2.71051e-20 0.0022273 9.88108e-07
0.117774 -2.03288e-20 0.0022273 8.2512e-07
0.11783 2.25875e-21 0.000324846 4.91168e-07
-0.11783 0 0.000324833 5.37418e-07
0.117836 1.12938e-21 0.000977432 7.01897e-07
-0.117836 0 0.000977404 8.01198e-07
0.117824 6.77626e-21 0.00203764 7.57506e-07
-0.117824 -6.77626e-21 0.00203762 8.99081e-07
-0.117836 -2.71051e-21 0.00160419 6.31183e-07
0.117836 -2.71051e-21 0.00160421 5.40842e-07
0.117831 0 0.00215881 8.00926e-07
-0.117831 2.03288e-20 0.00215877 9.53719e-07
-0.117872 1.35525e-20 8.08535e-08 5.54685e-07
0.117872 -1.35525e-20 8.08535e-08 5.05266e-07
0.117904 0 0.00223329 8.47117e-07
-0.117904 -6.77626e-21 0.00223329 1.02433e-06
-0.118121 -1.35525e-20 8.10337e-08 9.02342e-07
0.118121 1.35525e-20 8.10337e-08 7.99767e-07
-0.118127 0 0.000648622 8.01648e-07
0.118127 1.35525e-20 0.000648636 7.01259e-07
-0.118129 -1.35525e-20 0.00129645 6.03059e-07
0.118129 0 0.00129647 5.13822e-07
-0.118129 0 0.00183213 6.9443e-07
0.118129 0 0.00183214 5.7972e-07
0.11813 -2.71051e-20 0.00224374 8.95404e-07
-0.11813 0 0.00224373 1.10954e-06
-0.118331 0 8.4226e-08 6.90714e-07
0.118331 0 8.4226e-08 6.14873e-07
-0.118312 0 0.00225214 1.10707e-06
0.118312 -6.77626e-21 0.00225215 8.97203e-07
-0.11834 1.35525e-20 0.00157067 6.83762e-07
0.11834 9.03502e-21 0.00157067 5.72225e-07
0.118432 1.12938e-21 0.000324873 6.09966e-07
-0.118432 1.12938e-21 0.000324872 6.92833e-07
-0.118436 -2.25875e-21 0.000972945 8.32188e-07
0.118436 -1.12938e-21 0.000972947 7.09924e-07
0.118425 -6.77626e-21 0.00202942 8.04923e-07
-0.118425 -1.35525e-20 0.00202941 9.77767e-07
0.11843 0 0.00211663 8.35929e-07
-0.11843 6.77626e-21 0.00211662 1.01747e-06
-0.118533 1.35525e-20 8.39687e-08 7.55586e-07
0.118533 -1.35525e-20 8.39687e-08 6.60769e-07
0.118572 -6.77626e-21 0.00226416 9.2817e-07
-0.118572 6.77626e-21 0.00226416 1.16294e-06
-0.118724 -2.71051e-20 8.63336e-08 1.03135e-06
0.118724 2.71051e-20 8.63336e-08 8.8775e-07
0.118723 0 0.00171367 5.75946e-07
-0.118723 0 0.00171367 7.03629e-07
0.118728 -1.35525e-20 0.00227134 9.60822e-07
-0.118728 0 0.00227135 1.22349e-06
0.118768 3.38813e-21 0.00132504 5.49958e-07
-0.118768 -2.25875e-21 0.00132505 6.63635e-07
0.118825 0 0.000642427 7.25211e-07
-0.118825 -4.51751e-21 0.00064244 8.54328e-07
-0.118855 0 0.00227722 1.22179e-06
0.118855 1.35525e-20 0.00227722 9.61376e-07
-0.118884 1.35525e-20 8.25008e-08 8.60155e-07
0.118884 -1.35525e-20 8.25008e-08 7.42053e-07
0.11894 5.42101e-21 0.000230178 7.62812e-07
-0.11894 8.13152e-21 0.000230188 8.87954e-07
0.11903 -1.35525e-20 0.000968919 6.69824e-07
-0.11903 0 0.000968945 8.09171e-07
-0.119031 0 0.00158378 5.83944e-07
0.119031 0 0.00158376 4.73299e-07
-0.119029 1.12938e-21 0.0020094 1.04532e-06
0.119029 1.12938e-21 0.00200939 8.39005e-07
-0.119194 -1.35525e-20 7.95716e-08 9.60232e-07
0.119194 1.35525e-20 7.95716e-08 8.10474e-07
0.119198 -6.77626e-21 0.000141176 8.17754e-07
-0.119198 -6.77626e-21 0.000141182 9.69257e-07
0.119237 -6.77626e-21 0.00229488 1.00637e-06
-0.119237 -6.77626e-21 0.00229488 1.30746e-06
0.119324 2.25875e-21 0.000639919 7.63516e-07
-0.119324 1.12938e-21 0.000639954 9.21067e-07
-0.119327 0 7.67102e-08 1.15889e-06
0.119327 0 7.67102e-08 9.69587e-07
0.119327 4.51751e-21 0.00127022 5.54526e-07
-0.119327 3.38813e-21 0.00127026 6.86866e-07
-0.119329 2.25875e-21 0.00171491 7.43269e-07
0.119329 2.25875e-21 0.00171488 5.9035e-07
-0.119328 -2.71051e-20 0.00229909 1.34441e-06
0.119328 0 0.00229909 1.02565e-06
0.119403 0 0.00230257 1.02523e-06
-0.119403 6.77626e-21 0.00230257 1.34294e-06
0.119436 -1.35525e-20 0.000117398 8.70261e-07
-0.119436 0 0.00011741 1.03939e-06
0.119439 0 8.09182e-08 8.66076e-07
-0.119439 0 8.09182e-08 1.03429e-06
0.119631 0 0.000320659 9.16343e-07
-0.119631 1.35525e-20 0.000320689 1.10738e-06
0.119633 -1.35525e-20 0.000964822 6.51234e-07
-0.119633 -1.35525e-20 0.000964885 8.10768e-07
-0.119635 -2.71051e-20 0.00157725 5.85199e-07
0.119635 -2.71051e-20 0.0015772 4.58884e-07
-0.119634 -1.69407e-21 0.00201287 1.13667e-06
0.119634 -5.0822e-21 0.00201285 8.86539e-07
-0.119855 6.77626e-21 8.52625e-08 1.16347e-06
0.119855 6.77626e-21 8.52624e-08 9.50743e-07
0.119856 1.35525e-20 8.18892e-05 9.54279e-07
-0.119856 -6.77626e-21 8.18975e-05 1.16796e-06
-0.119901 0 0.00232555 1.45999e-06
0.119901 0 0.00232555 1.08448e-06
0.11993 1.12938e-21 0.000637232 8.13677e-07
-0.11993 3.38813e-21 0.000637304 1.01031e-06
-0.119932 6.77626e-21 8.78252e-08 1.28176e-06
0.119932 0 8.7825e-08 1.04316e-06
-0.119934 0 0.00126452 6.91236e-07
0.119934 -5.64689e-22 0.00126444 5.39859e-07
-0.119936 0 0.00171637 7.97589e-07
0.119936 0 0.00171631 6.10228e-07
-0.119932 1.35525e-20 0.00232696 1.47357e-06
0.119932 0 0.00232696 1.09154e-06
0.119956 0 0.0023281 1.09181e-06
-0.119956 0 0.0023281 1.47391e-06
0.119995 0 6.93509e-05 9.83775e-07
-0.119995 6.77626e-21 6.93625e-05 1.20831e-06
0.119996 -6.77626e-21 8.41045e-08 9.81011e-07
-0.119996 -6.77626e-21 8.41047e-08 1.20485e-06
0.120207 -7.05861e-23 0.00201414 9.39343e-07
-0.120207 7.05861e-23 0.00201419 1.24367e-06
0.120233 2.71051e-20 0.000320486 1.03689e-06
-0.120233 0 0.000320535 1.28986e-06
0.120235 0 0.000960794 6.29277e-07
-0.120235 -2.71051e-20 0.000960897 8.07846e-07
-0.120237 0 0.00156987 5.97702e-07
0.120237 0 0.00156979 4.50588e-07
0.12026 1.69407e-21 0.00234212 1.12777e-06
-0.12026 -1.69407e-21 0.00234212 1.54866e-06
-0.120505 0 6.18504e-08 1.35392e-06
0.120505 0 6.18504e-08 1.0734e-06
-0.120506 0 2.78072e-05 1.35564e-06
0.120506 3.38813e-21 2.78023e-05 1.07471e-06
0.120507 0 0.00235355 1.15743e-06
-0.120507 0 0.00235356 1.60986e-06
-0.12053 0 6.04228e-08 1.39432e-06
0.12053 0 6.04228e-08 1.10405e-06
0.120515 0 0.00234188 1.15334e-06
-0.120515 -3.38813e-21 0.00234189 1.60374e-06
0.120531 -9.41148e-23 0.0012457 5.40599e-07
-0.120531 -2.35287e-22 0.00124588 7.14612e-07
0.120547 -1.12938e-22 0.000634174 8.54337e-07
-0.120547 -1.69407e-22 0.000634288 1.09338e-06
0.120528 0 0.00232802 1.12536e-06
-0.120528 0 0.00232804 1.5662e-06
0.120528 0 0.00235451 1.15572e-06
-0.120528 3.38813e-21 0.00235452 1.61258e-06
-0.120539 0 0.00171142 8.26786e-07
0.120539 1.12938e-21 0.00171132 6.11274e-07
0.120552 -3.38813e-21 2.32852e-05 1.08328e-06
-0.120552 -3.38813e-21 2.32903e-05 1.36805e-06
0.120553 0 6.17097e-08 1.08258e-06
-0.120553 0 6.17096e-08 1.36717e-06
-0.120543 0 0.00234205 1.6095e-06
0.120543 0 0.00234204 1.15581e-06
-0.120552 0 0.00235562 1.6205e-06
0.120552 0 0.00235561 1.16223e-06
0.120834 -2.71051e-20 0.000318139 1.13692e-06
-0.120834 0 0.0003182 1.45625e-06
0.120836 0 0.000956941 5.98545e-07
-0.120836 0 0.000957074 7.93961e-07
-0.120838 -2.71051e-20 0.00156511 6.00332e-07
0.120838 0 0.001565 4.34212e-07
-0.120836 1.12938e-21 0.00200519 1.30269e-06
0.120837 -3.38813e-21 0.00200513 9.45108e-07
-0.120859 -3.38813e-21 7.60868e-08 1.44991e-06
0.120859 0 7.60871e-08 1.12963e-06
0.121065 -6.77626e-21 0.00237934 1.22718e-06
-0.121065 -6.77626e-21 0.00237934 1.7589e-06
0.121088 -6.77626e-21 0.00234429 1.21565e-06
-0.121088 0 0.00234429 1.74176e-06
-0.121119 0 1.89551e-05 1.52067e-06
0.121119 3.38813e-21 1.89514e-05 1.17015e-06
-0.121119 -3.38813e-21 8.69662e-08 1.5198e-06
0.121119 0 8.69665e-08 1.16947e-06
0.121137 0 8.72831e-08 1.16688e-06
-0.121137 0 8.72828e-08 1.52031e-06
-0.121142 1.12938e-21 0.000632732 1.16666e-06
0.121142 5.64689e-22 0.000632605 8.86185e-07
-0.121126 0 0.00238219 1.77022e-06
0.121126 0 0.00238219 1.22345e-06
-0.121128 0 0.00230298 1.62692e-06
0.121128 0 0.00230296 1.13135e-06
-0.121145 -1.12938e-21 0.00125656 6.85804e-07
0.121145 0 0.0012564 4.99511e-07
-0.121145 4.51751e-21 0.00169995 8.47458e-07
0.121145 -4.51751e-21 0.00169983 6.0248e-07
0.121158 0 8.63068e-08 1.17509e-06
-0.121158 -3.38813e-21 8.63065e-08 1.53146e-06
0.121159 0 2.14148e-05 1.17634e-06
-0.121159 0 2.14188e-05 1.53317e-06
-0.12117 0 0.00234527 1.76082e-06
0.12117 0 0.00234526 1.22366e-06
-0.121195 0 0.00238537 1.79215e-06
0.121195 0 0.00238537 1.24166e-06
-0.121444 -2.71051e-20 0.000318955 1.63043e-06
0.121444 2.71051e-20 0.000318897 1.23313e-06
-0.121449 0 0.0009532 7.58413e-07
0.121449 0 0.000953073 5.55819e-07
0.121442 0 0.00199676 9.83369e-07
-0.121442 6.77626e-21 0.00199682 1.4115e-06
-0.12145 0 0.00155715 5.97672e-07
0.12145 -2.71051e-20 0.00155704 4.1832e-07
0.121634 0 0.00240564 1.30717e-06
-0.121634 -6.77626e-21 0.00240564 1.93551e-06
0.121669 0 0.00235306 1.29261e-06
-0.121669 0 0.00235306 1.91485e-06
-0.121699 6.77626e-21 5.8685e-05 1.69356e-06
0.121699 0 5.86723e-05 1.26719e-06
-0.121699 0 4.03272e-08 1.68971e-06
0.121699 0 4.03261e-08 1.26425e-06
-0.121726 1.35525e-20 0.00240987 1.96154e-06
0.121726 1.35525e-20 0.00240987 1.30558e-06
-0.121732 0 0.00229092 1.74e-06
0.121732 -1.35525e-20 0.00229091 1.16571e-06
0.121756 0 3.78957e-08 1.25891e-06
-0.121756 -6.77626e-21 3.78966e-08 1.69428e-06
-0.121781 -3.38813e-21 0.000632934 1.23672e-06
0.121781 1.12938e-21 0.000632842 9.12689e-07
-0.121792 1.12938e-21 0.00125124 6.34034e-07
0.121792 0 0.00125112 4.46954e-07
-0.121788 -4.51751e-21 0.00168176 8.38752e-07
0.121788 4.51751e-21 0.00168168 5.72317e-07
-0.121791 0 0.00235671 1.95567e-06
0.121791 0 0.00235671 1.30924e-06
0.121828 0 4.12177e-08 1.29278e-06
-0.121828 0 4.12189e-08 1.74131e-06
0.121837 0 6.99672e-05 1.30266e-06
-0.121837 6.77626e-21 6.99779e-05 1.75518e-06
0.121825 0 0.00241445 1.33434e-06
-0.121825 -6.77626e-21 0.00241445 2.00159e-06
-0.122099 2.71051e-20 0.000321025 1.8774e-06
0.122099 0 0.000320991 1.37904e-06
0.122085 0 0.00198069 1.00677e-06
-0.122085 0 0.00198072 1.51237e-06
0.122263 2.43945e-20 0.00101903 3.41911e-07
-0.122263 2.71051e-21 0.00101909 4.86222e-07
0.122263 -4.51751e-21 0.0015084 2.75982e-07
-0.122263 0 0.00150845 4.18569e-07
-0.122256 -6.77626e-21 0.00243436 2.18873e-06
0.122256 0 0.00243436 1.42003e-06
-0.122296 0 0.00238067 2.1754e-06
0.122296 0 0.00238068 1.4099e-06
-0.122326 -1.35525e-20 8.40641e-08 1.87135e-06
0.122326 -1.35525e-20 8.40676e-08 1.36554e-06
-0.122327 0 0.000118199 1.89105e-06
0.122327 2.71051e-20 0.000118171 1.38013e-06
0.122354 0 0.00243889 1.42673e-06
-0.122354 -1.35525e-20 0.00243889 2.22987e-06
0.122363 0 0.00231848 1.27842e-06
-0.122363 0 0.00231847 1.98943e-06
0.122419 0 0.00238775 1.44764e-06
-0.122419 0 0.00238774 2.25807e-06
0.122444 0 8.89963e-08 1.34085e-06
-0.122444 0 8.89934e-08 1.85989e-06
0.122449 6.77626e-21 0.00244327 1.47717e-06
-0.122449 1.35525e-20 0.00244327 2.31479e-06
0.122512 4.51751e-21 0.000639005 8.28781e-07
-0.122512 -4.51751e-21 0.000639028 1.15322e-06
0.122514 0 0.00177574 5.36106e-07
-0.122514 0 0.00177575 8.41487e-07
0.122552 -2.71051e-20 0.00122858 2.62696e-07
-0.122552 -2.71051e-20 0.0012286 4.04495e-07
0.122565 0 8.12044e-08 1.39067e-06
-0.122565 -2.71051e-20 8.12004e-08 1.92771e-06
0.122569 0 0.00010807 1.40408e-06
-0.122569 1.35525e-20 0.000108087 1.94679e-06
-0.122701 -1.35525e-20 0.00106834 3.74654e-07
0.122701 0 0.00106833 2.56942e-07
0.122733 0 0.00202314 1.12199e-06
-0.122733 9.03502e-21 0.00202314 1.74446e-06
0.122781 2.25875e-21 0.00153791 2.19807e-07
-0.122781 9.03502e-21 0.00153791 3.49251e-07
-0.122832 1.35525e-20 0.000298119 2.02637e-06
0.122832 0 0.00029812 1.45368e-06
-0.122835 1.35525e-20 0.000912539 2.94648e-07
0.122835 1.35525e-20 0.000912547 2.0059e-07
-0.12298 3.38813e-21 0.0024678 2.56077e-06
0.12298 0 0.0024678 1.60917e-06
-0.122996 3.38813e-21 0.00244983 2.55341e-06
0.122996 -3.38813e-21 0.00244983 1.60553e-06
0.123017 -3.38813e-21 0.00246949 1.60649e-06
-0.123017 0 0.00246949 2.5623e-06
0.123018 0 0.00243 1.55694e-06
-0.123018 0 0.00242999 2.47919e-06
0.123037 0 0.00245141 1.61478e-06
-0.123037 -3.38813e-21 0.0024514 2.57125e-06
0.123046 0 0.00247085 1.62359e-06
-0.123046 3.38813e-21 0.00247085 2.58856e-06
-0.123082 0 0.00181615 8.30246e-07
0.123082 0 0.00181617 5.08908e-07
0.123099 -2.25875e-21 0.00121936 1.57225e-07
-0.123099 -2.25875e-21 0.00121933 2.52541e-07
-0.123111 -3.38813e-21 0.000615393 1.12605e-06
0.123111 4.51751e-21 0.000615423 7.8407e-07
0.123224 5.29396e-21 -7.39903e-09 1.43505e-06
-0.123231 0 -8.15793e-09 2.04529e-06
0.123348 1.89735e-20 0.00159634 1.88755e-07
-0.123348 1.0842e-20 0.0015963 3.15537e-07
0.123383 -2.82344e-22 0.00210433 1.53033e-06
-0.123383 -2.82344e-22 0.0021043 2.37439e-06
0.123447 -1.69407e-21 0.00248936 1.55908e-06
-0.123447 -2.11758e-21 0.00248939 2.46992e-06
-0.123475 -1.35525e-20 0.000922922 3.59187e-07
0.123475 -4.06576e-20 0.000922971 2.30857e-07
0.123479 4.23516e-22 0.00243573 1.55614e-06
-0.123479 -4.23516e-22 0.00243628 2.45633e-06
-0.123507 4.06576e-20 0.00031515 2.48124e-06
0.123507 -1.35525e-20 0.000315172 1.71179e-06
0.123498 4.23516e-21 0.00249174 1.55142e-06
-0.123494 0 0.00249155 2.45661e-06
-0.123732 -1.35525e-20 8.93512e-05 2.49491e-06
0.123732 0 8.9354e-05 1.70036e-06
-0.123734 -6.77626e-21 6.17809e-09 2.47577e-06
0.123734 0 6.17697e-09 1.68795e-06
0.123777 -1.35525e-21 0.000610963 1.00413e-06
-0.123777 -1.12938e-21 0.000610907 1.48992e-06
-0.123762 -1.01644e-20 0.00250391 1.9877e-06
0.123762 1.69407e-20 0.00250391 1.27797e-06
0.123782 -7.05861e-22 0.00122929 1.90475e-07
-0.123782 6.58803e-22 0.00122921 3.15658e-07
0.123792 -2.71051e-20 0.00231617 1.20541e-06
-0.123792 1.35525e-20 0.00231613 1.87169e-06
0.123814 0 4.7663e-09 1.69851e-06
-0.123814 0 4.76768e-09 2.49847e-06
0.123842 -1.12938e-21 0.00191141 5.89953e-07
-0.123842 2.82344e-21 0.00191139 9.39792e-07
0.123905 0 9.56164e-05 1.73041e-06
-0.123905 6.77626e-21 9.56125e-05 2.55614e-06
0.123911 -6.77626e-21 6.5703e-09 1.72315e-06
-0.123911 -6.77626e-21 6.57156e-09 2.54574e-06
0.12401 0 0.00251537 1.05349e-06
-0.12401 -1.69407e-21 0.00251537 1.69497e-06
-0.124023 0 0.00251596 1.6874e-06
0.124023 0 0.00251597 1.04848e-06
-0.12403 0 0.00249603 1.67583e-06
0.12403 0 0.00249597 1.0421e-06
-0.124107 0 0.000926585 4.00355e-07
0.124107 -1.35525e-20 0.000926643 2.49265e-07
0.124113 2.71051e-20 0.000309668 1.78241e-06
-0.124113 2.71051e-20 0.000309642 2.66302e-06
-0.124109 -1.35525e-20 0.00153604 2.19983e-07
0.124109 2.71051e-20 0.00153609 1.15139e-07
0.124199 0 0.00224856 8.86611e-07
-0.124199 4.51751e-21 0.00224854 1.41547e-06
-0.124312 0 5.9528e-09 2.69483e-06
0.124312 -6.77626e-21 5.95239e-09 1.79036e-06
-0.124316 0 0.000101998 2.70983e-06
0.124316 0 0.000102006 1.79986e-06
-0.124351 0 0.00253113 1.71188e-06
0.124352 0 0.00253117 1.02615e-06
-0.124411 -4.51751e-21 0.000610848 1.62902e-06
0.124411 4.51751e-21 0.000610898 1.06892e-06
0.124413 -1.35525e-20 7.80603e-09 1.80033e-06
-0.124413 0 7.80623e-09 2.7185e-06
-0.124412 -3.16226e-21 0.00125277 3.72174e-07
0.124412 -1.35525e-21 0.00125284 2.15311e-07
-0.124428 -1.807e-21 0.00188222 7.19326e-07
0.124428 9.03502e-22 0.00188226 4.25334e-07
-0.124454 -4.23516e-22 0.00253417 1.71633e-06
0.12446 0 0.00253424 1.01688e-06
0.124507 -6.77626e-21 9.76902e-05 1.84016e-06
-0.124507 -6.77626e-21 9.76851e-05 2.78292e-06
0.12451 0 6.4083e-09 1.83465e-06
-0.12451 6.77626e-21 6.40846e-09 2.7746e-06
0.124715 -1.35525e-20 0.000308871 1.87881e-06
-0.124715 0 0.000308852 2.86297e-06
-0.124717 4.06576e-20 0.00092527 4.4671e-07
0.124717 -1.35525e-20 0.000925313 2.70596e-07
-0.124722 -2.71051e-20 0.00152785 2.65968e-07
0.124722 0 0.00152789 1.29458e-07
-0.12474 0 0.00225265 1.61868e-06
0.12474 2.25875e-21 0.00225267 9.64817e-07
-0.124928 6.77626e-21 4.52659e-09 2.90494e-06
0.124928 -6.77626e-21 4.52646e-09 1.89319e-06
0.124931 0 8.62013e-05 1.89899e-06
-0.124931 6.77626e-21 8.61959e-05 2.91437e-06
0.125013 0 3.37598e-09 1.892e-06
-0.125013 0 3.37608e-09 2.91325e-06
0.125015 -4.51751e-21 0.000609995 1.11806e-06
-0.125015 1.12938e-21 0.000609967 1.73915e-06
-0.124994 3.38813e-21 0.00256083 1.97017e-06
0.124994 0 0.00256083 1.13124e-06
-0.12502 1.58113e-21 0.00124401 4.07709e-07
0.12502 2.48463e-21 0.00124405 2.26481e-07
-0.125004 0 0.00254316 1.96708e-06
0.125004 0 0.00254316 1.13057e-06
-0.125027 3.16226e-21 0.0018792 8.11227e-07
0.125027 -2.71051e-21 0.00187923 4.6252e-07
-0.12503 3.38813e-21 0.00250699 1.88646e-06
0.12503 -3.38813e-21 0.002507 1.08487e-06
-0.125029 -3.38813e-21 0.00256248 2.0533e-06
0.125029 0 0.00256247 1.17148e-06
0.125057 0 0.00254379 1.13547e-06
-0.125058 0 0.00254379 1.98054e-06
0.125089 0 7.79237e-05 1.92471e-06
-0.125089 6.77626e-21 7.7922e-05 2.96541e-06
0.125091 0 3.20057e-09 1.92106e-06
-0.125091 -1.35525e-20 3.20067e-09 2.95977e-06
0.12507 3.38813e-21 0.00256435 1.13857e-06
-0.12507 0 0.00256435 1.99056e-06
-0.125318 0 0.000307701 3.03572e-06
0.125318 2.71051e-20 0.000307692 1.95614e-06
0.125323 0 0.000922882 2.86905e-07
-0.125323 0 0.000922865 4.87882e-07
-0.125326 2.71051e-20 0.00152712 2.90347e-07
0.125326 0 0.00152713 1.34408e-07
-0.125333 -2.25875e-21 0.00226101 1.70048e-06
0.125333 -6.77626e-21 0.00226101 9.89224e-07
-0.125563 6.77626e-21 1.13573e-09 3.08895e-06
0.125563 6.77626e-21 1.13563e-09 1.97881e-06
-0.125566 0 5.45783e-05 3.09387e-06
0.125566 -6.77626e-21 5.4579e-05 1.9818e-06
-0.125551 -6.77626e-21 0.00258658 2.11206e-06
0.125551 -6.77626e-21 0.00258658 1.18307e-06
-0.125572 -6.77626e-21 0.0025497 2.10463e-06
0.125572 6.77626e-21 0.0025497 1.18141e-06
-0.125618 0 9.99745e-10 3.09026e-06
0.125618 0 9.99651e-10 1.97605e-06
0.125621 1.12938e-21 0.00060893 1.16014e-06
-0.125621 -1.69407e-21 0.000608925 1.83748e-06
-0.12563 4.51751e-22 0.00188213 8.55815e-07
0.12563 3.16226e-21 0.00188214 4.715e-07
0.125641 -1.8823e-22 0.00122765 2.23412e-07
-0.125641 5.17631e-22 0.00122764 4.22113e-07
-0.125626 0 0.00247651 1.93289e-06
0.125626 0 0.00247652 1.08602e-06
0.125624 6.77626e-21 0.00258997 1.27102e-06
-0.125624 0 0.00258997 2.29777e-06
0.125665 0 4.82049e-05 1.99727e-06
-0.125665 0 4.82067e-05 3.12408e-06
0.125666 6.77626e-21 3.71959e-10 1.99536e-06
-0.125666 6.77626e-21 3.72055e-10 3.12107e-06
0.125682 6.77626e-21 0.00255094 1.19278e-06
-0.125682 6.77626e-21 0.00255093 2.13615e-06
0.125708 -6.77626e-21 0.00259387 1.20022e-06
-0.125708 -6.77626e-21 0.00259387 2.16013e-06
-0.125766 1.35525e-20 0.00226798 1.7475e-06
0.125766 1.35525e-20 0.00226799 9.96558e-07
-0.125924 0 0.000307115 3.19214e-06
0.125924 -2.71051e-20 0.000307127 2.02854e-06
0.125929 -2.71051e-20 0.000921475 3.0069e-07
-0.125929 -2.71051e-20 0.000921486 5.26882e-07
-0.125931 -2.71051e-20 0.00152925 3.25738e-07
0.125931 2.71051e-20 0.00152925 1.39525e-07
-0.12593 6.77626e-21 0.00227153 1.78527e-06
0.12593 0 0.00227153 1.01124e-06
-0.126113 6.77626e-21 0.00261254 2.26497e-06
0.126113 -6.77626e-21 0.00261254 1.23708e-06
-0.126147 1.35525e-20 0.00255527 2.24974e-06
0.126147 -1.35525e-20 0.00255528 1.23312e-06
-0.12621 0 -2.76942e-09 3.25718e-06
0.12621 0 -2.76959e-09 2.05653e-06
-0.126211 0 1.46893e-05 3.2583e-06
0.126211 0 1.46869e-05 2.0572e-06
-0.126225 1.69407e-21 -2.94615e-09 3.25641e-06
0.126225 0 -2.94631e-09 2.05511e-06
0.126237 -1.69407e-21 1.28088e-05 2.06074e-06
-0.126237 0 1.28117e-05 3.26564e-06
0.126238 -1.69407e-21 -2.95873e-09 2.06034e-06
-0.126238 0 -2.95857e-09 3.265e-06
0.126238 -2.82344e-22 0.000619266 1.1712e-06
-0.126238 0 0.000619298 1.88771e-06
-0.126235 5.64689e-22 0.00122346 4.46618e-07
0.126235 2.82344e-22 0.00122343 2.25677e-07
0.126226 -1.35525e-20 0.00227599 1.00327e-06
-0.126226 -6.77626e-21 0.00227599 1.79613e-06
-0.126236 7.22801e-21 0.00188697 8.97297e-07
0.126236 -9.03502e-22 0.00188696 4.75783e-07
-0.126226 0 0.00261776 2.56452e-06
0.126226 0 0.00261777 1.37601e-06
-0.126229 0 0.00244352 1.96838e-06
0.126229 0 0.00244352 1.08018e-06
0.126315 0 0.00255712 1.24788e-06
-0.126315 0 0.00255712 2.29353e-06
0.126356 6.77626e-21 0.00262376 1.25972e-06
-0.126356 0 0.00262375 2.33276e-06
0.126428 -1.69407e-21 -3.96826e-09 2.08018e-06
-0.126428 1.69407e-21 -3.96825e-09 3.31205e-06
0.126532 -2.71051e-20 0.000306588 2.08926e-06
-0.126532 0 0.000306607 3.33227e-06
0.126537 -2.71051e-20 0.000920861 3.12958e-07
-0.126537 0 0.000920906 5.64311e-07
-0.126538 2.71051e-20 0.00153271 3.58676e-07
0.126538 0 0.00153267 1.44056e-07
-0.126534 -6.77626e-21 0.00228266 1.84823e-06
0.126534 0 0.00228265 1.01919e-06
-0.126678 -6.77626e-21 0.00263866 2.41331e-06
0.126678 -1.35525e-20 0.00263866 1.28685e-06
-0.126725 -1.35525e-20 0.00256107 2.38928e-06
0.126725 1.35525e-20 0.00256107 1.28044e-06
0.12681 0 -2.33736e-09 2.11888e-06
-0.12681 0 -2.33751e-09 3.40414e-06
0.12681 0 2.38797e-05 2.11884e-06
-0.12681 0 2.38782e-05 3.40408e-06
-0.126834 -3.38813e-21 -2.28167e-09 3.39756e-06
0.126834 3.38813e-21 -2.28152e-09 2.11353e-06
-0.126841 -5.64689e-22 0.000608425 2.01814e-06
0.126841 -5.64689e-22 0.000608368 1.23322e-06
-0.126845 -1.12938e-21 0.00122627 4.84427e-07
0.126845 2.25875e-21 0.0012262 2.33533e-07
0.126835 1.12938e-21 0.00228348 9.67798e-07
-0.126835 -1.12938e-21 0.0022835 1.79472e-06
-0.126844 0 0.00186227 8.40634e-07
0.126844 2.25875e-21 0.00186223 4.21624e-07
0.12683 -1.35525e-20 0.00264569 1.47926e-06
-0.12683 2.71051e-20 0.00264569 2.83649e-06
-0.126861 3.38813e-21 2.66631e-05 3.41502e-06
-0.126861 0 -2.23719e-09 3.41571e-06
0.126861 -3.38813e-21 2.66635e-05 2.12262e-06
0.126861 3.38813e-21 -2.23703e-09 2.12303e-06
-0.126948 0 0.00256381 2.44837e-06
0.126948 0 0.00256381 1.30005e-06
0.127003 0 0.00265368 1.31712e-06
-0.127003 0 0.00265368 2.50528e-06
0.127141 2.71051e-20 0.000306506 2.14665e-06
-0.127141 0 0.000306542 3.47782e-06
0.127145 0 0.000920575 3.24973e-07
-0.127145 -2.71051e-20 0.000920659 6.02253e-07
-0.127146 2.71051e-20 0.00153687 3.99488e-07
0.127146 -2.71051e-20 0.0015368 1.48585e-07
-0.127142 -1.35525e-20 0.00217837 1.42418e-06
0.127142 -1.35525e-20 0.00217834 7.66574e-07
-0.127139 2.71051e-20 0.00241072 2.40988e-06
0.127139 -1.35525e-20 0.00241071 1.2912e-06
-0.127248 0 0.00266497 2.56868e-06
0.127248 2.03288e-20 0.00266497 1.33853e-06
0.127307 0 0.0025681 1.32968e-06
-0.127307 -1.35525e-20 0.0025681 2.53522e-06
0.127382 -6.77626e-21 -8.22232e-10 2.17321e-06
-0.127382 -6.77626e-21 -8.22387e-10 3.54464e-06
0.127384 0 5.89438e-05 2.17243e-06
-0.127384 6.77626e-21 5.89471e-05 3.54339e-06
-0.127443 -6.77626e-21 -7.3248e-10 3.52831e-06
0.127443 0 -7.3232e-10 2.15992e-06
-0.127452 2.25875e-21 0.000608325 2.10309e-06
0.127452 4.51751e-21 0.000608231 1.26189e-06
-0.127454 -4.51751e-21 0.00122918 5.24696e-07
0.127454 -2.25875e-21 0.00122906 2.40921e-07
-0.127443 4.51751e-21 0.00229674 1.88288e-06
0.127443 0 0.00229672 9.89871e-07
0.127436 0 0.00267368 1.58408e-06
-0.127436 0 0.00267368 3.11779e-06
-0.127451 -6.77626e-21 0.00186218 8.65292e-07