# omega  POINT_DATA 30784
# x  y  z  omega
-0.114738 -1.05879e-22 1.35459e-05 1074.56
0.114738 0 1.3545e-05 1074.6
-0.114738 -1.05879e-22 1.20534e-07 1077.77
0.114738 1.05879e-22 1.20534e-07 1077.82
-0.114737 0 0.00063622 1377.61
0.114737 0 0.000636151 1377.62
-0.114737 -3.38813e-21 0.000671589 1446.9
0.114737 -4.23516e-22 0.000671523 1446.93
-0.114737 0 0.00070873 1488.94
0.114737 4.23516e-22 0.000708671 1488.97
-0.114737 4.23516e-22 0.00132981 1997.66
0.114737 4.23516e-22 0.00132972 1997.72
-0.114737 -4.23516e-22 0.00136709 2061.97
0.114737 0 0.00136702 2062.06
-0.114737 0 0.00140502 2072.96
0.114737 -4.23516e-22 0.00140497 2073.06
-0.114737 -3.17637e-22 0.00207515 1605.06
0.114737 -1.16467e-21 0.00207515 1605.06
0.114737 2.64698e-21 0.002087 1571.94
-0.114737 -2.64698e-21 0.002087 1571.95
-0.114996 1.69407e-20 0.000337663 1234.22
0.114996 1.35525e-20 0.000337642 1234.22
0.114997 6.77626e-21 0.00101334 2277.22
-0.114997 0 0.00101338 2277.2
0.115 0 0.00170594 2985.47
-0.115 0 0.00170596 2985.42
-0.115215 0 6.13258e-05 1501.47
0.115215 -2.03288e-20 6.13221e-05 1501.46
-0.115216 0 8.56694e-08 1505.3
0.115216 0 8.56692e-08 1505.29
0.115205 0 0.00196621 2531.13
-0.115205 6.77626e-21 0.00196622 2531.13
-0.115222 6.77626e-21 0.00073865 2350.13
0.115222 -6.77626e-21 0.000738632 2350.1
0.115216 6.77626e-21 0.00142698 3585.94
-0.115216 6.77626e-21 0.00142699 3585.94
-0.115227 0 0.000602617 2148.46
0.115227 0 0.000602603 2148.44
-0.115223 0 0.00127728 3449.73
0.115223 0 0.00127727 3449.72
0.115233 3.38813e-21 0.00210989 1980.14
-0.115233 0 0.00210989 1980.17
0.11527 0 8.03367e-08 1521.29
-0.11527 6.77626e-21 8.03371e-08 1521.3
0.115253 0 0.00205872 2201.6
-0.115253 0 0.00205872 2201.62
0.115284 0 0.00066507 2216.27
-0.115284 0 0.000665081 2216.6
0.115283 -6.77626e-21 0.00134258 3449.99
-0.115283 0 0.00134258 3450.85
0.115275 0 0.00200988 2316.79
-0.115275 -6.77626e-21 0.00200987 2317.55
-0.115317 0 0.00211377 2207.8
0.115317 -6.77626e-21 0.00211377 2207.78
0.115333 0 0.00205101 2267.07
-0.115333 -6.77626e-21 0.002051 2267.1
-0.115354 0 8.43506e-08 1681.7
0.115354 -6.77626e-21 8.43503e-08 1681.68
-0.115358 0 0.000107306 1689.37
0.115358 1.01644e-20 0.000107309 1689.36
0.11537 0 0.000550762 2222.18
-0.11537 -3.38813e-21 0.000550768 2222.21
0.115379 3.38813e-21 0.000791865 3055.75
-0.115379 6.77626e-21 0.000791869 3055.82
0.11538 -6.77626e-21 0.00120909 3908.41
-0.11538 0 0.00120909 3908.45
0.115396 3.38813e-21 0.00184969 4089.24
-0.115396 3.38813e-21 0.00184968 4089.36
0.115406 6.77626e-21 0.00148522 4823.01
-0.115406 -6.77626e-21 0.00148522 4823.12
-0.115453 0 0.00212005 2106.18
0.115453 0 0.00212005 2106.15
-0.115556 2.03288e-20 0.000327278 1936.22
0.115556 0 0.000327284 1936.2
-0.115608 1.12938e-21 0.00164723 5228.48
0.115608 -1.12938e-21 0.00164725 5228.35
-0.115627 -4.51751e-21 0.000993521 3823.47
0.115627 -9.03502e-21 0.000993543 3823.4
0.115635 3.38813e-21 0.00212847 2118
-0.115635 6.77626e-21 0.00212847 2118.03
-0.115696 0 0.00032771 2043.41
0.115696 6.77626e-21 0.000327723 2043.38
0.115709 0 9.72445e-08 1843.71
-0.115709 0 9.72452e-08 1843.73
-0.115724 6.77626e-21 0.00202738 2403.24
0.115724 6.77626e-21 0.00202739 2403.23
-0.115786 1.35525e-20 0.00132428 3378.57
0.115786 0 0.00132432 3376.88
0.115779 0 0.00213509 2325.75
-0.115779 1.35525e-20 0.00213509 2325.74
-0.115807 -1.35525e-20 0.000667664 2249.43
0.115807 0 0.000667699 2248.77
-0.115798 0 0.0019411 2567.88
0.115798 1.35525e-20 0.00194111 2566.35
-0.115838 -1.35525e-20 1.04109e-07 1618.99
0.115838 0 1.04109e-07 1618.95
0.115892 0 0.00204539 2243.15
-0.115892 0 0.00204539 2243.09
0.115953 0 0.00214313 1839.12
-0.115953 6.77626e-21 0.00214313 1839.01
-0.115994 6.77626e-21 9.47789e-08 1643.73
0.115994 6.77626e-21 9.47783e-08 1643.69
-0.116078 1.12938e-21 0.000992193 2754.83
0.116078 0 0.000992243 2754.77
0.116073 -1.69407e-21 0.00162164 3359.84
-0.116073 -2.25875e-21 0.0016216 3359.97
-0.11609 -1.12938e-21 0.000334102 1689.16
0.11609 3.38813e-21 0.000334126 1689.12
-0.116143 1.35525e-20 0.00215193 1479.32
0.116143 0 0.00215193 1479.45
0.11619 1.35525e-20 8.45417e-08 1532.68
-0.11619 0 8.4542e-08 1532.73
-0.11622 0 0.00203355 1705.78
0.11622 0 0.00203356 1705.87
-0.116329 -2.71051e-20 0.00216054 1689.85
0.116329 0 0.00216054 1689.92
0.116362 0 7.42117e-08 1347.81
-0.116362 0 7.42121e-08 1347.88
-0.116353 2.71051e-20 0.00192291 1917.18
0.116353 0 0.00192293 1916.93
-0.116372 0 0.000657195 1691.13
0.116372 1.35525e-20 0.000657253 1690.67
-0.116367 -1.35525e-20 0.00131844 2292.23
0.116367 -1.35525e-20 0.00131851 2291.55
0.116472 1.35525e-20 0.00205464 1748.53
-0.116472 -1.35525e-20 0.00205463 1748.44
0.116547 0 0.0021706 1517.32
-0.116547 -1.35525e-20 0.0021706 1517.19
-0.116588 1.35525e-20 8.0167e-08 1371.45
0.116588 1.35525e-20 8.01668e-08 1371.38
-0.116656 5.64689e-22 0.000325357 1384.13
0.116656 2.82344e-21 0.000325386 1384.06
-0.11666 2.25875e-21 0.000983991 2166.95
0.11666 1.12938e-21 0.000984053 2166.89
-0.116665 1.69407e-22 0.00161349 2654.6
0.116665 -3.38813e-22 0.00161354 2654.46
0.11671 6.77626e-21 8.17014e-08 1332.14
-0.11671 6.77626e-21 8.17016e-08 1332.22
-0.116715 2.03288e-20 0.00217836 1397.61
0.116715 -1.35525e-20 0.00217837 1397.75
-0.116803 1.35525e-20 0.00204843 1546.16
0.116803 2.71051e-20 0.00204845 1546.27
-0.116945 0 8.84455e-08 1179.1
0.116945 0 8.84455e-08 1179.02
-0.116948 -1.35525e-20 0.000654747 1394.62
0.116948 -1.35525e-20 0.000654804 1394.18
0.116934 -1.35525e-20 0.00218849 1607.7
-0.116934 -2.71051e-20 0.00218848 1607.62
-0.116948 0 0.00131454 1773.28
0.116948 -2.71051e-20 0.00131461 1772.55
-0.116946 -2.71051e-20 0.00190304 1609.05
0.116946 1.35525e-20 0.00190307 1608.7
0.117091 1.35525e-20 0.00205422 1521.89
-0.117091 -1.35525e-20 0.00205421 1521.78
0.11719 3.38813e-21 0.0022003 1301.62
-0.11719 3.38813e-21 0.0022003 1301.44
-0.117223 1.69407e-21 8.45568e-08 1213.02
0.117223 -2.03288e-20 8.45568e-08 1212.96
-0.117231 -6.77626e-22 0.000980531 1830.83
0.117231 0 0.000980583 1830.74
0.117237 0 0.000327533 1211.04
-0.117239 2.11758e-22 0.000325498 1211.1
0.11724 -6.35275e-22 0.000392969 1275.37
-0.11724 -1.05879e-21 0.000392909 1275.4
-0.117245 -1.52466e-20 8.4286e-08 1209.23
0.117245 -1.52466e-20 8.42859e-08 1209.18
-0.117243 1.35525e-21 0.00160918 2091.22
0.117243 -9.03502e-22 0.00160922 2091.02
-0.117255 8.47033e-22 0.000325416 1208.56
0.117255 3.81165e-21 0.00032544 1208.5
-0.117253 6.77626e-21 0.00220321 1269.25
0.117253 -1.69407e-20 0.00220321 1269.41
-0.117365 0 0.0020504 1401.98
0.117365 1.35525e-20 0.00205042 1402.08
-0.117522 4.06576e-20 8.03478e-08 1086.5
0.117522 1.35525e-20 8.03478e-08 1086.45
-0.117533 -1.35525e-20 0.000652009 1216.32
0.117533 0 0.000652048 1215.86
-0.117534 1.35525e-20 0.00130699 1473.26
0.117534 0 0.00130703 1472.45
-0.11753 -2.71051e-20 0.00187116 1397.38
0.11753 1.35525e-20 0.00187118 1396.94
0.117533 -1.35525e-20 0.00221616 1507.1
-0.117533 4.06576e-20 0.00221616 1507.01
-0.117782 -3.38813e-21 8.01445e-08 1127.45
0.117782 3.38813e-21 8.01445e-08 1127.42
-0.117774 -2.71051e-20 0.0022273 1167.92
0.117774 -2.03288e-20 0.0022273 1167.96
0.11783 2.25875e-21 0.000324846 1118.16
-0.11783 0 0.000324833 1118.25
0.117836 1.12938e-21 0.000977432 1526.17
-0.117836 0 0.000977404 1526.45
0.117824 6.77626e-21 0.00203764 1269.33
-0.117824 -6.77626e-21 0.00203762 1269.26
-0.117836 -2.71051e-21 0.00160419 1749.2
0.117836 -2.71051e-21 0.00160421 1748.87
0.117831 0 0.00215881 1106.38
-0.117831 2.03288e-20 0.00215877 1106.3
-0.117872 1.35525e-20 8.08535e-08 1119.45
0.117872 -1.35525e-20 8.08535e-08 1119.42
0.117904 0 0.00223329 1155.9
-0.117904 -6.77626e-21 0.00223329 1155.85
-0.118121 -1.35525e-20 8.10337e-08 1031.21
0.118121 1.35525e-20 8.10337e-08 1031.18
-0.118127 0 0.000648622 1104.74
0.118127 1.35525e-20 0.000648636 1104.2
-0.118129 -1.35525e-20 0.00129645 1287.23
0.118129 0 0.00129647 1286.24
-0.118129 0 0.00183213 1254.48
0.118129 0 0.00183214 1253.91
0.11813 -2.71051e-20 0.00224374 1367.33
-0.11813 0 0.00224373 1367.31
-0.118331 0 8.4226e-08 1060.48
0.118331 0 8.4226e-08 1060.47
-0.118312 0 0.00225214 1155.65
0.118312 -6.77626e-21 0.00225215 1155.65
-0.11834 1.35525e-20 0.00157067 1513.74
0.11834 9.03502e-21 0.00157067 1513.32
0.118432 1.12938e-21 0.000324873 1044.85
-0.118432 1.12938e-21 0.000324872 1045
-0.118436 -2.25875e-21 0.000972945 1317.76
0.118436 -1.12938e-21 0.000972947 1317.23
0.118425 -6.77626e-21 0.00202942 1159.25
-0.118425 -1.35525e-20 0.00202941 1159.25
0.11843 0 0.00211663 1054.97
-0.11843 6.77626e-21 0.00211662 1054.97
-0.118533 1.35525e-20 8.39687e-08 1045.7
0.118533 -1.35525e-20 8.39687e-08 1045.69
0.118572 -6.77626e-21 0.00226416 1151
-0.118572 6.77626e-21 0.00226416 1151.02
-0.118724 -2.71051e-20 8.63336e-08 989.248
0.118724 2.71051e-20 8.63336e-08 989.251
0.118723 0 0.00171367 1320.97
-0.118723 0 0.00171367 1321.58
0.118728 -1.35525e-20 0.00227134 1290.13
-0.118728 0 0.00227135 1290.17
0.118768 3.38813e-21 0.00132504 1278.3
-0.118768 -2.25875e-21 0.00132505 1279.23
0.118825 0 0.000642427 1069.64
-0.118825 -4.51751e-21 0.00064244 1070.13
-0.118855 0 0.00227722 1159.27
0.118855 1.35525e-20 0.00227722 1159.22
-0.118884 1.35525e-20 8.25008e-08 1009.08
0.118884 -1.35525e-20 8.25008e-08 1009.1
0.11894 5.42101e-21 0.000230178 1004.08
-0.11894 8.13152e-21 0.000230188 1004.07
0.11903 -1.35525e-20 0.000968919 1133.46
-0.11903 0 0.000968945 1134.44
-0.119031 0 0.00158378 1298.74
0.119031 0 0.00158376 1297.78
-0.119029 1.12938e-21 0.0020094 1117.76
0.119029 1.12938e-21 0.00200939 1117.71
-0.119194 -1.35525e-20 7.95716e-08 990.117
0.119194 1.35525e-20 7.95716e-08 990.155
0.119198 -6.77626e-21 0.000141176 988.764
-0.119198 -6.77626e-21 0.000141182 988.725
0.119237 -6.77626e-21 0.00229488 1164.22
-0.119237 -6.77626e-21 0.00229488 1164.31
0.119324 2.25875e-21 0.000639919 1003.61
-0.119324 1.12938e-21 0.000639954 1004.18
-0.119327 0 7.67102e-08 956.904
0.119327 0 7.67102e-08 956.954
0.119327 4.51751e-21 0.00127022 1103.08
-0.119327 3.38813e-21 0.00127026 1104.29
-0.119329 2.25875e-21 0.00171491 1166.37
0.119329 2.25875e-21 0.00171488 1165.56
-0.119328 -2.71051e-20 0.00229909 1241.07
0.119328 0 0.00229909 1240.97
0.119403 0 0.00230257 1171.56
-0.119403 6.77626e-21 0.00230257 1171.68
0.119436 -1.35525e-20 0.000117398 968.778
-0.119436 0 0.00011741 968.719
0.119439 0 8.09182e-08 969.395
-0.119439 0 8.09182e-08 969.336
0.119631 0 0.000320659 957.691
-0.119631 1.35525e-20 0.000320689 957.612
0.119633 -1.35525e-20 0.000964822 979.573
-0.119633 -1.35525e-20 0.000964885 980.879
-0.119635 -2.71051e-20 0.00157725 1117.89
0.119635 -2.71051e-20 0.0015772 1116.56
-0.119634 -1.69407e-21 0.00201287 1047.73
0.119634 -5.0822e-21 0.00201285 1047.6
-0.119855 6.77626e-21 8.52625e-08 945.454
0.119855 6.77626e-21 8.52624e-08 945.56
0.119856 1.35525e-20 8.18892e-05 944.956
-0.119856 -6.77626e-21 8.18975e-05 944.85
-0.119901 0 0.00232555 1176.07
0.119901 0 0.00232555 1175.89
0.11993 1.12938e-21 0.000637232 913.428
-0.11993 3.38813e-21 0.000637304 914.137
-0.119932 6.77626e-21 8.78252e-08 927.341
0.119932 0 8.7825e-08 927.457
-0.119934 0 0.00126452 949.016
0.119934 -5.64689e-22 0.00126444 947.442
-0.119936 0 0.00171637 1018.9
0.119936 0 0.00171631 1017.82
-0.119932 1.35525e-20 0.00232696 1198.85
0.119932 0 0.00232696 1198.67
0.119956 0 0.0023281 1176.53
-0.119956 0 0.0023281 1176.72
0.119995 0 6.93509e-05 931.717
-0.119995 6.77626e-21 6.93625e-05 931.599
0.119996 -6.77626e-21 8.41045e-08 932.021
-0.119996 -6.77626e-21 8.41047e-08 931.902
0.120207 -7.05861e-23 0.00201414 984.683
-0.120207 7.05861e-23 0.00201419 984.918
0.120233 2.71051e-20 0.000320486 917.408
-0.120233 0 0.000320535 917.259
0.120235 0 0.000960794 844.031
-0.120235 -2.71051e-20 0.000960897 845.697
-0.120237 0 0.00156987 949.182
0.120237 0 0.00156979 947.457
0.12026 1.69407e-21 0.00234212 1179.49
-0.12026 -1.69407e-21 0.00234212 1179.71
-0.120505 0 6.18504e-08 907.592
0.120505 0 6.18504e-08 907.767
-0.120506 0 2.78072e-05 907.416
0.120506 3.38813e-21 2.78023e-05 907.592
0.120507 0 0.00235355 1181.67
-0.120507 0 0.00235356 1181.92
-0.12053 0 6.04228e-08 903.005
0.12053 0 6.04228e-08 903.185
0.120515 0 0.00234188 1176.48
-0.120515 -3.38813e-21 0.00234189 1176.73
0.120531 -9.41148e-23 0.0012457 817.525
-0.120531 -2.35287e-22 0.00124588 819.348
0.120547 -1.12938e-22 0.000634174 832.05
-0.120547 -1.69407e-22 0.000634288 832.882
0.120528 0 0.00232802 1146.69
-0.120528 0 0.00232804 1147.02
0.120528 0 0.00235451 1185.2
-0.120528 3.38813e-21 0.00235452 1185.45
-0.120539 0 0.00171142 912.824
0.120539 1.12938e-21 0.00171132 911.473
0.120552 -3.38813e-21 2.32852e-05 904.692
-0.120552 -3.38813e-21 2.32903e-05 904.513
0.120553 0 6.17097e-08 904.758
-0.120553 0 6.17096e-08 904.579
-0.120543 0 0.00234205 1175.87
0.120543 0 0.00234204 1175.62
-0.120552 0 0.00235562 1181.37
0.120552 0 0.00235561 1181.12
0.120834 -2.71051e-20 0.000318139 893.728
-0.120834 0 0.0003182 893.521
0.120836 0 0.000956941 723.433
-0.120836 0 0.000957074 725.375
-0.120838 -2.71051e-20 0.00156511 813.328
0.120838 0 0.001565 811.313
-0.120836 1.12938e-21 0.00200519 939.015
0.120837 -3.38813e-21 0.00200513 938.504
-0.120859 -3.38813e-21 7.60868e-08 889.107
0.120859 0 7.60871e-08 889.297
0.121065 -6.77626e-21 0.00237934 1176.1
-0.121065 -6.77626e-21 0.00237934 1176.37
0.121088 -6.77626e-21 0.00234429 1160.5
-0.121088 0 0.00234429 1160.78
-0.121119 0 1.89551e-05 876.473
0.121119 3.38813e-21 1.89514e-05 876.674
-0.121119 -3.38813e-21 8.69662e-08 876.53
0.121119 0 8.69665e-08 876.731
0.121137 0 8.72831e-08 878.81
-0.121137 0 8.72828e-08 878.613
-0.121142 1.12938e-21 0.000632732 769.232
0.121142 5.64689e-22 0.000632605 768.374
-0.121126 0 0.00238219 1184.96
0.121126 0 0.00238219 1184.68
-0.121128 0 0.00230298 1074.54
0.121128 0 0.00230296 1074.06
-0.121145 -1.12938e-21 0.00125656 696.908
0.121145 0 0.0012564 695.009
-0.121145 4.51751e-21 0.00169995 799.85
0.121145 -4.51751e-21 0.00169983 798.457
0.121158 0 8.63068e-08 876.033
-0.121158 -3.38813e-21 8.63065e-08 875.833
0.121159 0 2.14148e-05 875.923
-0.121159 0 2.14188e-05 875.723
-0.12117 0 0.00234527 1156.75
0.12117 0 0.00234526 1156.47
-0.121195 0 0.00238537 1171.56
0.121195 0 0.00238537 1171.29
-0.121444 -2.71051e-20 0.000318955 858.632
0.121444 2.71051e-20 0.000318897 858.825
-0.121449 0 0.0009532 613.632
0.121449 0 0.000953073 611.764
0.121442 0 0.00199676 869.803
-0.121442 6.77626e-21 0.00199682 870.371
-0.12145 0 0.00155715 670.128
0.12145 -2.71051e-20 0.00155704 668.546
0.121634 0 0.00240564 1154.02
-0.121634 -6.77626e-21 0.00240564 1154.27
0.121669 0 0.00235306 1130.64
-0.121669 0 0.00235306 1130.88
-0.121699 6.77626e-21 5.8685e-05 846.05
0.121699 0 5.86723e-05 846.201
-0.121699 0 4.03272e-08 846.193
0.121699 0 4.03261e-08 846.344
-0.121726 1.35525e-20 0.00240987 1164.96
0.121726 1.35525e-20 0.00240987 1164.72
-0.121732 0 0.00229092 1006.37
0.121732 -1.35525e-20 0.00229091 1005.85
0.121756 0 3.78957e-08 850.611
-0.121756 -6.77626e-21 3.78966e-08 850.48
-0.121781 -3.38813e-21 0.000632934 701.869
0.121781 1.12938e-21 0.000632842 701.12
-0.121792 1.12938e-21 0.00125124 582.858
0.121792 0 0.00125112 581.411
-0.121788 -4.51751e-21 0.00168176 682.449
0.121788 4.51751e-21 0.00168168 681.416
-0.121791 0 0.00235671 1126.13
0.121791 0 0.00235671 1125.9
0.121828 0 4.12177e-08 840.926
-0.121828 0 4.12189e-08 840.802
0.121837 0 6.99672e-05 840.184
-0.121837 6.77626e-21 6.99779e-05 840.061
0.121825 0 0.00241445 1147.36
-0.121825 -6.77626e-21 0.00241445 1147.59
-0.122099 2.71051e-20 0.000321025 825.779
0.122099 0 0.000320991 825.858
0.122085 0 0.00198069 792.691
-0.122085 0 0.00198072 793.188
0.122263 2.43945e-20 0.00101903 526.535
-0.122263 2.71051e-21 0.00101909 528.544
0.122263 -4.51751e-21 0.0015084 546.797
-0.122263 0 0.00150845 548.461
-0.122256 -6.77626e-21 0.00243436 1142.29
0.122256 0 0.00243436 1142.12
-0.122296 0 0.00238067 1120.17
0.122296 0 0.00238068 1120.01
-0.122326 -1.35525e-20 8.40641e-08 895.025
0.122326 -1.35525e-20 8.40676e-08 895.061
-0.122327 0 0.000118199 892.215
0.122327 2.71051e-20 0.000118171 892.252
0.122354 0 0.00243889 1152.92
-0.122354 -1.35525e-20 0.00243889 1153.08
0.122363 0 0.00231848 998.289
-0.122363 0 0.00231847 998.758
0.122419 0 0.00238775 1113.95
-0.122419 0 0.00238774 1114.1
0.122444 0 8.89963e-08 930.042
-0.122444 0 8.89934e-08 930.046
0.122449 6.77626e-21 0.00244327 1130.55
-0.122449 1.35525e-20 0.00244327 1130.71
0.122512 4.51751e-21 0.000639005 714.165
-0.122512 -4.51751e-21 0.000639028 715.676
0.122514 0 0.00177574 920.509
-0.122514 0 0.00177575 923.235
0.122552 -2.71051e-20 0.00122858 700.831
-0.122552 -2.71051e-20 0.0012286 703.954
0.122565 0 8.12044e-08 919.994
-0.122565 -2.71051e-20 8.12004e-08 920.018
0.122569 0 0.00010807 918.728
-0.122569 1.35525e-20 0.000108087 918.753
-0.122701 -1.35525e-20 0.00106834 560.26
0.122701 0 0.00106833 556.45
0.122733 0 0.00202314 836.743
-0.122733 9.03502e-21 0.00202314 837.489
0.122781 2.25875e-21 0.00153791 505.63
-0.122781 9.03502e-21 0.00153791 510.449
-0.122832 1.35525e-20 0.000298119 901.615
0.122832 0 0.00029812 901.551
-0.122835 1.35525e-20 0.000912539 376.803
0.122835 1.35525e-20 0.000912547 372.437
-0.12298 3.38813e-21 0.0024678 1047.7
0.12298 0 0.0024678 1047.59
-0.122996 3.38813e-21 0.00244983 1037.82
0.122996 -3.38813e-21 0.00244983 1037.72
0.123017 -3.38813e-21 0.00246949 1045.85
-0.123017 0 0.00246949 1045.95
0.123018 0 0.00243 997.667
-0.123018 0 0.00242999 997.839
0.123037 0 0.00245141 1030.41
-0.123037 -3.38813e-21 0.0024514 1030.5
0.123046 0 0.00247085 1034.76
-0.123046 3.38813e-21 0.00247085 1034.86
-0.123082 0 0.00181615 783.96
0.123082 0 0.00181617 779.833
0.123099 -2.25875e-21 0.00121936 401.478
-0.123099 -2.25875e-21 0.00121933 406.391
-0.123111 -3.38813e-21 0.000615393 613.874
0.123111 4.51751e-21 0.000615423 611.742
0.123224 5.29396e-21 -7.39903e-09 866.396
-0.123231 0 -8.15793e-09 866.534
0.123348 1.89735e-20 0.00159634 425.446
-0.123348 1.0842e-20 0.0015963 430.078
0.123383 -2.82344e-22 0.00210433 771.625
-0.123383 -2.82344e-22 0.0021043 771.754
0.123447 -1.69407e-21 0.00248936 1102.69
-0.123447 -2.11758e-21 0.00248939 1102.8
-0.123475 -1.35525e-20 0.000922922 331.479
0.123475 -4.06576e-20 0.000922971 326.161
0.123479 4.23516e-22 0.00243573 1059.76
-0.123479 -4.23516e-22 0.00243628 1060.28
-0.123507 4.06576e-20 0.00031515 806.001
0.123507 -1.35525e-20 0.000315172 805.811
0.123498 4.23516e-21 0.00249174 1111.28
-0.123494 0 0.00249155 1111.3
-0.123732 -1.35525e-20 8.93512e-05 815.32
0.123732 0 8.9354e-05 815.117
-0.123734 -6.77626e-21 6.17809e-09 814.763
0.123734 0 6.17697e-09 814.561
0.123777 -1.35525e-21 0.000610963 578.82
-0.123777 -1.12938e-21 0.000610907 581.033
-0.123762 -1.01644e-20 0.00250391 1416.43
0.123762 1.69407e-20 0.00250391 1416.46
0.123782 -7.05861e-22 0.00122929 323.747
-0.123782 6.58803e-22 0.00122921 327.568
0.123792 -2.71051e-20 0.00231617 1383.84
-0.123792 1.35525e-20 0.00231613 1383.79
0.123814 0 4.7663e-09 869.888
-0.123814 0 4.76768e-09 870.09
0.123842 -1.12938e-21 0.00191141 821.153
-0.123842 2.82344e-21 0.00191139 820.797
0.123905 0 9.56164e-05 823.817
-0.123905 6.77626e-21 9.56125e-05 824.029
0.123911 -6.77626e-21 6.5703e-09 823.888
-0.123911 -6.77626e-21 6.57156e-09 824.1
0.12401 0 0.00251537 1960.23
-0.12401 -1.69407e-21 0.00251537 1960.22
-0.124023 0 0.00251596 1969.39
0.124023 0 0.00251597 1969.44
-0.12403 0 0.00249603 1960.45
0.12403 0 0.00249597 1960.47
-0.124107 0 0.000926585 285.945
0.124107 -1.35525e-20 0.000926643 282.536
0.124113 2.71051e-20 0.000309668 834.694
-0.124113 2.71051e-20 0.000309642 834.92
-0.124109 -1.35525e-20 0.00153604 290.568
0.124109 2.71051e-20 0.00153609 287.644
0.124199 0 0.00224856 1694.62
-0.124199 4.51751e-21 0.00224854 1693.46
-0.124312 0 5.9528e-09 836.394
0.124312 -6.77626e-21 5.95239e-09 836.175
-0.124316 0 0.000101998 836.639
0.124316 0 0.000102006 836.421
-0.124351 0 0.00253113 2086.53
0.124352 0 0.00253117 2086.89
-0.124411 -4.51751e-21 0.000610848 567.878
0.124411 4.51751e-21 0.000610898 566.073
0.124413 -1.35525e-20 7.80603e-09 873.991
-0.124413 0 7.80623e-09 874.198
-0.124412 -3.16226e-21 0.00125277 318.439
0.124412 -1.35525e-21 0.00125284 315.545
-0.124428 -1.807e-21 0.00188222 754.557
0.124428 9.03502e-22 0.00188226 755.106
-0.124454 -4.23516e-22 0.00253417 2121.6
0.12446 0 0.00253424 2121.65
0.124507 -6.77626e-21 9.76902e-05 836.874
-0.124507 -6.77626e-21 9.76851e-05 837.084
0.12451 0 6.4083e-09 836.709
-0.12451 6.77626e-21 6.40846e-09 836.918
0.124715 -1.35525e-20 0.000308871 839.14
-0.124715 0 0.000308852 839.344
-0.124717 4.06576e-20 0.00092527 258.509
0.124717 -1.35525e-20 0.000925313 254.978
-0.124722 -2.71051e-20 0.00152785 254.86
0.124722 0 0.00152789 251.898
-0.12474 0 0.00225265 1545.04
0.12474 2.25875e-21 0.00225267 1545.24
-0.124928 6.77626e-21 4.52659e-09 841.464
0.124928 -6.77626e-21 4.52646e-09 841.319
0.124931 0 8.62013e-05 841.539
-0.124931 6.77626e-21 8.61959e-05 841.683
0.125013 0 3.37598e-09 866.382
-0.125013 0 3.37608e-09 866.507
0.125015 -4.51751e-21 0.000609995 553.805
-0.125015 1.12938e-21 0.000609967 555.624
-0.124994 3.38813e-21 0.00256083 1959.77
0.124994 0 0.00256083 1959.73
-0.12502 1.58113e-21 0.00124401 279.192
0.12502 2.48463e-21 0.00124405 275.931
-0.125004 0 0.00254316 1944.23
0.125004 0 0.00254316 1944.19
-0.125027 3.16226e-21 0.0018792 687.962
0.125027 -2.71051e-21 0.00187923 686.63
-0.12503 3.38813e-21 0.00250699 1829.76
0.12503 -3.38813e-21 0.002507 1829.75
-0.125029 -3.38813e-21 0.00256248 1891.73
0.125029 0 0.00256247 1891.71
0.125057 0 0.00254379 1929.73
-0.125058 0 0.00254379 1929.77
0.125089 0 7.79237e-05 842.748
-0.125089 6.77626e-21 7.7922e-05 842.876
0.125091 0 3.20057e-09 842.617
-0.125091 -1.35525e-20 3.20067e-09 842.746
0.12507 3.38813e-21 0.00256435 1941.41
-0.12507 0 0.00256435 1941.45
-0.125318 0 0.000307701 845.741
0.125318 2.71051e-20 0.000307692 845.68
0.125323 0 0.000922882 236.289
-0.125323 0 0.000922865 239.881
-0.125326 2.71051e-20 0.00152712 233.402
0.125326 0 0.00152713 229.803
-0.125333 -2.25875e-21 0.00226101 1438.68
0.125333 -6.77626e-21 0.00226101 1438.64
-0.125563 6.77626e-21 1.13573e-09 847.028
0.125563 6.77626e-21 1.13563e-09 846.899
-0.125566 0 5.45783e-05 847.152
0.125566 -6.77626e-21 5.4579e-05 847.022
-0.125551 -6.77626e-21 0.00258658 1892.99
0.125551 -6.77626e-21 0.00258658 1892.9
-0.125572 -6.77626e-21 0.0025497 1866.23
0.125572 6.77626e-21 0.0025497 1866.14
-0.125618 0 9.99745e-10 860.283
0.125618 0 9.99651e-10 860.159
0.125621 1.12938e-21 0.00060893 544.545
-0.125621 -1.69407e-21 0.000608925 546.482
-0.12563 4.51751e-22 0.00188213 645.138
0.12563 3.16226e-21 0.00188214 643.578
0.125641 -1.8823e-22 0.00122765 232.532
-0.125641 5.17631e-22 0.00122764 236.205
-0.125626 0 0.00247651 1659.12
0.125626 0 0.00247652 1659.02
0.125624 6.77626e-21 0.00258997 1773.48
-0.125624 0 0.00258997 1773.57
0.125665 0 4.82049e-05 847.222
-0.125665 0 4.82067e-05 847.342
0.125666 6.77626e-21 3.71959e-10 847.131
-0.125666 6.77626e-21 3.72055e-10 847.251
0.125682 6.77626e-21 0.00255094 1853.19
-0.125682 6.77626e-21 0.00255093 1853.29
0.125708 -6.77626e-21 0.00259387 1878.42
-0.125708 -6.77626e-21 0.00259387 1878.52
-0.125766 1.35525e-20 0.00226798 1381.57
0.125766 1.35525e-20 0.00226799 1381.43
-0.125924 0 0.000307115 849.107
0.125924 -2.71051e-20 0.000307127 848.911
0.125929 -2.71051e-20 0.000921475 222.168
-0.125929 -2.71051e-20 0.000921486 226.198
-0.125931 -2.71051e-20 0.00152925 214.312
0.125931 2.71051e-20 0.00152925 210.708
-0.12593 6.77626e-21 0.00227153 1378.28
0.12593 0 0.00227153 1378.05
-0.126113 6.77626e-21 0.00261254 1866.67
0.126113 -6.77626e-21 0.00261254 1866.52
-0.126147 1.35525e-20 0.00255527 1828.96
0.126147 -1.35525e-20 0.00255528 1828.81
-0.12621 0 -2.76942e-09 850.43
0.12621 0 -2.76959e-09 850.318
-0.126211 0 1.46893e-05 850.463
0.126211 0 1.46869e-05 850.351
-0.126225 1.69407e-21 -2.94615e-09 853.614
0.126225 0 -2.94631e-09 853.502
0.126237 -1.69407e-21 1.28088e-05 850.449
-0.126237 0 1.28117e-05 850.558
0.126238 -1.69407e-21 -2.95873e-09 850.429
-0.126238 0 -2.95857e-09 850.537
0.126238 -2.82344e-22 0.000619266 527.208
-0.126238 0 0.000619298 529.405
-0.126235 5.64689e-22 0.00122346 213.583
0.126235 2.82344e-22 0.00122343 209.56
0.126226 -1.35525e-20 0.00227599 1337.56
-0.126226 -6.77626e-21 0.00227599 1337.84
-0.126236 7.22801e-21 0.00188697 611.287
0.126236 -9.03502e-22 0.00188696 609.493
-0.126226 0 0.00261776 1696.12
0.126226 0 0.00261777 1695.95
-0.126229 0 0.00244352 1532.03
0.126229 0 0.00244352 1531.78
0.126315 0 0.00255712 1816.77
-0.126315 0 0.00255712 1816.94
0.126356 6.77626e-21 0.00262376 1855.01
-0.126356 0 0.00262375 1855.18
0.126428 -1.69407e-21 -3.96826e-09 851.024
-0.126428 1.69407e-21 -3.96825e-09 851.092
0.126532 -2.71051e-20 0.000306588 851.959
-0.126532 0 0.000306607 851.982
0.126537 -2.71051e-20 0.000920861 210.474
-0.126537 0 0.000920906 214.941
-0.126538 2.71051e-20 0.00153271 199.286
0.126538 0 0.00153267 195.303
-0.126534 -6.77626e-21 0.00228266 1328.52
0.126534 0 0.00228265 1328.21
-0.126678 -6.77626e-21 0.00263866 1851.98
0.126678 -1.35525e-20 0.00263866 1851.77
-0.126725 -1.35525e-20 0.00256107 1803.91
0.126725 1.35525e-20 0.00256107 1803.7
0.12681 0 -2.33736e-09 852.274
-0.12681 0 -2.33751e-09 852.257
0.12681 0 2.38797e-05 852.272
-0.12681 0 2.38782e-05 852.255
-0.126834 -3.38813e-21 -2.28167e-09 852.528
0.126834 3.38813e-21 -2.28152e-09 852.549
-0.126841 -5.64689e-22 0.000608425 534.683
0.126841 -5.64689e-22 0.000608368 532.4
-0.126845 -1.12938e-21 0.00122627 201.351
0.126845 2.25875e-21 0.0012262 196.989
0.126835 1.12938e-21 0.00228348 1253.24
-0.126835 -1.12938e-21 0.0022835 1253.72
-0.126844 0 0.00186227 500.233
0.126844 2.25875e-21 0.00186223 498.106
0.12683 -1.35525e-20 0.00264569 1632.94
-0.12683 2.71051e-20 0.00264569 1633.18
-0.126861 3.38813e-21 2.66631e-05 852.332
-0.126861 0 -2.23719e-09 852.354
0.126861 -3.38813e-21 2.66635e-05 852.356
0.126861 3.38813e-21 -2.23703e-09 852.377
-0.126948 0 0.00256381 1791.23
0.126948 0 0.00256381 1790.99
0.127003 0 0.00265368 1840.47
-0.127003 0 0.00265368 1840.71
0.127141 2.71051e-20 0.000306506 852.436
-0.127141 0 0.000306542 852.372
0.127145 0 0.000920575 200.136
-0.127145 -2.71051e-20 0.000920659 204.936
-0.127146 2.71051e-20 0.00153687 184.838
0.127146 -2.71051e-20 0.0015368 180.69
-0.127142 -1.35525e-20 0.00217837 879.048
0.127142 -1.35525e-20 0.00217834 878.552
-0.127139 2.71051e-20 0.00241072 1687.56
0.127139 -1.35525e-20 0.00241071 1687.31
-0.127248 0 0.00266497 1838.41
0.127248 2.03288e-20 0.00266497 1838.15
0.127307 0 0.0025681 1780.58
-0.127307 -1.35525e-20 0.0025681 1780.85
0.127382 -6.77626e-21 -8.22232e-10 853.245
-0.127382 -6.77626e-21 -8.22387e-10 853.158
0.127384 0 5.89438e-05 853.2
-0.127384 6.77626e-21 5.89471e-05 853.113
-0.127443 -6.77626e-21 -7.3248e-10 853.896
0.127443 0 -7.3232e-10 853.988
-0.127452 2.25875e-21 0.000608325 529.528
0.127452 4.51751e-21 0.000608231 527.138
-0.127454 -4.51751e-21 0.00122918 190.176
0.127454 -2.25875e-21 0.00122906 185.632
-0.127443 4.51751e-21 0.00229674 1218.97
0.127443 0 0.00229672 1218.46
0.127436 0 0.00267368 1576.57
-0.127436 0 0.00267368 1576.87
-0.127451 -6.77626e-21 0.00186218 460.476
0.127451 0 0.00186211 458.213
-0.12751 -6.77626e-21 6.55645e-05 853.037
0.12751 0 6.55581e-05 853.136
-0.127511 6.77626e-21 -6.2388e-10 853.119
0.127511 0 -6.23725e-10 853.217
-0.127581 0 0.00257233 1765.98
0.127581 -2.71051e-20 0.00257232 1765.69
0.127647 0 0.00268344 1823.67
-0.127647 -6.77626e-21 0.00268344 1823.96
0.127753 0 0.000306321 853.397
-0.127753 0 0.00030637 853.274
-0.127757 0 0.000920829 195.632
0.127757 5.42101e-20 0.000920718 190.62
-0.12775 0 0.00217613 802.268
0.12775 -1.35525e-20 0.00217609 801.646
-0.127824 -6.77626e-21 0.00269159 1820.49
0.127824 -6.77626e-21 0.00269159 1820.19
0.127847 0 0.00165024 291.684
-0.127847 0 0.00165034 295.213
0.127834 0 0.00252191 1716.5
-0.127834 2.71051e-20 0.00252192 1716.8
0.127964 1.35525e-20 6.78512e-10 852.674
-0.127964 -1.35525e-20 6.78492e-10 852.561
0.127967 -1.35525e-20 9.08787e-05 852.557
-0.127967 0 9.08904e-05 852.445
-0.128058 -1.35525e-20 8.15259e-10 853.467
0.128058 -1.35525e-20 8.15271e-10 853.574
-0.12807 9.03502e-21 0.000608453 524.758
0.12807 -2.25875e-21 0.000608347 522.35
0.128044 1.35525e-20 0.00270176 1524.65
-0.128044 1.35525e-20 0.00270176 1524.99
-0.128055 2.25875e-21 0.00231138 1185.25
0.128055 5.64689e-22 0.00231136 1184.67
0.128063 1.35525e-20 0.00195322 475.726
-0.128063 9.03502e-21 0.00195328 477.304
-0.128072 2.25875e-21 0.00123217 178.785
0.128072 -4.51751e-21 0.00123204 174.344
-0.128163 6.77626e-21 7.73301e-10 851.55
0.128163 6.77626e-21 7.73304e-10 851.655
-0.128163 -6.77626e-21 9.99712e-05 851.444
0.128163 -6.77626e-21 9.99582e-05 851.55
0.128286 -6.77626e-21 0.00271291 1800.29
-0.128286 2.03288e-20 0.00271291 1800.63
-0.128376 -2.71051e-20 0.000306914 850.24
0.128376 2.71051e-20 0.000306867 850.338
-0.128353 0 0.00254725 1709.27
0.128353 4.51751e-21 0.00254724 1708.93
-0.128373 9.03502e-21 0.00165445 295.588
0.128373 -4.51751e-21 0.00165435 292.214
-0.128382 2.71051e-20 0.000921357 185.907
0.128382 2.71051e-20 0.000921252 180.994
-0.128412 -2.03288e-20 0.00271874 1796.72
0.128412 0 0.00271874 1796.38
0.128459 0 0.00207275 578.83
-0.128459 -5.42101e-21 0.00207279 579.959
-0.128564 -1.35525e-20 4.77264e-10 848.346
0.128564 0 4.77194e-10 848.404
-0.128568 1.35525e-20 0.000118203 848.192
0.128568 0 0.000118185 848.251
0.128657 0 0.00273009 1479.26
-0.128657 -2.71051e-20 0.00273008 1479.6
0.128688 -1.35525e-20 4.31329e-10 849.725
-0.128688 0 4.31408e-10 849.69
0.128672 5.64689e-22 0.00232909 1154.39
-0.128672 -5.64689e-22 0.00232912 1155.17
0.128684 -5.42101e-20 0.001887 462.381
-0.128684 -2.71051e-20 0.00188707 464.578
0.128704 -6.77626e-21 0.000608985 517.583
-0.128704 0 0.000609064 520.009
0.128707 9.03502e-21 0.00123527 164.198
-0.128707 3.76158e-37 0.00123536 168.465
0.128823 1.35525e-20 0.0001245 850.142
-0.128823 0 0.000124513 850.124
0.128823 0 4.54646e-10 850.32
-0.128823 -1.35525e-20 4.54768e-10 850.303
0.128917 2.03288e-20 0.0027421 1766.65
-0.128917 -6.77626e-21 0.0027421 1766.95