# p  POINT_DATA 14024
# x  y  z  p
0 0.0100383 9.88059e-08 0.00167615
0 -0.0100383 9.88059e-08 0.0120843
-6.77626e-21 0.0100383 0.000270318 0.00167651
-3.38813e-20 -0.0100383 0.000270355 0.0120836
0 0.0100383 0.000399158 0.00167657
-6.77626e-21 -0.0100383 0.000399216 0.0120835
0 0.0100383 0.000671987 0.00167685
0 -0.0100383 0.000672082 0.0120838
0 0.0100383 0.000954688 0.00167702
1.35525e-20 -0.0100383 0.000954778 0.0120831
2.71051e-20 0.0100383 0.00108461 0.00167719
-1.35525e-20 -0.0100383 0.00108472 0.0120831
0 0.0100383 0.00136726 0.00167813
0 -0.0100383 0.00136736 0.0120834
-2.03288e-20 0.0100382 0.00165828 0.00167918
6.77626e-21 -0.0100382 0.00165833 0.0120836
0 0.0100382 0.00179903 0.00167949
-1.35525e-20 -0.0100382 0.00179907 0.0120837
1.35525e-20 -0.0102118 8.66105e-08 0.0120829
0 0.0102118 8.66107e-08 0.00167544
-1.807e-20 0.0102382 0.000331506 0.00167527
0 -0.0102382 0.000331549 0.0120828
-2.71051e-20 0.0100382 0.002087 0.00168019
2.71051e-20 -0.0100382 0.002087 0.012084
-4.51751e-21 0.0102243 0.000990461 0.00167566
0 -0.0102243 0.000990555 0.0120824
0 0.0102083 0.00163603 0.00167764
0 -0.0102083 0.00163609 0.0120829
-1.35525e-20 -0.0102224 0.00218426 0.0120841
2.71051e-20 0.0102224 0.00218426 0.00168083
0 0.010458 6.24978e-08 0.00167528
-2.71051e-20 -0.010458 6.24966e-08 0.0120826
-1.35525e-20 0.0104623 0.000144468 0.00167518
0 -0.0104623 0.000144482 0.0120825
2.25875e-21 0.0105577 0.000633897 0.00167582
-4.51751e-21 -0.0105577 0.000633982 0.0120824
1.35525e-20 0.01058 5.25664e-08 0.00167588
1.35525e-20 -0.01058 5.25657e-08 0.0120828
1.35525e-20 0.0104079 0.00203701 0.0016794
2.71051e-21 -0.0104079 0.00203703 0.0120834
-2.25875e-21 0.010539 0.0012563 0.00167694
6.77626e-21 -0.010539 0.00125641 0.0120825
0 0.0106667 9.98927e-05 0.00167595
-1.35525e-20 -0.0106667 9.99038e-05 0.0120825
7.52918e-21 0.0105324 0.00171547 0.00167806
7.52918e-21 -0.0105324 0.00171555 0.0120829
0 0.0104246 0.00229102 0.00167982
-1.35525e-20 -0.0104246 0.00229102 0.0120836
0 -0.0106751 3.95308e-08 0.0120825
1.35525e-20 0.0106752 3.95301e-08 0.00167609
0 0.0105566 0.00221564 0.00167861
1.35525e-20 -0.0105566 0.00221565 0.0120831
1.35525e-20 -0.0105735 0.00236965 0.0120829
1.35525e-20 0.0105735 0.00236965 0.001678
0 -0.0108504 0.000315325 0.0120823
0 0.0108504 0.000315285 0.00167605
2.71051e-20 0.0108348 0.000932849 0.00167704
-2.71051e-20 -0.0108348 0.000932939 0.0120825
-2.71051e-20 0.0108178 0.0015192 0.00167816
0 -0.0108178 0.00151928 0.0120828
-1.35525e-20 -0.0106814 0.00242665 0.0120827
1.35525e-20 0.0106814 0.00242665 0.00167738
0 -0.0107334 0.002339 0.0120826
1.35525e-20 0.0107334 0.00233899 0.00167719
-6.77626e-21 -0.0110782 8.04033e-09 0.0120822
0 0.0110782 8.03996e-09 0.00167566
0 -0.0110788 6.39066e-05 0.0120821
6.77626e-21 0.0110788 6.38974e-05 0.00167557
0 -0.0111402 -5.0826e-11 0.012082
0 0.0111402 -5.09721e-11 0.00167546
-1.12938e-21 0.0111346 0.0006105 0.00167562
-2.25875e-21 -0.0111346 0.000610587 0.012082
1.12938e-21 0.0111195 0.00122922 0.00167642
-2.25875e-21 -0.0111195 0.00122932 0.0120822
0 0.0110331 0.00190695 0.00167677
-1.807e-21 -0.0110331 0.00190701 0.0120823
0 0.0111969 4.05707e-11 0.00167537
0 -0.0111969 4.06969e-11 0.012082
0 0.011197 5.94825e-05 0.00167535
0 -0.011197 5.94923e-05 0.0120819
2.71051e-20 0.0109687 0.00229798 0.00167576
0 -0.0109687 0.002298 0.0120821
0 0.0109784 0.0025835 0.00167646
1.35525e-20 -0.0109784 0.0025835 0.0120823
0 0.0110322 0.00252115 0.00167627
-1.35525e-20 -0.0110322 0.00252116 0.0120822
-1.35525e-20 -0.0110647 0.00262905 0.0120822
1.35525e-20 0.0110647 0.00262905 0.00167647
0 -0.0114329 0.000303637 0.0120816
-2.71051e-20 0.0114329 0.000303602 0.00167457
0 -0.0111379 0.00266759 0.0120823
0 0.0111379 0.00266759 0.00167671
0 -0.0111676 0.0026113 0.0120822
1.35525e-20 0.0111676 0.0026113 0.00167661
-2.71051e-20 0.0114367 0.000916218 0.001675
-2.71051e-20 -0.0114367 0.000916296 0.0120817
6.02335e-21 0.011273 0.00233142 0.00167598
-1.50584e-21 -0.011273 0.00233144 0.012082
-2.71051e-20 0.0114108 0.00155884 0.0016758
-2.71051e-20 -0.0114108 0.00155891 0.0120819
0 0.0114547 0.00210257 0.00167568
-2.71051e-20 -0.0114548 0.00210261 0.0120819
0 -0.0116763 1.11166e-09 0.0120814
0 0.0116763 1.11171e-09 0.00167411
0 -0.0116771 3.85435e-05 0.0120814
0 0.0116771 3.8534e-05 0.0016741
-2.71051e-20 0.011407 0.00257358 0.00167654
-2.71051e-20 -0.011407 0.00257359 0.0120821
0 -0.0117135 1.17278e-09 0.0120814
-6.77626e-21 0.0117135 1.17283e-09 0.00167403
-6.77626e-21 0.0117497 1.11165e-09 0.00167395
6.77626e-21 -0.0117497 1.11158e-09 0.0120814
0 0.0117514 3.59557e-05 0.00167394
0 -0.0117514 3.59627e-05 0.0120814
-1.12938e-21 0.0117364 0.000596544 0.00167415
-1.69407e-21 -0.0117364 0.000596601 0.0120814
-5.64689e-22 0.0117435 0.00122269 0.00167465
5.64689e-22 -0.0117435 0.00122276 0.0120815
6.77626e-21 0.0114702 0.00284265 0.00167682
-6.77626e-21 -0.0114702 0.00284265 0.0120821
-6.77626e-21 0.0114996 0.00279927 0.00167674
-6.77626e-21 -0.0114996 0.00279927 0.0120821
0 0.0115305 0.00287442 0.00167673
0 -0.0115305 0.00287442 0.0120821
3.38813e-21 0.0117521 0.00184882 0.00167503
0 -0.0117521 0.00184887 0.0120815
-1.35525e-20 -0.011585 0.00290382 0.0120821
6.77626e-21 0.011585 0.00290383 0.00167684
-5.64689e-21 0.0117097 0.00240795 0.00167581
4.51751e-21 -0.0117097 0.00240797 0.0120817
0 -0.01162 0.00284239 0.012082
0 0.01162 0.00284239 0.00167675
0 -0.0120252 0.000293165 0.0120811
0 0.0120252 0.000293146 0.00167331
2.71051e-20 0.0120563 0.000895205 0.00167379
2.71051e-20 -0.0120563 0.000895248 0.0120812
-2.71051e-20 0.0120785 0.0015256 0.00167413
2.71051e-20 -0.0120785 0.00152564 0.0120812
2.71051e-20 0.0119134 0.00273995 0.00167643
-2.71051e-20 -0.0119134 0.00273996 0.0120818
-2.71051e-20 0.0120751 0.00217652 0.00167461
0 -0.0120751 0.00217654 0.0120812
-3.38813e-21 -0.0122802 1.16251e-10 0.012081
-3.38813e-21 0.0122802 1.16247e-10 0.00167294
0 -0.0122814 2.10156e-05 0.012081
-3.38813e-21 0.0122814 2.10087e-05 0.00167293
3.38813e-21 -0.0123014 8.01245e-11 0.012081
3.38813e-21 0.0123014 8.01301e-11 0.0016729
-3.38813e-21 0.012322 7.76986e-11 0.00167287
0 -0.012322 7.76925e-11 0.012081
0 0.0123232 1.85971e-05 0.00167287
-3.38813e-21 -0.0123232 1.86029e-05 0.012081
0 0.01193 0.00308971 0.00167529
0 -0.01193 0.00308971 0.0120814
6.77626e-21 0.0119644 0.0030398 0.00167518
6.77626e-21 -0.0119644 0.0030398 0.0120814
-1.12938e-21 0.0123483 0.000568672 0.00167309
0 -0.0123483 0.000568694 0.012081
0 -0.0119766 0.00311487 0.0120813
6.77626e-21 0.0119766 0.00311487 0.00167478
0 -0.0120209 0.00313842 0.0120811
0 0.0120209 0.00313842 0.00167434
-1.35525e-20 -0.0120441 0.00309412 0.0120811
6.77626e-21 0.0120441 0.00309412 0.0016743
1.12938e-21 0.012391 0.00118191 0.00167339
1.69407e-21 -0.012391 0.00118194 0.012081
5.64689e-22 0.0124059 0.00184694 0.00167372
-1.12938e-21 -0.0124059 0.00184696 0.012081
2.71051e-20 0.0126198 0.000269535 0.00167237
2.71051e-20 -0.0126198 0.000269545 0.0120808
1.807e-21 0.0123629 0.00258809 0.00167353
9.03502e-22 -0.0123629 0.00258809 0.0120809
2.71051e-20 -0.012324 0.00300712 0.0120805
2.71051e-20 0.012324 0.00300712 0.00167255
0 0.0126818 0.000839769 0.00167296
0 -0.0126819 0.000839778 0.0120809
0 -0.0123691 0.00332403 0.0120805
6.77626e-21 0.0123692 0.00332402 0.00167246
2.71051e-20 0.0127333 0.00147339 0.00167279
0 -0.0127333 0.0014734 0.0120807
6.77626e-21 -0.0123952 0.00328327 0.0120805
6.77626e-21 0.0123952 0.00328326 0.00167239
-6.77626e-21 -0.0124114 0.00334656 0.0120805
0 0.0124115 0.00334656 0.00167223
0 -0.0128908 5.71212e-06 0.0120805
0 0.0128903 3.97342e-12 0.00167127
0 -0.0128967 3.22163e-12 0.0120805
8.47033e-22 0.0128967 3.22196e-12 0.00167125
0 -0.0124524 0.00336833 0.0120803
0 0.0124525 0.00336833 0.00167159
0 0.0129024 4.47165e-06 0.00167122
0 -0.0129024 4.47647e-06 0.0120805
-6.77626e-21 -0.0124699 0.00333453 0.0120803
6.77626e-21 0.01247 0.00333453 0.00167156
0 0.0127306 0.0021762 0.00167346
2.71051e-20 -0.0127306 0.00217621 0.0120809
0 0.0129435 0.000502357 0.00167209
0 -0.0129436 0.000502359 0.0120807
-3.89635e-20 0.0129444 0.000510125 0.00167208
1.69407e-21 -0.0129526 0.000508428 0.0120807
0 -0.0126107 0.00303067 0.0120802
-2.25875e-21 0.0126107 0.00303067 0.00167154
0 0.0127835 0.00277774 0.00167106
0 -0.0127835 0.00277774 0.0120801
-1.97641e-22 -0.0130621 0.00107673 0.0120805
1.41172e-22 0.0130621 0.00107673 0.00167205
-2.71051e-20 -0.0127348 0.00327342 0.0120801
-2.71051e-20 0.0127349 0.00327342 0.001671
0 0.0131536 0.000461241 0.00167185
0 -0.0131537 0.000461237 0.0120806
0 0.0131765 0.000218763 0.00167008
2.71051e-20 -0.0131765 0.000218756 0.0120802
4.23516e-22 0.0131833 1.68074e-12 0.00167104
0 -0.0131834 1.67988e-12 0.0120804
8.47033e-22 0.013081 0.00177272 0.00167235
-1.12938e-21 -0.013081 0.00177273 0.0120805
0 0.0127833 0.00354412 0.00166941
0 -0.0127833 0.00354413 0.0120796
-1.35525e-20 0.0128061 0.00351006 0.00166935
0 -0.0128061 0.00351007 0.0120796
5.64689e-22 0.0130749 0.00248236 0.00167208
0 -0.0130749 0.00248236 0.0120805
6.77626e-21 0.0128267 0.00356714 0.00166933
6.77626e-21 -0.0128267 0.00356715 0.0120797
0 0.0132939 0.000722069 0.00167312
0 -0.0132939 0.000722074 0.0120809
1.35525e-20 -0.0128705 0.00359021 0.0120789
6.77626e-21 0.0128705 0.0035902 0.00166722
0 -0.0129024 0.00352957 0.0120789
0 0.0129024 0.00352956 0.00166736
0 -0.0130201 0.00308568 0.0120797
-1.12938e-21 0.0130201 0.00308568 0.00166976
0 -0.0133991 0.000404506 0.0120805
0 0.0133991 0.000404507 0.00167155
0 0.013401 0.000412597 0.00167158
6.77626e-21 -0.013401 0.000412597 0.0120805
8.47033e-22 0.0134864 4.8798e-06 0.0016708
0 -0.0134865 4.88093e-06 0.0120803
-8.47033e-22 0.0134935 6.35544e-15 0.00167082
0 -0.0134936 6.33962e-15 0.0120803
-2.71051e-20 0.0134291 0.0013211 0.0016697
0 -0.0134291 0.0013211 0.0120796
8.47033e-22 0.0134987 6.99577e-06 0.00167084
0 -0.0134988 6.99782e-06 0.0120803
0 0.0135005 6.30778e-15 0.00167084
0 -0.0135006 6.29213e-15 0.0120803
-2.71051e-20 0.0134156 0.00209107 0.00167328
0 -0.0134156 0.00209107 0.0120809
0 0.0131946 0.003407 0.00166577
2.71051e-20 -0.0131946 0.00340701 0.0120784
2.71051e-20 -0.0133762 0.00281985 0.0120802
0 0.0133762 0.00281985 0.00167073
0 0.0131542 0.00373938 0.00166584
0 -0.0131543 0.00373939 0.0120783
1.35525e-20 0.0132115 0.00367304 0.00166593
0 -0.0132115 0.00367305 0.0120783
0 0.0137224 0.000302331 0.00167163
-2.71051e-20 -0.0137225 0.000302334 0.0120804
0 0.0132141 0.00377084 0.00166773
0 -0.0132141 0.00377085 0.0120791
-2.25875e-22 0.0137748 0.000790616 0.00167099
-2.82344e-22 -0.0137748 0.000790615 0.0120801
0 0.0132699 0.00380392 0.00166701
0 -0.0132699 0.00380392 0.0120786
0 0.0133033 0.0037381 0.00166695
1.35525e-20 -0.0133033 0.0037381 0.0120786
-6.35275e-22 0.013766 0.00148261 0.00167138
-2.11758e-22 -0.013766 0.00148308 0.0120802
-6.56451e-21 0.0137616 0.00166834 0.00167148
-2.11758e-22 -0.0137654 0.0016726 0.0120802
-1.12938e-21 0.0137168 0.00245604 0.00167218
-2.82344e-22 -0.0137168 0.00245604 0.0120807
-9.03502e-22 0.0136289 0.00324654 0.00166898
-4.51751e-22 -0.0136289 0.00324654 0.0120796
-2.71051e-20 0.0135494 0.00365539 0.00166715
-2.71051e-20 -0.0135494 0.00365539 0.0120785
1.69407e-21 0.0140721 1.55614e-05 0.00166998
1.69407e-21 -0.0140722 1.55723e-05 0.0120798
0 0.0140756 -2.0176e-16 0.00166997
-1.69407e-21 -0.0140757 -2.01911e-16 0.0120798
3.38813e-21 0.0140911 -3.05359e-16 0.00166991
0 -0.0140912 -3.0516e-16 0.0120798
1.69407e-21 0.0141007 2.2037e-05 0.00166979
0 -0.0141008 2.20527e-05 0.0120797
0 0.0141074 -2.98024e-16 0.00166978
1.69407e-21 -0.0141076 -2.97827e-16 0.0120797
0 -0.0135544 0.00397426 0.012079
0 0.0135544 0.00397427 0.00166757
0 -0.0140341 0.00165404 0.0120802
-2.11758e-22 0.0140348 0.001654 0.00167127
-6.77626e-21 -0.0135849 0.0039369 0.012079
0 0.0135849 0.00393691 0.00166756
0 -0.0135876 0.00399408 0.0120794
6.77626e-21 0.0135876 0.00399409 0.00166834
-2.71051e-20 0.0141246 0.00121981 0.00167165
0 -0.0141246 0.00121981 0.0120802
6.77626e-21 0.0136161 0.00401528 0.0016685
0 -0.0136161 0.00401529 0.0120795
0 0.013638 0.00398927 0.00166844
-6.77626e-21 -0.013638 0.00398927 0.0120795
-2.71051e-20 0.0140719 0.00204106 0.00167148
5.42101e-20 -0.0140719 0.00204106 0.0120803
2.71051e-20 0.0142772 0.000421917 0.00166828
0 -0.0142772 0.000421919 0.0120792
0 0.0140129 0.00281709 0.00167312
2.71051e-20 -0.0140129 0.00281709 0.0120812
0 -0.0138313 0.00369716 0.0120794
3.76459e-22 0.0138313 0.00369716 0.00166794
2.71051e-20 0.0140444 0.00346029 0.00166786
-2.71051e-20 -0.0140444 0.00346029 0.0120797
0 0.0139247 0.00394753 0.0016683
-2.71051e-20 -0.0139247 0.00394753 0.0120798
-4.23516e-22 -0.0144296 0.00162635 0.0120802
4.23516e-22 0.0144296 0.00162636 0.00167097
-1.05879e-20 -0.0144358 0.00162651 0.0120802
0 0.0144292 0.00163346 0.00167092
2.11758e-22 0.0144133 0.00187151 0.00167087
2.11758e-22 -0.0144133 0.00187201 0.0120803
3.38813e-21 -0.0139302 0.00424974 0.0120788
0 0.0139302 0.00424974 0.00166601
0 0.0145459 0.000829512 0.00166982
-1.41172e-21 -0.0145459 0.000829511 0.0120797
-1.41172e-22 0.0143705 0.00241704 0.00167068
5.64689e-22 -0.0143705 0.00241704 0.0120804
0 -0.0139467 0.00423388 0.0120788
3.38813e-21 0.0139467 0.00423389 0.00166596
-3.38813e-21 -0.0139493 0.00426393 0.0120787
0 0.0139493 0.00426393 0.00166576
-3.38813e-21 0.0139672 0.00427742 0.0016656
3.38813e-21 -0.0139673 0.00427743 0.0120786
0 0.0139799 0.00425949 0.00166559
3.38813e-21 -0.0139799 0.00425949 0.0120786
-2.82344e-22 0.0143443 0.0031393 0.00166848
8.47033e-22 -0.0143443 0.0031393 0.0120797
0 -0.0146845 2.60901e-05 0.0120798
0 0.0146845 2.60619e-05 0.00166942
-3.38813e-21 -0.0146916 -2.56338e-19 0.0120798
-3.38813e-21 0.0146916 -2.5093e-19 0.00166941
0 -0.0147109 8.3978e-18 0.0120799
0 0.0147109 8.40222e-18 0.00166957
0 0.0147271 2.99299e-05 0.00166939
-3.38813e-21 -0.0147271 2.99641e-05 0.0120798
0 0.0147301 8.1741e-18 0.00166938
3.38813e-21 -0.0147302 8.16959e-18 0.0120798
-1.69407e-21 0.0143144 0.00384164 0.00166486
-5.64689e-22 -0.0143144 0.00384165 0.0120784
2.71051e-20 -0.0147153 0.00202632 0.0120811
0 0.0147153 0.00202632 0.0016715
2.71051e-20 -0.0148123 0.00125345 0.0120791
2.71051e-20 0.0148123 0.00125345 0.00166889
-5.42101e-20 0.0142662 0.00421646 0.00166272
0 -0.0142662 0.00421647 0.0120774
0 0.0146941 0.00275223 0.00166688
2.71051e-20 -0.0146941 0.00275223 0.0120789
0 -0.0149583 0.000465189 0.0120804
2.71051e-20 0.0149583 0.000465187 0.00167071
0 -0.0143128 0.00453664 0.0120779
0 0.0143129 0.00453665 0.00166306
1.69407e-21 -0.0143174 0.0045308 0.0120779
1.69407e-21 0.0143174 0.00453082 0.00166305
0 -0.014319 0.00454125 0.0120779
0 0.014319 0.00454125 0.00166307
0 0.0143246 0.00454547 0.00166314
0 -0.0143246 0.00454547 0.012078
0 0.014329 0.00454047 0.00166313
0 -0.014329 0.00454047 0.012078
0 0.0146519 0.00346949 0.00166605
2.71051e-20 -0.0146519 0.00346949 0.0120791
0 -0.0145371 0.00427137 0.0120772
-4.23516e-22 0.0145371 0.00427137 0.00166177
-1.8823e-22 -0.0150759 0.00166227 0.0120795
0 0.0150759 0.00166227 0.00166879
0 0.0146079 0.0042979 0.00166169
0 -0.0146083 0.00429801 0.0120773
-5.29396e-22 -0.0150582 0.00232575 0.0120792
1.05879e-22 0.0150585 0.0023257 0.00166704
0 0.0147146 0.00405696 0.00165973
0 -0.0147146 0.00405696 0.0120761
0 -0.0151053 0.00231902 0.0120791
3.52048e-20 0.0151053 0.00231902 0.00166679
0 0.015093 0.00240332 0.00166651
2.64698e-22 -0.0150929 0.00240387 0.0120791
1.69407e-21 0.014553 0.00471681 0.00166047
4.23516e-22 -0.0145535 0.00471718 0.0120767
4.23516e-22 0.0149811 0.00311066 0.0016642
4.23516e-22 -0.0149812 0.00311066 0.0120783
-9.74088e-21 0.0149807 0.00311889 0.00166412
0 -0.0149884 0.00311084 0.0120782
5.42101e-20 0.0146393 0.00452216 0.0016628
0 -0.0146393 0.00452217 0.0120782
0 -0.0153521 2.62975e-05 0.0120798
0 0.0153522 2.62884e-05 0.00166881
0 -0.0153541 1.06036e-19 0.0120798
0 0.0153541 1.06058e-19 0.0016688
5.64689e-22 -0.0153336 0.000981682 0.0120792
-5.64689e-22 0.0153336 0.000981684 0.00166793
-3.38813e-21 -0.015371 -9.43424e-20 0.0120799
0 0.015371 -9.43934e-20 0.00166896
-3.38813e-21 0.0153889 1.38802e-05 0.00166884
0 -0.0153889 1.38838e-05 0.0120798
0 0.0153893 -9.17904e-20 0.00166883
0 -0.0153893 -9.17398e-20 0.0120798
0 0.0146775 0.00480513 0.00165908
0 -0.0146713 0.00480158 0.012076
0 -0.0149797 0.00377544 0.0120767
-2.49875e-20 0.0149766 0.00377561 0.00166077
-6.35275e-22 0.0149779 0.00383376 0.0016608
8.47033e-22 -0.0149779 0.00383404 0.0120768
-2.71051e-20 0.0153191 0.00276241 0.00166335
5.42101e-20 -0.0153191 0.00276241 0.0120783
2.25875e-22 -0.0149757 0.00442242 0.0120774
-6.77626e-22 0.0149757 0.00442242 0.00166123
2.71051e-20 0.0152934 0.00343578 0.00166043
0 -0.0152934 0.00343579 0.0120768
0 0.0149462 0.00476533 0.00165453
-2.71051e-20 -0.0149462 0.00476533 0.0120734
-5.42101e-20 0.0157071 0.00173869 0.00166441
5.42101e-20 -0.0157071 0.00173869 0.0120777
2.71051e-20 0.0152785 0.00409439 0.00165694
0 -0.0152785 0.0040944 0.0120749
0 0.014998 0.00505066 0.00165566
0 -0.014998 0.00505067 0.0120743
0 0.0150083 0.00502928 0.00165558
0 -0.0150083 0.00502931 0.0120742
-8.68209e-21 -0.01566 0.00240905 0.0120778
0 0.01566 0.00240905 0.00166263
0 -0.0150173 0.00506515 0.0120747
0 0.0150173 0.00506514 0.00165633
-2.11758e-22 0.015642 0.00267535 0.00166206
0 -0.015642 0.00267557 0.0120777
0 -0.0150364 0.00507946 0.0120742
0 0.0150364 0.00507947 0.00165553
-6.77626e-21 -0.0150495 0.00506281 0.0120741
0 0.0150495 0.00506281 0.00165542
-5.42101e-20 0.015871 0.000522609 0.00166576
-5.42101e-20 -0.0158711 0.00052261 0.0120788
0 -0.0156198 0.00308833 0.0120777
0 0.0156143 0.00308867 0.00166121
-1.50584e-21 0.0151805 0.0048173 0.00166098
0 -0.0151805 0.0048173 0.0120776
0 0.0153242 0.00462128 0.00167297
-2.71051e-20 -0.0153242 0.00462128 0.012085
-4.23516e-22 0.0155928 0.00376523 0.00165772
2.82344e-22 -0.0155928 0.00376523 0.0120758
-2.71051e-20 0.0152849 0.0050422 0.00165566
0 -0.0152849 0.0050422 0.0120745
0 -0.015956 0.00273569 0.0120774
-2.71051e-20 0.015956 0.00273569 0.00166091
3.5293e-23 -0.0156111 0.00436319 0.0120768
1.41172e-22 0.0156111 0.00436314 0.00165966
0 0.01536 0.00532139 0.00166019
0 -0.015359 0.00532072 0.0120776
2.71051e-20 -0.0159107 0.00341804 0.0120783
0 0.0159107 0.00341804 0.00166016
0 -0.0153751 0.00533351 0.0120776
1.05879e-22 0.0153755 0.00533384 0.00166031
0 0.0155376 0.00491086 0.0016619
1.12938e-21 -0.0155376 0.00491087 0.0120784
2.71051e-20 0.015907 0.00407426 0.00165346
0 -0.015907 0.00407427 0.0120734
0 0.0163929 0.00113505 0.00166223
-2.82344e-22 -0.0163929 0.00113505 0.0120779
1.69407e-21 -0.0164714 7.31819e-06 0.0120782
-1.69407e-21 0.0164714 7.30942e-06 0.00166281
0 -0.0164715 3.37843e-21 0.0120782
0 0.0164715 3.38102e-21 0.00166281
0 -0.0164799 3.92501e-21 0.0120782
0 0.0164799 3.92783e-21 0.00166272
0 0.0164875 7.98184e-06 0.0016627
0 -0.0164875 7.99151e-06 0.0120782
0 0.0164879 3.93933e-21 0.0016627
1.69407e-21 -0.0164879 3.93671e-21 0.0120782
8.47033e-22 -0.0162419 0.00306677 0.0120777
2.82344e-22 0.0162419 0.00306677 0.00165999
0 -0.0163552 0.00243071 0.0120774
1.05879e-22 0.0163553 0.00243042 0.00166051
1.19643e-20 -0.0163749 0.00231073 0.0120773
1.05879e-22 0.0163752 0.00230864 0.00166062
2.71051e-20 0.0156952 0.00522881 0.00166333
0 -0.0156952 0.00522881 0.0120799
0 0.0158708 0.00471772 0.00165685
0 -0.0158708 0.00471773 0.012075
0 -0.0156945 0.00557308 0.0120789
0 0.0156945 0.00557309 0.00166247
1.69407e-21 -0.0157031 0.00556196 0.0120789
0 0.0157031 0.00556198 0.00166245
0 -0.0157032 0.00557964 0.0120787
0 0.0157032 0.00557964 0.00166222
-1.69407e-21 0.0157125 0.0055866 0.00166219
0 -0.0157125 0.00558661 0.0120787
0 0.0157204 0.00557597 0.00166217
0 -0.0157205 0.00557597 0.0120787
1.41172e-22 -0.0163001 0.00366347 0.0120758
-2.82344e-22 0.0163001 0.00366347 0.0016564
1.41172e-22 0.0161921 0.00441855 0.0016555
2.82344e-22 -0.0161921 0.00441855 0.0120748
-2.35287e-22 -0.0161069 0.00511691 0.0120768
3.76459e-22 0.0161069 0.0051169 0.00165897
2.71051e-20 0.01604 0.00551404 0.0016603
5.42101e-20 -0.01604 0.00551404 0.0120771
2.71051e-20 -0.016526 0.00408753 0.0120743
5.42101e-20 0.016526 0.00408753 0.0016536
0 0.0170249 0.000578089 0.00165983
0 -0.0170249 0.000578088 0.0120776
0 0.0169748 0.00175444 0.0016589
-5.42101e-20 -0.0169748 0.00175444 0.0120773
0 -0.0160444 0.00583567 0.012078
0 0.0160444 0.00583566 0.00166062
3.38813e-21 -0.0160574 0.00581994 0.012078
0 0.0160574 0.00581994 0.0016606
0 0.0160586 0.00584628 0.00166047
0 -0.0160586 0.00584629 0.0120779
0 0.0160728 0.00585689 0.00166042
3.38813e-21 -0.0160728 0.00585691 0.012078
-3.38813e-21 0.0160861 0.00584361 0.0016604
3.38813e-21 -0.0160861 0.00584362 0.012078
0 -0.0168748 0.00305299 0.012077
0 0.0168748 0.00305299 0.00165806
0 0.0164851 0.00475809 0.0016582
0 -0.0164851 0.00475809 0.0120767
-1.8823e-22 0.0163205 0.005565 0.00165857
0 -0.0163205 0.00556501 0.0120768
-1.8823e-22 0.0168571 0.00373388 0.00165522
8.47033e-22 -0.0168571 0.00373388 0.0120734
0 0.0165295 0.00534686 0.00165519
0 -0.0165295 0.00534686 0.0120747
-5.64689e-22 -0.0168299 0.0044115 0.0120734
4.23516e-22 0.0168299 0.0044115 0.00165549
2.71051e-20 0.0164078 0.00581578 0.00166015
0 -0.0164078 0.00581579 0.0120785
3.38813e-21 -0.0163998 0.00610069 0.0120768
0 0.0163998 0.00610068 0.00165805
-3.38813e-21 0.0164127 0.00608898 0.00165803
3.38813e-21 -0.0164127 0.00608898 0.0120768
0 0.0164129 0.00611042 0.00165781
-3.38813e-21 -0.0164129 0.00611043 0.0120766
0 0.016425 0.00612105 0.00165761
0 -0.016425 0.00612106 0.0120764
0 0.0164353 0.00610824 0.0016576
0 -0.0164353 0.00610825 0.0120764
-8.47033e-22 -0.0168163 0.00505861 0.0120753
4.23516e-22 0.0168163 0.00505861 0.00165665
0 -0.0176215 4.77892e-06 0.0120777
-8.47033e-22 0.0176265 -3.90468e-24 0.00165794
8.47033e-22 0.0176313 4.81285e-06 0.00165791
-8.47033e-22 -0.0176314 -3.86162e-24 0.0120777
5.64689e-22 0.0175955 0.00115783 0.00165757
0 -0.0175956 0.00115783 0.0120776
0 -0.017176 0.0040533 0.0120706
0 0.017176 0.0040533 0.00165499
6.60686e-20 -0.0175451 0.00239264 0.0120773
0 0.0175451 0.00239265 0.00165691
3.98105e-20 -0.0175529 0.00240109 0.0120773
0 0.017553 0.00239273 0.0016569
-2.25875e-22 -0.016789 0.00571973 0.012076
-2.25875e-22 0.016789 0.00571973 0.00165651
-2.71051e-20 -0.0171455 0.00472285 0.0120721
0 0.0171455 0.00472285 0.00165541
5.42101e-20 0.0167243 0.00608098 0.00165511
0 -0.0167243 0.00608098 0.0120745
-5.29396e-23 -0.0175066 0.00343173 0.0120738
1.58819e-22 0.0175066 0.00343177 0.00165426
0 -0.0175023 0.00354698 0.0120734
5.29396e-23 0.0175024 0.00354592 0.00165397
0 -0.0167347 0.00638838 0.0120762
3.38813e-21 0.0167347 0.00638838 0.00165619
3.38813e-21 -0.0167445 0.00637729 0.0120762
0 0.0167445 0.0063773 0.00165618
-3.38813e-21 -0.0167456 0.00639795 0.0120763
0 0.0167456 0.00639795 0.00165624
5.29396e-23 0.0175745 0.00356409 0.0016539
0 -0.0175745 0.0035641 0.0120738
3.38813e-21 0.0167557 0.00640831 0.0016563
0 -0.0167557 0.00640832 0.0120764
0 0.0167665 0.00639832 0.00165629
3.38813e-21 -0.0167665 0.00639832 0.0120764
-2.71051e-20 0.017128 0.00537448 0.00165793
2.71051e-20 -0.017128 0.00537448 0.0120776
-2.0117e-20 -0.0174754 0.00438289 0.012073
3.1552e-20 0.0174755 0.00437875 0.00165423
3.76459e-22 -0.0169872 0.00615002 0.0120757
9.41148e-22 0.0169872 0.00615002 0.00165547
0 -0.0174587 0.00503849 0.012076
1.43996e-20 0.0174538 0.00503866 0.00165578
0 0.0171853 0.00594727 0.00165427
-2.71051e-20 -0.0171853 0.00594727 0.0120748
0 0.0182056 0.000582761 0.00165597
0 -0.0182056 0.000582755 0.0120777
0 0.0170678 0.00640561 0.00165705
-5.42101e-20 -0.0170678 0.00640561 0.0120779
-5.42101e-20 -0.0177914 0.004032 0.0120716
5.42101e-20 0.0177914 0.004032 0.00164978
-5.42101e-20 0.018185 0.00177763 0.0016555
-5.42101e-20 -0.018185 0.00177763 0.0120778
0 -0.0170411 0.00670226 0.0120759
-3.38813e-21 0.0170411 0.00670226 0.00165499
-3.38813e-21 -0.0170521 0.00669292 0.0120759
0 0.0170521 0.00669292 0.00165497
0 -0.017051 0.00671245 0.0120758
0 0.017051 0.00671244 0.00165482
0 0.0170609 0.00672261 0.00165467
3.38813e-21 -0.0170609 0.00672262 0.0120756
-3.38813e-21 0.0170703 0.0067113 0.00165466
0 -0.0170703 0.0067113 0.0120756
4.23516e-22 -0.0174549 0.00566696 0.0120764
-7.6233e-21 0.0174549 0.00566696 0.00165492
0 -0.0174621 0.00566666 0.0120764
-2.49875e-20 0.0174555 0.00567336 0.00165487
2.71051e-20 -0.0177854 0.00469986 0.0120777
2.71051e-20 0.0177854 0.00469986 0.00165668
5.42101e-20 0.0181697 0.0030568 0.00165497
0 -0.0181697 0.0030568 0.0120771
4.23516e-22 0.0181311 0.00370549 0.00165333
0 -0.0181311 0.00370549 0.0120768
4.23516e-22 0.0181386 0.00370544 0.00165338
-1.2282e-20 -0.0181386 0.00370544 0.0120769
4.51751e-22 -0.0174312 0.00632674 0.0120754
0 0.0174312 0.00632674 0.00165376
0 -0.0177791 0.00534408 0.0120767
5.42101e-20 0.0177791 0.00534408 0.00165328
2.71051e-20 0.0173547 0.00669604 0.00165226
-2.71051e-20 -0.0173547 0.00669604 0.0120735
0 -0.0181107 0.00435386 0.012078
0 0.0181107 0.00435393 0.00165362
0 -0.0181104 0.00436061 0.012078
0 0.0181104 0.00436061 0.00165362
-6.61744e-23 0.0181186 0.00436044 0.00165363
0 -0.0181187 0.00436044 0.0120781
0 -0.017346 0.00701596 0.0120752
0 0.017346 0.00701596 0.00165311
0 -0.017356 0.00700506 0.0120752
0 0.017356 0.00700507 0.0016531
0 -0.017356 0.0070262 0.0120753
-3.38813e-21 0.017356 0.0070262 0.00165315
0 0.017366 0.00703645 0.0016532
0 -0.017366 0.00703645 0.0120754
-3.38813e-21 0.0173769 0.00702633 0.00165319
3.38813e-21 -0.0173769 0.00702633 0.0120754
0 -0.0177656 0.00598778 0.0120769
-2.71051e-20 0.0177656 0.00598778 0.00165418
0 -0.0181031 0.00501242 0.0120793
-3.44637e-20 0.0181027 0.00501244 0.00165393
0 0.018806 3.41784e-06 0.00165396
-4.23516e-22 -0.018799 3.40978e-06 0.0120785
0 -0.0187936 0.00116587 0.0120783
-5.64689e-22 0.0187936 0.00116588 0.0016537
1.05879e-22 0.0181603 0.0050047 0.00165378
0 -0.0181605 0.00500468 0.0120793
-3.76459e-22 0.0176114 0.00676943 0.00165233
5.64689e-22 -0.0176114 0.00676944 0.0120749
0 -0.0184458 0.00401954 0.0120817
5.42101e-20 0.0184458 0.00401954 0.00165582
5.64689e-22 0.0187881 0.00239454 0.00165327
-5.64689e-22 -0.0187881 0.00239454 0.0120782
0 -0.0180923 0.0056577 0.0120775
2.51728e-20 0.0180923 0.0056577 0.00165286
0 -0.017813 0.00656607 0.0120742
0 0.017813 0.00656607 0.00165105
2.71051e-20 0.018419 0.0046774 0.00165241
0 -0.018419 0.0046774 0.0120811
1.85288e-22 0.0181646 0.00565621 0.00165263
0 -0.018165 0.0056562 0.0120774
5.42101e-20 0.0176826 0.00702997 0.0016537
-2.71051e-20 -0.0176826 0.00702997 0.0120769
3.38813e-21 -0.0176504 0.0073291 0.0120748
-3.38813e-21 0.0176504 0.0073291 0.00165182
0 -0.0176622 0.00731917 0.0120748
0 0.0176622 0.00731917 0.00165181
0 -0.0176607 0.00733968 0.0120746
0 0.0176607 0.00733968 0.00165166
-3.38813e-21 0.017671 0.0073503 0.00165152
0 -0.017671 0.0073503 0.0120745
0 0.0176811 0.0073384 0.00165151
0 -0.0176811 0.0073384 0.0120745
-4.23516e-22 -0.0180892 0.00628819 0.0120754
-8.47033e-21 0.0180852 0.00629219 0.00165173
2.71051e-20 0.0184318 0.00531284 0.00165328
5.42101e-20 -0.0184318 0.00531284 0.0120814
-1.41172e-22 0.0188513 0.00360407 0.00165403
1.41172e-22 -0.0188513 0.00360407 0.0120807
-4.23516e-22 0.0187481 0.00434154 0.00165387
4.23516e-22 -0.0187481 0.00434154 0.0120821
-3.38813e-22 0.0180499 0.006951 0.00165073
5.64689e-22 -0.0180499 0.006951 0.0120744
-2.71051e-20 -0.0184073 0.00596812 0.0120751
0 0.0184073 0.00596812 0.00165078
2.71051e-20 -0.0179676 0.00732197 0.0120722
0 0.0179676 0.00732197 0.00164928
-5.42101e-20 0.0193955 0.00058428 0.00165191
0 -0.0193955 0.00058428 0.0120793
0 0.0188202 0.00491059 0.00165213
0 -0.0188202 0.00491059 0.0120804
-5.42101e-20 0.0193971 0.00177916 0.00165143
0 -0.0193971 0.00177916 0.0120787
0 -0.0179547 0.00764207 0.0120741
0 0.0179547 0.00764207 0.0016502
-3.38813e-21 -0.0179658 0.00763011 0.0120741
0 0.0179658 0.00763011 0.00165018
0 -0.0179656 0.00765323 0.0120742
0 0.0179656 0.00765323 0.00165025
-2.71051e-20 -0.0183868 0.00661376 0.0120757
-2.71051e-20 0.0183868 0.00661376 0.00165105
0 0.0179765 0.00766446 0.00165031
0 -0.0179765 0.00766446 0.0120743
0 0.0179886 0.00765336 0.00165029
0 -0.0179886 0.00765336 0.0120743
2.11758e-22 0.0187313 0.00564103 0.00165082
1.75759e-20 -0.0187346 0.00564108 0.012077
1.0842e-19 0.0194124 0.00301785 0.00165117
1.0842e-19 -0.0194124 0.00301785 0.0120791
-5.29396e-23 0.0186153 0.00628803 0.00164978
1.05879e-22 -0.0186155 0.00628803 0.0120749
-3.76459e-22 0.0182255 0.00739575 0.00164957
7.52918e-22 -0.0182255 0.00739575 0.0120738
0 0.0187129 0.00628722 0.00164942
2.21287e-20 -0.0187129 0.00628722 0.0120748
-5.29396e-23 -0.0187119 0.00636687 0.0120747
-5.29396e-23 0.0187119 0.00636701 0.00164934
0 0.0184304 0.00719208 0.0016486
-2.71051e-20 -0.0184305 0.00719208 0.0120731
-2.71051e-20 -0.0190561 0.00532095 0.0120768
2.71051e-20 0.0190561 0.00532095 0.00165043
0 0.0182948 0.00765678 0.00165086
-2.71051e-20 -0.0182948 0.00765678 0.012076
-1.0842e-19 0.0193887 0.00432607 0.00165302
1.0842e-19 -0.0193888 0.00432607 0.0120843
-3.38813e-21 -0.0182591 0.0079553 0.0120738
0 0.0182591 0.0079553 0.00164904
0 0.0182726 0.00794412 0.00164902
-3.38813e-21 -0.0182726 0.00794412 0.0120737
0 -0.0182707 0.00796722 0.0120736
0 0.0182707 0.00796722 0.00164888
0 -0.0187103 0.00691346 0.0120743
-1.05879e-20 0.0187103 0.00691346 0.00164878
0 0.0182824 0.00797922 0.00164871
0 -0.0182824 0.00797922 0.0120734
0 -0.0190408 0.00595799 0.0120747
0 0.0190408 0.00595799 0.00164874
0 0.0182938 0.0079658 0.0016487
0 -0.0182938 0.0079658 0.0120734
0 0.019989 2.63262e-06 0.00164973
0 -0.0199836 2.64373e-06 0.0120802
0 0.0193748 0.00498849 0.00165283
-2.5411e-20 -0.0193748 0.00498849 0.0120832
0 0.0193837 0.0049883 0.00165298
-3.13402e-20 -0.0193837 0.0049883 0.0120835
0 0.0199938 0.00116195 0.00164944
0 -0.0199939 0.00116195 0.0120797
0 0.0200008 0.00116876 0.00164942
3.59989e-20 -0.0200008 0.00116876 0.0120797
-5.42101e-20 -0.0190298 0.00659446 0.0120737
-2.71051e-20 0.0190298 0.00659446 0.00164718
1.01644e-21 0.0186659 0.00757798 0.00164785
1.12938e-22 -0.018666 0.00757798 0.0120732
0 0.0200109 0.00238562 0.00164852
0 -0.020011 0.00238562 0.0120786
-4.23516e-22 0.0193684 0.00562811 0.00165034