# p  POINT_DATA 30784
# x  y  z  p
-0.114738 -1.05879e-22 1.35459e-05 0.0136256
0.114738 0 1.3545e-05 0.00488007
-0.114738 -1.05879e-22 1.20534e-07 0.0136257
0.114738 1.05879e-22 1.20534e-07 0.00488009
-0.114737 0 0.00063622 0.0136272
0.114737 0 0.000636151 0.00488115
-0.114737 -3.38813e-21 0.000671589 0.0136274
0.114737 -4.23516e-22 0.000671523 0.00488129
-0.114737 0 0.00070873 0.0136276
0.114737 4.23516e-22 0.000708671 0.00488143
-0.114737 4.23516e-22 0.00132981 0.0136298
0.114737 4.23516e-22 0.00132972 0.00488299
-0.114737 -4.23516e-22 0.00136709 0.0136298
0.114737 0 0.00136702 0.00488297
-0.114737 0 0.00140502 0.01363
0.114737 -4.23516e-22 0.00140497 0.00488315
-0.114737 -3.17637e-22 0.00207515 0.0136326
0.114737 -1.16467e-21 0.00207515 0.0048857
0.114737 2.64698e-21 0.002087 0.00488569
-0.114737 -2.64698e-21 0.002087 0.0136326
-0.114996 1.69407e-20 0.000337663 0.0136298
0.114996 1.35525e-20 0.000337642 0.00488506
0.114997 6.77626e-21 0.00101334 0.0048877
-0.114997 0 0.00101338 0.0136337
0.115 0 0.00170594 0.00488921
-0.115 0 0.00170596 0.0136356
-0.115215 0 6.13258e-05 0.0136351
0.115215 -2.03288e-20 6.13221e-05 0.00489038
-0.115216 0 8.56694e-08 0.0136352
0.115216 0 8.56692e-08 0.00489045
0.115205 0 0.00196621 0.00489178
-0.115205 6.77626e-21 0.00196622 0.0136375
-0.115222 6.77626e-21 0.00073865 0.0136363
0.115222 -6.77626e-21 0.000738632 0.00489102
0.115216 6.77626e-21 0.00142698 0.00489171
-0.115216 6.77626e-21 0.00142699 0.0136374
-0.115227 0 0.000602617 0.0136356
0.115227 0 0.000602603 0.00489063
-0.115223 0 0.00127728 0.0136371
0.115223 0 0.00127727 0.00489147
0.115233 3.38813e-21 0.00210989 0.0048914
-0.115233 0 0.00210989 0.013637
0.11527 0 8.03367e-08 0.00489217
-0.11527 6.77626e-21 8.03371e-08 0.0136369
0.115253 0 0.00205872 0.00489209
-0.115253 0 0.00205872 0.0136376
0.115284 0 0.00066507 0.00489246
-0.115284 0 0.000665081 0.0136374
0.115283 -6.77626e-21 0.00134258 0.00489322
-0.115283 0 0.00134258 0.0136386
0.115275 0 0.00200988 0.00489301
-0.115275 -6.77626e-21 0.00200987 0.0136385
-0.115317 0 0.00211377 0.0136397
0.115317 -6.77626e-21 0.00211377 0.00489423
0.115333 0 0.00205101 0.00489449
-0.115333 -6.77626e-21 0.002051 0.0136399
-0.115354 0 8.43506e-08 0.0136387
0.115354 -6.77626e-21 8.43503e-08 0.00489396
-0.115358 0 0.000107306 0.0136388
0.115358 1.01644e-20 0.000107309 0.00489412
0.11537 0 0.000550762 0.0048944
-0.11537 -3.38813e-21 0.000550768 0.0136393
0.115379 3.38813e-21 0.000791865 0.00489369
-0.115379 6.77626e-21 0.000791869 0.0136386
0.11538 -6.77626e-21 0.00120909 0.00489404
-0.11538 0 0.00120909 0.0136392
0.115396 3.38813e-21 0.00184969 0.00489486
-0.115396 3.38813e-21 0.00184968 0.0136401
0.115406 6.77626e-21 0.00148522 0.00489486
-0.115406 -6.77626e-21 0.00148522 0.0136401
-0.115453 0 0.00212005 0.0136423
0.115453 0 0.00212005 0.00489712
-0.115556 2.03288e-20 0.000327278 0.0136437
0.115556 0 0.000327284 0.00489903
-0.115608 1.12938e-21 0.00164723 0.0136444
0.115608 -1.12938e-21 0.00164725 0.00489966
-0.115627 -4.51751e-21 0.000993521 0.0136443
0.115627 -9.03502e-21 0.000993543 0.00489978
0.115635 3.38813e-21 0.00212847 0.00490157
-0.115635 6.77626e-21 0.00212847 0.0136464
-0.115696 0 0.00032771 0.013648
0.115696 6.77626e-21 0.000327723 0.00490334
0.115709 0 9.72445e-08 0.00490381
-0.115709 0 9.72452e-08 0.0136486
-0.115724 6.77626e-21 0.00202738 0.0136489
0.115724 6.77626e-21 0.00202739 0.00490421
-0.115786 1.35525e-20 0.00132428 0.0136502
0.115786 0 0.00132432 0.00490586
0.115779 0 0.00213509 0.00490582
-0.115779 1.35525e-20 0.00213509 0.0136504
-0.115807 -1.35525e-20 0.000667664 0.0136518
0.115807 0 0.000667699 0.00490723
-0.115798 0 0.0019411 0.013651
0.115798 1.35525e-20 0.00194111 0.00490653
-0.115838 -1.35525e-20 1.04109e-07 0.0136532
0.115838 0 1.04109e-07 0.00490843
0.115892 0 0.00204539 0.00490996
-0.115892 0 0.00204539 0.0136542
0.115953 0 0.00214313 0.00491204
-0.115953 6.77626e-21 0.00214313 0.0136561
-0.115994 6.77626e-21 9.47789e-08 0.0136591
0.115994 6.77626e-21 9.47783e-08 0.00491414
-0.116078 1.12938e-21 0.000992193 0.0136595
0.116078 0 0.000992243 0.00491575
0.116073 -1.69407e-21 0.00162164 0.00491573
-0.116073 -2.25875e-21 0.0016216 0.0136594
-0.11609 -1.12938e-21 0.000334102 0.013662
0.11609 3.38813e-21 0.000334126 0.00491713
-0.116143 1.35525e-20 0.00215193 0.0136609
0.116143 0 0.00215193 0.00491727
0.11619 1.35525e-20 8.45417e-08 0.00492011
-0.11619 0 8.4542e-08 0.013665
-0.11622 0 0.00203355 0.0136623
0.11622 0 0.00203356 0.00491886
-0.116329 -2.71051e-20 0.00216054 0.0136634
0.116329 0 0.00216054 0.0049201
0.116362 0 7.42117e-08 0.00492385
-0.116362 0 7.42121e-08 0.0136682
-0.116353 2.71051e-20 0.00192291 0.0136643
0.116353 0 0.00192293 0.00492109
-0.116372 0 0.000657195 0.0136672
0.116372 1.35525e-20 0.000657253 0.00492337
-0.116367 -1.35525e-20 0.00131844 0.0136653
0.116367 -1.35525e-20 0.00131851 0.00492211
0.116472 1.35525e-20 0.00205464 0.00492315
-0.116472 -1.35525e-20 0.00205463 0.0136661
0.116547 0 0.0021706 0.00492442
-0.116547 -1.35525e-20 0.0021706 0.0136672
-0.116588 1.35525e-20 8.0167e-08 0.0136737
0.116588 1.35525e-20 8.01668e-08 0.00492958
-0.116656 5.64689e-22 0.000325357 0.0136749
0.116656 2.82344e-21 0.000325386 0.00493102
-0.11666 2.25875e-21 0.000983991 0.013673
0.11666 1.12938e-21 0.000984053 0.00493014
-0.116665 1.69407e-22 0.00161349 0.0136708
0.116665 -3.38813e-22 0.00161354 0.00492826
0.11671 6.77626e-21 8.17014e-08 0.00493249
-0.11671 6.77626e-21 8.17016e-08 0.0136763
-0.116715 2.03288e-20 0.00217836 0.0136708
0.116715 -1.35525e-20 0.00217837 0.00492828
-0.116803 1.35525e-20 0.00204843 0.0136733
0.116803 2.71051e-20 0.00204845 0.00493086
-0.116945 0 8.84455e-08 0.0136811
0.116945 0 8.84455e-08 0.00493783
-0.116948 -1.35525e-20 0.000654747 0.0136804
0.116948 -1.35525e-20 0.000654804 0.00493746
0.116934 -1.35525e-20 0.00218849 0.00493418
-0.116934 -2.71051e-20 0.00218848 0.0136767
-0.116948 0 0.00131454 0.0136787
0.116948 -2.71051e-20 0.00131461 0.00493628
-0.116946 -2.71051e-20 0.00190304 0.0136774
0.116946 1.35525e-20 0.00190307 0.00493502
0.117091 1.35525e-20 0.00205422 0.00493892
-0.117091 -1.35525e-20 0.00205421 0.0136812
0.11719 3.38813e-21 0.0022003 0.00494179
-0.11719 3.38813e-21 0.0022003 0.013684
-0.117223 1.69407e-21 8.45568e-08 0.0136881
0.117223 -2.03288e-20 8.45568e-08 0.00494525
-0.117231 -6.77626e-22 0.000980531 0.0136866
0.117231 0 0.000980583 0.0049443
0.117237 0 0.000327533 0.00494554
-0.117239 2.11758e-22 0.000325498 0.0136884
0.11724 -6.35275e-22 0.000392969 0.00494549
-0.11724 -1.05879e-21 0.000392909 0.0136883
-0.117245 -1.52466e-20 8.4286e-08 0.0136886
0.117245 -1.52466e-20 8.42859e-08 0.00494577
-0.117243 1.35525e-21 0.00160918 0.0136856
0.117243 -9.03502e-22 0.00160922 0.00494356
-0.117255 8.47033e-22 0.000325416 0.0136888
0.117255 3.81165e-21 0.00032544 0.00494592
-0.117253 6.77626e-21 0.00220321 0.0136857
0.117253 -1.69407e-20 0.00220321 0.00494354
-0.117365 0 0.0020504 0.0136886
0.117365 1.35525e-20 0.00205042 0.00494651
-0.117522 4.06576e-20 8.03478e-08 0.0136943
0.117522 1.35525e-20 8.03478e-08 0.00495196
-0.117533 -1.35525e-20 0.000652009 0.0136941
0.117533 0 0.000652048 0.00495191
-0.117534 1.35525e-20 0.00130699 0.0136933
0.117534 0 0.00130703 0.00495134
-0.11753 -2.71051e-20 0.00187116 0.0136927
0.11753 1.35525e-20 0.00187118 0.00495079
0.117533 -1.35525e-20 0.00221616 0.00495029
-0.117533 4.06576e-20 0.00221616 0.0136921
-0.117782 -3.38813e-21 8.01445e-08 0.0137003
0.117782 3.38813e-21 8.01445e-08 0.00495838
-0.117774 -2.71051e-20 0.0022273 0.0136987
0.117774 -2.03288e-20 0.0022273 0.00495685
0.11783 2.25875e-21 0.000324846 0.00495949
-0.11783 0 0.000324833 0.0137014
0.117836 1.12938e-21 0.000977432 0.00495955
-0.117836 0 0.000977404 0.0137013
0.117824 6.77626e-21 0.00203764 0.00495846
-0.117824 -6.77626e-21 0.00203762 0.0137003
-0.117836 -2.71051e-21 0.00160419 0.0137005
0.117836 -2.71051e-21 0.00160421 0.00495889
0.117831 0 0.00215881 0.00495858
-0.117831 2.03288e-20 0.00215877 0.0137004
-0.117872 1.35525e-20 8.08535e-08 0.0137024
0.117872 -1.35525e-20 8.08535e-08 0.00496055
0.117904 0 0.00223329 0.00496028
-0.117904 -6.77626e-21 0.00223329 0.013702
-0.118121 -1.35525e-20 8.10337e-08 0.0137079
0.118121 1.35525e-20 8.10337e-08 0.00496635
-0.118127 0 0.000648622 0.013708
0.118127 1.35525e-20 0.000648636 0.00496642
-0.118129 -1.35525e-20 0.00129645 0.0137078
0.118129 0 0.00129647 0.00496627
-0.118129 0 0.00183213 0.0137076
0.118129 0 0.00183214 0.00496605
0.11813 -2.71051e-20 0.00224374 0.00496586
-0.11813 0 0.00224373 0.0137074
-0.118331 0 8.4226e-08 0.013713
0.118331 0 8.4226e-08 0.00497162
-0.118312 0 0.00225214 0.013712
0.118312 -6.77626e-21 0.00225215 0.00497048
-0.11834 1.35525e-20 0.00157067 0.0137131
0.11834 9.03502e-21 0.00157067 0.00497177
0.118432 1.12938e-21 0.000324873 0.00497406
-0.118432 1.12938e-21 0.000324872 0.0137154
-0.118436 -2.25875e-21 0.000972945 0.0137155
0.118436 -1.12938e-21 0.000972947 0.00497419
0.118425 -6.77626e-21 0.00202942 0.00497357
-0.118425 -1.35525e-20 0.00202941 0.013715
0.11843 0 0.00211663 0.00497364
-0.11843 6.77626e-21 0.00211662 0.0137151
-0.118533 1.35525e-20 8.39687e-08 0.0137178
0.118533 -1.35525e-20 8.39687e-08 0.00497652
0.118572 -6.77626e-21 0.00226416 0.00497695
-0.118572 6.77626e-21 0.00226416 0.0137183
-0.118724 -2.71051e-20 8.63336e-08 0.0137222
0.118724 2.71051e-20 8.63336e-08 0.00498103
0.118723 0 0.00171367 0.004981
-0.118723 0 0.00171367 0.0137222
0.118728 -1.35525e-20 0.00227134 0.00498073
-0.118728 0 0.00227135 0.013722
0.118768 3.38813e-21 0.00132504 0.00498188
-0.118768 -2.25875e-21 0.00132505 0.0137231
0.118825 0 0.000642427 0.00498399
-0.118825 -4.51751e-21 0.00064244 0.0137252
-0.118855 0 0.00227722 0.0137251
0.118855 1.35525e-20 0.00227722 0.00498392
-0.118884 1.35525e-20 8.25008e-08 0.0137262
0.118884 -1.35525e-20 8.25008e-08 0.00498504
0.11894 5.42101e-21 0.000230178 0.00498625
-0.11894 8.13152e-21 0.000230188 0.0137274
0.11903 -1.35525e-20 0.000968919 0.00498875
-0.11903 0 0.000968945 0.0137298
-0.119031 0 0.00158378 0.0137295
0.119031 0 0.00158376 0.00498845
-0.119029 1.12938e-21 0.0020094 0.0137297
0.119029 1.12938e-21 0.00200939 0.00498851
-0.119194 -1.35525e-20 7.95716e-08 0.0137337
0.119194 1.35525e-20 7.95716e-08 0.00499262
0.119198 -6.77626e-21 0.000141176 0.0049927
-0.119198 -6.77626e-21 0.000141182 0.0137338
0.119237 -6.77626e-21 0.00229488 0.0049933
-0.119237 -6.77626e-21 0.00229488 0.0137344
0.119324 2.25875e-21 0.000639919 0.00499577
-0.119324 1.12938e-21 0.000639954 0.0137368
-0.119327 0 7.67102e-08 0.0137368
0.119327 0 7.67102e-08 0.00499579
0.119327 4.51751e-21 0.00127022 0.00499577
-0.119327 3.38813e-21 0.00127026 0.0137368
-0.119329 2.25875e-21 0.00171491 0.0137369
0.119329 2.25875e-21 0.00171488 0.00499584
-0.119328 -2.71051e-20 0.00229909 0.0137366
0.119328 0 0.00229909 0.0049955
0.119403 0 0.00230257 0.00499739
-0.119403 6.77626e-21 0.00230257 0.0137385
0.119436 -1.35525e-20 0.000117398 0.00499854
-0.119436 0 0.00011741 0.0137395
0.119439 0 8.09182e-08 0.00499859
-0.119439 0 8.09182e-08 0.0137396
0.119631 0 0.000320659 0.00500331
-0.119631 1.35525e-20 0.000320689 0.0137443
0.119633 -1.35525e-20 0.000964822 0.00500349
-0.119633 -1.35525e-20 0.000964885 0.0137445
-0.119635 -2.71051e-20 0.00157725 0.0137443
0.119635 -2.71051e-20 0.0015772 0.00500324
-0.119634 -1.69407e-21 0.00201287 0.0137446
0.119634 -5.0822e-21 0.00201285 0.0050034
-0.119855 6.77626e-21 8.52625e-08 0.0137498
0.119855 6.77626e-21 8.52624e-08 0.00500875
0.119856 1.35525e-20 8.18892e-05 0.00500878
-0.119856 -6.77626e-21 8.18975e-05 0.0137498
-0.119901 0 0.00232555 0.0137507
0.119901 0 0.00232555 0.00500952
0.11993 1.12938e-21 0.000637232 0.00501059
-0.11993 3.38813e-21 0.000637304 0.0137517
-0.119932 6.77626e-21 8.78252e-08 0.0137516
0.119932 0 8.7825e-08 0.00501058
-0.119934 0 0.00126452 0.0137517
0.119934 -5.64689e-22 0.00126444 0.00501056
-0.119936 0 0.00171637 0.0137533
0.119936 0 0.00171631 0.00501207
-0.119932 1.35525e-20 0.00232696 0.0137514
0.119932 0 0.00232696 0.00501025
0.119956 0 0.0023281 0.00501087
-0.119956 0 0.0023281 0.013752
0.119995 0 6.93509e-05 0.00501215
-0.119995 6.77626e-21 6.93625e-05 0.0137532
0.119996 -6.77626e-21 8.41045e-08 0.00501218
-0.119996 -6.77626e-21 8.41047e-08 0.0137533
0.120207 -7.05861e-23 0.00201414 0.00501758
-0.120207 7.05861e-23 0.00201419 0.0137589
0.120233 2.71051e-20 0.000320486 0.00501795
-0.120233 0 0.000320535 0.0137591
0.120235 0 0.000960794 0.00501816
-0.120235 -2.71051e-20 0.000960897 0.0137594
-0.120237 0 0.00156987 0.0137591
0.120237 0 0.00156979 0.00501785
0.12026 1.69407e-21 0.00234212 0.00501829
-0.12026 -1.69407e-21 0.00234212 0.0137596
-0.120505 0 6.18504e-08 0.0137659
0.120505 0 6.18504e-08 0.00502463
-0.120506 0 2.78072e-05 0.0137659
0.120506 3.38813e-21 2.78023e-05 0.00502464
0.120507 0 0.00235355 0.00502434
-0.120507 0 0.00235356 0.0137657
-0.12053 0 6.04228e-08 0.0137666
0.12053 0 6.04228e-08 0.00502525
0.120515 0 0.00234188 0.00502454
-0.120515 -3.38813e-21 0.00234189 0.0137659
0.120531 -9.41148e-23 0.0012457 0.00502501
-0.120531 -2.35287e-22 0.00124588 0.0137664
0.120547 -1.12938e-22 0.000634174 0.00502605
-0.120547 -1.69407e-22 0.000634288 0.0137674
0.120528 0 0.00232802 0.00502487
-0.120528 0 0.00232804 0.0137662
0.120528 0 0.00235451 0.00502487
-0.120528 3.38813e-21 0.00235452 0.0137662
-0.120539 0 0.00171142 0.0137667
0.120539 1.12938e-21 0.00171132 0.00502526
0.120552 -3.38813e-21 2.32852e-05 0.00502579
-0.120552 -3.38813e-21 2.32903e-05 0.0137671
0.120553 0 6.17097e-08 0.00502579
-0.120553 0 6.17096e-08 0.0137671
-0.120543 0 0.00234205 0.0137666
0.120543 0 0.00234204 0.00502521
-0.120552 0 0.00235562 0.0137668
0.120552 0 0.00235561 0.00502543
0.120834 -2.71051e-20 0.000318139 0.00503272
-0.120834 0 0.0003182 0.0137742
0.120836 0 0.000956941 0.00503288
-0.120836 0 0.000957074 0.0137744
-0.120838 -2.71051e-20 0.00156511 0.0137741
0.120838 0 0.001565 0.00503254
-0.120836 1.12938e-21 0.00200519 0.0137745
0.120837 -3.38813e-21 0.00200513 0.00503277
-0.120859 -3.38813e-21 7.60868e-08 0.0137748
0.120859 0 7.60871e-08 0.00503321
0.121065 -6.77626e-21 0.00237934 0.00503819
-0.121065 -6.77626e-21 0.00237934 0.01378
0.121088 -6.77626e-21 0.00234429 0.0050388
-0.121088 0 0.00234429 0.0137807
-0.121119 0 1.89551e-05 0.0137812
0.121119 3.38813e-21 1.89514e-05 0.00503949
-0.121119 -3.38813e-21 8.69662e-08 0.0137812
0.121119 0 8.69665e-08 0.0050395
0.121137 0 8.72831e-08 0.00503992
-0.121137 0 8.72828e-08 0.0137817
-0.121142 1.12938e-21 0.000632732 0.0137819
0.121142 5.64689e-22 0.000632605 0.00504011
-0.121126 0 0.00238219 0.0137818
0.121126 0 0.00238219 0.00503982
-0.121128 0 0.00230298 0.0137818
0.121128 0 0.00230296 0.00503982
-0.121145 -1.12938e-21 0.00125656 0.0137821
0.121145 0 0.0012564 0.00504017
-0.121145 4.51751e-21 0.00169995 0.0137822
0.121145 -4.51751e-21 0.00169983 0.00504017
0.121158 0 8.63068e-08 0.00504044
-0.121158 -3.38813e-21 8.63065e-08 0.0137822
0.121159 0 2.14148e-05 0.00504046
-0.121159 0 2.14188e-05 0.0137822
-0.12117 0 0.00234527 0.0137828
0.12117 0 0.00234526 0.0050408
-0.121195 0 0.00238537 0.0137834
0.121195 0 0.00238537 0.0050414
-0.121444 -2.71051e-20 0.000318955 0.0137892
0.121444 2.71051e-20 0.000318897 0.00504725
-0.121449 0 0.0009532 0.0137896
0.121449 0 0.000953073 0.00504747
0.121442 0 0.00199676 0.00504803
-0.121442 6.77626e-21 0.00199682 0.0137906
-0.12145 0 0.00155715 0.01379
0.12145 -2.71051e-20 0.00155704 0.00504764
0.121634 0 0.00240564 0.00505246
-0.121634 -6.77626e-21 0.00240564 0.0137951
0.121669 0 0.00235306 0.00505338
-0.121669 0 0.00235306 0.0137962
-0.121699 6.77626e-21 5.8685e-05 0.0137946
0.121699 0 5.86723e-05 0.00505238
-0.121699 0 4.03272e-08 0.0137946
0.121699 0 4.03261e-08 0.00505241
-0.121726 1.35525e-20 0.00240987 0.0137978
0.121726 1.35525e-20 0.00240987 0.0050549
-0.121732 0 0.00229092 0.013798
0.121732 -1.35525e-20 0.00229091 0.00505501
0.121756 0 3.78957e-08 0.00505356
-0.121756 -6.77626e-21 3.78966e-08 0.0137958
-0.121781 -3.38813e-21 0.000632934 0.0137968
0.121781 1.12938e-21 0.000632842 0.00505441
-0.121792 1.12938e-21 0.00125124 0.0137986
0.121792 0 0.00125112 0.00505568
-0.121788 -4.51751e-21 0.00168176 0.0137994
0.121788 4.51751e-21 0.00168168 0.00505613
-0.121791 0 0.00235671 0.0137992
0.121791 0 0.00235671 0.00505624
0.121828 0 4.12177e-08 0.00505525
-0.121828 0 4.12189e-08 0.0137976
0.121837 0 6.99672e-05 0.00505537
-0.121837 6.77626e-21 6.99779e-05 0.0137977
0.121825 0 0.00241445 0.00505699
-0.121825 -6.77626e-21 0.00241445 0.0137999
-0.122099 2.71051e-20 0.000321025 0.0138032
0.122099 0 0.000320991 0.00506058
0.122085 0 0.00198069 0.00506398
-0.122085 0 0.00198072 0.013808
0.122263 2.43945e-20 0.00101903 0.00506648
-0.122263 2.71051e-21 0.00101909 0.0138096
0.122263 -4.51751e-21 0.0015084 0.00506854
-0.122263 0 0.00150845 0.0138125
-0.122256 -6.77626e-21 0.00243436 0.0138096
0.122256 0 0.00243436 0.00506642
-0.122296 0 0.00238067 0.0138105
0.122296 0 0.00238068 0.00506729
-0.122326 -1.35525e-20 8.40641e-08 0.0138091
0.122326 -1.35525e-20 8.40676e-08 0.00506604
-0.122327 0 0.000118199 0.0138089
0.122327 2.71051e-20 0.000118171 0.00506592
0.122354 0 0.00243889 0.00506857
-0.122354 -1.35525e-20 0.00243889 0.0138116
0.122363 0 0.00231848 0.00506886
-0.122363 0 0.00231847 0.0138121
0.122419 0 0.00238775 0.0050698
-0.122419 0 0.00238774 0.0138129
0.122444 0 8.89963e-08 0.00506832
-0.122444 0 8.89934e-08 0.0138115
0.122449 6.77626e-21 0.00244327 0.00507038
-0.122449 1.35525e-20 0.00244327 0.0138134
0.122512 4.51751e-21 0.000639005 0.00506981
-0.122512 -4.51751e-21 0.000639028 0.0138128
0.122514 0 0.00177574 0.00507172
-0.122514 0 0.00177575 0.0138149
0.122552 -2.71051e-20 0.00122858 0.00507318
-0.122552 -2.71051e-20 0.0012286 0.0138165
0.122565 0 8.12044e-08 0.00507078
-0.122565 -2.71051e-20 8.12004e-08 0.0138141
0.122569 0 0.00010807 0.00507089
-0.122569 1.35525e-20 0.000108087 0.0138142
-0.122701 -1.35525e-20 0.00106834 0.0138182
0.122701 0 0.00106833 0.00507501
0.122733 0 0.00202314 0.00507547
-0.122733 9.03502e-21 0.00202314 0.013819
0.122781 2.25875e-21 0.00153791 0.00507726
-0.122781 9.03502e-21 0.00153791 0.013821
-0.122832 1.35525e-20 0.000298119 0.0138198
0.122832 0 0.00029812 0.00507636
-0.122835 1.35525e-20 0.000912539 0.0138172
0.122835 1.35525e-20 0.000912547 0.00507469
-0.12298 3.38813e-21 0.0024678 0.0138228
0.12298 0 0.0024678 0.00508011
-0.122996 3.38813e-21 0.00244983 0.0138231
0.122996 -3.38813e-21 0.00244983 0.00508039
0.123017 -3.38813e-21 0.00246949 0.00508081
-0.123017 0 0.00246949 0.0138235
0.123018 0 0.00243 0.00508086
-0.123018 0 0.00242999 0.0138236
0.123037 0 0.00245141 0.00508113
-0.123037 -3.38813e-21 0.0024514 0.0138239
0.123046 0 0.00247085 0.00508133
-0.123046 3.38813e-21 0.00247085 0.013824
-0.123082 0 0.00181615 0.013825
0.123082 0 0.00181617 0.00508191
0.123099 -2.25875e-21 0.00121936 0.00508345
-0.123099 -2.25875e-21 0.00121933 0.013827
-0.123111 -3.38813e-21 0.000615393 0.013827
0.123111 4.51751e-21 0.000615423 0.00508332
0.123224 5.29396e-21 -7.39903e-09 0.00508584
-0.123231 0 -8.15793e-09 0.0138298
0.123348 1.89735e-20 0.00159634 0.0050874
-0.123348 1.0842e-20 0.0015963 0.0138305
0.123383 -2.82344e-22 0.00210433 0.0050871
-0.123383 -2.82344e-22 0.0021043 0.0138303
0.123447 -1.69407e-21 0.00248936 0.00509033
-0.123447 -2.11758e-21 0.00248939 0.0138343
-0.123475 -1.35525e-20 0.000922922 0.0138363
0.123475 -4.06576e-20 0.000922971 0.00509226
0.123479 4.23516e-22 0.00243573 0.00509072
-0.123479 -4.23516e-22 0.00243628 0.0138347
-0.123507 4.06576e-20 0.00031515 0.0138392
0.123507 -1.35525e-20 0.000315172 0.00509488
0.123498 4.23516e-21 0.00249174 0.00509144
-0.123494 0 0.00249155 0.0138355
-0.123732 -1.35525e-20 8.93512e-05 0.0138451
0.123732 0 8.9354e-05 0.00510038
-0.123734 -6.77626e-21 6.17809e-09 0.013845
0.123734 0 6.17697e-09 0.00510027
0.123777 -1.35525e-21 0.000610963 0.00510064
-0.123777 -1.12938e-21 0.000610907 0.0138456
-0.123762 -1.01644e-20 0.00250391 0.0138477
0.123762 1.69407e-20 0.00250391 0.00510097
0.123782 -7.05861e-22 0.00122929 0.00509972
-0.123782 6.58803e-22 0.00122921 0.0138444
0.123792 -2.71051e-20 0.00231617 0.00510067
-0.123792 1.35525e-20 0.00231613 0.0138469
0.123814 0 4.7663e-09 0.00510231
-0.123814 0 4.76768e-09 0.0138472
0.123842 -1.12938e-21 0.00191141 0.00510125
-0.123842 2.82344e-21 0.00191139 0.0138463
0.123905 0 9.56164e-05 0.00510451
-0.123905 6.77626e-21 9.56125e-05 0.0138497
0.123911 -6.77626e-21 6.5703e-09 0.00510465
-0.123911 -6.77626e-21 6.57156e-09 0.0138498
0.12401 0 0.00251537 0.00510432
-0.12401 -1.69407e-21 0.00251537 0.0138495
-0.124023 0 0.00251596 0.0138497
0.124023 0 0.00251597 0.00510456
-0.12403 0 0.00249603 0.0138498
0.12403 0 0.00249597 0.00510468
-0.124107 0 0.000926585 0.0138555
0.124107 -1.35525e-20 0.000926643 0.00510956
0.124113 2.71051e-20 0.000309668 0.0051098
-0.124113 2.71051e-20 0.000309642 0.0138554
-0.124109 -1.35525e-20 0.00153604 0.0138537
0.124109 2.71051e-20 0.00153609 0.00510813
0.124199 0 0.00224856 0.00510765
-0.124199 4.51751e-21 0.00224854 0.0138527
-0.124312 0 5.9528e-09 0.0138608
0.124312 -6.77626e-21 5.95239e-09 0.00511467
-0.124316 0 0.000101998 0.0138609
0.124316 0 0.000102006 0.00511478
-0.124351 0 0.00253113 0.0138587
0.124352 0 0.00253117 0.00511279
-0.124411 -4.51751e-21 0.000610848 0.0138637
0.124411 4.51751e-21 0.000610898 0.00511707
0.124413 -1.35525e-20 7.80603e-09 0.0051172
-0.124413 0 7.80623e-09 0.0138635
-0.124412 -3.16226e-21 0.00125277 0.0138635
0.124412 -1.35525e-21 0.00125284 0.00511672
-0.124428 -1.807e-21 0.00188222 0.013864
0.124428 9.03502e-22 0.00188226 0.00511704
-0.124454 -4.23516e-22 0.00253417 0.0138616
0.12446 0 0.00253424 0.00511542
0.124507 -6.77626e-21 9.76902e-05 0.00511947
-0.124507 -6.77626e-21 9.76851e-05 0.0138661
0.12451 0 6.4083e-09 0.00511958
-0.12451 6.77626e-21 6.40846e-09 0.0138662
0.124715 -1.35525e-20 0.000308871 0.00512462
-0.124715 0 0.000308852 0.0138718
-0.124717 4.06576e-20 0.00092527 0.0138722
0.124717 -1.35525e-20 0.000925313 0.00512459
-0.124722 -2.71051e-20 0.00152785 0.0138727
0.124722 0 0.00152789 0.00512464
-0.12474 0 0.00225265 0.0138727
0.12474 2.25875e-21 0.00225267 0.00512468
-0.124928 6.77626e-21 4.52659e-09 0.0138777
0.124928 -6.77626e-21 4.52646e-09 0.00512977
0.124931 0 8.62013e-05 0.00512984
-0.124931 6.77626e-21 8.61959e-05 0.0138778
0.125013 0 3.37598e-09 0.00513183
-0.125013 0 3.37608e-09 0.0138801
0.125015 -4.51751e-21 0.000609995 0.0051318
-0.125015 1.12938e-21 0.000609967 0.0138802
-0.124994 3.38813e-21 0.00256083 0.01388
0.124994 0 0.00256083 0.005131
-0.12502 1.58113e-21 0.00124401 0.0138808
0.12502 2.48463e-21 0.00124405 0.00513192
-0.125004 0 0.00254316 0.0138803
0.125004 0 0.00254316 0.00513126
-0.125027 3.16226e-21 0.0018792 0.0138812
0.125027 -2.71051e-21 0.00187923 0.00513207
-0.12503 3.38813e-21 0.00250699 0.013881
0.12503 -3.38813e-21 0.002507 0.0051319
-0.125029 -3.38813e-21 0.00256248 0.013881
0.125029 0 0.00256247 0.00513188
0.125057 0 0.00254379 0.00513258
-0.125058 0 0.00254379 0.0138818
0.125089 0 7.79237e-05 0.00513362
-0.125089 6.77626e-21 7.7922e-05 0.0138822
0.125091 0 3.20057e-09 0.00513369
-0.125091 -1.35525e-20 3.20067e-09 0.0138822
0.12507 3.38813e-21 0.00256435 0.00513289
-0.12507 0 0.00256435 0.0138822
-0.125318 0 0.000307701 0.0138885
0.125318 2.71051e-20 0.000307692 0.00513911
0.125323 0 0.000922882 0.00513932
-0.125323 0 0.000922865 0.013889
-0.125326 2.71051e-20 0.00152712 0.0138894
0.125326 0 0.00152713 0.00513935
-0.125333 -2.25875e-21 0.00226101 0.0138896
0.125333 -6.77626e-21 0.00226101 0.00513944
-0.125563 6.77626e-21 1.13573e-09 0.0138954
0.125563 6.77626e-21 1.13563e-09 0.00514508
-0.125566 0 5.45783e-05 0.0138954
0.125566 -6.77626e-21 5.4579e-05 0.00514512
-0.125551 -6.77626e-21 0.00258658 0.0138957
0.125551 -6.77626e-21 0.00258658 0.00514474
-0.125572 -6.77626e-21 0.0025497 0.0138963
0.125572 6.77626e-21 0.0025497 0.00514528
-0.125618 0 9.99745e-10 0.0138969
0.125618 0 9.99651e-10 0.00514638
0.125621 1.12938e-21 0.00060893 0.00514645
-0.125621 -1.69407e-21 0.000608925 0.0138971
-0.12563 4.51751e-22 0.00188213 0.0138979
0.12563 3.16226e-21 0.00188214 0.00514668
0.125641 -1.8823e-22 0.00122765 0.00514743
-0.125641 5.17631e-22 0.00122764 0.0138986
-0.125626 0 0.00247651 0.0138978
0.125626 0 0.00247652 0.00514653
0.125624 6.77626e-21 0.00258997 0.00514651
-0.125624 0 0.00258997 0.0138978
0.125665 0 4.82049e-05 0.00514751
-0.125665 0 4.82067e-05 0.0138982
0.125666 6.77626e-21 3.71959e-10 0.00514754
-0.125666 6.77626e-21 3.72055e-10 0.0138983
0.125682 6.77626e-21 0.00255094 0.00514792
-0.125682 6.77626e-21 0.00255093 0.0138994
0.125708 -6.77626e-21 0.00259387 0.00514857
-0.125708 -6.77626e-21 0.00259387 0.0139001
-0.125766 1.35525e-20 0.00226798 0.0139016
0.125766 1.35525e-20 0.00226799 0.00514992
-0.125924 0 0.000307115 0.0139055
0.125924 -2.71051e-20 0.000307127 0.00515373
0.125929 -2.71051e-20 0.000921475 0.00515398
-0.125929 -2.71051e-20 0.000921486 0.013906
-0.125931 -2.71051e-20 0.00152925 0.0139063
0.125931 2.71051e-20 0.00152925 0.00515397
-0.12593 6.77626e-21 0.00227153 0.0139062
0.12593 0 0.00227153 0.0051539
-0.126113 6.77626e-21 0.00261254 0.0139114
0.126113 -6.77626e-21 0.00261254 0.00515833
-0.126147 1.35525e-20 0.00255527 0.0139123
0.126147 -1.35525e-20 0.00255528 0.00515915
-0.12621 0 -2.76942e-09 0.0139135
0.12621 0 -2.76959e-09 0.00516062
-0.126211 0 1.46893e-05 0.0139135
0.126211 0 1.46869e-05 0.00516063
-0.126225 1.69407e-21 -2.94615e-09 0.0139139
0.126225 0 -2.94631e-09 0.00516097
0.126237 -1.69407e-21 1.28088e-05 0.00516127
-0.126237 0 1.28117e-05 0.0139143
0.126238 -1.69407e-21 -2.95873e-09 0.00516128
-0.126238 0 -2.95857e-09 0.0139143
0.126238 -2.82344e-22 0.000619266 0.00516137
-0.126238 0 0.000619298 0.0139145
-0.126235 5.64689e-22 0.00122346 0.0139146
0.126235 2.82344e-22 0.00122343 0.00516124
0.126226 -1.35525e-20 0.00227599 0.00516092
-0.126226 -6.77626e-21 0.00227599 0.0139144
-0.126236 7.22801e-21 0.00188697 0.0139147
0.126236 -9.03502e-22 0.00188696 0.00516113
-0.126226 0 0.00261776 0.0139145
0.126226 0 0.00261777 0.00516102
-0.126229 0 0.00244352 0.0139145
0.126229 0 0.00244352 0.00516104
0.126315 0 0.00255712 0.00516315
-0.126315 0 0.00255712 0.013917
0.126356 6.77626e-21 0.00262376 0.00516415
-0.126356 0 0.00262375 0.0139181
0.126428 -1.69407e-21 -3.96826e-09 0.00516581
-0.126428 1.69407e-21 -3.96825e-09 0.0139196
0.126532 -2.71051e-20 0.000306588 0.00516828
-0.126532 0 0.000306607 0.0139225
0.126537 -2.71051e-20 0.000920861 0.00516854
-0.126537 0 0.000920906 0.013923
-0.126538 2.71051e-20 0.00153271 0.0139232
0.126538 0 0.00153267 0.00516843
-0.126534 -6.77626e-21 0.00228266 0.0139229
0.126534 0 0.00228265 0.00516829
-0.126678 -6.77626e-21 0.00263866 0.0139271
0.126678 -1.35525e-20 0.00263866 0.00517184
-0.126725 -1.35525e-20 0.00256107 0.0139284
0.126725 1.35525e-20 0.00256107 0.00517292
0.12681 0 -2.33736e-09 0.00517489
-0.12681 0 -2.33751e-09 0.0139302
0.12681 0 2.38797e-05 0.00517489
-0.12681 0 2.38782e-05 0.0139302
-0.126834 -3.38813e-21 -2.28167e-09 0.0139309
0.126834 3.38813e-21 -2.28152e-09 0.00517546
-0.126841 -5.64689e-22 0.000608425 0.0139312
0.126841 -5.64689e-22 0.000608368 0.00517564
-0.126845 -1.12938e-21 0.00122627 0.0139315
0.126845 2.25875e-21 0.0012262 0.00517568
0.126835 1.12938e-21 0.00228348 0.00517539
-0.126835 -1.12938e-21 0.0022835 0.0139313
-0.126844 0 0.00186227 0.0139314
0.126844 2.25875e-21 0.00186223 0.0051755
0.12683 -1.35525e-20 0.00264569 0.00517544
-0.12683 2.71051e-20 0.00264569 0.0139314
-0.126861 3.38813e-21 2.66631e-05 0.0139316
-0.126861 0 -2.23719e-09 0.0139316
0.126861 -3.38813e-21 2.66635e-05 0.0051761
0.126861 3.38813e-21 -2.23703e-09 0.00517611
-0.126948 0 0.00256381 0.0139346
0.126948 0 0.00256381 0.00517823
0.127003 0 0.00265368 0.00517958
-0.127003 0 0.00265368 0.0139362
0.127141 2.71051e-20 0.000306506 0.00518267
-0.127141 0 0.000306542 0.0139393
0.127145 0 0.000920575 0.00518292
-0.127145 -2.71051e-20 0.000920659 0.0139399
-0.127146 2.71051e-20 0.00153687 0.0139399
0.127146 -2.71051e-20 0.0015368 0.00518272
-0.127142 -1.35525e-20 0.00217837 0.0139396
0.127142 -1.35525e-20 0.00217834 0.00518252
-0.127139 2.71051e-20 0.00241072 0.0139398
0.127139 -1.35525e-20 0.00241071 0.00518268
-0.127248 0 0.00266497 0.0139429
0.127248 2.03288e-20 0.00266497 0.00518537
0.127307 0 0.0025681 0.0051867
-0.127307 -1.35525e-20 0.0025681 0.0139445
0.127382 -6.77626e-21 -8.22232e-10 0.0051884
-0.127382 -6.77626e-21 -8.22387e-10 0.0139461
0.127384 0 5.89438e-05 0.00518841
-0.127384 6.77626e-21 5.89471e-05 0.0139461
-0.127443 -6.77626e-21 -7.3248e-10 0.0139478
0.127443 0 -7.3232e-10 0.0051898
-0.127452 2.25875e-21 0.000608325 0.013948
0.127452 4.51751e-21 0.000608231 0.00518995
-0.127454 -4.51751e-21 0.00122918 0.0139482
0.127454 -2.25875e-21 0.00122906 0.00518991
-0.127443 4.51751e-21 0.00229674 0.013948
0.127443 0 0.00229672 0.00518969
0.127436 0 0.00267368 0.00518979
-0.127436 0 0.00267368 0.0139482
-0.127451 -6.77626e-21 0.00186218 0.0139481
0.127451 0 0.00186211 0.00518971
-0.12751 -6.77626e-21 6.55645e-05 0.0139496
0.12751 0 6.55581e-05 0.00519135
-0.127511 6.77626e-21 -6.2388e-10 0.0139496
0.127511 0 -6.23725e-10 0.00519137
-0.127581 0 0.00257233 0.0139521
0.127581 -2.71051e-20 0.00257232 0.00519317
0.127647 0 0.00268344 0.00519482
-0.127647 -6.77626e-21 0.00268344 0.0139541
0.127753 0 0.000306321 0.00519697
-0.127753 0 0.00030637 0.0139562
-0.127757 0 0.000920829 0.0139565
0.127757 5.42101e-20 0.000920718 0.00519704
-0.12775 0 0.00217613 0.0139564
0.12775 -1.35525e-20 0.00217609 0.00519674
-0.127824 -6.77626e-21 0.00269159 0.013959
0.127824 -6.77626e-21 0.00269159 0.00519897
0.127847 0 0.00165024 0.00519902
-0.127847 0 0.00165034 0.0139591
0.127834 0 0.00252191 0.00519873
-0.127834 2.71051e-20 0.00252192 0.0139587
0.127964 1.35525e-20 6.78512e-10 0.00520188
-0.127964 -1.35525e-20 6.78492e-10 0.0139621
0.127967 -1.35525e-20 9.08787e-05 0.00520191
-0.127967 0 9.08904e-05 0.0139621
-0.128058 -1.35525e-20 8.15259e-10 0.0139646
0.128058 -1.35525e-20 8.15271e-10 0.00520404
-0.12807 9.03502e-21 0.000608453 0.0139649