# U  POINT_DATA 14024
# x  y  z  U_x  U_y  U_z
0 0.0100383 9.88059e-08 0 0 0
0 -0.0100383 9.88059e-08 0 0 0
-6.77626e-21 0.0100383 0.000270318 0 0 0
-3.38813e-20 -0.0100383 0.000270355 0 0 0
0 0.0100383 0.000399158 0 0 0
-6.77626e-21 -0.0100383 0.000399216 0 0 0
0 0.0100383 0.000671987 0 0 0
0 -0.0100383 0.000672082 0 0 0
0 0.0100383 0.000954688 0 0 0
1.35525e-20 -0.0100383 0.000954778 0 0 0
2.71051e-20 0.0100383 0.00108461 0 0 0
-1.35525e-20 -0.0100383 0.00108472 0 0 0
0 0.0100383 0.00136726 0 0 0
0 -0.0100383 0.00136736 0 0 0
-2.03288e-20 0.0100382 0.00165828 0 0 0
6.77626e-21 -0.0100382 0.00165833 0 0 0
0 0.0100382 0.00179903 0 0 0
-1.35525e-20 -0.0100382 0.00179907 0 0 0
1.35525e-20 -0.0102118 8.66105e-08 0 0 0
0 0.0102118 8.66107e-08 0 0 0
-1.807e-20 0.0102382 0.000331506 -0.00180107 0.000157342 -7.78965e-06
0 -0.0102382 0.000331549 9.39914e-06 -4.16308e-06 -3.82061e-06
-2.71051e-20 0.0100382 0.002087 0 0 0
2.71051e-20 -0.0100382 0.002087 0 0 0
-4.51751e-21 0.0102243 0.000990461 -0.00366691 0.000347373 -0.000104012
0 -0.0102243 0.000990555 0.00146709 -0.000177028 1.52968e-05
0 0.0102083 0.00163603 -0.00322191 0.000320194 -6.90694e-05
0 -0.0102083 0.00163609 0.00136741 -0.000167811 -7.49646e-06
-1.35525e-20 -0.0102224 0.00218426 0 0 0
2.71051e-20 0.0102224 0.00218426 0 0 0
0 0.010458 6.24978e-08 0 0 0
-2.71051e-20 -0.010458 6.24966e-08 0 0 0
-1.35525e-20 0.0104623 0.000144468 -0.00115034 9.95921e-05 -4.44974e-06
0 -0.0104623 0.000144482 5.93126e-06 -2.8934e-06 -2.74522e-06
2.25875e-21 0.0105577 0.000633897 -0.00637932 0.000503611 -7.27642e-05
-4.51751e-21 -0.0105577 0.000633982 0.00220625 -0.000184163 9.42246e-07
1.35525e-20 0.01058 5.25664e-08 0 0 0
1.35525e-20 -0.01058 5.25657e-08 0 0 0
1.35525e-20 0.0104079 0.00203701 -0.00426867 0.000356593 -9.75299e-05
2.71051e-21 -0.0104079 0.00203703 0.00181731 -0.000163434 -4.02394e-05
-2.25875e-21 0.010539 0.0012563 -0.00899027 0.000765711 -8.98594e-05
6.77626e-21 -0.010539 0.00125641 0.00376972 -0.000334574 -7.30283e-07
0 0.0106667 9.98927e-05 -0.00165992 8.41222e-05 -2.12295e-05
-1.35525e-20 -0.0106667 9.99038e-05 0.000534812 -3.24097e-05 6.01933e-07
7.52918e-21 0.0105324 0.00171547 -0.00786152 0.000688335 -8.66662e-05
7.52918e-21 -0.0105324 0.00171555 0.00336912 -0.000309259 -2.09363e-05
0 0.0104246 0.00229102 0 0 0
-1.35525e-20 -0.0104246 0.00229102 0 0 0
0 -0.0106751 3.95308e-08 0 0 0
1.35525e-20 0.0106752 3.95301e-08 0 0 0
0 0.0105566 0.00221564 -0.00259647 0.000209192 -6.16425e-05
1.35525e-20 -0.0105566 0.00221565 0.0011015 -9.62833e-05 -2.5669e-05
1.35525e-20 -0.0105735 0.00236965 0 0 0
1.35525e-20 0.0105735 0.00236965 0 0 0
0 -0.0108504 0.000315325 0.0016338 -0.00010781 2.57089e-06
0 0.0108504 0.000315285 -0.00521582 0.000304576 -5.0503e-05
2.71051e-20 0.0108348 0.000932849 -0.0128078 0.000981124 -8.18295e-05
-2.71051e-20 -0.0108348 0.000932939 0.00530312 -0.000383978 -8.06064e-06
-2.71051e-20 0.0108178 0.0015192 -0.0137372 0.00112888 -2.98753e-05
0 -0.0108178 0.00151928 0.00591592 -0.000472199 3.32641e-06
-1.35525e-20 -0.0106814 0.00242665 0 0 0
1.35525e-20 0.0106814 0.00242665 0 0 0
0 -0.0107334 0.002339 0.00130018 -0.000128571 4.61818e-07
1.35525e-20 0.0107334 0.00233899 -0.00292319 0.000289261 4.69533e-06
-6.77626e-21 -0.0110782 8.04033e-09 0 0 0
0 0.0110782 8.03996e-09 0 0 0
0 -0.0110788 6.39066e-05 0.000342204 -2.07377e-05 3.85152e-07
6.77626e-21 0.0110788 6.38974e-05 -0.00106208 5.38246e-05 -1.35835e-05
0 -0.0111402 -5.0826e-11 0 0 0
0 0.0111402 -5.09721e-11 0 0 0
-1.12938e-21 0.0111346 0.0006105 -0.0107184 0.000880661 -3.29453e-05
-2.25875e-21 -0.0111346 0.000610587 0.00437068 -0.000355719 2.28232e-06
1.12938e-21 0.0111195 0.00122922 -0.0167107 0.00146677 -1.10788e-05
-2.25875e-21 -0.0111195 0.00122932 0.00714531 -0.000607786 6.22388e-06
0 0.0110331 0.00190695 -0.0130409 0.00119533 4.57337e-06
-1.807e-21 -0.0110331 0.00190701 0.00568478 -0.000510672 1.50048e-06
0 0.0111969 4.05707e-11 0 0 0
0 -0.0111969 4.06969e-11 0 0 0
0 0.011197 5.94825e-05 -0.00130601 0.00010843 -3.35425e-06
0 -0.011197 5.94923e-05 0.000544129 -4.79174e-05 1.01768e-06
2.71051e-20 0.0109687 0.00229798 -0.00707456 0.000700186 9.9699e-06
0 -0.0109687 0.002298 0.00315057 -0.000310796 -1.5222e-08
0 0.0109784 0.0025835 0 0 0
1.35525e-20 -0.0109784 0.0025835 0 0 0
0 0.0110322 0.00252115 -0.00230411 0.000228001 3.70095e-06
-1.35525e-20 -0.0110322 0.00252116 0.0010248 -0.000101339 3.64004e-07
-1.35525e-20 -0.0110647 0.00262905 0 0 0
1.35525e-20 0.0110647 0.00262905 0 0 0
0 -0.0114329 0.000303637 0.00275306 -0.000238346 5.64203e-06
-2.71051e-20 0.0114329 0.000303602 -0.00660772 0.000564464 -9.94891e-06
0 -0.0111379 0.00266759 0 0 0
0 0.0111379 0.00266759 0 0 0
0 -0.0111676 0.0026113 0.0010085 -8.96296e-05 -2.1248e-06
1.35525e-20 0.0111676 0.0026113 -0.00229462 0.000205154 -3.99941e-06
-2.71051e-20 0.0114367 0.000916218 -0.0184198 0.00168118 6.25415e-06
-2.71051e-20 -0.0114367 0.000916296 0.00787785 -0.00069561 8.10478e-06
6.02335e-21 0.011273 0.00233142 -0.0106861 0.000998888 3.35082e-05
-1.50584e-21 -0.011273 0.00233144 0.0047215 -0.000429922 8.62795e-06
-2.71051e-20 0.0114108 0.00155884 -0.0219084 0.00207705 6.11083e-05
-2.71051e-20 -0.0114108 0.00155891 0.00949717 -0.0008786 2.17419e-05
0 0.0114547 0.00210257 -0.0176661 0.00164769 0.000109923
-2.71051e-20 -0.0114548 0.00210261 0.00779831 -0.000694559 3.50328e-05
0 -0.0116763 1.11166e-09 0 0 0
0 0.0116763 1.11171e-09 0 0 0
0 -0.0116771 3.85435e-05 0.000352518 -3.10435e-05 6.59311e-07
0 0.0116771 3.8534e-05 -0.000846036 7.02411e-05 -2.17289e-06
-2.71051e-20 0.011407 0.00257358 -0.00746927 0.00066233 -1.83557e-05
-2.71051e-20 -0.011407 0.00257359 0.00328298 -0.000290517 -8.77018e-06
0 -0.0117135 1.17278e-09 0 0 0
-6.77626e-21 0.0117135 1.17283e-09 0 0 0
-6.77626e-21 0.0117497 1.11165e-09 0 0 0
6.77626e-21 -0.0117497 1.11158e-09 0 0 0
0 0.0117514 3.59557e-05 -0.000919559 8.48246e-05 -1.69969e-06
0 -0.0117514 3.59627e-05 0.000402866 -3.42693e-05 2.7516e-07
-1.12938e-21 0.0117364 0.000596544 -0.0136955 0.00126105 -1.72176e-06
-1.69407e-21 -0.0117364 0.000596601 0.00593153 -0.000521546 7.73575e-06
-5.64689e-22 0.0117435 0.00122269 -0.0231093 0.00218046 3.71483e-05
5.64689e-22 -0.0117435 0.00122276 0.0101279 -0.000918925 1.73455e-05
6.77626e-21 0.0114702 0.00284265 0 0 0
-6.77626e-21 -0.0114702 0.00284265 0 0 0
-6.77626e-21 0.0114996 0.00279927 -0.0018763 0.000167754 -3.27031e-06
-6.77626e-21 -0.0114996 0.00279927 0.000824658 -7.32907e-05 -1.73747e-06
0 0.0115305 0.00287442 0 0 0
0 -0.0115305 0.00287442 0 0 0
3.38813e-21 0.0117521 0.00184882 -0.0236381 0.00224263 8.04198e-05
0 -0.0117521 0.00184887 0.0105103 -0.000958669 2.69918e-05
-1.35525e-20 -0.011585 0.00290382 0 0 0
6.77626e-21 0.011585 0.00290383 0 0 0
-5.64689e-21 0.0117097 0.00240795 -0.0154582 0.00147766 6.95776e-05
4.51751e-21 -0.0117097 0.00240797 0.00691117 -0.000639727 1.96401e-05
0 -0.01162 0.00284239 0.00125595 -0.000132925 8.6531e-06
0 0.01162 0.00284239 -0.00282024 0.000291974 3.2408e-05
0 -0.0120252 0.000293165 0.00326449 -0.000275126 1.98289e-06
0 0.0120252 0.000293146 -0.00744483 0.000685015 -1.38322e-05
2.71051e-20 0.0120563 0.000895205 -0.0226287 0.00214284 1.07213e-05
2.71051e-20 -0.0120563 0.000895248 0.00996937 -0.000889715 1.53847e-05
-2.71051e-20 0.0120785 0.0015256 -0.0295437 0.00282859 7.20461e-05
2.71051e-20 -0.0120785 0.00152564 0.0131954 -0.00121556 2.47726e-05
2.71051e-20 0.0119134 0.00273995 -0.0118834 0.00124152 0.000117079
-2.71051e-20 -0.0119134 0.00273996 0.00529763 -0.000552257 2.86953e-05
-2.71051e-20 0.0120751 0.00217652 -0.0260965 0.00248401 7.68535e-05
0 -0.0120751 0.00217654 0.0118534 -0.00107541 2.63752e-05
-3.38813e-21 -0.0122802 1.16251e-10 0 0 0
-3.38813e-21 0.0122802 1.16247e-10 0 0 0
0 -0.0122814 2.10156e-05 0.00023543 -2.00265e-05 1.608e-07
-3.38813e-21 0.0122814 2.10087e-05 -0.000537306 4.95637e-05 -9.93145e-07
3.38813e-21 -0.0123014 8.01245e-11 0 0 0
3.38813e-21 0.0123014 8.01301e-11 0 0 0
-3.38813e-21 0.012322 7.76986e-11 0 0 0
0 -0.012322 7.76925e-11 0 0 0
0 0.0123232 1.85971e-05 -0.000524227 5.53932e-05 -2.57183e-06
-3.38813e-21 -0.0123232 1.86029e-05 0.000234901 -2.12222e-05 -2.69285e-07
0 0.01193 0.00308971 0 0 0
0 -0.01193 0.00308971 0 0 0
6.77626e-21 0.0119644 0.0030398 -0.00240404 0.000248886 2.76254e-05
6.77626e-21 -0.0119644 0.0030398 0.00107057 -0.000113305 7.3759e-06
-1.12938e-21 0.0123483 0.000568672 -0.0155578 0.00149823 -6.89765e-06
0 -0.0123483 0.000568694 0.00696194 -0.000619991 1.02047e-05
0 -0.0119766 0.00311487 0 0 0
6.77626e-21 0.0119766 0.00311487 0 0 0
0 -0.0120209 0.00313842 0 0 0
0 0.0120209 0.00313842 0 0 0
-1.35525e-20 -0.0120441 0.00309412 0.00102115 -0.000119839 1.25586e-05
6.77626e-21 0.0120441 0.00309412 -0.00214586 0.000266389 3.79981e-05
1.12938e-21 0.012391 0.00118191 -0.0282633 0.00273898 4.45024e-05
1.69407e-21 -0.012391 0.00118194 0.0128282 -0.00118094 2.46256e-05
5.64689e-22 0.0124059 0.00184694 -0.0318579 0.00308257 0.000104345
-1.12938e-21 -0.0124059 0.00184696 0.0147344 -0.00135819 3.46685e-05
2.71051e-20 0.0126198 0.000269535 -0.00755547 0.000782659 -3.72246e-05
2.71051e-20 -0.0126198 0.000269545 0.00339052 -0.000303081 -4.24954e-06
1.807e-21 0.0123629 0.00258809 -0.0216907 0.00218655 0.000159898
9.03502e-22 -0.0123629 0.00258809 0.0102329 -0.000970536 5.23682e-05
2.71051e-20 -0.012324 0.00300712 0.0052312 -0.000579109 5.18788e-05
2.71051e-20 0.012324 0.00300712 -0.0109664 0.00132451 0.00017479
0 0.0126818 0.000839769 -0.0250526 0.00242301 1.42376e-05
0 -0.0126819 0.000839778 0.0114226 -0.0010298 2.84188e-05
0 -0.0123691 0.00332403 0 0 0
6.77626e-21 0.0123692 0.00332402 0 0 0
2.71051e-20 0.0127333 0.00147339 -0.0359258 0.00357074 8.21767e-05
0 -0.0127333 0.0014734 0.0167683 -0.00159301 3.01379e-05
6.77626e-21 -0.0123952 0.00328327 0.000984342 -0.000115519 1.21059e-05
6.77626e-21 0.0123952 0.00328326 -0.00206884 0.000256828 3.66343e-05
-6.77626e-21 -0.0124114 0.00334656 0 0 0
0 0.0124115 0.00334656 0 0 0
0 -0.0128908 5.71212e-06 5.04892e-05 -4.56148e-06 -5.78798e-08
0 0.0128903 3.97342e-12 -0.00011258 1.18959e-05 -5.52312e-07
0 -0.0128967 3.22163e-12 0 0 0
8.47033e-22 0.0128967 3.22196e-12 0 0 0
0 -0.0124524 0.00336833 0 0 0
0 0.0124525 0.00336833 0 0 0
0 0.0129024 4.47165e-06 -9.84607e-05 9.7535e-06 -1.41466e-06
0 -0.0129024 4.47647e-06 4.10693e-05 -3.70104e-06 -3.11668e-07
-6.77626e-21 -0.0124699 0.00333453 0.000898357 -0.000112967 2.62353e-05
6.77626e-21 0.01247 0.00333453 -0.00182352 0.000256019 6.66974e-05
0 0.0127306 0.0021762 -0.0360574 0.00347017 0.000185503
2.71051e-20 -0.0127306 0.00217621 0.0172167 -0.00155999 5.73659e-05
0 0.0129435 0.000502357 -0.0154352 0.00153512 -4.59044e-05
0 -0.0129436 0.000502359 0.00708755 -0.000649369 4.18918e-07
-3.89635e-20 0.0129444 0.000510125 -0.0155759 0.00154855 -4.60476e-05
1.69407e-21 -0.0129526 0.000508428 0.00715325 -0.00065559 4.96298e-07
0 -0.0126107 0.00303067 0.0075885 -0.000765619 7.96827e-05
-2.25875e-21 0.0126107 0.00303067 -0.0155659 0.00173604 0.000229995
0 0.0127835 0.00277774 -0.0259395 0.0026273 0.000246679
0 -0.0127835 0.00277774 0.0127354 -0.00118432 9.87107e-05
-1.97641e-22 -0.0130621 0.00107673 0.014636 -0.00137332 1.77538e-05
1.41172e-22 0.0130621 0.00107673 -0.0306625 0.00304708 1.52429e-05
-2.71051e-20 -0.0127348 0.00327342 0.00505361 -0.00055885 9.25381e-05
-2.71051e-20 0.0127349 0.00327342 -0.0103064 0.00130949 0.000275604
0 0.0131536 0.000461241 -0.0146372 0.00147962 -5.75045e-05
0 -0.0131537 0.000461237 0.00675953 -0.00062884 -4.32686e-06
0 0.0131765 0.000218763 -0.00639118 0.00061529 -8.88607e-05
2.71051e-20 -0.0131765 0.000218756 0.002752 -0.000241865 -1.95255e-05
4.23516e-22 0.0131833 1.68074e-12 0 0 0
0 -0.0131834 1.67988e-12 0 0 0
8.47033e-22 0.013081 0.00177272 -0.0393115 0.00384297 0.000106069
-1.12938e-21 -0.013081 0.00177273 0.019247 -0.00178444 3.07498e-05
0 0.0127833 0.00354412 0 0 0
0 -0.0127833 0.00354413 0 0 0
-1.35525e-20 0.0128061 0.00351006 -0.00195506 0.000274488 7.15088e-05
0 -0.0128061 0.00351007 0.0009633 -0.000121134 2.81319e-05
5.64689e-22 0.0130749 0.00248236 -0.0357999 0.00348241 0.000173195
0 -0.0130749 0.00248236 0.0179282 -0.00163256 4.85253e-05
6.77626e-21 0.0128267 0.00356714 0 0 0
6.77626e-21 -0.0128267 0.00356715 0 0 0
0 0.0132939 0.000722069 -0.0241279 0.00245487 -6.7436e-05
0 -0.0132939 0.000722074 0.0114365 -0.00108323 -4.61418e-07
1.35525e-20 -0.0128705 0.00359021 0 0 0
6.77626e-21 0.0128705 0.0035902 0 0 0
0 -0.0129024 0.00352957 0.00183989 -0.000135515 3.94954e-05
0 0.0129024 0.00352956 -0.00353348 0.000281407 0.00010175
0 -0.0130201 0.00308568 0.0110373 -0.00100862 9.08804e-05
-1.12938e-21 0.0130201 0.00308568 -0.0217735 0.00216272 0.000275421
0 -0.0133991 0.000404506 0.00624477 -0.000592536 -1.02848e-05
0 0.0133991 0.000404507 -0.013424 0.0013872 -7.16373e-05
0 0.013401 0.000412597 -0.0135798 0.00140437 -7.11841e-05
6.77626e-21 -0.013401 0.000412597 0.00632085 -0.000600121 -1.0034e-05
8.47033e-22 0.0134864 4.8798e-06 -0.000106403 9.94709e-06 -1.43003e-06
0 -0.0134865 4.88093e-06 4.73118e-05 -4.05925e-06 -3.13788e-07
-8.47033e-22 0.0134935 6.35544e-15 0 0 0
0 -0.0134936 6.33962e-15 0 0 0
-2.71051e-20 0.0134291 0.0013211 -0.0394523 0.00392019 5.97209e-05
0 -0.0134291 0.0013211 0.0196458 -0.00185832 2.1391e-05
8.47033e-22 0.0134987 6.99577e-06 -0.0002424 2.66974e-05 -1.16701e-06
0 -0.0134988 6.99782e-06 0.000113555 -1.10923e-05 -1.2748e-07
0 0.0135005 6.30778e-15 0 0 0
0 -0.0135006 6.29213e-15 0 0 0
-2.71051e-20 0.0134156 0.00209107 -0.0455393 0.00438766 9.8287e-05
0 -0.0134156 0.00209107 0.023232 -0.00211641 1.54882e-05
0 0.0131946 0.003407 -0.0161386 0.00136396 0.000416858
2.71051e-20 -0.0131946 0.00340701 0.00831984 -0.000663355 0.000149728
2.71051e-20 -0.0133762 0.00281985 0.0192408 -0.00173378 1.76424e-05
0 0.0133762 0.00281985 -0.0370023 0.00356639 0.000152623
0 0.0131542 0.00373938 0 0 0
0 -0.0131543 0.00373939 0 0 0
1.35525e-20 0.0132115 0.00367304 -0.00440091 0.000350489 0.000126728
0 -0.0132115 0.00367305 0.0022916 -0.000168785 4.9192e-05
0 0.0137224 0.000302331 -0.0105454 0.00117876 -5.65017e-05
-2.71051e-20 -0.0137225 0.000302334 0.00493616 -0.000491669 -9.69505e-06
0 0.0132141 0.00377084 0 0 0
0 -0.0132141 0.00377085 0 0 0
-2.25875e-22 0.0137748 0.000790616 -0.0261085 0.00262947 -6.13279e-05
-2.82344e-22 -0.0137748 0.000790615 0.0130793 -0.0012256 -8.8408e-06
0 0.0132699 0.00380392 0 0 0
0 -0.0132699 0.00380392 0 0 0
0 0.0133033 0.0037381 -0.00418837 0.000322041 0.000101844
1.35525e-20 -0.0133033 0.0037381 0.00227955 -0.000186942 4.41869e-05
-6.35275e-22 0.013766 0.00148261 -0.0412703 0.00401323 1.38308e-05
-2.11758e-22 -0.013766 0.00148308 0.0214612 -0.00197021 8.30708e-06
-6.56451e-21 0.0137616 0.00166834 -0.0453811 0.00438834 3.42646e-05
-2.11758e-22 -0.0137654 0.0016726 0.0237266 -0.00217141 1.29794e-05
-1.12938e-21 0.0137168 0.00245604 -0.0462299 0.00442254 0.00012802
-2.82344e-22 -0.0137168 0.00245604 0.0248159 -0.00223583 3.64432e-05
-9.03502e-22 0.0136289 0.00324654 -0.0293931 0.00275381 0.000239115
-4.51751e-22 -0.0136289 0.00324654 0.0161093 -0.00143578 7.80277e-05
-2.71051e-20 0.0135494 0.00365539 -0.0152444 0.00128548 0.000322198
-2.71051e-20 -0.0135494 0.00365539 0.00828625 -0.000723771 0.00012386
1.69407e-21 0.0140721 1.55614e-05 -0.000539194 5.93858e-05 -2.5959e-06
1.69407e-21 -0.0140722 1.55723e-05 0.000252695 -2.46839e-05 -2.83683e-07
0 0.0140756 -2.0176e-16 0 0 0
-1.69407e-21 -0.0140757 -2.01911e-16 0 0 0
3.38813e-21 0.0140911 -3.05359e-16 0 0 0
0 -0.0140912 -3.0516e-16 0 0 0
1.69407e-21 0.0141007 2.2037e-05 -0.000831831 8.6993e-05 -6.64317e-06
0 -0.0141008 2.20527e-05 0.000422131 -3.77635e-05 -9.47385e-07
0 0.0141074 -2.98024e-16 0 0 0
1.69407e-21 -0.0141076 -2.97827e-16 0 0 0
0 -0.0135544 0.00397426 0 0 0
0 0.0135544 0.00397427 0 0 0
0 -0.0140341 0.00165404 0.0256587 -0.00234196 1.83638e-05
-2.11758e-22 0.0140348 0.001654 -0.0475124 0.00457939 1.02577e-05
-6.77626e-21 -0.0135849 0.0039369 0.00147868 -0.000121264 2.86628e-05
0 0.0135849 0.00393691 -0.00271641 0.000208863 6.60518e-05
0 -0.0135876 0.00399408 0 0 0
6.77626e-21 0.0135876 0.00399409 0 0 0
-2.71051e-20 0.0141246 0.00121981 -0.0426011 0.00412895 -9.47872e-05
0 -0.0141246 0.00121981 0.0224424 -0.00207793 -2.29785e-05
6.77626e-21 0.0136161 0.00401528 0 0 0
0 -0.0136161 0.00401529 0 0 0
0 0.013638 0.00398927 -0.00194765 0.000159449 -3.51559e-06
-6.77626e-21 -0.013638 0.00398927 0.00110481 -8.55821e-05 -1.76894e-06
-2.71051e-20 0.0140719 0.00204106 -0.0536014 0.00508524 6.34861e-05
5.42101e-20 -0.0140719 0.00204106 0.0293841 -0.00261731 3.39772e-05
2.71051e-20 0.0142772 0.000421917 -0.016023 0.00167318 -0.000141728
0 -0.0142772 0.000421919 0.00813961 -0.000724792 -3.17702e-05
0 0.0140129 0.00281709 -0.0491227 0.00468125 0.000191243
2.71051e-20 -0.0140129 0.00281709 0.0276143 -0.00249171 7.69213e-05
0 -0.0138313 0.00369716 0.0117282 -0.00105289 5.6908e-05
3.76459e-22 0.0138313 0.00369716 -0.0206899 0.00192799 0.000163253
2.71051e-20 0.0140444 0.00346029 -0.0342203 0.00333631 0.000100716
-2.71051e-20 -0.0140444 0.00346029 0.0197749 -0.00180714 2.01623e-05
0 0.0139247 0.00394753 -0.0136344 0.00126508 6.59311e-05
-2.71051e-20 -0.0139247 0.00394753 0.00774347 -0.000684678 2.75496e-05
-4.23516e-22 -0.0144296 0.00162635 0.0284492 -0.00258876 2.59245e-05
4.23516e-22 0.0144296 0.00162636 -0.050564 0.00485316 -2.54738e-05
-1.05879e-20 -0.0144358 0.00162651 0.0285127 -0.00259392 2.63826e-05
0 0.0144292 0.00163346 -0.0506478 0.00486058 -2.47879e-05
2.11758e-22 0.0144133 0.00187151 -0.0522583 0.00500147 1.77511e-05
2.11758e-22 -0.0144133 0.00187201 0.0297363 -0.00269914 4.57522e-05
3.38813e-21 -0.0139302 0.00424974 0 0 0
0 0.0139302 0.00424974 0 0 0
0 0.0145459 0.000829512 -0.0309535 0.0030428 -0.00011483
-1.41172e-21 -0.0145459 0.000829511 0.016761 -0.00152246 -1.5701e-05
-1.41172e-22 0.0143705 0.00241704 -0.0559219 0.00532216 0.000113916
5.64689e-22 -0.0143705 0.00241704 0.0325114 -0.0029378 8.9525e-05
0 -0.0139467 0.00423388 0.000732735 -5.67598e-05 -1.1732e-06
3.38813e-21 0.0139467 0.00423389 -0.00129147 0.000105729 -2.33116e-06
-3.38813e-21 -0.0139493 0.00426393 0 0 0
0 0.0139493 0.00426393 0 0 0
-3.38813e-21 0.0139672 0.00427742 0 0 0
3.38813e-21 -0.0139673 0.00427743 0 0 0
0 0.0139799 0.00425949 -0.00121928 0.00011837 3.81153e-06
3.38813e-21 -0.0139799 0.00425949 0.000748923 -6.68365e-05 1.64628e-07
-2.82344e-22 0.0143443 0.0031393 -0.0478715 0.00459563 0.000178709
8.47033e-22 -0.0143443 0.0031393 0.0286071 -0.00261217 9.9758e-05
0 -0.0146845 2.60901e-05 0.000499415 -4.46773e-05 -1.12083e-06
0 0.0146845 2.60619e-05 -0.000983758 0.000102882 -7.85649e-06
-3.38813e-21 -0.0146916 -2.56338e-19 0 0 0
-3.38813e-21 0.0146916 -2.5093e-19 0 0 0
0 -0.0147109 8.3978e-18 0 0 0
0 0.0147109 8.40222e-18 0 0 0
0 0.0147271 2.99299e-05 -0.00126236 0.000124702 -2.49984e-06
-3.38813e-21 -0.0147271 2.99641e-05 0.000662883 -5.69634e-05 4.26549e-06
0 0.0147301 8.1741e-18 0 0 0
3.38813e-21 -0.0147302 8.16959e-18 0 0 0
-1.69407e-21 0.0143144 0.00384164 -0.0274945 0.00269196 0.000143918
-5.64689e-22 -0.0143144 0.00384165 0.016877 -0.00156314 7.33606e-05
2.71051e-20 -0.0147153 0.00202632 0.0356018 -0.00322871 9.37943e-05
0 0.0147153 0.00202632 -0.0599807 0.0057125 4.06673e-05
2.71051e-20 -0.0148123 0.00125345 0.0262702 -0.00241915 -2.40759e-06
2.71051e-20 0.0148123 0.00125345 -0.0459941 0.00447754 -0.000109336
-5.42101e-20 0.0142662 0.00421646 -0.0126286 0.00135276 9.75795e-05
0 -0.0142662 0.00421647 0.00777542 -0.000770193 3.34997e-05
0 0.0146941 0.00275223 -0.0605879 0.00577243 0.000160694
2.71051e-20 -0.0146941 0.00275223 0.0371382 -0.0033852 0.000151057
0 -0.0149583 0.000465189 0.0104941 -0.000896113 -4.55686e-06
2.71051e-20 0.0149583 0.000465187 -0.0198911 0.00195249 -0.000109841
0 -0.0143128 0.00453664 0 0 0
0 0.0143129 0.00453665 0 0 0
1.69407e-21 -0.0143174 0.0045308 0.000253245 -2.26005e-05 5.56683e-08
1.69407e-21 0.0143174 0.00453082 -0.000411704 3.9969e-05 1.28701e-06
0 -0.014319 0.00454125 0 0 0
0 0.014319 0.00454125 0 0 0
0 0.0143246 0.00454547 0 0 0
0 -0.0143246 0.00454547 0 0 0
0 0.014329 0.00454047 -0.00039441 4.21637e-05 1.51472e-06
0 -0.014329 0.00454047 0.0002497 -2.42846e-05 1.35491e-07
0 0.0146519 0.00346949 -0.0488982 0.00471596 0.000261426
2.71051e-20 -0.0146519 0.00346949 0.0307727 -0.00284299 0.000155891
0 -0.0145371 0.00427137 0.0121608 -0.00118092 8.69029e-05
-4.23516e-22 0.0145371 0.00427137 -0.0190526 0.00198128 0.000155082
-1.8823e-22 -0.0150759 0.00166227 0.0329339 -0.00300716 7.75905e-05
0 0.0150759 0.00166227 -0.0543826 0.0052375 -2.76881e-05
0 0.0146079 0.0042979 -0.0201195 0.0020647 0.000171449
0 -0.0146083 0.00429801 0.0130403 -0.00124901 9.82871e-05
-5.29396e-22 -0.0150582 0.00232575 0.0391072 -0.00357281 0.000153028
1.05879e-22 0.0150585 0.0023257 -0.0621996 0.00592821 8.42242e-05
0 0.0147146 0.00405696 -0.0323293 0.00318223 0.000205956
0 -0.0147146 0.00405696 0.0209735 -0.00194785 0.000139143
0 -0.0151053 0.00231902 0.0395631 -0.00361669 0.000157424
3.52048e-20 0.0151053 0.00231902 -0.0626302 0.00596976 8.21987e-05
0 0.015093 0.00240332 -0.0623662 0.00594372 9.33623e-05
2.64698e-22 -0.0150929 0.00240387 0.0395136 -0.00361362 0.000161028
1.69407e-21 0.014553 0.00471681 0 0 0
4.23516e-22 -0.0145535 0.00471718 0 0 0
4.23516e-22 0.0149811 0.00311066 -0.0601337 0.00572345 0.000187621
4.23516e-22 -0.0149812 0.00311066 0.0390734 -0.00358521 0.00019087
-9.74088e-21 0.0149807 0.00311889 -0.0601221 0.00572214 0.000187967
0 -0.0149884 0.00311084 0.0390993 -0.00358779 0.000191306
5.42101e-20 0.0146393 0.00452216 -0.012283 0.00141434 0.000161714
0 -0.0146393 0.00452217 0.00778594 -0.000828512 8.83906e-05
0 -0.0153521 2.62975e-05 0.000581769 -4.99931e-05 3.74354e-06
0 0.0153522 2.62884e-05 -0.00110877 0.00010953 -2.19569e-06
0 -0.0153541 1.06036e-19 0 0 0
0 0.0153541 1.06058e-19 0 0 0
5.64689e-22 -0.0153336 0.000981682 0.0214688 -0.00194412 4.13919e-05
-5.64689e-22 0.0153336 0.000981684 -0.0360263 0.00354449 -7.68187e-05
-3.38813e-21 -0.015371 -9.43424e-20 0 0 0
0 0.015371 -9.43934e-20 0 0 0
-3.38813e-21 0.0153889 1.38802e-05 -0.000605279 6.43734e-05 -5.79646e-07
0 -0.0153889 1.38838e-05 0.000351605 -3.14093e-05 1.70239e-06
0 0.0153893 -9.17904e-20 0 0 0
0 -0.0153893 -9.17398e-20 0 0 0
0 0.0146775 0.00480513 -0.000138779 1.29321e-05 4.29633e-06
0 -0.0146713 0.00480158 9.17866e-05 -7.27601e-06 2.44147e-06
0 -0.0149797 0.00377544 0.0314367 -0.00290204 0.000179101
-2.49875e-20 0.0149766 0.00377561 -0.0469792 0.0045153 0.000230306
-6.35275e-22 0.0149779 0.00383376 -0.0450878 0.0043364 0.000232166
8.47033e-22 -0.0149779 0.00383404 0.0301987 -0.00278586 0.000176813
-2.71051e-20 0.0153191 0.00276241 -0.0690319 0.0065425 0.000103173
5.42101e-20 -0.0153191 0.00276241 0.0457755 -0.00422068 0.000215356
2.25875e-22 -0.0149757 0.00442242 0.0174802 -0.00158855 0.000155469
-6.77626e-22 0.0149757 0.00442242 -0.025538 0.00248214 0.000254526
2.71051e-20 0.0152934 0.00343578 -0.0618197 0.00584553 0.000225431
0 -0.0152934 0.00343579 0.0425228 -0.00388646 0.00024098
0 0.0149462 0.00476533 -0.0112713 0.000941245 0.00030309
-2.71051e-20 -0.0149462 0.00476533 0.00774004 -0.000523497 0.000154316
-5.42101e-20 0.0157071 0.00173869 -0.0590991 0.00571319 -2.7359e-06
5.42101e-20 -0.0157071 0.00173869 0.039338 -0.0035934 0.000178222
2.71051e-20 0.0152785 0.00409439 -0.0467519 0.00448888 0.000229356
0 -0.0152785 0.0040944 0.0328083 -0.00305167 0.000184824
0 0.014998 0.00505066 0 0 0
0 -0.014998 0.00505067 0 0 0
0 0.0150083 0.00502928 -0.00131587 8.90332e-05 4.9146e-05
0 -0.0150083 0.00502931 0.000904294 -4.61196e-05 2.65784e-05
-8.68209e-21 -0.01566 0.00240905 0.0471674 -0.00434293 0.000199842
0 0.01566 0.00240905 -0.0685867 0.00650513 4.96094e-05
0 -0.0150173 0.00506515 0 0 0
0 0.0150173 0.00506514 0 0 0
-2.11758e-22 0.015642 0.00267535 -0.0687825 0.00649906 7.83456e-05
0 -0.015642 0.00267557 0.0477548 -0.00439661 0.000211615
0 -0.0150364 0.00507946 0 0 0
0 0.0150364 0.00507947 0 0 0
-6.77626e-21 -0.0150495 0.00506281 0.00092927 -4.99936e-05 3.25966e-05
0 0.0150495 0.00506281 -0.00131449 7.60155e-05 5.15165e-05
-5.42101e-20 0.015871 0.000522609 -0.0227131 0.00240077 -5.07904e-05
-5.42101e-20 -0.0158711 0.00052261 0.0132921 -0.00119162 4.49382e-05
0 -0.0156198 0.00308833 0.0486661 -0.00447978 0.00022968
0 0.0156143 0.00308867 -0.0690886 0.00648969 0.000122716
-1.50584e-21 0.0151805 0.0048173 -0.0173417 0.00149771 0.000297183
0 -0.0151805 0.0048173 0.0122699 -0.000955019 0.000162296
0 0.0153242 0.00462128 -0.0298986 0.00283632 0.000370912
-2.71051e-20 -0.0153242 0.00462128 0.0213943 -0.00189847 0.000219688
-4.23516e-22 0.0155928 0.00376523 -0.0603856 0.00569465 0.000217042
2.82344e-22 -0.0155928 0.00376523 0.043887 -0.00406494 0.000257612
-2.71051e-20 0.0152849 0.0050422 -0.0112408 0.000758261 0.000218618
0 -0.0152849 0.0050422 0.00795927 -0.000473886 0.000113963
0 -0.015956 0.00273569 0.0530167 -0.00489287 0.00019799
-2.71051e-20 0.015956 0.00273569 -0.0737092 0.00693259 3.05108e-05
3.5293e-23 -0.0156111 0.00436319 0.0344009 -0.00320886 0.000220033
1.41172e-22 0.0156111 0.00436314 -0.046172 0.00441514 0.000257079
0 0.01536 0.00532139 -2.36704e-05 1.69195e-06 4.20754e-07
0 -0.015359 0.00532072 1.66953e-05 -1.15945e-06 2.1834e-07
2.71051e-20 -0.0159107 0.00341804 0.053295 -0.00491343 0.000262502
0 0.0159107 0.00341804 -0.0717118 0.00663318 0.000130671
0 -0.0153751 0.00533351 0 0 0
1.05879e-22 0.0153755 0.00533384 0 0 0
0 0.0155376 0.00491086 -0.0242549 0.00222191 0.000210613
1.12938e-21 -0.0155376 0.00491087 0.0180282 -0.0015841 0.000114259
2.71051e-20 0.015907 0.00407426 -0.0613741 0.00582098 0.000277065
0 -0.015907 0.00407427 0.0470091 -0.00441744 0.000338376
0 0.0163929 0.00113505 -0.0425322 0.00419676 -3.33602e-05
-2.82344e-22 -0.0163929 0.00113505 0.0300366 -0.00265698 0.000124119
1.69407e-21 -0.0164714 7.31819e-06 0.000185332 -1.6556e-05 8.97337e-07
-1.69407e-21 0.0164714 7.30942e-06 -0.000318745 3.38996e-05 -3.05247e-07
0 -0.0164715 3.37843e-21 0 0 0
0 0.0164715 3.38102e-21 0 0 0
0 -0.0164799 3.92501e-21 0 0 0
0 0.0164799 3.92783e-21 0 0 0
0 0.0164875 7.98184e-06 -0.00036458 3.84916e-05 -4.35136e-07
0 -0.0164875 7.99151e-06 0.000257269 -2.11308e-05 4.90666e-07
0 0.0164879 3.93933e-21 0 0 0
1.69407e-21 -0.0164879 3.93671e-21 0 0 0
8.47033e-22 -0.0162419 0.00306677 0.0557138 -0.00514612 0.000238566
2.82344e-22 0.0162419 0.00306677 -0.0740641 0.00689007 6.3091e-05
0 -0.0163552 0.00243071 0.0523128 -0.00479287 0.000224578
1.05879e-22 0.0163553 0.00243042 -0.0699839 0.00659211 1.66073e-05
1.19643e-20 -0.0163749 0.00231073 0.051663 -0.00472539 0.000221819
1.05879e-22 0.0163752 0.00230864 -0.0692084 0.00653549 7.68664e-06
2.71051e-20 0.0156952 0.00522881 -0.0173113 0.00156737 0.000101779
0 -0.0156952 0.00522881 0.0129466 -0.0011536 2.0771e-05
0 0.0158708 0.00471772 -0.0418848 0.00408536 0.000170735
0 -0.0158708 0.00471773 0.0324522 -0.00309486 0.000121047
0 -0.0156945 0.00557308 0 0 0
0 0.0156945 0.00557309 0 0 0
1.69407e-21 -0.0157031 0.00556196 0.000670117 -6.24088e-05 6.75969e-06
0 0.0157031 0.00556198 -0.000889112 8.46714e-05 1.29007e-05
0 -0.0157032 0.00557964 0 0 0
0 0.0157032 0.00557964 0 0 0
-1.69407e-21 0.0157125 0.0055866 0 0 0
0 -0.0157125 0.00558661 0 0 0
0 0.0157204 0.00557597 -0.000817232 8.96161e-05 1.24614e-05
0 -0.0157205 0.00557597 0.000645808 -6.9975e-05 7.23558e-06
1.41172e-22 -0.0163001 0.00366347 0.0550513 -0.00515026 0.00029772
-2.82344e-22 0.0163001 0.00366347 -0.0702209 0.00653729 0.000149771
1.41172e-22 0.0161921 0.00441855 -0.057636 0.00547182 0.000203721
2.82344e-22 -0.0161921 0.00441855 0.0463155 -0.00440549 0.000270142
-2.35287e-22 -0.0161069 0.00511691 0.0262803 -0.00252638 0.000127872
3.76459e-22 0.0161069 0.0051169 -0.0323318 0.00314491 0.000161281
2.71051e-20 0.01604 0.00551404 -0.0156062 0.00166916 0.00016637
5.42101e-20 -0.01604 0.00551404 0.0122656 -0.00128592 8.53878e-05
2.71051e-20 -0.016526 0.00408753 0.0590223 -0.0056086 0.000312493
5.42101e-20 0.016526 0.00408753 -0.0720451 0.006697 0.000131043
0 0.0170249 0.000578089 -0.0264751 0.00274433 -5.4593e-05
0 -0.0170249 0.000578088 0.0188559 -0.00153041 2.49007e-05
0 0.0169748 0.00175444 -0.0633892 0.00606947 -2.3123e-05
-5.42101e-20 -0.0169748 0.00175444 0.0497429 -0.00441336 0.000254276
0 -0.0160444 0.00583567 0 0 0
0 0.0160444 0.00583566 0 0 0
3.38813e-21 -0.0160574 0.00581994 0.000990965 -0.000107374 1.11027e-05
0 0.0160574 0.00581994 -0.00125479 0.000137598 1.91335e-05
0 0.0160586 0.00584628 0 0 0
0 -0.0160586 0.00584629 0 0 0
0 0.0160728 0.00585689 0 0 0
3.38813e-21 -0.0160728 0.00585691 0 0 0
-3.38813e-21 0.0160861 0.00584361 -0.00118669 0.000135795 1.60809e-05
3.38813e-21 -0.0160861 0.00584362 0.000983973 -0.000110481 1.11905e-05
0 -0.0168748 0.00305299 0.0640789 -0.00594042 0.000270926
0 0.0168748 0.00305299 -0.078348 0.00722032 1.39357e-05
0 0.0164851 0.00475809 -0.0558791 0.00534039 0.000232179
0 -0.0164851 0.00475809 0.0473352 -0.00455477 0.000309985
-1.8823e-22 0.0163205 0.005565 -0.022316 0.00232597 0.000155497
0 -0.0163205 0.00556501 0.0186577 -0.00190278 0.000108117
-1.8823e-22 0.0168571 0.00373388 -0.0764173 0.0070938 5.10247e-05
8.47033e-22 -0.0168571 0.00373388 0.0644102 -0.00606498 0.000269653
0 0.0165295 0.00534686 -0.0370878 0.00367369 0.00013393
0 -0.0165295 0.00534686 0.0319749 -0.0031083 0.000129012
-5.64689e-22 -0.0168299 0.0044115 0.0597286 -0.00566653 0.000267617
4.23516e-22 0.0168299 0.0044115 -0.0689665 0.00644874 8.87204e-05
2.71051e-20 0.0164078 0.00581578 -0.0149046 0.00169443 0.000166438
0 -0.0164078 0.00581579 0.0123074 -0.0013662 0.000111345
3.38813e-21 -0.0163998 0.00610069 0 0 0
0 0.0163998 0.00610068 0 0 0
-3.38813e-21 0.0164127 0.00608898 -0.00109067 0.000124806 1.47796e-05
3.38813e-21 -0.0164127 0.00608898 0.000904358 -0.000101542 1.02851e-05
0 0.0164129 0.00611042 0 0 0
-3.38813e-21 -0.0164129 0.00611043 0 0 0
0 0.016425 0.00612105 0 0 0
0 -0.016425 0.00612106 0 0 0
0 0.0164353 0.00610824 -0.000996715 0.000110202 1.45066e-05
0 -0.0164353 0.00610825 0.00087843 -9.18235e-05 9.39985e-06
-8.47033e-22 -0.0168163 0.00505861 0.0475871 -0.00455278 0.00022044
4.23516e-22 0.0168163 0.00505861 -0.0531431 0.00507323 0.000133544