# U  POINT_DATA 30784
# x  y  z  U_x  U_y  U_z
-0.114738 -1.05879e-22 1.35459e-05 0 0 0
0.114738 0 1.3545e-05 0 0 0
-0.114738 -1.05879e-22 1.20534e-07 0 0 0
0.114738 1.05879e-22 1.20534e-07 0 0 0
-0.114737 0 0.00063622 0 0 0
0.114737 0 0.000636151 0 0 0
-0.114737 -3.38813e-21 0.000671589 0 0 0
0.114737 -4.23516e-22 0.000671523 0 0 0
-0.114737 0 0.00070873 0 0 0
0.114737 4.23516e-22 0.000708671 0 0 0
-0.114737 4.23516e-22 0.00132981 0 0 0
0.114737 4.23516e-22 0.00132972 0 0 0
-0.114737 -4.23516e-22 0.00136709 0 0 0
0.114737 0 0.00136702 0 0 0
-0.114737 0 0.00140502 0 0 0
0.114737 -4.23516e-22 0.00140497 0 0 0
-0.114737 -3.17637e-22 0.00207515 0 0 0
0.114737 -1.16467e-21 0.00207515 0 0 0
0.114737 2.64698e-21 0.002087 0 0 0
-0.114737 -2.64698e-21 0.002087 0 0 0
-0.114996 1.69407e-20 0.000337663 0.000176417 -8.42135e-06 -2.8456e-06
0.114996 1.35525e-20 0.000337642 -0.000227012 1.43749e-05 -1.54368e-06
0.114997 6.77626e-21 0.00101334 -0.000516291 5.201e-05 -1.6254e-05
-0.114997 0 0.00101338 0.000494118 -5.24359e-05 -2.04741e-05
0.115 0 0.00170594 -0.00050021 4.78959e-05 3.80619e-06
-0.115 0 0.00170596 0.0004892 -5.0099e-05 4.80254e-06
-0.115215 0 6.13258e-05 0.000325953 -1.55596e-05 -5.25762e-06
0.115215 -2.03288e-20 6.13221e-05 -0.000419434 2.65595e-05 -2.85216e-06
-0.115216 0 8.56694e-08 0 0 0
0.115216 0 8.56692e-08 0 0 0
0.115205 0 0.00196621 -0.000892489 8.54571e-05 6.79111e-06
-0.115205 6.77626e-21 0.00196622 0.000872816 -8.93851e-05 8.56853e-06
-0.115222 6.77626e-21 0.00073865 0.000921773 -9.78188e-05 -3.81943e-05
0.115222 -6.77626e-21 0.000738632 -0.000963156 9.70262e-05 -3.03223e-05
0.115216 6.77626e-21 0.00142698 -0.000913238 8.74439e-05 6.94899e-06
-0.115216 6.77626e-21 0.00142699 0.000893122 -9.14647e-05 8.76788e-06
-0.115227 0 0.000602617 0.000334266 -1.59564e-05 -5.39171e-06
0.115227 0 0.000602603 -0.000430128 2.72367e-05 -2.92487e-06
-0.115223 0 0.00127728 0.000923541 -9.80064e-05 -3.82676e-05
0.115223 0 0.00127727 -0.000964995 9.72114e-05 -3.03802e-05
0.115233 3.38813e-21 0.00210989 0 0 0
-0.115233 0 0.00210989 0 0 0
0.11527 0 8.03367e-08 0 0 0
-0.11527 6.77626e-21 8.03371e-08 0 0 0
0.115253 0 0.00205872 -0.000592167 7.63523e-05 -5.68242e-06
-0.115253 0 0.00205872 0.000586199 -7.87315e-05 -6.61204e-06
0.115284 0 0.00066507 -0.000742544 7.32062e-05 -6.19415e-06
-0.115284 0 0.000665081 0.000707113 -7.63395e-05 -5.70047e-06
0.115283 -6.77626e-21 0.00134258 -0.0011064 9.38189e-05 5.05931e-07
-0.115283 0 0.00134258 0.00110053 -0.000102515 1.59839e-06
0.115275 0 0.00200988 -0.000912237 8.25112e-05 1.90378e-05
-0.115275 -6.77626e-21 0.00200987 0.000913933 -8.87894e-05 2.00294e-05
-0.115317 0 0.00211377 0 0 0
0.115317 -6.77626e-21 0.00211377 0 0 0
0.115333 0 0.00205101 -0.000654738 3.47907e-05 -3.21186e-06
-0.115333 -6.77626e-21 0.002051 0.000647594 -3.38824e-05 -2.99141e-06
-0.115354 0 8.43506e-08 0 0 0
0.115354 -6.77626e-21 8.43503e-08 0 0 0
-0.115358 0 0.000107306 0.000148377 -9.16057e-06 2.03757e-06
0.115358 1.01644e-20 0.000107309 -0.000401102 2.12863e-05 7.0542e-06
0.11537 0 0.000550762 -0.000409462 2.173e-05 7.20122e-06
-0.11537 -3.38813e-21 0.000550768 0.000151471 -9.35156e-06 2.08005e-06
0.115379 3.38813e-21 0.000791865 -0.00129318 5.51015e-05 1.25739e-05
-0.115379 6.77626e-21 0.000791869 0.00124725 -5.56289e-05 1.70888e-05
0.11538 -6.77626e-21 0.00120909 -0.00129509 5.5183e-05 1.25925e-05
-0.11538 0 0.00120909 0.0012491 -5.57115e-05 1.71142e-05
0.115396 3.38813e-21 0.00184969 -0.00120279 4.30828e-05 -1.73116e-05
-0.115396 3.38813e-21 0.00184968 0.00118238 -4.30017e-05 -1.80833e-05
0.115406 6.77626e-21 0.00148522 -0.0012216 4.37564e-05 -1.75823e-05
-0.115406 -6.77626e-21 0.00148522 0.00120088 -4.36745e-05 -1.83663e-05
-0.115453 0 0.00212005 0 0 0
0.115453 0 0.00212005 0 0 0
-0.115556 2.03288e-20 0.000327278 0.000195874 -1.20929e-05 2.68981e-06
0.115556 0 0.000327284 -0.000529499 2.81003e-05 9.31231e-06
-0.115608 1.12938e-21 0.00164723 0.00158163 -5.7522e-05 -2.41895e-05
0.115608 -1.12938e-21 0.00164725 -0.00160895 5.76308e-05 -2.31574e-05
-0.115627 -4.51751e-21 0.000993521 0.00175379 -7.82217e-05 2.40291e-05
0.115627 -9.03502e-21 0.000993543 -0.0018184 7.74808e-05 1.76807e-05
0.115635 3.38813e-21 0.00212847 0 0 0
-0.115635 6.77626e-21 0.00212847 0 0 0
-0.115696 0 0.00032771 0.000229321 -1.41579e-05 3.14912e-06
0.115696 6.77626e-21 0.000327723 -0.000619914 3.28986e-05 1.09024e-05
0.115709 0 9.72445e-08 0 0 0
-0.115709 0 9.72452e-08 0 0 0
-0.115724 6.77626e-21 0.00202738 0.0010726 -5.61189e-05 -4.95463e-06
0.115724 6.77626e-21 0.00202739 -0.00108444 5.76236e-05 -5.31977e-06
-0.115786 1.35525e-20 0.00132428 0.00191239 -0.000162052 1.59664e-05
0.115786 0 0.00132432 -0.00190471 0.000148778 8.95201e-06
0.115779 0 0.00213509 0 0 0
-0.115779 1.35525e-20 0.00213509 0 0 0
-0.115807 -1.35525e-20 0.000667664 0.00138317 -0.000126176 1.92819e-05
0.115807 0 0.000667699 -0.00143023 0.000116664 1.27987e-05
-0.115798 0 0.0019411 0.00173584 -0.000126508 9.91381e-06
0.115798 1.35525e-20 0.00194111 -0.00171714 0.000117796 5.31909e-06
-0.115838 -1.35525e-20 1.04109e-07 0 0 0
0.115838 0 1.04109e-07 0 0 0
0.115892 0 0.00204539 -0.00131267 5.7212e-05 5.53111e-06
-0.115892 0 0.00204539 0.0013291 -6.24117e-05 9.83699e-06
0.115953 0 0.00214313 0 0 0
-0.115953 6.77626e-21 0.00214313 0 0 0
-0.115994 6.77626e-21 9.47789e-08 0 0 0
0.115994 6.77626e-21 9.47783e-08 0 0 0
-0.116078 1.12938e-21 0.000992193 0.00259652 -0.000199945 9.20348e-05
0.116078 0 0.000992243 -0.00262005 0.000192742 5.46622e-05
0.116073 -1.69407e-21 0.00162164 -0.00239409 0.000165539 3.38824e-05
-0.116073 -2.25875e-21 0.0016216 0.00240712 -0.000168771 4.3282e-05
-0.11609 -1.12938e-21 0.000334102 0.00106375 -0.000122823 5.53445e-06
0.11609 3.38813e-21 0.000334126 -0.00120616 0.000111985 -5.48426e-06
-0.116143 1.35525e-20 0.00215193 0 0 0
0.116143 0 0.00215193 0 0 0
0.11619 1.35525e-20 8.45417e-08 0 0 0
-0.11619 0 8.4542e-08 0 0 0
-0.11622 0 0.00203355 0.0017072 -8.01666e-05 1.26354e-05
0.11622 0 0.00203356 -0.0016861 7.3488e-05 7.10463e-06
-0.116329 -2.71051e-20 0.00216054 0 0 0
0.116329 0 0.00216054 0 0 0
0.116362 0 7.42117e-08 0 0 0
-0.116362 0 7.42121e-08 0 0 0
-0.116353 2.71051e-20 0.00192291 0.00237026 -0.0002168 5.81712e-05
0.116353 0 0.00192293 -0.00229286 0.000201664 4.39318e-05
-0.116372 0 0.000657195 0.00184825 -0.000199928 3.60113e-05
0.116372 1.35525e-20 0.000657253 -0.00184723 0.000177481 2.18902e-05
-0.116367 -1.35525e-20 0.00131844 0.0027225 -0.000258949 6.29915e-05
0.116367 -1.35525e-20 0.00131851 -0.00264771 0.000238799 4.24054e-05
0.116472 1.35525e-20 0.00205464 -0.00175378 0.000211055 8.7584e-05
-0.116472 -1.35525e-20 0.00205463 0.00181162 -0.000223768 9.99304e-05
0.116547 0 0.0021706 0 0 0
-0.116547 -1.35525e-20 0.0021706 0 0 0
-0.116588 1.35525e-20 8.0167e-08 0 0 0
0.116588 1.35525e-20 8.01668e-08 0 0 0
-0.116656 5.64689e-22 0.000325357 0.00154315 -0.000175613 3.97399e-05
0.116656 2.82344e-21 0.000325386 -0.00158232 0.000153403 2.35412e-05
-0.11666 2.25875e-21 0.000983991 0.00366435 -0.0003295 0.000161215
0.11666 1.12938e-21 0.000984053 -0.00363243 0.0003155 0.000109925
-0.116665 1.69407e-22 0.00161349 0.00341947 -0.000317446 0.000142057
0.116665 -3.38813e-22 0.00161354 -0.00333978 0.000308305 0.00011943
0.11671 6.77626e-21 8.17014e-08 0 0 0
-0.11671 6.77626e-21 8.17016e-08 0 0 0
-0.116715 2.03288e-20 0.00217836 0 0 0
0.116715 -1.35525e-20 0.00217837 0 0 0
-0.116803 1.35525e-20 0.00204843 0.00215836 -0.000266596 0.000119057
0.116803 2.71051e-20 0.00204845 -0.00208945 0.00025145 0.000104348
-0.116945 0 8.84455e-08 0 0 0
0.116945 0 8.84455e-08 0 0 0
-0.116948 -1.35525e-20 0.000654747 0.00253598 -0.000268329 4.01336e-05
0.116948 -1.35525e-20 0.000654804 -0.00247754 0.000239001 2.55839e-05
0.116934 -1.35525e-20 0.00218849 0 0 0
-0.116934 -2.71051e-20 0.00218848 0 0 0
-0.116948 0 0.00131454 0.00371726 -0.000361422 7.32896e-05
0.116948 -2.71051e-20 0.00131461 -0.00354673 0.000329103 4.91737e-05
-0.116946 -2.71051e-20 0.00190304 0.0032283 -0.000325033 8.57012e-05
0.116946 1.35525e-20 0.00190307 -0.00306519 0.000297178 6.4245e-05
0.117091 1.35525e-20 0.00205422 -0.00230378 0.000230909 5.97573e-05
-0.117091 -1.35525e-20 0.00205421 0.00240638 -0.000259218 8.03885e-05
0.11719 3.38813e-21 0.0022003 0 0 0
-0.11719 3.38813e-21 0.0022003 0 0 0
-0.117223 1.69407e-21 8.45568e-08 0 0 0
0.117223 -2.03288e-20 8.45568e-08 0 0 0
-0.117231 -6.77626e-22 0.000980531 0.00473392 -0.000432344 0.000119718
0.117231 0 0.000980583 -0.00462361 0.000410522 8.07752e-05
0.117237 0 0.000327533 -0.00236667 0.000214895 2.56855e-05
-0.117239 2.11758e-22 0.000325498 0.00230762 -0.000233085 3.87424e-05
0.11724 -6.35275e-22 0.000392969 -0.00260334 0.000235364 3.1333e-05
-0.11724 -1.05879e-21 0.000392909 0.00256079 -0.000253823 4.70211e-05
-0.117245 -1.52466e-20 8.4286e-08 0 0 0
0.117245 -1.52466e-20 8.42859e-08 0 0 0
-0.117243 1.35525e-21 0.00160918 0.00437073 -0.000402778 9.19208e-05
0.117243 -9.03502e-22 0.00160922 -0.00419803 0.00038098 7.17852e-05
-0.117255 8.47033e-22 0.000325416 0.00232398 -0.000234114 3.82761e-05
0.117255 3.81165e-21 0.00032544 -0.00238213 0.000215949 2.53748e-05
-0.117253 6.77626e-21 0.00220321 0 0 0
0.117253 -1.69407e-20 0.00220321 0 0 0
-0.117365 0 0.0020504 0.00268565 -0.000289302 8.9718e-05
0.117365 1.35525e-20 0.00205042 -0.00257116 0.000257709 6.66927e-05
-0.117522 4.06576e-20 8.03478e-08 0 0 0
0.117522 1.35525e-20 8.03478e-08 0 0 0
-0.117533 -1.35525e-20 0.000652009 0.00325156 -0.000327532 2.6123e-05
0.117533 0 0.000652048 -0.00312994 0.000292418 1.59995e-05
-0.117534 1.35525e-20 0.00130699 0.00472749 -0.000448324 4.63835e-05
0.117534 0 0.00130703 -0.00444295 0.000403003 2.47689e-05
-0.11753 -2.71051e-20 0.00187116 0.00410534 -0.000388948 5.35098e-05
0.11753 1.35525e-20 0.00187118 -0.00384378 0.000349454 3.13354e-05
0.117533 -1.35525e-20 0.00221616 0 0 0
-0.117533 4.06576e-20 0.00221616 0 0 0
-0.117782 -3.38813e-21 8.01445e-08 0 0 0
0.117782 3.38813e-21 8.01445e-08 0 0 0
-0.117774 -2.71051e-20 0.0022273 0 0 0
0.117774 -2.03288e-20 0.0022273 0 0 0
0.11783 2.25875e-21 0.000324846 -0.00256992 0.000223681 9.26727e-06
-0.11783 0 0.000324833 0.00258037 -0.000241187 1.4393e-05
0.117836 1.12938e-21 0.000977432 -0.00527947 0.000463976 2.51016e-05
-0.117836 0 0.000977404 0.00551264 -0.00049933 4.43386e-05
0.117824 6.77626e-21 0.00203764 -0.00306182 0.000269357 1.75166e-05
-0.117824 -6.77626e-21 0.00203762 0.00323315 -0.000300126 2.97724e-05
-0.117836 -2.71051e-21 0.00160419 0.00517693 -0.000461684 4.19155e-05
0.117836 -2.71051e-21 0.00160421 -0.00489053 0.000428395 2.57669e-05
0.117831 0 0.00215881 -0.00113474 9.98268e-05 6.49185e-06
-0.117831 2.03288e-20 0.00215877 0.00119875 -0.000111277 1.10386e-05
-0.117872 1.35525e-20 8.08535e-08 0 0 0
0.117872 -1.35525e-20 8.08535e-08 0 0 0
0.117904 0 0.00223329 0 0 0
-0.117904 -6.77626e-21 0.00223329 0 0 0
-0.118121 -1.35525e-20 8.10337e-08 0 0 0
0.118121 1.35525e-20 8.10337e-08 0 0 0
-0.118127 0 0.000648622 0.00396654 -0.000385376 1.10401e-05
0.118127 1.35525e-20 0.000648636 -0.00376198 0.00034211 4.67503e-06
-0.118129 -1.35525e-20 0.00129645 0.00574919 -0.000533823 2.58153e-05
0.118129 0 0.00129647 -0.00533173 0.000473366 5.28913e-06
-0.118129 0 0.00183213 0.00500153 -0.000457415 3.02972e-05
0.118129 0 0.00183214 -0.00462584 0.000406163 8.42148e-06
0.11813 -2.71051e-20 0.00224374 0 0 0
-0.11813 0 0.00224373 0 0 0
-0.118331 0 8.4226e-08 0 0 0
0.118331 0 8.4226e-08 0 0 0
-0.118312 0 0.00225214 0 0 0
0.118312 -6.77626e-21 0.00225215 0 0 0
-0.11834 1.35525e-20 0.00157067 0.0057453 -0.00051957 2.99155e-05
0.11834 9.03502e-21 0.00157067 -0.00536111 0.000471465 1.27689e-05
0.118432 1.12938e-21 0.000324873 -0.00277238 0.000241488 1.35845e-06
-0.118432 1.12938e-21 0.000324872 0.0028602 -0.000263261 2.61397e-06
-0.118436 -2.25875e-21 0.000972945 0.00621875 -0.000568849 2.13764e-05
0.118436 -1.12938e-21 0.000972947 -0.00585044 0.000515878 6.76005e-06
0.118425 -6.77626e-21 0.00202942 -0.00362865 0.000316371 1.21773e-05
-0.118425 -1.35525e-20 0.00202941 0.00387378 -0.000359459 2.54476e-05
0.11843 0 0.00211663 -0.00224402 0.00019565 7.53067e-06
-0.11843 6.77626e-21 0.00211662 0.00239569 -0.000222303 1.57377e-05
-0.118533 1.35525e-20 8.39687e-08 0 0 0
0.118533 -1.35525e-20 8.39687e-08 0 0 0
0.118572 -6.77626e-21 0.00226416 0 0 0
-0.118572 6.77626e-21 0.00226416 0 0 0
-0.118724 -2.71051e-20 8.63336e-08 0 0 0
0.118724 2.71051e-20 8.63336e-08 0 0 0
0.118723 0 0.00171367 -0.00563987 0.000497156 5.78282e-06
-0.118723 0 0.00171367 0.00613836 -0.000561239 2.8607e-05
0.118728 -1.35525e-20 0.00227134 0 0 0
-0.118728 0 0.00227135 0 0 0
0.118768 3.38813e-21 0.00132504 -0.00646614 0.000571859 1.4782e-06
-0.118768 -2.25875e-21 0.00132505 0.00701546 -0.00064432 2.1323e-05
0.118825 0 0.000642427 -0.00482069 0.000429059 -1.2008e-06
-0.118825 -4.51751e-21 0.00064244 0.00512777 -0.000480887 3.62847e-06
-0.118855 0 0.00227722 0 0 0
0.118855 1.35525e-20 0.00227722 0 0 0
-0.118884 1.35525e-20 8.25008e-08 0 0 0
0.118884 -1.35525e-20 8.25008e-08 0 0 0
0.11894 5.42101e-21 0.000230178 -0.00203992 0.000178814 -2.12842e-06
-0.11894 8.13152e-21 0.000230188 0.00211291 -0.000194996 -3.81491e-06
0.11903 -1.35525e-20 0.000968919 -0.00688353 0.000607244 -3.60423e-06
-0.11903 0 0.000968945 0.00743704 -0.000685958 7.95391e-06
-0.119031 0 0.00158378 0.00742988 -0.000678201 2.90391e-05
0.119031 0 0.00158376 -0.0067502 0.000596251 -1.43155e-07
-0.119029 1.12938e-21 0.0020094 0.00444492 -0.000416587 2.63326e-05
0.119029 1.12938e-21 0.00200939 -0.00411632 0.000362189 1.09824e-05
-0.119194 -1.35525e-20 7.95716e-08 0 0 0
0.119194 1.35525e-20 7.95716e-08 0 0 0
0.119198 -6.77626e-21 0.000141176 -0.00113842 9.73957e-05 -1.52415e-06
-0.119198 -6.77626e-21 0.000141182 0.00117173 -0.000103815 -2.38348e-06
0.119237 -6.77626e-21 0.00229488 0 0 0
-0.119237 -6.77626e-21 0.00229488 0 0 0
0.119324 2.25875e-21 0.000639919 -0.00525724 0.000466946 -6.67537e-06
-0.119324 1.12938e-21 0.000639954 0.00566362 -0.000532203 -3.05336e-06
-0.119327 0 7.67102e-08 0 0 0
0.119327 0 7.67102e-08 0 0 0
0.119327 4.51751e-21 0.00127022 -0.00724241 0.00064026 -7.49084e-06
-0.119327 3.38813e-21 0.00127026 0.00797132 -0.000736956 1.46879e-05
-0.119329 2.25875e-21 0.00171491 0.00695768 -0.000645553 2.74114e-05
0.119329 2.25875e-21 0.00171488 -0.00629657 0.000558593 -2.16796e-07
-0.119328 -2.71051e-20 0.00229909 0 0 0
0.119328 0 0.00229909 0 0 0
0.119403 0 0.00230257 0 0 0
-0.119403 6.77626e-21 0.00230257 0 0 0
0.119436 -1.35525e-20 0.000117398 -0.000963166 8.41261e-05 -3.03297e-06
-0.119436 0 0.00011741 0.001005 -9.10475e-05 -4.06767e-06
0.119439 0 8.09182e-08 0 0 0
-0.119439 0 8.09182e-08 0 0 0
0.119631 0 0.000320659 -0.00346272 0.000312361 -5.98187e-06
-0.119631 1.35525e-20 0.000320689 0.00366146 -0.000354686 -9.99919e-06
0.119633 -1.35525e-20 0.000964822 -0.00755211 0.000666304 -1.48823e-05
-0.119633 -1.35525e-20 0.000964885 0.0082908 -0.000771683 -5.12012e-06
-0.119635 -2.71051e-20 0.00157725 0.00843721 -0.000780818 2.62872e-05
0.119635 -2.71051e-20 0.0015772 -0.00754013 0.000669495 -9.02678e-06
-0.119634 -1.69407e-21 0.00201287 0.00515843 -0.000501835 2.60211e-05
0.119634 -5.0822e-21 0.00201285 -0.00471558 0.000425445 7.10154e-06
-0.119855 6.77626e-21 8.52625e-08 0 0 0
0.119855 6.77626e-21 8.52624e-08 0 0 0
0.119856 1.35525e-20 8.18892e-05 -0.000671603 5.866e-05 -2.11485e-06
-0.119856 -6.77626e-21 8.18975e-05 0.000700775 -6.34863e-05 -2.83634e-06
-0.119901 0 0.00232555 0 0 0
0.119901 0 0.00232555 0 0 0
0.11993 1.12938e-21 0.000637232 -0.00572977 0.000509008 -1.58577e-05
-0.11993 3.38813e-21 0.000637304 0.00627069 -0.000595225 -1.40531e-05
-0.119932 6.77626e-21 8.78252e-08 0 0 0
0.119932 0 8.7825e-08 0 0 0
-0.119934 0 0.00126452 0.00893684 -0.000834007 2.93493e-06
0.119934 -5.64689e-22 0.00126444 -0.00799177 0.000706806 -2.10878e-05
-0.119936 0 0.00171637 0.007864 -0.000747743 1.96286e-05
0.119936 0 0.00171631 -0.00699836 0.000629558 -1.28062e-05
-0.119932 1.35525e-20 0.00232696 0 0 0
0.119932 0 0.00232696 0 0 0
0.119956 0 0.0023281 0 0 0
-0.119956 0 0.0023281 0 0 0
0.119995 0 6.93509e-05 -0.000577759 5.30399e-05 -2.78766e-06
-0.119995 6.77626e-21 6.93625e-05 0.000611086 -5.84137e-05 -3.78343e-06
0.119996 -6.77626e-21 8.41045e-08 0 0 0
-0.119996 -6.77626e-21 8.41047e-08 0 0 0
0.120207 -7.05861e-23 0.00201414 -0.0052417 0.000493181 -7.53828e-06
-0.120207 7.05861e-23 0.00201419 0.00582012 -0.000597003 1.47708e-05
0.120233 2.71051e-20 0.000320486 -0.00368661 0.000335333 -8.28825e-06
-0.120233 0 0.000320535 0.00395811 -0.000392087 -1.36633e-05
0.120235 0 0.000960794 -0.00818462 0.000718321 -3.5102e-05
-0.120235 -2.71051e-20 0.000960897 0.00912741 -0.000854704 -2.85035e-05
-0.120237 0 0.00156987 0.00945859 -0.000886662 1.79569e-05
0.120237 0 0.00156979 -0.00831733 0.000741199 -2.31448e-05
0.12026 1.69407e-21 0.00234212 0 0 0
-0.12026 -1.69407e-21 0.00234212 0 0 0
-0.120505 0 6.18504e-08 0 0 0
0.120505 0 6.18504e-08 0 0 0
-0.120506 0 2.78072e-05 0.000244735 -2.33942e-05 -1.51523e-06
0.120506 3.38813e-21 2.78023e-05 -0.000231385 2.12418e-05 -1.11642e-06
0.120507 0 0.00235355 0 0 0
-0.120507 0 0.00235356 0 0 0
-0.12053 0 6.04228e-08 0 0 0
0.12053 0 6.04228e-08 0 0 0
0.120515 0 0.00234188 -0.000280417 2.53065e-05 -4.47896e-07
-0.120515 -3.38813e-21 0.00234189 0.000320856 -3.33127e-05 3.3296e-06
0.120531 -9.41148e-23 0.0012457 -0.00854103 0.000748633 -4.27509e-05
-0.120531 -2.35287e-22 0.00124588 0.00969275 -0.000905382 -1.90528e-05
0.120547 -1.12938e-22 0.000634174 -0.00617167 0.00053964 -3.18561e-05
-0.120547 -1.69407e-22 0.000634288 0.00686526 -0.000650896 -3.25989e-05
0.120528 0 0.00232802 -0.000441798 3.81464e-05 -1.06137e-06
-0.120528 0 0.00232804 0.000525446 -5.10268e-05 5.10266e-06
0.120528 0 0.00235451 0 0 0
-0.120528 3.38813e-21 0.00235452 0 0 0
-0.120539 0 0.00171142 0.00870565 -0.00083956 5.43478e-06
0.120539 1.12938e-21 0.00171132 -0.00762832 0.000690748 -3.22661e-05
0.120552 -3.38813e-21 2.32852e-05 -0.000193307 1.89497e-05 -1.52874e-06
-0.120552 -3.38813e-21 2.32903e-05 0.00020728 -2.13771e-05 -2.04921e-06
0.120553 0 6.17097e-08 0 0 0
-0.120553 0 6.17096e-08 0 0 0
-0.120543 0 0.00234205 0.00035527 -3.84253e-05 3.94404e-06
0.120543 0 0.00234204 -0.000306971 2.84342e-05 -8.19551e-07
-0.120552 0 0.00235562 0 0 0
0.120552 0 0.00235561 0 0 0
0.120834 -2.71051e-20 0.000318139 -0.00384576 0.000343309 -1.26755e-05
-0.120834 0 0.0003182 0.00419241 -0.000418263 -2.00364e-05
0.120836 0 0.000956941 -0.00876702 0.000748857 -6.77645e-05
-0.120836 0 0.000957074 0.00993254 -0.000916773 -6.45773e-05
-0.120838 -2.71051e-20 0.00156511 0.0104746 -0.000979723 -7.4441e-07
0.120838 0 0.001565 -0.00906137 0.000799723 -4.7075e-05
-0.120836 1.12938e-21 0.00200519 0.00678873 -0.000719147 -1.20085e-05
0.120837 -3.38813e-21 0.00200513 -0.00596497 0.000575756 -4.39212e-05
-0.120859 -3.38813e-21 7.60868e-08 0 0 0
0.120859 0 7.60871e-08 0 0 0
0.121065 -6.77626e-21 0.00237934 0 0 0
-0.121065 -6.77626e-21 0.00237934 0 0 0
0.121088 -6.77626e-21 0.00234429 -0.000843415 7.8124e-05 -2.25175e-06
-0.121088 0 0.00234429 0.000976178 -0.000105581 1.08371e-05
-0.121119 0 1.89551e-05 0.000333141 -3.26401e-05 -6.87105e-07
0.121119 3.38813e-21 1.89514e-05 -0.000302878 2.55901e-05 -2.36003e-07
-0.121119 -3.38813e-21 8.69662e-08 0 0 0
0.121119 0 8.69665e-08 0 0 0
0.121137 0 8.72831e-08 0 0 0
-0.121137 0 8.72828e-08 0 0 0
-0.121142 1.12938e-21 0.000632732 0.00734242 -0.000670025 -5.4552e-05
0.121142 5.64689e-22 0.000632605 -0.00650007 0.000535387 -5.24005e-05
-0.121126 0 0.00238219 0 0 0
0.121126 0 0.00238219 0 0 0
-0.121128 0 0.00230298 0.00159872 -0.000156138 1.7008e-05
0.121128 0 0.00230296 -0.00132704 0.000114241 -3.39439e-06
-0.121145 -1.12938e-21 0.00125656 0.0107544 -0.00097055 -4.51226e-05
0.121145 0 0.0012564 -0.0093137 0.000780863 -7.3737e-05
-0.121145 4.51751e-21 0.00169995 0.00972678 -0.000916629 -1.59544e-05
0.121145 -4.51751e-21 0.00169983 -0.00836864 0.000735625 -6.3677e-05
0.121158 0 8.63068e-08 0 0 0
-0.121158 -3.38813e-21 8.63065e-08 0 0 0
0.121159 0 2.14148e-05 -0.000342012 2.32316e-05 -1.65424e-06
-0.121159 0 2.14188e-05 0.00038162 -3.24827e-05 -2.51555e-06
-0.12117 0 0.00234527 0.00106401 -0.000122092 1.5775e-05
0.12117 0 0.00234526 -0.000908655 8.71437e-05 -1.94054e-06
-0.121195 0 0.00238537 0 0 0
0.121195 0 0.00238537 0 0 0
-0.121444 -2.71051e-20 0.000318955 0.00442365 -0.000402927 -3.385e-05
0.121444 2.71051e-20 0.000318897 -0.00398887 0.000305971 -2.42819e-05
-0.121449 0 0.0009532 0.0107484 -0.000930677 -0.000101588
0.121449 0 0.000953073 -0.00933723 0.000734955 -0.000105972
0.121442 0 0.00199676 -0.00660722 0.000609223 -9.23388e-05
-0.121442 6.77626e-21 0.00199682 0.00768747 -0.000783027 -4.24061e-05
-0.12145 0 0.00155715 0.0115086 -0.00101885 -1.53776e-05
0.12145 -2.71051e-20 0.00155704 -0.00979979 0.000812659 -7.13749e-05
0.121634 0 0.00240564 0 0 0
-0.121634 -6.77626e-21 0.00240564 0 0 0
0.121669 0 0.00235306 -0.0012646 0.00012128 -2.7007e-06
-0.121669 0 0.00235306 0.00148084 -0.000169923 2.19551e-05
-0.121699 6.77626e-21 5.8685e-05 0.0010491 -8.92972e-05 -6.91542e-06
0.121699 0 5.86723e-05 -0.000940185 6.38632e-05 -4.54749e-06
-0.121699 0 4.03272e-08 0 0 0
0.121699 0 4.03261e-08 0 0 0
-0.121726 1.35525e-20 0.00240987 0 0 0
0.121726 1.35525e-20 0.00240987 0 0 0
-0.121732 0 0.00229092 0.0024515 -0.000239596 3.27627e-05
0.121732 -1.35525e-20 0.00229091 -0.00200765 0.000170973 -2.64688e-06
0.121756 0 3.78957e-08 0 0 0
-0.121756 -6.77626e-21 3.78966e-08 0 0 0
-0.121781 -3.38813e-21 0.000632934 0.00793147 -0.000674773 -6.21827e-05
0.121781 1.12938e-21 0.000632842 -0.00690604 0.000510215 -6.59384e-05
-0.121792 1.12938e-21 0.00125124 0.0117468 -0.00100845 -3.39327e-05
0.121792 0 0.00125112 -0.0100121 0.000788856 -7.82063e-05
-0.121788 -4.51751e-21 0.00168176 0.0109163 -0.000966289 4.2075e-06
0.121788 4.51751e-21 0.00168168 -0.00922508 0.000754155 -6.88875e-05
-0.121791 0 0.00235671 0.00157454 -0.000195697 3.57559e-05
0.121791 0 0.00235671 -0.00132394 0.000133602 2.56167e-06
0.121828 0 4.12177e-08 0 0 0
-0.121828 0 4.12189e-08 0 0 0
0.121837 0 6.99672e-05 -0.00112611 5.32398e-05 -1.27829e-05
-0.121837 6.77626e-21 6.99779e-05 0.00127396 -8.92824e-05 -1.61944e-05
0.121825 0 0.00241445 0 0 0
-0.121825 -6.77626e-21 0.00241445 0 0 0
-0.122099 2.71051e-20 0.000321025 0.00477207 -0.000370306 -4.45633e-05
0.122099 0 0.000320991 -0.00422491 0.000238404 -3.83487e-05
0.122085 0 0.00198069 -0.00741858 0.000590272 -9.58631e-05
-0.122085 0 0.00198072 0.00882712 -0.000794897 -6.91573e-07
0.122263 2.43945e-20 0.00101903 -0.0102849 0.0007964 -5.28684e-05
-0.122263 2.71051e-21 0.00101909 0.0120713 -0.00104296 -1.46416e-05
0.122263 -4.51751e-21 0.0015084 -0.0107765 0.00086269 4.5215e-06
-0.122263 0 0.00150845 0.0128598 -0.00111801 9.85583e-05
-0.122256 -6.77626e-21 0.00243436 0 0 0
0.122256 0 0.00243436 0 0 0
-0.122296 0 0.00238067 0.00155694 -0.00019351 3.53563e-05
0.122296 0 0.00238068 -0.00130908 0.000132103 2.53292e-06
-0.122326 -1.35525e-20 8.40641e-08 0 0 0
0.122326 -1.35525e-20 8.40676e-08 0 0 0
-0.122327 0 0.000118199 0.00215158 -0.000150789 -2.73506e-05
0.122327 2.71051e-20 0.000118171 -0.00190173 8.9909e-05 -2.15873e-05
0.122354 0 0.00243889 0 0 0
-0.122354 -1.35525e-20 0.00243889 0 0 0
0.122363 0 0.00231848 -0.00207667 0.000177478 1.93063e-06
-0.122363 0 0.00231847 0.00257402 -0.000253449 4.25884e-05
0.122419 0 0.00238775 -0.00134986 0.000136325 7.75047e-06
-0.122419 0 0.00238774 0.00164869 -0.000205537 4.33867e-05
0.122444 0 8.89963e-08 0 0 0
-0.122444 0 8.89934e-08 0 0 0
0.122449 6.77626e-21 0.00244327 0 0 0
-0.122449 1.35525e-20 0.00244327 0 0 0
0.122512 4.51751e-21 0.000639005 -0.00749138 0.000638769 -3.15781e-05
-0.122512 -4.51751e-21 0.000639028 0.00874424 -0.000849849 -1.32353e-06
0.122514 0 0.00177574 -0.00893966 0.000795903 6.85513e-05
-0.122514 0 0.00177575 0.0108519 -0.00107038 0.000209739
0.122552 -2.71051e-20 0.00122858 -0.0105219 0.000924377 2.41251e-05
-0.122552 -2.71051e-20 0.0012286 0.0125993 -0.00120282 0.000124092
0.122565 0 8.12044e-08 0 0 0
-0.122565 -2.71051e-20 8.12004e-08 0 0 0
0.122569 0 0.00010807 -0.00184444 0.000142769 6.53738e-06
-0.122569 1.35525e-20 0.000108087 0.00211502 -0.000207883 1.02286e-05
-0.122701 -1.35525e-20 0.00106834 0.0125183 -0.00120255 0.000131004
0.122701 0 0.00106833 -0.0105582 0.000938832 6.45197e-05
0.122733 0 0.00202314 -0.00779144 0.00064459 -2.90914e-05
-0.122733 9.03502e-21 0.00202314 0.00944817 -0.000880098 8.495e-05
0.122781 2.25875e-21 0.00153791 -0.0112364 0.0009893 6.02749e-05
-0.122781 9.03502e-21 0.00153791 0.0135788 -0.00126964 0.000173133
-0.122832 1.35525e-20 0.000298119 0.00495459 -0.000501453 4.01446e-05
0.122832 0 0.00029812 -0.00431865 0.000334952 1.65482e-05
-0.122835 1.35525e-20 0.000912539 0.0125343 -0.00136156 8.81754e-05
0.122835 1.35525e-20 0.000912547 -0.0106155 0.00107413 2.55365e-05
-0.12298 3.38813e-21 0.0024678 0 0 0
0.12298 0 0.0024678 0 0 0
-0.122996 3.38813e-21 0.00244983 0.000569982 -7.10575e-05 1.49995e-05
0.122996 -3.38813e-21 0.00244983 -0.00046651 4.71137e-05 2.67855e-06
0.123017 -3.38813e-21 0.00246949 0 0 0
-0.123017 0 0.00246949 0 0 0
0.123018 0 0.00243 -0.000703149 6.09231e-05 1.99526e-06
-0.123018 0 0.00242999 0.000885761 -8.7871e-05 1.61559e-05
0.123037 0 0.00245141 -0.000494512 4.77729e-05 8.77025e-06
-0.123037 -3.38813e-21 0.0024514 0.000617331 -7.08723e-05 2.06686e-05
0.123046 0 0.00247085 0 0 0
-0.123046 3.38813e-21 0.00247085 0 0 0
-0.123082 0 0.00181615 0.0114252 -0.00109751 0.000240203
0.123082 0 0.00181617 -0.00930002 0.000812785 9.41713e-05
0.123099 -2.25875e-21 0.00121936 -0.0112781 0.00102006 7.57795e-05
-0.123099 -2.25875e-21 0.00121933 0.0135584 -0.00130268 0.00016545
-0.123111 -3.38813e-21 0.000615393 0.00921014 -0.000948319 8.54539e-05
0.123111 4.51751e-21 0.000615423 -0.00780035 0.000743479 4.86202e-05
0.123224 5.29396e-21 -7.39903e-09 -2.21092e-05 2.10346e-06 1.02916e-07
-0.123231 0 -8.15793e-09 2.57504e-05 -2.65808e-06 1.99579e-07
0.123348 1.89735e-20 0.00159634 -0.0118778 0.00108061 5.62855e-05
-0.123348 1.0842e-20 0.0015963 0.0145696 -0.00139471 0.000176303
0.123383 -2.82344e-22 0.00210433 -0.00790172 0.000642927 0.000114253
-0.123383 -2.82344e-22 0.0021043 0.00970995 -0.000871837 0.000225906
0.123447 -1.69407e-21 0.00248936 0 0 0
-0.123447 -2.11758e-21 0.00248939 0 0 0
-0.123475 -1.35525e-20 0.000922922 0.0134032 -0.00133522 0.000186674
0.123475 -4.06576e-20 0.000922971 -0.0111713 0.00106358 0.000148977
0.123479 4.23516e-22 0.00243573 -0.00116523 9.48512e-05 1.7417e-05
-0.123479 -4.23516e-22 0.00243628 0.00141587 -0.000126937 3.32566e-05
-0.123507 4.06576e-20 0.00031515 0.00564861 -0.000606739 3.24788e-05
0.123507 -1.35525e-20 0.000315172 -0.00483894 0.00050846 3.47592e-05
0.123498 4.23516e-21 0.00249174 0 0 0
-0.123494 0 0.00249155 0 0 0
-0.123732 -1.35525e-20 8.93512e-05 0.00139192 -0.000143214 6.76334e-06
0.123732 0 8.9354e-05 -0.00119122 0.000128435 8.1296e-06
-0.123734 -6.77626e-21 6.17809e-09 0 0 0
0.123734 0 6.17697e-09 0 0 0
0.123777 -1.35525e-21 0.000610963 -0.00810454 0.000792144 5.26558e-05
-0.123777 -1.12938e-21 0.000610907 0.00970856 -0.000984957 6.19501e-05
-0.123762 -1.01644e-20 0.00250391 0 0 0
0.123762 1.69407e-20 0.00250391 0 0 0
0.123782 -7.05861e-22 0.00122929 -0.0120473 0.00111687 6.23268e-05
-0.123782 6.58803e-22 0.00122921 0.014729 -0.00142535 0.000137937
0.123792 -2.71051e-20 0.00231617 -0.00499356 0.000272336 0.000125855
-0.123792 1.35525e-20 0.00231613 0.00620876 -0.000414349 0.000230124
0.123814 0 4.7663e-09 0 0 0
-0.123814 0 4.76768e-09 0 0 0
0.123842 -1.12938e-21 0.00191141 -0.00959657 0.000797869 8.58037e-05
-0.123842 2.82344e-21 0.00191139 0.0119137 -0.00107424 0.000217183
0.123905 0 9.56164e-05 -0.0013614 0.000153558 3.86339e-06
-0.123905 6.77626e-21 9.56125e-05 0.0016143 -0.000176921 -3.36933e-06
0.123911 -6.77626e-21 6.5703e-09 0 0 0
-0.123911 -6.77626e-21 6.57156e-09 0 0 0
0.12401 0 0.00251537 0 0 0
-0.12401 -1.69407e-21 0.00251537 0 0 0
-0.124023 0 0.00251596 0 0 0
0.124023 0 0.00251597 0 0 0
-0.12403 0 0.00249603 0.000534552 -4.33064e-05 1.87002e-05
0.12403 0 0.00249597 -0.000441787 3.49949e-05 1.13923e-05
-0.124107 0 0.000926585 0.0145304 -0.00141913 4.31123e-05
0.124107 -1.35525e-20 0.000926643 -0.0119433 0.00112312 2.71906e-05
0.124113 2.71051e-20 0.000309668 -0.00491041 0.000523274 8.20876e-06
-0.124113 2.71051e-20 0.000309642 0.00582418 -0.000631542 -1.2396e-05
-0.124109 -1.35525e-20 0.00153604 0.0163994 -0.00153762 0.000132644
0.124109 2.71051e-20 0.00153609 -0.0131704 0.00118609 1.03089e-05
0.124199 0 0.00224856 -0.00609182 0.000454338 0.00012976
-0.124199 4.51751e-21 0.00224854 0.00752251 -0.00060983 0.000243259
-0.124312 0 5.9528e-09 0 0 0
0.124312 -6.77626e-21 5.95239e-09 0 0 0
-0.124316 0 0.000101998 0.00172214 -0.00018874 -3.59441e-06
0.124316 0 0.000102006 -0.0014524 0.000163822 4.12161e-06
-0.124351 0 0.00253113 0 0 0
0.124352 0 0.00253117 0 0 0
-0.124411 -4.51751e-21 0.000610848 0.0103072 -0.00102896 1.01956e-05
0.124411 4.51751e-21 0.000610898 -0.00849237 0.000819333 9.5584e-06
0.124413 -1.35525e-20 7.80603e-09 0 0 0
-0.124413 0 7.80623e-09 0 0 0
-0.124412 -3.16226e-21 0.00125277 0.0156227 -0.0014694 8.71156e-05
0.124412 -1.35525e-21 0.00125284 -0.0125979 0.00113813 6.41564e-06
-0.124428 -1.807e-21 0.00188222 0.0130943 -0.00121196 0.000173033
0.124428 9.03502e-22 0.00188226 -0.0103946 0.000895109 3.04626e-05
-0.124454 -4.23516e-22 0.00253417 7.00225e-05 -6.08248e-06 1.54023e-06
0.12446 0 0.00253424 -5.43937e-05 3.93071e-06 3.75576e-07
0.124507 -6.77626e-21 9.76902e-05 -0.00144826 0.000154666 4.21332e-06
-0.124507 -6.77626e-21 9.76851e-05 0.0017281 -0.000183713 -1.69936e-06
0.12451 0 6.4083e-09 0 0 0
-0.12451 6.77626e-21 6.40846e-09 0 0 0
0.124715 -1.35525e-20 0.000308871 -0.00506129 0.000521822 9.42158e-06
-0.124715 0 0.000308852 0.00605545 -0.000642391 -6.29983e-06
-0.124717 4.06576e-20 0.00092527 0.0151918 -0.0014589 1.74303e-05
0.124717 -1.35525e-20 0.000925313 -0.0123559 0.00113969 -6.42344e-06
-0.124722 -2.71051e-20 0.00152785 0.0173552 -0.00155999 0.000127873
0.124722 0 0.00152789 -0.0137592 0.00119275 -1.53702e-05
-0.12474 0 0.00225265 0.00845551 -0.000806598 0.000126369