# UMean  POINT_DATA 14024
# x  y  z  UMean_x  UMean_y  UMean_z
0 0.0100383 9.88059e-08 0 0 0
0 -0.0100383 9.88059e-08 0 0 0
-6.77626e-21 0.0100383 0.000270318 0 0 0
-3.38813e-20 -0.0100383 0.000270355 0 0 0
0 0.0100383 0.000399158 0 0 0
-6.77626e-21 -0.0100383 0.000399216 0 0 0
0 0.0100383 0.000671987 0 0 0
0 -0.0100383 0.000672082 0 0 0
0 0.0100383 0.000954688 0 0 0
1.35525e-20 -0.0100383 0.000954778 0 0 0
2.71051e-20 0.0100383 0.00108461 0 0 0
-1.35525e-20 -0.0100383 0.00108472 0 0 0
0 0.0100383 0.00136726 0 0 0
0 -0.0100383 0.00136736 0 0 0
-2.03288e-20 0.0100382 0.00165828 0 0 0
6.77626e-21 -0.0100382 0.00165833 0 0 0
0 0.0100382 0.00179903 0 0 0
-1.35525e-20 -0.0100382 0.00179907 0 0 0
1.35525e-20 -0.0102118 8.66105e-08 0 0 0
0 0.0102118 8.66107e-08 0 0 0
-1.807e-20 0.0102382 0.000331506 -0.00170563 0.000144236 -9.87725e-06
0 -0.0102382 0.000331549 8.95523e-06 -4.01266e-06 -4.64037e-06
-2.71051e-20 0.0100382 0.002087 0 0 0
2.71051e-20 -0.0100382 0.002087 0 0 0
-4.51751e-21 0.0102243 0.000990461 -0.00354923 0.000331126 -0.000107707
0 -0.0102243 0.000990555 0.00155092 -0.000184581 1.96325e-05
0 0.0102083 0.00163603 -0.00311568 0.000306535 -6.39442e-05
0 -0.0102083 0.00163609 0.00144189 -0.000172907 -6.58066e-06
-1.35525e-20 -0.0102224 0.00218426 0 0 0
2.71051e-20 0.0102224 0.00218426 0 0 0
0 0.010458 6.24978e-08 0 0 0
-2.71051e-20 -0.010458 6.24966e-08 0 0 0
-1.35525e-20 0.0104623 0.000144468 -0.00108895 9.11362e-05 -5.8459e-06
0 -0.0104623 0.000144482 5.60719e-06 -2.81157e-06 -3.32476e-06
2.25875e-21 0.0105577 0.000633897 -0.00617344 0.000486365 -7.58169e-05
-4.51751e-21 -0.0105577 0.000633982 0.00237976 -0.000200454 5.04528e-07
1.35525e-20 0.01058 5.25664e-08 0 0 0
1.35525e-20 -0.01058 5.25657e-08 0 0 0
1.35525e-20 0.0104079 0.00203701 -0.00412252 0.000346402 -8.71071e-05
2.71051e-21 -0.0104079 0.00203703 0.0019126 -0.000169438 -3.94836e-05
-2.25875e-21 0.010539 0.0012563 -0.00874332 0.000746986 -8.87684e-05
6.77626e-21 -0.010539 0.00125641 0.00398781 -0.000353847 1.26663e-06
0 0.0106667 9.98927e-05 -0.00160041 8.07356e-05 -2.22049e-05
-1.35525e-20 -0.0106667 9.99038e-05 0.000610413 -4.08318e-05 -3.14524e-06
7.52918e-21 0.0105324 0.00171547 -0.00763371 0.000671596 -7.80837e-05
7.52918e-21 -0.0105324 0.00171555 0.00355381 -0.000324008 -1.99847e-05
0 0.0104246 0.00229102 0 0 0
-1.35525e-20 -0.0104246 0.00229102 0 0 0
0 -0.0106751 3.95308e-08 0 0 0
1.35525e-20 0.0106752 3.95301e-08 0 0 0
0 0.0105566 0.00221564 -0.00250802 0.000203147 -5.51106e-05
1.35525e-20 -0.0105566 0.00221565 0.00115917 -9.97399e-05 -2.51257e-05
1.35525e-20 -0.0105735 0.00236965 0 0 0
1.35525e-20 0.0105735 0.00236965 0 0 0
0 -0.0108504 0.000315325 0.00191037 -0.000134181 -4.11511e-06
0 0.0108504 0.000315285 -0.00502586 0.000293846 -5.31882e-05
2.71051e-20 0.0108348 0.000932849 -0.012477 0.000966556 -8.46304e-05
-2.71051e-20 -0.0108348 0.000932939 0.00563058 -0.000414695 -7.55399e-06
-2.71051e-20 0.0108178 0.0015192 -0.0134015 0.001114 -2.53064e-05
0 -0.0108178 0.00151928 0.00624731 -0.000501455 4.52402e-06
-1.35525e-20 -0.0106814 0.00242665 0 0 0
1.35525e-20 0.0106814 0.00242665 0 0 0
0 -0.0107334 0.002339 0.00136642 -0.000133202 6.023e-07
1.35525e-20 0.0107334 0.00233899 -0.00283942 0.000284355 7.74193e-06
-6.77626e-21 -0.0110782 8.04033e-09 0 0 0
0 0.0110782 8.03996e-09 0 0 0
0 -0.0110788 6.39066e-05 0.000390578 -2.61265e-05 -2.01251e-06
6.77626e-21 0.0110788 6.38974e-05 -0.00102401 5.16578e-05 -1.42075e-05
0 -0.0111402 -5.0826e-11 0 0 0
0 0.0111402 -5.09721e-11 0 0 0
-1.12938e-21 0.0111346 0.0006105 -0.0104396 0.000869159 -3.50282e-05
-2.25875e-21 -0.0111346 0.000610587 0.00467665 -0.000386452 -1.14685e-07
1.12938e-21 0.0111195 0.00122922 -0.0163402 0.00145066 -9.83795e-06
-2.25875e-21 -0.0111195 0.00122932 0.00755048 -0.000644099 6.05279e-06
0 0.0110331 0.00190695 -0.0127378 0.00118017 1.21483e-05
-1.807e-21 -0.0110331 0.00190701 0.00598823 -0.000535175 1.9795e-06
0 0.0111969 4.05707e-11 0 0 0
0 -0.0111969 4.06969e-11 0 0 0
0 0.011197 5.94825e-05 -0.00126603 0.000107376 -3.62886e-06
0 -0.011197 5.94923e-05 0.000577766 -5.24894e-05 3.91513e-07
2.71051e-20 0.0109687 0.00229798 -0.00686951 0.000688084 1.74875e-05
0 -0.0109687 0.002298 0.00331212 -0.000322396 2.43084e-07
0 0.0109784 0.0025835 0 0 0
1.35525e-20 -0.0109784 0.0025835 0 0 0
0 0.0110322 0.00252115 -0.00223808 0.000224134 6.10233e-06
-1.35525e-20 -0.0110322 0.00252116 0.00107701 -0.000104989 4.74732e-07
-1.35525e-20 -0.0110647 0.00262905 0 0 0
1.35525e-20 0.0110647 0.00262905 0 0 0
0 -0.0114329 0.000303637 0.00292737 -0.000263066 4.10314e-06
-2.71051e-20 0.0114329 0.000303602 -0.00640187 0.000558567 -1.16545e-05
0 -0.0111379 0.00266759 0 0 0
0 0.0111379 0.00266759 0 0 0
0 -0.0111676 0.0026113 0.00105865 -9.29978e-05 -2.45217e-06
1.35525e-20 0.0111676 0.0026113 -0.00223654 0.000203569 -1.5677e-06
-2.71051e-20 0.0114367 0.000916218 -0.0180276 0.00166632 5.00451e-06
-2.71051e-20 -0.0114367 0.000916296 0.0083231 -0.000737097 5.93499e-06
6.02335e-21 0.011273 0.00233142 -0.0104333 0.00098826 4.12247e-05
-1.50584e-21 -0.011273 0.00233144 0.00496255 -0.0004478 8.57008e-06
-2.71051e-20 0.0114108 0.00155884 -0.0214847 0.00205709 6.54727e-05
-2.71051e-20 -0.0114108 0.00155891 0.0100142 -0.000922753 2.128e-05
0 0.0114547 0.00210257 -0.0173019 0.00163298 0.000117355
-2.71051e-20 -0.0114548 0.00210261 0.00819911 -0.000725667 3.5774e-05
0 -0.0116763 1.11166e-09 0 0 0
0 0.0116763 1.11171e-09 0 0 0
0 -0.0116771 3.85435e-05 0.000374309 -3.40056e-05 2.53644e-07
0 0.0116771 3.8534e-05 -0.000820134 6.95583e-05 -2.35079e-06
-2.71051e-20 0.011407 0.00257358 -0.0072773 0.000657114 -1.01182e-05
-2.71051e-20 -0.011407 0.00257359 0.0034473 -0.000301699 -9.88817e-06
0 -0.0117135 1.17278e-09 0 0 0
-6.77626e-21 0.0117135 1.17283e-09 0 0 0
-6.77626e-21 0.0117497 1.11165e-09 0 0 0
6.77626e-21 -0.0117497 1.11158e-09 0 0 0
0 0.0117514 3.59557e-05 -0.000894168 8.47479e-05 -1.77472e-06
0 -0.0117514 3.59627e-05 0.000423365 -3.78626e-05 -1.83227e-07
-1.12938e-21 0.0117364 0.000596544 -0.0133886 0.00125326 -2.63911e-06
-1.69407e-21 -0.0117364 0.000596601 0.00625281 -0.000557295 4.20554e-06
-5.64689e-22 0.0117435 0.00122269 -0.0226765 0.00216483 3.88326e-05
5.64689e-22 -0.0117435 0.00122276 0.0106532 -0.000966859 1.39499e-05
6.77626e-21 0.0114702 0.00284265 0 0 0
-6.77626e-21 -0.0114702 0.00284265 0 0 0
-6.77626e-21 0.0114996 0.00279927 -0.00182881 0.000166457 -1.2819e-06
-6.77626e-21 -0.0114996 0.00279927 0.000865668 -7.60449e-05 -2.00516e-06
0 0.0115305 0.00287442 0 0 0
0 -0.0115305 0.00287442 0 0 0
3.38813e-21 0.0117521 0.00184882 -0.0232073 0.0022261 8.68557e-05
0 -0.0117521 0.00184887 0.0110296 -0.00100224 2.60162e-05
-1.35525e-20 -0.011585 0.00290382 0 0 0
6.77626e-21 0.011585 0.00290383 0 0 0
-5.64689e-21 0.0117097 0.00240795 -0.0151427 0.00146873 7.84752e-05
4.51751e-21 -0.0117097 0.00240797 0.00724028 -0.000665772 1.956e-05
0 -0.01162 0.00284239 0.00131272 -0.000137464 8.98909e-06
0 0.01162 0.00284239 -0.00275687 0.000291564 3.47301e-05
0 -0.0120252 0.000293165 0.00343199 -0.000302396 -1.08621e-06
0 0.0120252 0.000293146 -0.00723568 0.00068391 -1.44921e-05
2.71051e-20 0.0120563 0.000895205 -0.0222036 0.0021333 1.06759e-05
2.71051e-20 -0.0120563 0.000895248 0.0104747 -0.000939672 7.91334e-06
-2.71051e-20 0.0120785 0.0015256 -0.0290533 0.00281034 7.5815e-05
2.71051e-20 -0.0120785 0.00152564 0.0138303 -0.00127173 2.12782e-05
2.71051e-20 0.0119134 0.00273995 -0.0116113 0.00123848 0.000127065
-2.71051e-20 -0.0119134 0.00273996 0.0055381 -0.000572236 2.96831e-05
-2.71051e-20 0.0120751 0.00217652 -0.0256446 0.00247063 8.69067e-05
0 -0.0120751 0.00217654 0.0123904 -0.0011196 2.54847e-05
-3.38813e-21 -0.0122802 1.16251e-10 0 0 0
-3.38813e-21 0.0122802 1.16247e-10 0 0 0
0 -0.0122814 2.10156e-05 0.000247409 -2.21264e-05 -1.07076e-07
-3.38813e-21 0.0122814 2.10087e-05 -0.00052247 4.95189e-05 -1.03698e-06
3.38813e-21 -0.0123014 8.01245e-11 0 0 0
3.38813e-21 0.0123014 8.01301e-11 0 0 0
-3.38813e-21 0.012322 7.76986e-11 0 0 0
0 -0.012322 7.76925e-11 0 0 0
0 0.0123232 1.85971e-05 -0.000510871 5.5642e-05 -2.56837e-06
-3.38813e-21 -0.0123232 1.86029e-05 0.000247789 -2.36662e-05 -7.5302e-07
0 0.01193 0.00308971 0 0 0
0 -0.01193 0.00308971 0 0 0
6.77626e-21 0.0119644 0.0030398 -0.00235002 0.000248537 2.96048e-05
6.77626e-21 -0.0119644 0.0030398 0.00111896 -0.000117174 7.66229e-06
-1.12938e-21 0.0123483 0.000568672 -0.0152434 0.00149591 -7.18048e-06
0 -0.0123483 0.000568694 0.0073018 -0.000659923 2.29291e-06
0 -0.0119766 0.00311487 0 0 0
6.77626e-21 0.0119766 0.00311487 0 0 0
0 -0.0120209 0.00313842 0 0 0
0 0.0120209 0.00313842 0 0 0
-1.35525e-20 -0.0120441 0.00309412 0.00106076 -0.000123514 1.28676e-05
6.77626e-21 0.0120441 0.00309412 -0.00209948 0.000266109 4.01025e-05
1.12938e-21 0.012391 0.00118191 -0.0277926 0.00272709 4.59502e-05
1.69407e-21 -0.012391 0.00118194 0.0134108 -0.00123701 1.65436e-05
5.64689e-22 0.0124059 0.00184694 -0.0313579 0.00306614 0.000110804
-1.12938e-21 -0.0124059 0.00184696 0.0153569 -0.00141407 3.19625e-05
2.71051e-20 0.0126198 0.000269535 -0.00735972 0.00078597 -3.70916e-05
2.71051e-20 -0.0126198 0.000269545 0.00357182 -0.000333392 -1.03127e-05
1.807e-21 0.0123629 0.00258809 -0.0213161 0.00217844 0.000170776
9.03502e-22 -0.0123629 0.00258809 0.0106378 -0.00100582 5.28269e-05
2.71051e-20 -0.012324 0.00300712 0.00543512 -0.000598262 5.32972e-05
2.71051e-20 0.012324 0.00300712 -0.0107255 0.00132196 0.000185425
0 0.0126818 0.000839769 -0.0246184 0.00242077 1.3667e-05
0 -0.0126819 0.000839778 0.0119373 -0.00108256 1.32661e-05
0 -0.0123691 0.00332403 0 0 0
6.77626e-21 0.0123692 0.00332402 0 0 0
2.71051e-20 0.0127333 0.00147339 -0.0353917 0.00355309 8.48694e-05
0 -0.0127333 0.0014734 0.0174457 -0.00165845 2.40002e-05
6.77626e-21 -0.0123952 0.00328327 0.00102252 -0.000119062 1.24038e-05
6.77626e-21 0.0123952 0.00328326 -0.00202412 0.000256559 3.86632e-05
-6.77626e-21 -0.0124114 0.00334656 0 0 0
0 0.0124115 0.00334656 0 0 0
0 -0.0128908 5.71212e-06 5.32595e-05 -5.08679e-06 -1.61853e-07
0 0.0128903 3.97342e-12 -0.000109712 1.19494e-05 -5.5157e-07
0 -0.0128967 3.22163e-12 0 0 0
8.47033e-22 0.0128967 3.22196e-12 0 0 0
0 -0.0124524 0.00336833 0 0 0
0 0.0124525 0.00336833 0 0 0
0 0.0129024 4.47165e-06 -9.61023e-05 9.87881e-06 -1.40809e-06
0 -0.0129024 4.47647e-06 4.74603e-05 -4.2417e-06 -4.58607e-07
-6.77626e-21 -0.0124699 0.00333453 0.000929625 -0.000116268 2.68936e-05
6.77626e-21 0.01247 0.00333453 -0.00178775 0.00025548 6.84368e-05
0 0.0127306 0.0021762 -0.0355324 0.00345367 0.000194655
2.71051e-20 -0.0127306 0.00217621 0.0178599 -0.00161813 5.6901e-05
0 0.0129435 0.000502357 -0.0151442 0.00153897 -4.64815e-05
0 -0.0129436 0.000502359 0.00745693 -0.000686481 -1.23592e-05
-3.89635e-20 0.0129444 0.000510125 -0.0152833 0.00155241 -4.66368e-05
1.69407e-21 -0.0129526 0.000508428 0.00752628 -0.000692802 -1.24021e-05
0 -0.0126107 0.00303067 0.00786153 -0.000790624 8.13931e-05
-2.25875e-21 0.0126107 0.00303067 -0.0152817 0.00173222 0.000241665
0 0.0127835 0.00277774 -0.0255274 0.00262082 0.000261057
0 -0.0127835 0.00277774 0.0131809 -0.00122324 9.97787e-05
-1.97641e-22 -0.0130621 0.00107673 0.0152077 -0.0014274 4.35241e-06
1.41172e-22 0.0130621 0.00107673 -0.0301956 0.00304211 1.51309e-05
-2.71051e-20 -0.0127348 0.00327342 0.00523187 -0.000576591 9.52335e-05
-2.71051e-20 0.0127349 0.00327342 -0.0101002 0.00130685 0.000285696
0 0.0131536 0.000461241 -0.0143606 0.00148559 -5.82854e-05
0 -0.0131537 0.000461237 0.00711737 -0.000660245 -1.72169e-05
0 0.0131765 0.000218763 -0.00623543 0.000623364 -8.83227e-05
2.71051e-20 -0.0131765 0.000218756 0.00306798 -0.000267208 -2.72593e-05
4.23516e-22 0.0131833 1.68074e-12 0 0 0
0 -0.0131834 1.67988e-12 0 0 0
8.47033e-22 0.013081 0.00177272 -0.03877 0.00382749 0.000111112
-1.12938e-21 -0.013081 0.00177273 0.019913 -0.00184793 2.67016e-05
0 0.0127833 0.00354412 0 0 0
0 -0.0127833 0.00354413 0 0 0
-1.35525e-20 0.0128061 0.00351006 -0.00191672 0.00027391 7.33736e-05
0 -0.0128061 0.00351007 0.000996829 -0.000124673 2.88378e-05
5.64689e-22 0.0130749 0.00248236 -0.0353029 0.00347137 0.000185062
0 -0.0130749 0.00248236 0.0185061 -0.00168591 4.91173e-05
6.77626e-21 0.0128267 0.00356714 0 0 0
6.77626e-21 -0.0128267 0.00356715 0 0 0
0 0.0132939 0.000722069 -0.0237305 0.00246071 -6.99653e-05
0 -0.0132939 0.000722074 0.0119213 -0.00112486 -2.34382e-05
1.35525e-20 -0.0128705 0.00359021 0 0 0
6.77626e-21 0.0128705 0.0035902 0 0 0
0 -0.0129024 0.00352957 0.00189506 -0.00013888 4.0792e-05
0 0.0129024 0.00352956 -0.00347618 0.000284549 0.000105
0 -0.0130201 0.00308568 0.0113869 -0.00103877 9.36921e-05
-1.12938e-21 0.0130201 0.00308568 -0.0214351 0.00216295 0.000289262
0 -0.0133991 0.000404506 0.00658357 -0.000616859 -2.31009e-05
0 0.0133991 0.000404507 -0.0131682 0.0013957 -7.26278e-05
0 0.013401 0.000412597 -0.0133217 0.00141288 -7.22106e-05
6.77626e-21 -0.013401 0.000412597 0.00666157 -0.000624565 -2.29699e-05
8.47033e-22 0.0134864 4.8798e-06 -0.000103766 1.00805e-05 -1.41921e-06
0 -0.0134865 4.88093e-06 5.09354e-05 -4.31959e-06 -4.12721e-07
-8.47033e-22 0.0134935 6.35544e-15 0 0 0
0 -0.0134936 6.33962e-15 0 0 0
-2.71051e-20 0.0134291 0.0013211 -0.0389215 0.00391041 6.01024e-05
0 -0.0134291 0.0013211 0.0203004 -0.00192055 1.20327e-05
8.47033e-22 0.0134987 6.99577e-06 -0.000237124 2.69612e-05 -1.19317e-06
0 -0.0134988 6.99782e-06 0.000118598 -1.12803e-05 -2.96114e-07
0 0.0135005 6.30778e-15 0 0 0
0 -0.0135006 6.29213e-15 0 0 0
-2.71051e-20 0.0134156 0.00209107 -0.0449664 0.00437036 0.000105991
0 -0.0134156 0.00209107 0.0239174 -0.00218385 1.4867e-05
0 0.0131946 0.003407 -0.015868 0.00137749 0.000432231
2.71051e-20 -0.0131946 0.00340701 0.00857375 -0.000679817 0.000154941
2.71051e-20 -0.0133762 0.00281985 0.0197948 -0.00178464 1.98737e-05
0 0.0133762 0.00281985 -0.036513 0.0035617 0.00016834
0 0.0131542 0.00373938 0 0 0
0 -0.0131543 0.00373939 0 0 0
1.35525e-20 0.0132115 0.00367304 -0.00432955 0.000354403 0.000130776
0 -0.0132115 0.00367305 0.00236032 -0.000172977 5.08069e-05
0 0.0137224 0.000302331 -0.0103197 0.00119041 -5.76602e-05
-2.71051e-20 -0.0137225 0.000302334 0.00515801 -0.000497953 -1.80242e-05
0 0.0132141 0.00377084 0 0 0
0 -0.0132141 0.00377085 0 0 0
-2.25875e-22 0.0137748 0.000790616 -0.0257212 0.00263469 -6.21514e-05
-2.82344e-22 -0.0137748 0.000790615 0.0135288 -0.001263 -1.97744e-05
0 0.0132699 0.00380392 0 0 0
0 -0.0132699 0.00380392 0 0 0
0 0.0133033 0.0037381 -0.00412226 0.000326527 0.000107051
1.35525e-20 -0.0133033 0.0037381 0.00234193 -0.000189565 4.4889e-05
-6.35275e-22 0.013766 0.00148261 -0.0407581 0.00400623 1.66823e-05
-2.11758e-22 -0.013766 0.00148308 0.0220854 -0.0020313 3.62342e-06
-6.56451e-21 0.0137616 0.00166834 -0.044835 0.00437802 3.81129e-05
-2.11758e-22 -0.0137654 0.0016726 0.024398 -0.0022389 9.9919e-06
-1.12938e-21 0.0137168 0.00245604 -0.0456867 0.00441144 0.000139646
-2.82344e-22 -0.0137168 0.00245604 0.025459 -0.00230177 3.97757e-05
-9.03502e-22 0.0136289 0.00324654 -0.0290102 0.00275915 0.000257654
-4.51751e-22 -0.0136289 0.00324654 0.0165242 -0.00147249 8.16427e-05
-2.71051e-20 0.0135494 0.00365539 -0.0149956 0.00130146 0.000342007
-2.71051e-20 -0.0135494 0.00365539 0.00851363 -0.000735177 0.000125957
1.69407e-21 0.0140721 1.55614e-05 -0.000527459 5.99725e-05 -2.65409e-06
1.69407e-21 -0.0140722 1.55723e-05 0.000263918 -2.51022e-05 -6.58944e-07
0 0.0140756 -2.0176e-16 0 0 0
-1.69407e-21 -0.0140757 -2.01911e-16 0 0 0
3.38813e-21 0.0140911 -3.05359e-16 0 0 0
0 -0.0140912 -3.0516e-16 0 0 0
1.69407e-21 0.0141007 2.2037e-05 -0.000815847 8.78199e-05 -6.69518e-06
0 -0.0141008 2.20527e-05 0.000436132 -3.87688e-05 -1.22625e-06
0 0.0141074 -2.98024e-16 0 0 0
1.69407e-21 -0.0141076 -2.97827e-16 0 0 0
0 -0.0135544 0.00397426 0 0 0
0 0.0135544 0.00397427 0 0 0
0 -0.0140341 0.00165404 0.0263349 -0.00241332 1.70536e-05
-2.11758e-22 0.0140348 0.001654 -0.0469764 0.00457205 1.42095e-05
-6.77626e-21 -0.0135849 0.0039369 0.00151915 -0.000122965 2.91183e-05
0 0.0135849 0.00393691 -0.00267353 0.000211772 6.94291e-05
0 -0.0135876 0.00399408 0 0 0
6.77626e-21 0.0135876 0.00399409 0 0 0
-2.71051e-20 0.0141246 0.00121981 -0.0420991 0.0041295 -9.43498e-05
0 -0.0141246 0.00121981 0.0230821 -0.00214046 -2.90839e-05
6.77626e-21 0.0136161 0.00401528 0 0 0
0 -0.0136161 0.00401529 0 0 0
0 0.013638 0.00398927 -0.00191723 0.00016212 1.07316e-06
-6.77626e-21 -0.013638 0.00398927 0.00113334 -8.72635e-05 -2.28387e-06
-2.71051e-20 0.0140719 0.00204106 -0.053026 0.0050712 7.026e-05
5.42101e-20 -0.0140719 0.00204106 0.0300876 -0.00269447 3.79271e-05
2.71051e-20 0.0142772 0.000421917 -0.0157204 0.00168979 -0.000142663
0 -0.0142772 0.000421919 0.00840997 -0.000742593 -3.81608e-05
0 0.0140129 0.00281709 -0.0485863 0.00467279 0.000207186
2.71051e-20 -0.0140129 0.00281709 0.0282463 -0.00256049 8.46575e-05
0 -0.0138313 0.00369716 0.0120212 -0.0010751 5.71851e-05
3.76459e-22 0.0138313 0.00369716 -0.0204011 0.00194192 0.000188517
2.71051e-20 0.0140444 0.00346029 -0.0338095 0.00334328 0.000126103
-2.71051e-20 -0.0140444 0.00346029 0.0202403 -0.00185084 2.16485e-05
0 0.0139247 0.00394753 -0.0134192 0.00128348 9.66783e-05
-2.71051e-20 -0.0139247 0.00394753 0.00794257 -0.000697704 2.48775e-05
-4.23516e-22 -0.0144296 0.00162635 0.0291321 -0.00266567 2.70201e-05
4.23516e-22 0.0144296 0.00162636 -0.050043 0.00485023 -2.14028e-05
-1.05879e-20 -0.0144358 0.00162651 0.029196 -0.00267099 2.75522e-05
0 0.0144292 0.00163346 -0.0501266 0.00485761 -2.06765e-05
2.11758e-22 0.0144133 0.00187151 -0.0517278 0.00499646 2.38235e-05
2.11758e-22 -0.0144133 0.00187201 0.0304225 -0.00277818 4.94504e-05
3.38813e-21 -0.0139302 0.00424974 0 0 0
0 0.0139302 0.00424974 0 0 0
0 0.0145459 0.000829512 -0.0305582 0.0030561 -0.000113923
-1.41172e-21 -0.0145459 0.000829511 0.0172307 -0.00156747 -2.07171e-05
-1.41172e-22 0.0143705 0.00241704 -0.0553705 0.00531254 0.000124433
5.64689e-22 -0.0143705 0.00241704 0.0332043 -0.00302133 9.89425e-05
0 -0.0139467 0.00423388 0.000751653 -5.7875e-05 -1.51471e-06
3.38813e-21 0.0139467 0.00423389 -0.0012713 0.0001075 7.11604e-07
-3.38813e-21 -0.0139493 0.00426393 0 0 0
0 0.0139493 0.00426393 0 0 0
-3.38813e-21 0.0139672 0.00427742 0 0 0
3.38813e-21 -0.0139673 0.00427743 0 0 0
0 0.0139799 0.00425949 -0.0011997 0.00011977 6.15421e-06
3.38813e-21 -0.0139799 0.00425949 0.000766806 -6.81414e-05 -5.3586e-08
-2.82344e-22 0.0143443 0.0031393 -0.0473834 0.00459382 0.000197946
8.47033e-22 -0.0143443 0.0031393 0.0292074 -0.00268061 0.000108837
0 -0.0146845 2.60901e-05 0.00051598 -4.58666e-05 -1.45075e-06
0 0.0146845 2.60619e-05 -0.000964854 0.000103859 -7.91801e-06
-3.38813e-21 -0.0146916 -2.56338e-19 0 0 0
-3.38813e-21 0.0146916 -2.5093e-19 0 0 0
0 -0.0147109 8.3978e-18 0 0 0
0 0.0147109 8.40222e-18 0 0 0
0 0.0147271 2.99299e-05 -0.0012415 0.000126156 -2.43465e-06
-3.38813e-21 -0.0147271 2.99641e-05 0.000683829 -5.87591e-05 3.97168e-06
0 0.0147301 8.1741e-18 0 0 0
3.38813e-21 -0.0147302 8.16959e-18 0 0 0
-1.69407e-21 0.0143144 0.00384164 -0.0271729 0.00270326 0.000170642
-5.64689e-22 -0.0143144 0.00384165 0.01725 -0.00159944 7.58319e-05
2.71051e-20 -0.0147153 0.00202632 0.0363392 -0.00332377 0.000103237
0 0.0147153 0.00202632 -0.059436 0.00570513 4.68226e-05
2.71051e-20 -0.0148123 0.00125345 0.0269204 -0.0024917 -5.38376e-06
2.71051e-20 0.0148123 0.00125345 -0.0455311 0.00448643 -0.000106281
-5.42101e-20 0.0142662 0.00421646 -0.0124225 0.00136747 0.000122698
0 -0.0142662 0.00421647 0.00796021 -0.000784922 3.19075e-05
0 0.0146941 0.00275223 -0.0600402 0.00576393 0.000173998
2.71051e-20 -0.0146941 0.00275223 0.0378348 -0.00347763 0.000167314
0 -0.0149583 0.000465189 0.0108237 -0.00092438 -9.21943e-06
2.71051e-20 0.0149583 0.000465187 -0.01957 0.00197902 -0.000108789
0 -0.0143128 0.00453664 0 0 0
0 0.0143129 0.00453665 0 0 0
1.69407e-21 -0.0143174 0.0045308 0.000259292 -2.30417e-05 -1.81198e-08
1.69407e-21 0.0143174 0.00453082 -0.000405094 4.04419e-05 2.07805e-06
0 -0.014319 0.00454125 0 0 0
0 0.014319 0.00454125 0 0 0
0 0.0143246 0.00454547 0 0 0
0 -0.0143246 0.00454547 0 0 0
0 0.014329 0.00454047 -0.000388839 4.26996e-05 2.35437e-06
0 -0.014329 0.00454047 0.000255688 -2.47918e-05 4.64959e-08
0 0.0146519 0.00346949 -0.0484337 0.00471791 0.000283084
2.71051e-20 -0.0146519 0.00346949 0.0313906 -0.00291433 0.000167448
0 -0.0145371 0.00427137 0.0124341 -0.00120637 8.76191e-05
-4.23516e-22 0.0145371 0.00427137 -0.0188101 0.00199644 0.000182823
-1.8823e-22 -0.0150759 0.00166227 0.0336442 -0.00309516 8.34368e-05
0 0.0150759 0.00166227 -0.053885 0.00524141 -2.20957e-05
0 0.0146079 0.0042979 -0.0198736 0.00208013 0.000199216
0 -0.0146083 0.00429801 0.0133309 -0.00127648 9.98951e-05
-5.29396e-22 -0.0150582 0.00232575 0.0398481 -0.00367352 0.000169151
1.05879e-22 0.0150585 0.0023257 -0.0616689 0.00592455 9.42046e-05
0 0.0147146 0.00405696 -0.0319851 0.00319516 0.000236349
0 -0.0147146 0.00405696 0.0214235 -0.00199296 0.000144029
0 -0.0151053 0.00231902 0.0403073 -0.00371859 0.000174011
3.52048e-20 0.0151053 0.00231902 -0.0621008 0.00596651 9.21425e-05
0 0.015093 0.00240332 -0.0618398 0.00594057 0.000103998
2.64698e-22 -0.0150929 0.00240387 0.0402542 -0.00371484 0.000177965
1.69407e-21 0.014553 0.00471681 0 0 0
4.23516e-22 -0.0145535 0.00471718 0 0 0
4.23516e-22 0.0149811 0.00311066 -0.0596312 0.00572105 0.000204086
4.23516e-22 -0.0149812 0.00311066 0.0397826 -0.00368073 0.00021071
-9.74088e-21 0.0149807 0.00311889 -0.0596203 0.00571983 0.000204477
0 -0.0149884 0.00311084 0.0398086 -0.00368335 0.0002112
5.42101e-20 0.0146393 0.00452216 -0.0121046 0.00143216 0.000189441
0 -0.0146393 0.00452217 0.00797212 -0.000845087 8.72607e-05
0 -0.0153521 2.62975e-05 0.000600152 -5.1569e-05 3.48568e-06
0 0.0153522 2.62884e-05 -0.00109045 0.000110807 -2.13843e-06
0 -0.0153541 1.06036e-19 0 0 0
0 0.0153541 1.06058e-19 0 0 0
5.64689e-22 -0.0153336 0.000981682 0.0219871 -0.00200169 4.13436e-05
-5.64689e-22 0.0153336 0.000981684 -0.0356209 0.00356487 -7.31192e-05
-3.38813e-21 -0.015371 -9.43424e-20 0 0 0
0 0.015371 -9.43934e-20 0 0 0
-3.38813e-21 0.0153889 1.38802e-05 -0.000595122 6.52695e-05 -4.80445e-07
0 -0.0153889 1.38838e-05 0.000361198 -3.24188e-05 1.64271e-06
0 0.0153893 -9.17904e-20 0 0 0
0 -0.0153893 -9.17398e-20 0 0 0
0 0.0146775 0.00480513 -0.000136748 1.31504e-05 4.59004e-06
0 -0.0146713 0.00480158 9.39387e-05 -7.40353e-06 2.45815e-06
0 -0.0149797 0.00377544 0.0320485 -0.00297487 0.000193663
-2.49875e-20 0.0149766 0.00377561 -0.0465655 0.00452265 0.000255497
-6.35275e-22 0.0149779 0.00383376 -0.0446874 0.00434459 0.000257598
8.47033e-22 -0.0149779 0.00383404 0.0307898 -0.00285557 0.000190617
-2.71051e-20 0.0153191 0.00276241 -0.0685071 0.00653892 0.000114716
5.42101e-20 -0.0153191 0.00276241 0.046557 -0.00433788 0.000240742
2.25875e-22 -0.0149757 0.00442242 0.0178585 -0.00162613 0.000161542
-6.77626e-22 0.0149757 0.00442242 -0.0252749 0.00249898 0.000282392
2.71051e-20 0.0152934 0.00343578 -0.0613489 0.00584638 0.000244895
0 -0.0152934 0.00343579 0.0432621 -0.00398735 0.000267046
0 0.0149462 0.00476533 -0.011111 0.00095888 0.000324965
-2.71051e-20 -0.0149462 0.00476533 0.00791954 -0.000532568 0.000155411
-5.42101e-20 0.0157071 0.00173869 -0.0586179 0.00572614 5.95881e-06
5.42101e-20 -0.0157071 0.00173869 0.0401017 -0.00369492 0.000192445
2.71051e-20 0.0152785 0.00409439 -0.0463675 0.00450172 0.000257892
0 -0.0152785 0.0040944 0.0334675 -0.00312912 0.000201793
0 0.014998 0.00505066 0 0 0
0 -0.014998 0.00505067 0 0 0
0 0.0150083 0.00502928 -0.00129694 9.11289e-05 5.16266e-05
0 -0.0150083 0.00502931 0.000925225 -4.67921e-05 2.68121e-05
-8.68209e-21 -0.01566 0.00240905 0.0479765 -0.00446264 0.000226792
0 0.01566 0.00240905 -0.0680917 0.00650976 6.13514e-05
0 -0.0150173 0.00506515 0 0 0
0 0.0150173 0.00506514 0 0 0
-2.11758e-22 0.015642 0.00267535 -0.0682944 0.00650288 9.16419e-05
0 -0.015642 0.00267557 0.0485651 -0.0045166 0.000241119
0 -0.0150364 0.00507946 0 0 0
0 0.0150364 0.00507947 0 0 0
-6.77626e-21 -0.0150495 0.00506281 0.00095264 -5.05026e-05 3.25291e-05
0 0.0150495 0.00506281 -0.00129747 7.92163e-05 5.49827e-05
-5.42101e-20 0.015871 0.000522609 -0.0223448 0.00243587 -4.71005e-05
-5.42101e-20 -0.0158711 0.00052261 0.0136548 -0.00122766 4.24539e-05
0 -0.0156198 0.00308833 0.0494784 -0.00460021 0.000263143
0 0.0156143 0.00308867 -0.0686114 0.00649226 0.000138425
-1.50584e-21 0.0151805 0.0048173 -0.017147 0.00151879 0.000324192
0 -0.0151805 0.0048173 0.0125545 -0.00097613 0.000165259
0 0.0153242 0.00462128 -0.0296159 0.00285841 0.000402481
-2.71051e-20 -0.0153242 0.00462128 0.0218751 -0.0019465 0.000230024
-4.23516e-22 0.0155928 0.00376523 -0.0599669 0.00570249 0.000239858
2.82344e-22 -0.0155928 0.00376523 0.0446666 -0.00417162 0.000290873
-2.71051e-20 0.0152849 0.0050422 -0.0110972 0.0007818 0.000246383
0 -0.0152849 0.0050422 0.00815883 -0.000480971 0.000111663
0 -0.015956 0.00273569 0.0538776 -0.00502552 0.00023381
-2.71051e-20 0.015956 0.00273569 -0.0732336 0.00693993 4.42021e-05
3.5293e-23 -0.0156111 0.00436319 0.0350926 -0.00329391 0.000245593
1.41172e-22 0.0156111 0.00436314 -0.0458298 0.00443223 0.00028608
0 0.01536 0.00532139 -2.33733e-05 1.73752e-06 4.76769e-07
0 -0.015359 0.00532072 1.71259e-05 -1.18262e-06 2.18351e-07
2.71051e-20 -0.0159107 0.00341804 0.0541617 -0.00504417 0.00030881
0 0.0159107 0.00341804 -0.0712741 0.00663903 0.000148863
0 -0.0153751 0.00533351 0 0 0
1.05879e-22 0.0153755 0.00533384 0 0 0
0 0.0155376 0.00491086 -0.0240262 0.00224537 0.000241738
1.12938e-21 -0.0155376 0.00491087 0.0184509 -0.00162457 0.000122784
2.71051e-20 0.015907 0.00407426 -0.0609916 0.0058328 0.000302111
0 -0.015907 0.00407427 0.0478623 -0.00453527 0.000382129
0 0.0163929 0.00113505 -0.0421079 0.00423058 -2.49426e-05
-2.82344e-22 -0.0163929 0.00113505 0.0306429 -0.00272699 0.000132428
1.69407e-21 -0.0164714 7.31819e-06 0.000190389 -1.70881e-05 8.6588e-07
-1.69407e-21 0.0164714 7.30942e-06 -0.000313397 3.43715e-05 -2.53007e-07
0 -0.0164715 3.37843e-21 0 0 0
0 0.0164715 3.38102e-21 0 0 0
0 -0.0164799 3.92501e-21 0 0 0
0 0.0164799 3.92783e-21 0 0 0
0 0.0164875 7.98184e-06 -0.000358736 3.92202e-05 -3.45532e-07
0 -0.0164875 7.99151e-06 0.000263266 -2.16579e-05 4.54562e-07
0 0.0164879 3.93933e-21 0 0 0
1.69407e-21 -0.0164879 3.93671e-21 0 0 0
8.47033e-22 -0.0162419 0.00306677 0.0566148 -0.00528256 0.000286589
2.82344e-22 0.0162419 0.00306677 -0.0736222 0.00690058 8.07308e-05
0 -0.0163552 0.00243071 0.053194 -0.00491916 0.000262585
1.05879e-22 0.0163553 0.00243042 -0.0695337 0.00660853 3.20412e-05
1.19643e-20 -0.0163749 0.00231073 0.0525403 -0.00484975 0.000257912
1.05879e-22 0.0163752 0.00230864 -0.0687566 0.00655302 2.26993e-05
2.71051e-20 0.0156952 0.00522881 -0.0171119 0.00159278 0.000135134
0 -0.0156952 0.00522881 0.0132889 -0.00118322 2.52916e-05
0 0.0158708 0.00471772 -0.0415773 0.00410849 0.000203161
0 -0.0158708 0.00471773 0.0331785 -0.0031806 0.000145821
0 -0.0156945 0.00557308 0 0 0
0 0.0156945 0.00557309 0 0 0
1.69407e-21 -0.0157031 0.00556196 0.000687852 -6.39961e-05 7.15672e-06
0 0.0157031 0.00556198 -0.000879363 8.60214e-05 1.44823e-05
0 -0.0157032 0.00557964 0 0 0
0 0.0157032 0.00557964 0 0 0
-1.69407e-21 0.0157125 0.0055866 0 0 0
0 -0.0157125 0.00558661 0 0 0
0 0.0157204 0.00557597 -0.000807759 9.10394e-05 1.40777e-05
0 -0.0157205 0.00557597 0.00066274 -7.16893e-05 7.7706e-06
1.41172e-22 -0.0163001 0.00366347 0.0559842 -0.0052884 0.000355266
-2.82344e-22 0.0163001 0.00366347 -0.0698308 0.00655097 0.000172206
1.41172e-22 0.0161921 0.00441855 -0.0573028 0.00549145 0.000232059
2.82344e-22 -0.0161921 0.00441855 0.0472164 -0.00452985 0.00032055
-2.35287e-22 -0.0161069 0.00511691 0.0268914 -0.00260091 0.000153314
3.76459e-22 0.0161069 0.0051169 -0.0320863 0.00317134 0.000194604
2.71051e-20 0.01604 0.00551404 -0.0154169 0.00169537 0.000197487
5.42101e-20 -0.01604 0.00551404 0.0125863 -0.0013189 9.40553e-05
2.71051e-20 -0.016526 0.00408753 0.0600443 -0.00576475 0.000386153
5.42101e-20 0.016526 0.00408753 -0.0716974 0.00671526 0.000154995
0 0.0170249 0.000578089 -0.0260666 0.00279818 -4.82671e-05
0 -0.0170249 0.000578088 0.0192961 -0.00156791 2.27123e-05
0 0.0169748 0.00175444 -0.0629453 0.00610175 -7.97087e-06
-5.42101e-20 -0.0169748 0.00175444 0.0506183 -0.00452115 0.000278677
0 -0.0160444 0.00583567 0 0 0
0 0.0160444 0.00583566 0 0 0
3.38813e-21 -0.0160574 0.00581994 0.00101695 -0.000110004 1.19236e-05
0 0.0160574 0.00581994 -0.00124025 0.000139784 2.16152e-05
0 0.0160586 0.00584628 0 0 0
0 -0.0160586 0.00584629 0 0 0
0 0.0160728 0.00585689 0 0 0
3.38813e-21 -0.0160728 0.00585691 0 0 0
-3.38813e-21 0.0160861 0.00584361 -0.00117458 0.000138273 1.89936e-05
3.38813e-21 -0.0160861 0.00584362 0.00101121 -0.000114041 1.22027e-05
0 -0.0168748 0.00305299 0.0651014 -0.0060922 0.000342349
0 0.0168748 0.00305299 -0.0779568 0.00724354 3.74307e-05
0 0.0164851 0.00475809 -0.055583 0.00536559 0.000263912
0 -0.0164851 0.00475809 0.048343 -0.00469392 0.000370413
-1.8823e-22 0.0163205 0.005565 -0.0221176 0.00235591 0.000190896
0 -0.0163205 0.00556501 0.019132 -0.00196288 0.000127494
-1.8823e-22 0.0168571 0.00373388 -0.076082 0.00711722 7.69412e-05
8.47033e-22 -0.0168571 0.00373388 0.0654731 -0.00622758 0.000354075
0 0.0165295 0.00534686 -0.0368367 0.0037066 0.000172592
0 -0.0165295 0.00534686 0.0327498 -0.00321247 0.000166968
-5.64689e-22 -0.0168299 0.0044115 0.060813 -0.0058296 0.000352004
4.23516e-22 0.0168299 0.0044115 -0.0686686 0.00647398 0.000117589
2.71051e-20 0.0164078 0.00581578 -0.0147469 0.00172522 0.000202939
0 -0.0164078 0.00581579 0.0126474 -0.00141104 0.000123598
3.38813e-21 -0.0163998 0.00610069 0 0 0
0 0.0163998 0.00610068 0 0 0
-3.38813e-21 0.0164127 0.00608898 -0.00107953 0.000127084 1.74566e-05
3.38813e-21 -0.0164127 0.00608898 0.000929389 -0.000104813 1.12154e-05
0 0.0164129 0.00611042 0 0 0
-3.38813e-21 -0.0164129 0.00611043 0 0 0
0 0.016425 0.00612105 0 0 0
0 -0.016425 0.00612106 0 0 0
0 0.0164353 0.00610824 -0.000985156 0.000112467 1.72224e-05
0 -0.0164353 0.00610825 0.000900804 -9.49792e-05 1.06691e-05
-8.47033e-22 -0.0168163 0.00505861 0.0485968 -0.00469918 0.000290456