# Force       
# CofR        : (0.000000e+00 0.000000e+00 0.000000e+00)
#
# Time        	(total_x total_y total_z)	(pressure_x pressure_y pressure_z)	(viscous_x viscous_y viscous_z)
1             	(3.784896e+01 -1.962010e+02 9.512997e+02)	(3.780286e+01 -1.962023e+02 9.513014e+02)	(4.609724e-02 1.354150e-03 -1.744548e-03)
2             	(3.174786e+01 -1.972710e+02 9.514443e+02)	(3.172978e+01 -1.972688e+02 9.514446e+02)	(1.808649e-02 -2.245639e-03 -3.309374e-04)
3             	(1.939904e+01 -1.994233e+02 9.519271e+02)	(1.941063e+01 -1.994164e+02 9.519262e+02)	(-1.159072e-02 -6.904044e-03 9.242346e-04)
4             	(-2.100594e+00 -2.031737e+02 9.529753e+02)	(-2.079303e+00 -2.031650e+02 9.529711e+02)	(-2.129098e-02 -8.717096e-03 4.161462e-03)
5             	(-2.448296e+01 -2.070760e+02 9.531139e+02)	(-2.446439e+01 -2.070681e+02 9.531114e+02)	(-1.857148e-02 -7.828833e-03 2.504896e-03)
6             	(-3.382064e+01 -2.086968e+02 9.524150e+02)	(-3.381345e+01 -2.086912e+02 9.524134e+02)	(-7.186256e-03 -5.569027e-03 1.505099e-03)
7             	(-3.148080e+01 -2.082882e+02 9.522024e+02)	(-3.148974e+01 -2.082858e+02 9.522030e+02)	(8.937747e-03 -2.388617e-03 -6.098614e-04)
8             	(-2.255445e+01 -2.067189e+02 9.519673e+02)	(-2.257478e+01 -2.067190e+02 9.519702e+02)	(2.032950e-02 9.801732e-05 -2.877788e-03)
9             	(-8.490509e+00 -2.042165e+02 9.514876e+02)	(-8.516502e+00 -2.042178e+02 9.514919e+02)	(2.599291e-02 1.329377e-03 -4.271695e-03)
10            	(4.814545e+00 -2.018789e+02 9.514778e+02)	(4.789322e+00 -2.018802e+02 9.514831e+02)	(2.522342e-02 1.325274e-03 -5.296163e-03)
11            	(1.191724e+01 -2.006348e+02 9.514342e+02)	(1.189844e+01 -2.006351e+02 9.514393e+02)	(1.880579e-02 3.085405e-04 -5.042565e-03)
12            	(1.362559e+01 -2.003345e+02 9.513794e+02)	(1.361648e+01 -2.003331e+02 9.513842e+02)	(9.112294e-03 -1.399592e-03 -4.786974e-03)
13            	(1.195299e+01 -2.006303e+02 9.513456e+02)	(1.195205e+01 -2.006273e+02 9.513492e+02)	(9.418258e-04 -2.939927e-03 -3.606799e-03)
14            	(8.240827e+00 -2.012887e+02 9.513908e+02)	(8.244767e+00 -2.012847e+02 9.513926e+02)	(-3.940291e-03 -4.005331e-03 -1.856358e-03)
15            	(3.594008e+00 -2.021338e+02 9.516271e+02)	(3.599018e+00 -2.021294e+02 9.516280e+02)	(-5.010017e-03 -4.402924e-03 -8.935318e-04)
16            	(-7.557979e-01 -2.029032e+02 9.518447e+02)	(-7.526068e-01 -2.028991e+02 9.518453e+02)	(-3.191105e-03 -4.146022e-03 -6.089555e-04)
17            	(-3.657695e+00 -2.034161e+02 9.520900e+02)	(-3.658036e+00 -2.034127e+02 9.520905e+02)	(3.410499e-04 -3.432037e-03 -4.643162e-04)
18            	(-4.296084e+00 -2.035359e+02 9.522451e+02)	(-4.300674e+00 -2.035334e+02 9.522452e+02)	(4.589795e-03 -2.529582e-03 -1.490834e-04)
19            	(-3.897192e+00 -2.034701e+02 9.523360e+02)	(-3.905223e+00 -2.034684e+02 9.523353e+02)	(8.030971e-03 -1.712308e-03 7.142393e-04)
20            	(-2.814199e+00 -2.032795e+02 9.523486e+02)	(-2.824103e+00 -2.032784e+02 9.523469e+02)	(9.904340e-03 -1.178531e-03 1.674283e-03)
21            	(-1.381698e+00 -2.030136e+02 9.522395e+02)	(-1.391811e+00 -2.030126e+02 9.522370e+02)	(1.011244e-02 -9.878387e-04 2.555900e-03)
22            	(-5.537779e-02 -2.027770e+02 9.521403e+02)	(-6.433200e-02 -2.027759e+02 9.521371e+02)	(8.954206e-03 -1.095613e-03 3.271999e-03)
23            	(1.086382e+00 -2.025753e+02 9.520058e+02)	(1.079342e+00 -2.025739e+02 9.520020e+02)	(7.039281e-03 -1.428413e-03 3.809934e-03)
24            	(1.679099e+00 -2.024713e+02 9.518814e+02)	(1.674111e+00 -2.024695e+02 9.518773e+02)	(4.988598e-03 -1.847333e-03 4.075312e-03)
25            	(1.781621e+00 -2.024503e+02 9.517755e+02)	(1.778421e+00 -2.024480e+02 9.517714e+02)	(3.199555e-03 -2.251397e-03 4.104767e-03)
26            	(1.546837e+00 -2.024907e+02 9.517299e+02)	(1.544916e+00 -2.024881e+02 9.517259e+02)	(1.921205e-03 -2.550705e-03 3.979110e-03)
27            	(1.141428e+00 -2.025631e+02 9.517032e+02)	(1.140114e+00 -2.025604e+02 9.516994e+02)	(1.314171e-03 -2.697023e-03 3.768425e-03)
28            	(8.261705e-01 -2.026201e+02 9.517080e+02)	(8.248235e-01 -2.026174e+02 9.517044e+02)	(1.346965e-03 -2.699006e-03 3.518674e-03)
29            	(4.491432e-01 -2.026848e+02 9.517185e+02)	(4.473286e-01 -2.026822e+02 9.517152e+02)	(1.814613e-03 -2.574958e-03 3.369633e-03)
30            	(1.778116e-01 -2.027309e+02 9.517448e+02)	(1.753173e-01 -2.027285e+02 9.517415e+02)	(2.494273e-03 -2.367775e-03 3.337822e-03)
31            	(7.298070e-02 -2.027468e+02 9.517710e+02)	(6.983691e-02 -2.027447e+02 9.517676e+02)	(3.143790e-03 -2.141305e-03 3.446610e-03)
32            	(3.992086e-02 -2.027510e+02 9.518014e+02)	(3.633332e-02 -2.027490e+02 9.517977e+02)	(3.587538e-03 -1.942639e-03 3.676679e-03)
33            	(9.991595e-02 -2.027386e+02 9.518094e+02)	(9.610425e-02 -2.027368e+02 9.518054e+02)	(3.811700e-03 -1.798816e-03 3.944027e-03)
34            	(1.752112e-01 -2.027243e+02 9.518176e+02)	(1.714044e-01 -2.027226e+02 9.518134e+02)	(3.806847e-03 -1.719214e-03 4.227195e-03)
35            	(2.702255e-01 -2.027077e+02 9.518150e+02)	(2.665995e-01 -2.027060e+02 9.518105e+02)	(3.625941e-03 -1.698634e-03 4.474375e-03)
36            	(3.156988e-01 -2.026999e+02 9.518029e+02)	(3.123494e-01 -2.026982e+02 9.517982e+02)	(3.349330e-03 -1.714057e-03 4.652378e-03)
37            	(3.873757e-01 -2.026881e+02 9.517810e+02)	(3.843507e-01 -2.026864e+02 9.517763e+02)	(3.024997e-03 -1.760717e-03 4.716115e-03)
38            	(3.901695e-01 -2.026880e+02 9.517614e+02)	(3.874476e-01 -2.026862e+02 9.517567e+02)	(2.721891e-03 -1.809161e-03 4.718352e-03)
39            	(4.040293e-01 -2.026876e+02 9.517465e+02)	(4.015728e-01 -2.026858e+02 9.517419e+02)	(2.456498e-03 -1.848523e-03 4.624298e-03)
40            	(4.090692e-01 -2.026876e+02 9.517305e+02)	(4.067957e-01 -2.026857e+02 9.517260e+02)	(2.273453e-03 -1.873764e-03 4.488977e-03)
41            	(4.098985e-01 -2.026893e+02 9.517240e+02)	(4.077365e-01 -2.026874e+02 9.517197e+02)	(2.161975e-03 -1.872361e-03 4.315185e-03)
42            	(4.238123e-01 -2.026880e+02 9.517175e+02)	(4.216911e-01 -2.026861e+02 9.517133e+02)	(2.121278e-03 -1.853837e-03 4.130595e-03)
43            	(4.366566e-01 -2.026870e+02 9.517168e+02)	(4.345147e-01 -2.026852e+02 9.517129e+02)	(2.141940e-03 -1.818959e-03 3.958008e-03)
44            	(4.197986e-01 -2.026945e+02 9.517368e+02)	(4.175842e-01 -2.026927e+02 9.517329e+02)	(2.214350e-03 -1.768561e-03 3.815198e-03)
45            	(4.304684e-01 -2.026938e+02 9.517453e+02)	(4.281508e-01 -2.026920e+02 9.517416e+02)	(2.317536e-03 -1.714094e-03 3.700798e-03)
46            	(4.326580e-01 -2.026937e+02 9.517521e+02)	(4.302138e-01 -2.026920e+02 9.517485e+02)	(2.444165e-03 -1.660793e-03 3.636124e-03)
47            	(4.258676e-01 -2.026962e+02 9.517647e+02)	(4.232797e-01 -2.026946e+02 9.517610e+02)	(2.587946e-03 -1.611045e-03 3.617291e-03)
48            	(4.138666e-01 -2.026995e+02 9.517769e+02)	(4.111345e-01 -2.026980e+02 9.517733e+02)	(2.732084e-03 -1.565954e-03 3.636522e-03)
