# Force       
# CofR        : (0.000000e+00 0.000000e+00 0.000000e+00)
#
# Time        	(total_x total_y total_z)	(pressure_x pressure_y pressure_z)	(viscous_x viscous_y viscous_z)
1             	(5.909697e+01 5.027169e+01 -3.341258e-02)	(5.898316e+01 5.026076e+01 -3.326085e-02)	(1.138068e-01 1.092991e-02 -1.517265e-04)
2             	(4.907936e+01 4.195290e+01 9.208505e-02)	(4.900385e+01 4.196316e+01 9.261385e-02)	(7.550938e-02 -1.026060e-02 -5.287988e-04)
3             	(2.917596e+01 2.513490e+01 5.198967e-01)	(2.912826e+01 2.516008e+01 5.208462e-01)	(4.770368e-02 -2.517149e-02 -9.495402e-04)
4             	(7.082099e+00 6.237883e+00 1.111698e+00)	(7.049691e+00 6.270115e+00 1.112396e+00)	(3.240823e-02 -3.223124e-02 -6.975118e-04)
5             	(-1.027816e+01 -8.794806e+00 1.592946e+00)	(-1.030451e+01 -8.761647e+00 1.592859e+00)	(2.635037e-02 -3.315934e-02 8.729838e-05)
6             	(-1.999654e+01 -1.722112e+01 1.789995e+00)	(-2.002344e+01 -1.719018e+01 1.788648e+00)	(2.689710e-02 -3.094546e-02 1.346064e-03)
7             	(-2.135072e+01 -1.846501e+01 1.616915e+00)	(-2.138752e+01 -1.844239e+01 1.614162e+00)	(3.679995e-02 -2.262205e-02 2.752924e-03)
8             	(-1.727480e+01 -1.508078e+01 1.168204e+00)	(-1.732663e+01 -1.506963e+01 1.164293e+00)	(5.182624e-02 -1.114714e-02 3.911368e-03)
9             	(-9.782630e+00 -8.734876e+00 4.648631e-01)	(-9.848359e+00 -8.734980e+00 4.605715e-01)	(6.572900e-02 1.046174e-04 4.291618e-03)
10            	(-1.901539e+00 -2.060253e+00 -1.646758e-01)	(-1.973955e+00 -2.068230e+00 -1.684981e-01)	(7.241636e-02 7.976456e-03 3.822246e-03)
11            	(4.225262e+00 3.214387e+00 -5.557228e-01)	(4.153386e+00 3.203822e+00 -5.585383e-01)	(7.187633e-02 1.056541e-02 2.815474e-03)
12            	(7.649999e+00 6.260860e+00 -6.166723e-01)	(7.584275e+00 6.252361e+00 -6.186417e-01)	(6.572354e-02 8.498385e-03 1.969396e-03)
13            	(8.309382e+00 6.983691e+00 -3.605164e-01)	(8.252686e+00 6.979909e+00 -3.619386e-01)	(5.669569e-02 3.781716e-03 1.422255e-03)
14            	(6.931217e+00 5.927864e+00 7.578033e-02)	(6.884003e+00 5.929555e+00 7.456740e-02)	(4.721404e-02 -1.691332e-03 1.212938e-03)
15            	(4.535400e+00 3.947664e+00 6.002167e-01)	(4.496161e+00 3.954105e+00 5.988585e-01)	(3.923922e-02 -6.441406e-03 1.358133e-03)
16            	(1.785631e+00 1.569645e+00 1.118723e+00)	(1.751797e+00 1.579452e+00 1.116789e+00)	(3.383340e-02 -9.807438e-03 1.934821e-03)
17            	(-4.202129e-01 -3.701673e-01 1.428333e+00)	(-4.516180e-01 -3.588226e-01 1.425423e+00)	(3.140519e-02 -1.134468e-02 2.909594e-03)
18            	(-1.710540e+00 -1.543538e+00 1.492846e+00)	(-1.742078e+00 -1.532455e+00 1.488840e+00)	(3.153842e-02 -1.108352e-02 4.005656e-03)
19            	(-2.025751e+00 -1.868106e+00 1.362591e+00)	(-2.059130e+00 -1.858669e+00 1.357615e+00)	(3.337957e-02 -9.436390e-03 4.975936e-03)
20            	(-1.696561e+00 -1.626594e+00 1.134397e+00)	(-1.732359e+00 -1.619430e+00 1.128657e+00)	(3.579734e-02 -7.164736e-03 5.739797e-03)
21            	(-9.843071e-01 -1.042390e+00 8.769298e-01)	(-1.022184e+00 -1.037457e+00 8.706501e-01)	(3.787665e-02 -4.932914e-03 6.279718e-03)
22            	(-1.150962e-01 -2.878105e-01 6.467287e-01)	(-1.541924e-01 -2.846552e-01 6.401260e-01)	(3.909620e-02 -3.155271e-03 6.602624e-03)
23            	(6.439135e-01 3.876369e-01 5.301269e-01)	(6.046383e-01 3.897205e-01 5.233574e-01)	(3.927523e-02 -2.083615e-03 6.769502e-03)
24            	(1.115460e+00 8.193705e-01 5.444881e-01)	(1.076930e+00 8.211302e-01 5.375938e-01)	(3.852989e-02 -1.759745e-03 6.894370e-03)
25            	(1.311010e+00 1.016377e+00 6.539870e-01)	(1.273820e+00 1.018374e+00 6.469404e-01)	(3.718988e-02 -1.996815e-03 7.046593e-03)
26            	(1.273494e+00 1.011873e+00 8.122531e-01)	(1.237881e+00 1.014418e+00 8.049864e-01)	(3.561307e-02 -2.544714e-03 7.266709e-03)
27            	(1.097645e+00 8.825918e-01 9.776163e-01)	(1.063513e+00 8.857296e-01 9.700448e-01)	(3.413173e-02 -3.137760e-03 7.571475e-03)
28            	(8.563911e-01 6.869899e-01 1.122916e+00)	(8.234249e-01 6.905730e-01 1.114952e+00)	(3.296617e-02 -3.583079e-03 7.964110e-03)
29            	(6.177253e-01 4.776135e-01 1.224511e+00)	(5.855226e-01 4.814081e-01 1.216084e+00)	(3.220270e-02 -3.794615e-03 8.426944e-03)
30            	(4.386858e-01 3.126081e-01 1.270846e+00)	(4.068867e-01 3.163664e-01 1.261918e+00)	(3.179913e-02 -3.758312e-03 8.927610e-03)
31            	(3.255612e-01 2.037410e-01 1.270521e+00)	(2.939302e-01 2.072784e-01 1.261084e+00)	(3.163098e-02 -3.537434e-03 9.437115e-03)
32            	(2.949145e-01 1.700176e-01 1.238471e+00)	(2.633335e-01 1.732326e-01 1.228558e+00)	(3.158103e-02 -3.214979e-03 9.913122e-03)
33            	(3.216951e-01 1.866024e-01 1.195485e+00)	(2.901504e-01 1.895001e-01 1.185159e+00)	(3.154473e-02 -2.897728e-03 1.032602e-02)
34            	(3.637894e-01 2.191557e-01 1.170733e+00)	(3.323582e-01 2.218332e-01 1.160067e+00)	(3.143124e-02 -2.677520e-03 1.066588e-02)
35            	(4.372477e-01 2.814569e-01 1.125246e+00)	(4.059631e-01 2.840229e-01 1.114345e+00)	(3.128457e-02 -2.565994e-03 1.090153e-02)
36            	(4.814369e-01 3.203610e-01 1.109089e+00)	(4.504662e-01 3.229603e-01 1.098033e+00)	(3.097074e-02 -2.599232e-03 1.105610e-02)
37            	(5.456324e-01 3.824376e-01 1.085826e+00)	(5.149889e-01 3.851292e-01 1.074689e+00)	(3.064349e-02 -2.691563e-03 1.113692e-02)
38            	(5.873677e-01 4.255333e-01 1.080746e+00)	(5.570915e-01 4.283553e-01 1.069565e+00)	(3.027611e-02 -2.821953e-03 1.118112e-02)
39            	(5.913618e-01 4.348935e-01 1.089837e+00)	(5.614538e-01 4.378589e-01 1.078620e+00)	(2.990796e-02 -2.965303e-03 1.121718e-02)
40            	(5.881938e-01 4.363306e-01 1.102723e+00)	(5.586266e-01 4.394243e-01 1.091475e+00)	(2.956721e-02 -3.093645e-03 1.124786e-02)
41            	(5.907478e-01 4.452838e-01 1.125949e+00)	(5.614577e-01 4.484551e-01 1.114651e+00)	(2.929006e-02 -3.171227e-03 1.129854e-02)
42            	(5.852748e-01 4.408544e-01 1.135395e+00)	(5.561937e-01 4.440711e-01 1.124039e+00)	(2.908114e-02 -3.216731e-03 1.135552e-02)
43            	(5.816932e-01 4.375926e-01 1.144054e+00)	(5.527961e-01 4.408340e-01 1.132642e+00)	(2.889706e-02 -3.241363e-03 1.141133e-02)
44            	(5.767032e-01 4.325983e-01 1.161773e+00)	(5.479483e-01 4.358386e-01 1.150286e+00)	(2.875487e-02 -3.240228e-03 1.148697e-02)
45            	(5.776692e-01 4.331562e-01 1.166445e+00)	(5.490341e-01 4.363804e-01 1.154900e+00)	(2.863515e-02 -3.224233e-03 1.154428e-02)
46            	(5.797911e-01 4.349579e-01 1.169569e+00)	(5.512705e-01 4.381750e-01 1.157989e+00)	(2.852059e-02 -3.217122e-03 1.157955e-02)
47            	(5.828627e-01 4.374142e-01 1.171316e+00)	(5.544579e-01 4.406344e-01 1.159728e+00)	(2.840483e-02 -3.220183e-03 1.158806e-02)
48            	(5.812621e-01 4.345616e-01 1.173351e+00)	(5.529794e-01 4.378041e-01 1.161775e+00)	(2.828265e-02 -3.242481e-03 1.157587e-02)
49            	(5.844990e-01 4.382148e-01 1.170696e+00)	(5.563545e-01 4.414875e-01 1.159166e+00)	(2.814451e-02 -3.272670e-03 1.153004e-02)
50            	(5.882636e-01 4.425413e-01 1.165814e+00)	(5.602528e-01 4.458663e-01 1.154342e+00)	(2.801076e-02 -3.324968e-03 1.147213e-02)
51            	(5.936191e-01 4.491629e-01 1.153158e+00)	(5.657417e-01 4.525490e-01 1.141760e+00)	(2.787741e-02 -3.386117e-03 1.139779e-02)
52            	(5.994098e-01 4.555659e-01 1.144864e+00)	(5.716675e-01 4.590093e-01 1.133552e+00)	(2.774223e-02 -3.443421e-03 1.131178e-02)
53            	(6.074150e-01 4.641531e-01 1.134970e+00)	(5.797934e-01 4.676528e-01 1.123737e+00)	(2.762159e-02 -3.499691e-03 1.123355e-02)
54            	(6.260399e-01 4.836988e-01 1.115728e+00)	(5.985109e-01 4.872268e-01 1.104577e+00)	(2.752899e-02 -3.528012e-03 1.115085e-02)
55            	(6.378248e-01 4.958012e-01 1.105910e+00)	(6.103748e-01 4.993378e-01 1.094847e+00)	(2.745001e-02 -3.536608e-03 1.106332e-02)
56            	(6.520509e-01 5.103542e-01 1.096372e+00)	(6.246545e-01 5.138933e-01 1.085379e+00)	(2.739647e-02 -3.539091e-03 1.099274e-02)
57            	(6.836632e-01 5.427351e-01 1.080766e+00)	(6.562794e-01 5.462409e-01 1.069843e+00)	(2.738376e-02 -3.505806e-03 1.092286e-02)
58            	(6.993744e-01 5.588744e-01 1.073351e+00)	(6.720002e-01 5.623332e-01 1.062503e+00)	(2.737420e-02 -3.458770e-03 1.084825e-02)
59            	(7.348225e-01 5.946763e-01 1.061657e+00)	(7.074146e-01 5.980629e-01 1.050863e+00)	(2.740794e-02 -3.386594e-03 1.079390e-02)
60            	(7.496150e-01 6.097420e-01 1.055033e+00)	(7.221751e-01 6.130413e-01 1.044304e+00)	(2.743990e-02 -3.299265e-03 1.072944e-02)
61            	(7.817236e-01 6.405434e-01 1.043004e+00)	(7.542193e-01 6.437482e-01 1.032319e+00)	(2.750438e-02 -3.204826e-03 1.068487e-02)
62            	(7.947163e-01 6.538536e-01 1.033595e+00)	(7.671588e-01 6.569610e-01 1.022963e+00)	(2.755753e-02 -3.107391e-03 1.063169e-02)
63            	(8.254210e-01 6.848705e-01 1.012692e+00)	(7.977871e-01 6.878771e-01 1.002099e+00)	(2.763396e-02 -3.006656e-03 1.059231e-02)
64            	(8.363723e-01 6.963802e-01 9.973615e-01)	(8.086765e-01 6.992860e-01 9.868121e-01)	(2.769577e-02 -2.905800e-03 1.054944e-02)
65            	(8.599648e-01 7.202378e-01 9.671613e-01)	(8.321903e-01 7.230383e-01 9.566483e-01)	(2.777449e-02 -2.800462e-03 1.051305e-02)
66            	(8.711117e-01 7.322015e-01 9.438792e-01)	(8.432638e-01 7.348896e-01 9.334190e-01)	(2.784786e-02 -2.688095e-03 1.046023e-02)
67            	(8.957890e-01 7.577215e-01 9.028844e-01)	(8.678491e-01 7.602990e-01 8.924822e-01)	(2.793989e-02 -2.577514e-03 1.040222e-02)
68            	(9.078043e-01 7.708273e-01 8.738313e-01)	(8.797761e-01 7.732942e-01 8.635073e-01)	(2.802812e-02 -2.466910e-03 1.032401e-02)
69            	(9.350988e-01 7.993112e-01 8.270785e-01)	(9.069614e-01 8.016650e-01 8.168446e-01)	(2.813744e-02 -2.353840e-03 1.023392e-02)
70            	(9.472556e-01 8.126001e-01 7.969818e-01)	(9.190143e-01 8.148416e-01 7.868577e-01)	(2.824129e-02 -2.241567e-03 1.012411e-02)
71            	(9.743187e-01 8.410537e-01 7.524001e-01)	(9.459508e-01 8.431762e-01 7.423975e-01)	(2.836787e-02 -2.122488e-03 1.000265e-02)
72            	(9.844410e-01 8.522008e-01 7.259973e-01)	(9.559578e-01 8.542084e-01 7.161338e-01)	(2.848326e-02 -2.007603e-03 9.863449e-03)
73            	(1.005539e+00 8.748106e-01 6.901874e-01)	(9.769250e-01 8.767009e-01 6.804647e-01)	(2.861417e-02 -1.890373e-03 9.722631e-03)
74            	(1.011668e+00 8.817650e-01 6.698107e-01)	(9.829385e-01 8.835406e-01 6.602452e-01)	(2.872938e-02 -1.775555e-03 9.565529e-03)
75            	(1.023405e+00 8.947389e-01 6.449736e-01)	(9.945548e-01 8.964039e-01 6.355542e-01)	(2.885010e-02 -1.665017e-03 9.419378e-03)
76            	(1.029901e+00 9.022221e-01 6.260039e-01)	(1.000944e+00 9.037727e-01 6.167409e-01)	(2.895726e-02 -1.550641e-03 9.263057e-03)
77            	(1.029305e+00 9.021102e-01 6.149457e-01)	(1.000261e+00 9.035601e-01 6.058368e-01)	(2.904427e-02 -1.449943e-03 9.108840e-03)
78            	(1.027725e+00 9.012171e-01 6.037028e-01)	(9.986015e-01 9.025786e-01 5.947296e-01)	(2.912360e-02 -1.361565e-03 8.973208e-03)
79            	(1.023688e+00 8.975786e-01 5.966204e-01)	(9.945036e-01 8.988507e-01 5.877958e-01)	(2.918454e-02 -1.272096e-03 8.824598e-03)
80            	(1.017389e+00 8.916229e-01 5.896887e-01)	(9.881557e-01 8.928186e-01 5.809888e-01)	(2.923347e-02 -1.195784e-03 8.699869e-03)
81            	(1.011205e+00 8.857925e-01 5.851403e-01)	(9.819429e-01 8.869123e-01 5.765792e-01)	(2.926171e-02 -1.119808e-03 8.561158e-03)
82            	(1.001736e+00 8.765580e-01 5.800783e-01)	(9.724625e-01 8.776230e-01 5.716263e-01)	(2.927339e-02 -1.064949e-03 8.452023e-03)
83            	(9.923039e-01 8.673903e-01 5.753172e-01)	(9.630381e-01 8.684060e-01 5.669852e-01)	(2.926579e-02 -1.015628e-03 8.332018e-03)
84            	(9.858109e-01 8.611225e-01 5.724006e-01)	(9.565685e-01 8.621026e-01 5.641764e-01)	(2.924237e-02 -9.801120e-04 8.224179e-03)
85            	(9.758425e-01 8.517643e-01 5.663268e-01)	(9.466359e-01 8.527299e-01 5.581809e-01)	(2.920665e-02 -9.656624e-04 8.145905e-03)
86            	(9.694033e-01 8.454996e-01 5.625120e-01)	(9.402455e-01 8.464524e-01 5.544522e-01)	(2.915780e-02 -9.527859e-04 8.059740e-03)
87            	(9.603224e-01 8.370340e-01 5.531548e-01)	(9.312191e-01 8.379885e-01 5.451558e-01)	(2.910329e-02 -9.544419e-04 7.998961e-03)
88            	(9.546574e-01 8.315438e-01 5.475603e-01)	(9.256186e-01 8.324993e-01 5.396273e-01)	(2.903879e-02 -9.554761e-04 7.933034e-03)
89            	(9.478416e-01 8.253405e-01 5.345736e-01)	(9.188666e-01 8.263078e-01 5.266869e-01)	(2.897500e-02 -9.672717e-04 7.886642e-03)
90            	(9.437156e-01 8.214197e-01 5.272060e-01)	(9.148089e-01 8.223984e-01 5.193706e-01)	(2.890671e-02 -9.786422e-04 7.835420e-03)
91            	(9.401813e-01 8.184436e-01 5.115332e-01)	(9.113343e-01 8.194401e-01 5.037369e-01)	(2.884700e-02 -9.964992e-04 7.796283e-03)
92            	(9.380306e-01 8.165001e-01 5.030127e-01)	(9.092403e-01 8.175124e-01 4.952645e-01)	(2.879026e-02 -1.012268e-03 7.748184e-03)
93            	(9.381083e-01 8.169036e-01 4.861905e-01)	(9.093614e-01 8.179364e-01 4.784870e-01)	(2.874696e-02 -1.032778e-03 7.703531e-03)
94            	(9.380925e-01 8.169988e-01 4.771241e-01)	(9.093844e-01 8.180521e-01 4.694725e-01)	(2.870802e-02 -1.053290e-03 7.651632e-03)
95            	(9.415623e-01 8.205921e-01 4.600067e-01)	(9.128787e-01 8.216667e-01 4.524096e-01)	(2.868357e-02 -1.074515e-03 7.597139e-03)
96            	(9.465752e-01 8.256001e-01 4.441221e-01)	(9.179060e-01 8.266892e-01 4.365937e-01)	(2.866928e-02 -1.089109e-03 7.528341e-03)
97            	(9.493216e-01 8.282247e-01 4.357999e-01)	(9.206571e-01 8.293240e-01 4.283400e-01)	(2.866449e-02 -1.099241e-03 7.459952e-03)
98            	(9.565355e-01 8.351128e-01 4.206038e-01)	(9.278585e-01 8.362113e-01 4.132209e-01)	(2.867700e-02 -1.098509e-03 7.382872e-03)
99            	(9.640810e-01 8.422469e-01 4.063870e-01)	(9.353788e-01 8.433328e-01 3.990948e-01)	(2.870217e-02 -1.085836e-03 7.292203e-03)
100           	(9.674940e-01 8.454503e-01 3.987557e-01)	(9.387582e-01 8.465139e-01 3.915546e-01)	(2.873581e-02 -1.063592e-03 7.201160e-03)
101           	(9.742081e-01 8.518511e-01 3.849603e-01)	(9.454276e-01 8.528784e-01 3.778596e-01)	(2.878048e-02 -1.027329e-03 7.100624e-03)
102           	(9.796884e-01 8.571251e-01 3.720451e-01)	(9.508567e-01 8.581087e-01 3.650549e-01)	(2.883162e-02 -9.836154e-04 6.990180e-03)
103           	(9.834303e-01 8.607536e-01 3.604191e-01)	(9.545444e-01 8.616869e-01 3.535466e-01)	(2.888591e-02 -9.332498e-04 6.872553e-03)
104           	(9.839245e-01 8.611806e-01 3.544633e-01)	(9.549879e-01 8.620622e-01 3.477073e-01)	(2.893663e-02 -8.815939e-04 6.756022e-03)
105           	(9.830922e-01 8.604179e-01 3.444837e-01)	(9.541097e-01 8.612483e-01 3.378523e-01)	(2.898249e-02 -8.304527e-04 6.631388e-03)
106           	(9.797557e-01 8.572440e-01 3.359341e-01)	(9.507352e-01 8.580275e-01 3.294361e-01)	(2.902052e-02 -7.835331e-04 6.497953e-03)
107           	(9.758878e-01 8.533730e-01 3.319622e-01)	(9.468389e-01 8.541145e-01 3.255969e-01)	(2.904892e-02 -7.415075e-04 6.365306e-03)
108           	(9.664861e-01 8.441912e-01 3.261077e-01)	(9.374207e-01 8.449001e-01 3.198785e-01)	(2.906548e-02 -7.088719e-04 6.229135e-03)
109           	(9.535856e-01 8.318024e-01 3.220598e-01)	(9.245209e-01 8.324910e-01 3.159682e-01)	(2.906474e-02 -6.885803e-04 6.091596e-03)
110           	(9.445616e-01 8.228413e-01 3.214654e-01)	(9.155083e-01 8.235159e-01 3.155074e-01)	(2.905331e-02 -6.746376e-04 5.958044e-03)
111           	(9.239937e-01 8.032006e-01 3.220451e-01)	(8.949731e-01 8.038780e-01 3.162117e-01)	(2.902055e-02 -6.773578e-04 5.833398e-03)
112           	(9.115155e-01 7.909257e-01 3.241947e-01)	(8.825372e-01 7.916112e-01 3.184788e-01)	(2.897835e-02 -6.854697e-04 5.715947e-03)
113           	(8.849813e-01 7.656916e-01 3.296185e-01)	(8.560711e-01 7.664052e-01 3.240015e-01)	(2.891022e-02 -7.136575e-04 5.617009e-03)
114           	(8.704459e-01 7.515480e-01 3.342940e-01)	(8.416097e-01 7.522910e-01 3.287667e-01)	(2.883620e-02 -7.429575e-04 5.527322e-03)
115           	(8.543842e-01 7.360482e-01 3.403928e-01)	(8.256331e-01 7.368237e-01 3.349353e-01)	(2.875108e-02 -7.755430e-04 5.457497e-03)
116           	(8.238278e-01 7.073926e-01 3.512728e-01)	(7.951880e-01 7.082173e-01 3.458600e-01)	(2.863978e-02 -8.247070e-04 5.412766e-03)
117           	(8.092168e-01 6.934632e-01 3.583362e-01)	(7.806891e-01 6.943297e-01 3.529588e-01)	(2.852766e-02 -8.664728e-04 5.377394e-03)
118           	(7.951076e-01 6.801081e-01 3.659595e-01)	(7.667012e-01 6.810159e-01 3.605987e-01)	(2.840642e-02 -9.078391e-04 5.360861e-03)
119           	(7.817449e-01 6.675544e-01 3.739351e-01)	(7.534661e-01 6.685031e-01 3.685764e-01)	(2.827874e-02 -9.487472e-04 5.358753e-03)
120           	(7.695231e-01 6.561695e-01 3.819087e-01)	(7.413780e-01 6.571605e-01 3.765398e-01)	(2.814501e-02 -9.910615e-04 5.368877e-03)
121           	(7.588309e-01 6.463283e-01 3.894328e-01)	(7.308235e-01 6.473621e-01 3.840460e-01)	(2.800744e-02 -1.033799e-03 5.386866e-03)
122           	(7.499102e-01 6.383495e-01 3.960372e-01)	(7.220422e-01 6.394232e-01 3.906281e-01)	(2.786801e-02 -1.073752e-03 5.409116e-03)
123           	(7.434103e-01 6.327532e-01 4.012446e-01)	(7.156809e-01 6.338629e-01 3.958116e-01)	(2.772945e-02 -1.109718e-03 5.433052e-03)
124           	(7.395918e-01 6.297548e-01 4.047338e-01)	(7.119959e-01 6.308956e-01 3.992781e-01)	(2.759591e-02 -1.140745e-03 5.455685e-03)
125           	(7.387160e-01 6.294146e-01 4.062904e-01)	(7.112439e-01 6.305810e-01 4.008169e-01)	(2.747204e-02 -1.166449e-03 5.473461e-03)
126           	(7.404678e-01 6.316536e-01 4.057701e-01)	(7.131070e-01 6.328400e-01 4.002856e-01)	(2.736079e-02 -1.186374e-03 5.484553e-03)
127           	(7.447909e-01 6.364088e-01 4.030835e-01)	(7.175268e-01 6.376078e-01 3.975962e-01)	(2.726412e-02 -1.199091e-03 5.487325e-03)
128           	(7.515433e-01 6.435586e-01 3.982339e-01)	(7.243599e-01 6.447615e-01 3.927546e-01)	(2.718337e-02 -1.202971e-03 5.479271e-03)
129           	(7.604873e-01 6.528718e-01 3.913708e-01)	(7.333680e-01 6.540687e-01 3.859128e-01)	(2.711925e-02 -1.196827e-03 5.458006e-03)
130           	(7.712669e-01 6.639936e-01 3.828326e-01)	(7.441945e-01 6.651735e-01 3.774110e-01)	(2.707241e-02 -1.179938e-03 5.421642e-03)
131           	(7.933431e-01 6.862495e-01 3.651719e-01)	(7.662874e-01 6.873878e-01 3.598171e-01)	(2.705570e-02 -1.138322e-03 5.354831e-03)
132           	(8.036094e-01 6.966369e-01 3.571826e-01)	(7.765636e-01 6.977347e-01 3.518970e-01)	(2.704575e-02 -1.097737e-03 5.285600e-03)
133           	(8.133754e-01 7.064782e-01 3.495797e-01)	(7.863322e-01 7.075304e-01 3.443675e-01)	(2.704315e-02 -1.052265e-03 5.212201e-03)
134           	(8.228944e-01 7.157861e-01 3.422667e-01)	(7.958474e-01 7.167909e-01 3.371297e-01)	(2.704708e-02 -1.004717e-03 5.136929e-03)
135           	(8.314673e-01 7.241515e-01 3.353810e-01)	(8.044125e-01 7.251060e-01 3.303197e-01)	(2.705475e-02 -9.544817e-04 5.061379e-03)
136           	(8.463958e-01 7.380012e-01 3.241213e-01)	(8.193218e-01 7.388942e-01 3.191444e-01)	(2.707405e-02 -8.929319e-04 4.976896e-03)
137           	(8.505330e-01 7.423714e-01 3.196339e-01)	(8.234476e-01 7.432064e-01 3.147348e-01)	(2.708540e-02 -8.350327e-04 4.899056e-03)
138           	(8.529741e-01 7.451395e-01 3.159646e-01)	(8.258849e-01 7.459200e-01 3.111395e-01)	(2.708920e-02 -7.804269e-04 4.825133e-03)
139           	(8.537697e-01 7.463657e-01 3.130348e-01)	(8.266860e-01 7.470962e-01 3.082788e-01)	(2.708376e-02 -7.305423e-04 4.756052e-03)
140           	(8.522436e-01 7.456572e-01 3.098727e-01)	(8.251769e-01 7.463432e-01 3.051816e-01)	(2.706677e-02 -6.859389e-04 4.691006e-03)
141           	(8.500090e-01 7.439169e-01 3.087748e-01)	(8.229698e-01 7.445640e-01 3.041451e-01)	(2.703926e-02 -6.471056e-04 4.629727e-03)
142           	(8.463696e-01 7.407993e-01 3.085238e-01)	(8.193681e-01 7.414134e-01 3.039491e-01)	(2.700149e-02 -6.140859e-04 4.574746e-03)
143           	(8.364426e-01 7.317658e-01 3.101227e-01)	(8.094968e-01 7.323581e-01 3.055943e-01)	(2.694576e-02 -5.922250e-04 4.528441e-03)
144           	(8.317195e-01 7.274353e-01 3.110241e-01)	(8.048367e-01 7.280070e-01 3.065411e-01)	(2.688275e-02 -5.717085e-04 4.483027e-03)
145           	(8.266274e-01 7.226973e-01 3.123607e-01)	(7.998149e-01 7.232509e-01 3.079175e-01)	(2.681259e-02 -5.536203e-04 4.443252e-03)
146           	(8.156217e-01 7.124956e-01 3.158038e-01)	(7.888949e-01 7.130389e-01 3.113920e-01)	(2.672676e-02 -5.432961e-04 4.411824e-03)
147           	(8.114214e-01 7.085654e-01 3.171957e-01)	(7.847827e-01 7.090947e-01 3.128162e-01)	(2.663871e-02 -5.293265e-04 4.379511e-03)
148           	(8.075738e-01 7.049860e-01 3.186287e-01)	(7.810259e-01 7.054965e-01 3.142786e-01)	(2.654783e-02 -5.105329e-04 4.350107e-03)
149           	(8.040913e-01 7.017834e-01 3.201015e-01)	(7.776334e-01 7.022676e-01 3.157811e-01)	(2.645797e-02 -4.842117e-04 4.320338e-03)
150           	(7.977733e-01 6.963499e-01 3.227897e-01)	(7.714059e-01 6.968015e-01 3.184982e-01)	(2.636736e-02 -4.516566e-04 4.291553e-03)
151           	(7.956220e-01 6.945036e-01 3.238651e-01)	(7.693353e-01 6.949145e-01 3.196069e-01)	(2.628670e-02 -4.108939e-04 4.258162e-03)
152           	(7.940594e-01 6.932736e-01 3.248141e-01)	(7.678499e-01 6.936372e-01 3.205905e-01)	(2.620955e-02 -3.636343e-04 4.223601e-03)
153           	(7.924674e-01 6.923031e-01 3.261533e-01)	(7.663292e-01 6.926146e-01 3.219660e-01)	(2.613824e-02 -3.114819e-04 4.187297e-03)
154           	(7.922247e-01 6.924371e-01 3.265954e-01)	(7.661488e-01 6.926936e-01 3.224482e-01)	(2.607581e-02 -2.565251e-04 4.147206e-03)
155           	(7.926265e-01 6.932732e-01 3.268628e-01)	(7.666107e-01 6.934725e-01 3.227561e-01)	(2.601584e-02 -1.993316e-04 4.106650e-03)
156           	(7.953537e-01 6.965654e-01 3.268958e-01)	(7.693900e-01 6.967032e-01 3.228314e-01)	(2.596368e-02 -1.378483e-04 4.064370e-03)
157           	(7.968833e-01 6.985902e-01 3.267107e-01)	(7.709671e-01 6.986671e-01 3.226897e-01)	(2.591621e-02 -7.695224e-05 4.021030e-03)
158           	(7.988972e-01 7.011449e-01 3.264022e-01)	(7.730295e-01 7.011620e-01 3.224210e-01)	(2.586773e-02 -1.709448e-05 3.981227e-03)
159           	(8.041224e-01 7.070059e-01 3.256642e-01)	(7.782969e-01 7.069592e-01 3.217218e-01)	(2.582551e-02 4.675339e-05 3.942359e-03)
160           	(8.063615e-01 7.098207e-01 3.252352e-01)	(7.805771e-01 7.097111e-01 3.213306e-01)	(2.578431e-02 1.095972e-04 3.904586e-03)
161           	(8.086157e-01 7.126871e-01 3.248633e-01)	(7.828741e-01 7.125155e-01 3.209914e-01)	(2.574154e-02 1.716243e-04 3.871866e-03)
162           	(8.129942e-01 7.178839e-01 3.243378e-01)	(7.872914e-01 7.176469e-01 3.204961e-01)	(2.570274e-02 2.370769e-04 3.841650e-03)
163           	(8.144447e-01 7.199882e-01 3.241618e-01)	(7.887816e-01 7.196858e-01 3.203492e-01)	(2.566310e-02 3.024178e-04 3.812565e-03)
164           	(8.168409e-01 7.233124e-01 3.241014e-01)	(7.912176e-01 7.229438e-01 3.203123e-01)	(2.562335e-02 3.685580e-04 3.789072e-03)
165           	(8.173755e-01 7.245181e-01 3.241952e-01)	(7.917937e-01 7.240835e-01 3.204296e-01)	(2.558173e-02 4.345463e-04 3.765656e-03)
166           	(8.173976e-01 7.252637e-01 3.245072e-01)	(7.918602e-01 7.247643e-01 3.207602e-01)	(2.553737e-02 4.993668e-04 3.746952e-03)
167           	(8.165899e-01 7.256457e-01 3.253946e-01)	(7.910994e-01 7.250813e-01 3.216633e-01)	(2.549048e-02 5.644092e-04 3.731329e-03)
168           	(8.156276e-01 7.254362e-01 3.259980e-01)	(7.901860e-01 7.248060e-01 3.222831e-01)	(2.544156e-02 6.302392e-04 3.714861e-03)
169           	(8.131003e-01 7.240996e-01 3.274574e-01)	(7.877129e-01 7.234054e-01 3.237521e-01)	(2.538738e-02 6.942463e-04 3.705293e-03)
170           	(8.113768e-01 7.231171e-01 3.283246e-01)	(7.860453e-01 7.223588e-01 3.246296e-01)	(2.533154e-02 7.582734e-04 3.695050e-03)
171           	(8.092688e-01 7.217889e-01 3.294780e-01)	(7.839970e-01 7.209681e-01 3.257875e-01)	(2.527181e-02 8.207387e-04 3.690493e-03)
172           	(8.039614e-01 7.182896e-01 3.323350e-01)	(7.787551e-01 7.174095e-01 3.286424e-01)	(2.520624e-02 8.800696e-04 3.692697e-03)
173           	(8.016391e-01 7.167070e-01 3.338697e-01)	(7.764963e-01 7.157687e-01 3.301758e-01)	(2.514278e-02 9.382572e-04 3.693958e-03)
174           	(7.967714e-01 7.133266e-01 3.373315e-01)	(7.716968e-01 7.123331e-01 3.336272e-01)	(2.507456e-02 9.934789e-04 3.704228e-03)
175           	(7.946133e-01 7.118366e-01 3.392162e-01)	(7.696028e-01 7.107891e-01 3.355041e-01)	(2.501048e-02 1.047504e-03 3.712053e-03)
176           	(7.910138e-01 7.092980e-01 3.430765e-01)	(7.660695e-01 7.081985e-01 3.393492e-01)	(2.494423e-02 1.099521e-03 3.727352e-03)
177           	(7.891706e-01 7.080908e-01 3.453143e-01)	(7.642879e-01 7.069408e-01 3.415737e-01)	(2.488269e-02 1.150046e-03 3.740522e-03)
178           	(7.861551e-01 7.061309e-01 3.496640e-01)	(7.613349e-01 7.049321e-01 3.459044e-01)	(2.482014e-02 1.198777e-03 3.759594e-03)
179           	(7.845591e-01 7.051782e-01 3.522082e-01)	(7.597970e-01 7.039331e-01 3.484311e-01)	(2.476210e-02 1.245110e-03 3.777089e-03)
180           	(7.820565e-01 7.037672e-01 3.568011e-01)	(7.573540e-01 7.024772e-01 3.530019e-01)	(2.470245e-02 1.289917e-03 3.799181e-03)
181           	(7.806549e-01 7.030374e-01 3.594625e-01)	(7.560085e-01 7.017050e-01 3.556427e-01)	(2.464645e-02 1.332387e-03 3.819760e-03)
182           	(7.785597e-01 7.020787e-01 3.639487e-01)	(7.539716e-01 7.007054e-01 3.601050e-01)	(2.458807e-02 1.373285e-03 3.843695e-03)
183           	(7.772829e-01 7.014941e-01 3.665190e-01)	(7.527499e-01 7.000831e-01 3.626529e-01)	(2.453299e-02 1.411060e-03 3.866118e-03)
184           	(7.754174e-01 7.008049e-01 3.706670e-01)	(7.509423e-01 6.993582e-01 3.667762e-01)	(2.447515e-02 1.446761e-03 3.890810e-03)
185           	(7.736690e-01 7.001820e-01 3.743647e-01)	(7.492497e-01 6.987027e-01 3.704491e-01)	(2.441938e-02 1.479359e-03 3.915592e-03)
186           	(7.724601e-01 6.996327e-01 3.764815e-01)	(7.480961e-01 6.981235e-01 3.725416e-01)	(2.436400e-02 1.509188e-03 3.939913e-03)
187           	(7.706119e-01 6.988783e-01 3.798647e-01)	(7.463058e-01 6.973418e-01 3.758989e-01)	(2.430600e-02 1.536530e-03 3.965834e-03)
188           	(7.687080e-01 6.980054e-01 3.830650e-01)	(7.444577e-01 6.964445e-01 3.790729e-01)	(2.425030e-02 1.560821e-03 3.992074e-03)
189           	(7.673720e-01 6.972800e-01 3.850918e-01)	(7.431759e-01 6.956971e-01 3.810729e-01)	(2.419614e-02 1.582823e-03 4.018895e-03)
190           	(7.650939e-01 6.959775e-01 3.886117e-01)	(7.409537e-01 6.943760e-01 3.845633e-01)	(2.414018e-02 1.601501e-03 4.048343e-03)
191           	(7.627090e-01 6.944901e-01 3.922150e-01)	(7.386231e-01 6.928737e-01 3.881357e-01)	(2.408590e-02 1.616410e-03 4.079327e-03)
192           	(7.602752e-01 6.928675e-01 3.958741e-01)	(7.362439e-01 6.912397e-01 3.917612e-01)	(2.403127e-02 1.627801e-03 4.112860e-03)
193           	(7.587868e-01 6.918628e-01 3.982432e-01)	(7.348085e-01 6.902253e-01 3.940959e-01)	(2.397829e-02 1.637435e-03 4.147251e-03)
194           	(7.560979e-01 6.898837e-01 4.024901e-01)	(7.321750e-01 6.882402e-01 3.983050e-01)	(2.392293e-02 1.643539e-03 4.185070e-03)
195           	(7.534478e-01 6.878701e-01 4.067569e-01)	(7.295792e-01 6.862234e-01 4.025327e-01)	(2.386860e-02 1.646771e-03 4.224180e-03)
196           	(7.509462e-01 6.859225e-01 4.109021e-01)	(7.271322e-01 6.842745e-01 4.066375e-01)	(2.381397e-02 1.648018e-03 4.264539e-03)
197           	(7.480960e-01 6.838374e-01 4.149402e-01)	(7.243375e-01 6.821898e-01 4.106343e-01)	(2.375849e-02 1.647571e-03 4.305871e-03)
198           	(7.470165e-01 6.830352e-01 4.170927e-01)	(7.233109e-01 6.813878e-01 4.127473e-01)	(2.370561e-02 1.647467e-03 4.345400e-03)
199           	(7.451258e-01 6.814395e-01 4.209660e-01)	(7.214743e-01 6.797931e-01 4.165796e-01)	(2.365148e-02 1.646372e-03 4.386375e-03)
200           	(7.436649e-01 6.801932e-01 4.245164e-01)	(7.200645e-01 6.785494e-01 4.200893e-01)	(2.360035e-02 1.643817e-03 4.427139e-03)
201           	(7.421985e-01 6.791505e-01 4.278257e-01)	(7.186489e-01 6.775094e-01 4.233577e-01)	(2.354965e-02 1.641141e-03 4.467950e-03)
202           	(7.416335e-01 6.787247e-01 4.304172e-01)	(7.181327e-01 6.770858e-01 4.259092e-01)	(2.350084e-02 1.638817e-03 4.507999e-03)
203           	(7.416283e-01 6.788462e-01 4.314137e-01)	(7.181741e-01 6.772086e-01 4.268677e-01)	(2.345422e-02 1.637563e-03 4.546037e-03)
204           	(7.422249e-01 6.794677e-01 4.331502e-01)	(7.188163e-01 6.778288e-01 4.285662e-01)	(2.340858e-02 1.638917e-03 4.583953e-03)
205           	(7.426756e-01 6.800087e-01 4.338551e-01)	(7.193083e-01 6.783689e-01 4.292343e-01)	(2.336727e-02 1.639855e-03 4.620798e-03)
206           	(7.442770e-01 6.815935e-01 4.351329e-01)	(7.209486e-01 6.799489e-01 4.304751e-01)	(2.332839e-02 1.644599e-03 4.657767e-03)
207           	(7.450891e-01 6.824801e-01 4.356095e-01)	(7.217952e-01 6.808312e-01 4.309154e-01)	(2.329383e-02 1.648860e-03 4.694120e-03)
208           	(7.461325e-01 6.835821e-01 4.360479e-01)	(7.228723e-01 6.819259e-01 4.313183e-01)	(2.326026e-02 1.656225e-03 4.729617e-03)
209           	(7.473957e-01 6.848733e-01 4.364684e-01)	(7.241658e-01 6.832074e-01 4.317041e-01)	(2.322996e-02 1.665904e-03 4.764354e-03)
210           	(7.488701e-01 6.863686e-01 4.368755e-01)	(7.256671e-01 6.846899e-01 4.320773e-01)	(2.320302e-02 1.678706e-03 4.798190e-03)
211           	(7.504604e-01 6.879657e-01 4.372661e-01)	(7.272814e-01 6.862708e-01 4.324351e-01)	(2.317899e-02 1.694867e-03 4.831081e-03)
212           	(7.520250e-01 6.895295e-01 4.376322e-01)	(7.288679e-01 6.878154e-01 4.327693e-01)	(2.315710e-02 1.714173e-03 4.862892e-03)
213           	(7.534474e-01 6.909460e-01 4.379692e-01)	(7.303110e-01 6.892100e-01 4.330756e-01)	(2.313640e-02 1.735970e-03 4.893583e-03)
214           	(7.546298e-01 6.921139e-01 4.382865e-01)	(7.315136e-01 6.903547e-01 4.333635e-01)	(2.311621e-02 1.759248e-03 4.923049e-03)