# Moment      
# CofR        : (0.000000e+00 0.000000e+00 0.000000e+00)
#
# Time        	(total_x total_y total_z)	(pressure_x pressure_y pressure_z)	(viscous_x viscous_y viscous_z)
1             	(-1.308539e+00 1.644423e+00 3.589790e-03)	(-1.308261e+00 1.641334e+00 3.583813e-03)	(-2.778873e-04 3.089532e-03 5.977487e-06)
2             	(-1.108640e+00 1.349376e+00 -2.288663e-02)	(-1.108878e+00 1.347239e+00 -2.288940e-02)	(2.380173e-04 2.137700e-03 2.766158e-06)
3             	(-6.730916e-01 7.934869e-01 -7.924107e-02)	(-6.737152e-01 7.920741e-01 -7.917033e-02)	(6.236474e-04 1.412765e-03 -7.074444e-05)
4             	(-1.827423e-01 1.770757e-01 -1.505286e-01)	(-1.835398e-01 1.760956e-01 -1.503045e-01)	(7.974833e-04 9.800257e-04 -2.241453e-04)
5             	(2.064578e-01 -3.083855e-01 -2.115685e-01)	(2.056496e-01 -3.091390e-01 -2.110638e-01)	(8.082154e-04 7.535814e-04 -5.047320e-04)
6             	(4.261763e-01 -5.786292e-01 -2.343401e-01)	(4.254373e-01 -5.793345e-01 -2.333930e-01)	(7.389300e-04 7.052893e-04 -9.470612e-04)
7             	(4.638357e-01 -6.111996e-01 -2.063626e-01)	(4.633077e-01 -6.121042e-01 -2.052297e-01)	(5.280050e-04 9.045589e-04 -1.132882e-03)
8             	(3.839426e-01 -4.897274e-01 -1.406945e-01)	(3.837061e-01 -4.909962e-01 -1.394488e-01)	(2.365253e-04 1.268783e-03 -1.245614e-03)
9             	(2.278544e-01 -2.721988e-01 -5.607856e-02)	(2.279047e-01 -2.738471e-01 -5.485581e-02)	(-5.038311e-05 1.648302e-03 -1.222742e-03)
10            	(5.995722e-02 -4.706435e-02 1.649940e-02)	(6.019711e-02 -4.894191e-02 1.753672e-02)	(-2.398963e-04 1.877558e-03 -1.037313e-03)
11            	(-7.498421e-02 1.258790e-01 5.787386e-02)	(-7.469117e-02 1.239546e-01 5.867815e-02)	(-2.930452e-04 1.924401e-03 -8.042904e-04)
12            	(-1.558992e-01 2.197262e-01 6.229521e-02)	(-1.556678e-01 2.179231e-01 6.290351e-02)	(-2.313463e-04 1.803057e-03 -6.083057e-04)
13            	(-1.791112e-01 2.338655e-01 3.652404e-02)	(-1.789991e-01 2.322827e-01 3.699881e-02)	(-1.120947e-04 1.582797e-03 -4.747710e-04)
14            	(-1.564508e-01 1.908286e-01 -4.266723e-03)	(-1.564699e-01 1.894976e-01 -3.839474e-03)	(1.910716e-05 1.331031e-03 -4.272489e-04)
15            	(-1.092084e-01 1.199244e-01 -4.840057e-02)	(-1.093338e-01 1.188243e-01 -4.794609e-02)	(1.253913e-04 1.100047e-03 -4.544809e-04)
16            	(-4.977446e-02 4.089726e-02 -8.520451e-02)	(-4.996850e-02 3.997561e-02 -8.466529e-02)	(1.940381e-04 9.216582e-04 -5.392249e-04)
17            	(5.576480e-04 -2.073063e-02 -1.053231e-01)	(3.386838e-04 -2.154321e-02 -1.046826e-01)	(2.189643e-04 8.125806e-04 -6.405226e-04)
18            	(3.313930e-02 -5.470817e-02 -1.062110e-01)	(3.292950e-02 -5.548302e-02 -1.054681e-01)	(2.097933e-04 7.748489e-04 -7.428918e-04)
19            	(4.461207e-02 -6.054880e-02 -9.387114e-02)	(4.443779e-02 -6.134287e-02 -9.304631e-02)	(1.742811e-04 7.940671e-04 -8.248263e-04)
20            	(4.175160e-02 -4.803266e-02 -7.472097e-02)	(4.162306e-02 -4.887514e-02 -7.384585e-02)	(1.285332e-04 8.424786e-04 -8.751176e-04)
21            	(2.982567e-02 -2.497617e-02 -5.354331e-02)	(2.973774e-02 -2.587233e-02 -5.265649e-02)	(8.793130e-05 8.961603e-04 -8.868238e-04)
22            	(1.276305e-02 1.791429e-03 -3.510849e-02)	(1.270130e-02 8.527532e-04 -3.424377e-02)	(6.175437e-05 9.386760e-04 -8.647169e-04)
23            	(-3.503475e-03 2.424958e-02 -2.448618e-02)	(-3.557512e-03 2.329053e-02 -2.366526e-02)	(5.403665e-05 9.590505e-04 -8.209213e-04)
24            	(-1.453588e-02 3.760318e-02 -2.167849e-02)	(-1.459731e-02 3.665059e-02 -2.090618e-02)	(6.143065e-05 9.525925e-04 -7.723112e-04)
25            	(-2.021336e-02 4.252148e-02 -2.533454e-02)	(-2.029373e-02 4.159563e-02 -2.460115e-02)	(8.037248e-05 9.258572e-04 -7.333920e-04)
26            	(-2.097919e-02 4.061431e-02 -3.231078e-02)	(-2.108550e-02 3.972653e-02 -3.160020e-02)	(1.063058e-04 8.877789e-04 -7.105765e-04)
27            	(-1.843102e-02 3.491306e-02 -3.997600e-02)	(-1.856270e-02 3.406670e-02 -3.927174e-02)	(1.316829e-04 8.463650e-04 -7.042566e-04)
28            	(-1.389587e-02 2.763866e-02 -4.642852e-02)	(-1.404744e-02 2.683027e-02 -4.571600e-02)	(1.515763e-04 8.083809e-04 -7.125257e-04)
29            	(-8.603598e-03 2.081755e-02 -5.000863e-02)	(-8.767148e-03 2.003972e-02 -4.927844e-02)	(1.635500e-04 7.778266e-04 -7.301911e-04)
30            	(-4.055761e-03 1.605988e-02 -5.077472e-02)	(-4.223270e-03 1.530431e-02 -5.002319e-02)	(1.675095e-04 7.555687e-04 -7.515249e-04)
31            	(-7.181067e-04 1.338848e-02 -4.909597e-02)	(-8.839999e-04 1.264842e-02 -4.832524e-02)	(1.658932e-04 7.400671e-04 -7.707267e-04)
32            	(7.434296e-04 1.309914e-02 -4.594443e-02)	(5.819227e-04 1.236904e-02 -4.516075e-02)	(1.615069e-04 7.300980e-04 -7.836841e-04)
33            	(7.572364e-04 1.427401e-02 -4.257044e-02)	(6.000211e-04 1.355045e-02 -4.178127e-02)	(1.572154e-04 7.235549e-04 -7.891698e-04)
34            	(1.257111e-05 1.553809e-02 -4.059244e-02)	(-1.424274e-04 1.482062e-02 -3.980287e-02)	(1.549985e-04 7.174663e-04 -7.895724e-04)
35            	(-1.531281e-03 1.765743e-02 -3.785065e-02)	(-1.685487e-03 1.694403e-02 -3.706750e-02)	(1.542057e-04 7.133998e-04 -7.831525e-04)
36            	(-2.681085e-03 1.874907e-02 -3.665851e-02)	(-2.838295e-03 1.804411e-02 -3.588191e-02)	(1.572096e-04 7.049670e-04 -7.765987e-04)
37            	(-4.689444e-03 2.015009e-02 -3.589756e-02)	(-4.848651e-03 1.945442e-02 -3.513057e-02)	(1.592067e-04 6.956793e-04 -7.669913e-04)
38            	(-6.353401e-03 2.077630e-02 -3.600499e-02)	(-6.514840e-03 2.009209e-02 -3.524689e-02)	(1.614394e-04 6.842131e-04 -7.581009e-04)
39            	(-7.014299e-03 2.047532e-02 -3.673022e-02)	(-7.177837e-03 1.980345e-02 -3.597999e-02)	(1.635377e-04 6.718677e-04 -7.502339e-04)
40            	(-7.435664e-03 2.000620e-02 -3.750491e-02)	(-7.600341e-03 1.934687e-02 -3.676187e-02)	(1.646769e-04 6.593325e-04 -7.430399e-04)
41            	(-8.251341e-03 1.950015e-02 -3.876128e-02)	(-8.415241e-03 1.885223e-02 -3.802502e-02)	(1.639003e-04 6.479171e-04 -7.362663e-04)
42            	(-8.267664e-03 1.921582e-02 -3.910406e-02)	(-8.430541e-03 1.857644e-02 -3.837433e-02)	(1.628768e-04 6.393785e-04 -7.297267e-04)
43            	(-8.208170e-03 1.909010e-02 -3.930419e-02)	(-8.370174e-03 1.845767e-02 -3.858090e-02)	(1.620039e-04 6.324263e-04 -7.232816e-04)
44            	(-7.962903e-03 1.906567e-02 -3.948782e-02)	(-8.124330e-03 1.843774e-02 -3.877255e-02)	(1.614268e-04 6.279246e-04 -7.152699e-04)
45            	(-7.742093e-03 1.932802e-02 -3.941472e-02)	(-7.903265e-03 1.870275e-02 -3.870832e-02)	(1.611713e-04 6.252660e-04 -7.064030e-04)
46            	(-7.404531e-03 1.977298e-02 -3.924909e-02)	(-7.566936e-03 1.914792e-02 -3.855201e-02)	(1.624048e-04 6.250629e-04 -6.970818e-04)
47            	(-6.909182e-03 2.041951e-02 -3.901278e-02)	(-7.074285e-03 1.979303e-02 -3.832484e-02)	(1.651027e-04 6.264826e-04 -6.879433e-04)
48            	(-5.604076e-03 2.160635e-02 -3.842208e-02)	(-5.774795e-03 2.097617e-02 -3.774293e-02)	(1.707186e-04 6.301812e-04 -6.791466e-04)
49            	(-5.047785e-03 2.235040e-02 -3.821392e-02)	(-5.225086e-03 2.171646e-02 -3.754213e-02)	(1.773015e-04 6.339394e-04 -6.717958e-04)
50            	(-4.425402e-03 2.319315e-02 -3.798542e-02)	(-4.610839e-03 2.255419e-02 -3.731981e-02)	(1.854372e-04 6.389600e-04 -6.656118e-04)
51            	(-3.130299e-03 2.481315e-02 -3.741705e-02)	(-3.325825e-03 2.416783e-02 -3.675609e-02)	(1.955261e-04 6.453227e-04 -6.609557e-04)
52            	(-2.567985e-03 2.570570e-02 -3.715130e-02)	(-2.773792e-03 2.505429e-02 -3.649369e-02)	(2.058068e-04 6.514139e-04 -6.576050e-04)
53            	(-2.038353e-03 2.668410e-02 -3.683116e-02)	(-2.254750e-03 2.602610e-02 -3.617574e-02)	(2.163970e-04 6.579989e-04 -6.554216e-04)
54            	(-1.187362e-03 2.856629e-02 -3.614773e-02)	(-1.414351e-03 2.790037e-02 -3.549349e-02)	(2.269887e-04 6.659201e-04 -6.542434e-04)
55            	(-8.991332e-04 2.949989e-02 -3.581709e-02)	(-1.135171e-03 2.882687e-02 -3.516305e-02)	(2.360373e-04 6.730222e-04 -6.540365e-04)
56            	(-7.214326e-04 3.045500e-02 -3.549095e-02)	(-9.655886e-04 2.977500e-02 -3.483664e-02)	(2.441559e-04 6.799921e-04 -6.543166e-04)
57            	(-6.438407e-04 3.226103e-02 -3.506321e-02)	(-8.943219e-04 3.157352e-02 -3.440818e-02)	(2.504812e-04 6.875026e-04 -6.550267e-04)
58            	(-6.827366e-04 3.308273e-02 -3.485014e-02)	(-9.377838e-04 3.238901e-02 -3.419456e-02)	(2.550472e-04 6.937151e-04 -6.555804e-04)
59            	(-9.736815e-04 3.471632e-02 -3.472288e-02)	(-1.232171e-03 3.401551e-02 -3.406753e-02)	(2.584895e-04 7.008073e-04 -6.553425e-04)
60            	(-1.073652e-03 3.542366e-02 -3.464371e-02)	(-1.334113e-03 3.471652e-02 -3.398930e-02)	(2.604608e-04 7.071444e-04 -6.544092e-04)
61            	(-1.325654e-03 3.687104e-02 -3.465806e-02)	(-1.587775e-03 3.615713e-02 -3.400491e-02)	(2.621207e-04 7.139063e-04 -6.531466e-04)
62            	(-1.323449e-03 3.758414e-02 -3.466370e-02)	(-1.586499e-03 3.686451e-02 -3.401187e-02)	(2.630503e-04 7.196231e-04 -6.518327e-04)
63            	(-1.388078e-03 3.918603e-02 -3.470605e-02)	(-1.652332e-03 3.846038e-02 -3.405545e-02)	(2.642541e-04 7.256554e-04 -6.505922e-04)
64            	(-1.201631e-03 3.997862e-02 -3.471863e-02)	(-1.466663e-03 3.924810e-02 -3.406889e-02)	(2.650317e-04 7.305201e-04 -6.497404e-04)
65            	(-8.887861e-04 4.157172e-02 -3.454786e-02)	(-1.154653e-03 4.083630e-02 -3.389876e-02)	(2.658671e-04 7.354230e-04 -6.490963e-04)
66            	(-5.144611e-04 4.256919e-02 -3.448512e-02)	(-7.807882e-04 4.182913e-02 -3.383626e-02)	(2.663271e-04 7.400553e-04 -6.488518e-04)
67            	(5.584570e-05 4.449331e-02 -3.408921e-02)	(-2.119324e-04 4.374785e-02 -3.343963e-02)	(2.677781e-04 7.454657e-04 -6.495843e-04)
68            	(5.855803e-04 4.569986e-02 -3.394442e-02)	(3.162877e-04 4.494897e-02 -3.329295e-02)	(2.692926e-04 7.508876e-04 -6.514627e-04)
69            	(1.296073e-03 4.791448e-02 -3.339883e-02)	(1.023758e-03 4.715646e-02 -3.274475e-02)	(2.723153e-04 7.580164e-04 -6.540862e-04)
70            	(1.907337e-03 4.921104e-02 -3.326092e-02)	(1.631735e-03 4.844564e-02 -3.260336e-02)	(2.756023e-04 7.654064e-04 -6.575629e-04)
71            	(2.647750e-03 5.144863e-02 -3.284387e-02)	(2.368205e-03 5.067443e-02 -3.218278e-02)	(2.795445e-04 7.741971e-04 -6.610903e-04)
72            	(3.273569e-03 5.264718e-02 -3.288345e-02)	(2.990754e-03 5.186503e-02 -3.221813e-02)	(2.828150e-04 7.821475e-04 -6.653215e-04)
73            	(4.026873e-03 5.457910e-02 -3.287700e-02)	(3.741149e-03 5.378885e-02 -3.220779e-02)	(2.857235e-04 7.902559e-04 -6.692065e-04)
74            	(4.661341e-03 5.556579e-02 -3.316569e-02)	(4.373555e-03 5.476830e-02 -3.249262e-02)	(2.877865e-04 7.974939e-04 -6.730616e-04)
75            	(5.472612e-03 5.704322e-02 -3.361921e-02)	(5.183137e-03 5.623885e-02 -3.294230e-02)	(2.894747e-04 8.043706e-04 -6.769095e-04)
76            	(6.286649e-03 5.823414e-02 -3.416329e-02)	(5.996791e-03 5.742399e-02 -3.348207e-02)	(2.898574e-04 8.101494e-04 -6.812193e-04)
77            	(6.928966e-03 5.885694e-02 -3.457105e-02)	(6.638600e-03 5.804164e-02 -3.388568e-02)	(2.903658e-04 8.153074e-04 -6.853683e-04)
78            	(7.801762e-03 5.966251e-02 -3.511713e-02)	(7.510647e-03 5.884240e-02 -3.442784e-02)	(2.911150e-04 8.201059e-04 -6.892888e-04)
79            	(8.459524e-03 6.011341e-02 -3.539270e-02)	(8.168961e-03 5.928944e-02 -3.469974e-02)	(2.905628e-04 8.239664e-04 -6.929591e-04)
80            	(9.342258e-03 6.066535e-02 -3.568942e-02)	(9.051761e-03 5.983801e-02 -3.499328e-02)	(2.904968e-04 8.273430e-04 -6.961331e-04)
81            	(9.948257e-03 6.094780e-02 -3.571172e-02)	(9.659056e-03 6.011810e-02 -3.501291e-02)	(2.892004e-04 8.296956e-04 -6.988082e-04)
82            	(1.071771e-02 6.121236e-02 -3.565424e-02)	(1.042830e-02 6.038058e-02 -3.495320e-02)	(2.894111e-04 8.317744e-04 -7.010420e-04)
83            	(1.134828e-02 6.134139e-02 -3.541568e-02)	(1.105954e-02 6.050851e-02 -3.471303e-02)	(2.887422e-04 8.328857e-04 -7.026460e-04)
84            	(1.172121e-02 6.137015e-02 -3.510385e-02)	(1.143213e-02 6.053623e-02 -3.440014e-02)	(2.890752e-04 8.339152e-04 -7.037085e-04)
85            	(1.210283e-02 6.122937e-02 -3.476751e-02)	(1.181179e-02 6.039465e-02 -3.406287e-02)	(2.910349e-04 8.347172e-04 -7.046386e-04)
86            	(1.232495e-02 6.110828e-02 -3.448838e-02)	(1.203266e-02 6.027348e-02 -3.378306e-02)	(2.922877e-04 8.348024e-04 -7.053203e-04)
87            	(1.242873e-02 6.073721e-02 -3.440318e-02)	(1.213379e-02 5.990236e-02 -3.369701e-02)	(2.949418e-04 8.348421e-04 -7.061742e-04)
88            	(1.246817e-02 6.047457e-02 -3.440796e-02)	(1.217100e-02 5.964014e-02 -3.370069e-02)	(2.971673e-04 8.344280e-04 -7.072670e-04)
89            	(1.225606e-02 5.990931e-02 -3.490512e-02)	(1.195576e-02 5.907541e-02 -3.419602e-02)	(3.002995e-04 8.338957e-04 -7.091042e-04)
90            	(1.209879e-02 5.953340e-02 -3.534191e-02)	(1.179572e-02 5.870025e-02 -3.463040e-02)	(3.030664e-04 8.331427e-04 -7.115056e-04)
91            	(1.163733e-02 5.889433e-02 -3.650447e-02)	(1.133185e-02 5.806269e-02 -3.578940e-02)	(3.054758e-04 8.316459e-04 -7.150699e-04)
92            	(1.134430e-02 5.848940e-02 -3.733277e-02)	(1.103769e-02 5.765993e-02 -3.661287e-02)	(3.066065e-04 8.294616e-04 -7.199028e-04)
93            	(1.081992e-02 5.797638e-02 -3.896090e-02)	(1.051304e-02 5.714999e-02 -3.823469e-02)	(3.068753e-04 8.263890e-04 -7.262012e-04)
94            	(1.051765e-02 5.767494e-02 -3.999913e-02)	(1.021097e-02 5.685167e-02 -3.926585e-02)	(3.066757e-04 8.232686e-04 -7.332887e-04)
95            	(1.016299e-02 5.750953e-02 -4.175752e-02)	(9.856932e-03 5.668956e-02 -4.101597e-02)	(3.060566e-04 8.199695e-04 -7.415451e-04)
96            	(9.970293e-03 5.758630e-02 -4.331300e-02)	(9.665182e-03 5.676916e-02 -4.256218e-02)	(3.051107e-04 8.171440e-04 -7.508208e-04)
97            	(9.910369e-03 5.767041e-02 -4.414347e-02)	(9.606165e-03 5.685556e-02 -4.338344e-02)	(3.042041e-04 8.148549e-04 -7.600296e-04)
98            	(1.014285e-02 5.828282e-02 -4.527822e-02)	(9.839485e-03 5.746927e-02 -4.450861e-02)	(3.033667e-04 8.135502e-04 -7.696100e-04)
99            	(1.057057e-02 5.910645e-02 -4.607747e-02)	(1.026772e-02 5.829283e-02 -4.529841e-02)	(3.028533e-04 8.136197e-04 -7.790611e-04)
100           	(1.088715e-02 5.960149e-02 -4.644137e-02)	(1.058479e-02 5.878704e-02 -4.565356e-02)	(3.023517e-04 8.144514e-04 -7.878103e-04)
101           	(1.173312e-02 6.080169e-02 -4.667917e-02)	(1.143062e-02 5.998478e-02 -4.588354e-02)	(3.025019e-04 8.169064e-04 -7.956265e-04)
102           	(1.268220e-02 6.204156e-02 -4.667121e-02)	(1.237882e-02 6.122079e-02 -4.586870e-02)	(3.033820e-04 8.207729e-04 -8.025149e-04)
103           	(1.366277e-02 6.322185e-02 -4.648840e-02)	(1.335800e-02 6.239615e-02 -4.568018e-02)	(3.047687e-04 8.256950e-04 -8.082191e-04)
104           	(1.425339e-02 6.383820e-02 -4.641518e-02)	(1.394727e-02 6.300753e-02 -4.560212e-02)	(3.061246e-04 8.306729e-04 -8.130629e-04)
105           	(1.530543e-02 6.484826e-02 -4.609945e-02)	(1.499697e-02 6.401155e-02 -4.528307e-02)	(3.084569e-04 8.367166e-04 -8.163771e-04)
106           	(1.629277e-02 6.566123e-02 -4.585119e-02)	(1.598161e-02 6.481812e-02 -4.503221e-02)	(3.111622e-04 8.431175e-04 -8.189869e-04)
107           	(1.687605e-02 6.603707e-02 -4.586026e-02)	(1.656228e-02 6.518793e-02 -4.503917e-02)	(3.137700e-04 8.491333e-04 -8.210860e-04)
108           	(1.777718e-02 6.643813e-02 -4.591539e-02)	(1.745999e-02 6.558257e-02 -4.509319e-02)	(3.171918e-04 8.555593e-04 -8.221932e-04)
109           	(1.860415e-02 6.658408e-02 -4.617969e-02)	(1.828341e-02 6.572264e-02 -4.535637e-02)	(3.207450e-04 8.614369e-04 -8.233197e-04)
110           	(1.906320e-02 6.655937e-02 -4.659947e-02)	(1.873884e-02 6.569241e-02 -4.577513e-02)	(3.243599e-04 8.669593e-04 -8.243380e-04)
111           	(1.975618e-02 6.616834e-02 -4.752030e-02)	(1.942739e-02 6.529628e-02 -4.669491e-02)	(3.287907e-04 8.720636e-04 -8.253944e-04)
112           	(2.014237e-02 6.588788e-02 -4.830047e-02)	(1.980949e-02 6.501140e-02 -4.747327e-02)	(3.328862e-04 8.764802e-04 -8.272057e-04)
113           	(2.070815e-02 6.505703e-02 -4.985259e-02)	(2.037058e-02 6.417734e-02 -4.902278e-02)	(3.375740e-04 8.796870e-04 -8.298098e-04)
114           	(2.102514e-02 6.460082e-02 -5.089982e-02)	(2.068349e-02 6.371871e-02 -5.006661e-02)	(3.416530e-04 8.821171e-04 -8.332016e-04)
115           	(2.131420e-02 6.403840e-02 -5.209540e-02)	(2.096872e-02 6.315496e-02 -5.125814e-02)	(3.454724e-04 8.834370e-04 -8.372596e-04)
116           	(2.170487e-02 6.283038e-02 -5.416602e-02)	(2.135593e-02 6.194778e-02 -5.332249e-02)	(3.489364e-04 8.826095e-04 -8.435275e-04)
117           	(2.189307e-02 6.224806e-02 -5.530249e-02)	(2.154148e-02 6.136688e-02 -5.445215e-02)	(3.515926e-04 8.811750e-04 -8.503422e-04)
118           	(2.202197e-02 6.163491e-02 -5.639286e-02)	(2.166799e-02 6.075625e-02 -5.553533e-02)	(3.539789e-04 8.786582e-04 -8.575309e-04)
119           	(2.208155e-02 6.099384e-02 -5.740877e-02)	(2.172551e-02 6.011857e-02 -5.654385e-02)	(3.560359e-04 8.752696e-04 -8.649234e-04)
120           	(2.206218e-02 6.033577e-02 -5.831076e-02)	(2.170424e-02 5.946467e-02 -5.743864e-02)	(3.579351e-04 8.710997e-04 -8.721202e-04)
121           	(2.196067e-02 5.967821e-02 -5.905770e-02)	(2.160114e-02 5.881203e-02 -5.817880e-02)	(3.595291e-04 8.661860e-04 -8.788974e-04)
122           	(2.177939e-02 5.903880e-02 -5.961992e-02)	(2.141872e-02 5.817816e-02 -5.873492e-02)	(3.606706e-04 8.606325e-04 -8.849965e-04)
123           	(2.152479e-02 5.845559e-02 -5.997579e-02)	(2.116338e-02 5.760094e-02 -5.908560e-02)	(3.614076e-04 8.546512e-04 -8.901906e-04)
124           	(2.121279e-02 5.795747e-02 -6.012324e-02)	(2.085099e-02 5.710893e-02 -5.922885e-02)	(3.617988e-04 8.485401e-04 -8.943892e-04)
125           	(2.086585e-02 5.757571e-02 -6.007679e-02)	(2.050390e-02 5.673304e-02 -5.917925e-02)	(3.619564e-04 8.426752e-04 -8.975362e-04)
126           	(2.050434e-02 5.732012e-02 -5.984365e-02)	(2.014236e-02 5.648280e-02 -5.894399e-02)	(3.619812e-04 8.373192e-04 -8.996539e-04)
127           	(2.014978e-02 5.720904e-02 -5.944442e-02)	(1.978790e-02 5.637641e-02 -5.854358e-02)	(3.618745e-04 8.326354e-04 -9.008391e-04)
128           	(1.982007e-02 5.725338e-02 -5.890333e-02)	(1.945846e-02 5.642461e-02 -5.800213e-02)	(3.616069e-04 8.287707e-04 -9.011935e-04)
129           	(1.953103e-02 5.745638e-02 -5.825117e-02)	(1.916989e-02 5.663055e-02 -5.735035e-02)	(3.611486e-04 8.258358e-04 -9.008197e-04)
130           	(1.929329e-02 5.780956e-02 -5.752709e-02)	(1.893286e-02 5.698567e-02 -5.662729e-02)	(3.604258e-04 8.238868e-04 -8.998019e-04)
131           	(1.900760e-02 5.872140e-02 -5.619172e-02)	(1.864842e-02 5.789752e-02 -5.529441e-02)	(3.591862e-04 8.238721e-04 -8.973052e-04)
132           	(1.891511e-02 5.918720e-02 -5.564206e-02)	(1.855719e-02 5.836312e-02 -5.474700e-02)	(3.579230e-04 8.240777e-04 -8.950630e-04)
133           	(1.887882e-02 5.968123e-02 -5.516684e-02)	(1.852234e-02 5.885651e-02 -5.427426e-02)	(3.564882e-04 8.247189e-04 -8.925823e-04)
134           	(1.889288e-02 6.020464e-02 -5.475203e-02)	(1.853781e-02 5.937892e-02 -5.386203e-02)	(3.550735e-04 8.257213e-04 -8.899987e-04)
135           	(1.895603e-02 6.072624e-02 -5.439748e-02)	(1.860241e-02 5.989930e-02 -5.351011e-02)	(3.536259e-04 8.269491e-04 -8.873754e-04)
136           	(1.912022e-02 6.166897e-02 -5.384286e-02)	(1.876816e-02 6.083988e-02 -5.295836e-02)	(3.520654e-04 8.290891e-04 -8.844986e-04)
137           	(1.926111e-02 6.204085e-02 -5.367335e-02)	(1.891054e-02 6.121009e-02 -5.279118e-02)	(3.505633e-04 8.307617e-04 -8.821673e-04)
138           	(1.944026e-02 6.236185e-02 -5.357768e-02)	(1.909100e-02 6.152962e-02 -5.269744e-02)	(3.492534e-04 8.322268e-04 -8.802383e-04)
139           	(1.965889e-02 6.263609e-02 -5.355846e-02)	(1.931064e-02 6.180265e-02 -5.267947e-02)	(3.482527e-04 8.334436e-04 -8.789869e-04)
140           	(2.007597e-02 6.299370e-02 -5.369575e-02)	(1.972827e-02 6.215920e-02 -5.281691e-02)	(3.476961e-04 8.345010e-04 -8.788396e-04)
141           	(2.032502e-02 6.313607e-02 -5.382092e-02)	(1.997754e-02 6.230084e-02 -5.294151e-02)	(3.474852e-04 8.352346e-04 -8.794073e-04)
142           	(2.057906e-02 6.320811e-02 -5.401201e-02)	(2.023155e-02 6.237254e-02 -5.313147e-02)	(3.475101e-04 8.355699e-04 -8.805369e-04)
143           	(2.105094e-02 6.316816e-02 -5.447786e-02)	(2.070297e-02 6.233294e-02 -5.359490e-02)	(3.479617e-04 8.352184e-04 -8.829610e-04)
144           	(2.123306e-02 6.310583e-02 -5.469320e-02)	(2.088462e-02 6.227128e-02 -5.380755e-02)	(3.484407e-04 8.345534e-04 -8.856445e-04)
145           	(2.137361e-02 6.298086e-02 -5.489789e-02)	(2.102494e-02 6.214760e-02 -5.400934e-02)	(3.486632e-04 8.332616e-04 -8.885536e-04)
146           	(2.162549e-02 6.265976e-02 -5.522852e-02)	(2.127677e-02 6.182886e-02 -5.433622e-02)	(3.487287e-04 8.309066e-04 -8.922969e-04)
147           	(2.165439e-02 6.246878e-02 -5.533100e-02)	(2.130598e-02 6.164055e-02 -5.443507e-02)	(3.484091e-04 8.282344e-04 -8.959310e-04)
148           	(2.163294e-02 6.224652e-02 -5.537095e-02)	(2.128548e-02 6.142147e-02 -5.447161e-02)	(3.474571e-04 8.250573e-04 -8.993381e-04)
149           	(2.156447e-02 6.199752e-02 -5.534344e-02)	(2.121859e-02 6.117579e-02 -5.444115e-02)	(3.458830e-04 8.217300e-04 -9.022957e-04)
150           	(2.148059e-02 6.159659e-02 -5.524452e-02)	(2.113691e-02 6.077839e-02 -5.433977e-02)	(3.436843e-04 8.182032e-04 -9.047474e-04)
151           	(2.134391e-02 6.135263e-02 -5.510340e-02)	(2.100274e-02 6.053736e-02 -5.419713e-02)	(3.411770e-04 8.152707e-04 -9.062751e-04)
152           	(2.117735e-02 6.111157e-02 -5.489797e-02)	(2.083890e-02 6.029893e-02 -5.399132e-02)	(3.384581e-04 8.126401e-04 -9.066516e-04)
153           	(2.094271e-02 6.080888e-02 -5.452331e-02)	(2.060714e-02 5.999850e-02 -5.361756e-02)	(3.355634e-04 8.103769e-04 -9.057479e-04)
154           	(2.075201e-02 6.061663e-02 -5.422020e-02)	(2.041925e-02 5.980788e-02 -5.331636e-02)	(3.327590e-04 8.087538e-04 -9.038396e-04)
155           	(2.054950e-02 6.044899e-02 -5.384141e-02)	(2.021935e-02 5.964148e-02 -5.294048e-02)	(3.301412e-04 8.075084e-04 -9.009337e-04)
156           	(2.025972e-02 6.032332e-02 -5.314939e-02)	(1.993213e-02 5.951653e-02 -5.225264e-02)	(3.275906e-04 8.067861e-04 -8.967497e-04)
157           	(2.007577e-02 6.023694e-02 -5.265226e-02)	(1.975049e-02 5.943049e-02 -5.176015e-02)	(3.252824e-04 8.064550e-04 -8.921088e-04)
158           	(1.991012e-02 6.019609e-02 -5.206658e-02)	(1.958681e-02 5.938987e-02 -5.117937e-02)	(3.233104e-04 8.062247e-04 -8.872094e-04)
159           	(1.971684e-02 6.030353e-02 -5.103843e-02)	(1.939531e-02 5.949711e-02 -5.015695e-02)	(3.215211e-04 8.064157e-04 -8.814803e-04)
160           	(1.963446e-02 6.035895e-02 -5.036825e-02)	(1.931456e-02 5.955223e-02 -4.949234e-02)	(3.198922e-04 8.067228e-04 -8.759118e-04)
161           	(1.960258e-02 6.046649e-02 -4.963324e-02)	(1.928410e-02 5.965950e-02 -4.876270e-02)	(3.184858e-04 8.069861e-04 -8.705337e-04)
162           	(1.964785e-02 6.077135e-02 -4.845032e-02)	(1.933052e-02 5.996373e-02 -4.758573e-02)	(3.173350e-04 8.076127e-04 -8.645937e-04)
163           	(1.972142e-02 6.094191e-02 -4.773145e-02)	(1.940521e-02 6.013372e-02 -4.687238e-02)	(3.162095e-04 8.081968e-04 -8.590655e-04)
164           	(1.991344e-02 6.128914e-02 -4.666492e-02)	(1.959797e-02 6.048022e-02 -4.581164e-02)	(3.154629e-04 8.089223e-04 -8.532782e-04)
165           	(2.006625e-02 6.148966e-02 -4.604576e-02)	(1.975156e-02 6.068013e-02 -4.519773e-02)	(3.146972e-04 8.095282e-04 -8.480312e-04)
166           	(2.026208e-02 6.170670e-02 -4.545574e-02)	(1.994792e-02 6.089668e-02 -4.461267e-02)	(3.141509e-04 8.100221e-04 -8.430753e-04)
167           	(2.061595e-02 6.204936e-02 -4.465298e-02)	(2.030196e-02 6.123873e-02 -4.381498e-02)	(3.139926e-04 8.106320e-04 -8.379947e-04)
168           	(2.086012e-02 6.226217e-02 -4.420292e-02)	(2.054624e-02 6.145092e-02 -4.336955e-02)	(3.138835e-04 8.112475e-04 -8.333703e-04)
169           	(2.125336e-02 6.255104e-02 -4.364993e-02)	(2.093915e-02 6.173924e-02 -4.282122e-02)	(3.142118e-04 8.118059e-04 -8.287107e-04)
170           	(2.150924e-02 6.273386e-02 -4.336205e-02)	(2.119465e-02 6.192145e-02 -4.253758e-02)	(3.145970e-04 8.124012e-04 -8.244700e-04)
171           	(2.177306e-02 6.290473e-02 -4.313699e-02)	(2.145792e-02 6.209188e-02 -4.231658e-02)	(3.151397e-04 8.128455e-04 -8.204072e-04)
172           	(2.216500e-02 6.305851e-02 -4.294545e-02)	(2.184906e-02 6.224541e-02 -4.212893e-02)	(3.159386e-04 8.130993e-04 -8.165187e-04)
173           	(2.239524e-02 6.318307e-02 -4.285382e-02)	(2.207846e-02 6.236952e-02 -4.204091e-02)	(3.167791e-04 8.135478e-04 -8.129096e-04)
174           	(2.268422e-02 6.324892e-02 -4.285591e-02)	(2.236659e-02 6.243530e-02 -4.204641e-02)	(3.176294e-04 8.136202e-04 -8.095003e-04)
175           	(2.285002e-02 6.331600e-02 -4.286453e-02)	(2.253154e-02 6.250202e-02 -4.205822e-02)	(3.184804e-04 8.139830e-04 -8.063102e-04)
176           	(2.300982e-02 6.330977e-02 -4.298636e-02)	(2.269067e-02 6.249580e-02 -4.218295e-02)	(3.191523e-04 8.139674e-04 -8.034083e-04)
177           	(2.309827e-02 6.331576e-02 -4.306536e-02)	(2.277844e-02 6.250152e-02 -4.226466e-02)	(3.198268e-04 8.142429e-04 -8.006962e-04)
178           	(2.313503e-02 6.321804e-02 -4.328780e-02)	(2.281481e-02 6.240392e-02 -4.248945e-02)	(3.202125e-04 8.141186e-04 -7.983539e-04)
179           	(2.314594e-02 6.316015e-02 -4.342353e-02)	(2.282532e-02 6.234594e-02 -4.262732e-02)	(3.206162e-04 8.142186e-04 -7.962103e-04)
180           	(2.306929e-02 6.297781e-02 -4.372797e-02)	(2.274864e-02 6.216398e-02 -4.293347e-02)	(3.206504e-04 8.138364e-04 -7.944995e-04)
181           	(2.300902e-02 6.286010e-02 -4.391243e-02)	(2.268832e-02 6.204648e-02 -4.311950e-02)	(3.206974e-04 8.136185e-04 -7.929252e-04)
182           	(2.283699e-02 6.260568e-02 -4.428451e-02)	(2.251661e-02 6.179278e-02 -4.349271e-02)	(3.203808e-04 8.128965e-04 -7.918003e-04)
183           	(2.271956e-02 6.243813e-02 -4.450595e-02)	(2.239945e-02 6.162583e-02 -4.371513e-02)	(3.201084e-04 8.122998e-04 -7.908143e-04)
184           	(2.247611e-02 6.212581e-02 -4.492546e-02)	(2.215658e-02 6.131459e-02 -4.413509e-02)	(3.195244e-04 8.112220e-04 -7.903728e-04)
185           	(2.222377e-02 6.180960e-02 -4.532871e-02)	(2.190483e-02 6.099944e-02 -4.453856e-02)	(3.189400e-04 8.101562e-04 -7.901451e-04)
186           	(2.206116e-02 6.159967e-02 -4.555420e-02)	(2.174283e-02 6.079065e-02 -4.476411e-02)	(3.183342e-04 8.090237e-04 -7.900881e-04)
187           	(2.177253e-02 6.124092e-02 -4.595879e-02)	(2.145506e-02 6.043344e-02 -4.516824e-02)	(3.174697e-04 8.074843e-04 -7.905538e-04)
188           	(2.148435e-02 6.087797e-02 -4.633861e-02)	(2.116782e-02 6.007208e-02 -4.554746e-02)	(3.165270e-04 8.058972e-04 -7.911530e-04)
189           	(2.129237e-02 6.063057e-02 -4.655044e-02)	(2.097687e-02 5.982634e-02 -4.575859e-02)	(3.155009e-04 8.042285e-04 -7.918556e-04)
190           	(2.097273e-02 6.021444e-02 -4.692768e-02)	(2.065847e-02 5.941227e-02 -4.613456e-02)	(3.142560e-04 8.021787e-04 -7.931114e-04)
191           	(2.065395e-02 5.979132e-02 -4.728195e-02)	(2.034108e-02 5.899138e-02 -4.648737e-02)	(3.128718e-04 7.999375e-04 -7.945771e-04)
192           	(2.033964e-02 5.936764e-02 -4.760923e-02)	(2.002827e-02 5.857022e-02 -4.681277e-02)	(3.113641e-04 7.974182e-04 -7.964559e-04)
193           	(2.012196e-02 5.908278e-02 -4.778860e-02)	(1.981215e-02 5.828795e-02 -4.699012e-02)	(3.098122e-04 7.948261e-04 -7.984789e-04)
194           	(1.976763e-02 5.860245e-02 -4.811411e-02)	(1.945950e-02 5.781060e-02 -4.731289e-02)	(3.081323e-04 7.918543e-04 -8.012220e-04)
195           	(1.940427e-02 5.811320e-02 -4.842371e-02)	(1.909799e-02 5.732455e-02 -4.761944e-02)	(3.062793e-04 7.886472e-04 -8.042741e-04)
196           	(1.903445e-02 5.762325e-02 -4.871256e-02)	(1.873015e-02 5.683801e-02 -4.790485e-02)	(3.043092e-04 7.852343e-04 -8.077179e-04)
197           	(1.865462e-02 5.711013e-02 -4.899363e-02)	(1.835240e-02 5.632853e-02 -4.818212e-02)	(3.022117e-04 7.816035e-04 -8.115034e-04)
198           	(1.839467e-02 5.679939e-02 -4.912508e-02)	(1.809455e-02 5.602131e-02 -4.830992e-02)	(3.001208e-04 7.780888e-04 -8.151595e-04)
199           	(1.793236e-02 5.624292e-02 -4.937722e-02)	(1.763460e-02 5.546871e-02 -4.855793e-02)	(2.977595e-04 7.742123e-04 -8.192896e-04)
200           	(1.744236e-02 5.567984e-02 -4.961100e-02)	(1.714721e-02 5.490967e-02 -4.878762e-02)	(2.951516e-04 7.701687e-04 -8.233773e-04)
201           	(1.691445e-02 5.508422e-02 -4.985405e-02)	(1.662223e-02 5.431840e-02 -4.902645e-02)	(2.922186e-04 7.658239e-04 -8.275916e-04)
202           	(1.639395e-02 5.453703e-02 -5.005976e-02)	(1.610496e-02 5.377575e-02 -4.922800e-02)	(2.889911e-04 7.612787e-04 -8.317568e-04)
203           	(1.607917e-02 5.422548e-02 -5.014560e-02)	(1.579335e-02 5.346858e-02 -4.931003e-02)	(2.858213e-04 7.568988e-04 -8.355753e-04)
204           	(1.549245e-02 5.367174e-02 -5.029593e-02)	(1.521030e-02 5.291962e-02 -4.945646e-02)	(2.821468e-04 7.521167e-04 -8.394703e-04)
205           	(1.511776e-02 5.332391e-02 -5.037192e-02)	(1.483917e-02 5.257635e-02 -4.952904e-02)	(2.785940e-04 7.475619e-04 -8.428735e-04)
206           	(1.442434e-02 5.271661e-02 -5.050764e-02)	(1.414991e-02 5.197405e-02 -4.966125e-02)	(2.744216e-04 7.425626e-04 -8.463919e-04)
207           	(1.401302e-02 5.235126e-02 -5.057144e-02)	(1.374259e-02 5.161342e-02 -4.972194e-02)	(2.704258e-04 7.378382e-04 -8.495060e-04)
208           	(1.356953e-02 5.196577e-02 -5.062639e-02)	(1.330326e-02 5.123273e-02 -4.977376e-02)	(2.662611e-04 7.330459e-04 -8.526316e-04)
209           	(1.310064e-02 5.156595e-02 -5.066779e-02)	(1.283870e-02 5.083769e-02 -4.981223e-02)	(2.619429e-04 7.282680e-04 -8.555668e-04)
210           	(1.261950e-02 5.116513e-02 -5.069485e-02)	(1.236206e-02 5.044162e-02 -4.983652e-02)	(2.574432e-04 7.235153e-04 -8.583305e-04)