# Probe 0 (-1 0.395 0)
# Probe 1 (1 0.395 0)
#       Probe             0             1
#        Time
  0.000600024       1103.68       969.141
   0.00132009       1103.62       969.416
   0.00218416        1103.6       969.562
   0.00322105       1103.58       969.662
   0.00446527       1103.58       969.732
      0.00592       1103.57       969.751
   0.00760094       1103.57       969.757
   0.00950717       1103.57        969.74
    0.0116389       1103.57       969.715
    0.0140042       1103.57       969.683
     0.016344       1103.57       969.621
     0.018596       1103.57       969.563
    0.0210941       1103.56       969.554
    0.0235663       1103.56       969.506
    0.0260214       1103.56       969.468
    0.0287528       1103.55       969.458
    0.0313845       1103.55       969.399
    0.0341235       1103.55       969.369
    0.0371814       1103.55       969.351
     0.040171       1103.55       969.295
    0.0435037       1103.54       969.275
    0.0471685       1103.54       969.234
    0.0505117       1103.54       969.153
    0.0541919       1103.54       969.132
    0.0579904       1103.54       969.081
    0.0611621       1103.54       968.988
    0.0638217       1103.54       968.913
    0.0662724       1103.54       968.888
    0.0686789       1103.54       968.881
    0.0706563       1103.54       968.802
    0.0726169       1103.54       968.813
     0.074549       1103.54       968.805
    0.0763425       1103.54       968.765
    0.0782122       1103.54       968.777
    0.0801207       1103.54       968.778
    0.0820213       1103.54       968.758
    0.0840749       1103.53       968.766
    0.0860574       1103.54       968.727
     0.088265       1103.54       968.735
    0.0904942       1103.54       968.703
    0.0928323       1103.54       968.679
    0.0952514       1103.54       968.656
    0.0976136       1103.54       968.615
     0.100072       1103.54       968.602
     0.102681       1103.55        968.58
     0.105376       1103.55       968.548
      0.10829       1103.55       968.531
     0.111397       1103.55         968.5
      0.11431       1103.56       968.436
     0.117233       1103.56       968.407
     0.120216       1103.57       968.384
     0.122653       1103.57       968.295
     0.124908       1103.58       968.268
     0.127112       1103.58       968.261
     0.129078       1103.58       968.213
     0.130959       1103.59       968.205
     0.132697       1103.59       968.174
     0.134425       1103.59       968.182
      0.13621       1103.59       968.195
     0.137983       1103.59       968.184
     0.139979       1103.59       968.215
     0.142108       1103.59       968.207
     0.144497        1103.6       968.209
     0.146984        1103.6       968.177
      0.14965       1103.61       968.161
     0.152613       1103.62       968.152
     0.155485       1103.62       968.094
     0.158523       1103.63       968.076
     0.161876       1103.64       968.064
     0.165026       1103.65       968.006
     0.168314       1103.66       967.988
     0.171808       1103.67       967.975
     0.175273       1103.68       967.941
     0.178939       1103.69       967.927
     0.182621        1103.7       967.903
     0.186319       1103.72       967.879
     0.189812       1103.73       967.846
     0.193707       1103.74       967.866
      0.19744       1103.76       967.832
     0.200347       1103.77       967.752
     0.202878       1103.78       967.733
     0.205509       1103.79       967.773
      0.20808        1103.8       967.776
     0.210355       1103.81       967.739
      0.21249       1103.82       967.743
     0.214665       1103.82       967.768
     0.216841       1103.83       967.776
     0.219097       1103.84       967.794
     0.221515       1103.85       967.817
     0.224228       1103.86        967.84
     0.227144       1103.87       967.843
     0.230028       1103.89       967.825
     0.232944        1103.9       967.828
     0.235976       1103.92       967.837
     0.239133       1103.93       967.838
     0.242277       1103.95       967.836
     0.245053       1103.96       967.802
     0.247545       1103.98       967.795
     0.250281       1103.99       967.848
     0.253099          1104       967.861
     0.255564       1104.02       967.826
      0.25765       1104.03       967.794
     0.259672       1104.04       967.822
     0.261916       1104.05       967.887
     0.264237       1104.06       967.903
     0.266731       1104.07        967.93
     0.268718       1104.09       967.857
     0.270493        1104.1       967.848
     0.272413       1104.11        967.91
     0.274293       1104.12       967.916
      0.27636       1104.12        967.97
      0.27868       1104.14        968.01
     0.281142       1104.15       968.023
     0.283587       1104.16       968.018
     0.286049       1104.18       968.028
     0.288598       1104.19       968.044
     0.291455       1104.21       968.087
     0.294604       1104.23       968.107
     0.297449       1104.25       968.076
     0.300282       1104.27       968.096
     0.303138       1104.29       968.112
     0.306334       1104.31       968.158
     0.309855       1104.33       968.189
      0.31369       1104.35       968.216
     0.317524       1104.38        968.22
     0.321358       1104.41        968.24
     0.325192       1104.43       968.258
     0.329026       1104.46       968.282
      0.33286       1104.49       968.308
     0.336694       1104.51       968.338
     0.340551       1104.54       968.363
     0.344407       1104.57       968.392
     0.348264        1104.6       968.419
      0.35212       1104.62       968.448
     0.355977       1104.65       968.479
     0.359856       1104.68       968.511
     0.363736       1104.71       968.542
     0.367616       1104.74       968.569
     0.371495       1104.77       968.605
     0.375399        1104.8       968.636
     0.379303       1104.83       968.666
     0.383206       1104.86       968.699
      0.38711       1104.89       968.728
     0.391014       1104.92        968.76
     0.394943       1104.95       968.794
     0.398872       1104.98       968.827
     0.402801       1105.01       968.858
      0.40673       1105.05       968.894
     0.410659       1105.08       968.926
     0.414614       1105.11       968.959
     0.418569       1105.14       968.991
     0.422525       1105.18       969.023
      0.42648       1105.21       969.055
     0.430435       1105.25       969.085
     0.434391       1105.28       969.116
     0.438346       1105.31       969.149
     0.442301       1105.35       969.182
     0.446256       1105.38       969.209
     0.450212       1105.42       969.243
     0.454167       1105.45       969.273
     0.458122       1105.49       969.308
     0.462078       1105.52       969.339
     0.466033       1105.56       969.372
     0.469988       1105.59       969.405
     0.473914       1105.63       969.435
      0.47784       1105.66       969.472
     0.481766        1105.7       969.503
     0.485692       1105.73       969.534
     0.489618       1105.77       969.571
     0.493514       1105.81       969.607
      0.49741       1105.84       969.643
     0.501307       1105.88       969.671
     0.505203       1105.91        969.71
     0.509068       1105.94       969.749
     0.512934       1105.98        969.79
     0.516799       1106.01       969.822
     0.520665       1106.05       969.858
       0.5245       1106.08         969.9
     0.528334       1106.12       969.944
     0.532169       1106.15       969.979
     0.536004       1106.18       970.015
     0.539807       1106.22       970.055
      0.54361       1106.25       970.103
     0.547413       1106.29       970.146
     0.551217       1106.32       970.185
      0.55502       1106.35        970.22
     0.558823       1106.39       970.268
     0.562626       1106.42       970.313
      0.56643       1106.45       970.353
       0.5702       1106.49       970.392
      0.57397       1106.52       970.435
      0.57774       1106.55       970.478
     0.581544       1106.59       970.522
     0.585348       1106.62       970.567
     0.589153       1106.65       970.607
     0.592957       1106.69       970.649
     0.596761       1106.72       970.691
     0.600565       1106.75       970.732
     0.604369       1106.79       970.773
     0.608173       1106.82       970.813
     0.612015       1106.86       970.853
     0.615856       1106.89       970.894
     0.619698       1106.92       970.934
     0.623539       1106.96       970.967
     0.627381       1106.99       971.004
     0.631222       1107.02       971.041
     0.635104       1107.06       971.082
     0.638986       1107.09       971.108
     0.642868       1107.13       971.147
     0.646749       1107.16       971.178
     0.650631       1107.19       971.206
     0.654513       1107.23       971.235
     0.658439       1107.26       971.269
     0.662365        1107.3       971.293
     0.666291       1107.33       971.318
     0.670217       1107.36        971.34
     0.674143        1107.4       971.366
     0.678069       1107.43       971.383
     0.681995       1107.47       971.399
      0.68597        1107.5       971.417
     0.689945       1107.53       971.432
      0.69392       1107.57       971.447
     0.697895        1107.6       971.461
      0.70187       1107.64        971.47
     0.705845       1107.67       971.477
     0.709821        1107.7       971.485
     0.713796       1107.74       971.493
     0.717771       1107.77       971.495
     0.721746        1107.8       971.498
     0.725721       1107.84       971.501
     0.729696       1107.87       971.497
     0.733671        1107.9       971.497
     0.737646       1107.94       971.491
     0.741621       1107.97       971.485
     0.745536          1108       971.477
     0.749451       1108.03       971.474
     0.753366       1108.06       971.469
      0.75728        1108.1       971.451
     0.761195       1108.13       971.442
      0.76511       1108.16        971.43
     0.769025       1108.19       971.415
      0.77294       1108.22         971.4
     0.776855       1108.25       971.386
     0.780702       1108.28       971.365
     0.784549       1108.31       971.345
     0.788397       1108.34       971.328
     0.792244       1108.37       971.309
     0.796091        1108.4       971.287
     0.799939       1108.42       971.266
     0.803786       1108.45       971.241
     0.807633       1108.48       971.214
     0.811481       1108.51       971.191
     0.815328       1108.54       971.165
     0.819175       1108.56       971.139
     0.823023       1108.59       971.111
      0.82687       1108.62       971.081
     0.830717       1108.64       971.051
     0.834565       1108.67       971.022
     0.838412        1108.7        970.99
     0.842259       1108.72       970.958
     0.846107       1108.75       970.922
     0.849954       1108.77       970.888
     0.853801        1108.8       970.854
     0.857649       1108.82       970.819
     0.861496       1108.85       970.783
     0.865343       1108.87       970.746
     0.869191       1108.89       970.707
     0.873038       1108.92       970.671
     0.876885       1108.94       970.632
     0.880733       1108.96       970.591
      0.88458       1108.98        970.55
     0.888427          1109       970.513
     0.892275       1109.03       970.472
     0.896122       1109.05       970.427
     0.899969       1109.07       970.386
     0.903817       1109.09       970.345
     0.907664       1109.11       970.302
     0.911511       1109.13       970.257
     0.915359       1109.15       970.212
     0.919206       1109.16       970.171
     0.923053       1109.18       970.127
     0.926901        1109.2        970.08
     0.930748       1109.22       970.033
     0.934595       1109.23       969.989
     0.938443       1109.25       969.941
      0.94229       1109.27       969.893
     0.946137       1109.28       969.846
     0.949985        1109.3       969.799
     0.953832       1109.31       969.749
     0.957679       1109.33       969.701
     0.961527       1109.34        969.65
     0.965374       1109.35       969.601
     0.969221       1109.37        969.55
     0.973069       1109.38       969.498
     0.976916       1109.39       969.449
     0.980763        1109.4       969.399
     0.984611       1109.41       969.347
     0.988458       1109.42       969.293
     0.992305       1109.43       969.241
     0.996153       1109.44       969.192
            1       1109.45       969.142
      1.00394       1109.46       969.095
      1.00786       1109.47       969.038
      1.01178       1109.48       968.989
       1.0157       1109.49       968.934
      1.01962        1109.5       968.878
      1.02353        1109.5       968.828
      1.02743       1109.51       968.777
      1.03134       1109.52       968.725
      1.03525       1109.52        968.67
      1.03914       1109.53        968.62
      1.04303       1109.53       968.568
      1.04692       1109.54       968.516
      1.05079       1109.54       968.463
      1.05467       1109.55       968.414
      1.05854       1109.55       968.365
      1.06241       1109.55       968.317
      1.06629       1109.56       968.267
      1.07016       1109.56        968.22
      1.07404       1109.56       968.167
      1.07791       1109.56       968.117
      1.08179       1109.56       968.068
      1.08566       1109.57       968.023
      1.08953       1109.57       967.976
      1.09341       1109.57       967.931
      1.09728       1109.57       967.888
      1.10116       1109.57       967.844
      1.10503       1109.57         967.8
      1.10891       1109.57       967.756
      1.11278       1109.57       967.711
      1.11665       1109.57        967.67
      1.12055       1109.56       967.632
      1.12444       1109.56       967.594
      1.12833       1109.56       967.553
      1.13222       1109.56       967.517
      1.13611       1109.55       967.483
         1.14       1109.55        967.45
      1.14391       1109.54       967.421
      1.14782       1109.54       967.386
      1.15173       1109.53       967.356
      1.15564       1109.53        967.33
      1.15955       1109.52       967.303
      1.16346       1109.52       967.275
      1.16737       1109.51       967.251
      1.17129        1109.5       967.235
      1.17522       1109.49       967.215
      1.17915       1109.49       967.195
      1.18308       1109.48       967.179
        1.187       1109.47       967.164
      1.19093       1109.46       967.152
      1.19488       1109.45       967.143
      1.19883       1109.44       967.134
      1.20277       1109.43       967.124
      1.20672       1109.41       967.119
      1.21067        1109.4       967.116
      1.21461       1109.39       967.115
      1.21856       1109.38       967.115
      1.22251       1109.36       967.117
      1.22645       1109.35       967.124
       1.2304       1109.34       967.128
      1.23435       1109.32       967.137
      1.23829       1109.31       967.147
      1.24224       1109.29        967.16
      1.24619       1109.27       967.169
      1.25013       1109.26       967.184
      1.25408       1109.24       967.198
        1.258       1109.22       967.212
      1.26193       1109.21       967.233
      1.26586       1109.19       967.252
      1.26978       1109.17       967.272
      1.27371       1109.15       967.292
      1.27761       1109.13       967.311
      1.28152       1109.11       967.338
      1.28542       1109.09       967.361
      1.28933       1109.07       967.383
      1.29321       1109.05       967.406
      1.29709       1109.03       967.432
      1.30098       1109.01       967.453
      1.30486       1108.99       967.476
      1.30874       1108.97       967.498
      1.31261       1108.95       967.519
      1.31647       1108.93       967.541
      1.32033       1108.91       967.563
      1.32419       1108.88       967.583
      1.32805       1108.86       967.604
      1.33192       1108.84       967.624
      1.33578       1108.81        967.64
      1.33964       1108.79       967.658
       1.3435       1108.77       967.672
      1.34736       1108.74       967.687
      1.35122       1108.72         967.7
      1.35509       1108.69        967.71
      1.35886       1108.67       967.711
      1.36272       1108.65       967.727
      1.36658       1108.62       967.731
      1.37047       1108.59       967.736
      1.37431       1108.57       967.734
      1.37773       1108.55       967.695
      1.38116       1108.52       967.713
      1.38494       1108.49       967.747
      1.38869       1108.47        967.73
      1.39226       1108.44       967.705
      1.39562       1108.42       967.683
      1.39882        1108.4       967.667
      1.40219       1108.37       967.688
      1.40589       1108.34       967.703
      1.40949       1108.32       967.666
      1.41304       1108.29       967.645
      1.41623       1108.27       967.594
      1.41934       1108.24       967.586
      1.42262       1108.22       967.597
      1.42604       1108.19       967.587
      1.42939       1108.16       967.554
      1.43267       1108.14       967.527
      1.43584       1108.11       967.499
      1.43886       1108.09       967.463
      1.44222       1108.06       967.485
      1.44577       1108.03       967.464
      1.44932          1108       967.426
      1.45302       1107.97       967.405
      1.45646       1107.95       967.342
      1.45973       1107.92       967.307
      1.46331       1107.89       967.311
      1.46729       1107.86       967.295
      1.47126       1107.82       967.242
      1.47524       1107.79       967.199
      1.47921       1107.76       967.158
      1.48296       1107.73       967.107
      1.48685        1107.7       967.089
      1.49076       1107.66       967.052
      1.49471       1107.63       967.016
      1.49866        1107.6       966.978
      1.50261       1107.56        966.94
      1.50655       1107.53       966.909
       1.5105       1107.49       966.873
      1.51445       1107.46        966.84
      1.51837       1107.43       966.805
      1.52228       1107.39       966.777
       1.5262       1107.36       966.748
      1.53011       1107.32       966.722
      1.53403       1107.29       966.694
      1.53791       1107.26       966.663
      1.54179       1107.22        966.64
      1.54568       1107.19       966.621
      1.54956       1107.15       966.603
      1.55344       1107.12       966.579
      1.55729       1107.08        966.56
      1.56114       1107.05       966.547
      1.56499       1107.02       966.535
      1.56884       1106.98       966.524
      1.57269       1106.95        966.51
      1.57654       1106.91       966.505
      1.58032       1106.88       966.501
      1.58417       1106.85       966.504
      1.58802       1106.81       966.501
      1.59184       1106.78       966.499
      1.59565       1106.74       966.499
       1.5992       1106.71       966.489
      1.60254       1106.68       966.492
      1.60625       1106.65        966.53
      1.60993       1106.62       966.529
      1.61376       1106.58       966.552
      1.61758       1106.55       966.559
      1.62091       1106.52       966.538
      1.62418       1106.49       966.569
      1.62772       1106.46       966.607
      1.63123       1106.43       966.619
      1.63507        1106.4       966.658
      1.63876       1106.37       966.658
      1.64103       1106.36       966.534
      1.64356       1106.33       966.656
      1.64594        1106.3       966.665
      1.64852       1106.28       966.726
      1.65098       1106.26       966.732
      1.65364       1106.23       966.786
      1.65598       1106.22       966.762
      1.65826        1106.2       966.785
      1.66051       1106.18       966.815
      1.66304       1106.15       966.879
      1.66592       1106.13       966.927
       1.6692        1106.1       966.969
      1.67287       1106.07       967.002
      1.67672       1106.04       967.023
      1.68048       1106.01       967.041
      1.68443       1105.98       967.086
      1.68837       1105.94       967.114
      1.69232       1105.91       967.153
      1.69626       1105.88       967.197
      1.70011       1105.85       967.232
        1.704       1105.82       967.285
      1.70795       1105.79       967.335
      1.71189       1105.75       967.382
      1.71584       1105.72       967.429
      1.71979       1105.69       967.484
      1.72373       1105.66       967.534
      1.72768       1105.63       967.588
      1.73163       1105.59       967.643
      1.73557       1105.56       967.699
      1.73952       1105.53       967.755
      1.74341        1105.5       967.804
      1.74736       1105.47       967.867
       1.7513       1105.44       967.926
      1.75525       1105.41       967.987
       1.7592       1105.38       968.044
      1.76315       1105.35       968.104
      1.76709       1105.32       968.166
      1.77104       1105.29       968.229
      1.77492       1105.26       968.285
      1.77833       1105.24       968.301
      1.78185       1105.21       968.388
      1.78555       1105.18       968.463
      1.78931       1105.15        968.52
      1.79271       1105.13       968.536
      1.79567       1105.11       968.553
      1.79829       1105.09       968.571
      1.80113       1105.06       968.672
      1.80429       1105.04       968.758
       1.8076       1105.01       968.812
      1.81081       1104.99       968.842
      1.81359       1104.98       968.835
      1.81629       1104.96       968.886
      1.81908       1104.94       968.947
       1.8222       1104.91       969.035
      1.82568       1104.89       969.113
      1.82956       1104.86       969.181
      1.83318       1104.84       969.192
      1.83659       1104.82       969.223
      1.84006        1104.8       969.288
      1.84387       1104.77       969.373
      1.84768       1104.75       969.417
      1.85149       1104.73       969.466
       1.8553       1104.71       969.524
       1.8591       1104.68       969.574
      1.86231       1104.67       969.551
      1.86575       1104.64       969.655
      1.86938       1104.62       969.725
      1.87322        1104.6       969.794
      1.87706       1104.58       969.843
      1.88021       1104.56       969.794
      1.88321       1104.55       969.845
      1.88655       1104.53       969.954
      1.89021        1104.5        970.03
      1.89399       1104.49       970.084
      1.89778       1104.47       970.125
      1.90107       1104.45       970.105
      1.90461       1104.43       970.212
      1.90842       1104.41       970.285
      1.91224       1104.39       970.326
       1.9159       1104.38       970.354
       1.9194       1104.36       970.386
       1.9229       1104.34       970.441
      1.92658       1104.32       970.517
      1.93025       1104.31       970.563
      1.93392       1104.29       970.609
      1.93722       1104.28       970.608
      1.94053       1104.26       970.675
      1.94402       1104.24       970.749
      1.94776       1104.23       970.821
      1.95149       1104.21       970.859
      1.95553       1104.19       970.953
      1.95957       1104.17       970.983
      1.96362       1104.16       971.034
      1.96766       1104.14       971.087
       1.9717       1104.13       971.141
      1.97574       1104.11       971.189
      1.97979        1104.1       971.251
      1.98316       1104.09       971.215
      1.98652       1104.07         971.3
      1.98989       1104.06       971.352
      1.99326       1104.05       971.411
      1.99663       1104.04        971.46
            2       1104.02       971.513
      2.00305       1104.02       971.515
      2.00607          1104       971.575
      2.00921          1104       971.642
       2.0125       1103.99       971.705
      2.01618       1103.97       971.787
      2.02013       1103.96       971.842
      2.02399       1103.95       971.873
      2.02753       1103.95       971.891
      2.03098       1103.94       971.944
      2.03475       1103.93       972.028
      2.03867       1103.92       972.081
      2.04259       1103.91       972.121
       2.0465       1103.91        972.17
      2.05041        1103.9       972.217
      2.05432       1103.89        972.26
      2.05821       1103.89       972.304
       2.0621       1103.88       972.351
      2.06599       1103.88       972.392
      2.06987       1103.87       972.426
      2.07374       1103.87       972.458
      2.07762       1103.86       972.496
      2.08148       1103.86       972.529
      2.08534       1103.86       972.564
       2.0892       1103.85       972.587
      2.09306       1103.85       972.612
       2.0969       1103.85       972.637
      2.10074       1103.85       972.652
      2.10458       1103.84       972.668
      2.10843       1103.84       972.676
      2.11182       1103.84        972.66
       2.1156       1103.84       972.704
      2.11943       1103.84       972.703
      2.12325       1103.84       972.703
      2.12708       1103.84       972.697
      2.13091       1103.84       972.691
      2.13474       1103.85       972.684
      2.13854       1103.85       972.673
      2.14233       1103.85       972.662
      2.14616       1103.85       972.646
      2.14999       1103.85       972.631
      2.15382       1103.86       972.606
      2.15766       1103.86       972.588
      2.16151       1103.86       972.555
      2.16536       1103.87       972.531
       2.1692       1103.87       972.501
      2.17307       1103.87       972.467
      2.17693       1103.88       972.436
      2.18079       1103.88       972.402
      2.18466       1103.89       972.359
      2.18854       1103.89       972.318
      2.19242        1103.9       972.275
      2.19631       1103.91        972.23
      2.20021       1103.91       972.187
      2.20411       1103.92       972.132
      2.20801       1103.93       972.086
      2.21163       1103.93       972.035
      2.21542       1103.94       971.998
      2.21919       1103.95       971.939
      2.22266       1103.96       971.886
      2.22558       1103.97       971.834
      2.22884       1103.97       971.829
      2.23196       1103.98       971.772
      2.23463       1103.99       971.718
      2.23764          1104       971.714
      2.24061          1104        971.66
      2.24336       1104.01       971.615
      2.24629       1104.02       971.577
      2.24945       1104.03       971.538
       2.2527       1104.04       971.478
      2.25586       1104.05       971.419
      2.25908       1104.06       971.367
      2.26236       1104.08       971.312
      2.26547       1104.09       971.249
      2.26897        1104.1       971.205
      2.27223       1104.11       971.126
       2.2758       1104.13       971.081
       2.2794       1104.14       971.005
      2.28263       1104.16       970.934
      2.28624       1104.17       970.881
      2.28977       1104.19       970.809
      2.29329        1104.2       970.745
      2.29684       1104.22       970.681
      2.30042       1104.24       970.614
      2.30415       1104.25       970.542
      2.30803       1104.27       970.471
      2.31167       1104.29       970.388
      2.31556       1104.31       970.324
      2.31926       1104.33       970.242
      2.32286       1104.35       970.172
      2.32669       1104.37       970.106
      2.32988       1104.39       970.009
      2.33269        1104.4       969.949
      2.33573       1104.42        969.93
      2.33878       1104.43       969.866
      2.34196       1104.45       969.819
      2.34483       1104.46       969.729
      2.34751       1104.48       969.671
      2.35007       1104.49       969.623
      2.35273       1104.51       969.594
      2.35539       1104.52       969.541
      2.35817       1104.54       969.495
      2.36126       1104.55       969.454
      2.36394       1104.57       969.347
      2.36657       1104.58       969.304
      2.36931        1104.6       969.271
      2.37236       1104.61       969.234
      2.37556       1104.63       969.166
      2.37875       1104.65       969.088
      2.38164       1104.67           969
      2.38423       1104.69       968.929
      2.38646        1104.7       968.836
      2.38895       1104.71       968.852
      2.39098       1104.73       968.738
      2.39294       1104.74       968.707
      2.39505       1104.75       968.708
      2.39719       1104.76       968.681
      2.39925       1104.77       968.624
       2.4013       1104.79       968.587
      2.40344        1104.8       968.563
      2.40566       1104.81       968.525
      2.40809       1104.83       968.503
      2.41081       1104.84       968.469
      2.41388       1104.86       968.425
      2.41695       1104.88       968.346
      2.42026       1104.91       968.293
      2.42374       1104.93       968.221
      2.42715       1104.95       968.138
      2.43082       1104.98       968.083
      2.43437          1105       968.008
      2.43802       1105.03       967.949
      2.44172       1105.06       967.886
      2.44563       1105.08       967.829
      2.44953       1105.11       967.759
      2.45346       1105.14       967.701
      2.45739       1105.17       967.639
      2.46132        1105.2       967.578
       2.4652       1105.23       967.525
       2.4691       1105.26       967.475
      2.47298       1105.29       967.426