# k  POINT_DATA 14647
# x  y  z  k
4.23516e-22 -0.0130568 4.20108e-06 2.10024e-06
0 0.0130568 4.20422e-06 1.24848e-09
0 0.0130538 6.6649e-06 1.22801e-09
-4.23516e-22 -0.0130538 6.66028e-06 2.08741e-06
1.69407e-21 -0.0130538 0.000644839 2.77202e-06
0 0.0130538 0.000645282 1.44155e-09
0 -0.0130538 0.000659278 2.823e-06
-8.47033e-22 0.0130538 0.000659736 1.47006e-09
0 -0.0130538 0.000674531 2.83422e-06
-8.47033e-22 0.0130538 0.000674994 1.46046e-09
0 -0.0130603 0.000649722 2.78419e-06
8.47033e-22 0.0130603 0.000650171 1.44648e-09
0 -0.0130603 0.000668856 2.8261e-06
0 0.0130603 0.000669319 1.45902e-09
-5.92923e-21 -0.0130709 0.000658157 2.82314e-06
1.60936e-20 0.0130709 0.000658618 1.51281e-09
0 -0.0130538 0.00133809 3.18198e-06
1.69407e-21 0.0130538 0.00133857 1.64125e-09
0 -0.0130538 0.00135468 3.19489e-06
0 0.0130538 0.00135516 1.66192e-09
0 -0.0130538 0.00137216 3.14496e-06
0 0.0130538 0.00137263 1.63693e-09
-1.69407e-21 -0.0130609 0.00134164 3.17823e-06
1.69407e-21 0.0130609 0.00134212 1.64233e-09
-1.69407e-21 -0.0130605 0.00136331 3.15124e-06
0 0.0130605 0.00136378 1.63901e-09
5.0822e-21 -0.0130744 0.00134748 3.09839e-06
1.69407e-21 0.0130744 0.00134796 1.60081e-09
0 -0.0130556 0.00208219 3.68903e-06
0 0.0130577 0.00208858 2.06637e-09
-3.38813e-21 -0.0130676 0.00208095 3.69759e-06
3.81165e-21 0.0130676 0.00208095 2.08113e-09
-6.77626e-21 -0.0133442 8.05862e-08 2.70929e-06
0 0.0133442 8.05859e-08 2.218e-09
-1.12938e-21 -0.0133452 0.000326479 2.6441e-06
-3.38813e-21 0.0133452 0.000326736 2.11179e-09
-2.25875e-21 -0.0133372 0.000959829 3.2335e-06
-7.90564e-21 0.0133372 0.000960365 1.68749e-09
0 -0.0132973 0.00155417 2.66266e-06
0 0.0132973 0.00155454 1.52009e-09
3.04932e-20 0.0132406 0.00216284 2.56501e-09
0 -0.0132406 0.00216285 3.98524e-06
0 -0.0132805 0.00206428 3.82987e-06
-3.38813e-21 0.0132805 0.00206425 2.39396e-09
-2.71051e-20 0.0133174 0.00219404 3.33692e-09
0 -0.0133175 0.00219406 4.77617e-06
2.25875e-21 -0.0133831 0.00186918 3.55436e-06
0 0.0133831 0.00186936 2.19851e-09
1.35525e-20 -0.0135632 9.24961e-08 5.50308e-06
-2.71051e-20 0.0135632 9.24953e-08 6.09933e-09
2.25875e-21 -0.0134965 0.00146605 1.70973e-06
6.77626e-21 0.0134965 0.00146649 9.44535e-10
0 -0.0136117 8.70388e-05 5.98175e-06
6.77626e-21 0.0136117 8.71003e-05 6.92977e-09
6.77626e-21 -0.0136152 8.46271e-08 5.9698e-06
0 0.0136152 8.46271e-08 6.89315e-09
1.35525e-20 -0.0136416 8.0639e-08 6.33033e-06
0 0.0136416 8.06395e-08 7.14242e-09
6.77626e-22 -0.0136355 0.000678728 3.60818e-06
6.77626e-22 0.0136355 0.000679269 3.38149e-09
-1.35525e-20 0.0134811 0.00226049 4.30438e-09
0 -0.0134812 0.00226053 5.91134e-06
1.69407e-21 -0.0136197 0.00118987 1.64698e-06
1.50584e-21 0.0136197 0.00119045 8.6175e-10
-3.01167e-21 -0.0136061 0.00162976 2.1763e-06
-4.51751e-21 0.0136061 0.00163011 1.2321e-09
1.35525e-20 0.0137235 7.39497e-08 8.39893e-09
1.35525e-20 -0.0137235 7.39483e-08 7.44226e-06
6.77626e-21 0.0137252 9.16823e-05 8.50492e-09
-6.77626e-21 -0.0137253 9.16246e-05 7.52712e-06
-1.12938e-22 -0.0137103 0.00202484 6.13504e-06
-3.38813e-22 0.0137102 0.00202496 4.41725e-09
-6.77626e-21 0.0136752 0.0023393 5.11409e-09
6.77626e-21 -0.0136753 0.00233933 6.21968e-06
-6.77626e-21 0.0137679 0.00237692 5.31164e-09
1.35525e-20 -0.013768 0.00237696 6.15266e-06
-1.35525e-20 -0.0139849 0.000399002 9.11723e-06
0 0.0139849 0.000399313 1.03684e-08
-9.03502e-21 -0.013986 0.000912946 2.39324e-06
-9.03502e-21 0.013986 0.000913447 2.08993e-09
-9.03502e-21 -0.0139545 0.00150378 1.46977e-06
4.51751e-21 0.0139546 0.00150416 8.97126e-10
1.35525e-20 -0.0140935 0.000126371 1.12461e-05
-1.35525e-20 0.0140935 0.000126457 1.28663e-08
0 -0.0141015 1.51513e-08 1.12336e-05
0 0.0141015 1.51514e-08 1.28427e-08
8.47033e-22 -0.0139607 0.00245511 6.16566e-06
0 0.0139609 0.00245518 6.00038e-09
-2.71051e-20 -0.0141702 0.000612039 6.80624e-06
-2.71051e-20 0.0141702 0.000612472 7.16243e-09
2.71051e-20 0.0139759 0.00246127 6.03475e-09
7.6233e-21 -0.013976 0.00246129 6.17788e-06
9.31736e-21 0.0139805 0.00244911 6.03611e-09
-2.5411e-21 -0.0139806 0.00244893 6.16366e-06
-2.71051e-20 -0.0141582 0.00121268 1.53884e-06
0 0.0141582 0.00121315 1.05726e-09
1.35525e-20 -0.0142137 6.98307e-09 1.22648e-05
0 0.0142137 6.98407e-09 1.36765e-08
0 -0.0141062 0.00185461 3.1426e-06
0 0.0141062 0.00185482 2.27701e-09
0 0.0140936 0.00222224 5.6602e-09
-2.25875e-21 -0.0140936 0.00222217 5.97266e-06
-1.35525e-20 0.0143442 6.46477e-09 1.57463e-08
0 -0.0143442 6.46386e-09 1.40837e-05
1.35525e-20 0.0141438 0.00239267 5.92152e-09
-6.77626e-21 -0.0141439 0.00239256 6.41512e-06
0 0.014345 0.000135164 1.58778e-08
-1.35525e-20 -0.014345 0.00013509 1.42032e-05
-1.35525e-20 0.0141782 0.00254345 5.8278e-09
0 -0.0141783 0.00254345 6.79006e-06
-2.43945e-20 0.0144148 0.000393235 1.55567e-08
-2.71051e-21 -0.0144148 0.000392975 1.40697e-05
0 0.014293 0.00252719 5.51195e-09
6.77626e-21 -0.0142931 0.00252719 6.73448e-06
-2.03288e-20 0.0142857 0.00258696 5.40745e-09
0 -0.0142858 0.00258699 6.75897e-06
6.77626e-21 -0.0145008 0.000915389 3.70401e-06
4.51751e-21 0.0145008 0.000915765 3.54277e-09
1.69407e-21 0.0143708 0.00229756 4.69423e-09
-3.38813e-21 -0.0143708 0.00229749 5.61773e-06
2.25875e-21 -0.0144715 0.00154752 1.59013e-06
0 0.0144715 0.0015478 1.05208e-09
0 -0.0144657 0.00205596 3.03324e-06
-4.51751e-21 0.0144657 0.00205609 2.27874e-09
0 0.0146705 0.00015054 1.98183e-08
1.35525e-20 -0.0146705 0.000150448 1.83816e-05
-1.35525e-20 0.01468 6.30535e-09 1.97966e-08
1.35525e-20 -0.01468 6.30475e-09 1.83807e-05
0 -0.0144708 0.00266175 7.40182e-06
1.35525e-20 0.0144708 0.00266174 5.30931e-09
2.71051e-21 0.0145057 0.00250599 5.5015e-09
-2.71051e-21 -0.0145058 0.00250596 7.27671e-06
0 0.0148233 5.71582e-09 1.98644e-08
0 -0.0148234 5.71538e-09 1.94413e-05
0 -0.0148745 0.000558342 1.27395e-05
-4.51751e-21 0.0148745 0.000558581 1.27976e-08
0 -0.0147686 0.00191048 2.90536e-06
0 0.0147686 0.00191064 2.13137e-09
0 0.0146404 0.00273044 7.70634e-09
0 -0.0146404 0.00273047 1.00795e-05
-1.54886e-20 -0.0148827 0.00116851 2.64914e-06
5.80823e-21 0.0148827 0.00116882 2.13124e-09
1.35525e-20 0.0149747 4.96127e-09 2.05439e-08
2.71051e-20 -0.0149747 4.9609e-09 2.10027e-05
1.35525e-20 0.0149752 0.000142336 2.05298e-08
-1.35525e-20 -0.0149752 0.000142287 2.09756e-05
-2.25875e-21 -0.0148161 0.00236406 6.60092e-06
4.51751e-21 0.0148161 0.00236412 4.50947e-09
-1.807e-20 -0.0150223 0.00156473 1.79869e-06
0 0.0150222 0.00156494 1.25341e-09
-2.71051e-20 0.0151424 0.000304981 2.17486e-08
0 -0.0151424 0.000304874 2.27089e-05
-1.35525e-20 0.0148918 0.00283394 8.46447e-09
2.71051e-20 -0.0148918 0.00283398 1.31297e-05
0 -0.0151422 0.000920422 3.57293e-06
0 0.0151422 0.000920657 3.04614e-09
8.13152e-21 0.0150419 0.00210501 1.61674e-09
-1.89735e-20 -0.0150419 0.00210492 2.87946e-06
4.51751e-21 -0.015053 0.00270398 1.259e-05
0 0.015053 0.00270402 8.29743e-09
-6.77626e-21 -0.0150244 0.00288816 1.34723e-05
-2.71051e-20 0.0150245 0.0028882 8.78746e-09
1.35525e-20 0.0153086 2.24203e-09 2.22803e-08
1.35525e-20 -0.0153086 2.24182e-09 2.39723e-05
0 0.0153121 0.000140875 2.22823e-08
-1.35525e-20 -0.0153122 0.000140824 2.39727e-05
0 -0.0154577 1.48782e-09 2.46888e-05
-1.35525e-20 0.0154577 1.48795e-09 2.27979e-08
4.51751e-21 -0.0154655 0.000604019 1.48024e-05
2.25875e-21 0.0154655 0.000604165 1.31597e-08
-1.12938e-20 -0.0154631 0.00123933 3.01351e-06
3.76158e-37 0.0154631 0.0012395 2.03591e-09
0 -0.0152755 0.00299148 1.21119e-05
2.71051e-20 0.0152755 0.0029915 9.66066e-09
0 -0.015469 0.0018808 2.03529e-06
2.25875e-21 0.015469 0.00188091 9.44431e-10
0 -0.0156043 1.3028e-09 2.58009e-05
-1.35525e-20 0.0156043 1.30289e-09 2.34377e-08
-1.35525e-20 -0.0156046 0.000132299 2.57654e-05
1.35525e-20 0.0156046 0.000132329 2.34186e-08
0 0.0153937 0.00303998 8.66596e-09
0 -0.0153938 0.00303999 1.13635e-05
1.35525e-20 0.0154261 0.0029384 8.63483e-09
-2.71051e-20 -0.0154261 0.00293835 1.13348e-05
5.27043e-21 -0.0155039 0.00256159 7.32152e-06
-7.52918e-22 0.0155039 0.00256162 4.96572e-09
0 0.0157872 0.000299952 2.39836e-08
2.71051e-20 -0.0157872 0.000299901 2.71043e-05
2.71051e-20 -0.0157971 0.000915013 5.44527e-06
-2.71051e-20 0.0157971 0.000915131 3.41486e-09
0 -0.0157989 0.00156074 1.73856e-06
-2.71051e-20 0.0157989 0.00156083 8.93019e-10
6.77626e-21 0.0156182 0.00313283 8.33423e-09
-6.77626e-21 -0.0156183 0.00313286 1.0395e-05
2.71051e-20 -0.015809 0.0022127 2.47417e-06
2.71051e-20 0.015809 0.00221276 8.54146e-10
0 0.0159653 5.84461e-10 2.44587e-08
-1.35525e-20 -0.0159653 5.84404e-10 2.8102e-05
-1.35525e-20 0.0159712 0.000124971 2.44564e-08
0 -0.0159712 0.000124945 2.81039e-05
6.77626e-21 -0.0156925 0.0031635 1.02049e-05
6.77626e-21 0.0156925 0.00316352 8.53503e-09
6.77626e-21 -0.01572 0.00310334 1.02007e-05
-6.77626e-21 0.0157201 0.00310327 8.62098e-09
-1.50584e-21 -0.0157996 0.00293416 9.50395e-06
0 0.0157996 0.00293419 8.16271e-09
0 -0.015781 0.00319986 1.02611e-05
-2.03288e-20 0.0157812 0.00319994 8.45712e-09
0 -0.0161034 4.04832e-10 2.84355e-05
0 0.0161034 4.0486e-10 2.43415e-08
-6.77626e-21 -0.016119 0.000594184 1.73894e-05
-6.77626e-21 0.016119 0.000594247 1.42076e-08
-9.03502e-21 -0.0161299 0.00122524 4.05828e-06
2.25875e-21 0.0161299 0.00122532 2.27368e-09
0 -0.0162343 3.59803e-10 2.91507e-05
-1.35525e-20 0.0162343 3.59826e-10 2.47596e-08
0 -0.0162345 0.00011328 2.91288e-05
0 0.0162345 0.000113292 2.47501e-08
-6.77626e-21 -0.0161352 0.00188661 2.39701e-06
0 0.0161352 0.00188666 8.80956e-10
0 -0.0161278 0.00255594 4.76193e-06
-2.25875e-21 0.0161278 0.00255599 2.9808e-09
-1.35525e-20 -0.0159975 0.00328828 9.76179e-06
0 0.0159976 0.00328832 7.88451e-09
1.35525e-20 -0.0160352 0.00323057 9.8437e-06
4.06576e-20 0.0160353 0.00323064 8.0148e-09
1.35525e-20 -0.0160906 0.00332631 1.12117e-05
1.35525e-20 0.0160907 0.00332633 9.75093e-09
-2.71051e-20 -0.0164377 0.00029234 3.01552e-05
-2.71051e-20 0.0164377 0.000292357 2.52308e-08
-2.71051e-20 -0.0164552 0.000897699 6.26035e-06
0 0.0164552 0.000897745 3.65456e-09
-1.807e-21 -0.0162066 0.0029897 8.10228e-06
1.35525e-21 0.0162067 0.00298974 6.32143e-09
-2.71051e-20 -0.0164658 0.00154123 2.7225e-06
0 0.0164658 0.00154127 1.08072e-09
1.35525e-20 0.0162526 0.00328164 1.03472e-08
0 -0.0162527 0.00328159 1.20736e-05
0 0.0162526 0.00339239 1.07243e-08
-2.71051e-20 -0.0162526 0.00339241 1.25106e-05
-2.71051e-20 -0.0164656 0.00220947 2.64997e-06
5.42101e-20 0.0164656 0.00220951 6.85117e-10
0 0.0166389 1.04271e-10 2.51839e-08
0 -0.0166389 1.04267e-10 3.04006e-05
0 0.0166447 0.000100575 2.51813e-08
0 -0.0166447 0.000100568 3.03981e-05
0 -0.0165065 0.00278869 3.76707e-06
-2.71051e-20 0.0165065 0.00278872 1.68366e-09
0 -0.0167551 6.1842e-11 3.01083e-05
1.35525e-20 0.0167551 6.18409e-11 2.50161e-08
4.51751e-21 -0.0167741 0.000577096 1.91493e-05
4.51751e-21 0.0167741 0.000577118 1.46406e-08
2.71051e-20 -0.0164727 0.00325225 1.2317e-05
2.71051e-20 0.0164728 0.00325227 1.03171e-08
3.38813e-21 -0.0167927 0.00119999 5.82807e-06
1.12938e-21 0.0167928 0.00120002 2.58576e-09
2.71051e-20 -0.0164932 0.00349062 1.41594e-05
1.35525e-20 0.0164934 0.00349067 1.24183e-08
-1.35525e-20 -0.0168627 5.6253e-11 3.02131e-05
-1.35525e-20 0.0168627 5.62518e-11 2.50273e-08
0 -0.0168631 9.00351e-05 3.02144e-05
-1.35525e-20 0.0168631 9.00377e-05 2.50281e-08
1.12938e-21 -0.0167971 0.00186718 3.42743e-06
3.38813e-21 0.0167971 0.0018672 1.03904e-09
-2.71051e-20 -0.0165645 0.00339838 1.41692e-05
0 0.0165646 0.00339847 1.25066e-08
2.25875e-21 -0.0168038 0.00251859 3.47131e-06
-2.25875e-21 0.0168039 0.00251861 1.32897e-09
-2.71051e-20 -0.0166657 0.003561 1.455e-05
0 0.0166658 0.00356102 1.41327e-08
3.38813e-21 -0.0167839 0.00309024 9.72832e-06
-6.77626e-21 0.016784 0.00309026 8.12505e-09
5.42101e-20 0.0170872 0.000280478 2.49733e-08
-2.71051e-20 -0.0170872 0.000280474 3.04573e-05
5.42101e-20 -0.0171093 0.000869706 9.00647e-06
0 0.0171094 0.000869716 4.01542e-09
0 -0.0171238 0.0015109 5.21613e-06
2.71051e-20 0.0171238 0.00151092 1.50912e-09
-6.77626e-21 0.0168547 0.00363794 1.8172e-08
2.03288e-20 -0.0168548 0.00363795 1.76478e-05
-2.71051e-20 -0.0171215 0.00218644 3.16125e-06
5.42101e-20 0.0171216 0.00218645 8.79964e-10
0 -0.0173128 1.50028e-11 3.02893e-05
-1.35525e-20 0.0173128 1.50016e-11 2.25266e-08
1.35525e-20 0.017316 7.61098e-05 2.25113e-08
0 -0.017316 7.61078e-05 3.02909e-05
0 -0.0169937 0.00347014 1.7222e-05
0 0.0169937 0.00347019 1.7618e-08
-2.03288e-20 -0.0169518 0.00367748 1.80988e-05
2.03288e-20 0.0169519 0.00367752 1.90781e-08
-2.71051e-20 -0.0171192 0.00284365 4.28292e-06
2.71051e-20 0.0171192 0.00284368 2.02516e-09
0 0.0174041 1.00273e-11 2.19009e-08
0 -0.0174041 1.00286e-11 3.01721e-05
-2.25875e-21 -0.0174225 0.000552281 2.03526e-05
2.25875e-21 0.0174225 0.000552286 1.32959e-08
5.64689e-21 -0.0174464 0.00116236 8.70896e-06
0 0.0174464 0.00116237 3.63004e-09
0 -0.0174883 9.27754e-12 3.00795e-05
1.35525e-20 0.0174883 9.27624e-12 1.94887e-08
0 -0.0174886 6.91534e-05 3.00814e-05
1.35525e-20 0.0174886 6.91578e-05 1.95022e-08
0 -0.0174523 0.00183361 5.57725e-06
0 0.0174523 0.00183363 1.61175e-09
4.06576e-20 0.0171554 0.00376035 1.79326e-08
1.35525e-20 -0.0171554 0.00376034 1.61314e-05
3.38813e-21 -0.0174395 0.00252755 4.1958e-06
2.25875e-21 0.0174395 0.00252757 1.5096e-09
0 -0.0172701 0.00381183 1.61293e-05
0 0.0172701 0.00381183 1.77715e-08
1.35525e-20 0.0173096 0.0036891 1.77645e-08
0 -0.0173096 0.00368906 1.6209e-05
-1.8823e-21 -0.0174174 0.00327288 1.10147e-05
4.89397e-21 0.0174174 0.00327291 1.05368e-08
2.71051e-20 -0.0177262 0.000264489 2.99328e-05
0 0.0177262 0.000264491 1.70817e-08
0 -0.0177529 0.000830839 1.11952e-05
-2.71051e-20 0.0177529 0.000830843 6.09303e-09
0 -0.0177737 0.00146633 9.2381e-06
0 0.0177737 0.00146634 2.71169e-09
-2.03288e-20 0.0174674 0.00388876 1.6653e-08
-1.35525e-20 -0.0174675 0.00388877 1.49749e-05
-2.71051e-20 -0.0177694 0.00215825 4.8187e-06
2.71051e-20 0.0177694 0.00215826 1.35301e-09
-6.77626e-21 -0.0175188 0.00391124 1.45897e-05
0 0.017519 0.0039113 1.67539e-08
-3.38813e-21 -0.0175509 0.00385321 1.45287e-05
-3.38813e-21 0.0175511 0.00385308 1.69178e-08
-2.71051e-20 -0.0177413 0.00287705 4.52921e-06
2.71051e-20 0.0177414 0.00287708 1.73825e-09
-6.77626e-21 0.0179809 1.39465e-12 2.09314e-08
-6.77626e-21 -0.0179809 1.39504e-12 2.80881e-05
-6.77626e-21 0.017982 5.25092e-05 2.09442e-08
6.77626e-21 -0.017982 5.25067e-05 2.80861e-05
0 -0.0175787 0.00394073 1.48703e-05
-1.35525e-20 0.017579 0.0039409 1.65408e-08
-4.51751e-21 -0.01766 0.00367697 1.34367e-05
3.01167e-21 0.01766 0.00367702 1.63147e-08
-6.77626e-21 -0.0180462 7.99821e-13 2.79303e-05
6.77626e-21 0.0180462 7.99456e-13 2.39926e-08
-2.25875e-21 -0.0180586 0.000513285 2.20256e-05
-3.38813e-21 0.0180586 0.000513288 1.96314e-08
6.77626e-21 -0.0181035 4.49129e-05 2.72139e-05
0 0.0181035 4.49204e-05 2.39053e-08
0 -0.0181053 7.64927e-13 2.72407e-05
0 0.0181054 7.64553e-13 2.38526e-08
0 0.0181062 0.00109872 1.18315e-08
1.12938e-21 -0.0181062 0.00109871 1.44114e-05
5.64689e-22 -0.0181012 0.00178214 8.35348e-06
-2.25875e-21 0.0181012 0.00178214 3.04357e-09
-1.12938e-21 -0.0180748 0.00251396 4.92605e-06
-2.25875e-21 0.0180748 0.00251397 1.73853e-09
-1.35525e-20 -0.0177924 0.00406323 1.49063e-05
0 0.0177926 0.00406332 1.50444e-08
0 -0.0178459 0.00400227 1.50365e-05
0 0.017846 0.00400239 1.53724e-08
-2.25875e-21 -0.0180178 0.00326611 7.84366e-06
-6.77626e-21 0.0180179 0.00326616 6.24632e-09
-2.71051e-20 -0.0183483 0.000235222 2.53868e-05
2.71051e-20 0.0183483 0.000235228 2.7723e-08
0 -0.0178961 0.00412296 1.55955e-05
0 0.0178962 0.004123 1.70992e-08
2.71051e-20 0.0183931 0.00076447 2.50258e-08
0 -0.0183931 0.000764464 2.04525e-05
4.51751e-22 -0.0180567 0.00374589 1.19709e-05
-4.51751e-22 0.0180567 0.00374594 1.20431e-08
-2.71051e-20 -0.0184337 0.00138079 1.48678e-05
0 0.0184337 0.0013808 5.74933e-09
0 -0.0184036 0.00212468 4.92411e-06
2.71051e-20 0.0184036 0.00212468 2.46228e-09
3.38813e-21 -0.0185327 3.11692e-13 3.38739e-05
-6.77626e-21 0.0185328 3.11508e-13 1.09455e-07
0 0.0180755 0.00422628 1.93237e-08
1.35525e-20 -0.0180755 0.00422633 1.71598e-05
0 -0.0183781 0.00285998 5.40862e-06
2.71051e-20 0.0183781 0.00285999 1.39096e-09
-2.25875e-21 -0.0186584 0.000460862 3.05947e-05
2.25875e-21 0.0186584 0.000460867 1.02099e-07
1.35525e-20 -0.0181752 0.00428374 1.73839e-05
6.77626e-21 0.0181755 0.00428388 1.96992e-08
0 -0.0182334 0.00409647 1.68929e-05
-4.51751e-21 0.0182335 0.00409657 1.87304e-08
0 -0.0183786 0.00352144 5.2666e-06
0 0.0183786 0.00352149 3.02217e-09
3.38813e-21 -0.018738 2.24864e-13 3.59852e-05
0 0.018738 2.24779e-13 1.41667e-07
0 -0.0187383 1.85704e-05 3.60189e-05
3.38813e-21 0.0187383 1.85635e-05 1.42062e-07
-3.38813e-21 -0.0187394 0.000144213 3.47765e-05
-3.38813e-21 0.0187394 0.000144178 1.35289e-07
-3.38813e-21 -0.0187638 5.24913e-14 3.64886e-05
-3.38813e-21 0.0187638 5.2518e-14 1.46175e-07
0 0.018782 1.52393e-05 1.43112e-07
0 -0.018782 1.5244e-05 3.63071e-05
-3.38813e-21 0.0187835 4.19052e-14 1.42675e-07
3.38813e-21 -0.0187835 4.18701e-14 3.62801e-05
5.64689e-23 0.0187413 0.0017483 6.34521e-09
2.25875e-22 -0.0187413 0.00174835 1.12483e-05
3.38813e-21 0.0188423 3.06821e-14 1.55127e-07
0 -0.0188423 3.06421e-14 3.90453e-05
0 0.0188305 0.000950992 6.96388e-08
-6.77626e-21 -0.0188305 0.000950983 2.81675e-05
0 -0.0183688 0.00439528 1.63454e-05
0 0.0183689 0.00439535 1.88501e-08
-4.03349e-23 -0.0187533 0.00244388 6.40694e-06
0 0.0187533 0.00244392 2.96807e-09
-1.12938e-21 -0.0186868 0.0032017 5.34425e-06
-1.12938e-21 0.0186868 0.00320172 2.12164e-09
1.35525e-20 -0.0184806 0.00445983 1.59659e-05
1.35525e-20 0.0184807 0.00445985 1.88656e-08
-1.35525e-20 -0.0185303 0.00433131 1.6118e-05
1.35525e-20 0.0185303 0.00433142 1.88066e-08
-7.52918e-22 -0.0186604 0.00393307 1.1502e-05
2.25875e-21 0.0186604 0.0039331 1.13145e-08
1.12938e-21 -0.0191244 0.000340856 5.55503e-05
-2.82344e-22 0.0191244 0.000340868 2.54692e-07
1.35525e-20 0.0192203 9.49176e-15 2.40314e-07
1.35525e-20 -0.0192203 9.47246e-15 5.46838e-05
2.71051e-20 0.0191645 0.00146332 1.10207e-08
0 -0.0191645 0.00146333 1.74725e-05
0 -0.0190143 0.00283766 5.64055e-06
2.71051e-20 0.0190143 0.00283768 2.02366e-09
-1.69407e-21 0.0186824 0.00457622 1.80684e-08
1.01644e-20 -0.0186825 0.00457626 1.6582e-05
1.69407e-21 -0.0187038 0.00458858 1.65576e-05
0 0.0187039 0.00458863 1.81458e-08
0 0.01916 0.00195764 7.23294e-09
0 -0.01916 0.00195763 1.09587e-05
1.69407e-21 -0.0187213 0.00456183 1.65444e-05
0 0.0187215 0.00456168 1.82226e-08
-1.18585e-20 -0.0187278 0.00460243 1.68159e-05
-8.47033e-21 0.0187281 0.00460258 1.81252e-08
-5.42101e-20 -0.0189854 0.00354595 5.08129e-06
-2.71051e-20 0.0189854 0.00354598 1.98585e-09
0 -0.0188773 0.00434108 1.54445e-05
-3.01167e-21 0.0188774 0.00434115 1.75587e-08
0 -0.0193794 0.000836844 4.89519e-05
-1.69407e-21 0.0193797 0.000837393 1.24655e-07
0 -0.0193832 0.00085584 4.87378e-05
2.75286e-21 0.0193834 0.000855823 1.19573e-07
-2.11758e-21 0.0194038 0.000856698 1.19907e-07
-2.5411e-21 -0.0194042 0.000856742 4.92205e-05
-1.35525e-20 0.0194237 1.55386e-15 2.36496e-07
0 -0.0194238 1.5392e-15 7.2316e-05
0 -0.0193728 0.00168997 1.53839e-05
0 0.0193728 0.00168998 1.10683e-08
1.41172e-21 0.0193778 0.00244583 4.67057e-09
2.82344e-22 -0.0193778 0.00244582 9.30671e-06
-1.35525e-20 -0.0189666 0.0047402 1.88146e-05
-1.35525e-20 0.0189667 0.00474028 1.71105e-08
1.12938e-21 -0.0193197 0.00318392 6.2906e-06
-1.12938e-21 0.0193197 0.00318394 2.12012e-09
0 -0.0190326 0.00467124 1.89766e-05
1.35525e-20 0.0190327 0.00467137 1.75089e-08
2.71051e-20 0.0195819 0.00142144 1.74706e-08
2.71051e-20 -0.0195819 0.00142144 1.97617e-05
-2.25875e-21 -0.0192551 0.00392917 8.75517e-06
4.51751e-21 0.0192551 0.00392922 6.72814e-09
0 -0.0196529 3.98812e-16 9.97733e-05
-6.77626e-21 0.019653 4.05019e-16 3.53152e-07
5.42101e-20 -0.0195685 0.0019371 1.40938e-05
2.71051e-20 0.0195685 0.00193711 9.54069e-09
2.71051e-20 -0.0190799 0.00480555 2.03814e-05
-2.71051e-20 0.0190799 0.00480559 1.97971e-08
0 0.0197212 0.00026999 3.39591e-07
9.03502e-21 -0.0197213 0.000269872 0.000102693
0 -0.0192753 0.0044119 1.54389e-05
-9.03502e-22 0.0192753 0.00441194 1.3902e-08
-3.38813e-21 0.019834 4.73089e-16 3.31872e-07
1.35525e-20 -0.0198344 4.68021e-16 0.000104425
-6.77626e-21 0.0192476 0.00490233 2.35624e-08
0 -0.0192477 0.00490234 2.43304e-05
2.71051e-20 -0.0196698 0.00278682 8.98861e-06
-2.71051e-20 0.0196698 0.00278683 3.01423e-09
2.71051e-20 -0.0196164 0.00353233 5.57325e-06
0 0.0196164 0.00353236 1.48208e-09
-1.35525e-20 -0.0193208 0.00494455 2.47963e-05
-1.35525e-20 0.019321 0.00494463 2.36091e-08
4.51751e-21 -0.0194217 0.00475372 2.36153e-05
4.51751e-21 0.0194217 0.0047538 2.21003e-08
0 0.0200351 -3.30531e-17 2.56396e-07
-1.35525e-20 -0.0200351 -3.31475e-17 9.96995e-05
-4.70198e-38 0.0200397 0.000879641 1.54003e-07
-8.47033e-22 -0.0200397 0.000879689 7.1522e-05
-2.71051e-20 -0.0196209 0.00418595 7.43672e-06
0 0.019621 0.00418598 3.59611e-09
0 0.0200082 0.001684 1.51254e-08
0 -0.0200082 0.00168399 2.00613e-05
0 -0.0200926 6.73445e-05 0.000101202
-1.35525e-20 0.0200927 6.74618e-05 2.66602e-07
0 -0.0200965 -8.39152e-19 0.00010129
0 0.0200966 -7.09534e-19 2.66495e-07
0 -0.0201334 8.4998e-18 0.000103943
0 0.0201335 8.62606e-18 2.70109e-07
2.71051e-20 -0.0195081 0.00505258 2.3293e-05
-1.35525e-20 0.0195081 0.00505262 2.14308e-08
0 0.0200347 0.00229462 7.88838e-09
-2.25875e-21 -0.0200347 0.0022946 1.32902e-05
0 -0.0199605 0.00311668 8.16008e-06
-2.03288e-21 0.0199605 0.00311671 3.0602e-09
1.35525e-20 -0.020225 6.93279e-05 0.000111016
0 0.0202253 6.94576e-05 2.47031e-07
-1.35525e-20 -0.0202304 -1.78061e-17 0.000111019
1.35525e-20 0.0202307 -1.76953e-17 2.47014e-07
-3.38813e-21 -0.0199314 0.00385542 6.91882e-06
4.51751e-21 0.0199314 0.00385544 1.97761e-09
-6.77626e-21 0.0196737 0.00514811 2.28196e-08
-1.35525e-20 -0.0196737 0.00514812 2.4022e-05
3.61401e-21 -0.0198941 0.00456695 1.51697e-05
7.52316e-38 0.0198941 0.00456697 1.05437e-08
0 -0.0197657 0.00520119 2.38102e-05
1.35525e-20 0.0197657 0.00520124 2.20848e-08
4.51751e-21 -0.0198219 0.00501114 2.31408e-05
0 0.0198219 0.00501119 2.10502e-08
-2.71051e-20 -0.0202897 0.00277314 8.85344e-06
-2.71051e-20 0.0202897 0.00277314 4.59323e-09
-2.71051e-20 -0.0202612 0.00349046 7.28743e-06
2.71051e-20 0.0202612 0.00349047 1.48824e-09
0 0.0199065 0.00528242 1.71724e-08
2.71051e-20 -0.0199065 0.00528242 2.25307e-05
-2.71051e-20 -0.0202451 0.00417935 7.36934e-06
0 0.0202451 0.00417938 1.27584e-09
-5.42101e-20 0.0206574 0.00171968 1.88817e-08
1.0842e-19 -0.0206574 0.00171968 2.7064e-05
4.51751e-21 -0.0201293 0.004986 1.92263e-05
1.50584e-21 0.0201293 0.00498603 1.31265e-08
0 0.0200532 0.00536706 1.74025e-08
-6.77626e-21 -0.0200532 0.00536708 2.48051e-05
2.82344e-22 -0.0206314 0.00242245 1.49935e-05
-5.64689e-22 0.0206314 0.00242249 7.8587e-09
0 0.0207755 0.000514881 1.66475e-07
-5.42101e-20 -0.0207756 0.000514862 0.000141481
0 -0.0205987 0.00311576 9.63026e-06
-1.12938e-21 0.0205987 0.00311576 3.25674e-09
-2.71051e-20 -0.0203105 0.00476265 1.17457e-05
-2.71051e-20 0.0203105 0.00476269 2.91923e-09
-6.77626e-21 -0.0201708 0.00543492 2.52885e-05
2.03288e-20 0.0201709 0.00543498 1.73695e-08
4.51751e-21 -0.0202177 0.00527681 2.40812e-05
-4.51751e-21 0.0202177 0.00527687 1.68232e-08
-3.38813e-21 -0.0205738 0.00381737 7.88303e-06
1.12938e-21 0.0205738 0.00381738 1.40063e-09
4.51751e-21 -0.0205819 0.00447085 1.00307e-05
0 0.0205819 0.00447087 1.74059e-09
0 -0.0203369 0.00553075 2.3482e-05
0 0.0203371 0.00553081 1.65962e-08
5.42101e-20 -0.0209426 0.00274697 1.4214e-05
0 0.0209426 0.00274698 5.05862e-09
0 -0.0209032 0.00344943 8.23874e-06
8.13152e-20 0.0209032 0.00344944 1.89238e-09
-1.35525e-20 -0.0204447 0.0055929 2.24744e-05
-1.35525e-20 0.0204447 0.00559292 1.68064e-08
-1.35525e-20 -0.0204858 0.00548981 2.2627e-05
0 0.0204858 0.00548988 1.6741e-08
7.52918e-22 -0.0206004 0.00512924 1.85747e-05
2.25875e-21 0.0206004 0.00512925 1.00133e-08
-5.42101e-20 -0.0208995 0.00412601 8.61408e-06
-2.71051e-20 0.0208995 0.00412602 9.5179e-10
1.35525e-20 0.0213128 8.97542e-05 1.55185e-07
0 -0.0213128 8.9712e-05 0.000151242
1.35525e-20 0.0213193 -2.80333e-18 1.55195e-07
-1.35525e-20 -0.0213194 -2.88788e-18 0.000151234
6.77626e-21 0.0213562 0.00112751 8.59859e-08
0 -0.0213563 0.0011275 9.73127e-05
2.03288e-20 0.0206272 0.00569817 1.62336e-08
-6.77626e-21 -0.0206273 0.00569821 2.48748e-05
0 -0.0208932 0.00478631 1.2239e-05
0 0.0208932 0.00478633 1.68493e-09
2.25875e-21 0.0213143 0.00228572 1.08174e-08
1.12938e-21 -0.0213143 0.00228571 2.3417e-05
0 0.02144 1.08456e-18 1.50056e-07
-1.35525e-20 -0.0214401 1.0845e-18 0.000154207
0 -0.0206784 0.00572772 2.51989e-05
0 0.0206785 0.00572775 1.64741e-08
-2.82344e-22 -0.0212371 0.00307351 1.24857e-05
-2.82344e-22 0.0212371 0.00307352 4.03229e-09
6.77626e-21 -0.0207149 0.00567146 2.51983e-05
0 0.020715 0.00567136 1.66524e-08
6.77626e-21 -0.0207375 0.00576179 2.62126e-05
6.77626e-21 0.0207376 0.00576188 1.64445e-08
3.01167e-21 -0.0208293 0.00551232 2.44588e-05
3.01167e-21 0.0208293 0.00551235 1.61208e-08
0 -0.0215471 0.000109115 0.000158817
0 0.0215471 0.000109145 1.46015e-07
0 0.0215566 9.65884e-19 1.45926e-07
0 -0.0215566 9.65614e-19 0.000158872
-3.17637e-22 -0.0212592 0.00373091 1.02195e-05
-3.17637e-22 0.0212592 0.00373092 1.7253e-09
-3.38813e-21 -0.0212042 0.00445828 1.13817e-05
0 0.0212042 0.00445829 1.18464e-09
0 -0.0209535 0.0058866 2.98541e-05
-1.35525e-20 0.0209535 0.00588664 1.56446e-08
6.77626e-21 -0.0211675 0.00514624 1.75933e-05
-6.77626e-21 0.0211675 0.00514627 6.1928e-09
-1.35525e-20 -0.0210048 0.00583271 2.99922e-05
0 0.0210048 0.00583278 1.59796e-08
0 0.0216644 0.00284434 5.57903e-09
0 -0.0216644 0.00284434 1.4752e-05
2.71051e-20 -0.0210555 0.00594567 3.27078e-05
0 0.0210555 0.00594567 1.81299e-08
0 0.0216616 0.00329946 2.89883e-09
2.71051e-20 -0.0216616 0.00329945 1.32179e-05
0 -0.0215297 0.00411132 1.11725e-05
-2.71051e-20 0.0215297 0.00411133 1.05248e-09
0 -0.0212154 0.00559337 2.62213e-05
1.12938e-21 0.0212154 0.0055934 1.24308e-08
0 0.0219546 0.00177015 1.87376e-08
5.42101e-20 -0.0219546 0.00177015 4.61175e-05
-5.42101e-20 0.0220217 0.000571054 1.34497e-07
-5.42101e-20 -0.0220218 0.000571066 0.000168845
0 -0.0215068 0.00478713 1.34372e-05
0 0.0215068 0.00478716 1.01977e-09
0 0.0219097 0.00242093 9.75533e-09
-8.47033e-22 -0.0219097 0.00242092 2.53668e-05
6.77626e-21 0.021227 0.00604556 2.15275e-08
-6.77626e-21 -0.0212271 0.00604561 4.01787e-05
-1.35525e-20 -0.0218721 0.0030677 1.50581e-05
0 0.0218721 0.0030677 4.29815e-09
-2.71051e-20 -0.0215266 0.00539882 1.82247e-05
0 0.0215266 0.00539885 3.02703e-09
-4.51751e-21 -0.021392 0.00594167 3.97523e-05
-9.03502e-21 0.021392 0.00594175 2.09322e-08
8.47033e-22 0.0218838 0.00375445 1.86438e-09
1.69407e-21 -0.0218838 0.00375445 1.38819e-05
-1.35525e-20 -0.0213574 0.00612127 4.28794e-05
0 0.0213576 0.00612138 2.24719e-08
0 -0.0218345 0.00443965 1.4018e-05
-1.12938e-21 0.0218345 0.00443967 1.04921e-09
2.71051e-20 -0.0221011 0.00283877 1.77851e-05
2.71051e-20 0.0221011 0.00283877 5.52529e-09
2.71051e-20 -0.0220656 0.0032889 1.54924e-05
2.71051e-20 0.0220656 0.00328891 3.20721e-09
-2.25875e-21 -0.0218182 0.00510344 1.71117e-05
2.25875e-21 0.0218183 0.00510346 1.75396e-09
0 -0.0215448 0.00623065 4.18198e-05
-1.35525e-20 0.0215448 0.00623071 2.16057e-08
-1.35525e-20 0.0225384 9.17221e-05 1.39868e-07
0 -0.0225384 9.17064e-05 0.000169806
1.35525e-20 0.0225403 1.79113e-19 1.39832e-07
0 -0.0225404 1.78131e-19 0.000169785
0 0.0216442 0.0063096 2.17813e-08
-1.35525e-20 -0.0216442 0.00630959 4.16038e-05
-2.71051e-20 -0.0221735 0.00407695 1.49253e-05
-2.71051e-20 0.0221736 0.00407697 1.2578e-09
0 0.0216896 0.0061912 2.16397e-08
0 -0.0216897 0.00619112 4.15315e-05
7.52918e-22 -0.0218103 0.00580094 3.21147e-05
-7.52918e-22 0.0218103 0.00580096 1.2637e-08
0 0.0225989 0.00115695 8.1188e-08
0 -0.0225989 0.00115695 0.000112685
0 0.0226373 8.21489e-20 1.40492e-07
0 -0.0226373 8.09897e-20 0.00016989
5.42101e-20 -0.0221353 0.00476853 1.64877e-05
-2.71051e-20 0.0221353 0.00476855 8.68403e-10
0 0.022582 0.00236336 1.19959e-08
-3.38813e-21 -0.022582 0.00236336 3.61186e-05
4.23516e-22 0.0225009 0.00305827 4.50203e-09
0 -0.022501 0.00305827 1.99373e-05
0 0.0225095 0.00306052 4.50578e-09
-6.69156e-20 -0.0225142 0.0030581 2.00169e-05
1.35525e-20 -0.0227255 8.81882e-05 0.000171055
-1.35525e-20 0.0227256 8.82072e-05 1.40373e-07
0 -0.0227307 3.10213e-20 0.000171068
-1.35525e-20 0.0227308 3.16342e-20 1.40357e-07
0 0.0218385 0.00644695 2.06097e-08
3.38813e-21 -0.0218386 0.00644701 4.17701e-05
2.71051e-20 -0.0221179 0.00543869 2.02209e-05
0 0.0221179 0.00543873 1.97102e-09
1.69407e-21 -0.0218565 0.0064596 4.18809e-05
1.69407e-21 0.0218565 0.00645965 2.07039e-08
0 -0.0218724 0.00643784 4.19428e-05
0 0.0218726 0.00643772 2.08021e-08
0 -0.0218744 0.00647341 4.17447e-05
3.38813e-21 0.0218746 0.00647358 2.04749e-08
-1.58113e-21 -0.0225287 0.00364569 1.96584e-05
-1.807e-21 0.0225287 0.00364571 2.33063e-09
2.25875e-21 -0.0224649 0.00441818 1.97324e-05
-1.12938e-21 0.022465 0.00441819 1.15332e-09
4.51751e-21 -0.0220386 0.00622588 4.14789e-05
-3.01167e-21 0.0220386 0.00622594 2.03885e-08
1.12938e-21 -0.0224373 0.00510162 2.10038e-05
-3.38813e-21 0.0224374 0.00510164 1.20763e-09
0 -0.022069 0.00662861 4.06583e-05
-1.35525e-20 0.0220691 0.00662869 1.77917e-08
-2.71051e-20 -0.0221728 0.00656824 4.07128e-05
-2.71051e-20 0.0221729 0.00656835 1.8074e-08
-9.03502e-21 -0.0223901 0.00581141 3.00648e-05
-2.25875e-21 0.0223901 0.00581147 7.27369e-09
0 -0.0227864 0.00407104 2.37595e-05
0 0.0227864 0.00407104 1.59407e-09
-1.35525e-20 -0.0221653 0.00670526 3.99924e-05
-1.35525e-20 0.0221653 0.0067053 1.75113e-08
0 0.0232274 0.000581677 1.46058e-07
0 -0.0232275 0.000581678 0.000172122
2.71051e-20 -0.0227665 0.00474853 2.36873e-05
0 0.0227666 0.00474854 8.93095e-10
0 0.0231993 0.00176868 2.09042e-08
5.42101e-20 -0.0231993 0.00176868 5.93552e-05
-1.35525e-20 -0.0222608 0.00678087 3.77932e-05
-1.35525e-20 0.0222609 0.00678088 1.67586e-08
-2.71051e-20 -0.0223061 0.0066761 3.85488e-05
1.35525e-20 0.0223061 0.00667615 1.72821e-08
7.26028e-22 -0.0224559 0.00637514 3.68027e-05
-1.04871e-21 0.0224559 0.00637519 1.30849e-08