# omega  POINT_DATA 14647
# x  y  z  omega
4.23516e-22 -0.0130568 4.20108e-06 1613.86
0 0.0130568 4.20422e-06 1612.94
0 0.0130538 6.6649e-06 1616.12
-4.23516e-22 -0.0130538 6.66028e-06 1617.04
1.69407e-21 -0.0130538 0.000644839 2226.49
0 0.0130538 0.000645282 2225.77
0 -0.0130538 0.000659278 2241
-8.47033e-22 0.0130538 0.000659736 2240.29
0 -0.0130538 0.000674531 2289.58
-8.47033e-22 0.0130538 0.000674994 2288.88
0 -0.0130603 0.000649722 2235.25
8.47033e-22 0.0130603 0.000650171 2234.53
0 -0.0130603 0.000668856 2278.36
0 0.0130603 0.000669319 2277.66
-5.92923e-21 -0.0130709 0.000658157 2212.85
1.60936e-20 0.0130709 0.000658618 2210.08
0 -0.0130538 0.00133809 3280.68
1.69407e-21 0.0130538 0.00133857 3279.99
0 -0.0130538 0.00135468 3268.72
0 0.0130538 0.00135516 3268.04
0 -0.0130538 0.00137216 3320.76
0 0.0130538 0.00137263 3320.07
-1.69407e-21 -0.0130609 0.00134164 3282.99
1.69407e-21 0.0130609 0.00134212 3282.3
-1.69407e-21 -0.0130605 0.00136331 3312.4
0 0.0130605 0.00136378 3311.72
5.0822e-21 -0.0130744 0.00134748 3201.07
1.69407e-21 0.0130744 0.00134796 3195.24
0 -0.0130556 0.00208219 2051.73
0 0.0130577 0.00208858 2051.88
-3.38813e-21 -0.0130676 0.00208095 2016.65
3.81165e-21 0.0130676 0.00208095 2017.04
-6.77626e-21 -0.0133442 8.05862e-08 1460.67
0 0.0133442 8.05859e-08 1459.57
-1.12938e-21 -0.0133452 0.000326479 1464.96
-3.38813e-21 0.0133452 0.000326736 1460.51
-2.25875e-21 -0.0133372 0.000959829 2334.89
-7.90564e-21 0.0133372 0.000960365 2325.03
0 -0.0132973 0.00155417 3008.93
0 0.0132973 0.00155454 2985.62
3.04932e-20 0.0132406 0.00216284 1241.14
0 -0.0132406 0.00216285 1240.52
0 -0.0132805 0.00206428 1241.09
-3.38813e-21 0.0132805 0.00206425 1241.75
-2.71051e-20 0.0133174 0.00219404 1496.27
0 -0.0133175 0.00219406 1496.05
2.25875e-21 -0.0133831 0.00186918 1517.78
0 0.0133831 0.00186936 1514.32
1.35525e-20 -0.0135632 9.24961e-08 1127.38
-2.71051e-20 0.0135632 9.24953e-08 1125.64
2.25875e-21 -0.0134965 0.00146605 1530.93
6.77626e-21 0.0134965 0.00146649 1531.37
0 -0.0136117 8.70388e-05 1033.61
6.77626e-21 0.0136117 8.71003e-05 1031.73
6.77626e-21 -0.0136152 8.46271e-08 1038.27
0 0.0136152 8.46271e-08 1036.4
1.35525e-20 -0.0136416 8.0639e-08 1073.3
0 0.0136416 8.06395e-08 1071.45
6.77626e-22 -0.0136355 0.000678728 993.052
6.77626e-22 0.0136355 0.000679269 968.935
-1.35525e-20 0.0134811 0.00226049 1037.34
0 -0.0134812 0.00226053 1037.25
1.69407e-21 -0.0136197 0.00118987 1041.73
1.50584e-21 0.0136197 0.00119045 1000.84
-3.01167e-21 -0.0136061 0.00162976 1157.39
-4.51751e-21 0.0136061 0.00163011 1116.27
1.35525e-20 0.0137235 7.39497e-08 1029.71
1.35525e-20 -0.0137235 7.39483e-08 1031.71
6.77626e-21 0.0137252 9.16823e-05 1025.7
-6.77626e-21 -0.0137253 9.16246e-05 1027.72
-1.12938e-22 -0.0137103 0.00202484 962.282
-3.38813e-22 0.0137102 0.00202496 961.454
-6.77626e-21 0.0136752 0.0023393 1139.25
6.77626e-21 -0.0136753 0.00233933 1139.23
-6.77626e-21 0.0137679 0.00237692 1238.71
1.35525e-20 -0.013768 0.00237696 1238.65
-1.35525e-20 -0.0139849 0.000399002 758.605
0 0.0139849 0.000399313 752.316
-9.03502e-21 -0.013986 0.000912946 367.406
-9.03502e-21 0.013986 0.000913447 345.574
-9.03502e-21 -0.0139545 0.00150378 391.297
4.51751e-21 0.0139546 0.00150416 368.407
1.35525e-20 -0.0140935 0.000126371 832.328
-1.35525e-20 0.0140935 0.000126457 829.702
0 -0.0141015 1.51513e-08 832.335
0 0.0141015 1.51514e-08 829.709
8.47033e-22 -0.0139607 0.00245511 1352.28
0 0.0139609 0.00245518 1352.46
-2.71051e-20 -0.0141702 0.000612039 576.194
-2.71051e-20 0.0141702 0.000612472 559.927
2.71051e-20 0.0139759 0.00246127 1364.32
7.6233e-21 -0.013976 0.00246129 1364.33
9.31736e-21 0.0139805 0.00244911 1359.24
-2.5411e-21 -0.0139806 0.00244893 1359.16
-2.71051e-20 -0.0141582 0.00121268 344.06
0 0.0141582 0.00121315 322.02
1.35525e-20 -0.0142137 6.98307e-09 835.139
0 0.0142137 6.98407e-09 832.442
0 -0.0141062 0.00185461 698.613
0 0.0141062 0.00185482 678.127
0 0.0140936 0.00222224 1295.94
-2.25875e-21 -0.0140936 0.00222217 1297.19
-1.35525e-20 0.0143442 6.46477e-09 831.934
0 -0.0143442 6.46386e-09 834.773
1.35525e-20 0.0141438 0.00239267 1499.2
-6.77626e-21 -0.0141439 0.00239256 1499.13
0 0.014345 0.000135164 832.013
-1.35525e-20 -0.014345 0.00013509 834.861
-1.35525e-20 0.0141782 0.00254345 1666.2
0 -0.0141783 0.00254345 1666.32
-2.43945e-20 0.0144148 0.000393235 760.064
-2.71051e-21 -0.0144148 0.000392975 766.503
0 0.014293 0.00252719 1838.34
6.77626e-21 -0.0142931 0.00252719 1838.5
-2.03288e-20 0.0142857 0.00258696 1909.04
0 -0.0142858 0.00258699 1909.25
6.77626e-21 -0.0145008 0.000915389 289.11
4.51751e-21 0.0145008 0.000915765 257.71
1.69407e-21 0.0143708 0.00229756 1329.67
-3.38813e-21 -0.0143708 0.00229749 1342.62
2.25875e-21 -0.0144715 0.00154752 280.843
0 0.0144715 0.0015478 242.162
0 -0.0144657 0.00205596 619.56
-4.51751e-21 0.0144657 0.00205609 581.269
0 0.0146705 0.00015054 837.689
1.35525e-20 -0.0146705 0.000150448 840.848
-1.35525e-20 0.01468 6.30535e-09 837.781
1.35525e-20 -0.01468 6.30475e-09 840.941
0 -0.0144708 0.00266175 2131.32
1.35525e-20 0.0144708 0.00266174 2131.04
2.71051e-21 0.0145057 0.00250599 1983.29
-2.71051e-21 -0.0145058 0.00250596 1983.54
0 0.0148233 5.71582e-09 847.502
0 -0.0148234 5.71538e-09 850.713
0 -0.0148745 0.000558342 569.835
-4.51751e-21 0.0148745 0.000558581 553.428
0 -0.0147686 0.00191048 465.722
0 0.0147686 0.00191064 427.114
0 0.0146404 0.00273044 1643.7
0 -0.0146404 0.00273047 1644.48
-1.54886e-20 -0.0148827 0.00116851 184.562
5.80823e-21 0.0148827 0.00116882 149.297
1.35525e-20 0.0149747 4.96127e-09 854.952
2.71051e-20 -0.0149747 4.9609e-09 858.252
1.35525e-20 0.0149752 0.000142336 854.803
-1.35525e-20 -0.0149752 0.000142287 858.102
-2.25875e-21 -0.0148161 0.00236406 1210.2
4.51751e-21 0.0148161 0.00236412 1181.51
-1.807e-20 -0.0150223 0.00156473 216.59
0 0.0150222 0.00156494 179.628
-2.71051e-20 0.0151424 0.000304981 860.391
0 -0.0151424 0.000304874 863.792
-1.35525e-20 0.0148918 0.00283394 1502.69
2.71051e-20 -0.0148918 0.00283398 1504.01
0 -0.0151422 0.000920422 180.04
0 0.0151422 0.000920657 146.795
8.13152e-21 0.0150419 0.00210501 334.052
-1.89735e-20 -0.0150419 0.00210492 402.148
4.51751e-21 -0.015053 0.00270398 1585.11
0 0.015053 0.00270402 1583.86
-6.77626e-21 -0.0150244 0.00288816 1517.47
-2.71051e-20 0.0150245 0.0028882 1516.07
1.35525e-20 0.0153086 2.24203e-09 868.859
1.35525e-20 -0.0153086 2.24182e-09 872.321
0 0.0153121 0.000140875 868.839
-1.35525e-20 -0.0153122 0.000140824 872.301
0 -0.0154577 1.48782e-09 879.227
-1.35525e-20 0.0154577 1.48795e-09 875.724
4.51751e-21 -0.0154655 0.000604019 531.896
2.25875e-21 0.0154655 0.000604165 514.899
-1.12938e-20 -0.0154631 0.00123933 150.309
3.76158e-37 0.0154631 0.0012395 116.617
0 -0.0152755 0.00299148 1602.8
2.71051e-20 0.0152755 0.0029915 1601.49
0 -0.015469 0.0018808 203.472
2.25875e-21 0.015469 0.00188091 153.106
0 -0.0156043 1.3028e-09 884.232
-1.35525e-20 0.0156043 1.30289e-09 880.648
-1.35525e-20 -0.0156046 0.000132299 883.959
1.35525e-20 0.0156046 0.000132329 880.378
0 0.0153937 0.00303998 1795.09
0 -0.0153938 0.00303999 1796.42
1.35525e-20 0.0154261 0.0029384 1789.43
-2.71051e-20 -0.0154261 0.00293835 1790.73
5.27043e-21 -0.0155039 0.00256159 1064.67
-7.52918e-22 0.0155039 0.00256162 1025.13
0 0.0157872 0.000299952 889.315
2.71051e-20 -0.0157872 0.000299901 892.961
2.71051e-20 -0.0157971 0.000915013 172.789
-2.71051e-20 0.0157971 0.000915131 144.584
0 -0.0157989 0.00156074 109.391
-2.71051e-20 0.0157989 0.00156083 74.0284
6.77626e-21 0.0156182 0.00313283 2057.7
-6.77626e-21 -0.0156183 0.00313286 2058.93
2.71051e-20 -0.015809 0.0022127 205.034
2.71051e-20 0.015809 0.00221276 160.625
0 0.0159653 5.84461e-10 901.452
-1.35525e-20 -0.0159653 5.84404e-10 905.157
-1.35525e-20 0.0159712 0.000124971 901.517
0 -0.0159712 0.000124945 905.222
6.77626e-21 -0.0156925 0.0031635 2050.47
6.77626e-21 0.0156925 0.00316352 2049.25
6.77626e-21 -0.01572 0.00310334 2017.99
-6.77626e-21 0.0157201 0.00310327 2016.74
-1.50584e-21 -0.0157996 0.00293416 1745.2
0 0.0157996 0.00293419 1729.75
0 -0.015781 0.00319986 2127.98
-2.03288e-20 0.0157812 0.00319994 2126.84
0 -0.0161034 4.04832e-10 920.49
0 0.0161034 4.0486e-10 916.783
-6.77626e-21 -0.016119 0.000594184 554.064
-6.77626e-21 0.016119 0.000594247 535.73
-9.03502e-21 -0.0161299 0.00122524 142.544
2.25875e-21 0.0161299 0.00122532 107.745
0 -0.0162343 3.59803e-10 928.345
-1.35525e-20 0.0162343 3.59826e-10 924.573
0 -0.0162345 0.00011328 927.884
0 0.0162345 0.000113292 924.115
-6.77626e-21 -0.0161352 0.00188661 140.629
0 0.0161352 0.00188666 99.0022
0 -0.0161278 0.00255594 594.761
-2.25875e-21 0.0161278 0.00255599 538.335
-1.35525e-20 -0.0159975 0.00328828 2447.99
0 0.0159976 0.00328832 2446.71
1.35525e-20 -0.0160352 0.00323057 2404.88
4.06576e-20 0.0160353 0.00323064 2403.62
1.35525e-20 -0.0160906 0.00332631 2051.24
1.35525e-20 0.0160907 0.00332633 2049.95
-2.71051e-20 -0.0164377 0.00029234 940.362
-2.71051e-20 0.0164377 0.000292357 936.532
-2.71051e-20 -0.0164552 0.000897699 187.618
0 0.0164552 0.000897745 149.08
-1.807e-21 -0.0162066 0.0029897 1513.31
1.35525e-21 0.0162067 0.00298974 1476.54
-2.71051e-20 -0.0164658 0.00154123 98.6768
0 0.0164658 0.00154127 61.5091
1.35525e-20 0.0162526 0.00328164 1917.02
0 -0.0162527 0.00328159 1918.41
0 0.0162526 0.00339239 1866.91
-2.71051e-20 -0.0162526 0.00339241 1868.34
-2.71051e-20 -0.0164656 0.00220947 146.146
5.42101e-20 0.0164656 0.00220951 96.5429
0 0.0166389 1.04271e-10 961.327
0 -0.0166389 1.04267e-10 965.164
0 0.0166447 0.000100575 961.42
0 -0.0166447 0.000100568 965.257
0 -0.0165065 0.00278869 407.845
-2.71051e-20 0.0165065 0.00278872 329.107
0 -0.0167551 6.1842e-11 989.63
1.35525e-20 0.0167551 6.18409e-11 985.847
4.51751e-21 -0.0167741 0.000577096 592.713
4.51751e-21 0.0167741 0.000577118 572.212
2.71051e-20 -0.0164727 0.00325225 2009.81
2.71051e-20 0.0164728 0.00325227 2008.3
3.38813e-21 -0.0167927 0.00119999 146.165
1.12938e-21 0.0167928 0.00120002 106.753
2.71051e-20 -0.0164932 0.00349062 1699.34
1.35525e-20 0.0164934 0.00349067 1697.49
-1.35525e-20 -0.0168627 5.6253e-11 998.069
-1.35525e-20 0.0168627 5.62518e-11 994.281
0 -0.0168631 9.00351e-05 997.627
-1.35525e-20 0.0168631 9.00377e-05 993.839
1.12938e-21 -0.0167971 0.00186718 113.792
3.38813e-21 0.0167971 0.0018672 69.8729
-2.71051e-20 -0.0165645 0.00339838 1704.1
0 0.0165646 0.00339847 1702.24
2.25875e-21 -0.0168038 0.00251859 234.736
-2.25875e-21 0.0168039 0.00251861 176.282
-2.71051e-20 -0.0166657 0.003561 1601.21
0 0.0166658 0.00356102 1599.35
3.38813e-21 -0.0167839 0.00309024 1028.58
-6.77626e-21 0.016784 0.00309026 995.629
5.42101e-20 0.0170872 0.000280478 1018.56
-2.71051e-20 -0.0170872 0.000280474 1022.35
5.42101e-20 -0.0171093 0.000869706 195.318
0 0.0171094 0.000869716 158.614
0 -0.0171238 0.0015109 101.501
2.71051e-20 0.0171238 0.00151092 56.1393
-6.77626e-21 0.0168547 0.00363794 1135.71
2.03288e-20 -0.0168548 0.00363795 1137.76
-2.71051e-20 -0.0171215 0.00218644 108.037
5.42101e-20 0.0171216 0.00218645 64.4737
0 -0.0173128 1.50028e-11 1067.21
-1.35525e-20 0.0173128 1.50016e-11 1063.43
1.35525e-20 0.017316 7.61098e-05 1063.5
0 -0.017316 7.61078e-05 1067.27
0 -0.0169937 0.00347014 1203.17
0 0.0169937 0.00347019 1201.07
-2.03288e-20 -0.0169518 0.00367748 1049.84
2.03288e-20 0.0169519 0.00367752 1047.61
-2.71051e-20 -0.0171192 0.00284365 255.918
2.71051e-20 0.0171192 0.00284368 196.828
0 0.0174041 1.00273e-11 1096.21
0 -0.0174041 1.00286e-11 1099.96
-2.25875e-21 -0.0174225 0.000552281 659.541
2.25875e-21 0.0174225 0.000552286 632.045
5.64689e-21 -0.0174464 0.00116236 159.925
0 0.0174464 0.00116237 111.649
0 -0.0174883 9.27754e-12 1107.64
1.35525e-20 0.0174883 9.27624e-12 1103.9
0 -0.0174886 6.91534e-05 1107.41
1.35525e-20 0.0174886 6.91578e-05 1103.67
0 -0.0174523 0.00183361 100.222
0 0.0174523 0.00183363 55.7254
4.06576e-20 0.0171554 0.00376035 1266.86
1.35525e-20 -0.0171554 0.00376034 1268.78
3.38813e-21 -0.0174395 0.00252755 164.245
2.25875e-21 0.0174395 0.00252757 108.712
0 -0.0172701 0.00381183 1335.77
0 0.0172701 0.00381183 1333.98
1.35525e-20 0.0173096 0.0036891 1318.92
0 -0.0173096 0.00368906 1320.74
-1.8823e-21 -0.0174174 0.00327288 801.644
4.89397e-21 0.0174174 0.00327291 763.75
2.71051e-20 -0.0177262 0.000264489 1150.68
0 0.0177262 0.000264491 1146.96
0 -0.0177529 0.000830839 240.36
-2.71051e-20 0.0177529 0.000830843 174.054
0 -0.0177737 0.00146633 100.477
0 0.0177737 0.00146634 55.4363
-2.03288e-20 0.0174674 0.00388876 1562.48
-1.35525e-20 -0.0174675 0.00388877 1564.23
-2.71051e-20 -0.0177694 0.00215825 91.2685
2.71051e-20 0.0177694 0.00215826 47.1484
-6.77626e-21 -0.0175188 0.00391124 1572.05
0 0.017519 0.0039113 1570.36
-3.38813e-21 -0.0175509 0.00385321 1546.47
-3.38813e-21 0.0175511 0.00385308 1544.69
-2.71051e-20 -0.0177413 0.00287705 192.75
2.71051e-20 0.0177414 0.00287708 117.774
-6.77626e-21 0.0179809 1.39465e-12 1265.78
-6.77626e-21 -0.0179809 1.39504e-12 1269.3
-6.77626e-21 0.017982 5.25092e-05 1265.89
6.77626e-21 -0.017982 5.25067e-05 1269.41
0 -0.0175787 0.00394073 1610.85
-1.35525e-20 0.017579 0.0039409 1609.25
-4.51751e-21 -0.01766 0.00367697 1349.43
3.01167e-21 0.01766 0.00367702 1337.43
-6.77626e-21 -0.0180462 7.99821e-13 1316.7
6.77626e-21 0.0180462 7.99456e-13 1313.22
-2.25875e-21 -0.0180586 0.000513285 792.706
-3.38813e-21 0.0180586 0.000513288 759.516
6.77626e-21 -0.0181035 4.49129e-05 1338.23
0 0.0181035 4.49204e-05 1334.8
0 -0.0181053 7.64927e-13 1335.78
0 0.0181054 7.64553e-13 1332.35
0 0.0181062 0.00109872 130.374
1.12938e-21 -0.0181062 0.00109871 187.558
5.64689e-22 -0.0181012 0.00178214 97.0736
-2.25875e-21 0.0181012 0.00178214 50.0502
-1.12938e-21 -0.0180748 0.00251396 127.412
-2.25875e-21 0.0180748 0.00251397 68.4412
-1.35525e-20 -0.0177924 0.00406323 1873.19
0 0.0177926 0.00406332 1871.35
0 -0.0178459 0.00400227 1821.3
0 0.017846 0.00400239 1819.48
-2.25875e-21 -0.0180178 0.00326611 495.716
-6.77626e-21 0.0180179 0.00326616 428.341
-2.71051e-20 -0.0183483 0.000235222 1456.17
2.71051e-20 0.0183483 0.000235228 1452.94
0 -0.0178961 0.00412296 1559.49
0 0.0178962 0.004123 1557.69
2.71051e-20 0.0183931 0.00076447 214.409
0 -0.0183931 0.000764464 275.075
4.51751e-22 -0.0180567 0.00374589 1162.76
-4.51751e-22 0.0180567 0.00374594 1125.4
-2.71051e-20 -0.0184337 0.00138079 117.312
0 0.0184337 0.0013808 59.6411
0 -0.0184036 0.00212468 80.594
2.71051e-20 0.0184036 0.00212468 38.5067
3.38813e-21 -0.0185327 3.11692e-13 1186.92
-6.77626e-21 0.0185328 3.11508e-13 1182.68
0 0.0180755 0.00422628 1260.79
1.35525e-20 -0.0180755 0.00422633 1262.67
0 -0.0183781 0.00285998 142.811
2.71051e-20 0.0183781 0.00285999 68.4583
-2.25875e-21 -0.0186584 0.000460862 817.125
2.25875e-21 0.0186584 0.000460867 785.151
1.35525e-20 -0.0181752 0.00428374 1221.51
6.77626e-21 0.0181755 0.00428388 1219.44
0 -0.0182334 0.00409647 1350.72
-4.51751e-21 0.0182335 0.00409657 1348.76
0 -0.0183786 0.00352144 352.709
0 0.0183786 0.00352149 257.037
3.38813e-21 -0.018738 2.24864e-13 1152.94
0 0.018738 2.24779e-13 1148.45
0 -0.0187383 1.85704e-05 1152.38
3.38813e-21 0.0187383 1.85635e-05 1147.89
-3.38813e-21 -0.0187394 0.000144213 1046.56
-3.38813e-21 0.0187394 0.000144178 1033.46
-3.38813e-21 -0.0187638 5.24913e-14 1145.78
-3.38813e-21 0.0187638 5.2518e-14 1141.23
0 0.018782 1.52393e-05 1163.64
0 -0.018782 1.5244e-05 1168.18
-3.38813e-21 0.0187835 4.19052e-14 1165.16
3.38813e-21 -0.0187835 4.18701e-14 1169.7
5.64689e-23 0.0187413 0.0017483 50.8004
2.25875e-22 -0.0187413 0.00174835 99.1141
3.38813e-21 0.0188423 3.06821e-14 1148.96
0 -0.0188423 3.06421e-14 1153.81
0 0.0188305 0.000950992 237.773
-6.77626e-21 -0.0188305 0.000950983 291.271
0 -0.0183688 0.00439528 1359.97
0 0.0183689 0.00439535 1357.97
-4.03349e-23 -0.0187533 0.00244388 106.556
0 0.0187533 0.00244392 49.8816
-1.12938e-21 -0.0186868 0.0032017 209.099
-1.12938e-21 0.0186868 0.00320172 128.23
1.35525e-20 -0.0184806 0.00445983 1372.16
1.35525e-20 0.0184807 0.00445985 1370.25
-1.35525e-20 -0.0185303 0.00433131 1379.33
1.35525e-20 0.0185303 0.00433142 1377.38
-7.52918e-22 -0.0186604 0.00393307 897.862
2.25875e-21 0.0186604 0.0039331 849.663
1.12938e-21 -0.0191244 0.000340856 735.341
-2.82344e-22 0.0191244 0.000340868 724.592
1.35525e-20 0.0192203 9.49176e-15 871.902
1.35525e-20 -0.0192203 9.47246e-15 878.53
2.71051e-20 0.0191645 0.00146332 57.0551
0 -0.0191645 0.00146333 99.1505
0 -0.0190143 0.00283766 107.173
2.71051e-20 0.0190143 0.00283768 45.9037
-1.69407e-21 0.0186824 0.00457622 1499.66
1.01644e-20 -0.0186825 0.00457626 1501.7
1.69407e-21 -0.0187038 0.00458858 1492.99
0 0.0187039 0.00458863 1490.9
0 0.01916 0.00195764 36.8613
0 -0.01916 0.00195763 81.3377
1.69407e-21 -0.0187213 0.00456183 1482.6
0 0.0187215 0.00456168 1480.43
-1.18585e-20 -0.0187278 0.00460243 1500.72
-8.47033e-21 0.0187281 0.00460258 1498.66
-5.42101e-20 -0.0189854 0.00354595 218.862
-2.71051e-20 0.0189854 0.00354598 128.912
0 -0.0188773 0.00434108 1283.25
-3.01167e-21 0.0188774 0.00434115 1268.82
0 -0.0193794 0.000836844 386.457
-1.69407e-21 0.0193797 0.000837393 324.127
0 -0.0193832 0.00085584 374.781
2.75286e-21 0.0193834 0.000855823 310.973
-2.11758e-21 0.0194038 0.000856698 310.546
-2.5411e-21 -0.0194042 0.000856742 374.03
-1.35525e-20 0.0194237 1.55386e-15 914.919
0 -0.0194238 1.5392e-15 923.586
0 -0.0193728 0.00168997 90.8142
0 0.0193728 0.00168998 48.4498
1.41172e-21 0.0193778 0.00244583 37.1711
2.82344e-22 -0.0193778 0.00244582 87.3933
-1.35525e-20 -0.0189666 0.0047402 1677.73
-1.35525e-20 0.0189667 0.00474028 1675.32
1.12938e-21 -0.0193197 0.00318392 138.544
-1.12938e-21 0.0193197 0.00318394 69.5556
0 -0.0190326 0.00467124 1627.25
1.35525e-20 0.0190327 0.00467137 1624.86
2.71051e-20 0.0195819 0.00142144 62.7438
2.71051e-20 -0.0195819 0.00142144 101.027
-2.25875e-21 -0.0192551 0.00392917 490.064
4.51751e-21 0.0192551 0.00392922 413.837
0 -0.0196529 3.98812e-16 674.261
-6.77626e-21 0.019653 4.05019e-16 662.158
5.42101e-20 -0.0195685 0.0019371 78.8859
2.71051e-20 0.0195685 0.00193711 35.1094
2.71051e-20 -0.0190799 0.00480555 1380.62
-2.71051e-20 0.0190799 0.00480559 1378.17
0 0.0197212 0.00026999 636.449
9.03502e-21 -0.0197213 0.000269872 648.863
0 -0.0192753 0.0044119 1047.37
-9.03502e-22 0.0192753 0.00441194 1004.56
-3.38813e-21 0.019834 4.73089e-16 621.761
1.35525e-20 -0.0198344 4.68021e-16 634.282
-6.77626e-21 0.0192476 0.00490233 1049.05
0 -0.0192477 0.00490234 1051.93
2.71051e-20 -0.0196698 0.00278682 80.5993
-2.71051e-20 0.0196698 0.00278683 32.438
2.71051e-20 -0.0196164 0.00353233 144.279
0 0.0196164 0.00353236 68.3474
-1.35525e-20 -0.0193208 0.00494455 1060.56
-1.35525e-20 0.019321 0.00494463 1057.61
4.51751e-21 -0.0194217 0.00475372 1185.56
4.51751e-21 0.0194217 0.0047538 1182.72
0 0.0200351 -3.30531e-17 646.909
-1.35525e-20 -0.0200351 -3.31475e-17 658.778
-4.70198e-38 0.0200397 0.000879641 329.094
-8.47033e-22 -0.0200397 0.000879689 371.449
-2.71051e-20 -0.0196209 0.00418595 342.472
0 0.019621 0.00418598 230.781
0 0.0200082 0.001684 47.0571
0 -0.0200082 0.00168399 87.2612
0 -0.0200926 6.73445e-05 562.095
-1.35525e-20 0.0200927 6.74618e-05 549.862
0 -0.0200965 -8.39152e-19 561.719
0 0.0200966 -7.09534e-19 549.477
0 -0.0201334 8.4998e-18 545.585
0 0.0201335 8.62606e-18 532.988
2.71051e-20 -0.0195081 0.00505258 1307.19
-1.35525e-20 0.0195081 0.00505262 1304.29
0 0.0200347 0.00229462 33.2888
-2.25875e-21 -0.0200347 0.0022946 75.7826
0 -0.0199605 0.00311668 94.2799
-2.03288e-21 0.0199605 0.00311671 41.9396
1.35525e-20 -0.020225 6.93279e-05 503.842
0 0.0202253 6.94576e-05 490.32
-1.35525e-20 -0.0202304 -1.78061e-17 503.801
1.35525e-20 0.0202307 -1.76953e-17 490.277
-3.38813e-21 -0.0199314 0.00385542 196.722
4.51751e-21 0.0199314 0.00385544 114.997
-6.77626e-21 0.0196737 0.00514811 1242.39
-1.35525e-20 -0.0196737 0.00514812 1245.37
3.61401e-21 -0.0198941 0.00456695 828.26
7.52316e-38 0.0198941 0.00456697 758.392
0 -0.0197657 0.00520119 1344.11
1.35525e-20 0.0197657 0.00520124 1341.31
4.51751e-21 -0.0198219 0.00501114 1415.91
0 0.0198219 0.00501119 1413.06
-2.71051e-20 -0.0202897 0.00277314 65.0003
-2.71051e-20 0.0202897 0.00277314 27.4438
-2.71051e-20 -0.0202612 0.00349046 93.6001
2.71051e-20 0.0202612 0.00349047 42.5149
0 0.0199065 0.00528242 1803.99
2.71051e-20 -0.0199065 0.00528242 1806.8
-2.71051e-20 -0.0202451 0.00417935 194.597
0 0.0202451 0.00417938 109.884
-5.42101e-20 0.0206574 0.00171968 41.161
1.0842e-19 -0.0206574 0.00171968 79.1259
4.51751e-21 -0.0201293 0.004986 1367.74
1.50584e-21 0.0201293 0.00498603 1310.86
0 0.0200532 0.00536706 1660.36
-6.77626e-21 -0.0200532 0.00536708 1663.39
2.82344e-22 -0.0206314 0.00242245 65.2854
-5.64689e-22 0.0206314 0.00242249 28.8894
0 0.0207755 0.000514881 303.805
-5.42101e-20 -0.0207756 0.000514862 320.834
0 -0.0205987 0.00311576 69.8276
-1.12938e-21 0.0205987 0.00311576 30.303
-2.71051e-20 -0.0203105 0.00476265 530.183
-2.71051e-20 0.0203105 0.00476269 352.578
-6.77626e-21 -0.0201708 0.00543492 1652.22
2.03288e-20 0.0201709 0.00543498 1649.13
4.51751e-21 -0.0202177 0.00527681 1769.7
-4.51751e-21 0.0202177 0.00527687 1766.8
-3.38813e-21 -0.0205738 0.00381737 116.365
1.12938e-21 0.0205738 0.00381738 59.7564
4.51751e-21 -0.0205819 0.00447085 290.354
0 0.0205819 0.00447087 179.867
0 -0.0203369 0.00553075 1819
0 0.0203371 0.00553081 1816
5.42101e-20 -0.0209426 0.00274697 56.6838
0 0.0209426 0.00274698 22.8427
0 -0.0209032 0.00344943 64.541
8.13152e-20 0.0209032 0.00344944 28.7043
-1.35525e-20 -0.0204447 0.0055929 1803.44
-1.35525e-20 0.0204447 0.00559292 1800.54
-1.35525e-20 -0.0204858 0.00548981 1813.61
0 0.0204858 0.00548988 1810.71
7.52918e-22 -0.0206004 0.00512924 1191.5
2.25875e-21 0.0206004 0.00512925 1120.71
-5.42101e-20 -0.0208995 0.00412601 111.062
-2.71051e-20 0.0208995 0.00412602 57.1902
1.35525e-20 0.0213128 8.97542e-05 281.877
0 -0.0213128 8.9712e-05 299.981
1.35525e-20 0.0213193 -2.80333e-18 281.892
-1.35525e-20 -0.0213194 -2.88788e-18 299.995
6.77626e-21 0.0213562 0.00112751 159.481
0 -0.0213563 0.0011275 188.021
2.03288e-20 0.0206272 0.00569817 1941.14
-6.77626e-21 -0.0206273 0.00569821 1944.34
0 -0.0208932 0.00478631 288.511
0 0.0208932 0.00478633 172.238
2.25875e-21 0.0213143 0.00228572 29.0368
1.12938e-21 -0.0213143 0.00228571 64.4344
0 0.02144 1.08456e-18 274.859
-1.35525e-20 -0.0214401 1.0845e-18 293.295
0 -0.0206784 0.00572772 1908.17
0 0.0206785 0.00572775 1904.85
-2.82344e-22 -0.0212371 0.00307351 58.1278
-2.82344e-22 0.0212371 0.00307352 24.2413
6.77626e-21 -0.0207149 0.00567146 1875.09
0 0.020715 0.00567136 1871.7
6.77626e-21 -0.0207375 0.00576179 1944.33
6.77626e-21 0.0207376 0.00576188 1940.96
3.01167e-21 -0.0208293 0.00551232 1649.74
3.01167e-21 0.0208293 0.00551235 1633.47
0 -0.0215471 0.000109115 286.344
0 0.0215471 0.000109145 267.386
0 0.0215566 9.65884e-19 267.258
0 -0.0215566 9.65614e-19 286.222
-3.17637e-22 -0.0212592 0.00373091 78.3273
-3.17637e-22 0.0212592 0.00373092 37.6672
-3.38813e-21 -0.0212042 0.00445828 160.376
0 0.0212042 0.00445829 90.0236
0 -0.0209535 0.0058866 2171.84
-1.35525e-20 0.0209535 0.00588664 2168.01
6.77626e-21 -0.0211675 0.00514624 641.14
-6.77626e-21 0.0211675 0.00514627 555.408
-1.35525e-20 -0.0210048 0.00583271 2119.11
0 0.0210048 0.00583278 2115.29
0 0.0216644 0.00284434 20.2267
0 -0.0216644 0.00284434 51.9996
2.71051e-20 -0.0210555 0.00594567 1833.29
0 0.0210555 0.00594567 1829.26
0 0.0216616 0.00329946 21.5258
2.71051e-20 -0.0216616 0.00329945 54.2318
0 -0.0215297 0.00411132 73.1976
-2.71051e-20 0.0215297 0.00411133 37.1822
0 -0.0212154 0.00559337 1371.15
1.12938e-21 0.0212154 0.0055934 1319.36
0 0.0219546 0.00177015 37.9696
5.42101e-20 -0.0219546 0.00177015 77.9193
-5.42101e-20 0.0220217 0.000571054 245.422
-5.42101e-20 -0.0220218 0.000571066 265.484
0 -0.0215068 0.00478713 161.123
0 0.0215068 0.00478716 88.5348
0 0.0219097 0.00242093 25.4529
-8.47033e-22 -0.0219097 0.00242092 59.2631
6.77626e-21 0.021227 0.00604556 1497.68
-6.77626e-21 -0.0212271 0.00604561 1502.43
-1.35525e-20 -0.0218721 0.0030677 51.5497
0 0.0218721 0.0030677 19.7966
-2.71051e-20 -0.0215266 0.00539882 430.486
0 0.0215266 0.00539885 301.436
-4.51751e-21 -0.021392 0.00594167 1582.75
-9.03502e-21 0.021392 0.00594175 1577.97
8.47033e-22 0.0218838 0.00375445 26.4071
1.69407e-21 -0.0218838 0.00375445 58.6328
-1.35525e-20 -0.0213574 0.00612127 1429.8
0 0.0213576 0.00612138 1424.6
0 -0.0218345 0.00443965 95.104
-1.12938e-21 0.0218345 0.00443967 50.6982
2.71051e-20 -0.0221011 0.00283877 49.0528
2.71051e-20 0.0221011 0.00283877 18.4057
2.71051e-20 -0.0220656 0.0032889 50.3329
2.71051e-20 0.0220656 0.00328891 18.2133
-2.25875e-21 -0.0218182 0.00510344 232.855
2.25875e-21 0.0218183 0.00510346 151.28
0 -0.0215448 0.00623065 1547.31
-1.35525e-20 0.0215448 0.00623071 1542.2
-1.35525e-20 0.0225384 9.17221e-05 242.124
0 -0.0225384 9.17064e-05 262.288
1.35525e-20 0.0225403 1.79113e-19 242.17
0 -0.0225404 1.78131e-19 262.332
0 0.0216442 0.0063096 1534.32
-1.35525e-20 -0.0216442 0.00630959 1539.43
-2.71051e-20 -0.0221735 0.00407695 54.1518
-2.71051e-20 0.0221736 0.00407697 25.345
0 0.0216896 0.0061912 1548.78
0 -0.0216897 0.00619112 1553.89
7.52918e-22 -0.0218103 0.00580094 1015.2
-7.52918e-22 0.0218103 0.00580096 958.546
0 0.0225989 0.00115695 141.601
0 -0.0225989 0.00115695 171.728
0 0.0226373 8.21489e-20 242.401
0 -0.0226373 8.09897e-20 262.576
5.42101e-20 -0.0221353 0.00476853 90.9036
-2.71051e-20 0.0221353 0.00476855 51.095
0 0.022582 0.00236336 26.9462
-3.38813e-21 -0.022582 0.00236336 62.8056
4.23516e-22 0.0225009 0.00305827 17.4979
0 -0.022501 0.00305827 49.5123
0 0.0225095 0.00306052 17.4526
-6.69156e-20 -0.0225142 0.0030581 49.4696
1.35525e-20 -0.0227255 8.81882e-05 260.341
-1.35525e-20 0.0227256 8.82072e-05 240.037
0 -0.0227307 3.10213e-20 260.328
-1.35525e-20 0.0227308 3.16342e-20 240.022
0 0.0218385 0.00644695 1564.84
3.38813e-21 -0.0218386 0.00644701 1569.94
2.71051e-20 -0.0221179 0.00543869 228.735
0 0.0221179 0.00543873 149.079
1.69407e-21 -0.0218565 0.0064596 1559.69
1.69407e-21 0.0218565 0.00645965 1554.5
0 -0.0218724 0.00643784 1553.35
0 0.0218726 0.00643772 1548.1
0 -0.0218744 0.00647341 1573.09
3.38813e-21 0.0218746 0.00647358 1568.02
-1.58113e-21 -0.0225287 0.00364569 51.6943
-1.807e-21 0.0225287 0.00364571 21.102
2.25875e-21 -0.0224649 0.00441818 63.1623
-1.12938e-21 0.022465 0.00441819 31.8915
4.51751e-21 -0.0220386 0.00622588 1380.99
-3.01167e-21 0.0220386 0.00622594 1361.99
1.12938e-21 -0.0224373 0.00510162 128.011
-3.38813e-21 0.0224374 0.00510164 76.974
0 -0.022069 0.00662861 1719.35
-1.35525e-20 0.0220691 0.00662869 1714.39
-2.71051e-20 -0.0221728 0.00656824 1702.52
-2.71051e-20 0.0221729 0.00656835 1697.56
-9.03502e-21 -0.0223901 0.00581141 532.626
-2.25875e-21 0.0223901 0.00581147 457.663
0 -0.0227864 0.00407104 47.9379
0 0.0227864 0.00407104 19.3094
-1.35525e-20 -0.0221653 0.00670526 1770.89
-1.35525e-20 0.0221653 0.0067053 1766.01
0 0.0232274 0.000581677 236.461
0 -0.0232275 0.000581678 256.878
2.71051e-20 -0.0227665 0.00474853 60.284
0 0.0227666 0.00474854 32.2152
0 0.0231993 0.00176868 38.563
5.42101e-20 -0.0231993 0.00176868 79.4129
-1.35525e-20 -0.0222608 0.00678087 1834.62
-1.35525e-20 0.0222609 0.00678088 1830.1
-2.71051e-20 -0.0223061 0.0066761 1790.23
1.35525e-20 0.0223061 0.00667615 1785.6
7.26028e-22 -0.0224559 0.00637514 1220.23
-1.04871e-21 0.0224559 0.00637519 1162.36
-5.42101e-20 -0.023153 0.00306261 48.8864
0 0.023153 0.00306261 15.059
2.71051e-20 -0.0227373 0.00543366 128.368
0 0.0227374 0.0054337 72.8961
-1.41172e-22 0.0231517 0.00371753 16.8787
3.29402e-22 -0.0231517 0.00371752 47.3673
1.86347e-20 0.0224506 0.00693113 1958.01
-6.77626e-21 -0.0224506 0.00693118 1963.09
-1.12938e-21 -0.0230941 0.00439939 50.8801
5.64689e-22 0.0230941 0.00439939 22.4538
0 -0.0224718 0.00694794 1974.57
-1.69407e-21 0.0224719 0.00694799 1969.56
-3.38813e-21 -0.0224912 0.0069255 1965.57
1.69407e-21 0.0224914 0.00692542 1960.52
5.42101e-20 -0.0227469 0.00606424 341.447
0 0.0227469 0.00606428 222.811
3.38813e-21 -0.0224923 0.00696421 1970.69
-8.47033e-21 0.0224926 0.00696436 1965.58
-4.51751e-21 -0.0230702 0.00507677 77.7737
1.12938e-21 0.0230702 0.00507679 41.7051
-3.01167e-21 -0.0226501 0.00674885 1763.58
-1.50584e-21 0.0226501 0.00674891 1740.69
-3.38813e-21 -0.0230547 0.0057392 179.783
0 0.0230547 0.00573923 109.366
0 0.0237727 6.9468e-05 236.141
0 -0.0237727 6.946e-05 256.115
1.35525e-20 0.0237733 3.61652e-20 236.143
0 -0.0237733 3.57767e-20 256.119
0 -0.0234288 0.00404821 45.641
0 0.0234288 0.00404821 15.9208
1.35525e-20 -0.0227099 0.00713632 2031.45
1.35525e-20 0.02271 0.00713641 2025.25
0 -0.0238467 -1.44311e-21 256.205
0 0.0238467 -1.45864e-21 236.288
-4.51751e-21 0.0238238 0.00116196 138.328
1.12938e-21 -0.0238238 0.00116196 169.319
1.35525e-20 -0.0227817 0.00707289 1978.24
0 0.0227818 0.00707302 1972.08
-2.71051e-20 -0.0233918 0.0047262 49.7343
0 0.0233918 0.00472621 22.4588
0 -0.023014 0.0064061 699.936
0 0.023014 0.00640616 607.192
0 -0.0239154 6.70031e-05 255.961
0 0.0239154 6.70111e-05 236.044
0 -0.0239174 -9.71216e-22 255.961
1.35525e-20 0.0239174 -9.82538e-22 236.044
0 0.0237984 0.00239289 26.6135
-3.38813e-21 -0.0237984 0.00239289 65.6733
0 -0.0228223 0.00722527 1625.52
2.71051e-20 0.0228223 0.00722532 1619.23
2.71051e-20 -0.0233899 0.00538613 73.3487
-2.71051e-20 0.0233899 0.00538614 39.674
-2.71051e-21 -0.0230284 0.00685517 1291
2.71051e-21 0.0230285 0.00685522 1230.96
1.12938e-22 0.0238366 0.00363265 14.8122
-2.25875e-22 -0.0238366 0.00363263 47.6628
-7.52918e-22 -0.0237221 0.00437772 47.226
-1.50584e-21 0.0237221 0.00437772 17.7034
0 -0.0233571 0.00605947 167.623
2.71051e-20 0.0233571 0.0060595 96.7611
-4.23516e-21 0.0230006 0.00736631 1050.33
0 -0.0230006 0.00736634 1057.61
2.11758e-20 -0.023013 0.00737611 1049.94
2.03288e-20 0.0230131 0.0073762 1042.52
-9.03502e-21 -0.0231562 0.00719479 1278.29
4.51751e-21 0.0231562 0.00719486 1271.16
0 -0.0237825 0.00497092 56.6391
-5.64689e-22 0.0237825 0.00497093 26.474
0 -0.0233676 0.00666646 412.647
0 0.0233676 0.0066665 275.479
0 -0.023688 0.00571603 95.2482
2.25875e-21 0.023688 0.00571605 52.8775
0 -0.0232066 0.00752929 1292.91
1.35525e-20 0.0232066 0.00752931 1285.78
0 -0.0244467 0.000582597 255.172