# p  POINT_DATA 14647
# x  y  z  p
4.23516e-22 -0.0130568 4.20108e-06 0.0484529
0 0.0130568 4.20422e-06 -0.00649158
0 0.0130538 6.6649e-06 -0.00649158
-4.23516e-22 -0.0130538 6.66028e-06 0.0484531
1.69407e-21 -0.0130538 0.000644839 0.0484515
0 0.0130538 0.000645282 -0.00649158
0 -0.0130538 0.000659278 0.0484515
-8.47033e-22 0.0130538 0.000659736 -0.00649159
0 -0.0130538 0.000674531 0.0484511
-8.47033e-22 0.0130538 0.000674994 -0.00649158
0 -0.0130603 0.000649722 0.0484513
8.47033e-22 0.0130603 0.000650171 -0.00649158
0 -0.0130603 0.000668856 0.048451
0 0.0130603 0.000669319 -0.00649158
-5.92923e-21 -0.0130709 0.000658157 0.0484508
1.60936e-20 0.0130709 0.000658618 -0.00649157
0 -0.0130538 0.00133809 0.0484485
1.69407e-21 0.0130538 0.00133857 -0.00649158
0 -0.0130538 0.00135468 0.0484488
0 0.0130538 0.00135516 -0.00649159
0 -0.0130538 0.00137216 0.0484485
0 0.0130538 0.00137263 -0.00649158
-1.69407e-21 -0.0130609 0.00134164 0.0484484
1.69407e-21 0.0130609 0.00134212 -0.00649158
-1.69407e-21 -0.0130605 0.00136331 0.0484484
0 0.0130605 0.00136378 -0.00649158
5.0822e-21 -0.0130744 0.00134748 0.0484477
1.69407e-21 0.0130744 0.00134796 -0.00649156
0 -0.0130556 0.00208219 0.0484491
0 0.0130577 0.00208858 -0.00649154
-3.38813e-21 -0.0130676 0.00208095 0.0484483
3.81165e-21 0.0130676 0.00208095 -0.00649152
-6.77626e-21 -0.0133442 8.05862e-08 0.0484403
0 0.0133442 8.05859e-08 -0.00649133
-1.12938e-21 -0.0133452 0.000326479 0.0484407
-3.38813e-21 0.0133452 0.000326736 -0.00649135
-2.25875e-21 -0.0133372 0.000959829 0.0484436
-7.90564e-21 0.0133372 0.000960365 -0.00649134
0 -0.0132973 0.00155417 0.0484408
0 0.0132973 0.00155454 -0.00649136
3.04932e-20 0.0132406 0.00216284 -0.00649119
0 -0.0132406 0.00216285 0.0484341
0 -0.0132805 0.00206428 0.0484314
-3.38813e-21 0.0132805 0.00206425 -0.00649113
-2.71051e-20 0.0133174 0.00219404 -0.00649124
0 -0.0133175 0.00219406 0.0484385
2.25875e-21 -0.0133831 0.00186918 0.0484295
0 0.0133831 0.00186936 -0.00649107
1.35525e-20 -0.0135632 9.24961e-08 0.0484287
-2.71051e-20 0.0135632 9.24953e-08 -0.00649098
2.25875e-21 -0.0134965 0.00146605 0.0484333
6.77626e-21 0.0134965 0.00146649 -0.00649115
0 -0.0136117 8.70388e-05 0.0484257
6.77626e-21 0.0136117 8.71003e-05 -0.00649101
6.77626e-21 -0.0136152 8.46271e-08 0.0484254
0 0.0136152 8.46271e-08 -0.00649099
1.35525e-20 -0.0136416 8.0639e-08 0.0484251
0 0.0136416 8.06395e-08 -0.00649088
6.77626e-22 -0.0136355 0.000678728 0.0484231
6.77626e-22 0.0136355 0.000679269 -0.00649088
-1.35525e-20 0.0134811 0.00226049 -0.00649105
0 -0.0134812 0.00226053 0.0484287
1.69407e-21 -0.0136197 0.00118987 0.0484199
1.50584e-21 0.0136197 0.00119045 -0.0064909
-3.01167e-21 -0.0136061 0.00162976 0.0484191
-4.51751e-21 0.0136061 0.00163011 -0.00649089
1.35525e-20 0.0137235 7.39497e-08 -0.0064908
1.35525e-20 -0.0137235 7.39483e-08 0.0484212
6.77626e-21 0.0137252 9.16823e-05 -0.0064908
-6.77626e-21 -0.0137253 9.16246e-05 0.0484212
-1.12938e-22 -0.0137103 0.00202484 0.048417
-3.38813e-22 0.0137102 0.00202496 -0.00649079
-6.77626e-21 0.0136752 0.0023393 -0.00649081
6.77626e-21 -0.0136753 0.00233933 0.0484192
-6.77626e-21 0.0137679 0.00237692 -0.0064907
1.35525e-20 -0.013768 0.00237696 0.0484163
-1.35525e-20 -0.0139849 0.000399002 0.0484106
0 0.0139849 0.000399313 -0.00649045
-9.03502e-21 -0.013986 0.000912946 0.0484077
-9.03502e-21 0.013986 0.000913447 -0.00649053
-9.03502e-21 -0.0139545 0.00150378 0.0484072
4.51751e-21 0.0139546 0.00150416 -0.00649055
1.35525e-20 -0.0140935 0.000126371 0.048406
-1.35525e-20 0.0140935 0.000126457 -0.00649037
0 -0.0141015 1.51513e-08 0.0484055
0 0.0141015 1.51514e-08 -0.00649035
8.47033e-22 -0.0139607 0.00245511 0.0483818
0 0.0139609 0.00245518 -0.00649015
-2.71051e-20 -0.0141702 0.000612039 0.048404
-2.71051e-20 0.0141702 0.000612472 -0.00649027
2.71051e-20 0.0139759 0.00246127 -0.00649012
7.6233e-21 -0.013976 0.00246129 0.0483798
9.31736e-21 0.0139805 0.00244911 -0.00649011
-2.5411e-21 -0.0139806 0.00244893 0.0483792
-2.71051e-20 -0.0141582 0.00121268 0.0484017
0 0.0141582 0.00121315 -0.00649028
1.35525e-20 -0.0142137 6.98307e-09 0.0484018
0 0.0142137 6.98407e-09 -0.00649021
0 -0.0141062 0.00185461 0.0484048
0 0.0141062 0.00185482 -0.00649032
0 0.0140936 0.00222224 -0.00649008
-2.25875e-21 -0.0140936 0.00222217 0.0483841
-1.35525e-20 0.0143442 6.46477e-09 -0.00649006
0 -0.0143442 6.46386e-09 0.0483968
1.35525e-20 0.0141438 0.00239267 -0.00649009
-6.77626e-21 -0.0141439 0.00239256 0.0483889
0 0.014345 0.000135164 -0.00649006
-1.35525e-20 -0.014345 0.00013509 0.0483969
-1.35525e-20 0.0141782 0.00254345 -0.00649021
0 -0.0141783 0.00254345 0.0484037
-2.43945e-20 0.0144148 0.000393235 -0.00648999
-2.71051e-21 -0.0144148 0.000392975 0.0483948
0 0.014293 0.00252719 -0.00649009
6.77626e-21 -0.0142931 0.00252719 0.0483997
-2.03288e-20 0.0142857 0.00258696 -0.00649009
0 -0.0142858 0.00258699 0.0484001
6.77626e-21 -0.0145008 0.000915389 0.0483908
4.51751e-21 0.0145008 0.000915765 -0.00648987
1.69407e-21 0.0143708 0.00229756 -0.00649002
-3.38813e-21 -0.0143708 0.00229749 0.0483978
2.25875e-21 -0.0144715 0.00154752 0.0483894
0 0.0144715 0.0015478 -0.0064899
0 -0.0144657 0.00205596 0.0483961
-4.51751e-21 0.0144657 0.00205609 -0.00648996
0 0.0146705 0.00015054 -0.00648968
1.35525e-20 -0.0146705 0.000150448 0.0483846
-1.35525e-20 0.01468 6.30535e-09 -0.00648967
1.35525e-20 -0.01468 6.30475e-09 0.0483841
0 -0.0144708 0.00266175 0.0483939
1.35525e-20 0.0144708 0.00266174 -0.00648989
2.71051e-21 0.0145057 0.00250599 -0.00648992
-2.71051e-21 -0.0145058 0.00250596 0.0483986
0 0.0148233 5.71582e-09 -0.0064895
0 -0.0148234 5.71538e-09 0.0483784
0 -0.0148745 0.000558342 0.0483768
-4.51751e-21 0.0148745 0.000558581 -0.00648944
0 -0.0147686 0.00191048 0.0483786
0 0.0147686 0.00191064 -0.00648954
0 0.0146404 0.00273044 -0.0064897
0 -0.0146404 0.00273047 0.0483908
-1.54886e-20 -0.0148827 0.00116851 0.048374
5.80823e-21 0.0148827 0.00116882 -0.00648937
1.35525e-20 0.0149747 4.96127e-09 -0.00648932
2.71051e-20 -0.0149747 4.9609e-09 0.0483725
1.35525e-20 0.0149752 0.000142336 -0.00648932
-1.35525e-20 -0.0149752 0.000142287 0.0483725
-2.25875e-21 -0.0148161 0.00236406 0.0483803
4.51751e-21 0.0148161 0.00236412 -0.00648951
-1.807e-20 -0.0150223 0.00156473 0.0483698
0 0.0150222 0.00156494 -0.00648926
-2.71051e-20 0.0151424 0.000304981 -0.00648912
0 -0.0151424 0.000304874 0.0483662
-1.35525e-20 0.0148918 0.00283394 -0.00648952
2.71051e-20 -0.0148918 0.00283398 0.0483926
0 -0.0151422 0.000920422 0.0483676
0 0.0151422 0.000920657 -0.00648911
8.13152e-21 0.0150419 0.00210501 -0.00648921
-1.89735e-20 -0.0150419 0.00210492 0.0483645
4.51751e-21 -0.015053 0.00270398 0.0483827
0 0.015053 0.00270402 -0.00648933
-6.77626e-21 -0.0150244 0.00288816 0.0483861
-2.71051e-20 0.0150245 0.0028882 -0.00648937
1.35525e-20 0.0153086 2.24203e-09 -0.00648892
1.35525e-20 -0.0153086 2.24182e-09 0.0483591
0 0.0153121 0.000140875 -0.00648892
-1.35525e-20 -0.0153122 0.000140824 0.0483589
0 -0.0154577 1.48782e-09 0.0483527
-1.35525e-20 0.0154577 1.48795e-09 -0.00648874
4.51751e-21 -0.0154655 0.000604019 0.0483526
2.25875e-21 0.0154655 0.000604165 -0.00648873
-1.12938e-20 -0.0154631 0.00123933 0.0483517
3.76158e-37 0.0154631 0.0012395 -0.00648873
0 -0.0152755 0.00299148 0.0483571
2.71051e-20 0.0152755 0.0029915 -0.00648893
0 -0.015469 0.0018808 0.0483472
2.25875e-21 0.015469 0.00188091 -0.00648872
0 -0.0156043 1.3028e-09 0.0483462
-1.35525e-20 0.0156043 1.30289e-09 -0.00648857
-1.35525e-20 -0.0156046 0.000132299 0.0483462
1.35525e-20 0.0156046 0.000132329 -0.00648857
0 0.0153937 0.00303998 -0.0064887
0 -0.0153938 0.00303999 0.0483357
1.35525e-20 0.0154261 0.0029384 -0.00648869
-2.71051e-20 -0.0154261 0.00293835 0.048337
5.27043e-21 -0.0155039 0.00256159 0.0483466
-7.52918e-22 0.0155039 0.00256162 -0.0064887
0 0.0157872 0.000299952 -0.00648835
2.71051e-20 -0.0157872 0.000299901 0.0483384
2.71051e-20 -0.0157971 0.000915013 0.0483376
-2.71051e-20 0.0157971 0.000915131 -0.00648833
0 -0.0157989 0.00156074 0.0483345
-2.71051e-20 0.0157989 0.00156083 -0.00648833
6.77626e-21 0.0156182 0.00313283 -0.0064886
-6.77626e-21 -0.0156183 0.00313286 0.0483426
2.71051e-20 -0.015809 0.0022127 0.0483279
2.71051e-20 0.015809 0.00221276 -0.00648831
0 0.0159653 5.84461e-10 -0.00648814
-1.35525e-20 -0.0159653 5.84404e-10 0.0483306
-1.35525e-20 0.0159712 0.000124971 -0.00648813
0 -0.0159712 0.000124945 0.0483303
6.77626e-21 -0.0156925 0.0031635 0.0483452
6.77626e-21 0.0156925 0.00316352 -0.00648858
6.77626e-21 -0.01572 0.00310334 0.0483466
-6.77626e-21 0.0157201 0.00310327 -0.00648858
-1.50584e-21 -0.0157996 0.00293416 0.0483505
0 0.0157996 0.00293419 -0.00648857
0 -0.015781 0.00319986 0.0483336
-2.03288e-20 0.0157812 0.00319994 -0.00648839
0 -0.0161034 4.04832e-10 0.0483249
0 0.0161034 4.0486e-10 -0.00648797
-6.77626e-21 -0.016119 0.000594184 0.0483239
-6.77626e-21 0.016119 0.000594247 -0.00648795
-9.03502e-21 -0.0161299 0.00122524 0.048322
2.25875e-21 0.0161299 0.00122532 -0.00648794
0 -0.0162343 3.59803e-10 0.048319
-1.35525e-20 0.0162343 3.59826e-10 -0.00648782
0 -0.0162345 0.00011328 0.048319
0 0.0162345 0.000113292 -0.00648782
-6.77626e-21 -0.0161352 0.00188661 0.0483155
0 0.0161352 0.00188666 -0.00648793
0 -0.0161278 0.00255594 0.0483143
-2.25875e-21 0.0161278 0.00255599 -0.00648793
-1.35525e-20 -0.0159975 0.00328828 0.0483209
0 0.0159976 0.00328832 -0.00648806
1.35525e-20 -0.0160352 0.00323057 0.0483192
4.06576e-20 0.0160353 0.00323064 -0.00648802
1.35525e-20 -0.0160906 0.00332631 0.0483176
1.35525e-20 0.0160907 0.00332633 -0.00648795
-2.71051e-20 -0.0164377 0.00029234 0.0483101
-2.71051e-20 0.0164377 0.000292357 -0.00648758
-2.71051e-20 -0.0164552 0.000897699 0.0483088
0 0.0164552 0.000897745 -0.00648755
-1.807e-21 -0.0162066 0.0029897 0.0483125
1.35525e-21 0.0162067 0.00298974 -0.00648783
-2.71051e-20 -0.0164658 0.00154123 0.0483067
0 0.0164658 0.00154127 -0.00648754
1.35525e-20 0.0162526 0.00328164 -0.00648773
0 -0.0162527 0.00328159 0.0483094
0 0.0162526 0.00339239 -0.00648773
-2.71051e-20 -0.0162526 0.00339241 0.0483099
-2.71051e-20 -0.0164656 0.00220947 0.0482921
5.42101e-20 0.0164656 0.00220951 -0.00648752
0 0.0166389 1.04271e-10 -0.00648737
0 -0.0166389 1.04267e-10 0.0483001
0 0.0166447 0.000100575 -0.00648736
0 -0.0166447 0.000100568 0.0482998
0 -0.0165065 0.00278869 0.0483022
-2.71051e-20 0.0165065 0.00278872 -0.00648747
0 -0.0167551 6.1842e-11 0.0482942
1.35525e-20 0.0167551 6.18409e-11 -0.00648725
4.51751e-21 -0.0167741 0.000577096 0.0482921
4.51751e-21 0.0167741 0.000577118 -0.00648721
2.71051e-20 -0.0164727 0.00325225 0.0482991
2.71051e-20 0.0164728 0.00325227 -0.00648744
3.38813e-21 -0.0167927 0.00119999 0.0482888
1.12938e-21 0.0167928 0.00120002 -0.00648716
2.71051e-20 -0.0164932 0.00349062 0.0483013
1.35525e-20 0.0164934 0.00349067 -0.00648742
-1.35525e-20 -0.0168627 5.6253e-11 0.0482885
-1.35525e-20 0.0168627 5.62518e-11 -0.00648714
0 -0.0168631 9.00351e-05 0.0482885
-1.35525e-20 0.0168631 9.00377e-05 -0.00648714
1.12938e-21 -0.0167971 0.00186718 0.0482841
3.38813e-21 0.0167971 0.0018672 -0.00648714
-2.71051e-20 -0.0165645 0.00339838 0.0482982
0 0.0165646 0.00339847 -0.00648733
2.25875e-21 -0.0168038 0.00251859 0.0482878
-2.25875e-21 0.0168039 0.00251861 -0.00648712
-2.71051e-20 -0.0166657 0.003561 0.0482957
0 0.0166658 0.00356102 -0.00648722
3.38813e-21 -0.0167839 0.00309024 0.0482927
-6.77626e-21 0.016784 0.00309026 -0.0064871
5.42101e-20 0.0170872 0.000280478 -0.0064869
-2.71051e-20 -0.0170872 0.000280474 0.0482774
5.42101e-20 -0.0171093 0.000869706 0.048272
0 0.0171094 0.000869716 -0.00648681
0 -0.0171238 0.0015109 0.048268
2.71051e-20 0.0171238 0.00151092 -0.00648677
-6.77626e-21 0.0168547 0.00363794 -0.00648698
2.03288e-20 -0.0168548 0.00363795 0.0482912
-2.71051e-20 -0.0171215 0.00218644 0.0482697
5.42101e-20 0.0171216 0.00218645 -0.00648674
0 -0.0173128 1.50028e-11 0.0482678
-1.35525e-20 0.0173128 1.50016e-11 -0.00648661
1.35525e-20 0.017316 7.61098e-05 -0.00648661
0 -0.017316 7.61078e-05 0.0482677
0 -0.0169937 0.00347014 0.0482852
0 0.0169937 0.00347019 -0.00648681
-2.03288e-20 -0.0169518 0.00367748 0.048288
2.03288e-20 0.0169519 0.00367752 -0.00648686
-2.71051e-20 -0.0171192 0.00284365 0.0482867
2.71051e-20 0.0171192 0.00284368 -0.00648674
0 0.0174041 1.00273e-11 -0.00648647
0 -0.0174041 1.00286e-11 0.0482646
-2.25875e-21 -0.0174225 0.000552281 0.0482601
2.25875e-21 0.0174225 0.000552286 -0.00648645
5.64689e-21 -0.0174464 0.00116236 0.0482601
0 0.0174464 0.00116237 -0.0064864
0 -0.0174883 9.27754e-12 0.0482602
1.35525e-20 0.0174883 9.27624e-12 -0.00648638
0 -0.0174886 6.91534e-05 0.0482602
1.35525e-20 0.0174886 6.91578e-05 -0.00648638
0 -0.0174523 0.00183361 0.048262
0 0.0174523 0.00183363 -0.00648637
4.06576e-20 0.0171554 0.00376035 -0.00648663
1.35525e-20 -0.0171554 0.00376034 0.0482782
3.38813e-21 -0.0174395 0.00252755 0.0482666
2.25875e-21 0.0174395 0.00252757 -0.00648636
0 -0.0172701 0.00381183 0.0482482
0 0.0172701 0.00381183 -0.00648627
1.35525e-20 0.0173096 0.0036891 -0.00648626
0 -0.0173096 0.00368906 0.0482516
-1.8823e-21 -0.0174174 0.00327288 0.0482685
4.89397e-21 0.0174174 0.00327291 -0.00648633
2.71051e-20 -0.0177262 0.000264489 0.0482501
0 0.0177262 0.000264491 -0.00648608
0 -0.0177529 0.000830839 0.0482413
-2.71051e-20 0.0177529 0.000830843 -0.00648602
0 -0.0177737 0.00146633 0.0482591
0 0.0177737 0.00146634 -0.00648601
-2.03288e-20 0.0174674 0.00388876 -0.00648626
-1.35525e-20 -0.0174675 0.00388877 0.0482645
-2.71051e-20 -0.0177694 0.00215825 0.0482524
2.71051e-20 0.0177694 0.00215826 -0.00648598
-6.77626e-21 -0.0175188 0.00391124 0.0482691
0 0.017519 0.0039113 -0.00648626
-3.38813e-21 -0.0175509 0.00385321 0.0482717
-3.38813e-21 0.0175511 0.00385308 -0.00648626
-2.71051e-20 -0.0177413 0.00287705 0.0482582
2.71051e-20 0.0177414 0.00287708 -0.00648598
-6.77626e-21 0.0179809 1.39465e-12 -0.00648599
-6.77626e-21 -0.0179809 1.39504e-12 0.0482299
-6.77626e-21 0.017982 5.25092e-05 -0.00648599
6.77626e-21 -0.017982 5.25067e-05 0.0482298
0 -0.0175787 0.00394073 0.0482599
-1.35525e-20 0.017579 0.0039409 -0.00648612
-4.51751e-21 -0.01766 0.00367697 0.0482812
3.01167e-21 0.01766 0.00367702 -0.00648626
-6.77626e-21 -0.0180462 7.99821e-13 0.0482253
6.77626e-21 0.0180462 7.99456e-13 -0.00648595
-2.25875e-21 -0.0180586 0.000513285 0.0482287
-3.38813e-21 0.0180586 0.000513288 -0.00648593
6.77626e-21 -0.0181035 4.49129e-05 0.0482177
0 0.0181035 4.49204e-05 -0.00648601
0 -0.0181053 7.64927e-13 0.0482179
0 0.0181054 7.64553e-13 -0.006486
0 0.0181062 0.00109872 -0.00648568
1.12938e-21 -0.0181062 0.00109871 0.0482243
5.64689e-22 -0.0181012 0.00178214 0.048238
-2.25875e-21 0.0181012 0.00178214 -0.00648561
-1.12938e-21 -0.0180748 0.00251396 0.0482536
-2.25875e-21 0.0180748 0.00251397 -0.00648564
-1.35525e-20 -0.0177924 0.00406323 0.04825
0 0.0177926 0.00406332 -0.00648584
0 -0.0178459 0.00400227 0.048248
0 0.017846 0.00400239 -0.00648578
-2.25875e-21 -0.0180178 0.00326611 0.0482489
-6.77626e-21 0.0180179 0.00326616 -0.00648565
-2.71051e-20 -0.0183483 0.000235222 0.0481976
2.71051e-20 0.0183483 0.000235228 -0.00648592
0 -0.0178961 0.00412296 0.0482489
0 0.0178962 0.004123 -0.00648572
2.71051e-20 0.0183931 0.00076447 -0.0064857
0 -0.0183931 0.000764464 0.0482261
4.51751e-22 -0.0180567 0.00374589 0.0482426
-4.51751e-22 0.0180567 0.00374594 -0.00648556
-2.71051e-20 -0.0184337 0.00138079 0.0481774
0 0.0184337 0.0013808 -0.00648513
0 -0.0184036 0.00212468 0.0482599
2.71051e-20 0.0184036 0.00212468 -0.00648531
3.38813e-21 -0.0185327 3.11692e-13 0.0482061
-6.77626e-21 0.0185328 3.11508e-13 -0.00648516
0 0.0180755 0.00422628 -0.00648548
1.35525e-20 -0.0180755 0.00422633 0.0482442
0 -0.0183781 0.00285998 0.0482453
2.71051e-20 0.0183781 0.00285999 -0.00648527
-2.25875e-21 -0.0186584 0.000460862 0.0481975
2.25875e-21 0.0186584 0.000460867 -0.00648514
1.35525e-20 -0.0181752 0.00428374 0.048241
6.77626e-21 0.0181755 0.00428388 -0.00648535
0 -0.0182334 0.00409647 0.0482374
-4.51751e-21 0.0182335 0.00409657 -0.0064853
0 -0.0183786 0.00352144 0.0482342
0 0.0183786 0.00352149 -0.00648523
3.38813e-21 -0.018738 2.24864e-13 0.0481981
0 0.018738 2.24779e-13 -0.00648483
0 -0.0187383 1.85704e-05 0.0481981
3.38813e-21 0.0187383 1.85635e-05 -0.00648482
-3.38813e-21 -0.0187394 0.000144213 0.0481965
-3.38813e-21 0.0187394 0.000144178 -0.00648481
-3.38813e-21 -0.0187638 5.24913e-14 0.0481973
-3.38813e-21 0.0187638 5.2518e-14 -0.00648477
0 0.018782 1.52393e-05 -0.0064847
0 -0.018782 1.5244e-05 0.0481973
-3.38813e-21 0.0187835 4.19052e-14 -0.00648469
3.38813e-21 -0.0187835 4.18701e-14 0.0481972
5.64689e-23 0.0187413 0.0017483 -0.00648486
2.25875e-22 -0.0187413 0.00174835 0.0481977
3.38813e-21 0.0188423 3.06821e-14 -0.00648432
0 -0.0188423 3.06421e-14 0.0481889
0 0.0188305 0.000950992 -0.00648472
-6.77626e-21 -0.0188305 0.000950983 0.0481929
0 -0.0183688 0.00439528 0.0482334
0 0.0183689 0.00439535 -0.00648513
-4.03349e-23 -0.0187533 0.00244388 0.0481997
0 0.0187533 0.00244392 -0.0064848
-1.12938e-21 -0.0186868 0.0032017 0.0482123
-1.12938e-21 0.0186868 0.00320172 -0.00648486
1.35525e-20 -0.0184806 0.00445983 0.0481912
1.35525e-20 0.0184807 0.00445985 -0.00648469
-1.35525e-20 -0.0185303 0.00433131 0.0481972
1.35525e-20 0.0185303 0.00433142 -0.00648469
-7.52918e-22 -0.0186604 0.00393307 0.0482165
2.25875e-21 0.0186604 0.0039331 -0.00648481
1.12938e-21 -0.0191244 0.000340856 0.0481473
-2.82344e-22 0.0191244 0.000340868 -0.00647994
1.35525e-20 0.0192203 9.49176e-15 -0.00648001
1.35525e-20 -0.0192203 9.47246e-15 0.0481435
2.71051e-20 0.0191645 0.00146332 -0.00648457
0 -0.0191645 0.00146333 0.048233
0 -0.0190143 0.00283766 0.0481787
2.71051e-20 0.0190143 0.00283768 -0.00648445
-1.69407e-21 0.0186824 0.00457622 -0.00648473
1.01644e-20 -0.0186825 0.00457626 0.0482212
1.69407e-21 -0.0187038 0.00458858 0.0482248
0 0.0187039 0.00458863 -0.00648474
0 0.01916 0.00195764 -0.00648427
0 -0.01916 0.00195763 0.0481138
1.69407e-21 -0.0187213 0.00456183 0.0482271
0 0.0187215 0.00456168 -0.00648474
-1.18585e-20 -0.0187278 0.00460243 0.0482196
-8.47033e-21 0.0187281 0.00460258 -0.00648468
-5.42101e-20 -0.0189854 0.00354595 0.048189
-2.71051e-20 0.0189854 0.00354598 -0.00648445
0 -0.0188773 0.00434108 0.0482484
-3.01167e-21 0.0188774 0.00434115 -0.00648478
0 -0.0193794 0.000836844 0.0481409
-1.69407e-21 0.0193797 0.000837393 -0.00648247
0 -0.0193832 0.00085584 0.0481407
2.75286e-21 0.0193834 0.000855823 -0.00648259
-2.11758e-21 0.0194038 0.000856698 -0.00648259
-2.5411e-21 -0.0194042 0.000856742 0.0481399
-1.35525e-20 0.0194237 1.55386e-15 -0.00648081
0 -0.0194238 1.5392e-15 0.0481248
0 -0.0193728 0.00168997 0.0481667
0 0.0193728 0.00168998 -0.00648408
1.41172e-21 0.0193778 0.00244583 -0.00648393
2.82344e-22 -0.0193778 0.00244582 0.0481474
-1.35525e-20 -0.0189666 0.0047402 0.0482079
-1.35525e-20 0.0189667 0.00474028 -0.0064844
1.12938e-21 -0.0193197 0.00318392 0.0481712
-1.12938e-21 0.0193197 0.00318394 -0.00648406
0 -0.0190326 0.00467124 0.048206
1.35525e-20 0.0190327 0.00467137 -0.00648434
2.71051e-20 0.0195819 0.00142144 -0.00648382
2.71051e-20 -0.0195819 0.00142144 0.0481737
-2.25875e-21 -0.0192551 0.00392917 0.0481913
4.51751e-21 0.0192551 0.00392922 -0.00648413
0 -0.0196529 3.98812e-16 0.0480755
-6.77626e-21 0.019653 4.05019e-16 -0.00647955
5.42101e-20 -0.0195685 0.0019371 0.0481495
2.71051e-20 0.0195685 0.00193711 -0.00648386
2.71051e-20 -0.0190799 0.00480555 0.0482105
-2.71051e-20 0.0190799 0.00480559 -0.0064843
0 0.0197212 0.00026999 -0.00648012
9.03502e-21 -0.0197213 0.000269872 0.0480751
0 -0.0192753 0.0044119 0.0482002
-9.03502e-22 0.0192753 0.00441194 -0.00648412
-3.38813e-21 0.019834 4.73089e-16 -0.00648054
1.35525e-20 -0.0198344 4.68021e-16 0.04807
-6.77626e-21 0.0192476 0.00490233 -0.00648412
0 -0.0192477 0.00490234 0.0482089
2.71051e-20 -0.0196698 0.00278682 0.0481512
-2.71051e-20 0.0196698 0.00278683 -0.00648363
2.71051e-20 -0.0196164 0.00353233 0.0481651
0 0.0196164 0.00353236 -0.0064837
-1.35525e-20 -0.0193208 0.00494455 0.0482019
-1.35525e-20 0.019321 0.00494463 -0.00648401
4.51751e-21 -0.0194217 0.00475372 0.0481964
4.51751e-21 0.0194217 0.0047538 -0.00648395
0 0.0200351 -3.30531e-17 -0.00648294
-1.35525e-20 -0.0200351 -3.31475e-17 0.0480794
-4.70198e-38 0.0200397 0.000879641 -0.00648293
-8.47033e-22 -0.0200397 0.000879689 0.0481062
-2.71051e-20 -0.0196209 0.00418595 0.0481876
0 0.019621 0.00418598 -0.00648377
0 0.0200082 0.001684 -0.00648336
0 -0.0200082 0.00168399 0.0481496
0 -0.0200926 6.73445e-05 0.0480747
-1.35525e-20 0.0200927 6.74618e-05 -0.00648362
0 -0.0200965 -8.39152e-19 0.0480748
0 0.0200966 -7.09534e-19 -0.00648361
0 -0.0201334 8.4998e-18 0.048079
0 0.0201335 8.62606e-18 -0.00648333
2.71051e-20 -0.0195081 0.00505258 0.0481899
-1.35525e-20 0.0195081 0.00505262 -0.00648378
0 0.0200347 0.00229462 -0.0064833
-2.25875e-21 -0.0200347 0.0022946 0.0481484
0 -0.0199605 0.00311668 0.0481528
-2.03288e-21 0.0199605 0.00311671 -0.00648334
1.35525e-20 -0.020225 6.93279e-05 0.048076
0 0.0202253 6.94576e-05 -0.00648281
-1.35525e-20 -0.0202304 -1.78061e-17 0.048076
1.35525e-20 0.0202307 -1.76953e-17 -0.00648281
-3.38813e-21 -0.0199314 0.00385542 0.0481615
4.51751e-21 0.0199314 0.00385544 -0.00648339
-6.77626e-21 0.0196737 0.00514811 -0.00648325
-1.35525e-20 -0.0196737 0.00514812 0.0481309
3.61401e-21 -0.0198941 0.00456695 0.0481534
7.52316e-38 0.0198941 0.00456697 -0.00648334
0 -0.0197657 0.00520119 0.0481247
1.35525e-20 0.0197657 0.00520124 -0.00648316
4.51751e-21 -0.0198219 0.00501114 0.048126
0 0.0198219 0.00501119 -0.00648315
-2.71051e-20 -0.0202897 0.00277314 0.0481535
-2.71051e-20 0.0202897 0.00277314 -0.00648301
-2.71051e-20 -0.0202612 0.00349046 0.0481442
2.71051e-20 0.0202612 0.00349047 -0.00648301
0 0.0199065 0.00528242 -0.00648329
2.71051e-20 -0.0199065 0.00528242 0.0481449
-2.71051e-20 -0.0202451 0.00417935 0.0481492
0 0.0202451 0.00417938 -0.00648306
-5.42101e-20 0.0206574 0.00171968 -0.00648267
1.0842e-19 -0.0206574 0.00171968 0.0481357
4.51751e-21 -0.0201293 0.004986 0.0481237
1.50584e-21 0.0201293 0.00498603 -0.006483
0 0.0200532 0.00536706 -0.00648327
-6.77626e-21 -0.0200532 0.00536708 0.0481421
2.82344e-22 -0.0206314 0.00242245 0.0481221
-5.64689e-22 0.0206314 0.00242249 -0.00648259
0 0.0207755 0.000514881 -0.00648243
-5.42101e-20 -0.0207756 0.000514862 0.0480685
0 -0.0205987 0.00311576 0.0481265
-1.12938e-21 0.0205987 0.00311576 -0.0064826
-2.71051e-20 -0.0203105 0.00476265 0.04812
-2.71051e-20 0.0203105 0.00476269 -0.00648287
-6.77626e-21 -0.0201708 0.00543492 0.0481433
2.03288e-20 0.0201709 0.00543498 -0.00648317
4.51751e-21 -0.0202177 0.00527681 0.0481359
-4.51751e-21 0.0202177 0.00527687 -0.00648307
-3.38813e-21 -0.0205738 0.00381737 0.0481317
1.12938e-21 0.0205738 0.00381738 -0.00648264
4.51751e-21 -0.0205819 0.00447085 0.0481228
0 0.0205819 0.00447087 -0.00648259
0 -0.0203369 0.00553075 0.0481301
0 0.0203371 0.00553081 -0.00648284
5.42101e-20 -0.0209426 0.00274697 0.0480844
0 0.0209426 0.00274698 -0.00648214
0 -0.0209032 0.00344943 0.0481229
8.13152e-20 0.0209032 0.00344944 -0.00648223
-1.35525e-20 -0.0204447 0.0055929 0.0480703
-1.35525e-20 0.0204447 0.00559292 -0.00648236
-1.35525e-20 -0.0204858 0.00548981 0.0480808
0 0.0204858 0.00548988 -0.00648238
7.52918e-22 -0.0206004 0.00512924 0.0481189
2.25875e-21 0.0206004 0.00512925 -0.00648252
-5.42101e-20 -0.0208995 0.00412601 0.0481115
-2.71051e-20 0.0208995 0.00412602 -0.00648224
1.35525e-20 0.0213128 8.97542e-05 -0.00648183
0 -0.0213128 8.9712e-05 0.0480653
1.35525e-20 0.0213193 -2.80333e-18 -0.00648183
-1.35525e-20 -0.0213194 -2.88788e-18 0.0480653
6.77626e-21 0.0213562 0.00112751 -0.00648179
0 -0.0213563 0.0011275 0.0480848
2.03288e-20 0.0206272 0.00569817 -0.00648244
-6.77626e-21 -0.0206273 0.00569821 0.0481174
0 -0.0208932 0.00478631 0.048113
0 0.0208932 0.00478633 -0.00648217
2.25875e-21 0.0213143 0.00228572 -0.00648182
1.12938e-21 -0.0213143 0.00228571 0.0481021
0 0.02144 1.08456e-18 -0.00648169
-1.35525e-20 -0.0214401 1.0845e-18 0.0480696
0 -0.0206784 0.00572772 0.0481326
0 0.0206785 0.00572775 -0.00648246
-2.82344e-22 -0.0212371 0.00307351 0.0480957
-2.82344e-22 0.0212371 0.00307352 -0.00648186
6.77626e-21 -0.0207149 0.00567146 0.0481421
0 0.020715 0.00567136 -0.00648247
6.77626e-21 -0.0207375 0.00576179 0.0481142
6.77626e-21 0.0207376 0.00576188 -0.0064823
3.01167e-21 -0.0208293 0.00551232 0.0481744
3.01167e-21 0.0208293 0.00551235 -0.00648253
0 -0.0215471 0.000109115 0.0480697
0 0.0215471 0.000109145 -0.00648159
0 0.0215566 9.65884e-19 -0.00648158
0 -0.0215566 9.65614e-19 0.0480696
-3.17637e-22 -0.0212592 0.00373091 0.0480926
-3.17637e-22 0.0212592 0.00373092 -0.0064818
-3.38813e-21 -0.0212042 0.00445828 0.0481038
0 0.0212042 0.00445829 -0.00648183
0 -0.0209535 0.0058866 0.048103
-1.35525e-20 0.0209535 0.00588664 -0.00648203
6.77626e-21 -0.0211675 0.00514624 0.0481119
-6.77626e-21 0.0211675 0.00514627 -0.00648184
-1.35525e-20 -0.0210048 0.00583271 0.0481029
0 0.0210048 0.00583278 -0.00648197
0 0.0216644 0.00284434 -0.00648151
0 -0.0216644 0.00284434 0.048125
2.71051e-20 -0.0210555 0.00594567 0.0481147
0 0.0210555 0.00594567 -0.00648191
0 0.0216616 0.00329946 -0.00648137
2.71051e-20 -0.0216616 0.00329945 0.0480516
0 -0.0215297 0.00411132 0.0480865
-2.71051e-20 0.0215297 0.00411133 -0.00648144
0 -0.0212154 0.00559337 0.0481087
1.12938e-21 0.0212154 0.0055934 -0.00648175
0 0.0219546 0.00177015 -0.00648102
5.42101e-20 -0.0219546 0.00177015 0.048068
-5.42101e-20 0.0220217 0.000571054 -0.00648105
-5.42101e-20 -0.0220218 0.000571066 0.0480682
0 -0.0215068 0.00478713 0.048103
0 0.0215068 0.00478716 -0.00648145
0 0.0219097 0.00242093 -0.00648104
-8.47033e-22 -0.0219097 0.00242092 0.04809
6.77626e-21 0.021227 0.00604556 -0.00648168
-6.77626e-21 -0.0212271 0.00604561 0.0481154
-1.35525e-20 -0.0218721 0.0030677 0.0480804
0 0.0218721 0.0030677 -0.00648109
-2.71051e-20 -0.0215266 0.00539882 0.0481114
0 0.0215266 0.00539885 -0.00648143
-4.51751e-21 -0.021392 0.00594167 0.0481095
-9.03502e-21 0.021392 0.00594175 -0.0064815
8.47033e-22 0.0218838 0.00375445 -0.00648098
1.69407e-21 -0.0218838 0.00375445 0.0480643
-1.35525e-20 -0.0213574 0.00612127 0.0481154
0 0.0213576 0.00612138 -0.00648152
0 -0.0218345 0.00443965 0.0480832
-1.12938e-21 0.0218345 0.00443967 -0.0064811
2.71051e-20 -0.0221011 0.00283877 0.0480803
2.71051e-20 0.0221011 0.00283877 -0.00648084
2.71051e-20 -0.0220656 0.0032889 0.0480709
2.71051e-20 0.0220656 0.00328891 -0.00648087
-2.25875e-21 -0.0218182 0.00510344 0.0480956
2.25875e-21 0.0218183 0.00510346 -0.0064811
0 -0.0215448 0.00623065 0.0481142
-1.35525e-20 0.0215448 0.00623071 -0.00648133
-1.35525e-20 0.0225384 9.17221e-05 -0.00648039
0 -0.0225384 9.17064e-05 0.0480482
1.35525e-20 0.0225403 1.79113e-19 -0.00648039
0 -0.0225404 1.78131e-19 0.0480483
0 0.0216442 0.0063096 -0.00648085
-1.35525e-20 -0.0216442 0.00630959 0.04801
-2.71051e-20 -0.0221735 0.00407695 0.0480616
-2.71051e-20 0.0221736 0.00407697 -0.00648075
0 0.0216896 0.0061912 -0.00648087
0 -0.0216897 0.00619112 0.0480313
7.52918e-22 -0.0218103 0.00580094 0.0480965
-7.52918e-22 0.0218103 0.00580096 -0.00648105
0 0.0225989 0.00115695 -0.00648027
0 -0.0225989 0.00115695 0.0480416
0 0.0226373 8.21489e-20 -0.00648025
0 -0.0226373 8.09897e-20 0.0480431
5.42101e-20 -0.0221353 0.00476853 0.0480805
-2.71051e-20 0.0221353 0.00476855 -0.00648073
0 0.022582 0.00236336 -0.00648027
-3.38813e-21 -0.022582 0.00236336 0.0480465
4.23516e-22 0.0225009 0.00305827 -0.00648036
0 -0.022501 0.00305827 0.0480543
0 0.0225095 0.00306052 -0.00648035
-6.69156e-20 -0.0225142 0.0030581 0.0480539
1.35525e-20 -0.0227255 8.81882e-05 0.0480392
-1.35525e-20 0.0227256 8.82072e-05 -0.00648013
0 -0.0227307 3.10213e-20 0.0480391
-1.35525e-20 0.0227308 3.16342e-20 -0.00648013
0 0.0218385 0.00644695 -0.006481
3.38813e-21 -0.0218386 0.00644701 0.0480968
2.71051e-20 -0.0221179 0.00543869 0.0480863
0 0.0221179 0.00543873 -0.00648076
1.69407e-21 -0.0218565 0.0064596 0.0481062
1.69407e-21 0.0218565 0.00645965 -0.00648101
0 -0.0218724 0.00643784 0.0481135
0 0.0218726 0.00643772 -0.00648102
0 -0.0218744 0.00647341 0.0480964
3.38813e-21 0.0218746 0.00647358 -0.00648096
-1.58113e-21 -0.0225287 0.00364569 0.0480486
-1.807e-21 0.0225287 0.00364571 -0.00648029
2.25875e-21 -0.0224649 0.00441818 0.0480578
-1.12938e-21 0.022465 0.00441819 -0.00648034
4.51751e-21 -0.0220386 0.00622588 0.0481943
-3.01167e-21 0.0220386 0.00622594 -0.00648113
1.12938e-21 -0.0224373 0.00510162 0.0480722
-3.38813e-21 0.0224374 0.00510164 -0.00648038
0 -0.022069 0.00662861 0.0480818
-1.35525e-20 0.0220691 0.00662869 -0.00648073
-2.71051e-20 -0.0221728 0.00656824 0.0480848
-2.71051e-20 0.0221729 0.00656835 -0.00648061
-9.03502e-21 -0.0223901 0.00581141 0.0480878
-2.25875e-21 0.0223901 0.00581147 -0.00648043
0 -0.0227864 0.00407104 0.0480362
0 0.0227864 0.00407104 -0.00647991
-1.35525e-20 -0.0221653 0.00670526 0.0480961
-1.35525e-20 0.0221653 0.0067053 -0.00648063
0 0.0232274 0.000581677 -0.00647948
0 -0.0232275 0.000581678 0.048019
2.71051e-20 -0.0227665 0.00474853 0.0480525
0 0.0227666 0.00474854 -0.00647996
0 0.0231993 0.00176868 -0.00647952
5.42101e-20 -0.0231993 0.00176868 0.0480115
-1.35525e-20 -0.0222608 0.00678087 0.0480175
-1.35525e-20 0.0222609 0.00678088 -0.0064802
-2.71051e-20 -0.0223061 0.0066761 0.0480361
1.35525e-20 0.0223061 0.00667615 -0.00648021
7.26028e-22 -0.0224559 0.00637514 0.0480935
-1.04871e-21 0.0224559 0.00637519 -0.00648032
-5.42101e-20 -0.023153 0.00306261 0.048018
0 0.023153 0.00306261 -0.00647962
2.71051e-20 -0.0227373 0.00543366 0.0480685
0 0.0227374 0.0054337 -0.00648005
-1.41172e-22 0.0231517 0.00371753 -0.0064796
3.29402e-22 -0.0231517 0.00371752 0.0479925
1.86347e-20 0.0224506 0.00693113 -0.00648028
-6.77626e-21 -0.0224506 0.00693118 0.0481003
-1.12938e-21 -0.0230941 0.00439939 0.0480187
5.64689e-22 0.0230941 0.00439939 -0.00647962
0 -0.0224718 0.00694794 0.0481103
-1.69407e-21 0.0224719 0.00694799 -0.00648029
-3.38813e-21 -0.0224912 0.0069255 0.0481173
1.69407e-21 0.0224914 0.00692542 -0.0064803
5.42101e-20 -0.0227469 0.00606424 0.0480867
0 0.0227469 0.00606428 -0.00648005
3.38813e-21 -0.0224923 0.00696421 0.0481018