# U  POINT_DATA 14647
# x  y  z  U_x  U_y  U_z
4.23516e-22 -0.0130568 4.20108e-06 2.2486e-05 -1.94479e-05 -3.7374e-08
0 0.0130568 4.20422e-06 7.16368e-08 -6.02777e-08 7.03838e-10
0 0.0130538 6.6649e-06 0 0 0
-4.23516e-22 -0.0130538 6.66028e-06 0 0 0
1.69407e-21 -0.0130538 0.000644839 0 0 0
0 0.0130538 0.000645282 0 0 0
0 -0.0130538 0.000659278 0 0 0
-8.47033e-22 0.0130538 0.000659736 0 0 0
0 -0.0130538 0.000674531 0 0 0
-8.47033e-22 0.0130538 0.000674994 0 0 0
0 -0.0130603 0.000649722 0.000117043 -0.00010123 -1.94538e-07
8.47033e-22 0.0130603 0.000650171 3.72996e-07 -3.13852e-07 3.66472e-09
0 -0.0130603 0.000668856 0.000219225 -0.000187081 7.00159e-07
0 0.0130603 0.000669319 5.22804e-06 -4.2514e-06 -2.76534e-09
-5.92923e-21 -0.0130709 0.000658157 0.000430493 -0.000357978 1.54888e-06
1.60936e-20 0.0130709 0.000658618 6.80528e-06 -5.87256e-06 3.93309e-08
0 -0.0130538 0.00133809 0 0 0
1.69407e-21 0.0130538 0.00133857 0 0 0
0 -0.0130538 0.00135468 0 0 0
0 0.0130538 0.00135516 0 0 0
0 -0.0130538 0.00137216 0 0 0
0 0.0130538 0.00137263 0 0 0
-1.69407e-21 -0.0130609 0.00134164 0.00023888 -0.000203854 7.62933e-07
1.69407e-21 0.0130609 0.00134212 5.69599e-06 -4.63193e-06 -3.01286e-09
-1.69407e-21 -0.0130605 0.00136331 0.000215284 -0.00018341 -4.22947e-06
0 0.0130605 0.00136378 5.64216e-06 -4.70571e-06 7.57075e-08
5.0822e-21 -0.0130744 0.00134748 0.000701527 -0.000607239 1.34479e-06
1.69407e-21 0.0130744 0.00134796 1.69068e-05 -1.46689e-05 -6.4591e-08
0 -0.0130556 0.00208219 5.88472e-05 -4.96443e-05 -7.86457e-07
0 0.0130577 0.00208858 1.45719e-06 -1.2325e-06 -7.82846e-09
-3.38813e-21 -0.0130676 0.00208095 0.00030032 -0.000267944 3.38343e-06
3.81165e-21 0.0130676 0.00208095 7.23774e-06 -6.69854e-06 -3.091e-07
-6.77626e-21 -0.0133442 8.05862e-08 0 0 0
0 0.0133442 8.05859e-08 0 0 0
-1.12938e-21 -0.0133452 0.000326479 0.00481158 -0.00406939 -8.54165e-05
-3.38813e-21 0.0133452 0.000326736 2.38217e-05 -1.83418e-05 6.2272e-07
-2.25875e-21 -0.0133372 0.000959829 0.00940135 -0.00827213 5.17721e-05
-7.90564e-21 0.0133372 0.000960365 0.000205389 -0.000177959 1.44336e-06
0 -0.0132973 0.00155417 0.00821274 -0.0071777 4.42446e-05
0 0.0132973 0.00155454 0.000203974 -0.00017423 -3.93e-06
3.04932e-20 0.0132406 0.00216284 0 0 0
0 -0.0132406 0.00216285 0 0 0
0 -0.0132805 0.00206428 0.00295109 -0.00263295 3.32472e-05
-3.38813e-21 0.0132805 0.00206425 7.11633e-05 -6.58618e-05 -3.03915e-06
-2.71051e-20 0.0133174 0.00219404 0 0 0
0 -0.0133175 0.00219406 0 0 0
2.25875e-21 -0.0133831 0.00186918 0.0078253 -0.00690521 5.83631e-05
0 0.0133831 0.00186936 0.000191458 -0.000172125 -6.57753e-06
1.35525e-20 -0.0135632 9.24961e-08 0 0 0
-2.71051e-20 0.0135632 9.24953e-08 0 0 0
2.25875e-21 -0.0134965 0.00146605 0.0127162 -0.0114201 5.55066e-05
6.77626e-21 0.0134965 0.00146649 0.000320604 -0.000280381 -7.29898e-06
0 -0.0136117 8.70388e-05 0.0020709 -0.00181613 -1.95392e-05
6.77626e-21 0.0136117 8.71003e-05 1.48014e-06 -1.78501e-06 5.38266e-07
6.77626e-21 -0.0136152 8.46271e-08 0 0 0
0 0.0136152 8.46271e-08 0 0 0
1.35525e-20 -0.0136416 8.0639e-08 0 0 0
0 0.0136416 8.06395e-08 0 0 0
6.77626e-22 -0.0136355 0.000678728 0.012678 -0.0107568 0.000114755
6.77626e-22 0.0136355 0.000679269 0.000217158 -0.000187134 5.44872e-07
-1.35525e-20 0.0134811 0.00226049 0 0 0
0 -0.0134812 0.00226053 0 0 0
1.69407e-21 -0.0136197 0.00118987 0.0156783 -0.0135392 5.97208e-05
1.50584e-21 0.0136197 0.00119045 0.000374609 -0.000321979 -2.11027e-06
-3.01167e-21 -0.0136061 0.00162976 0.0141383 -0.0121955 -7.65119e-05
-4.51751e-21 0.0136061 0.00163011 0.000361463 -0.000310844 -5.92153e-06
1.35525e-20 0.0137235 7.39497e-08 0 0 0
1.35525e-20 -0.0137235 7.39483e-08 0 0 0
6.77626e-21 0.0137252 9.16823e-05 1.86823e-06 -1.58993e-06 7.07372e-08
-6.77626e-21 -0.0137253 9.16246e-05 0.00290133 -0.00243053 3.65902e-05
-1.12938e-22 -0.0137103 0.00202484 0.0111891 -0.00969276 7.81635e-05
-3.38813e-22 0.0137102 0.00202496 0.000293444 -0.000247629 -4.06017e-06
-6.77626e-21 0.0136752 0.0023393 0 0 0
6.77626e-21 -0.0136753 0.00233933 0 0 0
-6.77626e-21 0.0137679 0.00237692 0 0 0
1.35525e-20 -0.013768 0.00237696 0 0 0
-1.35525e-20 -0.0139849 0.000399002 0.0112419 -0.00931381 8.62522e-05
0 0.0139849 0.000399313 7.78839e-05 -6.58537e-05 -5.81425e-07
-9.03502e-21 -0.013986 0.000912946 0.0200208 -0.017031 0.000109549
-9.03502e-21 0.013986 0.000913447 0.000423762 -0.000359572 -4.23376e-06
-9.03502e-21 -0.0139545 0.00150378 0.0210001 -0.0179969 -1.69194e-05
4.51751e-21 0.0139546 0.00150416 0.000537298 -0.000455792 -3.3198e-06
1.35525e-20 -0.0140935 0.000126371 0.0040043 -0.00335452 5.05002e-05
-1.35525e-20 0.0140935 0.000126457 2.57859e-06 -2.19447e-06 9.76336e-08
0 -0.0141015 1.51513e-08 0 0 0
0 0.0141015 1.51514e-08 0 0 0
8.47033e-22 -0.0139607 0.00245511 0 0 0
0 0.0139609 0.00245518 0 0 0
-2.71051e-20 -0.0141702 0.000612039 0.0167692 -0.0139519 0.000110478
-2.71051e-20 0.0141702 0.000612472 0.000258283 -0.000221254 -1.35392e-06
2.71051e-20 0.0139759 0.00246127 0 0 0
7.6233e-21 -0.013976 0.00246129 0 0 0
9.31736e-21 0.0139805 0.00244911 1.68436e-05 -1.57025e-05 -2.09936e-07
-2.5411e-21 -0.0139806 0.00244893 0.000535442 -0.000462128 1.22302e-05
-2.71051e-20 -0.0141582 0.00121268 0.0235955 -0.0199617 4.23629e-05
0 0.0141582 0.00121315 0.00056172 -0.000480141 -3.87367e-06
1.35525e-20 -0.0142137 6.98307e-09 0 0 0
0 0.0142137 6.98407e-09 0 0 0
0 -0.0141062 0.00185461 0.0187716 -0.015823 -2.55553e-05
0 0.0141062 0.00185482 0.000496762 -0.00042377 -4.22278e-06
0 0.0140936 0.00222224 0.000318798 -0.000289798 -3.76085e-06
-2.25875e-21 -0.0140936 0.00222217 0.0103184 -0.00881779 0.000171727
-1.35525e-20 0.0143442 6.46477e-09 0 0 0
0 -0.0143442 6.46386e-09 0 0 0
1.35525e-20 0.0141438 0.00239267 0.000164626 -0.000153473 -2.05188e-06
-6.77626e-21 -0.0141439 0.00239256 0.00515225 -0.00444679 0.000117684
0 0.014345 0.000135164 2.76846e-06 -2.41847e-06 1.12313e-07
-1.35525e-20 -0.014345 0.00013509 0.00544836 -0.00446705 1.12145e-05
-1.35525e-20 0.0141782 0.00254345 0 0 0
0 -0.0141783 0.00254345 0 0 0
-2.43945e-20 0.0144148 0.000393235 7.33307e-05 -6.24056e-05 -1.38633e-07
-2.71051e-21 -0.0144148 0.000392975 0.0130924 -0.0107842 7.48083e-05
0 0.014293 0.00252719 8.4951e-05 -7.07109e-05 3.39273e-08
6.77626e-21 -0.0142931 0.00252719 0.00315407 -0.00246036 -6.01885e-05
-2.03288e-20 0.0142857 0.00258696 0 0 0
0 -0.0142858 0.00258699 0 0 0
6.77626e-21 -0.0145008 0.000915389 0.0263634 -0.0219976 3.93064e-05
4.51751e-21 0.0145008 0.000915765 0.00055972 -0.000481653 -3.93886e-06
1.69407e-21 0.0143708 0.00229756 0.000380799 -0.000321749 -2.3647e-06
-3.38813e-21 -0.0143708 0.00229749 0.0133758 -0.0110222 -4.10986e-06
2.25875e-21 -0.0144715 0.00154752 0.0291903 -0.0244407 -3.21015e-05
0 0.0144715 0.0015478 0.000751726 -0.000644633 -4.34945e-06
0 -0.0144657 0.00205596 0.0213953 -0.0178484 1.1398e-05
-4.51751e-21 0.0144657 0.00205609 0.000591979 -0.000500603 -3.09063e-06
0 0.0146705 0.00015054 3.08341e-06 -2.6936e-06 1.25091e-07
1.35525e-20 -0.0146705 0.000150448 0.00606782 -0.00497494 1.24896e-05
-1.35525e-20 0.01468 6.30535e-09 0 0 0
1.35525e-20 -0.01468 6.30475e-09 0 0 0
0 -0.0144708 0.00266175 0 0 0
1.35525e-20 0.0144708 0.00266174 0 0 0
2.71051e-21 0.0145057 0.00250599 0.000238236 -0.000194142 -6.21571e-07
-2.71051e-21 -0.0145058 0.00250596 0.00866216 -0.00681239 -0.000127053
0 0.0148233 5.71582e-09 0 0 0
0 -0.0148234 5.71538e-09 0 0 0
0 -0.0148745 0.000558342 0.0210729 -0.0174731 1.37749e-05
-4.51751e-21 0.0148745 0.000558581 0.000297638 -0.000256229 -1.86537e-06
0 -0.0147686 0.00191048 0.0285054 -0.0238545 -4.11688e-05
0 0.0147686 0.00191064 0.000765877 -0.000657433 -3.81311e-06
0 0.0146404 0.00273044 0 0 0
0 -0.0146404 0.00273047 0 0 0
-1.54886e-20 -0.0148827 0.00116851 0.0336647 -0.0280893 -2.02108e-05
5.80823e-21 0.0148827 0.00116882 0.000772133 -0.000664216 -4.92786e-06
1.35525e-20 0.0149747 4.96127e-09 0 0 0
2.71051e-20 -0.0149747 4.9609e-09 0 0 0
1.35525e-20 0.0149752 0.000142336 2.98203e-06 -2.57161e-06 1.1876e-07
-1.35525e-20 -0.0149752 0.000142287 0.00662885 -0.00543524 -1.15182e-05
-2.25875e-21 -0.0148161 0.00236406 0.0191962 -0.0160332 -8.14741e-05
4.51751e-21 0.0148161 0.00236412 0.000528566 -0.000454665 -2.21838e-06
-1.807e-20 -0.0150223 0.00156473 0.0368825 -0.0307059 -3.38243e-05
0 0.0150222 0.00156494 0.0009443 -0.000811693 -6.0557e-06
-2.71051e-20 0.0151424 0.000304981 6.3608e-06 -5.47323e-06 2.21285e-07
0 -0.0151424 0.000304874 0.0137578 -0.0112699 -1.11504e-05
-1.35525e-20 0.0148918 0.00283394 0 0 0
2.71051e-20 -0.0148918 0.00283398 0 0 0
0 -0.0151422 0.000920422 0.0350629 -0.0291179 -3.41303e-05
0 0.0151422 0.000920657 0.00074887 -0.00064573 -4.79427e-06
8.13152e-21 0.0150419 0.00210501 0.000843781 -0.000726334 -3.06756e-06
-1.89735e-20 -0.0150419 0.00210492 0.0307086 -0.0257051 -0.000138066
4.51751e-21 -0.015053 0.00270398 0.0109464 -0.00944848 -2.69533e-05
0 0.015053 0.00270402 0.000278648 -0.000250587 -1.95644e-06
-6.77626e-21 -0.0150244 0.00288816 0 0 0
-2.71051e-20 0.0150245 0.0028882 0 0 0
1.35525e-20 0.0153086 2.24203e-09 0 0 0
1.35525e-20 -0.0153086 2.24182e-09 0 0 0
0 0.0153121 0.000140875 2.95146e-06 -2.54525e-06 1.17543e-07
-1.35525e-20 -0.0153122 0.000140824 0.00656084 -0.00537947 -1.14e-05
0 -0.0154577 1.48782e-09 0 0 0
-1.35525e-20 0.0154577 1.48795e-09 0 0 0
4.51751e-21 -0.0154655 0.000604019 0.0260413 -0.0215442 -2.22947e-05
2.25875e-21 0.0154655 0.000604165 0.000398978 -0.000344693 -2.22162e-06
-1.12938e-20 -0.0154631 0.00123933 0.0412513 -0.0342771 -6.43668e-05
3.76158e-37 0.0154631 0.0012395 0.000971811 -0.000838303 -5.76911e-06
0 -0.0152755 0.00299148 0 0 0
2.71051e-20 0.0152755 0.0029915 0 0 0
0 -0.015469 0.0018808 0.0408471 -0.0340425 -0.000139854
2.25875e-21 0.015469 0.00188091 0.0010791 -0.000930465 -6.3e-06
0 -0.0156043 1.3028e-09 0 0 0
-1.35525e-20 0.0156043 1.30289e-09 0 0 0
-1.35525e-20 -0.0156046 0.000132299 0.00682154 -0.00557489 1.32001e-06
1.35525e-20 0.0156046 0.000132329 2.86518e-06 -2.4896e-06 7.79e-08
0 0.0153937 0.00303998 0 0 0
0 -0.0153938 0.00303999 0 0 0
1.35525e-20 0.0154261 0.0029384 0.000186708 -0.000173514 -1.79046e-06
-2.71051e-20 -0.0154261 0.00293835 0.00565834 -0.00516555 0.000198471
5.27043e-21 -0.0155039 0.00256159 0.0240511 -0.0204098 -9.4958e-06
-7.52918e-22 0.0155039 0.00256162 0.000675953 -0.000586457 -4.8303e-06
0 0.0157872 0.000299952 6.43768e-06 -5.57318e-06 1.25377e-07
2.71051e-20 -0.0157872 0.000299901 0.0150918 -0.0123478 3.13949e-07
2.71051e-20 -0.0157971 0.000915013 0.0409673 -0.0340393 -4.63593e-05
-2.71051e-20 0.0157971 0.000915131 0.000856218 -0.000740885 -4.59803e-06
0 -0.0157989 0.00156074 0.0489997 -0.0407276 -0.000146758
-2.71051e-20 0.0157989 0.00156083 0.0012519 -0.00108063 -7.32412e-06
6.77626e-21 0.0156182 0.00313283 0 0 0
-6.77626e-21 -0.0156183 0.00313286 0 0 0
2.71051e-20 -0.015809 0.0022127 0.0431526 -0.0360346 -0.000211806
2.71051e-20 0.015809 0.00221276 0.00116397 -0.00100648 -8.54678e-06
0 0.0159653 5.84461e-10 0 0 0
-1.35525e-20 -0.0159653 5.84404e-10 0 0 0
-1.35525e-20 0.0159712 0.000124971 2.70588e-06 -2.35118e-06 7.3569e-08
0 -0.0159712 0.000124945 0.00644237 -0.00526501 1.24664e-06
6.77626e-21 -0.0156925 0.0031635 0 0 0
6.77626e-21 0.0156925 0.00316352 0 0 0
6.77626e-21 -0.01572 0.00310334 0.00414306 -0.00356095 3.06629e-05
-6.77626e-21 0.0157201 0.00310327 0.00012702 -0.000101898 -7.77353e-07
-1.50584e-21 -0.0157996 0.00293416 0.0150178 -0.0129884 0.000145176
0 0.0157996 0.00293419 0.000460718 -0.00038463 -4.21165e-06
0 -0.015781 0.00319986 0 0 0
-2.03288e-20 0.0157812 0.00319994 0 0 0
0 -0.0161034 4.04832e-10 0 0 0
0 0.0161034 4.0486e-10 0 0 0
-6.77626e-21 -0.016119 0.000594184 0.029192 -0.0241911 -3.31879e-05
-6.77626e-21 0.016119 0.000594247 0.000442331 -0.000382633 -2.60747e-06
-9.03502e-21 -0.0161299 0.00122524 0.047897 -0.0398327 -0.000125215
2.25875e-21 0.0161299 0.00122532 0.00111241 -0.000961505 -7.32934e-06
0 -0.0162343 3.59803e-10 0 0 0
-1.35525e-20 0.0162343 3.59826e-10 0 0 0
0 -0.0162345 0.00011328 0.00633295 -0.00520725 5.74846e-06
0 0.0162345 0.000113292 2.62109e-06 -2.25003e-06 1.13029e-07
-6.77626e-21 -0.0161352 0.00188661 0.0503296 -0.0419484 -0.000209883
0 0.0161352 0.00188666 0.00131759 -0.00114009 -1.07864e-05
0 -0.0161278 0.00255594 0.0351559 -0.0295699 -9.33509e-05
-2.25875e-21 0.0161278 0.00255599 0.000992527 -0.00086172 -1.1611e-05
-1.35525e-20 -0.0159975 0.00328828 0 0 0
0 0.0159976 0.00328832 0 0 0
1.35525e-20 -0.0160352 0.00323057 0.00432944 -0.0037886 3.40687e-05
4.06576e-20 0.0160353 0.00323064 0.000125795 -0.000112959 -3.24268e-06
1.35525e-20 -0.0160906 0.00332631 0 0 0
1.35525e-20 0.0160907 0.00332633 0 0 0
-2.71051e-20 -0.0164377 0.00029234 0.0159947 -0.0131757 1.40474e-05
-2.71051e-20 0.0164377 0.000292357 6.63566e-06 -5.70544e-06 1.98014e-07
-2.71051e-20 -0.0164552 0.000897699 0.0456385 -0.0379755 -0.000103288
0 0.0164552 0.000897745 0.000928086 -0.000802425 -6.38015e-06
-1.807e-21 -0.0162066 0.0029897 0.0202189 -0.0172117 3.42749e-05
1.35525e-21 0.0162067 0.00298974 0.000603279 -0.000527249 -1.00655e-05
-2.71051e-20 -0.0164658 0.00154123 0.0563575 -0.0469019 -0.000206701
0 0.0164658 0.00154127 0.00142607 -0.00123278 -1.13243e-05
1.35525e-20 0.0162526 0.00328164 0.000206886 -0.000184033 -4.25928e-06
0 -0.0162527 0.00328159 0.00718671 -0.00609503 -3.87892e-05
0 0.0162526 0.00339239 0 0 0
-2.71051e-20 -0.0162526 0.00339241 0 0 0
-2.71051e-20 -0.0164656 0.00220947 0.0532524 -0.0444911 -0.000276474
5.42101e-20 0.0164656 0.00220951 0.00143839 -0.00124887 -1.60196e-05
0 0.0166389 1.04271e-10 0 0 0
0 -0.0166389 1.04267e-10 0 0 0
0 0.0166447 0.000100575 2.32688e-06 -1.99747e-06 1.00342e-07
0 -0.0166447 0.000100568 0.00562231 -0.00462292 5.1034e-06
0 -0.0165065 0.00278869 0.035075 -0.0294172 -0.000177342
-2.71051e-20 0.0165065 0.00278872 0.00102815 -0.000897382 -1.75106e-05
0 -0.0167551 6.1842e-11 0 0 0
1.35525e-20 0.0167551 6.18409e-11 0 0 0
4.51751e-21 -0.0167741 0.000577096 0.0313085 -0.0259931 -6.82214e-05
4.51751e-21 0.0167741 0.000577118 0.000469521 -0.000404897 -3.86588e-06
2.71051e-20 -0.0164727 0.00325225 0.0145119 -0.0122789 -4.2447e-05
2.71051e-20 0.0164728 0.00325227 0.00041881 -0.000370408 -8.429e-06
3.38813e-21 -0.0167927 0.00119999 0.0529081 -0.0440591 -0.000203841
1.12938e-21 0.0167928 0.00120002 0.00121819 -0.00105214 -1.05156e-05
2.71051e-20 -0.0164932 0.00349062 0 0 0
1.35525e-20 0.0164934 0.00349067 0 0 0
-1.35525e-20 -0.0168627 5.6253e-11 0 0 0
-1.35525e-20 0.0168627 5.62518e-11 0 0 0
0 -0.0168631 9.00351e-05 0.00525658 -0.00427637 -3.15652e-05
-1.35525e-20 0.0168631 9.00377e-05 2.3655e-06 -1.91674e-06 2.97024e-07
1.12938e-21 -0.0167971 0.00186718 0.0585127 -0.0487998 -0.000387967
3.38813e-21 0.0167971 0.0018672 0.00152926 -0.00132542 -1.5427e-05
-2.71051e-20 -0.0165645 0.00339838 0.00786852 -0.00667327 -4.24692e-05
0 0.0165646 0.00339847 0.000226539 -0.000201515 -4.6639e-06
2.25875e-21 -0.0168038 0.00251859 0.0490408 -0.0409491 -0.000443538
-2.25875e-21 0.0168039 0.00251861 0.00136314 -0.00118724 -1.86244e-05
-2.71051e-20 -0.0166657 0.003561 0 0 0
0 0.0166658 0.00356102 0 0 0
3.38813e-21 -0.0167839 0.00309024 0.028063 -0.0234049 -0.000244519
-6.77626e-21 0.016784 0.00309026 0.000816712 -0.00071577 -1.40835e-05
5.42101e-20 0.0170872 0.000280478 7.06835e-06 -5.81945e-06 6.43646e-07
-2.71051e-20 -0.0170872 0.000280474 0.0161452 -0.013211 -5.23528e-05
5.42101e-20 -0.0171093 0.000869706 0.0484476 -0.0404406 -0.000133103
0 0.0171094 0.000869716 0.000966316 -0.000831137 -1.02109e-05
0 -0.0171238 0.0015109 0.0614851 -0.0511644 -0.000374804
2.71051e-20 0.0171238 0.00151092 0.00156354 -0.00135151 -1.45546e-05
-6.77626e-21 0.0168547 0.00363794 0 0 0
2.03288e-20 -0.0168548 0.00363795 0 0 0
-2.71051e-20 -0.0171215 0.00218644 0.063146 -0.0527949 -0.000695447
5.42101e-20 0.0171216 0.00218645 0.00169353 -0.00147224 -1.98523e-05
0 -0.0173128 1.50028e-11 0 0 0
-1.35525e-20 0.0173128 1.50016e-11 0 0 0
1.35525e-20 0.017316 7.61098e-05 1.99958e-06 -1.62024e-06 2.51077e-07
0 -0.017316 7.61078e-05 0.00444345 -0.00361487 -2.66824e-05
0 -0.0169937 0.00347014 0.0136576 -0.0112991 -0.000103225
0 0.0169937 0.00347019 0.000410018 -0.000360948 -7.27576e-06
-2.03288e-20 -0.0169518 0.00367748 0 0 0
2.03288e-20 0.0169519 0.00367752 0 0 0
-2.71051e-20 -0.0171192 0.00284365 0.0465144 -0.0386132 -0.000656855
2.71051e-20 0.0171192 0.00284368 0.00133645 -0.00116884 -2.12992e-05
0 0.0174041 1.00273e-11 0 0 0
0 -0.0174041 1.00286e-11 0 0 0
-2.25875e-21 -0.0174225 0.000552281 0.0320217 -0.0267767 -3.40113e-05
2.25875e-21 0.0174225 0.000552286 0.000470294 -0.00040312 -5.30333e-06
5.64689e-21 -0.0174464 0.00116236 0.0562268 -0.0469086 -0.000350121
0 0.0174464 0.00116237 0.0012764 -0.00110195 -1.27945e-05
0 -0.0174883 9.27754e-12 0 0 0
1.35525e-20 0.0174883 9.27624e-12 0 0 0
0 -0.0174886 6.91534e-05 0.00401548 -0.0034416 0.000146654
1.35525e-20 0.0174886 6.91578e-05 1.90456e-06 -1.50426e-06 1.87848e-07
0 -0.0174523 0.00183361 0.065714 -0.0548972 -0.00062998
0 0.0174523 0.00183363 0.00170967 -0.00148504 -1.74409e-05
4.06576e-20 0.0171554 0.00376035 0 0 0
1.35525e-20 -0.0171554 0.00376034 0 0 0
3.38813e-21 -0.0174395 0.00252755 0.059223 -0.0493265 -0.000919387
2.25875e-21 0.0174395 0.00252757 0.00164361 -0.00143409 -2.12715e-05
0 -0.0172701 0.00381183 0 0 0
0 0.0172701 0.00381183 0 0 0
1.35525e-20 0.0173096 0.0036891 0.000286293 -0.000269023 -9.28501e-06
0 -0.0173096 0.00368906 0.00802369 -0.00673467 3.6463e-05
-1.8823e-21 -0.0174174 0.00327288 0.032305 -0.0265827 -0.000575219
4.89397e-21 0.0174174 0.00327291 0.000973828 -0.000853363 -1.71984e-05
2.71051e-20 -0.0177262 0.000264489 0.0153533 -0.0131326 0.000400745
0 0.0177262 0.000264491 7.10421e-06 -5.75182e-06 3.57395e-07
0 -0.0177529 0.000830839 0.0492274 -0.0412277 -0.000359189
-2.71051e-20 0.0177529 0.000830843 0.000933404 -0.000797363 -1.24468e-05
0 -0.0177737 0.00146633 0.0660264 -0.0550275 -0.00053771
0 0.0177737 0.00146634 0.00165575 -0.0014378 -1.46973e-05
-2.03288e-20 0.0174674 0.00388876 0 0 0
-1.35525e-20 -0.0174675 0.00388877 0 0 0
-2.71051e-20 -0.0177694 0.00215825 0.0721012 -0.0605125 -0.000909529
2.71051e-20 0.0177694 0.00215826 0.00192287 -0.00167569 -2.07478e-05
-6.77626e-21 -0.0175188 0.00391124 0 0 0
0 0.017519 0.0039113 0 0 0
-3.38813e-21 -0.0175509 0.00385321 0.0048418 -0.00388258 -0.000114566
-3.38813e-21 0.0175511 0.00385308 0.000157354 -0.000127914 -1.9836e-06
-2.71051e-20 -0.0177413 0.00287705 0.0564426 -0.0465072 -0.00142837
2.71051e-20 0.0177414 0.00287708 0.00165146 -0.00144548 -2.31909e-05
-6.77626e-21 0.0179809 1.39465e-12 0 0 0
-6.77626e-21 -0.0179809 1.39504e-12 0 0 0
-6.77626e-21 0.017982 5.25092e-05 1.44607e-06 -1.14213e-06 1.42627e-07
6.77626e-21 -0.017982 5.25067e-05 0.00304887 -0.00261314 0.000111351
0 -0.0175787 0.00394073 0 0 0
-1.35525e-20 0.017579 0.0039409 0 0 0
-4.51751e-21 -0.01766 0.00367697 0.019632 -0.0158069 -0.000437413
3.01167e-21 0.01766 0.00367702 0.000637869 -0.000535482 -1.0863e-05
-6.77626e-21 -0.0180462 7.99821e-13 0 0 0
6.77626e-21 0.0180462 7.99456e-13 0 0 0
-2.25875e-21 -0.0180586 0.000513285 0.0305748 -0.0256094 -0.000182488
-3.38813e-21 0.0180586 0.000513288 0.000439794 -0.000360663 -1.37979e-05
6.77626e-21 -0.0181035 4.49129e-05 0.00255917 -0.00204469 -4.57229e-05
0 0.0181035 4.49204e-05 9.65305e-07 -8.64624e-07 -6.1407e-07
0 -0.0181053 7.64927e-13 0 0 0
0 0.0181054 7.64553e-13 0 0 0
0 0.0181062 0.00109872 0.00126949 -0.00108688 -2.00234e-05
1.12938e-21 -0.0181062 0.00109871 0.0567808 -0.0475753 -0.000572903
5.64689e-22 -0.0181012 0.00178214 0.0713168 -0.059823 -0.000946857
-2.25875e-21 0.0181012 0.00178214 0.00185045 -0.0016149 -1.83335e-05
-1.12938e-21 -0.0180748 0.00251396 0.0685668 -0.0571252 -0.0014168
-2.25875e-21 0.0180748 0.00251397 0.0019185 -0.00168014 -2.25475e-05
-1.35525e-20 -0.0177924 0.00406323 0 0 0
0 0.0177926 0.00406332 0 0 0
0 -0.0178459 0.00400227 0.00589724 -0.0046654 -0.000164682
0 0.017846 0.00400239 0.000179294 -0.000157015 -4.8116e-06
-2.25875e-21 -0.0180178 0.00326611 0.0444399 -0.0362967 -0.00122741
-6.77626e-21 0.0180179 0.00326616 0.00135505 -0.00118781 -2.2905e-05
-2.71051e-20 -0.0183483 0.000235222 0.0134401 -0.0109213 -0.000244871
2.71051e-20 0.0183483 0.000235228 5.86384e-06 -5.54994e-06 -1.90284e-06
0 -0.0178961 0.00412296 0 0 0
0 0.0178962 0.004123 0 0 0
2.71051e-20 0.0183931 0.00076447 0.000858008 -0.000678645 -3.91671e-05
0 -0.0183931 0.000764464 0.0459484 -0.0385686 -0.000529815
4.51751e-22 -0.0180567 0.00374589 0.0260044 -0.0208505 -0.000769508
-4.51751e-22 0.0180567 0.00374594 0.00082388 -0.000721401 -1.85035e-05
-2.71051e-20 -0.0184337 0.00138079 0.0672716 -0.05654 -0.00086459
0 0.0184337 0.0013808 0.00168593 -0.00147287 -1.69275e-05
0 -0.0184036 0.00212468 0.0796581 -0.0670457 -0.0014679
2.71051e-20 0.0184036 0.00212468 0.0021299 -0.00186659 -2.1038e-05
3.38813e-21 -0.0185327 3.11692e-13 0 0 0
-6.77626e-21 0.0185328 3.11508e-13 0 0 0
0 0.0180755 0.00422628 0 0 0
1.35525e-20 -0.0180755 0.00422633 0 0 0
0 -0.0183781 0.00285998 0.0665843 -0.0548853 -0.00187406
2.71051e-20 0.0183781 0.00285999 0.0019799 -0.00174174 -2.51702e-05
-2.25875e-21 -0.0186584 0.000460862 0.0284282 -0.0238716 -0.000241345
2.25875e-21 0.0186584 0.000460867 0.000336702 -0.000297529 -2.65725e-06
1.35525e-20 -0.0181752 0.00428374 0 0 0
6.77626e-21 0.0181755 0.00428388 0 0 0
0 -0.0182334 0.00409647 0.0127939 -0.00993556 -0.000562929
-4.51751e-21 0.0182335 0.00409657 0.000401063 -0.000352418 -1.01194e-05
0 -0.0183786 0.00352144 0.0444909 -0.0358418 -0.00151205
0 0.0183786 0.00352149 0.00138788 -0.00121719 -2.76597e-05
3.38813e-21 -0.018738 2.24864e-13 0 0 0
0 0.018738 2.24779e-13 0 0 0
0 -0.0187383 1.85704e-05 0.00106501 -0.000884896 -1.9909e-05
3.38813e-21 0.0187383 1.85635e-05 5.49021e-07 -5.46996e-07 -1.01767e-08
-3.38813e-21 -0.0187394 0.000144213 0.00866278 -0.00728117 -6.0569e-05
-3.38813e-21 0.0187394 0.000144178 9.17129e-05 -8.33006e-05 -4.99364e-08
-3.38813e-21 -0.0187638 5.24913e-14 0 0 0
-3.38813e-21 0.0187638 5.2518e-14 0 0 0
0 0.018782 1.52393e-05 2.61505e-07 -3.83997e-07 3.28732e-07
0 -0.018782 1.5244e-05 0.000917708 -0.000833913 5.78509e-05
-3.38813e-21 0.0187835 4.19052e-14 0 0 0
3.38813e-21 -0.0187835 4.18701e-14 0 0 0
5.64689e-23 0.0187413 0.0017483 0.00195659 -0.00171884 -1.28422e-05
2.25875e-22 -0.0187413 0.00174835 0.074222 -0.0625793 -0.00121274
3.38813e-21 0.0188423 3.06821e-14 0 0 0
0 -0.0188423 3.06421e-14 0 0 0
0 0.0188305 0.000950992 0.00099958 -0.000896973 4.07448e-06
-6.77626e-21 -0.0188305 0.000950983 0.050268 -0.0423427 -0.000605112
0 -0.0183688 0.00439528 0 0 0
0 0.0183689 0.00439535 0 0 0
-4.03349e-23 -0.0187533 0.00244388 0.0748972 -0.0625837 -0.00183898
0 0.0187533 0.00244392 0.00214344 -0.00188468 -2.32111e-05
-1.12938e-21 -0.0186868 0.0032017 0.0606631 -0.0494901 -0.00211438
-1.12938e-21 0.0186868 0.00320172 0.00184793 -0.00162358 -2.73098e-05
1.35525e-20 -0.0184806 0.00445983 0 0 0
1.35525e-20 0.0184807 0.00445985 0 0 0
-1.35525e-20 -0.0185303 0.00433131 0.00853736 -0.00669346 -0.00028717
1.35525e-20 0.0185303 0.00433142 0.000305596 -0.000282123 -1.18323e-05
-7.52918e-22 -0.0186604 0.00393307 0.0326141 -0.0257937 -0.001419
2.25875e-21 0.0186604 0.0039331 0.00102359 -0.000896931 -2.08788e-05
1.12938e-21 -0.0191244 0.000340856 0.0199187 -0.0165426 -2.30157e-05
-2.82344e-22 0.0191244 0.000340868 6.86967e-05 -5.00817e-05 -3.44657e-05
1.35525e-20 0.0192203 9.49176e-15 0 0 0
1.35525e-20 -0.0192203 9.47246e-15 0 0 0
2.71051e-20 0.0191645 0.00146332 0.00188792 -0.00167364 5.93464e-06
0 -0.0191645 0.00146333 0.0723516 -0.0612904 -0.0010575
0 -0.0190143 0.00283766 0.0752049 -0.0622112 -0.00253541
2.71051e-20 0.0190143 0.00283768 0.00227069 -0.0020004 -2.80955e-05
-1.69407e-21 0.0186824 0.00457622 0 0 0
1.01644e-20 -0.0186825 0.00457626 0 0 0
1.69407e-21 -0.0187038 0.00458858 0 0 0
0 0.0187039 0.00458863 0 0 0
0 0.01916 0.00195764 0.00225337 -0.00198445 -1.97149e-05
0 -0.01916 0.00195763 0.0803375 -0.0682979 -0.00139814
1.69407e-21 -0.0187213 0.00456183 0.00240015 -0.00181982 -0.00014332
0 0.0187215 0.00456168 7.45637e-05 -6.10728e-05 -9.80938e-07
-1.18585e-20 -0.0187278 0.00460243 0 0 0
-8.47033e-21 0.0187281 0.00460258 0 0 0
-5.42101e-20 -0.0189854 0.00354595 0.0582432 -0.0466206 -0.00259241
-2.71051e-20 0.0189854 0.00354598 0.00180659 -0.00158248 -2.85017e-05
0 -0.0188773 0.00434108 0.0215469 -0.0163864 -0.00123317
-3.01167e-21 0.0188774 0.00434115 0.000672434 -0.000566498 -1.20828e-05
0 -0.0193794 0.000836844 0.0432414 -0.0365855 -0.000614293
-1.69407e-21 0.0193797 0.000837393 0.000747964 -0.000684992 3.79497e-06
0 -0.0193832 0.00085584 0.0440743 -0.0373033 -0.000635345
2.75286e-21 0.0193834 0.000855823 0.000772824 -0.000708275 5.29924e-06
-2.11758e-21 0.0194038 0.000856698 0.000776142 -0.000710946 5.15018e-06
-2.5411e-21 -0.0194042 0.000856742 0.0441586 -0.0373889 -0.000640216
-1.35525e-20 0.0194237 1.55386e-15 0 0 0
0 -0.0194238 1.5392e-15 0 0 0
0 -0.0193728 0.00168997 0.0765216 -0.0650339 -0.00129294
0 0.0193728 0.00168998 0.00209826 -0.00184767 -8.77053e-06
1.41172e-21 0.0193778 0.00244583 0.00239469 -0.00211033 -2.68308e-05
2.82344e-22 -0.0193778 0.00244582 0.0802411 -0.0673089 -0.00221469
-1.35525e-20 -0.0189666 0.0047402 0 0 0
-1.35525e-20 0.0189667 0.00474028 0 0 0
1.12938e-21 -0.0193197 0.00318392 0.0714993 -0.0584294 -0.00284392
-1.12938e-21 0.0193197 0.00318394 0.00220543 -0.00194226 -2.98709e-05
0 -0.0190326 0.00467124 0.00742692 -0.00542042 -0.000483807
1.35525e-20 0.0190327 0.00467137 0.000212093 -0.000182913 -5.42074e-06
2.71051e-20 0.0195819 0.00142144 0.00193042 -0.00169437 -6.45176e-06
2.71051e-20 -0.0195819 0.00142144 0.0721369 -0.0615552 -0.00121901
-2.25875e-21 -0.0192551 0.00392917 0.0480474 -0.0378914 -0.00251225
4.51751e-21 0.0192551 0.00392922 0.00149187 -0.00130875 -2.28347e-05
0 -0.0196529 3.98812e-16 0 0 0
-6.77626e-21 0.019653 4.05019e-16 0 0 0
5.42101e-20 -0.0195685 0.0019371 0.0815228 -0.0693576 -0.00153969
2.71051e-20 0.0195685 0.00193711 0.00238376 -0.00209531 -2.35355e-05
2.71051e-20 -0.0190799 0.00480555 0 0 0
-2.71051e-20 0.0190799 0.00480559 0 0 0
0 0.0197212 0.00026999 2.09995e-05 -7.6562e-06 -4.00463e-05
9.03502e-21 -0.0197213 0.000269872 0.0158924 -0.0131179 9.48233e-06
0 -0.0192753 0.0044119 0.0296521 -0.0225617 -0.00185673
-9.03502e-22 0.0192753 0.00441194 0.000894518 -0.000782842 -1.66998e-05
-3.38813e-21 0.019834 4.73089e-16 0 0 0
1.35525e-20 -0.0198344 4.68021e-16 0 0 0
-6.77626e-21 0.0192476 0.00490233 0 0 0
0 -0.0192477 0.00490234 0 0 0
2.71051e-20 -0.0196698 0.00278682 0.0828113 -0.0690866 -0.00279612
-2.71051e-20 0.0196698 0.00278683 0.00255992 -0.00226083 -3.44713e-05
2.71051e-20 -0.0196164 0.00353233 0.0703469 -0.0563726 -0.00344494
0 0.0196164 0.00353236 0.0022011 -0.00194006 -2.85578e-05
-1.35525e-20 -0.0193208 0.00494455 0 0 0
-1.35525e-20 0.019321 0.00494463 0 0 0
4.51751e-21 -0.0194217 0.00475372 0.0164941 -0.0118877 -0.0014118
4.51751e-21 0.0194217 0.0047538 0.000466029 -0.000409403 -8.70021e-06
0 0.0200351 -3.30531e-17 0 0 0
-1.35525e-20 -0.0200351 -3.31475e-17 0 0 0
-4.70198e-38 0.0200397 0.000879641 0.000847368 -0.000755266 -5.62586e-06
-8.47033e-22 -0.0200397 0.000879689 0.0442379 -0.0379935 -0.000769342
-2.71051e-20 -0.0196209 0.00418595 0.0508662 -0.0394395 -0.00320665
0 0.019621 0.00418598 0.00153238 -0.00134531 -2.05713e-05
0 0.0200082 0.001684 0.0022525 -0.00198747 -1.47322e-05
0 -0.0200082 0.00168399 0.0769305 -0.0657873 -0.00148354
0 -0.0200926 6.73445e-05 0.00402681 -0.00354402 -7.14845e-05
-1.35525e-20 0.0200927 6.74618e-05 1.7095e-06 -2.65364e-06 1.07609e-05
0 -0.0200965 -8.39152e-19 0 0 0
0 0.0200966 -7.09534e-19 0 0 0
0 -0.0201334 8.4998e-18 0 0 0
0 0.0201335 8.62606e-18 0 0 0
2.71051e-20 -0.0195081 0.00505258 0 0 0
-1.35525e-20 0.0195081 0.00505262 0 0 0
0 0.0200347 0.00229462 0.00256602 -0.00226876 -3.0872e-05
-2.25875e-21 -0.0200347 0.0022946 0.0825675 -0.0697104 -0.00229116
0 -0.0199605 0.00311668 0.080223 -0.0661247 -0.0030524
-2.03288e-21 0.0199605 0.00311671 0.00253589 -0.00224257 -3.5783e-05
1.35525e-20 -0.020225 6.93279e-05 0.00476432 -0.00415042 -0.000130103
0 0.0202253 6.94576e-05 1.72996e-05 -2.18795e-05 -2.99493e-06
-1.35525e-20 -0.0202304 -1.78061e-17 0 0 0
1.35525e-20 0.0202307 -1.76953e-17 0 0 0
-3.38813e-21 -0.0199314 0.00385542 0.0670665 -0.0532816 -0.00345805
4.51751e-21 0.0199314 0.00385544 0.00207198 -0.00182924 -3.12424e-05
-6.77626e-21 0.0196737 0.00514811 0 0 0
-1.35525e-20 -0.0196737 0.00514812 0 0 0
3.61401e-21 -0.0198941 0.00456695 0.0400378 -0.0308375 -0.00243968
7.52316e-38 0.0198941 0.00456697 0.00117479 -0.00104484 -1.9508e-05
0 -0.0197657 0.00520119 0 0 0
1.35525e-20 0.0197657 0.00520124 0 0 0
4.51751e-21 -0.0198219 0.00501114 0.0139437 -0.0106129 -0.000949982
0 0.0198219 0.00501119 0.000434544 -0.000401677 -7.64973e-06
-2.71051e-20 -0.0202897 0.00277314 0.0866419 -0.0726447 -0.00281907
-2.71051e-20 0.0202897 0.00277314 0.00279568 -0.00247656 -4.13292e-05
-2.71051e-20 -0.0202612 0.00349046 0.0802887 -0.0651391 -0.00342897
2.71051e-20 0.0202612 0.00349047 0.00257389 -0.0022809 -4.00049e-05
0 0.0199065 0.00528242 0 0 0
2.71051e-20 -0.0199065 0.00528242 0 0 0
-2.71051e-20 -0.0202451 0.00417935 0.0681181 -0.0533401 -0.00377486
0 0.0202451 0.00417938 0.00202645 -0.00179207 -3.63401e-05
-5.42101e-20 0.0206574 0.00171968 0.00249504 -0.00222268 -2.12587e-05
1.0842e-19 -0.0206574 0.00171968 0.0772111 -0.0666242 -0.00171248
4.51751e-21 -0.0201293 0.004986 0.0288696 -0.0221083 -0.00190018
1.50584e-21 0.0201293 0.00498603 0.00080871 -0.000726435 -9.9437e-06
0 0.0200532 0.00536706 0 0 0
-6.77626e-21 -0.0200532 0.00536708 0 0 0
2.82344e-22 -0.0206314 0.00242245 0.0848097 -0.0716864 -0.00245417
-5.64689e-22 0.0206314 0.00242249 0.00282138 -0.00250859 -3.91742e-05
0 0.0207755 0.000514881 0.000329669 -0.000325418 -1.53373e-05
-5.42101e-20 -0.0207756 0.000514862 0.0365472 -0.0322304 -0.000609401
0 -0.0205987 0.00311576 0.0854265 -0.0707509 -0.00291118
-1.12938e-21 0.0205987 0.00311576 0.00283366 -0.00251768 -4.3316e-05
-2.71051e-20 -0.0203105 0.00476265 0.047373 -0.036371 -0.00294229
-2.71051e-20 0.0203105 0.00476269 0.00132527 -0.00117488 -1.52579e-05
-6.77626e-21 -0.0201708 0.00543492 0 0 0