# U  POINT_DATA 28110
# x  y  z  U_x  U_y  U_z
0.015557 -1.35525e-20 5.70113e-08 0 0 0
-0.015557 1.35525e-20 5.70113e-08 0 0 0
-0.015557 -6.77626e-21 0.000135948 0 0 0
0.015557 0 0.000135964 0 0 0
-0.015557 6.77626e-21 0.000527058 0 0 0
0.015557 6.77626e-21 0.000527125 0 0 0
-0.015557 1.35525e-20 0.000659558 0 0 0
0.015557 -1.35525e-20 0.000659639 0 0 0
-0.0155569 0 0.000798557 0 0 0
0.015557 0 0.000798637 0 0 0
-0.0155569 6.77626e-21 0.00121614 0 0 0
0.0155569 0 0.00121623 0 0 0
-0.0155569 -6.77626e-21 0.00135476 0 0 0
0.0155569 0 0.00135485 0 0 0
-0.0156159 0 6.65977e-05 0.000863757 -0.000727852 -1.99067e-05
0.0156159 -6.77626e-21 6.66114e-05 3.18261e-06 -2.10592e-06 1.30443e-07
0.015617 -6.77626e-21 5.8671e-08 0 0 0
-0.015617 0 5.86705e-08 0 0 0
-0.0156133 0 0.000593966 0.000827105 -0.000696967 -1.9062e-05
0.0156133 -6.77626e-21 0.00059404 3.04752e-06 -2.01653e-06 1.24906e-07
0.0156101 0 0.000721026 4.18302e-05 -3.58344e-05 1.95269e-07
-0.0156101 6.77626e-21 0.000720945 0.00154326 -0.00136167 1.07055e-05
-0.0155569 -6.77626e-21 0.00150199 0 0 0
0.0155569 0 0.00150206 0 0 0
-0.0156099 -6.77626e-21 0.00127797 0.00153621 -0.00135545 1.06566e-05
0.0156099 6.77626e-21 0.00127806 4.16391e-05 -3.56707e-05 1.94377e-07
0.0156067 -6.77626e-21 0.00140498 4.18921e-05 -3.54197e-05 -1.17231e-06
-0.0156067 0 0.00140489 0.00137635 -0.00122067 2.58942e-05
-0.0156758 -6.77626e-21 6.25738e-08 0 0 0
0.0156758 6.77626e-21 6.25741e-08 0 0 0
-0.0155569 1.35525e-20 0.00193255 0 0 0
0.0155569 0 0.00193257 0 0 0
-0.0156643 -2.71051e-20 0.000653593 0.00214793 -0.00178784 9.62823e-06
0.0156643 1.35525e-20 0.000653701 4.10698e-05 -3.53593e-05 2.58686e-07
0.015557 -6.77626e-21 0.002087 0 0 0
-0.015557 6.77626e-21 0.002087 0 0 0
0.0156581 2.03288e-20 0.00132521 7.98058e-05 -6.91657e-05 -2.2944e-07
-0.0156581 0 0.00132509 0.00274919 -0.00237763 5.94462e-06
0.0156109 0 0.00197556 4.54351e-05 -3.84153e-05 -1.27146e-06
-0.0156109 0 0.00197554 0.00149274 -0.00132389 2.80838e-05
-0.01562 0 0.00210848 0 0 0
0.01562 -6.77626e-21 0.00210848 0 0 0
0.0156426 0 0.00205604 4.32925e-05 -3.99889e-05 -1.83554e-06
-0.0156426 6.77626e-21 0.00205603 0.00143751 -0.00129201 2.18341e-05
0.0156707 0 0.00197912 8.13263e-05 -7.03221e-05 -1.29584e-06
-0.0156707 -6.77626e-21 0.00197907 0.00270303 -0.00230102 -2.95153e-05
-0.0156949 0 0.00213398 0 0 0
0.0156949 0 0.00213398 0 0 0
0.015885 6.77626e-21 7.41484e-08 0 0 0
-0.015885 6.77626e-21 7.41473e-08 0 0 0
-0.01589 -4.51751e-21 0.00034758 0.00477721 -0.00405813 -6.95975e-06
0.01589 -3.76459e-22 0.000347688 4.26056e-05 -3.5488e-05 -2.16614e-07
-0.0158834 2.71051e-21 0.000956113 0.00802357 -0.00679335 3.83253e-05
0.0158834 -4.51751e-22 0.000956328 0.000219501 -0.00018053 -7.61923e-08
0.0158471 7.52918e-22 0.00154379 0.000228724 -0.000191981 1.56198e-06
-0.0158471 7.52918e-22 0.00154362 0.0073926 -0.00630403 -0.000103727
-0.0158414 1.69407e-21 0.00196386 0.0051378 -0.00427021 -3.61913e-05
0.0158414 -1.12938e-21 0.00196392 0.00015109 -0.000121268 1.40496e-06
-0.015839 0 0.00218308 0 0 0
0.015839 -1.35525e-20 0.00218308 0 0 0
-0.0159079 -4.06576e-20 0.00220656 0 0 0
0.0159079 0 0.00220656 0 0 0
-0.0160357 0 0.00166133 0.0106817 -0.00901741 -0.000128465
0.0160357 1.12938e-21 0.00166159 0.000331772 -0.000279254 2.94749e-06
-0.0161335 0 1.64555e-05 0.000194705 -0.000168021 -2.40733e-08
0.0161337 4.23516e-22 1.6266e-05 6.66949e-07 -5.58865e-07 5.3358e-09
-0.0161343 -4.23516e-22 5.30999e-08 0 0 0
0.0161345 0 5.30909e-08 0 0 0
-0.0159895 -4.06576e-20 0.00223438 0 0 0
0.0159896 0 0.00223438 0 0 0
-0.0161453 0 5.24551e-08 1.74383e-05 -1.59101e-05 -5.63243e-07
0.0161479 0 3.0392e-06 4.42246e-08 -4.24192e-08 -6.87796e-10
-0.0161363 -2.25875e-21 0.000658258 0.010312 -0.00859577 -1.98655e-05
0.0161363 0 0.00065863 0.000209508 -0.000175265 -1.86111e-06
-0.016108 0 0.00123662 0.0126849 -0.0108658 -4.31647e-05
0.0161079 -2.25875e-21 0.00123704 0.000372419 -0.000319448 5.33729e-07
-0.0162278 -2.63521e-21 0.00195621 0.0101029 -0.00892972 0.000126313
0.0162278 7.52918e-22 0.00195641 0.000314172 -0.000260078 4.38504e-06
0.0161979 6.77626e-21 0.00230534 0 0 0
-0.0161979 0 0.00230537 0 0 0
-0.0162561 6.77626e-21 0.00232518 0 0 0
0.0162561 6.77626e-21 0.00232518 0 0 0
-0.016267 0 0.00230119 0.0008832 -0.00083049 5.34874e-05
0.016267 0 0.00230117 3.6117e-05 -3.50698e-05 -9.68049e-07
-0.0162975 1.35525e-20 0.00227122 0.00190819 -0.00163084 1.49413e-05
0.0162975 -6.77626e-21 0.00227118 6.3607e-05 -5.42707e-05 -1.72648e-07
-0.0162994 1.35525e-20 0.00233991 0 0 0
0.0162994 6.77626e-21 0.00233992 0 0 0
0.0164713 -4.51751e-21 0.000318776 4.54556e-05 -4.08148e-05 -1.19416e-07
-0.0164713 9.03502e-21 0.00031848 0.00753004 -0.00653132 -5.4797e-05
0.0164838 -4.51751e-21 0.000934132 0.00044202 -0.000384783 5.66711e-06
-0.0164839 4.51751e-21 0.000933459 0.0167196 -0.0146046 -0.000143159
-0.0165151 2.71051e-20 8.91788e-08 0 0 0
0.0165151 0 8.91806e-08 0 0 0
0.0164768 -4.51751e-21 0.00151147 0.000549011 -0.00047516 4.482e-06
-0.0164769 9.03502e-21 0.00151089 0.0174123 -0.0153202 1.53183e-06
0.0166394 0 9.23357e-08 0 0 0
-0.0166394 0 9.23334e-08 0 0 0
-0.0165053 0 0.00241002 0 0 0
0.0165054 1.35525e-20 0.00241002 0 0 0
0.0167038 2.71051e-20 0.000635416 0.000282709 -0.000248512 3.50706e-06
-0.0167039 0 0.000634646 0.0144603 -0.0124905 -8.9818e-05
0.0165943 5.64689e-22 0.00217414 0.000357872 -0.000279124 2.29399e-06
-0.0165943 -1.41172e-21 0.00217395 0.0097612 -0.00826777 0.000266905
0.0167298 0 0.00122679 0.000605218 -0.00052354 -1.29279e-07
-0.0167299 0 0.00122589 0.0208266 -0.0179027 -6.96296e-05
0.0166885 0 0.00181391 0.000539965 -0.000469205 -4.81045e-06
-0.0166886 -2.71051e-20 0.00181341 0.0165806 -0.0144486 0.000132083
-0.0166608 -1.35525e-20 0.00246303 0 0 0
0.016661 0 0.00246306 0 0 0
0.0168423 -1.35525e-20 7.0937e-08 0 0 0
-0.0168423 1.35525e-20 7.09338e-08 0 0 0
0.0169749 -2.25875e-21 0.000303039 3.80406e-05 -3.34781e-05 7.74769e-07
-0.016975 2.25875e-21 0.000302648 0.00908942 -0.00783613 -2.60029e-05
-0.0168731 0 0.0022093 0.0116593 -0.0101453 0.000311328
0.0168731 1.12938e-21 0.00220951 0.000416935 -0.000353381 -3.58504e-06
0.016996 0 0.000918683 0.000607352 -0.000504965 -4.39651e-06
-0.0169961 -6.77626e-21 0.000917792 0.0227834 -0.0193465 -8.72359e-05
0.0168625 -2.03288e-20 0.00253161 0 0 0
-0.0168625 0 0.00253162 0 0 0
0.0169886 -4.51751e-21 0.00152442 0.000793299 -0.000662248 2.2136e-07
-0.0169887 -4.51751e-21 0.00152371 0.0251649 -0.021366 -4.15475e-05
0.0170875 0 2.4605e-08 0 0 0
-0.0170875 0 2.46021e-08 0 0 0
0.0169822 4.51751e-21 0.00199465 0.000615094 -0.000524872 -4.28193e-06
-0.0169822 0 0.00199427 0.0177319 -0.0152862 0.000241882
-0.0169516 -9.03502e-21 0.00241979 0.00547383 -0.00480174 0.0001526
0.0169517 9.03502e-21 0.00241989 0.000187628 -0.000164773 -4.85534e-06
-0.0169616 -1.35525e-20 0.00256534 0 0 0
0.0169617 -2.03288e-20 0.00256538 0 0 0
0.0172725 2.71051e-20 0.000609814 0.000352569 -0.000300523 7.25333e-08
-0.0172727 0 0.000608963 0.0181433 -0.0152485 1.30871e-05
0.017301 2.71051e-20 3.86873e-09 0 0 0
-0.0173011 2.71051e-20 3.86453e-09 0 0 0
0.0172756 0 0.0012186 0.000788033 -0.000670235 -1.02724e-06
-0.0172758 5.42101e-20 0.00121766 0.0268958 -0.0226556 -6.71334e-05
0.0172503 0 0.00183262 0.000771962 -0.000663418 -2.30331e-06
-0.0172504 2.71051e-20 0.00183214 0.0238278 -0.0201644 -5.29436e-05
-0.0171625 0 0.00263367 0 0 0
0.0171625 0 0.00263369 0 0 0
-0.0172627 -3.95282e-21 0.00228337 0.0147328 -0.0127081 0.000106217
0.0172628 -5.64689e-22 0.00228356 0.000517943 -0.000449306 -1.67424e-06
0.0175152 -1.35525e-20 3.90438e-09 0 0 0
-0.0175152 0 3.90115e-09 0 0 0
0.0176166 -6.77626e-21 0.000304265 4.7564e-05 -4.06878e-05 -3.51929e-08
-0.0176168 -4.51751e-21 0.000303958 0.0111895 -0.00936342 2.8737e-05
0.0176138 -1.12938e-21 0.000914505 0.000759105 -0.000648161 -9.25815e-07
-0.0176139 0 0.000913847 0.0282445 -0.0236995 -8.51058e-05
0.0175986 1.12938e-21 0.00154662 0.00103841 -0.000889605 -1.30541e-06
-0.0175987 1.12938e-21 0.0015461 0.0327172 -0.0275152 5.10533e-05
0.0174824 0 0.00274279 0 0 0
-0.0174824 -1.01644e-20 0.0027428 0 0 0
-0.0174954 -1.69407e-21 0.00274721 0 0 0
0.0174955 3.72694e-20 0.00274726 0 0 0
0.0177275 -1.35525e-20 5.30347e-09 0 0 0
-0.0177276 4.06576e-20 5.30237e-09 0 0 0
-0.0176266 -9.03502e-21 0.00211798 0.0244303 -0.0207701 3.17026e-05
0.0176266 2.25875e-21 0.00211823 0.000834003 -0.000716751 5.7735e-08
-0.0175733 4.51751e-21 0.00255362 0.0108841 -0.00926729 -0.000226164
0.0175734 -4.51751e-21 0.0025537 0.000364888 -0.000311694 5.15658e-06
0.0179395 0 5.36713e-09 0 0 0
-0.0179395 0 5.36695e-09 0 0 0
0.0179446 -2.71051e-20 0.000602236 0.000416852 -0.000357476 -8.02698e-07
-0.0179448 -2.71051e-20 0.000601852 0.021687 -0.0181335 1.28613e-05
0.0179404 2.71051e-20 0.00122938 0.000995431 -0.000854142 -1.93963e-06
-0.0179405 0 0.00122893 0.0338643 -0.0284003 7.22605e-06
-0.0179 -2.71051e-20 0.00190852 0.0306282 -0.0258304 -9.80671e-06
0.0179 -2.71051e-20 0.00190875 0.00101362 -0.000869149 -3.96104e-06
-0.0177928 0 0.00284873 0 0 0
0.0177928 2.71051e-20 0.00284875 0 0 0
-0.0179476 2.71051e-20 0.0024258 0.0198276 -0.0168523 -3.15843e-05
0.0179477 2.71051e-20 0.00242589 0.000694934 -0.000596478 -3.75787e-06
0.0181451 0 4.40341e-09 0 0 0
-0.0181451 0 4.40324e-09 0 0 0
-0.0180159 4.06576e-20 0.00292502 0 0 0
0.018016 0 0.00292506 0 0 0
0.0182715 -2.25875e-21 0.000300999 7.77241e-05 -6.68028e-05 -2.55079e-07
-0.0182716 9.03502e-21 0.000300875 0.0125003 -0.0103869 -5.93419e-06
0.0182775 -9.03502e-21 0.000913342 0.000864233 -0.000744223 -1.72468e-06
-0.0182775 -9.03502e-21 0.00091307 0.0331456 -0.0276133 -1.18813e-05
-0.0182702 -2.25875e-21 0.00156202 0.0391776 -0.0327974 5.19917e-05
0.0182702 2.25875e-21 0.00156224 0.00124083 -0.00106918 -4.63454e-06
-0.0182366 6.77626e-21 0.00214879 0.032359 -0.0272995 6.85846e-06
0.0182366 4.51751e-21 0.00214891 0.00109471 -0.000938861 -9.95355e-06
0.0181444 -6.77626e-21 0.00296949 0 0 0
-0.0181446 -6.77626e-21 0.00296953 0 0 0
-0.0181872 9.03502e-22 0.00270867 0.0133898 -0.0115544 -9.15409e-06
0.0181872 6.77626e-22 0.00270873 0.000476536 -0.000417994 -3.32203e-06
0.0183921 1.35525e-20 2.43155e-09 0 0 0
-0.0183922 1.35525e-20 2.43148e-09 0 0 0
-0.0185886 0 1.46532e-09 0 0 0
0.0185886 0 1.46539e-09 0 0 0
-0.0183446 -1.35525e-20 0.00303802 0 0 0
0.0183446 0 0.00303804 0 0 0
0.0185996 -2.71051e-20 0.000595038 0.000474507 -0.000409174 -1.62338e-06
-0.0185997 0 0.000594918 0.0247202 -0.0205479 6.49752e-07
-0.0186737 5.80823e-21 0.00129278 0.0422142 -0.0352461 -3.92799e-05
0.0186737 1.16165e-20 0.00129291 0.00127017 -0.00109518 -5.18028e-06
-0.0187703 -1.35525e-20 1.23409e-09 0 0 0
0.0187703 1.35525e-20 1.23413e-09 0 0 0
0.0185175 2.03288e-20 0.00309812 0 0 0
-0.0185175 2.03288e-20 0.00309812 0 0 0
-0.0187148 -1.35525e-20 0.00187601 0.0415969 -0.0348234 -8.17162e-05
0.0187148 9.03502e-21 0.00187608 0.00136271 -0.00117341 -7.89982e-06
-0.0186674 0 0.00253515 0.025511 -0.02153 -4.10667e-06
0.0186674 3.01167e-21 0.00253519 0.000896612 -0.000768394 -8.18723e-06
0.018823 4.51751e-21 0.000903657 0.00093573 -0.000807426 -3.84904e-06
-0.018823 -4.51751e-21 0.00090356 0.036473 -0.0303958 -3.11308e-05
0.0188705 -4.51751e-21 0.0002483 6.42097e-05 -5.53571e-05 -4.6307e-08
-0.0188706 -2.25875e-21 0.000248266 0.0115237 -0.0095456 1.04471e-05
-0.0186437 0 0.002939 0.0109125 -0.00931415 6.95829e-05
0.0186438 0 0.00293906 0.000425182 -0.000356747 -4.34196e-06
-0.0189391 0 0.00154412 0.0469389 -0.0392094 -7.80193e-05
0.0189391 0 0.00154419 0.00148702 -0.00128227 -7.11571e-06
0.0187701 -9.74088e-21 0.00318665 1.28062e-06 -1.18793e-06 -2.70489e-08
-0.0187699 1.43996e-20 0.00318654 2.81899e-05 -2.49243e-05 6.61823e-07
0.0188367 -1.35525e-20 0.00285269 0.000619996 -0.000542218 -8.59196e-06
-0.0188367 -1.35525e-20 0.00285269 0.0163195 -0.013956 0.000126136
0.0190684 0 6.42265e-10 0 0 0
-0.0190684 1.35525e-20 6.42229e-10 0 0 0
-0.018947 0 0.00220299 0.0416101 -0.0348084 -0.000178829
0.018947 2.71051e-20 0.00220303 0.00140512 -0.00121019 -9.32663e-06
-0.0189611 6.77626e-21 0.00294132 0.0144424 -0.0124699 0.000195555
0.0189611 0 0.00294137 0.000571036 -0.000511919 -1.00969e-05
-0.0192376 0 4.16948e-10 0 0 0
0.0192376 -2.71051e-20 4.16969e-10 0 0 0
0.0192505 6.77626e-21 0.000578858 0.000508466 -0.000441047 -1.70186e-06
-0.0192506 2.25875e-21 0.000578833 0.0268328 -0.0223373 -4.42971e-06
-0.0192654 -9.03502e-21 0.00120337 0.0448847 -0.0375096 -0.000112497
0.0192654 0 0.0012034 0.00129163 -0.00111765 -5.20013e-06
-0.0192728 6.77626e-21 0.00186871 0.0474183 -0.0396685 -0.000227492
0.0192728 4.51751e-21 0.00186874 0.00154705 -0.00133623 -8.35803e-06
-0.0190865 2.71051e-20 0.00329541 0 0 0
0.0190867 2.71051e-20 0.00329547 0 0 0
-0.0193938 0 3.58644e-10 0 0 0
0.0193938 -2.71051e-20 3.58662e-10 0 0 0
0.0193936 -1.35525e-20 0.000130553 3.35592e-06 -2.93869e-06 -8.062e-08
-0.0193936 -4.06576e-20 0.000130545 0.00655337 -0.0054248 4.05789e-05
-0.0191339 0 0.00323263 0.00430748 -0.00362373 2.47192e-05
0.019134 0 0.00323272 0.000157829 -0.000136605 -2.44771e-06
-0.0192591 4.51751e-21 0.00254519 0.0334213 -0.0281153 -0.000110035
0.0192591 0 0.00254522 0.00118017 -0.00101936 -1.02248e-05
-0.0192048 0 0.003336 0 0 0
0.0192049 1.35525e-20 0.00333604 0 0 0
-0.0193217 2.93638e-21 0.00298746 0.0189219 -0.0161205 5.19193e-05
0.0193218 -1.58113e-21 0.0029875 0.000710531 -0.000616418 -9.2326e-06
0.0195688 0 0.000280898 7.02198e-06 -6.11167e-06 -2.37587e-08
-0.0195688 -2.71051e-20 0.00028089 0.0138278 -0.0114426 7.30228e-05
0.0195891 -2.71051e-20 0.000871761 0.0010529 -0.000917505 -2.71503e-06
-0.0195891 2.71051e-20 0.000871755 0.0419889 -0.0350833 -6.45779e-05
-0.019374 1.35525e-20 0.0032822 0.00660724 -0.00562967 -1.33834e-05
0.019374 -1.35525e-20 0.00328227 0.000242637 -0.000213922 -3.84984e-06
-0.0196057 0 0.00151348 0.0522492 -0.0437944 -0.000271528
0.0196057 2.71051e-20 0.0015135 0.00163871 -0.00141855 -6.71574e-06
-0.0193742 -2.71051e-20 0.00339404 0 0 0
0.0193743 0 0.00339406 0 0 0
-0.0196063 -5.42101e-20 0.0021914 0.0494688 -0.0413651 -0.000375886
0.0196063 0 0.00219141 0.00167315 -0.00144789 -1.03588e-05
0.0197445 0 1.1881e-10 0 0 0
-0.0197445 0 1.1881e-10 0 0 0
0.0197496 -1.35525e-20 0.000118775 3.05315e-06 -2.67356e-06 -7.33464e-08
-0.0197497 0 0.000118767 0.00596211 -0.00493537 3.69178e-05
-0.0196349 -5.42101e-20 0.00277709 0.0320762 -0.0271333 -7.10734e-05
0.019635 -2.71051e-20 0.00277712 0.00118949 -0.00103198 -1.30386e-05
-0.0195953 0 0.00324376 0.0130086 -0.0112041 1.99502e-05
0.0195954 0 0.0032438 0.000478252 -0.000423104 -8.52665e-06
-0.0198869 1.35525e-20 6.23641e-11 0 0 0
0.0198869 1.35525e-20 6.23597e-11 0 0 0
0.0199025 2.25875e-21 0.000551642 0.000514116 -0.000444134 -1.63866e-06
-0.0199025 9.03502e-21 0.00055164 0.0277952 -0.0231988 2.76035e-05
-0.0196372 -2.71051e-20 0.00348423 0 0 0
0.0196374 0 0.0034843 0 0 0
-0.0199263 5.64689e-21 0.00116493 0.0482937 -0.0405129 -0.000221697
0.0199263 0 0.00116493 0.00136911 -0.00118345 -4.90123e-06
-0.0197065 1.35525e-20 0.0033997 0.00640184 -0.00545466 -1.29673e-05
0.0197066 1.35525e-20 0.00339978 0.000235168 -0.000207338 -3.73133e-06
-0.0200175 -1.35525e-20 0.000104927 0.00544456 -0.00451869 0.000153825
0.0200175 -1.35525e-20 0.000104918 2.98577e-06 -2.52402e-06 4.3081e-07
-0.020018 0 5.47768e-11 0 0 0
0.0200181 0 5.47745e-11 0 0 0
-0.0199354 -2.25875e-21 0.00184109 0.0535717 -0.0449734 -0.000424716
0.0199355 -2.25875e-21 0.0018411 0.00174622 -0.00151242 -8.2456e-06
-0.0199397 -2.25875e-21 0.00250609 0.0442057 -0.0370981 -0.000384114
0.0199397 -1.12938e-21 0.0025061 0.00154804 -0.00134223 -1.11562e-05
-0.0198048 -1.35525e-20 0.00354162 0 0 0
0.0198049 2.71051e-20 0.00354168 0 0 0
-0.0199176 1.12938e-21 0.00307583 0.0247927 -0.0209527 -0.000211338
0.0199177 2.25875e-21 0.00307587 0.000916107 -0.000798942 -8.75297e-06
-0.0202108 2.71051e-20 0.000262551 0.0133883 -0.0111037 0.000224162
0.0202108 0 0.000262544 7.27161e-06 -6.13385e-06 1.01161e-06
-0.0202372 -2.71051e-20 0.000828952 0.0433215 -0.0363139 -0.000104239
0.0202372 0 0.00082895 0.00103853 -0.000889594 -4.95578e-06
-0.0199793 1.35525e-20 0.00344741 0.00872534 -0.00742931 -0.00013301
0.0199793 -1.35525e-20 0.00344747 0.000341574 -0.000305161 -4.48249e-06
-0.0199876 -6.77626e-21 0.00360417 0 0 0
0.0199877 1.35525e-20 0.00360422 0 0 0
-0.0202612 2.71051e-20 0.00146953 0.0561143 -0.0472914 -0.000451266
0.0202612 0 0.00146953 0.00176579 -0.0015257 -5.2553e-06
-0.0202614 2.71051e-20 0.00216708 0.0567591 -0.047711 -0.000599638
0.0202614 -2.71051e-20 0.0021671 0.00191514 -0.00166488 -1.07231e-05
-0.020424 0 1.48382e-11 0 0 0
0.0204241 0 1.48336e-11 0 0 0
-0.0204263 1.35525e-20 8.83618e-05 0.00458502 -0.00380532 0.00012954
0.0204264 -1.35525e-20 8.83583e-05 2.51451e-06 -2.12564e-06 3.62813e-07
-0.0201258 -2.71051e-20 0.00365147 0 0 0
0.020126 2.03288e-20 0.00365154 0 0 0
-0.0202574 0 0.00283409 0.0405111 -0.0338439 -0.000523846
0.0202575 -2.71051e-20 0.00283411 0.00147435 -0.00127673 -1.0645e-05
-0.02023 -1.35525e-20 0.00346726 0.012319 -0.0104973 -0.000196998
0.0202301 -8.13152e-21 0.00346732 0.000477343 -0.000424567 -4.77919e-06
-0.0205366 0 8.07587e-12 0 0 0
0.0205367 -1.35525e-20 8.0725e-12 0 0 0
-0.0205431 1.12938e-21 0.000507235 0.0271087 -0.0226842 1.22701e-05
0.0205431 0 0.000507233 0.000476711 -0.000412836 -1.64691e-07
-0.0205806 0 0.00109806 0.0496771 -0.041887 -0.00027364
0.0205806 -1.12938e-21 0.00109806 0.0013798 -0.0011895 -1.94272e-06
-0.0206332 0 7.2332e-05 0.00417644 -0.00345131 0.000178227
0.0206332 0 7.23425e-05 2.5866e-06 -1.21087e-06 1.06476e-06
-0.0206362 0 7.47893e-12 0 0 0
0.0206362 1.35525e-20 7.47568e-12 0 0 0
-0.0203258 -1.35525e-20 0.00371988 0 0 0
0.020326 2.71051e-20 0.00371994 0 0 0
-0.0205919 -1.12938e-21 0.00179229 0.0586181 -0.0494348 -0.00063272
0.0205919 -4.51751e-21 0.00179229 0.00190673 -0.00164749 -8.71758e-06
-0.0205776 1.12938e-21 0.00251302 0.0518587 -0.04336 -0.000836376
0.0205777 0 0.00251303 0.00181946 -0.00157493 -1.44626e-05
-0.0204396 1.35525e-20 0.00376155 0 0 0
0.0204398 0 0.00376163 0 0 0
-0.0204726 -1.35525e-20 0.00364922 0.00732193 -0.00593765 -0.000161008
0.0204728 4.06576e-20 0.00364928 0.000306993 -0.000246459 -2.09005e-06
-0.0205732 -3.76459e-22 0.00324396 0.0274589 -0.0228347 -0.000531132
0.0205733 -2.25875e-21 0.003244 0.00105318 -0.000909526 -1.0642e-05
-0.0208433 -5.42101e-20 0.000231572 0.0126018 -0.0104228 8.55181e-05
0.0208434 0 0.000231569 7.8926e-06 -4.87052e-06 1.87444e-06
-0.0208763 2.71051e-20 0.000747796 0.0408835 -0.0343946 -0.000125179
0.0208763 0 0.000747794 0.000915135 -0.00080413 1.41466e-06
-0.0209307 -2.71051e-20 0.00137566 0.0585439 -0.0496898 -0.000404075
0.0209307 0 0.00137566 0.00180847 -0.0015488 1.6824e-07
-0.0206256 0 0.00382199 0 0 0
0.0206258 6.77626e-21 0.00382207 0 0 0
-0.0209018 -2.71051e-20 0.00213753 0.0631186 -0.0531251 -0.00106141
0.0209018 2.71051e-20 0.00213753 0.00213406 -0.00184728 -1.83464e-05
-0.0207137 0 0.00385276 0 0 0
0.0207138 0 0.00385283 0 0 0
-0.0208885 0 0.00285883 0.048506 -0.0400053 -0.00118659
0.0208886 2.71051e-20 0.00285885 0.00179691 -0.00154791 -1.86417e-05
-0.0207601 -1.35525e-20 0.00376298 0.0055023 -0.00473082 1.17994e-05
0.0207602 0 0.00376308 0.000253425 -0.000234236 -7.25774e-06
0.0211429 3.01167e-21 0.0004345 0.000331893 -0.000283284 -7.14206e-08
-0.0211429 3.01167e-21 0.000434502 0.0242782 -0.0205349 -0.000342975
-0.020841 -2.25875e-21 0.00362679 0.0146234 -0.0123409 -9.67417e-05
0.0208411 2.25875e-21 0.00362684 0.00064974 -0.000584333 -1.5631e-05
-0.0208387 -6.77626e-21 0.00389825 0 0 0
0.0208388 1.35525e-20 0.0038983 0 0 0
-0.0212597 0 5.25669e-13 0 0 0
0.0212601 -4.65868e-21 5.198e-13 0 0 0
-0.0212767 2.5411e-21 1.41099e-05 0.000781335 -0.000662096 -1.50241e-05
-0.0212768 0 1.74179e-06 4.86777e-05 -4.015e-05 -5.44555e-06
0.0212769 -4.65868e-21 1.38726e-05 1.06743e-05 -9.01512e-06 2.73506e-08
0.0212813 -4.23516e-22 1.45874e-06 2.52461e-08 -2.95671e-08 -1.60671e-08
0.0212895 0 2.69474e-13 0 0 0
-0.0212896 0 2.7104e-13 0 0 0
-0.0212723 7.52918e-22 0.000878984 0.0425313 -0.0363344 -0.000395826
0.0212724 -1.50584e-21 0.000878975 0.00106641 -0.000906595 -2.80348e-06
-0.0212427 -4.51751e-22 0.00171816 0.0621284 -0.0526142 -0.000931018
0.0212427 3.38813e-22 0.00171814 0.0020015 -0.00172005 -1.41553e-05
-0.0212146 1.12938e-21 0.00249693 0.0593066 -0.0494508 -0.00149096
0.0212146 -3.38813e-21 0.00249694 0.0020894 -0.00179845 -1.67746e-05
-0.0210353 0 0.00398139 0 0 0
0.0210355 0 0.00398146 0 0 0
-0.021178 0 0.00323686 0.0367571 -0.0301348 -0.00114977
0.0211781 0 0.00323687 0.00142171 -0.00122069 -1.4166e-05
-0.0210737 0 0.00393726 0.0035835 -0.00290666 -5.48043e-05
0.0210738 0 0.00393731 0.00014017 -0.000119643 -2.32245e-06
-0.0211186 1.35525e-20 0.00402021 0 0 0
0.0211188 0 0.0040203 0 0 0
-0.0212476 8.87368e-22 0.00368161 0.0209383 -0.0170799 -0.000669961
0.0212478 -4.03349e-22 0.00368166 0.000851596 -0.000730206 -1.07927e-05
-0.0215747 -2.71051e-20 0.00130736 0.0598327 -0.0510594 -0.000529837
0.0215747 0 0.00130737 0.00185914 -0.00159335 -2.49209e-05
-0.0212486 0 0.00397488 0.00603097 -0.00488836 -0.000206358
0.0212488 0 0.00397493 0.000241956 -0.000207563 -2.827e-06
-0.0212527 1.35525e-20 0.00408538 0 0 0
0.021253 -6.77626e-21 0.00408549 0 0 0
-0.0216407 -7.52918e-22 0.00033173 0.0208569 -0.0183551 -0.000706907
0.0216408 0 0.000331723 5.03601e-05 -4.67425e-05 1.71306e-05
-0.0215441 -2.71051e-20 0.00209926 0.0697851 -0.0588835 -0.00179111
0.0215442 2.71051e-20 0.00209926 0.00233433 -0.00200407 -1.54528e-05
-0.0215225 0 0.00284518 0.0566489 -0.0465316 -0.0019355
0.0215225 0 0.0028452 0.00211138 -0.00181105 -1.47443e-05
-0.0217961 0 7.94919e-14 0 0 0
0.0217961 1.35525e-20 7.91737e-14 0 0 0
-0.0215506 0 0.00347094 0.0354359 -0.0286452 -0.00146119
0.0215507 0 0.00347097 0.00142 -0.00121664 -1.25748e-05
-0.0214959 0 0.00395189 0.0144035 -0.0117783 -0.00051648
0.0214961 1.35525e-20 0.00395193 0.000572215 -0.000492335 -8.15703e-06
-0.0214983 6.77626e-21 0.00420475 0 0 0
0.0214984 6.77626e-21 0.00420479 0 0 0
-0.0218606 0 0.00170493 0.0663624 -0.0562498 -0.00138348
0.0218606 6.11746e-22 0.0017049 0.00216064 -0.00184533 -1.77253e-05
-0.0219212 -2.03288e-21 0.000827127 0.0416722 -0.036315 -0.000777524
0.0219212 -2.25875e-22 0.00082711 0.00102394 -0.000854132 -6.60504e-06
-0.0219609 1.35525e-20 4.02034e-14 0 0 0
0.021961 -1.35525e-20 4.01314e-14 0 0 0
-0.0218494 -1.12938e-21 0.00247003 0.0661079 -0.0552784 -0.00210771
0.0218494 0 0.00247004 0.00234283 -0.00200634 -1.41859e-05
-0.0216145 0 0.00413981 0.00674724 -0.00546893 -0.000230866
0.0216145 1.35525e-20 0.00413983 0.000270674 -0.000232199 -3.16254e-06
-0.0216502 1.35525e-20 0.00427857 0 0 0
0.0216503 0 0.00427863 0 0 0
-0.0218421 1.12938e-21 0.00317495 0.049853 -0.0406472 -0.00206708
0.0218422 -2.25875e-21 0.00317496 0.00190713 -0.00163381 -1.02423e-05
-0.0217324 0 0.00431835 0 0 0
0.0217325 0 0.00431843 0 0 0
-0.0217583 0 0.00423555 0.00550655 -0.00429985 -0.000350589
0.0217584 1.35525e-20 0.0042356 0.000223117 -0.000178035 -6.12202e-07
-0.0221733 0 2.81576e-14 0 0 0
0.0221735 -6.77626e-21 2.80965e-14 0 0 0
0.021866 0 0.00385231 0.00101204 -0.000868801 -5.00337e-06
-0.021866 -7.05861e-23 0.00385234 0.0255568 -0.0205126 -0.00127959
-0.0222021 -2.71051e-20 0.00129532 0.0622964 -0.0528509 -0.0011019
0.0222022 0 0.00129532 0.00192821 -0.00162994 -2.00743e-05
0.0222508 -7.05861e-23 0.00033038 1.24183e-05 1.75884e-05 1.20912e-06
-0.0222515 3.5293e-23 0.000329552 0.0205319 -0.0194802 -0.000847363
-0.0221694 2.71051e-20 0.00208071 0.0745726 -0.0632046 -0.00212756
0.0221694 -2.71051e-20 0.00208072 0.00252665 -0.00215479 -1.16413e-05
-0.0218631 -1.35525e-20 0.00438174 0 0 0
0.0218633 1.35525e-20 0.00438183 0 0 0
0.0223211 0 1.21342e-14 0 0 0
-0.0223212 6.77626e-21 1.21355e-14 0 0 0
-0.0221597 -2.71051e-20 0.00282094 0.0638051 -0.0528471 -0.00257405
0.0221598 -2.71051e-20 0.00282094 0.00240518 -0.00206044 -1.49115e-05
-0.0221457 0 0.00350913 0.0457696 -0.0364707 -0.00240352
0.0221457 -5.42101e-20 0.00350915 0.00177179 -0.00151494 7.51562e-07
-0.0220148 -6.77626e-21 0.00445531 0 0 0
0.0220149 6.77626e-21 0.00445537 0 0 0
-0.0225415 0 1.22276e-15 0 0 0
0.0225416 0 1.23378e-15 0 0 0
-0.0221394 1.12938e-21 0.00425961 0.0125054 -0.0102913 -0.000483792
0.0221395 1.12938e-21 0.00425967 0.000550615 -0.000504457 -7.61583e-06
-0.0224964 1.77877e-20 0.00168456 0.0691403 -0.0587362 -0.00166481
0.0224964 -4.23516e-22 0.0016846 0.00230059 -0.0019493 -1.22685e-05
-0.0225021 0 0.00168479 0.0692284 -0.0588097 -0.00167256
0.0225021 0 0.00168483 0.00230437 -0.00195252 -1.20982e-05
0.0225129 0 0.00168799 0.00230705 -0.00195482 -1.19566e-05
-0.022513 0 0.00168798 0.0692562 -0.0588414 -0.00167233
-0.022576 2.71051e-21 0.000874276 0.0438124 -0.038172 -0.00106952
0.0225761 4.51751e-21 0.000874269 0.00112554 -0.000939568 -1.36903e-05
-0.0225135 -7.26028e-22 0.00242345 0.0699814 -0.0587141 -0.00240409
0.0225136 6.45358e-22 0.00242345 0.00252886 -0.00215924 -1.31418e-05
-0.0224593 -2.25875e-21 0.00318123 0.0583809 -0.0475655 -0.00274236
0.0224593 0 0.00318124 0.00222248 -0.00190243 -1.2389e-05
-0.0223019 -3.38813e-21 0.00459436 0 0 0
0.022302 -3.38813e-21 0.00459437 0 0 0
-0.0224349 -9.03502e-22 0.00390505 0.0343544 -0.0271277 -0.00208407
0.022435 9.48677e-21 0.00390508 0.00132792 -0.00114756 -4.10201e-06
-0.0228059 -1.27055e-20 8.70912e-16 0 0 0
0.0228061 4.23516e-22 8.77264e-16 0 0 0
-0.022811 2.96462e-21 2.46648e-05 0.00153657 -0.00141714 -5.85033e-05
0.0228111 0 2.39222e-05 8.36504e-07 -1.50022e-09 7.11146e-07
-0.0223412 3.38813e-21 0.00461337 0 0 0
0.0223413 3.38813e-21 0.00461342 0 0 0
0.0228141 4.23516e-22 8.58194e-16 0 0 0
-0.0228142 2.5411e-20 8.51405e-16 0 0 0
-0.0228118 -1.12938e-21 0.000334117 0.0209198 -0.0190684 -0.000738114
0.0228118 -1.12938e-21 0.000334137 0.000127529 -0.000101419 5.25741e-06
-0.022347 0 0.00460685 0.000575465 -0.000454718 -3.83947e-05
0.0223471 0 0.00460689 2.09927e-05 -1.81793e-05 -4.36645e-07
-0.0223545 0 0.00461977 0 0 0
0.0223546 0 0.00461984 0 0 0
-0.0223623 1.01644e-20 0.00458505 0.00205882 -0.00160893 -0.00014286
0.0223624 1.69407e-21 0.00458505 7.88836e-05 -6.92522e-05 -2.8474e-07
-0.0223809 0 0.0046121 0.00141075 -0.00108846 -0.000128039
0.022381 0 0.00461216 4.38867e-05 -3.88623e-05 5.20997e-07
-0.0223957 0 0.00463972 0 0 0
0.0223958 0 0.00463983 0 0 0
-0.0225314 0 0.00433167 0.0198539 -0.0154227 -0.00132082
0.0225315 0 0.00433171 0.000787093 -0.000705126 -5.87201e-06
-0.0227767 -2.71051e-20 0.00282452 0.0694569 -0.057695 -0.00288109
0.0227767 0 0.00282454 0.00262995 -0.00225234 -2.08184e-05
-0.0229169 2.71051e-20 0.00145351 0.0666631 -0.0569746 -0.00159039
0.022917 0 0.00145354 0.00229428 -0.00193356 -9.59113e-06
-0.0229127 2.71051e-20 0.001952 0.0749806 -0.0639432 -0.00201911
0.0229127 0 0.001952 0.00265182 -0.00224916 -4.92639e-06
-0.0227583 -2.71051e-20 0.00352775 0.0554478 -0.0441326 -0.00312346
0.0227583 -2.71051e-20 0.00352777 0.00211682 -0.00181148 -1.51943e-05
-0.0226788 -1.35525e-20 0.00436549 0.0223493 -0.0172255 -0.00163588
0.0226789 -1.35525e-20 0.00436553 0.000844178 -0.000754759 -9.71071e-07
-0.0231146 0 6.24631e-16 0 0 0
0.0231146 0 6.26477e-16 0 0 0
-0.0231263 -5.64689e-22 0.000857356 0.0413145 -0.0358996 -0.00104697
0.0231264 1.12938e-21 0.000857382 0.00104446 -0.000882983 -9.64856e-06
-0.0231204 0 0.00168686 0.0710793 -0.0608208 -0.00175202
0.0231204 0 0.00168687 0.00249169 -0.00211442 -4.82324e-06
-0.0226912 0 0.00478277 0 0 0
0.0226912 1.35525e-20 0.00478283 0 0 0
-0.0231332 -9.88205e-22 0.00244156 0.073861 -0.0621553 -0.00264298
0.0231332 -8.47033e-22 0.00244157 0.00275344 -0.00234749 -1.32438e-05
-0.0227888 0 0.00466799 0.0111662 -0.00861533 -0.00101345
0.0227889 -1.35525e-20 0.00466803 0.000346757 -0.000307058 4.11649e-06
-0.0230834 1.12938e-21 0.00317456 0.0658833 -0.0538222 -0.00324061
0.0230835 1.12938e-21 0.00317458 0.00251385 -0.0021486 -1.74291e-05
-0.023319 0 3.10971e-16 0 0 0
0.0233191 6.77626e-21 3.12101e-16 0 0 0
-0.0230283 1.35525e-20 0.00391292 0.0463152 -0.0363537 -0.00297686
0.0230284 0 0.00391294 0.0017396 -0.00148881 -8.47307e-06
-0.02333 -2.71051e-20 0.00142276 0.0675552 -0.0582335 -0.00152367
0.02333 0 0.00142278 0.00232259 -0.00198272 -2.12596e-07
-0.0233168 0 0.00194192 0.0756467 -0.0647792 -0.00195966
0.0233168 0 0.00194194 0.00277787 -0.00236389 -6.24684e-06
-0.0228965 1.35525e-20 0.0048822 0 0 0
0.0228966 0 0.00488226 0 0 0
-0.0234102 0 0.000267243 0.014986 -0.0134232 -0.000305233
0.0234102 2.25875e-21 0.000267244 2.49109e-05 -1.50046e-05 -3.68585e-07
-0.0229986 3.01167e-21 0.0043906 0.0296486 -0.0226491 -0.00224734
0.0229987 -2.25875e-21 0.00439064 0.00106505 -0.00091626 -2.44404e-06
0.0235162 1.35525e-20 1.75957e-16 0 0 0
-0.0235162 6.77626e-21 1.74953e-16 0 0 0
-0.0234234 0 0.00278585 0.0752403 -0.0628061 -0.00324013
0.0234234 2.71051e-20 0.00278586 0.00288318 -0.00245884 -1.66469e-05
-0.0230651 0 0.00496382 0 0 0
0.0230652 -2.71051e-20 0.00496388 0 0 0
-0.0233787 0 0.00352562 0.0639489 -0.0511864 -0.0037155
0.0233787 0 0.00352564 0.00244443 -0.00208816 -1.72991e-05
-0.0237161 1.35525e-20 -1.12818e-16 0 0 0
0.0237161 1.35525e-20 -1.126e-16 0 0 0
-0.0232668 -1.807e-21 0.00471662 0.0212108 -0.0154817 -0.00201249
0.0232669 -1.35525e-21 0.00471667 0.000720019 -0.000623169 -5.8483e-06
-0.0233857 0 0.00417634 0.0473151 -0.0363417 -0.00341885
0.0233857 0 0.00417637 0.00170408 -0.00144837 -1.06275e-05
-0.0232203 6.77626e-21 0.00503892 0 0 0
0.0232204 -1.35525e-20 0.00503899 0 0 0
-0.0237642 1.97641e-21 0.000871715 0.0414605 -0.0361695 -0.000857894
0.0237642 2.82344e-22 0.000871732 0.00116179 -0.00100353 -5.44465e-06
-0.0237897 0 9.69712e-05 0.00545025 -0.00459417 -6.82586e-06
0.0237897 -1.35525e-20 9.70283e-05 8.35553e-06 -5.25739e-06 -1.39998e-06
-0.0237941 1.35525e-20 4.97247e-16 0 0 0
0.0237942 -1.35525e-20 5.01214e-16 0 0 0
-0.0237454 -4.23516e-22 0.00168598 0.0714814 -0.061689 -0.00171272
0.0237454 -9.88205e-22 0.00168599 0.00264901 -0.00226594 -4.86337e-06
-0.0238504 1.35525e-20 -3.63004e-16 0 0 0
0.0238505 0 -3.63597e-16 0 0 0
-0.0237771 9.03502e-22 0.00232532 0.0753873 -0.0638436 -0.00267072