# UMean  POINT_DATA 14647
# x  y  z  UMean_x  UMean_y  UMean_z
4.23516e-22 -0.0130568 4.20108e-06 2.22079e-05 -1.92124e-05 -3.10078e-08
0 0.0130568 4.20422e-06 3.43527e-08 -2.87747e-08 1.81052e-10
0 0.0130538 6.6649e-06 0 0 0
-4.23516e-22 -0.0130538 6.66028e-06 0 0 0
1.69407e-21 -0.0130538 0.000644839 0 0 0
0 0.0130538 0.000645282 0 0 0
0 -0.0130538 0.000659278 0 0 0
-8.47033e-22 0.0130538 0.000659736 0 0 0
0 -0.0130538 0.000674531 0 0 0
-8.47033e-22 0.0130538 0.000674994 0 0 0
0 -0.0130603 0.000649722 0.000115596 -0.000100004 -1.61401e-07
8.47033e-22 0.0130603 0.000650171 1.78866e-07 -1.49823e-07 9.42697e-10
0 -0.0130603 0.000668856 0.000217571 -0.000185704 7.39462e-07
0 0.0130603 0.000669319 2.64703e-06 -2.13773e-06 -1.79303e-09
-5.92923e-21 -0.0130709 0.000658157 0.000427716 -0.000355667 1.63784e-06
1.60936e-20 0.0130709 0.000658618 3.49354e-06 -2.98154e-06 2.67125e-08
0 -0.0130538 0.00133809 0 0 0
1.69407e-21 0.0130538 0.00133857 0 0 0
0 -0.0130538 0.00135468 0 0 0
0 0.0130538 0.00135516 0 0 0
0 -0.0130538 0.00137216 0 0 0
0 0.0130538 0.00137263 0 0 0
-1.69407e-21 -0.0130609 0.00134164 0.000237078 -0.000202353 8.05759e-07
1.69407e-21 0.0130609 0.00134212 2.88396e-06 -2.32907e-06 -1.95352e-09
-1.69407e-21 -0.0130605 0.00136331 0.000213667 -0.000182041 -4.30566e-06
0 0.0130605 0.00136378 2.86458e-06 -2.37942e-06 4.93178e-08
5.0822e-21 -0.0130744 0.00134748 0.000697947 -0.000604376 1.36754e-06
1.69407e-21 0.0130744 0.00134796 8.69659e-06 -7.47359e-06 -1.40416e-08
0 -0.0130556 0.00208219 5.84534e-05 -4.93233e-05 -7.97759e-07
0 0.0130577 0.00208858 7.43563e-07 -6.23842e-07 -2.18232e-09
-3.38813e-21 -0.0130676 0.00208095 0.00029785 -0.000265881 3.14612e-06
3.81165e-21 0.0130676 0.00208095 3.66206e-06 -3.35486e-06 -1.24821e-07
-6.77626e-21 -0.0133442 8.05862e-08 0 0 0
0 0.0133442 8.05859e-08 0 0 0
-1.12938e-21 -0.0133452 0.000326479 0.00475843 -0.00402615 -8.41283e-05
-3.38813e-21 0.0133452 0.000326736 1.19086e-05 -9.04591e-06 3.0887e-07
-2.25875e-21 -0.0133372 0.000959829 0.00933941 -0.00822548 5.37675e-05
-7.90564e-21 0.0133372 0.000960365 0.0001047 -9.017e-05 1.0433e-06
0 -0.0132973 0.00155417 0.0081571 -0.00713579 4.27568e-05
0 0.0132973 0.00155454 0.000104262 -8.82471e-05 -1.91904e-06
3.04932e-20 0.0132406 0.00216284 0 0 0
0 -0.0132406 0.00216285 0 0 0
0 -0.0132805 0.00206428 0.00292682 -0.00261268 3.09153e-05
-3.38813e-21 0.0132805 0.00206425 3.60064e-05 -3.29858e-05 -1.22727e-06
-2.71051e-20 0.0133174 0.00219404 0 0 0
0 -0.0133175 0.00219406 0 0 0
2.25875e-21 -0.0133831 0.00186918 0.00776699 -0.00685745 5.37876e-05
0 0.0133831 0.00186936 9.73592e-05 -8.66137e-05 -2.718e-06
1.35525e-20 -0.0135632 9.24961e-08 0 0 0
-2.71051e-20 0.0135632 9.24953e-08 0 0 0
2.25875e-21 -0.0134965 0.00146605 0.0126515 -0.0113705 5.39313e-05
6.77626e-21 0.0134965 0.00146649 0.000164816 -0.000143376 -3.5708e-06
0 -0.0136117 8.70388e-05 0.0020508 -0.00179826 -1.88209e-05
6.77626e-21 0.0136117 8.71003e-05 6.78177e-07 -8.15075e-07 2.32032e-07
6.77626e-21 -0.0136152 8.46271e-08 0 0 0
0 0.0136152 8.46271e-08 0 0 0
1.35525e-20 -0.0136416 8.0639e-08 0 0 0
0 0.0136416 8.06395e-08 0 0 0
6.77626e-22 -0.0136355 0.000678728 0.0126055 -0.0106962 0.000117016
6.77626e-22 0.0136355 0.000679269 0.000111582 -9.50448e-05 6.21712e-07
-1.35525e-20 0.0134811 0.00226049 0 0 0
0 -0.0134812 0.00226053 0 0 0
1.69407e-21 -0.0136197 0.00118987 0.0156093 -0.0134822 6.04421e-05
1.50584e-21 0.0136197 0.00119045 0.000193071 -0.000164066 -4.67174e-07
-3.01167e-21 -0.0136061 0.00162976 0.0140714 -0.0121405 -7.84883e-05
-4.51751e-21 0.0136061 0.00163011 0.00018622 -0.000158314 -2.53836e-06
1.35525e-20 0.0137235 7.39497e-08 0 0 0
1.35525e-20 -0.0137235 7.39483e-08 0 0 0
6.77626e-21 0.0137252 9.16823e-05 8.96472e-07 -7.48256e-07 4.35652e-08
-6.77626e-21 -0.0137253 9.16246e-05 0.00287703 -0.00240929 3.70235e-05
-1.12938e-22 -0.0137103 0.00202484 0.0111197 -0.00963839 7.56892e-05
-3.38813e-22 0.0137102 0.00202496 0.000150543 -0.000124918 -1.55736e-06
-6.77626e-21 0.0136752 0.0023393 0 0 0
6.77626e-21 -0.0136753 0.00233933 0 0 0
-6.77626e-21 0.0137679 0.00237692 0 0 0
1.35525e-20 -0.013768 0.00237696 0 0 0
-1.35525e-20 -0.0139849 0.000399002 0.0111615 -0.0092455 8.76056e-05
0 0.0139849 0.000399313 4.00067e-05 -3.33614e-05 -1.70663e-07
-9.03502e-21 -0.013986 0.000912946 0.0199446 -0.0169645 0.000110951
-9.03502e-21 0.013986 0.000913447 0.000217908 -0.00018191 -1.52573e-06
-9.03502e-21 -0.0139545 0.00150378 0.0209312 -0.0179374 -1.75742e-05
4.51751e-21 0.0139546 0.00150416 0.000277229 -0.000231506 -3.93925e-07
1.35525e-20 -0.0140935 0.000126371 0.00397076 -0.00332521 5.10983e-05
-1.35525e-20 0.0140935 0.000126457 1.23734e-06 -1.03276e-06 6.013e-08
0 -0.0141015 1.51513e-08 0 0 0
0 0.0141015 1.51514e-08 0 0 0
8.47033e-22 -0.0139607 0.00245511 0 0 0
0 0.0139609 0.00245518 0 0 0
-2.71051e-20 -0.0141702 0.000612039 0.0166967 -0.0138907 0.000111763
-2.71051e-20 0.0141702 0.000612472 0.00013344 -0.000112238 -3.20932e-07
2.71051e-20 0.0139759 0.00246127 0 0 0
7.6233e-21 -0.013976 0.00246129 0 0 0
9.31736e-21 0.0139805 0.00244911 8.72041e-06 -7.89986e-06 -3.81287e-08
-2.5411e-21 -0.0139806 0.00244893 0.000532084 -0.000459251 1.20912e-05
-2.71051e-20 -0.0141582 0.00121268 0.023539 -0.0199138 4.28872e-05
0 0.0141582 0.00121315 0.000291648 -0.000244698 -8.24876e-07
1.35525e-20 -0.0142137 6.98307e-09 0 0 0
0 0.0142137 6.98407e-09 0 0 0
0 -0.0141062 0.00185461 0.0187148 -0.0157768 -2.64452e-05
0 0.0141062 0.00185482 0.000258616 -0.000216065 -8.7982e-07
0 0.0140936 0.00222224 0.000165036 -0.000146112 -7.42118e-07
-2.25875e-21 -0.0140936 0.00222217 0.0102578 -0.00876676 0.00016959
-1.35525e-20 0.0143442 6.46477e-09 0 0 0
0 -0.0143442 6.46386e-09 0 0 0
1.35525e-20 0.0141438 0.00239267 8.52318e-05 -7.72118e-05 -3.72663e-07
-6.77626e-21 -0.0141439 0.00239256 0.00511994 -0.00441911 0.000116347
0 0.014345 0.000135164 1.35995e-06 -1.10156e-06 6.57744e-08
-1.35525e-20 -0.014345 0.00013509 0.00541321 -0.0044374 1.16826e-05
-1.35525e-20 0.0141782 0.00254345 0 0 0
0 -0.0141783 0.00254345 0 0 0
-2.43945e-20 0.0144148 0.000393235 3.77088e-05 -3.15548e-05 4.40121e-08
-2.71051e-21 -0.0144148 0.000392975 0.0130125 -0.010717 7.61156e-05
0 0.014293 0.00252719 4.45726e-05 -3.59155e-05 4.91163e-07
6.77626e-21 -0.0142931 0.00252719 0.00314017 -0.00244918 -5.99673e-05
-2.03288e-20 0.0142857 0.00258696 0 0 0
0 -0.0142858 0.00258699 0 0 0
6.77626e-21 -0.0145008 0.000915389 0.0263127 -0.021954 4.01521e-05
4.51751e-21 0.0145008 0.000915765 0.000290323 -0.000244564 -1.21534e-06
1.69407e-21 0.0143708 0.00229756 0.000199075 -0.000163827 2.09291e-07
-3.38813e-21 -0.0143708 0.00229749 0.0133249 -0.0109817 -4.82808e-06
2.25875e-21 -0.0144715 0.00154752 0.029159 -0.0244141 -3.22009e-05
0 0.0144715 0.0015478 0.000392659 -0.000329374 -3.20276e-07
0 -0.0144657 0.00205596 0.0213433 -0.0178066 1.00653e-05
-4.51751e-21 0.0144657 0.00205609 0.000310996 -0.000256284 4.52885e-07
0 0.0146705 0.00015054 1.51466e-06 -1.22688e-06 7.32572e-08
1.35525e-20 -0.0146705 0.000150448 0.00602868 -0.00494192 1.30109e-05
-1.35525e-20 0.01468 6.30535e-09 0 0 0
1.35525e-20 -0.01468 6.30475e-09 0 0 0
0 -0.0144708 0.00266175 0 0 0
1.35525e-20 0.0144708 0.00266174 0 0 0
2.71051e-21 0.0145057 0.00250599 0.00012439 -9.85616e-05 7.63371e-07
-2.71051e-21 -0.0145058 0.00250596 0.0086224 -0.00678138 -0.000126586
0 0.0148233 5.71582e-09 0 0 0
0 -0.0148234 5.71538e-09 0 0 0
0 -0.0148745 0.000558342 0.0210236 -0.0174312 1.45917e-05
-4.51751e-21 0.0148745 0.000558581 0.000156149 -0.000131267 -5.63404e-07
0 -0.0147686 0.00191048 0.0284934 -0.0238457 -4.19454e-05
0 0.0147686 0.00191064 0.000407331 -0.000340318 5.74874e-07
0 0.0146404 0.00273044 0 0 0
0 -0.0146404 0.00273047 0 0 0
-1.54886e-20 -0.0148827 0.00116851 0.0336611 -0.0280859 -1.99959e-05
5.80823e-21 0.0148827 0.00116882 0.000407136 -0.000341951 -1.10149e-06
1.35525e-20 0.0149747 4.96127e-09 0 0 0
2.71051e-20 -0.0149747 4.9609e-09 0 0 0
1.35525e-20 0.0149752 0.000142336 1.498e-06 -1.15954e-06 6.5956e-08
-1.35525e-20 -0.0149752 0.000142287 0.0065995 -0.00541026 -1.1231e-05
-2.25875e-21 -0.0148161 0.00236406 0.019159 -0.0160051 -8.1231e-05
4.51751e-21 0.0148161 0.00236412 0.000281438 -0.000235426 1.06565e-06
-1.807e-20 -0.0150223 0.00156473 0.0369129 -0.0307315 -3.37836e-05
0 0.0150222 0.00156494 0.000503418 -0.000421484 -5.03729e-07
-2.71051e-20 0.0151424 0.000304981 3.16816e-06 -2.47674e-06 1.23191e-07
0 -0.0151424 0.000304874 0.013691 -0.0112134 -1.03891e-05
-1.35525e-20 0.0148918 0.00283394 0 0 0
2.71051e-20 -0.0148918 0.00283398 0 0 0
0 -0.0151422 0.000920422 0.0350672 -0.0291216 -3.38267e-05
0 0.0151422 0.000920657 0.000395414 -0.000332805 -1.47531e-06
8.13152e-21 0.0150419 0.00210501 0.000453395 -0.000379245 1.74495e-06
-1.89735e-20 -0.0150419 0.00210492 0.0307021 -0.0257005 -0.000138735
4.51751e-21 -0.015053 0.00270398 0.0109198 -0.00943146 -2.4513e-05
0 0.015053 0.00270402 0.000149306 -0.00013084 3.1896e-07
-6.77626e-21 -0.0150244 0.00288816 0 0 0
-2.71051e-20 0.0150245 0.0028882 0 0 0
1.35525e-20 0.0153086 2.24203e-09 0 0 0
1.35525e-20 -0.0153086 2.24182e-09 0 0 0
0 0.0153121 0.000140875 1.48265e-06 -1.14765e-06 6.528e-08
-1.35525e-20 -0.0153122 0.000140824 0.00653179 -0.00535474 -1.11158e-05
0 -0.0154577 1.48782e-09 0 0 0
-1.35525e-20 0.0154577 1.48795e-09 0 0 0
4.51751e-21 -0.0154655 0.000604019 0.0260296 -0.0215341 -2.17078e-05
2.25875e-21 0.0154655 0.000604165 0.000213596 -0.000179798 -5.03377e-07
-1.12938e-20 -0.0154631 0.00123933 0.0413156 -0.0343314 -6.4508e-05
3.76158e-37 0.0154631 0.0012395 0.000524721 -0.0004406 -6.33501e-07
0 -0.0152755 0.00299148 0 0 0
2.71051e-20 0.0152755 0.0029915 0 0 0
0 -0.015469 0.0018808 0.040914 -0.034099 -0.000140576
2.25875e-21 0.015469 0.00188091 0.000588668 -0.00049288 6.61485e-07
0 -0.0156043 1.3028e-09 0 0 0
-1.35525e-20 0.0156043 1.30289e-09 0 0 0
-1.35525e-20 -0.0156046 0.000132299 0.00680275 -0.00555845 1.85487e-06
1.35525e-20 0.0156046 0.000132329 1.48093e-06 -1.12568e-06 4.81591e-08
0 0.0153937 0.00303998 0 0 0
0 -0.0153938 0.00303999 0 0 0
1.35525e-20 0.0154261 0.0029384 0.000102324 -9.14245e-05 5.68366e-09
-2.71051e-20 -0.0154261 0.00293835 0.00563853 -0.00514796 0.000199424
5.27043e-21 -0.0155039 0.00256159 0.0240484 -0.02041 -8.15465e-06
-7.52918e-22 0.0155039 0.00256162 0.000371537 -0.000312268 5.27977e-07
0 0.0157872 0.000299952 3.29624e-06 -2.52368e-06 8.05599e-08
2.71051e-20 -0.0157872 0.000299901 0.0150442 -0.0123066 1.48014e-06
2.71051e-20 -0.0157971 0.000915013 0.0410337 -0.0340959 -4.62731e-05
-2.71051e-20 0.0157971 0.000915131 0.000464257 -0.000391245 -7.85637e-07
0 -0.0157989 0.00156074 0.04914 -0.0408459 -0.000147957
-2.71051e-20 0.0157989 0.00156083 0.000689165 -0.000577567 7.99238e-08
6.77626e-21 0.0156182 0.00313283 0 0 0
-6.77626e-21 -0.0156183 0.00313286 0 0 0
2.71051e-20 -0.015809 0.0022127 0.0432419 -0.0361089 -0.000212911
2.71051e-20 0.015809 0.00221276 0.000646977 -0.000541699 8.86657e-07
0 0.0159653 5.84461e-10 0 0 0
-1.35525e-20 -0.0159653 5.84404e-10 0 0 0
-1.35525e-20 0.0159712 0.000124971 1.3986e-06 -1.0631e-06 4.54816e-08
0 -0.0159712 0.000124945 0.00642462 -0.00524949 1.75176e-06
6.77626e-21 -0.0156925 0.0031635 0 0 0
6.77626e-21 0.0156925 0.00316352 0 0 0
6.77626e-21 -0.01572 0.00310334 0.00413376 -0.00355549 3.19237e-05
-6.77626e-21 0.0157201 0.00310327 7.00268e-05 -5.46161e-05 7.374e-08
-1.50584e-21 -0.0157996 0.00293416 0.0149904 -0.0129704 0.000148548
0 0.0157996 0.00293419 0.000255614 -0.000206741 -2.41511e-07
0 -0.015781 0.00319986 0 0 0
-2.03288e-20 0.0157812 0.00319994 0 0 0
0 -0.0161034 4.04832e-10 0 0 0
0 0.0161034 4.0486e-10 0 0 0
-6.77626e-21 -0.016119 0.000594184 0.0292184 -0.0242133 -3.29163e-05
-6.77626e-21 0.016119 0.000594247 0.000243422 -0.000204908 -4.59259e-07
-9.03502e-21 -0.0161299 0.00122524 0.0480327 -0.0399479 -0.000125893
2.25875e-21 0.0161299 0.00122532 0.000618687 -0.000519408 -6.32134e-07
0 -0.0162343 3.59803e-10 0 0 0
-1.35525e-20 0.0162343 3.59826e-10 0 0 0
0 -0.0162345 0.00011328 0.00632372 -0.00519907 5.74005e-06
0 0.0162345 0.000113292 1.41136e-06 -1.05617e-06 6.81843e-08
-6.77626e-21 -0.0161352 0.00188661 0.0504883 -0.0420823 -0.000211112
0 0.0161352 0.00188666 0.000741833 -0.000621639 -2.70966e-07
0 -0.0161278 0.00255594 0.0352211 -0.0296255 -9.32128e-05
-2.25875e-21 0.0161278 0.00255599 0.000564089 -0.000473102 -1.16276e-06
-1.35525e-20 -0.0159975 0.00328828 0 0 0
0 0.0159976 0.00328832 0 0 0
1.35525e-20 -0.0160352 0.00323057 0.00431958 -0.00378009 3.39387e-05
4.06576e-20 0.0160353 0.00323064 7.09438e-05 -6.14207e-05 -1.01138e-06
1.35525e-20 -0.0160906 0.00332631 0 0 0
1.35525e-20 0.0160907 0.00332633 0 0 0
-2.71051e-20 -0.0164377 0.00029234 0.015966 -0.0131507 1.42002e-05
-2.71051e-20 0.0164377 0.000292357 3.53306e-06 -2.66217e-06 1.21764e-07
-2.71051e-20 -0.0164552 0.000897699 0.0457588 -0.0380782 -0.000103646
0 0.0164552 0.000897745 0.000517974 -0.000436045 -1.3254e-06
-1.807e-21 -0.0162066 0.0029897 0.0202145 -0.0172085 3.48779e-05
1.35525e-21 0.0162067 0.00298974 0.000344222 -0.000290229 -2.11311e-06
-2.71051e-20 -0.0164658 0.00154123 0.0565775 -0.0470886 -0.000207994
0 0.0164658 0.00154127 0.000810631 -0.000678718 -6.04787e-07
1.35525e-20 0.0162526 0.00328164 0.000119931 -0.000102699 -9.91683e-07
0 -0.0162527 0.00328159 0.00717783 -0.00608678 -3.88822e-05
0 0.0162526 0.00339239 0 0 0
-2.71051e-20 -0.0162526 0.00339241 0 0 0
-2.71051e-20 -0.0164656 0.00220947 0.0534421 -0.0446509 -0.000277797
5.42101e-20 0.0164656 0.00220951 0.000826424 -0.000693312 -1.43171e-06
0 0.0166389 1.04271e-10 0 0 0
0 -0.0166389 1.04267e-10 0 0 0
0 0.0166447 0.000100575 1.25294e-06 -9.37617e-07 6.05309e-08
0 -0.0166447 0.000100568 0.00561411 -0.00461566 5.09593e-06
0 -0.0165065 0.00278869 0.0351242 -0.0294581 -0.000178815
-2.71051e-20 0.0165065 0.00278872 0.000595395 -0.000501274 -3.47918e-06
0 -0.0167551 6.1842e-11 0 0 0
1.35525e-20 0.0167551 6.18409e-11 0 0 0
4.51751e-21 -0.0167741 0.000577096 0.0313625 -0.0260395 -6.78496e-05
4.51751e-21 0.0167741 0.000577118 0.000266224 -0.000223594 -8.81661e-07
2.71051e-20 -0.0164727 0.00325225 0.0144909 -0.01226 -4.24882e-05
2.71051e-20 0.0164728 0.00325227 0.000241405 -0.000205679 -2.09344e-06
3.38813e-21 -0.0167927 0.00119999 0.0530959 -0.0442192 -0.000204511
1.12938e-21 0.0167928 0.00120002 0.000699491 -0.000585934 -1.25218e-06
2.71051e-20 -0.0164932 0.00349062 0 0 0
1.35525e-20 0.0164934 0.00349067 0 0 0
-1.35525e-20 -0.0168627 5.6253e-11 0 0 0
-1.35525e-20 0.0168627 5.62518e-11 0 0 0
0 -0.0168631 9.00351e-05 0.00525243 -0.00427287 -3.12922e-05
-1.35525e-20 0.0168631 9.00377e-05 1.29205e-06 -9.36123e-07 1.84292e-07
1.12938e-21 -0.0167971 0.00186718 0.0587528 -0.0490035 -0.000389729
3.38813e-21 0.0167971 0.0018672 0.000890579 -0.00074563 -1.03246e-06
-2.71051e-20 -0.0165645 0.00339838 0.0078588 -0.00666424 -4.2571e-05
0 0.0165646 0.00339847 0.000131325 -0.000112455 -1.08589e-06
2.25875e-21 -0.0168038 0.00251859 0.0491982 -0.0410817 -0.000445972
-2.25875e-21 0.0168039 0.00251861 0.000801356 -0.000673182 -2.27151e-06
-2.71051e-20 -0.0166657 0.003561 0 0 0
0 0.0166658 0.00356102 0 0 0
3.38813e-21 -0.0167839 0.00309024 0.0280937 -0.0234303 -0.000245801
-6.77626e-21 0.016784 0.00309026 0.000482501 -0.000407161 -2.31115e-06
5.42101e-20 0.0170872 0.000280478 3.85986e-06 -2.82982e-06 3.98832e-07
-2.71051e-20 -0.0170872 0.000280474 0.0161286 -0.0131973 -5.12565e-05
5.42101e-20 -0.0171093 0.000869706 0.0485939 -0.0405667 -0.000132528
0 0.0171094 0.000869716 0.000556175 -0.000466628 -2.8169e-06
0 -0.0171238 0.0015109 0.061753 -0.0513922 -0.000376447
2.71051e-20 0.0171238 0.00151092 0.000919665 -0.000767572 -4.26998e-07
-6.77626e-21 0.0168547 0.00363794 0 0 0
2.03288e-20 -0.0168548 0.00363795 0 0 0
-2.71051e-20 -0.0171215 0.00218644 0.0634312 -0.0530372 -0.000698261
5.42101e-20 0.0171216 0.00218645 0.00100847 -0.000845207 -1.62352e-06
0 -0.0173128 1.50028e-11 0 0 0
-1.35525e-20 0.0173128 1.50016e-11 0 0 0
1.35525e-20 0.017316 7.61098e-05 1.09218e-06 -7.91315e-07 1.55784e-07
0 -0.017316 7.61078e-05 0.00443995 -0.00361191 -2.64517e-05
0 -0.0169937 0.00347014 0.0136485 -0.0112932 -0.000103011
0 0.0169937 0.00347019 0.00024713 -0.000208582 -8.87921e-07
-2.03288e-20 -0.0169518 0.00367748 0 0 0
2.03288e-20 0.0169519 0.00367752 0 0 0
-2.71051e-20 -0.0171192 0.00284365 0.0466353 -0.0387133 -0.000661038
2.71051e-20 0.0171192 0.00284368 0.000802187 -0.000675636 -2.38781e-06
0 0.0174041 1.00273e-11 0 0 0
0 -0.0174041 1.00286e-11 0 0 0
-2.25875e-21 -0.0174225 0.000552281 0.0320887 -0.0268361 -3.34404e-05
2.25875e-21 0.0174225 0.000552286 0.00027505 -0.000231123 -8.54195e-07
5.64689e-21 -0.0174464 0.00116236 0.0564421 -0.047093 -0.000350627
0 0.0174464 0.00116237 0.000758312 -0.000634964 -5.24133e-07
0 -0.0174883 9.27754e-12 0 0 0
1.35525e-20 0.0174883 9.27624e-12 0 0 0
0 -0.0174886 6.91534e-05 0.00401336 -0.00344107 0.000147399
1.35525e-20 0.0174886 6.91578e-05 8.13604e-07 -6.19659e-07 1.13724e-07
0 -0.0174523 0.00183361 0.0660158 -0.0551547 -0.000631493
0 0.0174523 0.00183363 0.00103155 -0.000862999 1.3521e-07
4.06576e-20 0.0171554 0.00376035 0 0 0
1.35525e-20 -0.0171554 0.00376034 0 0 0
3.38813e-21 -0.0174395 0.00252755 0.05946 -0.0495269 -0.000923502
2.25875e-21 0.0174395 0.00252757 0.00100168 -0.000840778 -9.02656e-07
0 -0.0172701 0.00381183 0 0 0
0 0.0172701 0.00381183 0 0 0
1.35525e-20 0.0173096 0.0036891 0.000176982 -0.000157637 -2.40042e-06
0 -0.0173096 0.00368906 0.00801241 -0.00672425 3.5995e-05
-1.8823e-21 -0.0174174 0.00327288 0.0323599 -0.0266284 -0.000578313
4.89397e-21 0.0174174 0.00327291 0.000598373 -0.000502887 -1.88196e-06
2.71051e-20 -0.0177262 0.000264489 0.0153435 -0.0131289 0.000402811
0 0.0177262 0.000264491 3.36852e-06 -2.55133e-06 2.04663e-07
0 -0.0177529 0.000830839 0.0493813 -0.0413612 -0.000360637
-2.71051e-20 0.0177529 0.000830843 0.000555131 -0.000467614 -1.33777e-06
0 -0.0177737 0.00146633 0.0663225 -0.0552802 -0.000537298
0 0.0177737 0.00146634 0.00100964 -0.000843705 2.19601e-06
-2.03288e-20 0.0174674 0.00388876 0 0 0
-1.35525e-20 -0.0174675 0.00388877 0 0 0
-2.71051e-20 -0.0177694 0.00215825 0.0724587 -0.0608189 -0.00091151
2.71051e-20 0.0177694 0.00215826 0.0011864 -0.00099376 4.45507e-07
-6.77626e-21 -0.0175188 0.00391124 0 0 0
0 0.017519 0.0039113 0 0 0
-3.38813e-21 -0.0175509 0.00385321 0.00483925 -0.00388167 -0.000114857
-3.38813e-21 0.0175511 0.00385308 9.66711e-05 -7.54735e-05 4.98058e-09
-2.71051e-20 -0.0177413 0.00287705 0.0566392 -0.0466706 -0.00143576
2.71051e-20 0.0177414 0.00287708 0.00102867 -0.000864291 1.0648e-07
-6.77626e-21 0.0179809 1.39465e-12 0 0 0
-6.77626e-21 -0.0179809 1.39504e-12 0 0 0
-6.77626e-21 0.017982 5.25092e-05 6.17743e-07 -4.70486e-07 8.63468e-08
6.77626e-21 -0.017982 5.25067e-05 0.00304726 -0.00261273 0.000111917
0 -0.0175787 0.00394073 0 0 0
-1.35525e-20 0.017579 0.0039409 0 0 0
-4.51751e-21 -0.01766 0.00367697 0.0196266 -0.0158049 -0.000439119
3.01167e-21 0.01766 0.00367702 0.000395014 -0.000317701 -1.0975e-06
-6.77626e-21 -0.0180462 7.99821e-13 0 0 0
6.77626e-21 0.0180462 7.99456e-13 0 0 0
-2.25875e-21 -0.0180586 0.000513285 0.0306346 -0.0256653 -0.000182008
-3.38813e-21 0.0180586 0.000513288 0.000265146 -0.000220559 -2.28892e-06
6.77626e-21 -0.0181035 4.49129e-05 0.00255652 -0.00204365 -4.50553e-05
0 0.0181035 4.49204e-05 3.35042e-07 -6.3637e-07 -5.06439e-07
0 -0.0181053 7.64927e-13 0 0 0
0 0.0181054 7.64553e-13 0 0 0
0 0.0181062 0.00109872 0.000782874 -0.000654217 -3.71728e-07
1.12938e-21 -0.0181062 0.00109871 0.0569905 -0.0477571 -0.000573766
5.64689e-22 -0.0181012 0.00178214 0.0716508 -0.06011 -0.000948098
-2.25875e-21 0.0181012 0.00178214 0.00115651 -0.000969118 2.23515e-06
-1.12938e-21 -0.0180748 0.00251396 0.0688724 -0.0573851 -0.00142152
-2.25875e-21 0.0180748 0.00251397 0.00121156 -0.00101795 1.44947e-06
-1.35525e-20 -0.0177924 0.00406323 0 0 0
0 0.0177926 0.00406332 0 0 0
0 -0.0178459 0.00400227 0.00589273 -0.00466116 -0.000165246
0 0.017846 0.00400239 0.000113091 -9.45168e-05 -1.11677e-06
-2.25875e-21 -0.0180178 0.00326611 0.0445657 -0.0364007 -0.00123352
-6.77626e-21 0.0180179 0.00326616 0.000864073 -0.000725025 -1.07025e-06
-2.71051e-20 -0.0183483 0.000235222 0.0134269 -0.0109163 -0.000242133
2.71051e-20 0.0183483 0.000235228 2.60035e-06 -3.42016e-06 -1.44279e-06
0 -0.0178961 0.00412296 0 0 0
0 0.0178962 0.004123 0 0 0
2.71051e-20 0.0183931 0.00076447 0.000526544 -0.000432703 -6.21858e-06
0 -0.0183931 0.000764464 0.0460655 -0.0386747 -0.000531274
4.51751e-22 -0.0180567 0.00374589 0.0260297 -0.0208702 -0.000773578
-4.51751e-22 0.0180567 0.00374594 0.00052726 -0.000440949 -2.62585e-06
-2.71051e-20 -0.0184337 0.00138079 0.0675548 -0.0567843 -0.000865554
0 0.0184337 0.0013808 0.00106763 -0.000893569 3.31173e-06
0 -0.0184036 0.00212468 0.0800552 -0.0673883 -0.00147032
2.71051e-20 0.0184036 0.00212468 0.00135834 -0.00114186 3.02884e-06
3.38813e-21 -0.0185327 3.11692e-13 0 0 0
-6.77626e-21 0.0185328 3.11508e-13 0 0 0
0 0.0180755 0.00422628 0 0 0
1.35525e-20 -0.0180755 0.00422633 0 0 0
0 -0.0183781 0.00285998 0.0668602 -0.0551168 -0.00188113
2.71051e-20 0.0183781 0.00285999 0.00127976 -0.00107773 2.25432e-06
-2.25875e-21 -0.0186584 0.000460862 0.0284754 -0.0239178 -0.000241005
2.25875e-21 0.0186584 0.000460867 0.000219865 -0.000187089 2.66333e-07
1.35525e-20 -0.0181752 0.00428374 0 0 0
6.77626e-21 0.0181755 0.00428388 0 0 0
0 -0.0182334 0.00409647 0.0127935 -0.00993516 -0.000564897
-4.51751e-21 0.0182335 0.00409657 0.000260936 -0.000218293 -1.2648e-06
0 -0.0183786 0.00352144 0.0445987 -0.0359276 -0.00152043
0 0.0183786 0.00352149 0.000903161 -0.000757353 -1.97339e-06
3.38813e-21 -0.018738 2.24864e-13 0 0 0
0 0.018738 2.24779e-13 0 0 0
0 -0.0187383 1.85704e-05 0.00106406 -0.000884565 -1.97737e-05
3.38813e-21 0.0187383 1.85635e-05 2.95413e-07 -2.79267e-07 1.50845e-08
-3.38813e-21 -0.0187394 0.000144213 0.00867537 -0.00729392 -6.04369e-05
-3.38813e-21 0.0187394 0.000144178 5.98842e-05 -5.15325e-05 9.05574e-08
-3.38813e-21 -0.0187638 5.24913e-14 0 0 0
-3.38813e-21 0.0187638 5.2518e-14 0 0 0
0 0.018782 1.52393e-05 2.60256e-07 -4.75342e-08 2.90605e-07
0 -0.018782 1.5244e-05 0.000917162 -0.000834251 5.80331e-05
-3.38813e-21 0.0187835 4.19052e-14 0 0 0
3.38813e-21 -0.0187835 4.18701e-14 0 0 0
5.64689e-23 0.0187413 0.0017483 0.00126537 -0.00106161 4.50994e-06
2.25875e-22 -0.0187413 0.00174835 0.0745553 -0.0628678 -0.00121415
3.38813e-21 0.0188423 3.06821e-14 0 0 0
0 -0.0188423 3.06421e-14 0 0 0
0 0.0188305 0.000950992 0.000665492 -0.000563765 4.00397e-06
-6.77626e-21 -0.0188305 0.000950983 0.0504283 -0.0424845 -0.000606019
0 -0.0183688 0.00439528 0 0 0
0 0.0183689 0.00439535 0 0 0
-4.03349e-23 -0.0187533 0.00244388 0.0752393 -0.0628769 -0.00184346
0 0.0187533 0.00244392 0.00140153 -0.00117863 2.62996e-06
-1.12938e-21 -0.0186868 0.0032017 0.0608952 -0.0496832 -0.00212209
-1.12938e-21 0.0186868 0.00320172 0.00122192 -0.00102566 1.41556e-06
1.35525e-20 -0.0184806 0.00445983 0 0 0
1.35525e-20 0.0184807 0.00445985 0 0 0
-1.35525e-20 -0.0185303 0.00433131 0.00853282 -0.0066868 -0.000289652
1.35525e-20 0.0185303 0.00433142 0.000203385 -0.00017643 -3.00324e-06
-7.52918e-22 -0.0186604 0.00393307 0.0326842 -0.0258486 -0.0014254
2.25875e-21 0.0186604 0.0039331 0.00068051 -0.000567752 -9.30839e-07
1.12938e-21 -0.0191244 0.000340856 0.0199204 -0.0165528 -2.24152e-05
-2.82344e-22 0.0191244 0.000340868 5.00497e-05 -3.57589e-05 -1.6667e-05
1.35525e-20 0.0192203 9.49176e-15 0 0 0
1.35525e-20 -0.0192203 9.47246e-15 0 0 0
2.71051e-20 0.0191645 0.00146332 0.00125471 -0.00105124 9.6417e-06
0 -0.0191645 0.00146333 0.0726396 -0.0615419 -0.00105724
0 -0.0190143 0.00283766 0.075551 -0.0625055 -0.00254174
2.71051e-20 0.0190143 0.00283768 0.00152195 -0.00128064 2.34523e-06
-1.69407e-21 0.0186824 0.00457622 0 0 0
1.01644e-20 -0.0186825 0.00457626 0 0 0
1.69407e-21 -0.0187038 0.00458858 0 0 0
0 0.0187039 0.00458863 0 0 0
0 0.01916 0.00195764 0.0014893 -0.00125085 2.77864e-06
0 -0.01916 0.00195763 0.0806958 -0.0686113 -0.00139945
1.69407e-21 -0.0187213 0.00456183 0.0024023 -0.00182151 -0.00014387
0 0.0187215 0.00456168 4.9271e-05 -3.85829e-05 1.52174e-07
-1.18585e-20 -0.0187278 0.00460243 0 0 0
-8.47033e-21 0.0187281 0.00460258 0 0 0
-5.42101e-20 -0.0189854 0.00354595 0.0584563 -0.0467941 -0.00260132
-2.71051e-20 0.0189854 0.00354598 0.00122018 -0.00101864 3.28062e-06
0 -0.0188773 0.00434108 0.0215716 -0.0164039 -0.00123856
-3.01167e-21 0.0188774 0.00434115 0.000448363 -0.000359701 -9.88517e-09
0 -0.0193794 0.000836844 0.0433461 -0.0366841 -0.000616133
-1.69407e-21 0.0193797 0.000837393 0.000548783 -0.000466337 1.44967e-06
0 -0.0193832 0.00085584 0.0441829 -0.0374052 -0.000637273
2.75286e-21 0.0193834 0.000855823 0.00056688 -0.000482008 2.20195e-06
-2.11758e-21 0.0194038 0.000856698 0.000569802 -0.000484494 2.20671e-06
-2.5411e-21 -0.0194042 0.000856742 0.0442669 -0.0374906 -0.000642168
-1.35525e-20 0.0194237 1.55386e-15 0 0 0
0 -0.0194238 1.5392e-15 0 0 0
0 -0.0193728 0.00168997 0.0768371 -0.0653102 -0.00129349
0 0.0193728 0.00168998 0.00140082 -0.00117465 7.02584e-06
1.41172e-21 0.0193778 0.00244583 0.00162197 -0.00136178 3.23443e-06
2.82344e-22 -0.0193778 0.00244582 0.0806049 -0.0676227 -0.00221863
-1.35525e-20 -0.0189666 0.0047402 0 0 0
-1.35525e-20 0.0189667 0.00474028 0 0 0
1.12938e-21 -0.0193197 0.00318392 0.071814 -0.0586942 -0.00285129
-1.12938e-21 0.0193197 0.00318394 0.00151152 -0.00126708 4.01327e-06
0 -0.0190326 0.00467124 0.00743566 -0.00542433 -0.000486404
1.35525e-20 0.0190327 0.00467137 0.00014329 -0.000117259 -1.0752e-06
2.71051e-20 0.0195819 0.00142144 0.00130538 -0.00109614 8.15464e-06
2.71051e-20 -0.0195819 0.00142144 0.0724029 -0.0617903 -0.00121973
-2.25875e-21 -0.0192551 0.00392917 0.0482199 -0.0380299 -0.00252099
4.51751e-21 0.0192551 0.00392922 0.00102991 -0.000857547 4.21208e-06
0 -0.0196529 3.98812e-16 0 0 0
-6.77626e-21 0.019653 4.05019e-16 0 0 0
5.42101e-20 -0.0195685 0.0019371 0.0818667 -0.0696587 -0.00154038
2.71051e-20 0.0195685 0.00193711 0.00159802 -0.00133876 5.67825e-06
2.71051e-20 -0.0190799 0.00480555 0 0 0
-2.71051e-20 0.0190799 0.00480559 0 0 0
0 0.0197212 0.00026999 2.52191e-05 -1.63681e-05 -1.07473e-05
9.03502e-21 -0.0197213 0.000269872 0.0158748 -0.0131136 9.36248e-06
0 -0.0192753 0.0044119 0.029729 -0.0226189 -0.00186503
-9.03502e-22 0.0192753 0.00441194 0.000617573 -0.000511666 1.27038e-06
-3.38813e-21 0.019834 4.73089e-16 0 0 0
1.35525e-20 -0.0198344 4.68021e-16 0 0 0
-6.77626e-21 0.0192476 0.00490233 0 0 0
0 -0.0192477 0.00490234 0 0 0
2.71051e-20 -0.0196698 0.00278682 0.0831978 -0.0694185 -0.0028019
-2.71051e-20 0.0196698 0.00278683 0.00177353 -0.00148855 2.36468e-06
2.71051e-20 -0.0196164 0.00353233 0.070664 -0.0566358 -0.00345337
0 0.0196164 0.00353236 0.00154151 -0.00128984 8.00442e-06
-1.35525e-20 -0.0193208 0.00494455 0 0 0
-1.35525e-20 0.019321 0.00494463 0 0 0
4.51751e-21 -0.0194217 0.00475372 0.0165351 -0.0119163 -0.0014194
4.51751e-21 0.0194217 0.0047538 0.000325627 -0.000270078 1.67162e-06
0 0.0200351 -3.30531e-17 0 0 0
-1.35525e-20 -0.0200351 -3.31475e-17 0 0 0
-4.70198e-38 0.0200397 0.000879641 0.000636395 -0.000540199 1.47925e-06
-8.47033e-22 -0.0200397 0.000879689 0.0443228 -0.0380774 -0.000771934
-2.71051e-20 -0.0196209 0.00418595 0.0510599 -0.0395917 -0.00321819
0 0.019621 0.00418598 0.00107865 -0.000896019 7.55808e-06
0 0.0200082 0.001684 0.0015316 -0.0012864 7.46886e-06
0 -0.0200082 0.00168399 0.077218 -0.0660414 -0.00148439
0 -0.0200926 6.73445e-05 0.00402443 -0.00354362 -7.21851e-05
-1.35525e-20 0.0200927 6.74618e-05 2.48394e-06 -2.5537e-06 2.86271e-06
0 -0.0200965 -8.39152e-19 0 0 0
0 0.0200966 -7.09534e-19 0 0 0
0 -0.0201334 8.4998e-18 0 0 0
0 0.0201335 8.62606e-18 0 0 0
2.71051e-20 -0.0195081 0.00505258 0 0 0
-1.35525e-20 0.0195081 0.00505262 0 0 0
0 0.0200347 0.00229462 0.0017786 -0.00149324 2.98087e-06
-2.25875e-21 -0.0200347 0.0022946 0.0829233 -0.0700193 -0.00229334
0 -0.0199605 0.00311668 0.0805962 -0.0664424 -0.00305654
-2.03288e-21 0.0199605 0.00311671 0.00179205 -0.00150334 2.92226e-06
1.35525e-20 -0.020225 6.93279e-05 0.00476375 -0.00415156 -0.000130919
0 0.0202253 6.94576e-05 4.23866e-05 -4.2321e-05 -2.28204e-06
-1.35525e-20 -0.0202304 -1.78061e-17 0 0 0
1.35525e-20 0.0202307 -1.76953e-17 0 0 0
-3.38813e-21 -0.0199314 0.00385542 0.0673726 -0.0535341 -0.00346565
4.51751e-21 0.0199314 0.00385544 0.00148188 -0.00123849 5.33103e-06
-6.77626e-21 0.0196737 0.00514811 0 0 0
-1.35525e-20 -0.0196737 0.00514812 0 0 0
3.61401e-21 -0.0198941 0.00456695 0.0401915 -0.03096 -0.00244726
7.52316e-38 0.0198941 0.00456697 0.000843575 -0.000707628 3.55279e-06
0 -0.0197657 0.00520119 0 0 0
1.35525e-20 0.0197657 0.00520124 0 0 0
4.51751e-21 -0.0198219 0.00501114 0.013972 -0.0106336 -0.000954701
0 0.0198219 0.00501119 0.000311788 -0.000269645 2.08034e-06
-2.71051e-20 -0.0202897 0.00277314 0.0870435 -0.0729902 -0.00281958
-2.71051e-20 0.0202897 0.00277314 0.00199153 -0.00167203 -1.22373e-06
-2.71051e-20 -0.0202612 0.00349046 0.0806833 -0.0654727 -0.00343149
2.71051e-20 0.0202612 0.00349047 0.00186402 -0.00156421 2.80768e-06
0 0.0199065 0.00528242 0 0 0
2.71051e-20 -0.0199065 0.00528242 0 0 0
-2.71051e-20 -0.0202451 0.00417935 0.0684467 -0.0536095 -0.00378244
0 0.0202451 0.00417938 0.00147781 -0.00123329 3.0929e-06
-5.42101e-20 0.0206574 0.00171968 0.00172665 -0.00145514 6.91618e-06
1.0842e-19 -0.0206574 0.00171968 0.0774581 -0.0668462 -0.00171383
4.51751e-21 -0.0201293 0.004986 0.0289689 -0.0221882 -0.00190553
1.50584e-21 0.0201293 0.00498603 0.000587722 -0.000495959 5.644e-06
0 0.0200532 0.00536706 0 0 0
-6.77626e-21 -0.0200532 0.00536708 0 0 0
2.82344e-22 -0.0206314 0.00242245 0.0851636 -0.0719935 -0.00245431
-5.64689e-22 0.0206314 0.00242249 0.00202015 -0.00169896 8.29039e-07
0 0.0207755 0.000514881 0.000384227 -0.000354573 -8.87186e-06
-5.42101e-20 -0.0207756 0.000514862 0.0365313 -0.0322309 -0.0006136
0 -0.0205987 0.00311576 0.0858237 -0.0710905 -0.00291082
-1.12938e-21 0.0205987 0.00311576 0.00206329 -0.00173396 1.18985e-06
-2.71051e-20 -0.0203105 0.00476265 0.0475768 -0.036537 -0.00294834
-2.71051e-20 0.0203105 0.00476269 0.000970973 -0.000811142 7.88489e-06