# UMean  POINT_DATA 28110
# x  y  z  UMean_x  UMean_y  UMean_z
0.015557 -1.35525e-20 5.70113e-08 0 0 0
-0.015557 1.35525e-20 5.70113e-08 0 0 0
-0.015557 -6.77626e-21 0.000135948 0 0 0
0.015557 0 0.000135964 0 0 0
-0.015557 6.77626e-21 0.000527058 0 0 0
0.015557 6.77626e-21 0.000527125 0 0 0
-0.015557 1.35525e-20 0.000659558 0 0 0
0.015557 -1.35525e-20 0.000659639 0 0 0
-0.0155569 0 0.000798557 0 0 0
0.015557 0 0.000798637 0 0 0
-0.0155569 6.77626e-21 0.00121614 0 0 0
0.0155569 0 0.00121623 0 0 0
-0.0155569 -6.77626e-21 0.00135476 0 0 0
0.0155569 0 0.00135485 0 0 0
-0.0156159 0 6.65977e-05 0.000852033 -0.000718386 -1.96691e-05
0.0156159 -6.77626e-21 6.66114e-05 1.09515e-06 -6.88507e-07 5.14432e-08
0.015617 -6.77626e-21 5.8671e-08 0 0 0
-0.015617 0 5.86705e-08 0 0 0
-0.0156133 0 0.000593966 0.000815879 -0.000687902 -1.88345e-05
0.0156133 -6.77626e-21 0.00059404 1.04867e-06 -6.59282e-07 4.92596e-08
0.0156101 0 0.000721026 1.70489e-05 -1.45585e-05 9.50186e-08
-0.0156101 6.77626e-21 0.000720945 0.00153051 -0.00135206 1.10792e-05
-0.0155569 -6.77626e-21 0.00150199 0 0 0
0.0155569 0 0.00150206 0 0 0
-0.0156099 -6.77626e-21 0.00127797 0.00152352 -0.00134589 1.10286e-05
0.0156099 6.77626e-21 0.00127806 1.6971e-05 -1.4492e-05 9.45846e-08
0.0156067 -6.77626e-21 0.00140498 1.71927e-05 -1.44266e-05 -5.14615e-07
-0.0156067 0 0.00140489 0.0013645 -0.00121183 2.5648e-05
-0.0156758 -6.77626e-21 6.25738e-08 0 0 0
0.0156758 6.77626e-21 6.25741e-08 0 0 0
-0.0155569 1.35525e-20 0.00193255 0 0 0
0.0155569 0 0.00193257 0 0 0
-0.0156643 -2.71051e-20 0.000653593 0.00213198 -0.00177428 1.00316e-05
0.0156643 1.35525e-20 0.000653701 1.69202e-05 -1.44289e-05 1.20156e-07
0.015557 -6.77626e-21 0.002087 0 0 0
-0.015557 6.77626e-21 0.002087 0 0 0
0.0156581 2.03288e-20 0.00132521 3.32026e-05 -2.84936e-05 -4.52283e-08
-0.0156581 0 0.00132509 0.00273294 -0.00236418 6.08151e-06
0.0156109 0 0.00197556 1.86468e-05 -1.56468e-05 -5.58139e-07
-0.0156109 0 0.00197554 0.00147988 -0.0013143 2.78168e-05
-0.01562 0 0.00210848 0 0 0
0.01562 -6.77626e-21 0.00210848 0 0 0
0.0156426 0 0.00205604 1.75497e-05 -1.60363e-05 -5.93171e-07
-0.0156426 6.77626e-21 0.00205603 0.00142405 -0.00128049 2.06699e-05
0.0156707 0 0.00197912 3.37784e-05 -2.89027e-05 -5.21589e-07
-0.0156707 -6.77626e-21 0.00197907 0.00268524 -0.00228622 -3.00332e-05
-0.0156949 0 0.00213398 0 0 0
0.0156949 0 0.00213398 0 0 0
0.015885 6.77626e-21 7.41484e-08 0 0 0
-0.015885 6.77626e-21 7.41473e-08 0 0 0
-0.01589 -4.51751e-21 0.00034758 0.00472252 -0.00401075 -6.0531e-06
0.01589 -3.76459e-22 0.000347688 1.66167e-05 -1.3699e-05 -1.44992e-07
-0.0158834 2.71051e-21 0.000956113 0.00796121 -0.00674037 3.94207e-05
0.0158834 -4.51751e-22 0.000956328 8.95655e-05 -7.31485e-05 -4.58436e-08
0.0158471 7.52918e-22 0.00154379 9.39608e-05 -7.84324e-05 8.67301e-07
-0.0158471 7.52918e-22 0.00154362 0.0073371 -0.00625696 -0.00010517
-0.0158414 1.69407e-21 0.00196386 0.00509038 -0.00423126 -3.60912e-05
0.0158414 -1.12938e-21 0.00196392 6.09262e-05 -4.86196e-05 6.69072e-07
-0.015839 0 0.00218308 0 0 0
0.015839 -1.35525e-20 0.00218308 0 0 0
-0.0159079 -4.06576e-20 0.00220656 0 0 0
0.0159079 0 0.00220656 0 0 0
-0.0160357 0 0.00166133 0.0106141 -0.00895964 -0.000128718
0.0160357 1.12938e-21 0.00166159 0.000136791 -0.00011373 1.66383e-06
-0.0161335 0 1.64555e-05 0.000192043 -0.000165709 2.74922e-08
0.0161337 4.23516e-22 1.6266e-05 2.20643e-07 -1.84847e-07 -1.53199e-09
-0.0161343 -4.23516e-22 5.30999e-08 0 0 0
0.0161345 0 5.30909e-08 0 0 0
-0.0159895 -4.06576e-20 0.00223438 0 0 0
0.0159896 0 0.00223438 0 0 0
-0.0161453 0 5.24551e-08 1.72121e-05 -1.57069e-05 -5.67091e-07
0.0161479 0 3.0392e-06 1.47084e-08 -1.41242e-08 -2.3096e-10
-0.0161363 -2.25875e-21 0.000658258 0.0102372 -0.00853033 -1.97771e-05
0.0161363 0 0.00065863 8.55505e-05 -7.06214e-05 -7.61065e-07
-0.016108 0 0.00123662 0.0126118 -0.0108027 -4.31337e-05
0.0161079 -2.25875e-21 0.00123704 0.000153465 -0.000130015 5.89759e-07
-0.0162278 -2.63521e-21 0.00195621 0.0100275 -0.00886828 0.000128823
0.0162278 7.52918e-22 0.00195641 0.000128137 -0.000105009 2.39926e-06
0.0161979 6.77626e-21 0.00230534 0 0 0
-0.0161979 0 0.00230537 0 0 0
-0.0162561 6.77626e-21 0.00232518 0 0 0
0.0162561 6.77626e-21 0.00232518 0 0 0
-0.016267 0 0.00230119 0.000876356 -0.000824202 5.34006e-05
0.016267 0 0.00230117 1.49135e-05 -1.40069e-05 -2.76979e-07
-0.0162975 1.35525e-20 0.00227122 0.00190272 -0.00162593 1.50613e-05
0.0162975 -6.77626e-21 0.00227118 2.64252e-05 -2.19725e-05 7.18988e-08
-0.0162994 1.35525e-20 0.00233991 0 0 0
0.0162994 6.77626e-21 0.00233992 0 0 0
0.0164713 -4.51751e-21 0.000318776 1.79496e-05 -1.59237e-05 5.93898e-09
-0.0164713 9.03502e-21 0.00031848 0.00746052 -0.00646977 -5.58302e-05
0.0164838 -4.51751e-21 0.000934132 0.000179386 -0.000154041 2.73538e-06
-0.0164839 4.51751e-21 0.000933459 0.0166335 -0.0145274 -0.00014437
-0.0165151 2.71051e-20 8.91788e-08 0 0 0
0.0165151 0 8.91806e-08 0 0 0
0.0164768 -4.51751e-21 0.00151147 0.000224381 -0.000191654 3.04855e-06
-0.0164769 9.03502e-21 0.00151089 0.0173327 -0.0152494 2.30023e-06
0.0166394 0 9.23357e-08 0 0 0
-0.0166394 0 9.23334e-08 0 0 0
-0.0165053 0 0.00241002 0 0 0
0.0165054 1.35525e-20 0.00241002 0 0 0
0.0167038 2.71051e-20 0.000635416 0.000114824 -9.93911e-05 1.71315e-06
-0.0167039 0 0.000634646 0.0143822 -0.0124227 -9.05338e-05
0.0165943 5.64689e-22 0.00217414 0.000145192 -0.000111603 1.07336e-06
-0.0165943 -1.41172e-21 0.00217395 0.00969167 -0.00821166 0.000271928
0.0167298 0 0.00122679 0.000248348 -0.00021114 5.95457e-07
-0.0167299 0 0.00122589 0.0207589 -0.0178435 -6.96356e-05
0.0166885 0 0.00181391 0.000222342 -0.000189589 -1.31245e-06
-0.0166886 -2.71051e-20 0.00181341 0.016513 -0.0143913 0.000133618
-0.0166608 -1.35525e-20 0.00246303 0 0 0
0.016661 0 0.00246306 0 0 0
0.0168423 -1.35525e-20 7.0937e-08 0 0 0
-0.0168423 1.35525e-20 7.09338e-08 0 0 0
0.0169749 -2.25875e-21 0.000303039 1.49902e-05 -1.29569e-05 3.57643e-07
-0.016975 2.25875e-21 0.000302648 0.009016 -0.00777116 -2.65927e-05
-0.0168731 0 0.0022093 0.011591 -0.010086 0.000314015
0.0168731 1.12938e-21 0.00220951 0.000170926 -0.000141615 -1.10648e-06
0.016996 0 0.000918683 0.000246278 -0.000200869 -1.51165e-06
-0.0169961 -6.77626e-21 0.000917792 0.0227077 -0.0192766 -8.80173e-05
0.0168625 -2.03288e-20 0.00253161 0 0 0
-0.0168625 0 0.00253162 0 0 0
0.0169886 -4.51751e-21 0.00152442 0.000325271 -0.000265642 1.10045e-06
-0.0169887 -4.51751e-21 0.00152371 0.0251046 -0.0213086 -4.09152e-05
0.0170875 0 2.4605e-08 0 0 0
-0.0170875 0 2.46021e-08 0 0 0
0.0169822 4.51751e-21 0.00199465 0.000253602 -0.000211268 -1.13194e-06
-0.0169822 0 0.00199427 0.0176569 -0.0152202 0.000244589
-0.0169516 -9.03502e-21 0.00241979 0.00543626 -0.00476823 0.000152828
0.0169517 9.03502e-21 0.00241989 7.7115e-05 -6.61436e-05 -1.72595e-06
-0.0169616 -1.35525e-20 0.00256534 0 0 0
0.0169617 -2.03288e-20 0.00256538 0 0 0
0.0172725 2.71051e-20 0.000609814 0.000143913 -0.000120397 3.06387e-07
-0.0172727 0 0.000608963 0.0180718 -0.015186 1.32116e-05
0.017301 2.71051e-20 3.86873e-09 0 0 0
-0.0173011 2.71051e-20 3.86453e-09 0 0 0
0.0172756 0 0.0012186 0.000325141 -0.000270798 4.91799e-07
-0.0172758 5.42101e-20 0.00121766 0.0268498 -0.0226133 -6.74127e-05
0.0172503 0 0.00183262 0.000321487 -0.000269534 3.68706e-07
-0.0172504 2.71051e-20 0.00183214 0.023783 -0.0201249 -5.29195e-05
-0.0171625 0 0.00263367 0 0 0
0.0171625 0 0.00263369 0 0 0
-0.0172627 -3.95282e-21 0.00228337 0.0146704 -0.0126536 0.000107274
0.0172628 -5.64689e-22 0.00228356 0.000213955 -0.000180666 2.68019e-07
0.0175152 -1.35525e-20 3.90438e-09 0 0 0
-0.0175152 0 3.90115e-09 0 0 0
0.0176166 -6.77626e-21 0.000304265 1.88744e-05 -1.57069e-05 2.72387e-08
-0.0176168 -4.51751e-21 0.000303958 0.0111182 -0.00930183 2.89281e-05
0.0176138 -1.12938e-21 0.000914505 0.000308386 -0.000257908 2.5917e-07
-0.0176139 0 0.000913847 0.0281964 -0.0236558 -8.56868e-05
0.0175986 1.12938e-21 0.00154662 0.000427506 -0.00035703 1.34491e-06
-0.0175987 1.12938e-21 0.0015461 0.0327007 -0.0274974 5.03313e-05
0.0174824 0 0.00274279 0 0 0
-0.0174824 -1.01644e-20 0.0027428 0 0 0
-0.0174954 -1.69407e-21 0.00274721 0 0 0
0.0174955 3.72694e-20 0.00274726 0 0 0
0.0177275 -1.35525e-20 5.30347e-09 0 0 0
-0.0177276 4.06576e-20 5.30237e-09 0 0 0
-0.0176266 -9.03502e-21 0.00211798 0.0243806 -0.0207282 3.21095e-05
0.0176266 2.25875e-21 0.00211823 0.000346526 -0.000289518 1.76013e-06
-0.0175733 4.51751e-21 0.00255362 0.010836 -0.0092253 -0.000225725
0.0175734 -4.51751e-21 0.0025537 0.000151182 -0.000125358 3.26033e-06
0.0179395 0 5.36713e-09 0 0 0
-0.0179395 0 5.36695e-09 0 0 0
0.0179446 -2.71051e-20 0.000602236 0.000170934 -0.000143084 2.1177e-08
-0.0179448 -2.71051e-20 0.000601852 0.0216365 -0.0180884 1.33697e-05
0.0179404 2.71051e-20 0.00122938 0.000412823 -0.000345065 9.03118e-07
-0.0179405 0 0.00122893 0.0338616 -0.0283948 6.96504e-06
-0.0179 -2.71051e-20 0.00190852 0.0306237 -0.0258259 -1.07507e-05
0.0179 -2.71051e-20 0.00190875 0.000426264 -0.000354631 1.09036e-06
-0.0177928 0 0.00284873 0 0 0
0.0177928 2.71051e-20 0.00284875 0 0 0
-0.0179476 2.71051e-20 0.0024258 0.0197873 -0.0168196 -3.21288e-05
0.0179477 2.71051e-20 0.00242589 0.00029288 -0.000243294 6.75398e-07
0.0181451 0 4.40341e-09 0 0 0
-0.0181451 0 4.40324e-09 0 0 0
-0.0180159 4.06576e-20 0.00292502 0 0 0
0.018016 0 0.00292506 0 0 0
0.0182715 -2.25875e-21 0.000300999 3.15136e-05 -2.62628e-05 -4.88723e-08
-0.0182716 9.03502e-21 0.000300875 0.012447 -0.0103403 -5.39761e-06
0.0182775 -9.03502e-21 0.000913342 0.00035706 -0.000299617 2.70461e-07
-0.0182775 -9.03502e-21 0.00091307 0.033145 -0.0276106 -1.18199e-05
-0.0182702 -2.25875e-21 0.00156202 0.039222 -0.0328333 5.18036e-05
0.0182702 2.25875e-21 0.00156224 0.00052007 -0.000434928 1.17245e-06
-0.0182366 6.77626e-21 0.00214879 0.0323582 -0.0272991 5.10198e-06
0.0182366 4.51751e-21 0.00214891 0.000462501 -0.000383921 -4.63462e-07
0.0181444 -6.77626e-21 0.00296949 0 0 0
-0.0181446 -6.77626e-21 0.00296953 0 0 0
-0.0181872 9.03502e-22 0.00270867 0.0133469 -0.0115218 -9.99905e-06
0.0181872 6.77626e-22 0.00270873 0.000201816 -0.000170769 5.36778e-07
0.0183921 1.35525e-20 2.43155e-09 0 0 0
-0.0183922 1.35525e-20 2.43148e-09 0 0 0
-0.0185886 0 1.46532e-09 0 0 0
0.0185886 0 1.46539e-09 0 0 0
-0.0183446 -1.35525e-20 0.00303802 0 0 0
0.0183446 0 0.00303804 0 0 0
0.0185996 -2.71051e-20 0.000595038 0.000197579 -0.000165753 -2.87901e-07
-0.0185997 0 0.000594918 0.0246994 -0.0205288 1.25524e-06
-0.0186737 5.80823e-21 0.00129278 0.042292 -0.0353099 -3.98254e-05
0.0186737 1.16165e-20 0.00129291 0.000538545 -0.000449921 8.4483e-07
-0.0187703 -1.35525e-20 1.23409e-09 0 0 0
0.0187703 1.35525e-20 1.23413e-09 0 0 0
0.0185175 2.03288e-20 0.00309812 0 0 0
-0.0185175 2.03288e-20 0.00309812 0 0 0
-0.0187148 -1.35525e-20 0.00187601 0.0416706 -0.0348838 -8.32175e-05
0.0187148 9.03502e-21 0.00187608 0.000582897 -0.000484759 1.35074e-06
-0.0186674 0 0.00253515 0.0255056 -0.0215264 -5.20638e-06
0.0186674 3.01167e-21 0.00253519 0.000384428 -0.000317422 2.19595e-07
0.018823 4.51751e-21 0.000903657 0.000392664 -0.000329325 -6.8345e-07
-0.018823 -4.51751e-21 0.00090356 0.0365118 -0.0304272 -3.1305e-05
0.0188705 -4.51751e-21 0.0002483 2.62189e-05 -2.18424e-05 3.31366e-08
-0.0188706 -2.25875e-21 0.000248266 0.0114881 -0.00951426 1.09184e-05
-0.0186437 0 0.002939 0.0108772 -0.0092878 7.02245e-05
0.0186438 0 0.00293906 0.000181133 -0.000146223 -6.76203e-08
-0.0189391 0 0.00154412 0.0470633 -0.0393124 -7.90855e-05
0.0189391 0 0.00154419 0.000635993 -0.000530191 1.41009e-06
0.0187701 -9.74088e-21 0.00318665 5.4981e-07 -4.8562e-07 -4.30042e-09
-0.0187699 1.43996e-20 0.00318654 2.80749e-05 -2.48238e-05 6.61438e-07
0.0188367 -1.35525e-20 0.00285269 0.000267153 -0.000223952 -6.9505e-07
-0.0188367 -1.35525e-20 0.00285269 0.0162867 -0.0139285 0.00012569
0.0190684 0 6.42265e-10 0 0 0
-0.0190684 1.35525e-20 6.42229e-10 0 0 0
-0.018947 0 0.00220299 0.0416818 -0.0348663 -0.000181031
0.018947 2.71051e-20 0.00220303 0.000606596 -0.000503114 1.96218e-06
-0.0189611 6.77626e-21 0.00294132 0.0144058 -0.0124376 0.000194981
0.0189611 0 0.00294137 0.000247777 -0.000211942 -1.243e-06
-0.0192376 0 4.16948e-10 0 0 0
0.0192376 -2.71051e-20 4.16969e-10 0 0 0
0.0192505 6.77626e-21 0.000578858 0.00021542 -0.000181797 -2.45474e-07
-0.0192506 2.25875e-21 0.000578833 0.026843 -0.022345 -4.11481e-06
-0.0192654 -9.03502e-21 0.00120337 0.0449977 -0.0376039 -0.000113698
0.0192654 0 0.0012034 0.000554128 -0.000464606 8.50799e-07
-0.0192728 6.77626e-21 0.00186871 0.0475522 -0.0397791 -0.000229735
0.0192728 4.51751e-21 0.00186874 0.000672715 -0.0005598 2.35512e-06
-0.0190865 2.71051e-20 0.00329541 0 0 0
0.0190867 2.71051e-20 0.00329547 0 0 0
-0.0193938 0 3.58644e-10 0 0 0
0.0193938 -2.71051e-20 3.58662e-10 0 0 0
0.0193936 -1.35525e-20 0.000130553 1.21772e-06 -8.88125e-07 -4.63132e-08
-0.0193936 -4.06576e-20 0.000130545 0.00653684 -0.00541016 4.10637e-05
-0.0191339 0 0.00323263 0.00429448 -0.00361237 2.4767e-05
0.019134 0 0.00323272 6.89653e-05 -5.71674e-05 -3.29197e-07
-0.0192591 4.51751e-21 0.00254519 0.0334671 -0.0281524 -0.000111477
0.0192591 0 0.00254522 0.000517904 -0.000429487 1.15963e-06
-0.0192048 0 0.003336 0 0 0
0.0192049 1.35525e-20 0.00333604 0 0 0
-0.0193217 2.93638e-21 0.00298746 0.0189031 -0.0161036 5.16887e-05
0.0193218 -1.58113e-21 0.0029875 0.00031174 -0.000259465 -3.77295e-07
0.0195688 0 0.000280898 2.52098e-06 -1.82085e-06 -3.27708e-08
-0.0195688 -2.71051e-20 0.00028089 0.0137868 -0.0114067 7.4435e-05
0.0195891 -2.71051e-20 0.000871761 0.000450807 -0.000383033 6.95201e-08
-0.0195891 2.71051e-20 0.000871755 0.042082 -0.0351622 -6.54559e-05
-0.019374 1.35525e-20 0.0032822 0.00659272 -0.00561623 -1.36503e-05
0.019374 -1.35525e-20 0.00328227 0.000107901 -9.11451e-05 -3.03144e-07
-0.0196057 0 0.00151348 0.0524393 -0.0439535 -0.000274224
0.0196057 2.71051e-20 0.0015135 0.000715566 -0.000597678 3.11917e-06
-0.0193742 -2.71051e-20 0.00339404 0 0 0
0.0193743 0 0.00339406 0 0 0
-0.0196063 -5.42101e-20 0.0021914 0.0496245 -0.0414928 -0.000378861
0.0196063 0 0.00219141 0.000739597 -0.00061405 2.99626e-06
0.0197445 0 1.1881e-10 0 0 0
-0.0197445 0 1.1881e-10 0 0 0
0.0197496 -1.35525e-20 0.000118775 1.10786e-06 -8.07998e-07 -4.21348e-08
-0.0197497 0 0.000118767 0.00594708 -0.00492205 3.73588e-05
-0.0196349 -5.42101e-20 0.00277709 0.0320998 -0.02715 -7.1639e-05
0.019635 -2.71051e-20 0.00277712 0.00052825 -0.000439648 6.49327e-07
-0.0195953 0 0.00324376 0.0129753 -0.0111738 1.92885e-05
0.0195954 0 0.0032438 0.000210646 -0.000178876 -1.16132e-06
-0.0198869 1.35525e-20 6.23641e-11 0 0 0
0.0198869 1.35525e-20 6.23597e-11 0 0 0
0.0199025 2.25875e-21 0.000551642 0.000222278 -0.000187839 -1.89455e-07
-0.0199025 9.03502e-21 0.00055164 0.0278293 -0.0232275 2.78223e-05
-0.0196372 -2.71051e-20 0.00348423 0 0 0
0.0196374 0 0.0034843 0 0 0
-0.0199263 5.64689e-21 0.00116493 0.0484514 -0.0406464 -0.000223955
0.0199263 0 0.00116493 0.00060057 -0.000504189 1.70646e-06
-0.0197065 1.35525e-20 0.0033997 0.00638777 -0.00544164 -1.3226e-05
0.0197066 1.35525e-20 0.00339978 0.000104579 -8.83395e-05 -2.93813e-07
-0.0200175 -1.35525e-20 0.000104927 0.00543636 -0.00451094 0.000154836
0.0200175 -1.35525e-20 0.000104918 9.92647e-07 -7.27639e-07 5.9916e-08
-0.020018 0 5.47768e-11 0 0 0
0.0200181 0 5.47745e-11 0 0 0
-0.0199354 -2.25875e-21 0.00184109 0.0537749 -0.0451435 -0.000428187
0.0199355 -2.25875e-21 0.0018411 0.000777476 -0.000648317 4.28007e-06
-0.0199397 -2.25875e-21 0.00250609 0.0443237 -0.0371949 -0.000386969
0.0199397 -1.12938e-21 0.0025061 0.000694883 -0.000577621 3.41552e-06
-0.0198048 -1.35525e-20 0.00354162 0 0 0
0.0198049 2.71051e-20 0.00354168 0 0 0
-0.0199176 1.12938e-21 0.00307583 0.0247988 -0.0209565 -0.000212638
0.0199177 2.25875e-21 0.00307587 0.000412458 -0.000344281 1.49313e-06
-0.0202108 2.71051e-20 0.000262551 0.0133615 -0.0110798 0.000226184
0.0202108 0 0.000262544 2.47571e-06 -1.76269e-06 2.07758e-07
-0.0202372 -2.71051e-20 0.000828952 0.0434398 -0.0364154 -0.000106058
0.0202372 0 0.00082895 0.000453868 -0.000382064 -1.07404e-06
-0.0199793 1.35525e-20 0.00344741 0.00871019 -0.00741801 -0.000133218
0.0199793 -1.35525e-20 0.00344747 0.000157354 -0.000133828 3.49856e-07
-0.0199876 -6.77626e-21 0.00360417 0 0 0
0.0199877 1.35525e-20 0.00360422 0 0 0
-0.0202612 2.71051e-20 0.00146953 0.0563491 -0.0474905 -0.000455037
0.0202612 0 0.00146953 0.000790637 -0.000661279 4.9114e-06
-0.0202614 2.71051e-20 0.00216708 0.0569951 -0.0479089 -0.000604086
0.0202614 -2.71051e-20 0.0021671 0.00086812 -0.000723825 6.14897e-06
-0.020424 0 1.48382e-11 0 0 0
0.0204241 0 1.48336e-11 0 0 0
-0.0204263 1.35525e-20 8.83618e-05 0.00457811 -0.00379879 0.000130391
0.0204264 -1.35525e-20 8.83583e-05 8.35974e-07 -6.12793e-07 5.04592e-08
-0.0201258 -2.71051e-20 0.00365147 0 0 0
0.020126 2.03288e-20 0.00365154 0 0 0
-0.0202574 0 0.00283409 0.0405857 -0.0339043 -0.000527564
0.0202575 -2.71051e-20 0.00283411 0.000672217 -0.000556889 4.15894e-06
-0.02023 -1.35525e-20 0.00346726 0.0122965 -0.0104803 -0.000197239
0.0202301 -8.13152e-21 0.00346732 0.000218789 -0.00018534 1.08172e-06
-0.0205366 0 8.07587e-12 0 0 0
0.0205367 -1.35525e-20 8.0725e-12 0 0 0
-0.0205431 1.12938e-21 0.000507235 0.0271547 -0.022723 1.15916e-05
0.0205431 0 0.000507233 0.000211989 -0.000179838 2.78236e-07
-0.0205806 0 0.00109806 0.0498573 -0.0420415 -0.000276089
0.0205806 -1.12938e-21 0.00109806 0.000620326 -0.000520619 3.76293e-06
-0.0206332 0 7.2332e-05 0.00417572 -0.00344907 0.000178607
0.0206332 0 7.23425e-05 9.80715e-07 -2.90581e-07 6.23774e-07
-0.0206362 0 7.47893e-12 0 0 0
0.0206362 1.35525e-20 7.47568e-12 0 0 0
-0.0203258 -1.35525e-20 0.00371988 0 0 0
0.020326 2.71051e-20 0.00371994 0 0 0
-0.0205919 -1.12938e-21 0.00179229 0.0588759 -0.0496533 -0.000636911
0.0205919 -4.51751e-21 0.00179229 0.000869591 -0.000724709 6.41704e-06
-0.0205776 1.12938e-21 0.00251302 0.052042 -0.0435118 -0.00084214
0.0205777 0 0.00251303 0.000838564 -0.000695563 5.2414e-06
-0.0204396 1.35525e-20 0.00376155 0 0 0
0.0204398 0 0.00376163 0 0 0
-0.0204726 -1.35525e-20 0.00364922 0.00730799 -0.00592799 -0.000162058
0.0204728 4.06576e-20 0.00364928 0.00014128 -0.000108169 1.22296e-06
-0.0205732 -3.76459e-22 0.00324396 0.0274809 -0.0228518 -0.000535121
0.0205733 -2.25875e-21 0.003244 0.000488472 -0.000401754 3.20126e-06
-0.0208433 -5.42101e-20 0.000231572 0.0125891 -0.0104086 8.44673e-05
0.0208434 0 0.000231569 2.85688e-06 -1.32419e-06 1.11113e-06
-0.0208763 2.71051e-20 0.000747796 0.0409974 -0.0344938 -0.000127
0.0208763 0 0.000747794 0.000414919 -0.000356397 9.6651e-07
-0.0209307 -2.71051e-20 0.00137566 0.0588019 -0.0499111 -0.00040664
0.0209307 0 0.00137566 0.000825964 -0.000686809 1.00765e-05
-0.0206256 0 0.00382199 0 0 0
0.0206258 6.77626e-21 0.00382207 0 0 0
-0.0209018 -2.71051e-20 0.00213753 0.0634217 -0.0533815 -0.00106725
0.0209018 2.71051e-20 0.00213753 0.000992624 -0.00082606 4.91299e-06
-0.0207137 0 0.00385276 0 0 0
0.0207138 0 0.00385283 0 0 0
-0.0208885 0 0.00285883 0.0486404 -0.0401107 -0.00119575
0.0208886 2.71051e-20 0.00285885 0.000842527 -0.000693257 5.80247e-06
-0.0207601 -1.35525e-20 0.00376298 0.00548668 -0.00471621 1.07352e-05
0.0207602 0 0.00376308 0.00011905 -0.000102462 -6.66491e-07
0.0211429 3.01167e-21 0.0004345 0.00015095 -0.000127968 5.05988e-07
-0.0211429 3.01167e-21 0.000434502 0.0243184 -0.0205685 -0.000344927
-0.020841 -2.25875e-21 0.00362679 0.014592 -0.0123115 -9.97164e-05
0.0208411 2.25875e-21 0.00362684 0.00030596 -0.000257474 -6.11093e-07
-0.0208387 -6.77626e-21 0.00389825 0 0 0
0.0208388 1.35525e-20 0.0038983 0 0 0
-0.0212597 0 5.25669e-13 0 0 0
0.0212601 -4.65868e-21 5.198e-13 0 0 0
-0.0212767 2.5411e-21 1.41099e-05 0.000782579 -0.00066315 -1.51018e-05
-0.0212768 0 1.74179e-06 4.85476e-05 -4.00294e-05 -5.4798e-06
0.0212769 -4.65868e-21 1.38726e-05 4.81013e-06 -4.06601e-06 3.77059e-08
0.0212813 -4.23516e-22 1.45874e-06 7.513e-09 -9.97296e-09 -8.43154e-09
0.0212895 0 2.69474e-13 0 0 0
-0.0212896 0 2.7104e-13 0 0 0
-0.0212723 7.52918e-22 0.000878984 0.0426768 -0.0364606 -0.000397557
0.0212724 -1.50584e-21 0.000878975 0.000487191 -0.000409622 4.88678e-06
-0.0212427 -4.51751e-22 0.00171816 0.0624212 -0.0528638 -0.000936051
0.0212427 3.38813e-22 0.00171814 0.000933595 -0.00077792 8.23785e-06
-0.0212146 1.12938e-21 0.00249693 0.0595573 -0.0496582 -0.00149999
0.0212146 -3.38813e-21 0.00249694 0.000988043 -0.000814789 8.99159e-06
-0.0210353 0 0.00398139 0 0 0
0.0210355 0 0.00398146 0 0 0
-0.021178 0 0.00323686 0.036834 -0.0301931 -0.00115736
0.0211781 0 0.00323687 0.000678616 -0.000553994 6.58815e-06
-0.0210737 0 0.00393726 0.00357652 -0.00290037 -5.54528e-05
0.0210738 0 0.00393731 6.70807e-05 -5.39758e-05 2.76078e-07
-0.0211186 1.35525e-20 0.00402021 0 0 0
0.0211188 0 0.0040203 0 0 0
-0.0212476 8.87368e-22 0.00368161 0.0209369 -0.0170749 -0.00067426
0.0212478 -4.03349e-22 0.00368166 0.000407887 -0.000330919 3.68419e-06
-0.0215747 -2.71051e-20 0.00130736 0.0600985 -0.0512876 -0.000532991
0.0215747 0 0.00130737 0.000869108 -0.000733532 5.49059e-06
-0.0212486 0 0.00397488 0.00602435 -0.00488267 -0.000207665
0.0212488 0 0.00397493 0.000118645 -9.57123e-05 1.73391e-06
-0.0212527 1.35525e-20 0.00408538 0 0 0
0.021253 -6.77626e-21 0.00408549 0 0 0
-0.0216407 -7.52918e-22 0.00033173 0.0208926 -0.0183814 -0.000708685
0.0216408 0 0.000331723 2.46412e-05 -2.18999e-05 4.8525e-06
-0.0215441 -2.71051e-20 0.00209926 0.0701497 -0.059193 -0.00179998
0.0215442 2.71051e-20 0.00209926 0.00111002 -0.00091792 1.28216e-05
-0.0215225 0 0.00284518 0.0568589 -0.0466985 -0.00194769
0.0215225 0 0.0028452 0.00101629 -0.000829954 1.25504e-05
-0.0217961 0 7.94919e-14 0 0 0
0.0217961 1.35525e-20 7.91737e-14 0 0 0
-0.0215506 0 0.00347094 0.0354875 -0.0286778 -0.00146861
0.0215507 0 0.00347097 0.000687946 -0.000559352 8.88517e-06
-0.0214959 0 0.00395189 0.0143832 -0.0117603 -0.000519975
0.0214961 1.35525e-20 0.00395193 0.00027747 -0.000225008 2.96215e-06
-0.0214983 6.77626e-21 0.00420475 0 0 0
0.0214984 6.77626e-21 0.00420479 0 0 0
-0.0218606 0 0.00170493 0.0666858 -0.0565249 -0.00138986
0.0218606 6.11746e-22 0.0017049 0.00103241 -0.000855598 1.34744e-05
-0.0219212 -2.03288e-21 0.000827127 0.0418136 -0.0364398 -0.000779684
0.0219212 -2.25875e-22 0.00082711 0.000482219 -0.000404773 1.02376e-05
-0.0219609 1.35525e-20 4.02034e-14 0 0 0
0.021961 -1.35525e-20 4.01314e-14 0 0 0
-0.0218494 -1.12938e-21 0.00247003 0.0664192 -0.0555382 -0.00211887
0.0218494 0 0.00247004 0.0011359 -0.000930416 1.65828e-05
-0.0216145 0 0.00413981 0.00673983 -0.00546256 -0.000232328
0.0216145 1.35525e-20 0.00413983 0.000132727 -0.000107073 1.93971e-06
-0.0216502 1.35525e-20 0.00427857 0 0 0
0.0216503 0 0.00427863 0 0 0
-0.0218421 1.12938e-21 0.00317495 0.0500152 -0.0407739 -0.0020785
0.0218422 -2.25875e-21 0.00317496 0.000933568 -0.000758518 1.57095e-05
-0.0217324 0 0.00431835 0 0 0
0.0217325 0 0.00431843 0 0 0
-0.0217583 0 0.00423555 0.00550282 -0.0042963 -0.000351839
0.0217584 1.35525e-20 0.0042356 0.000108976 -8.24245e-05 2.31307e-06
-0.0221733 0 2.81576e-14 0 0 0
0.0221735 -6.77626e-21 2.80965e-14 0 0 0
0.021866 0 0.00385231 0.000497986 -0.000403006 9.77996e-06
-0.021866 -7.05861e-23 0.00385234 0.0255847 -0.0205289 -0.00128602
-0.0222021 -2.71051e-20 0.00129532 0.0625738 -0.0530859 -0.00110613
0.0222022 0 0.00129532 0.000924879 -0.000766713 1.57873e-05
0.0222508 -7.05861e-23 0.00033038 5.7461e-06 3.93104e-06 -7.50919e-07
-0.0222515 3.5293e-23 0.000329552 0.020558 -0.0195107 -0.000848494
-0.0221694 2.71051e-20 0.00208071 0.0749671 -0.0635409 -0.00213643
0.0221694 -2.71051e-20 0.00208072 0.00123275 -0.00101044 2.08652e-05
-0.0218631 -1.35525e-20 0.00438174 0 0 0
0.0218633 1.35525e-20 0.00438183 0 0 0
0.0223211 0 1.21342e-14 0 0 0
-0.0223212 6.77626e-21 1.21355e-14 0 0 0
-0.0221597 -2.71051e-20 0.00282094 0.0640854 -0.0530774 -0.00258864
0.0221598 -2.71051e-20 0.00282094 0.00118748 -0.000965948 2.01356e-05
-0.0221457 0 0.00350913 0.0458952 -0.0365636 -0.00241569
0.0221457 -5.42101e-20 0.00350915 0.000883804 -0.000712134 2.2059e-05
-0.0220148 -6.77626e-21 0.00445531 0 0 0
0.0220149 6.77626e-21 0.00445537 0 0 0
-0.0225415 0 1.22276e-15 0 0 0
0.0225416 0 1.23378e-15 0 0 0
-0.0221394 1.12938e-21 0.00425961 0.0124879 -0.0102664 -0.00048793
0.0221395 1.12938e-21 0.00425967 0.000272356 -0.000230877 4.15089e-06
-0.0224964 1.77877e-20 0.00168456 0.0694758 -0.0590226 -0.00167106
0.0224964 -4.23516e-22 0.0016846 0.00111813 -0.000914893 2.15665e-05
-0.0225021 0 0.00168479 0.0695648 -0.0590967 -0.00167882
0.0225021 0 0.00168483 0.00112017 -0.000916412 2.16938e-05
0.0225129 0 0.00168799 0.00112176 -0.000917517 2.17975e-05
-0.022513 0 0.00168798 0.0695924 -0.0591283 -0.00167855
-0.022576 2.71051e-21 0.000874276 0.0439599 -0.0383035 -0.00107311
0.0225761 4.51751e-21 0.000874269 0.000548522 -0.000455284 1.32979e-05
-0.0225135 -7.26028e-22 0.00242345 0.0703228 -0.0590014 -0.00241528
0.0225136 6.45358e-22 0.00242345 0.00125011 -0.00101652 2.34627e-05
-0.0224593 -2.25875e-21 0.00318123 0.0586173 -0.0477552 -0.00275709
0.0224593 0 0.00318124 0.0011163 -0.000902142 2.23642e-05
-0.0223019 -3.38813e-21 0.00459436 0 0 0
0.022302 -3.38813e-21 0.00459437 0 0 0
-0.0224349 -9.03502e-22 0.00390505 0.0344384 -0.0271869 -0.00209584
0.022435 9.48677e-21 0.00390508 0.000672702 -0.000544028 1.72454e-05
-0.0228059 -1.27055e-20 8.70912e-16 0 0 0
0.0228061 4.23516e-22 8.77264e-16 0 0 0
-0.022811 2.96462e-21 2.46648e-05 0.00153809 -0.001419 -5.8692e-05
0.0228111 0 2.39222e-05 1.10349e-06 -7.47916e-07 8.93449e-07
-0.0223412 3.38813e-21 0.00461337 0 0 0
0.0223413 3.38813e-21 0.00461342 0 0 0
0.0228141 4.23516e-22 8.58194e-16 0 0 0
-0.0228142 2.5411e-20 8.51405e-16 0 0 0
-0.0228118 -1.12938e-21 0.000334117 0.0209504 -0.0191011 -0.000740538
0.0228118 -1.12938e-21 0.000334137 7.11384e-05 -5.79763e-05 1.07639e-05
-0.022347 0 0.00460685 0.000575452 -0.000454471 -3.86809e-05
0.0223471 0 0.00460689 1.06468e-05 -8.6471e-06 7.92646e-08
-0.0223545 0 0.00461977 0 0 0
0.0223546 0 0.00461984 0 0 0
-0.0223623 1.01644e-20 0.00458505 0.00206152 -0.00161028 -0.000143704
0.0223624 1.69407e-21 0.00458505 4.03036e-05 -3.28801e-05 1.1086e-06
-0.0223809 0 0.0046121 0.00141266 -0.00108977 -0.000128555
0.022381 0 0.00461216 2.22957e-05 -1.82807e-05 1.08213e-06
-0.0223957 0 0.00463972 0 0 0
0.0223958 0 0.00463983 0 0 0
-0.0225314 0 0.00433167 0.0198645 -0.0154235 -0.00132938
0.0225315 0 0.00433171 0.00040157 -0.000332837 1.07114e-05
-0.0227767 -2.71051e-20 0.00282452 0.0697945 -0.0579762 -0.00289477
0.0227767 0 0.00282454 0.00133063 -0.00107795 2.3317e-05
-0.0229169 2.71051e-20 0.00145351 0.066959 -0.0572294 -0.00159535
0.022917 0 0.00145354 0.00112096 -0.000909647 2.36609e-05
-0.0229127 2.71051e-20 0.001952 0.0753553 -0.0642655 -0.00202572
0.0229127 0 0.001952 0.00130008 -0.00105201 3.26463e-05
-0.0227583 -2.71051e-20 0.00352775 0.0556587 -0.0442951 -0.00314189
0.0227583 -2.71051e-20 0.00352777 0.0010801 -0.000866678 2.40451e-05
-0.0226788 -1.35525e-20 0.00436549 0.0223751 -0.0172393 -0.00164552
0.0226789 -1.35525e-20 0.00436553 0.00043355 -0.000358053 1.46681e-05
-0.0231146 0 6.24631e-16 0 0 0
0.0231146 0 6.26477e-16 0 0 0
-0.0231263 -5.64689e-22 0.000857356 0.0414396 -0.0360128 -0.00105164
0.0231264 1.12938e-21 0.000857382 0.000526033 -0.000435708 1.22185e-05
-0.0231204 0 0.00168686 0.0714125 -0.0611083 -0.00175712
0.0231204 0 0.00168687 0.00122384 -0.000990826 2.82253e-05
-0.0226912 0 0.00478277 0 0 0
0.0226912 1.35525e-20 0.00478283 0 0 0
-0.0231332 -9.88205e-22 0.00244156 0.0742317 -0.0624692 -0.00265371
0.0231332 -8.47033e-22 0.00244157 0.00138645 -0.00111728 2.79034e-05
-0.0227888 0 0.00466799 0.0111814 -0.00862567 -0.00101753
0.0227889 -1.35525e-20 0.00466803 0.000176162 -0.000144439 8.55008e-06
-0.0230834 1.12938e-21 0.00317456 0.0661914 -0.0540736 -0.00325711
0.0230835 1.12938e-21 0.00317458 0.00129051 -0.00103644 2.5914e-05
-0.023319 0 3.10971e-16 0 0 0
0.0233191 6.77626e-21 3.12101e-16 0 0 0
-0.0230283 1.35525e-20 0.00391292 0.0464865 -0.036484 -0.00299448
0.0230284 0 0.00391294 0.00090315 -0.000720372 2.41004e-05
-0.02333 -2.71051e-20 0.00142276 0.0678485 -0.0584891 -0.00152702
0.02333 0 0.00142278 0.00114375 -0.000928638 2.66858e-05
-0.0233168 0 0.00194192 0.0760125 -0.0650948 -0.0019652
0.0233168 0 0.00194194 0.00137234 -0.00110653 3.24908e-05
-0.0228965 1.35525e-20 0.0048822 0 0 0
0.0228966 0 0.00488226 0 0 0
-0.0234102 0 0.000267243 0.0149865 -0.0134283 -0.000308093
0.0234102 2.25875e-21 0.000267244 3.4486e-05 -3.81211e-05 4.34887e-06
-0.0229986 3.01167e-21 0.0043906 0.0297242 -0.0227009 -0.00226113
0.0229987 -2.25875e-21 0.00439064 0.000552818 -0.000440135 1.78754e-05
0.0235162 1.35525e-20 1.75957e-16 0 0 0
-0.0235162 6.77626e-21 1.74953e-16 0 0 0
-0.0234234 0 0.00278585 0.0756319 -0.0631353 -0.00325379
0.0234234 2.71051e-20 0.00278586 0.00148194 -0.00118789 2.71025e-05
-0.0230651 0 0.00496382 0 0 0
0.0230652 -2.71051e-20 0.00496388 0 0 0
-0.0233787 0 0.00352562 0.0642462 -0.0514237 -0.00373557
0.0233787 0 0.00352564 0.00127759 -0.00102021 2.90036e-05
-0.0237161 1.35525e-20 -1.12818e-16 0 0 0
0.0237161 1.35525e-20 -1.126e-16 0 0 0
-0.0232668 -1.807e-21 0.00471662 0.0212596 -0.0155108 -0.00202761
0.0232669 -1.35525e-21 0.00471667 0.000378312 -0.000300525 1.27983e-05
-0.0233857 0 0.00417634 0.0474925 -0.0364705 -0.00344088
0.0233857 0 0.00417637 0.000896951 -0.00070495 2.64087e-05
-0.0232203 6.77626e-21 0.00503892 0 0 0
0.0232204 -1.35525e-20 0.00503899 0 0 0
-0.0237642 1.97641e-21 0.000871715 0.0415706 -0.0362722 -0.00086176
0.0237642 2.82344e-22 0.000871732 0.000582112 -0.000479512 9.04517e-06
-0.0237897 0 9.69712e-05 0.00544755 -0.00459479 -6.95099e-06
0.0237897 -1.35525e-20 9.70283e-05 1.5074e-05 -1.04373e-05 -1.90282e-06
-0.0237941 1.35525e-20 4.97247e-16 0 0 0
0.0237942 -1.35525e-20 5.01214e-16 0 0 0
-0.0237454 -4.23516e-22 0.00168598 0.0718013 -0.0619689 -0.00171751
0.0237454 -9.88205e-22 0.00168599 0.00130325 -0.00105194 2.75041e-05
-0.0238504 1.35525e-20 -3.63004e-16 0 0 0
0.0238505 0 -3.63597e-16 0 0 0
-0.0237771 9.03502e-22 0.00232532 0.0757618 -0.064164 -0.00268109