# k  POINT_DATA 25961
# x  y  z  k
0.01 0 8.31199e-08 2.26567e-08
-0.01 0 8.31199e-08 8.67888e-10
-0.01 0 0.00067832 1.10572e-09
0.01 0 0.00067832 2.63116e-08
0.0100157 7.75482e-26 0.000677127 2.70396e-08
-0.01 0 0.00137372 1.32259e-09
0.01 0 0.00137372 2.92869e-08
0.0100746 0 0.00135804 2.80256e-08
-0.01 0 0.002087 1.56097e-09
0.01 0 0.002087 3.42979e-08
-0.0102613 0 0.000329046 8.67834e-10
0.0102613 2.71051e-20 0.000329046 2.26566e-08
0.0102561 2.71051e-20 0.000988366 3.0017e-08
-0.0102561 -2.71051e-20 0.000988366 1.34688e-09
0.0102356 2.71051e-20 0.00161953 2.85465e-08
-0.0102356 0 0.00161953 1.29795e-09
0.0105293 -4.1359e-25 8.89198e-08 7.84399e-08
-0.0105293 0 8.68458e-08 3.507e-09
0.0105282 -2.06795e-25 0.000279278 6.63014e-08
-0.0105268 -2.08425e-20 0.000638363 2.37258e-09
0.0105268 -1.52449e-21 0.000638362 5.06895e-08
-0.0105159 1.65436e-24 0.0012653 1.08191e-09
0.0105159 -2.13925e-20 0.0012653 2.0568e-08
-0.0105028 -1.06839e-20 0.0017228 1.23588e-09
0.0105028 -1.34979e-20 0.0017228 2.57175e-08
-0.010496 2.71051e-20 0.00202291 1.7943e-09
0.010496 -2.71051e-20 0.00202291 3.94006e-08
0.0104977 0 0.00235078 4.75989e-08
-0.0104977 0 0.00235077 2.23587e-09
-0.0108033 2.71051e-20 0.000314595 6.18146e-09
0.0108033 2.71051e-20 0.000314594 1.3497e-07
-0.0108031 2.71051e-20 0.00093799 1.14588e-09
0.0108031 0 0.00093799 1.63649e-08
-0.01079 -2.71051e-20 0.00152732 5.65225e-10
0.01079 -2.71051e-20 0.00152732 7.84263e-09
-0.0110754 0 7.36178e-09 1.03649e-08
0.0110754 0 6.46274e-09 1.55484e-07
0.01108 0 0.000208299 1.32813e-07
-0.0110889 0 0.000613667 6.66093e-09
0.0110889 -2.63209e-21 0.000613666 8.86926e-08
-0.0108991 2.71051e-20 0.00228385 2.67386e-09
0.0108991 5.42101e-20 0.00228385 5.57309e-08
0.010988 -2.7115e-20 0.00190078 2.46162e-08
-0.010988 0 0.00190081 1.50561e-09
-0.0110831 -1.65436e-24 0.00123268 1.93433e-09
0.0110831 1.26559e-20 0.00123266 1.36197e-08
0.0109863 0 0.00260985 5.7763e-08
-0.0109863 6.61744e-24 0.00260985 2.86119e-09
0.0113733 0 0.000305239 1.76421e-07
-0.0113733 0 0.000305239 1.46344e-08
-0.0113913 0 0.000918847 4.54807e-09
0.0113913 0 0.000918847 2.4208e-08
0.0112123 1.12761e-20 0.00231934 4.23059e-08
-0.0112123 2.62713e-21 0.00231934 2.20345e-09
-0.0113682 -2.71051e-20 0.00155884 1.57461e-09
0.0113682 -2.71051e-20 0.00155884 6.21269e-09
0.0114039 -5.42101e-20 0.00209577 1.11977e-08
-0.0114039 2.71051e-20 0.00209577 8.74031e-10
0.011595 2.58494e-26 2.35794e-09 1.8363e-07
0.0113392 -2.71051e-20 0.00255892 5.97669e-08
-0.0113392 0 0.00255892 3.04594e-09
-0.0116471 0 3.40354e-09 5.70678e-08
0.0116471 0 2.32037e-09 1.86453e-07
-0.0116865 0 0.000598049 3.56365e-08
0.0116865 2.92168e-20 0.000598049 1.0733e-07
-0.0117045 0 0.00122297 8.561e-09
0.0117045 -1.815e-20 0.00122297 1.67927e-08
0.0114599 0 0.00285977 9.25951e-08
-0.0114598 0 0.00285975 4.78397e-09
0.0117133 2.22677e-20 0.00184588 1.08389e-08
-0.0117133 3.30872e-24 0.00184588 2.89473e-09
0.0116596 1.99913e-20 0.00239949 5.42688e-08
-0.0116596 0 0.00239948 3.23061e-09
0.0119676 2.71051e-20 0.000293859 1.96672e-07
-0.0119676 2.71051e-20 0.000293859 1.00287e-07
-0.0120019 -1.03398e-25 9.94023e-10 2.37693e-07
-0.0120131 2.71051e-20 0.000895955 2.09907e-08
0.0120131 0 0.000895956 2.75057e-08
0.0120433 5.42101e-20 0.00152444 8.65469e-09
-0.0120433 2.71051e-20 0.00152444 6.9402e-09
-0.0118604 -5.42101e-20 0.00273055 6.49321e-09
0.0118604 -2.71051e-20 0.00273056 1.24878e-07
0.0120387 -2.71051e-20 0.00217273 1.73416e-08
-0.0120387 0 0.00217273 2.4164e-09
0.0122418 -4.1359e-25 3.11206e-09 1.88148e-07
-0.0122418 -1.03398e-25 1.04582e-09 3.59791e-07
-0.0122568 2.06795e-25 0.000136244 3.23611e-07
0.0119119 0 0.00310459 1.23204e-07
-0.0119119 6.61744e-24 0.00310459 5.94195e-09
0.0123043 -2.01443e-20 0.000568947 1.08693e-07
-0.0123043 -1.23721e-20 0.000568945 2.08705e-07
0.01236 5.58512e-21 0.00118123 1.78994e-08
-0.01236 -8.27181e-25 0.00118125 2.8652e-08
-0.0124541 -1.03398e-25 1.48697e-10 4.02379e-07
0.0123814 1.50017e-20 0.00184432 1.02923e-08
-0.0123814 0 0.00184434 8.38727e-09
-0.0125711 2.71051e-20 0.000269458 6.21922e-07
0.0125711 -2.71051e-20 0.000269458 1.79538e-07
0.0123374 -1.70498e-20 0.00258488 6.0427e-08
-0.0123374 -5.93254e-21 0.00258488 4.91726e-09
0.0122817 0 0.00299995 1.21557e-07
-0.0122817 -2.71051e-20 0.00299995 5.39953e-09
0.0126475 -2.71051e-20 0.000839063 2.66714e-08
-0.0126475 0 0.000839063 6.84142e-08
0.0123472 -3.30872e-24 0.00333734 1.09876e-07
-0.0123472 0 0.00333734 4.69611e-09
-0.0127108 2.71051e-20 0.0014705 1.74682e-08
0.0127108 2.71051e-20 0.0014705 8.41543e-09
0.0128491 1.65436e-24 5.01678e-09 1.36874e-07
-0.0128491 0 1.4199e-09 4.81636e-07
0.0127172 2.71051e-20 0.00217074 6.7498e-09
-0.0127172 0 0.00217074 7.06312e-09
0.0129129 1.7772e-20 0.000505056 8.68032e-08
-0.0129129 0 0.000505053 2.76613e-07
0.0125922 1.71011e-20 0.00303079 8.02014e-08
-0.0125922 -2.95667e-20 0.00303079 4.23221e-09
0.0130203 -4.5313e-21 0.00108239 2.42392e-08
-0.0130203 0 0.0010824 4.63913e-08
0.012793 5.42101e-20 0.00278388 1.88071e-08
-0.012793 0 0.00278388 3.30178e-09
0.0127108 -5.42101e-20 0.00327268 9.83529e-08
-0.0127108 2.71051e-20 0.00327268 4.00215e-09
0.0131383 2.71051e-20 0.000218112 9.40901e-08
-0.0131383 2.71051e-20 0.000218112 3.40957e-07
0.013073 -1.26559e-22 0.0017651 9.19769e-09
-0.013073 0 0.00176511 2.16452e-08
0.0127674 0 0.00356123 9.6029e-08
-0.0127674 -1.65436e-24 0.00356123 3.50547e-09
-0.0132689 0 0.000719701 6.60744e-08
0.0132689 0 0.0007197 4.52297e-08
0.0130872 1.59067e-21 0.00246807 9.96817e-09
-0.0130872 0 0.00246808 1.49151e-08
0.0133746 2.37649e-20 0.000406313 1.84802e-07
-0.0133746 1.82459e-20 0.000406306 2.45696e-07
0.0134599 0 1.02233e-08 2.58573e-07
-0.0134599 8.27181e-25 3.72109e-09 3.33909e-07
0.0130916 1.83692e-20 0.00314268 4.92999e-08
-0.0130916 2.06795e-25 0.00314268 8.06542e-09
-0.0134186 -2.71051e-20 0.00131377 3.09906e-08
0.0134186 2.71051e-20 0.00131377 1.51075e-08
0.013075 0 0.00349045 9.37284e-08
-0.013075 0 0.00349045 3.01375e-09
-0.013162 4.1359e-25 0.00325434 8.11203e-09
-0.0134232 0 0.00207248 3.08548e-08
0.0134232 5.42101e-20 0.00207248 7.07023e-09
0.0132078 0 0.00332703 5.66745e-08
-0.0132595 0 0.00312606 2.147e-08
-0.0136984 0 0.000300358 3.2686e-07
0.0136984 -2.71051e-20 0.000300357 4.23081e-07
0.013418 -5.42101e-20 0.00277569 6.5948e-09
-0.013418 0 0.00277569 2.00242e-08
0.0131762 -2.06795e-25 0.0037788 8.91677e-08
-0.0131762 0 0.0037788 6.51015e-09
-0.0131848 5.16988e-26 0.00376504 6.60405e-09
0.0133596 0 0.00311615 3.48001e-08
-0.0131928 -1.03398e-25 0.00378881 9.30801e-09
0.0132283 0 0.00369585 8.10921e-08
-0.013523 -2.06795e-25 0.00243331 5.12117e-08
0.0137612 -1.41729e-20 0.000786143 1.81596e-07
-0.0137612 2.14405e-20 0.000786151 1.47983e-07
-0.0133341 0 0.00352736 8.22599e-09
0.0133341 -3.4254e-20 0.00352736 6.4688e-08
0.0132767 -2.06795e-25 0.00383951 9.8878e-08
0.0137678 -5.15334e-22 0.00165537 2.34558e-08
-0.0137678 0 0.00165538 6.36303e-08
-0.013482 2.71051e-20 0.00331696 1.1619e-08
0.013482 0 0.00331696 1.5616e-08
-0.0137612 0 0.00191385 6.57903e-08
0.0137268 -2.58494e-26 0.00241705 1.03239e-08
0.013749 0 0.00239287 1.07236e-08
-0.0137484 0 0.00241533 6.99813e-08
0.0137484 -2.58494e-26 0.00241533 1.03359e-08
-0.013458 2.71051e-20 0.00374223 9.98306e-09
0.013458 -5.42101e-20 0.00374223 8.46376e-08
0.0140709 0 3.70269e-08 3.89759e-07
-0.0140709 0 9.99199e-09 2.7343e-07
-0.0137488 2.11378e-20 0.00307762 6.05466e-08
0.0137488 -1.73452e-20 0.00307762 1.37476e-08
-0.0135651 8.27181e-25 0.00401367 7.21859e-08
0.0135651 0 0.00401367 1.26737e-07
0.0141231 2.71051e-20 0.00120897 5.63652e-08
-0.0141231 0 0.00120897 8.15225e-08
-0.0137164 -1.92146e-20 0.00361036 6.20294e-08
0.0137164 7.00457e-21 0.00361036 7.38552e-08
0.014089 0 0.00201377 1.77356e-08
-0.014089 2.71051e-20 0.00201377 1.10246e-07
-0.0142657 5.42101e-20 0.000418222 2.19457e-07
0.0142657 2.71051e-20 0.000418221 3.56099e-07
-0.014069 -2.71051e-20 0.0027392 1.19379e-07
0.014069 0 0.0027392 1.04059e-08
0.0138967 0 0.00392747 1.68667e-07
-0.0138967 0 0.00392747 1.34139e-07
0.0140496 0 0.00340311 2.19498e-08
-0.0140496 0 0.00340311 9.97096e-08
-0.0143919 -6.46235e-27 0.00161694 1.86141e-07
0.014441 0 0.00161392 5.37946e-08
-0.014441 2.83767e-21 0.00161391 1.95785e-07
-0.0144454 -1.16322e-25 0.00157999 2.01216e-07
0.0145429 1.93395e-20 0.000823379 2.70597e-07
-0.0145429 0 0.000823363 3.22351e-07
-0.0139237 0 0.00428406 2.59221e-07
0.0139237 -1.65436e-24 0.00428406 1.62729e-07
0.0143988 2.58494e-26 0.0023483 2.29485e-08
-0.014397 9.51671e-21 0.00237994 2.53811e-07
0.014397 0 0.00237994 2.16194e-08
0.0144898 0 0.00237022 2.51078e-08
-0.0143653 -4.95068e-21 0.00309536 2.70458e-07
0.0143653 0 0.00309537 1.70755e-08
0.0147022 0 4.94613e-08 4.62207e-07
-0.0147022 -1.65436e-24 1.20861e-08 4.8152e-07
-0.014305 3.55117e-20 0.00382188 2.83635e-07
0.014305 8.27181e-25 0.00382188 8.17217e-08
0.0142451 0 0.00421792 1.56803e-07
-0.0142451 0 0.00421792 3.8403e-07
0.0147298 -8.13152e-20 0.00200539 3.67455e-08
-0.0147298 0 0.00200539 3.20553e-07
-0.0148165 0 0.00124392 2.63461e-07
0.0148165 0 0.00124392 1.0468e-07
-0.0149179 1.03398e-25 0.000896435 6.09749e-07
-0.0149609 0 2.9798e-17 7.87634e-07
0.014711 -2.71051e-20 0.00272495 2.18726e-08
-0.014711 -2.71051e-20 0.00272495 4.60378e-07
-0.0149557 0 0.000461616 7.27209e-07
0.0149557 0 0.000461611 5.61688e-07
-0.0142802 0 0.00455258 6.27086e-07
0.0142802 -8.27181e-25 0.00455258 1.4515e-07
0.0146561 0 0.00344874 1.42003e-08
-0.0146561 2.71051e-20 0.00344874 4.17607e-07
-0.014516 -1.6116e-20 0.00427159 5.48989e-07
0.014516 8.44882e-21 0.0042716 1.06647e-07
0.0150861 3.43148e-20 0.00165189 7.99945e-08
-0.0150861 -1.64128e-21 0.00165188 4.39912e-07
0.014707 0 0.0040482 2.70352e-08
-0.014707 -2.71051e-20 0.0040482 3.84039e-07
0.0151175 0 0.00230446 4.87012e-08
-0.0151175 1.62417e-21 0.00230446 7.15695e-07
0.0150684 -2.06795e-25 0.00261829 4.15143e-08
0.0146108 0 0.00452168 1.33512e-07
-0.0146108 0 0.00452168 8.69839e-07
-0.0149933 -3.80007e-20 0.00309786 9.09141e-07
0.0149933 4.1359e-25 0.00309786 3.05319e-08
0.0153398 2.56277e-20 0.000978644 3.77064e-07
-0.0153398 1.2094e-20 0.000978635 9.33036e-07
0.0153745 0 1.29805e-08 6.36846e-07
-0.0153745 0 2.22893e-08 1.27716e-06
-0.0146354 0 0.00482017 1.27309e-06
0.0146354 0 0.00482017 1.29702e-07
-0.0149803 6.29567e-21 0.0037633 8.86158e-07
0.0149803 -8.27181e-25 0.0037633 2.35721e-08
0.0153272 0 0.00275021 5.15176e-08
-0.0153272 -2.71051e-20 0.00275021 1.2371e-06
-0.0149658 -1.06954e-21 0.00441692 1.11037e-06
0.0149658 8.27181e-25 0.00441693 6.9027e-08
-0.014927 -2.71051e-20 0.00477488 1.67601e-06
0.014927 -5.42101e-20 0.00477488 1.25896e-07
0.0152999 0 0.00342236 3.43562e-08
-0.0152999 2.71051e-20 0.00342236 1.49709e-06
0.015716 5.42101e-20 0.00173426 1.0722e-07
-0.015716 5.42101e-20 0.00173426 8.94211e-07
0.0152841 -5.42101e-20 0.00407715 1.87402e-08
-0.0152841 2.71051e-20 0.00407715 1.29623e-06
0.0149898 0 0.00508707 1.23243e-07
-0.0149898 0 0.00508707 2.42729e-06
0.0156647 -4.1359e-25 0.00240043 9.03367e-08
-0.0156647 -1.56624e-20 0.00240043 1.56324e-06
-0.0158727 1.0842e-19 0.000520994 2.19432e-06
0.0158727 -5.42101e-20 0.000520992 7.62185e-07
0.0156354 1.03398e-25 0.00287872 7.90767e-08
-0.0151702 -3.72645e-22 0.00482145 2.04262e-06
0.0151702 8.2991e-21 0.00482145 9.08065e-08
-0.015623 -1.63432e-20 0.00308126 1.99946e-06
0.015623 0 0.00308126 7.43084e-08
-0.0153271 2.71051e-20 0.00461022 1.26667e-06
0.0153271 0 0.00461022 2.46387e-08
0.0156022 0 0.00374982 5.25679e-08
-0.0156022 1.15971e-21 0.00374982 2.43099e-06
-0.0151797 1.03398e-25 0.00523007 3.65298e-06
0.015269 -2.71051e-20 0.00505544 1.20593e-07
-0.015269 2.71051e-20 0.00505544 3.17779e-06
0.0159605 0 0.00272817 1.1639e-07
-0.0159605 0 0.00272817 2.25293e-06
-0.0155971 -2.10666e-20 0.0043751 2.53817e-06
0.0155971 0 0.0043751 3.65699e-08
-0.0160322 0 0.00235138 1.69963e-06
-0.0153431 1.03398e-25 0.00535318 4.70817e-06
0.0153431 -1.29247e-26 0.00535318 1.77372e-07
-0.0154076 0 0.0052069 4.34764e-06
0.0159183 5.42101e-20 0.00340547 9.53436e-08
-0.0159183 -2.71051e-20 0.00340547 2.99423e-06
0.0155359 0 0.00491577 1.06773e-07
-0.0155359 1.41866e-20 0.00491577 3.63012e-06
-0.0159245 2.71051e-20 0.00405169 3.91372e-06
0.0159245 2.71051e-20 0.00405169 6.23058e-08
0.0163947 -2.47708e-20 0.00113361 5.18409e-07
-0.0163947 0 0.0011336 2.21132e-06
0.0161888 -5.16988e-26 0.00306055 1.43718e-07
0.0164795 0 4.5134e-08 8.64156e-07
-0.0164795 0 7.53989e-09 3.42486e-06
-0.0163851 -5.16988e-26 0.00180393 1.99195e-06
-0.0162478 0 0.00305839 2.67886e-06
0.0162478 0 0.00305839 1.50961e-07
0.0163779 -1.93548e-20 0.00230526 1.73649e-07
-0.0163779 0 0.00230525 1.8279e-06
0.0156904 -2.71051e-20 0.00524875 2.3408e-07
-0.0156904 -2.71051e-20 0.00524875 6.23664e-06
0.0162566 -1.29247e-26 0.00314393 1.493e-07
0.0158759 2.71051e-20 0.00471202 4.3002e-08
-0.0158759 -2.71051e-20 0.00471202 3.89002e-06
-0.0165637 -2.06795e-25 0.00113717 2.35557e-06
0.0156951 0 0.00561829 2.25819e-07
-0.0156951 0 0.00561829 6.41678e-06
0.0163084 0 0.00364992 1.39473e-07
-0.0163084 0 0.00364992 3.88784e-06
0.016199 0 0.00441125 8.62947e-08
-0.016199 2.63777e-20 0.00441125 4.88867e-06
-0.016068 5.16988e-26 0.00518819 5.97316e-06
0.0161146 -1.43821e-20 0.00513441 1.27552e-07
-0.0161146 1.76055e-20 0.00513441 5.91769e-06
-0.016031 0 0.0055414 6.59666e-06
0.016031 -2.71051e-20 0.0055414 2.1757e-07
-0.0169948 0 1.57361e-20 4.19047e-06
-0.0165964 0 0.00369035 4.43862e-06
-0.0161687 5.16988e-26 0.00526118 6.11519e-06
0.0165301 0 0.00408038 1.68736e-07
-0.0165301 2.71051e-20 0.00408038 5.33788e-06
0.0170241 -5.42101e-20 0.0005776 9.64126e-07
-0.0170241 0 0.000577601 4.63128e-06
0.0169741 5.42101e-20 0.00175445 2.11035e-07
-0.0169741 5.42101e-20 0.00175445 1.05286e-06
-0.0160456 4.1359e-25 0.00588233 6.7621e-06
0.0160456 0 0.00588233 2.05732e-07
0.0168708 -5.42101e-20 0.00304668 2.9506e-07
-0.0168708 -1.0842e-19 0.00304668 2.89927e-06
0.0164827 -5.42101e-20 0.00476235 7.35025e-08
-0.0164827 2.71051e-20 0.00476235 6.44207e-06
0.0168025 -6.46235e-27 0.00371927 2.72562e-07
0.0163092 7.98333e-21 0.00559034 1.56025e-07
-0.0163092 0 0.00559034 6.62799e-06
-0.0168571 0 0.00372694 4.93709e-06
0.0168571 0 0.00372694 2.87283e-07
0.0168524 -6.46235e-27 0.00384281 2.76606e-07
0.0165194 0 0.0053648 5.15139e-08
-0.0165194 -2.71051e-20 0.0053648 6.34159e-06
-0.0168333 -2.58494e-26 0.00431301 6.39407e-06
0.0168293 0 0.00441207 2.24152e-07
-0.0168293 6.46235e-27 0.00441207 6.64034e-06
-0.016393 -2.71051e-20 0.00584515 6.92733e-06
0.016393 2.71051e-20 0.00584515 1.93909e-07
-0.0163955 0 0.00614428 6.77137e-06
0.0163955 4.1359e-25 0.00614428 1.8921e-07
-0.0169489 0 0.00440665 6.85273e-06
0.0168096 0 0.00506989 1.16993e-07
-0.0168096 -1.29247e-26 0.00506989 8.52881e-06
-0.0168053 0 0.00515263 8.56712e-06
0.017623 3.30872e-24 2.17597e-08 9.92615e-07
-0.017623 -1.65436e-24 1.01887e-08 5.12366e-06
0.0175916 7.34536e-21 0.00115888 6.45431e-07
-0.0175916 0 0.00115887 3.23292e-06
-0.0171737 -2.71051e-20 0.004052 5.75582e-06
0.0171737 2.71051e-20 0.004052 3.95719e-07
0.0175442 2.16208e-20 0.00239621 4.50079e-07
-0.0175442 0 0.00239621 2.59402e-06
-0.0167746 0 0.00574376 8.84083e-06
0.0167746 5.16988e-26 0.00574376 1.18086e-07
-0.0171404 2.71051e-20 0.0047287 8.95413e-06
0.0171404 2.71051e-20 0.0047287 2.59789e-07
-0.016705 0 0.00611265 6.61559e-06
0.016705 0 0.00611265 1.84517e-07
0.0174986 -5.16988e-26 0.00354411 6.09213e-07
-0.0174986 0 0.00354412 5.39097e-06
-0.0167191 4.1359e-25 0.00643602 5.57409e-06
0.0167191 0 0.00643602 1.81812e-07
-0.0171168 -2.71051e-20 0.00539052 1.24851e-05
0.0171168 2.71051e-20 0.00539052 9.2413e-08
0.0174765 1.29247e-26 0.0041983 5.47439e-07
-0.0172565 0 0.00505616 1.05359e-05
-0.0174702 -5.16988e-26 0.00438304 7.77813e-06
0.0174702 0 0.00438304 5.29995e-07
-0.0169667 2.3884e-20 0.00617943 7.83112e-06
0.0169667 1.23494e-20 0.00617943 1.39006e-07
0.0174493 0 0.00505023 3.35015e-07
-0.0174493 0 0.00505023 1.1402e-05
-0.0171679 2.71051e-20 0.00597129 1.24898e-05
0.0171679 0 0.00597129 5.06623e-08
0.0182005 -1.0842e-19 0.00058338 1.02145e-06
-0.0182005 5.42101e-20 0.000583381 5.62204e-06
-0.017043 -2.71051e-20 0.00643779 4.53313e-06
0.017043 -2.71051e-20 0.00643779 1.79108e-07
0.0177879 2.71051e-20 0.00403219 8.10656e-07
-0.0177879 0 0.00403219 6.8826e-06
-0.0181761 -1.0842e-19 0.00178292 1.54257e-06
0.0181761 0 0.00178292 3.68584e-07
-0.0170214 4.1359e-25 0.00674884 4.62853e-06
0.0170214 -4.1359e-25 0.00674884 1.73771e-07
-0.0174458 0 0.00568734 1.45976e-05
0.0174458 -3.41019e-21 0.00568734 1.44251e-07
-0.0177804 -2.71051e-20 0.00470438 9.57997e-06
0.0177804 0 0.00470438 6.51631e-07
-0.0181642 -1.0842e-19 0.00305697 4.96507e-06
0.0181642 5.42101e-20 0.00305697 9.32551e-07
-0.0181317 -2.06795e-25 0.00370155 8.32939e-06
0.0181317 1.63857e-21 0.00370155 1.0921e-06
-0.01741 0 0.00635261 1.22755e-05
0.01741 -2.59746e-20 0.00635261 1.13903e-07
-0.0177702 -2.71051e-20 0.00535529 1.45341e-05
0.0177702 0 0.00535529 3.40764e-07
-0.0173274 0 0.00672747 4.72392e-06
0.0173274 -2.71051e-20 0.00672747 1.68434e-07
0.0181132 0 0.00420721 1.06878e-06
-0.0181076 3.26442e-21 0.00436205 1.06249e-05
0.0181076 6.46235e-27 0.00436205 1.06164e-06
-0.0173238 4.1359e-25 0.00706119 4.00453e-06
0.0173238 4.1359e-25 0.00706119 1.68149e-07
0.0177503 0 0.00600627 1.06189e-07
-0.0177503 2.71051e-20 0.00600627 1.90184e-05
-0.018098 -1.63446e-20 0.00501826 1.40643e-05
0.018098 0 0.00501826 7.99497e-07
-0.0187969 0 1.59693e-08 5.4815e-06
0.0187969 1.65436e-24 1.06448e-08 1.08497e-06
-0.0187878 0 0.00116731 4.60613e-06
0.0187878 3.70221e-20 0.00116731 8.23789e-07
-0.0175851 2.16202e-20 0.00679799 1.00734e-05
0.0175851 -5.35682e-21 0.00679799 1.30093e-07
-0.0184432 2.71051e-20 0.00401963 1.17008e-05
0.0184432 2.71051e-20 0.00401963 1.45361e-06
-0.0187844 0 0.00239454 6.6238e-06
0.0187844 -3.07554e-20 0.00239454 1.09665e-06
-0.0180831 0 0.00566925 1.77881e-05
0.0180831 0 0.00566925 4.22978e-07
0.0177912 0 0.00658995 5.10519e-08
-0.0177912 0 0.00658995 2.26735e-05
-0.0184158 -2.71051e-20 0.00467993 1.42602e-05
0.0184158 0 0.00467993 1.32227e-06
-0.0176529 -2.71051e-20 0.00706043 3.28502e-06
0.0176529 0 0.00706043 1.67863e-07
-0.0176264 -4.1359e-25 0.00737367 3.54307e-06
0.0176264 0 0.00737367 1.63485e-07
-0.0180712 2.58494e-26 0.00630777 2.09229e-05
0.0180712 0 0.00630777 1.58277e-07
-0.0184261 -2.71051e-20 0.0053197 1.78726e-05
0.0184261 -2.71051e-20 0.0053197 8.77674e-07
-0.0188515 2.06795e-25 0.00360143 1.28993e-05
0.0188515 0 0.00360143 1.84776e-06
0.0188003 -6.46235e-27 0.00397534 1.79555e-06
-0.0187497 -2.08725e-20 0.00434473 1.49847e-05
0.0187497 1.29247e-26 0.00434473 1.74397e-06
-0.018025 1.03398e-25 0.00697581 1.53062e-05
0.018025 0 0.00697581 1.09695e-07
-0.0183967 0 0.00598007 1.97818e-05
0.0183967 -2.71051e-20 0.00598007 3.81142e-07
0.0190444 -3.87741e-26 0.00361107 2.21066e-06
-0.0179363 0 0.0073519 3.80118e-06
0.0179363 -2.71051e-20 0.0073519 1.59106e-07
-0.0193896 5.42101e-20 0.000584898 5.34038e-06
0.0193896 0 0.000584906 1.14874e-06
-0.0188216 2.24226e-20 0.00491492 1.84963e-05
0.0188216 -2.43697e-20 0.00491492 1.5472e-06
-0.0193933 -5.42101e-20 0.00177944 5.86443e-06
0.0193933 0 0.00177943 7.43089e-07
-0.0179292 4.1359e-25 0.00768641 6.32816e-06
0.0179292 0 0.00768641 1.59297e-07
0.018369 0 0.00663164 1.09113e-07
-0.018369 0 0.00663164 2.20626e-05
-0.0187273 -2.57838e-20 0.00564917 2.03763e-05
0.0187273 0 0.00564917 9.53217e-07
-0.0194147 0 0.00301348 1.41843e-05
0.0194147 0 0.00301348 2.35576e-06
-0.0181958 -4.12143e-22 0.00742304 1.32189e-05
0.0181958 1.10958e-20 0.00742304 1.23762e-07
-0.0187015 1.86691e-20 0.00629873 2.18158e-05
0.0187015 2.11144e-21 0.00629873 4.48014e-07
0.0184056 2.71051e-20 0.00721495 4.97469e-08
-0.0184056 -2.71051e-20 0.00721495 2.7579e-05
-0.0190533 -5.42101e-20 0.0053245 2.15843e-05
0.0190533 -2.71051e-20 0.0053245 1.62063e-06
0.0182616 -2.71051e-20 0.0076859 1.59488e-07
-0.0182616 -2.71051e-20 0.0076859 8.85578e-06
0.0197137 5.16988e-26 0.00238644 2.07762e-06
-0.0193893 0 0.0043251 2.16175e-05
0.0193893 0 0.0043251 2.89756e-06
0.0182322 0 0.00799942 1.56153e-07
-0.0182322 0 0.00799942 8.41666e-06
-0.0186894 0 0.00693288 2.45906e-05
0.0186894 2.58494e-26 0.00693288 1.58267e-07
-0.019034 0 0.00596484 2.22646e-05
0.019034 0 0.00596484 9.26128e-07
-0.0199808 -1.65436e-24 1.15616e-08 4.82585e-06
0.0199808 0 1.81198e-09 1.25883e-06
-0.0193786 -5.16988e-26 0.00498454 2.17147e-05
0.0193786 1.29247e-26 0.00498454 2.28369e-06
-0.0199934 0 0.00116524 7.4958e-06
0.0199935 0 0.00116523 1.19627e-06
0.0200018 -5.16988e-26 0.00176843 1.78753e-06
-0.018638 0 0.00760163 1.91621e-05
0.018638 1.03398e-25 0.00760163 1.0559e-07
-0.0190175 -5.42101e-20 0.00660576 2.31838e-05
0.0190175 -5.42101e-20 0.00660576 3.82175e-07
-0.0200103 0 0.00238385 1.54194e-05
0.0200103 0 0.00238385 2.39077e-06
0.0201183 5.16988e-26 0.00116394 1.26539e-06
-0.0193626 0 0.005634 2.22935e-05
0.0193626 6.46235e-27 0.005634 1.72599e-06
0.0185453 0 0.00797801 1.52816e-07
-0.0185453 2.71051e-20 0.00797801 7.97742e-06
0.0185355 0 0.00831268 1.5433e-07
-0.0185355 0 0.00831268 1.1978e-05
0.020316 0 -1.46994e-28 1.32374e-06
-0.0189879 2.71051e-20 0.00725654 2.53017e-05
0.0189879 -2.71051e-20 0.00725654 1.06533e-07
-0.0193479 -3.73296e-20 0.00627375 2.31929e-05
0.0193479 0 0.00627375 1.02186e-06
-0.0200226 0 0.00365995 2.2515e-05
0.0200226 0 0.00365995 4.05114e-06
-0.019693 0 0.00529521 2.18948e-05
0.019693 -5.42101e-20 0.00529521 2.55182e-06
-0.0188066 3.8133e-21 0.00805004 1.73933e-05
0.0188066 2.79695e-20 0.00805004 1.20156e-07
-0.0193268 2.58494e-26 0.00692069 2.42849e-05
0.0193268 -2.58494e-26 0.00692069 4.54438e-07
-0.0196676 5.42101e-20 0.00594439 2.34085e-05
0.0196676 -2.71051e-20 0.00594439 1.8012e-06
-0.01902 0 0.00784265 2.86895e-05
0.01902 -2.71051e-20 0.00784265 4.88633e-08
-0.0205868 5.42101e-20 0.000581102 4.30975e-06
0.0205869 0 0.000581094 1.36926e-06
-0.0188712 0 0.00831333 1.598e-05
0.0188712 2.71051e-20 0.00831333 1.55845e-07
-0.020095 4.74981e-20 0.00487938 2.3709e-05
0.020095 1.80999e-20 0.00487938 3.71823e-06
-0.0206115 -5.42101e-20 0.00176879 1.45959e-05
0.0206115 5.42101e-20 0.00176879 1.52253e-06
-0.0188391 0 0.00862624 1.69351e-05
0.0188391 8.27181e-25 0.00862624 1.55961e-07
-0.0193074 -1.03398e-25 0.00756039 2.66045e-05
0.0193074 0 0.00756039 1.56572e-07
-0.0196738 -2.71051e-20 0.00657561 2.39186e-05
0.0196738 -2.71051e-20 0.00657561 9.69091e-07
-0.0200001 0 0.00561439 2.32693e-05
0.0200001 3.96488e-21 0.00561439 2.64579e-06
0.0206346 1.0842e-19 0.00301452 4.99016e-06
-0.0206346 5.42101e-20 0.00301452 2.72423e-05
0.0196391 5.42101e-20 0.00723369 3.74375e-07
-0.0196391 0 0.00723369 2.47654e-05
0.0192519 -2.06795e-25 0.00823155 1.07443e-07
-0.0192519 0 0.00823155 2.28435e-05
-0.0200715 -3.31551e-21 0.00617586 2.44924e-05
0.0200715 6.46235e-27 0.00617586 1.97221e-06
0.0191557 2.71051e-20 0.00860727 1.56076e-07
-0.0191557 2.71051e-20 0.00860727 1.78908e-05
-0.0206641 -1.0842e-19 0.00428079 2.70206e-05
0.0206641 5.42101e-20 0.00428079 5.94356e-06
0.0191433 8.27181e-25 0.00894011 1.64833e-07
-0.0191433 0 0.00894011 2.06515e-05
0.0196055 0 0.00788712 1.10778e-07
-0.0196055 0 0.00788712 2.74715e-05
-0.0199746 -7.72817e-21 0.0069041 2.50063e-05
0.0199746 1.29247e-26 0.0069041 1.03418e-06
-0.0211723 1.65436e-24 1.19397e-08 5.96442e-06
0.0211724 0 4.52929e-09 1.48962e-06
-0.0212048 -1.65436e-24 0.00115269 1.51322e-05
0.0212049 0 0.00115268 1.86736e-06
0.0194188 -2.94596e-20 0.0086858 1.29336e-07
-0.0194188 -3.17377e-20 0.0086858 2.22843e-05
-0.0199446 -5.16988e-26 0.00755308 2.6154e-05
0.0199446 0 0.00755308 4.66376e-07
0.0203041 2.71051e-20 0.00658402 1.83028e-06
-0.0203041 0 0.00658402 2.56114e-05
-0.0212384 8.27181e-25 0.0023678 2.73012e-05
0.0212384 0 0.0023678 4.57e-06
0.0206408 0 0.00559143 4.15387e-06
-0.0206408 -5.42101e-20 0.00559143 2.53594e-05
0.0196393 0 0.00847876 5.53058e-08
-0.0196393 -5.42101e-20 0.00847876 2.57017e-05
0.0194792 2.71051e-20 0.0089564 1.73595e-07
-0.0194792 2.71051e-20 0.0089564 2.34141e-05
-0.0194172 -8.27181e-25 0.00928185 2.56362e-05
0.0194172 0 0.00928186 1.77711e-07
-0.0202831 2.71051e-20 0.00722169 2.57346e-05
0.0202831 2.71051e-20 0.00722169 9.51899e-07
-0.0199297 2.75656e-20 0.00819016 2.64838e-05
0.0199297 -1.03398e-25 0.00819016 1.84725e-07
-0.0206294 4.84268e-21 0.00624638 2.53123e-05
0.0206294 6.46235e-27 0.00624638 2.91995e-06
-0.0212679 0 0.00364055 2.89839e-05
0.0212679 0 0.00364055 7.50422e-06
0.0202625 2.71051e-20 0.00786089 4.33273e-07
-0.0202625 5.42101e-20 0.00786089 2.66908e-05
-0.0206173 -1.84924e-20 0.00689381 2.52484e-05
0.0206173 0 0.00689381 2.02753e-06
-0.0198766 0 0.00887843 2.53283e-05
0.0198766 -2.06795e-25 0.00887843 1.2908e-07
-0.0217896 -5.42101e-20 0.000568406 7.62313e-06
0.0217897 -5.42101e-20 0.000568406 1.61026e-06
-0.0212798 1.03398e-25 0.00493138 2.62234e-05
0.0212798 -1.03398e-25 0.00493138 7.30481e-06
0.0197714 0 0.0092976 1.81831e-07
-0.0197714 2.71051e-20 0.0092976 2.78606e-05
-0.019669 0 0.00964181 2.43622e-05
0.019669 0 0.00964181 1.38152e-07
-0.0218374 0 0.00173743 3.43687e-05
0.0218374 -1.0842e-19 0.00173743 2.98342e-06
-0.0205995 0 0.0075318 2.56213e-05
0.0205995 0 0.0075318 1.1984e-06
0.0209456 0 0.00655441 3.22876e-06
-0.0209456 -2.71051e-20 0.00655441 2.50011e-05
-0.0202362 -5.42101e-20 0.00851518 2.61193e-05
0.0202362 -2.71051e-20 0.00851518 1.55266e-07
0.021882 5.42101e-20 0.00297573 8.84502e-06
-0.021882 0 0.00297573 3.30896e-05
-0.0205755 0 0.00817149 2.58863e-05
0.0205755 5.16988e-26 0.00817149 6.47241e-07
-0.0209362 5.42101e-20 0.00721472 2.46532e-05
0.0209362 -2.71051e-20 0.00721472 2.09349e-06
0.0199576 0 0.00972223 9.44304e-08
-0.0199576 0 0.00972223 2.08604e-05
-0.0200954 8.34625e-21 0.00945691 2.18465e-05
0.0200954 4.1359e-25 0.00945691 9.60357e-08
0.0213454 -3.79224e-21 0.00613816 5.18267e-06
-0.0213454 0 0.00613817 2.40876e-05
-0.0202913 0 0.0091201 2.36144e-05
0.0202913 0 0.0091201 7.29859e-08
-0.0199226 -8.27181e-25 0.0100021 1.88629e-05
0.0199226 -8.27181e-25 0.0100021 9.77028e-08
-0.0219071 5.42101e-20 0.00426287 2.86426e-05
0.0219071 -1.6263e-19 0.00426287 1.02683e-05
0.0212536 0 0.00687047 3.37538e-06
-0.0212536 0 0.00687047 2.40489e-05
-0.0209198 2.71051e-20 0.00783 2.54374e-05
0.0209198 0 0.00783 1.29724e-06
-0.0222349 2.06795e-25 0.00231824 3.62285e-05
-0.0223699 0 8.59575e-09 2.62612e-05
0.02237 0 1.06529e-08 1.65599e-06
-0.0205825 4.88367e-21 0.00880038 2.47519e-05
0.0205825 -1.03398e-25 0.00880038 3.19914e-07
-0.0223673 5.16988e-26 0.00111511 3.36641e-05
-0.0224227 5.16988e-26 0.00107137 3.42675e-05
-0.0201854 3.83857e-20 0.00982489 1.76463e-05
0.0201854 8.94679e-21 0.00982489 7.65357e-08
-0.0224248 -7.65802e-20 0.00111325 3.45804e-05
0.0224249 0 0.00111326 2.74125e-06
-0.0222602 -1.03398e-25 0.00359676 3.04294e-05
0.0208973 5.42101e-20 0.00847326 7.07501e-07
-0.0208973 0 0.00847326 2.52912e-05
-0.020392 -2.71051e-20 0.00967037 1.51854e-05
0.020392 0 0.00967037 3.3619e-08
0.0202271 0 0.0100702 1.00979e-07
-0.0202271 -5.42101e-20 0.0100702 1.68636e-05
0.0224885 -8.27181e-25 0.00230561 7.59132e-06
-0.0224885 4.35242e-20 0.00230562 3.85009e-05
-0.0219242 -5.42101e-20 0.0055407 2.39095e-05
0.0219242 0 0.0055407 8.8358e-06
-0.0206219 2.06795e-25 0.00940243 1.99165e-05
0.0206219 0 0.00940243 1.39567e-07
0.0201769 0 0.0103635 1.04942e-07
-0.0201769 0 0.0103635 1.43071e-05
-0.0214053 0 0.00750768 2.38313e-05
0.0214053 6.51345e-21 0.00750768 2.76756e-06
-0.0212331 -1.26051e-20 0.0081501 2.46555e-05
0.0212331 -2.58494e-26 0.0081501 1.53825e-06
-0.0227454 8.27181e-25 -8.97294e-36 3.63285e-05
-0.0222376 0 0.00490354 2.49913e-05
0.0225307 0 0.00358481 1.24325e-05
-0.0225307 4.80054e-20 0.00358482 3.08234e-05
-0.0209306 -2.71051e-20 0.009079 2.40202e-05
0.0209306 0 0.009079 3.50633e-07
-0.0205788 -3.71061e-20 0.0100354 1.4109e-05
0.0205788 0 0.0100354 8.38589e-08
0.0218832 1.0842e-19 0.00683353 5.66534e-06
-0.0218832 -5.42101e-20 0.00683353 2.14926e-05
-0.0220903 0 0.00617273 2.17734e-05
-0.02047 0 0.0103922 1.17487e-05
0.02047 2.71051e-20 0.0103922 1.08907e-07
-0.0229944 -5.42101e-20 0.000536085 4.49441e-05
0.0229945 0 0.000536078 1.70182e-06
-0.0213123 -1.20898e-21 0.00869943 2.36494e-05
0.0213123 -2.58494e-26 0.00869943 1.17152e-06
-0.020909 -2.71051e-20 0.00972034 1.75582e-05
0.020909 0 0.00972034 1.18073e-07
0.0225437 0 0.00489464 1.30569e-05
-0.0225437 1.64738e-21 0.00489464 2.45975e-05
0.0204318 0 0.0107257 1.20159e-07
-0.0204318 0 0.0107257 1.03774e-05
-0.0230802 5.42101e-20 0.00165832 5.13713e-05
0.0230803 -5.42101e-20 0.00165833 4.71755e-06
-0.0212246 0 0.00940472 2.1013e-05
0.0212246 -5.16988e-26 0.00940472 5.7594e-07
0.0207156 3.86198e-20 0.0104897 9.89932e-08
-0.0207156 -3.64125e-21 0.0104897 9.95552e-06
0.0209353 0 0.0102994 5.55477e-08
-0.0209353 -2.71051e-20 0.0102994 9.05568e-06
-0.0231589 0 0.00287977 3.50916e-05
0.0231589 0 0.00287976 1.39164e-05
-0.0218885 5.42101e-20 0.00814494 2.23118e-05
0.0218885 5.42101e-20 0.00814494 3.2908e-06
0.0225301 -1.6632e-20 0.00619313 1.131e-05
-0.0225301 -2.90288e-20 0.00619313 2.0407e-05
0.0207613 5.42101e-20 0.0107635 1.31414e-07
-0.0207613 0 0.0107635 9.00546e-06
-0.0215469 0 0.00909429 2.24373e-05
0.0215469 0 0.00909429 1.20514e-06
0.0212144 0 0.0100278 2.58655e-07
-0.0212144 -4.58186e-21 0.0100278 1.4291e-05
0.020687 -8.27181e-25 0.0110884 1.39048e-07
-0.020687 0 0.0110884 6.99045e-06
-0.0231865 0 0.00419035 2.65801e-05
0.0231866 0 0.00419035 1.67181e-05
0.0218725 0 0.00877017 2.62854e-06
-0.0218725 0 0.00877017 2.23421e-05
-0.0235735 0 1.78781e-08 5.85299e-05
0.0235737 0 1.46761e-08 1.63169e-06
-0.0215348 -2.71051e-20 0.00971336 1.99887e-05
0.0215348 -2.71051e-20 0.00971337 6.30905e-07
-0.0224336 -2.42338e-27 0.00748097 1.98085e-05
-0.0236424 -4.84893e-20 0.00102426 5.88489e-05
0.0236425 -3.30872e-24 0.00102426 3.39656e-06
0.0211543 4.7385e-21 0.0107041 1.38324e-07
-0.0211543 -1.03398e-25 0.0107041 7.90512e-06
0.0225191 2.6493e-20 0.00747875 8.81102e-06
-0.0225191 5.12412e-20 0.00747875 1.94742e-05
0.0218553 2.58494e-26 0.00939598 1.91142e-06
-0.0218553 1.29247e-26 0.00939598 2.13791e-05
0.021043 0 0.011115 1.46683e-07