# omega  POINT_DATA 25961
# x  y  z  omega
0.01 0 8.31199e-08 955.268
-0.01 0 8.31199e-08 955.265
-0.01 0 0.00067832 1086.73
0.01 0 0.00067832 1086.73
0.0100157 7.75482e-26 0.000677127 1078.11
-0.01 0 0.00137372 1329.83
0.01 0 0.00137372 1329.84
0.0100746 0 0.00135804 1249.98
-0.01 0 0.002087 1185.47
0.01 0 0.002087 1185.48
-0.0102613 0 0.000329046 955.264
0.0102613 2.71051e-20 0.000329046 955.266
0.0102561 2.71051e-20 0.000988366 1220.01
-0.0102561 -2.71051e-20 0.000988366 1220.01
0.0102356 2.71051e-20 0.00161953 1441.24
-0.0102356 0 0.00161953 1441.24
0.0105293 -4.1359e-25 8.89198e-08 882.41
-0.0105293 0 8.68458e-08 882.4
0.0105282 -2.06795e-25 0.000279278 845.464
-0.0105268 -2.08425e-20 0.000638363 799.881
0.0105268 -1.52449e-21 0.000638362 797.946
-0.0105159 1.65436e-24 0.0012653 780.058
0.0105159 -2.13925e-20 0.0012653 777.773
-0.0105028 -1.06839e-20 0.0017228 901.865
0.0105028 -1.34979e-20 0.0017228 901.322
-0.010496 2.71051e-20 0.00202291 958.562
0.010496 -2.71051e-20 0.00202291 958.566
0.0104977 0 0.00235078 1134.7
-0.0104977 0 0.00235077 1134.69
-0.0108033 2.71051e-20 0.000314595 808.563
0.0108033 2.71051e-20 0.000314594 808.579
-0.0108031 2.71051e-20 0.00093799 237.757
0.0108031 0 0.00093799 230.148
-0.01079 -2.71051e-20 0.00152732 246.159
0.01079 -2.71051e-20 0.00152732 244.42
-0.0110754 0 7.36178e-09 833.356
0.0110754 0 6.46274e-09 833.374
0.01108 0 0.000208299 725.653
-0.0110889 0 0.000613667 518.044
0.0110889 -2.63209e-21 0.000613666 516.016
-0.0108991 2.71051e-20 0.00228385 1309.4
0.0108991 5.42101e-20 0.00228385 1309.41
0.010988 -2.7115e-20 0.00190078 597.105
-0.010988 0 0.00190081 596.243
-0.0110831 -1.65436e-24 0.00123268 187.581
0.0110831 1.26559e-20 0.00123266 185.274
0.0109863 0 0.00260985 1565.48
-0.0109863 6.61744e-24 0.00260985 1565.48
0.0113733 0 0.000305239 858.679
-0.0113733 0 0.000305239 858.659
-0.0113913 0 0.000918847 153.53
0.0113913 0 0.000918847 152.886
0.0112123 1.12761e-20 0.00231934 1148
-0.0112123 2.62713e-21 0.00231934 1146.26
-0.0113682 -2.71051e-20 0.00155884 108.844
0.0113682 -2.71051e-20 0.00155884 109.833
0.0114039 -5.42101e-20 0.00209577 296.517
-0.0114039 2.71051e-20 0.00209577 291.276
0.011595 2.58494e-26 2.35794e-09 886.891
0.0113392 -2.71051e-20 0.00255892 1818.01
-0.0113392 0 0.00255892 1818.01
-0.0116471 0 3.40354e-09 892.242
0.0116471 0 2.32037e-09 892.259
-0.0116865 0 0.000598049 527.696
0.0116865 2.92168e-20 0.000598049 527.369
-0.0117045 0 0.00122297 122.187
0.0117045 -1.815e-20 0.00122297 122.261
0.0114599 0 0.00285977 1336.74
-0.0114598 0 0.00285975 1336.73
0.0117133 2.22677e-20 0.00184588 161.311
-0.0117133 3.30872e-24 0.00184588 159.684
0.0116596 1.99913e-20 0.00239949 809.627
-0.0116596 0 0.00239948 808.5
0.0119676 2.71051e-20 0.000293859 926.461
-0.0119676 2.71051e-20 0.000293859 926.448
-0.0120019 -1.03398e-25 9.94023e-10 964.721
-0.0120131 2.71051e-20 0.000895955 151.562
0.0120131 0 0.000895956 150.848
0.0120433 5.42101e-20 0.00152444 74.1246
-0.0120433 2.71051e-20 0.00152444 73.411
-0.0118604 -5.42101e-20 0.00273055 863.459
0.0118604 -2.71051e-20 0.00273056 863.473
0.0120387 -2.71051e-20 0.00217273 152.079
-0.0120387 0 0.00217273 152.87
0.0122418 -4.1359e-25 3.11206e-09 1013.71
-0.0122418 -1.03398e-25 1.04582e-09 1013.71
-0.0122568 2.06795e-25 0.000136244 913.557
0.0119119 0 0.00310459 995.36
-0.0119119 6.61744e-24 0.00310459 995.342
0.0123043 -2.01443e-20 0.000568947 595.088
-0.0123043 -1.23721e-20 0.000568945 595.461
0.01236 5.58512e-21 0.00118123 114.368
-0.01236 -8.27181e-25 0.00118125 114.946
-0.0124541 -1.03398e-25 1.48697e-10 1145.71
0.0123814 1.50017e-20 0.00184432 90.3523
-0.0123814 0 0.00184434 92.5494
-0.0125711 2.71051e-20 0.000269458 1101.87
0.0125711 -2.71051e-20 0.000269458 1101.84
0.0123374 -1.70498e-20 0.00258488 517.126
-0.0123374 -5.93254e-21 0.00258488 520.843
0.0122817 0 0.00299995 1125.14
-0.0122817 -2.71051e-20 0.00299995 1125.12
0.0126475 -2.71051e-20 0.000839063 170.977
-0.0126475 0 0.000839063 171.767
0.0123472 -3.30872e-24 0.00333734 1333.08
-0.0123472 0 0.00333734 1333.07
-0.0127108 2.71051e-20 0.0014705 61.3224
0.0127108 2.71051e-20 0.0014705 59.8291
0.0128491 1.65436e-24 5.01678e-09 1391.34
-0.0128491 0 1.4199e-09 1391.37
0.0127172 2.71051e-20 0.00217074 74.7142
-0.0127172 0 0.00217074 81.9015
0.0129129 1.7772e-20 0.000505056 820.079
-0.0129129 0 0.000505053 818.632
0.0125922 1.71011e-20 0.00303079 986.882
-0.0125922 -2.95667e-20 0.00303079 990.545
0.0130203 -4.5313e-21 0.00108239 136.322
-0.0130203 0 0.0010824 135.621
0.012793 5.42101e-20 0.00278388 251.206
-0.012793 0 0.00278388 262.557
0.0127108 -5.42101e-20 0.00327268 1538.22
-0.0127108 2.71051e-20 0.00327268 1538.21
0.0131383 2.71051e-20 0.000218112 1681.65
-0.0131383 2.71051e-20 0.000218112 1681.68
0.013073 -1.26559e-22 0.0017651 60.6028
-0.013073 0 0.00176511 68.0434
0.0127674 0 0.00356123 1703.44
-0.0127674 -1.65436e-24 0.00356123 1703.43
-0.0132689 0 0.000719701 237.004
0.0132689 0 0.0007197 243.732
0.0130872 1.59067e-21 0.00246807 123.519
-0.0130872 0 0.00246808 141.717
0.0133746 2.37649e-20 0.000406313 949.181
-0.0133746 1.82459e-20 0.000406306 946.975
0.0134599 0 1.02233e-08 1284.26
-0.0134599 8.27181e-25 3.72109e-09 1284.28
0.0130916 1.83692e-20 0.00314268 884.121
-0.0130916 2.06795e-25 0.00314268 903.613
-0.0134186 -2.71051e-20 0.00131377 64.5246
0.0134186 2.71051e-20 0.00131377 62.6177
0.013075 0 0.00349045 1867.01
-0.013075 0 0.00349045 1866.99
-0.013162 4.1359e-25 0.00325434 1113.59
-0.0134232 0 0.00207248 65.3293
0.0134232 5.42101e-20 0.00207248 46.9355
0.0132078 0 0.00332703 1231.41
-0.0132595 0 0.00312606 737.03
-0.0136984 0 0.000300358 886.823
0.0136984 -2.71051e-20 0.000300357 886.818
0.013418 -5.42101e-20 0.00277569 108.501
-0.013418 0 0.00277569 144.218
0.0131762 -2.06795e-25 0.0037788 2211.49
-0.0131762 0 0.0037788 2211.48
-0.0131848 5.16988e-26 0.00376504 2179.5
0.0133596 0 0.00311615 603.46
-0.0131928 -1.03398e-25 0.00378881 2195.25
0.0132283 0 0.00369585 2012.66
-0.013523 -2.06795e-25 0.00243331 113.596
0.0137612 -1.41729e-20 0.000786143 358.677
-0.0137612 2.14405e-20 0.000786151 356.7
-0.0133341 0 0.00352736 1626.99
0.0133341 -3.4254e-20 0.00352736 1608.78
0.0132767 -2.06795e-25 0.00383951 2113
0.0137678 -5.15334e-22 0.00165537 56.9776
-0.0137678 0 0.00165538 68.6565
-0.013482 2.71051e-20 0.00331696 448.654
0.013482 0 0.00331696 393.891
-0.0137612 0 0.00191385 78.9949
0.0137268 -2.58494e-26 0.00241705 65.6361
0.013749 0 0.00239287 63.4837
-0.0137484 0 0.00241533 99.0538
0.0137484 -2.58494e-26 0.00241533 63.6818
-0.013458 2.71051e-20 0.00374223 2553.65
0.013458 -5.42101e-20 0.00374223 2553.66
0.0140709 0 3.70269e-08 673.208
-0.0140709 0 9.99199e-09 673.2
-0.0137488 2.11378e-20 0.00307762 251.409
0.0137488 -1.73452e-20 0.00307762 195.965
-0.0135651 8.27181e-25 0.00401367 1830.41
0.0135651 0 0.00401367 1830.41
0.0141231 2.71051e-20 0.00120897 82.2552
-0.0141231 0 0.00120897 77.9466
-0.0137164 -1.92146e-20 0.00361036 1150.47
0.0137164 7.00457e-21 0.00361036 1119.76
0.014089 0 0.00201377 38.322
-0.014089 2.71051e-20 0.00201377 67.6061
-0.0142657 5.42101e-20 0.000418222 457.404
0.0142657 2.71051e-20 0.000418221 457.425
-0.014069 -2.71051e-20 0.0027392 117.318
0.014069 0 0.0027392 60.2208
0.0138967 0 0.00392747 1110.06
-0.0138967 0 0.00392747 1110.06
0.0140496 0 0.00340311 188.316
-0.0140496 0 0.00340311 262.532
-0.0143919 -6.46235e-27 0.00161694 71.67
0.014441 0 0.00161392 58.2261
-0.014441 2.83767e-21 0.00161391 71.9073
-0.0144454 -1.16322e-25 0.00157999 79.4913
0.0145429 1.93395e-20 0.000823379 251.242
-0.0145429 0 0.000823363 248.657
-0.0139237 0 0.00428406 1215.04
0.0139237 -1.65436e-24 0.00428406 1215.03
0.0143988 2.58494e-26 0.0023483 42.9068
-0.014397 9.51671e-21 0.00237994 89.1512
0.014397 0 0.00237994 42.2468
0.0144898 0 0.00237022 41.222
-0.0143653 -4.95068e-21 0.00309536 167.18
0.0143653 0 0.00309537 94.5175
0.0147022 0 4.94613e-08 415.144
-0.0147022 -1.65436e-24 1.20861e-08 415.141
-0.014305 3.55117e-20 0.00382188 681.343
0.014305 8.27181e-25 0.00382188 626.927
0.0142451 0 0.00421792 1319.77
-0.0142451 0 0.00421792 1319.8
0.0147298 -8.13152e-20 0.00200539 33.7482
-0.0147298 0 0.00200539 68.7664
-0.0148165 0 0.00124392 73.3624
0.0148165 0 0.00124392 79.4138
-0.0149179 1.03398e-25 0.000896435 227.412
-0.0149609 0 2.9798e-17 388.284
0.014711 -2.71051e-20 0.00272495 36.8007
-0.014711 -2.71051e-20 0.00272495 102.36
-0.0149557 0 0.000461616 375.519
0.0149557 0 0.000461611 375.505
-0.0142802 0 0.00455258 1459.87
0.0142802 -8.27181e-25 0.00455258 1459.81
0.0146561 0 0.00344874 86.3582
-0.0146561 2.71051e-20 0.00344874 179.512
-0.014516 -1.6116e-20 0.00427159 1113.18
0.014516 8.44882e-21 0.0042716 1075.09
0.0150861 3.43148e-20 0.00165189 52.9729
-0.0150861 -1.64128e-21 0.00165188 66.8843
0.014707 0 0.0040482 276.275
-0.014707 -2.71051e-20 0.0040482 393.17
0.0151175 0 0.00230446 34.2914
-0.0151175 1.62417e-21 0.00230446 77.8637
0.0150684 -2.06795e-25 0.00261829 40.0625
0.0146108 0 0.00452168 1599.68
-0.0146108 0 0.00452168 1599.77
-0.0149933 -3.80007e-20 0.00309786 119.629
0.0149933 4.1359e-25 0.00309786 48.8814
0.0153398 2.56277e-20 0.000978644 202.844
-0.0153398 1.2094e-20 0.000978635 203.515
0.0153745 0 1.29805e-08 345.262
-0.0153745 0 2.22893e-08 345.335
-0.0146354 0 0.00482017 1693.47
0.0146354 0 0.00482017 1693.33
-0.0149803 6.29567e-21 0.0037633 233.79
0.0149803 -8.27181e-25 0.0037633 133.628
0.0153272 0 0.00275021 28.8184
-0.0153272 -2.71051e-20 0.00275021 78.8345
-0.0149658 -1.06954e-21 0.00441692 951.081
0.0149658 8.27181e-25 0.00441693 870.41
-0.014927 -2.71051e-20 0.00477488 1787.09
0.014927 -5.42101e-20 0.00477488 1786.9
0.0152999 0 0.00342236 44.4677
-0.0152999 2.71051e-20 0.00342236 118.923
0.015716 5.42101e-20 0.00173426 41.0949
-0.015716 5.42101e-20 0.00173426 53.9911
0.0152841 -5.42101e-20 0.00407715 112.872
-0.0152841 2.71051e-20 0.00407715 226.598
0.0149898 0 0.00508707 1964.47
-0.0149898 0 0.00508707 1964.75
0.0156647 -4.1359e-25 0.00240043 29.7318
-0.0156647 -1.56624e-20 0.00240043 60.3425
-0.0158727 1.0842e-19 0.000520994 295
0.0158727 -5.42101e-20 0.000520992 294.825
0.0156354 1.03398e-25 0.00287872 30.8619
-0.0151702 -3.72645e-22 0.00482145 1497.76
0.0151702 8.2991e-21 0.00482145 1435.39
-0.015623 -1.63432e-20 0.00308126 77.3037
0.015623 0 0.00308126 31.3405
-0.0153271 2.71051e-20 0.00461022 547.545
0.0153271 0 0.00461022 358.578
0.0156022 0 0.00374982 59.652
-0.0156022 1.15971e-21 0.00374982 126.697
-0.0151797 1.03398e-25 0.00523007 1735.99
0.015269 -2.71051e-20 0.00505544 2141.86
-0.015269 2.71051e-20 0.00505544 2142.23
0.0159605 0 0.00272817 23.9781
-0.0159605 0 0.00272817 46.9498
-0.0155971 -2.10666e-20 0.0043751 287.203
0.0155971 0 0.0043751 179.357
-0.0160322 0 0.00235138 52.4387
-0.0153431 1.03398e-25 0.00535318 1539.05
0.0153431 -1.29247e-26 0.00535318 1538.5
-0.0154076 0 0.0052069 1361.1
0.0159183 5.42101e-20 0.00340547 28.2909
-0.0159183 -2.71051e-20 0.00340547 64.7666
0.0155359 0 0.00491577 943.287
-0.0155359 1.41866e-20 0.00491577 1006.93
-0.0159245 2.71051e-20 0.00405169 96.8412
0.0159245 2.71051e-20 0.00405169 53.0792
0.0163947 -2.47708e-20 0.00113361 157.475
-0.0163947 0 0.0011336 161.005
0.0161888 -5.16988e-26 0.00306055 25.053
0.0164795 0 4.5134e-08 267.096
-0.0164795 0 7.53989e-09 267.41
-0.0163851 -5.16988e-26 0.00180393 94.6384
-0.0162478 0 0.00305839 50.1615
0.0162478 0 0.00305839 24.397
0.0163779 -1.93548e-20 0.00230526 31.0706
-0.0163779 0 0.00230525 45.0051
0.0156904 -2.71051e-20 0.00524875 935.876
-0.0156904 -2.71051e-20 0.00524875 936.614
0.0162566 -1.29247e-26 0.00314393 25.8103
0.0158759 2.71051e-20 0.00471202 166.479
-0.0158759 -2.71051e-20 0.00471202 238.982
-0.0165637 -2.06795e-25 0.00113717 158.51
0.0156951 0 0.00561829 1044.07
-0.0156951 0 0.00561829 1044.83
0.0163084 0 0.00364992 34.1708
-0.0163084 0 0.00364992 64.5087
0.016199 0 0.00441125 81.9349
-0.016199 2.63777e-20 0.00441125 123.261
-0.016068 5.16988e-26 0.00518819 609.849
0.0161146 -1.43821e-20 0.00513441 537.228
-0.0161146 1.76055e-20 0.00513441 555.459
-0.016031 0 0.0055414 1152.91
0.016031 -2.71051e-20 0.0055414 1152.12
-0.0169948 0 1.57361e-20 254.188
-0.0165964 0 0.00369035 53.4379
-0.0161687 5.16988e-26 0.00526118 664.706
0.0165301 0 0.00408038 31.5472
-0.0165301 2.71051e-20 0.00408038 52.5772
0.0170241 -5.42101e-20 0.0005776 239.911
-0.0170241 0 0.000577601 240.36
0.0169741 5.42101e-20 0.00175445 43.7815
-0.0169741 5.42101e-20 0.00175445 44.9158
-0.0160456 4.1359e-25 0.00588233 1283.26
0.0160456 0 0.00588233 1282.45
0.0168708 -5.42101e-20 0.00304668 19.0537
-0.0168708 -1.0842e-19 0.00304668 32.8158
0.0164827 -5.42101e-20 0.00476235 74.5429
-0.0164827 2.71051e-20 0.00476235 101.675
0.0168025 -6.46235e-27 0.00371927 25.1424
0.0163092 7.98333e-21 0.00559034 949.638
-0.0163092 0 0.00559034 948.358
-0.0168571 0 0.00372694 43.4185
0.0168571 0 0.00372694 24.1438
0.0168524 -6.46235e-27 0.00384281 26.8574
0.0165194 0 0.0053648 245.174
-0.0165194 -2.71051e-20 0.0053648 239.489
-0.0168333 -2.58494e-26 0.00431301 58.6958
0.0168293 0 0.00441207 40.1894
-0.0168293 6.46235e-27 0.00441207 61.278
-0.016393 -2.71051e-20 0.00584515 1413.45
0.016393 2.71051e-20 0.00584515 1412.61
-0.0163955 0 0.00614428 1458.38
0.0163955 4.1359e-25 0.00614428 1457.56
-0.0169489 0 0.00440665 58.7609
0.0168096 0 0.00506989 114.526
-0.0168096 -1.29247e-26 0.00506989 118.854
-0.0168053 0 0.00515263 191.924
0.017623 3.30872e-24 2.17597e-08 237.564
-0.017623 -1.65436e-24 1.01887e-08 238.072
0.0175916 7.34536e-21 0.00115888 142.376
-0.0175916 0 0.00115887 143.332
-0.0171737 -2.71051e-20 0.004052 40.935
0.0171737 2.71051e-20 0.004052 20.0851
0.0175442 2.16208e-20 0.00239621 31.807
-0.0175442 0 0.00239621 44.2212
-0.0167746 0 0.00574376 713.979
0.0167746 5.16988e-26 0.00574376 746.191
-0.0171404 2.71051e-20 0.0047287 51.3832
0.0171404 2.71051e-20 0.0047287 35.6353
-0.016705 0 0.00611265 1503.26
0.016705 0 0.00611265 1502.46
0.0174986 -5.16988e-26 0.00354411 17.9632
-0.0174986 0 0.00354412 43.7474
-0.0167191 4.1359e-25 0.00643602 1497.14
0.0167191 0 0.00643602 1496.47
-0.0171168 -2.71051e-20 0.00539052 74.0005
0.0171168 2.71051e-20 0.00539052 92.7334
0.0174765 1.29247e-26 0.0041983 21.7714
-0.0172565 0 0.00505616 76.1541
-0.0174702 -5.16988e-26 0.00438304 47.7938
0.0174702 0 0.00438304 22.8468
-0.0169667 2.3884e-20 0.00617943 1052.61
0.0169667 1.23494e-20 0.00617943 1099.43
0.0174493 0 0.00505023 47.0326
-0.0174493 0 0.00505023 57.7283
-0.0171679 2.71051e-20 0.00597129 135.171
0.0171679 0 0.00597129 280.021
0.0182005 -1.0842e-19 0.00058338 235.189
-0.0182005 5.42101e-20 0.000583381 235.756
-0.017043 -2.71051e-20 0.00643779 1491.02
0.017043 -2.71051e-20 0.00643779 1490.48
0.0177879 2.71051e-20 0.00403219 15.5601
-0.0177879 0 0.00403219 48.7258
-0.0181761 -1.0842e-19 0.00178292 47.6287
0.0181761 0 0.00178292 45.9323
-0.0170214 4.1359e-25 0.00674884 1472.09
0.0170214 -4.1359e-25 0.00674884 1471.54
-0.0174458 0 0.00568734 83.8628
0.0174458 -3.41019e-21 0.00568734 131.471
-0.0177804 -2.71051e-20 0.00470438 50.4286
0.0177804 0 0.00470438 20.5234
-0.0181642 -1.0842e-19 0.00305697 51.1807
0.0181642 5.42101e-20 0.00305697 17.4652
-0.0181317 -2.06795e-25 0.00370155 54.6537
0.0181317 1.63857e-21 0.00370155 14.8904
-0.01741 0 0.00635261 681.818
0.01741 -2.59746e-20 0.00635261 758.714
-0.0177702 -2.71051e-20 0.00535529 55.4699
0.0177702 0 0.00535529 39.9912
-0.0173274 0 0.00672747 1453.16
0.0173274 -2.71051e-20 0.00672747 1452.6
0.0181132 0 0.00420721 15.4912
-0.0181076 3.26442e-21 0.00436205 56.1835
0.0181076 6.46235e-27 0.00436205 15.6751
-0.0173238 4.1359e-25 0.00706119 1439.19
0.0173238 4.1359e-25 0.00706119 1438.71
0.0177503 0 0.00600627 99.6087
-0.0177503 2.71051e-20 0.00600627 66.2582
-0.018098 -1.63446e-20 0.00501826 58.1882
0.018098 0 0.00501826 23.8038
-0.0187969 0 1.59693e-08 235.132
0.0187969 1.65436e-24 1.06448e-08 234.585
-0.0187878 0 0.00116731 152.773
0.0187878 3.70221e-20 0.00116731 141.478
-0.0175851 2.16202e-20 0.00679799 988.56
0.0175851 -5.35682e-21 0.00679799 1060.6
-0.0184432 2.71051e-20 0.00401963 62.3351
0.0184432 2.71051e-20 0.00401963 12.7247
-0.0187844 0 0.00239454 68.5968
0.0187844 -3.07554e-20 0.00239454 31.7597
-0.0180831 0 0.00566925 62.587
0.0180831 0 0.00566925 50.7926
0.0177912 0 0.00658995 275.186
-0.0177912 0 0.00658995 52.5596
-0.0184158 -2.71051e-20 0.00467993 63.0809
0.0184158 0 0.00467993 14.0065
-0.0176529 -2.71051e-20 0.00706043 1425.21
0.0176529 0 0.00706043 1424.83
-0.0176264 -4.1359e-25 0.00737367 1420.1
0.0176264 0 0.00737367 1419.68
-0.0180712 2.58494e-26 0.00630777 62.1673
0.0180712 0 0.00630777 132.746
-0.0184261 -2.71051e-20 0.0053197 63.7361
0.0184261 -2.71051e-20 0.0053197 21.0728
-0.0188515 2.06795e-25 0.00360143 67.6439
0.0188515 0 0.00360143 14.0958
0.0188003 -6.46235e-27 0.00397534 13.3436
-0.0187497 -2.08725e-20 0.00434473 65.2166
0.0187497 1.29247e-26 0.00434473 12.6005
-0.018025 1.03398e-25 0.00697581 636.654
0.018025 0 0.00697581 733.572
-0.0183967 0 0.00598007 65.1097
0.0183967 -2.71051e-20 0.00598007 42.8622
0.0190444 -3.87741e-26 0.00361107 13.8136
-0.0179363 0 0.0073519 1414.99
0.0179363 -2.71051e-20 0.0073519 1414.54
-0.0193896 5.42101e-20 0.000584898 234.505
0.0193896 0 0.000584906 233.98
-0.0188216 2.24226e-20 0.00491492 66.1536
0.0188216 -2.43697e-20 0.00491492 15.3074
-0.0193933 -5.42101e-20 0.00177944 89.0609
0.0193933 0 0.00177943 46.252
-0.0179292 4.1359e-25 0.00768641 1407.12
0.0179292 0 0.00768641 1406.35
0.018369 0 0.00663164 100.823
-0.018369 0 0.00663164 65.485
-0.0187273 -2.57838e-20 0.00564917 65.3327
0.0187273 0 0.00564917 25.3156
-0.0194147 0 0.00301348 86.2582
0.0194147 0 0.00301348 16.712
-0.0181958 -4.12143e-22 0.00742304 959.548
0.0181958 1.10958e-20 0.00742304 1038.53
-0.0187015 1.86691e-20 0.00629873 65.507
0.0187015 2.11144e-21 0.00629873 52.6856
0.0184056 2.71051e-20 0.00721495 272.376
-0.0184056 -2.71051e-20 0.00721495 27.2859
-0.0190533 -5.42101e-20 0.0053245 67.3828
0.0190533 -2.71051e-20 0.0053245 14.3831
0.0182616 -2.71051e-20 0.0076859 1398.17
-0.0182616 -2.71051e-20 0.0076859 1399.25
0.0197137 5.16988e-26 0.00238644 30.595
-0.0193893 0 0.0043251 73.4152
0.0193893 0 0.0043251 10.1633
0.0182322 0 0.00799942 1394.33
-0.0182322 0 0.00799942 1395.36
-0.0186894 0 0.00693288 54.7366
0.0186894 2.58494e-26 0.00693288 132.386
-0.019034 0 0.00596484 65.1379
0.019034 0 0.00596484 23.3789
-0.0199808 -1.65436e-24 1.15616e-08 235.973
0.0199808 0 1.81198e-09 235.53
-0.0193786 -5.16988e-26 0.00498454 67.5998
0.0193786 1.29247e-26 0.00498454 12.0957
-0.0199934 0 0.00116524 177.114
0.0199935 0 0.00116523 141.188
0.0200018 -5.16988e-26 0.00176843 86.2616
-0.018638 0 0.00760163 626.614
0.018638 1.03398e-25 0.00760163 721.307
-0.0190175 -5.42101e-20 0.00660576 66.2777
0.0190175 -5.42101e-20 0.00660576 44.4691
-0.0200103 0 0.00238385 104.582
0.0200103 0 0.00238385 30.2232
0.0201183 5.16988e-26 0.00116394 141.404
-0.0193626 0 0.005634 64.155
0.0193626 6.46235e-27 0.005634 16.005
0.0185453 0 0.00797801 1390.5
-0.0185453 2.71051e-20 0.00797801 1391.47
0.0185355 0 0.00831268 1385.69
-0.0185355 0 0.00831268 1387.16
0.020316 0 -1.46994e-28 237.473
-0.0189879 2.71051e-20 0.00725654 62.0239
0.0189879 -2.71051e-20 0.00725654 100.035
-0.0193479 -3.73296e-20 0.00627375 62.7867
0.0193479 0 0.00627375 26.7349
-0.0200226 0 0.00365995 82.1436
0.0200226 0 0.00365995 12.3822
-0.019693 0 0.00529521 64.4038
0.019693 -5.42101e-20 0.00529521 11.0623
-0.0188066 3.8133e-21 0.00805004 957.214
0.0188066 2.79695e-20 0.00805004 1023.98
-0.0193268 2.58494e-26 0.00692069 62.371
0.0193268 -2.58494e-26 0.00692069 53.3677
-0.0196676 5.42101e-20 0.00594439 59.7686
0.0196676 -2.71051e-20 0.00594439 15.345
-0.01902 0 0.00784265 60.2931
0.01902 -2.71051e-20 0.00784265 269.405
-0.0205868 5.42101e-20 0.000581102 237.444
0.0205869 0 0.000581094 237.084
-0.0188712 0 0.00831333 1382.85
0.0188712 2.71051e-20 0.00831333 1380.88
-0.020095 4.74981e-20 0.00487938 65.1312
0.020095 1.80999e-20 0.00487938 10.0561
-0.0206115 -5.42101e-20 0.00176879 145.17
0.0206115 5.42101e-20 0.00176879 43.6061
-0.0188391 0 0.00862624 1383.76
0.0188391 8.27181e-25 0.00862624 1381.68
-0.0193074 -1.03398e-25 0.00756039 61.4548
0.0193074 0 0.00756039 131.212
-0.0196738 -2.71051e-20 0.00657561 60.0409
0.0196738 -2.71051e-20 0.00657561 24.2226
-0.0200001 0 0.00561439 59.7171
0.0200001 3.96488e-21 0.00561439 12.3588
0.0206346 1.0842e-19 0.00301452 13.9664
-0.0206346 5.42101e-20 0.00301452 97.5586
0.0196391 5.42101e-20 0.00723369 45.3065
-0.0196391 0 0.00723369 60.975
0.0192519 -2.06795e-25 0.00823155 713.709
-0.0192519 0 0.00823155 640.71
-0.0200715 -3.31551e-21 0.00617586 56.4163
0.0200715 6.46235e-27 0.00617586 17.1479
0.0191557 2.71051e-20 0.00860727 1382.48
-0.0191557 2.71051e-20 0.00860727 1384.69
-0.0206641 -1.0842e-19 0.00428079 71.1214
0.0206641 5.42101e-20 0.00428079 8.62359
0.0191433 8.27181e-25 0.00894011 1321.41
-0.0191433 0 0.00894011 1323.95
0.0196055 0 0.00788712 98.6383
-0.0196055 0 0.00788712 62.5815
-0.0199746 -7.72817e-21 0.0069041 56.6907
0.0199746 1.29247e-26 0.0069041 27.9651
-0.0211723 1.65436e-24 1.19397e-08 242.977
0.0211724 0 4.52929e-09 242.44
-0.0212048 -1.65436e-24 0.00115269 198.351
0.0212049 0 0.00115268 143.288
0.0194188 -2.94596e-20 0.0086858 977.212
-0.0194188 -3.17377e-20 0.0086858 934.221
-0.0199446 -5.16988e-26 0.00755308 58.2365
0.0199446 0 0.00755308 53.2816
0.0203041 2.71051e-20 0.00658402 16.8053
-0.0203041 0 0.00658402 52.421
-0.0212384 8.27181e-25 0.0023678 121.905
0.0212384 0 0.0023678 27.8568
0.0206408 0 0.00559143 9.76688
-0.0206408 -5.42101e-20 0.00559143 51.7498
0.0196393 0 0.00847876 258.805
-0.0196393 -5.42101e-20 0.00847876 120.806
0.0194792 2.71051e-20 0.0089564 1260.3
-0.0194792 2.71051e-20 0.0089564 1263.19
-0.0194172 -8.27181e-25 0.00928185 1139.16
0.0194172 0 0.00928186 1136
-0.0202831 2.71051e-20 0.00722169 53.4076
0.0202831 2.71051e-20 0.00722169 26.0186
-0.0199297 2.75656e-20 0.00819016 78.9503
0.0199297 -1.03398e-25 0.00819016 124.972
-0.0206294 4.84268e-21 0.00624638 51.294
0.0206294 6.46235e-27 0.00624638 13.6913
-0.0212679 0 0.00364055 74.9012
0.0212679 0 0.00364055 10.8721
0.0202625 2.71051e-20 0.00786089 44.1376
-0.0202625 5.42101e-20 0.00786089 55.9717
-0.0206173 -1.84924e-20 0.00689381 50.8602
0.0206173 0 0.00689381 18.4515
-0.0198766 0 0.00887843 554.22
0.0198766 -2.06795e-25 0.00887843 587.091
-0.0217896 -5.42101e-20 0.000568406 248.523
0.0217897 -5.42101e-20 0.000568406 247.809
-0.0212798 1.03398e-25 0.00493138 51.1053
0.0212798 -1.03398e-25 0.00493138 8.88569
0.0197714 0 0.0092976 1011.58
-0.0197714 2.71051e-20 0.0092976 1015.01
-0.019669 0 0.00964181 1620.02
0.019669 0 0.00964181 1617.02
-0.0218374 0 0.00173743 160.571
0.0218374 -1.0842e-19 0.00173743 40.8813
-0.0205995 0 0.0075318 51.6627
0.0205995 0 0.0075318 28.2926
0.0209456 0 0.00655441 13.0424
-0.0209456 -2.71051e-20 0.00655441 49.9584
-0.0202362 -5.42101e-20 0.00851518 73.3431
0.0202362 -2.71051e-20 0.00851518 88.0485
0.021882 5.42101e-20 0.00297573 12.6042
-0.021882 0 0.00297573 83.5446
-0.0205755 0 0.00817149 57.8552
0.0205755 5.16988e-26 0.00817149 49.352
-0.0209362 5.42101e-20 0.00721472 47.7017
0.0209362 -2.71051e-20 0.00721472 18.0899
0.0199576 0 0.00972223 2223.05
-0.0199576 0 0.00972223 2225.63
-0.0200954 8.34625e-21 0.00945691 1044.34
0.0200954 4.1359e-25 0.00945691 995.057
0.0213454 -3.79224e-21 0.00613816 11.2719
-0.0213454 0 0.00613817 43.1661
-0.0202913 0 0.0091201 168.427
0.0202913 0 0.0091201 190.184
-0.0199226 -8.27181e-25 0.0100021 2022.39
0.0199226 -8.27181e-25 0.0100021 2020.06
-0.0219071 5.42101e-20 0.00426287 47.4713
0.0219071 -1.6263e-19 0.00426287 8.32762
0.0212536 0 0.00687047 14.7663
-0.0212536 0 0.00687047 45.0736
-0.0209198 2.71051e-20 0.00783 49.7174
0.0209198 0 0.00783 25.4528
-0.0222349 2.06795e-25 0.00231824 116.215
-0.0223699 0 8.59575e-09 266.128
0.02237 0 1.06529e-08 263.179
-0.0205825 4.88367e-21 0.00880038 92.9802
0.0205825 -1.03398e-25 0.00880038 96.5696
-0.0223673 5.16988e-26 0.00111511 213.575
-0.0224227 5.16988e-26 0.00107137 216.277
-0.0201854 3.83857e-20 0.00982489 1553.57
0.0201854 8.94679e-21 0.00982489 1480.74
-0.0224248 -7.65802e-20 0.00111325 214.328
0.0224249 0 0.00111326 154.179
-0.0222602 -1.03398e-25 0.00359676 59.3807
0.0208973 5.42101e-20 0.00847326 40.8915
-0.0208973 0 0.00847326 52.922
-0.020392 -2.71051e-20 0.00967037 603.759
0.020392 0 0.00967037 388.017
0.0202271 0 0.0100702 1816.86
-0.0202271 -5.42101e-20 0.0100702 1818.95
0.0224885 -8.27181e-25 0.00230561 27.6389
-0.0224885 4.35242e-20 0.00230562 114.766
-0.0219242 -5.42101e-20 0.0055407 34.1472
0.0219242 0 0.0055407 8.83135
-0.0206219 2.06795e-25 0.00940243 281.527
0.0206219 0 0.00940243 198.945
0.0201769 0 0.0103635 1711.83
-0.0201769 0 0.0103635 1713.6
-0.0214053 0 0.00750768 43.2788
0.0214053 6.51345e-21 0.00750768 19.4173
-0.0212331 -1.26051e-20 0.0081501 47.8615
0.0212331 -2.58494e-26 0.0081501 29.8103
-0.0227454 8.27181e-25 -8.97294e-36 289.804
-0.0222376 0 0.00490354 40.0369
0.0225307 0 0.00358481 10.5051
-0.0225307 4.80054e-20 0.00358482 55.1505
-0.0209306 -2.71051e-20 0.009079 75.4574
0.0209306 0 0.009079 65.0501
-0.0205788 -3.71061e-20 0.0100354 984.062
0.0205788 0 0.0100354 888.306
0.0218832 1.0842e-19 0.00683353 12.347
-0.0218832 -5.42101e-20 0.00683353 32.7137
-0.0220903 0 0.00617273 34.6973
-0.02047 0 0.0103922 1608.18
0.02047 2.71051e-20 0.0103922 1606.72
-0.0229944 -5.42101e-20 0.000536085 283.776
0.0229945 0 0.000536078 278.586
-0.0213123 -1.20898e-21 0.00869943 55.9824
0.0213123 -2.58494e-26 0.00869943 42.3128
-0.020909 -2.71051e-20 0.00972034 232.862
0.020909 0 0.00972034 126.05
0.0225437 0 0.00489464 8.56456
-0.0225437 1.64738e-21 0.00489464 36.4998
0.0204318 0 0.0107257 1454.94
-0.0204318 0 0.0107257 1456.22
-0.0230802 5.42101e-20 0.00165832 161.59
0.0230803 -5.42101e-20 0.00165833 43.8799
-0.0212246 0 0.00940472 114.831
0.0212246 -5.16988e-26 0.00940472 70.1687
0.0207156 3.86198e-20 0.0104897 1076.93
-0.0207156 -3.64125e-21 0.0104897 1133.78
0.0209353 0 0.0102994 293.494
-0.0209353 -2.71051e-20 0.0102994 465.012
-0.0231589 0 0.00287977 52.0208
0.0231589 0 0.00287976 12.6965
-0.0218885 5.42101e-20 0.00814494 36.535
0.0218885 5.42101e-20 0.00814494 19.1428
0.0225301 -1.6632e-20 0.00619313 10.2268
-0.0225301 -2.90288e-20 0.00619313 29.6969
0.0207613 5.42101e-20 0.0107635 1303.09
-0.0207613 0 0.0107635 1304.2
-0.0215469 0 0.00909429 52.1915
0.0215469 0 0.00909429 36.0309
0.0212144 0 0.0100278 146.001
-0.0212144 -4.58186e-21 0.0100278 261.341
0.020687 -8.27181e-25 0.0110884 1177.07
-0.020687 0 0.0110884 1177.93
-0.0231865 0 0.00419035 37.2257
0.0231866 0 0.00419035 8.4241
0.0218725 0 0.00877017 27.2734
-0.0218725 0 0.00877017 44.1766
-0.0235735 0 1.78781e-08 342.015
0.0235737 0 1.46761e-08 335.142
-0.0215348 -2.71051e-20 0.00971336 99.9815
0.0215348 -2.71051e-20 0.00971337 53.9862
-0.0224336 -2.42338e-27 0.00748097 31.0643
-0.0236424 -4.84893e-20 0.00102426 252.219
0.0236425 -3.30872e-24 0.00102426 197.609
0.0211543 4.7385e-21 0.0107041 615.89
-0.0211543 -1.03398e-25 0.0107041 708.225
0.0225191 2.6493e-20 0.00747875 14.2463
-0.0225191 5.12412e-20 0.00747875 30.0491
0.0218553 2.58494e-26 0.00939598 36.6239
-0.0218553 1.29247e-26 0.00939598 62.6343
0.021043 0 0.011115 1051.02
-0.021043 2.71051e-20 0.011115 1051.63
-0.0231776 5.42101e-20 0.0055198 27.2339
0.0231777 0 0.00551979 8.66851
0.0209424 0 0.0114514 1732.04
-0.0209424 -6.46235e-27 0.0114514 1732.37
0.0215108 -2.71051e-20 0.0103577 97.272
-0.0215108 2.71051e-20 0.0103577 229.014
-0.0237791 -1.4919e-20 0.00216485 101.954
0.0237792 0 0.00216486 32.7824
-0.0209529 -8.40105e-26 0.0114663 1753.71
-0.0225545 0 0.00806049 32.7655
-0.0221872 5.42101e-20 0.00906953 41.0987
0.0221872 -2.71051e-20 0.00906953 23.7804
-0.0211228 -6.46235e-27 0.0113806 1488.99
0.0218425 0 0.0100258 57.0723
-0.0218425 0 0.0100258 124.035
-0.0238309 -1.33705e-20 0.00346141 41.2587
0.023831 0 0.00346141 10.9069
-0.021348 -6.46235e-27 0.0112435 1131.07
-0.024136 0 0.000451688 400.882
0.0241362 -1.0842e-19 0.000451688 392.306
-0.0231587 0 0.00682378 24.6579
0.0231587 -1.0842e-19 0.00682378 11.0415
0.0213633 2.06795e-25 0.0112862 1074.05
-0.0213633 -3.31821e-20 0.0112862 1164.53
-0.0212283 0 0.0115413 2413.26
0.0212283 -2.71051e-20 0.0115413 2413.2
-0.0218459 -6.46235e-27 0.0103407 180.522
0.0215589 0 0.0109592 204.312
-0.0215589 -2.71051e-20 0.0109592 379.296
-0.0221622 2.71051e-20 0.00970256 57.7073
0.0221622 0 0.00970256 32.7864
0.0225915 0 0.00866816 19.8508
-0.0225915 -1.65035e-20 0.00866816 35.6029
-0.0225553 -1.61559e-27 0.00893135 39.4204
-0.0218006 -3.23117e-26 0.0106547 269.22
0.021198 0 0.0118146 2253.87
-0.021198 0 0.0118146 2253.91
-0.0223975 -6.46235e-27 0.00938204 48.4391
0.0218492 1.05795e-20 0.010651 106.918
-0.0218492 0 0.010651 236.193
-0.0238226 3.53161e-20 0.00482927 31.3269
0.0238227 -3.0281e-20 0.00482927 8.42106
-0.0221896 0 0.00998008 100.437
0.0224936 0 0.00937957 26.1782
-0.0224936 -1.61559e-27 0.00937957 45.9216
-0.0243535 0 0.00151159 150.565
0.0243536 0 0.00151158 58.7434
0.0214522 -1.05596e-20 0.0116532 1644.68
-0.0214522 1.86084e-20 0.0116532 1711.69
0.0221811 0 0.0103174 45.5278
-0.0221811 5.42101e-20 0.0103174 112.844
0.0216524 2.71051e-20 0.0115106 431.6
-0.0216524 2.71051e-20 0.0115106 632.12
-0.0231638 0 0.00808475 26.3651
0.0231638 0 0.00808475 14.4687
0.0214945 2.71051e-20 0.0118953 2094.49
-0.0214945 2.71051e-20 0.0118953 2094.49
0.0238023 3.90781e-20 0.00616473 9.36448
-0.0238023 -1.17098e-20 0.00616473 24.6251
-0.0245816 3.61842e-20 0.000867554 246.119
0.0245818 -7.80792e-20 0.000867512 210.06
0.0218774 0 0.0112557 220.443
-0.0218774 2.05259e-20 0.0112557 389.824
0.0225698 3.55059e-20 0.00993 33.4155
-0.0225698 2.95042e-20 0.00993 74.593
-0.0245173 -5.42101e-20 0.00266677 39.5998
0.0245175 -1.0842e-19 0.00266677 14.2383
-0.0214548 0 0.0121776 1972.34
0.0214548 -4.1359e-25 0.0121776 1972.34
0.0221734 5.42101e-20 0.0109509 75.5069
-0.0221734 0 0.0109509 215.053
-0.0244638 -5.42101e-20 0.00410821 35.7361
0.0244639 1.0842e-19 0.0041082 8.44989
-0.0248191 0 5.55242e-08 286.797
0.0248195 0 2.17063e-08 277.865
-0.0218316 2.79173e-22 0.0118824 1104.96