# p  POINT_DATA 5809
# x  y  z  p
-1.57772e-30 -0.237 8.31749e-08 -0.0284825
-1.09046e-25 0.237 8.64572e-08 -0.0294814
0 0.237 0.000550924 -0.0294773
0 -0.237 0.000550925 -0.0284808
0 0.237 0.0011232 -0.0294706
0 -0.237 0.0011232 -0.0284769
0 0.237 0.00172954 -0.0294667
0 -0.237 0.00172954 -0.0284724
0 -0.237 0.00236831 -0.0284707
0 0.237 0.00236831 -0.0294681
-8.27181e-25 -0.237 0.00302578 -0.0284788
0 0.237 0.00302578 -0.0294755
0 0.237 0.00361376 -0.0294834
0 -0.237 0.00366636 -0.0284947
0 0.237 0.00368597 -0.0294844
0 -0.237 0.00368597 -0.0284952
-1.03398e-25 0.237 0.00384697 -0.0294861
0 0.237 0.00433887 -0.0294913
1.03398e-25 -0.237 0.00433887 -0.0285112
-4.1359e-25 0.237 0.00498192 -0.0294984
0 -0.237 0.00498192 -0.0285294
0 0.237 0.0056169 -0.0295143
0 -0.237 0.0056169 -0.0285566
-2.06795e-25 0.237 0.0060091 -0.0295321
2.06795e-25 -0.237 0.00624674 -0.0285873
0 0.237 0.00624674 -0.0295429
-2.06795e-25 -0.237 0.00687382 -0.0286135
0 0.237 0.00687382 -0.0295761
3.87741e-26 -0.237078 0.00368896 -0.0284956
-4.1359e-25 0.237 0.00749962 -0.0296047
0 -0.237 0.00749962 -0.0286327
0 -0.237 0.00812489 -0.028645
-4.1359e-25 0.237 0.0081249 -0.0296265
-4.1359e-25 0.237 0.00874998 -0.0296417
0 -0.237 0.00874998 -0.0286479
0 0.237 0.009375 -0.0296474
2.06795e-25 -0.237 0.009375 -0.0286374
0 -0.237 0.0096071 -0.0286276
-4.1359e-25 0.237 0.01 -0.0296375
-4.1359e-25 -0.237 0.01 -0.028611
4.1359e-25 -0.237 0.010625 -0.0285675
8.27181e-25 0.237 0.010625 -0.0296078
0 0.237223 0.00369457 -0.0294852
-2.71051e-20 0.237263 0.000279273 -0.0294814
2.71051e-20 -0.237263 0.000279185 -0.0284826
0 -0.237 0.01125 -0.0285082
0 0.237 0.01125 -0.0295562
0 0.237267 0.000847159 -0.0294732
0 -0.237267 0.000847159 -0.0284789
0 -0.237269 0.00144351 -0.0284748
0 0.237269 0.00144351 -0.0294679
-2.71051e-20 -0.23727 0.00206936 -0.0284699
0 0.23727 0.00206936 -0.0294654
2.71051e-20 -0.23727 0.00271568 -0.0284716
0 0.23727 0.00271568 -0.0294708
-2.71051e-20 0.23727 0.00336939 -0.0294803
0 -0.23727 0.00336939 -0.0284861
0 -0.237 0.011875 -0.0284387
0 0.237 0.011875 -0.029483
5.42101e-20 0.237271 0.00402047 -0.0294885
-2.71051e-20 -0.237271 0.00402047 -0.0285042
0 0.237 0.0121518 -0.0294437
-2.71051e-20 0.237271 0.00466435 -0.029494
5.42101e-20 -0.237271 0.00466435 -0.028518
0 -0.237 0.0125 -0.0283684
-4.1359e-25 0.237 0.0125 -0.0293943
2.71051e-20 0.237272 0.00530117 -0.0295027
-2.71051e-20 -0.237272 0.00530117 -0.0285407
2.58494e-26 -0.237306 0.00434507 -0.0285106
0 0.237272 0.0059324 -0.0295257
0 -0.237272 0.0059324 -0.0285723
2.71051e-20 0.237272 0.00656043 -0.02956
-2.71051e-20 -0.237272 0.00656043 -0.0286023
-4.1359e-25 0.237 0.013125 -0.0293007
0 -0.237 0.013125 -0.028307
2.71051e-20 0.237272 0.00718674 -0.0295922
-5.42101e-20 -0.237272 0.00718674 -0.0286248
0 -0.237 0.0134875 -0.0282793
-4.1359e-25 0.237 0.01375 -0.0292132
2.06795e-25 -0.237 0.01375 -0.0282592
0 0.237272 0.00781225 -0.0296172
0 -0.237272 0.00781225 -0.0286407
0 -0.237272 0.00843743 -0.0286493
0 0.237272 0.00843743 -0.0296358
0 -0.237371 0.00498524 -0.0285248
0 0.237 0.014375 -0.0291411
0 -0.237 0.014375 -0.0282249
-2.71051e-20 0.237272 0.00906248 -0.0296477
2.71051e-20 -0.237272 0.00906248 -0.0286465
0 0.237 0.0146945 -0.0291142
-2.71051e-20 -0.237272 0.0096875 -0.0286284
-2.71051e-20 0.237272 0.0096875 -0.0296471
4.1359e-25 0.237 0.015 -0.0290885
2.06795e-25 -0.237 0.015 -0.0282022
0 -0.237427 0.0056183 -0.0285489
-2.71051e-20 -0.237272 0.0103125 -0.0285935
-2.71051e-20 0.237272 0.0103125 -0.029628
0 0.237 0.015625 -0.0290537
0 -0.237 0.015625 -0.0281876
0 0.23752 8.32931e-08 -0.0294813
0 -0.237521 8.4701e-08 -0.0284829
-1.03398e-25 0.237523 0.00017771 -0.0294801
2.71051e-20 -0.237272 0.0109375 -0.0285415
-2.71051e-20 0.237272 0.0109375 -0.0295877
0 -0.237529 0.000533903 -0.0284815
1.30587e-20 0.237529 0.000562809 -0.0294775
0 -0.237529 0.000562807 -0.0284814
0 0.237533 0.00115011 -0.0294713
0 -0.237533 0.00115011 -0.0284784
0 0.237538 0.00176909 -0.0294683
0 -0.237538 0.00176909 -0.028475
0 -0.237469 0.00624719 -0.0285816
4.1359e-25 0.23754 0.0024097 -0.029471
-1.63962e-20 -0.23754 0.0024097 -0.0284745
2.71051e-20 -0.237272 0.0115625 -0.0284749
0 0.237272 0.0115625 -0.0295246
0 0.237 0.01625 -0.0290338
0 -0.237 0.01625 -0.0281789
0 -0.237541 0.00305869 -0.0284833
2.06795e-25 0.237541 0.00305869 -0.0294787
-1.29247e-26 -0.23756 0.000563223 -0.0284815
0 -0.237542 0.00370687 -0.0284984
0 0.237542 0.00370687 -0.0294863
-5.16988e-26 -0.237543 0.00434987 -0.0285101
0 0.237543 0.00434987 -0.0294905
0 -0.237272 0.0121875 -0.0284025
-8.13152e-20 0.237272 0.0121875 -0.0294413
-1.33882e-20 0.237543 0.00498678 -0.0294943
0 -0.237543 0.00498678 -0.0285227
0 -0.237499 0.0068739 -0.0286147
4.1359e-25 0.237 0.016875 -0.0290249
0 -0.237 0.016875 -0.0281742
6.46235e-27 0.237526 0.00624724 -0.0295325
-9.19024e-21 0.237544 0.00561869 -0.0295062
0 -0.237544 0.00561869 -0.0285468
-2.71051e-20 -0.237272 0.0128125 -0.0283344
0 0.237272 0.0128125 -0.0293472
2.00312e-20 -0.237544 0.00624726 -0.0285807
6.46235e-27 0.237544 0.00624726 -0.0295322
4.1359e-25 0.237 0.0172755 -0.0290245
-6.46235e-27 0.237544 0.00645559 -0.0295442
-1.29247e-26 -0.237524 0.00749961 -0.0286429
-2.58494e-26 -0.237544 0.00687391 -0.0286148
0 0.237544 0.00687391 -0.0295685
0 -0.237 0.0175 -0.028172
-2.06795e-25 0.237 0.0175 -0.0290243
2.71051e-20 -0.237272 0.0134375 -0.0282795
0 0.237272 0.0134375 -0.0292541
-2.58494e-26 0.237544 0.00749961 -0.0296059
0 -0.237544 0.00749961 -0.0286433
1.03398e-25 0.237 0.0177366 -0.0290262
0 -0.237544 0.00796935 -0.0286588
0 -0.237497 0.00937499 -0.0286631
1.18271e-21 0.237544 0.00812487 -0.0296383
0 -0.237544 0.00812487 -0.028664
5.42101e-20 -0.237272 0.0140625 -0.0282389
0 0.237272 0.0140625 -0.0291723
4.1359e-25 -0.237 0.018125 -0.0281714
0 0.237 0.018125 -0.0290292
1.93025e-20 0.237544 0.00874996 -0.0296634
1.88007e-20 -0.237544 0.00874996 -0.028673
0 -0.237544 0.00896088 -0.0286705
0 -0.237272 0.0146875 -0.0282109
-2.71051e-20 0.237272 0.0146875 -0.02911
-2.12714e-20 0.237544 0.00937499 -0.0296762
-2.58494e-26 -0.237544 0.00937499 -0.0286656
0 -0.237 0.01875 -0.0281718
-4.1359e-25 0.237 0.01875 -0.0290378
-2.14989e-20 0.237544 0.01 -0.0296695
0 -0.237544 0.01 -0.0286385
6.46235e-27 -0.23762 0.00812488 -0.0286754
0 -0.237272 0.0153125 -0.0281934
-2.71051e-20 0.237272 0.0153125 -0.0290669
0 -0.237544 0.010625 -0.0285917
4.63769e-21 0.237544 0.010625 -0.0296384
0 -0.237 0.019375 -0.0281728
4.1359e-25 0.237 0.019375 -0.0290485
-2.71051e-20 0.237799 0.000284465 -0.0294811
2.71051e-20 -0.237799 0.000284553 -0.0284832
-2.71051e-20 -0.237272 0.0159375 -0.0281819
-2.71051e-20 0.237272 0.0159375 -0.0290405
0 -0.237544 0.01125 -0.0285287
4.93062e-21 0.237544 0.01125 -0.0295824
-2.71051e-20 0.237811 0.000863452 -0.0294742
-5.42101e-20 -0.237811 0.000863452 -0.0284809
0 -0.23782 0.00147122 -0.0284788
0 0.23782 0.00147122 -0.0294699
2.71051e-20 -0.237826 0.00210431 -0.0284764
0 0.237826 0.00210431 -0.0294702
2.06795e-25 -0.237544 0.011875 -0.028456
0 0.237544 0.011875 -0.029505
0 -0.237 0.02 -0.0281741
0 0.237 0.02 -0.0290601
0 0.237544 0.0119635 -0.029492
-5.42101e-20 0.237829 0.00274869 -0.0294775
0 -0.237829 0.00274869 -0.0284802
-5.42101e-20 -0.237272 0.0165625 -0.028176
-2.71051e-20 0.237272 0.0165625 -0.0290272
0 -0.23783 0.00339421 -0.0284954
5.42101e-20 0.23783 0.00339421 -0.029486
0 0.237831 0.00403604 -0.0294902
2.71051e-20 -0.237831 0.00403604 -0.0285079
0 -0.237544 0.0125 -0.0283824
2.06795e-25 0.237544 0.0125 -0.0294129
0 0.237832 0.00467279 -0.0294893
0 -0.237832 0.00467279 -0.0285102
0 -0.237485 0.01375 -0.0282671
-2.71051e-20 0.237833 0.00530504 -0.0294909
-2.71051e-20 -0.237833 0.00530504 -0.0285215
-6.46235e-27 0.237793 0.00687412 -0.0295789
-2.71051e-20 -0.237272 0.0171875 -0.0281723
0 0.237272 0.0171875 -0.0290226
0 -0.237 0.020625 -0.0281756
0 0.237 0.020625 -0.029072
0 0.237544 0.013125 -0.0293162
0 -0.237544 0.013125 -0.0283179
-5.42101e-20 0.237833 0.00593404 -0.0295051
0 -0.237833 0.00593404 -0.0285522
2.71051e-20 0.237834 0.00656112 -0.0295374
-5.42101e-20 -0.237834 0.00656112 -0.0285956
5.16988e-26 -0.237922 0.00116186 -0.0284807
2.71051e-20 -0.237272 0.0178125 -0.0281716
2.71051e-20 0.237272 0.0178125 -0.029026
6.46235e-27 -0.23778 0.00874997 -0.028708
-2.06795e-25 0.237544 0.01375 -0.0292256
0 -0.237544 0.01375 -0.0282681
2.71051e-20 0.237834 0.00718692 -0.0295842
0 -0.237834 0.00718692 -0.0286365
4.1359e-25 -0.237 0.02125 -0.0281773
-4.1359e-25 0.237 0.02125 -0.0290836
0 0.237834 0.00781229 -0.0296302
0 -0.237834 0.00781229 -0.0286714
0 -0.237529 0.014375 -0.028232
0 0.237544 0.014375 -0.0291509
-6.46235e-27 -0.237544 0.014375 -0.0282321
0 0.237834 0.00843743 -0.0296707
2.71051e-20 -0.237834 0.00843743 -0.0286953
0 -0.237513 0.015 -0.028208
2.71051e-20 -0.237272 0.0184375 -0.0281712
5.42101e-20 0.237272 0.0184375 -0.0290325
5.16988e-26 0.237544 0.0147612 -0.0291174
0 -0.237834 0.00906248 -0.0287017
2.71051e-20 0.237834 0.00906248 -0.0297005
0 0.237 0.021875 -0.0290941
0 -0.237 0.021875 -0.0281791
0 -0.237497 0.015625 -0.0281927
2.06893e-21 0.237544 0.015 -0.0290966
-1.29247e-26 -0.237544 0.015 -0.0282083
2.71051e-20 -0.237834 0.0096875 -0.0286866
2.71051e-20 0.237834 0.0096875 -0.0297107
2.71051e-20 -0.237272 0.0190625 -0.0281724
5.42101e-20 0.237272 0.0190625 -0.0290431
0 -0.237497 0.01625 -0.0281836
-2.59562e-20 0.237544 0.015625 -0.0290607
-2.58494e-26 -0.237544 0.015625 -0.0281931
5.42101e-20 -0.237834 0.0103125 -0.0286464
-2.71051e-20 0.237834 0.0103125 -0.0296934
0 -0.23806 2.90145e-09 -0.0284852
2.06795e-25 0.23806 -5.5536e-11 -0.029484
0 0.237 0.0225 -0.0291031
0 -0.237 0.0225 -0.028181
-2.06795e-25 0.238068 0.000191009 -0.0294826
0 0.237431 0.0175 -0.0290286
0 0.238083 0.000570196 -0.0294799
0 -0.238083 0.000570195 -0.0284838
5.42101e-20 -0.237834 0.0109375 -0.0285861
2.71051e-20 0.237834 0.0109375 -0.0296459
-5.42101e-20 -0.237272 0.0196875 -0.0281731
5.42101e-20 0.237272 0.0196875 -0.0290538
0 0.237981 0.00749973 -0.0296483
-3.21423e-20 0.237544 0.01625 -0.0290401
0 -0.237544 0.01625 -0.028184
-4.1359e-25 0.238097 0.00116715 -0.0294743
0 -0.238097 0.00116715 -0.0284818
0 -0.237516 0.016875 -0.0281788
0 -0.237834 0.0115625 -0.0285129
-5.42101e-20 0.237834 0.0115625 -0.0295726
0 -0.238109 0.00179591 -0.0284806
2.06795e-25 0.238109 0.00179591 -0.0294747
0 0.237 0.023125 -0.0291103
0 -0.237 0.023125 -0.0281829
0 0.238117 0.00244027 -0.029481
0 -0.238117 0.00244027 -0.0284817
5.42101e-20 -0.237272 0.0203125 -0.0281751
2.71051e-20 0.237272 0.0203125 -0.0290664
0 0.23812 0.00308541 -0.0294889
-5.16988e-26 -0.23812 0.00308541 -0.0284906
9.28334e-21 0.237544 0.016875 -0.0290306
0 -0.237544 0.016875 -0.0281791
-2.71051e-20 -0.237834 0.0121875 -0.0284342
-2.71051e-20 0.237834 0.0121875 -0.0294823
0 -0.238121 0.00372595 -0.0285023
0 0.238121 0.00372595 -0.0294928
0 -0.238122 0.00436151 -0.0285081
2.58494e-26 0.238122 0.00436151 -0.0294902
-6.46235e-27 -0.237544 0.0172731 -0.0281776
0 -0.238122 0.00499302 -0.0285185
0 0.238122 0.00499302 -0.0294874
-6.46235e-27 0.237881 0.011875 -0.0295387
0 -0.237834 0.0128125 -0.0283591
0 0.237834 0.0128125 -0.0293816
0 0.237 0.02375 -0.0291153
8.27181e-25 -0.237 0.02375 -0.0281847
2.39433e-21 0.237544 0.0175 -0.0290297
-6.46235e-27 -0.237544 0.0175 -0.0281768
0 -0.238123 0.00562167 -0.0285512
-1.48616e-20 0.238123 0.00562167 -0.0294976
-2.71051e-20 -0.237272 0.0209375 -0.0281761
-5.42101e-20 0.237272 0.0209375 -0.0290776
0 -0.238123 0.00624853 -0.028607
0 0.238123 0.00624853 -0.0295325
-2.71051e-20 -0.237834 0.0134375 -0.0282991
5.42101e-20 0.237834 0.0134375 -0.0292824
0 -0.238124 0.0068744 -0.028669
-1.29247e-26 0.238124 0.0068744 -0.0295928
-2.19107e-20 0.237544 0.018125 -0.0290346
1.06337e-20 -0.237544 0.018125 -0.0281762
0 -0.238124 0.00749977 -0.0287199
1.29247e-26 0.238124 0.00749977 -0.0296622
0 -0.237834 0.0140625 -0.0282551
2.71051e-20 0.237834 0.0140625 -0.0291941
0 0.237272 0.0215625 -0.0290896
-2.71051e-20 -0.237272 0.0215625 -0.0281785
8.27181e-25 0.237 0.024375 -0.0291179
-8.27181e-25 -0.237 0.024375 -0.0281862
0 0.238253 -3.33791e-10 -0.0294864
3.23117e-27 0.238124 0.00805007 -0.0297148
0 -0.238124 0.00812492 -0.0287513
-1.61559e-27 0.238124 0.00812492 -0.029722
-9.09899e-21 -0.237544 0.01875 -0.0281767
-1.30372e-20 0.237544 0.01875 -0.0290433
-1.29247e-26 -0.238124 0.00874998 -0.0287591
0 0.238124 0.00874998 -0.0297612
2.71051e-20 -0.237834 0.0146875 -0.0282239
2.71051e-20 0.237834 0.0146875 -0.0291276
0 0.237272 0.0221875 -0.0290986
-2.71051e-20 -0.237272 0.0221875 -0.0281797
0 -0.238124 0.00937499 -0.0287436
1.29906e-20 0.238124 0.00937499 -0.0297741
-8.27181e-25 0.237 0.025 -0.029118
0 -0.237 0.025 -0.0281873
5.42101e-20 -0.237834 0.0153125 -0.0282053
5.42101e-20 0.237834 0.0153125 -0.0290822
3.56757e-20 -0.237544 0.019375 -0.0281777
2.80914e-20 0.237544 0.019375 -0.0290542
0 -0.238124 0.01 -0.0287068
5.2839e-21 0.238124 0.01 -0.0297576
0 -0.238124 0.010625 -0.028652
-2.27215e-20 0.238124 0.010625 -0.029714
2.71051e-20 -0.238362 0.000287929 -0.0284873
5.42101e-20 0.238362 0.000287929 -0.0294868
-2.71051e-20 0.237272 0.0228125 -0.0291075
0 -0.237272 0.0228125 -0.0281823
2.71051e-20 -0.237834 0.0159375 -0.0281923
-2.71051e-20 0.237834 0.0159375 -0.0290533
0 -0.237 0.025625 -0.0281876
8.27181e-25 0.237 0.025625 -0.0291155
1.29247e-26 -0.23774 0.0175 -0.0281827
6.48282e-21 -0.237544 0.02 -0.0281791
1.75214e-20 0.237544 0.02 -0.0290662
-1.03398e-25 -0.238124 0.01125 -0.0285832
-3.20249e-20 0.238124 0.01125 -0.0296475
-5.42101e-20 0.238389 0.000874094 -0.0294774
-2.71051e-20 -0.238389 0.000874094 -0.0284837
1.29247e-26 0.238124 0.0115928 -0.0296011
0 0.237834 0.0165625 -0.0290394
-2.71051e-20 -0.237834 0.0165625 -0.0281862
2.42338e-27 0.238273 0.00812493 -0.0297561
-2.71051e-20 -0.238408 0.00148916 -0.0284839
2.71051e-20 0.238408 0.00148916 -0.0294759
0 -0.238124 0.011875 -0.028505
1.29247e-26 0.238124 0.011875 -0.029563
2.58494e-26 -0.238409 0.00244824 -0.0284821
-5.42101e-20 0.237272 0.0234375 -0.029113
-5.42101e-20 -0.237272 0.0234375 -0.0281834
2.71051e-20 -0.238422 0.00212682 -0.0284836
-5.42101e-20 0.238422 0.00212682 -0.0294831
1.76907e-20 -0.237544 0.020625 -0.0281806
2.19445e-20 0.237544 0.020625 -0.0290786
2.71051e-20 -0.238429 0.00277088 -0.0284867
-2.71051e-20 0.238429 0.00277088 -0.0294932
-8.27181e-25 -0.237 0.02625 -0.0281869
-8.27181e-25 0.237 0.02625 -0.02911
-1.03398e-25 -0.238124 0.0125 -0.0284244
-5.16988e-26 0.238124 0.0125 -0.0294652
-2.71051e-20 0.237834 0.0171875 -0.0290333
0 -0.237834 0.0171875 -0.0281819
-5.42101e-20 0.238431 0.0034119 -0.0294991
0 -0.238431 0.0034119 -0.0284998
2.71051e-20 0.238431 0.00404796 -0.0294961
0 -0.238431 0.00404796 -0.0285061
-2.71051e-20 0.238431 0.00467997 -0.029485
2.71051e-20 -0.238431 0.00467997 -0.0285082
0 0.238124 0.013125 -0.0293625
-5.16988e-26 -0.238124 0.013125 -0.0283529
2.71051e-20 0.237272 0.0240625 -0.0291175
2.71051e-20 -0.237272 0.0240625 -0.0281859
-2.71051e-20 0.238432 0.00530874 -0.0294841
0 -0.238432 0.00530874 -0.0285342
-6.66894e-21 -0.237544 0.02125 -0.0281824
1.17276e-20 0.237544 0.02125 -0.0290906
2.71051e-20 -0.237834 0.0178125 -0.0281815
0 0.237834 0.0178125 -0.0290371
0 0.238432 0.00593583 -0.0295102
-2.71051e-20 -0.238432 0.00593583 -0.0285973
0 -0.237 0.026875 -0.0281848
8.27181e-25 0.237 0.026875 -0.0291017
0 0.238124 0.01375 -0.0292649
2.58494e-26 -0.238124 0.01375 -0.0282983
5.42101e-20 0.238432 0.00656171 -0.0295778
0 -0.238432 0.00656171 -0.0286839
2.71051e-20 0.238432 0.00718722 -0.0296728
0 -0.238432 0.00718722 -0.0287621
2.71051e-20 -0.237834 0.0184375 -0.0281808
-2.71051e-20 0.237834 0.0184375 -0.0290431
1.34926e-20 0.237544 0.021875 -0.0291014
1.01331e-20 -0.237544 0.021875 -0.0281842
0 0.237272 0.0246875 -0.0291183
-2.71051e-20 -0.237272 0.0246875 -0.0281866
-2.58494e-26 0.238124 0.014375 -0.0291835
2.58494e-26 -0.238124 0.014375 -0.0282584
2.71051e-20 0.238432 0.00781239 -0.0297636
-2.71051e-20 -0.238432 0.00781239 -0.0288122
-5.42101e-20 -0.238432 0.00843746 -0.028829
2.71051e-20 0.238432 0.00843746 -0.0298262
1.29247e-26 0.238124 0.0148898 -0.0291356
0 -0.237 0.0275 -0.028181
8.27181e-25 0.237 0.0275 -0.0290901
-2.58494e-26 -0.238124 0.015 -0.0282319
-6.46235e-27 0.238124 0.015 -0.0291254
5.42101e-20 0.237834 0.0190625 -0.0290546
-2.71051e-20 -0.237834 0.0190625 -0.0281827
0 0.238432 0.00906249 -0.0298506
2.71051e-20 -0.238432 0.00906249 -0.0288127
-8.20356e-22 0.237544 0.0225 -0.0291107
-1.36934e-20 -0.237544 0.0225 -0.028186
-5.42101e-20 0.237272 0.0253125 -0.0291177
-2.71051e-20 -0.237272 0.0253125 -0.0281879
2.71051e-20 -0.238432 0.0096875 -0.028775
8.13152e-20 0.238432 0.0096875 -0.0298374
0 -0.238631 5.27908e-09 -0.0284901
0 0.238631 3.43194e-09 -0.0294912
-1.00723e-20 0.238124 0.015625 -0.0290866
-2.58494e-26 -0.238124 0.015625 -0.0282146
0 0.237834 0.0196875 -0.0290652
-5.42101e-20 -0.237834 0.0196875 -0.0281828
2.71051e-20 -0.238432 0.0103125 -0.0287205
0 0.238432 0.0103125 -0.0297913
8.27181e-25 -0.237 0.028125 -0.0281753
4.1359e-25 0.237 0.028125 -0.0290754
1.89503e-20 0.237544 0.023125 -0.0291183
-7.67996e-21 -0.237544 0.023125 -0.0281879
0 0.238672 0.000575691 -0.029486
1.10619e-20 -0.238672 0.000575689 -0.0284878
3.95688e-20 0.238124 0.01625 -0.0290641
2.58494e-26 -0.238124 0.01625 -0.0282036
-1.29247e-26 -0.238659 0.003098 -0.0284877
-2.71051e-20 -0.238432 0.0109375 -0.0286564
0 0.238432 0.0109375 -0.0297272
0 0.237272 0.0259375 -0.0291133
2.71051e-20 -0.237272 0.0259375 -0.0281873
5.42101e-20 0.237834 0.0203125 -0.0290796
2.71051e-20 -0.237834 0.0203125 -0.0281854
-8.27181e-25 0.238701 0.00117836 -0.0294818
-1.82985e-20 -0.238701 0.00117836 -0.0284859
2.71051e-20 -0.238432 0.0115625 -0.0285786
0 0.238433 0.0115625 -0.0296458
1.82992e-20 0.238124 0.016875 -0.0290529
0 -0.238124 0.016875 -0.0281973
1.7585e-20 0.237544 0.02375 -0.0291237
6.84864e-21 -0.237544 0.02375 -0.0281898
0 0.238723 0.00181179 -0.0294878
3.85178e-20 -0.238723 0.00181179 -0.0284846
0 -0.237 0.02875 -0.0281673
-4.1359e-25 0.237 0.02875 -0.0290573
2.71051e-20 -0.238432 0.0121875 -0.0284952
-5.42101e-20 0.238433 0.0121875 -0.0295527
0 0.238737 0.00245721 -0.0294983
9.87602e-21 -0.238737 0.00245721 -0.0284825
2.71051e-20 0.237834 0.0209375 -0.029091
5.42101e-20 -0.237834 0.0209375 -0.0281859
-2.71051e-20 0.237272 0.0265625 -0.0291068
-5.42101e-20 -0.237272 0.0265625 -0.0281864
0 0.238742 0.00309995 -0.0295052
3.97351e-20 -0.238742 0.00309995 -0.0284872
0 -0.238742 0.00338081 -0.0284915
3.41861e-21 0.238124 0.0175 -0.0290509
0 -0.238124 0.0175 -0.0281943
-2.58494e-26 0.238742 0.00373666 -0.0295039
0 -0.238742 0.00373666 -0.028497
0 -0.238432 0.0128125 -0.02841
-2.71051e-20 0.238433 0.0128125 -0.0294454
0 -0.238741 0.0043684 -0.028509
0 0.238741 0.0043684 -0.029496
-5.59836e-21 0.237544 0.024375 -0.0291269
4.69839e-22 -0.237544 0.024375 -0.0281914
0 -0.238741 0.00499695 -0.0285445
6.46235e-27 0.238741 0.00499695 -0.0294947
6.46235e-27 -0.238124 0.0179648 -0.0281936
2.58494e-26 -0.238741 0.00562368 -0.0286161
0 0.238741 0.00562368 -0.029524
0 0.237834 0.0215625 -0.0291043
0 -0.237834 0.0215625 -0.0281889
2.71051e-20 -0.238432 0.0134375 -0.0283442
0 0.238433 0.0134375 -0.0293416
2.62596e-21 0.238124 0.018125 -0.0290552
0 -0.238124 0.018125 -0.0281934
0 -0.237 0.029375 -0.0281566
-2.06795e-25 0.237 0.029375 -0.0290361
0 -0.238741 0.00624945 -0.0287078
6.46235e-27 0.238741 0.00624945 -0.0295986
2.71051e-20 -0.237272 0.0271875 -0.0281832
0 0.237272 0.0271875 -0.0290965
2.58494e-26 -0.238741 0.00687478 -0.0287903
1.29247e-26 0.238741 0.00687478 -0.0297009
-2.71051e-20 -0.238433 0.0140625 -0.0282956
-2.71051e-20 0.238433 0.0140625 -0.0292424
-1.25851e-20 0.237544 0.025 -0.0291275
-2.71824e-20 -0.237544 0.025 -0.0281926
0 -0.238741 0.00749992 -0.0288421
6.46235e-27 0.238741 0.00749992 -0.029797
1.35859e-21 -0.238124 0.01875 -0.0281938
7.84839e-22 0.238124 0.01875 -0.0290636
8.07794e-28 0.238701 0.00874999 -0.0298834
-2.71051e-20 0.237834 0.0221875 -0.0291135
0 -0.237834 0.0221875 -0.0281897
0 -0.238741 0.00812497 -0.0288616
3.23117e-27 0.238741 0.00812497 -0.0298635
2.71051e-20 0.238432 0.0146875 -0.0291708
-2.71051e-20 -0.238432 0.0146875 -0.0282598
0 -0.237 0.03 -0.0281431
-2.06795e-25 0.237 0.03 -0.0290116
0 0.237272 0.0278125 -0.0290836
-2.71051e-20 -0.237272 0.0278125 -0.0281788
-1.29247e-26 -0.238741 0.00874999 -0.0288513
-8.07794e-28 0.238741 0.00874999 -0.0298918
-8.07794e-28 0.238741 0.00894905 -0.0298899
-1.83295e-20 -0.238124 0.019375 -0.0281947
3.09077e-20 0.238124 0.019375 -0.0290743
0 0.237 0.0301963 -0.0290031
3.19958e-20 0.237544 0.025625 -0.0291255
1.36733e-20 -0.237544 0.025625 -0.0281931
2.71051e-20 -0.238432 0.0153125 -0.0282394
0 0.238433 0.0153125 -0.0291217
0 -0.238741 0.009375 -0.0288193
0 0.238741 0.009375 -0.0298856
0 0.237834 0.0228125 -0.0291235
0 -0.237834 0.0228125 -0.0281926
1.29247e-26 -0.238918 0.00373619 -0.0284918
1.29247e-26 -0.238741 0.01 -0.028772
2.73027e-20 0.238741 0.01 -0.0298489
0 0.238956 0.000288814 -0.0294957
2.71051e-20 -0.238956 0.000288814 -0.0284929
-1.91757e-20 -0.238124 0.02 -0.028196
1.43873e-20 0.238124 0.02 -0.0290865
-2.71051e-20 -0.238432 0.0159375 -0.0282221
-2.71051e-20 0.238433 0.0159375 -0.0290897
-2.71051e-20 0.237272 0.0284375 -0.0290671
5.42101e-20 -0.237272 0.0284375 -0.0281718
8.27181e-25 -0.237 0.030625 -0.0281266
0 0.237 0.030625 -0.0289844
0 -0.238741 0.010625 -0.0287131
3.2973e-20 0.238741 0.010625 -0.0297908
0 0.237834 0.0234375 -0.0291294
2.71051e-20 -0.237834 0.0234375 -0.0281936
-7.16545e-21 -0.237544 0.02625 -0.0281926
-8.29662e-21 0.237544 0.02625 -0.0291207
-5.42101e-20 -0.239 0.000876671 -0.0284872
0 0.239 0.000876671 -0.0294839
5.16988e-26 -0.238741 0.01125 -0.0286434
0 0.238741 0.01125 -0.0297171
-2.71051e-20 0.238433 0.0165625 -0.0290747
0 -0.238433 0.0165625 -0.0282145
6.46235e-27 0.238741 0.0113017 -0.0297099
-5.27028e-21 -0.238124 0.020625 -0.0281974
4.86643e-21 0.238124 0.020625 -0.0290992
2.71051e-20 -0.239031 0.00149329 -0.0284889
0 0.239031 0.00149329 -0.0294901
0 -0.238741 0.011875 -0.0285639
-6.46235e-27 0.238741 0.011875 -0.0296304
0 0.237272 0.0290625 -0.0290475
-2.71051e-20 -0.237272 0.0290625 -0.0281627
0 0.237834 0.0240625 -0.0291352
5.42101e-20 -0.237834 0.0240625 -0.0281962
0 0.238432 0.0171875 -0.0290649
0 -0.238432 0.0171875 -0.0282072
-4.1359e-25 -0.237 0.03125 -0.0281069
4.1359e-25 0.237 0.03125 -0.0289548
6.46855e-21 -0.237544 0.026875 -0.0281909
1.73017e-20 0.237544 0.026875 -0.0291129
-2.71051e-20 0.239054 0.0021315 -0.0295025
5.42101e-20 -0.239054 0.0021315 -0.0284822
0 -0.238741 0.0125 -0.0284774
2.58494e-26 0.238741 0.0125 -0.0295305
-1.97166e-20 -0.238124 0.02125 -0.0281989
2.83612e-20 0.238124 0.02125 -0.0291114
-2.71051e-20 -0.239065 0.00277515 -0.0284773
2.71051e-20 0.239065 0.00277515 -0.0295145
0 0.238612 0.015 -0.0291563
0 0.239066 0.00341637 -0.0295141
0 -0.239066 0.00341637 -0.0284847
2.71051e-20 -0.238432 0.0178125 -0.028207
-5.42101e-20 0.238433 0.0178125 -0.0290689
-2.71051e-20 0.239063 0.00405176 -0.0295066
2.71051e-20 -0.239063 0.00405176 -0.0284974
0 0.238741 0.013125 -0.0294238
0 -0.238741 0.013125 -0.0283966
0 0.239062 0.00468248 -0.0294966
0 -0.239062 0.00468248 -0.0285244
0 0.237834 0.0246875 -0.0291368
5.42101e-20 -0.237834 0.0246875 -0.0281971
0 0.239061 0.00531037 -0.0295132
2.71051e-20 -0.239061 0.00531037 -0.0286113
2.71051e-20 0.237272 0.0296875 -0.0290246
-5.42101e-20 -0.237272 0.0296875 -0.0281506
-3.00147e-20 0.238124 0.021875 -0.0291226
2.09472e-20 -0.238124 0.021875 -0.0282004
-9.72206e-21 -0.237544 0.0275 -0.0281875
-6.70968e-21 0.237544 0.0275 -0.029102
0 -0.237 0.031875 -0.028084
-4.1359e-25 0.237 0.031875 -0.0289235
2.71051e-20 0.23906 0.0059367 -0.0295889
0 -0.23906 0.0059367 -0.0287224
0 0.238741 0.01375 -0.0293193
-2.58494e-26 -0.238741 0.01375 -0.0283358
2.71051e-20 -0.238432 0.0184375 -0.0282048
0 0.238433 0.0184375 -0.0290724
2.71051e-20 0.23906 0.00656221 -0.0297187
0 -0.23906 0.00656221 -0.0288289
5.42101e-20 -0.23906 0.0071874 -0.0288876
5.42101e-20 0.23906 0.0071874 -0.029836
1.29247e-26 0.238741 0.014375 -0.0292289
0 -0.238741 0.014375 -0.0282921
2.71051e-20 0.237834 0.0253125 -0.0291374
-2.71051e-20 -0.237834 0.0253125 -0.0281989
-1.03398e-25 0.238124 0.0225 -0.0291323
1.67563e-20 -0.238124 0.0225 -0.0282018
2.71051e-20 0.23906 0.00781246 -0.0299174
0 -0.23906 0.00781246 -0.0289075
-2.71051e-20 0.238432 0.0190625 -0.0290847
2.71051e-20 -0.238432 0.0190625 -0.0282075
0 0.237272 0.0303125 -0.0289987
-2.71051e-20 -0.237272 0.0303125 -0.0281356
2.42232e-20 -0.237544 0.028125 -0.0281822
2.67252e-21 0.237544 0.028125 -0.029088
2.71051e-20 0.23906 0.00843749 -0.0299485
-5.42101e-20 -0.23906 0.00843749 -0.0288986
0 -0.238741 0.015 -0.0282646
1.61559e-27 0.238741 0.015 -0.0291646
-4.1359e-25 0.237 0.0325 -0.0288905
-4.1359e-25 -0.237 0.0325 -0.0280583
0 0.238741 0.0151474 -0.0291544
1.65436e-24 0.239232 1.14178e-08 -0.0294992
0 -0.239232 7.9948e-09 -0.0284957
2.71051e-20 0.23906 0.0090625 -0.0299433
2.71051e-20 -0.23906 0.0090625 -0.0288655
0 0.238432 0.0196875 -0.0290932
2.71051e-20 -0.238432 0.0196875 -0.0282063
5.42101e-20 -0.237834 0.0259375 -0.0281985
2.71051e-20 0.237834 0.0259375 -0.029134
1.02289e-20 0.238124 0.023125 -0.0291403
-1.3876e-20 -0.238124 0.023125 -0.0282033
-6.46235e-27 -0.239205 0.00436813 -0.0285108
1.29247e-26 -0.238741 0.015625 -0.0282463
-6.46235e-27 0.238741 0.015625 -0.0291213
8.13152e-20 0.239061 0.0096875 -0.0299121
-5.42101e-20 -0.239061 0.0096875 -0.0288244
2.06795e-25 -0.237 0.0328488 -0.0280428
-1.10631e-20 -0.237544 0.02875 -0.0281747
0 0.237544 0.02875 -0.0290707
0 0.237272 0.0309375 -0.0289702
0 -0.237272 0.0309375 -0.0281176
2.71051e-20 -0.23906 0.0103125 -0.0287685
5.42101e-20 0.239061 0.0103125 -0.0298558
1.86662e-20 0.239291 0.000573876 -0.0294949
2.59387e-20 -0.239291 0.00057387 -0.0284933
-1.29247e-26 -0.238741 0.01625 -0.0282342
-4.50141e-21 0.238741 0.01625 -0.0290974
-2.71051e-20 0.238432 0.0203125 -0.0291085
2.71051e-20 -0.238432 0.0203125 -0.0282097
-4.1359e-25 0.237 0.033125 -0.0288569
0 -0.237 0.033125 -0.0280306
-2.11032e-20 0.238124 0.02375 -0.0291462
3.53232e-20 -0.238124 0.02375 -0.0282046
-2.71051e-20 0.23906 0.0109375 -0.0297896
-2.71051e-20 -0.239061 0.0109375 -0.0287073
-2.71051e-20 0.237834 0.0265625 -0.0291289
-5.42101e-20 -0.237834 0.0265625 -0.0281983
1.29247e-26 -0.238741 0.016875 -0.0282269
2.32803e-22 0.238741 0.016875 -0.029085
-2.58494e-26 0.23745 0.03 -0.0290237
-3.55291e-20 0.239335 0.00117391 -0.0294972
-1.69183e-20 -0.239335 0.00117392 -0.0284923
0 0.239061 0.0115625 -0.0297065
0 -0.239061 0.0115625 -0.0286319
0 0.237544 0.029375 -0.0290501
-1.9387e-26 0.237544 0.0293311 -0.0290516
2.71051e-20 0.238432 0.0209375 -0.0291181
-2.71051e-20 -0.238432 0.0209375 -0.0282088
2.66311e-21 -0.237544 0.029375 -0.0281647
0 0.237272 0.0315625 -0.0289395
0 -0.237272 0.0315625 -0.0280961
5.50034e-21 0.238124 0.024375 -0.02915
-3.27998e-21 -0.238124 0.024375 -0.0282059
-2.71051e-20 0.23906 0.0121875 -0.0296171
5.42101e-20 -0.23906 0.0121875 -0.0285504
8.27181e-25 0.239367 0.00180576 -0.0295046
1.08783e-20 -0.239367 0.00180576 -0.0284834
-6.46235e-27 -0.238741 0.0175 -0.0282238
-6.84691e-21 0.238741 0.0175 -0.029083
0 0.237834 0.0271875 -0.0291199
2.71051e-20 -0.237834 0.0271875 -0.0281957
4.1359e-25 0.237 0.03375 -0.0288243
0 -0.237 0.03375 -0.0280017
0 0.239388 0.00244888 -0.0295134
-8.64383e-21 -0.239388 0.00244888 -0.0284699
2.71051e-20 -0.23906 0.0128125 -0.0284546
0 0.239061 0.0128125 -0.0295073
0 0.238432 0.0215625 -0.0291326
5.42101e-20 -0.238432 0.0215625 -0.0282121
2.06795e-25 0.239391 0.00309523 -0.0295174
-2.12591e-20 -0.239391 0.00309522 -0.028466
1.61559e-27 -0.238741 0.0179102 -0.0282234
-1.03398e-25 0.239387 0.00373495 -0.0295118
-2.09157e-20 -0.239387 0.00373495 -0.0284778
-5.16988e-25 -0.237 0.0339359 -0.0279931
0 0.239383 0.00436802 -0.0295044
-2.47394e-20 -0.239383 0.00436802 -0.0285114
-1.2221e-20 0.238741 0.018125 -0.0290874
3.23117e-27 -0.238741 0.018125 -0.0282231
-3.23117e-27 -0.239382 0.00482427 -0.0285697
-7.98477e-21 -0.237544 0.03 -0.0281518
0 0.237544 0.03 -0.0290263
1.59524e-20 0.238124 0.025 -0.0291512
2.25361e-20 -0.238124 0.025 -0.0282067
0 0.239381 0.00499721 -0.0295216
0 -0.239381 0.00499721 -0.0285917
0 0.23906 0.0134375 -0.0294017
0 -0.239061 0.0134375 -0.0283781
-2.71051e-20 -0.237272 0.0321875 -0.0280719
-2.71051e-20 0.237272 0.0321875 -0.0289075
-6.46235e-27 -0.23938 0.00562396 -0.0287173
-6.46235e-27 0.23938 0.00562396 -0.0295948
-2.71051e-20 0.237834 0.0278125 -0.0291085
2.71051e-20 -0.237834 0.0278125 -0.0281923
0 -0.23938 0.0062497 -0.0288318
0 0.23938 0.0062497 -0.0297167
0 0.238432 0.0221875 -0.0291406
0 -0.238432 0.0221875 -0.0282113
-4.03897e-28 0.239281 0.009375 -0.0299558
2.01948e-28 0.239206 0.01125 -0.0297673
2.71051e-20 0.23906 0.0140625 -0.0292923
0 -0.239061 0.0140625 -0.0283257
-1.22568e-20 -0.238741 0.01875 -0.0282242
-9.70787e-22 0.238741 0.01875 -0.0290964
2.44179e-20 -0.23938 0.00687491 -0.0289035
0 0.23938 0.00687491 -0.0298467
0 0.237 0.034375 -0.0287952
0 -0.237 0.034375 -0.0279726
0 -0.23938 0.00749998 -0.0289347
0 0.23938 0.00749998 -0.0299405
-1.04828e-20 -0.238124 0.025625 -0.028207
-2.45052e-22 0.238124 0.025625 -0.0291501
3.23117e-27 -0.239453 0.00499651 -0.0285966
-2.40463e-20 -0.237544 0.030625 -0.028136
0 0.237544 0.030625 -0.0289995
2.71051e-20 -0.23906 0.0146875 -0.0282876
-5.42101e-20 0.239061 0.0146875 -0.0292108
0 -0.23938 0.00812499 -0.0289341
0 0.23938 0.00812499 -0.0299833
-2.71051e-20 0.238432 0.0228125 -0.0291519
0 -0.238433 0.0228125 -0.0282141
9.86219e-21 -0.238741 0.019375 -0.0282253
1.84262e-20 0.238741 0.019375 -0.0291073
0 0.237834 0.0284375 -0.0290932
-2.71051e-20 -0.237834 0.0284375 -0.0281861
-2.71051e-20 -0.237272 0.0328125 -0.0280447
0 0.237272 0.0328125 -0.0288736
-3.23117e-27 -0.23938 0.00875 -0.0289118
0 0.23938 0.00875 -0.0299906
0 0.239061 0.0153125 -0.0291554
0 -0.239061 0.0153125 -0.028272
0 -0.23938 0.009375 -0.0288724
1.24579e-20 0.23938 0.009375 -0.0299686
-1.80946e-25 -0.237 0.0349567 -0.0279467
1.89928e-20 -0.238124 0.02625 -0.0282064