# U  POINT_DATA 5809
# x  y  z  U_x  U_y  U_z
-1.57772e-30 -0.237 8.31749e-08 1.93074e-14 -7.57725e-16 -1.03403e-15
-1.09046e-25 0.237 8.64572e-08 1.56611e-14 1.43197e-15 -1.28654e-15
0 0.237 0.000550924 8.62754e-09 3.68024e-10 -1.64411e-09
0 -0.237 0.000550925 1.11371e-08 -3.59149e-10 -1.36593e-09
0 0.237 0.0011232 8.2334e-08 -2.74422e-11 -9.08631e-09
0 -0.237 0.0011232 1.1725e-07 -9.69402e-10 -1.39096e-08
0 0.237 0.00172954 1.86057e-08 -8.65841e-10 4.00975e-09
0 -0.237 0.00172954 2.7251e-08 1.09056e-09 1.69489e-10
0 -0.237 0.00236831 6.14031e-08 5.97424e-09 1.71236e-08
0 0.237 0.00236831 3.60829e-08 -2.73895e-09 2.54661e-08
-8.27181e-25 -0.237 0.00302578 4.64206e-08 4.50701e-09 2.77524e-08
0 0.237 0.00302578 2.46744e-08 -1.51886e-09 2.615e-08
0 0.237 0.00361376 0 0 0
0 -0.237 0.00366636 0 0 0
0 0.237 0.00368597 4.13638e-09 -8.07717e-11 3.88667e-09
0 -0.237 0.00368597 1.53288e-09 6.58242e-11 1.03066e-09
-1.03398e-25 0.237 0.00384697 0 0 0
0 0.237 0.00433887 1.2524e-08 -6.93437e-10 1.21164e-08
1.03398e-25 -0.237 0.00433887 5.3971e-09 2.70708e-10 3.88603e-09
-4.1359e-25 0.237 0.00498192 1.32436e-08 -1.537e-09 1.13477e-08
0 -0.237 0.00498192 6.31803e-09 7.97668e-10 5.0389e-09
0 0.237 0.0056169 1.54451e-08 -2.90533e-09 1.35927e-08
0 -0.237 0.0056169 5.1101e-09 1.25889e-09 4.51863e-09
-2.06795e-25 0.237 0.0060091 0 0 0
2.06795e-25 -0.237 0.00624674 5.61928e-10 -5.36131e-11 -1.8041e-09
0 0.237 0.00624674 7.37278e-09 -1.70436e-09 5.81237e-09
-2.06795e-25 -0.237 0.00687382 -8.70795e-09 -3.63017e-09 -1.65107e-08
0 0.237 0.00687382 4.47021e-09 -4.27692e-10 4.16833e-10
3.87741e-26 -0.237078 0.00368896 0.00084438 0.000141224 0.000590526
-4.1359e-25 0.237 0.00749962 -4.35511e-09 4.02037e-09 -1.64202e-08
0 -0.237 0.00749962 -2.35642e-08 -7.43377e-09 -3.7477e-08
0 -0.237 0.00812489 -4.32389e-08 -1.00253e-08 -6.20566e-08
-4.1359e-25 0.237 0.0081249 -2.10497e-08 9.83088e-09 -4.57804e-08
-4.1359e-25 0.237 0.00874998 -4.75669e-08 1.48172e-08 -8.75182e-08
0 -0.237 0.00874998 -6.19773e-08 -9.98764e-09 -8.14242e-08
0 0.237 0.009375 -7.70886e-08 1.59792e-08 -1.27364e-07
2.06795e-25 -0.237 0.009375 -6.28287e-08 -6.63809e-09 -7.56438e-08
0 -0.237 0.0096071 0 0 0
-4.1359e-25 0.237 0.01 -1.05702e-07 1.38574e-08 -1.58743e-07
-4.1359e-25 -0.237 0.01 -1.3737e-07 -7.84141e-09 -1.40986e-07
4.1359e-25 -0.237 0.010625 -2.0664e-07 -5.92109e-09 -1.91238e-07
8.27181e-25 0.237 0.010625 -1.3688e-07 1.02951e-08 -1.86213e-07
0 0.237223 0.00369457 0.00130646 -0.000284135 0.00234944
-2.71051e-20 0.237263 0.000279273 0.000851719 9.52444e-05 -5.22206e-05
2.71051e-20 -0.237263 0.000279185 0.00214166 -9.7801e-05 -0.000119724
0 -0.237 0.01125 -2.54764e-07 -2.25938e-09 -2.08881e-07
0 0.237 0.01125 -1.50592e-07 5.38624e-09 -1.83651e-07
0 0.237267 0.000847159 0.00341169 1.86334e-05 -0.000755469
0 -0.237267 0.000847159 0.00489066 -9.11804e-05 -0.000646429
0 -0.237269 0.00144351 0.00539158 4.66583e-05 -0.000395505
0 0.237269 0.00144351 0.00350955 -0.000150154 0.000127798
-2.71051e-20 -0.23727 0.00206936 0.00530221 0.000353539 0.000598014
0 0.23727 0.00206936 0.00322037 -0.000276287 0.00162964
2.71051e-20 -0.23727 0.00271568 0.00522982 0.000562759 0.00221742
0 0.23727 0.00271568 0.00322339 -0.000227331 0.00308523
-2.71051e-20 0.23727 0.00336939 0.00355795 -0.000111434 0.00385797
0 -0.23727 0.00336939 0.00526424 0.000355872 0.00360309
0 -0.237 0.011875 -2.70009e-07 8.41637e-10 -1.93583e-07
0 0.237 0.011875 -1.256e-07 1.20672e-09 -1.35545e-07
5.42101e-20 0.237271 0.00402047 0.00403143 -0.000100332 0.00385565
-2.71051e-20 -0.237271 0.00402047 0.00519295 0.000124623 0.00394621
0 0.237 0.0121518 0 0 0
-2.71051e-20 0.237271 0.00466435 0.00448972 -0.000327149 0.00355719
5.42101e-20 -0.237271 0.00466435 0.0047245 0.000333623 0.00366563
0 -0.237 0.0125 -2.41675e-07 2.22831e-09 -1.49828e-07
-4.1359e-25 0.237 0.0125 -1.79032e-07 -1.3362e-09 -1.57367e-07
2.71051e-20 0.237272 0.00530117 0.00471068 -0.000698447 0.00357439
-2.71051e-20 -0.237272 0.00530117 0.00326097 0.000647737 0.00302563
2.58494e-26 -0.237306 0.00434507 0.00303895 0.000121989 0.00190195
0 0.237272 0.0059324 0.00391933 -0.000871279 0.00341804
0 -0.237272 0.0059324 0.001261 0.000513762 0.00131527
2.71051e-20 0.237272 0.00656043 0.00221891 -0.00066585 0.00193995
-2.71051e-20 -0.237272 0.00656043 -0.000888153 -0.000412498 -0.00204977
-4.1359e-25 0.237 0.013125 -2.36303e-07 -3.86635e-09 -1.78575e-07
0 -0.237 0.013125 -1.96141e-07 2.06714e-09 -1.04516e-07
2.71051e-20 0.237272 0.00718674 0.000231009 0.000321716 -0.00138035
-5.42101e-20 -0.237272 0.00718674 -0.00424887 -0.00158853 -0.00709708
0 -0.237 0.0134875 0 0 0
-4.1359e-25 0.237 0.01375 -2.4468e-07 -4.89813e-09 -1.56922e-07
2.06795e-25 -0.237 0.01375 -1.42441e-07 1.39199e-09 -6.90463e-08
0 0.237272 0.00781225 -0.00275472 0.00164998 -0.00666115
0 -0.237272 0.00781225 -0.00876039 -0.00240776 -0.0128472
0 -0.237272 0.00843743 -0.0136827 -0.00264355 -0.0182787
0 0.237272 0.00843743 -0.00681471 0.00258334 -0.0128999
0 -0.237371 0.00498524 0.00186706 -0.000411031 0.000664572
0 0.237 0.014375 -1.81218e-07 -3.51871e-09 -9.84375e-08
0 -0.237 0.014375 -1.40941e-07 8.7906e-10 -5.90141e-08
-2.71051e-20 0.237272 0.00906248 -0.0112553 0.00284326 -0.0188734
2.71051e-20 -0.237272 0.00906248 -0.0185385 -0.00240287 -0.0227338
0 0.237 0.0146945 0 0 0
-2.71051e-20 -0.237272 0.0096875 -0.0231134 -0.00186442 -0.0258982
-2.71051e-20 0.237272 0.0096875 -0.015614 0.00255167 -0.0238044
4.1359e-25 0.237 0.015 -1.77689e-07 -2.99367e-09 -8.59802e-08
2.06795e-25 -0.237 0.015 -1.33506e-07 2.96264e-10 -4.87178e-08
0 -0.237427 0.0056183 -0.00136787 -0.00150642 -0.00260941
-2.71051e-20 -0.237272 0.0103125 -0.0272947 -0.00119111 -0.027654
-2.71051e-20 0.237272 0.0103125 -0.0197058 0.00193266 -0.0273359
0 0.237 0.015625 -2.47628e-07 -2.9951e-09 -1.01524e-07
0 -0.237 0.015625 -1.30003e-07 -1.7953e-10 -4.17418e-08
0 0.23752 8.32931e-08 3.08337e-09 2.71102e-10 -3.90108e-10
0 -0.237521 8.4701e-08 9.46768e-09 -4.62556e-10 -4.68564e-10
-1.03398e-25 0.237523 0.00017771 0.000900299 -9.92852e-06 -0.000124014
2.71051e-20 -0.237272 0.0109375 -0.0309753 -0.000556861 -0.0279778
-2.71051e-20 0.237272 0.0109375 -0.0234671 0.001199 -0.029373
0 -0.237529 0.000533903 0.0043185 -4.08691e-05 -0.00032997
1.30587e-20 0.237529 0.000562809 0.00285216 -3.14533e-05 -0.000392878
0 -0.237529 0.000562807 0.00455232 -4.3082e-05 -0.000347836
0 0.237533 0.00115011 0.00350491 -0.000663469 0.000199908
0 -0.237533 0.00115011 0.00606119 0.000460216 -0.000249241
0 0.237538 0.00176909 0.00258179 -0.00127701 0.00208112
0 -0.237538 0.00176909 0.00569187 0.00124758 0.000682351
0 -0.237469 0.00624719 -0.00567914 -0.00292673 -0.00778028
4.1359e-25 0.23754 0.0024097 0.00196718 -0.00141546 0.00409301
-1.63962e-20 -0.23754 0.0024097 0.00531511 0.00187439 0.00212809
2.71051e-20 -0.237272 0.0115625 -0.0341015 -6.08792e-05 -0.0270993
0 0.237272 0.0115625 -0.0268698 0.000518865 -0.0299371
0 0.237 0.01625 -2.51988e-07 -1.7746e-09 -8.74417e-08
0 -0.237 0.01625 -1.33692e-07 -5.90674e-10 -3.80932e-08
0 -0.237541 0.00305869 0.00553488 0.00177494 0.00354034
2.06795e-25 0.237541 0.00305869 0.00223385 -0.00110822 0.00541891
-1.29247e-26 -0.23756 0.000563223 0.00458212 -2.37458e-05 -0.000334996
0 -0.237542 0.00370687 0.00589766 0.000986392 0.00412459
0 0.237542 0.00370687 0.00317432 -0.000690368 0.00570848
-5.16988e-26 -0.237543 0.00434987 0.00538928 0.000216335 0.00337292
0 0.237543 0.00434987 0.00432181 -0.00049847 0.00510873
0 -0.237272 0.0121875 -0.036644 0.000278952 -0.0252832
-8.13152e-20 0.237272 0.0121875 -0.0299169 -2.10647e-05 -0.0292803
-1.33882e-20 0.237543 0.00498678 0.00494748 -0.000495445 0.00393089
0 -0.237543 0.00498678 0.0027325 -0.000601557 0.000972622
0 -0.237499 0.0068739 -0.0106827 -0.00407514 -0.0139813
4.1359e-25 0.237 0.016875 -2.21035e-07 -5.65773e-10 -6.53589e-08
0 -0.237 0.016875 -1.45348e-07 -9.77089e-10 -3.6972e-08
6.46235e-27 0.237526 0.00624724 0.0001275 0.00153762 -0.00232054
-9.19024e-21 0.237544 0.00561869 0.0036497 7.52487e-05 0.00174841
0 -0.237544 0.00561869 -0.0017437 -0.00192031 -0.00332635
-2.71051e-20 -0.237272 0.0128125 -0.0385278 0.000444113 -0.0228544
0 0.237272 0.0128125 -0.0326224 -0.000432193 -0.0276365
2.00312e-20 -0.237544 0.00624726 -0.00658681 -0.00339449 -0.00902376
6.46235e-27 0.237544 0.00624726 0.000131928 0.00159101 -0.00240112
4.1359e-25 0.237 0.0172755 0 0 0
-6.46235e-27 0.237544 0.00645559 -0.00132547 0.0021777 -0.00435878
-1.29247e-26 -0.237524 0.00749961 -0.0164682 -0.00456671 -0.0204463
-2.58494e-26 -0.237544 0.00687391 -0.0116546 -0.00444589 -0.0152533
0 0.237544 0.00687391 -0.00425188 0.00335573 -0.00828969
0 -0.237 0.0175 -1.72516e-07 -1.44799e-09 -3.94425e-08
-2.06795e-25 0.237 0.0175 -1.17658e-07 1.95179e-10 -2.73861e-08
2.71051e-20 -0.237272 0.0134375 -0.0397505 0.000429068 -0.020219
0 0.237272 0.0134375 -0.0349187 -0.0006893 -0.0252438
-2.58494e-26 0.237544 0.00749961 -0.00890558 0.00463451 -0.0149032
0 -0.237544 0.00749961 -0.0171057 -0.00474349 -0.0212378
1.03398e-25 0.237 0.0177366 0 0 0
0 -0.237544 0.00796935 -0.0212184 -0.00439276 -0.0250353
0 -0.237497 0.00937499 -0.0297528 -0.00186716 -0.0297013
1.18271e-21 0.237544 0.00812487 -0.0138919 0.00507361 -0.0213954
0 -0.237544 0.00812487 -0.0225801 -0.00427664 -0.0262926
5.42101e-20 -0.237272 0.0140625 -0.0404557 0.00031429 -0.0177128
0 0.237272 0.0140625 -0.0367517 -0.000786117 -0.0224106
4.1359e-25 -0.237 0.018125 -2.12052e-07 -2.04938e-09 -4.33364e-08
0 0.237 0.018125 -1.9409e-07 9.54121e-10 -4.23395e-08
1.93025e-20 0.237544 0.00874996 -0.0188963 0.00462556 -0.0269585
1.88007e-20 -0.237544 0.00874996 -0.0277535 -0.00327933 -0.0300672
0 -0.237544 0.00896088 -0.0293734 -0.0028621 -0.0308873
0 -0.237272 0.0146875 -0.0408041 0.000163057 -0.0154934
-2.71051e-20 0.237272 0.0146875 -0.0381036 -0.00071253 -0.0194884
-2.12714e-20 0.237544 0.00937499 -0.0235833 0.00354968 -0.031134
-2.58494e-26 -0.237544 0.00937499 -0.0325537 -0.00204293 -0.0324975
0 -0.237 0.01875 -2.73952e-07 -2.9007e-09 -4.97215e-08
-4.1359e-25 0.237 0.01875 -2.34013e-07 1.75604e-09 -4.45628e-08
-2.14989e-20 0.237544 0.01 -0.0278795 0.00219253 -0.0338309
0 -0.237544 0.01 -0.0370359 -0.000781438 -0.0336674
6.46235e-27 -0.23762 0.00812488 -0.0239815 -0.00446839 -0.0274963
0 -0.237272 0.0153125 -0.0409625 2.427e-07 -0.0136265
-2.71051e-20 0.237272 0.0153125 -0.0390897 -0.000551399 -0.0167786
0 -0.237544 0.010625 -0.0412945 0.000358095 -0.0337278
4.63769e-21 0.237544 0.010625 -0.0318637 0.000825491 -0.0351618
0 -0.237 0.019375 -3.43668e-07 -3.86752e-09 -5.47133e-08
4.1359e-25 0.237 0.019375 -2.47261e-07 2.42295e-09 -4.09617e-08
-2.71051e-20 0.237799 0.000284465 0.00280485 0.000318417 -0.000373138
2.71051e-20 -0.237799 0.000284553 0.00396062 -0.000273408 -0.000193927
-2.71051e-20 -0.237272 0.0159375 -0.0410621 -0.000124232 -0.0120713
-2.71051e-20 0.237272 0.0159375 -0.039836 -0.000366275 -0.0144079
0 -0.237544 0.01125 -0.0453221 0.0012839 -0.0328059
4.93062e-21 0.237544 0.01125 -0.0356844 -0.000394431 -0.0353413
-2.71051e-20 0.237811 0.000863452 0.00439469 -0.000578643 -0.000389605
-5.42101e-20 -0.237811 0.000863452 0.00731671 0.000303083 -0.000433835
0 -0.23782 0.00147122 0.00667213 0.00163699 0.000513121
0 0.23782 0.00147122 0.00266375 -0.00200608 0.00189077
2.71051e-20 -0.237826 0.00210431 0.00538583 0.00302543 0.00205998
0 0.237826 0.00210431 0.00086176 -0.00273525 0.00477277
2.06795e-25 -0.237544 0.011875 -0.0489706 0.00194413 -0.0310095
0 0.237544 0.011875 -0.0394197 -0.00140416 -0.0345448
0 -0.237 0.02 -3.77852e-07 -4.49035e-09 -5.18495e-08
0 0.237 0.02 -2.41817e-07 2.90802e-09 -3.48316e-08
0 0.237544 0.0119635 -0.0399298 -0.0015156 -0.0343097
-5.42101e-20 0.237829 0.00274869 0.000515148 -0.00245617 0.0069559
0 -0.237829 0.00274869 0.00534483 0.00360968 0.00366005
-5.42101e-20 -0.237272 0.0165625 -0.0411322 -0.000240574 -0.0107669
-2.71051e-20 0.237272 0.0165625 -0.0404492 -0.000176354 -0.0124105
0 -0.23783 0.00339421 0.00632209 0.00259409 0.00468566
5.42101e-20 0.23783 0.00339421 0.00161925 -0.00165231 0.00782484
0 0.237831 0.00403604 0.00348536 -0.000904122 0.00733476
2.71051e-20 -0.237831 0.00403604 0.00683334 0.000875205 0.00426261
0 -0.237544 0.0125 -0.0520482 0.00228918 -0.0285353
2.06795e-25 0.237544 0.0125 -0.0430243 -0.00219161 -0.0328837
0 0.237832 0.00467279 0.00528793 -0.000666136 0.00571673
0 -0.237832 0.00467279 0.00481044 -0.000477709 0.00159426
0 -0.237485 0.01375 -0.0498877 0.00180219 -0.0203607
-2.71051e-20 0.237833 0.00530504 0.00531126 -0.000286617 0.00287869
-2.71051e-20 -0.237833 0.00530504 -0.00191595 -0.00295197 -0.00448178
-6.46235e-27 0.237793 0.00687412 -0.00862907 0.00644401 -0.0144461
-2.71051e-20 -0.237272 0.0171875 -0.0412504 -0.000311316 -0.00964969
0 0.237272 0.0171875 -0.0409807 -1.90455e-05 -0.0107275
0 -0.237 0.020625 -3.53524e-07 -4.41335e-09 -4.07642e-08
0 0.237 0.020625 -2.43609e-07 3.45652e-09 -3.03584e-08
0 0.237544 0.013125 -0.046392 -0.00272486 -0.0305049
0 -0.237544 0.013125 -0.0543864 0.00229028 -0.025694
-5.42101e-20 0.237833 0.00593404 0.000632325 0.00218831 -0.00294017
0 -0.237833 0.00593404 -0.00971343 -0.00597398 -0.0133467
2.71051e-20 0.237834 0.00656112 -0.00634718 0.00579684 -0.0122028
-5.42101e-20 -0.237834 0.00656112 -0.0172446 -0.00782542 -0.0223169
5.16988e-26 -0.237922 0.00116186 0.00573699 0.00139723 0.000325289
2.71051e-20 -0.237272 0.0178125 -0.0413373 -0.000381555 -0.00864636
2.71051e-20 0.237272 0.0178125 -0.0414297 0.000148163 -0.00932585
6.46235e-27 -0.23778 0.00874997 -0.0315338 -0.00322629 -0.0326376
-2.06795e-25 0.237544 0.01375 -0.0493769 -0.00296515 -0.0276166
0 -0.237544 0.01375 -0.055949 0.00202115 -0.0228345
2.71051e-20 0.237834 0.00718692 -0.0133096 0.00809813 -0.021827
0 -0.237834 0.00718692 -0.0245663 -0.00808144 -0.0299361
4.1359e-25 -0.237 0.02125 -3.01012e-07 -3.97724e-09 -2.81175e-08
-4.1359e-25 0.237 0.02125 -2.72801e-07 4.44057e-09 -2.91368e-08
0 0.237834 0.00781229 -0.0200714 0.00860302 -0.0301463
0 -0.237834 0.00781229 -0.031239 -0.00699767 -0.0354868
0 -0.237529 0.014375 -0.0552947 0.00157859 -0.019645
0 0.237544 0.014375 -0.0518516 -0.00289387 -0.0245039
-6.46235e-27 -0.237544 0.014375 -0.0568388 0.00162267 -0.0201935
0 0.237834 0.00843743 -0.0262649 0.00756795 -0.0363056
2.71051e-20 -0.237834 0.00843743 -0.03706 -0.00512265 -0.0389562
0 -0.237513 0.015 -0.0539256 0.00111986 -0.0168471
2.71051e-20 -0.237272 0.0184375 -0.0414174 -0.000415535 -0.00771355
5.42101e-20 0.237272 0.0184375 -0.0418898 0.000258948 -0.00815127
5.16988e-26 0.237544 0.0147612 -0.0530372 -0.00269762 -0.0226287
0 -0.237834 0.00906248 -0.042166 -0.00297639 -0.0406559
2.71051e-20 0.237834 0.00906248 -0.0316171 0.00557886 -0.040167
0 0.237 0.021875 -3.17498e-07 5.78236e-09 -2.86484e-08
0 -0.237 0.021875 -2.72784e-07 -3.84806e-09 -1.95058e-08
0 -0.237497 0.015625 -0.052338 0.000733772 -0.0145155
2.06893e-21 0.237544 0.015 -0.0537704 -0.00257624 -0.0214689
-1.29247e-26 -0.237544 0.015 -0.0572152 0.00118818 -0.0178749
2.71051e-20 -0.237834 0.0096875 -0.0468335 -0.000924681 -0.0410064
2.71051e-20 0.237834 0.0096875 -0.0362244 0.00325667 -0.042056
2.71051e-20 -0.237272 0.0190625 -0.0414255 -0.00045802 -0.00679901
5.42101e-20 0.237272 0.0190625 -0.0422634 0.000381041 -0.00712907
0 -0.237497 0.01625 -0.0521283 0.000446365 -0.0129151
-2.59562e-20 0.237544 0.015625 -0.0551856 -0.00214515 -0.0187079
-2.58494e-26 -0.237544 0.015625 -0.0572461 0.000802582 -0.0158767
5.42101e-20 -0.237834 0.0103125 -0.0513424 0.000882238 -0.0403674
-2.71051e-20 0.237834 0.0103125 -0.0403541 0.00102729 -0.0424349
0 -0.23806 2.90145e-09 3.57753e-08 -2.03367e-09 -1.7655e-09
2.06795e-25 0.23806 -5.5536e-11 6.30466e-09 6.40825e-10 -1.00123e-09
0 0.237 0.0225 -3.5329e-07 7.07376e-09 -2.64087e-08
0 -0.237 0.0225 -2.97341e-07 -4.54295e-09 -1.48263e-08
-2.06795e-25 0.238068 0.000191009 0.000932694 -0.000169597 -3.66332e-05
0 0.237431 0.0175 -0.0454223 -0.000677812 -0.0098404
0 0.238083 0.000570196 0.00278423 -0.000506272 -0.000109356
0 -0.238083 0.000570195 0.00508082 0.000299876 -0.00012009
5.42101e-20 -0.237834 0.0109375 -0.0560181 0.00234397 -0.0391317
2.71051e-20 0.237834 0.0109375 -0.0443101 -0.000884537 -0.0417567
-5.42101e-20 -0.237272 0.0196875 -0.04143 -0.000470327 -0.00589601
5.42101e-20 0.237272 0.0196875 -0.0425773 0.000464383 -0.00622999
0 0.237981 0.00749973 -0.0174776 0.00913325 -0.0261142
-3.21423e-20 0.237544 0.01625 -0.0561867 -0.00168091 -0.0162955
0 -0.237544 0.01625 -0.0570548 0.000488549 -0.0141356
-4.1359e-25 0.238097 0.00116715 0.0014804 -0.00239775 0.00163566
0 -0.238097 0.00116715 0.00559109 0.00181889 0.000583831
0 -0.237516 0.016875 -0.053819 0.000236162 -0.0119409
0 -0.237834 0.0115625 -0.0606694 0.00346865 -0.0372108
-5.42101e-20 0.237834 0.0115625 -0.048482 -0.0024577 -0.0405101
0 -0.238109 0.00179591 0.00402033 0.00353608 0.0019304
2.06795e-25 0.238109 0.00179591 -0.00116173 -0.00383388 0.00462319
0 0.237 0.023125 -3.9223e-07 8.5262e-09 -2.36159e-08
0 -0.237 0.023125 -3.48405e-07 -5.82229e-09 -1.00173e-08
0 0.238117 0.00244027 -0.00234172 -0.003941 0.00704478
0 -0.238117 0.00244027 0.00350956 0.00449794 0.00305557
5.42101e-20 -0.237272 0.0203125 -0.0413328 -0.000509441 -0.00499261
2.71051e-20 0.237272 0.0203125 -0.0427095 0.000583528 -0.00540491
0 0.23812 0.00308541 -0.00126134 -0.00296283 0.00803075
-5.16988e-26 -0.23812 0.00308541 0.0046298 0.00375898 0.00344218
9.28334e-21 0.237544 0.016875 -0.0568592 -0.00124893 -0.0142128
0 -0.237544 0.016875 -0.0567341 0.000248954 -0.0125877
-2.71051e-20 -0.237834 0.0121875 -0.0649735 0.0041581 -0.0346241
-2.71051e-20 0.237834 0.0121875 -0.0528203 -0.00371825 -0.0386353
0 -0.238121 0.00372595 0.00535539 0.00120001 0.00259164
0 0.238121 0.00372595 0.00122754 -0.00157489 0.00749975
0 -0.238122 0.00436151 0.00305414 -0.00208295 -0.000566307
2.58494e-26 0.238122 0.00436151 0.00370656 -0.000174573 0.00547231
-6.46235e-27 -0.237544 0.0172731 -0.0564761 0.000135834 -0.0116857
0 -0.238122 0.00499302 -0.00318059 -0.00545858 -0.00664399
0 0.238122 0.00499302 0.00372128 0.00171535 0.00145094
-6.46235e-27 0.237881 0.011875 -0.0447598 -0.00339928 -0.0349739
0 -0.237834 0.0128125 -0.0685859 0.00434727 -0.0315456
0 0.237834 0.0128125 -0.0571753 -0.00466805 -0.0361474
0 0.237 0.02375 -4.44879e-07 1.03732e-08 -2.06854e-08
8.27181e-25 -0.237 0.02375 -3.86612e-07 -7.10811e-09 -3.26546e-09
2.39433e-21 0.237544 0.0175 -0.0572698 -0.000854607 -0.0124071
-6.46235e-27 -0.237544 0.0175 -0.0563291 7.13729e-05 -0.0111717
0 -0.238123 0.00562167 -0.0111269 -0.00850581 -0.0147439
-1.48616e-20 0.238123 0.00562167 -0.000606059 0.00482839 -0.00512099
-2.71051e-20 -0.237272 0.0209375 -0.0412567 -0.000519159 -0.00409084
-5.42101e-20 0.237272 0.0209375 -0.0428367 0.00066095 -0.00465162
0 -0.238123 0.00624853 -0.0183647 -0.0101288 -0.0228069
0 0.238123 0.00624853 -0.0075758 0.00837099 -0.0137824
-2.71051e-20 -0.237834 0.0134375 -0.0712489 0.00400966 -0.0283117
5.42101e-20 0.237834 0.0134375 -0.0613214 -0.00519045 -0.033143
0 -0.238124 0.0068744 -0.0243883 -0.00987891 -0.0291543
-1.29247e-26 0.238124 0.0068744 -0.0144566 0.0105556 -0.0226425
-2.19107e-20 0.237544 0.018125 -0.0574988 -0.000523311 -0.0108333
1.06337e-20 -0.237544 0.018125 -0.0558629 -5.58512e-05 -0.00984078
0 -0.238124 0.00749977 -0.0292894 -0.00818447 -0.0333113
1.29247e-26 0.238124 0.00749977 -0.0202859 0.0106071 -0.029787
0 -0.237834 0.0140625 -0.0729305 0.00339296 -0.0252385
2.71051e-20 0.237834 0.0140625 -0.0650198 -0.00527761 -0.0298098
0 0.237272 0.0215625 -0.0428154 0.00077074 -0.00394286
-2.71051e-20 -0.237272 0.0215625 -0.0410455 -0.000568125 -0.00318688
8.27181e-25 0.237 0.024375 -4.80948e-07 1.19248e-08 -1.61153e-08
-8.27181e-25 -0.237 0.024375 -4.10556e-07 -8.34248e-09 4.43569e-09
0 0.238253 -3.33791e-10 0 0 0
3.23117e-27 0.238124 0.00805007 -0.024458 0.00916797 -0.0340161
0 -0.238124 0.00812492 -0.0333409 -0.00574894 -0.0355354
-1.61559e-27 0.238124 0.00812492 -0.0250255 0.00897222 -0.0345913
-9.09899e-21 -0.237544 0.01875 -0.0553552 -0.000144955 -0.00855627
-1.30372e-20 0.237544 0.01875 -0.057585 -0.000250276 -0.00942926
-1.29247e-26 -0.238124 0.00874998 -0.0370527 -0.00314885 -0.0363902
0 0.238124 0.00874998 -0.0288534 0.00639227 -0.0372309
2.71051e-20 -0.237834 0.0146875 -0.073768 0.00267188 -0.022463
2.71051e-20 0.237834 0.0146875 -0.0680685 -0.00487904 -0.0264389
0 0.237272 0.0221875 -0.0428338 0.000833102 -0.0032874
-2.71051e-20 -0.237272 0.0221875 -0.0408579 -0.000589937 -0.00229131
0 -0.238124 0.00937499 -0.0409821 -0.000748795 -0.0364344
1.29906e-20 0.238124 0.00937499 -0.0321829 0.00356214 -0.038254
-8.27181e-25 0.237 0.025 -4.8327e-07 1.25865e-08 -1.02005e-08
0 -0.237 0.025 -4.27753e-07 -9.5888e-09 1.2272e-08
5.42101e-20 -0.237834 0.0153125 -0.073934 0.00195872 -0.0200398
5.42101e-20 0.237834 0.0153125 -0.0703846 -0.00423436 -0.0232937
3.56757e-20 -0.237544 0.019375 -0.0548225 -0.000208749 -0.00728985
2.80914e-20 0.237544 0.019375 -0.0575493 -1.79266e-05 -0.00815025
0 -0.238124 0.01 -0.045523 0.00133698 -0.0360505
5.2839e-21 0.238124 0.01 -0.0355276 0.000921394 -0.0382398
0 -0.238124 0.010625 -0.0507723 0.00312156 -0.0353582
-2.27215e-20 0.238124 0.010625 -0.039304 -0.001338 -0.0376315
2.71051e-20 -0.238362 0.000287929 0.00375723 -0.000307121 -0.000195823
5.42101e-20 0.238362 0.000287929 0.00251097 0.000408232 -0.00043334
-2.71051e-20 0.237272 0.0228125 -0.0426977 0.000929896 -0.00266734
0 -0.237272 0.0228125 -0.0404858 -0.00065763 -0.00142063
2.71051e-20 -0.237834 0.0159375 -0.0736297 0.00140777 -0.0178817
-2.71051e-20 0.237834 0.0159375 -0.0720172 -0.00349134 -0.0204674
0 -0.237 0.025625 -4.32126e-07 -1.06741e-08 1.94474e-08
8.27181e-25 0.237 0.025625 -4.70651e-07 1.27299e-08 -4.2889e-09
1.29247e-26 -0.23774 0.0175 -0.0621098 0.000423704 -0.0113601
6.48282e-21 -0.237544 0.02 -0.0542764 -0.00026681 -0.00603877
1.75214e-20 0.237544 0.02 -0.0574098 0.000193329 -0.00697472
-1.03398e-25 -0.238124 0.01125 -0.0565262 0.00460087 -0.0342688
-3.20249e-20 0.238124 0.01125 -0.0436799 -0.00323309 -0.0366458
-5.42101e-20 0.238389 0.000874094 0.00136092 -0.00225509 0.000801532
-2.71051e-20 -0.238389 0.000874094 0.00529964 0.00153494 0.000366036
1.29247e-26 0.238124 0.0115928 -0.0463859 -0.00411393 -0.0358986
0 0.237834 0.0165625 -0.0730414 -0.00274214 -0.0180037
-2.71051e-20 -0.237834 0.0165625 -0.0729888 0.000936196 -0.0159235
2.42338e-27 0.238273 0.00812493 -0.0243857 0.00890328 -0.0339206
-2.71051e-20 -0.238408 0.00148916 0.00294796 0.00389808 0.00195403
2.71051e-20 0.238408 0.00148916 -0.00269722 -0.00486758 0.00436621
0 -0.238124 0.011875 -0.0623653 0.00568362 -0.0326243
1.29247e-26 0.238124 0.011875 -0.0486134 -0.00483901 -0.0352836
2.58494e-26 -0.238409 0.00244824 0.00170255 0.00518541 0.00310941
-5.42101e-20 0.237272 0.0234375 -0.0426616 0.000983875 -0.00209545
-5.42101e-20 -0.237272 0.0234375 -0.0401915 -0.000697514 -0.000591214
2.71051e-20 -0.238422 0.00212682 0.000960067 0.00565802 0.00323121
-5.42101e-20 0.238422 0.00212682 -0.00564744 -0.00580402 0.00755075
1.76907e-20 -0.237544 0.020625 -0.0537376 -0.000319073 -0.00480157
2.19445e-20 0.237544 0.020625 -0.0572037 0.000382624 -0.0058844
2.71051e-20 -0.238429 0.00277088 0.00229348 0.00573543 0.0032511
-2.71051e-20 0.238429 0.00277088 -0.0052024 -0.00481276 0.00892564
-8.27181e-25 -0.237 0.02625 -4.1988e-07 -1.131e-08 2.50651e-08
-8.27181e-25 0.237 0.02625 -4.5548e-07 1.26064e-08 1.26036e-09
-1.03398e-25 -0.238124 0.0125 -0.0676981 0.006205 -0.0303574
-5.16988e-26 0.238124 0.0125 -0.0539187 -0.00615372 -0.0334649
-2.71051e-20 0.237834 0.0171875 -0.0735663 -0.00210104 -0.0158079
0 -0.237834 0.0171875 -0.0721435 0.000631043 -0.0140991
-5.42101e-20 0.238431 0.0034119 -0.00205573 -0.00296218 0.00842136
0 -0.238431 0.0034119 0.00451603 0.00311745 0.00211995
2.71051e-20 0.238431 0.00404796 0.00180727 -0.000791559 0.00641264
0 -0.238431 0.00404796 0.00369657 -0.00180518 -0.000775666
-2.71051e-20 0.238431 0.00467997 0.00421333 0.00168928 0.00239156
2.71051e-20 -0.238431 0.00467997 -0.003221 -0.00700557 -0.00746272
0 0.238124 0.013125 -0.0593187 -0.00706285 -0.0311641
-5.16988e-26 -0.238124 0.013125 -0.0719766 0.00605417 -0.0276311
2.71051e-20 0.237272 0.0240625 -0.0424984 0.00106838 -0.00155283
2.71051e-20 -0.237272 0.0240625 -0.0397058 -0.000780477 0.000185389
-2.71051e-20 0.238432 0.00530874 5.70394e-06 0.00621354 -0.00528946
0 -0.238432 0.00530874 -0.0125529 -0.0115361 -0.0164071
-6.66894e-21 -0.237544 0.02125 -0.0532155 -0.000377126 -0.00358023
1.17276e-20 0.237544 0.02125 -0.0569555 0.000554507 -0.00486411
2.71051e-20 -0.237834 0.0178125 -0.0711447 0.000362868 -0.012367
0 0.237834 0.0178125 -0.0737005 -0.00148072 -0.0138557
0 0.238432 0.00593583 -0.00850239 0.0113417 -0.0153169
-2.71051e-20 -0.238432 0.00593583 -0.0205107 -0.0137068 -0.0249422
0 -0.237 0.026875 -3.98227e-07 -1.15933e-08 2.90069e-08
8.27181e-25 0.237 0.026875 -4.23375e-07 1.18395e-08 6.28485e-09
0 0.238124 0.01375 -0.0644168 -0.00743426 -0.0284339
2.58494e-26 -0.238124 0.01375 -0.0748781 0.00535414 -0.0247743
5.42101e-20 0.238432 0.00656171 -0.0162699 0.0143295 -0.0249113
0 -0.238432 0.00656171 -0.0261791 -0.0131362 -0.0308126
2.71051e-20 0.238432 0.00718722 -0.0220737 0.0141341 -0.0318395
0 -0.238432 0.00718722 -0.0296929 -0.0105454 -0.0336632
2.71051e-20 -0.237834 0.0184375 -0.0700914 0.00022357 -0.010698
-2.71051e-20 0.237834 0.0184375 -0.0735649 -0.0010467 -0.0120784
1.34926e-20 0.237544 0.021875 -0.0566846 0.000710109 -0.00390296
1.01331e-20 -0.237544 0.021875 -0.0527213 -0.000443903 -0.00237943
0 0.237272 0.0246875 -0.0424782 0.00111453 -0.00105065
-2.71051e-20 -0.237272 0.0246875 -0.0393297 -0.000837396 0.000896239
-2.58494e-26 0.238124 0.014375 -0.0688309 -0.00719016 -0.0254538
2.58494e-26 -0.238124 0.014375 -0.0764264 0.00441068 -0.0220512
2.71051e-20 0.238432 0.00781239 -0.0258277 0.0116809 -0.0354818
-2.71051e-20 -0.238432 0.00781239 -0.0317123 -0.00713853 -0.0341814
-5.42101e-20 -0.238432 0.00843746 -0.0333205 -0.00372481 -0.033451
2.71051e-20 0.238432 0.00843746 -0.0280104 0.00807177 -0.0364847
1.29247e-26 0.238124 0.0148898 -0.0716581 -0.00656888 -0.0230123
0 -0.237 0.0275 -3.73906e-07 -1.15798e-08 3.16414e-08
8.27181e-25 0.237 0.0275 -3.54788e-07 9.8352e-09 9.73861e-09
-2.58494e-26 -0.238124 0.015 -0.0769162 0.00343283 -0.0195974
-6.46235e-27 0.238124 0.015 -0.0722633 -0.00643589 -0.0224897
5.42101e-20 0.237834 0.0190625 -0.073199 -0.000615622 -0.0104249
-2.71051e-20 -0.237834 0.0190625 -0.0690053 8.10259e-05 -0.00906291
0 0.238432 0.00906249 -0.0295176 0.00434344 -0.0359269
2.71051e-20 -0.238432 0.00906249 -0.035564 -0.000736274 -0.0323636
-8.20356e-22 0.237544 0.0225 -0.0563974 0.00085554 -0.00299665
-1.36934e-20 -0.237544 0.0225 -0.0522494 -0.000529736 -0.00121208
-5.42101e-20 0.237272 0.0253125 -0.0423866 0.00118124 -0.000566094
-2.71051e-20 -0.237272 0.0253125 -0.0388051 -0.000928518 0.00152969
2.71051e-20 -0.238432 0.0096875 -0.039227 0.00168931 -0.0315392
8.13152e-20 0.238432 0.0096875 -0.0313044 0.00103599 -0.034754
0 -0.238631 5.27908e-09 2.93937e-08 -1.03792e-10 -1.93997e-09
0 0.238631 3.43194e-09 7.84679e-09 9.45891e-10 -1.62646e-09
-1.00723e-20 0.238124 0.015625 -0.0745847 -0.00545404 -0.0197204
-2.58494e-26 -0.238124 0.015625 -0.0766466 0.00260089 -0.0174078
0 0.237834 0.0196875 -0.0727208 -0.000317909 -0.00887182
-5.42101e-20 -0.237834 0.0196875 -0.0679279 2.18309e-05 -0.00743656
2.71051e-20 -0.238432 0.0103125 -0.0445492 0.00375434 -0.031107
0 0.238432 0.0103125 -0.0341189 -0.00168225 -0.0335572
8.27181e-25 -0.237 0.028125 -3.4639e-07 -1.12429e-08 3.30478e-08
4.1359e-25 0.237 0.028125 -2.66815e-07 7.20759e-09 1.09198e-08
1.89503e-20 0.237544 0.023125 -0.0561224 0.000990021 -0.00214385
-7.67996e-21 -0.237544 0.023125 -0.0518162 -0.000632628 -9.3642e-05
0 0.238672 0.000575691 0.000520383 -0.00175831 0.000590232
1.10619e-20 -0.238672 0.000575689 0.00330215 0.00120936 0.000300165
3.95688e-20 0.238124 0.01625 -0.0759291 -0.00442013 -0.0172468
2.58494e-26 -0.238124 0.01625 -0.075864 0.00195086 -0.0154022
-1.29247e-26 -0.238659 0.003098 0.0025402 0.0036146 0.0017618
-2.71051e-20 -0.238432 0.0109375 -0.0510655 0.00556491 -0.0306541
0 0.238432 0.0109375 -0.0383139 -0.00386781 -0.0326023
0 0.237272 0.0259375 -0.0424913 0.00121064 -0.000104278
2.71051e-20 -0.237272 0.0259375 -0.0384169 -0.000996073 0.00208407
5.42101e-20 0.237834 0.0203125 -0.0721812 3.10085e-05 -0.00743526
2.71051e-20 -0.237834 0.0203125 -0.0668949 -0.000101002 -0.00585204
-8.27181e-25 0.238701 0.00117836 -0.00332873 -0.00508147 0.00347306
-1.82985e-20 -0.238701 0.00117836 0.00181876 0.00381165 0.00169563
2.71051e-20 -0.238432 0.0115625 -0.0582808 0.00709244 -0.0299253
0 0.238433 0.0115625 -0.0435071 -0.00578361 -0.0315382
1.82992e-20 0.238124 0.016875 -0.076496 -0.00348929 -0.0150509
0 -0.238124 0.016875 -0.0747537 0.00146683 -0.0135218
1.7585e-20 0.237544 0.02375 -0.0558738 0.00111015 -0.00133869
6.84864e-21 -0.237544 0.02375 -0.0514186 -0.000749482 0.000965569
0 0.238723 0.00181179 -0.00745983 -0.00680164 0.00676741
3.85178e-20 -0.238723 0.00181179 -0.000718587 0.00572368 0.0031058
0 -0.237 0.02875 -3.23805e-07 -1.07932e-08 3.42155e-08
-4.1359e-25 0.237 0.02875 -1.99762e-07 5.1314e-09 1.11018e-08
2.71051e-20 -0.238432 0.0121875 -0.0655197 0.00808867 -0.0286078
-5.42101e-20 0.238433 0.0121875 -0.0495645 -0.00746519 -0.0302823
0 0.238737 0.00245721 -0.00813424 -0.00629249 0.00840491
9.87602e-21 -0.238737 0.00245721 -0.000331038 0.00595908 0.00317001
2.71051e-20 0.237834 0.0209375 -0.0716245 0.00024609 -0.00607767
5.42101e-20 -0.237834 0.0209375 -0.0659292 -0.000139423 -0.00428048
-2.71051e-20 0.237272 0.0265625 -0.0425831 0.00125181 0.000368576
-5.42101e-20 -0.237272 0.0265625 -0.0380026 -0.0010829 0.00256726
0 0.238742 0.00309995 -0.00475615 -0.00420307 0.00787414
3.97351e-20 -0.238742 0.00309995 0.00221662 0.00359224 0.00150159
0 -0.238742 0.00338081 0.00210112 0.00129239 6.28102e-05
3.41861e-21 0.238124 0.0175 -0.0764938 -0.00267537 -0.0130662
0 -0.238124 0.0175 -0.073442 0.0011144 -0.0117294
-2.58494e-26 0.238742 0.00373666 -6.60048e-05 -0.00122999 0.00572024
0 -0.238742 0.00373666 0.00195477 -0.0016215 -0.0017601