# U  POINT_DATA 25961
# x  y  z  U_x  U_y  U_z
0.01 0 8.31199e-08 -1.68565e-20 8.97415e-17 2.93069e-19
-0.01 0 8.31199e-08 -3.49757e-18 1.0532e-16 -1.47195e-17
-0.01 0 0.00067832 4.28749e-12 1.66444e-11 -2.09461e-13
0.01 0 0.00067832 -1.19777e-14 7.32788e-11 -4.73227e-14
0.0100157 7.75482e-26 0.000677127 -8.09778e-08 2.25513e-05 -4.68007e-09
-0.01 0 0.00137372 7.72358e-11 3.42342e-10 3.58698e-11
0.01 0 0.00137372 -4.36924e-13 2.30065e-09 -2.7539e-12
0.0100746 0 0.00135804 -9.56584e-07 0.000231812 -4.11763e-07
-0.01 0 0.002087 1.22669e-11 4.04373e-11 7.77106e-12
0.01 0 0.002087 -2.46954e-17 1.15489e-14 -3.1837e-17
-0.0102613 0 0.000329046 -4.25189e-07 9.98609e-06 -1.44772e-06
0.0102613 2.71051e-20 0.000329046 -5.56622e-09 1.50078e-05 4.39686e-08
0.0102561 2.71051e-20 0.000988366 -5.53436e-08 0.000970318 -6.64869e-07
-0.0102561 -2.71051e-20 0.000988366 4.00815e-05 0.000171448 -3.56992e-07
0.0102356 2.71051e-20 0.00161953 -2.6555e-08 0.000922238 -1.58718e-06
-0.0102356 0 0.00161953 2.15835e-05 0.000164478 3.36461e-05
0.0105293 -4.1359e-25 8.89198e-08 -4.2867e-14 4.63949e-11 1.52985e-16
-0.0105293 0 8.68458e-08 8.56625e-14 1.58733e-12 -4.13079e-13
0.0105282 -2.06795e-25 0.000279278 -1.18621e-06 0.000330344 -6.85565e-08
-0.0105268 -2.08425e-20 0.000638363 6.30188e-05 0.000138019 1.39624e-06
0.0105268 -1.52449e-21 0.000638362 -2.71186e-06 0.000755217 -1.5673e-07
-0.0105159 1.65436e-24 0.0012653 0.000120435 0.000289892 3.47187e-05
0.0105159 -2.13925e-20 0.0012653 -6.61247e-06 0.00160242 -2.84635e-06
-0.0105028 -1.06839e-20 0.0017228 8.07904e-05 0.000266309 5.1179e-05
0.0105028 -1.34979e-20 0.0017228 -6.42903e-06 0.00146628 -4.69405e-06
-0.010496 2.71051e-20 0.00202291 2.29598e-05 0.000196762 2.94878e-05
0.010496 -2.71051e-20 0.00202291 -4.62426e-06 0.00109943 -4.09458e-06
0.0104977 0 0.00235078 -3.93598e-10 5.94999e-08 -3.07221e-10
-0.0104977 0 0.00235077 7.77665e-10 9.16973e-09 2.31252e-09
-0.0108033 2.71051e-20 0.000314595 1.01887e-06 5.8926e-06 -2.24401e-06
0.0108033 2.71051e-20 0.000314594 -9.63742e-09 8.18679e-06 -3.25711e-08
-0.0108031 2.71051e-20 0.00093799 0.000208495 0.000362832 9.44206e-06
0.0108031 0 0.00093799 -1.05642e-05 0.00201788 3.60061e-09
-0.01079 -2.71051e-20 0.00152732 0.000208423 0.000453565 9.38986e-05
0.01079 -2.71051e-20 0.00152732 -1.5433e-05 0.00246162 -8.76534e-06
-0.0110754 0 7.36178e-09 1.20019e-11 2.80051e-11 -1.42251e-11
0.0110754 0 6.46274e-09 -1.11694e-13 3.07398e-11 -1.7145e-13
0.01108 0 0.000208299 -3.21304e-06 0.000396441 -1.53391e-08
-0.0110889 0 0.000613667 0.000172808 0.000212633 1.07361e-05
0.0110889 -2.63209e-21 0.000613666 -9.46596e-06 0.00116796 -4.51908e-08
-0.0108991 2.71051e-20 0.00228385 9.49297e-06 0.000247486 6.53677e-05
0.0108991 5.42101e-20 0.00228385 -1.18228e-05 0.0013439 -8.48884e-06
0.010988 -2.7115e-20 0.00190078 -2.29628e-05 0.00229521 -1.20138e-05
-0.010988 0 0.00190081 0.000174483 0.000420291 0.000111373
-0.0110831 -1.65436e-24 0.00123268 0.000336707 0.000490264 8.19287e-05
0.0110831 1.26559e-20 0.00123266 -2.40457e-05 0.00269029 -6.5768e-06
0.0109863 0 0.00260985 -1.08931e-09 1.03066e-07 -7.44339e-10
-0.0109863 6.61744e-24 0.00260985 -9.01187e-10 1.52434e-08 6.22361e-09
0.0113733 0 0.000305239 -4.55043e-08 8.28542e-06 -5.55776e-08
-0.0113733 0 0.000305239 2.74429e-06 4.77047e-06 -2.71706e-06
-0.0113913 0 0.000918847 0.000486042 0.000486027 3.89908e-05
0.0113913 0 0.000918847 -2.76309e-05 0.00268785 -9.61727e-08
0.0112123 1.12761e-20 0.00231934 -2.3423e-05 0.00190788 -1.36291e-05
-0.0112123 2.62713e-21 0.00231934 5.89662e-05 0.000349151 0.000118888
-0.0113682 -2.71051e-20 0.00155884 0.000454218 0.000664913 0.000187653
0.0113682 -2.71051e-20 0.00155884 -4.33885e-05 0.0036281 -1.75994e-05
0.0114039 -5.42101e-20 0.00209577 -4.14134e-05 0.0030514 -2.15548e-05
-0.0114039 2.71051e-20 0.00209577 0.000203132 0.00055801 0.000186396
0.011595 2.58494e-26 2.35794e-09 0 0 0
0.0113392 -2.71051e-20 0.00255892 -1.69005e-05 0.0013317 -1.07835e-05
-0.0113392 0 0.00255892 -3.38317e-05 0.000242666 0.000103725
-0.0116471 0 3.40354e-09 1.0471e-11 8.72758e-12 -1.30099e-11
0.0116471 0 2.32037e-09 -1.2052e-14 3.27718e-12 -5.85491e-14
-0.0116865 0 0.000598049 0.000346361 0.000261482 3.04112e-05
0.0116865 2.92168e-20 0.000598049 -1.87516e-05 0.00144598 1.26953e-08
-0.0117045 0 0.00122297 0.000695745 0.000631857 0.000127114
0.0117045 -1.815e-20 0.00122297 -5.08875e-05 0.00351899 -1.13118e-05
0.0114599 0 0.00285977 -2.46681e-09 1.38039e-07 -1.40551e-09
-0.0114598 0 0.00285975 -4.46864e-09 1.94173e-08 1.21741e-08
0.0117133 2.22677e-20 0.00184588 -6.3558e-05 0.00388234 -2.69596e-05
-0.0117133 3.30872e-24 0.00184588 0.000483932 0.000688192 0.00019176
0.0116596 1.99913e-20 0.00239949 -4.63809e-05 0.00263644 -2.38039e-05
-0.0116596 0 0.00239948 0.000109688 0.000462711 0.000174953
0.0119676 2.71051e-20 0.000293859 -3.1052e-08 8.63072e-06 -2.3982e-07
-0.0119676 2.71051e-20 0.000293859 4.36607e-06 2.2447e-06 -6.71758e-06
-0.0120019 -1.03398e-25 9.94023e-10 0 0 0
-0.0120131 2.71051e-20 0.000895955 0.000912848 0.00056729 9.42965e-05
0.0120131 0 0.000895956 -4.84107e-05 0.00315935 4.55705e-07
0.0120433 5.42101e-20 0.00152444 -8.44961e-05 0.00462766 -2.8565e-05
-0.0120433 2.71051e-20 0.00152444 0.000926353 0.000814387 0.000191905
-0.0118604 -5.42101e-20 0.00273055 -8.12362e-05 0.000354464 0.000213678
0.0118604 -2.71051e-20 0.00273056 -4.43023e-05 0.00205479 -2.39898e-05
0.0120387 -2.71051e-20 0.00217273 -8.75377e-05 0.00431063 -4.08398e-05
-0.0120387 0 0.00217273 0.000380716 0.000728998 0.000201708
0.0122418 -4.1359e-25 3.11206e-09 -5.48162e-13 6.16317e-11 -3.53755e-12
-0.0122418 -1.03398e-25 1.04582e-09 1.44956e-11 4.01179e-12 -1.87557e-11
-0.0122568 2.06795e-25 0.000136244 0.000127059 6.93437e-05 1.16302e-05
0.0119119 0 0.00310459 -3.2441e-09 1.37682e-07 -1.77194e-09
-0.0119119 6.61744e-24 0.00310459 -7.33797e-09 1.76154e-08 1.11916e-08
0.0123043 -2.01443e-20 0.000568947 -2.76955e-05 0.00161247 5.19008e-07
-0.0123043 -1.23721e-20 0.000568945 0.000530588 0.000289574 4.8567e-05
0.01236 5.58512e-21 0.00118123 -8.1536e-05 0.00413497 -1.63908e-05
-0.01236 -8.27181e-25 0.00118125 0.00110038 0.000717811 4.23712e-05
-0.0124541 -1.03398e-25 1.48697e-10 0 0 0
0.0123814 1.50017e-20 0.00184432 -0.000113714 0.0049955 -4.42185e-05
-0.0123814 0 0.00184434 0.000843311 0.000812414 -4.96251e-05
-0.0125711 2.71051e-20 0.000269458 1.20472e-05 1.69561e-06 -1.43147e-05
0.0125711 -2.71051e-20 0.000269458 -1.70953e-07 9.41707e-06 -7.70516e-07
0.0123374 -1.70498e-20 0.00258488 -9.08276e-05 0.00358197 -4.42093e-05
-0.0123374 -5.93254e-21 0.00258488 0.000218725 0.000543768 -1.29056e-05
0.0122817 0 0.00299995 -5.16854e-05 0.00198968 -2.83937e-05
-0.0122817 -2.71051e-20 0.00299995 -0.000146214 0.000305669 0.000139302
0.0126475 -2.71051e-20 0.000839063 -6.38345e-05 0.00337002 2.70529e-06
-0.0126475 0 0.000839063 0.00122446 0.000604577 0.000124781
0.0123472 -3.30872e-24 0.00333734 -2.48547e-09 8.47841e-08 -1.37627e-09
-0.0123472 0 0.00333734 -5.69031e-09 9.40005e-09 6.20701e-09
-0.0127108 2.71051e-20 0.0014705 0.0013348 0.000889318 -0.00024018
0.0127108 2.71051e-20 0.0014705 -0.000129939 0.00540887 -4.07434e-05
0.0128491 1.65436e-24 5.01678e-09 -5.12865e-12 1.45319e-10 -1.55148e-11
-0.0128491 0 1.4199e-09 2.92178e-11 2.81014e-12 -2.74128e-11
0.0127172 2.71051e-20 0.00217074 -0.000153457 0.00564772 -6.66123e-05
-0.0127172 0 0.00217074 0.000747733 0.000819459 -0.000358767
0.0129129 1.7772e-20 0.000505056 -3.13349e-05 0.00157233 -6.27163e-07
-0.0129129 0 0.000505053 0.000509524 0.000282684 -3.96751e-05
0.0125922 1.71011e-20 0.00303079 -7.87949e-05 0.00265727 -4.17735e-05
-0.0125922 -2.95667e-20 0.00303079 1.5493e-07 0.000368028 3.28468e-06
0.0130203 -4.5313e-21 0.00108239 -0.000104084 0.0043942 -2.20225e-05
-0.0130203 0 0.0010824 0.00113422 0.000734069 -0.000525681
0.012793 5.42101e-20 0.00278388 -0.000127271 0.00429209 -6.50091e-05
-0.012793 0 0.00278388 0.000285731 0.000566327 -0.000305152
0.0127108 -5.42101e-20 0.00327268 -5.92826e-05 0.00176879 -3.27814e-05
-0.0127108 2.71051e-20 0.00327268 -0.000127252 0.000242859 0.00016151
0.0131383 2.71051e-20 0.000218112 -5.90259e-07 1.04824e-05 -1.16054e-06
-0.0131383 2.71051e-20 0.000218112 1.01348e-05 8.58215e-07 -2.65406e-06
0.013073 -1.26559e-22 0.0017651 -0.000167307 0.00594297 -6.06125e-05
-0.013073 0 0.00176511 0.00107539 0.000856271 -0.00122369
0.0127674 0 0.00356123 -1.35304e-09 3.76211e-08 -7.55383e-10
-0.0127674 -1.65436e-24 0.00356123 -1.28776e-09 3.32324e-09 3.88693e-10
-0.0132689 0 0.000719701 0.000844973 0.000552459 -0.000266876
0.0132689 0 0.0007197 -6.38488e-05 0.00305952 -3.18365e-06
0.0130872 1.59067e-21 0.00246807 -0.00017728 0.00562215 -7.89625e-05
-0.0130872 0 0.00246808 0.000765767 0.000694844 -0.00130634
0.0133746 2.37649e-20 0.000406313 -2.11666e-05 0.00106688 -1.12026e-06
-0.0133746 1.82459e-20 0.000406306 0.000232485 0.00019718 -5.87974e-05
0.0134599 0 1.02233e-08 -8.12781e-12 2.67708e-09 -1.06431e-10
-0.0134599 8.27181e-25 3.72109e-09 -8.29813e-10 1.84701e-10 5.98198e-10
0.0130916 1.83692e-20 0.00314268 -0.000120561 0.00343354 -6.10692e-05
-0.0130916 2.06795e-25 0.00314268 0.000371562 0.000386866 -0.000731411
-0.0134186 -2.71051e-20 0.00131377 0.00115 0.000906655 -0.00172934
0.0134186 2.71051e-20 0.00131377 -0.000162254 0.00585662 -4.90019e-05
0.013075 0 0.00349045 -6.81213e-05 0.00174037 -3.78047e-05
-0.013075 0 0.00349045 -1.25948e-05 0.000199617 -0.000119094
-0.013162 4.1359e-25 0.00325434 0.00035873 0.000345888 -0.000697771
-0.0134232 0 0.00207248 0.00104664 0.000812817 -0.0025468
0.0134232 5.42101e-20 0.00207248 -0.000221455 0.00681669 -8.50976e-05
0.0132078 0 0.00332703 -0.00010804 0.00296479 -5.60717e-05
-0.0132595 0 0.00312606 0.000693302 0.000421128 -0.0014874
-0.0136984 0 0.000300358 -0.000153273 4.50481e-05 9.28829e-05
0.0136984 -2.71051e-20 0.000300357 3.10888e-07 0.000166063 1.01891e-06
0.013418 -5.42101e-20 0.00277569 -0.000211805 0.0058855 -9.97202e-05
-0.013418 0 0.00277569 0.00102337 0.000599926 -0.0021296
0.0131762 -2.06795e-25 0.0037788 -1.74595e-10 4.54761e-09 -1.01072e-10
-0.0131762 0 0.0037788 3.66658e-11 6.09386e-11 -7.86692e-11
-0.0131848 5.16988e-26 0.00376504 1.79137e-05 1.34449e-05 -3.36828e-05
0.0133596 0 0.00311615 -0.000160992 0.00433317 -7.32723e-05
-0.0131928 -1.03398e-25 0.00378881 0 0 0
0.0132283 0 0.00369585 -3.11526e-05 0.00081002 -1.6706e-05
-0.013523 -2.06795e-25 0.00243331 0.00107571 0.000705472 -0.00329157
0.0137612 -1.41729e-20 0.000786143 -9.07636e-05 0.00338973 -2.09376e-05
-0.0137612 2.14405e-20 0.000786151 0.000190988 0.000546531 -0.00128982
-0.0133341 0 0.00352736 0.000327354 0.000245693 -0.000615518
0.0133341 -3.4254e-20 0.00352736 -9.44336e-05 0.00245544 -5.06412e-05
0.0132767 -2.06795e-25 0.00383951 0 0 0
0.0137678 -5.15334e-22 0.00165537 -0.000218923 0.00664762 -6.57325e-05
-0.0137678 0 0.00165538 0.000695611 0.00084809 -0.00362417
-0.013482 2.71051e-20 0.00331696 0.000812863 0.000385502 -0.00148258
0.013482 0 0.00331696 -0.000154288 0.00404063 -7.79323e-05
-0.0137612 0 0.00191385 0.000879397 0.000801454 -0.0038602
0.0137268 -2.58494e-26 0.00241705 -0.0002533 0.00689519 -9.14591e-05
0.013749 0 0.00239287 -0.000254775 0.00692958 -9.11084e-05
-0.0137484 0 0.00241533 0.00123599 0.000710968 -0.00431816
0.0137484 -2.58494e-26 0.00241533 -0.000255866 0.00693817 -9.1881e-05
-0.013458 2.71051e-20 0.00374223 0.000181492 0.00015297 -0.000246685
0.013458 -5.42101e-20 0.00374223 -6.1185e-05 0.00159268 -3.63024e-05
0.0140709 0 3.70269e-08 -9.71834e-10 6.67644e-08 -3.7793e-10
-0.0140709 0 9.99199e-09 -6.54907e-09 2.42007e-09 -4.29486e-09
-0.0137488 2.11378e-20 0.00307762 0.00163123 0.000521008 -0.00369123
0.0137488 -1.73452e-20 0.00307762 -0.000219695 0.00563934 -9.09901e-05
-0.0135651 8.27181e-25 0.00401367 7.40931e-09 2.1617e-09 -8.00561e-09
0.0135651 0 0.00401367 -6.50001e-10 1.61426e-08 -3.92306e-10
0.0141231 2.71051e-20 0.00120897 -0.000197029 0.00614697 -4.69146e-05
-0.0141231 0 0.00120897 -0.000188705 0.000887904 -0.00398392
-0.0137164 -1.92146e-20 0.00361036 0.0011876 0.000296139 -0.00194007
0.0137164 7.00457e-21 0.00361036 -0.000131384 0.00331599 -6.42774e-05
0.014089 0 0.00201377 -0.000291986 0.00771671 -8.11023e-05
-0.014089 2.71051e-20 0.00201377 0.000703655 0.000787414 -0.00617128
-0.0142657 5.42101e-20 0.000418222 -0.000711109 0.000410731 -0.00078455
0.0142657 2.71051e-20 0.000418221 -4.49302e-05 0.00218838 -1.21342e-05
-0.014069 -2.71051e-20 0.0027392 0.00210352 0.00064838 -0.00645764
0.014069 0 0.0027392 -0.000298792 0.00735649 -0.000100759
0.0138967 0 0.00392747 -9.76755e-05 0.00239787 -5.98718e-05
-0.0138967 0 0.00392747 0.00123014 0.000199204 -0.00128471
0.0140496 0 0.00340311 -0.000225658 0.00555815 -8.77685e-05
-0.0140496 0 0.00340311 0.00271156 0.000474048 -0.00508642
-0.0143919 -6.46235e-27 0.00161694 -0.00054265 0.000835261 -0.00628071
0.014441 0 0.00161392 -0.00029058 0.00727339 -4.52377e-05
-0.014441 2.83767e-21 0.00161391 -0.000640134 0.000834251 -0.00648985
-0.0144454 -1.16322e-25 0.00157999 -0.000692646 0.000827404 -0.00634675
0.0145429 1.93395e-20 0.000823379 -0.000143181 0.00446613 -2.33964e-05
-0.0145429 0 0.000823363 -0.00186394 0.000674676 -0.00315486
-0.0139237 0 0.00428406 2.15234e-08 3.51601e-09 -2.71489e-08
0.0139237 -1.65436e-24 0.00428406 -1.04593e-09 2.80503e-08 -5.64423e-10
0.0143988 2.58494e-26 0.0023483 -0.000344704 0.00799312 -6.12795e-05
-0.014397 9.51671e-21 0.00237994 0.00132782 0.000747642 -0.0082962
0.014397 0 0.00237994 -0.000347036 0.00802414 -6.19707e-05
0.0144898 0 0.00237022 -0.000362451 0.00812508 -5.08418e-05
-0.0143653 -4.95068e-21 0.00309536 0.00312143 0.000627326 -0.00809252
0.0143653 0 0.00309537 -0.000308188 0.00714631 -6.69441e-05
0.0147022 0 4.94613e-08 -1.84938e-09 1.69783e-07 -5.37069e-10
-0.0147022 -1.65436e-24 1.20861e-08 -4.20055e-08 4.59921e-09 -2.46852e-08
-0.014305 3.55117e-20 0.00382188 0.00326456 0.000393862 -0.00535434
0.014305 8.27181e-25 0.00382188 -0.00017082 0.00439646 -4.62723e-05
0.0142451 0 0.00421792 -7.43342e-05 0.00226423 -3.34009e-05
-0.0142451 0 0.00421792 0.0018904 0.00021296 -0.0026497
0.0147298 -8.13152e-20 0.00200539 -0.000391896 0.00844131 -3.16809e-05
-0.0147298 0 0.00200539 -7.26875e-05 0.000803454 -0.00959427
-0.0148165 0 0.00124392 -0.00301682 0.000858722 -0.00605316
0.0148165 0 0.00124392 -0.000276586 0.00674036 -2.25788e-05
-0.0149179 1.03398e-25 0.000896435 -0.00303831 0.000688269 -0.00364044
-0.0149609 0 2.9798e-17 0 0 0
0.014711 -2.71051e-20 0.00272495 -0.000404759 0.00857262 -3.46115e-05
-0.014711 -2.71051e-20 0.00272495 0.00251843 0.000751616 -0.0109131
-0.0149557 0 0.000461616 -0.00348268 0.000556909 -0.00181211
0.0149557 0 0.000461611 -5.46361e-05 0.00287102 -1.37608e-05
-0.0142802 0 0.00455258 3.10105e-08 3.04129e-09 -3.61941e-08
0.0142802 -8.27181e-25 0.00455258 -6.72491e-10 2.29139e-08 -2.75717e-10
0.0146561 0 0.00344874 -0.000311748 0.0072315 -4.23198e-05
-0.0146561 2.71051e-20 0.00344874 0.00511559 0.000647299 -0.0101563
-0.014516 -1.6116e-20 0.00427159 0.00360934 0.000295135 -0.00477479
0.014516 8.44882e-21 0.0042716 -9.78776e-05 0.00312645 -2.07142e-05
0.0150861 3.43148e-20 0.00165189 -0.000394723 0.00784375 4.60353e-06
-0.0150861 -1.64128e-21 0.00165188 -0.00239407 0.000833901 -0.00773322
0.014707 0 0.0040482 -0.000170912 0.00511149 -9.8679e-06
-0.014707 -2.71051e-20 0.0040482 0.0057425 0.000486779 -0.00843903
0.0151175 0 0.00230446 -0.000466712 0.00880784 2.4428e-05
-0.0151175 1.62417e-21 0.00230446 0.000440068 0.00080991 -0.0104203
0.0150684 -2.06795e-25 0.00261829 -0.000449919 0.00869722 2.76764e-05
0.0146108 0 0.00452168 -5.10714e-05 0.00207353 -1.86013e-05
-0.0146108 0 0.00452168 0.00325935 0.00019243 -0.00335734
-0.0149933 -3.80007e-20 0.00309786 0.00401224 0.000769251 -0.0117238
0.0149933 4.1359e-25 0.00309786 -0.000424258 0.00852817 3.26402e-05
0.0153398 2.56277e-20 0.000978644 -0.00023965 0.00526005 4.53306e-06
-0.0153398 1.2094e-20 0.000978635 -0.00435933 0.000703559 -0.00418665
0.0153745 0 1.29805e-08 -1.34344e-09 7.40245e-08 -2.95878e-10
-0.0153745 0 2.22893e-08 -1.08769e-07 2.0914e-08 -4.23388e-08
-0.0146354 0 0.00482017 2.85091e-08 2.00297e-09 -3.10142e-08
0.0146354 0 0.00482017 -2.40398e-10 1.31941e-08 -2.01592e-11
-0.0149803 6.29567e-21 0.0037633 0.00655838 0.000667113 -0.0111796
0.0149803 -8.27181e-25 0.0037633 -0.000286018 0.00700364 4.1811e-05
0.0153272 0 0.00275021 -0.000531665 0.00947161 8.94185e-05
-0.0153272 -2.71051e-20 0.00275021 0.00214389 0.000849946 -0.0124418
-0.0149658 -1.06954e-21 0.00441692 0.0063231 0.000431838 -0.00805653
0.0149658 8.27181e-25 0.00441693 -0.000105232 0.0041044 3.71886e-05
-0.014927 -2.71051e-20 0.00477488 0.00451165 0.000244669 -0.00509215
0.014927 -5.42101e-20 0.00477488 -2.1596e-05 0.00202 1.18975e-05
0.0152999 0 0.00342236 -0.000446895 0.00880736 0.000114702
-0.0152999 2.71051e-20 0.00342236 0.00620969 0.000824434 -0.0133065
0.015716 5.42101e-20 0.00173426 -0.00058215 0.00864943 0.000101691
-0.015716 5.42101e-20 0.00173426 -0.00494401 0.000841529 -0.0075195
0.0152841 -5.42101e-20 0.00407715 -0.000229951 0.00707594 0.000109561
-0.0152841 2.71051e-20 0.00407715 0.00917242 0.000728542 -0.0130713
0.0149898 0 0.00508707 -1.70224e-11 4.83174e-09 6.38667e-11
-0.0149898 0 0.00508707 1.15228e-08 6.99873e-10 -1.20856e-08
0.0156647 -4.1359e-25 0.00240043 -0.000620674 0.00954787 0.000170352
-0.0156647 -1.56624e-20 0.00240043 -0.000296157 0.000850771 -0.00953377
-0.0158727 1.0842e-19 0.000520994 -0.00690957 0.000553206 -0.00168863
0.0158727 -5.42101e-20 0.000520992 -0.000125444 0.00328083 -1.95907e-05
0.0156354 1.03398e-25 0.00287872 -0.000587543 0.00957542 0.000193098
-0.0151702 -3.72645e-22 0.00482145 0.0065566 0.000352031 -0.00732426
0.0151702 8.2991e-21 0.00482145 -2.95191e-05 0.00290768 5.02548e-05
-0.015623 -1.63432e-20 0.00308126 0.0034604 0.000853438 -0.011177
0.015623 0 0.00308126 -0.000573512 0.00958708 0.000202731
-0.0153271 2.71051e-20 0.00461022 0.00946747 0.000564515 -0.0112915
0.0153271 0 0.00461022 -7.69e-05 0.0048404 0.000101591
0.0156022 0 0.00374982 -0.000402788 0.00867905 0.000227355
-0.0156022 1.15971e-21 0.00374982 0.00756631 0.000825726 -0.0123157
-0.0151797 1.03398e-25 0.00523007 0 0 0
0.015269 -2.71051e-20 0.00505544 9.18556e-06 0.001899 3.83895e-05
-0.015269 2.71051e-20 0.00505544 0.00575252 0.000251004 -0.00566781
0.0159605 0 0.00272817 -0.000725256 0.01014 0.000284971
-0.0159605 0 0.00272817 0.000148584 0.000856898 -0.00801726
-0.0155971 -2.10666e-20 0.0043751 0.0101944 0.000729219 -0.0123455
0.0155971 0 0.0043751 -0.000170051 0.00677043 0.000211178
-0.0160322 0 0.00235138 -0.0015811 0.000835444 -0.00741742
-0.0153431 1.03398e-25 0.00535318 1.50586e-08 4.8113e-10 -1.43948e-08
0.0153431 -1.29247e-26 0.00535318 5.1302e-12 3.09026e-10 9.80773e-12
-0.0154076 0 0.0052069 0.00310914 0.000166141 -0.00324162
0.0159183 5.42101e-20 0.00340547 -0.000592819 0.00992285 0.000321469
-0.0159183 -2.71051e-20 0.00340547 0.00526327 0.000881174 -0.010866
0.0155359 0 0.00491577 -9.70458e-06 0.0039507 0.000130541
-0.0155359 1.41866e-20 0.00491577 0.00929703 0.0004968 -0.00969319
-0.0159245 2.71051e-20 0.00405169 0.00955771 0.000868119 -0.0119965
0.0159245 2.71051e-20 0.00405169 -0.000344568 0.00891448 0.000362534
0.0163947 -2.47708e-20 0.00113361 -0.000523145 0.00606594 9.14985e-05
-0.0163947 0 0.0011336 -0.00730633 0.000673694 -0.00302263
0.0161888 -5.16988e-26 0.00306055 -0.000733593 0.010185 0.000371671
0.0164795 0 4.5134e-08 -1.07482e-08 1.76198e-07 -8.14252e-10
-0.0164795 0 7.53989e-09 -7.18799e-08 6.83729e-09 -8.61071e-09
-0.0163851 -5.16988e-26 0.00180393 -0.00472219 0.000757988 -0.00439822
-0.0162478 0 0.00305839 0.00199982 0.000845202 -0.00754482
0.0162478 0 0.00305839 -0.000750297 0.0102474 0.0003893
0.0163779 -1.93548e-20 0.00230526 -0.000843922 0.00969596 0.000330897
-0.0163779 0 0.00230525 -0.0027896 0.000821028 -0.00542697
0.0156904 -2.71051e-20 0.00524875 7.01828e-05 0.00285188 0.000109104
-0.0156904 -2.71051e-20 0.00524875 0.00984684 0.000430895 -0.00927626
0.0162566 -1.29247e-26 0.00314393 -0.000721742 0.0101925 0.000402225
0.0158759 2.71051e-20 0.00471202 -4.52923e-05 0.00656004 0.000290321
-0.0158759 -2.71051e-20 0.00471202 0.0126659 0.000781088 -0.0131454
-0.0165637 -2.06795e-25 0.00113717 -0.00745354 0.000666121 -0.00268969
0.0156951 0 0.00561829 5.94072e-10 1.60408e-08 8.07562e-10
-0.0156951 0 0.00561829 4.28569e-08 1.39233e-09 -3.80889e-08
0.0163084 0 0.00364992 -0.000552833 0.009868 0.000478683
-0.0163084 0 0.00364992 0.00630495 0.000841175 -0.00829303
0.016199 0 0.00441125 -0.00020812 0.00847379 0.000466103
-0.016199 2.63777e-20 0.00441125 0.0106821 0.000825517 -0.0100653
-0.016068 5.16988e-26 0.00518819 0.0105228 0.000583033 -0.00892302
0.0161146 -1.43821e-20 0.00513441 7.36856e-05 0.00516062 0.00031363
-0.0161146 1.76055e-20 0.00513441 0.0118386 0.000655935 -0.0100387
-0.016031 0 0.0055414 0.0105236 0.000485417 -0.00891443
0.016031 -2.71051e-20 0.0055414 0.000132835 0.00265093 0.000163904
-0.0169948 0 1.57361e-20 0 0 0
-0.0165964 0 0.00369035 0.00597527 0.000802861 -0.0050131
-0.0161687 5.16988e-26 0.00526118 0.0118482 0.000635683 -0.00985228
0.0165301 0 0.00408038 -0.000431651 0.0100842 0.000641118
-0.0165301 2.71051e-20 0.00408038 0.00792657 0.000814916 -0.00599007
0.0170241 -5.42101e-20 0.0005776 -0.000307594 0.00371121 -1.30038e-05
-0.0170241 0 0.000577601 -0.00935362 0.000518121 -9.98039e-05
0.0169741 5.42101e-20 0.00175445 -0.00109526 0.00884528 0.000301944
-0.0169741 5.42101e-20 0.00175445 -0.00791725 0.000794326 -0.00304012
-0.0160456 4.1359e-25 0.00588233 6.21727e-08 1.95601e-09 -5.17157e-08
0.0160456 0 0.00588233 9.23658e-10 1.4304e-08 1.07982e-09
0.0168708 -5.42101e-20 0.00304668 -0.00103655 0.0109308 0.000668946
-0.0168708 -1.0842e-19 0.00304668 1.92973e-05 0.000769828 -0.00159689
0.0164827 -5.42101e-20 0.00476235 -1.69858e-05 0.00839397 0.000577019
-0.0164827 2.71051e-20 0.00476235 0.0125015 0.000838184 -0.00899395
0.0168025 -6.46235e-27 0.00371927 -0.000640722 0.0105494 0.000727379
0.0163092 7.98333e-21 0.00559034 0.000180438 0.0036522 0.000281243
-0.0163092 0 0.00559034 0.0118733 0.000583099 -0.00936812
-0.0168571 0 0.00372694 0.00567689 0.000768185 -0.00204466
0.0168571 0 0.00372694 -0.000650444 0.0106248 0.000754887
0.0168524 -6.46235e-27 0.00384281 -0.000591541 0.0104944 0.000755604
0.0165194 0 0.0053648 0.000212572 0.00593502 0.00046825
-0.0165194 -2.71051e-20 0.0053648 0.0139154 0.000784697 -0.00998694
-0.0168333 -2.58494e-26 0.00431301 0.00881839 0.000775003 -0.00322008
0.0168293 0 0.00441207 -0.000302155 0.00985352 0.000759127
-0.0168293 6.46235e-27 0.00441207 0.00934939 0.000776155 -0.00341876
-0.016393 -2.71051e-20 0.00584515 0.0112769 0.000489457 -0.00923109
0.016393 2.71051e-20 0.00584515 0.000196829 0.00248934 0.000220509
-0.0163955 0 0.00614428 7.13144e-08 2.30059e-09 -5.48521e-08
0.0163955 4.1359e-25 0.00614428 1.25139e-09 1.32851e-08 1.36731e-09
-0.0169489 0 0.00440665 0.00919719 0.000758213 -0.00194293
0.0168096 0 0.00506989 0.000100827 0.00803305 0.00068442
-0.0168096 -1.29247e-26 0.00506989 0.0122822 0.000784071 -0.00557251
-0.0168053 0 0.00515263 0.0122337 0.000769752 -0.00571746
0.017623 3.30872e-24 2.17597e-08 -1.07221e-08 8.9522e-08 8.61127e-11
-0.017623 -1.65436e-24 1.01887e-08 -1.00784e-07 2.83587e-09 2.8803e-09
0.0175916 7.34536e-21 0.00115888 -0.000945794 0.0062993 0.000201829
-0.0175916 0 0.00115887 -0.00834887 0.000620063 -0.000664776
-0.0171737 -2.71051e-20 0.004052 0.00686597 0.000722666 0.00145289
0.0171737 2.71051e-20 0.004052 -0.00063151 0.0109599 0.000913992
0.0175442 2.16208e-20 0.00239621 -0.00141784 0.0100063 0.000602146
-0.0175442 0 0.00239621 -0.00301028 0.000721364 0.00057751
-0.0167746 0 0.00574376 0.0118874 0.000667447 -0.00675307
0.0167746 5.16988e-26 0.00574376 0.00028412 0.0047622 0.000471599
-0.0171404 2.71051e-20 0.0047287 0.010158 0.000729518 -0.000200507
0.0171404 2.71051e-20 0.0047287 -0.000130589 0.00994843 0.000902297
-0.016705 0 0.00611265 0.0106518 0.000544163 -0.0076482
0.016705 0 0.00611265 0.00026108 0.00240729 0.000279259
0.0174986 -5.16988e-26 0.00354411 -0.000993164 0.0111543 0.000917192
-0.0174986 0 0.00354412 0.00487365 0.000681833 0.00386864
-0.0167191 4.1359e-25 0.00643602 6.85923e-08 2.63214e-09 -5.02258e-08
0.0167191 0 0.00643602 1.48586e-09 1.28501e-08 1.64139e-09
-0.0171168 -2.71051e-20 0.00539052 0.012382 0.000781771 -0.00268146
0.0171168 2.71051e-20 0.00539052 0.000321728 0.00804303 0.000809413
0.0174765 1.29247e-26 0.0041983 -0.00059273 0.0108726 0.000978949
-0.0172565 0 0.00505616 0.0112853 0.000724061 0.0009487
-0.0174702 -5.16988e-26 0.00438304 0.00853408 0.000680041 0.00448714
0.0174702 0 0.00438304 -0.00047965 0.0107931 0.000996389
-0.0169667 2.3884e-20 0.00617943 0.0102723 0.000627693 -0.00598105
0.0169667 1.23494e-20 0.00617943 0.000329151 0.00345187 0.000415611
0.0174493 0 0.00505023 4.08175e-05 0.00963812 0.000979681
-0.0174493 0 0.00505023 0.0108552 0.000698166 0.0037627
-0.0171679 2.71051e-20 0.00597129 0.0114625 0.00077657 -0.0036601
0.0171679 0 0.00597129 0.000441418 0.0056369 0.000647389
0.0182005 -1.0842e-19 0.00058338 -0.000596848 0.00372978 2.07702e-05
-0.0182005 5.42101e-20 0.000583381 -0.00910759 0.000457252 0.000563621
-0.017043 -2.71051e-20 0.00643779 0.00874026 0.00056694 -0.00656365
0.017043 -2.71051e-20 0.00643779 0.000288411 0.002379 0.000327327
0.0177879 2.71051e-20 0.00403219 -0.000855885 0.0113941 0.00106013
-0.0177879 0 0.00403219 0.00711079 0.000636013 0.00757879
-0.0181761 -1.0842e-19 0.00178292 -0.00697258 0.000716481 -0.000123058
0.0181761 0 0.00178292 -0.00180965 0.00903662 0.000507369
-0.0170214 4.1359e-25 0.00674884 5.59727e-08 2.73875e-09 -3.10943e-08
0.0170214 -4.1359e-25 0.00674884 1.65321e-09 1.2685e-08 1.83663e-09
-0.0174458 0 0.00568734 0.011097 0.000729852 0.00214331
0.0174458 -3.41019e-21 0.00568734 0.00040913 0.00773159 0.00087469
-0.0177804 -2.71051e-20 0.00470438 0.0100613 0.000632289 0.00904064
0.0177804 0 0.00470438 -0.000293025 0.010846 0.00110799
-0.0181642 -1.0842e-19 0.00305697 0.0031533 0.000603316 0.00716821
0.0181642 5.42101e-20 0.00305697 -0.00172567 0.0112944 0.000944652
-0.0181317 -2.06795e-25 0.00370155 0.00753459 0.000587125 0.0103453
0.0181317 1.63857e-21 0.00370155 -0.00115149 0.0114773 0.00103144
-0.01741 0 0.00635261 0.00842768 0.000669947 -0.000253428
0.01741 -2.59746e-20 0.00635261 0.000439832 0.00456041 0.000587442
-0.0177702 -2.71051e-20 0.00535529 0.0108478 0.000649804 0.00883987
0.0177702 0 0.00535529 0.00026039 0.00970305 0.0010972
-0.0173274 0 0.00672747 0.00640031 0.000565317 -0.00186167
0.0173274 -2.71051e-20 0.00672747 0.000313709 0.00227323 0.000341075
0.0181132 0 0.00420721 -0.000797847 0.0113566 0.00106505
-0.0181076 3.26442e-21 0.00436205 0.00995391 0.00057977 0.012548
0.0181076 6.46235e-27 0.00436205 -0.000689561 0.0113196 0.00107535
-0.0173238 4.1359e-25 0.00706119 3.45568e-08 2.63512e-09 -4.74998e-09
0.0173238 4.1359e-25 0.00706119 1.788e-09 1.25911e-08 1.94437e-09
0.0177503 0 0.00600627 0.000605387 0.00775663 0.000967882
-0.0177503 2.71051e-20 0.00600627 0.00966584 0.00070546 0.00668983
-0.018098 -1.63446e-20 0.00501826 0.0111043 0.000586024 0.0142125
0.018098 0 0.00501826 -0.000115235 0.0106565 0.00110743
-0.0187969 0 1.59693e-08 -1.49577e-07 3.75185e-09 1.75015e-09
0.0187969 1.65436e-24 1.06448e-08 -9.21101e-09 4.43467e-08 5.53065e-10
-0.0187878 0 0.00116731 -0.00593169 0.000495891 0.000880516
0.0187878 3.70221e-20 0.00116731 -0.00147749 0.00645935 0.000285306
-0.0175851 2.16202e-20 0.00679799 0.00520815 0.000631805 0.00130068
0.0175851 -5.35682e-21 0.00679799 0.000408835 0.0033027 0.000473207
-0.0184432 2.71051e-20 0.00401963 0.0105416 0.00053118 0.0148556
0.0184432 2.71051e-20 0.00401963 -0.00109007 0.0116651 0.00105588
-0.0187844 0 0.00239454 0.00287392 0.000538113 0.00707841
0.0187844 -3.07554e-20 0.00239454 -0.0021035 0.0102852 0.000677471
-0.0180831 0 0.00566925 0.0101511 0.0006191 0.013924
0.0180831 0 0.00566925 0.0003876 0.00938444 0.00108254
0.0177912 0 0.00658995 0.000590038 0.00542591 0.000730311
-0.0177912 0 0.00658995 0.00612307 0.000760869 0.00539172
-0.0184158 -2.71051e-20 0.00467993 0.0120795 0.000521196 0.0185472
0.0184158 0 0.00467993 -0.000519723 0.0113658 0.0010779
-0.0176529 -2.71051e-20 0.00706043 0.00312499 0.000574036 0.000530807
0.0176529 0 0.00706043 0.000329516 0.00228765 0.000357809
-0.0176264 -4.1359e-25 0.00737367 1.03873e-08 2.53574e-09 1.79513e-08
0.0176264 0 0.00737367 1.93784e-09 1.29423e-08 2.06551e-09
-0.0180712 2.58494e-26 0.00630777 0.00706785 0.000674746 0.0121341
0.0180712 0 0.00630777 0.000638578 0.0074559 0.000944859
-0.0184261 -2.71051e-20 0.0053197 0.0114375 0.000542023 0.0202773
0.0184261 -2.71051e-20 0.0053197 9.43165e-05 0.0106927 0.00114537
-0.0188515 2.06795e-25 0.00360143 0.0116393 0.000492428 0.0170922
0.0188515 0 0.00360143 -0.00152992 0.0115954 0.000890743
0.0188003 -6.46235e-27 0.00397534 -0.00121628 0.011603 0.000941119
-0.0187497 -2.08725e-20 0.00434473 0.0129983 0.000499403 0.0197977
0.0187497 1.29247e-26 0.00434473 -0.000906428 0.0116105 0.000990887
-0.018025 1.03398e-25 0.00697581 0.00223281 0.00064528 0.0082164
0.018025 0 0.00697581 0.00052725 0.00439416 0.000613007
-0.0183967 0 0.00598007 0.00871433 0.000578331 0.0199413
0.0183967 -2.71051e-20 0.00598007 0.000581522 0.00939323 0.00111837
0.0190444 -3.87741e-26 0.00361107 -0.00159239 0.0116107 0.000800051
-0.0179363 0 0.0073519 -0.000206076 0.00055956 0.00448201
0.0179363 -2.71051e-20 0.0073519 0.000337667 0.00219951 0.000352845
-0.0193896 5.42101e-20 0.000584898 -0.00806444 0.000382997 -0.000376163
0.0193896 0 0.000584906 -0.000995015 0.00382289 7.51834e-05
-0.0188216 2.24226e-20 0.00491492 0.0132061 0.000490499 0.0245105
0.0188216 -2.43697e-20 0.00491492 -0.000347494 0.0112279 0.00100595
-0.0193933 -5.42101e-20 0.00177944 0.000531894 0.000431014 0.00348333
0.0193933 0 0.00177943 -0.00254134 0.00937881 0.000549598
-0.0179292 4.1359e-25 0.00768641 -1.33215e-08 2.38278e-09 5.03518e-08
0.0179292 0 0.00768641 2.19318e-09 1.42923e-08 2.28995e-09
0.018369 0 0.00663164 0.000778767 0.00744714 0.000982929
-0.018369 0 0.00663164 0.00388634 0.000645432 0.0172166