# Moment      
# CofR        : (0.000000e+00 0.000000e+00 0.000000e+00)
#
# Time        	(total_x total_y total_z)	(pressure_x pressure_y pressure_z)	(viscous_x viscous_y viscous_z)
1             	(2.092107e+02 -5.542488e+00 3.043260e+01)	(2.092112e+02 -5.544036e+00 3.044237e+01)	(-5.609060e-04 1.548182e-03 -9.769809e-03)
2             	(2.092894e+02 -5.627202e+00 3.122220e+01)	(2.092899e+02 -5.628680e+00 3.122833e+01)	(-4.757604e-04 1.478240e-03 -6.124069e-03)
3             	(2.095350e+02 -5.817065e+00 3.314443e+01)	(2.095353e+02 -5.818412e+00 3.314750e+01)	(-3.265723e-04 1.347269e-03 -3.063543e-03)
4             	(2.098630e+02 -6.032445e+00 3.538512e+01)	(2.098630e+02 -6.033590e+00 3.538687e+01)	(4.474435e-05 1.144840e-03 -1.745359e-03)
5             	(2.101788e+02 -6.187966e+00 3.718319e+01)	(2.101783e+02 -6.188861e+00 3.718474e+01)	(5.059781e-04 8.942406e-04 -1.543816e-03)
6             	(2.103425e+02 -6.284305e+00 3.819240e+01)	(2.103416e+02 -6.284976e+00 3.819452e+01)	(9.357356e-04 6.713336e-04 -2.117934e-03)
7             	(2.103498e+02 -6.303989e+00 3.834772e+01)	(2.103486e+02 -6.304479e+00 3.835069e+01)	(1.205574e-03 4.893376e-04 -2.971837e-03)
8             	(2.102283e+02 -6.274430e+00 3.794250e+01)	(2.102269e+02 -6.274817e+00 3.794630e+01)	(1.373157e-03 3.869097e-04 -3.793332e-03)
9             	(2.100313e+02 -6.211522e+00 3.718587e+01)	(2.100299e+02 -6.211910e+00 3.719021e+01)	(1.357423e-03 3.876986e-04 -4.341037e-03)
10            	(2.098309e+02 -6.141057e+00 3.637914e+01)	(2.098298e+02 -6.141527e+00 3.638362e+01)	(1.128964e-03 4.704596e-04 -4.471270e-03)
11            	(2.096854e+02 -6.082361e+00 3.574749e+01)	(2.096846e+02 -6.082928e+00 3.575165e+01)	(7.882839e-04 5.671795e-04 -4.156492e-03)
12            	(2.096240e+02 -6.049405e+00 3.542345e+01)	(2.096235e+02 -6.050039e+00 3.542704e+01)	(5.193084e-04 6.343389e-04 -3.587246e-03)
13            	(2.096333e+02 -6.042937e+00 3.539350e+01)	(2.096329e+02 -6.043602e+00 3.539647e+01)	(3.776283e-04 6.652641e-04 -2.967680e-03)
14            	(2.096963e+02 -6.054045e+00 3.554281e+01)	(2.096959e+02 -6.054708e+00 3.554527e+01)	(3.612142e-04 6.623582e-04 -2.453804e-03)
15            	(2.097866e+02 -6.076412e+00 3.580278e+01)	(2.097861e+02 -6.077038e+00 3.580491e+01)	(4.618374e-04 6.264418e-04 -2.131869e-03)
16            	(2.098747e+02 -6.101747e+00 3.607782e+01)	(2.098740e+02 -6.102310e+00 3.607982e+01)	(6.600012e-04 5.631006e-04 -1.995573e-03)
17            	(2.099346e+02 -6.121789e+00 3.628278e+01)	(2.099337e+02 -6.122281e+00 3.628478e+01)	(8.975338e-04 4.918988e-04 -2.000045e-03)
18            	(2.099602e+02 -6.133392e+00 3.639336e+01)	(2.099591e+02 -6.133821e+00 3.639545e+01)	(1.107945e-03 4.299737e-04 -2.089565e-03)
19            	(2.099543e+02 -6.135576e+00 3.640824e+01)	(2.099530e+02 -6.135964e+00 3.641045e+01)	(1.257232e-03 3.885946e-04 -2.205866e-03)
20            	(2.099289e+02 -6.132204e+00 3.636427e+01)	(2.099276e+02 -6.132571e+00 3.636658e+01)	(1.347613e-03 3.668699e-04 -2.305368e-03)
21            	(2.098878e+02 -6.124766e+00 3.627925e+01)	(2.098865e+02 -6.125131e+00 3.628161e+01)	(1.370777e-03 3.641732e-04 -2.358688e-03)
22            	(2.098457e+02 -6.116053e+00 3.618982e+01)	(2.098444e+02 -6.116427e+00 3.619216e+01)	(1.338066e-03 3.736086e-04 -2.348316e-03)
23            	(2.098140e+02 -6.109209e+00 3.611935e+01)	(2.098128e+02 -6.109596e+00 3.612163e+01)	(1.280065e-03 3.873142e-04 -2.286747e-03)
24            	(2.097967e+02 -6.104998e+00 3.607887e+01)	(2.097955e+02 -6.105396e+00 3.608106e+01)	(1.221878e-03 3.985723e-04 -2.192568e-03)
25            	(2.097935e+02 -6.103529e+00 3.606868e+01)	(2.097923e+02 -6.103932e+00 3.607076e+01)	(1.182039e-03 4.026797e-04 -2.085146e-03)
26            	(2.097993e+02 -6.104102e+00 3.607789e+01)	(2.097981e+02 -6.104500e+00 3.607987e+01)	(1.166363e-03 3.984679e-04 -1.982246e-03)
27            	(2.098112e+02 -6.105981e+00 3.609860e+01)	(2.098101e+02 -6.106368e+00 3.610050e+01)	(1.174364e-03 3.870163e-04 -1.895853e-03)
28            	(2.098237e+02 -6.108493e+00 3.612259e+01)	(2.098225e+02 -6.108864e+00 3.612442e+01)	(1.201379e-03 3.708908e-04 -1.831608e-03)
29            	(2.098347e+02 -6.110928e+00 3.614459e+01)	(2.098335e+02 -6.111280e+00 3.614638e+01)	(1.240141e-03 3.527174e-04 -1.786889e-03)
30            	(2.098417e+02 -6.112744e+00 3.615922e+01)	(2.098405e+02 -6.113079e+00 3.616098e+01)	(1.282089e-03 3.352209e-04 -1.757197e-03)
31            	(2.098445e+02 -6.113728e+00 3.616550e+01)	(2.098431e+02 -6.114048e+00 3.616724e+01)	(1.321120e-03 3.200117e-04 -1.736793e-03)
32            	(2.098436e+02 -6.113994e+00 3.616544e+01)	(2.098423e+02 -6.114301e+00 3.616716e+01)	(1.354769e-03 3.074056e-04 -1.719764e-03)
33            	(2.098410e+02 -6.113806e+00 3.616179e+01)	(2.098396e+02 -6.114103e+00 3.616349e+01)	(1.382526e-03 2.970620e-04 -1.701377e-03)
34            	(2.098380e+02 -6.113352e+00 3.615640e+01)	(2.098366e+02 -6.113641e+00 3.615807e+01)	(1.403944e-03 2.885910e-04 -1.678823e-03)
35            	(2.098353e+02 -6.112822e+00 3.615103e+01)	(2.098339e+02 -6.113103e+00 3.615268e+01)	(1.419575e-03 2.814630e-04 -1.651430e-03)
36            	(2.098334e+02 -6.112323e+00 3.614651e+01)	(2.098320e+02 -6.112598e+00 3.614813e+01)	(1.429480e-03 2.752798e-04 -1.620377e-03)
37            	(2.098326e+02 -6.111958e+00 3.614349e+01)	(2.098312e+02 -6.112228e+00 3.614507e+01)	(1.434822e-03 2.695863e-04 -1.587321e-03)
38            	(2.098328e+02 -6.111778e+00 3.614210e+01)	(2.098313e+02 -6.112042e+00 3.614366e+01)	(1.437381e-03 2.640501e-04 -1.554268e-03)
39            	(2.098329e+02 -6.111840e+00 3.614182e+01)	(2.098315e+02 -6.112099e+00 3.614335e+01)	(1.440204e-03 2.585954e-04 -1.524131e-03)
40            	(2.098337e+02 -6.111922e+00 3.614230e+01)	(2.098322e+02 -6.112175e+00 3.614379e+01)	(1.443468e-03 2.529987e-04 -1.496262e-03)
41            	(2.098348e+02 -6.112007e+00 3.614313e+01)	(2.098334e+02 -6.112255e+00 3.614461e+01)	(1.447791e-03 2.473965e-04 -1.470888e-03)
42            	(2.098358e+02 -6.112106e+00 3.614386e+01)	(2.098344e+02 -6.112348e+00 3.614531e+01)	(1.453247e-03 2.418232e-04 -1.447893e-03)
43            	(2.098369e+02 -6.112225e+00 3.614470e+01)	(2.098355e+02 -6.112462e+00 3.614612e+01)	(1.460455e-03 2.362260e-04 -1.426731e-03)
44            	(2.098388e+02 -6.112516e+00 3.614669e+01)	(2.098373e+02 -6.112746e+00 3.614809e+01)	(1.472722e-03 2.300048e-04 -1.406340e-03)
45            	(2.098395e+02 -6.112625e+00 3.614758e+01)	(2.098380e+02 -6.112849e+00 3.614897e+01)	(1.486014e-03 2.240969e-04 -1.387628e-03)
46            	(2.098400e+02 -6.112737e+00 3.614852e+01)	(2.098385e+02 -6.112956e+00 3.614989e+01)	(1.500909e-03 2.180548e-04 -1.369670e-03)
47            	(2.098395e+02 -6.112868e+00 3.614906e+01)	(2.098379e+02 -6.113081e+00 3.615041e+01)	(1.516869e-03 2.121849e-04 -1.353200e-03)
48            	(2.098395e+02 -6.112953e+00 3.615002e+01)	(2.098380e+02 -6.113159e+00 3.615136e+01)	(1.533066e-03 2.064310e-04 -1.337058e-03)
49            	(2.098389e+02 -6.113028e+00 3.615098e+01)	(2.098373e+02 -6.113229e+00 3.615230e+01)	(1.549703e-03 2.008157e-04 -1.321783e-03)
50            	(2.098378e+02 -6.113112e+00 3.615109e+01)	(2.098362e+02 -6.113308e+00 3.615240e+01)	(1.564732e-03 1.956892e-04 -1.307432e-03)
51            	(2.098376e+02 -6.113139e+00 3.615145e+01)	(2.098360e+02 -6.113330e+00 3.615275e+01)	(1.577868e-03 1.910130e-04 -1.293952e-03)
52            	(2.098373e+02 -6.113149e+00 3.615161e+01)	(2.098357e+02 -6.113336e+00 3.615290e+01)	(1.588826e-03 1.867513e-04 -1.281255e-03)
53            	(2.098371e+02 -6.113148e+00 3.615164e+01)	(2.098355e+02 -6.113331e+00 3.615291e+01)	(1.597448e-03 1.829087e-04 -1.269235e-03)
54            	(2.098368e+02 -6.113138e+00 3.615155e+01)	(2.098352e+02 -6.113318e+00 3.615281e+01)	(1.603659e-03 1.794439e-04 -1.257456e-03)
55            	(2.098366e+02 -6.113122e+00 3.615138e+01)	(2.098350e+02 -6.113299e+00 3.615263e+01)	(1.607640e-03 1.763867e-04 -1.245643e-03)
56            	(2.098362e+02 -6.113102e+00 3.615096e+01)	(2.098346e+02 -6.113275e+00 3.615220e+01)	(1.609526e-03 1.738069e-04 -1.234077e-03)
57            	(2.098361e+02 -6.113073e+00 3.615064e+01)	(2.098345e+02 -6.113245e+00 3.615186e+01)	(1.609532e-03 1.716531e-04 -1.222685e-03)
58            	(2.098361e+02 -6.113044e+00 3.615028e+01)	(2.098345e+02 -6.113214e+00 3.615149e+01)	(1.607856e-03 1.699202e-04 -1.211823e-03)
59            	(2.098362e+02 -6.113016e+00 3.614992e+01)	(2.098346e+02 -6.113184e+00 3.615112e+01)	(1.604792e-03 1.686440e-04 -1.201899e-03)
60            	(2.098363e+02 -6.112993e+00 3.614959e+01)	(2.098347e+02 -6.113161e+00 3.615078e+01)	(1.600590e-03 1.678049e-04 -1.193257e-03)
61            	(2.098364e+02 -6.112977e+00 3.614932e+01)	(2.098348e+02 -6.113145e+00 3.615050e+01)	(1.595564e-03 1.674034e-04 -1.186111e-03)
62            	(2.098366e+02 -6.112971e+00 3.614910e+01)	(2.098350e+02 -6.113138e+00 3.615028e+01)	(1.589963e-03 1.674064e-04 -1.180603e-03)
63            	(2.098369e+02 -6.112973e+00 3.614893e+01)	(2.098353e+02 -6.113141e+00 3.615011e+01)	(1.584007e-03 1.677201e-04 -1.176780e-03)
64            	(2.098379e+02 -6.112981e+00 3.614918e+01)	(2.098363e+02 -6.113149e+00 3.615036e+01)	(1.577916e-03 1.681955e-04 -1.174204e-03)
65            	(2.098383e+02 -6.113029e+00 3.614899e+01)	(2.098367e+02 -6.113198e+00 3.615016e+01)	(1.571632e-03 1.688937e-04 -1.173656e-03)
66            	(2.098401e+02 -6.113125e+00 3.614923e+01)	(2.098385e+02 -6.113295e+00 3.615040e+01)	(1.565365e-03 1.698455e-04 -1.175603e-03)
67            	(2.098411e+02 -6.113105e+00 3.614962e+01)	(2.098396e+02 -6.113276e+00 3.615080e+01)	(1.558281e-03 1.707637e-04 -1.176825e-03)
68            	(2.098419e+02 -6.113103e+00 3.614978e+01)	(2.098404e+02 -6.113275e+00 3.615096e+01)	(1.551191e-03 1.716276e-04 -1.178442e-03)
69            	(2.098419e+02 -6.113131e+00 3.614946e+01)	(2.098403e+02 -6.113304e+00 3.615064e+01)	(1.542981e-03 1.727492e-04 -1.181360e-03)
70            	(2.098418e+02 -6.113148e+00 3.614911e+01)	(2.098403e+02 -6.113322e+00 3.615029e+01)	(1.533433e-03 1.741708e-04 -1.185561e-03)
71            	(2.098417e+02 -6.113153e+00 3.614875e+01)	(2.098402e+02 -6.113329e+00 3.614994e+01)	(1.522477e-03 1.759562e-04 -1.190935e-03)
72            	(2.098417e+02 -6.113149e+00 3.614839e+01)	(2.098402e+02 -6.113327e+00 3.614959e+01)	(1.510452e-03 1.781031e-04 -1.197060e-03)
73            	(2.098420e+02 -6.113134e+00 3.614826e+01)	(2.098405e+02 -6.113314e+00 3.614946e+01)	(1.497938e-03 1.804492e-04 -1.203162e-03)
74            	(2.098421e+02 -6.113118e+00 3.614811e+01)	(2.098406e+02 -6.113301e+00 3.614932e+01)	(1.485402e-03 1.829458e-04 -1.209215e-03)
75            	(2.098421e+02 -6.113103e+00 3.614786e+01)	(2.098406e+02 -6.113288e+00 3.614907e+01)	(1.472996e-03 1.856007e-04 -1.215573e-03)
76            	(2.098421e+02 -6.113082e+00 3.614768e+01)	(2.098406e+02 -6.113271e+00 3.614890e+01)	(1.460699e-03 1.883911e-04 -1.222288e-03)
77            	(2.098421e+02 -6.113060e+00 3.614764e+01)	(2.098407e+02 -6.113251e+00 3.614887e+01)	(1.448542e-03 1.913161e-04 -1.229194e-03)
78            	(2.098421e+02 -6.113034e+00 3.614765e+01)	(2.098406e+02 -6.113229e+00 3.614889e+01)	(1.436740e-03 1.943820e-04 -1.236216e-03)
79            	(2.098420e+02 -6.113004e+00 3.614772e+01)	(2.098406e+02 -6.113202e+00 3.614897e+01)	(1.425621e-03 1.975386e-04 -1.243209e-03)
80            	(2.098423e+02 -6.112952e+00 3.614799e+01)	(2.098409e+02 -6.113153e+00 3.614924e+01)	(1.415213e-03 2.008979e-04 -1.250981e-03)
81            	(2.098422e+02 -6.112916e+00 3.614818e+01)	(2.098408e+02 -6.113120e+00 3.614943e+01)	(1.406108e-03 2.039756e-04 -1.257707e-03)
82            	(2.098421e+02 -6.112875e+00 3.614840e+01)	(2.098407e+02 -6.113082e+00 3.614966e+01)	(1.399263e-03 2.067557e-04 -1.263503e-03)
83            	(2.098419e+02 -6.112825e+00 3.614865e+01)	(2.098405e+02 -6.113035e+00 3.614992e+01)	(1.393939e-03 2.091506e-04 -1.268032e-03)
84            	(2.098416e+02 -6.112764e+00 3.614892e+01)	(2.098402e+02 -6.112975e+00 3.615019e+01)	(1.390179e-03 2.110274e-04 -1.271088e-03)
85            	(2.098413e+02 -6.112689e+00 3.614918e+01)	(2.098399e+02 -6.112901e+00 3.615045e+01)	(1.387663e-03 2.123626e-04 -1.272593e-03)
86            	(2.098410e+02 -6.112520e+00 3.614956e+01)	(2.098396e+02 -6.112733e+00 3.615083e+01)	(1.385961e-03 2.133882e-04 -1.273122e-03)
87            	(2.098406e+02 -6.112429e+00 3.614977e+01)	(2.098392e+02 -6.112643e+00 3.615105e+01)	(1.383401e-03 2.141800e-04 -1.272456e-03)
88            	(2.098400e+02 -6.112325e+00 3.614995e+01)	(2.098387e+02 -6.112539e+00 3.615122e+01)	(1.381049e-03 2.147910e-04 -1.271293e-03)
89            	(2.098394e+02 -6.112204e+00 3.615007e+01)	(2.098380e+02 -6.112419e+00 3.615134e+01)	(1.377652e-03 2.153693e-04 -1.269940e-03)
90            	(2.098387e+02 -6.112066e+00 3.615014e+01)	(2.098373e+02 -6.112282e+00 3.615141e+01)	(1.373444e-03 2.158695e-04 -1.268331e-03)
91            	(2.098378e+02 -6.111913e+00 3.615015e+01)	(2.098365e+02 -6.112129e+00 3.615142e+01)	(1.368801e-03 2.162064e-04 -1.266359e-03)
92            	(2.098369e+02 -6.111750e+00 3.615010e+01)	(2.098355e+02 -6.111966e+00 3.615136e+01)	(1.364211e-03 2.163171e-04 -1.263787e-03)
93            	(2.098358e+02 -6.111583e+00 3.614986e+01)	(2.098344e+02 -6.111799e+00 3.615112e+01)	(1.359926e-03 2.161708e-04 -1.260679e-03)
94            	(2.098348e+02 -6.111418e+00 3.614970e+01)	(2.098335e+02 -6.111633e+00 3.615095e+01)	(1.356208e-03 2.156977e-04 -1.256619e-03)
95            	(2.098339e+02 -6.111260e+00 3.614947e+01)	(2.098325e+02 -6.111475e+00 3.615073e+01)	(1.353202e-03 2.149408e-04 -1.251591e-03)
96            	(2.098329e+02 -6.111117e+00 3.614908e+01)	(2.098315e+02 -6.111331e+00 3.615033e+01)	(1.350760e-03 2.140087e-04 -1.245869e-03)
97            	(2.098321e+02 -6.110985e+00 3.614878e+01)	(2.098307e+02 -6.111198e+00 3.615002e+01)	(1.348747e-03 2.129149e-04 -1.239474e-03)
98            	(2.098314e+02 -6.110866e+00 3.614842e+01)	(2.098300e+02 -6.111078e+00 3.614965e+01)	(1.347127e-03 2.116754e-04 -1.232674e-03)
99            	(2.098307e+02 -6.110755e+00 3.614800e+01)	(2.098294e+02 -6.110966e+00 3.614922e+01)	(1.345857e-03 2.102579e-04 -1.225742e-03)
100           	(2.098301e+02 -6.110650e+00 3.614749e+01)	(2.098288e+02 -6.110858e+00 3.614871e+01)	(1.344996e-03 2.086497e-04 -1.218908e-03)
101           	(2.098296e+02 -6.110545e+00 3.614691e+01)	(2.098283e+02 -6.110752e+00 3.614812e+01)	(1.344690e-03 2.068637e-04 -1.212320e-03)
102           	(2.098291e+02 -6.110445e+00 3.614618e+01)	(2.098277e+02 -6.110650e+00 3.614738e+01)	(1.345042e-03 2.049715e-04 -1.206275e-03)
103           	(2.098286e+02 -6.110339e+00 3.614549e+01)	(2.098273e+02 -6.110542e+00 3.614669e+01)	(1.345884e-03 2.030265e-04 -1.200688e-03)
104           	(2.098282e+02 -6.110230e+00 3.614476e+01)	(2.098269e+02 -6.110431e+00 3.614596e+01)	(1.346975e-03 2.011580e-04 -1.195713e-03)
105           	(2.098278e+02 -6.110119e+00 3.614401e+01)	(2.098264e+02 -6.110318e+00 3.614520e+01)	(1.347863e-03 1.995210e-04 -1.191497e-03)
106           	(2.098274e+02 -6.110005e+00 3.614325e+01)	(2.098260e+02 -6.110204e+00 3.614444e+01)	(1.348133e-03 1.982287e-04 -1.188174e-03)
107           	(2.098269e+02 -6.109891e+00 3.614249e+01)	(2.098256e+02 -6.110088e+00 3.614367e+01)	(1.347360e-03 1.973316e-04 -1.185820e-03)
108           	(2.098265e+02 -6.109775e+00 3.614173e+01)	(2.098251e+02 -6.109972e+00 3.614292e+01)	(1.345350e-03 1.968495e-04 -1.184533e-03)
109           	(2.098260e+02 -6.109659e+00 3.614099e+01)	(2.098247e+02 -6.109855e+00 3.614217e+01)	(1.342116e-03 1.967548e-04 -1.184227e-03)
110           	(2.098255e+02 -6.109542e+00 3.614025e+01)	(2.098242e+02 -6.109739e+00 3.614143e+01)	(1.337810e-03 1.969869e-04 -1.184773e-03)
111           	(2.098249e+02 -6.109426e+00 3.613950e+01)	(2.098236e+02 -6.109623e+00 3.614069e+01)	(1.332577e-03 1.974987e-04 -1.186114e-03)
112           	(2.098244e+02 -6.109310e+00 3.613876e+01)	(2.098230e+02 -6.109508e+00 3.613995e+01)	(1.326596e-03 1.981858e-04 -1.187968e-03)
113           	(2.098238e+02 -6.109197e+00 3.613801e+01)	(2.098225e+02 -6.109396e+00 3.613920e+01)	(1.320045e-03 1.989491e-04 -1.190152e-03)
114           	(2.098232e+02 -6.109086e+00 3.613725e+01)	(2.098219e+02 -6.109286e+00 3.613845e+01)	(1.313074e-03 1.997013e-04 -1.192545e-03)
115           	(2.098226e+02 -6.108980e+00 3.613647e+01)	(2.098213e+02 -6.109180e+00 3.613767e+01)	(1.305826e-03 2.003744e-04 -1.195005e-03)
116           	(2.098220e+02 -6.108878e+00 3.613566e+01)	(2.098207e+02 -6.109079e+00 3.613686e+01)	(1.298404e-03 2.009553e-04 -1.197470e-03)
117           	(2.098214e+02 -6.108781e+00 3.613485e+01)	(2.098201e+02 -6.108983e+00 3.613605e+01)	(1.290809e-03 2.014917e-04 -1.199947e-03)
118           	(2.098211e+02 -6.108681e+00 3.613417e+01)	(2.098198e+02 -6.108883e+00 3.613537e+01)	(1.283097e-03 2.020248e-04 -1.202102e-03)
119           	(2.098206e+02 -6.108596e+00 3.613335e+01)	(2.098193e+02 -6.108799e+00 3.613455e+01)	(1.275263e-03 2.026719e-04 -1.204270e-03)
120           	(2.098201e+02 -6.108514e+00 3.613255e+01)	(2.098188e+02 -6.108718e+00 3.613375e+01)	(1.267251e-03 2.034864e-04 -1.206405e-03)
121           	(2.098199e+02 -6.108423e+00 3.613191e+01)	(2.098186e+02 -6.108627e+00 3.613312e+01)	(1.259058e-03 2.044441e-04 -1.208144e-03)
122           	(2.098194e+02 -6.108348e+00 3.613114e+01)	(2.098182e+02 -6.108554e+00 3.613235e+01)	(1.250722e-03 2.055878e-04 -1.209819e-03)
123           	(2.098190e+02 -6.108272e+00 3.613039e+01)	(2.098178e+02 -6.108479e+00 3.613160e+01)	(1.242201e-03 2.068963e-04 -1.211346e-03)
124           	(2.098188e+02 -6.108182e+00 3.612981e+01)	(2.098176e+02 -6.108391e+00 3.613102e+01)	(1.233492e-03 2.083021e-04 -1.212408e-03)
125           	(2.098184e+02 -6.108108e+00 3.612912e+01)	(2.098172e+02 -6.108317e+00 3.613033e+01)	(1.224708e-03 2.098208e-04 -1.213331e-03)
126           	(2.098180e+02 -6.108030e+00 3.612845e+01)	(2.098168e+02 -6.108241e+00 3.612967e+01)	(1.215904e-03 2.114094e-04 -1.214082e-03)
127           	(2.098176e+02 -6.107949e+00 3.612783e+01)	(2.098164e+02 -6.108162e+00 3.612904e+01)	(1.207131e-03 2.130351e-04 -1.214662e-03)
128           	(2.098174e+02 -6.107857e+00 3.612736e+01)	(2.098162e+02 -6.108071e+00 3.612858e+01)	(1.198378e-03 2.146422e-04 -1.214828e-03)
129           	(2.098170e+02 -6.107778e+00 3.612679e+01)	(2.098158e+02 -6.107994e+00 3.612801e+01)	(1.189683e-03 2.162524e-04 -1.214915e-03)
130           	(2.098165e+02 -6.107698e+00 3.612623e+01)	(2.098153e+02 -6.107916e+00 3.612745e+01)	(1.180987e-03 2.178340e-04 -1.214845e-03)
131           	(2.098160e+02 -6.107618e+00 3.612567e+01)	(2.098148e+02 -6.107837e+00 3.612688e+01)	(1.172202e-03 2.193428e-04 -1.214534e-03)
132           	(2.098155e+02 -6.107537e+00 3.612509e+01)	(2.098143e+02 -6.107758e+00 3.612630e+01)	(1.163261e-03 2.207477e-04 -1.213927e-03)
133           	(2.098149e+02 -6.107456e+00 3.612448e+01)	(2.098138e+02 -6.107678e+00 3.612570e+01)	(1.154117e-03 2.220056e-04 -1.212950e-03)
134           	(2.098143e+02 -6.107375e+00 3.612391e+01)	(2.098132e+02 -6.107598e+00 3.612512e+01)	(1.144740e-03 2.230868e-04 -1.211518e-03)
135           	(2.098138e+02 -6.107296e+00 3.612327e+01)	(2.098127e+02 -6.107520e+00 3.612448e+01)	(1.135065e-03 2.239793e-04 -1.209692e-03)
136           	(2.098132e+02 -6.107217e+00 3.612266e+01)	(2.098121e+02 -6.107441e+00 3.612387e+01)	(1.125231e-03 2.247034e-04 -1.207479e-03)
137           	(2.098126e+02 -6.107138e+00 3.612205e+01)	(2.098115e+02 -6.107363e+00 3.612325e+01)	(1.115337e-03 2.252965e-04 -1.204962e-03)
138           	(2.098120e+02 -6.107060e+00 3.612143e+01)	(2.098109e+02 -6.107286e+00 3.612263e+01)	(1.105401e-03 2.257893e-04 -1.202267e-03)
139           	(2.098114e+02 -6.106983e+00 3.612083e+01)	(2.098103e+02 -6.107209e+00 3.612203e+01)	(1.095457e-03 2.262255e-04 -1.199519e-03)
140           	(2.098109e+02 -6.106905e+00 3.612026e+01)	(2.098098e+02 -6.107132e+00 3.612145e+01)	(1.085552e-03 2.266554e-04 -1.196820e-03)
141           	(2.098103e+02 -6.106826e+00 3.611972e+01)	(2.098092e+02 -6.107053e+00 3.612092e+01)	(1.075755e-03 2.271191e-04 -1.194163e-03)
142           	(2.098098e+02 -6.106744e+00 3.611923e+01)	(2.098087e+02 -6.106972e+00 3.612042e+01)	(1.066095e-03 2.276393e-04 -1.191516e-03)
143           	(2.098093e+02 -6.106659e+00 3.611878e+01)	(2.098083e+02 -6.106887e+00 3.611997e+01)	(1.056506e-03 2.282240e-04 -1.188964e-03)
144           	(2.098088e+02 -6.106569e+00 3.611835e+01)	(2.098078e+02 -6.106798e+00 3.611954e+01)	(1.046884e-03 2.288821e-04 -1.186606e-03)
145           	(2.098083e+02 -6.106473e+00 3.611795e+01)	(2.098073e+02 -6.106703e+00 3.611914e+01)	(1.037178e-03 2.296243e-04 -1.184490e-03)
146           	(2.098078e+02 -6.106371e+00 3.611755e+01)	(2.098068e+02 -6.106601e+00 3.611873e+01)	(1.027327e-03 2.304609e-04 -1.182620e-03)
147           	(2.098071e+02 -6.106262e+00 3.611694e+01)	(2.098061e+02 -6.106494e+00 3.611813e+01)	(1.017169e-03 2.314395e-04 -1.181371e-03)
148           	(2.098065e+02 -6.106135e+00 3.611652e+01)	(2.098055e+02 -6.106367e+00 3.611770e+01)	(1.006644e-03 2.324830e-04 -1.180309e-03)
149           	(2.098059e+02 -6.105992e+00 3.611603e+01)	(2.098049e+02 -6.106226e+00 3.611721e+01)	(9.956233e-04 2.336330e-04 -1.179469e-03)
150           	(2.098049e+02 -6.105837e+00 3.611522e+01)	(2.098039e+02 -6.106072e+00 3.611640e+01)	(9.837831e-04 2.350367e-04 -1.179320e-03)
151           	(2.098041e+02 -6.105653e+00 3.611460e+01)	(2.098031e+02 -6.105890e+00 3.611578e+01)	(9.710553e-04 2.366402e-04 -1.179225e-03)
152           	(2.098032e+02 -6.105450e+00 3.611388e+01)	(2.098023e+02 -6.105688e+00 3.611506e+01)	(9.573053e-04 2.385032e-04 -1.179224e-03)
153           	(2.098019e+02 -6.105229e+00 3.611276e+01)	(2.098009e+02 -6.105470e+00 3.611394e+01)	(9.421749e-04 2.408060e-04 -1.179894e-03)
154           	(2.098008e+02 -6.104977e+00 3.611186e+01)	(2.097999e+02 -6.105221e+00 3.611304e+01)	(9.256842e-04 2.434629e-04 -1.180539e-03)
155           	(2.097997e+02 -6.104704e+00 3.611085e+01)	(2.097988e+02 -6.104950e+00 3.611203e+01)	(9.077649e-04 2.465386e-04 -1.181306e-03)
156           	(2.097973e+02 -6.104137e+00 3.610803e+01)	(2.097964e+02 -6.104388e+00 3.610921e+01)	(8.840989e-04 2.509647e-04 -1.183367e-03)
157           	(2.097959e+02 -6.103895e+00 3.610674e+01)	(2.097950e+02 -6.104151e+00 3.610792e+01)	(8.597760e-04 2.556077e-04 -1.185979e-03)
158           	(2.097949e+02 -6.103624e+00 3.610573e+01)	(2.097941e+02 -6.103885e+00 3.610692e+01)	(8.368648e-04 2.602744e-04 -1.188096e-03)
159           	(2.097940e+02 -6.103327e+00 3.610466e+01)	(2.097932e+02 -6.103592e+00 3.610585e+01)	(8.136769e-04 2.651907e-04 -1.190202e-03)
160           	(2.097911e+02 -6.102730e+00 3.610112e+01)	(2.097904e+02 -6.103002e+00 3.610232e+01)	(7.860689e-04 2.716734e-04 -1.194818e-03)
161           	(2.097904e+02 -6.102413e+00 3.610031e+01)	(2.097896e+02 -6.102691e+00 3.610151e+01)	(7.592293e-04 2.779398e-04 -1.198590e-03)
162           	(2.097897e+02 -6.102074e+00 3.609944e+01)	(2.097890e+02 -6.102358e+00 3.610064e+01)	(7.342252e-04 2.840313e-04 -1.201456e-03)
163           	(2.097882e+02 -6.101341e+00 3.609595e+01)	(2.097875e+02 -6.101633e+00 3.609716e+01)	(7.053295e-04 2.914367e-04 -1.206261e-03)
164           	(2.097877e+02 -6.101048e+00 3.609533e+01)	(2.097870e+02 -6.101346e+00 3.609654e+01)	(6.779922e-04 2.983643e-04 -1.210383e-03)
165           	(2.097871e+02 -6.100758e+00 3.609471e+01)	(2.097865e+02 -6.101063e+00 3.609592e+01)	(6.528858e-04 3.048597e-04 -1.213438e-03)
166           	(2.097866e+02 -6.100474e+00 3.609392e+01)	(2.097860e+02 -6.100785e+00 3.609514e+01)	(6.287358e-04 3.111548e-04 -1.216332e-03)
167           	(2.097860e+02 -6.100200e+00 3.609312e+01)	(2.097854e+02 -6.100517e+00 3.609434e+01)	(6.054451e-04 3.172658e-04 -1.219072e-03)
168           	(2.097850e+02 -6.099959e+00 3.609219e+01)	(2.097845e+02 -6.100283e+00 3.609341e+01)	(5.830437e-04 3.232160e-04 -1.221869e-03)
169           	(2.097847e+02 -6.099724e+00 3.609176e+01)	(2.097841e+02 -6.100053e+00 3.609299e+01)	(5.616140e-04 3.287914e-04 -1.223651e-03)
170           	(2.097844e+02 -6.099538e+00 3.609148e+01)	(2.097839e+02 -6.099872e+00 3.609271e+01)	(5.412572e-04 3.339672e-04 -1.224442e-03)
171           	(2.097843e+02 -6.099418e+00 3.609143e+01)	(2.097838e+02 -6.099756e+00 3.609266e+01)	(5.221635e-04 3.386482e-04 -1.224190e-03)
172           	(2.097843e+02 -6.099370e+00 3.609169e+01)	(2.097838e+02 -6.099713e+00 3.609291e+01)	(5.046502e-04 3.427310e-04 -1.222771e-03)
173           	(2.097845e+02 -6.099397e+00 3.609222e+01)	(2.097840e+02 -6.099744e+00 3.609344e+01)	(4.890045e-04 3.461005e-04 -1.220108e-03)
174           	(2.097848e+02 -6.099502e+00 3.609308e+01)	(2.097843e+02 -6.099851e+00 3.609430e+01)	(4.755327e-04 3.486223e-04 -1.216177e-03)
175           	(2.097853e+02 -6.099683e+00 3.609435e+01)	(2.097848e+02 -6.100034e+00 3.609556e+01)	(4.646797e-04 3.501845e-04 -1.210868e-03)
176           	(2.097860e+02 -6.099936e+00 3.609613e+01)	(2.097855e+02 -6.100286e+00 3.609733e+01)	(4.569041e-04 3.507049e-04 -1.204113e-03)
177           	(2.097868e+02 -6.100236e+00 3.609836e+01)	(2.097863e+02 -6.100586e+00 3.609956e+01)	(4.524856e-04 3.501795e-04 -1.195933e-03)
178           	(2.097877e+02 -6.100560e+00 3.610090e+01)	(2.097873e+02 -6.100909e+00 3.610209e+01)	(4.514498e-04 3.487151e-04 -1.186574e-03)
179           	(2.097888e+02 -6.100886e+00 3.610364e+01)	(2.097883e+02 -6.101232e+00 3.610481e+01)	(4.536550e-04 3.464905e-04 -1.176377e-03)
180           	(2.097898e+02 -6.101197e+00 3.610639e+01)	(2.097894e+02 -6.101540e+00 3.610755e+01)	(4.587100e-04 3.437076e-04 -1.165777e-03)
181           	(2.097909e+02 -6.101480e+00 3.610903e+01)	(2.097904e+02 -6.101820e+00 3.611019e+01)	(4.661236e-04 3.405785e-04 -1.155187e-03)
182           	(2.097919e+02 -6.101726e+00 3.611150e+01)	(2.097914e+02 -6.102063e+00 3.611265e+01)	(4.753527e-04 3.373105e-04 -1.144943e-03)
183           	(2.097928e+02 -6.101931e+00 3.611375e+01)	(2.097923e+02 -6.102265e+00 3.611489e+01)	(4.858931e-04 3.340727e-04 -1.135248e-03)
184           	(2.097936e+02 -6.102094e+00 3.611576e+01)	(2.097931e+02 -6.102425e+00 3.611688e+01)	(4.972756e-04 3.309992e-04 -1.126204e-03)
185           	(2.097943e+02 -6.102219e+00 3.611740e+01)	(2.097938e+02 -6.102547e+00 3.611852e+01)	(5.089980e-04 3.281944e-04 -1.117982e-03)
186           	(2.097948e+02 -6.102306e+00 3.611882e+01)	(2.097943e+02 -6.102632e+00 3.611993e+01)	(5.206672e-04 3.257285e-04 -1.110517e-03)
187           	(2.097953e+02 -6.102361e+00 3.612000e+01)	(2.097948e+02 -6.102685e+00 3.612111e+01)	(5.319053e-04 3.236459e-04 -1.103725e-03)
188           	(2.097956e+02 -6.102390e+00 3.612094e+01)	(2.097951e+02 -6.102712e+00 3.612204e+01)	(5.423985e-04 3.219704e-04 -1.097527e-03)
189           	(2.097959e+02 -6.102401e+00 3.612165e+01)	(2.097953e+02 -6.102722e+00 3.612274e+01)	(5.518961e-04 3.206789e-04 -1.091765e-03)
190           	(2.097961e+02 -6.102405e+00 3.612217e+01)	(2.097955e+02 -6.102724e+00 3.612326e+01)	(5.603008e-04 3.197345e-04 -1.086290e-03)
191           	(2.097962e+02 -6.102407e+00 3.612250e+01)	(2.097956e+02 -6.102726e+00 3.612358e+01)	(5.675549e-04 3.190541e-04 -1.080983e-03)
192           	(2.097962e+02 -6.102418e+00 3.612273e+01)	(2.097956e+02 -6.102737e+00 3.612381e+01)	(5.737655e-04 3.185319e-04 -1.075663e-03)
193           	(2.097962e+02 -6.102445e+00 3.612292e+01)	(2.097956e+02 -6.102763e+00 3.612399e+01)	(5.791450e-04 3.180296e-04 -1.070172e-03)
194           	(2.097962e+02 -6.102494e+00 3.612310e+01)	(2.097956e+02 -6.102811e+00 3.612416e+01)	(5.839815e-04 3.174273e-04 -1.064386e-03)
195           	(2.097962e+02 -6.102569e+00 3.612330e+01)	(2.097956e+02 -6.102885e+00 3.612436e+01)	(5.886184e-04 3.166386e-04 -1.058282e-03)
196           	(2.097956e+02 -6.102685e+00 3.612328e+01)	(2.097950e+02 -6.103001e+00 3.612433e+01)	(5.933601e-04 3.157043e-04 -1.052412e-03)
197           	(2.097957e+02 -6.102799e+00 3.612358e+01)	(2.097951e+02 -6.103114e+00 3.612463e+01)	(5.984422e-04 3.144526e-04 -1.046145e-03)
198           	(2.097959e+02 -6.102939e+00 3.612398e+01)	(2.097953e+02 -6.103252e+00 3.612502e+01)	(6.040530e-04 3.128979e-04 -1.039683e-03)
199           	(2.097961e+02 -6.103103e+00 3.612449e+01)	(2.097955e+02 -6.103414e+00 3.612552e+01)	(6.103419e-04 3.110293e-04 -1.033157e-03)
200           	(2.097964e+02 -6.103287e+00 3.612510e+01)	(2.097957e+02 -6.103596e+00 3.612613e+01)	(6.174962e-04 3.088546e-04 -1.026630e-03)
201           	(2.097966e+02 -6.103485e+00 3.612582e+01)	(2.097960e+02 -6.103792e+00 3.612684e+01)	(6.255710e-04 3.063852e-04 -1.020124e-03)
202           	(2.097962e+02 -6.103708e+00 3.612632e+01)	(2.097955e+02 -6.104012e+00 3.612733e+01)	(6.345949e-04 3.037170e-04 -1.014154e-03)
203           	(2.097965e+02 -6.103897e+00 3.612709e+01)	(2.097959e+02 -6.104197e+00 3.612810e+01)	(6.443066e-04 3.008263e-04 -1.008079e-03)
204           	(2.097968e+02 -6.104088e+00 3.612799e+01)	(2.097962e+02 -6.104385e+00 3.612899e+01)	(6.546699e-04 2.977438e-04 -1.001804e-03)
205           	(2.097971e+02 -6.104275e+00 3.612888e+01)	(2.097965e+02 -6.104569e+00 3.612987e+01)	(6.654454e-04 2.945032e-04 -9.953624e-04)
206           	(2.097974e+02 -6.104456e+00 3.612974e+01)	(2.097967e+02 -6.104747e+00 3.613073e+01)	(6.764426e-04 2.911601e-04 -9.888185e-04)
207           	(2.097976e+02 -6.104631e+00 3.613057e+01)	(2.097969e+02 -6.104918e+00 3.613155e+01)	(6.874166e-04 2.877700e-04 -9.822117e-04)
208           	(2.097977e+02 -6.104798e+00 3.613133e+01)	(2.097970e+02 -6.105082e+00 3.613231e+01)	(6.981060e-04 2.843818e-04 -9.755603e-04)
209           	(2.097978e+02 -6.104957e+00 3.613202e+01)	(2.097970e+02 -6.105238e+00 3.613299e+01)	(7.082822e-04 2.810350e-04 -9.688924e-04)
210           	(2.097972e+02 -6.105117e+00 3.613234e+01)	(2.097965e+02 -6.105395e+00 3.613331e+01)	(7.177153e-04 2.778368e-04 -9.626626e-04)
211           	(2.097972e+02 -6.105245e+00 3.613283e+01)	(2.097965e+02 -6.105519e+00 3.613378e+01)	(7.262754e-04 2.746932e-04 -9.562817e-04)