# k  POINT_DATA 25996
# x  y  z  k
2.61744e-27 0.01 1.50345e-07 1.78409e-08
0 -0.01 8.31199e-08 5.00513e-09
0 0.01 0.00067832 2.09177e-08
0 -0.01 0.00067832 5.68178e-09
-9.04729e-26 -0.0100182 0.00067694 5.87601e-09
0 0.01 0.00137372 2.3483e-08
2.06795e-25 -0.01 0.00137372 6.18612e-09
4.1359e-25 -0.0100737 0.00135823 5.92309e-09
0 0.01 0.002087 2.77682e-08
0 -0.01 0.002087 7.27786e-09
0 -0.0102613 0.000329046 5.0051e-09
0 0.0102613 0.000329046 1.78407e-08
2.71051e-20 -0.0102561 0.000988366 6.36778e-09
2.71051e-20 0.0102561 0.000988366 2.40371e-08
-5.42101e-20 -0.0102356 0.00161953 6.00185e-09
0 0.0102356 0.00161953 2.29211e-08
2.06795e-25 -0.0105293 8.82103e-08 1.77317e-08
0 0.0105293 8.68458e-08 6.29399e-08
1.03398e-25 -0.0105285 0.000201258 1.57068e-08
-7.12244e-21 0.0105268 0.000638363 4.06656e-08
3.59989e-21 -0.0105268 0.000638363 1.1307e-08
-8.27181e-25 0.0105159 0.00126532 1.65198e-08
-1.77927e-21 -0.0105159 0.0012653 4.34582e-09
-9.92948e-21 0.0105028 0.0017228 2.08187e-08
5.43127e-21 -0.0105028 0.0017228 5.43979e-09
0 -0.010496 0.00202291 8.40992e-09
2.71051e-20 0.010496 0.00202291 3.20685e-08
0 0.0104977 0.00235078 3.97679e-08
0 -0.0104977 0.00235077 1.04957e-08
5.42101e-20 -0.0108033 0.000314595 3.06286e-08
-2.71051e-20 0.0108033 0.000314595 1.08643e-07
2.71051e-20 -0.0108031 0.00093799 3.50258e-09
0 0.0108031 0.00093799 1.31528e-08
2.71051e-20 0.01079 0.00152732 6.36904e-09
2.71051e-20 -0.01079 0.00152732 1.6171e-09
0 -0.0110754 5.97384e-09 3.60267e-08
1.03398e-25 0.0110754 5.13922e-09 1.2796e-07
0 -0.0110786 0.00014364 3.2381e-08
1.97448e-21 -0.0110889 0.000613666 2.04512e-08
0 0.0110889 0.000613665 7.30254e-08
0 -0.0108991 0.00228385 1.25647e-08
0 0.0108991 0.00228385 4.7405e-08
7.04758e-22 -0.010988 0.00190081 5.46642e-09
3.30872e-24 0.010988 0.00190078 2.072e-08
-2.26962e-20 -0.0110831 0.00123266 3.00075e-09
0 0.0110831 0.00123266 1.12865e-08
0 0.0111876 4.08628e-09 1.34403e-07
-6.61744e-24 0.0109863 0.00260985 5.07039e-08
0 -0.0109863 0.00260985 1.37864e-08
2.71051e-20 0.0113733 0.000305239 1.47674e-07
2.71051e-20 -0.0113733 0.000305239 4.15357e-08
0 -0.0113913 0.000918847 5.48865e-09
0 0.0113913 0.000918847 2.03439e-08
1.7748e-20 -0.0112123 0.00231934 1.01113e-08
8.8012e-21 0.0112123 0.00231934 3.72083e-08
5.42101e-20 -0.0113682 0.00155884 1.4364e-09
5.42101e-20 0.0113682 0.00155884 5.42728e-09
0 -0.0115296 2.63527e-09 4.40266e-08
2.71051e-20 0.0114039 0.00209577 9.96217e-09
0 -0.0114039 0.00209577 2.67353e-09
2.71051e-20 -0.0113392 0.00255892 1.49912e-08
2.71051e-20 0.0113392 0.00255892 5.39571e-08
0 0.0116471 4.41185e-09 1.60791e-07
-5.16988e-26 -0.0116471 2.49118e-09 4.6096e-08
-2.06795e-25 0.0116702 0.000351062 1.20825e-07
3.72537e-20 -0.0116865 0.00059805 2.64959e-08
-2.06795e-25 0.0116865 0.000598047 9.27071e-08
4.3609e-21 -0.0117045 0.00122297 4.19756e-09
1.65436e-24 0.0117045 0.00122299 1.48599e-08
6.61744e-24 0.0114599 0.00285977 8.89889e-08
0 -0.0114598 0.00285975 2.62459e-08
1.83634e-21 -0.0117133 0.00184588 3.02057e-09
0 0.0117133 0.00184591 1.03022e-08
-1.76057e-20 -0.0116596 0.00239949 1.53307e-08
-3.30872e-24 0.0116596 0.00239949 5.20823e-08
0 0.0119676 0.000293859 1.74152e-07
0 -0.0119676 0.000293859 5.07407e-08
0 0.0120131 0.000895955 2.46748e-08
-2.71051e-20 -0.0120131 0.000895955 7.05486e-09
0 0.0120421 0.000581293 9.69903e-08
-2.71051e-20 0.0120433 0.00152444 8.49542e-09
-2.71051e-20 -0.0120433 0.00152444 2.67271e-09
2.71051e-20 0.0118604 0.00273056 1.23439e-07
2.71051e-20 -0.0118604 0.00273056 3.73136e-08
0 0.0120387 0.00217273 1.74503e-08
2.71051e-20 -0.0120387 0.00217273 5.36449e-09
8.27181e-25 -0.0122418 3.82985e-09 5.2003e-08
0 0.0122418 1.65827e-09 1.7273e-07
0 0.0119119 0.00310459 1.27477e-07
6.61744e-24 -0.0119119 0.00310459 4.07766e-08
-2.00839e-20 -0.0123043 0.000568948 3.03441e-08
-2.06795e-25 0.0123043 0.000568944 1.00148e-07
-2.06795e-25 0.0123214 0.000756605 7.47943e-08
-7.91281e-21 -0.01236 0.00118123 5.9056e-09
0 0.01236 0.00118124 1.7425e-08
-8.09148e-21 -0.0123814 0.00184432 4.45846e-09
0 0.0123814 0.00184434 1.12142e-08
-5.42101e-20 -0.0125711 0.000269457 5.3278e-08
2.71051e-20 0.0125711 0.000269457 1.71293e-07
-5.29396e-21 -0.0123374 0.00258488 2.10064e-08
3.30872e-24 0.0123374 0.00258488 6.3454e-08
-2.71051e-20 0.0122817 0.00299995 1.31451e-07
0 -0.0122817 0.00299995 4.41845e-08
0 0.0126475 0.000839062 2.61229e-08
-2.71051e-20 -0.0126475 0.000839062 8.9132e-09
0 0.0126468 0.00113831 2.1657e-08
0 0.0123472 0.00333734 1.24484e-07
0 -0.0123472 0.00333734 4.41112e-08
5.42101e-20 -0.0127108 0.0014705 4.87827e-09
2.71051e-20 0.0127108 0.0014705 1.00831e-08
1.65436e-24 -0.0128491 7.12675e-09 4.39746e-08
8.27181e-25 0.0128491 4.23759e-09 1.36722e-07
2.71051e-20 -0.0127172 0.00217074 4.95231e-09
-5.42101e-20 0.0127172 0.00217074 8.84929e-09
-1.65436e-24 -0.0129129 0.000505059 3.05001e-08
-2.11725e-20 0.0129129 0.000505054 8.73885e-08
-1.28974e-20 -0.0125922 0.00303079 3.26634e-08
4.44361e-21 0.0125922 0.00303079 9.12961e-08
0 -0.0130203 0.00108239 1.37395e-08
2.42318e-20 0.0130203 0.0010824 2.71689e-08
-5.42101e-20 -0.012793 0.00278388 8.72879e-09
2.71051e-20 0.012793 0.00278388 2.22886e-08
2.71051e-20 -0.0127108 0.00327268 4.40388e-08
0 0.0127108 0.00327268 1.17612e-07
-2.71051e-20 0.0131383 0.000218118 1.02053e-07
2.71051e-20 -0.0131383 0.000218118 3.46452e-08
-5.94536e-25 0.013056 0.00176705 1.44354e-08
-1.31298e-20 -0.013073 0.00176509 1.14214e-08
-1.87748e-20 0.013073 0.0017651 1.45168e-08
-1.80946e-25 0.0130744 0.00183568 1.45891e-08
0 0.0127674 0.00356123 1.21867e-07
1.65436e-24 -0.0127674 0.00356123 4.92175e-08
2.71051e-20 0.0132689 0.000719694 4.77811e-08
-2.71051e-20 -0.0132689 0.000719694 2.44433e-08
1.21207e-20 -0.0130872 0.00246808 1.15266e-08
0 0.0130872 0.00246808 1.52371e-08
2.21701e-20 -0.0133747 0.000406314 9.62088e-08
2.34258e-21 0.0133747 0.000406312 1.864e-07
-3.30872e-24 -0.0134599 1.0582e-08 1.34601e-07
1.65436e-24 0.0134599 2.11051e-13 2.59464e-07
-6.2357e-21 -0.0130916 0.00314268 2.80233e-08
0 0.0130916 0.00314268 6.40241e-08
-2.71051e-20 0.0134186 0.00131377 2.31852e-08
2.71051e-20 -0.0134186 0.00131377 1.60433e-08
2.06795e-25 0.0132913 0.0024518 2.04224e-08
0 -0.013075 0.00349045 5.43443e-08
0 0.013075 0.00349045 1.26078e-07
-5.42101e-20 0.0134232 0.00207248 1.65468e-08
0 -0.0134232 0.00207248 1.97791e-08
0 0.0131937 0.00330463 7.63643e-08
4.1359e-25 -0.0132125 0.00333444 3.58816e-08
0 0.0132924 0.0031228 5.416e-08
-2.71051e-20 -0.0136984 0.000300344 2.34581e-07
2.71051e-20 0.0136984 0.000300344 4.16913e-07
0 0.013418 0.00277569 1.29548e-08
2.71051e-20 -0.013418 0.00277569 1.32829e-08
0 0.0131762 0.0037788 1.27921e-07
-2.06795e-25 -0.0131762 0.0037788 5.90014e-08
0 0.0132264 0.00369882 1.1692e-07
3.10193e-25 -0.0132277 0.00369682 5.40413e-08
2.06795e-25 -0.0133956 0.00311258 3.1111e-08
1.15805e-21 -0.0137612 0.000786141 1.15958e-07
8.72676e-21 0.0137612 0.000786141 2.19857e-07
4.13053e-21 0.0133341 0.00352736 9.33354e-08
-4.1359e-25 -0.0133341 0.00352736 4.37878e-08
0 -0.0132744 0.00383809 7.34174e-08
-6.20385e-25 0.0132765 0.00383936 1.50473e-07
4.57596e-21 -0.0137678 0.00165537 4.54413e-08
-2.12387e-20 0.0137678 0.00165537 4.79821e-08
2.71051e-20 0.013482 0.00331696 2.38825e-08
-2.71051e-20 -0.013482 0.00331696 1.31806e-08
5.4139e-21 0.0137484 0.00241532 3.20379e-08
5.37523e-21 -0.0137484 0.00241533 4.64043e-08
0 0.013458 0.00374223 1.29752e-07
2.71051e-20 -0.013458 0.00374223 6.36273e-08
0 -0.0137485 0.00262036 4.27803e-08
0 -0.014071 -1.61664e-15 2.35567e-07
3.30872e-24 0.014071 3.57887e-08 4.66176e-07
-1.47759e-20 0.0137488 0.00307762 3.17403e-08
0 -0.0137488 0.00307762 3.46982e-08
0 -0.0135651 0.00401367 1.16106e-07
0 0.0135651 0.00401367 2.15389e-07
5.42101e-20 0.0141231 0.00120897 9.85409e-08
2.71051e-20 -0.0141231 0.00120897 6.57023e-08
1.82071e-20 0.0137164 0.00361035 1.27056e-07
0 -0.0137164 0.00361036 7.23543e-08
0 -0.014089 0.00201377 8.02271e-08
2.71051e-20 0.014089 0.00201377 5.67915e-08
0 0.0142657 0.000418225 5.15936e-07
0 -0.0142657 0.000418225 2.36563e-07
0 -0.014069 0.0027392 7.33907e-08
0 0.014069 0.0027392 4.29808e-08
-2.71051e-20 -0.0138967 0.00392747 1.68375e-07
-2.71051e-20 0.0138967 0.00392747 3.00682e-07
-2.71051e-20 -0.0140496 0.00340311 4.30985e-08
-2.71051e-20 0.0140496 0.00340311 4.84889e-08
-2.1333e-20 0.014441 0.00161389 1.45661e-07
-2.65045e-20 -0.014441 0.0016139 1.61096e-07
-7.79535e-21 -0.0145429 0.00082339 2.60026e-07
-1.21033e-20 0.0145429 0.000823384 4.64482e-07
0 -0.0139237 0.00428406 1.83037e-07
0 0.0139237 0.00428406 3.08759e-07
9.42241e-21 0.014397 0.00237993 1.05492e-07
5.73815e-21 -0.014397 0.00237994 1.84752e-07
2.06795e-25 -0.0143814 0.00273275 1.65467e-07
-2.07705e-21 0.0143653 0.00309538 8.30206e-08
4.1359e-25 -0.0143653 0.00309537 1.45646e-07
-6.61744e-24 -0.0147021 5.44306e-08 3.7768e-07
0 0.0147022 5.71061e-08 7.55929e-07
1.68976e-20 0.014305 0.00382188 1.7422e-07
0 -0.014305 0.00382189 1.33169e-07
-2.71051e-20 -0.0142451 0.00421792 1.97667e-07
2.71051e-20 0.0142451 0.00421792 3.16817e-07
2.71051e-20 0.0147298 0.00200539 1.66827e-07
2.71051e-20 -0.0147298 0.00200539 2.67597e-07
0 0.0148165 0.00124392 2.5828e-07
0 -0.0148165 0.00124392 2.24431e-07
2.71051e-20 0.014711 0.00272495 1.55146e-07
0 -0.014711 0.00272495 3.15642e-07
2.71051e-20 0.0149558 0.000461599 9.81002e-07
0 -0.0149558 0.000461599 5.10021e-07
0 0.0142802 0.00455258 3.12155e-07
0 -0.0142802 0.00455258 2.023e-07
0 0.0146561 0.00344874 9.06274e-08
2.71051e-20 -0.0146561 0.00344874 1.63342e-07
-1.7882e-20 0.014516 0.0042716 2.3709e-07
-2.24844e-20 -0.014516 0.0042716 1.6359e-07
1.77645e-20 -0.0150862 0.00165186 4.11394e-07
9.9758e-21 0.0150862 0.00165186 3.05123e-07
-2.71051e-20 0.014707 0.0040482 8.16482e-08
-2.71051e-20 -0.014707 0.0040482 8.33395e-08
-1.42904e-20 0.0151175 0.00230445 3.23218e-07
1.08692e-20 -0.0151175 0.00230447 6.05503e-07
-2.71051e-20 0.0146108 0.00452168 3.07498e-07
0 -0.0146108 0.00452168 2.06928e-07
0 -0.0149985 0.00306489 5.92314e-07
-3.06884e-21 0.0149933 0.00309785 2.86072e-07
5.16988e-26 -0.0149933 0.00309786 5.91742e-07
-3.51386e-21 -0.0153398 0.000978662 6.29754e-07
-1.16533e-20 0.0153398 0.00097866 8.48936e-07
0 -0.0153748 1.33307e-07 7.33822e-07
0 0.015375 6.62672e-08 1.2693e-06
1.55096e-25 -0.0150755 0.00309569 7.72959e-07
4.1359e-25 0.0146354 0.00482017 3.20861e-07
-4.1359e-25 -0.0146354 0.00482017 2.25664e-07
1.11578e-20 0.0149803 0.0037633 1.9362e-07
-2.90539e-20 -0.0149803 0.0037633 3.58252e-07
-2.71051e-20 -0.0153272 0.00275021 1.02421e-06
0 0.0153272 0.00275021 4.80249e-07
2.20005e-20 0.0149658 0.00441692 2.12814e-07
-3.37912e-20 -0.0149658 0.00441693 2.0612e-07
2.71051e-20 -0.014927 0.00477487 2.44384e-07
2.71051e-20 0.014927 0.00477488 3.34213e-07
0 -0.0152999 0.00342237 8.52285e-07
-2.71051e-20 0.0152999 0.00342237 4.12754e-07
0 -0.015716 0.00173426 9.18957e-07
0 0.015716 0.00173426 5.87144e-07
0 -0.0152841 0.00407715 3.70113e-07
0 0.0152841 0.00407715 2.0442e-07
0 -0.0149898 0.00508707 2.65009e-07
-2.06795e-25 0.0149898 0.00508707 3.52464e-07
1.30099e-20 0.0156647 0.00240044 8.93378e-07
9.03612e-21 -0.0156647 0.00240044 1.82439e-06
0 -0.0158728 0.000521005 1.10686e-06
-1.0842e-19 0.0158728 0.000521006 1.74986e-06
1.33131e-20 0.0151702 0.00482145 2.73225e-07
-1.14883e-20 -0.0151702 0.00482145 2.20041e-07
2.9953e-20 0.015623 0.00308126 9.50629e-07
-4.1359e-25 -0.015623 0.00308126 1.97987e-06
0 -0.015609 0.00353007 1.70922e-06
0 -0.0153271 0.00461022 1.28583e-07
0 0.0153271 0.00461022 1.11859e-07
3.03406e-20 0.0156022 0.00374982 7.96253e-07
0 -0.0156022 0.00374982 1.57669e-06
2.71051e-20 -0.015269 0.00505544 2.85614e-07
0 0.015269 0.00505544 3.70696e-07
2.71051e-20 -0.0159605 0.00272816 3.08919e-06
-2.71051e-20 0.0159605 0.00272816 1.45278e-06
-3.10453e-20 0.0155971 0.0043751 4.41744e-07
0 -0.0155971 0.0043751 7.75146e-07
-9.04729e-26 0.0153268 0.0053409 6.06595e-07
0 -0.0153431 0.00535318 5.03538e-07
0 0.0153431 0.00535318 6.18892e-07
-6.46235e-27 0.015348 0.00534205 6.14237e-07
2.71051e-20 -0.0159183 0.00340547 2.95687e-06
2.71051e-20 0.0159183 0.00340547 1.45639e-06
-4.3944e-21 -0.0155359 0.00491577 4.25818e-07
-7.05089e-21 0.0155359 0.00491577 4.36023e-07
-1.03398e-25 -0.0159116 0.00370605 3.03703e-06
-2.71051e-20 -0.0159245 0.00405169 2.13769e-06
-2.71051e-20 0.0159245 0.00405169 1.11541e-06
-7.47771e-20 -0.0163948 0.00113363 2.13494e-06
-1.71193e-20 0.0163948 0.00113363 2.02825e-06
0 -0.0164795 5.84737e-08 1.95226e-06
1.32349e-23 0.0164797 5.63528e-08 2.65561e-06
6.27251e-21 0.0162478 0.00305838 2.29984e-06
-8.39919e-21 -0.0162478 0.00305839 4.62403e-06
-1.02024e-20 -0.016378 0.00230527 4.18244e-06
5.52507e-20 0.016378 0.00230524 2.18633e-06
2.71051e-20 0.0156904 0.00524875 8.66781e-07
0 -0.0156904 0.00524875 7.21193e-07
5.42101e-20 0.0158759 0.00471202 3.98793e-07
5.42101e-20 -0.0158759 0.00471202 5.89354e-07
0 -0.0156951 0.00561829 7.70569e-07
0 0.0156951 0.00561829 9.03602e-07
-1.10569e-20 0.0163084 0.00364992 2.56814e-06
2.06795e-25 -0.0163084 0.00364992 4.90937e-06
5.16988e-26 0.0158074 0.0054888 8.97245e-07
-1.03398e-25 -0.0162362 0.0041525 3.6443e-06
-3.77401e-22 0.016199 0.00441125 1.68661e-06
0 -0.016199 0.00441125 2.99298e-06
0 -0.0161146 0.00513441 1.07972e-06
9.51919e-21 0.0161146 0.00513441 8.79846e-07
2.71051e-20 0.016031 0.0055414 9.40372e-07
-2.71051e-20 -0.016031 0.0055414 8.19877e-07
-2.71051e-20 0.0165301 0.00408038 3.67188e-06
0 -0.0165301 0.00408038 6.74047e-06
0 -0.0170241 0.000577593 2.78112e-06
5.42101e-20 0.0170241 0.000577593 3.54366e-06
5.42101e-20 -0.0169742 0.00175445 3.71244e-06
0 0.0169742 0.00175445 2.17012e-06
0 -0.0160456 0.00588233 8.50754e-07
0 0.0160456 0.00588233 9.63007e-07
5.16988e-26 0.0161246 0.00579484 9.29383e-07
-5.42101e-20 0.0168708 0.00304668 5.02469e-06
0 -0.0168708 0.00304668 9.77684e-06
0 -0.0164827 0.00476235 2.61735e-06
2.71051e-20 0.0164827 0.00476235 1.62103e-06
-1.54257e-20 -0.0163092 0.00559034 8.32997e-07
1.84616e-20 0.0163092 0.00559034 8.50788e-07
-1.1315e-20 0.0168571 0.00372694 6.21852e-06
1.65879e-20 -0.0168571 0.00372694 1.0826e-05
2.58494e-26 -0.0167491 0.00441197 8.03318e-06
-2.71051e-20 -0.0165194 0.0053648 7.94874e-07
0 0.0165194 0.0053648 6.13732e-07
1.85309e-20 0.0168293 0.00441207 5.38e-06
2.40008e-20 -0.0168293 0.00441207 8.76783e-06
0 -0.016393 0.00584515 8.81592e-07
2.71051e-20 0.016393 0.00584515 9.85611e-07
0 -0.016827 0.00448962 8.24655e-06
8.27181e-25 -0.0163955 0.00614428 9.83567e-07
5.16988e-26 0.0163955 0.00614428 1.06712e-06
0 0.0168096 0.00506989 2.91601e-06
-1.03398e-25 -0.0168096 0.00506989 4.34578e-06
-5.16988e-26 0.0165157 0.00601732 1.1368e-06
0 -0.0176231 3.56536e-08 4.05823e-06
0 0.0176231 3.04734e-08 4.77759e-06
-6.6684e-20 -0.0175916 0.00115889 5.82109e-06
-5.37006e-21 0.0175916 0.00115889 4.69816e-06
2.71051e-20 -0.0171737 0.004052 1.53393e-05
0 0.0171737 0.004052 9.34989e-06
3.30062e-20 -0.0175442 0.0023962 1.33181e-05
2.21337e-20 0.0175442 0.0023962 8.20604e-06
0 -0.0167746 0.00574376 1.55056e-06
2.21943e-21 0.0167746 0.00574376 1.28693e-06
0 0.0171404 0.0047287 6.88517e-06
0 -0.0171404 0.0047287 1.03912e-05
-2.71051e-20 -0.016705 0.00611265 1.08544e-06
5.42101e-20 0.016705 0.00611265 1.14853e-06
-3.86215e-20 -0.0174986 0.00354412 2.02395e-05
-1.86943e-22 0.0174986 0.00354412 1.30508e-05
0 -0.0167191 0.00643602 1.16638e-06
0 0.0167191 0.00643602 1.22897e-06
2.71051e-20 -0.0171168 0.00539052 4.00865e-06
0 0.0171168 0.00539052 2.82323e-06
-5.16988e-26 0.0168096 0.00634225 1.20046e-06
1.60699e-20 0.0174702 0.00438304 1.28603e-05
-2.37861e-20 -0.0174702 0.00438304 1.88399e-05
1.8995e-20 -0.0169667 0.00617943 1.18877e-06
1.63744e-20 0.0169667 0.00617943 1.15097e-06
2.58494e-26 -0.0174584 0.00475982 1.58587e-05
-2.00815e-20 0.0174493 0.00505023 9.79201e-06
0 -0.0174493 0.00505023 1.35609e-05
-2.71051e-20 -0.0171679 0.00597129 1.23495e-06
-2.71051e-20 0.0171679 0.00597129 9.89963e-07
0 0.0182005 0.000583389 6.02652e-06
5.42101e-20 -0.0182005 0.000583389 5.35085e-06
0 -0.017043 0.00643779 1.24728e-06
-2.71051e-20 0.017043 0.00643779 1.30936e-06
2.71051e-20 0.0177879 0.00403219 1.81251e-05
2.71051e-20 -0.0177879 0.00403219 2.63679e-05
0 -0.0181761 0.00178292 1.15429e-05
-5.42101e-20 0.0181761 0.00178292 7.06776e-06
0 -0.0170214 0.00674883 1.37067e-06
1.03398e-25 0.0170214 0.00674884 1.40466e-06
-1.03398e-25 -0.0174458 0.00568734 6.95751e-06
-7.15522e-21 0.0174458 0.00568734 5.18982e-06
0 -0.0177804 0.00470438 2.31465e-05
-2.71051e-20 0.0177804 0.00470438 1.70149e-05
0 0.0171893 0.0065776 1.67655e-06
-1.0842e-19 -0.0181642 0.00305697 2.85487e-05
0 0.0181642 0.00305697 1.87347e-05
-3.59712e-20 -0.0181317 0.00370155 3.20749e-05
-2.38352e-21 0.0181317 0.00370155 2.2864e-05
0 -0.01741 0.00635261 2.42926e-06
-2.47434e-20 0.01741 0.00635261 2.03379e-06
-2.71051e-20 -0.0177702 0.00535529 1.67245e-05
2.71051e-20 0.0177702 0.00535529 1.24738e-05
0 -0.0173274 0.00672747 1.49404e-06
-2.71051e-20 0.0173274 0.00672747 1.49994e-06
-1.67236e-20 0.0181076 0.00436205 2.36385e-05
-2.73936e-20 -0.0181076 0.00436205 3.15108e-05
-8.27181e-25 -0.0173238 0.00706119 1.60709e-06
1.03398e-25 0.0173238 0.00706119 1.61635e-06
0 -0.0177503 0.00600627 6.58214e-06
5.42101e-20 0.0177503 0.00600627 5.00417e-06
-1.29247e-26 -0.0180996 0.00490682 2.86485e-05
0 0.0174399 0.00694425 1.62239e-06
5.05914e-21 0.018098 0.00501826 2.20134e-05
0 -0.018098 0.00501826 2.8063e-05
0 -0.0187969 1.82661e-08 6.99663e-06
0 0.0187969 1.77561e-08 7.93968e-06
-4.61484e-20 -0.0187878 0.00116731 1.20427e-05
-2.05637e-21 0.0187878 0.00116731 1.00293e-05
2.91891e-20 -0.0175851 0.00679799 1.74722e-06
3.8302e-20 0.0175851 0.00679799 1.62994e-06
0 -0.0184432 0.00401963 3.95788e-05
-2.71051e-20 0.0184432 0.00401963 2.98092e-05
2.67345e-20 -0.0187844 0.00239453 2.77954e-05
5.1444e-20 0.0187844 0.00239453 2.01632e-05
0 -0.0180831 0.00566925 2.08785e-05
0 0.0180831 0.00566925 1.66607e-05
-2.71051e-20 -0.0177912 0.00658995 2.03897e-06
-2.71051e-20 0.0177912 0.00658995 1.65889e-06
-5.42101e-20 -0.0184158 0.00467993 3.67811e-05
0 0.0184158 0.00467993 2.94347e-05
0 -0.0176529 0.00706043 1.72016e-06
-2.71051e-20 0.0176529 0.00706043 1.73277e-06
-8.27181e-25 -0.0176264 0.00737367 1.89963e-06
0 0.0176264 0.00737367 1.87223e-06
0 -0.0180712 0.00630777 1.07635e-05
2.07358e-20 0.0180712 0.00630777 8.6566e-06
-2.71051e-20 0.0184261 0.0053197 2.88984e-05
0 -0.0184261 0.0053197 3.533e-05
1.7415e-20 0.0188515 0.00360143 3.3134e-05
-6.53944e-20 -0.0188515 0.00360143 4.30504e-05
-1.03398e-25 0.0177896 0.0072108 2.40173e-06
-9.43606e-22 0.0187497 0.00434473 3.40302e-05
-9.16475e-21 -0.0187497 0.00434473 4.2804e-05
-3.23117e-27 -0.0186678 0.00493689 4.08295e-05
0 -0.018025 0.00697581 3.73506e-06
2.75635e-20 0.018025 0.00697581 3.16567e-06
0 -0.0183967 0.00598007 2.51163e-05
2.71051e-20 0.0183967 0.00598007 2.04879e-05
-2.71051e-20 -0.0179363 0.0073519 2.07915e-06
0 0.0179363 0.0073519 2.01172e-06
1.0842e-19 0.0193896 0.000584898 9.86058e-06
0 -0.0193896 0.000584898 8.64904e-06
2.10979e-20 0.0188216 0.00491492 3.6955e-05
-2.24171e-20 -0.0188216 0.00491492 4.42757e-05
3.23117e-27 -0.0188105 0.00500153 4.37445e-05
0 -0.0193933 0.00177944 2.28572e-05
0 0.0193933 0.00177944 1.72518e-05
-8.27181e-25 -0.0179292 0.00768641 2.23111e-06
-5.16988e-26 0.0179292 0.00768641 2.17036e-06
0 -0.018369 0.00663164 1.03653e-05
-2.71051e-20 0.018369 0.00663164 8.32651e-06
0 0.018018 0.00759871 2.22153e-06
0 0.0187273 0.00564917 3.38581e-05
0 -0.0187273 0.00564917 3.97724e-05
5.42101e-20 -0.0194147 0.00301348 4.85708e-05
-5.42101e-20 0.0194147 0.00301348 3.782e-05
-7.96658e-21 -0.0181958 0.00742304 2.54878e-06
4.0231e-21 0.0181958 0.00742304 2.32405e-06
0 -0.0187015 0.00629873 2.92163e-05
5.7305e-21 0.0187015 0.00629873 2.49026e-05
5.42101e-20 -0.0184056 0.00721495 3.21089e-06
2.71051e-20 0.0184056 0.00721495 2.64465e-06
0 -0.0190533 0.0053245 5.22535e-05
-2.71051e-20 0.0190533 0.0053245 4.53022e-05
0 -0.0182616 0.0076859 2.38312e-06
-2.71051e-20 0.0182616 0.0076859 2.32902e-06
5.42101e-20 -0.0193893 0.0043251 5.77407e-05
5.42101e-20 0.0193893 0.0043251 4.83662e-05
0 -0.0182322 0.00799942 2.62804e-06
0 0.0182322 0.00799942 2.52332e-06
0 -0.0186894 0.00693288 1.57272e-05
2.37473e-21 0.0186894 0.00693288 1.32305e-05
0 -0.019034 0.00596484 4.60848e-05
-2.71051e-20 0.019034 0.00596484 4.04641e-05
8.27181e-25 0.0199808 6.14837e-09 1.24125e-05
0 -0.0199808 4.27519e-09 1.03155e-05
-1.03398e-25 0.0182874 0.00805643 2.60112e-06
5.16988e-26 0.0183784 0.0078561 3.32187e-06
-1.5369e-20 0.0193786 0.00498454 5.21358e-05
0 -0.0193786 0.00498454 6.00735e-05
-8.26023e-21 0.0199934 0.00116523 1.86005e-05
0 -0.0199934 0.00116523 1.97088e-05
3.23117e-27 -0.0193742 0.00516373 5.94776e-05
0 -0.018638 0.00760163 5.53774e-06
1.59468e-20 0.018638 0.00760163 4.73966e-06
0 -0.0190175 0.00660576 3.52255e-05
2.71051e-20 0.0190175 0.00660576 3.02995e-05
9.69352e-27 -0.0195185 0.00496401 6.3082e-05
4.15241e-20 0.0200103 0.00238385 3.70623e-05
-2.06795e-25 -0.0200103 0.00238385 4.46214e-05
-7.69502e-21 0.0193626 0.005634 5.12468e-05
-1.29247e-26 -0.0193626 0.005634 5.7914e-05
0 -0.0185453 0.00797801 2.87304e-06
0 0.0185453 0.00797801 2.71766e-06
0 -0.0185355 0.00831268 3.10085e-06
0 0.0185355 0.00831268 2.95084e-06
0 -0.0189879 0.00725654 1.55656e-05
0 0.0189879 0.00725654 1.29048e-05
0 -0.0193479 0.00627375 5.15954e-05
-3.41863e-21 0.0193479 0.00627375 4.61215e-05
-4.04108e-20 0.0200226 0.00365995 5.60119e-05
0 -0.0200226 0.00365995 6.64599e-05
2.71051e-20 -0.019693 0.00529521 6.88343e-05
5.42101e-20 0.019693 0.00529521 6.0804e-05
1.01073e-20 -0.0188066 0.00805004 3.66433e-06
3.06015e-20 0.0188066 0.00805004 3.30188e-06
2.58494e-26 -0.0200582 0.00425914 7.08934e-05
0 -0.0193268 0.00692069 3.93615e-05
-2.06824e-20 0.0193268 0.00692069 3.4912e-05
6.46235e-26 -0.0202009 0.00365717 7.02194e-05
8.13152e-20 0.0196676 0.00594439 5.82733e-05
-2.71051e-20 -0.0196676 0.00594439 6.43487e-05
0 -0.01902 0.00784265 4.83979e-06
0 0.01902 0.00784265 4.03416e-06
-1.0842e-19 0.0205868 0.000581102 1.49721e-05
0 -0.0205868 0.000581102 1.1987e-05
2.71051e-20 0.0188712 0.00831333 3.18409e-06
0 -0.0188712 0.00831333 3.32874e-06
-8.27181e-25 -0.0206659 -8.67383e-29 1.20616e-05
0 -0.020095 0.00487938 7.54826e-05
-2.59002e-20 0.020095 0.00487938 6.65848e-05
-5.42101e-20 -0.0206115 0.00176879 3.57412e-05
5.42101e-20 0.0206115 0.00176879 3.25883e-05
-8.27181e-25 -0.0188391 0.00862624 3.74228e-06
4.1359e-25 0.0188391 0.00862624 3.5231e-06
0 -0.0193074 0.00756039 2.17466e-05
-8.72417e-21 0.0193074 0.00756039 1.88637e-05
-5.42101e-20 -0.0196738 0.00657561 6.03277e-05
0 0.0196738 0.00657561 5.50627e-05
0 -0.0200001 0.00561439 7.24868e-05
-1.8239e-20 0.0200001 0.00561439 6.52327e-05
-1.0842e-19 -0.0206346 0.00301452 7.18331e-05
-5.42101e-20 0.0206346 0.00301452 6.10286e-05
2.71051e-20 -0.0196391 0.00723369 4.64292e-05
-5.42101e-20 0.0196391 0.00723369 4.15234e-05
-1.03398e-25 -0.0208001 0.00237353 5.61297e-05
0 -0.0192519 0.00823155 8.06019e-06
1.70922e-20 0.0192519 0.00823155 6.95943e-06
2.06795e-25 0.0209874 -3.1629e-29 1.68544e-05
1.03398e-25 0.0190407 0.00883427 4.09919e-06
-1.89013e-21 -0.0200715 0.00617586 7.2193e-05
8.56145e-22 0.0200715 0.00617586 6.63868e-05
-2.71051e-20 -0.0191557 0.00860727 4.15603e-06
0 0.0191557 0.00860727 3.86227e-06
2.06795e-25 -0.0210155 0.00115464 2.62882e-05
0 0.0205025 0.00489727 7.65288e-05
0 0.0206641 0.00428079 7.67472e-05
0 -0.0206641 0.00428079 8.75871e-05
0 -0.0191433 0.00894011 4.69025e-06
0 0.0191433 0.00894011 4.3923e-06
-2.71051e-20 0.0196055 0.00788712 1.87028e-05
-5.42101e-20 -0.0196055 0.00788712 2.20608e-05
0 -0.0199746 0.0069041 6.47232e-05
-1.03582e-20 0.0199746 0.0069041 5.98468e-05
0 -0.0211723 3.13997e-09 1.33525e-05
-4.1359e-25 0.0211723 1.10453e-09 1.76702e-05
-1.03398e-25 0.0211896 0.000614624 2.39414e-05
0 0.0193365 0.0087618 4.84821e-06
-2.95349e-20 0.0212048 0.00115268 2.94313e-05
1.03398e-25 -0.0212048 0.00115268 2.75067e-05
1.14027e-21 -0.0194188 0.0086858 5.63804e-06
-5.53963e-21 0.0194188 0.0086858 5.04253e-06
1.64023e-20 -0.0199446 0.00755308 4.96883e-05
9.42376e-21 0.0199446 0.00755308 4.53342e-05
-2.71051e-20 0.0203041 0.00658402 7.49427e-05
0 -0.0203041 0.00658402 7.98452e-05
0 -0.0212384 0.0023678 6.25158e-05
-6.83562e-20 0.0212384 0.0023678 5.72354e-05
0 -0.0206408 0.00559143 9.16397e-05
-5.42101e-20 0.0206408 0.00559143 8.38073e-05
2.71051e-20 -0.0196393 0.00847876 7.61765e-06
5.42101e-20 0.0196393 0.00847876 6.40127e-06
0 -0.0213821 0.00114695 2.84777e-05
-1.29247e-26 0.021122 0.00364282 7.9062e-05
-5.42101e-20 -0.0194792 0.0089564 5.22483e-06
2.71051e-20 0.0194792 0.0089564 4.92267e-06
8.27181e-25 -0.0194172 0.00928185 5.99001e-06
0 0.0194172 0.00928186 5.59777e-06
0 0.0202831 0.00722169 6.74229e-05
-5.42101e-20 -0.0202831 0.00722169 7.18562e-05
0 0.0212641 0.00347768 7.89367e-05
-1.20303e-20 -0.0199297 0.00819016 2.9576e-05
1.91203e-20 0.0199297 0.00819016 2.62202e-05
1.7845e-20 -0.0206294 0.00624638 9.00418e-05
-3.229e-20 0.0206294 0.00624638 8.41455e-05
1.03398e-25 -0.0212679 0.00364055 9.2713e-05
0 0.0212679 0.00364055 8.21214e-05
0 0.0213063 0.00363886 8.2956e-05
0 -0.0215078 0.0023544 6.62192e-05
0 0.0196764 0.00905423 8.85548e-06
-2.71051e-20 -0.0202625 0.00786089 5.80728e-05
-2.71051e-20 0.0202625 0.00786089 5.33987e-05
-2.73107e-20 -0.0206173 0.00689381 8.58938e-05
5.89019e-21 0.0206173 0.00689381 8.10008e-05
0 -0.0198766 0.00887843 1.29521e-05
1.67495e-20 0.0198766 0.00887843 1.13715e-05
0 0.0217896 0.000568406 2.03748e-05
0 -0.0217896 0.000568406 1.47214e-05
5.16988e-26 -0.0212798 0.00493138 0.000105145
0 0.0212798 0.00493138 9.54943e-05
0 -0.0197714 0.0092976 6.75595e-06
0 0.0197714 0.0092976 6.27353e-06
0 -0.019669 0.00964181 5.057e-06
5.16988e-26 0.019669 0.00964181 4.72938e-06
-5.42101e-20 -0.0218374 0.00173743 4.81186e-05
0 0.0218374 0.00173743 5.02382e-05
0 0.0213545 0.00492921 9.72732e-05
0 -0.0205995 0.0075318 7.72029e-05
-3.02247e-21 0.0205995 0.0075318 7.27069e-05
0 -0.0209456 0.00655441 9.87676e-05
0 0.0209456 0.00655441 9.30651e-05
0 -0.0202362 0.00851518 3.27678e-05
0 0.0202362 0.00851518 2.84265e-05
-5.16988e-26 0.0197055 0.00969373 4.54901e-06
5.16988e-26 0.0198086 0.00958128 5.3394e-06
2.06795e-25 -0.0217318 0.00362008 0.000102234
-3.23117e-27 0.0213228 0.0057226 9.93406e-05
5.42101e-20 -0.021882 0.00297573 9.49106e-05
-1.0842e-19 0.021882 0.00297573 8.55106e-05
3.05121e-20 -0.0205755 0.00817149 6.22289e-05
-9.98769e-22 0.0205755 0.00817149 5.79213e-05
2.71051e-20 0.0209362 0.00721472 8.84669e-05
0 -0.0209362 0.00721472 9.30045e-05
0 0.0199576 0.00972223 3.18369e-06
-5.42101e-20 -0.0199576 0.00972223 3.35638e-06
-1.37436e-20 -0.0200954 0.00945691 7.3748e-06
-4.25541e-20 0.0200954 0.00945691 6.59272e-06
-2.49588e-20 -0.0213454 0.00613817 0.00010803
2.49163e-21 0.0213454 0.00613817 0.000101361
-2.71051e-20 -0.0202913 0.0091201 1.47695e-05
0 0.0202913 0.0091201 1.2845e-05
-2.58494e-26 -0.0217282 0.00491835 0.00011575
0 -0.0199226 0.0100021 3.6564e-06
0 0.0199226 0.0100021 3.47782e-06
5.42101e-20 -0.0219071 0.00426287 0.000116614
5.42101e-20 0.0219071 0.00426287 0.000105305
2.9131e-20 0.0212536 0.00687047 9.70585e-05
-3.49627e-20 -0.0212536 0.00687047 0.000102184
0 -0.0209198 0.00783 8.52047e-05
2.71051e-20 0.0209198 0.00783 8.08543e-05
0 -0.0223699 3.49605e-09 1.55392e-05
0 0.0223699 1.39782e-09 2.22313e-05
0 0.0223813 0.000230613 2.59869e-05
0 -0.0205825 0.00880038 4.45706e-05
1.64359e-20 0.0205825 0.00880038 4.09286e-05
3.23117e-26 -0.0215265 0.00614657 0.000112783
-4.1359e-25 -0.0223966 0.0005407 2.45965e-05
1.65436e-24 0.0224376 -1.23154e-35 2.23288e-05
-8.20067e-21 -0.0201854 0.00982489 4.21519e-06
-3.54261e-21 0.0201854 0.00982489 3.87703e-06
5.66486e-20 0.0224248 0.00111326 4.03607e-05
0 -0.0224248 0.00111325 3.41873e-05
1.65436e-24 -0.0225349 -1.12606e-35 1.56571e-05
5.42101e-20 -0.0208973 0.00847326 7.22493e-05
-5.42101e-20 0.0208973 0.00847326 6.83781e-05
-2.71051e-20 -0.020392 0.00967037 5.34711e-06
2.71051e-20 0.020392 0.00967037 4.68548e-06
-2.71051e-20 0.0202271 0.0100702 3.77224e-06
2.71051e-20 -0.0202271 0.0100702 3.95672e-06
-6.73962e-20 0.0224885 0.00230562 7.87844e-05
0 -0.0224885 0.00230562 7.96975e-05
5.42101e-20 0.0219242 0.0055407 0.000115933
0 -0.0219242 0.0055407 0.000124557
2.06795e-25 -0.0206219 0.00940243 2.58799e-05
-7.34991e-21 0.0206219 0.00940243 2.34281e-05
0 -0.0201769 0.0103635 4.42702e-06
-4.1359e-25 0.0201769 0.0103635 4.2276e-06
-3.84193e-20 0.0214053 0.00750768 9.59275e-05
0 -0.0214053 0.00750768 0.000100176
3.98165e-20 -0.0212331 0.0081501 8.67781e-05
4.29467e-21 0.0212331 0.0081501 8.29716e-05
0 0.0225307 0.00358482 0.000109579
-9.37981e-21 -0.0225307 0.00358482 0.000118628
-2.71051e-20 -0.0209306 0.009079 5.914e-05
0 0.0209306 0.00907901 5.46751e-05
-1.38499e-20 -0.0205788 0.0100354 9.91785e-06
1.79126e-20 0.0205788 0.0100354 8.95226e-06
0 0.0218832 0.00683353 0.00011744
-5.42101e-20 -0.0218832 0.00683353 0.00012254
0 0.0203459 0.0106036 5.03217e-06
2.71051e-20 -0.02047 0.0103922 4.89768e-06
0 0.02047 0.0103922 4.6833e-06
-5.42101e-20 -0.0229944 0.000536085 1.6359e-05
-5.42101e-20 0.0229944 0.000536085 2.40922e-05
0 -0.0213123 0.00869943 8.03238e-05
-2.74605e-20 0.0213123 0.00869943 7.68927e-05
0 -0.020909 0.00972034 2.74204e-05
-2.71051e-20 0.020909 0.00972035 2.44033e-05
-5.34479e-20 0.0225437 0.00489464 0.000125585
0 -0.0225437 0.00489464 0.000135036
0 -0.0204318 0.0107257 5.67812e-06
0 0.0204318 0.0107257 5.44136e-06
-6.46235e-27 -0.0218584 0.00749591 0.000114524
0 -0.0230802 0.00165832 5.84109e-05
-1.0842e-19 0.0230802 0.00165832 6.75394e-05
0 0.0205952 0.0105898 6.10775e-06
-1.03398e-25 -0.0212246 0.00940472 6.22857e-05
1.97944e-20 0.0212246 0.00940473 5.90966e-05
3.10635e-20 -0.0207156 0.0104897 7.08734e-06
7.316e-21 0.0207156 0.0104897 6.59873e-06
0 -0.0209353 0.0102994 1.00126e-05
2.71051e-20 0.0209354 0.0102994 9.00376e-06
0 -0.0231589 0.00287977 0.000118125
0 0.0231589 0.00287977 0.000112405
0 0.0218885 0.00814494 0.000110205
5.42101e-20 -0.0218885 0.00814494 0.000112994
5.16988e-26 0.0206183 0.0109908 6.70058e-06
-2.25397e-20 0.0225301 0.00619313 0.000132397
-2.71334e-20 -0.0225301 0.00619313 0.000139122