# omega  POINT_DATA 25996
# x  y  z  omega
2.61744e-27 0.01 1.50345e-07 955.268
0 -0.01 8.31199e-08 955.266
0 0.01 0.00067832 1086.73
0 -0.01 0.00067832 1086.73
-9.04729e-26 -0.0100182 0.00067694 1076.76
0 0.01 0.00137372 1329.84
2.06795e-25 -0.01 0.00137372 1329.84
4.1359e-25 -0.0100737 0.00135823 1250.95
0 0.01 0.002087 1185.48
0 -0.01 0.002087 1185.47
0 -0.0102613 0.000329046 955.264
0 0.0102613 0.000329046 955.266
2.71051e-20 -0.0102561 0.000988366 1220.01
2.71051e-20 0.0102561 0.000988366 1220.01
-5.42101e-20 -0.0102356 0.00161953 1441.24
0 0.0102356 0.00161953 1441.24
2.06795e-25 -0.0105293 8.82103e-08 882.402
0 0.0105293 8.68458e-08 882.408
1.03398e-25 -0.0105285 0.000201258 855.792
-7.12244e-21 0.0105268 0.000638363 797.973
3.59989e-21 -0.0105268 0.000638363 797.973
-8.27181e-25 0.0105159 0.00126532 777.88
-1.77927e-21 -0.0105159 0.0012653 777.888
-9.92948e-21 0.0105028 0.0017228 901.418
5.43127e-21 -0.0105028 0.0017228 901.424
0 -0.010496 0.00202291 958.563
2.71051e-20 0.010496 0.00202291 958.566
0 0.0104977 0.00235078 1134.7
0 -0.0104977 0.00235077 1134.69
5.42101e-20 -0.0108033 0.000314595 808.566
-2.71051e-20 0.0108033 0.000314595 808.576
2.71051e-20 -0.0108031 0.00093799 230.276
0 0.0108031 0.00093799 230.258
2.71051e-20 0.01079 0.00152732 244.726
2.71051e-20 -0.01079 0.00152732 244.749
0 -0.0110754 5.97384e-09 833.359
1.03398e-25 0.0110754 5.13922e-09 833.37
0 -0.0110786 0.00014364 759.081
1.97448e-21 -0.0110889 0.000613666 516.022
0 0.0110889 0.000613665 516.054
0 -0.0108991 0.00228385 1309.4
0 0.0108991 0.00228385 1309.41
7.04758e-22 -0.010988 0.00190081 597.169
3.30872e-24 0.010988 0.00190078 597.188
-2.26962e-20 -0.0110831 0.00123266 185.381
0 0.0110831 0.00123266 185.424
0 0.0111876 4.08628e-09 844.926
-6.61744e-24 0.0109863 0.00260985 1565.48
0 -0.0109863 0.00260985 1565.48
2.71051e-20 0.0113733 0.000305239 858.675
2.71051e-20 -0.0113733 0.000305239 858.662
0 -0.0113913 0.000918847 152.814
0 0.0113913 0.000918847 152.938
1.7748e-20 -0.0112123 0.00231934 1147.99
8.8012e-21 0.0112123 0.00231934 1148
5.42101e-20 -0.0113682 0.00155884 109.863
5.42101e-20 0.0113682 0.00155884 109.957
0 -0.0115296 2.63527e-09 880.14
2.71051e-20 0.0114039 0.00209577 296.498
0 -0.0114039 0.00209577 296.474
2.71051e-20 -0.0113392 0.00255892 1818.01
2.71051e-20 0.0113392 0.00255892 1818.01
0 0.0116471 4.41185e-09 892.255
-5.16988e-26 -0.0116471 2.49118e-09 892.241
-2.06795e-25 0.0116702 0.000351062 678.083
3.72537e-20 -0.0116865 0.00059805 527.321
-2.06795e-25 0.0116865 0.000598047 527.405
4.3609e-21 -0.0117045 0.00122297 122.333
1.65436e-24 0.0117045 0.00122299 122.432
6.61744e-24 0.0114599 0.00285977 1336.74
0 -0.0114598 0.00285975 1336.74
1.83634e-21 -0.0117133 0.00184588 161.512
0 0.0117133 0.00184591 161.545
-1.76057e-20 -0.0116596 0.00239949 809.711
-3.30872e-24 0.0116596 0.00239949 809.727
0 0.0119676 0.000293859 926.457
0 -0.0119676 0.000293859 926.442
0 0.0120131 0.000895955 150.95
-2.71051e-20 -0.0120131 0.000895955 150.761
0 0.0120421 0.000581293 566.402
-2.71051e-20 0.0120433 0.00152444 74.5349
-2.71051e-20 -0.0120433 0.00152444 74.5477
2.71051e-20 0.0118604 0.00273056 863.473
2.71051e-20 -0.0118604 0.00273056 863.463
0 0.0120387 0.00217273 152.53
2.71051e-20 -0.0120387 0.00217273 152.502
8.27181e-25 -0.0122418 3.82985e-09 1013.69
0 0.0122418 1.65827e-09 1013.71
0 0.0119119 0.00310459 995.36
6.61744e-24 -0.0119119 0.00310459 995.349
-2.00839e-20 -0.0123043 0.000568948 595.061
-2.06795e-25 0.0123043 0.000568944 595.151
-2.06795e-25 0.0123214 0.000756605 447.913
-7.91281e-21 -0.01236 0.00118123 115.023
0 0.01236 0.00118124 114.749
-8.09148e-21 -0.0123814 0.00184432 91.7355
0 0.0123814 0.00184434 90.8994
-5.42101e-20 -0.0125711 0.000269457 1101.82
2.71051e-20 0.0125711 0.000269457 1101.84
-5.29396e-21 -0.0123374 0.00258488 517.852
3.30872e-24 0.0123374 0.00258488 517.543
-2.71051e-20 0.0122817 0.00299995 1125.14
0 -0.0122817 0.00299995 1125.13
0 0.0126475 0.000839062 171.136
-2.71051e-20 -0.0126475 0.000839062 170.997
0 0.0126468 0.00113831 124.581
0 0.0123472 0.00333734 1333.08
0 -0.0123472 0.00333734 1333.07
5.42101e-20 -0.0127108 0.0014705 62.0983
2.71051e-20 0.0127108 0.0014705 60.6852
1.65436e-24 -0.0128491 7.12675e-09 1391.27
8.27181e-25 0.0128491 4.23759e-09 1391.29
2.71051e-20 -0.0127172 0.00217074 77.1643
-5.42101e-20 0.0127172 0.00217074 75.1979
-1.65436e-24 -0.0129129 0.000505059 820.091
-2.11725e-20 0.0129129 0.000505054 820.193
-1.28974e-20 -0.0125922 0.00303079 987.203
4.44361e-21 0.0125922 0.00303079 987.274
0 -0.0130203 0.00108239 137.57
2.42318e-20 0.0130203 0.0010824 137.387
-5.42101e-20 -0.012793 0.00278388 252.218
2.71051e-20 0.012793 0.00278388 252.414
2.71051e-20 -0.0127108 0.00327268 1538.21
0 0.0127108 0.00327268 1538.22
-2.71051e-20 0.0131383 0.000218118 1681.55
2.71051e-20 -0.0131383 0.000218118 1681.54
-5.94536e-25 0.013056 0.00176705 62.7932
-1.31298e-20 -0.013073 0.00176509 62.8831
-1.87748e-20 0.013073 0.0017651 62.0834
-1.80946e-25 0.0130744 0.00183568 68.4362
0 0.0127674 0.00356123 1703.44
1.65436e-24 -0.0127674 0.00356123 1703.43
2.71051e-20 0.0132689 0.000719694 244.141
-2.71051e-20 -0.0132689 0.000719694 243.895
1.21207e-20 -0.0130872 0.00246808 125.709
0 0.0130872 0.00246808 125.355
2.21701e-20 -0.0133747 0.000406314 949.203
2.34258e-21 0.0133747 0.000406312 949.295
-3.30872e-24 -0.0134599 1.0582e-08 1284.26
1.65436e-24 0.0134599 2.11051e-13 1284.28
-6.2357e-21 -0.0130916 0.00314268 885.041
0 0.0130916 0.00314268 885.194
-2.71051e-20 0.0134186 0.00131377 65.4865
2.71051e-20 -0.0134186 0.00131377 65.2731
2.06795e-25 0.0132913 0.0024518 107.144
0 -0.013075 0.00349045 1867
0 0.013075 0.00349045 1867.01
-5.42101e-20 0.0134232 0.00207248 48.7361
0 -0.0134232 0.00207248 48.7498
0 0.0131937 0.00330463 1189.94
4.1359e-25 -0.0132125 0.00333444 1245.9
0 0.0132924 0.0031228 675.331
-2.71051e-20 -0.0136984 0.000300344 886.883
2.71051e-20 0.0136984 0.000300344 886.905
0 0.013418 0.00277569 112.32
2.71051e-20 -0.013418 0.00277569 111.992
0 0.0131762 0.0037788 2211.49
-2.06795e-25 -0.0131762 0.0037788 2211.49
0 0.0132264 0.00369882 2019.86
3.10193e-25 -0.0132277 0.00369682 2015.04
2.06795e-25 -0.0133956 0.00311258 567.658
1.15805e-21 -0.0137612 0.000786141 359.449
8.72676e-21 0.0137612 0.000786141 359.572
4.13053e-21 0.0133341 0.00352736 1609.04
-4.1359e-25 -0.0133341 0.00352736 1608.95
0 -0.0132744 0.00383809 2115.29
-6.20385e-25 0.0132765 0.00383936 2113.24
4.57596e-21 -0.0137678 0.00165537 58.9805
-2.12387e-20 0.0137678 0.00165537 59.0769
2.71051e-20 0.013482 0.00331696 394.672
-2.71051e-20 -0.013482 0.00331696 394.406
5.4139e-21 0.0137484 0.00241532 66.3509
5.37523e-21 -0.0137484 0.00241533 66.2891
0 0.013458 0.00374223 2553.66
2.71051e-20 -0.013458 0.00374223 2553.66
0 -0.0137485 0.00262036 107.351
0 -0.014071 -1.61664e-15 673.216
3.30872e-24 0.014071 3.57887e-08 673.246
-1.47759e-20 0.0137488 0.00307762 198.342
0 -0.0137488 0.00307762 198.928
0 -0.0135651 0.00401367 1830.41
0 0.0135651 0.00401367 1830.42
5.42101e-20 0.0141231 0.00120897 83.5933
2.71051e-20 -0.0141231 0.00120897 83.4959
1.82071e-20 0.0137164 0.00361035 1120.52
0 -0.0137164 0.00361036 1121.13
0 -0.014089 0.00201377 40.5249
2.71051e-20 0.014089 0.00201377 40.6055
0 0.0142657 0.000418225 457.434
0 -0.0142657 0.000418225 457.4
0 -0.014069 0.0027392 63.1252
0 0.014069 0.0027392 62.9899
-2.71051e-20 -0.0138967 0.00392747 1110.06
-2.71051e-20 0.0138967 0.00392747 1110.08
-2.71051e-20 -0.0140496 0.00340311 193.604
-2.71051e-20 0.0140496 0.00340311 190.706
-2.1333e-20 0.014441 0.00161389 60.4816
-2.65045e-20 -0.014441 0.0016139 61.0918
-7.79535e-21 -0.0145429 0.00082339 252.706
-1.21033e-20 0.0145429 0.000823384 252.17
0 -0.0139237 0.00428406 1215.03
0 0.0139237 0.00428406 1215.05
9.42241e-21 0.014397 0.00237993 45.2911
5.73815e-21 -0.014397 0.00237994 45.4749
2.06795e-25 -0.0143814 0.00273275 71.81
-2.07705e-21 0.0143653 0.00309538 97.6773
4.1359e-25 -0.0143653 0.00309537 98.8774
-6.61744e-24 -0.0147021 5.44306e-08 415.145
0 0.0147022 5.71061e-08 415.192
1.68976e-20 0.014305 0.00382188 628.977
0 -0.014305 0.00382189 631.926
-2.71051e-20 -0.0142451 0.00421792 1319.78
2.71051e-20 0.0142451 0.00421792 1319.79
2.71051e-20 0.0147298 0.00200539 36.8247
2.71051e-20 -0.0147298 0.00200539 37.216
0 0.0148165 0.00124392 81.7014
0 -0.0148165 0.00124392 83.9361
2.71051e-20 0.014711 0.00272495 40.8228
0 -0.014711 0.00272495 41.1146
2.71051e-20 0.0149558 0.000461599 375.575
0 -0.0149558 0.000461599 375.518
0 0.0142802 0.00455258 1459.83
0 -0.0142802 0.00455258 1459.82
0 0.0146561 0.00344874 89.888
2.71051e-20 -0.0146561 0.00344874 91.2526
-1.7882e-20 0.014516 0.0042716 1076.64
-2.24844e-20 -0.014516 0.0042716 1080.17
1.77645e-20 -0.0150862 0.00165186 57.0541
9.9758e-21 0.0150862 0.00165186 55.868
-2.71051e-20 0.014707 0.0040482 281.006
-2.71051e-20 -0.014707 0.0040482 291.872
-1.42904e-20 0.0151175 0.00230445 38.4975
1.08692e-20 -0.0151175 0.00230447 38.9623
-2.71051e-20 0.0146108 0.00452168 1599.71
0 -0.0146108 0.00452168 1599.69
0 -0.0149985 0.00306489 54.0927
-3.06884e-21 0.0149933 0.00309785 53.9889
5.16988e-26 -0.0149933 0.00309786 54.7486
-3.51386e-21 -0.0153398 0.000978662 205.077
-1.16533e-20 0.0153398 0.00097866 204.277
0 -0.0153748 1.33307e-07 345.27
0 0.015375 6.62672e-08 345.335
1.55096e-25 -0.0150755 0.00309569 52.7904
4.1359e-25 0.0146354 0.00482017 1693.35
-4.1359e-25 -0.0146354 0.00482017 1693.34
1.11578e-20 0.0149803 0.0037633 138.901
-2.90539e-20 -0.0149803 0.0037633 142.986
-2.71051e-20 -0.0153272 0.00275021 35.2047
0 0.0153272 0.00275021 34.6817
2.20005e-20 0.0149658 0.00441692 873.604
-3.37912e-20 -0.0149658 0.00441693 879.021
2.71051e-20 -0.014927 0.00477487 1786.92
2.71051e-20 0.014927 0.00477488 1786.93
0 -0.0152999 0.00342237 52.2703
-2.71051e-20 0.0152999 0.00342237 51.3991
0 -0.015716 0.00173426 45.4216
0 0.015716 0.00173426 44.6575
0 -0.0152841 0.00407715 121.428
0 0.0152841 0.00407715 118.847
0 -0.0149898 0.00508707 1964.5
-2.06795e-25 0.0149898 0.00508707 1964.5
1.30099e-20 0.0156647 0.00240044 36.113
9.03612e-21 -0.0156647 0.00240044 36.8039
0 -0.0158728 0.000521005 294.851
-1.0842e-19 0.0158728 0.000521006 294.928
1.33131e-20 0.0151702 0.00482145 1437.38
-1.14883e-20 -0.0151702 0.00482145 1442.16
2.9953e-20 0.015623 0.00308126 38.9611
-4.1359e-25 -0.015623 0.00308126 39.7485
0 -0.015609 0.00353007 59.5208
0 -0.0153271 0.00461022 379.109
0 0.0153271 0.00461022 364.573
3.03406e-20 0.0156022 0.00374982 67.7985
0 -0.0156022 0.00374982 69.2021
2.71051e-20 -0.015269 0.00505544 2141.89
0 0.015269 0.00505544 2141.89
2.71051e-20 -0.0159605 0.00272816 33.2776
-2.71051e-20 0.0159605 0.00272816 32.474
-3.10453e-20 0.0155971 0.0043751 188.361
0 -0.0155971 0.0043751 193.588
-9.04729e-26 0.0153268 0.0053409 1558.21
0 -0.0153431 0.00535318 1538.54
0 0.0153431 0.00535318 1538.55
-6.46235e-27 0.015348 0.00534205 1523.52
2.71051e-20 -0.0159183 0.00340547 38.4416
2.71051e-20 0.0159183 0.00340547 37.4869
-4.3944e-21 -0.0155359 0.00491577 951.947
-7.05089e-21 0.0155359 0.00491577 948.09
-1.03398e-25 -0.0159116 0.00370605 59.0703
-2.71051e-20 -0.0159245 0.00405169 64.7429
-2.71051e-20 0.0159245 0.00405169 63.5271
-7.47771e-20 -0.0163948 0.00113363 159.772
-1.71193e-20 0.0163948 0.00113363 160.055
0 -0.0164795 5.84737e-08 267.224
1.32349e-23 0.0164797 5.63528e-08 267.308
6.27251e-21 0.0162478 0.00305838 33.8791
-8.39919e-21 -0.0162478 0.00305839 34.6605
-1.02024e-20 -0.016378 0.00230527 38.8687
5.52507e-20 0.016378 0.00230524 38.7059
2.71051e-20 0.0156904 0.00524875 935.954
0 -0.0156904 0.00524875 935.938
5.42101e-20 0.0158759 0.00471202 180.539
5.42101e-20 -0.0158759 0.00471202 181.802
0 -0.0156951 0.00561829 1044.14
0 0.0156951 0.00561829 1044.15
-1.10569e-20 0.0163084 0.00364992 45.068
2.06795e-25 -0.0163084 0.00364992 46.08
5.16988e-26 0.0158074 0.0054888 911.099
-1.03398e-25 -0.0162362 0.0041525 78.9826
-3.77401e-22 0.016199 0.00441125 94.7699
0 -0.016199 0.00441125 95.9225
0 -0.0161146 0.00513441 547.633
9.51919e-21 0.0161146 0.00513441 546.97
2.71051e-20 0.016031 0.0055414 1152.2
-2.71051e-20 -0.016031 0.0055414 1152.19
-2.71051e-20 0.0165301 0.00408038 44.2377
0 -0.0165301 0.00408038 45.4221
0 -0.0170241 0.000577593 240.137
5.42101e-20 0.0170241 0.000577593 240.227
5.42101e-20 -0.0169742 0.00175445 48.5657
0 0.0169742 0.00175445 50.2598
0 -0.0160456 0.00588233 1282.53
0 0.0160456 0.00588233 1282.54
5.16988e-26 0.0161246 0.00579484 1184.93
-5.42101e-20 0.0168708 0.00304668 30.6283
0 -0.0168708 0.00304668 31.1037
0 -0.0164827 0.00476235 89.6225
2.71051e-20 0.0164827 0.00476235 88.6755
-1.54257e-20 -0.0163092 0.00559034 957.166
1.84616e-20 0.0163092 0.00559034 956.77
-1.1315e-20 0.0168571 0.00372694 37.1327
1.65879e-20 -0.0168571 0.00372694 38.1085
2.58494e-26 -0.0167491 0.00441197 61.1837
-2.71051e-20 -0.0165194 0.0053648 268.408
0 0.0165194 0.0053648 267.149
1.85309e-20 0.0168293 0.00441207 54.8317
2.40008e-20 -0.0168293 0.00441207 56.1203
0 -0.016393 0.00584515 1412.7
2.71051e-20 0.016393 0.00584515 1412.71
0 -0.016827 0.00448962 65.2338
8.27181e-25 -0.0163955 0.00614428 1457.66
5.16988e-26 0.0163955 0.00614428 1457.67
0 0.0168096 0.00506989 132.197
-1.03398e-25 -0.0168096 0.00506989 133.431
-5.16988e-26 0.0165157 0.00601732 1235.96
0 -0.0176231 3.56536e-08 237.938
0 0.0176231 3.04734e-08 238.021
-6.6684e-20 -0.0175916 0.00115889 144.8
-5.37006e-21 0.0175916 0.00115889 145.925
2.71051e-20 -0.0171737 0.004052 35.2637
0 0.0171737 0.004052 34.192
3.30062e-20 -0.0175442 0.0023962 39.7222
2.21337e-20 0.0175442 0.0023962 40.8391
0 -0.0167746 0.00574376 758.978
2.21943e-21 0.0167746 0.00574376 758.259
0 0.0171404 0.0047287 53.2059
0 -0.0171404 0.0047287 55.1188
-2.71051e-20 -0.016705 0.00611265 1502.58
5.42101e-20 0.016705 0.00611265 1502.58
-3.86215e-20 -0.0174986 0.00354412 31.5928
-1.86943e-22 0.0174986 0.00354412 31.2062
0 -0.0167191 0.00643602 1496.6
0 0.0167191 0.00643602 1496.6
2.71051e-20 -0.0171168 0.00539052 110.35
0 0.0171168 0.00539052 109.503
-5.16988e-26 0.0168096 0.00634225 1354.39
1.60699e-20 0.0174702 0.00438304 39.0611
-2.37861e-20 -0.0174702 0.00438304 40.1389
1.8995e-20 -0.0169667 0.00617943 1108.01
1.63744e-20 0.0169667 0.00617943 1107.47
2.58494e-26 -0.0174584 0.00475982 55.1468
-2.00815e-20 0.0174493 0.00505023 65.4111
0 -0.0174493 0.00505023 66.7141
-2.71051e-20 -0.0171679 0.00597129 306.045
-2.71051e-20 0.0171679 0.00597129 304.373
0 0.0182005 0.000583389 235.788
5.42101e-20 -0.0182005 0.000583389 235.713
0 -0.017043 0.00643779 1490.62
-2.71051e-20 0.017043 0.00643779 1490.62
2.71051e-20 0.0177879 0.00403219 30.2345
2.71051e-20 -0.0177879 0.00403219 30.445
0 -0.0181761 0.00178292 50.1989
-5.42101e-20 0.0181761 0.00178292 52.8881
0 -0.0170214 0.00674883 1471.69
1.03398e-25 0.0170214 0.00674884 1471.69
-1.03398e-25 -0.0174458 0.00568734 152.425
-7.15522e-21 0.0174458 0.00568734 151.372
0 -0.0177804 0.00470438 40.2096
-2.71051e-20 0.0177804 0.00470438 39.0802
0 0.0171893 0.0065776 1169.03
-1.0842e-19 -0.0181642 0.00305697 28.302
0 0.0181642 0.00305697 28.7747
-3.59712e-20 -0.0181317 0.00370155 28.8341
-2.38352e-21 0.0181317 0.00370155 28.993
0 -0.01741 0.00635261 772.028
-2.47434e-20 0.01741 0.00635261 771.373
-2.71051e-20 -0.0177702 0.00535529 61.8316
2.71051e-20 0.0177702 0.00535529 60.5362
0 -0.0173274 0.00672747 1452.76
-2.71051e-20 0.0173274 0.00672747 1452.76
-1.67236e-20 0.0181076 0.00436205 32.1564
-2.73936e-20 -0.0181076 0.00436205 32.3574
-8.27181e-25 -0.0173238 0.00706119 1438.89
1.03398e-25 0.0173238 0.00706119 1438.89
0 -0.0177503 0.00600627 117.613
5.42101e-20 0.0177503 0.00600627 117.252
-1.29247e-26 -0.0180996 0.00490682 41.5887
0 0.0174399 0.00694425 1274.35
5.05914e-21 0.018098 0.00501826 42.9303
0 -0.018098 0.00501826 43.477
0 -0.0187969 1.82661e-08 235.313
0 0.0187969 1.77561e-08 235.417
-4.61484e-20 -0.0187878 0.00116731 144.538
-2.05637e-21 0.0187878 0.00116731 146.036
2.91891e-20 -0.0175851 0.00679799 1069
3.8302e-20 0.0175851 0.00679799 1068.55
0 -0.0184432 0.00401963 27.6244
-2.71051e-20 0.0184432 0.00401963 27.9468
2.67345e-20 -0.0187844 0.00239453 39.9685
5.1444e-20 0.0187844 0.00239453 41.8283
0 -0.0180831 0.00566925 71.1774
0 0.0180831 0.00566925 70.6927
-2.71051e-20 -0.0177912 0.00658995 300.667
-2.71051e-20 0.0177912 0.00658995 299.279
-5.42101e-20 -0.0184158 0.00467993 31.3056
0 0.0184158 0.00467993 31.4945
0 -0.0176529 0.00706043 1425.02
-2.71051e-20 0.0176529 0.00706043 1425.02
-8.27181e-25 -0.0176264 0.00737367 1419.9
0 0.0176264 0.00737367 1419.89
0 -0.0180712 0.00630777 153.745
2.07358e-20 0.0180712 0.00630777 153.158
-2.71051e-20 0.0184261 0.0053197 40.9975
0 -0.0184261 0.0053197 40.9639
1.7415e-20 0.0188515 0.00360143 27.9152
-6.53944e-20 -0.0188515 0.00360143 27.2782
-1.03398e-25 0.0177896 0.0072108 1144.24
-9.43606e-22 0.0187497 0.00434473 28.7682
-9.16475e-21 -0.0187497 0.00434473 28.3642
-3.23117e-27 -0.0186678 0.00493689 34.9793
0 -0.018025 0.00697581 747.072
2.75635e-20 0.018025 0.00697581 746.538
0 -0.0183967 0.00598007 64.5276
2.71051e-20 0.0183967 0.00598007 64.2477
-2.71051e-20 -0.0179363 0.0073519 1414.78
0 0.0179363 0.0073519 1414.76
1.0842e-19 0.0193896 0.000584898 235.043
0 -0.0193896 0.000584898 234.911
2.10979e-20 0.0188216 0.00491492 33.1489
-2.24171e-20 -0.0188216 0.00491492 32.6853
3.23117e-27 -0.0188105 0.00500153 34.0951
0 -0.0193933 0.00177944 52.8751
0 0.0193933 0.00177944 56.0386
-8.27181e-25 -0.0179292 0.00768641 1406.61
-5.16988e-26 0.0179292 0.00768641 1406.6
0 -0.018369 0.00663164 119.391
-2.71051e-20 0.018369 0.00663164 119.132
0 0.018018 0.00759871 1286.8
0 0.0187273 0.00564917 45.0724
0 -0.0187273 0.00564917 44.6371
5.42101e-20 -0.0194147 0.00301348 27.9516
-5.42101e-20 0.0194147 0.00301348 29.0095
-7.96658e-21 -0.0181958 0.00742304 1047.18
4.0231e-21 0.0181958 0.00742304 1046.81
0 -0.0187015 0.00629873 72.6386
5.7305e-21 0.0187015 0.00629873 73.0047
5.42101e-20 -0.0184056 0.00721495 298.512
2.71051e-20 0.0184056 0.00721495 297.396
0 -0.0190533 0.0053245 31.0672
-2.71051e-20 0.0190533 0.0053245 31.9538
0 -0.0182616 0.0076859 1398.45
-2.71051e-20 0.0182616 0.0076859 1398.44
5.42101e-20 -0.0193893 0.0043251 24.9355
5.42101e-20 0.0193893 0.0043251 25.817
0 -0.0182322 0.00799942 1394.64
0 0.0182322 0.00799942 1394.63
0 -0.0186894 0.00693288 153.604
2.37473e-21 0.0186894 0.00693288 153.55
0 -0.019034 0.00596484 42.4571
-2.71051e-20 0.019034 0.00596484 43.5388
8.27181e-25 0.0199808 6.14837e-09 236.885
0 -0.0199808 4.27519e-09 236.649
-1.03398e-25 0.0182874 0.00805643 1393.06
5.16988e-26 0.0183784 0.0078561 1157.08
-1.5369e-20 0.0193786 0.00498454 28.5814
0 -0.0193786 0.00498454 27.6038
-8.26023e-21 0.0199934 0.00116523 148.012
0 -0.0199934 0.00116523 146.404
3.23117e-27 -0.0193742 0.00516373 28.952
0 -0.018638 0.00760163 735.633
1.59468e-20 0.018638 0.00760163 735.31
0 -0.0190175 0.00660576 64.8707
2.71051e-20 0.0190175 0.00660576 65.7959
9.69352e-27 -0.0195185 0.00496401 26.9429
4.15241e-20 0.0200103 0.00238385 43.1966
-2.06795e-25 -0.0200103 0.00238385 41.3102
-7.69502e-21 0.0193626 0.005634 33.7246
-1.29247e-26 -0.0193626 0.005634 32.4901
0 -0.0185453 0.00797801 1390.83
0 0.0185453 0.00797801 1390.81
0 -0.0185355 0.00831268 1386.06
0 0.0185355 0.00831268 1386.04
0 -0.0189879 0.00725654 119.464
0 0.0189879 0.00725654 119.795
0 -0.0193479 0.00627375 44.5272
-3.41863e-21 0.0193479 0.00627375 45.9884
-4.04108e-20 0.0200226 0.00365995 26.5265
0 -0.0200226 0.00365995 25.8521
2.71051e-20 -0.019693 0.00529521 25.8885
5.42101e-20 0.019693 0.00529521 27.0084
1.01073e-20 -0.0188066 0.00805004 1033.52
3.06015e-20 0.0188066 0.00805004 1033.24
2.58494e-26 -0.0200582 0.00425914 25.0496
0 -0.0193268 0.00692069 72.0967
-2.06824e-20 0.0193268 0.00692069 73.4901
6.46235e-26 -0.0202009 0.00365717 25.8175
8.13152e-20 0.0196676 0.00594439 32.5915
-2.71051e-20 -0.0196676 0.00594439 30.7555
0 -0.01902 0.00784265 298.079
0 0.01902 0.00784265 297.242
-1.0842e-19 0.0205868 0.000581102 238.733
0 -0.0205868 0.000581102 238.391
2.71051e-20 0.0188712 0.00831333 1381.26
0 -0.0188712 0.00831333 1381.28
-8.27181e-25 -0.0206659 -8.67383e-29 240.82
0 -0.020095 0.00487938 24.219
-2.59002e-20 0.020095 0.00487938 25.1396
-5.42101e-20 -0.0206115 0.00176879 55.7855
5.42101e-20 0.0206115 0.00176879 58.633
-8.27181e-25 -0.0188391 0.00862624 1382.13
4.1359e-25 0.0188391 0.00862624 1382.1
0 -0.0193074 0.00756039 153.105
-8.72417e-21 0.0193074 0.00756039 153.899
-5.42101e-20 -0.0196738 0.00657561 40.5569
0 0.0196738 0.00657561 42.5448
0 -0.0200001 0.00561439 26.999
-1.8239e-20 0.0200001 0.00561439 28.4199
-1.0842e-19 -0.0206346 0.00301452 28.3277
-5.42101e-20 0.0206346 0.00301452 28.7744
2.71051e-20 -0.0196391 0.00723369 63.9428
-5.42101e-20 0.0196391 0.00723369 66.2553
-1.03398e-25 -0.0208001 0.00237353 42.8575
0 -0.0192519 0.00823155 729.24
1.70922e-20 0.0192519 0.00823155 729.392
2.06795e-25 0.0209874 -3.1629e-29 243.241
1.03398e-25 0.0190407 0.00883427 1342.22
-1.89013e-21 -0.0200715 0.00617586 31.7144
8.56145e-22 0.0200715 0.00617586 33.6404
-2.71051e-20 -0.0191557 0.00860727 1382.98
0 0.0191557 0.00860727 1382.94
2.06795e-25 -0.0210155 0.00115464 150.985
0 0.0205025 0.00489727 24.0476
0 0.0206641 0.00428079 22.476
0 -0.0206641 0.00428079 22.1616
0 -0.0191433 0.00894011 1321.97
0 0.0191433 0.00894011 1321.94
-2.71051e-20 0.0196055 0.00788712 120.463
-5.42101e-20 -0.0196055 0.00788712 118.944
0 -0.0199746 0.0069041 43.4327
-1.03582e-20 0.0199746 0.0069041 45.8704
0 -0.0211723 3.13997e-09 243.903
-4.1359e-25 0.0211723 1.10453e-09 244.409
-1.03398e-25 0.0211896 0.000614624 195.797
0 0.0193365 0.0087618 1087.65
-2.95349e-20 0.0212048 0.00115268 153.241
1.03398e-25 -0.0212048 0.00115268 151.833
1.14027e-21 -0.0194188 0.0086858 987.742
-5.53963e-21 0.0194188 0.0086858 987.799
1.64023e-20 -0.0199446 0.00755308 70.5994
9.42376e-21 0.0199446 0.00755308 73.256
-2.71051e-20 0.0203041 0.00658402 32.1033
0 -0.0203041 0.00658402 29.7794
0 -0.0212384 0.0023678 43.7161
-6.83562e-20 0.0212384 0.0023678 44.8075
0 -0.0206408 0.00559143 22.8628
-5.42101e-20 0.0206408 0.00559143 24.1269
2.71051e-20 -0.0196393 0.00847876 290.128
5.42101e-20 0.0196393 0.00847876 290.386
0 -0.0213821 0.00114695 153.856
-1.29247e-26 0.021122 0.00364282 25.5827
-5.42101e-20 -0.0194792 0.0089564 1260.93
2.71051e-20 0.0194792 0.0089564 1260.89
8.27181e-25 -0.0194172 0.00928185 1136.72
0 0.0194172 0.00928186 1136.67
0 0.0202831 0.00722169 43.1425
-5.42101e-20 -0.0202831 0.00722169 40.0218
0 0.0212641 0.00347768 27.9336
-1.20303e-20 -0.0199297 0.00819016 146.771
1.91203e-20 0.0199297 0.00819016 148.984
1.7845e-20 -0.0206294 0.00624638 26.018
-3.229e-20 0.0206294 0.00624638 27.8628
1.03398e-25 -0.0212679 0.00364055 25.6107
0 0.0212679 0.00364055 25.4574
0 0.0213063 0.00363886 25.4691
0 -0.0215078 0.0023544 44.6355
0 0.0196764 0.00905423 835.113
-2.71051e-20 -0.0202625 0.00786089 60.4578
-2.71051e-20 0.0202625 0.00786089 64.0977
-2.73107e-20 -0.0206173 0.00689381 30.6533
5.89019e-21 0.0206173 0.00689381 33.0741
0 -0.0198766 0.00887843 601.191
1.67495e-20 0.0198766 0.00887843 602.208
0 0.0217896 0.000568406 250.098
0 -0.0217896 0.000568406 249.429
5.16988e-26 -0.0212798 0.00493138 21.6473
0 0.0212798 0.00493138 21.9649
0 -0.0197714 0.0092976 1012.39
0 0.0197714 0.0092976 1012.33
0 -0.019669 0.00964181 1617.62
5.16988e-26 0.019669 0.00964181 1617.58
-5.42101e-20 -0.0218374 0.00173743 60.2314
0 0.0218374 0.00173743 62.0314
0 0.0213545 0.00492921 21.8666
0 -0.0205995 0.0075318 41.3387
-3.02247e-21 0.0205995 0.0075318 44.3906
0 -0.0209456 0.00655441 24.3043
0 0.0209456 0.00655441 26.0358
0 -0.0202362 0.00851518 106.573
0 0.0202362 0.00851518 110.171
-5.16988e-26 0.0197055 0.00969373 1675.64
5.16988e-26 0.0198086 0.00958128 1417.43
2.06795e-25 -0.0217318 0.00362008 26.1033
-3.23117e-27 0.0213228 0.0057226 22.9883
5.42101e-20 -0.021882 0.00297573 30.1607
-1.0842e-19 0.021882 0.00297573 29.3994
3.05121e-20 -0.0205755 0.00817149 64.0616
-9.98769e-22 0.0205755 0.00817149 67.4925
2.71051e-20 0.0209362 0.00721472 31.2044
0 -0.0209362 0.00721472 28.6883
0 0.0199576 0.00972223 2223.43
-5.42101e-20 -0.0199576 0.00972223 2223.45
-1.37436e-20 -0.0200954 0.00945691 1005.34
-4.25541e-20 0.0200954 0.00945691 1006.21
-2.49588e-20 -0.0213454 0.00613817 22.281
2.49163e-21 0.0213454 0.00613817 23.5258
-2.71051e-20 -0.0202913 0.0091201 211.8
0 0.0202913 0.0091201 213.466
-2.58494e-26 -0.0217282 0.00491835 21.351
0 -0.0199226 0.0100021 2020.49
0 0.0199226 0.0100021 2020.47
5.42101e-20 -0.0219071 0.00426287 21.8648
5.42101e-20 0.0219071 0.00426287 21.2413
2.9131e-20 0.0212536 0.00687047 27.105
-3.49627e-20 -0.0212536 0.00687047 25.1632
0 -0.0209198 0.00783 36.8413
2.71051e-20 0.0209198 0.00783 39.7889
0 -0.0223699 3.49605e-09 264.89
0 0.0223699 1.39782e-09 265.691
0 0.0223813 0.000230613 245.208
0 -0.0205825 0.00880038 114.291
1.64359e-20 0.0205825 0.00880038 117.541
3.23117e-26 -0.0215265 0.00614657 21.8421
-4.1359e-25 -0.0223966 0.0005407 216.738
1.65436e-24 0.0224376 -1.23154e-35 269.748
-8.20067e-21 -0.0201854 0.00982489 1487.61
-3.54261e-21 0.0201854 0.00982489 1488.25
5.66486e-20 0.0224248 0.00111326 166.813
0 -0.0224248 0.00111325 165.75
1.65436e-24 -0.0225349 -1.12606e-35 274.768
5.42101e-20 -0.0208973 0.00847326 53.563
-5.42101e-20 0.0208973 0.00847326 57.0851
-2.71051e-20 -0.020392 0.00967037 407.934
2.71051e-20 0.020392 0.00967037 409.927
-2.71051e-20 0.0202271 0.0100702 1817.31
2.71051e-20 -0.0202271 0.0100702 1817.34
-6.73962e-20 0.0224885 0.00230562 48.0384
0 -0.0224885 0.00230562 47.9818
5.42101e-20 0.0219242 0.0055407 20.0539
0 -0.0219242 0.0055407 19.7368
2.06795e-25 -0.0206219 0.00940243 219.406
-7.34991e-21 0.0206219 0.00940243 222.058
0 -0.0201769 0.0103635 1712.36
-4.1359e-25 0.0201769 0.0103635 1712.34
-3.84193e-20 0.0214053 0.00750768 32.0831
0 -0.0214053 0.00750768 29.5437
3.98165e-20 -0.0212331 0.0081501 41.0994
4.29467e-21 0.0212331 0.0081501 44.2952
0 0.0225307 0.00358482 25.8425
-9.37981e-21 -0.0225307 0.00358482 26.9517
-2.71051e-20 -0.0209306 0.009079 83.011
0 0.0209306 0.00907901 87.253
-1.38499e-20 -0.0205788 0.0100354 901.603
1.79126e-20 0.0205788 0.0100354 902.741
0 0.0218832 0.00683353 22.3539
-5.42101e-20 -0.0218832 0.00683353 20.9761
0 0.0203459 0.0106036 1542.15
2.71051e-20 -0.02047 0.0103922 1607.31
0 0.02047 0.0103922 1607.28
-5.42101e-20 -0.0229944 0.000536085 280.388
-5.42101e-20 0.0229944 0.000536085 281.32
0 -0.0213123 0.00869943 55.6312
-2.74605e-20 0.0213123 0.00869943 59.3584
0 -0.020909 0.00972034 148.423
-2.71051e-20 0.020909 0.00972035 151.239
-5.34479e-20 0.0225437 0.00489464 20.3015
0 -0.0225437 0.00489464 20.8121
0 -0.0204318 0.0107257 1455.62
0 0.0204318 0.0107257 1455.6
-6.46235e-27 -0.0218584 0.00749591 26.2893
0 -0.0230802 0.00165832 67.8578
-1.0842e-19 0.0230802 0.00165832 68.7184
0 0.0205952 0.0105898 1243
-1.03398e-25 -0.0212246 0.00940472 87.47
1.97944e-20 0.0212246 0.00940473 91.304
3.10635e-20 -0.0207156 0.0104897 1085.99
7.316e-21 0.0207156 0.0104897 1086.37
0 -0.0209353 0.0102994 319.834
2.71051e-20 0.0209354 0.0102994 321.035
0 -0.0231589 0.00287977 33.1385
0 0.0231589 0.00287977 31.4247
0 0.0218885 0.00814494 31.1054
5.42101e-20 -0.0218885 0.00814494 28.0222
5.16988e-26 0.0206183 0.0109908 1252.66
-2.25397e-20 0.0225301 0.00619313 19.8689
-2.71334e-20 -0.0225301 0.00619313 19.4097
0 0.0207613 0.0107635 1303.84
-2.71051e-20 -0.0207613 0.0107635 1303.87
-2.71051e-20 -0.0215469 0.00909429 48.2575
0 0.0215469 0.0090943 52.0771
0 -0.0212144 0.0100278 168.268
-2.44069e-20 0.0212145 0.0100278 171.046
-8.27181e-25 -0.020687 0.0110884 1177.97
5.16988e-26 0.020687 0.0110884 1177.94
0 -0.0231865 0.00419035 22.762
-5.42101e-20 0.0231865 0.00419035 21.4103
0 -0.0218725 0.00877017 36.9069
-2.2815e-20 0.0218725 0.00877017 40.2759
0 0.0235735 1.98106e-08 337.88
-3.30872e-24 -0.0235735 2.07597e-08 336.96
0 -0.0215348 0.00971337 70.6468
-5.42101e-20 0.0215348 0.00971336 75.0886
3.64125e-20 0.0236424 0.00102427 211.451
-9.72434e-21 -0.0236424 0.00102426 210.793
0 -0.0211543 0.0107041 630.348
-5.18125e-21 0.0211543 0.0107041 631.493
2.83963e-20 0.0225191 0.00747875 23.1686
1.58292e-20 -0.0225191 0.00747875 21.5431
-2.58494e-26 -0.0218553 0.00939598 47.7001
-1.75978e-20 0.0218553 0.00939598 51.5232
-2.71051e-20 -0.021043 0.011115 1052.05
-2.71051e-20 0.021043 0.011115 1052.01
5.42101e-20 0.0231776 0.0055198 18.5549
5.42101e-20 -0.0231776 0.0055198 18.9757
0 -0.0209424 0.0114514 1732.8
0 0.0209424 0.0114514 1732.78
-5.42101e-20 -0.0215108 0.0103577 120.568
-2.71051e-20 0.0215108 0.0103577 123.393
-3.70742e-20 0.0237791 0.00216485 56.3045
4.58953e-20 -0.0237791 0.00216485 56.9348
2.71051e-20 0.0221872 0.00906953 34.5082
0 -0.0221872 0.00906953 31.3977
-5.16988e-26 -0.0218425 0.0100258 71.7987
8.70592e-21 0.0218425 0.0100258 75.7424
-1.73642e-20 0.0238309 0.00346141 28.2697
-5.42597e-20 -0.0238309 0.00346141 29.8364
1.61559e-27 -0.022581 0.00849568 25.6777
0 -0.024136 0.000451688 394.14
0 0.024136 0.000451688 395.048
0 -0.0231587 0.00682378 17.9594
5.42101e-20 0.0231587 0.00682378 18.5073
1.79788e-21 0.0213633 0.0112862 1085.77
0 -0.0213633 0.0112862 1085.01
0 -0.0212283 0.0115413 2413.71
-2.71051e-20 0.0212283 0.0115413 2413.69
-2.71051e-20 -0.0215589 0.0109592 227.953
5.42101e-20 0.0215589 0.0109592 230.012
0 0.0221622 0.00970256 44.5481
-2.71051e-20 -0.0221622 0.00970256 40.6346
2.17626e-20 0.0225915 0.00866816 28.9702
0 -0.0225915 0.00866816 26.379
4.1359e-25 0.021198 0.0118146 2254.02
0 -0.021198 0.0118146 2254.44
-6.51198e-22 0.0218492 0.010651 129.502
5.16988e-26 -0.0218492 0.010651 126.211
-2.35101e-20 0.0238226 0.00482927 20.2675
0 -0.0238226 0.00482927 21.2536
0 -0.0224936 0.00937957 33.0746
2.00798e-22 0.0224936 0.00937957 36.3134
-5.42101e-20 0.0243535 0.00151159 84.9453
5.42101e-20 -0.0243535 0.00151159 85.0396
-1.83431e-20 0.0214522 0.0116532 1651.96
1.63619e-20 -0.0214522 0.0116532 1651.86
0 0.0221811 0.0103174 61.4116
-2.71051e-20 -0.0221811 0.0103174 56.865
0 -0.0216524 0.0115106 451.985
0 0.0216525 0.0115106 453.106
0 0.0231638 0.00808475 20.7798
0 -0.0231638 0.00808475 19.2802
1.61559e-27 -0.0229509 0.00868515 24.1673
0 -0.0214945 0.0118953 2095.11
-2.71051e-20 0.0214945 0.0118953 2094.27