# omega  POINT_DATA 51980
# x  y  z  omega
6.22958e-09 0 0.049924 1928.51
-0.000624998 -2.06795e-25 0.049924 1928.51
0.000625007 0 0.049924 1928.51
0.000988987 0 0.049924 1928.51
-0.00125 0 0.049924 1928.51
0.00125 0 0.049924 1928.51
0.00140263 1.03398e-25 0.049924 1928.51
-0.001875 0 0.049924 1928.51
0.001875 -4.1359e-25 0.049924 1928.51
-0.0025 0 0.049924 1928.51
0.0025 -4.1359e-25 0.049924 1928.51
-0.003125 0 0.049924 1928.51
0.003125 0 0.049924 1928.51
0.00360469 2.06795e-25 0.049924 1928.5
0.00374999 -2.06795e-25 0.049924 1928.5
-0.00375 0 0.049924 1928.51
0.00437499 0 0.049924 1928.51
-0.004375 -8.27181e-25 0.049924 1928.51
-0.000312498 0 0.0501277 1928.51
0.000312503 -5.42101e-20 0.0501277 1928.51
-0.0009375 -2.71051e-20 0.0501277 1928.51
0.000937501 0 0.0501277 1928.51
0.0015625 0 0.0501277 1928.51
-0.0015625 -2.71051e-20 0.0501277 1928.51
0.00499999 0 0.049924 1928.51
-0.005 -8.27181e-25 0.049924 1928.51
0.0021875 0 0.0501277 1928.51
-0.0021875 0 0.0501277 1928.51
0.00514699 1.03398e-25 0.049924 1928.51
0.0028125 2.71051e-20 0.0501277 1928.51
-0.0028125 2.71051e-20 0.0501277 1928.51
0.00125 -1.03398e-25 0.0502211 1355.88
-0.005625 0 0.049924 1928.52
0.005625 4.1359e-25 0.049924 1928.51
-0.0034375 2.71051e-20 0.0501277 1928.51
0.0034375 -2.71051e-20 0.0501277 1928.5
0.0040625 -2.71051e-20 0.0501277 1928.5
-0.0040625 2.71051e-20 0.0501277 1928.51
-0.00625 -8.27181e-25 0.049924 1928.52
0.00625 4.1359e-25 0.049924 1928.51
1.28157e-09 1.17263e-20 0.0503316 1142.96
-0.000625 -3.92611e-21 0.0503316 1142.95
0.000625001 4.29919e-21 0.0503316 1142.98
0.0046875 0 0.0501277 1928.5
-0.0046875 0 0.0501277 1928.51
-0.00125 2.92331e-20 0.0503316 1142.93
0.00125 -5.0535e-21 0.0503316 1142.99
0.00375 1.03398e-25 0.0502249 1348.63
-0.001875 -2.7986e-20 0.0503316 1142.91
0.001875 -3.60975e-20 0.0503316 1143.01
-0.0025 -5.27038e-21 0.0503316 1142.89
0.0025 1.75331e-20 0.0503316 1143.03
-0.006875 0 0.049924 1928.52
0.006875 0 0.049924 1928.5
0.0053125 2.71051e-20 0.0501277 1928.51
-0.0053125 0 0.0501277 1928.52
-0.003125 3.29059e-20 0.0503316 1142.87
0.003125 4.69115e-21 0.0503316 1143.05
0.00714844 0 0.049924 1928.5
0.005 0 0.0502204 1357.45
-0.00375 2.71357e-20 0.0503316 1142.85
0.00375 2.61668e-20 0.0503316 1143.06
0.0059375 2.71051e-20 0.0501277 1928.51
-0.0059375 0 0.0501277 1928.52
0.004375 2.58494e-26 0.0502915 1220.34
-0.0075 8.27181e-25 0.049924 1928.52
0.0075 -4.1359e-25 0.049924 1928.5
-0.004375 -3.42097e-20 0.0503316 1142.83
0.004375 -7.70777e-21 0.0503316 1143.08
0.0065625 0 0.0501277 1928.51
-0.0065625 0 0.0501277 1928.52
-0.000312499 -5.42101e-20 0.0505593 338.916
0.000312501 0 0.0505593 338.995
0.000937501 -2.71051e-20 0.0505593 338.978
-0.0009375 0 0.0505593 338.935
-0.005 1.78977e-20 0.0503316 1142.81
0.005 -2.34977e-20 0.0503316 1143.09
-0.008125 0 0.049924 1928.52
0.008125 -4.1359e-25 0.049924 1928.5
0.0015625 2.71051e-20 0.0505593 339.069
-0.0015625 0 0.0505593 338.85
-0.0021875 0 0.0505593 338.865
0.0021875 0 0.0505593 339.052
-0.0028125 2.71051e-20 0.0505593 338.778
0.0028125 -2.71051e-20 0.0505593 339.142
0.0071875 -2.71051e-20 0.0501277 1928.5
-0.0071875 0 0.0501277 1928.52
-0.005625 -7.76309e-21 0.0503316 1142.79
0.005625 1.7831e-20 0.0503316 1143.11
-0.0034375 -2.71051e-20 0.0505593 338.785
0.0034375 5.42101e-20 0.0505593 339.125
-0.00875 0 0.049924 1928.52
0.00875 0 0.049924 1928.5
-0.00625 -8.4786e-23 0.0503316 1142.76
0.00625 -1.90264e-20 0.0503316 1143.12
-0.0040625 2.71051e-20 0.0505593 338.691
0.0040625 0 0.0505593 339.207
0.0078125 0 0.0501277 1928.5
-0.0078125 0 0.0501277 1928.52
0.00912371 2.06795e-25 0.049924 1928.5
-0.0046875 0 0.0505593 338.696
0.0046875 0 0.0505593 339.183
5.63348e-10 -2.87501e-20 0.0507876 235.73
-0.000624999 -2.74702e-20 0.0507876 235.679
0.000625001 1.01751e-20 0.0507876 235.782
-0.009375 0 0.049924 1928.52
0.009375 -2.06795e-25 0.049924 1928.5
-0.006875 2.53241e-20 0.0503316 1142.74
0.006875 0 0.0503316 1143.13
-0.00125 -2.09751e-20 0.0507876 235.625
0.00125 1.19978e-20 0.0507876 235.838
-0.001875 5.96335e-21 0.0507876 235.568
0.001875 3.25443e-20 0.0507876 235.892
0.00705284 -2.58494e-26 0.0503316 1143.14
0.0084375 0 0.0501277 1928.5
-0.0084375 -2.71051e-20 0.0501277 1928.52
-0.0053125 -2.71051e-20 0.0505593 338.595
0.0053125 5.42101e-20 0.0505593 339.268
-0.0025 -3.42134e-20 0.0507876 235.511
0.0025 -5.16988e-26 0.0507876 235.947
-0.003125 -1.38137e-20 0.0507876 235.451
0.003125 -3.26816e-20 0.0507876 236.002
-0.0075 2.46194e-20 0.0503316 1142.72
0.0075 -5.16988e-26 0.0503316 1143.14
-0.0059375 -2.71051e-20 0.0505593 338.601
0.0059375 0 0.0505593 339.245
-0.01 0 0.049924 1928.52
0.01 2.06795e-25 0.049924 1928.5
-0.00375 -1.02545e-20 0.0507876 235.389
0.00375 1.07251e-20 0.0507876 236.055
0.0090625 2.71051e-20 0.0501277 1928.5
-0.0090625 -2.71051e-20 0.0501277 1928.52
0.0102681 2.06795e-25 0.049924 1928.5
-0.004375 2.47808e-20 0.0507876 235.326
0.004375 -1.37777e-22 0.0507876 236.105
-0.008125 -1.72223e-20 0.0503316 1142.69
0.008125 0 0.0503316 1143.16
0.0065625 -2.71051e-20 0.0505593 339.323
-0.0065625 0 0.0505593 338.503
-0.005 2.02011e-20 0.0507876 235.261
0.005 3.24252e-20 0.0507876 236.154
-0.010625 0 0.049924 1928.52
0.010625 0 0.049924 1928.5
0.0003125 0 0.0510506 128.91
-0.0003125 2.71051e-20 0.0510506 128.806
0.0096875 2.71051e-20 0.0501277 1928.5
-0.0096875 2.71051e-20 0.0501277 1928.52
-0.0009375 5.42101e-20 0.0510506 128.765
0.0009375 2.71051e-20 0.0510506 128.953
0.0071875 2.71051e-20 0.0505593 339.295
-0.0071875 0 0.0505593 338.508
-0.0015625 0 0.0510506 128.652
0.0015625 2.71051e-20 0.0510506 129.059
-0.00875 -2.83541e-20 0.0503316 1142.67
0.00875 0 0.0503316 1143.17
0.0021875 -2.71051e-20 0.0510506 129.1
-0.0021875 0 0.0510506 128.606
-0.005625 1.2862e-20 0.0507876 235.196
0.005625 -2.92521e-20 0.0507876 236.203
0.0028125 2.71051e-20 0.0510506 129.205
-0.0028125 2.71051e-20 0.0510506 128.493
-0.0111483 1.03398e-25 0.049924 1928.52
0.0078125 0 0.0505593 339.376
-0.0078125 5.42101e-20 0.0505593 338.406
0.0034375 2.71051e-20 0.0510506 129.247
-0.0034375 -2.71051e-20 0.0510506 128.446
-0.00625 -1.47559e-21 0.0507876 235.132
0.00625 -5.31657e-21 0.0507876 236.251
0.01125 0 0.049924 1928.5
-0.01125 0 0.049924 1928.52
-0.0103125 0 0.0501277 1928.52
0.0103125 0 0.0501277 1928.5
0.009375 0 0.0503179 1169.5
-0.009375 -1.14953e-20 0.0503316 1142.64
0.009375 0 0.0503316 1143.18
0.0040625 5.42101e-20 0.0510506 129.354
-0.0040625 -2.71051e-20 0.0510506 128.331
0.006875 0 0.0507876 237.827
0.00686707 0 0.0507876 236.298
-0.006875 8.36259e-21 0.0507876 235.068
0.0116034 -2.06795e-25 0.049924 1928.5
0.0084375 -2.71051e-20 0.0505593 339.351
-0.0084375 0 0.0505593 338.417
0.0046875 2.71051e-20 0.0510506 129.392
-0.0046875 2.71051e-20 0.0510506 128.281
0.0109375 0 0.0501277 1928.5
-0.0109375 0 0.0501277 1928.52
0.01 4.00468e-20 0.0503316 1145
2.53784e-10 1.68499e-20 0.0513142 98.2622
-0.01 3.50388e-20 0.0503316 1142.62
0.011875 0 0.049924 1928.5
-0.011875 0 0.049924 1928.52
-0.000625 7.82508e-21 0.0513142 98.1963
0.000625 -1.80853e-20 0.0513142 98.3287
0.0053125 -5.42101e-20 0.0510506 129.489
-0.0053125 2.71051e-20 0.0510506 128.165
-0.00125 -1.13517e-20 0.0513142 98.1273
0.00125 5.15772e-21 0.0513142 98.3963
-0.0075 -1.79102e-20 0.0507876 235.002
0.0075 2.58494e-26 0.0507876 236.345
-0.001875 -6.66403e-21 0.0513142 98.0571
0.001875 0 0.0513142 98.4631
0.0090625 0 0.0505593 339.432
-0.0090625 0 0.0505593 338.302
-0.0025 -2.30962e-20 0.0513142 97.9859
0.0025 1.44985e-20 0.0513142 98.5295
0.0059375 -2.71051e-20 0.0510506 129.529
-0.0059375 -2.71051e-20 0.0510506 128.117
-0.01125 1.03398e-25 0.0501523 1488.38
-0.003125 1.14328e-20 0.0513142 97.9139
0.003125 -2.52238e-22 0.0513142 98.5953
-0.008125 2.54141e-21 0.0507876 234.939
0.008125 0 0.0507876 236.393
-0.010625 2.68064e-20 0.0503316 1142.6
0.010625 0 0.0503316 1143.21
0.0115625 -2.71051e-20 0.0501277 1928.5
-0.0115625 2.71051e-20 0.0501277 1928.51
-0.00375 -2.79524e-20 0.0513142 97.8416
0.00375 3.27256e-21 0.0513142 98.6645
0.0125 -2.06795e-25 0.049924 1928.5
-0.0125 0 0.049924 1928.52
0.0065625 0 0.0510506 129.628
-0.0065625 -2.71051e-20 0.0510506 128.001
0.0096875 2.71051e-20 0.0505593 339.404
-0.0096875 2.71051e-20 0.0505593 338.306
-0.004375 5.50359e-21 0.0513142 97.7684
0.004375 1.26683e-20 0.0513142 98.7345
0.0127663 0 0.049924 1928.5
-0.00875 6.9629e-21 0.0507876 234.869
0.00875 -2.58494e-26 0.0507876 236.441
-0.0071875 2.71051e-20 0.0510506 127.95
0.0071875 0 0.0510506 129.666
-0.005 -4.97735e-21 0.0513142 97.6967
0.005 -6.25853e-21 0.0513142 98.7986
-0.01125 -6.51818e-21 0.0503316 1142.58
0.01125 0 0.0503316 1143.22
0.0121875 0 0.0501277 1928.5
-0.0121875 0 0.0501277 1928.51
0.0103125 -2.71051e-20 0.0505593 339.483
-0.0103125 0 0.0505593 338.212
-0.0003125 0 0.0516082 66.6251
0.0003125 0 0.0516082 66.7488
-0.0009375 -2.71051e-20 0.0516082 66.6304
0.0009375 2.71051e-20 0.0516082 66.7436
0.013125 -4.1359e-25 0.049924 1928.5
-0.013125 -2.06795e-25 0.049924 1928.52
-0.005625 -1.52307e-20 0.0513142 97.6267
0.005625 7.30174e-22 0.0513142 98.863
0.0015625 -2.71051e-20 0.0516082 66.8699
-0.0015625 2.71051e-20 0.0516082 66.5042
-0.011875 0 0.0502523 1295.52
-0.0078125 0 0.0510506 127.834
0.0078125 0 0.0510506 129.764
-0.009375 -2.14048e-20 0.0507876 234.798
0.009375 0 0.0507876 236.487
-0.0021875 0 0.0516082 66.5094
0.0021875 2.71051e-20 0.0516082 66.8638
-0.0133161 1.03398e-25 0.049924 1928.52
-0.0028125 2.71051e-20 0.0516082 66.3788
0.0028125 -2.71051e-20 0.0516082 66.9891
-0.00625 -2.50693e-21 0.0513142 97.5566
0.00625 5.3355e-21 0.0513142 98.9265
0.0118397 1.9387e-26 0.0503316 1143.23
-0.011875 -2.21327e-20 0.0503316 1142.56
0.011875 0 0.0503316 1143.23
0.00644159 1.61559e-27 0.0513142 98.9459
-0.0034375 0 0.0516082 66.3825
0.0034375 0 0.0516082 66.979
0.0109375 -2.71051e-20 0.0505593 339.455
-0.0109375 0 0.0505593 338.218
0.0135706 1.03398e-25 0.049924 1928.5
0.0128125 0 0.0501277 1928.5
-0.0128125 2.71051e-20 0.0501277 1928.51
-0.0084375 0 0.0510506 127.787
0.0084375 2.71051e-20 0.0510506 129.803
-0.01 2.03316e-20 0.0507876 234.734
0.01 -1.29247e-26 0.0507876 236.532
-0.0040625 2.71051e-20 0.0516082 66.2521
0.0040625 2.71051e-20 0.0516082 67.1166
-0.006875 -4.113e-21 0.0513142 97.4852
0.006875 -3.23117e-27 0.0513142 98.9898
-0.01375 0 0.049924 1928.52
0.01375 0 0.049924 1928.5
0.011875 3.23117e-27 0.0504267 954.078
-0.0046875 2.71051e-20 0.0516082 66.2548
0.0046875 -5.42101e-20 0.0516082 67.1142
-0.0125 1.03398e-25 0.0503053 1193.24
-0.0090625 -2.71051e-20 0.0510506 127.656
0.0090625 2.71051e-20 0.0510506 129.901
-0.0075 3.03074e-21 0.0513142 97.4129
0.0075 0 0.0513142 99.0519
-0.0125 -2.68446e-20 0.0503316 1142.54
0.0125 0 0.0503316 1143.24
-0.0115625 2.71051e-20 0.0505593 338.125
0.0115625 2.71051e-20 0.0505593 339.527
0.0125235 1.61559e-27 0.0503316 1143.24
-0.0053125 -5.42101e-20 0.0516082 66.132
0.0053125 -2.71051e-20 0.0516082 67.2376
-0.010625 3.97873e-20 0.0507876 234.67
0.010625 0 0.0507876 236.577
0.0134375 0 0.0501277 1928.5
-0.0134375 5.42101e-20 0.0501277 1928.52
8.77282e-11 -1.09018e-20 0.0519027 54.1982
-0.000625 -9.43679e-21 0.0519027 54.3048
0.000625 1.50401e-20 0.0519027 54.4075
0.0125 0 0.0503842 1038.63
-0.00125 -7.54045e-21 0.0519027 54.098
0.00125 2.37819e-20 0.0519027 54.2989
-0.001875 1.68883e-20 0.0519027 54.2081
0.001875 -4.19535e-21 0.0519027 54.4972
-0.0059375 0 0.0516082 66.1402
0.0059375 -2.71051e-20 0.0516082 67.2346
-0.014375 -4.1359e-25 0.049924 1928.52
0.014375 2.06795e-25 0.049924 1928.5
-0.008125 2.95148e-21 0.0513142 97.3452
0.008125 6.46235e-27 0.0513142 99.1127
-0.0096875 2.71051e-20 0.0510506 127.612
0.0096875 0 0.0510506 129.937
-0.0025 1.05219e-21 0.0519027 53.998
0.0025 1.43095e-20 0.0519027 54.3796
-0.013125 0 0.0502895 1223.7
-0.003125 -1.62218e-20 0.0519027 54.1148
0.003125 -1.23879e-20 0.0519027 54.5843
0.0145727 1.03398e-25 0.049924 1928.5
0.0121875 -2.71051e-20 0.0505593 339.491
-0.0121875 0 0.0505593 338.141
0.013125 -2.58494e-26 0.0503316 1143.25
-0.013125 6.48205e-21 0.0503316 1142.52
-0.01125 -2.10636e-20 0.0507876 234.607
0.01125 0 0.0507876 236.62
-0.0065625 -2.71051e-20 0.0516082 66.0163
0.0065625 0 0.0516082 67.3524
-0.00375 2.20631e-20 0.0519027 53.9207
0.00375 -8.12072e-21 0.0519027 54.4795
-0.00875 1.95381e-20 0.0513142 97.2677
0.00875 6.46235e-27 0.0513142 99.1779
-0.0140625 0 0.0501277 1928.52
0.0140625 2.71051e-20 0.0501277 1928.5
0.00625 8.07794e-28 0.0517029 69.6899
-0.0103125 -2.71051e-20 0.0510506 127.49
0.0103125 -2.71051e-20 0.0510506 130.032
-0.004375 1.01795e-20 0.0519027 54.0267
0.004375 1.59287e-20 0.0519027 54.695
-0.0071875 0 0.0516082 66.0217
0.0071875 2.71051e-20 0.0516082 67.3494
-0.015 0 0.049924 1928.52
0.015 0 0.049924 1928.5
0.01375 -3.87741e-26 0.05029 1223.39
-0.005 2.43681e-21 0.0519027 53.8251
0.005 5.30582e-21 0.0519027 54.5844
-0.011875 5.37949e-21 0.0507876 234.546
0.011875 0 0.0507876 236.66
-0.0128125 0 0.0505593 338.045
0.0128125 2.71051e-20 0.0505593 339.565
-0.009375 1.34815e-20 0.0513142 97.1863
0.009375 0 0.0513142 99.2424
-0.01375 -7.12792e-21 0.0503316 1142.49
0.01375 0 0.0503316 1143.26
-0.0078125 -2.71051e-20 0.0516082 65.895
0.0078125 0 0.0516082 67.4638
-0.005625 -2.12236e-20 0.0519027 53.9418
0.005625 1.47539e-20 0.0519027 54.7864
-0.0109375 0 0.0510506 127.441
0.0109375 0 0.0510506 130.068
-0.000300834 2.71051e-20 0.0522172 40.9792
0.000300834 -2.71051e-20 0.0522172 42.5338
-0.000949166 2.71051e-20 0.0522172 42.446
0.000949166 -2.71051e-20 0.0522172 41.0644
0.00587272 -4.03897e-28 0.0519027 54.7376
-0.0146875 0 0.0501277 1928.52
0.0146875 2.71051e-20 0.0501277 1928.5
-0.00155083 2.71051e-20 0.0522172 40.9054
0.00155083 5.42101e-20 0.0522172 42.6122
-0.00219917 2.71051e-20 0.0522172 42.3762
0.00219917 2.71051e-20 0.0522172 41.1024
-0.00625 3.95404e-20 0.0519027 53.7465
0.00625 -8.07794e-28 0.0519027 54.6631
-0.01 -8.27057e-21 0.0513142 97.1107
0.01 6.46235e-27 0.0513142 99.3044
-0.00280083 2.71051e-20 0.0522172 40.8213
0.00280083 0 0.0522172 42.6577
-0.0084375 -2.71051e-20 0.0516082 65.9147
0.0084375 2.71051e-20 0.0516082 67.4562
-0.0125 1.51087e-20 0.0507876 234.483
0.0125 1.29247e-26 0.0507876 236.7
-0.015625 -4.1359e-25 0.049924 1928.52
0.015625 0 0.049924 1928.5
0.0134375 -2.71051e-20 0.0505593 339.533
-0.0134375 0 0.0505593 338.049
0.0143114 8.07794e-27 0.0503316 1143.26
0.00344917 -2.71051e-20 0.0522172 41.1698
-0.00344917 0 0.0522172 42.3405
-0.0115625 -2.71051e-20 0.0510506 127.324
0.0115625 -2.71051e-20 0.0510506 130.162
-0.014375 2.89451e-21 0.0503316 1142.47
0.014375 -1.16321e-20 0.0503316 1143.27
-0.006875 2.5163e-20 0.0519027 53.8523
0.006875 1.61559e-27 0.0519027 54.862
0.00405083 0 0.0522172 42.7473
-0.00405083 2.71051e-20 0.0522172 40.8012
0.0144908 1.61559e-27 0.0503316 1143.27
0.0158409 -2.06795e-25 0.049924 1928.5
-0.0090625 2.71051e-20 0.0516082 65.7632
0.0090625 -2.71051e-20 0.0516082 67.5879
-0.0159165 -2.06795e-25 0.049924 1928.52
-0.010625 -2.12508e-20 0.0513142 97.0345
0.010625 -1.29247e-26 0.0513142 99.3683
-0.0153125 -2.71051e-20 0.0501277 1928.52
0.0153125 -2.71051e-20 0.0501277 1928.5
-0.00469917 0 0.0522172 42.2645
0.00469917 0 0.0522172 41.259
-0.0075 1.78217e-20 0.0519027 53.6503
0.0075 0 0.0519027 54.7403
0.013125 1.29247e-26 0.0507876 236.741
-0.013125 -8.08161e-21 0.0507876 234.417
0.0140625 0 0.0505593 339.6
-0.0140625 2.71051e-20 0.0505593 337.942
-0.0121875 2.71051e-20 0.0510506 127.275
0.0121875 -2.71051e-20 0.0510506 130.194
0.00530083 -2.71051e-20 0.0522172 42.8218
-0.00530083 0 0.0522172 40.7426
0.01625 0 0.049924 1928.5
-0.01625 -4.1359e-25 0.049924 1928.52
-0.0096875 2.71051e-20 0.0516082 65.7647
0.0096875 0 0.0516082 67.5795
-0.015 0 0.0503316 1142.44
0.015 0 0.0503316 1143.27
-0.000625 5.33438e-22 0.0525189 38.373
0.000625 -1.33487e-20 0.0525189 38.444
-0.01125 -2.74102e-20 0.0513142 96.9602
0.01125 0 0.0513142 99.4305
-0.008125 1.52431e-20 0.0519027 53.772
0.008125 0 0.0519027 54.9315
0.0151033 0 0.0503316 1143.28
-0.001875 2.35405e-21 0.0525189 38.3135
0.001875 3.21295e-20 0.0525189 38.4896
0.00594917 0 0.0522172 41.3078
-0.00594917 -2.71051e-20 0.0522172 42.2197
0.0159375 2.71051e-20 0.0501277 1928.5
-0.0159375 0 0.0501277 1928.52
-0.003125 8.01339e-21 0.0525189 38.2585
0.003125 -4.02828e-20 0.0525189 38.5398
-0.01375 5.22125e-21 0.0507876 234.346
0.01375 6.46235e-27 0.0507876 236.78
0.00655083 -2.71051e-20 0.0522172 42.853
-0.00655083 -2.71051e-20 0.0522172 40.703
0.0103125 -5.42101e-20 0.0516082 67.7048
-0.0103125 -2.71051e-20 0.0516082 65.6273
0.015 0 0.0504481 911.773
0.0128125 0 0.0510506 130.283
-0.0128125 0 0.0510506 127.151
-0.00875 -2.5553e-21 0.0519027 53.5861
0.00875 -8.07794e-28 0.0519027 54.8331
0.015625 0 0.0502715 1258.99
0.0146875 5.42101e-20 0.0505593 339.565
-0.0146875 0 0.0505593 337.946
-0.011875 2.80962e-21 0.0513142 96.886
0.011875 6.46235e-27 0.0513142 99.4908
1.92914e-11 -1.12037e-20 0.0526734 36.2336
-0.0155615 -6.46235e-27 0.0503316 1142.42
0.0140137 3.23117e-27 0.0507876 236.796
-0.00125 -1.34373e-20 0.0526734 36.1764
0.00125 1.27631e-20 0.0526734 36.2886
-0.015625 0 0.0503227 1159.59
0.016875 0 0.049924 1928.5
-0.016875 0 0.049924 1928.52
-0.004375 -6.24957e-21 0.0525189 38.2198
0.004375 -6.40359e-22 0.0525189 38.6164
0.015625 -3.82285e-20 0.0503316 1143.29
-0.015625 6.46235e-27 0.0503316 1142.41
0.00719917 5.42101e-20 0.0522172 41.3476
-0.00719917 -2.71051e-20 0.0522172 42.1367
-0.0025 -2.04175e-20 0.0526734 36.1179
0.0025 1.18481e-20 0.0526734 36.3208
-0.009375 7.16093e-22 0.0519027 53.6916
0.009375 0 0.0519027 55.06
-0.0109375 0 0.0516082 65.6311
0.0109375 0 0.0516082 67.7045
0.014375 -6.46235e-27 0.0507876 236.818
-0.014375 -3.23117e-27 0.0507876 234.275
0.005625 0 0.0524826 39.6155
0.0134375 -2.71051e-20 0.0510506 130.317
-0.0134375 2.71051e-20 0.0510506 127.098
0.0165625 0 0.0501277 1928.5
-0.0165625 2.71051e-20 0.0501277 1928.52
0.00780083 2.71051e-20 0.0522172 42.8959
-0.00780083 0 0.0522172 40.6407
-0.00375 -7.39947e-21 0.0526734 36.0917
0.00375 -1.93794e-20 0.0526734 36.3814
-0.0144814 0 0.0507876 234.263
-0.0125 -1.69344e-20 0.0513142 96.8092
0.0125 0 0.0513142 99.549
-0.005625 -2.13475e-21 0.0525189 38.1745
0.005625 0 0.0525189 38.6666
-0.0153125 0 0.0505593 337.843
0.0153125 0 0.0505593 339.642
0.00556277 0 0.0525343 38.445
-0.01 -6.03346e-21 0.0519027 53.4824
0.01 0 0.0519027 54.9455
-0.014375 -1.61559e-27 0.05088 210.102
-0.015 0 0.050715 378.714
0.0115625 -2.71051e-20 0.0516082 67.8241
-0.0115625 -2.71051e-20 0.0516082 65.4968
0.01625 4.1083e-21 0.0503316 1143.29
-0.01625 0 0.0503316 1142.39
-0.00844917 -2.71051e-20 0.0522172 42.1073
0.00844917 -5.42101e-20 0.0522172 41.3629
0.0175 8.27181e-25 0.049924 1928.5
-0.0175 0 0.049924 1928.52
-0.005 -2.94714e-20 0.0526734 36.0441
0.005 -2.76582e-20 0.0526734 36.4409
-0.01375 3.23117e-27 0.0511329 144.054
0.0140625 -2.71051e-20 0.0510506 130.405
-0.0140625 2.71051e-20 0.0510506 126.97
0.015 -5.6505e-21 0.0507876 236.858
-0.015 -1.29247e-26 0.0507876 234.205
0.013125 0 0.0513142 99.6063
-0.013125 3.23117e-27 0.0513142 96.7322
-0.006875 1.71728e-20 0.0525189 38.1269
0.006875 0 0.0525189 38.6984
-0.010625 -5.72655e-21 0.0519027 53.5922
0.010625 0 0.0519027 55.1511
-0.0171875 2.71051e-20 0.0501277 1928.52
0.0171875 2.71051e-20 0.0501277 1928.5
-0.00905083 -2.71051e-20 0.0522172 40.6517
0.00905083 0 0.0522172 43.0213
-0.0159375 2.71051e-20 0.0505593 337.838
0.0159375 2.71051e-20 0.0505593 339.608
-0.0133662 0 0.0513142 96.7026
0.0121875 0 0.0516082 67.8189
-0.0121875 2.71051e-20 0.0516082 65.5014
-0.00625 -2.72028e-21 0.0526734 36.013
0.00625 0 0.0526734 36.4716
-0.0180376 1.03398e-25 0.049924 1928.52
0.016875 -8.6643e-21 0.0503316 1143.3
-0.016875 0 0.0503316 1142.36
-0.01125 -2.18765e-20 0.0519027 53.3919
0.01125 3.23117e-27 0.0519027 55.0346
-0.00969917 0 0.0522172 42.0591
0.00969917 -5.42101e-20 0.0522172 41.5042
0.018125 0 0.049924 1928.5
-0.018125 0 0.049924 1928.52
0.0146875 0 0.0510506 130.439
-0.0146875 2.71051e-20 0.0510506 126.916
-0.01375 3.23117e-27 0.0513142 96.6556
0.01375 0 0.0513142 99.6671
0.0137797 -4.03897e-28 0.0513142 99.6701
0.015625 1.82963e-20 0.0507876 236.899
-0.015625 0 0.0507876 234.133
-0.008125 -2.13614e-20 0.0525189 38.0882
0.008125 2.01948e-28 0.0525189 38.7217
-0.000625 0 0.0531412 27.3698
0.000625 0 0.0531412 27.3896
-0.018235 -5.16988e-26 0.049924 1928.52
0.001875 5.42101e-20 0.0531412 27.394
-0.001875 0 0.0531412 27.3509
-0.0128125 0 0.0516082 65.3638
0.0128125 0 0.0516082 67.9352
-0.0178125 0 0.0501277 1928.52
0.0178125 -2.71051e-20 0.0501277 1928.5
-0.0165625 0 0.0505593 337.728
0.0165625 0 0.0505593 339.681
-0.0075 -2.26406e-20 0.0526734 35.9649
0.0075 4.03897e-28 0.0526734 36.5017
-0.0103008 2.71051e-20 0.0522172 40.5705
0.0103008 -2.71051e-20 0.0522172 43.0894
0.003125 -5.42101e-20 0.0531412 27.4234
-0.003125 -5.42101e-20 0.0531412 27.3121
-0.011875 -1.71436e-20 0.0519027 53.5048
0.011875 0 0.0519027 55.2352
0.0175 -2.1395e-20 0.0503316 1143.31
-0.0175 -1.03398e-25 0.0503316 1142.34
-0.018125 0 0.0501124 1565.19
-0.014375 0 0.0513142 96.5774
0.014375 6.46235e-27 0.0513142 99.7297
0.0153125 0 0.0510506 130.525
-0.0153125 0 0.0510506 126.788
0.004375 0 0.0531412 27.4581
-0.004375 5.42101e-20 0.0531412 27.3041
0.01625 -3.1465e-20 0.0507876 236.938
-0.01625 0 0.0507876 234.059
0.01875 -8.27181e-25 0.049924 1928.49
-0.01875 0 0.049924 1928.52
-0.0134375 2.71051e-20 0.0516082 65.3706
0.0134375 -2.71051e-20 0.0516082 67.925
-0.009375 1.54135e-21 0.0525189 38.0646
0.009375 0 0.0525189 38.8339
0.0109492 0 0.0522172 41.5574
-0.0109492 -2.71051e-20 0.0522172 42.0139
-0.0125 9.27368e-21 0.0519027 53.2937
0.0125 -2.10273e-20 0.0519027 55.1153
0.00875 1.13596e-28 0.0526652 36.7495
0.00873171 1.00974e-28 0.0526689 36.6174
0.0087938 -2.52435e-29 0.0526626 36.7137
-0.00875 -3.05518e-20 0.0526734 35.9487
0.00875 0 0.0526734 36.5539
0.0171875 0 0.0505593 339.647
-0.0171875 2.71051e-20 0.0505593 337.739
0.01375 -2.01948e-28 0.0516041 77.7777
0.0184375 -2.71051e-20 0.0501277 1928.5
-0.0184375 2.71051e-20 0.0501277 1928.52
0.005625 -1.0842e-19 0.0531412 27.4703
-0.005625 -5.42101e-20 0.0531412 27.28
-0.015 0 0.0513142 96.4981
0.015 -8.12596e-21 0.0513142 99.7877
0.0115508 2.71051e-20 0.0522172 43.1483
-0.0115508 -2.71051e-20 0.0522172 40.5175
0.0159375 -5.42101e-20 0.0510506 130.56
-0.0159375 5.42101e-20 0.0510506 126.735
0.0140625 2.71051e-20 0.0516082 68.0557
-0.0140625 2.71051e-20 0.0516082 65.2381
0.018125 5.30223e-22 0.0503316 1143.32
-0.018125 0 0.0503316 1142.31
0.016875 1.58766e-20 0.0507876 236.977
-0.016875 0 0.0507876 233.988
0.013125 0 0.0519027 55.3183
-0.013125 -1.00974e-28 0.0519027 53.3951
-0.0131442 1.00974e-28 0.0519027 53.3889
0.019375 -8.27181e-25 0.049924 1928.49
-0.019375 0 0.049924 1928.52
-0.010625 5.94834e-21 0.0525189 38.0171
0.010625 0 0.0525189 38.8831
0.006875 0 0.0531412 27.49
-0.006875 1.0842e-19 0.0531412 27.2775
0.0178125 -2.71051e-20 0.0505593 339.716
-0.0178125 5.42101e-20 0.0505593 337.631
-0.01 1.44557e-20 0.0526734 35.9019
0.01 0 0.0526734 36.6287
-0.0121992 0 0.0522172 41.9795
0.0121992 5.42101e-20 0.0522172 41.5994
0.0190625 0 0.0501277 1928.49
-0.0190625 0 0.0501277 1928.52
0.015625 -8.86306e-21 0.0513142 99.8458
-0.015625 -2.58494e-26 0.0513142 96.4197
0.0146875 -2.71051e-20 0.0516082 68.0533
-0.0146875 5.42101e-20 0.0516082 65.2408
0.013612 4.03897e-28 0.0519027 55.2446
-0.0165625 2.71051e-20 0.0510506 126.603
0.0165625 0 0.0510506 130.644
-0.01375 0 0.0519027 53.1926
0.01375 -4.03897e-28 0.0519027 55.2237
0.01875 9.28841e-21 0.0503316 1143.33
-0.01875 0 0.0503316 1142.29
0.0175 -5.74808e-21 0.0507876 237.014
-0.0175 0 0.0507876 233.918
1.97301e-12 -7.3451e-21 0.0537586 23.7596
0.008125 0 0.0531412 27.4942
-0.008125 5.42101e-20 0.0531412 27.2625
0.0128008 2.71051e-20 0.0522172 43.2039
-0.0128008 2.71051e-20 0.0522172 40.4218
-0.00125 3.54591e-20 0.0537586 23.7567
0.00125 -5.89569e-20 0.0537586 23.7596
0.02 -8.27181e-25 0.049924 1928.49
-0.02 0 0.049924 1928.52
-0.013125 -5.04871e-29 0.052175 46.5519
-0.0184375 0 0.0505593 337.633
0.0184375 2.71051e-20 0.0505593 339.685
-0.0025 -5.59568e-20 0.0537586 23.7489
0.0025 -2.57772e-20 0.0537586 23.7624
0.01625 1.33617e-20 0.0513142 99.9028
-0.01625 0 0.0513142 96.3386
-0.0153125 2.71051e-20 0.0516082 65.104
0.0153125 -2.71051e-20 0.0516082 68.1678
-0.011875 9.47211e-21 0.0525189 37.9801
0.011875 8.07794e-28 0.0525189 38.9303
0.0196875 -2.71051e-20 0.0501277 1928.49
-0.0196875 -2.71051e-20 0.0501277 1928.52
-0.014375 -6.46235e-27 0.0519027 53.2864
0.014375 -1.03281e-20 0.0519027 55.4477
-0.01125 3.29866e-20 0.0526734 35.8696
0.01125 0 0.0526734 36.6724
-0.0171875 2.71051e-20 0.0510506 126.548
0.0171875 -5.42101e-20 0.0510506 130.677
-0.00375 4.38668e-21 0.0537586 23.7437
0.00375 8.02079e-21 0.0537586 23.7731
0.0134492 2.71051e-20 0.0522172 41.6581
-0.0134492 0 0.0522172 41.901
0.018125 1.46023e-20 0.0507876 237.053
-0.018125 0 0.0507876 233.846
0.019375 1.06417e-20 0.0503316 1143.34
-0.019375 0 0.0503316 1142.26
0.009375 -5.42101e-20 0.0531412 27.5365
-0.009375 -5.42101e-20 0.0531412 27.2224
0.00875 0 0.0532622 29.6271
-0.005 -4.18383e-20 0.0537586 23.7426
0.005 2.70694e-20 0.0537586 23.779
0.0159375 0 0.0516082 68.1638
-0.0159375 2.71051e-20 0.0516082 65.1083
0.020625 -8.27181e-25 0.049924 1928.49
-0.020625 0 0.049924 1928.52
0.016875 -8.83382e-21 0.0513142 99.9598
-0.016875 0 0.0513142 96.2579
-0.015 0 0.0519027 53.0948
0.015 9.65631e-21 0.0519027 55.3245
-0.0190625 0 0.0505593 337.531
0.0190625 -2.71051e-20 0.0505593 339.761
-0.0178125 0 0.0510506 126.42
0.0178125 2.71051e-20 0.0510506 130.761
0.0140508 2.71051e-20 0.0522172 43.3524
-0.0140508 5.42101e-20 0.0522172 40.352
0.00592264 0 0.0537586 23.7803
0.0203125 0 0.0501277 1928.49
-0.0203125 2.71051e-20 0.0501277 1928.52
-0.00625 -2.53396e-20 0.0537586 23.7433
0.00625 0 0.0537586 23.7808
-0.0130036 1.00974e-28 0.0525489 37.5015
0.013125 0 0.0525189 38.978
-0.013125 -1.00974e-28 0.0525189 37.9067
-0.0125 -4.03897e-28 0.0526734 35.8212
0.0125 2.98549e-20 0.0526734 36.7127
0.01875 2.76306e-20 0.0507876 237.093
-0.01875 0 0.0507876 233.776
0.02 -5.70672e-21 0.0503316 1143.35
-0.02 0 0.0503316 1142.24
0.010625 -1.0842e-19 0.0531412 27.5478
-0.010625 0 0.0531412 27.2265
0.0165625 5.42101e-20 0.0516082 68.2769
-0.0165625 0 0.0516082 64.965
-0.015625 0 0.0519027 53.2042
0.015625 1.29054e-20 0.0519027 55.5307
0.0175 2.05552e-20 0.0513142 100.017
-0.0175 0 0.0513142 96.1781
0.0146992 0 0.0522172 41.7783
-0.0146992 -2.71051e-20 0.0522172 41.7923
-0.0196875 -5.42101e-20 0.0505593 337.533
0.0196875 -2.71051e-20 0.0505593 339.724
0.02125 0 0.049924 1928.49
-0.02125 0 0.049924 1928.52
-0.0184375 2.71051e-20 0.0510506 126.365
0.0184375 0 0.0510506 130.794
-0.0075 -1.26183e-20 0.0537586 23.7466
0.0075 2.52435e-29 0.0537586 23.7809
0.0209375 2.71051e-20 0.0501277 1928.49
-0.0209375 0 0.0501277 1928.52
0.0135499 0 0.0526239 37.4879
0.019375 7.74882e-21 0.0507876 237.132
-0.019375 -2.58494e-26 0.0507876 233.706
-0.0215198 2.06795e-25 0.049924 1928.52
-0.000625 5.42101e-20 0.0543834 20.1307
0.000625 5.42101e-20 0.0543834 20.1201
0.01625 3.16792e-20 0.0519027 55.4052
-0.01625 1.29247e-26 0.0519027 53.0022
0.020625 -5.43044e-22 0.0503316 1143.36
-0.020625 1.03398e-25 0.0503316 1142.21
0.0171875 -5.42101e-20 0.0516082 68.2746
-0.0171875 -2.71051e-20 0.0516082 64.9734
0.0153008 0 0.0522172 43.3948
-0.0153008 -5.42101e-20 0.0522172 40.333
0.001875 0 0.0543834 20.1063
-0.001875 -5.42101e-20 0.0543834 20.1471
0.018125 -3.85699e-21 0.0513142 100.073
-0.018125 0 0.0513142 96.0973
-0.01375 8.07794e-28 0.0526734 35.7671
0.01375 0 0.0526734 36.7862
-0.014375 0 0.0525189 37.8347
0.014375 -2.7182e-20 0.0525189 39.0889
0.011875 5.42101e-20 0.0531412 27.5843
-0.011875 0 0.0531412 27.2117
-0.00875 -2.37496e-20 0.0537586 23.7387
0.00875 0 0.0537586 23.7873
0.003125 -5.42101e-20 0.0543834 20.0976
-0.003125 0 0.0543834 20.1577
-0.0203125 0 0.0505593 337.43
0.0203125 2.71051e-20 0.0505593 339.8
-0.0190625 0 0.0510506 126.237
0.0190625 -5.42101e-20 0.0510506 130.879
-0.021875 0 0.049924 1928.52
0.021875 0 0.049924 1928.49
-0.004375 0 0.0543834 20.1731
0.004375 1.0842e-19 0.0543834 20.0849
-0.0215625 0 0.0501277 1928.52
0.0215625 2.71051e-20 0.0501277 1928.49
0.016875 2.35484e-20 0.0519027 55.5972
-0.016875 0 0.0519027 53.1125
0.02 -2.70281e-22 0.0507876 237.17
-0.02 0 0.0507876 233.634
0.0178125 0 0.0516082 68.3891
-0.0178125 -5.42101e-20 0.0516082 64.8299
0.0159492 2.71051e-20 0.0522172 41.8444
-0.0159492 -2.71051e-20 0.0522172 41.7513
0.01875 -2.62614e-20 0.0513142 100.13
-0.01875 1.29247e-26 0.0513142 96.0184
0.02125 -1.55992e-20 0.0503316 1143.37
-0.02125 0 0.0503316 1142.19
0.005625 -5.42101e-20 0.0543834 20.0742
-0.005625 0 0.0543834 20.1855
-0.01 2.36857e-20 0.0537586 23.7384
0.01 0 0.0537586 23.7951
-0.0196875 2.71051e-20 0.0510506 126.182
0.0196875 0 0.0510506 130.91
-0.0209375 2.71051e-20 0.0505593 337.438
0.0209375 -2.71051e-20 0.0505593 339.768
-0.0214884 2.58494e-26 0.0503316 1142.18
0.013125 5.42101e-20 0.0531412 27.6011
-0.013125 0 0.0531412 27.1828
0.0225 -4.1359e-25 0.049924 1928.49
-0.0225 0 0.049924 1928.52
-0.015 0 0.0526734 35.7225
0.015 4.54678e-20 0.0526734 36.8462
0.0175 6.60133e-21 0.0519027 55.4882
-0.0175 6.46235e-27 0.0519027 52.9006
0.0165508 0 0.0522172 43.4322
-0.0165508 5.42101e-20 0.0522172 40.2747
-0.015625 0 0.0525189 37.8088
0.015625 -3.07452e-20 0.0525189 39.1347
0.0184375 -2.71051e-20 0.0516082 68.3817
-0.0184375 5.42101e-20 0.0516082 64.8341
0.020625 5.67415e-21 0.0507876 237.21
-0.020625 0 0.0507876 233.565
0.006875 5.42101e-20 0.0543834 20.0596
-0.006875 0 0.0543834 20.2029
0.0221875 2.71051e-20 0.0501277 1928.49
-0.0221875 0 0.0501277 1928.52
0.019375 1.79601e-20 0.0513142 100.186
-0.019375 0 0.0513142 95.9388
0.021875 1.32033e-20 0.0503316 1143.37
-0.021875 8.27729e-21 0.0503316 1142.16
-0.01125 1.40225e-21 0.0537586 23.7455
0.01125 0 0.0537586 23.8017
-0.0203125 -2.71051e-20 0.0510506 126.052
0.0203125 -5.42101e-20 0.0510506 130.993
-0.0215625 0 0.0505593 337.327
0.0215625 2.71051e-20 0.0505593 339.834
0.018125 2.6136e-20 0.0519027 55.6928
-0.018125 0 0.0519027 52.985
-0.0171992 2.71051e-20 0.0522172 41.7186