# pMean  POINT_DATA 51980
# x  y  z  pMean
6.22958e-09 0 0.049924 0.00331203
-0.000624998 -2.06795e-25 0.049924 0.00331357
0.000625007 0 0.049924 0.00331049
0.000988987 0 0.049924 0.00330959
-0.00125 0 0.049924 0.00331512
0.00125 0 0.049924 0.00330895
0.00140263 1.03398e-25 0.049924 0.00330857
-0.001875 0 0.049924 0.00331666
0.001875 -4.1359e-25 0.049924 0.00330741
-0.0025 0 0.049924 0.00331821
0.0025 -4.1359e-25 0.049924 0.00330588
-0.003125 0 0.049924 0.00331976
0.003125 0 0.049924 0.00330436
0.00360469 2.06795e-25 0.049924 0.00330319
0.00374999 -2.06795e-25 0.049924 0.00330283
-0.00375 0 0.049924 0.00332131
0.00437499 0 0.049924 0.00330131
-0.004375 -8.27181e-25 0.049924 0.00332286
-0.000312498 0 0.0501277 0.00331282
0.000312503 -5.42101e-20 0.0501277 0.00331124
-0.0009375 -2.71051e-20 0.0501277 0.00331433
0.000937501 0 0.0501277 0.00330974
0.0015625 0 0.0501277 0.00330816
-0.0015625 -2.71051e-20 0.0501277 0.00331591
0.00499999 0 0.049924 0.00329978
-0.005 -8.27181e-25 0.049924 0.00332441
0.0021875 0 0.0501277 0.00330667
-0.0021875 0 0.0501277 0.00331742
0.00514699 1.03398e-25 0.049924 0.00329943
0.0028125 2.71051e-20 0.0501277 0.0033051
-0.0028125 2.71051e-20 0.0501277 0.00331901
0.00125 -1.03398e-25 0.0502211 0.003309
-0.005625 0 0.049924 0.00332596
0.005625 4.1359e-25 0.049924 0.00329826
-0.0034375 2.71051e-20 0.0501277 0.00332052
0.0034375 -2.71051e-20 0.0501277 0.00330362
0.0040625 -2.71051e-20 0.0501277 0.00330205
-0.0040625 2.71051e-20 0.0501277 0.00332211
-0.00625 -8.27181e-25 0.049924 0.00332749
0.00625 4.1359e-25 0.049924 0.00329675
1.28157e-09 1.17263e-20 0.0503316 0.0033121
-0.000625 -3.92611e-21 0.0503316 0.00331365
0.000625001 4.29919e-21 0.0503316 0.00331056
0.0046875 0 0.0501277 0.00330057
-0.0046875 0 0.0501277 0.00332362
-0.00125 2.92331e-20 0.0503316 0.00331519
0.00125 -5.0535e-21 0.0503316 0.00330902
0.00375 1.03398e-25 0.0502249 0.00330289
-0.001875 -2.7986e-20 0.0503316 0.00331673
0.001875 -3.60975e-20 0.0503316 0.00330748
-0.0025 -5.27038e-21 0.0503316 0.00331828
0.0025 1.75331e-20 0.0503316 0.00330595
-0.006875 0 0.049924 0.00332902
0.006875 0 0.049924 0.00329524
0.0053125 2.71051e-20 0.0501277 0.003299
-0.0053125 0 0.0501277 0.00332521
-0.003125 3.29059e-20 0.0503316 0.00331983
0.003125 4.69115e-21 0.0503316 0.00330443
0.00714844 0 0.049924 0.00329458
0.005 0 0.0502204 0.00329983
-0.00375 2.71357e-20 0.0503316 0.00332138
0.00375 2.61668e-20 0.0503316 0.0033029
0.0059375 2.71051e-20 0.0501277 0.00329753
-0.0059375 0 0.0501277 0.00332671
0.004375 2.58494e-26 0.0502915 0.00330137
-0.0075 8.27181e-25 0.049924 0.00333054
0.0075 -4.1359e-25 0.049924 0.00329373
-0.004375 -3.42097e-20 0.0503316 0.00332293
0.004375 -7.70777e-21 0.0503316 0.00330138
0.0065625 0 0.0501277 0.00329597
-0.0065625 0 0.0501277 0.00332828
-0.000312499 -5.42101e-20 0.0505593 0.00331301
0.000312501 0 0.0505593 0.00331136
0.000937501 -2.71051e-20 0.0505593 0.00330992
-0.0009375 0 0.0505593 0.00331444
-0.005 1.78977e-20 0.0503316 0.00332448
0.005 -2.34977e-20 0.0503316 0.00329985
-0.008125 0 0.049924 0.00333205
0.008125 -4.1359e-25 0.049924 0.00329223
0.0015625 2.71051e-20 0.0505593 0.00330827
-0.0015625 0 0.0505593 0.00331609
-0.0021875 0 0.0505593 0.00331753
0.0021875 0 0.0505593 0.00330685
-0.0028125 2.71051e-20 0.0505593 0.00331919
0.0028125 -2.71051e-20 0.0505593 0.00330521
0.0071875 -2.71051e-20 0.0501277 0.0032945
-0.0071875 0 0.0501277 0.00332976
-0.005625 -7.76309e-21 0.0503316 0.00332603
0.005625 1.7831e-20 0.0503316 0.00329833
-0.0034375 -2.71051e-20 0.0505593 0.00332063
0.0034375 5.42101e-20 0.0505593 0.00330379
-0.00875 0 0.049924 0.00333356
0.00875 0 0.049924 0.00329073
-0.00625 -8.4786e-23 0.0503316 0.00332757
0.00625 -1.90264e-20 0.0503316 0.00329682
-0.0040625 2.71051e-20 0.0505593 0.00332229
0.0040625 0 0.0505593 0.00330217
0.0078125 0 0.0501277 0.00329296
-0.0078125 0 0.0501277 0.00333132
0.00912371 2.06795e-25 0.049924 0.00328984
-0.0046875 0 0.0505593 0.00332372
0.0046875 0 0.0505593 0.00330075
5.63348e-10 -2.87501e-20 0.0507876 0.00331232
-0.000624999 -2.74702e-20 0.0507876 0.00331386
0.000625001 1.01751e-20 0.0507876 0.00331078
-0.009375 0 0.049924 0.00333507
0.009375 -2.06795e-25 0.049924 0.00328924
-0.006875 2.53241e-20 0.0503316 0.00332909
0.006875 0 0.0503316 0.00329531
-0.00125 -2.09751e-20 0.0507876 0.0033154
0.00125 1.19978e-20 0.0507876 0.00330924
-0.001875 5.96335e-21 0.0507876 0.00331694
0.001875 3.25443e-20 0.0507876 0.0033077
0.00705284 -2.58494e-26 0.0503316 0.00329488
0.0084375 0 0.0501277 0.0032915
-0.0084375 -2.71051e-20 0.0501277 0.00333279
-0.0053125 -2.71051e-20 0.0505593 0.00332538
0.0053125 5.42101e-20 0.0505593 0.00329911
-0.0025 -3.42134e-20 0.0507876 0.00331849
0.0025 -5.16988e-26 0.0507876 0.00330616
-0.003125 -1.38137e-20 0.0507876 0.00332004
0.003125 -3.26816e-20 0.0507876 0.00330463
-0.0075 2.46194e-20 0.0503316 0.00333061
0.0075 -5.16988e-26 0.0503316 0.0032938
-0.0059375 -2.71051e-20 0.0505593 0.00332682
0.0059375 0 0.0505593 0.00329771
-0.01 0 0.049924 0.00333658
0.01 2.06795e-25 0.049924 0.00328775
-0.00375 -1.02545e-20 0.0507876 0.00332159
0.00375 1.07251e-20 0.0507876 0.00330312
0.0090625 2.71051e-20 0.0501277 0.00328996
-0.0090625 -2.71051e-20 0.0501277 0.00333433
0.0102681 2.06795e-25 0.049924 0.00328711
-0.004375 2.47808e-20 0.0507876 0.00332314
0.004375 -1.37777e-22 0.0507876 0.0033016
-0.008125 -1.72223e-20 0.0503316 0.00333212
0.008125 0 0.0503316 0.0032923
0.0065625 -2.71051e-20 0.0505593 0.00329609
-0.0065625 0 0.0505593 0.00332847
-0.005 2.02011e-20 0.0507876 0.00332468
0.005 3.24252e-20 0.0507876 0.00330007
-0.010625 0 0.049924 0.00333809
0.010625 0 0.049924 0.00328626
0.0003125 0 0.0510506 0.00331138
-0.0003125 2.71051e-20 0.0510506 0.00331355
0.0096875 2.71051e-20 0.0501277 0.00328851
-0.0096875 2.71051e-20 0.0501277 0.0033358
-0.0009375 5.42101e-20 0.0510506 0.00331447
0.0009375 2.71051e-20 0.0510506 0.00331046
0.0071875 2.71051e-20 0.0505593 0.00329468
-0.0071875 0 0.0505593 0.00332987
-0.0015625 0 0.0510506 0.00331662
0.0015625 2.71051e-20 0.0510506 0.00330831
-0.00875 -2.83541e-20 0.0503316 0.00333363
0.00875 0 0.0503316 0.0032908
0.0021875 -2.71051e-20 0.0510506 0.00330739
-0.0021875 0 0.0510506 0.00331755
-0.005625 1.2862e-20 0.0507876 0.00332623
0.005625 -2.92521e-20 0.0507876 0.00329854
0.0028125 2.71051e-20 0.0510506 0.00330523
-0.0028125 2.71051e-20 0.0510506 0.00331971
-0.0111483 1.03398e-25 0.049924 0.00333935
0.0078125 0 0.0505593 0.00329306
-0.0078125 5.42101e-20 0.0505593 0.0033315
0.0034375 2.71051e-20 0.0510506 0.00330432
-0.0034375 -2.71051e-20 0.0510506 0.00332065
-0.00625 -1.47559e-21 0.0507876 0.00332779
0.00625 -5.31657e-21 0.0507876 0.00329704
0.01125 0 0.049924 0.00328478
-0.01125 0 0.049924 0.00333959
-0.0103125 0 0.0501277 0.00333735
0.0103125 0 0.0501277 0.00328698
0.009375 0 0.0503179 0.0032893
-0.009375 -1.14953e-20 0.0503316 0.00333514
0.009375 0 0.0503316 0.00328931
0.0040625 5.42101e-20 0.0510506 0.00330221
-0.0040625 -2.71051e-20 0.0510506 0.00332282
0.006875 0 0.0507876 0.00329552
0.00686707 0 0.0507876 0.00329554
-0.006875 8.36259e-21 0.0507876 0.0033293
0.0116034 -2.06795e-25 0.049924 0.00328394
0.0084375 -2.71051e-20 0.0505593 0.00329168
-0.0084375 0 0.0505593 0.0033329
0.0046875 2.71051e-20 0.0510506 0.0033013
-0.0046875 2.71051e-20 0.0510506 0.00332374
0.0109375 0 0.0501277 0.00328554
-0.0109375 0 0.0501277 0.00333882
0.01 4.00468e-20 0.0503316 0.00328781
2.53784e-10 1.68499e-20 0.0513142 0.0033126
-0.01 3.50388e-20 0.0503316 0.00333665
0.011875 0 0.049924 0.0032833
-0.011875 0 0.049924 0.00334109
-0.000625 7.82508e-21 0.0513142 0.00331414
0.000625 -1.80853e-20 0.0513142 0.00331105
0.0053125 -5.42101e-20 0.0510506 0.00329913
-0.0053125 2.71051e-20 0.0510506 0.00332589
-0.00125 -1.13517e-20 0.0513142 0.00331567
0.00125 5.15772e-21 0.0513142 0.0033095
-0.0075 -1.79102e-20 0.0507876 0.00333081
0.0075 2.58494e-26 0.0507876 0.00329401
-0.001875 -6.66403e-21 0.0513142 0.0033172
0.001875 0 0.0513142 0.00330797
0.0090625 0 0.0505593 0.00329007
-0.0090625 0 0.0505593 0.00333451
-0.0025 -2.30962e-20 0.0513142 0.00331875
0.0025 1.44985e-20 0.0513142 0.00330643
0.0059375 -2.71051e-20 0.0510506 0.00329825
-0.0059375 -2.71051e-20 0.0510506 0.00332686
-0.01125 1.03398e-25 0.0501523 0.00333963
-0.003125 1.14328e-20 0.0513142 0.00332031
0.003125 -2.52238e-22 0.0513142 0.0033049
-0.008125 2.54141e-21 0.0507876 0.00333233
0.008125 0 0.0507876 0.00329251
-0.010625 2.68064e-20 0.0503316 0.00333816
0.010625 0 0.0503316 0.00328633
0.0115625 -2.71051e-20 0.0501277 0.00328402
-0.0115625 2.71051e-20 0.0501277 0.00334037
-0.00375 -2.79524e-20 0.0513142 0.00332186
0.00375 3.27256e-21 0.0513142 0.00330339
0.0125 -2.06795e-25 0.049924 0.00328183
-0.0125 0 0.049924 0.00334259
0.0065625 0 0.0510506 0.00329612
-0.0065625 -2.71051e-20 0.0510506 0.00332901
0.0096875 2.71051e-20 0.0505593 0.00328868
-0.0096875 2.71051e-20 0.0505593 0.00333592
-0.004375 5.50359e-21 0.0513142 0.0033234
0.004375 1.26683e-20 0.0513142 0.00330188
0.0127663 0 0.049924 0.0032812
-0.00875 6.9629e-21 0.0507876 0.00333384
0.00875 -2.58494e-26 0.0507876 0.00329102
-0.0071875 2.71051e-20 0.0510506 0.00332988
0.0071875 0 0.0510506 0.00329522
-0.005 -4.97735e-21 0.0513142 0.00332494
0.005 -6.25853e-21 0.0513142 0.00330034
-0.01125 -6.51818e-21 0.0503316 0.00333967
0.01125 0 0.0503316 0.00328485
0.0121875 0 0.0501277 0.00328259
-0.0121875 0 0.0501277 0.00334183
0.0103125 -2.71051e-20 0.0505593 0.00328708
-0.0103125 0 0.0505593 0.00333754
-0.0003125 0 0.0516082 0.00331629
0.0003125 0 0.0516082 0.00330919
-0.0009375 -2.71051e-20 0.0516082 0.00331228
0.0009375 2.71051e-20 0.0516082 0.00331319
0.013125 -4.1359e-25 0.049924 0.00328036
-0.013125 -2.06795e-25 0.049924 0.00334408
-0.005625 -1.52307e-20 0.0513142 0.00332651
0.005625 7.30174e-22 0.0513142 0.00329881
0.0015625 -2.71051e-20 0.0516082 0.00330608
-0.0015625 2.71051e-20 0.0516082 0.00331932
-0.011875 0 0.0502523 0.00334116
-0.0078125 0 0.0510506 0.00333201
0.0078125 0 0.0510506 0.00329308
-0.009375 -2.14048e-20 0.0507876 0.00333535
0.009375 0 0.0507876 0.00328952
-0.0021875 0 0.0516082 0.00331534
0.0021875 2.71051e-20 0.0516082 0.00331011
-0.0133161 1.03398e-25 0.049924 0.00334454
-0.0028125 2.71051e-20 0.0516082 0.00332243
0.0028125 -2.71051e-20 0.0516082 0.00330301
-0.00625 -2.50693e-21 0.0513142 0.00332807
0.00625 5.3355e-21 0.0513142 0.00329731
0.0118397 1.9387e-26 0.0503316 0.00328346
-0.011875 -2.21327e-20 0.0503316 0.00334117
0.011875 0 0.0503316 0.00328337
0.00644159 1.61559e-27 0.0513142 0.00329684
-0.0034375 0 0.0516082 0.00331847
0.0034375 0 0.0516082 0.00330707
0.0109375 -2.71051e-20 0.0505593 0.00328571
-0.0109375 0 0.0505593 0.00333894
0.0135706 1.03398e-25 0.049924 0.00327931
0.0128125 0 0.0501277 0.00328107
-0.0128125 2.71051e-20 0.0501277 0.00334337
-0.0084375 0 0.0510506 0.00333293
0.0084375 2.71051e-20 0.0510506 0.00329221
-0.01 2.03316e-20 0.0507876 0.00333686
0.01 -1.29247e-26 0.0507876 0.00328802
-0.0040625 2.71051e-20 0.0516082 0.00332551
0.0040625 2.71051e-20 0.0516082 0.00329999
-0.006875 -4.113e-21 0.0513142 0.00332958
0.006875 -3.23117e-27 0.0513142 0.0032958
-0.01375 0 0.049924 0.00334557
0.01375 0 0.049924 0.0032789
0.011875 3.23117e-27 0.0504267 0.00328342
-0.0046875 2.71051e-20 0.0516082 0.00332155
0.0046875 -5.42101e-20 0.0516082 0.00330404
-0.0125 1.03398e-25 0.0503053 0.00334266
-0.0090625 -2.71051e-20 0.0510506 0.00333504
0.0090625 2.71051e-20 0.0510506 0.00329011
-0.0075 3.03074e-21 0.0513142 0.00333107
0.0075 0 0.0513142 0.00329428
-0.0125 -2.68446e-20 0.0503316 0.00334267
0.0125 0 0.0503316 0.0032819
-0.0115625 2.71051e-20 0.0505593 0.00334056
0.0115625 2.71051e-20 0.0505593 0.00328412
0.0125235 1.61559e-27 0.0503316 0.00328184
-0.0053125 -5.42101e-20 0.0516082 0.0033286
0.0053125 -2.71051e-20 0.0516082 0.00329689
-0.010625 3.97873e-20 0.0507876 0.00333837
0.010625 0 0.0507876 0.00328654
0.0134375 0 0.0501277 0.00327964
-0.0134375 5.42101e-20 0.0501277 0.00334481
8.77282e-11 -1.09018e-20 0.0519027 0.0033135
-0.000625 -9.43679e-21 0.0519027 0.00331505
0.000625 1.50401e-20 0.0519027 0.00331195
0.0125 0 0.0503842 0.00328192
-0.00125 -7.54045e-21 0.0519027 0.00331656
0.00125 2.37819e-20 0.0519027 0.00331042
-0.001875 1.68883e-20 0.0519027 0.00331808
0.001875 -4.19535e-21 0.0519027 0.00330889
-0.0059375 0 0.0516082 0.0033247
0.0059375 -2.71051e-20 0.0516082 0.003301
-0.014375 -4.1359e-25 0.049924 0.00334705
0.014375 2.06795e-25 0.049924 0.00327744
-0.008125 2.95148e-21 0.0513142 0.00333259
0.008125 6.46235e-27 0.0513142 0.00329277
-0.0096875 2.71051e-20 0.0510506 0.00333594
0.0096875 0 0.0510506 0.00328923
-0.0025 1.05219e-21 0.0519027 0.00331963
0.0025 1.43095e-20 0.0519027 0.00330733
-0.013125 0 0.0502895 0.00334415
-0.003125 -1.62218e-20 0.0519027 0.00332121
0.003125 -1.23879e-20 0.0519027 0.0033058
0.0145727 1.03398e-25 0.049924 0.00327697
0.0121875 -2.71051e-20 0.0505593 0.00328276
-0.0121875 0 0.0505593 0.00334195
0.013125 -2.58494e-26 0.0503316 0.00328043
-0.013125 6.48205e-21 0.0503316 0.00334416
-0.01125 -2.10636e-20 0.0507876 0.00333988
0.01125 0 0.0507876 0.00328506
-0.0065625 -2.71051e-20 0.0516082 0.00333171
0.0065625 0 0.0516082 0.00329388
-0.00375 2.20631e-20 0.0519027 0.00332274
0.00375 -8.12072e-21 0.0519027 0.00330431
-0.00875 1.95381e-20 0.0513142 0.00333411
0.00875 6.46235e-27 0.0513142 0.00329129
-0.0140625 0 0.0501277 0.00334633
0.0140625 2.71051e-20 0.0501277 0.00327815
0.00625 8.07794e-28 0.0517029 0.00329792
-0.0103125 -2.71051e-20 0.0510506 0.00333806
0.0103125 -2.71051e-20 0.0510506 0.0032871
-0.004375 1.01795e-20 0.0519027 0.00332426
0.004375 1.59287e-20 0.0519027 0.00330281
-0.0071875 0 0.0516082 0.00332772
0.0071875 2.71051e-20 0.0516082 0.00329798
-0.015 0 0.049924 0.00334852
0.015 0 0.049924 0.00327597
0.01375 -3.87741e-26 0.05029 0.00327896
-0.005 2.43681e-21 0.0519027 0.00332582
0.005 5.30582e-21 0.0519027 0.00330125
-0.011875 5.37949e-21 0.0507876 0.00334139
0.011875 0 0.0507876 0.00328359
-0.0128125 0 0.0505593 0.00334355
0.0128125 2.71051e-20 0.0505593 0.00328117
-0.009375 1.34815e-20 0.0513142 0.00333562
0.009375 0 0.0513142 0.00328981
-0.01375 -7.12792e-21 0.0503316 0.00334564
0.01375 0 0.0503316 0.00327896
-0.0078125 -2.71051e-20 0.0516082 0.00333469
0.0078125 0 0.0516082 0.00329083
-0.005625 -2.12236e-20 0.0519027 0.00332741
0.005625 1.47539e-20 0.0519027 0.00329972
-0.0109375 0 0.0510506 0.00333897
0.0109375 0 0.0510506 0.00328625
-0.000300834 2.71051e-20 0.0522172 0.00333331
0.000300834 -2.71051e-20 0.0522172 0.0032952
-0.000949166 2.71051e-20 0.0522172 0.00329838
0.000949166 -2.71051e-20 0.0522172 0.00333025
0.00587272 -4.03897e-28 0.0519027 0.00329913
-0.0146875 0 0.0501277 0.00334777
0.0146875 2.71051e-20 0.0501277 0.00327672
-0.00155083 2.71051e-20 0.0522172 0.00333628
0.00155083 5.42101e-20 0.0522172 0.00329215
-0.00219917 2.71051e-20 0.0522172 0.00330143
0.00219917 2.71051e-20 0.0522172 0.00332725
-0.00625 3.95404e-20 0.0519027 0.00332897
0.00625 -8.07794e-28 0.0519027 0.00329823
-0.01 -8.27057e-21 0.0513142 0.00333714
0.01 6.46235e-27 0.0513142 0.00328829
-0.00280083 2.71051e-20 0.0522172 0.00333935
0.00280083 0 0.0522172 0.00328895
-0.0084375 -2.71051e-20 0.0516082 0.00333077
0.0084375 2.71051e-20 0.0516082 0.00329497
-0.0125 1.51087e-20 0.0507876 0.00334289
0.0125 1.29247e-26 0.0507876 0.00328211
-0.015625 -4.1359e-25 0.049924 0.00334999
0.015625 0 0.049924 0.00327452
0.0134375 -2.71051e-20 0.0505593 0.00327982
-0.0134375 0 0.0505593 0.00334492
0.0143114 8.07794e-27 0.0503316 0.00327765
0.00344917 -2.71051e-20 0.0522172 0.00332422
-0.00344917 0 0.0522172 0.00330464
-0.0115625 -2.71051e-20 0.0510506 0.00334109
0.0115625 -2.71051e-20 0.0510506 0.00328417
-0.014375 2.89451e-21 0.0503316 0.00334712
0.014375 -1.16321e-20 0.0503316 0.0032775
-0.006875 2.5163e-20 0.0519027 0.00333046
0.006875 1.61559e-27 0.0519027 0.00329673
0.00405083 0 0.0522172 0.00328596
-0.00405083 2.71051e-20 0.0522172 0.00334234
0.0144908 1.61559e-27 0.0503316 0.00327723
0.0158409 -2.06795e-25 0.049924 0.00327402
-0.0090625 2.71051e-20 0.0516082 0.00333772
0.0090625 -2.71051e-20 0.0516082 0.00328787
-0.0159165 -2.06795e-25 0.049924 0.00335067
-0.010625 -2.12508e-20 0.0513142 0.00333865
0.010625 -1.29247e-26 0.0513142 0.0032868
-0.0153125 -2.71051e-20 0.0501277 0.00334928
0.0153125 -2.71051e-20 0.0501277 0.00327522
-0.00469917 0 0.0522172 0.00330768
0.00469917 0 0.0522172 0.00332127
-0.0075 1.78217e-20 0.0519027 0.00333197
0.0075 0 0.0519027 0.00329519
0.013125 1.29247e-26 0.0507876 0.00328064
-0.013125 -8.08161e-21 0.0507876 0.00334437
0.0140625 0 0.0505593 0.00327824
-0.0140625 2.71051e-20 0.0505593 0.00334652
-0.0121875 2.71051e-20 0.0510506 0.00334199
0.0121875 -2.71051e-20 0.0510506 0.00328331
0.00530083 -2.71051e-20 0.0522172 0.00328278
-0.00530083 0 0.0522172 0.00334543
0.01625 0 0.049924 0.00327308
-0.01625 -4.1359e-25 0.049924 0.00335145
-0.0096875 2.71051e-20 0.0516082 0.00333381
0.0096875 0 0.0516082 0.00329202
-0.015 0 0.0503316 0.0033486
0.015 0 0.0503316 0.00327604
-0.000625 5.33438e-22 0.0525189 0.00331527
0.000625 -1.33487e-20 0.0525189 0.00331212
-0.01125 -2.74102e-20 0.0513142 0.00334017
0.01125 0 0.0513142 0.00328533
-0.008125 1.52431e-20 0.0519027 0.00333351
0.008125 0 0.0519027 0.00329367
0.0151033 0 0.0503316 0.0032758
-0.001875 2.35405e-21 0.0525189 0.00331824
0.001875 3.21295e-20 0.0525189 0.00330913
0.00594917 0 0.0522172 0.00331825
-0.00594917 -2.71051e-20 0.0522172 0.00331097
0.0159375 2.71051e-20 0.0501277 0.00327382
-0.0159375 0 0.0501277 0.0033507
-0.003125 8.01339e-21 0.0525189 0.00332142
0.003125 -4.02828e-20 0.0525189 0.00330598
-0.01375 5.22125e-21 0.0507876 0.00334585
0.01375 6.46235e-27 0.0507876 0.00327918
0.00655083 -2.71051e-20 0.0522172 0.00327978
-0.00655083 -2.71051e-20 0.0522172 0.00334849
0.0103125 -5.42101e-20 0.0516082 0.00328482
-0.0103125 -2.71051e-20 0.0516082 0.00334075
0.015 0 0.0504481 0.00327609
0.0128125 0 0.0510506 0.0032812
-0.0128125 0 0.0510506 0.00334408
-0.00875 -2.5553e-21 0.0519027 0.00333501
0.00875 -8.07794e-28 0.0519027 0.0032922
0.015625 0 0.0502715 0.00327457
0.0146875 5.42101e-20 0.0505593 0.00327689
-0.0146875 0 0.0505593 0.00334788
-0.011875 2.80962e-21 0.0513142 0.00334168
0.011875 6.46235e-27 0.0513142 0.00328386
1.92914e-11 -1.12037e-20 0.0526734 0.0033133
-0.0155615 -6.46235e-27 0.0503316 0.00334992
0.0140137 3.23117e-27 0.0507876 0.00327856
-0.00125 -1.34373e-20 0.0526734 0.00331636
0.00125 1.27631e-20 0.0526734 0.00331024
-0.015625 0 0.0503227 0.00335007
0.016875 0 0.049924 0.00327163
-0.016875 0 0.049924 0.0033529
-0.004375 -6.24957e-21 0.0525189 0.00332441
0.004375 -6.40359e-22 0.0525189 0.00330305
0.015625 -3.82285e-20 0.0503316 0.00327458
-0.015625 6.46235e-27 0.0503316 0.00335007
0.00719917 5.42101e-20 0.0522172 0.00331531
-0.00719917 -2.71051e-20 0.0522172 0.00331398
-0.0025 -2.04175e-20 0.0526734 0.00331942
0.0025 1.18481e-20 0.0526734 0.00330716
-0.009375 7.16093e-22 0.0519027 0.0033365
0.009375 0 0.0519027 0.00329073
-0.0109375 0 0.0516082 0.00333685
0.0109375 0 0.0516082 0.00328901
0.014375 -6.46235e-27 0.0507876 0.00327772
-0.014375 -3.23117e-27 0.0507876 0.00334733
0.005625 0 0.0524826 0.00329991
0.0134375 -2.71051e-20 0.0510506 0.00328037
-0.0134375 2.71051e-20 0.0510506 0.00334496
0.0165625 0 0.0501277 0.00327234
-0.0165625 2.71051e-20 0.0501277 0.0033522
0.00780083 2.71051e-20 0.0522172 0.00327662
-0.00780083 0 0.0522172 0.00335148
-0.00375 -7.39947e-21 0.0526734 0.00332252
0.00375 -1.93794e-20 0.0526734 0.00330413
-0.0144814 0 0.0507876 0.00334758
-0.0125 -1.69344e-20 0.0513142 0.00334317
0.0125 0 0.0513142 0.00328237
-0.005625 -2.13475e-21 0.0525189 0.00332763
0.005625 0 0.0525189 0.00329992
-0.0153125 0 0.0505593 0.00334947
0.0153125 0 0.0505593 0.00327531
0.00556277 0 0.0525343 0.00330004
-0.01 -6.03346e-21 0.0519027 0.00333802
0.01 0 0.0519027 0.00328919
-0.014375 -1.61559e-27 0.05088 0.00334738
-0.015 0 0.050715 0.00334877
0.0115625 -2.71051e-20 0.0516082 0.00328188
-0.0115625 -2.71051e-20 0.0516082 0.00334377
0.01625 4.1083e-21 0.0503316 0.00327314
-0.01625 0 0.0503316 0.00335153
-0.00844917 -2.71051e-20 0.0522172 0.00331714
0.00844917 -5.42101e-20 0.0522172 0.00331229
0.0175 8.27181e-25 0.049924 0.00327019
-0.0175 0 0.049924 0.00335433
-0.005 -2.94714e-20 0.0526734 0.00332561
0.005 -2.76582e-20 0.0526734 0.00330108
-0.01375 3.23117e-27 0.0511329 0.00334603
0.0140625 -2.71051e-20 0.0510506 0.0032783
-0.0140625 2.71051e-20 0.0510506 0.00334703
0.015 -5.6505e-21 0.0507876 0.00327624
-0.015 -1.29247e-26 0.0507876 0.0033488
0.013125 0 0.0513142 0.0032809
-0.013125 3.23117e-27 0.0513142 0.00334465
-0.006875 1.71728e-20 0.0525189 0.00333062
0.006875 0 0.0525189 0.00329698
-0.010625 -5.72655e-21 0.0519027 0.00333956
0.010625 0 0.0519027 0.00328769
-0.0171875 2.71051e-20 0.0501277 0.0033536
0.0171875 2.71051e-20 0.0501277 0.00327093
-0.00905083 -2.71051e-20 0.0522172 0.0033544
0.00905083 0 0.0522172 0.00327366
-0.0159375 2.71051e-20 0.0505593 0.00335082
0.0159375 2.71051e-20 0.0505593 0.00327399
-0.0133662 0 0.0513142 0.00334522
0.0121875 0 0.0516082 0.00328606
-0.0121875 2.71051e-20 0.0516082 0.00333987
-0.00625 -2.72028e-21 0.0526734 0.00332875
0.00625 0 0.0526734 0.00329807
-0.0180376 1.03398e-25 0.049924 0.00335555
0.016875 -8.6643e-21 0.0503316 0.0032717
-0.016875 0 0.0503316 0.00335298
-0.01125 -2.18765e-20 0.0519027 0.00334106
0.01125 3.23117e-27 0.0519027 0.00328624
-0.00969917 0 0.0522172 0.00332011
0.00969917 -5.42101e-20 0.0522172 0.00330937
0.018125 0 0.049924 0.00326876
-0.018125 0 0.049924 0.00335575
0.0146875 0 0.0510506 0.00327746
-0.0146875 2.71051e-20 0.0510506 0.0033479
-0.01375 3.23117e-27 0.0513142 0.00334612
0.01375 0 0.0513142 0.00327945
0.0137797 -4.03897e-28 0.0513142 0.00327938
0.015625 1.82963e-20 0.0507876 0.00327479
-0.015625 0 0.0507876 0.00335027
-0.008125 -2.13614e-20 0.0525189 0.00333376
0.008125 2.01948e-28 0.0525189 0.00329385
-0.000625 0 0.0531412 0.00331341
0.000625 0 0.0531412 0.00331014
-0.018235 -5.16988e-26 0.049924 0.003356
0.001875 5.42101e-20 0.0531412 0.00330728
-0.001875 0 0.0531412 0.00331622
-0.0128125 0 0.0516082 0.00334676
0.0128125 0 0.0516082 0.00327889
-0.0178125 0 0.0501277 0.00335506
0.0178125 -2.71051e-20 0.0501277 0.00326945
-0.0165625 0 0.0505593 0.00335238
0.0165625 0 0.0505593 0.00327243
-0.0075 -2.26406e-20 0.0526734 0.00333179
0.0075 4.03897e-28 0.0526734 0.00329501
-0.0103008 2.71051e-20 0.0522172 0.00335741
0.0103008 -2.71051e-20 0.0522172 0.00327054
0.003125 -5.42101e-20 0.0531412 0.00330402
-0.003125 -5.42101e-20 0.0531412 0.00331954
-0.011875 -1.71436e-20 0.0519027 0.00334254
0.011875 0 0.0519027 0.00328477
0.0175 -2.1395e-20 0.0503316 0.00327026
-0.0175 -1.03398e-25 0.0503316 0.00335441
-0.018125 0 0.0501124 0.00335579
-0.014375 0 0.0513142 0.00334758
0.014375 6.46235e-27 0.0513142 0.00327799
0.0153125 0 0.0510506 0.00327533
-0.0153125 0 0.0510506 0.00334997
0.004375 0 0.0531412 0.0033012
-0.004375 5.42101e-20 0.0531412 0.00332243
0.01625 -3.1465e-20 0.0507876 0.00327335
-0.01625 0 0.0507876 0.00335173
0.01875 -8.27181e-25 0.049924 0.00326733
-0.01875 0 0.049924 0.00335716
-0.0134375 2.71051e-20 0.0516082 0.00334283
0.0134375 -2.71051e-20 0.0516082 0.00328314
-0.009375 1.54135e-21 0.0525189 0.00333665
0.009375 0 0.0525189 0.00329095
0.0109492 0 0.0522172 0.00330641
-0.0109492 -2.71051e-20 0.0522172 0.00332327
-0.0125 9.27368e-21 0.0519027 0.00334403
0.0125 -2.10273e-20 0.0519027 0.00328326
0.00875 1.13596e-28 0.0526652 0.00329201
0.00873171 1.00974e-28 0.0526689 0.00329206
0.0087938 -2.52435e-29 0.0526626 0.00329194
-0.00875 -3.05518e-20 0.0526734 0.00333482
0.00875 0 0.0526734 0.00329201
0.0171875 0 0.0505593 0.0032711
-0.0171875 2.71051e-20 0.0505593 0.00335372
0.01375 -2.01948e-28 0.0516041 0.0032799
0.0184375 -2.71051e-20 0.0501277 0.00326806
-0.0184375 2.71051e-20 0.0501277 0.00335644
0.005625 -1.0842e-19 0.0531412 0.00329796
-0.005625 -5.42101e-20 0.0531412 0.00332576
-0.015 0 0.0513142 0.00334905
0.015 -8.12596e-21 0.0513142 0.0032765
0.0115508 2.71051e-20 0.0522172 0.00326762
-0.0115508 -2.71051e-20 0.0522172 0.00336034
0.0159375 -5.42101e-20 0.0510506 0.00327454
-0.0159375 5.42101e-20 0.0510506 0.00335082
0.0140625 2.71051e-20 0.0516082 0.00327601
-0.0140625 2.71051e-20 0.0516082 0.00334967
0.018125 5.30223e-22 0.0503316 0.00326882
-0.018125 0 0.0503316 0.00335583
0.016875 1.58766e-20 0.0507876 0.00327191
-0.016875 0 0.0507876 0.00335318
0.013125 0 0.0519027 0.00328179
-0.013125 -1.00974e-28 0.0519027 0.00334553
-0.0131442 1.00974e-28 0.0519027 0.00334557
0.019375 -8.27181e-25 0.049924 0.00326592
-0.019375 0 0.049924 0.00335856
-0.010625 5.94834e-21 0.0525189 0.00333978
0.010625 0 0.0525189 0.00328787
0.006875 0 0.0531412 0.00329512
-0.006875 1.0842e-19 0.0531412 0.00332862
0.0178125 -2.71051e-20 0.0505593 0.00326955
-0.0178125 5.42101e-20 0.0505593 0.00335525
-0.01 1.44557e-20 0.0526734 0.00333782
0.01 0 0.0526734 0.003289
-0.0121992 0 0.0522172 0.00332622
0.0121992 5.42101e-20 0.0522172 0.00330353
0.0190625 0 0.0501277 0.0032666
-0.0190625 0 0.0501277 0.00335788
0.015625 -8.86306e-21 0.0513142 0.00327504
-0.015625 -2.58494e-26 0.0513142 0.00335052
0.0146875 -2.71051e-20 0.0516082 0.00328022
-0.0146875 5.42101e-20 0.0516082 0.00334573
0.013612 4.03897e-28 0.0519027 0.00328067
-0.0165625 2.71051e-20 0.0510506 0.00335288
0.0165625 0 0.0510506 0.00327247
-0.01375 0 0.0519027 0.00334698
0.01375 -4.03897e-28 0.0519027 0.00328036
0.01875 9.28841e-21 0.0503316 0.00326739
-0.01875 0 0.0503316 0.00335724
0.0175 -5.74808e-21 0.0507876 0.00327046
-0.0175 0 0.0507876 0.00335461
1.97301e-12 -7.3451e-21 0.0537586 0.00331285
0.008125 0 0.0531412 0.00329185
-0.008125 5.42101e-20 0.0531412 0.00333193
0.0128008 2.71051e-20 0.0522172 0.00326454
-0.0128008 2.71051e-20 0.0522172 0.00336328
-0.00125 3.54591e-20 0.0537586 0.00331588
0.00125 -5.89569e-20 0.0537586 0.0033098
0.02 -8.27181e-25 0.049924 0.00326451
-0.02 0 0.049924 0.00335995
-0.013125 -5.04871e-29 0.052175 0.0033456
-0.0184375 0 0.0505593 0.00335656
0.0184375 2.71051e-20 0.0505593 0.00326822
-0.0025 -5.59568e-20 0.0537586 0.00331892
0.0025 -2.57772e-20 0.0537586 0.00330676
0.01625 1.33617e-20 0.0513142 0.00327361
-0.01625 0 0.0513142 0.00335198
-0.0153125 2.71051e-20 0.0516082 0.00335259
0.0153125 -2.71051e-20 0.0516082 0.00327301
-0.011875 9.47211e-21 0.0525189 0.00334266
0.011875 8.07794e-28 0.0525189 0.003285
0.0196875 -2.71051e-20 0.0501277 0.00326523
-0.0196875 -2.71051e-20 0.0501277 0.00335924
-0.014375 -6.46235e-27 0.0519027 0.00334841
0.014375 -1.03281e-20 0.0519027 0.00327891
-0.01125 3.29866e-20 0.0526734 0.00334084
0.01125 0 0.0526734 0.00328605
-0.0171875 2.71051e-20 0.0510506 0.00335373
0.0171875 -5.42101e-20 0.0510506 0.00327165
-0.00375 4.38668e-21 0.0537586 0.003322
0.00375 8.02079e-21 0.0537586 0.00330374
0.0134492 2.71051e-20 0.0522172 0.0033006
-0.0134492 0 0.0522172 0.00332927
0.018125 1.46023e-20 0.0507876 0.00326902
-0.018125 0 0.0507876 0.00335603
0.019375 1.06417e-20 0.0503316 0.00326598
-0.019375 0 0.0503316 0.00335864
0.009375 -5.42101e-20 0.0531412 0.00328906
-0.009375 -5.42101e-20 0.0531412 0.00333469
0.00875 0 0.0532622 0.00329182
-0.005 -4.18383e-20 0.0537586 0.0033251
0.005 2.70694e-20 0.0537586 0.00330072
0.0159375 0 0.0516082 0.0032773
-0.0159375 2.71051e-20 0.0516082 0.0033487
0.020625 -8.27181e-25 0.049924 0.0032631
-0.020625 0 0.049924 0.00336132
0.016875 -8.83382e-21 0.0513142 0.00327216
-0.016875 0 0.0513142 0.00335344
-0.015 0 0.0519027 0.00334988
0.015 9.65631e-21 0.0519027 0.00327741
-0.0190625 0 0.0505593 0.00335807
0.0190625 -2.71051e-20 0.0505593 0.00326669
-0.0178125 0 0.0510506 0.00335575
0.0178125 2.71051e-20 0.0510506 0.00326956
0.0140508 2.71051e-20 0.0522172 0.00326168
-0.0140508 5.42101e-20 0.0522172 0.00336612
0.00592264 0 0.0537586 0.00329849
0.0203125 0 0.0501277 0.00326378
-0.0203125 2.71051e-20 0.0501277 0.00336066
-0.00625 -2.53396e-20 0.0537586 0.00332819
0.00625 0 0.0537586 0.0032977
-0.0130036 1.00974e-28 0.0525489 0.00334532
0.013125 0 0.0525189 0.00328196
-0.013125 -1.00974e-28 0.0525189 0.0033457
-0.0125 -4.03897e-28 0.0526734 0.00334378
0.0125 2.98549e-20 0.0526734 0.00328307
0.01875 2.76306e-20 0.0507876 0.0032676
-0.01875 0 0.0507876 0.00335745
0.02 -5.70672e-21 0.0503316 0.00326457
-0.02 0 0.0503316 0.00336002
0.010625 -1.0842e-19 0.0531412 0.00328588
-0.010625 0 0.0531412 0.00333793
0.0165625 5.42101e-20 0.0516082 0.00327013
-0.0165625 0 0.0516082 0.00335552
-0.015625 0 0.0519027 0.00335137
0.015625 1.29054e-20 0.0519027 0.00327595
0.0175 2.05552e-20 0.0513142 0.00327071
-0.0175 0 0.0513142 0.00335488
0.0146992 0 0.0522172 0.00329777
-0.0146992 -2.71051e-20 0.0522172 0.00333214
-0.0196875 -5.42101e-20 0.0505593 0.00335935
0.0196875 -2.71051e-20 0.0505593 0.00326539
0.02125 0 0.049924 0.0032617
-0.02125 0 0.049924 0.00336269
-0.0184375 2.71051e-20 0.0510506 0.00335658
0.0184375 0 0.0510506 0.00326876
-0.0075 -1.26183e-20 0.0537586 0.00333126
0.0075 2.52435e-29 0.0537586 0.00329467
0.0209375 2.71051e-20 0.0501277 0.00326242
-0.0209375 0 0.0501277 0.00336199
0.0135499 0 0.0526239 0.00328074
0.019375 7.74882e-21 0.0507876 0.00326618
-0.019375 -2.58494e-26 0.0507876 0.00335884
-0.0215198 2.06795e-25 0.049924 0.00336328
-0.000625 5.42101e-20 0.0543834 0.00331588
0.000625 5.42101e-20 0.0543834 0.00331199
0.01625 3.16792e-20 0.0519027 0.00327452
-0.01625 1.29247e-26 0.0519027 0.00335282
0.020625 -5.43044e-22 0.0503316 0.00326316
-0.020625 1.03398e-25 0.0503316 0.0033614
0.0171875 -5.42101e-20 0.0516082 0.00327441
-0.0171875 -2.71051e-20 0.0516082 0.00335162
0.0153008 0 0.0522172 0.00325864
-0.0153008 -5.42101e-20 0.0522172 0.00336902
0.001875 0 0.0543834 0.00330982
-0.001875 -5.42101e-20 0.0543834 0.00331803
0.018125 -3.85699e-21 0.0513142 0.00326926
-0.018125 0 0.0513142 0.0033563
-0.01375 8.07794e-28 0.0526734 0.00334672
0.01375 0 0.0526734 0.00328016
-0.014375 0 0.0525189 0.00334852
0.014375 -2.7182e-20 0.0525189 0.00327914
0.011875 5.42101e-20 0.0531412 0.0032831
-0.011875 0 0.0531412 0.00334064
-0.00875 -2.37496e-20 0.0537586 0.00333427
0.00875 0 0.0537586 0.00329166
0.003125 -5.42101e-20 0.0543834 0.00330594