# UMean  POINT_DATA 51980
# x  y  z  UMean_x  UMean_y  UMean_z
6.22958e-09 0 0.049924 2.636e-08 -2.67378e-10 1.20861e-12
-0.000624998 -2.06795e-25 0.049924 3.80665e-08 -3.91938e-10 1.80868e-12
0.000625007 0 0.049924 3.95792e-08 -3.95357e-10 1.82044e-12
0.000988987 0 0.049924 0 0 0
-0.00125 0 0.049924 6.49036e-08 -6.77934e-10 3.46262e-12
0.00125 0 0.049924 2.68779e-08 -1.88163e-10 1.77675e-12
0.00140263 1.03398e-25 0.049924 0 0 0
-0.001875 0 0.049924 9.08633e-08 -9.6292e-10 5.58437e-12
0.001875 -4.1359e-25 0.049924 8.15569e-08 -7.89181e-10 4.8439e-12
-0.0025 0 0.049924 1.06275e-07 -1.14285e-09 6.93688e-12
0.0025 -4.1359e-25 0.049924 8.89789e-08 -8.48482e-10 6.92461e-12
-0.003125 0 0.049924 1.13696e-07 -1.24045e-09 7.03121e-12
0.003125 0 0.049924 8.3176e-08 -7.81155e-10 7.1539e-12
0.00360469 2.06795e-25 0.049924 0 0 0
0.00374999 -2.06795e-25 0.049924 2.45516e-08 -1.57389e-10 2.18291e-12
-0.00375 0 0.049924 1.18009e-07 -1.30674e-09 7.30396e-12
0.00437499 0 0.049924 2.80725e-08 -1.75731e-10 1.91002e-12
-0.004375 -8.27181e-25 0.049924 1.20328e-07 -1.35252e-09 6.97728e-12
-0.000312498 0 0.0501277 0.0123651 -0.000108668 -2.35054e-07
0.000312503 -5.42101e-20 0.0501277 0.0123638 -0.000106827 1.50166e-06
-0.0009375 -2.71051e-20 0.0501277 0.0123639 -0.000110483 1.55827e-06
0.000937501 0 0.0501277 0.0123648 -0.000105077 -1.81363e-07
0.0015625 0 0.0501277 0.0123628 -0.000103081 1.6604e-06
-0.0015625 -2.71051e-20 0.0501277 0.0123653 -0.000112241 -1.54878e-07
0.00499999 0 0.049924 2.1492e-08 -1.31611e-10 1.7834e-12
-0.005 -8.27181e-25 0.049924 1.21199e-07 -1.38191e-09 4.52578e-12
0.0021875 0 0.0501277 0.0123633 -0.000101246 -5.0442e-08
-0.0021875 0 0.0501277 0.0123639 -0.000114157 1.62905e-06
0.00514699 1.03398e-25 0.049924 0 0 0
0.0028125 2.71051e-20 0.0501277 0.012361 -9.94554e-05 1.91533e-06
-0.0028125 2.71051e-20 0.0501277 0.0123649 -0.000116048 -1.37788e-07
0.00125 -1.03398e-25 0.0502211 0.0180937 -0.000104245 1.7279e-05
-0.005625 0 0.049924 1.207e-07 -1.39598e-09 2.27113e-12
0.005625 4.1359e-25 0.049924 7.21263e-08 -6.34332e-10 7.17564e-12
-0.0034375 2.71051e-20 0.0501277 0.0123631 -0.00011804 1.53906e-06
0.0034375 -2.71051e-20 0.0501277 0.0123611 -9.77491e-05 2.04042e-07
0.0040625 -2.71051e-20 0.0501277 0.0123587 -9.58272e-05 1.87285e-06
-0.0040625 2.71051e-20 0.0501277 0.0123637 -0.000120013 -2.18266e-07
-0.00625 -8.27181e-25 0.049924 1.19602e-07 -1.40243e-09 1.66665e-12
0.00625 4.1359e-25 0.049924 6.96111e-08 -6.01831e-10 7.10922e-12
1.28157e-09 1.17263e-20 0.0503316 0.0248185 -0.000150455 2.35788e-05
-0.000625 -3.92611e-21 0.0503316 0.0248172 -0.000154283 2.36063e-05
0.000625001 4.29919e-21 0.0503316 0.0248196 -0.000146648 2.3623e-05
0.0046875 0 0.0501277 0.0123591 -9.40319e-05 9.24625e-08
-0.0046875 0 0.0501277 0.0123615 -0.000122078 1.5269e-06
-0.00125 2.92331e-20 0.0503316 0.0248158 -0.000158186 2.36356e-05
0.00125 -5.0535e-21 0.0503316 0.0248204 -0.000143 2.37028e-05
0.00375 1.03398e-25 0.0502249 0.0183239 -9.47711e-05 1.78536e-05
-0.001875 -2.7986e-20 0.0503316 0.0248143 -0.000162216 2.35836e-05
0.001875 -3.60975e-20 0.0503316 0.0248208 -0.000139176 2.37851e-05
-0.0025 -5.27038e-21 0.0503316 0.0248124 -0.000166399 2.34859e-05
0.0025 1.75331e-20 0.0503316 0.0248208 -0.000135402 2.39317e-05
-0.006875 0 0.049924 1.18336e-07 -1.40679e-09 3.34116e-12
0.006875 0 0.049924 5.21265e-08 -4.42449e-10 5.02855e-12
0.0053125 2.71051e-20 0.0501277 0.0123565 -9.2249e-05 2.12632e-06
-0.0053125 0 0.0501277 0.0123618 -0.000124089 -4.68368e-07
-0.003125 3.29059e-20 0.0503316 0.0248103 -0.000170798 2.33453e-05
0.003125 4.69115e-21 0.0503316 0.0248205 -0.00013194 2.41334e-05
0.00714844 0 0.049924 0 0 0
0.005 0 0.0502204 0.0180453 -8.80037e-05 1.75765e-05
-0.00375 2.71357e-20 0.0503316 0.0248078 -0.000175145 2.32015e-05
0.00375 2.61668e-20 0.0503316 0.02482 -0.000128369 2.4183e-05
0.0059375 2.71051e-20 0.0501277 0.0123564 -9.03496e-05 3.16043e-07
-0.0059375 0 0.0501277 0.012359 -0.0001261 1.11034e-06
0.004375 2.58494e-26 0.0502915 0.0223779 -0.000112347 2.17248e-05
-0.0075 8.27181e-25 0.049924 1.17072e-07 -1.41098e-09 3.9084e-12
0.0075 -4.1359e-25 0.049924 6.69837e-08 -3.70897e-10 6.21757e-12
-0.004375 -3.42097e-20 0.0503316 0.024805 -0.00017948 2.30801e-05
0.004375 -7.70777e-21 0.0503316 0.0248194 -0.000124605 2.40952e-05
0.0065625 0 0.0501277 0.0123536 -8.85062e-05 2.06469e-06
-0.0065625 0 0.0501277 0.0123587 -0.000128048 -6.61969e-07
-0.000312499 -5.42101e-20 0.0505593 0.037565 -0.000197225 4.4226e-05
0.000312501 0 0.0505593 0.0375653 -0.000191109 4.99009e-05
0.000937501 -2.71051e-20 0.0505593 0.0375698 -0.000185493 4.43498e-05
-0.0009375 0 0.0505593 0.0375599 -0.000202859 4.99539e-05
-0.005 1.78977e-20 0.0503316 0.024802 -0.000183963 2.28514e-05
0.005 -2.34977e-20 0.0503316 0.0248188 -0.000121037 2.41741e-05
-0.008125 0 0.049924 1.15878e-07 -1.41613e-09 1.98759e-12
0.008125 -4.1359e-25 0.049924 7.367e-08 -3.97841e-10 7.41092e-12
0.0015625 2.71051e-20 0.0505593 0.0375695 -0.000180178 5.00615e-05
-0.0015625 0 0.0505593 0.0375594 -0.000209361 4.42627e-05
-0.0021875 0 0.0505593 0.0375537 -0.000215407 4.96709e-05
0.0021875 0 0.0505593 0.0375729 -0.000173938 4.45488e-05
-0.0028125 2.71051e-20 0.0505593 0.0375523 -0.000222394 4.385e-05
0.0028125 -2.71051e-20 0.0505593 0.0375715 -0.000168616 5.0394e-05
0.0071875 -2.71051e-20 0.0501277 0.0123534 -8.65607e-05 2.24381e-07
-0.0071875 0 0.0501277 0.0123559 -0.000130143 1.33747e-06
-0.005625 -7.76309e-21 0.0503316 0.0247985 -0.000188441 2.25415e-05
0.005625 1.7831e-20 0.0503316 0.0248179 -0.000117636 2.42962e-05
-0.0034375 -2.71051e-20 0.0505593 0.0375459 -0.000229239 4.91942e-05
0.0034375 5.42101e-20 0.0505593 0.0375741 -0.000163504 4.51047e-05
-0.00875 0 0.049924 1.14764e-07 -1.42339e-09 4.72991e-13
0.00875 0 0.049924 6.12483e-08 -3.23059e-10 6.17579e-12
-0.00625 -8.4786e-23 0.0503316 0.0247947 -0.000193217 2.23606e-05
0.00625 -1.90264e-20 0.0503316 0.0248166 -0.000114082 2.43253e-05
-0.0040625 2.71051e-20 0.0505593 0.0375435 -0.000235925 4.33502e-05
0.0040625 0 0.0505593 0.0375718 -0.00015788 5.06381e-05
0.0078125 0 0.0501277 0.0123503 -8.47719e-05 2.101e-06
-0.0078125 0 0.0501277 0.0123558 -0.000132119 -6.7833e-07
0.00912371 2.06795e-25 0.049924 0 0 0
-0.0046875 0 0.0505593 0.0375362 -0.000242651 4.87153e-05
0.0046875 0 0.0505593 0.0375738 -0.000152074 4.48635e-05
5.63348e-10 -2.87501e-20 0.0507876 0.0482046 -0.000191728 9.27506e-05
-0.000624999 -2.74702e-20 0.0507876 0.0481925 -0.000199327 9.26091e-05
0.000625001 1.01751e-20 0.0507876 0.0482164 -0.000184614 9.29392e-05
-0.009375 0 0.049924 1.11256e-07 -1.39871e-09 -4.26131e-13
0.009375 -2.06795e-25 0.049924 3.99288e-08 -3.15676e-10 3.96842e-12
-0.006875 2.53241e-20 0.0503316 0.0247908 -0.000198079 2.23414e-05
0.006875 0 0.0503316 0.0248151 -0.000110537 2.43233e-05
-0.00125 -2.09751e-20 0.0507876 0.0481802 -0.000207235 9.24555e-05
0.00125 1.19978e-20 0.0507876 0.0482277 -0.000177571 9.3187e-05
-0.001875 5.96335e-21 0.0507876 0.0481674 -0.000215054 9.21216e-05
0.001875 3.25443e-20 0.0507876 0.0482383 -0.000170368 9.3437e-05
0.00705284 -2.58494e-26 0.0503316 0.0248147 -0.000109532 2.43414e-05
0.0084375 0 0.0501277 0.0123495 -8.29585e-05 3.21848e-07
-0.0084375 -2.71051e-20 0.0501277 0.0123528 -0.000134451 9.4374e-07
-0.0053125 -2.71051e-20 0.0505593 0.037533 -0.000249897 4.26805e-05
0.0053125 5.42101e-20 0.0505593 0.0375712 -0.000147103 5.06978e-05
-0.0025 -3.42134e-20 0.0507876 0.048154 -0.00022312 9.16977e-05
0.0025 -5.16988e-26 0.0507876 0.0482485 -0.000163178 9.37096e-05
-0.003125 -1.38137e-20 0.0507876 0.0481402 -0.000231476 9.12969e-05
0.003125 -3.26816e-20 0.0507876 0.048258 -0.000156294 9.40107e-05
-0.0075 2.46194e-20 0.0503316 0.0247868 -0.000202729 2.21765e-05
0.0075 -5.16988e-26 0.0503316 0.0248134 -0.000107005 2.43871e-05
-0.0059375 -2.71051e-20 0.0505593 0.0375248 -0.000256656 4.78876e-05
0.0059375 0 0.0505593 0.0375729 -0.000142078 4.51287e-05
-0.01 0 0.049924 1.00672e-07 -1.28193e-09 -7.57891e-13
0.01 2.06795e-25 0.049924 4.3622e-08 -3.39668e-10 4.49041e-12
-0.00375 -1.02545e-20 0.0507876 0.0481257 -0.000239941 9.09041e-05
0.00375 1.07251e-20 0.0507876 0.048267 -0.000149814 9.4167e-05
0.0090625 2.71051e-20 0.0501277 0.012346 -8.13591e-05 2.1589e-06
-0.0090625 -2.71051e-20 0.0501277 0.0123528 -0.000136862 -9.23772e-07
0.0102681 2.06795e-25 0.049924 0 0 0
-0.004375 2.47808e-20 0.0507876 0.0481108 -0.000248407 9.04622e-05
0.004375 -1.37777e-22 0.0507876 0.0482756 -0.000142903 9.41359e-05
-0.008125 -1.72223e-20 0.0503316 0.0247826 -0.000207916 2.18233e-05
0.008125 0 0.0503316 0.0248114 -0.000103635 2.4504e-05
0.0065625 -2.71051e-20 0.0505593 0.0375691 -0.000136553 5.08791e-05
-0.0065625 0 0.0505593 0.0375209 -0.000265174 4.21466e-05
-0.005 2.02011e-20 0.0507876 0.0480954 -0.000256856 8.99833e-05
0.005 3.24252e-20 0.0507876 0.0482839 -0.000136117 9.42388e-05
-0.010625 0 0.049924 8.28353e-08 -1.06774e-09 -1.43447e-12
0.010625 0 0.049924 5.95165e-08 -2.90319e-10 7.21898e-12
0.0003125 0 0.0510506 0.0592286 -0.000184834 0.000153053
-0.0003125 2.71051e-20 0.0510506 0.0592117 -0.000193572 0.000127052
0.0096875 2.71051e-20 0.0501277 0.0123452 -7.96905e-05 4.42546e-07
-0.0096875 2.71051e-20 0.0501277 0.0123498 -0.000138783 7.63045e-07
-0.0009375 5.42101e-20 0.0510506 0.0591849 -0.000203602 0.000152422
0.0009375 2.71051e-20 0.0510506 0.0592546 -0.000176761 0.000127691
0.0071875 2.71051e-20 0.0505593 0.0375701 -0.000131611 4.5214e-05
-0.0071875 0 0.0505593 0.0375122 -0.000272192 4.75775e-05
-0.0015625 0 0.0510506 0.0591673 -0.000213197 0.000126389
0.0015625 2.71051e-20 0.0510506 0.0592701 -0.00016748 0.000153896
-0.00875 -2.83541e-20 0.0503316 0.0247781 -0.000213098 2.15698e-05
0.00875 0 0.0503316 0.0248089 -0.000100336 2.4557e-05
0.0021875 -2.71051e-20 0.0510506 0.0592949 -0.000159403 0.000128503
-0.0021875 0 0.0510506 0.0591392 -0.000222439 0.000151356
-0.005625 1.2862e-20 0.0507876 0.0480793 -0.000265566 8.94618e-05
0.005625 -2.92521e-20 0.0507876 0.048292 -0.000130065 9.4421e-05
0.0028125 2.71051e-20 0.0510506 0.0593091 -0.000150185 0.000154661
-0.0028125 2.71051e-20 0.0510506 0.0591202 -0.000232538 0.000125091
-0.0111483 1.03398e-25 0.049924 0 0 0
0.0078125 0 0.0505593 0.0375654 -0.000126079 5.11002e-05
-0.0078125 5.42101e-20 0.0505593 0.0375077 -0.000279826 4.14958e-05
0.0034375 2.71051e-20 0.0510506 0.0593324 -0.000142182 0.000129153
-0.0034375 -2.71051e-20 0.0510506 0.0590908 -0.000242135 0.000150218
-0.00625 -1.47559e-21 0.0507876 0.0480628 -0.000274989 8.90827e-05
0.00625 -5.31657e-21 0.0507876 0.0482994 -0.000123804 9.45759e-05
0.01125 0 0.049924 5.48001e-08 -2.6096e-10 6.02745e-12
-0.01125 0 0.049924 1.55966e-08 -1.59445e-10 -2.19433e-13
-0.0103125 0 0.0501277 0.0123488 -0.000140819 -9.94296e-07
0.0103125 0 0.0501277 0.0123417 -7.81663e-05 2.35362e-06
0.009375 0 0.0503179 0.0239751 -9.39106e-05 2.37484e-05
-0.009375 -1.14953e-20 0.0503316 0.0247734 -0.000217697 2.13962e-05
0.009375 0 0.0503316 0.0248063 -9.71665e-05 2.45718e-05
0.0040625 5.42101e-20 0.0510506 0.0593456 -0.000134923 0.000155045
-0.0040625 -2.71051e-20 0.0510506 0.0590706 -0.000252988 0.000124009
0.006875 0 0.0507876 0.0482669 -0.000117636 9.45453e-05
0.00686707 0 0.0507876 0.0483064 -0.000117726 9.46627e-05
-0.006875 8.36259e-21 0.0507876 0.0480459 -0.000284489 8.87471e-05
0.0116034 -2.06795e-25 0.049924 0 0 0
0.0084375 -2.71051e-20 0.0505593 0.0375657 -0.000121661 4.55875e-05
-0.0084375 0 0.0505593 0.0374981 -0.000288777 4.65513e-05
0.0046875 2.71051e-20 0.0510506 0.0593678 -0.00012588 0.000129276
-0.0046875 2.71051e-20 0.0510506 0.0590401 -0.000262708 0.000148915
0.0109375 0 0.0501277 0.0123407 -7.66164e-05 5.23151e-07
-0.0109375 0 0.0501277 0.012345 -0.000142752 7.27712e-07
0.01 4.00468e-20 0.0503316 0.0247469 -9.39842e-05 2.46051e-05
2.53784e-10 1.68499e-20 0.0513142 0.0657938 -0.000188365 0.000179415
-0.01 3.50388e-20 0.0503316 0.024768 -0.000222287 2.12623e-05
0.011875 0 0.049924 4.21407e-08 -3.12662e-10 4.3338e-12
-0.011875 0 0.049924 2.23857e-08 -2.31816e-10 -5.57374e-13
-0.000625 7.82508e-21 0.0513142 0.0657597 -0.000198357 0.000178894
0.000625 -1.80853e-20 0.0513142 0.0658273 -0.000178947 0.000179915
0.0053125 -5.42101e-20 0.0510506 0.0593801 -0.000118457 0.000155402
-0.0053125 2.71051e-20 0.0510506 0.0590186 -0.000272918 0.000122753
-0.00125 -1.13517e-20 0.0513142 0.0657252 -0.000208819 0.000178433
0.00125 5.15772e-21 0.0513142 0.0658602 -0.000169777 0.000180434
-0.0075 -1.79102e-20 0.0507876 0.0480287 -0.000293786 8.82325e-05
0.0075 2.58494e-26 0.0507876 0.048313 -0.000111526 9.48485e-05
-0.001875 -6.66403e-21 0.0513142 0.0656899 -0.000219232 0.000177674
0.001875 0 0.0513142 0.0658925 -0.000160704 0.000180805
0.0090625 0 0.0505593 0.0375599 -0.000116219 5.12552e-05
-0.0090625 0 0.0505593 0.0374926 -0.000295941 4.0721e-05
-0.0025 -2.30962e-20 0.0513142 0.0656538 -0.000229757 0.000176829
0.0025 1.44985e-20 0.0513142 0.0659242 -0.000151669 0.000181301
0.0059375 -2.71051e-20 0.0510506 0.0594017 -0.000111597 0.000129743
-0.0059375 -2.71051e-20 0.0510506 0.0589866 -0.000283663 0.000147649
-0.01125 1.03398e-25 0.0501523 0.0138637 -0.000129502 1.17911e-05
-0.003125 1.14328e-20 0.0513142 0.0656171 -0.000240392 0.000176064
0.003125 -2.52238e-22 0.0513142 0.065955 -0.000142712 0.000181749
-0.008125 2.54141e-21 0.0507876 0.0480109 -0.000304684 8.751e-05
0.008125 0 0.0507876 0.0483191 -0.000105663 9.51046e-05
-0.010625 2.68064e-20 0.0503316 0.0247623 -0.000226859 2.11473e-05
0.010625 0 0.0503316 0.024801 -9.13433e-05 2.47341e-05
0.0115625 -2.71051e-20 0.0501277 0.0123371 -7.52084e-05 2.27465e-06
-0.0115625 2.71051e-20 0.0501277 0.0123435 -0.000144544 -1.09412e-06
-0.00375 -2.79524e-20 0.0513142 0.0655797 -0.000251017 0.000175462
0.00375 3.27256e-21 0.0513142 0.0659851 -0.000134101 0.000182107
0.0125 -2.06795e-25 0.049924 4.5283e-08 -3.30647e-10 5.10109e-12
-0.0125 0 0.049924 2.6705e-08 -2.80296e-10 -2.61994e-13
0.0065625 0 0.0510506 0.0594124 -0.000103893 0.000155845
-0.0065625 -2.71051e-20 0.0510506 0.0589638 -0.000295459 0.000121763
0.0096875 2.71051e-20 0.0505593 0.0375597 -0.00011218 4.5524e-05
-0.0096875 2.71051e-20 0.0505593 0.0374819 -0.000302957 4.60336e-05
-0.004375 5.50359e-21 0.0513142 0.0655418 -0.000261722 0.000174606
0.004375 1.26683e-20 0.0513142 0.0660146 -0.000125071 0.000182248
0.0127663 0 0.049924 0 0 0
-0.00875 6.9629e-21 0.0507876 0.0479926 -0.00031548 8.69105e-05
0.00875 -2.58494e-26 0.0507876 0.0483246 -0.000100029 9.52311e-05
-0.0071875 2.71051e-20 0.0510506 0.0589312 -0.000306249 0.000146604
0.0071875 0 0.0510506 0.0594331 -9.73743e-05 0.000130012
-0.005 -4.97735e-21 0.0513142 0.0655031 -0.000272325 0.000173722
0.005 -6.25853e-21 0.0513142 0.0660438 -0.000116332 0.000182557
-0.01125 -6.51818e-21 0.0503316 0.0247562 -0.000231248 2.10552e-05
0.01125 0 0.0503316 0.0247982 -8.85921e-05 2.46455e-05
0.0121875 0 0.0501277 0.0123364 -7.38132e-05 5.11847e-07
-0.0121875 0 0.0501277 0.0123391 -0.000146254 7.55284e-07
0.0103125 -2.71051e-20 0.0505593 0.0375539 -0.000107483 5.14195e-05
-0.0103125 0 0.0505593 0.0374751 -0.000310466 4.02513e-05
-0.0003125 0 0.0516082 0.0725723 -0.000193209 0.000177344
0.0003125 0 0.0516082 0.0725835 -0.000181791 0.000262734
-0.0009375 -2.71051e-20 0.0516082 0.0724901 -0.00020303 0.000261266
0.0009375 2.71051e-20 0.0516082 0.0726644 -0.000172285 0.000178713
0.013125 -4.1359e-25 0.049924 5.94423e-08 -2.64877e-10 8.19086e-12
-0.013125 -2.06795e-25 0.049924 2.88851e-08 -3.07067e-10 -5.97614e-13
-0.005625 -1.52307e-20 0.0513142 0.0654635 -0.000283354 0.000172895
0.005625 7.30174e-22 0.0513142 0.0660726 -0.000108591 0.000182899
0.0015625 -2.71051e-20 0.0516082 0.0726742 -0.000162432 0.000263974
-0.0015625 2.71051e-20 0.0516082 0.0724778 -0.000215475 0.000176155
-0.011875 0 0.0502523 0.0199328 -0.000189853 1.69566e-05
-0.0078125 0 0.0510506 0.0589075 -0.000318133 0.000120342
0.0078125 0 0.0510506 0.0594429 -8.98181e-05 0.000156367
-0.009375 -2.14048e-20 0.0507876 0.0479736 -0.000324684 8.65078e-05
0.009375 0 0.0507876 0.0483297 -9.43623e-05 9.5179e-05
-0.0021875 0 0.0516082 0.0723941 -0.000225909 0.00025928
0.0021875 2.71051e-20 0.0516082 0.0727541 -0.000153327 0.000179382
-0.0133161 1.03398e-25 0.049924 0 0 0
-0.0028125 2.71051e-20 0.0516082 0.0723797 -0.000238286 0.000174061
0.0028125 -2.71051e-20 0.0516082 0.0727626 -0.000143562 0.000265201
-0.00625 -2.50693e-21 0.0513142 0.0654233 -0.000295161 0.000172307
0.00625 5.3355e-21 0.0513142 0.0661006 -0.000100728 0.000183237
0.0118397 1.9387e-26 0.0503316 0.0247955 -8.60943e-05 2.45091e-05
-0.011875 -2.21327e-20 0.0503316 0.0247497 -0.000235732 2.10543e-05
0.011875 0 0.0503316 0.0247953 -8.59447e-05 2.4501e-05
0.00644159 1.61559e-27 0.0513142 0.0661091 -9.8369e-05 0.000183282
-0.0034375 0 0.0516082 0.0722945 -0.000248806 0.000257345
0.0034375 0 0.0516082 0.0728406 -0.000134699 0.000180533
0.0109375 -2.71051e-20 0.0505593 0.0375532 -0.000103764 4.57347e-05
-0.0109375 0 0.0505593 0.0374634 -0.000317398 4.56044e-05
0.0135706 1.03398e-25 0.049924 0 0 0
0.0128125 0 0.0501277 0.0123328 -7.24176e-05 2.45775e-06
-0.0128125 2.71051e-20 0.0501277 0.0123374 -0.000148014 -9.15778e-07
-0.0084375 0 0.0510506 0.0588733 -0.000333441 0.000144725
0.0084375 2.71051e-20 0.0510506 0.0594623 -8.38054e-05 0.000130668
-0.01 2.03316e-20 0.0507876 0.047954 -0.000333641 8.61952e-05
0.01 -1.29247e-26 0.0507876 0.0483346 -8.92371e-05 9.52558e-05
-0.0040625 2.71051e-20 0.0516082 0.0722791 -0.000260362 0.000172733
0.0040625 2.71051e-20 0.0516082 0.0728472 -0.000124316 0.00026626
-0.006875 -4.113e-21 0.0513142 0.0653829 -0.000307055 0.000171558
0.006875 -3.23117e-27 0.0513142 0.0661283 -9.30319e-05 0.000183385
-0.01375 0 0.049924 6.72114e-08 -9.15732e-10 3.31269e-13
0.01375 0 0.049924 2.20946e-08 -1.55779e-10 2.6375e-12
0.011875 3.23117e-27 0.0504267 0.0297094 -8.3659e-05 3.92541e-05
-0.0046875 2.71051e-20 0.0516082 0.0721928 -0.000271079 0.000255209
0.0046875 -5.42101e-20 0.0516082 0.0729243 -0.000114822 0.000180979
-0.0125 1.03398e-25 0.0503053 0.023147 -0.000224764 1.97735e-05
-0.0090625 -2.71051e-20 0.0510506 0.0588482 -0.000345397 0.000118703
0.0090625 2.71051e-20 0.0510506 0.059471 -7.70941e-05 0.000156721
-0.0075 3.03074e-21 0.0513142 0.0653418 -0.000319142 0.000170667
0.0075 0 0.0513142 0.0661555 -8.54918e-05 0.000183764
-0.0125 -2.68446e-20 0.0503316 0.024743 -0.000240262 2.11369e-05
0.0125 0 0.0503316 0.0247925 -8.34377e-05 2.44716e-05
-0.0115625 2.71051e-20 0.0505593 0.0374558 -0.000324415 3.99807e-05
0.0115625 2.71051e-20 0.0505593 0.037547 -9.93757e-05 5.11417e-05
0.0125235 1.61559e-27 0.0503316 0.0247924 -8.33447e-05 2.44725e-05
-0.0053125 -5.42101e-20 0.0516082 0.0721755 -0.000282885 0.000170437
0.0053125 -2.71051e-20 0.0516082 0.0729302 -0.000105793 0.000267147
-0.010625 3.97873e-20 0.0507876 0.0479339 -0.000342613 8.59101e-05
0.010625 0 0.0507876 0.0483394 -8.45411e-05 9.54015e-05
0.0134375 0 0.0501277 0.0123317 -7.09901e-05 6.4959e-07
-0.0134375 5.42101e-20 0.0501277 0.0123332 -0.000149575 8.3339e-07
8.77282e-11 -1.09018e-20 0.0519027 0.0766052 -0.000212838 0.000271184
-0.000625 -9.43679e-21 0.0519027 0.0764988 -0.000223327 0.000269693
0.000625 1.50401e-20 0.0519027 0.0766091 -0.000201899 0.000271574
0.0125 0 0.0503842 0.027511 -8.19434e-05 3.2627e-05
-0.00125 -7.54045e-21 0.0519027 0.0764934 -0.000235053 0.000269684
0.00125 2.37819e-20 0.0519027 0.0767142 -0.000191982 0.000273092
-0.001875 1.68883e-20 0.0519027 0.0763862 -0.000246442 0.000267899
0.001875 -4.19535e-21 0.0519027 0.0767168 -0.000181538 0.000272939
-0.0059375 0 0.0516082 0.0720871 -0.000294276 0.000253157
0.0059375 -2.71051e-20 0.0516082 0.0730063 -9.81041e-05 0.000181885
-0.014375 -4.1359e-25 0.049924 6.43165e-08 -8.84676e-10 -2.06332e-13
0.014375 2.06795e-25 0.049924 2.67704e-08 -1.8583e-10 3.36207e-12
-0.008125 2.95148e-21 0.0513142 0.0652999 -0.00033369 0.000169614
0.008125 6.46235e-27 0.0513142 0.0661819 -7.81939e-05 0.000184211
-0.0096875 2.71051e-20 0.0510506 0.0588129 -0.000356224 0.000143622
0.0096875 0 0.0510506 0.0594891 -7.0555e-05 0.000130522
-0.0025 1.05219e-21 0.0519027 0.076379 -0.000258589 0.000267072
0.0025 1.43095e-20 0.0519027 0.0768211 -0.000171793 0.000274285
-0.013125 0 0.0502895 0.0221814 -0.00021929 1.90055e-05
-0.003125 -1.62218e-20 0.0519027 0.0762701 -0.000270062 0.000265214
0.003125 -1.23879e-20 0.0519027 0.0768219 -0.000161622 0.000274501
0.0145727 1.03398e-25 0.049924 0 0 0
0.0121875 -2.71051e-20 0.0505593 0.0375462 -9.59188e-05 4.51615e-05
-0.0121875 0 0.0505593 0.0374433 -0.00033196 4.55725e-05
0.013125 -2.58494e-26 0.0503316 0.0247894 -8.09698e-05 2.44975e-05
-0.013125 6.48205e-21 0.0503316 0.0247363 -0.000244548 2.11946e-05
-0.01125 -2.10636e-20 0.0507876 0.0479132 -0.000351807 8.5692e-05
0.01125 0 0.0507876 0.0483436 -7.98529e-05 9.53731e-05
-0.0065625 -2.71051e-20 0.0516082 0.0720686 -0.000307605 0.000169068
0.0065625 0 0.0516082 0.0730106 -8.887e-05 0.000268064
-0.00375 2.20631e-20 0.0519027 0.0762613 -0.000281892 0.000264942
0.00375 -8.12072e-21 0.0519027 0.0769245 -0.000152053 0.000275893
-0.00875 1.95381e-20 0.0513142 0.0652574 -0.000348704 0.000168749
0.00875 6.46235e-27 0.0513142 0.0662077 -7.15154e-05 0.000184531
-0.0140625 0 0.0501277 0.0123316 -0.000151191 -1.0723e-06
0.0140625 2.71051e-20 0.0501277 0.0123278 -6.96541e-05 2.33902e-06
0.00625 8.07794e-28 0.0517029 0.0733824 -0.000109936 0.000246118
-0.0103125 -2.71051e-20 0.0510506 0.0587866 -0.000366821 0.000117917
0.0103125 -2.71051e-20 0.0510506 0.0594975 -6.5276e-05 0.000156864
-0.004375 1.01795e-20 0.0519027 0.0761518 -0.000293123 0.000263012
0.004375 1.59287e-20 0.0519027 0.0769239 -0.000141758 0.000275583
-0.0071875 0 0.0516082 0.07198 -0.000319304 0.000251191
0.0071875 2.71051e-20 0.0516082 0.0730861 -8.15033e-05 0.000182207
-0.015 0 0.049924 5.9044e-08 -8.1973e-10 -3.12738e-13
0.015 0 0.049924 5.78173e-08 -2.41241e-10 6.78224e-12
0.01375 -3.87741e-26 0.05029 0.0222567 -7.04849e-05 2.19222e-05
-0.005 2.43681e-21 0.0519027 0.0761413 -0.000305287 0.000262167
0.005 5.30582e-21 0.0519027 0.0770261 -0.000132632 0.000276873
-0.011875 5.37949e-21 0.0507876 0.047892 -0.000361428 8.55268e-05
0.011875 0 0.0507876 0.0483474 -7.49898e-05 9.52099e-05
-0.0128125 0 0.0505593 0.0374351 -0.000339197 4.01326e-05
0.0128125 2.71051e-20 0.0505593 0.03754 -9.20861e-05 5.08352e-05
-0.009375 1.34815e-20 0.0513142 0.0652144 -0.000361389 0.000167963
0.009375 0 0.0513142 0.0662328 -6.46652e-05 0.000184549
-0.01375 -7.12792e-21 0.0503316 0.0247295 -0.000248725 2.11466e-05
0.01375 0 0.0503316 0.024786 -7.84949e-05 2.44135e-05
-0.0078125 -2.71051e-20 0.0516082 0.0719601 -0.000333327 0.000166912
0.0078125 0 0.0516082 0.0730896 -7.27525e-05 0.000269065
-0.005625 -2.12236e-20 0.0519027 0.0760299 -0.000317066 0.000260361
0.005625 1.47539e-20 0.0519027 0.0770242 -0.000123469 0.000277066
-0.0109375 0 0.0510506 0.05875 -0.000377795 0.000142906
0.0109375 0 0.0510506 0.059515 -6.01521e-05 0.000130897
-0.000300834 2.71051e-20 0.0522172 0.0807698 -0.000247889 0.000309429
0.000300834 -2.71051e-20 0.0522172 0.0804648 -0.000228274 0.000334843
-0.000949166 2.71051e-20 0.0522172 0.0803366 -0.000250283 0.000332937
0.000949166 -2.71051e-20 0.0522172 0.0808981 -0.000226335 0.000312228
0.00587272 -4.03897e-28 0.0519027 0.0770641 -0.00011998 0.00027761
-0.0146875 0 0.0501277 0.012327 -0.000152708 6.60723e-07
0.0146875 2.71051e-20 0.0501277 0.0123267 -6.84752e-05 5.62843e-07
-0.00155083 2.71051e-20 0.0522172 0.0806389 -0.000271231 0.000307996
0.00155083 5.42101e-20 0.0522172 0.0805896 -0.000206692 0.000337063
-0.00219917 2.71051e-20 0.0522172 0.0802068 -0.000274279 0.000330358
0.00219917 2.71051e-20 0.0522172 0.0810243 -0.000204735 0.000313577
-0.00625 3.95404e-20 0.0519027 0.0760176 -0.000330052 0.000260012
0.00625 -8.07794e-28 0.0519027 0.077125 -0.000114668 0.000278437
-0.01 -8.27057e-21 0.0513142 0.0651707 -0.000373318 0.0001673
0.01 6.46235e-27 0.0513142 0.0662575 -5.80666e-05 0.000184784
-0.00280083 2.71051e-20 0.0522172 0.0805053 -0.000295682 0.000304208
0.00280083 0 0.0522172 0.080713 -0.000185373 0.000338589
-0.0084375 -2.71051e-20 0.0516082 0.0718694 -0.000350366 0.000248852
0.0084375 2.71051e-20 0.0516082 0.0731636 -6.58477e-05 0.000183348
-0.0125 1.51087e-20 0.0507876 0.0478705 -0.000370909 8.5459e-05
0.0125 1.29247e-26 0.0507876 0.0483511 -7.04879e-05 9.51487e-05
-0.015625 -4.1359e-25 0.049924 4.64051e-08 -6.50135e-10 -4.77517e-13
0.015625 0 0.049924 3.64897e-08 -1.48689e-10 4.7176e-12
0.0134375 -2.71051e-20 0.0505593 0.0375385 -8.8821e-05 4.51255e-05
-0.0134375 0 0.0505593 0.0374222 -0.000345907 4.57259e-05
0.0143114 8.07794e-27 0.0503316 0.0247827 -7.62759e-05 2.42999e-05
0.00344917 -2.71051e-20 0.0522172 0.0811472 -0.000183836 0.00031594
-0.00344917 0 0.0522172 0.0800729 -0.000298633 0.000327405
-0.0115625 -2.71051e-20 0.0510506 0.0587224 -0.000389806 0.000117309
0.0115625 -2.71051e-20 0.0510506 0.0595219 -5.45852e-05 0.000157036
-0.014375 2.89451e-21 0.0503316 0.0247224 -0.000252944 2.10315e-05
0.014375 -1.16321e-20 0.0503316 0.0247823 -7.60246e-05 2.42871e-05
-0.006875 2.5163e-20 0.0519027 0.0759058 -0.000342451 0.000258082
0.006875 1.61559e-27 0.0519027 0.0771218 -0.000105526 0.000278061
0.00405083 0 0.0522172 0.0808322 -0.000165193 0.000340442
-0.00405083 2.71051e-20 0.0522172 0.0803687 -0.000319561 0.000301911
0.0144908 1.61559e-27 0.0503316 0.0247816 -7.56247e-05 2.43082e-05
0.0158409 -2.06795e-25 0.049924 0 0 0
-0.0090625 2.71051e-20 0.0516082 0.0718483 -0.000366206 0.000165088
0.0090625 -2.71051e-20 0.0516082 0.0731655 -5.87422e-05 0.000270003
-0.0159165 -2.06795e-25 0.049924 0 0 0
-0.010625 -2.12508e-20 0.0513142 0.0651263 -0.000385253 0.000166739
0.010625 -1.29247e-26 0.0513142 0.0662819 -5.21294e-05 0.000185076
-0.0153125 -2.71051e-20 0.0501277 0.0123247 -0.000154288 -1.16041e-06
0.0153125 -2.71051e-20 0.0501277 0.0123226 -6.73e-05 2.68088e-06
-0.00469917 0 0.0522172 0.0799377 -0.000322687 0.00032434
0.00469917 0 0.0522172 0.0812683 -0.000163673 0.000316921
-0.0075 1.78217e-20 0.0519027 0.0758926 -0.000355849 0.000257215
0.0075 0 0.0519027 0.0772223 -9.71733e-05 0.00027936
0.013125 1.29247e-26 0.0507876 0.0483546 -6.64326e-05 9.51341e-05
-0.013125 -8.08161e-21 0.0507876 0.0478486 -0.00038024 8.54131e-05
0.0140625 0 0.0505593 0.0375312 -8.48986e-05 5.06166e-05
-0.0140625 2.71051e-20 0.0505593 0.0374135 -0.00035285 4.00986e-05
-0.0121875 2.71051e-20 0.0510506 0.0586846 -0.000401881 0.000142267
0.0121875 -2.71051e-20 0.0510506 0.0595377 -4.84783e-05 0.000130826
0.00530083 -2.71051e-20 0.0522172 0.0809508 -0.000146074 0.000342048
-0.00530083 0 0.0522172 0.0802296 -0.000344284 0.000298309
0.01625 0 0.049924 7.13434e-08 -4.73398e-10 1.179e-11
-0.01625 -4.1359e-25 0.049924 5.48033e-08 -6.20118e-10 -2.64667e-12
-0.0096875 2.71051e-20 0.0516082 0.0717571 -0.000378408 0.000246796
0.0096875 0 0.0516082 0.0732379 -5.16829e-05 0.000183568
-0.015 0 0.0503316 0.0247149 -0.000257297 2.09013e-05
0.015 0 0.0503316 0.0247786 -7.38667e-05 2.44009e-05
-0.000625 5.33438e-22 0.0525189 0.0823108 -0.00028009 0.000343698
0.000625 -1.33487e-20 0.0525189 0.082445 -0.000258066 0.000347049
-0.01125 -2.74102e-20 0.0513142 0.0650812 -0.000397359 0.000166401
0.01125 0 0.0513142 0.0663055 -4.62783e-05 0.000185269
-0.008125 1.52431e-20 0.0519027 0.0757792 -0.000370877 0.000255274
0.008125 0 0.0519027 0.0772176 -8.84899e-05 0.000279526
0.0151033 0 0.0503316 0.024778 -7.35425e-05 2.44292e-05
-0.001875 2.35405e-21 0.0525189 0.0821743 -0.000303823 0.000342081
0.001875 3.21295e-20 0.0525189 0.0825767 -0.00023622 0.00034843
0.00594917 0 0.0522172 0.0813867 -0.000144844 0.000319482
-0.00594917 -2.71051e-20 0.0522172 0.0797979 -0.000348064 0.000321663
0.0159375 2.71051e-20 0.0501277 0.0123209 -6.603e-05 8.65904e-07
-0.0159375 0 0.0501277 0.0123196 -0.000155916 5.37785e-07
-0.003125 8.01339e-21 0.0525189 0.0820347 -0.00032822 0.000337786
0.003125 -4.02828e-20 0.0525189 0.082706 -0.000214627 0.000351364
-0.01375 5.22125e-21 0.0507876 0.0478263 -0.000389671 8.52775e-05
0.01375 6.46235e-27 0.0507876 0.0483575 -6.25579e-05 9.50202e-05
0.00655083 -2.71051e-20 0.0522172 0.0810654 -0.000126693 0.000343916
-0.00655083 -2.71051e-20 0.0522172 0.0800872 -0.000370042 0.000295793
0.0103125 -5.42101e-20 0.0516082 0.0732385 -4.41221e-05 0.000270814
-0.0103125 -2.71051e-20 0.0516082 0.0717343 -0.000392574 0.000163204
0.015 0 0.0504481 0.0308019 -6.89159e-05 4.23938e-05
0.0128125 0 0.0510506 0.0595443 -4.38064e-05 0.000157105
-0.0128125 0 0.0510506 0.0586561 -0.000413096 0.000116876
-0.00875 -2.5553e-21 0.0519027 0.0757642 -0.000387218 0.000254746
0.00875 -8.07794e-28 0.0519027 0.0773166 -8.10331e-05 0.000280727
0.015625 0 0.0502715 0.021124 -6.1309e-05 2.09512e-05
0.0146875 5.42101e-20 0.0505593 0.0375288 -8.13975e-05 4.47029e-05
-0.0146875 0 0.0505593 0.0373998 -0.000359771 4.5437e-05
-0.011875 2.80962e-21 0.0513142 0.0650356 -0.000410049 0.000165866
0.011875 6.46235e-27 0.0513142 0.0663284 -4.03271e-05 0.000185223
1.92914e-11 -1.12037e-20 0.0526734 0.083522 -0.000289077 0.000360192
-0.0155615 -6.46235e-27 0.0503316 0.0247077 -0.00026123 2.0762e-05
0.0140137 3.23117e-27 0.0507876 0.0483585 -6.08009e-05 9.49354e-05
-0.00125 -1.34373e-20 0.0526734 0.0833826 -0.000312025 0.000357824
0.00125 1.27631e-20 0.0526734 0.0836588 -0.000267054 0.000363023
-0.015625 0 0.0503227 0.0241672 -0.000255959 2.0293e-05
0.016875 0 0.049924 9.31449e-08 -6.07912e-10 1.50629e-11
-0.016875 0 0.049924 7.54301e-08 -8.6423e-10 -3.12508e-12
-0.004375 -6.24957e-21 0.0525189 0.0818928 -0.000352148 0.000335484
0.004375 -6.40359e-22 0.0525189 0.0828326 -0.000193998 0.000352371
0.015625 -3.82285e-20 0.0503316 0.0247747 -7.19048e-05 2.45721e-05
-0.015625 6.46235e-27 0.0503316 0.0247069 -0.000261675 2.07462e-05
0.00719917 5.42101e-20 0.0522172 0.081503 -0.000125926 0.000320369
-0.00719917 -2.71051e-20 0.0522172 0.0796573 -0.000374119 0.000318373
-0.0025 -2.04175e-20 0.0526734 0.0832409 -0.000336225 0.00035439
0.0025 1.18481e-20 0.0526734 0.0837936 -0.000245027 0.000365108
-0.009375 7.16093e-22 0.0519027 0.0756502 -0.000400777 0.000252778
0.009375 0 0.0519027 0.0773104 -7.29182e-05 0.000280226
-0.0109375 0 0.0516082 0.0716414 -0.00040465 0.000245254