# UMean  POINT_DATA 25996
# x  y  z  UMean_x  UMean_y  UMean_z
2.61744e-27 0.01 1.50345e-07 1.48571e-16 3.30289e-20 -3.92552e-19
0 -0.01 8.31199e-08 1.35806e-16 3.53625e-19 -4.36756e-21
0 0.01 0.00067832 9.76181e-11 -1.48113e-13 -5.14295e-14
0 -0.01 0.00067832 4.90544e-11 -1.0003e-13 1.7831e-14
-9.04729e-26 -0.0100182 0.00067694 1.33863e-05 -5.76593e-08 3.49824e-09
0 0.01 0.00137372 2.10759e-09 -3.22869e-12 -1.1455e-13
2.06795e-25 -0.01 0.00137372 1.21608e-09 -2.49612e-12 1.8411e-13
4.1359e-25 -0.0100737 0.00135823 0.0001164 -5.39978e-07 9.49364e-08
0 0.01 0.002087 2.03635e-10 3.01996e-13 3.33317e-13
0 -0.01 0.002087 9.18302e-15 -3.41902e-17 7.29188e-18
0 -0.0102613 0.000329046 1.71236e-05 3.31821e-08 1.45126e-08
0 0.0102613 0.000329046 1.54243e-05 1.13955e-08 -3.05437e-08
2.71051e-20 -0.0102561 0.000988366 0.00048858 -9.07778e-07 1.63605e-07
2.71051e-20 0.0102561 0.000988366 0.000885734 -1.16724e-06 -5.77818e-07
-5.42101e-20 -0.0102356 0.00161953 0.000463027 -7.89353e-07 -1.06115e-07
0 0.0102356 0.00161953 0.000842945 -1.00565e-06 5.14514e-07
2.06795e-25 -0.0105293 8.82103e-08 3.49284e-11 -3.5597e-14 1.24788e-13
0 0.0105293 8.68458e-08 9.06825e-12 1.59631e-14 -8.18631e-15
1.03398e-25 -0.0105285 0.000201258 0.000122191 -5.26318e-07 3.19322e-08
-7.12244e-21 0.0105268 0.000638363 0.000699778 5.13257e-07 -6.87673e-07
3.59989e-21 -0.0105268 0.000638363 0.000387688 -1.6699e-06 1.01315e-07
-8.27181e-25 0.0105159 0.00126532 0.00148841 1.73442e-06 4.96307e-07
-1.77927e-21 -0.0105159 0.0012653 0.000814399 -3.778e-06 6.6423e-07
-9.92948e-21 0.0105028 0.0017228 0.00136015 2.0172e-06 2.22634e-06
5.43127e-21 -0.0105028 0.0017228 0.000743311 -3.67869e-06 1.05119e-06
0 -0.010496 0.00202291 0.000554196 -3.02273e-06 1.06816e-06
2.71051e-20 0.010496 0.00202291 0.00100899 1.56467e-06 2.3764e-06
0 0.0104977 0.00235078 5.80267e-08 1.47454e-10 1.92323e-10
0 -0.0104977 0.00235077 2.99832e-08 -2.2346e-10 1.01325e-10
5.42101e-20 -0.0108033 0.000314595 9.39452e-06 -3.51546e-08 6.13517e-08
-2.71051e-20 0.0108033 0.000314595 8.45049e-06 1.25355e-08 1.99968e-09
2.71051e-20 -0.0108031 0.00093799 0.00103043 -5.68508e-06 1.67916e-07
0 0.0108031 0.00093799 0.00188005 3.09523e-06 -2.11956e-06
2.71051e-20 0.01079 0.00152732 0.00230899 5.8374e-06 3.9515e-06
2.71051e-20 -0.01079 0.00152732 0.00125622 -7.5711e-06 2.30863e-06
0 -0.0110754 5.97384e-09 2.53175e-11 -1.5678e-13 1.37345e-13
1.03398e-25 0.0110754 5.13922e-09 1.06997e-11 3.23093e-14 8.47873e-15
0 -0.0110786 0.00014364 0.000142638 -1.07803e-06 1.31142e-08
1.97448e-21 -0.0110889 0.000613666 0.000609398 -4.6057e-06 5.60282e-08
0 0.0110889 0.000613665 0.00110584 3.83077e-06 -9.83471e-07
0 -0.0108991 0.00228385 0.000689552 -5.91742e-06 3.10924e-06
0 0.0108991 0.00228385 0.00126096 4.50918e-06 5.14455e-06
7.04758e-22 -0.010988 0.00190081 0.00120069 -1.04437e-05 4.11348e-06
3.30872e-24 0.010988 0.00190078 0.00219236 1.03453e-05 6.24898e-06
-2.26962e-20 -0.0110831 0.00123266 0.0014009 -1.12094e-05 2.04065e-06
0 0.0110831 0.00123266 0.00256054 1.05033e-05 1.94606e-06
0 0.0111876 4.08628e-09 0 0 0
-6.61744e-24 0.0109863 0.00260985 9.81277e-08 4.46858e-10 4.26502e-10
0 -0.0109863 0.00260985 5.32736e-08 -5.34458e-10 2.82654e-10
2.71051e-20 0.0113733 0.000305239 8.5427e-06 2.16685e-08 1.97055e-08
2.71051e-20 -0.0113733 0.000305239 9.42053e-06 -8.30977e-08 4.078e-08
0 -0.0113913 0.000918847 0.00141432 -1.2808e-05 -4.53774e-08
0 0.0113913 0.000918847 0.00257386 1.2345e-05 -1.88078e-06
1.7748e-20 -0.0112123 0.00231934 0.00101275 -1.02379e-05 5.18182e-06
8.8012e-21 0.0112123 0.00231934 0.00183895 1.05503e-05 7.73173e-06
5.42101e-20 -0.0113682 0.00155884 0.00192216 -1.91194e-05 5.7814e-06
5.42101e-20 0.0113682 0.00155884 0.00351469 2.11907e-05 7.90978e-06
0 -0.0115296 2.63527e-09 0 0 0
2.71051e-20 0.0114039 0.00209577 0.00297732 1.97012e-05 1.19713e-05
0 -0.0114039 0.00209577 0.00164159 -1.73658e-05 8.42612e-06
2.71051e-20 -0.0113392 0.00255892 0.000708068 -7.3968e-06 3.98756e-06
2.71051e-20 0.0113392 0.00255892 0.00128082 7.36383e-06 6.05812e-06
0 0.0116471 4.41185e-09 4.39252e-11 4.18937e-14 3.90876e-13
-5.16988e-26 -0.0116471 2.49118e-09 6.86256e-12 -6.61372e-14 5.96549e-14
-2.06795e-25 0.0116702 0.000351062 0.000830874 5.35821e-06 -5.36232e-07
3.72537e-20 -0.0116865 0.00059805 0.00078918 -8.64062e-06 3.24337e-08
-2.06795e-25 0.0116865 0.000598047 0.00141542 9.1279e-06 -9.13491e-07
4.3609e-21 -0.0117045 0.00122297 0.00193825 -2.23297e-05 3.71481e-06
1.65436e-24 0.0117045 0.00122299 0.00348321 2.61617e-05 4.49206e-06
6.61744e-24 0.0114599 0.00285977 1.36484e-07 1.21418e-09 7.90355e-10
0 -0.0114598 0.00285975 7.58946e-08 -1.04588e-09 5.59744e-10
1.83634e-21 -0.0117133 0.00184588 0.00217878 -2.64018e-05 9.7389e-06
0 0.0117133 0.00184591 0.00389087 3.3238e-05 1.40582e-05
-1.76057e-20 -0.0116596 0.00239949 0.00148654 -1.88301e-05 9.06329e-06
-3.30872e-24 0.0116596 0.00239949 0.00263809 2.35693e-05 1.31829e-05
0 0.0119676 0.000293859 8.87919e-06 5.96529e-09 1.11527e-07
0 -0.0119676 0.000293859 9.65857e-06 -8.18574e-08 1.1593e-07
0 0.0120131 0.000895955 0.00314942 2.46908e-05 -1.95896e-06
-2.71051e-20 -0.0120131 0.000895955 0.00176726 -2.20969e-05 1.53321e-08
0 0.0120421 0.000581293 0.0015513 1.23002e-05 -8.13684e-07
-2.71051e-20 0.0120433 0.00152444 0.00472129 4.66273e-05 1.42086e-05
-2.71051e-20 -0.0120433 0.00152444 0.00266325 -3.54397e-05 9.29205e-06
2.71051e-20 0.0118604 0.00273056 0.00206015 2.27876e-05 1.32992e-05
2.71051e-20 -0.0118604 0.00273056 0.00117407 -1.76285e-05 8.93794e-06
0 0.0120387 0.00217273 0.00444919 4.70189e-05 2.24686e-05
2.71051e-20 -0.0120387 0.00217273 0.00254696 -3.4727e-05 1.56629e-05
8.27181e-25 -0.0122418 3.82985e-09 7.82518e-11 -9.09661e-13 1.82574e-12
0 0.0122418 1.65827e-09 3.14906e-11 -8.41917e-14 9.85518e-13
0 0.0119119 0.00310459 1.41514e-07 1.67861e-09 1.04675e-09
6.61744e-24 -0.0119119 0.00310459 8.15298e-08 -1.31331e-09 7.22199e-10
-2.00839e-20 -0.0123043 0.000568948 0.00094759 -1.25537e-05 -1.10633e-07
-2.06795e-25 0.0123043 0.000568944 0.00165147 1.46389e-05 -7.40104e-07
-2.06795e-25 0.0123214 0.000756605 0.0024687 2.44277e-05 2.05431e-06
-7.91281e-21 -0.01236 0.00118123 0.00249333 -3.43848e-05 5.59217e-06
0 0.01236 0.00118124 0.0043179 4.65774e-05 8.37741e-06
-8.09148e-21 -0.0123814 0.00184432 0.00312864 -4.52575e-05 1.65419e-05
0 0.0123814 0.00184434 0.00533519 6.60067e-05 2.49266e-05
-5.42101e-20 -0.0125711 0.000269457 1.037e-05 -1.23825e-07 3.40004e-07
2.71051e-20 0.0125711 0.000269457 9.69105e-06 -5.75466e-08 4.70922e-07
-5.29396e-21 -0.0123374 0.00258488 0.00231293 -3.56918e-05 1.81358e-05
3.30872e-24 0.0123374 0.00258488 0.00386473 5.09077e-05 2.67026e-05
-2.71051e-20 0.0122817 0.00299995 0.00208965 2.72434e-05 1.7238e-05
0 -0.0122817 0.00299995 0.00124776 -2.08287e-05 1.15874e-05
0 0.0126475 0.000839062 0.00353765 3.48033e-05 -1.65658e-06
-2.71051e-20 -0.0126475 0.000839062 0.00205995 -2.86644e-05 -9.39583e-07
0 0.0126468 0.00113831 0.00457159 5.5852e-05 1.07448e-05
0 0.0123472 0.00333734 9.1045e-08 1.34596e-09 8.26401e-10
0 -0.0123472 0.00333734 5.46982e-08 -1.02433e-09 5.73859e-10
5.42101e-20 -0.0127108 0.0014705 0.00349703 -5.15262e-05 1.41907e-05
2.71051e-20 0.0127108 0.0014705 0.0058894 8.05089e-05 2.32255e-05
1.65436e-24 -0.0128491 7.12675e-09 1.76976e-10 -3.43718e-12 6.40577e-12
8.27181e-25 0.0128491 4.23759e-09 1.27153e-10 3.92984e-12 1.04216e-11
2.71051e-20 -0.0127172 0.00217074 0.00381961 -5.95486e-05 2.6944e-05
-5.42101e-20 0.0127172 0.00217074 0.00629893 9.03971e-05 3.97534e-05
-1.65436e-24 -0.0129129 0.000505059 0.00101156 -1.4272e-05 -5.51569e-07
-2.11725e-20 0.0129129 0.000505054 0.00170417 1.97099e-05 6.91561e-07
-1.28974e-20 -0.0125922 0.00303079 0.00181307 -3.14704e-05 1.80013e-05
4.44361e-21 0.0125922 0.00303079 0.0029355 4.42846e-05 2.62958e-05
0 -0.0130203 0.00108239 0.00298046 -4.22003e-05 7.30532e-06
2.42318e-20 0.0130203 0.0010824 0.004902 6.79318e-05 1.38281e-05
-5.42101e-20 -0.012793 0.00278388 0.00304012 -4.95778e-05 2.90586e-05
2.71051e-20 0.012793 0.00278388 0.00486233 7.33161e-05 4.29556e-05
2.71051e-20 -0.0127108 0.00327268 0.00120621 -2.46636e-05 1.3766e-05
0 0.0127108 0.00327268 0.00194346 3.33519e-05 1.93482e-05
-2.71051e-20 0.0131383 0.000218118 1.0971e-05 1.45004e-06 1.26086e-06
2.71051e-20 -0.0131383 0.000218118 1.06985e-05 -3.22442e-07 4.97621e-07
-5.94536e-25 0.013056 0.00176705 0.0068275 0.000106455 3.91988e-05
-1.31298e-20 -0.013073 0.00176509 0.00429691 -6.3735e-05 2.58172e-05
-1.87748e-20 0.013073 0.0017651 0.00686518 0.000107477 3.95592e-05
-1.80946e-25 0.0130744 0.00183568 0.00684368 0.00010767 4.11351e-05
0 0.0127674 0.00356123 4.2537e-08 7.79297e-10 4.83214e-10
1.65436e-24 -0.0127674 0.00356123 2.69533e-08 -5.86232e-10 3.4211e-10
2.71051e-20 0.0132689 0.000719694 0.00343005 4.44197e-05 2.60544e-06
-2.71051e-20 -0.0132689 0.000719694 0.00206612 -2.93804e-05 -2.19822e-06
1.21207e-20 -0.0130872 0.00246808 0.00427597 -6.8134e-05 3.76329e-05
0 0.0130872 0.00246808 0.006651 0.000109405 5.52549e-05
2.21701e-20 -0.0133747 0.000406314 0.000688214 -9.66881e-06 -7.34719e-07
2.34258e-21 0.0133747 0.000406312 0.00125957 1.79404e-05 -1.05891e-06
-3.30872e-24 -0.0134599 1.0582e-08 3.03242e-10 3.10659e-11 1.14951e-11
1.65436e-24 0.0134599 2.11051e-13 5.7873e-09 1.46755e-10 -1.15093e-10
-6.2357e-21 -0.0130916 0.00314268 0.00271649 -4.90533e-05 3.09759e-05
0 0.0130916 0.00314268 0.00410682 7.37197e-05 4.47468e-05
-2.71051e-20 0.0134186 0.00131377 0.00688002 0.00011416 3.23368e-05
2.71051e-20 -0.0134186 0.00131377 0.00437573 -6.04307e-05 1.9015e-05
2.06795e-25 0.0132913 0.0024518 0.00738787 0.000126872 6.48199e-05
0 -0.013075 0.00349045 0.00134402 -2.98462e-05 1.83585e-05
0 0.013075 0.00349045 0.00202835 4.0561e-05 2.57442e-05
-5.42101e-20 0.0134232 0.00207248 0.00833632 0.000143995 6.19426e-05
0 -0.0134232 0.00207248 0.005457 -8.2552e-05 4.22972e-05
0 0.0131937 0.00330463 0.00365054 6.79093e-05 4.26023e-05
4.1359e-25 -0.0132125 0.00333444 0.00239876 -4.52534e-05 2.95789e-05
0 0.0132924 0.0031228 0.00512811 9.53957e-05 5.92653e-05
-2.71051e-20 -0.0136984 0.000300344 8.97678e-06 4.15754e-07 -5.58555e-07
2.71051e-20 0.0136984 0.000300344 0.000382511 8.57816e-06 -7.2483e-06
0 0.013418 0.00277569 0.00730715 0.000133616 7.68522e-05
2.71051e-20 -0.013418 0.00277569 0.00492021 -8.24882e-05 5.25735e-05
0 0.0131762 0.0037788 5.41007e-09 1.07936e-10 7.31654e-11
-2.06795e-25 -0.0131762 0.0037788 3.56614e-09 -7.90655e-11 5.15896e-11
0 0.0132264 0.00369882 0.000961594 1.90593e-05 1.26131e-05
3.10193e-25 -0.0132277 0.00369682 0.000677848 -1.35076e-05 9.18538e-06
2.06795e-25 -0.0133956 0.00311258 0.00392459 -6.73335e-05 4.49541e-05
1.15805e-21 -0.0137612 0.000786141 0.0026357 -3.25641e-05 8.27825e-06
8.72676e-21 0.0137612 0.000786141 0.00412942 7.19047e-05 1.21362e-05
4.13053e-21 0.0133341 0.00352736 0.00302304 5.99184e-05 3.96529e-05
-4.1359e-25 -0.0133341 0.00352736 0.00207909 -4.14304e-05 2.81734e-05
0 -0.0132744 0.00383809 0 0 0
-6.20385e-25 0.0132765 0.00383936 0 0 0
4.57596e-21 -0.0137678 0.00165537 0.00565912 -7.80025e-05 3.61418e-05
-2.12387e-20 0.0137678 0.00165537 0.00838736 0.000148231 5.37271e-05
2.71051e-20 0.013482 0.00331696 0.00508466 9.91065e-05 6.51397e-05
-2.71051e-20 -0.013482 0.00331696 0.0035301 -6.52363e-05 4.53072e-05
5.4139e-21 0.0137484 0.00241532 0.00903855 0.000166 8.62464e-05
5.37523e-21 -0.0137484 0.00241533 0.00628704 -9.48829e-05 5.69092e-05
0 0.013458 0.00374223 0.00196434 4.02345e-05 2.81423e-05
2.71051e-20 -0.013458 0.00374223 0.0013682 -2.93016e-05 2.08899e-05
0 -0.0137485 0.00262036 0.00599019 -9.29289e-05 5.82356e-05
0 -0.014071 -1.61664e-15 5.13503e-08 -5.38475e-10 2.26621e-10
3.30872e-24 0.014071 3.57887e-08 8.32008e-08 2.04414e-09 -6.0717e-11
-1.47759e-20 0.0137488 0.00307762 0.00744936 0.000144662 9.22636e-05
0 -0.0137488 0.00307762 0.00532814 -8.85711e-05 6.11937e-05
0 -0.0135651 0.00401367 1.53424e-08 -3.28017e-10 2.51284e-10
0 0.0135651 0.00401367 2.08872e-08 4.74056e-10 3.40397e-10
5.42101e-20 0.0141231 0.00120897 0.00785515 0.000143619 3.25428e-05
2.71051e-20 -0.0141231 0.00120897 0.00537643 -6.52378e-05 2.62092e-05
1.82071e-20 0.0137164 0.00361035 0.00436207 9.0496e-05 6.37373e-05
0 -0.0137164 0.00361036 0.00316563 -5.96933e-05 4.37366e-05
0 -0.014089 0.00201377 0.00736403 -0.000102472 5.61975e-05
2.71051e-20 0.014089 0.00201377 0.0103952 0.000189905 8.60346e-05
0 0.0142657 0.000418225 0.00265454 6.02535e-05 4.36844e-06
0 -0.0142657 0.000418225 0.00174225 -1.25448e-05 1.07606e-06
0 -0.014069 0.0027392 0.00742628 -0.000111864 7.5932e-05
0 0.014069 0.0027392 0.0101479 0.000196729 0.000119088
-2.71051e-20 -0.0138967 0.00392747 0.00235223 -5.11242e-05 3.93113e-05
-2.71051e-20 0.0138967 0.00392747 0.0031769 7.47302e-05 5.56983e-05
-2.71051e-20 -0.0140496 0.00340311 0.00575549 -9.87052e-05 7.36233e-05
-2.71051e-20 0.0140496 0.00340311 0.00767865 0.00015725 0.000112568
-2.1333e-20 0.014441 0.00161389 0.0101617 0.000191683 6.97216e-05
-2.65045e-20 -0.014441 0.0016139 0.00742271 -9.70436e-05 4.30536e-05
-7.79535e-21 -0.0145429 0.00082339 0.00421706 -4.74403e-05 1.36847e-05
-1.21033e-20 0.0145429 0.000823384 0.00593549 0.000114974 1.97787e-05
0 -0.0139237 0.00428406 2.94194e-08 -5.9931e-10 4.70415e-10
0 0.0139237 0.00428406 3.82971e-08 8.92591e-10 6.74278e-10
9.42241e-21 0.014397 0.00237993 0.0116443 0.000224856 0.000121073
5.73815e-21 -0.014397 0.00237994 0.00876469 -0.000121902 6.94295e-05
2.06795e-25 -0.0143814 0.00273275 0.00845402 -0.000122542 7.59309e-05
-2.07705e-21 0.0143653 0.00309538 0.0105229 0.000213457 0.00014232
4.1359e-25 -0.0143653 0.00309537 0.00813472 -0.000123201 8.2613e-05
-6.61744e-24 -0.0147021 5.44306e-08 1.84231e-07 -2.58394e-09 1.39935e-09
0 0.0147022 5.71061e-08 2.43578e-07 6.14962e-09 1.04056e-09
1.68976e-20 0.014305 0.00382188 0.00647129 0.000139504 0.000105374
0 -0.014305 0.00382189 0.0051028 -8.72137e-05 6.29819e-05
-2.71051e-20 -0.0142451 0.00421792 0.00250316 -4.94939e-05 3.73424e-05
2.71051e-20 0.0142451 0.00421792 0.00319339 7.18985e-05 5.76021e-05
2.71051e-20 0.0147298 0.00200539 0.0126972 0.000246205 0.000111748
2.71051e-20 -0.0147298 0.00200539 0.0097042 -0.000129898 5.98341e-05
0 0.0148165 0.00124392 0.00958137 0.000184346 4.68011e-05
0 -0.0148165 0.00124392 0.00713562 -8.90976e-05 2.93961e-05
2.71051e-20 0.014711 0.00272495 0.0133086 0.000265863 0.000166058
0 -0.014711 0.00272495 0.0105321 -0.000142972 8.51852e-05
2.71051e-20 0.0149558 0.000461599 0.00372509 7.22108e-05 -4.76586e-06
0 -0.0149558 0.000461599 0.00264747 -2.3377e-05 -1.5706e-06
0 0.0142802 0.00455258 3.32693e-08 8.09408e-10 6.23632e-10
0 -0.0142802 0.00455258 2.6402e-08 -5.16541e-10 4.03984e-10
0 0.0146561 0.00344874 0.0112041 0.000238633 0.000173648
2.71051e-20 -0.0146561 0.00344874 0.00903317 -0.000141056 9.60497e-05
-1.7882e-20 0.014516 0.0042716 0.00473187 0.000107336 8.57893e-05
-2.24844e-20 -0.014516 0.0042716 0.00384017 -6.84476e-05 5.01829e-05
1.77645e-20 -0.0150862 0.00165186 0.00947056 -0.000124358 3.75608e-05
9.9758e-21 0.0150862 0.00165186 0.0121489 0.000234781 8.94177e-05
-2.71051e-20 0.014707 0.0040482 0.00801268 0.000173375 0.00014022
-2.71051e-20 -0.014707 0.0040482 0.00659949 -0.000105895 7.53336e-05
-1.42904e-20 0.0151175 0.00230445 0.0144427 0.000286898 0.000154491
1.08692e-20 -0.0151175 0.00230447 0.01169 -0.000152349 6.02155e-05
-2.71051e-20 0.0146108 0.00452168 0.00310351 7.89692e-05 6.14e-05
0 -0.0146108 0.00452168 0.00251315 -5.12354e-05 3.87322e-05
0 -0.0149985 0.00306489 0.0118196 -0.000158635 8.16959e-05
-3.06884e-21 0.0149933 0.00309785 0.0142403 0.000293623 0.000198393
5.16988e-26 -0.0149933 0.00309786 0.0118252 -0.000158907 8.26271e-05
-3.51386e-21 -0.0153398 0.000978662 0.00621406 -7.59157e-05 1.37083e-05
-1.16533e-20 0.0153398 0.00097866 0.00799881 0.000155766 3.76767e-05
0 -0.0153748 1.33307e-07 4.0451e-07 -5.52469e-09 2.72688e-09
0 0.015375 6.62672e-08 5.06175e-07 1.20489e-08 1.84701e-09
1.55096e-25 -0.0150755 0.00309569 0.0123889 -0.000163951 7.77728e-05
4.1359e-25 0.0146354 0.00482017 2.04693e-08 5.44385e-10 4.1672e-10
-4.1359e-25 -0.0146354 0.00482017 1.65684e-08 -3.14774e-10 2.45137e-10
1.11578e-20 0.0149803 0.0037633 0.0117452 0.000251916 0.000196239
-2.90539e-20 -0.0149803 0.0037633 0.00993184 -0.000142916 8.61367e-05
-2.71051e-20 -0.0153272 0.00275021 0.0141165 -0.000172903 6.31362e-05
0 0.0153272 0.00275021 0.0167135 0.000341359 0.00020564
2.20005e-20 0.0149658 0.00441692 0.0068868 0.000159712 0.000131355
-3.37912e-20 -0.0149658 0.00441693 0.00588555 -9.13678e-05 5.9997e-05
2.71051e-20 -0.014927 0.00477487 0.00274504 -5.2173e-05 3.71427e-05
2.71051e-20 0.014927 0.00477488 0.00324262 8.68446e-05 7.0115e-05
0 -0.0152999 0.00342237 0.0135322 -0.000177918 8.60661e-05
-2.71051e-20 0.0152999 0.00342237 0.0156517 0.000326994 0.000246321
0 -0.015716 0.00173426 0.0127363 -0.00017063 1.64914e-05
0 0.015716 0.00173426 0.0152987 0.000295666 0.000121668
0 -0.0152841 0.00407715 0.0109255 -0.000150782 8.80341e-05
0 0.0152841 0.00407715 0.0125237 0.000276955 0.000230232
0 -0.0149898 0.00508707 7.24616e-09 -1.22547e-10 9.66907e-11
-2.06795e-25 0.0149898 0.00508707 7.96686e-09 2.09872e-10 1.63758e-10
1.30099e-20 0.0156647 0.00240044 0.0178785 0.000358862 0.000200358
9.03612e-21 -0.0156647 0.00240044 0.015462 -0.00019267 2.77844e-05
0 -0.0158728 0.000521005 0.00378583 -4.19291e-05 9.10507e-06
-1.0842e-19 0.0158728 0.000521006 0.00486926 0.000100469 5.69839e-06
1.33131e-20 0.0151702 0.00482145 0.00500966 0.000123677 0.000103241
-1.14883e-20 -0.0151702 0.00482145 0.00435085 -6.8045e-05 4.54502e-05
2.9953e-20 0.015623 0.00308126 0.0183135 0.000375858 0.000250831
-4.1359e-25 -0.015623 0.00308126 0.0161436 -0.000197545 4.5443e-05
0 -0.015609 0.00353007 0.0153883 -0.000189047 5.70405e-05
0 -0.0153271 0.00461022 0.00756487 -0.000108169 6.71405e-05
0 0.0153271 0.00461022 0.00861181 0.000203778 0.000172764
3.03406e-20 0.0156022 0.00374982 0.016754 0.000356216 0.000280582
0 -0.0156022 0.00374982 0.0150185 -0.000184886 6.27192e-05
2.71051e-20 -0.015269 0.00505544 0.00280441 -4.45219e-05 3.24591e-05
0 0.015269 0.00505544 0.00324343 8.19153e-05 6.8164e-05
2.71051e-20 -0.0159605 0.00272816 0.0182872 -0.000223724 1.68718e-06
-2.71051e-20 0.0159605 0.00272816 0.0204522 0.000411722 0.000241166
-3.10453e-20 0.0155971 0.0043751 0.0130085 0.00029436 0.000249021
0 -0.0155971 0.0043751 0.0117278 -0.000146426 6.41264e-05
-9.04729e-26 0.0153268 0.0053409 0 0 0
0 -0.0153431 0.00535318 5.00071e-09 -7.03233e-11 5.6381e-11
0 0.0153431 0.00535318 5.06904e-10 1.39653e-11 1.20789e-11
-6.46235e-27 0.015348 0.00534205 0.000188487 4.67553e-06 3.94533e-06
2.71051e-20 -0.0159183 0.00340547 0.0186207 -0.000216046 3.03945e-05
2.71051e-20 0.0159183 0.00340547 0.0204196 0.000422789 0.000308983
-4.3944e-21 -0.0155359 0.00491577 0.00663331 -8.67935e-05 4.87689e-05
-7.05089e-21 0.0155359 0.00491577 0.00740478 0.00018368 0.000154994
-1.03398e-25 -0.0159116 0.00370605 0.0174564 -0.000204461 2.85987e-05
-2.71051e-20 -0.0159245 0.00405169 0.017 -0.000194952 4.61413e-05
-2.71051e-20 0.0159245 0.00405169 0.0184292 0.000398082 0.000336011
-7.47771e-20 -0.0163948 0.00113363 0.0102379 -0.000145766 -4.82105e-06
-1.71193e-20 0.0163948 0.00113363 0.0118983 0.000204307 7.37464e-05
0 -0.0164795 5.84737e-08 3.45294e-07 -4.42737e-09 4.44079e-10
1.32349e-23 0.0164797 5.63528e-08 3.63411e-07 6.20213e-09 2.611e-10
6.27251e-21 0.0162478 0.00305838 0.0220656 0.000442871 0.000289758
-8.39919e-21 -0.0162478 0.00305839 0.0201579 -0.000242431 -1.60242e-05
-1.02024e-20 -0.016378 0.00230527 0.018789 -0.000247224 -3.16145e-05
5.52507e-20 0.016378 0.00230524 0.0209081 0.000392874 0.000220731
2.71051e-20 0.0156904 0.00524875 0.00529275 0.000152749 0.000124293
0 -0.0156904 0.00524875 0.00472167 -6.34595e-05 4.34932e-05
5.42101e-20 0.0158759 0.00471202 0.0131977 0.000313466 0.000269596
5.42101e-20 -0.0158759 0.00471202 0.0121168 -0.000138109 5.41154e-05
0 -0.0156951 0.00561829 4.21006e-08 -4.79793e-10 3.25923e-10
0 0.0156951 0.00561829 4.62837e-09 1.31065e-10 1.10598e-10
-1.10569e-20 0.0163084 0.00364992 0.0220796 0.000459546 0.000346202
2.06795e-25 -0.0163084 0.00364992 0.0205821 -0.000229559 -1.51482e-05
5.16988e-26 0.0158074 0.0054888 0.0029919 7.32681e-05 6.11147e-05
-1.03398e-25 -0.0162362 0.0041525 0.0186562 -0.000196065 -1.62353e-06
-3.77401e-22 0.016199 0.00441125 0.0188073 0.000419639 0.000343798
0 -0.016199 0.00441125 0.0176647 -0.000178821 5.33967e-06
0 -0.0161146 0.00513441 0.0104759 -9.50868e-05 1.83173e-05
9.51919e-21 0.0161146 0.00513441 0.0111798 0.000273779 0.000228366
2.71051e-20 0.016031 0.0055414 0.00535175 0.000148087 0.00012111
-2.71051e-20 -0.016031 0.0055414 0.0049365 -4.81292e-05 2.37137e-05
-2.71051e-20 0.0165301 0.00408038 0.0241971 0.000516304 0.000396775
0 -0.0165301 0.00408038 0.0230326 -0.000227694 -6.09241e-05
0 -0.0170241 0.000577593 0.00593791 -8.26031e-05 3.31477e-06
5.42101e-20 0.0170241 0.000577593 0.00692557 9.83583e-05 2.30427e-06
5.42101e-20 -0.0169742 0.00175445 0.0188526 -0.000293016 -4.78367e-05
0 0.0169742 0.00175445 0.0209236 0.000330974 0.000170222
0 -0.0160456 0.00588233 5.01171e-08 -4.08011e-10 1.96721e-10
0 0.0160456 0.00588233 4.50405e-09 1.29509e-10 1.08327e-10
5.16988e-26 0.0161246 0.00579484 0.00243321 6.30067e-05 5.25318e-05
-5.42101e-20 0.0168708 0.00304668 0.0273167 0.000526104 0.000341139
0 -0.0168708 0.00304668 0.0256705 -0.00031465 -0.000117669
0 -0.0164827 0.00476235 0.0186999 -0.000155999 -2.02055e-05
2.71051e-20 0.0164827 0.00476235 0.0195956 0.000454282 0.000374992
-1.54257e-20 -0.0163092 0.00559034 0.00765927 -5.35907e-05 8.42371e-06
1.84616e-20 0.0163092 0.00559034 0.00812079 0.000210284 0.000175324
-1.1315e-20 0.0168571 0.00372694 0.0274356 0.000554523 0.000396397
1.65879e-20 -0.0168571 0.00372694 0.0262853 -0.0002666 -0.000128984
2.58494e-26 -0.0167491 0.00441197 0.0237934 -0.00020463 -9.62748e-05
-2.71051e-20 -0.0165194 0.0053648 0.0132766 -8.07932e-05 -1.30433e-05
0 0.0165194 0.0053648 0.0138873 0.000330645 0.000277368
1.85309e-20 0.0168293 0.00441207 0.0255221 0.00054069 0.000414119
2.40008e-20 -0.0168293 0.00441207 0.0246867 -0.000208392 -0.000111086
0 -0.016393 0.00584515 0.00505098 -3.34088e-05 1.36158e-05
2.71051e-20 0.016393 0.00584515 0.00541779 0.000158168 0.000132589
0 -0.016827 0.00448962 0.0241459 -0.000197983 -0.000106845
8.27181e-25 -0.0163955 0.00614428 5.85154e-08 -2.68964e-10 5.45724e-11
5.16988e-26 0.0163955 0.00614428 4.70291e-09 1.34241e-10 1.16341e-10
0 0.0168096 0.00506989 0.0206542 0.000460563 0.000375945
-1.03398e-25 -0.0168096 0.00506989 0.0200993 -0.000120095 -7.51094e-05
-5.16988e-26 0.0165157 0.00601732 0.00386968 9.11945e-05 7.78049e-05
0 -0.0176231 3.56536e-08 2.72058e-07 -5.56749e-09 -4.35959e-11
0 0.0176231 3.04734e-08 2.59921e-07 3.67265e-09 7.20623e-11
-6.6684e-20 -0.0175916 0.00115889 0.0144598 -0.00028242 -5.18433e-05
-5.37006e-21 0.0175916 0.00115889 0.0159783 0.000250611 7.78222e-05
2.71051e-20 -0.0171737 0.004052 0.0297487 -0.000275378 -0.000200536
0 0.0171737 0.004052 0.0305931 0.000607707 0.000428598
3.30062e-20 -0.0175442 0.0023962 0.0261587 -0.000418409 -0.000160148
2.21337e-20 0.0175442 0.0023962 0.0281293 0.00049229 0.000228699
0 -0.0167746 0.00574376 0.0118889 -4.26622e-05 -3.57365e-05
2.21943e-21 0.0167746 0.00574376 0.0122072 0.00028768 0.000245441
0 0.0171404 0.0047287 0.0276328 0.000582994 0.000454384
0 -0.0171404 0.0047287 0.0271918 -0.000175328 -0.000162444
-2.71051e-20 -0.016705 0.00611265 0.00564433 -1.64892e-05 -4.20977e-06
5.42101e-20 0.016705 0.00611265 0.00584455 0.000161367 0.000142288
-3.86215e-20 -0.0174986 0.00354412 0.0317343 -0.000335091 -0.00024617
-1.86943e-22 0.0174986 0.00354412 0.0329684 0.000615628 0.000372462
0 -0.0167191 0.00643602 6.64445e-08 -7.98805e-11 -1.28859e-10
0 0.0167191 0.00643602 6.21807e-09 1.62512e-10 1.50661e-10
2.71051e-20 -0.0171168 0.00539052 0.0218622 -7.28704e-05 -0.000111238
0 0.0171168 0.00539052 0.0221287 0.000485961 0.000405232
-5.16988e-26 0.0168096 0.00634225 0.00336287 7.9392e-05 7.16171e-05
1.60699e-20 0.0174702 0.00438304 0.0324588 0.000625263 0.000435555
-2.37861e-20 -0.0174702 0.00438304 0.0318738 -0.000236038 -0.000251837
1.8995e-20 -0.0169667 0.00617943 0.00901331 -1.02759e-05 -3.25702e-05
1.63744e-20 0.0169667 0.00617943 0.00920191 0.000217243 0.000195968
2.58494e-26 -0.0174584 0.00475982 0.0302875 -0.000174423 -0.000232952
-2.00815e-20 0.0174493 0.00505023 0.0292122 0.000580382 0.000441968
0 -0.0174493 0.00505023 0.0290648 -0.000126933 -0.000218396
-2.71051e-20 -0.0171679 0.00597129 0.0156073 -1.57715e-05 -7.65377e-05
-2.71051e-20 0.0171679 0.00597129 0.0157633 0.000341683 0.000302474
0 0.0182005 0.000583389 0.00882854 0.000121811 1.26717e-06
5.42101e-20 -0.0182005 0.000583389 0.00798036 -0.000203704 -5.46418e-06
0 -0.017043 0.00643779 0.00599208 1.25361e-06 -1.83156e-05
-2.71051e-20 0.017043 0.00643779 0.00620057 0.000152531 0.000146433
2.71051e-20 0.0177879 0.00403219 0.0363714 0.000651514 0.000403244
2.71051e-20 -0.0177879 0.00403219 0.0354737 -0.000297944 -0.000326051
0 -0.0181761 0.00178292 0.0254476 -0.000558078 -0.000159829
-5.42101e-20 0.0181761 0.00178292 0.0276425 0.00045825 0.000141224
0 -0.0170214 0.00674883 7.36844e-08 1.10955e-10 -3.14837e-10
1.03398e-25 0.0170214 0.00674884 8.02119e-09 1.84977e-10 1.79664e-10
-1.03398e-25 -0.0174458 0.00568734 0.0236811 -3.32069e-05 -0.000165787
-7.15522e-21 0.0174458 0.00568734 0.0236353 0.000472976 0.000388542
0 -0.0177804 0.00470438 0.0350044 -0.000193878 -0.00031718
-2.71051e-20 0.0177804 0.00470438 0.0351592 0.000657945 0.000456046
0 0.0171893 0.0065776 0.00605395 0.000120778 0.0001072
-1.0842e-19 -0.0181642 0.00305697 0.0349353 -0.000507489 -0.000318442
0 0.0181642 0.00305697 0.0368903 0.00066116 0.000268543
-3.59712e-20 -0.0181317 0.00370155 0.0373971 -0.000381845 -0.000346242
-2.38352e-21 0.0181317 0.00370155 0.0386894 0.000691721 0.00034032
0 -0.01741 0.00635261 0.0140399 1.45514e-05 -9.05104e-05
-2.47434e-20 0.01741 0.00635261 0.0140083 0.000279469 0.00024805
-2.71051e-20 -0.0177702 0.00535529 0.0321567 -6.67884e-05 -0.000282477
2.71051e-20 0.0177702 0.00535529 0.0318914 0.000594163 0.000451244
0 -0.0173274 0.00672747 0.00655238 1.62872e-05 -3.50523e-05
-2.71051e-20 0.0173274 0.00672747 0.00659037 0.000141894 0.000138002
-1.67236e-20 0.0181076 0.00436205 0.0388649 0.000695284 0.00039017
-2.73936e-20 -0.0181076 0.00436205 0.0381655 -0.000279702 -0.000353219
-8.27181e-25 -0.0173238 0.00706119 8.01686e-08 2.84843e-10 -4.85082e-10
1.03398e-25 0.0173238 0.00706119 9.10585e-09 1.86915e-10 1.82772e-10
0 -0.0177503 0.00600627 0.0259408 2.01223e-05 -0.000202882
5.42101e-20 0.0177503 0.00600627 0.0255797 0.000483365 0.000403368
-1.29247e-26 -0.0180996 0.00490682 0.0375364 -0.000170934 -0.000343896
0 0.0174399 0.00694425 0.0046775 8.7842e-05 8.14384e-05
5.05914e-21 0.018098 0.00501826 0.0374402 0.00066033 0.000422285
0 -0.018098 0.00501826 0.0374077 -0.000148684 -0.000341989
0 -0.0187969 1.82661e-08 1.77637e-07 -5.60458e-09 -9.44876e-11
0 0.0187969 1.77561e-08 1.90858e-07 3.02667e-09 3.91162e-11
-4.61484e-20 -0.0187878 0.00116731 0.018415 -0.000489212 -8.18659e-05
-2.05637e-21 0.0187878 0.00116731 0.0202975 0.000359647 5.36753e-05
2.91891e-20 -0.0175851 0.00679799 0.0105698 3.27094e-05 -7.29964e-05
3.8302e-20 0.0175851 0.00679799 0.0105278 0.000197709 0.000183297
0 -0.0184432 0.00401963 0.0406834 -0.000386613 -0.000381903
-2.71051e-20 0.0184432 0.00401963 0.0419553 0.000747988 0.000323391
2.67345e-20 -0.0187844 0.00239453 0.033141 -0.000655698 -0.000227295
5.1444e-20 0.0187844 0.00239453 0.0358875 0.000659844 0.000157346
0 -0.0180831 0.00566925 0.0341012 -2.87109e-05 -0.00029884
0 0.0180831 0.00566925 0.033693 0.000582428 0.00041744
-2.71051e-20 -0.0177912 0.00658995 0.0184738 5.24211e-05 -0.000139948
-2.71051e-20 0.0177912 0.00658995 0.018222 0.000318252 0.000281892
-5.42101e-20 -0.0184158 0.00467993 0.0413999 -0.000241014 -0.000386659
0 0.0184158 0.00467993 0.0418738 0.000723267 0.000378676
0 -0.0176529 0.00706043 0.00697717 3.01924e-05 -4.65038e-05
-2.71051e-20 0.0176529 0.00706043 0.00705752 0.000137432 0.000133633
-8.27181e-25 -0.0176264 0.00737367 8.72349e-08 4.38669e-10 -6.15939e-10
0 0.0176264 0.00737367 8.40497e-09 1.52225e-10 1.49093e-10
0 -0.0180712 0.00630777 0.027818 4.89578e-05 -0.000229386
2.07358e-20 0.0180712 0.00630777 0.027263 0.000455483 0.000360614
-2.71051e-20 0.0184261 0.0053197 0.0407101 0.000664928 0.000403422
0 -0.0184261 0.0053197 0.0409425 -9.25946e-05 -0.000380198
1.7415e-20 0.0188515 0.00360143 0.0431397 0.000771195 0.000247081
-6.53944e-20 -0.0188515 0.00360143 0.0410795 -0.000490201 -0.000333474
-1.03398e-25 0.0177896 0.0072108 0.00661715 0.000105026 9.14352e-05
-9.43606e-22 0.0187497 0.00434473 0.0436879 0.000760092 0.000315007
-9.16475e-21 -0.0187497 0.00434473 0.0425412 -0.000337352 -0.000372133
-3.23117e-27 -0.0186678 0.00493689 0.0425136 -0.00018595 -0.000368077
0 -0.018025 0.00697581 0.0164991 6.33595e-05 -0.000127164
2.75635e-20 0.018025 0.00697581 0.016164 0.000256553 0.000223353
0 -0.0183967 0.00598007 0.0374129 2.25423e-05 -0.000330443
2.71051e-20 0.0183967 0.00598007 0.0366524 0.000587898 0.000410267
-2.71051e-20 -0.0179363 0.0073519 0.00767499 4.16968e-05 -5.63522e-05
0 0.0179363 0.0073519 0.00756651 0.00012723 0.000124049
1.0842e-19 0.0193896 0.000584898 0.0110689 0.000194398 2.9238e-06
0 -0.0193896 0.000584898 0.00991487 -0.000364475 -3.97939e-06
2.10979e-20 0.0188216 0.00491492 0.0443913 0.000718846 0.000334308
-2.24171e-20 -0.0188216 0.00491492 0.0438919 -0.00019601 -0.00037512
3.23117e-27 -0.0188105 0.00500153 0.0437744 -0.000178501 -0.000373626
0 -0.0193933 0.00177944 0.0307734 -0.000840478 -0.000161954
0 0.0193933 0.00177944 0.0341475 0.000673692 7.1997e-05
-8.27181e-25 -0.0179292 0.00768641 9.49256e-08 5.52365e-10 -7.00853e-10
-5.16988e-26 0.0179292 0.00768641 7.04262e-09 1.12465e-10 1.09766e-10
0 -0.018369 0.00663164 0.0303821 9.96431e-05 -0.00025354
-2.71051e-20 0.018369 0.00663164 0.0295085 0.000445943 0.000353849
0 0.018018 0.00759871 0.00403839 5.94856e-05 5.43444e-05
0 0.0187273 0.00564917 0.0426192 0.000644849 0.000361874
0 -0.0187273 0.00564917 0.0428955 -4.75794e-05 -0.000362455