# Probe 0 (-1 0.395 0)
# Probe 1 (1 0.395 0)
#       Probe             0             1
#        Time
   0.00060024       899.683       895.813
   0.00132087       893.914       891.594
   0.00218514       906.075       901.683
   0.00322225       906.309       901.929
   0.00446731       906.969       902.467
   0.00595988       908.072       903.472
   0.00774988       909.363       904.631
   0.00989944       910.697       905.829
    0.0124789       912.009       907.007
    0.0155645        913.23       908.101
    0.0192625       914.253       909.018
    0.0237137       914.973       909.648
    0.0290653       915.234        909.87
    0.0355164       914.889       909.548
    0.0432578        913.98       908.711
    0.0525791       912.441        907.26
    0.0637646       910.564       905.341
    0.0769839       908.591       903.272
    0.0926511       906.378       900.898
     0.111167       903.684       897.925
     0.132769       900.104       894.333
        0.159       895.314       889.674
         0.19       889.853       884.715
      0.22875       884.286       880.412
     0.273958       880.908       879.368
     0.319166       880.089       881.255
     0.364375       880.517       884.379
     0.409583       881.801       887.152
     0.432187       883.132       888.492
     0.454792         883.5        888.32
     0.477396        884.55       888.424
          0.5       885.928       888.063
     0.526316       888.101       887.386
     0.555921       891.599       886.622
     0.590081       897.674       886.002
     0.627346       908.107       886.116
     0.653964       919.893       887.299
     0.685422       936.746       888.792
     0.705083       952.512       890.329
     0.727769       972.355       891.869
     0.752517       998.917       893.614
     0.780016       1034.76         895.3
     0.811442       1083.42       896.746
     0.838379       1135.51       897.402
     0.865316       1190.53       897.722
     0.898987       1256.71       897.529
     0.932658       1324.21       896.908
     0.966329       1383.61       896.078
     0.983164       1420.93       895.952
            1       1443.92       895.538
      1.01923       1464.14       895.137
      1.04108       1481.19        894.73
      1.06658       1492.46       894.076
      1.09547       1495.49           893
      1.12918       1488.54       891.311
      1.16627        1472.5       888.895
      1.20798       1449.89       885.553
      1.25665       1425.77       881.187
      1.30532       1408.36       877.699
      1.34426       1400.73       878.243
      1.38319       1400.08       879.048
      1.41239       1402.82       881.125
       1.4416       1407.99       883.601
       1.4708       1414.04       886.501
          1.5       1420.02       889.453
      1.53571       1426.36        892.69
      1.57792       1431.94       895.769
      1.60275       1434.08       897.488
      1.63331       1437.42       898.073
      1.66664        1440.5       898.491
      1.70368       1443.75        898.46
      1.73331       1445.59        898.05
      1.75998       1447.34       897.327
       1.7818        1448.3        896.74
      1.80164       1449.24       896.231
      1.81967       1449.87       895.861
      1.83607       1450.29       895.561
      1.85246       1450.75       895.271
      1.86721       1450.85       895.093
      1.88197       1451.16       894.961
      1.89508       1451.14       894.847
       1.9082       1451.32       894.736
      1.92131       1451.53       894.615
      1.93443       1451.76       894.487
      1.94754       1451.91       894.322
      1.96066       1451.99       894.134
      1.97377        1452.1       893.931
      1.98689       1452.11       893.674
            2       1452.09       893.417
       2.0125       1451.98       893.169
        2.025       1451.85       892.877
       2.0375       1451.75       892.533
         2.05       1451.64       892.163
      2.06286       1451.52        891.77
      2.07571        1451.4       891.354
      2.08857       1451.28       890.927
      2.10184       1451.28       890.491
      2.11512       1451.27       890.046
      2.12839       1451.36       889.643
      2.14166       1451.52       889.282
      2.15493       1451.71       888.985
       2.1682       1452.04       888.777
      2.18147       1452.34       888.691
      2.19475       1452.77       888.748
      2.20802       1453.17       888.995
      2.22129        1453.6       889.463
      2.23523       1454.18       890.062
      2.24916       1454.69       890.896
       2.2631        1455.3        892.08
      2.27703       1455.98       893.634
       2.2919       1456.93       895.714
      2.30676       1457.97       898.317
      2.32163       1459.12       901.459
      2.33649       1460.49       905.195
      2.35135       1461.96        909.59
      2.36622       1463.55       914.706
      2.38108       1465.19       920.624
      2.39595       1466.87       927.425
      2.41081        1468.6       935.201
      2.42568        1470.3        944.06
      2.44054       1472.03       954.107
      2.45541       1473.73        965.44
      2.47027       1475.44       978.143
      2.48514       1477.12       992.347
          2.5       1478.79       1008.16
      2.51471       1480.42       1025.57
      2.52941       1482.01       1044.66
      2.54412        1483.6       1065.43
      2.55882       1485.13       1087.95
      2.57353       1486.64       1112.22
      2.58775       1488.03       1137.73
      2.60196       1489.37       1164.33
      2.61618       1490.64       1192.27
      2.62988       1491.77        1220.8
      2.64359       1492.79       1249.74
       2.6573       1493.76       1279.09
      2.67101       1494.61       1308.54
      2.68472       1495.35       1337.77
      2.69842       1496.03       1366.42
      2.71279       1496.68       1394.62
      2.72715       1497.24       1422.22
      2.74151       1497.75       1448.02
      2.75587       1498.24       1471.76
      2.77023       1498.65       1493.16
      2.78459       1499.02       1511.98
      2.79895       1499.38       1527.94
      2.81331       1499.77          1541
      2.82767       1500.21       1551.12
      2.84203       1500.72       1558.17
      2.85639        1501.3       1562.24
      2.87075       1501.94        1563.4
      2.88368       1502.53       1562.28
       2.8966       1503.19       1558.87
      2.90953       1503.92       1553.28
      2.92245       1504.67       1545.52
      2.93538       1505.45       1536.21
       2.9483       1506.27       1525.36
      2.96123       1507.11       1513.11
      2.97415       1507.98        1499.5
      2.98708       1508.83       1485.15
            3       1509.72       1470.24
      3.01351       1510.62       1454.21
      3.02703       1511.52       1438.07
      3.04054       1512.42       1422.37
      3.05405       1513.28       1407.44
      3.06799       1514.11        1393.2
      3.08193       1514.87       1380.51
      3.09586       1515.54       1369.68
       3.1098       1516.12       1360.93
      3.12373       1516.59       1354.37
       3.1382       1516.96       1350.06
      3.15268       1517.31       1348.04
      3.16715       1517.58       1348.14
      3.18162       1517.85       1350.42
      3.19609       1518.12       1354.61
      3.21056       1518.48       1360.14
      3.22504       1518.87       1366.55
      3.23951       1519.35       1373.46
      3.25398       1519.92        1380.4
      3.26765       1520.53       1387.12
      3.28131       1521.24       1393.33
      3.29498       1522.03       1399.13
      3.30865       1522.91       1404.35
      3.32232       1523.87       1408.94
      3.33599       1524.96       1412.82
      3.34965       1526.12       1415.96
      3.36332       1527.37       1418.34
      3.37699       1528.71       1419.97
      3.39066       1530.13       1420.88
      3.40433       1531.62       1421.11
      3.41799       1533.17       1420.66
      3.43166       1534.76       1419.65
      3.44533       1536.37       1418.08
        3.459       1537.97       1416.04
      3.47266       1539.55       1413.62
      3.48633       1541.06       1410.93
          3.5       1542.47       1408.08
      3.51389       1543.78       1405.16
      3.52778       1544.96       1402.25
      3.54167          1546        1399.5
      3.55556       1546.88       1397.02
      3.56989       1547.63       1394.85
      3.58423       1548.24       1393.12
      3.59857       1548.72        1391.9
       3.6129       1549.09       1391.16
      3.62724       1549.34       1390.87
      3.64158       1549.47       1391.02
      3.65591       1549.49       1391.56
      3.67025       1549.41       1392.43
      3.68399       1549.25       1393.56
      3.69773       1549.02       1394.88
      3.71147       1548.68       1396.33
      3.72521       1548.28        1397.8
      3.73895       1547.81       1399.26
      3.75269       1547.25       1400.63
      3.76643        1546.6       1401.87
      3.78017       1545.87       1402.96
      3.79391       1545.06       1403.89
      3.80765       1544.18       1404.63
      3.82139       1543.19       1405.24
      3.83513       1542.06       1405.72
      3.84886       1540.98       1406.08
       3.8626       1539.86       1406.35
      3.87634       1538.55       1406.53
      3.89008       1537.19       1406.64
      3.90382       1535.83       1406.68
      3.91756       1534.33       1406.69
       3.9313       1532.78       1406.73
      3.94504       1531.23       1406.84
      3.95878       1529.63       1407.06
      3.97252       1528.01       1407.42
      3.98626       1526.35       1407.93
            4       1524.68       1408.58
      4.01316       1523.08       1409.32
      4.02632       1521.47       1410.12
      4.03947       1519.85       1410.98
      4.05263       1518.25       1411.86
      4.06579       1516.66       1412.73
      4.07895       1515.08       1413.64
      4.09211       1513.47       1414.58
      4.10526       1511.93       1415.53
      4.11842       1510.41       1416.47
      4.13158       1508.93       1417.36
      4.14474       1507.48        1418.2
      4.15789       1506.07       1418.95
      4.17105       1504.72        1419.6
      4.18421       1503.43       1420.12
      4.19737       1502.21       1420.48
      4.21053       1501.05       1420.72
      4.22368       1499.98       1420.82
      4.23684       1498.96       1420.76
         4.25       1498.03       1420.55
      4.26316       1497.18       1420.22
      4.27562       1496.42       1419.81
      4.28809       1495.74       1419.28
      4.30055       1495.12       1418.66
      4.31229       1494.59       1418.04
      4.32402       1494.12       1417.34
      4.33575       1493.71       1416.57
      4.34748       1493.32       1415.81
      4.35921       1492.97       1415.01
      4.37201       1492.65       1414.11
      4.38481       1492.36       1413.21
      4.39761       1492.11       1412.32
      4.41041       1491.88       1411.46
      4.42321        1491.7       1410.62
      4.43601       1491.55       1409.83
      4.44881       1491.43       1409.12
       4.4616       1491.34       1408.47
       4.4744       1491.29       1407.91
       4.4872       1491.24       1407.45
          4.5       1491.24        1407.1
       4.5125       1491.27       1406.86
      4.52469       1491.31       1406.74
      4.53687       1491.41       1406.74
      4.54906       1491.54       1406.86
      4.56159       1491.73       1407.09
      4.57448       1491.95       1407.43
      4.58778       1492.23       1407.95
      4.60108       1492.56       1408.57
      4.61438       1492.94       1409.32
      4.62767       1493.36       1410.17
      4.64097       1493.84       1411.12
      4.65427       1494.37       1412.19
      4.66756       1494.95       1413.36
      4.68086       1495.59       1414.62
      4.69416       1496.28       1415.96
      4.70746       1497.01       1417.39
      4.72075       1497.79       1418.89
      4.73405       1498.61       1420.44
      4.74735       1499.48       1422.04
      4.76065       1500.36       1423.68
      4.77394       1501.28       1425.33
      4.78724       1502.22       1426.99
      4.80054       1503.18       1428.64
      4.81384        1504.2       1430.26
      4.82713       1505.23       1431.84
      4.84043       1506.27       1433.37
      4.85373       1507.32       1434.85
      4.86703       1508.39       1436.27
      4.88032       1509.48       1437.62
      4.89362       1510.59       1438.91
      4.90692       1511.71       1440.12
      4.92022       1512.86       1441.26
      4.93351       1514.01        1442.3
      4.94681       1515.18       1443.25
      4.96011       1516.35       1444.07
      4.97341       1517.56       1444.75
       4.9867       1518.78       1445.29
            5       1520.01       1445.67
      5.01351       1521.27       1445.89
      5.02703       1522.54       1445.94
      5.04054       1523.82       1445.85
      5.05405       1525.11       1445.64
      5.06757        1526.4       1445.31
      5.08108       1527.71       1444.88
      5.09459       1529.02       1444.35
      5.10811       1530.33       1443.72
      5.12162       1531.65          1443
      5.13514       1532.98       1442.15
      5.14865       1534.31       1441.18
      5.16216       1535.64        1440.1
      5.17568       1536.97       1438.91
      5.18919        1538.3       1437.61
       5.2027       1539.62       1436.26
      5.21622       1540.94       1434.85
      5.22973       1542.24       1433.43
      5.24324       1543.54       1432.01
      5.25676       1544.81       1430.62
      5.26956       1546.01       1429.35
      5.28236       1547.18       1428.12
      5.29516       1548.33       1426.96
      5.30797       1549.45       1425.88
      5.32077       1550.55        1424.9
      5.33357       1551.61          1424
      5.34637       1552.65       1423.22
      5.35917       1553.64       1422.54
      5.37198        1554.6       1421.95
      5.38478       1555.52       1421.44
      5.39758        1556.4          1421
      5.41038       1557.23        1420.6
      5.42319       1558.03       1420.26
      5.43599       1558.78       1419.99
      5.44879       1559.48       1419.77
      5.46159       1560.13       1419.65
       5.4744       1560.73       1419.63
       5.4872       1561.28       1419.75
          5.5       1561.77       1419.99
       5.5125        1562.2       1420.37
        5.525       1562.59       1420.87
       5.5375       1562.92       1421.49
         5.55        1563.2        1422.2
       5.5625       1563.43       1422.99
        5.575        1563.6       1423.82
       5.5875        1563.7       1424.68
          5.6       1563.76       1425.51
       5.6125       1563.75       1426.32
        5.625       1563.68       1427.06
       5.6375       1563.56       1427.73
         5.65       1563.39       1428.32
       5.6625       1563.16       1428.85
        5.675       1562.87       1429.31
       5.6875       1562.53        1429.7
          5.7       1562.13       1430.05
       5.7125       1561.68       1430.37
        5.725       1561.19       1430.62
       5.7375       1560.63       1430.81
         5.75       1560.01       1431.05
       5.7625       1559.36       1431.19
        5.775       1558.65       1431.32
      5.78824       1557.82       1431.46
      5.80147       1556.99        1431.6
      5.81471       1556.08       1431.78
      5.82794       1555.17       1431.97
      5.84118       1554.21       1432.18
      5.85441       1553.21       1432.39
      5.86765       1552.18        1432.6
      5.88088       1551.12       1432.86
      5.89412       1550.04        1433.2
      5.90735       1548.92       1433.61
      5.92059       1547.78       1434.09
      5.93382       1546.62       1434.56
      5.94706       1545.45       1434.96
      5.96029       1544.26       1435.24
      5.97353       1543.06        1435.4
      5.98676       1541.86       1435.45
            6       1540.66       1435.45
      6.01316       1539.46       1435.43
      6.02668       1538.24       1435.52
       6.0402       1537.02       1435.68
      6.05373       1535.81       1435.97
      6.06725        1534.6        1436.4
      6.08077       1533.42       1436.95
       6.0943       1532.26       1437.64
      6.10829       1531.09       1438.48
      6.12228       1529.93       1439.38
      6.13627       1528.81       1440.33
      6.15026       1527.72       1441.26
      6.16425       1526.66       1442.06
      6.17884        1525.6       1442.73
      6.19344       1524.57       1443.23
      6.20804       1523.58       1443.54
      6.22264       1522.62       1443.67
      6.23724        1521.7       1443.77
      6.25183       1520.83       1443.92
      6.26643       1519.99       1444.18
      6.28103        1519.2       1444.47
      6.29563       1518.45       1444.81
      6.31023       1517.73       1445.13
      6.32378       1517.07        1445.4
      6.33734       1516.47       1445.62
      6.35089       1515.91       1445.71
      6.36445       1515.38       1445.75
        6.378       1514.87       1445.78
      6.39156       1514.39       1445.85
      6.40511       1513.94       1445.98
      6.41867        1513.5        1446.2
      6.43222       1513.08       1446.51
      6.44578       1512.68       1446.82
      6.45933       1512.29       1447.11
      6.47289       1511.92       1447.26
      6.48644       1511.55       1447.21
          6.5        1511.2       1446.93
      6.51471       1510.85       1446.23
      6.52941       1510.47       1445.47
      6.54412       1510.09       1444.44
      6.55836       1509.72       1443.32
      6.57261       1509.35       1441.98
      6.58686       1508.98       1440.48
       6.6011       1508.61       1438.89
      6.61535       1508.24       1437.24
       6.6296       1507.86       1435.63
      6.64384       1507.48       1434.14
      6.65809        1507.1       1432.83
      6.67233       1506.73       1431.68
      6.68658       1506.34       1430.65
      6.70083       1505.96       1429.67
      6.71579       1505.58       1428.59
      6.73074       1505.16       1427.43
       6.7457       1504.76       1426.14
      6.76066       1504.38       1424.79
      6.77562       1503.99        1423.4
      6.79058        1503.6       1422.11
      6.80554       1503.22       1421.04
       6.8205       1502.84       1420.31
      6.83545       1502.47       1419.89
      6.85041       1502.12       1419.83
      6.86537       1501.77       1420.08
      6.88033       1501.43       1420.52
      6.89529       1501.11       1421.14
      6.91025        1500.8        1421.9
      6.92521       1500.51       1422.69
      6.94017       1500.24       1423.26
      6.95512       1499.99       1423.37
      6.97008       1499.76        1422.7
      6.98504       1499.56       1421.53
            7       1499.39       1420.51
      7.01562       1499.24       1419.88
      7.03125       1499.12       1419.63
      7.04688       1499.05       1420.12
       7.0625       1499.02          1421
      7.07812       1499.03       1422.21
      7.09375        1499.1       1423.29
      7.10938       1499.22       1423.67
        7.125       1499.41       1423.34
      7.14062       1499.65       1422.25
      7.15625       1499.96       1421.17
      7.17188       1500.34       1419.25
       7.1875       1500.78       1417.52
      7.20312        1501.3       1415.97
      7.21875       1501.89       1414.78
      7.23438       1502.55       1414.32
         7.25       1503.28       1414.46
      7.26562       1504.07       1415.16
      7.28125       1504.93          1416
      7.29688       1505.86       1416.98
       7.3125       1506.84       1417.43
      7.32812       1507.88       1417.38
      7.34375       1508.96       1416.99
      7.35938       1510.09       1416.14
        7.375       1511.26       1414.75
      7.39062       1512.45       1413.32
      7.40625       1513.67        1411.8
      7.42188       1514.91       1410.56
       7.4375       1516.16       1409.42
      7.45312       1517.41        1408.2
      7.46875       1518.67       1407.12
      7.48438       1519.92       1405.22
          7.5       1521.15       1403.24
      7.51562       1522.37       1401.01
      7.53125       1523.55       1398.45
      7.54688       1524.71       1395.72
       7.5625       1525.83       1393.01
      7.57812       1526.91       1390.46
      7.59375       1527.94       1388.17
      7.60938       1528.92       1386.14
        7.625       1529.85        1384.3
      7.64062       1530.72        1382.6
      7.65625       1531.53       1380.98
      7.67188       1532.28       1379.52
       7.6875       1532.95       1378.14
      7.70312       1533.56       1376.91
      7.71875        1534.1       1375.62
      7.73438       1534.57       1374.31
         7.75       1534.96       1372.68
      7.76562       1535.28       1371.36
      7.78125       1535.51       1370.34
      7.79688       1535.67       1369.88
       7.8125       1535.75       1369.94
      7.82812       1535.74        1370.3
      7.84375       1535.65       1370.43
      7.85938       1535.48       1370.18
        7.875       1535.23       1369.13
      7.89062        1534.9        1367.3
      7.90625       1534.49       1365.01
      7.92188       1534.01       1361.92
       7.9375       1533.45       1358.46
      7.95312       1532.83       1354.57
      7.96875       1532.15       1350.82
      7.98438       1531.41       1347.37
            8       1530.62       1344.33
      8.01613       1529.75       1341.83
      8.03226       1528.84       1340.04
      8.04839       1527.89       1338.89
      8.06452       1526.91       1338.06
      8.08065       1525.91       1337.42
      8.09677       1524.89       1336.53
      8.11068          1524       1335.58
      8.12625          1523        1333.6
       8.1425       1521.95       1331.28
      8.15875        1520.9       1328.92
        8.175       1519.86        1326.4
      8.19125       1518.82       1323.48
       8.2075        1517.8       1320.41
      8.22375       1516.79       1317.37
         8.24        1515.8       1314.89
      8.25625       1514.84       1313.04
       8.2725       1513.89       1311.74
      8.28875       1512.98       1310.77
        8.305       1512.08       1309.64
      8.32125       1511.22       1308.77
       8.3375       1510.39       1307.93
      8.35375       1509.58       1307.15
         8.37       1508.81       1306.33
      8.38625       1508.07       1305.57
       8.4025       1507.36       1304.95
      8.41875       1506.68       1304.52
        8.435       1506.05       1304.17
      8.45125       1505.44       1303.73
       8.4675       1504.87          1303
      8.48375       1504.34       1302.06
          8.5       1503.85       1300.94
      8.51562       1503.39       1299.89
      8.53125       1502.98       1298.79
      8.54688       1502.61       1297.71
       8.5625       1502.28       1296.81
      8.57812       1501.98       1295.97
      8.59375       1501.72       1294.94
      8.60938        1501.5       1293.85
        8.625       1501.31       1292.66
      8.64062       1501.14       1291.19
      8.65625       1501.01       1289.66
      8.67188       1500.91       1288.15
       8.6875       1500.83       1286.72
      8.70312       1500.79       1285.59
      8.71875       1500.77       1284.81
      8.73438       1500.78       1284.95
         8.75       1500.82       1285.66
      8.76562       1500.88       1286.76
      8.78125       1500.96       1287.43
      8.79688       1501.05        1287.3
       8.8125       1501.18       1287.16
      8.82812       1501.32       1286.94
      8.84375       1501.48       1287.53
      8.85938       1501.65       1288.93
        8.875       1501.84       1291.06
      8.89062       1502.04       1293.35
      8.90625       1502.26       1295.87
      8.92188       1502.49       1298.55
       8.9375       1502.74       1301.13
      8.95312          1503       1303.13
      8.96875       1503.27       1303.95
      8.98438       1503.55       1303.13
            9       1503.84       1300.59
      9.01562       1504.14       1297.23
      9.03125       1504.45       1293.76
      9.04688       1504.78        1290.7
       9.0625       1505.11        1287.7
      9.07812       1505.46       1284.72
      9.09375       1505.81       1281.88
      9.10938       1506.18       1278.98
        9.125       1506.55       1276.09
      9.14062       1506.94        1274.3
      9.15625       1507.34       1273.61
      9.17188       1507.74       1273.92
       9.1875       1508.15       1274.63
      9.20312       1508.57       1275.06
      9.21875       1508.98       1274.86
      9.23438        1509.4       1274.07
         9.25       1509.82        1272.4
      9.26562       1510.25       1271.05
      9.28125       1510.67        1269.5
      9.29688       1511.08       1268.66
       9.3125       1511.48       1268.18
      9.32812       1511.87       1267.87
      9.34375       1512.26       1267.23
      9.35938       1512.63       1266.45
        9.375       1512.99       1265.91
      9.39062       1513.34       1265.73
      9.40625       1513.67       1265.86
      9.42188       1513.97       1265.66
       9.4375       1514.26        1265.1
      9.45312       1514.52       1264.83
      9.46875       1514.76       1265.44
      9.48438       1514.98       1266.63
          9.5       1515.17        1267.3
      9.51515       1515.33       1267.45
       9.5303       1515.47       1267.67
      9.54545       1515.58       1268.37
      9.56061       1515.66       1269.53
      9.57576       1515.72       1270.44
      9.59091       1515.75       1270.68
      9.60606       1515.77       1269.61
      9.62121       1515.76       1267.49
      9.63636       1515.73        1263.7
      9.65152       1515.67          1258
      9.66667        1515.6       1251.32
      9.68182       1515.51       1245.15
      9.69697        1515.4       1242.33
      9.71212       1515.28       1244.06
      9.72727       1515.14       1249.13
      9.74242       1514.99       1255.52
      9.75758       1514.84       1259.38
      9.77273       1514.67       1262.68
      9.78788       1514.49       1265.91
      9.80303       1514.32       1268.45
      9.81818       1514.14       1270.55
      9.83333       1513.96       1272.76
      9.84848       1513.77       1274.77
      9.86364       1513.59        1276.1
      9.87879       1513.42       1276.78
      9.89394       1513.25       1276.65
      9.90909       1513.08       1275.31
      9.92424       1512.92       1271.68
      9.93939       1512.76       1265.05
      9.95455        1512.6       1257.77
       9.9697       1512.46       1254.33
      9.98485       1512.31       1256.56
           10       1512.17       1262.11
      10.0147       1512.04        1266.5
      10.0294       1511.91       1265.64
      10.0441       1511.78        1257.8
      10.0588       1511.65       1245.03
      10.0735       1511.52       1231.84
      10.0882       1511.38       1221.84
      10.1029       1511.24        1216.1
      10.1176        1511.1       1213.57
      10.1324       1510.95       1213.62
      10.1471       1510.79        1215.3
      10.1618       1510.63       1217.46
      10.1765       1510.45       1220.09
      10.1912       1510.26        1221.5
      10.2059       1510.07       1223.24
      10.2206       1509.86       1224.77
      10.2353       1509.64       1225.76
        10.25        1509.4       1226.16
      10.2647       1509.16       1226.02
      10.2794        1508.9       1225.39
      10.2941       1508.64       1224.59
      10.3088       1508.36       1224.12
      10.3235       1508.06       1223.88
      10.3382       1507.75       1223.97
      10.3529       1507.44       1224.25
      10.3676       1507.11       1224.54
      10.3824       1506.77       1224.94
      10.3971       1506.42       1225.24
      10.4118       1506.05       1225.24
      10.4265       1505.68       1224.26
      10.4412        1505.3       1222.18
      10.4559       1504.91       1219.49
      10.4706       1504.51       1217.22
      10.4853       1504.11       1216.09
         10.5        1503.7       1215.81
      10.5139       1503.31       1215.72
      10.5278       1502.91       1215.08
      10.5417       1502.52       1213.64
      10.5556       1502.11       1211.49
      10.5694       1501.71       1209.19
      10.5833        1501.3       1207.12
      10.5972        1500.9       1205.64
      10.6111        1500.5       1204.63
      10.6245       1500.11       1203.88
      10.6379       1499.72       1203.42
      10.6513       1499.33       1203.07
      10.6648       1498.95       1202.63
      10.6782       1498.57       1202.36
      10.6916       1498.19       1202.11
       10.705       1497.81       1201.89
      10.7184       1497.43       1201.59
      10.7318       1497.07       1201.18
      10.7452        1496.7       1200.69
      10.7586       1496.34       1200.12
       10.772          1496        1199.5
      10.7854       1495.66       1198.86
      10.7989       1495.33        1198.2
      10.8123       1495.01        1197.5
      10.8257       1494.71       1196.78
      10.8391       1494.42       1196.02
      10.8525       1494.15       1195.24
      10.8659        1493.9       1194.46
      10.8793       1493.66       1193.67