# Force       
# CofR        : (0.000000e+00 0.000000e+00 0.000000e+00)
#
# Time        	(total_x total_y total_z)	(pressure_x pressure_y pressure_z)	(viscous_x viscous_y viscous_z)
0.00060006    	(1.289853e-03 3.703317e-04 2.393853e+03)	(1.289838e-03 3.703340e-04 2.393853e+03)	(1.482327e-08 -2.244883e-09 2.125578e-08)
0.00132005    	(1.437535e-03 4.461846e-04 2.393853e+03)	(1.437462e-03 4.461984e-04 2.393853e+03)	(7.313988e-08 -1.380071e-08 7.683259e-08)
0.00218415    	(1.489517e-03 4.629558e-04 2.393853e+03)	(1.489372e-03 4.629836e-04 2.393853e+03)	(1.455314e-07 -2.779852e-08 1.472573e-07)
0.0032209     	(1.544292e-03 4.827955e-04 2.393853e+03)	(1.544057e-03 4.828406e-04 2.393853e+03)	(2.354358e-07 -4.510506e-08 2.334297e-07)
0.004465      	(1.616308e-03 5.082078e-04 2.393853e+03)	(1.615960e-03 5.082745e-04 2.393853e+03)	(3.479801e-07 -6.666003e-08 3.408356e-07)
0.00594977    	(1.680011e-03 5.303176e-04 2.393853e+03)	(1.679523e-03 5.304108e-04 2.393853e+03)	(4.871527e-07 -9.317312e-08 4.732005e-07)
0.00771286    	(1.750755e-03 5.556346e-04 2.393853e+03)	(1.750096e-03 5.557603e-04 2.393853e+03)	(6.586195e-07 -1.256777e-07 6.359289e-07)
0.00977314    	(1.835323e-03 5.874358e-04 2.393853e+03)	(1.834455e-03 5.876009e-04 2.393853e+03)	(8.673399e-07 -1.650831e-07 8.338718e-07)
0.0121368     	(1.916589e-03 6.159565e-04 2.393853e+03)	(1.915473e-03 6.161684e-04 2.393853e+03)	(1.116286e-06 -2.119288e-07 1.068705e-06)
0.0148015     	(2.011136e-03 6.510652e-04 2.393853e+03)	(2.009727e-03 6.513320e-04 2.393853e+03)	(1.408811e-06 -2.668658e-07 1.343788e-06)
0.0177645     	(2.103832e-03 6.850680e-04 2.393853e+03)	(2.102086e-03 6.853983e-04 2.393853e+03)	(1.746793e-06 -3.303050e-07 1.660112e-06)
0.0210793     	(2.212348e-03 7.261892e-04 2.393853e+03)	(2.210207e-03 7.265936e-04 2.393853e+03)	(2.141202e-06 -4.043144e-07 2.028429e-06)
0.0248343     	(2.350180e-03 7.809284e-04 2.393853e+03)	(2.347569e-03 7.814212e-04 2.393853e+03)	(2.610947e-06 -4.927192e-07 2.466728e-06)
0.0291096     	(2.505951e-03 8.398053e-04 2.393853e+03)	(2.502774e-03 8.404049e-04 2.393853e+03)	(3.176658e-06 -5.995154e-07 2.991661e-06)
0.033988      	(2.700007e-03 9.135050e-04 2.393853e+03)	(2.696141e-03 9.142351e-04 2.393853e+03)	(3.866376e-06 -7.301017e-07 3.627304e-06)
0.0395417     	(2.963788e-03 1.018191e-03 2.393852e+03)	(2.959069e-03 1.019083e-03 2.393852e+03)	(4.718911e-06 -8.917268e-07 4.408844e-06)
0.0458253     	(3.272564e-03 1.133703e-03 2.393852e+03)	(3.266787e-03 1.134795e-03 2.393852e+03)	(5.776680e-06 -1.092188e-06 5.365190e-06)
0.0529314     	(3.678471e-03 1.287012e-03 2.393852e+03)	(3.671360e-03 1.288356e-03 2.393852e+03)	(7.111212e-06 -1.344820e-06 6.555777e-06)
0.0609771     	(4.205897e-03 1.486947e-03 2.393852e+03)	(4.197071e-03 1.488616e-03 2.393852e+03)	(8.825668e-06 -1.668701e-06 8.063201e-06)
0.0701234     	(4.915334e-03 1.755935e-03 2.393852e+03)	(4.904247e-03 1.758029e-03 2.393852e+03)	(1.108670e-05 -2.094527e-06 1.002149e-05)
0.0804991     	(5.875046e-03 2.126387e-03 2.393851e+03)	(5.860922e-03 2.129051e-03 2.393851e+03)	(1.412390e-05 -2.664028e-06 1.262319e-05)
0.0923479     	(7.077581e-03 2.577702e-03 2.393851e+03)	(7.059306e-03 2.581140e-03 2.393851e+03)	(1.827495e-05 -3.438159e-06 1.610499e-05)
0.105877      	(8.732878e-03 3.208771e-03 2.393850e+03)	(8.708806e-03 3.213282e-03 2.393850e+03)	(2.407207e-05 -4.511085e-06 2.089722e-05)
0.121153      	(1.097332e-02 4.053624e-03 2.393849e+03)	(1.094109e-02 4.059631e-03 2.393849e+03)	(3.222971e-05 -6.007003e-06 2.751941e-05)
0.13749       	(1.382962e-02 5.131571e-03 2.393848e+03)	(1.378649e-02 5.139552e-03 2.393848e+03)	(4.313720e-05 -7.980854e-06 3.615794e-05)
0.152633      	(1.691337e-02 6.254412e-03 2.393846e+03)	(1.685788e-02 6.264618e-03 2.393846e+03)	(5.549376e-05 -1.020692e-05 4.596322e-05)
0.166953      	(2.048866e-02 7.593391e-03 2.393844e+03)	(2.041895e-02 7.606059e-03 2.393844e+03)	(6.970354e-05 -1.266824e-05 5.608089e-05)
0.180432      	(2.443078e-02 9.092568e-03 2.393842e+03)	(2.434515e-02 9.107938e-03 2.393842e+03)	(8.562686e-05 -1.536997e-05 6.662749e-05)
0.193156      	(2.870801e-02 1.075662e-02 2.393840e+03)	(2.860481e-02 1.077495e-02 2.393840e+03)	(1.031983e-04 -1.833384e-05 7.766556e-05)
0.204449      	(3.298419e-02 1.245458e-02 2.393837e+03)	(3.286317e-02 1.247591e-02 2.393837e+03)	(1.210202e-04 -2.132960e-05 8.831618e-05)
0.214768      	(3.730280e-02 1.421144e-02 2.393835e+03)	(3.716349e-02 1.423584e-02 2.393834e+03)	(1.393112e-04 -2.439778e-05 9.878614e-05)
0.224115      	(4.155370e-02 1.597431e-02 2.393832e+03)	(4.139606e-02 1.600178e-02 2.393832e+03)	(1.576424e-04 -2.746720e-05 1.088602e-04)
0.232863      	(4.580432e-02 1.776978e-02 2.393829e+03)	(4.562790e-02 1.780039e-02 2.393829e+03)	(1.764148e-04 -3.060535e-05 1.188005e-04)
0.241525      	(5.025355e-02 1.968053e-02 2.393826e+03)	(5.005692e-02 1.971451e-02 2.393825e+03)	(1.966281e-04 -3.397979e-05 1.291306e-04)
0.250318      	(5.501589e-02 2.175805e-02 2.393822e+03)	(5.479703e-02 2.179574e-02 2.393822e+03)	(2.188687e-04 -3.768724e-05 1.400851e-04)
0.25861       	(5.976998e-02 2.386580e-02 2.393818e+03)	(5.952852e-02 2.390724e-02 2.393818e+03)	(2.414631e-04 -4.144279e-05 1.507829e-04)
0.26649       	(6.449067e-02 2.599268e-02 2.393814e+03)	(6.422625e-02 2.603792e-02 2.393814e+03)	(2.644263e-04 -4.524702e-05 1.612491e-04)
0.274194      	(6.927173e-02 2.817923e-02 2.393810e+03)	(6.898342e-02 2.822842e-02 2.393810e+03)	(2.883148e-04 -4.919101e-05 1.717361e-04)
0.281899      	(7.420527e-02 3.046929e-02 2.393806e+03)	(7.389163e-02 3.052265e-02 2.393805e+03)	(3.136385e-04 -5.335976e-05 1.824366e-04)
0.28989       	(7.946160e-02 3.294391e-02 2.393801e+03)	(7.912016e-02 3.300182e-02 2.393800e+03)	(3.414455e-04 -5.790632e-05 1.937794e-04)
0.298072      	(8.501544e-02 3.560234e-02 2.393795e+03)	(8.464389e-02 3.566514e-02 2.393795e+03)	(3.715489e-04 -6.279838e-05 2.055690e-04)
0.306334      	(9.076504e-02 3.840235e-02 2.393789e+03)	(9.036143e-02 3.847034e-02 2.393789e+03)	(4.036110e-04 -6.798100e-05 2.175735e-04)
0.315201      	(9.706003e-02 4.151483e-02 2.393783e+03)	(9.662018e-02 4.158866e-02 2.393782e+03)	(4.398497e-04 -7.382547e-05 2.304753e-04)
0.324358      	(1.036855e-01 4.485727e-02 2.393775e+03)	(1.032063e-01 4.493743e-02 2.393775e+03)	(4.791846e-04 -8.015644e-05 2.436832e-04)
0.333667      	(1.105034e-01 4.836910e-02 2.393767e+03)	(1.099823e-01 4.845598e-02 2.393767e+03)	(5.210927e-04 -8.688235e-05 2.568450e-04)
0.343189      	(1.175229e-01 5.206371e-02 2.393758e+03)	(1.169571e-01 5.215779e-02 2.393758e+03)	(5.658394e-04 -9.407843e-05 2.697453e-04)
0.35323       	(1.249025e-01 5.603364e-02 2.393748e+03)	(1.242876e-01 5.613563e-02 2.393747e+03)	(6.149725e-04 -1.019937e-04 2.827552e-04)
0.363395      	(1.323374e-01 6.014526e-02 2.393737e+03)	(1.316708e-01 6.025556e-02 2.393737e+03)	(6.666243e-04 -1.102995e-04 2.951914e-04)
0.373195      	(1.393970e-01 6.416302e-02 2.393726e+03)	(1.386788e-01 6.428156e-02 2.393725e+03)	(7.181408e-04 -1.185397e-04 3.063853e-04)
0.382709      	(1.461072e-01 6.808941e-02 2.393714e+03)	(1.453375e-01 6.821613e-02 2.393714e+03)	(7.696143e-04 -1.267223e-04 3.163709e-04)
0.392222      	(1.525653e-01 7.198511e-02 2.393702e+03)	(1.517430e-01 7.212016e-02 2.393702e+03)	(8.223069e-04 -1.350504e-04 3.254038e-04)
0.401056      	(1.583476e-01 7.559744e-02 2.393691e+03)	(1.574753e-01 7.574033e-02 2.393691e+03)	(8.722628e-04 -1.428920e-04 3.328100e-04)
0.410246      	(1.640401e-01 7.926092e-02 2.393678e+03)	(1.631151e-01 7.941204e-02 2.393678e+03)	(9.249198e-04 -1.511249e-04 3.394902e-04)
0.419765      	(1.695876e-01 8.298114e-02 2.393665e+03)	(1.686076e-01 8.314083e-02 2.393665e+03)	(9.800197e-04 -1.596891e-04 3.451961e-04)
0.42983       	(1.749921e-01 8.677421e-02 2.393651e+03)	(1.739536e-01 8.694294e-02 2.393650e+03)	(1.038583e-03 -1.687361e-04 3.498326e-04)
0.440734      	(1.802842e-01 9.070783e-02 2.393634e+03)	(1.791822e-01 9.088629e-02 2.393634e+03)	(1.101991e-03 -1.784582e-04 3.531883e-04)
0.452916      	(1.854068e-01 9.481264e-02 2.393616e+03)	(1.842346e-01 9.500175e-02 2.393615e+03)	(1.172205e-03 -1.891131e-04 3.548911e-04)
0.466487      	(1.900542e-01 9.895696e-02 2.393594e+03)	(1.888052e-01 9.915756e-02 2.393594e+03)	(1.249042e-03 -2.005950e-04 3.543144e-04)
0.48167       	(1.938365e-01 1.029662e-01 2.393570e+03)	(1.925041e-01 1.031790e-01 2.393570e+03)	(1.332431e-03 -2.127835e-04 3.507801e-04)
0.496703      	(1.959766e-01 1.061500e-01 2.393546e+03)	(1.945642e-01 1.063741e-01 2.393546e+03)	(1.412384e-03 -2.241600e-04 3.445598e-04)
0.511888      	(1.965401e-01 1.085281e-01 2.393522e+03)	(1.950506e-01 1.087629e-01 2.393522e+03)	(1.489497e-03 -2.348311e-04 3.359423e-04)
0.527552      	(1.954274e-01 1.100531e-01 2.393498e+03)	(1.938632e-01 1.102980e-01 2.393497e+03)	(1.564204e-03 -2.448117e-04 3.251239e-04)
0.544674      	(1.923660e-01 1.106266e-01 2.393472e+03)	(1.907272e-01 1.108807e-01 2.393471e+03)	(1.638844e-03 -2.541879e-04 3.121867e-04)
0.562865      	(1.870901e-01 1.099088e-01 2.393445e+03)	(1.853805e-01 1.101712e-01 2.393445e+03)	(1.709641e-03 -2.624362e-04 2.975459e-04)
0.58083       	(1.800106e-01 1.078136e-01 2.393421e+03)	(1.782397e-01 1.080827e-01 2.393421e+03)	(1.770953e-03 -2.691254e-04 2.827433e-04)
0.599024      	(1.712290e-01 1.044309e-01 2.393398e+03)	(1.694053e-01 1.047051e-01 2.393398e+03)	(1.823707e-03 -2.742452e-04 2.686349e-04)
0.617219      	(1.610980e-01 9.983465e-02 2.393378e+03)	(1.592309e-01 1.001124e-01 2.393377e+03)	(1.867080e-03 -2.777330e-04 2.562304e-04)
0.635905      	(1.496071e-01 9.404335e-02 2.393359e+03)	(1.477054e-01 9.432313e-02 2.393359e+03)	(1.901650e-03 -2.797840e-04 2.458474e-04)
0.655117      	(1.369524e-01 8.712533e-02 2.393342e+03)	(1.350252e-01 8.740562e-02 2.393342e+03)	(1.927271e-03 -2.802917e-04 2.384782e-04)
0.674895      	(1.232390e-01 7.916738e-02 2.393327e+03)	(1.212954e-01 7.944686e-02 2.393327e+03)	(1.943593e-03 -2.794884e-04 2.343922e-04)
0.695281      	(1.085797e-01 7.031544e-02 2.393315e+03)	(1.066295e-01 7.059305e-02 2.393314e+03)	(1.950246e-03 -2.776121e-04 2.336836e-04)
0.716325      	(9.303069e-02 6.073542e-02 2.393304e+03)	(9.108397e-02 6.101042e-02 2.393303e+03)	(1.946722e-03 -2.749915e-04 2.359592e-04)
0.738457      	(7.627712e-02 5.039951e-02 2.393294e+03)	(7.434523e-02 5.067128e-02 2.393294e+03)	(1.931894e-03 -2.717615e-04 2.409955e-04)
0.760985      	(5.884193e-02 3.982796e-02 2.393287e+03)	(5.693670e-02 4.009613e-02 2.393287e+03)	(1.905232e-03 -2.681706e-04 2.482742e-04)
0.784363      	(4.028500e-02 2.887428e-02 2.393281e+03)	(3.841997e-02 2.913858e-02 2.393281e+03)	(1.865036e-03 -2.642981e-04 2.576931e-04)
0.80774       	(2.141540e-02 1.813449e-02 2.393277e+03)	(1.960371e-02 1.839483e-02 2.393277e+03)	(1.811692e-03 -2.603337e-04 2.688587e-04)
0.827286      	(5.602011e-03 9.528637e-03 2.393275e+03)	(3.846459e-03 9.785618e-03 2.393275e+03)	(1.755552e-03 -2.569805e-04 2.796701e-04)
0.849412      	(-1.230561e-02 -9.461061e-05 2.393274e+03)	(-1.398728e-02 1.584587e-04 2.393274e+03)	(1.681665e-03 -2.530693e-04 2.935544e-04)
0.872424      	(-3.038879e-02 -9.522368e-03 2.393274e+03)	(-3.198193e-02 -9.273592e-03 2.393274e+03)	(1.593140e-03 -2.487766e-04 3.100773e-04)
0.894108      	(-4.664163e-02 -1.779573e-02 2.393274e+03)	(-4.813996e-02 -1.755134e-02 2.393274e+03)	(1.498325e-03 -2.443892e-04 3.279129e-04)
0.915375      	(-6.167515e-02 -2.538586e-02 2.393274e+03)	(-6.307101e-02 -2.514615e-02 2.393274e+03)	(1.395860e-03 -2.397109e-04 3.476867e-04)
0.936233      	(-7.503933e-02 -3.205773e-02 2.393274e+03)	(-7.632671e-02 -3.182298e-02 2.393274e+03)	(1.287375e-03 -2.347499e-04 3.692107e-04)
0.957092      	(-8.708177e-02 -3.807797e-02 2.393274e+03)	(-8.825405e-02 -3.784858e-02 2.393273e+03)	(1.172280e-03 -2.293915e-04 3.927615e-04)
0.978819      	(-9.809601e-02 -4.363128e-02 2.393271e+03)	(-9.914322e-02 -4.340781e-02 2.393271e+03)	(1.047217e-03 -2.234759e-04 4.191563e-04)
1.00055       	(-1.072356e-01 -4.824346e-02 2.393267e+03)	(-1.081529e-01 -4.802629e-02 2.393267e+03)	(9.172877e-04 -2.171640e-04 4.473274e-04)
1.02094       	(-1.139132e-01 -5.158972e-02 2.393260e+03)	(-1.147044e-01 -5.137890e-02 2.393260e+03)	(7.911577e-04 -2.108125e-04 4.753995e-04)
1.04052       	(-1.187392e-01 -5.418816e-02 2.393251e+03)	(-1.194073e-01 -5.398367e-02 2.393250e+03)	(6.681457e-04 -2.044863e-04 5.038296e-04)
1.05829       	(-1.212537e-01 -5.580519e-02 2.393240e+03)	(-1.218098e-01 -5.560637e-02 2.393239e+03)	(5.561540e-04 -1.988150e-04 5.313002e-04)
1.07511       	(-1.218280e-01 -5.667752e-02 2.393227e+03)	(-1.222799e-01 -5.648400e-02 2.393226e+03)	(4.519062e-04 -1.935126e-04 5.590246e-04)
1.09192       	(-1.199929e-01 -5.663017e-02 2.393211e+03)	(-1.203454e-01 -5.644200e-02 2.393211e+03)	(3.524856e-04 -1.881622e-04 5.886740e-04)
1.10844       	(-1.150468e-01 -5.548704e-02 2.393193e+03)	(-1.153091e-01 -5.530347e-02 2.393192e+03)	(2.622977e-04 -1.835703e-04 6.205353e-04)
1.12381       	(-1.063401e-01 -5.296281e-02 2.393173e+03)	(-1.065281e-01 -5.278278e-02 2.393172e+03)	(1.879892e-04 -1.800301e-04 6.539885e-04)
1.13794       	(-9.417456e-02 -4.928328e-02 2.393151e+03)	(-9.430528e-02 -4.910532e-02 2.393151e+03)	(1.307140e-04 -1.779677e-04 6.898021e-04)
1.15062       	(-7.944480e-02 -4.461693e-02 2.393129e+03)	(-7.953487e-02 -4.443931e-02 2.393128e+03)	(9.007507e-05 -1.776159e-04 7.283478e-04)
1.16225       	(-5.997596e-02 -3.812719e-02 2.393106e+03)	(-6.004081e-02 -3.794800e-02 2.393105e+03)	(6.485507e-05 -1.791857e-04 7.702930e-04)
1.17357       	(-3.436874e-02 -2.928663e-02 2.393080e+03)	(-3.442348e-02 -2.910352e-02 2.393080e+03)	(5.474636e-05 -1.831139e-04 8.187310e-04)
1.18474       	(-1.019274e-03 -1.762963e-02 2.393052e+03)	(-1.081555e-03 -1.743955e-02 2.393051e+03)	(6.228087e-05 -1.900806e-04 8.760924e-04)
1.19691       	(4.729458e-02 -4.930548e-04 2.393016e+03)	(4.719868e-02 -2.905787e-04 2.393015e+03)	(9.590702e-05 -2.024761e-04 9.522183e-04)
1.20872       	(1.103702e-01 2.239373e-02 2.392975e+03)	(1.102107e-01 2.261443e-02 2.392974e+03)	(1.595273e-04 -2.207024e-04 1.043736e-03)
1.22053       	(1.916778e-01 5.244688e-02 2.392926e+03)	(1.914175e-01 5.269367e-02 2.392925e+03)	(2.602487e-04 -2.467856e-04 1.155026e-03)
1.23199       	(2.929329e-01 9.076120e-02 2.392868e+03)	(2.925326e-01 9.104266e-02 2.392867e+03)	(4.002392e-04 -2.814587e-04 1.284343e-03)
1.24266       	(4.121142e-01 1.370854e-01 2.392803e+03)	(4.115396e-01 1.374093e-01 2.392801e+03)	(5.746280e-04 -3.238625e-04 1.425816e-03)
1.25333       	(5.582579e-01 1.956651e-01 2.392722e+03)	(5.574612e-01 1.960429e-01 2.392721e+03)	(7.967820e-04 -3.778093e-04 1.585235e-03)
1.26315       	(7.225493e-01 2.635895e-01 2.392630e+03)	(7.214989e-01 2.640292e-01 2.392628e+03)	(1.050400e-03 -4.397481e-04 1.750063e-03)
1.27162       	(8.888227e-01 3.344079e-01 2.392533e+03)	(8.875105e-01 3.349126e-01 2.392531e+03)	(1.312231e-03 -5.047236e-04 1.907559e-03)
1.27905       	(1.053976e+00 4.072846e-01 2.392432e+03)	(1.052398e+00 4.078567e-01 2.392430e+03)	(1.577441e-03 -5.721275e-04 2.055674e-03)
1.28555       	(1.213149e+00 4.794962e-01 2.392331e+03)	(1.211311e+00 4.801365e-01 2.392328e+03)	(1.838259e-03 -6.403034e-04 2.191331e-03)
1.29131       	(1.365599e+00 5.506914e-01 2.392228e+03)	(1.363506e+00 5.514003e-01 2.392225e+03)	(2.093084e-03 -7.088662e-04 2.314505e-03)
1.29648       	(1.511078e+00 6.208101e-01 2.392124e+03)	(1.508737e+00 6.215876e-01 2.392122e+03)	(2.341079e-03 -7.774725e-04 2.425746e-03)
1.30117       	(1.649340e+00 6.892990e-01 2.392020e+03)	(1.646758e+00 6.901449e-01 2.392017e+03)	(2.581862e-03 -8.459026e-04 2.525784e-03)
1.30543       	(1.781080e+00 7.565096e-01 2.391915e+03)	(1.778266e+00 7.574231e-01 2.391912e+03)	(2.814243e-03 -9.135816e-04 2.615380e-03)
1.30936       	(1.905027e+00 8.214290e-01 2.391809e+03)	(1.901987e+00 8.224099e-01 2.391807e+03)	(3.039415e-03 -9.808206e-04 2.695649e-03)
1.31301       	(2.023650e+00 8.858147e-01 2.391703e+03)	(2.020392e+00 8.868625e-01 2.391700e+03)	(3.258581e-03 -1.047765e-03 2.767934e-03)
1.31643       	(2.135779e+00 9.476389e-01 2.391595e+03)	(2.132307e+00 9.487533e-01 2.391593e+03)	(3.471759e-03 -1.114363e-03 2.833016e-03)
1.31965       	(2.242951e+00 1.008014e+00 2.391486e+03)	(2.239271e+00 1.009195e+00 2.391484e+03)	(3.680073e-03 -1.180780e-03 2.891886e-03)
1.3227        	(2.343311e+00 1.066369e+00 2.391377e+03)	(2.339427e+00 1.067616e+00 2.391374e+03)	(3.883258e-03 -1.246818e-03 2.945173e-03)
1.32561       	(2.436986e+00 1.121403e+00 2.391267e+03)	(2.432904e+00 1.122716e+00 2.391264e+03)	(4.081942e-03 -1.312842e-03 2.993526e-03)
1.3284        	(2.527281e+00 1.176723e+00 2.391155e+03)	(2.523004e+00 1.178102e+00 2.391152e+03)	(4.276878e-03 -1.378813e-03 3.037691e-03)
1.33107       	(2.611794e+00 1.229041e+00 2.391042e+03)	(2.607326e+00 1.230485e+00 2.391039e+03)	(4.467925e-03 -1.444832e-03 3.077992e-03)
1.33367       	(2.691402e+00 1.279979e+00 2.390928e+03)	(2.686746e+00 1.281490e+00 2.390925e+03)	(4.656176e-03 -1.511251e-03 3.115074e-03)
1.33617       	(2.768318e+00 1.329248e+00 2.390812e+03)	(2.763477e+00 1.330826e+00 2.390809e+03)	(4.841145e-03 -1.577947e-03 3.149148e-03)
1.33861       	(2.838028e+00 1.377585e+00 2.390697e+03)	(2.833005e+00 1.379230e+00 2.390694e+03)	(5.023386e-03 -1.645007e-03 3.180744e-03)
1.34099       	(2.904096e+00 1.422095e+00 2.390581e+03)	(2.898893e+00 1.423807e+00 2.390578e+03)	(5.202962e-03 -1.712771e-03 3.210087e-03)
1.34332       	(2.966287e+00 1.464820e+00 2.390463e+03)	(2.960907e+00 1.466601e+00 2.390460e+03)	(5.380401e-03 -1.781429e-03 3.237403e-03)
1.3456        	(3.028737e+00 1.509976e+00 2.390344e+03)	(3.023182e+00 1.511826e+00 2.390340e+03)	(5.555744e-03 -1.850689e-03 3.263141e-03)
1.34784       	(3.084209e+00 1.549793e+00 2.390223e+03)	(3.078479e+00 1.551714e+00 2.390220e+03)	(5.729242e-03 -1.920905e-03 3.287231e-03)
1.35005       	(3.136216e+00 1.586647e+00 2.390103e+03)	(3.130315e+00 1.588640e+00 2.390100e+03)	(5.901279e-03 -1.992489e-03 3.310043e-03)
1.35223       	(3.184925e+00 1.623399e+00 2.389983e+03)	(3.178854e+00 1.625464e+00 2.389980e+03)	(6.071673e-03 -2.065107e-03 3.331756e-03)
1.35438       	(3.233282e+00 1.659157e+00 2.389860e+03)	(3.227041e+00 1.661296e+00 2.389857e+03)	(6.240579e-03 -2.138853e-03 3.352551e-03)
1.35652       	(3.272351e+00 1.688863e+00 2.389740e+03)	(3.265943e+00 1.691077e+00 2.389737e+03)	(6.407896e-03 -2.213992e-03 3.372508e-03)
1.35863       	(3.312322e+00 1.720062e+00 2.389620e+03)	(3.305749e+00 1.722352e+00 2.389617e+03)	(6.573692e-03 -2.290355e-03 3.391895e-03)
1.36071       	(3.350237e+00 1.749181e+00 2.389498e+03)	(3.343499e+00 1.751549e+00 2.389495e+03)	(6.738115e-03 -2.367929e-03 3.410787e-03)
1.36279       	(3.384142e+00 1.776158e+00 2.389379e+03)	(3.377241e+00 1.778605e+00 2.389376e+03)	(6.901376e-03 -2.446808e-03 3.429321e-03)
1.36486       	(3.413634e+00 1.801301e+00 2.389262e+03)	(3.406571e+00 1.803828e+00 2.389259e+03)	(7.063526e-03 -2.527125e-03 3.447804e-03)
1.36691       	(3.444518e+00 1.826104e+00 2.389143e+03)	(3.437294e+00 1.828713e+00 2.389139e+03)	(7.224468e-03 -2.608670e-03 3.466270e-03)
1.36896       	(3.471653e+00 1.848246e+00 2.389022e+03)	(3.464268e+00 1.850938e+00 2.389019e+03)	(7.384535e-03 -2.691676e-03 3.484649e-03)
1.37101       	(3.498645e+00 1.871055e+00 2.388902e+03)	(3.491101e+00 1.873831e+00 2.388899e+03)	(7.543720e-03 -2.776026e-03 3.503236e-03)
1.37304       	(3.520130e+00 1.890674e+00 2.388786e+03)	(3.512429e+00 1.893535e+00 2.388782e+03)	(7.701650e-03 -2.861617e-03 3.522207e-03)
1.37508       	(3.543004e+00 1.908924e+00 2.388663e+03)	(3.535145e+00 1.911873e+00 2.388660e+03)	(7.859202e-03 -2.948945e-03 3.541359e-03)
1.37711       	(3.564991e+00 1.927820e+00 2.388542e+03)	(3.556975e+00 1.930857e+00 2.388538e+03)	(8.016271e-03 -3.037823e-03 3.560972e-03)
1.37915       	(3.584345e+00 1.946155e+00 2.388421e+03)	(3.576172e+00 1.949283e+00 2.388417e+03)	(8.172631e-03 -3.128060e-03 3.581051e-03)
1.38118       	(3.602721e+00 1.964081e+00 2.388298e+03)	(3.594393e+00 1.967301e+00 2.388295e+03)	(8.328308e-03 -3.219542e-03 3.601592e-03)
1.38323       	(3.621147e+00 1.978488e+00 2.388167e+03)	(3.612663e+00 1.981801e+00 2.388163e+03)	(8.484199e-03 -3.313004e-03 3.622327e-03)
1.38527       	(3.636007e+00 1.991057e+00 2.388039e+03)	(3.627367e+00 1.994466e+00 2.388035e+03)	(8.640026e-03 -3.408344e-03 3.643423e-03)
1.38733       	(3.649193e+00 2.005822e+00 2.387916e+03)	(3.640397e+00 2.009327e+00 2.387912e+03)	(8.795477e-03 -3.505109e-03 3.665221e-03)
1.3894        	(3.666202e+00 2.021772e+00 2.387785e+03)	(3.657250e+00 2.025375e+00 2.387781e+03)	(8.951654e-03 -3.603570e-03 3.687629e-03)
1.39148       	(3.679677e+00 2.034683e+00 2.387653e+03)	(3.670569e+00 2.038387e+00 2.387649e+03)	(9.107927e-03 -3.703518e-03 3.710548e-03)
1.39357       	(3.691069e+00 2.045728e+00 2.387520e+03)	(3.681804e+00 2.049533e+00 2.387517e+03)	(9.264719e-03 -3.805206e-03 3.733950e-03)
1.39567       	(3.697895e+00 2.055597e+00 2.387399e+03)	(3.688474e+00 2.059505e+00 2.387396e+03)	(9.421545e-03 -3.908350e-03 3.758435e-03)
1.39779       	(3.704868e+00 2.064813e+00 2.387274e+03)	(3.695289e+00 2.068826e+00 2.387270e+03)	(9.578554e-03 -4.013020e-03 3.783959e-03)
1.39993       	(3.705350e+00 2.069520e+00 2.387146e+03)	(3.695615e+00 2.073639e+00 2.387142e+03)	(9.735187e-03 -4.119352e-03 3.810211e-03)
1.40209       	(3.705908e+00 2.075894e+00 2.387021e+03)	(3.696016e+00 2.080121e+00 2.387017e+03)	(9.891955e-03 -4.227285e-03 3.837444e-03)
1.40426       	(3.701234e+00 2.078972e+00 2.386898e+03)	(3.691186e+00 2.083309e+00 2.386894e+03)	(1.004786e-02 -4.336463e-03 3.865515e-03)
1.40646       	(3.696129e+00 2.080861e+00 2.386773e+03)	(3.685926e+00 2.085308e+00 2.386769e+03)	(1.020349e-02 -4.447314e-03 3.894389e-03)
1.40868       	(3.689563e+00 2.084771e+00 2.386649e+03)	(3.679204e+00 2.089330e+00 2.386645e+03)	(1.035847e-02 -4.559387e-03 3.924126e-03)
1.41092       	(3.680365e+00 2.084757e+00 2.386524e+03)	(3.669853e+00 2.089429e+00 2.386520e+03)	(1.051228e-02 -4.672543e-03 3.954483e-03)
1.41319       	(3.669535e+00 2.086299e+00 2.386401e+03)	(3.658870e+00 2.091086e+00 2.386397e+03)	(1.066511e-02 -4.786706e-03 3.985564e-03)
1.41548       	(3.654523e+00 2.083801e+00 2.386276e+03)	(3.643707e+00 2.088703e+00 2.386272e+03)	(1.081669e-02 -4.902042e-03 4.017083e-03)
1.41781       	(3.636338e+00 2.079235e+00 2.386151e+03)	(3.625371e+00 2.084254e+00 2.386147e+03)	(1.096725e-02 -5.018901e-03 4.049076e-03)
1.42017       	(3.612475e+00 2.070074e+00 2.386025e+03)	(3.601359e+00 2.075211e+00 2.386021e+03)	(1.111576e-02 -5.137077e-03 4.081347e-03)
1.42255       	(3.588115e+00 2.062027e+00 2.385902e+03)	(3.576853e+00 2.067283e+00 2.385898e+03)	(1.126200e-02 -5.256210e-03 4.113947e-03)
1.42497       	(3.561183e+00 2.052817e+00 2.385781e+03)	(3.549777e+00 2.058193e+00 2.385777e+03)	(1.140563e-02 -5.376100e-03 4.146947e-03)
1.42743       	(3.528256e+00 2.038090e+00 2.385657e+03)	(3.516709e+00 2.043588e+00 2.385653e+03)	(1.154677e-02 -5.497387e-03 4.180014e-03)
1.42992       	(3.492113e+00 2.020211e+00 2.385537e+03)	(3.480428e+00 2.025831e+00 2.385533e+03)	(1.168460e-02 -5.619648e-03 4.213140e-03)
1.43245       	(3.453478e+00 2.000453e+00 2.385419e+03)	(3.441658e+00 2.006196e+00 2.385414e+03)	(1.181935e-02 -5.743224e-03 4.246220e-03)
1.43502       	(3.412504e+00 1.978923e+00 2.385303e+03)	(3.400553e+00 1.984791e+00 2.385299e+03)	(1.195023e-02 -5.867521e-03 4.279032e-03)
1.43762       	(3.365974e+00 1.952389e+00 2.385191e+03)	(3.353897e+00 1.958382e+00 2.385186e+03)	(1.207674e-02 -5.992585e-03 4.311328e-03)
1.44027       	(3.319945e+00 1.925183e+00 2.385076e+03)	(3.307745e+00 1.931301e+00 2.385071e+03)	(1.219941e-02 -6.118864e-03 4.342876e-03)
1.44297       	(3.267203e+00 1.892276e+00 2.384962e+03)	(3.254886e+00 1.898522e+00 2.384958e+03)	(1.231702e-02 -6.245981e-03 4.373248e-03)
1.4457        	(3.210421e+00 1.855658e+00 2.384853e+03)	(3.197991e+00 1.862032e+00 2.384849e+03)	(1.242912e-02 -6.373903e-03 4.402062e-03)
1.44847       	(3.150736e+00 1.816509e+00 2.384752e+03)	(3.138201e+00 1.823011e+00 2.384748e+03)	(1.253524e-02 -6.502641e-03 4.429375e-03)
1.45128       	(3.088727e+00 1.776693e+00 2.384655e+03)	(3.076092e+00 1.783325e+00 2.384651e+03)	(1.263485e-02 -6.631915e-03 4.455085e-03)
1.45414       	(3.020222e+00 1.731310e+00 2.384569e+03)	(3.007494e+00 1.738071e+00 2.384565e+03)	(1.272723e-02 -6.761770e-03 4.479185e-03)
1.45704       	(2.949947e+00 1.685855e+00 2.384489e+03)	(2.937135e+00 1.692747e+00 2.384485e+03)	(1.281179e-02 -6.891971e-03 4.501890e-03)
1.45998       	(2.877138e+00 1.640360e+00 2.384419e+03)	(2.864250e+00 1.647382e+00 2.384414e+03)	(1.288748e-02 -7.021629e-03 4.523098e-03)
1.46296       	(2.798367e+00 1.589089e+00 2.384361e+03)	(2.785413e+00 1.596241e+00 2.384357e+03)	(1.295390e-02 -7.151813e-03 4.542940e-03)
1.46598       	(2.721443e+00 1.543108e+00 2.384311e+03)	(2.708433e+00 1.550389e+00 2.384307e+03)	(1.301033e-02 -7.281222e-03 4.561358e-03)
1.46903       	(2.641726e+00 1.495511e+00 2.384269e+03)	(2.628670e+00 1.502921e+00 2.384265e+03)	(1.305626e-02 -7.409955e-03 4.578372e-03)
1.4721        	(2.563080e+00 1.452995e+00 2.384241e+03)	(2.549989e+00 1.460532e+00 2.384236e+03)	(1.309108e-02 -7.536661e-03 4.594331e-03)
1.4752        	(2.483295e+00 1.410060e+00 2.384216e+03)	(2.470180e+00 1.417722e+00 2.384211e+03)	(1.311489e-02 -7.662076e-03 4.609459e-03)
1.47833       	(2.402325e+00 1.368583e+00 2.384202e+03)	(2.389198e+00 1.376369e+00 2.384197e+03)	(1.312730e-02 -7.785344e-03 4.624075e-03)
1.48149       	(2.320060e+00 1.327421e+00 2.384195e+03)	(2.306932e+00 1.335328e+00 2.384190e+03)	(1.312823e-02 -7.907072e-03 4.638234e-03)
1.48461       	(2.239917e+00 1.289120e+00 2.384195e+03)	(2.226799e+00 1.297145e+00 2.384190e+03)	(1.311837e-02 -8.024719e-03 4.652543e-03)
1.48761       	(2.162446e+00 1.253723e+00 2.384200e+03)	(2.149347e+00 1.261858e+00 2.384196e+03)	(1.309940e-02 -8.135546e-03 4.667104e-03)
1.49051       	(2.091260e+00 1.223113e+00 2.384211e+03)	(2.078187e+00 1.231354e+00 2.384206e+03)	(1.307277e-02 -8.240564e-03 4.681712e-03)
1.4933        	(2.024458e+00 1.196307e+00 2.384227e+03)	(2.011419e+00 1.204647e+00 2.384222e+03)	(1.303951e-02 -8.340050e-03 4.696638e-03)
1.49603       	(1.960298e+00 1.170691e+00 2.384244e+03)	(1.947298e+00 1.179126e+00 2.384239e+03)	(1.300023e-02 -8.434874e-03 4.711876e-03)
1.49868       	(1.900147e+00 1.147840e+00 2.384264e+03)	(1.887191e+00 1.156365e+00 2.384260e+03)	(1.295582e-02 -8.525352e-03 4.727494e-03)
1.50128       	(1.844176e+00 1.128175e+00 2.384287e+03)	(1.831269e+00 1.136787e+00 2.384282e+03)	(1.290674e-02 -8.611977e-03 4.743606e-03)
1.50384       	(1.793585e+00 1.112090e+00 2.384313e+03)	(1.780732e+00 1.120785e+00 2.384308e+03)	(1.285348e-02 -8.695265e-03 4.760372e-03)
1.50635       	(1.747077e+00 1.098644e+00 2.384341e+03)	(1.734281e+00 1.107420e+00 2.384336e+03)	(1.279660e-02 -8.775271e-03 4.777807e-03)
1.50884       	(1.704900e+00 1.087443e+00 2.384370e+03)	(1.692163e+00 1.096295e+00 2.384365e+03)	(1.273678e-02 -8.852148e-03 4.795882e-03)
1.51129       	(1.665713e+00 1.077736e+00 2.384401e+03)	(1.653039e+00 1.086662e+00 2.384396e+03)	(1.267410e-02 -8.926303e-03 4.814714e-03)
1.51372       	(1.631852e+00 1.071653e+00 2.384435e+03)	(1.619242e+00 1.080651e+00 2.384430e+03)	(1.260917e-02 -8.997697e-03 4.834385e-03)
1.51614       	(1.602167e+00 1.067399e+00 2.384466e+03)	(1.589625e+00 1.076466e+00 2.384462e+03)	(1.254218e-02 -9.066771e-03 4.854759e-03)
1.51855       	(1.576005e+00 1.064901e+00 2.384500e+03)	(1.563531e+00 1.074035e+00 2.384495e+03)	(1.247356e-02 -9.133581e-03 4.875938e-03)
1.52094       	(1.554323e+00 1.064129e+00 2.384532e+03)	(1.541919e+00 1.073327e+00 2.384527e+03)	(1.240379e-02 -9.198221e-03 4.897736e-03)
1.52333       	(1.535687e+00 1.064286e+00 2.384564e+03)	(1.523354e+00 1.073547e+00 2.384559e+03)	(1.233330e-02 -9.260859e-03 4.919943e-03)
1.52571       	(1.520574e+00 1.066251e+00 2.384594e+03)	(1.508312e+00 1.075573e+00 2.384589e+03)	(1.226219e-02 -9.321824e-03 4.942580e-03)
1.52809       	(1.508886e+00 1.069471e+00 2.384626e+03)	(1.496695e+00 1.078852e+00 2.384621e+03)	(1.219092e-02 -9.381235e-03 4.965738e-03)
1.53048       	(1.499744e+00 1.072582e+00 2.384655e+03)	(1.487624e+00 1.082021e+00 2.384650e+03)	(1.211980e-02 -9.439315e-03 4.989146e-03)
1.53286       	(1.494204e+00 1.077357e+00 2.384685e+03)	(1.482155e+00 1.086853e+00 2.384680e+03)	(1.204923e-02 -9.496117e-03 5.012769e-03)
1.53524       	(1.491939e+00 1.083273e+00 2.384715e+03)	(1.479960e+00 1.092824e+00 2.384709e+03)	(1.197959e-02 -9.551732e-03 5.036571e-03)
1.53763       	(1.492651e+00 1.089720e+00 2.384743e+03)	(1.480740e+00 1.099326e+00 2.384738e+03)	(1.191117e-02 -9.606345e-03 5.060291e-03)
1.54002       	(1.495404e+00 1.096231e+00 2.384770e+03)	(1.483560e+00 1.105891e+00 2.384765e+03)	(1.184390e-02 -9.660383e-03 5.084027e-03)
1.54242       	(1.499514e+00 1.102824e+00 2.384798e+03)	(1.487735e+00 1.112538e+00 2.384793e+03)	(1.177834e-02 -9.713712e-03 5.107648e-03)
1.54483       	(1.505803e+00 1.109857e+00 2.384822e+03)	(1.494088e+00 1.119624e+00 2.384817e+03)	(1.171434e-02 -9.766598e-03 5.131109e-03)
1.54724       	(1.512556e+00 1.115460e+00 2.384844e+03)	(1.500904e+00 1.125279e+00 2.384839e+03)	(1.165232e-02 -9.819023e-03 5.154107e-03)
1.54966       	(1.521684e+00 1.121456e+00 2.384868e+03)	(1.510092e+00 1.131328e+00 2.384862e+03)	(1.159222e-02 -9.871331e-03 5.176749e-03)
1.55209       	(1.531070e+00 1.126026e+00 2.384885e+03)	(1.519536e+00 1.135950e+00 2.384880e+03)	(1.153424e-02 -9.923762e-03 5.198836e-03)
1.55454       	(1.541001e+00 1.129329e+00 2.384903e+03)	(1.529523e+00 1.139306e+00 2.384898e+03)	(1.147844e-02 -9.976493e-03 5.220424e-03)
1.557         	(1.552221e+00 1.133113e+00 2.384919e+03)	(1.540797e+00 1.143142e+00 2.384914e+03)	(1.142489e-02 -1.002952e-02 5.241249e-03)
1.55948       	(1.562252e+00 1.134258e+00 2.384935e+03)	(1.550878e+00 1.144342e+00 2.384930e+03)	(1.137358e-02 -1.008308e-02 5.261427e-03)