# k  POINT_DATA 25334
# x  y  z  k
-6.77626e-21 0.057587 1.35324e-07 1.67783e-07
6.77626e-21 -0.057587 1.35324e-07 2.2298e-06
0 0.0575869 0.000409944 7.05255e-08
-3.38813e-21 -0.0575869 0.000409944 1.80331e-06
-1.69407e-21 0.0575869 0.000633503 3.68565e-08
-1.69407e-21 -0.0575869 0.000633504 1.72404e-06
0 0.0575868 0.00104356 4.85746e-08
-3.38813e-21 -0.0575868 0.00104356 1.88333e-06
5.0822e-21 0.0575868 0.00145414 6.76765e-08
-1.69407e-21 -0.0575868 0.00145414 2.43013e-06
0 0.0575868 0.00167624 7.85537e-08
-1.69407e-21 -0.0575868 0.00167624 2.76128e-06
0 0.0575868 0.002087 9.98909e-08
0 -0.0575868 0.002087 3.31682e-06
0 0.0577686 0.000993823 4.46189e-08
6.77626e-21 -0.0577686 0.000993824 1.76665e-06
6.77626e-21 0.0577684 0.00110476 5.01392e-08
6.77626e-21 -0.0577684 0.00110476 1.89346e-06
0 0.0577859 0.000103261 1.84533e-07
0 -0.0577859 0.000103261 2.09831e-06
0 0.0577942 1.15393e-07 2.09439e-07
-6.77626e-21 -0.0577942 1.15393e-07 2.24747e-06
0 0.0578027 1.90097e-05 2.09843e-07
0 -0.0578027 1.90097e-05 2.22983e-06
-6.77626e-21 -0.0578191 1.14264e-07 2.31777e-06
0 0.0578191 1.14264e-07 2.18647e-07
0 0.0577853 0.00199426 9.3662e-08
0 -0.0577853 0.00199426 3.21824e-06
0 0.0577823 0.002105 1.01147e-07
0 -0.0577823 0.002105 3.40414e-06
6.77626e-21 -0.057823 0.00105089 1.69418e-06
0 0.057823 0.00105089 4.43558e-08
0 0.0578007 0.00208013 9.95404e-08
0 -0.0578007 0.00208013 3.37227e-06
6.77626e-21 -0.0578427 5.77484e-05 2.08744e-06
0 0.0578427 5.77488e-05 2.02817e-07
0 0.0578443 1.78371e-05 2.2538e-07
0 -0.0578443 1.78368e-05 2.26351e-06
-6.77626e-21 0.0578469 1.13152e-07 2.28144e-07
-6.77626e-21 -0.0578469 1.13152e-07 2.28232e-06
0 -0.0578171 0.0021082 3.44909e-06
6.77626e-21 0.0578171 0.0021082 1.02289e-07
6.77626e-21 -0.0578434 0.00204427 3.19178e-06
0 0.0578434 0.00204427 9.30134e-08
-6.77626e-21 -0.0578462 0.00208444 3.45488e-06
0 0.0578462 0.00208444 1.01354e-07
6.77626e-21 -0.0578583 0.002112 3.53933e-06
-6.77626e-21 0.0578583 0.002112 1.04059e-07
3.38813e-21 -0.0579123 0.000912335 1.5316e-06
0 0.0579123 0.000912331 4.06162e-08
6.77626e-21 0.0579215 5.62283e-05 2.44139e-07
0 -0.0579215 5.62253e-05 2.03366e-06
-3.38813e-21 -0.0579146 0.00119726 1.755e-06
0 0.0579146 0.00119726 4.67361e-08
6.77626e-21 -0.0579295 1.06809e-07 2.22815e-06
-6.77626e-21 0.0579295 1.06808e-07 2.4131e-07
6.77626e-21 -0.0579351 0.000246057 1.76136e-06
-3.38813e-21 0.0579351 0.000246061 1.44129e-07
-6.77626e-21 -0.0579259 0.00205413 3.25409e-06
0 0.0579259 0.00205413 9.19525e-08
3.38813e-21 -0.0579372 0.00186069 2.72396e-06
-3.38813e-21 0.0579372 0.00186068 7.86481e-08
0 -0.0579652 0.00212184 3.39268e-06
-6.77626e-21 0.0579652 0.00212184 9.87429e-08
0 -0.0580743 1.10803e-07 1.80416e-06
6.77626e-21 0.0580744 1.10802e-07 3.00523e-07
-2.25875e-21 0.0581721 0.000610602 6.98106e-08
0 -0.0581721 0.000610603 1.10408e-06
2.25875e-21 0.0581735 0.00151342 4.75538e-08
4.51751e-21 -0.0581735 0.00151342 1.74825e-06
-8.47033e-22 -0.0581934 0.00214283 3.04832e-06
2.5411e-21 0.0581934 0.00214284 7.69779e-08
-6.77626e-21 0.058277 1.16391e-07 3.64175e-07
-1.01644e-20 -0.058277 1.16394e-07 1.47906e-06
-1.35525e-20 0.0583193 0.000123003 3.59081e-07
0 -0.0583193 0.000122998 1.37733e-06
-5.0822e-21 0.0582823 0.00215102 7.15033e-08
0 -0.0582823 0.00215102 2.94698e-06
-1.35525e-20 -0.0583281 0.00201516 2.67824e-06
-1.35525e-20 0.0583281 0.00201516 6.53922e-08
-2.71051e-20 -0.0583808 0.00028652 9.93268e-07
0 0.0583808 0.000286525 2.51978e-07
0 -0.058383 0.00106967 9.00946e-07
1.35525e-20 0.058383 0.00106967 2.42633e-08
0 -0.0583862 0.00185752 1.8907e-06
-1.35525e-20 0.0583862 0.00185751 4.56727e-08
-1.35525e-20 0.0584351 1.20751e-07 3.79811e-07
0 -0.0584351 1.20753e-07 1.70061e-06
1.35525e-20 -0.0584724 0.00216851 2.92768e-06
1.35525e-20 0.0584724 0.00216852 7.78287e-08
2.63521e-21 0.0585878 0.000684244 7.87219e-08
3.76459e-22 -0.0585878 0.000684244 6.95046e-07
0 0.0586022 0.000178782 5.87463e-07
0 -0.0586022 0.000178773 1.13279e-06
5.64689e-22 0.0585913 0.00147246 3.0917e-08
-1.12938e-21 -0.0585913 0.00147246 1.24095e-06
3.38813e-21 0.0586253 8.46437e-05 6.86868e-07
0 -0.0586254 8.46169e-05 1.07796e-06
2.37169e-20 0.0586311 9.46985e-08 6.5806e-07
-3.38813e-21 -0.0586312 9.47002e-08 1.25409e-06
0 -0.058614 0.00198099 2.27212e-06
3.38813e-21 0.058614 0.00198098 5.56394e-08
6.77626e-21 -0.0586389 0.00205688 2.25234e-06
3.38813e-21 0.0586389 0.00205686 5.44141e-08
6.77626e-21 -0.0586526 0.0021851 2.56766e-06
-2.03288e-20 0.0586526 0.00218511 6.55437e-08
1.35525e-20 0.0587867 7.40281e-08 3.53887e-07
0 -0.0587868 7.40288e-08 1.93724e-06
1.35525e-20 0.0587871 0.00108477 1.99535e-08
-1.35525e-20 -0.0587871 0.00108477 7.79223e-07
0 0.0588138 0.000419265 1.70887e-07
-1.35525e-20 -0.0588138 0.00041926 9.15874e-07
-1.35525e-20 0.0587904 0.00219778 8.40081e-08
0 -0.0587904 0.00219778 3.01325e-06
0 0.0588211 0.00175677 3.85098e-08
-1.35525e-20 -0.0588211 0.00175678 1.51671e-06
-2.25875e-21 0.0589944 0.000754327 4.69782e-08
0 -0.0589944 0.000754324 1.01937e-06
0 0.0589983 0.00142976 4.18038e-08
-6.77626e-21 -0.0589983 0.00142976 1.57288e-06
-6.77626e-21 0.0590078 0.0022178 8.77027e-08
0 -0.0590078 0.0022178 3.04666e-06
6.77626e-21 0.0590549 8.35179e-08 1.6324e-07
-1.01644e-20 -0.0590549 8.35183e-08 2.05484e-06
0 0.0590696 0.000188906 1.70829e-07
-6.77626e-21 -0.0590696 0.000188907 1.92127e-06
-3.38813e-20 0.0590838 8.57393e-08 1.51124e-07
-2.03288e-20 -0.0590838 8.57399e-08 2.09479e-06
-6.77626e-21 0.05908 0.00199662 7.79308e-08
0 -0.05908 0.00199663 2.73378e-06
6.77626e-21 0.059078 0.00212655 8.31819e-08
6.77626e-21 -0.059078 0.00212657 2.88186e-06
0 -0.0591581 0.00223163 3.0974e-06
-6.77626e-21 0.0591581 0.00223164 9.08658e-08
0 0.0593378 9.41278e-08 1.93949e-07
2.71051e-20 -0.0593378 9.41278e-08 3.01035e-06
4.51751e-21 -0.0593529 0.000581997 1.27637e-06
-4.51751e-21 0.0593529 0.000581997 5.10796e-08
-2.25875e-21 -0.0593596 0.00110181 1.102e-06
4.51751e-21 0.0593596 0.00110181 2.74546e-08
-4.51751e-21 -0.0593591 0.00162171 1.82274e-06
-2.25875e-21 0.0593591 0.00162171 5.02276e-08
-1.35525e-20 0.059356 0.00224986 1.00042e-07
1.35525e-20 -0.059356 0.00224986 3.34975e-06
0 0.0594897 0.00226217 1.04002e-07
1.35525e-20 -0.0594898 0.00226217 3.46622e-06
-1.01644e-20 0.0596053 7.49137e-08 1.50393e-07
1.35525e-20 -0.0596053 7.49137e-08 2.64763e-06
6.77626e-21 -0.0596378 6.72747e-05 2.48713e-06
3.38813e-21 0.0596378 6.72778e-05 1.35373e-07
0 -0.0596391 0.000281382 2.2663e-06
0 0.0596391 0.000281381 1.15678e-07
1.35525e-20 0.0596522 0.000750578 2.13536e-08
1.35525e-20 -0.0596522 0.000750579 9.39838e-07
2.03288e-20 -0.0596652 7.43486e-08 2.72662e-06
-3.38813e-21 0.0596653 7.43486e-08 1.51992e-07
0 -0.0596556 0.00146978 1.40498e-06
1.35525e-20 0.0596556 0.00146978 3.72473e-08
0 -0.0596502 0.00197793 3.15677e-06
-1.12938e-21 0.0596502 0.00197793 9.29687e-08
-6.77626e-21 -0.0598456 0.00229492 3.79898e-06
0 0.0598456 0.00229493 1.18506e-07
0 -0.0599214 5.86731e-08 3.74263e-06
2.71051e-20 0.0599214 5.86731e-08 2.13366e-07
0 -0.0599318 0.00059675 1.54436e-06
-4.51751e-21 0.0599318 0.000596749 5.75484e-08
-2.25875e-21 -0.0599376 0.0016364 2.09265e-06
-1.12938e-21 0.0599376 0.0016364 6.00921e-08
3.38813e-22 0.0599523 0.00111694 3.04156e-08
6.77626e-22 -0.0599523 0.00111694 1.15563e-06
0 -0.0599299 0.00230268 3.89871e-06
6.77626e-21 0.0599299 0.00230269 1.22643e-07
6.77626e-21 0.0599889 0.00230811 1.25067e-07
0 -0.0599889 0.00230811 3.97916e-06
-1.35525e-20 0.0601336 6.5621e-08 1.77497e-07
-1.35525e-20 -0.0601336 6.56212e-08 3.37197e-06
5.64689e-21 -0.0602132 0.00025242 2.84849e-06
1.12938e-21 0.0602132 0.000252421 1.34592e-07
0 -0.0602294 0.000784336 1.02533e-06
4.06576e-20 0.0602294 0.000784336 2.49837e-08
2.71051e-20 0.0602309 0.00146544 3.9686e-08
0 -0.0602309 0.00146544 1.40496e-06
-1.35525e-20 -0.0602724 6.43012e-08 3.53931e-06
1.35525e-20 0.0602724 6.4301e-08 1.83246e-07
8.47033e-22 0.0602423 0.00197228 1.14193e-07
1.41172e-22 -0.0602423 0.00197228 3.774e-06
-5.42101e-20 -0.060476 6.96062e-08 4.39339e-06
2.71051e-20 0.060476 6.96059e-08 2.38901e-07
-3.76459e-22 0.0604796 0.000600016 7.34954e-08
0 -0.0604796 0.000600017 1.83072e-06
-5.0822e-21 -0.0604892 0.00235417 4.57892e-06
0 0.0604957 0.00235477 1.44677e-07
-4.23516e-22 0.0605072 0.00234081 1.44231e-07
0 -0.0605072 0.00234076 4.57475e-06
-2.25875e-21 -0.0605575 0.00113185 1.15258e-06
3.38813e-21 0.0605575 0.00113185 3.1531e-08
0 -0.0605507 0.0016269 2.13845e-06
-2.25875e-21 0.0605507 0.0016269 6.21842e-08
4.23516e-22 0.0605417 0.002359 1.46411e-07
-4.23516e-21 -0.0605419 0.00235902 4.63252e-06
0 0.0606726 5.84245e-08 2.22754e-07
0 -0.0606726 5.84247e-08 4.07913e-06
2.82344e-22 0.0608243 0.000288714 1.75566e-07
-8.47033e-22 -0.0608243 0.000288713 3.36866e-06
-1.12938e-21 -0.0608389 0.00196308 3.9805e-06
0 0.0608389 0.00196307 1.18579e-07
1.35525e-20 -0.0608907 5.77036e-08 4.31494e-06
1.35525e-20 0.0608907 5.77035e-08 2.4584e-07
0 0.061022 0.000858086 4.29959e-08
-9.03502e-21 -0.061022 0.000858088 8.85902e-07
-4.51751e-21 -0.0610196 0.00143519 9.84671e-07
9.03502e-21 0.0610196 0.00143519 2.7645e-08
0 -0.0610807 4.8073e-08 4.931e-06
2.71051e-20 0.0610807 4.80731e-08 3.31767e-07
0 0.0610586 0.00240653 1.64909e-07
3.38813e-21 -0.0610587 0.00240653 5.19975e-06
-6.77626e-21 0.0610729 0.00238498 1.64265e-07
0 -0.0610729 0.00238499 5.18785e-06
0 -0.0610955 0.00240991 5.19692e-06
-3.38813e-21 0.0610955 0.00240992 1.65131e-07
-1.01644e-20 -0.0610995 0.00235724 4.97652e-06
3.38813e-21 0.0610995 0.00235723 1.57192e-07
0 -0.0611235 0.00238842 5.23754e-06
3.38813e-21 0.0611235 0.00238841 1.66407e-07
-3.38813e-21 -0.0611365 0.0024137 5.27808e-06
-3.38813e-21 0.0611365 0.00241371 1.68293e-07
-2.71051e-20 0.0612633 0.00060671 1.53231e-07
-2.71051e-20 -0.0612633 0.00060671 2.08155e-06
0 -0.0612584 0.00172072 2.03912e-06
2.71051e-20 0.0612584 0.00172072 5.85779e-08
0 0.0612896 0.00114624 2.51665e-08
0 -0.0612897 0.00114624 8.23427e-07
1.35525e-20 0.0613382 3.75142e-08 3.94557e-07
0 -0.0613382 3.75134e-08 4.53871e-06
2.35287e-22 -0.0614691 0.000272863 3.97516e-06
1.8823e-22 0.0614691 0.000272864 3.98498e-07
-6.77626e-21 -0.0614658 0.00200456 4.2968e-06
0 0.0614659 0.00200455 1.28884e-07
1.35525e-20 -0.0615061 3.67847e-08 4.76028e-06
0 0.0615061 3.67853e-08 4.04302e-07
6.77626e-21 0.0615545 0.000876367 5.52503e-08
0 -0.0615545 0.000876369 8.25726e-07
-2.25875e-21 -0.0615509 0.0014501 8.15419e-07
-2.25875e-21 0.0615509 0.00145009 2.36172e-08
0 0.061707 0.00246619 2.02911e-07
0 -0.061707 0.00246619 6.24585e-06
0 0.0617173 0.00245304 2.02894e-07
-3.38813e-21 -0.0617173 0.00245304 6.25248e-06
0 -0.0617319 0.0024685 6.2702e-06
0 0.0617319 0.00246851 2.03656e-07
0 -0.0617337 0.00243689 6.12824e-06
1.35525e-20 0.0617337 0.00243687 1.98534e-07
0 -0.0617481 0.00245432 6.32037e-06
0 0.0617481 0.00245432 2.05126e-07
0 -0.0617556 0.00247067 6.35646e-06
0 0.0617556 0.00247068 2.06564e-07
-2.71051e-20 -0.0618119 0.000576129 2.29495e-06
2.71051e-20 0.0618119 0.000576127 1.98327e-07
-2.71051e-20 0.0618207 1.81822e-08 4.14007e-07
0 -0.0618207 1.81785e-08 5.04634e-06
-2.71051e-20 0.0618057 0.00179067 6.47325e-08
0 -0.0618057 0.00179067 2.16626e-06
1.54886e-20 -0.0618911 0.00110231 6.61358e-07
-7.7443e-21 0.0618911 0.0011023 2.8979e-08
8.13152e-21 -0.0620668 0.000803568 9.59841e-07
-2.1684e-20 0.0620668 0.000803563 8.22198e-08
-9.03502e-21 -0.0620551 0.00147845 8.4404e-07
-4.51751e-21 0.0620551 0.00147845 2.65551e-08
-1.01644e-20 -0.062113 1.60866e-08 5.74967e-06
-2.71051e-20 0.062113 1.60885e-08 4.24828e-07
1.12938e-21 -0.0620964 0.00208092 6.30141e-06
-7.90564e-21 0.0620964 0.00208092 1.99478e-07
4.51751e-21 -0.0621537 0.000297909 5.19889e-06
-7.90564e-21 0.0621538 0.000297901 3.75687e-07
0 -0.0621775 1.5659e-08 5.88924e-06
-3.38813e-21 0.0621776 1.56603e-08 4.09657e-07
0 -0.0621833 0.00251002 7.05104e-06
0 0.0621834 0.00251003 2.23153e-07
0 -0.0621909 0.00249518 7.03962e-06
0 0.062191 0.00249518 2.22309e-07
1.35525e-20 -0.0622064 0.0024796 6.85395e-06
0 0.0622065 0.00247958 2.15631e-07
3.38813e-21 -0.062211 0.00251256 6.98851e-06
0 0.0622111 0.00251257 2.20621e-07
3.38813e-21 -0.0622439 0.00247191 7.03453e-06
1.69407e-21 0.062244 0.00247188 2.18999e-07
2.71051e-20 -0.062464 1.36278e-08 6.23183e-06
2.71051e-20 0.0624641 1.36269e-08 3.29835e-07
-9.03502e-21 -0.0624707 0.000665047 2.23689e-06
1.807e-20 0.0624707 0.000665044 1.26929e-07
1.12938e-21 -0.062477 0.00119048 7.17624e-07
-1.12938e-21 0.062477 0.00119047 2.89213e-08
-1.69407e-20 -0.062456 0.00253512 7.05336e-06
3.38813e-21 0.0624561 0.00253513 2.08747e-07
0 -0.0624641 0.00247935 7.10379e-06
3.38813e-21 0.0624642 0.00247932 2.0832e-07
9.03502e-21 -0.0625428 0.00182288 2.8255e-06
-6.77626e-21 0.0625428 0.00182287 7.8561e-08
9.03502e-21 -0.0625479 0.00223393 6.08397e-06
0 0.0625479 0.00223393 1.76369e-07
6.77626e-21 0.0626457 0.0024718 1.75615e-07
-1.35525e-20 -0.0626457 0.00247184 6.06328e-06
1.35525e-20 -0.0627252 1.30353e-08 6.84162e-06
-2.71051e-20 0.0627253 1.30348e-08 3.79223e-07
0 0.0626789 0.00255557 1.68048e-07
0 -0.0626789 0.00255558 5.72443e-06
0 -0.0627232 0.00247243 5.3926e-06
0 0.0627232 0.0024724 1.5378e-07
-1.12938e-21 -0.0627775 0.000301909 6.01625e-06
1.12938e-21 0.0627776 0.000301908 3.31053e-07
0 -0.062729 0.00253281 5.5033e-06
0 0.062729 0.0025328 1.58592e-07
6.77626e-21 -0.0627358 0.00256092 5.43985e-06
-6.77626e-21 0.0627358 0.00256092 1.5687e-07
1.35525e-20 -0.0627919 0.000886728 8.7252e-07
1.35525e-20 0.0627919 0.000886726 3.99574e-08
1.35525e-20 -0.0628163 1.26849e-08 6.97296e-06
1.35525e-20 0.0628164 1.26845e-08 3.80463e-07
2.71051e-20 -0.0628008 0.00150647 5.81778e-07
-2.71051e-20 0.0628008 0.00150646 1.58083e-08
-1.35525e-20 0.0628111 0.00226844 1.33534e-07
-1.35525e-20 -0.0628111 0.00226845 4.83698e-06
0 -0.0628645 0.00225958 4.40886e-06
0 0.0628645 0.00225958 1.1957e-07
0 -0.0630768 1.21047e-08 7.01639e-06
0 0.0630768 1.21046e-08 3.38355e-07
4.51751e-21 -0.0630912 0.000666723 2.58647e-06
0 0.0630912 0.000666722 1.28219e-07
-6.77626e-21 0.0630461 0.00258946 1.43124e-07
0 -0.0630461 0.00258946 4.79141e-06
-3.38813e-21 -0.0630991 0.00119272 7.72863e-07
-1.12938e-21 0.0630991 0.00119271 2.8683e-08
-6.77626e-21 0.0630752 0.00254727 1.44152e-07
6.77626e-21 -0.0630752 0.00254728 4.81089e-06
6.77626e-21 -0.0631146 0.00184446 1.99261e-06
6.77626e-21 0.0631146 0.00184446 5.27315e-08
6.77626e-21 -0.0631295 0.0022085 3.89337e-06
-1.35525e-20 0.0631295 0.0022085 1.11825e-07
0 0.0631287 0.00259721 1.58559e-07
0 -0.0631287 0.0025972 5.03293e-06
6.77626e-21 0.0631356 0.00244813 1.31642e-07
0 -0.0631356 0.00244815 4.43e-06
-6.77626e-21 -0.0632026 0.00255045 4.83237e-06
6.77626e-21 0.0632026 0.00255045 1.49742e-07
0 -0.0632312 0.00260676 4.81937e-06
0 0.0632313 0.00260677 1.51174e-07
6.77626e-21 -0.063349 1.19264e-08 7.54722e-06
0 0.063349 1.19263e-08 3.95841e-07
1.12938e-21 -0.0633802 0.000299367 6.72918e-06
-2.25875e-21 0.0633802 0.000299369 3.51437e-07
-1.01644e-20 -0.0634014 1.18938e-08 7.61202e-06
1.01644e-20 0.0634014 1.18937e-08 3.98217e-07
2.71051e-20 -0.0633962 0.000886439 1.0741e-06
0 0.0633962 0.000886437 4.38467e-08
-2.71051e-20 0.0634042 0.00150049 1.55444e-08
0 -0.0634042 0.00150049 5.7329e-07
-6.77626e-21 0.0634114 0.0022746 1.28608e-07
6.77626e-21 -0.0634114 0.00227461 4.14751e-06
-1.35525e-20 0.0635494 0.00263612 1.62823e-07
1.35525e-20 -0.0635494 0.00263612 4.95027e-06
-1.54886e-20 -0.0636291 0.000643941 2.96209e-06
-1.54886e-20 0.0636291 0.00064394 1.39563e-07
0 0.0635904 0.00256273 1.63779e-07
0 -0.0635904 0.00256275 5.00281e-06
-5.42101e-20 0.0636736 1.17146e-08 3.59178e-07
2.71051e-20 -0.0636736 1.17147e-08 7.57546e-06
5.64689e-21 -0.0637074 0.00119101 8.62439e-07
-6.77626e-21 0.0637074 0.00119101 3.101e-08
-6.77626e-21 0.0637064 0.00183893 5.21574e-08
-9.03502e-21 -0.0637064 0.00183893 1.79376e-06
-1.12938e-21 0.0636972 0.00228499 1.27135e-07
-2.25875e-21 -0.0636972 0.002285 4.01701e-06
1.35525e-20 -0.0636864 0.00264892 5.51886e-06
0 0.0636864 0.00264892 1.90308e-07
0 0.0638057 0.00256956 1.71743e-07
0 -0.0638057 0.00256957 5.19944e-06
0 -0.0638578 0.00266484 5.22911e-06
0 0.0638578 0.00266484 1.74481e-07
-7.41154e-21 -0.0639767 1.11249e-08 8.18551e-06
1.48231e-21 0.0639761 1.11262e-08 4.40014e-07
2.25875e-21 -0.063985 0.000294159 7.50601e-06
1.12938e-21 0.063985 0.000294155 3.98518e-07
9.03502e-21 0.0639986 0.000797712 9.02224e-08
1.35525e-20 -0.0639986 0.000797713 2.09148e-06
0 0.0639965 0.00216957 1.00534e-07
-1.35525e-20 -0.0639965 0.00216958 3.22175e-06
-1.35525e-20 0.0639892 0.00242307 1.76721e-07
0 -0.0639893 0.00242307 5.38811e-06
-5.42101e-21 0.0640905 0.00161525 3.43426e-08
2.71051e-21 -0.0640905 0.00161526 1.15366e-06
-6.77626e-21 0.0640768 0.00268508 1.81539e-07
2.03288e-20 -0.0640768 0.00268508 5.41209e-06
2.71051e-20 0.0641377 0.00258144 1.82218e-07
1.35525e-20 -0.0641377 0.00258144 5.47957e-06
0 0.0642237 0.00119408 3.2505e-08
0 -0.0642237 0.00119408 9.41716e-07
0 0.0642452 0.0019095 5.98122e-08
0 -0.0642452 0.0019095 1.96268e-06
-2.71051e-20 -0.0642765 1.05721e-08 8.09043e-06
0 0.0642765 1.05715e-08 3.33741e-07
0 -0.0643071 0.000580349 4.40003e-06
0 0.0643071 0.000580347 1.79476e-07
1.35525e-20 0.0642697 0.00270301 2.19926e-07
0 -0.0642697 0.00270301 6.1913e-06
0 0.0642913 0.00231124 1.37502e-07
0 -0.0642914 0.00231125 4.24536e-06
-2.03288e-20 0.0645077 0.00272507 1.94533e-07
-6.77626e-21 -0.0645077 0.00272507 5.78405e-06
3.38813e-21 -0.0645717 1.00934e-08 8.70487e-06
-3.04932e-20 0.0645718 1.00931e-08 2.96118e-07
1.69407e-21 -0.0645942 0.000105281 8.62896e-06
1.69407e-21 0.0645943 0.000105376 2.90518e-07
1.12938e-21 -0.0646037 0.000289984 8.23903e-06
1.12938e-21 0.0646037 0.000289985 2.84828e-07
3.04932e-20 -0.0646061 1.00753e-08 8.73691e-06
3.38813e-21 0.0646062 1.0075e-08 2.96099e-07
-1.35525e-20 0.0645786 0.00255814 1.95646e-07
0 -0.0645786 0.00255814 5.91898e-06
-9.03502e-21 -0.0646301 0.000897019 1.73899e-06
4.51751e-21 0.0646302 0.000897011 6.456e-08
4.51751e-21 0.0646074 0.00205749 7.07199e-08
4.51751e-21 -0.0646074 0.00205749 2.27159e-06
4.51751e-21 -0.0646289 0.0015261 1.01748e-06
0 0.0646289 0.0015261 3.08056e-08
2.03288e-20 0.0646274 0.00273615 1.99226e-07
-6.77626e-21 -0.0646274 0.00273615 5.94668e-06
2.71051e-20 -0.0649009 9.6032e-09 8.71518e-06
0 0.064901 9.60317e-09 3.84753e-07
0 0.0648749 0.00275909 2.55604e-07
-1.35525e-20 -0.0648749 0.0027591 7.1425e-06
0 -0.0649356 0.000580175 4.7867e-06
0 0.0649357 0.000580173 2.13015e-07
2.71051e-20 -0.0649299 0.0018847 2.33544e-06
0 0.0649299 0.0018847 7.0619e-08
0 -0.0649158 0.00234727 4.77749e-06
-5.64689e-22 0.0649158 0.00234727 1.52381e-07
0 0.064955 0.00120196 3.48735e-08
-2.71051e-20 -0.064955 0.00120197 1.03485e-06
-1.69407e-21 -0.0652158 7.83139e-09 9.5239e-06
-5.0822e-21 0.0652158 7.83129e-09 3.93366e-07
1.69407e-21 -0.0652252 4.89709e-05 9.49918e-06
-8.47033e-22 0.0652252 4.89567e-05 3.9342e-07
-1.69407e-21 -0.0652301 7.82307e-09 9.54626e-06
1.69407e-21 0.0652302 7.82298e-09 3.93933e-07
3.38813e-21 -0.0652381 0.000289556 9.04971e-06
-1.12938e-21 0.0652381 0.000289555 3.85239e-07
-4.51751e-21 -0.0652635 0.000898339 1.88776e-06
0 0.0652635 0.000898337 7.53137e-08
-1.86347e-20 0.0652148 0.00279069 2.25793e-07
1.69407e-21 -0.0652149 0.00279069 6.90745e-06
2.25875e-21 0.0652598 0.00154151 3.13048e-08
4.51751e-21 -0.0652598 0.00154152 1.02862e-06
-9.03502e-21 0.0652522 0.00209406 7.47068e-08
-1.35525e-20 -0.0652523 0.00209406 2.48329e-06
6.77626e-21 0.065246 0.00279361 2.25664e-07
1.18585e-20 -0.0652461 0.00279361 6.91398e-06
2.25875e-21 0.0652919 0.00257206 2.10427e-07
-6.77626e-21 -0.065292 0.00257206 6.58615e-06
-2.71051e-20 -0.0655524 5.83779e-09 9.74143e-06
2.71051e-20 0.0655524 5.83758e-09 4.28274e-07
0 -0.0655704 0.000580902 5.38797e-06
-2.71051e-20 0.0655704 0.0005809 2.4196e-07
2.71051e-20 0.0655565 0.00189852 6.15892e-08
2.71051e-20 -0.0655566 0.00189852 2.19369e-06
0 0.0655812 0.0012083 3.79391e-08
0 -0.0655812 0.0012083 1.0853e-06
-5.42101e-20 0.0655608 0.00282284 2.51699e-07
0 -0.0655609 0.00282284 7.21723e-06
9.03502e-21 0.0656258 0.00230133 1.08857e-07
0 -0.0656259 0.00230134 3.60492e-06
-9.03502e-21 0.0657943 0.00153807 3.03888e-08
-9.03502e-21 -0.0657943 0.00153807 1.02221e-06
6.77626e-21 -0.0658501 4.27433e-09 1.07264e-05
-3.38813e-21 0.0658501 4.27416e-09 3.79016e-07
-8.13152e-21 0.0658197 0.00206877 4.64191e-08
8.13152e-21 -0.0658197 0.00206877 1.70765e-06
0 -0.0658851 0.000294095 1.01266e-05
-1.12938e-21 0.0658851 0.000294098 3.66199e-07
-6.77626e-21 0.0659037 3.7412e-09 3.79182e-07
-3.38813e-21 -0.0659037 3.74133e-09 1.08182e-05
-6.77626e-21 -0.0658977 0.000900946 2.1336e-06
0 0.0658977 0.000900939 8.33831e-08
-1.69407e-21 0.0658682 0.00285172 2.41977e-07
-1.69407e-21 -0.0658683 0.00285172 7.1669e-06
0 0.0658848 0.00282476 2.39225e-07
1.69407e-21 -0.0658848 0.00282481 7.13501e-06
-5.0822e-21 0.0659027 0.00285494 2.40988e-07
0 -0.0659027 0.00285493 7.12495e-06
-1.12938e-21 0.0659302 0.00259593 2.07483e-07
2.25875e-21 -0.0659302 0.00259593 6.35753e-06
2.71051e-20 0.0662017 2.04737e-09 4.38002e-07
-2.71051e-20 -0.0662017 2.04747e-09 1.08995e-05
-2.71051e-20 -0.0662096 0.000583235 6.11369e-06
0 0.0662096 0.000583235 2.47691e-07
2.25875e-21 0.0662259 0.00182351 2.55309e-08
4.51751e-21 -0.0662259 0.00182351 9.57656e-07
4.51751e-21 -0.0662614 0.00125281 1.0753e-06
0 0.0662614 0.00125281 3.58039e-08
-9.03502e-21 0.0662442 0.00230923 9.49025e-08
0 -0.0662442 0.00230924 3.03786e-06
0 0.0662393 0.00288655 2.36288e-07
-2.71051e-20 -0.0662393 0.00288655 6.5677e-06
-1.35525e-20 -0.0664688 1.83914e-09 1.17347e-05
-2.03288e-20 0.0664688 1.83905e-09 4.51321e-07
4.51751e-21 -0.0665215 0.000297069 1.09882e-05
-3.38813e-21 0.0665216 0.000297066 4.2568e-07
0 -0.0665293 0.00080361 3.1816e-06
-9.03502e-21 0.0665293 0.000803608 1.24004e-07
0 0.0664898 0.00290996 2.9034e-07
0 -0.0664899 0.00290996 7.79161e-06
0 0.0665401 0.00152056 1.75445e-08
-2.71051e-20 -0.0665401 0.00152056 6.16587e-07
-6.77626e-21 -0.0665636 1.726e-09 1.18763e-05
-2.03288e-20 0.0665637 1.72594e-09 4.52938e-07
0 0.0665512 0.00211001 3.29125e-08
0 -0.0665512 0.00211001 1.14646e-06
1.12938e-21 0.0665487 0.00261746 2.47739e-07
-6.77626e-21 -0.0665487 0.00261746 6.87783e-06
3.38813e-21 0.0665442 0.00282584 2.94967e-07
-3.38813e-21 -0.0665442 0.00282586 7.96097e-06
0 0.0666005 0.00292022 2.97604e-07
0 -0.0666005 0.00292022 7.85583e-06
0 -0.0668291 1.51559e-09 1.18453e-05
-2.71051e-20 0.0668291 1.51554e-09 4.46539e-07
0 -0.0668394 0.000583644 6.65637e-06
2.71051e-20 0.0668395 0.000583645 2.52756e-07
4.51751e-21 -0.0668468 0.0011998 1.22957e-06
6.77626e-21 0.0668469 0.0011998 3.95626e-08
0 0.0668543 0.00182538 2.63708e-08
0 -0.0668543 0.00182538 8.76927e-07
0 0.0668556 0.00232228 1.09439e-07
1.35525e-20 -0.0668556 0.00232228 3.20091e-06
-2.71051e-20 0.0668433 0.00294289 2.80286e-07
0 -0.0668434 0.0029429 7.16116e-06
-3.38813e-20 -0.0670865 1.47842e-09 1.25237e-05
2.71051e-20 0.0670865 1.47839e-09 4.17805e-07
0 0.0670506 0.00296221 3.25909e-07
0 -0.0670506 0.00296222 8.37644e-06
1.12938e-20 -0.0671423 0.000297563 1.17032e-05
0 0.0671423 0.000297564 3.93122e-07
4.51751e-21 -0.0671508 0.000801878 3.48025e-06
4.51751e-21 0.0671508 0.000801881 1.25784e-07
0 0.0671599 0.00152405 1.84714e-08
2.71051e-20 -0.0671599 0.00152405 6.14938e-07
-3.38813e-20 -0.0671866 1.45256e-09 1.26506e-05
-2.71051e-20 0.0671867 1.45253e-09 4.16825e-07
0 -0.0671598 0.00212379 1.12648e-06
-2.71051e-20 0.0671598 0.00212379 3.7055e-08
-6.77626e-21 0.0671483 0.00265339 2.91802e-07
-1.12938e-21 -0.0671483 0.00265339 7.82968e-06
-6.77626e-21 0.0671464 0.00281379 3.3351e-07
-1.35525e-20 -0.0671464 0.00281382 8.79306e-06
-6.77626e-21 -0.0672459 0.00298031 8.52248e-06
-6.77626e-21 0.0672459 0.00298031 3.37267e-07
0 0.0674436 1.4156e-09 4.46598e-07
5.42101e-20 -0.0674436 1.41562e-09 1.26429e-05
-2.71051e-20 0.0674568 0.000584188 2.53243e-07
0 -0.0674568 0.000584188 7.13256e-06
1.12938e-20 -0.0674668 0.00120303 1.31391e-06
0 0.0674668 0.00120303 4.08279e-08
-4.51751e-21 0.067468 0.00183619 2.91951e-08
1.35525e-20 -0.067468 0.00183619 8.8445e-07
4.51751e-21 0.0674615 0.00233618 1.18135e-07
1.35525e-20 -0.0674615 0.00233618 3.34049e-06
0 -0.0674385 0.00299825 7.84984e-06
1.35525e-20 0.0674385 0.00299825 3.19237e-07
0 0.067604 0.00301356 3.55969e-07
0 -0.067604 0.00301356 8.86e-06
6.77626e-21 -0.0677028 1.38317e-09 1.33004e-05
-6.77626e-21 0.0677028 1.38317e-09 5.05631e-07
9.03502e-21 -0.067757 0.0002973 1.24952e-05
2.25875e-21 0.067757 0.000297296 4.74259e-07
0 -0.0677741 0.0015314 6.33224e-07
0 0.0677741 0.00153139 1.99442e-08
2.03288e-20 -0.0677979 1.35986e-09 1.34273e-05
1.35525e-20 0.0677979 1.35987e-09 5.08151e-07
0 0.0677675 0.00214378 4.19405e-08
2.71051e-20 -0.0677675 0.00214379 1.16718e-06
-4.51751e-22 -0.0677492 0.00270865 8.98403e-06
-1.807e-21 0.0677492 0.00270865 3.41441e-07
-4.51751e-21 0.0678144 0.000856994 1.05833e-07
2.25875e-21 -0.0678144 0.000856994 3.11489e-06
-6.77626e-21 -0.0678917 0.00304021 8.97999e-06
0 0.0678917 0.00304021 3.69469e-07
2.71051e-20 -0.0680566 1.32759e-09 1.34931e-05
2.71051e-20 0.0680567 1.32762e-09 4.59762e-07
-2.71051e-20 -0.0680721 0.000585702 7.62853e-06
0 0.0680721 0.000585701 2.60826e-07
0 -0.0680838 0.00131359 1.07929e-06
0 0.0680838 0.0013136 3.41493e-08
0 -0.0680354 0.00305351 8.3596e-06
0 0.0680354 0.0030535 3.5325e-07
-9.03502e-21 0.0680812 0.00185139 3.22946e-08
-4.51751e-21 -0.0680813 0.00185139 9.18704e-07
4.51751e-21 0.06807 0.00235205 1.23577e-07
4.51751e-21 -0.06807 0.00235206 3.38893e-06
1.35525e-20 0.0681573 0.00306479 3.78895e-07
6.77626e-21 -0.0681573 0.00306479 9.00822e-06
-1.35525e-20 -0.0683162 1.26055e-09 1.4159e-05
0 0.0683162 1.26058e-09 4.55754e-07
6.77626e-21 -0.0683744 0.000297322 1.33566e-05
2.25875e-21 0.0683744 0.000297325 4.27957e-07
2.25875e-21 -0.0683872 0.000907293 2.9312e-06
0 0.0683872 0.000907292 9.24738e-08
0 0.0683925 0.0015418 2.1217e-08
2.71051e-20 -0.0683925 0.0015418 6.52094e-07
-2.25875e-22 0.0683555 0.00274607 3.77308e-07
1.12938e-21 -0.0683555 0.00274607 9.58564e-06
-2.03288e-20 -0.068418 1.20773e-09 1.43124e-05
2.71051e-20 0.068418 1.20779e-09 4.51412e-07
-2.71051e-21 0.0684729 0.00225455 9.11358e-08
0 -0.0684729 0.00225456 2.46367e-06
1.35525e-20 -0.0685284 0.00309916 9.25387e-06
0 0.0685284 0.00309916 4.02935e-07
-5.42101e-20 -0.0686762 1.13927e-09 1.44642e-05
-2.71051e-20 0.0686762 1.13933e-09 4.29261e-07
-2.03288e-20 0.068621 0.00310774 3.96618e-07
-6.77626e-21 -0.068621 0.00310773 8.97631e-06
0 -0.0686918 0.000587107 8.20396e-06
-2.71051e-20 0.0686918 0.000587106 2.45867e-07
9.03502e-21 0.0687027 0.00132382 3.48426e-08
0 -0.0687027 0.00132382 1.1325e-06
2.25875e-21 0.0687031 0.0018698 3.65782e-08
2.25875e-21 -0.0687031 0.00186981 1.02746e-06
0 0.0686864 0.00249003 1.9036e-07
0 -0.0686865 0.00249003 4.97397e-06
-1.35525e-20 0.0686982 0.00311489 4.17411e-07
0 -0.0686982 0.00311489 9.49611e-06
6.77626e-21 -0.0689263 1.01559e-09 1.51333e-05
2.03288e-20 0.0689264 1.01563e-09 4.13835e-07
0 0.0689234 0.00227294 9.75232e-08
8.13152e-21 -0.0689234 0.00227295 2.6855e-06
2.25875e-21 -0.0689994 0.000297496 1.42475e-05
-2.25875e-21 0.0689994 0.00029749 3.90059e-07
4.51751e-22 0.0689611 0.00278513 4.29428e-07
0 -0.0689611 0.00278514 1.0622e-05
1.58113e-20 -0.0690126 0.000908275 3.23158e-06
-9.03502e-21 0.0690126 0.000908274 9.23343e-08
5.42101e-20 -0.0690164 0.00154915 6.76226e-07
-2.71051e-20 0.0690164 0.00154914 2.2905e-08
6.77626e-21 -0.0690595 8.83047e-10 1.53623e-05
1.35525e-20 0.0690596 8.83045e-10 4.17121e-07
0 0.0690372 0.00314628 4.17259e-07
3.38813e-21 -0.0690373 0.00314628 9.79899e-06
2.03288e-20 0.0690902 0.00315119 4.0322e-07
-6.77626e-21 -0.0690903 0.00315119 9.51013e-06
2.71051e-20 -0.0693056 7.53405e-10 1.55156e-05
0 0.0693057 7.53368e-10 4.38326e-07
-2.71051e-20 0.069319 0.00058654 2.51521e-07
2.71051e-20 -0.069319 0.000586541 8.83042e-06
9.03502e-21 0.069334 0.00187597 3.3918e-08
-2.25875e-21 -0.069334 0.00187597 1.03836e-06
0 -0.0693766 0.00126564 1.43441e-06
2.25875e-21 0.0693766 0.00126564 4.09656e-08
2.37169e-20 0.0693207 0.00317251 3.7229e-07
-3.04932e-20 -0.0693208 0.00317251 9.83072e-06
0 0.0693497 0.00298097 3.57541e-07
0 -0.0693497 0.00298097 9.56812e-06
4.51751e-21 0.0694192 0.00258965 1.77154e-07
3.76158e-37 -0.0694192 0.00258965 5.04026e-06
-2.71051e-20 -0.0695352 6.33642e-10 1.60873e-05
0 0.0695353 6.33611e-10 4.54876e-07
-2.25875e-21 -0.0696321 0.000296679 1.49912e-05
9.03502e-21 0.0696322 0.000296683 4.2265e-07
-5.92923e-21 -0.0695689 0.00319552 7.56018e-06
-1.18585e-20 0.0695689 0.00319553 2.89261e-07
1.807e-20 -0.0696425 0.000797323 4.75665e-06
4.51751e-21 0.0696425 0.00079732 1.35479e-07
-8.47033e-22 0.0695784 0.00319641 2.87864e-07
-8.47033e-22 -0.0695785 0.0031964 7.526e-06
8.47033e-22 0.0695823 0.00318487 2.8722e-07
0 -0.0695823 0.00318484 7.51882e-06
-2.71051e-20 -0.0696472 0.00154089 7.00264e-07
-2.71051e-20 0.0696472 0.00154088 2.24481e-08
0 0.0696641 0.00219291 3.42332e-08
0 -0.0696642 0.00219292 1.21279e-06
1.35525e-20 -0.0697196 4.40725e-10 1.63458e-05
0 0.0697196 4.40662e-10 4.56454e-07
-8.47033e-22 0.0697031 0.00320796 2.80475e-07
8.47033e-22 -0.0697034 0.00320797 7.13182e-06
4.51751e-21 0.0697673 0.00292899 2.47121e-07
4.51751e-21 -0.0697674 0.00292899 6.76899e-06
0 -0.0699415 3.15614e-10 1.63198e-05
0 0.0699415 3.15558e-10 4.50386e-07
2.25875e-21 -0.0699611 0.00120451 1.6823e-06
1.88079e-37 0.0699612 0.00120451 4.46837e-08
-9.03502e-21 0.069973 0.00186218 2.71809e-08
2.25875e-21 -0.069973 0.00186218 9.26476e-07
-5.80823e-21 -0.0700188 0.000642907 7.29393e-06
5.80823e-21 0.0700188 0.000642905 2.00838e-07
8.13152e-21 0.069996 0.00254737 1.21472e-07
-9.03502e-22 -0.069996 0.00254738 3.57342e-06
-1.69407e-21 0.0699955 0.00323502 2.57739e-07
0 -0.0699955 0.00323502 6.09274e-06
0 0.0700024 0.0032254 2.58457e-07
0 -0.0700024 0.00322541 6.10995e-06
-8.47033e-21 0.0700168 0.00320158 2.5372e-07
0 -0.0700168 0.00320161 6.02468e-06
0 0.0700152 0.00323684 2.63646e-07
0 -0.0700152 0.00323685 6.14109e-06
1.69407e-21 -0.0700323 0.0032264 6.0961e-06
0 0.0700323 0.00322639 2.60459e-07
1.69407e-21 -0.0700388 0.00323903 6.0702e-06
0 0.0700388 0.00323903 2.60547e-07