# k  POINT_DATA 26948
# x  y  z  k
0.0101542 -1.35525e-20 1.397e-07 3.41935e-08
-0.0101542 1.35525e-20 1.397e-07 3.77676e-07
-0.0101542 2.71051e-20 0.000269592 3.07958e-07
0.0101542 -1.35525e-20 0.000269592 2.14469e-08
-0.0101542 1.35525e-20 0.000769234 2.63468e-07
0.0101542 0 0.000769234 1.37164e-08
0.0101542 0 0.00104357 1.7128e-08
-0.0101542 0 0.00104357 3.00894e-07
-0.0101542 -1.35525e-20 0.00131779 3.42261e-07
0.0101542 1.35525e-20 0.00131779 2.06813e-08
0.0102506 2.71051e-20 0.000298262 2.29655e-08
-0.0102506 -1.35525e-20 0.000298263 3.18312e-07
0.0102543 0 0.0008759 1.41031e-08
-0.0102543 1.35525e-20 0.000875901 2.67371e-07
-0.0101542 0 0.00181774 4.4379e-07
0.0101542 0 0.00181774 2.8668e-08
0.0103268 -1.35525e-20 1.10555e-07 4.09033e-08
-0.0103268 0 1.10554e-07 4.15693e-07
0.0102523 0 0.00124395 2.01193e-08
-0.0102523 0 0.00124395 3.35434e-07
0.0101542 2.71051e-20 0.002087 3.40972e-08
-0.0101542 -2.71051e-20 0.002087 5.16172e-07
0.0103709 -1.35525e-20 0.000111968 4.01346e-08
-0.0103709 0 0.00011197 4.1266e-07
0.0103677 -1.35525e-20 0.000675222 1.06906e-08
-0.0103677 -1.35525e-20 0.000675223 2.28114e-07
0.0102487 -1.35525e-20 0.0018202 2.93026e-08
-0.0102487 1.35525e-20 0.0018202 4.52161e-07
0.0103636 -2.71051e-20 0.00148272 2.33681e-08
-0.0103636 -1.35525e-20 0.00148274 3.71977e-07
-0.0102712 0 0.00214808 5.64456e-07
0.0102712 -1.35525e-20 0.00214808 3.7594e-08
0.0103515 0 0.00204725 3.7081e-08
-0.0103515 0 0.00204725 5.57347e-07
-0.0106317 3.01167e-21 0.000607148 2.69984e-07
0.0106317 0 0.000607147 2.25248e-08
0.0106102 7.90564e-21 0.00112188 1.17211e-08
-0.0106102 0 0.00112189 1.89277e-07
-0.0106774 0 0.000276337 4.93011e-07
0.0106774 0 0.000276337 5.01717e-08
0.0106161 -3.01167e-21 0.00164337 2.34138e-08
-0.0106162 1.50584e-21 0.00164337 3.54505e-07
-0.0107648 0 4.28332e-08 6.75997e-07
0.0107648 1.35525e-20 4.28298e-08 7.33925e-08
0.0105534 -1.35525e-20 0.00229536 4.53646e-08
-0.0105534 6.77626e-21 0.00229537 6.64577e-07
0.0106301 0 0.00198753 4.09092e-08
-0.0106301 0 0.00198753 6.08582e-07
-0.0108244 0 8.90662e-05 6.88147e-07
0.0108244 0 8.90541e-05 7.45982e-08
0.0106419 0 0.00222467 4.55726e-08
-0.0106419 0 0.00222468 6.66851e-07
-0.0108971 -1.35525e-20 2.09165e-08 7.9943e-07
0.0108971 -1.35525e-20 2.09159e-08 8.70266e-08
0.0106479 0 0.0023447 4.78872e-08
-0.0106479 0 0.00234469 6.94597e-07
0.0108702 2.71051e-20 0.000884384 6.85579e-09
-0.0108702 -2.71051e-20 0.000884388 8.07397e-08
0.0108765 -2.71051e-20 0.00145346 5.84199e-09
-0.0108766 0 0.00145346 7.94208e-08
-0.0107255 0 0.00238519 7.25726e-07
0.0107255 0 0.0023852 5.02566e-08
0.0110033 0 1.81922e-08 9.74402e-08
-0.0110033 1.35525e-20 1.81922e-08 8.92545e-07
-0.0107625 0 0.00231974 7.22639e-07
0.0107625 0 0.00231973 5.00237e-08
0.0110153 -1.35525e-20 7.96732e-05 9.69127e-08
-0.0110153 -1.35525e-20 7.96867e-05 8.88354e-07
-0.0110632 -2.25875e-21 0.000577067 4.65931e-07
0.0110632 0 0.000577066 5.00381e-08
0.0111416 0 0.001188 8.97394e-09
-0.0111416 -5.64689e-21 0.00118801 9.9574e-08
0.0110829 5.42101e-21 0.00186756 2.4182e-08
-0.0110829 0 0.00186756 3.46485e-07
0.0110229 2.71051e-20 0.00226217 5.46333e-08
-0.0110229 0 0.00226218 7.79487e-07
-0.0113157 2.71051e-20 0.000285031 1.09759e-06
0.0113157 0 0.000285027 1.23257e-07
0.0110601 6.77626e-21 0.00255988 5.48266e-08
-0.0110601 -6.77626e-21 0.0025599 7.70757e-07
0.0110969 -6.77626e-21 0.00251435 5.47657e-08
-0.0110969 0 0.00251438 7.69552e-07
0.011119 6.77626e-21 0.00259067 5.48187e-08
-0.011119 0 0.00259068 7.65671e-07
-0.0114092 0 0.000887764 1.71965e-07
0.0114092 -2.71051e-20 0.000887761 1.79487e-08
-0.0111709 -6.77626e-21 0.00261768 7.63509e-07
0.0111709 1.35525e-20 0.00261768 5.48546e-08
-0.0111905 0 0.00257828 7.63093e-07
0.0111905 -6.77626e-21 0.00257827 5.48138e-08
0.0114292 -2.71051e-20 0.00153031 5.27638e-09
-0.0114292 2.71051e-20 0.00153031 6.60428e-08
-0.0115336 -6.77626e-21 3.98228e-09 1.29352e-06
0.0115337 -6.77626e-21 3.98131e-09 1.59417e-07
0.011316 0 0.00229792 4.00106e-08
-0.011316 -2.25875e-21 0.00229793 5.5864e-07
-0.0115492 0 5.7524e-05 1.2957e-06
0.0115493 6.77626e-21 5.75003e-05 1.59842e-07
-0.0116095 0 2.02398e-09 1.34479e-06
0.0116096 6.77626e-21 2.02389e-09 1.68625e-07
0.0114857 0 0.0020737 1.02182e-08
-0.0114857 0 0.00207371 1.41226e-07
-0.0116746 0 1.84332e-09 1.38775e-06
0.0116747 -6.77626e-21 1.84333e-09 1.76855e-07
-0.011679 0 5.25309e-05 1.38679e-06
0.011679 -6.77626e-21 5.25072e-05 1.76686e-07
-0.0116878 -2.25875e-21 0.000581193 7.79259e-07
0.0116878 -1.12938e-21 0.000581192 9.73348e-08
0.0114475 -2.71051e-20 0.00253489 5.46959e-08
-0.0114475 0 0.0025349 7.4922e-07
0.0117411 -5.64689e-22 0.0012051 1.61612e-08
-0.0117411 -1.12938e-21 0.0012051 1.41995e-07
0.0115287 -6.77626e-21 0.00280414 7.59808e-08
-0.0115287 0 0.00280416 9.7842e-07
0.01155 0 0.0027727 7.62107e-08
-0.01155 6.77626e-21 0.00277272 9.80756e-07
0.0117713 5.64689e-22 0.00182837 9.61478e-09
-0.0117713 0 0.00182837 1.1174e-07
0.0115729 0 0.00282717 8.12872e-08
-0.0115729 0 0.00282718 1.0331e-06
-0.0116142 0 0.00284907 1.09001e-06
0.0116142 0 0.00284907 8.65277e-08
-0.0116388 6.77626e-21 0.00280418 1.08608e-06
0.0116388 0 0.00280416 8.61659e-08
0.0117404 -5.64689e-22 0.00237671 4.73563e-08
-0.0117404 0 0.00237671 6.01881e-07
-0.0119843 0 0.000286091 1.58958e-06
0.0119843 0 0.000286094 2.14189e-07
0.0120413 2.71051e-20 0.000886354 3.20085e-08
-0.0120413 -2.71051e-20 0.000886355 2.47519e-07
0.0120819 -2.71051e-20 0.00151675 9.16007e-09
-0.0120819 -2.71051e-20 0.00151675 8.06563e-08
0.0119435 -5.42101e-20 0.0026998 1.07664e-07
-0.0119435 2.71051e-20 0.00269981 1.31693e-06
-0.0122585 0 2.3573e-10 1.66693e-06
0.0122586 6.77626e-21 2.35578e-10 2.92826e-07
-0.012263 0 3.33749e-05 1.66713e-06
0.012263 0 3.33336e-05 2.93052e-07
0.0120908 0 0.00215656 1.37757e-08
-0.0120908 -2.71051e-20 0.00215657 1.55862e-07
-0.0122997 0 1.21629e-10 1.6764e-06
0.0122997 0 1.21626e-10 3.02865e-07
0.0123365 6.77626e-21 1.15206e-10 3.08683e-07
-0.0123366 0 1.152e-10 1.68087e-06
0.0123381 0 2.92239e-05 3.08683e-07
-0.0123381 0 2.92618e-05 1.68087e-06
0.0119751 -6.77626e-21 0.00303983 1.05201e-07
-0.0119752 0 0.00303985 1.21591e-06
-0.0123477 -1.12938e-21 0.000568688 9.74643e-07
0.0123477 2.25875e-21 0.000568689 1.73888e-07
0.0120031 -6.77626e-21 0.00299958 1.05096e-07
-0.0120032 0 0.00299961 1.21378e-06
0.0120142 6.77626e-21 0.00306058 1.04465e-07
-0.0120143 0 0.00306059 1.18891e-06
0.0120519 0 0.00308051 1.03922e-07
-0.012052 0 0.00308052 1.16817e-06
0.0120703 0 0.00304363 1.03895e-07
-0.0120704 -6.77626e-21 0.00304365 1.16884e-06
0.0123957 0 0.0011843 2.73514e-08
-0.0123957 2.25875e-21 0.0011843 1.76076e-07
0.0124154 2.82344e-22 0.00184243 1.07167e-08
-0.0124154 -8.47033e-22 0.00184244 9.96857e-08
0.0123819 4.51751e-22 0.00255904 5.11138e-08
-0.0123819 2.25875e-22 0.00255905 5.74144e-07
-0.012651 2.71051e-20 0.000272689 1.76001e-06
0.012651 5.42101e-20 0.00027269 3.88923e-07
0.012351 0 0.00296124 1.00787e-07
-0.012351 0 0.00296126 1.06032e-06
-0.0126986 2.71051e-20 0.000851203 2.87284e-07
0.0126986 0 0.000851203 5.49459e-08
0.0127386 -2.71051e-20 0.00148681 1.33249e-08
-0.0127386 -2.71051e-20 0.00148681 8.93478e-08
0.0124095 0 0.00326997 9.4957e-08
-0.0124095 0 0.00327 9.37575e-07
0.0124312 6.77626e-21 0.00323664 9.48287e-08
-0.0124313 0 0.00323667 9.35598e-07
0.0124457 0 0.00328913 9.36754e-08
-0.0124457 0 0.00328915 9.0908e-07
-0.0124807 -6.77626e-21 0.00330749 8.83252e-07
0.0124807 6.77626e-21 0.00330748 9.22922e-08
-0.0124951 -1.35525e-20 0.00327723 8.8429e-07
0.0124951 0 0.00327721 9.23134e-08
0.0127374 -2.71051e-20 0.00217209 6.66442e-09
-0.0127374 2.71051e-20 0.0021721 7.14627e-08
-0.0129741 1.69407e-21 5.65705e-12 1.7163e-06
0.0129742 -1.69407e-21 5.64307e-12 5.52577e-07
-0.0129746 0 9.30702e-06 1.7163e-06
0.0129747 -1.69407e-21 9.23962e-06 5.52576e-07
0.0126308 1.12938e-21 0.00298495 6.8348e-08
-0.0126308 1.50584e-21 0.00298495 6.63565e-07
-0.0129857 0 3.62845e-12 1.71492e-06
0.0129857 -1.69407e-21 3.62927e-12 5.60651e-07
0.0129964 0 7.53328e-06 5.70785e-07
-0.0129965 0 7.58852e-06 1.71166e-06
0.0129967 -1.69407e-21 3.57564e-12 5.70156e-07
-0.0129967 0 3.57443e-12 1.71192e-06
-0.0130091 -5.64689e-22 0.000523311 1.02785e-06
0.0130091 -1.12938e-21 0.000523314 3.22429e-07
0.0130262 0 0.00111842 4.48334e-08
-0.0130271 1.37643e-21 0.00111833 2.14013e-07
0.012792 2.71051e-20 0.00274343 1.66947e-08
-0.012792 -2.71051e-20 0.00274344 1.59558e-07
0.0130595 -2.11758e-22 0.00107278 6.52846e-08
-0.0130596 0 0.00107386 2.72031e-07
0.0130623 2.11758e-22 0.00111573 4.58416e-08
-0.0130622 0 0.00111377 2.16115e-07
0.0127559 2.71051e-20 0.00321815 8.59658e-08
-0.0127559 2.71051e-20 0.00321816 7.57296e-07
0.0131777 1.69407e-21 2.72892e-12 5.69239e-07
-0.0131792 -1.69407e-21 2.72161e-12 1.91402e-06
0.0130706 0 0.00181595 1.22326e-08
-0.0130706 -4.23516e-22 0.00181592 8.96623e-08
0.0128312 0 0.00349147 1.15039e-07
-0.0128312 0 0.00349149 8.75249e-07
0.0128495 0 0.00346311 1.15306e-07
-0.0128495 0 0.00346313 8.76203e-07
0.0133093 2.71051e-20 0.000237079 7.35873e-07
-0.0133094 -2.71051e-20 0.000237071 1.66497e-06
0.0130829 -1.41172e-22 0.00247292 1.29519e-08
-0.0130829 2.82344e-22 0.00247293 1.17339e-07
0.0128663 0 0.00350989 1.21252e-07
-0.0128663 0 0.0035099 8.9865e-07
-0.0129008 0 0.00352796 9.20153e-07
0.0129009 6.77626e-21 0.00352796 1.26908e-07
0.0133557 0 0.000759633 9.37426e-08
-0.0133557 2.71051e-20 0.000759629 3.70814e-07
-0.0129238 0 0.00348629 9.18149e-07
0.0129238 6.77626e-21 0.00348627 1.26399e-07
0.0130385 5.64689e-22 0.00304616 7.0996e-08
-0.0130385 -1.12938e-21 0.00304617 5.41677e-07
0.013427 2.71051e-20 0.00137599 2.0876e-08
-0.013427 2.71051e-20 0.00137599 1.14935e-07
0.0134137 -2.71051e-20 0.00210976 8.68667e-09
-0.0134137 -2.71051e-20 0.00210977 7.68931e-08
0.013227 -5.42101e-20 0.00336662 1.54713e-07
-0.013227 0 0.00336663 1.03274e-06
-0.0136481 -1.97641e-21 0.000454494 1.66532e-06
0.0136481 1.12938e-21 0.000454473 3.92825e-07
0.0133902 2.71051e-20 0.00280378 1.91072e-08
-0.0133902 -2.71051e-20 0.00280378 1.54699e-07
0.013715 3.38813e-21 2.82164e-13 5.94294e-07
-0.0137152 3.38813e-21 2.80922e-13 2.4358e-06
0.0137158 0 2.07521e-05 5.94466e-07
-0.013716 0 2.07043e-05 2.43907e-06
0.0137164 3.38813e-21 0.000170439 5.288e-07
-0.0137166 -3.38813e-21 0.000170058 2.19143e-06
0.0137459 -3.38813e-21 2.39908e-14 5.98389e-07
-0.0137461 -3.38813e-21 2.33451e-14 2.47867e-06
0.0132451 0 0.0037083 1.51045e-07
-0.0132451 0 0.00370831 9.39797e-07
0.0137658 -3.38813e-21 1.53056e-05 6.14256e-07
-0.0137659 -3.38813e-21 1.52695e-05 2.45519e-06
0.0137673 3.38813e-21 1.74077e-14 6.15073e-07
-0.0137675 3.38813e-21 1.67734e-14 2.45291e-06
0.0132719 0 0.00367136 1.50911e-07
-0.0132719 0 0.00367139 9.3818e-07
0.0132783 0 0.00372567 1.50624e-07
-0.0132783 6.77626e-21 0.00372568 9.24813e-07
0.0137897 0 0.000885073 1.30786e-07
-0.0137897 1.12938e-21 0.000885056 1.15253e-06
0.0138209 -3.38813e-21 1.17098e-14 6.01966e-07
-0.0138209 0 1.1123e-14 2.52905e-06
-0.0133097 0 0.00374319 9.06395e-07
0.0133097 -6.77626e-21 0.00374318 1.49729e-07
-0.0133283 -6.77626e-21 0.0037104 9.07105e-07
0.0133283 -6.77626e-21 0.00371039 1.49701e-07
0.0137515 -5.64689e-22 0.00171046 1.96361e-08
-0.0137515 2.82344e-22 0.00171046 1.35925e-07
0.013678 0 0.00246318 1.29024e-08
-0.0136781 -1.05879e-22 0.00246319 1.23755e-07
0.013721 0 0.00246183 1.28996e-08
-0.013721 1.93759e-20 0.00246184 1.24214e-07
-0.0137186 -1.05879e-22 0.00248646 1.35583e-07
0.0137186 0 0.00248652 1.48181e-08
0.013662 -2.25875e-21 0.00322321 7.37966e-08
-0.013662 4.51751e-22 0.00322321 4.86022e-07
-0.013613 2.71051e-20 0.00362484 8.08797e-07
0.013613 2.71051e-20 0.00362484 1.451e-07
0.0141334 2.82344e-22 0.000318972 4.14173e-07
-0.0141334 -2.82344e-22 0.000318972 3.10321e-06
0.014088 0 0.00127938 3.61683e-08
-0.014088 2.71051e-20 0.00127938 2.28745e-07
0.0140591 2.71051e-20 0.00206597 1.40057e-08
-0.0140591 -2.71051e-20 0.00206597 1.30681e-07
0.0136637 0 0.00393551 1.3246e-07
-0.0136637 3.38813e-21 0.00393552 7.35119e-07
0.0136787 0 0.00391519 1.32313e-07
-0.0136787 3.38813e-21 0.00391522 7.34318e-07
-0.0142352 -1.35525e-20 2.81664e-15 3.08519e-06
0.0142352 -2.71051e-20 2.94789e-15 4.69182e-07
0.0136843 -3.38813e-21 0.00394699 1.31078e-07
-0.0136843 -3.38813e-21 0.00394698 7.27493e-07
-0.0137016 0 0.00395979 7.19388e-07
0.0137016 0 0.00395981 1.29651e-07
-0.0137143 -3.38813e-21 0.00394399 7.19553e-07
0.0137143 0 0.00394399 1.29677e-07
-0.0140216 0 0.00281645 1.35491e-07
0.0140216 0 0.00281645 9.97517e-09
-0.013895 5.64689e-22 0.00367137 5.5214e-07
0.0138951 1.12938e-21 0.00367137 9.48679e-08
-0.0144216 -4.70574e-23 0.000792946 2.00244e-06
0.0144217 1.41172e-22 0.000792946 1.90387e-07
0.0144531 0 3.0858e-16 5.02034e-07
-0.0144531 1.35525e-20 3.05013e-16 3.65674e-06
0.0143962 -5.64689e-22 0.00165212 3.54316e-08
-0.0143962 -8.47033e-22 0.00165212 2.99485e-07
-0.0140802 -2.71051e-20 0.00343826 1.98168e-07
0.0140802 0 0.00343825 2.15869e-08
-0.0140067 0 0.00392192 6.37102e-07
0.0140067 0 0.00392194 1.15449e-07
0.0143665 -2.11758e-22 0.00242468 1.84191e-08
-0.0143665 0 0.00242468 2.5201e-07
-0.0143623 2.11758e-22 0.00267465 2.68578e-07
0.0143623 -2.11758e-22 0.00267497 1.77762e-08
0.0140362 -1.69407e-21 0.00420871 1.11946e-07
-0.0140362 1.69407e-21 0.00420869 7.21601e-07
0.014043 0 0.00420186 1.11913e-07
-0.014043 0 0.00420185 7.21685e-07
-0.0140444 1.69407e-21 0.00421477 7.26026e-07
0.0140443 -1.69407e-21 0.00421479 1.11731e-07
-0.0140522 0 0.00422057 7.30372e-07
0.0140522 -1.69407e-21 0.0042206 1.11527e-07
-0.0140564 1.69407e-21 0.00421301 7.30031e-07
0.0140564 -1.69407e-21 0.00421303 1.11517e-07
-0.014684 -6.77626e-21 -1.73482e-17 4.19786e-06
0.014684 2.71051e-20 -1.61167e-17 3.5516e-07
0.0143544 -1.99053e-20 0.00313091 1.65255e-08
-0.0143544 0 0.0031309 2.97654e-07
-0.014361 0 0.00313026 2.99804e-07
0.014361 4.23516e-22 0.00313027 1.66084e-08
-0.0147037 -8.13152e-21 0.000271523 4.35234e-06
0.0147038 -5.42101e-21 0.000271578 3.59348e-07
-0.014356 0 0.00329991 3.5564e-07
0.014356 0 0.00330011 2.72537e-08
0.0147328 5.42101e-20 0.00124141 6.2172e-08
-0.0147328 0 0.00124141 5.26645e-07
-0.0146167 0 0.00238823 4.10479e-07
0.0146174 2.11758e-22 0.00238811 2.72368e-08
-0.0146909 -2.71051e-20 0.00203583 3.14409e-07
0.0146909 0 0.00203583 3.00945e-08
-0.0143356 4.03349e-23 0.00382206 5.41242e-07
0.0143356 -4.03349e-23 0.00382208 6.45351e-08
-0.0143244 0 0.00417019 8.00669e-07
0.0143244 -2.71051e-20 0.00417021 1.07193e-07
-0.0142789 -8.47033e-22 0.00438875 9.36073e-07
0.0142791 0 0.0043889 1.06805e-07
-0.0146906 -2.71051e-20 0.00275577 4.1967e-07
0.0146906 -2.71051e-20 0.00275577 1.95961e-08
0.0149563 1.41172e-22 0.00165196 5.85221e-08
-0.0149571 -1.41172e-22 0.00165041 5.9126e-07
-0.0146586 -2.71051e-20 0.00346816 4.57249e-07
0.0146586 0 0.00346817 1.49911e-08
-0.0144053 -8.47033e-22 0.00448256 1.04368e-06
0.0144084 0 0.00447898 1.04272e-07
-0.015119 -6.77626e-21 -5.58821e-17 6.11423e-06
0.0151193 -3.38813e-21 -5.55922e-17 4.3118e-07
-0.0144514 -8.47033e-22 0.00451675 1.25203e-06
0.0144515 -1.69407e-21 0.00451675 1.10252e-07
-0.0151609 0 3.481e-05 6.26097e-06
0.0151609 0 3.45974e-05 4.35951e-07
-0.0151663 -3.38813e-21 -1.814e-17 6.265e-06
0.0151663 0 -1.80472e-17 4.3628e-07
-0.0145673 3.76459e-22 0.00422607 8.485e-07
0.0145673 -7.52918e-22 0.00422609 7.80308e-08
0.0151841 3.38813e-21 -1.09306e-17 4.419e-07
-0.0151841 3.38813e-21 -1.09842e-17 6.35934e-06
-0.0151655 -6.77626e-21 0.000867911 3.73941e-06
0.0151655 -5.64689e-21 0.000867908 2.76095e-07
0.0152147 0 -1.10411e-17 4.51572e-07
0.0152147 0 2.26993e-05 4.51639e-07
-0.015215 6.77626e-21 -1.1094e-17 6.49414e-06
-0.015215 0 2.28405e-05 6.49519e-06
-0.0147125 2.71051e-20 0.00402551 4.80483e-07
0.0147125 0 0.00402553 2.5236e-08
-0.0150841 -4.23516e-22 0.0023135 7.02964e-07
0.0150841 -4.23516e-22 0.0023135 4.35198e-08
-0.0150901 -8.89385e-21 0.00232073 7.08376e-07
0.015084 1.27055e-21 0.00232059 4.36927e-08
-0.0149792 4.23516e-22 0.0031214 8.48731e-07
0.0149792 -5.64689e-22 0.0031214 2.7368e-08
-0.0146794 -5.42101e-20 0.00445851 1.26754e-06
0.0146795 0 0.00445853 1.00178e-07
-0.0149711 0 0.00367473 9.4408e-07
0.0149711 0 0.00367494 2.553e-08
-0.0149706 0 0.00377567 9.61276e-07
0.0149684 -2.96462e-21 0.00377781 2.5204e-08
-0.0147268 0 0.00472093 2.34471e-06
0.0147268 6.77626e-21 0.00472096 1.4029e-07
-0.0147397 0 0.0047038 2.35131e-06
0.0147397 6.77626e-21 0.00470382 1.40543e-07
-0.0147494 6.77626e-21 0.00473772 2.46935e-06
0.0147494 0 0.00473775 1.44246e-07
0.015025 -2.11758e-22 0.00377792 2.70631e-08
-0.0150252 1.05879e-21 0.00377791 1.10093e-06
-0.0147753 0 0.0047569 2.75159e-06
0.0147753 6.77626e-21 0.00475694 1.54425e-07
-0.0147957 -6.77626e-21 0.00471951 2.69964e-06
0.0147957 0 0.00471954 1.52684e-07
-0.0149236 2.5411e-21 0.00432832 1.74754e-06
0.0149238 2.11758e-22 0.00432831 8.95686e-08
-0.0149307 2.11758e-22 0.0043143 1.72278e-06
0.0149284 -8.47033e-21 0.00431372 8.7734e-08
-0.0153071 0 0.00276682 1.09066e-06
0.0153071 0 0.00276682 4.56144e-08
-0.0149538 -2.11758e-22 0.00432332 1.79358e-06
0.0149538 -2.11758e-22 0.00432332 8.83258e-08
-0.0152762 2.71051e-20 0.00345527 1.42327e-06
0.0152762 0 0.00345527 2.95621e-08
-0.015665 5.42101e-20 0.00170495 1.19168e-06
0.015665 0 0.00170495 1.02714e-07
-0.0150897 -2.71051e-20 0.00463312 3.67224e-06
0.0150898 0 0.00463317 1.8943e-07
-0.0152566 0 0.00410558 1.57976e-06
0.0152566 0 0.00410559 3.14042e-08
0.0156482 -2.82344e-22 0.00239974 8.29043e-08
-0.0156482 2.11758e-22 0.00239974 1.79328e-06
-0.0150378 0 0.00495164 4.15026e-06
0.0150379 -6.77626e-21 0.0049517 1.90563e-07
-0.0158311 -5.42101e-20 0.000505741 1.02817e-05
0.0158311 -5.42101e-20 0.000505742 6.80029e-07
-0.0150929 0 0.00489488 4.14538e-06
0.015093 0 0.00489493 1.89698e-07
-0.0150892 -1.35525e-20 0.00498975 4.17279e-06
0.0150893 0 0.00498982 1.85646e-07
-0.015606 2.82344e-22 0.0031034 2.17319e-06
0.015606 -2.82344e-22 0.00310341 6.3733e-08
-0.0151438 0 0.00503029 4.42589e-06
0.0151439 6.77626e-21 0.00503035 1.88481e-07
-0.0151784 1.35525e-20 0.00496289 4.38279e-06
0.0151785 1.35525e-20 0.00496294 1.87956e-07
-0.0155884 -1.46819e-21 0.00378776 2.61344e-06
0.0155884 3.38813e-22 0.00378777 4.951e-08
-0.0155033 -1.35525e-21 0.00450864 3.38701e-06
0.0155033 2.25875e-22 0.00450867 1.01165e-07
-0.0154178 0 0.00490558 4.7221e-06
0.0154179 2.71051e-20 0.00490563 1.84888e-07
-0.0159469 0 0.00273842 2.73259e-06
0.0159469 5.42101e-20 0.00273842 1.00294e-07
-0.0153971 -1.35525e-20 0.00521815 5.22116e-06
0.0153972 2.03288e-20 0.00521821 1.78799e-07
-0.015903 0 0.0034351 3.42635e-06
0.015903 5.42101e-20 0.00343511 7.94941e-08
-0.0154387 -6.77626e-21 0.00517349 5.22862e-06
0.0154387 0 0.00517354 1.77856e-07
-0.0154377 6.77626e-21 0.00524824 5.26843e-06
0.0154377 0 0.00524829 1.72171e-07
0.0163344 -2.11758e-21 -1.19204e-18 7.54573e-07
-0.0163357 0 -1.18554e-18 1.23792e-05
-0.0154764 -6.77626e-21 0.00527693 5.47773e-06
0.0154764 6.77626e-21 0.00527698 1.73081e-07
-0.0155053 0 0.00524153 5.46144e-06
0.0155053 1.35525e-20 0.00524158 1.73035e-07
0.0163538 4.65868e-21 0.00112145 4.76275e-07
-0.0163541 0 0.00112151 7.45909e-06
-0.0158756 -2.71051e-20 0.0041209 3.51524e-06
0.0158756 2.71051e-20 0.00412092 4.3452e-08
0.0163767 9.95264e-21 0.00112763 4.79893e-07
-0.0163741 -1.8423e-20 0.0011274 7.52583e-06
-0.0156932 -7.52918e-22 0.00495312 4.67583e-06
0.0156933 0 0.00495315 1.3039e-07
0.0164701 4.23516e-22 3.15169e-06 7.90873e-07
-0.0164637 0 2.60344e-06 1.30708e-05
0.0163214 0 0.00227442 1.57977e-07
-0.0163214 -1.12938e-21 0.00227442 2.64913e-06
-0.0162376 -5.64689e-22 0.00307739 3.72291e-06
0.0162376 1.01644e-21 0.0030774 1.39378e-07
-0.0159046 -2.71051e-20 0.00473208 3.30972e-06
0.0159046 5.42101e-20 0.00473209 3.81604e-08
-0.0157801 -2.71051e-20 0.00520579 5.9565e-06
0.0157802 -2.71051e-20 0.00520583 1.62998e-07
-0.0162469 1.69407e-21 0.00372972 5.10296e-06
0.0162469 1.12938e-21 0.00372973 1.20796e-07
-0.0157745 0 0.00549808 6.61693e-06
0.0157746 0 0.00549812 1.60054e-07
-0.0158014 6.77626e-21 0.00547416 6.62187e-06
0.0158015 0 0.00547419 1.59818e-07
-0.0158049 6.77626e-21 0.00552063 6.73609e-06
0.015805 0 0.00552067 1.59347e-07
-0.0158346 6.77626e-21 0.00554267 6.83022e-06
0.0158347 0 0.00554272 1.5856e-07
-0.0158529 0 0.00551417 6.82166e-06
0.015853 0 0.00551421 1.58485e-07
-0.016198 0 0.00441893 5.65606e-06
0.0161981 4.51751e-22 0.00441893 7.50791e-08
-0.0166697 0 0.00284041 3.86789e-06
0.0166697 0 0.00284041 2.30113e-07
-0.0161695 -2.25875e-22 0.00510698 6.33759e-06
0.0161695 4.51751e-22 0.00510701 9.39973e-08
-0.0166597 0 0.00328606 5.52483e-06
0.0166597 2.71051e-20 0.00328607 2.36281e-07
-0.0165248 -2.71051e-20 0.00409519 7.90867e-06
0.0165248 -2.71051e-20 0.00409519 1.49803e-07
-0.0161206 2.71051e-20 0.00547661 7.43796e-06
0.0161207 0 0.00547665 1.53923e-07
-0.0170334 0 0.00057692 1.5826e-05
0.0170334 5.42101e-20 0.00057692 9.01464e-07
-0.0168874 8.47033e-22 0.00239017 3.41167e-06
0.0168874 1.05879e-21 0.00239018 2.70331e-07
-0.0169716 -5.42101e-20 0.00176735 2.38349e-06
0.0169716 -5.42101e-20 0.00176735 2.10591e-07
-0.0169179 2.11758e-22 0.00239497 3.45397e-06
0.0169179 0 0.00239497 2.76368e-07
0.016944 0 0.00239537 2.84338e-07
-0.016944 -2.11758e-22 0.00239537 3.48817e-06
-0.0168719 -1.35525e-20 0.00305894 4.8766e-06
0.0168719 0 0.00305894 3.1575e-07
-0.0161674 -6.77626e-21 0.00578953 7.97225e-06
0.0161674 0 0.00578955 1.49508e-07
-0.0165034 -2.71051e-20 0.00475625 8.16833e-06
0.0165034 -2.71051e-20 0.00475627 6.33425e-08
-0.0161836 0 0.00577012 7.97458e-06
0.0161836 6.77626e-21 0.00577014 1.49383e-07
-0.0161897 0 0.00580603 8.01602e-06
0.0161897 0 0.00580606 1.48812e-07
-0.0162121 0 0.00582272 7.99225e-06
0.0162122 0 0.00582276 1.47224e-07
-0.0162243 0 0.00580494 7.99379e-06
0.0162243 -6.77626e-21 0.00580498 1.47234e-07
0.0168523 3.38813e-22 0.00374134 2.9992e-07
-0.0168523 -5.64689e-22 0.00374134 7.69399e-06
-0.0163971 -4.23516e-22 0.00553967 7.7484e-06
0.0163973 -7.05861e-22 0.00553971 1.11708e-07
-0.0170978 2.71051e-20 0.00283719 4.33752e-06
0.0170978 -2.71051e-20 0.00283719 3.90708e-07
-0.0170665 5.42101e-20 0.00327483 5.80462e-06
0.0170665 0 0.00327483 4.11578e-07
-0.0165625 0 0.0053276 6.73593e-06
0.0165626 0 0.00532762 3.79207e-08
-0.0168336 -2.82344e-22 0.0044175 1.02728e-05
0.0168336 -4.23516e-22 0.00441751 2.1233e-07
-0.0164976 5.42101e-20 0.00578805 8.57917e-06
0.0164976 -5.42101e-20 0.00578809 1.41944e-07
-0.0168265 5.64689e-23 0.00506999 1.17204e-05
0.0168265 0 0.00507002 1.04674e-07
-0.0176289 0 1.51719e-05 1.65457e-05
0.0176289 0 1.51704e-05 9.18704e-07
-0.0176298 0 -6.83233e-23 1.65454e-05
0.0176298 -3.38813e-21 -7.13675e-23 9.18698e-07
-0.0176062 -5.64689e-22 0.00116021 9.79773e-06
0.0176062 0 0.00116021 6.13264e-07
-0.0176451 -3.38813e-21 -1.70835e-23 1.65649e-05
0.0176451 0 -1.62781e-23 9.18995e-07
-0.0171749 2.71051e-20 0.00405965 1.01829e-05
0.0171749 2.71051e-20 0.00405966 4.02629e-07
0.0176602 -3.38813e-21 1.5458e-05 9.1957e-07
-0.0176602 0 1.54594e-05 1.65893e-05
0.0176607 -3.38813e-21 -1.84889e-23 9.1957e-07
-0.0176607 0 -1.92886e-23 1.65893e-05
-0.0165809 0 0.00609702 9.8367e-06
0.016581 -6.77626e-21 0.00609706 1.81447e-07
-0.0165981 6.77626e-21 0.00608064 9.85822e-06
0.0165981 0 0.00608065 1.81827e-07
-0.016605 0 0.00611494 1.00277e-05
0.0166051 0 0.00611499 1.85074e-07
-0.0166198 0 0.00612719 9.97928e-06
0.0166199 0 0.00612726 1.82741e-07
-0.0166291 0 0.00611136 9.98578e-06
0.0166292 0 0.00611141 1.82912e-07
-0.0175901 1.12938e-21 0.00236116 4.34442e-06
0.0175901 2.25875e-21 0.00236116 4.81436e-07
-0.0166534 0 0.00615455 9.88891e-06
0.0166535 -6.77626e-21 0.00615465 1.83911e-07
-0.0168283 0 0.00572854 1.18138e-05
0.0168284 0 0.00572855 1.34332e-07
-0.0175166 -2.82344e-22 0.00305113 5.90356e-06
0.0175166 -2.11758e-22 0.00305113 5.94213e-07
-0.0171428 5.42101e-20 0.0047344 1.4735e-05
0.0171428 -2.71051e-20 0.00473441 2.39551e-07
-0.017534 -1.12938e-21 0.00360681 8.91441e-06
0.017534 0 0.00360681 6.28459e-07
-0.0171172 2.71051e-20 0.00539736 1.80249e-05
0.0171172 -2.71051e-20 0.00539737 8.60273e-08
0.01747 -1.12938e-22 0.00438795 5.23842e-07
-0.01747 1.12938e-22 0.00438795 1.31792e-05
-0.0168947 6.77626e-21 0.00636212 1.05621e-05
0.0168947 2.03288e-20 0.00636216 2.14926e-07
0.0170243 -2.82344e-22 0.00618637 2.22361e-07
-0.0170257 -1.41172e-22 0.00618772 1.10649e-05
-0.0174372 -1.41172e-21 0.00507024 1.87869e-05
0.0174372 2.82344e-22 0.00507024 3.01288e-07
-0.0182236 5.42101e-20 0.000583086 1.73251e-05
0.0182236 5.42101e-20 0.000583086 9.37174e-07
-0.0177925 5.42101e-20 0.00405319 1.12441e-05
0.0177925 -2.71051e-20 0.00405319 8.14186e-07
-0.018201 0 0.00177192 3.29998e-06
0.018201 0 0.00177192 3.85951e-07
-0.0173656 -1.807e-21 0.00581376 1.99811e-05
0.0173656 9.03502e-22 0.00581378 1.62132e-07
-0.0171242 0 0.00658581 9.94252e-06
0.0171243 0 0.00658585 1.93647e-07
-0.0177701 0 0.0047233 1.69473e-05
0.0177701 -2.71051e-20 0.0047233 6.28262e-07
-0.0171594 -6.77626e-21 0.0066222 9.77741e-06
0.0171595 0 0.00662223 1.91675e-07
-0.0171745 -6.77626e-21 0.00660974 9.80765e-06
0.0171746 -6.77626e-21 0.00660977 1.92151e-07
-0.0171745 6.77626e-21 0.00663768 1.00274e-05
0.0171746 0 0.00663771 1.9541e-07
-0.0181606 -1.0842e-19 0.00305643 7.54052e-06
0.0181606 5.42101e-20 0.00305643 9.86341e-07
-0.01719 -6.77626e-21 0.00665349 9.86075e-06
0.0171901 -6.77626e-21 0.00665351 1.90487e-07
-0.0172014 0 0.00663722 9.88692e-06
0.0172015 0 0.00663725 1.91075e-07
-0.017284 0 0.00651866 1.23253e-05
0.0172841 -6.77626e-21 0.00651871 1.79426e-07
-0.0172277 -2.71051e-20 0.00669186 9.76717e-06
0.0172278 -2.03288e-20 0.00669187 1.89955e-07
0.0181252 0 0.00380809 1.10312e-06
-0.0181264 1.41172e-22 0.00381066 1.32103e-05
-0.0177303 5.42101e-20 0.00540333 2.52849e-05
0.0177303 0 0.00540334 2.63529e-07
-0.0174485 6.02335e-21 0.00633776 1.61009e-05
0.0174485 1.50584e-21 0.00633777 1.57103e-07
-0.0181015 -5.64689e-22 0.00437909 1.70277e-05
0.0181015 0 0.00437909 1.05419e-06
-0.0177286 0 0.00604036 3.14019e-05
0.0177286 0 0.00604037 9.469e-08
-0.018075 5.64689e-22 0.00504762 2.28587e-05
0.018075 5.64689e-22 0.00504762 7.53733e-07
-0.0174666 1.35525e-20 0.00693497 9.32953e-06
0.0174666 -6.77626e-21 0.00693498 1.88693e-07
-0.0188065 -3.38813e-21 1.62724e-05 1.65933e-05
0.0188065 0 1.62692e-05 9.85547e-07
-0.0188069 -3.38813e-21 2.0693e-24 1.65933e-05
0.0188069 0 2.07223e-24 9.85543e-07
0.0188233 0 -2.51176e-25 9.86694e-07
-0.0188233 3.38813e-21 -2.48312e-25 1.6573e-05
0.0188396 0 1.62245e-05 9.87851e-07
-0.0188396 0 1.62278e-05 1.65511e-05
0.0188397 0 -2.45884e-25 9.87852e-07
-0.0188397 -3.38813e-21 -2.4307e-25 1.6551e-05
-0.0188091 5.64689e-22 0.00116454 1.16388e-05
0.0188091 0 0.00116454 7.89937e-07
-0.0184387 -2.71051e-20 0.00403102 1.7439e-05
0.0184387 0 0.00403102 1.45445e-06
0.0176208 7.05861e-23 0.00677694 1.9776e-07
-0.0176216 -1.41172e-22 0.00677769 9.90655e-06
-0.0180488 5.64689e-22 0.00571123 2.94789e-05
0.0180488 -1.12938e-21 0.00571124 3.53124e-07
-0.018794 0 0.00239227 1.04806e-05
0.018794 0 0.00239227 1.1585e-06
-0.0184023 2.71051e-20 0.0046998 2.24201e-05
0.0184023 0 0.0046998 1.31182e-06
-0.0179596 2.63521e-21 0.00643086 2.63627e-05
0.0179596 4.14105e-21 0.00643087 1.58157e-07
-0.0177051 6.77626e-21 0.00717768 1.14362e-05
0.0177052 0 0.0071777 1.7772e-07
-0.0177437 0 0.00721691 1.15901e-05
0.0177437 0 0.00721692 1.77121e-07
-0.0184015 2.71051e-20 0.00534889 2.68655e-05
0.0184015 2.71051e-20 0.0053489 7.99291e-07
-0.0177602 0 0.007205 1.16396e-05
0.0177602 0 0.00720502 1.77609e-07
-0.0177596 0 0.0072331 1.19805e-05
0.0177596 0 0.00723311 1.80948e-07
0.0188295 7.05861e-23 0.00373126 1.90282e-06
-0.0177751 6.77626e-21 0.00724887 1.17698e-05
0.0177751 0 0.00724887 1.76787e-07
-0.0188307 4.23516e-22 0.00373001 2.00602e-05
-0.017788 0 0.0072329 1.18055e-05
0.017788 0 0.00723291 1.77282e-07
-0.018738 -4.23516e-22 0.00435322 2.3235e-05
0.018738 8.04681e-21 0.00435322 1.76596e-06
-0.0187376 -4.23516e-22 0.00436113 2.33296e-05
0.0187376 1.69407e-21 0.00436113 1.77062e-06
0.0178113 6.77626e-21 0.00728567 1.77611e-07
-0.0178113 -6.77626e-21 0.00728567 1.20153e-05
0.0178795 0 0.00711716 1.66217e-07
-0.0178795 6.77626e-21 0.00711713 1.54155e-05
-0.0183488 -2.71051e-20 0.00603424 3.42117e-05
0.0183488 0 0.00603425 2.81424e-07
-0.0180549 -1.50584e-21 0.00694833 2.09906e-05
0.0180549 1.50584e-21 0.00694833 1.46234e-07
0.0194128 5.42101e-20 0.000584031 1.03651e-06
-0.0194128 -5.42101e-20 0.000584031 1.58181e-05
-0.018803 5.64689e-22 0.00493677 2.95772e-05
0.018803 2.82344e-22 0.00493677 1.51945e-06
0.0194073 0 0.00177875 7.92057e-07
-0.0194073 1.0842e-19 0.00177875 9.89266e-06
-0.0183455 -2.71051e-20 0.00666212 4.33007e-05
0.0183455 -2.71051e-20 0.00666213 9.21325e-08
-0.0186965 -5.64689e-22 0.00568331 3.42348e-05
0.0186965 -1.69407e-21 0.00568331 8.66807e-07
-0.0180388 6.77626e-21 0.007517 1.27505e-05
0.0180388 0 0.007517 1.88507e-07
0.0194176 1.0842e-19 0.0030161 2.48524e-06
-0.0194176 -5.42101e-20 0.0030161 2.12659e-05
-0.0182202 -4.70574e-22 0.00737491 1.3538e-05
0.0182202 -1.8823e-22 0.00737492 1.93633e-07
-0.0186656 1.12938e-21 0.00633956 4.00422e-05
0.0186656 5.64689e-22 0.00633956 3.6511e-07
-0.0190338 0 0.00534623 3.64514e-05
0.0190338 -2.71051e-20 0.00534623 1.54219e-06
-0.0185755 9.03502e-22 0.00702539 3.32232e-05
0.0185755 -2.48463e-21 0.0070254 1.52911e-07
0.0193824 5.42101e-20 0.00433462 3.01574e-06
-0.0193824 -5.42101e-20 0.00433462 3.45419e-05
0.0182812 -3.38813e-21 0.00776358 1.50817e-07
-0.0182812 -3.38813e-21 0.00776358 1.30212e-05
-0.0182994 0 0.00778213 1.31444e-05
0.0182994 -3.38813e-21 0.00778213 1.49684e-07
-0.0183082 0 0.0077765 1.31497e-05
0.0183082 0 0.0077765 1.49752e-07
-0.018307 3.38813e-21 0.00778984 1.32391e-05
0.018307 -3.38813e-21 0.00778984 1.50484e-07
-0.0183179 3.38813e-21 0.00780096 1.31868e-05
0.0183179 0 0.00780096 1.48771e-07
-0.0183258 0 0.00779182 1.3191e-05
0.0183258 3.38813e-21 0.00779182 1.4893e-07
-0.0190083 2.71051e-20 0.00599366 3.94605e-05
0.0190083 0 0.00599366 8.31376e-07
-0.0184198 1.69407e-21 0.00771698 1.66242e-05
0.0184198 1.69407e-21 0.00771698 1.37689e-07
0.019989 0 1.55553e-05 1.16211e-06
-0.019989 0 1.55539e-05 1.35778e-05