# kMean  POINT_DATA 25334
# x  y  z  kMean
-6.77626e-21 0.057587 1.35324e-07 1.8332e-07
6.77626e-21 -0.057587 1.35324e-07 2.20995e-06
0 0.0575869 0.000409944 7.18953e-08
-3.38813e-21 -0.0575869 0.000409944 1.77932e-06
-1.69407e-21 0.0575869 0.000633503 3.08616e-08
-1.69407e-21 -0.0575869 0.000633504 1.69784e-06
0 0.0575868 0.00104356 4.04162e-08
-3.38813e-21 -0.0575868 0.00104356 1.85181e-06
5.0822e-21 0.0575868 0.00145414 5.50206e-08
-1.69407e-21 -0.0575868 0.00145414 2.38473e-06
0 0.0575868 0.00167624 6.35402e-08
-1.69407e-21 -0.0575868 0.00167624 2.70776e-06
0 0.0575868 0.002087 8.09101e-08
0 -0.0575868 0.002087 3.25216e-06
0 0.0577686 0.000993823 3.76572e-08
6.77626e-21 -0.0577686 0.000993824 1.73619e-06
6.77626e-21 0.0577684 0.00110476 4.19826e-08
6.77626e-21 -0.0577684 0.00110476 1.85956e-06
0 0.0577859 0.000103261 2.07927e-07
0 -0.0577859 0.000103261 2.07662e-06
0 0.0577942 1.15393e-07 2.34903e-07
-6.77626e-21 -0.0577942 1.15393e-07 2.2264e-06
0 0.0578027 1.90097e-05 2.35989e-07
0 -0.0578027 1.90097e-05 2.20874e-06
-6.77626e-21 -0.0578191 1.14264e-07 2.29675e-06
0 0.0578191 1.14264e-07 2.43654e-07
0 0.0577853 0.00199426 7.61377e-08
0 -0.0577853 0.00199426 3.1517e-06
0 0.0577823 0.002105 8.22226e-08
0 -0.0577823 0.002105 3.33422e-06
6.77626e-21 -0.057823 0.00105089 1.66406e-06
0 0.057823 0.00105089 3.7532e-08
0 0.0578007 0.00208013 8.09475e-08
0 -0.0578007 0.00208013 3.30247e-06
6.77626e-21 -0.0578427 5.77484e-05 2.06671e-06
0 0.0578427 5.77488e-05 2.29998e-07
0 0.0578443 1.78371e-05 2.53629e-07
0 -0.0578443 1.78368e-05 2.24186e-06
-6.77626e-21 0.0578469 1.13152e-07 2.56332e-07
-6.77626e-21 -0.0578469 1.13152e-07 2.26057e-06
0 -0.0578171 0.0021082 3.37743e-06
6.77626e-21 0.0578171 0.0021082 8.33325e-08
6.77626e-21 -0.0578434 0.00204427 3.12482e-06
0 0.0578434 0.00204427 7.56912e-08
-6.77626e-21 -0.0578462 0.00208444 3.38223e-06
0 0.0578462 0.00208444 8.25428e-08
6.77626e-21 -0.0578583 0.002112 3.4647e-06
-6.77626e-21 0.0578583 0.002112 8.47929e-08
3.38813e-21 -0.0579123 0.000912335 1.50512e-06
0 0.0579123 0.000912331 3.59071e-08
6.77626e-21 0.0579215 5.62283e-05 2.90901e-07
0 -0.0579215 5.62253e-05 2.01338e-06
-3.38813e-21 -0.0579146 0.00119726 1.7226e-06
0 0.0579146 0.00119726 3.89913e-08
6.77626e-21 -0.0579295 1.06809e-07 2.2065e-06
-6.77626e-21 0.0579295 1.06808e-07 2.6265e-07
6.77626e-21 -0.0579351 0.000246057 1.74165e-06
-3.38813e-21 0.0579351 0.000246061 1.62094e-07
-6.77626e-21 -0.0579259 0.00205413 3.18303e-06
0 0.0579259 0.00205413 7.48565e-08
3.38813e-21 -0.0579372 0.00186069 2.66756e-06
-3.38813e-21 0.0579372 0.00186068 6.40124e-08
0 -0.0579652 0.00212184 3.32012e-06
-6.77626e-21 0.0579652 0.00212184 8.0497e-08
0 -0.0580743 1.10803e-07 1.78535e-06
6.77626e-21 0.0580744 1.10802e-07 3.78509e-07
-2.25875e-21 0.0581721 0.000610602 7.19367e-08
0 -0.0581721 0.000610603 1.08615e-06
2.25875e-21 0.0581735 0.00151342 3.89552e-08
4.51751e-21 -0.0581735 0.00151342 1.71153e-06
-8.47033e-22 -0.0581934 0.00214283 2.97324e-06
2.5411e-21 0.0581934 0.00214284 6.27775e-08
-6.77626e-21 0.058277 1.16391e-07 4.61665e-07
-1.01644e-20 -0.058277 1.16394e-07 1.46228e-06
-1.35525e-20 0.0583193 0.000123003 4.24472e-07
0 -0.0583193 0.000122998 1.36106e-06
-5.0822e-21 0.0582823 0.00215102 5.83525e-08
0 -0.0582823 0.00215102 2.87171e-06
-1.35525e-20 -0.0583281 0.00201516 2.61035e-06
-1.35525e-20 0.0583281 0.00201516 5.33594e-08
-2.71051e-20 -0.0583808 0.00028652 9.79062e-07
0 0.0583808 0.000286525 2.64317e-07
0 -0.058383 0.00106967 8.8193e-07
1.35525e-20 0.058383 0.00106967 2.08459e-08
0 -0.0583862 0.00185752 1.84286e-06
-1.35525e-20 0.0583862 0.00185751 3.72561e-08
-1.35525e-20 0.0584351 1.20751e-07 3.86737e-07
0 -0.0584351 1.20753e-07 1.68194e-06
1.35525e-20 -0.0584724 0.00216851 2.85668e-06
1.35525e-20 0.0584724 0.00216852 6.37633e-08
2.63521e-21 0.0585878 0.000684244 6.60902e-08
3.76459e-22 -0.0585878 0.000684244 6.81773e-07
0 0.0586022 0.000178782 4.86617e-07
0 -0.0586022 0.000178773 1.11883e-06
5.64689e-22 0.0585913 0.00147246 2.53038e-08
-1.12938e-21 -0.0585913 0.00147246 1.21052e-06
3.38813e-21 0.0586253 8.46437e-05 5.49059e-07
0 -0.0586254 8.46169e-05 1.06491e-06
2.37169e-20 0.0586311 9.46985e-08 5.33128e-07
-3.38813e-21 -0.0586312 9.47002e-08 1.2397e-06
0 -0.058614 0.00198099 2.21336e-06
3.38813e-21 0.058614 0.00198098 4.53805e-08
6.77626e-21 -0.0586389 0.00205688 2.1933e-06
3.38813e-21 0.0586389 0.00205686 4.43474e-08
6.77626e-21 -0.0586526 0.0021851 2.50261e-06
-2.03288e-20 0.0586526 0.00218511 5.3582e-08
1.35525e-20 0.0587867 7.40281e-08 3.19484e-07
0 -0.0587868 7.40288e-08 1.91625e-06
1.35525e-20 0.0587871 0.00108477 1.6734e-08
-1.35525e-20 -0.0587871 0.00108477 7.61037e-07
0 0.0588138 0.000419265 1.46762e-07
-1.35525e-20 -0.0588138 0.00041926 9.01684e-07
-1.35525e-20 0.0587904 0.00219778 6.89865e-08
0 -0.0587904 0.00219778 2.94146e-06
0 0.0588211 0.00175677 3.15225e-08
-1.35525e-20 -0.0588211 0.00175678 1.47828e-06
-2.25875e-21 0.0589944 0.000754327 4.44399e-08
0 -0.0589944 0.000754324 1.00169e-06
0 0.0589983 0.00142976 3.44086e-08
-6.77626e-21 -0.0589983 0.00142976 1.53514e-06
-6.77626e-21 0.0590078 0.0022178 7.19964e-08
0 -0.0590078 0.0022178 2.97447e-06
6.77626e-21 0.0590549 8.35179e-08 1.6963e-07
-1.01644e-20 -0.0590549 8.35183e-08 2.03179e-06
0 0.0590696 0.000188906 1.69922e-07
-6.77626e-21 -0.0590696 0.000188907 1.89886e-06
-3.38813e-20 0.0590838 8.57393e-08 1.60898e-07
-2.03288e-20 -0.0590838 8.57399e-08 2.0713e-06
-6.77626e-21 0.05908 0.00199662 6.39471e-08
0 -0.05908 0.00199663 2.66841e-06
6.77626e-21 0.059078 0.00212655 6.82524e-08
6.77626e-21 -0.059078 0.00212657 2.8133e-06
0 -0.0591581 0.00223163 3.02343e-06
-6.77626e-21 0.0591581 0.00223164 7.47479e-08
0 0.0593378 9.41278e-08 1.69325e-07
2.71051e-20 -0.0593378 9.41278e-08 2.97921e-06
4.51751e-21 -0.0593529 0.000581997 1.25634e-06
-4.51751e-21 0.0593529 0.000581997 5.14864e-08
-2.25875e-21 -0.0593596 0.00110181 1.0774e-06
4.51751e-21 0.0593596 0.00110181 2.31694e-08
-4.51751e-21 -0.0593591 0.00162171 1.77917e-06
-2.25875e-21 0.0593591 0.00162171 4.13476e-08
-1.35525e-20 0.059356 0.00224986 8.26023e-08
1.35525e-20 -0.059356 0.00224986 3.26931e-06
0 0.0594897 0.00226217 8.57688e-08
1.35525e-20 -0.0594898 0.00226217 3.38312e-06
-1.01644e-20 0.0596053 7.49137e-08 1.52141e-07
1.35525e-20 -0.0596053 7.49137e-08 2.6183e-06
6.77626e-21 -0.0596378 6.72747e-05 2.45871e-06
3.38813e-21 0.0596378 6.72778e-05 1.42896e-07
0 -0.0596391 0.000281382 2.23869e-06
0 0.0596391 0.000281381 1.2143e-07
1.35525e-20 0.0596522 0.000750578 1.86033e-08
1.35525e-20 -0.0596522 0.000750579 9.21384e-07
2.03288e-20 -0.0596652 7.43486e-08 2.69636e-06
-3.38813e-21 0.0596653 7.43486e-08 1.52106e-07
0 -0.0596556 0.00146978 1.37122e-06
1.35525e-20 0.0596556 0.00146978 3.07515e-08
0 -0.0596502 0.00197793 3.08141e-06
-1.12938e-21 0.0596502 0.00197793 7.6451e-08
-6.77626e-21 -0.0598456 0.00229492 3.70589e-06
0 0.0598456 0.00229493 9.79731e-08
0 -0.0599214 5.86731e-08 3.70261e-06
2.71051e-20 0.0599214 5.86731e-08 1.76361e-07
0 -0.0599318 0.00059675 1.51959e-06
-4.51751e-21 0.0599318 0.000596749 5.81356e-08
-2.25875e-21 -0.0599376 0.0016364 2.04152e-06
-1.12938e-21 0.0599376 0.0016364 4.94e-08
3.38813e-22 0.0599523 0.00111694 2.56335e-08
6.77626e-22 -0.0599523 0.00111694 1.12918e-06
0 -0.0599299 0.00230268 3.80242e-06
6.77626e-21 0.0599299 0.00230269 1.01499e-07
6.77626e-21 0.0599889 0.00230811 1.03377e-07
0 -0.0599889 0.00230811 3.88054e-06
-1.35525e-20 0.0601336 6.5621e-08 1.71208e-07
-1.35525e-20 -0.0601336 6.56212e-08 3.33206e-06
5.64689e-21 -0.0602132 0.00025242 2.811e-06
1.12938e-21 0.0602132 0.000252421 1.44462e-07
0 -0.0602294 0.000784336 1.00357e-06
4.06576e-20 0.0602294 0.000784336 2.18671e-08
2.71051e-20 0.0602309 0.00146544 3.26436e-08
0 -0.0602309 0.00146544 1.37091e-06
-1.35525e-20 -0.0602724 6.43012e-08 3.49595e-06
1.35525e-20 0.0602724 6.4301e-08 1.75901e-07
8.47033e-22 0.0602423 0.00197228 9.36494e-08
1.41172e-22 -0.0602423 0.00197228 3.67951e-06
-5.42101e-20 -0.060476 6.96062e-08 4.34006e-06
2.71051e-20 0.060476 6.96059e-08 1.98514e-07
-3.76459e-22 0.0604796 0.000600016 7.54089e-08
0 -0.0604796 0.000600017 1.79918e-06
-5.0822e-21 -0.0604892 0.00235417 4.45947e-06
0 0.0604957 0.00235477 1.19487e-07
-4.23516e-22 0.0605072 0.00234081 1.19072e-07
0 -0.0605072 0.00234076 4.45528e-06
-2.25875e-21 -0.0605575 0.00113185 1.124e-06
3.38813e-21 0.0605575 0.00113185 2.6812e-08
0 -0.0605507 0.0016269 2.08334e-06
-2.25875e-21 0.0605507 0.0016269 5.09667e-08
4.23516e-22 0.0605417 0.002359 1.20913e-07
-4.23516e-21 -0.0605419 0.00235902 4.51101e-06
0 0.0606726 5.84245e-08 2.09538e-07
0 -0.0606726 5.84247e-08 4.02457e-06
2.82344e-22 0.0608243 0.000288714 1.8792e-07
-8.47033e-22 -0.0608243 0.000288713 3.31751e-06
-1.12938e-21 -0.0608389 0.00196308 3.87406e-06
0 0.0608389 0.00196307 9.69149e-08
1.35525e-20 -0.0608907 5.77036e-08 4.25426e-06
1.35525e-20 0.0608907 5.77035e-08 2.38193e-07
0 0.061022 0.000858086 4.22571e-08
-9.03502e-21 -0.061022 0.000858088 8.62986e-07
-4.51751e-21 -0.0610196 0.00143519 9.5762e-07
9.03502e-21 0.0610196 0.00143519 2.30195e-08
0 -0.0610807 4.8073e-08 4.86395e-06
2.71051e-20 0.0610807 4.80731e-08 3.01881e-07
0 0.0610586 0.00240653 1.36163e-07
3.38813e-21 -0.0610587 0.00240653 5.05639e-06
-6.77626e-21 0.0610729 0.00238498 1.35588e-07
0 -0.0610729 0.00238499 5.04468e-06
0 -0.0610955 0.00240991 5.05391e-06
-3.38813e-21 0.0610955 0.00240992 1.36388e-07
-1.01644e-20 -0.0610995 0.00235724 4.83908e-06
3.38813e-21 0.0610995 0.00235723 1.2969e-07
0 -0.0611235 0.00238842 5.09272e-06
3.38813e-21 0.0611235 0.00238841 1.37381e-07
-3.38813e-21 -0.0611365 0.0024137 5.13214e-06
-3.38813e-21 0.0611365 0.00241371 1.38999e-07
-2.71051e-20 0.0612633 0.00060671 1.47626e-07
-2.71051e-20 -0.0612633 0.00060671 2.04311e-06
0 -0.0612584 0.00172072 1.98163e-06
2.71051e-20 0.0612584 0.00172072 4.81517e-08
0 0.0612896 0.00114624 2.18858e-08
0 -0.0612897 0.00114624 7.98975e-07
1.35525e-20 0.0613382 3.75142e-08 4.13001e-07
0 -0.0613382 3.75134e-08 4.46881e-06
2.35287e-22 -0.0614691 0.000272863 3.90787e-06
1.8823e-22 0.0614691 0.000272864 4.40093e-07
-6.77626e-21 -0.0614658 0.00200456 4.17319e-06
0 0.0614659 0.00200455 1.05574e-07
1.35525e-20 -0.0615061 3.67847e-08 4.68446e-06
0 0.0615061 3.67853e-08 4.26674e-07
6.77626e-21 0.0615545 0.000876367 5.55364e-08
0 -0.0615545 0.000876369 8.00816e-07
-2.25875e-21 -0.0615509 0.0014501 7.92795e-07
-2.25875e-21 0.0615509 0.00145009 1.99105e-08
0 0.061707 0.00246619 1.68162e-07
0 -0.061707 0.00246619 6.065e-06
0 0.0617173 0.00245304 1.68131e-07
-3.38813e-21 -0.0617173 0.00245304 6.0712e-06
0 -0.0617319 0.0024685 6.0884e-06
0 0.0617319 0.00246851 1.68829e-07
0 -0.0617337 0.00243689 5.95028e-06
1.35525e-20 0.0617337 0.00243687 1.64501e-07
0 -0.0617481 0.00245432 6.13668e-06
0 0.0617481 0.00245432 1.7004e-07
0 -0.0617556 0.00247067 6.17172e-06
0 0.0617556 0.00247068 1.71288e-07
-2.71051e-20 -0.0618119 0.000576129 2.25069e-06
2.71051e-20 0.0618119 0.000576127 1.87214e-07
-2.71051e-20 0.0618207 1.81822e-08 3.9073e-07
0 -0.0618207 1.81785e-08 4.96841e-06
-2.71051e-20 0.0618057 0.00179067 5.34508e-08
0 -0.0618057 0.00179067 2.10186e-06
1.54886e-20 -0.0618911 0.00110231 6.38702e-07
-7.7443e-21 0.0618911 0.0011023 2.43494e-08
8.13152e-21 -0.0620668 0.000803568 9.29913e-07
-2.1684e-20 0.0620668 0.000803563 7.51906e-08
-9.03502e-21 -0.0620551 0.00147845 8.20985e-07
-4.51751e-21 0.0620551 0.00147845 2.21215e-08
-1.01644e-20 -0.062113 1.60866e-08 5.64825e-06
-2.71051e-20 0.062113 1.60885e-08 3.42155e-07
1.12938e-21 -0.0620964 0.00208092 6.11058e-06
-7.90564e-21 0.0620964 0.00208092 1.64559e-07
4.51751e-21 -0.0621537 0.000297909 5.10584e-06
-7.90564e-21 0.0621538 0.000297901 3.04385e-07
0 -0.0621775 1.5659e-08 5.78526e-06
-3.38813e-21 0.0621776 1.56603e-08 3.24285e-07
0 -0.0621833 0.00251002 6.83843e-06
0 0.0621834 0.00251003 1.85071e-07
0 -0.0621909 0.00249518 6.82709e-06
0 0.062191 0.00249518 1.84317e-07
1.35525e-20 -0.0622064 0.0024796 6.64666e-06
0 0.0622065 0.00247958 1.7871e-07
3.38813e-21 -0.062211 0.00251256 6.77722e-06
0 0.0622111 0.00251257 1.82931e-07
3.38813e-21 -0.0622439 0.00247191 6.82058e-06
1.69407e-21 0.062244 0.00247188 1.81383e-07
2.71051e-20 -0.062464 1.36278e-08 6.12973e-06
2.71051e-20 0.0624641 1.36269e-08 2.86296e-07
-9.03502e-21 -0.0624707 0.000665047 2.18468e-06
1.807e-20 0.0624707 0.000665044 1.07902e-07
1.12938e-21 -0.062477 0.00119048 6.9374e-07
-1.12938e-21 0.062477 0.00119047 2.34896e-08
-1.69407e-20 -0.062456 0.00253512 6.83337e-06
3.38813e-21 0.0624561 0.00253513 1.72494e-07
0 -0.0624641 0.00247935 6.88158e-06
3.38813e-21 0.0624642 0.00247932 1.71961e-07
9.03502e-21 -0.0625428 0.00182288 2.73524e-06
-6.77626e-21 0.0625428 0.00182287 6.45408e-08
9.03502e-21 -0.0625479 0.00223393 5.89117e-06
0 0.0625479 0.00223393 1.45328e-07
6.77626e-21 0.0626457 0.0024718 1.44921e-07
-1.35525e-20 -0.0626457 0.00247184 5.86842e-06
1.35525e-20 -0.0627252 1.30353e-08 6.72196e-06
-2.71051e-20 0.0627253 1.30348e-08 3.03843e-07
0 0.0626789 0.00255557 1.38941e-07
0 -0.0626789 0.00255558 5.53986e-06
0 -0.0627232 0.00247243 5.21637e-06
0 0.0627232 0.0024724 1.26877e-07
-1.12938e-21 -0.0627775 0.000301909 5.90864e-06
1.12938e-21 0.0627776 0.000301908 2.66918e-07
0 -0.062729 0.00253281 5.32371e-06
0 0.062729 0.0025328 1.3096e-07
6.77626e-21 -0.0627358 0.00256092 5.26218e-06
-6.77626e-21 0.0627358 0.00256092 1.29588e-07
1.35525e-20 -0.0627919 0.000886728 8.37106e-07
1.35525e-20 0.0627919 0.000886726 3.17116e-08
1.35525e-20 -0.0628163 1.26849e-08 6.85086e-06
1.35525e-20 0.0628164 1.26845e-08 3.03424e-07
2.71051e-20 -0.0628008 0.00150647 5.65083e-07
-2.71051e-20 0.0628008 0.00150646 1.29075e-08
-1.35525e-20 0.0628111 0.00226844 1.09788e-07
-1.35525e-20 -0.0628111 0.00226845 4.67481e-06
0 -0.0628645 0.00225958 4.25841e-06
0 0.0628645 0.00225958 9.82286e-08
0 -0.0630768 1.21047e-08 6.89722e-06
0 0.0630768 1.21046e-08 2.8678e-07
4.51751e-21 -0.0630912 0.000666723 2.52262e-06
0 0.0630912 0.000666722 1.06169e-07
-6.77626e-21 0.0630461 0.00258946 1.18325e-07
0 -0.0630461 0.00258946 4.631e-06
-3.38813e-21 -0.0630991 0.00119272 7.4336e-07
-1.12938e-21 0.0630991 0.00119271 2.29373e-08
-6.77626e-21 0.0630752 0.00254727 1.19102e-07
6.77626e-21 -0.0630752 0.00254728 4.64958e-06
6.77626e-21 -0.0631146 0.00184446 1.92437e-06
6.77626e-21 0.0631146 0.00184446 4.30641e-08
6.77626e-21 -0.0631295 0.0022085 3.76041e-06
-1.35525e-20 0.0631295 0.0022085 9.19264e-08
0 0.0631287 0.00259721 1.31438e-07
0 -0.0631287 0.0025972 4.86748e-06
6.77626e-21 0.0631356 0.00244813 1.08612e-07
0 -0.0631356 0.00244815 4.28041e-06
-6.77626e-21 -0.0632026 0.00255045 4.67106e-06
6.77626e-21 0.0632026 0.00255045 1.23806e-07
0 -0.0632312 0.00260676 4.65914e-06
0 0.0632313 0.00260677 1.25114e-07
6.77626e-21 -0.063349 1.19264e-08 7.41429e-06
0 0.063349 1.19263e-08 3.084e-07
1.12938e-21 -0.0633802 0.000299367 6.60787e-06
-2.25875e-21 0.0633802 0.000299369 2.75555e-07
-1.01644e-20 -0.0634014 1.18938e-08 7.47767e-06
1.01644e-20 0.0634014 1.18937e-08 3.0943e-07
2.71051e-20 -0.0633962 0.000886439 1.02841e-06
0 0.0633962 0.000886437 3.45922e-08
-2.71051e-20 0.0634042 0.00150049 1.26889e-08
0 -0.0634042 0.00150049 5.52423e-07
-6.77626e-21 0.0634114 0.0022746 1.05827e-07
6.77626e-21 -0.0634114 0.00227461 4.00552e-06
-1.35525e-20 0.0635494 0.00263612 1.34904e-07
1.35525e-20 -0.0635494 0.00263612 4.78561e-06
-1.54886e-20 -0.0636291 0.000643941 2.88775e-06
-1.54886e-20 0.0636291 0.00064394 1.13316e-07
0 0.0635904 0.00256273 1.35555e-07
0 -0.0635904 0.00256275 4.83546e-06
-5.42101e-20 0.0636736 1.17146e-08 2.97701e-07
2.71051e-20 -0.0636736 1.17147e-08 7.44065e-06
5.64689e-21 -0.0637074 0.00119101 8.26788e-07
-6.77626e-21 0.0637074 0.00119101 2.48787e-08
-6.77626e-21 0.0637064 0.00183893 4.26448e-08
-9.03502e-21 -0.0637064 0.00183893 1.73099e-06
-1.12938e-21 0.0636972 0.00228499 1.04792e-07
-2.25875e-21 -0.0636972 0.002285 3.87987e-06
1.35525e-20 -0.0636864 0.00264892 5.3401e-06
0 0.0636864 0.00264892 1.58393e-07
0 0.0638057 0.00256956 1.42276e-07
0 -0.0638057 0.00256957 5.02591e-06
0 -0.0638578 0.00266484 5.05602e-06
0 0.0638578 0.00266484 1.4479e-07
-7.41154e-21 -0.0639767 1.11249e-08 8.03499e-06
1.48231e-21 0.0639761 1.11262e-08 3.22965e-07
2.25875e-21 -0.063985 0.000294159 7.36583e-06
1.12938e-21 0.063985 0.000294155 2.97019e-07
9.03502e-21 0.0639986 0.000797712 7.46503e-08
1.35525e-20 -0.0639986 0.000797713 2.02288e-06
0 0.0639965 0.00216957 8.25189e-08
-1.35525e-20 -0.0639965 0.00216958 3.10938e-06
-1.35525e-20 0.0639892 0.00242307 1.46071e-07
0 -0.0639893 0.00242307 5.20517e-06
-5.42101e-21 0.0640905 0.00161525 2.81586e-08
2.71051e-21 -0.0640905 0.00161526 1.11111e-06
-6.77626e-21 0.0640768 0.00268508 1.50859e-07
2.03288e-20 -0.0640768 0.00268508 5.23174e-06
2.71051e-20 0.0641377 0.00258144 1.51251e-07
1.35525e-20 -0.0641377 0.00258144 5.29459e-06
0 0.0642237 0.00119408 2.69819e-08
0 -0.0642237 0.00119408 9.01899e-07
0 0.0642452 0.0019095 4.92267e-08
0 -0.0642452 0.0019095 1.89469e-06
-2.71051e-20 -0.0642765 1.05721e-08 7.9422e-06
0 0.0642765 1.05715e-08 3.10754e-07
0 -0.0643071 0.000580349 4.30298e-06
0 0.0643071 0.000580347 1.65309e-07
1.35525e-20 0.0642697 0.00270301 1.84072e-07
0 -0.0642697 0.00270301 5.98995e-06
0 0.0642913 0.00231124 1.13796e-07
0 -0.0642914 0.00231125 4.09863e-06
-2.03288e-20 0.0645077 0.00272507 1.62372e-07
-6.77626e-21 -0.0645077 0.00272507 5.5857e-06
3.38813e-21 -0.0645717 1.00934e-08 8.54526e-06
-3.04932e-20 0.0645718 1.00931e-08 3.22706e-07
1.69407e-21 -0.0645942 0.000105281 8.47022e-06
1.69407e-21 0.0645943 0.000105376 3.199e-07
1.12938e-21 -0.0646037 0.000289984 8.08585e-06
1.12938e-21 0.0646037 0.000289985 3.08941e-07
3.04932e-20 -0.0646061 1.00753e-08 8.57638e-06
3.38813e-21 0.0646062 1.0075e-08 3.23092e-07
-1.35525e-20 0.0645786 0.00255814 1.63039e-07
0 -0.0645786 0.00255814 5.71248e-06
-9.03502e-21 -0.0646301 0.000897019 1.67388e-06
4.51751e-21 0.0646302 0.000897011 5.86268e-08
4.51751e-21 0.0646074 0.00205749 5.84561e-08
4.51751e-21 -0.0646074 0.00205749 2.19308e-06
4.51751e-21 -0.0646289 0.0015261 9.76955e-07
0 0.0646289 0.0015261 2.58062e-08
2.03288e-20 0.0646274 0.00273615 1.6655e-07
-6.77626e-21 -0.0646274 0.00273615 5.741e-06
2.71051e-20 -0.0649009 9.6032e-09 8.5509e-06
0 0.064901 9.60317e-09 3.56248e-07
0 0.0648749 0.00275909 2.16121e-07
-1.35525e-20 -0.0648749 0.0027591 6.90291e-06
0 -0.0649356 0.000580175 4.67942e-06
0 0.0649357 0.000580173 1.94635e-07
2.71051e-20 -0.0649299 0.0018847 2.25218e-06
0 0.0649299 0.0018847 5.8776e-08
0 -0.0649158 0.00234727 4.6071e-06
-5.64689e-22 0.0649158 0.00234727 1.27192e-07
0 0.064955 0.00120196 3.05987e-08
-2.71051e-20 -0.064955 0.00120197 9.93109e-07
-1.69407e-21 -0.0652158 7.83139e-09 9.34898e-06
-5.0822e-21 0.0652158 7.83129e-09 3.43968e-07
1.69407e-21 -0.0652252 4.89709e-05 9.32463e-06
-8.47033e-22 0.0652252 4.89567e-05 3.43182e-07
-1.69407e-21 -0.0652301 7.82307e-09 9.37058e-06
1.69407e-21 0.0652302 7.82298e-09 3.44254e-07
3.38813e-21 -0.0652381 0.000289556 8.88114e-06
-1.12938e-21 0.0652381 0.000289555 3.3527e-07
-4.51751e-21 -0.0652635 0.000898339 1.8163e-06
0 0.0652635 0.000898337 6.55845e-08
-1.86347e-20 0.0652148 0.00279069 1.90365e-07
1.69407e-21 -0.0652149 0.00279069 6.65717e-06
2.25875e-21 0.0652598 0.00154151 2.64003e-08
4.51751e-21 -0.0652598 0.00154152 9.87552e-07
-9.03502e-21 0.0652522 0.00209406 6.23461e-08
-1.35525e-20 -0.0652523 0.00209406 2.39762e-06
6.77626e-21 0.065246 0.00279361 1.90324e-07
1.18585e-20 -0.0652461 0.00279361 6.66299e-06
2.25875e-21 0.0652919 0.00257206 1.77015e-07
-6.77626e-21 -0.065292 0.00257206 6.34452e-06
-2.71051e-20 -0.0655524 5.83779e-09 9.54716e-06
2.71051e-20 0.0655524 5.83758e-09 3.82253e-07
0 -0.0655704 0.000580902 5.26438e-06
-2.71051e-20 0.0655704 0.0005809 2.13422e-07
2.71051e-20 0.0655565 0.00189852 5.1571e-08
2.71051e-20 -0.0655566 0.00189852 2.11235e-06
0 0.0655812 0.0012083 3.29577e-08
0 -0.0655812 0.0012083 1.04173e-06
-5.42101e-20 0.0655608 0.00282284 2.14685e-07
0 -0.0655609 0.00282284 6.96831e-06
9.03502e-21 0.0656258 0.00230133 9.16143e-08
0 -0.0656259 0.00230134 3.4728e-06
-9.03502e-21 0.0657943 0.00153807 2.58291e-08
-9.03502e-21 -0.0657943 0.00153807 9.79046e-07
6.77626e-21 -0.0658501 4.27433e-09 1.05196e-05
-3.38813e-21 0.0658501 4.27416e-09 3.71281e-07
-8.13152e-21 0.0658197 0.00206877 3.89831e-08
8.13152e-21 -0.0658197 0.00206877 1.64556e-06
0 -0.0658851 0.000294095 9.9283e-06
-1.12938e-21 0.0658851 0.000294098 3.53204e-07
-6.77626e-21 0.0659037 3.7412e-09 3.69713e-07
-3.38813e-21 -0.0659037 3.74133e-09 1.0609e-05
-6.77626e-21 -0.0658977 0.000900946 2.06245e-06
0 0.0658977 0.000900939 7.29303e-08
-1.69407e-21 0.0658682 0.00285172 2.05889e-07
-1.69407e-21 -0.0658683 0.00285172 6.89808e-06
0 0.0658848 0.00282476 2.03404e-07
1.69407e-21 -0.0658848 0.00282481 6.86537e-06
-5.0822e-21 0.0659027 0.00285494 2.05117e-07
0 -0.0659027 0.00285493 6.85713e-06
-1.12938e-21 0.0659302 0.00259593 1.76089e-07
2.25875e-21 -0.0659302 0.00259593 6.11548e-06
2.71051e-20 0.0662017 2.04737e-09 3.77186e-07
-2.71051e-20 -0.0662017 2.04747e-09 1.06689e-05
-2.71051e-20 -0.0662096 0.000583235 5.96926e-06
0 0.0662096 0.000583235 2.11819e-07
2.25875e-21 0.0662259 0.00182351 2.18866e-08
4.51751e-21 -0.0662259 0.00182351 9.19815e-07
4.51751e-21 -0.0662614 0.00125281 1.02986e-06
0 0.0662614 0.00125281 3.12348e-08
-9.03502e-21 0.0662442 0.00230923 8.08389e-08
0 -0.0662442 0.00230924 2.92291e-06
0 0.0662393 0.00288655 2.02917e-07
-2.71051e-20 -0.0662393 0.00288655 6.32929e-06
-1.35525e-20 -0.0664688 1.83914e-09 1.14994e-05
-2.03288e-20 0.0664688 1.83905e-09 3.84567e-07
4.51751e-21 -0.0665215 0.000297069 1.0764e-05
-3.38813e-21 0.0665216 0.000297066 3.60167e-07
0 -0.0665293 0.00080361 3.08366e-06
-9.03502e-21 0.0665293 0.000803608 1.04877e-07
0 0.0664898 0.00290996 2.49727e-07
0 -0.0664899 0.00290996 7.50247e-06
0 0.0665401 0.00152056 1.5403e-08
-2.71051e-20 -0.0665401 0.00152056 5.88707e-07
-6.77626e-21 -0.0665636 1.726e-09 1.16369e-05
-2.03288e-20 0.0665637 1.72594e-09 3.85045e-07
0 0.0665512 0.00211001 2.8223e-08
0 -0.0665512 0.00211001 1.10546e-06
1.12938e-21 0.0665487 0.00261746 2.12634e-07
-6.77626e-21 -0.0665487 0.00261746 6.61703e-06
3.38813e-21 0.0665442 0.00282584 2.53532e-07
-3.38813e-21 -0.0665442 0.00282586 7.66167e-06
0 0.0666005 0.00292022 2.56467e-07
0 -0.0666005 0.00292022 7.56646e-06
0 -0.0668291 1.51559e-09 1.1579e-05
-2.71051e-20 0.0668291 1.51554e-09 3.83701e-07
0 -0.0668394 0.000583644 6.49035e-06
2.71051e-20 0.0668395 0.000583645 2.15517e-07
4.51751e-21 -0.0668468 0.0011998 1.17687e-06
6.77626e-21 0.0668469 0.0011998 3.51785e-08
0 0.0668543 0.00182538 2.29628e-08
0 -0.0668543 0.00182538 8.43642e-07
0 0.0668556 0.00232228 9.4114e-08
1.35525e-20 -0.0668556 0.00232228 3.08106e-06
-2.71051e-20 0.0668433 0.00294289 2.42926e-07
0 -0.0668434 0.0029429 6.90822e-06
-3.38813e-20 -0.0670865 1.47842e-09 1.22568e-05
2.71051e-20 0.0670865 1.47839e-09 3.95704e-07
0 0.0670506 0.00296221 2.82546e-07
0 -0.0670506 0.00296222 8.07212e-06
1.12938e-20 -0.0671423 0.000297563 1.14491e-05
0 0.0671423 0.000297564 3.701e-07
4.51751e-21 -0.0671508 0.000801878 3.36789e-06
4.51751e-21 0.0671508 0.000801881 1.08975e-07
0 0.0671599 0.00152405 1.65967e-08
2.71051e-20 -0.0671599 0.00152405 5.89427e-07
-3.38813e-20 -0.0671866 1.45256e-09 1.23786e-05
-2.71051e-20 0.0671867 1.45253e-09 3.97348e-07
0 -0.0671598 0.00212379 1.08786e-06
-2.71051e-20 0.0671598 0.00212379 3.21347e-08
-6.77626e-21 0.0671483 0.00265339 2.52275e-07
-1.12938e-21 -0.0671483 0.00265339 7.53495e-06
-6.77626e-21 0.0671464 0.00281379 2.88639e-07
-1.35525e-20 -0.0671464 0.00281382 8.46432e-06
-6.77626e-21 -0.0672459 0.00298031 8.21702e-06
-6.77626e-21 0.0672459 0.00298031 2.93235e-07
0 0.0674436 1.4156e-09 3.92535e-07
5.42101e-20 -0.0674436 1.41562e-09 1.23355e-05
-2.71051e-20 0.0674568 0.000584188 2.21093e-07
0 -0.0674568 0.000584188 6.94194e-06
1.12938e-20 -0.0674668 0.00120303 1.25611e-06
0 0.0674668 0.00120303 3.68188e-08
-4.51751e-21 0.067468 0.00183619 2.56652e-08
1.35525e-20 -0.067468 0.00183619 8.52397e-07
4.51751e-21 0.0674615 0.00233618 1.02279e-07
1.35525e-20 -0.0674615 0.00233618 3.21584e-06
0 -0.0674385 0.00299825 7.57899e-06
1.35525e-20 0.0674385 0.00299825 2.7878e-07
0 0.067604 0.00301356 3.10818e-07
0 -0.067604 0.00301356 8.54406e-06
6.77626e-21 -0.0677028 1.38317e-09 1.29937e-05
-6.77626e-21 0.0677028 1.38317e-09 4.02314e-07
9.03502e-21 -0.067757 0.0002973 1.22027e-05
2.25875e-21 0.067757 0.000297296 3.77794e-07
0 -0.0677741 0.0015314 6.07038e-07
0 0.0677741 0.00153139 1.79751e-08
2.03288e-20 -0.0677979 1.35986e-09 1.31154e-05
1.35525e-20 0.0677979 1.35987e-09 4.03094e-07
0 0.0677675 0.00214378 3.65771e-08
2.71051e-20 -0.0677675 0.00214379 1.12902e-06
-4.51751e-22 -0.0677492 0.00270865 8.64453e-06
-1.807e-21 0.0677492 0.00270865 2.97069e-07
-4.51751e-21 0.0678144 0.000856994 9.14204e-08
2.25875e-21 -0.0678144 0.000856994 3.00337e-06
-6.77626e-21 -0.0678917 0.00304021 8.66622e-06
0 0.0678917 0.00304021 3.23775e-07
2.71051e-20 -0.0680566 1.32759e-09 1.31404e-05
2.71051e-20 0.0680567 1.32762e-09 3.97045e-07
-2.71051e-20 -0.0680721 0.000585702 7.41248e-06
0 0.0680721 0.000585701 2.24332e-07
0 -0.0680838 0.00131359 1.03393e-06
0 0.0680838 0.0013136 3.04551e-08
0 -0.0680354 0.00305351 8.0782e-06
0 0.0680354 0.0030535 3.10493e-07
-9.03502e-21 0.0680812 0.00185139 2.85528e-08
-4.51751e-21 -0.0680813 0.00185139 8.87475e-07
4.51751e-21 0.06807 0.00235205 1.07559e-07
4.51751e-21 -0.06807 0.00235206 3.26299e-06
1.35525e-20 0.0681573 0.00306479 3.32937e-07
6.77626e-21 -0.0681573 0.00306479 8.69802e-06
-1.35525e-20 -0.0683162 1.26055e-09 1.38106e-05
0 0.0683162 1.26058e-09 4.05554e-07
6.77626e-21 -0.0683744 0.000297322 1.3024e-05
2.25875e-21 0.0683744 0.000297325 3.81819e-07
2.25875e-21 -0.0683872 0.000907293 2.82177e-06
0 0.0683872 0.000907292 8.2082e-08
0 0.0683925 0.0015418 1.93367e-08
2.71051e-20 -0.0683925 0.0015418 6.30469e-07
-2.25875e-22 0.0683555 0.00274607 3.29945e-07
1.12938e-21 -0.0683555 0.00274607 9.22673e-06
-2.03288e-20 -0.068418 1.20773e-09 1.39586e-05
2.71051e-20 0.068418 1.20779e-09 4.06448e-07
-2.71051e-21 0.0684729 0.00225455 7.96685e-08
0 -0.0684729 0.00225456 2.37378e-06
1.35525e-20 -0.0685284 0.00309916 8.94558e-06
0 0.0685284 0.00309916 3.55876e-07
-5.42101e-20 -0.0686762 1.13927e-09 1.4068e-05
-2.71051e-20 0.0686762 1.13933e-09 4.00998e-07
-2.03288e-20 0.068621 0.00310774 3.51025e-07
-6.77626e-21 -0.068621 0.00310773 8.68369e-06
0 -0.0686918 0.000587107 7.96267e-06
-2.71051e-20 0.0686918 0.000587106 2.2728e-07
9.03502e-21 0.0687027 0.00132382 3.16152e-08
0 -0.0687027 0.00132382 1.08688e-06
2.25875e-21 0.0687031 0.0018698 3.24874e-08
2.25875e-21 -0.0687031 0.00186981 9.96135e-07
0 0.0686864 0.00249003 1.66902e-07
0 -0.0686865 0.00249003 4.79155e-06
-1.35525e-20 0.0686982 0.00311489 3.69503e-07
0 -0.0686982 0.00311489 9.17701e-06
6.77626e-21 -0.0689263 1.01559e-09 1.47479e-05
2.03288e-20 0.0689264 1.01563e-09 4.04658e-07
0 0.0689234 0.00227294 8.53802e-08
8.13152e-21 -0.0689234 0.00227295 2.59358e-06
2.25875e-21 -0.0689994 0.000297496 1.38802e-05
-2.25875e-21 0.0689994 0.00029749 3.80414e-07
4.51751e-22 0.0689611 0.00278513 3.78357e-07
0 -0.0689611 0.00278514 1.0212e-05
1.58113e-20 -0.0690126 0.000908275 3.10957e-06
-9.03502e-21 0.0690126 0.000908274 8.52384e-08
5.42101e-20 -0.0690164 0.00154915 6.55461e-07
-2.71051e-20 0.0690164 0.00154914 2.09711e-08
6.77626e-21 -0.0690595 8.83047e-10 1.4969e-05
1.35525e-20 0.0690596 8.83045e-10 4.07889e-07
0 0.0690372 0.00314628 3.69822e-07
3.38813e-21 -0.0690373 0.00314628 9.46436e-06
2.03288e-20 0.0690902 0.00315119 3.57433e-07
-6.77626e-21 -0.0690903 0.00315119 9.18897e-06
2.71051e-20 -0.0693056 7.53405e-10 1.50768e-05
0 0.0693057 7.53368e-10 4.12976e-07
-2.71051e-20 0.069319 0.00058654 2.35008e-07
2.71051e-20 -0.069319 0.000586541 8.56438e-06
9.03502e-21 0.069334 0.00187597 3.02399e-08
-2.25875e-21 -0.069334 0.00187597 1.00742e-06
0 -0.0693766 0.00126564 1.37521e-06
2.25875e-21 0.0693766 0.00126564 3.80446e-08
2.37169e-20 0.0693207 0.00317251 3.28659e-07
-3.04932e-20 -0.0693208 0.00317251 9.46961e-06
0 0.0693497 0.00298097 3.14977e-07
0 -0.0693497 0.00298097 9.2083e-06
4.51751e-21 0.0694192 0.00258965 1.5547e-07
3.76158e-37 -0.0694192 0.00258965 4.84689e-06
-2.71051e-20 -0.0695352 6.33642e-10 1.56592e-05
0 0.0695353 6.33611e-10 4.21141e-07
-2.25875e-21 -0.0696321 0.000296679 1.45868e-05
9.03502e-21 0.0696322 0.000296683 3.91957e-07
-5.92923e-21 -0.0695689 0.00319552 7.28394e-06
-1.18585e-20 0.0695689 0.00319553 2.55424e-07
1.807e-20 -0.0696425 0.000797323 4.59548e-06
4.51751e-21 0.0696425 0.00079732 1.25872e-07
-8.47033e-22 0.0695784 0.00319641 2.54179e-07
-8.47033e-22 -0.0695785 0.0031964 7.25073e-06
8.47033e-22 0.0695823 0.00318487 2.53567e-07
0 -0.0695823 0.00318484 7.24315e-06
-2.71051e-20 -0.0696472 0.00154089 6.79088e-07
-2.71051e-20 0.0696472 0.00154088 2.06542e-08
0 0.0696641 0.00219291 3.01138e-08
0 -0.0696642 0.00219292 1.17519e-06
1.35525e-20 -0.0697196 4.40725e-10 1.59084e-05
0 0.0697196 4.40662e-10 4.26688e-07
-8.47033e-22 0.0697031 0.00320796 2.47892e-07
8.47033e-22 -0.0697034 0.00320797 6.87618e-06
4.51751e-21 0.0697673 0.00292899 2.17146e-07
4.51751e-21 -0.0697674 0.00292899 6.5044e-06
0 -0.0699415 3.15614e-10 1.58444e-05
0 0.0699415 3.15558e-10 4.32131e-07
2.25875e-21 -0.0699611 0.00120451 1.60996e-06
1.88079e-37 0.0699612 0.00120451 4.23422e-08
-9.03502e-21 0.069973 0.00186218 2.44779e-08
2.25875e-21 -0.069973 0.00186218 8.97627e-07
-5.80823e-21 -0.0700188 0.000642907 7.05832e-06
5.80823e-21 0.0700188 0.000642905 1.90368e-07
8.13152e-21 0.069996 0.00254737 1.06312e-07
-9.03502e-22 -0.069996 0.00254738 3.43174e-06
-1.69407e-21 0.0699955 0.00323502 2.28343e-07
0 -0.0699955 0.00323502 5.88668e-06
0 0.0700024 0.0032254 2.28945e-07
0 -0.0700024 0.00322541 5.90287e-06
-8.47033e-21 0.0700168 0.00320158 2.24672e-07
0 -0.0700168 0.00320161 5.81903e-06
0 0.0700152 0.00323684 2.33754e-07
0 -0.0700152 0.00323685 5.93594e-06
1.69407e-21 -0.0700323 0.0032264 5.89159e-06
0 0.0700323 0.00322639 2.30798e-07
1.69407e-21 -0.0700388 0.00323903 5.86802e-06
0 0.0700388 0.00323903 2.3095e-07