# omega  POINT_DATA 26948
# x  y  z  omega
0.0101542 -1.35525e-20 1.397e-07 1386.28
-0.0101542 1.35525e-20 1.397e-07 1386.32
-0.0101542 2.71051e-20 0.000269592 1573.58
0.0101542 -1.35525e-20 0.000269592 1573.54
-0.0101542 1.35525e-20 0.000769234 1813.02
0.0101542 0 0.000769234 1813.04
0.0101542 0 0.00104357 1851.18
-0.0101542 0 0.00104357 1851.11
-0.0101542 -1.35525e-20 0.00131779 1851.01
0.0101542 1.35525e-20 0.00131779 1851.14
0.0102506 2.71051e-20 0.000298262 1551.47
-0.0102506 -1.35525e-20 0.000298263 1551.5
0.0102543 0 0.0008759 1826.99
-0.0102543 1.35525e-20 0.000875901 1826.95
-0.0101542 0 0.00181774 1550.17
0.0101542 0 0.00181774 1550.28
0.0103268 -1.35525e-20 1.10555e-07 1249.94
-0.0103268 0 1.10554e-07 1249.98
0.0102523 0 0.00124395 1859.83
-0.0102523 0 0.00124395 1859.71
0.0101542 2.71051e-20 0.002087 1261.06
-0.0101542 -2.71051e-20 0.002087 1261.02
0.0103709 -1.35525e-20 0.000111968 1264.73
-0.0103709 0 0.00011197 1264.77
0.0103677 -1.35525e-20 0.000675222 1818.03
-0.0103677 -1.35525e-20 0.000675223 1818.06
0.0102487 -1.35525e-20 0.0018202 1514.34
-0.0102487 1.35525e-20 0.0018202 1514.24
0.0103636 -2.71051e-20 0.00148272 1889.49
-0.0103636 -1.35525e-20 0.00148274 1889.3
-0.0102712 0 0.00214808 1078.51
0.0102712 -1.35525e-20 0.00214808 1078.53
0.0103515 0 0.00204725 1103.65
-0.0103515 0 0.00204725 1103.63
-0.0106317 3.01167e-21 0.000607148 1111.63
0.0106317 0 0.000607147 1112.73
0.0106102 7.90564e-21 0.00112188 1066.15
-0.0106102 0 0.00112189 1064.91
-0.0106774 0 0.000276337 1048.23
0.0106774 0 0.000276337 1048.18
0.0106161 -3.01167e-21 0.00164337 1041.19
-0.0106162 1.50584e-21 0.00164337 1040.83
-0.0107648 0 4.28332e-08 1026.57
0.0107648 1.35525e-20 4.28298e-08 1026.51
0.0105534 -1.35525e-20 0.00229536 993.026
-0.0105534 6.77626e-21 0.00229537 993.086
0.0106301 0 0.00198753 847.821
-0.0106301 0 0.00198753 847.858
-0.0108244 0 8.90662e-05 1025.84
0.0108244 0 8.90541e-05 1025.77
0.0106419 0 0.00222467 1006.69
-0.0106419 0 0.00222468 1006.75
-0.0108971 -1.35525e-20 2.09165e-08 1015.55
0.0108971 -1.35525e-20 2.09159e-08 1015.48
0.0106479 0 0.0023447 1083.63
-0.0106479 0 0.00234469 1083.71
0.0108702 2.71051e-20 0.000884384 302.825
-0.0108702 -2.71051e-20 0.000884388 298.946
0.0108765 -2.71051e-20 0.00145346 276.253
-0.0108766 0 0.00145346 275.393
-0.0107255 0 0.00238519 1156.31
0.0107255 0 0.0023852 1156.24
0.0110033 0 1.81922e-08 1008.93
-0.0110033 1.35525e-20 1.81922e-08 1009.01
-0.0107625 0 0.00231974 1152.15
0.0107625 0 0.00231973 1152.08
0.0110153 -1.35525e-20 7.96732e-05 1009.38
-0.0110153 -1.35525e-20 7.96867e-05 1009.46
-0.0110632 -2.25875e-21 0.000577067 627.79
0.0110632 0 0.000577066 627.578
0.0111416 0 0.001188 221.874
-0.0111416 -5.64689e-21 0.00118801 223.282
0.0110829 5.42101e-21 0.00186756 599.35
-0.0110829 0 0.00186756 600.295
0.0110229 2.71051e-20 0.00226217 1325
-0.0110229 0 0.00226218 1325.1
-0.0113157 2.71051e-20 0.000285031 984.909
0.0113157 0 0.000285027 984.813
0.0110601 6.77626e-21 0.00255988 1574.48
-0.0110601 -6.77626e-21 0.0025599 1574.64
0.0110969 -6.77626e-21 0.00251435 1582.02
-0.0110969 0 0.00251438 1582.17
0.011119 6.77626e-21 0.00259067 1656.51
-0.011119 0 0.00259068 1656.66
-0.0114092 0 0.000887764 176.847
0.0114092 -2.71051e-20 0.000887761 171.54
-0.0111709 -6.77626e-21 0.00261768 1724.3
0.0111709 1.35525e-20 0.00261768 1724.17
-0.0111905 0 0.00257828 1721.66
0.0111905 -6.77626e-21 0.00257827 1721.53
0.0114292 -2.71051e-20 0.00153031 125.326
-0.0114292 2.71051e-20 0.00153031 130.868
-0.0115336 -6.77626e-21 3.98228e-09 981.488
0.0115337 -6.77626e-21 3.98131e-09 981.352
0.011316 0 0.00229792 1220.47
-0.011316 -2.25875e-21 0.00229793 1220.68
-0.0115492 0 5.7524e-05 981.455
0.0115493 6.77626e-21 5.75003e-05 981.318
-0.0116095 0 2.02398e-09 981.251
0.0116096 6.77626e-21 2.02389e-09 981.105
0.0114857 0 0.0020737 313.91
-0.0114857 0 0.00207371 314.368
-0.0116746 0 1.84332e-09 981.615
0.0116747 -6.77626e-21 1.84333e-09 981.46
-0.011679 0 5.25309e-05 981.599
0.011679 -6.77626e-21 5.25072e-05 981.444
-0.0116878 -2.25875e-21 0.000581193 575.943
0.0116878 -1.12938e-21 0.000581192 572.707
0.0114475 -2.71051e-20 0.00253489 1992.22
-0.0114475 0 0.0025349 1992.42
0.0117411 -5.64689e-22 0.0012051 133.637
-0.0117411 -1.12938e-21 0.0012051 138.901
0.0115287 -6.77626e-21 0.00280414 1581.53
-0.0115287 0 0.00280416 1581.7
0.01155 0 0.0027727 1577.47
-0.01155 6.77626e-21 0.00277272 1577.65
0.0117713 5.64689e-22 0.00182837 176.746
-0.0117713 0 0.00182837 178.358
0.0115729 0 0.00282717 1491.28
-0.0115729 0 0.00282718 1491.5
-0.0116142 0 0.00284907 1399.45
0.0116142 0 0.00284907 1399.19
-0.0116388 6.77626e-21 0.00280418 1405.61
0.0116388 0 0.00280416 1405.36
0.0117404 -5.64689e-22 0.00237671 906.52
-0.0117404 0 0.00237671 906.201
-0.0119843 0 0.000286091 977.683
0.0119843 0 0.000286094 977.488
0.0120413 2.71051e-20 0.000886354 156.197
-0.0120413 -2.71051e-20 0.000886355 163.636
0.0120819 -2.71051e-20 0.00151675 80.3013
-0.0120819 -2.71051e-20 0.00151675 82.9388
0.0119435 -5.42101e-20 0.0026998 987.697
-0.0119435 2.71051e-20 0.00269981 987.918
-0.0122585 0 2.3573e-10 1020.68
0.0122586 6.77626e-21 2.35578e-10 1020.5
-0.012263 0 3.33749e-05 1020.79
0.012263 0 3.33336e-05 1020.6
0.0120908 0 0.00215656 169.965
-0.0120908 -2.71051e-20 0.00215657 167.639
-0.0122997 0 1.21629e-10 1026.99
0.0122997 0 1.21626e-10 1026.8
0.0123365 6.77626e-21 1.15206e-10 1033.84
-0.0123366 0 1.152e-10 1034.04
0.0123381 0 2.92239e-05 1033.84
-0.0123381 0 2.92618e-05 1034.04
0.0119751 -6.77626e-21 0.00303983 1131.1
-0.0119752 0 0.00303985 1131.31
-0.0123477 -1.12938e-21 0.000568688 600.233
0.0123477 2.25875e-21 0.000568689 596.4
0.0120031 -6.77626e-21 0.00299958 1133.53
-0.0120032 0 0.00299961 1133.74
0.0120142 6.77626e-21 0.00306058 1162.87
-0.0120143 0 0.00306059 1163.07
0.0120519 0 0.00308051 1190.3
-0.012052 0 0.00308052 1190.48
0.0120703 0 0.00304363 1189.27
-0.0120704 -6.77626e-21 0.00304365 1189.45
0.0123957 0 0.0011843 116.429
-0.0123957 2.25875e-21 0.0011843 121.766
0.0124154 2.82344e-22 0.00184243 102.148
-0.0124154 -8.47033e-22 0.00184244 104.629
0.0123819 4.51751e-22 0.00255904 606.614
-0.0123819 2.25875e-22 0.00255905 606.935
-0.012651 2.71051e-20 0.000272689 1076.68
0.012651 5.42101e-20 0.00027269 1076.5
0.012351 0 0.00296124 1340.18
-0.012351 0 0.00296126 1340.32
-0.0126986 2.71051e-20 0.000851203 174.261
0.0126986 0 0.000851203 166.62
0.0127386 -2.71051e-20 0.00148681 62.9236
-0.0127386 -2.71051e-20 0.00148681 66.5298
0.0124095 0 0.00326997 1564.84
-0.0124095 0 0.00327 1564.95
0.0124312 6.77626e-21 0.00323664 1568.11
-0.0124313 0 0.00323667 1568.22
0.0124457 0 0.00328913 1612.03
-0.0124457 0 0.00328915 1612.12
-0.0124807 -6.77626e-21 0.00330749 1652.25
0.0124807 6.77626e-21 0.00330748 1652.18
-0.0124951 -1.35525e-20 0.00327723 1650.66
0.0124951 0 0.00327721 1650.6
0.0127374 -2.71051e-20 0.00217209 92.1987
-0.0127374 2.71051e-20 0.0021721 98.3448
-0.0129741 1.69407e-21 5.65705e-12 1244.64
0.0129742 -1.69407e-21 5.64307e-12 1244.5
-0.0129746 0 9.30702e-06 1244.64
0.0129747 -1.69407e-21 9.23962e-06 1244.5
0.0126308 1.12938e-21 0.00298495 1189.2
-0.0126308 1.50584e-21 0.00298495 1188.57
-0.0129857 0 3.62845e-12 1251.37
0.0129857 -1.69407e-21 3.62927e-12 1251.18
0.0129964 0 7.53328e-06 1258.77
-0.0129965 0 7.58852e-06 1259.02
0.0129967 -1.69407e-21 3.57564e-12 1258.24
-0.0129967 0 3.57443e-12 1258.49
-0.0130091 -5.64689e-22 0.000523311 728.979
0.0130091 -1.12938e-21 0.000523314 728.555
0.0130262 0 0.00111842 126.62
-0.0130271 1.37643e-21 0.00111833 128.993
0.012792 2.71051e-20 0.00274343 299.38
-0.012792 -2.71051e-20 0.00274344 297.203
0.0130595 -2.11758e-22 0.00107278 169.531
-0.0130596 0 0.00107386 170.504
0.0130623 2.11758e-22 0.00111573 127.182
-0.0130622 0 0.00111377 129.37
0.0127559 2.71051e-20 0.00321815 1882.97
-0.0127559 2.71051e-20 0.00321816 1883
0.0131777 1.69407e-21 2.72892e-12 1235.03
-0.0131792 -1.69407e-21 2.72161e-12 1235.11
0.0130706 0 0.00181595 73.6205
-0.0130706 -4.23516e-22 0.00181592 80.3006
0.0128312 0 0.00349147 1476.78
-0.0128312 0 0.00349149 1476.84
0.0128495 0 0.00346311 1473.3
-0.0128495 0 0.00346313 1473.36
0.0133093 2.71051e-20 0.000237079 1429.46
-0.0133094 -2.71051e-20 0.000237071 1429.69
0.0130829 -1.41172e-22 0.00247292 155.559
-0.0130829 2.82344e-22 0.00247293 163.194
0.0128663 0 0.00350989 1401.72
-0.0128663 0 0.0035099 1401.82
-0.0129008 0 0.00352796 1322.69
0.0129009 6.77626e-21 0.00352796 1322.57
0.0133557 0 0.000759633 217.084
-0.0133557 2.71051e-20 0.000759629 210.933
-0.0129238 0 0.00348629 1329.29
0.0129238 6.77626e-21 0.00348627 1329.17
0.0130385 5.64689e-22 0.00304616 856.609
-0.0130385 -1.12938e-21 0.00304617 859.462
0.013427 2.71051e-20 0.00137599 61.3585
-0.013427 2.71051e-20 0.00137599 64.848
0.0134137 -2.71051e-20 0.00210976 55.9351
-0.0134137 -2.71051e-20 0.00210977 69.3794
0.013227 -5.42101e-20 0.00336662 932.032
-0.013227 0 0.00336663 932.169
-0.0136481 -1.97641e-21 0.000454494 780.53
0.0136481 1.12938e-21 0.000454473 790.913
0.0133902 2.71051e-20 0.00280378 154.22
-0.0133902 -2.71051e-20 0.00280378 168.548
0.013715 3.38813e-21 2.82164e-13 1202.74
-0.0137152 3.38813e-21 2.80922e-13 1202.92
0.0137158 0 2.07521e-05 1202.19
-0.013716 0 2.07043e-05 1202.37
0.0137164 3.38813e-21 0.000170439 1059.98
-0.0137166 -3.38813e-21 0.000170058 1056.08
0.0137459 -3.38813e-21 2.39908e-14 1197.17
-0.0137461 -3.38813e-21 2.33451e-14 1197.35
0.0132451 0 0.0037083 1084.7
-0.0132451 0 0.00370831 1084.87
0.0137658 -3.38813e-21 1.53056e-05 1220.97
-0.0137659 -3.38813e-21 1.52695e-05 1221.1
0.0137673 3.38813e-21 1.74077e-14 1222.41
-0.0137675 3.38813e-21 1.67734e-14 1222.54
0.0132719 0 0.00367136 1087.52
-0.0132719 0 0.00367139 1087.69
0.0132783 0 0.00372567 1112.97
-0.0132783 6.77626e-21 0.00372568 1113.14
0.0137897 0 0.000885073 266.12
-0.0137897 1.12938e-21 0.000885056 253.807
0.0138209 -3.38813e-21 1.17098e-14 1209.78
-0.0138209 0 1.1123e-14 1209.94
-0.0133097 0 0.00374319 1138.75
0.0133097 -6.77626e-21 0.00374318 1138.59
-0.0133283 -6.77626e-21 0.0037104 1137.77
0.0133283 -6.77626e-21 0.00371039 1137.61
0.0137515 -5.64689e-22 0.00171046 57.1201
-0.0137515 2.82344e-22 0.00171046 66.8309
0.013678 0 0.00246318 89.1743
-0.0136781 -1.05879e-22 0.00246319 112.986
0.013721 0 0.00246183 84.4409
-0.013721 1.93759e-20 0.00246184 109.416
-0.0137186 -1.05879e-22 0.00248646 125.064
0.0137186 0 0.00248652 100.253
0.013662 -2.25875e-21 0.00322321 583.051
-0.013662 4.51751e-22 0.00322321 604.236
-0.013613 2.71051e-20 0.00362484 1301.39
0.013613 2.71051e-20 0.00362484 1301.19
0.0141334 2.82344e-22 0.000318972 821.825
-0.0141334 -2.82344e-22 0.000318972 820.482
0.014088 0 0.00127938 70.8503
-0.014088 2.71051e-20 0.00127938 67.2461
0.0140591 2.71051e-20 0.00206597 41.7429
-0.0140591 -2.71051e-20 0.00206597 66.1529
0.0136637 0 0.00393551 1515.22
-0.0136637 3.38813e-21 0.00393552 1515.37
0.0136787 0 0.00391519 1517.37
-0.0136787 3.38813e-21 0.00391522 1517.52
-0.0142352 -1.35525e-20 2.81664e-15 949.613
0.0142352 -2.71051e-20 2.94789e-15 949.549
0.0136843 -3.38813e-21 0.00394699 1538.32
-0.0136843 -3.38813e-21 0.00394698 1538.45
-0.0137016 0 0.00395979 1555.24
0.0137016 0 0.00395981 1555.12
-0.0137143 -3.38813e-21 0.00394399 1554.91
0.0137143 0 0.00394399 1554.8
-0.0140216 0 0.00281645 130.309
0.0140216 0 0.00281645 82.7758
-0.013895 5.64689e-22 0.00367137 1152.52
0.0138951 1.12938e-21 0.00367137 1136.52
-0.0144216 -4.70574e-23 0.000792946 308.904
0.0144217 1.41172e-22 0.000792946 327.965
0.0144531 0 3.0858e-16 973.132
-0.0144531 1.35525e-20 3.05013e-16 973.331
0.0143962 -5.64689e-22 0.00165212 56.252
-0.0143962 -8.47033e-22 0.00165212 66.7864
-0.0140802 -2.71051e-20 0.00343826 326.662
0.0140802 0 0.00343825 277.811
-0.0140067 0 0.00392192 1796.8
0.0140067 0 0.00392194 1796.75
0.0143665 -2.11758e-22 0.00242468 51.249
-0.0143665 0 0.00242468 91.7553
-0.0143623 2.11758e-22 0.00267465 128.725
0.0143623 -2.11758e-22 0.00267497 81.2848
0.0140362 -1.69407e-21 0.00420871 1875.84
-0.0140362 1.69407e-21 0.00420869 1875.78
0.014043 0 0.00420186 1876.51
-0.014043 0 0.00420185 1876.45
-0.0140444 1.69407e-21 0.00421477 1882
0.0140443 -1.69407e-21 0.00421479 1882.08
-0.0140522 0 0.00422057 1884.42
0.0140522 -1.69407e-21 0.0042206 1884.51
-0.0140564 1.69407e-21 0.00421301 1884.6
0.0140564 -1.69407e-21 0.00421303 1884.68
-0.014684 -6.77626e-21 -1.73482e-17 742.344
0.014684 2.71051e-20 -1.61167e-17 741.895
0.0143544 -1.99053e-20 0.00313091 136.253
-0.0143544 0 0.0031309 196.517
-0.014361 0 0.00313026 197.276
0.014361 4.23516e-22 0.00313027 136.849
-0.0147037 -8.13152e-21 0.000271523 714.699
0.0147038 -5.42101e-21 0.000271578 714.219
-0.014356 0 0.00329991 401.802
0.014356 0 0.00330011 343.581
0.0147328 5.42101e-20 0.00124141 75.7941
-0.0147328 0 0.00124141 68.0574
-0.0146167 0 0.00238823 88.2019
0.0146174 2.11758e-22 0.00238811 46.9331
-0.0146909 -2.71051e-20 0.00203583 65.8193
0.0146909 0 0.00203583 37.121
-0.0143356 4.03349e-23 0.00382206 1088.98
0.0143356 -4.03349e-23 0.00382208 1040.82
-0.0143244 0 0.00417019 1980
0.0143244 -2.71051e-20 0.00417021 1980.2
-0.0142789 -8.47033e-22 0.00438875 2088.01
0.0142791 0 0.0043889 2088.18
-0.0146906 -2.71051e-20 0.00275577 105.581
0.0146906 -2.71051e-20 0.00275577 44.7001
0.0149563 1.41172e-22 0.00165196 53.5291
-0.0149571 -1.41172e-22 0.00165041 65.0809
-0.0146586 -2.71051e-20 0.00346816 209.387
0.0146586 0 0.00346817 124.405
-0.0144053 -8.47033e-22 0.00448256 2196.32
0.0144084 0 0.00447898 2196.31
-0.015119 -6.77626e-21 -5.58821e-17 569.741
0.0151193 -3.38813e-21 -5.55922e-17 569.014
-0.0144514 -8.47033e-22 0.00451675 2123.12
0.0144515 -1.69407e-21 0.00451675 2123.15
-0.0151609 0 3.481e-05 553.937
0.0151609 0 3.45974e-05 553.288
-0.0151663 -3.38813e-21 -1.814e-17 555.362
0.0151663 0 -1.80472e-17 554.706
-0.0145673 3.76459e-22 0.00422607 1670.14
0.0145673 -7.52918e-22 0.00422609 1623.46
0.0151841 3.38813e-21 -1.09306e-17 558.306
-0.0151841 3.38813e-21 -1.09842e-17 558.996
-0.0151655 -6.77626e-21 0.000867911 303.492
0.0151655 -5.64689e-21 0.000867908 312.221
0.0152147 0 -1.10411e-17 555.101
0.0152147 0 2.26993e-05 555.04
-0.015215 6.77626e-21 -1.1094e-17 555.786
-0.015215 0 2.28405e-05 555.725
-0.0147125 2.71051e-20 0.00402551 568.832
0.0147125 0 0.00402553 426.359
-0.0150841 -4.23516e-22 0.0023135 81.3998
0.0150841 -4.23516e-22 0.0023135 38.8856
-0.0150901 -8.89385e-21 0.00232073 81.5904
0.015084 1.27055e-21 0.00232059 38.9016
-0.0149792 4.23516e-22 0.0031214 136.263
0.0149792 -5.64689e-22 0.0031214 65.014
-0.0146794 -5.42101e-20 0.00445851 2437.63
0.0146795 0 0.00445853 2437.37
-0.0149711 0 0.00367473 285.298
0.0149711 0 0.00367494 183.616
-0.0149706 0 0.00377567 312.942
0.0149684 -2.96462e-21 0.00377781 205.6
-0.0147268 0 0.00472093 1777.74
0.0147268 6.77626e-21 0.00472096 1777.48
-0.0147397 0 0.0047038 1773.89
0.0147397 6.77626e-21 0.00470382 1773.63
-0.0147494 6.77626e-21 0.00473772 1717.68
0.0147494 0 0.00473775 1717.39
0.015025 -2.11758e-22 0.00377792 194.645
-0.0150252 1.05879e-21 0.00377791 299.512
-0.0147753 0 0.0047569 1577.62
0.0147753 6.77626e-21 0.00475694 1577.26
-0.0147957 -6.77626e-21 0.00471951 1601.51
0.0147957 0 0.00471954 1601.16
-0.0149236 2.5411e-21 0.00432832 1154.35
0.0149238 2.11758e-22 0.00432831 1095.37
-0.0149307 2.11758e-22 0.0043143 1136.12
0.0149284 -8.47033e-21 0.00431372 1075.25
-0.0153071 0 0.00276682 89.0532
0.0153071 0 0.00276682 32.8368
-0.0149538 -2.11758e-22 0.00432332 1114.28
0.0149538 -2.11758e-22 0.00432332 1053.81
-0.0152762 2.71051e-20 0.00345527 140.908
0.0152762 0 0.00345527 58.3995
-0.015665 5.42101e-20 0.00170495 58.9665
0.015665 0 0.00170495 43.8101
-0.0150897 -2.71051e-20 0.00463312 992.716
0.0150898 0 0.00463317 992.293
-0.0152566 0 0.00410558 292.148
0.0152566 0 0.00410559 179.272
0.0156482 -2.82344e-22 0.00239974 32.5588
-0.0156482 2.11758e-22 0.00239974 70.0303
-0.0150378 0 0.00495164 1037.41
0.0150379 -6.77626e-21 0.0049517 1036.86
-0.0158311 -5.42101e-20 0.000505741 314.053
0.0158311 -5.42101e-20 0.000505742 312.862
-0.0150929 0 0.00489488 1046.4
0.015093 0 0.00489493 1045.85
-0.0150892 -1.35525e-20 0.00498975 1112.65
0.0150893 0 0.00498982 1112.08
-0.015606 2.82344e-22 0.0031034 93.7378
0.015606 -2.82344e-22 0.00310341 37.6014
-0.0151438 0 0.00503029 1098.53
0.0151439 6.77626e-21 0.00503035 1097.88
-0.0151784 1.35525e-20 0.00496289 1098.48
0.0151785 1.35525e-20 0.00496294 1097.84
-0.0155884 -1.46819e-21 0.00378776 164.283
0.0155884 3.38813e-22 0.00378777 85.5738
-0.0155033 -1.35525e-21 0.00450864 619.989
0.0155033 2.25875e-22 0.00450867 566.474
-0.0154178 0 0.00490558 1171.7
0.0154179 2.71051e-20 0.00490563 1170.95
-0.0159469 0 0.00273842 60.0737
0.0159469 5.42101e-20 0.00273842 25.7781
-0.0153971 -1.35525e-20 0.00521815 1254.68
0.0153972 2.03288e-20 0.00521821 1253.97
-0.015903 0 0.0034351 85.6933
0.015903 5.42101e-20 0.00343511 33.9252
-0.0154387 -6.77626e-21 0.00517349 1262.97
0.0154387 0 0.00517354 1262.26
-0.0154377 6.77626e-21 0.00524824 1332.96
0.0154377 0 0.00524829 1332.29
0.0163344 -2.11758e-21 -1.19204e-18 306.494
-0.0163357 0 -1.18554e-18 307.622
-0.0154764 -6.77626e-21 0.00527693 1316.37
0.0154764 6.77626e-21 0.00527698 1315.71
-0.0155053 0 0.00524153 1315.87
0.0155053 1.35525e-20 0.00524158 1315.21
0.0163538 4.65868e-21 0.00112145 165.537
-0.0163541 0 0.00112151 170.384
-0.0158756 -2.71051e-20 0.0041209 150.992
0.0158756 2.71051e-20 0.00412092 77.299
0.0163767 9.95264e-21 0.00112763 162.544
-0.0163741 -1.8423e-20 0.0011274 167.701
-0.0156932 -7.52918e-22 0.00495312 997.527
0.0156933 0 0.00495315 967.651
0.0164701 4.23516e-22 3.15169e-06 276.464
-0.0164637 0 2.60344e-06 277.981
0.0163214 0 0.00227442 32.3401
-0.0163214 -1.12938e-21 0.00227442 51.9077
-0.0162376 -5.64689e-22 0.00307739 62.5157
0.0162376 1.01644e-21 0.0030774 28.311
-0.0159046 -2.71051e-20 0.00473208 340.329
0.0159046 5.42101e-20 0.00473209 247.979
-0.0157801 -2.71051e-20 0.00520579 1432.46
0.0157802 -2.71051e-20 0.00520583 1431.89
-0.0162469 1.69407e-21 0.00372972 88.8706
0.0162469 1.12938e-21 0.00372973 43.6203
-0.0157745 0 0.00549808 1508.95
0.0157746 0 0.00549812 1508.2
-0.0158014 6.77626e-21 0.00547416 1511.52
0.0158015 0 0.00547419 1510.78
-0.0158049 6.77626e-21 0.00552063 1522.8
0.015805 0 0.00552067 1522.03
-0.0158346 6.77626e-21 0.00554267 1537.1
0.0158347 0 0.00554272 1536.31
-0.0158529 0 0.00551417 1537.26
0.015853 0 0.00551421 1536.47
-0.016198 0 0.00441893 175.999
0.0161981 4.51751e-22 0.00441893 115.775
-0.0166697 0 0.00284041 41.5172
0.0166697 0 0.00284041 23.4689
-0.0161695 -2.25875e-22 0.00510698 829.587
0.0161695 4.51751e-22 0.00510701 789.958
-0.0166597 0 0.00328606 46.0461
0.0166597 2.71051e-20 0.00328607 22.6454
-0.0165248 -2.71051e-20 0.00409519 68.0143
0.0165248 -2.71051e-20 0.00409519 38.8258
-0.0161206 2.71051e-20 0.00547661 1626.5
0.0161207 0 0.00547665 1625.55
-0.0170334 0 0.00057692 242.315
0.0170334 5.42101e-20 0.00057692 240.474
-0.0168874 8.47033e-22 0.00239017 42.2078
0.0168874 1.05879e-21 0.00239018 29.5727
-0.0169716 -5.42101e-20 0.00176735 45.8593
0.0169716 -5.42101e-20 0.00176735 42.884
-0.0169179 2.11758e-22 0.00239497 41.688
0.0169179 0 0.00239497 29.4236
0.016944 0 0.00239537 29.5412
-0.016944 -2.11758e-22 0.00239537 41.8006
-0.0168719 -1.35525e-20 0.00305894 41.2711
0.0168719 0 0.00305894 22.0449
-0.0161674 -6.77626e-21 0.00578953 1816.15
0.0161674 0 0.00578955 1814.98
-0.0165034 -2.71051e-20 0.00475625 151.36
0.0165034 -2.71051e-20 0.00475627 105.138
-0.0161836 0 0.00577012 1818.4
0.0161836 6.77626e-21 0.00577014 1817.24
-0.0161897 0 0.00580603 1839.27
0.0161897 0 0.00580606 1838.1
-0.0162121 0 0.00582272 1865.47
0.0162122 0 0.00582276 1864.3
-0.0162243 0 0.00580494 1864.66
0.0162243 -6.77626e-21 0.00580498 1863.49
0.0168523 3.38813e-22 0.00374134 27.6907
-0.0168523 -5.64689e-22 0.00374134 52.8753
-0.0163971 -4.23516e-22 0.00553967 1353.4
0.0163973 -7.05861e-22 0.00553971 1330.86
-0.0170978 2.71051e-20 0.00283719 37.9164
0.0170978 -2.71051e-20 0.00283719 21.9074
-0.0170665 5.42101e-20 0.00327483 39.263
0.0170665 0 0.00327483 19.9023
-0.0165625 0 0.0053276 398.876
0.0165626 0 0.00532762 329.721
-0.0168336 -2.82344e-22 0.0044175 80.9617
0.0168336 -4.23516e-22 0.00441751 53.5105
-0.0164976 5.42101e-20 0.00578805 2068.3
0.0164976 -5.42101e-20 0.00578809 2066.92
-0.0168265 5.64689e-23 0.00506999 216.929
0.0168265 0 0.00507002 188
-0.0176289 0 1.51719e-05 239.934
0.0176289 0 1.51704e-05 238.003
-0.0176298 0 -6.83233e-23 239.934
0.0176298 -3.38813e-21 -7.13675e-23 238.004
-0.0176062 -5.64689e-22 0.00116021 144.82
0.0176062 0 0.00116021 143.155
-0.0176451 -3.38813e-21 -1.70835e-23 239.917
0.0176451 0 -1.62781e-23 237.984
-0.0171749 2.71051e-20 0.00405965 44.9553
0.0171749 2.71051e-20 0.00405966 23.154
0.0176602 -3.38813e-21 1.5458e-05 237.894
-0.0176602 0 1.54594e-05 239.83
0.0176607 -3.38813e-21 -1.84889e-23 237.893
-0.0176607 0 -1.92886e-23 239.829
-0.0165809 0 0.00609702 1751.16
0.016581 -6.77626e-21 0.00609706 1749.84
-0.0165981 6.77626e-21 0.00608064 1749.05
0.0165981 0 0.00608065 1747.73
-0.016605 0 0.00611494 1730.74
0.0166051 0 0.00611499 1729.39
-0.0166198 0 0.00612719 1762.92
0.0166199 0 0.00612726 1761.62
-0.0166291 0 0.00611136 1761.1
0.0166292 0 0.00611141 1759.79
-0.0175901 1.12938e-21 0.00236116 44.4301
0.0175901 2.25875e-21 0.00236116 32.3758
-0.0166534 0 0.00615455 1763.99
0.0166535 -6.77626e-21 0.00615465 1762.7
-0.0168283 0 0.00572854 1070.64
0.0168284 0 0.00572855 1066.83
-0.0175166 -2.82344e-22 0.00305113 41.6176
0.0175166 -2.11758e-22 0.00305113 20.5683
-0.0171428 5.42101e-20 0.0047344 59.9055
0.0171428 -2.71051e-20 0.00473441 46.9728
-0.017534 -1.12938e-21 0.00360681 44.034
0.017534 0 0.00360681 19.9404
-0.0171172 2.71051e-20 0.00539736 133.677
0.0171172 -2.71051e-20 0.00539737 148.975
0.01747 -1.12938e-22 0.00438795 27.8273
-0.01747 1.12938e-22 0.00438795 49.6223
-0.0168947 6.77626e-21 0.00636212 1539.06
0.0168947 2.03288e-20 0.00636216 1537.8
0.0170243 -2.82344e-22 0.00618637 1440.37
-0.0170257 -1.41172e-22 0.00618772 1441.25
-0.0174372 -1.41172e-21 0.00507024 75.1965
0.0174372 2.82344e-22 0.00507024 69.8893
-0.0182236 5.42101e-20 0.000583086 237.443
0.0182236 5.42101e-20 0.000583086 235.416
-0.0177925 5.42101e-20 0.00405319 45.0918
0.0177925 -2.71051e-20 0.00405319 17.5456
-0.018201 0 0.00177192 48.4716
0.018201 0 0.00177192 48.6427
-0.0173656 -1.807e-21 0.00581376 477.756
0.0173656 9.03502e-22 0.00581378 509.949
-0.0171242 0 0.00658581 1698.31
0.0171243 0 0.00658585 1697.09
-0.0177701 0 0.0047233 49.2724
0.0177701 -2.71051e-20 0.0047233 24.7358
-0.0171594 -6.77626e-21 0.0066222 1721.29
0.0171595 0 0.00662223 1720.08
-0.0171745 -6.77626e-21 0.00660974 1715.55
0.0171746 -6.77626e-21 0.00660977 1714.34
-0.0171745 6.77626e-21 0.00663768 1665.06
0.0171746 0 0.00663771 1663.82
-0.0181606 -1.0842e-19 0.00305643 47.9878
0.0181606 5.42101e-20 0.00305643 19.0541
-0.01719 -6.77626e-21 0.00665349 1718.96
0.0171901 -6.77626e-21 0.00665351 1717.72
-0.0172014 0 0.00663722 1713.05
0.0172015 0 0.00663725 1711.81
-0.017284 0 0.00651866 1431.09
0.0172841 -6.77626e-21 0.00651871 1444.35
-0.0172277 -2.71051e-20 0.00669186 1714.73
0.0172278 -2.03288e-20 0.00669187 1713.51
0.0181252 0 0.00380809 16.6984
-0.0181264 1.41172e-22 0.00381066 51.1385
-0.0177303 5.42101e-20 0.00540333 58.1888
0.0177303 0 0.00540334 58.3635
-0.0174485 6.02335e-21 0.00633776 1067.29
0.0174485 1.50584e-21 0.00633777 1105.08
-0.0181015 -5.64689e-22 0.00437909 52.9672
0.0181015 0 0.00437909 18.126
-0.0177286 0 0.00604036 72.0506
0.0177286 0 0.00604037 183.945
-0.018075 5.64689e-22 0.00504762 56.5727
0.018075 5.64689e-22 0.00504762 31.1304
-0.0174666 1.35525e-20 0.00693497 1637.39
0.0174666 -6.77626e-21 0.00693498 1636.21
-0.0188065 -3.38813e-21 1.62724e-05 236.976
0.0188065 0 1.62692e-05 235.043
-0.0188069 -3.38813e-21 2.0693e-24 236.976
0.0188069 0 2.07223e-24 235.043
0.0188233 0 -2.51176e-25 235.046
-0.0188233 3.38813e-21 -2.48312e-25 236.977
0.0188396 0 1.62245e-05 235.037
-0.0188396 0 1.62278e-05 236.965
0.0188397 0 -2.45884e-25 235.037
-0.0188397 -3.38813e-21 -2.4307e-25 236.965
-0.0188091 5.64689e-22 0.00116454 153.368
0.0188091 0 0.00116454 143.026
-0.0184387 -2.71051e-20 0.00403102 58.1965
0.0184387 0 0.00403102 14.1651
0.0176208 7.05861e-23 0.00677694 1523.33
-0.0176216 -1.41172e-22 0.00677769 1524.05
-0.0180488 5.64689e-22 0.00571123 62.3345
0.0180488 -1.12938e-21 0.00571124 83.3938
-0.018794 0 0.00239227 66.8294
0.018794 0 0.00239227 34.2836
-0.0184023 2.71051e-20 0.0046998 59.2545
0.0184023 0 0.0046998 16.238
-0.0179596 2.63521e-21 0.00643086 519.473
0.0179596 4.14105e-21 0.00643087 580.602
-0.0177051 6.77626e-21 0.00717768 1689.34
0.0177052 0 0.0071777 1687.9
-0.0177437 0 0.00721691 1687.37
0.0177437 0 0.00721692 1685.93
-0.0184015 2.71051e-20 0.00534889 59.7458
0.0184015 2.71051e-20 0.0053489 26.4475
-0.0177602 0 0.007205 1681.34
0.0177602 0 0.00720502 1679.89
-0.0177596 0 0.0072331 1630.26
0.0177596 0 0.00723311 1628.77
0.0188295 7.05861e-23 0.00373126 15.6752
-0.0177751 6.77626e-21 0.00724887 1680.02
0.0177751 0 0.00724887 1678.55
-0.0188307 4.23516e-22 0.00373001 63.7255
-0.017788 0 0.0072329 1674.69
0.017788 0 0.00723291 1673.22
-0.018738 -4.23516e-22 0.00435322 61.1892
0.018738 8.04681e-21 0.00435322 14.3193
-0.0187376 -4.23516e-22 0.00436113 61.2284
0.0187376 1.69407e-21 0.00436113 14.325
0.0178113 6.77626e-21 0.00728567 1659.39
-0.0178113 -6.77626e-21 0.00728567 1660.86
0.0178795 0 0.00711716 1411.06
-0.0178795 6.77626e-21 0.00711713 1393.25
-0.0183488 -2.71051e-20 0.00603424 59.0196
0.0183488 0 0.00603425 64.2632
-0.0180549 -1.50584e-21 0.00694833 1035.22
0.0180549 1.50584e-21 0.00694833 1084.4
0.0194128 5.42101e-20 0.000584031 234.666
-0.0194128 -5.42101e-20 0.000584031 236.501
-0.018803 5.64689e-22 0.00493677 62.3464
0.018803 2.82344e-22 0.00493677 18.2722
0.0194073 0 0.00177875 49.4125
-0.0194073 1.0842e-19 0.00177875 87.4547
-0.0183455 -2.71051e-20 0.00666212 47.5997
0.0183455 -2.71051e-20 0.00666213 190.294
-0.0186965 -5.64689e-22 0.00568331 61.5507
0.0186965 -1.69407e-21 0.00568331 33.9064
-0.0180388 6.77626e-21 0.007517 1497.97
0.0180388 0 0.007517 1496.42
0.0194176 1.0842e-19 0.0030161 19.1718
-0.0194176 -5.42101e-20 0.0030161 83.0077
-0.0182202 -4.70574e-22 0.00737491 1416.02
0.0182202 -1.8823e-22 0.00737492 1415.59
-0.0186656 1.12938e-21 0.00633956 57.9856
0.0186656 5.64689e-22 0.00633956 87.8027
-0.0190338 0 0.00534623 63.9263
0.0190338 -2.71051e-20 0.00534623 16.8641
-0.0185755 9.03502e-22 0.00702539 455.13
0.0185755 -2.48463e-21 0.0070254 516.098
0.0193824 5.42101e-20 0.00433462 11.5835
-0.0193824 -5.42101e-20 0.00433462 69.3801
0.0182812 -3.38813e-21 0.00776358 1879.48
-0.0182812 -3.38813e-21 0.00776358 1880.98
-0.0182994 0 0.00778213 1889.01
0.0182994 -3.38813e-21 0.00778213 1887.5
-0.0183082 0 0.0077765 1888.37
0.0183082 0 0.0077765 1886.86
-0.018307 3.38813e-21 0.00778984 1876.71
0.018307 -3.38813e-21 0.00778984 1875.18
-0.0183179 3.38813e-21 0.00780096 1892.55
0.0183179 0 0.00780096 1891.03
-0.0183258 0 0.00779182 1891.42
0.0183258 3.38813e-21 0.00779182 1889.9
-0.0190083 2.71051e-20 0.00599366 63.4293
0.0190083 0 0.00599366 29.4518
-0.0184198 1.69407e-21 0.00771698 1648.25
0.0184198 1.69407e-21 0.00771698 1663.23
0.019989 0 1.55553e-05 235.742
-0.019989 0 1.55539e-05 237.287
0.019989 0 -4.71581e-27 235.742
-0.019989 0 -4.67143e-27 237.287
0.0193663 -1.8823e-22 0.00500042 13.9862
-0.0193663 -9.41148e-23 0.00500042 64.7078
-0.0200048 0 3.46884e-28 237.312
0.0200048 0 3.51204e-28 235.774
-0.0200207 0 3.3811e-28 237.332
0.0200207 0 3.42345e-28 235.801
-0.0200208 0 1.54798e-05 237.332
0.0200208 0 1.54814e-05 235.801
-0.0200101 5.64689e-22 0.0011652 176.814
0.0200101 -5.64689e-22 0.0011652 143.091
0.0189752 2.71051e-20 0.00665313 67.2463
-0.0189752 0 0.00665313 61.2217
-0.0184856 -1.69407e-21 0.00797148 2115.25
0.0184856 1.69407e-21 0.00797148 2113.55
-0.0193439 5.64689e-22 0.00565424 62.5439
0.0193439 0 0.00565424 19.113
-0.0186909 4.06576e-21 0.00754644 1066.39
0.0186909 2.25875e-21 0.00754644 1119.36
-0.020018 2.82344e-22 0.00238483 101.733
0.020018 8.47033e-22 0.00238483 33.1444
-0.0186426 -2.71051e-20 0.0078697 2447.14
0.0186426 2.71051e-20 0.0078697 2445.67
-0.0193211 -1.12938e-21 0.006303 61.5362
0.0193211 5.64689e-22 0.006303 35.8844
0.0189891 8.13152e-20 0.00726764 177.125
-0.0189891 0 0.00726763 79.4017
0.020019 -9.74088e-21 0.0036605 14.127
-0.020019 -3.47284e-20 0.0036605 78.2286
0.0200253 4.23516e-22 0.0036605 14.094
-0.0200254 4.23516e-22 0.00366706 78.2138
-0.0186572 0 0.00814596 2380.32
0.0186572 3.38813e-21 0.00814596 2378.46
-0.0186658 3.38813e-21 0.00813527 2383.33
0.0186658 3.38813e-21 0.00813527 2381.48
0.0186692 0 0.0081582 2353.69
-0.0186692 0 0.0081582 2355.58
0.0196809 0 0.00530872 12.7024
-0.0196809 5.42101e-20 0.00530872 62.7255
0.0186808 3.38813e-21 0.00816999 2376.6
-0.0186808 0 0.00816999 2378.49
0.0186938 0 0.00816276 2379.54
-0.0186938 3.38813e-21 0.00816276 2381.44
-0.0188968 -1.50584e-21 0.00796769 1700.89
0.0188968 -2.25875e-21 0.00796769 1743.11
0.0193082 0 0.00694389 85.1496
-0.0193082 -5.64689e-22 0.00694389 66.132
0.0196502 2.71051e-20 0.00596319 17.7426
-0.0196502 -5.42101e-20 0.00596319 60.1721
-0.0200665 -2.11758e-22 0.00447878 67.8637
0.0200665 2.11758e-22 0.00447892 12.1627
0.0190752 2.71051e-20 0.00780496 450.899
-0.0190752 2.71051e-20 0.00780496 323.074
-0.0206063 0 0.000581334 238.121
0.0206063 -5.42101e-20 0.000581333 236.881
-0.0200903 0 0.00488562 62.6713
0.0200865 1.90582e-21 0.0048895 11.1926
0.0189865 0 0.00821425 2365.76
-0.0189864 2.71051e-20 0.00821426 2368.03
0.0206227 5.42101e-20 0.00176982 47.4918
-0.0206227 -1.0842e-19 0.00176982 142.654
0.0196565 5.42101e-20 0.00659443 30.5657
-0.0196565 0 0.00659443 61.2507
-0.0193221 -8.20563e-22 0.00755322 147.168
0.0193221 3.30872e-24 0.00755322 223.395
-0.0199866 -1.8823e-22 0.00562695 59.1912
0.0199866 1.8823e-22 0.00562695 13.9584
0.0189788 0 0.00847309 2327.05
-0.0189788 1.69407e-21 0.0084731 2329.21
0.0189845 -1.69407e-21 0.0084671 2329.05
-0.0189845 -1.69407e-21 0.00846712 2331.21
0.0189847 -1.69407e-21 0.00847911 2303.93
-0.0189847 0 0.00847912 2306.11
0.0189906 1.69407e-21 0.00848515 2326.36