# omega  POINT_DATA 25334
# x  y  z  omega
-6.77626e-21 0.057587 1.35324e-07 1425.1
6.77626e-21 -0.057587 1.35324e-07 1425.36
0 0.0575869 0.000409944 1527.16
-3.38813e-21 -0.0575869 0.000409944 1527.36
-1.69407e-21 0.0575869 0.000633503 1698.03
-1.69407e-21 -0.0575869 0.000633504 1698.21
0 0.0575868 0.00104356 2035.58
-3.38813e-21 -0.0575868 0.00104356 2035.77
5.0822e-21 0.0575868 0.00145414 1733.24
-1.69407e-21 -0.0575868 0.00145414 1733.5
0 0.0575868 0.00167624 1538.1
-1.69407e-21 -0.0575868 0.00167624 1538.42
0 0.0575868 0.002087 1293.08
0 -0.0575868 0.002087 1293.48
0 0.0577686 0.000993823 2182.57
6.77626e-21 -0.0577686 0.000993824 2182.73
6.77626e-21 0.0577684 0.00110476 2187.67
6.77626e-21 -0.0577684 0.00110476 2187.85
0 0.0577859 0.000103261 1521.41
0 -0.0577859 0.000103261 1521.65
0 0.0577942 1.15393e-07 1473.95
-6.77626e-21 -0.0577942 1.15393e-07 1474.21
0 0.0578027 1.90097e-05 1484.12
0 -0.0578027 1.90097e-05 1484.38
-6.77626e-21 -0.0578191 1.14264e-07 1497.1
0 0.0578191 1.14264e-07 1496.83
0 0.0577853 0.00199426 1419.97
0 -0.0577853 0.00199426 1420.36
0 0.0577823 0.002105 1313.87
0 -0.0577823 0.002105 1314.28
6.77626e-21 -0.057823 0.00105089 2188.76
0 0.057823 0.00105089 2179.9
0 0.0578007 0.00208013 1346.08
0 -0.0578007 0.00208013 1346.5
6.77626e-21 -0.0578427 5.77484e-05 1492.94
0 0.0578427 5.77488e-05 1486.57
0 0.0578443 1.78371e-05 1491.73
0 -0.0578443 1.78368e-05 1492
-6.77626e-21 0.0578469 1.13152e-07 1486.19
-6.77626e-21 -0.0578469 1.13152e-07 1486.45
0 -0.0578171 0.0021082 1364.33
6.77626e-21 0.0578171 0.0021082 1363.91
6.77626e-21 -0.0578434 0.00204427 1369.03
0 0.0578434 0.00204427 1362.06
-6.77626e-21 -0.0578462 0.00208444 1349.64
0 0.0578462 0.00208444 1349.21
6.77626e-21 -0.0578583 0.002112 1321.49
-6.77626e-21 0.0578583 0.002112 1321.05
3.38813e-21 -0.0579123 0.000912335 2534.23
0 0.0579123 0.000912331 2534.11
6.77626e-21 0.0579215 5.62283e-05 1438.29
0 -0.0579215 5.62253e-05 1438.54
-3.38813e-21 -0.0579146 0.00119726 2546.66
0 0.0579146 0.00119726 2546.52
6.77626e-21 -0.0579295 1.06809e-07 1467.58
-6.77626e-21 0.0579295 1.06808e-07 1467.32
6.77626e-21 -0.0579351 0.000246057 2068.17
-3.38813e-21 0.0579351 0.000246061 2068
-6.77626e-21 -0.0579259 0.00205413 1337.14
0 0.0579259 0.00205413 1336.73
3.38813e-21 -0.0579372 0.00186069 2004.59
-3.38813e-21 0.0579372 0.00186068 2004.31
0 -0.0579652 0.00212184 1365.65
-6.77626e-21 0.0579652 0.00212184 1365.23
0 -0.0580743 1.10803e-07 1298.3
6.77626e-21 0.0580744 1.10802e-07 1298.04
-2.25875e-21 0.0581721 0.000610602 3046.82
0 -0.0581721 0.000610603 3046.88
2.25875e-21 0.0581735 0.00151342 3021.47
4.51751e-21 -0.0581735 0.00151342 3021.6
-8.47033e-22 -0.0581934 0.00214283 1181.6
2.5411e-21 0.0581934 0.00214284 1181.17
-6.77626e-21 0.058277 1.16391e-07 1297.57
-1.01644e-20 -0.058277 1.16394e-07 1297.81
-1.35525e-20 0.0583193 0.000123003 1603.82
0 -0.0583193 0.000122998 1604
-5.0822e-21 0.0582823 0.00215102 1190.25
0 -0.0582823 0.00215102 1190.68
-1.35525e-20 -0.0583281 0.00201516 1595.02
-1.35525e-20 0.0583281 0.00201516 1594.67
-2.71051e-20 -0.0583808 0.00028652 1956.28
0 0.0583808 0.000286525 1931.81
0 -0.058383 0.00106967 3096.57
1.35525e-20 0.058383 0.00106967 3045.57
0 -0.0583862 0.00185752 1907.04
-1.35525e-20 0.0583862 0.00185751 1872.65
-1.35525e-20 0.0584351 1.20751e-07 1715.64
0 -0.0584351 1.20753e-07 1715.86
1.35525e-20 -0.0584724 0.00216851 1695.25
1.35525e-20 0.0584724 0.00216852 1694.86
2.63521e-21 0.0585878 0.000684244 4238.18
3.76459e-22 -0.0585878 0.000684244 4246.54
0 0.0586022 0.000178782 1535.34
0 -0.0586022 0.000178773 1535.48
5.64689e-22 0.0585913 0.00147246 4174.35
-1.12938e-21 -0.0585913 0.00147246 4184.91
3.38813e-21 0.0586253 8.46437e-05 1319.79
0 -0.0586254 8.46169e-05 1319.91
2.37169e-20 0.0586311 9.46985e-08 1297.8
-3.38813e-21 -0.0586312 9.47002e-08 1297.94
0 -0.058614 0.00198099 1546.89
3.38813e-21 0.058614 0.00198098 1546.58
6.77626e-21 -0.0586389 0.00205688 1348.02
3.38813e-21 0.0586389 0.00205686 1347.72
6.77626e-21 -0.0586526 0.0021851 1323.69
-2.03288e-20 0.0586526 0.00218511 1323.35
1.35525e-20 0.0587867 7.40281e-08 1723.48
0 -0.0587868 7.40288e-08 1723.71
1.35525e-20 0.0587871 0.00108477 2674.99
-1.35525e-20 -0.0587871 0.00108477 2694.63
0 0.0588138 0.000419265 2053.5
-1.35525e-20 -0.0588138 0.00041926 2056.31
-1.35525e-20 0.0587904 0.00219778 1679.49
0 -0.0587904 0.00219778 1679.88
0 0.0588211 0.00175677 1927.39
-1.35525e-20 -0.0588211 0.00175678 1940.73
-2.25875e-21 0.0589944 0.000754327 2419.08
0 -0.0589944 0.000754324 2423.5
0 0.0589983 0.00142976 2372.49
-6.77626e-21 -0.0589983 0.00142976 2379.92
-6.77626e-21 0.0590078 0.0022178 1034.14
0 -0.0590078 0.0022178 1034.52
6.77626e-21 0.0590549 8.35179e-08 1111.38
-1.01644e-20 -0.0590549 8.35183e-08 1111.6
0 0.0590696 0.000188906 1358.7
-6.77626e-21 -0.0590696 0.000188907 1358.9
-3.38813e-20 0.0590838 8.57393e-08 1062.53
-2.03288e-20 -0.0590838 8.57399e-08 1062.75
-6.77626e-21 0.05908 0.00199662 1270.8
0 -0.05908 0.00199663 1271.15
6.77626e-21 0.059078 0.00212655 984.648
6.77626e-21 -0.059078 0.00212657 985.011
0 -0.0591581 0.00223163 1057.38
-6.77626e-21 0.0591581 0.00223164 1057
0 0.0593378 9.41278e-08 1370.68
2.71051e-20 -0.0593378 9.41278e-08 1371.01
4.51751e-21 -0.0593529 0.000581997 1849.11
-4.51751e-21 0.0593529 0.000581997 1850.08
-2.25875e-21 -0.0593596 0.00110181 1920.48
4.51751e-21 0.0593596 0.00110181 1919.29
-4.51751e-21 -0.0593591 0.00162171 1791.02
-2.25875e-21 0.0593591 0.00162171 1788.01
-1.35525e-20 0.059356 0.00224986 1350.99
1.35525e-20 -0.059356 0.00224986 1351.42
0 0.0594897 0.00226217 1085.78
1.35525e-20 -0.0594898 0.00226217 1086.2
-1.01644e-20 0.0596053 7.49137e-08 1062.22
1.35525e-20 -0.0596053 7.49137e-08 1062.52
6.77626e-21 -0.0596378 6.72747e-05 1067.92
3.38813e-21 0.0596378 6.72778e-05 1067.64
0 -0.0596391 0.000281382 1303.38
0 0.0596391 0.000281381 1303.13
1.35525e-20 0.0596522 0.000750578 1582.43
1.35525e-20 -0.0596522 0.000750579 1580.82
2.03288e-20 -0.0596652 7.43486e-08 1062.47
-3.38813e-21 0.0596653 7.43486e-08 1062.16
0 -0.0596556 0.00146978 1612.99
1.35525e-20 0.0596556 0.00146978 1608.34
0 -0.0596502 0.00197793 1059.23
-1.12938e-21 0.0596502 0.00197793 1058.84
-6.77626e-21 -0.0598456 0.00229492 1062.56
0 0.0598456 0.00229493 1062.09
0 -0.0599214 5.86731e-08 1213.52
2.71051e-20 0.0599214 5.86731e-08 1213.09
0 -0.0599318 0.00059675 1327.39
-4.51751e-21 0.0599318 0.000596749 1328.89
-2.25875e-21 -0.0599376 0.0016364 1201.12
-1.12938e-21 0.0599376 0.0016364 1198.5
3.38813e-22 0.0599523 0.00111694 1234.21
6.77626e-22 -0.0599523 0.00111694 1234.6
0 -0.0599299 0.00230268 1158.3
6.77626e-21 0.0599299 0.00230269 1157.8
6.77626e-21 0.0599889 0.00230811 1061.68
0 -0.0599889 0.00230811 1062.16
-1.35525e-20 0.0601336 6.5621e-08 1024.7
-1.35525e-20 -0.0601336 6.56212e-08 1025.1
5.64689e-21 -0.0602132 0.00025242 1086.61
1.12938e-21 0.0602132 0.000252421 1086.27
0 -0.0602294 0.000784336 1058.74
4.06576e-20 0.0602294 0.000784336 1062.83
2.71051e-20 0.0602309 0.00146544 1082.72
0 -0.0602309 0.00146544 1084.59
-1.35525e-20 -0.0602724 6.43012e-08 1018.07
1.35525e-20 0.0602724 6.4301e-08 1017.65
8.47033e-22 0.0602423 0.00197228 848.482
1.41172e-22 -0.0602423 0.00197228 849.069
-5.42101e-20 -0.060476 6.96062e-08 1107.6
2.71051e-20 0.060476 6.96059e-08 1107.08
-3.76459e-22 0.0604796 0.000600016 1021.29
0 -0.0604796 0.000600017 1022.25
-5.0822e-21 -0.0604892 0.00235417 1047.45
0 0.0604957 0.00235477 1046.86
-4.23516e-22 0.0605072 0.00234081 1036.57
0 -0.0605072 0.00234076 1037.12
-2.25875e-21 -0.0605575 0.00113185 861.049
3.38813e-21 0.0605575 0.00113185 856.371
0 -0.0605507 0.0016269 886.191
-2.25875e-21 0.0605507 0.0016269 881.209
4.23516e-22 0.0605417 0.002359 1046.1
-4.23516e-21 -0.0605419 0.00235902 1046.69
0 0.0606726 5.84245e-08 979.365
0 -0.0606726 5.84247e-08 979.846
2.82344e-22 0.0608243 0.000288714 965.857
-8.47033e-22 -0.0608243 0.000288713 966.489
-1.12938e-21 -0.0608389 0.00196308 751.358
0 0.0608389 0.00196307 749.15
1.35525e-20 -0.0608907 5.77036e-08 984.984
1.35525e-20 0.0608907 5.77035e-08 984.479
0 0.061022 0.000858086 700.335
-9.03502e-21 -0.061022 0.000858088 739.41
-4.51751e-21 -0.0610196 0.00143519 734.883
9.03502e-21 0.0610196 0.00143519 692.188
0 -0.0610807 4.8073e-08 1182.92
2.71051e-20 0.0610807 4.80731e-08 1182.35
0 0.0610586 0.00240653 1058.03
3.38813e-21 -0.0610587 0.00240653 1058.66
-6.77626e-21 0.0610729 0.00238498 1048.23
0 -0.0610729 0.00238499 1048.86
0 -0.0610955 0.00240991 1062.89
-3.38813e-21 0.0610955 0.00240992 1062.27
-1.01644e-20 -0.0610995 0.00235724 996.462
3.38813e-21 0.0610995 0.00235723 995.335
0 -0.0611235 0.00238842 1045.7
3.38813e-21 0.0611235 0.00238841 1045.06
-3.38813e-21 -0.0611365 0.0024137 1054.29
-3.38813e-21 0.0611365 0.00241371 1053.65
-2.71051e-20 0.0612633 0.00060671 1033.07
-2.71051e-20 -0.0612633 0.00060671 1084.42
0 -0.0612584 0.00172072 1074.09
2.71051e-20 0.0612584 0.00172072 1020.58
0 0.0612896 0.00114624 877.91
0 -0.0612897 0.00114624 958.298
1.35525e-20 0.0613382 3.75142e-08 1064.3
0 -0.0613382 3.75134e-08 1064.82
2.35287e-22 -0.0614691 0.000272863 1080.47
1.8823e-22 0.0614691 0.000272864 1079.78
-6.77626e-21 -0.0614658 0.00200456 779.492
0 0.0614659 0.00200455 775.85
1.35525e-20 -0.0615061 3.67847e-08 1065.49
0 0.0615061 3.67853e-08 1064.95
6.77626e-21 0.0615545 0.000876367 526.084
0 -0.0615545 0.000876369 571.66
-2.25875e-21 -0.0615509 0.0014501 560.105
-2.25875e-21 0.0615509 0.00145009 519.144
0 0.061707 0.00246619 988.409
0 -0.061707 0.00246619 989.155
0 0.0617173 0.00245304 981.333
-3.38813e-21 -0.0617173 0.00245304 982.086
0 -0.0617319 0.0024685 988.278
0 0.0617319 0.00246851 987.527
0 -0.0617337 0.00243689 951.451
1.35525e-20 0.0617337 0.00243687 950.35
0 -0.0617481 0.00245432 976.309
0 0.0617481 0.00245432 975.542
0 -0.0617556 0.00247067 980.173
0 0.0617556 0.00247068 979.404
-2.71051e-20 -0.0618119 0.000576129 782.363
2.71051e-20 0.0618119 0.000576127 762.455
-2.71051e-20 0.0618207 1.81822e-08 1063
0 -0.0618207 1.81785e-08 1063.56
-2.71051e-20 0.0618057 0.00179067 772.065
0 -0.0618057 0.00179067 791.912
1.54886e-20 -0.0618911 0.00110231 489.103
-7.7443e-21 0.0618911 0.0011023 451.294
8.13152e-21 -0.0620668 0.000803568 437.773
-2.1684e-20 0.0620668 0.000803563 420.236
-9.03502e-21 -0.0620551 0.00147845 425.431
-4.51751e-21 0.0620551 0.00147845 400.309
-1.01644e-20 -0.062113 1.60866e-08 984.564
-2.71051e-20 0.062113 1.60885e-08 983.951
1.12938e-21 -0.0620964 0.00208092 725.343
-7.90564e-21 0.0620964 0.00208092 723.479
4.51751e-21 -0.0621537 0.000297909 949.912
-7.90564e-21 0.0621538 0.000297901 947.884
0 -0.0621775 1.5659e-08 973.707
-3.38813e-21 0.0621776 1.56603e-08 973.084
0 -0.0621833 0.00251002 1047.58
0 0.0621834 0.00251003 1046.75
0 -0.0621909 0.00249518 1046.12
0 0.062191 0.00249518 1045.28
1.35525e-20 -0.0622064 0.0024796 1021.55
0 0.0622065 0.00247958 1020.01
3.38813e-21 -0.062211 0.00251256 1072.69
0 0.0622111 0.00251257 1071.88
3.38813e-21 -0.0622439 0.00247191 1086.47
1.69407e-21 0.062244 0.00247188 1085.67
2.71051e-20 -0.062464 1.36278e-08 993.606
2.71051e-20 0.0624641 1.36269e-08 992.899
-9.03502e-21 -0.0624707 0.000665047 518.544
1.807e-20 0.0624707 0.000665044 510.973
1.12938e-21 -0.062477 0.00119048 297.495
-1.12938e-21 0.062477 0.00119047 286.77
-1.69407e-20 -0.062456 0.00253512 1335.48
3.38813e-21 0.0624561 0.00253513 1334.66
0 -0.0624641 0.00247935 1316.35
3.38813e-21 0.0624642 0.00247932 1315.52
9.03502e-21 -0.0625428 0.00182288 704.276
-6.77626e-21 0.0625428 0.00182287 681.304
9.03502e-21 -0.0625479 0.00223393 1252.14
0 0.0625479 0.00223393 1248.97
6.77626e-21 0.0626457 0.0024718 1665.56
-1.35525e-20 -0.0626457 0.00247184 1666.37
1.35525e-20 -0.0627252 1.30353e-08 990.557
-2.71051e-20 0.0627253 1.30348e-08 989.779
0 0.0626789 0.00255557 1782.94
0 -0.0626789 0.00255558 1783.67
0 -0.0627232 0.00247243 1726.21
0 0.0627232 0.0024724 1718
-1.12938e-21 -0.0627775 0.000301909 928.882
1.12938e-21 0.0627776 0.000301908 927.76
0 -0.062729 0.00253281 1910.57
0 0.062729 0.0025328 1909.92
6.77626e-21 -0.0627358 0.00256092 1957.81
-6.77626e-21 0.0627358 0.00256092 1957.2
1.35525e-20 -0.0627919 0.000886728 274.157
1.35525e-20 0.0627919 0.000886726 267.535
1.35525e-20 -0.0628163 1.26849e-08 991.746
1.35525e-20 0.0628164 1.26845e-08 990.947
2.71051e-20 -0.0628008 0.00150647 245.56
-2.71051e-20 0.0628008 0.00150646 236.205
-1.35525e-20 0.0628111 0.00226844 1516.33
-1.35525e-20 -0.0628111 0.00226845 1533.55
0 -0.0628645 0.00225958 1577.61
0 0.0628645 0.00225958 1556.33
0 -0.0630768 1.21047e-08 1002.99
0 0.0630768 1.21046e-08 1002.15
4.51751e-21 -0.0630912 0.000666723 495.843
0 0.0630912 0.000666722 488.809
-6.77626e-21 0.0630461 0.00258946 2112.51
0 -0.0630461 0.00258946 2113.04
-3.38813e-21 -0.0630991 0.00119272 245.641
-1.12938e-21 0.0630991 0.00119271 236.182
-6.77626e-21 0.0630752 0.00254727 2055.5
6.77626e-21 -0.0630752 0.00254728 2056.05
6.77626e-21 -0.0631146 0.00184446 571.693
6.77626e-21 0.0631146 0.00184446 546.09
6.77626e-21 -0.0631295 0.0022085 1338
-1.35525e-20 0.0631295 0.0022085 1319.96
0 0.0631287 0.00259721 1889.77
0 -0.0631287 0.0025972 1890.38
6.77626e-21 0.0631356 0.00244813 1708.92
0 -0.0631356 0.00244815 1719.51
-6.77626e-21 -0.0632026 0.00255045 1962.03
6.77626e-21 0.0632026 0.00255045 1961.49
0 -0.0632312 0.00260676 1985.26
0 0.0632313 0.00260677 1984.73
6.77626e-21 -0.063349 1.19264e-08 991.146
0 0.063349 1.19263e-08 990.239
1.12938e-21 -0.0633802 0.000299367 936.306
-2.25875e-21 0.0633802 0.000299369 935.098
-1.01644e-20 -0.0634014 1.18938e-08 990.201
1.01644e-20 0.0634014 1.18937e-08 989.288
2.71051e-20 -0.0633962 0.000886439 242.013
0 0.0633962 0.000886437 232.883
-2.71051e-20 0.0634042 0.00150049 196.996
0 -0.0634042 0.00150049 210.796
-6.77626e-21 0.0634114 0.0022746 1336.24
6.77626e-21 -0.0634114 0.00227461 1344.87
-1.35525e-20 0.0635494 0.00263612 1887.67
1.35525e-20 -0.0635494 0.00263612 1888.2
-1.54886e-20 -0.0636291 0.000643941 489.573
-1.54886e-20 0.0636291 0.00064394 481.574
0 0.0635904 0.00256273 1829.15
0 -0.0635904 0.00256275 1829.71
-5.42101e-20 0.0636736 1.17146e-08 1001.07
2.71051e-20 -0.0636736 1.17147e-08 1001.96
5.64689e-21 -0.0637074 0.00119101 213.13
-6.77626e-21 0.0637074 0.00119101 201.883
-6.77626e-21 0.0637064 0.00183893 447.902
-9.03502e-21 -0.0637064 0.00183893 461.075
-1.12938e-21 0.0636972 0.00228499 1238.1
-2.25875e-21 -0.0636972 0.002285 1244.84
1.35525e-20 -0.0636864 0.00264892 1631.27
0 0.0636864 0.00264892 1630.6
0 0.0638057 0.00256956 1765.48
0 -0.0638057 0.00256957 1766.14
0 -0.0638578 0.00266484 1810.91
0 0.0638578 0.00266484 1810.23
-7.41154e-21 -0.0639767 1.11249e-08 985.32
1.48231e-21 0.0639761 1.11262e-08 984.389
2.25875e-21 -0.063985 0.000294159 950.861
1.12938e-21 0.063985 0.000294155 949.593
9.03502e-21 0.0639986 0.000797712 330.337
1.35525e-20 -0.0639986 0.000797713 341.483
0 0.0639965 0.00216957 781.08
-1.35525e-20 -0.0639965 0.00216958 786.749
-1.35525e-20 0.0639892 0.00242307 1634.57
0 -0.0639893 0.00242307 1635.25
-5.42101e-21 0.0640905 0.00161525 265.966
2.71051e-21 -0.0640905 0.00161526 277.549
-6.77626e-21 0.0640768 0.00268508 1783.87
2.03288e-20 -0.0640768 0.00268508 1784.59
2.71051e-20 0.0641377 0.00258144 1714.92
1.35525e-20 -0.0641377 0.00258144 1715.65
0 0.0642237 0.00119408 181.445
0 -0.0642237 0.00119408 194.75
0 0.0642452 0.0019095 443.508
0 -0.0642452 0.0019095 450.328
-2.71051e-20 -0.0642765 1.05721e-08 991.477
0 0.0642765 1.05715e-08 990.523
0 -0.0643071 0.000580349 603.252
0 0.0643071 0.000580347 596.276
1.35525e-20 0.0642697 0.00270301 1482.39
0 -0.0642697 0.00270301 1483.18
0 0.0642913 0.00231124 1140.74
0 -0.0642914 0.00231125 1142.33
-2.03288e-20 0.0645077 0.00272507 1728.03
-6.77626e-21 -0.0645077 0.00272507 1728.84
3.38813e-21 -0.0645717 1.00934e-08 984.175
-3.04932e-20 0.0645718 1.00931e-08 983.112
1.69407e-21 -0.0645942 0.000105281 984.024
1.69407e-21 0.0645943 0.000105376 982.968
1.12938e-21 -0.0646037 0.000289984 963.439
1.12938e-21 0.0646037 0.000289985 962.003
3.04932e-20 -0.0646061 1.00753e-08 984.142
3.38813e-21 0.0646062 1.0075e-08 983.074
-1.35525e-20 0.0645786 0.00255814 1628.86
0 -0.0645786 0.00255814 1629.65
-9.03502e-21 -0.0646301 0.000897019 256.509
4.51751e-21 0.0646302 0.000897011 241.172
4.51751e-21 0.0646074 0.00205749 494.709
4.51751e-21 -0.0646074 0.00205749 494.735
4.51751e-21 -0.0646289 0.0015261 222.52
0 0.0646289 0.0015261 210.868
2.03288e-20 0.0646274 0.00273615 1719.34
-6.77626e-21 -0.0646274 0.00273615 1720.18
2.71051e-20 -0.0649009 9.6032e-09 997.674
0 0.064901 9.60317e-09 996.635
0 0.0648749 0.00275909 1373.22
-1.35525e-20 -0.0648749 0.0027591 1374.1
0 -0.0649356 0.000580175 600.587
0 0.0649357 0.000580173 590.669
2.71051e-20 -0.0649299 0.0018847 425.747
0 0.0649299 0.0018847 417.288
0 -0.0649158 0.00234727 1081.57
-5.64689e-22 0.0649158 0.00234727 1077.94
0 0.064955 0.00120196 172.808
-2.71051e-20 -0.064955 0.00120197 189.929
-1.69407e-21 -0.0652158 7.83139e-09 981.772
-5.0822e-21 0.0652158 7.83129e-09 980.647
1.69407e-21 -0.0652252 4.89709e-05 981.669
-8.47033e-22 0.0652252 4.89567e-05 980.548
-1.69407e-21 -0.0652301 7.82307e-09 981.598
1.69407e-21 0.0652302 7.82298e-09 980.47
3.38813e-21 -0.0652381 0.000289556 959.895
-1.12938e-21 0.0652381 0.000289555 958.187
-4.51751e-21 -0.0652635 0.000898339 244.316
0 0.0652635 0.000898337 227.254
-1.86347e-20 0.0652148 0.00279069 1697.44
1.69407e-21 -0.0652149 0.00279069 1698.4
2.25875e-21 0.0652598 0.00154151 190.602
4.51751e-21 -0.0652598 0.00154152 206.753
-9.03502e-21 0.0652522 0.00209406 458.501
-1.35525e-20 -0.0652523 0.00209406 476.655
6.77626e-21 0.065246 0.00279361 1711
1.18585e-20 -0.0652461 0.00279361 1711.96
2.25875e-21 0.0652919 0.00257206 1587.94
-6.77626e-21 -0.065292 0.00257206 1590.85
-2.71051e-20 -0.0655524 5.83779e-09 988.793
2.71051e-20 0.0655524 5.83758e-09 987.638
0 -0.0655704 0.000580902 589.681
-2.71051e-20 0.0655704 0.0005809 579.693
2.71051e-20 0.0655565 0.00189852 396.819
2.71051e-20 -0.0655566 0.00189852 415.106
0 0.0655812 0.0012083 155.216
0 -0.0655812 0.0012083 172.254
-5.42101e-20 0.0655608 0.00282284 1578.98
0 -0.0655609 0.00282284 1579.89
9.03502e-21 0.0656258 0.00230133 903.03
0 -0.0656259 0.00230134 915.975
-9.03502e-21 0.0657943 0.00153807 180.004
-9.03502e-21 -0.0657943 0.00153807 194.83
6.77626e-21 -0.0658501 4.27433e-09 965.828
-3.38813e-21 0.0658501 4.27416e-09 964.529
-8.13152e-21 0.0658197 0.00206877 345.032
8.13152e-21 -0.0658197 0.00206877 360.89
0 -0.0658851 0.000294095 926.634
-1.12938e-21 0.0658851 0.000294098 924.501
-6.77626e-21 0.0659037 3.7412e-09 962.411
-3.38813e-21 -0.0659037 3.74133e-09 963.724
-6.77626e-21 -0.0658977 0.000900946 241.604
0 0.0658977 0.000900939 227.995
-1.69407e-21 0.0658682 0.00285172 1507.74
-1.69407e-21 -0.0658683 0.00285172 1508.61
0 0.0658848 0.00282476 1510.17
1.69407e-21 -0.0658848 0.00282481 1511.03
-5.0822e-21 0.0659027 0.00285494 1510.91
0 -0.0659027 0.00285493 1511.77
-1.12938e-21 0.0659302 0.00259593 1515.97
2.25875e-21 -0.0659302 0.00259593 1520.05
2.71051e-20 0.0662017 2.04737e-09 968.314
-2.71051e-20 -0.0662017 2.04747e-09 969.623
-2.71051e-20 -0.0662096 0.000583235 576.604
0 0.0662096 0.000583235 568.548
2.25875e-21 0.0662259 0.00182351 198.48
4.51751e-21 -0.0662259 0.00182351 217.263
4.51751e-21 -0.0662614 0.00125281 148.054
0 0.0662614 0.00125281 134.94
-9.03502e-21 0.0662442 0.00230923 901.021
0 -0.0662442 0.00230924 911.859
0 0.0662393 0.00288655 1705.75
-2.71051e-20 -0.0662393 0.00288655 1706.55
-1.35525e-20 -0.0664688 1.83914e-09 954.663
-2.03288e-20 0.0664688 1.83905e-09 953.273
4.51751e-21 -0.0665215 0.000297069 904.203
-3.38813e-21 0.0665216 0.000297066 901.895
0 -0.0665293 0.00080361 308.555
-9.03502e-21 0.0665293 0.000803608 296.819
0 0.0664898 0.00290996 1204.69
0 -0.0664899 0.00290996 1205.63
0 0.0665401 0.00152056 106.865
-2.71051e-20 -0.0665401 0.00152056 119.203
-6.77626e-21 -0.0665636 1.726e-09 954.761
-2.03288e-20 0.0665637 1.72594e-09 953.352
0 0.0665512 0.00211001 252.704
0 -0.0665512 0.00211001 264.085
1.12938e-21 0.0665487 0.00261746 1229.18
-6.77626e-21 -0.0665487 0.00261746 1232.14
3.38813e-21 0.0665442 0.00282584 1139.16
-3.38813e-21 -0.0665442 0.00282586 1140.13
0 0.0666005 0.00292022 1166.72
0 -0.0666005 0.00292022 1167.67
0 -0.0668291 1.51559e-09 968.402
-2.71051e-20 0.0668291 1.51554e-09 966.982
0 -0.0668394 0.000583644 573.366
2.71051e-20 0.0668395 0.000583645 565.299
4.51751e-21 -0.0668468 0.0011998 145.873
6.77626e-21 0.0668469 0.0011998 132.864
0 0.0668543 0.00182538 173.018
0 -0.0668543 0.00182538 182.56
0 0.0668556 0.00232228 744.354
1.35525e-20 -0.0668556 0.00232228 748.086
-2.71051e-20 0.0668433 0.00294289 1403.95
0 -0.0668434 0.0029429 1404.79
-3.38813e-20 -0.0670865 1.47842e-09 954.35
2.71051e-20 0.0670865 1.47839e-09 952.838
0 0.0670506 0.00296221 1096.21
0 -0.0670506 0.00296222 1097.16
1.12938e-20 -0.0671423 0.000297563 900.739
0 0.0671423 0.000297564 898.264
4.51751e-21 -0.0671508 0.000801878 309.891
4.51751e-21 0.0671508 0.000801881 297.481
0 0.0671599 0.00152405 97.7203
2.71051e-20 -0.0671599 0.00152405 108.274
-3.38813e-20 -0.0671866 1.45256e-09 953.539
-2.71051e-20 0.0671867 1.45253e-09 952.014
0 -0.0671598 0.00212379 228.413
-2.71051e-20 0.0671598 0.00212379 225.997
-6.77626e-21 0.0671483 0.00265339 1066.88
-1.12938e-21 -0.0671483 0.00265339 1068.22
-6.77626e-21 0.0671464 0.00281379 1015.76
-1.35525e-20 -0.0671464 0.00281382 1016.77
-6.77626e-21 -0.0672459 0.00298031 1068.58
-6.77626e-21 0.0672459 0.00298031 1067.6
0 0.0674436 1.4156e-09 963.786
5.42101e-20 -0.0674436 1.41562e-09 965.29
-2.71051e-20 0.0674568 0.000584188 561.908
0 -0.0674568 0.000584188 570.281
1.12938e-20 -0.0674668 0.00120303 139.94
0 0.0674668 0.00120303 127.41
-4.51751e-21 0.067468 0.00183619 157.495
1.35525e-20 -0.067468 0.00183619 163.423
4.51751e-21 0.0674615 0.00233618 645.792
1.35525e-20 -0.0674615 0.00233618 647.692
0 -0.0674385 0.00299825 1254.7
1.35525e-20 0.0674385 0.00299825 1253.79
0 0.067604 0.00301356 1041.52
0 -0.067604 0.00301356 1042.55
6.77626e-21 -0.0677028 1.38317e-09 950.999
-6.77626e-21 0.0677028 1.38317e-09 949.42
9.03502e-21 -0.067757 0.0002973 900.552
2.25875e-21 0.067757 0.000297296 898.049
0 -0.0677741 0.0015314 99.927
0 0.0677741 0.00153139 91.0584
2.03288e-20 -0.0677979 1.35986e-09 950.051
1.35525e-20 0.0677979 1.35987e-09 948.456
0 0.0677675 0.00214378 206.863
2.71051e-20 -0.0677675 0.00214379 208.228
-4.51751e-22 -0.0677492 0.00270865 967.546
-1.807e-21 0.0677492 0.00270865 966.488
-4.51751e-21 0.0678144 0.000856994 246.069
2.25875e-21 -0.0678144 0.000856994 259.205
-6.77626e-21 -0.0678917 0.00304021 1017.04
0 0.0678917 0.00304021 1015.98
2.71051e-20 -0.0680566 1.32759e-09 960.609
2.71051e-20 0.0680567 1.32762e-09 958.987
-2.71051e-20 -0.0680721 0.000585702 566.503
0 0.0680721 0.000585701 558.204
0 -0.0680838 0.00131359 119.608
0 0.0680838 0.0013136 109.348
0 -0.0680354 0.00305351 1147.56
0 0.0680354 0.0030535 1146.57
-9.03502e-21 0.0680812 0.00185139 145.917
-4.51751e-21 -0.0680813 0.00185139 149.949
4.51751e-21 0.06807 0.00235205 567.879
4.51751e-21 -0.06807 0.00235206 569.004
1.35525e-20 0.0681573 0.00306479 1000.76
6.77626e-21 -0.0681573 0.00306479 1001.82
-1.35525e-20 -0.0683162 1.26055e-09 946.129
0 0.0683162 1.26058e-09 944.403
6.77626e-21 -0.0683744 0.000297322 897.092
2.25875e-21 0.0683744 0.000297325 894.467
2.25875e-21 -0.0683872 0.000907293 230.634
0 0.0683872 0.000907292 217.928
0 0.0683925 0.0015418 86.241
2.71051e-20 -0.0683925 0.0015418 93.669
-2.25875e-22 0.0683555 0.00274607 889.511
1.12938e-21 -0.0683555 0.00274607 890.669
-2.03288e-20 -0.068418 1.20773e-09 945.632
2.71051e-20 0.068418 1.20779e-09 943.89
-2.71051e-21 0.0684729 0.00225455 360.575
0 -0.0684729 0.00225456 361.183
1.35525e-20 -0.0685284 0.00309916 966.241
0 0.0685284 0.00309916 965.131
-5.42101e-20 -0.0686762 1.13927e-09 957.925
-2.71051e-20 0.0686762 1.13933e-09 956.198
-2.03288e-20 0.068621 0.00310774 1042.13
-6.77626e-21 -0.068621 0.00310773 1043.24
0 -0.0686918 0.000587107 564.227
-2.71051e-20 0.0686918 0.000587106 555.812
9.03502e-21 0.0687027 0.00132382 105.155
0 -0.0687027 0.00132382 115.306
2.25875e-21 0.0687031 0.0018698 138.174
2.25875e-21 -0.0687031 0.00186981 144.795
0 0.0686864 0.00249003 704.216
0 -0.0686865 0.00249003 709.946
-1.35525e-20 0.0686982 0.00311489 949.474
0 -0.0686982 0.00311489 950.634
6.77626e-21 -0.0689263 1.01559e-09 945.052
2.03288e-20 0.0689264 1.01563e-09 943.276
0 0.0689234 0.00227294 354.429
8.13152e-21 -0.0689234 0.00227295 362.013
2.25875e-21 -0.0689994 0.000297496 890.236
-2.25875e-21 0.0689994 0.00029749 887.46
4.51751e-22 0.0689611 0.00278513 817.052
0 -0.0689611 0.00278514 818.6
1.58113e-20 -0.0690126 0.000908275 232.416
-9.03502e-21 0.0690126 0.000908274 219.242
5.42101e-20 -0.0690164 0.00154915 90.2052
-2.71051e-20 0.0690164 0.00154914 81.946
6.77626e-21 -0.0690595 8.83047e-10 945.121
1.35525e-20 0.0690596 8.83045e-10 943.313
0 0.0690372 0.00314628 1066.19
3.38813e-21 -0.0690373 0.00314628 1067.4
2.03288e-20 0.0690902 0.00315119 1152.92
-6.77626e-21 -0.0690903 0.00315119 1154.13
2.71051e-20 -0.0693056 7.53405e-10 960.86
0 0.0693057 7.53368e-10 958.992
-2.71051e-20 0.069319 0.00058654 556.859
2.71051e-20 -0.069319 0.000586541 564.694
9.03502e-21 0.069334 0.00187597 127.982
-2.25875e-21 -0.069334 0.00187597 136.72
0 -0.0693766 0.00126564 122.711
2.25875e-21 0.0693766 0.00126564 111.976
2.37169e-20 0.0693207 0.00317251 1413.41
-3.04932e-20 -0.0693208 0.00317251 1414.58
0 0.0693497 0.00298097 1420.8
0 -0.0693497 0.00298097 1421.94
4.51751e-21 0.0694192 0.00258965 823.288
3.76158e-37 -0.0694192 0.00258965 844.222
-2.71051e-20 -0.0695352 6.33642e-10 953.807
0 0.0695353 6.33611e-10 951.83
-2.25875e-21 -0.0696321 0.000296679 887.233
9.03502e-21 0.0696322 0.000296683 884.099
-5.92923e-21 -0.0695689 0.00319552 1941.21
-1.18585e-20 0.0695689 0.00319553 1940.47
1.807e-20 -0.0696425 0.000797323 313.711
4.51751e-21 0.0696425 0.00079732 302.88
-8.47033e-22 0.0695784 0.00319641 1946.72
-8.47033e-22 -0.0695785 0.0031964 1947.47
8.47033e-22 0.0695823 0.00318487 1944.33
0 -0.0695823 0.00318484 1945.07
-2.71051e-20 -0.0696472 0.00154089 84.9515
-2.71051e-20 0.0696472 0.00154088 76.7761
0 0.0696641 0.00219291 159.695
0 -0.0696642 0.00219292 165.198
1.35525e-20 -0.0697196 4.40725e-10 956.893
0 0.0697196 4.40662e-10 954.887
-8.47033e-22 0.0697031 0.00320796 1977.93
8.47033e-22 -0.0697034 0.00320797 1978.7
4.51751e-21 0.0697673 0.00292899 1702.76
4.51751e-21 -0.0697674 0.00292899 1716.47
0 -0.0699415 3.15614e-10 979.82
0 0.0699415 3.15558e-10 977.86
2.25875e-21 -0.0699611 0.00120451 127.469
1.88079e-37 0.0699612 0.00120451 116.358
-9.03502e-21 0.069973 0.00186218 113.156
2.25875e-21 -0.069973 0.00186218 121.343
-5.80823e-21 -0.0700188 0.000642907 452.118
5.80823e-21 0.0700188 0.000642905 441.661
8.13152e-21 0.069996 0.00254737 700.437
-9.03502e-22 -0.069996 0.00254738 726.905
-1.69407e-21 0.0699955 0.00323502 2089.28
0 -0.0699955 0.00323502 2089.89
0 0.0700024 0.0032254 2076.7
0 -0.0700024 0.00322541 2077.33
-8.47033e-21 0.0700168 0.00320158 1991.42
0 -0.0700168 0.00320161 1994.86
0 0.0700152 0.00323684 2036.38
0 -0.0700152 0.00323685 2037.05
1.69407e-21 -0.0700323 0.0032264 2052.24
0 0.0700323 0.00322639 2051.58
1.69407e-21 -0.0700388 0.00323903 2055.2
0 0.0700388 0.00323903 2054.55
0 -0.070147 2.68701e-10 981.128
2.71051e-20 0.0701471 2.68654e-10 979.159
-4.51751e-21 -0.0702674 0.000292997 902.885
6.77626e-21 0.0702674 0.00029299 899.487
2.71051e-20 -0.0702765 0.000883474 174.388
-2.71051e-20 0.0702765 0.000883472 158.419
2.71051e-20 -0.0702886 0.00151891 80.6982
0 0.0702886 0.00151892 73.6605
3.87215e-21 0.0702456 0.00294407 1466.24
9.68038e-21 -0.0702457 0.00294407 1476.29
0 0.070299 0.0021723 137.26
2.71051e-20 -0.070299 0.0021723 149.629
-2.71051e-20 -0.0703806 1.62746e-10 991.756
0 0.0703807 1.6272e-10 989.773
-2.71051e-20 -0.0705784 1.14585e-10 1029.58
2.71051e-20 0.0705785 1.1457e-10 1027.61
-6.77626e-21 -0.0705998 0.00118765 130.421
4.51751e-21 0.0705998 0.00118765 118.698
6.77626e-21 0.0705353 0.00328499 1814.57
0 -0.0705353 0.00328499 1815.29
0 0.0705527 0.00325692 1791.16
6.77626e-21 -0.0705527 0.00325692 1791.89
-2.25875e-21 -0.0706078 0.00184741 113.419
0 0.0706078 0.00184741 102.068
2.25875e-21 -0.070638 0.000612819 554.707
0 0.070638 0.000612819 545.087
2.71051e-21 0.0706075 0.00255217 582.465
1.2649e-20 -0.0706076 0.00255217 597.771
0 0.0705995 0.00296102 1350.34
0 -0.0705995 0.00296102 1356.43
-2.03288e-20 -0.070595 0.00319638 1623.95
0 0.070595 0.00319638 1620.73
0 -0.0705913 0.00329017 1711.42
0 0.0705913 0.00329017 1710.68
-6.77626e-21 0.0706367 0.00326033 1756.81
6.77626e-21 -0.0706367 0.00326033 1757.54
0 0.0706566 0.00329622 1769.03
0 -0.0706566 0.00329622 1769.76
-1.35525e-20 -0.0707679 1.07375e-10 1030.06
-1.35525e-20 0.070768 1.07363e-10 1028.04
-9.03502e-21 -0.0708997 0.000195878 1036.18
-4.51751e-21 0.0708998 0.00019588 1034.18
0 -0.0709116 0.000867118 184.473
2.71051e-20 0.0709116 0.000867115 168.084
-2.71051e-20 -0.0709215 0.00150265 79.5953
2.71051e-20 0.0709215 0.00150265 72.1905
0 0.0709199 0.00216979 121.042
-2.71051e-20 -0.0709199 0.00216978 140.083
-6.77626e-21 0.0709023 0.00297257 1264.2
1.35525e-20 -0.0709023 0.00297258 1267.93
0 -0.07103 8.84592e-11 1044.5
-2.71051e-20 0.0710301 8.84549e-11 1042.5
-6.77626e-21 -0.0710887 0.00333622 1659.48
0 0.0710887 0.00333623 1658.7
1.12938e-20 -0.0711752 0.00060184 572.67
4.51751e-21 0.0711752 0.000601842 563.78
0 -0.0711207 0.00328672 1624.69
6.77626e-21 0.0711207 0.00328673 1623.9
0 -0.0712167 8.11841e-11 1095.59
0 0.0712167 8.11834e-11 1093.69
0 -0.0712323 0.00117327 132.071
6.77626e-21 0.0712323 0.00117327 120.636
-2.25875e-21 -0.0712327 0.00184247 107.034
2.25875e-21 0.0712327 0.00184247 93.9339
-4.51751e-21 0.0712034 0.0029248 1089.54
-2.25875e-21 -0.0712034 0.00292481 1094.06
0 0.0711852 0.00334516 1510.92
0 -0.0711852 0.00334516 1511.72
-4.51751e-21 0.0712193 0.00253877 451.162
-2.25875e-21 -0.0712193 0.00253877 464.081
6.77626e-21 0.0711937 0.00318838 1388.51
1.35525e-20 -0.0711937 0.00318835 1390.93
0 0.0712635 0.00329233 1587.61
0 -0.0712635 0.00329232 1588.41