# pMean  POINT_DATA 25334
# x  y  z  pMean
-6.77626e-21 0.057587 1.35324e-07 -0.0225508
6.77626e-21 -0.057587 1.35324e-07 0.140997
0 0.0575869 0.000409944 -0.0225504
-3.38813e-21 -0.0575869 0.000409944 0.141001
-1.69407e-21 0.0575869 0.000633503 -0.0225502
-1.69407e-21 -0.0575869 0.000633504 0.141002
0 0.0575868 0.00104356 -0.0225503
-3.38813e-21 -0.0575868 0.00104356 0.141002
5.0822e-21 0.0575868 0.00145414 -0.0225502
-1.69407e-21 -0.0575868 0.00145414 0.141005
0 0.0575868 0.00167624 -0.0225502
-1.69407e-21 -0.0575868 0.00167624 0.141005
0 0.0575868 0.002087 -0.0225505
0 -0.0575868 0.002087 0.141001
0 0.0577686 0.000993823 -0.0225516
6.77626e-21 -0.0577686 0.000993824 0.140992
6.77626e-21 0.0577684 0.00110476 -0.0225516
6.77626e-21 -0.0577684 0.00110476 0.140993
0 0.0577859 0.000103261 -0.0225524
0 -0.0577859 0.000103261 0.140987
0 0.0577942 1.15393e-07 -0.0225527
-6.77626e-21 -0.0577942 1.15393e-07 0.140985
0 0.0578027 1.90097e-05 -0.0225527
0 -0.0578027 1.90097e-05 0.140985
-6.77626e-21 -0.0578191 1.14264e-07 0.140983
0 0.0578191 1.14264e-07 -0.0225529
0 0.0577853 0.00199426 -0.0225519
0 -0.0577853 0.00199426 0.140992
0 0.0577823 0.002105 -0.022552
0 -0.0577823 0.002105 0.140991
6.77626e-21 -0.057823 0.00105089 0.140988
0 0.057823 0.00105089 -0.0225521
0 0.0578007 0.00208013 -0.0225521
0 -0.0578007 0.00208013 0.14099
6.77626e-21 -0.0578427 5.77484e-05 0.140982
0 0.0578427 5.77488e-05 -0.0225531
0 0.0578443 1.78371e-05 -0.0225531
0 -0.0578443 1.78368e-05 0.140982
-6.77626e-21 0.0578469 1.13152e-07 -0.0225532
-6.77626e-21 -0.0578469 1.13152e-07 0.140982
0 -0.0578171 0.0021082 0.14099
6.77626e-21 0.0578171 0.0021082 -0.0225522
6.77626e-21 -0.0578434 0.00204427 0.140988
0 0.0578434 0.00204427 -0.0225524
-6.77626e-21 -0.0578462 0.00208444 0.140989
0 0.0578462 0.00208444 -0.0225523
6.77626e-21 -0.0578583 0.002112 0.140988
-6.77626e-21 0.0578583 0.002112 -0.0225524
3.38813e-21 -0.0579123 0.000912335 0.140984
0 0.0579123 0.000912331 -0.0225526
6.77626e-21 0.0579215 5.62283e-05 -0.0225534
0 -0.0579215 5.62253e-05 0.14098
-3.38813e-21 -0.0579146 0.00119726 0.140984
0 0.0579146 0.00119726 -0.0225526
6.77626e-21 -0.0579295 1.06809e-07 0.140978
-6.77626e-21 0.0579295 1.06808e-07 -0.0225535
6.77626e-21 -0.0579351 0.000246057 0.140979
-3.38813e-21 0.0579351 0.000246061 -0.0225534
-6.77626e-21 -0.0579259 0.00205413 0.140986
0 0.0579259 0.00205413 -0.0225526
3.38813e-21 -0.0579372 0.00186069 0.140983
-3.38813e-21 0.0579372 0.00186068 -0.0225529
0 -0.0579652 0.00212184 0.140981
-6.77626e-21 0.0579652 0.00212184 -0.0225532
0 -0.0580743 1.10803e-07 0.140974
6.77626e-21 0.0580744 1.10802e-07 -0.0225542
-2.25875e-21 0.0581721 0.000610602 -0.0225544
0 -0.0581721 0.000610603 0.140969
2.25875e-21 0.0581735 0.00151342 -0.0225542
4.51751e-21 -0.0581735 0.00151342 0.14097
-8.47033e-22 -0.0581934 0.00214283 0.140978
2.5411e-21 0.0581934 0.00214284 -0.0225537
-6.77626e-21 0.058277 1.16391e-07 -0.0225551
-1.01644e-20 -0.058277 1.16394e-07 0.140966
-1.35525e-20 0.0583193 0.000123003 -0.0225552
0 -0.0583193 0.000122998 0.140963
-5.0822e-21 0.0582823 0.00215102 -0.0225541
0 -0.0582823 0.00215102 0.140974
-1.35525e-20 -0.0583281 0.00201516 0.14097
-1.35525e-20 0.0583281 0.00201516 -0.0225546
-2.71051e-20 -0.0583808 0.00028652 0.140957
0 0.0583808 0.000286525 -0.0225557
0 -0.058383 0.00106967 0.140956
1.35525e-20 0.058383 0.00106967 -0.0225561
0 -0.0583862 0.00185752 0.140961
-1.35525e-20 0.0583862 0.00185751 -0.0225557
-1.35525e-20 0.0584351 1.20751e-07 -0.0225559
0 -0.0584351 1.20753e-07 0.140955
1.35525e-20 -0.0584724 0.00216851 0.140955
1.35525e-20 0.0584724 0.00216852 -0.0225563
2.63521e-21 0.0585878 0.000684244 -0.0225567
3.76459e-22 -0.0585878 0.000684244 0.140948
0 0.0586022 0.000178782 -0.0225557
0 -0.0586022 0.000178773 0.140946
5.64689e-22 0.0585913 0.00147246 -0.0225568
-1.12938e-21 -0.0585913 0.00147246 0.140951
3.38813e-21 0.0586253 8.46437e-05 -0.0225553
0 -0.0586254 8.46169e-05 0.140945
2.37169e-20 0.0586311 9.46985e-08 -0.0225555
-3.38813e-21 -0.0586312 9.47002e-08 0.140945
0 -0.058614 0.00198099 0.140947
3.38813e-21 0.058614 0.00198098 -0.0225574
6.77626e-21 -0.0586389 0.00205688 0.140946
3.38813e-21 0.0586389 0.00205686 -0.0225575
6.77626e-21 -0.0586526 0.0021851 0.140945
-2.03288e-20 0.0586526 0.00218511 -0.0225576
1.35525e-20 0.0587867 7.40281e-08 -0.022558
0 -0.0587868 7.40288e-08 0.140937
1.35525e-20 0.0587871 0.00108477 -0.0225592
-1.35525e-20 -0.0587871 0.00108477 0.140933
0 0.0588138 0.000419265 -0.0225588
-1.35525e-20 -0.0588138 0.00041926 0.140932
-1.35525e-20 0.0587904 0.00219778 -0.0225588
0 -0.0587904 0.00219778 0.140935
0 0.0588211 0.00175677 -0.0225595
-1.35525e-20 -0.0588211 0.00175678 0.14093
-2.25875e-21 0.0589944 0.000754327 -0.0225611
0 -0.0589944 0.000754324 0.140919
0 0.0589983 0.00142976 -0.0225614
-6.77626e-21 -0.0589983 0.00142976 0.140916
-6.77626e-21 0.0590078 0.0022178 -0.0225614
0 -0.0590078 0.0022178 0.140912
6.77626e-21 0.0590549 8.35179e-08 -0.022561
-1.01644e-20 -0.0590549 8.35183e-08 0.140917
0 0.0590696 0.000188906 -0.022561
-6.77626e-21 -0.0590696 0.000188907 0.140917
-3.38813e-20 0.0590838 8.57393e-08 -0.0225613
-2.03288e-20 -0.0590838 8.57399e-08 0.140915
-6.77626e-21 0.05908 0.00199662 -0.0225621
0 -0.05908 0.00199663 0.140908
6.77626e-21 0.059078 0.00212655 -0.0225623
6.77626e-21 -0.059078 0.00212657 0.140905
0 -0.0591581 0.00223163 0.140904
-6.77626e-21 0.0591581 0.00223164 -0.0225626
0 0.0593378 9.41278e-08 -0.0225631
2.71051e-20 -0.0593378 9.41278e-08 0.140907
4.51751e-21 -0.0593529 0.000581997 0.140904
-4.51751e-21 0.0593529 0.000581997 -0.0225636
-2.25875e-21 -0.0593596 0.00110181 0.140904
4.51751e-21 0.0593596 0.00110181 -0.0225636
-4.51751e-21 -0.0593591 0.00162171 0.140901
-2.25875e-21 0.0593591 0.00162171 -0.0225637
-1.35525e-20 0.059356 0.00224986 -0.0225635
1.35525e-20 -0.059356 0.00224986 0.1409
0 0.0594897 0.00226217 -0.0225645
1.35525e-20 -0.0594898 0.00226217 0.140895
-1.01644e-20 0.0596053 7.49137e-08 -0.0225653
1.35525e-20 -0.0596053 7.49137e-08 0.140895
6.77626e-21 -0.0596378 6.72747e-05 0.140893
3.38813e-21 0.0596378 6.72778e-05 -0.0225656
0 -0.0596391 0.000281382 0.140893
0 0.0596391 0.000281381 -0.0225656
1.35525e-20 0.0596522 0.000750578 -0.0225657
1.35525e-20 -0.0596522 0.000750579 0.140893
2.03288e-20 -0.0596652 7.43486e-08 0.140892
-3.38813e-21 0.0596653 7.43486e-08 -0.0225658
0 -0.0596556 0.00146978 0.140892
1.35525e-20 0.0596556 0.00146978 -0.0225657
0 -0.0596502 0.00197793 0.140888
-1.12938e-21 0.0596502 0.00197793 -0.0225659
-6.77626e-21 -0.0598456 0.00229492 0.140882
0 0.0598456 0.00229493 -0.022567
0 -0.0599214 5.86731e-08 0.140881
2.71051e-20 0.0599214 5.86731e-08 -0.0225674
0 -0.0599318 0.00059675 0.14088
-4.51751e-21 0.0599318 0.000596749 -0.0225677
-2.25875e-21 -0.0599376 0.0016364 0.140877
-1.12938e-21 0.0599376 0.0016364 -0.0225681
3.38813e-22 0.0599523 0.00111694 -0.0225679
6.77626e-22 -0.0599523 0.00111694 0.140879
0 -0.0599299 0.00230268 0.140879
6.77626e-21 0.0599299 0.00230269 -0.0225676
6.77626e-21 0.0599889 0.00230811 -0.0225681
0 -0.0599889 0.00230811 0.140876
-1.35525e-20 0.0601336 6.5621e-08 -0.022569
-1.35525e-20 -0.0601336 6.56212e-08 0.14087
5.64689e-21 -0.0602132 0.00025242 0.140866
1.12938e-21 0.0602132 0.000252421 -0.0225696
0 -0.0602294 0.000784336 0.140867
4.06576e-20 0.0602294 0.000784336 -0.0225698
2.71051e-20 0.0602309 0.00146544 -0.0225698
0 -0.0602309 0.00146544 0.140868
-1.35525e-20 -0.0602724 6.43012e-08 0.140863
1.35525e-20 0.0602724 6.4301e-08 -0.02257
8.47033e-22 0.0602423 0.00197228 -0.0225702
1.41172e-22 -0.0602423 0.00197228 0.140864
-5.42101e-20 -0.060476 6.96062e-08 0.140853
2.71051e-20 0.060476 6.96059e-08 -0.0225715
-3.76459e-22 0.0604796 0.000600016 -0.0225715
0 -0.0604796 0.000600017 0.140853
-5.0822e-21 -0.0604892 0.00235417 0.140853
0 0.0604957 0.00235477 -0.0225718
-4.23516e-22 0.0605072 0.00234081 -0.0225719
0 -0.0605072 0.00234076 0.140852
-2.25875e-21 -0.0605575 0.00113185 0.140849
3.38813e-21 0.0605575 0.00113185 -0.0225722
0 -0.0605507 0.0016269 0.14085
-2.25875e-21 0.0605507 0.0016269 -0.0225722
4.23516e-22 0.0605417 0.002359 -0.0225721
-4.23516e-21 -0.0605419 0.00235902 0.14085
0 0.0606726 5.84245e-08 -0.022573
0 -0.0606726 5.84247e-08 0.140841
2.82344e-22 0.0608243 0.000288714 -0.0225737
-8.47033e-22 -0.0608243 0.000288713 0.140836
-1.12938e-21 -0.0608389 0.00196308 0.140835
0 0.0608389 0.00196307 -0.0225745
1.35525e-20 -0.0608907 5.77036e-08 0.14083
1.35525e-20 0.0608907 5.77035e-08 -0.0225747
0 0.061022 0.000858086 -0.0225762
-9.03502e-21 -0.061022 0.000858088 0.140818
-4.51751e-21 -0.0610196 0.00143519 0.140819
9.03502e-21 0.0610196 0.00143519 -0.0225762
0 -0.0610807 4.8073e-08 0.140819
2.71051e-20 0.0610807 4.80731e-08 -0.0225767
0 0.0610586 0.00240653 -0.0225758
3.38813e-21 -0.0610587 0.00240653 0.140824
-6.77626e-21 0.0610729 0.00238498 -0.022576
0 -0.0610729 0.00238499 0.140823
0 -0.0610955 0.00240991 0.140822
-3.38813e-21 0.0610955 0.00240992 -0.0225761
-1.01644e-20 -0.0610995 0.00235724 0.140822
3.38813e-21 0.0610995 0.00235723 -0.0225762
0 -0.0611235 0.00238842 0.140821
3.38813e-21 0.0611235 0.00238841 -0.0225763
-3.38813e-21 -0.0611365 0.0024137 0.14082
-3.38813e-21 0.0611365 0.00241371 -0.0225764
-2.71051e-20 0.0612633 0.00060671 -0.0225778
-2.71051e-20 -0.0612633 0.00060671 0.140808
0 -0.0612584 0.00172072 0.14081
2.71051e-20 0.0612584 0.00172072 -0.0225775
0 0.0612896 0.00114624 -0.0225783
0 -0.0612897 0.00114624 0.140802
1.35525e-20 0.0613382 3.75142e-08 -0.0225792
0 -0.0613382 3.75134e-08 0.140806
2.35287e-22 -0.0614691 0.000272863 0.140801
1.8823e-22 0.0614691 0.000272864 -0.0225802
-6.77626e-21 -0.0614658 0.00200456 0.140801
0 0.0614659 0.00200455 -0.0225788
1.35525e-20 -0.0615061 3.67847e-08 0.140797
0 0.0615061 3.67853e-08 -0.0225804
6.77626e-21 0.0615545 0.000876367 -0.0225798
0 -0.0615545 0.000876369 0.14079
-2.25875e-21 -0.0615509 0.0014501 0.140793
-2.25875e-21 0.0615509 0.00145009 -0.0225797
0 0.061707 0.00246619 -0.0225803
0 -0.061707 0.00246619 0.140791
0 0.0617173 0.00245304 -0.0225804
-3.38813e-21 -0.0617173 0.00245304 0.140791
0 -0.0617319 0.0024685 0.14079
0 0.0617319 0.00246851 -0.0225805
0 -0.0617337 0.00243689 0.14079
1.35525e-20 0.0617337 0.00243687 -0.0225805
0 -0.0617481 0.00245432 0.140789
0 0.0617481 0.00245432 -0.0225806
0 -0.0617556 0.00247067 0.140789
0 0.0617556 0.00247068 -0.0225806
-2.71051e-20 -0.0618119 0.000576129 0.140779
2.71051e-20 0.0618119 0.000576127 -0.0225813
-2.71051e-20 0.0618207 1.81822e-08 -0.0225811
0 -0.0618207 1.81785e-08 0.140779
-2.71051e-20 0.0618057 0.00179067 -0.0225812
0 -0.0618057 0.00179067 0.140782
1.54886e-20 -0.0618911 0.00110231 0.140771
-7.7443e-21 0.0618911 0.0011023 -0.0225825
8.13152e-21 -0.0620668 0.000803568 0.140767
-2.1684e-20 0.0620668 0.000803563 -0.0225829
-9.03502e-21 -0.0620551 0.00147845 0.140769
-4.51751e-21 0.0620551 0.00147845 -0.022583
-1.01644e-20 -0.062113 1.60866e-08 0.140761
-2.71051e-20 0.062113 1.60885e-08 -0.0225827
1.12938e-21 -0.0620964 0.00208092 0.14077
-7.90564e-21 0.0620964 0.00208092 -0.0225831
4.51751e-21 -0.0621537 0.000297909 0.140758
-7.90564e-21 0.0621538 0.000297901 -0.0225833
0 -0.0621775 1.5659e-08 0.140758
-3.38813e-21 0.0621776 1.56603e-08 -0.0225833
0 -0.0621833 0.00251002 0.140762
0 0.0621834 0.00251003 -0.022584
0 -0.0621909 0.00249518 0.140761
0 0.062191 0.00249518 -0.0225841
1.35525e-20 -0.0622064 0.0024796 0.14076
0 0.0622065 0.00247958 -0.0225843
3.38813e-21 -0.062211 0.00251256 0.14076
0 0.0622111 0.00251257 -0.0225843
3.38813e-21 -0.0622439 0.00247191 0.140756
1.69407e-21 0.062244 0.00247188 -0.0225847
2.71051e-20 -0.062464 1.36278e-08 0.140743
2.71051e-20 0.0624641 1.36269e-08 -0.022586
-9.03502e-21 -0.0624707 0.000665047 0.140744
1.807e-20 0.0624707 0.000665044 -0.0225862
1.12938e-21 -0.062477 0.00119048 0.140744
-1.12938e-21 0.062477 0.00119047 -0.0225863
-1.69407e-20 -0.062456 0.00253512 0.140734
3.38813e-21 0.0624561 0.00253513 -0.0225872
0 -0.0624641 0.00247935 0.140733
3.38813e-21 0.0624642 0.00247932 -0.0225873
9.03502e-21 -0.0625428 0.00182288 0.140733
-6.77626e-21 0.0625428 0.00182287 -0.0225873
9.03502e-21 -0.0625479 0.00223393 0.140731
0 0.0625479 0.00223393 -0.0225875
6.77626e-21 0.0626457 0.0024718 -0.0225881
-1.35525e-20 -0.0626457 0.00247184 0.140727
1.35525e-20 -0.0627252 1.30353e-08 0.140731
-2.71051e-20 0.0627253 1.30348e-08 -0.022588
0 0.0626789 0.00255557 -0.0225881
0 -0.0626789 0.00255558 0.140726
0 -0.0627232 0.00247243 0.140722
0 0.0627232 0.0024724 -0.0225885
-1.12938e-21 -0.0627775 0.000301909 0.140728
1.12938e-21 0.0627776 0.000301908 -0.0225885
0 -0.062729 0.00253281 0.140724
0 0.062729 0.0025328 -0.0225884
6.77626e-21 -0.0627358 0.00256092 0.140723
-6.77626e-21 0.0627358 0.00256092 -0.0225885
1.35525e-20 -0.0627919 0.000886728 0.140726
1.35525e-20 0.0627919 0.000886726 -0.0225889
1.35525e-20 -0.0628163 1.26849e-08 0.140726
1.35525e-20 0.0628164 1.26845e-08 -0.0225887
2.71051e-20 -0.0628008 0.00150647 0.140725
-2.71051e-20 0.0628008 0.00150646 -0.0225889
-1.35525e-20 0.0628111 0.00226844 -0.0225891
-1.35525e-20 -0.0628111 0.00226845 0.140717
0 -0.0628645 0.00225958 0.140714
0 0.0628645 0.00225958 -0.0225894
0 -0.0630768 1.21047e-08 0.140712
0 0.0630768 1.21046e-08 -0.0225908
4.51751e-21 -0.0630912 0.000666723 0.14071
0 0.0630912 0.000666722 -0.0225911
-6.77626e-21 0.0630461 0.00258946 -0.0225905
0 -0.0630461 0.00258946 0.14071
-3.38813e-21 -0.0630991 0.00119272 0.140709
-1.12938e-21 0.0630991 0.00119271 -0.0225912
-6.77626e-21 0.0630752 0.00254727 -0.0225907
6.77626e-21 -0.0630752 0.00254728 0.140709
6.77626e-21 -0.0631146 0.00184446 0.140704
6.77626e-21 0.0631146 0.00184446 -0.0225915
6.77626e-21 -0.0631295 0.0022085 0.140703
-1.35525e-20 0.0631295 0.0022085 -0.0225915
0 0.0631287 0.00259721 -0.0225912
0 -0.0631287 0.0025972 0.140706
6.77626e-21 0.0631356 0.00244813 -0.0225914
0 -0.0631356 0.00244815 0.140704
-6.77626e-21 -0.0632026 0.00255045 0.140702
6.77626e-21 0.0632026 0.00255045 -0.0225918
0 -0.0632312 0.00260676 0.1407
0 0.0632313 0.00260677 -0.0225921
6.77626e-21 -0.063349 1.19264e-08 0.140698
0 0.063349 1.19263e-08 -0.0225929
1.12938e-21 -0.0633802 0.000299367 0.140696
-2.25875e-21 0.0633802 0.000299369 -0.0225932
-1.01644e-20 -0.0634014 1.18938e-08 0.140695
1.01644e-20 0.0634014 1.18937e-08 -0.0225933
2.71051e-20 -0.0633962 0.000886439 0.140694
0 0.0633962 0.000886437 -0.0225935
-2.71051e-20 0.0634042 0.00150049 -0.0225936
0 -0.0634042 0.00150049 0.140693
-6.77626e-21 0.0634114 0.0022746 -0.0225936
6.77626e-21 -0.0634114 0.00227461 0.140691
-1.35525e-20 0.0635494 0.00263612 -0.0225946
1.35525e-20 -0.0635494 0.00263612 0.140685
-1.54886e-20 -0.0636291 0.000643941 0.140684
-1.54886e-20 0.0636291 0.00064394 -0.0225949
0 0.0635904 0.00256273 -0.0225949
0 -0.0635904 0.00256275 0.140683
-5.42101e-20 0.0636736 1.17146e-08 -0.0225954
2.71051e-20 -0.0636736 1.17147e-08 0.140681
5.64689e-21 -0.0637074 0.00119101 0.140679
-6.77626e-21 0.0637074 0.00119101 -0.0225957
-6.77626e-21 0.0637064 0.00183893 -0.0225957
-9.03502e-21 -0.0637064 0.00183893 0.140679
-1.12938e-21 0.0636972 0.00228499 -0.0225956
-2.25875e-21 -0.0636972 0.002285 0.140679
1.35525e-20 -0.0636864 0.00264892 0.140679
0 0.0636864 0.00264892 -0.0225955
0 0.0638057 0.00256956 -0.0225964
0 -0.0638057 0.00256957 0.140674
0 -0.0638578 0.00266484 0.140671
0 0.0638578 0.00266484 -0.0225968
-7.41154e-21 -0.0639767 1.11249e-08 0.140665
1.48231e-21 0.0639761 1.11262e-08 -0.0225976
2.25875e-21 -0.063985 0.000294159 0.140665
1.12938e-21 0.063985 0.000294155 -0.0225976
9.03502e-21 0.0639986 0.000797712 -0.0225978
1.35525e-20 -0.0639986 0.000797713 0.140664
0 0.0639965 0.00216957 -0.0225976
-1.35525e-20 -0.0639965 0.00216958 0.140668
-1.35525e-20 0.0639892 0.00242307 -0.0225977
0 -0.0639893 0.00242307 0.140666
-5.42101e-21 0.0640905 0.00161525 -0.0225985
2.71051e-21 -0.0640905 0.00161526 0.14066
-6.77626e-21 0.0640768 0.00268508 -0.0225984
2.03288e-20 -0.0640768 0.00268508 0.140661
2.71051e-20 0.0641377 0.00258144 -0.0225988
1.35525e-20 -0.0641377 0.00258144 0.140658
0 0.0642237 0.00119408 -0.0225994
0 -0.0642237 0.00119408 0.140653
0 0.0642452 0.0019095 -0.0225994
0 -0.0642452 0.0019095 0.140656
-2.71051e-20 -0.0642765 1.05721e-08 0.140649
0 0.0642765 1.05715e-08 -0.0225999
0 -0.0643071 0.000580349 0.140648
0 0.0643071 0.000580347 -0.0226001
1.35525e-20 0.0642697 0.00270301 -0.0225997
0 -0.0642697 0.00270301 0.140653
0 0.0642913 0.00231124 -0.0225998
0 -0.0642914 0.00231125 0.140653
-2.03288e-20 0.0645077 0.00272507 -0.0226015
-6.77626e-21 -0.0645077 0.00272507 0.14064
3.38813e-21 -0.0645717 1.00934e-08 0.140634
-3.04932e-20 0.0645718 1.00931e-08 -0.0226024
1.69407e-21 -0.0645942 0.000105281 0.140633
1.69407e-21 0.0645943 0.000105376 -0.0226025
1.12938e-21 -0.0646037 0.000289984 0.140633
1.12938e-21 0.0646037 0.000289985 -0.0226025
3.04932e-20 -0.0646061 1.00753e-08 0.140632
3.38813e-21 0.0646062 1.0075e-08 -0.0226026
-1.35525e-20 0.0645786 0.00255814 -0.022602
0 -0.0645786 0.00255814 0.140637
-9.03502e-21 -0.0646301 0.000897019 0.14063
4.51751e-21 0.0646302 0.000897011 -0.0226026
4.51751e-21 0.0646074 0.00205749 -0.0226021
4.51751e-21 -0.0646074 0.00205749 0.140638
4.51751e-21 -0.0646289 0.0015261 0.140631
0 0.0646289 0.0015261 -0.0226025
2.03288e-20 0.0646274 0.00273615 -0.0226024
-6.77626e-21 -0.0646274 0.00273615 0.140634
2.71051e-20 -0.0649009 9.6032e-09 0.140615
0 0.064901 9.60317e-09 -0.022605
0 0.0648749 0.00275909 -0.0226039
-1.35525e-20 -0.0648749 0.0027591 0.140624
0 -0.0649356 0.000580175 0.140614
0 0.0649357 0.000580173 -0.022605
2.71051e-20 -0.0649299 0.0018847 0.140618
0 0.0649299 0.0018847 -0.0226045
0 -0.0649158 0.00234727 0.14062
-5.64689e-22 0.0649158 0.00234727 -0.0226043
0 0.064955 0.00120196 -0.022605
-2.71051e-20 -0.064955 0.00120197 0.140612
-1.69407e-21 -0.0652158 7.83139e-09 0.140598
-5.0822e-21 0.0652158 7.83129e-09 -0.0226073
1.69407e-21 -0.0652252 4.89709e-05 0.140598
-8.47033e-22 0.0652252 4.89567e-05 -0.0226074
-1.69407e-21 -0.0652301 7.82307e-09 0.140598
1.69407e-21 0.0652302 7.82298e-09 -0.0226074
3.38813e-21 -0.0652381 0.000289556 0.140597
-1.12938e-21 0.0652381 0.000289555 -0.0226075
-4.51751e-21 -0.0652635 0.000898339 0.140597
0 0.0652635 0.000898337 -0.0226073
-1.86347e-20 0.0652148 0.00279069 -0.0226067
1.69407e-21 -0.0652149 0.00279069 0.140598
2.25875e-21 0.0652598 0.00154151 -0.0226071
4.51751e-21 -0.0652598 0.00154152 0.140597
-9.03502e-21 0.0652522 0.00209406 -0.0226071
-1.35525e-20 -0.0652523 0.00209406 0.140596
6.77626e-21 0.065246 0.00279361 -0.0226069
1.18585e-20 -0.0652461 0.00279361 0.140596
2.25875e-21 0.0652919 0.00257206 -0.0226072
-6.77626e-21 -0.065292 0.00257206 0.140594
-2.71051e-20 -0.0655524 5.83779e-09 0.140578
2.71051e-20 0.0655524 5.83758e-09 -0.0226098
0 -0.0655704 0.000580902 0.140578
-2.71051e-20 0.0655704 0.0005809 -0.0226097
2.71051e-20 0.0655565 0.00189852 -0.0226094
2.71051e-20 -0.0655566 0.00189852 0.140577
0 0.0655812 0.0012083 -0.0226095
0 -0.0655812 0.0012083 0.140579
-5.42101e-20 0.0655608 0.00282284 -0.0226095
0 -0.0655609 0.00282284 0.140574
9.03502e-21 0.0656258 0.00230133 -0.0226101
0 -0.0656259 0.00230134 0.140569
-9.03502e-21 0.0657943 0.00153807 -0.0226107
-9.03502e-21 -0.0657943 0.00153807 0.14057
6.77626e-21 -0.0658501 4.27433e-09 0.140561
-3.38813e-21 0.0658501 4.27416e-09 -0.0226118
-8.13152e-21 0.0658197 0.00206877 -0.0226113
8.13152e-21 -0.0658197 0.00206877 0.140559
0 -0.0658851 0.000294095 0.140559
-1.12938e-21 0.0658851 0.000294098 -0.022612
-6.77626e-21 0.0659037 3.7412e-09 -0.0226121
-3.38813e-21 -0.0659037 3.74133e-09 0.140558
-6.77626e-21 -0.0658977 0.000900946 0.14056
0 0.0658977 0.000900939 -0.0226119
-1.69407e-21 0.0658682 0.00285172 -0.0226121
-1.69407e-21 -0.0658683 0.00285172 0.140551
0 0.0658848 0.00282476 -0.0226122
1.69407e-21 -0.0658848 0.00282481 0.14055
-5.0822e-21 0.0659027 0.00285494 -0.0226123
0 -0.0659027 0.00285493 0.140549
-1.12938e-21 0.0659302 0.00259593 -0.0226124
2.25875e-21 -0.0659302 0.00259593 0.140549
2.71051e-20 0.0662017 2.04737e-09 -0.0226144
-2.71051e-20 -0.0662017 2.04747e-09 0.140542
-2.71051e-20 -0.0662096 0.000583235 0.140541
0 0.0662096 0.000583235 -0.0226144
2.25875e-21 0.0662259 0.00182351 -0.0226145
4.51751e-21 -0.0662259 0.00182351 0.140536
4.51751e-21 -0.0662614 0.00125281 0.140539
0 0.0662614 0.00125281 -0.0226146
-9.03502e-21 0.0662442 0.00230923 -0.0226148
0 -0.0662442 0.00230924 0.140531
0 0.0662393 0.00288655 -0.0226148
-2.71051e-20 -0.0662393 0.00288655 0.140529
-1.35525e-20 -0.0664688 1.83914e-09 0.140527
-2.03288e-20 0.0664688 1.83905e-09 -0.0226165
4.51751e-21 -0.0665215 0.000297069 0.140524
-3.38813e-21 0.0665216 0.000297066 -0.0226168
0 -0.0665293 0.00080361 0.140522
-9.03502e-21 0.0665293 0.000803608 -0.0226168
0 0.0664898 0.00290996 -0.022617
0 -0.0664899 0.00290996 0.140515
0 0.0665401 0.00152056 -0.022617
-2.71051e-20 -0.0665401 0.00152056 0.140517
-6.77626e-21 -0.0665636 1.726e-09 0.140522
-2.03288e-20 0.0665637 1.72594e-09 -0.0226172
0 0.0665512 0.00211001 -0.0226171
0 -0.0665512 0.00211001 0.140515
1.12938e-21 0.0665487 0.00261746 -0.0226174
-6.77626e-21 -0.0665487 0.00261746 0.140513
3.38813e-21 0.0665442 0.00282584 -0.0226175
-3.38813e-21 -0.0665442 0.00282586 0.140512
0 0.0666005 0.00292022 -0.0226178
0 -0.0666005 0.00292022 0.14051
0 -0.0668291 1.51559e-09 0.140508
-2.71051e-20 0.0668291 1.51554e-09 -0.0226191
0 -0.0668394 0.000583644 0.140506
2.71051e-20 0.0668395 0.000583645 -0.0226192
4.51751e-21 -0.0668468 0.0011998 0.140503
6.77626e-21 0.0668469 0.0011998 -0.0226192
0 0.0668543 0.00182538 -0.0226193
0 -0.0668543 0.00182538 0.140502
0 0.0668556 0.00232228 -0.0226193
1.35525e-20 -0.0668556 0.00232228 0.140501
-2.71051e-20 0.0668433 0.00294289 -0.0226193
0 -0.0668434 0.0029429 0.140499
-3.38813e-20 -0.0670865 1.47842e-09 0.140494
2.71051e-20 0.0670865 1.47839e-09 -0.022621
0 0.0670506 0.00296221 -0.0226208
0 -0.0670506 0.00296222 0.14049
1.12938e-20 -0.0671423 0.000297563 0.140491
0 0.0671423 0.000297564 -0.0226214
4.51751e-21 -0.0671508 0.000801878 0.140489
4.51751e-21 0.0671508 0.000801881 -0.0226214
0 0.0671599 0.00152405 -0.0226216
2.71051e-20 -0.0671599 0.00152405 0.140485
-3.38813e-20 -0.0671866 1.45256e-09 0.140489
-2.71051e-20 0.0671867 1.45253e-09 -0.0226217
0 -0.0671598 0.00212379 0.140489
-2.71051e-20 0.0671598 0.00212379 -0.0226214
-6.77626e-21 0.0671483 0.00265339 -0.0226216
-1.12938e-21 -0.0671483 0.00265339 0.140486
-6.77626e-21 0.0671464 0.00281379 -0.0226216
-1.35525e-20 -0.0671464 0.00281382 0.140486
-6.77626e-21 -0.0672459 0.00298031 0.140482
-6.77626e-21 0.0672459 0.00298031 -0.0226222
0 0.0674436 1.4156e-09 -0.0226236
5.42101e-20 -0.0674436 1.41562e-09 0.140475
-2.71051e-20 0.0674568 0.000584188 -0.0226236
0 -0.0674568 0.000584188 0.140474
1.12938e-20 -0.0674668 0.00120303 0.140471
0 0.0674668 0.00120303 -0.0226237
-4.51751e-21 0.067468 0.00183619 -0.0226237
1.35525e-20 -0.067468 0.00183619 0.140472
4.51751e-21 0.0674615 0.00233618 -0.0226236
1.35525e-20 -0.0674615 0.00233618 0.140473
0 -0.0674385 0.00299825 0.140472
1.35525e-20 0.0674385 0.00299825 -0.0226234
0 0.067604 0.00301356 -0.0226246
0 -0.067604 0.00301356 0.140464
6.77626e-21 -0.0677028 1.38317e-09 0.140461
-6.77626e-21 0.0677028 1.38317e-09 -0.0226254
9.03502e-21 -0.067757 0.0002973 0.140458
2.25875e-21 0.067757 0.000297296 -0.0226258
0 -0.0677741 0.0015314 0.140455
0 0.0677741 0.00153139 -0.0226259
2.03288e-20 -0.0677979 1.35986e-09 0.140456
1.35525e-20 0.0677979 1.35987e-09 -0.0226261
0 0.0677675 0.00214378 -0.0226257
2.71051e-20 -0.0677675 0.00214379 0.140459
-4.51751e-22 -0.0677492 0.00270865 0.140457
-1.807e-21 0.0677492 0.00270865 -0.0226258
-4.51751e-21 0.0678144 0.000856994 -0.0226262
2.25875e-21 -0.0678144 0.000856994 0.140454
-6.77626e-21 -0.0678917 0.00304021 0.140449
0 0.0678917 0.00304021 -0.0226267
2.71051e-20 -0.0680566 1.32759e-09 0.140441
2.71051e-20 0.0680567 1.32762e-09 -0.022628
-2.71051e-20 -0.0680721 0.000585702 0.14044
0 0.0680721 0.000585701 -0.0226281
0 -0.0680838 0.00131359 0.140438
0 0.0680838 0.0013136 -0.0226282
0 -0.0680354 0.00305351 0.140442
0 0.0680354 0.0030535 -0.0226277
-9.03502e-21 0.0680812 0.00185139 -0.0226281
-4.51751e-21 -0.0680813 0.00185139 0.14044
4.51751e-21 0.06807 0.00235205 -0.022628
4.51751e-21 -0.06807 0.00235206 0.140441
1.35525e-20 0.0681573 0.00306479 -0.0226286
6.77626e-21 -0.0681573 0.00306479 0.140435
-1.35525e-20 -0.0683162 1.26055e-09 0.140426
0 0.0683162 1.26058e-09 -0.0226298
6.77626e-21 -0.0683744 0.000297322 0.140423
2.25875e-21 0.0683744 0.000297325 -0.0226302
2.25875e-21 -0.0683872 0.000907293 0.140421
0 0.0683872 0.000907292 -0.0226304
0 0.0683925 0.0015418 -0.0226304
2.71051e-20 -0.0683925 0.0015418 0.140421
-2.25875e-22 0.0683555 0.00274607 -0.0226302
1.12938e-21 -0.0683555 0.00274607 0.140425
-2.03288e-20 -0.068418 1.20773e-09 0.14042
2.71051e-20 0.068418 1.20779e-09 -0.0226306
-2.71051e-21 0.0684729 0.00225455 -0.0226309
0 -0.0684729 0.00225456 0.140419
1.35525e-20 -0.0685284 0.00309916 0.140417
0 0.0685284 0.00309916 -0.022631
-5.42101e-20 -0.0686762 1.13927e-09 0.140406
-2.71051e-20 0.0686762 1.13933e-09 -0.0226326
-2.03288e-20 0.068621 0.00310774 -0.0226315
-6.77626e-21 -0.068621 0.00310773 0.140413
0 -0.0686918 0.000587107 0.140404
-2.71051e-20 0.0686918 0.000587106 -0.0226326
9.03502e-21 0.0687027 0.00132382 -0.0226327
0 -0.0687027 0.00132382 0.140402
2.25875e-21 0.0687031 0.0018698 -0.0226328
2.25875e-21 -0.0687031 0.00186981 0.140402
0 0.0686864 0.00249003 -0.0226324
0 -0.0686865 0.00249003 0.140405
-1.35525e-20 0.0686982 0.00311489 -0.0226318
0 -0.0686982 0.00311489 0.140412
6.77626e-21 -0.0689263 1.01559e-09 0.140391
2.03288e-20 0.0689264 1.01563e-09 -0.0226344
0 0.0689234 0.00227294 -0.0226345
8.13152e-21 -0.0689234 0.00227295 0.140388
2.25875e-21 -0.0689994 0.000297496 0.140386
-2.25875e-21 0.0689994 0.00029749 -0.022635
4.51751e-22 0.0689611 0.00278513 -0.0226331
0 -0.0689611 0.00278514 0.140405
1.58113e-20 -0.0690126 0.000908275 0.140384
-9.03502e-21 0.0690126 0.000908274 -0.022635
5.42101e-20 -0.0690164 0.00154915 0.140383
-2.71051e-20 0.0690164 0.00154914 -0.0226351
6.77626e-21 -0.0690595 8.83047e-10 0.140383
1.35525e-20 0.0690596 8.83045e-10 -0.0226354
0 0.0690372 0.00314628 -0.0226346
3.38813e-21 -0.0690373 0.00314628 0.140389
2.03288e-20 0.0690902 0.00315119 -0.0226352
-6.77626e-21 -0.0690903 0.00315119 0.140383
2.71051e-20 -0.0693056 7.53405e-10 0.140367
0 0.0693057 7.53368e-10 -0.0226372
-2.71051e-20 0.069319 0.00058654 -0.0226373
2.71051e-20 -0.069319 0.000586541 0.140366
9.03502e-21 0.069334 0.00187597 -0.0226374
-2.25875e-21 -0.069334 0.00187597 0.140363
0 -0.0693766 0.00126564 0.140362
2.25875e-21 0.0693766 0.00126564 -0.0226377
2.37169e-20 0.0693207 0.00317251 -0.0226387
-3.04932e-20 -0.0693208 0.00317251 0.140355
0 0.0693497 0.00298097 -0.0226385
0 -0.0693497 0.00298097 0.140356
4.51751e-21 0.0694192 0.00258965 -0.0226386
3.76158e-37 -0.0694192 0.00258965 0.140351
-2.71051e-20 -0.0695352 6.33642e-10 0.140352
0 0.0695353 6.33611e-10 -0.0226388
-2.25875e-21 -0.0696321 0.000296679 0.140346
9.03502e-21 0.0696322 0.000296683 -0.0226395
-5.92923e-21 -0.0695689 0.00319552 0.140338
-1.18585e-20 0.0695689 0.00319553 -0.0226398
1.807e-20 -0.0696425 0.000797323 0.140345
4.51751e-21 0.0696425 0.00079732 -0.0226397
-8.47033e-22 0.0695784 0.00319641 -0.0226398
-8.47033e-22 -0.0695785 0.0031964 0.140337
8.47033e-22 0.0695823 0.00318487 -0.0226398
0 -0.0695823 0.00318484 0.140337
-2.71051e-20 -0.0696472 0.00154089 0.140346
-2.71051e-20 0.0696472 0.00154088 -0.0226396
0 0.0696641 0.00219291 -0.0226398
0 -0.0696642 0.00219292 0.140342
1.35525e-20 -0.0697196 4.40725e-10 0.140341
0 0.0697196 4.40662e-10 -0.0226402
-8.47033e-22 0.0697031 0.00320796 -0.0226407
8.47033e-22 -0.0697034 0.00320797 0.140329
4.51751e-21 0.0697673 0.00292899 -0.0226408
4.51751e-21 -0.0697674 0.00292899 0.140325
0 -0.0699415 3.15614e-10 0.140327
0 0.0699415 3.15558e-10 -0.0226417
2.25875e-21 -0.0699611 0.00120451 0.140323
1.88079e-37 0.0699612 0.00120451 -0.0226422
-9.03502e-21 0.069973 0.00186218 -0.0226424
2.25875e-21 -0.069973 0.00186218 0.140321
-5.80823e-21 -0.0700188 0.000642907 0.140319
5.80823e-21 0.0700188 0.000642905 -0.0226428
8.13152e-21 0.069996 0.00254737 -0.0226431
-9.03502e-22 -0.069996 0.00254738 0.140311
-1.69407e-21 0.0699955 0.00323502 -0.0226426
0 -0.0699955 0.00323502 0.140311
0 0.0700024 0.0032254 -0.0226427
0 -0.0700024 0.00322541 0.14031
-8.47033e-21 0.0700168 0.00320158 -0.0226429
0 -0.0700168 0.00320161 0.140309
0 0.0700152 0.00323684 -0.0226428
0 -0.0700152 0.00323685 0.140309
1.69407e-21 -0.0700323 0.0032264 0.140308
0 0.0700323 0.00322639 -0.022643
1.69407e-21 -0.0700388 0.00323903 0.140308
0 0.0700388 0.00323903 -0.022643
0 -0.070147 2.68701e-10 0.140313
2.71051e-20 0.0701471 2.68654e-10 -0.0226432
-4.51751e-21 -0.0702674 0.000292997 0.140306
6.77626e-21 0.0702674 0.00029299 -0.0226442
2.71051e-20 -0.0702765 0.000883474 0.140303
-2.71051e-20 0.0702765 0.000883472 -0.0226447
2.71051e-20 -0.0702886 0.00151891 0.140298
0 0.0702886 0.00151892 -0.022645
3.87215e-21 0.0702456 0.00294407 -0.0226449
9.68038e-21 -0.0702457 0.00294407 0.140293
0 0.070299 0.0021723 -0.0226452
2.71051e-20 -0.070299 0.0021723 0.140297
-2.71051e-20 -0.0703806 1.62746e-10 0.140299
0 0.0703807 1.6272e-10 -0.022645
-2.71051e-20 -0.0705784 1.14585e-10 0.140286
2.71051e-20 0.0705785 1.1457e-10 -0.0226466
-6.77626e-21 -0.0705998 0.00118765 0.140281
4.51751e-21 0.0705998 0.00118765 -0.0226473
6.77626e-21 0.0705353 0.00328499 -0.0226469
0 -0.0705353 0.00328499 0.14028
0 0.0705527 0.00325692 -0.022647
6.77626e-21 -0.0705527 0.00325692 0.140279
-2.25875e-21 -0.0706078 0.00184741 0.14028
0 0.0706078 0.00184741 -0.0226475
2.25875e-21 -0.070638 0.000612819 0.140281
0 0.070638 0.000612819 -0.0226473
2.71051e-21 0.0706075 0.00255217 -0.0226474
1.2649e-20 -0.0706076 0.00255217 0.14028
0 0.0705995 0.00296102 -0.0226472
0 -0.0705995 0.00296102 0.140279
-2.03288e-20 -0.070595 0.00319638 0.140278
0 0.070595 0.00319638 -0.0226473
0 -0.0705913 0.00329017 0.140278
0 0.0705913 0.00329017 -0.0226472
-6.77626e-21 0.0706367 0.00326033 -0.0226476