# pMean  POINT_DATA 26948
# x  y  z  pMean
0.0101542 -1.35525e-20 1.397e-07 -0.0221995
-0.0101542 1.35525e-20 1.397e-07 0.143016
-0.0101542 2.71051e-20 0.000269592 0.143016
0.0101542 -1.35525e-20 0.000269592 -0.0221995
-0.0101542 1.35525e-20 0.000769234 0.143016
0.0101542 0 0.000769234 -0.0221996
0.0101542 0 0.00104357 -0.0221996
-0.0101542 0 0.00104357 0.143016
-0.0101542 -1.35525e-20 0.00131779 0.143016
0.0101542 1.35525e-20 0.00131779 -0.0221996
0.0102506 2.71051e-20 0.000298262 -0.0221994
-0.0102506 -1.35525e-20 0.000298263 0.143016
0.0102543 0 0.0008759 -0.0221995
-0.0102543 1.35525e-20 0.000875901 0.143016
-0.0101542 0 0.00181774 0.143016
0.0101542 0 0.00181774 -0.0221996
0.0103268 -1.35525e-20 1.10555e-07 -0.0221994
-0.0103268 0 1.10554e-07 0.143016
0.0102523 0 0.00124395 -0.0221995
-0.0102523 0 0.00124395 0.143017
0.0101542 2.71051e-20 0.002087 -0.0221996
-0.0101542 -2.71051e-20 0.002087 0.143016
0.0103709 -1.35525e-20 0.000111968 -0.0221994
-0.0103709 0 0.00011197 0.143016
0.0103677 -1.35525e-20 0.000675222 -0.0221994
-0.0103677 -1.35525e-20 0.000675223 0.143016
0.0102487 -1.35525e-20 0.0018202 -0.0221995
-0.0102487 1.35525e-20 0.0018202 0.143017
0.0103636 -2.71051e-20 0.00148272 -0.0221994
-0.0103636 -1.35525e-20 0.00148274 0.143017
-0.0102712 0 0.00214808 0.143016
0.0102712 -1.35525e-20 0.00214808 -0.0221996
0.0103515 0 0.00204725 -0.0221995
-0.0103515 0 0.00204725 0.143016
-0.0106317 3.01167e-21 0.000607148 0.143017
0.0106317 0 0.000607147 -0.0221993
0.0106102 7.90564e-21 0.00112188 -0.0221993
-0.0106102 0 0.00112189 0.143018
-0.0106774 0 0.000276337 0.143017
0.0106774 0 0.000276337 -0.0221993
0.0106161 -3.01167e-21 0.00164337 -0.0221993
-0.0106162 1.50584e-21 0.00164337 0.143017
-0.0107648 0 4.28332e-08 0.143017
0.0107648 1.35525e-20 4.28298e-08 -0.0221992
0.0105534 -1.35525e-20 0.00229536 -0.0221994
-0.0105534 6.77626e-21 0.00229537 0.143017
0.0106301 0 0.00198753 -0.0221994
-0.0106301 0 0.00198753 0.143017
-0.0108244 0 8.90662e-05 0.143017
0.0108244 0 8.90541e-05 -0.0221991
0.0106419 0 0.00222467 -0.0221993
-0.0106419 0 0.00222468 0.143017
-0.0108971 -1.35525e-20 2.09165e-08 0.143018
0.0108971 -1.35525e-20 2.09159e-08 -0.0221991
0.0106479 0 0.0023447 -0.0221993
-0.0106479 0 0.00234469 0.143017
0.0108702 2.71051e-20 0.000884384 -0.0221991
-0.0108702 -2.71051e-20 0.000884388 0.143018
0.0108765 -2.71051e-20 0.00145346 -0.0221992
-0.0108766 0 0.00145346 0.143018
-0.0107255 0 0.00238519 0.143018
0.0107255 0 0.0023852 -0.0221992
0.0110033 0 1.81922e-08 -0.022199
-0.0110033 1.35525e-20 1.81922e-08 0.143018
-0.0107625 0 0.00231974 0.143018
0.0107625 0 0.00231973 -0.0221992
0.0110153 -1.35525e-20 7.96732e-05 -0.022199
-0.0110153 -1.35525e-20 7.96867e-05 0.143018
-0.0110632 -2.25875e-21 0.000577067 0.143019
0.0110632 0 0.000577066 -0.022199
0.0111416 0 0.001188 -0.022199
-0.0111416 -5.64689e-21 0.00118801 0.143019
0.0110829 5.42101e-21 0.00186756 -0.022199
-0.0110829 0 0.00186756 0.143019
0.0110229 2.71051e-20 0.00226217 -0.022199
-0.0110229 0 0.00226218 0.143019
-0.0113157 2.71051e-20 0.000285031 0.143019
0.0113157 0 0.000285027 -0.0221988
0.0110601 6.77626e-21 0.00255988 -0.022199
-0.0110601 -6.77626e-21 0.0025599 0.143019
0.0110969 -6.77626e-21 0.00251435 -0.022199
-0.0110969 0 0.00251438 0.143019
0.011119 6.77626e-21 0.00259067 -0.022199
-0.011119 0 0.00259068 0.143019
-0.0114092 0 0.000887764 0.14302
0.0114092 -2.71051e-20 0.000887761 -0.0221988
-0.0111709 -6.77626e-21 0.00261768 0.143019
0.0111709 1.35525e-20 0.00261768 -0.022199
-0.0111905 0 0.00257828 0.143019
0.0111905 -6.77626e-21 0.00257827 -0.0221989
0.0114292 -2.71051e-20 0.00153031 -0.0221988
-0.0114292 2.71051e-20 0.00153031 0.143019
-0.0115336 -6.77626e-21 3.98228e-09 0.14302
0.0115337 -6.77626e-21 3.98131e-09 -0.0221986
0.011316 0 0.00229792 -0.0221989
-0.011316 -2.25875e-21 0.00229793 0.143019
-0.0115492 0 5.7524e-05 0.14302
0.0115493 6.77626e-21 5.75003e-05 -0.0221986
-0.0116095 0 2.02398e-09 0.14302
0.0116096 6.77626e-21 2.02389e-09 -0.0221986
0.0114857 0 0.0020737 -0.0221988
-0.0114857 0 0.00207371 0.14302
-0.0116746 0 1.84332e-09 0.143021
0.0116747 -6.77626e-21 1.84333e-09 -0.0221985
-0.011679 0 5.25309e-05 0.143021
0.011679 -6.77626e-21 5.25072e-05 -0.0221985
-0.0116878 -2.25875e-21 0.000581193 0.143021
0.0116878 -1.12938e-21 0.000581192 -0.0221986
0.0114475 -2.71051e-20 0.00253489 -0.0221988
-0.0114475 0 0.0025349 0.143019
0.0117411 -5.64689e-22 0.0012051 -0.0221986
-0.0117411 -1.12938e-21 0.0012051 0.143021
0.0115287 -6.77626e-21 0.00280414 -0.0221988
-0.0115287 0 0.00280416 0.143019
0.01155 0 0.0027727 -0.0221988
-0.01155 6.77626e-21 0.00277272 0.143019
0.0117713 5.64689e-22 0.00182837 -0.0221986
-0.0117713 0 0.00182837 0.143021
0.0115729 0 0.00282717 -0.0221987
-0.0115729 0 0.00282718 0.143019
-0.0116142 0 0.00284907 0.143019
0.0116142 0 0.00284907 -0.0221987
-0.0116388 6.77626e-21 0.00280418 0.143019
0.0116388 0 0.00280416 -0.0221987
0.0117404 -5.64689e-22 0.00237671 -0.0221986
-0.0117404 0 0.00237671 0.14302
-0.0119843 0 0.000286091 0.143022
0.0119843 0 0.000286094 -0.0221983
0.0120413 2.71051e-20 0.000886354 -0.0221984
-0.0120413 -2.71051e-20 0.000886355 0.143022
0.0120819 -2.71051e-20 0.00151675 -0.0221983
-0.0120819 -2.71051e-20 0.00151675 0.143022
0.0119435 -5.42101e-20 0.0026998 -0.0221985
-0.0119435 2.71051e-20 0.00269981 0.14302
-0.0122585 0 2.3573e-10 0.143023
0.0122586 6.77626e-21 2.35578e-10 -0.0221981
-0.012263 0 3.33749e-05 0.143023
0.012263 0 3.33336e-05 -0.0221981
0.0120908 0 0.00215656 -0.0221983
-0.0120908 -2.71051e-20 0.00215657 0.143022
-0.0122997 0 1.21629e-10 0.143023
0.0122997 0 1.21626e-10 -0.0221981
0.0123365 6.77626e-21 1.15206e-10 -0.022198
-0.0123366 0 1.152e-10 0.143023
0.0123381 0 2.92239e-05 -0.022198
-0.0123381 0 2.92618e-05 0.143023
0.0119751 -6.77626e-21 0.00303983 -0.0221983
-0.0119752 0 0.00303985 0.14302
-0.0123477 -1.12938e-21 0.000568688 0.143023
0.0123477 2.25875e-21 0.000568689 -0.0221981
0.0120031 -6.77626e-21 0.00299958 -0.0221983
-0.0120032 0 0.00299961 0.14302
0.0120142 6.77626e-21 0.00306058 -0.0221983
-0.0120143 0 0.00306059 0.14302
0.0120519 0 0.00308051 -0.0221983
-0.012052 0 0.00308052 0.14302
0.0120703 0 0.00304363 -0.0221983
-0.0120704 -6.77626e-21 0.00304365 0.14302
0.0123957 0 0.0011843 -0.0221981
-0.0123957 2.25875e-21 0.0011843 0.143023
0.0124154 2.82344e-22 0.00184243 -0.0221981
-0.0124154 -8.47033e-22 0.00184244 0.143022
0.0123819 4.51751e-22 0.00255904 -0.0221981
-0.0123819 2.25875e-22 0.00255905 0.143022
-0.012651 2.71051e-20 0.000272689 0.143025
0.012651 5.42101e-20 0.00027269 -0.0221978
0.012351 0 0.00296124 -0.022198
-0.012351 0 0.00296126 0.143021
-0.0126986 2.71051e-20 0.000851203 0.143025
0.0126986 0 0.000851203 -0.0221979
0.0127386 -2.71051e-20 0.00148681 -0.022198
-0.0127386 -2.71051e-20 0.00148681 0.143023
0.0124095 0 0.00326997 -0.022198
-0.0124095 0 0.00327 0.14302
0.0124312 6.77626e-21 0.00323664 -0.022198
-0.0124313 0 0.00323667 0.14302
0.0124457 0 0.00328913 -0.022198
-0.0124457 0 0.00328915 0.14302
-0.0124807 -6.77626e-21 0.00330749 0.14302
0.0124807 6.77626e-21 0.00330748 -0.022198
-0.0124951 -1.35525e-20 0.00327723 0.14302
0.0124951 0 0.00327721 -0.022198
0.0127374 -2.71051e-20 0.00217209 -0.022198
-0.0127374 2.71051e-20 0.0021721 0.143022
-0.0129741 1.69407e-21 5.65705e-12 0.143027
0.0129742 -1.69407e-21 5.64307e-12 -0.022198
-0.0129746 0 9.30702e-06 0.143027
0.0129747 -1.69407e-21 9.23962e-06 -0.022198
0.0126308 1.12938e-21 0.00298495 -0.0221979
-0.0126308 1.50584e-21 0.00298495 0.143021
-0.0129857 0 3.62845e-12 0.143027
0.0129857 -1.69407e-21 3.62927e-12 -0.022198
0.0129964 0 7.53328e-06 -0.022198
-0.0129965 0 7.58852e-06 0.143027
0.0129967 -1.69407e-21 3.57564e-12 -0.022198
-0.0129967 0 3.57443e-12 0.143027
-0.0130091 -5.64689e-22 0.000523311 0.143027
0.0130091 -1.12938e-21 0.000523314 -0.0221979
0.0130262 0 0.00111842 -0.0221978
-0.0130271 1.37643e-21 0.00111833 0.143026
0.012792 2.71051e-20 0.00274343 -0.0221977
-0.012792 -2.71051e-20 0.00274344 0.143023
0.0130595 -2.11758e-22 0.00107278 -0.0221978
-0.0130596 0 0.00107386 0.143026
0.0130623 2.11758e-22 0.00111573 -0.0221977
-0.0130622 0 0.00111377 0.143026
0.0127559 2.71051e-20 0.00321815 -0.0221979
-0.0127559 2.71051e-20 0.00321816 0.14302
0.0131777 1.69407e-21 2.72892e-12 -0.0221981
-0.0131792 -1.69407e-21 2.72161e-12 0.143028
0.0130706 0 0.00181595 -0.0221977
-0.0130706 -4.23516e-22 0.00181592 0.143024
0.0128312 0 0.00349147 -0.0221978
-0.0128312 0 0.00349149 0.143019
0.0128495 0 0.00346311 -0.0221978
-0.0128495 0 0.00346313 0.143019
0.0133093 2.71051e-20 0.000237079 -0.0221983
-0.0133094 -2.71051e-20 0.000237071 0.143029
0.0130829 -1.41172e-22 0.00247292 -0.0221976
-0.0130829 2.82344e-22 0.00247293 0.143023
0.0128663 0 0.00350989 -0.0221977
-0.0128663 0 0.0035099 0.143019
-0.0129008 0 0.00352796 0.143019
0.0129009 6.77626e-21 0.00352796 -0.0221977
0.0133557 0 0.000759633 -0.0221976
-0.0133557 2.71051e-20 0.000759629 0.14303
-0.0129238 0 0.00348629 0.143019
0.0129238 6.77626e-21 0.00348627 -0.0221977
0.0130385 5.64689e-22 0.00304616 -0.0221976
-0.0130385 -1.12938e-21 0.00304617 0.143021
0.013427 2.71051e-20 0.00137599 -0.0221976
-0.013427 2.71051e-20 0.00137599 0.143026
0.0134137 -2.71051e-20 0.00210976 -0.0221974
-0.0134137 -2.71051e-20 0.00210977 0.143026
0.013227 -5.42101e-20 0.00336662 -0.0221975
-0.013227 0 0.00336663 0.143019
-0.0136481 -1.97641e-21 0.000454494 0.143032
0.0136481 1.12938e-21 0.000454473 -0.0221977
0.0133902 2.71051e-20 0.00280378 -0.0221971
-0.0133902 -2.71051e-20 0.00280378 0.143023
0.013715 3.38813e-21 2.82164e-13 -0.0221981
-0.0137152 3.38813e-21 2.80922e-13 0.143031
0.0137158 0 2.07521e-05 -0.0221982
-0.013716 0 2.07043e-05 0.143031
0.0137164 3.38813e-21 0.000170439 -0.022198
-0.0137166 -3.38813e-21 0.000170058 0.143032
0.0137459 -3.38813e-21 2.39908e-14 -0.0221981
-0.0137461 -3.38813e-21 2.33451e-14 0.143031
0.0132451 0 0.0037083 -0.0221972
-0.0132451 0 0.00370831 0.143018
0.0137658 -3.38813e-21 1.53056e-05 -0.0221983
-0.0137659 -3.38813e-21 1.52695e-05 0.143031
0.0137673 3.38813e-21 1.74077e-14 -0.0221983
-0.0137675 3.38813e-21 1.67734e-14 0.143031
0.0132719 0 0.00367136 -0.0221972
-0.0132719 0 0.00367139 0.143018
0.0132783 0 0.00372567 -0.0221971
-0.0132783 6.77626e-21 0.00372568 0.143018
0.0137897 0 0.000885073 -0.0221972
-0.0137897 1.12938e-21 0.000885056 0.143032
0.0138209 -3.38813e-21 1.17098e-14 -0.0221982
-0.0138209 0 1.1123e-14 0.143031
-0.0133097 0 0.00374319 0.143018
0.0133097 -6.77626e-21 0.00374318 -0.0221971
-0.0133283 -6.77626e-21 0.0037104 0.143018
0.0133283 -6.77626e-21 0.00371039 -0.0221971
0.0137515 -5.64689e-22 0.00171046 -0.0221974
-0.0137515 2.82344e-22 0.00171046 0.143027
0.013678 0 0.00246318 -0.0221972
-0.0136781 -1.05879e-22 0.00246319 0.143025
0.013721 0 0.00246183 -0.0221971
-0.013721 1.93759e-20 0.00246184 0.143026
-0.0137186 -1.05879e-22 0.00248646 0.143025
0.0137186 0 0.00248652 -0.0221971
0.013662 -2.25875e-21 0.00322321 -0.0221969
-0.013662 4.51751e-22 0.00322321 0.14302
-0.013613 2.71051e-20 0.00362484 0.143018
0.013613 2.71051e-20 0.00362484 -0.0221967
0.0141334 2.82344e-22 0.000318972 -0.0221961
-0.0141334 -2.82344e-22 0.000318972 0.143036
0.014088 0 0.00127938 -0.0221974
-0.014088 2.71051e-20 0.00127938 0.143028
0.0140591 2.71051e-20 0.00206597 -0.0221971
-0.0140591 -2.71051e-20 0.00206597 0.143028
0.0136637 0 0.00393551 -0.0221968
-0.0136637 3.38813e-21 0.00393552 0.143014
0.0136787 0 0.00391519 -0.0221968
-0.0136787 3.38813e-21 0.00391522 0.143014
-0.0142352 -1.35525e-20 2.81664e-15 0.143036
0.0142352 -2.71051e-20 2.94789e-15 -0.0221965
0.0136843 -3.38813e-21 0.00394699 -0.0221968
-0.0136843 -3.38813e-21 0.00394698 0.143014
-0.0137016 0 0.00395979 0.143013
0.0137016 0 0.00395981 -0.0221968
-0.0137143 -3.38813e-21 0.00394399 0.143013
0.0137143 0 0.00394399 -0.0221968
-0.0140216 0 0.00281645 0.143025
0.0140216 0 0.00281645 -0.0221969
-0.013895 5.64689e-22 0.00367137 0.143015
0.0138951 1.12938e-21 0.00367137 -0.0221966
-0.0144216 -4.70574e-23 0.000792946 0.143034
0.0144217 1.41172e-22 0.000792946 -0.0221969
0.0144531 0 3.0858e-16 -0.0221981
-0.0144531 1.35525e-20 3.05013e-16 0.14303
0.0143962 -5.64689e-22 0.00165212 -0.022197
-0.0143962 -8.47033e-22 0.00165212 0.143029
-0.0140802 -2.71051e-20 0.00343826 0.143017
0.0140802 0 0.00343825 -0.0221963
-0.0140067 0 0.00392192 0.14301
0.0140067 0 0.00392194 -0.0221968
0.0143665 -2.11758e-22 0.00242468 -0.0221968
-0.0143665 0 0.00242468 0.143025
-0.0143623 2.11758e-22 0.00267465 0.143024
0.0143623 -2.11758e-22 0.00267497 -0.0221966
0.0140362 -1.69407e-21 0.00420871 -0.0221964
-0.0140362 1.69407e-21 0.00420869 0.143012
0.014043 0 0.00420186 -0.0221964
-0.014043 0 0.00420185 0.143012
-0.0140444 1.69407e-21 0.00421477 0.143012
0.0140443 -1.69407e-21 0.00421479 -0.0221964
-0.0140522 0 0.00422057 0.143012
0.0140522 -1.69407e-21 0.0042206 -0.0221963
-0.0140564 1.69407e-21 0.00421301 0.143012
0.0140564 -1.69407e-21 0.00421303 -0.0221963
-0.014684 -6.77626e-21 -1.73482e-17 0.143029
0.014684 2.71051e-20 -1.61167e-17 -0.0221972
0.0143544 -1.99053e-20 0.00313091 -0.0221964
-0.0143544 0 0.0031309 0.143022
-0.014361 0 0.00313026 0.143022
0.014361 4.23516e-22 0.00313027 -0.0221964
-0.0147037 -8.13152e-21 0.000271523 0.143028
0.0147038 -5.42101e-21 0.000271578 -0.0221975
-0.014356 0 0.00329991 0.14302
0.014356 0 0.00330011 -0.0221963
0.0147328 5.42101e-20 0.00124141 -0.0221965
-0.0147328 0 0.00124141 0.143034
-0.0146167 0 0.00238823 0.14302
0.0146174 2.11758e-22 0.00238811 -0.0221966
-0.0146909 -2.71051e-20 0.00203583 0.143024
0.0146909 0 0.00203583 -0.0221968
-0.0143356 4.03349e-23 0.00382206 0.143013
0.0143356 -4.03349e-23 0.00382208 -0.0221962
-0.0143244 0 0.00417019 0.143014
0.0143244 -2.71051e-20 0.00417021 -0.0221958
-0.0142789 -8.47033e-22 0.00438875 0.143012
0.0142791 0 0.0043889 -0.0221959
-0.0146906 -2.71051e-20 0.00275577 0.143023
0.0146906 -2.71051e-20 0.00275577 -0.0221963
0.0149563 1.41172e-22 0.00165196 -0.0221965
-0.0149571 -1.41172e-22 0.00165041 0.143022
-0.0146586 -2.71051e-20 0.00346816 0.143021
0.0146586 0 0.00346817 -0.022196
-0.0144053 -8.47033e-22 0.00448256 0.143012
0.0144084 0 0.00447898 -0.0221956
-0.015119 -6.77626e-21 -5.58821e-17 0.143023
0.0151193 -3.38813e-21 -5.55922e-17 -0.0221974
-0.0144514 -8.47033e-22 0.00451675 0.143011
0.0144515 -1.69407e-21 0.00451675 -0.0221955
-0.0151609 0 3.481e-05 0.143022
0.0151609 0 3.45974e-05 -0.0221975
-0.0151663 -3.38813e-21 -1.814e-17 0.143022
0.0151663 0 -1.80472e-17 -0.0221975
-0.0145673 3.76459e-22 0.00422607 0.143009
0.0145673 -7.52918e-22 0.00422609 -0.0221958
0.0151841 3.38813e-21 -1.09306e-17 -0.0221974
-0.0151841 3.38813e-21 -1.09842e-17 0.143022
-0.0151655 -6.77626e-21 0.000867911 0.143024
0.0151655 -5.64689e-21 0.000867908 -0.0221968
0.0152147 0 -1.10411e-17 -0.0221973
0.0152147 0 2.26993e-05 -0.0221973
-0.015215 6.77626e-21 -1.1094e-17 0.143022
-0.015215 0 2.28405e-05 0.143022
-0.0147125 2.71051e-20 0.00402551 0.143003
0.0147125 0 0.00402553 -0.0221963
-0.0150841 -4.23516e-22 0.0023135 0.143012
0.0150841 -4.23516e-22 0.0023135 -0.0221963
-0.0150901 -8.89385e-21 0.00232073 0.143012
0.015084 1.27055e-21 0.00232059 -0.0221963
-0.0149792 4.23516e-22 0.0031214 0.14301
0.0149792 -5.64689e-22 0.0031214 -0.0221959
-0.0146794 -5.42101e-20 0.00445851 0.14301
0.0146795 0 0.00445853 -0.0221953
-0.0149711 0 0.00367473 0.143006
0.0149711 0 0.00367494 -0.0221958
-0.0149706 0 0.00377567 0.143005
0.0149684 -2.96462e-21 0.00377781 -0.0221957
-0.0147268 0 0.00472093 0.143009
0.0147268 6.77626e-21 0.00472096 -0.0221951
-0.0147397 0 0.0047038 0.143009
0.0147397 6.77626e-21 0.00470382 -0.0221951
-0.0147494 6.77626e-21 0.00473772 0.143009
0.0147494 0 0.00473775 -0.0221951
0.015025 -2.11758e-22 0.00377792 -0.0221957
-0.0150252 1.05879e-21 0.00377791 0.143003
-0.0147753 0 0.0047569 0.14301
0.0147753 6.77626e-21 0.00475694 -0.022195
-0.0147957 -6.77626e-21 0.00471951 0.14301
0.0147957 0 0.00471954 -0.022195
-0.0149236 2.5411e-21 0.00432832 0.143006
0.0149238 2.11758e-22 0.00432831 -0.0221953
-0.0149307 2.11758e-22 0.0043143 0.143006
0.0149284 -8.47033e-21 0.00431372 -0.0221953
-0.0153071 0 0.00276682 0.142995
0.0153071 0 0.00276682 -0.0221959
-0.0149538 -2.11758e-22 0.00432332 0.143006
0.0149538 -2.11758e-22 0.00432332 -0.0221953
-0.0152762 2.71051e-20 0.00345527 0.142998
0.0152762 0 0.00345527 -0.0221955
-0.015665 5.42101e-20 0.00170495 0.142999
0.015665 0 0.00170495 -0.0221961
-0.0150897 -2.71051e-20 0.00463312 0.143011
0.0150898 0 0.00463317 -0.0221947
-0.0152566 0 0.00410558 0.142997
0.0152566 0 0.00410559 -0.0221951
0.0156482 -2.82344e-22 0.00239974 -0.0221958
-0.0156482 2.11758e-22 0.00239974 0.14298
-0.0150378 0 0.00495164 0.143019
0.0150379 -6.77626e-21 0.0049517 -0.0221946
-0.0158311 -5.42101e-20 0.000505741 0.143015
0.0158311 -5.42101e-20 0.000505742 -0.0221967
-0.0150929 0 0.00489488 0.143019
0.015093 0 0.00489493 -0.0221946
-0.0150892 -1.35525e-20 0.00498975 0.143022
0.0150893 0 0.00498982 -0.0221947
-0.015606 2.82344e-22 0.0031034 0.142976
0.015606 -2.82344e-22 0.00310341 -0.0221955
-0.0151438 0 0.00503029 0.143028
0.0151439 6.77626e-21 0.00503035 -0.0221946
-0.0151784 1.35525e-20 0.00496289 0.143027
0.0151785 1.35525e-20 0.00496294 -0.0221946
-0.0155884 -1.46819e-21 0.00378776 0.142979
0.0155884 3.38813e-22 0.00378777 -0.0221952
-0.0155033 -1.35525e-21 0.00450864 0.143005
0.0155033 2.25875e-22 0.00450867 -0.0221948
-0.0154178 0 0.00490558 0.143037
0.0154179 2.71051e-20 0.00490563 -0.0221944
-0.0159469 0 0.00273842 0.142956
0.0159469 5.42101e-20 0.00273842 -0.0221957
-0.0153971 -1.35525e-20 0.00521815 0.14303
0.0153972 2.03288e-20 0.00521821 -0.0221947
-0.015903 0 0.0034351 0.142953
0.015903 5.42101e-20 0.00343511 -0.022195
-0.0154387 -6.77626e-21 0.00517349 0.14303
0.0154387 0 0.00517354 -0.0221947
-0.0154377 6.77626e-21 0.00524824 0.143027
0.0154377 0 0.00524829 -0.0221948
0.0163344 -2.11758e-21 -1.19204e-18 -0.0221965
-0.0163357 0 -1.18554e-18 0.142992
-0.0154764 -6.77626e-21 0.00527693 0.143026
0.0154764 6.77626e-21 0.00527698 -0.0221949
-0.0155053 0 0.00524153 0.143026
0.0155053 1.35525e-20 0.00524158 -0.0221948
0.0163538 4.65868e-21 0.00112145 -0.0221961
-0.0163541 0 0.00112151 0.142978
-0.0158756 -2.71051e-20 0.0041209 0.142976
0.0158756 2.71051e-20 0.00412092 -0.0221954
0.0163767 9.95264e-21 0.00112763 -0.0221961
-0.0163741 -1.8423e-20 0.0011274 0.142978
-0.0156932 -7.52918e-22 0.00495312 0.143019
0.0156933 0 0.00495315 -0.0221947
0.0164701 4.23516e-22 3.15169e-06 -0.0221964
-0.0164637 0 2.60344e-06 0.142989
0.0163214 0 0.00227442 -0.0221957
-0.0163214 -1.12938e-21 0.00227442 0.142948
-0.0162376 -5.64689e-22 0.00307739 0.142939
0.0162376 1.01644e-21 0.0030774 -0.0221953
-0.0159046 -2.71051e-20 0.00473208 0.143
0.0159046 5.42101e-20 0.00473209 -0.0221946
-0.0157801 -2.71051e-20 0.00520579 0.14302
0.0157802 -2.71051e-20 0.00520583 -0.022195
-0.0162469 1.69407e-21 0.00372972 0.142947
0.0162469 1.12938e-21 0.00372973 -0.0221949
-0.0157745 0 0.00549808 0.143043
0.0157746 0 0.00549812 -0.0221951
-0.0158014 6.77626e-21 0.00547416 0.143044
0.0158015 0 0.00547419 -0.0221951
-0.0158049 6.77626e-21 0.00552063 0.143048
0.015805 0 0.00552067 -0.0221951
-0.0158346 6.77626e-21 0.00554267 0.143052
0.0158347 0 0.00554272 -0.0221952
-0.0158529 0 0.00551417 0.143052
0.015853 0 0.00551421 -0.0221951
-0.016198 0 0.00441893 0.142979
0.0161981 4.51751e-22 0.00441893 -0.022195
-0.0166697 0 0.00284041 0.14291
0.0166697 0 0.00284041 -0.022196
-0.0161695 -2.25875e-22 0.00510698 0.143036
0.0161695 4.51751e-22 0.00510701 -0.022195
-0.0166597 0 0.00328606 0.142906
0.0166597 2.71051e-20 0.00328607 -0.022195
-0.0165248 -2.71051e-20 0.00409519 0.142942
0.0165248 -2.71051e-20 0.00409519 -0.0221948
-0.0161206 2.71051e-20 0.00547661 0.143076
0.0161207 0 0.00547665 -0.0221951
-0.0170334 0 0.00057692 0.142963
0.0170334 5.42101e-20 0.00057692 -0.0221962
-0.0168874 8.47033e-22 0.00239017 0.142919
0.0168874 1.05879e-21 0.00239018 -0.0221956
-0.0169716 -5.42101e-20 0.00176735 0.142934
0.0169716 -5.42101e-20 0.00176735 -0.0221953
-0.0169179 2.11758e-22 0.00239497 0.142917
0.0169179 0 0.00239497 -0.0221956
0.016944 0 0.00239537 -0.0221956
-0.016944 -2.11758e-22 0.00239537 0.142917
-0.0168719 -1.35525e-20 0.00305894 0.142905
0.0168719 0 0.00305894 -0.0221953
-0.0161674 -6.77626e-21 0.00578953 0.143089
0.0161674 0 0.00578955 -0.0221953
-0.0165034 -2.71051e-20 0.00475625 0.143004
0.0165034 -2.71051e-20 0.00475627 -0.0221952
-0.0161836 0 0.00577012 0.143089
0.0161836 6.77626e-21 0.00577014 -0.0221953
-0.0161897 0 0.00580603 0.143091
0.0161897 0 0.00580606 -0.0221953
-0.0162121 0 0.00582272 0.143092
0.0162122 0 0.00582276 -0.0221954
-0.0162243 0 0.00580494 0.143092
0.0162243 -6.77626e-21 0.00580498 -0.0221953
0.0168523 3.38813e-22 0.00374134 -0.0221949
-0.0168523 -5.64689e-22 0.00374134 0.142922
-0.0163971 -4.23516e-22 0.00553967 0.143088
0.0163973 -7.05861e-22 0.00553971 -0.0221952
-0.0170978 2.71051e-20 0.00283719 0.142902
0.0170978 -2.71051e-20 0.00283719 -0.022196
-0.0170665 5.42101e-20 0.00327483 0.142896
0.0170665 0 0.00327483 -0.0221948
-0.0165625 0 0.0053276 0.143075
0.0165626 0 0.00532762 -0.022195
-0.0168336 -2.82344e-22 0.0044175 0.142969
0.0168336 -4.23516e-22 0.00441751 -0.0221952
-0.0164976 5.42101e-20 0.00578805 0.143107
0.0164976 -5.42101e-20 0.00578809 -0.0221954
-0.0168265 5.64689e-23 0.00506999 0.143053
0.0168265 0 0.00507002 -0.0221954
-0.0176289 0 1.51719e-05 0.14295
0.0176289 0 1.51704e-05 -0.0221959
-0.0176298 0 -6.83233e-23 0.14295
0.0176298 -3.38813e-21 -7.13675e-23 -0.0221959
-0.0176062 -5.64689e-22 0.00116021 0.142941
0.0176062 0 0.00116021 -0.0221956
-0.0176451 -3.38813e-21 -1.70835e-23 0.14295
0.0176451 0 -1.62781e-23 -0.0221959
-0.0171749 2.71051e-20 0.00405965 0.142922
0.0171749 2.71051e-20 0.00405966 -0.0221955
0.0176602 -3.38813e-21 1.5458e-05 -0.0221959
-0.0176602 0 1.54594e-05 0.142949
0.0176607 -3.38813e-21 -1.84889e-23 -0.0221959
-0.0176607 0 -1.92886e-23 0.142949
-0.0165809 0 0.00609702 0.143163
0.016581 -6.77626e-21 0.00609706 -0.022196
-0.0165981 6.77626e-21 0.00608064 0.143164
0.0165981 0 0.00608065 -0.022196
-0.016605 0 0.00611494 0.143171
0.0166051 0 0.00611499 -0.0221961
-0.0166198 0 0.00612719 0.143175
0.0166199 0 0.00612726 -0.0221961
-0.0166291 0 0.00611136 0.143175
0.0166292 0 0.00611141 -0.0221961
-0.0175901 1.12938e-21 0.00236116 0.142921
0.0175901 2.25875e-21 0.00236116 -0.0221955
-0.0166534 0 0.00615455 0.143184
0.0166535 -6.77626e-21 0.00615465 -0.0221963
-0.0168283 0 0.00572854 0.143152
0.0168284 0 0.00572855 -0.022196
-0.0175166 -2.82344e-22 0.00305113 0.142907
0.0175166 -2.11758e-22 0.00305113 -0.0221954
-0.0171428 5.42101e-20 0.0047344 0.143006
0.0171428 -2.71051e-20 0.00473441 -0.0221954
-0.017534 -1.12938e-21 0.00360681 0.142921
0.017534 0 0.00360681 -0.0221954
-0.0171172 2.71051e-20 0.00539736 0.143113
0.0171172 -2.71051e-20 0.00539737 -0.022196
0.01747 -1.12938e-22 0.00438795 -0.0221957
-0.01747 1.12938e-22 0.00438795 0.142971
-0.0168947 6.77626e-21 0.00636212 0.143251
0.0168947 2.03288e-20 0.00636216 -0.0221976
0.0170243 -2.82344e-22 0.00618637 -0.0221975
-0.0170257 -1.41172e-22 0.00618772 0.143251
-0.0174372 -1.41172e-21 0.00507024 0.143072
0.0174372 2.82344e-22 0.00507024 -0.0221962
-0.0182236 5.42101e-20 0.000583086 0.142936
0.0182236 5.42101e-20 0.000583086 -0.0221957
-0.0177925 5.42101e-20 0.00405319 0.142939
0.0177925 -2.71051e-20 0.00405319 -0.0221958
-0.018201 0 0.00177192 0.142932
0.018201 0 0.00177192 -0.0221952
-0.0173656 -1.807e-21 0.00581376 0.143216
0.0173656 9.03502e-22 0.00581378 -0.0221971
-0.0171242 0 0.00658581 0.143308
0.0171243 0 0.00658585 -0.0221979
-0.0177701 0 0.0047233 0.143023
0.0177701 -2.71051e-20 0.0047233 -0.0221962
-0.0171594 -6.77626e-21 0.0066222 0.143318
0.0171595 0 0.00662223 -0.022198
-0.0171745 -6.77626e-21 0.00660974 0.143318
0.0171746 -6.77626e-21 0.00660977 -0.022198
-0.0171745 6.77626e-21 0.00663768 0.143322
0.0171746 0 0.00663771 -0.0221981
-0.0181606 -1.0842e-19 0.00305643 0.142918
0.0181606 5.42101e-20 0.00305643 -0.022196
-0.01719 -6.77626e-21 0.00665349 0.143326
0.0171901 -6.77626e-21 0.00665351 -0.0221982
-0.0172014 0 0.00663722 0.143326
0.0172015 0 0.00663725 -0.0221982
-0.017284 0 0.00651866 0.143319
0.0172841 -6.77626e-21 0.00651871 -0.0221981
-0.0172277 -2.71051e-20 0.00669186 0.143334
0.0172278 -2.03288e-20 0.00669187 -0.0221983
0.0181252 0 0.00380809 -0.022197
-0.0181264 1.41172e-22 0.00381066 0.142937
-0.0177303 5.42101e-20 0.00540333 0.143145
0.0177303 0 0.00540334 -0.0221971
-0.0174485 6.02335e-21 0.00633776 0.143315
0.0174485 1.50584e-21 0.00633777 -0.0221981
-0.0181015 -5.64689e-22 0.00437909 0.142984
0.0181015 0 0.00437909 -0.022197
-0.0177286 0 0.00604036 0.143295
0.0177286 0 0.00604037 -0.0221979
-0.018075 5.64689e-22 0.00504762 0.143088
0.018075 5.64689e-22 0.00504762 -0.0221973
-0.0174666 1.35525e-20 0.00693497 0.1434
0.0174666 -6.77626e-21 0.00693498 -0.0222
-0.0188065 -3.38813e-21 1.62724e-05 0.142933
0.0188065 0 1.62692e-05 -0.0221952
-0.0188069 -3.38813e-21 2.0693e-24 0.142933
0.0188069 0 2.07223e-24 -0.0221952
0.0188233 0 -2.51176e-25 -0.0221952
-0.0188233 3.38813e-21 -2.48312e-25 0.142932
0.0188396 0 1.62245e-05 -0.0221952
-0.0188396 0 1.62278e-05 0.142932
0.0188397 0 -2.45884e-25 -0.0221952
-0.0188397 -3.38813e-21 -2.4307e-25 0.142932
-0.0188091 5.64689e-22 0.00116454 0.142941
0.0188091 0 0.00116454 -0.0221951
-0.0184387 -2.71051e-20 0.00403102 0.142934
0.0184387 0 0.00403102 -0.0221987
0.0176208 7.05861e-23 0.00677694 -0.0221999
-0.0176216 -1.41172e-22 0.00677769 0.143403
-0.0180488 5.64689e-22 0.00571123 0.143218
0.0180488 -1.12938e-21 0.00571124 -0.0221982
-0.018794 0 0.00239227 0.14294
0.018794 0 0.00239227 -0.0221959
-0.0184023 2.71051e-20 0.0046998 0.143039
0.0184023 0 0.0046998 -0.0221974
-0.0179596 2.63521e-21 0.00643086 0.143351
0.0179596 4.14105e-21 0.00643087 -0.0221992
-0.0177051 6.77626e-21 0.00717768 0.143407
0.0177052 0 0.0071777 -0.0222002
-0.0177437 0 0.00721691 0.14341
0.0177437 0 0.00721692 -0.0222003
-0.0184015 2.71051e-20 0.00534889 0.143144
0.0184015 2.71051e-20 0.0053489 -0.0221986
-0.0177602 0 0.007205 0.14341
0.0177602 0 0.00720502 -0.0222003
-0.0177596 0 0.0072331 0.143411
0.0177596 0 0.00723311 -0.0222004
0.0188295 7.05861e-23 0.00373126 -0.0221981
-0.0177751 6.77626e-21 0.00724887 0.143411
0.0177751 0 0.00724887 -0.0222005
-0.0188307 4.23516e-22 0.00373001 0.142936
-0.017788 0 0.0072329 0.143411
0.017788 0 0.00723291 -0.0222005
-0.018738 -4.23516e-22 0.00435322 0.142973
0.018738 8.04681e-21 0.00435322 -0.0221985
-0.0187376 -4.23516e-22 0.00436113 0.142973
0.0187376 1.69407e-21 0.00436113 -0.0221985
0.0178113 6.77626e-21 0.00728567 -0.0222007
-0.0178113 -6.77626e-21 0.00728567 0.14341
0.0178795 0 0.00711716 -0.0222004
-0.0178795 6.77626e-21 0.00711713 0.143409
-0.0183488 -2.71051e-20 0.00603424 0.143283
0.0183488 0 0.00603425 -0.0221992
-0.0180549 -1.50584e-21 0.00694833 0.143408
0.0180549 1.50584e-21 0.00694833 -0.0222004
0.0194128 5.42101e-20 0.000584031 -0.0221947
-0.0194128 -5.42101e-20 0.000584031 0.142928
-0.018803 5.64689e-22 0.00493677 0.143069
0.018803 2.82344e-22 0.00493677 -0.0221989
0.0194073 0 0.00177875 -0.0221949
-0.0194073 1.0842e-19 0.00177875 0.142968
-0.0183455 -2.71051e-20 0.00666212 0.143395
0.0183455 -2.71051e-20 0.00666213 -0.0222002
-0.0186965 -5.64689e-22 0.00568331 0.143188
0.0186965 -1.69407e-21 0.00568331 -0.0221997
-0.0180388 6.77626e-21 0.007517 0.143424
0.0180388 0 0.007517 -0.0222025
0.0194176 1.0842e-19 0.0030161 -0.0221975
-0.0194176 -5.42101e-20 0.0030161 0.142941
-0.0182202 -4.70574e-22 0.00737491 0.143425
0.0182202 -1.8823e-22 0.00737492 -0.0222023
-0.0186656 1.12938e-21 0.00633956 0.143296
0.0186656 5.64689e-22 0.00633956 -0.0222004
-0.0190338 0 0.00534623 0.143107
0.0190338 -2.71051e-20 0.00534623 -0.0222003
-0.0185755 9.03502e-22 0.00702539 0.143369
0.0185755 -2.48463e-21 0.0070254 -0.0222013
0.0193824 5.42101e-20 0.00433462 -0.0221999
-0.0193824 -5.42101e-20 0.00433462 0.142935
0.0182812 -3.38813e-21 0.00776358 -0.0222022
-0.0182812 -3.38813e-21 0.00776358 0.143363
-0.0182994 0 0.00778213 0.14336
0.0182994 -3.38813e-21 0.00778213 -0.0222022
-0.0183082 0 0.0077765 0.14336
0.0183082 0 0.0077765 -0.0222022
-0.018307 3.38813e-21 0.00778984 0.143358
0.018307 -3.38813e-21 0.00778984 -0.0222023
-0.0183179 3.38813e-21 0.00780096 0.143354
0.0183179 0 0.00780096 -0.0222023
-0.0183258 0 0.00779182 0.143354
0.0183258 3.38813e-21 0.00779182 -0.0222023
-0.0190083 2.71051e-20 0.00599366 0.143221
0.0190083 0 0.00599366 -0.0222006
-0.0184198 1.69407e-21 0.00771698 0.143353
0.0184198 1.69407e-21 0.00771698 -0.0222023
0.019989 0 1.55553e-05 -0.0221936
-0.019989 0 1.55539e-05 0.142916
0.019989 0 -4.71581e-27 -0.0221936
-0.019989 0 -4.67143e-27 0.142916
0.0193663 -1.8823e-22 0.00500042 -0.022201
-0.0193663 -9.41148e-23 0.00500042 0.142959
-0.0200048 0 3.46884e-28 0.142916
0.0200048 0 3.51204e-28 -0.0221936
-0.0200207 0 3.3811e-28 0.142915
0.0200207 0 3.42345e-28 -0.0221935
-0.0200208 0 1.54798e-05 0.142915
0.0200208 0 1.54814e-05 -0.0221935
-0.0200101 5.64689e-22 0.0011652 0.142936
0.0200101 -5.64689e-22 0.0011652 -0.022194
0.0189752 2.71051e-20 0.00665313 -0.0222014
-0.0189752 0 0.00665313 0.143283
-0.0184856 -1.69407e-21 0.00797148 0.143304
0.0184856 1.69407e-21 0.00797148 -0.0222028
-0.0193439 5.64689e-22 0.00565424 0.143051
0.0193439 0 0.00565424 -0.0222013
-0.0186909 4.06576e-21 0.00754644 0.143339
0.0186909 2.25875e-21 0.00754644 -0.0222024
-0.020018 2.82344e-22 0.00238483 0.142923
0.020018 8.47033e-22 0.00238483 -0.022196
-0.0186426 -2.71051e-20 0.0078697 0.143306
0.0186426 2.71051e-20 0.0078697 -0.0222028
-0.0193211 -1.12938e-21 0.006303 0.14315
0.0193211 5.64689e-22 0.006303 -0.0222017
0.0189891 8.13152e-20 0.00726764 -0.0222023
-0.0189891 0 0.00726763 0.143317
0.020019 -9.74088e-21 0.0036605 -0.0221992
-0.020019 -3.47284e-20 0.0036605 0.142833
0.0200253 4.23516e-22 0.0036605 -0.0221992
-0.0200254 4.23516e-22 0.00366706 0.142832
-0.0186572 0 0.00814596 0.143253
0.0186572 3.38813e-21 0.00814596 -0.0222032
-0.0186658 3.38813e-21 0.00813527 0.143254
0.0186658 3.38813e-21 0.00813527 -0.0222032