# U  POINT_DATA 25334
# x  y  z  U_x  U_y  U_z
-6.77626e-21 0.057587 1.35324e-07 0 0 0
6.77626e-21 -0.057587 1.35324e-07 0 0 0
0 0.0575869 0.000409944 0 0 0
-3.38813e-21 -0.0575869 0.000409944 0 0 0
-1.69407e-21 0.0575869 0.000633503 0 0 0
-1.69407e-21 -0.0575869 0.000633504 0 0 0
0 0.0575868 0.00104356 0 0 0
-3.38813e-21 -0.0575868 0.00104356 0 0 0
5.0822e-21 0.0575868 0.00145414 0 0 0
-1.69407e-21 -0.0575868 0.00145414 0 0 0
0 0.0575868 0.00167624 0 0 0
-1.69407e-21 -0.0575868 0.00167624 0 0 0
0 0.0575868 0.002087 0 0 0
0 -0.0575868 0.002087 0 0 0
0 0.0577686 0.000993823 -3.14184e-05 0.000121885 7.35101e-07
6.77626e-21 -0.0577686 0.000993824 0.00019376 -0.000944688 -2.0727e-05
6.77626e-21 0.0577684 0.00110476 -4.40316e-05 0.000205764 -1.97278e-07
6.77626e-21 -0.0577684 0.00110476 0.000241887 -0.00122409 1.35143e-05
0 0.0577859 0.000103261 -3.43517e-05 0.000133265 8.03734e-07
0 -0.0577859 0.000103261 0.000211851 -0.00103289 -2.26623e-05
0 0.0577942 1.15393e-07 0 0 0
-6.77626e-21 -0.0577942 1.15393e-07 0 0 0
0 0.0578027 1.90097e-05 2.64986e-08 5.37613e-07 2.94988e-07
0 -0.0578027 1.90097e-05 5.89936e-05 -0.000416883 -1.5034e-05
-6.77626e-21 -0.0578191 1.14264e-07 0 0 0
0 0.0578191 1.14264e-07 0 0 0
0 0.0577853 0.00199426 -4.81573e-05 0.000225044 -2.15763e-07
0 -0.0577853 0.00199426 0.000264552 -0.00133879 1.47806e-05
0 0.0577823 0.002105 0 0 0
0 -0.0577823 0.002105 0 0 0
6.77626e-21 -0.057823 0.00105089 0.000256652 -0.00130768 1.23206e-06
0 0.057823 0.00105089 -3.85492e-05 0.000212657 -1.9949e-06
0 0.0578007 0.00208013 -2.36566e-05 0.000142506 2.00085e-06
0 -0.0578007 0.00208013 0.000137558 -0.000802977 7.93087e-06
6.77626e-21 -0.0578427 5.77484e-05 0.000200255 -0.000979951 1.66591e-05
0 0.0578427 5.77488e-05 -2.43549e-05 0.000124698 2.87303e-06
0 0.0578443 1.78371e-05 -7.72165e-07 1.14099e-06 5.82994e-07
0 -0.0578443 1.78368e-05 7.24907e-05 -0.000441882 -8.99431e-06
-6.77626e-21 0.0578469 1.13152e-07 0 0 0
-6.77626e-21 -0.0578469 1.13152e-07 0 0 0
0 -0.0578171 0.0021082 0 0 0
6.77626e-21 0.0578171 0.0021082 0 0 0
6.77626e-21 -0.0578434 0.00204427 0.000261146 -0.0013504 -2.42456e-05
0 0.0578434 0.00204427 -4.2378e-05 0.000230511 -6.58811e-06
-6.77626e-21 -0.0578462 0.00208444 0.000141942 -0.000945718 -5.99237e-07
0 0.0578462 0.00208444 -2.52915e-05 0.000165226 -6.02647e-07
6.77626e-21 -0.0578583 0.002112 0 0 0
-6.77626e-21 0.0578583 0.002112 0 0 0
3.38813e-21 -0.0579123 0.000912335 0.000311591 -0.00177193 -3.1673e-05
0 0.0579123 0.000912331 -4.32583e-05 0.000228965 -4.56945e-07
6.77626e-21 0.0579215 5.62283e-05 1.44018e-07 7.90711e-07 -4.19674e-06
0 -0.0579215 5.62253e-05 0.000187903 -0.000752772 -4.58704e-05
-3.38813e-21 -0.0579146 0.00119726 0.000430459 -0.00228244 -3.68102e-05
0 0.0579146 0.00119726 -7.74917e-05 0.000399585 -1.30985e-05
6.77626e-21 -0.0579295 1.06809e-07 0 0 0
-6.77626e-21 0.0579295 1.06808e-07 0 0 0
6.77626e-21 -0.0579351 0.000246057 0.000333173 -0.00189466 -3.38667e-05
-3.38813e-21 0.0579351 0.000246061 -4.62544e-05 0.000244823 -4.88592e-07
-6.77626e-21 -0.0579259 0.00205413 0.000405033 -0.0017005 -9.08136e-05
0 0.0579259 0.00205413 -6.54575e-05 0.000267661 -1.69785e-05
3.38813e-21 -0.0579372 0.00186069 0.000460253 -0.00244042 -3.9358e-05
-3.38813e-21 0.0579372 0.00186068 -8.28548e-05 0.00042724 -1.40051e-05
0 -0.0579652 0.00212184 0 0 0
-6.77626e-21 0.0579652 0.00212184 0 0 0
0 -0.0580743 1.10803e-07 0 0 0
6.77626e-21 0.0580744 1.10802e-07 0 0 0
-2.25875e-21 0.0581721 0.000610602 -7.90767e-05 0.000418551 -8.353e-07
0 -0.0581721 0.000610603 0.000569599 -0.00323915 -5.78992e-05
2.25875e-21 0.0581735 0.00151342 -0.000140921 0.000726656 -2.382e-05
4.51751e-21 -0.0581735 0.00151342 0.000782812 -0.00415073 -6.69412e-05
-8.47033e-22 -0.0581934 0.00214283 0 0 0
2.5411e-21 0.0581934 0.00214284 0 0 0
-6.77626e-21 0.058277 1.16391e-07 0 0 0
-1.01644e-20 -0.058277 1.16394e-07 0 0 0
-1.35525e-20 0.0583193 0.000123003 3.15347e-07 1.73136e-06 -9.1893e-06
0 -0.0583193 0.000122998 0.000411442 -0.00164831 -0.00010044
-5.0822e-21 0.0582823 0.00215102 0 0 0
0 -0.0582823 0.00215102 0 0 0
-1.35525e-20 -0.0583281 0.00201516 0.000885293 -0.00371684 -0.000198494
-1.35525e-20 0.0583281 0.00201516 -0.000143071 0.000585029 -3.711e-05
-2.71051e-20 -0.0583808 0.00028652 0.000847336 -0.00387077 0.000145915
0 0.0583808 0.000286525 -0.00010002 0.000486599 2.3159e-05
0 -0.058383 0.00106967 0.00114474 -0.00584816 -2.96617e-05
1.35525e-20 0.058383 0.00106967 -0.000166535 0.000931669 -8.49245e-06
0 -0.0583862 0.00185752 0.00112716 -0.00548229 -0.000260875
-1.35525e-20 0.0583862 0.00185751 -0.000172598 0.000898634 -4.41371e-05
-1.35525e-20 0.0584351 1.20751e-07 0 0 0
0 -0.0584351 1.20753e-07 0 0 0
1.35525e-20 -0.0584724 0.00216851 0 0 0
1.35525e-20 0.0584724 0.00216852 0 0 0
2.63521e-21 0.0585878 0.000684244 -0.000118593 0.000681943 1.41103e-05
3.76459e-22 -0.0585878 0.000684244 0.000918699 -0.00549642 -2.33161e-05
0 0.0586022 0.000178782 1.18163e-05 -9.48599e-07 -9.45398e-06
0 -0.0586022 0.000178773 0.000362666 -0.00212595 -5.54555e-05
5.64689e-22 0.0585913 0.00147246 -0.000186186 0.0011681 -1.86833e-05
-1.12938e-21 -0.0585913 0.00147246 0.00123853 -0.00725229 -0.000140936
3.38813e-21 0.0586253 8.46437e-05 5.59118e-06 -4.48852e-07 -4.47338e-06
0 -0.0586254 8.46169e-05 0.000171558 -0.00100567 -2.62331e-05
2.37169e-20 0.0586311 9.46985e-08 0 0 0
-3.38813e-21 -0.0586312 9.47002e-08 0 0 0
0 -0.058614 0.00198099 0.00115226 -0.0050891 -0.000269113
3.38813e-21 0.058614 0.00198098 -0.000165849 0.000811867 -4.0959e-05
6.77626e-21 -0.0586389 0.00205688 0.000729399 -0.00322148 -0.000170353
3.38813e-21 0.0586389 0.00205686 -0.000104994 0.000513968 -2.59299e-05
6.77626e-21 -0.0586526 0.0021851 0 0 0
-2.03288e-20 0.0586526 0.00218511 0 0 0
1.35525e-20 0.0587867 7.40281e-08 0 0 0
0 -0.0587868 7.40288e-08 0 0 0
1.35525e-20 0.0587871 0.00108477 -0.000224938 0.00128267 -8.07313e-06
-1.35525e-20 -0.0587871 0.00108477 0.00151832 -0.00810336 -1.95022e-05
0 0.0588138 0.000419265 -0.00013507 0.000768027 9.46945e-06
-1.35525e-20 -0.0588138 0.00041926 0.00111061 -0.00592622 0.000109609
-1.35525e-20 0.0587904 0.00219778 0 0 0
0 -0.0587904 0.00219778 0 0 0
0 0.0588211 0.00175677 -0.000234153 0.0013316 -2.46317e-05
-1.35525e-20 -0.0588211 0.00175678 0.00148941 -0.00804945 -0.000200701
-2.25875e-21 0.0589944 0.000754327 -0.000152544 0.000920971 1.05818e-05
0 -0.0589944 0.000754324 0.00126657 -0.00730836 5.44277e-05
0 0.0589983 0.00142976 -0.000250996 0.00152796 8.28401e-06
-6.77626e-21 -0.0589983 0.00142976 0.00157243 -0.00937819 4.3625e-05
-6.77626e-21 0.0590078 0.0022178 0 0 0
0 -0.0590078 0.0022178 0 0 0
6.77626e-21 0.0590549 8.35179e-08 0 0 0
-1.01644e-20 -0.0590549 8.35183e-08 0 0 0
0 0.0590696 0.000188906 2.84026e-06 4.92587e-06 4.56575e-07
-6.77626e-21 -0.0590696 0.000188907 0.000476506 -0.00337169 -4.02169e-06
-3.38813e-20 0.0590838 8.57393e-08 0 0 0
-2.03288e-20 -0.0590838 8.57399e-08 0 0 0
-6.77626e-21 0.05908 0.00199662 -0.000184193 0.00113502 8.2207e-06
0 -0.05908 0.00199663 0.00112606 -0.00664783 2.93452e-05
6.77626e-21 0.059078 0.00212655 -7.89985e-05 0.0004868 3.52577e-06
6.77626e-21 -0.059078 0.00212657 0.000482876 -0.00285072 1.25838e-05
0 -0.0591581 0.00223163 0 0 0
-6.77626e-21 0.0591581 0.00223164 0 0 0
0 0.0593378 9.41278e-08 0 0 0
2.71051e-20 -0.0593378 9.41278e-08 0 0 0
4.51751e-21 -0.0593529 0.000581997 0.00141206 -0.00766121 6.11219e-05
-4.51751e-21 0.0593529 0.000581997 -0.000162207 0.00090761 6.80089e-06
-2.25875e-21 -0.0593596 0.00110181 0.00203643 -0.0109578 0.000142738
4.51751e-21 0.0593596 0.00110181 -0.000302887 0.00168121 1.53098e-05
-4.51751e-21 -0.0593591 0.00162171 0.00186851 -0.0104911 0.000161922
-2.25875e-21 0.0593591 0.00162171 -0.00030524 0.00173294 1.7821e-05
-1.35525e-20 0.059356 0.00224986 0 0 0
1.35525e-20 -0.059356 0.00224986 0 0 0
0 0.0594897 0.00226217 0 0 0
1.35525e-20 -0.0594898 0.00226217 0 0 0
-1.01644e-20 0.0596053 7.49137e-08 0 0 0
1.35525e-20 -0.0596053 7.49137e-08 0 0 0
6.77626e-21 -0.0596378 6.72747e-05 0.000238767 -0.00132 5.12797e-06
3.38813e-21 0.0596378 6.72778e-05 3.25389e-07 2.16014e-06 1.32986e-07
0 -0.0596391 0.000281382 0.000843445 -0.00466153 2.14066e-05
0 0.0596391 0.000281381 -1.39111e-05 9.28279e-05 1.20016e-06
1.35525e-20 0.0596522 0.000750578 -0.000286931 0.00154261 4.52486e-06
1.35525e-20 -0.0596522 0.000750579 0.00212367 -0.0108682 9.47743e-05
2.03288e-20 -0.0596652 7.43486e-08 0 0 0
-3.38813e-21 0.0596653 7.43486e-08 0 0 0
0 -0.0596556 0.00146978 0.0024512 -0.0131133 0.000287161
1.35525e-20 0.0596556 0.00146978 -0.000395997 0.00216917 2.23789e-05
0 -0.0596502 0.00197793 0.00149654 -0.00838411 0.000128185
-1.12938e-21 0.0596502 0.00197793 -0.000261817 0.00141523 3.59369e-07
-6.77626e-21 -0.0598456 0.00229492 0 0 0
0 0.0598456 0.00229493 0 0 0
0 -0.0599214 5.86731e-08 0 0 0
2.71051e-20 0.0599214 5.86731e-08 0 0 0
0 -0.0599318 0.00059675 0.00179588 -0.009434 4.426e-05
-4.51751e-21 0.0599318 0.000596749 -0.000205124 0.00111695 5.1582e-06
-2.25875e-21 -0.0599376 0.0016364 0.00243032 -0.0131854 0.000273288
-1.12938e-21 0.0599376 0.0016364 -0.000402382 0.00220722 1.7041e-05
3.38813e-22 0.0599523 0.00111694 -0.000400958 0.00219443 1.51831e-05
6.77626e-22 -0.0599523 0.00111694 0.00266132 -0.0140096 0.000204455
0 -0.0599299 0.00230268 0 0 0
6.77626e-21 0.0599299 0.00230269 0 0 0
6.77626e-21 0.0599889 0.00230811 0 0 0
0 -0.0599889 0.00230811 0 0 0
-1.35525e-20 0.0601336 6.5621e-08 0 0 0
-1.35525e-20 -0.0601336 6.56212e-08 0 0 0
5.64689e-21 -0.0602132 0.00025242 0.00092255 -0.00509199 -3.8797e-05
1.12938e-21 0.0602132 0.000252421 -6.32519e-06 4.37085e-05 1.62001e-07
0 -0.0602294 0.000784336 0.00260014 -0.0136125 6.41412e-05
4.06576e-20 0.0602294 0.000784336 -0.000360116 0.00197755 1.14476e-05
2.71051e-20 0.0602309 0.00146544 -0.000484795 0.00269393 2.20282e-05
0 -0.0602309 0.00146544 0.00297848 -0.0160838 0.000355558
-1.35525e-20 -0.0602724 6.43012e-08 0 0 0
1.35525e-20 0.0602724 6.4301e-08 0 0 0
8.47033e-22 0.0602423 0.00197228 -0.000349697 0.00187323 1.18682e-05
1.41172e-22 -0.0602423 0.00197228 0.00198261 -0.0109817 0.000215672
-5.42101e-20 -0.060476 6.96062e-08 0 0 0
2.71051e-20 0.060476 6.96059e-08 0 0 0
-3.76459e-22 0.0604796 0.000600016 -0.000229569 0.00128596 1.19324e-05
0 -0.0604796 0.000600017 0.00203697 -0.0110571 1.77264e-05
-5.0822e-21 -0.0604892 0.00235417 0 0 0
0 0.0604957 0.00235477 0 0 0
-4.23516e-22 0.0605072 0.00234081 -1.4012e-05 8.23399e-05 1.80532e-06
0 -0.0605072 0.00234076 8.13574e-05 -0.000488911 1.03939e-05
-2.25875e-21 -0.0605575 0.00113185 0.00307498 -0.0167144 0.000224661
3.38813e-21 0.0605575 0.00113185 -0.000462797 0.00265515 1.90823e-05
0 -0.0605507 0.0016269 0.00285261 -0.0158834 0.000301023
-2.25875e-21 0.0605507 0.0016269 -0.000471149 0.0026853 1.81317e-05
4.23516e-22 0.0605417 0.002359 0 0 0
-4.23516e-21 -0.0605419 0.00235902 0 0 0
0 0.0606726 5.84245e-08 0 0 0
0 -0.0606726 5.84247e-08 0 0 0
2.82344e-22 0.0608243 0.000288714 -8.43595e-06 6.38587e-05 3.59575e-06
-8.47033e-22 -0.0608243 0.000288713 0.00100515 -0.0066913 -0.000167697
-1.12938e-21 -0.0608389 0.00196308 0.00226126 -0.013369 0.000258759
0 0.0608389 0.00196307 -0.000389858 0.00228475 3.64104e-05
1.35525e-20 -0.0608907 5.77036e-08 0 0 0
1.35525e-20 0.0608907 5.77035e-08 0 0 0
0 0.061022 0.000858086 -0.000423436 0.00254491 3.33605e-05
-9.03502e-21 -0.061022 0.000858088 0.00315829 -0.0170975 0.000219017
-4.51751e-21 -0.0610196 0.00143519 0.00352637 -0.0196832 0.000236467
9.03502e-21 0.0610196 0.00143519 -0.000552108 0.00329772 -2.54656e-06
0 -0.0610807 4.8073e-08 0 0 0
2.71051e-20 0.0610807 4.80731e-08 0 0 0
0 0.0610586 0.00240653 0 0 0
3.38813e-21 -0.0610587 0.00240653 0 0 0
-6.77626e-21 0.0610729 0.00238498 -3.65636e-05 0.000189819 -1.2284e-07
0 -0.0610729 0.00238499 0.000189351 -0.00107288 1.38924e-05
0 -0.0610955 0.00240991 0 0 0
-3.38813e-21 0.0610955 0.00240992 0 0 0
-1.01644e-20 -0.0610995 0.00235724 0.000294953 -0.00164168 2.16806e-05
3.38813e-21 0.0610995 0.00235723 -5.34591e-05 0.000299347 -4.07823e-07
0 -0.0611235 0.00238842 0.000206316 -0.00117346 1.28493e-05
3.38813e-21 0.0611235 0.00238841 -4.00049e-05 0.000210047 -3.94265e-07
-3.38813e-21 -0.0611365 0.0024137 0 0 0
-3.38813e-21 0.0611365 0.00241371 0 0 0
-2.71051e-20 0.0612633 0.00060671 -0.000296294 0.00154156 2.44797e-05
-2.71051e-20 -0.0612633 0.00060671 0.00256949 -0.0128151 0.000204141
0 -0.0612584 0.00172072 0.00314048 -0.0167159 6.20413e-05
2.71051e-20 0.0612584 0.00172072 -0.00053033 0.00288728 -2.88211e-05
0 0.0612896 0.00114624 -0.000557035 0.00306045 -6.33366e-06
0 -0.0612897 0.00114624 0.00365141 -0.0188719 0.000200962
1.35525e-20 0.0613382 3.75142e-08 0 0 0
0 -0.0613382 3.75134e-08 0 0 0
2.35287e-22 -0.0614691 0.000272863 0.0012047 -0.00714055 -0.000107181
1.8823e-22 0.0614691 0.000272864 -1.48632e-05 4.55257e-05 7.93055e-06
-6.77626e-21 -0.0614658 0.00200456 0.00251282 -0.0146731 0.000214499
0 0.0614659 0.00200455 -0.000455097 0.00256179 1.87661e-05
1.35525e-20 -0.0615061 3.67847e-08 0 0 0
0 0.0615061 3.67853e-08 0 0 0
6.77626e-21 0.0615545 0.000876367 -0.000524993 0.00285059 -2.85146e-05
0 -0.0615545 0.000876369 0.0036824 -0.0191798 0.000292951
-2.25875e-21 -0.0615509 0.0014501 0.00399957 -0.0219151 0.000163762
-2.25875e-21 0.0615509 0.00145009 -0.00065047 0.0036608 -3.30175e-05
0 0.061707 0.00246619 0 0 0
0 -0.061707 0.00246619 0 0 0
0 0.0617173 0.00245304 -2.34135e-05 0.000122934 -2.3075e-07
-3.38813e-21 -0.0617173 0.00245304 0.000120714 -0.000686584 7.51803e-06
0 -0.0617319 0.0024685 0 0 0
0 0.0617319 0.00246851 0 0 0
0 -0.0617337 0.00243689 0.000185961 -0.00102316 1.07521e-05
1.35525e-20 0.0617337 0.00243687 -3.45395e-05 0.000188834 -7.14011e-07
0 -0.0617481 0.00245432 0.000144017 -0.000806399 5.73935e-06
0 0.0617481 0.00245432 -2.99653e-05 0.000144223 -1.23218e-06
0 -0.0617556 0.00247067 0 0 0
0 0.0617556 0.00247068 0 0 0
-2.71051e-20 -0.0618119 0.000576129 0.00289359 -0.0139475 0.000273161
2.71051e-20 0.0618119 0.000576127 -0.000327272 0.00167186 1.41107e-05
-2.71051e-20 0.0618207 1.81822e-08 0 0 0
0 -0.0618207 1.81785e-08 0 0 0
-2.71051e-20 0.0618057 0.00179067 -0.000584674 0.00316028 -3.8582e-05
0 -0.0618057 0.00179067 0.00342814 -0.0181565 -3.34848e-05
1.54886e-20 -0.0618911 0.00110231 0.00420291 -0.0213977 0.000176804
-7.7443e-21 0.0618911 0.0011023 -0.000629409 0.00335138 -1.27411e-05
8.13152e-21 -0.0620668 0.000803568 0.0040818 -0.0203121 0.000249205
-2.1684e-20 0.0620668 0.000803563 -0.000570358 0.00295017 7.17603e-06
-9.03502e-21 -0.0620551 0.00147845 0.0044581 -0.0237656 0.000147001
-4.51751e-21 0.0620551 0.00147845 -0.000745188 0.00402419 -1.55612e-05
-1.01644e-20 -0.062113 1.60866e-08 0 0 0
-2.71051e-20 0.062113 1.60885e-08 0 0 0
1.12938e-21 -0.0620964 0.00208092 0.00302138 -0.0161767 8.24497e-05
-7.90564e-21 0.0620964 0.00208092 -0.00053121 0.00283103 -2.12078e-05
4.51751e-21 -0.0621537 0.000297909 0.0018822 -0.00878875 -3.09852e-05
-7.90564e-21 0.0621538 0.000297901 -4.89921e-05 0.000240167 -3.13771e-06
0 -0.0621775 1.5659e-08 0 0 0
-3.38813e-21 0.0621776 1.56603e-08 0 0 0
0 -0.0621833 0.00251002 0 0 0
0 0.0621834 0.00251003 0 0 0
0 -0.0621909 0.00249518 0.000142882 -0.000800045 5.69413e-06
0 0.062191 0.00249518 -2.97378e-05 0.000143127 -1.22282e-06
1.35525e-20 -0.0622064 0.0024796 0.000193698 -0.00106206 1.10421e-05
0 0.0622065 0.00247958 -3.59322e-05 0.000200032 -4.16743e-07
3.38813e-21 -0.062211 0.00251256 0 0 0
0 0.0622111 0.00251257 0 0 0
3.38813e-21 -0.0622439 0.00247191 0.000343926 -0.0020775 -6.55127e-06
1.69407e-21 0.062244 0.00247188 -5.94853e-05 0.000391593 -7.29093e-06
2.71051e-20 -0.062464 1.36278e-08 0 0 0
2.71051e-20 0.0624641 1.36269e-08 0 0 0
-9.03502e-21 -0.0624707 0.000665047 0.00372991 -0.0186144 0.000146122
1.807e-20 0.0624707 0.000665044 -0.000464921 0.00244824 1.24059e-05
1.12938e-21 -0.062477 0.00119048 0.00479131 -0.0246481 0.000265644
-1.12938e-21 0.062477 0.00119047 -0.000746963 0.00398457 1.73009e-05
-1.69407e-20 -0.062456 0.00253512 0 0 0
3.38813e-21 0.0624561 0.00253513 0 0 0
0 -0.0624641 0.00247935 0.000445001 -0.00268805 -8.47659e-06
3.38813e-21 0.0624642 0.00247932 -7.69323e-05 0.000506447 -9.42936e-06
9.03502e-21 -0.0625428 0.00182288 0.00372977 -0.0206437 0.000153477
-6.77626e-21 0.0625428 0.00182287 -0.000639134 0.0036324 -9.08976e-06
9.03502e-21 -0.0625479 0.00223393 0.00216651 -0.0129762 -3.14598e-05
0 0.0625479 0.00223393 -0.000376167 0.00237296 -3.60624e-05
6.77626e-21 0.0626457 0.0024718 -0.000109835 0.000723044 -1.34621e-05
-1.35525e-20 -0.0626457 0.00247184 0.000635373 -0.003838 -1.21029e-05
1.35525e-20 -0.0627252 1.30353e-08 0 0 0
-2.71051e-20 0.0627253 1.30348e-08 0 0 0
0 0.0626789 0.00255557 0 0 0
0 -0.0626789 0.00255558 0 0 0
0 -0.0627232 0.00247243 0.00063176 -0.00396523 -1.76532e-05
0 0.0627232 0.0024724 -0.000113394 0.000721545 -9.16829e-06
-1.12938e-21 -0.0627775 0.000301909 0.00201933 -0.00957715 3.79763e-05
1.12938e-21 0.0627776 0.000301908 -6.9972e-05 0.00037614 -4.87647e-06
0 -0.062729 0.00253281 0.00021417 -0.00149684 -2.86134e-05
0 0.062729 0.0025328 -3.79412e-05 0.000261785 -4.55529e-06
6.77626e-21 -0.0627358 0.00256092 0 0 0
-6.77626e-21 0.0627358 0.00256092 0 0 0
1.35525e-20 -0.0627919 0.000886728 0.00483099 -0.0239892 0.000220638
1.35525e-20 0.0627919 0.000886726 -0.000690323 0.00365258 3.94745e-05
1.35525e-20 -0.0628163 1.26849e-08 0 0 0
1.35525e-20 0.0628164 1.26845e-08 0 0 0
2.71051e-20 -0.0628008 0.00150647 0.00530703 -0.0279162 0.000485266
-2.71051e-20 0.0628008 0.00150646 -0.000885544 0.00482989 3.73686e-05
-1.35525e-20 0.0628111 0.00226844 -0.000391202 0.00245227 -3.42212e-05
-1.35525e-20 -0.0628111 0.00226845 0.0021316 -0.0137789 -0.000107381
0 -0.0628645 0.00225958 0.00214272 -0.0139806 -0.00011601
0 0.0628645 0.00225958 -0.000396435 0.00246901 -3.20371e-05
0 -0.0630768 1.21047e-08 0 0 0
0 0.0630768 1.21046e-08 0 0 0
4.51751e-21 -0.0630912 0.000666723 0.00400578 -0.0199988 0.000187415
0 0.0630912 0.000666722 -0.000494817 0.00267527 3.27777e-05
-6.77626e-21 0.0630461 0.00258946 0 0 0
0 -0.0630461 0.00258946 0 0 0
-3.38813e-21 -0.0630991 0.00119272 0.00519843 -0.0267379 0.000378885
-1.12938e-21 0.0630991 0.00119271 -0.000804834 0.00438702 4.01191e-05
-6.77626e-21 0.0630752 0.00254727 -6.1928e-05 0.000427288 -7.43519e-06
6.77626e-21 -0.0630752 0.00254728 0.000349658 -0.00244378 -4.67148e-05
6.77626e-21 -0.0631146 0.00184446 0.00423714 -0.0234682 0.000302194
6.77626e-21 0.0631146 0.00184446 -0.000737101 0.00417018 1.18758e-05
6.77626e-21 -0.0631295 0.0022085 0.00259094 -0.0159162 1.79436e-05
-1.35525e-20 0.0631295 0.0022085 -0.000482097 0.00284052 -1.28515e-05
0 0.0631287 0.00259721 0 0 0
0 -0.0631287 0.0025972 0 0 0
6.77626e-21 0.0631356 0.00244813 -0.000199704 0.00119819 -5.04809e-06
0 -0.0631356 0.00244815 0.00106567 -0.00660735 6.37848e-06
-6.77626e-21 -0.0632026 0.00255045 0.00041824 -0.00279607 8.87162e-06
6.77626e-21 0.0632026 0.00255045 -8.38914e-05 0.000517591 1.72061e-06
0 -0.0632312 0.00260676 0 0 0
0 0.0632313 0.00260677 0 0 0
6.77626e-21 -0.063349 1.19264e-08 0 0 0
0 0.063349 1.19263e-08 0 0 0
1.12938e-21 -0.0633802 0.000299367 0.00202169 -0.0100257 8.19729e-05
-2.25875e-21 0.0633802 0.000299369 -5.81161e-05 0.000322858 -6.35701e-06
-1.01644e-20 -0.0634014 1.18938e-08 0 0 0
1.01644e-20 0.0634014 1.18937e-08 0 0 0
2.71051e-20 -0.0633962 0.000886439 0.00510119 -0.0256301 0.00026796
0 0.0633962 0.000886437 -0.000718152 0.00393016 5.18766e-05
-2.71051e-20 0.0634042 0.00150049 -0.000939464 0.00522652 3.59979e-05
0 -0.0634042 0.00150049 0.00562948 -0.0299003 0.000569057
-6.77626e-21 0.0634114 0.0022746 -0.000488582 0.00278422 -7.19845e-07
6.77626e-21 -0.0634114 0.00227461 0.00249206 -0.0154011 6.10118e-05
-1.35525e-20 0.0635494 0.00263612 0 0 0
1.35525e-20 -0.0635494 0.00263612 0 0 0
-1.54886e-20 -0.0636291 0.000643941 0.0041064 -0.0207546 0.000189757
-1.54886e-20 0.0636291 0.00064394 -0.000497251 0.0027681 3.49989e-05
0 0.0635904 0.00256273 -0.000120614 0.000744164 2.4738e-06
0 -0.0635904 0.00256275 0.000601395 -0.00402053 1.27567e-05
-5.42101e-20 0.0636736 1.17146e-08 0 0 0
2.71051e-20 -0.0636736 1.17147e-08 0 0 0
5.64689e-21 -0.0637074 0.00119101 0.00547934 -0.0285436 0.000399503
-6.77626e-21 0.0637074 0.00119101 -0.000837547 0.00471905 3.83491e-05
-6.77626e-21 0.0637064 0.00183893 -0.000817316 0.00460439 1.8348e-05
-9.03502e-21 -0.0637064 0.00183893 0.00467563 -0.0257157 0.00038786
-1.12938e-21 0.0636972 0.00228499 -0.000498942 0.00281409 5.03891e-06
-2.25875e-21 -0.0636972 0.002285 0.00262875 -0.0155462 0.000155911
1.35525e-20 -0.0636864 0.00264892 0 0 0
0 0.0636864 0.00264892 0 0 0
0 0.0638057 0.00256956 -0.000154369 0.000877935 3.59538e-06
0 -0.0638057 0.00256957 0.000769185 -0.00476164 8.81558e-05
0 -0.0638578 0.00266484 0 0 0
0 0.0638578 0.00266484 0 0 0
-7.41154e-21 -0.0639767 1.11249e-08 0 0 0
1.48231e-21 0.0639761 1.11262e-08 0 0 0
2.25875e-21 -0.063985 0.000294159 0.00199334 -0.0103333 4.58015e-05
1.12938e-21 0.063985 0.000294155 -3.55127e-05 0.000207479 -7.97129e-06
9.03502e-21 0.0639986 0.000797712 -0.000620543 0.00358261 4.21898e-05
1.35525e-20 -0.0639986 0.000797713 0.00482122 -0.0246114 0.000234094
0 0.0639965 0.00216957 -0.000687966 0.00383647 7.11634e-06
-1.35525e-20 -0.0639965 0.00216958 0.0036953 -0.0210592 0.000267216
-1.35525e-20 0.0639892 0.00242307 -0.000413852 0.0022901 5.71189e-06
0 -0.0639893 0.00242307 0.00209227 -0.0127407 0.000184276
-5.42101e-21 0.0640905 0.00161525 -0.000937382 0.00536531 1.642e-05
2.71051e-21 -0.0640905 0.00161526 0.00556647 -0.0302023 0.000485467
-6.77626e-21 0.0640768 0.00268508 0 0 0
2.03288e-20 -0.0640768 0.00268508 0 0 0
2.71051e-20 0.0641377 0.00258144 -0.000186458 0.00106044 4.34277e-06
1.35525e-20 -0.0641377 0.00258144 0.000929132 -0.0057518 0.000106487
0 0.0642237 0.00119408 -0.000853298 0.00497434 2.45902e-05
0 -0.0642237 0.00119408 0.00566979 -0.0298758 0.00036909
0 0.0642452 0.0019095 -0.000823485 0.00470098 5.96455e-06
0 -0.0642452 0.0019095 0.00466262 -0.025829 0.000335184
-2.71051e-20 -0.0642765 1.05721e-08 0 0 0
0 0.0642765 1.05715e-08 0 0 0
0 -0.0643071 0.000580349 0.00366331 -0.0188629 9.66304e-05
0 0.0643071 0.000580347 -0.000382891 0.0022667 9.79159e-06
1.35525e-20 0.0642697 0.00270301 0 0 0
0 -0.0642697 0.00270301 0 0 0
0 0.0642913 0.00231124 -0.00056153 0.00315058 1.18306e-06
0 -0.0642914 0.00231125 0.00300697 -0.0173465 0.000256488
-2.03288e-20 0.0645077 0.00272507 0 0 0
-6.77626e-21 -0.0645077 0.00272507 0 0 0
3.38813e-21 -0.0645717 1.00934e-08 0 0 0
-3.04932e-20 0.0645718 1.00931e-08 0 0 0
1.69407e-21 -0.0645942 0.000105281 0.000745179 -0.0039303 -3.3346e-06
1.69407e-21 0.0645943 0.000105376 1.0845e-06 1.88284e-06 1.56571e-06
1.12938e-21 -0.0646037 0.000289984 0.00201811 -0.0106655 -5.45209e-06
1.12938e-21 0.0646037 0.000289985 -1.66755e-05 0.000121265 3.89445e-06
3.04932e-20 -0.0646061 1.00753e-08 0 0 0
3.38813e-21 0.0646062 1.0075e-08 0 0 0
-1.35525e-20 0.0645786 0.00255814 -0.000294133 0.0016351 9.67597e-08
0 -0.0645786 0.00255814 0.00150321 -0.009009 0.000202766
-9.03502e-21 -0.0646301 0.000897019 0.00545294 -0.0278339 0.000272947
4.51751e-21 0.0646302 0.000897011 -0.000728454 0.00427413 3.67421e-07
4.51751e-21 0.0646074 0.00205749 -0.000806934 0.00464935 -1.39386e-05
4.51751e-21 -0.0646074 0.00205749 0.00454343 -0.0255144 0.000318993
4.51751e-21 -0.0646289 0.0015261 0.00595766 -0.0319875 0.000370996
0 0.0646289 0.0015261 -0.000983072 0.00566013 -1.0713e-05
2.03288e-20 0.0646274 0.00273615 0 0 0
-6.77626e-21 -0.0646274 0.00273615 0 0 0
2.71051e-20 -0.0649009 9.6032e-09 0 0 0
0 0.064901 9.60317e-09 0 0 0
0 0.0648749 0.00275909 0 0 0
-1.35525e-20 -0.0648749 0.0027591 0 0 0
0 -0.0649356 0.000580175 0.00387564 -0.0198216 7.89446e-05
0 0.0649357 0.000580173 -0.000409947 0.00242785 -1.68396e-05
2.71051e-20 -0.0649299 0.0018847 0.00506648 -0.0279793 0.000202224
0 0.0649299 0.0018847 -0.000896767 0.00518761 -2.79021e-05
0 -0.0649158 0.00234727 0.0033248 -0.019137 0.000226743
-5.64689e-22 0.0649158 0.00234727 -0.000624701 0.00348913 -2.24095e-05
0 0.064955 0.00120196 -0.000897818 0.00529507 -3.41017e-05
-2.71051e-20 -0.064955 0.00120197 0.00598584 -0.0313101 0.00024984
-1.69407e-21 -0.0652158 7.83139e-09 0 0 0
-5.0822e-21 0.0652158 7.83129e-09 0 0 0
1.69407e-21 -0.0652252 4.89709e-05 0.000372279 -0.00192413 -9.74679e-06
-8.47033e-22 0.0652252 4.89567e-05 -6.44867e-06 3.83925e-05 2.39244e-06
-1.69407e-21 -0.0652301 7.82307e-09 0 0 0
1.69407e-21 0.0652302 7.82298e-09 0 0 0
3.38813e-21 -0.0652381 0.000289556 0.00216651 -0.0112088 -4.74146e-05
-1.12938e-21 0.0652381 0.000289555 -5.67999e-05 0.000337276 1.09157e-05
-4.51751e-21 -0.0652635 0.000898339 0.00587446 -0.0293264 0.000252857
0 0.0652635 0.000898337 -0.00078243 0.00453869 -7.99543e-05
-1.86347e-20 0.0652148 0.00279069 0 0 0
1.69407e-21 -0.0652149 0.00279069 0 0 0
2.25875e-21 0.0652598 0.00154151 -0.00104639 0.00603286 -3.34999e-05
4.51751e-21 -0.0652598 0.00154152 0.00638163 -0.0337608 0.000351713
-9.03502e-21 0.0652522 0.00209406 -0.000851681 0.00499856 -5.14843e-05
-1.35525e-20 -0.0652523 0.00209406 0.00467291 -0.0270275 0.000195496
6.77626e-21 0.065246 0.00279361 0 0 0
1.18585e-20 -0.0652461 0.00279361 0 0 0
2.25875e-21 0.0652919 0.00257206 -0.000410154 0.00225508 -1.80562e-05
-6.77626e-21 -0.065292 0.00257206 0.00212236 -0.0124443 0.000154049
-2.71051e-20 -0.0655524 5.83779e-09 0 0 0
2.71051e-20 0.0655524 5.83758e-09 0 0 0
0 -0.0655704 0.000580902 0.004256 -0.0209752 5.44818e-05
-2.71051e-20 0.0655704 0.0005809 -0.000451105 0.00262565 -4.28773e-05
2.71051e-20 0.0655565 0.00189852 -0.000967833 0.00559779 -3.88687e-05
2.71051e-20 -0.0655566 0.00189852 0.00543524 -0.0298087 0.000177425
0 0.0655812 0.0012083 -0.000973247 0.0056263 -6.09425e-05
0 -0.0655812 0.0012083 0.00645172 -0.0330891 0.000228621
-5.42101e-20 0.0655608 0.00282284 0 0 0
0 -0.0655609 0.00282284 0 0 0
9.03502e-21 0.0656258 0.00230133 -0.000757008 0.00437071 -3.86263e-05
0 -0.0656259 0.00230134 0.00405145 -0.0233498 0.000191883
-9.03502e-21 0.0657943 0.00153807 -0.00109811 0.00634822 -4.66715e-05
-9.03502e-21 -0.0657943 0.00153807 0.00673131 -0.0352275 0.000336238
6.77626e-21 -0.0658501 4.27433e-09 0 0 0
-3.38813e-21 0.0658501 4.27416e-09 0 0 0
-8.13152e-21 0.0658197 0.00206877 -0.000985436 0.00560989 -3.56325e-05
8.13152e-21 -0.0658197 0.00206877 0.00540874 -0.0299966 0.000316765
0 -0.0658851 0.000294095 0.00250057 -0.0119195 -4.41346e-05
-1.12938e-21 0.0658851 0.000294098 -9.15997e-05 0.000685353 -1.66975e-06
-6.77626e-21 0.0659037 3.7412e-09 0 0 0
-3.38813e-21 -0.0659037 3.74133e-09 0 0 0
-6.77626e-21 -0.0658977 0.000900946 0.00621095 -0.0306489 0.000165287
0 0.0658977 0.000900939 -0.00081539 0.00478166 -9.51372e-05
-1.69407e-21 0.0658682 0.00285172 0 0 0
-1.69407e-21 -0.0658683 0.00285172 0 0 0
0 0.0658848 0.00282476 -5.39751e-05 0.000297365 8.21564e-07
1.69407e-21 -0.0658848 0.00282481 0.000273895 -0.00164092 4.39416e-05
-5.0822e-21 0.0659027 0.00285494 0 0 0
0 -0.0659027 0.00285493 0 0 0
-1.12938e-21 0.0659302 0.00259593 -0.000462298 0.00258945 5.55089e-07
2.25875e-21 -0.0659302 0.00259593 0.00241001 -0.0142954 0.000299003
2.71051e-20 0.0662017 2.04737e-09 0 0 0
-2.71051e-20 -0.0662017 2.04747e-09 0 0 0
-2.71051e-20 -0.0662096 0.000583235 0.00459332 -0.0219984 6.50889e-05
0 0.0662096 0.000583235 -0.000473934 0.00276702 -3.72142e-05
2.25875e-21 0.0662259 0.00182351 -0.00111425 0.00636726 -2.15358e-05
4.51751e-21 -0.0662259 0.00182351 0.00645175 -0.0343989 0.00040025
4.51751e-21 -0.0662614 0.00125281 0.00702238 -0.0355099 0.000297768
0 0.0662614 0.00125281 -0.00106311 0.00612038 -5.05607e-05
-9.03502e-21 0.0662442 0.00230923 -0.000828389 0.00471143 -1.22667e-05
0 -0.0662442 0.00230924 0.00445142 -0.0249765 0.000295112
0 0.0662393 0.00288655 0 0 0
-2.71051e-20 -0.0662393 0.00288655 0 0 0
-1.35525e-20 -0.0664688 1.83914e-09 0 0 0
-2.03288e-20 0.0664688 1.83905e-09 0 0 0
4.51751e-21 -0.0665215 0.000297069 0.00268586 -0.0124399 3.6538e-05
-3.38813e-21 0.0665216 0.000297066 -0.000114 0.000753405 7.02672e-06
0 -0.0665293 0.00080361 0.00616738 -0.0297269 0.000153916
-9.03502e-21 0.0665293 0.000803608 -0.000767462 0.00446429 -6.68567e-05
0 0.0664898 0.00290996 0 0 0
0 -0.0664899 0.00290996 0 0 0
0 0.0665401 0.00152056 -0.00123165 0.00707449 -2.92967e-05
-2.71051e-20 -0.0665401 0.00152056 0.00748771 -0.0387101 0.000425014
-6.77626e-21 -0.0665636 1.726e-09 0 0 0
-2.03288e-20 0.0665637 1.72594e-09 0 0 0
0 0.0665512 0.00211001 -0.00108402 0.00611425 3.38817e-06
0 -0.0665512 0.00211001 0.00593075 -0.0322829 0.000449857
1.12938e-21 0.0665487 0.00261746 -0.000534575 0.00291725 3.92375e-06
-6.77626e-21 -0.0665487 0.00261746 0.00268556 -0.0157755 0.0003434
3.38813e-21 0.0665442 0.00282584 -0.000171957 0.000920097 1.62996e-06
-3.38813e-21 -0.0665442 0.00282586 0.000835449 -0.00496293 0.000125515
0 0.0666005 0.00292022 0 0 0
0 -0.0666005 0.00292022 0 0 0
0 -0.0668291 1.51559e-09 0 0 0
-2.71051e-20 0.0668291 1.51554e-09 0 0 0
0 -0.0668394 0.000583644 0.00482402 -0.022861 0.000122243
2.71051e-20 0.0668395 0.000583645 -0.000504487 0.00291905 -2.33309e-05
4.51751e-21 -0.0668468 0.0011998 0.00728573 -0.0363657 0.000293834
6.77626e-21 0.0668469 0.0011998 -0.00108978 0.00624166 -4.01837e-05
0 0.0668543 0.00182538 -0.00118602 0.00673861 -1.3193e-05
0 -0.0668543 0.00182538 0.00682759 -0.0360669 0.000415727
0 0.0668556 0.00232228 -0.000906948 0.00509724 1.51826e-07
1.35525e-20 -0.0668556 0.00232228 0.0047954 -0.0266104 0.000366482
-2.71051e-20 0.0668433 0.00294289 0 0 0
0 -0.0668434 0.0029429 0 0 0
-3.38813e-20 -0.0670865 1.47842e-09 0 0 0
2.71051e-20 0.0670865 1.47839e-09 0 0 0
0 0.0670506 0.00296221 0 0 0
0 -0.0670506 0.00296222 0 0 0
1.12938e-20 -0.0671423 0.000297563 0.0027976 -0.0128221 8.56124e-05
0 0.0671423 0.000297564 -0.00014977 0.000942587 -3.67192e-07
4.51751e-21 -0.0671508 0.000801878 0.0064266 -0.0306783 0.000196967
4.51751e-21 0.0671508 0.000801881 -0.000809413 0.00463501 -3.91027e-05
0 0.0671599 0.00152405 -0.00129856 0.00739633 -3.04517e-05
2.71051e-20 -0.0671599 0.00152405 0.00781628 -0.0400913 0.000361787
-3.38813e-20 -0.0671866 1.45256e-09 0 0 0
-2.71051e-20 0.0671867 1.45253e-09 0 0 0
0 -0.0671598 0.00212379 0.00621248 -0.0337978 0.000435724