# U  POINT_DATA 26948
# x  y  z  U_x  U_y  U_z
0.0101542 -1.35525e-20 1.397e-07 0 0 0
-0.0101542 1.35525e-20 1.397e-07 0 0 0
-0.0101542 2.71051e-20 0.000269592 0 0 0
0.0101542 -1.35525e-20 0.000269592 0 0 0
-0.0101542 1.35525e-20 0.000769234 0 0 0
0.0101542 0 0.000769234 0 0 0
0.0101542 0 0.00104357 0 0 0
-0.0101542 0 0.00104357 0 0 0
-0.0101542 -1.35525e-20 0.00131779 0 0 0
0.0101542 1.35525e-20 0.00131779 0 0 0
0.0102506 2.71051e-20 0.000298262 -4.50866e-05 0.00022856 1.45888e-06
-0.0102506 -1.35525e-20 0.000298263 0.000200563 -0.00111141 -2.36922e-05
0.0102543 0 0.0008759 -4.6807e-05 0.000237281 1.51455e-06
-0.0102543 1.35525e-20 0.000875901 0.000208217 -0.00115382 -2.45963e-05
-0.0101542 0 0.00181774 0 0 0
0.0101542 0 0.00181774 0 0 0
0.0103268 -1.35525e-20 1.10555e-07 0 0 0
-0.0103268 0 1.10554e-07 0 0 0
0.0102523 0 0.00124395 -7.47921e-05 0.000392383 3.40794e-06
-0.0102523 0 0.00124395 0.000280741 -0.00151856 1.95884e-05
0.0101542 2.71051e-20 0.002087 0 0 0
-0.0101542 -2.71051e-20 0.002087 0 0 0
0.0103709 -1.35525e-20 0.000111968 -4.4199e-07 3.72223e-06 2.75214e-07
-0.0103709 0 0.00011197 0.0001584 -0.000872296 -2.31931e-05
0.0103677 -1.35525e-20 0.000675222 -9.74653e-05 0.000506306 3.4059e-06
-0.0103677 -1.35525e-20 0.000675223 0.000439898 -0.0024586 -4.5197e-05
0.0102487 -1.35525e-20 0.0018202 -7.20781e-05 0.000378145 3.28428e-06
-0.0102487 1.35525e-20 0.0018202 0.000270554 -0.00146346 1.88776e-05
0.0103636 -2.71051e-20 0.00148272 -0.000156937 0.000839705 6.06136e-06
-0.0103636 -1.35525e-20 0.00148274 0.000595537 -0.00325529 4.25257e-05
-0.0102712 0 0.00214808 0 0 0
0.0102712 -1.35525e-20 0.00214808 0 0 0
0.0103515 0 0.00204725 -9.01445e-05 0.000469486 3.28385e-06
-0.0103515 0 0.00204725 0.000322364 -0.0017701 2.42077e-05
-0.0106317 3.01167e-21 0.000607148 0.000758905 -0.00397157 -2.71143e-05
0.0106317 0 0.000607147 -0.000139104 0.000747199 3.38703e-07
0.0106102 7.90564e-21 0.00112188 -0.000259749 0.00139503 8.10411e-07
-0.0106102 0 0.00112189 0.00110092 -0.00577786 3.81313e-05
-0.0106774 0 0.000276337 0.000363354 -0.00198585 -3.81823e-05
0.0106774 0 0.000276337 -1.03623e-06 9.28606e-06 6.63133e-07
0.0106161 -3.01167e-21 0.00164337 -0.000266001 0.00142127 2.48669e-06
-0.0106162 1.50584e-21 0.00164337 0.00102372 -0.00551344 7.81024e-05
-0.0107648 0 4.28332e-08 0 0 0
0.0107648 1.35525e-20 4.28298e-08 0 0 0
0.0105534 -1.35525e-20 0.00229536 0 0 0
-0.0105534 6.77626e-21 0.00229537 0 0 0
0.0106301 0 0.00198753 -0.00021567 0.00113218 3.07194e-06
-0.0106301 0 0.00198753 0.000771935 -0.00427419 4.627e-05
-0.0108244 0 8.90662e-05 0.000126067 -0.000694245 -1.84589e-05
0.0108244 0 8.90541e-05 -3.51731e-07 2.96211e-06 2.19013e-07
0.0106419 0 0.00222467 -7.3842e-05 0.00038458 2.68997e-06
-0.0106419 0 0.00222468 0.000264045 -0.00144987 1.98283e-05
-0.0108971 -1.35525e-20 2.09165e-08 0 0 0
0.0108971 -1.35525e-20 2.09159e-08 0 0 0
0.0106479 0 0.0023447 0 0 0
-0.0106479 0 0.00234469 0 0 0
0.0108702 2.71051e-20 0.000884384 -0.000340315 0.00183765 -4.30051e-06
-0.0108702 -2.71051e-20 0.000884388 0.00157924 -0.00796103 4.20792e-06
0.0108765 -2.71051e-20 0.00145346 -0.000440041 0.00236119 -1.81688e-06
-0.0108766 0 0.00145346 0.00175989 -0.00928154 0.000150905
-0.0107255 0 0.00238519 0 0 0
0.0107255 0 0.0023852 0 0 0
0.0110033 0 1.81922e-08 0 0 0
-0.0110033 1.35525e-20 1.81922e-08 0 0 0
-0.0107625 0 0.00231974 0.000263785 -0.00151325 2.29156e-05
0.0107625 0 0.00231973 -8.14995e-05 0.000406106 -2.17761e-06
0.0110153 -1.35525e-20 7.96732e-05 -5.20672e-07 2.52803e-06 -1.31972e-08
-0.0110153 -1.35525e-20 7.96867e-05 0.000228565 -0.0010673 1.52218e-06
-0.0110632 -2.25875e-21 0.000577067 0.00125363 -0.00614594 3.296e-05
0.0110632 0 0.000577066 -0.00020439 0.00108489 -1.93273e-06
0.0111416 0 0.001188 -0.000476518 0.00252741 -6.18379e-06
-0.0111416 -5.64689e-21 0.00118801 0.00202309 -0.0102971 0.000151996
0.0110829 5.42101e-21 0.00186756 -0.000420248 0.00220231 -7.90936e-06
-0.0110829 0 0.00186756 0.00152996 -0.00835252 0.000154233
0.0110229 2.71051e-20 0.00226217 -0.000263631 0.00132397 -1.09109e-05
-0.0110229 0 0.00226218 0.000840356 -0.00492973 5.78971e-05
-0.0113157 2.71051e-20 0.000285031 0.000814827 -0.00376487 1.39582e-05
0.0113157 0 0.000285027 -2.02222e-06 8.96706e-06 3.40703e-07
0.0110601 6.77626e-21 0.00255988 0 0 0
-0.0110601 -6.77626e-21 0.0025599 0 0 0
0.0110969 -6.77626e-21 0.00251435 -6.22544e-05 0.000310209 -1.66339e-06
-0.0110969 0 0.00251438 0.000201471 -0.00115577 1.75023e-05
0.011119 6.77626e-21 0.00259067 0 0 0
-0.011119 0 0.00259068 0 0 0
-0.0114092 0 0.000887764 0.00228346 -0.0109886 0.000157712
0.0114092 -2.71051e-20 0.000887761 -0.000481513 0.00251835 -4.48342e-06
-0.0111709 -6.77626e-21 0.00261768 0 0 0
0.0111709 1.35525e-20 0.00261768 0 0 0
-0.0111905 0 0.00257828 0.00015836 -0.00100979 2.68848e-05
0.0111905 -6.77626e-21 0.00257827 -5.30032e-05 0.000276994 -1.37846e-06
0.0114292 -2.71051e-20 0.00153031 -0.000657895 0.00346588 -1.44441e-05
-0.0114292 2.71051e-20 0.00153031 0.00251915 -0.0132238 0.00030626
-0.0115336 -6.77626e-21 3.98228e-09 0 0 0
0.0115337 -6.77626e-21 3.98131e-09 0 0 0
0.011316 0 0.00229792 -0.000349562 0.00182094 -1.02942e-05
-0.011316 -2.25875e-21 0.00229793 0.00113739 -0.00672029 0.000132853
-0.0115492 0 5.7524e-05 0.000165023 -0.000770585 1.099e-06
0.0115493 6.77626e-21 5.75003e-05 -3.75831e-07 1.82478e-06 -9.52602e-09
-0.0116095 0 2.02398e-09 0 0 0
0.0116096 6.77626e-21 2.02389e-09 0 0 0
0.0114857 0 0.0020737 -0.000556244 0.00290168 -1.40643e-05
-0.0114857 0 0.00207371 0.00189634 -0.0107312 0.000234406
-0.0116746 0 1.84332e-09 0 0 0
0.0116747 -6.77626e-21 1.84333e-09 0 0 0
-0.011679 0 5.25309e-05 0.000190019 -0.000840127 1.78752e-06
0.011679 -6.77626e-21 5.25072e-05 -4.01203e-07 1.61433e-06 1.47432e-07
-0.0116878 -2.25875e-21 0.000581193 0.00176675 -0.00806597 9.14607e-05
0.0116878 -1.12938e-21 0.000581192 -0.000270003 0.00139144 -5.25988e-06
0.0114475 -2.71051e-20 0.00253489 -0.000233792 0.0012608 -5.561e-06
-0.0114475 0 0.0025349 0.000695179 -0.00459091 0.000109644
0.0117411 -5.64689e-22 0.0012051 -0.000647537 0.00336325 -2.00802e-05
-0.0117411 -1.12938e-21 0.0012051 0.00275813 -0.0133387 0.00022725
0.0115287 -6.77626e-21 0.00280414 0 0 0
-0.0115287 0 0.00280416 0 0 0
0.01155 0 0.0027727 -4.54413e-05 0.000237476 -1.1818e-06
-0.01155 6.77626e-21 0.00277272 0.000135756 -0.000865653 2.30474e-05
0.0117713 5.64689e-22 0.00182837 -0.000712889 0.00369231 -2.78943e-05
-0.0117713 0 0.00182837 0.00253582 -0.0134533 0.000268214
0.0115729 0 0.00282717 0 0 0
-0.0115729 0 0.00282718 0 0 0
-0.0116142 0 0.00284907 0 0 0
0.0116142 0 0.00284907 0 0 0
-0.0116388 6.77626e-21 0.00280418 0.000190223 -0.00117851 3.27826e-05
0.0116388 0 0.00280416 -7.17417e-05 0.00033858 -4.55047e-06
0.0117404 -5.64689e-22 0.00237671 -0.000485984 0.00247486 -2.03769e-05
-0.0117404 0 0.00237671 0.00150502 -0.00880436 0.000199831
-0.0119843 0 0.000286091 0.00103382 -0.00453866 1.4307e-05
0.0119843 0 0.000286094 -2.36071e-06 8.42532e-06 1.7436e-06
0.0120413 2.71051e-20 0.000886354 -0.000598497 0.00305119 -1.95303e-05
-0.0120413 -2.71051e-20 0.000886355 0.00295431 -0.0130321 0.000180703
0.0120819 -2.71051e-20 0.00151675 -0.000855588 0.00443673 -4.2192e-05
-0.0120819 -2.71051e-20 0.00151675 0.00328094 -0.016158 0.000264789
0.0119435 -5.42101e-20 0.0026998 -0.000395414 0.0018829 -2.15144e-05
-0.0119435 2.71051e-20 0.00269981 0.00104842 -0.00658581 0.00019851
-0.0122585 0 2.3573e-10 0 0 0
0.0122586 6.77626e-21 2.35578e-10 0 0 0
-0.012263 0 3.33749e-05 0.00012073 -0.000533781 1.13571e-06
0.012263 0 3.33336e-05 -2.54706e-07 1.02487e-06 9.35982e-08
0.0120908 0 0.00215656 -0.000802022 0.00406644 -4.28171e-05
-0.0120908 -2.71051e-20 0.00215657 0.00252455 -0.0140434 0.000272352
-0.0122997 0 1.21629e-10 0 0 0
0.0122997 0 1.21626e-10 0 0 0
0.0123365 6.77626e-21 1.15206e-10 0 0 0
-0.0123366 0 1.152e-10 0 0 0
0.0123381 0 2.92239e-05 -3.28473e-07 9.52374e-07 2.34707e-07
-0.0123381 0 2.92618e-05 0.000128617 -0.00050995 2.38151e-06
0.0119751 -6.77626e-21 0.00303983 0 0 0
-0.0119752 0 0.00303985 0 0 0
-0.0123477 -1.12938e-21 0.000568688 0.00216866 -0.00910908 6.94957e-05
0.0123477 2.25875e-21 0.000568689 -0.000316002 0.00159489 -1.60853e-05
0.0120031 -6.77626e-21 0.00299958 -6.81922e-05 0.000321828 -4.32533e-06
-0.0120032 0 0.00299961 0.000180813 -0.00112021 3.11609e-05
0.0120142 6.77626e-21 0.00306058 0 0 0
-0.0120143 0 0.00306059 0 0 0
0.0120519 0 0.00308051 0 0 0
-0.012052 0 0.00308052 0 0 0
0.0120703 0 0.00304363 -6.58333e-05 0.000301085 -5.30957e-06
-0.0120704 -6.77626e-21 0.00304365 0.000151154 -0.000961955 2.22899e-05
0.0123957 0 0.0011843 -0.000782462 0.00400579 -4.82534e-05
-0.0123957 2.25875e-21 0.0011843 0.00338416 -0.0153096 0.000100523
0.0124154 2.82344e-22 0.00184243 -0.000932223 0.00473114 -6.50545e-05
-0.0124154 -8.47033e-22 0.00184244 0.00315469 -0.0160105 6.19727e-05
0.0123819 4.51751e-22 0.00255904 -0.000679031 0.00329953 -5.10576e-05
-0.0123819 2.25875e-22 0.00255905 0.00185315 -0.0105059 7.4836e-05
-0.012651 2.71051e-20 0.000272689 0.0011995 -0.0047426 2.73307e-05
0.012651 5.42101e-20 0.00027269 -3.13165e-06 8.56958e-06 4.32846e-06
0.012351 0 0.00296124 -0.000389427 0.00178406 -2.96959e-05
-0.012351 0 0.00296126 0.00089275 -0.00572578 0.000137655
-0.0126986 2.71051e-20 0.000851203 0.00350507 -0.0142006 5.60429e-05
0.0126986 0 0.000851203 -0.000665641 0.0033397 -5.2058e-05
0.0127386 -2.71051e-20 0.00148681 -0.00100923 0.00519149 -7.88039e-05
-0.0127386 -2.71051e-20 0.00148681 0.00379607 -0.0178416 -9.93252e-05
0.0124095 0 0.00326997 0 0 0
-0.0124095 0 0.00327 0 0 0
0.0124312 6.77626e-21 0.00323664 -6.33443e-05 0.000289702 -5.10883e-06
-0.0124313 0 0.00323667 0.000145444 -0.000925614 2.14478e-05
0.0124457 0 0.00328913 0 0 0
-0.0124457 0 0.00328915 0 0 0
-0.0124807 -6.77626e-21 0.00330749 0 0 0
0.0124807 6.77626e-21 0.00330748 0 0 0
-0.0124951 -1.35525e-20 0.00327723 0.000107386 -0.00074247 2.40994e-05
0.0124951 0 0.00327721 -5.5062e-05 0.000254713 -4.92703e-06
0.0127374 -2.71051e-20 0.00217209 -0.00106762 0.00526129 -9.72596e-05
-0.0127374 2.71051e-20 0.0021721 0.00305649 -0.0161187 -0.000198689
-0.0129741 1.69407e-21 5.65705e-12 0 0 0
0.0129742 -1.69407e-21 5.64307e-12 0 0 0
-0.0129746 0 9.30702e-06 4.09082e-05 -0.000162195 7.57465e-07
0.0129747 -1.69407e-21 9.23962e-06 -1.03852e-07 3.01109e-07 7.42066e-08
0.0126308 1.12938e-21 0.00298495 -0.000508583 0.00238772 -4.15566e-05
-0.0126308 1.50584e-21 0.00298495 0.00116527 -0.00712888 8.30422e-05
-0.0129857 0 3.62845e-12 0 0 0
0.0129857 -1.69407e-21 3.62927e-12 0 0 0
0.0129964 0 7.53328e-06 7.28531e-08 3.72723e-07 4.41368e-07
-0.0129965 0 7.58852e-06 2.80277e-05 -0.00014487 -1.41331e-06
0.0129967 -1.69407e-21 3.57564e-12 0 0 0
-0.0129967 0 3.57443e-12 0 0 0
-0.0130091 -5.64689e-22 0.000523311 0.00228176 -0.00943222 -8.21026e-05
0.0130091 -1.12938e-21 0.000523314 -0.000339204 0.00163456 -4.18315e-05
0.0130262 0 0.00111842 -0.000868512 0.00433838 -9.80206e-05
-0.0130271 1.37643e-21 0.00111833 0.00368049 -0.0162265 -0.000361416
0.012792 2.71051e-20 0.00274343 -0.000810533 0.00386819 -6.99284e-05
-0.012792 -2.71051e-20 0.00274344 0.00198376 -0.0112272 -5.22185e-05
0.0130595 -2.11758e-22 0.00107278 -0.000835955 0.00416602 -9.68066e-05
-0.0130596 0 0.00107386 0.00360046 -0.0158094 -0.000367012
0.0130623 2.11758e-22 0.00111573 -0.000873689 0.00435854 -0.000100968
-0.0130622 0 0.00111377 0.00369774 -0.0162803 -0.000387966
0.0127559 2.71051e-20 0.00321815 -0.000337834 0.00156932 -2.59617e-05
-0.0127559 2.71051e-20 0.00321816 0.000653674 -0.00460676 0.000160431
0.0131777 1.69407e-21 2.72892e-12 0 0 0
-0.0131792 -1.69407e-21 2.72161e-12 0 0 0
0.0130706 0 0.00181595 -0.00112251 0.0055805 -0.000112289
-0.0130706 -4.23516e-22 0.00181592 0.00351576 -0.0171637 -0.000787059
0.0128312 0 0.00349147 0 0 0
-0.0128312 0 0.00349149 0 0 0
0.0128495 0 0.00346311 -5.52143e-05 0.000255418 -4.94066e-06
-0.0128495 0 0.00346313 0.000107686 -0.000744547 2.41669e-05
0.0133093 2.71051e-20 0.000237079 -3.28581e-06 1.52073e-05 1.63292e-05
-0.0133094 -2.71051e-20 0.000237071 0.00091178 -0.00452758 -4.86729e-05
0.0130829 -1.41172e-22 0.00247292 -0.0010717 0.0051313 -0.000110033
-0.0130829 2.82344e-22 0.00247293 0.00278577 -0.0140782 -0.000815931
0.0128663 0 0.00350989 0 0 0
-0.0128663 0 0.0035099 0 0 0
-0.0129008 0 0.00352796 0 0 0
0.0129009 6.77626e-21 0.00352796 0 0 0
0.0133557 0 0.000759633 -0.000698004 0.00323995 -0.000138988
-0.0133557 2.71051e-20 0.000759629 0.00356442 -0.0144433 -0.000358265
-0.0129238 0 0.00348629 0.000178626 -0.000907272 -8.6342e-06
0.0129238 6.77626e-21 0.00348627 -8.72142e-05 0.00036342 -1.11072e-05
0.0130385 5.64689e-22 0.00304616 -0.000686088 0.0031451 -6.97752e-05
-0.0130385 -1.12938e-21 0.00304617 0.00156379 -0.00831935 -0.000277779
0.013427 2.71051e-20 0.00137599 -0.00112322 0.00567849 -0.000130976
-0.013427 2.71051e-20 0.00137599 0.00392492 -0.0186665 -0.00112552
0.0134137 -2.71051e-20 0.00210976 -0.00132342 0.00639298 -0.000149874
-0.0134137 -2.71051e-20 0.00210977 0.00351096 -0.0169659 -0.00182394
0.013227 -5.42101e-20 0.00336662 -0.000537838 0.00225569 -6.20702e-05
-0.013227 0 0.00336663 0.00108186 -0.00569803 -1.46522e-05
-0.0136481 -1.97641e-21 0.000454494 0.00189416 -0.00972279 -0.000580407
0.0136481 1.12938e-21 0.000454473 -0.000322645 0.00161689 -8.59801e-05
0.0133902 2.71051e-20 0.00280378 -0.00112473 0.00519979 -0.000129326
-0.0133902 -2.71051e-20 0.00280378 0.00271477 -0.0124742 -0.00131129
0.013715 3.38813e-21 2.82164e-13 0 0 0
-0.0137152 3.38813e-21 2.80922e-13 0 0 0
0.0137158 0 2.07521e-05 -7.90824e-07 1.6448e-06 1.64934e-06
-0.013716 0 2.07043e-05 8.28863e-05 -0.000395566 -4.65777e-06
0.0137164 3.38813e-21 0.000170439 -0.000106311 0.000533305 -3.2596e-05
-0.0137166 -3.38813e-21 0.000170058 0.000694042 -0.00354983 -0.000203763
0.0137459 -3.38813e-21 2.39908e-14 0 0 0
-0.0137461 -3.38813e-21 2.33451e-14 0 0 0
0.0132451 0 0.0037083 0 0 0
-0.0132451 0 0.00370831 0 0 0
0.0137658 -3.38813e-21 1.53056e-05 5.21551e-07 5.12983e-06 7.34828e-06
-0.0137659 -3.38813e-21 1.52695e-05 5.08301e-05 -0.00032407 -3.59392e-05
0.0137673 3.38813e-21 1.74077e-14 0 0 0
-0.0137675 3.38813e-21 1.67734e-14 0 0 0
0.0132719 0 0.00367136 -8.2732e-05 0.000344743 -1.05364e-05
-0.0132719 0 0.00367139 0.000169439 -0.000860614 -8.19016e-06
0.0132783 0 0.00372567 0 0 0
-0.0132783 6.77626e-21 0.00372568 0 0 0
0.0137897 0 0.000885073 -0.000756201 0.00379015 -0.000160958
-0.0137897 1.12938e-21 0.000885056 0.0028459 -0.0151069 -0.00125828
0.0138209 -3.38813e-21 1.17098e-14 0 0 0
-0.0138209 0 1.1123e-14 0 0 0
-0.0133097 0 0.00374319 0 0 0
0.0133097 -6.77626e-21 0.00374318 0 0 0
-0.0133283 -6.77626e-21 0.0037104 0.000189147 -0.000728008 -9.54029e-05
0.0133283 -6.77626e-21 0.00371039 -7.59771e-05 0.000325066 -6.10685e-06
0.0137515 -5.64689e-22 0.00171046 -0.00131224 0.00634276 -0.000148278
-0.0137515 2.82344e-22 0.00171046 0.00354952 -0.0180466 -0.0025156
0.013678 0 0.00246318 -0.00134334 0.00626715 -0.000143402
-0.0136781 -1.05879e-22 0.00246319 0.0033154 -0.0149418 -0.00274181
0.013721 0 0.00246183 -0.0013627 0.00634811 -0.000145785
-0.013721 1.93759e-20 0.00246184 0.00335303 -0.0150031 -0.00287863
-0.0137186 -1.05879e-22 0.00248646 0.00332265 -0.0148113 -0.00284392
0.0137186 0 0.00248652 -0.00134862 0.00627584 -0.00014419
0.013662 -2.25875e-21 0.00322321 -0.000917427 0.00406406 -9.52719e-05
-0.013662 4.51751e-22 0.00322321 0.00239253 -0.00892301 -0.00178147
-0.013613 2.71051e-20 0.00362484 0.00124466 -0.0048505 -0.000596484
0.013613 2.71051e-20 0.00362484 -0.000511972 0.00215102 -4.64486e-05
0.0141334 2.82344e-22 0.000318972 -0.0001306 0.000886357 -9.21534e-05
-0.0141334 -2.82344e-22 0.000318972 0.000985755 -0.00850081 -0.000927536
0.014088 0 0.00127938 -0.0012451 0.00597928 -0.000166988
-0.014088 2.71051e-20 0.00127938 0.00325469 -0.0192797 -0.00268209
0.0140591 2.71051e-20 0.00206597 -0.00155319 0.00729281 -0.000149088
-0.0140591 -2.71051e-20 0.00206597 0.00346631 -0.0173337 -0.00442299
0.0136637 0 0.00393551 0 0 0
-0.0136637 3.38813e-21 0.00393552 0 0 0
0.0136787 0 0.00391519 -5.03821e-05 0.000215559 -4.04959e-06
-0.0136787 3.38813e-21 0.00391522 0.000125346 -0.000482445 -6.32227e-05
-0.0142352 -1.35525e-20 2.81664e-15 0 0 0
0.0142352 -2.71051e-20 2.94789e-15 0 0 0
0.0136843 -3.38813e-21 0.00394699 0 0 0
-0.0136843 -3.38813e-21 0.00394698 0 0 0
-0.0137016 0 0.00395979 0 0 0
0.0137016 0 0.00395981 0 0 0
-0.0137143 -3.38813e-21 0.00394399 0.00015516 -0.000362514 -9.27537e-05
0.0137143 0 0.00394399 -4.26466e-05 0.000178508 -4.81612e-06
-0.0140216 0 0.00281645 0.00372474 -0.0134164 -0.00406307
0.0140216 0 0.00281645 -0.00146287 0.00657499 -0.000155191
-0.013895 5.64689e-22 0.00367137 0.0021 -0.00597742 -0.00158861
0.0138951 1.12938e-21 0.00367137 -0.000674158 0.00288968 -6.72391e-05
-0.0144216 -4.70574e-23 0.000792946 0.00141481 -0.0147775 -0.00243975
0.0144217 1.41172e-22 0.000792946 -0.000752724 0.00375668 -0.000169848
0.0144531 0 3.0858e-16 0 0 0
-0.0144531 1.35525e-20 3.05013e-16 0 0 0
0.0143962 -5.64689e-22 0.00165212 -0.00149492 0.00690958 -0.000133279
-0.0143962 -8.47033e-22 0.00165212 0.00276795 -0.0188599 -0.00467993
-0.0140802 -2.71051e-20 0.00343826 0.00350483 -0.00932822 -0.00329143
0.0140802 0 0.00343825 -0.00106886 0.00470188 -9.76624e-05
-0.0140067 0 0.00392192 0.00159745 -0.00387383 -0.000933662
0.0140067 0 0.00392194 -0.000455767 0.00188081 -5.87114e-05
0.0143665 -2.11758e-22 0.00242468 -0.00165482 0.00744428 -0.000124962
-0.0143665 0 0.00242468 0.00366071 -0.0164482 -0.00601654
-0.0143623 2.11758e-22 0.00267465 0.0039149 -0.0151607 -0.00591635
0.0143623 -2.11758e-22 0.00267497 -0.00157763 0.00705271 -0.00011728
0.0140362 -1.69407e-21 0.00420871 0 0 0
-0.0140362 1.69407e-21 0.00420869 0 0 0
0.014043 0 0.00420186 -2.02043e-05 8.45701e-05 -2.28169e-06
-0.014043 0 0.00420185 7.34992e-05 -0.000171722 -4.39373e-05
-0.0140444 1.69407e-21 0.00421477 0 0 0
0.0140443 -1.69407e-21 0.00421479 0 0 0
-0.0140522 0 0.00422057 0 0 0
0.0140522 -1.69407e-21 0.0042206 0 0 0
-0.0140564 1.69407e-21 0.00421301 9.37122e-05 -0.00016292 -8.87859e-05
0.0140564 -1.69407e-21 0.00421303 -1.84697e-05 7.71528e-05 -2.74682e-06
-0.014684 -6.77626e-21 -1.73482e-17 0 0 0
0.014684 2.71051e-20 -1.61167e-17 0 0 0
0.0143544 -1.99053e-20 0.00313091 -0.00143523 0.00633159 -0.000103604
-0.0143544 0 0.0031309 0.00437982 -0.0127829 -0.00571438
-0.014361 0 0.00313026 0.00438804 -0.0127777 -0.00573592
0.014361 4.23516e-22 0.00313027 -0.00143501 0.00632921 -0.000102889
-0.0147037 -8.13152e-21 0.000271523 -0.000243008 -0.00779521 -0.00126963
0.0147038 -5.42101e-21 0.000271578 -0.000239065 0.00131252 -0.000115364
-0.014356 0 0.00329991 0.00418677 -0.0114645 -0.00526058
0.014356 0 0.00330011 -0.00128664 0.00567702 -9.56921e-05
0.0147328 5.42101e-20 0.00124141 -0.00139644 0.00637101 -0.000124783
-0.0147328 0 0.00124141 0.00137031 -0.0200364 -0.00449332
-0.0146167 0 0.00238823 0.0035364 -0.0173134 -0.00689762
0.0146174 2.11758e-22 0.00238811 -0.00174517 0.00770636 -9.25835e-05
-0.0146909 -2.71051e-20 0.00203583 0.00292764 -0.0187849 -0.00708567
0.0146909 0 0.00203583 -0.00178019 0.00797952 -9.57833e-05
-0.0143356 4.03349e-23 0.00382206 0.00331369 -0.00693735 -0.00350267
0.0143356 -4.03349e-23 0.00382208 -0.000776559 0.0034294 -6.90224e-05
-0.0143244 0 0.00417019 0.00207414 -0.00381643 -0.00201553
0.0143244 -2.71051e-20 0.00417021 -0.000416403 0.00181113 -7.48826e-05
-0.0142789 -8.47033e-22 0.00438875 0 0 0
0.0142791 0 0.0043889 0 0 0
-0.0146906 -2.71051e-20 0.00275577 0.00447725 -0.0161924 -0.00838226
0.0146906 -2.71051e-20 0.00275577 -0.00181446 0.00789511 -0.000100731
0.0149563 1.41172e-22 0.00165196 -0.00167604 0.00735991 -7.40766e-05
-0.0149571 -1.41172e-22 0.00165041 0.00162539 -0.0200548 -0.00604305
-0.0146586 -2.71051e-20 0.00346816 0.00589999 -0.0126643 -0.00752149
0.0146586 0 0.00346817 -0.00144626 0.00637318 -5.94102e-05
-0.0144053 -8.47033e-22 0.00448256 3.95489e-05 -5.93567e-05 -3.79392e-05
0.0144084 0 0.00447898 -5.97198e-06 2.89658e-05 -1.22069e-06
-0.015119 -6.77626e-21 -5.58821e-17 0 0 0
0.0151193 -3.38813e-21 -5.55922e-17 0 0 0
-0.0144514 -8.47033e-22 0.00451675 0 0 0
0.0144515 -1.69407e-21 0.00451675 0 0 0
-0.0151609 0 3.481e-05 -5.08008e-05 -0.000902623 -0.000153363
0.0151609 0 3.45974e-05 -3.23374e-05 0.000182577 -4.76002e-06
-0.0151663 -3.38813e-21 -1.814e-17 0 0 0
0.0151663 0 -1.80472e-17 0 0 0
-0.0145673 3.76459e-22 0.00422607 0.00340217 -0.00525612 -0.00352667
0.0145673 -7.52918e-22 0.00422609 -0.000549288 0.00254672 -6.96121e-05
0.0151841 3.38813e-21 -1.09306e-17 0 0 0
-0.0151841 3.38813e-21 -1.09842e-17 0 0 0
-0.0151655 -6.77626e-21 0.000867911 -0.00027199 -0.0154476 -0.00323721
0.0151655 -5.64689e-21 0.000867908 -0.000954644 0.00422098 -0.000101551
0.0152147 0 -1.10411e-17 0 0 0
0.0152147 0 2.26993e-05 -3.47013e-05 0.000140058 -1.92302e-06
-0.015215 6.77626e-21 -1.1094e-17 0 0 0
-0.015215 0 2.28405e-05 -0.000134786 -0.000648074 -7.55551e-05
-0.0147125 2.71051e-20 0.00402551 0.00528096 -0.00856961 -0.00597613
0.0147125 0 0.00402553 -0.000895829 0.00419217 -7.62464e-05
-0.0150841 -4.23516e-22 0.0023135 0.00329913 -0.0189308 -0.00853102
0.0150841 -4.23516e-22 0.0023135 -0.00191196 0.00819197 -3.29162e-05
-0.0150901 -8.89385e-21 0.00232073 0.00330537 -0.0189343 -0.00854932
0.015084 1.27055e-21 0.00232059 -0.00191383 0.00819513 -3.20336e-05
-0.0149792 4.23516e-22 0.0031214 0.0057851 -0.0164459 -0.00958293
0.0149792 -5.64689e-22 0.0031214 -0.00179322 0.00772388 -8.33447e-06
-0.0146794 -5.42101e-20 0.00445851 0.00291966 -0.0034648 -0.00266516
0.0146795 0 0.00445853 -0.000344627 0.00167742 -5.7631e-05
-0.0149711 0 0.00367473 0.00691075 -0.0133312 -0.00886076
0.0149711 0 0.00367494 -0.00141127 0.00628082 2.16696e-06
-0.0149706 0 0.00377567 0.00711651 -0.0127551 -0.00872574
0.0149684 -2.96462e-21 0.00377781 -0.00134082 0.00601456 4.05618e-06
-0.0147268 0 0.00472093 0 0 0
0.0147268 6.77626e-21 0.00472096 0 0 0
-0.0147397 0 0.0047038 0.000374307 -0.000431569 -0.000333046
0.0147397 6.77626e-21 0.00470382 -4.4571e-05 0.000201275 -6.06364e-06
-0.0147494 6.77626e-21 0.00473772 0 0 0
0.0147494 0 0.00473775 0 0 0
0.015025 -2.11758e-22 0.00377792 -0.00137616 0.00616357 2.42655e-05
-0.0150252 1.05879e-21 0.00377791 0.00734294 -0.0131766 -0.00896778
-0.0147753 0 0.0047569 0 0 0
0.0147753 6.77626e-21 0.00475694 0 0 0
-0.0147957 -6.77626e-21 0.00471951 0.000929625 -0.00083228 -0.000848709
0.0147957 0 0.00471954 -7.38126e-05 0.000380251 3.20244e-07
-0.0149236 2.5411e-21 0.00432832 0.00560375 -0.00717466 -0.00575411
0.0149238 2.11758e-22 0.00432831 -0.000708674 0.00337264 -1.29399e-05
-0.0149307 2.11758e-22 0.0043143 0.00578489 -0.00740801 -0.00594048
0.0149284 -8.47033e-21 0.00431372 -0.000731675 0.00348223 -1.34016e-05
-0.0153071 0 0.00276682 0.0046694 -0.0195872 -0.0109169
0.0153071 0 0.00276682 -0.00209078 0.00875531 4.6122e-05
-0.0149538 -2.11758e-22 0.00432332 0.00594448 -0.00756372 -0.00607177
0.0149538 -2.11758e-22 0.00432332 -0.000740243 0.00353392 -5.66377e-06
-0.0152762 2.71051e-20 0.00345527 0.00804013 -0.0173521 -0.0114877
0.0152762 0 0.00345527 -0.00182312 0.00787465 8.04955e-05
-0.015665 5.42101e-20 0.00170495 -0.000291525 -0.0223544 -0.00722554
0.015665 0 0.00170495 -0.00199562 0.00805644 5.16151e-05
-0.0150897 -2.71051e-20 0.00463312 0.00610288 -0.00543279 -0.00554488
0.0150898 0 0.00463317 -0.000504023 0.0025663 5.31229e-06
-0.0152566 0 0.00410558 0.00952223 -0.013172 -0.0103741
0.0152566 0 0.00410559 -0.00127341 0.00593268 8.47573e-05
0.0156482 -2.82344e-22 0.00239974 -0.00219423 0.0088518 0.000150382
-0.0156482 2.11758e-22 0.00239974 0.0029871 -0.0213813 -0.00948399
-0.0150378 0 0.00495164 0 0 0
0.0150379 -6.77626e-21 0.0049517 0 0 0
-0.0158311 -5.42101e-20 0.000505741 -0.00278167 -0.0140161 -0.00162759
0.0158311 -5.42101e-20 0.000505742 -0.000713995 0.00304185 -4.69684e-05
-0.0150929 0 0.00489488 0.00172858 -0.00154758 -0.00157813
0.015093 0 0.00489493 -0.000137238 0.000706988 5.9542e-07
-0.0150892 -1.35525e-20 0.00498975 0 0 0
0.0150893 0 0.00498982 0 0 0
-0.015606 2.82344e-22 0.0031034 0.00614066 -0.0200352 -0.0108902
0.015606 -2.82344e-22 0.00310341 -0.0021206 0.00876967 0.000195417
-0.0151438 0 0.00503029 0 0 0
0.0151439 6.77626e-21 0.00503035 0 0 0
-0.0151784 1.35525e-20 0.00496289 0.0021399 -0.00191576 -0.00194501
0.0151785 1.35525e-20 0.00496294 -0.000131378 0.000707706 1.86598e-05
-0.0155884 -1.46819e-21 0.00378776 0.00956654 -0.0174635 -0.0112341
0.0155884 3.38813e-22 0.00378777 -0.00174319 0.00769711 0.000241248
-0.0155033 -1.35525e-21 0.00450864 0.00953859 -0.0111077 -0.00902898
0.0155033 2.25875e-22 0.00450867 -0.000935692 0.00471615 0.00016928
-0.0154178 0 0.00490558 0.00742158 -0.00656981 -0.00675692
0.0154179 2.71051e-20 0.00490563 -0.000450418 0.00247903 7.76524e-05
-0.0159469 0 0.00273842 0.00346078 -0.0223776 -0.00968311
0.0159469 5.42101e-20 0.00273842 -0.00238546 0.00939138 0.000289261
-0.0153971 -1.35525e-20 0.00521815 0 0 0
0.0153972 2.03288e-20 0.00521821 0 0 0
-0.015903 0 0.0034351 0.00832049 -0.0207942 -0.0114315
0.015903 5.42101e-20 0.00343511 -0.00218078 0.0090379 0.000363098
-0.0154387 -6.77626e-21 0.00517349 0.00173611 -0.00155426 -0.001578
0.0154387 0 0.00517354 -0.000106589 0.000574171 1.51389e-05
-0.0154377 6.77626e-21 0.00524824 0 0 0
0.0154377 0 0.00524829 0 0 0
0.0163344 -2.11758e-21 -1.19204e-18 0 0 0
-0.0163357 0 -1.18554e-18 0 0 0
-0.0154764 -6.77626e-21 0.00527693 0 0 0
0.0154764 6.77626e-21 0.00527698 0 0 0
-0.0155053 0 0.00524153 0.00165905 -0.00108989 -0.00128513
0.0155053 1.35525e-20 0.00524158 -5.81343e-05 0.000443868 2.98614e-05
0.0163538 4.65868e-21 0.00112145 -0.00151873 0.00564505 7.74617e-05
-0.0163541 0 0.00112151 -0.00305724 -0.0190272 -0.00306931
-0.0158756 -2.71051e-20 0.0041209 0.0122764 -0.0181091 -0.012034
0.0158756 2.71051e-20 0.00412092 -0.00164024 0.00774011 0.000371832
0.0163767 9.95264e-21 0.00112763 -0.00152947 0.00567328 8.08102e-05
-0.0163741 -1.8423e-20 0.0011274 -0.00310749 -0.0190963 -0.00306838
-0.0156932 -7.52918e-22 0.00495312 0.00966794 -0.0085843 -0.00818817
0.0156933 0 0.00495315 -0.000569203 0.00339248 0.000183978
0.0164701 4.23516e-22 3.15169e-06 -2.6378e-06 1.14595e-05 -1.61994e-07
-0.0164637 0 2.60344e-06 -1.53639e-05 -5.26227e-05 -3.70452e-06
0.0163214 0 0.00227442 -0.00245998 0.00900481 0.000353549
-0.0163214 -1.12938e-21 0.00227442 0.00114757 -0.0228464 -0.00662917
-0.0162376 -5.64689e-22 0.00307739 0.00535596 -0.0218377 -0.00862023
0.0162376 1.01644e-21 0.0030774 -0.0024291 0.00940689 0.000462839
-0.0159046 -2.71051e-20 0.00473208 0.0131158 -0.0138067 -0.0112575
0.0159046 5.42101e-20 0.00473209 -0.000963597 0.00554149 0.000339625
-0.0157801 -2.71051e-20 0.00520579 0.00875394 -0.00573377 -0.00678523
0.0157802 -2.71051e-20 0.00520583 -0.000319719 0.00229712 0.000144676
-0.0162469 1.69407e-21 0.00372972 0.00965717 -0.0201487 -0.00948434
0.0162469 1.12938e-21 0.00372973 -0.00209977 0.00893094 0.00055948
-0.0157745 0 0.00549808 0 0 0
0.0157746 0 0.00549812 0 0 0
-0.0158014 6.77626e-21 0.00547416 0.00128058 -0.00084126 -0.000991959
0.0158015 0 0.00547419 -4.48763e-05 0.00034264 2.30512e-05
-0.0158049 6.77626e-21 0.00552063 0 0 0
0.015805 0 0.00552067 0 0 0
-0.0158346 6.77626e-21 0.00554267 0 0 0
0.0158347 0 0.00554272 0 0 0
-0.0158529 0 0.00551417 0.00154339 -0.0011235 -0.00110112
0.015853 0 0.00551421 -3.75688e-05 0.000341564 3.07996e-05
-0.016198 0 0.00441893 0.0128176 -0.0176792 -0.010226
0.0161981 4.51751e-22 0.00441893 -0.0014908 0.00754456 0.000551251
-0.0166697 0 0.00284041 0.00283339 -0.0228544 -0.00508493
0.0166697 0 0.00284041 -0.00279528 0.00983676 0.000653363
-0.0161695 -2.25875e-22 0.00510698 0.0123798 -0.0118394 -0.00891954
0.0161695 4.51751e-22 0.00510701 -0.000664964 0.00445523 0.000380254
-0.0166597 0 0.00328606 0.00607362 -0.0218178 -0.00555768
0.0166597 2.71051e-20 0.00328607 -0.00267436 0.00990443 0.000752204
-0.0165248 -2.71051e-20 0.00409519 0.0113169 -0.0201535 -0.00802176
0.0165248 -2.71051e-20 0.00409519 -0.00201249 0.00919299 0.000789934
-0.0161206 2.71051e-20 0.00547661 0.0102206 -0.00739947 -0.00754677
0.0161207 0 0.00547665 -0.000253273 0.00223998 0.000186835
-0.0170334 0 0.00057692 -0.00604944 -0.0162419 -0.00041051
0.0170334 5.42101e-20 0.00057692 -0.000865492 0.00352618 -3.85893e-05
-0.0168874 8.47033e-22 0.00239017 0.000700072 -0.0230854 -0.00339925
0.0168874 1.05879e-21 0.00239018 -0.00281549 0.00931956 0.000609953
-0.0169716 -5.42101e-20 0.00176735 -0.00319031 -0.024091 -0.00323925
0.0169716 -5.42101e-20 0.00176735 -0.00259483 0.00826632 0.000362139
-0.0169179 2.11758e-22 0.00239497 0.000678058 -0.0230978 -0.00322565
0.0169179 0 0.00239497 -0.00283459 0.0093368 0.000623851
0.016944 0 0.00239537 -0.00284916 0.00933191 0.00063098
-0.016944 -2.11758e-22 0.00239537 0.000689064 -0.0230558 -0.00308668
-0.0168719 -1.35525e-20 0.00305894 0.00426663 -0.0220535 -0.00335868
0.0168719 0 0.00305894 -0.00287877 0.00997251 0.000816431
-0.0161674 -6.77626e-21 0.00578953 0 0 0
0.0161674 0 0.00578955 0 0 0
-0.0165034 -2.71051e-20 0.00475625 0.0151455 -0.0183933 -0.00964996
0.0165034 -2.71051e-20 0.00475627 -0.00126248 0.00756178 0.000717885
-0.0161836 0 0.00577012 0.001153 -0.000839312 -0.000822597
0.0161836 6.77626e-21 0.00577014 -2.80702e-05 0.000255205 2.30124e-05
-0.0161897 0 0.00580603 0 0 0
0.0161897 0 0.00580606 0 0 0
-0.0162121 0 0.00582272 0 0 0
0.0162122 0 0.00582276 0 0 0
-0.0162243 0 0.00580494 0.00109678 -0.000770903 -0.000730856
0.0162243 -6.77626e-21 0.00580498 -1.61303e-05 0.000228061 2.64899e-05
0.0168523 3.38813e-22 0.00374134 -0.00243163 0.00980604 0.000944181
-0.0168523 -5.64689e-22 0.00374134 0.00885233 -0.020401 -0.00396504
-0.0163971 -4.23516e-22 0.00553967 0.011983 -0.010109 -0.00814033
0.0163973 -7.05861e-22 0.00553971 -0.000352307 0.00323114 0.000335185
-0.0170978 2.71051e-20 0.00283719 0.00270268 -0.0223446 -0.00126316
0.0170978 -2.71051e-20 0.00283719 -0.0031039 0.00996801 0.000875284
-0.0170665 5.42101e-20 0.00327483 0.00544294 -0.0212972 -0.00133146
0.0170665 0 0.00327483 -0.00296722 0.0102414 0.000999026
-0.0165625 0 0.0053276 0.0153691 -0.0152274 -0.00980044