# UMean  POINT_DATA 26948
# x  y  z  UMean_x  UMean_y  UMean_z
0.0101542 -1.35525e-20 1.397e-07 0 0 0
-0.0101542 1.35525e-20 1.397e-07 0 0 0
-0.0101542 2.71051e-20 0.000269592 0 0 0
0.0101542 -1.35525e-20 0.000269592 0 0 0
-0.0101542 1.35525e-20 0.000769234 0 0 0
0.0101542 0 0.000769234 0 0 0
0.0101542 0 0.00104357 0 0 0
-0.0101542 0 0.00104357 0 0 0
-0.0101542 -1.35525e-20 0.00131779 0 0 0
0.0101542 1.35525e-20 0.00131779 0 0 0
0.0102506 2.71051e-20 0.000298262 -2.95143e-05 0.000149889 7.98527e-07
-0.0102506 -1.35525e-20 0.000298263 0.000194673 -0.00106867 -2.00411e-05
0.0102543 0 0.0008759 -3.06405e-05 0.000155609 8.28998e-07
-0.0102543 1.35525e-20 0.000875901 0.000202102 -0.00110945 -2.08058e-05
-0.0101542 0 0.00181774 0 0 0
0.0101542 0 0.00181774 0 0 0
0.0103268 -1.35525e-20 1.10555e-07 0 0 0
-0.0103268 0 1.10554e-07 0 0 0
0.0102523 0 0.00124395 -4.98329e-05 0.000261372 2.0235e-06
-0.0102523 0 0.00124395 0.000275183 -0.00147423 2.33807e-05
0.0101542 2.71051e-20 0.002087 0 0 0
-0.0101542 -2.71051e-20 0.002087 0 0 0
0.0103709 -1.35525e-20 0.000111968 -4.89582e-07 3.42725e-06 1.83307e-07
-0.0103709 0 0.00011197 0.000141866 -0.000774964 -1.65368e-05
0.0103677 -1.35525e-20 0.000675222 -6.37958e-05 0.00033202 1.96493e-06
-0.0103677 -1.35525e-20 0.000675223 0.000427542 -0.0023653 -3.79776e-05
0.0102487 -1.35525e-20 0.0018202 -4.80246e-05 0.000251888 1.95007e-06
-0.0102487 1.35525e-20 0.0018202 0.000265197 -0.00142073 2.25323e-05
0.0103636 -2.71051e-20 0.00148272 -0.000104932 0.000559383 3.59754e-06
-0.0103636 -1.35525e-20 0.00148274 0.000582542 -0.00315695 4.9132e-05
-0.0102712 0 0.00214808 0 0 0
0.0102712 -1.35525e-20 0.00214808 0 0 0
0.0103515 0 0.00204725 -6.105e-05 0.000312996 1.76179e-06
-0.0103515 0 0.00204725 0.000316457 -0.00172192 2.58819e-05
-0.0106317 3.01167e-21 0.000607148 0.000735144 -0.00378454 -1.82168e-05
0.0106317 0 0.000607147 -9.36376e-05 0.00050032 1.66606e-10
0.0106102 7.90564e-21 0.00112188 -0.000175965 0.000938022 -7.56226e-07
-0.0106102 0 0.00112189 0.00107491 -0.00554578 4.52717e-05
-0.0106774 0 0.000276337 0.000337665 -0.0018305 -2.76112e-05
0.0106774 0 0.000276337 -1.13279e-06 8.5426e-06 4.63694e-07
0.0106161 -3.01167e-21 0.00164337 -0.00018087 0.000955731 -2.72972e-07
-0.0106162 1.50584e-21 0.00164337 0.00100096 -0.00531371 8.27788e-05
-0.0107648 0 4.28332e-08 0 0 0
0.0107648 1.35525e-20 4.28298e-08 0 0 0
0.0105534 -1.35525e-20 0.00229536 0 0 0
-0.0105534 6.77626e-21 0.00229537 0 0 0
0.0106301 0 0.00198753 -0.000146338 0.000754445 7.15565e-07
-0.0106301 0 0.00198753 0.000757291 -0.00415291 4.84825e-05
-0.0108244 0 8.90662e-05 0.000112908 -0.00061678 -1.31614e-05
0.0108244 0 8.90541e-05 -3.89604e-07 2.72737e-06 1.45874e-07
0.0106419 0 0.00222467 -5.00093e-05 0.000256391 1.44318e-06
-0.0106419 0 0.00222468 0.000259207 -0.0014104 2.11996e-05
-0.0108971 -1.35525e-20 2.09165e-08 0 0 0
0.0108971 -1.35525e-20 2.09159e-08 0 0 0
0.0106479 0 0.0023447 0 0 0
-0.0106479 0 0.00234469 0 0 0
0.0108702 2.71051e-20 0.000884384 -0.000230697 0.00123623 -3.24724e-06
-0.0108702 -2.71051e-20 0.000884388 0.00154274 -0.00762176 1.37514e-05
0.0108765 -2.71051e-20 0.00145346 -0.000301321 0.00160033 -5.36011e-06
-0.0108766 0 0.00145346 0.00171792 -0.00888886 0.000155934
-0.0107255 0 0.00238519 0 0 0
0.0107255 0 0.0023852 0 0 0
0.0110033 0 1.81922e-08 0 0 0
-0.0110033 1.35525e-20 1.81922e-08 0 0 0
-0.0107625 0 0.00231974 0.00025906 -0.00146296 2.3372e-05
0.0107625 0 0.00231973 -5.63625e-05 0.000275943 -2.09034e-06
0.0110153 -1.35525e-20 7.96732e-05 -5.15694e-07 2.37807e-06 -5.70191e-09
-0.0110153 -1.35525e-20 7.96867e-05 0.000225612 -0.00102629 1.22176e-06
-0.0110632 -2.25875e-21 0.000577067 0.00122728 -0.00586185 3.67927e-05
0.0110632 0 0.000577066 -0.000140737 0.000735579 -1.60921e-06
0.0111416 0 0.001188 -0.000330699 0.00172028 -7.08435e-06
-0.0111416 -5.64689e-21 0.00118801 0.00198161 -0.0098262 0.000153171
0.0110829 5.42101e-21 0.00186756 -0.000294182 0.00150388 -9.99594e-06
-0.0110829 0 0.00186756 0.00149761 -0.00799404 0.000152997
0.0110229 2.71051e-20 0.00226217 -0.00018205 0.000898853 -9.52825e-06
-0.0110229 0 0.00226218 0.00082724 -0.00476007 5.79996e-05
-0.0113157 2.71051e-20 0.000285031 0.000802598 -0.00361637 1.12797e-05
0.0113157 0 0.000285027 -1.94277e-06 8.43963e-06 2.4104e-07
0.0110601 6.77626e-21 0.00255988 0 0 0
-0.0110601 -6.77626e-21 0.0025599 0 0 0
0.0110969 -6.77626e-21 0.00251435 -4.30533e-05 0.000210783 -1.59673e-06
-0.0110969 0 0.00251438 0.000197862 -0.00111736 1.78508e-05
0.011119 6.77626e-21 0.00259067 0 0 0
-0.011119 0 0.00259068 0 0 0
-0.0114092 0 0.000887764 0.00224999 -0.0104725 0.000156045
0.0114092 -2.71051e-20 0.000887761 -0.000334683 0.0017136 -3.96788e-06
-0.0111709 -6.77626e-21 0.00261768 0 0 0
0.0111709 1.35525e-20 0.00261768 0 0 0
-0.0111905 0 0.00257828 0.000153751 -0.000974166 2.73331e-05
0.0111905 -6.77626e-21 0.00257827 -3.77364e-05 0.000190466 -1.45413e-06
0.0114292 -2.71051e-20 0.00153031 -0.000466375 0.00238261 -1.6106e-05
-0.0114292 2.71051e-20 0.00153031 0.00246437 -0.0125712 0.000297223
-0.0115336 -6.77626e-21 3.98228e-09 0 0 0
0.0115337 -6.77626e-21 3.98131e-09 0 0 0
0.011316 0 0.00229792 -0.000247567 0.00125026 -1.17677e-05
-0.011316 -2.25875e-21 0.00229793 0.0011133 -0.0064444 0.000131459
-0.0115492 0 5.7524e-05 0.000162891 -0.000740973 8.82103e-07
0.0115493 6.77626e-21 5.75003e-05 -3.72238e-07 1.71654e-06 -4.11575e-09
-0.0116095 0 2.02398e-09 0 0 0
0.0116096 6.77626e-21 2.02389e-09 0 0 0
0.0114857 0 0.0020737 -0.000397699 0.00200234 -1.90258e-05
-0.0114857 0 0.00207371 0.00185532 -0.0102361 0.000229379
-0.0116746 0 1.84332e-09 0 0 0
0.0116747 -6.77626e-21 1.84333e-09 0 0 0
-0.011679 0 5.25309e-05 0.000191484 -0.00080918 1.61826e-06
0.011679 -6.77626e-21 5.25072e-05 -4.28803e-07 1.55581e-06 1.02459e-07
-0.0116878 -2.25875e-21 0.000581193 0.00175352 -0.00769465 8.84067e-05
0.0116878 -1.12938e-21 0.000581192 -0.000191531 0.000955742 -3.74721e-06
0.0114475 -2.71051e-20 0.00253489 -0.000166464 0.00086572 -6.57016e-06
-0.0114475 0 0.0025349 0.000676513 -0.00442327 0.000110268
0.0117411 -5.64689e-22 0.0012051 -0.000464819 0.00232358 -1.78928e-05
-0.0117411 -1.12938e-21 0.0012051 0.00272065 -0.0126633 0.000218257
0.0115287 -6.77626e-21 0.00280414 0 0 0
-0.0115287 0 0.00280416 0 0 0
0.01155 0 0.0027727 -3.23526e-05 0.000163293 -1.24667e-06
-0.01155 6.77626e-21 0.00277272 0.000131805 -0.000835116 2.34317e-05
0.0117713 5.64689e-22 0.00182837 -0.000518007 0.00256854 -2.99606e-05
-0.0117713 0 0.00182837 0.00248687 -0.0127664 0.000255278
0.0115729 0 0.00282717 0 0 0
-0.0115729 0 0.00282718 0 0 0
-0.0116142 0 0.00284907 0 0 0
0.0116142 0 0.00284907 0 0 0
-0.0116388 6.77626e-21 0.00280418 0.000185012 -0.00113258 3.27821e-05
0.0116388 0 0.00280416 -5.32808e-05 0.000236319 -4.58653e-06
0.0117404 -5.64689e-22 0.00237671 -0.000354506 0.0017218 -2.34939e-05
-0.0117404 0 0.00237671 0.00147149 -0.00839835 0.000193008
-0.0119843 0 0.000286091 0.00103879 -0.00436372 1.26719e-05
0.0119843 0 0.000286094 -2.42676e-06 8.24611e-06 1.20994e-06
0.0120413 2.71051e-20 0.000886354 -0.000430685 0.00210811 -1.30184e-05
-0.0120413 -2.71051e-20 0.000886355 0.00294218 -0.0123813 0.000174427
0.0120819 -2.71051e-20 0.00151675 -0.000630113 0.00310377 -3.88293e-05
-0.0120819 -2.71051e-20 0.00151675 0.00323105 -0.0152729 0.000245878
0.0119435 -5.42101e-20 0.0026998 -0.000292824 0.00131062 -2.3623e-05
-0.0119435 2.71051e-20 0.00269981 0.00102227 -0.00631985 0.000193919
-0.0122585 0 2.3573e-10 0 0 0
0.0122586 6.77626e-21 2.35578e-10 0 0 0
-0.012263 0 3.33749e-05 0.000121661 -0.000514118 1.02817e-06
0.012263 0 3.33336e-05 -2.72228e-07 9.87718e-07 6.50466e-08
0.0120908 0 0.00215656 -0.000593341 0.00285834 -4.74818e-05
-0.0120908 -2.71051e-20 0.00215657 0.0024734 -0.0133053 0.000252782
-0.0122997 0 1.21629e-10 0 0 0
0.0122997 0 1.21626e-10 0 0 0
0.0123365 6.77626e-21 1.15206e-10 0 0 0
-0.0123366 0 1.152e-10 0 0 0
0.0123381 0 2.92239e-05 -2.91919e-07 1.07898e-06 2.07072e-07
-0.0123381 0 2.92618e-05 0.000131265 -0.000491526 2.5822e-06
0.0119751 -6.77626e-21 0.00303983 0 0 0
-0.0119752 0 0.00303985 0 0 0
-0.0123477 -1.12938e-21 0.000568688 0.00217663 -0.00868107 6.27052e-05
0.0123477 2.25875e-21 0.000568689 -0.000231581 0.00111163 -1.04627e-05
0.0120031 -6.77626e-21 0.00299958 -5.06447e-05 0.000224627 -4.35961e-06
-0.0120032 0 0.00299961 0.00017586 -0.00107656 3.11604e-05
0.0120142 6.77626e-21 0.00306058 0 0 0
-0.0120143 0 0.00306059 0 0 0
0.0120519 0 0.00308051 0 0 0
-0.012052 0 0.00308052 0 0 0
0.0120703 0 0.00304363 -4.98459e-05 0.000213845 -5.55842e-06
-0.0120704 -6.77626e-21 0.00304365 0.000147262 -0.000924612 2.2767e-05
0.0123957 0 0.0011843 -0.000581991 0.00281228 -3.79151e-05
-0.0123957 2.25875e-21 0.0011843 0.00336425 -0.0144896 7.62885e-05
0.0124154 2.82344e-22 0.00184243 -0.000702973 0.00335317 -6.16681e-05
-0.0124154 -8.47033e-22 0.00184244 0.00311052 -0.0151136 2.83773e-05
0.0123819 4.51751e-22 0.00255904 -0.00051546 0.00234826 -5.46483e-05
-0.0123819 2.25875e-22 0.00255905 0.00182095 -0.00997029 5.97733e-05
-0.012651 2.71051e-20 0.000272689 0.0012209 -0.00456102 2.90016e-05
0.012651 5.42101e-20 0.00027269 -2.82692e-06 9.72396e-06 3.2669e-06
0.012351 0 0.00296124 -0.000293911 0.00126309 -3.24681e-05
-0.012351 0 0.00296126 0.000872713 -0.00549876 0.00013757
-0.0126986 2.71051e-20 0.000851203 0.00352242 -0.0134911 3.50188e-05
0.0126986 0 0.000851203 -0.000494771 0.00234017 -3.40669e-05
0.0127386 -2.71051e-20 0.00148681 -0.00077155 0.0036941 -6.54152e-05
-0.0127386 -2.71051e-20 0.00148681 0.00376146 -0.0168087 -0.000149754
0.0124095 0 0.00326997 0 0 0
-0.0124095 0 0.00327 0 0 0
0.0124312 6.77626e-21 0.00323664 -4.79614e-05 0.00020576 -5.34827e-06
-0.0124313 0 0.00323667 0.000141699 -0.000889682 2.19069e-05
0.0124457 0 0.00328913 0 0 0
-0.0124457 0 0.00328915 0 0 0
-0.0124807 -6.77626e-21 0.00330749 0 0 0
0.0124807 6.77626e-21 0.00330748 0 0 0
-0.0124951 -1.35525e-20 0.00327723 0.000102982 -0.000716054 2.61743e-05
0.0124951 0 0.00327721 -4.26964e-05 0.000183109 -5.21149e-06
0.0127374 -2.71051e-20 0.00217209 -0.000821708 0.00377982 -9.52828e-05
-0.0127374 2.71051e-20 0.0021721 0.00301606 -0.0151794 -0.000244804
-0.0129741 1.69407e-21 5.65705e-12 0 0 0
0.0129742 -1.69407e-21 5.64307e-12 0 0 0
-0.0129746 0 9.30702e-06 4.17504e-05 -0.000156335 8.21297e-07
0.0129747 -1.69407e-21 9.23962e-06 -9.22952e-08 3.41138e-07 6.54692e-08
0.0126308 1.12938e-21 0.00298495 -0.000391479 0.00171205 -4.69232e-05
-0.0126308 1.50584e-21 0.00298495 0.00114166 -0.00680549 8.30939e-05
-0.0129857 0 3.62845e-12 0 0 0
0.0129857 -1.69407e-21 3.62927e-12 0 0 0
0.0129964 0 7.53328e-06 1.03429e-07 4.50219e-07 2.53284e-07
-0.0129965 0 7.58852e-06 2.84267e-05 -0.000140271 -1.48252e-06
0.0129967 -1.69407e-21 3.57564e-12 0 0 0
-0.0129967 0 3.57443e-12 0 0 0
-0.0130091 -5.64689e-22 0.000523311 0.00230182 -0.00899599 -9.86554e-05
0.0130091 -1.12938e-21 0.000523314 -0.000253842 0.00114851 -2.7314e-05
0.0130262 0 0.00111842 -0.000663781 0.00307999 -6.96816e-05
-0.0130271 1.37643e-21 0.00111833 0.00367369 -0.0153382 -0.000413304
0.012792 2.71051e-20 0.00274343 -0.000628695 0.00279058 -7.97528e-05
-0.012792 -2.71051e-20 0.00274344 0.00195689 -0.0106424 -6.09791e-05
0.0130595 -2.11758e-22 0.00107278 -0.000639409 0.00295854 -6.84456e-05
-0.0130596 0 0.00107386 0.00359624 -0.0149485 -0.000417949
0.0130623 2.11758e-22 0.00111573 -0.000668695 0.00309618 -7.15578e-05
-0.0130622 0 0.00111377 0.0036917 -0.015388 -0.000441418
0.0127559 2.71051e-20 0.00321815 -0.000261104 0.00112445 -2.9648e-05
-0.0127559 2.71051e-20 0.00321816 0.000629433 -0.00443791 0.00016926
0.0131777 1.69407e-21 2.72892e-12 0 0 0
-0.0131792 -1.69407e-21 2.72161e-12 0 0 0
0.0130706 0 0.00181595 -0.000873655 0.00402303 -9.79433e-05
-0.0130706 -4.23516e-22 0.00181592 0.00348057 -0.0161289 -0.000852738
0.0128312 0 0.00349147 0 0 0
-0.0128312 0 0.00349149 0 0 0
0.0128495 0 0.00346311 -4.28146e-05 0.000183615 -5.22591e-06
-0.0128495 0 0.00346313 0.00010327 -0.000718057 2.62475e-05
0.0133093 2.71051e-20 0.000237079 -9.08412e-07 1.37819e-05 1.03478e-05
-0.0133094 -2.71051e-20 0.000237071 0.000933423 -0.00436851 -4.75406e-05
0.0130829 -1.41172e-22 0.00247292 -0.000840861 0.00373296 -0.000110914
-0.0130829 2.82344e-22 0.00247293 0.00275687 -0.0132415 -0.000858681
0.0128663 0 0.00350989 0 0 0
-0.0128663 0 0.0035099 0 0 0
-0.0129008 0 0.00352796 0 0 0
0.0129009 6.77626e-21 0.00352796 0 0 0
0.0133557 0 0.000759633 -0.000527557 0.00227577 -9.04699e-05
-0.0133557 2.71051e-20 0.000759629 0.00358473 -0.0137369 -0.000405827
-0.0129238 0 0.00348629 0.000174978 -0.000873607 -5.84007e-06
0.0129238 6.77626e-21 0.00348627 -7.01357e-05 0.000265729 -1.17115e-05
0.0130385 5.64689e-22 0.00304616 -0.000541019 0.00228915 -7.60644e-05
-0.0130385 -1.12938e-21 0.00304617 0.00154252 -0.0079015 -0.000282674
0.013427 2.71051e-20 0.00137599 -0.00088081 0.00408522 -9.46167e-05
-0.013427 2.71051e-20 0.00137599 0.00389696 -0.0175456 -0.00121905
0.0134137 -2.71051e-20 0.00210976 -0.00104836 0.00467795 -0.00013789
-0.0134137 -2.71051e-20 0.00210977 0.00347391 -0.0158552 -0.0019078
0.013227 -5.42101e-20 0.00336662 -0.000430591 0.00164218 -6.80668e-05
-0.013227 0 0.00336663 0.00105993 -0.00548139 1.02427e-06
-0.0136481 -1.97641e-21 0.000454494 0.00189547 -0.00928236 -0.00060612
0.0136481 1.12938e-21 0.000454473 -0.000242054 0.00110147 -5.78243e-05
0.0133902 2.71051e-20 0.00280378 -0.000896845 0.00383033 -0.000135227
-0.0133902 -2.71051e-20 0.00280378 0.00270271 -0.011721 -0.00134898
0.013715 3.38813e-21 2.82164e-13 0 0 0
-0.0137152 3.38813e-21 2.80922e-13 0 0 0
0.0137158 0 2.07521e-05 -4.55074e-07 1.17146e-06 1.12015e-06
-0.013716 0 2.07043e-05 8.56029e-05 -0.000380288 -4.26224e-06
0.0137164 3.38813e-21 0.000170439 -7.93986e-05 0.000359546 -2.19212e-05
-0.0137166 -3.38813e-21 0.000170058 0.00069625 -0.00339362 -0.000211417
0.0137459 -3.38813e-21 2.39908e-14 0 0 0
-0.0137461 -3.38813e-21 2.33451e-14 0 0 0
0.0132451 0 0.0037083 0 0 0
-0.0132451 0 0.00370831 0 0 0
0.0137658 -3.38813e-21 1.53056e-05 4.14281e-07 3.68235e-06 3.42611e-06
-0.0137659 -3.38813e-21 1.52695e-05 5.1265e-05 -0.000313122 -3.50113e-05
0.0137673 3.38813e-21 1.74077e-14 0 0 0
-0.0137675 3.38813e-21 1.67734e-14 0 0 0
0.0132719 0 0.00367136 -6.65312e-05 0.000252072 -1.11096e-05
-0.0132719 0 0.00367139 0.000165979 -0.000828679 -5.53973e-06
0.0132783 0 0.00372567 0 0 0
-0.0132783 6.77626e-21 0.00372568 0 0 0
0.0137897 0 0.000885073 -0.0005856 0.00266393 -0.000101246
-0.0137897 1.12938e-21 0.000885056 0.00281751 -0.0142994 -0.00132418
0.0138209 -3.38813e-21 1.17098e-14 0 0 0
-0.0138209 0 1.1123e-14 0 0 0
-0.0133097 0 0.00374319 0 0 0
0.0133097 -6.77626e-21 0.00374318 0 0 0
-0.0133283 -6.77626e-21 0.0037104 0.000186324 -0.000700349 -9.92727e-05
0.0133283 -6.77626e-21 0.00371039 -6.19152e-05 0.000242224 -7.51138e-06
0.0137515 -5.64689e-22 0.00171046 -0.00104191 0.00461802 -0.000114487
-0.0137515 2.82344e-22 0.00171046 0.00348292 -0.0168805 -0.00262844
0.013678 0 0.00246318 -0.00107812 0.00463266 -0.000138031
-0.0136781 -1.05879e-22 0.00246319 0.00327023 -0.0139401 -0.00285037
0.013721 0 0.00246183 -0.00109503 0.00469678 -0.000139968
-0.013721 1.93759e-20 0.00246184 0.00330669 -0.0139896 -0.0029918
-0.0137186 -1.05879e-22 0.00248646 0.00327744 -0.0138135 -0.00295587
0.0137186 0 0.00248652 -0.00108393 0.00464402 -0.000138767
0.013662 -2.25875e-21 0.00322321 -0.000744075 0.00302933 -0.000101942
-0.013662 4.51751e-22 0.00322321 0.00238172 -0.00840472 -0.00185525
-0.013613 2.71051e-20 0.00362484 0.0012231 -0.00466153 -0.000611926
0.013613 2.71051e-20 0.00362484 -0.000414401 0.00159568 -5.47469e-05
0.0141334 2.82344e-22 0.000318972 -9.36217e-05 0.000519727 -7.39817e-05
-0.0141334 -2.82344e-22 0.000318972 0.000962971 -0.00816587 -0.000943444
0.014088 0 0.00127938 -0.000985351 0.0042974 -9.85472e-05
-0.014088 2.71051e-20 0.00127938 0.00316336 -0.0181048 -0.00279803
0.0140591 2.71051e-20 0.00206597 -0.00124968 0.00538876 -0.000128715
-0.0140591 -2.71051e-20 0.00206597 0.0033544 -0.0160777 -0.00458264
0.0136637 0 0.00393551 0 0 0
-0.0136637 3.38813e-21 0.00393552 0 0 0
0.0136787 0 0.00391519 -4.10573e-05 0.000160624 -4.98096e-06
-0.0136787 3.38813e-21 0.00391522 0.000123475 -0.000464116 -6.57872e-05
-0.0142352 -1.35525e-20 2.81664e-15 0 0 0
0.0142352 -2.71051e-20 2.94789e-15 0 0 0
0.0136843 -3.38813e-21 0.00394699 0 0 0
-0.0136843 -3.38813e-21 0.00394698 0 0 0
-0.0137016 0 0.00395979 0 0 0
0.0137016 0 0.00395981 0 0 0
-0.0137143 -3.38813e-21 0.00394399 0.00015473 -0.000347778 -9.53591e-05
0.0137143 0 0.00394399 -3.52466e-05 0.000134634 -5.32799e-06
-0.0140216 0 0.00281645 0.00369619 -0.012465 -0.00423881
0.0140216 0 0.00281645 -0.00119615 0.00494029 -0.000157197
-0.013895 5.64689e-22 0.00367137 0.00209877 -0.00567253 -0.00165418
0.0138951 1.12938e-21 0.00367137 -0.000552104 0.00217337 -7.49294e-05
-0.0144216 -4.70574e-23 0.000792946 0.00130228 -0.0140172 -0.00250889
0.0144217 1.41172e-22 0.000792946 -0.000569077 0.00258097 -0.000103037
0.0144531 0 3.0858e-16 0 0 0
-0.0144531 1.35525e-20 3.05013e-16 0 0 0
0.0143962 -5.64689e-22 0.00165212 -0.00119565 0.00502751 -9.39063e-05
-0.0143962 -8.47033e-22 0.00165212 0.00259625 -0.0176135 -0.00483233
-0.0140802 -2.71051e-20 0.00343826 0.00353242 -0.00874802 -0.00345972
0.0140802 0 0.00343825 -0.000879347 0.00356025 -0.000108145
-0.0140067 0 0.00392192 0.00158803 -0.00371835 -0.000949008
0.0140067 0 0.00392194 -0.000374235 0.00141321 -6.31453e-05
0.0143665 -2.11758e-22 0.00242468 -0.00135573 0.00555906 -0.000112867
-0.0143665 0 0.00242468 0.00354872 -0.0152393 -0.0062716
-0.0143623 2.11758e-22 0.00267465 0.00384491 -0.0140481 -0.00618935
0.0143623 -2.11758e-22 0.00267497 -0.00129827 0.00529611 -0.00010991
0.0140362 -1.69407e-21 0.00420871 0 0 0
-0.0140362 1.69407e-21 0.00420869 0 0 0
0.014043 0 0.00420186 -1.66985e-05 6.37846e-05 -2.5242e-06
-0.014043 0 0.00420185 7.32956e-05 -0.000164742 -4.51715e-05
-0.0140444 1.69407e-21 0.00421477 0 0 0
0.0140443 -1.69407e-21 0.00421479 0 0 0
-0.0140522 0 0.00422057 0 0 0
0.0140522 -1.69407e-21 0.0042206 0 0 0
-0.0140564 1.69407e-21 0.00421301 9.4506e-05 -0.000154494 -9.38306e-05
0.0140564 -1.69407e-21 0.00421303 -1.51006e-05 5.90379e-05 -2.59323e-06
-0.014684 -6.77626e-21 -1.73482e-17 0 0 0
0.014684 2.71051e-20 -1.61167e-17 0 0 0
0.0143544 -1.99053e-20 0.00313091 -0.00119208 0.00481151 -0.00010498
-0.0143544 0 0.0031309 0.00438733 -0.0118483 -0.00601917
-0.014361 0 0.00313026 0.00439604 -0.0118432 -0.0060424
0.014361 4.23516e-22 0.00313027 -0.00119214 0.00481038 -0.000104258
-0.0147037 -8.13152e-21 0.000271523 -0.000327719 -0.00753244 -0.00130017
0.0147038 -5.42101e-21 0.000271578 -0.00013265 0.000662141 -5.80649e-05
-0.014356 0 0.00329991 0.00420435 -0.0106364 -0.00554379
0.014356 0 0.00330011 -0.00106866 0.00431977 -9.65956e-05
0.0147328 5.42101e-20 0.00124141 -0.00109246 0.00452784 -7.76248e-05
-0.0147328 0 0.00124141 0.00111236 -0.0188554 -0.00457176
-0.0146167 0 0.00238823 0.00340377 -0.0160615 -0.00718743
0.0146174 2.11758e-22 0.00238811 -0.00143922 0.00575302 -7.87125e-05
-0.0146909 -2.71051e-20 0.00203583 0.00269698 -0.0174167 -0.00733946
0.0146909 0 0.00203583 -0.00145061 0.00588382 -7.48413e-05
-0.0143356 4.03349e-23 0.00382206 0.00335716 -0.00647489 -0.00369811
0.0143356 -4.03349e-23 0.00382208 -0.000644177 0.00262494 -6.88161e-05
-0.0143244 0 0.00417019 0.00208833 -0.00361581 -0.00211388
0.0143244 -2.71051e-20 0.00417021 -0.000335725 0.00137915 -7.0021e-05
-0.0142789 -8.47033e-22 0.00438875 0 0 0
0.0142791 0 0.0043889 0 0 0
-0.0146906 -2.71051e-20 0.00275577 0.00440011 -0.0149428 -0.00880799
0.0146906 -2.71051e-20 0.00275577 -0.00151852 0.00599475 -9.19634e-05
0.0149563 1.41172e-22 0.00165196 -0.00135028 0.00532111 -4.52371e-05
-0.0149571 -1.41172e-22 0.00165041 0.00136141 -0.018803 -0.00619726
-0.0146586 -2.71051e-20 0.00346816 0.00600224 -0.0116611 -0.00799297
0.0146586 0 0.00346817 -0.00121904 0.00491924 -5.98499e-05
-0.0144053 -8.47033e-22 0.00448256 3.99265e-05 -5.56498e-05 -3.93196e-05
0.0144084 0 0.00447898 -4.8103e-06 2.20644e-05 -1.15681e-06
-0.015119 -6.77626e-21 -5.58821e-17 0 0 0
0.0151193 -3.38813e-21 -5.55922e-17 0 0 0
-0.0144514 -8.47033e-22 0.00451675 0 0 0
0.0144515 -1.69407e-21 0.00451675 0 0 0
-0.0151609 0 3.481e-05 -6.76029e-05 -0.000873318 -0.000157599
0.0151609 0 3.45974e-05 -2.08784e-05 0.000114996 -1.88507e-06
-0.0151663 -3.38813e-21 -1.814e-17 0 0 0
0.0151663 0 -1.80472e-17 0 0 0
-0.0145673 3.76459e-22 0.00422607 0.00346273 -0.00489198 -0.00371549
0.0145673 -7.52918e-22 0.00422609 -0.000452543 0.00196414 -6.23662e-05
0.0151841 3.38813e-21 -1.09306e-17 0 0 0
-0.0151841 3.38813e-21 -1.09842e-17 0 0 0
-0.0151655 -6.77626e-21 0.000867911 -0.000481977 -0.0147398 -0.00329513
0.0151655 -5.64689e-21 0.000867908 -0.000709614 0.00285276 -5.64501e-05
0.0152147 0 -1.10411e-17 0 0 0
0.0152147 0 2.26993e-05 -2.43514e-05 9.0171e-05 -2.00659e-06
-0.015215 6.77626e-21 -1.1094e-17 0 0 0
-0.015215 0 2.28405e-05 -0.000150282 -0.000632794 -7.4918e-05
-0.0147125 2.71051e-20 0.00402551 0.00540041 -0.00791004 -0.00633944
0.0147125 0 0.00402553 -0.000749539 0.00325434 -6.37282e-05
-0.0150841 -4.23516e-22 0.0023135 0.00312708 -0.0175983 -0.00888498
0.0150841 -4.23516e-22 0.0023135 -0.0015932 0.00611167 -1.5694e-05
-0.0150901 -8.89385e-21 0.00232073 0.00313432 -0.0176022 -0.00890428
0.015084 1.27055e-21 0.00232059 -0.00159519 0.00611495 -1.48469e-05
-0.0149792 4.23516e-22 0.0031214 0.00581619 -0.0151602 -0.0101155
0.0149792 -5.64689e-22 0.0031214 -0.0015251 0.00592903 6.75001e-06
-0.0146794 -5.42101e-20 0.00445851 0.00297039 -0.00322416 -0.00277539
0.0146795 0 0.00445853 -0.000280061 0.00129122 -5.30029e-05
-0.0149711 0 0.00367473 0.00705666 -0.0122312 -0.00940683
0.0149711 0 0.00367494 -0.00119763 0.00488245 1.77079e-05
-0.0149706 0 0.00377567 0.00728355 -0.0116896 -0.00927424
0.0149684 -2.96462e-21 0.00377781 -0.00113725 0.0046893 1.968e-05
-0.0147268 0 0.00472093 0 0 0
0.0147268 6.77626e-21 0.00472096 0 0 0
-0.0147397 0 0.0047038 0.000382683 -0.000402628 -0.000349712
0.0147397 6.77626e-21 0.00470382 -3.60589e-05 0.000155991 -5.14994e-06
-0.0147494 6.77626e-21 0.00473772 0 0 0
0.0147494 0 0.00473775 0 0 0
0.015025 -2.11758e-22 0.00377792 -0.00116959 0.0048113 4.26709e-05
-0.0150252 1.05879e-21 0.00377791 0.0075188 -0.0120769 -0.00953423
-0.0147753 0 0.0047569 0 0 0
0.0147753 6.77626e-21 0.00475694 0 0 0
-0.0147957 -6.77626e-21 0.00471951 0.000959753 -0.000754823 -0.000899666
0.0147957 0 0.00471954 -5.90218e-05 0.000300169 1.04706e-06
-0.0149236 2.5411e-21 0.00432832 0.0057463 -0.00655798 -0.00609771
0.0149238 2.11758e-22 0.00432831 -0.000587226 0.00263664 -2.69021e-06
-0.0149307 2.11758e-22 0.0043143 0.00593192 -0.00677122 -0.00629505
0.0149284 -8.47033e-21 0.00431372 -0.000606289 0.00272224 -2.82828e-06
-0.0153071 0 0.00276682 0.00457775 -0.018137 -0.0114444
0.0153071 0 0.00276682 -0.00178682 0.00665291 7.10669e-05
-0.0149538 -2.11758e-22 0.00432332 0.00609895 -0.00690831 -0.00643858
0.0149538 -2.11758e-22 0.00432332 -0.000613084 0.00276553 5.62053e-06
-0.0152762 2.71051e-20 0.00345527 0.00822694 -0.0159142 -0.0121898
0.0152762 0 0.00345527 -0.00157737 0.00614875 0.000107552
-0.015665 5.42101e-20 0.00170495 -0.000645101 -0.0211687 -0.00734315
0.015665 0 0.00170495 -0.00163486 0.00576103 6.14884e-05
-0.0150897 -2.71051e-20 0.00463312 0.00627639 -0.00491374 -0.00585856
0.0150898 0 0.00463317 -0.000403191 0.00201043 8.15286e-06
-0.0152566 0 0.00410558 0.00979198 -0.0119461 -0.0110651
0.0152566 0 0.00410559 -0.00106994 0.00468429 0.000109547
0.0156482 -2.82344e-22 0.00239974 -0.00187625 0.00663119 0.000185435
-0.0156482 2.11758e-22 0.00239974 0.00281204 -0.0200535 -0.00985786
-0.0150378 0 0.00495164 0 0 0
0.0150379 -6.77626e-21 0.0049517 0 0 0
-0.0158311 -5.42101e-20 0.000505741 -0.00300503 -0.0136535 -0.0016174
0.0158311 -5.42101e-20 0.000505742 -0.000489468 0.00193308 -4.37385e-05
-0.0150929 0 0.00489488 0.00178461 -0.00140355 -0.00167288
0.015093 0 0.00489493 -0.000109737 0.000558094 1.94677e-06
-0.0150892 -1.35525e-20 0.00498975 0 0 0
0.0150893 0 0.00498982 0 0 0
-0.015606 2.82344e-22 0.0031034 0.00617274 -0.018607 -0.0114656
0.015606 -2.82344e-22 0.00310341 -0.00184349 0.00675072 0.000240717
-0.0151438 0 0.00503029 0 0 0
0.0151439 6.77626e-21 0.00503035 0 0 0
-0.0151784 1.35525e-20 0.00496289 0.00222653 -0.00170793 -0.00208728
0.0151785 1.35525e-20 0.00496294 -9.92106e-05 0.000564488 2.39142e-05
-0.0155884 -1.46819e-21 0.00378776 0.00983034 -0.016038 -0.0119759
0.0155884 3.38813e-22 0.00378777 -0.00150617 0.00606595 0.000289327
-0.0155033 -1.35525e-21 0.00450864 0.00986351 -0.010033 -0.00967323
0.0155033 2.25875e-22 0.00450867 -0.00076848 0.0037556 0.000197039
-0.0154178 0 0.00490558 0.00768734 -0.00584706 -0.007223
0.0154179 2.71051e-20 0.00490563 -0.00033978 0.00196579 9.20883e-05
-0.0159469 0 0.00273842 0.00331091 -0.021048 -0.0100675
0.0159469 5.42101e-20 0.00273842 -0.00207811 0.00711194 0.000346737
-0.0153971 -1.35525e-20 0.00521815 0 0 0
0.0153972 2.03288e-20 0.00521821 0 0 0
-0.015903 0 0.0034351 0.00849871 -0.0193031 -0.012112
0.015903 5.42101e-20 0.00343511 -0.00192896 0.00707026 0.000434161
-0.0154387 -6.77626e-21 0.00517349 0.00180639 -0.00138565 -0.00169342
0.0154387 0 0.00517354 -8.04908e-05 0.000457976 1.94019e-05
-0.0154377 6.77626e-21 0.00524824 0 0 0
0.0154377 0 0.00524829 0 0 0
0.0163344 -2.11758e-21 -1.19204e-18 0 0 0
-0.0163357 0 -1.18554e-18 0 0 0
-0.0154764 -6.77626e-21 0.00527693 0 0 0
0.0154764 6.77626e-21 0.00527698 0 0 0
-0.0155053 0 0.00524153 0.00174915 -0.00094107 -0.00138405
0.0155053 1.35525e-20 0.00524158 -4.00634e-05 0.000355164 3.25251e-05
0.0163538 4.65868e-21 0.00112145 -0.00126433 0.00393353 9.77556e-05
-0.0163541 0 0.00112151 -0.00329994 -0.0185373 -0.00316555
-0.0158756 -2.71051e-20 0.0041209 0.0126866 -0.0165242 -0.012924
0.0158756 2.71051e-20 0.00412092 -0.00139706 0.00619333 0.000433914
0.0163767 9.95264e-21 0.00112763 -0.00127486 0.00395499 0.00010061
-0.0163741 -1.8423e-20 0.0011274 -0.00335088 -0.0186101 -0.00316544
-0.0156932 -7.52918e-22 0.00495312 0.0100659 -0.00761477 -0.00880366
0.0156933 0 0.00495315 -0.000435227 0.00271689 0.000207041
0.0164701 4.23516e-22 3.15169e-06 -1.92847e-06 7.38846e-06 -1.36287e-07
-0.0164637 0 2.60344e-06 -1.57231e-05 -5.1863e-05 -3.84201e-06
0.0163214 0 0.00227442 -0.00215426 0.00667436 0.000409279
-0.0163214 -1.12938e-21 0.00227442 0.000976523 -0.0219345 -0.00693239
-0.0162376 -5.64689e-22 0.00307739 0.0053756 -0.0207033 -0.00912479
0.0162376 1.01644e-21 0.0030774 -0.00214748 0.00721692 0.00053672
-0.0159046 -2.71051e-20 0.00473208 0.0136412 -0.0123508 -0.0121803
0.0159046 5.42101e-20 0.00473209 -0.000766411 0.00446801 0.000380045
-0.0157801 -2.71051e-20 0.00520579 0.00916703 -0.00496444 -0.00726493
0.0157802 -2.71051e-20 0.00520583 -0.000220807 0.00183137 0.000160398
-0.0162469 1.69407e-21 0.00372972 0.00993883 -0.0188814 -0.0102262
0.0162469 1.12938e-21 0.00372973 -0.00184184 0.00705368 0.000645651
-0.0157745 0 0.00549808 0 0 0
0.0157746 0 0.00549812 0 0 0
-0.0158014 6.77626e-21 0.00547416 0.00135013 -0.000726389 -0.00106831
0.0158015 0 0.00547419 -3.09266e-05 0.000274165 2.51075e-05
-0.0158049 6.77626e-21 0.00552063 0 0 0
0.015805 0 0.00552067 0 0 0
-0.0158346 6.77626e-21 0.00554267 0 0 0
0.0158347 0 0.00554272 0 0 0
-0.0158529 0 0.00551417 0.00163043 -0.000969955 -0.00120232
0.015853 0 0.00551421 -2.03359e-05 0.000275686 3.51643e-05
-0.016198 0 0.00441893 0.0133218 -0.0162466 -0.0111499
0.0161981 4.51751e-22 0.00441893 -0.00124882 0.00607951 0.000627049
-0.0166697 0 0.00284041 0.00278955 -0.0222663 -0.00546342
0.0166697 0 0.00284041 -0.00250165 0.00743274 0.000736302
-0.0161695 -2.25875e-22 0.00510698 0.0129693 -0.0105419 -0.00975432
0.0161695 4.51751e-22 0.00510701 -0.000489555 0.00361706 0.000427392
-0.0166597 0 0.00328606 0.00616905 -0.0211292 -0.00608316
0.0166597 2.71051e-20 0.00328607 -0.00240113 0.00765746 0.000853624
-0.0165248 -2.71051e-20 0.00409519 0.0117429 -0.0190036 -0.0088614
0.0165248 -2.71051e-20 0.00409519 -0.00174764 0.00738735 0.000903495
-0.0161206 2.71051e-20 0.00547661 0.0107406 -0.00638413 -0.00818811
0.0161207 0 0.00547665 -0.000136132 0.00180251 0.000216613
-0.0170334 0 0.00057692 -0.00625569 -0.0162124 -0.000441249
0.0170334 5.42101e-20 0.00057692 -0.000689408 0.00235141 -3.5075e-05
-0.0168874 8.47033e-22 0.00239017 0.000617863 -0.0227124 -0.00375266
0.0168874 1.05879e-21 0.00239018 -0.002537 0.00692326 0.000690942
-0.0169716 -5.42101e-20 0.00176735 -0.00338406 -0.0236898 -0.00349717
0.0169716 -5.42101e-20 0.00176735 -0.00233172 0.0059238 0.000425231
-0.0169179 2.11758e-22 0.00239497 0.000600707 -0.0227537 -0.00358172
0.0169179 0 0.00239497 -0.00255756 0.00693703 0.000706212
0.016944 0 0.00239537 -0.00257455 0.00693541 0.000713693
-0.016944 -2.11758e-22 0.00239537 0.000610924 -0.0227321 -0.0034445
-0.0168719 -1.35525e-20 0.00305894 0.00432144 -0.0217025 -0.00383593
0.0168719 0 0.00305894 -0.00259878 0.00761322 0.000916523
-0.0161674 -6.77626e-21 0.00578953 0 0 0
0.0161674 0 0.00578955 0 0 0
-0.0165034 -2.71051e-20 0.00475625 0.0158434 -0.0168279 -0.0107298
0.0165034 -2.71051e-20 0.00475627 -0.00100043 0.00618333 0.00080562
-0.0161836 0 0.00577012 0.00121801 -0.000724607 -0.000898194
0.0161836 6.77626e-21 0.00577014 -1.51943e-05 0.000205984 2.62736e-05
-0.0161897 0 0.00580603 0 0 0
0.0161897 0 0.00580606 0 0 0
-0.0162121 0 0.00582272 0 0 0
0.0162122 0 0.00582276 0 0 0
-0.0162243 0 0.00580494 0.00117292 -0.000645699 -0.000809337
0.0162243 -6.77626e-21 0.00580498 -4.12229e-06 0.000185963 3.04556e-05
0.0168523 3.38813e-22 0.00374134 -0.00215735 0.00775476 0.00105901
-0.0168523 -5.64689e-22 0.00374134 0.00916786 -0.0198122 -0.00466207
-0.0163971 -4.23516e-22 0.00553967 0.0126406 -0.00877448 -0.00897011
0.0163973 -7.05861e-22 0.00553971 -0.000201845 0.00263423 0.000380927
-0.0170978 2.71051e-20 0.00283719 0.00272523 -0.022332 -0.00169417
0.0170978 -2.71051e-20 0.00283719 -0.00283067 0.00752961 0.000979994
-0.0170665 5.42101e-20 0.00327483 0.00559033 -0.0212342 -0.00189051
0.0170665 0 0.00327483 -0.00268812 0.00788832 0.00111302
-0.0165625 0 0.0053276 0.0161916 -0.0134489 -0.0109207