# UMean  POINT_DATA 25334
# x  y  z  UMean_x  UMean_y  UMean_z
-6.77626e-21 0.057587 1.35324e-07 0 0 0
6.77626e-21 -0.057587 1.35324e-07 0 0 0
0 0.0575869 0.000409944 0 0 0
-3.38813e-21 -0.0575869 0.000409944 0 0 0
-1.69407e-21 0.0575869 0.000633503 0 0 0
-1.69407e-21 -0.0575869 0.000633504 0 0 0
0 0.0575868 0.00104356 0 0 0
-3.38813e-21 -0.0575868 0.00104356 0 0 0
5.0822e-21 0.0575868 0.00145414 0 0 0
-1.69407e-21 -0.0575868 0.00145414 0 0 0
0 0.0575868 0.00167624 0 0 0
-1.69407e-21 -0.0575868 0.00167624 0 0 0
0 0.0575868 0.002087 0 0 0
0 -0.0575868 0.002087 0 0 0
0 0.0577686 0.000993823 -2.73074e-05 0.000105926 9.64407e-07
6.77626e-21 -0.0577686 0.000993824 0.000193208 -0.000940074 -2.09712e-05
6.77626e-21 0.0577684 0.00110476 -3.79306e-05 0.000179818 -6.61756e-08
6.77626e-21 -0.0577684 0.00110476 0.000240009 -0.00121507 1.04146e-05
0 0.0577859 0.000103261 -2.9857e-05 0.000115816 1.05445e-06
0 -0.0577859 0.000103261 0.000211248 -0.00102785 -2.29293e-05
0 0.0577942 1.15393e-07 0 0 0
-6.77626e-21 -0.0577942 1.15393e-07 0 0 0
0 0.0578027 1.90097e-05 4.64881e-08 4.96247e-07 8.64792e-08
0 -0.0578027 1.90097e-05 5.9163e-05 -0.000416926 -1.47e-05
-6.77626e-21 -0.0578191 1.14264e-07 0 0 0
0 0.0578191 1.14264e-07 0 0 0
0 0.0577853 0.00199426 -4.14846e-05 0.000196666 -7.23762e-08
0 -0.0577853 0.00199426 0.000262499 -0.00132892 1.13905e-05
0 0.0577823 0.002105 0 0 0
0 -0.0577823 0.002105 0 0 0
6.77626e-21 -0.057823 0.00105089 0.00025271 -0.00129744 -1.85367e-06
0 0.057823 0.00105089 -3.47573e-05 0.000188834 -1.60898e-06
0 0.0578007 0.00208013 -2.07142e-05 0.000124446 1.55533e-06
0 -0.0578007 0.00208013 0.000137041 -0.00079595 6.33977e-06
6.77626e-21 -0.0578427 5.77484e-05 0.000197297 -0.000974674 1.49852e-05
0 0.0578427 5.77488e-05 -2.18934e-05 0.000110539 2.73146e-06
0 0.0578443 1.78371e-05 -4.48661e-07 7.77416e-07 4.92186e-07
0 -0.0578443 1.78368e-05 7.18696e-05 -0.000441543 -8.98536e-06
-6.77626e-21 0.0578469 1.13152e-07 0 0 0
-6.77626e-21 -0.0578469 1.13152e-07 0 0 0
0 -0.0578171 0.0021082 0 0 0
6.77626e-21 0.0578171 0.0021082 0 0 0
6.77626e-21 -0.0578434 0.00204427 0.000258224 -0.00133796 -2.72738e-05
0 0.0578434 0.00204427 -3.79816e-05 0.000204257 -5.88063e-06
-6.77626e-21 -0.0578462 0.00208444 0.000142158 -0.000935727 -2.22183e-06
0 0.0578462 0.00208444 -2.24758e-05 0.000145881 -8.54094e-07
6.77626e-21 -0.0578583 0.002112 0 0 0
-6.77626e-21 0.0578583 0.002112 0 0 0
3.38813e-21 -0.0579123 0.000912335 0.000309853 -0.00176265 -3.35049e-05
0 0.0579123 0.000912331 -3.69213e-05 0.000200584 -8.23195e-07
6.77626e-21 0.0579215 5.62283e-05 -7.36658e-08 3.07696e-07 -3.55908e-06
0 -0.0579215 5.62253e-05 0.000187674 -0.000751615 -4.50054e-05
-3.38813e-21 -0.0579146 0.00119726 0.000427129 -0.00226605 -3.95726e-05
0 0.0579146 0.00119726 -6.76827e-05 0.000351937 -1.26425e-05
6.77626e-21 -0.0579295 1.06809e-07 0 0 0
-6.77626e-21 0.0579295 1.06808e-07 0 0 0
6.77626e-21 -0.0579351 0.000246057 0.000331315 -0.00188474 -3.58255e-05
-3.38813e-21 0.0579351 0.000246061 -3.94785e-05 0.000214476 -8.80208e-07
-6.77626e-21 -0.0579259 0.00205413 0.000402497 -0.00168193 -9.21422e-05
0 0.0579259 0.00205413 -5.72519e-05 0.000235261 -1.4511e-05
3.38813e-21 -0.0579372 0.00186069 0.000456692 -0.00242289 -4.23116e-05
-3.38813e-21 0.0579372 0.00186068 -7.23669e-05 0.000376294 -1.35175e-05
0 -0.0579652 0.00212184 0 0 0
-6.77626e-21 0.0579652 0.00212184 0 0 0
0 -0.0580743 1.10803e-07 0 0 0
6.77626e-21 0.0580744 1.10802e-07 0 0 0
-2.25875e-21 0.0581721 0.000610602 -6.74927e-05 0.000366669 -1.50481e-06
0 -0.0581721 0.000610603 0.000566422 -0.00322219 -6.1248e-05
2.25875e-21 0.0581735 0.00151342 -0.000123083 0.000640007 -2.29908e-05
4.51751e-21 -0.0581735 0.00151342 0.000776756 -0.00412093 -7.19649e-05
-8.47033e-22 -0.0581934 0.00214283 0 0 0
2.5411e-21 0.0581934 0.00214284 0 0 0
-6.77626e-21 0.058277 1.16391e-07 0 0 0
-1.01644e-20 -0.058277 1.16394e-07 0 0 0
-1.35525e-20 0.0583193 0.000123003 -1.61301e-07 6.73741e-07 -7.79307e-06
0 -0.0583193 0.000122998 0.000410941 -0.00164577 -9.85462e-05
-5.0822e-21 0.0582823 0.00215102 0 0 0
0 -0.0582823 0.00215102 0 0 0
-1.35525e-20 -0.0583281 0.00201516 0.000879749 -0.00367624 -0.000201398
-1.35525e-20 0.0583281 0.00201516 -0.000125136 0.000514211 -3.17168e-05
-2.71051e-20 -0.0583808 0.00028652 0.000834858 -0.0038387 0.000139247
0 0.0583808 0.000286525 -9.02971e-05 0.00043369 2.10157e-05
0 -0.058383 0.00106967 0.00112579 -0.00578844 -4.15791e-05
1.35525e-20 0.058383 0.00106967 -0.000150689 0.000830283 -7.05339e-06
0 -0.0583862 0.00185752 0.00111189 -0.00541892 -0.000268132
-1.35525e-20 0.0583862 0.00185751 -0.000155035 0.000799928 -3.91021e-05
-1.35525e-20 0.0584351 1.20751e-07 0 0 0
0 -0.0584351 1.20753e-07 0 0 0
1.35525e-20 -0.0584724 0.00216851 0 0 0
1.35525e-20 0.0584724 0.00216852 0 0 0
2.63521e-21 0.0585878 0.000684244 -0.000105008 0.000602927 1.17321e-05
3.76459e-22 -0.0585878 0.000684244 0.000908098 -0.0054524 -2.91963e-05
0 0.0586022 0.000178782 1.02379e-05 -4.16702e-07 -7.96651e-06
0 -0.0586022 0.000178773 0.00036573 -0.0021242 -5.18513e-05
5.64689e-22 0.0585913 0.00147246 -0.000165809 0.00103483 -1.65499e-05
-1.12938e-21 -0.0585913 0.00147246 0.00122324 -0.00717741 -0.000151973
3.38813e-21 0.0586253 8.46437e-05 4.84429e-06 -1.97173e-07 -3.76955e-06
0 -0.0586254 8.46169e-05 0.000173007 -0.00100485 -2.45281e-05
2.37169e-20 0.0586311 9.46985e-08 0 0 0
-3.38813e-21 -0.0586312 9.47002e-08 0 0 0
0 -0.058614 0.00198099 0.00114259 -0.00503623 -0.000273973
3.38813e-21 0.058614 0.00198098 -0.000144967 0.000711553 -3.47743e-05
6.77626e-21 -0.0586389 0.00205688 0.000723275 -0.00318801 -0.000173429
3.38813e-21 0.0586389 0.00205686 -9.1774e-05 0.000450462 -2.20146e-05
6.77626e-21 -0.0586526 0.0021851 0 0 0
-2.03288e-20 0.0586526 0.00218511 0 0 0
1.35525e-20 0.0587867 7.40281e-08 0 0 0
0 -0.0587868 7.40288e-08 0 0 0
1.35525e-20 0.0587871 0.00108477 -0.000202557 0.00114219 -6.6643e-06
-1.35525e-20 -0.0587871 0.00108477 0.00149333 -0.00802095 -3.68268e-05
0 0.0588138 0.000419265 -0.000121126 0.000683497 8.46047e-06
-1.35525e-20 -0.0588138 0.00041926 0.00109339 -0.00587735 0.000100194
-1.35525e-20 0.0587904 0.00219778 0 0 0
0 -0.0587904 0.00219778 0 0 0
0 0.0588211 0.00175677 -0.000210349 0.00118456 -2.13944e-05
-1.35525e-20 -0.0588211 0.00175678 0.00146894 -0.00795798 -0.000215272
-2.25875e-21 0.0589944 0.000754327 -0.00013724 0.000812967 9.57093e-06
0 -0.0589944 0.000754324 0.00124751 -0.00725431 4.53371e-05
0 0.0589983 0.00142976 -0.000226004 0.0013527 7.54082e-06
-6.77626e-21 -0.0589983 0.00142976 0.00155115 -0.00928349 2.07777e-05
-6.77626e-21 0.0590078 0.0022178 0 0 0
0 -0.0590078 0.0022178 0 0 0
6.77626e-21 0.0590549 8.35179e-08 0 0 0
-1.01644e-20 -0.0590549 8.35183e-08 0 0 0
0 0.0590696 0.000188906 2.14068e-06 4.84555e-06 -2.03715e-08
-6.77626e-21 -0.0590696 0.000188907 0.000474802 -0.00336625 8.34399e-07
-3.38813e-20 0.0590838 8.57393e-08 0 0 0
-2.03288e-20 -0.0590838 8.57399e-08 0 0 0
-6.77626e-21 0.05908 0.00199662 -0.000165856 0.000999079 7.55418e-06
0 -0.05908 0.00199663 0.00111821 -0.00658144 1.39459e-05
6.77626e-21 0.059078 0.00212655 -7.11339e-05 0.000428495 3.23991e-06
6.77626e-21 -0.059078 0.00212657 0.000479511 -0.00282225 5.98029e-06
0 -0.0591581 0.00223163 0 0 0
-6.77626e-21 0.0591581 0.00223164 0 0 0
0 0.0593378 9.41278e-08 0 0 0
2.71051e-20 -0.0593378 9.41278e-08 0 0 0
4.51751e-21 -0.0593529 0.000581997 0.00139214 -0.00761426 5.18642e-05
-4.51751e-21 0.0593529 0.000581997 -0.000142852 0.000799746 5.97611e-06
-2.25875e-21 -0.0593596 0.00110181 0.00200655 -0.0108653 0.000115209
4.51751e-21 0.0593596 0.00110181 -0.000267885 0.00148741 1.25655e-05
-4.51751e-21 -0.0593591 0.00162171 0.00184584 -0.0103872 0.00013037
-2.25875e-21 0.0593591 0.00162171 -0.000271893 0.00153343 1.42753e-05
-1.35525e-20 0.059356 0.00224986 0 0 0
1.35525e-20 -0.059356 0.00224986 0 0 0
0 0.0594897 0.00226217 0 0 0
1.35525e-20 -0.0594898 0.00226217 0 0 0
-1.01644e-20 0.0596053 7.49137e-08 0 0 0
1.35525e-20 -0.0596053 7.49137e-08 0 0 0
6.77626e-21 -0.0596378 6.72747e-05 0.000237829 -0.00131752 6.93391e-06
3.38813e-21 0.0596378 6.72778e-05 1.9126e-07 2.08963e-06 -9.68045e-08
0 -0.0596391 0.000281382 0.00083919 -0.00464937 2.61986e-05
0 0.0596391 0.000281381 -1.25685e-05 8.14339e-05 6.19793e-07
1.35525e-20 0.0596522 0.000750578 -0.000249512 0.0013626 4.07886e-06
1.35525e-20 -0.0596522 0.000750579 0.00209094 -0.0107941 7.50304e-05
2.03288e-20 -0.0596652 7.43486e-08 0 0 0
-3.38813e-21 0.0596653 7.43486e-08 0 0 0
0 -0.0596556 0.00146978 0.00241893 -0.0129854 0.000242819
1.35525e-20 0.0596556 0.00146978 -0.000349961 0.0019256 1.60729e-05
0 -0.0596502 0.00197793 0.00148604 -0.008294 0.000104301
-1.12938e-21 0.0596502 0.00197793 -0.0002327 0.00124536 -1.7669e-06
-6.77626e-21 -0.0598456 0.00229492 0 0 0
0 0.0598456 0.00229493 0 0 0
0 -0.0599214 5.86731e-08 0 0 0
2.71051e-20 0.0599214 5.86731e-08 0 0 0
0 -0.0599318 0.00059675 0.00177124 -0.00937473 3.2348e-05
-4.51751e-21 0.0599318 0.000596749 -0.000177784 0.00098587 4.0887e-06
-2.25875e-21 -0.0599376 0.0016364 0.00240167 -0.0130488 0.00022943
-1.12938e-21 0.0599376 0.0016364 -0.000354842 0.0019547 1.10998e-05
3.38813e-22 0.0599523 0.00111694 -0.000350444 0.00194504 1.04736e-05
6.77626e-22 -0.0599523 0.00111694 0.00262191 -0.0138888 0.000165948
0 -0.0599299 0.00230268 0 0 0
6.77626e-21 0.0599299 0.00230269 0 0 0
6.77626e-21 0.0599889 0.00230811 0 0 0
0 -0.0599889 0.00230811 0 0 0
-1.35525e-20 0.0601336 6.5621e-08 0 0 0
-1.35525e-20 -0.0601336 6.56212e-08 0 0 0
5.64689e-21 -0.0602132 0.00025242 0.000917978 -0.00507617 -3.32354e-05
1.12938e-21 0.0602132 0.000252421 -5.64377e-06 3.87465e-05 -4.70752e-07
0 -0.0602294 0.000784336 0.00255711 -0.0135132 3.81608e-05
4.06576e-20 0.0602294 0.000784336 -0.000310499 0.00174747 8.41529e-06
2.71051e-20 0.0602309 0.00146544 -0.000426164 0.002392 1.38458e-05
0 -0.0602309 0.00146544 0.0029383 -0.0159207 0.000298778
-1.35525e-20 -0.0602724 6.43012e-08 0 0 0
1.35525e-20 0.0602724 6.4301e-08 0 0 0
8.47033e-22 0.0602423 0.00197228 -0.000308226 0.00164666 7.85137e-06
1.41172e-22 -0.0602423 0.00197228 0.00196903 -0.0108505 0.000182503
-5.42101e-20 -0.060476 6.96062e-08 0 0 0
2.71051e-20 0.060476 6.96059e-08 0 0 0
-3.76459e-22 0.0604796 0.000600016 -0.000199496 0.00113613 9.42216e-06
0 -0.0604796 0.000600017 0.00200691 -0.0109817 3.00088e-06
-5.0822e-21 -0.0604892 0.00235417 0 0 0
0 0.0604957 0.00235477 0 0 0
-4.23516e-22 0.0605072 0.00234081 -1.22363e-05 7.21931e-05 1.40656e-06
0 -0.0605072 0.00234076 8.08418e-05 -0.000482384 9.16029e-06
-2.25875e-21 -0.0605575 0.00113185 0.00302556 -0.0165614 0.000177225
3.38813e-21 0.0605575 0.00113185 -0.000404741 0.00235266 1.26989e-05
0 -0.0605507 0.0016269 0.0028171 -0.01571 0.000247451
-2.25875e-21 0.0605507 0.0016269 -0.00041433 0.0023786 1.06476e-05
4.23516e-22 0.0605417 0.002359 0 0 0
-4.23516e-21 -0.0605419 0.00235902 0 0 0
0 0.0606726 5.84245e-08 0 0 0
0 -0.0606726 5.84247e-08 0 0 0
2.82344e-22 0.0608243 0.000288714 -7.8056e-06 5.80705e-05 1.12467e-06
-8.47033e-22 -0.0608243 0.000288713 0.000999807 -0.00665945 -0.000163603
-1.12938e-21 -0.0608389 0.00196308 0.00224525 -0.0132002 0.000220428
0 0.0608389 0.00196307 -0.000342143 0.00201292 2.72494e-05
1.35525e-20 -0.0608907 5.77036e-08 0 0 0
1.35525e-20 0.0608907 5.77035e-08 0 0 0
0 0.061022 0.000858086 -0.000371727 0.0022529 2.83043e-05
-9.03502e-21 -0.061022 0.000858088 0.0030946 -0.0169486 0.000179605
-4.51751e-21 -0.0610196 0.00143519 0.00346944 -0.019463 0.000170848
9.03502e-21 0.0610196 0.00143519 -0.000488104 0.002928 -7.09076e-06
0 -0.0610807 4.8073e-08 0 0 0
2.71051e-20 0.0610807 4.80731e-08 0 0 0
0 0.0610586 0.00240653 0 0 0
3.38813e-21 -0.0610587 0.00240653 0 0 0
-6.77626e-21 0.0610729 0.00238498 -3.23737e-05 0.000168964 -3.13992e-07
0 -0.0610729 0.00238499 0.000190605 -0.00105898 9.65452e-06
0 -0.0610955 0.00240991 0 0 0
-3.38813e-21 0.0610955 0.00240992 0 0 0
-1.01644e-20 -0.0610995 0.00235724 0.000293037 -0.00162482 1.51956e-05
3.38813e-21 0.0610995 0.00235723 -4.77643e-05 0.000268244 -8.18291e-07
0 -0.0611235 0.00238842 0.000207923 -0.00115762 8.05592e-06
3.38813e-21 0.0611235 0.00238841 -3.56113e-05 0.000187175 -5.66653e-07
-3.38813e-21 -0.0611365 0.0024137 0 0 0
-3.38813e-21 0.0611365 0.00241371 0 0 0
-2.71051e-20 0.0612633 0.00060671 -0.00026563 0.00138608 2.16823e-05
-2.71051e-20 -0.0612633 0.00060671 0.0025165 -0.0127139 0.000178786
0 -0.0612584 0.00172072 0.00310359 -0.0165157 7.65012e-06
2.71051e-20 0.0612584 0.00172072 -0.000471102 0.00257321 -2.79697e-05
0 0.0612896 0.00114624 -0.000495397 0.0027292 -7.10529e-06
0 -0.0612897 0.00114624 0.00358055 -0.0186817 0.000144649
1.35525e-20 0.0613382 3.75142e-08 0 0 0
0 -0.0613382 3.75134e-08 0 0 0
2.35287e-22 -0.0614691 0.000272863 0.0011883 -0.00710175 -0.000107424
1.8823e-22 0.0614691 0.000272864 -1.15208e-05 3.62346e-05 5.54153e-06
-6.77626e-21 -0.0614658 0.00200456 0.00249766 -0.0144829 0.000171025
0 0.0614659 0.00200455 -0.000402272 0.00226538 1.53235e-05
1.35525e-20 -0.0615061 3.67847e-08 0 0 0
0 0.0615061 3.67853e-08 0 0 0
6.77626e-21 0.0615545 0.000876367 -0.000466981 0.00252906 -1.47161e-05
0 -0.0615545 0.000876369 0.00360348 -0.0190025 0.000243752
-2.25875e-21 -0.0615509 0.0014501 0.0039318 -0.0216515 8.89003e-05
-2.25875e-21 0.0615509 0.00145009 -0.000577337 0.00325432 -2.88296e-05
0 0.061707 0.00246619 0 0 0
0 -0.061707 0.00246619 0 0 0
0 0.0617173 0.00245304 -2.08421e-05 0.000109547 -3.31643e-07
-3.38813e-21 -0.0617173 0.00245304 0.000121654 -0.000677312 4.71346e-06
0 -0.0617319 0.0024685 0 0 0
0 0.0617319 0.00246851 0 0 0
0 -0.0617337 0.00243689 0.000184941 -0.00101233 6.66566e-06
1.35525e-20 0.0617337 0.00243687 -3.08419e-05 0.000169517 -7.14642e-07
0 -0.0617481 0.00245432 0.000145545 -0.000795224 2.44693e-06
0 0.0617481 0.00245432 -2.67025e-05 0.00012908 -1.09085e-06
0 -0.0617556 0.00247067 0 0 0
0 0.0617556 0.00247068 0 0 0
-2.71051e-20 -0.0618119 0.000576129 0.0028292 -0.0138297 0.000243808
2.71051e-20 0.0618119 0.000576127 -0.000292568 0.00150136 1.66511e-05
-2.71051e-20 0.0618207 1.81822e-08 0 0 0
0 -0.0618207 1.81785e-08 0 0 0
-2.71051e-20 0.0618057 0.00179067 -0.000519746 0.00282252 -3.34668e-05
0 -0.0618057 0.00179067 0.00338941 -0.017927 -9.20163e-05
1.54886e-20 -0.0618911 0.00110231 0.00411453 -0.0211731 0.000116621
-7.7443e-21 0.0618911 0.0011023 -0.00055695 0.00298436 -8.09232e-06
8.13152e-21 -0.0620668 0.000803568 0.00399284 -0.0201311 0.000198053
-2.1684e-20 0.0620668 0.000803563 -0.000501644 0.00262207 6.89049e-06
-9.03502e-21 -0.0620551 0.00147845 0.00438678 -0.0234694 6.32489e-05
-4.51751e-21 0.0620551 0.00147845 -0.000658263 0.00358169 -1.09658e-05
-1.01644e-20 -0.062113 1.60866e-08 0 0 0
-2.71051e-20 0.062113 1.60885e-08 0 0 0
1.12938e-21 -0.0620964 0.00208092 0.00300923 -0.0159368 3.56697e-05
-7.90564e-21 0.0620964 0.00208092 -0.000470407 0.00251119 -1.82476e-05
4.51751e-21 -0.0621537 0.000297909 0.00184895 -0.00873689 -3.35173e-05
-7.90564e-21 0.0621538 0.000297901 -4.69577e-05 0.000241017 5.25315e-07
0 -0.0621775 1.5659e-08 0 0 0
-3.38813e-21 0.0621776 1.56603e-08 0 0 0
0 -0.0621833 0.00251002 0 0 0
0 0.0621834 0.00251003 0 0 0
0 -0.0621909 0.00249518 0.000144399 -0.000788959 2.42765e-06
0 0.062191 0.00249518 -2.64997e-05 0.0001281 -1.08256e-06
1.35525e-20 -0.0622064 0.0024796 0.000192622 -0.00105082 6.75227e-06
0 0.0622065 0.00247958 -3.20909e-05 0.000180046 -4.74513e-07
3.38813e-21 -0.062211 0.00251256 0 0 0
0 0.0622111 0.00251257 0 0 0
3.38813e-21 -0.0622439 0.00247191 0.000345163 -0.00204728 -1.25622e-05
1.69407e-21 0.062244 0.00247188 -5.3091e-05 0.000348285 -6.86642e-06
2.71051e-20 -0.062464 1.36278e-08 0 0 0
2.71051e-20 0.0624641 1.36269e-08 0 0 0
-9.03502e-21 -0.0624707 0.000665047 0.00364713 -0.0184616 0.0001041
1.807e-20 0.0624707 0.000665044 -0.000408053 0.00218454 3.69268e-06
1.12938e-21 -0.062477 0.00119048 0.00469942 -0.0243788 0.000185091
-1.12938e-21 0.062477 0.00119047 -0.000655731 0.00354514 8.72957e-06
-1.69407e-20 -0.062456 0.00253512 0 0 0
3.38813e-21 0.0624561 0.00253513 0 0 0
0 -0.0624641 0.00247935 0.000446601 -0.00264895 -1.62541e-05
3.38813e-21 0.0624642 0.00247932 -6.86626e-05 0.000450436 -8.88034e-06
9.03502e-21 -0.0625428 0.00182288 0.00369276 -0.020368 7.86465e-05
-6.77626e-21 0.0625428 0.00182287 -0.000565436 0.00323602 -1.01472e-05
9.03502e-21 -0.0625479 0.00223393 0.0021677 -0.0127871 -7.01668e-05
0 0.0625479 0.00223393 -0.000333736 0.0021083 -3.37765e-05
6.77626e-21 0.0626457 0.0024718 -9.80282e-05 0.000643079 -1.26783e-05
-1.35525e-20 -0.0626457 0.00247184 0.000637657 -0.00378217 -2.32076e-05
1.35525e-20 -0.0627252 1.30353e-08 0 0 0
-2.71051e-20 0.0627253 1.30348e-08 0 0 0
0 0.0626789 0.00255557 0 0 0
0 -0.0626789 0.00255558 0 0 0
0 -0.0627232 0.00247243 0.00063389 -0.00390535 -3.09089e-05
0 0.0627232 0.0024724 -0.000100743 0.000643612 -8.75957e-06
-1.12938e-21 -0.0627775 0.000301909 0.00197773 -0.00951831 3.1899e-05
1.12938e-21 0.0627776 0.000301908 -6.90479e-05 0.000369906 -7.95282e-07
0 -0.062729 0.00253281 0.000217062 -0.00147277 -3.30771e-05
0 0.062729 0.0025328 -3.39585e-05 0.000233382 -4.37237e-06
6.77626e-21 -0.0627358 0.00256092 0 0 0
-6.77626e-21 0.0627358 0.00256092 0 0 0
1.35525e-20 -0.0627919 0.000886728 0.00471887 -0.0237717 0.000156006
1.35525e-20 0.0627919 0.000886726 -0.000600604 0.00325031 1.23247e-05
1.35525e-20 -0.0628163 1.26849e-08 0 0 0
1.35525e-20 0.0628164 1.26845e-08 0 0 0
2.71051e-20 -0.0628008 0.00150647 0.00522307 -0.0275661 0.000373324
-2.71051e-20 0.0628008 0.00150646 -0.000780376 0.00430823 2.58629e-05
-1.35525e-20 0.0628111 0.00226844 -0.000344525 0.00218014 -3.13871e-05
-1.35525e-20 -0.0628111 0.00226845 0.00214152 -0.0135665 -0.000150237
0 -0.0628645 0.00225958 0.00215291 -0.0137633 -0.000160366
0 0.0628645 0.00225958 -0.000348693 0.00219572 -2.93245e-05
0 -0.0630768 1.21047e-08 0 0 0
0 0.0630768 1.21046e-08 0 0 0
4.51751e-21 -0.0630912 0.000666723 0.00391017 -0.0198351 0.000139676
0 0.0630912 0.000666722 -0.000436184 0.0023962 9.75757e-06
-6.77626e-21 0.0630461 0.00258946 0 0 0
0 -0.0630461 0.00258946 0 0 0
-3.38813e-21 -0.0630991 0.00119272 0.00509434 -0.0264471 0.000286852
-1.12938e-21 0.0630991 0.00119271 -0.000707076 0.00390907 1.76006e-05
-6.77626e-21 0.0630752 0.00254727 -5.54273e-05 0.000380928 -7.13661e-06
6.77626e-21 -0.0630752 0.00254728 0.00035438 -0.00240447 -5.40023e-05
6.77626e-21 -0.0631146 0.00184446 0.00419276 -0.0231517 0.000208759
6.77626e-21 0.0631146 0.00184446 -0.000652771 0.00372129 4.55022e-06
6.77626e-21 -0.0631295 0.0022085 0.00259265 -0.015672 -3.99601e-05
-1.35525e-20 0.0631295 0.0022085 -0.000425979 0.00252839 -1.32494e-05
0 0.0631287 0.00259721 0 0 0
0 -0.0631287 0.0025972 0 0 0
6.77626e-21 0.0631356 0.00244813 -0.00017726 0.00106923 -5.35144e-06
0 -0.0631356 0.00244815 0.00106893 -0.0065051 -1.87159e-05
-6.77626e-21 -0.0632026 0.00255045 0.000425198 -0.00275006 -2.81596e-06
6.77626e-21 0.0632026 0.00255045 -7.45788e-05 0.000461587 1.67882e-06
0 -0.0632312 0.00260676 0 0 0
0 0.0632313 0.00260677 0 0 0
6.77626e-21 -0.063349 1.19264e-08 0 0 0
0 0.063349 1.19263e-08 0 0 0
1.12938e-21 -0.0633802 0.000299367 0.00197535 -0.00996455 7.54836e-05
-2.25875e-21 0.0633802 0.000299369 -6.57305e-05 0.000361549 6.11258e-08
-1.01644e-20 -0.0634014 1.18938e-08 0 0 0
1.01644e-20 0.0634014 1.18937e-08 0 0 0
2.71051e-20 -0.0633962 0.000886439 0.00497402 -0.0254008 0.000196349
0 0.0633962 0.000886437 -0.000630398 0.00349789 1.42557e-05
-2.71051e-20 0.0634042 0.00150049 -0.000830315 0.00466268 2.03193e-05
0 -0.0634042 0.00150049 0.00553625 -0.029527 0.000445654
-6.77626e-21 0.0634114 0.0022746 -0.000432459 0.00247735 -1.77436e-06
6.77626e-21 -0.0634114 0.00227461 0.00250104 -0.0151563 1.06679e-06
-1.35525e-20 0.0635494 0.00263612 0 0 0
1.35525e-20 -0.0635494 0.00263612 0 0 0
-1.54886e-20 -0.0636291 0.000643941 0.00400178 -0.0205858 0.000139896
-1.54886e-20 0.0636291 0.00064394 -0.000443443 0.00248642 1.0373e-05
0 0.0635904 0.00256273 -0.000107225 0.000663644 2.41371e-06
0 -0.0635904 0.00256275 0.000611401 -0.00395437 -4.04912e-06
-5.42101e-20 0.0636736 1.17146e-08 0 0 0
2.71051e-20 -0.0636736 1.17147e-08 0 0 0
5.64689e-21 -0.0637074 0.00119101 0.00536273 -0.028235 0.000299545
-6.77626e-21 0.0637074 0.00119101 -0.000743277 0.00420702 1.45642e-05
-6.77626e-21 0.0637064 0.00183893 -0.000726934 0.0041104 9.83295e-06
-9.03502e-21 -0.0637064 0.00183893 0.00462317 -0.0253655 0.000279845
-1.12938e-21 0.0636972 0.00228499 -0.000442503 0.00250671 3.0607e-06
-2.25875e-21 -0.0636972 0.002285 0.00263129 -0.0152994 8.94286e-05
1.35525e-20 -0.0636864 0.00264892 0 0 0
0 0.0636864 0.00264892 0 0 0
0 0.0638057 0.00256956 -0.000136943 0.000782371 3.88812e-06
0 -0.0638057 0.00256957 0.000782061 -0.00467895 6.2477e-05
0 -0.0638578 0.00266484 0 0 0
0 0.0638578 0.00266484 0 0 0
-7.41154e-21 -0.0639767 1.11249e-08 0 0 0
1.48231e-21 0.0639761 1.11262e-08 0 0 0
2.25875e-21 -0.063985 0.000294159 0.00194344 -0.0102714 4.15208e-05
1.12938e-21 0.063985 0.000294155 -5.04532e-05 0.000298335 -1.38971e-06
9.03502e-21 0.0639986 0.000797712 -0.000559345 0.00320823 1.26108e-05
1.35525e-20 -0.0639986 0.000797713 0.00469312 -0.024404 0.000167733
0 0.0639965 0.00216957 -0.000611933 0.00342345 3.50378e-06
-1.35525e-20 -0.0639965 0.00216958 0.00368775 -0.0207256 0.000172764
-1.35525e-20 0.0639892 0.00242307 -0.000365226 0.00203204 6.38021e-06
0 -0.0639893 0.00242307 0.00211382 -0.0125197 0.00012417
-5.42101e-21 0.0640905 0.00161525 -0.000837826 0.00479139 7.71349e-06
2.71051e-21 -0.0640905 0.00161526 0.00547731 -0.0298166 0.000359181
-6.77626e-21 0.0640768 0.00268508 0 0 0
2.03288e-20 -0.0640768 0.00268508 0 0 0
2.71051e-20 0.0641377 0.00258144 -0.000165409 0.000945006 4.69636e-06
1.35525e-20 -0.0641377 0.00258144 0.000944686 -0.00565191 7.54687e-05
0 0.0642237 0.00119408 -0.000767372 0.00444031 8.71271e-06
0 -0.0642237 0.00119408 0.00554269 -0.0295558 0.000264479
0 0.0642452 0.0019095 -0.000737316 0.00420499 1.89377e-06
0 -0.0642452 0.0019095 0.00462174 -0.0254662 0.000224028
-2.71051e-20 -0.0642765 1.05721e-08 0 0 0
0 0.0642765 1.05715e-08 0 0 0
0 -0.0643071 0.000580349 0.00355839 -0.0187155 5.78602e-05
0 0.0643071 0.000580347 -0.000351629 0.00204734 4.76514e-06
1.35525e-20 0.0642697 0.00270301 0 0 0
0 -0.0642697 0.00270301 0 0 0
0 0.0642913 0.00231124 -0.00049987 0.00281112 7.90818e-07
0 -0.0642914 0.00231125 0.00301197 -0.0170604 0.000173489
-2.03288e-20 0.0645077 0.00272507 0 0 0
-6.77626e-21 -0.0645077 0.00272507 0 0 0
3.38813e-21 -0.0645717 1.00934e-08 0 0 0
-3.04932e-20 0.0645718 1.00931e-08 0 0 0
1.69407e-21 -0.0645942 0.000105281 0.000725293 -0.00390901 -3.99141e-06
1.69407e-21 0.0645943 0.000105376 -8.8392e-06 6.27101e-05 -7.278e-07
1.12938e-21 -0.0646037 0.000289984 0.00196454 -0.0106038 -9.03976e-06
1.12938e-21 0.0646037 0.000289985 -3.94232e-05 0.000258827 -1.72775e-06
3.04932e-20 -0.0646061 1.00753e-08 0 0 0
3.38813e-21 0.0646062 1.0075e-08 0 0 0
-1.35525e-20 0.0645786 0.00255814 -0.000260995 0.00145731 1.60493e-06
0 -0.0645786 0.00255814 0.00152656 -0.00884342 0.000150237
-9.03502e-21 -0.0646301 0.000897019 0.00530328 -0.0275828 0.000190149
4.51751e-21 0.0646302 0.000897011 -0.000665062 0.00382328 -7.70905e-07
4.51751e-21 0.0646074 0.00205749 -0.000724925 0.00416291 -1.29653e-05
4.51751e-21 -0.0646074 0.00205749 0.00451782 -0.0251183 0.000201819
4.51751e-21 -0.0646289 0.0015261 0.00585149 -0.0315927 0.000241844
0 0.0646289 0.0015261 -0.000890052 0.00506507 -9.37745e-06
2.03288e-20 0.0646274 0.00273615 0 0 0
-6.77626e-21 -0.0646274 0.00273615 0 0 0
2.71051e-20 -0.0649009 9.6032e-09 0 0 0
0 0.064901 9.60317e-09 0 0 0
0 0.0648749 0.00275909 0 0 0
-1.35525e-20 -0.0648749 0.0027591 0 0 0
0 -0.0649356 0.000580175 0.00375555 -0.0196637 3.67971e-05
0 0.0649357 0.000580173 -0.000376991 0.00217905 -8.32265e-06
2.71051e-20 -0.0649299 0.0018847 0.00501587 -0.0276313 8.87991e-05
0 0.0649299 0.0018847 -0.000815162 0.00466758 -2.17286e-05
0 -0.0649158 0.00234727 0.00333641 -0.0188117 0.00013126
-5.64689e-22 0.0649158 0.00234727 -0.000560694 0.00312586 -1.85688e-05
0 0.064955 0.00120196 -0.000821247 0.00474391 -1.83116e-05
-2.71051e-20 -0.064955 0.00120197 0.0058399 -0.0309868 0.000144991
-1.69407e-21 -0.0652158 7.83139e-09 0 0 0
-5.0822e-21 0.0652158 7.83129e-09 0 0 0
1.69407e-21 -0.0652252 4.89709e-05 0.000361197 -0.00191374 -1.03444e-05
-8.47033e-22 0.0652252 4.89567e-05 -7.17528e-06 4.02251e-05 -1.672e-07
-1.69407e-21 -0.0652301 7.82307e-09 0 0 0
1.69407e-21 0.0652302 7.82298e-09 0 0 0
3.38813e-21 -0.0652381 0.000289556 0.00210261 -0.0111436 -5.29828e-05
-1.12938e-21 0.0652381 0.000289555 -5.86481e-05 0.000332145 -1.63419e-06
-4.51751e-21 -0.0652635 0.000898339 0.00570316 -0.0290601 0.000164532
0 0.0652635 0.000898337 -0.000718111 0.00405933 -3.06351e-05
-1.86347e-20 0.0652148 0.00279069 0 0 0
1.69407e-21 -0.0652149 0.00279069 0 0 0
2.25875e-21 0.0652598 0.00154151 -0.000957622 0.00541967 -1.78535e-05
4.51751e-21 -0.0652598 0.00154152 0.00626454 -0.0333464 0.000214818
-9.03502e-21 0.0652522 0.00209406 -0.000773797 0.00449685 -4.10461e-05
-1.35525e-20 -0.0652523 0.00209406 0.00465556 -0.0266087 6.90801e-05
6.77626e-21 0.065246 0.00279361 0 0 0
1.18585e-20 -0.0652461 0.00279361 0 0 0
2.25875e-21 0.0652919 0.00257206 -0.000368389 0.00202167 -1.567e-05
-6.77626e-21 -0.065292 0.00257206 0.0021507 -0.0122075 8.60765e-05
-2.71051e-20 -0.0655524 5.83779e-09 0 0 0
2.71051e-20 0.0655524 5.83758e-09 0 0 0
0 -0.0655704 0.000580902 0.0041171 -0.0208045 8.96854e-06
-2.71051e-20 0.0655704 0.0005809 -0.000407564 0.0023194 -2.24223e-05
2.71051e-20 0.0655565 0.00189852 -0.000887744 0.00506056 -2.59967e-05
2.71051e-20 -0.0655566 0.00189852 0.00538276 -0.0294446 5.81536e-05
0 0.0655812 0.0012083 -0.000892503 0.00505683 -2.99368e-05
0 -0.0655812 0.0012083 0.00628954 -0.0327476 0.000117596
-5.42101e-20 0.0655608 0.00282284 0 0 0
0 -0.0655609 0.00282284 0 0 0
9.03502e-21 0.0656258 0.00230133 -0.000689791 0.0039444 -3.00864e-05
0 -0.0656259 0.00230134 0.00405913 -0.0229777 8.03984e-05
-9.03502e-21 0.0657943 0.00153807 -0.00100968 0.00572726 -2.479e-05
-9.03502e-21 -0.0657943 0.00153807 0.00660432 -0.0348114 0.00019445
6.77626e-21 -0.0658501 4.27433e-09 0 0 0
-3.38813e-21 0.0658501 4.27416e-09 0 0 0
-8.13152e-21 0.0658197 0.00206877 -0.000902028 0.0050716 -2.317e-05
8.13152e-21 -0.0658197 0.00206877 0.00538868 -0.0295497 0.000176449
0 -0.0658851 0.000294095 0.00242082 -0.0118521 -5.34094e-05
-1.12938e-21 0.0658851 0.000294098 -7.65241e-05 0.000490001 -3.36589e-06
-6.77626e-21 0.0659037 3.7412e-09 0 0 0
-3.38813e-21 -0.0659037 3.74133e-09 0 0 0
-6.77626e-21 -0.0658977 0.000900946 0.00601906 -0.0303639 7.29204e-05
0 0.0658977 0.000900939 -0.000745018 0.0042778 -4.14249e-05
-1.69407e-21 0.0658682 0.00285172 0 0 0
-1.69407e-21 -0.0658683 0.00285172 0 0 0
0 0.0658848 0.00282476 -4.88235e-05 0.000268047 8.4276e-07
1.69407e-21 -0.0658848 0.00282481 0.000278673 -0.0016078 3.43888e-05
-5.0822e-21 0.0659027 0.00285494 0 0 0
0 -0.0659027 0.00285493 0 0 0
-1.12938e-21 0.0659302 0.00259593 -0.000419046 0.0023344 1.73456e-06
2.25875e-21 -0.0659302 0.00259593 0.0024407 -0.0140186 0.000221368
2.71051e-20 0.0662017 2.04737e-09 0 0 0
-2.71051e-20 -0.0662017 2.04747e-09 0 0 0
-2.71051e-20 -0.0662096 0.000583235 0.00443556 -0.0218154 1.70323e-05
0 0.0662096 0.000583235 -0.000426695 0.00245163 -1.96312e-05
2.25875e-21 0.0662259 0.00182351 -0.00102504 0.00577147 -8.45674e-06
4.51751e-21 -0.0662259 0.00182351 0.00637675 -0.0339444 0.000248856
4.51751e-21 -0.0662614 0.00125281 0.00684643 -0.035134 0.000169927
0 0.0662614 0.00125281 -0.000975514 0.00552303 -2.32117e-05
-9.03502e-21 0.0662442 0.00230923 -0.000759557 0.00427611 -5.83374e-06
0 -0.0662442 0.00230924 0.00446095 -0.024587 0.00017337
0 0.0662393 0.00288655 0 0 0
-2.71051e-20 -0.0662393 0.00288655 0 0 0
-1.35525e-20 -0.0664688 1.83914e-09 0 0 0
-2.03288e-20 0.0664688 1.83905e-09 0 0 0
4.51751e-21 -0.0665215 0.000297069 0.00259052 -0.0123632 2.39127e-05
-3.38813e-21 0.0665216 0.000297066 -0.000101833 0.000640156 -1.70858e-06
0 -0.0665293 0.00080361 0.00595604 -0.0294624 7.08048e-05
-9.03502e-21 0.0665293 0.000803608 -0.000698612 0.00400259 -3.03483e-05
0 0.0664898 0.00290996 0 0 0
0 -0.0664899 0.00290996 0 0 0
0 0.0665401 0.00152056 -0.00113744 0.00642266 -1.28517e-05
-2.71051e-20 -0.0665401 0.00152056 0.00733999 -0.0382675 0.000267018
-6.77626e-21 -0.0665636 1.726e-09 0 0 0
-2.03288e-20 0.0665637 1.72594e-09 0 0 0
0 0.0665512 0.00211001 -0.000996869 0.00556443 8.24621e-06
0 -0.0665512 0.00211001 0.0059214 -0.031802 0.000292526
1.12938e-21 0.0665487 0.00261746 -0.000488014 0.00264642 5.84355e-06
-6.77626e-21 -0.0665487 0.00261746 0.00272518 -0.0154653 0.000250247
3.38813e-21 0.0665442 0.00282584 -0.000156799 0.00083488 2.26926e-06
-3.38813e-21 -0.0665442 0.00282586 0.000851915 -0.00486081 9.41871e-05
0 0.0666005 0.00292022 0 0 0
0 -0.0666005 0.00292022 0 0 0
0 -0.0668291 1.51559e-09 0 0 0
-2.71051e-20 0.0668291 1.51554e-09 0 0 0
0 -0.0668394 0.000583644 0.00464761 -0.0226644 7.16106e-05
2.71051e-20 0.0668395 0.000583645 -0.000452887 0.00259436 -1.5046e-05
4.51751e-21 -0.0668468 0.0011998 0.00708693 -0.0359928 0.000166434
6.77626e-21 0.0668469 0.0011998 -0.00099947 0.0056466 -2.21199e-05
0 0.0668543 0.00182538 -0.00109481 0.00613773 -5.13686e-06
0 -0.0668543 0.00182538 0.00674908 -0.0356068 0.000255802
0 0.0668556 0.00232228 -0.000835049 0.00465064 3.53099e-06
1.35525e-20 -0.0668556 0.00232228 0.00481263 -0.0262076 0.000230473
-2.71051e-20 0.0668433 0.00294289 0 0 0
0 -0.0668434 0.0029429 0 0 0
-3.38813e-20 -0.0670865 1.47842e-09 0 0 0
2.71051e-20 0.0670865 1.47839e-09 0 0 0
0 0.0670506 0.00296221 0 0 0
0 -0.0670506 0.00296222 0 0 0
1.12938e-20 -0.0671423 0.000297563 0.00268901 -0.0127358 7.10811e-05
0 0.0671423 0.000297564 -0.000120632 0.000727617 -2.14725e-06
4.51751e-21 -0.0671508 0.000801878 0.0061931 -0.030398 0.000111545
4.51751e-21 0.0671508 0.000801881 -0.000733467 0.00415994 -2.4242e-05
0 0.0671599 0.00152405 -0.001202 0.00674018 -1.93402e-05
2.71051e-20 -0.0671599 0.00152405 0.00765763 -0.0396553 0.000200637
-3.38813e-20 -0.0671866 1.45256e-09 0 0 0
-2.71051e-20 0.0671867 1.45253e-09 0 0 0