# Moment      
# CofR        : (0.000000e+00 0.000000e+00 0.000000e+00)
#
# Time        	(total_x total_y total_z)	(pressure_x pressure_y pressure_z)	(viscous_x viscous_y viscous_z)
5001          	(2.755014e-04 7.614318e-02 1.473673e-04)	(2.741725e-04 7.570390e-02 1.468781e-04)	(1.328827e-06 4.392849e-04 4.891866e-07)
5002          	(2.699761e-04 1.523729e-01 2.634482e-04)	(2.685536e-04 1.518267e-01 2.632888e-04)	(1.422475e-06 5.461884e-04 1.594276e-07)
5003          	(2.754291e-04 1.666758e-01 3.950161e-04)	(2.732677e-04 1.659717e-01 3.950975e-04)	(2.161366e-06 7.040707e-04 -8.141996e-08)
5004          	(1.836871e-04 1.382290e-01 -6.820511e-07)	(1.811397e-04 1.374407e-01 1.626998e-08)	(2.547412e-06 7.882671e-04 -6.983210e-07)
5005          	(9.662567e-05 8.465040e-02 -6.065808e-04)	(9.466613e-05 8.387502e-02 -6.056862e-04)	(1.959536e-06 7.753787e-04 -8.945991e-07)
5006          	(8.513126e-05 2.873738e-02 -8.588123e-04)	(8.471286e-05 2.809069e-02 -8.572865e-04)	(4.183940e-07 6.466905e-04 -1.525792e-06)
5007          	(1.094244e-04 -1.243514e-02 -7.902670e-04)	(1.088038e-04 -1.290766e-02 -7.879769e-04)	(6.205680e-07 4.725213e-04 -2.290117e-06)
5008          	(1.384057e-04 -3.237590e-02 -7.498607e-04)	(1.389786e-04 -3.267808e-02 -7.445001e-04)	(-5.728802e-07 3.021772e-04 -5.360623e-06)
5009          	(1.777882e-04 -3.162731e-02 -4.360860e-04)	(1.781461e-04 -3.180414e-02 -4.331977e-04)	(-3.578874e-07 1.768245e-04 -2.888352e-06)
5010          	(2.241505e-04 -2.065761e-02 2.428839e-04)	(2.239261e-04 -2.076652e-02 2.452836e-04)	(2.243900e-07 1.089097e-04 -2.399775e-06)
5011          	(2.778116e-04 -2.430091e-03 6.314922e-04)	(2.766081e-04 -2.520149e-03 6.321129e-04)	(1.203475e-06 9.005736e-05 -6.207807e-07)
5012          	(2.835996e-04 1.646449e-02 9.057974e-04)	(2.811950e-04 1.634578e-02 9.046462e-04)	(2.404594e-06 1.187111e-04 1.151206e-06)
5013          	(2.017646e-04 2.993376e-02 8.045825e-04)	(1.983142e-04 2.975721e-02 8.023103e-04)	(3.450392e-06 1.765494e-04 2.272273e-06)
5014          	(1.005676e-04 3.689716e-02 4.241467e-04)	(9.793782e-05 3.666310e-02 4.225422e-04)	(2.629790e-06 2.340583e-04 1.604504e-06)
5015          	(9.306901e-05 3.969494e-02 -2.149452e-06)	(9.072101e-05 3.941477e-02 -3.395592e-06)	(2.348000e-06 2.801758e-04 1.246141e-06)
5016          	(-1.999322e-05 3.620965e-02 -4.247927e-04)	(-2.164448e-05 3.590689e-02 -4.256891e-04)	(1.651260e-06 3.027684e-04 8.963547e-07)
5017          	(-1.011099e-04 3.005508e-02 -6.858505e-04)	(-1.017642e-04 2.975356e-02 -6.859178e-04)	(6.543797e-07 3.015149e-04 6.730409e-08)
5018          	(-1.253888e-04 2.424986e-02 -7.947376e-04)	(-1.248666e-04 2.396223e-02 -7.936761e-04)	(-5.221859e-07 2.876293e-04 -1.061521e-06)
5019          	(-1.050876e-04 2.022037e-02 -7.561898e-04)	(-1.040224e-04 1.995405e-02 -7.544303e-04)	(-1.065222e-06 2.663197e-04 -1.759595e-06)
5020          	(-6.747500e-05 1.872484e-02 -6.062263e-04)	(-6.612937e-05 1.847863e-02 -6.040236e-04)	(-1.345636e-06 2.462134e-04 -2.202766e-06)
5021          	(-1.070387e-04 1.749137e-02 -3.618762e-04)	(-1.057115e-04 1.726396e-02 -3.596724e-04)	(-1.327132e-06 2.274073e-04 -2.203777e-06)
5022          	(-6.109692e-05 1.984178e-02 -1.365127e-04)	(-6.005481e-05 1.962275e-02 -1.344122e-04)	(-1.042111e-06 2.190365e-04 -2.100455e-06)
5023          	(-2.212678e-05 2.339347e-02 -1.386731e-04)	(-2.146872e-05 2.316996e-02 -1.364338e-04)	(-6.580605e-07 2.235101e-04 -2.239256e-06)
5024          	(-8.793449e-05 2.530217e-02 -1.146219e-05)	(-8.744514e-05 2.506853e-02 -9.496247e-06)	(-4.893522e-07 2.336328e-04 -1.965942e-06)
5025          	(-1.064379e-04 2.842489e-02 4.493133e-05)	(-1.059566e-04 2.817669e-02 4.692042e-05)	(-4.813591e-07 2.482003e-04 -1.989086e-06)
5026          	(-2.008804e-04 2.947016e-02 -1.591070e-04)	(-2.000801e-04 2.920548e-02 -1.566822e-04)	(-8.003437e-07 2.646836e-04 -2.424864e-06)
5027          	(-2.975352e-04 2.970503e-02 -3.000595e-04)	(-2.960642e-04 2.942471e-02 -2.973994e-04)	(-1.470954e-06 2.803221e-04 -2.660053e-06)
5028          	(-3.462229e-04 2.967181e-02 -2.831356e-04)	(-3.441295e-04 2.937801e-02 -2.800414e-04)	(-2.093364e-06 2.937938e-04 -3.094142e-06)
5029          	(-3.513786e-04 2.958492e-02 -2.938000e-04)	(-3.486922e-04 2.927987e-02 -2.904146e-04)	(-2.686372e-06 3.050535e-04 -3.385466e-06)
5030          	(-3.221527e-04 2.973979e-02 -3.058673e-04)	(-3.189844e-04 2.942386e-02 -3.022767e-04)	(-3.168244e-06 3.159305e-04 -3.590594e-06)
5031          	(-2.557344e-04 3.005301e-02 -2.624364e-04)	(-2.522853e-04 2.972492e-02 -2.585928e-04)	(-3.449173e-06 3.280893e-04 -3.843621e-06)
5032          	(-1.865663e-04 3.018418e-02 -2.771708e-04)	(-1.832031e-04 2.984385e-02 -2.732594e-04)	(-3.363159e-06 3.403272e-04 -3.911414e-06)
5033          	(-1.098242e-04 3.067167e-02 -2.545771e-04)	(-1.065710e-04 3.031929e-02 -2.509136e-04)	(-3.253243e-06 3.523842e-04 -3.663576e-06)
5034          	(-4.364130e-05 3.126148e-02 -2.111339e-04)	(-4.055993e-05 3.089682e-02 -2.077718e-04)	(-3.081363e-06 3.646570e-04 -3.362119e-06)
5035          	(6.284090e-06 3.163005e-02 -1.674072e-04)	(9.290561e-06 3.125343e-02 -1.643290e-04)	(-3.006471e-06 3.766200e-04 -3.078213e-06)
5036          	(6.195344e-05 3.229933e-02 -1.891131e-04)	(6.497960e-05 3.190936e-02 -1.862955e-04)	(-3.026162e-06 3.899786e-04 -2.817608e-06)
5037          	(9.454166e-05 3.195312e-02 -9.230003e-05)	(9.724413e-05 3.155207e-02 -9.024974e-05)	(-2.702468e-06 4.010524e-04 -2.050290e-06)
5038          	(1.124892e-04 3.146652e-02 -1.909247e-05)	(1.148199e-04 3.105793e-02 -1.796626e-05)	(-2.330720e-06 4.085828e-04 -1.126214e-06)
5039          	(1.138452e-04 3.077814e-02 4.759429e-05)	(1.161229e-04 3.036577e-02 4.778553e-05)	(-2.277760e-06 4.123683e-04 -1.912437e-07)
5040          	(1.026282e-04 3.030855e-02 2.262893e-04)	(1.049112e-04 2.989519e-02 2.253236e-04)	(-2.282960e-06 4.133693e-04 9.656979e-07)
5041          	(7.609830e-05 2.925691e-02 2.464607e-04)	(7.829868e-05 2.884668e-02 2.446081e-04)	(-2.200379e-06 4.102263e-04 1.852621e-06)
5042          	(4.238584e-05 2.844429e-02 2.265464e-04)	(4.427740e-05 2.803964e-02 2.239279e-04)	(-1.891561e-06 4.046473e-04 2.618522e-06)
5043          	(5.937805e-06 2.794721e-02 1.647339e-04)	(7.639869e-06 2.754875e-02 1.619590e-04)	(-1.702063e-06 3.984543e-04 2.774912e-06)
5044          	(-3.167613e-05 2.763704e-02 8.206760e-05)	(-3.008728e-05 2.724507e-02 7.966223e-05)	(-1.588852e-06 3.919714e-04 2.405365e-06)
5045          	(-6.741707e-05 2.791709e-02 -6.444227e-06)	(-6.591115e-05 2.752981e-02 -8.486877e-06)	(-1.505927e-06 3.872735e-04 2.042651e-06)
5046          	(-1.047181e-04 2.793567e-02 -1.171278e-04)	(-1.031776e-04 2.755262e-02 -1.186487e-04)	(-1.540518e-06 3.830488e-04 1.520953e-06)
5047          	(-1.343364e-04 2.798907e-02 -2.286624e-04)	(-1.325444e-04 2.760937e-02 -2.293226e-04)	(-1.791999e-06 3.797026e-04 6.601777e-07)
5048          	(-1.493730e-04 2.807716e-02 -3.237209e-04)	(-1.472293e-04 2.769975e-02 -3.235163e-04)	(-2.143649e-06 3.774104e-04 -2.046108e-07)
5049          	(-1.434940e-04 2.818892e-02 -3.852304e-04)	(-1.410384e-04 2.781277e-02 -3.842572e-04)	(-2.455537e-06 3.761533e-04 -9.732298e-07)
5050          	(-1.142500e-04 2.830594e-02 -4.063969e-04)	(-1.116885e-04 2.793032e-02 -4.048623e-04)	(-2.561453e-06 3.756266e-04 -1.534626e-06)
5051          	(-6.485451e-05 2.841058e-02 -3.782286e-04)	(-6.244698e-05 2.803502e-02 -3.762996e-04)	(-2.407529e-06 3.755580e-04 -1.929030e-06)
5052          	(-4.818277e-07 2.851883e-02 -2.688376e-04)	(1.576842e-06 2.814313e-02 -2.670094e-04)	(-2.058669e-06 3.757030e-04 -1.828257e-06)
5053          	(7.242448e-05 2.857048e-02 -1.277369e-04)	(7.401742e-05 2.819506e-02 -1.263031e-04)	(-1.592939e-06 3.754162e-04 -1.433837e-06)
5054          	(1.425538e-04 2.863106e-02 -6.512153e-06)	(1.436237e-04 2.825638e-02 -5.539399e-06)	(-1.069876e-06 3.746833e-04 -9.727540e-07)
5055          	(2.685301e-04 2.851393e-02 3.580590e-04)	(2.687333e-04 2.814089e-02 3.582190e-04)	(-2.031600e-07 3.730467e-04 -1.600345e-07)
5056          	(2.999306e-04 2.815818e-02 3.848450e-04)	(2.992634e-04 2.778837e-02 3.844854e-04)	(6.672757e-07 3.698034e-04 3.595810e-07)
5057          	(3.163100e-04 2.790990e-02 3.728860e-04)	(3.149963e-04 2.754425e-02 3.721274e-04)	(1.313708e-06 3.656550e-04 7.586173e-07)
5058          	(3.115779e-04 2.768833e-02 3.566704e-04)	(3.097837e-04 2.732720e-02 3.556541e-04)	(1.794227e-06 3.611279e-04 1.016373e-06)
5059          	(2.764793e-04 2.724078e-02 2.975053e-04)	(2.744914e-04 2.688492e-02 2.962219e-04)	(1.987903e-06 3.558579e-04 1.283435e-06)
5060          	(2.313126e-04 2.687097e-02 2.502987e-04)	(2.293493e-04 2.652065e-02 2.488248e-04)	(1.963246e-06 3.503273e-04 1.473902e-06)
5061          	(1.755774e-04 2.666565e-02 2.249771e-04)	(1.737678e-04 2.632063e-02 2.234388e-04)	(1.809638e-06 3.450180e-04 1.538339e-06)
5062          	(1.091249e-04 2.635215e-02 1.669000e-04)	(1.075735e-04 2.601258e-02 1.654766e-04)	(1.551424e-06 3.395700e-04 1.423419e-06)
5063          	(4.245542e-05 2.612008e-02 1.180862e-04)	(4.132297e-05 2.578581e-02 1.167941e-04)	(1.132445e-06 3.342677e-04 1.292085e-06)
5064          	(-2.039468e-05 2.600538e-02 8.257153e-05)	(-2.096362e-05 2.567605e-02 8.130798e-05)	(5.689434e-07 3.293236e-04 1.263547e-06)
5065          	(-7.337603e-05 2.596086e-02 6.387934e-05)	(-7.331151e-05 2.563616e-02 6.266806e-05)	(-6.451701e-08 3.247068e-04 1.211271e-06)
5066          	(-1.122012e-04 2.596148e-02 5.099546e-05)	(-1.115285e-04 2.564097e-02 4.983221e-05)	(-6.726084e-07 3.205159e-04 1.163252e-06)
5067          	(-1.362820e-04 2.599945e-02 2.249697e-05)	(-1.350470e-04 2.568265e-02 2.137190e-05)	(-1.235072e-06 3.168040e-04 1.125073e-06)
5068          	(-1.468373e-04 2.604719e-02 -1.081711e-05)	(-1.451028e-04 2.573349e-02 -1.180709e-05)	(-1.734470e-06 3.137034e-04 9.899892e-07)
5069          	(-1.445274e-04 2.609129e-02 -4.565130e-05)	(-1.423903e-04 2.578017e-02 -4.638813e-05)	(-2.137126e-06 3.111119e-04 7.368345e-07)
5070          	(-1.317800e-04 2.612018e-02 -7.656086e-05)	(-1.292839e-04 2.581124e-02 -7.689896e-05)	(-2.496126e-06 3.089380e-04 3.380961e-07)
5071          	(-1.120302e-04 2.612435e-02 -9.851566e-05)	(-1.093030e-04 2.581728e-02 -9.846277e-05)	(-2.727190e-06 3.070692e-04 -5.288370e-08)
5072          	(-8.805062e-05 2.609714e-02 -1.074309e-04)	(-8.525595e-05 2.579222e-02 -1.071505e-04)	(-2.794666e-06 3.049170e-04 -2.803705e-07)
5073          	(-6.309133e-05 2.603478e-02 -1.025437e-04)	(-6.016196e-05 2.573251e-02 -1.020715e-04)	(-2.929374e-06 3.022736e-04 -4.721805e-07)
5074          	(-3.956940e-05 2.593601e-02 -8.378708e-05)	(-3.645763e-05 2.563681e-02 -8.318542e-05)	(-3.111772e-06 2.992008e-04 -6.016587e-07)
5075          	(-1.882202e-05 2.580144e-02 -5.182097e-05)	(-1.556866e-05 2.550579e-02 -5.130631e-05)	(-3.253360e-06 2.956592e-04 -5.146674e-07)
5076          	(-1.353336e-06 2.563310e-02 -8.210372e-06)	(2.123897e-06 2.534155e-02 -7.962958e-06)	(-3.477233e-06 2.915496e-04 -2.474146e-07)
5077          	(1.285763e-05 2.543421e-02 4.462416e-05)	(1.657595e-05 2.514707e-02 4.454300e-05)	(-3.718311e-06 2.871383e-04 8.115046e-08)
5078          	(2.482438e-05 2.520963e-02 1.032051e-04)	(2.861134e-05 2.492708e-02 1.028227e-04)	(-3.786961e-06 2.825503e-04 3.824535e-07)
5079          	(3.634963e-05 2.496641e-02 1.607454e-04)	(4.008204e-05 2.468859e-02 1.599983e-04)	(-3.732408e-06 2.778153e-04 7.471317e-07)
5080          	(4.770008e-05 2.471407e-02 2.147794e-04)	(5.132842e-05 2.444110e-02 2.134873e-04)	(-3.628345e-06 2.729738e-04 1.292032e-06)
5081          	(5.890793e-05 2.446491e-02 2.611127e-04)	(6.238292e-05 2.419687e-02 2.592018e-04)	(-3.474986e-06 2.680358e-04 1.910910e-06)
5082          	(6.907423e-05 2.423054e-02 2.969696e-04)	(7.230469e-05 2.396747e-02 2.944993e-04)	(-3.230460e-06 2.630649e-04 2.470241e-06)
5083          	(7.622541e-05 2.402065e-02 3.199807e-04)	(7.915697e-05 2.376250e-02 3.171061e-04)	(-2.931560e-06 2.581520e-04 2.874669e-06)
5084          	(7.866719e-05 2.384271e-02 3.276475e-04)	(8.137581e-05 2.358928e-02 3.243773e-04)	(-2.708619e-06 2.534381e-04 3.270238e-06)
5085          	(7.604973e-05 2.370144e-02 3.178822e-04)	(7.859146e-05 2.345241e-02 3.143200e-04)	(-2.541726e-06 2.490273e-04 3.562198e-06)
5086          	(6.951295e-05 2.359950e-02 2.901837e-04)	(7.197162e-05 2.335442e-02 2.865081e-04)	(-2.458679e-06 2.450733e-04 3.675504e-06)
5087          	(5.923152e-05 2.353543e-02 2.489256e-04)	(6.158699e-05 2.329377e-02 2.453697e-04)	(-2.355463e-06 2.416675e-04 3.555872e-06)
5088          	(4.654691e-05 2.350912e-02 1.952823e-04)	(4.878840e-05 2.327027e-02 1.920195e-04)	(-2.241495e-06 2.388471e-04 3.262722e-06)
5089          	(3.270303e-05 2.351734e-02 1.311810e-04)	(3.483678e-05 2.328075e-02 1.282799e-04)	(-2.133744e-06 2.365894e-04 2.901139e-06)
5090          	(2.017290e-05 2.355359e-02 6.085048e-05)	(2.225010e-05 2.331879e-02 5.834280e-05)	(-2.077205e-06 2.348048e-04 2.507684e-06)
5091          	(9.600883e-06 2.360848e-02 -1.166122e-05)	(1.166296e-05 2.337506e-02 -1.369469e-05)	(-2.062078e-06 2.334205e-04 2.033469e-06)
5092          	(1.445820e-06 2.367061e-02 -7.977085e-05)	(3.518008e-06 2.343824e-02 -8.126412e-05)	(-2.072188e-06 2.323693e-04 1.493262e-06)
5093          	(-4.600818e-06 2.374286e-02 -1.383544e-04)	(-2.496729e-06 2.351123e-02 -1.392758e-04)	(-2.104089e-06 2.316287e-04 9.213747e-07)
5094          	(-6.482093e-06 2.380003e-02 -1.768947e-04)	(-4.348537e-06 2.356889e-02 -1.772548e-04)	(-2.133556e-06 2.311367e-04 3.601087e-07)
5095          	(-2.335415e-06 2.383425e-02 -1.923979e-04)	(-1.735654e-07 2.360341e-02 -1.922740e-04)	(-2.161849e-06 2.308408e-04 -1.239122e-07)
5096          	(7.733347e-06 2.382293e-02 -1.863996e-04)	(9.882869e-06 2.359230e-02 -1.859145e-04)	(-2.149521e-06 2.306211e-04 -4.851420e-07)
5097          	(2.407679e-05 2.378222e-02 -1.710548e-04)	(2.615179e-05 2.355178e-02 -1.703305e-04)	(-2.075008e-06 2.304350e-04 -7.242842e-07)
5098          	(4.558880e-05 2.372309e-02 -1.381577e-04)	(4.751558e-05 2.349287e-02 -1.373084e-04)	(-1.926781e-06 2.302150e-04 -8.492766e-07)
5099          	(7.111228e-05 2.365023e-02 -9.082501e-05)	(7.283011e-05 2.342029e-02 -8.996251e-05)	(-1.717833e-06 2.299323e-04 -8.625014e-07)
5100          	(9.884464e-05 2.357003e-02 -3.357676e-05)	(1.003089e-04 2.334048e-02 -3.282733e-05)	(-1.464232e-06 2.295547e-04 -7.494265e-07)
5101          	(1.266145e-04 2.348949e-02 2.761826e-05)	(1.278043e-04 2.326042e-02 2.813593e-05)	(-1.189847e-06 2.290657e-04 -5.176670e-07)
5102          	(1.520346e-04 2.341580e-02 8.615871e-05)	(1.529232e-04 2.318735e-02 8.632255e-05)	(-8.885803e-07 2.284453e-04 -1.638363e-07)
5103          	(1.730485e-04 2.335530e-02 1.362299e-04)	(1.736064e-04 2.312764e-02 1.359421e-04)	(-5.579501e-07 2.276594e-04 2.877925e-07)
5104          	(1.887402e-04 2.331304e-02 1.761606e-04)	(1.889647e-04 2.308633e-02 1.753968e-04)	(-2.244690e-07 2.267095e-04 7.638457e-07)
5105          	(1.997322e-04 2.333331e-02 2.247996e-04)	(1.996416e-04 2.310753e-02 2.235265e-04)	(9.059303e-08 2.257856e-04 1.273117e-06)
5106          	(2.015881e-04 2.333354e-02 2.265072e-04)	(2.011959e-04 2.310872e-02 2.248517e-04)	(3.922669e-07 2.248195e-04 1.655550e-06)
5107          	(1.970466e-04 2.335737e-02 2.121399e-04)	(1.963530e-04 2.313352e-02 2.102937e-04)	(6.935751e-07 2.238468e-04 1.846137e-06)
5108          	(1.874477e-04 2.340431e-02 1.844753e-04)	(1.865405e-04 2.318136e-02 1.825170e-04)	(9.072294e-07 2.229565e-04 1.958361e-06)
5109          	(1.743003e-04 2.347288e-02 1.461455e-04)	(1.732939e-04 2.325066e-02 1.441792e-04)	(1.006410e-06 2.222223e-04 1.966373e-06)
5110          	(1.582565e-04 2.361022e-02 8.545980e-05)	(1.572497e-04 2.338837e-02 8.366777e-05)	(1.006723e-06 2.218568e-04 1.792040e-06)
5111          	(1.411918e-04 2.370567e-02 3.592527e-05)	(1.402236e-04 2.348395e-02 3.447427e-05)	(9.682000e-07 2.217179e-04 1.450994e-06)
5112          	(1.226492e-04 2.380876e-02 -1.451046e-05)	(1.217329e-04 2.358697e-02 -1.553626e-05)	(9.163552e-07 2.217926e-04 1.025803e-06)
5113          	(1.035903e-04 2.391958e-02 -6.264474e-05)	(1.027759e-04 2.369746e-02 -6.324172e-05)	(8.143451e-07 2.221190e-04 5.969828e-07)
5114          	(8.408158e-05 2.407978e-02 -1.206806e-04)	(8.340941e-05 2.385696e-02 -1.207773e-04)	(6.721738e-07 2.228212e-04 9.669481e-08)
5115          	(6.701290e-05 2.418858e-02 -1.513292e-04)	(6.649149e-05 2.396488e-02 -1.509236e-04)	(5.214151e-07 2.237051e-04 -4.055523e-07)
5116          	(5.255533e-05 2.433243e-02 -1.779639e-04)	(5.216866e-05 2.410759e-02 -1.770439e-04)	(3.866756e-07 2.248350e-04 -9.199794e-07)
5117          	(4.073969e-05 2.447007e-02 -1.886973e-04)	(4.045130e-05 2.424388e-02 -1.872958e-04)	(2.883945e-07 2.261900e-04 -1.401494e-06)
5118          	(3.157670e-05 2.460217e-02 -1.844403e-04)	(3.136198e-05 2.437448e-02 -1.826408e-04)	(2.147198e-07 2.276940e-04 -1.799514e-06)
5119          	(2.494512e-05 2.472479e-02 -1.664686e-04)	(2.475271e-05 2.449550e-02 -1.643700e-04)	(1.924185e-07 2.292927e-04 -2.098595e-06)
5120          	(2.065062e-05 2.484997e-02 -1.398786e-04)	(2.043566e-05 2.461900e-02 -1.375979e-04)	(2.149622e-07 2.309715e-04 -2.280653e-06)
5121          	(1.845501e-05 2.496997e-02 -1.080411e-04)	(1.820994e-05 2.473727e-02 -1.057073e-04)	(2.450714e-07 2.326992e-04 -2.333779e-06)
5122          	(1.766904e-05 2.508571e-02 -7.529371e-05)	(1.737536e-05 2.485126e-02 -7.299562e-05)	(2.936768e-07 2.344466e-04 -2.298096e-06)
5123          	(1.691500e-05 2.519779e-02 -4.487909e-05)	(1.652546e-05 2.496161e-02 -4.267497e-05)	(3.895467e-07 2.361853e-04 -2.204123e-06)
5124          	(1.512754e-05 2.530814e-02 -2.048619e-05)	(1.460572e-05 2.507026e-02 -1.842099e-05)	(5.218178e-07 2.378782e-04 -2.065200e-06)
5125          	(1.106523e-05 2.541826e-02 -4.943784e-06)	(1.040928e-05 2.517877e-02 -3.043036e-06)	(6.559479e-07 2.394856e-04 -1.900747e-06)
5126          	(4.275807e-06 2.552765e-02 2.488185e-07)	(3.496357e-06 2.528668e-02 1.965123e-06)	(7.794497e-07 2.409761e-04 -1.716304e-06)
5127          	(-4.206409e-06 2.564129e-02 -6.205597e-06)	(-5.075373e-06 2.539895e-02 -4.629109e-06)	(8.689636e-07 2.423376e-04 -1.576488e-06)
5128          	(-1.355444e-05 2.575922e-02 -2.174037e-05)	(-1.446648e-05 2.551562e-02 -2.021454e-05)	(9.120391e-07 2.435954e-04 -1.525831e-06)
5129          	(-2.351101e-05 2.590677e-02 -4.418007e-05)	(-2.442929e-05 2.566191e-02 -4.261123e-05)	(9.182809e-07 2.448579e-04 -1.568837e-06)
5130          	(-3.509415e-05 2.597354e-02 -6.507950e-05)	(-3.596785e-05 2.572765e-02 -6.339132e-05)	(8.737042e-07 2.458878e-04 -1.688175e-06)
5131          	(-4.689688e-05 2.604007e-02 -8.179007e-05)	(-4.764480e-05 2.579333e-02 -7.991083e-05)	(7.479132e-07 2.467416e-04 -1.879246e-06)
5132          	(-5.850274e-05 2.610592e-02 -9.175209e-05)	(-5.905244e-05 2.585838e-02 -8.965306e-05)	(5.497001e-07 2.475443e-04 -2.099033e-06)
5133          	(-6.719184e-05 2.626238e-02 -9.043613e-05)	(-6.750121e-05 2.601377e-02 -8.814124e-05)	(3.093704e-07 2.486128e-04 -2.294888e-06)
5134          	(-7.687215e-05 2.634369e-02 -7.970552e-05)	(-7.691026e-05 2.609398e-02 -7.724814e-05)	(3.811445e-08 2.497059e-04 -2.457380e-06)
5135          	(-8.758643e-05 2.639586e-02 -6.257497e-05)	(-8.733860e-05 2.614511e-02 -6.000216e-05)	(-2.478283e-07 2.507465e-04 -2.572810e-06)
5136          	(-9.756191e-05 2.643970e-02 -3.821710e-05)	(-9.697867e-05 2.618790e-02 -3.562686e-05)	(-5.832357e-07 2.518040e-04 -2.590241e-06)
5137          	(-1.066053e-04 2.647573e-02 -9.271774e-06)	(-1.056158e-04 2.622282e-02 -6.761705e-06)	(-9.895089e-07 2.529040e-04 -2.510069e-06)
5138          	(-1.143668e-04 2.650386e-02 2.107302e-05)	(-1.129843e-04 2.624980e-02 2.347843e-05)	(-1.382503e-06 2.540553e-04 -2.405405e-06)
5139          	(-1.203634e-04 2.652412e-02 4.951140e-05)	(-1.186415e-04 2.626887e-02 5.177466e-05)	(-1.721919e-06 2.552564e-04 -2.263255e-06)
5140          	(-1.241242e-04 2.653718e-02 7.413359e-05)	(-1.221053e-04 2.628069e-02 7.617309e-05)	(-2.018905e-06 2.564869e-04 -2.039508e-06)
5141          	(-1.254629e-04 2.654421e-02 9.422163e-05)	(-1.231858e-04 2.628650e-02 9.596402e-05)	(-2.277109e-06 2.577113e-04 -1.742394e-06)
5142          	(-1.231295e-04 2.654708e-02 1.101307e-04)	(-1.206763e-04 2.628819e-02 1.115345e-04)	(-2.453156e-06 2.588932e-04 -1.403835e-06)
5143          	(-1.166284e-04 2.654790e-02 1.225211e-04)	(-1.141157e-04 2.628788e-02 1.235781e-04)	(-2.512734e-06 2.600121e-04 -1.057042e-06)
5144          	(-1.062222e-04 2.654885e-02 1.321063e-04)	(-1.037630e-04 2.628779e-02 1.328230e-04)	(-2.459187e-06 2.610610e-04 -7.167268e-07)
5145          	(-9.268607e-05 2.655094e-02 1.394693e-04)	(-9.034207e-05 2.628891e-02 1.398560e-04)	(-2.343993e-06 2.620390e-04 -3.866270e-07)
5146          	(-7.738356e-05 2.655414e-02 1.457018e-04)	(-7.517215e-05 2.629119e-02 1.457581e-04)	(-2.211410e-06 2.629435e-04 -5.627293e-08)
5147          	(-6.166977e-05 2.656102e-02 1.508202e-04)	(-5.960555e-05 2.629724e-02 1.505450e-04)	(-2.064225e-06 2.637756e-04 2.751950e-07)
5148          	(-4.658925e-05 2.657279e-02 1.554361e-04)	(-4.471319e-05 2.630825e-02 1.548468e-04)	(-1.876063e-06 2.645360e-04 5.893001e-07)
5149          	(-3.303474e-05 2.659026e-02 1.599689e-04)	(-3.140076e-05 2.632503e-02 1.591060e-04)	(-1.633979e-06 2.652301e-04 8.628726e-07)
5150          	(-2.171265e-05 2.661336e-02 1.645131e-04)	(-2.036398e-05 2.634751e-02 1.634330e-04)	(-1.348672e-06 2.658589e-04 1.080111e-06)
5151          	(-1.309888e-05 2.664119e-02 1.687740e-04)	(-1.204449e-05 2.637475e-02 1.675581e-04)	(-1.054392e-06 2.664355e-04 1.215842e-06)
5152          	(-7.273389e-06 2.667264e-02 1.722440e-04)	(-6.487204e-06 2.640565e-02 1.709734e-04)	(-7.861852e-07 2.669893e-04 1.270567e-06)
5153          	(-4.203688e-06 2.670639e-02 1.745815e-04)	(-3.659842e-06 2.643884e-02 1.733122e-04)	(-5.438458e-07 2.675479e-04 1.269216e-06)
5154          	(-3.400423e-06 2.674089e-02 1.755965e-04)	(-3.083134e-06 2.647277e-02 1.743700e-04)	(-3.172884e-07 2.681272e-04 1.226528e-06)
5155          	(-7.154562e-06 2.685674e-02 1.777822e-04)	(-7.042981e-06 2.658776e-02 1.766316e-04)	(-1.115808e-07 2.689755e-04 1.150541e-06)
5156          	(-7.929280e-06 2.686583e-02 1.760423e-04)	(-8.023670e-06 2.659610e-02 1.749940e-04)	(9.439028e-08 2.697318e-04 1.048294e-06)
5157          	(-9.053802e-06 2.686406e-02 1.752638e-04)	(-9.327975e-06 2.659369e-02 1.743327e-04)	(2.741732e-07 2.703680e-04 9.310881e-07)
5158          	(-9.658774e-06 2.686124e-02 1.753998e-04)	(-1.009130e-05 2.659027e-02 1.745860e-04)	(4.325223e-07 2.709686e-04 8.138625e-07)
5159          	(-9.003293e-06 2.685848e-02 1.767454e-04)	(-9.571578e-06 2.658692e-02 1.760356e-04)	(5.682852e-07 2.715581e-04 7.098129e-07)
5160          	(-6.558176e-06 2.685925e-02 1.783128e-04)	(-7.249651e-06 2.658709e-02 1.776887e-04)	(6.914750e-07 2.721545e-04 6.240355e-07)
5161          	(5.604737e-06 2.691912e-02 1.797350e-04)	(4.792752e-06 2.664620e-02 1.791698e-04)	(8.119856e-07 2.729189e-04 5.652356e-07)
5162          	(1.095995e-05 2.691011e-02 1.827863e-04)	(1.001180e-05 2.663649e-02 1.822437e-04)	(9.481493e-07 2.736165e-04 5.426481e-07)
5163          	(1.746129e-05 2.689932e-02 1.857854e-04)	(1.634809e-05 2.662511e-02 1.852200e-04)	(1.113204e-06 2.742067e-04 5.653967e-07)
5164          	(2.495029e-05 2.688483e-02 1.890666e-04)	(2.365114e-05 2.661009e-02 1.884101e-04)	(1.299146e-06 2.747336e-04 6.564748e-07)
5165          	(3.277967e-05 2.686714e-02 1.925225e-04)	(3.133049e-05 2.659196e-02 1.916706e-04)	(1.449174e-06 2.751785e-04 8.519455e-07)
5166          	(4.715458e-05 2.676880e-02 2.071178e-04)	(4.558308e-05 2.649352e-02 2.059960e-04)	(1.571502e-06 2.752812e-04 1.121813e-06)
5167          	(5.280366e-05 2.675115e-02 2.080874e-04)	(5.109432e-05 2.647575e-02 2.067347e-04)	(1.709337e-06 2.753958e-04 1.352669e-06)
5168          	(5.621179e-05 2.672961e-02 2.069759e-04)	(5.433669e-05 2.645411e-02 2.054258e-04)	(1.875093e-06 2.754991e-04 1.550106e-06)
5169          	(5.662171e-05 2.670339e-02 2.030963e-04)	(5.461574e-05 2.642785e-02 2.013343e-04)	(2.005969e-06 2.755381e-04 1.761941e-06)
5170          	(5.499475e-05 2.667430e-02 1.992543e-04)	(5.292862e-05 2.639880e-02 1.972480e-04)	(2.066135e-06 2.754996e-04 2.006299e-06)
5171          	(5.305806e-05 2.664429e-02 1.989629e-04)	(5.096079e-05 2.636891e-02 1.967410e-04)	(2.097266e-06 2.753849e-04 2.221968e-06)
5172          	(5.174476e-05 2.661315e-02 1.988816e-04)	(4.960491e-05 2.633795e-02 1.965182e-04)	(2.139851e-06 2.751983e-04 2.363433e-06)
5173          	(5.160956e-05 2.658342e-02 2.001667e-04)	(4.940919e-05 2.630846e-02 1.977302e-04)	(2.200373e-06 2.749558e-04 2.436439e-06)
5174          	(5.243695e-05 2.655556e-02 1.996482e-04)	(5.017385e-05 2.628088e-02 1.971947e-04)	(2.263098e-06 2.746766e-04 2.453538e-06)
5175          	(5.369333e-05 2.653060e-02 1.964614e-04)	(5.136963e-05 2.625622e-02 1.940444e-04)	(2.323695e-06 2.743822e-04 2.416992e-06)
5176          	(5.483380e-05 2.650895e-02 1.901717e-04)	(5.244374e-05 2.623486e-02 1.878391e-04)	(2.390061e-06 2.740942e-04 2.332665e-06)
5177          	(5.536275e-05 2.649030e-02 1.811386e-04)	(5.290652e-05 2.621647e-02 1.789286e-04)	(2.456238e-06 2.738304e-04 2.210000e-06)
5178          	(5.496076e-05 2.647384e-02 1.701063e-04)	(5.245136e-05 2.620024e-02 1.680451e-04)	(2.509406e-06 2.736014e-04 2.061258e-06)
5179          	(5.364731e-05 2.645860e-02 1.580247e-04)	(5.110731e-05 2.618519e-02 1.561300e-04)	(2.540006e-06 2.734090e-04 1.894761e-06)
5180          	(5.156261e-05 2.644360e-02 1.460329e-04)	(4.902209e-05 2.617035e-02 1.443038e-04)	(2.540519e-06 2.732478e-04 1.729029e-06)
5181          	(4.876544e-05 2.642626e-02 1.354965e-04)	(4.625265e-05 2.615315e-02 1.339144e-04)	(2.512794e-06 2.731034e-04 1.582082e-06)
5182          	(4.549494e-05 2.640768e-02 1.271114e-04)	(4.303058e-05 2.613471e-02 1.256476e-04)	(2.464354e-06 2.729661e-04 1.463841e-06)
5183          	(4.226375e-05 2.638717e-02 1.215251e-04)	(3.985940e-05 2.611435e-02 1.201452e-04)	(2.404349e-06 2.728247e-04 1.379895e-06)
5184          	(3.964785e-05 2.636494e-02 1.187429e-04)	(3.730961e-05 2.609227e-02 1.174120e-04)	(2.338240e-06 2.726688e-04 1.330860e-06)
5185          	(3.838267e-05 2.633933e-02 1.192970e-04)	(3.611103e-05 2.606684e-02 1.179813e-04)	(2.271639e-06 2.724829e-04 1.315711e-06)
5186          	(3.907424e-05 2.631030e-02 1.229070e-04)	(3.686115e-05 2.603805e-02 1.215726e-04)	(2.213091e-06 2.722541e-04 1.334438e-06)
5187          	(4.223209e-05 2.627810e-02 1.290305e-04)	(4.006149e-05 2.600612e-02 1.276479e-04)	(2.170604e-06 2.719735e-04 1.382645e-06)
5188          	(4.805753e-05 2.624217e-02 1.371064e-04)	(4.590633e-05 2.597054e-02 1.356457e-04)	(2.151195e-06 2.716335e-04 1.460760e-06)
5189          	(5.642847e-05 2.620250e-02 1.461151e-04)	(5.426265e-05 2.593128e-02 1.445668e-04)	(2.165816e-06 2.712280e-04 1.548382e-06)
5190          	(6.703316e-05 2.615921e-02 1.553804e-04)	(6.480907e-05 2.588845e-02 1.537421e-04)	(2.224089e-06 2.707546e-04 1.638312e-06)
5191          	(7.947328e-05 2.611277e-02 1.641239e-04)	(7.713565e-05 2.584256e-02 1.624035e-04)	(2.337633e-06 2.702181e-04 1.720407e-06)
5192          	(9.183358e-05 2.600970e-02 1.679463e-04)	(8.937133e-05 2.574025e-02 1.661163e-04)	(2.462255e-06 2.694585e-04 1.830027e-06)
5193          	(1.078017e-04 2.597180e-02 1.730155e-04)	(1.052319e-04 2.570308e-02 1.710304e-04)	(2.569847e-06 2.687186e-04 1.985126e-06)
5194          	(1.243061e-04 2.593465e-02 1.767571e-04)	(1.216447e-04 2.566663e-02 1.746089e-04)	(2.661447e-06 2.680293e-04 2.148190e-06)
5195          	(1.402792e-04 2.589294e-02 1.791660e-04)	(1.375039e-04 2.562561e-02 1.768906e-04)	(2.775385e-06 2.673278e-04 2.275368e-06)
5196          	(1.554351e-04 2.584923e-02 1.796508e-04)	(1.525086e-04 2.558262e-02 1.772958e-04)	(2.926537e-06 2.666092e-04 2.354968e-06)
5197          	(1.691326e-04 2.579734e-02 1.779911e-04)	(1.660510e-04 2.553149e-02 1.755741e-04)	(3.081608e-06 2.658580e-04 2.416972e-06)
5198          	(1.818061e-04 2.574692e-02 1.745214e-04)	(1.785910e-04 2.548183e-02 1.720545e-04)	(3.215141e-06 2.650893e-04 2.466905e-06)
5199          	(1.939007e-04 2.570567e-02 1.690560e-04)	(1.905632e-04 2.544133e-02 1.665703e-04)	(3.337458e-06 2.643382e-04 2.485661e-06)
5200          	(2.050577e-04 2.566577e-02 1.625501e-04)	(2.015921e-04 2.540216e-02 1.600972e-04)	(3.465648e-06 2.636034e-04 2.452957e-06)
5201          	(2.154397e-04 2.562954e-02 1.553616e-04)	(2.118373e-04 2.536666e-02 1.529815e-04)	(3.602370e-06 2.628842e-04 2.380020e-06)
5202          	(2.248149e-04 2.559433e-02 1.489504e-04)	(2.210769e-04 2.533215e-02 1.466604e-04)	(3.738012e-06 2.621804e-04 2.289993e-06)
5203          	(2.326489e-04 2.554788e-02 1.477339e-04)	(2.287832e-04 2.528642e-02 1.455232e-04)	(3.865779e-06 2.614569e-04 2.210716e-06)
5204          	(2.388704e-04 2.551762e-02 1.433794e-04)	(2.348888e-04 2.525686e-02 1.412408e-04)	(3.981606e-06 2.607618e-04 2.138590e-06)
5205          	(2.427911e-04 2.548916e-02 1.404165e-04)	(2.387095e-04 2.522906e-02 1.383419e-04)	(4.081647e-06 2.601029e-04 2.074602e-06)
5206          	(2.439766e-04 2.546203e-02 1.385684e-04)	(2.398143e-04 2.520256e-02 1.365494e-04)	(4.162256e-06 2.594662e-04 2.018983e-06)
5207          	(2.423062e-04 2.543589e-02 1.374984e-04)	(2.380883e-04 2.517704e-02 1.355303e-04)	(4.217906e-06 2.588484e-04 1.968099e-06)
5208          	(2.381365e-04 2.540143e-02 1.403765e-04)	(2.338871e-04 2.514320e-02 1.384451e-04)	(4.249432e-06 2.582238e-04 1.931420e-06)
5209          	(2.317292e-04 2.537923e-02 1.390904e-04)	(2.274765e-04 2.512161e-02 1.371890e-04)	(4.252730e-06 2.576267e-04 1.901414e-06)
5210          	(2.242964e-04 2.536677e-02 1.363790e-04)	(2.200701e-04 2.510968e-02 1.345041e-04)	(4.226271e-06 2.570892e-04 1.874843e-06)
5211          	(2.154161e-04 2.534757e-02 1.327335e-04)	(2.112465e-04 2.509100e-02 1.308789e-04)	(4.169658e-06 2.565706e-04 1.854621e-06)
5212          	(2.060887e-04 2.532906e-02 1.272370e-04)	(2.020016e-04 2.507300e-02 1.254056e-04)	(4.087124e-06 2.560647e-04 1.831479e-06)