# Probe 0 (-1 0.395 0)
# Probe 1 (1 0.395 0)
#       Probe             0             1
#        Time
   0.00059988       897.231       897.788
   0.00131991       892.433       892.433
   0.00218382       902.978       903.702
   0.00322105       903.385       903.996
   0.00446547       904.054       904.476
   0.00595802       905.135       905.443
   0.00774909       906.433       906.603
   0.00989682       907.782        907.83
    0.0124752       909.145       909.042
    0.0155709       910.483       910.189
    0.0192857       911.661       911.173
    0.0237435       912.531       911.878
    0.0290783       912.932       912.189
    0.0354659       912.739       912.003
    0.0431209       911.902       911.164
    0.0523217       910.416       909.681
    0.0633412       908.574       907.814
    0.0765336       906.556       905.646
    0.0909627       904.624       903.353
     0.101063       903.183        901.75
      0.10294       902.969       902.107
     0.104297       902.224       900.563
     0.105841         902.1         900.6
     0.107605        901.99       900.547
     0.109675       901.865       900.413
     0.112162       901.657       900.166
     0.115142       901.317        899.83
      0.11871        900.84       899.334
     0.122988       900.215       898.707
     0.128117       899.417       897.899
     0.134257       898.415       896.844
     0.135988       898.486       896.889
     0.137895       897.891       896.284
     0.140024       897.516       895.892
       0.1424       897.088       895.482
     0.145211        896.56       894.964
      0.14859       895.935       894.333
     0.152569       895.214       893.585
     0.157329       894.333       892.678
     0.163023       893.304       891.639
     0.169828        892.08       890.426
     0.177967       890.636       889.053
     0.187753       889.073       887.467
     0.199356        887.43       885.765
      0.21227       885.921       884.172
      0.21912        885.97       884.089
     0.226929       884.823       882.906
     0.235714       884.212       882.253
     0.241504       884.045       882.193
     0.247429       883.128       881.506
     0.254089        882.92       881.279
     0.261779       882.595       881.022
     0.269803       882.434       880.851
     0.274805       882.486       881.009
     0.280515       882.469       880.868
     0.286997       882.523       880.924
     0.294199        882.59       881.007
     0.302406       882.713       881.125
     0.310244       882.871       881.265
     0.318975       882.938       881.468
     0.328845       883.008       881.788
     0.337914       883.152       882.135
     0.343989       883.319        882.43
     0.349322        883.32       882.789
     0.355347       883.414       883.133
     0.362279       883.587       883.481
      0.36734       883.973       883.824
     0.371486       884.216       884.075
     0.373321       884.548       884.424
     0.375506       884.189       884.294
     0.378046       884.179       884.308
     0.381021       884.222       884.364
      0.38452       884.295       884.468
     0.388644        884.44       884.618
     0.393486       884.565       884.784
     0.399092        884.81       884.949
     0.405399       885.056       885.131
     0.412676       885.277       885.282
     0.421408       885.503       885.417
     0.431232       885.759       885.493
     0.442693       886.092       885.693
      0.44571       886.098       885.433
     0.449103       886.549       886.014
     0.453018       886.673       886.023
     0.457289       886.861       886.128
     0.462628       887.072       886.167
     0.468857       887.355       886.223
     0.476642       887.744       886.289
     0.484428       888.221       886.252
     0.492214       888.774       886.223
          0.5       889.427       886.162
     0.507937       890.195       886.083
     0.513794       891.049       886.009
     0.519448       891.744       885.926
     0.526031       892.584       885.792
     0.533676       893.659       885.635
     0.542154       894.994       885.486
     0.547541       896.331       885.417
     0.553417       897.492       885.288
     0.560183       899.043       885.158
     0.567766       901.161        885.03
     0.576241       903.784        884.92
     0.581409       906.168       884.959
     0.587305       908.378       884.905
     0.594183       911.311       884.905
     0.602299       915.296       884.895
     0.611548       920.523       884.936
     0.622339       927.747       885.079
     0.634927       937.888       885.338
     0.648968       951.872       885.808
     0.664924       971.402       886.525
     0.681678        996.74       887.457
     0.686812       1011.09       888.007
     0.689795       1018.17       888.382
     0.693204        1023.1       888.484
     0.697088       1029.25        888.67
     0.701677       1037.28       888.942
     0.707202       1048.45       889.306
     0.713567       1062.41        889.76
     0.720911       1080.24         890.3
     0.729633       1102.79       890.952
     0.739646       1129.18       891.722
     0.750966       1159.41       892.603
     0.764073       1193.12       893.593
     0.769971       1205.62       894.019
     0.774482       1215.96       894.347
     0.779726       1229.12       894.689
      0.78568       1244.29       895.063
     0.792824       1261.58       895.493
     0.801456        1279.1       895.992
     0.811906       1294.18       896.558
     0.819743       1303.17       896.864
     0.823498       1305.73       896.869
     0.825551       1306.71       896.912
     0.827846       1307.22       897.147
     0.830495       1307.25       897.282
     0.833693       1307.69       897.428
      0.83756       1309.64       897.572
     0.842202        1312.5       897.725
     0.847461       1316.34       897.858
     0.853563       1322.29       897.999
     0.860885       1329.57       898.153
      0.86958       1338.43        898.27
     0.879612        1347.7       898.346
     0.887638       1354.07       898.322
      0.89466        1358.8       898.282
     0.900857       1362.91       898.224
     0.907466       1366.51       898.158
      0.91325       1368.94       898.058
     0.919923        1371.6       897.952
     0.927203       1373.53       897.779
     0.935291       1375.65       897.575
     0.939913       1373.47       897.334
     0.942775       1372.53       897.154
     0.946141       1373.13       897.115
     0.949988       1373.53       897.008
     0.954534       1373.79       896.864
     0.959586       1373.62        896.68
      0.96326       1371.71        896.49
     0.967342       1371.57        896.36
     0.972008       1371.36       896.176
     0.977606       1371.42       895.943
     0.985071       1372.11       895.623
     0.992535       1371.14       895.271
            1       1370.46       894.924
      1.00847       1370.26       894.531
      1.01811       1370.45       894.075
      1.02932       1370.51       893.542
      1.03873       1369.29       893.113
      1.04946        1369.2       892.591
      1.06164       1369.06       891.983
      1.07534       1368.46       891.302
      1.08998       1367.54       890.579
       1.1024       1365.91       889.962
      1.11105       1363.95       889.532
      1.12102       1363.39       889.047
       1.1325       1363.19       888.489
      1.14518        1363.2       887.866
      1.15785       1363.16        887.24
      1.17101       1363.44       886.599
      1.18235       1363.47       886.049
      1.19029       1362.95       885.646
       1.1989       1363.61       885.189
      1.20643       1363.93       884.828
      1.21506       1364.94       884.411
      1.22524       1366.24       883.931
      1.23623       1367.27        883.43
      1.24879       1368.38       882.878
      1.26274       1369.26       882.302
      1.27856       1369.86        881.72
      1.29701        1370.1       881.156
      1.31393       1369.75       880.811
      1.32427       1369.14       880.822
      1.33078       1368.73       880.906
       1.3343       1368.43       881.022
      1.33582       1368.27       881.226
      1.33655       1368.34       881.466
      1.33685       1368.58       882.122
      1.33712       1368.48       881.824
      1.33744       1368.33       881.432
      1.33782       1368.27       881.177
      1.33827       1368.23       881.019
      1.33882       1368.22       880.921
      1.33948        1368.2       880.857
      1.34026        1368.2        880.81
      1.34121       1368.19        880.78
      1.34234       1368.18        880.76
       1.3437       1368.21       880.751
      1.34533       1368.22       880.743
      1.34729       1368.23       880.752
      1.34964       1368.25       880.778
      1.35247       1368.24       880.815
       1.3559        1368.2        880.85
      1.36002       1368.12       880.919
      1.36502       1367.98        881.03
      1.37089       1367.78       881.163
      1.37768        1367.5       881.318
      1.38533       1367.21       881.524
      1.39297       1366.85       881.816
      1.40062       1366.53       882.148
      1.40772       1366.32       882.502
      1.41482       1366.17       882.882
      1.42191       1366.08       883.284
      1.42901       1366.05       883.715
      1.43547       1366.07       884.145
      1.44192       1366.13       884.581
      1.44837       1366.25       885.038
      1.45483       1366.41       885.511
      1.46128       1366.62       886.002
      1.46773       1366.87        886.51
      1.47419       1367.15       887.031
      1.48064       1367.47       887.562
      1.48709       1367.82       888.101
      1.49355        1368.2       888.644
          1.5        1368.6       889.192
      1.50595       1368.98       889.706
       1.5119       1369.36       890.212
      1.51779       1369.74       890.711
      1.52367       1370.11       891.207
      1.52948       1370.48       891.693
      1.53521       1370.83       892.167
      1.54095       1371.17       892.634
      1.54662       1371.49       893.088
      1.55229       1371.79       893.532
      1.55788       1372.06       893.962
      1.56341       1372.29       894.375
      1.56894        1372.5       894.776
      1.57439       1372.68       895.162
      1.57985       1372.83       895.536
      1.58523       1372.93       895.892
      1.59055       1373.01       896.228
      1.59587       1373.05       896.551
      1.60112       1373.05       896.846
      1.60637       1373.01       897.116
      1.61162       1372.93       897.365
      1.61679       1372.83       897.586
      1.62197       1372.74       897.799
      1.62708       1372.65       897.991
      1.63219       1372.54       898.173
      1.63723       1372.34       898.336
      1.64227       1372.11       898.508
       1.6473       1371.84       898.687
      1.65227       1371.54       898.844
      1.65724       1371.21       898.994
      1.66221       1370.88       899.124
      1.66717       1370.52       899.238
      1.67214       1370.16       899.347
      1.67704       1369.77       899.428
      1.68193       1369.37       899.526
      1.68682       1368.94       899.617
      1.69172       1368.51       899.672
      1.69669       1368.06       899.733
      1.70166        1367.6       899.778
      1.70663       1367.12       899.797
      1.71161       1366.64       899.816
      1.71658       1366.16       899.806
      1.72155       1365.67       899.798
      1.72661       1365.16       899.779
      1.73168       1364.65       899.743
      1.73674       1364.15       899.702
       1.7418       1363.64       899.663
      1.74696       1363.13        899.61
      1.75213       1362.62       899.558
      1.75719       1362.13       899.499
      1.76225       1361.64       899.442
       1.7673       1361.15       899.385
      1.77236       1360.66        899.33
      1.77742       1360.18       899.276
      1.78248       1359.71       899.224
      1.78754       1359.25       899.177
       1.7926       1358.79       899.132
      1.79766       1358.34       899.094
      1.80284       1357.87       899.062
      1.80803       1357.42       899.039
      1.81322       1356.96       899.027
      1.81841       1356.51       899.035
      1.82375       1356.05       899.063
      1.82909       1355.59       899.112
      1.83443       1355.13       899.193
      1.83977       1354.67       899.306
      1.84511       1354.23       899.445
      1.85045       1353.78       899.617
       1.8558       1353.33       899.839
      1.86114       1352.88       900.084
      1.86648       1352.44       900.312
      1.87182       1351.99       900.569
      1.87716       1351.55       900.848
       1.8825       1351.12        901.15
      1.88784       1350.67        901.51
      1.89318       1350.24        901.93
      1.89852       1349.81       902.417
      1.90416       1349.36       902.965
       1.9098        1348.9       903.593
      1.91544       1348.46        904.28
      1.92107       1348.03       905.032
      1.92671       1347.62       905.853
      1.93235       1347.21       906.743
      1.93799       1346.83       907.714
      1.94362       1346.46       908.756
      1.94926        1346.1       909.892
       1.9549       1345.78       911.113
      1.96054       1345.46       912.425
      1.96617       1345.17       913.836
      1.97181        1344.9       915.351
      1.97745       1344.63       916.975
      1.98309        1344.4       918.714
      1.98872       1344.19       920.578
      1.99436       1344.01        922.57
            2       1343.83         924.7
      2.00612       1343.66       927.087
      2.01227       1343.51       929.744
      2.01846       1343.39       932.611
      2.02469       1343.26       935.715
      2.03096       1343.16        939.05
      2.03728       1343.07       942.667
      2.04363          1343       946.578
      2.05002       1342.92       950.789
      2.05646       1342.88        955.32
      2.06293       1342.83       960.213
      2.06948       1342.76       965.515
      2.07607       1342.76       971.235
       2.0827       1342.73        977.39
      2.08938        1342.7       984.028
      2.09609       1342.69       991.097
      2.10284       1342.69       998.616
      2.10964       1342.63       1006.55
      2.11649       1342.61       1014.92
      2.12339       1342.58       1023.77
      2.13034       1342.53       1033.16
      2.13734       1342.48       1043.18
      2.14437       1342.42        1053.8
      2.15142       1342.36       1064.93
      2.15851        1342.3       1076.55
      2.16562       1342.25       1088.64
      2.17275       1342.18       1101.21
      2.17989        1342.1       1114.29
      2.18706       1342.02        1127.8
      2.19425       1341.93       1141.72
      2.20147       1341.84       1156.06
       2.2087       1341.74        1170.7
      2.21595       1341.61       1185.58
      2.22323       1341.52       1200.63
      2.23054       1341.38       1215.81
      2.23786       1341.26          1231
       2.2452       1341.14       1246.11
      2.25257       1341.02       1261.19
      2.25994        1340.9       1276.16
      2.26735       1340.78       1290.94
      2.27475       1340.66       1305.23
      2.28216       1340.54       1319.58
      2.28959       1340.42       1333.41
      2.29703       1340.31       1346.83
       2.3045       1340.18       1359.82
      2.31197       1340.07       1372.24
      2.31944       1339.97       1384.09
      2.32694       1339.86       1395.31
      2.33444       1339.77       1405.92
      2.34195       1339.67       1415.83
      2.34945       1339.58       1425.14
      2.35698       1339.49       1433.83
      2.36452       1339.41       1441.95
      2.37206       1339.33        1449.5
       2.3796       1339.25       1456.41
      2.38713       1339.17       1462.72
       2.3947        1339.1        1468.3
      2.40228       1339.02       1473.16
      2.40985       1338.94       1477.24
      2.41742       1338.87       1480.52
      2.42499       1338.78       1482.98
      2.43256        1338.7       1484.58
      2.44014       1338.61       1485.36
      2.44771       1338.53       1485.38
      2.45528       1338.45       1484.68
      2.46285       1338.37       1483.08
      2.47039       1338.29       1480.93
      2.47792       1338.21        1478.2
      2.48546       1338.14       1474.96
      2.49296       1338.07       1471.37
      2.50038       1338.01       1467.42
      2.50777       1337.95        1463.2
      2.51512       1337.91       1458.77
       2.5224       1337.88       1454.16
      2.52964       1337.88       1449.47
      2.53681       1337.86       1444.66
      2.54395       1337.87       1439.83
      2.55102       1337.93       1435.02
      2.55805       1337.95       1430.22
      2.56458       1337.98       1425.72
      2.57138       1338.08       1421.15
      2.57822       1338.17        1416.6
      2.58502       1338.29       1412.13
      2.59176       1338.44        1407.8
      2.59788       1338.59       1403.74
      2.60443       1338.77       1399.74
      2.61098       1338.99       1395.79
      2.61735       1339.19       1391.98
      2.62361       1339.41       1388.26
      2.62949       1339.62       1384.87
      2.63569       1339.84       1381.61
      2.64195       1340.08       1378.32
      2.64815        1340.3        1375.2
      2.65414       1340.47       1372.33
      2.66017       1340.59       1369.63
      2.66595       1340.82       1367.05
      2.67162       1340.96        1364.7
      2.67737       1341.14       1362.45
      2.68303       1341.25       1360.31
      2.68842       1341.34       1358.35
      2.69389       1341.46       1356.44
      2.69938       1341.49        1354.6
      2.70458       1341.57       1352.89
       2.7098       1341.61       1351.24
       2.7149       1341.65       1349.66
      2.72002       1341.68       1348.14
      2.72502       1341.69       1346.67
      2.73002       1341.69       1345.23
      2.73496       1341.72       1343.85
      2.73988       1341.73       1342.52
      2.74477       1341.75       1341.24
       2.7496       1341.76       1339.99
      2.75437       1341.78        1338.8
      2.75911       1341.81       1337.66
      2.76381       1341.82        1336.6
      2.76847       1341.86       1335.57
      2.77312       1341.89       1334.58
      2.77775       1341.94       1333.69
      2.78236       1341.98       1332.83
      2.78697       1342.04       1332.02
      2.79157       1342.09       1331.29
      2.79616       1342.16       1330.61
      2.80076       1342.23       1330.01
      2.80535       1342.31       1329.47
      2.80995       1342.41       1328.96
      2.81454       1342.54       1328.58
      2.81914       1342.64       1328.28
      2.82373       1342.71       1328.05
      2.82831       1342.84       1327.84
      2.83288       1342.97       1327.75
      2.83746       1343.11       1327.77
      2.84204       1343.26       1327.88
      2.84662       1343.43       1327.97
      2.85119       1343.61       1328.15
      2.85575       1343.72        1328.5
      2.86031       1343.89       1328.91
      2.86487       1344.07       1329.37
      2.86943       1344.26        1329.8
      2.87397       1344.46       1330.38
      2.87851       1344.66       1331.07
      2.88305       1344.88       1331.83
      2.88757       1345.09       1332.54
      2.89209       1345.32       1333.27
      2.89661       1345.56       1334.17
      2.90114        1345.8       1335.09
      2.90566       1346.05       1336.04
      2.91016       1346.31       1337.05
      2.91467       1346.58       1338.01
      2.91917       1346.85       1339.07
      2.92365       1347.13       1340.15
      2.92812       1347.41       1341.22
      2.93257       1347.71       1342.33
      2.93696       1348.01       1343.42
      2.94141       1348.32       1344.55
      2.94584       1348.63       1345.71
      2.95025       1348.96       1346.82
      2.95464       1349.29       1347.98
      2.95896       1349.62       1349.15
      2.96321       1349.96       1350.26
      2.96746        1350.3       1351.39
      2.97166       1350.65       1352.51
      2.97584          1351       1353.62
      2.97997       1351.36       1354.75
      2.98413       1351.72       1355.85
      2.98792       1352.07       1356.87
      2.99198       1352.43       1357.94
      2.99605        1352.8          1359
      3.00005       1353.18       1360.03
      3.00402       1353.56       1361.07
      3.00795       1353.94       1362.07
      3.01187       1354.32       1363.05
      3.01577       1354.71       1364.03
      3.01964        1355.1       1364.99
      3.02348       1355.49       1365.92
      3.02731       1355.88       1366.83
       3.0311       1356.28       1367.72
      3.03484       1356.67       1368.59
      3.03857       1357.07       1369.43
      3.04229       1357.47       1370.25
      3.04599       1357.88       1371.06
      3.04969       1358.28       1371.83
      3.05337        1358.7       1372.59
      3.05705       1359.11       1373.32
      3.06072       1359.53       1374.03
      3.06436       1359.94       1374.72
      3.06799       1360.36       1375.38
      3.07162       1360.79       1376.02
      3.07524       1361.22       1376.64
      3.07887       1361.65       1377.24
       3.0825       1362.08       1377.81
      3.08611       1362.52       1378.37
      3.08972       1362.96        1378.9
      3.09335       1363.41       1379.41
      3.09697       1363.86        1379.9
       3.1006       1364.32       1380.37
      3.10423       1364.78       1380.81
      3.10787       1365.24       1381.23
      3.11153       1365.71       1381.64
      3.11518       1366.18       1382.01
      3.11885       1366.66       1382.37
      3.12254       1367.15       1382.71
      3.12624       1367.64       1383.02
      3.12996       1368.14       1383.32
      3.13369       1368.65       1383.59
      3.13743       1369.15       1383.84
      3.14118       1369.67       1384.06
      3.14491       1370.18       1384.27
      3.14863        1370.7       1384.45
      3.15232       1371.21       1384.61
      3.15599       1371.72       1384.73
      3.15964       1372.24       1384.84
      3.16328       1372.76       1384.94
       3.1669       1373.27       1385.01
      3.17052       1373.79       1385.05
      3.17413       1374.31       1385.07
      3.17773       1374.83       1385.08
      3.18134       1375.36       1385.07
      3.18495       1375.88       1385.03
      3.18855       1376.41       1384.98
      3.19218       1376.94       1384.91
       3.1958       1377.47       1384.83
      3.19942       1378.01       1384.72
      3.20304       1378.54       1384.59
      3.20668       1379.08       1384.47
      3.21032       1379.63        1384.3
      3.21396       1380.17       1384.13
       3.2176       1380.71       1383.94
      3.22124       1381.26       1383.73
      3.22488        1381.8       1383.51
      3.22852       1382.35       1383.25
      3.23216       1382.89       1382.99
      3.23578       1383.44       1382.74
       3.2394       1383.99       1382.45
      3.24302       1384.53       1382.12
      3.24663       1385.08       1381.83
      3.25021       1385.62       1381.54
      3.25377       1386.15        1381.2
       3.2573       1386.69       1380.86
      3.26081       1387.22       1380.52
      3.26429       1387.75       1380.13
      3.26777       1388.27       1379.75
       3.2712        1388.8       1379.39
      3.27462       1389.31          1379
      3.27801       1389.83       1378.61
      3.28139       1390.34        1378.2
      3.28475       1390.85        1377.8
      3.28807       1391.35       1377.38
      3.29138       1391.85       1376.97
      3.29468       1392.35       1376.53
      3.29796       1392.85       1376.09
      3.30123       1393.35       1375.65
      3.30448       1393.84        1375.2
      3.30771       1394.33       1374.75
      3.31093       1394.82        1374.3
      3.31414        1395.3       1373.85
      3.31734       1395.79       1373.39
      3.32053       1396.27       1372.93
      3.32372       1396.75       1372.46
       3.3269       1397.23       1371.98
      3.33007       1397.71       1371.51
      3.33325       1398.18       1371.04
      3.33642       1398.66       1370.56
       3.3396       1399.14       1370.08
      3.34277       1399.62        1369.6
      3.34595       1400.09       1369.11
      3.34912       1400.57       1368.63
       3.3523       1401.04       1368.14
      3.35549       1401.52       1367.65
      3.35868       1401.99       1367.16
      3.36187       1402.47       1366.67
      3.36507       1402.94       1366.17
      3.36828       1403.42       1365.68
      3.37149       1403.89       1365.19
      3.37471       1404.36       1364.69
      3.37793       1404.84       1364.19
      3.38117       1405.31        1363.7
      3.38441       1405.78        1363.2
      3.38765       1406.25       1362.71
      3.39091       1406.73       1362.22
      3.39417        1407.2       1361.73
      3.39744       1407.67       1361.24
      3.40072       1408.14       1360.76
      3.40399       1408.61       1360.28
      3.40729       1409.08       1359.79
      3.41058       1409.55       1359.31
      3.41387       1410.01       1358.84
      3.41718       1410.48       1358.37
      3.42049       1410.94        1357.9
      3.42381       1411.41       1357.43
      3.42714       1411.87       1356.98
      3.43047       1412.33       1356.51
       3.4338       1412.79       1356.07
      3.43715       1413.24       1355.62
       3.4405        1413.7       1355.18
      3.44385       1414.15       1354.74
       3.4472        1414.6       1354.31
      3.45055       1415.04        1353.9
       3.4539       1415.48       1353.47
      3.45725       1415.92       1353.06
       3.4606       1416.36       1352.65
      3.46395       1416.79       1352.25
      3.46728       1417.22       1351.86
      3.47061       1417.64       1351.47
      3.47394       1418.07        1351.1
      3.47727       1418.49       1350.72
       3.4806        1418.9       1350.36
      3.48391       1419.31       1349.98
      3.48721       1419.72       1349.62
      3.49052       1420.13       1349.28
      3.49383       1420.53       1348.94
      3.49714       1420.92       1348.59
      3.50045       1421.32       1348.27
      3.50373       1421.72       1347.95
      3.50702       1422.11       1347.61
      3.51031        1422.5       1347.26
      3.51359       1422.89       1346.98
      3.51688       1423.27       1346.68
      3.52017       1423.65       1346.37
      3.52343       1424.02       1346.08
      3.52669       1424.41       1345.79
      3.52996       1424.77       1345.49
      3.53322       1425.14       1345.19
      3.53649        1425.5       1344.92
      3.53975       1425.86       1344.64
      3.54302       1426.24       1344.37
      3.54626       1426.62        1344.1
       3.5495       1426.98       1343.84
      3.55274       1427.38       1343.57
      3.55598       1427.73        1343.3
      3.55922       1428.08       1343.05
      3.56246       1428.44        1342.8
       3.5657       1428.78       1342.54
      3.56894       1429.14        1342.3
      3.57216       1429.48       1342.05
      3.57538       1429.83       1341.81
      3.57859       1430.17       1341.57
      3.58181       1430.52       1341.34
      3.58503       1430.85       1341.09
      3.58824       1431.19       1340.87
      3.59146       1431.53       1340.64
      3.59468       1431.87        1340.4
       3.5979       1432.21       1340.18
      3.60111       1432.54       1339.97
      3.60433       1432.86       1339.75
      3.60752       1433.18       1339.53
      3.61071       1433.51       1339.32
       3.6139       1433.84       1339.11
      3.61709       1434.16        1338.9
      3.62028       1434.46        1338.7
      3.62347       1434.76        1338.5
      3.62667       1435.05       1338.31
      3.62986       1435.36       1338.12
      3.63305       1435.67       1337.93
      3.63624       1435.98       1337.75
      3.63943       1436.28       1337.58
      3.64262       1436.57       1337.41
      3.64581       1436.86       1337.24
        3.649       1437.15       1337.08
      3.65219       1437.45       1336.93
      3.65538       1437.73       1336.78
      3.65857       1438.01       1336.64
      3.66177       1438.28        1336.5
      3.66496       1438.55       1336.37
      3.66815       1438.82       1336.26
      3.67134       1439.09       1336.14
       3.6745       1439.35       1336.04
      3.67766       1439.61       1335.94
      3.68082       1439.88       1335.85
      3.68398       1440.14       1335.77
      3.68714       1440.38        1335.7
       3.6903       1440.63       1335.64
      3.69346       1440.89       1335.59
      3.69662       1441.14       1335.55
      3.69978       1441.38       1335.51
      3.70294       1441.62        1335.5
       3.7061       1441.84       1335.48
      3.70926       1442.07       1335.48
      3.71242        1442.3       1335.48
      3.71558       1442.53       1335.49
      3.71874       1442.76       1335.53
       3.7219       1442.98       1335.57
      3.72506        1443.2       1335.62
      3.72822       1443.41       1335.68