# Solver information
# Time        	alpha.water_solver	alpha.water_initial	alpha.water_final	alpha.water_iters	alpha.water_converged	k_solver      	k_initial     	k_final       	k_iters       	k_converged   	p_rgh_solver  	p_rgh_initial 	p_rgh_final   	p_rgh_iters   	p_rgh_converged	omega_solver  	omega_initial 	omega_final   	omega_iters   	omega_converged
0.000600024   	smoothSolver	0.000000e+00	0.000000e+00	0	true	smoothSolver	1.000000e+00	1.092560e-02	1	true	GAMG	1.000000e+00	5.437190e-03	3	true	smoothSolver	1.471110e-03	1.127730e-04	1	true
0.00132009    	smoothSolver	4.114090e-04	1.794300e-10	4	true	smoothSolver	1.315980e-01	3.591290e-05	1	true	GAMG	1.802610e-03	1.335770e-05	8	true	smoothSolver	3.110880e-05	1.283030e-07	1	true
0.00218416    	smoothSolver	3.664430e-04	8.519790e-10	4	true	smoothSolver	6.054780e-02	3.178910e-05	1	true	GAMG	1.069600e-03	6.739710e-06	3	true	smoothSolver	4.164400e-05	3.646700e-07	1	true
0.00322139    	smoothSolver	6.286200e-04	5.795770e-09	4	true	smoothSolver	4.300110e-02	4.181620e-05	1	true	GAMG	1.011730e-03	9.546350e-06	5	true	smoothSolver	5.645410e-05	1.009410e-06	1	true
0.00446581    	smoothSolver	8.061230e-04	1.187870e-09	5	true	smoothSolver	3.572500e-02	5.787270e-05	1	true	GAMG	1.595990e-03	1.004920e-05	4	true	smoothSolver	7.861010e-05	2.661060e-06	1	true
0.00592983    	smoothSolver	1.020640e-03	4.867460e-10	6	true	smoothSolver	3.156430e-02	8.249950e-05	1	true	GAMG	1.385700e-03	1.336330e-05	3	true	smoothSolver	1.105450e-04	6.331490e-06	1	true
0.00767076    	smoothSolver	1.472030e-03	3.136460e-09	6	true	smoothSolver	3.017490e-02	1.289390e-04	1	true	GAMG	1.720660e-03	1.156810e-05	3	true	smoothSolver	1.648260e-04	1.418880e-05	1	true
0.00973811    	smoothSolver	1.708320e-03	8.343220e-10	7	true	smoothSolver	3.033880e-02	2.144440e-04	1	true	GAMG	1.152600e-03	4.927820e-06	4	true	smoothSolver	2.547100e-04	6.464260e-06	2	true
0.0122076     	smoothSolver	2.040260e-03	3.761780e-09	7	true	smoothSolver	3.139940e-02	3.545640e-04	1	true	GAMG	1.294490e-03	1.000230e-05	3	true	smoothSolver	4.127490e-04	1.420020e-05	2	true
0.0151739     	smoothSolver	2.555020e-03	9.379430e-09	7	true	smoothSolver	3.342370e-02	5.989750e-04	1	true	GAMG	1.468120e-03	1.127000e-05	3	true	smoothSolver	6.479200e-04	2.816070e-05	2	true
0.0187293     	smoothSolver	2.996770e-03	2.490810e-09	8	true	smoothSolver	3.640720e-02	9.816800e-04	1	true	GAMG	1.689660e-03	1.542090e-05	3	true	smoothSolver	1.012600e-03	5.326380e-05	2	true
0.0228009     	smoothSolver	3.197220e-03	7.811650e-09	8	true	smoothSolver	3.886650e-02	1.396210e-03	1	true	GAMG	1.690620e-03	9.002630e-06	4	true	smoothSolver	1.427010e-03	8.085960e-05	2	true
0.0274104     	smoothSolver	3.595380e-03	1.459260e-09	9	true	smoothSolver	4.212210e-02	1.866840e-03	1	true	GAMG	1.540780e-03	1.467200e-05	3	true	smoothSolver	1.813330e-03	1.069040e-04	2	true
0.0326114     	smoothSolver	3.947830e-03	4.382150e-09	9	true	smoothSolver	4.559970e-02	2.327210e-03	1	true	GAMG	1.606810e-03	1.146810e-05	3	true	smoothSolver	2.227380e-03	1.208060e-04	2	true
0.038439      	smoothSolver	4.252530e-03	2.139930e-09	10	true	smoothSolver	4.926490e-02	2.881080e-03	1	true	GAMG	2.068880e-03	1.244100e-05	3	true	smoothSolver	2.603440e-03	1.288440e-04	2	true
0.044936      	smoothSolver	4.277490e-03	4.716030e-09	10	true	smoothSolver	5.411300e-02	3.889020e-03	1	true	GAMG	3.445290e-03	2.415580e-05	3	true	smoothSolver	3.138610e-03	1.808270e-04	2	true
0.0519073     	smoothSolver	4.387970e-03	4.248980e-09	10	true	smoothSolver	5.952780e-02	5.291790e-03	1	true	GAMG	4.494470e-03	2.149960e-05	3	true	smoothSolver	3.805260e-03	2.176160e-04	2	true
0.0593143     	smoothSolver	4.686120e-03	7.273670e-09	10	true	smoothSolver	6.640650e-02	1.821550e-03	2	true	GAMG	2.840140e-03	1.574920e-05	3	true	smoothSolver	4.314330e-03	2.637470e-04	2	true
0.0674237     	smoothSolver	4.815640e-03	5.715750e-09	11	true	smoothSolver	7.546550e-02	2.473680e-03	2	true	GAMG	2.463990e-03	1.289030e-05	3	true	smoothSolver	5.210530e-03	3.562730e-04	2	true
0.0764778     	smoothSolver	5.523490e-03	3.925620e-09	12	true	smoothSolver	8.758520e-02	3.614590e-03	2	true	GAMG	2.100090e-03	1.176920e-05	3	true	smoothSolver	6.358080e-03	4.608150e-04	2	true
0.0866264     	smoothSolver	6.705260e-03	3.901870e-09	13	true	smoothSolver	1.016840e-01	5.152300e-03	2	true	GAMG	2.290420e-03	1.378180e-05	3	true	smoothSolver	7.503330e-03	5.307080e-04	2	true
0.0931974     	smoothSolver	4.713780e-03	6.935000e-09	10	true	smoothSolver	7.290030e-02	2.201120e-03	2	true	GAMG	2.418200e-03	1.073370e-05	3	true	smoothSolver	5.075460e-03	2.314660e-04	2	true
0.100948      	smoothSolver	5.454130e-03	6.687240e-09	11	true	smoothSolver	9.147440e-02	3.532930e-03	2	true	GAMG	1.928390e-03	1.176680e-05	3	true	smoothSolver	6.204060e-03	3.555750e-04	2	true
0.110029      	smoothSolver	6.517750e-03	7.939040e-09	12	true	smoothSolver	1.122470e-01	5.699940e-03	2	true	GAMG	2.032060e-03	1.271980e-05	3	true	smoothSolver	7.568000e-03	4.943340e-04	2	true
0.120499      	smoothSolver	7.825050e-03	9.217550e-09	13	true	smoothSolver	1.358320e-01	9.095880e-03	2	true	GAMG	2.012760e-03	1.342730e-05	3	true	smoothSolver	9.414430e-03	7.054980e-04	2	true
0.132547      	smoothSolver	9.370410e-03	4.503180e-09	15	true	smoothSolver	1.667300e-01	1.437260e-02	2	true	GAMG	2.169040e-03	1.484090e-05	3	true	smoothSolver	1.192530e-02	9.971910e-04	2	true
0.146316      	smoothSolver	1.158330e-02	5.804130e-09	16	true	smoothSolver	2.033520e-01	1.062700e-02	3	true	GAMG	2.212230e-03	1.321660e-05	3	true	smoothSolver	1.486800e-02	1.475710e-03	2	true
0.161838      	smoothSolver	1.402750e-02	4.814970e-09	18	true	smoothSolver	2.342530e-01	1.486280e-02	3	true	GAMG	2.356650e-03	1.317630e-05	3	true	smoothSolver	1.846620e-02	9.257950e-04	3	true
0.178943      	smoothSolver	1.634430e-02	9.839950e-09	21	true	smoothSolver	2.680790e-01	1.882340e-02	3	true	GAMG	2.537940e-03	1.365800e-05	3	true	smoothSolver	2.261010e-02	1.210890e-03	3	true
0.196049      	smoothSolver	1.785040e-02	8.199550e-09	22	true	smoothSolver	2.753590e-01	1.995960e-02	3	true	GAMG	3.611530e-03	1.445080e-05	3	true	smoothSolver	2.562640e-02	1.390060e-03	3	true
0.20562       	smoothSolver	1.084190e-02	8.078810e-09	15	true	smoothSolver	1.810860e-01	1.609180e-02	2	true	GAMG	3.238200e-03	1.263540e-05	3	true	smoothSolver	1.656030e-02	1.244020e-03	2	true
0.215307      	smoothSolver	1.014840e-02	7.431030e-09	16	true	smoothSolver	1.948460e-01	1.931110e-02	2	true	GAMG	3.067190e-03	1.221940e-05	3	true	smoothSolver	1.958980e-02	1.670050e-03	2	true
0.226359      	smoothSolver	1.251230e-02	7.407060e-09	18	true	smoothSolver	2.316320e-01	1.416010e-02	3	true	GAMG	3.597920e-03	1.366160e-05	3	true	smoothSolver	2.639230e-02	1.349330e-03	3	true
0.236152      	smoothSolver	1.246890e-02	7.802740e-09	17	true	smoothSolver	2.337470e-01	1.549710e-02	3	true	GAMG	4.431440e-03	1.535350e-05	3	true	smoothSolver	2.865020e-02	1.546550e-03	3	true
0.247064      	smoothSolver	1.471070e-02	6.717910e-09	19	true	smoothSolver	2.883430e-01	2.594230e-02	3	true	GAMG	3.868240e-03	1.745420e-05	3	true	smoothSolver	4.079820e-02	2.769680e-03	3	true
0.258829      	smoothSolver	1.793830e-02	8.521100e-09	20	true	smoothSolver	3.343020e-01	1.883750e-02	4	true	GAMG	3.950320e-03	1.847500e-05	3	true	smoothSolver	5.577640e-02	4.456330e-03	3	true
0.270783      	smoothSolver	2.039940e-02	7.573260e-09	21	true	smoothSolver	3.587480e-01	2.085300e-02	4	true	GAMG	4.633920e-03	2.002140e-05	3	true	smoothSolver	7.166810e-02	6.423390e-03	3	true
0.280772      	smoothSolver	1.892800e-02	6.393480e-09	20	true	smoothSolver	3.475710e-01	3.270470e-02	3	true	GAMG	5.133920e-03	1.881530e-05	3	true	smoothSolver	7.792010e-02	6.025770e-03	3	true
0.290362      	smoothSolver	1.823040e-02	6.460810e-09	21	true	smoothSolver	3.531260e-01	3.275520e-02	3	true	GAMG	4.974110e-03	2.253680e-05	3	true	smoothSolver	9.231400e-02	6.838380e-03	3	true
0.299016      	smoothSolver	1.789060e-02	8.373170e-09	21	true	smoothSolver	3.386750e-01	2.944970e-02	3	true	GAMG	5.353980e-03	2.408290e-05	3	true	smoothSolver	1.005790e-01	6.847040e-03	3	true
0.306892      	smoothSolver	1.727840e-02	6.510410e-09	21	true	smoothSolver	3.357600e-01	2.698730e-02	3	true	GAMG	5.604400e-03	2.366670e-05	3	true	smoothSolver	1.106460e-01	6.626540e-03	3	true
0.314426      	smoothSolver	1.757150e-02	5.761730e-09	21	true	smoothSolver	3.389380e-01	2.668970e-02	3	true	GAMG	6.186770e-03	2.434440e-05	3	true	smoothSolver	1.194210e-01	6.852640e-03	3	true
0.322129      	smoothSolver	1.891050e-02	7.964760e-09	21	true	smoothSolver	3.460010e-01	2.867900e-02	3	true	GAMG	6.491670e-03	2.769640e-05	3	true	smoothSolver	1.305210e-01	8.042500e-03	3	true
0.329921      	smoothSolver	2.027180e-02	6.142250e-09	22	true	smoothSolver	3.415850e-01	2.912220e-02	3	true	GAMG	6.472710e-03	2.894690e-05	3	true	smoothSolver	1.355730e-01	8.252790e-03	3	true
0.337049      	smoothSolver	1.945290e-02	7.561860e-09	21	true	smoothSolver	3.270780e-01	2.678860e-02	3	true	GAMG	6.857050e-03	2.926170e-05	3	true	smoothSolver	1.302840e-01	6.726540e-03	3	true
0.343679      	smoothSolver	1.832820e-02	6.178600e-09	20	true	smoothSolver	3.077060e-01	2.566000e-02	3	true	GAMG	7.177880e-03	3.049680e-05	3	true	smoothSolver	1.201950e-01	5.871070e-03	3	true
0.350661      	smoothSolver	1.952910e-02	8.170760e-09	20	true	smoothSolver	3.034290e-01	2.798750e-02	3	true	GAMG	7.228870e-03	3.001880e-05	3	true	smoothSolver	1.210740e-01	7.038890e-03	3	true
0.357355      	smoothSolver	1.934100e-02	5.968320e-09	20	true	smoothSolver	2.877510e-01	2.654940e-02	3	true	GAMG	7.262470e-03	2.978290e-05	3	true	smoothSolver	1.153460e-01	6.870270e-03	3	true
0.363656      	smoothSolver	1.831320e-02	8.020010e-09	19	true	smoothSolver	2.729240e-01	2.392360e-02	3	true	GAMG	7.328060e-03	2.838130e-05	3	true	smoothSolver	1.082580e-01	6.439500e-03	3	true
0.369494      	smoothSolver	1.718650e-02	9.021450e-09	18	true	smoothSolver	2.543320e-01	2.190040e-02	3	true	GAMG	7.396230e-03	2.883340e-05	3	true	smoothSolver	1.009020e-01	6.593970e-03	3	true
0.375123      	smoothSolver	1.658170e-02	8.194550e-09	18	true	smoothSolver	2.416130e-01	2.128510e-02	3	true	GAMG	7.470630e-03	2.993010e-05	3	true	smoothSolver	9.860990e-02	6.934440e-03	3	true
0.380557      	smoothSolver	1.618040e-02	6.370160e-09	18	true	smoothSolver	2.280420e-01	2.231450e-02	3	true	GAMG	7.482820e-03	3.016110e-05	3	true	smoothSolver	9.643700e-02	7.349890e-03	3	true
0.385897      	smoothSolver	1.591960e-02	5.628330e-09	18	true	smoothSolver	2.228470e-01	1.289900e-02	4	true	GAMG	7.538820e-03	3.040150e-05	3	true	smoothSolver	9.656990e-02	7.621530e-03	3	true
0.39148       	smoothSolver	1.675020e-02	7.165320e-09	18	true	smoothSolver	2.234880e-01	1.468420e-02	4	true	GAMG	7.594420e-03	2.968780e-05	3	true	smoothSolver	1.003910e-01	8.137470e-03	3	true
0.397063      	smoothSolver	1.689810e-02	7.702130e-09	18	true	smoothSolver	2.133940e-01	1.441600e-02	4	true	GAMG	7.511340e-03	2.874980e-05	3	true	smoothSolver	9.569440e-02	7.535240e-03	3	true
0.402494      	smoothSolver	1.628450e-02	9.662820e-09	17	true	smoothSolver	1.958160e-01	1.283040e-02	4	true	GAMG	7.438230e-03	2.818520e-05	3	true	smoothSolver	8.710840e-02	6.666460e-03	3	true
0.408079      	smoothSolver	1.636780e-02	5.827640e-09	18	true	smoothSolver	1.843250e-01	1.274470e-02	4	true	GAMG	7.290580e-03	2.756420e-05	3	true	smoothSolver	8.019890e-02	6.457030e-03	3	true
0.413509      	smoothSolver	1.562900e-02	9.727160e-09	16	true	smoothSolver	1.668560e-01	1.247110e-02	4	true	GAMG	6.880710e-03	2.631890e-05	3	true	smoothSolver	7.130110e-02	6.200810e-03	3	true
0.419042      	smoothSolver	1.543290e-02	6.249780e-09	17	true	smoothSolver	1.564910e-01	1.318900e-02	4	true	GAMG	6.737360e-03	2.480310e-05	3	true	smoothSolver	6.514860e-02	6.393250e-03	3	true
0.424682      	smoothSolver	1.536040e-02	6.705890e-09	17	true	smoothSolver	1.462470e-01	1.345550e-02	4	true	GAMG	6.546730e-03	2.354570e-05	3	true	smoothSolver	5.954700e-02	4.192270e-03	4	true
0.430214      	smoothSolver	1.463450e-02	8.350230e-09	16	true	smoothSolver	1.343140e-01	1.307170e-02	4	true	GAMG	6.309420e-03	2.296830e-05	3	true	smoothSolver	5.236490e-02	3.859930e-03	4	true
0.435746      	smoothSolver	1.411670e-02	5.908230e-09	16	true	smoothSolver	1.262040e-01	9.612350e-03	5	true	GAMG	6.254210e-03	2.243140e-05	3	true	smoothSolver	4.785970e-02	3.823960e-03	4	true
0.441624      	smoothSolver	1.462520e-02	6.215260e-09	16	true	smoothSolver	1.268330e-01	1.155760e-02	5	true	GAMG	6.320900e-03	2.286530e-05	3	true	smoothSolver	4.623160e-02	4.308650e-03	4	true
0.446794      	smoothSolver	1.259960e-02	6.006990e-09	14	true	smoothSolver	1.260840e-01	1.246930e-02	5	true	GAMG	6.069230e-03	2.232920e-05	3	true	smoothSolver	4.210240e-02	3.095380e-03	5	true
0.450188      	smoothSolver	7.982230e-03	7.128220e-09	10	true	smoothSolver	1.212180e-01	9.757440e-03	5	true	GAMG	5.359220e-03	2.215320e-05	3	true	smoothSolver	3.451970e-02	3.066220e-03	4	true
0.452578      	smoothSolver	5.501730e-03	6.418980e-09	9	true	smoothSolver	1.620840e-01	9.547900e-03	5	true	GAMG	4.757260e-03	2.183170e-05	3	true	smoothSolver	3.571920e-02	2.708830e-03	4	true
0.45416       	smoothSolver	3.685130e-03	9.136980e-09	8	true	smoothSolver	1.890770e-01	1.667660e-02	4	true	GAMG	4.400410e-03	2.142170e-05	3	true	smoothSolver	3.622840e-02	3.276900e-03	3	true
0.455469      	smoothSolver	3.060330e-03	9.445050e-09	8	true	smoothSolver	2.131820e-01	1.940770e-02	3	true	GAMG	4.043600e-03	2.345950e-05	3	true	smoothSolver	3.818110e-02	2.059880e-03	3	true
0.456851      	smoothSolver	3.252330e-03	5.271970e-09	9	true	smoothSolver	2.278170e-01	2.071520e-02	3	true	GAMG	4.027660e-03	2.316070e-05	3	true	smoothSolver	3.929000e-02	2.497430e-03	3	true
0.458255      	smoothSolver	3.332880e-03	5.573250e-09	9	true	smoothSolver	2.299020e-01	1.220090e-02	4	true	GAMG	4.151190e-03	2.180820e-05	3	true	smoothSolver	3.893680e-02	2.695690e-03	3	true
0.459583      	smoothSolver	3.169080e-03	4.465910e-09	9	true	smoothSolver	2.110880e-01	1.332440e-02	5	true	GAMG	4.046010e-03	1.859020e-05	3	true	smoothSolver	4.062630e-02	2.925540e-03	4	true
0.460723      	smoothSolver	2.741580e-03	5.028860e-09	9	true	smoothSolver	2.143140e-01	1.754540e-02	5	true	GAMG	4.260030e-03	2.126510e-05	3	true	smoothSolver	4.665780e-02	3.658970e-03	5	true
0.461722      	smoothSolver	2.418460e-03	5.127010e-09	10	true	smoothSolver	2.771110e-01	2.033800e-02	5	true	GAMG	4.741250e-03	2.211290e-05	3	true	smoothSolver	6.229400e-02	4.698420e-03	5	true
0.462438      	smoothSolver	1.751710e-03	6.257890e-09	11	true	smoothSolver	2.781760e-01	2.175780e-02	4	true	GAMG	5.928600e-03	4.294370e-05	3	true	smoothSolver	7.779710e-02	4.960240e-03	4	true
0.463195      	smoothSolver	1.856010e-03	7.449610e-09	11	true	smoothSolver	2.993970e-01	2.590440e-02	4	true	GAMG	6.423090e-03	5.720070e-05	3	true	smoothSolver	8.505990e-02	6.513100e-03	3	true
0.463746      	smoothSolver	1.367170e-03	4.871820e-09	10	true	smoothSolver	2.706700e-01	2.141100e-02	3	true	GAMG	7.957460e-03	5.419420e-05	3	true	smoothSolver	7.679560e-02	4.416790e-03	3	true
0.464373      	smoothSolver	1.558830e-03	9.296530e-09	9	true	smoothSolver	2.431250e-01	1.572230e-02	5	true	GAMG	6.200960e-03	3.372960e-05	4	true	smoothSolver	6.939010e-02	6.926380e-03	2	true
0.465076      	smoothSolver	1.766610e-03	6.655460e-09	11	true	smoothSolver	2.996660e-01	2.274450e-02	3	true	GAMG	6.181800e-03	5.410110e-05	3	true	smoothSolver	8.658200e-02	7.205260e-03	2	true
0.465855      	smoothSolver	1.967730e-03	8.214580e-09	10	true	smoothSolver	2.520620e-01	1.946170e-02	3	true	GAMG	6.166000e-03	5.055810e-05	3	true	smoothSolver	8.186580e-02	3.859840e-03	3	true
0.466723      	smoothSolver	2.215820e-03	9.912180e-09	11	true	smoothSolver	3.624560e-01	2.987820e-02	4	true	GAMG	6.987130e-03	3.593620e-05	4	true	smoothSolver	1.642620e-01	1.225810e-02	7	true
0.467103      	smoothSolver	9.939370e-04	7.871850e-09	10	true	smoothSolver	3.648010e-01	3.028610e-02	3	true	GAMG	1.388240e-02	7.145490e-05	4	true	smoothSolver	1.578220e-01	8.925060e-03	4	true
0.467282      	smoothSolver	4.878350e-04	8.925740e-09	8	true	smoothSolver	3.448660e-01	2.969920e-02	2	true	GAMG	3.727730e-02	2.431510e-04	4	true	smoothSolver	1.559760e-01	1.074460e-02	2	true
0.46747       	smoothSolver	5.314220e-04	8.344990e-09	10	true	smoothSolver	4.045070e-01	1.855220e-02	3	true	GAMG	4.471330e-02	2.562900e-04	4	true	smoothSolver	1.675390e-01	1.355560e-02	2	true
0.467634      	smoothSolver	5.169960e-04	7.015190e-09	10	true	smoothSolver	3.587650e-01	3.290900e-02	2	true	GAMG	3.140030e-02	1.576910e-04	4	true	smoothSolver	1.374170e-01	6.695550e-03	3	true
0.467819      	smoothSolver	6.030620e-04	4.592030e-09	10	true	smoothSolver	3.534850e-01	1.918720e-02	3	true	GAMG	2.427470e-02	1.871010e-04	4	true	smoothSolver	1.130280e-01	7.863330e-03	3	true
0.468005      	smoothSolver	6.428840e-04	5.203130e-09	9	true	smoothSolver	3.069460e-01	2.924020e-02	4	true	GAMG	2.766930e-02	2.029290e-04	4	true	smoothSolver	9.881150e-02	9.518970e-03	3	true
0.46819       	smoothSolver	6.341420e-04	8.240080e-09	8	true	smoothSolver	2.554070e-01	2.299660e-02	5	true	GAMG	4.699720e-02	2.574890e-04	4	true	smoothSolver	1.037200e-01	7.177610e-03	5	true
0.468346      	smoothSolver	5.306730e-04	4.038260e-09	8	true	smoothSolver	2.555000e-01	2.496390e-02	5	true	GAMG	7.252670e-02	6.559720e-04	3	true	smoothSolver	9.758640e-02	7.018520e-03	5	true
0.468481      	smoothSolver	4.679640e-04	7.608800e-09	7	true	smoothSolver	4.050120e-01	2.891840e-02	5	true	GAMG	1.537830e-01	1.144270e-03	4	true	smoothSolver	1.964110e-01	1.849210e-02	6	true
0.46855       	smoothSolver	2.918980e-04	9.998250e-09	6	true	smoothSolver	2.816550e-01	1.953320e-02	4	true	GAMG	2.030840e-01	1.213540e-03	5	true	smoothSolver	1.625490e-01	1.129410e-02	3	true
0.468579      	smoothSolver	1.146870e-04	6.999400e-09	5	true	smoothSolver	1.934110e-01	9.002860e-03	3	true	GAMG	3.050900e-01	2.254760e-03	3	true	smoothSolver	8.090190e-02	3.890000e-03	3	true
0.468612      	smoothSolver	1.174680e-04	2.474710e-09	5	true	smoothSolver	1.742110e-01	1.393910e-02	3	true	GAMG	1.727470e-01	1.602000e-03	4	true	smoothSolver	7.068380e-02	6.098130e-03	3	true
0.468649      	smoothSolver	1.343860e-04	1.917940e-09	5	true	smoothSolver	1.845470e-01	1.461650e-02	3	true	GAMG	1.367460e-01	9.652750e-04	4	true	smoothSolver	6.189610e-02	3.551210e-03	4	true
0.468691      	smoothSolver	1.503160e-04	3.401560e-09	5	true	smoothSolver	1.584130e-01	9.999740e-03	4	true	GAMG	1.358680e-01	7.602200e-04	4	true	smoothSolver	5.254070e-02	3.455350e-03	4	true
0.468737      	smoothSolver	1.699450e-04	7.736920e-09	5	true	smoothSolver	1.856160e-01	1.389390e-02	5	true	GAMG	1.616120e-01	1.300810e-03	3	true	smoothSolver	5.709590e-02	4.679970e-03	4	true
0.46879       	smoothSolver	1.922310e-04	8.684270e-09	5	true	smoothSolver	1.633440e-01	1.496860e-02	5	true	GAMG	1.605360e-01	1.109180e-03	3	true	smoothSolver	6.408990e-02	5.686760e-03	4	true
0.468852      	smoothSolver	2.239800e-04	3.265550e-09	6	true	smoothSolver	1.637880e-01	1.487020e-02	6	true	GAMG	1.595020e-01	9.382000e-04	4	true	smoothSolver	6.842220e-02	4.599510e-03	5	true
0.468925      	smoothSolver	2.630560e-04	4.971770e-09	6	true	smoothSolver	1.449630e-01	1.166230e-02	7	true	GAMG	1.187810e-01	6.366180e-04	4	true	smoothSolver	6.959380e-02	5.321070e-03	5	true
0.469009      	smoothSolver	3.050160e-04	3.340490e-09	6	true	smoothSolver	1.274530e-01	1.222000e-02	5	true	GAMG	7.502440e-02	3.762670e-04	4	true	smoothSolver	6.323770e-02	5.325330e-03	4	true
0.469106      	smoothSolver	3.500450e-04	4.920190e-09	6	true	smoothSolver	1.565770e-01	1.071710e-02	6	true	GAMG	5.697320e-02	2.884630e-04	4	true	smoothSolver	7.231770e-02	5.899780e-03	5	true
0.469201      	smoothSolver	3.487080e-04	9.086280e-09	6	true	smoothSolver	2.897230e-01	2.132190e-02	6	true	GAMG	7.703280e-02	7.278110e-04	3	true	smoothSolver	1.331670e-01	1.099260e-02	7	true
0.469257      	smoothSolver	2.139130e-04	3.505990e-09	7	true	smoothSolver	2.448690e-01	1.829200e-02	5	true	GAMG	8.356700e-02	6.330690e-04	4	true	smoothSolver	1.093690e-01	8.079580e-03	5	true
0.469289      	smoothSolver	1.238750e-04	8.923170e-09	5	true	smoothSolver	2.487090e-01	1.483430e-02	4	true	GAMG	2.498480e-01	1.903830e-03	4	true	smoothSolver	9.668810e-02	5.329070e-03	3	true
0.469327      	smoothSolver	1.397290e-04	8.267670e-09	4	true	smoothSolver	1.677760e-01	1.183030e-02	5	true	GAMG	2.227110e-01	1.468730e-03	4	true	smoothSolver	9.079380e-02	5.646330e-03	4	true
0.469372      	smoothSolver	1.667860e-04	8.693080e-09	4	true	smoothSolver	1.341020e-01	9.814600e-03	6	true	GAMG	1.785640e-01	1.329750e-03	4	true	smoothSolver	7.866900e-02	6.781130e-03	4	true
0.469427      	smoothSolver	1.992290e-04	2.228830e-09	5	true	smoothSolver	1.250280e-01	8.870630e-03	7	true	GAMG	1.071470e-01	5.505830e-04	4	true	smoothSolver	6.723220e-02	4.582470e-03	5	true
0.469492      	smoothSolver	2.392370e-04	2.131310e-09	5	true	smoothSolver	1.171100e-01	1.065060e-02	7	true	GAMG	5.815550e-02	5.104360e-04	4	true	smoothSolver	6.290180e-02	5.037040e-03	5	true
0.469571      	smoothSolver	2.874730e-04	2.508100e-09	5	true	smoothSolver	1.034330e-01	8.965630e-03	7	true	GAMG	4.298360e-02	2.144120e-04	4	true	smoothSolver	6.022860e-02	4.578300e-03	5	true
0.469665      	smoothSolver	3.456470e-04	4.903970e-09	5	true	smoothSolver	1.156710e-01	9.245080e-03	4	true	GAMG	3.981290e-02	2.212990e-04	4	true	smoothSolver	6.190650e-02	3.784930e-03	4	true
0.469772      	smoothSolver	3.926700e-04	2.775830e-09	6	true	smoothSolver	2.397000e-01	1.851540e-02	7	true	GAMG	6.001640e-02	5.948060e-04	3	true	smoothSolver	1.005260e-01	9.807490e-03	7	true
0.469843      	smoothSolver	2.652370e-04	5.138180e-09	6	true	smoothSolver	1.462330e-01	1.165580e-02	3	true	GAMG	1.022100e-01	5.594510e-04	4	true	smoothSolver	9.503880e-02	9.363990e-03	3	true
0.469922      	smoothSolver	2.971160e-04	2.784110e-09	6	true	smoothSolver	1.744840e-01	1.498720e-02	4	true	GAMG	1.131140e-01	8.629550e-04	3	true	smoothSolver	7.294860e-02	4.425430e-03	4	true
0.470011      	smoothSolver	3.328540e-04	3.435300e-09	6	true	smoothSolver	1.622750e-01	1.256340e-02	6	true	GAMG	9.915160e-02	7.623940e-04	3	true	smoothSolver	6.667400e-02	4.476930e-03	5	true
0.470113      	smoothSolver	3.821710e-04	8.578340e-09	5	true	smoothSolver	1.442650e-01	1.167900e-02	7	true	GAMG	6.201390e-02	3.130890e-04	4	true	smoothSolver	6.321900e-02	5.552960e-03	5	true
0.47023       	smoothSolver	4.360200e-04	7.042800e-09	5	true	smoothSolver	1.417360e-01	1.218610e-02	8	true	GAMG	4.374810e-02	2.392030e-04	4	true	smoothSolver	6.138150e-02	4.424020e-03	6	true
0.470368      	smoothSolver	5.073150e-04	6.150190e-09	5	true	smoothSolver	1.362450e-01	1.357510e-02	8	true	GAMG	2.911760e-02	1.560490e-04	4	true	smoothSolver	6.394330e-02	5.020740e-03	6	true
0.470531      	smoothSolver	5.979040e-04	5.405250e-09	5	true	smoothSolver	1.339120e-01	1.090990e-02	9	true	GAMG	1.958520e-02	1.228900e-04	4	true	smoothSolver	6.680180e-02	4.996770e-03	6	true
0.470723      	smoothSolver	7.081140e-04	5.442700e-09	5	true	smoothSolver	1.274330e-01	1.098300e-02	9	true	GAMG	1.393990e-02	1.007520e-04	4	true	smoothSolver	6.557070e-02	4.783710e-03	6	true
0.47095       	smoothSolver	8.355110e-04	5.795340e-09	5	true	smoothSolver	1.259830e-01	1.087720e-02	9	true	GAMG	1.052480e-02	7.859100e-05	4	true	smoothSolver	6.614240e-02	6.497640e-03	5	true
0.471218      	smoothSolver	9.748700e-04	6.703060e-09	5	true	smoothSolver	1.209970e-01	1.045390e-02	9	true	GAMG	7.930000e-03	5.902230e-05	4	true	smoothSolver	6.473150e-02	6.205940e-03	5	true
0.471531      	smoothSolver	1.138650e-03	9.559170e-09	5	true	smoothSolver	1.164700e-01	1.015650e-02	9	true	GAMG	6.610420e-03	4.427290e-05	4	true	smoothSolver	6.272010e-02	5.958670e-03	5	true
0.471897      	smoothSolver	1.326960e-03	3.062540e-09	6	true	smoothSolver	1.105620e-01	9.946500e-03	9	true	GAMG	5.579850e-03	3.487170e-05	4	true	smoothSolver	6.101670e-02	5.946530e-03	5	true
0.472324      	smoothSolver	1.541070e-03	4.926530e-09	6	true	smoothSolver	1.038120e-01	9.841850e-03	9	true	GAMG	5.112610e-03	2.903200e-05	4	true	smoothSolver	5.650270e-02	4.255420e-03	6	true
0.472818      	smoothSolver	1.778060e-03	8.441220e-09	6	true	smoothSolver	9.843130e-02	8.026800e-03	10	true	GAMG	4.781450e-03	4.430280e-05	3	true	smoothSolver	5.350870e-02	4.163260e-03	6	true
0.473389      	smoothSolver	2.040080e-03	2.798280e-09	7	true	smoothSolver	9.431460e-02	8.251150e-03	10	true	GAMG	4.647790e-03	3.729710e-05	3	true	smoothSolver	4.945860e-02	4.025090e-03	6	true
0.474043      	smoothSolver	2.321160e-03	4.604570e-09	7	true	smoothSolver	9.007380e-02	8.431050e-03	10	true	GAMG	4.613910e-03	3.270360e-05	3	true	smoothSolver	4.626430e-02	3.948370e-03	6	true
0.474791      	smoothSolver	2.634450e-03	7.689670e-09	7	true	smoothSolver	8.694680e-02	8.640180e-03	10	true	GAMG	4.609490e-03	2.950570e-05	3	true	smoothSolver	4.397690e-02	3.980310e-03	6	true
0.475646      	smoothSolver	2.972200e-03	3.236480e-09	8	true	smoothSolver	8.497660e-02	7.406480e-03	11	true	GAMG	4.677070e-03	2.648060e-05	3	true	smoothSolver	4.210020e-02	3.784440e-03	6	true
0.476621      	smoothSolver	3.356910e-03	6.260610e-09	8	true	smoothSolver	8.288090e-02	7.682500e-03	11	true	GAMG	4.794660e-03	2.375240e-05	3	true	smoothSolver	3.978420e-02	3.973500e-03	6	true
0.477728      	smoothSolver	3.776390e-03	3.164330e-09	9	true	smoothSolver	7.999570e-02	7.972350e-03	11	true	GAMG	5.041940e-03	2.186280e-05	3	true	smoothSolver	3.889570e-02	3.792870e-03	6	true
0.478983      	smoothSolver	4.249870e-03	6.138500e-09	9	true	smoothSolver	7.813260e-02	6.831870e-03	12	true	GAMG	5.232520e-03	2.003020e-05	3	true	smoothSolver	3.695810e-02	3.060640e-03	7	true
0.480403      	smoothSolver	4.756070e-03	3.206550e-09	10	true	smoothSolver	7.600580e-02	7.115250e-03	12	true	GAMG	5.433470e-03	1.895180e-05	3	true	smoothSolver	3.551190e-02	3.534490e-03	6	true
0.482006      	smoothSolver	5.321300e-03	6.090430e-09	10	true	smoothSolver	7.316560e-02	7.298800e-03	12	true	GAMG	5.541440e-03	1.831370e-05	3	true	smoothSolver	3.237690e-02	2.770430e-03	7	true
0.483811      	smoothSolver	5.932050e-03	3.258210e-09	11	true	smoothSolver	7.196410e-02	6.316250e-03	13	true	GAMG	5.853890e-03	1.986250e-05	3	true	smoothSolver	3.105670e-02	2.645760e-03	7	true
0.485843      	smoothSolver	6.613270e-03	5.993370e-09	11	true	smoothSolver	7.119460e-02	6.344380e-03	13	true	GAMG	5.881210e-03	1.986620e-05	3	true	smoothSolver	3.028990e-02	2.526560e-03	7	true
0.488119      	smoothSolver	7.349160e-03	3.607810e-09	12	true	smoothSolver	7.019050e-02	6.253590e-03	13	true	GAMG	6.028970e-03	2.109080e-05	3	true	smoothSolver	2.834540e-02	2.504420e-03	7	true
0.490334      	smoothSolver	7.118200e-03	8.381430e-09	11	true	smoothSolver	6.417060e-02	5.659470e-03	12	true	GAMG	5.753090e-03	2.167300e-05	3	true	smoothSolver	2.526570e-02	1.992050e-03	7	true
0.49256       	smoothSolver	7.078880e-03	8.085170e-09	11	true	smoothSolver	6.221090e-02	5.589270e-03	11	true	GAMG	5.643750e-03	2.273410e-05	3	true	smoothSolver	2.369060e-02	2.111460e-03	6	true
0.494899      	smoothSolver	7.391860e-03	3.769100e-09	12	true	smoothSolver	6.254130e-02	5.198370e-03	11	true	GAMG	5.570650e-03	2.162070e-05	3	true	smoothSolver	2.275580e-02	2.050020e-03	6	true
0.497104      	smoothSolver	6.912400e-03	7.147810e-09	11	true	smoothSolver	5.878990e-02	5.763120e-03	9	true	GAMG	5.458840e-03	2.204480e-05	3	true	smoothSolver	2.101360e-02	1.653960e-03	6	true
0.499191      	smoothSolver	6.475970e-03	5.246770e-09	11	true	smoothSolver	5.677480e-02	5.574810e-03	8	true	GAMG	5.260530e-03	1.977940e-05	3	true	smoothSolver	1.972960e-02	1.756760e-03	5	true
0.501218      	smoothSolver	6.258780e-03	4.327790e-09	11	true	smoothSolver	5.613160e-02	4.618990e-03	8	true	GAMG	5.082710e-03	1.829460e-05	3	true	smoothSolver	1.875950e-02	1.531200e-03	5	true
0.503238      	smoothSolver	6.213300e-03	4.472710e-09	11	true	smoothSolver	5.714450e-02	5.234760e-03	7	true	GAMG	5.130430e-03	1.899500e-05	3	true	smoothSolver	1.870270e-02	1.415900e-03	5	true
0.505141      	smoothSolver	5.850980e-03	3.944000e-09	11	true	smoothSolver	5.571600e-02	4.163620e-03	7	true	GAMG	4.877300e-03	1.727580e-05	3	true	smoothSolver	1.773840e-02	1.674560e-03	4	true
0.507059      	smoothSolver	5.870540e-03	4.979800e-09	11	true	smoothSolver	5.822540e-02	5.174040e-03	6	true	GAMG	4.914100e-03	1.800440e-05	3	true	smoothSolver	1.839780e-02	1.689320e-03	4	true
0.509015      	smoothSolver	6.002560e-03	4.472110e-09	11	true	smoothSolver	6.160280e-02	4.911110e-03	6	true	GAMG	4.882910e-03	1.813300e-05	3	true	smoothSolver	1.909030e-02	1.611050e-03	4	true
0.510889      	smoothSolver	5.743180e-03	7.763160e-09	10	true	smoothSolver	6.020080e-02	5.862640e-03	5	true	GAMG	4.744210e-03	1.897530e-05	3	true	smoothSolver	1.824330e-02	1.391490e-03	4	true
0.512862      	smoothSolver	6.049540e-03	3.246100e-09	11	true	smoothSolver	6.598500e-02	6.117330e-03	5	true	GAMG	4.809940e-03	2.046070e-05	3	true	smoothSolver	1.949460e-02	1.409310e-03	4	true
0.514764      	smoothSolver	5.849610e-03	3.376310e-09	11	true	smoothSolver	6.579720e-02	5.404990e-03	5	true	GAMG	4.741800e-03	2.137650e-05	3	true	smoothSolver	1.851150e-02	1.250790e-03	4	true
0.516893      	smoothSolver	6.527290e-03	9.846130e-09	11	true	smoothSolver	6.993720e-02	6.480390e-03	5	true	GAMG	4.859990e-03	1.898000e-05	3	true	smoothSolver	1.946010e-02	1.427090e-03	4	true
0.519171      	smoothSolver	7.015980e-03	6.241030e-09	12	true	smoothSolver	7.040040e-02	6.948580e-03	5	true	GAMG	5.040800e-03	2.017550e-05	3	true	smoothSolver	1.914090e-02	1.463040e-03	4	true
0.521676      	smoothSolver	7.740060e-03	5.303670e-09	13	true	smoothSolver	7.131380e-02	5.826280e-03	6	true	GAMG	5.100100e-03	1.896250e-05	3	true	smoothSolver	1.878790e-02	1.550260e-03	4	true
0.524457      	smoothSolver	8.580770e-03	7.436310e-09	14	true	smoothSolver	6.910060e-02	6.539010e-03	6	true	GAMG	5.313220e-03	1.852020e-05	3	true	smoothSolver	1.826580e-02	1.591270e-03	4	true
0.527565      	smoothSolver	9.731490e-03	8.472720e-09	15	true	smoothSolver	6.824180e-02	5.510610e-03	7	true	GAMG	5.428200e-03	1.891660e-05	3	true	smoothSolver	1.818860e-02	1.649060e-03	4	true