# Moment      
# CofR        : (0.000000e+00 0.000000e+00 0.000000e+00)
#
# Time        	(total_x total_y total_z)	(pressure_x pressure_y pressure_z)	(viscous_x viscous_y viscous_z)
1             	(-3.640984e-04 6.378548e-01 8.139834e-04)	(-3.638216e-04 6.363573e-01 8.140114e-04)	(-2.767558e-07 1.497551e-03 -2.797927e-08)
2             	(-1.342247e-03 5.617561e-01 -2.621928e-03)	(-1.340232e-03 5.614980e-01 -2.613124e-03)	(-2.014478e-06 2.581044e-04 -8.803193e-06)
3             	(-1.612614e-03 3.284729e-01 -2.032802e-03)	(-1.612235e-03 3.284589e-01 -1.544011e-03)	(-3.797503e-07 1.403998e-05 -4.887902e-04)
4             	(-2.631151e-03 -5.855772e-02 9.522550e-03)	(-2.627477e-03 -5.821016e-02 9.867856e-03)	(-3.673713e-06 -3.475650e-04 -3.453060e-04)
5             	(-2.725605e-03 -3.337748e-01 6.714111e-03)	(-2.743170e-03 -3.335904e-01 6.921968e-03)	(1.756514e-05 -1.844410e-04 -2.078572e-04)
6             	(-1.766201e-03 -4.191886e-01 -6.727003e-04)	(-1.766772e-03 -4.194478e-01 -6.132900e-04)	(5.711306e-07 2.591410e-04 -5.941024e-05)
7             	(-3.474367e-04 -3.658670e-01 -6.212788e-03)	(-3.160011e-04 -3.667156e-01 -6.251451e-03)	(-3.143558e-05 8.486309e-04 3.866319e-05)
8             	(-6.934053e-04 -2.418923e-01 -1.137358e-02)	(-6.459046e-04 -2.431728e-01 -1.147007e-02)	(-4.750073e-05 1.280471e-03 9.649407e-05)
9             	(2.057222e-05 -7.977088e-02 -1.188833e-02)	(7.483718e-05 -8.113044e-02 -1.198793e-02)	(-5.426496e-05 1.359558e-03 9.959474e-05)
10            	(7.559934e-04 6.516816e-02 -6.367567e-03)	(8.209994e-04 6.397672e-02 -6.450430e-03)	(-6.500601e-05 1.191447e-03 8.286255e-05)
11            	(6.823755e-04 1.444620e-01 2.246658e-04)	(7.457004e-04 1.435664e-01 1.400604e-04)	(-6.332494e-05 8.956089e-04 8.460543e-05)
12            	(9.697351e-04 1.542628e-01 4.517807e-03)	(1.021914e-03 1.537598e-01 4.444802e-03)	(-5.217870e-05 5.029809e-04 7.300500e-05)
13            	(9.799199e-04 1.292686e-01 6.173527e-03)	(1.023519e-03 1.291391e-01 6.098004e-03)	(-4.359898e-05 1.295138e-04 7.552252e-05)
14            	(1.189613e-03 8.235350e-02 5.896815e-03)	(1.229441e-03 8.247275e-02 5.836528e-03)	(-3.982788e-05 -1.192573e-04 6.028663e-05)
15            	(7.139882e-04 3.267920e-02 3.456216e-03)	(7.519957e-04 3.288121e-02 3.424879e-03)	(-3.800752e-05 -2.020109e-04 3.133653e-05)
16            	(2.837891e-05 -6.648685e-03 1.053719e-03)	(6.705039e-05 -6.523111e-03 1.045282e-03)	(-3.867148e-05 -1.255740e-04 8.437214e-06)
17            	(-5.555005e-04 -2.828851e-02 -8.853395e-04)	(-5.267277e-04 -2.834082e-02 -8.832510e-04)	(-2.877285e-05 5.230973e-05 -2.088554e-06)
18            	(-7.831162e-04 -3.531907e-02 -2.024160e-03)	(-7.514084e-04 -3.557968e-02 -2.010213e-03)	(-3.170782e-05 2.606026e-04 -1.394669e-05)
19            	(-5.883668e-04 -3.331335e-02 -2.476828e-03)	(-5.600986e-04 -3.373623e-02 -2.457857e-03)	(-2.826822e-05 4.228755e-04 -1.897076e-05)
20            	(-3.428789e-04 -2.338326e-02 -1.678064e-03)	(-3.137271e-04 -2.388410e-02 -1.662335e-03)	(-2.915178e-05 5.008462e-04 -1.572929e-05)
21            	(-3.435238e-05 -8.714529e-03 -5.328510e-04)	(-7.397627e-06 -9.206469e-03 -5.277747e-04)	(-2.695475e-05 4.919397e-04 -5.076238e-06)
22            	(3.413864e-04 2.914388e-03 5.890516e-04)	(3.639662e-04 2.489519e-03 5.821543e-04)	(-2.257985e-05 4.248689e-04 6.897339e-06)
23            	(7.465867e-04 9.273285e-03 1.417839e-03)	(7.652711e-04 8.946975e-03 1.401726e-03)	(-1.868435e-05 3.263103e-04 1.611311e-05)
24            	(1.038127e-03 1.217699e-02 1.819662e-03)	(1.051465e-03 1.195181e-02 1.801423e-03)	(-1.333763e-05 2.251813e-04 1.823954e-05)
25            	(1.149176e-03 1.268366e-02 1.800813e-03)	(1.156628e-03 1.253977e-02 1.785719e-03)	(-7.452503e-06 1.438957e-04 1.509372e-05)
26            	(1.023589e-03 1.218512e-02 1.460933e-03)	(1.025379e-03 1.208933e-02 1.453211e-03)	(-1.789429e-06 9.579120e-05 7.722692e-06)
27            	(8.231071e-04 1.168989e-02 6.976592e-04)	(8.195634e-04 1.160687e-02 6.981571e-04)	(3.543776e-06 8.302136e-05 -4.979845e-07)
28            	(5.217417e-04 1.051395e-02 3.602019e-04)	(5.145683e-04 1.041714e-02 3.680296e-04)	(7.173363e-06 9.680192e-05 -7.827689e-06)
29            	(2.343975e-04 9.674889e-03 -9.046515e-05)	(2.244005e-04 9.550719e-03 -7.767889e-05)	(9.996974e-06 1.241702e-04 -1.278626e-05)
30            	(-9.983608e-06 8.843597e-03 -3.719343e-04)	(-2.119616e-05 8.689833e-03 -3.573504e-04)	(1.121255e-05 1.537646e-04 -1.458392e-05)
31            	(-1.588267e-04 8.331626e-03 -4.911376e-04)	(-1.702447e-04 8.156707e-03 -4.770416e-04)	(1.141801e-05 1.749187e-04 -1.409609e-05)
32            	(-1.561257e-04 7.867130e-03 -3.958618e-04)	(-1.673967e-04 7.684370e-03 -3.838871e-04)	(1.127103e-05 1.827602e-04 -1.197467e-05)
33            	(-8.680969e-05 8.298764e-03 -3.041464e-04)	(-9.807546e-05 8.119184e-03 -2.947327e-04)	(1.126578e-05 1.795799e-04 -9.413720e-06)
34            	(2.181986e-05 8.803863e-03 -1.833407e-04)	(1.028705e-05 8.634991e-03 -1.762719e-04)	(1.153281e-05 1.688718e-04 -7.068779e-06)
35            	(1.446435e-04 9.459675e-03 -3.446471e-05)	(1.326197e-04 9.305024e-03 -2.942596e-05)	(1.202382e-05 1.546515e-04 -5.038755e-06)
36            	(2.942370e-04 1.018973e-02 1.442807e-04)	(2.814968e-04 1.004865e-02 1.476284e-04)	(1.274026e-05 1.410846e-04 -3.347680e-06)
37            	(4.531041e-04 1.126899e-02 3.829989e-04)	(4.392466e-04 1.113672e-02 3.848415e-04)	(1.385741e-05 1.322719e-04 -1.842645e-06)
38            	(6.276728e-04 1.263340e-02 6.505234e-04)	(6.122982e-04 1.250250e-02 6.510354e-04)	(1.537458e-05 1.309013e-04 -5.119535e-07)
39            	(7.844645e-04 1.396463e-02 8.288970e-04)	(7.673397e-04 1.382692e-02 8.279936e-04)	(1.712485e-05 1.377173e-04 9.033963e-07)
40            	(9.008673e-04 1.550579e-02 8.564105e-04)	(8.821266e-04 1.535497e-02 8.539063e-04)	(1.874064e-05 1.508194e-04 2.504182e-06)
41            	(9.712545e-04 1.699550e-02 7.549403e-04)	(9.516025e-04 1.682858e-02 7.513629e-04)	(1.965198e-05 1.669207e-04 3.577368e-06)
42            	(9.994984e-04 1.829545e-02 6.944991e-04)	(9.791766e-04 1.811094e-02 6.893785e-04)	(2.032172e-05 1.845138e-04 5.120650e-06)
43            	(1.003678e-03 1.990976e-02 2.980579e-04)	(9.830997e-04 1.970603e-02 2.913680e-04)	(2.057827e-05 2.037352e-04 6.689888e-06)
44            	(1.013616e-03 2.049272e-02 2.260325e-04)	(9.929982e-04 2.027202e-02 2.172755e-04)	(2.061821e-05 2.206964e-04 8.757008e-06)
45            	(1.020939e-03 2.081168e-02 1.313646e-04)	(1.000479e-03 2.057627e-02 1.210208e-04)	(2.046032e-05 2.354015e-04 1.034372e-05)
46            	(1.026435e-03 2.086464e-02 6.492596e-06)	(1.006296e-03 2.061609e-02 -4.901593e-06)	(2.013978e-05 2.485493e-04 1.139419e-05)
47            	(1.034703e-03 2.036665e-02 -3.599524e-04)	(1.014787e-03 2.010752e-02 -3.715837e-04)	(1.991671e-05 2.591323e-04 1.163125e-05)
48            	(1.032565e-03 1.998969e-02 -4.879278e-04)	(1.012502e-03 1.972241e-02 -4.992267e-04)	(2.006270e-05 2.672761e-04 1.129888e-05)
49            	(1.016816e-03 1.936463e-02 -6.337713e-04)	(9.960908e-04 1.909260e-02 -6.447741e-04)	(2.072476e-05 2.720299e-04 1.100276e-05)
50            	(1.050259e-03 1.765814e-02 -1.055970e-03)	(1.027833e-03 1.738643e-02 -1.066769e-03)	(2.242634e-05 2.717145e-04 1.079917e-05)
51            	(1.153908e-03 1.623788e-02 -1.425196e-03)	(1.129118e-03 1.596892e-02 -1.436014e-03)	(2.479049e-05 2.689604e-04 1.081805e-05)
52            	(1.066758e-03 1.567792e-02 -1.417315e-03)	(1.039492e-03 1.541213e-02 -1.428430e-03)	(2.726601e-05 2.657843e-04 1.111499e-05)
53            	(9.830414e-04 1.514622e-02 -1.387638e-03)	(9.531553e-04 1.488488e-02 -1.398993e-03)	(2.988612e-05 2.613409e-04 1.135493e-05)
54            	(9.130852e-04 1.459281e-02 -1.357947e-03)	(8.802709e-04 1.433668e-02 -1.369539e-03)	(3.281424e-05 2.561272e-04 1.159183e-05)
55            	(8.476360e-04 1.410531e-02 -1.340554e-03)	(8.122453e-04 1.385534e-02 -1.352192e-03)	(3.539079e-05 2.499757e-04 1.163787e-05)
56            	(7.850004e-04 1.366256e-02 -1.340846e-03)	(7.476055e-04 1.341956e-02 -1.352287e-03)	(3.739492e-05 2.430060e-04 1.144083e-05)
57            	(7.178614e-04 1.327152e-02 -1.361573e-03)	(6.790868e-04 1.303610e-02 -1.372616e-03)	(3.877467e-05 2.354227e-04 1.104298e-05)
58            	(6.445693e-04 1.289996e-02 -1.402008e-03)	(6.051991e-04 1.267259e-02 -1.412499e-03)	(3.937022e-05 2.273701e-04 1.049065e-05)
59            	(5.565515e-04 1.259237e-02 -1.461160e-03)	(5.173968e-04 1.237304e-02 -1.471067e-03)	(3.915465e-05 2.193289e-04 9.907533e-06)
60            	(4.534282e-04 1.236042e-02 -1.525558e-03)	(4.152285e-04 1.214853e-02 -1.534986e-03)	(3.819969e-05 2.118955e-04 9.428134e-06)
61            	(3.518848e-04 1.221449e-02 -1.585212e-03)	(3.156313e-04 1.200901e-02 -1.594341e-03)	(3.625348e-05 2.054813e-04 9.128444e-06)
62            	(2.707649e-04 1.218640e-02 -1.618211e-03)	(2.374793e-04 1.198601e-02 -1.627106e-03)	(3.328560e-05 2.003936e-04 8.894678e-06)
63            	(2.162777e-04 1.228766e-02 -1.599160e-03)	(1.868243e-04 1.209086e-02 -1.607874e-03)	(2.945341e-05 1.967956e-04 8.714456e-06)
64            	(1.927067e-04 1.245941e-02 -1.521966e-03)	(1.676029e-04 1.226482e-02 -1.530687e-03)	(2.510388e-05 1.945879e-04 8.721086e-06)
65            	(1.932571e-04 1.266080e-02 -1.382429e-03)	(1.727486e-04 1.246734e-02 -1.391230e-03)	(2.050844e-05 1.934607e-04 8.800315e-06)
66            	(2.081114e-04 1.282698e-02 -1.183286e-03)	(1.921595e-04 1.263393e-02 -1.192030e-03)	(1.595194e-05 1.930565e-04 8.743628e-06)
67            	(2.200755e-04 1.296819e-02 -9.408191e-04)	(2.085671e-04 1.277506e-02 -9.490461e-04)	(1.150849e-05 1.931317e-04 8.227075e-06)
68            	(2.120434e-04 1.307341e-02 -6.685940e-04)	(2.049625e-04 1.287991e-02 -6.759172e-04)	(7.080940e-06 1.935014e-04 7.323174e-06)
69            	(1.705084e-04 1.313570e-02 -3.862889e-04)	(1.676412e-04 1.294172e-02 -3.925314e-04)	(2.867164e-06 1.939844e-04 6.242483e-06)
70            	(8.639393e-05 1.313063e-02 -1.221728e-04)	(8.737944e-05 1.293633e-02 -1.273446e-04)	(-9.855127e-07 1.943035e-04 5.171794e-06)
71            	(-4.457266e-05 1.308546e-02 1.047672e-04)	(-4.006509e-05 1.289112e-02 1.007254e-04)	(-4.507573e-06 1.943400e-04 4.041793e-06)
72            	(-2.272609e-04 1.307949e-02 2.667938e-04)	(-2.194764e-04 1.288522e-02 2.639932e-04)	(-7.784557e-06 1.942778e-04 2.800573e-06)
73            	(-4.170365e-04 1.297612e-02 3.233663e-04)	(-4.062885e-04 1.278231e-02 3.219396e-04)	(-1.074802e-05 1.938075e-04 1.426726e-06)
74            	(-6.273383e-04 1.286462e-02 2.976062e-04)	(-6.139221e-04 1.267155e-02 2.978185e-04)	(-1.341621e-05 1.930781e-04 -2.123103e-07)
75            	(-8.382703e-04 1.277627e-02 1.872078e-04)	(-8.223219e-04 1.258402e-02 1.893560e-04)	(-1.594843e-05 1.922492e-04 -2.148188e-06)
76            	(-1.045549e-03 1.269174e-02 2.001954e-05)	(-1.027135e-03 1.250039e-02 2.434596e-05)	(-1.841457e-05 1.913502e-04 -4.326415e-06)
77            	(-1.239762e-03 1.261960e-02 -1.827299e-04)	(-1.218952e-03 1.242917e-02 -1.759550e-04)	(-2.081027e-05 1.904374e-04 -6.774835e-06)
78            	(-1.413647e-03 1.256716e-02 -4.002155e-04)	(-1.390652e-03 1.237768e-02 -3.908023e-04)	(-2.299496e-05 1.894819e-04 -9.413210e-06)
79            	(-1.562460e-03 1.253948e-02 -6.136971e-04)	(-1.537632e-03 1.235107e-02 -6.018101e-04)	(-2.482759e-05 1.884099e-04 -1.188692e-05)
80            	(-1.685197e-03 1.254099e-02 -8.068490e-04)	(-1.658883e-03 1.235376e-02 -7.929341e-04)	(-2.631417e-05 1.872244e-04 -1.391490e-05)
81            	(-1.780673e-03 1.257084e-02 -9.690409e-04)	(-1.753210e-03 1.238494e-02 -9.537021e-04)	(-2.746274e-05 1.859006e-04 -1.533872e-05)
82            	(-1.849995e-03 1.262997e-02 -1.090340e-03)	(-1.821716e-03 1.244547e-02 -1.074391e-03)	(-2.827948e-05 1.845019e-04 -1.594888e-05)
83            	(-1.882256e-03 1.274675e-02 -1.170047e-03)	(-1.853447e-03 1.256352e-02 -1.154364e-03)	(-2.880932e-05 1.832376e-04 -1.568296e-05)
84            	(-1.886166e-03 1.289719e-02 -1.189230e-03)	(-1.857045e-03 1.271496e-02 -1.174454e-03)	(-2.912179e-05 1.822297e-04 -1.477663e-05)
85            	(-1.855744e-03 1.307172e-02 -1.143993e-03)	(-1.826581e-03 1.289003e-02 -1.130722e-03)	(-2.916286e-05 1.816929e-04 -1.327013e-05)
86            	(-1.788285e-03 1.325764e-02 -1.035118e-03)	(-1.759446e-03 1.307590e-02 -1.023882e-03)	(-2.883960e-05 1.817384e-04 -1.123570e-05)
87            	(-1.668043e-03 1.337439e-02 -8.571709e-04)	(-1.639865e-03 1.319236e-02 -8.482358e-04)	(-2.817776e-05 1.820354e-04 -8.935148e-06)
88            	(-1.515737e-03 1.349828e-02 -6.302001e-04)	(-1.488748e-03 1.331600e-02 -6.239013e-04)	(-2.698900e-05 1.822781e-04 -6.298869e-06)
89            	(-1.339728e-03 1.366897e-02 -3.954765e-04)	(-1.314499e-03 1.348630e-02 -3.920415e-04)	(-2.522937e-05 1.826641e-04 -3.434990e-06)
90            	(-1.134195e-03 1.380750e-02 -1.451326e-04)	(-1.111176e-03 1.362427e-02 -1.445309e-04)	(-2.301848e-05 1.832242e-04 -6.017119e-07)
91            	(-9.091286e-04 1.384040e-02 1.259041e-04)	(-8.886440e-04 1.365682e-02 1.239472e-04)	(-2.048452e-05 1.835784e-04 1.956919e-06)
92            	(-6.691313e-04 1.390823e-02 3.506047e-04)	(-6.513334e-04 1.372431e-02 3.465201e-04)	(-1.779785e-05 1.839246e-04 4.084666e-06)
93            	(-4.279984e-04 1.387383e-02 5.545522e-04)	(-4.129680e-04 1.368995e-02 5.486978e-04)	(-1.503039e-05 1.838873e-04 5.854417e-06)
94            	(-2.034605e-04 1.385495e-02 7.149552e-04)	(-1.910244e-04 1.367138e-02 7.077961e-04)	(-1.243610e-05 1.835735e-04 7.159109e-06)
95            	(9.546640e-06 1.381247e-02 8.246590e-04)	(1.963444e-05 1.362953e-02 8.166478e-04)	(-1.008780e-05 1.829410e-04 8.011167e-06)
96            	(1.895455e-04 1.374497e-02 9.014046e-04)	(1.975867e-04 1.356298e-02 8.929506e-04)	(-8.041197e-06 1.819902e-04 8.454029e-06)
97            	(3.277926e-04 1.365689e-02 9.511104e-04)	(3.340319e-04 1.347612e-02 9.424895e-04)	(-6.239317e-06 1.807739e-04 8.620908e-06)
98            	(4.201213e-04 1.355518e-02 9.749364e-04)	(4.247169e-04 1.337583e-02 9.662650e-04)	(-4.595646e-06 1.793526e-04 8.671347e-06)
99            	(4.657998e-04 1.344361e-02 9.714234e-04)	(4.688578e-04 1.326583e-02 9.626950e-04)	(-3.057944e-06 1.777816e-04 8.728421e-06)
100           	(4.655681e-04 1.332930e-02 9.385395e-04)	(4.670943e-04 1.315316e-02 9.296820e-04)	(-1.526259e-06 1.761405e-04 8.857446e-06)
101           	(4.240379e-04 1.313961e-02 8.711220e-04)	(4.239979e-04 1.296533e-02 8.621252e-04)	(4.005735e-08 1.742808e-04 8.996814e-06)
102           	(3.412936e-04 1.303315e-02 7.676276e-04)	(3.397063e-04 1.286054e-02 7.585555e-04)	(1.587281e-06 1.726033e-04 9.072058e-06)
103           	(2.285325e-04 1.292958e-02 6.247729e-04)	(2.255509e-04 1.275844e-02 6.157713e-04)	(2.981554e-06 1.711453e-04 9.001655e-06)
104           	(9.862190e-05 1.282959e-02 4.430040e-04)	(9.459875e-05 1.265969e-02 4.343143e-04)	(4.023149e-06 1.699062e-04 8.689691e-06)
105           	(-3.556137e-05 1.273597e-02 2.334395e-04)	(-4.008742e-05 1.256707e-02 2.253840e-04)	(4.526053e-06 1.688960e-04 8.055471e-06)
106           	(-1.632008e-04 1.265080e-02 1.312141e-05)	(-1.676876e-04 1.248267e-02 5.957508e-06)	(4.486815e-06 1.681327e-04 7.163899e-06)
107           	(-2.748163e-04 1.257286e-02 -2.034342e-04)	(-2.787616e-04 1.240526e-02 -2.095527e-04)	(3.945227e-06 1.675964e-04 6.118530e-06)
108           	(-3.653670e-04 1.250099e-02 -4.008084e-04)	(-3.683458e-04 1.233380e-02 -4.059166e-04)	(2.978837e-06 1.671895e-04 5.108252e-06)
109           	(-4.328771e-04 1.243315e-02 -5.710112e-04)	(-4.345696e-04 1.226640e-02 -5.752959e-04)	(1.692476e-06 1.667513e-04 4.284674e-06)
110           	(-4.798206e-04 1.236581e-02 -6.993936e-04)	(-4.799325e-04 1.219963e-02 -7.029466e-04)	(1.119422e-07 1.661835e-04 3.552987e-06)
111           	(-5.094975e-04 1.229582e-02 -7.772484e-04)	(-5.077646e-04 1.213041e-02 -7.800697e-04)	(-1.732891e-06 1.654102e-04 2.821337e-06)
112           	(-5.207651e-04 1.222239e-02 -8.079362e-04)	(-5.169151e-04 1.205798e-02 -8.099802e-04)	(-3.850008e-06 1.644092e-04 2.043962e-06)
113           	(-5.131626e-04 1.214601e-02 -7.973959e-04)	(-5.069995e-04 1.198282e-02 -7.986796e-04)	(-6.163078e-06 1.631934e-04 1.283686e-06)
114           	(-4.848012e-04 1.206854e-02 -7.542445e-04)	(-4.763959e-04 1.190671e-02 -7.550106e-04)	(-8.405358e-06 1.618288e-04 7.661027e-07)
115           	(-4.351363e-04 1.199362e-02 -6.873353e-04)	(-4.247826e-04 1.183322e-02 -6.879414e-04)	(-1.035364e-05 1.603990e-04 6.060498e-07)
116           	(-3.645495e-04 1.191707e-02 -6.053920e-04)	(-3.526565e-04 1.175817e-02 -6.061363e-04)	(-1.189295e-05 1.589005e-04 7.442966e-07)
117           	(-2.780828e-04 1.184594e-02 -5.126729e-04)	(-2.651141e-04 1.168858e-02 -5.138153e-04)	(-1.296864e-05 1.573644e-04 1.142440e-06)
118           	(-1.813940e-04 1.178479e-02 -4.080009e-04)	(-1.677399e-04 1.162896e-02 -4.097643e-04)	(-1.365403e-05 1.558289e-04 1.763383e-06)
119           	(-7.970995e-05 1.174477e-02 -2.874759e-04)	(-6.566534e-05 1.159040e-02 -2.900279e-04)	(-1.404461e-05 1.543774e-04 2.552064e-06)
120           	(1.779757e-05 1.174910e-02 -1.448065e-04)	(3.189629e-05 1.159595e-02 -1.482044e-04)	(-1.409872e-05 1.531428e-04 3.397822e-06)
121           	(1.097837e-04 1.178973e-02 1.617854e-05)	(1.235354e-04 1.163753e-02 1.197159e-05)	(-1.375175e-05 1.522021e-04 4.206951e-06)
122           	(1.949094e-04 1.194075e-02 1.857520e-04)	(2.079109e-04 1.178890e-02 1.808817e-04)	(-1.300151e-05 1.518481e-04 4.870298e-06)
123           	(2.678272e-04 1.202770e-02 3.671544e-04)	(2.796704e-04 1.187597e-02 3.618363e-04)	(-1.184320e-05 1.517309e-04 5.318112e-06)
124           	(3.278742e-04 1.213400e-02 5.479672e-04)	(3.381732e-04 1.198216e-02 5.424800e-04)	(-1.029891e-05 1.518444e-04 5.487129e-06)
125           	(3.807585e-04 1.232518e-02 7.139407e-04)	(3.890966e-04 1.217273e-02 7.086228e-04)	(-8.338119e-06 1.524543e-04 5.317821e-06)
126           	(4.309900e-04 1.241681e-02 8.720056e-04)	(4.370144e-04 1.226368e-02 8.672641e-04)	(-6.024429e-06 1.531230e-04 4.741511e-06)
127           	(4.732314e-04 1.252025e-02 1.020037e-03)	(4.766418e-04 1.236639e-02 1.016251e-03)	(-3.410450e-06 1.538520e-04 3.785770e-06)
128           	(5.171436e-04 1.262456e-02 1.151689e-03)	(5.176832e-04 1.246988e-02 1.149137e-03)	(-5.395849e-07 1.546851e-04 2.551420e-06)
129           	(5.651633e-04 1.272290e-02 1.267061e-03)	(5.626517e-04 1.256730e-02 1.265945e-03)	(2.511570e-06 1.555997e-04 1.115667e-06)
130           	(6.168354e-04 1.280885e-02 1.368407e-03)	(6.111252e-04 1.265229e-02 1.368814e-03)	(5.710226e-06 1.565640e-04 -4.070430e-07)
131           	(6.692687e-04 1.287735e-02 1.453284e-03)	(6.602314e-04 1.271982e-02 1.455190e-03)	(9.037294e-06 1.575242e-04 -1.905370e-06)
132           	(7.188198e-04 1.296278e-02 1.518325e-03)	(7.064092e-04 1.280423e-02 1.521650e-03)	(1.241054e-05 1.585418e-04 -3.325092e-06)
133           	(7.631113e-04 1.298082e-02 1.574195e-03)	(7.473877e-04 1.282143e-02 1.578760e-03)	(1.572366e-05 1.593851e-04 -4.565585e-06)
134           	(7.967220e-04 1.298139e-02 1.620087e-03)	(7.778366e-04 1.282135e-02 1.625662e-03)	(1.888538e-05 1.600413e-04 -5.574624e-06)
135           	(8.172413e-04 1.297024e-02 1.657452e-03)	(7.954575e-04 1.280969e-02 1.663802e-03)	(2.178381e-05 1.605479e-04 -6.349957e-06)
136           	(8.239057e-04 1.295067e-02 1.686496e-03)	(7.995678e-04 1.278974e-02 1.693383e-03)	(2.433789e-05 1.609260e-04 -6.887315e-06)
137           	(8.216155e-04 1.295471e-02 1.700204e-03)	(7.950983e-04 1.279343e-02 1.707365e-03)	(2.651725e-05 1.612825e-04 -7.160715e-06)
138           	(8.032261e-04 1.292758e-02 1.713393e-03)	(7.749276e-04 1.276608e-02 1.720542e-03)	(2.829852e-05 1.615035e-04 -7.149186e-06)
139           	(7.766238e-04 1.292498e-02 1.720874e-03)	(7.469811e-04 1.276328e-02 1.727727e-03)	(2.964268e-05 1.616954e-04 -6.853122e-06)
140           	(7.405729e-04 1.291838e-02 1.722439e-03)	(7.100018e-04 1.275654e-02 1.728786e-03)	(3.057110e-05 1.618373e-04 -6.346727e-06)
141           	(6.882995e-04 1.289954e-02 1.725334e-03)	(6.571871e-04 1.273769e-02 1.731119e-03)	(3.111241e-05 1.618484e-04 -5.784907e-06)
142           	(6.275230e-04 1.288988e-02 1.719377e-03)	(5.962191e-04 1.272811e-02 1.724560e-03)	(3.130388e-05 1.617676e-04 -5.182769e-06)
143           	(5.573006e-04 1.289075e-02 1.708729e-03)	(5.261097e-04 1.272909e-02 1.713187e-03)	(3.119098e-05 1.616567e-04 -4.457370e-06)
144           	(4.819975e-04 1.291787e-02 1.693193e-03)	(4.512042e-04 1.275626e-02 1.696744e-03)	(3.079332e-05 1.616116e-04 -3.550980e-06)
145           	(3.992137e-04 1.295531e-02 1.682711e-03)	(3.690440e-04 1.279365e-02 1.685159e-03)	(3.016972e-05 1.616614e-04 -2.447873e-06)
146           	(3.069201e-04 1.298429e-02 1.680347e-03)	(2.775434e-04 1.282255e-02 1.681492e-03)	(2.937676e-05 1.617448e-04 -1.144924e-06)
147           	(2.099014e-04 1.304663e-02 1.688083e-03)	(1.814915e-04 1.288471e-02 1.687811e-03)	(2.840996e-05 1.619168e-04 2.721292e-07)
148           	(1.086891e-04 1.311406e-02 1.704227e-03)	(8.139100e-05 1.295192e-02 1.702484e-03)	(2.729808e-05 1.621327e-04 1.743124e-06)
149           	(5.040442e-06 1.318230e-02 1.724109e-03)	(-2.099522e-05 1.301997e-02 1.720959e-03)	(2.603566e-05 1.623297e-04 3.149893e-06)
150           	(-1.008680e-04 1.324832e-02 1.741302e-03)	(-1.254583e-04 1.308584e-02 1.736856e-03)	(2.459032e-05 1.624875e-04 4.445292e-06)
151           	(-2.107671e-04 1.329716e-02 1.758017e-03)	(-2.337386e-04 1.313459e-02 1.752344e-03)	(2.297147e-05 1.625699e-04 5.672798e-06)
152           	(-3.270762e-04 1.334169e-02 1.756806e-03)	(-3.482655e-04 1.317907e-02 1.749915e-03)	(2.118932e-05 1.626164e-04 6.891389e-06)
153           	(-4.525205e-04 1.338536e-02 1.735200e-03)	(-4.718143e-04 1.322265e-02 1.726983e-03)	(1.929375e-05 1.627138e-04 8.216827e-06)
154           	(-5.884580e-04 1.342889e-02 1.690897e-03)	(-6.057159e-04 1.326602e-02 1.681351e-03)	(1.725784e-05 1.628667e-04 9.545574e-06)
155           	(-7.363707e-04 1.346839e-02 1.616190e-03)	(-7.514729e-04 1.330530e-02 1.605324e-03)	(1.510227e-05 1.630907e-04 1.086588e-05)
156           	(-8.944496e-04 1.350313e-02 1.507563e-03)	(-9.073462e-04 1.333972e-02 1.495335e-03)	(1.289659e-05 1.634088e-04 1.222847e-05)
157           	(-1.052471e-03 1.352985e-02 1.364401e-03)	(-1.063172e-03 1.336603e-02 1.350797e-03)	(1.070118e-05 1.638215e-04 1.360415e-05)
158           	(-1.215124e-03 1.356034e-02 1.196749e-03)	(-1.223656e-03 1.339599e-02 1.181894e-03)	(8.532374e-06 1.643424e-04 1.485506e-05)
159           	(-1.375590e-03 1.358920e-02 1.010604e-03)	(-1.382004e-03 1.342424e-02 9.947057e-04)	(6.413897e-06 1.649560e-04 1.589831e-05)
160           	(-1.527541e-03 1.361466e-02 8.117818e-04)	(-1.531892e-03 1.344905e-02 7.951229e-04)	(4.351395e-06 1.656159e-04 1.665894e-05)
161           	(-1.664140e-03 1.363287e-02 6.077063e-04)	(-1.666439e-03 1.346662e-02 5.906794e-04)	(2.298592e-06 1.662551e-04 1.702685e-05)
162           	(-1.780941e-03 1.364158e-02 4.087148e-04)	(-1.781186e-03 1.347476e-02 3.917849e-04)	(2.455741e-07 1.668148e-04 1.692987e-05)
163           	(-1.872926e-03 1.363775e-02 2.197906e-04)	(-1.871150e-03 1.347051e-02 2.034038e-04)	(-1.775706e-06 1.672335e-04 1.638671e-05)
164           	(-1.939252e-03 1.361866e-02 5.152913e-05)	(-1.935555e-03 1.345118e-02 3.603102e-05)	(-3.697094e-06 1.674822e-04 1.549811e-05)
165           	(-1.980363e-03 1.358166e-02 -9.021199e-05)	(-1.974896e-03 1.341409e-02 -1.045720e-04)	(-5.467638e-06 1.675667e-04 1.435998e-05)
166           	(-1.999199e-03 1.352528e-02 -2.002740e-04)	(-1.992176e-03 1.335777e-02 -2.133847e-04)	(-7.022762e-06 1.675117e-04 1.311074e-05)
167           	(-2.000499e-03 1.344994e-02 -2.754026e-04)	(-1.992186e-03 1.328266e-02 -2.872290e-04)	(-8.313457e-06 1.672760e-04 1.182642e-05)
168           	(-1.989979e-03 1.335769e-02 -3.132631e-04)	(-1.980642e-03 1.319089e-02 -3.237790e-04)	(-9.336292e-06 1.667917e-04 1.051592e-05)
169           	(-1.969381e-03 1.325589e-02 -3.158235e-04)	(-1.959253e-03 1.308980e-02 -3.250669e-04)	(-1.012789e-05 1.660890e-04 9.243377e-06)
170           	(-1.949317e-03 1.314427e-02 -2.859049e-04)	(-1.938549e-03 1.297905e-02 -2.940518e-04)	(-1.076797e-05 1.652163e-04 8.146876e-06)
171           	(-1.935533e-03 1.302692e-02 -2.284856e-04)	(-1.924208e-03 1.286269e-02 -2.358263e-04)	(-1.132548e-05 1.642253e-04 7.340659e-06)
172           	(-1.932774e-03 1.291237e-02 -1.529325e-04)	(-1.920862e-03 1.274921e-02 -1.597310e-04)	(-1.191117e-05 1.631584e-04 6.798485e-06)
173           	(-1.944289e-03 1.280570e-02 -6.973736e-05)	(-1.931677e-03 1.264365e-02 -7.616916e-05)	(-1.261286e-05 1.620511e-04 6.431801e-06)
174           	(-1.971258e-03 1.271169e-02 1.003853e-05)	(-1.957747e-03 1.255075e-02 3.884665e-06)	(-1.351094e-05 1.609416e-04 6.153865e-06)
175           	(-2.013271e-03 1.263193e-02 7.820714e-05)	(-1.998617e-03 1.247205e-02 7.227072e-05)	(-1.465321e-05 1.598728e-04 5.936421e-06)
176           	(-2.067579e-03 1.256786e-02 1.289618e-04)	(-2.051527e-03 1.240898e-02 1.232218e-04)	(-1.605203e-05 1.588868e-04 5.740027e-06)
177           	(-2.127814e-03 1.248448e-02 1.583893e-04)	(-2.110146e-03 1.232659e-02 1.528621e-04)	(-1.766854e-05 1.578949e-04 5.527144e-06)
178           	(-2.183885e-03 1.246351e-02 1.611790e-04)	(-2.164457e-03 1.230639e-02 1.559057e-04)	(-1.942848e-05 1.571157e-04 5.273329e-06)
179           	(-2.236093e-03 1.245189e-02 1.532643e-04)	(-2.214850e-03 1.229535e-02 1.482973e-04)	(-2.124361e-05 1.565415e-04 4.967026e-06)
180           	(-2.276766e-03 1.244321e-02 1.391242e-04)	(-2.253755e-03 1.228709e-02 1.345102e-04)	(-2.301115e-05 1.561211e-04 4.613969e-06)
181           	(-2.301804e-03 1.241246e-02 1.337449e-04)	(-2.277165e-03 1.225672e-02 1.295157e-04)	(-2.463927e-05 1.557400e-04 4.229160e-06)
182           	(-2.307807e-03 1.237867e-02 1.336567e-04)	(-2.281735e-03 1.222330e-02 1.298358e-04)	(-2.607262e-05 1.553723e-04 3.820869e-06)
183           	(-2.290520e-03 1.233958e-02 1.424403e-04)	(-2.263243e-03 1.218459e-02 1.390319e-04)	(-2.727679e-05 1.549934e-04 3.408335e-06)
184           	(-2.243429e-03 1.229400e-02 1.620187e-04)	(-2.215197e-03 1.213943e-02 1.589927e-04)	(-2.823142e-05 1.545690e-04 3.025999e-06)
185           	(-2.167096e-03 1.224160e-02 1.938014e-04)	(-2.138166e-03 1.208752e-02 1.910790e-04)	(-2.893018e-05 1.540824e-04 2.722488e-06)
186           	(-2.060795e-03 1.218308e-02 2.366879e-04)	(-2.031434e-03 1.202956e-02 2.341516e-04)	(-2.936128e-05 1.535255e-04 2.536293e-06)
187           	(-1.925739e-03 1.211986e-02 2.889644e-04)	(-1.896228e-03 1.196697e-02 2.865041e-04)	(-2.951164e-05 1.528921e-04 2.460292e-06)
188           	(-1.764974e-03 1.205386e-02 3.485418e-04)	(-1.735589e-03 1.190168e-02 3.460795e-04)	(-2.938529e-05 1.521835e-04 2.462278e-06)
189           	(-1.583160e-03 1.198720e-02 4.132792e-04)	(-1.554165e-03 1.183579e-02 4.107460e-04)	(-2.899484e-05 1.514126e-04 2.533171e-06)
190           	(-1.386045e-03 1.192211e-02 4.807752e-04)	(-1.357693e-03 1.177150e-02 4.780798e-04)	(-2.835197e-05 1.506043e-04 2.695362e-06)
191           	(-1.162984e-03 1.176019e-02 5.416314e-04)	(-1.135541e-03 1.161077e-02 5.386468e-04)	(-2.744310e-05 1.494265e-04 2.984559e-06)
192           	(-9.616332e-04 1.171309e-02 6.043427e-04)	(-9.352772e-04 1.156470e-02 6.009598e-04)	(-2.635598e-05 1.483922e-04 3.382876e-06)
193           	(-7.659561e-04 1.167568e-02 6.584933e-04)	(-7.408309e-04 1.152814e-02 6.546100e-04)	(-2.512525e-05 1.475385e-04 3.883336e-06)
194           	(-5.821730e-04 1.164864e-02 6.999448e-04)	(-5.583855e-04 1.150183e-02 6.955125e-04)	(-2.378754e-05 1.468121e-04 4.432235e-06)
195           	(-4.164637e-04 1.163242e-02 7.235619e-04)	(-3.940757e-04 1.148620e-02 7.186098e-04)	(-2.238800e-05 1.462220e-04 4.952067e-06)
196           	(-2.742606e-04 1.162980e-02 7.310680e-04)	(-2.532892e-04 1.148402e-02 7.257020e-04)	(-2.097147e-05 1.457875e-04 5.365906e-06)
197           	(-1.598830e-04 1.164333e-02 7.212166e-04)	(-1.402684e-04 1.149779e-02 7.155942e-04)	(-1.961457e-05 1.455398e-04 5.622429e-06)
198           	(-8.118736e-05 1.166754e-02 6.965638e-04)	(-6.280508e-05 1.152206e-02 6.909048e-04)	(-1.838228e-05 1.454773e-04 5.658989e-06)
199           	(-3.920026e-05 1.170048e-02 6.619819e-04)	(-2.186220e-05 1.155489e-02 6.565320e-04)	(-1.733806e-05 1.455924e-04 5.449813e-06)
200           	(-3.223165e-05 1.173992e-02 6.231544e-04)	(-1.570610e-05 1.159405e-02 6.181524e-04)	(-1.652555e-05 1.458744e-04 5.002024e-06)
201           	(-5.683123e-05 1.178466e-02 5.850274e-04)	(-4.087107e-05 1.163835e-02 5.806665e-04)	(-1.596017e-05 1.463115e-04 4.360883e-06)
202           	(-1.077095e-04 1.183130e-02 5.541442e-04)	(-9.208390e-05 1.168442e-02 5.505541e-04)	(-1.562557e-05 1.468799e-04 3.590029e-06)
203           	(-1.774791e-04 1.187602e-02 5.362131e-04)	(-1.620027e-04 1.172847e-02 5.334546e-04)	(-1.547634e-05 1.475446e-04 2.758462e-06)
204           	(-2.570301e-04 1.191530e-02 5.351856e-04)	(-2.415901e-04 1.176703e-02 5.332507e-04)	(-1.544001e-05 1.482656e-04 1.934897e-06)
205           	(-3.369859e-04 1.194671e-02 5.538509e-04)	(-3.215444e-04 1.179771e-02 5.526569e-04)	(-1.544149e-05 1.490013e-04 1.194087e-06)
206           	(-4.093090e-04 1.196929e-02 5.932540e-04)	(-3.938980e-04 1.181957e-02 5.926431e-04)	(-1.541096e-05 1.497140e-04 6.109330e-07)
207           	(-4.683476e-04 1.198337e-02 6.532358e-04)	(-4.530598e-04 1.183299e-02 6.529817e-04)	(-1.528779e-05 1.503735e-04 2.540648e-07)
208           	(-5.091738e-04 1.198966e-02 7.318435e-04)	(-4.941396e-04 1.183870e-02 7.316735e-04)	(-1.503425e-05 1.509597e-04 1.700068e-07)
209           	(-5.314045e-04 1.199004e-02 8.301615e-04)	(-5.167728e-04 1.183857e-02 8.297814e-04)	(-1.463171e-05 1.514650e-04 3.801601e-07)
210           	(-5.397959e-04 1.198607e-02 9.432890e-04)	(-5.257133e-04 1.183418e-02 9.424079e-04)	(-1.408264e-05 1.518898e-04 8.810567e-07)
211           	(-5.377572e-04 1.197901e-02 1.067200e-03)	(-5.243636e-04 1.182677e-02 1.065546e-03)	(-1.339368e-05 1.522379e-04 1.654176e-06)