# Force       
# CofR        : (0.000000e+00 0.000000e+00 0.000000e+00)
#
# Time        	(total_x total_y total_z)	(pressure_x pressure_y pressure_z)	(viscous_x viscous_y viscous_z)
0.000600024   	(-7.539834e-03 3.687773e-03 9.606494e+02)	(-7.539188e-03 3.687799e-03 9.606494e+02)	(-6.458807e-07 -2.622611e-08 -6.376157e-07)
0.00132009    	(-1.017385e-02 4.243456e-03 9.606498e+02)	(-1.017211e-02 4.243614e-03 9.606498e+02)	(-1.737626e-06 -1.583440e-07 -1.146033e-06)
0.00218416    	(-3.952150e-03 2.427047e-03 9.606500e+02)	(-3.949989e-03 2.427162e-03 9.606500e+02)	(-2.160906e-06 -1.150130e-07 -1.442473e-06)
0.00322105    	(-3.372359e-03 1.912979e-03 9.606500e+02)	(-3.369723e-03 1.913046e-03 9.606500e+02)	(-2.635733e-06 -6.734378e-08 -1.708530e-06)
0.00446527    	(-3.354549e-03 2.008125e-03 9.606500e+02)	(-3.351389e-03 2.008134e-03 9.606500e+02)	(-3.159534e-06 -8.952851e-09 -2.041627e-06)
0.00595826    	(-2.802897e-03 1.806946e-03 9.606501e+02)	(-2.799246e-03 1.806867e-03 9.606501e+02)	(-3.650574e-06 7.929328e-08 -2.360265e-06)
0.00775017    	(-2.103461e-03 1.529559e-03 9.606501e+02)	(-2.099416e-03 1.529348e-03 9.606501e+02)	(-4.045000e-06 2.111379e-07 -2.613097e-06)
0.00990014    	(-1.364939e-03 1.239917e-03 9.606501e+02)	(-1.360664e-03 1.239512e-03 9.606502e+02)	(-4.275117e-06 4.044289e-07 -2.748804e-06)
0.0124803     	(-6.822442e-04 9.844124e-04 9.606502e+02)	(-6.779669e-04 9.837363e-04 9.606502e+02)	(-4.277267e-06 6.761018e-07 -2.748160e-06)
0.0155763     	(-3.497759e-06 7.263142e-04 9.606502e+02)	(4.710734e-07 7.252690e-04 9.606502e+02)	(-3.968832e-06 1.045140e-06 -2.556794e-06)
0.0192904     	(6.011426e-04 4.903366e-04 9.606503e+02)	(6.043777e-04 4.887830e-04 9.606503e+02)	(-3.235080e-06 1.553645e-06 -2.150930e-06)
0.0237454     	(1.066022e-03 3.223438e-04 9.606503e+02)	(1.068172e-03 3.202617e-04 9.606503e+02)	(-2.149617e-06 2.082124e-06 -1.209037e-06)
0.0290905     	(1.345592e-03 2.420856e-04 9.606503e+02)	(1.346537e-03 2.388352e-04 9.606503e+02)	(-9.454776e-07 3.250382e-06 -6.579415e-07)
0.0351305     	(1.400496e-03 2.301043e-04 9.606503e+02)	(1.401403e-03 2.256209e-04 9.606503e+02)	(-9.072579e-07 4.483424e-06 2.929067e-06)
0.0421929     	(1.179075e-03 4.013000e-04 9.606502e+02)	(1.178026e-03 3.964045e-04 9.606502e+02)	(1.049396e-06 4.895466e-06 3.005142e-06)
0.0485409     	(1.015685e-03 4.377626e-04 9.606503e+02)	(1.013020e-03 4.330083e-04 9.606503e+02)	(2.665441e-06 4.754270e-06 1.781455e-06)
0.055717      	(6.461180e-04 7.037941e-04 9.606503e+02)	(6.425196e-04 6.966736e-04 9.606503e+02)	(3.598315e-06 7.120494e-06 1.196962e-06)
0.0604756     	(6.461586e-04 8.354099e-04 9.606502e+02)	(6.433831e-04 8.286141e-04 9.606502e+02)	(2.775450e-06 6.795785e-06 1.066366e-06)
0.066007      	(3.788541e-04 1.057159e-03 9.606501e+02)	(3.758869e-04 1.049531e-03 9.606501e+02)	(2.967232e-06 7.627803e-06 1.533045e-06)
0.0724483     	(6.949507e-05 1.153486e-03 9.606501e+02)	(6.470250e-05 1.144200e-03 9.606501e+02)	(4.792568e-06 9.285848e-06 1.170102e-06)
0.0775493     	(1.075461e-04 1.207486e-03 9.606501e+02)	(1.023377e-04 1.195457e-03 9.606501e+02)	(5.208431e-06 1.202862e-05 1.012590e-06)
0.083273      	(3.564091e-05 1.408549e-03 9.606500e+02)	(3.496713e-05 1.396246e-03 9.606500e+02)	(6.737842e-07 1.230344e-05 3.783883e-07)
0.0884595     	(6.952817e-05 1.538954e-03 9.606501e+02)	(6.574143e-05 1.527713e-03 9.606501e+02)	(3.786744e-06 1.124030e-05 -1.899691e-07)
0.0924045     	(3.311584e-04 1.387072e-03 9.606501e+02)	(3.279268e-04 1.373195e-03 9.606501e+02)	(3.231533e-06 1.387686e-05 -7.280871e-07)
0.096957      	(8.276450e-05 1.479279e-03 9.606500e+02)	(7.518946e-05 1.458073e-03 9.606500e+02)	(7.575041e-06 2.120536e-05 -2.205724e-06)
0.102275      	(5.432160e-04 1.392659e-03 9.606501e+02)	(5.358166e-04 1.376082e-03 9.606501e+02)	(7.399401e-06 1.657707e-05 1.044226e-06)
0.10827       	(2.380504e-04 1.571348e-03 9.606500e+02)	(2.309323e-04 1.554530e-03 9.606500e+02)	(7.118106e-06 1.681741e-05 6.156525e-07)
0.112487      	(5.018149e-04 1.633924e-03 9.606499e+02)	(4.924798e-04 1.615681e-03 9.606499e+02)	(9.335118e-06 1.824312e-05 2.229760e-06)
0.117546      	(4.751754e-04 1.703256e-03 9.606499e+02)	(4.659212e-04 1.683258e-03 9.606499e+02)	(9.254217e-06 1.999831e-05 3.492697e-06)
0.123436      	(5.383131e-04 1.905011e-03 9.606499e+02)	(5.296065e-04 1.879896e-03 9.606499e+02)	(8.706608e-06 2.511478e-05 2.120928e-06)
0.130218      	(5.481821e-04 2.060182e-03 9.606499e+02)	(5.392344e-04 2.035191e-03 9.606499e+02)	(8.947717e-06 2.499047e-05 2.163847e-06)
0.138188      	(5.814993e-04 2.245413e-03 9.606497e+02)	(5.690500e-04 2.220382e-03 9.606497e+02)	(1.244924e-05 2.503113e-05 4.017238e-06)
0.142805      	(7.363725e-04 2.304537e-03 9.606497e+02)	(7.246529e-04 2.282632e-03 9.606497e+02)	(1.171955e-05 2.190540e-05 5.121109e-06)
0.148017      	(7.072453e-04 2.302824e-03 9.606496e+02)	(6.990375e-04 2.278551e-03 9.606496e+02)	(8.207797e-06 2.427370e-05 3.779066e-06)
0.153898      	(7.314685e-04 2.561394e-03 9.606494e+02)	(7.214589e-04 2.536454e-03 9.606494e+02)	(1.000958e-05 2.494017e-05 5.729898e-06)
0.16025       	(6.702848e-04 2.739154e-03 9.606495e+02)	(6.579189e-04 2.713287e-03 9.606495e+02)	(1.236589e-05 2.586714e-05 5.540128e-06)
0.166728      	(6.007695e-04 2.847788e-03 9.606493e+02)	(5.856073e-04 2.818062e-03 9.606493e+02)	(1.516218e-05 2.972605e-05 5.312138e-06)
0.172725      	(7.080155e-04 3.076820e-03 9.606493e+02)	(6.896712e-04 3.044160e-03 9.606493e+02)	(1.834430e-05 3.265975e-05 6.423596e-06)
0.178692      	(6.926810e-04 3.121024e-03 9.606493e+02)	(6.750897e-04 3.083535e-03 9.606493e+02)	(1.759130e-05 3.748886e-05 6.333886e-06)
0.181896      	(9.706197e-04 3.170167e-03 9.606491e+02)	(9.557054e-04 3.130772e-03 9.606491e+02)	(1.491423e-05 3.939516e-05 5.408636e-06)
0.185521      	(6.972220e-04 3.159564e-03 9.606490e+02)	(6.839014e-04 3.118811e-03 9.606490e+02)	(1.332058e-05 4.075252e-05 5.678080e-06)
0.189598      	(7.332150e-04 3.511889e-03 9.606489e+02)	(7.149849e-04 3.471985e-03 9.606489e+02)	(1.823010e-05 3.990390e-05 5.396500e-06)
0.194175      	(8.276185e-04 3.527499e-03 9.606488e+02)	(8.080986e-04 3.485860e-03 9.606488e+02)	(1.951989e-05 4.163907e-05 5.224814e-06)
0.19937       	(8.462779e-04 3.654637e-03 9.606487e+02)	(8.261732e-04 3.610860e-03 9.606487e+02)	(2.010472e-05 4.377761e-05 4.158024e-06)
0.205401      	(8.995553e-04 3.781073e-03 9.606486e+02)	(8.769917e-04 3.734761e-03 9.606486e+02)	(2.256359e-05 4.631280e-05 5.647619e-06)
0.212231      	(9.371094e-04 3.875576e-03 9.606485e+02)	(9.109814e-04 3.825323e-03 9.606484e+02)	(2.612802e-05 5.025280e-05 6.438183e-06)
0.219916      	(1.007040e-03 4.040216e-03 9.606482e+02)	(9.778129e-04 3.987671e-03 9.606482e+02)	(2.922725e-05 5.254443e-05 5.612061e-06)
0.225209      	(9.081191e-04 4.161915e-03 9.606481e+02)	(8.788429e-04 4.106076e-03 9.606481e+02)	(2.927620e-05 5.583860e-05 7.548312e-06)
0.231215      	(9.707250e-04 4.273297e-03 9.606479e+02)	(9.391248e-04 4.215909e-03 9.606479e+02)	(3.160024e-05 5.738758e-05 5.981670e-06)
0.233741      	(1.098772e-03 4.387806e-03 9.606477e+02)	(1.066510e-03 4.327751e-03 9.606477e+02)	(3.226177e-05 6.005499e-05 7.280233e-06)
0.236771      	(9.367208e-04 4.335250e-03 9.606479e+02)	(9.018393e-04 4.272935e-03 9.606479e+02)	(3.488143e-05 6.231511e-05 7.198752e-06)
0.240407      	(1.128477e-03 4.141014e-03 9.606477e+02)	(1.093922e-03 4.078431e-03 9.606477e+02)	(3.455567e-05 6.258334e-05 5.078041e-06)
0.24477       	(1.132736e-03 4.340528e-03 9.606475e+02)	(1.094856e-03 4.277239e-03 9.606475e+02)	(3.788038e-05 6.328901e-05 5.291778e-06)
0.249647      	(1.266736e-03 4.295983e-03 9.606473e+02)	(1.228875e-03 4.231290e-03 9.606473e+02)	(3.786058e-05 6.469298e-05 1.037505e-05)
0.255336      	(1.191833e-03 4.435610e-03 9.606471e+02)	(1.150957e-03 4.368163e-03 9.606471e+02)	(4.087568e-05 6.744635e-05 9.519152e-06)
0.257981      	(1.074945e-03 4.382419e-03 9.606470e+02)	(1.033150e-03 4.314417e-03 9.606470e+02)	(4.179527e-05 6.800240e-05 9.590427e-06)
0.261155      	(1.409227e-03 4.604489e-03 9.606470e+02)	(1.368666e-03 4.533108e-03 9.606470e+02)	(4.056044e-05 7.138101e-05 7.577732e-06)
0.264837      	(1.387624e-03 4.533884e-03 9.606469e+02)	(1.346246e-03 4.459032e-03 9.606469e+02)	(4.137857e-05 7.485243e-05 3.740174e-06)
0.269076      	(1.377238e-03 4.490128e-03 9.606466e+02)	(1.336404e-03 4.413039e-03 9.606466e+02)	(4.083387e-05 7.708887e-05 2.677065e-06)
0.27385       	(1.425814e-03 4.418962e-03 9.606464e+02)	(1.385340e-03 4.340401e-03 9.606464e+02)	(4.047375e-05 7.856106e-05 3.633906e-06)
0.279579      	(1.416605e-03 4.367535e-03 9.606461e+02)	(1.372629e-03 4.286019e-03 9.606461e+02)	(4.397609e-05 8.151638e-05 6.950145e-06)
0.285225      	(1.550723e-03 4.295627e-03 9.606460e+02)	(1.505405e-03 4.212882e-03 9.606460e+02)	(4.531859e-05 8.274474e-05 5.749891e-06)
0.291562      	(1.622365e-03 4.220047e-03 9.606457e+02)	(1.575209e-03 4.135915e-03 9.606457e+02)	(4.715576e-05 8.413180e-05 5.139861e-06)
0.298718      	(1.666102e-03 4.069555e-03 9.606453e+02)	(1.613220e-03 3.981672e-03 9.606453e+02)	(5.288189e-05 8.788222e-05 4.685585e-06)
0.302497      	(1.746238e-03 3.954840e-03 9.606452e+02)	(1.693575e-03 3.866004e-03 9.606452e+02)	(5.266270e-05 8.883574e-05 2.808891e-06)
0.304653      	(1.911069e-03 3.820821e-03 9.606448e+02)	(1.857694e-03 3.731337e-03 9.606448e+02)	(5.337563e-05 8.948381e-05 3.679899e-06)
0.30724       	(2.032773e-03 3.753824e-03 9.606449e+02)	(1.980236e-03 3.662980e-03 9.606449e+02)	(5.253779e-05 9.084484e-05 2.933834e-06)
0.310229      	(2.003574e-03 3.615366e-03 9.606448e+02)	(1.951578e-03 3.522263e-03 9.606448e+02)	(5.199643e-05 9.310264e-05 2.412079e-06)
0.31362       	(2.032536e-03 3.526897e-03 9.606446e+02)	(1.979478e-03 3.432557e-03 9.606446e+02)	(5.305799e-05 9.433986e-05 1.860573e-06)
0.317516      	(2.258038e-03 3.389575e-03 9.606444e+02)	(2.204419e-03 3.293721e-03 9.606444e+02)	(5.361862e-05 9.585368e-05 2.429662e-06)
0.322179      	(2.197524e-03 3.270512e-03 9.606443e+02)	(2.141959e-03 3.174296e-03 9.606443e+02)	(5.556486e-05 9.621562e-05 2.608660e-06)
0.327775      	(2.333849e-03 3.042655e-03 9.606440e+02)	(2.275164e-03 2.944225e-03 9.606440e+02)	(5.868547e-05 9.843092e-05 2.097583e-06)
0.332415      	(2.569298e-03 2.825827e-03 9.606437e+02)	(2.507978e-03 2.727275e-03 9.606437e+02)	(6.132028e-05 9.855143e-05 4.198306e-06)
0.335424      	(2.632256e-03 2.691579e-03 9.606435e+02)	(2.572273e-03 2.591207e-03 9.606435e+02)	(5.998323e-05 1.003723e-04 7.607338e-06)
0.338821      	(2.762158e-03 2.314090e-03 9.606434e+02)	(2.700571e-03 2.213921e-03 9.606434e+02)	(6.158718e-05 1.001693e-04 5.245694e-06)
0.342868      	(2.868575e-03 2.078681e-03 9.606434e+02)	(2.802039e-03 1.978756e-03 9.606434e+02)	(6.653645e-05 9.992467e-05 4.171875e-07)
0.347724      	(3.189777e-03 1.850290e-03 9.606430e+02)	(3.122273e-03 1.750845e-03 9.606430e+02)	(6.750310e-05 9.944518e-05 4.459528e-07)
0.352928      	(3.462874e-03 1.501560e-03 9.606427e+02)	(3.396175e-03 1.401569e-03 9.606427e+02)	(6.669927e-05 9.999142e-05 3.337734e-06)
0.359018      	(3.752456e-03 9.829061e-04 9.606425e+02)	(3.684920e-03 8.809817e-04 9.606425e+02)	(6.753585e-05 1.019244e-04 2.550237e-06)
0.365924      	(4.068837e-03 3.445909e-04 9.606421e+02)	(3.999110e-03 2.418250e-04 9.606421e+02)	(6.972688e-05 1.027660e-04 3.560916e-06)
0.373609      	(4.661769e-03 -3.213822e-04 9.606417e+02)	(4.589795e-03 -4.246594e-04 9.606417e+02)	(7.197447e-05 1.032772e-04 3.999332e-06)
0.382273      	(5.196609e-03 -1.181347e-03 9.606413e+02)	(5.124486e-03 -1.283217e-03 9.606413e+02)	(7.212356e-05 1.018693e-04 4.319931e-06)
0.387932      	(5.679012e-03 -1.845613e-03 9.606409e+02)	(5.606133e-03 -1.945445e-03 9.606409e+02)	(7.287876e-05 9.983193e-05 3.448686e-06)
0.39432       	(6.238720e-03 -2.742883e-03 9.606406e+02)	(6.163037e-03 -2.842550e-03 9.606405e+02)	(7.568291e-05 9.966700e-05 5.757058e-06)
0.401562      	(6.912136e-03 -3.666218e-03 9.606402e+02)	(6.834798e-03 -3.764868e-03 9.606402e+02)	(7.733804e-05 9.865045e-05 7.892966e-06)
0.404478      	(7.080352e-03 -4.001162e-03 9.606400e+02)	(6.998945e-03 -4.098477e-03 9.606400e+02)	(8.140754e-05 9.731456e-05 8.127844e-06)
0.407739      	(7.411072e-03 -4.797959e-03 9.606398e+02)	(7.326826e-03 -4.892675e-03 9.606398e+02)	(8.424589e-05 9.471586e-05 7.954408e-06)
0.411461      	(8.053552e-03 -5.217609e-03 9.606395e+02)	(7.970176e-03 -5.310198e-03 9.606395e+02)	(8.337633e-05 9.258958e-05 6.219054e-06)
0.415777      	(8.396435e-03 -5.731725e-03 9.606392e+02)	(8.311478e-03 -5.823962e-03 9.606392e+02)	(8.495712e-05 9.223672e-05 7.427838e-06)
0.420957      	(9.005950e-03 -6.593786e-03 9.606389e+02)	(8.918203e-03 -6.682809e-03 9.606389e+02)	(8.774695e-05 8.902362e-05 5.838259e-06)
0.426974      	(9.762010e-03 -7.540357e-03 9.606386e+02)	(9.670884e-03 -7.624742e-03 9.606386e+02)	(9.112599e-05 8.438458e-05 5.034391e-06)
0.433709      	(1.067792e-02 -8.649366e-03 9.606381e+02)	(1.058395e-02 -8.727618e-03 9.606381e+02)	(9.396454e-05 7.825116e-05 5.953406e-06)
0.439897      	(1.155828e-02 -9.740874e-03 9.606376e+02)	(1.146448e-02 -9.814326e-03 9.606376e+02)	(9.380738e-05 7.345219e-05 8.188867e-06)
0.446977      	(1.255571e-02 -1.110110e-02 9.606372e+02)	(1.245846e-02 -1.116631e-02 9.606372e+02)	(9.725300e-05 6.520958e-05 8.631823e-06)
0.453472      	(1.357537e-02 -1.215893e-02 9.606366e+02)	(1.347239e-02 -1.221736e-02 9.606366e+02)	(1.029793e-04 5.842988e-05 1.118299e-05)
0.454832      	(1.367373e-02 -1.216130e-02 9.606366e+02)	(1.357085e-02 -1.221756e-02 9.606366e+02)	(1.028814e-04 5.625739e-05 1.204208e-05)
0.456393      	(1.420799e-02 -1.278903e-02 9.606361e+02)	(1.409953e-02 -1.284168e-02 9.606361e+02)	(1.084678e-04 5.265122e-05 7.638695e-06)
0.458215      	(1.381333e-02 -1.341374e-02 9.606359e+02)	(1.369932e-02 -1.346218e-02 9.606359e+02)	(1.140101e-04 4.843920e-05 5.173887e-06)
0.460312      	(1.425004e-02 -1.381587e-02 9.606360e+02)	(1.413131e-02 -1.386203e-02 9.606360e+02)	(1.187333e-04 4.615520e-05 4.262920e-06)
0.46274       	(1.460971e-02 -1.417379e-02 9.606355e+02)	(1.448653e-02 -1.421914e-02 9.606355e+02)	(1.231843e-04 4.534515e-05 5.760498e-06)
0.465556      	(1.528033e-02 -1.451964e-02 9.606355e+02)	(1.515245e-02 -1.456129e-02 9.606355e+02)	(1.278887e-04 4.164969e-05 8.808979e-06)
0.468825      	(1.593255e-02 -1.524795e-02 9.606354e+02)	(1.580063e-02 -1.528546e-02 9.606354e+02)	(1.319177e-04 3.751017e-05 1.156899e-05)
0.472589      	(1.656748e-02 -1.592651e-02 9.606351e+02)	(1.643370e-02 -1.596117e-02 9.606351e+02)	(1.337768e-04 3.465805e-05 1.404527e-05)
0.476828      	(1.739721e-02 -1.674416e-02 9.606347e+02)	(1.726161e-02 -1.677377e-02 9.606347e+02)	(1.355962e-04 2.961865e-05 1.503843e-05)
0.481486      	(1.816629e-02 -1.770234e-02 9.606343e+02)	(1.802887e-02 -1.772613e-02 9.606342e+02)	(1.374227e-04 2.379429e-05 1.531747e-05)
0.486686      	(1.892882e-02 -1.881130e-02 9.606336e+02)	(1.878659e-02 -1.883075e-02 9.606336e+02)	(1.422328e-04 1.944994e-05 1.657737e-05)
0.49264       	(1.992522e-02 -2.006543e-02 9.606330e+02)	(1.977764e-02 -2.007864e-02 9.606330e+02)	(1.475813e-04 1.320793e-05 1.828057e-05)
0.499511      	(2.113458e-02 -2.143124e-02 9.606322e+02)	(2.098110e-02 -2.143684e-02 9.606321e+02)	(1.534803e-04 5.604421e-06 2.136176e-05)
0.50762       	(2.262791e-02 -2.308618e-02 9.606312e+02)	(2.246666e-02 -2.308119e-02 9.606312e+02)	(1.612508e-04 -4.993172e-06 2.367956e-05)
0.516605      	(2.413485e-02 -2.481159e-02 9.606301e+02)	(2.396360e-02 -2.479334e-02 9.606301e+02)	(1.712489e-04 -1.824233e-05 2.424584e-05)
0.519204      	(2.411344e-02 -2.489079e-02 9.606296e+02)	(2.393972e-02 -2.487009e-02 9.606295e+02)	(1.737115e-04 -2.069408e-05 2.420917e-05)
0.521584      	(2.469268e-02 -2.574841e-02 9.606292e+02)	(2.451925e-02 -2.572365e-02 9.606292e+02)	(1.734237e-04 -2.476013e-05 2.328441e-05)
0.524299      	(2.529758e-02 -2.622445e-02 9.606289e+02)	(2.512364e-02 -2.619053e-02 9.606289e+02)	(1.739431e-04 -3.392304e-05 2.119993e-05)
0.527559      	(2.584705e-02 -2.696798e-02 9.606285e+02)	(2.566900e-02 -2.693023e-02 9.606285e+02)	(1.780488e-04 -3.774626e-05 2.143391e-05)
0.531472      	(2.645249e-02 -2.772186e-02 9.606280e+02)	(2.627000e-02 -2.767967e-02 9.606279e+02)	(1.824867e-04 -4.219033e-05 2.206085e-05)
0.536166      	(2.715996e-02 -2.850165e-02 9.606272e+02)	(2.697180e-02 -2.845124e-02 9.606272e+02)	(1.881625e-04 -5.041261e-05 2.205417e-05)
0.541718      	(2.801155e-02 -2.935021e-02 9.606264e+02)	(2.781814e-02 -2.928788e-02 9.606264e+02)	(1.934141e-04 -6.233142e-05 2.072052e-05)
0.548382      	(2.880768e-02 -3.046663e-02 9.606254e+02)	(2.860599e-02 -3.039343e-02 9.606253e+02)	(2.016917e-04 -7.320502e-05 1.920097e-05)
0.552256      	(2.925451e-02 -3.087408e-02 9.606247e+02)	(2.905071e-02 -3.079627e-02 9.606247e+02)	(2.037999e-04 -7.780931e-05 1.872621e-05)
0.556695      	(2.982831e-02 -3.177706e-02 9.606240e+02)	(2.961917e-02 -3.169332e-02 9.606240e+02)	(2.091340e-04 -8.374699e-05 1.758910e-05)
0.561643      	(3.035228e-02 -3.246308e-02 9.606232e+02)	(3.013667e-02 -3.237058e-02 9.606232e+02)	(2.156139e-04 -9.249678e-05 1.585507e-05)
0.566636      	(3.077390e-02 -3.306448e-02 9.606224e+02)	(3.055040e-02 -3.296245e-02 9.606224e+02)	(2.234986e-04 -1.020317e-04 1.385448e-05)
0.572198      	(3.141045e-02 -3.376598e-02 9.606215e+02)	(3.118034e-02 -3.365590e-02 9.606215e+02)	(2.301182e-04 -1.100808e-04 8.993256e-06)
0.57502       	(3.126741e-02 -3.361778e-02 9.606210e+02)	(3.103460e-02 -3.350246e-02 9.606210e+02)	(2.328028e-04 -1.153196e-04 7.811008e-06)
0.578236      	(3.161513e-02 -3.430192e-02 9.606205e+02)	(3.137644e-02 -3.417975e-02 9.606205e+02)	(2.386906e-04 -1.221683e-04 6.133294e-06)
0.581873      	(3.198937e-02 -3.464502e-02 9.606198e+02)	(3.174799e-02 -3.451832e-02 9.606198e+02)	(2.413814e-04 -1.267034e-04 6.794670e-06)
0.586234      	(3.219845e-02 -3.494865e-02 9.606191e+02)	(3.195475e-02 -3.481383e-02 9.606191e+02)	(2.436997e-04 -1.348236e-04 5.875097e-06)
0.591216      	(3.240285e-02 -3.528966e-02 9.606183e+02)	(3.215604e-02 -3.515043e-02 9.606183e+02)	(2.468073e-04 -1.392304e-04 3.610290e-06)
0.592868      	(3.169547e-02 -3.469726e-02 9.606180e+02)	(3.144490e-02 -3.455606e-02 9.606180e+02)	(2.505708e-04 -1.412044e-04 4.062723e-06)
0.594052      	(3.151984e-02 -3.462940e-02 9.606177e+02)	(3.126802e-02 -3.449009e-02 9.606177e+02)	(2.518125e-04 -1.393066e-04 6.170135e-06)
0.595374      	(3.089782e-02 -3.468343e-02 9.606177e+02)	(3.064698e-02 -3.454677e-02 9.606177e+02)	(2.508435e-04 -1.366542e-04 3.048486e-06)
0.596898      	(3.184546e-02 -3.514470e-02 9.606174e+02)	(3.159243e-02 -3.500971e-02 9.606173e+02)	(2.530267e-04 -1.349871e-04 1.517292e-06)
0.598726      	(3.223345e-02 -3.544879e-02 9.606170e+02)	(3.197664e-02 -3.531196e-02 9.606170e+02)	(2.568165e-04 -1.368334e-04 2.051447e-06)
0.60092       	(3.237871e-02 -3.560726e-02 9.606167e+02)	(3.211815e-02 -3.546429e-02 9.606167e+02)	(2.605630e-04 -1.429692e-04 2.678389e-06)
0.603553      	(3.248748e-02 -3.577780e-02 9.606162e+02)	(3.222373e-02 -3.562836e-02 9.606162e+02)	(2.637544e-04 -1.494361e-04 2.902962e-06)
0.606711      	(3.248799e-02 -3.589999e-02 9.606157e+02)	(3.222093e-02 -3.574479e-02 9.606157e+02)	(2.670619e-04 -1.551962e-04 1.214794e-06)
0.610502      	(3.244314e-02 -3.593872e-02 9.606151e+02)	(3.217255e-02 -3.577742e-02 9.606151e+02)	(2.705914e-04 -1.613004e-04 -1.903547e-06)
0.61505       	(3.233488e-02 -3.597298e-02 9.606144e+02)	(3.205995e-02 -3.580374e-02 9.606144e+02)	(2.749337e-04 -1.692404e-04 -5.792163e-06)
0.620511      	(3.211952e-02 -3.586014e-02 9.606135e+02)	(3.184046e-02 -3.568246e-02 9.606136e+02)	(2.790522e-04 -1.776816e-04 -9.515680e-06)
0.627067      	(3.175734e-02 -3.565178e-02 9.606125e+02)	(3.147496e-02 -3.546364e-02 9.606126e+02)	(2.823848e-04 -1.881366e-04 -1.527631e-05)
0.634607      	(3.109098e-02 -3.522369e-02 9.606115e+02)	(3.080369e-02 -3.502525e-02 9.606115e+02)	(2.872944e-04 -1.984367e-04 -2.046858e-05)
0.643183      	(3.018564e-02 -3.449878e-02 9.606103e+02)	(2.989474e-02 -3.428778e-02 9.606103e+02)	(2.908928e-04 -2.109969e-04 -2.830533e-05)
0.652717      	(2.896239e-02 -3.341693e-02 9.606091e+02)	(2.866986e-02 -3.319473e-02 9.606091e+02)	(2.925303e-04 -2.222041e-04 -3.572943e-05)
0.660782      	(2.757323e-02 -3.215454e-02 9.606082e+02)	(2.728027e-02 -3.192367e-02 9.606083e+02)	(2.929579e-04 -2.308621e-04 -4.374277e-05)
0.669358      	(2.598783e-02 -3.063055e-02 9.606073e+02)	(2.569656e-02 -3.039244e-02 9.606073e+02)	(2.912743e-04 -2.381088e-04 -5.053088e-05)
0.677734      	(2.421273e-02 -2.889468e-02 9.606066e+02)	(2.392230e-02 -2.865026e-02 9.606066e+02)	(2.904340e-04 -2.444236e-04 -5.622365e-05)
0.685048      	(2.247723e-02 -2.711352e-02 9.606060e+02)	(2.218814e-02 -2.686268e-02 9.606061e+02)	(2.890883e-04 -2.508333e-04 -6.246155e-05)
0.690234      	(2.106139e-02 -2.560592e-02 9.606058e+02)	(2.077559e-02 -2.535280e-02 9.606059e+02)	(2.858055e-04 -2.531203e-04 -6.696683e-05)
0.696098      	(1.953871e-02 -2.399891e-02 9.606054e+02)	(1.925320e-02 -2.374572e-02 9.606055e+02)	(2.855101e-04 -2.531970e-04 -7.471306e-05)
0.70276       	(1.750613e-02 -2.212571e-02 9.606052e+02)	(1.722417e-02 -2.187306e-02 9.606052e+02)	(2.819583e-04 -2.526497e-04 -8.186278e-05)
0.708341      	(1.595822e-02 -2.028568e-02 9.606051e+02)	(1.568025e-02 -2.003225e-02 9.606051e+02)	(2.779726e-04 -2.534244e-04 -8.389725e-05)
0.714708      	(1.393080e-02 -1.820559e-02 9.606048e+02)	(1.365609e-02 -1.794781e-02 9.606049e+02)	(2.747094e-04 -2.577800e-04 -8.832108e-05)
0.719507      	(1.227911e-02 -1.640976e-02 9.606049e+02)	(1.200702e-02 -1.615265e-02 9.606050e+02)	(2.720852e-04 -2.571057e-04 -9.300097e-05)
0.725222      	(1.039134e-02 -1.433076e-02 9.606048e+02)	(1.012324e-02 -1.407314e-02 9.606049e+02)	(2.680928e-04 -2.576178e-04 -9.667303e-05)
0.729313      	(8.855911e-03 -1.258621e-02 9.606049e+02)	(8.591713e-03 -1.232871e-02 9.606050e+02)	(2.641983e-04 -2.575014e-04 -9.967724e-05)
0.734063      	(7.128022e-03 -1.067578e-02 9.606049e+02)	(6.872519e-03 -1.041840e-02 9.606050e+02)	(2.555031e-04 -2.573808e-04 -1.014643e-04)
0.739409      	(5.107221e-03 -8.642768e-03 9.606050e+02)	(4.856558e-03 -8.389916e-03 9.606051e+02)	(2.506629e-04 -2.528516e-04 -1.072468e-04)
0.745401      	(2.872225e-03 -6.234506e-03 9.606051e+02)	(2.629177e-03 -5.985038e-03 9.606052e+02)	(2.430480e-04 -2.494675e-04 -1.101019e-04)
0.749743      	(1.010999e-03 -4.298925e-03 9.606054e+02)	(7.741654e-04 -4.054355e-03 9.606055e+02)	(2.368337e-04 -2.445705e-04 -1.139468e-04)
0.754784      	(-9.919440e-04 -2.109479e-03 9.606054e+02)	(-1.222168e-03 -1.869243e-03 9.606055e+02)	(2.302237e-04 -2.402356e-04 -1.162705e-04)
0.7606        	(-3.304200e-03 3.403293e-04 9.606056e+02)	(-3.526568e-03 5.753332e-04 9.606057e+02)	(2.223680e-04 -2.350039e-04 -1.201938e-04)
0.765701      	(-5.501452e-03 2.698063e-03 9.606059e+02)	(-5.716649e-03 2.926725e-03 9.606060e+02)	(2.151976e-04 -2.286615e-04 -1.225843e-04)
0.771542      	(-8.058317e-03 5.436626e-03 9.606063e+02)	(-8.265795e-03 5.657703e-03 9.606064e+02)	(2.074772e-04 -2.210769e-04 -1.267017e-04)
0.778077      	(-1.083344e-02 8.656427e-03 9.606067e+02)	(-1.102885e-02 8.867192e-03 9.606069e+02)	(1.954147e-04 -2.107648e-04 -1.268895e-04)
0.784583      	(-1.365812e-02 1.171137e-02 9.606072e+02)	(-1.384280e-02 1.191070e-02 9.606074e+02)	(1.846843e-04 -1.993244e-04 -1.326975e-04)
0.791179      	(-1.662162e-02 1.496487e-02 9.606080e+02)	(-1.679542e-02 1.515477e-02 9.606081e+02)	(1.737943e-04 -1.899009e-04 -1.382505e-04)
0.795744      	(-1.859192e-02 1.697801e-02 9.606087e+02)	(-1.875501e-02 1.715800e-02 9.606088e+02)	(1.630853e-04 -1.799946e-04 -1.389005e-04)
0.798752      	(-1.986721e-02 1.835391e-02 9.606093e+02)	(-2.002296e-02 1.852758e-02 9.606094e+02)	(1.557520e-04 -1.736655e-04 -1.426525e-04)
0.802343      	(-2.181125e-02 2.031736e-02 9.606094e+02)	(-2.195990e-02 2.048504e-02 9.606096e+02)	(1.486477e-04 -1.676847e-04 -1.430821e-04)
0.806486      	(-2.356770e-02 2.252792e-02 9.606099e+02)	(-2.370830e-02 2.268709e-02 9.606100e+02)	(1.405928e-04 -1.591738e-04 -1.430116e-04)
0.811443      	(-2.587370e-02 2.480522e-02 9.606105e+02)	(-2.600232e-02 2.495190e-02 9.606107e+02)	(1.286221e-04 -1.466816e-04 -1.454101e-04)
0.817359      	(-2.850493e-02 2.769793e-02 9.606112e+02)	(-2.862078e-02 2.783056e-02 9.606114e+02)	(1.158488e-04 -1.326331e-04 -1.492025e-04)
0.82425       	(-3.152125e-02 3.093446e-02 9.606123e+02)	(-3.162070e-02 3.104920e-02 9.606124e+02)	(9.945230e-05 -1.147424e-04 -1.518832e-04)
0.832099      	(-3.493914e-02 3.447740e-02 9.606136e+02)	(-3.501952e-02 3.457281e-02 9.606137e+02)	(8.037371e-05 -9.540529e-05 -1.523691e-04)
0.836852      	(-3.682146e-02 3.645458e-02 9.606144e+02)	(-3.689073e-02 3.653586e-02 9.606145e+02)	(6.926698e-05 -8.128459e-05 -1.524969e-04)
0.84238       	(-3.938177e-02 3.911335e-02 9.606154e+02)	(-3.943496e-02 3.918041e-02 9.606155e+02)	(5.319577e-05 -6.706515e-05 -1.529821e-04)
0.848728      	(-4.196851e-02 4.184611e-02 9.606165e+02)	(-4.200583e-02 4.189658e-02 9.606166e+02)	(3.731170e-05 -5.047286e-05 -1.540900e-04)
0.851385      	(-4.257319e-02 4.238723e-02 9.606172e+02)	(-4.260350e-02 4.243074e-02 9.606174e+02)	(3.030921e-05 -4.350918e-05 -1.535025e-04)
0.854562      	(-4.431002e-02 4.390889e-02 9.606179e+02)	(-4.433188e-02 4.394141e-02 9.606181e+02)	(2.186353e-05 -3.252108e-05 -1.547192e-04)
0.858372      	(-4.577682e-02 4.551920e-02 9.606186e+02)	(-4.578804e-02 4.553966e-02 9.606187e+02)	(1.122548e-05 -2.046320e-05 -1.548015e-04)
0.862723      	(-4.723813e-02 4.722054e-02 9.606193e+02)	(-4.723793e-02 4.722594e-02 9.606194e+02)	(-1.947480e-07 -5.402065e-06 -1.515257e-04)
0.86794       	(-4.928528e-02 4.912137e-02 9.606203e+02)	(-4.927041e-02 4.911184e-02 9.606204e+02)	(-1.486876e-05 9.531166e-06 -1.468413e-04)
0.874201      	(-5.144186e-02 5.131336e-02 9.606217e+02)	(-5.141082e-02 5.128581e-02 9.606218e+02)	(-3.103562e-05 2.755013e-05 -1.474071e-04)
0.881205      	(-5.361241e-02 5.351416e-02 9.606231e+02)	(-5.355781e-02 5.346469e-02 9.606232e+02)	(-5.460290e-05 4.946672e-05 -1.429599e-04)
0.889493      	(-5.595705e-02 5.586980e-02 9.606249e+02)	(-5.587645e-02 5.579495e-02 9.606250e+02)	(-8.060176e-05 7.485574e-05 -1.379780e-04)
0.891459      	(-5.501457e-02 5.480262e-02 9.606252e+02)	(-5.492777e-02 5.472359e-02 9.606254e+02)	(-8.680179e-05 7.903588e-05 -1.382173e-04)
0.893728      	(-5.574327e-02 5.600293e-02 9.606259e+02)	(-5.565004e-02 5.591895e-02 9.606260e+02)	(-9.322928e-05 8.397961e-05 -1.360380e-04)
0.89628       	(-5.711097e-02 5.716587e-02 9.606265e+02)	(-5.701110e-02 5.707441e-02 9.606266e+02)	(-9.987503e-05 9.145609e-05 -1.349039e-04)
0.899265      	(-5.812904e-02 5.796287e-02 9.606271e+02)	(-5.802061e-02 5.785984e-02 9.606272e+02)	(-1.084241e-04 1.030304e-04 -1.330727e-04)
0.902651      	(-5.872363e-02 5.857812e-02 9.606277e+02)	(-5.860453e-02 5.846295e-02 9.606279e+02)	(-1.191095e-04 1.151695e-04 -1.294243e-04)
0.906672      	(-5.956946e-02 5.944254e-02 9.606286e+02)	(-5.943849e-02 5.931462e-02 9.606287e+02)	(-1.309675e-04 1.279190e-04 -1.248529e-04)
0.911426      	(-6.028693e-02 6.009078e-02 9.606296e+02)	(-6.014393e-02 5.994868e-02 9.606297e+02)	(-1.429984e-04 1.421006e-04 -1.179843e-04)
0.917128      	(-6.089488e-02 6.082557e-02 9.606308e+02)	(-6.073533e-02 6.066634e-02 9.606309e+02)	(-1.595489e-04 1.592376e-04 -1.103798e-04)
0.923899      	(-6.136629e-02 6.142766e-02 9.606322e+02)	(-6.118698e-02 6.125095e-02 9.606323e+02)	(-1.793100e-04 1.767120e-04 -1.018294e-04)
0.931845      	(-6.166100e-02 6.178168e-02 9.606339e+02)	(-6.146081e-02 6.158361e-02 9.606340e+02)	(-2.001870e-04 1.980687e-04 -9.161516e-05)
0.935166      	(-6.038744e-02 6.071184e-02 9.606344e+02)	(-6.017850e-02 6.050329e-02 9.606345e+02)	(-2.089426e-04 2.085523e-04 -8.359542e-05)
0.939015      	(-6.074270e-02 6.115372e-02 9.606352e+02)	(-6.052515e-02 6.093441e-02 9.606353e+02)	(-2.175459e-04 2.193106e-04 -7.723763e-05)
0.943386      	(-6.042780e-02 6.104565e-02 9.606361e+02)	(-6.020008e-02 6.081558e-02 9.606362e+02)	(-2.277289e-04 2.300604e-04 -7.121635e-05)
0.948352      	(-5.965338e-02 6.068258e-02 9.606369e+02)	(-5.941233e-02 6.044095e-02 9.606369e+02)	(-2.410557e-04 2.416377e-04 -6.239740e-05)
0.953879      	(-5.841573e-02 5.998718e-02 9.606378e+02)	(-5.816471e-02 5.973325e-02 9.606379e+02)	(-2.510189e-04 2.539353e-04 -5.065051e-05)
0.960182      	(-5.667622e-02 5.887172e-02 9.606388e+02)	(-5.641568e-02 5.860676e-02 9.606389e+02)	(-2.605386e-04 2.649646e-04 -3.665845e-05)
0.967747      	(-5.403225e-02 5.711456e-02 9.606400e+02)	(-5.376143e-02 5.683300e-02 9.606400e+02)	(-2.708244e-04 2.815617e-04 -1.734933e-05)
0.976828      	(-4.989835e-02 5.442217e-02 9.606412e+02)	(-4.961771e-02 5.412325e-02 9.606412e+02)	(-2.806425e-04 2.989169e-04 7.561161e-06)
0.981294      	(-4.645583e-02 5.177337e-02 9.606412e+02)	(-4.617391e-02 5.146721e-02 9.606411e+02)	(-2.819162e-04 3.061608e-04 1.951010e-05)
0.986459      	(-4.369645e-02 5.025102e-02 9.606419e+02)	(-4.341391e-02 4.993715e-02 9.606419e+02)	(-2.825329e-04 3.138742e-04 3.615547e-05)
0.991546      	(-4.013378e-02 4.796660e-02 9.606423e+02)	(-3.984773e-02 4.764264e-02 9.606422e+02)	(-2.860496e-04 3.239554e-04 5.060788e-05)
0.996992      	(-3.599290e-02 4.537393e-02 9.606427e+02)	(-3.570937e-02 4.504111e-02 9.606426e+02)	(-2.835272e-04 3.328260e-04 6.942427e-05)
1.00319       	(-3.051708e-02 4.226929e-02 9.606430e+02)	(-3.023994e-02 4.192879e-02 9.606429e+02)	(-2.771425e-04 3.405054e-04 9.373771e-05)
1.01028       	(-2.327698e-02 3.839578e-02 9.606432e+02)	(-2.301262e-02 3.804600e-02 9.606431e+02)	(-2.643610e-04 3.497834e-04 1.248692e-04)
1.01842       	(-1.366747e-02 3.341943e-02 9.606432e+02)	(-1.342489e-02 3.305761e-02 9.606430e+02)	(-2.425801e-04 3.618195e-04 1.595402e-04)
1.02806       	(3.872283e-04 2.635955e-02 9.606426e+02)	(5.909722e-04 2.598567e-02 9.606424e+02)	(-2.037440e-04 3.738859e-04 2.075023e-04)
1.03937       	(2.086634e-02 1.624418e-02 9.606409e+02)	(2.100601e-02 1.585476e-02 9.606407e+02)	(-1.396628e-04 3.894192e-04 2.698869e-04)