# Moment      
# CofR        : (0.000000e+00 0.000000e+00 0.000000e+00)
#
# Time        	(total_x total_y total_z)	(pressure_x pressure_y pressure_z)	(viscous_x viscous_y viscous_z)
0.000600024   	(-1.789898e-04 -8.653503e-05 -1.151877e-03)	(-1.790288e-04 -8.646200e-05 -1.151802e-03)	(3.902181e-08 -7.302402e-08 -7.505232e-08)
0.00132009    	(-1.793680e-04 -1.618809e-04 -1.437858e-03)	(-1.794822e-04 -1.616804e-04 -1.437670e-03)	(1.142626e-07 -2.004393e-07 -1.875517e-07)
0.00218416    	(-1.794089e-04 2.886145e-05 -6.169004e-04)	(-1.795464e-04 2.911190e-05 -6.166582e-04)	(1.375459e-07 -2.504424e-07 -2.421741e-07)
0.00322105    	(-1.706072e-04 4.558334e-05 -5.709497e-04)	(-1.707676e-04 4.588354e-05 -5.706434e-04)	(1.603593e-07 -3.002030e-07 -3.063014e-07)
0.00446527    	(-1.717048e-04 4.502934e-05 -5.490177e-04)	(-1.718924e-04 4.538867e-05 -5.486418e-04)	(1.876837e-07 -3.593307e-07 -3.758363e-07)
0.00595826    	(-1.701369e-04 6.131030e-05 -4.688136e-04)	(-1.703484e-04 6.172541e-05 -4.683688e-04)	(2.115189e-07 -4.151112e-07 -4.448500e-07)
0.00775017    	(-1.677562e-04 8.205682e-05 -3.723366e-04)	(-1.679833e-04 8.251650e-05 -3.718289e-04)	(2.270393e-07 -4.596843e-07 -5.076868e-07)
0.00990014    	(-1.652860e-04 1.039307e-04 -2.709687e-04)	(-1.655150e-04 1.044158e-04 -2.704099e-04)	(2.290188e-07 -4.850275e-07 -5.588294e-07)
0.0124803     	(-1.634197e-04 1.243014e-04 -1.759006e-04)	(-1.636332e-04 1.247863e-04 -1.753078e-04)	(2.134487e-07 -4.849302e-07 -5.928405e-07)
0.0155763     	(-1.617850e-04 1.448701e-04 -8.114130e-05)	(-1.619590e-04 1.453200e-04 -8.053778e-05)	(1.740474e-07 -4.498578e-07 -6.035263e-07)
0.0192904     	(-1.595099e-04 1.625325e-04 2.675700e-06)	(-1.596131e-04 1.629002e-04 3.245988e-06)	(1.032874e-07 -3.677649e-07 -5.702884e-07)
0.0237454     	(-1.595961e-04 1.776071e-04 6.523563e-05)	(-1.595950e-04 1.778398e-04 6.574690e-05)	(-1.132375e-09 -2.327287e-07 -5.112613e-07)
0.0290905     	(-1.593903e-04 1.859251e-04 1.007348e-04)	(-1.593015e-04 1.860655e-04 1.012019e-04)	(-8.878288e-08 -1.403952e-07 -4.670632e-07)
0.0351305     	(-1.587860e-04 1.868531e-04 1.037205e-04)	(-1.582878e-04 1.866378e-04 1.043048e-04)	(-4.982093e-07 2.153008e-07 -5.843517e-07)
0.0421929     	(-1.743856e-04 1.931927e-04 6.452960e-05)	(-1.737989e-04 1.928174e-04 6.473802e-05)	(-5.866884e-07 3.752391e-07 -2.084152e-07)
0.0485409     	(-1.649290e-04 1.790616e-04 3.706329e-05)	(-1.643088e-04 1.785665e-04 3.719672e-05)	(-6.201772e-07 4.951021e-07 -1.334315e-07)
0.055717      	(-1.556658e-04 1.545992e-04 -2.833950e-05)	(-1.546889e-04 1.538562e-04 -2.795192e-05)	(-9.769562e-07 7.430198e-07 -3.875780e-07)
0.0604756     	(-1.624529e-04 1.584683e-04 -6.660357e-05)	(-1.614895e-04 1.577626e-04 -6.626478e-05)	(-9.634155e-07 7.057289e-07 -3.387809e-07)
0.066007      	(-1.663800e-04 1.510513e-04 -8.332883e-05)	(-1.656461e-04 1.505325e-04 -8.249142e-05)	(-7.339080e-07 5.188235e-07 -8.374076e-07)
0.0724483     	(-1.560421e-04 1.311275e-04 -1.296111e-04)	(-1.550472e-04 1.302755e-04 -1.281082e-04)	(-9.949559e-07 8.520364e-07 -1.502932e-06)
0.0775493     	(-1.634899e-04 1.380031e-04 -1.386427e-04)	(-1.623369e-04 1.371302e-04 -1.371820e-04)	(-1.153041e-06 8.729096e-07 -1.460676e-06)
0.083273      	(-1.750531e-04 1.435567e-04 -1.881937e-04)	(-1.738446e-04 1.428192e-04 -1.874850e-04)	(-1.208517e-06 7.374918e-07 -7.086974e-07)
0.0884595     	(-1.670426e-04 1.328199e-04 -1.546449e-04)	(-1.658487e-04 1.319895e-04 -1.537000e-04)	(-1.193850e-06 8.304261e-07 -9.449220e-07)
0.0924045     	(-1.675919e-04 1.433470e-04 -1.602591e-04)	(-1.663530e-04 1.425657e-04 -1.596038e-04)	(-1.238933e-06 7.813398e-07 -6.552891e-07)
0.096957      	(-1.611936e-04 1.281240e-04 -1.361189e-04)	(-1.593307e-04 1.268720e-04 -1.356247e-04)	(-1.862901e-06 1.251983e-06 -4.942081e-07)
0.102275      	(-1.354680e-04 1.157175e-04 -2.311020e-04)	(-1.338491e-04 1.145459e-04 -2.301908e-04)	(-1.618900e-06 1.171631e-06 -9.112549e-07)
0.10827       	(-1.512546e-04 1.197596e-04 -1.704797e-04)	(-1.493589e-04 1.182898e-04 -1.691975e-04)	(-1.895734e-06 1.469780e-06 -1.282267e-06)
0.112487      	(-1.526781e-04 1.258910e-04 -1.854950e-04)	(-1.507569e-04 1.243864e-04 -1.839158e-04)	(-1.921295e-06 1.504569e-06 -1.579226e-06)
0.117546      	(-1.498095e-04 1.206650e-04 -2.265885e-04)	(-1.479798e-04 1.193445e-04 -2.253137e-04)	(-1.829703e-06 1.320437e-06 -1.274852e-06)
0.123436      	(-1.434703e-04 1.111840e-04 -2.504941e-04)	(-1.409614e-04 1.095279e-04 -2.501412e-04)	(-2.508935e-06 1.656094e-06 -3.529719e-07)
0.130218      	(-1.405616e-04 1.044179e-04 -2.631525e-04)	(-1.383109e-04 1.029999e-04 -2.620339e-04)	(-2.250762e-06 1.417987e-06 -1.118613e-06)
0.138188      	(-1.302980e-04 9.083367e-05 -2.803073e-04)	(-1.285063e-04 8.976189e-05 -2.786385e-04)	(-1.791705e-06 1.071787e-06 -1.668775e-06)
0.142805      	(-1.361980e-04 9.850069e-05 -2.923468e-04)	(-1.342887e-04 9.714606e-05 -2.911214e-04)	(-1.909283e-06 1.354637e-06 -1.225433e-06)
0.148017      	(-1.209466e-04 8.263705e-05 -3.015524e-04)	(-1.185667e-04 8.103745e-05 -2.993204e-04)	(-2.379947e-06 1.599599e-06 -2.232069e-06)
0.153898      	(-1.097232e-04 6.619908e-05 -3.421508e-04)	(-1.070483e-04 6.424473e-05 -3.392374e-04)	(-2.674833e-06 1.954350e-06 -2.913373e-06)
0.16025       	(-1.115358e-04 6.165622e-05 -3.790151e-04)	(-1.086093e-04 5.942022e-05 -3.772342e-04)	(-2.926507e-06 2.236005e-06 -1.780931e-06)
0.166728      	(-1.018329e-04 4.960644e-05 -4.180339e-04)	(-9.872718e-05 4.716259e-05 -4.166532e-04)	(-3.105693e-06 2.443855e-06 -1.380735e-06)
0.172725      	(-8.813206e-05 3.229842e-05 -4.215885e-04)	(-8.515179e-05 3.000998e-05 -4.196234e-04)	(-2.980266e-06 2.288439e-06 -1.965128e-06)
0.178692      	(-7.666925e-05 1.915569e-05 -4.622989e-04)	(-7.357300e-05 1.694154e-05 -4.601991e-04)	(-3.096245e-06 2.214148e-06 -2.099858e-06)
0.181896      	(-4.632710e-05 -5.682997e-06 -3.840873e-04)	(-4.323380e-05 -7.839332e-06 -3.814093e-04)	(-3.093306e-06 2.156335e-06 -2.678046e-06)
0.185521      	(-5.723105e-05 5.690501e-08 -5.005989e-04)	(-5.392729e-05 -2.325210e-06 -4.972039e-04)	(-3.303756e-06 2.382115e-06 -3.395016e-06)
0.189598      	(-6.566330e-05 3.686420e-08 -5.485962e-04)	(-6.231764e-05 -2.556901e-06 -5.453751e-04)	(-3.345663e-06 2.593765e-06 -3.221102e-06)
0.194175      	(-6.248361e-05 -1.335577e-06 -5.569060e-04)	(-5.957143e-05 -3.487851e-06 -5.531164e-04)	(-2.912175e-06 2.152274e-06 -3.789646e-06)
0.19937       	(-5.652476e-05 -1.065199e-05 -5.556830e-04)	(-5.387263e-05 -1.243762e-05 -5.519933e-04)	(-2.652127e-06 1.785626e-06 -3.689633e-06)
0.205401      	(-3.910150e-05 -2.908871e-05 -6.232223e-04)	(-3.666568e-05 -3.066860e-05 -6.193043e-04)	(-2.435820e-06 1.579890e-06 -3.918008e-06)
0.212231      	(-1.471972e-05 -5.492176e-05 -6.397145e-04)	(-1.217276e-05 -5.653574e-05 -6.357866e-04)	(-2.546964e-06 1.613976e-06 -3.927913e-06)
0.219916      	(-2.936496e-06 -6.919129e-05 -6.834132e-04)	(-3.175689e-07 -7.083889e-05 -6.789930e-04)	(-2.618927e-06 1.647605e-06 -4.420256e-06)
0.225209      	(1.739536e-06 -7.901052e-05 -7.219652e-04)	(4.469311e-06 -8.061793e-05 -7.173432e-04)	(-2.729775e-06 1.607409e-06 -4.621967e-06)
0.231215      	(3.963943e-05 -1.181665e-04 -7.217475e-04)	(4.263881e-05 -1.199974e-04 -7.168185e-04)	(-2.999374e-06 1.830915e-06 -4.928924e-06)
0.233741      	(-7.852702e-06 -6.987813e-05 -7.752434e-04)	(-4.951465e-06 -7.155587e-05 -7.706229e-04)	(-2.901237e-06 1.677741e-06 -4.620521e-06)
0.236771      	(5.505612e-05 -1.360680e-04 -7.649042e-04)	(5.829275e-05 -1.380758e-04 -7.599407e-04)	(-3.236624e-06 2.007787e-06 -4.963498e-06)
0.240407      	(5.535374e-05 -1.275088e-04 -8.553174e-04)	(5.892024e-05 -1.297826e-04 -8.502393e-04)	(-3.566500e-06 2.273755e-06 -5.078031e-06)
0.24477       	(5.479084e-05 -1.315378e-04 -8.450934e-04)	(5.811148e-05 -1.336563e-04 -8.396132e-04)	(-3.320644e-06 2.118497e-06 -5.480184e-06)
0.249647      	(7.587695e-05 -1.485579e-04 -8.982775e-04)	(7.917359e-05 -1.506904e-04 -8.930681e-04)	(-3.296642e-06 2.132458e-06 -5.209380e-06)
0.255336      	(1.053107e-04 -1.826857e-04 -9.108326e-04)	(1.082725e-04 -1.844750e-04 -9.058025e-04)	(-2.961775e-06 1.789217e-06 -5.030049e-06)
0.257981      	(1.124063e-04 -1.916061e-04 -9.384404e-04)	(1.153600e-04 -1.933778e-04 -9.331608e-04)	(-2.953740e-06 1.771624e-06 -5.279664e-06)
0.261155      	(1.026042e-04 -1.792101e-04 -9.338887e-04)	(1.054094e-04 -1.805614e-04 -9.275159e-04)	(-2.805238e-06 1.351292e-06 -6.372880e-06)
0.264837      	(1.166669e-04 -1.922917e-04 -9.791201e-04)	(1.190994e-04 -1.931239e-04 -9.721276e-04)	(-2.432501e-06 8.322136e-07 -6.992551e-06)
0.269076      	(1.359894e-04 -2.109204e-04 -1.007614e-03)	(1.381726e-04 -2.113437e-04 -9.998500e-04)	(-2.183203e-06 4.232878e-07 -7.763685e-06)
0.27385       	(1.520841e-04 -2.242922e-04 -1.040332e-03)	(1.540576e-04 -2.244663e-04 -1.032735e-03)	(-1.973432e-06 1.740676e-07 -7.597387e-06)
0.279579      	(2.010690e-04 -2.718633e-04 -1.078689e-03)	(2.032338e-04 -2.722690e-04 -1.070961e-03)	(-2.164753e-06 4.057068e-07 -7.728786e-06)
0.285225      	(1.902926e-04 -2.566247e-04 -1.097655e-03)	(1.922754e-04 -2.567926e-04 -1.089350e-03)	(-1.982803e-06 1.679328e-07 -8.304831e-06)
0.291562      	(2.164514e-04 -2.789127e-04 -1.129833e-03)	(2.182976e-04 -2.789635e-04 -1.121599e-03)	(-1.846190e-06 5.083725e-08 -8.234094e-06)
0.298718      	(2.533279e-04 -3.112412e-04 -1.153803e-03)	(2.549511e-04 -3.111044e-04 -1.145164e-03)	(-1.623290e-06 -1.368034e-07 -8.638866e-06)
0.302497      	(2.694402e-04 -3.229498e-04 -1.173694e-03)	(2.709298e-04 -3.226728e-04 -1.164722e-03)	(-1.489640e-06 -2.769266e-07 -8.971958e-06)
0.304653      	(3.119098e-04 -3.578176e-04 -1.178464e-03)	(3.135504e-04 -3.577083e-04 -1.169570e-03)	(-1.640642e-06 -1.092715e-07 -8.893725e-06)
0.30724       	(2.974757e-04 -3.388163e-04 -1.199428e-03)	(2.989442e-04 -3.385469e-04 -1.190183e-03)	(-1.468488e-06 -2.693277e-07 -9.245249e-06)
0.310229      	(2.991138e-04 -3.383478e-04 -1.200907e-03)	(3.002857e-04 -3.378190e-04 -1.191043e-03)	(-1.171875e-06 -5.287867e-07 -9.863739e-06)
0.31362       	(3.117311e-04 -3.482075e-04 -1.212503e-03)	(3.128416e-04 -3.476182e-04 -1.202497e-03)	(-1.110498e-06 -5.893237e-07 -1.000627e-05)
0.317516      	(3.271542e-04 -3.549353e-04 -1.214477e-03)	(3.283541e-04 -3.544165e-04 -1.204044e-03)	(-1.199947e-06 -5.188257e-07 -1.043350e-05)
0.322179      	(3.210033e-04 -3.473464e-04 -1.267387e-03)	(3.222189e-04 -3.469014e-04 -1.256943e-03)	(-1.215555e-06 -4.450494e-07 -1.044445e-05)
0.327775      	(3.420543e-04 -3.599329e-04 -1.279663e-03)	(3.429834e-04 -3.591951e-04 -1.268941e-03)	(-9.291439e-07 -7.377830e-07 -1.072243e-05)
0.332415      	(3.530301e-04 -3.602176e-04 -1.290518e-03)	(3.536739e-04 -3.592838e-04 -1.279606e-03)	(-6.437359e-07 -9.338470e-07 -1.091222e-05)
0.335424      	(3.419032e-04 -3.444351e-04 -1.292768e-03)	(3.420308e-04 -3.428167e-04 -1.282439e-03)	(-1.276173e-07 -1.618441e-06 -1.032907e-05)
0.338821      	(3.817056e-04 -3.724686e-04 -1.295491e-03)	(3.821570e-04 -3.712757e-04 -1.284570e-03)	(-4.513564e-07 -1.192903e-06 -1.092106e-05)
0.342868      	(4.137405e-04 -3.961486e-04 -1.284250e-03)	(4.148383e-04 -3.958848e-04 -1.272103e-03)	(-1.097748e-06 -2.638052e-07 -1.214672e-05)
0.347724      	(4.056480e-04 -3.747664e-04 -1.283928e-03)	(4.065852e-04 -3.744547e-04 -1.271416e-03)	(-9.371714e-07 -3.116633e-07 -1.251265e-05)
0.352928      	(4.167917e-04 -3.711261e-04 -1.264004e-03)	(4.177385e-04 -3.707551e-04 -1.251221e-03)	(-9.468549e-07 -3.709446e-07 -1.278208e-05)
0.359018      	(4.370730e-04 -3.722342e-04 -1.251670e-03)	(4.377173e-04 -3.715018e-04 -1.238769e-03)	(-6.443607e-07 -7.324054e-07 -1.290061e-05)
0.365924      	(4.655094e-04 -3.778756e-04 -1.213749e-03)	(4.660375e-04 -3.771224e-04 -1.200914e-03)	(-5.280376e-07 -7.532049e-07 -1.283540e-05)
0.373609      	(4.759710e-04 -3.583519e-04 -1.176363e-03)	(4.761462e-04 -3.573714e-04 -1.163462e-03)	(-1.751869e-07 -9.804745e-07 -1.290061e-05)
0.382273      	(4.980089e-04 -3.471905e-04 -1.122239e-03)	(4.982199e-04 -3.463857e-04 -1.109197e-03)	(-2.110191e-07 -8.047769e-07 -1.304168e-05)
0.387932      	(5.068380e-04 -3.286014e-04 -1.064711e-03)	(5.068085e-04 -3.277413e-04 -1.051503e-03)	(2.957730e-08 -8.601607e-07 -1.320826e-05)
0.39432       	(5.320259e-04 -3.184619e-04 -1.001865e-03)	(5.317290e-04 -3.175773e-04 -9.885269e-04)	(2.969002e-07 -8.845776e-07 -1.333780e-05)
0.401562      	(5.508476e-04 -2.989965e-04 -9.110245e-04)	(5.503666e-04 -2.981956e-04 -8.975571e-04)	(4.810078e-07 -8.009356e-07 -1.346745e-05)
0.404478      	(5.452519e-04 -2.819095e-04 -8.322241e-04)	(5.447344e-04 -2.812163e-04 -8.189788e-04)	(5.174683e-07 -6.931955e-07 -1.324529e-05)
0.407739      	(5.647451e-04 -2.743376e-04 -7.990440e-04)	(5.639512e-04 -2.735865e-04 -7.853388e-04)	(7.938983e-07 -7.511564e-07 -1.370521e-05)
0.411461      	(5.631788e-04 -2.477656e-04 -7.649068e-04)	(5.627267e-04 -2.473994e-04 -7.513824e-04)	(4.521739e-07 -3.661689e-07 -1.352440e-05)
0.415777      	(5.772810e-04 -2.415989e-04 -6.897704e-04)	(5.769155e-04 -2.414378e-04 -6.766203e-04)	(3.655508e-07 -1.611745e-07 -1.315012e-05)
0.420957      	(5.951712e-04 -2.250337e-04 -6.022485e-04)	(5.950365e-04 -2.253456e-04 -5.891057e-04)	(1.346709e-07 3.118658e-07 -1.314287e-05)
0.426974      	(5.961570e-04 -1.848231e-04 -5.130326e-04)	(5.960060e-04 -1.854946e-04 -5.000013e-04)	(1.509851e-07 6.715285e-07 -1.303124e-05)
0.433709      	(6.129677e-04 -1.528673e-04 -3.850182e-04)	(6.126952e-04 -1.539098e-04 -3.724797e-04)	(2.725317e-07 1.042560e-06 -1.253848e-05)
0.439897      	(6.276191e-04 -1.201435e-04 -2.437027e-04)	(6.271064e-04 -1.212843e-04 -2.314470e-04)	(5.126737e-07 1.140824e-06 -1.225577e-05)
0.446977      	(6.439347e-04 -7.957199e-05 -4.274938e-05)	(6.431991e-04 -8.113714e-05 -3.058899e-05)	(7.355230e-07 1.565143e-06 -1.216039e-05)
0.453472      	(6.361144e-04 -2.227208e-05 9.396676e-05)	(6.347541e-04 -2.386390e-05 1.057107e-04)	(1.360260e-06 1.591812e-06 -1.174392e-05)
0.454832      	(5.820339e-04 3.569924e-05 2.497402e-04)	(5.804625e-04 3.423896e-05 2.614057e-04)	(1.571327e-06 1.460279e-06 -1.166551e-05)
0.456393      	(6.590281e-04 -1.517588e-05 2.000250e-04)	(6.564262e-04 -1.613263e-05 2.102814e-04)	(2.601921e-06 9.567481e-07 -1.025639e-05)
0.458215      	(7.100092e-04 -6.070669e-05 1.866987e-04)	(7.065294e-04 -6.134194e-05 1.957050e-04)	(3.479832e-06 6.352589e-07 -9.006340e-06)
0.460312      	(6.847498e-04 -1.456782e-05 2.807139e-04)	(6.807439e-04 -1.509656e-05 2.890254e-04)	(4.005860e-06 5.287411e-07 -8.311528e-06)
0.46274       	(7.345832e-04 -4.704704e-05 3.208908e-04)	(7.305869e-04 -4.787836e-05 3.288352e-04)	(3.996233e-06 8.313173e-07 -7.944436e-06)
0.465556      	(7.105741e-04 1.420707e-06 4.141639e-04)	(7.066535e-04 1.019181e-07 4.213107e-04)	(3.920619e-06 1.318789e-06 -7.146755e-06)
0.468825      	(6.889511e-04 5.596508e-05 5.365257e-04)	(6.850077e-04 5.425988e-05 5.428629e-04)	(3.943474e-06 1.705196e-06 -6.337235e-06)
0.472589      	(6.954255e-04 8.099520e-05 6.345846e-04)	(6.915930e-04 7.893640e-05 6.408070e-04)	(3.832540e-06 2.058800e-06 -6.222361e-06)
0.476828      	(7.054317e-04 1.106583e-04 7.846170e-04)	(7.013816e-04 1.084452e-04 7.905595e-04)	(4.050184e-06 2.213170e-06 -5.942423e-06)
0.481486      	(7.209261e-04 1.367881e-04 9.196616e-04)	(7.165869e-04 1.344255e-04 9.252462e-04)	(4.339272e-06 2.362526e-06 -5.584615e-06)
0.486686      	(7.567133e-04 1.460175e-04 1.080026e-03)	(7.521939e-04 1.433331e-04 1.085282e-03)	(4.519359e-06 2.684483e-06 -5.255950e-06)
0.49264       	(7.860778e-04 1.707342e-04 1.267885e-03)	(7.814045e-04 1.675957e-04 1.272309e-03)	(4.673328e-06 3.138519e-06 -4.424052e-06)
0.499511      	(8.225700e-04 1.959268e-04 1.491313e-03)	(8.179047e-04 1.920621e-04 1.494905e-03)	(4.665303e-06 3.864708e-06 -3.592041e-06)
0.50762       	(8.470426e-04 2.472044e-04 1.770699e-03)	(8.417565e-04 2.430158e-04 1.773125e-03)	(5.286102e-06 4.188640e-06 -2.425698e-06)
0.516605      	(9.050563e-04 2.668848e-04 2.083572e-03)	(8.994841e-04 2.618058e-04 2.085122e-03)	(5.572280e-06 5.078994e-06 -1.549960e-06)
0.519204      	(9.416662e-04 2.321700e-04 2.111458e-03)	(9.359503e-04 2.269083e-04 2.112314e-03)	(5.715919e-06 5.261758e-06 -8.559591e-07)
0.521584      	(9.173505e-04 2.908128e-04 2.227832e-03)	(9.115787e-04 2.853420e-04 2.228167e-03)	(5.771778e-06 5.470822e-06 -3.351297e-07)
0.524299      	(9.302360e-04 3.039720e-04 2.355243e-03)	(9.242453e-04 2.982088e-04 2.355585e-03)	(5.990740e-06 5.763238e-06 -3.419850e-07)
0.527559      	(9.718238e-04 2.935091e-04 2.429754e-03)	(9.657428e-04 2.874016e-04 2.429624e-03)	(6.080990e-06 6.107460e-06 1.304207e-07)
0.531472      	(1.006023e-03 2.921582e-04 2.567209e-03)	(9.999720e-04 2.855196e-04 2.566288e-03)	(6.051166e-06 6.638618e-06 9.207335e-07)
0.536166      	(1.022986e-03 3.113303e-04 2.727431e-03)	(1.016653e-03 3.042217e-04 2.725834e-03)	(6.333622e-06 7.108618e-06 1.596381e-06)
0.541718      	(1.048001e-03 3.273868e-04 2.891684e-03)	(1.041123e-03 3.198962e-04 2.889010e-03)	(6.878225e-06 7.490608e-06 2.673425e-06)
0.548382      	(1.093716e-03 3.278237e-04 3.092029e-03)	(1.086539e-03 3.196350e-04 3.088017e-03)	(7.176498e-06 8.188696e-06 4.011826e-06)
0.552256      	(1.108641e-03 3.335998e-04 3.170008e-03)	(1.100943e-03 3.254576e-04 3.164273e-03)	(7.697858e-06 8.142199e-06 5.734384e-06)
0.556695      	(1.148812e-03 3.288005e-04 3.323607e-03)	(1.140862e-03 3.203151e-04 3.316992e-03)	(7.949810e-06 8.485415e-06 6.614645e-06)
0.561643      	(1.177930e-03 3.290788e-04 3.467668e-03)	(1.169539e-03 3.202803e-04 3.459930e-03)	(8.390153e-06 8.798550e-06 7.737964e-06)
0.566636      	(1.200775e-03 3.311050e-04 3.562866e-03)	(1.191530e-03 3.223338e-04 3.553784e-03)	(9.245390e-06 8.771210e-06 9.081455e-06)
0.572198      	(1.234171e-03 3.303247e-04 3.719015e-03)	(1.224106e-03 3.215282e-04 3.709092e-03)	(1.006499e-05 8.796494e-06 9.922870e-06)
0.57502       	(1.233455e-03 3.246230e-04 3.733952e-03)	(1.222849e-03 3.159454e-04 3.723330e-03)	(1.060571e-05 8.677581e-06 1.062269e-05)
0.578236      	(1.263470e-03 3.192610e-04 3.820931e-03)	(1.252434e-03 3.104963e-04 3.808524e-03)	(1.103641e-05 8.764731e-06 1.240700e-05)
0.581873      	(1.276517e-03 3.236986e-04 3.931089e-03)	(1.265421e-03 3.146069e-04 3.917955e-03)	(1.109607e-05 9.091714e-06 1.313340e-05)
0.586234      	(1.295792e-03 3.168176e-04 3.992693e-03)	(1.284051e-03 3.077874e-04 3.978377e-03)	(1.174144e-05 9.030194e-06 1.431569e-05)
0.591216      	(1.318408e-03 3.072212e-04 4.069956e-03)	(1.306202e-03 2.981507e-04 4.053885e-03)	(1.220609e-05 9.070507e-06 1.607162e-05)
0.592868      	(1.294353e-03 3.001741e-04 3.981596e-03)	(1.281772e-03 2.911864e-04 3.965079e-03)	(1.258101e-05 8.987714e-06 1.651745e-05)
0.594052      	(1.289505e-03 2.989715e-04 4.000688e-03)	(1.277332e-03 2.895416e-04 3.985073e-03)	(1.217283e-05 9.429867e-06 1.561484e-05)
0.595374      	(1.265274e-03 3.091450e-04 3.815128e-03)	(1.252779e-03 2.999181e-04 3.800704e-03)	(1.249484e-05 9.226968e-06 1.442394e-05)
0.596898      	(1.302131e-03 3.071577e-04 4.033206e-03)	(1.289398e-03 2.979896e-04 4.019125e-03)	(1.273240e-05 9.168142e-06 1.408058e-05)
0.598726      	(1.324629e-03 3.016202e-04 4.128920e-03)	(1.311942e-03 2.921667e-04 4.114331e-03)	(1.268626e-05 9.453553e-06 1.458899e-05)
0.60092       	(1.328298e-03 3.052960e-04 4.179491e-03)	(1.315567e-03 2.955466e-04 4.163788e-03)	(1.273083e-05 9.749405e-06 1.570279e-05)
0.603553      	(1.344243e-03 2.961306e-04 4.240625e-03)	(1.331396e-03 2.861317e-04 4.223883e-03)	(1.284760e-05 9.998908e-06 1.674231e-05)
0.606711      	(1.351508e-03 2.921162e-04 4.282261e-03)	(1.338230e-03 2.820976e-04 4.264704e-03)	(1.327834e-05 1.001855e-05 1.755763e-05)
0.610502      	(1.361109e-03 2.826513e-04 4.317213e-03)	(1.347156e-03 2.727684e-04 4.298727e-03)	(1.395327e-05 9.882903e-06 1.848569e-05)
0.61505       	(1.365692e-03 2.765362e-04 4.357589e-03)	(1.350970e-03 2.667491e-04 4.338134e-03)	(1.472231e-05 9.787087e-06 1.945573e-05)
0.620511      	(1.366902e-03 2.681228e-04 4.396057e-03)	(1.351399e-03 2.584452e-04 4.375184e-03)	(1.550245e-05 9.677603e-06 2.087224e-05)
0.627067      	(1.359220e-03 2.625650e-04 4.435251e-03)	(1.342662e-03 2.531817e-04 4.412909e-03)	(1.655855e-05 9.383237e-06 2.234163e-05)
0.634607      	(1.346064e-03 2.501942e-04 4.441134e-03)	(1.328789e-03 2.406709e-04 4.417384e-03)	(1.727442e-05 9.523263e-06 2.374955e-05)
0.643183      	(1.318196e-03 2.395989e-04 4.438256e-03)	(1.300256e-03 2.298809e-04 4.413100e-03)	(1.793993e-05 9.718008e-06 2.515572e-05)
0.652717      	(1.266675e-03 2.367176e-04 4.392644e-03)	(1.247831e-03 2.271844e-04 4.365946e-03)	(1.884405e-05 9.533140e-06 2.669792e-05)
0.660782      	(1.195811e-03 2.447545e-04 4.302047e-03)	(1.176215e-03 2.354418e-04 4.274099e-03)	(1.959563e-05 9.312662e-06 2.794836e-05)
0.669358      	(1.133660e-03 2.329789e-04 4.204290e-03)	(1.113587e-03 2.237107e-04 4.175162e-03)	(2.007261e-05 9.268236e-06 2.912880e-05)
0.677734      	(1.045813e-03 2.377341e-04 4.085644e-03)	(1.025501e-03 2.283327e-04 4.055775e-03)	(2.031187e-05 9.401401e-06 2.986871e-05)
0.685048      	(9.593458e-04 2.401330e-04 3.981072e-03)	(9.386921e-04 2.308501e-04 3.950854e-03)	(2.065370e-05 9.282899e-06 3.021862e-05)
0.690234      	(8.830985e-04 2.470695e-04 3.838081e-03)	(8.623113e-04 2.379509e-04 3.807692e-03)	(2.078722e-05 9.118617e-06 3.038875e-05)
0.696098      	(8.062453e-04 2.496223e-04 3.722947e-03)	(7.848441e-04 2.410588e-04 3.692246e-03)	(2.140123e-05 8.563498e-06 3.070100e-05)
0.70276       	(7.264864e-04 2.361131e-04 3.551372e-03)	(7.054907e-04 2.273223e-04 3.519792e-03)	(2.099565e-05 8.790804e-06 3.158083e-05)
0.708341      	(6.331197e-04 2.486259e-04 3.394363e-03)	(6.115308e-04 2.405640e-04 3.362254e-03)	(2.158886e-05 8.061876e-06 3.210910e-05)
0.714708      	(5.100865e-04 2.736996e-04 3.245611e-03)	(4.886626e-04 2.654622e-04 3.213590e-03)	(2.142386e-05 8.237321e-06 3.202109e-05)
0.719507      	(4.313429e-04 2.701496e-04 3.096984e-03)	(4.101267e-04 2.618628e-04 3.064630e-03)	(2.121622e-05 8.286822e-06 3.235380e-05)
0.725222      	(3.296697e-04 2.768639e-04 2.981794e-03)	(3.084239e-04 2.688694e-04 2.949456e-03)	(2.124584e-05 7.994512e-06 3.233775e-05)
0.729313      	(2.533323e-04 2.748652e-04 2.799201e-03)	(2.327307e-04 2.664662e-04 2.766030e-03)	(2.060163e-05 8.399007e-06 3.317099e-05)
0.734063      	(1.518286e-04 2.903222e-04 2.645441e-03)	(1.318976e-04 2.816962e-04 2.612384e-03)	(1.993102e-05 8.625930e-06 3.305684e-05)
0.739409      	(5.302973e-05 2.924453e-04 2.454868e-03)	(3.269609e-05 2.847125e-04 2.422201e-03)	(2.033363e-05 7.732804e-06 3.266652e-05)
0.745401      	(-3.558397e-05 2.699900e-04 2.278822e-03)	(-5.568708e-05 2.625790e-04 2.246127e-03)	(2.010310e-05 7.411043e-06 3.269532e-05)
0.749743      	(-1.189945e-04 2.629576e-04 2.098749e-03)	(-1.387272e-04 2.557176e-04 2.066046e-03)	(1.973266e-05 7.239973e-06 3.270219e-05)
0.754784      	(-2.142020e-04 2.574830e-04 1.914456e-03)	(-2.337672e-04 2.506821e-04 1.881867e-03)	(1.956515e-05 6.800927e-06 3.258943e-05)
0.7606        	(-3.234555e-04 2.531557e-04 1.672975e-03)	(-3.423845e-04 2.464870e-04 1.641040e-03)	(1.892907e-05 6.668629e-06 3.193421e-05)
0.765701      	(-4.287726e-04 2.501613e-04 1.456100e-03)	(-4.471158e-04 2.436939e-04 1.425031e-03)	(1.834319e-05 6.467354e-06 3.106971e-05)
0.771542      	(-5.416918e-04 2.362318e-04 1.242140e-03)	(-5.593994e-04 2.299634e-04 1.211687e-03)	(1.770760e-05 6.268358e-06 3.045356e-05)
0.778077      	(-6.731060e-04 2.244109e-04 9.430676e-04)	(-6.905037e-04 2.190556e-04 9.129941e-04)	(1.739771e-05 5.355278e-06 3.007345e-05)
0.784583      	(-8.046526e-04 2.154415e-04 6.863607e-04)	(-8.212821e-04 2.105111e-04 6.571515e-04)	(1.662957e-05 4.930381e-06 2.920917e-05)
0.791179      	(-9.321078e-04 1.939693e-04 4.123790e-04)	(-9.477536e-04 1.892233e-04 3.834192e-04)	(1.564584e-05 4.746058e-06 2.895980e-05)
0.795744      	(-1.033156e-03 1.995413e-04 2.414966e-04)	(-1.048233e-03 1.953537e-04 2.139373e-04)	(1.507742e-05 4.187560e-06 2.755932e-05)
0.798752      	(-1.129482e-03 2.310003e-04 1.178157e-04)	(-1.144767e-03 2.276912e-04 9.068533e-05)	(1.528466e-05 3.309114e-06 2.713033e-05)
0.802343      	(-1.186399e-03 1.956126e-04 -7.313641e-05)	(-1.201091e-03 1.925041e-04 -1.004136e-04)	(1.469136e-05 3.108456e-06 2.727717e-05)
0.806486      	(-1.270436e-03 1.837355e-04 -2.573133e-04)	(-1.284724e-03 1.811801e-04 -2.839318e-04)	(1.428777e-05 2.555409e-06 2.661850e-05)
0.811443      	(-1.363099e-03 1.666728e-04 -4.816594e-04)	(-1.376392e-03 1.643318e-04 -5.077704e-04)	(1.329323e-05 2.341064e-06 2.611107e-05)
0.817359      	(-1.466541e-03 1.379364e-04 -7.613423e-04)	(-1.478865e-03 1.361029e-04 -7.867143e-04)	(1.232326e-05 1.833407e-06 2.537199e-05)
0.82425       	(-1.596860e-03 1.185149e-04 -1.055774e-03)	(-1.608063e-03 1.173873e-04 -1.079792e-03)	(1.120230e-05 1.127577e-06 2.401820e-05)
0.832099      	(-1.736501e-03 9.078044e-05 -1.416604e-03)	(-1.746340e-03 9.036490e-05 -1.438793e-03)	(9.839596e-06 4.155413e-07 2.218960e-05)
0.836852      	(-1.831254e-03 9.284356e-05 -1.623471e-03)	(-1.840673e-03 9.340397e-05 -1.645237e-03)	(9.419421e-06 -5.604138e-07 2.176601e-05)
0.84238       	(-1.933789e-03 7.048465e-05 -1.831422e-03)	(-1.942327e-03 7.188329e-05 -1.852167e-03)	(8.538089e-06 -1.398642e-06 2.074439e-05)
0.848728      	(-2.043726e-03 5.190551e-05 -2.083905e-03)	(-2.051126e-03 5.400196e-05 -2.102897e-03)	(7.399813e-06 -2.096444e-06 1.899185e-05)
0.851385      	(-2.055030e-03 3.525755e-05 -2.192025e-03)	(-2.062281e-03 3.800559e-05 -2.210231e-03)	(7.250357e-06 -2.748036e-06 1.820554e-05)
0.854562      	(-2.119033e-03 2.142518e-05 -2.310987e-03)	(-2.125323e-03 2.431783e-05 -2.328556e-03)	(6.290389e-06 -2.892654e-06 1.756886e-05)
0.858372      	(-2.196678e-03 2.511806e-05 -2.459795e-03)	(-2.201934e-03 2.820978e-05 -2.476442e-03)	(5.256143e-06 -3.091729e-06 1.664635e-05)
0.862723      	(-2.280322e-03 3.268458e-05 -2.626706e-03)	(-2.285043e-03 3.665256e-05 -2.642561e-03)	(4.721323e-06 -3.967981e-06 1.585465e-05)
0.86794       	(-2.364554e-03 2.196443e-05 -2.809465e-03)	(-2.368573e-03 2.685416e-05 -2.823856e-03)	(4.019591e-06 -4.889729e-06 1.439108e-05)
0.874201      	(-2.455944e-03 8.710626e-06 -3.033480e-03)	(-2.458745e-03 1.429073e-05 -3.046044e-03)	(2.801135e-06 -5.580101e-06 1.256373e-05)
0.881205      	(-2.551413e-03 -8.168436e-07 -3.254446e-03)	(-2.552641e-03 5.631527e-06 -3.265166e-03)	(1.227506e-06 -6.448371e-06 1.071949e-05)
0.889493      	(-2.672621e-03 6.636721e-06 -3.527133e-03)	(-2.672724e-03 1.466360e-05 -3.536572e-03)	(1.030920e-07 -8.026875e-06 9.438724e-06)
0.891459      	(-2.611961e-03 -7.461874e-06 -3.386077e-03)	(-2.611279e-03 4.451284e-07 -3.395155e-03)	(-6.825443e-07 -7.907002e-06 9.078527e-06)
0.893728      	(-2.682734e-03 1.762356e-05 -3.663160e-03)	(-2.681603e-03 2.579703e-05 -3.671824e-03)	(-1.130794e-06 -8.173469e-06 8.663509e-06)
0.89628       	(-2.722270e-03 -4.023162e-06 -3.590182e-03)	(-2.720603e-03 4.463597e-06 -3.597383e-03)	(-1.666641e-06 -8.486758e-06 7.200473e-06)
0.899265      	(-2.744177e-03 -2.627909e-05 -3.656794e-03)	(-2.742210e-03 -1.713383e-05 -3.662757e-03)	(-1.967008e-06 -9.145266e-06 5.963514e-06)
0.902651      	(-2.780526e-03 -1.925050e-05 -3.755136e-03)	(-2.777965e-03 -9.542206e-06 -3.760396e-03)	(-2.561873e-06 -9.708292e-06 5.260406e-06)
0.906672      	(-2.818774e-03 -2.266480e-05 -3.815495e-03)	(-2.815411e-03 -1.243786e-05 -3.819955e-03)	(-3.363454e-06 -1.022694e-05 4.460006e-06)
0.911426      	(-2.857919e-03 -1.693509e-05 -3.919294e-03)	(-2.853523e-03 -6.240607e-06 -3.922893e-03)	(-4.395944e-06 -1.069448e-05 3.599328e-06)
0.917128      	(-2.899612e-03 -8.020187e-06 -3.988571e-03)	(-2.894118e-03 3.402493e-06 -3.990686e-03)	(-5.494191e-06 -1.142268e-05 2.114878e-06)
0.923899      	(-2.943726e-03 9.199513e-06 -4.062843e-03)	(-2.936818e-03 2.125749e-05 -4.063380e-03)	(-6.908503e-06 -1.205797e-05 5.366195e-07)
0.931845      	(-2.977649e-03 2.603007e-05 -4.110978e-03)	(-2.969114e-03 3.877534e-05 -4.109290e-03)	(-8.534410e-06 -1.274527e-05 -1.687780e-06)
0.935166      	(-2.937820e-03 4.138998e-05 -4.040211e-03)	(-2.928960e-03 5.484751e-05 -4.038038e-03)	(-8.859545e-06 -1.345753e-05 -2.172496e-06)
0.939015      	(-2.978366e-03 6.224929e-05 -4.070711e-03)	(-2.968547e-03 7.580791e-05 -4.067600e-03)	(-9.819507e-06 -1.355862e-05 -3.110336e-06)
0.943386      	(-2.968748e-03 6.199647e-05 -4.058566e-03)	(-2.957839e-03 7.561526e-05 -4.054335e-03)	(-1.090938e-05 -1.361880e-05 -4.231232e-06)
0.948352      	(-2.992185e-03 1.115634e-04 -3.999356e-03)	(-2.980302e-03 1.255503e-04 -3.994114e-03)	(-1.188272e-05 -1.398692e-05 -5.241655e-06)
0.953879      	(-2.976841e-03 1.412764e-04 -3.917911e-03)	(-2.964050e-03 1.555828e-04 -3.911392e-03)	(-1.279107e-05 -1.430636e-05 -6.518878e-06)
0.960182      	(-2.950059e-03 1.814959e-04 -3.774581e-03)	(-2.936192e-03 1.958842e-04 -3.766243e-03)	(-1.386713e-05 -1.438823e-05 -8.338775e-06)
0.967747      	(-2.906595e-03 2.415007e-04 -3.552865e-03)	(-2.891332e-03 2.559538e-04 -3.543424e-03)	(-1.526306e-05 -1.445312e-05 -9.440698e-06)
0.976828      	(-2.839620e-03 3.359215e-04 -3.199708e-03)	(-2.822417e-03 3.498915e-04 -3.189640e-03)	(-1.720310e-05 -1.396997e-05 -1.006845e-05)
0.981294      	(-2.732546e-03 3.733317e-04 -2.942470e-03)	(-2.714373e-03 3.868466e-04 -2.931668e-03)	(-1.817213e-05 -1.351488e-05 -1.080211e-05)
0.986459      	(-2.706531e-03 4.489279e-04 -2.678297e-03)	(-2.687346e-03 4.619506e-04 -2.666439e-03)	(-1.918549e-05 -1.302262e-05 -1.185843e-05)
0.991546      	(-2.633308e-03 5.144587e-04 -2.381358e-03)	(-2.612730e-03 5.266246e-04 -2.370158e-03)	(-2.057708e-05 -1.216587e-05 -1.120001e-05)
0.996992      	(-2.567471e-03 6.081930e-04 -2.022987e-03)	(-2.545580e-03 6.193799e-04 -2.011839e-03)	(-2.189171e-05 -1.118694e-05 -1.114843e-05)
1.00319       	(-2.474449e-03 7.189433e-04 -1.546507e-03)	(-2.451012e-03 7.287193e-04 -1.535497e-03)	(-2.343678e-05 -9.776006e-06 -1.101002e-05)
1.01028       	(-2.354055e-03 8.627148e-04 -9.209596e-04)	(-2.328296e-03 8.700126e-04 -9.102121e-04)	(-2.575849e-05 -7.297752e-06 -1.074747e-05)