# Moment      
# CofR        : (0.000000e+00 0.000000e+00 0.000000e+00)
#
# Time        	(total_x total_y total_z)	(pressure_x pressure_y pressure_z)	(viscous_x viscous_y viscous_z)
5001          	(2.219422e+02 -7.948856e+00 4.228208e+01)	(2.219417e+02 -7.949018e+00 4.228279e+01)	(5.482306e-04 1.626191e-04 -7.044784e-04)
5002          	(2.219422e+02 -7.948856e+00 4.228210e+01)	(2.219417e+02 -7.949018e+00 4.228280e+01)	(5.482781e-04 1.625853e-04 -7.041026e-04)
5003          	(2.219422e+02 -7.948856e+00 4.228211e+01)	(2.219417e+02 -7.949019e+00 4.228282e+01)	(5.483356e-04 1.625505e-04 -7.037204e-04)
5004          	(2.219422e+02 -7.948857e+00 4.228213e+01)	(2.219417e+02 -7.949019e+00 4.228283e+01)	(5.484025e-04 1.625147e-04 -7.033304e-04)
5005          	(2.219423e+02 -7.948858e+00 4.228214e+01)	(2.219417e+02 -7.949020e+00 4.228285e+01)	(5.484789e-04 1.624779e-04 -7.029399e-04)
5006          	(2.219423e+02 -7.948859e+00 4.228216e+01)	(2.219417e+02 -7.949021e+00 4.228286e+01)	(5.485635e-04 1.624401e-04 -7.025459e-04)
5007          	(2.219423e+02 -7.948860e+00 4.228218e+01)	(2.219417e+02 -7.949022e+00 4.228288e+01)	(5.486552e-04 1.624010e-04 -7.021519e-04)
5008          	(2.219423e+02 -7.948861e+00 4.228220e+01)	(2.219417e+02 -7.949024e+00 4.228290e+01)	(5.487522e-04 1.623603e-04 -7.017567e-04)
5009          	(2.219423e+02 -7.948863e+00 4.228221e+01)	(2.219418e+02 -7.949025e+00 4.228292e+01)	(5.488519e-04 1.623176e-04 -7.013637e-04)
5010          	(2.219423e+02 -7.948865e+00 4.228223e+01)	(2.219418e+02 -7.949027e+00 4.228293e+01)	(5.489518e-04 1.622725e-04 -7.009743e-04)
5011          	(2.219423e+02 -7.948867e+00 4.228225e+01)	(2.219418e+02 -7.949029e+00 4.228295e+01)	(5.490494e-04 1.622245e-04 -7.005907e-04)
5012          	(2.219423e+02 -7.948869e+00 4.228226e+01)	(2.219418e+02 -7.949032e+00 4.228296e+01)	(5.491419e-04 1.621731e-04 -7.002097e-04)
5013          	(2.219423e+02 -7.948872e+00 4.228228e+01)	(2.219418e+02 -7.949034e+00 4.228298e+01)	(5.492279e-04 1.621181e-04 -6.998369e-04)
5014          	(2.219423e+02 -7.948874e+00 4.228229e+01)	(2.219418e+02 -7.949036e+00 4.228299e+01)	(5.493072e-04 1.620598e-04 -6.994736e-04)
5015          	(2.219423e+02 -7.948876e+00 4.228230e+01)	(2.219418e+02 -7.949038e+00 4.228300e+01)	(5.493803e-04 1.619985e-04 -6.991191e-04)
5016          	(2.219423e+02 -7.948879e+00 4.228232e+01)	(2.219418e+02 -7.949040e+00 4.228302e+01)	(5.494533e-04 1.619338e-04 -6.987714e-04)
5017          	(2.219424e+02 -7.948880e+00 4.228233e+01)	(2.219418e+02 -7.949042e+00 4.228302e+01)	(5.495215e-04 1.618678e-04 -6.984395e-04)
5018          	(2.219424e+02 -7.948882e+00 4.228233e+01)	(2.219418e+02 -7.949044e+00 4.228303e+01)	(5.495894e-04 1.618017e-04 -6.981245e-04)
5019          	(2.219424e+02 -7.948883e+00 4.228234e+01)	(2.219418e+02 -7.949045e+00 4.228304e+01)	(5.496606e-04 1.617365e-04 -6.978286e-04)
5020          	(2.219424e+02 -7.948884e+00 4.228235e+01)	(2.219418e+02 -7.949046e+00 4.228305e+01)	(5.497388e-04 1.616729e-04 -6.975517e-04)
5021          	(2.219424e+02 -7.948885e+00 4.228236e+01)	(2.219418e+02 -7.949047e+00 4.228306e+01)	(5.498296e-04 1.616103e-04 -6.972870e-04)
5022          	(2.219424e+02 -7.948885e+00 4.228237e+01)	(2.219418e+02 -7.949047e+00 4.228306e+01)	(5.499303e-04 1.615513e-04 -6.970427e-04)
5023          	(2.219424e+02 -7.948886e+00 4.228238e+01)	(2.219418e+02 -7.949047e+00 4.228308e+01)	(5.500463e-04 1.614943e-04 -6.968130e-04)
5024          	(2.219424e+02 -7.948886e+00 4.228239e+01)	(2.219419e+02 -7.949047e+00 4.228309e+01)	(5.501772e-04 1.614400e-04 -6.965928e-04)
5025          	(2.219424e+02 -7.948885e+00 4.228240e+01)	(2.219419e+02 -7.949047e+00 4.228310e+01)	(5.503215e-04 1.613883e-04 -6.963849e-04)
5026          	(2.219424e+02 -7.948884e+00 4.228241e+01)	(2.219419e+02 -7.949046e+00 4.228311e+01)	(5.504808e-04 1.613404e-04 -6.961871e-04)
5027          	(2.219424e+02 -7.948884e+00 4.228240e+01)	(2.219418e+02 -7.949046e+00 4.228310e+01)	(5.506497e-04 1.613036e-04 -6.960430e-04)
5028          	(2.219424e+02 -7.948884e+00 4.228241e+01)	(2.219418e+02 -7.949045e+00 4.228311e+01)	(5.508230e-04 1.612675e-04 -6.959023e-04)
5029          	(2.219424e+02 -7.948882e+00 4.228242e+01)	(2.219418e+02 -7.949043e+00 4.228312e+01)	(5.510039e-04 1.612313e-04 -6.957533e-04)
5030          	(2.219424e+02 -7.948881e+00 4.228242e+01)	(2.219418e+02 -7.949043e+00 4.228311e+01)	(5.511930e-04 1.612018e-04 -6.956362e-04)
5031          	(2.219424e+02 -7.948880e+00 4.228242e+01)	(2.219418e+02 -7.949041e+00 4.228312e+01)	(5.513796e-04 1.611712e-04 -6.955137e-04)
5032          	(2.219424e+02 -7.948879e+00 4.228243e+01)	(2.219418e+02 -7.949040e+00 4.228312e+01)	(5.515582e-04 1.611384e-04 -6.953882e-04)
5033          	(2.219424e+02 -7.948878e+00 4.228243e+01)	(2.219418e+02 -7.949039e+00 4.228313e+01)	(5.517315e-04 1.611048e-04 -6.952670e-04)
5034          	(2.219423e+02 -7.948878e+00 4.228241e+01)	(2.219418e+02 -7.949039e+00 4.228311e+01)	(5.518938e-04 1.610785e-04 -6.951965e-04)
5035          	(2.219423e+02 -7.948877e+00 4.228241e+01)	(2.219418e+02 -7.949038e+00 4.228310e+01)	(5.520433e-04 1.610475e-04 -6.951196e-04)
5036          	(2.219423e+02 -7.948876e+00 4.228240e+01)	(2.219418e+02 -7.949037e+00 4.228310e+01)	(5.521782e-04 1.610109e-04 -6.950345e-04)
5037          	(2.219423e+02 -7.948876e+00 4.228240e+01)	(2.219418e+02 -7.949037e+00 4.228309e+01)	(5.523005e-04 1.609712e-04 -6.949565e-04)
5038          	(2.219423e+02 -7.948876e+00 4.228239e+01)	(2.219417e+02 -7.949037e+00 4.228309e+01)	(5.524090e-04 1.609282e-04 -6.948865e-04)
5039          	(2.219423e+02 -7.948876e+00 4.228238e+01)	(2.219417e+02 -7.949037e+00 4.228307e+01)	(5.524982e-04 1.608845e-04 -6.948442e-04)
5040          	(2.219423e+02 -7.948877e+00 4.228236e+01)	(2.219417e+02 -7.949038e+00 4.228306e+01)	(5.525680e-04 1.608385e-04 -6.948270e-04)
5041          	(2.219423e+02 -7.948877e+00 4.228235e+01)	(2.219417e+02 -7.949038e+00 4.228304e+01)	(5.526214e-04 1.607899e-04 -6.948338e-04)
5042          	(2.219423e+02 -7.948877e+00 4.228232e+01)	(2.219417e+02 -7.949037e+00 4.228301e+01)	(5.526522e-04 1.607408e-04 -6.948891e-04)
5043          	(2.219423e+02 -7.948876e+00 4.228231e+01)	(2.219417e+02 -7.949037e+00 4.228300e+01)	(5.526691e-04 1.606861e-04 -6.949592e-04)
5044          	(2.219423e+02 -7.948875e+00 4.228229e+01)	(2.219417e+02 -7.949036e+00 4.228299e+01)	(5.526736e-04 1.606263e-04 -6.950375e-04)
5045          	(2.219423e+02 -7.948874e+00 4.228228e+01)	(2.219417e+02 -7.949035e+00 4.228298e+01)	(5.526703e-04 1.605650e-04 -6.951352e-04)
5046          	(2.219423e+02 -7.948873e+00 4.228227e+01)	(2.219417e+02 -7.949034e+00 4.228296e+01)	(5.526635e-04 1.605054e-04 -6.952526e-04)
5047          	(2.219423e+02 -7.948872e+00 4.228226e+01)	(2.219417e+02 -7.949033e+00 4.228295e+01)	(5.526587e-04 1.604484e-04 -6.953845e-04)
5048          	(2.219423e+02 -7.948871e+00 4.228224e+01)	(2.219417e+02 -7.949031e+00 4.228294e+01)	(5.526583e-04 1.603938e-04 -6.955193e-04)
5049          	(2.219423e+02 -7.948870e+00 4.228224e+01)	(2.219417e+02 -7.949030e+00 4.228293e+01)	(5.526602e-04 1.603397e-04 -6.956515e-04)
5050          	(2.219423e+02 -7.948868e+00 4.228223e+01)	(2.219417e+02 -7.949028e+00 4.228293e+01)	(5.526628e-04 1.602851e-04 -6.957746e-04)
5051          	(2.219423e+02 -7.948867e+00 4.228222e+01)	(2.219417e+02 -7.949027e+00 4.228292e+01)	(5.526608e-04 1.602318e-04 -6.959003e-04)
5052          	(2.219423e+02 -7.948865e+00 4.228221e+01)	(2.219417e+02 -7.949026e+00 4.228291e+01)	(5.526539e-04 1.601774e-04 -6.960204e-04)
5053          	(2.219422e+02 -7.948864e+00 4.228219e+01)	(2.219417e+02 -7.949025e+00 4.228289e+01)	(5.526425e-04 1.601281e-04 -6.961685e-04)
5054          	(2.219422e+02 -7.948863e+00 4.228219e+01)	(2.219417e+02 -7.949023e+00 4.228288e+01)	(5.526301e-04 1.600793e-04 -6.963099e-04)
5055          	(2.219422e+02 -7.948861e+00 4.228218e+01)	(2.219417e+02 -7.949021e+00 4.228288e+01)	(5.526196e-04 1.600311e-04 -6.964413e-04)
5056          	(2.219422e+02 -7.948859e+00 4.228217e+01)	(2.219417e+02 -7.949019e+00 4.228287e+01)	(5.526165e-04 1.599851e-04 -6.965613e-04)
5057          	(2.219422e+02 -7.948857e+00 4.228217e+01)	(2.219417e+02 -7.949017e+00 4.228287e+01)	(5.526241e-04 1.599424e-04 -6.966771e-04)
5058          	(2.219422e+02 -7.948856e+00 4.228215e+01)	(2.219416e+02 -7.949016e+00 4.228285e+01)	(5.526479e-04 1.599097e-04 -6.968175e-04)
5059          	(2.219422e+02 -7.948854e+00 4.228215e+01)	(2.219416e+02 -7.949013e+00 4.228285e+01)	(5.526849e-04 1.598794e-04 -6.969450e-04)
5060          	(2.219422e+02 -7.948851e+00 4.228215e+01)	(2.219416e+02 -7.949011e+00 4.228284e+01)	(5.527351e-04 1.598511e-04 -6.970592e-04)
5061          	(2.219422e+02 -7.948849e+00 4.228214e+01)	(2.219416e+02 -7.949009e+00 4.228284e+01)	(5.527981e-04 1.598262e-04 -6.971725e-04)
5062          	(2.219422e+02 -7.948848e+00 4.228213e+01)	(2.219416e+02 -7.949008e+00 4.228283e+01)	(5.528760e-04 1.598107e-04 -6.973128e-04)
5063          	(2.219422e+02 -7.948846e+00 4.228213e+01)	(2.219416e+02 -7.949006e+00 4.228282e+01)	(5.529620e-04 1.597960e-04 -6.974439e-04)
5064          	(2.219422e+02 -7.948844e+00 4.228213e+01)	(2.219416e+02 -7.949004e+00 4.228282e+01)	(5.530551e-04 1.597817e-04 -6.975626e-04)
5065          	(2.219422e+02 -7.948842e+00 4.228212e+01)	(2.219416e+02 -7.949002e+00 4.228282e+01)	(5.531528e-04 1.597687e-04 -6.976780e-04)
5066          	(2.219422e+02 -7.948841e+00 4.228212e+01)	(2.219416e+02 -7.949001e+00 4.228282e+01)	(5.532524e-04 1.597569e-04 -6.977900e-04)
5067          	(2.219421e+02 -7.948840e+00 4.228211e+01)	(2.219416e+02 -7.949000e+00 4.228281e+01)	(5.533546e-04 1.597498e-04 -6.979193e-04)
5068          	(2.219421e+02 -7.948839e+00 4.228211e+01)	(2.219416e+02 -7.948999e+00 4.228281e+01)	(5.534542e-04 1.597424e-04 -6.980403e-04)
5069          	(2.219421e+02 -7.948838e+00 4.228211e+01)	(2.219416e+02 -7.948998e+00 4.228281e+01)	(5.535498e-04 1.597340e-04 -6.981525e-04)
5070          	(2.219421e+02 -7.948838e+00 4.228210e+01)	(2.219416e+02 -7.948997e+00 4.228280e+01)	(5.536380e-04 1.597242e-04 -6.982546e-04)
5071          	(2.219421e+02 -7.948837e+00 4.228210e+01)	(2.219416e+02 -7.948997e+00 4.228280e+01)	(5.537176e-04 1.597124e-04 -6.983501e-04)
5072          	(2.219421e+02 -7.948836e+00 4.228209e+01)	(2.219416e+02 -7.948996e+00 4.228279e+01)	(5.537851e-04 1.596982e-04 -6.984319e-04)
5073          	(2.219421e+02 -7.948835e+00 4.228209e+01)	(2.219416e+02 -7.948995e+00 4.228278e+01)	(5.538412e-04 1.596817e-04 -6.985013e-04)
5074          	(2.219421e+02 -7.948835e+00 4.228208e+01)	(2.219416e+02 -7.948994e+00 4.228278e+01)	(5.538841e-04 1.596622e-04 -6.985542e-04)
5075          	(2.219421e+02 -7.948834e+00 4.228207e+01)	(2.219416e+02 -7.948993e+00 4.228277e+01)	(5.539116e-04 1.596395e-04 -6.985913e-04)
5076          	(2.219421e+02 -7.948833e+00 4.228206e+01)	(2.219416e+02 -7.948993e+00 4.228276e+01)	(5.539213e-04 1.596128e-04 -6.986086e-04)
5077          	(2.219421e+02 -7.948832e+00 4.228205e+01)	(2.219416e+02 -7.948991e+00 4.228275e+01)	(5.539114e-04 1.595820e-04 -6.986067e-04)
5078          	(2.219421e+02 -7.948831e+00 4.228204e+01)	(2.219416e+02 -7.948990e+00 4.228274e+01)	(5.538803e-04 1.595468e-04 -6.985845e-04)
5079          	(2.219421e+02 -7.948830e+00 4.228202e+01)	(2.219416e+02 -7.948990e+00 4.228272e+01)	(5.538217e-04 1.595089e-04 -6.985513e-04)
5080          	(2.219422e+02 -7.948829e+00 4.228202e+01)	(2.219416e+02 -7.948988e+00 4.228271e+01)	(5.537350e-04 1.594607e-04 -6.984733e-04)
5081          	(2.219422e+02 -7.948829e+00 4.228200e+01)	(2.219416e+02 -7.948988e+00 4.228270e+01)	(5.536295e-04 1.594125e-04 -6.983853e-04)
5082          	(2.219422e+02 -7.948828e+00 4.228200e+01)	(2.219417e+02 -7.948987e+00 4.228270e+01)	(5.534981e-04 1.593557e-04 -6.982519e-04)
5083          	(2.219422e+02 -7.948828e+00 4.228199e+01)	(2.219417e+02 -7.948988e+00 4.228269e+01)	(5.533579e-04 1.593010e-04 -6.981201e-04)
5084          	(2.219423e+02 -7.948828e+00 4.228200e+01)	(2.219417e+02 -7.948987e+00 4.228270e+01)	(5.532005e-04 1.592399e-04 -6.979494e-04)
5085          	(2.219423e+02 -7.948829e+00 4.228199e+01)	(2.219417e+02 -7.948988e+00 4.228269e+01)	(5.530403e-04 1.591816e-04 -6.977903e-04)
5086          	(2.219423e+02 -7.948829e+00 4.228200e+01)	(2.219418e+02 -7.948988e+00 4.228270e+01)	(5.528716e-04 1.591194e-04 -6.976073e-04)
5087          	(2.219423e+02 -7.948830e+00 4.228200e+01)	(2.219418e+02 -7.948989e+00 4.228270e+01)	(5.527098e-04 1.590620e-04 -6.974388e-04)
5088          	(2.219424e+02 -7.948831e+00 4.228200e+01)	(2.219418e+02 -7.948990e+00 4.228270e+01)	(5.525493e-04 1.590090e-04 -6.972924e-04)
5089          	(2.219424e+02 -7.948830e+00 4.228203e+01)	(2.219419e+02 -7.948989e+00 4.228272e+01)	(5.523968e-04 1.589510e-04 -6.970972e-04)
5090          	(2.219424e+02 -7.948830e+00 4.228203e+01)	(2.219419e+02 -7.948989e+00 4.228273e+01)	(5.522486e-04 1.588985e-04 -6.969242e-04)
5091          	(2.219425e+02 -7.948831e+00 4.228205e+01)	(2.219419e+02 -7.948989e+00 4.228274e+01)	(5.521024e-04 1.588474e-04 -6.967482e-04)
5092          	(2.219425e+02 -7.948832e+00 4.228205e+01)	(2.219419e+02 -7.948991e+00 4.228274e+01)	(5.519597e-04 1.588021e-04 -6.965969e-04)
5093          	(2.219425e+02 -7.948833e+00 4.228205e+01)	(2.219419e+02 -7.948992e+00 4.228274e+01)	(5.518215e-04 1.587639e-04 -6.964680e-04)
5094          	(2.219425e+02 -7.948833e+00 4.228206e+01)	(2.219419e+02 -7.948992e+00 4.228275e+01)	(5.516823e-04 1.587246e-04 -6.963162e-04)
5095          	(2.219425e+02 -7.948834e+00 4.228205e+01)	(2.219419e+02 -7.948993e+00 4.228275e+01)	(5.515448e-04 1.586909e-04 -6.961875e-04)
5096          	(2.219425e+02 -7.948835e+00 4.228206e+01)	(2.219420e+02 -7.948994e+00 4.228276e+01)	(5.514043e-04 1.586590e-04 -6.960562e-04)
5097          	(2.219425e+02 -7.948836e+00 4.228206e+01)	(2.219420e+02 -7.948995e+00 4.228275e+01)	(5.512669e-04 1.586335e-04 -6.959469e-04)
5098          	(2.219425e+02 -7.948838e+00 4.228205e+01)	(2.219419e+02 -7.948996e+00 4.228274e+01)	(5.511220e-04 1.586126e-04 -6.958705e-04)
5099          	(2.219425e+02 -7.948838e+00 4.228205e+01)	(2.219420e+02 -7.948997e+00 4.228274e+01)	(5.509707e-04 1.585909e-04 -6.957910e-04)
5100          	(2.219425e+02 -7.948839e+00 4.228204e+01)	(2.219419e+02 -7.948998e+00 4.228274e+01)	(5.508147e-04 1.585710e-04 -6.957270e-04)
5101          	(2.219425e+02 -7.948840e+00 4.228203e+01)	(2.219419e+02 -7.948998e+00 4.228273e+01)	(5.506539e-04 1.585536e-04 -6.956804e-04)
5102          	(2.219425e+02 -7.948840e+00 4.228202e+01)	(2.219419e+02 -7.948999e+00 4.228272e+01)	(5.504797e-04 1.585356e-04 -6.956471e-04)
5103          	(2.219425e+02 -7.948841e+00 4.228201e+01)	(2.219419e+02 -7.949000e+00 4.228271e+01)	(5.502997e-04 1.585183e-04 -6.956188e-04)
5104          	(2.219425e+02 -7.948841e+00 4.228200e+01)	(2.219419e+02 -7.949000e+00 4.228270e+01)	(5.501106e-04 1.585001e-04 -6.955883e-04)
5105          	(2.219424e+02 -7.948842e+00 4.228199e+01)	(2.219419e+02 -7.949000e+00 4.228268e+01)	(5.499177e-04 1.584820e-04 -6.955483e-04)
5106          	(2.219424e+02 -7.948842e+00 4.228197e+01)	(2.219419e+02 -7.949000e+00 4.228267e+01)	(5.497222e-04 1.584634e-04 -6.954964e-04)
5107          	(2.219424e+02 -7.948842e+00 4.228196e+01)	(2.219419e+02 -7.949000e+00 4.228266e+01)	(5.495296e-04 1.584456e-04 -6.954310e-04)
5108          	(2.219424e+02 -7.948841e+00 4.228195e+01)	(2.219419e+02 -7.948999e+00 4.228264e+01)	(5.493399e-04 1.584279e-04 -6.953494e-04)
5109          	(2.219424e+02 -7.948840e+00 4.228193e+01)	(2.219419e+02 -7.948999e+00 4.228263e+01)	(5.491586e-04 1.584117e-04 -6.952540e-04)
5110          	(2.219424e+02 -7.948839e+00 4.228192e+01)	(2.219419e+02 -7.948997e+00 4.228262e+01)	(5.489908e-04 1.583981e-04 -6.951449e-04)
5111          	(2.219424e+02 -7.948837e+00 4.228191e+01)	(2.219419e+02 -7.948996e+00 4.228261e+01)	(5.488438e-04 1.583887e-04 -6.950278e-04)
5112          	(2.219424e+02 -7.948835e+00 4.228191e+01)	(2.219419e+02 -7.948994e+00 4.228260e+01)	(5.487210e-04 1.583844e-04 -6.949072e-04)
5113          	(2.219424e+02 -7.948833e+00 4.228190e+01)	(2.219419e+02 -7.948991e+00 4.228260e+01)	(5.486285e-04 1.583844e-04 -6.947749e-04)
5114          	(2.219424e+02 -7.948830e+00 4.228190e+01)	(2.219419e+02 -7.948989e+00 4.228260e+01)	(5.485670e-04 1.583913e-04 -6.946507e-04)
5115          	(2.219424e+02 -7.948828e+00 4.228190e+01)	(2.219419e+02 -7.948986e+00 4.228260e+01)	(5.485424e-04 1.584066e-04 -6.945387e-04)
5116          	(2.219424e+02 -7.948824e+00 4.228191e+01)	(2.219419e+02 -7.948983e+00 4.228260e+01)	(5.485595e-04 1.584274e-04 -6.944226e-04)
5117          	(2.219424e+02 -7.948821e+00 4.228190e+01)	(2.219418e+02 -7.948979e+00 4.228259e+01)	(5.486119e-04 1.584579e-04 -6.943267e-04)
5118          	(2.219424e+02 -7.948817e+00 4.228191e+01)	(2.219418e+02 -7.948976e+00 4.228260e+01)	(5.487048e-04 1.584936e-04 -6.942228e-04)
5119          	(2.219424e+02 -7.948814e+00 4.228190e+01)	(2.219418e+02 -7.948972e+00 4.228260e+01)	(5.488227e-04 1.585360e-04 -6.941320e-04)
5120          	(2.219424e+02 -7.948810e+00 4.228191e+01)	(2.219418e+02 -7.948968e+00 4.228261e+01)	(5.489599e-04 1.585806e-04 -6.940331e-04)
5121          	(2.219424e+02 -7.948806e+00 4.228192e+01)	(2.219418e+02 -7.948965e+00 4.228261e+01)	(5.491084e-04 1.586238e-04 -6.939137e-04)
5122          	(2.219424e+02 -7.948802e+00 4.228193e+01)	(2.219418e+02 -7.948961e+00 4.228262e+01)	(5.492636e-04 1.586645e-04 -6.937806e-04)
5123          	(2.219424e+02 -7.948798e+00 4.228194e+01)	(2.219419e+02 -7.948956e+00 4.228263e+01)	(5.494240e-04 1.587019e-04 -6.936296e-04)
5124          	(2.219424e+02 -7.948793e+00 4.228195e+01)	(2.219418e+02 -7.948952e+00 4.228264e+01)	(5.495987e-04 1.587382e-04 -6.934650e-04)
5125          	(2.219424e+02 -7.948789e+00 4.228196e+01)	(2.219419e+02 -7.948948e+00 4.228265e+01)	(5.497768e-04 1.587716e-04 -6.932805e-04)
5126          	(2.219424e+02 -7.948784e+00 4.228198e+01)	(2.219419e+02 -7.948943e+00 4.228267e+01)	(5.499661e-04 1.588029e-04 -6.930736e-04)
5127          	(2.219424e+02 -7.948780e+00 4.228200e+01)	(2.219419e+02 -7.948939e+00 4.228269e+01)	(5.501695e-04 1.588323e-04 -6.928465e-04)
5128          	(2.219425e+02 -7.948776e+00 4.228202e+01)	(2.219419e+02 -7.948935e+00 4.228271e+01)	(5.503896e-04 1.588607e-04 -6.925963e-04)
5129          	(2.219425e+02 -7.948771e+00 4.228204e+01)	(2.219419e+02 -7.948930e+00 4.228273e+01)	(5.506264e-04 1.588885e-04 -6.923347e-04)
5130          	(2.219425e+02 -7.948767e+00 4.228207e+01)	(2.219419e+02 -7.948926e+00 4.228276e+01)	(5.508786e-04 1.589155e-04 -6.920600e-04)
5131          	(2.219425e+02 -7.948763e+00 4.228209e+01)	(2.219420e+02 -7.948922e+00 4.228279e+01)	(5.511440e-04 1.589414e-04 -6.917786e-04)
5132          	(2.219425e+02 -7.948759e+00 4.228212e+01)	(2.219420e+02 -7.948918e+00 4.228281e+01)	(5.514215e-04 1.589664e-04 -6.914866e-04)
5133          	(2.219426e+02 -7.948755e+00 4.228215e+01)	(2.219420e+02 -7.948914e+00 4.228284e+01)	(5.517067e-04 1.589899e-04 -6.911903e-04)
5134          	(2.219426e+02 -7.948751e+00 4.228218e+01)	(2.219420e+02 -7.948910e+00 4.228287e+01)	(5.519935e-04 1.590110e-04 -6.908963e-04)
5135          	(2.219426e+02 -7.948747e+00 4.228220e+01)	(2.219420e+02 -7.948906e+00 4.228289e+01)	(5.522833e-04 1.590302e-04 -6.906046e-04)
5136          	(2.219426e+02 -7.948743e+00 4.228223e+01)	(2.219421e+02 -7.948902e+00 4.228292e+01)	(5.525706e-04 1.590471e-04 -6.903218e-04)
5137          	(2.219426e+02 -7.948740e+00 4.228226e+01)	(2.219421e+02 -7.948899e+00 4.228295e+01)	(5.528607e-04 1.590633e-04 -6.900433e-04)
5138          	(2.219427e+02 -7.948736e+00 4.228228e+01)	(2.219421e+02 -7.948895e+00 4.228297e+01)	(5.531494e-04 1.590787e-04 -6.897855e-04)
5139          	(2.219427e+02 -7.948733e+00 4.228230e+01)	(2.219421e+02 -7.948892e+00 4.228299e+01)	(5.534392e-04 1.590944e-04 -6.895437e-04)
5140          	(2.219427e+02 -7.948730e+00 4.228233e+01)	(2.219421e+02 -7.948889e+00 4.228302e+01)	(5.537297e-04 1.591109e-04 -6.893226e-04)
5141          	(2.219427e+02 -7.948728e+00 4.228234e+01)	(2.219421e+02 -7.948887e+00 4.228303e+01)	(5.540257e-04 1.591296e-04 -6.891190e-04)
5142          	(2.219427e+02 -7.948725e+00 4.228236e+01)	(2.219422e+02 -7.948884e+00 4.228305e+01)	(5.543236e-04 1.591502e-04 -6.889427e-04)
5143          	(2.219427e+02 -7.948723e+00 4.228237e+01)	(2.219422e+02 -7.948882e+00 4.228306e+01)	(5.546364e-04 1.591756e-04 -6.887764e-04)
5144          	(2.219427e+02 -7.948721e+00 4.228239e+01)	(2.219422e+02 -7.948880e+00 4.228307e+01)	(5.549578e-04 1.592049e-04 -6.886338e-04)
5145          	(2.219428e+02 -7.948720e+00 4.228239e+01)	(2.219422e+02 -7.948879e+00 4.228308e+01)	(5.553053e-04 1.592422e-04 -6.884920e-04)
5146          	(2.219428e+02 -7.948718e+00 4.228240e+01)	(2.219422e+02 -7.948878e+00 4.228309e+01)	(5.556675e-04 1.592849e-04 -6.883723e-04)
5147          	(2.219428e+02 -7.948717e+00 4.228241e+01)	(2.219422e+02 -7.948877e+00 4.228310e+01)	(5.560519e-04 1.593347e-04 -6.882522e-04)
5148          	(2.219428e+02 -7.948717e+00 4.228241e+01)	(2.219422e+02 -7.948876e+00 4.228310e+01)	(5.564446e-04 1.593883e-04 -6.881409e-04)
5149          	(2.219428e+02 -7.948716e+00 4.228241e+01)	(2.219422e+02 -7.948876e+00 4.228310e+01)	(5.568356e-04 1.594431e-04 -6.880299e-04)
5150          	(2.219428e+02 -7.948716e+00 4.228241e+01)	(2.219422e+02 -7.948876e+00 4.228310e+01)	(5.572120e-04 1.594955e-04 -6.879254e-04)
5151          	(2.219428e+02 -7.948716e+00 4.228241e+01)	(2.219422e+02 -7.948876e+00 4.228310e+01)	(5.575548e-04 1.595405e-04 -6.878263e-04)
5152          	(2.219428e+02 -7.948716e+00 4.228241e+01)	(2.219422e+02 -7.948876e+00 4.228309e+01)	(5.578485e-04 1.595744e-04 -6.877378e-04)
5153          	(2.219428e+02 -7.948717e+00 4.228240e+01)	(2.219422e+02 -7.948876e+00 4.228309e+01)	(5.580788e-04 1.595933e-04 -6.876551e-04)
5154          	(2.219428e+02 -7.948717e+00 4.228239e+01)	(2.219422e+02 -7.948877e+00 4.228308e+01)	(5.582465e-04 1.595971e-04 -6.875659e-04)
5155          	(2.219428e+02 -7.948718e+00 4.228238e+01)	(2.219422e+02 -7.948877e+00 4.228307e+01)	(5.583455e-04 1.595840e-04 -6.874626e-04)
5156          	(2.219428e+02 -7.948718e+00 4.228237e+01)	(2.219422e+02 -7.948878e+00 4.228305e+01)	(5.583788e-04 1.595547e-04 -6.873375e-04)
5157          	(2.219428e+02 -7.948718e+00 4.228235e+01)	(2.219422e+02 -7.948878e+00 4.228304e+01)	(5.583538e-04 1.595112e-04 -6.871854e-04)
5158          	(2.219428e+02 -7.948718e+00 4.228233e+01)	(2.219422e+02 -7.948878e+00 4.228302e+01)	(5.582783e-04 1.594556e-04 -6.870036e-04)
5159          	(2.219428e+02 -7.948718e+00 4.228231e+01)	(2.219422e+02 -7.948878e+00 4.228300e+01)	(5.581559e-04 1.593894e-04 -6.868011e-04)
5160          	(2.219428e+02 -7.948718e+00 4.228229e+01)	(2.219423e+02 -7.948877e+00 4.228298e+01)	(5.579998e-04 1.593162e-04 -6.865846e-04)
5161          	(2.219428e+02 -7.948717e+00 4.228227e+01)	(2.219423e+02 -7.948876e+00 4.228296e+01)	(5.578203e-04 1.592394e-04 -6.863654e-04)
5162          	(2.219428e+02 -7.948716e+00 4.228226e+01)	(2.219423e+02 -7.948875e+00 4.228294e+01)	(5.576299e-04 1.591625e-04 -6.861523e-04)
5163          	(2.219428e+02 -7.948714e+00 4.228224e+01)	(2.219423e+02 -7.948874e+00 4.228293e+01)	(5.574360e-04 1.590879e-04 -6.859608e-04)
5164          	(2.219428e+02 -7.948713e+00 4.228222e+01)	(2.219423e+02 -7.948872e+00 4.228291e+01)	(5.572534e-04 1.590189e-04 -6.857883e-04)
5165          	(2.219428e+02 -7.948711e+00 4.228221e+01)	(2.219423e+02 -7.948870e+00 4.228290e+01)	(5.570840e-04 1.589569e-04 -6.856443e-04)
5166          	(2.219428e+02 -7.948709e+00 4.228220e+01)	(2.219423e+02 -7.948868e+00 4.228289e+01)	(5.569380e-04 1.589041e-04 -6.855297e-04)
5167          	(2.219428e+02 -7.948706e+00 4.228219e+01)	(2.219423e+02 -7.948865e+00 4.228288e+01)	(5.568142e-04 1.588606e-04 -6.854453e-04)
5168          	(2.219429e+02 -7.948704e+00 4.228218e+01)	(2.219423e+02 -7.948863e+00 4.228287e+01)	(5.567172e-04 1.588269e-04 -6.853805e-04)
5169          	(2.219429e+02 -7.948702e+00 4.228218e+01)	(2.219423e+02 -7.948861e+00 4.228286e+01)	(5.566439e-04 1.588021e-04 -6.853363e-04)
5170          	(2.219429e+02 -7.948700e+00 4.228217e+01)	(2.219423e+02 -7.948859e+00 4.228286e+01)	(5.565913e-04 1.587852e-04 -6.852977e-04)
5171          	(2.219429e+02 -7.948698e+00 4.228217e+01)	(2.219423e+02 -7.948857e+00 4.228285e+01)	(5.565559e-04 1.587749e-04 -6.852610e-04)
5172          	(2.219429e+02 -7.948696e+00 4.228216e+01)	(2.219423e+02 -7.948855e+00 4.228285e+01)	(5.565315e-04 1.587692e-04 -6.852165e-04)
5173          	(2.219429e+02 -7.948694e+00 4.228216e+01)	(2.219423e+02 -7.948853e+00 4.228284e+01)	(5.565195e-04 1.587687e-04 -6.851645e-04)
5174          	(2.219429e+02 -7.948693e+00 4.228216e+01)	(2.219423e+02 -7.948852e+00 4.228284e+01)	(5.565115e-04 1.587706e-04 -6.850925e-04)
5175          	(2.219429e+02 -7.948692e+00 4.228215e+01)	(2.219423e+02 -7.948851e+00 4.228284e+01)	(5.565031e-04 1.587738e-04 -6.850031e-04)
5176          	(2.219429e+02 -7.948692e+00 4.228214e+01)	(2.219423e+02 -7.948850e+00 4.228283e+01)	(5.564873e-04 1.587762e-04 -6.848867e-04)
5177          	(2.219429e+02 -7.948691e+00 4.228214e+01)	(2.219423e+02 -7.948850e+00 4.228282e+01)	(5.564560e-04 1.587760e-04 -6.847462e-04)
5178          	(2.219429e+02 -7.948691e+00 4.228213e+01)	(2.219423e+02 -7.948850e+00 4.228281e+01)	(5.564062e-04 1.587720e-04 -6.845747e-04)
5179          	(2.219429e+02 -7.948692e+00 4.228211e+01)	(2.219423e+02 -7.948851e+00 4.228280e+01)	(5.563312e-04 1.587622e-04 -6.843811e-04)
5180          	(2.219429e+02 -7.948693e+00 4.228210e+01)	(2.219423e+02 -7.948851e+00 4.228278e+01)	(5.562337e-04 1.587472e-04 -6.841620e-04)
5181          	(2.219429e+02 -7.948693e+00 4.228208e+01)	(2.219423e+02 -7.948852e+00 4.228277e+01)	(5.561122e-04 1.587270e-04 -6.839314e-04)
5182          	(2.219428e+02 -7.948694e+00 4.228207e+01)	(2.219423e+02 -7.948853e+00 4.228275e+01)	(5.559677e-04 1.587025e-04 -6.836905e-04)
5183          	(2.219428e+02 -7.948695e+00 4.228205e+01)	(2.219423e+02 -7.948854e+00 4.228273e+01)	(5.558087e-04 1.586755e-04 -6.834480e-04)
5184          	(2.219428e+02 -7.948695e+00 4.228203e+01)	(2.219423e+02 -7.948854e+00 4.228271e+01)	(5.556432e-04 1.586477e-04 -6.832060e-04)
5185          	(2.219428e+02 -7.948696e+00 4.228200e+01)	(2.219422e+02 -7.948855e+00 4.228268e+01)	(5.554743e-04 1.586245e-04 -6.829953e-04)
5186          	(2.219428e+02 -7.948696e+00 4.228199e+01)	(2.219422e+02 -7.948855e+00 4.228267e+01)	(5.553166e-04 1.586025e-04 -6.827970e-04)
5187          	(2.219428e+02 -7.948696e+00 4.228198e+01)	(2.219422e+02 -7.948854e+00 4.228266e+01)	(5.551705e-04 1.585809e-04 -6.826169e-04)
5188          	(2.219427e+02 -7.948695e+00 4.228195e+01)	(2.219422e+02 -7.948854e+00 4.228264e+01)	(5.550391e-04 1.585666e-04 -6.824739e-04)
5189          	(2.219427e+02 -7.948694e+00 4.228195e+01)	(2.219422e+02 -7.948853e+00 4.228263e+01)	(5.549253e-04 1.585530e-04 -6.823419e-04)
5190          	(2.219427e+02 -7.948693e+00 4.228195e+01)	(2.219422e+02 -7.948851e+00 4.228263e+01)	(5.548286e-04 1.585389e-04 -6.822155e-04)
5191          	(2.219427e+02 -7.948691e+00 4.228195e+01)	(2.219421e+02 -7.948850e+00 4.228264e+01)	(5.547492e-04 1.585236e-04 -6.820886e-04)
5192          	(2.219427e+02 -7.948690e+00 4.228194e+01)	(2.219421e+02 -7.948849e+00 4.228262e+01)	(5.546905e-04 1.585172e-04 -6.820059e-04)
5193          	(2.219427e+02 -7.948689e+00 4.228195e+01)	(2.219421e+02 -7.948847e+00 4.228263e+01)	(5.546520e-04 1.585108e-04 -6.819217e-04)
5194          	(2.219427e+02 -7.948687e+00 4.228195e+01)	(2.219421e+02 -7.948846e+00 4.228264e+01)	(5.546333e-04 1.585035e-04 -6.818327e-04)
5195          	(2.219427e+02 -7.948685e+00 4.228197e+01)	(2.219421e+02 -7.948844e+00 4.228265e+01)	(5.546342e-04 1.584952e-04 -6.817423e-04)
5196          	(2.219426e+02 -7.948684e+00 4.228196e+01)	(2.219421e+02 -7.948843e+00 4.228265e+01)	(5.546552e-04 1.584938e-04 -6.816928e-04)
5197          	(2.219426e+02 -7.948683e+00 4.228197e+01)	(2.219421e+02 -7.948841e+00 4.228266e+01)	(5.546933e-04 1.584927e-04 -6.816623e-04)
5198          	(2.219426e+02 -7.948681e+00 4.228199e+01)	(2.219421e+02 -7.948840e+00 4.228267e+01)	(5.547515e-04 1.584924e-04 -6.816475e-04)
5199          	(2.219426e+02 -7.948680e+00 4.228200e+01)	(2.219421e+02 -7.948838e+00 4.228268e+01)	(5.548301e-04 1.584953e-04 -6.816607e-04)
5200          	(2.219427e+02 -7.948678e+00 4.228201e+01)	(2.219421e+02 -7.948837e+00 4.228269e+01)	(5.549339e-04 1.585023e-04 -6.817008e-04)
5201          	(2.219427e+02 -7.948677e+00 4.228202e+01)	(2.219421e+02 -7.948836e+00 4.228270e+01)	(5.550674e-04 1.585138e-04 -6.817699e-04)
5202          	(2.219427e+02 -7.948676e+00 4.228203e+01)	(2.219421e+02 -7.948834e+00 4.228271e+01)	(5.552387e-04 1.585309e-04 -6.818624e-04)
5203          	(2.219427e+02 -7.948675e+00 4.228205e+01)	(2.219421e+02 -7.948833e+00 4.228273e+01)	(5.554443e-04 1.585528e-04 -6.819753e-04)
5204          	(2.219426e+02 -7.948674e+00 4.228205e+01)	(2.219421e+02 -7.948832e+00 4.228273e+01)	(5.556882e-04 1.585837e-04 -6.821326e-04)
5205          	(2.219427e+02 -7.948673e+00 4.228207e+01)	(2.219421e+02 -7.948831e+00 4.228275e+01)	(5.559604e-04 1.586130e-04 -6.822831e-04)
5206          	(2.219427e+02 -7.948672e+00 4.228208e+01)	(2.219421e+02 -7.948831e+00 4.228277e+01)	(5.562492e-04 1.586380e-04 -6.824234e-04)
5207          	(2.219427e+02 -7.948672e+00 4.228210e+01)	(2.219421e+02 -7.948830e+00 4.228278e+01)	(5.565389e-04 1.586590e-04 -6.825611e-04)
5208          	(2.219427e+02 -7.948672e+00 4.228211e+01)	(2.219421e+02 -7.948831e+00 4.228279e+01)	(5.568235e-04 1.586732e-04 -6.826916e-04)
5209          	(2.219426e+02 -7.948673e+00 4.228211e+01)	(2.219421e+02 -7.948832e+00 4.228280e+01)	(5.571020e-04 1.586828e-04 -6.828320e-04)
5210          	(2.219426e+02 -7.948674e+00 4.228213e+01)	(2.219421e+02 -7.948833e+00 4.228281e+01)	(5.573662e-04 1.586796e-04 -6.829534e-04)
5211          	(2.219426e+02 -7.948675e+00 4.228214e+01)	(2.219421e+02 -7.948834e+00 4.228283e+01)	(5.576129e-04 1.586636e-04 -6.830527e-04)