# kMean  POINT_DATA 49517
# x  y  z  kMean
-3.4047e-09 0 0 0.000102435
3.99952e-05 0 0 0.000102278
-4.00019e-05 6.77626e-21 0 0.000102593
3.99954e-05 0 3.74205e-05 0.000102278
-4.00018e-05 0 3.74205e-05 0.000102593
0.000312499 -2.71051e-20 0.000292358 0.000101232
-0.000312502 2.71051e-20 0.000292358 0.000103638
0.000584999 -6.77626e-21 0 9.99381e-05
-0.000585005 0 0 0.000104331
-1.06408e-09 2.25875e-21 0.000585361 9.9598e-05
0.000584999 0 3.74206e-05 9.99381e-05
-0.000585005 0 3.74204e-05 0.000104331
0.000624998 6.77626e-21 0 9.97457e-05
-0.000625003 6.77626e-21 0 0.000104438
0.000664997 0 0 9.95528e-05
-0.000665001 0 0 0.000104545
0.000664997 6.77626e-21 3.74206e-05 9.95528e-05
-0.000665001 0 3.74204e-05 0.000104545
0.000625 2.25875e-21 0.000585361 9.70365e-05
-0.000625001 2.25875e-21 0.000585362 0.000101323
0.0003125 0 0.000892183 9.5745e-05
-0.0003125 0 0.000892183 9.76957e-05
0.0009375 -2.71051e-20 0.000292358 9.82584e-05
-0.000937501 -2.71051e-20 0.000292359 0.000105239
-2.44748e-10 3.38813e-21 0.00120022 0.000113228
0.00121 6.77626e-21 0 9.67858e-05
-0.00121 0 0 0.000105457
0.00121 0 3.74205e-05 9.67858e-05
-0.00121 0 3.74203e-05 0.000105457
0.00125 0 0 9.65684e-05
-0.00125 0 0 0.000105497
-0.00129 0 0 0.000105537
0.00129 0 0 9.63502e-05
-0.00129 0 3.74202e-05 0.000105537
0.00129 -6.77626e-21 3.74205e-05 9.63502e-05
0.0009375 0 0.000892183 9.28332e-05
-0.0009375 0 0.000892184 9.86327e-05
0.000625 -1.12938e-21 0.00120022 0.000109691
-0.000625 1.12938e-21 0.00120022 0.000115459
0.00125 -1.12938e-21 0.000585361 9.37251e-05
-0.00125 2.25875e-21 0.000585362 0.000102077
0.0003125 2.71051e-20 0.00152054 0.000128037
-0.0003125 0 0.00152054 0.000131857
-0.0015625 0 0.000292358 0.000105756
0.0015625 0 0.000292358 9.48775e-05
0.00125 0 0.00120022 0.000104808
-0.00125 1.12938e-21 0.00120022 0.000116521
0.0009375 2.71051e-20 0.00152054 0.000122542
-0.0009375 2.71051e-20 0.00152054 0.000134094
0.0015625 2.71051e-20 0.000892183 8.88502e-05
-0.0015625 0 0.000892183 9.85843e-05
0.001835 0 0 9.33025e-05
-0.001835 0 0 0.000105521
0.001835 -6.77626e-21 3.74205e-05 9.33025e-05
-0.001835 0 3.74201e-05 0.000105521
-4.00486e-11 0 0.0018415 0.000138468
0.001875 0 0 9.30713e-05
-0.001875 0 0 0.000105491
-0.001915 -6.77626e-21 0 0.000105462
0.001915 6.77626e-21 0 9.28388e-05
-0.001915 0 3.74201e-05 0.000105462
0.001915 0 3.74206e-05 9.28388e-05
0.000625 0 0.0018415 0.000132947
-0.000625 0 0.0018415 0.000142341
-0.001875 1.12938e-21 0.000585361 0.000101912
0.001875 -1.12938e-21 0.000585362 8.96893e-05
0.0015625 -2.71051e-20 0.00152054 0.000115367
-0.0015625 0 0.00152054 0.000135233
0.0003125 2.71051e-20 0.002164 0.00014425
-0.0003125 0 0.002164 0.000149757
0.0021875 0 0.000292358 9.12638e-05
-0.0021875 -2.71051e-20 0.000292358 0.000105228
0.00125 0 0.0018415 0.000125666
-0.00125 0 0.0018415 0.000144779
-0.001875 0 0.00120022 0.000116608
0.001875 0 0.00120022 9.84969e-05
0.0009375 0 0.002164 0.000136984
-0.0009375 0 0.002164 0.000153685
-0.0021875 5.42101e-20 0.000892183 9.79782e-05
0.0021875 -2.71051e-20 0.000892183 8.36697e-05
0.00246 0 0 8.96383e-05
-0.00246 6.77626e-21 0 0.000104522
0.00246 -6.77626e-21 3.74204e-05 8.96383e-05
-0.00246 0 3.74198e-05 0.000104522
-1.78244e-12 0 0.00248636 0.000153566
-0.0025 0 0 0.000104426
0.0025 6.77626e-21 0 8.94004e-05
-0.00254 0 0 0.000104331
0.00254 0 0 8.9161e-05
-0.00254 0 3.74198e-05 0.000104331
0.00254 0 3.74204e-05 8.9161e-05
0.000625 1.12938e-21 0.00248636 0.00014695
-0.000625 -2.25875e-21 0.00248636 0.000158437
-0.0025 0 0.000585362 0.000100889
0.0025 1.12938e-21 0.000585362 8.49526e-05
0.001875 2.25875e-21 0.0018415 0.000116531
-0.001875 0 0.0018415 0.000145899
0.0021875 -2.71051e-20 0.00152054 0.000106415
-0.0021875 0 0.00152054 0.000135108
0.0015625 0 0.002164 0.000127793
-0.0015625 0 0.002164 0.000156138
-0.0025 -1.12938e-21 0.00120022 0.0001159
0.0025 0 0.00120022 9.06665e-05
0.00125 -1.12938e-21 0.00248636 0.000138396
-0.00125 -2.25875e-21 0.00248636 0.000161743
0.0003125 0 0.00280426 0.000157158
-0.0003125 0 0.00280426 0.000163036
0.0028125 0 0.000292358 8.75355e-05
-0.0028125 2.71051e-20 0.000292358 0.000103625
-0.0028125 0 0.000892183 9.66236e-05
0.0028125 -5.42101e-20 0.000892183 7.72148e-05
0.0009375 -2.71051e-20 0.00280426 0.00014935
-0.0009375 5.42101e-20 0.00280426 0.000167206
0.0021875 -2.71051e-20 0.002164 0.000116569
-0.0021875 -2.71051e-20 0.002164 0.000157154
0.003085 -6.77626e-21 0 8.59095e-05
-0.003085 6.77626e-21 0 0.000102238
0.003085 0 3.742e-05 8.59095e-05
-0.003085 0 3.74189e-05 0.000102238
-0.0025 0 0.0018415 0.000145892
0.0025 4.51751e-21 0.0018415 0.000105463
0.001875 0 0.00248636 0.000127735
-0.001875 -1.12938e-21 0.00248636 0.000163634
1.03657e-12 1.12938e-21 0.00312179 0.000165755
0.003125 0 0 8.56722e-05
-0.003125 0 0 0.000102043
-0.003165 6.77626e-21 0 0.000101851
0.003165 0 -2.03573e-120 8.54334e-05
-0.003165 0 3.74187e-05 0.000101851
0.003165 0 3.74199e-05 8.54334e-05
0.003125 1.12938e-21 0.000585361 7.95979e-05
-0.003125 -1.12938e-21 0.000585362 9.8813e-05
0.000625 1.12938e-21 0.00312179 0.000159093
-0.000625 -1.12938e-21 0.00312179 0.00017058
0.0028125 2.71051e-20 0.00152054 9.56291e-05
-0.0028125 0 0.00152054 0.000134369
0.0015625 5.42101e-20 0.00280426 0.000139402
-0.0015625 5.42101e-20 0.00280426 0.000169878
-0.003125 -1.12938e-21 0.00120022 0.00011444
0.003125 1.12938e-21 0.00120022 8.13638e-05
0.00125 -1.12938e-21 0.00312179 0.000150314
-0.00125 -2.25875e-21 0.00312179 0.000173827
-0.0034375 2.71051e-20 0.000292358 0.000100463
0.0034375 -2.71051e-20 0.000292358 8.38074e-05
-0.0003125 5.42101e-20 0.00343582 0.000174127
0.0003125 5.42101e-20 0.00343582 0.000168658
0.0025 2.25875e-21 0.00248636 0.000114851
-0.0025 0 0.00248636 0.000164248
0.0028125 0 0.002164 0.000103254
-0.0028125 0 0.002164 0.000156973
0.0034375 -5.42101e-20 0.000892183 6.96612e-05
-0.0034375 -2.71051e-20 0.000892183 9.44484e-05
-0.0021875 2.71051e-20 0.00280426 0.000171303
0.0021875 2.71051e-20 0.00280426 0.000127125
0.0009375 2.71051e-20 0.00343582 0.000161166
-0.0009375 2.71051e-20 0.00343582 0.00017791
0.003125 3.38813e-21 0.0018415 9.2492e-05
-0.003125 0 0.0018415 0.000145068
0.001875 -1.12938e-21 0.00312179 0.000139159
-0.001875 -2.25875e-21 0.00312179 0.000175729
0.00371 -6.77626e-21 -2.03454e-120 8.21824e-05
-0.00371001 0 0 9.84545e-05
0.00371 6.77626e-21 3.74192e-05 8.21824e-05
-0.00371001 0 3.74168e-05 9.84545e-05
1.9146e-13 2.25875e-21 0.00374964 0.000176194
-0.00375 0 0 9.81677e-05
0.00375 0 -4.07022e-120 8.19437e-05
-0.0034375 0 0.00152054 0.000132805
0.0034375 2.71051e-20 0.00152054 8.31539e-05
0.0015625 -5.42101e-20 0.00343582 0.000151296
-0.0015625 0 0.00343582 0.000180274
-0.00378999 0 0 9.78832e-05
0.00379 0 -2.94944e-110 8.17041e-05
-0.00378999 0 3.74165e-05 9.78832e-05
0.00379 0 3.74192e-05 8.17041e-05
-0.00375 3.38813e-21 0.000585362 9.56874e-05
0.00375 -2.25875e-21 0.000585361 7.3806e-05
-0.000625 1.12938e-21 0.00374964 0.000180434
0.000625 1.12938e-21 0.00374964 0.000170101
-0.00375 0 0.00120022 0.000112295
0.00375 2.25875e-21 0.00120022 7.09254e-05
0.00125 0 0.00374964 0.000161749
-0.00125 -1.12938e-21 0.00374964 0.000183158
0.0028125 2.71051e-20 0.00280426 0.000112412
-0.0028125 -2.71051e-20 0.00280426 0.000171497
0.003125 0 0.00248636 9.97168e-05
-0.003125 1.12938e-21 0.00248636 0.000163922
0.0025 0 0.00312179 0.00012545
-0.0025 -2.25875e-21 0.00312179 0.000176445
-0.0034375 0 0.002164 0.000156162
0.0034375 0 0.002164 8.79414e-05
-0.0040625 0 0.000292359 9.58745e-05
0.0040625 0 0.000292358 8.00791e-05
0.0021875 -5.42101e-20 0.00343582 0.000138771
-0.0021875 -2.71051e-20 0.00343582 0.000181424
-0.0003125 2.71051e-20 0.00406234 0.00018333
0.0003125 5.42101e-20 0.00406235 0.000178651
-0.00406249 -2.71051e-20 0.000892184 9.18933e-05
0.0040625 0 0.000892183 6.14453e-05
0.0009375 2.71051e-20 0.00406235 0.000171916
-0.0009375 2.71051e-20 0.00406235 0.00018636
-0.00375 2.25875e-21 0.0018415 0.000143491
0.00375 2.25875e-21 0.0018415 7.79714e-05
0.001875 1.12938e-21 0.00374964 0.000150744
-0.001875 -3.38813e-21 0.00374964 0.000184627
-0.004335 0 0 9.32512e-05
0.004335 0 -2.29728e-110 7.82745e-05
-0.004335 -6.77626e-21 3.74136e-05 9.32512e-05
0.004335 0 3.74187e-05 7.82745e-05
-0.0040625 0 0.00152054 0.000130525
0.0040625 5.42101e-20 0.00152054 6.95794e-05
0.0015625 2.71051e-20 0.00406235 0.000162607
-0.0015625 0 0.00406235 0.000188078
-0.00437499 0 0 9.28735e-05
-6.8232e-15 2.25875e-21 0.00437499 0.000185012
0.004375 0 -5.24668e-110 7.80055e-05
-0.00437499 1.12938e-21 0.000585364 9.14356e-05
0.004375 -2.25875e-21 0.000585362 6.75079e-05
-0.00441498 -6.77626e-21 0 9.24985e-05
0.004415 -6.77626e-21 -5.072e-102 7.77368e-05
-0.00441498 -6.77626e-21 3.74134e-05 9.24985e-05
0.004415 0 3.74187e-05 7.77368e-05
0.003125 -1.12938e-21 0.00312179 0.000109105
-0.003125 0 0.00312179 0.000176262
-0.000625 1.12938e-21 0.00437499 0.000188364
0.000625 0 0.00437499 0.000179839
0.0034375 5.42101e-20 0.00280426 9.52223e-05
-0.0034375 0 0.00280426 0.000170988
0.0028125 2.71051e-20 0.00343582 0.000123452
-0.0028125 -2.71051e-20 0.00343582 0.000181522
0.00375 0 0.00248636 8.25452e-05
-0.00375 0 0.00248636 0.000162867
0.0025 1.12938e-21 0.00374964 0.000136817
-0.0025 -4.51751e-21 0.00374964 0.000185049
-0.00437499 -1.12938e-21 0.00120022 0.000109427
0.004375 -3.38813e-21 0.00120022 5.97923e-05
-0.00125 -2.25875e-21 0.00437499 0.000190283
0.00125 -2.25875e-21 0.00437499 0.000172356
0.0040625 2.71051e-20 0.002164 7.12159e-05
-0.0040625 2.71051e-20 0.002164 0.000154512
0.0021875 0 0.00406235 0.000150292
-0.0021875 0 0.00406235 0.000188724
-0.00468748 0 0.00029236 8.98753e-05
0.0046875 2.71051e-20 0.000292358 7.59322e-05
0.0003125 2.71051e-20 0.0046875 0.000187215
-0.0003125 2.71051e-20 0.0046875 0.000190852
-0.004375 -2.25875e-21 0.0018415 0.000141237
0.004375 0 0.0018415 6.28023e-05
0.001875 -1.12938e-21 0.00437499 0.000162006
-0.001875 -3.38813e-21 0.00437499 0.000191079
-0.00468748 0 0.000892187 8.80591e-05
0.0046875 5.42101e-20 0.000892183 5.2277e-05
0.0009375 -2.71051e-20 0.0046875 0.000181575
-0.0009375 -5.42101e-20 0.0046875 0.000192915
0.0034375 2.71051e-20 0.00343582 0.000105296
-0.0034375 -5.42101e-20 0.00343582 0.000181005
0.00375 -1.12938e-21 0.00312179 9.01861e-05
-0.00375 1.12938e-21 0.00312179 0.000175387
0.003125 -1.12938e-21 0.00374964 0.000119866
-0.003125 -2.25875e-21 0.00374964 0.000184696
-0.00468749 -2.71051e-20 0.00152054 0.000127729
0.0046875 5.42101e-20 0.00152054 5.59424e-05
0.0040625 0 0.00280426 7.57736e-05
-0.0040625 2.71051e-20 0.00280426 0.000169734
0.0028125 -5.42101e-20 0.00406234 0.000134742
-0.0028125 -2.71051e-20 0.00406235 0.000188518
0.0015625 -2.71051e-20 0.0046875 0.000173326
-0.0015625 2.71051e-20 0.0046875 0.00019378
-0.00495999 0 0 8.67007e-05
0.00496 0 -7.91671e-102 7.37172e-05
-0.00495999 0 3.74085e-05 8.67007e-05
0.00496 0 3.74184e-05 7.37172e-05
-0.00499997 -6.77626e-21 0 8.6242e-05
0.005 6.77626e-21 -1.29887e-101 7.33844e-05
-9.80318e-15 1.12938e-21 0.005 0.000192395
-0.004375 0 0.00248636 0.000161083
0.004375 1.12938e-21 0.00248636 6.41639e-05
-0.00499996 -2.25875e-21 0.000585368 8.58244e-05
0.005 0 0.000585362 6.06356e-05
0.0025 0 0.00437499 0.000148333
-0.0025 -3.38813e-21 0.00437499 0.000191018
0.000625 0 0.005 0.000188385
-0.000625 0 0.005 0.000194667
-0.00503995 0 0 8.57856e-05
0.00504 0 -1.90073e-97 7.30529e-05
-0.00503995 0 3.7408e-05 8.57856e-05
0.00504 0 3.74184e-05 7.30529e-05
-0.00499997 1.12938e-21 0.00120022 0.000105596
0.005 4.51751e-21 0.00120022 4.87486e-05
0.00125 -2.25875e-21 0.005 0.000182122
-0.00125 -2.25875e-21 0.005 0.000195615
-0.0046875 2.71051e-20 0.002164 0.000152222
0.0046875 2.71051e-20 0.002164 5.4471e-05
0.0021875 -2.71051e-20 0.0046875 0.000161798
-0.0021875 2.71051e-20 0.0046875 0.000193734
0.00375 -2.25875e-21 0.00374964 9.98978e-05
-0.00375 -1.12938e-21 0.00374964 0.000183719
-0.00531242 2.71051e-20 0.000292364 8.26111e-05
0.0053125 -2.71051e-20 0.000292359 7.08378e-05
0.0040625 2.71051e-20 0.00343582 8.44194e-05
-0.0040625 2.71051e-20 0.00343582 0.000179783
0.0034375 0 0.00406234 0.000115963
-0.0034375 2.71051e-20 0.00406235 0.00018773
0.0003125 -2.71051e-20 0.0053125 0.000194546
-0.0003125 2.71051e-20 0.0053125 0.000196967
-0.00499999 0 0.0018415 0.000138426
0.005 2.25875e-21 0.0018415 4.81319e-05
0.001875 -2.25875e-21 0.005 0.000172948
-0.001875 -3.38813e-21 0.005 0.000195593
0.004375 -1.12938e-21 0.00312179 6.91483e-05
-0.004375 0 0.00312179 0.000173831
0.003125 -1.12938e-21 0.00437499 0.000131156
-0.003125 -3.38813e-21 0.00437499 0.000190308
-0.00531243 0 0.000892195 8.27407e-05
0.0053125 5.42101e-20 0.000892183 4.31329e-05
-0.0009375 -5.42101e-20 0.0053125 0.000197933
0.0009375 2.71051e-20 0.0053125 0.000190206
-0.0046875 0 0.00280426 0.000167794
0.0046875 -2.71051e-20 0.00280426 5.51815e-05
0.0028125 2.71051e-20 0.0046875 0.0001465
-0.0028125 5.42101e-20 0.0046875 0.000193097
-0.00531247 -5.42101e-20 0.00152055 0.000124375
0.0053125 -2.71051e-20 0.00152054 4.36678e-05
0.0015625 0 0.0053125 0.000183381
-0.0015625 2.71051e-20 0.0053125 0.000197833
-0.005 -1.12938e-21 0.00248636 0.000158718
0.005 1.12938e-21 0.00248636 4.61919e-05
-0.00558491 6.77626e-21 0 7.90088e-05
0.005585 0 -1.29247e-96 6.79902e-05
-0.00558491 0 3.73997e-05 7.90088e-05
0.005585 0 3.74183e-05 6.79902e-05
0.0025 -1.12938e-21 0.005 0.000160167
-0.0025 -2.25875e-21 0.005 0.000194878
-0.00562488 6.77626e-21 0 7.84864e-05
0.005625 0 -1.48253e-96 6.75599e-05
-9.80318e-15 1.12938e-21 0.005625 0.000198586
-0.00562487 1.12938e-21 0.000585377 7.90592e-05
0.005625 2.25875e-21 0.000585362 5.3575e-05
0.000625 0 0.005625 0.0001959
-0.000625 -1.12938e-21 0.005625 0.000199662
-0.00566484 6.77626e-21 0 7.79657e-05
-0.00566484 6.77626e-21 3.73996e-05 7.79657e-05
0.005665 0 5.52555e-89 6.71321e-05
0.005665 6.77626e-21 3.74183e-05 6.71321e-05
-0.00531249 0 0.002164 0.000149418
0.0053125 0 0.002164 3.84396e-05
0.0040625 -5.42101e-20 0.00406234 9.3902e-05
-0.0040625 -5.42101e-20 0.00406234 0.00018635
0.0021875 2.71051e-20 0.0053125 0.00017329
-0.0021875 5.42101e-20 0.0053125 0.000197024
-0.00562493 -4.51751e-21 0.00120023 0.000100805
0.005625 0 0.00120022 3.90725e-05
0.004375 -1.12938e-21 0.00374964 7.7155e-05
-0.004375 -1.12938e-21 0.00374964 0.000182165
0.00375 -1.12938e-21 0.00437499 0.000110456
-0.00375 -1.12938e-21 0.00437499 0.000189051
0.00125 -2.25875e-21 0.005625 0.000191081
-0.00125 -2.25875e-21 0.005625 0.000199559
-0.0046875 -5.42101e-20 0.00343582 0.000177979
0.0046875 -5.42101e-20 0.00343582 6.11914e-05
0.0034375 2.71051e-20 0.0046875 0.000127418
-0.0034375 0 0.0046875 0.000191885
-0.005 0 0.00312179 0.000171725
0.005 0 0.00312179 4.77787e-05
0.003125 -1.12938e-21 0.005 0.000143321
-0.003125 -2.25875e-21 0.005 0.000193635
-0.00562497 2.25875e-21 0.00184151 0.000134993
0.005625 0 0.0018415 3.56352e-05
0.001875 -2.25875e-21 0.005625 0.000183425
-0.001875 -2.25875e-21 0.005625 0.000198623
-0.00593726 -2.71051e-20 0.000292374 7.43639e-05
0.0059375 2.71051e-20 0.000292358 6.42844e-05
0.0003125 0 0.0059375 0.000200862
-0.0003125 0 0.0059375 0.00020197
-0.00593732 2.71051e-20 0.000892214 7.6538e-05
0.0059375 2.71051e-20 0.000892183 3.56468e-05
-0.0053125 0 0.00280426 0.000165364
0.0053125 0 0.00280426 3.66756e-05
0.0028125 -2.71051e-20 0.0053125 0.000159083
-0.0028125 2.71051e-20 0.0053125 0.000195656
-0.0009375 -2.71051e-20 0.0059375 0.000201778
0.0009375 5.42101e-20 0.0059375 0.000197989
-0.00593741 0 0.00152056 0.000120112
0.0059375 -2.71051e-20 0.00152054 3.38329e-05
0.0015625 -2.71051e-20 0.0059375 0.000192748
-0.0015625 2.71051e-20 0.0059375 0.000200692
-0.00562499 0 0.00248636 0.000155873
0.005625 0 0.00248636 3.10188e-05
0.0025 -2.25875e-21 0.005625 0.000172036
-0.0025 -1.12938e-21 0.005625 0.00019711
0.004375 -1.12938e-21 0.00437499 8.63791e-05
-0.004375 -1.12938e-21 0.00437499 0.000187357
0.0046875 2.71051e-20 0.00406235 6.9097e-05
-0.0046875 2.71051e-20 0.00406235 0.000184539
0.0040625 0 0.0046875 0.000104541
-0.0040625 2.71051e-20 0.0046875 0.00019024
-0.00620969 0 0 7.04763e-05
-0.00620969 0 3.73858e-05 7.04763e-05
0.00621 0 1.1344e-88 6.04038e-05
0.00621 0 3.74185e-05 6.04038e-05
-0.00624963 6.77626e-21 0 6.99107e-05
-0.005 0 0.00374964 0.000180155
0.005 0 0.00374964 5.30377e-05
0.00375 -1.12938e-21 0.005 0.000122218
-0.00375 -1.12938e-21 0.005 0.00019199
0.00625 -6.77626e-21 1.68696e-88 5.98171e-05
-9.8031e-15 0 0.00625 0.00020386
-0.00624966 1.12938e-21 0.000585395 7.14893e-05
0.00625 1.12938e-21 0.000585362 4.63703e-05
0.000625 -1.12938e-21 0.00625 0.000202561
-0.000625 -1.12938e-21 0.00625 0.00020369
-0.00628955 6.77626e-21 0 6.93465e-05
-0.00628956 6.77626e-21 3.73863e-05 6.93465e-05
0.00629 0 8.83963e-84 5.92338e-05
0.00629 -6.77626e-21 3.74186e-05 5.92338e-05
-0.00593747 -2.71051e-20 0.00216401 0.000146109
0.0059375 -2.71051e-20 0.002164 2.65881e-05
-0.0053125 -2.71051e-20 0.00343582 0.000175728
0.0053125 2.71051e-20 0.00343582 3.80497e-05
0.0034375 0 0.0053125 0.000140284
-0.0021875 2.71051e-20 0.0059375 0.000198944
-0.0034375 2.71051e-20 0.0053125 0.000193904
0.0021875 5.42101e-20 0.0059375 0.000184284
-0.00624982 -1.12938e-21 0.00120025 9.51873e-05
0.00625 1.12938e-21 0.00120022 3.15376e-05
-0.00125 -1.12938e-21 0.00625 0.00020248
0.00125 -3.38813e-21 0.00625 0.000199267
-0.005625 1.12938e-21 0.00312179 0.000169193
0.005625 0 0.00312179 2.96268e-05
0.003125 -3.38813e-21 0.005625 0.000156072
-0.003125 0 0.005625 0.000195222
-0.00624994 0 0.00184152 0.000130872
0.00625 0 0.0018415 2.67014e-05
0.001875 -2.25875e-21 0.00625 0.000193247
-0.001875 -1.12938e-21 0.00625 0.000200562
-0.00593749 2.71051e-20 0.00280426 0.000162526
0.0059375 5.42101e-20 0.00280426 2.23825e-05
-0.00656187 0 0.000292393 6.54602e-05
0.0065625 2.71051e-20 0.000292358 5.53532e-05
0.0003125 -5.42101e-20 0.0065625 0.000206412
-0.0028125 2.71051e-20 0.0059375 0.000196816
0.0028125 5.42101e-20 0.0059375 0.000171491
-0.0003125 2.71051e-20 0.0065625 0.000206196
-0.00656205 2.71051e-20 0.00089225 6.96414e-05
0.0065625 0 0.000892183 2.98138e-05
0.0009375 0 0.0065625 0.000204983
-0.0009375 5.42101e-20 0.0065625 0.000204818
0.0046875 2.71051e-20 0.0046875 7.79751e-05
-0.0046875 2.71051e-20 0.0046875 0.000188299
0.005 -2.25875e-21 0.00437499 6.04562e-05
-0.005 -1.12938e-21 0.00437499 0.00018534
0.004375 -1.12938e-21 0.005 9.68011e-05
-0.004375 -1.12938e-21 0.005 0.000190082
0.0053125 0 0.00406234 4.38021e-05
-0.0053125 2.71051e-20 0.00406235 0.000182366
0.0040625 0 0.0053125 0.000116632
-0.0040625 2.71051e-20 0.0053125 0.000191933
-0.00624999 2.25875e-21 0.00248637 0.000152566
0.00625 0 0.00248636 2.05567e-05
0.0025 -1.12938e-21 0.00625 0.000183466
-0.0025 -1.12938e-21 0.00625 0.000198213
-0.00656229 -2.71051e-20 0.00152059 0.000115029
0.0065625 2.71051e-20 0.00152054 2.68251e-05
-0.0015625 0 0.0065625 0.000202633
0.0015625 5.42101e-20 0.0065625 0.000201348
0.005625 0 0.00374964 3.15252e-05
-0.005625 0 0.00374964 0.000177784
0.00375 -2.25875e-21 0.005625 0.00013495
-0.00375 0 0.005625 0.000193143
-0.00683411 0 0 6.14498e-05
-0.00683412 6.77626e-21 3.73639e-05 6.14498e-05
0.006835 0 -9.79174e-82 5.04096e-05
0.006835 -6.77626e-21 3.74189e-05 5.04096e-05
0.0059375 2.71051e-20 0.00343582 2.13946e-05
-0.0059375 2.71051e-20 0.00343582 0.000173118
0.0034375 5.42101e-20 0.0059375 0.000153434
-0.0034375 2.71051e-20 0.0059375 0.000194511
-0.006874 0 0 6.08648e-05
-9.79465e-15 0 0.006875 0.000208477
0.006875 -6.77626e-21 -9.70334e-82 4.9679e-05
-0.00687415 0 0.000585427 6.33971e-05
0.006875 2.25875e-21 0.000585361 3.83612e-05
0.000625 0 0.006875 0.000208536
-0.000625 0 0.006875 0.000207059
-0.00656243 0 0.00216402 0.000142282
0.0065625 2.71051e-20 0.002164 1.95458e-05
-0.00691384 0 0 6.02807e-05
-0.00691386 6.77626e-21 3.73655e-05 6.02807e-05
0.006915 -6.77626e-21 -7.6246e-75 4.89479e-05
0.006915 6.77626e-21 3.74191e-05 4.89479e-05
0.0021875 2.71051e-20 0.0065625 0.00019461
-0.0021875 5.42101e-20 0.0065625 0.00019998
-0.00687455 -2.25875e-21 0.00120029 8.88821e-05
0.006875 1.12938e-21 0.00120022 2.57136e-05
-0.00625 2.25875e-21 0.00312179 0.000166288
0.00625 -1.12938e-21 0.00312179 1.72482e-05
0.00125 -1.12938e-21 0.006875 0.000206731
-0.00125 -1.12938e-21 0.006875 0.000204714
0.003125 -2.25875e-21 0.00625 0.000168736
-0.003125 0 0.00625 0.000195682
0.005 -2.25875e-21 0.005 6.88744e-05
-0.005 -1.12938e-21 0.005 0.000188013
-0.0053125 0 0.0046875 0.000186156
0.0046875 0 0.0053125 8.80565e-05
0.0053125 0 0.0046875 5.09475e-05
-0.0046875 2.71051e-20 0.0053125 0.000189858
-0.00687483 1.12938e-21 0.00184153 0.000126086
0.006875 1.12938e-21 0.0018415 2.10828e-05
0.005625 -1.12938e-21 0.00437499 3.61252e-05
-0.005625 -2.25875e-21 0.00437499 0.000183075
0.004375 0 0.005625 0.000108275
0.001875 -1.12938e-21 0.006875 0.000202351
-0.001875 -3.38813e-21 0.006875 0.000201806
-0.004375 -1.12938e-21 0.005625 0.000191005
-0.00656249 0 0.00280427 0.000159268
0.0065625 -5.42101e-20 0.00280426 1.37307e-05
-0.0028125 -2.71051e-20 0.0065625 0.000197111
0.0028125 2.71051e-20 0.0065625 0.000183481
-0.00718596 5.42101e-20 0.000292431 5.62729e-05
0.0071875 5.42101e-20 0.000292358 4.40043e-05
0.0059375 -5.42101e-20 0.00406235 2.28452e-05
-0.0059375 -2.71051e-20 0.00406235 0.000179918
0.0003125 -5.42101e-20 0.0071875 0.000211403
0.0040625 2.71051e-20 0.0059375 0.000129455
-0.0040625 2.71051e-20 0.0059375 0.000192224
-0.0003125 2.71051e-20 0.0071875 0.000209899
-0.00718646 -2.71051e-20 0.000892308 6.22884e-05
0.0071875 0 0.000892183 2.39508e-05
0.0009375 -2.71051e-20 0.0071875 0.000211349
-0.0009375 2.71051e-20 0.0071875 0.000207323
0.00625 0 0.00374964 1.66989e-05
-0.00625 0 0.00374964 0.000175119
0.00375 0 0.00625 0.000148007
-0.00375 0 0.00625 0.000193162
-0.00687497 -2.25875e-21 0.00248637 0.000148795
0.006875 0 0.00248636 1.46755e-05
0.0025 -1.12938e-21 0.006875 0.000194286
-0.0025 -3.38813e-21 0.006875 0.000198641
-0.00718701 2.71051e-20 0.00152063 0.000109167
0.0071875 -2.71051e-20 0.00152054 2.22339e-05
0.0015625 2.71051e-20 0.0071875 0.000209246
-0.0015625 2.71051e-20 0.0071875 0.000204083
-0.0065625 2.71051e-20 0.00343582 0.000170202
0.0065625 -5.42101e-20 0.00343582 1.14873e-05
0.0034375 0 0.0065625 0.000166542
-0.0034375 0 0.0065625 0.000194289
-0.00745778 -6.77626e-21 0 5.23166e-05
-0.0074578 -6.77626e-21 3.73274e-05 5.23166e-05
0.00746 0 -2.76121e-73 3.88926e-05
0.00746 0 3.74195e-05 3.88926e-05
-0.00749758 0 0 5.17388e-05
-9.72327e-15 0 0.0075 0.00021268
0.0075 6.77626e-21 -2.83746e-73 3.8155e-05
-0.00718734 2.71051e-20 0.00216404 0.000137913
0.0071875 -2.71051e-20 0.002164 1.5714e-05
0.0021875 0 0.0071875 0.000204203
-0.0021875 -2.71051e-20 0.0071875 0.00020053
-0.0053125 0 0.0053125 0.000187738
0.0053125 0 0.0053125 5.85174e-05
-0.00749809 -3.38813e-21 0.000585476 5.5108e-05
0.0075 0 0.000585362 2.96086e-05
0.000625 0 0.0075 0.000214042
-0.005 -1.12938e-21 0.005625 0.000188872
-0.005625 -1.12938e-21 0.005 0.000185836
-0.000625 0 0.0075 0.000210037
0.005 0 0.005625 7.7878e-05
0.005625 -1.12938e-21 0.005 4.21423e-05
-0.00753727 0 0 5.11615e-05
-0.00753733 6.77626e-21 3.73306e-05 5.11614e-05
0.00754 6.77626e-21 -1.47197e-66 3.74104e-05
0.00754 6.77626e-21 3.74196e-05 3.74104e-05
-0.006875 -2.25875e-21 0.00312179 0.000163035
0.006875 0 0.00312179 1.04109e-05
0.003125 -1.12938e-21 0.006875 0.000181044
-0.003125 -1.12938e-21 0.006875 0.000195474
0.0046875 2.71051e-20 0.0059375 9.89561e-05
-0.0046875 -2.71051e-20 0.0059375 0.000190004
-0.0059375 5.42101e-20 0.0046875 0.000183858
0.0059375 -5.42101e-20 0.0046875 2.69007e-05
-0.00749898 2.25875e-21 0.00120033 8.20771e-05
0.0075 2.25875e-21 0.00120022 2.06711e-05
0.00125 0 0.0075 0.000213618
-0.00125 -1.12938e-21 0.0075 0.000206581
-0.00625 -2.25875e-21 0.00437499 0.000180605
0.00625 -1.12938e-21 0.00437499 1.8184e-05
-0.004375 -1.12938e-21 0.00625 0.000190765
0.004375 1.12938e-21 0.00625 0.000120378
-0.00718747 -2.71051e-20 0.00280427 0.00015564
0.0071875 -2.71051e-20 0.00280426 9.73705e-06
-0.0065625 -5.42101e-20 0.00406235 0.000177231
0.0065625 0 0.00406235 1.10636e-05
0.0040625 0 0.0065625 0.000142602
-0.0028125 5.42101e-20 0.0071875 0.000196941
0.0028125 2.71051e-20 0.0071875 0.000194851
-0.0040625 -5.42101e-20 0.0065625 0.000191625
-0.00749963 0 0.00184156 0.000120685
0.0075 2.25875e-21 0.0018415 1.75916e-05
0.001875 -2.25875e-21 0.0075 0.000210766
-0.001875 -2.25875e-21 0.0075 0.000202708
-0.00780909 -2.71051e-20 0.000292497 4.72099e-05
0.0078125 0 0.000292359 3.22987e-05
0.0003125 0 0.0078125 0.000216084
-0.0003125 2.71051e-20 0.0078125 0.000213333
-0.006875 0 0.00374964 0.000172193
0.006875 2.25875e-21 0.00374964 8.68443e-06
0.00375 2.25875e-21 0.006875 0.000161029
-0.00375 0 0.006875 0.000192494
-0.00781026 0 0.000892396 5.47626e-05
0.0078125 2.71051e-20 0.000892184 1.79355e-05
0.0009375 -5.42101e-20 0.0078125 0.000217332
-0.0009375 -5.42101e-20 0.0078125 0.000209595
-0.00749991 -3.38813e-21 0.00248637 0.000144566
0.0075 -1.12938e-21 0.00248636 1.19355e-05
0.0025 -4.51751e-21 0.0075 0.000204387
-0.0025 -3.38813e-21 0.0075 0.000198742
-0.005625 0 0.005625 0.000186771
0.005625 0 0.005625 4.86052e-05
-0.00781145 -5.42101e-20 0.00152068 0.000102716
0.0078125 -5.42101e-20 0.00152054 1.85564e-05
-0.0071875 0 0.00343582 0.000166991
0.0071875 -2.71051e-20 0.00343582 6.6959e-06
0.0015625 -5.42101e-20 0.0078125 0.000216548
-0.0034375 0 0.0071875 0.000193553
0.0034375 2.71051e-20 0.0071875 0.000179306
-0.0015625 -5.42101e-20 0.0078125 0.000205325
-0.0059375 -5.42101e-20 0.0053125 0.00018559
-0.0053125 2.71051e-20 0.0059375 0.000187886
0.0053125 2.71051e-20 0.0059375 6.59807e-05
0.00593751 0 0.00531251 3.21996e-05
-0.005 -1.12938e-21 0.00625 0.000188539
-0.00625 -1.12938e-21 0.005 0.000183569
0.005 0 0.00625 8.72363e-05
0.00625 -2.25875e-21 0.005 2.12872e-05
-0.0046875 2.71051e-20 0.0065625 0.000189208
-0.0065625 2.71051e-20 0.0046875 0.000181415
0.0046875 0 0.0065625 0.000110499
0.00656251 -2.71051e-20 0.00468751 1.19209e-05
-0.00808 0 0 4.3485e-05
-0.00808006 0 3.7256e-05 4.3485e-05
0.008085 0 -2.35512e-65 2.78326e-05
0.008085 0 3.74198e-05 2.78326e-05
-0.00781215 0 0.00216406 0.000133001
0.0078125 0 0.002164 1.38527e-05
0.0021875 2.71051e-20 0.0078125 0.00021307
-0.0021875 2.71051e-20 0.0078125 0.000200895
-0.00811962 0 0 4.29403e-05
-0.00749999 1.12938e-21 0.00312179 0.000159452
0.0075 0 0.00312179 7.53821e-06
0.003125 -2.25875e-21 0.0075 0.000192766
-9.44671e-15 -1.12938e-21 0.008125 0.000216712
-0.003125 -2.25875e-21 0.0075 0.000194942
0.008125 0 -2.50232e-65 2.72017e-05
-0.00812098 0 0.000585543 4.69374e-05
0.008125 0 0.000585362 2.12633e-05
-0.006875 -1.12938e-21 0.00437499 0.000177955
0.006875 -3.38813e-21 0.00437499 8.42214e-06
0.000625 -1.12938e-21 0.008125 0.000219315
-0.004375 0 0.006875 0.00018981
-0.000625 -1.12938e-21 0.008125 0.000212894
0.004375 2.25875e-21 0.006875 0.000132745
-0.00815905 0 0 4.23956e-05
-0.0081592 -6.77626e-21 3.72601e-05 4.23955e-05
0.008165 0 -4.44406e-59 2.65604e-05
0.008165 0 3.74198e-05 2.65604e-05
-0.00812288 -1.12938e-21 0.00120037 7.48764e-05
0.008125 1.12938e-21 0.00120022 1.59711e-05
0.00125 -1.12938e-21 0.008125 0.000220141
-0.00125 0 0.008125 0.000208368
-0.0071875 -2.71051e-20 0.00406235 0.000174339
0.00718751 -2.71051e-20 0.00406235 5.48924e-06
-0.0040625 2.71051e-20 0.0071875 0.000190511
0.0040625 0 0.0071875 0.000155669
-0.00781242 -2.71051e-20 0.00280427 0.000151628
0.0078125 0 0.00280426 8.46425e-06
0.0028125 2.71051e-20 0.0078125 0.000205426
-0.0028125 5.42101e-20 0.0078125 0.000196602
-0.0081242 0 0.00184158 0.000114645
0.008125 3.38813e-21 0.0018415 1.49732e-05
0.001875 -1.12938e-21 0.008125 0.000218622
-0.001875 -1.12938e-21 0.008125 0.000203564
-0.0075 1.12938e-21 0.00374964 0.000169026
0.0075 0 0.00374965 5.2618e-06
-0.00375 0 0.0075 0.000191502
0.00375 1.12938e-21 0.0075 0.000173734
-0.0059375 2.71051e-20 0.0059375 0.000185868
0.00593755 -2.71051e-20 0.00593755 3.7718e-05
-0.005625 -1.12938e-21 0.00625 0.000186494
-0.00625 0 0.005625 0.0001847
0.00562501 1.12938e-21 0.00625001 5.49145e-05
0.00625002 -1.12938e-21 0.00562502 2.53067e-05
-0.00843052 0 0.0002926 3.86781e-05
0.0084375 -2.71051e-20 0.000292359 2.20943e-05
0.0003125 0 0.0084375 0.000220686
-0.0065625 -2.71051e-20 0.0053125 0.000183413
-0.0053125 2.71051e-20 0.0065625 0.000187059
-0.0003125 2.71051e-20 0.0084375 0.000216744
0.00531253 -2.71051e-20 0.00656253 7.35064e-05
0.00656255 2.71051e-20 0.00531255 1.4121e-05
-0.00843304 0 0.000892502 4.72243e-05
0.0084375 2.71051e-20 0.000892184 1.25534e-05
0.0009375 5.42101e-20 0.0084375 0.000223161
-0.0009375 2.71051e-20 0.0084375 0.000211904
-0.0081248 -1.12938e-21 0.00248638 0.000139845
0.008125 1.12938e-21 0.00248636 1.07973e-05
0.0025 -2.25875e-21 0.008125 0.000213765
-0.005 0 0.006875 0.000187472
-0.006875 -1.12938e-21 0.005 0.000181213
-0.0025 -2.25875e-21 0.008125 0.000198831
0.005 -1.12938e-21 0.006875 9.68786e-05
0.00687503 0 0.00500003 9.18938e-06
-0.00781249 2.71051e-20 0.00343582 0.000163509
0.00781251 5.42101e-20 0.00343583 5.26593e-06
-0.0034375 -5.42101e-20 0.0078125 0.00019267
0.0034375 -2.71051e-20 0.0078125 0.000191485
-0.00843541 -2.71051e-20 0.00152073 9.54547e-05
0.0084375 -2.71051e-20 0.00152054 1.48567e-05
-0.0046875 -5.42101e-20 0.0071875 0.000187895
0.0015625 2.71051e-20 0.0084375 0.000223526
-0.0015625 2.71051e-20 0.0084375 0.000206649
-0.0071875 0 0.0046875 0.000178836
0.00468751 -2.71051e-20 0.00718751 0.000122212
0.00718755 5.42101e-20 0.00468755 5.21134e-06
-0.0075 0 0.00437499 0.000175141
-0.004375 0 0.0075 0.00018854
0.004375 2.25875e-21 0.0075 0.000145002
0.00750003 -4.51751e-21 0.00437502 4.28831e-06
-0.00869981 -6.77626e-21 0 3.5341e-05
-0.00869995 0 3.70995e-05 3.53411e-05
-0.00812497 2.25875e-21 0.00312179 0.000155527
0.008125 0 0.00312179 6.79554e-06
-0.003125 -1.12938e-21 0.008125 0.000194436
0.003125 -1.12938e-21 0.008125 0.000203732
-0.00843682 0 0.00216404 0.000127476
0.00871 0 -4.42629e-59 1.88009e-05
0.00871 0 3.74198e-05 1.88009e-05
0.0084375 2.71051e-20 0.002164 1.26215e-05
0.0021875 0 0.0084375 0.000221347
-0.0021875 5.42101e-20 0.0084375 0.000201385
-0.00873908 0 0 3.48544e-05
0.00875 0 -8.87035e-59 1.83458e-05