# omega  POINT_DATA 49517
# x  y  z  omega
-3.4047e-09 0 0 948.574
3.99952e-05 0 0 948.555
-4.00019e-05 6.77626e-21 0 948.593
3.99954e-05 0 3.74205e-05 948.555
-4.00018e-05 0 3.74205e-05 948.593
0.000312499 -2.71051e-20 0.000292358 948.428
-0.000312502 2.71051e-20 0.000292358 948.72
0.000584999 -6.77626e-21 0 948.27
-0.000585005 0 0 948.804
-1.06408e-09 2.25875e-21 0.000585361 549.181
0.000584999 0 3.74206e-05 948.27
-0.000585005 0 3.74204e-05 948.804
0.000624998 6.77626e-21 0 948.247
-0.000625003 6.77626e-21 0 948.817
0.000664997 0 0 948.223
-0.000665001 0 0 948.83
0.000664997 6.77626e-21 3.74206e-05 948.223
-0.000665001 0 3.74204e-05 948.83
0.000625 2.25875e-21 0.000585361 547.18
-0.000625001 2.25875e-21 0.000585362 551.369
0.0003125 0 0.000892183 142.151
-0.0003125 0 0.000892183 146.079
0.0009375 -2.71051e-20 0.000292358 948.065
-0.000937501 -2.71051e-20 0.000292359 948.913
-2.44748e-10 3.38813e-21 0.00120022 93.7631
0.00121 6.77626e-21 0 947.884
-0.00121 0 0 948.941
0.00121 0 3.74205e-05 947.884
-0.00121 0 3.74203e-05 948.941
0.00125 0 0 947.857
-0.00125 0 0 948.946
-0.00129 0 0 948.951
0.00129 0 0 947.83
-0.00129 0 3.74202e-05 948.951
0.00129 -6.77626e-21 3.74205e-05 947.83
0.0009375 0 0.000892183 138.685
-0.0009375 0 0.000892184 150.475
0.000625 -1.12938e-21 0.00120022 91.9437
-0.000625 1.12938e-21 0.00120022 95.9617
0.00125 -1.12938e-21 0.000585361 545.382
-0.00125 2.25875e-21 0.000585362 553.701
0.0003125 2.71051e-20 0.00152054 42.7113
-0.0003125 0 0.00152054 42.8193
-0.0015625 0 0.000292358 948.978
0.0015625 0 0.000292358 947.649
0.00125 0 0.00120022 90.565
-0.00125 1.12938e-21 0.00120022 98.4816
0.0009375 2.71051e-20 0.00152054 42.9842
-0.0009375 2.71051e-20 0.00152054 43.1312
0.0015625 2.71051e-20 0.000892183 135.696
-0.0015625 0 0.000892183 155.212
0.001835 0 0 947.456
-0.001835 0 0 948.95
0.001835 -6.77626e-21 3.74205e-05 947.456
-0.001835 0 3.74201e-05 948.95
-4.00486e-11 0 0.0018415 34.6439
0.001875 0 0 947.428
-0.001875 0 0 948.946
-0.001915 -6.77626e-21 0 948.943
0.001915 6.77626e-21 0 947.399
-0.001915 0 3.74201e-05 948.943
0.001915 0 3.74206e-05 947.399
0.000625 0 0.0018415 35.3298
-0.000625 0 0.0018415 34.2753
-0.001875 1.12938e-21 0.000585361 556.139
0.001875 -1.12938e-21 0.000585362 543.838
0.0015625 -2.71051e-20 0.00152054 43.6988
-0.0015625 0 0.00152054 43.7139
0.0003125 2.71051e-20 0.002164 27.0599
-0.0003125 0 0.002164 25.9586
0.0021875 0 0.000292358 947.207
-0.0021875 -2.71051e-20 0.000292358 948.915
0.00125 0 0.0018415 36.4232
-0.00125 0 0.0018415 34.1689
-0.001875 0 0.00120022 101.321
0.001875 0 0.00120022 89.6759
0.0009375 0 0.002164 28.5393
-0.0009375 0 0.002164 25.1642
-0.0021875 5.42101e-20 0.000892183 160.291
0.0021875 -2.71051e-20 0.000892183 133.338
0.00246 0 0 947.008
-0.00246 6.77626e-21 0 948.828
0.00246 -6.77626e-21 3.74204e-05 947.008
-0.00246 0 3.74198e-05 948.828
-1.78244e-12 0 0.00248636 23.9989
-0.0025 0 0 948.816
0.0025 6.77626e-21 0 946.979
-0.00254 0 0 948.804
0.00254 0 0 946.95
-0.00254 0 3.74198e-05 948.804
0.00254 0 3.74204e-05 946.95
0.000625 1.12938e-21 0.00248636 25.4214
-0.000625 -2.25875e-21 0.00248636 22.9205
-0.0025 0 0.000585362 558.669
0.0025 1.12938e-21 0.000585362 542.641
0.001875 2.25875e-21 0.0018415 37.9472
-0.001875 0 0.0018415 34.3271
0.0021875 -2.71051e-20 0.00152054 44.8199
-0.0021875 0 0.00152054 44.6181
0.0015625 0 0.002164 30.4481
-0.0015625 0 0.002164 24.6363
-0.0025 -1.12938e-21 0.00120022 104.474
0.0025 0 0.00120022 89.3162
0.00125 -1.12938e-21 0.00248636 27.2519
-0.00125 -2.25875e-21 0.00248636 22.1372
0.0003125 0 0.00280426 22.1843
-0.0003125 0 0.00280426 20.816
0.0028125 0 0.000292358 946.752
-0.0028125 2.71051e-20 0.000292358 948.718
-0.0028125 0 0.000892183 165.671
0.0028125 -5.42101e-20 0.000892183 131.784
0.0009375 -2.71051e-20 0.00280426 23.9239
-0.0009375 5.42101e-20 0.00280426 19.7676
0.0021875 -2.71051e-20 0.002164 32.8016
-0.0021875 -2.71051e-20 0.002164 24.3083
0.003085 -6.77626e-21 0 946.553
-0.003085 6.77626e-21 0 948.548
0.003085 0 3.742e-05 946.553
-0.003085 0 3.74189e-05 948.548
-0.0025 0 0.0018415 34.7403
0.0025 4.51751e-21 0.0018415 39.8475
0.001875 0 0.00248636 29.5451
-0.001875 -1.12938e-21 0.00248636 21.5926
1.03657e-12 1.12938e-21 0.00312179 20.1232
0.003125 0 0 946.524
-0.003125 0 0 948.524
-0.003165 6.77626e-21 0 948.5
0.003165 0 -2.03573e-120 946.495
-0.003165 0 3.74187e-05 948.5
0.003165 0 3.74199e-05 946.495
0.003125 1.12938e-21 0.000585361 541.9
-0.003125 -1.12938e-21 0.000585362 561.302
0.000625 1.12938e-21 0.00312179 21.6214
-0.000625 -1.12938e-21 0.00312179 18.9583
0.0028125 2.71051e-20 0.00152054 46.2134
-0.0028125 0 0.00152054 45.8156
0.0015625 5.42101e-20 0.00280426 26.1168
-0.0015625 5.42101e-20 0.00280426 19.0064
-0.003125 -1.12938e-21 0.00120022 107.971
0.003125 1.12938e-21 0.00120022 89.4676
0.00125 -1.12938e-21 0.00312179 23.5318
-0.00125 -2.25875e-21 0.00312179 18.0705
-0.0034375 2.71051e-20 0.000292358 948.33
0.0034375 -2.71051e-20 0.000292358 946.297
-0.0003125 5.42101e-20 0.00343582 18.1197
0.0003125 5.42101e-20 0.00343582 19.3827
0.0025 2.25875e-21 0.00248636 32.3167
-0.0025 0 0.00248636 21.2388
0.0028125 0 0.002164 35.5367
-0.0028125 0 0.002164 24.1853
0.0034375 -5.42101e-20 0.000892183 131.275
-0.0034375 -2.71051e-20 0.000892183 171.493
-0.0021875 2.71051e-20 0.00280426 18.4463
0.0021875 2.71051e-20 0.00280426 28.8329
0.0009375 2.71051e-20 0.00343582 21.0046
-0.0009375 2.71051e-20 0.00343582 17.1396
0.003125 3.38813e-21 0.0018415 41.9169
-0.003125 0 0.0018415 35.4129
0.001875 -1.12938e-21 0.00312179 25.9496
-0.001875 -2.25875e-21 0.00312179 17.4043
0.00371 -6.77626e-21 -2.03454e-120 946.097
-0.00371001 0 0 948.084
0.00371 6.77626e-21 3.74192e-05 946.097
-0.00371001 0 3.74168e-05 948.084
1.9146e-13 2.25875e-21 0.00374964 17.7394
-0.00375 0 0 948.049
0.00375 0 -4.07022e-120 946.068
-0.0034375 0 0.00152054 47.3483
0.0034375 2.71051e-20 0.00152054 47.5195
0.0015625 -5.42101e-20 0.00343582 23.0925
-0.0015625 0 0.00343582 16.378
-0.00378999 0 0 948.014
0.00379 0 -2.94944e-110 946.038
-0.00378999 0 3.74165e-05 948.014
0.00379 0 3.74192e-05 946.038
-0.00375 3.38813e-21 0.000585362 564.132
0.00375 -2.25875e-21 0.000585361 541.658
-0.000625 1.12938e-21 0.00374964 16.6733
0.000625 1.12938e-21 0.00374964 19.1212
-0.00375 0 0.00120022 111.906
0.00375 2.25875e-21 0.00120022 89.8447
0.00125 0 0.00374964 20.9183
-0.00125 -1.12938e-21 0.00374964 15.8481
0.0028125 2.71051e-20 0.00280426 32.1127
-0.0028125 -2.71051e-20 0.00280426 18.043
0.003125 0 0.00248636 35.4689
-0.003125 1.12938e-21 0.00248636 21.059
0.0025 0 0.00312179 28.969
-0.0025 -2.25875e-21 0.00312179 16.906
-0.0034375 0 0.002164 24.2662
0.0034375 0 0.002164 38.3826
-0.0040625 0 0.000292359 947.768
0.0040625 0 0.000292358 945.839
0.0021875 -5.42101e-20 0.00343582 25.7669
-0.0021875 -2.71051e-20 0.00343582 15.7959
-0.0003125 2.71051e-20 0.00406234 16.157
0.0003125 5.42101e-20 0.00406235 17.3005
-0.00406249 -2.71051e-20 0.000892184 178.034
0.0040625 0 0.000892183 131.734
0.0009375 2.71051e-20 0.00406235 18.7993
-0.0009375 2.71051e-20 0.00406235 15.2788
-0.00375 2.25875e-21 0.0018415 36.322
0.00375 2.25875e-21 0.0018415 43.4956
0.001875 1.12938e-21 0.00374964 23.2538
-0.001875 -3.38813e-21 0.00374964 15.2105
-0.004335 0 0 947.443
0.004335 0 -2.29728e-110 945.617
-0.004335 -6.77626e-21 3.74136e-05 947.443
0.004335 0 3.74187e-05 945.617
-0.0040625 0 0.00152054 49.138
0.0040625 5.42101e-20 0.00152054 47.7822
0.0015625 2.71051e-20 0.00406235 20.779
-0.0015625 0 0.00406235 14.5982
-0.00437499 0 0 947.396
-6.8232e-15 2.25875e-21 0.00437499 15.9773
0.004375 0 -5.24668e-110 945.584
-0.00437499 1.12938e-21 0.000585364 568.124
0.004375 -2.25875e-21 0.000585362 542.069
-0.00441498 -6.77626e-21 0 947.35
0.004415 -6.77626e-21 -5.072e-102 945.551
-0.00441498 -6.77626e-21 3.74134e-05 947.35
0.004415 0 3.74187e-05 945.551
0.003125 -1.12938e-21 0.00312179 32.6601
-0.003125 0 0.00312179 16.5399
-0.000625 1.12938e-21 0.00437499 15.0191
0.000625 0 0.00437499 17.2347
0.0034375 5.42101e-20 0.00280426 35.8575
-0.0034375 0 0.00280426 17.7708
0.0028125 2.71051e-20 0.00343582 29.174
-0.0028125 -2.71051e-20 0.00343582 15.3483
0.00375 0 0.00248636 38.4559
-0.00375 0 0.00248636 21.0314
0.0025 1.12938e-21 0.00374964 26.2621
-0.0025 -4.51751e-21 0.00374964 14.7196
-0.00437499 -1.12938e-21 0.00120022 117.311
0.004375 -3.38813e-21 0.00120022 90.488
-0.00125 -2.25875e-21 0.00437499 14.2814
0.00125 -2.25875e-21 0.00437499 18.9018
0.0040625 2.71051e-20 0.002164 40.2855
-0.0040625 2.71051e-20 0.002164 24.4971
0.0021875 0 0.00406235 23.3791
-0.0021875 0 0.00406235 14.072
-0.00468748 0 0.00029236 947.024
0.0046875 2.71051e-20 0.000292358 945.329
0.0003125 2.71051e-20 0.0046875 15.7395
-0.0003125 2.71051e-20 0.0046875 14.7122
-0.004375 -2.25875e-21 0.0018415 37.5255
0.004375 0 0.0018415 43.8854
0.001875 -1.12938e-21 0.00437499 21.128
-0.001875 -3.38813e-21 0.00437499 13.7092
-0.00468748 0 0.000892187 188.897
0.0046875 5.42101e-20 0.000892183 133.912
0.0009375 -2.71051e-20 0.0046875 17.0995
-0.0009375 -5.42101e-20 0.0046875 13.9282
0.0034375 2.71051e-20 0.00343582 33.5055
-0.0034375 -5.42101e-20 0.00343582 15.0074
0.00375 -1.12938e-21 0.00312179 36.7973
-0.00375 1.12938e-21 0.00312179 16.2864
0.003125 -1.12938e-21 0.00374964 30.1153
-0.003125 -2.25875e-21 0.00374964 14.342
-0.00468749 -2.71051e-20 0.00152054 51.4772
0.0046875 5.42101e-20 0.00152054 47.4378
0.0040625 0 0.00280426 39.3072
-0.0040625 2.71051e-20 0.00280426 17.6226
0.0028125 -5.42101e-20 0.00406234 26.7307
-0.0028125 -2.71051e-20 0.00406235 13.6642
0.0015625 -2.71051e-20 0.0046875 18.9291
-0.0015625 2.71051e-20 0.0046875 13.3204
-0.00495999 0 0 946.625
0.00496 0 -7.91671e-102 945.057
-0.00495999 0 3.74085e-05 946.625
0.00496 0 3.74184e-05 945.057
-0.00499997 -6.77626e-21 0 946.567
0.005 6.77626e-21 -1.29887e-101 945.017
-9.80318e-15 1.12938e-21 0.005 14.6619
-0.004375 0 0.00248636 21.1616
0.004375 1.12938e-21 0.00248636 39.8728
-0.00499996 -2.25875e-21 0.000585368 573.573
0.005 0 0.000585362 543.683
0.0025 0 0.00437499 24.0759
-0.0025 -3.38813e-21 0.00437499 13.2647
0.000625 0 0.005 15.7925
-0.000625 0 0.005 13.8058
-0.00503995 0 0 946.51
0.00504 0 -1.90073e-97 944.976
-0.00503995 0 3.7408e-05 946.51
0.00504 0 3.74184e-05 944.976
-0.00499997 1.12938e-21 0.00120022 124.546
0.005 4.51751e-21 0.00120022 92.1137
0.00125 -2.25875e-21 0.005 17.313
-0.00125 -2.25875e-21 0.005 13.1462
-0.0046875 2.71051e-20 0.002164 24.9484
0.0046875 2.71051e-20 0.002164 40.0251
0.0021875 -2.71051e-20 0.0046875 21.4247
-0.0021875 2.71051e-20 0.0046875 12.8464
0.00375 -2.25875e-21 0.00374964 35.0013
-0.00375 -1.12938e-21 0.00374964 14.0539
-0.00531242 2.71051e-20 0.000292364 946.11
0.0053125 -2.71051e-20 0.000292359 944.704
0.0040625 2.71051e-20 0.00343582 38.5257
-0.0040625 2.71051e-20 0.00343582 14.7549
0.0034375 0 0.00406234 31.0533
-0.0034375 2.71051e-20 0.00406235 13.3499
0.0003125 -2.71051e-20 0.0053125 14.5545
-0.0003125 2.71051e-20 0.0053125 13.6411
-0.00499999 0 0.0018415 39.1011
0.005 2.25875e-21 0.0018415 43.0614
0.001875 -2.25875e-21 0.005 19.3953
-0.001875 -3.38813e-21 0.005 12.6316
0.004375 -1.12938e-21 0.00312179 39.9219
-0.004375 0 0.00312179 16.1416
0.003125 -1.12938e-21 0.00437499 27.9302
-0.003125 -3.38813e-21 0.00437499 12.9201
-0.00531243 0 0.000892195 201.661
0.0053125 5.42101e-20 0.000892183 139.385
-0.0009375 -5.42101e-20 0.0053125 12.9414
0.0009375 2.71051e-20 0.0053125 15.7764
-0.0046875 0 0.00280426 17.6115
0.0046875 -2.71051e-20 0.00280426 39.8779
0.0028125 2.71051e-20 0.0046875 24.769
-0.0028125 5.42101e-20 0.0046875 12.4764
-0.00531247 -5.42101e-20 0.00152055 54.3299
0.0053125 -2.71051e-20 0.00152054 46.5781
0.0015625 0 0.0053125 17.4468
-0.0015625 2.71051e-20 0.0053125 12.3948
-0.005 -1.12938e-21 0.00248636 21.4549
0.005 1.12938e-21 0.00248636 39.0213
-0.00558491 6.77626e-21 0 945.641
0.005585 0 -1.29247e-96 944.355
-0.00558491 0 3.73997e-05 945.641
0.005585 0 3.74183e-05 944.355
0.0025 -1.12938e-21 0.005 22.2455
-0.0025 -2.25875e-21 0.005 12.2283
-0.00562488 6.77626e-21 0 945.574
0.005625 0 -1.48253e-96 944.302
-9.80318e-15 1.12938e-21 0.005625 13.6768
-0.00562487 1.12938e-21 0.000585377 579.399
0.005625 2.25875e-21 0.000585362 546.623
0.000625 0 0.005625 14.6897
-0.000625 -1.12938e-21 0.005625 12.9113
-0.00566484 6.77626e-21 0 945.506
-0.00566484 6.77626e-21 3.73996e-05 945.506
0.005665 0 5.52555e-89 944.25
0.005665 6.77626e-21 3.74183e-05 944.25
-0.00531249 0 0.002164 25.6037
0.0053125 0 0.002164 38.1934
0.0040625 -5.42101e-20 0.00406234 36.9231
-0.0040625 -5.42101e-20 0.00406234 13.1053
0.0021875 2.71051e-20 0.0053125 19.7802
-0.0021875 5.42101e-20 0.0053125 11.9648
-0.00562493 -4.51751e-21 0.00120023 132.662
0.005625 0 0.00120022 95.0381
0.004375 -1.12938e-21 0.00374964 40.1787
-0.004375 -1.12938e-21 0.00374964 13.8426
0.00375 -1.12938e-21 0.00437499 33.146
-0.00375 -1.12938e-21 0.00437499 12.6539
0.00125 -2.25875e-21 0.005625 16.0664
-0.00125 -2.25875e-21 0.005625 12.3191
-0.0046875 -5.42101e-20 0.00343582 14.5879
0.0046875 -5.42101e-20 0.00343582 41.9771
0.0034375 2.71051e-20 0.0046875 29.1675
-0.0034375 0 0.0046875 12.19
-0.005 0 0.00312179 16.0956
0.005 0 0.00312179 40.1518
0.003125 -1.12938e-21 0.005 26.0777
-0.003125 -2.25875e-21 0.005 11.9129
-0.00562497 2.25875e-21 0.00184151 41.2076
0.005625 0 0.0018415 41.097
0.001875 -2.25875e-21 0.005625 17.9892
-0.001875 -2.25875e-21 0.005625 11.8537
-0.00593726 -2.71051e-20 0.000292374 945.037
0.0059375 2.71051e-20 0.000292358 943.901
0.0003125 0 0.0059375 13.6654
-0.0003125 0 0.0059375 12.8461
-0.00593732 2.71051e-20 0.000892214 214.371
0.0059375 2.71051e-20 0.000892183 147.204
-0.0053125 0 0.00280426 17.6915
0.0053125 0 0.00280426 37.9925
0.0028125 -2.71051e-20 0.0053125 23.0075
-0.0028125 2.71051e-20 0.0053125 11.6255
-0.0009375 -2.71051e-20 0.0059375 12.2166
0.0009375 5.42101e-20 0.0059375 14.7621
-0.00593741 0 0.00152056 58.345
0.0059375 -2.71051e-20 0.00152054 45.7484
0.0015625 -2.71051e-20 0.0059375 16.28
-0.0015625 2.71051e-20 0.0059375 11.7234
-0.00562499 0 0.00248636 21.9132
0.005625 0 0.00248636 35.7287
0.0025 -2.25875e-21 0.005625 20.6992
-0.0025 -1.12938e-21 0.005625 11.4852
0.004375 -1.12938e-21 0.00437499 39.8289
-0.004375 -1.12938e-21 0.00437499 12.4513
0.0046875 2.71051e-20 0.00406235 43.2928
-0.0046875 2.71051e-20 0.00406235 12.9241
0.0040625 0 0.0046875 35.4395
-0.0040625 2.71051e-20 0.0046875 11.9706
-0.00620969 0 0 944.505
-0.00620969 0 3.73858e-05 944.505
0.00621 0 1.1344e-88 943.424
0.00621 0 3.74185e-05 943.424
-0.00624963 6.77626e-21 0 944.428
-0.005 0 0.00374964 13.7023
0.005 0 0.00374964 42.5198
0.00375 -1.12938e-21 0.005 31.4324
-0.00375 -1.12938e-21 0.005 11.6686
0.00625 -6.77626e-21 1.68696e-88 943.352
-9.8031e-15 0 0.00625 12.9454
-0.00624966 1.12938e-21 0.000585395 585.01
0.00625 1.12938e-21 0.000585362 550.833
0.000625 -1.12938e-21 0.00625 13.8588
-0.000625 -1.12938e-21 0.00625 12.2541
-0.00628955 6.77626e-21 0 944.35
-0.00628956 6.77626e-21 3.73863e-05 944.35
0.00629 0 8.83963e-84 943.28
0.00629 -6.77626e-21 3.74186e-05 943.28
-0.00593747 -2.71051e-20 0.00216401 26.5021
0.0059375 -2.71051e-20 0.002164 33.8525
-0.0053125 -2.71051e-20 0.00343582 14.5026
0.0053125 2.71051e-20 0.00343582 40.7542
0.0034375 0 0.0053125 27.3659
-0.0021875 2.71051e-20 0.0059375 11.3317
-0.0034375 2.71051e-20 0.0053125 11.3597
0.0021875 5.42101e-20 0.0059375 18.4493
-0.00624982 -1.12938e-21 0.00120025 141.163
0.00625 1.12938e-21 0.00120022 99.7297
-0.00125 -1.12938e-21 0.00625 11.7174
0.00125 -3.38813e-21 0.00625 15.1052
-0.005625 1.12938e-21 0.00312179 16.1464
0.005625 0 0.00312179 36.7329
0.003125 -3.38813e-21 0.005625 24.4483
-0.003125 0 0.005625 11.1931
-0.00624994 0 0.00184152 43.9958
0.00625 0 0.0018415 38.8354
0.001875 -2.25875e-21 0.00625 16.8688
-0.001875 -1.12938e-21 0.00625 11.2929
-0.00593749 2.71051e-20 0.00280426 17.8939
0.0059375 5.42101e-20 0.00280426 32.8805
-0.00656187 0 0.000292393 943.818
0.0065625 2.71051e-20 0.000292358 942.803
0.0003125 -5.42101e-20 0.0065625 13.0068
-0.0028125 2.71051e-20 0.0059375 11.0185
0.0028125 5.42101e-20 0.0059375 21.5594
-0.0003125 2.71051e-20 0.0065625 12.2631
-0.00656205 2.71051e-20 0.00089225 226.555
0.0065625 0 0.000892183 158.269
0.0009375 0 0.0065625 14.0006
-0.0009375 5.42101e-20 0.0065625 11.6905
0.0046875 2.71051e-20 0.0046875 43.662
-0.0046875 2.71051e-20 0.0046875 11.8055
0.005 -2.25875e-21 0.00437499 44.7446
-0.005 -1.12938e-21 0.00437499 12.302
0.004375 -1.12938e-21 0.005 39.0634
-0.004375 -1.12938e-21 0.005 11.4824
0.0053125 0 0.00406234 44.0571
-0.0053125 2.71051e-20 0.00406235 12.7966
0.0040625 0 0.0053125 33.7555
-0.0040625 2.71051e-20 0.0053125 11.1542
-0.00624999 2.25875e-21 0.00248637 22.5867
0.00625 0 0.00248636 30.7841
0.0025 -1.12938e-21 0.00625 19.4253
-0.0025 -1.12938e-21 0.00625 10.9534
-0.00656229 -2.71051e-20 0.00152059 63.3289
0.0065625 2.71051e-20 0.00152054 46.335
-0.0015625 0 0.0065625 11.2391
0.0015625 5.42101e-20 0.0065625 15.3778
0.005625 0 0.00374964 39.9738
-0.005625 0 0.00374964 13.6329
0.00375 -2.25875e-21 0.005625 29.7861
-0.00375 0 0.005625 10.9636
-0.00683411 0 0 943.219
-0.00683412 6.77626e-21 3.73639e-05 943.219
0.006835 0 -9.79174e-82 942.194
0.006835 -6.77626e-21 3.74189e-05 942.194
0.0059375 2.71051e-20 0.00343582 35.297
-0.0059375 2.71051e-20 0.00343582 14.5095
0.0034375 5.42101e-20 0.0059375 25.8596
-0.0034375 2.71051e-20 0.0059375 10.7686
-0.006874 0 0 943.131
-9.79465e-15 0 0.006875 12.413
0.006875 -6.77626e-21 -9.70334e-82 942.104
-0.00687415 0 0.000585427 590.195
0.006875 2.25875e-21 0.000585361 559.635
0.000625 0 0.006875 13.2466
-0.000625 0 0.006875 11.7801
-0.00656243 0 0.00216402 27.7506
0.0065625 2.71051e-20 0.002164 29.3811
-0.00691384 0 0 943.044
-0.00691386 6.77626e-21 3.73655e-05 943.044
0.006915 -6.77626e-21 -7.6246e-75 942.014
0.006915 6.77626e-21 3.74191e-05 942.014
0.0021875 2.71051e-20 0.0065625 17.3678
-0.0021875 5.42101e-20 0.0065625 10.8774
-0.00687455 -2.25875e-21 0.00120029 149.749
0.006875 1.12938e-21 0.00120022 110.242
-0.00625 2.25875e-21 0.00312179 16.303
0.00625 -1.12938e-21 0.00312179 30.6489
0.00125 -1.12938e-21 0.006875 14.3817
-0.00125 -1.12938e-21 0.006875 11.2867
0.003125 -2.25875e-21 0.00625 23.0859
-0.003125 0 0.00625 10.6809
0.005 -2.25875e-21 0.005 46.6452
-0.005 -1.12938e-21 0.005 11.343
-0.0053125 0 0.0046875 11.6819
0.0046875 0 0.0053125 43.3963
0.0053125 0 0.0046875 47.9708
-0.0046875 2.71051e-20 0.0053125 10.9992
-0.00687483 1.12938e-21 0.00184153 47.4339
0.006875 1.12938e-21 0.0018415 38.3256
0.005625 -1.12938e-21 0.00437499 44.1541
-0.005625 -2.25875e-21 0.00437499 12.2008
0.004375 0 0.005625 37.951
0.001875 -1.12938e-21 0.006875 15.9912
-0.001875 -3.38813e-21 0.006875 10.8941
-0.004375 -1.12938e-21 0.005625 10.7868
-0.00656249 0 0.00280427 18.2422
0.0065625 -5.42101e-20 0.00280426 27.0286
-0.0028125 -2.71051e-20 0.0065625 10.5858
0.0028125 2.71051e-20 0.0065625 20.3241
-0.00718596 5.42101e-20 0.000292431 942.445
0.0071875 5.42101e-20 0.000292358 941.405
0.0059375 -5.42101e-20 0.00406235 39.786
-0.0059375 -2.71051e-20 0.00406235 12.725
0.0003125 -5.42101e-20 0.0071875 12.5335
0.0040625 2.71051e-20 0.0059375 32.1618
-0.0040625 2.71051e-20 0.0059375 10.5721
-0.0003125 2.71051e-20 0.0071875 11.8483
-0.00718646 -2.71051e-20 0.000892308 237.814
0.0071875 0 0.000892183 185.187
0.0009375 -2.71051e-20 0.0071875 13.4452
-0.0009375 2.71051e-20 0.0071875 11.3185
0.00625 0 0.00374964 33.1795
-0.00625 0 0.00374964 13.6318
0.00375 0 0.00625 28.3747
-0.00375 0 0.00625 10.4638
-0.00687497 -2.25875e-21 0.00248637 23.5376
0.006875 0 0.00248636 26.7539
0.0025 -1.12938e-21 0.006875 18.369
-0.0025 -3.38813e-21 0.006875 10.5778
-0.00718701 2.71051e-20 0.00152063 69.1472
0.0071875 -2.71051e-20 0.00152054 49.5962
0.0015625 2.71051e-20 0.0071875 14.7031
-0.0015625 2.71051e-20 0.0071875 10.8987
-0.0065625 2.71051e-20 0.00343582 14.5793
0.0065625 -5.42101e-20 0.00343582 27.384
0.0034375 0 0.0065625 24.5998
-0.0034375 0 0.0065625 10.3508
-0.00745778 -6.77626e-21 0 941.775
-0.0074578 -6.77626e-21 3.73274e-05 941.775
0.00746 0 -2.76121e-73 940.773
0.00746 0 3.74195e-05 940.773
-0.00749758 0 0 941.677
-9.72327e-15 0 0.0075 12.0394
0.0075 6.77626e-21 -2.83746e-73 940.683
-0.00718734 2.71051e-20 0.00216404 29.4428
0.0071875 -2.71051e-20 0.002164 27.9566
0.0021875 0 0.0071875 16.5154
-0.0021875 -2.71051e-20 0.0071875 10.561
-0.0053125 0 0.0053125 10.8855
0.0053125 0 0.0053125 51.5549
-0.00749809 -3.38813e-21 0.000585476 594.771
0.0075 0 0.000585362 573.589
0.000625 0 0.0075 12.8103
-0.005 -1.12938e-21 0.005625 10.6545
-0.005625 -1.12938e-21 0.005 11.2441
-0.000625 0 0.0075 11.452
0.005 0 0.005625 47.9463
0.005625 -1.12938e-21 0.005 48.6401
-0.00753727 0 0 941.577
-0.00753733 6.77626e-21 3.73306e-05 941.577
0.00754 6.77626e-21 -1.47197e-66 940.59
0.00754 6.77626e-21 3.74196e-05 940.59
-0.006875 -2.25875e-21 0.00312179 16.5781
0.006875 0 0.00312179 24.7041
0.003125 -1.12938e-21 0.006875 21.9288
-0.003125 -1.12938e-21 0.006875 10.3221
0.0046875 2.71051e-20 0.0059375 42.4894
-0.0046875 -2.71051e-20 0.0059375 10.4218
-0.0059375 5.42101e-20 0.0046875 11.5998
0.0059375 -5.42101e-20 0.0046875 44.8074
-0.00749898 2.25875e-21 0.00120033 158.171
0.0075 2.25875e-21 0.00120022 128.204
0.00125 0 0.0075 13.8565
-0.00125 -1.12938e-21 0.0075 10.9927
-0.00625 -2.25875e-21 0.00437499 12.1501
0.00625 -1.12938e-21 0.00437499 37.4299
-0.004375 -1.12938e-21 0.00625 10.2942
0.004375 1.12938e-21 0.00625 36.7162
-0.00718747 -2.71051e-20 0.00280427 18.7611
0.0071875 -2.71051e-20 0.00280426 22.665
-0.0065625 -5.42101e-20 0.00406235 12.7156
0.0065625 0 0.00406235 30.2475
0.0040625 0 0.0065625 30.8758
-0.0028125 5.42101e-20 0.0071875 10.2868
0.0028125 2.71051e-20 0.0071875 19.2682
-0.0040625 -5.42101e-20 0.0065625 10.1639
-0.00749963 0 0.00184156 51.4898
0.0075 2.25875e-21 0.0018415 41.2879
0.001875 -2.25875e-21 0.0075 15.3344
-0.001875 -2.25875e-21 0.0075 10.6264
-0.00780909 -2.71051e-20 0.000292497 940.908
0.0078125 0 0.000292359 939.959
0.0003125 0 0.0078125 12.2073
-0.0003125 2.71051e-20 0.0078125 11.5683
-0.006875 0 0.00374964 13.6983
0.006875 2.25875e-21 0.00374964 25.5045
0.00375 2.25875e-21 0.006875 27.2167
-0.00375 0 0.006875 10.1167
-0.00781026 0 0.000892396 247.793
0.0078125 2.71051e-20 0.000892184 217.376
0.0009375 -5.42101e-20 0.0078125 13.0552
-0.0009375 -5.42101e-20 0.0078125 11.0728
-0.00749991 -3.38813e-21 0.00248637 24.8108
0.0075 -1.12938e-21 0.00248636 25.1597
0.0025 -4.51751e-21 0.0075 17.5276
-0.0025 -3.38813e-21 0.0075 10.3301
-0.005625 0 0.005625 10.5607
0.005625 0 0.005625 52.9862
-0.00781145 -5.42101e-20 0.00152068 75.6877
0.0078125 -5.42101e-20 0.00152054 58.7855
-0.0071875 0 0.00343582 14.7436
0.0071875 -2.71051e-20 0.00343582 21.7378
0.0015625 -5.42101e-20 0.0078125 14.2222
-0.0034375 0 0.0071875 10.0648
0.0034375 2.71051e-20 0.0071875 23.5223
-0.0015625 -5.42101e-20 0.0078125 10.6809
-0.0059375 -5.42101e-20 0.0053125 10.8091
-0.0053125 2.71051e-20 0.0059375 10.3114
0.0053125 2.71051e-20 0.0059375 54.3481
0.00593751 0 0.00531251 50.2331
-0.005 -1.12938e-21 0.00625 10.1656
-0.00625 -1.12938e-21 0.005 11.1836
0.005 0 0.00625 48.5455
0.00625 -2.25875e-21 0.005 42.6983
-0.0046875 2.71051e-20 0.0065625 10.0189
-0.0065625 2.71051e-20 0.0046875 11.5599
0.0046875 0 0.0065625 41.336
0.00656251 -2.71051e-20 0.00468751 34.8801
-0.00808 0 0 940.163
-0.00808006 0 3.7256e-05 940.163
0.008085 0 -2.35512e-65 939.407
0.008085 0 3.74198e-05 939.407
-0.00781215 0 0.00216406 31.6012
0.0078125 0 0.002164 28.7695
0.0021875 2.71051e-20 0.0078125 15.8964
-0.0021875 2.71051e-20 0.0078125 10.365
-0.00811962 0 0 940.055
-0.00749999 1.12938e-21 0.00312179 17.0004
0.0075 0 0.00312179 21.0741
0.003125 -2.25875e-21 0.0075 20.9336
-9.44671e-15 -1.12938e-21 0.008125 11.7964
-0.003125 -2.25875e-21 0.0075 10.0893
0.008125 0 -2.50232e-65 939.329
-0.00812098 0 0.000585543 598.559
0.008125 0 0.000585362 586.636
-0.006875 -1.12938e-21 0.00437499 12.1492
0.006875 -3.38813e-21 0.00437499 28.3658
0.000625 -1.12938e-21 0.008125 12.515
-0.004375 0 0.006875 9.95479
-0.000625 -1.12938e-21 0.008125 11.2484
0.004375 2.25875e-21 0.006875 35.6021
-0.00815905 0 0 939.942
-0.0081592 -6.77626e-21 3.72601e-05 939.942
0.008165 0 -4.44406e-59 939.249
0.008165 0 3.74198e-05 939.249
-0.00812288 -1.12938e-21 0.00120037 166.208
0.008125 1.12938e-21 0.00120022 148.611
0.00125 -1.12938e-21 0.008125 13.4917
-0.00125 0 0.008125 10.8185
-0.0071875 -2.71051e-20 0.00406235 12.7568
0.00718751 -2.71051e-20 0.00406235 22.6439
-0.0040625 2.71051e-20 0.0071875 9.88747
0.0040625 0 0.0071875 29.867
-0.00781242 -2.71051e-20 0.00280427 19.4894
0.0078125 0 0.00280426 21.2757
0.0028125 2.71051e-20 0.0078125 18.43
-0.0028125 5.42101e-20 0.0078125 10.1075
-0.0081242 0 0.00184158 56.1445
0.008125 3.38813e-21 0.0018415 48.8619
0.001875 -1.12938e-21 0.008125 14.8713
-0.001875 -1.12938e-21 0.008125 10.4742
-0.0075 1.12938e-21 0.00374964 13.8457
0.0075 0 0.00374965 20.3229
-0.00375 0 0.0075 9.89494
0.00375 1.12938e-21 0.0075 26.2287
-0.0059375 2.71051e-20 0.0059375 10.2369
0.00593755 -2.71051e-20 0.00593755 55.8146
-0.005625 -1.12938e-21 0.00625 10.0736
-0.00625 0 0.005625 10.5016
0.00562501 1.12938e-21 0.00625001 56.9209
0.00625002 -1.12938e-21 0.00562502 48.7196
-0.00843052 0 0.0002926 939.199
0.0084375 -2.71051e-20 0.000292359 938.697
0.0003125 0 0.0084375 12.0022
-0.0065625 -2.71051e-20 0.0053125 10.7657
-0.0053125 2.71051e-20 0.0065625 9.91039
-0.0003125 2.71051e-20 0.0084375 11.4076
0.00531253 -2.71051e-20 0.00656253 56.0118
0.00656255 2.71051e-20 0.00531255 40.8749
-0.00843304 0 0.000892502 256.099
0.0084375 2.71051e-20 0.000892184 240.492
0.0009375 5.42101e-20 0.0084375 12.7952
-0.0009375 2.71051e-20 0.0084375 10.9449
-0.0081248 -1.12938e-21 0.00248638 26.4394
0.008125 1.12938e-21 0.00248636 25.956
0.0025 -2.25875e-21 0.008125 16.9139
-0.005 0 0.006875 9.83067
-0.006875 -1.12938e-21 0.005 11.1619
-0.0025 -2.25875e-21 0.008125 10.1946
0.005 -1.12938e-21 0.006875 48.6931
0.00687503 0 0.00500003 32.9586
-0.00781249 2.71051e-20 0.00343582 15.0228
0.00781251 5.42101e-20 0.00343583 18.6227
-0.0034375 -5.42101e-20 0.0078125 9.89787
0.0034375 -2.71051e-20 0.0078125 22.5132
-0.00843541 -2.71051e-20 0.00152073 82.9237
0.0084375 -2.71051e-20 0.00152054 75.7375
-0.0046875 -5.42101e-20 0.0071875 9.74886
0.0015625 2.71051e-20 0.0084375 13.8937
-0.0015625 2.71051e-20 0.0084375 10.5754
-0.0071875 0 0.0046875 11.5645
0.00468751 -2.71051e-20 0.00718751 40.3268
0.00718755 5.42101e-20 0.00468755 25.6887
-0.0075 0 0.00437499 12.1969
-0.004375 0 0.0075 9.74086
0.004375 2.25875e-21 0.0075 34.7325
0.00750003 -4.51751e-21 0.00437502 21.6675
-0.00869981 -6.77626e-21 0 938.469
-0.00869995 0 3.70995e-05 938.469
-0.00812497 2.25875e-21 0.00312179 17.5941
0.008125 0 0.00312179 19.8996
-0.003125 -1.12938e-21 0.008125 9.96659
0.003125 -1.12938e-21 0.008125 20.1267
-0.00843682 0 0.00216404 34.2676
0.00871 0 -4.42629e-59 938.29
0.00871 0 3.74198e-05 938.29
0.0084375 2.71051e-20 0.002164 32.0939
0.0021875 0 0.0084375 15.4725
-0.0021875 5.42101e-20 0.0084375 10.2755
-0.00873908 0 0 938.366
0.00875 0 -8.87035e-59 938.234
-8.81304e-15 -1.12938e-21 0.00875 11.6636
-0.00874218 0 0.00058561 601.492
0.00875 -1.12938e-21 0.000585362 594.319
0.000625 -2.25875e-21 0.00875 12.3394
-0.000625 -1.12938e-21 0.00875 11.1479
-0.00877807 0 0 938.25
-0.00877839 0 3.70983e-05 938.25
0.00879 6.77626e-21 -3.90613e-53 938.176
0.00879 6.77626e-21 3.74197e-05 938.176
-0.0078125 0 0.00406235 12.862
-0.0040625 2.71051e-20 0.0078125 9.72957
0.00406251 0 0.0078125 29.0106
0.00781256 -2.71051e-20 0.00406241 18.2845
-0.00874591 0 0.00120037 173.628
0.00875 -2.25875e-21 0.00120022 165.691
0.00125 -2.25875e-21 0.00875 13.2602
-0.00125 0 0.00875 10.7406
-0.00625 -1.12938e-21 0.00625 10.015
0.00625014 3.38813e-21 0.00625014 55.2473
-0.0059375 -2.71051e-20 0.0065625 9.83586
-0.0065625 2.71051e-20 0.0059375 10.1946
0.00593771 2.71051e-20 0.00656271 61.517
0.00656276 -2.71051e-20 0.00593776 47.9585
-0.006875 0 0.005625 10.4753
-0.005625 -1.12938e-21 0.006875 9.74067
0.00562508 0 0.00687508 60.4446
0.00687515 -3.38813e-21 0.00562515 38.8352
-0.00843738 2.71051e-20 0.00280422 20.4573
0.00843751 2.71051e-20 0.00280427 21.7247
0.0028125 5.42101e-20 0.0084375 17.8563
-0.0028125 0 0.0084375 10.0303
-0.0053125 2.71051e-20 0.0071875 9.64451
-0.0071875 0 0.0053125 10.7574
0.00531262 0 0.00718762 57.1008
0.00718777 -2.71051e-20 0.00531277 30.3878
-0.0087485 1.12938e-21 0.00184148 61.3329
0.00875 -1.12938e-21 0.0018415 60.4588
-0.008125 2.25875e-21 0.00374965 14.0886
0.00812503 -1.12938e-21 0.00374967 17.8784
-0.00375 0 0.008125 9.78195
0.001875 0 0.00875 14.5672
-0.001875 -1.12938e-21 0.00875 10.4119
0.00375 0 0.008125 25.3832
-0.005 0 0.0075 9.62227
-0.0075 -1.12938e-21 0.005 11.1762
0.00500004 -2.25875e-21 0.00750004 48.8255
0.00750015 0 0.00500015 25.1048
-0.00904936 0 0.000292715 937.523
0.0090625 2.71051e-20 0.000292358 937.77
0.0003125 0 0.0090625 11.9046
-0.0003125 2.71051e-20 0.0090625 11.3397
-0.0087497 0 0.00248624 28.4816
0.00875 0 0.00248636 29.4164
-0.00905444 0 0.000892414 262.632
0.0025 1.12938e-21 0.00875 16.5116
-0.0025 -1.12938e-21 0.00875 10.1442
0.0090625 2.71051e-20 0.000892181 250.55
-0.00843752 2.71051e-20 0.00343577 15.424
0.00843756 0 0.00343588 17.9857
-0.0009375 -5.42101e-20 0.0090625 10.8991
0.0009375 5.42101e-20 0.0090625 12.6554
-0.0046875 2.71051e-20 0.0078125 9.59752
-0.0078125 2.71051e-20 0.0046875 11.6042
-0.0034375 2.71051e-20 0.0084375 9.83065
0.0034375 0 0.0084375 21.7065
0.00468756 5.42101e-20 0.00781256 39.723
0.00781279 0 0.00468779 20.0494
-0.00905899 2.71051e-20 0.0015203 90.4791
0.0090625 0 0.00152054 93.9398
-0.0015625 -5.42101e-20 0.0090625 10.5431
0.0015625 0 0.0090625 13.6964
-0.008125 3.38813e-21 0.00437499 12.3028
-0.004375 -1.12938e-21 0.008125 9.63481
0.00437502 0 0.00812502 34.1255
0.00812517 -2.25875e-21 0.00437517 18.0847
-0.0065625 2.71051e-20 0.0065625 9.79267
0.00656348 0 0.00656347 55.7056
-0.00875005 0 0.00312165 18.3872
0.00875003 1.12938e-21 0.00312181 20.5583
-0.003125 0 0.00875 9.92608
-0.006875 0 0.00625 9.98751
-0.00625 -2.25875e-21 0.006875 9.68231