# omega  POINT_DATA 106151
# x  y  z  omega
-4.1359e-25 -3.99951e-05 3.16101e-09 948.586
2.71051e-20 0.000272501 0.000292358 948.494
0 -0.000352501 0.000292358 948.677
0 0.000585006 3.53957e-09 948.403
-2.98592e-21 -4.00012e-05 0.000584717 549.57
-4.1359e-25 -0.000665001 2.56165e-09 948.768
-3.7269e-20 0.000584999 0.000584718 549.092
1.20744e-20 -0.000665003 0.000584717 550.054
-2.71051e-20 0.0002725 0.000892183 143.772
0 0.0008975 0.000292358 948.311
-2.71051e-20 -0.000352501 0.000892183 144.558
-2.71051e-20 -0.000977503 0.000292358 948.859
1.48457e-20 -4.00004e-05 0.00119965 93.83
0 0.00121 3.50731e-09 948.222
0 0.0008975 0.000892183 143.003
0 -0.00129001 2.09341e-09 948.946
5.42101e-20 -0.000977501 0.000892183 145.355
1.45291e-20 0.000585 0.00119965 93.4234
-1.76826e-20 0.00121 0.000584718 548.623
2.76495e-20 -0.000665001 0.00119965 94.2495
-2.9976e-21 -0.00129 0.000584716 550.543
-2.71051e-20 0.0002725 0.00152054 42.7503
-2.71051e-20 0.0015225 0.000292358 948.133
2.71051e-20 -0.0003525 0.00152054 42.7846
-2.71051e-20 -0.0016025 0.000292359 949.032
-3.68951e-20 0.00121 0.00119965 93.0306
7.2724e-21 -0.00129 0.00119965 94.6826
0 0.0015225 0.000892183 142.25
-2.71051e-20 0.0008975 0.00152054 42.7242
5.42101e-20 -0.0009775 0.00152054 42.8343
-2.71051e-20 -0.0016025 0.000892183 146.17
-4.1359e-25 0.001835 3.06809e-09 948.043
2.98176e-20 -4.00001e-05 0.00184143 34.6398
0 -0.001915 1.91391e-09 949.123
-3.7419e-20 0.001835 0.000584717 548.164
-1.51435e-20 0.000585 0.00184143 34.7204
-1.69499e-20 -0.000665 0.00184143 34.5712
0 -0.0015859 0.00119965 94.8943
-1.3028e-20 -0.001915 0.000584717 551.042
2.71051e-20 0.0015225 0.00152054 42.7121
2.71051e-20 0.0021475 0.000292358 947.953
2.71051e-20 0.0002725 0.002164 26.5903
4.24379e-20 0.001835 0.00119965 92.6504
0 -0.0003525 0.002164 26.4045
2.39334e-20 0.00121 0.00184143 34.8122
5.42101e-20 -0.0016025 0.00152054 42.8953
-3.23117e-27 -0.001915 0.00114486 135.752
0 -0.0022275 0.000292358 949.214
-7.5191e-21 -0.00129 0.00184143 34.5149
0 -0.001915 0.00119965 95.1297
2.71051e-20 0.0021475 0.000892183 141.515
-2.71051e-20 0.0008975 0.002164 26.7877
-5.42101e-20 -0.0009775 0.002164 26.2315
2.71051e-20 -0.0022275 0.000892183 147.006
0 0.00246 2.413e-09 947.862
2.70055e-20 -4e-05 0.00248657 23.9846
0 0.00170405 0.00184143 34.8926
2.50573e-20 0.00246 0.000584716 547.714
-2.52435e-29 0.000498562 0.00248657 24.1719
0 -0.00254 1.92602e-09 949.302
0 0.000585 0.00248657 24.2099
-1.09085e-20 -0.000665 0.00248657 23.7789
0 0.001835 0.00180962 37.7756
0 0.001835 0.00184143 34.9139
-3.15267e-20 -0.00254 0.000584717 551.552
0 -0.001915 0.00177156 41.0723
5.42101e-20 0.0021475 0.00152054 42.7022
2.71051e-20 0.0015225 0.002164 26.9962
-3.43789e-21 -0.001915 0.00184143 34.4679
-8.07794e-28 0.00121 0.00236845 26.3317
-2.71051e-20 -0.0016025 0.002164 26.0683
0 -0.0022275 0.00152054 42.9618
-7.76173e-21 0.00246 0.00119965 92.2847
-1.27227e-26 0.00246659 0.00119965 92.281
6.05845e-28 0.00246 0.00121626 90.8026
0 0.00121 0.00248657 24.431
0 0.0027725 0.000292358 947.772
3.79995e-20 -0.00129 0.00248657 23.5844
-4.03897e-28 -0.00254 0.00119257 100.837
0 -0.00254 0.00119965 95.5895
0 0.0002725 0.00280426 21.6035
0 -0.0003525 0.00280426 21.3665
0 -0.00257145 0.00119965 95.6132
1.00974e-28 -4e-05 0.00285213 21.7544
0 -0.00254 0.00130011 86.0155
2.71051e-20 -0.0028525 0.000292359 949.39
-2.71051e-20 0.0027725 0.000892183 140.806
2.71051e-20 0.0008975 0.00280426 21.8523
0 -0.0009775 0.00280426 21.1399
0 -0.0028525 0.000892183 147.862
2.52435e-29 -0.000665 0.00296408 20.8516
-2.71051e-20 0.0021475 0.002164 27.2168
0 0.00246 0.00184143 35.0253
0 0.003085 1.88212e-09 947.682
0 0.001835 0.00248657 24.672
2.71051e-20 -0.0022275 0.002164 25.9157
2.01948e-28 -4e-05 0.00312195 20.1082
0 -0.00254 0.00184143 34.4283
6.7165e-21 -0.001915 0.00248657 23.4009
8.50194e-21 0.003085 0.000584717 547.274
-2.71051e-20 0.0027725 0.00152054 42.7041
0 -0.00316499 2.08701e-09 949.485
4.03897e-28 0.000585 0.00312195 20.3435
2.71051e-20 0.0015225 0.00280426 22.1134
5.04871e-29 -0.000665 0.00312195 19.8838
1.29247e-26 0.003085 0.00085029 350.625
1.64712e-20 -0.003165 0.000584716 552.072
0 -0.0016025 0.00280426 20.9247
2.52435e-29 -0.000832517 0.00312195 19.8264
2.71051e-20 -0.0028525 0.00152054 43.0315
0 0.003085 0.00119965 91.9354
0 0.00121 0.00312195 20.5907
1.00974e-28 -0.00129 0.00312195 19.6698
1.06043e-20 -0.003165 0.00119965 96.0607
0 0.0033975 0.000292358 947.591
6.46235e-27 0.00339584 0.000584717 547.059
0 0.0002725 0.00343582 18.8479
-2.71051e-20 -0.0003525 0.00343582 18.6261
-2.71051e-20 -0.0034775 0.000292357 949.58
-3.23117e-27 0.00246 0.00248657 24.9256
5.42101e-20 0.0033975 0.000892183 140.109
0 0.0027725 0.002164 27.4503
-2.71051e-20 0.0021475 0.00280426 22.387
0 0.0008975 0.00343582 19.0815
1.40858e-20 -0.00254 0.00248657 23.2275
0 -0.0009775 0.00343582 18.414
0 -0.0028525 0.002164 25.7731
2.71051e-20 -0.0022275 0.00280426 20.7222
2.71051e-20 -0.0034775 0.000892183 148.733
2.58494e-26 0.003085 0.00184143 35.1501
8.07794e-28 0.001835 0.00312195 20.8498
2.88139e-20 -0.003165 0.00184143 34.3957
3.13906e-20 -0.001915 0.00312195 19.4669
2.06795e-25 0.00371 1.56018e-09 947.502
0 0.0033975 0.00152054 42.7217
2.52435e-29 -4e-05 0.00374969 17.7257
1.29247e-26 0.00371 0.000548442 571.699
0 0.00371 0.000584717 546.842
2.71051e-20 0.0015225 0.00343582 19.3268
-4.1359e-25 -0.00379 2.45568e-09 949.666
-2.71051e-20 -0.0016025 0.00343582 18.212
-5.04871e-29 0.000585 0.00374969 17.9438
-2.71051e-20 -0.0034775 0.00152054 43.1078
0 -0.000665 0.00374969 17.5181
-2.31528e-20 -0.00379 0.000584717 552.6
6.31089e-30 -0.000919692 0.00374969 17.4375
0 0.00371 0.00119965 91.6014
0 0.00121 0.00374969 18.1732
0 0.0027725 0.00280426 22.6735
0 0.003085 0.00248657 25.1924
7.35314e-21 -0.00129 0.00374969 17.3203
0 0.00246 0.00312195 21.1214
1.60395e-20 -0.00379 0.00119965 96.5441
-2.71051e-20 -0.0028525 0.00280426 20.5265
-1.04853e-20 -0.00254 0.00312195 19.2735
-1.75764e-20 -0.003165 0.00248657 23.0636
2.71051e-20 0.0033975 0.002164 27.6969
0 0.0040225 0.000292358 947.413
2.71051e-20 0.0021475 0.00343582 19.5834
0 0.0002725 0.00406235 16.8171
-2.71051e-20 -0.0003525 0.00406234 16.6144
0 -0.0022275 0.00343582 18.0199
0 -0.0034775 0.002164 25.6389
-2.71051e-20 -0.0041025 0.000292358 949.751
-5.42101e-20 0.0040225 0.000892183 139.43
0 0.00371 0.00184143 35.2895
-2.71051e-20 0.0008975 0.00406235 17.0311
0 0.001835 0.00374969 18.4141
5.42101e-20 -0.0009775 0.00406235 16.4205
-2.71051e-20 -0.0041025 0.000892183 149.622
-3.6329e-20 -0.001915 0.00374969 17.1324
1.25127e-21 -0.00379 0.00184143 34.3714
-5.42101e-20 0.0040225 0.00152054 42.7545
-1.57772e-30 -0.000665 0.00428312 16.0324
0 0.004335 1.3191e-09 947.323
-2.71051e-20 0.0015225 0.00406235 17.2559
-1.57772e-30 -4e-05 0.00434127 16.0599
2.58494e-26 0.004335 0.000495203 607.793
0 -0.0016025 0.00406235 16.2375
0 0.004335 0.000584716 546.419
0 -4e-05 0.004375 15.9649
2.71051e-20 -0.0041025 0.00152054 43.193
0 0.003085 0.00312195 21.4062
-3.15544e-30 0.000585 0.00435525 16.2193
-2.71051e-20 0.0033975 0.00280426 22.9736
3.28992e-21 0.000585 0.004375 16.163
5.42101e-20 0.0027725 0.00343582 19.8531
0 -0.004415 2.87774e-09 949.839
0 -0.000665 0.004375 15.7765
-1.53468e-20 -0.003165 0.00312195 19.0895
4.35583e-21 -0.004415 0.000584717 553.131
0 -0.0028525 0.00343582 17.8365
-6.46235e-27 0.00371 0.00248657 25.4728
2.71051e-20 -0.0034775 0.00280426 20.3436
0 0.00246 0.00374969 18.6673
0 0.004335 0.00119965 91.2827
-7.88861e-30 0.00121 0.00436215 16.409
2.52862e-20 -0.00254 0.00374969 16.9535
2.2983e-20 -0.00379 0.00248657 22.9097
0 0.00121 0.004375 16.3719
4.20678e-20 -0.00129 0.004375 15.5975
-5.42101e-20 0.0040225 0.002164 27.9577
-2.62542e-20 -0.004415 0.00119965 97.0395
0 0.0021475 0.00406235 17.4929
2.71051e-20 -0.0022275 0.00406235 16.0629
0 -0.0041025 0.002164 25.5142
0 0.0046475 0.000292358 947.234
0 0.0002725 0.0046875 15.3055
-2.71051e-20 -0.0003525 0.0046875 15.1229
0 0.004335 0.00184143 35.4427
0 0.0046475 0.000892183 138.766
4.57539e-29 0.001835 0.00436526 16.6204
-2.71051e-20 -0.0047275 0.000292358 949.926
0 0.001835 0.004375 16.592
5.42101e-20 0.0008975 0.0046875 15.4987
4.20665e-20 -0.001915 0.004375 15.4278
1.32554e-20 -0.004415 0.00184143 34.3562
-5.42101e-20 -0.0009775 0.0046875 14.9487
0 -0.0047275 0.000892183 150.523
-2.71051e-20 0.0033975 0.00343582 20.1362
1.61559e-27 0.00371 0.00312195 21.7048
-1.00974e-28 0.003085 0.00374969 18.9335
2.71051e-20 -0.0034775 0.00343582 17.6624
0 0.0046475 0.00152054 42.7999
0 0.0040225 0.00280426 23.2874
1.2266e-20 -0.003165 0.00374969 16.7832
-1.0832e-20 -0.00379 0.00312195 18.915
2.71051e-20 0.0027725 0.00406234 17.7425
-5.42101e-20 0.0015225 0.0046875 15.7023
-5.42101e-20 -0.0016025 0.0046875 14.7835
0 0.00496 1.18296e-09 947.144
2.71051e-20 -0.0028525 0.00406235 15.8975
-2.71051e-20 -0.0047275 0.00152054 43.2872
-2.71051e-20 -0.0041025 0.00280426 20.1704
5.16988e-26 0.00496 0.000463542 629.135
5.16988e-26 0.00496 0.000584716 546.004
0 0.004335 0.00248657 25.7671
4.20678e-20 -4e-05 0.005 14.6508
-9.46633e-30 0.00246 0.00436629 16.8496
0 0.00246 0.004375 16.824
3.28992e-21 0.000585 0.005 14.8281
0 -0.00504 3.05741e-09 950.012
4.20678e-20 -0.000665 0.005 14.4827
4.20653e-20 -0.00254 0.004375 15.2666
-1.28302e-20 -0.004415 0.00248657 22.7654
2.18913e-21 -0.00504 0.000584718 553.668
5.16988e-26 0.00496 0.00119965 90.9801
0 0.0046475 0.002164 28.2319
4.20678e-20 0.00121 0.005 15.0156
5.42101e-20 0.0021475 0.0046875 15.9171
4.20678e-20 -0.00129 0.005 14.323
-3.77329e-21 -0.00504 0.00119965 97.5454
2.71051e-20 -0.0022275 0.0046875 14.6275
0 -0.0047275 0.002164 25.3981
0 0.00371 0.00374969 19.2135
0 0.0052725 0.000292358 947.054
2.71051e-20 0.0040225 0.00343582 20.4335
0 0.00496 0.00184143 35.6104
0 0.0033975 0.00406235 18.005
2.71051e-20 0.0002725 0.0053125 14.1683
0 -0.0003525 0.0053125 14.0066
4.20678e-20 0.001835 0.005 15.2136
-1.46056e-20 -0.00379 0.00374969 16.6208
0 0.004335 0.00312195 22.0175
-2.8399e-29 0.003085 0.00436659 17.0936
-2.71051e-20 0.0052725 0.000892183 138.12
-2.71051e-20 -0.0034775 0.00406235 15.7392
0 -0.0041025 0.00343582 17.4949
0 0.003085 0.004375 17.0685
4.20678e-20 -0.001915 0.005 14.1716
-5.42101e-20 -0.0053525 0.000292359 950.098
-1.91521e-20 -0.00504 0.00184143 34.3505
-2.71051e-20 0.0008975 0.0053125 14.3401
4.20659e-20 -0.003165 0.004375 15.1132
2.71051e-20 -0.0009775 0.0053125 13.8528
1.02388e-20 -0.004415 0.00312195 18.7494
5.42101e-20 -0.0053525 0.000892183 151.436
0 0.0046475 0.00280426 23.6156
2.71051e-20 0.0027725 0.0046875 16.1437
-2.71051e-20 -0.0028525 0.0046875 14.4787
0 0.0052725 0.00152054 42.8637
-2.71051e-20 -0.0047275 0.00280426 20.0072
2.71051e-20 0.0015225 0.0053125 14.5214
-6.46235e-27 0.00496 0.00248657 26.0757
2.71051e-20 -0.0016025 0.0053125 13.707
2.71051e-20 -0.0053525 0.00152054 43.3907
4.20678e-20 0.00246 0.005 15.4227
-2.06795e-25 0.005585 1.19937e-09 946.964
-5.16988e-26 0.005585 0.000471017 623.645
4.20678e-20 -0.00254 0.005 14.0279
0 0.005585 0.000584717 545.598
-5.77312e-21 -0.00504 0.00248657 22.6307
4.20678e-20 -4e-05 0.005625 13.667
3.28992e-21 0.000585 0.005625 13.8244
4.20678e-20 -0.000665 0.005625 13.5181
0 -0.005665 3.1104e-09 950.184
-1.58027e-20 -0.005665 0.000584718 554.212
0 0.0052725 0.002164 28.5198
2.52435e-29 -0.00478358 0.00312195 18.6569
0 0.005585 0.00119965 90.6949
2.71051e-20 0.0040225 0.00406235 18.282
2.71051e-20 0.0021475 0.0053125 14.7135
0 0.00371 0.00436708 17.3503
0 0.004335 0.00374969 19.5081
3.2968e-21 0.00371 0.004375 17.3263
3.28992e-21 0.00121 0.005625 13.991
2.71051e-20 -0.0022275 0.0053125 13.5684
4.20678e-20 -0.00129 0.005625 13.3767
2.71051e-20 -0.0053525 0.002164 25.2935
0 -0.0041025 0.00406235 15.5891
2.71051e-20 0.0046475 0.00343582 20.7453
4.20678e-20 -0.00379 0.004375 14.9673
-2.71051e-20 0.0033975 0.0046875 16.383
2.08321e-20 -0.005665 0.00119965 98.0638
-5.93364e-21 -0.004415 0.00374969 16.4658
-2.71051e-20 -0.0034775 0.0046875 14.3376
4.73317e-30 -0.0044787 0.00374969 16.4508
0 -0.0047275 0.00343582 17.336
1.61559e-27 0.00496 0.00312195 22.3452
3.28992e-21 0.003085 0.005 15.6436
0 0.005585 0.00184143 35.7927
-2.71051e-20 0.0058975 0.000292358 946.874
6.05845e-28 -0.00504 0.00307795 18.8722
3.28992e-21 0.001835 0.005625 14.1672
3.28992e-21 -0.003165 0.005 13.8913
-3.28032e-20 -0.00504 0.00312195 18.5925
4.20678e-20 -0.001915 0.005625 13.2426
2.71051e-20 0.0002725 0.0059375 13.3183
0 -0.0003525 0.0059375 13.1749
1.96602e-20 -0.005665 0.00184143 34.3552
-2.71051e-20 0.0058975 0.000892183 137.495
0 0.0052725 0.00280426 23.9593
0 -0.0059775 0.000292358 950.271
2.71051e-20 0.0027725 0.0053125 14.9165
0 0.0008975 0.0059375 13.4708
2.71051e-20 -0.0009775 0.0059375 13.0382
-5.42101e-20 -0.0028525 0.0053125 13.437
0 -0.0053525 0.00280426 19.8525
-2.71051e-20 -0.0059775 0.000892183 152.365
-2.71051e-20 0.0058975 0.00152054 42.9402
0 0.005585 0.00248657 26.3984
2.71051e-20 0.0015225 0.0059375 13.6316
4.20678e-20 0.00246 0.005625 14.354
-5.42101e-20 -0.0016025 0.0059375 12.9089
-1.26218e-29 0.004335 0.00436766 17.6211
0 0.004335 0.004375 17.5987
0 -0.0059775 0.00152054 43.507
4.20678e-20 -0.00254 0.005625 13.1154
-2.71051e-20 0.0046475 0.00406235 18.5744
-2.71051e-20 0.0040225 0.0046875 16.6356
-3.8168e-20 -0.005665 0.00248657 22.505
0 0.00621 1.39959e-09 946.785
4.20683e-20 -0.004415 0.004375 14.8287
0 0.00496 0.00374969 19.8178
3.28992e-21 0.00371 0.005 15.8771
2.71051e-20 -0.0041025 0.0046875 14.2037
0 0.00621 0.000521791 588.42
0 -0.0047275 0.00406234 15.4459
0 0.00621 0.000584717 545.203
4.20678e-20 -4e-05 0.00625 12.9366
4.20678e-20 -0.00379 0.005 13.7615
4.20678e-20 0.000585 0.00625 13.0769
-1.45948e-20 -0.00504 0.00374969 16.3187
2.71051e-20 0.0058975 0.002164 28.8213
4.20678e-20 -0.000665 0.00625 12.8039
0 -0.00629 3.27663e-09 950.356
2.71051e-20 0.0052725 0.00343582 21.0723
2.71051e-20 0.0033975 0.0053125 15.1312
2.71051e-20 0.0021475 0.0059375 13.8025
4.16837e-21 -0.00629 0.000584717 554.763
0 0.00621 0.00119965 90.4264
5.42101e-20 -0.0022275 0.0059375 12.7862
0 -0.0034775 0.0053125 13.3118
-2.71051e-20 -0.0059775 0.002164 25.1965
2.71051e-20 -0.0053525 0.00343582 17.1853
4.20678e-20 0.00121 0.00625 13.2255
4.20678e-20 -0.00129 0.00625 12.6781
0 0.005585 0.00312195 22.6881
2.27519e-20 -0.00629 0.00119965 98.5946
4.20678e-20 0.003085 0.005625 14.5517
4.20678e-20 -0.003165 0.005625 12.9947
0 -0.005665 0.00310605 18.5453
0 -0.005665 0.00312195 18.4436
0 0.00621 0.00184143 35.9888
4.20678e-20 0.001835 0.00625 13.3828
2.71051e-20 0.0065225 0.000292358 946.697
2.71051e-20 0.0058975 0.00280426 24.317
4.20678e-20 -0.001915 0.00625 12.5589
2.52435e-29 -0.00575131 0.00312195 18.4241
5.42101e-20 0.0027725 0.0059375 13.9834
-1.86152e-20 -0.00629 0.00184143 34.3699
-2.71051e-20 0.0002725 0.0065625 12.691
-2.71051e-20 -0.0003525 0.0065625 12.5624
0 0.0065225 0.000892183 136.889
2.71051e-20 -0.0028525 0.0059375 12.6702
-5.42101e-20 0.0046475 0.0046875 16.9029
0 -0.0059775 0.00280426 19.7064
-2.71051e-20 -0.0066025 0.000292358 950.442
-5.36425e-29 0.00496 0.00436771 17.9085
0 0.00496 0.004375 17.886
3.28992e-21 0.004335 0.005 16.1243
0 0.0008975 0.0065625 12.8276
-2.71051e-20 -0.0009775 0.0065625 12.4403
1.41995e-29 -0.00504 0.00431916 14.8417
-2.71051e-20 0.0052725 0.00406235 18.8821
-5.42101e-20 -0.0047275 0.0046875 14.0764
2.71051e-20 -0.0066025 0.000892183 153.306
-2.71051e-20 0.0040225 0.0053125 15.3588
4.20678e-20 -0.004415 0.005 13.6382
4.20683e-20 -0.00504 0.004375 14.6968
-6.46235e-27 0.00666238 0.000584716 544.925
0 0.00621 0.00248657 26.7356
0 0.0065225 0.00152054 43.0314
2.71051e-20 -0.0041025 0.0053125 13.1929
4.20678e-20 0.00246 0.00625 13.5496
0 -0.0053525 0.00406235 15.3099
0 0.005585 0.00374969 20.1434
-5.42101e-20 0.0015225 0.0065625 12.9719
4.20678e-20 0.00371 0.005625 14.7613
4.20678e-20 -0.00254 0.00625 12.4459
0 -0.0016025 0.0065625 12.3249
-1.65274e-20 -0.00629 0.00248657 22.3881
2.71051e-20 -0.0066025 0.00152054 43.6322
4.20678e-20 -0.00379 0.005625 12.8798
-2.52435e-29 -0.005665 0.00374969 16.1787
0 0.0058975 0.00343582 21.4154
-4.1359e-25 0.006835 1.73939e-09 946.609
2.71051e-20 0.0033975 0.0059375 14.1756
1.29247e-26 0.006835 0.000584716 544.819
2.71051e-20 0.0065225 0.002164 29.137
-1.52159e-20 -4e-05 0.006875 12.4051
1.29247e-26 0.006835 0.000763003 413.004
2.71051e-20 -0.0034775 0.0059375 12.5598
0 -0.0059775 0.00343582 17.0412
-1.52159e-20 0.000585 0.006875 12.5316
5.42101e-20 0.0021475 0.0065625 13.1251
-1.52159e-20 -0.000665 0.006875 12.2854
4.1359e-25 -0.006915 3.37484e-09 950.525
0 -0.0022275 0.0065625 12.2156
2.58494e-26 0.006835 0.00119965 90.1751
8.23189e-21 -0.006915 0.000584717 555.319
0 -0.0066025 0.002164 25.1104
1.61559e-27 0.00621 0.00312195 23.0466
4.20678e-20 0.003085 0.00625 13.7267
-1.52159e-20 0.00121 0.006875 12.6656
-1.52159e-20 -0.00129 0.006875 12.1721
4.20678e-20 -0.003165 0.00625 12.3388
1.04204e-20 -0.006915 0.00119965 99.1374
-5.58219e-21 -0.00629 0.00312195 18.3023
3.28992e-21 0.00496 0.005 16.3859
-2.71051e-20 0.0052725 0.0046875 17.1849
2.71051e-20 0.0046475 0.0053125 15.6001
-1.29247e-26 0.006835 0.00184143 36.1986
-3.9443e-29 0.005585 0.0043671 18.214
0 0.005585 0.004375 18.1893
3.28992e-21 -0.00504 0.005 13.521
-2.71051e-20 0.0065225 0.00280426 24.6904
3.28992e-21 0.004335 0.005625 14.9838
5.42101e-20 -0.0047275 0.0053125 13.0799
2.71051e-20 -0.0053525 0.0046875 13.9554
-1.11325e-20 0.001835 0.006875 12.8076
0 0.0027725 0.0065625 13.2875
0 -0.005665 0.00432451 14.7013
-1.92994e-20 -0.001915 0.006875 12.0648
3.28992e-21 -0.004415 0.005625 12.7707
-5.42101e-20 0.0071475 0.000292358 946.521
-2.71051e-20 -0.0028525 0.0065625 12.1118
1.49057e-20 -0.006915 0.00184143 34.3933
0 -0.005665 0.004375 14.5716
0 0.0058975 0.00406235 19.2068
5.42101e-20 0.0040225 0.0059375 14.3798
5.42101e-20 -0.0066025 0.00280426 19.5683
-2.71051e-20 0.0002725 0.0071875 12.2419
-2.71051e-20 -0.0003525 0.0071875 12.125
0 0.0071475 0.000892183 136.304
5.42101e-20 -0.0041025 0.0059375 12.4548
0 -0.0059775 0.00406235 15.1806
2.71051e-20 -0.0072275 0.000292358 950.609
0 0.0008975 0.0071875 12.366
0 -0.0009775 0.0071875 12.014
0 0.00621 0.00374969 20.4857
4.20678e-20 0.00371 0.00625 13.9148
0 0.006835 0.00248657 27.0873
-2.71051e-20 -0.0072275 0.000892183 154.264
-2.94934e-20 0.00246 0.006875 12.9581
2.71051e-20 0.0071475 0.00152054 43.1353
4.20678e-20 -0.00379 0.00625 12.237
4.93038e-32 -0.00629 0.00374969 16.0453
-1.52159e-20 -0.00254 0.006875 11.9631
0 -0.00629 0.00376968 15.9944
-2.71051e-20 0.0015225 0.0071875 12.4971
-2.81739e-20 -0.006915 0.00248657 22.2791
0 -0.0016025 0.0071875 11.9091
2.71051e-20 0.0065225 0.00343582 21.7753
2.71051e-20 -0.0072275 0.00152054 43.7679
-2.71051e-20 0.0033975 0.0065625 13.4602
0 -0.0034775 0.0065625 12.0135
-2.71051e-20 -0.0066025 0.00343582 16.9042
0 0.00746 1.93575e-09 946.431
0 0.0071475 0.002164 29.4659
5.70827e-21 0.00746 0.000584716 544.445
5.42101e-20 0.0052725 0.0053125 15.8556
3.28992e-21 0.005585 0.005 16.6628
3.28992e-21 0.00496 0.005625 15.2198
-4.29909e-20 -4e-05 0.0075 12.0322
0 0.0021475 0.0071875 12.6363
8.07794e-28 0.006835 0.00312195 23.4211
-4.29909e-20 0.000585 0.0075 12.1479
2.71051e-20 -0.0022275 0.0071875 11.8097
2.23146e-20 -0.000665 0.0075 11.9228
0 0.00746 0.00104413 204.89
5.42101e-20 0.0058975 0.0046875 17.4838
1.13407e-20 0.003085 0.006875 13.1179
-4.1359e-25 -0.00754 3.27194e-09 950.691
-2.71051e-20 0.0046475 0.0059375 14.5964
2.71051e-20 -0.0053525 0.0053125 12.9725
0 -0.0072275 0.002164 25.0292
3.28992e-21 -0.00504 0.005625 12.667
-1.29247e-26 0.00746 0.00119965 89.9412
4.20678e-20 -0.005665 0.005 13.4097
4.02341e-21 -0.00754 0.000584718 555.88
-1.52159e-20 -0.003165 0.006875 11.8667
-6.44624e-21 -0.006915 0.00312195 18.1682
5.42101e-20 -0.0047275 0.0059375 12.3552
4.73317e-29 0.00621 0.00436615 18.5376
-2.71051e-20 -0.0059775 0.0046875 13.8405
0 0.00621 0.004375 18.5096
-4.213e-21 0.00121 0.0075 12.2703
3.28992e-21 0.004335 0.00625 14.1147
-4.29909e-20 -0.00129 0.0075 11.8192
-1.19471e-20 -0.00754 0.00119965 99.6919
3.28992e-21 -0.004415 0.00625 12.1403
3.28992e-21 -0.00629 0.004375 14.4524
-2.71051e-20 0.0071475 0.00280426 25.0791
-1.29247e-26 0.00746 0.00184143 36.4218
0 0.0065225 0.00406235 19.5482
0 0.0040225 0.0065625 13.6437
0 0.0027725 0.0071875 12.7837
-2.15679e-21 0.001835 0.0075 12.4
-5.42101e-20 -0.0028525 0.0071875 11.7155
-2.71051e-20 -0.0041025 0.0065625 11.92
-4.29909e-20 -0.001915 0.0075 11.7211
0 -0.0066025 0.00406235 15.0575
-2.71051e-20 -0.0072275 0.00280426 19.4379
2.13773e-20 -0.00754 0.00184143 34.4248
0 0.0077725 0.000292358 946.342
0 0.006835 0.00374969 20.845
-2.74082e-20 0.00371 0.006875 13.2877
2.71051e-20 0.0002725 0.0078125 11.9348
-2.71051e-20 -0.0003525 0.0078125 11.8271
0 0.0077725 0.000892183 135.741
-1.52159e-20 -0.00379 0.006875 11.7753
0 -0.0078525 0.000292358 950.774
3.23117e-27 0.00746 0.00248657 27.4537
0 0.0008975 0.0078125 12.0489
0 -0.006915 0.00374969 15.9182
2.71051e-20 -0.0009775 0.0078125 11.7251
-2.4543e-20 0.00246 0.0075 12.5375
0 -0.0078525 0.000892183 155.232
-4.29909e-20 -0.00254 0.0075 11.6283
0 0.0077725 0.00152054 43.2527
4.20678e-20 0.005585 0.005625 15.4706
5.42101e-20 0.0071475 0.00343582 22.1514
2.71051e-20 0.0058975 0.0053125 16.1268
-1.19688e-20 -0.00754 0.00248657 22.1773
5.42101e-20 0.0052725 0.0059375 14.8271
-2.71051e-20 0.0033975 0.0071875 12.9403
2.71051e-20 0.0015225 0.0078125 12.1695
4.20678e-20 0.00621 0.005 16.9564
2.71051e-20 -0.0016025 0.0078125 11.6286
3.28992e-21 0.00496 0.00625 14.3273
4.20678e-20 -0.005665 0.005625 12.5684
0 -0.0034775 0.0071875 11.6262
0 -0.0053525 0.0059375 12.2604
2.71051e-20 -0.0059775 0.0053125 12.8705
-2.71051e-20 -0.0078525 0.00152054 43.9129
2.71051e-20 -0.0072275 0.00343582 16.7732
3.28992e-21 -0.00504 0.00625 12.0483
2.71051e-20 0.0065225 0.0046875 17.8001
4.20678e-20 -0.00629 0.005 13.3039
0 0.0046475 0.0065625 13.8391
2.71051e-20 0.0077725 0.002164 29.8086
0 0.008085 1.8066e-09 946.253
8.07794e-28 0.00746 0.00312195 23.8121
2.71051e-20 -0.0047275 0.0065625 11.8312
-5.42101e-20 -0.0066025 0.0046875 13.7312
2.71051e-20 0.0021475 0.0078125 12.2973
1.63833e-22 0.008085 0.000584717 544.082
-1.82584e-20 0.003085 0.0075 12.6833
2.05104e-29 0.006835 0.00436478 18.8806
0 0.006835 0.004375 18.848
2.71051e-20 -0.0022275 0.0078125 11.5372
0 -4e-05 0.008125 11.7898
-1.92123e-20 0.004335 0.006875 13.4682
-4.29909e-20 -0.003165 0.0075 11.5404
-2.71051e-20 -0.0078525 0.002164 24.955
9.66278e-21 0.000585 0.008125 11.896
-2.03372e-20 -0.000665 0.008125 11.6894
0 0.008085 0.00104972 200.506
-2.21741e-20 -0.00754 0.00312195 18.0416
4.1359e-25 -0.008165 3.05695e-09 950.858
-1.52159e-20 -0.004415 0.006875 11.6885
0 0.008085 0.00119965 89.7251
3.28793e-21 -0.006915 0.004375 14.339
2.41247e-21 -0.008165 0.000584718 556.449
3.06909e-20 0.00121 0.008125 12.0085
2.71051e-20 0.0071475 0.00406235 19.9081
2.90517e-20 -0.00129 0.008125 11.5944
2.71051e-20 0.0040225 0.0071875 13.1066
2.49964e-21 -0.008165 0.00119965 100.259
0 0.0077725 0.00280426 25.4839
2.71051e-20 -0.0041025 0.0071875 11.5416
0 0.0027725 0.0078125 12.4328
0 -0.0072275 0.00406235 14.9402
0 0.008085 0.00184143 36.6582
0 -0.0028525 0.0078125 11.4509
-1.29175e-20 0.001835 0.008125 12.1277
5.42101e-20 -0.0078525 0.00280426 19.3166
9.05171e-21 -0.001915 0.008125 11.5045
0 0.00746 0.00374969 21.2223
1.05865e-20 0.00371 0.0075 12.8382
0 0.0058975 0.0059375 15.0729
-1.7562e-20 -0.008165 0.00184143 34.4646
4.20678e-20 0.00621 0.005625 15.7373
4.20678e-20 0.005585 0.00625 14.5537
2.71051e-20 0.0083975 0.000292359 946.165
-4.29909e-20 -0.00379 0.0075 11.457
2.71051e-20 0.0065225 0.0053125 16.4151
0 0.0052725 0.0065625 14.0468
-2.91312e-20 -0.00754 0.00374969 15.7974
-2.71051e-20 -0.0059775 0.0059375 12.1703
4.20678e-20 -0.005665 0.00625 11.9608
4.20678e-20 -0.00629 0.005625 12.4746
-5.42101e-20 0.0002725 0.0084375 11.7479
5.42101e-20 0.0083975 0.000892183 135.202
0 -0.0003525 0.0084375 11.6494
0 0.008085 0.00248657 27.8348
0 -0.0053525 0.0065625 11.7465
4.20678e-20 0.006835 0.005 17.2681
-5.42101e-20 -0.0066025 0.0053125 12.7736
1.55111e-20 0.00496 0.006875 13.6603
2.71051e-20 -0.0084775 0.000292358 950.941
-2.71051e-20 0.0008975 0.0084375 11.8524
1.08513e-23 0.00246 0.008125 12.2542
-2.71051e-20 -0.0009775 0.0084375 11.5562
0 0.0077725 0.00343582 22.5461
-2.03372e-20 -0.00254 0.008125 11.4195
-2.71051e-20 0.0033975 0.0078125 12.5765
-2.71051e-20 -0.0084775 0.000892183 156.22
-1.52159e-20 -0.00504 0.006875 11.6059
3.28992e-21 -0.006915 0.005 13.2034
2.71051e-20 0.0083975 0.00152054 43.3825
-1.55101e-20 -0.008165 0.00248657 22.0833
-5.42101e-20 0.0071475 0.0046875 18.1358
-2.71051e-20 -0.0034775 0.0078125 11.369
5.42101e-20 0.0046475 0.0071875 13.2834
0 -0.0078525 0.00343582 16.6498
0 0.0015225 0.0084375 11.9632
0 -0.0016025 0.0084375 11.4679
0 -0.0047275 0.0071875 11.4611
2.71051e-20 -0.0084775 0.00152054 44.0674
2.71051e-20 -0.0072275 0.0046875 13.6273
1.41995e-29 0.00746 0.00436155 19.2486
0 0.00746 0.004375 19.2053
-7.45522e-21 0.004335 0.0075 13.0028
-4.03897e-28 0.008085 0.00312195 24.2204
2.71051e-20 0.0083975 0.002164 30.1646
-2.52096e-20 0.003085 0.008125 12.3884
-4.213e-21 -0.004415 0.0075 11.378
-2.71051e-20 0.0021475 0.0084375 12.0808
0 0.00871 1.27513e-09 946.077
3.28793e-21 -0.00754 0.004375 14.2312
1.37462e-20 -0.003165 0.008125 11.339
-5.42101e-20 -0.0022275 0.0084375 11.3845
-3.02112e-20 0.00871 0.000584717 543.733
3.23117e-27 0.00871 0.00071784 445.405
-1.06165e-20 -0.008165 0.00312195 17.9225
0 -0.0084775 0.002164 24.8888
-3.24548e-20 -4e-05 0.00875 11.6574
-2.45484e-21 0.000585 0.00875 11.7557
0 0.0077725 0.00406235 20.2863
-3.0659e-21 -0.000665 0.00875 11.5646
0 0.0040225 0.0078125 12.7294
-4.1359e-25 -0.00879 2.74038e-09 951.025
0 0.00871 0.00119965 89.5285
9.69352e-27 0.00878174 0.000584717 543.694
2.06474e-20 -0.00879 0.000584717 557.026
4.20678e-20 0.00621 0.00625 14.7951
2.71051e-20 0.0065225 0.0059375 15.3346
-5.42101e-20 0.0058975 0.0065625 14.2682
0 -0.0041025 0.0078125 11.2914
7.76818e-21 0.00121 0.00875 11.8599
0 -0.0078525 0.00406234 14.8289
1.69341e-20 -0.00129 0.00875 11.4768
4.20678e-20 0.006835 0.005625 16.0213
-5.42101e-20 0.0083975 0.00280426 25.9045
-1.30437e-20 0.005585 0.006875 13.8648
4.20678e-20 -0.00629 0.00625 11.8774
1.29434e-20 -0.00879 0.00119965 100.838
0 -0.0059775 0.0065625 11.666
2.71051e-20 -0.0066025 0.0059375 12.0842
0 0.0027725 0.0084375 12.2059
0 0.00871 0.00184143 36.9075
-5.42101e-20 0.0071475 0.0053125 16.7216
-2.71051e-20 -0.0028525 0.0084375 11.3056
-1.52159e-20 -0.005665 0.006875 11.5273
-5.04871e-29 0.008085 0.00374969 21.6182
3.28992e-21 -0.006915 0.005625 12.3853
0 0.0052725 0.0071875 13.4718
-2.71051e-20 -0.0084775 0.00280426 19.2025
-1.29922e-20 0.00371 0.008125 12.5311
2.03865e-20 0.001835 0.00875 11.9704
6.93409e-21 -0.001915 0.00875 11.3938
-2.71051e-20 -0.0053525 0.0071875 11.3847
3.74618e-21 -0.00379 0.008125 11.2627
-2.71051e-20 -0.0072275 0.0053125 12.6815
4.20678e-20 0.00746 0.005 17.599
-2.26205e-20 -0.00879 0.00184143 34.5127
1.30734e-20 -0.008165 0.00374969 15.6829
3.36399e-20 0.00496 0.0075 13.1778
2.71051e-20 0.0090225 0.000292358 945.989
-4.29909e-20 -0.00504 0.0075 11.303
3.28992e-21 -0.00754 0.005 13.1078
-3.23117e-27 0.00871 0.00248657 28.2305
-2.71051e-20 0.0090225 0.000892184 134.692
2.71051e-20 0.0002725 0.0090625 11.6624
2.71051e-20 -0.0003525 0.0090625 11.5701
0 0.0083975 0.00343582 22.9591
0 0.0077725 0.0046875 18.4911
-1.80833e-20 0.00246 0.00875 12.0878
-2.71051e-20 0.0046475 0.0078125 12.8918
-2.71051e-20 0.0033975 0.0084375 12.3387
-2.71051e-20 0.0008975 0.0090625 11.7603
-5.42101e-20 -0.0091025 0.000292358 951.109
-1.24548e-20 -0.00254 0.00875 11.3152
2.71051e-20 -0.0009775 0.0090625 11.4828
-2.71051e-20 -0.0034775 0.0084375 11.2308
0 -0.0047275 0.0078125 11.2179
1.52729e-20 -0.00879 0.00248657 21.9962
-2.71051e-20 -0.0078525 0.0046875 13.5286
0 -0.0091025 0.000892183 157.218
-2.71051e-20 -0.0084775 0.00343582 16.532
-2.71051e-20 0.0090225 0.00152054 43.5254
2.52435e-29 0.008085 0.00435536 19.6462
0 0.0015225 0.0090625 11.8639
4.20678e-20 0.008085 0.004375 19.5823
0 -0.0016025 0.0090625 11.4003
-7.45848e-21 0.004335 0.008125 12.6829
0 -0.0091025 0.00152054 44.2307
3.74619e-21 -0.004415 0.008125 11.1904
2.71051e-20 0.0065225 0.0065625 14.5048
0 0.00871 0.00312195 24.6462
4.20678e-20 0.006835 0.00625 15.0526
3.28844e-21 -0.008165 0.004375 14.1288
3.28992e-21 0.00621 0.006875 14.083
3.74411e-21 0.003085 0.00875 12.2125
0 0.0090225 0.002164 30.5337
-5.42101e-20 0.0071475 0.0059375 15.6139
2.71051e-20 0.0058975 0.0071875 13.6724
2.28507e-20 -0.003165 0.00875 11.2406
0 -0.0066025 0.0065625 11.5892
-2.71051e-20 0.0021475 0.0090625 11.9738
-1.52159e-20 -0.00629 0.006875 11.4526
3.28992e-21 -0.006915 0.00625 11.7979
1.17025e-20 -0.00879 0.00312195 17.8095
2.71051e-20 0.0083975 0.00406234 20.6842
5.42101e-20 -0.0022275 0.0090625 11.3224
0 0.009335 3.69999e-10 945.902
0 0.009335 0.000367949 692.615
4.20678e-20 0.00746 0.005625 16.3236
5.42101e-20 0.0040225 0.0084375 12.48
0 -0.0059775 0.0071875 11.3122
-9.04733e-21 0.005585 0.0075 13.3643
0 0.009335 0.000584717 543.398
5.42101e-20 -0.0072275 0.0059375 12.0022
2.71051e-20 -0.0091025 0.002164 24.8289
-1.69014e-20 -4e-05 0.009375 11.6057
-2.71051e-20 -0.0041025 0.0084375 11.1597
2.24875e-20 0.000585 0.009375 11.6988
-2.69014e-20 -0.000665 0.009375 11.5177
-4.29909e-20 -0.005665 0.0075 11.2318
-2.71051e-20 -0.0084775 0.00406235 14.7234
0 -0.00754 0.005625 12.3004
0 0.009335 0.00119965 89.3515
0 0.0077725 0.0053125 17.0474
0 -0.009415 2.40065e-09 951.19
2.71051e-20 0.0052725 0.0078125 13.0644
1.75985e-20 -0.009415 0.000584716 557.608
-5.42101e-20 0.0090225 0.00280426 26.3415
1.12944e-20 0.00121 0.009375 11.7976
-2.69014e-20 -0.00129 0.009375 11.4347
0 -0.0053525 0.0078125 11.1483
-5.42101e-20 0.0027725 0.0090625 12.0906
-5.42101e-20 -0.0078525 0.0053125 12.5939
0 0.00871 0.00374969 22.0337
-2.9278e-20 -0.009415 0.00119965 101.429
0 -0.0028525 0.0090625 11.2483
-3.2882e-21 0.00371 0.00875 12.3451
4.20678e-20 0.008085 0.005 17.9501
1.29247e-26 0.009335 0.00184143 37.1693
-1.4349e-20 0.00496 0.008125 12.8444