# p  POINT_DATA 49517
# x  y  z  p
-3.4047e-09 0 0 0.0135891
3.99952e-05 0 0 0.013595
-4.00019e-05 6.77626e-21 0 0.0135833
3.99954e-05 0 3.74205e-05 0.013595
-4.00018e-05 0 3.74205e-05 0.0135833
0.000312499 -2.71051e-20 0.000292358 0.0136353
-0.000312502 2.71051e-20 0.000292358 0.0135429
0.000584999 -6.77626e-21 0 0.0136715
-0.000585005 0 0 0.0135004
-1.06408e-09 2.25875e-21 0.000585361 0.0135771
0.000584999 0 3.74206e-05 0.0136715
-0.000585005 0 3.74204e-05 0.0135004
0.000624998 6.77626e-21 0 0.0136767
-0.000625003 6.77626e-21 0 0.0134942
0.000664997 0 0 0.0136819
-0.000665001 0 0 0.013488
0.000664997 6.77626e-21 3.74206e-05 0.0136819
-0.000665001 0 3.74204e-05 0.013488
0.000625 2.25875e-21 0.000585361 0.0136643
-0.000625001 2.25875e-21 0.000585362 0.0134828
0.0003125 0 0.000892183 0.0136106
-0.0003125 0 0.000892183 0.0135194
0.0009375 -2.71051e-20 0.000292358 0.0137181
-0.000937501 -2.71051e-20 0.000292359 0.0134455
-2.44748e-10 3.38813e-21 0.00120022 0.0135298
0.00121 6.77626e-21 0 0.013748
-0.00121 0 0 0.0134024
0.00121 0 3.74205e-05 0.013748
-0.00121 0 3.74203e-05 0.0134024
0.00125 0 0 0.0137522
-0.00125 0 0 0.0133961
-0.00129 0 0 0.0133898
0.00129 0 0 0.0137565
-0.00129 0 3.74202e-05 0.0133898
0.00129 -6.77626e-21 3.74205e-05 0.0137565
0.0009375 0 0.000892183 0.0136929
-0.0009375 0 0.000892184 0.0134232
0.000625 -1.12938e-21 0.00120022 0.0136156
-0.000625 1.12938e-21 0.00120022 0.0134377
0.00125 -1.12938e-21 0.000585361 0.0137397
-0.00125 2.25875e-21 0.000585362 0.0133852
0.0003125 2.71051e-20 0.00152054 0.0135386
-0.0003125 0 0.00152054 0.0134499
-0.0015625 0 0.000292358 0.0133466
0.0015625 0 0.000292358 0.0137863
0.00125 0 0.00120022 0.0136905
-0.00125 1.12938e-21 0.00120022 0.0133428
0.0009375 2.71051e-20 0.00152054 0.0136193
-0.0009375 2.71051e-20 0.00152054 0.0133575
0.0015625 2.71051e-20 0.000892183 0.0137611
-0.0015625 0 0.000892183 0.0133253
0.001835 0 0 0.0138071
-0.001835 0 0 0.0133043
0.001835 -6.77626e-21 3.74205e-05 0.0138071
-0.001835 0 3.74201e-05 0.0133043
-4.00486e-11 0 0.0018415 0.0134531
0.001875 0 0 0.0138099
-0.001875 0 0 0.013298
-0.001915 -6.77626e-21 0 0.0132918
0.001915 6.77626e-21 0 0.0138129
-0.001915 0 3.74201e-05 0.0132918
0.001915 0 3.74206e-05 0.0138129
0.000625 0 0.0018415 0.0135371
-0.000625 0 0.0018415 0.0133637
-0.001875 1.12938e-21 0.000585361 0.0132876
0.001875 -1.12938e-21 0.000585362 0.0137977
0.0015625 -2.71051e-20 0.00152054 0.0136876
-0.0015625 0 0.00152054 0.0132645
0.0003125 2.71051e-20 0.002164 0.0134554
-0.0003125 0 0.002164 0.0133684
0.0021875 0 0.000292358 0.0138337
-0.0021875 -2.71051e-20 0.000292358 0.0132494
0.00125 0 0.0018415 0.0136115
-0.00125 0 0.0018415 0.0132724
-0.001875 0 0.00120022 0.0132481
0.001875 0 0.00120022 0.0137492
0.0009375 0 0.002164 0.0135352
-0.0009375 0 0.002164 0.0132788
-0.0021875 5.42101e-20 0.000892183 0.0132287
0.0021875 -2.71051e-20 0.000892183 0.0138093
0.00246 0 0 0.0138431
-0.00246 6.77626e-21 0 0.0132088
0.00246 -6.77626e-21 3.74204e-05 0.0138431
-0.00246 0 3.74198e-05 0.0132088
-1.78244e-12 0 0.00248636 0.0133671
-0.0025 0 0 0.0132028
0.0025 6.77626e-21 0 0.0138443
-0.00254 0 0 0.0131968
0.00254 0 0 0.0138456
-0.00254 0 3.74198e-05 0.0131968
0.00254 0 3.74204e-05 0.0138456
0.000625 1.12938e-21 0.00248636 0.0134489
-0.000625 -2.25875e-21 0.00248636 0.0132805
-0.0025 0 0.000585362 0.0131925
0.0025 1.12938e-21 0.000585362 0.0138326
0.001875 2.25875e-21 0.0018415 0.0136713
-0.001875 0 0.0018415 0.0131817
0.0021875 -2.71051e-20 0.00152054 0.0137378
-0.0021875 0 0.00152054 0.0131731
0.0015625 0 0.002164 0.0136037
-0.0015625 0 0.002164 0.0131887
-0.0025 -1.12938e-21 0.00120022 0.0131557
0.0025 0 0.00120022 0.0137861
0.00125 -1.12938e-21 0.00248636 0.013522
-0.00125 -2.25875e-21 0.00248636 0.0131924
0.0003125 0 0.00280426 0.0133643
-0.0003125 0 0.00280426 0.0132808
0.0028125 0 0.000292358 0.0138551
-0.0028125 2.71051e-20 0.000292358 0.0131561
-0.0028125 0 0.000892183 0.0131355
0.0028125 -5.42101e-20 0.000892183 0.013832
0.0009375 -2.71051e-20 0.00280426 0.0134413
-0.0009375 5.42101e-20 0.00280426 0.0131943
0.0021875 -2.71051e-20 0.002164 0.0136561
-0.0021875 -2.71051e-20 0.002164 0.0131005
0.003085 -6.77626e-21 0 0.0138516
-0.003085 6.77626e-21 0 0.013118
0.003085 0 3.742e-05 0.0138516
-0.003085 0 3.74189e-05 0.013118
-0.0025 0 0.0018415 0.0130937
0.0025 4.51751e-21 0.0018415 0.0137113
0.001875 0 0.00248636 0.0135824
-0.001875 -1.12938e-21 0.00248636 0.0131052
1.03657e-12 1.12938e-21 0.00312179 0.0132759
0.003125 0 0 0.0138508
-0.003125 0 0 0.0131124
-0.003165 6.77626e-21 0 0.0131068
0.003165 0 -2.03573e-120 0.0138502
-0.003165 0 3.74187e-05 0.0131068
0.003165 0 3.74199e-05 0.0138502
0.003125 1.12938e-21 0.000585361 0.0138398
-0.003125 -1.12938e-21 0.000585362 0.0131021
0.000625 1.12938e-21 0.00312179 0.0133543
-0.000625 -1.12938e-21 0.00312179 0.0131933
0.0028125 2.71051e-20 0.00152054 0.0137644
-0.0028125 0 0.00152054 0.0130848
0.0015625 5.42101e-20 0.00280426 0.0135085
-0.0015625 5.42101e-20 0.00280426 0.013108
-0.003125 -1.12938e-21 0.00120022 0.0130676
0.003125 1.12938e-21 0.00120022 0.0137962
0.00125 -1.12938e-21 0.00312179 0.0134252
-0.00125 -2.25875e-21 0.00312179 0.0131094
-0.0034375 2.71051e-20 0.000292358 0.0130686
0.0034375 -2.71051e-20 0.000292358 0.0138467
-0.0003125 5.42101e-20 0.00343582 0.01319
0.0003125 5.42101e-20 0.00343582 0.0132691
0.0025 2.25875e-21 0.00248636 0.0136252
-0.0025 0 0.00248636 0.013021
0.0028125 0 0.002164 0.0136869
-0.0028125 0 0.002164 0.0130161
0.0034375 -5.42101e-20 0.000892183 0.013825
-0.0034375 -2.71051e-20 0.000892183 0.0130478
-0.0021875 2.71051e-20 0.00280426 0.013024
0.0021875 2.71051e-20 0.00280426 0.0135617
0.0009375 2.71051e-20 0.00343582 0.013343
-0.0009375 2.71051e-20 0.00343582 0.0131084
0.003125 3.38813e-21 0.0018415 0.0137264
-0.003125 0 0.0018415 0.0130099
0.001875 -1.12938e-21 0.00312179 0.0134852
-0.001875 -2.25875e-21 0.00312179 0.0130265
0.00371 -6.77626e-21 -2.03454e-120 0.0138304
-0.00371001 0 0 0.0130336
0.00371 6.77626e-21 3.74192e-05 0.0138304
-0.00371001 0 3.74168e-05 0.0130336
1.9146e-13 2.25875e-21 0.00374964 0.0131834
-0.00375 0 0 0.0130284
0.00375 0 -4.07022e-120 0.0138278
-0.0034375 0 0.00152054 0.0130015
0.0034375 2.71051e-20 0.00152054 0.0137625
0.0015625 -5.42101e-20 0.00343582 0.0134084
-0.0015625 0 0.00343582 0.0130269
-0.00378999 0 0 0.0130233
0.00379 0 -2.94944e-110 0.0138252
-0.00378999 0 3.74165e-05 0.0130233
0.00379 0 3.74192e-05 0.0138252
-0.00375 3.38813e-21 0.000585362 0.0130179
0.00375 -2.25875e-21 0.000585361 0.0138171
-0.000625 1.12938e-21 0.00374964 0.0131052
0.000625 1.12938e-21 0.00374964 0.0132582
-0.00375 0 0.00120022 0.0129853
0.00375 2.25875e-21 0.00120022 0.0137767
0.00125 0 0.00374964 0.0133269
-0.00125 -1.12938e-21 0.00374964 0.013026
0.0028125 2.71051e-20 0.00280426 0.0135967
-0.0028125 -2.71051e-20 0.00280426 0.0129438
0.003125 0 0.00248636 0.013646
-0.003125 1.12938e-21 0.00248636 0.0129413
0.0025 0 0.00312179 0.0135305
-0.0025 -2.25875e-21 0.00312179 0.0129466
-0.0034375 0 0.002164 0.0129371
0.0034375 0 0.002164 0.0136917
-0.0040625 0 0.000292359 0.0129882
0.0040625 0 0.000292358 0.0138088
0.0021875 -5.42101e-20 0.00343582 0.0134624
-0.0021875 -2.71051e-20 0.00343582 0.0129473
-0.0003125 2.71051e-20 0.00406234 0.0130998
0.0003125 5.42101e-20 0.00406235 0.013175
-0.00406249 -2.71051e-20 0.000892184 0.0129668
0.0040625 0 0.000892183 0.0137877
0.0009375 2.71051e-20 0.00406235 0.0132459
-0.0009375 2.71051e-20 0.00406235 0.0130228
-0.00375 2.25875e-21 0.0018415 0.0129318
0.00375 2.25875e-21 0.0018415 0.0137133
0.001875 1.12938e-21 0.00374964 0.0133867
-0.001875 -3.38813e-21 0.00374964 0.0129478
-0.004335 0 0 0.0129565
0.004335 0 -2.29728e-110 0.013782
-0.004335 -6.77626e-21 3.74136e-05 0.0129565
0.004335 0 3.74187e-05 0.013782
-0.0040625 0 0.00152054 0.0129245
0.0040625 5.42101e-20 0.00152054 0.013731
0.0015625 2.71051e-20 0.00406235 0.0133103
-0.0015625 0 0.00406235 0.012946
-0.00437499 0 0 0.0129518
-6.8232e-15 2.25875e-21 0.00437499 0.0130934
0.004375 0 -5.24668e-110 0.013778
-0.00437499 1.12938e-21 0.000585364 0.0129412
0.004375 -2.25875e-21 0.000585362 0.0137673
-0.00441498 -6.77626e-21 0 0.0129471
0.004415 -6.77626e-21 -5.072e-102 0.013774
-0.00441498 -6.77626e-21 3.74134e-05 0.0129471
0.004415 0 3.74187e-05 0.013774
0.003125 -1.12938e-21 0.00312179 0.0135574
-0.003125 0 0.00312179 0.0128712
-0.000625 1.12938e-21 0.00437499 0.013019
0.000625 0 0.00437499 0.0131653
0.0034375 5.42101e-20 0.00280426 0.0136091
-0.0034375 0 0.00280426 0.0128686
0.0028125 2.71051e-20 0.00343582 0.0135016
-0.0028125 -2.71051e-20 0.00343582 0.0128717
0.00375 0 0.00248636 0.0136411
-0.00375 0 0.00248636 0.0128673
0.0025 1.12938e-21 0.00374964 0.0134349
-0.0025 -4.51751e-21 0.00374964 0.0128724
-0.00437499 -1.12938e-21 0.00120022 0.0129101
0.004375 -3.38813e-21 0.00120022 0.0137296
-0.00125 -2.25875e-21 0.00437499 0.0129441
0.00125 -2.25875e-21 0.00437499 0.0132326
0.0040625 2.71051e-20 0.002164 0.0136679
-0.0040625 2.71051e-20 0.002164 0.0128642
0.0021875 0 0.00406235 0.0133656
-0.0021875 0 0.00406235 0.0128712
-0.00468748 0 0.00029236 0.0129154
0.0046875 2.71051e-20 0.000292358 0.0137471
0.0003125 2.71051e-20 0.0046875 0.0130856
-0.0003125 2.71051e-20 0.0046875 0.0130133
-0.004375 -2.25875e-21 0.0018415 0.0128605
0.004375 0 0.0018415 0.0136727
0.001875 -1.12938e-21 0.00437499 0.013293
-0.001875 -3.38813e-21 0.00437499 0.0128705
-0.00468748 0 0.000892187 0.012894
0.0046875 5.42101e-20 0.000892183 0.0137254
0.0009375 -2.71051e-20 0.0046875 0.0131549
-0.0009375 -5.42101e-20 0.0046875 0.0129401
0.0034375 2.71051e-20 0.00343582 0.0135225
-0.0034375 -5.42101e-20 0.00343582 0.0128009
0.00375 -1.12938e-21 0.00312179 0.0135625
-0.00375 1.12938e-21 0.00312179 0.0128012
0.003125 -1.12938e-21 0.00374964 0.0134684
-0.003125 -2.25875e-21 0.00374964 0.0128013
-0.00468749 -2.71051e-20 0.00152054 0.0128547
0.0046875 5.42101e-20 0.00152054 0.0136738
0.0040625 0 0.00280426 0.0135961
-0.0040625 2.71051e-20 0.00280426 0.0127997
0.0028125 -5.42101e-20 0.00406234 0.0134099
-0.0028125 -2.71051e-20 0.00406235 0.0127997
0.0015625 -2.71051e-20 0.0046875 0.0132193
-0.0015625 2.71051e-20 0.0046875 0.0128676
-0.00495999 0 0 0.0128872
0.00496 0 -7.91671e-102 0.0137145
-0.00495999 0 3.74085e-05 0.0128872
0.00496 0 3.74184e-05 0.0137145
-0.00499997 -6.77626e-21 0 0.012883
0.005 6.77626e-21 -1.29887e-101 0.0137097
-9.80318e-15 1.12938e-21 0.005 0.013009
-0.004375 0 0.00248636 0.0128
0.004375 1.12938e-21 0.00248636 0.01361
-0.00499996 -2.25875e-21 0.000585368 0.0128728
0.005 0 0.000585362 0.0136986
0.0025 0 0.00437499 0.0133446
-0.0025 -3.38813e-21 0.00437499 0.0127995
0.000625 0 0.005 0.0130791
-0.000625 0 0.005 0.0129375
-0.00503995 0 0 0.0128788
0.00504 0 -1.90073e-97 0.0137049
-0.00503995 0 3.7408e-05 0.0128788
0.00504 0 3.74184e-05 0.0137049
-0.00499997 1.12938e-21 0.00120022 0.0128431
0.005 4.51751e-21 0.00120022 0.0136627
0.00125 -2.25875e-21 0.005 0.0131459
-0.00125 -2.25875e-21 0.005 0.0128661
-0.0046875 2.71051e-20 0.002164 0.0127984
0.0046875 2.71051e-20 0.002164 0.0136182
0.0021875 -2.71051e-20 0.0046875 0.0132769
-0.0021875 2.71051e-20 0.0046875 0.0127972
0.00375 -2.25875e-21 0.00374964 0.0134844
-0.00375 -1.12938e-21 0.00374964 0.0127356
-0.00531242 2.71051e-20 0.000292364 0.0128506
0.0053125 -2.71051e-20 0.000292359 0.0136723
0.0040625 2.71051e-20 0.00343582 0.0135225
-0.0040625 2.71051e-20 0.00343582 0.012736
0.0034375 0 0.00406234 0.0134399
-0.0034375 2.71051e-20 0.00406235 0.0127332
0.0003125 -2.71051e-20 0.0053125 0.0130037
-0.0003125 2.71051e-20 0.0053125 0.0129334
-0.00499999 0 0.0018415 0.0127965
0.005 2.25875e-21 0.0018415 0.0136116
0.001875 -2.25875e-21 0.005 0.0132077
-0.001875 -3.38813e-21 0.005 0.0127964
0.004375 -1.12938e-21 0.00312179 0.0135441
-0.004375 0 0.00312179 0.0127377
0.003125 -1.12938e-21 0.00437499 0.0133851
-0.003125 -3.38813e-21 0.00437499 0.0127326
-0.00531243 0 0.000892195 0.0128308
0.0053125 5.42101e-20 0.000892183 0.0136492
-0.0009375 -5.42101e-20 0.0053125 0.012863
0.0009375 2.71051e-20 0.0053125 0.0130721
-0.0046875 0 0.00280426 0.0127379
0.0046875 -2.71051e-20 0.00280426 0.0135583
0.0028125 2.71051e-20 0.0046875 0.0133261
-0.0028125 5.42101e-20 0.0046875 0.0127301
-0.00531247 -5.42101e-20 0.00152055 0.0127924
0.0053125 -2.71051e-20 0.00152054 0.0136019
0.0015625 0 0.0053125 0.0131373
-0.0015625 2.71051e-20 0.0053125 0.0127938
-0.005 -1.12938e-21 0.00248636 0.0127399
0.005 1.12938e-21 0.00248636 0.0135579
-0.00558491 6.77626e-21 0 0.0128263
0.005585 0 -1.29247e-96 0.0136392
-0.00558491 0 3.73997e-05 0.0128263
0.005585 0 3.74183e-05 0.0136392
0.0025 -1.12938e-21 0.005 0.0132628
-0.0025 -2.25875e-21 0.005 0.0127295
-0.00562488 6.77626e-21 0 0.0128226
0.005625 0 -1.48253e-96 0.0136344
-9.80318e-15 1.12938e-21 0.005625 0.0129324
-0.00562487 1.12938e-21 0.000585377 0.0128133
0.005625 2.25875e-21 0.000585362 0.0136227
0.000625 0 0.005625 0.0130013
-0.000625 -1.12938e-21 0.005625 0.0128629
-0.00566484 6.77626e-21 0 0.012819
-0.00566484 6.77626e-21 3.73996e-05 0.012819
0.005665 0 5.52555e-89 0.0136296
0.005665 6.77626e-21 3.74183e-05 0.0136296
-0.00531249 0 0.002164 0.0127403
0.0053125 0 0.002164 0.0135523
0.0040625 -5.42101e-20 0.00406234 0.0134529
-0.0040625 -5.42101e-20 0.00406234 0.0126724
0.0021875 2.71051e-20 0.0053125 0.0131974
-0.0021875 5.42101e-20 0.0053125 0.012727
-0.00562493 -4.51751e-21 0.00120023 0.0127848
0.005625 0 0.00120022 0.0135883
0.004375 -1.12938e-21 0.00374964 0.0134804
-0.004375 -1.12938e-21 0.00374964 0.0126759
0.00375 -1.12938e-21 0.00437499 0.0134118
-0.00375 -1.12938e-21 0.00437499 0.0126708
0.00125 -2.25875e-21 0.005625 0.0130681
-0.00125 -2.25875e-21 0.005625 0.0127942
-0.0046875 -5.42101e-20 0.00343582 0.0126775
0.0046875 -5.42101e-20 0.00343582 0.0134999
0.0034375 2.71051e-20 0.0046875 0.0133647
-0.0034375 0 0.0046875 0.0126675
-0.005 0 0.00312179 0.0126813
0.005 0 0.00312179 0.013505
0.003125 -1.12938e-21 0.005 0.0133098
-0.003125 -2.25875e-21 0.005 0.0126666
-0.00562497 2.25875e-21 0.00184151 0.0127405
0.005625 0 0.0018415 0.0135423
0.001875 -2.25875e-21 0.005625 0.0131314
-0.001875 -2.25875e-21 0.005625 0.0127276
-0.00593726 -2.71051e-20 0.000292374 0.0127947
0.0059375 2.71051e-20 0.000292358 0.0135966
0.0003125 0 0.0059375 0.0129306
-0.0003125 0 0.0059375 0.0128617
-0.00593732 2.71051e-20 0.000892214 0.0127769
0.0059375 2.71051e-20 0.000892183 0.0135723
-0.0053125 0 0.00280426 0.0126835
0.0053125 0 0.00280426 0.0135031
0.0028125 -2.71051e-20 0.0053125 0.0132511
-0.0028125 2.71051e-20 0.0053125 0.0126638
-0.0009375 -2.71051e-20 0.0059375 0.0127933
0.0009375 5.42101e-20 0.0059375 0.0129987
-0.00593741 0 0.00152056 0.0127387
0.0059375 -2.71051e-20 0.00152054 0.0135293
0.0015625 -2.71051e-20 0.0059375 0.0130643
-0.0015625 2.71051e-20 0.0059375 0.0127267
-0.00562499 0 0.00248636 0.0126877
0.005625 0 0.00248636 0.0134963
0.0025 -2.25875e-21 0.005625 0.0131899
-0.0025 -1.12938e-21 0.005625 0.0126641
0.004375 -1.12938e-21 0.00437499 0.0134221
-0.004375 -1.12938e-21 0.00437499 0.0126149
0.0046875 2.71051e-20 0.00406235 0.0134464
-0.0046875 2.71051e-20 0.00406235 0.0126179
0.0040625 0 0.0046875 0.0133899
-0.0040625 2.71051e-20 0.0046875 0.0126101
-0.00620969 0 0 0.0127743
-0.00620969 0 3.73858e-05 0.0127743
0.00621 0 1.1344e-88 0.0135674
0.00621 0 3.74185e-05 0.0135674
-0.00624963 6.77626e-21 0 0.0127712
-0.005 0 0.00374964 0.012623
0.005 0 0.00374964 0.0134566
0.00375 -1.12938e-21 0.005 0.0133464
-0.00375 -1.12938e-21 0.005 0.0126084
0.00625 -6.77626e-21 1.68696e-88 0.0135632
-9.8031e-15 0 0.00625 0.0128645
-0.00624966 1.12938e-21 0.000585395 0.0127629
0.00625 1.12938e-21 0.000585362 0.013551
0.000625 -1.12938e-21 0.00625 0.0129325
-0.000625 -1.12938e-21 0.00625 0.0127967
-0.00628955 6.77626e-21 0 0.0127682
-0.00628956 6.77626e-21 3.73863e-05 0.0127682
0.00629 0 8.83963e-84 0.013559
0.00629 -6.77626e-21 3.74186e-05 0.013559
-0.00593747 -2.71051e-20 0.00216401 0.0126904
0.0059375 -2.71051e-20 0.002164 0.0134854
-0.0053125 -2.71051e-20 0.00343582 0.0126264
0.0053125 2.71051e-20 0.00343582 0.0134588
0.0034375 0 0.0053125 0.0132972
-0.0021875 2.71051e-20 0.0059375 0.0126629
-0.0034375 2.71051e-20 0.0053125 0.0126049
0.0021875 5.42101e-20 0.0059375 0.0131266
-0.00624982 -1.12938e-21 0.00120025 0.0127357
0.00625 1.12938e-21 0.00120022 0.0135185
-0.00125 -1.12938e-21 0.00625 0.0127301
0.00125 -3.38813e-21 0.00625 0.0129993
-0.005625 1.12938e-21 0.00312179 0.0126324
0.005625 0 0.00312179 0.0134546
0.003125 -3.38813e-21 0.005625 0.0132426
-0.003125 0 0.005625 0.0126047
-0.00624994 0 0.00184152 0.0126933
0.00625 0 0.0018415 0.0134775
0.001875 -2.25875e-21 0.00625 0.013064
-0.001875 -1.12938e-21 0.00625 0.012666
-0.00593749 2.71051e-20 0.00280426 0.0126369
0.0059375 5.42101e-20 0.00280426 0.0134447
-0.00656187 0 0.000292393 0.0127477
0.0065625 2.71051e-20 0.000292358 0.0135297
0.0003125 -5.42101e-20 0.0065625 0.0128667
-0.0028125 2.71051e-20 0.0059375 0.0126028
0.0028125 5.42101e-20 0.0059375 0.0131845
-0.0003125 2.71051e-20 0.0065625 0.0127991
-0.00656205 2.71051e-20 0.00089225 0.0127321
0.0065625 0 0.000892183 0.013505
0.0009375 0 0.0065625 0.0129341
-0.0009375 5.42101e-20 0.0065625 0.0127325
0.0046875 2.71051e-20 0.0046875 0.0133993
-0.0046875 2.71051e-20 0.0046875 0.0125591
0.005 -2.25875e-21 0.00437499 0.0134146
-0.005 -1.12938e-21 0.00437499 0.0125655
0.004375 -1.12938e-21 0.005 0.0133702
-0.004375 -1.12938e-21 0.005 0.0125559
0.0053125 0 0.00406234 0.0134213
-0.0053125 2.71051e-20 0.00406235 0.0125702
0.0040625 0 0.0053125 0.0133336
-0.0040625 2.71051e-20 0.0053125 0.0125512
-0.00624999 2.25875e-21 0.00248637 0.0126437
0.00625 0 0.00248636 0.0134384
0.0025 -1.12938e-21 0.00625 0.0131256
-0.0025 -1.12938e-21 0.00625 0.0126053
-0.00656229 -2.71051e-20 0.00152059 0.0126948
0.0065625 2.71051e-20 0.00152054 0.0134668
-0.0015625 0 0.0065625 0.012668
0.0015625 5.42101e-20 0.0065625 0.0130004
0.005625 0 0.00374964 0.01342
-0.005625 0 0.00374964 0.0125773
0.00375 -2.25875e-21 0.005625 0.0132881
-0.00375 0 0.005625 0.0125501
-0.00683411 0 0 0.0127313
-0.00683412 6.77626e-21 3.73639e-05 0.0127313
0.006835 0 -9.79174e-82 0.013506
0.006835 -6.77626e-21 3.74189e-05 0.013506
0.0059375 2.71051e-20 0.00343582 0.013412
-0.0059375 2.71051e-20 0.00343582 0.012583
0.0034375 5.42101e-20 0.0059375 0.0132375
-0.0034375 2.71051e-20 0.0059375 0.0125473
-0.006874 0 0 0.0127288
-9.79465e-15 0 0.006875 0.0128056
0.006875 -6.77626e-21 -9.70334e-82 0.0135026
-0.00687415 0 0.000585427 0.0127217
0.006875 2.25875e-21 0.000585361 0.0134908
0.000625 0 0.006875 0.0128727
-0.000625 0 0.006875 0.0127393
-0.00656243 0 0.00216402 0.0126492
0.0065625 2.71051e-20 0.002164 0.0134284
-0.00691384 0 0 0.0127264
-0.00691386 6.77626e-21 3.73655e-05 0.0127264
0.006915 -6.77626e-21 -7.6246e-75 0.0134992
0.006915 6.77626e-21 3.74191e-05 0.0134992
0.0021875 2.71051e-20 0.0065625 0.0130647
-0.0021875 5.42101e-20 0.0065625 0.0126066
-0.00687455 -2.25875e-21 0.00120029 0.0126961
0.006875 1.12938e-21 0.00120022 0.0134608
-0.00625 2.25875e-21 0.00312179 0.0125914
0.00625 -1.12938e-21 0.00312179 0.013406
0.00125 -1.12938e-21 0.006875 0.0129396
-0.00125 -1.12938e-21 0.006875 0.0126746
0.003125 -2.25875e-21 0.00625 0.0131836
-0.003125 0 0.00625 0.0125488
0.005 -2.25875e-21 0.005 0.0133791
-0.005 -1.12938e-21 0.005 0.0125097
-0.0053125 0 0.0046875 0.0125148
0.0046875 0 0.0053125 0.0133582
0.0053125 0 0.0046875 0.0133913
-0.0046875 2.71051e-20 0.0053125 0.0125032
-0.00687483 1.12938e-21 0.00184153 0.0126552
0.006875 1.12938e-21 0.0018415 0.0134246
0.005625 -1.12938e-21 0.00437499 0.0133932
-0.005625 -2.25875e-21 0.00437499 0.012523
0.004375 0 0.005625 0.0133247
0.001875 -1.12938e-21 0.006875 0.0130056
-0.001875 -3.38813e-21 0.006875 0.0126127
-0.004375 -1.12938e-21 0.005625 0.0125007
-0.00656249 0 0.00280427 0.0125986
0.0065625 -5.42101e-20 0.00280426 0.0133955
-0.0028125 -2.71051e-20 0.0065625 0.012549
0.0028125 2.71051e-20 0.0065625 0.0131267
-0.00718596 5.42101e-20 0.000292431 0.01271
0.0071875 5.42101e-20 0.000292358 0.0134754
0.0059375 -5.42101e-20 0.00406235 0.0133879
-0.0059375 -2.71051e-20 0.00406235 0.0125297
0.0003125 -5.42101e-20 0.0071875 0.0128116
0.0040625 2.71051e-20 0.0059375 0.0132842
-0.0040625 2.71051e-20 0.0059375 0.0124968
-0.0003125 2.71051e-20 0.0071875 0.0127452
-0.00718646 -2.71051e-20 0.000892308 0.0126967
0.0071875 0 0.000892183 0.0134528
0.0009375 -2.71051e-20 0.0071875 0.0128786
-0.0009375 2.71051e-20 0.0071875 0.0126803
0.00625 0 0.00374964 0.0133822
-0.00625 0 0.00374964 0.0125392
0.00375 0 0.00625 0.0132371
-0.00375 0 0.00625 0.0124971
-0.00687497 -2.25875e-21 0.00248637 0.0126082
0.006875 0 0.00248636 0.0133919
0.0025 -1.12938e-21 0.006875 0.01307
-0.0025 -3.38813e-21 0.006875 0.0125542
-0.00718701 2.71051e-20 0.00152063 0.0126603
0.0071875 -2.71051e-20 0.00152054 0.0134181
0.0015625 2.71051e-20 0.0071875 0.0129455
-0.0015625 2.71051e-20 0.0071875 0.0126178
-0.0065625 2.71051e-20 0.00343582 0.0125475
0.0065625 -5.42101e-20 0.00343582 0.0133719
0.0034375 0 0.0065625 0.0131856
-0.0034375 0 0.0065625 0.0124961
-0.00745778 -6.77626e-21 0 0.0126975
-0.0074578 -6.77626e-21 3.73274e-05 0.0126975
0.00746 0 -2.76121e-73 0.0134571
0.00746 0 3.74195e-05 0.0134571
-0.00749758 0 0 0.0126956
-9.72327e-15 0 0.0075 0.0127556
0.0075 6.77626e-21 -2.83746e-73 0.0134545
-0.00718734 2.71051e-20 0.00216404 0.0126166
0.0071875 -2.71051e-20 0.002164 0.0133852
0.0021875 0 0.0071875 0.0130117
-0.0021875 -2.71051e-20 0.0071875 0.0125584
-0.0053125 0 0.0053125 0.0124614
0.0053125 0 0.0053125 0.0133678
-0.00749809 -3.38813e-21 0.000585476 0.0126897
0.0075 0 0.000585362 0.0134447
0.000625 0 0.0075 0.012822
-0.005 -1.12938e-21 0.005625 0.0124572
-0.005625 -1.12938e-21 0.005 0.01247
-0.000625 0 0.0075 0.0126905
0.005 0 0.005625 0.0133495
0.005625 -1.12938e-21 0.005 0.0133738
-0.00753727 0 0 0.0126938
-0.00753733 6.77626e-21 3.73306e-05 0.0126938
0.00754 6.77626e-21 -1.47197e-66 0.0134519
0.00754 6.77626e-21 3.74196e-05 0.0134519
-0.006875 -2.25875e-21 0.00312179 0.0125586
0.006875 0 0.00312179 0.013367
0.003125 -1.12938e-21 0.006875 0.0131325
-0.003125 -1.12938e-21 0.006875 0.0125001
0.0046875 2.71051e-20 0.0059375 0.0133227
-0.0046875 -2.71051e-20 0.0059375 0.0124517
-0.0059375 5.42101e-20 0.0046875 0.0124773
0.0059375 -5.42101e-20 0.0046875 0.0133723
-0.00749898 2.25875e-21 0.00120033 0.0126659
0.0075 2.25875e-21 0.00120022 0.0134179
0.00125 0 0.0075 0.0128889
-0.00125 -1.12938e-21 0.0075 0.0126276
-0.00625 -2.25875e-21 0.00437499 0.0124876
0.00625 -1.12938e-21 0.00437499 0.0133671
-0.004375 -1.12938e-21 0.00625 0.0124507
0.004375 1.12938e-21 0.00625 0.013285
-0.00718747 -2.71051e-20 0.00280427 0.0125686
0.0071875 -2.71051e-20 0.00280426 0.0133588
-0.0065625 -5.42101e-20 0.00406235 0.0124966
0.0065625 0 0.00406235 0.0133571
0.0040625 0 0.0065625 0.0132412
-0.0028125 5.42101e-20 0.0071875 0.012503
0.0028125 2.71051e-20 0.0071875 0.0130769
-0.0040625 -5.42101e-20 0.0065625 0.0124483
-0.00749963 0 0.00184156 0.0126263
0.0075 2.25875e-21 0.0018415 0.0133855
0.001875 -2.25875e-21 0.0075 0.012956
-0.001875 -2.25875e-21 0.0075 0.0125675
-0.00780909 -2.71051e-20 0.000292497 0.0126813
0.0078125 0 0.000292359 0.0134336
0.0003125 0 0.0078125 0.0127655
-0.0003125 2.71051e-20 0.0078125 0.0127
-0.006875 0 0.00374964 0.0125089
0.006875 2.25875e-21 0.00374964 0.0133511
0.00375 2.25875e-21 0.006875 0.0131929
-0.00375 0 0.006875 0.0124508
-0.00781026 0 0.000892396 0.0126707
0.0078125 2.71051e-20 0.000892184 0.0134165
0.0009375 -5.42101e-20 0.0078125 0.0128322
-0.0009375 -5.42101e-20 0.0078125 0.0126365
-0.00749991 -3.38813e-21 0.00248637 0.0125812
0.0075 -1.12938e-21 0.00248636 0.0133578
0.0025 -4.51751e-21 0.0075 0.0130226
-0.0025 -3.38813e-21 0.0075 0.0125111
-0.005625 0 0.005625 0.0124202
0.005625 0 0.005625 0.0133604
-0.00781145 -5.42101e-20 0.00152068 0.0126354
0.0078125 -5.42101e-20 0.00152054 0.0133838
-0.0071875 0 0.00343582 0.01252
0.0071875 -2.71051e-20 0.00343582 0.0133418
0.0015625 -5.42101e-20 0.0078125 0.0128995
-0.0034375 0 0.0071875 0.0124522
0.0034375 2.71051e-20 0.0071875 0.013141
-0.0015625 -5.42101e-20 0.0078125 0.0125757
-0.0059375 -5.42101e-20 0.0053125 0.0124266
-0.0053125 2.71051e-20 0.0059375 0.0124126
0.0053125 2.71051e-20 0.0059375 0.0133493
0.00593751 0 0.00531251 0.0133639
-0.005 -1.12938e-21 0.00625 0.0124099
-0.00625 -1.12938e-21 0.005 0.0124375
0.005 0 0.00625 0.0133243
0.00625 -2.25875e-21 0.005 0.0133602
-0.0046875 2.71051e-20 0.0065625 0.012406
-0.0065625 2.71051e-20 0.0046875 0.012447
0.0046875 0 0.0065625 0.0132917
0.00656251 -2.71051e-20 0.00468751 0.0133513
-0.00808 0 0 0.0126728
-0.00808006 0 3.7256e-05 0.0126728
0.008085 0 -2.35512e-65 0.0134205
0.008085 0 3.74198e-05 0.0134205
-0.00781215 0 0.00216406 0.0125929
0.0078125 0 0.002164 0.0133548
0.0021875 2.71051e-20 0.0078125 0.0129671
-0.0021875 2.71051e-20 0.0078125 0.0125182
-0.00811962 0 0 0.0126714
-0.00749999 1.12938e-21 0.00312179 0.0125339
0.0075 0 0.00312179 0.0133382
0.003125 -2.25875e-21 0.0075 0.0130889
-9.44671e-15 -1.12938e-21 0.008125 0.0127144
-0.003125 -2.25875e-21 0.0075 0.0124589
0.008125 0 -2.50232e-65 0.0134187
-0.00812098 0 0.000585543 0.012667
0.008125 0 0.000585362 0.0134118
-0.006875 -1.12938e-21 0.00437499 0.0124598
0.006875 -3.38813e-21 0.00437499 0.0133439
0.000625 -1.12938e-21 0.008125 0.0127801
-0.004375 0 0.006875 0.0124069
-0.000625 -1.12938e-21 0.008125 0.0126504
0.004375 2.25875e-21 0.006875 0.0132502
-0.00815905 0 0 0.0126702
-0.0081592 -6.77626e-21 3.72601e-05 0.0126702
0.008165 0 -4.44406e-59 0.0134169
0.008165 0 3.74198e-05 0.0134169
-0.00812288 -1.12938e-21 0.00120037 0.0126452
0.008125 1.12938e-21 0.00120022 0.0133894
0.00125 -1.12938e-21 0.008125 0.012847
-0.00125 0 0.008125 0.0125889
-0.0071875 -2.71051e-20 0.00406235 0.0124715
0.00718751 -2.71051e-20 0.00406235 0.0133334
-0.0040625 2.71051e-20 0.0071875 0.0124066
0.0040625 0 0.0071875 0.0132037
-0.00781242 -2.71051e-20 0.00280427 0.0125469
0.0078125 0 0.00280426 0.0133326
0.0028125 2.71051e-20 0.0078125 0.0130348
-0.0028125 5.42101e-20 0.0078125 0.0124647
-0.0081242 0 0.00184158 0.0126067
0.008125 3.38813e-21 0.0018415 0.0133595
0.001875 -1.12938e-21 0.008125 0.0129147
-0.001875 -1.12938e-21 0.008125 0.0125305
-0.0075 1.12938e-21 0.00374964 0.0124865
0.0075 0 0.00374965 0.0133276
-0.00375 0 0.0075 0.0124117
0.00375 1.12938e-21 0.0075 0.0131546
-0.0059375 2.71051e-20 0.0059375 0.01238
0.00593755 -2.71051e-20 0.00593755 0.0133608
-0.005625 -1.12938e-21 0.00625 0.0123752
-0.00625 0 0.005625 0.0123899
0.00562501 1.12938e-21 0.00625001 0.0133508
0.00625002 -1.12938e-21 0.00562502 0.0133598
-0.00843052 0 0.0002926 0.0126616
0.0084375 -2.71051e-20 0.000292359 0.0134038
0.0003125 0 0.0084375 0.0127282
-0.0065625 -2.71051e-20 0.0053125 0.012399
-0.0053125 2.71051e-20 0.0065625 0.0123695
-0.0003125 2.71051e-20 0.0084375 0.0126637
0.00531253 -2.71051e-20 0.00656253 0.0133335
0.00656255 2.71051e-20 0.00531255 0.0133534
-0.00843304 0 0.000892502 0.012654
0.0084375 2.71051e-20 0.000892184 0.0133932
0.0009375 5.42101e-20 0.0084375 0.0127945
-0.0009375 2.71051e-20 0.0084375 0.0126014
-0.0081248 -1.12938e-21 0.00248638 0.0125628
0.008125 1.12938e-21 0.00248636 0.0133346
0.0025 -2.25875e-21 0.008125 0.012983
-0.005 0 0.006875 0.0123686
-0.006875 -1.12938e-21 0.005 0.0124121
-0.0025 -2.25875e-21 0.008125 0.0124758
0.005 -1.12938e-21 0.006875 0.0133019
0.00687503 0 0.00500003 0.0133451
-0.00781249 2.71051e-20 0.00343582 0.0125004
0.00781251 5.42101e-20 0.00343583 0.0133198
-0.0034375 -5.42101e-20 0.0078125 0.0124158
0.0034375 -2.71051e-20 0.0078125 0.0131028
-0.00843541 -2.71051e-20 0.00152073 0.0126201
0.0084375 -2.71051e-20 0.00152054 0.0133639
-0.0046875 -5.42101e-20 0.0071875 0.0123666
0.0015625 2.71051e-20 0.0084375 0.0128619
-0.0015625 2.71051e-20 0.0084375 0.012542
-0.0071875 0 0.0046875 0.0124241
0.00468751 -2.71051e-20 0.00718751 0.0132641
0.00718755 5.42101e-20 0.00468755 0.0133337
-0.0075 0 0.00437499 0.0124396
-0.004375 0 0.0075 0.0123698
0.004375 2.25875e-21 0.0075 0.0132194
0.00750003 -4.51751e-21 0.00437502 0.0133254
-0.00869981 -6.77626e-21 0 0.0126568
-0.00869995 0 3.70995e-05 0.0126568
-0.00812497 2.25875e-21 0.00312179 0.0125173
0.008125 0 0.00312179 0.013318
-0.003125 -1.12938e-21 0.008125 0.0124255
0.003125 -1.12938e-21 0.008125 0.0130519
-0.00843682 0 0.00216404 0.0125782
0.00871 0 -4.42629e-59 0.0133954
0.00871 0 3.74198e-05 0.0133954
0.0084375 2.71051e-20 0.002164 0.0133357
0.0021875 0 0.0084375 0.0129303
-0.0021875 5.42101e-20 0.0084375 0.0124861
-0.00873908 0 0 0.012656
0.00875 0 -8.87035e-59 0.0133942
-8.81304e-15 -1.12938e-21 0.00875 0.012682
-0.00874218 0 0.00058561 0.0126531
0.00875 -1.12938e-21 0.000585362 0.0133905
0.000625 -2.25875e-21 0.00875 0.0127469
-0.000625 -1.12938e-21 0.00875 0.0126191
-0.00877807 0 0 0.0126553
-0.00877839 0 3.70983e-05 0.0126553
0.00879 6.77626e-21 -3.90613e-53 0.0133931
0.00879 6.77626e-21 3.74197e-05 0.0133931
-0.0078125 0 0.00406235 0.0124541
-0.0040625 2.71051e-20 0.0078125 0.0123721
0.00406251 0 0.0078125 0.013171
0.00781256 -2.71051e-20 0.00406241 0.0133152
-0.00874591 0 0.00120037 0.0126338
0.00875 -2.25875e-21 0.00120022 0.0133735
0.00125 -2.25875e-21 0.00875 0.0128136
-0.00125 0 0.00875 0.0125588
-0.00625 -1.12938e-21 0.00625 0.0123469
0.00625014 3.38813e-21 0.00625014 0.0133629
-0.0059375 -2.71051e-20 0.0065625 0.0123387
-0.0065625 2.71051e-20 0.0059375 0.0123541
0.00593771 2.71051e-20 0.00656271 0.0133598
0.00656276 -2.71051e-20 0.00593776 0.013361
-0.006875 0 0.005625 0.0123666
-0.005625 -1.12938e-21 0.006875 0.0123361
0.00562508 0 0.00687508 0.0133424
0.00687515 -3.38813e-21 0.00562515 0.0133529
-0.00843738 2.71051e-20 0.00280422 0.0125336
0.00843751 2.71051e-20 0.00280427 0.0133154
0.0028125 5.42101e-20 0.0084375 0.0129998
-0.0028125 0 0.0084375 0.0124344
-0.0053125 2.71051e-20 0.0071875 0.0123323
-0.0071875 0 0.0053125 0.0123783
0.00531262 0 0.00718762 0.0133184
0.00718777 -2.71051e-20 0.00531277 0.0133418
-0.0087485 1.12938e-21 0.00184148 0.0125962
0.00875 -1.12938e-21 0.0018415 0.0133459
-0.008125 2.25875e-21 0.00374965 0.0124719