# pMean  POINT_DATA 106151
# x  y  z  pMean
-4.1359e-25 -3.99951e-05 3.16101e-09 0.0135865
2.71051e-20 0.000272501 0.000292358 0.0136071
0 -0.000352501 0.000292358 0.0135659
0 0.000585006 3.53957e-09 0.0136273
-2.98592e-21 -4.00012e-05 0.000584717 0.0135745
-4.1359e-25 -0.000665001 2.56165e-09 0.013545
-3.7269e-20 0.000584999 0.000584718 0.0136153
1.20744e-20 -0.000665003 0.000584717 0.013533
-2.71051e-20 0.0002725 0.000892183 0.0135829
0 0.0008975 0.000292358 0.0136475
-2.71051e-20 -0.000352501 0.000892183 0.0135418
-2.71051e-20 -0.000977503 0.000292358 0.013524
1.48457e-20 -4.00004e-05 0.00119965 0.0135272
0 0.00121 3.50731e-09 0.0136673
0 0.0008975 0.000892183 0.0136233
0 -0.00129001 2.09341e-09 0.0135027
5.42101e-20 -0.000977501 0.000892183 0.0135
1.45291e-20 0.000585 0.00119965 0.0135679
-1.76826e-20 0.00121 0.000584718 0.0136552
2.76495e-20 -0.000665001 0.00119965 0.0134859
-2.9976e-21 -0.00129 0.000584716 0.0134908
-2.71051e-20 0.0002725 0.00152054 0.0135121
-2.71051e-20 0.0015225 0.000292358 0.0136871
2.71051e-20 -0.0003525 0.00152054 0.0134712
-2.71051e-20 -0.0016025 0.000292359 0.0134813
-3.68951e-20 0.00121 0.00119965 0.0136077
7.2724e-21 -0.00129 0.00119965 0.0134438
0 0.0015225 0.000892183 0.0136628
-2.71051e-20 0.0008975 0.00152054 0.0135522
5.42101e-20 -0.0009775 0.00152054 0.0134296
-2.71051e-20 -0.0016025 0.000892183 0.0134574
-4.1359e-25 0.001835 3.06809e-09 0.0137065
2.98176e-20 -4.00001e-05 0.00184143 0.0134505
0 -0.001915 1.91391e-09 0.0134596
-3.7419e-20 0.001835 0.000584717 0.0136944
-1.51435e-20 0.000585 0.00184143 0.013491
-1.69499e-20 -0.000665 0.00184143 0.0134092
0 -0.0015859 0.00119965 0.0134236
-1.3028e-20 -0.001915 0.000584717 0.0134478
2.71051e-20 0.0015225 0.00152054 0.0135917
2.71051e-20 0.0021475 0.000292358 0.0137259
2.71051e-20 0.0002725 0.002164 0.0134297
4.24379e-20 0.001835 0.00119965 0.0136468
0 -0.0003525 0.002164 0.0133889
2.39334e-20 0.00121 0.00184143 0.0135308
5.42101e-20 -0.0016025 0.00152054 0.0133873
-3.23117e-27 -0.001915 0.00114486 0.0134052
0 -0.0022275 0.000292358 0.0134379
-7.5191e-21 -0.00129 0.00184143 0.0133673
0 -0.001915 0.00119965 0.013401
2.71051e-20 0.0021475 0.000892183 0.0137015
-2.71051e-20 0.0008975 0.002164 0.0134699
-5.42101e-20 -0.0009775 0.002164 0.0133473
2.71051e-20 -0.0022275 0.000892183 0.0134141
0 0.00246 2.413e-09 0.0137448
2.70055e-20 -4e-05 0.00248657 0.0133645
0 0.00170405 0.00184143 0.0135617
2.50573e-20 0.00246 0.000584716 0.0137327
-2.52435e-29 0.000498562 0.00248657 0.0133993
0 -0.00254 1.92602e-09 0.0134158
0 0.000585 0.00248657 0.0134049
-1.09085e-20 -0.000665 0.00248657 0.0133234
0 0.001835 0.00180962 0.0135737
0 0.001835 0.00184143 0.0135699
-3.15267e-20 -0.00254 0.000584717 0.0134041
0 -0.001915 0.00177156 0.013333
5.42101e-20 0.0021475 0.00152054 0.0136304
2.71051e-20 0.0015225 0.002164 0.0135094
-3.43789e-21 -0.001915 0.00184143 0.0133247
-8.07794e-28 0.00121 0.00236845 0.0134604
-2.71051e-20 -0.0016025 0.002164 0.013305
0 -0.0022275 0.00152054 0.0133442
-7.76173e-21 0.00246 0.00119965 0.0136851
-1.27227e-26 0.00246659 0.00119965 0.0136855
6.05845e-28 0.00246 0.00121626 0.0136832
0 0.00121 0.00248657 0.0134446
0 0.0027725 0.000292358 0.0137638
3.79995e-20 -0.00129 0.00248657 0.0132816
-4.03897e-28 -0.00254 0.00119257 0.013358
0 -0.00254 0.00119965 0.0133575
0 0.0002725 0.00280426 0.0133402
0 -0.0003525 0.00280426 0.0132996
0 -0.00257145 0.00119965 0.0133553
1.00974e-28 -4e-05 0.00285213 0.013312
0 -0.00254 0.00130011 0.0133456
2.71051e-20 -0.0028525 0.000292359 0.0133938
-2.71051e-20 0.0027725 0.000892183 0.0137394
2.71051e-20 0.0008975 0.00280426 0.0133801
0 -0.0009775 0.00280426 0.0132584
0 -0.0028525 0.000892183 0.0133701
2.52435e-29 -0.000665 0.00296408 0.0132552
-2.71051e-20 0.0021475 0.002164 0.0135481
0 0.00246 0.00184143 0.0136083
0 0.003085 1.88212e-09 0.0137823
0 0.001835 0.00248657 0.0134836
2.71051e-20 -0.0022275 0.002164 0.0132622
2.01948e-28 -4e-05 0.00312195 0.0132733
0 -0.00254 0.00184143 0.0132814
6.7165e-21 -0.001915 0.00248657 0.0132392
8.50194e-21 0.003085 0.000584717 0.0137702
-2.71051e-20 0.0027725 0.00152054 0.0136682
0 -0.00316499 2.08701e-09 0.0133713
4.03897e-28 0.000585 0.00312195 0.0133134
2.71051e-20 0.0015225 0.00280426 0.0134194
5.04871e-29 -0.000665 0.00312195 0.0132326
1.29247e-26 0.003085 0.00085029 0.0137497
1.64712e-20 -0.003165 0.000584716 0.0133596
0 -0.0016025 0.00280426 0.0132164
2.52435e-29 -0.000832517 0.00312195 0.0132215
2.71051e-20 -0.0028525 0.00152054 0.0133006
0 0.003085 0.00119965 0.0137227
0 0.00121 0.00312195 0.0133528
1.00974e-28 -0.00129 0.00312195 0.0131913
1.06043e-20 -0.003165 0.00119965 0.0133133
0 0.0033975 0.000292358 0.0138009
6.46235e-27 0.00339584 0.000584717 0.0137885
0 0.0002725 0.00343582 0.013247
-2.71051e-20 -0.0003525 0.00343582 0.0132068
-2.71051e-20 -0.0034775 0.000292357 0.0133489
-3.23117e-27 0.00246 0.00248657 0.013522
5.42101e-20 0.0033975 0.000892183 0.0137765
0 0.0027725 0.002164 0.0135862
-2.71051e-20 0.0021475 0.00280426 0.013458
0 0.0008975 0.00343582 0.0132865
1.40858e-20 -0.00254 0.00248657 0.0131962
0 -0.0009775 0.00343582 0.0131661
0 -0.0028525 0.002164 0.0132187
2.71051e-20 -0.0022275 0.00280426 0.0131739
2.71051e-20 -0.0034775 0.000892183 0.0133254
2.58494e-26 0.003085 0.00184143 0.0136459
8.07794e-28 0.001835 0.00312195 0.0133916
2.88139e-20 -0.003165 0.00184143 0.0132375
3.13906e-20 -0.001915 0.00312195 0.0131493
2.06795e-25 0.00371 1.56018e-09 0.013819
0 0.0033975 0.00152054 0.0137053
2.52435e-29 -4e-05 0.00374969 0.0131809
1.29247e-26 0.00371 0.000548442 0.0138077
0 0.00371 0.000584717 0.0138069
2.71051e-20 0.0015225 0.00343582 0.0133255
-4.1359e-25 -0.00379 2.45568e-09 0.0133262
-2.71051e-20 -0.0016025 0.00343582 0.0131246
-5.04871e-29 0.000585 0.00374969 0.0132205
-2.71051e-20 -0.0034775 0.00152054 0.0132563
0 -0.000665 0.00374969 0.0131406
-2.31528e-20 -0.00379 0.000584717 0.0133145
6.31089e-30 -0.000919692 0.00374969 0.0131239
0 0.00371 0.00119965 0.0137594
0 0.00121 0.00374969 0.0132596
0 0.0027725 0.00280426 0.0134959
0 0.003085 0.00248657 0.0135596
7.35314e-21 -0.00129 0.00374969 0.0130997
0 0.00246 0.00312195 0.0134297
1.60395e-20 -0.00379 0.00119965 0.0132685
-2.71051e-20 -0.0028525 0.00280426 0.0131306
-1.04853e-20 -0.00254 0.00312195 0.0131066
-1.75764e-20 -0.003165 0.00248657 0.0131525
2.71051e-20 0.0033975 0.002164 0.0136235
0 0.0040225 0.000292358 0.0138371
2.71051e-20 0.0021475 0.00343582 0.0133637
0 0.0002725 0.00406235 0.0131547
-2.71051e-20 -0.0003525 0.00406234 0.0131149
0 -0.0022275 0.00343582 0.0130826
0 -0.0034775 0.002164 0.0131745
-2.71051e-20 -0.0041025 0.000292358 0.0133034
-5.42101e-20 0.0040225 0.000892183 0.0138128
0 0.00371 0.00184143 0.0136827
-2.71051e-20 0.0008975 0.00406235 0.0131939
0 0.001835 0.00374969 0.0132981
5.42101e-20 -0.0009775 0.00406235 0.0130746
-2.71051e-20 -0.0041025 0.000892183 0.01328
-3.6329e-20 -0.001915 0.00374969 0.0130582
1.25127e-21 -0.00379 0.00184143 0.013193
-5.42101e-20 0.0040225 0.00152054 0.0137417
-1.57772e-30 -0.000665 0.00428312 0.0130641
0 0.004335 1.3191e-09 0.0138548
-2.71051e-20 0.0015225 0.00406235 0.0132325
-1.57772e-30 -4e-05 0.00434127 0.0130957
2.58494e-26 0.004335 0.000495203 0.0138446
0 -0.0016025 0.00406235 0.0130336
0 0.004335 0.000584716 0.0138427
0 -4e-05 0.004375 0.0130909
2.71051e-20 -0.0041025 0.00152054 0.0132113
0 0.003085 0.00312195 0.0134671
-3.15544e-30 0.000585 0.00435525 0.0131331
-2.71051e-20 0.0033975 0.00280426 0.0135331
3.28992e-21 0.000585 0.004375 0.0131303
5.42101e-20 0.0027725 0.00343582 0.0134013
0 -0.004415 2.87774e-09 0.0132803
0 -0.000665 0.004375 0.0130509
-1.53468e-20 -0.003165 0.00312195 0.0130634
4.35583e-21 -0.004415 0.000584717 0.0132687
0 -0.0028525 0.00343582 0.0130399
-6.46235e-27 0.00371 0.00248657 0.0135965
2.71051e-20 -0.0034775 0.00280426 0.0130867
0 0.00246 0.00374969 0.0133359
0 0.004335 0.00119965 0.0137952
-7.88861e-30 0.00121 0.00436215 0.013171
2.52862e-20 -0.00254 0.00374969 0.0130161
2.2983e-20 -0.00379 0.00248657 0.0131082
0 0.00121 0.004375 0.0131691
4.20678e-20 -0.00129 0.004375 0.0130103
-5.42101e-20 0.0040225 0.002164 0.0136601
-2.62542e-20 -0.004415 0.00119965 0.0132229
0 0.0021475 0.00406235 0.0132705
2.71051e-20 -0.0022275 0.00406235 0.012992
0 -0.0041025 0.002164 0.0131298
0 0.0046475 0.000292358 0.0138724
0 0.0002725 0.0046875 0.0130667
-2.71051e-20 -0.0003525 0.0046875 0.0130271
0 0.004335 0.00184143 0.0137187
0 0.0046475 0.000892183 0.0138482
4.57539e-29 0.001835 0.00436526 0.0132088
-2.71051e-20 -0.0047275 0.000292358 0.0132572
0 0.001835 0.004375 0.0132074
5.42101e-20 0.0008975 0.0046875 0.0131058
4.20665e-20 -0.001915 0.004375 0.0129692
1.32554e-20 -0.004415 0.00184143 0.0131478
-5.42101e-20 -0.0009775 0.0046875 0.012987
0 -0.0047275 0.000892183 0.0132339
-2.71051e-20 0.0033975 0.00343582 0.0134383
1.61559e-27 0.00371 0.00312195 0.0135038
-1.00974e-28 0.003085 0.00374969 0.013373
2.71051e-20 -0.0034775 0.00343582 0.0129967
0 0.0046475 0.00152054 0.0137772
0 0.0040225 0.00280426 0.0135695
1.2266e-20 -0.003165 0.00374969 0.0129733
-1.0832e-20 -0.00379 0.00312195 0.0130195
2.71051e-20 0.0027725 0.00406234 0.0133079
-5.42101e-20 0.0015225 0.0046875 0.0131443
-5.42101e-20 -0.0016025 0.0046875 0.0129463
0 0.00496 1.18296e-09 0.0138896
2.71051e-20 -0.0028525 0.00406235 0.0129499
-2.71051e-20 -0.0047275 0.00152054 0.0131657
-2.71051e-20 -0.0041025 0.00280426 0.0130423
5.16988e-26 0.00496 0.000463542 0.0138801
5.16988e-26 0.00496 0.000584716 0.0138776
0 0.004335 0.00248657 0.0136326
4.20678e-20 -4e-05 0.005 0.0130065
-9.46633e-30 0.00246 0.00436629 0.0132463
0 0.00246 0.004375 0.0132451
3.28992e-21 0.000585 0.005 0.0130458
0 -0.00504 3.05741e-09 0.0132337
4.20678e-20 -0.000665 0.005 0.0129666
4.20653e-20 -0.00254 0.004375 0.0129275
-1.28302e-20 -0.004415 0.00248657 0.0130632
2.18913e-21 -0.00504 0.000584718 0.0132222
5.16988e-26 0.00496 0.00119965 0.0138302
0 0.0046475 0.002164 0.0136958
4.20678e-20 0.00121 0.005 0.0130846
5.42101e-20 0.0021475 0.0046875 0.0131823
4.20678e-20 -0.00129 0.005 0.0129263
-3.77329e-21 -0.00504 0.00119965 0.0131767
2.71051e-20 -0.0022275 0.0046875 0.0129051
0 -0.0047275 0.002164 0.0130843
0 0.00371 0.00374969 0.0134096
0 0.0052725 0.000292358 0.0139068
2.71051e-20 0.0040225 0.00343582 0.0134746
0 0.00496 0.00184143 0.013754
0 0.0033975 0.00406235 0.0133447
2.71051e-20 0.0002725 0.0053125 0.0129858
0 -0.0003525 0.0053125 0.0129463
4.20678e-20 0.001835 0.005 0.0131229
-1.46056e-20 -0.00379 0.00374969 0.01293
0 0.004335 0.00312195 0.0135398
-2.8399e-29 0.003085 0.00436659 0.0132834
-2.71051e-20 0.0052725 0.000892183 0.0138826
-2.71051e-20 -0.0034775 0.00406235 0.0129071
0 -0.0041025 0.00343582 0.0129528
0 0.003085 0.004375 0.0132822
4.20678e-20 -0.001915 0.005 0.0128854
-5.42101e-20 -0.0053525 0.000292359 0.0132103
-1.91521e-20 -0.00504 0.00184143 0.0131019
-2.71051e-20 0.0008975 0.0053125 0.0130249
4.20659e-20 -0.003165 0.004375 0.0128853
2.71051e-20 -0.0009775 0.0053125 0.0129062
1.02388e-20 -0.004415 0.00312195 0.012975
5.42101e-20 -0.0053525 0.000892183 0.0131871
0 0.0046475 0.00280426 0.0136053
2.71051e-20 0.0027725 0.0046875 0.0132197
-2.71051e-20 -0.0028525 0.0046875 0.0128633
0 0.0052725 0.00152054 0.0138119
-2.71051e-20 -0.0047275 0.00280426 0.0129972
2.71051e-20 0.0015225 0.0053125 0.0130635
-6.46235e-27 0.00496 0.00248657 0.0136679
2.71051e-20 -0.0016025 0.0053125 0.0128656
2.71051e-20 -0.0053525 0.00152054 0.0131194
4.20678e-20 0.00246 0.005 0.0131607
-2.06795e-25 0.005585 1.19937e-09 0.0139235
-5.16988e-26 0.005585 0.000471017 0.0139139
4.20678e-20 -0.00254 0.005 0.0128439
0 0.005585 0.000584717 0.0139116
-5.77312e-21 -0.00504 0.00248657 0.0130177
4.20678e-20 -4e-05 0.005625 0.0129298
3.28992e-21 0.000585 0.005625 0.0129692
4.20678e-20 -0.000665 0.005625 0.01289
0 -0.005665 3.1104e-09 0.0131865
-1.58027e-20 -0.005665 0.000584718 0.013175
0 0.0052725 0.002164 0.0137308
2.52435e-29 -0.00478358 0.00312195 0.0129484
0 0.005585 0.00119965 0.0138644
2.71051e-20 0.0040225 0.00406235 0.0133809
2.71051e-20 0.0021475 0.0053125 0.0131016
0 0.00371 0.00436708 0.0133199
0 0.004335 0.00374969 0.0134455
3.2968e-21 0.00371 0.004375 0.0133188
3.28992e-21 0.00121 0.005625 0.0130081
2.71051e-20 -0.0022275 0.0053125 0.0128245
4.20678e-20 -0.00129 0.005625 0.0128496
2.71051e-20 -0.0053525 0.002164 0.0130383
0 -0.0041025 0.00406235 0.0128638
2.71051e-20 0.0046475 0.00343582 0.0135102
4.20678e-20 -0.00379 0.004375 0.0128425
-2.71051e-20 0.0033975 0.0046875 0.0132566
2.08321e-20 -0.005665 0.00119965 0.0131299
-5.93364e-21 -0.004415 0.00374969 0.0128861
-2.71051e-20 -0.0034775 0.0046875 0.012821
4.73317e-30 -0.0044787 0.00374969 0.0128816
0 -0.0047275 0.00343582 0.0129083
1.61559e-27 0.00496 0.00312195 0.0135751
3.28992e-21 0.003085 0.005 0.0131979
0 0.005585 0.00184143 0.0137884
-2.71051e-20 0.0058975 0.000292358 0.0139402
6.05845e-28 -0.00504 0.00307795 0.012936
3.28992e-21 0.001835 0.005625 0.0130465
3.28992e-21 -0.003165 0.005 0.012802
-3.28032e-20 -0.00504 0.00312195 0.0129299
4.20678e-20 -0.001915 0.005625 0.0128088
2.71051e-20 0.0002725 0.0059375 0.0129135
0 -0.0003525 0.0059375 0.0128738
1.96602e-20 -0.005665 0.00184143 0.0130554
-2.71051e-20 0.0058975 0.000892183 0.0139162
0 0.0052725 0.00280426 0.0136403
0 -0.0059775 0.000292358 0.0131628
2.71051e-20 0.0027725 0.0053125 0.0131392
0 0.0008975 0.0059375 0.0129527
2.71051e-20 -0.0009775 0.0059375 0.0128337
-5.42101e-20 -0.0028525 0.0053125 0.0127829
0 -0.0053525 0.00280426 0.0129515
-2.71051e-20 -0.0059775 0.000892183 0.0131397
-2.71051e-20 0.0058975 0.00152054 0.0138457
0 0.005585 0.00248657 0.0137025
2.71051e-20 0.0015225 0.0059375 0.0129915
4.20678e-20 0.00246 0.005625 0.0130845
-5.42101e-20 -0.0016025 0.0059375 0.0127931
-1.26218e-29 0.004335 0.00436766 0.0133558
0 0.004335 0.004375 0.0133547
0 -0.0059775 0.00152054 0.0130725
4.20678e-20 -0.00254 0.005625 0.0127675
-2.71051e-20 0.0046475 0.00406235 0.0134164
-2.71051e-20 0.0040225 0.0046875 0.0132929
-3.8168e-20 -0.005665 0.00248657 0.0129715
0 0.00621 1.39959e-09 0.0139565
4.20683e-20 -0.004415 0.004375 0.0127991
0 0.00496 0.00374969 0.0134808
3.28992e-21 0.00371 0.005 0.0132347
2.71051e-20 -0.0041025 0.0046875 0.0127781
0 0.00621 0.000521791 0.0139459
0 -0.0047275 0.00406234 0.0128198
0 0.00621 0.000584717 0.0139446
4.20678e-20 -4e-05 0.00625 0.012862
4.20678e-20 -0.00379 0.005 0.0127595
4.20678e-20 0.000585 0.00625 0.0129015
-1.45948e-20 -0.00504 0.00374969 0.0128416
2.71051e-20 0.0058975 0.002164 0.0137649
4.20678e-20 -0.000665 0.00625 0.0128221
0 -0.00629 3.27663e-09 0.0131386
2.71051e-20 0.0052725 0.00343582 0.0135451
2.71051e-20 0.0033975 0.0053125 0.0131763
2.71051e-20 0.0021475 0.0059375 0.0130297
4.16837e-21 -0.00629 0.000584717 0.0131272
0 0.00621 0.00119965 0.0138976
5.42101e-20 -0.0022275 0.0059375 0.012752
0 -0.0034775 0.0053125 0.0127408
-2.71051e-20 -0.0059775 0.002164 0.0129916
2.71051e-20 -0.0053525 0.00343582 0.0128632
4.20678e-20 0.00121 0.00625 0.0129405
4.20678e-20 -0.00129 0.00625 0.0127818
0 0.005585 0.00312195 0.0136098
2.27519e-20 -0.00629 0.00119965 0.0130824
4.20678e-20 0.003085 0.005625 0.0131219
4.20678e-20 -0.003165 0.005625 0.0127257
0 -0.005665 0.00310605 0.0128864
0 -0.005665 0.00312195 0.0128842
0 0.00621 0.00184143 0.0138219
4.20678e-20 0.001835 0.00625 0.012979
2.71051e-20 0.0065225 0.000292358 0.0139728
2.71051e-20 0.0058975 0.00280426 0.0136745
4.20678e-20 -0.001915 0.00625 0.0127409
2.52435e-29 -0.00575131 0.00312195 0.0128778
5.42101e-20 0.0027725 0.0059375 0.0130675
-1.86152e-20 -0.00629 0.00184143 0.0130083
-2.71051e-20 0.0002725 0.0065625 0.0128502
-2.71051e-20 -0.0003525 0.0065625 0.0128106
0 0.0065225 0.000892183 0.0139488
2.71051e-20 -0.0028525 0.0059375 0.0127105
-5.42101e-20 0.0046475 0.0046875 0.0133287
0 -0.0059775 0.00280426 0.0129051
-2.71051e-20 -0.0066025 0.000292358 0.0131145
-5.36425e-29 0.00496 0.00436771 0.0133912
0 0.00496 0.004375 0.0133901
3.28992e-21 0.004335 0.005 0.0132709
0 0.0008975 0.0065625 0.0128895
-2.71051e-20 -0.0009775 0.0065625 0.0127704
1.41995e-29 -0.00504 0.00431916 0.0127628
-2.71051e-20 0.0052725 0.00406235 0.0134514
-5.42101e-20 -0.0047275 0.0046875 0.0127347
2.71051e-20 -0.0066025 0.000892183 0.0130916
-2.71051e-20 0.0040225 0.0053125 0.0132129
4.20678e-20 -0.004415 0.005 0.0127165
4.20683e-20 -0.00504 0.004375 0.0127551
-6.46235e-27 0.00666238 0.000584716 0.0139679
0 0.00621 0.00248657 0.0137363
0 0.0065225 0.00152054 0.0138786
2.71051e-20 -0.0041025 0.0053125 0.0126982
4.20678e-20 0.00246 0.00625 0.013017
0 -0.0053525 0.00406235 0.0127752
0 0.005585 0.00374969 0.0135154
-5.42101e-20 0.0015225 0.0065625 0.0129282
4.20678e-20 0.00371 0.005625 0.0131589
4.20678e-20 -0.00254 0.00625 0.0126996
0 -0.0016025 0.0065625 0.0127298
-1.65274e-20 -0.00629 0.00248657 0.0129247
2.71051e-20 -0.0066025 0.00152054 0.0130249
4.20678e-20 -0.00379 0.005625 0.0126833
-2.52435e-29 -0.005665 0.00374969 0.0127965
0 0.0058975 0.00343582 0.0135794
-4.1359e-25 0.006835 1.73939e-09 0.0139886
2.71051e-20 0.0033975 0.0059375 0.0131048
1.29247e-26 0.006835 0.000584716 0.0139767
2.71051e-20 0.0065225 0.002164 0.0137983
-1.52159e-20 -4e-05 0.006875 0.0128031
1.29247e-26 0.006835 0.000763003 0.0139631
2.71051e-20 -0.0034775 0.0059375 0.0126685
0 -0.0059775 0.00343582 0.0128176
-1.52159e-20 0.000585 0.006875 0.0128426
5.42101e-20 0.0021475 0.0065625 0.0129665
-1.52159e-20 -0.000665 0.006875 0.0127632
4.1359e-25 -0.006915 3.37484e-09 0.0130901
0 -0.0022275 0.0065625 0.0126887
2.58494e-26 0.006835 0.00119965 0.0139299
8.23189e-21 -0.006915 0.000584717 0.0130787
0 -0.0066025 0.002164 0.0129443
1.61559e-27 0.00621 0.00312195 0.0136437
4.20678e-20 0.003085 0.00625 0.0130547
-1.52159e-20 0.00121 0.006875 0.0128816
-1.52159e-20 -0.00129 0.006875 0.0127229
4.20678e-20 -0.003165 0.00625 0.0126578
1.04204e-20 -0.006915 0.00119965 0.0130342
-5.58219e-21 -0.00629 0.00312195 0.0128379
3.28992e-21 0.00496 0.005 0.0133066
-2.71051e-20 0.0052725 0.0046875 0.013364
2.71051e-20 0.0046475 0.0053125 0.013249
-1.29247e-26 0.006835 0.00184143 0.0138546
-3.9443e-29 0.005585 0.0043671 0.0134261
0 0.005585 0.004375 0.013425
3.28992e-21 -0.00504 0.005 0.0126729
-2.71051e-20 0.0065225 0.00280426 0.013708
3.28992e-21 0.004335 0.005625 0.0131954
5.42101e-20 -0.0047275 0.0053125 0.012655
2.71051e-20 -0.0053525 0.0046875 0.0126907
-1.11325e-20 0.001835 0.006875 0.0129202
0 0.0027725 0.0065625 0.0130045
0 -0.005665 0.00432451 0.0127175
-1.92994e-20 -0.001915 0.006875 0.0126821
3.28992e-21 -0.004415 0.005625 0.0126405
-5.42101e-20 0.0071475 0.000292358 0.0140043
-2.71051e-20 -0.0028525 0.0065625 0.0126472
1.49057e-20 -0.006915 0.00184143 0.0129606
0 -0.005665 0.004375 0.0127105
0 0.0058975 0.00406235 0.0134858
5.42101e-20 0.0040225 0.0059375 0.0131417
5.42101e-20 -0.0066025 0.00280426 0.0128582
-2.71051e-20 0.0002725 0.0071875 0.0127957
-2.71051e-20 -0.0003525 0.0071875 0.012756
0 0.0071475 0.000892183 0.0139805
5.42101e-20 -0.0041025 0.0059375 0.012626
0 -0.0059775 0.00406235 0.0127302
2.71051e-20 -0.0072275 0.000292358 0.0130656
0 0.0008975 0.0071875 0.012835
0 -0.0009775 0.0071875 0.012716
0 0.00621 0.00374969 0.0135494
4.20678e-20 0.00371 0.00625 0.0130918
0 0.006835 0.00248657 0.0137694
-2.71051e-20 -0.0072275 0.000892183 0.0130428
-2.94934e-20 0.00246 0.006875 0.0129583
2.71051e-20 0.0071475 0.00152054 0.0139106
4.20678e-20 -0.00379 0.00625 0.0126156
4.93038e-32 -0.00629 0.00374969 0.0127509
-1.52159e-20 -0.00254 0.006875 0.0126409
0 -0.00629 0.00376968 0.0127481
-2.71051e-20 0.0015225 0.0071875 0.0128738
-2.81739e-20 -0.006915 0.00248657 0.0128772
0 -0.0016025 0.0071875 0.0126755
2.71051e-20 0.0065225 0.00343582 0.013613
2.71051e-20 -0.0072275 0.00152054 0.0129768
-2.71051e-20 0.0033975 0.0065625 0.0130419
0 -0.0034775 0.0065625 0.0126052
-2.71051e-20 -0.0066025 0.00343582 0.0127713
0 0.00746 1.93575e-09 0.0140196
0 0.0071475 0.002164 0.0138308
5.70827e-21 0.00746 0.000584716 0.0140078
5.42101e-20 0.0052725 0.0053125 0.0132847
3.28992e-21 0.005585 0.005 0.0133418
3.28992e-21 0.00496 0.005625 0.0132314
-4.29909e-20 -4e-05 0.0075 0.012753
0 0.0021475 0.0071875 0.0129122
8.07794e-28 0.006835 0.00312195 0.0136768
-4.29909e-20 0.000585 0.0075 0.0127925
2.71051e-20 -0.0022275 0.0071875 0.0126345
2.23146e-20 -0.000665 0.0075 0.0127132
0 0.00746 0.00104413 0.0139731
5.42101e-20 0.0058975 0.0046875 0.0133987
1.13407e-20 0.003085 0.006875 0.0129961
-4.1359e-25 -0.00754 3.27194e-09 0.0130408
-2.71051e-20 0.0046475 0.0059375 0.0131781
2.71051e-20 -0.0053525 0.0053125 0.0126113
0 -0.0072275 0.002164 0.0128964
3.28992e-21 -0.00504 0.005625 0.0125972
-1.29247e-26 0.00746 0.00119965 0.0139613
4.20678e-20 -0.005665 0.005 0.0126288
4.02341e-21 -0.00754 0.000584718 0.0130295
-1.52159e-20 -0.003165 0.006875 0.0125992
-6.44624e-21 -0.006915 0.00312195 0.012791
5.42101e-20 -0.0047275 0.0059375 0.012583
4.73317e-29 0.00621 0.00436615 0.0134605
-2.71051e-20 -0.0059775 0.0046875 0.0126461
0 0.00621 0.004375 0.0134592
-4.213e-21 0.00121 0.0075 0.0128315
3.28992e-21 0.004335 0.00625 0.0131286
-4.29909e-20 -0.00129 0.0075 0.0126729
-1.19471e-20 -0.00754 0.00119965 0.0129854
3.28992e-21 -0.004415 0.00625 0.0125729
3.28992e-21 -0.00629 0.004375 0.0126654
-2.71051e-20 0.0071475 0.00280426 0.0137408
-1.29247e-26 0.00746 0.00184143 0.0138865
0 0.0065225 0.00406235 0.0135196
0 0.0040225 0.0065625 0.013079
0 0.0027725 0.0071875 0.0129502
-2.15679e-21 0.001835 0.0075 0.0128701
-5.42101e-20 -0.0028525 0.0071875 0.0125931
-2.71051e-20 -0.0041025 0.0065625 0.0125628
-4.29909e-20 -0.001915 0.0075 0.0126323
0 -0.0066025 0.00406235 0.0126846
-2.71051e-20 -0.0072275 0.00280426 0.0128106
2.13773e-20 -0.00754 0.00184143 0.0129122
0 0.0077725 0.000292358 0.0140348
0 0.006835 0.00374969 0.0135828
-2.74082e-20 0.00371 0.006875 0.0130334
2.71051e-20 0.0002725 0.0078125 0.0127501
-2.71051e-20 -0.0003525 0.0078125 0.0127104
0 0.0077725 0.000892183 0.0140112
-1.52159e-20 -0.00379 0.006875 0.012557
0 -0.0078525 0.000292358 0.0130161
3.23117e-27 0.00746 0.00248657 0.0138016
0 0.0008975 0.0078125 0.0127893
0 -0.006915 0.00374969 0.0127046
2.71051e-20 -0.0009775 0.0078125 0.0126704
-2.4543e-20 0.00246 0.0075 0.0129084
0 -0.0078525 0.000892183 0.0129933
-4.29909e-20 -0.00254 0.0075 0.0125911
0 0.0077725 0.00152054 0.0139418
4.20678e-20 0.005585 0.005625 0.013267
5.42101e-20 0.0071475 0.00343582 0.0136459
2.71051e-20 0.0058975 0.0053125 0.0133198
-1.19688e-20 -0.00754 0.00248657 0.0128292
5.42101e-20 0.0052725 0.0059375 0.0132141
-2.71051e-20 0.0033975 0.0071875 0.0129878
2.71051e-20 0.0015225 0.0078125 0.0128281
4.20678e-20 0.00621 0.005 0.0133765
2.71051e-20 -0.0016025 0.0078125 0.01263
3.28992e-21 0.00496 0.00625 0.0131649
4.20678e-20 -0.005665 0.005625 0.0125533
0 -0.0034775 0.0071875 0.0125513
0 -0.0053525 0.0059375 0.0125394
2.71051e-20 -0.0059775 0.0053125 0.0125671
-2.71051e-20 -0.0078525 0.00152054 0.0129279
2.71051e-20 -0.0072275 0.00343582 0.0127244
3.28992e-21 -0.00504 0.00625 0.0125296
2.71051e-20 0.0065225 0.0046875 0.0134329
4.20678e-20 -0.00629 0.005 0.0125841
0 0.0046475 0.0065625 0.0131156
2.71051e-20 0.0077725 0.002164 0.0138624
0 0.008085 1.8066e-09 0.0140495
8.07794e-28 0.00746 0.00312195 0.0137093
2.71051e-20 -0.0047275 0.0065625 0.0125198
-5.42101e-20 -0.0066025 0.0046875 0.0126009
2.71051e-20 0.0021475 0.0078125 0.0128666
1.63833e-22 0.008085 0.000584717 0.0140379
-1.82584e-20 0.003085 0.0075 0.0129462
2.05104e-29 0.006835 0.00436478 0.0134944
0 0.006835 0.004375 0.0134929
2.71051e-20 -0.0022275 0.0078125 0.0125891
0 -4e-05 0.008125 0.0127118
-1.92123e-20 0.004335 0.006875 0.0130703
-4.29909e-20 -0.003165 0.0075 0.0125496
-2.71051e-20 -0.0078525 0.002164 0.0128478
9.66278e-21 0.000585 0.008125 0.0127512
-2.03372e-20 -0.000665 0.008125 0.012672
0 0.008085 0.00104972 0.014003
-2.21741e-20 -0.00754 0.00312195 0.0127435
4.1359e-25 -0.008165 3.05695e-09 0.012991
-1.52159e-20 -0.004415 0.006875 0.0125144
0 0.008085 0.00119965 0.0139917
3.28793e-21 -0.006915 0.004375 0.0126197
2.41247e-21 -0.008165 0.000584718 0.0129797
3.06909e-20 0.00121 0.008125 0.0127903
2.71051e-20 0.0071475 0.00406235 0.0135528
2.90517e-20 -0.00129 0.008125 0.0126319
2.71051e-20 0.0040225 0.0071875 0.013025
2.49964e-21 -0.008165 0.00119965 0.0129359
0 0.0077725 0.00280426 0.0137727
2.71051e-20 -0.0041025 0.0071875 0.0125089
0 0.0027725 0.0078125 0.0129046
0 -0.0072275 0.00406235 0.0126382
0 0.008085 0.00184143 0.0139174
0 -0.0028525 0.0078125 0.0125478
-1.29175e-20 0.001835 0.008125 0.0128289
5.42101e-20 -0.0078525 0.00280426 0.0127625
9.05171e-21 -0.001915 0.008125 0.0125913
0 0.00746 0.00374969 0.0136155
1.05865e-20 0.00371 0.0075 0.0129837
0 0.0058975 0.0059375 0.0132495
-1.7562e-20 -0.008165 0.00184143 0.0128632
4.20678e-20 0.00621 0.005625 0.0133021
4.20678e-20 0.005585 0.00625 0.0132007
2.71051e-20 0.0083975 0.000292359 0.0140643
-4.29909e-20 -0.00379 0.0075 0.0125076
2.71051e-20 0.0065225 0.0053125 0.0133545
0 0.0052725 0.0065625 0.0131518
-2.91312e-20 -0.00754 0.00374969 0.0126576
-2.71051e-20 -0.0059775 0.0059375 0.0124954
4.20678e-20 -0.005665 0.00625 0.0124859
4.20678e-20 -0.00629 0.005625 0.012509
-5.42101e-20 0.0002725 0.0084375 0.0127132
5.42101e-20 0.0083975 0.000892183 0.0140409
0 -0.0003525 0.0084375 0.0126737
0 0.008085 0.00248657 0.013833
0 -0.0053525 0.0065625 0.0124764
4.20678e-20 0.006835 0.005 0.0134106
-5.42101e-20 -0.0066025 0.0053125 0.0125224
1.55111e-20 0.00496 0.006875 0.0131068
2.71051e-20 -0.0084775 0.000292358 0.0129659
-2.71051e-20 0.0008975 0.0084375 0.0127524
1.08513e-23 0.00246 0.008125 0.0128671
-2.71051e-20 -0.0009775 0.0084375 0.0126338
0 0.0077725 0.00343582 0.0136781
-2.03372e-20 -0.00254 0.008125 0.0125503
-2.71051e-20 0.0033975 0.0078125 0.0129423
-2.71051e-20 -0.0084775 0.000892183 0.0129432
-1.52159e-20 -0.00504 0.006875 0.0124713
3.28992e-21 -0.006915 0.005 0.0125389
2.71051e-20 0.0083975 0.00152054 0.0139719
-1.55101e-20 -0.008165 0.00248657 0.0127805
-5.42101e-20 0.0071475 0.0046875 0.0134665
-2.71051e-20 -0.0034775 0.0078125 0.0125061
5.42101e-20 0.0046475 0.0071875 0.0130618
0 -0.0078525 0.00343582 0.0126768
0 0.0015225 0.0084375 0.0127913
0 -0.0016025 0.0084375 0.0125934
0 -0.0047275 0.0071875 0.0124661
2.71051e-20 -0.0084775 0.00152054 0.0128785
2.71051e-20 -0.0072275 0.0046875 0.0125552
1.41995e-29 0.00746 0.00436155 0.013528
0 0.00746 0.004375 0.0135261
-7.45522e-21 0.004335 0.0075 0.0130207
-4.03897e-28 0.008085 0.00312195 0.013741
2.71051e-20 0.0083975 0.002164 0.0138932
-2.52096e-20 0.003085 0.008125 0.012905
-4.213e-21 -0.004415 0.0075 0.0124651
-2.71051e-20 0.0021475 0.0084375 0.0128297
0 0.00871 1.27513e-09 0.0140785
3.28793e-21 -0.00754 0.004375 0.0125734
1.37462e-20 -0.003165 0.008125 0.0125089
-5.42101e-20 -0.0022275 0.0084375 0.0125527
-3.02112e-20 0.00871 0.000584717 0.0140669
3.23117e-27 0.00871 0.00071784 0.014057
-1.06165e-20 -0.008165 0.00312195 0.0126953
0 -0.0084775 0.002164 0.0127986
-3.24548e-20 -4e-05 0.00875 0.0126794
-2.45484e-21 0.000585 0.00875 0.0127187
0 0.0077725 0.00406235 0.0135853
-3.0659e-21 -0.000665 0.00875 0.0126398
0 0.0040225 0.0078125 0.0129797
-4.1359e-25 -0.00879 2.74038e-09 0.0129404
0 0.00871 0.00119965 0.0140211
9.69352e-27 0.00878174 0.000584717 0.0140701
2.06474e-20 -0.00879 0.000584717 0.0129292
4.20678e-20 0.00621 0.00625 0.0132361
2.71051e-20 0.0065225 0.0059375 0.0132845
-5.42101e-20 0.0058975 0.0065625 0.0131876
0 -0.0041025 0.0078125 0.012464
7.76818e-21 0.00121 0.00875 0.0127577
0 -0.0078525 0.00406234 0.0125914
1.69341e-20 -0.00129 0.00875 0.0125997
4.20678e-20 0.006835 0.005625 0.0133367
-5.42101e-20 0.0083975 0.00280426 0.0138039
-1.30437e-20 0.005585 0.006875 0.013143
4.20678e-20 -0.00629 0.00625 0.0124417
1.29434e-20 -0.00879 0.00119965 0.0128858
0 -0.0059775 0.0065625 0.0124325
2.71051e-20 -0.0066025 0.0059375 0.0124509
0 0.0027725 0.0084375 0.0128678
0 0.00871 0.00184143 0.0139474
-5.42101e-20 0.0071475 0.0053125 0.0133887
-2.71051e-20 -0.0028525 0.0084375 0.0125115
-1.52159e-20 -0.005665 0.006875 0.0124277
-5.04871e-29 0.008085 0.00374969 0.0136476
3.28992e-21 -0.006915 0.005625 0.0124641
0 0.0052725 0.0071875 0.0130982
-2.71051e-20 -0.0084775 0.00280426 0.0127137
-1.29922e-20 0.00371 0.008125 0.0129426
2.03865e-20 0.001835 0.00875 0.0127963
6.93409e-21 -0.001915 0.00875 0.0125592
-2.71051e-20 -0.0053525 0.0071875 0.0124228
3.74618e-21 -0.00379 0.008125 0.012467
-2.71051e-20 -0.0072275 0.0053125 0.0124772
4.20678e-20 0.00746 0.005 0.0134443
-2.26205e-20 -0.00879 0.00184143 0.0128136
1.30734e-20 -0.008165 0.00374969 0.0126102
3.36399e-20 0.00496 0.0075 0.0130574
2.71051e-20 0.0090225 0.000292358 0.0140927
-4.29909e-20 -0.00504 0.0075 0.0124221
3.28992e-21 -0.00754 0.005 0.0124931
-3.23117e-27 0.00871 0.00248657 0.0138635
-2.71051e-20 0.0090225 0.000892184 0.0140695
2.71051e-20 0.0002725 0.0090625 0.0126852
2.71051e-20 -0.0003525 0.0090625 0.0126457
0 0.0083975 0.00343582 0.0137096
0 0.0077725 0.0046875 0.0134996
-1.80833e-20 0.00246 0.00875 0.0128345
-2.71051e-20 0.0046475 0.0078125 0.0130166
-2.71051e-20 0.0033975 0.0084375 0.0129055
-2.71051e-20 0.0008975 0.0090625 0.0127242
-5.42101e-20 -0.0091025 0.000292358 0.012915
-1.24548e-20 -0.00254 0.00875 0.0125184
2.71051e-20 -0.0009775 0.0090625 0.0126059
-2.71051e-20 -0.0034775 0.0084375 0.01247
0 -0.0047275 0.0078125 0.0124214
1.52729e-20 -0.00879 0.00248657 0.0127312
-2.71051e-20 -0.0078525 0.0046875 0.0125089
0 -0.0091025 0.000892183 0.0128924
-2.71051e-20 -0.0084775 0.00343582 0.0126287
-2.71051e-20 0.0090225 0.00152054 0.0140011
2.52435e-29 0.008085 0.00435536 0.0135614
0 0.0015225 0.0090625 0.0127629
4.20678e-20 0.008085 0.004375 0.0135586
0 -0.0016025 0.0090625 0.0125657
-7.45848e-21 0.004335 0.008125 0.0129797
0 -0.0091025 0.00152054 0.0128284
3.74619e-21 -0.004415 0.008125 0.0124247
2.71051e-20 0.0065225 0.0065625 0.013223
0 0.00871 0.00312195 0.013772
4.20678e-20 0.006835 0.00625 0.0132711
3.28844e-21 -0.008165 0.004375 0.0125265
3.28992e-21 0.00621 0.006875 0.0131787
3.74411e-21 0.003085 0.00875 0.0128724
0 0.0090225 0.002164 0.0139231
-5.42101e-20 0.0071475 0.0059375 0.0133191
2.71051e-20 0.0058975 0.0071875 0.0131343
2.28507e-20 -0.003165 0.00875 0.0124771