# UMean  POINT_DATA 49517
# x  y  z  UMean_x  UMean_y  UMean_z
-3.4047e-09 0 0 0 0 0
3.99952e-05 0 0 0 0 0
-4.00019e-05 6.77626e-21 0 0 0 0
3.99954e-05 0 3.74205e-05 -0.00124875 -0.00460171 -6.47324e-05
-4.00018e-05 0 3.74205e-05 -0.00155125 -0.00456381 -4.06745e-05
0.000312499 -2.71051e-20 0.000292358 -0.00997295 -0.0360281 -0.000491536
-0.000312502 2.71051e-20 0.000292358 -0.0123055 -0.0357136 -0.000304234
0.000584999 -6.77626e-21 0 0 0 0
-0.000585005 0 0 0 0 0
-1.06408e-09 2.25875e-21 0.000585361 -0.0126899 -0.0545556 -0.00236163
0.000584999 0 3.74206e-05 -0.00124875 -0.00460172 -6.47326e-05
-0.000585005 0 3.74204e-05 -0.00155125 -0.00456379 -4.06743e-05
0.000624998 6.77626e-21 0 0 0 0
-0.000625003 6.77626e-21 0 0 0 0
0.000664997 0 0 0 0 0
-0.000665001 0 0 0 0 0
0.000664997 6.77626e-21 3.74206e-05 -0.000894232 -0.00461147 -8.98353e-05
-0.000665001 0 3.74204e-05 -0.00180171 -0.00449943 -1.8013e-05
0.000625 2.25875e-21 0.000585361 -0.0096491 -0.0543124 -0.00278478
-0.000625001 2.25875e-21 0.000585362 -0.0153341 -0.0545801 -0.00194094
0.0003125 0 0.000892183 -0.0125847 -0.0732143 -0.00468504
-0.0003125 0 0.000892183 -0.0159408 -0.0737975 -0.00402144
0.0009375 -2.71051e-20 0.000292358 -0.00723315 -0.0361247 -0.000687787
-0.000937501 -2.71051e-20 0.000292359 -0.0142316 -0.035194 -0.00012805
-2.44748e-10 3.38813e-21 0.00120022 -0.014664 -0.0769462 -0.00613532
0.00121 6.77626e-21 0 0 0 0
-0.00121 0 0 0 0 0
0.00121 0 3.74205e-05 -0.00089423 -0.00461146 -8.98352e-05
-0.00121 0 3.74203e-05 -0.0018017 -0.00449941 -1.80129e-05
0.00125 0 0 0 0 0
-0.00125 0 0 0 0 0
-0.00129 0 0 0 0 0
0.00129 0 0 0 0 0
-0.00129 0 3.74202e-05 -0.00200104 -0.00441095 3.06405e-06
0.00129 -6.77626e-21 3.74205e-05 -0.000489831 -0.00458784 -0.000113934
0.0009375 0 0.000892183 -0.00883567 -0.0724007 -0.00533705
-0.0009375 0 0.000892184 -0.0189175 -0.0741587 -0.00335895
0.000625 -1.12938e-21 0.00120022 -0.0113186 -0.0760803 -0.0069865
-0.000625 1.12938e-21 0.00120022 -0.0176514 -0.0776014 -0.00529852
0.00125 -1.12938e-21 0.000585361 -0.00621392 -0.0538314 -0.00319706
-0.00125 2.25875e-21 0.000585362 -0.017593 -0.0544015 -0.00153222
0.0003125 2.71051e-20 0.00152054 -0.0135888 -0.0799679 -0.00845836
-0.0003125 0 0.00152054 -0.016552 -0.0808933 -0.0074221
-0.0015625 0 0.000292358 -0.0157591 -0.0344874 3.58817e-05
0.0015625 0 0.000292358 -0.00410029 -0.0359643 -0.000877805
0.00125 0 0.00120022 -0.00760598 -0.0749735 -0.00782225
-0.00125 1.12938e-21 0.00120022 -0.0203026 -0.0780725 -0.00449321
0.0009375 2.71051e-20 0.00152054 -0.0102807 -0.0788223 -0.00951617
-0.0009375 2.71051e-20 0.00152054 -0.0192012 -0.0816491 -0.00643277
0.0015625 2.71051e-20 0.000892183 -0.00470238 -0.0713417 -0.00595417
-0.0015625 0 0.000892183 -0.0215378 -0.0743219 -0.0027199
0.001835 0 0 0 0 0
-0.001835 0 0 0 0 0
0.001835 -6.77626e-21 3.74205e-05 -0.000489831 -0.00458784 -0.000113934
-0.001835 0 3.74201e-05 -0.00200103 -0.00441094 3.06405e-06
-4.00486e-11 0 0.0018415 -0.0149959 -0.0815437 -0.00960677
0.001875 0 0 0 0 0
-0.001875 0 0 0 0 0
-0.001915 -6.77626e-21 0 0 0 0
0.001915 6.77626e-21 0 0 0 0
-0.001915 0 3.74201e-05 -0.00215114 -0.00430039 2.30731e-05
0.001915 0 3.74206e-05 -4.31653e-05 -0.00452487 -0.000133691
0.000625 0 0.0018415 -0.0120896 -0.080521 -0.0108365
-0.000625 0 0.0018415 -0.0176078 -0.0823744 -0.00842095
-0.001875 1.12938e-21 0.000585361 -0.0194824 -0.0540371 -0.0011407
0.001875 -1.12938e-21 0.000585362 -0.00241224 -0.0530811 -0.00356577
0.0015625 -2.71051e-20 0.00152054 -0.00662665 -0.0774088 -0.0105374
-0.0015625 0 0.00152054 -0.0215558 -0.0822586 -0.00549843
0.0003125 2.71051e-20 0.002164 -0.0136476 -0.0822066 -0.0119724
-0.0003125 0 0.002164 -0.016195 -0.0831107 -0.0105795
0.0021875 0 0.000292358 -0.000630176 -0.0355003 -0.00103648
-0.0021875 -2.71051e-20 0.000292358 -0.016903 -0.0336088 0.000191827
0.00125 0 0.0018415 -0.0088809 -0.0792549 -0.012066
-0.00125 0 0.0018415 -0.0199345 -0.0830491 -0.00729631
-0.001875 0 0.00120022 -0.0226372 -0.0783752 -0.00372042
0.001875 0 0.00120022 -0.00353999 -0.0735935 -0.00858246
0.0009375 0 0.002164 -0.0108419 -0.081091 -0.0134048
-0.0009375 0 0.002164 -0.0184824 -0.083848 -0.00925416
-0.0021875 5.42101e-20 0.000892183 -0.0238197 -0.0742985 -0.00210619
0.0021875 -2.71051e-20 0.000892183 -0.000217692 -0.0700111 -0.00646876
0.00246 0 0 0 0 0
-0.00246 6.77626e-21 0 0 0 0
0.00246 -6.77626e-21 3.74204e-05 -4.31651e-05 -0.00452485 -0.000133691
-0.00246 0 3.74198e-05 -0.00215113 -0.00430036 2.30729e-05
-1.78244e-12 0 0.00248636 -0.0143823 -0.0832455 -0.0127203
-0.0025 0 0 0 0 0
0.0025 6.77626e-21 0 0 0 0
-0.00254 0 0 0 0 0
0.00254 0 0 0 0 0
-0.00254 0 3.74198e-05 -0.00225366 -0.00416848 4.23409e-05
0.00254 0 3.74204e-05 0.000430658 -0.00441521 -0.000144204
0.000625 1.12938e-21 0.00248636 -0.0119229 -0.0823051 -0.0142627
-0.000625 -2.25875e-21 0.00248636 -0.0166216 -0.0840106 -0.0112293
-0.0025 0 0.000585362 -0.0210168 -0.053496 -0.000764131
0.0025 1.12938e-21 0.000585362 0.00168792 -0.0520244 -0.00383271
0.001875 2.25875e-21 0.0018415 -0.00537088 -0.0776878 -0.0132175
-0.001875 0 0.0018415 -0.0219888 -0.0835901 -0.00622987
0.0021875 -2.71051e-20 0.00152054 -0.00264096 -0.0756873 -0.0114303
-0.0021875 0 0.00152054 -0.0236345 -0.0827261 -0.00459061
0.0015625 0 0.002164 -0.00777584 -0.0797012 -0.0148123
-0.0015625 0 0.002164 -0.0204971 -0.0844444 -0.00800413
-0.0025 -1.12938e-21 0.00120022 -0.0246733 -0.0785181 -0.00297365
0.0025 0 0.00120022 0.000841767 -0.0719123 -0.0091645
0.00125 -1.12938e-21 0.00248636 -0.00924478 -0.0811362 -0.0158191
-0.00125 -2.25875e-21 0.00248636 -0.0186343 -0.0846355 -0.00980696
0.0003125 0 0.00280426 -0.0127689 -0.0834394 -0.0149834
-0.0003125 0 0.00280426 -0.0149229 -0.0842198 -0.0133324
0.0028125 0 0.000292358 0.00306531 -0.0346763 -0.00112659
-0.0028125 2.71051e-20 0.000292358 -0.0176756 -0.0325638 0.000342052
-0.0028125 0 0.000892183 -0.0257753 -0.0740928 -0.00151343
0.0028125 -5.42101e-20 0.000892183 0.00454745 -0.0683912 -0.00677725
0.0009375 -2.71051e-20 0.00280426 -0.0104364 -0.0824775 -0.0166758
-0.0009375 5.42101e-20 0.00280426 -0.016893 -0.0848592 -0.011739
0.0021875 -2.71051e-20 0.002164 -0.00444253 -0.0779577 -0.0160971
-0.0021875 -2.71051e-20 0.002164 -0.022266 -0.0849348 -0.00683009
0.003085 -6.77626e-21 0 0 0 0
-0.003085 6.77626e-21 0 0 0 0
0.003085 0 3.742e-05 0.000430653 -0.00441516 -0.000144203
-0.003085 0 3.74189e-05 -0.0022536 -0.00416838 4.23399e-05
-0.0025 0 0.0018415 -0.0237967 -0.084014 -0.00521074
0.0025 4.51751e-21 0.0018415 -0.00157048 -0.07576 -0.0141618
0.001875 0 0.00248636 -0.00634372 -0.0796617 -0.0173163
-0.001875 -1.12938e-21 0.00248636 -0.020418 -0.0851482 -0.00846545
1.03657e-12 1.12938e-21 0.00312179 -0.0130215 -0.0841435 -0.0153743
0.003125 0 0 0 0 0
-0.003125 0 0 0 0 0
-0.003165 6.77626e-21 0 0 0 0
0.003165 0 -2.03573e-120 0 0 0
-0.003165 0 3.74187e-05 -0.00231017 -0.00401456 6.10355e-05
0.003165 0 3.74199e-05 0.000906529 -0.00425378 -0.000140251
0.003125 1.12938e-21 0.000585361 0.00595943 -0.0506358 -0.00392207
-0.003125 -1.12938e-21 0.000585362 -0.0222086 -0.0527788 -0.000398566
0.000625 1.12938e-21 0.00312179 -0.0109639 -0.0833415 -0.0171342
-0.000625 -1.12938e-21 0.00312179 -0.0149266 -0.0848013 -0.0136675
0.0028125 2.71051e-20 0.00152054 0.00164435 -0.0736293 -0.012047
-0.0028125 0 0.00152054 -0.0254605 -0.083066 -0.00371415
0.0015625 5.42101e-20 0.00280426 -0.00792573 -0.0812685 -0.0183675
-0.0015625 5.42101e-20 0.00280426 -0.0186727 -0.085386 -0.0102196
-0.003125 -1.12938e-21 0.00120022 -0.0264262 -0.0785077 -0.00225094
0.003125 1.12938e-21 0.00120022 0.00546018 -0.0699264 -0.0094202
0.00125 -1.12938e-21 0.00312179 -0.00875825 -0.0823453 -0.0189209
-0.00125 -2.25875e-21 0.00312179 -0.0166743 -0.0853468 -0.0120262
-0.0034375 2.71051e-20 0.000292358 -0.0180904 -0.0313467 0.000488264
0.0034375 -2.71051e-20 0.000292358 0.00679681 -0.0334498 -0.00110656
-0.0003125 5.42101e-20 0.00343582 -0.0131062 -0.0847866 -0.0156749
0.0003125 5.42101e-20 0.00343582 -0.0112941 -0.084126 -0.0174978
0.0025 2.25875e-21 0.00248636 -0.00321419 -0.0777776 -0.0186185
-0.0025 0 0.00248636 -0.0219852 -0.0855701 -0.00720336
0.0028125 0 0.002164 -0.000846296 -0.0757695 -0.0170806
-0.0028125 0 0.002164 -0.0238234 -0.0853328 -0.00571149
0.0034375 -5.42101e-20 0.000892183 0.00945731 -0.066497 -0.00675773
-0.0034375 -2.71051e-20 0.000892183 -0.0274162 -0.0737038 -0.000934196
-0.0021875 2.71051e-20 0.00280426 -0.0202452 -0.0858234 -0.00879817
0.0021875 2.71051e-20 0.00280426 -0.00522872 -0.0797121 -0.0199712
0.0009375 2.71051e-20 0.00343582 -0.00936105 -0.0833205 -0.0193705
-0.0009375 2.71051e-20 0.00343582 -0.0147917 -0.0853378 -0.0139154
0.003125 3.38813e-21 0.0018415 0.00248639 -0.0734278 -0.0146883
-0.003125 0 0.0018415 -0.0253798 -0.084332 -0.00423145
0.001875 -1.12938e-21 0.00312179 -0.00640433 -0.081074 -0.0206767
-0.001875 -2.25875e-21 0.00312179 -0.0182556 -0.085802 -0.0104631
0.00371 -6.77626e-21 -2.03454e-120 0 0 0
-0.00371001 0 0 0 0 0
0.00371 6.77626e-21 3.74192e-05 0.000906513 -0.0042537 -0.000140249
-0.00371001 0 3.74168e-05 -0.00231005 -0.00401436 6.10324e-05
1.9146e-13 2.25875e-21 0.00374964 -0.0112194 -0.0846046 -0.0176248
-0.00375 0 0 0 0 0
0.00375 0 -4.07022e-120 0 0 0
-0.0034375 0 0.00152054 -0.0270486 -0.0832866 -0.00286826
0.0034375 2.71051e-20 0.00152054 0.00615216 -0.071252 -0.0121671
0.0015625 -5.42101e-20 0.00343582 -0.00731298 -0.0823112 -0.0212597
-0.0015625 0 0.00343582 -0.016348 -0.0858026 -0.0122231
-0.00378999 0 0 0 0 0
0.00379 0 -2.94944e-110 0 0 0
-0.00378999 0 3.74165e-05 -0.00232125 -0.00383991 7.90339e-05
0.00379 0 3.74192e-05 0.00134857 -0.004039 -0.000118305
-0.00375 3.38813e-21 0.000585362 -0.0230681 -0.0518842 -4.14999e-05
0.00375 -2.25875e-21 0.000585361 0.0101956 -0.0489228 -0.00376033
-0.000625 1.12938e-21 0.00374964 -0.0128352 -0.0851679 -0.0157731
0.000625 1.12938e-21 0.00374964 -0.00950074 -0.0839292 -0.0195332
-0.00375 0 0.00120022 -0.0279096 -0.0783435 -0.00154828
0.00375 2.25875e-21 0.00120022 0.0101643 -0.0676982 -0.00918422
0.00125 0 0.00374964 -0.00768606 -0.0830987 -0.0214758
-0.00125 -1.12938e-21 0.00374964 -0.0143418 -0.0856449 -0.0139866
0.0028125 2.71051e-20 0.00280426 -0.00233404 -0.0776627 -0.0213065
-0.0028125 -2.71051e-20 0.00280426 -0.0216161 -0.0861851 -0.00746499
0.003125 0 0.00248636 0.000142476 -0.075362 -0.0194795
-0.003125 1.12938e-21 0.00248636 -0.0233552 -0.0859134 -0.00600571
0.0025 0 0.00312179 -0.00389511 -0.0794012 -0.0222784
-0.0025 -2.25875e-21 0.00312179 -0.019661 -0.0861826 -0.00898753
-0.0034375 0 0.002164 -0.025184 -0.0856462 -0.00463491
0.0034375 0 0.002164 0.00299078 -0.0730637 -0.0174671
-0.0040625 0 0.000292359 -0.0181495 -0.0299718 0.000628279
0.0040625 0 0.000292358 0.010291 -0.031807 -0.000947678
0.0021875 -5.42101e-20 0.00343582 -0.00515123 -0.0810001 -0.0230975
-0.0021875 -2.71051e-20 0.00343582 -0.0177654 -0.0861947 -0.0106047
-0.0003125 2.71051e-20 0.00406234 -0.0110031 -0.0850339 -0.0176904
0.0003125 5.42101e-20 0.00406235 -0.00947649 -0.0844715 -0.0196338
-0.00406249 -2.71051e-20 0.000892184 -0.028757 -0.0731177 -0.000365328
0.0040625 0 0.000892183 0.0142842 -0.0644005 -0.00630723
0.0009375 2.71051e-20 0.00406235 -0.00787321 -0.0837985 -0.0216284
-0.0009375 2.71051e-20 0.00406235 -0.0124426 -0.0855131 -0.0158095
-0.00375 2.25875e-21 0.0018415 -0.0267523 -0.0845508 -0.00328646
0.00375 2.25875e-21 0.0018415 0.00671227 -0.0707324 -0.014518
0.001875 1.12938e-21 0.00374964 -0.0057796 -0.0820394 -0.0234071
-0.001875 -3.38813e-21 0.00374964 -0.0157334 -0.0860515 -0.0122694
-0.004335 0 0 0 0 0
0.004335 0 -2.29728e-110 0 0 0
-0.004335 -6.77626e-21 3.74136e-05 -0.00232107 -0.00383961 7.90277e-05
0.004335 0 3.74187e-05 0.00134856 -0.00403895 -0.000118304
-0.0040625 0 0.00152054 -0.0284121 -0.0833925 -0.00204836
0.0040625 5.42101e-20 0.00152054 0.0107199 -0.0687011 -0.0115732
0.0015625 2.71051e-20 0.00406235 -0.00619852 -0.0829641 -0.0236421
-0.0015625 0 0.00406235 -0.013788 -0.0859258 -0.0139963
-0.00437499 0 0 0 0 0
-6.8232e-15 2.25875e-21 0.00437499 -0.00916758 -0.0847961 -0.0195573
0.004375 0 -5.24668e-110 0 0 0
-0.00437499 1.12938e-21 0.000585364 -0.0236024 -0.0508129 0.000304819
0.004375 -2.25875e-21 0.000585362 0.014112 -0.0469241 -0.00330382
-0.00441498 -6.77626e-21 0 0 0 0
0.004415 -6.77626e-21 -5.072e-102 0 0 0
-0.00441498 -6.77626e-21 3.74134e-05 -0.00228625 -0.00364841 9.52415e-05
0.004415 0 3.74187e-05 0.00171414 -0.00376972 -7.74742e-05
0.003125 -1.12938e-21 0.00312179 -0.00121723 -0.0771435 -0.023477
-0.003125 0 0.00312179 -0.0208899 -0.0864999 -0.00759517
-0.000625 1.12938e-21 0.00437499 -0.0105374 -0.0852828 -0.0176048
0.000625 0 0.00437499 -0.00772966 -0.0842243 -0.0215632
0.0034375 5.42101e-20 0.00280426 0.000767992 -0.0749435 -0.0220437
-0.0034375 0 0.00280426 -0.0228083 -0.0864855 -0.00620372
0.0028125 2.71051e-20 0.00343582 -0.00286574 -0.0792249 -0.0247267
-0.0028125 -2.71051e-20 0.00343582 -0.0190267 -0.0865258 -0.009076
0.00375 0 0.00248636 0.00369666 -0.0723427 -0.0195145
-0.00375 0 0.00248636 -0.0245458 -0.0861861 -0.00485835
0.0025 1.12938e-21 0.00374964 -0.00378125 -0.0806272 -0.0252278
-0.0025 -4.51751e-21 0.00374964 -0.0169996 -0.0863985 -0.0106273
-0.00437499 -1.12938e-21 0.00120022 -0.0291377 -0.0780172 -0.000863062
0.004375 -3.38813e-21 0.00120022 0.0147092 -0.0653848 -0.00834705
-0.00125 -2.25875e-21 0.00437499 -0.0118298 -0.0857036 -0.0157137
0.00125 -2.25875e-21 0.00437499 -0.00623194 -0.0835328 -0.0236068
0.0040625 2.71051e-20 0.002164 0.00698083 -0.0699152 -0.0168737
-0.0040625 2.71051e-20 0.002164 -0.0263616 -0.0858819 -0.00359697
0.0021875 0 0.00406235 -0.00445674 -0.0818816 -0.0256263
-0.0021875 0 0.00406235 -0.0150353 -0.0862828 -0.0122515
-0.00468748 0 0.00029236 -0.0178518 -0.028467 0.000752951
0.0046875 2.71051e-20 0.000292358 0.0132163 -0.0297381 -0.000640341
0.0003125 2.71051e-20 0.0046875 -0.0074522 -0.0845974 -0.0214619
-0.0003125 2.71051e-20 0.0046875 -0.00873889 -0.0850817 -0.0194427
-0.004375 -2.25875e-21 0.0018415 -0.0279276 -0.0846754 -0.00237248
0.004375 0 0.0018415 0.010921 -0.0679108 -0.0134233
0.001875 -1.12938e-21 0.00437499 -0.00467888 -0.0826588 -0.0256523
-0.001875 -3.38813e-21 0.00437499 -0.0130382 -0.0860704 -0.0138885
-0.00468748 0 0.000892187 -0.0298106 -0.0723086 0.000192474
0.0046875 5.42101e-20 0.000892183 0.0187238 -0.0622099 -0.00539161
0.0009375 -2.71051e-20 0.0046875 -0.00611702 -0.0840296 -0.0235284
-0.0009375 -5.42101e-20 0.0046875 -0.00996539 -0.0855026 -0.0174762
0.0034375 2.71051e-20 0.00343582 -0.000434115 -0.0767373 -0.0258186
-0.0034375 -5.42101e-20 0.00343582 -0.0201184 -0.086802 -0.00763046
0.00375 -1.12938e-21 0.00312179 0.00163993 -0.0740898 -0.023824
-0.00375 1.12938e-21 0.00312179 -0.0219533 -0.0867615 -0.00627172
0.003125 -1.12938e-21 0.00374964 -0.00168033 -0.0786559 -0.0267151
-0.003125 -2.25875e-21 0.00374964 -0.0181269 -0.0866926 -0.00906369
-0.00468749 -2.71051e-20 0.00152054 -0.0295674 -0.0833862 -0.00125092
0.0046875 5.42101e-20 0.00152054 0.0150634 -0.0662808 -0.0101806
0.0040625 0 0.00280426 0.00405898 -0.0714408 -0.0216526
-0.0040625 2.71051e-20 0.00280426 -0.0238408 -0.0867269 -0.00499087
0.0028125 -5.42101e-20 0.00406234 -0.00265185 -0.0804013 -0.0274577
-0.0028125 -2.71051e-20 0.00406235 -0.0161745 -0.0865906 -0.0105751
0.0015625 -2.71051e-20 0.0046875 -0.00473926 -0.0833392 -0.0256278
-0.0015625 2.71051e-20 0.0046875 -0.0111237 -0.0858731 -0.0155724
-0.00495999 0 0 0 0 0
0.00496 0 -7.91671e-102 0 0 0
-0.00495999 0 3.74085e-05 -0.00228595 -0.00364793 9.5229e-05
0.00496 0 3.74184e-05 0.00171413 -0.0037697 -7.74737e-05
-0.00499997 -6.77626e-21 0 0 0 0
0.005 6.77626e-21 -1.29887e-101 0 0 0
-9.80318e-15 1.12938e-21 0.005 -0.00696294 -0.0848126 -0.0212301
-0.004375 0 0.00248636 -0.0255698 -0.086393 -0.00375313
0.004375 1.12938e-21 0.00248636 0.00733873 -0.0689015 -0.0183208
-0.00499996 -2.25875e-21 0.000585368 -0.0238206 -0.0495677 0.000632197
0.005 0 0.000585362 0.0173955 -0.0446804 -0.00256376
0.0025 0 0.00437499 -0.00307685 -0.0814911 -0.0276194
-0.0025 -3.38813e-21 0.00437499 -0.0141555 -0.0863902 -0.0121291
0.000625 0 0.005 -0.00575154 -0.084321 -0.0233009
-0.000625 0 0.005 -0.00812595 -0.0852386 -0.0192083
-0.00503995 0 0 0 0 0
0.00504 0 -1.90073e-97 0 0 0
-0.00503995 0 3.7408e-05 -0.0022096 -0.00344285 0.000106974
0.00504 0 3.74184e-05 0.00196307 -0.00344737 -2.26248e-05
-0.00499997 1.12938e-21 0.00120022 -0.0301183 -0.0775204 -0.000192334
0.005 4.51751e-21 0.00120022 0.0187989 -0.0631816 -0.0069315
0.00125 -2.25875e-21 0.005 -0.00450108 -0.0837373 -0.0254113
-0.00125 -2.25875e-21 0.005 -0.0092328 -0.0856145 -0.0172422
-0.0046875 2.71051e-20 0.002164 -0.0273661 -0.086045 -0.00259599
0.0046875 2.71051e-20 0.002164 0.0109139 -0.066747 -0.0150744
0.0021875 -2.71051e-20 0.0046875 -0.00332121 -0.0824503 -0.0277129
-0.0021875 2.71051e-20 0.0046875 -0.0122062 -0.0862001 -0.0137333
0.00375 -2.25875e-21 0.00374964 0.000549349 -0.0758154 -0.0274151
-0.00375 -1.12938e-21 0.00374964 -0.0191086 -0.086939 -0.00757724
-0.00531242 2.71051e-20 0.000292364 -0.0172317 -0.0268552 0.000841382
0.0053125 -2.71051e-20 0.000292359 0.0152536 -0.0272512 -0.000218066
0.0040625 2.71051e-20 0.00343582 0.00217237 -0.0732317 -0.0257678
-0.0040625 2.71051e-20 0.00343582 -0.0210556 -0.0870304 -0.00625693
0.0034375 0 0.00406234 -0.000769611 -0.0782591 -0.0288545
-0.0034375 2.71051e-20 0.00406235 -0.0171913 -0.0868521 -0.00897151
0.0003125 -2.71051e-20 0.0053125 -0.00528452 -0.0845738 -0.0230461
-0.0003125 2.71051e-20 0.0053125 -0.00637616 -0.0849973 -0.0209697
-0.00499999 0 0.0018415 -0.0289174 -0.0847093 -0.00148478
0.005 2.25875e-21 0.0018415 0.0148353 -0.0653909 -0.0114196
0.001875 -2.25875e-21 0.005 -0.00322225 -0.0830112 -0.0275316
-0.001875 -3.38813e-21 0.005 -0.010275 -0.0859483 -0.0153355
0.004375 -1.12938e-21 0.00312179 0.00463624 -0.0702305 -0.0227333
-0.004375 0 0.00312179 -0.0228658 -0.0869721 -0.00500461
0.003125 -1.12938e-21 0.00437499 -0.00142834 -0.0798323 -0.029323
-0.003125 -3.38813e-21 0.00437499 -0.0151725 -0.0866667 -0.0104358
-0.00531243 0 0.000892195 -0.030567 -0.0712629 0.000737367
0.0053125 5.42101e-20 0.000892183 0.0224786 -0.059982 -0.00406591
-0.0009375 -5.42101e-20 0.0053125 -0.00742339 -0.0853729 -0.0189447
0.0009375 2.71051e-20 0.0053125 -0.00415242 -0.0840833 -0.0251672
-0.0046875 0 0.00280426 -0.0247228 -0.0869141 -0.00382257
0.0046875 -2.71051e-20 0.00280426 0.00741631 -0.0674974 -0.0196616
0.0028125 2.71051e-20 0.0046875 -0.00187774 -0.0812314 -0.0296806
-0.0028125 5.42101e-20 0.0046875 -0.0132064 -0.0864873 -0.0119563
-0.00531247 -5.42101e-20 0.00152055 -0.0305263 -0.0832714 -0.000465101
0.0053125 -2.71051e-20 0.00152054 0.0188842 -0.0643069 -0.00814466
0.0015625 0 0.0053125 -0.00299565 -0.0834971 -0.0273217
-0.0015625 2.71051e-20 0.0053125 -0.00841872 -0.0857094 -0.0169752
-0.005 -1.12938e-21 0.00248636 -0.0264361 -0.0865381 -0.00268665
0.005 1.12938e-21 0.00248636 0.0108443 -0.0656509 -0.0158049
-0.00558491 6.77626e-21 0 0 0 0
0.005585 0 -1.29247e-96 0 0 0
-0.00558491 0 3.73997e-05 -0.00220911 -0.00344208 0.000106951
0.005585 0 3.74183e-05 0.00196307 -0.00344737 -2.26248e-05
0.0025 -1.12938e-21 0.005 -0.00192794 -0.0820489 -0.0295906
-0.0025 -2.25875e-21 0.005 -0.0112448 -0.0862441 -0.0134883
-0.00562488 6.77626e-21 0 0 0 0
0.005625 0 -1.48253e-96 0 0 0
-9.80318e-15 1.12938e-21 0.005625 -0.00464497 -0.0847056 -0.0226977
-0.00562487 1.12938e-21 0.000585377 -0.0237278 -0.0481383 0.00093093
0.005625 2.25875e-21 0.000585362 0.0197802 -0.0422099 -0.00162349
0.000625 0 0.005625 -0.00361187 -0.0842732 -0.024817
-0.000625 -1.12938e-21 0.005625 -0.00564184 -0.0850866 -0.020623
-0.00566484 6.77626e-21 0 0 0 0
-0.00566484 6.77626e-21 3.73996e-05 -0.00209562 -0.00322686 0.00011263
0.005665 0 5.52555e-89 0 0 0
0.005665 6.77626e-21 3.74183e-05 0.00206872 -0.00307714 3.64205e-05
-0.00531249 0 0.002164 -0.0282062 -0.086139 -0.00162914
0.0053125 0 0.002164 0.0144735 -0.0642286 -0.0122861
0.0040625 -5.42101e-20 0.00406234 0.0012294 -0.0750321 -0.0292168
-0.0040625 -5.42101e-20 0.00406234 -0.0180724 -0.0870715 -0.00744856
0.0021875 2.71051e-20 0.0053125 -0.00183288 -0.0827583 -0.029464
-0.0021875 5.42101e-20 0.0053125 -0.00935138 -0.0860105 -0.0150609
-0.00562493 -4.51751e-21 0.00120023 -0.030848 -0.076841 0.000466772
0.005625 0 0.00120022 0.0221841 -0.0611995 -0.00511179
0.004375 -1.12938e-21 0.00374964 0.00292029 -0.071842 -0.026604
-0.004375 -1.12938e-21 0.00374964 -0.019949 -0.0871421 -0.00616021
0.00375 -1.12938e-21 0.00437499 0.000284153 -0.0773363 -0.0303512
-0.00375 -1.12938e-21 0.00437499 -0.0160782 -0.0869025 -0.00881168
0.00125 -2.25875e-21 0.005625 -0.00255559 -0.0837688 -0.0269688
-0.00125 -2.25875e-21 0.005625 -0.00659339 -0.0854279 -0.0185983
-0.0046875 -5.42101e-20 0.00343582 -0.0218543 -0.0872157 -0.00494374
0.0046875 -5.42101e-20 0.00343582 0.00490528 -0.0687463 -0.0238373
0.0034375 2.71051e-20 0.0046875 -0.000414256 -0.0794377 -0.0312991
-0.0034375 0 0.0046875 -0.0141183 -0.0867366 -0.0102399
-0.005 0 0.00312179 -0.0236375 -0.0871349 -0.00378426
0.005 0 0.00312179 0.007633 -0.0661875 -0.0198894
0.003125 -1.12938e-21 0.005 -0.000629911 -0.080675 -0.0314354
-0.003125 -2.25875e-21 0.005 -0.012137 -0.0865043 -0.0117003
-0.00562497 2.25875e-21 0.00184151 -0.0297354 -0.084667 -0.00061655
0.005625 0 0.0018415 0.0181971 -0.0635478 -0.00881658
0.001875 -2.25875e-21 0.005625 -0.00149429 -0.0831544 -0.0291252
-0.001875 -2.25875e-21 0.005625 -0.00749045 -0.0857346 -0.0166253
-0.00593726 -2.71051e-20 0.000292374 -0.0163233 -0.0251658 0.000882799
0.0059375 2.71051e-20 0.000292358 0.0161825 -0.0243862 0.000244258
0.0003125 0 0.0059375 -0.00298821 -0.0844345 -0.0244484
-0.0003125 0 0.0059375 -0.00393102 -0.0848167 -0.0223264
-0.00593732 2.71051e-20 0.000892214 -0.0309872 -0.0698993 0.00126422
0.0059375 2.71051e-20 0.000892183 0.0253217 -0.0576859 -0.0025009
-0.0053125 0 0.00280426 -0.0254618 -0.0870502 -0.00269357
0.0053125 0 0.00280426 0.0105912 -0.0641282 -0.016178
0.0028125 -2.71051e-20 0.0053125 -0.000679931 -0.0817561 -0.0315049
-0.0028125 2.71051e-20 0.0053125 -0.0102155 -0.0862784 -0.0132029
-0.0009375 -2.71051e-20 0.0059375 -0.00483681 -0.0851597 -0.0202511
0.0009375 5.42101e-20 0.0059375 -0.00202232 -0.0840011 -0.0266061
-0.00593741 0 0.00152056 -0.0313134 -0.0830916 0.000316879
0.0059375 -2.71051e-20 0.00152054 0.0220086 -0.0628837 -0.0057827
0.0015625 -2.71051e-20 0.0059375 -0.00105195 -0.0834938 -0.0287799
-0.0015625 2.71051e-20 0.0059375 -0.00569466 -0.0854694 -0.0182222
-0.00562499 0 0.00248636 -0.0271523 -0.0866254 -0.00165427
0.005625 0 0.00248636 0.0139389 -0.0633626 -0.0123973
0.0025 -2.25875e-21 0.005625 -0.000445476 -0.0823542 -0.0312263
-0.0025 -1.12938e-21 0.005625 -0.00832599 -0.0860098 -0.0147059
0.004375 -1.12938e-21 0.00437499 0.00209809 -0.0735321 -0.0299235
-0.004375 -1.12938e-21 0.00437499 -0.0168643 -0.0870999 -0.00725591
0.0046875 2.71051e-20 0.00406235 0.00337545 -0.0703564 -0.0275911
-0.0046875 2.71051e-20 0.00406235 -0.0188173 -0.0872507 -0.00599032
0.0040625 0 0.0046875 0.00109101 -0.0766169 -0.0320349
-0.0040625 2.71051e-20 0.0046875 -0.0149315 -0.0869497 -0.00858658
-0.00620969 0 0 0 0 0
-0.00620969 0 3.73858e-05 -0.00209485 -0.00322567 0.000112588
0.00621 0 1.1344e-88 0 0 0
0.00621 0 3.74185e-05 0.00206873 -0.00307715 3.64206e-05
-0.00624963 6.77626e-21 0 0 0 0
-0.005 0 0.00374964 -0.0206564 -0.0873046 -0.0047992
0.005 0 0.00374964 0.00537601 -0.0671305 -0.0236709
0.00375 -1.12938e-21 0.005 0.00067509 -0.0785531 -0.0327172
-0.00375 -1.12938e-21 0.005 -0.0129457 -0.0867307 -0.00997169
0.00625 -6.77626e-21 1.68696e-88 0 0 0
-9.8031e-15 0 0.00625 -0.00223535 -0.0845048 -0.0240044
-0.00624966 1.12938e-21 0.000585395 -0.0233291 -0.0465183 0.0011949
0.00625 1.12938e-21 0.000585362 0.0211112 -0.0394977 -0.000610664
0.000625 -1.12938e-21 0.00625 -0.00135063 -0.0841159 -0.0261544
-0.000625 -1.12938e-21 0.00625 -0.00309549 -0.0848532 -0.0218876
-0.00628955 6.77626e-21 0 0 0 0
-0.00628956 6.77626e-21 3.73863e-05 -0.00194858 -0.0030039 0.000112777
0.00629 0 8.83963e-84 0 0 0
0.00629 -6.77626e-21 3.74186e-05 0.00202444 -0.00266741 8.85159e-05
-0.00593747 -2.71051e-20 0.00216401 -0.0288917 -0.0861708 -0.00069061
0.0059375 -2.71051e-20 0.002164 0.0174153 -0.0627712 -0.00905885
-0.0053125 -2.71051e-20 0.00343582 -0.0225219 -0.0873584 -0.00367335
0.0053125 2.71051e-20 0.00343582 0.0076293 -0.0643743 -0.0198669
0.0034375 0 0.0053125 0.000452292 -0.0802752 -0.0332574
-0.0021875 2.71051e-20 0.0059375 -0.00649708 -0.0857491 -0.0162428
-0.0034375 2.71051e-20 0.0053125 -0.0110078 -0.086515 -0.011402
0.0021875 5.42101e-20 0.0059375 -9.66642e-05 -0.0828684 -0.0309351
-0.00624982 -1.12938e-21 0.00120025 -0.0313192 -0.075957 0.00111144
0.00625 1.12938e-21 0.00120022 0.024726 -0.0593893 -0.00313371
-0.00125 -1.12938e-21 0.00625 -0.00391779 -0.0851687 -0.0198113
0.00125 -3.38813e-21 0.00625 -0.000457836 -0.0836713 -0.0283234
-0.005625 1.12938e-21 0.00312179 -0.0242748 -0.0872519 -0.00260301
0.005625 0 0.00312179 0.0103979 -0.0631762 -0.0157334
0.003125 -3.38813e-21 0.005625 0.000576944 -0.0812177 -0.0331478
-0.003125 0 0.005625 -0.00909574 -0.0862553 -0.0128422
-0.00624994 0 0.00184152 -0.0303917 -0.0845538 0.000238686
0.00625 0 0.0018415 0.0208813 -0.0624468 -0.00604385
0.001875 -2.25875e-21 0.00625 0.000424521 -0.083141 -0.0304865
-0.001875 -1.12938e-21 0.00625 -0.00469237 -0.0854553 -0.0177798
-0.00593749 2.71051e-20 0.00280426 -0.0260625 -0.0871374 -0.00159917
0.0059375 5.42101e-20 0.00280426 0.0132945 -0.0623227 -0.0120501
-0.00656187 0 0.000292393 -0.0151607 -0.0234273 0.000881773
0.0065625 2.71051e-20 0.000292358 0.0159378 -0.0211964 0.000661343
0.0003125 -5.42101e-20 0.0065625 -0.000606341 -0.084209 -0.0256965
-0.0028125 2.71051e-20 0.0059375 -0.00724007 -0.0860012 -0.0143169
0.0028125 5.42101e-20 0.0059375 0.000827591 -0.0820342 -0.0330015
-0.0003125 2.71051e-20 0.0065625 -0.00141585 -0.0845591 -0.0235462
-0.00656205 2.71051e-20 0.00089225 -0.0310624 -0.0682156 0.00175983
0.0065625 0 0.000892183 0.0271467 -0.0551968 -0.000877658
0.0009375 0 0.0065625 0.000214342 -0.0838189 -0.0278667
-0.0009375 5.42101e-20 0.0065625 -0.00219832 -0.0848774 -0.0214267
0.0046875 2.71051e-20 0.0046875 0.00269648 -0.0721236 -0.0308522
-0.0046875 2.71051e-20 0.0046875 -0.0156364 -0.0871277 -0.00699801
0.005 -2.25875e-21 0.00437499 0.00401643 -0.0684233 -0.0271318
-0.005 -1.12938e-21 0.00437499 -0.0175289 -0.087261 -0.00576255
0.004375 -1.12938e-21 0.005 0.0020224 -0.0751074 -0.0326839
-0.004375 -1.12938e-21 0.005 -0.013664 -0.0869243 -0.008303
0.0053125 0 0.00406234 0.00559609 -0.0650431 -0.0233852
-0.0053125 2.71051e-20 0.00406235 -0.0194358 -0.0873935 -0.00458826
0.0040625 0 0.0053125 0.0015713 -0.0778833 -0.0342781
-0.0040625 2.71051e-20 0.0053125 -0.0117253 -0.0867215 -0.00965829
-0.00624999 2.25875e-21 0.00248637 -0.027727 -0.0866628 -0.000648682
0.00625 0 0.00248636 0.0164535 -0.0623714 -0.00880284
0.0025 -1.12938e-21 0.00625 0.00127893 -0.0824639 -0.0325958
-0.0025 -1.12938e-21 0.00625 -0.0054126 -0.085715 -0.0157975
-0.00656229 -2.71051e-20 0.00152059 -0.0319216 -0.0827998 0.00109448
0.0065625 2.71051e-20 0.00152054 0.024389 -0.0618662 -0.00341061
-0.0015625 0 0.0065625 -0.0029414 -0.0851684 -0.0193453
0.0015625 5.42101e-20 0.0065625 0.0010286 -0.0833713 -0.0300409
0.005625 0 0.00374964 0.00776519 -0.063184 -0.0188889
-0.005625 0 0.00374964 -0.0212389 -0.0874284 -0.00348544
0.00375 -2.25875e-21 0.005625 0.00156823 -0.0794402 -0.0346041
-0.00375 0 0.005625 -0.00979662 -0.0864721 -0.0110348
-0.00683411 0 0 0 0 0
-0.00683412 6.77626e-21 3.73639e-05 -0.00194741 -0.0030021 0.00011271
0.006835 0 -9.79174e-82 0 0 0
0.006835 -6.77626e-21 3.74189e-05 0.00202445 -0.00266744 8.85167e-05
0.0059375 2.71051e-20 0.00343582 0.0100879 -0.0618786 -0.0148269
-0.0059375 2.71051e-20 0.00343582 -0.023064 -0.0874605 -0.00244265
0.0034375 5.42101e-20 0.0059375 0.00170785 -0.0808056 -0.0348277
-0.0034375 2.71051e-20 0.0059375 -0.00791972 -0.0862266 -0.0124468
-0.006874 0 0 0 0 0
-9.79465e-15 0 0.006875 0.000233194 -0.0842329 -0.0251707
0.006875 -6.77626e-21 -9.70334e-82 0 0 0
-0.00687415 0 0.000585427 -0.0226366 -0.0447241 0.00142031
0.006875 2.25875e-21 0.000585361 0.0213632 -0.0365258 0.000340682
0.000625 0 0.006875 0.000986834 -0.0838776 -0.0273369
-0.000625 0 0.006875 -0.0005038 -0.0845558 -0.0230234
-0.00656243 0 0.00216402 -0.0294358 -0.0861582 0.000232403
0.0065625 2.71051e-20 0.002164 0.0197053 -0.0622659 -0.0059277
-0.00691384 0 0 0 0 0
-0.00691386 6.77626e-21 3.73655e-05 -0.00177303 -0.00277799 0.000108143
0.006915 -6.77626e-21 -7.6246e-75 0 0 0
0.006915 6.77626e-21 3.74191e-05 0.00184676 -0.0022595 0.000118923
0.0021875 2.71051e-20 0.0065625 0.00181812 -0.0828304 -0.03219
-0.0021875 5.42101e-20 0.0065625 -0.00363636 -0.0854341 -0.0173087
-0.00687455 -2.25875e-21 0.00120029 -0.0315228 -0.0748448 0.00173414
0.006875 1.12938e-21 0.00120022 0.0263964 -0.0575488 -0.00119923
-0.00625 2.25875e-21 0.00312179 -0.0247833 -0.0873257 -0.00145617
0.00625 -1.12938e-21 0.00312179 0.0127111 -0.0620425 -0.0112959
0.00125 -1.12938e-21 0.006875 0.00174108 -0.0834782 -0.0295083
-0.00125 -1.12938e-21 0.006875 -0.00121063 -0.0848518 -0.0209049
0.003125 -2.25875e-21 0.00625 0.00209077 -0.0815135 -0.0345507
-0.003125 0 0.00625 -0.00607377 -0.0859488 -0.0138679
0.005 -2.25875e-21 0.005 0.00344705 -0.0699317 -0.0302149
-0.005 -1.12938e-21 0.005 -0.0142848 -0.0870856 -0.0066934
-0.0053125 0 0.0046875 -0.0162268 -0.0872722 -0.00547344
0.0046875 0 0.0053125 0.00273078 -0.0738068 -0.0335719
0.0053125 0 0.0046875 0.0043978 -0.0661696 -0.0266995
-0.0046875 2.71051e-20 0.0053125 -0.012363 -0.0868982 -0.00796909
-0.00687483 1.12938e-21 0.00184153 -0.030889 -0.0843494 0.00108496
0.006875 1.12938e-21 0.0018415 0.0229172 -0.0618651 -0.00341917
0.005625 -1.12938e-21 0.00437499 0.0059797 -0.0634595 -0.021912
-0.005625 -2.25875e-21 0.00437499 -0.018076 -0.0873875 -0.00432481
0.004375 0 0.005625 0.00255122 -0.0764269 -0.0349219
0.001875 -1.12938e-21 0.006875 0.00247845 -0.0830108 -0.0316635
-0.001875 -3.38813e-21 0.006875 -0.00187695 -0.0851235 -0.018823