# Moment      
# CofR        : (0.000000e+00 0.000000e+00 0.000000e+00)
#
# Time        	(total_x total_y total_z)	(pressure_x pressure_y pressure_z)	(viscous_x viscous_y viscous_z)
5001          	(1.448264e-04 4.121325e-02 7.031708e-05)	(1.440566e-04 4.093372e-02 7.010418e-05)	(7.698675e-07 2.795297e-04 2.129025e-07)
5002          	(1.585862e-04 6.753396e-02 1.366802e-04)	(1.576540e-04 6.718086e-02 1.366863e-04)	(9.321344e-07 3.530987e-04 -6.019120e-09)
5003          	(1.823201e-04 6.917739e-02 1.199508e-04)	(1.808873e-04 6.873867e-02 1.200331e-04)	(1.432834e-06 4.387208e-04 -8.236449e-08)
5004          	(1.332213e-04 5.564016e-02 4.406532e-05)	(1.315220e-04 5.516352e-02 4.410699e-05)	(1.699250e-06 4.766394e-04 -4.167172e-08)
5005          	(8.869754e-05 3.399998e-02 -8.886967e-05)	(8.713804e-05 3.354531e-02 -8.920371e-05)	(1.559506e-06 4.546699e-04 3.340341e-07)
5006          	(4.017559e-05 1.246466e-02 -2.168689e-04)	(3.949676e-05 1.210530e-02 -2.168124e-04)	(6.788318e-07 3.593585e-04 -5.642951e-08)
5007          	(2.496893e-05 -2.762492e-03 -2.309235e-04)	(2.469538e-05 -3.022058e-03 -2.298501e-04)	(2.735449e-07 2.595653e-04 -1.073376e-06)
5008          	(2.083431e-05 -9.636295e-03 -2.021840e-04)	(2.083733e-05 -9.804695e-03 -2.015888e-04)	(-3.016798e-09 1.684008e-04 -5.952034e-07)
5009          	(4.423816e-05 -9.191359e-03 2.412290e-05)	(4.419017e-05 -9.294821e-03 2.440767e-05)	(4.798342e-08 1.034622e-04 -2.847660e-07)
5010          	(3.847142e-05 -3.599174e-03 1.083518e-04)	(3.825146e-05 -3.673831e-03 1.083281e-04)	(2.199645e-07 7.465621e-05 2.370275e-08)
5011          	(7.989160e-05 5.683479e-03 2.575910e-04)	(7.922044e-05 5.604419e-03 2.569676e-04)	(6.711527e-07 7.905964e-05 6.233564e-07)
5012          	(3.791183e-05 1.194688e-02 2.356959e-04)	(3.690493e-05 1.184251e-02 2.347939e-04)	(1.006901e-06 1.043686e-04 9.020473e-07)
5013          	(-5.298017e-06 1.622246e-02 1.265601e-04)	(-6.280354e-06 1.608846e-02 1.255536e-04)	(9.823368e-07 1.339961e-04 1.006462e-06)
5014          	(-3.284240e-05 1.789593e-02 4.965994e-05)	(-3.366488e-05 1.773671e-02 4.884347e-05)	(8.224831e-07 1.592172e-04 8.164665e-07)
5015          	(-2.151154e-05 1.833224e-02 -1.132952e-04)	(-2.205464e-05 1.815459e-02 -1.136565e-04)	(5.430984e-07 1.776504e-04 3.612687e-07)
5016          	(-3.621818e-05 1.706331e-02 -2.142672e-04)	(-3.630387e-05 1.687597e-02 -2.140004e-04)	(8.568843e-08 1.873384e-04 -2.668311e-07)
5017          	(-5.011769e-05 1.503438e-02 -2.589190e-04)	(-4.977329e-05 1.484746e-02 -2.581303e-04)	(-3.444017e-07 1.869274e-04 -7.886599e-07)
5018          	(-5.436209e-05 1.326283e-02 -2.776082e-04)	(-5.378897e-05 1.308230e-02 -2.764175e-04)	(-5.731208e-07 1.805334e-04 -1.190744e-06)
5019          	(-5.290210e-05 1.208622e-02 -2.352126e-04)	(-5.228062e-05 1.191452e-02 -2.338476e-04)	(-6.214825e-07 1.717016e-04 -1.364967e-06)
5020          	(-4.361256e-05 1.182647e-02 -1.773007e-04)	(-4.307425e-05 1.166221e-02 -1.759322e-04)	(-5.383098e-07 1.642562e-04 -1.368449e-06)
5021          	(-6.077059e-05 1.152758e-02 -9.587097e-05)	(-6.036800e-05 1.136968e-02 -9.468774e-05)	(-4.025877e-07 1.579002e-04 -1.183238e-06)
5022          	(-4.674762e-05 1.234427e-02 -1.367793e-05)	(-4.649781e-05 1.218774e-02 -1.271212e-05)	(-2.498185e-07 1.565289e-04 -9.658146e-07)
5023          	(-2.200505e-05 1.363495e-02 3.926453e-05)	(-2.196828e-05 1.347394e-02 3.997307e-05)	(-3.676979e-08 1.610137e-04 -7.085421e-07)
5024          	(-2.626096e-05 1.466929e-02 6.126356e-05)	(-2.635132e-05 1.450049e-02 6.188185e-05)	(9.035867e-08 1.688075e-04 -6.182941e-07)
5025          	(-4.194365e-05 1.539138e-02 1.171730e-04)	(-4.205151e-05 1.521344e-02 1.178032e-04)	(1.078631e-07 1.779450e-04 -6.301979e-07)
5026          	(-1.136480e-04 1.551986e-02 -8.957163e-05)	(-1.134297e-04 1.533357e-02 -8.854610e-05)	(-2.183221e-07 1.862960e-04 -1.025535e-06)
5027          	(-1.350793e-04 1.554555e-02 -1.179651e-04)	(-1.344230e-04 1.535217e-02 -1.168544e-04)	(-6.562480e-07 1.933857e-04 -1.110663e-06)
5028          	(-1.409049e-04 1.559915e-02 -1.205565e-04)	(-1.399205e-04 1.539910e-02 -1.194071e-04)	(-9.844811e-07 2.000529e-04 -1.149350e-06)
5029          	(-1.389614e-04 1.566047e-02 -1.176370e-04)	(-1.377006e-04 1.545429e-02 -1.165104e-04)	(-1.260825e-06 2.061794e-04 -1.126538e-06)
5030          	(-1.320131e-04 1.579528e-02 -1.342302e-04)	(-1.305401e-04 1.558286e-02 -1.330841e-04)	(-1.472947e-06 2.124215e-04 -1.146116e-06)
5031          	(-1.180380e-04 1.597466e-02 -1.265977e-04)	(-1.164450e-04 1.575567e-02 -1.254271e-04)	(-1.593016e-06 2.189855e-04 -1.170592e-06)
5032          	(-1.035651e-04 1.597949e-02 -1.544375e-04)	(-1.018861e-04 1.575471e-02 -1.532136e-04)	(-1.678962e-06 2.247785e-04 -1.223903e-06)
5033          	(-8.889764e-05 1.611754e-02 -1.510562e-04)	(-8.718092e-05 1.588722e-02 -1.498002e-04)	(-1.716718e-06 2.303162e-04 -1.255993e-06)
5034          	(-7.273452e-05 1.632163e-02 -1.315618e-04)	(-7.100723e-05 1.608557e-02 -1.303545e-04)	(-1.727286e-06 2.360609e-04 -1.207243e-06)
5035          	(-4.969304e-05 1.649485e-02 -9.322501e-05)	(-4.799710e-05 1.625298e-02 -9.214557e-05)	(-1.695941e-06 2.418711e-04 -1.079448e-06)
5036          	(-1.960975e-05 1.653642e-02 -3.066535e-05)	(-1.804005e-05 1.628927e-02 -2.984643e-05)	(-1.569697e-06 2.471486e-04 -8.189212e-07)
5037          	(-2.737741e-06 1.663481e-02 -4.179230e-05)	(-1.322691e-06 1.638268e-02 -4.112400e-05)	(-1.415050e-06 2.521276e-04 -6.682999e-07)
5038          	(1.644146e-05 1.663633e-02 -3.420702e-05)	(1.765173e-05 1.638019e-02 -3.371430e-05)	(-1.210262e-06 2.561420e-04 -4.927194e-07)
5039          	(3.677734e-05 1.654570e-02 6.345686e-05)	(3.779700e-05 1.628692e-02 6.355496e-05)	(-1.019658e-06 2.587839e-04 -9.810215e-08)
5040          	(4.353761e-05 1.638278e-02 6.901628e-05)	(4.435139e-05 1.612315e-02 6.888944e-05)	(-8.137839e-07 2.596367e-04 1.268390e-07)
5041          	(3.342071e-05 1.612175e-02 1.030276e-04)	(3.410166e-05 1.586271e-02 1.025968e-04)	(-6.809514e-07 2.590363e-04 4.308427e-07)
5042          	(2.501326e-05 1.596461e-02 9.422091e-05)	(2.559035e-05 1.570742e-02 9.362770e-05)	(-5.770921e-07 2.571867e-04 5.932192e-07)
5043          	(1.114248e-05 1.586297e-02 8.394449e-05)	(1.172878e-05 1.560827e-02 8.322473e-05)	(-5.862967e-07 2.546987e-04 7.197550e-07)
5044          	(-5.917445e-06 1.577308e-02 6.305527e-05)	(-5.218972e-06 1.552128e-02 6.230488e-05)	(-6.984736e-07 2.517963e-04 7.503849e-07)
5045          	(-2.109380e-05 1.565169e-02 1.572745e-05)	(-2.022464e-05 1.540289e-02 1.511815e-05)	(-8.691577e-07 2.487970e-04 6.093056e-07)
5046          	(-3.595588e-05 1.566795e-02 -1.293572e-05)	(-3.484218e-05 1.542203e-02 -1.333399e-05)	(-1.113707e-06 2.459212e-04 3.982671e-07)
5047          	(-4.826808e-05 1.569292e-02 -4.626379e-05)	(-4.688092e-05 1.544922e-02 -4.638265e-05)	(-1.387159e-06 2.436914e-04 1.188606e-07)
5048          	(-5.691806e-05 1.572673e-02 -8.501949e-05)	(-5.529252e-05 1.548440e-02 -8.479530e-05)	(-1.625542e-06 2.423303e-04 -2.241884e-07)
5049          	(-6.100854e-05 1.576817e-02 -1.230073e-04)	(-5.918333e-05 1.552628e-02 -1.223964e-04)	(-1.825213e-06 2.418850e-04 -6.109373e-07)
5050          	(-3.441326e-05 1.586640e-02 -1.208181e-04)	(-3.255769e-05 1.562385e-02 -1.198679e-04)	(-1.855577e-06 2.425524e-04 -9.501265e-07)
5051          	(-3.405683e-05 1.591806e-02 -1.416723e-04)	(-3.221029e-05 1.567445e-02 -1.403879e-04)	(-1.846537e-06 2.436089e-04 -1.284430e-06)
5052          	(-3.068198e-05 1.596895e-02 -1.502027e-04)	(-2.883960e-05 1.572414e-02 -1.487056e-04)	(-1.842379e-06 2.448066e-04 -1.497083e-06)
5053          	(6.639583e-06 1.598524e-02 -2.396260e-05)	(8.265958e-06 1.573931e-02 -2.269215e-05)	(-1.626375e-06 2.459326e-04 -1.270457e-06)
5054          	(5.800336e-06 1.601055e-02 -3.185465e-05)	(7.279380e-06 1.576362e-02 -3.070646e-05)	(-1.479044e-06 2.469325e-04 -1.148196e-06)
5055          	(5.383766e-06 1.601636e-02 -3.045340e-05)	(6.784862e-06 1.576877e-02 -2.944333e-05)	(-1.401096e-06 2.475957e-04 -1.010072e-06)
5056          	(5.532069e-06 1.599997e-02 -2.089151e-05)	(6.893533e-06 1.575209e-02 -2.007521e-05)	(-1.361464e-06 2.478865e-04 -8.163063e-07)
5057          	(6.235099e-06 1.596022e-02 -1.746885e-06)	(7.562657e-06 1.571256e-02 -1.221301e-06)	(-1.327559e-06 2.476658e-04 -5.255842e-07)
5058          	(7.700329e-06 1.577385e-02 4.632276e-05)	(8.969873e-06 1.552746e-02 4.639108e-05)	(-1.269545e-06 2.463898e-04 -6.832048e-08)
5059          	(3.834379e-06 1.570997e-02 6.507031e-05)	(5.002201e-06 1.546523e-02 6.471712e-05)	(-1.167822e-06 2.447368e-04 3.531912e-07)
5060          	(-3.575405e-06 1.563755e-02 8.278879e-05)	(-2.466379e-06 1.539492e-02 8.205788e-05)	(-1.109026e-06 2.426339e-04 7.309067e-07)
5061          	(-1.416603e-05 1.556030e-02 9.824970e-05)	(-1.311482e-05 1.532002e-02 9.722220e-05)	(-1.051205e-06 2.402772e-04 1.027499e-06)
5062          	(-2.769232e-05 1.548059e-02 1.090200e-04)	(-2.669127e-05 1.524283e-02 1.077897e-04)	(-1.001052e-06 2.377594e-04 1.230285e-06)
5063          	(-4.381483e-05 1.535350e-02 1.096867e-04)	(-4.283497e-05 1.511847e-02 1.083709e-04)	(-9.798670e-07 2.350303e-04 1.315841e-06)
5064          	(-6.019994e-05 1.522766e-02 1.049317e-04)	(-5.920754e-05 1.499543e-02 1.036538e-04)	(-9.924064e-07 2.322303e-04 1.277882e-06)
5065          	(-7.490655e-05 1.511305e-02 9.390003e-05)	(-7.387487e-05 1.488354e-02 9.275952e-05)	(-1.031686e-06 2.295105e-04 1.140507e-06)
5066          	(-8.659008e-05 1.502094e-02 7.846251e-05)	(-8.551153e-05 1.479397e-02 7.752201e-05)	(-1.078540e-06 2.269680e-04 9.404945e-07)
5067          	(-9.430675e-05 1.495086e-02 6.018586e-05)	(-9.318520e-05 1.472621e-02 5.949216e-05)	(-1.121559e-06 2.246411e-04 6.937069e-07)
5068          	(-9.737993e-05 1.490090e-02 4.208431e-05)	(-9.622455e-05 1.467835e-02 4.164750e-05)	(-1.155383e-06 2.225491e-04 4.368091e-07)
5069          	(-9.533215e-05 1.485973e-02 2.222495e-05)	(-9.415563e-05 1.463907e-02 2.203632e-05)	(-1.176516e-06 2.206587e-04 1.886326e-07)
5070          	(-8.854283e-05 1.483322e-02 -5.456264e-06)	(-8.736150e-05 1.461426e-02 -5.405276e-06)	(-1.181326e-06 2.189605e-04 -5.098856e-08)
5071          	(-7.677883e-05 1.480074e-02 -3.021868e-05)	(-7.561900e-05 1.458337e-02 -2.994483e-05)	(-1.159828e-06 2.173698e-04 -2.738471e-07)
5072          	(-6.107214e-05 1.475969e-02 -4.903017e-05)	(-5.995878e-05 1.454386e-02 -4.857501e-05)	(-1.113357e-06 2.158226e-04 -4.551646e-07)
5073          	(-4.276747e-05 1.470846e-02 -5.943445e-05)	(-4.173212e-05 1.449419e-02 -5.886504e-05)	(-1.035352e-06 2.142731e-04 -5.694113e-07)
5074          	(-2.322313e-05 1.464697e-02 -6.042420e-05)	(-2.229753e-05 1.443431e-02 -5.982671e-05)	(-9.255948e-07 2.126547e-04 -5.974827e-07)
5075          	(-3.877249e-06 1.457347e-02 -5.101323e-05)	(-3.085714e-06 1.436257e-02 -5.048564e-05)	(-7.915350e-07 2.109022e-04 -5.275831e-07)
5076          	(1.411062e-05 1.448981e-02 -3.295536e-05)	(1.475807e-05 1.428083e-02 -3.259774e-05)	(-6.474494e-07 2.089847e-04 -3.576143e-07)
5077          	(2.950980e-05 1.439799e-02 -8.583656e-06)	(3.001071e-05 1.419108e-02 -8.483862e-06)	(-5.009070e-07 2.069105e-04 -9.979380e-08)
5078          	(4.118080e-05 1.430095e-02 1.903605e-05)	(4.153793e-05 1.409626e-02 1.880180e-05)	(-3.571245e-07 2.046983e-04 2.342446e-07)
5079          	(4.813336e-05 1.420207e-02 4.668240e-05)	(4.834688e-05 1.399970e-02 4.605819e-05)	(-2.135203e-07 2.023709e-04 6.242052e-07)
5080          	(4.984767e-05 1.410472e-02 7.132714e-05)	(4.992439e-05 1.390477e-02 7.030862e-05)	(-7.671792e-08 1.999506e-04 1.018522e-06)
5081          	(4.643381e-05 1.401171e-02 9.077662e-05)	(4.639964e-05 1.381423e-02 8.939803e-05)	(3.417259e-08 1.974741e-04 1.378589e-06)
5082          	(3.887523e-05 1.392376e-02 1.037129e-04)	(3.876159e-05 1.372877e-02 1.020403e-04)	(1.136393e-07 1.949833e-04 1.672565e-06)
5083          	(2.856650e-05 1.384449e-02 1.104117e-04)	(2.841348e-05 1.365195e-02 1.085332e-04)	(1.530225e-07 1.925326e-04 1.878460e-06)
5084          	(1.757179e-05 1.377565e-02 1.089832e-04)	(1.742415e-05 1.358547e-02 1.070007e-04)	(1.476340e-07 1.901863e-04 1.982480e-06)
5085          	(7.245051e-06 1.371877e-02 1.009173e-04)	(7.131017e-06 1.353077e-02 9.892549e-05)	(1.140344e-07 1.879947e-04 1.991765e-06)
5086          	(-1.371898e-06 1.367467e-02 8.717228e-05)	(-1.442709e-06 1.348868e-02 8.525936e-05)	(7.081102e-08 1.859956e-04 1.912922e-06)
5087          	(-4.279947e-06 1.355351e-02 6.268660e-05)	(-4.311053e-06 1.336964e-02 6.094752e-05)	(3.110640e-08 1.838674e-04 1.739077e-06)
5088          	(-8.906092e-06 1.354271e-02 4.285010e-05)	(-8.883336e-06 1.336061e-02 4.133308e-05)	(-2.275664e-08 1.820980e-04 1.517022e-06)
5089          	(-8.176537e-06 1.351964e-02 -9.676813e-07)	(-8.081298e-06 1.333901e-02 -2.149555e-06)	(-9.523855e-08 1.806348e-04 1.181874e-06)
5090          	(-6.212627e-06 1.355113e-02 -2.768347e-05)	(-6.040240e-06 1.337154e-02 -2.850861e-05)	(-1.723869e-07 1.795878e-04 8.251365e-07)
5091          	(-1.040825e-06 1.357608e-02 -5.031816e-05)	(-8.004482e-07 1.339720e-02 -5.079300e-05)	(-2.403771e-07 1.788757e-04 4.748384e-07)
5092          	(6.759351e-06 1.356610e-02 -6.613258e-05)	(7.051001e-06 1.338783e-02 -6.629361e-05)	(-2.916496e-07 1.782757e-04 1.610315e-07)
5093          	(1.679146e-05 1.355259e-02 -8.036280e-05)	(1.711458e-05 1.337482e-02 -8.025017e-05)	(-3.231153e-07 1.777619e-04 -1.126326e-07)
5094          	(2.824426e-05 1.353491e-02 -9.116072e-05)	(2.857636e-05 1.335758e-02 -9.082677e-05)	(-3.320968e-07 1.773255e-04 -3.339506e-07)
5095          	(4.005495e-05 1.351298e-02 -9.600639e-05)	(4.037172e-05 1.333605e-02 -9.551500e-05)	(-3.167666e-07 1.769292e-04 -4.913899e-07)
5096          	(5.113665e-05 1.348740e-02 -9.492529e-05)	(5.141637e-05 1.331086e-02 -9.434170e-05)	(-2.797226e-07 1.765408e-04 -5.835953e-07)
5097          	(6.087869e-05 1.345965e-02 -8.796409e-05)	(6.110134e-05 1.328351e-02 -8.735321e-05)	(-2.226424e-07 1.761401e-04 -6.108841e-07)
5098          	(6.899694e-05 1.343134e-02 -7.590671e-05)	(6.914840e-05 1.325562e-02 -7.534029e-05)	(-1.514615e-07 1.757112e-04 -5.664113e-07)
5099          	(7.523460e-05 1.340401e-02 -5.993069e-05)	(7.530344e-05 1.322877e-02 -5.947670e-05)	(-6.883568e-08 1.752418e-04 -4.539892e-07)
5100          	(7.942196e-05 1.337917e-02 -4.149702e-05)	(7.939957e-05 1.320445e-02 -4.120326e-05)	(2.238878e-08 1.747242e-04 -2.937599e-07)
5101          	(8.164104e-05 1.335813e-02 -2.226460e-05)	(8.151827e-05 1.318397e-02 -2.214972e-05)	(1.227699e-07 1.741628e-04 -1.148794e-07)
5102          	(8.212128e-05 1.334199e-02 -3.834848e-06)	(8.189236e-05 1.316842e-02 -3.895826e-06)	(2.289176e-07 1.735730e-04 6.097801e-08)
5103          	(8.109809e-05 1.333157e-02 1.238488e-05)	(8.076170e-05 1.315859e-02 1.217044e-05)	(3.363863e-07 1.729771e-04 2.144355e-07)
5104          	(7.860591e-05 1.332725e-02 2.556805e-05)	(7.816871e-05 1.315485e-02 2.523905e-05)	(4.371974e-07 1.724019e-04 3.289993e-07)
5105          	(7.448362e-05 1.332901e-02 3.540626e-05)	(7.395147e-05 1.315714e-02 3.500147e-05)	(5.321462e-07 1.718725e-04 4.047913e-07)
5106          	(6.860805e-05 1.333653e-02 4.176009e-05)	(6.798825e-05 1.316512e-02 4.132530e-05)	(6.197985e-07 1.714053e-04 4.347915e-07)
5107          	(6.112136e-05 1.335099e-02 4.493117e-05)	(6.042618e-05 1.317997e-02 4.451207e-05)	(6.951784e-07 1.710182e-04 4.190979e-07)
5108          	(5.199756e-05 1.337272e-02 4.370336e-05)	(5.124702e-05 1.320200e-02 4.334357e-05)	(7.505389e-07 1.707265e-04 3.597925e-07)
5109          	(4.143703e-05 1.341552e-02 3.234797e-05)	(4.065924e-05 1.324493e-02 3.210402e-05)	(7.777949e-07 1.705886e-04 2.439554e-07)
5110          	(3.119793e-05 1.347779e-02 3.273207e-05)	(3.041282e-05 1.330715e-02 3.260688e-05)	(7.851058e-07 1.706476e-04 1.251933e-07)
5111          	(1.865966e-05 1.349658e-02 2.156402e-05)	(1.790534e-05 1.332589e-02 2.157713e-05)	(7.543228e-07 1.706905e-04 -1.310986e-08)
5112          	(6.228464e-06 1.351603e-02 8.937401e-06)	(5.539305e-06 1.334532e-02 9.106318e-06)	(6.891591e-07 1.707142e-04 -1.689171e-07)
5113          	(-5.087063e-06 1.354303e-02 -1.158647e-05)	(-5.678342e-06 1.337224e-02 -1.123149e-05)	(5.912795e-07 1.707918e-04 -3.549794e-07)
5114          	(-1.574848e-05 1.357067e-02 -3.196360e-05)	(-1.621397e-05 1.339975e-02 -3.140771e-05)	(4.654927e-07 1.709235e-04 -5.558864e-07)
5115          	(-2.516047e-05 1.359821e-02 -4.597905e-05)	(-2.548347e-05 1.342711e-02 -4.524041e-05)	(3.229968e-07 1.711006e-04 -7.386374e-07)
5116          	(-3.208017e-05 1.362662e-02 -5.352183e-05)	(-3.225975e-05 1.345530e-02 -5.263763e-05)	(1.795850e-07 1.713239e-04 -8.842077e-07)
5117          	(-3.626832e-05 1.365511e-02 -5.468279e-05)	(-3.631481e-05 1.348352e-02 -5.370231e-05)	(4.649233e-08 1.715895e-04 -9.804813e-07)
5118          	(-3.790176e-05 1.368380e-02 -5.006662e-05)	(-3.783321e-05 1.351191e-02 -4.904708e-05)	(-6.854809e-08 1.718929e-04 -1.019544e-06)
5119          	(-3.738149e-05 1.371299e-02 -4.042996e-05)	(-3.722055e-05 1.354076e-02 -3.943230e-05)	(-1.609440e-07 1.722296e-04 -9.976618e-07)
5120          	(-3.527621e-05 1.374231e-02 -2.749285e-05)	(-3.504538e-05 1.356972e-02 -2.657485e-05)	(-2.308309e-07 1.725910e-04 -9.180031e-07)
5121          	(-3.219497e-05 1.377169e-02 -1.296673e-05)	(-3.191670e-05 1.359872e-02 -1.217228e-05)	(-2.782701e-07 1.729679e-04 -7.944504e-07)
5122          	(-2.865831e-05 1.380512e-02 1.301037e-06)	(-2.835211e-05 1.363176e-02 1.949129e-06)	(-3.061946e-07 1.733680e-04 -6.480912e-07)
5123          	(-1.912817e-05 1.390429e-02 2.981309e-05)	(-1.884698e-05 1.373026e-02 3.028491e-05)	(-2.811940e-07 1.740325e-04 -4.718195e-07)
5124          	(-1.842849e-05 1.392513e-02 3.722642e-05)	(-1.815749e-05 1.375053e-02 3.754400e-05)	(-2.709985e-07 1.745934e-04 -3.175843e-07)
5125          	(-1.940699e-05 1.393907e-02 3.967498e-05)	(-1.913119e-05 1.376402e-02 3.987150e-05)	(-2.757973e-07 1.750499e-04 -1.965263e-07)
5126          	(-2.205196e-05 1.395526e-02 3.994668e-05)	(-2.176213e-05 1.377980e-02 4.006013e-05)	(-2.898343e-07 1.754578e-04 -1.134480e-07)
5127          	(-2.642035e-05 1.397635e-02 3.868703e-05)	(-2.610263e-05 1.380049e-02 3.875262e-05)	(-3.177191e-07 1.758595e-04 -6.559140e-08)
5128          	(-3.260618e-05 1.400902e-02 3.650491e-05)	(-3.224345e-05 1.383272e-02 3.655670e-05)	(-3.627283e-07 1.763069e-04 -5.178947e-08)
5129          	(-4.181484e-05 1.408247e-02 2.883801e-05)	(-4.138289e-05 1.390551e-02 2.893339e-05)	(-4.319448e-07 1.769523e-04 -9.538391e-08)
5130          	(-4.896735e-05 1.411319e-02 2.330304e-05)	(-4.846849e-05 1.393561e-02 2.346395e-05)	(-4.988563e-07 1.775760e-04 -1.609037e-07)
5131          	(-5.585745e-05 1.413559e-02 1.669494e-05)	(-5.528557e-05 1.395742e-02 1.693968e-05)	(-5.718708e-07 1.781706e-04 -2.447314e-07)
5132          	(-6.211745e-05 1.415987e-02 1.025787e-05)	(-6.147396e-05 1.398111e-02 1.059345e-05)	(-6.434930e-07 1.787607e-04 -3.355818e-07)
5133          	(-6.756386e-05 1.419637e-02 3.397018e-06)	(-6.684775e-05 1.401697e-02 3.826667e-06)	(-7.161126e-07 1.794037e-04 -4.296493e-07)
5134          	(-7.537924e-05 1.426988e-02 -3.255006e-06)	(-7.457315e-05 1.408965e-02 -2.736054e-06)	(-8.060944e-07 1.802268e-04 -5.189524e-07)
5135          	(-7.676249e-05 1.428658e-02 -6.688448e-06)	(-7.588504e-05 1.410562e-02 -6.101972e-06)	(-8.774482e-07 1.809576e-04 -5.864756e-07)
5136          	(-7.687367e-05 1.430201e-02 -7.859625e-06)	(-7.593156e-05 1.412039e-02 -7.214509e-06)	(-9.421048e-07 1.816181e-04 -6.451164e-07)
5137          	(-7.608215e-05 1.431696e-02 -6.439183e-06)	(-7.508741e-05 1.413472e-02 -5.762202e-06)	(-9.947435e-07 1.822351e-04 -6.769804e-07)
5138          	(-7.777506e-05 1.435766e-02 7.282444e-06)	(-7.672939e-05 1.417476e-02 7.925737e-06)	(-1.045666e-06 1.829046e-04 -6.432929e-07)
5139          	(-7.498722e-05 1.436899e-02 8.722696e-06)	(-7.391281e-05 1.418549e-02 9.316179e-06)	(-1.074406e-06 1.835077e-04 -5.934832e-07)
5140          	(-7.186863e-05 1.437986e-02 1.105500e-05)	(-7.077615e-05 1.419581e-02 1.159767e-05)	(-1.092474e-06 1.840484e-04 -5.426694e-07)
5141          	(-6.873530e-05 1.439053e-02 1.444771e-05)	(-6.763319e-05 1.420599e-02 1.492348e-05)	(-1.102109e-06 1.845402e-04 -4.757697e-07)
5142          	(-6.677467e-05 1.442210e-02 2.602908e-05)	(-6.567048e-05 1.423705e-02 2.639828e-05)	(-1.104194e-06 1.850501e-04 -3.691994e-07)
5143          	(-6.376270e-05 1.443148e-02 2.812631e-05)	(-6.266783e-05 1.424598e-02 2.839039e-05)	(-1.094876e-06 1.855028e-04 -2.640776e-07)
5144          	(-6.105353e-05 1.444011e-02 2.991089e-05)	(-5.996958e-05 1.425423e-02 3.008697e-05)	(-1.083955e-06 1.858893e-04 -1.760752e-07)
5145          	(-5.879167e-05 1.444819e-02 3.141655e-05)	(-5.772080e-05 1.426196e-02 3.151151e-05)	(-1.070873e-06 1.862278e-04 -9.496115e-08)
5146          	(-5.669532e-05 1.446659e-02 4.008714e-05)	(-5.564275e-05 1.428004e-02 4.008371e-05)	(-1.052570e-06 1.865417e-04 3.434971e-09)
5147          	(-5.543773e-05 1.447296e-02 3.912486e-05)	(-5.440405e-05 1.428614e-02 3.903747e-05)	(-1.033678e-06 1.868195e-04 8.739198e-08)
5148          	(-5.460262e-05 1.447921e-02 3.875579e-05)	(-5.358416e-05 1.429215e-02 3.860546e-05)	(-1.018463e-06 1.870541e-04 1.503367e-07)
5149          	(-5.433354e-05 1.448309e-02 3.820090e-05)	(-5.332825e-05 1.429583e-02 3.800068e-05)	(-1.005284e-06 1.872530e-04 2.002264e-07)
5150          	(-5.379713e-05 1.446814e-02 3.819969e-05)	(-5.280178e-05 1.428082e-02 3.796776e-05)	(-9.953438e-07 1.873239e-04 2.319230e-07)
5151          	(-5.504156e-05 1.446802e-02 3.631181e-05)	(-5.405345e-05 1.428062e-02 3.606460e-05)	(-9.881131e-07 1.874006e-04 2.472047e-07)
5152          	(-5.685132e-05 1.446555e-02 3.448328e-05)	(-5.586514e-05 1.427808e-02 3.423189e-05)	(-9.861742e-07 1.874710e-04 2.513894e-07)
5153          	(-5.909707e-05 1.446075e-02 3.299557e-05)	(-5.810774e-05 1.427323e-02 3.274898e-05)	(-9.893280e-07 1.875248e-04 2.465881e-07)
5154          	(-6.092764e-05 1.443892e-02 3.323156e-05)	(-5.992533e-05 1.425144e-02 3.299971e-05)	(-1.002312e-06 1.874786e-04 2.318521e-07)
5155          	(-6.374690e-05 1.443238e-02 3.163222e-05)	(-6.273246e-05 1.424492e-02 3.142321e-05)	(-1.014443e-06 1.874586e-04 2.090164e-07)
5156          	(-6.648868e-05 1.442515e-02 3.042723e-05)	(-6.546198e-05 1.423771e-02 3.024051e-05)	(-1.026701e-06 1.874428e-04 1.867212e-07)
5157          	(-6.895110e-05 1.441745e-02 2.971135e-05)	(-6.791352e-05 1.423002e-02 2.954658e-05)	(-1.037578e-06 1.874286e-04 1.647707e-07)
5158          	(-7.159494e-05 1.440097e-02 2.982570e-05)	(-7.053926e-05 1.421360e-02 2.968029e-05)	(-1.055681e-06 1.873637e-04 1.454110e-07)
5159          	(-7.323147e-05 1.439468e-02 2.943866e-05)	(-7.216537e-05 1.420735e-02 2.931168e-05)	(-1.066100e-06 1.873267e-04 1.269805e-07)
5160          	(-7.458196e-05 1.438895e-02 2.907875e-05)	(-7.351034e-05 1.420165e-02 2.896914e-05)	(-1.071621e-06 1.872948e-04 1.096108e-07)
5161          	(-7.727007e-05 1.437941e-02 2.726256e-05)	(-7.618492e-05 1.419216e-02 2.716576e-05)	(-1.085146e-06 1.872432e-04 9.680254e-08)
5162          	(-7.811047e-05 1.437577e-02 2.636612e-05)	(-7.701795e-05 1.418855e-02 2.627785e-05)	(-1.092517e-06 1.872143e-04 8.827431e-08)
5163          	(-7.894592e-05 1.437302e-02 2.505115e-05)	(-7.784911e-05 1.418583e-02 2.497404e-05)	(-1.096813e-06 1.871916e-04 7.710724e-08)
5164          	(-7.991917e-05 1.437118e-02 2.330233e-05)	(-7.881762e-05 1.418400e-02 2.323562e-05)	(-1.101548e-06 1.871780e-04 6.671025e-08)
5165          	(-8.346044e-05 1.437198e-02 1.962747e-05)	(-8.234200e-05 1.418480e-02 1.956827e-05)	(-1.118445e-06 1.871777e-04 5.920363e-08)
5166          	(-8.434855e-05 1.437263e-02 1.805543e-05)	(-8.321736e-05 1.418544e-02 1.800036e-05)	(-1.131187e-06 1.871890e-04 5.507122e-08)
5167          	(-8.530277e-05 1.437434e-02 1.671315e-05)	(-8.415868e-05 1.418713e-02 1.666670e-05)	(-1.144093e-06 1.872083e-04 4.645068e-08)
5168          	(-8.636648e-05 1.437707e-02 1.581681e-05)	(-8.520907e-05 1.418983e-02 1.577961e-05)	(-1.157405e-06 1.872415e-04 3.719546e-08)
5169          	(-8.751876e-05 1.438108e-02 1.562698e-05)	(-8.634730e-05 1.419379e-02 1.559877e-05)	(-1.171456e-06 1.872918e-04 2.820956e-08)
5170          	(-9.105358e-05 1.439631e-02 1.615046e-05)	(-8.985873e-05 1.420890e-02 1.612991e-05)	(-1.194853e-06 1.874080e-04 2.054592e-08)
5171          	(-9.182537e-05 1.440051e-02 1.723723e-05)	(-9.061218e-05 1.421299e-02 1.722291e-05)	(-1.213191e-06 1.875208e-04 1.432819e-08)
5172          	(-9.260324e-05 1.440553e-02 1.890931e-05)	(-9.137332e-05 1.421789e-02 1.889935e-05)	(-1.229915e-06 1.876354e-04 9.962649e-09)
5173          	(-9.352820e-05 1.441102e-02 2.096899e-05)	(-9.228366e-05 1.422326e-02 2.096377e-05)	(-1.244536e-06 1.877611e-04 5.212856e-09)
5174          	(-9.467231e-05 1.441705e-02 2.331079e-05)	(-9.341495e-05 1.422915e-02 2.331114e-05)	(-1.257354e-06 1.879014e-04 -3.521227e-10)
5175          	(-9.606421e-05 1.442367e-02 2.581185e-05)	(-9.479587e-05 1.423561e-02 2.581940e-05)	(-1.268340e-06 1.880582e-04 -7.549814e-09)
5176          	(-9.765699e-05 1.443060e-02 2.847223e-05)	(-9.637981e-05 1.424237e-02 2.848902e-05)	(-1.277176e-06 1.882313e-04 -1.679018e-08)
5177          	(-9.940386e-05 1.443826e-02 3.101932e-05)	(-9.812028e-05 1.424984e-02 3.104766e-05)	(-1.283580e-06 1.884212e-04 -2.833932e-08)
5178          	(-1.011791e-04 1.444652e-02 3.331385e-05)	(-9.989162e-05 1.425789e-02 3.335577e-05)	(-1.287467e-06 1.886267e-04 -4.192337e-08)
5179          	(-1.028387e-04 1.445502e-02 3.519843e-05)	(-1.015500e-04 1.426618e-02 3.525595e-05)	(-1.288723e-06 1.888444e-04 -5.751657e-08)
5180          	(-1.064257e-04 1.447578e-02 3.243997e-05)	(-1.051275e-04 1.428665e-02 3.253400e-05)	(-1.298135e-06 1.891292e-04 -9.403039e-08)
5181          	(-1.067709e-04 1.448166e-02 3.325507e-05)	(-1.054725e-04 1.429227e-02 3.338289e-05)	(-1.298392e-06 1.893866e-04 -1.278191e-07)
5182          	(-1.066795e-04 1.448635e-02 3.396358e-05)	(-1.053875e-04 1.429673e-02 3.411306e-05)	(-1.291989e-06 1.896183e-04 -1.494756e-07)
5183          	(-1.063215e-04 1.448936e-02 3.456262e-05)	(-1.050412e-04 1.429954e-02 3.472870e-05)	(-1.280376e-06 1.898255e-04 -1.660834e-07)
5184          	(-1.057590e-04 1.449109e-02 3.554167e-05)	(-1.044938e-04 1.430109e-02 3.572032e-05)	(-1.265241e-06 1.900088e-04 -1.786550e-07)
5185          	(-1.050474e-04 1.449155e-02 3.692489e-05)	(-1.037995e-04 1.430138e-02 3.711273e-05)	(-1.247908e-06 1.901689e-04 -1.878406e-07)
5186          	(-1.042296e-04 1.449084e-02 3.863804e-05)	(-1.030000e-04 1.430053e-02 3.883272e-05)	(-1.229627e-06 1.903066e-04 -1.946845e-07)
5187          	(-1.033192e-04 1.448919e-02 4.057236e-05)	(-1.021084e-04 1.429877e-02 4.077291e-05)	(-1.210796e-06 1.904237e-04 -2.005432e-07)
5188          	(-1.050131e-04 1.449268e-02 4.431193e-05)	(-1.038129e-04 1.430213e-02 4.451033e-05)	(-1.200127e-06 1.905498e-04 -1.984011e-07)
5189          	(-1.031276e-04 1.448985e-02 4.547775e-05)	(-1.019433e-04 1.429920e-02 4.567898e-05)	(-1.184359e-06 1.906512e-04 -2.012260e-07)
5190          	(-1.010605e-04 1.448652e-02 4.685083e-05)	(-9.989485e-05 1.429579e-02 4.705819e-05)	(-1.165648e-06 1.907331e-04 -2.073535e-07)
5191          	(-9.893539e-05 1.448268e-02 4.886058e-05)	(-9.778957e-05 1.429188e-02 4.907254e-05)	(-1.145820e-06 1.907987e-04 -2.119646e-07)
5192          	(-9.683559e-05 1.447836e-02 5.183663e-05)	(-9.570951e-05 1.428751e-02 5.204827e-05)	(-1.126074e-06 1.908509e-04 -2.116476e-07)
5193          	(-9.479969e-05 1.447356e-02 5.611620e-05)	(-9.369318e-05 1.428267e-02 5.631985e-05)	(-1.106512e-06 1.908915e-04 -2.036535e-07)
5194          	(-9.287001e-05 1.446849e-02 6.143008e-05)	(-9.178261e-05 1.427757e-02 6.161629e-05)	(-1.087395e-06 1.909230e-04 -1.862105e-07)
5195          	(-9.107343e-05 1.446336e-02 6.754771e-05)	(-9.000460e-05 1.427241e-02 6.770693e-05)	(-1.068836e-06 1.909476e-04 -1.592263e-07)
5196          	(-8.945977e-05 1.445832e-02 7.412778e-05)	(-8.840877e-05 1.426735e-02 7.425093e-05)	(-1.051004e-06 1.909677e-04 -1.231501e-07)
5197          	(-8.807768e-05 1.445351e-02 8.073023e-05)	(-8.704367e-05 1.426252e-02 8.080993e-05)	(-1.034015e-06 1.909852e-04 -7.970037e-08)
5198          	(-8.701301e-05 1.444867e-02 8.690577e-05)	(-8.599479e-05 1.425767e-02 8.693701e-05)	(-1.018227e-06 1.910008e-04 -3.123895e-08)
5199          	(-8.619925e-05 1.444431e-02 9.258454e-05)	(-8.519617e-05 1.425330e-02 9.256461e-05)	(-1.003086e-06 1.910167e-04 1.993067e-08)
5200          	(-8.569250e-05 1.444032e-02 9.735318e-05)	(-8.470394e-05 1.424928e-02 9.728280e-05)	(-9.885668e-07 1.910337e-04 7.038078e-08)
5201          	(-8.546769e-05 1.443661e-02 1.012350e-04)	(-8.449337e-05 1.424556e-02 1.011171e-04)	(-9.743224e-07 1.910518e-04 1.178404e-07)
5202          	(-8.547066e-05 1.443315e-02 1.044280e-04)	(-8.451053e-05 1.424208e-02 1.042664e-04)	(-9.601253e-07 1.910706e-04 1.615888e-07)
5203          	(-8.559954e-05 1.442989e-02 1.072866e-04)	(-8.465425e-05 1.423880e-02 1.070851e-04)	(-9.452868e-07 1.910898e-04 2.015400e-07)
5204          	(-8.580251e-05 1.442695e-02 1.098704e-04)	(-8.487289e-05 1.423584e-02 1.096324e-04)	(-9.296126e-07 1.911094e-04 2.380472e-07)
5205          	(-8.603804e-05 1.442385e-02 1.122585e-04)	(-8.512523e-05 1.423272e-02 1.119873e-04)	(-9.128105e-07 1.911271e-04 2.711520e-07)
5206          	(-8.627772e-05 1.442054e-02 1.145629e-04)	(-8.538319e-05 1.422939e-02 1.142612e-04)	(-8.945218e-07 1.911415e-04 3.016483e-07)
5207          	(-8.651116e-05 1.441700e-02 1.168434e-04)	(-8.563658e-05 1.422585e-02 1.165134e-04)	(-8.745798e-07 1.911515e-04 3.300328e-07)
5208          	(-8.674155e-05 1.441325e-02 1.191059e-04)	(-8.588810e-05 1.422209e-02 1.187499e-04)	(-8.534539e-07 1.911564e-04 3.559750e-07)
5209          	(-8.698233e-05 1.440931e-02 1.213047e-04)	(-8.615074e-05 1.421815e-02 1.209252e-04)	(-8.315898e-07 1.911558e-04 3.794655e-07)
5210          	(-8.728514e-05 1.440541e-02 1.232586e-04)	(-8.647525e-05 1.421426e-02 1.228579e-04)	(-8.098912e-07 1.911503e-04 4.007659e-07)