# Solver information
# Time        	alpha.water_solver	alpha.water_initial	alpha.water_final	alpha.water_iters	alpha.water_converged	k_solver      	k_initial     	k_final       	k_iters       	k_converged   	p_rgh_solver  	p_rgh_initial 	p_rgh_final   	p_rgh_iters   	p_rgh_converged	omega_solver  	omega_initial 	omega_final   	omega_iters   	omega_converged
0.000600024   	smoothSolver	0.000000e+00	0.000000e+00	0	true	smoothSolver	1.000000e+00	2.184500e-04	1	true	GAMG	1.000000e+00	8.938900e-03	2	true	smoothSolver	2.046160e-05	3.803810e-09	1	true
0.00132009    	smoothSolver	1.449990e-03	1.133880e-09	2	true	smoothSolver	9.160100e-02	1.146320e-05	1	true	GAMG	4.448160e-03	2.298680e-05	3	true	smoothSolver	2.403910e-05	2.389860e-09	1	true
0.00218416    	smoothSolver	7.371810e-04	1.637920e-10	2	true	smoothSolver	5.348160e-02	6.621910e-06	1	true	GAMG	3.313060e-03	2.191920e-05	2	true	smoothSolver	2.872180e-05	2.961640e-09	1	true
0.00322105    	smoothSolver	6.487570e-04	1.902530e-10	2	true	smoothSolver	4.156540e-02	6.288210e-06	1	true	GAMG	2.494240e-03	9.319910e-06	2	true	smoothSolver	3.438880e-05	4.360100e-09	1	true
0.00446527    	smoothSolver	7.232080e-04	3.503760e-10	2	true	smoothSolver	3.660190e-02	7.205280e-06	1	true	GAMG	2.531830e-03	8.213800e-06	2	true	smoothSolver	4.112010e-05	6.727830e-09	1	true
0.00595826    	smoothSolver	8.507200e-04	7.416350e-10	2	true	smoothSolver	3.474160e-02	9.053130e-06	1	true	GAMG	2.816970e-03	8.958660e-06	2	true	smoothSolver	4.916160e-05	1.057250e-08	1	true
0.00775017    	smoothSolver	1.013440e-03	1.743420e-09	2	true	smoothSolver	3.474210e-02	1.203630e-05	1	true	GAMG	3.185580e-03	1.042580e-05	2	true	smoothSolver	5.870060e-05	1.670310e-08	1	true
0.00990014    	smoothSolver	1.206860e-03	4.201570e-09	2	true	smoothSolver	3.613380e-02	1.664830e-05	1	true	GAMG	3.558980e-03	1.221580e-05	2	true	smoothSolver	7.016520e-05	2.694530e-08	1	true
0.0124803     	smoothSolver	1.430010e-03	9.779650e-09	2	true	smoothSolver	3.875910e-02	2.374880e-05	1	true	GAMG	3.867740e-03	1.397290e-05	2	true	smoothSolver	8.411130e-05	4.332100e-08	1	true
0.0155763     	smoothSolver	1.679140e-03	2.306940e-10	3	true	smoothSolver	4.267410e-02	3.461810e-05	1	true	GAMG	4.053030e-03	1.541010e-05	2	true	smoothSolver	1.009830e-04	6.949020e-08	1	true
0.0192904     	smoothSolver	1.949540e-03	6.287230e-10	3	true	smoothSolver	4.806950e-02	5.144660e-05	1	true	GAMG	4.080880e-03	1.631890e-05	2	true	smoothSolver	1.214350e-04	1.114110e-07	1	true
0.0237454     	smoothSolver	2.235160e-03	1.254850e-09	3	true	smoothSolver	5.505140e-02	7.721640e-05	1	true	GAMG	3.944900e-03	1.684960e-05	2	true	smoothSolver	1.461950e-04	1.782460e-07	1	true
0.0290905     	smoothSolver	2.496010e-03	1.891690e-09	3	true	smoothSolver	6.370950e-02	1.158530e-04	1	true	GAMG	3.743960e-03	1.726020e-05	2	true	smoothSolver	1.757890e-04	2.819460e-07	1	true
0.0355046     	smoothSolver	2.721680e-03	4.234760e-09	3	true	smoothSolver	7.390560e-02	1.698080e-04	1	true	GAMG	3.645490e-03	1.844550e-05	2	true	smoothSolver	2.097090e-04	4.307470e-07	1	true
0.0432015     	smoothSolver	2.838700e-03	9.170850e-09	3	true	smoothSolver	8.485010e-02	2.452390e-04	1	true	GAMG	3.512270e-03	2.095440e-05	2	true	smoothSolver	2.446580e-04	6.484010e-07	1	true
0.052432      	smoothSolver	2.817000e-03	3.929420e-10	4	true	smoothSolver	9.585620e-02	3.522850e-04	1	true	GAMG	3.394110e-03	2.452070e-05	2	true	smoothSolver	2.741250e-04	9.792600e-07	1	true
0.062848      	smoothSolver	2.573420e-03	9.191530e-10	4	true	smoothSolver	1.082500e-01	4.909020e-04	1	true	GAMG	3.271700e-03	2.596020e-05	2	true	smoothSolver	2.999520e-04	1.387520e-06	1	true
0.0748313     	smoothSolver	2.654020e-03	2.666260e-09	4	true	smoothSolver	1.338500e-01	7.922940e-04	1	true	GAMG	3.111100e-03	2.680030e-05	2	true	smoothSolver	3.599670e-04	2.459860e-06	1	true
0.0816624     	smoothSolver	1.512850e-03	5.980780e-09	3	true	smoothSolver	9.142880e-02	2.236260e-04	1	true	GAMG	2.160460e-03	1.746550e-05	2	true	smoothSolver	2.096200e-04	6.540770e-07	1	true
0.0848854     	smoothSolver	7.021640e-04	7.602770e-11	3	true	smoothSolver	4.296300e-02	2.997130e-05	1	true	GAMG	1.200070e-03	9.207000e-06	2	true	smoothSolver	9.994010e-05	9.407260e-08	1	true
0.0887104     	smoothSolver	8.176760e-04	2.211480e-10	3	true	smoothSolver	4.801480e-02	4.677730e-05	1	true	GAMG	1.359830e-03	1.058670e-05	2	true	smoothSolver	1.209120e-04	1.571460e-07	1	true
0.0932079     	smoothSolver	9.765940e-04	6.039640e-10	3	true	smoothSolver	5.253550e-02	6.921690e-05	1	true	GAMG	1.564230e-03	1.202850e-05	2	true	smoothSolver	1.448970e-04	2.330310e-07	1	true
0.0982457     	smoothSolver	1.122560e-03	1.214830e-09	3	true	smoothSolver	5.432820e-02	8.956930e-05	1	true	GAMG	1.794560e-03	1.264360e-05	2	true	smoothSolver	1.651310e-04	3.499560e-07	1	true
0.101368      	smoothSolver	7.142070e-04	7.428600e-11	3	true	smoothSolver	3.138680e-02	2.483830e-05	1	true	GAMG	1.303810e-03	8.396900e-06	2	true	smoothSolver	1.033820e-04	1.039500e-07	1	true
0.105029      	smoothSolver	8.351170e-04	2.021190e-10	3	true	smoothSolver	3.361110e-02	3.358330e-05	1	true	GAMG	1.460060e-03	9.830190e-06	2	true	smoothSolver	1.222810e-04	1.503650e-07	1	true
0.109223      	smoothSolver	9.604900e-04	4.674730e-10	3	true	smoothSolver	3.545320e-02	4.513240e-05	1	true	GAMG	1.626300e-03	1.127050e-05	2	true	smoothSolver	1.411270e-04	2.264100e-07	1	true
0.114129      	smoothSolver	1.122120e-03	1.269070e-09	3	true	smoothSolver	3.848010e-02	6.320140e-05	1	true	GAMG	1.837950e-03	1.307080e-05	2	true	smoothSolver	1.660140e-04	3.372600e-07	1	true
0.117735      	smoothSolver	8.184880e-04	2.437720e-10	3	true	smoothSolver	2.694980e-02	2.606540e-05	1	true	GAMG	1.481600e-03	9.997380e-06	2	true	smoothSolver	1.224990e-04	1.473660e-07	1	true
0.121901      	smoothSolver	9.326020e-04	5.724390e-10	3	true	smoothSolver	3.075080e-02	3.832910e-05	1	true	GAMG	1.641210e-03	1.146260e-05	2	true	smoothSolver	1.420540e-04	2.179790e-07	1	true
0.126793      	smoothSolver	1.082570e-03	1.625020e-09	3	true	smoothSolver	3.571250e-02	5.919930e-05	1	true	GAMG	1.828190e-03	1.323830e-05	2	true	smoothSolver	1.673490e-04	3.335220e-07	1	true
0.132363      	smoothSolver	1.210990e-03	3.922830e-09	3	true	smoothSolver	4.060740e-02	8.535700e-05	1	true	GAMG	1.956250e-03	1.481930e-05	2	true	smoothSolver	1.910330e-04	4.756410e-07	1	true
0.138818      	smoothSolver	1.371160e-03	1.716780e-10	4	true	smoothSolver	4.671680e-02	1.313850e-04	1	true	GAMG	2.137740e-03	1.710320e-05	2	true	smoothSolver	2.227440e-04	7.476700e-07	1	true
0.143784      	smoothSolver	1.027140e-03	2.730840e-09	3	true	smoothSolver	3.508250e-02	6.551970e-05	1	true	GAMG	1.684700e-03	1.352990e-05	2	true	smoothSolver	1.723370e-04	3.718710e-07	1	true
0.149721      	smoothSolver	1.190750e-03	7.035690e-09	3	true	smoothSolver	4.047080e-02	1.056590e-04	1	true	GAMG	1.888070e-03	1.586080e-05	2	true	smoothSolver	2.085540e-04	6.540750e-07	1	true
0.153931      	smoothSolver	8.299040e-04	1.121040e-09	3	true	smoothSolver	2.824540e-02	4.261780e-05	1	true	GAMG	1.459440e-03	1.193130e-05	2	true	smoothSolver	1.492500e-04	2.710740e-07	1	true
0.158753      	smoothSolver	9.394170e-04	2.303880e-09	3	true	smoothSolver	3.108980e-02	6.166430e-05	1	true	GAMG	1.625200e-03	1.371230e-05	2	true	smoothSolver	1.733470e-04	3.922340e-07	1	true
0.164415      	smoothSolver	1.094280e-03	5.925370e-09	3	true	smoothSolver	3.550350e-02	1.022270e-04	1	true	GAMG	1.837530e-03	1.578140e-05	2	true	smoothSolver	2.073970e-04	6.830840e-07	1	true
0.16794       	smoothSolver	6.794320e-04	4.570580e-10	3	true	smoothSolver	2.071180e-02	3.104440e-05	1	true	GAMG	1.318800e-03	1.046190e-05	2	true	smoothSolver	1.305280e-04	2.026480e-07	1	true
0.171983      	smoothSolver	7.811380e-04	9.567450e-10	3	true	smoothSolver	2.114720e-02	4.227360e-05	1	true	GAMG	1.461450e-03	1.169490e-05	2	true	smoothSolver	1.518250e-04	3.009570e-07	1	true
0.175191      	smoothSolver	6.220780e-04	2.551350e-10	3	true	smoothSolver	1.656920e-02	2.129630e-05	1	true	GAMG	1.246720e-03	9.598450e-06	2	true	smoothSolver	1.217090e-04	1.700110e-07	1	true
0.178841      	smoothSolver	7.085570e-04	5.253470e-10	3	true	smoothSolver	1.970080e-02	3.106830e-05	1	true	GAMG	1.386230e-03	1.089290e-05	2	true	smoothSolver	1.400780e-04	2.333690e-07	1	true
0.183033      	smoothSolver	8.151750e-04	1.283960e-09	3	true	smoothSolver	2.241660e-02	4.815390e-05	1	true	GAMG	1.541660e-03	1.234880e-05	2	true	smoothSolver	1.627680e-04	3.467520e-07	1	true
0.187817      	smoothSolver	9.329880e-04	3.061740e-09	3	true	smoothSolver	2.384190e-02	6.339160e-05	1	true	GAMG	1.714840e-03	1.373420e-05	2	true	smoothSolver	1.877430e-04	5.014430e-07	1	true
0.192544      	smoothSolver	9.246820e-04	3.316650e-09	3	true	smoothSolver	2.342930e-02	6.453490e-05	1	true	GAMG	1.708240e-03	1.356010e-05	2	true	smoothSolver	1.871920e-04	4.964480e-07	1	true
0.197964      	smoothSolver	1.065580e-03	7.849360e-09	3	true	smoothSolver	2.725230e-02	1.002900e-04	1	true	GAMG	1.848360e-03	1.507440e-05	2	true	smoothSolver	2.163660e-04	7.242230e-07	1	true
0.201763      	smoothSolver	7.473210e-04	1.233950e-09	3	true	smoothSolver	1.991220e-02	4.100270e-05	1	true	GAMG	1.408970e-03	1.119370e-05	2	true	smoothSolver	1.520120e-04	2.850670e-07	1	true
0.206047      	smoothSolver	8.388600e-04	2.337760e-09	3	true	smoothSolver	2.353870e-02	6.135970e-05	1	true	GAMG	1.538280e-03	1.239950e-05	2	true	smoothSolver	1.727160e-04	4.083230e-07	1	true
0.209275      	smoothSolver	6.285080e-04	4.816390e-10	3	true	smoothSolver	1.825120e-02	3.107380e-05	1	true	GAMG	1.248270e-03	9.680700e-06	2	true	smoothSolver	1.305770e-04	1.858340e-07	1	true
0.212983      	smoothSolver	7.181880e-04	1.016070e-09	3	true	smoothSolver	2.065030e-02	4.642600e-05	1	true	GAMG	1.372680e-03	1.093100e-05	2	true	smoothSolver	1.510890e-04	2.764340e-07	1	true
0.215634      	smoothSolver	5.117430e-04	1.629660e-10	3	true	smoothSolver	1.464340e-02	1.912040e-05	1	true	GAMG	1.062510e-03	8.188730e-06	2	true	smoothSolver	1.083250e-04	1.135320e-07	1	true
0.218669      	smoothSolver	5.847880e-04	3.113650e-10	3	true	smoothSolver	1.683440e-02	2.861260e-05	1	true	GAMG	1.186900e-03	9.367100e-06	2	true	smoothSolver	1.249330e-04	1.665980e-07	1	true
0.222075      	smoothSolver	6.548810e-04	6.276930e-10	3	true	smoothSolver	1.890780e-02	4.088690e-05	1	true	GAMG	1.291280e-03	1.031570e-05	2	true	smoothSolver	1.413930e-04	2.292450e-07	1	true
0.225864      	smoothSolver	7.269050e-04	1.221360e-09	3	true	smoothSolver	2.136310e-02	5.682480e-05	1	true	GAMG	1.405150e-03	1.118450e-05	2	true	smoothSolver	1.589650e-04	3.032560e-07	1	true
0.230184      	smoothSolver	8.261200e-04	2.805190e-09	3	true	smoothSolver	2.514350e-02	8.671330e-05	1	true	GAMG	1.551660e-03	1.255290e-05	2	true	smoothSolver	1.841040e-04	4.446550e-07	1	true
0.235369      	smoothSolver	9.861330e-04	8.595690e-09	3	true	smoothSolver	3.129310e-02	1.483540e-04	1	true	GAMG	1.762710e-03	1.431460e-05	2	true	smoothSolver	2.237270e-04	7.370240e-07	1	true
0.241589      	smoothSolver	1.177990e-03	6.317340e-10	4	true	smoothSolver	3.810510e-02	2.501000e-04	1	true	GAMG	1.993420e-03	1.634200e-05	2	true	smoothSolver	2.721080e-04	1.248180e-06	1	true
0.249036      	smoothSolver	1.406150e-03	2.207810e-09	4	true	smoothSolver	4.465030e-02	3.899630e-04	1	true	GAMG	2.286120e-03	1.841420e-05	2	true	smoothSolver	3.294960e-04	2.055630e-06	1	true
0.254453      	smoothSolver	1.023860e-03	3.230020e-10	4	true	smoothSolver	3.196610e-02	1.603040e-04	1	true	GAMG	1.893810e-03	1.440180e-05	2	true	smoothSolver	2.394760e-04	8.979900e-07	1	true
0.260747      	smoothSolver	1.195210e-03	8.675890e-10	4	true	smoothSolver	3.610730e-02	2.262000e-04	1	true	GAMG	2.066970e-03	1.640520e-05	2	true	smoothSolver	2.801280e-04	1.420050e-06	1	true
0.26716       	smoothSolver	1.225310e-03	1.082420e-09	4	true	smoothSolver	3.574630e-02	2.329510e-04	1	true	GAMG	2.159260e-03	1.693400e-05	2	true	smoothSolver	2.868330e-04	1.525210e-06	1	true
0.274684      	smoothSolver	1.444430e-03	3.376810e-09	4	true	smoothSolver	4.050980e-02	3.499460e-04	1	true	GAMG	2.398730e-03	1.899390e-05	2	true	smoothSolver	3.379660e-04	2.447950e-06	1	true
0.278062      	smoothSolver	6.519540e-04	1.549740e-09	3	true	smoothSolver	1.790440e-02	4.128490e-05	1	true	GAMG	1.370780e-03	9.708950e-06	2	true	smoothSolver	1.501500e-04	3.077310e-07	1	true
0.281843      	smoothSolver	7.307090e-04	2.972370e-09	3	true	smoothSolver	1.982830e-02	5.470680e-05	1	true	GAMG	1.474520e-03	1.082940e-05	2	true	smoothSolver	1.682560e-04	4.003550e-07	1	true
0.286059      	smoothSolver	8.182390e-04	5.510440e-09	3	true	smoothSolver	2.167630e-02	7.066590e-05	1	true	GAMG	1.591030e-03	1.209320e-05	2	true	smoothSolver	1.880960e-04	5.386350e-07	1	true
0.290864      	smoothSolver	9.369350e-04	2.711000e-10	4	true	smoothSolver	2.408010e-02	9.750910e-05	1	true	GAMG	1.759350e-03	1.367330e-05	2	true	smoothSolver	2.150600e-04	7.756020e-07	1	true
0.29647       	smoothSolver	1.098480e-03	8.038290e-10	4	true	smoothSolver	2.743130e-02	1.461220e-04	1	true	GAMG	1.977330e-03	1.557050e-05	2	true	smoothSolver	2.521140e-04	1.222840e-06	1	true
0.302818      	smoothSolver	1.246560e-03	2.233550e-09	4	true	smoothSolver	3.024470e-02	1.999950e-04	1	true	GAMG	2.178160e-03	1.709390e-05	2	true	smoothSolver	2.857710e-04	1.750000e-06	1	true
0.308848      	smoothSolver	1.184500e-03	2.178400e-09	4	true	smoothSolver	2.785550e-02	1.744480e-04	1	true	GAMG	2.115550e-03	1.632820e-05	2	true	smoothSolver	2.711160e-04	1.586250e-06	1	true
0.315521      	smoothSolver	1.310890e-03	4.931270e-09	4	true	smoothSolver	3.000580e-02	2.263820e-04	1	true	GAMG	2.310250e-03	1.753550e-05	2	true	smoothSolver	3.013460e-04	2.154640e-06	1	true
0.323004      	smoothSolver	1.474230e-03	4.080590e-10	5	true	smoothSolver	3.248000e-02	3.019460e-04	1	true	GAMG	2.504450e-03	1.900000e-05	2	true	smoothSolver	3.401560e-04	3.094180e-06	1	true
0.327244      	smoothSolver	8.403900e-04	3.791400e-10	4	true	smoothSolver	1.782500e-02	6.904370e-05	1	true	GAMG	1.684030e-03	1.174750e-05	2	true	smoothSolver	1.908080e-04	7.158870e-07	1	true
0.332037      	smoothSolver	9.527230e-04	7.906850e-10	4	true	smoothSolver	1.978830e-02	9.483780e-05	1	true	GAMG	1.820760e-03	1.321170e-05	2	true	smoothSolver	2.176810e-04	1.024700e-06	1	true
0.337574      	smoothSolver	1.103950e-03	1.901220e-09	4	true	smoothSolver	2.248460e-02	1.386690e-04	1	true	GAMG	2.031950e-03	1.470910e-05	2	true	smoothSolver	2.548200e-04	1.574820e-06	1	true
0.34405       	smoothSolver	1.296800e-03	4.903740e-09	4	true	smoothSolver	2.617100e-02	2.149650e-04	1	true	GAMG	2.356740e-03	1.670560e-05	2	true	smoothSolver	3.026020e-04	2.555970e-06	1	true
0.347696      	smoothSolver	7.346050e-04	5.808140e-09	3	true	smoothSolver	1.448180e-02	4.893190e-05	1	true	GAMG	1.524290e-03	1.028360e-05	2	true	smoothSolver	1.695060e-04	5.872460e-07	1	true
0.351917      	smoothSolver	8.540930e-04	3.094010e-10	4	true	smoothSolver	1.662120e-02	7.296100e-05	1	true	GAMG	1.730260e-03	1.181630e-05	2	true	smoothSolver	1.984970e-04	8.818120e-07	1	true
0.356719      	smoothSolver	9.758330e-04	6.892900e-10	4	true	smoothSolver	1.894310e-02	1.068940e-04	1	true	GAMG	1.911710e-03	1.310320e-05	2	true	smoothSolver	2.292400e-04	1.270810e-06	1	true
0.362131      	smoothSolver	1.103950e-03	1.494070e-09	4	true	smoothSolver	2.156050e-02	1.496680e-04	1	true	GAMG	2.103630e-03	1.434060e-05	2	true	smoothSolver	2.625380e-04	1.825960e-06	1	true
0.368528      	smoothSolver	1.309750e-03	4.581550e-09	4	true	smoothSolver	2.598910e-02	2.479570e-04	1	true	GAMG	2.355900e-03	1.628880e-05	2	true	smoothSolver	3.152800e-04	3.006880e-06	1	true
0.375903      	smoothSolver	1.512380e-03	6.389470e-10	5	true	smoothSolver	3.067610e-02	3.964170e-04	1	true	GAMG	2.618980e-03	1.830030e-05	2	true	smoothSolver	3.694990e-04	4.718340e-06	1	true
0.382263      	smoothSolver	1.304490e-03	6.185840e-09	4	true	smoothSolver	2.713310e-02	3.055750e-04	1	true	GAMG	2.381110e-03	1.624280e-05	2	true	smoothSolver	3.213940e-04	3.481910e-06	1	true
0.3894        	smoothSolver	1.461170e-03	6.189260e-10	5	true	smoothSolver	3.150630e-02	4.595200e-04	1	true	GAMG	2.560050e-03	1.793860e-05	2	true	smoothSolver	3.678010e-04	5.043960e-06	1	true
0.397282      	smoothSolver	1.614950e-03	1.530400e-09	5	true	smoothSolver	3.603120e-02	6.547060e-04	1	true	GAMG	2.720730e-03	1.906130e-05	2	true	smoothSolver	4.149590e-04	7.049510e-06	1	true
0.40194       	smoothSolver	9.560150e-04	1.787440e-09	4	true	smoothSolver	2.165360e-02	1.931440e-04	1	true	GAMG	1.867350e-03	1.240730e-05	2	true	smoothSolver	2.448940e-04	1.919380e-06	1	true
0.407344      	smoothSolver	1.111310e-03	4.880130e-09	4	true	smoothSolver	2.619100e-02	3.109130e-04	1	true	GAMG	2.076830e-03	1.398680e-05	2	true	smoothSolver	2.898480e-04	2.959020e-06	1	true
0.413525      	smoothSolver	1.274350e-03	4.267820e-10	5	true	smoothSolver	3.107620e-02	4.869490e-04	1	true	GAMG	2.275230e-03	1.537910e-05	2	true	smoothSolver	3.397530e-04	4.431990e-06	1	true
0.417803      	smoothSolver	8.843830e-04	1.162170e-09	4	true	smoothSolver	2.173700e-02	2.047510e-04	1	true	GAMG	1.730070e-03	1.140580e-05	2	true	smoothSolver	2.362770e-04	1.778990e-06	1	true
0.422601      	smoothSolver	9.931840e-04	2.357300e-09	4	true	smoothSolver	2.524760e-02	3.017070e-04	1	true	GAMG	1.893600e-03	1.284820e-05	2	true	smoothSolver	2.706020e-04	2.507200e-06	1	true
0.427476      	smoothSolver	1.010530e-03	2.506610e-09	4	true	smoothSolver	2.617140e-02	3.383960e-04	1	true	GAMG	1.907600e-03	1.313510e-05	2	true	smoothSolver	2.803710e-04	2.745550e-06	1	true
0.431702      	smoothSolver	8.774750e-04	9.472180e-10	4	true	smoothSolver	2.324590e-02	2.533060e-04	1	true	GAMG	1.711410e-03	1.171710e-05	2	true	smoothSolver	2.466370e-04	1.957380e-06	1	true
0.436646      	smoothSolver	1.026230e-03	2.739830e-09	4	true	smoothSolver	2.812280e-02	4.107530e-04	1	true	GAMG	1.924400e-03	1.331180e-05	2	true	smoothSolver	2.958650e-04	3.111970e-06	1	true
0.442393      	smoothSolver	1.193940e-03	8.140100e-09	4	true	smoothSolver	3.358810e-02	6.479350e-04	1	true	GAMG	2.174980e-03	1.505450e-05	2	true	smoothSolver	3.537180e-04	4.940230e-06	1	true
0.448886      	smoothSolver	1.352190e-03	8.608330e-10	5	true	smoothSolver	3.875820e-02	9.046260e-04	1	true	GAMG	2.347330e-03	1.628280e-05	2	true	smoothSolver	4.112420e-04	7.202670e-06	1	true
0.456168      	smoothSolver	1.525110e-03	2.222860e-09	5	true	smoothSolver	4.444800e-02	1.271030e-03	1	true	GAMG	2.577940e-03	1.750700e-05	2	true	smoothSolver	4.762960e-04	1.047190e-05	1	true
0.463568      	smoothSolver	1.562270e-03	3.236360e-09	5	true	smoothSolver	4.546280e-02	1.344120e-03	1	true	GAMG	2.599000e-03	1.740780e-05	2	true	smoothSolver	4.980470e-04	1.173680e-05	1	true
0.46722       	smoothSolver	7.781910e-04	8.661400e-10	4	true	smoothSolver	2.273790e-02	2.400680e-04	1	true	GAMG	1.603160e-03	9.835260e-06	2	true	smoothSolver	2.465950e-04	2.048960e-06	1	true
0.470546      	smoothSolver	7.106710e-04	4.416260e-10	4	true	smoothSolver	2.070540e-02	1.869530e-04	1	true	GAMG	1.480890e-03	9.161560e-06	2	true	smoothSolver	2.276770e-04	1.625410e-06	1	true
0.474401      	smoothSolver	8.269430e-04	1.125930e-09	4	true	smoothSolver	2.451740e-02	2.781220e-04	1	true	GAMG	1.667160e-03	1.048600e-05	2	true	smoothSolver	2.694360e-04	2.450940e-06	1	true
0.478626      	smoothSolver	9.094960e-04	1.899800e-09	4	true	smoothSolver	2.726470e-02	3.557510e-04	1	true	GAMG	1.796630e-03	1.132080e-05	2	true	smoothSolver	3.015210e-04	3.208990e-06	1	true
0.483317      	smoothSolver	1.011850e-03	3.551620e-09	4	true	smoothSolver	3.075550e-02	4.848940e-04	1	true	GAMG	1.965340e-03	1.240090e-05	2	true	smoothSolver	3.424760e-04	4.432290e-06	1	true
0.488599      	smoothSolver	1.146590e-03	7.521100e-09	4	true	smoothSolver	3.514960e-02	6.725620e-04	1	true	GAMG	2.127470e-03	1.363940e-05	2	true	smoothSolver	3.957370e-04	6.383770e-06	1	true
0.491869      	smoothSolver	7.141570e-04	3.475170e-10	4	true	smoothSolver	2.199890e-02	2.096720e-04	1	true	GAMG	1.526070e-03	9.170460e-06	2	true	smoothSolver	2.464240e-04	1.912120e-06	1	true
0.495531      	smoothSolver	8.025380e-04	9.165410e-10	4	true	smoothSolver	2.500060e-02	2.901280e-04	1	true	GAMG	1.653710e-03	1.019850e-05	2	true	smoothSolver	2.819730e-04	2.650520e-06	1	true
0.499644      	smoothSolver	9.037770e-04	2.465820e-09	4	true	smoothSolver	2.811630e-02	4.011570e-04	1	true	GAMG	1.797320e-03	1.120140e-05	2	true	smoothSolver	3.243400e-04	3.714740e-06	1	true
0.502485      	smoothSolver	6.249380e-04	7.680990e-09	3	true	smoothSolver	1.950130e-02	1.570690e-04	1	true	GAMG	1.380470e-03	8.220170e-06	2	true	smoothSolver	2.261860e-04	1.422030e-06	1	true
0.505824      	smoothSolver	7.361470e-04	9.176520e-10	4	true	smoothSolver	2.323720e-02	2.422970e-04	1	true	GAMG	1.550370e-03	9.569520e-06	2	true	smoothSolver	2.718530e-04	2.238990e-06	1	true
0.509675      	smoothSolver	8.495280e-04	2.687030e-09	4	true	smoothSolver	2.677490e-02	3.537980e-04	1	true	GAMG	1.727630e-03	1.082690e-05	2	true	smoothSolver	3.220780e-04	3.399410e-06	1	true
0.514225      	smoothSolver	1.002930e-03	7.896570e-09	4	true	smoothSolver	3.126590e-02	5.444400e-04	1	true	GAMG	1.935650e-03	1.226170e-05	2	true	smoothSolver	3.916860e-04	5.515900e-06	1	true
0.519682      	smoothSolver	1.198860e-03	1.599230e-09	5	true	smoothSolver	3.690060e-02	8.661460e-04	1	true	GAMG	2.199230e-03	1.413370e-05	2	true	smoothSolver	4.858440e-04	9.362320e-06	1	true
0.524263      	smoothSolver	1.005940e-03	9.480090e-09	4	true	smoothSolver	3.048940e-02	5.676200e-04	1	true	GAMG	1.951860e-03	1.217650e-05	2	true	smoothSolver	4.150770e-04	6.304560e-06	1	true
0.529669      	smoothSolver	1.186250e-03	1.617850e-09	5	true	smoothSolver	3.570210e-02	8.590060e-04	1	true	GAMG	2.157820e-03	1.394070e-05	2	true	smoothSolver	5.054990e-04	1.020200e-05	1	true
0.535767      	smoothSolver	1.336320e-03	3.804510e-09	5	true	smoothSolver	4.007510e-02	1.170060e-03	1	true	GAMG	2.323420e-03	1.526110e-05	2	true	smoothSolver	5.885810e-04	1.460210e-05	1	true
0.539687      	smoothSolver	8.569250e-04	4.333640e-09	4	true	smoothSolver	2.556060e-02	4.009360e-04	1	true	GAMG	1.724210e-03	1.078530e-05	2	true	smoothSolver	3.797470e-04	4.937820e-06	1	true
0.544392      	smoothSolver	1.026680e-03	7.463860e-10	5	true	smoothSolver	3.077490e-02	6.390270e-04	1	true	GAMG	1.940820e-03	1.264420e-05	2	true	smoothSolver	4.684620e-04	8.275360e-06	1	true
0.549852      	smoothSolver	1.189910e-03	2.057250e-09	5	true	smoothSolver	3.558950e-02	9.387640e-04	1	true	GAMG	2.144960e-03	1.406910e-05	2	true	smoothSolver	5.600350e-04	1.258670e-05	1	true
0.556129      	smoothSolver	1.367980e-03	5.042840e-09	5	true	smoothSolver	4.045010e-02	1.338050e-03	1	true	GAMG	2.323430e-03	1.536810e-05	2	true	smoothSolver	6.636070e-04	1.878110e-05	1	true
0.563296      	smoothSolver	1.561210e-03	8.192310e-10	6	true	smoothSolver	4.603550e-02	1.848090e-03	1	true	GAMG	2.509190e-03	1.655370e-05	2	true	smoothSolver	7.825800e-04	2.808590e-05	1	true
0.567654      	smoothSolver	9.501910e-04	4.279280e-10	5	true	smoothSolver	2.801560e-02	5.742600e-04	1	true	GAMG	1.803460e-03	1.112610e-05	2	true	smoothSolver	4.739250e-04	8.588410e-06	1	true
0.572839      	smoothSolver	1.134440e-03	1.506510e-09	5	true	smoothSolver	3.311090e-02	8.892740e-04	1	true	GAMG	2.017720e-03	1.290760e-05	2	true	smoothSolver	5.794560e-04	1.383440e-05	1	true
0.578633      	smoothSolver	1.273590e-03	3.351360e-09	5	true	smoothSolver	3.694800e-02	1.192060e-03	1	true	GAMG	2.158720e-03	1.397100e-05	2	true	smoothSolver	6.664390e-04	1.910350e-05	1	true
0.585097      	smoothSolver	1.427440e-03	8.185390e-09	5	true	smoothSolver	4.091080e-02	1.614810e-03	1	true	GAMG	2.295230e-03	1.492510e-05	2	true	smoothSolver	7.664230e-04	2.689160e-05	1	true
0.590757      	smoothSolver	1.257970e-03	4.090620e-09	5	true	smoothSolver	3.596430e-02	1.224810e-03	1	true	GAMG	2.116320e-03	1.358040e-05	2	true	smoothSolver	6.822100e-04	2.064690e-05	1	true
0.597428      	smoothSolver	1.491020e-03	9.500620e-10	6	true	smoothSolver	4.239090e-02	1.877580e-03	1	true	GAMG	2.339770e-03	1.529720e-05	2	true	smoothSolver	8.329650e-04	3.252960e-05	1	true
0.603029      	smoothSolver	1.257320e-03	5.071300e-09	5	true	smoothSolver	3.579670e-02	1.307500e-03	1	true	GAMG	2.119590e-03	1.357120e-05	2	true	smoothSolver	7.101930e-04	2.254620e-05	1	true
0.609275      	smoothSolver	1.410640e-03	8.540670e-10	6	true	smoothSolver	3.988270e-02	1.779530e-03	1	true	GAMG	2.266410e-03	1.465140e-05	2	true	smoothSolver	8.180330e-04	3.095770e-05	1	true
0.616334      	smoothSolver	1.608390e-03	2.224460e-09	6	true	smoothSolver	4.484790e-02	2.482900e-03	1	true	GAMG	2.452310e-03	1.572800e-05	2	true	smoothSolver	9.567860e-04	4.423670e-05	1	true
0.619598      	smoothSolver	7.503610e-04	2.342650e-09	4	true	smoothSolver	2.089060e-02	4.155270e-04	1	true	GAMG	1.488050e-03	8.779450e-06	2	true	smoothSolver	4.341350e-04	6.794640e-06	1	true
0.623239      	smoothSolver	8.442180e-04	4.691970e-09	4	true	smoothSolver	2.336860e-02	5.470800e-04	1	true	GAMG	1.616770e-03	9.786190e-06	2	true	smoothSolver	4.960130e-04	9.148020e-06	1	true
0.627022      	smoothSolver	8.849150e-04	5.577740e-09	4	true	smoothSolver	2.424510e-02	6.030870e-04	1	true	GAMG	1.671130e-03	1.021930e-05	2	true	smoothSolver	5.263740e-04	1.035330e-05	1	true
0.63133       	smoothSolver	1.016170e-03	7.947770e-10	5	true	smoothSolver	2.772880e-02	8.419520e-04	1	true	GAMG	1.846720e-03	1.133850e-05	2	true	smoothSolver	6.154120e-04	1.494530e-05	1	true
0.636458      	smoothSolver	1.219210e-03	3.009080e-09	5	true	smoothSolver	3.296960e-02	1.296890e-03	1	true	GAMG	2.085500e-03	1.280020e-05	2	true	smoothSolver	7.517410e-04	2.378940e-05	1	true
0.641456      	smoothSolver	1.200100e-03	2.613640e-09	5	true	smoothSolver	3.241830e-02	1.257750e-03	1	true	GAMG	2.055370e-03	1.239480e-05	2	true	smoothSolver	7.428910e-04	2.304700e-05	1	true
0.647051      	smoothSolver	1.353910e-03	6.607390e-09	5	true	smoothSolver	3.637130e-02	1.688400e-03	1	true	GAMG	2.201120e-03	1.332410e-05	2	true	smoothSolver	8.503350e-04	3.171430e-05	1	true
0.653139      	smoothSolver	1.478680e-03	1.293530e-09	6	true	smoothSolver	3.981100e-02	2.127660e-03	1	true	GAMG	2.324760e-03	1.401060e-05	2	true	smoothSolver	9.473940e-04	4.085950e-05	1	true
0.659963      	smoothSolver	1.661220e-03	3.460590e-09	6	true	smoothSolver	4.479430e-02	2.860200e-03	1	true	GAMG	2.491280e-03	1.488990e-05	2	true	smoothSolver	1.097290e-03	5.687760e-05	1	true
0.665542      	smoothSolver	1.363470e-03	1.052000e-09	6	true	smoothSolver	3.722010e-02	1.932590e-03	1	true	GAMG	2.226960e-03	1.250690e-05	2	true	smoothSolver	9.039790e-04	3.683810e-05	1	true
0.67205       	smoothSolver	1.600260e-03	2.875930e-09	6	true	smoothSolver	4.351130e-02	2.846730e-03	1	true	GAMG	2.468950e-03	1.383280e-05	2	true	smoothSolver	1.091930e-03	5.609230e-05	1	true
0.675746      	smoothSolver	9.181450e-04	8.113290e-10	5	true	smoothSolver	2.523710e-02	8.147860e-04	1	true	GAMG	1.751970e-03	9.040780e-06	2	true	smoothSolver	6.100120e-04	1.447100e-05	1	true
0.680019      	smoothSolver	1.076070e-03	2.380930e-09	5	true	smoothSolver	2.922770e-02	1.182230e-03	1	true	GAMG	1.951980e-03	1.017670e-05	2	true	smoothSolver	7.234390e-04	2.147170e-05	1	true
0.684956      	smoothSolver	1.260040e-03	7.243940e-09	5	true	smoothSolver	3.388320e-02	1.713070e-03	1	true	GAMG	2.164570e-03	1.150750e-05	2	true	smoothSolver	8.568500e-04	3.185270e-05	1	true
0.690517      	smoothSolver	1.441580e-03	1.995490e-09	6	true	smoothSolver	3.832610e-02	2.309420e-03	1	true	GAMG	2.345160e-03	1.258600e-05	2	true	smoothSolver	9.855030e-04	4.425100e-05	1	true
0.697116      	smoothSolver	1.729620e-03	8.842720e-09	6	true	smoothSolver	4.563990e-02	3.473650e-03	1	true	GAMG	2.609320e-03	1.413510e-05	2	true	smoothSolver	1.203690e-03	6.815010e-05	1	true
0.70504       	smoothSolver	2.095670e-03	5.457540e-09	7	true	smoothSolver	5.515410e-02	5.301160e-03	1	true	GAMG	2.870840e-03	1.573450e-05	2	true	smoothSolver	1.498060e-03	1.066640e-04	1	true
0.709119      	smoothSolver	1.090310e-03	3.596960e-09	5	true	smoothSolver	2.923910e-02	1.296310e-03	1	true	GAMG	1.949460e-03	1.002410e-05	2	true	smoothSolver	7.526070e-04	2.291460e-05	1	true
0.713979      	smoothSolver	1.308010e-03	1.214920e-09	6	true	smoothSolver	3.500870e-02	1.965900e-03	1	true	GAMG	2.179420e-03	1.142970e-05	2	true	smoothSolver	9.229460e-04	3.572660e-05	1	true
0.719467      	smoothSolver	1.498740e-03	3.105760e-09	6	true	smoothSolver	3.978080e-02	2.644730e-03	1	true	GAMG	2.324670e-03	1.228430e-05	2	true	smoothSolver	1.073480e-03	4.947440e-05	1	true
0.722811      	smoothSolver	9.266170e-04	7.874160e-10	5	true	smoothSolver	2.469080e-02	8.735300e-04	1	true	GAMG	1.741800e-03	9.211290e-06	2	true	smoothSolver	6.494430e-04	1.515900e-05	1	true
0.726713      	smoothSolver	1.096960e-03	2.529130e-09	5	true	smoothSolver	2.901090e-02	1.279380e-03	1	true	GAMG	1.918750e-03	1.075900e-05	2	true	smoothSolver	7.787600e-04	2.300890e-05	1	true
0.731216      	smoothSolver	1.288970e-03	7.439490e-09	5	true	smoothSolver	3.374040e-02	1.831410e-03	1	true	GAMG	2.087400e-03	1.161070e-05	2	true	smoothSolver	9.254150e-04	3.400370e-05	1	true
0.736365      	smoothSolver	1.488210e-03	2.891150e-09	6	true	smoothSolver	3.901080e-02	2.563010e-03	1	true	GAMG	2.246800e-03	1.283400e-05	2	true	smoothSolver	1.088500e-03	4.872050e-05	1	true
0.742545      	smoothSolver	1.797520e-03	1.911080e-09	7	true	smoothSolver	4.723510e-02	3.958420e-03	1	true	GAMG	2.457870e-03	1.395890e-05	2	true	smoothSolver	1.348590e-03	7.819890e-05	1	true
0.749593      	smoothSolver	2.048630e-03	5.595880e-09	7	true	smoothSolver	5.450330e-02	8.750740e-04	2	true	GAMG	2.574120e-03	1.446440e-05	2	true	smoothSolver	1.582350e-03	1.106350e-04	1	true
0.757628      	smoothSolver	2.314830e-03	3.916150e-09	8	true	smoothSolver	6.296530e-02	1.367330e-03	2	true	GAMG	2.669400e-03	1.516920e-05	2	true	smoothSolver	1.861970e-03	1.546080e-04	1	true
0.766541      	smoothSolver	2.535930e-03	2.284490e-09	9	true	smoothSolver	7.141920e-02	1.992130e-03	2	true	GAMG	2.711830e-03	1.532500e-05	2	true	smoothSolver	2.134100e-03	2.009460e-04	1	true
0.776525      	smoothSolver	2.816190e-03	5.938860e-09	9	true	smoothSolver	8.239590e-02	2.899490e-03	2	true	GAMG	2.759630e-03	1.592570e-05	2	true	smoothSolver	2.492490e-03	4.789450e-05	2	true