# Moment bins 
# bins        : 20
# start       : -2.176157e-01
# end         : 2.176596e-01
# delta       : 2.176376e-02
# direction   : (1.000000e+00 0.000000e+00 0.000000e+00)
# x co-ords  :	-1.958519e-01	-1.740881e-01	-1.523244e-01	-1.305606e-01	-1.087968e-01	-8.703306e-02	-6.526930e-02	-4.350553e-02	-2.174177e-02	2.199889e-05	2.178576e-02	4.354953e-02	6.531329e-02	8.707706e-02	1.088408e-01	1.306046e-01	1.523684e-01	1.741321e-01	1.958959e-01	2.176596e-01
# y co-ords  :	-0.000000e+00	-0.000000e+00	-0.000000e+00	-0.000000e+00	-0.000000e+00	-0.000000e+00	-0.000000e+00	-0.000000e+00	-0.000000e+00	0.000000e+00	0.000000e+00	0.000000e+00	0.000000e+00	0.000000e+00	0.000000e+00	0.000000e+00	0.000000e+00	0.000000e+00	0.000000e+00	0.000000e+00
# z co-ords  :	-0.000000e+00	-0.000000e+00	-0.000000e+00	-0.000000e+00	-0.000000e+00	-0.000000e+00	-0.000000e+00	-0.000000e+00	-0.000000e+00	0.000000e+00	0.000000e+00	0.000000e+00	0.000000e+00	0.000000e+00	0.000000e+00	0.000000e+00	0.000000e+00	0.000000e+00	0.000000e+00	0.000000e+00
#
# Time        	0:(total_x total_y total_z)	0:(pressure_x pressure_y pressure_z)	0:(viscous_x viscous_y viscous_z)	1:(total_x total_y total_z)	1:(pressure_x pressure_y pressure_z)	1:(viscous_x viscous_y viscous_z)	2:(total_x total_y total_z)	2:(pressure_x pressure_y pressure_z)	2:(viscous_x viscous_y viscous_z)	3:(total_x total_y total_z)	3:(pressure_x pressure_y pressure_z)	3:(viscous_x viscous_y viscous_z)	4:(total_x total_y total_z)	4:(pressure_x pressure_y pressure_z)	4:(viscous_x viscous_y viscous_z)	5:(total_x total_y total_z)	5:(pressure_x pressure_y pressure_z)	5:(viscous_x viscous_y viscous_z)	6:(total_x total_y total_z)	6:(pressure_x pressure_y pressure_z)	6:(viscous_x viscous_y viscous_z)	7:(total_x total_y total_z)	7:(pressure_x pressure_y pressure_z)	7:(viscous_x viscous_y viscous_z)	8:(total_x total_y total_z)	8:(pressure_x pressure_y pressure_z)	8:(viscous_x viscous_y viscous_z)	9:(total_x total_y total_z)	9:(pressure_x pressure_y pressure_z)	9:(viscous_x viscous_y viscous_z)	10:(total_x total_y total_z)	10:(pressure_x pressure_y pressure_z)	10:(viscous_x viscous_y viscous_z)	11:(total_x total_y total_z)	11:(pressure_x pressure_y pressure_z)	11:(viscous_x viscous_y viscous_z)	12:(total_x total_y total_z)	12:(pressure_x pressure_y pressure_z)	12:(viscous_x viscous_y viscous_z)	13:(total_x total_y total_z)	13:(pressure_x pressure_y pressure_z)	13:(viscous_x viscous_y viscous_z)	14:(total_x total_y total_z)	14:(pressure_x pressure_y pressure_z)	14:(viscous_x viscous_y viscous_z)	15:(total_x total_y total_z)	15:(pressure_x pressure_y pressure_z)	15:(viscous_x viscous_y viscous_z)	16:(total_x total_y total_z)	16:(pressure_x pressure_y pressure_z)	16:(viscous_x viscous_y viscous_z)	17:(total_x total_y total_z)	17:(pressure_x pressure_y pressure_z)	17:(viscous_x viscous_y viscous_z)	18:(total_x total_y total_z)	18:(pressure_x pressure_y pressure_z)	18:(viscous_x viscous_y viscous_z)	19:(total_x total_y total_z)	19:(pressure_x pressure_y pressure_z)	19:(viscous_x viscous_y viscous_z)
3601          	(-1.165454e+00 -6.944510e+00 2.241139e+01)	(-1.165414e+00 -6.944466e+00 2.241153e+01)	(-3.970769e-05 -4.398886e-05 -1.431283e-04)	(-3.858970e+00 -1.202257e+01 2.192703e+01)	(-3.858926e+00 -1.202252e+01 2.192719e+01)	(-4.432705e-05 -4.752200e-05 -1.599939e-04)	(-6.211479e+00 -1.610345e+01 1.921246e+01)	(-6.211436e+00 -1.610341e+01 1.921261e+01)	(-4.332665e-05 -4.624136e-05 -1.557626e-04)	(-8.230362e+00 -1.962249e+01 1.653478e+01)	(-8.230320e+00 -1.962244e+01 1.653493e+01)	(-4.207211e-05 -4.435801e-05 -1.522791e-04)	(-9.960706e+00 -2.261838e+01 1.376922e+01)	(-9.960665e+00 -2.261833e+01 1.376937e+01)	(-4.075957e-05 -4.230861e-05 -1.492105e-04)	(-1.137489e+01 -2.503483e+01 1.094035e+01)	(-1.137485e+01 -2.503479e+01 1.094049e+01)	(-3.941575e-05 -4.017108e-05 -1.463782e-04)	(-1.247069e+01 -2.691305e+01 8.164776e+00)	(-1.247065e+01 -2.691302e+01 8.164919e+00)	(-3.803333e-05 -3.793730e-05 -1.436516e-04)	(-1.325466e+01 -2.827475e+01 5.428242e+00)	(-1.325463e+01 -2.827472e+01 5.428383e+00)	(-3.660625e-05 -3.558755e-05 -1.409452e-04)	(-1.371951e+01 -2.907905e+01 2.686359e+00)	(-1.371948e+01 -2.907901e+01 2.686497e+00)	(-3.511570e-05 -3.311457e-05 -1.382077e-04)	(-1.385941e+01 -2.935620e+01 -5.829973e-02)	(-1.385937e+01 -2.935617e+01 -5.816438e-02)	(-3.350472e-05 -3.045699e-05 -1.353539e-04)	(-1.371555e+01 -2.907861e+01 -2.804014e+00)	(-1.371552e+01 -2.907859e+01 -2.803882e+00)	(-3.177777e-05 -2.761874e-05 -1.323808e-04)	(-1.326025e+01 -2.826607e+01 -5.529528e+00)	(-1.326022e+01 -2.826604e+01 -5.529399e+00)	(-2.990041e-05 -2.454117e-05 -1.292166e-04)	(-1.247774e+01 -2.691253e+01 -8.274777e+00)	(-1.247771e+01 -2.691250e+01 -8.274651e+00)	(-2.783681e-05 -2.115930e-05 -1.257922e-04)	(-1.138500e+01 -2.501689e+01 -1.101201e+01)	(-1.138498e+01 -2.501687e+01 -1.101189e+01)	(-2.555150e-05 -1.740931e-05 -1.220358e-04)	(-9.969502e+00 -2.258899e+01 -1.379897e+01)	(-9.969479e+00 -2.258898e+01 -1.379885e+01)	(-2.295961e-05 -1.315424e-05 -1.178368e-04)	(-8.242531e+00 -1.962757e+01 -1.663742e+01)	(-8.242511e+00 -1.962756e+01 -1.663731e+01)	(-1.993659e-05 -8.186809e-06 -1.130564e-04)	(-6.219074e+00 -1.609336e+01 -1.928912e+01)	(-6.219058e+00 -1.609335e+01 -1.928901e+01)	(-1.626924e-05 -2.136618e-06 -1.074362e-04)	(-3.872698e+00 -1.201334e+01 -2.196572e+01)	(-3.872687e+00 -1.201335e+01 -2.196562e+01)	(-1.151990e-05 5.790856e-06 -1.001277e-04)	(-1.173112e+00 -6.920190e+00 -2.242645e+01)	(-1.173107e+00 -6.920206e+00 -2.242636e+01)	(-5.417299e-06 1.632629e-05 -8.921589e-05)	(-1.274848e-02 1.232078e-02 -2.768489e-02)	(-1.274485e-02 1.230288e-02 -2.758772e-02)	(-3.631506e-06 1.789702e-05 -9.717243e-05)
3602          	(-1.165453e+00 -6.944509e+00 2.241139e+01)	(-1.165414e+00 -6.944465e+00 2.241153e+01)	(-3.969984e-05 -4.397628e-05 -1.431043e-04)	(-3.858969e+00 -1.202257e+01 2.192704e+01)	(-3.858925e+00 -1.202252e+01 2.192720e+01)	(-4.431674e-05 -4.750414e-05 -1.599686e-04)	(-6.211478e+00 -1.610345e+01 1.921246e+01)	(-6.211435e+00 -1.610341e+01 1.921262e+01)	(-4.331481e-05 -4.622011e-05 -1.557393e-04)	(-8.230361e+00 -1.962249e+01 1.653479e+01)	(-8.230319e+00 -1.962244e+01 1.653494e+01)	(-4.205888e-05 -4.433390e-05 -1.522575e-04)	(-9.960705e+00 -2.261838e+01 1.376923e+01)	(-9.960664e+00 -2.261834e+01 1.376938e+01)	(-4.074536e-05 -4.228255e-05 -1.491892e-04)	(-1.137488e+01 -2.503483e+01 1.094036e+01)	(-1.137485e+01 -2.503479e+01 1.094051e+01)	(-3.940110e-05 -4.014379e-05 -1.463573e-04)	(-1.247068e+01 -2.691305e+01 8.164787e+00)	(-1.247065e+01 -2.691302e+01 8.164931e+00)	(-3.801823e-05 -3.790867e-05 -1.436314e-04)	(-1.325466e+01 -2.827475e+01 5.428253e+00)	(-1.325462e+01 -2.827472e+01 5.428394e+00)	(-3.659045e-05 -3.555737e-05 -1.409256e-04)	(-1.371951e+01 -2.907905e+01 2.686370e+00)	(-1.371947e+01 -2.907901e+01 2.686508e+00)	(-3.509881e-05 -3.308229e-05 -1.381893e-04)	(-1.385941e+01 -2.935620e+01 -5.828880e-02)	(-1.385937e+01 -2.935617e+01 -5.815347e-02)	(-3.348662e-05 -3.042238e-05 -1.353368e-04)	(-1.371555e+01 -2.907861e+01 -2.804004e+00)	(-1.371552e+01 -2.907859e+01 -2.803871e+00)	(-3.175880e-05 -2.758229e-05 -1.323645e-04)	(-1.326025e+01 -2.826607e+01 -5.529518e+00)	(-1.326022e+01 -2.826604e+01 -5.529388e+00)	(-2.988046e-05 -2.450285e-05 -1.292011e-04)	(-1.247774e+01 -2.691253e+01 -8.274766e+00)	(-1.247771e+01 -2.691251e+01 -8.274641e+00)	(-2.781610e-05 -2.111972e-05 -1.257767e-04)	(-1.138500e+01 -2.501689e+01 -1.101200e+01)	(-1.138497e+01 -2.501687e+01 -1.101188e+01)	(-2.553057e-05 -1.736965e-05 -1.220199e-04)	(-9.969501e+00 -2.258899e+01 -1.379896e+01)	(-9.969478e+00 -2.258898e+01 -1.379884e+01)	(-2.293880e-05 -1.311501e-05 -1.178207e-04)	(-8.242529e+00 -1.962757e+01 -1.663742e+01)	(-8.242509e+00 -1.962757e+01 -1.663730e+01)	(-1.991597e-05 -8.147826e-06 -1.130401e-04)	(-6.219072e+00 -1.609336e+01 -1.928912e+01)	(-6.219056e+00 -1.609335e+01 -1.928901e+01)	(-1.624932e-05 -2.098513e-06 -1.074218e-04)	(-3.872696e+00 -1.201334e+01 -2.196572e+01)	(-3.872684e+00 -1.201335e+01 -2.196561e+01)	(-1.150262e-05 5.824261e-06 -1.001179e-04)	(-1.173110e+00 -6.920191e+00 -2.242645e+01)	(-1.173104e+00 -6.920208e+00 -2.242636e+01)	(-5.405472e-06 1.635042e-05 -8.921531e-05)	(-1.274570e-02 1.231915e-02 -2.768727e-02)	(-1.274210e-02 1.230119e-02 -2.759009e-02)	(-3.601069e-06 1.795526e-05 -9.718187e-05)
3603          	(-1.165453e+00 -6.944509e+00 2.241139e+01)	(-1.165413e+00 -6.944465e+00 2.241154e+01)	(-3.969210e-05 -4.396300e-05 -1.430844e-04)	(-3.858968e+00 -1.202257e+01 2.192704e+01)	(-3.858924e+00 -1.202252e+01 2.192720e+01)	(-4.430614e-05 -4.748458e-05 -1.599504e-04)	(-6.211478e+00 -1.610345e+01 1.921247e+01)	(-6.211434e+00 -1.610341e+01 1.921263e+01)	(-4.330272e-05 -4.619716e-05 -1.557235e-04)	(-8.230360e+00 -1.962249e+01 1.653480e+01)	(-8.230318e+00 -1.962244e+01 1.653495e+01)	(-4.204546e-05 -4.430821e-05 -1.522432e-04)	(-9.960704e+00 -2.261838e+01 1.376924e+01)	(-9.960663e+00 -2.261834e+01 1.376939e+01)	(-4.073092e-05 -4.225487e-05 -1.491753e-04)	(-1.137488e+01 -2.503483e+01 1.094037e+01)	(-1.137484e+01 -2.503479e+01 1.094052e+01)	(-3.938619e-05 -4.011485e-05 -1.463440e-04)	(-1.247068e+01 -2.691306e+01 8.164797e+00)	(-1.247065e+01 -2.691302e+01 8.164940e+00)	(-3.800285e-05 -3.787846e-05 -1.436187e-04)	(-1.325466e+01 -2.827475e+01 5.428263e+00)	(-1.325462e+01 -2.827472e+01 5.428404e+00)	(-3.657433e-05 -3.552560e-05 -1.409136e-04)	(-1.371951e+01 -2.907905e+01 2.686380e+00)	(-1.371947e+01 -2.907902e+01 2.686518e+00)	(-3.508154e-05 -3.304844e-05 -1.381786e-04)	(-1.385941e+01 -2.935620e+01 -5.827944e-02)	(-1.385937e+01 -2.935617e+01 -5.814411e-02)	(-3.346815e-05 -3.038628e-05 -1.353273e-04)	(-1.371555e+01 -2.907862e+01 -2.803994e+00)	(-1.371552e+01 -2.907859e+01 -2.803862e+00)	(-3.173946e-05 -2.754440e-05 -1.323558e-04)	(-1.326024e+01 -2.826607e+01 -5.529509e+00)	(-1.326021e+01 -2.826605e+01 -5.529379e+00)	(-2.986012e-05 -2.446314e-05 -1.291932e-04)	(-1.247774e+01 -2.691253e+01 -8.274758e+00)	(-1.247771e+01 -2.691251e+01 -8.274632e+00)	(-2.779494e-05 -2.107876e-05 -1.257690e-04)	(-1.138500e+01 -2.501689e+01 -1.101199e+01)	(-1.138497e+01 -2.501687e+01 -1.101187e+01)	(-2.550923e-05 -1.732871e-05 -1.220118e-04)	(-9.969499e+00 -2.258899e+01 -1.379895e+01)	(-9.969476e+00 -2.258898e+01 -1.379883e+01)	(-2.291761e-05 -1.307452e-05 -1.178122e-04)	(-8.242527e+00 -1.962758e+01 -1.663741e+01)	(-8.242507e+00 -1.962757e+01 -1.663730e+01)	(-1.989505e-05 -8.107597e-06 -1.130310e-04)	(-6.219070e+00 -1.609336e+01 -1.928911e+01)	(-6.219054e+00 -1.609336e+01 -1.928900e+01)	(-1.622927e-05 -2.059307e-06 -1.074136e-04)	(-3.872693e+00 -1.201334e+01 -2.196571e+01)	(-3.872682e+00 -1.201335e+01 -2.196561e+01)	(-1.148521e-05 5.859001e-06 -1.001133e-04)	(-1.173107e+00 -6.920193e+00 -2.242645e+01)	(-1.173102e+00 -6.920210e+00 -2.242636e+01)	(-5.393270e-06 1.637672e-05 -8.921805e-05)	(-1.274324e-02 1.231699e-02 -2.768973e-02)	(-1.273967e-02 1.229897e-02 -2.759256e-02)	(-3.570127e-06 1.801975e-05 -9.717574e-05)
3604          	(-1.165452e+00 -6.944508e+00 2.241139e+01)	(-1.165412e+00 -6.944464e+00 2.241154e+01)	(-3.968442e-05 -4.394956e-05 -1.430656e-04)	(-3.858967e+00 -1.202257e+01 2.192705e+01)	(-3.858923e+00 -1.202252e+01 2.192721e+01)	(-4.429541e-05 -4.746435e-05 -1.599348e-04)	(-6.211477e+00 -1.610345e+01 1.921248e+01)	(-6.211434e+00 -1.610341e+01 1.921263e+01)	(-4.329063e-05 -4.617373e-05 -1.557101e-04)	(-8.230359e+00 -1.962249e+01 1.653480e+01)	(-8.230317e+00 -1.962244e+01 1.653496e+01)	(-4.203216e-05 -4.428233e-05 -1.522308e-04)	(-9.960703e+00 -2.261838e+01 1.376925e+01)	(-9.960662e+00 -2.261834e+01 1.376940e+01)	(-4.071658e-05 -4.222699e-05 -1.491634e-04)	(-1.137488e+01 -2.503483e+01 1.094038e+01)	(-1.137484e+01 -2.503479e+01 1.094052e+01)	(-3.937135e-05 -4.008573e-05 -1.463325e-04)	(-1.247068e+01 -2.691306e+01 8.164805e+00)	(-1.247064e+01 -2.691302e+01 8.164949e+00)	(-3.798756e-05 -3.784821e-05 -1.436076e-04)	(-1.325466e+01 -2.827476e+01 5.428271e+00)	(-1.325462e+01 -2.827472e+01 5.428412e+00)	(-3.655829e-05 -3.549385e-05 -1.409030e-04)	(-1.371951e+01 -2.907905e+01 2.686388e+00)	(-1.371947e+01 -2.907902e+01 2.686526e+00)	(-3.506434e-05 -3.301471e-05 -1.381690e-04)	(-1.385940e+01 -2.935620e+01 -5.827120e-02)	(-1.385937e+01 -2.935617e+01 -5.813588e-02)	(-3.344983e-05 -3.035051e-05 -1.353189e-04)	(-1.371555e+01 -2.907862e+01 -2.803986e+00)	(-1.371552e+01 -2.907859e+01 -2.803854e+00)	(-3.172028e-05 -2.750690e-05 -1.323481e-04)	(-1.326024e+01 -2.826607e+01 -5.529501e+00)	(-1.326021e+01 -2.826605e+01 -5.529372e+00)	(-2.983997e-05 -2.442390e-05 -1.291863e-04)	(-1.247774e+01 -2.691253e+01 -8.274751e+00)	(-1.247771e+01 -2.691251e+01 -8.274625e+00)	(-2.777392e-05 -2.103829e-05 -1.257626e-04)	(-1.138500e+01 -2.501689e+01 -1.101199e+01)	(-1.138497e+01 -2.501688e+01 -1.101187e+01)	(-2.548799e-05 -1.728819e-05 -1.220052e-04)	(-9.969497e+00 -2.258899e+01 -1.379895e+01)	(-9.969474e+00 -2.258898e+01 -1.379883e+01)	(-2.289643e-05 -1.303428e-05 -1.178052e-04)	(-8.242525e+00 -1.962758e+01 -1.663741e+01)	(-8.242505e+00 -1.962757e+01 -1.663729e+01)	(-1.987415e-05 -8.067612e-06 -1.130234e-04)	(-6.219068e+00 -1.609336e+01 -1.928911e+01)	(-6.219051e+00 -1.609336e+01 -1.928900e+01)	(-1.620933e-05 -2.020459e-06 -1.074064e-04)	(-3.872691e+00 -1.201335e+01 -2.196571e+01)	(-3.872679e+00 -1.201335e+01 -2.196561e+01)	(-1.146794e-05 5.893428e-06 -1.001089e-04)	(-1.173105e+00 -6.920195e+00 -2.242645e+01)	(-1.173099e+00 -6.920212e+00 -2.242636e+01)	(-5.380903e-06 1.640313e-05 -8.922143e-05)	(-1.274064e-02 1.231437e-02 -2.769319e-02)	(-1.273710e-02 1.229628e-02 -2.759604e-02)	(-3.539467e-06 1.808622e-05 -9.715654e-05)
3605          	(-1.165452e+00 -6.944507e+00 2.241140e+01)	(-1.165412e+00 -6.944463e+00 2.241154e+01)	(-3.967714e-05 -4.393564e-05 -1.430524e-04)	(-3.858967e+00 -1.202257e+01 2.192705e+01)	(-3.858923e+00 -1.202252e+01 2.192721e+01)	(-4.428509e-05 -4.744369e-05 -1.599246e-04)	(-6.211476e+00 -1.610345e+01 1.921248e+01)	(-6.211433e+00 -1.610341e+01 1.921264e+01)	(-4.327908e-05 -4.615015e-05 -1.557016e-04)	(-8.230359e+00 -1.962249e+01 1.653481e+01)	(-8.230317e+00 -1.962245e+01 1.653496e+01)	(-4.201954e-05 -4.425659e-05 -1.522227e-04)	(-9.960702e+00 -2.261838e+01 1.376926e+01)	(-9.960662e+00 -2.261834e+01 1.376941e+01)	(-4.070294e-05 -4.219929e-05 -1.491557e-04)	(-1.137488e+01 -2.503483e+01 1.094038e+01)	(-1.137484e+01 -2.503479e+01 1.094053e+01)	(-3.935717e-05 -4.005683e-05 -1.463250e-04)	(-1.247068e+01 -2.691306e+01 8.164812e+00)	(-1.247064e+01 -2.691302e+01 8.164956e+00)	(-3.797297e-05 -3.781835e-05 -1.435999e-04)	(-1.325466e+01 -2.827476e+01 5.428279e+00)	(-1.325462e+01 -2.827472e+01 5.428420e+00)	(-3.654294e-05 -3.546261e-05 -1.408955e-04)	(-1.371951e+01 -2.907905e+01 2.686396e+00)	(-1.371947e+01 -2.907902e+01 2.686534e+00)	(-3.504787e-05 -3.298164e-05 -1.381625e-04)	(-1.385940e+01 -2.935621e+01 -5.826343e-02)	(-1.385937e+01 -2.935618e+01 -5.812812e-02)	(-3.343236e-05 -3.031562e-05 -1.353132e-04)	(-1.371555e+01 -2.907862e+01 -2.803979e+00)	(-1.371552e+01 -2.907859e+01 -2.803847e+00)	(-3.170197e-05 -2.747033e-05 -1.323432e-04)	(-1.326024e+01 -2.826607e+01 -5.529494e+00)	(-1.326021e+01 -2.826605e+01 -5.529365e+00)	(-2.982072e-05 -2.438568e-05 -1.291822e-04)	(-1.247773e+01 -2.691253e+01 -8.274745e+00)	(-1.247771e+01 -2.691251e+01 -8.274619e+00)	(-2.775379e-05 -2.099881e-05 -1.257590e-04)	(-1.138499e+01 -2.501689e+01 -1.101198e+01)	(-1.138497e+01 -2.501688e+01 -1.101186e+01)	(-2.546752e-05 -1.724845e-05 -1.220018e-04)	(-9.969495e+00 -2.258899e+01 -1.379894e+01)	(-9.969472e+00 -2.258898e+01 -1.379882e+01)	(-2.287589e-05 -1.299456e-05 -1.178016e-04)	(-8.242522e+00 -1.962758e+01 -1.663740e+01)	(-8.242502e+00 -1.962757e+01 -1.663729e+01)	(-1.985386e-05 -8.028108e-06 -1.130195e-04)	(-6.219064e+00 -1.609336e+01 -1.928911e+01)	(-6.219048e+00 -1.609336e+01 -1.928900e+01)	(-1.619003e-05 -1.982196e-06 -1.074029e-04)	(-3.872687e+00 -1.201335e+01 -2.196572e+01)	(-3.872676e+00 -1.201335e+01 -2.196562e+01)	(-1.145135e-05 5.927108e-06 -1.001078e-04)	(-1.173101e+00 -6.920198e+00 -2.242645e+01)	(-1.173096e+00 -6.920214e+00 -2.242636e+01)	(-5.368936e-06 1.642884e-05 -8.922967e-05)	(-1.273761e-02 1.231132e-02 -2.769816e-02)	(-1.273410e-02 1.229317e-02 -2.760102e-02)	(-3.510171e-06 1.815194e-05 -9.713321e-05)
3606          	(-1.165451e+00 -6.944507e+00 2.241140e+01)	(-1.165411e+00 -6.944463e+00 2.241154e+01)	(-3.967005e-05 -4.392163e-05 -1.430410e-04)	(-3.858966e+00 -1.202257e+01 2.192705e+01)	(-3.858922e+00 -1.202252e+01 2.192721e+01)	(-4.427505e-05 -4.742333e-05 -1.599149e-04)	(-6.211476e+00 -1.610345e+01 1.921249e+01)	(-6.211432e+00 -1.610341e+01 1.921264e+01)	(-4.326792e-05 -4.612713e-05 -1.556928e-04)	(-8.230358e+00 -1.962249e+01 1.653482e+01)	(-8.230316e+00 -1.962245e+01 1.653497e+01)	(-4.200742e-05 -4.423167e-05 -1.522138e-04)	(-9.960702e+00 -2.261838e+01 1.376926e+01)	(-9.960661e+00 -2.261834e+01 1.376941e+01)	(-4.068982e-05 -4.217247e-05 -1.491472e-04)	(-1.137488e+01 -2.503483e+01 1.094039e+01)	(-1.137484e+01 -2.503479e+01 1.094054e+01)	(-3.934350e-05 -4.002886e-05 -1.463162e-04)	(-1.247068e+01 -2.691306e+01 8.164820e+00)	(-1.247064e+01 -2.691302e+01 8.164963e+00)	(-3.795892e-05 -3.778959e-05 -1.435905e-04)	(-1.325466e+01 -2.827476e+01 5.428287e+00)	(-1.325462e+01 -2.827472e+01 5.428428e+00)	(-3.652816e-05 -3.543256e-05 -1.408862e-04)	(-1.371951e+01 -2.907905e+01 2.686404e+00)	(-1.371947e+01 -2.907902e+01 2.686542e+00)	(-3.503200e-05 -3.294991e-05 -1.381538e-04)	(-1.385940e+01 -2.935621e+01 -5.825516e-02)	(-1.385937e+01 -2.935618e+01 -5.811986e-02)	(-3.341560e-05 -3.028229e-05 -1.353052e-04)	(-1.371555e+01 -2.907862e+01 -2.803971e+00)	(-1.371551e+01 -2.907859e+01 -2.803839e+00)	(-3.168441e-05 -2.743536e-05 -1.323360e-04)	(-1.326024e+01 -2.826607e+01 -5.529487e+00)	(-1.326021e+01 -2.826605e+01 -5.529358e+00)	(-2.980228e-05 -2.434910e-05 -1.291755e-04)	(-1.247773e+01 -2.691253e+01 -8.274738e+00)	(-1.247770e+01 -2.691251e+01 -8.274613e+00)	(-2.773446e-05 -2.096093e-05 -1.257532e-04)	(-1.138499e+01 -2.501690e+01 -1.101198e+01)	(-1.138497e+01 -2.501688e+01 -1.101186e+01)	(-2.544770e-05 -1.721001e-05 -1.219964e-04)	(-9.969492e+00 -2.258900e+01 -1.379894e+01)	(-9.969469e+00 -2.258898e+01 -1.379882e+01)	(-2.285588e-05 -1.295590e-05 -1.177963e-04)	(-8.242519e+00 -1.962758e+01 -1.663740e+01)	(-8.242499e+00 -1.962757e+01 -1.663729e+01)	(-1.983402e-05 -7.989610e-06 -1.130143e-04)	(-6.219061e+00 -1.609336e+01 -1.928911e+01)	(-6.219045e+00 -1.609336e+01 -1.928900e+01)	(-1.617115e-05 -1.945053e-06 -1.073984e-04)	(-3.872683e+00 -1.201335e+01 -2.196572e+01)	(-3.872672e+00 -1.201336e+01 -2.196562e+01)	(-1.143528e-05 5.959319e-06 -1.001056e-04)	(-1.173098e+00 -6.920200e+00 -2.242646e+01)	(-1.173092e+00 -6.920217e+00 -2.242637e+01)	(-5.357332e-06 1.645281e-05 -8.923882e-05)	(-1.273391e-02 1.230776e-02 -2.770477e-02)	(-1.273043e-02 1.228955e-02 -2.760766e-02)	(-3.482575e-06 1.821435e-05 -9.710547e-05)
3607          	(-1.165451e+00 -6.944506e+00 2.241140e+01)	(-1.165411e+00 -6.944462e+00 2.241154e+01)	(-3.966336e-05 -4.390752e-05 -1.430337e-04)	(-3.858966e+00 -1.202257e+01 2.192706e+01)	(-3.858921e+00 -1.202252e+01 2.192722e+01)	(-4.426576e-05 -4.740386e-05 -1.599070e-04)	(-6.211475e+00 -1.610345e+01 1.921249e+01)	(-6.211432e+00 -1.610341e+01 1.921265e+01)	(-4.325760e-05 -4.610523e-05 -1.556851e-04)	(-8.230357e+00 -1.962249e+01 1.653482e+01)	(-8.230315e+00 -1.962245e+01 1.653497e+01)	(-4.199622e-05 -4.420802e-05 -1.522056e-04)	(-9.960701e+00 -2.261838e+01 1.376927e+01)	(-9.960660e+00 -2.261834e+01 1.376942e+01)	(-4.067765e-05 -4.214702e-05 -1.491390e-04)	(-1.137488e+01 -2.503483e+01 1.094040e+01)	(-1.137484e+01 -2.503479e+01 1.094055e+01)	(-3.933079e-05 -4.000235e-05 -1.463075e-04)	(-1.247068e+01 -2.691306e+01 8.164829e+00)	(-1.247064e+01 -2.691302e+01 8.164972e+00)	(-3.794585e-05 -3.776238e-05 -1.435809e-04)	(-1.325466e+01 -2.827476e+01 5.428296e+00)	(-1.325462e+01 -2.827472e+01 5.428437e+00)	(-3.651437e-05 -3.540418e-05 -1.408763e-04)	(-1.371950e+01 -2.907905e+01 2.686414e+00)	(-1.371947e+01 -2.907902e+01 2.686552e+00)	(-3.501718e-05 -3.291999e-05 -1.381443e-04)	(-1.385940e+01 -2.935621e+01 -5.824517e-02)	(-1.385937e+01 -2.935618e+01 -5.810988e-02)	(-3.339999e-05 -3.025092e-05 -1.352963e-04)	(-1.371554e+01 -2.907862e+01 -2.803961e+00)	(-1.371551e+01 -2.907860e+01 -2.803829e+00)	(-3.166804e-05 -2.740238e-05 -1.323277e-04)	(-1.326024e+01 -2.826608e+01 -5.529478e+00)	(-1.326021e+01 -2.826605e+01 -5.529349e+00)	(-2.978509e-05 -2.431454e-05 -1.291679e-04)	(-1.247773e+01 -2.691254e+01 -8.274731e+00)	(-1.247770e+01 -2.691252e+01 -8.274605e+00)	(-2.771639e-05 -2.092497e-05 -1.257463e-04)	(-1.138499e+01 -2.501690e+01 -1.101197e+01)	(-1.138496e+01 -2.501688e+01 -1.101185e+01)	(-2.542902e-05 -1.717322e-05 -1.219903e-04)	(-9.969488e+00 -2.258900e+01 -1.379893e+01)	(-9.969465e+00 -2.258899e+01 -1.379882e+01)	(-2.283686e-05 -1.291868e-05 -1.177906e-04)	(-8.242514e+00 -1.962758e+01 -1.663740e+01)	(-8.242495e+00 -1.962758e+01 -1.663729e+01)	(-1.981512e-05 -7.952540e-06 -1.130092e-04)	(-6.219056e+00 -1.609337e+01 -1.928911e+01)	(-6.219040e+00 -1.609336e+01 -1.928900e+01)	(-1.615319e-05 -1.909487e-06 -1.073942e-04)	(-3.872678e+00 -1.201335e+01 -2.196572e+01)	(-3.872667e+00 -1.201336e+01 -2.196562e+01)	(-1.142027e-05 5.989457e-06 -1.001041e-04)	(-1.173093e+00 -6.920203e+00 -2.242646e+01)	(-1.173087e+00 -6.920220e+00 -2.242637e+01)	(-5.346789e-06 1.647411e-05 -8.925061e-05)	(-1.272932e-02 1.230350e-02 -2.771282e-02)	(-1.272586e-02 1.228523e-02 -2.761574e-02)	(-3.457527e-06 1.827175e-05 -9.707765e-05)
3608          	(-1.165450e+00 -6.944506e+00 2.241140e+01)	(-1.165411e+00 -6.944462e+00 2.241154e+01)	(-3.965694e-05 -4.389373e-05 -1.430268e-04)	(-3.858965e+00 -1.202257e+01 2.192706e+01)	(-3.858921e+00 -1.202252e+01 2.192722e+01)	(-4.425713e-05 -4.738570e-05 -1.598969e-04)	(-6.211474e+00 -1.610345e+01 1.921250e+01)	(-6.211431e+00 -1.610341e+01 1.921265e+01)	(-4.324801e-05 -4.608487e-05 -1.556745e-04)	(-8.230356e+00 -1.962249e+01 1.653483e+01)	(-8.230314e+00 -1.962245e+01 1.653498e+01)	(-4.198579e-05 -4.418602e-05 -1.521942e-04)	(-9.960700e+00 -2.261838e+01 1.376928e+01)	(-9.960659e+00 -2.261834e+01 1.376943e+01)	(-4.066633e-05 -4.212334e-05 -1.491274e-04)	(-1.137488e+01 -2.503484e+01 1.094041e+01)	(-1.137484e+01 -2.503480e+01 1.094056e+01)	(-3.931895e-05 -3.997770e-05 -1.462950e-04)	(-1.247068e+01 -2.691306e+01 8.164842e+00)	(-1.247064e+01 -2.691302e+01 8.164986e+00)	(-3.793366e-05 -3.773709e-05 -1.435672e-04)	(-1.325465e+01 -2.827476e+01 5.428311e+00)	(-1.325462e+01 -2.827473e+01 5.428452e+00)	(-3.650148e-05 -3.537781e-05 -1.408622e-04)	(-1.371950e+01 -2.907906e+01 2.686429e+00)	(-1.371947e+01 -2.907902e+01 2.686567e+00)	(-3.500327e-05 -3.289215e-05 -1.381305e-04)	(-1.385940e+01 -2.935621e+01 -5.822971e-02)	(-1.385936e+01 -2.935618e+01 -5.809443e-02)	(-3.338537e-05 -3.022173e-05 -1.352828e-04)	(-1.371554e+01 -2.907863e+01 -2.803946e+00)	(-1.371551e+01 -2.907860e+01 -2.803814e+00)	(-3.165270e-05 -2.737160e-05 -1.323149e-04)	(-1.326023e+01 -2.826608e+01 -5.529464e+00)	(-1.326020e+01 -2.826606e+01 -5.529335e+00)	(-2.976899e-05 -2.428217e-05 -1.291556e-04)	(-1.247772e+01 -2.691254e+01 -8.274718e+00)	(-1.247770e+01 -2.691252e+01 -8.274592e+00)	(-2.769941e-05 -2.089108e-05 -1.257349e-04)	(-1.138498e+01 -2.501690e+01 -1.101196e+01)	(-1.138496e+01 -2.501688e+01 -1.101184e+01)	(-2.541129e-05 -1.713824e-05 -1.219797e-04)	(-9.969482e+00 -2.258900e+01 -1.379893e+01)	(-9.969459e+00 -2.258899e+01 -1.379881e+01)	(-2.281869e-05 -1.288313e-05 -1.177807e-04)	(-8.242508e+00 -1.962759e+01 -1.663740e+01)	(-8.242488e+00 -1.962758e+01 -1.663728e+01)	(-1.979699e-05 -7.917167e-06 -1.130004e-04)	(-6.219049e+00 -1.609337e+01 -1.928911e+01)	(-6.219033e+00 -1.609337e+01 -1.928900e+01)	(-1.613597e-05 -1.875820e-06 -1.073868e-04)	(-3.872671e+00 -1.201336e+01 -2.196573e+01)	(-3.872660e+00 -1.201336e+01 -2.196563e+01)	(-1.140622e-05 6.017036e-06 -1.000997e-04)	(-1.173085e+00 -6.920208e+00 -2.242647e+01)	(-1.173080e+00 -6.920224e+00 -2.242638e+01)	(-5.337460e-06 1.649183e-05 -8.926150e-05)	(-1.272223e-02 1.229786e-02 -2.772363e-02)	(-1.271879e-02 1.227954e-02 -2.762658e-02)	(-3.435400e-06 1.832198e-05 -9.705007e-05)
3609          	(-1.165450e+00 -6.944506e+00 2.241140e+01)	(-1.165410e+00 -6.944462e+00 2.241155e+01)	(-3.965054e-05 -4.387946e-05 -1.430225e-04)	(-3.858964e+00 -1.202257e+01 2.192706e+01)	(-3.858920e+00 -1.202252e+01 2.192722e+01)	(-4.424883e-05 -4.736802e-05 -1.598867e-04)	(-6.211473e+00 -1.610345e+01 1.921251e+01)	(-6.211430e+00 -1.610341e+01 1.921266e+01)	(-4.323882e-05 -4.606518e-05 -1.556630e-04)	(-8.230355e+00 -1.962249e+01 1.653484e+01)	(-8.230313e+00 -1.962245e+01 1.653499e+01)	(-4.197579e-05 -4.416477e-05 -1.521817e-04)	(-9.960698e+00 -2.261838e+01 1.376930e+01)	(-9.960657e+00 -2.261834e+01 1.376945e+01)	(-4.065551e-05 -4.210057e-05 -1.491144e-04)	(-1.137488e+01 -2.503484e+01 1.094043e+01)	(-1.137484e+01 -2.503480e+01 1.094057e+01)	(-3.930769e-05 -3.995406e-05 -1.462810e-04)	(-1.247068e+01 -2.691306e+01 8.164861e+00)	(-1.247064e+01 -2.691303e+01 8.165004e+00)	(-3.792205e-05 -3.771285e-05 -1.435518e-04)	(-1.325465e+01 -2.827476e+01 5.428331e+00)	(-1.325461e+01 -2.827473e+01 5.428472e+00)	(-3.648919e-05 -3.535255e-05 -1.408462e-04)	(-1.371950e+01 -2.907906e+01 2.686450e+00)	(-1.371946e+01 -2.907903e+01 2.686588e+00)	(-3.498999e-05 -3.286548e-05 -1.381146e-04)	(-1.385939e+01 -2.935621e+01 -5.820892e-02)	(-1.385936e+01 -2.935618e+01 -5.807366e-02)	(-3.337142e-05 -3.019376e-05 -1.352673e-04)	(-1.371554e+01 -2.907863e+01 -2.803926e+00)	(-1.371550e+01 -2.907860e+01 -2.803794e+00)	(-3.163809e-05 -2.734209e-05 -1.322999e-04)	(-1.326023e+01 -2.826608e+01 -5.529445e+00)	(-1.326020e+01 -2.826606e+01 -5.529315e+00)	(-2.975367e-05 -2.425106e-05 -1.291411e-04)	(-1.247772e+01 -2.691254e+01 -8.274701e+00)	(-1.247769e+01 -2.691252e+01 -8.274575e+00)	(-2.768325e-05 -2.085841e-05 -1.257212e-04)	(-1.138498e+01 -2.501691e+01 -1.101195e+01)	(-1.138495e+01 -2.501689e+01 -1.101182e+01)	(-2.539432e-05 -1.710435e-05 -1.219670e-04)	(-9.969475e+00 -2.258901e+01 -1.379892e+01)	(-9.969452e+00 -2.258899e+01 -1.379880e+01)	(-2.280126e-05 -1.284868e-05 -1.177689e-04)	(-8.242500e+00 -1.962759e+01 -1.663739e+01)	(-8.242481e+00 -1.962758e+01 -1.663728e+01)	(-1.977959e-05 -7.882998e-06 -1.129900e-04)	(-6.219041e+00 -1.609337e+01 -1.928911e+01)	(-6.219025e+00 -1.609337e+01 -1.928900e+01)	(-1.611949e-05 -1.843577e-06 -1.073782e-04)	(-3.872662e+00 -1.201336e+01 -2.196573e+01)	(-3.872651e+00 -1.201337e+01 -2.196563e+01)	(-1.139311e-05 6.042532e-06 -1.000946e-04)	(-1.173077e+00 -6.920213e+00 -2.242648e+01)	(-1.173071e+00 -6.920230e+00 -2.242639e+01)	(-5.329494e-06 1.650641e-05 -8.927271e-05)	(-1.271370e-02 1.229068e-02 -2.773386e-02)	(-1.271028e-02 1.227231e-02 -2.763684e-02)	(-3.416144e-06 1.836584e-05 -9.702431e-05)
3610          	(-1.165449e+00 -6.944507e+00 2.241141e+01)	(-1.165410e+00 -6.944463e+00 2.241155e+01)	(-3.964266e-05 -4.386515e-05 -1.430049e-04)	(-3.858963e+00 -1.202257e+01 2.192709e+01)	(-3.858918e+00 -1.202252e+01 2.192725e+01)	(-4.423941e-05 -4.735176e-05 -1.598577e-04)	(-6.211470e+00 -1.610346e+01 1.921255e+01)	(-6.211427e+00 -1.610341e+01 1.921270e+01)	(-4.322873e-05 -4.604752e-05 -1.556310e-04)	(-8.230350e+00 -1.962250e+01 1.653490e+01)	(-8.230308e+00 -1.962245e+01 1.653505e+01)	(-4.196517e-05 -4.414614e-05 -1.521473e-04)	(-9.960691e+00 -2.261839e+01 1.376937e+01)	(-9.960650e+00 -2.261835e+01 1.376951e+01)	(-4.064426e-05 -4.208085e-05 -1.490784e-04)	(-1.137487e+01 -2.503484e+01 1.094051e+01)	(-1.137483e+01 -2.503480e+01 1.094066e+01)	(-3.929619e-05 -3.993386e-05 -1.462430e-04)	(-1.247066e+01 -2.691307e+01 8.164952e+00)	(-1.247063e+01 -2.691304e+01 8.165095e+00)	(-3.791041e-05 -3.769247e-05 -1.435115e-04)	(-1.325464e+01 -2.827477e+01 5.428429e+00)	(-1.325460e+01 -2.827474e+01 5.428570e+00)	(-3.647707e-05 -3.533154e-05 -1.408045e-04)	(-1.371948e+01 -2.907907e+01 2.686553e+00)	(-1.371945e+01 -2.907904e+01 2.686691e+00)	(-3.497710e-05 -3.284346e-05 -1.380725e-04)	(-1.385937e+01 -2.935623e+01 -5.810463e-02)	(-1.385934e+01 -2.935620e+01 -5.796940e-02)	(-3.335817e-05 -3.017089e-05 -1.352249e-04)	(-1.371551e+01 -2.907864e+01 -2.803823e+00)	(-1.371548e+01 -2.907862e+01 -2.803691e+00)	(-3.162446e-05 -2.731805e-05 -1.322578e-04)	(-1.326020e+01 -2.826610e+01 -5.529347e+00)	(-1.326017e+01 -2.826608e+01 -5.529218e+00)	(-2.973967e-05 -2.422586e-05 -1.290991e-04)	(-1.247769e+01 -2.691256e+01 -8.274612e+00)	(-1.247766e+01 -2.691254e+01 -8.274486e+00)	(-2.766887e-05 -2.083221e-05 -1.256795e-04)	(-1.138495e+01 -2.501693e+01 -1.101187e+01)	(-1.138492e+01 -2.501691e+01 -1.101175e+01)	(-2.537944e-05 -1.707732e-05 -1.219261e-04)	(-9.969442e+00 -2.258903e+01 -1.379885e+01)	(-9.969419e+00 -2.258901e+01 -1.379874e+01)	(-2.278625e-05 -1.282161e-05 -1.177290e-04)	(-8.242465e+00 -1.962761e+01 -1.663734e+01)	(-8.242445e+00 -1.962761e+01 -1.663723e+01)	(-1.976503e-05 -7.856890e-06 -1.129519e-04)	(-6.219003e+00 -1.609340e+01 -1.928908e+01)	(-6.218987e+00 -1.609340e+01 -1.928897e+01)	(-1.610610e-05 -1.819857e-06 -1.073423e-04)	(-3.872623e+00 -1.201339e+01 -2.196572e+01)	(-3.872612e+00 -1.201339e+01 -2.196562e+01)	(-1.138359e-05 6.058599e-06 -1.000632e-04)	(-1.173037e+00 -6.920243e+00 -2.242648e+01)	(-1.173032e+00 -6.920259e+00 -2.242639e+01)	(-5.326136e-06 1.650895e-05 -8.926349e-05)	(-1.267484e-02 1.225671e-02 -2.775264e-02)	(-1.267144e-02 1.223832e-02 -2.765564e-02)	(-3.402341e-06 1.839178e-05 -9.699930e-05)