# omega  POINT_DATA 28841
# x  y  z  omega
-1.35525e-20 0.015557 5.70113e-08 1596.68
1.35525e-20 -0.015557 5.70113e-08 1597.24
0 -0.015557 0.000135955 1592.49
6.77626e-21 0.015557 0.000135978 1591.91
0 -0.015557 0.000527091 1977.46
-6.77626e-21 0.015557 0.000527192 1976.98
0 -0.015557 0.000659598 2219.86
0 0.015557 0.00065972 2219.46
-6.77626e-21 -0.015557 0.000798595 2449.76
0 0.015557 0.000798713 2449.36
-6.77626e-21 -0.0155569 0.00121618 3071.56
-6.77626e-21 0.0155569 0.00121632 3071.41
0 -0.0155569 0.0013548 3222.21
-6.77626e-21 0.0155569 0.00135493 3222.17
0 -0.0156159 6.66059e-05 1608.6
-6.77626e-21 0.0156159 6.66205e-05 1607.99
6.77626e-21 -0.015617 5.86706e-08 1608.41
6.77626e-21 0.015617 5.86703e-08 1607.81
0 -0.0156133 0.000594009 2124.1
0 0.0156134 0.000594136 2123.65
0 -0.0156101 0.000720993 2356.96
6.77626e-21 0.0156101 0.000721135 2356.54
0 -0.0155569 0.00150202 3343.02
-6.77626e-21 0.0155569 0.00150211 3343.18
6.77626e-21 -0.0156099 0.00127802 3186.29
0 0.0156099 0.00127818 3186.19
6.77626e-21 -0.0156067 0.00140494 3322.54
0 0.0156067 0.00140508 3322.58
6.77626e-21 -0.0156758 6.25745e-08 1527.09
0 0.0156759 6.25738e-08 1526.42
0 -0.0155569 0.00193256 2633.36
-6.77626e-21 0.015557 0.00193259 2634.07
1.35525e-20 -0.0156643 0.000653665 2047.29
2.71051e-20 0.0156643 0.000653856 2048.03
-6.77626e-21 0.015557 0.002087 2022.32
6.77626e-21 -0.015557 0.002087 2021.5
1.35525e-20 -0.0156581 0.00132517 2913.76
0 0.0156581 0.00132537 2915.83
6.77626e-21 0.0156109 0.00197559 2367.53
0 -0.0156109 0.00197556 2366.73
-6.77626e-21 -0.01562 0.00210848 1781.77
-6.77626e-21 0.01562 0.00210848 1782.7
6.77626e-21 0.0156426 0.00205606 1892.94
0 -0.0156426 0.00205603 1892
-6.77626e-21 0.0156707 0.00197917 1952.5
0 -0.0156707 0.00197909 1950.28
1.35525e-20 -0.0156949 0.00213398 1856.24
0 0.0156949 0.00213398 1857.17
-3.38813e-20 -0.015885 7.41481e-08 1598.36
-6.77626e-21 0.015885 7.41479e-08 1597.63
-1.12938e-21 -0.01589 0.000347638 1569.38
0 0.01589 0.000347812 1569.36
1.35525e-21 -0.0158834 0.000956224 2637.97
-1.807e-21 0.0158834 0.000956574 2639.93
1.50584e-21 -0.0158471 0.00154369 3300.67
-3.76459e-21 0.0158471 0.00154397 3304.13
5.64689e-22 0.0158414 0.00196399 1788.2
0 -0.0158414 0.00196388 1786.97
2.03288e-20 -0.015839 0.00218308 1343.66
-6.77626e-21 0.015839 0.00218308 1344.9
-1.35525e-20 -0.0159079 0.00220656 1410.76
1.35525e-20 0.0159079 0.00220657 1411.74
-2.25875e-21 -0.0160357 0.0016614 1736.23
3.38813e-21 0.0160357 0.00166177 1742.56
0 -0.0161336 1.64294e-05 1144.58
-4.23516e-22 0.0161337 1.62936e-05 1143.34
0 -0.0161343 5.30972e-08 1143.75
4.23516e-22 0.0161345 5.3091e-08 1142.51
1.35525e-20 -0.0159895 0.00223437 1085.4
-2.71051e-20 0.0159895 0.00223438 1086.53
0 -0.0161453 5.24536e-08 1114.52
4.23516e-22 0.0161478 5.2446e-08 1113.53
-3.38813e-21 -0.0161363 0.000658379 1122.44
-3.38813e-21 0.0161363 0.000658899 1124.91
0 -0.0161079 0.00123674 1271.07
-2.25875e-21 0.0161079 0.00123731 1277.77
7.52918e-22 -0.0162278 0.00195621 950.621
7.52918e-22 0.0162278 0.0019565 952.242
0 -0.0161978 0.00230533 1286.48
0 0.016198 0.00230539 1287.98
0 -0.0162561 0.00232518 1313.21
-6.77626e-21 0.0162561 0.00232519 1314.65
-6.77626e-21 0.016267 0.00230123 1309.28
0 -0.016267 0.00230114 1307.8
-6.77626e-21 0.0162975 0.0022713 1231.15
0 -0.0162976 0.0022711 1229.34
3.38813e-20 0.0162993 0.00233988 1381.47
0 -0.0162994 0.00233991 1380.18
-1.807e-20 0.0164712 0.000318829 826.958
0 -0.0164713 0.000318482 828.128
4.51751e-21 0.0164838 0.000934255 518.328
-4.51751e-21 -0.0164839 0.000933479 517.454
-1.35525e-20 0.0165151 8.91806e-08 847.792
0 -0.0165152 8.91797e-08 849.349
-9.03502e-21 0.0164768 0.00151157 537.166
0 -0.0164769 0.00151091 535.001
2.71051e-20 0.0166394 9.23356e-08 895.01
0 -0.0166395 9.23348e-08 896.531
1.35525e-20 0.0165053 0.00240993 1715.1
-4.06576e-20 -0.0165054 0.00240993 1713.27
2.71051e-20 0.0167038 0.000635453 676.302
-2.71051e-20 -0.0167039 0.000634624 676.137
2.82344e-22 0.0165943 0.00217414 1544.27
-3.10579e-21 -0.0165944 0.00217395 1542.13
0 0.0167298 0.00122683 479.582
-5.42101e-20 -0.0167299 0.00122587 478.386
2.71051e-20 0.0166885 0.00181396 786.607
0 -0.0166886 0.00181342 784.882
0 -0.0166609 0.002463 1986.34
0 0.0166609 0.00246301 1988.49
0 0.0168423 7.09371e-08 873.529
-1.35525e-20 -0.0168424 7.09349e-08 875.431
0 0.0169749 0.000303028 829.304
-2.25875e-21 -0.016975 0.000302617 831.181
0 0.0168731 0.00220951 1611.34
0 -0.0168731 0.0022093 1609.05
-2.25875e-21 0.016996 0.000918651 263.98
0 -0.0169961 0.00091773 262.633
-2.03288e-20 0.0168624 0.00253141 2597.87
6.77626e-21 -0.0168624 0.00253143 2595.82
4.51751e-21 0.0169886 0.00152444 262.603
-3.38813e-21 -0.0169887 0.00152368 259.799
-2.71051e-20 0.0170875 2.46042e-08 846.628
-1.35525e-20 -0.0170876 2.4598e-08 848.85
0 0.0169822 0.0019947 612.915
4.51751e-21 -0.0169822 0.00199432 610.854
-9.03502e-21 -0.0169517 0.00241974 2454.41
4.51751e-21 0.0169517 0.00241984 2456.53
-2.03288e-20 -0.0169618 0.00256517 2618.46
-2.71051e-20 0.0169619 0.0025652 2620.34
-2.71051e-20 0.0172725 0.000609723 525.057
2.71051e-20 -0.0172727 0.000608854 525.736
2.71051e-20 0.017301 3.8681e-09 856.886
2.71051e-20 -0.0173012 3.85985e-09 858.958
2.71051e-20 0.0172756 0.00121852 222.975
2.71051e-20 -0.0172759 0.00121756 222.224
5.42101e-20 0.0172503 0.00183266 449.15
0 -0.0172504 0.00183216 446.115
-2.71051e-20 -0.0171626 0.00263335 1880.68
0 0.0171626 0.00263335 1882.17
5.64689e-22 0.0172628 0.00228364 1395.05
-1.69407e-21 -0.0172628 0.00228347 1391.14
-2.71051e-20 0.0175152 3.90385e-09 846.161
-1.35525e-20 -0.0175152 3.89758e-09 848.022
-2.25875e-21 0.0176167 0.000304206 805.304
-4.51751e-21 -0.0176168 0.0003039 806.768
3.38813e-21 0.0176138 0.000914405 197.259
7.90564e-21 -0.0176139 0.000913728 196.452
-5.64689e-21 -0.0175987 0.00154607 151.053
-1.12938e-21 0.0175986 0.00154661 150.754
-8.47033e-22 0.0174822 0.00274305 1912.64
-1.52466e-20 -0.0174824 0.00274311 1911.88
2.37169e-20 -0.0174953 0.00274748 1906.36
-1.10114e-20 0.0174954 0.00274754 1906.94
-1.35525e-20 0.0177276 5.30319e-09 845.71
0 -0.0177276 5.30115e-09 847.195
2.25875e-21 -0.0176266 0.0021181 455.651
2.25875e-21 0.0176266 0.00211837 466.107
2.25875e-21 -0.0175734 0.00255388 1790.9
4.51751e-21 0.0175734 0.00255396 1791.78
0 -0.0179395 5.3668e-09 866.879
0 0.0179395 5.36695e-09 865.713
0 0.0179446 0.000602116 515.144
-2.71051e-20 -0.0179448 0.000601729 515.423
0 0.0179404 0.00122928 134.984
2.71051e-20 -0.0179405 0.00122883 134.409
0 -0.0179 0.00190857 338.973
0 0.0179 0.00190883 341.491
-2.71051e-20 -0.0177925 0.00284977 1473.9
-2.71051e-20 0.0177926 0.00284978 1474.48
0 -0.0179476 0.00242616 1016.61
-2.71051e-20 0.0179477 0.00242626 1019.14
-2.71051e-20 -0.0181451 4.40312e-09 877.993
1.35525e-20 0.0181451 4.40323e-09 877.056
0 -0.0180151 0.00292661 1294.68
0 0.0180152 0.00292666 1294.89
4.51751e-21 0.0182715 0.000300951 822.791
4.51751e-21 -0.0182716 0.000300824 823.417
4.51751e-21 0.0182775 0.000913256 209.296
-2.25875e-21 -0.0182775 0.000912982 208.832
1.12938e-20 -0.0182701 0.00156202 121.922
-6.77626e-21 0.0182702 0.00156226 123.375
2.25875e-21 -0.0182365 0.00214905 324.043
2.25875e-21 0.0182365 0.00214918 325.406
0 0.0181446 0.0029715 1339.31
-6.77626e-21 -0.0181446 0.00297151 1339.22
4.51751e-22 -0.018187 0.00270962 1262.35
-9.03502e-22 0.018187 0.00270971 1262.76
-1.35525e-20 0.0183922 2.43152e-09 890.757
1.35525e-20 -0.0183922 2.43142e-09 891.391
0 -0.0185886 1.4653e-09 909.592
0 0.0185886 1.46536e-09 909.128
2.71051e-20 -0.0183436 0.00304025 1504.99
-2.71051e-20 0.0183438 0.00304031 1505.13
2.71051e-20 0.0185996 0.000594964 533.755
0 -0.0185997 0.000594844 533.634
-5.80823e-21 -0.0186737 0.00129279 101.623
0 0.0186737 0.00129292 102.403
-1.35525e-20 -0.0187703 1.23407e-09 919.083
-2.71051e-20 0.0187703 1.23411e-09 918.758
0 -0.0185172 0.00309968 1575.62
3.38813e-20 0.0185172 0.00309971 1575.56
1.35525e-20 0.0187147 0.00187627 131.394
0 -0.0187147 0.00187618 130.195
-4.51751e-21 0.0186673 0.00253576 812.056
3.01167e-21 -0.0186673 0.00253569 810.577
-4.51751e-21 0.018823 0.000903617 215.806
0 -0.018823 0.000903518 215.341
6.77626e-21 0.0188705 0.000248278 880.157
-4.51751e-21 -0.0188706 0.000248244 880.331
2.71051e-21 -0.0186433 0.00294006 1589.71
5.42101e-21 0.0186434 0.00294015 1589.68
-2.71051e-20 -0.0189391 0.0015442 71.7196
0 0.018939 0.00154428 72.4681
1.27055e-21 0.01877 0.00318707 1895.22
2.32934e-21 -0.0187697 0.00318691 1895.44
-1.35525e-20 -0.0188366 0.00285351 1436.27
6.77626e-21 0.0188366 0.0028535 1437.24
1.35525e-20 0.0190684 6.42266e-10 946.987
0 -0.0190684 6.42229e-10 947.139
2.71051e-20 -0.0189469 0.0022033 147.531
-2.71051e-20 0.0189469 0.00220336 148.531
6.77626e-21 -0.0189609 0.002942 1576.19
6.77626e-21 0.018961 0.00294206 1577.3
0 -0.0192376 4.1695e-10 986.219
0 0.0192376 4.16977e-10 986.104
1.807e-20 0.0192505 0.000578849 571.2
0 -0.0192506 0.000578823 571.168
1.12938e-20 0.0192653 0.00120345 111.428
-9.03502e-21 -0.0192654 0.00120342 111.206
2.25875e-21 -0.0192727 0.00186892 95.7244
-2.25875e-21 0.0192727 0.00186895 96.5387
1.35525e-20 -0.0190867 0.00329553 2297.94
1.35525e-20 0.0190869 0.00329559 2297.78
1.35525e-20 0.0193938 3.58667e-10 997.947
0 -0.0193938 3.58645e-10 998.045
1.35525e-20 0.0193936 0.000130558 997.112
1.35525e-20 -0.0193936 0.000130549 997.21
-1.35525e-20 -0.019134 0.00323281 2258.72
0 0.0191342 0.00323291 2258.6
-2.25875e-21 -0.019259 0.0025456 509.553
9.03502e-21 0.019259 0.00254567 512.258
2.71051e-20 -0.0192049 0.00333603 1959.94
1.35525e-20 0.019205 0.00333606 1960.03
-9.03502e-22 -0.0193216 0.00298789 1438.21
-2.48463e-21 0.0193217 0.00298796 1440.37
-2.71051e-20 0.0195688 0.0002809 1015.82
2.71051e-20 -0.0195688 0.000280889 1015.87
0 0.019589 0.000871785 158.222
2.71051e-20 -0.0195891 0.000871776 158.335
-2.71051e-20 0.019374 0.00328238 1881.42
-2.71051e-20 -0.019374 0.00328231 1881.21
0 0.0196057 0.00151362 62.8413
2.71051e-20 -0.0196057 0.0015136 63.1387
-1.35525e-20 0.0193742 0.00339401 1832.85
2.71051e-20 -0.0193743 0.00339402 1832.54
2.71051e-20 -0.0196062 0.00219166 96.2668
0 0.0196062 0.0021917 97.9158
-1.35525e-20 0.0197445 1.18814e-10 1055.13
0 -0.0197445 1.18805e-10 1055.16
-1.35525e-20 0.0197496 0.000118775 1055.26
2.71051e-20 -0.0197497 0.000118768 1055.28
0 -0.0196349 0.00277745 333.198
2.71051e-20 0.0196349 0.00277749 339.058
2.71051e-20 -0.0195953 0.00324393 2120.74
1.35525e-20 0.0195954 0.00324399 2121.16
-1.35525e-20 0.0198868 6.23618e-11 1114.13
1.35525e-20 -0.0198869 6.23578e-11 1114.12
-2.25875e-21 0.0199025 0.000551659 639.487
0 -0.0199025 0.000551656 639.11
-1.35525e-20 -0.0196374 0.00348418 1745.3
-2.71051e-20 0.0196377 0.00348428 1745.56
-2.25875e-21 0.0199263 0.001165 115.029
-3.38813e-21 -0.0199263 0.001165 114.697
1.35525e-20 -0.0197066 0.00339972 1769.43
0 0.0197068 0.00339991 1769.65
-1.35525e-20 0.0200175 0.000104914 1126.92
0 -0.0200175 0.000104929 1126.88
0 0.020018 5.47771e-11 1127.67
0 -0.0200181 5.47715e-11 1127.63
1.12938e-21 -0.0199354 0.00184126 71.7505
3.38813e-21 0.0199354 0.00184128 72.3385
4.51751e-21 -0.0199396 0.00250633 183.478
0 0.0199397 0.00250637 188.844
-1.35525e-20 -0.0198049 0.00354152 1707.08
-1.35525e-20 0.019805 0.00354156 1707.35
1.12938e-21 -0.0199176 0.00307602 1075.74
-4.51751e-21 0.0199177 0.00307606 1080.14
0 -0.0202108 0.000262556 1165.19
2.71051e-20 0.0202108 0.00026255 1165.27
0 0.0202372 0.000828992 176.71
2.71051e-20 -0.0202372 0.000828987 174.983
0 0.0199792 0.00344752 1463.03
-2.71051e-20 -0.0199793 0.00344738 1462.5
-6.77626e-21 0.0199875 0.00360402 1261.36
-1.35525e-20 -0.0199877 0.00360407 1260.45
0 0.0202611 0.00146964 59.319
-2.71051e-20 -0.0202612 0.00146963 59.3221
-2.71051e-20 -0.0202613 0.00216726 67.2506
-5.42101e-20 0.0202614 0.00216729 68.1483
-1.35525e-20 -0.020424 1.48352e-11 1268.97
1.35525e-20 0.0204241 1.48335e-11 1269.06
0 -0.0204263 8.83644e-05 1269.3
1.35525e-20 0.0204264 8.83482e-05 1269.38
6.77626e-21 -0.0201259 0.00365139 1143.7
2.71051e-20 -0.0202574 0.00283427 216.577
-2.71051e-20 0.0202575 0.00283433 229.536
6.77626e-21 0.0201264 0.00365156 1144.13
0 -0.0202301 0.00346725 1261.81
0 0.0202303 0.00346745 1262.11
0 -0.0205367 8.07365e-12 1362.56
0 0.0205367 8.07331e-12 1362.62
2.25875e-21 -0.0205431 0.000507253 782.633
-2.25875e-21 0.0205431 0.000507255 785.623
-2.25875e-21 0.0205806 0.00109812 134.574
-2.25875e-21 -0.0205806 0.00109812 131.572
-1.35525e-20 0.0206332 7.23344e-05 1399.32
-1.35525e-20 -0.0206332 7.23369e-05 1399.29
0 0.0206362 7.47662e-12 1394.38
-1.35525e-20 -0.0206362 7.47681e-12 1394.34
1.35525e-20 -0.0203259 0.00371982 1411.43
0 0.0203262 0.0037199 1411.52
1.12938e-21 -0.0205919 0.0017924 59.1995
-1.12938e-21 0.0205919 0.00179242 60.953
-2.25875e-21 -0.0205776 0.00251315 121.207
-3.38813e-21 0.0205776 0.00251319 127.972
-1.35525e-20 -0.0204397 0.00376151 1491.62
1.35525e-20 0.0204398 0.00376155 1491.59
-1.35525e-20 -0.0204727 0.00364916 1487.98
-1.35525e-20 0.0204728 0.00364933 1487.95
1.8823e-21 -0.0205733 0.00324403 883.937
1.12938e-21 0.0205734 0.00324407 888.602
0 0.0208433 0.000231582 1504.34
2.71051e-20 -0.0208434 0.000231576 1504.32
-2.71051e-20 0.0208763 0.000747827 236.511
-2.71051e-20 -0.0208763 0.000747825 226.568
-2.71051e-20 0.0209306 0.00137574 61.6083
2.71051e-20 -0.0209307 0.00137573 60.7648
1.35525e-20 0.0206256 0.00382198 1770.28
1.35525e-20 -0.0206258 0.00382201 1770.7
0 -0.0209017 0.00213763 49.8301
-2.71051e-20 0.0209017 0.00213766 55.0171
6.77626e-21 -0.0207137 0.00385275 1790.42
6.77626e-21 0.0207139 0.00385285 1790.06
5.42101e-20 -0.0208885 0.0028589 140.913
2.71051e-20 0.0208886 0.00285896 148.538
6.77626e-21 -0.02076 0.00376312 1751.94
6.77626e-21 0.0207604 0.00376287 1751.46
1.50584e-21 -0.0211429 0.000434515 876.574
-4.51751e-21 0.0211429 0.000434517 878.173
-5.27043e-21 -0.020841 0.00362678 1574.12
7.52918e-22 0.0208412 0.00362688 1574.78
6.77626e-21 -0.0208385 0.00389815 1915.99
6.77626e-21 0.0208392 0.00389846 1916.19
-2.96462e-21 0.0212597 5.23664e-13 1178.12
-4.23516e-22 -0.0212598 5.24304e-13 1178.05
-8.47033e-22 0.0212767 1.41034e-05 1164.36
4.23516e-22 0.0212812 1.48332e-06 1176.15
8.89385e-21 -0.0212768 1.40587e-05 1164.32
0 -0.0212769 1.7356e-06 1176.09
0 0.0212896 2.69174e-13 1174.47
0 -0.0212896 2.70632e-13 1174.41
-1.69407e-21 0.0212724 0.000879015 296.615
-1.8823e-22 -0.0212724 0.000879006 295.851
3.38813e-22 0.0212426 0.00171822 65.5831
1.01644e-21 -0.0212427 0.00171817 62.4716
-2.25875e-21 -0.0212146 0.00249699 81.0584
2.25875e-21 0.0212146 0.00249702 87.3857
1.35525e-20 -0.0210353 0.00398137 2212.89
1.35525e-20 0.0210356 0.00398151 2212.43
2.25875e-21 -0.021178 0.00323684 559.805
-2.25875e-21 0.0211781 0.00323695 567.081
-1.35525e-20 -0.0210737 0.00393718 2177.14
-2.71051e-20 0.0210739 0.00393742 2176.78
1.35525e-20 -0.0211187 0.00402023 1960.46
0 0.0211188 0.00402028 1960.59
8.06698e-23 -0.0212477 0.0036816 1431.96
0 0.0212477 0.00368165 1436.23
-5.42101e-20 0.0215747 0.00130741 69.0403
0 -0.0215747 0.0013074 67.438
0 0.0212487 0.00397497 1818.79
-1.35525e-20 -0.0212488 0.00397483 1818.36
6.77626e-21 0.0212528 0.00408536 1714.89
-2.03288e-20 -0.021253 0.00408547 1714.19
-2.25875e-21 0.0216407 0.000331745 789.918
0 -0.0216408 0.000331738 790.246
-2.71051e-20 0.0215441 0.00209933 45.9148
-2.71051e-20 -0.0215441 0.00209931 40.7945
-2.71051e-20 -0.0215224 0.00284519 88.7713
0 0.0215225 0.00284524 96.1165
0 0.0217961 7.90662e-14 916.204
1.35525e-20 -0.0217961 7.93942e-14 916.113
0 -0.0215506 0.0034709 335.999
0 0.0215507 0.00347098 349.938
-2.71051e-20 -0.021496 0.00395183 2117.51
2.71051e-20 0.0214961 0.00395191 2118.1
-6.77626e-21 -0.0214981 0.0042046 1678.24
-6.77626e-21 0.0214986 0.00420483 1678.76
0 0.0218605 0.00170496 56.9155
3.29402e-22 -0.0218606 0.0017049 53.7389
-2.25875e-22 0.0219212 0.000827144 305.985
-3.83988e-21 -0.0219212 0.00082713 309.961
-2.71051e-20 0.0219609 4.00731e-14 946.226
1.35525e-20 -0.021961 4.01625e-14 946.088
5.64689e-22 -0.0218494 0.00247004 55.8286
-5.64689e-22 0.0218494 0.00247006 62.1371
1.35525e-20 -0.0216144 0.00413961 1777.02
1.35525e-20 0.0216146 0.0041399 1777.32
1.35525e-20 -0.0216502 0.00427848 1859.62
0 0.0216504 0.00427858 1859.83
5.64689e-22 -0.0218421 0.00317491 173.996
1.12938e-21 0.0218422 0.00317497 187.896
0 -0.0217324 0.0043183 1878.77
0 0.0217325 0.00431833 1878.94
-2.71051e-20 -0.0217584 0.00423542 1902.82
-1.35525e-20 0.0217584 0.00423558 1902.93
0 0.0221732 2.80694e-14 854.662
0 -0.0221734 2.81207e-14 854.428
0 -0.0218663 0.00385214 1217.35
-7.05861e-23 0.0218671 0.00385266 1226.41
2.71051e-20 0.0222021 0.00129535 70.1449
0 -0.0222022 0.00129534 71.1126
0 -0.0222511 0.000330196 746.678
0 0.0222517 0.000329756 747.016
2.71051e-20 0.0221693 0.00208073 41.6493
2.71051e-20 -0.0221694 0.00208072 35.3874
1.35525e-20 0.0218632 0.00438168 2058.91
-2.71051e-20 -0.0218633 0.00438173 2059.06
-6.77626e-21 -0.0223211 1.21337e-14 851.079
-2.03288e-20 0.0223211 1.20993e-14 851.33
-2.71051e-20 -0.0221597 0.00282092 57.406
2.71051e-20 0.0221597 0.00282095 64.042
-2.71051e-20 -0.0221457 0.00350906 194.26
2.71051e-20 0.0221457 0.00350913 221.485
-1.35525e-20 -0.0220147 0.00445519 2029.93
-6.77626e-21 0.0220149 0.00445527 2029.73
5.42101e-20 0.0225414 1.2233e-15 948.125
0 -0.0225415 1.22688e-15 947.857
3.95282e-21 -0.0221394 0.00425952 1892.11
2.25875e-21 0.0221395 0.00425957 1893.15
0 0.0224964 0.00168457 54.8778
4.23516e-21 -0.0224964 0.00168462 52.1022
-4.23516e-22 0.0225021 0.0016848 54.7182
4.23516e-22 -0.0225021 0.00168484 51.9531
-4.23516e-22 -0.0225129 0.001688 52.002
0 0.0225131 0.001688 54.7374
-1.807e-21 0.022576 0.000874286 293.311
-2.71051e-21 -0.0225761 0.000874279 298.577
5.64689e-22 0.0225135 0.00242347 53.3032
8.06698e-23 -0.0225135 0.0024234 46.4676
2.25875e-21 -0.0224593 0.00318118 103.804
-4.51751e-21 0.0224593 0.00318122 117.342
1.69407e-21 -0.0223014 0.00459401 1876.64
0 0.0223021 0.00459434 1876.22
6.32451e-21 -0.0224349 0.00390494 716.98
-3.16226e-21 0.0224349 0.00390503 732.256
-9.74088e-21 0.0228058 8.71796e-16 763.474
4.23516e-22 -0.022806 8.73835e-16 763.185
3.81165e-21 0.022811 2.493e-05 756.066
-4.23516e-22 -0.0228111 2.41514e-05 756.012
3.38813e-21 -0.0223411 0.0046132 1888.9
3.38813e-21 0.0223413 0.00461331 1888.35
0 -0.0228141 8.54707e-16 763.776
-1.12938e-21 0.0228117 0.000334111 698.137
2.96462e-21 0.0228142 8.52135e-16 764.084
-5.64689e-22 -0.0228118 0.000334123 698.416
0 -0.0223469 0.00460662 1878.22
-3.38813e-21 0.022347 0.00460681 1877.8
0 -0.0223544 0.00461967 1841.7
0 0.0223545 0.00461971 1841.7
0 -0.0223624 0.00458463 1796.8
0 0.0223623 0.00458505 1798.35
-1.69407e-21 0.0223809 0.00461205 1824.69
0 -0.0223811 0.00461193 1824.5
0 0.0223956 0.00463962 1808.2
-1.69407e-21 -0.022396 0.00463981 1807.84
-1.35525e-20 -0.0225313 0.00433152 1283.37
0 0.0225314 0.00433163 1289.37
0 -0.0227767 0.00282449 42.855
5.42101e-20 0.0227767 0.00282452 53.6501
0 0.0229169 0.00145352 61.3278
2.71051e-20 -0.022917 0.00145354 58.3332
-2.71051e-20 0.0229127 0.00195201 41.3966
-2.71051e-20 -0.0229127 0.00195199 39.8415
0 -0.0227583 0.00352767 114.887
0 0.0227583 0.00352773 124.105
0 -0.0226788 0.00436536 1111.71
-1.35525e-20 0.0226788 0.00436543 1121.8
-1.35525e-20 -0.0231146 6.2653e-16 875.497
1.35525e-20 0.0231146 6.24699e-16 875.771
-2.82344e-22 0.0231263 0.00085734 321.072
2.82344e-22 -0.0231263 0.00085738 325.201
0 0.0231204 0.00168687 52.3286
1.35525e-20 -0.0231204 0.00168687 50.9006
-1.35525e-20 -0.022691 0.00478261 1560.81
1.35525e-20 0.0226912 0.00478269 1560.66
-4.23516e-22 0.0231332 0.00244156 45.7993
2.5411e-21 -0.0231332 0.00244155 37.7473
-1.35525e-20 -0.0227887 0.00466778 1511.84
-1.35525e-20 0.0227888 0.00466792 1511.72
-1.12938e-21 -0.0230834 0.00317451 66.145
4.51751e-21 0.0230834 0.00317454 78.294
0 -0.023319 3.12047e-16 671.08
0 0.0233192 3.1085e-16 671.185
0 -0.0230283 0.00391279 362.929
0 0.0230283 0.00391288 379.84
0 -0.0233299 0.00142278 65.5718
0 0.02333 0.00142275 62.8681
0 -0.0233168 0.00194192 38.3624
0 0.0233168 0.00194193 41.0278
-2.71051e-20 -0.0228965 0.00488208 1381.78
5.42101e-20 0.0228965 0.0048821 1381.76
0 0.0234102 0.000267349 647.345
2.25875e-21 -0.0234102 0.000267197 647.19
2.25875e-21 -0.0229985 0.00439045 949.448
-3.76459e-21 0.0229986 0.00439055 961.32
-1.35525e-20 0.023516 1.75113e-16 633.744
-6.77626e-21 -0.0235163 1.75793e-16 633.488
2.71051e-20 -0.0234234 0.00278582 33.3866
0 0.0234234 0.00278584 45.0682
0 -0.023065 0.00496366 1090.98
0 0.0230651 0.00496372 1090.84
2.71051e-20 -0.0233787 0.00352555 70.5664
0 0.0233787 0.00352559 87.256
0 0.023716 -1.12992e-16 688.309
-1.35525e-20 -0.0237161 -1.12641e-16 687.912
4.51751e-22 -0.0232667 0.00471649 979.834
0 0.0232668 0.00471653 981.462
0 -0.0233857 0.00417624 231.119
0 0.0233857 0.00417629 248.249
0 0.0232203 0.00503884 1023.65
-6.77626e-21 -0.0232204 0.00503886 1023.7
1.69407e-21 0.0237642 0.00087167 334.335
-1.97641e-21 -0.0237642 0.000871743 334.962
0 -0.0237896 9.69124e-05 560.394
0 0.0237897 9.71024e-05 560.551
0 -0.0237941 4.97838e-16 561.444
-1.35525e-20 0.0237941 5.00227e-16 561.604
1.41172e-22 -0.0237453 0.00168599 48.755
-5.64689e-22 0.0237454 0.00168598 50.3687
1.35525e-20 -0.0238503 -3.62296e-16 536.823
0 0.0238505 -3.64289e-16 536.925
-9.03502e-22 -0.0237771 0.00232528 35.3239
-4.06576e-21 0.0237771 0.00232532 44.3506
-1.35525e-20 -0.0233449 0.00509915 1144.48
0 0.023345 0.00509919 1144.51
-2.25875e-21 -0.0237117 0.00315189 44.8773
3.38813e-21 0.0237118 0.0031519 60.137
-1.35525e-20 -0.0239753 0.000105662 476.086
1.35525e-20 0.0239757 0.000105887 476.067
0 -0.0240028 2.38539e-16 471.746
-2.25875e-21 -0.0236913 0.00385633 122.991
3.38813e-21 0.0236913 0.00385637 141.509
0 0.0240033 2.38657e-16 471.718
-1.35525e-20 -0.0235265 0.00518704 1207.71
2.37169e-20 0.0235265 0.00518705 1207.75
6.02335e-21 0.0237117 0.00456141 714.9
-1.35525e-20 -0.0237117 0.00456136 703.969
0 -0.0235864 0.00521604 1255.94
-3.38813e-21 0.0235866 0.00521614 1256.12
-1.89735e-20 -0.0236568 0.00499179 1233.65
-1.6263e-20 0.0236569 0.00499184 1233.65
0 -0.0240359 0.00277848 28.2935
2.71051e-20 0.0240359 0.00277849 41.2431
2.71051e-20 -0.0240146 0.00349442 46.5542
0 0.0240146 0.00349445 66.2641
0 -0.0237108 0.00516849 1344.95
-1.35525e-20 0.0237109 0.00516865 1344.98
0 -0.0237216 0.00528148 1449.69
0 0.0237216 0.0052815 1449.58
3.38813e-21 0.0238516 0.00489339 1104.99
0 -0.0238517 0.00489345 1099.85
0 -0.0239976 0.00419233 129.828
0 0.0239977 0.00419237 150.703
-6.77626e-21 0.0238168 0.00514851 1305.74
6.77626e-21 -0.0238169 0.00514833 1303.27
1.35525e-20 0.0238282 0.00525495 1523.67
6.77626e-21 -0.0238283 0.0052549 1523.9
0 0.0238429 0.00534021 1618.17
-6.77626e-21 -0.023843 0.00534026 1618.53
5.42101e-20 0.0243893 0.00171904 44.7487
0 -0.0243893 0.00171904 40.5183
1.35525e-20 -0.0239789 0.00489861 879.768
1.35525e-20 0.0239789 0.0048987 889.418
1.41172e-22 0.0243696 0.00243126 41.1794
0 -0.0243706 0.00243184 30.15
0 -0.0244866 0.000512679 306.427
5.42101e-20 0.0244867 0.000512677 306.554
-3.38813e-21 -0.0243442 0.00312513 33.602
2.25875e-21 0.0243442 0.00312514 50.0254
2.03288e-20 -0.0239577 0.00539578 1720.75
-2.03288e-20 0.0239577 0.00539581 1720.49
2.71051e-21 0.0240299 0.00521685 1594.74
8.13152e-21 -0.0240299 0.00521683 1594.99
-2.25875e-21 -0.0243197 0.0038376 72.5558
0 0.0243197 0.00383762 93.6701
4.51751e-21 -0.0242836 0.00455355 396.679
-6.77626e-21 0.0242836 0.00455361 414.72
0 0.0241601 0.00549381 1509.5
-1.35525e-20 -0.0241602 0.00549381 1509.62
-7.52918e-22 -0.0242636 0.00502106 1005.1
-5.27043e-21 0.0242636 0.0050211 1014.17
0 -0.0246819 0.00275431 25.6604
0 0.0246819 0.00275432 38.5727
0 -0.0246457 0.00346487 33.7523
0 0.0246457 0.00346489 53.8031
0 0.0243131 0.00556784 1204.73
0 -0.0243131 0.00556784 1204.87
2.71051e-20 0.0249637 3.14343e-16 293.059
0 -0.0249638 3.14534e-16 292.887
0 0.0249658 0.000127132 291.756
-1.35525e-20 -0.0249658 0.000127056 291.584
-2.71051e-20 -0.0246319 0.00416566 75.7784
0 0.0246319 0.00416568 99.7458
-4.51751e-21 0.0250669 0.0011139 168.031
-2.25875e-21 -0.0250669 0.0011139 165.483
-1.807e-21 0.0245277 0.00533373 1034.97
3.61401e-21 -0.0245277 0.00533373 1033.6
2.71051e-20 -0.0246411 0.00480616 247.892
0 0.0246411 0.00480619 270.747
0 -0.0251264 -5.56023e-18 309.109
2.71051e-20 0.0251265 -5.53943e-18 309.302
-6.77626e-21 0.0244891 0.00565307 1095.33
-6.77626e-21 -0.0244893 0.0056531 1095.43
2.25875e-21 0.0250457 0.00228488 41.2492
5.64689e-21 -0.0250457 0.00228488 30.8857
0 -0.0249744 0.00307723 28.3668
-2.82344e-22 0.0249744 0.00307727 44.9003
-2.71051e-20 0.0245965 0.00570506 1205.42
-2.71051e-20 -0.0245966 0.00570506 1205.4
2.71051e-20 -0.0252751 0.000134702 276.955
0 -0.0249933 0.00376619 49.2912
-8.47033e-22 0.0249934 0.00376619 70.7543
0 0.0252752 0.000134769 277.15
-1.35525e-20 -0.0252845 -2.39201e-18 276.893
1.35525e-20 0.0252846 -2.39376e-18 277.088
1.12938e-21 -0.0249434 0.00449172 132.619
-3.38813e-21 0.0249434 0.00449173 156.31
-3.38813e-20 0.0247822 0.00579494 1269.68
-2.37169e-20 -0.0247823 0.00579496 1269.61
1.50584e-21 0.0249666 0.00518174 750.856
-4.51751e-21 -0.0249666 0.00518171 736.92
-6.77626e-21 -0.0248296 0.00581788 1311.64
6.77626e-21 0.0248297 0.00581793 1311.82
1.89735e-20 0.0249104 0.00560269 1294.24
5.42101e-21 -0.0249105 0.00560268 1294.24
-2.71051e-20 0.0254015 0.00285468 38.5532
-2.71051e-20 -0.0254015 0.00285468 23.3805
-2.71051e-20 -0.0252645 0.0041447 53.4377
2.71051e-20 0.0252645 0.00414472 75.4109
0 0.0254031 0.00331055 46.9329
2.71051e-20 -0.0254031 0.00331053 27.3104
-6.77626e-21 -0.0249624 0.00577186 1415.36
6.77626e-21 0.0249624 0.00577198 1415.43
1.35525e-20 -0.0249739 0.00588773 1535.8
0 0.0249739 0.00588773 1535.72
0 -0.0252501 0.00482063 138.41
2.71051e-20 0.0252501 0.00482065 164.635
0 0.0257172 0.000556259 259.568
0 -0.0257173 0.000556256 259.324
0 0.0250722 0.00575404 1374.1
6.77626e-21 -0.0250723 0.0057539 1370.77
0 0.0256698 0.00175088 45.0034
-5.42101e-20 -0.0256699 0.00175088 39.0692
2.82344e-22 -0.0256382 0.0024157 28.1425
-1.69407e-21 0.0256382 0.00241572 40.7049
6.77626e-21 0.0250837 0.00586272 1620.47
6.77626e-21 -0.0250837 0.0058627 1620.67
1.35525e-20 -0.0256079 0.00307874 24.5582
0 0.0256079 0.00307875 42.0771
0 0.0250979 0.00594758 1727.27
0 -0.025098 0.00594765 1727.62
2.25875e-21 -0.0251925 0.00555309 1157.71
0 0.0251926 0.00555306 1164.82
-1.35525e-20 0.0252317 0.00551488 926.618
0 -0.0252317 0.00551484 914.167
0 -0.0255924 0.00379288 38.036
-3.01167e-21 0.0255924 0.00379288 59.3531
-6.77626e-21 -0.0252102 0.00600188 1837.58
-6.77626e-21 0.0252102 0.00600189 1837.39
-2.71051e-21 0.0252817 0.00582896 1695.69
-5.42101e-21 -0.0252818 0.00582896 1695.88
-5.64689e-21 -0.0255735 0.00447394 79.6574
0 0.0255735 0.00447395 102.976
0 -0.0258318 0.00284479 22.5118
0 0.0258318 0.00284478 38.3144
-2.71051e-20 -0.0257993 0.00329833 24.3681
0 0.0257993 0.00329834 43.3469
-2.25875e-21 0.0255336 0.00517881 434.9
2.25875e-21 -0.0255336 0.00517877 415.27
0 0.025412 0.0060992 1584.72
1.35525e-20 -0.0254121 0.00609923 1584.79
0 -0.0255488 0.00563573 1040.57
2.25875e-21 0.0255489 0.00563577 1051.14
0 0.0262228 -2.4481e-18 253.73
-2.71051e-20 -0.0262229 -2.47067e-18 253.42
-1.35525e-20 0.0262241 0.000110141 253.558
0 -0.0262242 0.000110108 253.247
0 -0.025914 0.00409941 36.7948
2.71051e-20 0.025914 0.00409942 59.3097
0 -0.0255676 0.00617787 1254.7
-1.35525e-20 0.0255676 0.0061779 1254.46
0 0.025876 0.00480446 107.523
-2.71051e-20 -0.025876 0.00480444 84.8413
4.51751e-21 0.0263175 0.00114406 149.706
-4.51751e-21 -0.0263176 0.00114406 146.157
1.35525e-20 0.0263543 1.29153e-19 253.185
0 -0.0263544 1.25826e-19 252.858
4.51751e-21 0.0263095 0.00235737 41.3564
0 -0.0263095 0.00235736 29.6358
-1.05879e-22 -0.0262457 0.00306372 22.7383
0 0.0262443 0.00306373 39.8389
0 -0.0262456 0.00305715 22.8039
-1.05879e-22 0.0262456 0.00305727 39.8554
3.17637e-22 0.0262459 0.0030829 40.1363
-2.22346e-21 -0.0262459 0.00308326 22.9786
-2.71051e-20 0.0258908 0.00543286 282.271
0 -0.0258909 0.00543283 259.206
-4.51751e-22 0.0257782 0.005954 1087.17
-5.42101e-21 -0.0257782 0.00595398 1085.7
-2.71051e-20 0.0264723 0.000113081 247.863
-1.35525e-20 -0.0264724 0.000113054 247.517
-1.35525e-20 0.0264809 1.34692e-19 247.824
-1.35525e-20 -0.0264809 1.33177e-19 247.477
1.35525e-20 0.0257321 0.00626843 1114.37
-6.77626e-21 -0.0257323 0.00626851 1114.41
-4.70574e-22 0.0262544 0.00364383 50.1156
-2.82344e-22 -0.0262544 0.0036438 31.0368
2.25875e-21 -0.026205 0.00444577 52.8607
-1.12938e-21 0.026205 0.00444578 73.1155
0 -0.0258429 0.0063253 1211.93
1.35525e-20 0.0258429 0.00632531 1212.05
6.77626e-21 0.0261907 0.00512143 161.812
-3.38813e-21 -0.0261908 0.0051214 140.175
-8.47033e-21 0.0260126 0.00644129 1237.72
-1.01644e-20 -0.0260126 0.00644132 1237.63
0 -0.0260425 0.00646011 1248.71
0 0.0260428 0.00646028 1248.91
0 -0.026528 0.00408777 31.7475
5.42101e-20 0.026528 0.00408778 48.5075
5.27043e-21 0.0262146 0.00581645 762.26
9.03502e-21 -0.0262146 0.00581642 751.638
1.35525e-20 -0.0261568 0.00624567 1277.72
5.42101e-21 0.0261568 0.00624573 1277.79
0 0.0265114 0.0047731 75.9154
-2.71051e-20 -0.0265114 0.00477309 56.9979
-5.42101e-20 0.0269561 0.000576396 241.416
-5.42101e-20 -0.0269562 0.000576394 241.003
6.77626e-21 -0.0261882 0.0064261 1313.29
0 0.0261882 0.00642628 1313.35
0 0.0269247 0.00175756 45.7171
5.42101e-20 -0.0269247 0.00175757 37.9349
0 -0.0261874 0.00655341 1367.91
0 0.0261875 0.00655341 1367.93
0 0.0264989 0.00545188 165.157
2.71051e-20 -0.026499 0.00545186 143.317
-5.42101e-20 0.0268811 0.00306204 36.8783
-5.42101e-20 -0.0268811 0.00306204 20.8318
-6.77626e-21 0.02635 0.00616023 1098.25
-3.38813e-21 -0.02635 0.0061603 1094.7
0 0.0262995 0.00641296 1246.88
0 -0.0262995 0.00641278 1245.62
6.77626e-21 0.0263015 0.0065255 1406.68
0 -0.0263016 0.00652546 1406.74
-6.77626e-22 -0.0268577 0.0037317 26.9146
0 0.0268577 0.0037317 43.589
0 0.0263054 0.00663196 1463.8
-6.77626e-21 -0.0263056 0.00663205 1463.94
0 0.0264848 0.00617556 919.742
-2.71051e-20 -0.0264849 0.00617548 915.292
2.25875e-21 -0.0268382 0.00441889 39.2412
-1.12938e-21 0.0268382 0.0044189 55.8859
-2.03288e-20 -0.0263806 0.00668206 1519.89