# U  POINT_DATA 28841
# x  y  z  U_x  U_y  U_z
-1.35525e-20 0.015557 5.70113e-08 0 0 0
1.35525e-20 -0.015557 5.70113e-08 0 0 0
0 -0.015557 0.000135955 0 0 0
6.77626e-21 0.015557 0.000135978 0 0 0
0 -0.015557 0.000527091 0 0 0
-6.77626e-21 0.015557 0.000527192 0 0 0
0 -0.015557 0.000659598 0 0 0
0 0.015557 0.00065972 0 0 0
-6.77626e-21 -0.015557 0.000798595 0 0 0
0 0.015557 0.000798713 0 0 0
-6.77626e-21 -0.0155569 0.00121618 0 0 0
-6.77626e-21 0.0155569 0.00121632 0 0 0
0 -0.0155569 0.0013548 0 0 0
-6.77626e-21 0.0155569 0.00135493 0 0 0
0 -0.0156159 6.66059e-05 1.84784e-06 -2.4115e-06 2.02495e-07
-6.77626e-21 0.0156159 6.66205e-05 2.11384e-06 -1.62145e-06 -5.29605e-07
6.77626e-21 -0.015617 5.86706e-08 0 0 0
6.77626e-21 0.015617 5.86703e-08 0 0 0
0 -0.0156133 0.000594009 1.76942e-06 -2.30917e-06 1.93902e-07
0 0.0156134 0.000594136 2.02411e-06 -1.55262e-06 -5.07124e-07
0 -0.0156101 0.000720993 1.76804e-05 -1.89579e-05 1.63613e-07
6.77626e-21 0.0156101 0.000721135 0.000100491 -0.000118248 1.61803e-06
0 -0.0155569 0.00150202 0 0 0
-6.77626e-21 0.0155569 0.00150211 0 0 0
6.77626e-21 -0.0156099 0.00127802 1.75994e-05 -1.88711e-05 1.62864e-07
0 0.0156099 0.00127818 0.000100028 -0.000117702 1.61056e-06
6.77626e-21 -0.0156067 0.00140494 1.76201e-05 -1.91659e-05 -1.23336e-06
0 0.0156067 0.00140508 9.96677e-05 -0.000121496 3.78466e-06
6.77626e-21 -0.0156758 6.25745e-08 0 0 0
0 0.0156759 6.25738e-08 0 0 0
0 -0.0155569 0.00193256 0 0 0
-6.77626e-21 0.015557 0.00193259 0 0 0
1.35525e-20 -0.0156643 0.000653665 1.93134e-05 -2.05599e-05 8.85374e-08
2.71051e-20 0.0156643 0.000653856 9.58857e-05 -0.000115159 -1.74637e-07
-6.77626e-21 0.015557 0.002087 0 0 0
6.77626e-21 -0.015557 0.002087 0 0 0
1.35525e-20 -0.0156581 0.00132517 3.78017e-05 -3.93448e-05 -9.85373e-07
0 0.0156581 0.00132537 0.000188186 -0.000224999 1.96011e-07
6.77626e-21 0.0156109 0.00197559 0.000108102 -0.000131777 4.10493e-06
0 -0.0156109 0.00197556 1.91103e-05 -2.07868e-05 -1.33767e-06
-6.77626e-21 -0.01562 0.00210848 0 0 0
-6.77626e-21 0.01562 0.00210848 0 0 0
6.77626e-21 0.0156426 0.00205606 0.000110379 -0.000125571 3.86608e-06
0 -0.0156426 0.00205603 1.99018e-05 -1.94582e-05 -1.50842e-06
-6.77626e-21 0.0156707 0.00197917 0.000193755 -0.000232351 3.62494e-06
0 -0.0156707 0.00197909 3.80943e-05 -3.99405e-05 -1.47523e-06
1.35525e-20 -0.0156949 0.00213398 0 0 0
0 0.0156949 0.00213398 0 0 0
-3.38813e-20 -0.015885 7.41481e-08 0 0 0
-6.77626e-21 0.015885 7.41479e-08 0 0 0
-1.12938e-21 -0.01589 0.000347638 2.38723e-05 -2.5788e-05 3.74035e-07
0 0.01589 0.000347812 7.73772e-05 -0.000100121 9.03956e-07
1.35525e-21 -0.0158834 0.000956224 0.000100566 -0.000112815 -1.67714e-06
-1.807e-21 0.0158834 0.000956574 0.000489778 -0.000603554 -6.31676e-06
1.50584e-21 -0.0158471 0.00154369 0.000106364 -0.000116542 -7.47615e-07
-3.76459e-21 0.0158471 0.00154397 0.000528329 -0.000637733 -4.97357e-07
5.64689e-22 0.0158414 0.00196399 0.000337544 -0.000422309 3.80622e-06
0 -0.0158414 0.00196388 6.41602e-05 -7.537e-05 -4.1549e-07
2.03288e-20 -0.015839 0.00218308 0 0 0
-6.77626e-21 0.015839 0.00218308 0 0 0
-1.35525e-20 -0.0159079 0.00220656 0 0 0
1.35525e-20 0.0159079 0.00220657 0 0 0
-2.25875e-21 -0.0160357 0.0016614 0.00016151 -0.00017179 -1.74935e-06
3.38813e-21 0.0160357 0.00166177 0.000739869 -0.000906786 -7.91967e-06
0 -0.0161336 1.64294e-05 5.14809e-07 -5.46304e-07 4.3504e-08
-4.23516e-22 0.0161337 1.62936e-05 2.35517e-07 -5.78909e-07 3.56115e-08
0 -0.0161343 5.30972e-08 0 0 0
4.23516e-22 0.0161345 5.3091e-08 0 0 0
1.35525e-20 -0.0159895 0.00223437 0 0 0
-2.71051e-20 0.0159895 0.00223438 0 0 0
0 -0.0161453 5.24536e-08 4.48044e-08 -4.12423e-08 -8.20394e-11
4.23516e-22 0.0161478 5.2446e-08 3.64522e-08 -4.55003e-08 -2.13735e-09
-3.38813e-21 -0.0161363 0.000658379 0.000104538 -0.000112549 -2.25802e-06
-3.38813e-21 0.0161363 0.000658899 0.000460726 -0.000570827 4.23509e-07
0 -0.0161079 0.00123674 0.000188478 -0.000196251 -3.8935e-06
-2.25875e-21 0.0161079 0.00123731 0.000840483 -0.00101468 -8.48325e-06
7.52918e-22 -0.0162278 0.00195621 0.000157842 -0.000165917 -6.04885e-07
7.52918e-22 0.0162278 0.0019565 0.000691236 -0.000867648 -3.60776e-06
0 -0.0161978 0.00230533 0 0 0
0 0.016198 0.00230539 0 0 0
0 -0.0162561 0.00232518 0 0 0
-6.77626e-21 0.0162561 0.00232519 0 0 0
-6.77626e-21 0.016267 0.00230123 8.69047e-05 -9.93607e-05 9.40884e-07
0 -0.016267 0.00230114 2.09982e-05 -1.72936e-05 -1.51624e-06
-6.77626e-21 0.0162975 0.0022713 0.000135539 -0.000172734 -2.10671e-06
0 -0.0162976 0.0022711 3.67243e-05 -3.2532e-05 -1.91871e-06
3.38813e-20 0.0162993 0.00233988 0 0 0
0 -0.0162994 0.00233991 0 0 0
-1.807e-20 0.0164712 0.000318829 8.05321e-05 -9.11725e-05 2.11956e-06
0 -0.0164713 0.000318482 2.6147e-05 -2.60155e-05 1.29833e-07
4.51751e-21 0.0164838 0.000934255 0.000957104 -0.0011513 -2.85853e-05
-4.51751e-21 -0.0164839 0.000933479 0.000241737 -0.000236493 5.94686e-07
-1.35525e-20 0.0165151 8.91806e-08 0 0 0
0 -0.0165152 8.91797e-08 0 0 0
-9.03502e-21 0.0164768 0.00151157 0.00120317 -0.00145792 -2.99706e-05
0 -0.0164769 0.00151091 0.000306497 -0.000295477 -9.10745e-06
2.71051e-20 0.0166394 9.23356e-08 0 0 0
0 -0.0166395 9.23348e-08 0 0 0
1.35525e-20 0.0165053 0.00240993 0 0 0
-4.06576e-20 -0.0165054 0.00240993 0 0 0
2.71051e-20 0.0167038 0.000635453 0.000613079 -0.000736723 -1.07099e-05
-2.71051e-20 -0.0167039 0.000634624 0.000169653 -0.000162373 1.97883e-06
2.82344e-22 0.0165943 0.00217414 0.000725266 -0.000965319 -5.20739e-06
-3.10579e-21 -0.0165944 0.00217395 0.000186904 -0.000200447 -9.23966e-06
0 0.0167298 0.00122683 0.00129815 -0.00159727 -1.78309e-05
-5.42101e-20 -0.0167299 0.00122587 0.000360276 -0.000342015 -9.66616e-06
2.71051e-20 0.0166885 0.00181396 0.00117491 -0.00144347 -7.97449e-06
0 -0.0166886 0.00181342 0.000325325 -0.000301191 -1.77951e-05
0 -0.0166609 0.002463 0 0 0
0 0.0166609 0.00246301 0 0 0
0 0.0168423 7.09371e-08 0 0 0
-1.35525e-20 -0.0168424 7.09349e-08 0 0 0
0 0.0169749 0.000303028 7.5026e-05 -8.85372e-05 -3.82941e-06
-2.25875e-21 -0.016975 0.000302617 2.55638e-05 -2.55155e-05 2.48753e-07
0 0.0168731 0.00220951 0.000888987 -0.00110982 -3.35109e-06
0 -0.0168731 0.0022093 0.000253267 -0.000236144 -1.7288e-05
-2.25875e-21 0.016996 0.000918651 0.0012499 -0.00156884 5.58675e-06
0 -0.0169961 0.00091773 0.000357812 -0.000357752 -4.16816e-06
-2.03288e-20 0.0168624 0.00253141 0 0 0
6.77626e-21 -0.0168624 0.00253143 0 0 0
4.51751e-21 0.0169886 0.00152444 0.0016501 -0.00206399 -2.6003e-05
-3.38813e-21 -0.0169887 0.00152368 0.000477394 -0.000464892 -2.29441e-05
-2.71051e-20 0.0170875 2.46042e-08 0 0 0
-1.35525e-20 -0.0170876 2.4598e-08 0 0 0
0 0.0169822 0.0019947 0.0013077 -0.00162712 -1.21668e-05
4.51751e-21 -0.0169822 0.00199432 0.00038945 -0.000357573 -2.27462e-05
-9.03502e-21 -0.0169517 0.00241974 0.000121283 -0.000108912 -1.1496e-05
4.51751e-21 0.0169517 0.00241984 0.00042417 -0.00051553 5.31267e-06
-2.03288e-20 -0.0169618 0.00256517 0 0 0
-2.71051e-20 0.0169619 0.0025652 0 0 0
-2.71051e-20 0.0172725 0.000609723 0.00073104 -0.000902292 -2.81262e-06
2.71051e-20 -0.0172727 0.000608854 0.000228576 -0.000218231 -7.62291e-07
2.71051e-20 0.017301 3.8681e-09 0 0 0
2.71051e-20 -0.0173012 3.85985e-09 0 0 0
2.71051e-20 0.0172756 0.00121852 0.00163131 -0.00203208 -1.54532e-05
2.71051e-20 -0.0172759 0.00121756 0.000518367 -0.000484113 -1.27909e-05
5.42101e-20 0.0172503 0.00183266 0.00162244 -0.0020142 -2.0647e-05
0 -0.0172504 0.00183216 0.000521556 -0.000468833 -2.2331e-05
-2.71051e-20 -0.0171626 0.00263335 0 0 0
0 0.0171626 0.00263335 0 0 0
5.64689e-22 0.0172628 0.00228364 0.00111375 -0.00135652 -1.19513e-05
-1.69407e-21 -0.0172628 0.00228347 0.000353692 -0.000318807 -2.02202e-05
-2.71051e-20 0.0175152 3.90385e-09 0 0 0
-1.35525e-20 -0.0175152 3.89758e-09 0 0 0
-2.25875e-21 0.0176167 0.000304206 9.21482e-05 -0.000111236 -1.56311e-07
-4.51751e-21 -0.0176168 0.0003039 3.42746e-05 -3.31854e-05 -1.63775e-07
3.38813e-21 0.0176138 0.000914405 0.0015682 -0.00191087 5.55153e-07
7.90564e-21 -0.0176139 0.000913728 0.000518429 -0.000482097 -2.67784e-06
-5.64689e-21 -0.0175987 0.00154607 0.000729647 -0.000660928 -2.8364e-05
-1.12938e-21 0.0175986 0.00154661 0.00216203 -0.00264721 -2.20174e-05
-8.47033e-22 0.0174822 0.00274305 0 0 0
-1.52466e-20 -0.0174824 0.00274311 0 0 0
2.37169e-20 -0.0174953 0.00274748 0 0 0
-1.10114e-20 0.0174954 0.00274754 0 0 0
-1.35525e-20 0.0177276 5.30319e-09 0 0 0
0 -0.0177276 5.30115e-09 0 0 0
2.25875e-21 -0.0176266 0.0021181 0.000604077 -0.000540872 -2.7656e-05
2.25875e-21 0.0176266 0.00211837 0.00175704 -0.00213632 -2.20742e-05
2.25875e-21 -0.0175734 0.00255388 0.000258858 -0.000240586 -1.1954e-05
4.51751e-21 0.0175734 0.00255396 0.000779467 -0.000951398 -2.0747e-05
0 -0.0179395 5.3668e-09 0 0 0
0 0.0179395 5.36695e-09 0 0 0
0 0.0179446 0.000602116 0.00086062 -0.00104001 3.76138e-06
-2.71051e-20 -0.0179448 0.000601729 0.000309846 -0.000279618 -9.94077e-07
0 0.0179404 0.00122928 0.00205941 -0.00250369 -2.30651e-06
2.71051e-20 -0.0179405 0.00122883 0.000753439 -0.000667477 -1.46363e-05
0 -0.0179 0.00190857 0.000781983 -0.000684376 -2.81823e-05
0 0.0179 0.00190883 0.00209538 -0.00256062 -1.07314e-05
-2.71051e-20 -0.0177925 0.00284977 0 0 0
-2.71051e-20 0.0177926 0.00284978 0 0 0
0 -0.0179476 0.00242616 0.000540118 -0.000485429 -2.57665e-05
-2.71051e-20 0.0179477 0.00242626 0.00145219 -0.00175988 -4.30047e-06
-2.71051e-20 -0.0181451 4.40312e-09 0 0 0
1.35525e-20 0.0181451 4.40323e-09 0 0 0
0 -0.0180151 0.00292661 0 0 0
0 0.0180152 0.00292666 0 0 0
4.51751e-21 0.0182715 0.000300951 0.000156624 -0.000184302 1.03612e-06
4.51751e-21 -0.0182716 0.000300824 6.21255e-05 -5.70429e-05 -4.03919e-07
4.51751e-21 0.0182775 0.000913256 0.00180251 -0.00214647 8.66913e-06
-2.25875e-21 -0.0182775 0.000912982 0.000685239 -0.000607418 -4.21769e-06
1.12938e-20 -0.0182701 0.00156202 0.0010115 -0.000878096 -2.80261e-05
-6.77626e-21 0.0182702 0.00156226 0.00256562 -0.00308244 7.99862e-07
2.25875e-21 -0.0182365 0.00214905 0.000894191 -0.000792034 -3.77238e-05
2.25875e-21 0.0182365 0.00214918 0.00226433 -0.00270701 6.12876e-06
0 0.0181446 0.0029715 0 0 0
-6.77626e-21 -0.0181446 0.00297151 0 0 0
4.51751e-22 -0.018187 0.00270962 0.000392628 -0.000354403 -2.69844e-05
-9.03502e-22 0.018187 0.00270971 0.00102055 -0.001198 6.92402e-06
-1.35525e-20 0.0183922 2.43152e-09 0 0 0
1.35525e-20 -0.0183922 2.43142e-09 0 0 0
0 -0.0185886 1.4653e-09 0 0 0
0 0.0185886 1.46536e-09 0 0 0
2.71051e-20 -0.0183436 0.00304025 0 0 0
-2.71051e-20 0.0183438 0.00304031 0 0 0
2.71051e-20 0.0185996 0.000594964 0.00099448 -0.00116423 7.72691e-06
0 -0.0185997 0.000594844 0.000401606 -0.000351927 -9.00383e-07
-5.80823e-21 -0.0186737 0.00129279 0.00112826 -0.000963874 -1.69767e-05
0 0.0186737 0.00129292 0.00263528 -0.00309967 9.55572e-06
-1.35525e-20 -0.0187703 1.23407e-09 0 0 0
-2.71051e-20 0.0187703 1.23411e-09 0 0 0
0 -0.0185172 0.00309968 0 0 0
3.38813e-20 0.0185172 0.00309971 0 0 0
1.35525e-20 0.0187147 0.00187627 0.00281549 -0.0033082 8.2197e-06
0 -0.0187147 0.00187618 0.00122422 -0.00105636 -2.93603e-05
-4.51751e-21 0.0186673 0.00253576 0.00187198 -0.00220353 1.15821e-05
3.01167e-21 -0.0186673 0.00253569 0.000795289 -0.000714888 -2.82157e-05
-4.51751e-21 0.018823 0.000903617 0.00197361 -0.00228237 1.32686e-05
0 -0.018823 0.000903518 0.000825421 -0.00071505 -3.43548e-06
6.77626e-21 0.0188705 0.000248278 0.000129856 -0.000150425 5.94825e-07
-4.51751e-21 -0.0188706 0.000248244 5.39683e-05 -4.88236e-05 -5.61621e-07
2.71051e-21 -0.0186433 0.00294006 0.000354071 -0.000342411 -1.8249e-05
5.42101e-21 0.0186434 0.00294015 0.00086328 -0.00103252 8.4059e-06
-2.71051e-20 -0.0189391 0.0015442 0.0013765 -0.0011643 -2.48934e-05
0 0.018939 0.00154428 0.00307432 -0.00359467 1.15676e-05
1.27055e-21 0.01877 0.00318707 2.74377e-06 -2.98673e-06 7.64382e-08
2.32934e-21 -0.0187697 0.00318691 1.04768e-06 -9.34628e-07 -5.12291e-08
-1.35525e-20 -0.0188366 0.00285351 0.000565774 -0.000518485 -2.17644e-05
6.77626e-21 0.0188366 0.0028535 0.00130909 -0.00150422 2.04803e-05
1.35525e-20 0.0190684 6.42266e-10 0 0 0
0 -0.0190684 6.42229e-10 0 0 0
2.71051e-20 -0.0189469 0.0022033 0.00130298 -0.00114171 -3.19969e-05
-2.71051e-20 0.0189469 0.00220336 0.0029046 -0.00336879 1.27835e-05
6.77626e-21 -0.0189609 0.002942 0.00054222 -0.000491195 -2.00371e-05
6.77626e-21 0.018961 0.00294206 0.0012249 -0.00137518 2.64923e-05
0 -0.0192376 4.1695e-10 0 0 0
0 0.0192376 4.16977e-10 0 0 0
1.807e-20 0.0192505 0.000578849 0.00109249 -0.0012263 7.96619e-06
0 -0.0192506 0.000578823 0.000487351 -0.000416035 1.11837e-06
1.12938e-20 0.0192653 0.00120345 0.00273437 -0.00310845 1.30555e-05
-9.03502e-21 -0.0192654 0.00120342 0.0012645 -0.00106311 -6.65321e-06
2.25875e-21 -0.0192727 0.00186892 0.00153632 -0.00130738 -1.81713e-05
-2.25875e-21 0.0192727 0.00186895 0.00322605 -0.00368824 9.87616e-06
1.35525e-20 -0.0190867 0.00329553 0 0 0
1.35525e-20 0.0190869 0.00329559 0 0 0
1.35525e-20 0.0193938 3.58667e-10 0 0 0
0 -0.0193938 3.58645e-10 0 0 0
1.35525e-20 0.0193936 0.000130558 2.93237e-06 -2.52608e-06 1.06721e-06
1.35525e-20 -0.0193936 0.000130549 2.97472e-06 -2.72506e-06 -1.01171e-06
-1.35525e-20 -0.019134 0.00323281 0.000143043 -0.000138782 -4.47294e-06
0 0.0191342 0.00323291 0.000338065 -0.000387051 1.01886e-05
-2.25875e-21 -0.019259 0.0025456 0.00116886 -0.00104446 -1.73262e-05
9.03502e-21 0.019259 0.00254567 0.00246044 -0.00281058 9.60685e-06
2.71051e-20 -0.0192049 0.00333603 0 0 0
1.35525e-20 0.019205 0.00333606 0 0 0
-9.03502e-22 -0.0193216 0.00298789 0.000696046 -0.000657668 -1.48351e-05
-2.48463e-21 0.0193217 0.00298796 0.0015015 -0.00169816 1.89434e-05
-2.71051e-20 0.0195688 0.0002809 6.03736e-06 -5.57312e-06 1.47524e-06
2.71051e-20 -0.0195688 0.000280889 6.1472e-06 -5.82353e-06 -1.65908e-06
0 0.019589 0.000871785 0.0023089 -0.00253558 1.49236e-05
2.71051e-20 -0.0195891 0.000871776 0.00107564 -0.000905556 7.83235e-06
-2.71051e-20 0.019374 0.00328238 0.000531571 -0.000588618 1.20168e-05
-2.71051e-20 -0.019374 0.00328231 0.000241356 -0.000243907 -5.64607e-06
0 0.0196057 0.00151362 0.00345902 -0.00389194 8.92191e-06
2.71051e-20 -0.0196057 0.0015136 0.00172749 -0.00141903 -8.99024e-06
-1.35525e-20 0.0193742 0.00339401 0 0 0
2.71051e-20 -0.0193743 0.00339402 0 0 0
2.71051e-20 -0.0196062 0.00219166 0.00175803 -0.00151921 -6.69058e-06
0 0.0196062 0.0021917 0.00350005 -0.00392967 7.19466e-06
-1.35525e-20 0.0197445 1.18814e-10 0 0 0
0 -0.0197445 1.18805e-10 0 0 0
-1.35525e-20 0.0197496 0.000118775 2.66772e-06 -2.2981e-06 9.70894e-07
2.71051e-20 -0.0197497 0.000118768 2.70629e-06 -2.47916e-06 -9.20415e-07
0 -0.0196349 0.00277745 0.00123272 -0.00114503 -1.11001e-05
2.71051e-20 0.0196349 0.00277749 0.00250247 -0.00280941 3.22217e-06
2.71051e-20 -0.0195953 0.00324393 0.000479723 -0.000478459 -1.27693e-05
1.35525e-20 0.0195954 0.00324399 0.00105986 -0.00115701 3.11859e-05
-1.35525e-20 0.0198868 6.23618e-11 0 0 0
1.35525e-20 -0.0198869 6.23578e-11 0 0 0
-2.25875e-21 0.0199025 0.000551659 0.00115144 -0.00124254 9.68144e-06
0 -0.0199025 0.000551656 0.00055488 -0.000461167 3.80824e-06
-1.35525e-20 -0.0196374 0.00348418 0 0 0
-2.71051e-20 0.0196377 0.00348428 0 0 0
-2.25875e-21 0.0199263 0.001165 0.00298984 -0.00326444 1.05048e-05
-3.38813e-21 -0.0199263 0.001165 0.00151678 -0.00124253 4.78882e-06
1.35525e-20 -0.0197066 0.00339972 0.000233878 -0.000236351 -5.47115e-06
0 0.0197068 0.00339991 0.000514901 -0.000570159 1.16399e-05
-1.35525e-20 0.0200175 0.000104914 8.87278e-07 -2.01808e-07 -9.49458e-07
0 -0.0200175 0.000104929 2.30748e-06 -1.99862e-06 -1.14882e-06
0 0.020018 5.47771e-11 0 0 0
0 -0.0200181 5.47715e-11 0 0 0
1.12938e-21 -0.0199354 0.00184126 0.00196256 -0.00163867 5.76824e-06
3.38813e-21 0.0199354 0.00184128 0.00372413 -0.00409482 -3.97087e-06
4.51751e-21 -0.0199396 0.00250633 0.00171607 -0.00153349 7.53886e-06
0 0.0199397 0.00250637 0.00328837 -0.00363091 -1.37896e-05
-1.35525e-20 -0.0198049 0.00354152 0 0 0
-1.35525e-20 0.019805 0.00354156 0 0 0
1.12938e-21 -0.0199176 0.00307602 0.000989875 -0.000957232 -1.73686e-07
-4.51751e-21 0.0199177 0.00307606 0.0019754 -0.00218151 5.54422e-06
0 -0.0202108 0.000262556 5.64029e-06 -5.30062e-06 -2.18132e-06
2.71051e-20 0.0202108 0.00026255 3.44044e-06 -2.35407e-06 -2.2396e-06
0 0.0202372 0.000828992 0.0023953 -0.00254142 2.62295e-05
2.71051e-20 -0.0202372 0.000828987 0.00118224 -0.000972719 1.10945e-05
0 0.0199792 0.00344752 0.000760906 -0.000832221 1.85596e-05
-2.71051e-20 -0.0199793 0.00344738 0.000378138 -0.000394482 -1.10868e-06
-6.77626e-21 0.0199875 0.00360402 0 0 0
-1.35525e-20 -0.0199877 0.00360407 0 0 0
0 0.0202611 0.00146964 0.00383679 -0.00413032 -7.84331e-06
-2.71051e-20 -0.0202612 0.00146963 0.00210369 -0.00168931 8.90899e-06
-2.71051e-20 -0.0202613 0.00216726 0.0022756 -0.00193514 3.05875e-05
-5.42101e-20 0.0202614 0.00216729 0.00411933 -0.00444309 -2.39801e-05
-1.35525e-20 -0.020424 1.48352e-11 0 0 0
1.35525e-20 0.0204241 1.48335e-11 0 0 0
0 -0.0204263 8.83644e-05 1.94322e-06 -1.68311e-06 -9.67468e-07
1.35525e-20 0.0204264 8.83482e-05 7.47177e-07 -1.69943e-07 -7.99539e-07
6.77626e-21 -0.0201259 0.00365139 0 0 0
2.71051e-20 -0.0202574 0.00283427 0.00168007 -0.00159406 2.10592e-05
-2.71051e-20 0.0202575 0.00283433 0.00315837 -0.0034748 -4.33382e-05
6.77626e-21 0.0201264 0.00365156 0 0 0
0 -0.0202301 0.00346725 0.000525599 -0.000549397 -1.90246e-07
0 0.0202303 0.00346745 0.00106442 -0.00116168 2.43183e-05
0 -0.0205367 8.07365e-12 0 0 0
0 0.0205367 8.07331e-12 0 0 0
2.25875e-21 -0.0205431 0.000507253 0.000583112 -0.000467635 9.89702e-06
-2.25875e-21 0.0205431 0.000507255 0.00114097 -0.00120967 1.93489e-05
-2.25875e-21 0.0205806 0.00109812 0.00317101 -0.00332786 2.00188e-05
-2.25875e-21 -0.0205806 0.00109812 0.0017178 -0.0013697 2.34495e-05
-1.35525e-20 0.0206332 7.23344e-05 4.07665e-06 -7.40938e-06 -1.51595e-05
-1.35525e-20 -0.0206332 7.23369e-05 1.87645e-06 -1.70469e-06 -9.32797e-08
0 0.0206362 7.47662e-12 0 0 0
-1.35525e-20 -0.0206362 7.47681e-12 0 0 0
1.35525e-20 -0.0203259 0.00371982 0 0 0
0 0.0203262 0.0037199 0 0 0
1.12938e-21 -0.0205919 0.0017924 0.00240507 -0.00197708 3.36124e-05
-1.12938e-21 0.0205919 0.00179242 0.0042323 -0.00444404 -3.7642e-05
-2.25875e-21 -0.0205776 0.00251315 0.00224079 -0.00200695 3.85194e-05
-3.38813e-21 0.0205776 0.00251319 0.00395743 -0.00424247 -7.24198e-05
-1.35525e-20 -0.0204397 0.00376151 0 0 0
1.35525e-20 0.0204398 0.00376155 0 0 0
-1.35525e-20 -0.0204727 0.00364916 0.000314271 -0.000377749 7.45447e-06
-1.35525e-20 0.0204728 0.00364933 0.000631623 -0.00077633 -1.04999e-05
1.8823e-21 -0.0205733 0.00324403 0.00123763 -0.0012534 2.33064e-05
1.12938e-21 0.0205734 0.00324407 0.00228606 -0.00253589 -3.48414e-05
0 0.0208433 0.000231582 1.33272e-05 -2.00342e-05 -2.92149e-05
2.71051e-20 -0.0208434 0.000231576 5.71554e-06 -5.43814e-06 -1.76688e-06
-2.71051e-20 0.0208763 0.000747827 0.00228966 -0.00241421 8.00482e-05
-2.71051e-20 -0.0208763 0.000747825 0.00120708 -0.000949492 3.25491e-05
-2.71051e-20 0.0209306 0.00137574 0.00422372 -0.00428884 -1.41973e-05
2.71051e-20 -0.0209307 0.00137573 0.00241717 -0.00189395 4.05668e-05
1.35525e-20 0.0206256 0.00382198 0 0 0
1.35525e-20 -0.0206258 0.00382201 0 0 0
0 -0.0209017 0.00213763 0.00282819 -0.00238527 5.59949e-05
-2.71051e-20 0.0209017 0.00213766 0.0047536 -0.00491101 -0.000102598
6.77626e-21 -0.0207137 0.00385275 0 0 0
6.77626e-21 0.0207139 0.00385285 0 0 0
5.42101e-20 -0.0208885 0.0028589 0.00224869 -0.00215799 4.95613e-05
2.71051e-20 0.0208886 0.00285896 0.00389371 -0.0042325 -0.000123207
6.77626e-21 -0.02076 0.00376312 0.000306292 -0.000329037 4.27089e-06
6.77626e-21 0.0207604 0.00376287 0.000575838 -0.000614759 1.00455e-05
1.50584e-21 -0.0211429 0.000434515 0.000431288 -0.000343378 1.16645e-05
-4.51751e-21 0.0211429 0.000434517 0.000977297 -0.00104638 1.43844e-06
-5.27043e-21 -0.020841 0.00362678 0.00077205 -0.000843189 1.66713e-05
7.52918e-22 0.0208412 0.00362688 0.00144532 -0.00159334 5.97855e-06
6.77626e-21 -0.0208385 0.00389815 0 0 0
6.77626e-21 0.0208392 0.00389846 0 0 0
-2.96462e-21 0.0212597 5.23664e-13 0 0 0
-4.23516e-22 -0.0212598 5.24304e-13 0 0 0
-8.47033e-22 0.0212767 1.41034e-05 3.27567e-05 -3.45449e-05 -2.55823e-07
4.23516e-22 0.0212812 1.48332e-06 8.95133e-08 -7.13525e-08 1.38707e-07
8.89385e-21 -0.0212768 1.40587e-05 1.43358e-05 -1.16693e-05 4.09497e-07
0 -0.0212769 1.7356e-06 3.03218e-08 -1.82191e-08 -4.14031e-08
0 0.0212896 2.69174e-13 0 0 0
0 -0.0212896 2.70632e-13 0 0 0
-1.69407e-21 0.0212724 0.000879015 0.00274584 -0.00277191 -1.68514e-05
-1.8823e-22 -0.0212724 0.000879006 0.00147876 -0.00115473 3.91993e-05
3.38813e-22 0.0212426 0.00171822 0.004734 -0.00470802 -0.000103755
1.01644e-21 -0.0212427 0.00171817 0.00282501 -0.00228351 6.64456e-05
-2.25875e-21 -0.0212146 0.00249699 0.00284833 -0.00254381 7.17593e-05
2.25875e-21 0.0212146 0.00249702 0.00472793 -0.00489504 -0.000194166
1.35525e-20 -0.0210353 0.00398137 0 0 0
1.35525e-20 0.0210356 0.00398151 0 0 0
2.25875e-21 -0.021178 0.00323684 0.0018362 -0.00185896 5.56057e-05
-2.25875e-21 0.0211781 0.00323695 0.00313213 -0.00345856 -0.000157757
-1.35525e-20 -0.0210737 0.00393718 0.000157073 -0.000192441 1.08421e-05
-2.71051e-20 0.0210739 0.00393742 0.000308886 -0.000368908 -8.90319e-07
1.35525e-20 -0.0211187 0.00402023 0 0 0
0 0.0211188 0.00402028 0 0 0
8.06698e-23 -0.0212477 0.0036816 0.00105113 -0.00118091 4.51262e-05
0 0.0212477 0.00368165 0.00187388 -0.00215901 -8.09566e-05
-5.42101e-20 0.0215747 0.00130741 0.00468353 -0.00446485 -4.69479e-05
0 -0.0215747 0.0013074 0.00281705 -0.00214183 8.12678e-05
0 0.0212487 0.00397497 0.000539157 -0.000668371 -1.95437e-05
-1.35525e-20 -0.0212488 0.00397483 0.000292539 -0.000367951 2.0223e-05
6.77626e-21 0.0212528 0.00408536 0 0 0
-2.03288e-20 -0.021253 0.00408547 0 0 0
-2.25875e-21 0.0216407 0.000331745 0.000854335 -0.000839074 -3.30734e-05
0 -0.0216408 0.000331738 6.57675e-05 -5.64009e-05 6.2939e-06
-2.71051e-20 0.0215441 0.00209933 0.00556188 -0.0054454 -0.000260768
-2.71051e-20 -0.0215441 0.00209931 0.00343646 -0.00287009 9.48793e-05
-2.71051e-20 -0.0215224 0.00284519 0.00291741 -0.00277872 8.90678e-05
0 0.0215225 0.00284524 0.00475553 -0.00502966 -0.000291586
0 0.0217961 7.90662e-14 0 0 0
1.35525e-20 -0.0217961 7.93942e-14 0 0 0
0 -0.0215506 0.0034709 0.00185425 -0.00200704 7.76177e-05
0 0.0215507 0.00347098 0.00313381 -0.00356806 -0.000238179
-2.71051e-20 -0.021496 0.00395183 0.000695322 -0.000861434 4.59301e-05
2.71051e-20 0.0214961 0.00395191 0.00129162 -0.0015458 -3.2182e-05
-6.77626e-21 -0.0214981 0.0042046 0 0 0
-6.77626e-21 0.0214986 0.00420483 0 0 0
0 0.0218605 0.00170496 0.00552916 -0.00520891 -0.000233779
3.29402e-22 -0.0218606 0.0017049 0.00335964 -0.00273183 8.61058e-05
-2.25875e-22 0.0219212 0.000827144 0.00308266 -0.00291068 -0.00011719
-3.83988e-21 -0.0219212 0.00082713 0.00163578 -0.00125693 6.70493e-05
-2.71051e-20 0.0219609 4.00731e-14 0 0 0
1.35525e-20 -0.021961 4.01625e-14 0 0 0
5.64689e-22 -0.0218494 0.00247004 0.00352731 -0.00313786 8.4861e-05
-5.64689e-22 0.0218494 0.00247006 0.00566155 -0.00558952 -0.000376352
1.35525e-20 -0.0216144 0.00413961 0.000327166 -0.000411504 2.26167e-05
1.35525e-20 0.0216146 0.0041399 0.000603452 -0.000748076 -2.18744e-05
1.35525e-20 -0.0216502 0.00427848 0 0 0
0 0.0216504 0.00427858 0 0 0
5.64689e-22 -0.0218421 0.00317491 0.00271291 -0.00271735 9.10056e-05
1.12938e-21 0.0218422 0.00317497 0.00437918 -0.00471426 -0.000371181
0 -0.0217324 0.0043183 0 0 0
0 0.0217325 0.00431833 0 0 0
-2.71051e-20 -0.0217584 0.00423542 0.000260049 -0.000354035 2.1174e-05
-1.35525e-20 0.0217584 0.00423558 0.0004814 -0.000661168 -5.92484e-05
0 0.0221732 2.80694e-14 0 0 0
0 -0.0221734 2.81207e-14 0 0 0
0 -0.0218663 0.00385214 0.00135597 -0.00154358 7.63079e-05
-7.05861e-23 0.0218671 0.00385266 0.00229613 -0.0027022 -0.000217619
2.71051e-20 0.0222021 0.00129535 0.00544915 -0.00491142 -0.000190495
0 -0.0222022 0.00129534 0.00320595 -0.0025052 9.76099e-05
0 -0.0222511 0.000330196 2.76029e-06 -3.67278e-06 -1.34116e-05
0 0.0222517 0.000329756 0.00115776 -0.0011742 -9.12106e-05
2.71051e-20 0.0221693 0.00208073 0.00659674 -0.0060806 -0.000449162
2.71051e-20 -0.0221694 0.00208072 0.004084 -0.00345377 7.83719e-05
1.35525e-20 0.0218632 0.00438168 0 0 0
-2.71051e-20 -0.0218633 0.00438173 0 0 0
-6.77626e-21 -0.0223211 1.21337e-14 0 0 0
-2.03288e-20 0.0223211 1.20993e-14 0 0 0
-2.71051e-20 -0.0221597 0.00282092 0.00369069 -0.00346 7.79759e-05
2.71051e-20 0.0221597 0.00282095 0.00576182 -0.00581979 -0.000507132
-2.71051e-20 -0.0221457 0.00350906 0.00252623 -0.00272832 0.000119244
2.71051e-20 0.0221457 0.00350913 0.00405384 -0.00460604 -0.000468693
-1.35525e-20 -0.0220147 0.00445519 0 0 0
-6.77626e-21 0.0220149 0.00445527 0 0 0
5.42101e-20 0.0225414 1.2233e-15 0 0 0
0 -0.0225415 1.22688e-15 0 0 0
3.95282e-21 -0.0221394 0.00425952 0.000748421 -0.00090215 5.50113e-05
2.25875e-21 0.0221395 0.00425957 0.0013174 -0.00157271 -0.000123493
0 0.0224964 0.00168457 0.00656715 -0.00576233 -0.000406859
4.23516e-21 -0.0224964 0.00168462 0.00389684 -0.00320194 6.35054e-05
-4.23516e-22 0.0225021 0.0016848 0.00658061 -0.00577314 -0.000409276
4.23516e-22 -0.0225021 0.00168484 0.00390457 -0.00321004 6.38209e-05
-4.23516e-22 -0.0225129 0.001688 0.00391585 -0.00321967 6.25692e-05
0 0.0225131 0.001688 0.00660887 -0.00578671 -0.000413933
-1.807e-21 0.022576 0.000874286 0.0038656 -0.00340926 -0.00024028
-2.71051e-21 -0.0225761 0.000874279 0.00201432 -0.00158217 6.67074e-05
5.64689e-22 0.0225135 0.00242347 0.00669485 -0.00623543 -0.000581003
8.06698e-23 -0.0225135 0.0024234 0.00415805 -0.00371055 5.03082e-05
2.25875e-21 -0.0224593 0.00318118 0.00346981 -0.00343741 7.1569e-05
-4.51751e-21 0.0224593 0.00318122 0.00541905 -0.00565653 -0.000604928
1.69407e-21 -0.0223014 0.00459401 0 0 0
0 0.0223021 0.00459434 0 0 0
6.32451e-21 -0.0224349 0.00390494 0.00195674 -0.00218659 9.40067e-05
-3.16226e-21 0.0224349 0.00390503 0.0031282 -0.00370321 -0.000438256
-9.74088e-21 0.0228058 8.71796e-16 0 0 0
4.23516e-22 -0.022806 8.73835e-16 0 0 0
3.81165e-21 0.022811 2.493e-05 0.000105046 -0.000107879 -8.65503e-06
-4.23516e-22 -0.0228111 2.41514e-05 1.091e-05 -8.46456e-06 4.73101e-06
3.38813e-21 -0.0223411 0.0046132 0 0 0
3.38813e-21 0.0223413 0.00461331 0 0 0
0 -0.0228141 8.54707e-16 0 0 0
-1.12938e-21 0.0228117 0.000334111 0.0014861 -0.00146615 -0.000112901
2.96462e-21 0.0228142 8.52135e-16 0 0 0
-5.64689e-22 -0.0228118 0.000334123 0.000313904 -0.000242738 5.67756e-05
0 -0.0223469 0.00460662 2.78087e-05 -3.64699e-05 2.84277e-06
-3.38813e-21 0.022347 0.00460681 4.95101e-05 -6.62948e-05 -5.1299e-06
0 -0.0223544 0.00461967 0 0 0
0 0.0223545 0.00461971 0 0 0
0 -0.0223624 0.00458463 0.000114177 -0.000137287 8.58823e-06
0 0.0223623 0.00458505 0.000185783 -0.000239641 -2.9936e-05
-1.69407e-21 0.0223809 0.00461205 0.000109401 -0.000150991 -1.93058e-05
0 -0.0223811 0.00461193 6.29608e-05 -8.14326e-05 8.69037e-06
0 0.0223956 0.00463962 0 0 0
-1.69407e-21 -0.022396 0.00463981 0 0 0
-1.35525e-20 -0.0225313 0.00433152 0.00114035 -0.00138451 9.09025e-05
0 0.0225314 0.00433163 0.00188258 -0.00239019 -0.000262283
0 -0.0227767 0.00282449 0.00442876 -0.00411088 1.09341e-05
5.42101e-20 0.0227767 0.00282452 0.00682541 -0.00655183 -0.000733845
0 0.0229169 0.00145352 0.00728114 -0.00593931 -0.000503229
2.71051e-20 -0.022917 0.00145354 0.00414677 -0.00335129 -1.11246e-05
-2.71051e-20 0.0229127 0.00195201 0.00811729 -0.00675511 -0.000683397
-2.71051e-20 -0.0229127 0.00195199 0.00469897 -0.00396212 1.67613e-05
0 -0.0227583 0.00352767 0.00331578 -0.00350424 7.47169e-05
0 0.0227583 0.00352773 0.00515077 -0.00572122 -0.000719058
0 -0.0226788 0.00436536 0.00125099 -0.00151564 0.000103794
-1.35525e-20 0.0226788 0.00436543 0.00204304 -0.00262227 -0.00032508
-1.35525e-20 -0.0231146 6.2653e-16 0 0 0
1.35525e-20 0.0231146 6.24699e-16 0 0 0
-2.82344e-22 0.0231263 0.00085734 0.0043218 -0.00355879 -0.000290214
2.82344e-22 -0.0231263 0.00085738 0.00214954 -0.00169122 5.14402e-05
0 0.0231204 0.00168687 0.00811609 -0.00654599 -0.000665551
1.35525e-20 -0.0231204 0.00168687 0.00455694 -0.00378251 -1.1155e-05
-1.35525e-20 -0.022691 0.00478261 0 0 0
1.35525e-20 0.0226912 0.00478269 0 0 0
-4.23516e-22 0.0231332 0.00244156 0.00808738 -0.00706274 -0.000862577
2.5411e-21 -0.0231332 0.00244155 0.00495003 -0.00440863 -5.74492e-05
-1.35525e-20 -0.0227887 0.00466778 0.000493942 -0.000638857 6.81779e-05
-1.35525e-20 0.0227888 0.00466792 0.000867424 -0.00119719 -0.000153073
-1.12938e-21 -0.0230834 0.00317451 0.0043222 -0.00419931 -2.36025e-05
4.51751e-21 0.0230834 0.00317454 0.00665339 -0.0066156 -0.000873961
0 -0.023319 3.12047e-16 0 0 0
0 0.0233192 3.1085e-16 0 0 0
0 -0.0230283 0.00391279 0.0028176 -0.00307695 5.83154e-05
0 0.0230283 0.00391288 0.00434508 -0.00506286 -0.000751113
0 -0.0233299 0.00142278 0.00441711 -0.00360813 -3.61029e-05
0 0.02333 0.00142275 0.00826535 -0.00639563 -0.000667523
0 -0.0233168 0.00194192 0.00514556 -0.00434314 -5.17026e-05
0 0.0233168 0.00194193 0.00917793 -0.00730891 -0.000873732
-2.71051e-20 -0.0228965 0.00488208 0 0 0
5.42101e-20 0.0228965 0.0048821 0 0 0
0 0.0234102 0.000267349 0.00153649 -0.00129979 -4.38682e-05
2.25875e-21 -0.0234102 0.000267197 0.000566225 -0.000334511 5.37888e-05
2.25875e-21 -0.0229985 0.00439045 0.00162478 -0.00195518 9.88899e-05
-3.76459e-21 0.0229986 0.00439055 0.00259104 -0.00339186 -0.000502272
-1.35525e-20 0.023516 1.75113e-16 0 0 0
-6.77626e-21 -0.0235163 1.75793e-16 0 0 0
2.71051e-20 -0.0234234 0.00278582 0.00533964 -0.00486126 -0.000153024
0 0.0234234 0.00278584 0.00828471 -0.00742974 -0.00102303
0 -0.023065 0.00496366 0 0 0
0 0.0230651 0.00496372 0 0 0
2.71051e-20 -0.0233787 0.00352555 0.00424522 -0.00434338 -2.57801e-05
0 0.0233787 0.00352559 0.00642701 -0.00679042 -0.00102101
0 0.023716 -1.12992e-16 0 0 0
-1.35525e-20 -0.0237161 -1.12641e-16 0 0 0
4.51751e-22 -0.0232667 0.00471649 0.00111754 -0.00143116 0.000101001
0 0.0232668 0.00471653 0.00175353 -0.00256207 -0.000364407
0 -0.0233857 0.00417624 0.00278145 -0.00320278 7.48331e-05
0 0.0233857 0.00417629 0.00429461 -0.0053998 -0.000908579
0 0.0232203 0.00503884 0 0 0
-6.77626e-21 -0.0232204 0.00503886 0 0 0