# UMean  POINT_DATA 51037
# x  y  z  UMean_x  UMean_y  UMean_z
0.0130568 0 4.20467e-06 6.61941e-08 -3.00643e-08 8.95206e-09
-0.0130568 0 4.20224e-06 -3.41709e-08 6.62827e-08 5.96164e-09
0.0130538 0 6.66496e-06 0 0 0
-0.0130538 0 6.66145e-06 0 0 0
-0.0130538 0 0.000644966 0 0 0
0.0130538 0 0.000645285 0 0 0
-0.0130538 0 0.00065941 0 0 0
0.0130538 0 0.00065974 0 0 0
-0.0130538 0 0.000674665 0 0 0
0.0130538 0 0.000675 0 0 0
-0.0130603 8.47033e-22 0.000649852 -1.6337e-07 3.16896e-07 2.85024e-08
0.0130603 0 0.000650175 3.16557e-07 -1.43775e-07 4.2811e-08
-0.0130603 0 0.000668993 -1.38482e-05 1.73897e-05 -2.23202e-07
0.0130603 0 0.000669326 -8.98344e-06 1.23172e-05 -9.66982e-07
-0.0130709 5.0822e-21 0.000658297 -1.87711e-05 2.24349e-05 -2.22281e-08
0.0130709 -1.43996e-20 0.000658629 -2.62626e-05 3.36604e-05 1.46768e-07
-0.0130538 0 0.00133823 0 0 0
0.0130538 0 0.00133856 0 0 0
-0.0130538 -1.69407e-21 0.00135482 0 0 0
0.0130538 0 0.00135516 0 0 0
-0.0130538 -1.69407e-21 0.00137229 0 0 0
0.0130538 1.69407e-21 0.00137264 0 0 0
-0.0130609 0 0.00134178 -1.50862e-05 1.89442e-05 -2.43155e-07
0.0130609 0 0.00134211 -9.79356e-06 1.3428e-05 -1.05418e-06
-0.0130605 1.69407e-21 0.00136344 -1.55076e-05 1.88762e-05 -3.95589e-07
0.0130605 0 0.00136379 -1.01479e-05 1.4147e-05 3.49904e-06
-0.0130744 1.86347e-20 0.00134763 -4.78336e-05 5.65514e-05 -4.62928e-08
0.0130744 5.0822e-21 0.00134797 -7.27316e-05 9.10599e-05 1.78164e-06
-0.0130556 0 0.00208219 -3.90591e-06 4.73003e-06 -1.50021e-08
0.0130566 4.23516e-22 0.0020858 -3.68645e-06 4.96023e-06 5.17069e-07
-0.0130676 -4.23516e-22 0.00208096 -2.21438e-05 2.46296e-05 7.79292e-07
0.0130676 -4.23516e-22 0.00208096 -9.32495e-06 1.61617e-05 6.60796e-06
-0.0133442 0 8.05854e-08 0 0 0
0.0133442 -2.03288e-20 8.05851e-08 0 0 0
-0.0133452 0 0.000326595 -4.06522e-05 4.5562e-05 -2.62654e-06
0.0133452 4.51751e-21 0.00032676 -3.26702e-05 6.19387e-05 6.12416e-06
-0.0133372 -1.12938e-21 0.000960076 -0.000590063 0.000693947 2.55569e-06
0.0133372 -3.38813e-21 0.000960432 -0.000681406 0.000762817 -9.06926e-06
-0.0132973 -2.25875e-21 0.00155434 -0.000578546 0.000692337 9.11986e-06
0.0132973 4.51751e-21 0.00155458 -0.000618753 0.000754643 1.52395e-05
-0.0132406 -3.38813e-20 0.00216285 0 0 0
0.0132406 3.38813e-21 0.00216285 0 0 0
-0.0132805 -6.77626e-21 0.00206436 -0.000217569 0.000241992 7.65674e-06
0.0132806 -3.38813e-21 0.00206428 -9.16793e-05 0.000158896 6.49668e-05
0.0133175 2.71051e-20 0.00219404 0 0 0
-0.0133175 2.71051e-20 0.00219405 0 0 0
-0.0133831 4.51751e-21 0.00186926 -0.000559128 0.000638226 1.59253e-05
0.0133831 0 0.00186938 -0.000381592 0.000570331 0.000124242
-0.0135632 2.03288e-20 9.24943e-08 0 0 0
0.0135632 -1.35525e-20 9.24941e-08 0 0 0
-0.0134965 4.51751e-21 0.00146628 -0.000922003 0.00107735 1.64431e-05
0.0134965 2.25875e-21 0.00146652 -0.00149255 0.00179436 7.68475e-06
-0.0136117 -6.77626e-21 8.70578e-05 -3.86905e-06 2.71223e-06 -4.07687e-06
0.0136117 6.77626e-21 8.70948e-05 5.15911e-06 -2.59077e-06 -4.74076e-06
-0.0136152 0 8.46271e-08 0 0 0
0.0136152 -1.35525e-20 8.46272e-08 0 0 0
-0.0136416 0 8.06399e-08 0 0 0
0.0136416 1.35525e-20 8.06405e-08 0 0 0
-0.0136355 4.06576e-21 0.000679005 -0.000603446 0.000722454 -1.09631e-06
0.0136355 -3.83988e-21 0.00067928 -0.000956378 0.00129341 1.17725e-05
0.0134812 0 0.00226051 0 0 0
-0.0134812 2.71051e-20 0.00226053 0 0 0
-0.0136197 1.31761e-21 0.00119016 -0.00105443 0.00126343 -3.0142e-07
0.0136197 3.38813e-21 0.00119046 -0.00177304 0.00235115 4.66856e-05
-0.0136061 -4.51751e-21 0.00162993 -0.00101869 0.00122215 7.59042e-06
0.0136061 -4.51751e-21 0.00163012 -0.00159529 0.00215392 6.99026e-05
0.0137235 -6.77626e-21 7.39517e-08 0 0 0
-0.0137235 1.35525e-20 7.39504e-08 0 0 0
0.0137252 0 9.16503e-05 -6.40615e-06 4.39101e-05 9.04485e-07
-0.0137252 0 9.16307e-05 -9.31365e-07 1.38645e-06 -4.3853e-07
-0.0137102 -5.64689e-22 0.00202489 -0.000817706 0.001006 6.12814e-06
0.0137103 0 0.00202497 -0.00076161 0.00133236 0.000127942
-0.0136752 6.77626e-21 0.00233929 0 0 0
0.0136753 6.77626e-21 0.00233932 0 0 0
-0.0137679 -6.77626e-21 0.00237695 0 0 0
0.013768 0 0.00237697 0 0 0
0.0139849 1.35525e-20 0.000399215 -0.000417309 0.000661879 5.83898e-08
-0.0139849 -2.71051e-20 0.000399115 -0.000207795 0.000254632 2.06866e-06
-0.0139861 4.51751e-21 0.00091313 -0.00117326 0.00143881 6.89851e-06
0.0139861 0 0.000913297 -0.00203525 0.00295443 -1.43847e-05
-0.0139546 9.03502e-21 0.00150392 -0.0014819 0.00181931 -6.53258e-06
0.0139546 -9.03502e-21 0.00150406 -0.00268038 0.00380707 0.000179424
-0.0140935 -1.35525e-20 0.000126399 -1.28563e-06 1.9138e-06 -6.05331e-07
0.0140935 -1.35525e-20 0.000126419 -8.84236e-06 6.06087e-05 1.24845e-06
-0.0141016 -2.71051e-20 1.51491e-08 0 0 0
0.0141016 -2.71051e-20 1.51471e-08 0 0 0
-0.013961 0 0.00245528 0 0 0
0.0139612 -3.38813e-21 0.00245534 0 0 0
-0.0141702 0 0.000612168 -0.000710567 0.000871829 1.97308e-06
0.0141702 2.71051e-20 0.000612269 -0.00143761 0.00221831 -1.18643e-05
-0.0139759 0 0.00246133 0 0 0
0.0139761 -8.47033e-22 0.00246136 0 0 0
-0.0139804 0 0.00244924 -4.88985e-05 5.5695e-05 4.32575e-07
0.0139805 -2.5411e-21 0.00244934 -4.05448e-05 9.79069e-05 1.93706e-05
-0.0141583 0 0.00121281 -0.00154584 0.00190629 -2.13636e-06
0.0141583 0 0.00121293 -0.00316479 0.00457492 0.000106053
-0.0142138 0 6.98128e-09 0 0 0
0.0142138 1.35525e-20 6.9805e-09 0 0 0
-0.0141062 -2.71051e-20 0.00185466 -0.00135673 0.00168256 -3.12281e-06
0.0141063 0 0.00185473 -0.00244722 0.00373886 0.000242425
-0.0140936 2.25875e-21 0.00222221 -0.000930628 0.00108487 6.22959e-06
0.0140937 0 0.00222227 -0.000895226 0.00192837 0.000324962
0.0143442 2.71051e-20 6.46171e-09 0 0 0
-0.0143442 -1.35525e-20 6.46231e-09 0 0 0
-0.0141439 6.77626e-21 0.00239274 -0.000480868 0.000547705 4.25395e-06
0.014144 0 0.0023928 -0.000400765 0.00096776 0.000191469
0.014345 0 0.000135094 -0.000161793 0.000443624 -2.49295e-05
-0.014345 1.35525e-20 0.000135094 -2.33426e-06 2.81785e-06 -4.75006e-07
-0.0141783 1.35525e-20 0.00254352 0 0 0
0.0141784 0 0.00254356 0 0 0
0.0144148 2.71051e-21 0.000393106 -0.000635735 0.00122372 -3.85732e-05
-0.0144148 -8.13152e-21 0.000393046 -0.000195859 0.000238883 -2.24105e-07
-0.0142931 -6.77626e-21 0.00252723 -0.00022426 0.000291421 -5.15291e-06
0.0142932 -6.77626e-21 0.00252727 -0.000288324 0.000647339 0.00012924
-0.0142857 0 0.00258704 0 0 0
0.0142858 0 0.00258706 0 0 0
-0.0145008 4.51751e-21 0.000915437 -0.00154304 0.00190835 4.26421e-06
0.0145009 -6.77626e-21 0.000915525 -0.0033859 0.00517438 1.87857e-05
-0.0143708 -1.69407e-21 0.00229753 -0.00103053 0.00129964 -6.51746e-06
0.0143709 0 0.00229758 -0.00155545 0.00279991 0.000346604
-0.0144716 4.51751e-21 0.00154756 -0.00204574 0.00255103 -1.30994e-05
0.0144716 4.51751e-21 0.00154763 -0.00469743 0.00690161 0.000335012
-0.0144657 0 0.00205594 -0.00159776 0.00202067 -1.11467e-05
0.0144658 -4.51751e-21 0.002056 -0.00315289 0.00504058 0.000442175
-0.0146705 -2.71051e-20 0.000150455 -2.59969e-06 3.13826e-06 -5.29019e-07
0.0146705 0 0.000150466 -0.000180203 0.000494105 -2.77662e-05
-0.01468 0 6.30408e-09 0 0 0
0.01468 0 6.30387e-09 0 0 0
-0.0144708 -1.35525e-20 0.00266196 0 0 0
0.014471 0 0.00266201 0 0 0
-0.0145058 -8.13152e-21 0.00250608 -0.000627349 0.000822758 -1.07042e-05
0.0145059 -1.35525e-20 0.00250612 -0.000770183 0.00164195 0.000287752
0.0148234 -1.35525e-20 5.71489e-09 0 0 0
-0.0148234 -2.71051e-20 5.71495e-09 0 0 0
-0.0148746 4.51751e-21 0.000558343 -0.000809813 0.00101236 2.10909e-06
0.0148746 9.03502e-21 0.000558392 -0.00248976 0.00413299 -1.54114e-05
-0.0147687 0 0.00191044 -0.00204823 0.00258676 -1.38673e-05
0.0147687 -2.71051e-20 0.00191049 -0.00521831 0.00790872 0.000487896
-0.0146404 0 0.00273067 0 0 0
0.0146406 2.71051e-20 0.00273071 0 0 0
-0.0148827 1.16165e-20 0.0011685 -0.00210095 0.00263854 -3.41367e-09
0.0148828 0 0.00116856 -0.0056859 0.00854422 0.000165187
0.0149747 1.35525e-20 4.96058e-09 0 0 0
-0.0149747 0 4.96059e-09 0 0 0
0.0149752 -1.35525e-20 0.000142276 -0.000446671 0.00109232 -2.65613e-05
-0.0149752 1.35525e-20 0.000142271 -2.48022e-06 2.94833e-06 -4.74739e-07
-0.0148162 0 0.00236391 -0.00145118 0.00181711 -1.65075e-05
0.0148163 4.51751e-21 0.00236395 -0.00316294 0.00518203 0.000534952
-0.0150223 4.51751e-21 0.00156468 -0.00252628 0.00320634 -1.11425e-05
0.0150223 -9.03502e-21 0.00156474 -0.00735331 0.0107544 0.000414808
-0.0151425 -2.71051e-20 0.000304852 -5.25691e-06 6.34038e-06 -9.00377e-07
0.0151425 0 0.000304883 -0.000926195 0.00215787 -5.84853e-05
-0.014892 0 0.00283336 0 0 0
0.0148921 6.77626e-21 0.0028334 0 0 0
-0.0151422 0 0.000920375 -0.00204695 0.00257354 5.87319e-06
0.0151422 0 0.000920434 -0.00584766 0.00894902 5.80188e-05
-0.015042 -1.6263e-20 0.00210477 -0.00225956 0.00284819 -2.63938e-05
0.0150421 1.0842e-20 0.00210482 -0.00626641 0.00950121 0.000682327
-0.0150532 -4.51751e-21 0.00270351 -0.00080502 0.000965891 -1.1147e-05
0.0150534 0 0.00270357 -0.00156425 0.00269292 0.000397543
-0.0150254 1.35525e-20 0.00288744 0 0 0
0.0150256 3.38813e-20 0.00288752 0 0 0
-0.0153086 1.35525e-20 2.24178e-09 0 0 0
0.0153086 0 2.24177e-09 0 0 0
-0.0153122 0 0.000140816 -2.4549e-06 2.91824e-06 -4.69892e-07
0.0153122 0 0.000140822 -0.000442115 0.00108118 -2.62904e-05
0.0154577 0 1.48792e-09 0 0 0
-0.0154577 0 1.48787e-09 0 0 0
-0.0154655 -4.51751e-21 0.00060398 -0.00107852 0.00136651 2.34112e-06
0.0154655 -1.12938e-20 0.000604018 -0.00409045 0.00667475 1.61598e-05
-0.0154631 2.25875e-21 0.00123926 -0.00259874 0.00331927 -2.61896e-06
0.0154631 2.03288e-20 0.00123931 -0.00868065 0.0127547 0.000290516
-0.0152765 0 0.0029899 0 0 0
0.0152766 -2.71051e-20 0.00298996 0 0 0
-0.0154691 2.25875e-21 0.00188066 -0.00285753 0.00364998 -1.69241e-05
0.0154691 -4.51751e-21 0.00188071 -0.00955326 0.0139112 0.00067725
0.0156043 -1.35525e-20 1.30288e-09 0 0 0
-0.0156043 0 1.30283e-09 0 0 0
0.0156046 1.35525e-20 0.000132291 -0.000652943 0.00152209 -2.08133e-05
-0.0156046 -1.35525e-20 0.000132288 -2.44296e-06 2.75002e-06 -5.01081e-07
-0.0153943 -1.35525e-20 0.00303866 0 0 0
0.0153944 0 0.00303871 0 0 0
-0.0154266 0 0.00293734 -0.000539284 0.000613278 1.04729e-06
0.0154267 1.35525e-20 0.00293741 -0.00101323 0.00205702 0.000268577
-0.0155042 2.25875e-21 0.00256117 -0.00181554 0.00227054 -1.26879e-05
0.0155043 -3.76459e-21 0.00256122 -0.00521388 0.00825609 0.000708795
0.0157872 2.71051e-20 0.000299894 -0.00146232 0.00326977 -4.49654e-05
-0.0157872 2.71051e-20 0.000299869 -5.47656e-06 6.23406e-06 -8.46823e-07
-0.0157972 2.71051e-20 0.000914956 -0.00231812 0.00295726 5.21355e-06
0.0157972 0 0.000915008 -0.0083149 0.0125867 0.000113745
-0.015799 -2.71051e-20 0.00156064 -0.00327938 0.00424731 -8.66345e-06
0.015799 -2.71051e-20 0.00156069 -0.0123062 0.017504 0.00052535
-0.0156185 0 0.00313206 0 0 0
0.0156185 6.77626e-21 0.00313207 0 0 0
-0.0158092 0 0.00221249 -0.00306948 0.00391511 -1.64242e-05
0.0158093 0 0.00221254 -0.0111362 0.016242 0.000977866
-0.0159653 -2.71051e-20 5.84434e-10 0 0 0
0.0159653 2.71051e-20 5.84428e-10 0 0 0
-0.0159712 0 0.000124936 -2.30721e-06 2.5972e-06 -4.73236e-07
0.0159712 0 0.000124938 -0.000616655 0.0014375 -1.96565e-05
-0.015693 6.77626e-21 0.00316295 0 0 0
0.0156931 0 0.00316301 0 0 0
-0.0157206 -6.77626e-21 0.0031026 -0.000333834 0.000439426 -3.82078e-06
0.0157208 0 0.00310257 -0.000698093 0.00133279 0.000155349
-0.0158002 0 0.00293364 -0.00122521 0.00156328 -6.61812e-06
0.0158003 0 0.0029337 -0.00283751 0.00520926 0.000590393
-0.0157817 6.77626e-21 0.00319963 0 0 0
0.015782 0 0.00319974 0 0 0
0.0161034 -1.35525e-20 4.04844e-10 0 0 0
-0.0161034 -1.35525e-20 4.04848e-10 0 0 0
-0.016119 -2.25875e-21 0.000594151 -0.00118308 0.00152342 1.99547e-06
0.016119 2.25875e-21 0.000594174 -0.0054659 0.00885111 3.8195e-05
-0.01613 9.03502e-21 0.00122518 -0.00292342 0.0038022 7.57997e-07
0.01613 0 0.00122521 -0.0117065 0.0169616 0.000328071
0.0162343 -1.35525e-20 3.59814e-10 0 0 0
-0.0162343 -2.71051e-20 3.59814e-10 0 0 0
0.0162345 -1.35525e-20 0.000113277 -0.000747118 0.00170283 -1.85666e-05
-0.0162345 -1.35525e-20 0.000113279 -2.21754e-06 2.37572e-06 1.75336e-07
-0.0161354 0 0.00188647 -0.00341342 0.00443107 -3.38924e-06
0.0161355 -9.03502e-21 0.00188651 -0.0137745 0.0195555 0.000799727
-0.0161281 6.77626e-21 0.00255569 -0.00258905 0.00329677 1.84473e-06
0.0161282 -2.25875e-21 0.00255574 -0.00958952 0.014363 0.000989947
-0.015998 -1.35525e-20 0.0032882 0 0 0
0.0159982 2.71051e-20 0.00328826 0 0 0
-0.0160357 0 0.00323052 -0.00035351 0.000420591 6.29322e-06
0.0160358 0 0.00323061 -0.000866705 0.00163992 0.000232801
-0.016091 -1.35525e-20 0.00332623 0 0 0
0.0160912 1.35525e-20 0.00332628 0 0 0
0.0164377 0 0.000292336 -0.00192178 0.00421676 -4.39972e-05
-0.0164377 -5.42101e-20 0.000292322 -5.7487e-06 6.09594e-06 1.18674e-07
0.0164553 2.71051e-20 0.000897692 -0.0104293 0.0156957 0.000132132
-0.0164553 2.71051e-20 0.00089766 -0.0024804 0.00322259 3.41296e-06
-0.0162072 -1.807e-21 0.00298944 -0.00162199 0.00201124 1.05304e-05
0.0162073 0 0.00298952 -0.00510116 0.00844139 0.00083399
-0.016466 2.71051e-20 0.00154116 -0.00364782 0.00482379 2.73278e-06
0.016466 2.71051e-20 0.00154119 -0.0159425 0.0222794 0.000549655
-0.016253 0 0.00328154 -0.000568852 0.000681084 6.14552e-06
0.016253 -1.35525e-20 0.00328162 -0.00172615 0.00304191 0.000400814
-0.0162529 -2.71051e-20 0.00339231 0 0 0
0.016253 -1.35525e-20 0.00339232 0 0 0
-0.0164659 -2.71051e-20 0.00220933 -0.0036814 0.00477239 8.68462e-06
0.016466 -5.42101e-20 0.00220938 -0.0158718 0.0224126 0.00114543
-0.0166389 0 1.04271e-10 0 0 0
0.0166389 1.35525e-20 1.04262e-10 0 0 0
-0.0166447 0 0.000100566 -1.96868e-06 2.10911e-06 1.55659e-07
0.0166447 0 0.000100563 -0.000663263 0.00151171 -1.64827e-05
-0.0165069 -2.71051e-20 0.00278852 -0.00268453 0.00338556 1.6876e-05
0.016507 0 0.00278859 -0.0102435 0.0155662 0.00121266
0.0167551 0 6.18359e-11 0 0 0
-0.0167551 0 6.18413e-11 0 0 0
-0.0167741 6.77626e-21 0.000577078 -0.00124847 0.00163812 1.07904e-05
0.0167741 -2.25875e-21 0.000577088 -0.00655878 0.010596 4.90583e-05
-0.0164731 0 0.00325216 -0.00115952 0.00139538 1.38996e-05
0.0164733 0 0.00325224 -0.00337649 0.00607756 0.000798355
-0.0167929 3.38813e-21 0.00119995 -0.00313305 0.00416627 1.60149e-05
0.0167929 1.12938e-21 0.00119996 -0.0142558 0.020445 0.000348347
-0.0164937 -2.71051e-20 0.00349064 0 0 0
0.016494 1.35525e-20 0.00349077 0 0 0
0.0168627 -1.35525e-20 5.62475e-11 0 0 0
-0.0168627 -1.35525e-20 5.62517e-11 0 0 0
0.0168631 0 9.00315e-05 -0.000694893 0.00162061 -1.01627e-05
-0.0168631 -1.35525e-20 9.00368e-05 -7.79643e-06 1.01236e-05 -2.27547e-06
-0.0167974 -2.25875e-21 0.0018671 -0.00383132 0.00508148 8.57042e-06
0.0167974 -3.38813e-21 0.00186712 -0.0177947 0.024742 0.000876485
-0.016565 0 0.00339846 -0.00062283 0.000745713 6.72867e-06
0.0165653 2.71051e-20 0.00339864 -0.00188985 0.00333039 0.000438826
-0.0168042 -4.51751e-21 0.00251849 -0.00344407 0.00444913 1.12866e-05
0.0168043 0 0.00251854 -0.0154273 0.0220158 0.00128137
-0.0166661 0 0.00356101 0 0 0
0.0166663 2.71051e-20 0.00356109 0 0 0
-0.0167843 -2.25875e-21 0.00309016 -0.00212578 0.00265263 1.35049e-05
0.0167844 -2.25875e-21 0.00309022 -0.00840196 0.013066 0.00117626
0.0170872 0 0.000280474 -0.00220298 0.00488878 -2.77258e-05
-0.0170872 -2.71051e-20 0.000280467 -1.7384e-05 2.22111e-05 -6.46404e-06
0.0171094 -2.71051e-20 0.000869698 -0.0119732 0.0179768 0.000141047
-0.0171094 0 0.000869686 -0.0025725 0.00340724 4.70525e-05
-0.017124 0 0.00151088 -0.00385749 0.00524713 1.17478e-05
0.017124 2.71051e-20 0.0015109 -0.0188157 0.0260049 0.000578432
-0.016855 6.77626e-21 0.00363794 0 0 0
0.016855 -1.35525e-20 0.00363795 0 0 0
-0.0171219 -5.42101e-20 0.00218641 -0.00414597 0.00549709 1.16577e-05
0.0171219 0 0.00218644 -0.0206181 0.0283692 0.00123048
-0.0173128 0 1.50015e-11 0 0 0
0.0173128 1.35525e-20 1.49999e-11 0 0 0
-0.017316 0 7.61108e-05 -6.59056e-06 8.55775e-06 -1.92353e-06
0.017316 0 7.61049e-05 -0.000587403 0.00136993 -8.59067e-06
-0.016994 4.51751e-21 0.00347025 -0.00108273 0.00131048 1.11046e-05
0.0169942 -9.03502e-21 0.00347044 -0.00392667 0.00693173 0.000884024
-0.0169523 1.35525e-20 0.00367759 0 0 0
0.0169528 1.35525e-20 0.00367779 0 0 0
-0.0171196 -2.71051e-20 0.00284364 -0.00336082 0.00427878 7.90654e-06
0.0171197 2.71051e-20 0.00284371 -0.0156287 0.0225412 0.00154644
0.0174041 1.35525e-20 1.00263e-11 0 0 0
-0.0174041 1.35525e-20 1.00267e-11 0 0 0
0.0174225 -1.12938e-21 0.000552277 -0.00727379 0.0117586 7.26181e-05
-0.0174225 0 0.000552274 -0.00126592 0.00169469 2.67674e-05
-0.0174465 -3.38813e-21 0.00116234 -0.00324501 0.00441873 3.47318e-05
0.0174465 -2.25875e-21 0.00116235 -0.0160652 0.0228697 0.000372522
0.0174883 0 9.27523e-12 0 0 0
-0.0174883 0 9.27554e-12 0 0 0
0.0174886 1.35525e-20 6.91564e-05 -0.000598456 0.0014445 1.39593e-05
-0.0174886 0 6.91614e-05 1.42703e-06 -1.71105e-06 -3.12221e-06
-0.0174525 1.12938e-21 0.00183359 -0.00413122 0.00561273 7.68717e-06
0.0174525 2.25875e-21 0.0018336 -0.0213553 0.0291654 0.00093239
-0.0171558 -4.06576e-20 0.00376044 0 0 0
0.0171561 0 0.00376058 0 0 0
-0.0174398 -2.25875e-21 0.00252756 -0.00396021 0.00521029 -2.26236e-06
0.0174399 4.51751e-21 0.0025276 -0.0205435 0.0284159 0.00148048
-0.0172703 0 0.00381189 0 0 0
0.0172706 1.35525e-20 0.003812 0 0 0
-0.0173099 -1.35525e-20 0.00368922 -0.000762554 0.000860416 2.40899e-05
0.0173101 0 0.00368943 -0.00260147 0.0050126 0.000628338
-0.0174177 0 0.0032729 -0.00240692 0.00301828 8.73418e-06
0.0174179 -3.76459e-22 0.00327297 -0.0108724 0.0167062 0.00147332
0.0177262 0 0.000264495 -0.00235494 0.00534162 3.60925e-05
-0.0177263 -2.71051e-20 0.000264494 1.38379e-06 -1.63613e-06 -7.05308e-06
0.017753 0 0.000830849 -0.0128865 0.0192583 0.000150882
-0.017753 2.71051e-20 0.000830841 -0.00256156 0.00346263 7.24797e-05
-0.0177738 -2.71051e-20 0.00146634 -0.00401935 0.0056003 9.45953e-06
0.0177739 -2.71051e-20 0.00146635 -0.0207342 0.0284182 0.000629042
-0.0174674 0 0.00388874 0 0 0
0.0174675 -6.77626e-21 0.0038888 0 0 0
-0.0177697 0 0.00215829 -0.00449434 0.00610018 -1.1089e-06
0.0177697 2.71051e-20 0.0021583 -0.0251801 0.0337949 0.00128989
-0.0175192 6.77626e-21 0.0039114 0 0 0
0.0175194 0 0.00391155 0 0 0
-0.0175515 -3.38813e-21 0.00385282 -0.000389791 0.000498859 9.65391e-08
0.0175519 0 0.00385278 -0.00129425 0.00245195 0.000312826
-0.0177417 2.71051e-20 0.00287714 -0.00389918 0.00505852 -2.68887e-05
0.0177418 -2.71051e-20 0.0028772 -0.0212086 0.0295178 0.00184564
0.017981 -6.77626e-21 1.39444e-12 0 0 0
-0.017981 -6.77626e-21 1.3943e-12 0 0 0
0.0179821 0 5.25103e-05 -0.000454407 0.0010968 1.05993e-05
-0.0179821 -6.77626e-21 5.25107e-05 1.08347e-06 -1.29911e-06 -2.37054e-06
-0.0175795 2.03288e-20 0.00394118 0 0 0
0.01758 -1.35525e-20 0.00394143 0 0 0
-0.0176602 0 0.00367713 -0.00156641 0.0019663 8.39771e-06
0.0176605 0 0.00367727 -0.00563868 0.01031 0.00128052
0.0180463 0 7.99282e-13 0 0 0
-0.0180463 -6.77626e-21 7.99057e-13 0 0 0
0.0180587 0 0.000513287 -0.00733554 0.0119637 0.000107754
-0.0180587 -1.12938e-21 0.000513287 -0.00124618 0.00168214 -3.98985e-07
0.0181036 0 4.49211e-05 -0.000400251 0.00103942 4.51505e-05
-0.0181036 0 4.4918e-05 -8.79909e-06 5.579e-06 1.1605e-05
0.0181054 0 7.64381e-13 0 0 0
-0.0181054 6.77626e-21 7.64199e-13 0 0 0
0.0181063 2.25875e-22 0.00109871 -0.0169101 0.0239569 0.000396688
-0.0181063 1.35525e-21 0.00109871 -0.00326159 0.00451 -2.25592e-05
-0.0181013 -1.12938e-21 0.00178214 -0.00431917 0.00598875 -4.44328e-05
0.0181014 1.69407e-21 0.00178215 -0.0242447 0.0325758 0.000986696
-0.0180751 1.12938e-21 0.002514 -0.0043503 0.00585379 -6.82878e-05
0.0180751 -4.51751e-21 0.00251403 -0.02544 0.034237 0.00162412
-0.0177928 1.35525e-20 0.00406344 0 0 0
0.0177931 1.35525e-20 0.00406363 0 0 0
-0.0178461 1.35525e-20 0.00400264 -0.000442277 0.000529801 1.1321e-05
0.0178465 0 0.00400286 -0.00172834 0.00328395 0.000511817
-0.018018 -6.77626e-21 0.00326638 -0.00310018 0.00398848 -4.22802e-05
0.0180181 4.51751e-21 0.00326648 -0.0167549 0.0241684 0.00184276
0.0183484 -2.71051e-20 0.000235241 -0.00214023 0.00516347 0.000115998
-0.0183484 2.71051e-20 0.000235238 -3.69761e-05 2.92608e-05 3.39772e-05
-0.0178962 0 0.00412302 0 0 0
0.0178965 0 0.00412318 0 0 0
0.0183932 5.42101e-20 0.000764488 -0.0124754 0.0187733 0.000142634
-0.0183932 -5.42101e-20 0.000764489 -0.00250792 0.0033952 -9.63584e-05
-0.0180569 -6.77626e-22 0.00374603 -0.00195351 0.00241225 3.9788e-06
0.0180571 -1.807e-21 0.00374614 -0.00912193 0.0147687 0.00165997
-0.0184338 2.71051e-20 0.00138083 -0.00404227 0.00570249 -7.29922e-05
0.0184338 0 0.00138083 -0.0219347 0.0298638 0.000680003
-0.0184038 0 0.00212475 -0.00470665 0.00653805 -0.000111694
0.0184038 -5.42101e-20 0.00212477 -0.0290128 0.0381071 0.00134288
-0.0185327 3.38813e-21 3.11486e-13 0 0 0
0.0185329 -3.38813e-21 3.11329e-13 0 0 0
-0.0180751 -1.35525e-20 0.00422612 0 0 0
0.0180753 -1.35525e-20 0.00422622 0 0 0
-0.0183783 2.71051e-20 0.00286013 -0.00432426 0.00576147 -0.000133426
0.0183783 0 0.00286017 -0.0265619 0.0357537 0.00200054
0.0186585 2.25875e-21 0.000460868 -0.00719968 0.0117366 4.72016e-05
-0.0186585 -2.25875e-21 0.000460863 -0.00131971 0.00179265 6.15648e-06
-0.0181758 0 0.00428412 0 0 0
0.0181761 0 0.00428433 0 0 0
-0.0182334 0 0.00409678 -0.00094351 0.00114621 6.68801e-06
0.0182336 4.51751e-21 0.00409694 -0.00420102 0.00754929 0.00117273
-0.0183787 2.71051e-20 0.00352164 -0.0031122 0.00393731 -5.69035e-05
0.0183789 0 0.00352172 -0.0172838 0.0252243 0.00220893
-0.018738 0 2.24787e-13 0 0 0
0.018738 0 2.24588e-13 0 0 0
-0.0187383 -3.38813e-21 1.8583e-05 -1.94918e-06 2.31613e-06 -1.76151e-07
0.0187383 -3.38813e-21 1.85606e-05 -0.000173578 0.00037758 -3.68845e-06
-0.0187394 0 0.000144294 -0.000383644 0.00051699 6.57446e-06
0.0187394 0 0.000144153 -0.00212549 0.00352542 2.32804e-06
-0.0187637 0 5.23851e-14 0 0 0
0.0187638 0 5.23963e-14 0 0 0
0.018782 0 1.5237e-05 -0.000160826 0.000314239 -1.78678e-05
-0.018782 0 1.52548e-05 -2.09024e-06 5.44661e-06 -7.13778e-06
0.0187834 -3.38813e-21 4.17921e-14 0 0 0
-0.0187835 -6.77626e-21 4.1772e-14 0 0 0
0.0187414 -1.12938e-22 0.00174786 -0.0262299 0.0348095 0.00102408
-0.0187414 -1.12938e-22 0.00174787 -0.00442942 0.0062087 -0.000137503
0.0188423 3.38813e-21 3.05852e-14 0 0 0
-0.0188424 -3.38813e-21 3.05567e-14 0 0 0
-0.0188306 4.51751e-21 0.000951028 -0.00290985 0.00403561 -3.55593e-06
0.0188306 2.25875e-21 0.000951028 -0.0151712 0.0217332 0.000297908
-0.0183689 -2.71051e-20 0.00439542 0 0 0
0.0183691 -2.71051e-20 0.00439559 0 0 0
-0.0187534 2.01675e-22 0.00244424 -0.00454978 0.00625517 -0.000209904
0.0187534 -8.06698e-23 0.00244427 -0.0290628 0.0382865 0.00165402
-0.0186869 0 0.00320185 -0.00385988 0.0051331 -0.00019131
0.018687 0 0.00320189 -0.0245298 0.0335161 0.00220958
-0.0184805 1.35525e-20 0.00445982 0 0 0
0.0184807 0 0.00445997 0 0 0
-0.0185301 0 0.00433158 -0.000711264 0.000823467 1.40588e-05
0.0185303 1.35525e-20 0.00433174 -0.00301898 0.0058421 0.000890435
-0.0186603 4.14105e-21 0.00393311 -0.00219827 0.0027934 -6.69469e-05
0.0186605 -1.12938e-21 0.0039332 -0.0121193 0.0187601 0.00208942
0.0191245 5.64689e-22 0.000340867 -0.00547434 0.00927106 -0.000146627
-0.0191245 -8.47033e-22 0.000340856 -0.00110275 0.00140366 9.93225e-05
0.0192203 -1.35525e-20 9.46707e-15 0 0 0
-0.0192204 2.71051e-20 9.45326e-15 0 0 0
-0.0191646 0 0.00146339 -0.00429465 0.00612821 -0.000196624
0.0191646 0 0.00146338 -0.0246398 0.0329202 0.000731826
-0.0190143 -2.71051e-20 0.00283781 -0.00447891 0.0061858 -0.000344573
0.0190144 -2.71051e-20 0.00283783 -0.0310488 0.0406362 0.00195478
-0.0186819 0 0.00457601 0 0 0
0.0186821 0 0.00457612 0 0 0
-0.0187038 0 0.00458864 0 0 0
0.018704 1.69407e-21 0.00458877 0 0 0
-0.01916 -2.71051e-20 0.00195783 -0.00474909 0.00669079 -0.000276457
0.01916 0 0.00195783 -0.0303164 0.0394276 0.00122462
-0.0187217 0 0.00456119 -0.000165533 0.000215804 -5.47042e-06
0.0187219 0 0.00456127 -0.00067948 0.00128882 0.000212906
-0.0187284 1.01644e-20 0.00460285 0 0 0
0.0187286 1.01644e-20 0.00460299 0 0 0
-0.0189854 -2.71051e-20 0.00354614 -0.00360532 0.00477761 -0.000241995
0.0189855 -2.71051e-20 0.00354618 -0.0239787 0.0333022 0.00266173
-0.0188773 4.51751e-21 0.00434122 -0.00143636 0.001851 -4.50601e-05
0.0188775 4.51751e-21 0.00434132 -0.00641854 0.0117982 0.00184881
-0.0193797 2.11758e-22 0.000837433 -0.00261638 0.00362447 1.80047e-05
0.0193798 0 0.000837383 -0.0133321 0.0192226 0.000180303
-0.0193834 -1.05879e-21 0.00085584 -0.00266733 0.0037006 1.43583e-05
0.0193835 2.11758e-21 0.000855835 -0.0135996 0.0195569 0.000193131
-0.0194038 -3.59989e-21 0.000856716 -0.00267432 0.00370921 1.02453e-05
0.0194039 -1.27055e-21 0.000856714 -0.0136354 0.0195975 0.000197837
0.0194237 0 1.54975e-15 0 0 0
-0.0194238 -2.71051e-20 1.53986e-15 0 0 0
-0.0193729 1.35525e-20 0.00169001 -0.00455276 0.00645632 -0.000279609
0.0193729 0 0.00169001 -0.0278453 0.036534 0.00101456
-0.0193777 -7.05861e-22 0.00244586 -0.00462116 0.00653924 -0.000447616
0.0193778 -1.41172e-22 0.00244587 -0.0323602 0.0418679 0.00162468
-0.0189667 1.35525e-20 0.0047403 0 0 0
0.0189668 -1.35525e-20 0.00474041 0 0 0
-0.0193197 1.12938e-21 0.00318402 -0.00409449 0.00569554 -0.000440246
0.0193198 0 0.00318404 -0.0297244 0.039423 0.00228623
-0.0190326 0 0.0046715 -0.000442304 0.000558185 -1.65331e-06
0.0190327 0 0.00467159 -0.00206064 0.004074 0.000741253
-0.0195819 0 0.00142153 -0.00434234 0.00616595 -0.000297507
0.019582 -2.71051e-20 0.00142152 -0.0255696 0.0338294 0.000864785
-0.019255 4.51751e-21 0.00392942 -0.00278704 0.00376264 -0.000276975
0.019255 0 0.00392947 -0.0188244 0.0271816 0.00256692
-0.019653 6.77626e-21 3.99215e-16 0 0 0
0.019653 2.03288e-20 4.03295e-16 0 0 0
-0.0195685 -5.42101e-20 0.00193727 -0.00478905 0.00683389 -0.000403513
0.0195685 0 0.00193726 -0.0311667 0.0403652 0.00126669
-0.0190798 2.71051e-20 0.00480552 0 0 0
0.0190799 0 0.00480561 0 0 0
-0.0197213 -2.25875e-21 0.000269929 -0.000989787 0.00140577 4.87017e-05
0.0197213 0 0.000269962 -0.00364342 0.00634594 -7.48445e-05
-0.0192752 1.35525e-21 0.00441197 -0.00174666 0.00229414 -0.000121957
0.0192754 -1.807e-21 0.00441204 -0.010099 0.0166027 0.00225434
0.0198342 0 4.71809e-16 0 0 0
-0.0198343 3.38813e-21 4.68213e-16 0 0 0
-0.0192473 0 0.00490218 0 0 0
0.0192474 -6.77626e-21 0.00490225 0 0 0
-0.0196698 2.71051e-20 0.00278692 -0.00451495 0.00651659 -0.000630353
0.0196698 -2.71051e-20 0.00278693 -0.034765 0.0446209 0.00178267
-0.0196163 0 0.00353247 -0.00381798 0.00536039 -0.000545913
0.0196163 2.71051e-20 0.0035325 -0.0293675 0.0394046 0.00271947
-0.019321 -3.38813e-20 0.00494469 0 0 0
0.0193211 -6.77626e-21 0.00494477 0 0 0
-0.0194215 -9.03502e-21 0.00475386 -0.000886984 0.00118516 -5.46507e-05
0.0194216 -1.35525e-20 0.00475393 -0.00481467 0.00882634 0.00160087
-0.0200351 0 -3.2986e-17 0 0 0
0.0200352 0 -3.30812e-17 0 0 0
-0.0200397 3.38813e-21 0.000879744 -0.00276698 0.00379988 -0.000170456
0.0200398 -2.82344e-22 0.000879732 -0.0140816 0.0198399 0.00039014
-0.0196209 0 0.00418606 -0.00271833 0.00373234 -0.000359051
0.0196209 2.71051e-20 0.0041861 -0.0192906 0.0282816 0.00291078
-0.0200081 1.41172e-22 0.00168408 -0.00460853 0.00650564 -0.000497199
0.0200082 -2.82344e-22 0.00168407 -0.0290453 0.0377226 0.00109612
-0.0200926 -1.35525e-20 6.73548e-05 -0.000281327 0.000346565 -3.61145e-06
0.0200928 0 6.74599e-05 -0.000875623 0.00144147 3.71668e-05
-0.0200965 0 -7.17139e-19 0 0 0
0.0200967 0 -7.66423e-19 0 0 0
-0.0201334 0 8.6319e-18 0 0 0
0.0201336 1.35525e-20 8.60253e-18 0 0 0
-0.019508 -1.35525e-20 0.00505259 0 0 0
0.0195081 -2.71051e-20 0.00505265 0 0 0
-0.0200346 1.12938e-21 0.00229471 -0.00456216 0.00658945 -0.000715935
0.0200346 -3.38813e-21 0.0022947 -0.0337579 0.0432046 0.00150369
-0.0199605 -1.58113e-21 0.00311687 -0.00413547 0.00604946 -0.000795493
0.0199605 -2.48463e-21 0.00311687 -0.033808 0.0436864 0.00208564
-0.0202249 -1.35525e-20 6.9338e-05 -0.00030515 0.000408204 -6.29249e-06
0.0202254 1.35525e-20 6.9446e-05 -0.00118873 0.0018386 4.50876e-05
-0.0202304 0 -1.76858e-17 0 0 0
0.0202308 0 -1.76992e-17 0 0 0
-0.0199313 -1.12938e-21 0.0038555 -0.00331758 0.00480597 -0.000652974
0.0199314 1.12938e-21 0.00385553 -0.0270327 0.0367644 0.00275952
-0.0196734 -1.35525e-20 0.00514806 0 0 0
0.0196735 2.03288e-20 0.00514812 0 0 0
-0.0198941 3.61401e-21 0.00456699 -0.00196751 0.00277503 -0.000325138
0.0198942 1.807e-21 0.00456703 -0.0141275 0.0214926 0.00252125
-0.0197657 6.77626e-21 0.00520128 0 0 0
0.0197658 -1.35525e-20 0.00520135 0 0 0
-0.0198217 0 0.00501122 -0.000825616 0.00105571 -6.70471e-05
0.0198218 0 0.00501128 -0.00468544 0.00830235 0.00131344
-0.0202896 -2.71051e-20 0.00277321 -0.00430416 0.00646716 -0.00102774
0.0202896 0 0.00277322 -0.0371126 0.0468998 0.00166278
-0.0202612 0 0.00349053 -0.00376869 0.00567575 -0.000995662
0.0202612 0 0.00349054 -0.0339706 0.043963 0.00239118
-0.0199064 0 0.00528243 0 0 0
0.0199065 0 0.0052825 0 0 0
-0.020245 0 0.0041794 -0.0030128 0.00454181 -0.0007392
0.0202451 -5.42101e-20 0.00417943 -0.0261469 0.0361067 0.00300226
-0.0206572 -1.0842e-19 0.00171989 -0.00464088 0.00648756 -0.000837929
0.0206573 0 0.00171988 -0.0304794 0.0391251 0.0011619
-0.0201293 -1.50584e-21 0.00498603 -0.00136135 0.00191663 -0.000229046
0.0201293 -1.50584e-21 0.00498607 -0.00898084 0.0150522 0.00229852
-0.0200531 0 0.00536707 0 0 0
0.0200531 -6.77626e-21 0.00536711 0 0 0
0.0206314 2.82344e-22 0.00242248 -0.0362719 0.0457298 0.00155619
-0.0206314 -7.05861e-23 0.0024225 -0.00428306 0.00640714 -0.00113072
-0.0207755 -5.42101e-20 0.000514971 -0.00235964 0.00302419 -4.84511e-05
0.0207756 0 0.000514975 -0.00876327 0.0139049 0.000376433
-0.0205987 -5.64689e-22 0.00311579 -0.00392016 0.00606697 -0.00122527
0.0205987 0 0.00311579 -0.0369128 0.0467212 0.0019568
-0.0203104 -2.71051e-20 0.00476269 -0.00202197 0.00304 -0.000484178
0.0203105 0 0.00476272 -0.0156803 0.0239814 0.00290118
-0.0201708 1.35525e-20 0.00543499 0 0 0
0.0201709 2.71051e-20 0.00543504 0 0 0
-0.0202176 -9.03502e-21 0.00527687 -0.000600235 0.000864713 -0.000104921
0.0202177 -4.51751e-21 0.00527691 -0.00341635 0.0068496 0.00155174
-0.0205738 -4.51751e-21 0.0038174 -0.00331161 0.00525363 -0.0011291