# Moment      
# CofR        : (0.000000e+00 0.000000e+00 0.000000e+00)
#
# Time        	(total_x total_y total_z)	(pressure_x pressure_y pressure_z)	(viscous_x viscous_y viscous_z)
2530          	(-1.466916e-05 8.857063e-03 -7.063256e-06)	(-1.443104e-05 8.720497e-03 -7.154502e-06)	(-2.381174e-07 1.365664e-04 9.124659e-08)
2530          	(-2.149812e-05 8.879020e-03 5.533034e-06)	(-2.125975e-05 8.742356e-03 5.442019e-06)	(-2.383694e-07 1.366640e-04 9.101469e-08)
2530          	(-1.577576e-05 8.873104e-03 6.533289e-06)	(-1.553740e-05 8.736345e-03 6.442425e-06)	(-2.383581e-07 1.367584e-04 9.086387e-08)
2530          	(-1.626847e-05 8.884725e-03 6.496750e-06)	(-1.603002e-05 8.747873e-03 6.406042e-06)	(-2.384441e-07 1.368513e-04 9.070842e-08)
2530          	(-1.671018e-05 8.890644e-03 6.389819e-06)	(-1.647159e-05 8.753700e-03 6.299210e-06)	(-2.385866e-07 1.369437e-04 9.060820e-08)
2530          	(-1.587594e-05 8.893167e-03 6.400986e-06)	(-1.563718e-05 8.756131e-03 6.310527e-06)	(-2.387520e-07 1.370356e-04 9.045861e-08)
2530          	(-1.595589e-05 8.894696e-03 6.486791e-06)	(-1.571695e-05 8.757569e-03 6.396480e-06)	(-2.389353e-07 1.371270e-04 9.031035e-08)
2530          	(-1.595286e-05 8.894996e-03 6.286822e-06)	(-1.571374e-05 8.757778e-03 6.196680e-06)	(-2.391236e-07 1.372180e-04 9.014178e-08)
2530          	(-1.594448e-05 8.894812e-03 6.376831e-06)	(-1.570516e-05 8.757504e-03 6.286865e-06)	(-2.393238e-07 1.373086e-04 8.996668e-08)
2530          	(-1.601521e-05 8.894151e-03 6.360626e-06)	(-1.577569e-05 8.756753e-03 6.270849e-06)	(-2.395258e-07 1.373987e-04 8.977673e-08)
2530          	(-1.578859e-05 8.893247e-03 6.506111e-06)	(-1.554888e-05 8.755759e-03 6.416515e-06)	(-2.397149e-07 1.374885e-04 8.959567e-08)
2530          	(-1.564530e-05 8.892133e-03 6.494466e-06)	(-1.540540e-05 8.754555e-03 6.405052e-06)	(-2.398942e-07 1.375779e-04 8.941477e-08)
2530          	(-1.572473e-05 8.890929e-03 6.464876e-06)	(-1.548466e-05 8.753262e-03 6.375631e-06)	(-2.400762e-07 1.376669e-04 8.924451e-08)
2530          	(-1.541528e-05 8.889688e-03 6.548104e-06)	(-1.517504e-05 8.751932e-03 6.459022e-06)	(-2.402391e-07 1.377555e-04 8.908151e-08)
2530          	(-1.566388e-05 8.888440e-03 6.485299e-06)	(-1.542347e-05 8.750596e-03 6.396379e-06)	(-2.404109e-07 1.378439e-04 8.891963e-08)
2530          	(-1.548766e-05 8.887227e-03 6.504205e-06)	(-1.524707e-05 8.749296e-03 6.415449e-06)	(-2.405871e-07 1.379319e-04 8.875573e-08)
2530          	(-1.565656e-05 8.886113e-03 6.478329e-06)	(-1.541579e-05 8.748094e-03 6.389733e-06)	(-2.407772e-07 1.380196e-04 8.859613e-08)
2530          	(-1.555027e-05 8.885018e-03 6.470455e-06)	(-1.530932e-05 8.746911e-03 6.382011e-06)	(-2.409587e-07 1.381070e-04 8.844462e-08)
2530          	(-1.544316e-05 8.884024e-03 6.503904e-06)	(-1.520204e-05 8.745830e-03 6.415598e-06)	(-2.411240e-07 1.381942e-04 8.830615e-08)
2530.01       	(-1.547300e-05 8.883078e-03 6.488199e-06)	(-1.523170e-05 8.744797e-03 6.400025e-06)	(-2.413001e-07 1.382812e-04 8.817412e-08)
2530.01       	(-1.550753e-05 8.882227e-03 6.488903e-06)	(-1.526605e-05 8.743859e-03 6.400851e-06)	(-2.414787e-07 1.383679e-04 8.805168e-08)
2530.01       	(-1.547617e-05 8.881429e-03 6.482848e-06)	(-1.523452e-05 8.742975e-03 6.394911e-06)	(-2.416502e-07 1.384544e-04 8.793728e-08)
2530.01       	(-1.556452e-05 8.880730e-03 6.463395e-06)	(-1.532269e-05 8.742190e-03 6.375561e-06)	(-2.418255e-07 1.385407e-04 8.783383e-08)
2530.01       	(-1.549905e-05 8.880121e-03 6.493721e-06)	(-1.525706e-05 8.741494e-03 6.405982e-06)	(-2.419946e-07 1.386268e-04 8.773899e-08)
2530.01       	(-1.565311e-05 8.879597e-03 6.462366e-06)	(-1.541094e-05 8.740884e-03 6.374715e-06)	(-2.421773e-07 1.387128e-04 8.765041e-08)
2530.01       	(-1.537080e-05 8.879108e-03 6.360628e-06)	(-1.512848e-05 8.740310e-03 6.273045e-06)	(-2.423177e-07 1.387986e-04 8.758309e-08)
2530.01       	(-1.549757e-05 8.878461e-03 6.356130e-06)	(-1.525509e-05 8.739577e-03 6.268608e-06)	(-2.424720e-07 1.388842e-04 8.752215e-08)
2530.01       	(-1.539497e-05 8.877917e-03 6.394274e-06)	(-1.515234e-05 8.738947e-03 6.306807e-06)	(-2.426236e-07 1.389697e-04 8.746733e-08)
2530.01       	(-1.545209e-05 8.877496e-03 6.379316e-06)	(-1.520931e-05 8.738441e-03 6.291900e-06)	(-2.427808e-07 1.390551e-04 8.741579e-08)
2530.01       	(-1.541510e-05 8.877157e-03 6.424380e-06)	(-1.517216e-05 8.738017e-03 6.337011e-06)	(-2.429410e-07 1.391404e-04 8.736921e-08)
2530.01       	(-1.544254e-05 8.876863e-03 6.465606e-06)	(-1.519942e-05 8.737638e-03 6.378281e-06)	(-2.431123e-07 1.392255e-04 8.732556e-08)
2530.01       	(-1.539737e-05 8.876556e-03 6.508836e-06)	(-1.515409e-05 8.737246e-03 6.421546e-06)	(-2.432808e-07 1.393106e-04 8.728962e-08)
2530.01       	(-1.521234e-05 8.876313e-03 6.342872e-06)	(-1.496893e-05 8.736918e-03 6.255595e-06)	(-2.434137e-07 1.393955e-04 8.727665e-08)
2530.01       	(-1.519977e-05 8.875754e-03 6.345717e-06)	(-1.495622e-05 8.736274e-03 6.258447e-06)	(-2.435473e-07 1.394804e-04 8.727004e-08)
2530.01       	(-1.530255e-05 8.875511e-03 6.448978e-06)	(-1.505884e-05 8.735946e-03 6.361714e-06)	(-2.437040e-07 1.395651e-04 8.726431e-08)
2530.01       	(-1.537596e-05 8.875475e-03 6.458226e-06)	(-1.513209e-05 8.735826e-03 6.370968e-06)	(-2.438733e-07 1.396498e-04 8.725828e-08)
2530.01       	(-1.539788e-05 8.875492e-03 6.563762e-06)	(-1.515382e-05 8.735758e-03 6.476507e-06)	(-2.440559e-07 1.397343e-04 8.725450e-08)
2530.01       	(-1.532448e-05 8.875499e-03 6.597235e-06)	(-1.508024e-05 8.735680e-03 6.509980e-06)	(-2.442348e-07 1.398187e-04 8.725502e-08)
2530.01       	(-1.530256e-05 8.875532e-03 6.540684e-06)	(-1.505816e-05 8.735629e-03 6.453422e-06)	(-2.444031e-07 1.399031e-04 8.726145e-08)
2530.01       	(-1.529870e-05 8.875794e-03 6.537528e-06)	(-1.505413e-05 8.735806e-03 6.450255e-06)	(-2.445679e-07 1.399873e-04 8.727293e-08)
2530.01       	(-1.530030e-05 8.876096e-03 6.550147e-06)	(-1.505556e-05 8.736025e-03 6.462862e-06)	(-2.447349e-07 1.400715e-04 8.728507e-08)
2530.01       	(-1.531993e-05 8.876421e-03 6.574897e-06)	(-1.507501e-05 8.736265e-03 6.487600e-06)	(-2.449201e-07 1.401556e-04 8.729752e-08)
2530.01       	(-1.526254e-05 8.876838e-03 6.624735e-06)	(-1.501743e-05 8.736599e-03 6.537421e-06)	(-2.451004e-07 1.402395e-04 8.731454e-08)
2530.01       	(-1.527347e-05 8.877217e-03 6.567733e-06)	(-1.502820e-05 8.736893e-03 6.480396e-06)	(-2.452667e-07 1.403233e-04 8.733676e-08)
2530.01       	(-1.523704e-05 8.877598e-03 6.604267e-06)	(-1.499159e-05 8.737191e-03 6.516910e-06)	(-2.454499e-07 1.404070e-04 8.735696e-08)
2530.01       	(-1.525449e-05 8.878007e-03 6.582400e-06)	(-1.500887e-05 8.737516e-03 6.495016e-06)	(-2.456147e-07 1.404906e-04 8.738385e-08)
2530.01       	(-1.531644e-05 8.878435e-03 6.575246e-06)	(-1.507066e-05 8.737861e-03 6.487834e-06)	(-2.457850e-07 1.405741e-04 8.741248e-08)
2530.01       	(-1.523034e-05 8.878875e-03 6.611221e-06)	(-1.498439e-05 8.738218e-03 6.523778e-06)	(-2.459525e-07 1.406574e-04 8.744246e-08)
2530.01       	(-1.530252e-05 8.879339e-03 6.599869e-06)	(-1.505639e-05 8.738598e-03 6.512397e-06)	(-2.461268e-07 1.407407e-04 8.747220e-08)
2530.01       	(-1.522917e-05 8.879814e-03 6.577328e-06)	(-1.498288e-05 8.738990e-03 6.489825e-06)	(-2.462946e-07 1.408238e-04 8.750278e-08)
2530.01       	(-1.530589e-05 8.880320e-03 6.610946e-06)	(-1.505942e-05 8.739413e-03 6.523410e-06)	(-2.464751e-07 1.409068e-04 8.753665e-08)
2530.01       	(-1.519828e-05 8.880826e-03 6.590159e-06)	(-1.495164e-05 8.739837e-03 6.502589e-06)	(-2.466390e-07 1.409897e-04 8.757069e-08)
2530.01       	(-1.534590e-05 8.881345e-03 6.569608e-06)	(-1.509908e-05 8.740273e-03 6.482001e-06)	(-2.468138e-07 1.410724e-04 8.760654e-08)
2530.01       	(-1.515061e-05 8.881877e-03 6.627031e-06)	(-1.490363e-05 8.740722e-03 6.539387e-06)	(-2.469780e-07 1.411550e-04 8.764431e-08)
2530.01       	(-1.536007e-05 8.882421e-03 6.577559e-06)	(-1.511292e-05 8.741183e-03 6.489878e-06)	(-2.471517e-07 1.412375e-04 8.768114e-08)
2530.01       	(-1.516635e-05 8.882981e-03 6.601538e-06)	(-1.491903e-05 8.741661e-03 6.513819e-06)	(-2.473182e-07 1.413198e-04 8.771865e-08)
2530.01       	(-1.534481e-05 8.883577e-03 6.603354e-06)	(-1.509731e-05 8.742175e-03 6.515596e-06)	(-2.474962e-07 1.414020e-04 8.775765e-08)
2530.02       	(-1.511309e-05 8.884170e-03 6.659025e-06)	(-1.486543e-05 8.742686e-03 6.571225e-06)	(-2.476591e-07 1.414841e-04 8.779931e-08)
2530.02       	(-1.533627e-05 8.884772e-03 6.621027e-06)	(-1.508844e-05 8.743206e-03 6.533185e-06)	(-2.478329e-07 1.415660e-04 8.784122e-08)
2530.02       	(-1.506767e-05 8.885380e-03 6.688650e-06)	(-1.481967e-05 8.743732e-03 6.600764e-06)	(-2.479925e-07 1.416477e-04 8.788584e-08)
2530.02       	(-1.521268e-05 8.885996e-03 6.684090e-06)	(-1.496453e-05 8.744266e-03 6.596154e-06)	(-2.481536e-07 1.417293e-04 8.793535e-08)
2530.02       	(-1.499483e-05 8.886589e-03 6.711466e-06)	(-1.474652e-05 8.744778e-03 6.623480e-06)	(-2.483094e-07 1.418108e-04 8.798513e-08)
2530.02       	(-1.519071e-05 8.887222e-03 6.729203e-06)	(-1.494223e-05 8.745330e-03 6.641166e-06)	(-2.484811e-07 1.418921e-04 8.803636e-08)
2530.02       	(-1.494016e-05 8.887857e-03 6.777116e-06)	(-1.469153e-05 8.745884e-03 6.689026e-06)	(-2.486356e-07 1.419732e-04 8.809012e-08)
2530.02       	(-1.516921e-05 8.888505e-03 6.771710e-06)	(-1.492041e-05 8.746451e-03 6.683565e-06)	(-2.487980e-07 1.420542e-04 8.814444e-08)
2530.02       	(-1.498334e-05 8.889136e-03 6.791917e-06)	(-1.473438e-05 8.747001e-03 6.703717e-06)	(-2.489623e-07 1.421350e-04 8.819932e-08)
2530.02       	(-1.517187e-05 8.889793e-03 6.789552e-06)	(-1.492273e-05 8.747578e-03 6.701298e-06)	(-2.491378e-07 1.422156e-04 8.825389e-08)
2530.02       	(-1.499031e-05 8.890422e-03 6.799771e-06)	(-1.474100e-05 8.748126e-03 6.711462e-06)	(-2.493079e-07 1.422961e-04 8.830876e-08)
2530.02       	(-1.514453e-05 8.891072e-03 6.784593e-06)	(-1.489506e-05 8.748696e-03 6.696229e-06)	(-2.494774e-07 1.423764e-04 8.836348e-08)
2530.02       	(-1.498138e-05 8.891711e-03 6.790325e-06)	(-1.473175e-05 8.749255e-03 6.701907e-06)	(-2.496360e-07 1.424565e-04 8.841831e-08)
2530.02       	(-1.509745e-05 8.892381e-03 6.832936e-06)	(-1.484765e-05 8.749844e-03 6.744456e-06)	(-2.497946e-07 1.425364e-04 8.847946e-08)
2530.02       	(-1.495766e-05 8.893014e-03 6.845022e-06)	(-1.470771e-05 8.750398e-03 6.756481e-06)	(-2.499507e-07 1.426162e-04 8.854049e-08)
2530.02       	(-1.511213e-05 8.893675e-03 6.838534e-06)	(-1.486201e-05 8.750980e-03 6.749934e-06)	(-2.501201e-07 1.426957e-04 8.860070e-08)
2530.02       	(-1.499453e-05 8.894302e-03 6.867523e-06)	(-1.474425e-05 8.751527e-03 6.778861e-06)	(-2.502790e-07 1.427751e-04 8.866220e-08)
2530.02       	(-1.514363e-05 8.894971e-03 6.854709e-06)	(-1.489318e-05 8.752117e-03 6.765986e-06)	(-2.504503e-07 1.428542e-04 8.872366e-08)
2530.02       	(-1.505266e-05 8.895606e-03 6.856621e-06)	(-1.480204e-05 8.752673e-03 6.767835e-06)	(-2.506162e-07 1.429332e-04 8.878598e-08)
2530.02       	(-1.511420e-05 8.896273e-03 6.867247e-06)	(-1.486342e-05 8.753261e-03 6.778396e-06)	(-2.507829e-07 1.430120e-04 8.885079e-08)
2530.02       	(-1.506399e-05 8.896879e-03 6.837333e-06)	(-1.481305e-05 8.753789e-03 6.748420e-06)	(-2.509460e-07 1.430906e-04 8.891282e-08)
2530.02       	(-1.513872e-05 8.897536e-03 6.839769e-06)	(-1.488761e-05 8.754367e-03 6.750795e-06)	(-2.511125e-07 1.431689e-04 8.897452e-08)
2530.02       	(-1.510115e-05 8.898137e-03 6.817995e-06)	(-1.484987e-05 8.754890e-03 6.728959e-06)	(-2.512775e-07 1.432471e-04 8.903546e-08)
2530.02       	(-1.517451e-05 8.898791e-03 6.790474e-06)	(-1.492307e-05 8.755466e-03 6.701380e-06)	(-2.514455e-07 1.433251e-04 8.909391e-08)
2530.02       	(-1.507206e-05 8.899396e-03 6.845159e-06)	(-1.482045e-05 8.755993e-03 6.756002e-06)	(-2.516052e-07 1.434028e-04 8.915720e-08)
2530.02       	(-1.510589e-05 8.900040e-03 6.847535e-06)	(-1.485412e-05 8.756560e-03 6.758314e-06)	(-2.517703e-07 1.434804e-04 8.922011e-08)
2530.02       	(-1.507481e-05 8.900628e-03 6.878579e-06)	(-1.482288e-05 8.757071e-03 6.789293e-06)	(-2.519328e-07 1.435577e-04 8.928580e-08)
2530.02       	(-1.511782e-05 8.901268e-03 6.856208e-06)	(-1.486572e-05 8.757633e-03 6.766860e-06)	(-2.520973e-07 1.436348e-04 8.934845e-08)
2530.02       	(-1.504766e-05 8.901836e-03 6.909677e-06)	(-1.479541e-05 8.758124e-03 6.820263e-06)	(-2.522580e-07 1.437117e-04 8.941397e-08)
2530.02       	(-1.510603e-05 8.902477e-03 6.855493e-06)	(-1.485361e-05 8.758689e-03 6.766016e-06)	(-2.524180e-07 1.437883e-04 8.947733e-08)
2530.02       	(-1.501313e-05 8.903027e-03 6.961067e-06)	(-1.476055e-05 8.759162e-03 6.871521e-06)	(-2.525823e-07 1.438648e-04 8.954561e-08)
2530.02       	(-1.523087e-05 8.903672e-03 6.753723e-06)	(-1.497812e-05 8.759731e-03 6.664121e-06)	(-2.527518e-07 1.439410e-04 8.960226e-08)
2530.02       	(-1.488995e-05 8.904188e-03 7.068556e-06)	(-1.463704e-05 8.760171e-03 6.978881e-06)	(-2.529063e-07 1.440171e-04 8.967442e-08)
2530.02       	(-1.533603e-05 8.904855e-03 6.622767e-06)	(-1.508295e-05 8.760763e-03 6.533042e-06)	(-2.530803e-07 1.440928e-04 8.972492e-08)
2530.02       	(-1.463807e-05 8.905328e-03 7.291388e-06)	(-1.438485e-05 8.761160e-03 7.201580e-06)	(-2.532181e-07 1.441684e-04 8.980804e-08)
2530.02       	(-1.560452e-05 8.906018e-03 6.399037e-06)	(-1.535111e-05 8.761775e-03 6.309190e-06)	(-2.534069e-07 1.442437e-04 8.984681e-08)
2530.02       	(-1.441144e-05 8.906443e-03 7.552867e-06)	(-1.415791e-05 8.762124e-03 7.462925e-06)	(-2.535315e-07 1.443188e-04 8.994278e-08)
2530.02       	(-1.575795e-05 8.907155e-03 6.229069e-06)	(-1.550423e-05 8.762761e-03 6.139094e-06)	(-2.537252e-07 1.443937e-04 8.997471e-08)
2530.03       	(-1.433194e-05 8.907547e-03 7.636978e-06)	(-1.407809e-05 8.763079e-03 7.546903e-06)	(-2.538428e-07 1.444683e-04 9.007521e-08)
2530.03       	(-1.587485e-05 8.908263e-03 6.161065e-06)	(-1.562081e-05 8.763720e-03 6.070965e-06)	(-2.540445e-07 1.445428e-04 9.010054e-08)
2530.03       	(-1.422718e-05 8.908623e-03 7.782663e-06)	(-1.397302e-05 8.764006e-03 7.692456e-06)	(-2.541591e-07 1.446170e-04 9.020670e-08)
2530.03       	(-1.601868e-05 8.909352e-03 6.062565e-06)	(-1.576431e-05 8.764661e-03 5.972336e-06)	(-2.543667e-07 1.446909e-04 9.022922e-08)
2530.03       	(-1.412265e-05 8.909673e-03 7.924315e-06)	(-1.386817e-05 8.764908e-03 7.833972e-06)	(-2.544744e-07 1.447646e-04 9.034290e-08)
2530.03       	(-1.611078e-05 8.910398e-03 5.957666e-06)	(-1.585610e-05 8.765560e-03 5.867308e-06)	(-2.546890e-07 1.448381e-04 9.035869e-08)
2530.03       	(-1.402034e-05 8.910699e-03 8.035452e-06)	(-1.376555e-05 8.765788e-03 7.944975e-06)	(-2.547906e-07 1.449114e-04 9.047765e-08)
2530.03       	(-1.617432e-05 8.911422e-03 5.897323e-06)	(-1.591931e-05 8.766438e-03 5.806832e-06)	(-2.550059e-07 1.449844e-04 9.049083e-08)
2530.03       	(-1.391671e-05 8.911692e-03 8.112825e-06)	(-1.366161e-05 8.766635e-03 8.022213e-06)	(-2.551024e-07 1.450572e-04 9.061248e-08)
2530.03       	(-1.629153e-05 8.912427e-03 5.760494e-06)	(-1.603620e-05 8.767297e-03 5.669876e-06)	(-2.553257e-07 1.451297e-04 9.061791e-08)
2530.03       	(-1.377400e-05 8.912660e-03 8.231915e-06)	(-1.351858e-05 8.767458e-03 8.141170e-06)	(-2.554154e-07 1.452020e-04 9.074572e-08)
2530.03       	(-1.637158e-05 8.913408e-03 5.676330e-06)	(-1.611594e-05 8.768134e-03 5.585583e-06)	(-2.556429e-07 1.452741e-04 9.074676e-08)
2530.03       	(-1.369743e-05 8.913574e-03 8.324139e-06)	(-1.344170e-05 8.768228e-03 8.233261e-06)	(-2.557290e-07 1.453460e-04 9.087842e-08)
2530.03       	(-1.651266e-05 8.914343e-03 5.597868e-06)	(-1.625669e-05 8.768925e-03 5.506993e-06)	(-2.559655e-07 1.454176e-04 9.087538e-08)
2530.03       	(-1.359633e-05 8.914479e-03 8.466065e-06)	(-1.334029e-05 8.768990e-03 8.375051e-06)	(-2.560465e-07 1.454889e-04 9.101395e-08)
2530.03       	(-1.663627e-05 8.915248e-03 5.495036e-06)	(-1.637998e-05 8.769688e-03 5.404031e-06)	(-2.562892e-07 1.455601e-04 9.100438e-08)
2530.03       	(-1.347202e-05 8.915348e-03 8.604519e-06)	(-1.321566e-05 8.769717e-03 8.513369e-06)	(-2.563616e-07 1.456310e-04 9.115075e-08)
2530.03       	(-1.672688e-05 8.916129e-03 5.439056e-06)	(-1.647027e-05 8.770428e-03 5.347917e-06)	(-2.566145e-07 1.457017e-04 9.113882e-08)
2530.03       	(-1.333404e-05 8.916169e-03 8.778293e-06)	(-1.307737e-05 8.770397e-03 8.686999e-06)	(-2.566763e-07 1.457721e-04 9.129361e-08)
2530.03       	(-1.685703e-05 8.916940e-03 5.333065e-06)	(-1.660009e-05 8.771098e-03 5.241789e-06)	(-2.569375e-07 1.458423e-04 9.127661e-08)
2530.03       	(-1.315386e-05 8.916955e-03 8.970567e-06)	(-1.289687e-05 8.771043e-03 8.879123e-06)	(-2.569884e-07 1.459122e-04 9.144329e-08)
2530.03       	(-1.695714e-05 8.917696e-03 5.197246e-06)	(-1.669988e-05 8.771714e-03 5.105827e-06)	(-2.572559e-07 1.459820e-04 9.141937e-08)
2530.03       	(-1.295554e-05 8.917601e-03 9.162762e-06)	(-1.269822e-05 8.771549e-03 9.071174e-06)	(-2.573171e-07 1.460515e-04 9.158802e-08)
2530.03       	(-1.719412e-05 8.918422e-03 4.970220e-06)	(-1.693651e-05 8.772302e-03 4.878672e-06)	(-2.576156e-07 1.461207e-04 9.154765e-08)
2530.03       	(-1.256332e-05 8.918255e-03 9.603939e-06)	(-1.230566e-05 8.772065e-03 9.512201e-06)	(-2.576590e-07 1.461898e-04 9.173812e-08)
2530.03       	(-1.752937e-05 8.919174e-03 4.732470e-06)	(-1.727143e-05 8.772916e-03 4.640775e-06)	(-2.579362e-07 1.462586e-04 9.169537e-08)
2530.03       	(-1.205224e-05 8.918869e-03 1.025588e-05)	(-1.179433e-05 8.772542e-03 1.016397e-05)	(-2.579168e-07 1.463271e-04 9.191947e-08)
2530.03       	(-1.821181e-05 8.920008e-03 4.125271e-06)	(-1.795359e-05 8.773612e-03 4.033432e-06)	(-2.582143e-07 1.463955e-04 9.183888e-08)
2530.03       	(-1.118125e-05 8.919512e-03 1.114812e-05)	(-1.092310e-05 8.773049e-03 1.105603e-05)	(-2.581501e-07 1.464635e-04 9.209276e-08)
2530.03       	(-1.916167e-05 8.920900e-03 3.082779e-06)	(-1.890314e-05 8.774369e-03 2.990830e-06)	(-2.585278e-07 1.465314e-04 9.194871e-08)
2530.03       	(-1.055524e-05 8.920162e-03 1.172929e-05)	(-1.029679e-05 8.773563e-03 1.163707e-05)	(-2.584572e-07 1.465990e-04 9.222267e-08)
2530.03       	(-1.943982e-05 8.921634e-03 2.786211e-06)	(-1.918097e-05 8.774968e-03 2.694147e-06)	(-2.588513e-07 1.466664e-04 9.206408e-08)
2530.03       	(-1.047507e-05 8.920831e-03 1.180952e-05)	(-1.021630e-05 8.774098e-03 1.171718e-05)	(-2.587703e-07 1.467336e-04 9.234339e-08)
2530.03       	(-1.961710e-05 8.922327e-03 2.631045e-06)	(-1.935793e-05 8.775526e-03 2.538865e-06)	(-2.591734e-07 1.468005e-04 9.217948e-08)
2530.03       	(-1.039540e-05 8.921470e-03 1.191883e-05)	(-1.013631e-05 8.774603e-03 1.182636e-05)	(-2.590920e-07 1.468672e-04 9.246540e-08)
2530.03       	(-1.975993e-05 8.922977e-03 2.454586e-06)	(-1.950042e-05 8.776043e-03 2.362295e-06)	(-2.595123e-07 1.469337e-04 9.229107e-08)
2530.03       	(-1.040185e-05 8.922052e-03 1.188681e-05)	(-1.014241e-05 8.775052e-03 1.179424e-05)	(-2.594415e-07 1.469999e-04 9.257279e-08)
2530.03       	(-1.999218e-05 8.923575e-03 2.226268e-06)	(-1.973231e-05 8.776509e-03 2.133879e-06)	(-2.598750e-07 1.470660e-04 9.238911e-08)
2530.04       	(-1.035279e-05 8.922611e-03 1.192222e-05)	(-1.009299e-05 8.775480e-03 1.182955e-05)	(-2.597969e-07 1.471318e-04 9.267674e-08)
2530.04       	(-2.020072e-05 8.924153e-03 2.038739e-06)	(-1.994047e-05 8.776956e-03 1.946257e-06)	(-2.602469e-07 1.471974e-04 9.248207e-08)
2530.04       	(-1.028478e-05 8.923142e-03 1.200592e-05)	(-1.002460e-05 8.775879e-03 1.191315e-05)	(-2.601771e-07 1.472627e-04 9.276957e-08)
2530.04       	(-2.024569e-05 8.924704e-03 2.022439e-06)	(-1.998507e-05 8.777377e-03 1.929862e-06)	(-2.606247e-07 1.473278e-04 9.257765e-08)
2530.04       	(-1.029331e-05 8.923651e-03 1.201328e-05)	(-1.003276e-05 8.776258e-03 1.192041e-05)	(-2.605495e-07 1.473927e-04 9.286915e-08)
2530.04       	(-2.009651e-05 8.925192e-03 2.187004e-06)	(-1.983554e-05 8.777735e-03 2.094314e-06)	(-2.609772e-07 1.474574e-04 9.268963e-08)
2530.04       	(-1.041023e-05 8.924197e-03 1.195589e-05)	(-1.014932e-05 8.776675e-03 1.186291e-05)	(-2.609100e-07 1.475218e-04 9.297715e-08)
2530.04       	(-1.987713e-05 8.925766e-03 2.394790e-06)	(-1.961581e-05 8.778180e-03 2.301983e-06)	(-2.613284e-07 1.475861e-04 9.280660e-08)
2530.04       	(-1.049179e-05 8.924833e-03 1.179355e-05)	(-1.023055e-05 8.777183e-03 1.170046e-05)	(-2.612404e-07 1.476501e-04 9.309576e-08)
2530.04       	(-1.959702e-05 8.926323e-03 2.651222e-06)	(-1.933540e-05 8.778609e-03 2.558276e-06)	(-2.616250e-07 1.477140e-04 9.294571e-08)
2530.04       	(-1.065510e-05 8.925340e-03 1.168380e-05)	(-1.039355e-05 8.777563e-03 1.159057e-05)	(-2.615533e-07 1.477776e-04 9.322561e-08)
2530.04       	(-1.933492e-05 8.926738e-03 2.924192e-06)	(-1.907299e-05 8.778897e-03 2.831105e-06)	(-2.619300e-07 1.478410e-04 9.308710e-08)
2530.04       	(-1.088392e-05 8.925794e-03 1.153882e-05)	(-1.062204e-05 8.777890e-03 1.144546e-05)	(-2.618706e-07 1.479041e-04 9.335750e-08)
2530.04       	(-1.917513e-05 8.927178e-03 3.175790e-06)	(-1.891289e-05 8.779211e-03 3.082562e-06)	(-2.622406e-07 1.479671e-04 9.322835e-08)
2530.04       	(-1.106397e-05 8.926262e-03 1.137452e-05)	(-1.080178e-05 8.778232e-03 1.128103e-05)	(-2.621907e-07 1.480299e-04 9.349002e-08)
2530.04       	(-1.885656e-05 8.927617e-03 3.469659e-06)	(-1.859401e-05 8.779525e-03 3.376284e-06)	(-2.625458e-07 1.480925e-04 9.337548e-08)
2530.04       	(-1.116319e-05 8.926721e-03 1.126501e-05)	(-1.090068e-05 8.778567e-03 1.117138e-05)	(-2.625074e-07 1.481548e-04 9.363112e-08)
2530.04       	(-1.863955e-05 8.928014e-03 3.708582e-06)	(-1.837670e-05 8.779797e-03 3.615051e-06)	(-2.628476e-07 1.482169e-04 9.353038e-08)
2530.04       	(-1.136372e-05 8.927132e-03 1.114574e-05)	(-1.110090e-05 8.778853e-03 1.105195e-05)	(-2.628189e-07 1.482788e-04 9.378102e-08)
2530.04       	(-1.846884e-05 8.928374e-03 3.923750e-06)	(-1.820569e-05 8.780034e-03 3.830059e-06)	(-2.631525e-07 1.483406e-04 9.369053e-08)
2530.04       	(-1.157430e-05 8.927495e-03 1.097606e-05)	(-1.131117e-05 8.779093e-03 1.088213e-05)	(-2.631292e-07 1.484021e-04 9.393377e-08)
2530.04       	(-1.834124e-05 8.928717e-03 4.053663e-06)	(-1.807778e-05 8.780254e-03 3.959815e-06)	(-2.634579e-07 1.484634e-04 9.384850e-08)
2530.04       	(-1.173278e-05 8.927864e-03 1.082743e-05)	(-1.146933e-05 8.779340e-03 1.073335e-05)	(-2.634491e-07 1.485245e-04 9.408185e-08)
2530.04       	(-1.825290e-05 8.929059e-03 4.161080e-06)	(-1.798913e-05 8.780473e-03 4.067077e-06)	(-2.637718e-07 1.485854e-04 9.400255e-08)
2530.04       	(-1.181991e-05 8.928224e-03 1.075112e-05)	(-1.155615e-05 8.779578e-03 1.065689e-05)	(-2.637622e-07 1.486461e-04 9.423349e-08)
2530.04       	(-1.816013e-05 8.929395e-03 4.261902e-06)	(-1.789606e-05 8.780688e-03 4.167740e-06)	(-2.640710e-07 1.487067e-04 9.416193e-08)
2530.04       	(-1.198182e-05 8.928578e-03 1.063952e-05)	(-1.171775e-05 8.779811e-03 1.054513e-05)	(-2.640663e-07 1.487670e-04 9.438790e-08)
2530.04       	(-1.811484e-05 8.929698e-03 4.356602e-06)	(-1.785047e-05 8.780870e-03 4.262280e-06)	(-2.643682e-07 1.488271e-04 9.432207e-08)
2530.04       	(-1.215433e-05 8.928918e-03 1.050858e-05)	(-1.188996e-05 8.780031e-03 1.041404e-05)	(-2.643750e-07 1.488870e-04 9.454274e-08)
2530.04       	(-1.793583e-05 8.929987e-03 4.563106e-06)	(-1.767116e-05 8.781041e-03 4.468620e-06)	(-2.646666e-07 1.489467e-04 9.448677e-08)
2530.04       	(-1.231899e-05 8.929246e-03 1.034437e-05)	(-1.205432e-05 8.780240e-03 1.024967e-05)	(-2.646793e-07 1.490063e-04 9.469923e-08)
2530.04       	(-1.776272e-05 8.930256e-03 4.729680e-06)	(-1.749776e-05 8.781190e-03 4.635030e-06)	(-2.649613e-07 1.490656e-04 9.465032e-08)
2530.04       	(-1.250839e-05 8.929549e-03 1.011783e-05)	(-1.224341e-05 8.780424e-03 1.002298e-05)	(-2.649821e-07 1.491248e-04 9.485157e-08)
2530.04       	(-1.764132e-05 8.930484e-03 4.842354e-06)	(-1.737607e-05 8.781301e-03 4.747546e-06)	(-2.652550e-07 1.491838e-04 9.480824e-08)
2530.04       	(-1.273074e-05 8.929797e-03 9.885534e-06)	(-1.246547e-05 8.780554e-03 9.790534e-06)	(-2.652753e-07 1.492425e-04 9.499962e-08)
2530.04       	(-1.743660e-05 8.930599e-03 5.044023e-06)	(-1.717109e-05 8.781298e-03 4.949056e-06)	(-2.655155e-07 1.493012e-04 9.496708e-08)
2530.04       	(-1.303295e-05 8.930077e-03 9.849996e-06)	(-1.276737e-05 8.780717e-03 9.754832e-06)	(-2.655793e-07 1.493596e-04 9.516401e-08)
2530.04       	(-1.731635e-05 8.931098e-03 5.380426e-06)	(-1.705050e-05 8.781680e-03 5.285276e-06)	(-2.658409e-07 1.494179e-04 9.514922e-08)
2530.05       	(-1.318331e-05 8.930701e-03 9.712922e-06)	(-1.291739e-05 8.781225e-03 9.617587e-06)	(-2.659159e-07 1.494759e-04 9.533530e-08)
2530.05       	(-1.705325e-05 8.931641e-03 5.573208e-06)	(-1.678708e-05 8.782107e-03 5.477886e-06)	(-2.661687e-07 1.495338e-04 9.532132e-08)
2530.05       	(-1.326338e-05 8.931170e-03 9.446804e-06)	(-1.299716e-05 8.781578e-03 9.351317e-06)	(-2.662246e-07 1.495915e-04 9.548642e-08)
2530.05       	(-1.681184e-05 8.931830e-03 5.823399e-06)	(-1.654538e-05 8.782182e-03 5.727917e-06)	(-2.664588e-07 1.496490e-04 9.548160e-08)
2530.05       	(-1.342676e-05 8.931451e-03 9.258588e-06)	(-1.316024e-05 8.781744e-03 9.162952e-06)	(-2.665176e-07 1.497063e-04 9.563670e-08)
2530.05       	(-1.656899e-05 8.932124e-03 6.026760e-06)	(-1.630226e-05 8.782361e-03 5.931119e-06)	(-2.667322e-07 1.497634e-04 9.564115e-08)
2530.05       	(-1.356272e-05 8.931891e-03 9.131200e-06)	(-1.329592e-05 8.782071e-03 9.035409e-06)	(-2.667945e-07 1.498203e-04 9.579105e-08)
2530.05       	(-1.629354e-05 8.932504e-03 6.365411e-06)	(-1.602655e-05 8.782627e-03 6.269598e-06)	(-2.669935e-07 1.498770e-04 9.581332e-08)
2530.05       	(-1.371337e-05 8.932272e-03 9.026211e-06)	(-1.344630e-05 8.782338e-03 8.930251e-06)	(-2.670659e-07 1.499336e-04 9.596022e-08)
2530.05       	(-1.613377e-05 8.932720e-03 6.592970e-06)	(-1.586651e-05 8.782730e-03 6.496975e-06)	(-2.672622e-07 1.499899e-04 9.599449e-08)
2530.05       	(-1.393821e-05 8.932466e-03 8.851576e-06)	(-1.367086e-05 8.782419e-03 8.755442e-06)	(-2.673451e-07 1.500461e-04 9.613399e-08)
2530.05       	(-1.600860e-05 8.932863e-03 6.761324e-06)	(-1.574107e-05 8.782761e-03 6.665149e-06)	(-2.675323e-07 1.501021e-04 9.617566e-08)
2530.05       	(-1.416120e-05 8.932677e-03 8.644228e-06)	(-1.389357e-05 8.782519e-03 8.547923e-06)	(-2.676276e-07 1.501579e-04 9.630528e-08)
2530.05       	(-1.587294e-05 8.933021e-03 6.924077e-06)	(-1.560513e-05 8.782807e-03 6.827724e-06)	(-2.678063e-07 1.502135e-04 9.635338e-08)
2530.05       	(-1.440649e-05 8.932877e-03 8.431055e-06)	(-1.413858e-05 8.782608e-03 8.334584e-06)	(-2.679128e-07 1.502690e-04 9.647115e-08)
2530.05       	(-1.577077e-05 8.933155e-03 7.069963e-06)	(-1.550268e-05 8.782831e-03 6.973438e-06)	(-2.680883e-07 1.503243e-04 9.652527e-08)
2530.05       	(-1.452772e-05 8.933047e-03 8.324164e-06)	(-1.425952e-05 8.782668e-03 8.227526e-06)	(-2.682018e-07 1.503794e-04 9.663790e-08)
2530.05       	(-1.556909e-05 8.933264e-03 7.269452e-06)	(-1.530072e-05 8.782829e-03 7.172749e-06)	(-2.683648e-07 1.504344e-04 9.670288e-08)
2530.05       	(-1.461694e-05 8.933179e-03 8.235547e-06)	(-1.434846e-05 8.782690e-03 8.138735e-06)	(-2.684823e-07 1.504891e-04 9.681211e-08)
2530.05       	(-1.539651e-05 8.933410e-03 7.464415e-06)	(-1.512787e-05 8.782866e-03 7.367526e-06)	(-2.686386e-07 1.505437e-04 9.688830e-08)
2530.05       	(-1.469856e-05 8.933485e-03 8.188606e-06)	(-1.442980e-05 8.782887e-03 8.091610e-06)	(-2.687557e-07 1.505981e-04 9.699602e-08)
2530.05       	(-1.530675e-05 8.933777e-03 7.586671e-06)	(-1.503785e-05 8.783124e-03 7.489595e-06)	(-2.689027e-07 1.506524e-04 9.707583e-08)
2530.05       	(-1.477727e-05 8.933826e-03 8.126997e-06)	(-1.450825e-05 8.783120e-03 8.029816e-06)	(-2.690204e-07 1.507065e-04 9.718057e-08)
2530.05       	(-1.521441e-05 8.934022e-03 7.695899e-06)	(-1.494525e-05 8.783261e-03 7.598634e-06)	(-2.691598e-07 1.507605e-04 9.726447e-08)
2530.05       	(-1.483532e-05 8.934068e-03 8.077152e-06)	(-1.456604e-05 8.783254e-03 7.979785e-06)	(-2.692789e-07 1.508142e-04 9.736661e-08)
2530.05       	(-1.511637e-05 8.934219e-03 7.772446e-06)	(-1.484696e-05 8.783351e-03 7.674992e-06)	(-2.694122e-07 1.508679e-04 9.745347e-08)
2530.05       	(-1.490538e-05 8.934341e-03 7.999757e-06)	(-1.463585e-05 8.783419e-03 7.902205e-06)	(-2.695339e-07 1.509213e-04 9.755229e-08)
2530.05       	(-1.515325e-05 8.934525e-03 7.767230e-06)	(-1.488359e-05 8.783551e-03 7.669591e-06)	(-2.696628e-07 1.509747e-04 9.763923e-08)
2530.05       	(-1.494478e-05 8.934625e-03 7.938002e-06)	(-1.467500e-05 8.783597e-03 7.840267e-06)	(-2.697821e-07 1.510278e-04 9.773514e-08)
2530.05       	(-1.510843e-05 8.934736e-03 7.786578e-06)	(-1.483852e-05 8.783655e-03 7.688756e-06)	(-2.699107e-07 1.510808e-04 9.782179e-08)
2530.05       	(-1.500379e-05 8.934805e-03 7.924913e-06)	(-1.473376e-05 8.783671e-03 7.826997e-06)	(-2.700321e-07 1.511337e-04 9.791636e-08)
2530.05       	(-1.509286e-05 8.934900e-03 7.884165e-06)	(-1.482270e-05 8.783714e-03 7.786155e-06)	(-2.701572e-07 1.511864e-04 9.801052e-08)
2530.05       	(-1.502127e-05 8.934966e-03 7.938212e-06)	(-1.475099e-05 8.783727e-03 7.840107e-06)	(-2.702780e-07 1.512390e-04 9.810487e-08)
2530.05       	(-1.508525e-05 8.935055e-03 7.890739e-06)	(-1.481484e-05 8.783764e-03 7.792542e-06)	(-2.704021e-07 1.512914e-04 9.819770e-08)
2530.05       	(-1.504447e-05 8.935127e-03 7.936570e-06)	(-1.477394e-05 8.783784e-03 7.838277e-06)	(-2.705267e-07 1.513437e-04 9.829246e-08)
2530.05       	(-1.505402e-05 8.935216e-03 7.919236e-06)	(-1.478337e-05 8.783820e-03 7.820850e-06)	(-2.706498e-07 1.513958e-04 9.838651e-08)
2530.05       	(-1.500284e-05 8.935288e-03 7.946208e-06)	(-1.473207e-05 8.783841e-03 7.847728e-06)	(-2.707708e-07 1.514477e-04 9.848047e-08)
2530.06       	(-1.500750e-05 8.935378e-03 7.934240e-06)	(-1.473661e-05 8.783879e-03 7.835665e-06)	(-2.708912e-07 1.514995e-04 9.857466e-08)
2530.06       	(-1.497679e-05 8.935455e-03 7.975703e-06)	(-1.470579e-05 8.783904e-03 7.877032e-06)	(-2.710069e-07 1.515512e-04 9.867033e-08)
2530.06       	(-1.501327e-05 8.935545e-03 7.973722e-06)	(-1.474214e-05 8.783942e-03 7.874956e-06)	(-2.711256e-07 1.516027e-04 9.876574e-08)