# Probe 0 (-1 0.395 0)
# Probe 1 (1 0.395 0)
#       Probe             0             1
#        Time
   0.00060006       784.177       777.828
   0.00132005       786.018       778.466
   0.00218415       788.004       779.391
    0.0032209         788.3       779.383
     0.004465        789.02       779.684
   0.00594977       789.638       779.953
   0.00771286       790.224       780.221
   0.00977314       790.741       780.478
    0.0121368       791.174       780.726
    0.0148015       791.514       780.955
    0.0177645       791.747       781.153
    0.0210793       791.911        781.33
    0.0248343       791.995       781.492
    0.0291096       791.932       781.628
     0.033988       791.818       781.718
    0.0395417       791.572       781.781
    0.0458253       791.252       781.852
    0.0529314       790.934       781.927
    0.0609771       790.614       781.943
    0.0701234       790.297       782.043
    0.0804991       789.991       782.228
    0.0923479       789.701       782.259
     0.105877       789.398       782.281
     0.121153       789.041       782.446
      0.13749       788.616       782.552
     0.152633       788.228        782.62
     0.166953       787.937       782.666
     0.180432       787.684       782.648
     0.193156       787.502       782.636
     0.204449       787.395       782.647
     0.214768       787.329       782.624
     0.224115        787.31       782.604
     0.232863       787.362       782.591
     0.241525       787.442        782.57
     0.250318       787.477       782.561
      0.25861       787.466       782.574
      0.26649        787.53       782.591
     0.274194       787.629       782.605
     0.281899       787.745        782.63
      0.28989       787.867       782.652
     0.298072       787.998       782.711
     0.306334       788.117       782.807
     0.315201       788.251        782.92
     0.324358       788.379       783.035
     0.333667       788.501       783.144
     0.343189       788.606       783.266
      0.35323       788.714       783.381
     0.363395       788.754       783.471
     0.373195       788.835       783.544
     0.382709       788.882       783.615
     0.392222        788.91       783.692
     0.401056       788.914        783.76
     0.410246       788.899       783.813
     0.419765       788.884       783.841
      0.42983        788.87       783.849
     0.440734       788.853       783.831
     0.452916       788.846       783.774
     0.466487       788.863       783.654
      0.48167       788.921       783.475
     0.496703       789.079       783.275
     0.511888       789.456       783.044
     0.527552       790.078       782.792
     0.544674       791.173       782.517
     0.562865       793.088       782.259
      0.58083       796.077       782.037
     0.599024        800.63       781.859
     0.617219       807.453       781.738
     0.635905       817.634       781.682
     0.655117       832.818       781.688
     0.674895       854.954       781.751
     0.695281       886.184       781.861
     0.716325        927.92       782.013
     0.738457       980.519       782.199
     0.760985       1039.97       782.403
     0.784363       1101.38       782.615
      0.80774       1156.63       782.809
     0.827286       1194.57       782.956
     0.849412       1221.51       783.111
     0.872424       1237.95       783.251
     0.894108       1243.54       783.371
     0.915375       1243.01       783.482
     0.936233       1239.86       783.589
     0.957092       1235.57       783.697
     0.978819       1231.61       783.809
      1.00055       1230.31       783.921
      1.02094       1231.73       784.022
      1.04052       1235.34       784.114
      1.05829       1239.67       784.191
      1.07511       1244.74       784.255
      1.09192       1252.03       784.311
      1.10844       1259.49       784.353
      1.12381       1265.92       784.386
      1.13794       1269.07       784.415
      1.15062       1268.06       784.438
      1.16225          1264        784.46
      1.17357        1261.6       784.481
      1.18474       1259.41       784.503
      1.19691       1266.81       784.531
      1.20872       1268.32       784.572
      1.22053       1272.27       784.628
      1.23199       1272.89       784.702
      1.24266       1269.79       784.793
      1.25333       1265.67       784.905
      1.26315       1255.44       785.034
      1.27162       1240.02       785.168
      1.27905       1227.96       785.304
      1.28555       1216.15       785.439
      1.29131       1207.96       785.571
      1.29648       1203.97       785.697
      1.30117       1201.74       785.821
      1.30543        1201.2       785.941
      1.30936        1201.3       786.057
      1.31301       1202.03       786.169
      1.31643       1203.33        786.28
      1.31965       1204.08       786.388
       1.3227       1205.38       786.495
      1.32561       1206.23       786.601
       1.3284       1207.41       786.707
      1.33107       1207.83       786.812
      1.33367        1207.7       786.916
      1.33617       1207.98       787.019
      1.33861       1208.42       787.122
      1.34099       1209.04       787.226
      1.34332       1209.81       787.331
       1.3456       1210.29       787.436
      1.34784       1211.08       787.542
      1.35005       1211.93       787.649
      1.35223       1212.24       787.757
      1.35438       1212.82       787.866
      1.35652       1213.57       787.977
      1.35863        1213.9       788.089
      1.36071       1214.15       788.203
      1.36279       1214.59       788.319
      1.36486        1214.8       788.437
      1.36691       1214.84       788.556
      1.36896       1215.06       788.677
      1.37101       1215.39       788.802
      1.37304       1215.79       788.929
      1.37508       1216.22       789.058
      1.37711       1217.05       789.188
      1.37915       1217.92       789.322
      1.38118       1218.74       789.458
      1.38323       1219.63       789.598
      1.38527       1220.58       789.741
      1.38733       1221.65       789.887
       1.3894       1222.52       790.037
      1.39148       1223.22       790.191
      1.39357       1223.95       790.348
      1.39567       1224.29        790.51
      1.39779       1224.82       790.675
      1.39993       1225.46       790.845
      1.40209       1226.17        791.02
      1.40426        1226.5       791.199
      1.40646       1227.18       791.385
      1.40868       1227.47       791.577
      1.41092       1227.76       791.773
      1.41319       1228.06       791.974
      1.41548       1228.32       792.184
      1.41781        1228.6         792.4
      1.42017       1228.83       792.623
      1.42255       1228.84       792.853
      1.42497       1228.87       793.091
      1.42743       1229.22       793.336
      1.42992       1229.51       793.589
      1.43245       1229.55       793.853
      1.43502        1229.5       794.126
      1.43762       1229.43       794.407
      1.44027       1229.18         794.7
      1.44297       1229.11       795.003
       1.4457       1228.81       795.318
      1.44847       1228.37       795.642
      1.45128       1228.13       795.979
      1.45414       1227.82       796.328
      1.45704       1227.37       796.688
      1.45998       1226.99       797.063
      1.46296       1226.61       797.451
      1.46598       1225.95        797.85
      1.46903       1225.38       798.262
       1.4721       1224.69       798.686
       1.4752       1224.03       799.124
      1.47833       1223.36       799.572
      1.48149       1222.73       800.035
      1.48461       1221.97       800.502
      1.48761       1221.23       800.963
      1.49051       1220.53       801.416
       1.4933       1219.86        801.86
      1.49603       1219.31       802.299
      1.49868       1218.68       802.732
      1.50128       1218.04       803.162
      1.50384       1217.45        803.59
      1.50635       1216.82       804.018
      1.50884        1216.2       804.445
      1.51129       1215.63        804.87
      1.51372       1215.08       805.297
      1.51614       1214.49       805.727
      1.51855       1213.91        806.16
      1.52094       1213.33       806.596
      1.52333       1212.76       807.035
      1.52571       1212.23       807.479
      1.52809       1211.71        807.93
      1.53048       1211.18       808.387
      1.53286       1210.53       808.849
      1.53524       1209.91       809.317
      1.53763       1209.37       809.791
      1.54002       1208.88       810.272
      1.54242       1208.33       810.761
      1.54483        1207.8       811.253
      1.54724       1207.27        811.75
      1.54966       1206.79       812.255
      1.55209       1206.23       812.769
      1.55454       1205.69       813.288
        1.557       1205.13       813.812
      1.55948       1204.59       814.344
      1.56196       1204.11       814.886
      1.56447       1203.61       815.436
      1.56698       1203.13       815.994
      1.56953       1202.51       816.564
      1.57209       1201.89       817.142
      1.57467        1201.4        817.73
      1.57727        1200.8       818.325
      1.57987       1200.23       818.928
       1.5825       1199.66        819.54
      1.58513       1199.13       820.157
      1.58777       1198.53       820.782
      1.59043       1198.01       821.414
      1.59309       1197.42       822.052
      1.59577       1196.84       822.699
      1.59844       1196.34        823.35
      1.60114        1195.7        824.01
      1.60383       1195.06       824.673
      1.60653       1194.43       825.341
      1.60924       1193.95       826.016
      1.61195       1193.33       826.694
      1.61467       1192.79       827.377
      1.61738        1192.3       828.064
       1.6201       1191.71       828.754
      1.62283       1191.07        829.45
      1.62556       1190.37       830.148
      1.62829       1189.83       830.849
      1.63103       1189.22       831.553
      1.63376       1188.67       832.258
      1.63649       1188.11       832.966
      1.63923       1187.59       833.675
      1.64198        1186.9        834.39
      1.64474       1186.27       835.106
      1.64749       1185.75       835.824
      1.65024       1185.18       836.543
        1.653        1184.6        837.26
      1.65575       1184.07       837.979
       1.6585       1183.52         838.7
      1.66126       1182.95       839.422
      1.66401       1182.37       840.141
      1.66677       1181.82       840.863
      1.66952       1181.26       841.583
      1.67225       1180.69       842.299
      1.67498        1180.2       843.016
      1.67771       1179.72       843.733
      1.68045       1179.21       844.449
      1.68318       1178.69       845.165
      1.68591       1178.25        845.88
      1.68862       1177.77        846.59
      1.69132       1177.23       847.302
      1.69403       1176.73       848.013
      1.69674       1176.27       848.723
      1.69945       1175.85       849.433
      1.70215       1175.43       850.143
      1.70484       1174.99       850.847
      1.70752       1174.59       851.555
       1.7102        1174.2       852.263
      1.71289       1173.76       852.972
      1.71557       1173.34       853.682
      1.71825       1172.94       854.393
      1.72094       1172.56       855.109
      1.72362       1172.21       855.826
       1.7263       1171.81       856.551
      1.72899       1171.44       857.281
      1.73167       1171.08       858.014
      1.73435       1170.77       858.755
      1.73704       1170.39       859.506
      1.73972       1170.05       860.266
       1.7424       1169.72       861.037
      1.74509       1169.42       861.818
      1.74777       1169.09       862.617
      1.75045       1168.79       863.434
      1.75314       1168.52        864.27
      1.75582       1168.21       865.129
      1.75853       1167.91       866.026
      1.76125       1167.62       866.937
      1.76396       1167.34       867.876
      1.76667       1167.13       868.844
      1.76939       1166.89       869.845
      1.77213       1166.62       870.899
      1.77488       1166.39       871.988
      1.77762       1166.18       873.126
      1.78037       1165.96       874.304
      1.78315       1165.78       875.564
      1.78593       1165.58        876.87
      1.78871       1165.41       878.235
      1.79149       1165.25       879.678
      1.79431        1165.1       881.231
      1.79712       1164.96       882.864
      1.79994       1164.83       884.588
      1.80276       1164.73       886.422
      1.80562       1164.64       888.396
      1.80848       1164.57       890.444
      1.81133       1164.51       892.618
      1.81419       1164.46       894.882
       1.8171       1164.42       897.324
         1.82       1164.44       899.879
       1.8229       1164.45       902.594
      1.82581       1164.48       905.482
      1.82871       1164.51       908.471
      1.83166       1164.56       911.698
      1.83462       1164.66       914.976
      1.83757       1164.78       918.352
      1.84052       1164.89       921.766
      1.84348       1165.04       925.215
      1.84643       1165.19       928.664
      1.84938       1165.38       932.154
      1.85239       1165.57       935.728
      1.85541        1165.8       939.144
      1.85842       1166.04       942.444
      1.86143        1166.3       945.579
      1.86444       1166.57       948.611
      1.86746       1166.85       951.638
      1.87047       1167.16       954.738
      1.87348       1167.48       957.727
      1.87649       1167.85       960.782
      1.87951       1168.21       963.895
      1.88252        1168.6       967.028
      1.88553       1168.98        969.94
      1.88854       1169.39       972.834
      1.89156        1169.8       975.144
      1.89457       1170.24       977.147
      1.89758        1170.7        979.07
      1.90059       1171.16       981.366
       1.9036       1171.64       983.591
      1.90662       1172.13       986.345
      1.90963       1172.64        989.16
      1.91264       1173.17       991.989
      1.91565        1173.7       995.551
      1.91867       1174.26       999.038
      1.92168       1174.82       1002.52
      1.92469        1175.4       1006.35
       1.9277          1176       1010.24
      1.93072       1176.61       1014.76
      1.93373       1177.24       1019.41
      1.93674       1177.88       1024.12
      1.93975       1178.55       1029.18
      1.94277       1179.22       1034.35
      1.94578       1179.91       1039.35
      1.94879       1180.64       1044.06
       1.9518       1181.38       1048.59
      1.95481       1182.15       1052.95
      1.95783       1182.94       1056.94
      1.96084       1183.73       1061.19
      1.96385       1184.55       1065.16
      1.96686       1185.39        1069.1
      1.96988       1186.25       1072.78
      1.97289       1187.12        1076.4
       1.9759       1188.01        1079.8
      1.97891       1188.91       1082.99
      1.98193       1189.84       1086.18
      1.98494       1190.77       1089.23
      1.98795       1191.71       1092.41
      1.99096       1192.68       1095.66
      1.99398       1193.65       1098.98
      1.99699       1194.63       1102.29
            2       1195.62       1105.71
      2.00287       1196.58        1108.3
      2.00573       1197.55       1111.58
      2.00859       1198.51        1114.9
      2.01144       1199.47       1117.98
      2.01429       1200.43       1121.17
      2.01713       1201.38       1124.41
      2.01997       1202.36       1127.61
       2.0228       1203.34       1130.89
      2.02563        1204.3       1134.15
      2.02846       1205.27        1137.6
      2.03127       1206.24        1140.8
      2.03409       1207.21       1143.84
      2.03689       1208.18       1147.01
      2.03969       1209.15       1150.33
      2.04249       1210.12        1153.5
      2.04528       1211.08       1156.61
      2.04806       1212.04       1159.58
      2.05084       1212.99       1162.53
      2.05361       1213.95       1165.56
      2.05638        1214.9       1168.49
      2.05914       1215.85       1171.32
      2.06189        1216.8       1174.14
      2.06464       1217.74       1176.85
      2.06738       1218.68       1179.58
      2.07011       1219.62       1182.23
      2.07284       1220.56       1184.89
      2.07556       1221.49       1187.38
      2.07827       1222.42       1189.76
      2.08097       1223.36       1192.34
      2.08366       1224.28       1194.72
      2.08635        1225.2        1197.2
      2.08903       1226.12       1199.58
      2.09171       1227.04       1201.84
      2.09437       1227.95       1203.92
      2.09703       1228.87       1206.07
      2.09968       1229.77       1208.37
      2.10232       1230.68       1210.35
      2.10496       1231.58       1212.48
      2.10758       1232.48       1214.52
       2.1102       1233.38       1216.53
      2.11281       1234.27       1218.36
      2.11541       1235.16       1220.27
      2.11801       1236.05       1222.24
      2.12059       1236.94       1224.07
      2.12316       1237.82       1225.99
      2.12573        1238.7       1227.74
      2.12829       1239.58       1229.55
      2.13084       1240.46       1231.37
      2.13339       1241.33       1233.19
      2.13592        1242.2       1234.94
      2.13845       1243.07       1236.69
      2.14097       1243.93       1238.44
      2.14348       1244.79        1240.2
      2.14598       1245.64       1241.94
      2.14847        1246.5       1243.63
      2.15096       1247.34       1245.37
      2.15344       1248.18       1247.07
      2.15591       1249.02       1248.82
      2.15837       1249.85       1250.55
      2.16082       1250.68       1252.11
      2.16327       1251.51       1253.76
      2.16571       1252.34       1255.45
      2.16814       1253.16       1257.05
      2.17056       1253.98       1258.62
      2.17298       1254.79       1260.35
      2.17539       1255.58       1261.86
      2.17779       1256.37       1263.39
      2.18018       1257.16       1265.04
      2.18257       1257.94       1266.57
      2.18495       1258.72       1268.12
      2.18732        1259.5       1269.72
      2.18968       1260.27       1271.14
      2.19204       1261.02       1272.61
      2.19439       1261.78       1274.17
      2.19673       1262.52       1275.62
      2.19907       1263.27       1277.04
       2.2014          1264       1278.51
      2.20372       1264.73        1279.9
      2.20603       1265.46       1281.36
      2.20834       1266.18       1282.77
      2.21065       1266.89       1284.15
      2.21294       1267.59       1285.51
      2.21523        1268.3       1286.78
      2.21751       1268.99       1288.05
      2.21979       1269.68        1289.4
      2.22206       1270.37       1290.61
      2.22432       1271.04        1291.9
      2.22658       1271.72       1293.19
      2.22883       1272.38       1294.43
      2.23108       1273.04       1295.64
      2.23332        1273.7       1296.86
      2.23556       1274.35       1298.03
      2.23779       1274.99       1299.19
      2.24001       1275.63        1300.4
      2.24223       1276.27       1301.54
      2.24444       1276.88       1302.67
      2.24665        1277.5       1303.78
      2.24886       1278.13       1304.89
      2.25106       1278.72       1306.03
      2.25326       1279.33       1307.09
      2.25545       1279.92        1308.2
      2.25764       1280.52        1309.3
      2.25982        1281.1       1310.33
      2.26201       1281.68       1311.36
      2.26418       1282.25       1312.33
      2.26636       1282.82       1313.33
      2.26853       1283.39       1314.28
       2.2707       1283.95       1315.24
      2.27287       1284.49       1316.21
      2.27503       1285.03       1317.17
      2.27719       1285.58       1318.07
      2.27935       1286.12       1318.97
      2.28151       1286.64       1319.92
      2.28366       1287.16        1320.8
      2.28581       1287.67       1321.61
      2.28796       1288.18       1322.43
      2.29011       1288.68       1323.21
      2.29226       1289.18       1324.03
      2.29441       1289.67       1324.84
      2.29655       1290.15        1325.6
       2.2987       1290.63       1326.35
      2.30084       1291.09       1327.08
      2.30299       1291.56        1327.8
      2.30514       1292.01       1328.47
      2.30728       1292.46       1329.19
      2.30943        1292.9       1329.85
      2.31157       1293.33        1330.5
      2.31372       1293.76       1331.14
      2.31587       1294.17       1331.77
      2.31802       1294.58       1332.33
      2.32017       1294.99       1332.94
      2.32233       1295.38       1333.52
      2.32448       1295.76       1334.08
      2.32664       1296.13       1334.65
       2.3288        1296.5       1335.18
      2.33096       1296.85       1335.71
      2.33312       1297.21        1336.2
      2.33529       1297.57       1336.72
      2.33746        1297.9        1337.2
      2.33964       1298.23       1337.66
      2.34181       1298.54       1338.11
      2.34399       1298.84       1338.56
      2.34618       1299.15       1339.02
      2.34836       1299.44       1339.47
      2.35055       1299.73        1339.9
      2.35275          1300       1340.32
      2.35494       1300.25       1340.72
      2.35715       1300.53       1341.16
      2.35935       1300.79       1341.55
      2.36156       1301.03        1341.9
      2.36377       1301.27       1342.24
      2.36598       1301.51       1342.63
       2.3682       1301.73       1342.97
      2.37042       1301.96       1343.33
      2.37264       1302.17       1343.66
      2.37487       1302.39          1344
       2.3771       1302.59       1344.31
      2.37933       1302.79       1344.63
      2.38157          1303       1344.95
      2.38381        1303.2       1345.24
      2.38604       1303.36       1345.53
      2.38829       1303.52       1345.83
      2.39053       1303.68       1346.09
      2.39278       1303.84       1346.37
      2.39502       1304.02       1346.61
      2.39727        1304.2       1346.84
      2.39952       1304.36       1347.09
      2.40177       1304.51       1347.32
      2.40402       1304.66       1347.58
      2.40628        1304.8       1347.79
      2.40853       1304.96       1348.01
      2.41078       1305.08        1348.2
      2.41304       1305.21       1348.38
      2.41529       1305.34       1348.55
      2.41755       1305.47       1348.71
       2.4198       1305.57       1348.88
      2.42205       1305.68       1349.02
      2.42431        1305.8       1349.17
      2.42656       1305.92       1349.28
      2.42881       1306.04        1349.4
      2.43106       1306.14       1349.48
      2.43331       1306.21       1349.56
      2.43556       1306.29       1349.63
      2.43781       1306.37       1349.65
      2.44006       1306.44       1349.67
       2.4423       1306.51       1349.68
      2.44455       1306.59       1349.67
      2.44679       1306.65       1349.67
      2.44903       1306.68       1349.63
      2.45127       1306.74        1349.6
      2.45351        1306.8       1349.55
      2.45575       1306.84       1349.49
      2.45798       1306.91       1349.41
      2.46022       1306.95       1349.32
      2.46245       1306.94       1349.24
      2.46468       1306.98       1349.12
      2.46691          1307       1349.02
      2.46914          1307        1348.9
      2.47136       1307.03       1348.76
      2.47358       1307.03       1348.66
      2.47581       1307.04       1348.55
      2.47803       1307.02       1348.43
      2.48024       1306.99       1348.28
      2.48246       1306.97       1348.13
      2.48467       1306.95          1348
      2.48688       1306.91       1347.84
      2.48908       1306.89        1347.7
      2.49129       1306.84       1347.58
      2.49349       1306.83       1347.44
      2.49569       1306.78       1347.31
      2.49788       1306.72       1347.18
      2.50008       1306.65       1347.06
      2.50227       1306.59       1346.96
      2.50445       1306.52       1346.85
      2.50664       1306.42       1346.74
      2.50882       1306.33       1346.64
      2.51099       1306.24       1346.54
      2.51317       1306.14       1346.46
      2.51534       1306.03       1346.38
       2.5175       1305.95       1346.33
      2.51966       1305.88       1346.25
      2.52182       1305.81        1346.2
      2.52397        1305.6       1346.16
      2.52613       1305.49       1346.12
      2.52828        1305.4       1346.09
      2.53042       1305.29       1346.08
      2.53256       1305.16       1346.08
       2.5347       1305.01       1346.07
      2.53683       1304.88       1346.07
      2.53896       1304.74       1346.07
      2.54109       1304.61       1346.08
      2.54321       1304.45       1346.11
      2.54533       1304.32       1346.13
      2.54744       1304.18       1346.16
      2.54955       1304.04        1346.2
      2.55166       1303.91       1346.25
      2.55377       1303.76       1346.31
      2.55586       1303.62       1346.37
      2.55796       1303.49       1346.43
      2.56005       1303.35       1346.44
      2.56214       1303.18       1346.57
      2.56423       1303.01       1346.62
      2.56631       1302.86        1346.7
      2.56839       1302.69        1346.8
      2.57047       1302.55       1346.86
      2.57254       1302.38       1346.97
      2.57461       1302.24       1347.06
      2.57667       1302.09       1347.14
      2.57874       1301.94       1347.23
       2.5808       1301.79       1347.33
      2.58285       1301.61       1347.42
      2.58491       1301.44        1347.5
      2.58696       1301.28       1347.59
        2.589       1301.13       1347.67
      2.59105       1300.97       1347.74
      2.59309       1300.79       1347.82
      2.59513       1300.61       1347.88
      2.59717       1300.46       1347.95
       2.5992       1300.31       1348.02
      2.60123       1300.15       1348.07
      2.60326          1300       1348.12
      2.60528       1299.83       1348.16
       2.6073       1299.65       1348.18
      2.60932       1299.48        1348.2
      2.61134        1299.3       1348.22
      2.61335       1299.14       1348.23
      2.61536       1298.98       1348.22
      2.61737        1298.8       1348.21
      2.61937       1298.62       1348.19
      2.62137       1298.45       1348.14
      2.62337       1298.27        1348.1
      2.62536       1298.11       1348.05
      2.62736       1297.93       1347.99
      2.62935       1297.75       1347.91
      2.63134       1297.57       1347.83
      2.63333       1297.39       1347.73
      2.63531       1297.19       1347.61
      2.63729       1296.99       1347.47
      2.63927        1296.8       1347.35
      2.64124       1296.59       1347.22
      2.64322        1296.4       1347.06
      2.64519        1296.2       1346.88
      2.64716       1295.98       1346.69
      2.64913       1295.79       1346.51
      2.65109       1295.57       1346.29
      2.65305       1295.36       1346.08
      2.65501       1295.15       1345.86
      2.65697       1294.94       1345.61
      2.65892       1294.73       1345.35
      2.66087       1294.52       1345.09
      2.66282        1294.3       1344.79
      2.66477       1294.08        1344.5
      2.66671       1293.84       1344.21
      2.66865       1293.61       1343.95
      2.67059       1293.37       1343.63
      2.67253       1293.13       1343.31
      2.67447       1292.89       1342.95
       2.6764       1292.66       1342.62
      2.67833       1292.41       1342.28
      2.68025       1292.16       1341.93
      2.68218       1291.93       1341.58
       2.6841       1291.67       1341.22
      2.68602       1291.42       1340.84
      2.68794       1291.15        1340.5
      2.68985        1290.9       1340.11
      2.69176       1290.65        1339.7
      2.69367       1290.39       1339.31
      2.69558       1290.12       1338.92
      2.69749       1289.85       1338.54
      2.69939       1289.59       1338.14
      2.70129       1289.33       1337.74
      2.70318       1289.06       1337.35
      2.70508       1288.78       1336.95
      2.70697       1288.51       1336.57
      2.70886       1288.23       1336.21
      2.71075       1287.96       1335.77
      2.71263       1287.68       1335.36
      2.71452        1287.4       1334.97
      2.71639       1287.12       1334.58
      2.71827       1286.83       1334.18
      2.72015       1286.52        1333.8
      2.72202       1286.21       1333.42
       2.7239       1285.93       1333.01
      2.72576       1285.64       1332.63
      2.72763       1285.34       1332.21
       2.7295       1285.04       1331.81
      2.73136       1284.74       1331.46
      2.73322       1284.44       1331.12
      2.73508       1284.14       1330.81
      2.73694       1283.85       1330.39
      2.73879       1283.55       1330.11
      2.74065       1283.24       1329.69
       2.7425       1282.94       1329.44
      2.74435       1282.64        1329.1
       2.7462       1282.34       1328.78
      2.74805       1282.02       1328.48
      2.74989       1281.72       1328.18
      2.75174        1281.4       1327.91
      2.75358        1281.1       1327.65
      2.75543       1280.79        1327.4
      2.75727       1280.48       1327.16
      2.75911       1280.17       1326.92