# k  POINT_DATA 28416
# x  y  z  k
0 1.74033e-09 0.049924 2.83938e-06
0 0.000625001 0.049924 2.8407e-06
1.03398e-25 -0.000625 0.049924 2.83802e-06
0 0.00125 0.049924 2.8421e-06
0 -0.00125001 0.049924 2.83684e-06
0 0.001875 0.049924 2.84368e-06
0 -0.00187501 0.049924 2.83602e-06
0 0.0025 0.049924 2.84545e-06
1.03398e-25 -0.00250001 0.049924 2.83511e-06
1.03398e-25 -0.00261167 0.049924 2.83497e-06
0 -0.003125 0.049924 2.83431e-06
0 0.003125 0.049924 2.84724e-06
-8.27181e-25 -0.00374999 0.049924 2.83362e-06
4.1359e-25 0.00375 0.049924 2.84911e-06
8.27181e-25 -0.00437499 0.049924 2.83312e-06
0 0.004375 0.049924 2.85111e-06
-2.71051e-20 -0.000312501 0.0501277 2.83875e-06
-2.71051e-20 0.0003125 0.0501277 2.84001e-06
-5.42101e-20 -0.000937503 0.0501277 2.83729e-06
2.71051e-20 0.0009375 0.0501277 2.84139e-06
-2.71051e-20 0.0015625 0.0501277 2.84282e-06
0 -0.0015625 0.0501277 2.83638e-06
0 -0.00499999 0.049924 2.83271e-06
0 0.005 0.049924 2.85327e-06
0 0.0021875 0.0501277 2.84455e-06
-5.42101e-20 -0.0021875 0.0501277 2.83566e-06
2.71051e-20 0.0028125 0.0501277 2.84635e-06
0 -0.0028125 0.0501277 2.83457e-06
-5.16988e-26 -0.0025 0.0501667 7.12169e-06
8.27181e-25 -0.00562499 0.049924 2.83231e-06
0 0.005625 0.049924 2.85548e-06
2.71051e-20 0.0034375 0.0501277 2.84814e-06
2.71051e-20 -0.0034375 0.0501277 2.83405e-06
2.58494e-26 -0.000625002 0.0502651 8.86943e-06
-5.16988e-26 -0.00125 0.0502597 8.77182e-06
-2.71051e-20 -0.0040625 0.0501277 2.83319e-06
2.71051e-20 0.0040625 0.0501277 2.85008e-06
0 -0.001875 0.050261 8.79088e-06
6.46235e-27 -4.38462e-10 0.0503134 9.72822e-06
8.27181e-25 -0.00624999 0.049924 2.83203e-06
-8.27181e-25 0.00625 0.049924 2.85775e-06
6.46235e-27 -4.446e-10 0.0503316 1.00496e-05
0 0.000343303 0.0503316 1.00513e-05
-2.58494e-26 -0.000625002 0.0503316 1.00444e-05
1.09995e-20 0.000625 0.0503316 1.00528e-05
0 -0.0046875 0.0501277 2.83305e-06
0 0.0046875 0.0501277 2.85213e-06
-2.58494e-26 -0.00125 0.0503316 1.00432e-05
5.5006e-21 0.00125 0.0503316 1.00567e-05
7.28979e-21 0.001875 0.0503316 1.006e-05
-2.58494e-26 -0.001875 0.0503316 1.00379e-05
-1.04463e-20 0.0025 0.0503316 1.00641e-05
0 -0.0025 0.0503316 1.00352e-05
0 -0.00687499 0.049924 2.8319e-06
0 0.006875 0.049924 2.86011e-06
0 -0.0053125 0.0501277 2.83237e-06
0 0.0053125 0.0501277 2.85441e-06
0 -0.003125 0.0503316 1.00315e-05
1.2793e-20 0.003125 0.0503316 1.0069e-05
0 -0.00375 0.0503316 1.00287e-05
-2.02748e-20 0.00375 0.0503316 1.00737e-05
2.71051e-20 -0.0059375 0.0501277 2.83225e-06
-2.71051e-20 0.0059375 0.0501277 2.85654e-06
0 -0.00749999 0.049924 2.83175e-06
0 0.0075 0.049924 2.86263e-06
3.23117e-27 0.000625 0.0505074 3.81997e-05
2.06795e-25 -0.004375 0.0503316 1.00257e-05
-1.21631e-20 0.004375 0.0503316 1.00783e-05
-2.71051e-20 -0.0065625 0.0501277 2.83181e-06
-2.71051e-20 0.0065625 0.0501277 2.85896e-06
-2.71051e-20 -0.000312501 0.0505593 1.742e-05
-2.71051e-20 0.0003125 0.0505593 1.74384e-05
0 0.0009375 0.0505593 1.74303e-05
2.71051e-20 -0.000937501 0.0505593 1.74202e-05
2.06795e-25 -0.005 0.0503316 1.00231e-05
4.8419e-21 0.005 0.0503316 1.0083e-05
-8.27181e-25 -0.00812499 0.049924 2.83159e-06
0 0.008125 0.049924 2.86519e-06
0 0.0015625 0.0505593 1.74513e-05
0 -0.0015625 0.0505593 1.74175e-05
0 0.0021875 0.0505593 1.74403e-05
0 -0.0021875 0.0505593 1.74006e-05
2.71051e-20 0.0028125 0.0505593 1.74643e-05
2.71051e-20 -0.0028125 0.0505593 1.74082e-05
2.71051e-20 -0.0071875 0.0501277 2.83198e-06
0 0.0071875 0.0501277 2.86127e-06
0 -0.005625 0.0503316 1.00212e-05
-3.26769e-20 0.005625 0.0503316 1.00887e-05
4.1359e-25 0.00851661 0.049924 2.86681e-06
-5.42101e-20 -0.0034375 0.0505593 1.73876e-05
-2.71051e-20 0.0034375 0.0505593 1.74564e-05
-3.23117e-27 -0.00875 0.049924 2.83162e-06
0 0.00875 0.049924 2.86777e-06
3.23117e-27 -0.00875 0.0499347 3.0193e-06
0 -0.00625 0.0503316 1.00197e-05
-1.01696e-20 0.00625 0.0503316 1.00945e-05
0 -0.0040625 0.0505593 1.73981e-05
0 0.0040625 0.0505593 1.74798e-05
5.42101e-20 -0.0078125 0.0501277 2.83153e-06
5.42101e-20 0.0078125 0.0501277 2.864e-06
1.61559e-27 0.00125 0.0507534 7.76239e-05
5.42101e-20 -0.0046875 0.0505593 1.73763e-05
2.71051e-20 0.0046875 0.0505593 1.74706e-05
0 -7.73605e-10 0.0507876 8.30454e-05
-2.58494e-26 -0.000625001 0.0507876 8.30046e-05
1.29247e-26 0.000625 0.0507876 8.30688e-05
-4.1359e-25 0.009375 0.049924 2.87046e-06
0 -0.009375 0.049924 2.83189e-06
-2.06795e-25 -0.006875 0.0503316 1.00184e-05
1.55818e-20 0.006875 0.0503316 1.01001e-05
-1.29247e-26 -0.00939015 0.049924 2.83191e-06
0 -0.00125 0.0507876 8.29992e-05
0 0.00125 0.0507876 8.3096e-05
0 0.00132027 0.0507876 8.30983e-05
0 -0.001875 0.0507876 8.29579e-05
2.05913e-20 0.001875 0.0507876 8.31168e-05
0 -0.0084375 0.0501277 2.83164e-06
0 0.0084375 0.0501277 2.86638e-06
-1.29247e-26 -0.009375 0.0499636 3.52964e-06
0 -0.0053125 0.0505593 1.73884e-05
-5.42101e-20 0.0053125 0.0505593 1.74945e-05
0 -0.0025 0.0507876 8.29362e-05
2.11114e-20 0.0025 0.0507876 8.31449e-05
-1.03398e-25 -0.003125 0.0507876 8.29086e-05
6.63864e-22 0.003125 0.0507876 8.31802e-05
1.67095e-20 -0.0075 0.0503316 1.00165e-05
-9.71668e-21 0.0075 0.0503316 1.01059e-05
-2.71051e-20 -0.0059375 0.0505593 1.73695e-05
2.71051e-20 0.0059375 0.0505593 1.74893e-05
8.27181e-25 -0.00999999 0.049924 2.83239e-06
0 0.01 0.049924 2.87328e-06
0 -0.00375 0.0507876 8.2885e-05
-8.44065e-21 0.00375 0.0507876 8.32133e-05
-2.71051e-20 -0.0090625 0.0501277 2.83159e-06
0 0.0090625 0.0501277 2.86916e-06
0 -0.004375 0.0507876 8.28591e-05
1.95039e-21 0.004375 0.0507876 8.32422e-05
4.28707e-21 -0.008125 0.0503316 1.00149e-05
2.8615e-20 0.008125 0.0503316 1.01125e-05
0 -0.0065625 0.0505593 1.73831e-05
-5.42101e-20 0.0065625 0.0505593 1.75133e-05
-2.06795e-25 0.0103586 0.049924 2.87493e-06
0 -0.005 0.0507876 8.28367e-05
8.91297e-21 0.005 0.0507876 8.32719e-05
-8.27181e-25 -0.010625 0.049924 2.8329e-06
0 0.010625 0.049924 2.87616e-06
2.71051e-20 0.0003125 0.0510506 0.000151051
0 -0.000312501 0.0510506 0.00015091
-5.42101e-20 -0.0096875 0.0501277 2.83219e-06
-2.71051e-20 0.0096875 0.0501277 2.87175e-06
0 0.0009375 0.0510506 0.000150995
-2.71051e-20 -0.0009375 0.0510506 0.000150904
0 -0.0071875 0.0505593 1.73644e-05
-2.71051e-20 0.0071875 0.0505593 1.75069e-05
1.29247e-26 0.00867162 0.0503316 1.0118e-05
2.71051e-20 -0.0015625 0.0510506 0.000150891
-2.71051e-20 0.0015625 0.0510506 0.000151147
0 -0.00875 0.0503316 1.00133e-05
-1.29247e-26 0.00875 0.0503316 1.01187e-05
-2.71051e-20 -0.0021875 0.0510506 0.000150756
0 0.0021875 0.0510506 0.000151069
1.03398e-25 -0.005625 0.0507876 8.2821e-05
1.62079e-20 0.005625 0.0507876 8.33108e-05
0 -0.0028125 0.0510506 0.000150812
0 0.0028125 0.0510506 0.000151248
8.13152e-20 0.0078125 0.0505593 1.75318e-05
0 -0.0078125 0.0505593 1.73757e-05
5.42101e-20 0.0034375 0.0510506 0.000151196
5.42101e-20 -0.0034375 0.0510506 0.000150657
0 -0.00625 0.0507876 8.28092e-05
-1.97695e-20 0.00625 0.0507876 8.33512e-05
0 -0.01125 0.049924 2.83356e-06
0 0.01125 0.049924 2.87912e-06
-2.71051e-20 -0.0103125 0.0501277 2.83258e-06
0 0.0103125 0.0501277 2.8748e-06
0 -0.009375 0.0503316 1.00117e-05
-5.16988e-26 0.009375 0.0503316 1.01246e-05
0 0.0040625 0.0510506 0.000151367
0 -0.0040625 0.0510506 0.000150727
-1.03398e-25 -0.006875 0.0507876 8.27994e-05
-6.27334e-21 0.006875 0.0507876 8.33892e-05
-5.42101e-20 0.0084375 0.0505593 1.75285e-05
2.71051e-20 -0.0084375 0.0505593 1.73582e-05
0 -0.0046875 0.0510506 0.000150563
2.71051e-20 0.0046875 0.0510506 0.000151299
0 -0.0109375 0.0501277 2.83321e-06
-5.42101e-20 0.0109375 0.0501277 2.87751e-06
0 -4.74558e-10 0.0513142 0.000226496
0 -0.01 0.0503316 1.00105e-05
0 0.01 0.0503316 1.01304e-05
0 -0.011875 0.049924 2.83435e-06
4.1359e-25 0.011875 0.049924 2.88215e-06
-1.29247e-26 -0.000625001 0.0513142 0.000226461
-6.46235e-27 0.000625 0.0513142 0.000226516
2.71051e-20 -0.0053125 0.0510506 0.000150646
-2.71051e-20 0.0053125 0.0510506 0.000151472
0 -0.00125 0.0513142 0.000226439
0 0.00125 0.0513142 0.00022653
-1.31677e-20 -0.0075 0.0507876 8.27844e-05
5.47919e-21 0.0075 0.0507876 8.34299e-05
0 0.00167842 0.0513142 0.000226548
2.58494e-26 -0.001875 0.0513142 0.000226409
-3.12329e-20 0.001875 0.0513142 0.000226557
-2.71051e-20 0.0090625 0.0505593 1.75516e-05
5.42101e-20 -0.0090625 0.0505593 1.73693e-05
-2.58494e-26 -0.0025 0.0513142 0.000226384
3.01122e-20 0.0025 0.0513142 0.000226596
2.58494e-26 0.0103628 0.0503316 1.01344e-05
-2.71051e-20 0.0059375 0.0510506 0.000151438
0 -0.0059375 0.0510506 0.000150506
0 -0.003125 0.0513142 0.000226361
-1.44569e-20 0.003125 0.0513142 0.00022664
-2.06795e-25 0.0123678 0.049924 2.88461e-06
1.54215e-20 -0.008125 0.0507876 8.27716e-05
1.36061e-20 0.008125 0.0507876 8.34764e-05
0 -0.010625 0.0503316 1.00102e-05
-2.58494e-26 0.010625 0.0503316 1.01373e-05
-2.71051e-20 -0.0115625 0.0501277 2.8339e-06
0 0.0115625 0.0501277 2.88073e-06
-2.58494e-26 -0.00375 0.0513142 0.000226332
-6.83654e-21 0.00375 0.0513142 0.000226672
0 0.00875 0.0507026 6.98307e-05
-4.1359e-25 -0.0125 0.049924 2.83532e-06
0 0.0125 0.049924 2.88527e-06
-5.42101e-20 0.0065625 0.0510506 0.000151617
0 -0.0065625 0.0510506 0.000150603
-2.71051e-20 0.0096875 0.0505593 1.75468e-05
-5.42101e-20 -0.0096875 0.0505593 1.7351e-05
-2.58494e-26 -0.004375 0.0513142 0.000226326
3.56784e-21 0.004375 0.0513142 0.000226709
1.03398e-25 0.0126555 0.049924 2.88607e-06
0 -0.00875 0.0507876 8.27561e-05
0 0.00875 0.0507876 8.35183e-05
-2.71051e-20 0.0071875 0.0510506 0.000151575
-2.71051e-20 -0.0071875 0.0510506 0.000150471
6.46235e-27 0.00887143 0.0507876 8.35257e-05
-2.58494e-26 -0.005 0.0513142 0.00022632
1.17452e-20 0.005 0.0513142 0.000226753
-1.62185e-20 -0.01125 0.0503316 1.001e-05
-4.96484e-21 0.01125 0.0503316 1.01447e-05
0 -0.0121875 0.0501277 2.8348e-06
0 0.0121875 0.0501277 2.88357e-06
2.71051e-20 0.0103125 0.0505593 1.75694e-05
5.42101e-20 -0.0103125 0.0505593 1.73634e-05
0 -0.0003125 0.0516082 0.000304458
0 0.0003125 0.0516082 0.000304401
2.71051e-20 0.0009375 0.0516082 0.000304452
-2.71051e-20 -0.0009375 0.0516082 0.00030441
-4.1359e-25 -0.013125 0.049924 2.83634e-06
0 0.013125 0.049924 2.88848e-06
5.16988e-26 -0.005625 0.0513142 0.000226305
-2.12278e-20 0.005625 0.0513142 0.000226802
2.71051e-20 -0.0015625 0.0516082 0.000304389
-2.71051e-20 0.0015625 0.0516082 0.000304355
0 -0.0078125 0.0510506 0.00015055
0 0.0078125 0.0510506 0.000151764
0 -0.009375 0.0507876 8.27361e-05
0 0.009375 0.0507876 8.35563e-05
0 0.0021875 0.0516082 0.000304487
-2.71051e-20 -0.0021875 0.0516082 0.000304442
2.71051e-20 0.0028125 0.0516082 0.00030441
2.71051e-20 -0.0028125 0.0516082 0.000304365
0 -0.00625 0.0513142 0.000226291
-4.33186e-20 0.00625 0.0513142 0.000226845
-2.06795e-25 -0.011875 0.0503316 1.00096e-05
-1.59086e-20 0.011875 0.0503316 1.01515e-05
5.16988e-26 0.0125 0.0501882 7.59848e-06
2.71051e-20 0.0034375 0.0516082 0.000304532
-2.71051e-20 -0.0034375 0.0516082 0.000304452
-1.03398e-25 0.0135215 0.049924 2.89059e-06
0 0.0109375 0.0505593 1.75688e-05
-2.71051e-20 -0.0109375 0.0505593 1.73489e-05
2.71051e-20 -0.0128125 0.0501277 2.83583e-06
-2.71051e-20 0.0128125 0.0501277 2.88698e-06
0 -0.0084375 0.0510506 0.000150426
0 0.0084375 0.0510506 0.000151742
0 -0.01 0.0507876 8.27186e-05
0 0.01 0.0507876 8.35932e-05
0 0.0040625 0.0516082 0.000304418
0 -0.0040625 0.0516082 0.000304334
-5.16988e-26 -0.006875 0.0513142 0.000226283
-2.22641e-20 0.006875 0.0513142 0.000226891
4.1359e-25 -0.01375 0.049924 2.83756e-06
0 0.01375 0.049924 2.8918e-06
-6.46235e-27 0.0102601 0.0507876 8.36128e-05
0 0.0046875 0.0516082 0.000304577
0 -0.0046875 0.0516082 0.000304527
-2.71051e-20 -0.0090625 0.0510506 0.000150493
-2.71051e-20 0.0090625 0.0510506 0.000151914
0 -0.0075 0.0513142 0.000226273
-3.92569e-20 0.0075 0.0513142 0.000226936
0 -0.0125 0.0503316 1.00092e-05
-1.6523e-20 0.0125 0.0503316 1.01578e-05
2.71051e-20 0.0115625 0.0505593 1.7593e-05
-2.71051e-20 -0.0115625 0.0505593 1.73612e-05
0 0.001875 0.0518452 0.000297444
-2.71051e-20 0.0053125 0.0516082 0.000304488
0 -0.0053125 0.0516082 0.000304392
0 -0.010625 0.0507876 8.27096e-05
-1.30433e-20 0.010625 0.0507876 8.36403e-05
2.71051e-20 0.0134375 0.0501277 2.88998e-06
0 -0.0134375 0.0501277 2.83684e-06
0 -1.7844e-10 0.0519027 0.000305136
0 -0.000625 0.0519027 0.00030513
0 0.000625 0.0519027 0.000305134
0 -0.00125 0.0519027 0.000305097
-3.23117e-27 0.00125 0.0519027 0.000305111
0 -0.001875 0.0519027 0.000305117
0 0.001875 0.0519027 0.000305125
4.03897e-28 0.00192366 0.0519027 0.000305127
0 -0.0059375 0.0516082 0.000304526
2.71051e-20 0.0059375 0.0516082 0.000304632
-4.1359e-25 -0.014375 0.049924 2.83895e-06
0 0.014375 0.049924 2.89521e-06
0 -0.008125 0.0513142 0.000226276
1.19982e-20 0.008125 0.0513142 0.000226985
2.71051e-20 -0.0096875 0.0510506 0.000150352
-2.71051e-20 0.0096875 0.0510506 0.000151878
-6.46235e-27 -0.0025 0.0519027 0.000305117
0 0.0025 0.0519027 0.000305156
3.10193e-25 0.0145022 0.049924 2.89593e-06
0 -0.003125 0.0519027 0.000305122
-2.50164e-20 0.003125 0.0519027 0.00030517
-2.71051e-20 0.0121875 0.0505593 1.75901e-05
0 -0.0121875 0.0505593 1.73457e-05
0 -0.013125 0.0503316 1.00098e-05
2.16198e-20 0.013125 0.0503316 1.01652e-05
1.1293e-20 -0.01125 0.0507876 8.27014e-05
3.35908e-21 0.01125 0.0507876 8.36905e-05
-2.71051e-20 -0.0065625 0.0516082 0.00030438
-2.71051e-20 0.0065625 0.0516082 0.000304516
0 -0.00375 0.0519027 0.000305116
-3.96216e-20 0.00375 0.0519027 0.000305169
0 -0.00875 0.0513142 0.000226274
0 0.00875 0.0513142 0.00022703
-2.71051e-20 -0.0140625 0.0501277 2.83827e-06
0 0.0140625 0.0501277 2.89362e-06
2.71051e-20 -0.0103125 0.0510506 0.000150428
0 0.0103125 0.0510506 0.000152045
0 -0.004375 0.0519027 0.000305152
-3.31945e-20 0.004375 0.0519027 0.000305185
0 -0.0071875 0.0516082 0.000304526
2.71051e-20 0.0071875 0.0516082 0.000304678
8.07794e-28 0.00914297 0.0513142 0.000227065
2.58494e-26 0.01375 0.0502811 9.27064e-06
0 0.015 0.049924 2.89871e-06
0 -0.015 0.049924 2.84051e-06
0 -0.005 0.0519027 0.000305182
-1.73339e-20 0.005 0.0519027 0.00030521
0 -0.011875 0.0507876 8.26909e-05
-6.39333e-22 0.011875 0.0507876 8.37338e-05
0 0.0128125 0.0505593 1.76124e-05
2.71051e-20 -0.0128125 0.0505593 1.73578e-05
2.58494e-26 -0.009375 0.0513142 0.000226273
1.61559e-27 0.009375 0.0513142 0.000227086
-1.54312e-20 -0.01375 0.0503316 1.0011e-05
1.66868e-21 0.01375 0.0503316 1.01733e-05
-2.71051e-20 -0.0078125 0.0516082 0.000304398
0 0.0078125 0.0516082 0.000304548
-1.00961e-20 0.005625 0.0519027 0.000305223
0 -0.005625 0.0519027 0.000305174
-2.71051e-20 -0.0109375 0.0510506 0.000150317
0 0.0109375 0.0510506 0.000152047
5.42101e-20 0.000300834 0.0522172 0.000305802
-5.42101e-20 -0.000300834 0.0522172 0.000305875
0 0.014375 0.0502015 7.85562e-06
-2.71051e-20 -0.000949166 0.0522172 0.000305806
-2.71051e-20 0.000949166 0.0522172 0.000305909
0 -0.0146875 0.0501277 2.83963e-06
-2.71051e-20 0.0146875 0.0501277 2.89681e-06
2.71051e-20 -0.00155083 0.0522172 0.000305775
0 0.00155083 0.0522172 0.000305722
-2.71051e-20 0.00219917 0.0522172 0.000305967
0 -0.00219917 0.0522172 0.000305893
0 -0.00625 0.0519027 0.000305162
1.30773e-21 0.00625 0.0519027 0.000305231
0 -0.01 0.0513142 0.000226269
0 0.01 0.0513142 0.000227145
2.01948e-28 0.0100419 0.0513142 0.000227149
-2.71051e-20 0.00280083 0.0522172 0.000305756
2.71051e-20 -0.00280083 0.0522172 0.000305763
2.71051e-20 0.0084375 0.0516082 0.000304705
-2.71051e-20 -0.0084375 0.0516082 0.000304584
0 -0.0125 0.0507876 8.26802e-05
1.20596e-20 0.0125 0.0507876 8.37736e-05
-8.27181e-25 0.015625 0.049924 2.90229e-06
0 -0.015625 0.049924 2.84215e-06
0 -0.0134375 0.0505593 1.7346e-05
2.71051e-20 0.0134375 0.0505593 1.76132e-05
-2.71051e-20 0.00344917 0.0522172 0.000306013
5.42101e-20 -0.00344917 0.0522172 0.000305937
-2.71051e-20 -0.0115625 0.0510506 0.000150397
-2.71051e-20 0.0115625 0.0510506 0.000152225
0 -0.014375 0.0503316 1.0012e-05
1.07994e-20 0.014375 0.0503316 1.01812e-05
0 -0.006875 0.0519027 0.000305162
-3.84335e-20 0.006875 0.0519027 0.000305247
-2.71051e-20 0.00405083 0.0522172 0.000305707
-2.71051e-20 -0.00405083 0.0522172 0.000305736
-2.06795e-25 -0.0158406 0.049924 2.84277e-06
-2.71051e-20 -0.0090625 0.0516082 0.000304447
0 0.0090625 0.0516082 0.000304576
0 -0.010625 0.0513142 0.000226264
1.37047e-20 0.010625 0.0513142 0.00022721
0 0.0153125 0.0501277 2.90062e-06
-2.71051e-20 -0.0153125 0.0501277 2.84139e-06
5.42101e-20 0.00469917 0.0522172 0.000306069
-5.42101e-20 -0.00469917 0.0522172 0.000306042
0 -0.0075 0.0519027 0.000305178
1.61454e-20 0.0075 0.0519027 0.00030526
0 -0.013125 0.0507876 8.26776e-05
2.01028e-20 0.013125 0.0507876 8.38221e-05
0 -0.0140625 0.0505593 1.73601e-05
-5.42101e-20 0.0140625 0.0505593 1.76384e-05
0 -0.0121875 0.0510506 0.000150278
2.71051e-20 0.0121875 0.0510506 0.000152201
0 0.00530083 0.0522172 0.000305702
0 -0.00530083 0.0522172 0.00030576
1.00974e-28 0.01 0.0515257 0.000255257
8.27181e-25 0.01625 0.049924 2.90595e-06
0 -0.01625 0.049924 2.84395e-06
0 0.0096875 0.0516082 0.00030479
-5.42101e-20 -0.0096875 0.0516082 0.000304657
-1.22108e-20 0.015 0.0503316 1.01886e-05
0 -0.015 0.0503316 1.00128e-05
0 -0.000625 0.0525189 0.000307809
-8.07794e-28 0.000625 0.0525189 0.000307828
-1.19502e-20 -0.01125 0.0513142 0.000226264
1.72911e-20 0.01125 0.0513142 0.00022728
0 -0.008125 0.0519027 0.000305205
-5.73382e-21 0.008125 0.0519027 0.000305257
1.61559e-27 -0.001875 0.0525189 0.000307797
0 0.001875 0.0525189 0.000307822
-2.71051e-20 0.00594917 0.0522172 0.000306099
0 -0.00594917 0.0522172 0.000306048
2.71051e-20 0.0159375 0.0501277 2.90396e-06
-2.71051e-20 -0.0159375 0.0501277 2.84291e-06
0 -0.003125 0.0525189 0.000307806
3.45643e-20 0.003125 0.0525189 0.000307869
1.00974e-28 0.00208582 0.052571 0.000308263
0 -0.0153322 0.0503316 1.00137e-05
0 -0.01375 0.0507876 8.268e-05
2.17706e-21 0.01375 0.0507876 8.38782e-05
0 0.00655083 0.0522172 0.000305673
-2.71051e-20 -0.00655083 0.0522172 0.000305686
0 -0.0103125 0.0516082 0.000304498
2.71051e-20 0.0103125 0.0516082 0.000304681
2.71051e-20 -0.0128125 0.0510506 0.000150357
-2.71051e-20 0.0128125 0.0510506 0.000152367
0 -0.00875 0.0519027 0.000305234
1.25859e-20 0.00875 0.0519027 0.000305261
2.58494e-26 -0.015625 0.050276 9.03577e-06
-2.71051e-20 -0.0146875 0.0505593 1.73471e-05
-2.71051e-20 0.0146875 0.0505593 1.76384e-05
-8.49566e-22 -0.011875 0.0513142 0.000226277
1.37033e-20 0.011875 0.0513142 0.000227349
0 -4.00412e-11 0.0526734 0.000309093
0 -0.00125 0.0526734 0.000309051
0 0.00125 0.0526734 0.000309087
4.1359e-25 0.016875 0.049924 2.90966e-06
-4.1359e-25 -0.016875 0.049924 2.84592e-06
-1.61559e-27 -0.004375 0.0525189 0.000307841
-1.4455e-20 0.004375 0.0525189 0.000307869
2.56734e-20 0.015625 0.0503316 1.0197e-05
-2.94585e-20 -0.015625 0.0503316 1.00146e-05
7.06819e-28 0.009375 0.0518641 0.000300172
-5.42101e-20 -0.00719917 0.0522172 0.000306086
-2.71051e-20 0.00719917 0.0522172 0.000306152
1.61559e-27 -0.0025 0.0526734 0.000309066
-1.26911e-20 0.0025 0.0526734 0.000309131
-6.46235e-27 -0.009375 0.0519027 0.000305268
0 0.009375 0.0519027 0.000305301
0 -0.0109375 0.0516082 0.000304671
2.71051e-20 0.0109375 0.0516082 0.000304878
9.62647e-21 0.014375 0.0507876 8.39319e-05
0 -0.014375 0.0507876 8.26786e-05
0 -0.0134375 0.0510506 0.000150267
2.71051e-20 0.0134375 0.0510506 0.000152374
-5.42101e-20 0.0165625 0.0501277 2.90794e-06
-2.71051e-20 -0.0165625 0.0501277 2.84499e-06
0 -0.00780083 0.0522172 0.000305696
0 0.00780083 0.0522172 0.000305656
1.61559e-27 -0.00375 0.0526734 0.000309073
4.06689e-22 0.00375 0.0526734 0.000309141
0 -0.0125 0.0513142 0.000226287
-5.43171e-21 0.0125 0.0513142 0.000227411
3.67478e-20 0.005625 0.0525189 0.000307886
0 -0.005625 0.0525189 0.000307853
0 -0.0153125 0.0505593 1.73601e-05
2.71051e-20 0.0153125 0.0505593 1.76612e-05
0 -0.015 0.0506655 6.32218e-05
0 -0.0145982 0.0507876 8.2677e-05
0 -0.01 0.0519027 0.000305289
0 0.01 0.0519027 0.000305353
-5.42101e-20 -0.0115625 0.0516082 0.000304532
-2.71051e-20 0.0115625 0.0516082 0.00030478
2.35914e-20 0.01625 0.0503316 1.0206e-05
-1.00713e-20 -0.01625 0.0503316 1.0017e-05
-2.71051e-20 0.00844917 0.0522172 0.000306149
0 -0.00844917 0.0522172 0.000306172
-4.1359e-25 -0.0175 0.049924 2.848e-06
-4.1359e-25 0.0175 0.049924 2.91344e-06
0 -0.005 0.0526734 0.000309117
1.10381e-21 0.005 0.0526734 0.000309161
0 0.0140625 0.0510506 0.000152569
0 -0.0140625 0.0510506 0.000150365
-1.80677e-21 0.015 0.0507876 8.39788e-05
1.32967e-20 -0.015 0.0507876 8.26743e-05
0 -0.013125 0.0513142 0.000226296
-3.4891e-20 0.013125 0.0513142 0.000227474
0 -0.006875 0.0525189 0.000307826
-1.93988e-20 0.006875 0.0525189 0.0003079
-6.46235e-27 -0.010625 0.0519027 0.000305284
-1.99154e-20 0.010625 0.0519027 0.00030539
-2.71051e-20 0.0171875 0.0501277 2.91139e-06
0 -0.0171875 0.0501277 2.84685e-06
-2.71051e-20 -0.00905083 0.0522172 0.000305728
0 0.00905083 0.0522172 0.000305611
-2.71051e-20 0.0159375 0.0505593 1.76649e-05
2.71051e-20 -0.0159375 0.0505593 1.73509e-05
0 -0.0121875 0.0516082 0.000304765
2.71051e-20 0.0121875 0.0516082 0.000305002
1.61559e-27 -0.00625 0.0526734 0.000309086
-1.39938e-20 0.00625 0.0526734 0.000309171
-3.23117e-27 -0.014375 0.0510728 0.000160491
1.13797e-20 0.016875 0.0503316 1.02145e-05
-9.60315e-21 -0.016875 0.0503316 1.00193e-05
0 0.0112363 0.0519027 0.000305421
0 0.01125 0.0519027 0.000305385
6.46235e-27 -0.01125 0.0519027 0.000305298
0 0.00969917 0.0522172 0.000306253
0 -0.00969917 0.0522172 0.00030627
0 -0.018125 0.049924 2.85018e-06
0 0.018125 0.049924 2.91728e-06
2.71051e-20 0.0146875 0.0510506 0.000152567
-2.71051e-20 -0.0146875 0.0510506 0.000150259
-2.85167e-20 0.01375 0.0513142 0.000227543
0 -0.01375 0.0513142 0.000226311
1.07099e-21 0.015625 0.0507876 8.40359e-05
-4.56418e-21 -0.015625 0.0507876 8.26787e-05
-3.23117e-27 -0.008125 0.0525189 0.00030787
-2.8734e-20 0.008125 0.0525189 0.000307894
5.42101e-20 0.000625 0.0531412 0.000314324
0 -0.000625 0.0531412 0.000314294
0 -0.0139348 0.0513142 0.000226316
0 0.001875 0.0531412 0.000314339
0 -0.001875 0.0531412 0.000314263
0 0.0128125 0.0516082 0.000304885
0 -0.0128125 0.0516082 0.000304614
-4.03897e-28 0.011875 0.0518336 0.000296297
2.71051e-20 0.0178125 0.0501277 2.91549e-06
0 -0.0178125 0.0501277 2.84916e-06
2.71051e-20 0.0165625 0.0505593 1.769e-05
0 -0.0165625 0.0505593 1.73661e-05
1.3514e-20 -0.0075 0.0526734 0.000309095
-4.35942e-21 0.0075 0.0526734 0.000309188
-2.71051e-20 0.0103008 0.0522172 0.000305685
2.71051e-20 -0.0103008 0.0522172 0.000305723
0 0.003125 0.0531412 0.000314406
0 -0.003125 0.0531412 0.000314251
6.46235e-27 -0.011875 0.0519027 0.000305343
0 0.011875 0.0519027 0.000305464
-3.42184e-21 -0.0175 0.0503316 1.00209e-05
4.44403e-22 0.0175 0.0503316 1.02222e-05
-2.31251e-21 0.014375 0.0513142 0.000227616
0 -0.014375 0.0513142 0.000226329
2.71051e-20 0.0153125 0.0510506 0.000152736
-2.71051e-20 -0.0153125 0.0510506 0.000150347
0 -0.004375 0.0531412 0.000314271
-5.42101e-20 0.004375 0.0531412 0.000314394
-1.33148e-20 0.01625 0.0507876 8.40988e-05
1.56745e-20 -0.01625 0.0507876 8.26888e-05
-8.27181e-25 -0.01875 0.049924 2.85251e-06
0 0.01875 0.049924 2.92124e-06
2.71051e-20 0.0134375 0.0516082 0.000305079
0 -0.0134375 0.0516082 0.000304813
0 -0.009375 0.0525189 0.000307928
2.03906e-20 0.009375 0.0525189 0.000307927
0 0.0123461 0.0519027 0.000305495
0 0.0109492 0.0522172 0.000306343
-2.71051e-20 -0.0109492 0.0522172 0.000306275
-3.23117e-27 -0.0125 0.0519027 0.000305387
0 0.0125 0.0519027 0.000305505
0 -0.00875 0.0526734 0.000309144
-3.00533e-20 0.00875 0.0526734 0.000309182
-5.42101e-20 0.0171875 0.0505593 1.76919e-05
2.71051e-20 -0.0171875 0.0505593 1.73564e-05
5.42101e-20 0.0184375 0.0501277 2.91907e-06
0 -0.0184375 0.0501277 2.85119e-06
0 0.005625 0.0531412 0.000314429
0 -0.005625 0.0531412 0.000314274
2.77049e-21 0.015 0.0513142 0.000227683
-1.35708e-20 -0.015 0.0513142 0.000226344
-2.71051e-20 0.0115508 0.0522172 0.000305684
-5.42101e-20 -0.0115508 0.0522172 0.000305707
2.71051e-20 0.0159375 0.0510506 0.000152772
-5.42101e-20 -0.0159375 0.0510506 0.000150273
2.71051e-20 0.0140625 0.0516082 0.000304957
0 -0.0140625 0.0516082 0.000304666
-5.52763e-22 -0.018125 0.0503316 1.00232e-05
-4.25378e-21 0.018125 0.0503316 1.02305e-05
-4.50989e-21 -0.016875 0.0507876 8.26973e-05
1.84744e-20 0.016875 0.0507876 8.41565e-05
0 -0.01375 0.0517304 0.000282262
-3.19331e-20 0.013125 0.0519027 0.000305533
0 -0.013125 0.0519027 0.000305403
0 0.019375 0.049924 2.92529e-06
8.27181e-25 -0.019375 0.049924 2.85499e-06
0 -0.010625 0.0525189 0.000307921
1.04182e-20 0.010625 0.0525189 0.000308009
5.42101e-20 0.006875 0.0531412 0.000314448
0 -0.006875 0.0531412 0.000314218
0 -0.0178125 0.0505593 1.73681e-05
0 0.0178125 0.0505593 1.77136e-05
0 -0.01 0.0526734 0.000309174
1.7645e-20 0.01 0.0526734 0.000309262
0 0.0121992 0.0522172 0.000306417
-2.71051e-20 -0.0121992 0.0522172 0.000306396
2.71051e-20 0.0190625 0.0501277 2.92342e-06
0 -0.0190625 0.0501277 2.85383e-06
0 -0.0135034 0.0519027 0.000305414
-2.81611e-20 0.015625 0.0513142 0.000227751
-1.82843e-20 -0.015625 0.0513142 0.00022636
-5.04871e-29 0.010779 0.052557 0.00030833
-2.71051e-20 0.0146875 0.0516082 0.000305177
0 -0.0146875 0.0516082 0.000304894
0 0.0165625 0.0510506 0.000152962
-2.71051e-20 -0.0165625 0.0510506 0.000150382
1.30778e-20 0.01375 0.0519027 0.000305557
0 -0.01375 0.0519027 0.00030542
-2.5666e-20 -0.01875 0.0503316 1.00262e-05
-2.81241e-21 0.01875 0.0503316 1.02398e-05
-7.54016e-21 -0.0175 0.0507876 8.26965e-05
-6.97567e-21 0.0175 0.0507876 8.42043e-05
0 -4.30803e-12 0.0537586 0.000342115
5.42101e-20 -0.008125 0.0531412 0.000314246
-5.42101e-20 0.008125 0.0531412 0.000314455
0 0.0128008 0.0522172 0.000305713
5.42101e-20 -0.0128008 0.0522172 0.000305766
0 -0.00125 0.0537586 0.000342076
0 0.00125 0.0537586 0.000342148
-8.27181e-25 0.02 0.049924 2.92936e-06
0 -0.02 0.049924 2.85765e-06
-1.26218e-29 0.00207958 0.0537586 0.000342177
0 0.0125 0.0523334 0.000307657
0 -0.0184375 0.0505593 1.73615e-05
0 0.0184375 0.0505593 1.77176e-05
0 -0.0025 0.0537586 0.00034205
2.52435e-29 0.0025 0.0537586 0.000342191
-6.74473e-21 -0.01625 0.0513142 0.000226384
-1.13836e-21 0.01625 0.0513142 0.000227833
2.71051e-20 0.0153125 0.0516082 0.000305057
-2.71051e-20 -0.0153125 0.0516082 0.000304744
1.61559e-27 -0.011875 0.0525189 0.000307971
-4.03897e-28 0.011875 0.0525189 0.000308045
2.71051e-20 0.0196875 0.0501277 2.92715e-06
2.71051e-20 -0.0196875 0.0501277 2.85616e-06
9.56287e-21 0.014375 0.0519027 0.000305591
-7.19343e-22 -0.014375 0.0519027 0.000305452
0 -0.01125 0.0526734 0.000309173
0 0.01125 0.0526734 0.000309312
0 0.0171875 0.0510506 0.000152979
-2.71051e-20 -0.0171875 0.0510506 0.000150302
0 -0.00375 0.0537586 0.000342044
-2.9814e-20 0.00375 0.0537586 0.000342231
0 0.0134492 0.0522172 0.000306481
2.71051e-20 -0.0134492 0.0522172 0.000306448
4.88523e-21 -0.018125 0.0507876 8.27029e-05
-1.58748e-20 0.018125 0.0507876 8.42557e-05
4.73788e-21 -0.019375 0.0503316 1.00291e-05
1.82166e-21 0.019375 0.0503316 1.02489e-05
0 0.009375 0.0531412 0.000314498
0 -0.009375 0.0531412 0.000314282
0 -0.005 0.0537586 0.000342041
-1.68659e-20 0.005 0.0537586 0.000342253
-2.71051e-20 -0.0159375 0.0516082 0.000304945
-2.71051e-20 0.0159375 0.0516082 0.000305242
0 0.020625 0.049924 2.93352e-06
0 -0.020625 0.049924 2.86044e-06
2.197e-20 -0.016875 0.0513142 0.000226416
4.22017e-20 0.016875 0.0513142 0.000227924
-6.68275e-21 0.015 0.0519027 0.000305628
-2.45069e-20 -0.015 0.0519027 0.000305483
-2.71051e-20 -0.0190625 0.0505593 1.73755e-05
0 0.0190625 0.0505593 1.77429e-05
0 0.0178125 0.0510506 0.000153132
2.71051e-20 -0.0178125 0.0510506 0.000150376
-2.71051e-20 0.0140508 0.0522172 0.000305708
-5.42101e-20 -0.0140508 0.0522172 0.00030575
0 0.0203125 0.0501277 2.93157e-06
-2.71051e-20 -0.0203125 0.0501277 2.85915e-06
1.00974e-28 -0.00625 0.0537586 0.000342008
-2.47229e-20 0.00625 0.0537586 0.000342281
-1.89142e-20 0.013125 0.0525189 0.000308088
-2.01948e-28 -0.013125 0.0525189 0.000308016
0 0.0126305 0.0526411 0.000309092
2.4349e-20 -0.0125 0.0526734 0.000309238
0 0.0125 0.0526734 0.000309357
-1.93346e-20 -0.01875 0.0507876 8.27164e-05
3.0621e-20 0.01875 0.0507876 8.43191e-05
1.49926e-21 -0.02 0.0503316 1.00318e-05
-1.73749e-20 0.02 0.0503316 1.02571e-05
-2.01948e-28 -0.0132423 0.0525479 0.000308247
-1.0842e-19 0.010625 0.0531412 0.000314582
0 -0.010625 0.0531412 0.000314251
2.71051e-20 -0.0165625 0.0516082 0.000304806
0 0.0165625 0.0516082 0.000305156
-6.42586e-21 -0.015625 0.0519027 0.000305495
-3.1986e-20 0.015625 0.0519027 0.000305654
-1.7548e-20 -0.0175 0.0513142 0.000226442
-1.00144e-20 0.0175 0.0513142 0.000228007
-2.71051e-20 -0.0146992 0.0522172 0.000306527
-2.71051e-20 0.0146992 0.0522172 0.000306547
-2.71051e-20 -0.0196875 0.0505593 1.73679e-05
0 0.0196875 0.0505593 1.77463e-05
8.27181e-25 0.02125 0.049924 2.93781e-06
-8.27181e-25 -0.02125 0.049924 2.86343e-06
0 0.0184375 0.0510506 0.000153162
0 -0.0184375 0.0510506 0.000150323
2.01948e-28 -0.0075 0.0537586 0.000341987
-4.4273e-20 0.0075 0.0537586 0.000342297
0 -0.0209375 0.0501277 2.86173e-06
-2.71051e-20 0.0209375 0.0501277 2.93547e-06
3.99425e-22 -0.019375 0.0507876 8.27266e-05
2.82628e-20 0.019375 0.0507876 8.43815e-05
0 0.000625 0.0543834 0.000370061
5.42101e-20 -0.000625 0.0543834 0.00037
-3.46724e-21 -0.01625 0.0519027 0.000305511
-2.07779e-20 0.01625 0.0519027 0.000305689
1.1406e-20 0.020625 0.0503316 1.02663e-05
1.4974e-21 -0.020625 0.0503316 1.00354e-05
-2.71051e-20 -0.0171875 0.0516082 0.000305044
2.71051e-20 0.0171875 0.0516082 0.000305399
-2.71051e-20 0.0153008 0.0522172 0.000305729
0 -0.0153008 0.0522172 0.000305763
-5.42101e-20 0.001875 0.0543834 0.000370085
-5.42101e-20 -0.001875 0.0543834 0.000369963
2.91349e-21 -0.018125 0.0513142 0.000226471
-9.14996e-21 0.018125 0.0513142 0.000228082
-6.88535e-21 0.01375 0.0526734 0.000309391
-2.73642e-20 -0.01375 0.0526734 0.000309248
-2.92497e-21 0.014375 0.0525189 0.000308124
6.11428e-21 -0.014375 0.0525189 0.000308036
5.42101e-20 -0.011875 0.0531412 0.000314294
5.42101e-20 0.011875 0.0531412 0.000314618
-6.4148e-21 -0.00875 0.0537586 0.000342005
-1.65104e-20 0.00875 0.0537586 0.00034232
1.03398e-25 -0.0217833 0.049924 2.86613e-06
5.42101e-20 0.003125 0.0543834 0.000370153