# omega  POINT_DATA 49394
# x  y  z  omega
-0.01 -1.04067e-26 1.51748e-07 955.265
0.01 0 8.31199e-08 955.265
-0.01 0 0.00067832 1086.73
0.01 0 0.00067832 1086.73
-0.01 2.06795e-25 0.00137372 1329.83
0.01 0 0.00137372 1329.84
-0.01 1.57772e-30 0.002087 1185.47
0.01 -1.57772e-30 0.002087 1185.47
-0.0102613 0 0.000329046 955.264
0.0102613 0 0.000329046 955.265
-0.0102561 -2.71051e-20 0.000988366 1220.01
0.0102561 2.71051e-20 0.000988366 1220.01
-0.0102356 -2.71051e-20 0.00161953 1441.24
0.0102356 -2.71051e-20 0.00161953 1441.24
0.0105293 -1.03398e-25 8.74336e-08 882.405
-0.0105293 0 8.68458e-08 882.4
-0.0105268 -7.62371e-21 0.000638363 797.996
0.0105268 -1.14945e-20 0.000638363 797.907
-0.0105159 0 0.0012653 777.924
0.0105159 -1.05474e-20 0.0012653 777.706
0.0105028 -1.31836e-20 0.0017228 901.282
-0.0105028 -6.15422e-21 0.0017228 901.439
0.010496 2.71051e-20 0.00202291 958.564
-0.010496 0 0.00202291 958.562
0.0104977 0 0.00235078 1134.69
-0.0104977 0 0.00235077 1134.69
0.0108033 2.71051e-20 0.000314595 808.57
-0.0108033 2.71051e-20 0.000314595 808.562
0.0108031 2.71051e-20 0.00093799 230.008
-0.0108031 -2.71051e-20 0.00093799 230.369
0.01079 5.42101e-20 0.00152732 244.297
-0.01079 0 0.00152732 244.802
-0.0110754 0 7.54525e-09 833.355
0.0110754 5.16988e-26 4.96121e-09 833.364
-0.0110889 0 0.000613667 516.052
0.0110889 7.44876e-22 0.000613666 515.935
-0.0108991 2.71051e-20 0.00228385 1309.4
0.0108991 0 0.00228385 1309.4
0.010988 3.33784e-20 0.00190078 597.467
-0.010988 0 0.00190081 597.325
-0.0110831 0 0.00123268 185.477
0.0110831 -4.02672e-21 0.00123266 185.316
0.0109863 0 0.00260985 1565.48
-0.0109863 0 0.00260985 1565.48
-0.0113733 2.71051e-20 0.000305239 858.658
0.0113733 0 0.000305239 858.667
-0.0113913 -2.71051e-20 0.000918847 152.851
0.0113913 2.71051e-20 0.000918847 152.718
0.0112123 3.72562e-21 0.00231934 1148.46
-0.0112123 1.70995e-20 0.00231934 1148.17
-0.0113682 -5.42101e-20 0.00155884 110.066
0.0113682 0 0.00155884 110.44
-0.0114039 0 0.00209577 297.012
0.0114039 2.71051e-20 0.00209577 297.911
0.0113392 0 0.00255892 1818.01
-0.0113392 -2.71051e-20 0.00255892 1818.01
-0.0116471 2.06795e-25 3.69551e-09 892.236
0.0116471 0 2.16021e-09 892.246
0.0116556 0 2.10937e-09 893.989
-0.0116865 0 0.000598049 527.493
0.0116865 2.7043e-20 0.000598048 527.22
-0.0117045 0 0.00122297 122.705
0.0117045 -1.81169e-20 0.00122297 122.435
0.0114599 0 0.00285977 1336.74
-0.0114598 -6.61744e-24 0.00285975 1336.73
-0.0117133 -3.30872e-24 0.00184588 162.715
0.0117133 2.32305e-20 0.00184588 162.424
0.0116596 5.98879e-22 0.00239948 810.375
-0.0116596 0 0.00239948 810.678
-0.0119676 2.71051e-20 0.000293859 926.437
0.0119676 -2.71051e-20 0.000293859 926.448
0.0120131 -2.71051e-20 0.000895955 150.435
-0.0120131 0 0.000895955 151.435
-0.0120953 0 6.93353e-10 983.767
0.0120433 0 0.00152444 74.8229
-0.0120433 2.71051e-20 0.00152444 75.1233
-0.0118604 2.71051e-20 0.00273055 863.458
0.0118604 0 0.00273056 863.465
0.0120387 0 0.00217273 153.815
-0.0120387 -2.71051e-20 0.00217273 156.086
0.0122418 -2.06795e-25 1.69281e-09 1013.7
-0.0122418 1.03398e-25 7.11999e-10 1013.69
-0.0122512 -1.03398e-25 8.57994e-05 950.832
0.0122823 0 0.000368539 742.346
0.0119119 0 0.00310459 995.351
-0.0119119 0 0.00310459 995.342
-0.0123043 -1.47189e-20 0.000568946 596.888
0.0123043 -7.97816e-21 0.000568944 594.79
-0.0123731 5.16988e-26 1.76457e-10 1095.35
-0.01236 -8.27181e-25 0.00118125 117.293
0.01236 2.40197e-20 0.00118125 114.572
-0.0123814 0 0.00184434 93.5913
0.0123814 3.68459e-20 0.00184432 92.3969
0.0125711 -2.71051e-20 0.000269457 1101.83
-0.0125711 -2.71051e-20 0.000269458 1101.82
0.0123374 2.79124e-20 0.00258488 518.416
-0.0123374 -8.03027e-21 0.00258488 520.965
0.0122817 0 0.00299995 1125.13
-0.0122817 -2.71051e-20 0.00299995 1125.12
-0.0126475 0 0.000839063 177.742
0.0126475 -5.42101e-20 0.000839063 170.207
0.0123472 -3.30872e-24 0.00333734 1333.07
-0.0123472 3.30872e-24 0.00333734 1333.07
-0.0127108 0 0.0014705 63.1156
0.0127108 0 0.0014705 61.1552
-0.0128491 0 1.64322e-09 1391.32
0.0128491 0 4.78714e-10 1391.33
0.0128795 1.03398e-25 0.00024045 1119.08
0.0127172 0 0.00217074 79.1044
-0.0127172 -2.71051e-20 0.00217074 79.3965
-0.0129129 -4.1359e-25 0.000505053 824.046
0.0129129 -1.07564e-21 0.000505051 819.482
0.0125922 1.92386e-20 0.00303079 987.127
-0.0125922 3.63744e-20 0.00303079 990.46
0.0130143 1.03398e-25 9.68852e-12 1362.38
-0.0130203 4.1359e-25 0.0010824 142.072
0.0130203 -2.23041e-20 0.0010824 136.003
0.012793 0 0.00278388 251.983
-0.012793 0 0.00278388 262.295
0.0127108 0 0.00327268 1538.21
-0.0127108 -2.71051e-20 0.00327268 1538.21
0.0131383 0 0.000218112 1681.65
-0.0131383 -5.42101e-20 0.000218112 1681.64
-0.013073 -8.27181e-25 0.00176511 63.9303
0.013073 -1.45915e-21 0.0017651 62.3129
0.0127674 1.65436e-24 0.00356123 1703.43
-0.0127674 0 0.00356123 1703.43
0.0132689 5.42101e-20 0.0007197 242.07
-0.0132689 -2.71051e-20 0.000719701 253.243
0.0130872 1.12468e-20 0.00246808 126.047
-0.0130872 -4.1359e-25 0.00246808 130.075
-0.0133746 -7.63736e-21 0.000406306 952.301
0.0133746 -2.46913e-21 0.000406304 948.632
-0.0134599 0 3.79964e-09 1284.24
0.0134599 -4.1359e-25 2.10898e-13 1284.26
0.0130916 1.51953e-21 0.00314268 884.415
-0.0130916 0 0.00314268 891.233
-0.0134186 2.71051e-20 0.00131377 65.7838
0.0134186 0 0.00131377 62.5833
-0.013075 -2.71051e-20 0.00349045 1866.99
0.013075 2.71051e-20 0.00349045 1867
-0.0131725 0 0.00327109 1132.8
-0.0134232 2.71051e-20 0.00207248 49.2246
0.0134232 2.71051e-20 0.00207248 48.1263
0.0132045 -4.1359e-25 0.00332175 1221.2
-0.0132804 0 0.00312399 694.321
-0.0136984 2.71051e-20 0.000300358 886.773
0.0136984 2.71051e-20 0.000300357 886.815
-0.013418 0 0.00277569 116.062
0.013418 0 0.00277569 112.246
0.0131762 0 0.0037788 2211.48
-0.0131762 -1.03398e-25 0.0037788 2211.48
0.0133539 -2.06795e-25 0.00311672 609.413
-0.0131995 0 0.00374163 2123.3
0.0132257 -1.03398e-25 0.00369994 2022.17
-0.0135351 4.1359e-25 0.00243235 87.4308
-0.0132228 0 0.00380696 2165.79
0.0137612 1.78009e-21 0.000786145 358.447
-0.0137612 -6.02187e-21 0.000786151 361.294
-0.0133341 0 0.00352736 1614.9
0.0133341 -1.24586e-20 0.00352736 1607.9
0.0132709 0 0.00383596 2118.74
0.0136439 -1.03398e-25 0.00242366 74.3735
0.0137678 -3.14242e-20 0.00165538 57.8916
-0.0137678 0 0.00165538 58.6053
-0.013482 0 0.00331696 412.317
0.013482 -2.71051e-20 0.00331696 391.249
-0.0137609 0 0.00192645 61.6417
0.0137535 -1.03398e-25 0.00221656 62.9023
-0.0137484 -1.69965e-21 0.00241533 67.1181
0.0137484 0 0.00241533 64.6771
0.013458 2.71051e-20 0.00374223 2553.65
-0.013458 0 0.00374223 2553.65
0.0140709 0 1.28268e-08 673.197
-0.0140709 -1.65436e-24 1.00678e-08 673.163
-0.0137488 1.31389e-20 0.00307762 205.957
0.0137488 8.27181e-25 0.00307762 195.344
-0.0135651 0 0.00401367 1830.4
0.0135651 0 0.00401367 1830.4
0.0141231 2.71051e-20 0.00120897 82.9591
-0.0141231 2.71051e-20 0.00120897 82.2292
-0.0137164 8.37686e-21 0.00361036 1126.49
0.0137164 -2.51058e-20 0.00361035 1118.93
-0.014089 2.71051e-20 0.00201377 39.2783
0.014089 -2.71051e-20 0.00201377 40.1053
0.0142657 -2.71051e-20 0.000418222 457.405
-0.0142657 5.42101e-20 0.000418222 457.38
-0.014069 -2.71051e-20 0.0027392 63.0865
0.014069 0 0.0027392 57.6962
0.0138967 -5.42101e-20 0.00392747 1110.05
-0.0138967 -2.71051e-20 0.00392747 1110.04
-0.0143573 1.29247e-26 0.00161906 58.4331
0.0140496 0 0.00340311 187.508
-0.0140496 -2.71051e-20 0.00340311 197.994
0.014441 -2.03528e-21 0.00161391 63.7389
-0.014441 0 0.00161391 58.4087
-0.0144492 -5.16988e-26 0.00155016 73.9384
0.0145429 -4.79268e-21 0.000823371 254.056
-0.0145429 0 0.000823363 250.984
-0.0139237 8.27181e-25 0.00428406 1215.01
0.0139237 -8.27181e-25 0.00428406 1215.02
0.0144036 0 0.00226571 47.6632
-0.014397 5.18146e-21 0.00237994 43.6113
0.014397 1.03398e-25 0.00237994 44.846
-0.0143653 -1.33755e-21 0.00309536 98.4407
0.0143653 0 0.00309537 92.3158
0.0147022 1.65436e-24 1.97585e-08 415.103
-0.0147022 1.65436e-24 1.20797e-08 415.095
-0.014305 1.02024e-20 0.00382188 630.801
0.014305 0 0.00382188 623.104
0.0146205 0 0.00235653 44.8485
-0.0142451 0 0.00421792 1319.75
0.0142451 0 0.00421792 1319.76
0.0147298 2.71051e-20 0.00200539 42.8338
-0.0147298 0 0.00200539 34.4101
-0.0148165 0 0.00124392 78.5392
0.0148165 2.71051e-20 0.00124392 89.6745
-0.0148637 1.03398e-25 0.000885861 231.681
-0.0149583 8.27181e-25 2.99823e-17 388.465
-0.014711 2.71051e-20 0.00272495 37.7822
0.014711 0 0.00272495 38.9835
0.0149557 2.71051e-20 0.000461619 375.445
-0.0149557 0 0.000461616 375.452
-0.0142802 0 0.00455258 1459.79
0.0142802 0 0.00455258 1459.8
-0.0146561 0 0.00344874 88.1824
0.0146561 2.71051e-20 0.00344874 78.9441
-0.014516 1.96455e-20 0.0042716 1077.88
0.014516 1.27129e-20 0.0042716 1071.3
0.0150861 3.4883e-20 0.00165187 67.3283
-0.0150861 2.49374e-21 0.00165188 53.504
-0.014707 0 0.0040482 284.9
0.014707 -2.71051e-20 0.0040482 264.669
-0.0151175 2.3037e-21 0.00230446 35.4738
0.0151175 0 0.00230446 44.854
0.0150721 1.03398e-25 0.00259452 46.4938
0.0146108 0 0.00452168 1599.68
-0.0146108 2.71051e-20 0.00452168 1599.67
0.0152997 0 4.97166e-18 352.983
-0.0149933 6.47269e-21 0.00309786 49.737
0.0149933 0 0.00309786 49.3394
0.0153681 -2.06795e-25 0.000180865 320.491
0.0153398 -1.15789e-20 0.00097864 211.491
-0.0153398 4.20663e-21 0.000978636 203.027
-0.0153745 -1.65436e-24 2.26327e-08 345.198
0.0153745 2.06795e-25 1.33475e-09 345.202
0.0146354 4.1359e-25 0.00482017 1693.33
-0.0146354 0 0.00482017 1693.31
0.015424 -2.06795e-24 -4.9124e-19 341.702
-0.0149803 -9.4464e-21 0.0037633 136.003
0.0149803 0 0.0037633 124.696
0.0153272 0 0.00275021 38.0813
-0.0153272 2.71051e-20 0.00275021 29.9553
-0.0149658 1.916e-20 0.00441692 873.124
0.0149658 -8.27181e-25 0.00441693 862.371
0.014927 0 0.00477487 1786.9
-0.014927 5.42101e-20 0.00477488 1786.88
0.0152999 2.71051e-20 0.00342236 42.2687
-0.0152999 -2.71051e-20 0.00342236 44.0195
0.015716 1.0842e-19 0.00173426 69.7785
-0.015716 -5.42101e-20 0.00173426 43.607
0.0152841 2.71051e-20 0.00407715 98.8782
-0.0152841 2.71051e-20 0.00407715 111.819
0.0149898 0 0.00508707 1964.48
-0.0149898 0 0.00508707 1964.46
0.0156647 0 0.00240043 46.0784
-0.0156647 3.11249e-20 0.00240043 32.3909
0.0158727 0 0.000520994 294.767
-0.0158727 -5.42101e-20 0.000520994 294.745
0.0156276 -2.58494e-26 0.00300563 39.5818
-0.0151702 7.21881e-21 0.00482145 1437.51
0.0151702 -8.87193e-21 0.00482145 1429.98
-0.015623 -1.7895e-20 0.00308126 33.1557
0.015623 -2.58494e-26 0.00308126 38.77
-0.0153271 0 0.00461022 365.058
0.0153271 -2.71051e-20 0.00461022 342.124
-0.0156022 1.95215e-22 0.00374982 59.2344
0.0156022 0 0.00374982 55.8535
0.015269 2.71051e-20 0.00505544 2141.87
-0.015269 2.71051e-20 0.00505544 2141.85
0.0157907 0 0.00307512 38.5936
-0.0152587 0 0.00528964 1640.19
-0.0159605 0 0.00272817 28.1285
0.0159605 0 0.00272817 39.7048
-0.0155971 4.34063e-21 0.0043751 179.972
0.0155971 0 0.0043751 167.46
-0.0153431 -5.16988e-26 0.00535318 1538.48
0.0153431 2.58494e-26 0.00535318 1538.51
-0.0153741 -5.16988e-26 0.0052828 1442.91
0.0159183 2.71051e-20 0.00340547 35.2564
-0.0159183 2.71051e-20 0.00340547 30.7361
-0.0155359 -1.50518e-20 0.00491577 944.563
0.0155359 -6.65301e-21 0.00491577 936.783
-0.0159245 0 0.00405169 50.5596
0.0159245 0 0.00405169 47.2642
0.0163947 6.3654e-20 0.00113361 173.721
-0.0163947 0 0.0011336 162.501
0.0164795 0 3.15332e-08 267.103
-0.0164795 -1.65436e-24 8.8495e-09 267.003
0.0162478 0 0.00305839 38.1132
-0.0162478 2.58494e-26 0.00305839 30.0548
-0.0163779 3.29846e-20 0.00230525 39.876
0.0163779 1.22973e-20 0.00230525 55.5682
0.0156904 -2.71051e-20 0.00524875 935.892
-0.0156904 0 0.00524875 935.85
-0.0158759 -2.71051e-20 0.00471202 165.194
0.0158759 2.71051e-20 0.00471202 155.936
0.0162919 2.58494e-26 0.00348864 39.528
0.0156951 0 0.00561829 1044.09
-0.0156951 -2.06795e-25 0.00561829 1044.05
-0.0163084 0 0.00364992 37.1439
0.0163084 0 0.00364992 40.0583
-0.016199 -1.98035e-20 0.00441125 80.2349
0.016199 1.85211e-20 0.00441125 78.8506
-0.0159841 -1.03398e-25 0.00528499 692.275
0.0161146 2.72194e-20 0.00513441 535.184
-0.0161146 -1.09677e-20 0.00513441 533.345
-0.016031 0 0.0055414 1152.1
0.016031 2.71051e-20 0.0055414 1152.14
0.0165686 -2.58494e-26 0.00368644 38.0655
-0.0169814 -4.1359e-25 0.00114599 158.768
0.0165301 2.71051e-20 0.00408038 38.615
-0.0165301 -5.42101e-20 0.00408038 34.3861
-0.0170241 5.42101e-20 0.000577601 239.804
0.0170241 0 0.000577602 239.982
0.0169741 -5.42101e-20 0.00175445 81.2804
-0.0169741 0 0.00175445 61.6679
0.0160456 -4.1359e-25 0.00588233 1282.48
-0.0160456 0 0.00588233 1282.43
-0.0167319 2.58494e-26 0.00370936 32.706
0.0168708 0 0.00304668 39.8866
-0.0168708 0 0.00304668 32.2169
0.0164827 2.71051e-20 0.00476235 71.8189
-0.0164827 0 0.00476235 68.7943
-0.0171727 -8.27181e-25 1.12492e-20 249.107
-0.0163092 0 0.00559034 944.998
0.0163092 -1.14857e-20 0.00559034 950.453
-0.0163185 0 0.0055934 941.404
0.0168571 0 0.00372694 35.8558
-0.0168571 0 0.00372694 31.3937
-0.0168443 0 0.00404208 35.9255
0.0168402 0 0.00414304 41.3424
0.0165194 0 0.0053648 247.644
-0.0165194 -2.71051e-20 0.0053648 232.304
-0.0168293 -8.20953e-21 0.00441207 41.246
0.0168293 2.58494e-26 0.00441207 44.8897
-0.016393 0 0.00584515 1412.6
0.016393 2.71051e-20 0.00584515 1412.65
0.0163955 -4.1359e-25 0.00614428 1457.6
-0.0163955 4.1359e-25 0.00614428 1457.55
-0.0168096 -1.92126e-20 0.00506989 107.633
0.0168096 0 0.00506989 117.278
0.017623 0 1.28629e-08 237.868
-0.017623 0 6.37354e-09 237.481
0.0175916 1.95595e-20 0.00115888 159.717
-0.0175916 0 0.00115887 154.885
-0.0171737 -2.71051e-20 0.004052 28.0559
0.0171737 -2.71051e-20 0.004052 30.8501
0.0175442 8.6552e-21 0.00239621 58.5728
-0.0175442 2.06795e-25 0.00239621 54.2008
-0.0167484 0 0.00577139 790.011
0.0167746 2.69232e-21 0.00574376 753.34
-0.0167746 1.79837e-20 0.00574376 740.548
-0.0172119 1.29247e-26 0.00439474 34.8906
0.0171404 2.71051e-20 0.0047287 39.2151
-0.0171404 -2.71051e-20 0.0047287 34.7893
0.016705 0 0.00611265 1502.5
-0.016705 2.71051e-20 0.00611265 1502.46
-0.0174986 0 0.00354411 32.6338
0.0174986 -1.80555e-20 0.00354411 31.7264
0.0167191 0 0.00643602 1496.51
-0.0167191 4.1359e-25 0.00643602 1496.47
-0.0171168 -5.42101e-20 0.00539052 85.1859
0.0171168 0 0.00539052 100.427
0.0174399 1.13091e-26 0.00438441 31.7907
-0.0174702 -1.29247e-26 0.00438304 30.6011
0.0174702 0 0.00438304 31.1397
0.0174674 -8.07794e-28 0.00447207 34.1603
-0.0169625 2.58494e-26 0.00618381 1103.27
0.0169667 3.76595e-21 0.00617943 1108.31
-0.0169667 -2.38953e-20 0.00617943 1096.44
-0.0174615 0 0.00465962 37.2457
0.0176237 0 0.00437799 29.7598
-0.0174493 3.93609e-22 0.00505023 46.6297
0.0174493 6.46235e-27 0.00505023 53.7769
0.0171679 2.71051e-20 0.00597129 307.129
-0.0171679 -5.42101e-20 0.00597129 270.852
0.0182005 5.42101e-20 0.000583381 235.728
-0.0182005 0 0.000583381 235.128
-0.017043 -5.42101e-20 0.00643779 1490.49
0.017043 0 0.00643779 1490.52
-0.0177879 2.71051e-20 0.00403219 30.933
0.0177879 0 0.00403219 26.3194
0.0181761 0 0.00178292 78.0276
-0.0181761 0 0.00178292 78.8488
0.0170214 0 0.00674884 1471.56
-0.0170214 4.1359e-25 0.00674884 1471.54
-0.0174458 -3.58295e-20 0.00568734 126.43
0.0174458 0 0.00568734 148.759
-0.0177804 0 0.00470438 28.8653
0.0177804 5.42101e-20 0.00470438 28.4081
0.0181642 -5.42101e-20 0.00305697 33.4728
-0.0181642 0 0.00305697 42.8307
-0.0181317 -1.03398e-25 0.00370155 34.0885
0.0181317 -1.5534e-20 0.00370155 26.9061
-0.0173841 -2.58494e-26 0.00637902 804.285
0.01741 0 0.00635261 776.487
-0.01741 1.97626e-20 0.00635261 756.635
0.0177702 0 0.00535529 47.9007
-0.0177702 -5.42101e-20 0.00535529 38.543
-0.0173274 2.71051e-20 0.00672747 1452.6
0.0173274 2.71051e-20 0.00672747 1452.62
0.0181109 3.23117e-27 0.00427061 25.6162
-0.0181076 2.58494e-26 0.00436205 29.6727
0.0181076 3.23117e-27 0.00436205 25.4089
0.0173238 -4.1359e-25 0.00706119 1438.73
-0.0173238 0 0.00706119 1438.72
0.0177503 -2.71051e-20 0.00600627 125.02
-0.0177503 -2.71051e-20 0.00600627 98.0092
-0.0180996 0 0.004908 30.4548
-0.018098 0 0.00501826 30.6127
0.018098 6.46235e-27 0.00501826 32.6222
-0.0187969 0 8.75982e-09 234.687
0.0187969 0 7.97307e-09 235.387
-0.0187878 0 0.0011673 159.473
0.0187878 6.38133e-20 0.0011673 151.547
-0.0175851 -1.32765e-20 0.00679799 1060.7
0.0175851 1.62869e-20 0.00679799 1073.83
0.0184432 -2.71051e-20 0.00401963 23.5568
-0.0184432 0 0.00401963 31.8792
-0.0187844 0 0.00239454 62.8175
0.0187844 3.67785e-21 0.00239454 46.9993
-0.0180831 8.89837e-21 0.00566925 51.8954
0.0180831 0 0.00566925 66.4745
0.0177912 -5.42101e-20 0.00658995 315.872
-0.0177912 0 0.00658995 275.083
0.0184158 0 0.00467993 23.4392
-0.0184158 0 0.00467993 27.0917
0.0176529 -2.71051e-20 0.00706043 1424.84
-0.0176529 -2.71051e-20 0.00706043 1424.84
-0.0183917 -9.69352e-27 0.00497632 29.1035
0.0176264 0 0.00737367 1419.69
-0.0176264 0 0.00737367 1419.69
-0.0180712 -1.00601e-20 0.00630777 134.388
0.0180712 -1.29247e-26 0.00630777 162.885
0.0184261 0 0.0053197 31.0909
-0.0184261 -2.71051e-20 0.0053197 28.1717
-0.0188515 6.93363e-20 0.00360143 35.8113
0.0188515 4.94336e-20 0.00360143 24.0637
0.0188419 1.61559e-27 0.00367156 23.8704
0.0188873 9.69352e-27 0.00360322 23.9374
-0.0187497 -1.00536e-20 0.00434473 29.1583
0.0187497 0 0.00434473 22.0152
-0.0180116 0 0.00698921 761.097
0.018025 0 0.00697581 754.079
-0.018025 -6.07232e-21 0.00697581 738.14
0.0183967 0 0.00598007 62.3254
-0.0183967 0 0.00598007 43.4701
0.0179363 0 0.0073519 1414.54
-0.0179363 2.71051e-20 0.0073519 1414.55
-0.0193896 5.42101e-20 0.000584898 234.243
0.0193896 5.42101e-20 0.000584906 235.045
-0.0180825 0 0.00712629 840.994
0.0188216 0 0.00491492 25.1431
-0.0188216 0 0.00491492 26.8938
-0.0193933 -1.0842e-19 0.00177944 85.9706
0.0193933 0 0.00177943 53.3501
-0.0187813 0 0.00522889 28.7967
0.0179292 -4.1359e-25 0.00768641 1406.35
-0.0179292 0 0.00768641 1406.36
0.018369 -2.71051e-20 0.00663164 134.764
-0.018369 0 0.00663164 108.57
-0.0187273 -1.3372e-20 0.00564917 31.344
0.0187273 0 0.00564917 40.2201
0.0194147 5.42101e-20 0.00301348 22.3269
-0.0194147 -5.42101e-20 0.00301348 42.693
0.0181958 1.14341e-20 0.00742304 1049.24
-0.0181958 -3.90067e-21 0.00742304 1043.83
-0.0187015 -1.13832e-20 0.00629873 57.5575
0.0187015 0 0.00629873 77.528
0.0184056 0 0.00721495 305.387
-0.0184056 0 0.00721495 288.679
0.0190533 0 0.0053245 26.0001
-0.0190533 -5.42101e-20 0.0053245 25.0354
0.0182616 2.71051e-20 0.0076859 1398.17
-0.0182616 2.71051e-20 0.0076859 1398.18
0.0193893 5.42101e-20 0.0043251 17.1826
-0.0193893 -1.0842e-19 0.0043251 27.8915
0.0182322 -4.1359e-25 0.00799942 1394.33
-0.0182322 4.1359e-25 0.00799942 1394.34
-0.0186894 8.43202e-21 0.00693288 144.508
0.0186894 0 0.00693288 162.899
-0.019034 0 0.00596484 29.0281
0.019034 -2.71051e-20 0.00596484 41.9897
-0.0199808 0 6.34714e-09 236.123
0.0199808 0 4.68271e-09 236.709
0.0193786 0 0.00498454 22.6533
-0.0193786 1.29247e-26 0.00498454 25.0429
-0.0199934 4.0823e-20 0.00116523 159.297
0.0199935 4.1359e-25 0.00116523 141.988
0.0199465 0 0.00238441 34.0925
-0.0186432 3.23117e-27 0.00753385 672.945
0.018638 -2.19181e-20 0.00760163 737.118
-0.018638 3.23117e-27 0.00760163 732.543
-0.0193661 -1.61559e-26 0.00549144 25.2723
0.0190175 2.71051e-20 0.00660576 71.9402
-0.0190175 5.42101e-20 0.00660576 50.1097
0.0200098 0 0.00234672 36.6932
-0.0200103 4.4341e-21 0.00238385 58.3815
0.0200103 0 0.00238385 33.3837
0.0193626 -6.46235e-27 0.005634 31.1847
-0.0193626 0 0.005634 25.3369
-0.0186925 0 0.00759827 685.199
0.0185453 2.71051e-20 0.00797801 1390.49
-0.0185453 0 0.00797801 1390.5
0.0185355 0 0.00831268 1385.68
-0.0185355 0 0.00831268 1385.69
0.0189879 0 0.00725654 127.398
-0.0189879 -2.71051e-20 0.00725654 118.348
-0.0193479 8.03258e-21 0.00627375 33.6127
0.0193479 0 0.00627375 48.7475
-0.0200226 0 0.00365995 29.5409
0.0200226 5.16988e-26 0.00365995 19.9336
0.019693 -2.71051e-20 0.00529521 22.6874
-0.019693 2.71051e-20 0.00529521 23.3839
0.0188066 5.70651e-21 0.00805004 1031.31
-0.0188066 0 0.00805004 1031.86
-0.0193268 3.56339e-20 0.00692069 64.5365
0.0193268 -9.78795e-21 0.00692069 78.0666
-0.0196676 0 0.00594439 24
0.0196676 -2.71051e-20 0.00594439 34.2136
0.01902 0 0.00784265 292.06
-0.01902 -2.71051e-20 0.00784265 293.708
-0.0205868 0 0.000581102 238.008
0.0205869 -5.42101e-20 0.000581094 238.379
-0.0188712 0 0.00831333 1380.88
0.0188712 0 0.00831333 1380.87
-0.0189793 -1.29247e-26 0.00812045 913.568
0.020095 0 0.00487938 22.1203
-0.020095 2.88511e-20 0.00487938 22.2976
-0.0206115 5.42101e-20 0.00176878 75.8311
0.0206115 -5.42101e-20 0.00176879 37.3086
0.0188391 0 0.00862624 1381.67
-0.0188391 -2.06795e-25 0.00862624 1381.68
0.0193074 0 0.00756039 152.319
-0.0193074 7.53401e-21 0.00756039 151.305
0.0196738 0 0.00657561 47.4753
-0.0196738 0 0.00657561 31.7775
-0.0200211 -1.61559e-27 0.00545204 22.3924
0.0200001 0 0.00561439 28.341
-0.0200001 0 0.00561439 22.4192
-0.0206346 5.42101e-20 0.00301452 28.4156
0.0206346 -5.42101e-20 0.00301452 20.2808
-0.0191902 -5.16988e-26 0.00829051 824.74
0.0196391 -2.71051e-20 0.00723369 66.0573
-0.0196391 0 0.00723369 58.6161
0.0192519 0 0.00823155 721.895
-0.0192519 1.84191e-20 0.00823155 726.936
0.0200715 -1.10809e-20 0.00617586 37.9046
-0.0200715 -1.31467e-20 0.00617586 25.5581
-0.0191557 0 0.00860727 1382.47
0.0191557 5.42101e-20 0.00860727 1382.47
-0.020483 0 0.00489641 20.9584
0.0206641 0 0.00428079 19.8813
-0.0206641 5.42101e-20 0.00428079 19.0823
0.0191433 -8.27181e-25 0.00894011 1321.4
-0.0191433 0 0.00894011 1321.4
-0.0196055 2.71051e-20 0.00788712 122.593
0.0196055 -2.71051e-20 0.00788712 112.175
-0.0199746 -2.89353e-20 0.0069041 38.4909
0.0199746 0 0.0069041 49.003
-0.0211724 0 4.27998e-09 243.525
0.0211724 0 1.71005e-09 243.816
0.0211631 9.04729e-26 0.00115311 141.462
-0.0193367 0 0.00876158 1084.62
0.0212039 -1.29247e-25 0.00111756 144.562
-0.0212049 5.00961e-21 0.00115268 154.4
0.0212049 0 0.00115268 141.443
-0.0209443 1.29247e-26 0.00364559 23.3192
0.0194188 1.41196e-20 0.0086858 979.391
-0.0194188 -8.72717e-21 0.0086858 984.114
0.0199446 0 0.00755308 69.8119
-0.0199446 2.84216e-20 0.00755308 70.5143
-0.0203041 0 0.00658402 25.6668
0.0203041 0 0.00658402 38.4029
0.0212384 1.03398e-25 0.0023678 30.0589
-0.0212384 0 0.0023678 44.1933
0.0206408 -5.42101e-20 0.00559143 28.4659
-0.0206408 -5.42101e-20 0.00559143 18.2697
-0.0196393 5.42101e-20 0.00847876 280.124
0.0196393 -2.71051e-20 0.00847876 265.553
-0.0194792 0 0.0089564 1260.29
0.0194792 -2.71051e-20 0.0089564 1260.29
-0.0212577 1.29247e-26 0.00320256 29.0697
0.0194172 -8.27181e-25 0.00928186 1135.99
-0.0194172 -1.03398e-25 0.00928186 1135.99
-0.0202831 2.71051e-20 0.00722169 38.4837
0.0202831 2.71051e-20 0.00722169 44.5628
0.0199297 0 0.00819016 135.455
-0.0199297 1.56742e-20 0.00819016 146.708
0.0206294 -3.42139e-21 0.00624638 35.7055
-0.0206294 -1.07223e-21 0.00624638 22.4093
0.0212679 0 0.00364055 23.6906
-0.0212679 -6.83962e-20 0.00364055 21.1345
-0.0215301 2.58494e-26 0.00235329 42.0501
-0.0196816 1.03398e-25 0.00904964 825.928
-0.0202625 0 0.00786089 63.4527
0.0202625 0 0.00786089 57.3691
-0.0206173 9.29029e-21 0.00689381 28.9898
0.0206173 2.7863e-20 0.00689381 40.916
0.0198766 4.62187e-21 0.00887843 591.185
-0.0198766 -8.80803e-21 0.00887843 597.337
-0.0217896 -5.42101e-20 0.000568414 249.055
0.0217897 0 0.000568406 249.267
0.0212798 0 0.00493138 28.5521
-0.0212798 0 0.00493138 18.2081
0.021848 1.03398e-25 2.31189e-32 255.68
-0.0197714 0 0.0092976 1011.56
0.0197714 2.71051e-20 0.0092976 1011.57
0.019669 0 0.00964181 1617.01
-0.019669 -1.03398e-25 0.00964181 1617
-0.0218374 -1.0842e-19 0.00173743 51.2528
0.0218374 0 0.00173743 36.9307
-0.0205995 7.55505e-21 0.0075318 43.0996
0.0205995 2.58494e-26 0.0075318 49.114
0.0209456 2.71051e-20 0.00655441 37.3962
-0.0209456 -2.71051e-20 0.00655441 21.7506
0.0202362 2.71051e-20 0.00851518 96.758
-0.0202362 -2.71051e-20 0.00851518 110.342
-0.0198664 0 0.00955623 1330.77
0.021882 5.42101e-20 0.00297573 25.5365
-0.021882 -1.0842e-19 0.00297573 20.7564
-0.0220941 -1.03398e-25 0.00112394 156.395
0.0205755 0 0.00817149 67.4243
-0.0205755 -7.31946e-21 0.00817149 67.5881
0.0209362 0 0.00721472 43.3727
-0.0209362 2.71051e-20 0.00721472 30.2509
-0.0199576 0 0.00972223 2223.04
0.0199576 0 0.00972223 2223.04
0.0200954 -2.45685e-20 0.00945691 997.488
-0.0200954 -3.02401e-20 0.00945691 998.568
0.0213454 -5.07709e-20 0.00613816 37.5253
-0.0213454 -3.05276e-20 0.00613817 21.4385
-0.0202913 2.71051e-20 0.0091201 200.101
0.0202913 0 0.0091201 196.157
-0.0222816 0 3.89898e-33 262.893
0.0199226 0 0.0100021 2020.05
-0.0199226 0 0.0100021 2020.05
0.0219071 0 0.00426287 29.1203
-0.0219071 5.42101e-20 0.00426287 16.29
-0.0212536 -2.27454e-20 0.00687047 26.0234
0.0212536 0 0.00687047 42.0156
-0.0209198 0 0.00783 40.8649
0.0209198 0 0.00783 51.3415
-0.020029 0 0.00993038 1802.42
-0.0223699 0 3.33392e-10 264.436
0.02237 0 1.24611e-09 264.847
0.0205825 0 0.00880038 112.437
-0.0205825 -6.04979e-21 0.00880038 111.017
0.0201854 -1.34644e-20 0.00982489 1482.11
-0.0201854 2.53106e-20 0.00982489 1482.32
0.0224249 -5.10023e-20 0.00111325 152.958
-0.0224249 4.90291e-20 0.00111325 157.138
0.0208973 0 0.00847326 65.1645
-0.0208973 -2.71051e-20 0.00847326 56.9232
-0.020392 -2.71051e-20 0.00967037 392.832
0.020392 5.42101e-20 0.00967037 392.209
-0.0202271 2.71051e-20 0.0100702 1816.85
0.0202271 2.71051e-20 0.0100702 1816.85
0.0224885 -3.18154e-20 0.00230562 32.3327
-0.0224885 2.66352e-20 0.00230562 35.0081
-0.0219242 5.42101e-20 0.0055407 19.1554
0.0219242 -1.0842e-19 0.0055407 36.6933
0.0206219 2.89937e-21 0.00940243 212.509
-0.0206219 -3.47442e-20 0.00940243 206.341
0.0201769 0 0.0103635 1711.82
-0.0201769 0 0.0103635 1711.82
-0.0214053 2.13007e-21 0.00750768 34.427
0.0214053 -1.29247e-26 0.00750768 49.949
-0.0212331 1.44193e-20 0.0081501 46.4978
0.0212331 0 0.0081501 58.7369
-0.0203339 0 0.0102354 1389.93
-0.0225307 5.30341e-20 0.00358481 21.3374
0.0225307 0 0.00358481 27.4666
-0.0209306 0 0.009079 74.7671
0.0209306 0 0.009079 89.7332
0.0205788 2.06795e-25 0.0100354 896.355
-0.0205788 3.3908e-20 0.0100354 887.646
0.0218832 0 0.00683353 47.5753
-0.0218832 0 0.00683353 26.4245
-0.02047 0 0.0103922 1606.71
0.02047 -5.42101e-20 0.0103922 1606.72
-0.0229945 -1.0842e-19 0.00053607 279.855
0.0229945 0 0.000536077 280.465
-0.0213123 -2.0026e-20 0.00869943 56.12
0.0213123 2.58494e-26 0.00869943 75.5465
-0.020909 2.71051e-20 0.00972034 131.579
0.020909 2.71051e-20 0.00972034 146.79
-0.0225437 2.3648e-20 0.00489464 22.9718
0.0225437 5.16988e-26 0.00489464 31.4102
0.0204318 0 0.0107257 1454.94
-0.0204318 -5.16988e-26 0.0107257 1454.93
-0.0205271 -5.16988e-26 0.0106465 1326.53
-0.0230803 0 0.00165833 42.9324
0.0230803 5.42101e-20 0.00165833 39.4708
-0.0212246 1.473e-20 0.00940472 78.976
0.0212246 2.53172e-20 0.00940472 105.297
0.0207156 1.02949e-20 0.0104897 1082.77
-0.0207156 2.66155e-20 0.0104897 1072.37
-0.0209353 0 0.0102994 279.528
0.0209353 0 0.0102994 311.398
0.0231589 0 0.00287976 27.1902
-0.0231589 5.42101e-20 0.00287976 24.6024
0.0218885 5.42101e-20 0.00814494 60.72
-0.0218885 1.0842e-19 0.00814494 39.0352
0.0225301 -4.32605e-20 0.00619313 37.6674
-0.0225301 7.79492e-21 0.00619313 30.7835
-0.0207613 -5.42101e-20 0.0107635 1303.08
0.0207613 2.71051e-20 0.0107635 1303.09
-0.0215469 -2.71051e-20 0.00909429 47.9944
0.0215469 0 0.00909429 81.136
-0.0212144 5.35599e-22 0.0100278 146.889
0.0212144 -1.03398e-25 0.0100278 181.385
0.020687 0 0.0110884 1177.07
-0.020687 0 0.0110884 1177.06
-0.020768 5.16988e-26 0.0110218 1079.57
-0.0231866 0 0.00419035 23.7185
0.0231866 0 0.00419035 28.0483
-0.0218725 1.34414e-20 0.00877017 46.7159
0.0218725 1.29247e-26 0.00877017 72.2864
-0.0235737 0 4.2994e-09 336.303
0.0235737 0 2.1284e-09 337.093
-0.0215348 -2.71051e-20 0.00971336 61.9879
0.0215348 0 0.00971337 103.928
-0.0236425 -4.5619e-20 0.00102424 195.955
0.0236425 -4.98562e-20 0.00102424 189.851
-0.0208199 0 0.0112773 1465.91
0.0211543 0 0.0107041 642.066
-0.0211543 1.63702e-20 0.0107041 614.313
0.0225191 0 0.00747875 45.3467
-0.0225191 0 0.00747875 42.094
-0.0218553 -2.44742e-20 0.00939598 55.0455
0.0218553 0 0.00939598 86.3986
0.021043 -2.71051e-20 0.011115 1051.02
-0.021043 -2.71051e-20 0.011115 1051.01
0.0231777 -5.42101e-20 0.00551979 31.6322
-0.0231777 5.42101e-20 0.00551979 32.7112
0.0209424 0 0.0114514 1732.04
-0.0209424 0 0.0114514 1732.03
0.0215108 2.71051e-20 0.0103577 152.079
-0.0215108 2.71051e-20 0.0103577 102.53
-0.0237792 -3.07401e-20 0.00216487 37.965
0.0237792 1.27384e-20 0.00216487 29.4456
0.0221872 5.42101e-20 0.00906953 70.7464
-0.0221872 -2.71051e-20 0.00906953 50.0626
-0.0218425 1.71431e-20 0.0100258 75.3934
0.0218425 -5.16988e-26 0.0100258 112.284
-0.023831 -1.57663e-20 0.00346142 28.4264
0.023831 1.03398e-25 0.00346142 25.524
-0.0229097 0 0.00747375 44.165
-0.0233352 0 0.00617516 36.7286
-0.0241362 0 0.000451692 393.355
0.0241362 5.42101e-20 0.000451689 394.33
0.0231587 5.42101e-20 0.00682378 34.7216
-0.0231587 -5.42101e-20 0.00682378 44.8407
0.0213633 -2.36557e-20 0.0112862 1110.78
-0.0213633 1.46915e-20 0.0112862 1071.98
0.0212283 -2.71051e-20 0.0115413 2413.2
-0.0212283 -2.71051e-20 0.0115413 2413.19
0.0215589 0 0.0109592 269.037
-0.0215589 -2.71051e-20 0.0109592 205.344
-0.0221622 2.71051e-20 0.00970256 60.2033
0.0221622 -5.42101e-20 0.00970256 89.7948
-0.0225915 0 0.00866816 54.4231
0.0225915 0 0.00866816 55.9778
0.021198 0 0.0118146 2253.88
-0.021198 5.16988e-26 0.0118146 2253.87
-0.0218492 -4.08441e-20 0.010651 124.505
0.0218492 0 0.010651 169.264
0.0238227 0 0.00482927 26.1898
-0.0238227 1.53048e-20 0.00482927 32.0586
-0.0224936 3.21712e-20 0.00937957 59.3254
0.0224936 0 0.00937957 71.8221
-0.0243536 5.42101e-20 0.00151158 50.465
0.0243536 0 0.00151158 27.1861
0.0214522 1.99084e-20 0.0116532 1674.03
-0.0214522 -5.17877e-21 0.0116532 1641.5
0.0221811 0 0.0103174 104.655
-0.0221811 -2.71051e-20 0.0103174 77.8006
0.0216524 -2.71051e-20 0.0115106 519.428
-0.0216524 -2.71051e-20 0.0115106 422.073
-0.0231638 5.42101e-20 0.00808475 57.8178
0.0231638 5.42101e-20 0.00808475 38.5333
-0.0238041 -3.23117e-27 0.00604676 39.4601
0.0214945 5.42101e-20 0.0118953 2094.51
-0.0214945 0 0.0118953 2094.49
0.0238023 0 0.00616473 27.6521