# omega  POINT_DATA 28416
# x  y  z  omega
0 1.74033e-09 0.049924 1928.13
0 0.000625001 0.049924 1928.13
1.03398e-25 -0.000625 0.049924 1928.13
0 0.00125 0.049924 1928.13
0 -0.00125001 0.049924 1928.13
0 0.001875 0.049924 1928.13
0 -0.00187501 0.049924 1928.13
0 0.0025 0.049924 1928.13
1.03398e-25 -0.00250001 0.049924 1928.12
1.03398e-25 -0.00261167 0.049924 1928.12
0 -0.003125 0.049924 1928.12
0 0.003125 0.049924 1928.13
-8.27181e-25 -0.00374999 0.049924 1928.12
4.1359e-25 0.00375 0.049924 1928.13
8.27181e-25 -0.00437499 0.049924 1928.13
0 0.004375 0.049924 1928.13
-2.71051e-20 -0.000312501 0.0501277 1928.12
-2.71051e-20 0.0003125 0.0501277 1928.13
-5.42101e-20 -0.000937503 0.0501277 1928.13
2.71051e-20 0.0009375 0.0501277 1928.13
-2.71051e-20 0.0015625 0.0501277 1928.13
0 -0.0015625 0.0501277 1928.12
0 -0.00499999 0.049924 1928.13
0 0.005 0.049924 1928.13
0 0.0021875 0.0501277 1928.13
-5.42101e-20 -0.0021875 0.0501277 1928.13
2.71051e-20 0.0028125 0.0501277 1928.13
0 -0.0028125 0.0501277 1928.11
-5.16988e-26 -0.0025 0.0501667 1473.61
8.27181e-25 -0.00562499 0.049924 1928.13
0 0.005625 0.049924 1928.13
2.71051e-20 0.0034375 0.0501277 1928.13
2.71051e-20 -0.0034375 0.0501277 1928.11
2.58494e-26 -0.000625002 0.0502651 1289.21
-5.16988e-26 -0.00125 0.0502597 1299.42
-2.71051e-20 -0.0040625 0.0501277 1928.12
2.71051e-20 0.0040625 0.0501277 1928.13
0 -0.001875 0.050261 1296.9
6.46235e-27 -4.38462e-10 0.0503134 1198.79
8.27181e-25 -0.00624999 0.049924 1928.13
-8.27181e-25 0.00625 0.049924 1928.13
6.46235e-27 -4.446e-10 0.0503316 1164.76
0 0.000343303 0.0503316 1164.77
-2.58494e-26 -0.000625002 0.0503316 1164.75
1.09995e-20 0.000625 0.0503316 1164.78
0 -0.0046875 0.0501277 1928.13
0 0.0046875 0.0501277 1928.13
-2.58494e-26 -0.00125 0.0503316 1164.74
5.5006e-21 0.00125 0.0503316 1164.8
7.28979e-21 0.001875 0.0503316 1164.81
-2.58494e-26 -0.001875 0.0503316 1164.71
-1.04463e-20 0.0025 0.0503316 1164.83
0 -0.0025 0.0503316 1164.69
0 -0.00687499 0.049924 1928.13
0 0.006875 0.049924 1928.13
0 -0.0053125 0.0501277 1928.12
0 0.0053125 0.0501277 1928.13
0 -0.003125 0.0503316 1164.67
1.2793e-20 0.003125 0.0503316 1164.85
0 -0.00375 0.0503316 1164.65
-2.02748e-20 0.00375 0.0503316 1164.86
2.71051e-20 -0.0059375 0.0501277 1928.12
-2.71051e-20 0.0059375 0.0501277 1928.13
0 -0.00749999 0.049924 1928.13
0 0.0075 0.049924 1928.13
3.23117e-27 0.000625 0.0505074 864.385
2.06795e-25 -0.004375 0.0503316 1164.64
-1.21631e-20 0.004375 0.0503316 1164.88
-2.71051e-20 -0.0065625 0.0501277 1928.12
-2.71051e-20 0.0065625 0.0501277 1928.13
-2.71051e-20 -0.000312501 0.0505593 383.438
-2.71051e-20 0.0003125 0.0505593 383.494
0 0.0009375 0.0505593 383.512
2.71051e-20 -0.000937501 0.0505593 383.428
2.06795e-25 -0.005 0.0503316 1164.62
4.8419e-21 0.005 0.0503316 1164.9
-8.27181e-25 -0.00812499 0.049924 1928.13
0 0.008125 0.049924 1928.13
0 0.0015625 0.0505593 383.562
0 -0.0015625 0.0505593 383.39
0 0.0021875 0.0505593 383.57
0 -0.0021875 0.0505593 383.323
2.71051e-20 0.0028125 0.0505593 383.621
2.71051e-20 -0.0028125 0.0505593 383.316
2.71051e-20 -0.0071875 0.0501277 1928.12
0 0.0071875 0.0501277 1928.13
0 -0.005625 0.0503316 1164.61
-3.26769e-20 0.005625 0.0503316 1164.92
4.1359e-25 0.00851661 0.049924 1928.13
-5.42101e-20 -0.0034375 0.0505593 383.256
-2.71051e-20 0.0034375 0.0505593 383.647
-3.23117e-27 -0.00875 0.049924 1928.13
0 0.00875 0.049924 1928.13
3.23117e-27 -0.00875 0.0499347 1908.17
0 -0.00625 0.0503316 1164.59
-1.01696e-20 0.00625 0.0503316 1164.94
0 -0.0040625 0.0505593 383.245
0 0.0040625 0.0505593 383.695
5.42101e-20 -0.0078125 0.0501277 1928.12
5.42101e-20 0.0078125 0.0501277 1928.13
1.61559e-27 0.00125 0.0507534 443.938
5.42101e-20 -0.0046875 0.0505593 383.18
2.71051e-20 0.0046875 0.0505593 383.712
0 -7.73605e-10 0.0507876 385.481
-2.58494e-26 -0.000625001 0.0507876 385.438
1.29247e-26 0.000625 0.0507876 385.521
-4.1359e-25 0.009375 0.049924 1928.13
0 -0.009375 0.049924 1928.12
-2.06795e-25 -0.006875 0.0503316 1164.58
1.55818e-20 0.006875 0.0503316 1164.95
-1.29247e-26 -0.00939015 0.049924 1928.12
0 -0.00125 0.0507876 385.415
0 0.00125 0.0507876 385.558
0 0.00132027 0.0507876 385.561
0 -0.001875 0.0507876 385.36
2.05913e-20 0.001875 0.0507876 385.59
0 -0.0084375 0.0501277 1928.12
0 0.0084375 0.0501277 1928.13
-1.29247e-26 -0.009375 0.0499636 1853.91
0 -0.0053125 0.0505593 383.176
-5.42101e-20 0.0053125 0.0505593 383.757
0 -0.0025 0.0507876 385.325
2.11114e-20 0.0025 0.0507876 385.624
-1.03398e-25 -0.003125 0.0507876 385.289
6.63864e-22 0.003125 0.0507876 385.667
1.67095e-20 -0.0075 0.0503316 1164.57
-9.71668e-21 0.0075 0.0503316 1164.97
-2.71051e-20 -0.0059375 0.0505593 383.124
2.71051e-20 0.0059375 0.0505593 383.792
8.27181e-25 -0.00999999 0.049924 1928.13
0 0.01 0.049924 1928.13
0 -0.00375 0.0507876 385.253
-8.44065e-21 0.00375 0.0507876 385.707
-2.71051e-20 -0.0090625 0.0501277 1928.12
0 0.0090625 0.0501277 1928.12
0 -0.004375 0.0507876 385.211
1.95039e-21 0.004375 0.0507876 385.743
4.28707e-21 -0.008125 0.0503316 1164.56
2.8615e-20 0.008125 0.0503316 1164.99
0 -0.0065625 0.0505593 383.12
-5.42101e-20 0.0065625 0.0505593 383.839
-2.06795e-25 0.0103586 0.049924 1928.13
0 -0.005 0.0507876 385.174
8.91297e-21 0.005 0.0507876 385.778
-8.27181e-25 -0.010625 0.049924 1928.13
0 0.010625 0.049924 1928.13
2.71051e-20 0.0003125 0.0510506 387.616
0 -0.000312501 0.0510506 387.52
-5.42101e-20 -0.0096875 0.0501277 1928.11
-2.71051e-20 0.0096875 0.0501277 1928.12
0 0.0009375 0.0510506 387.606
-2.71051e-20 -0.0009375 0.0510506 387.508
0 -0.0071875 0.0505593 383.065
-2.71051e-20 0.0071875 0.0505593 383.865
1.29247e-26 0.00867162 0.0503316 1165.01
2.71051e-20 -0.0015625 0.0510506 387.478
-2.71051e-20 0.0015625 0.0510506 387.694
0 -0.00875 0.0503316 1164.54
-1.29247e-26 0.00875 0.0503316 1165.01
-2.71051e-20 -0.0021875 0.0510506 387.393
0 0.0021875 0.0510506 387.674
1.03398e-25 -0.005625 0.0507876 385.145
1.62079e-20 0.005625 0.0507876 385.823
0 -0.0028125 0.0510506 387.409
0 0.0028125 0.0510506 387.773
8.13152e-20 0.0078125 0.0505593 383.907
0 -0.0078125 0.0505593 383.073
5.42101e-20 0.0034375 0.0510506 387.772
5.42101e-20 -0.0034375 0.0510506 387.318
0 -0.00625 0.0507876 385.114
-1.97695e-20 0.00625 0.0507876 385.867
0 -0.01125 0.049924 1928.13
0 0.01125 0.049924 1928.13
-2.71051e-20 -0.0103125 0.0501277 1928.13
0 0.0103125 0.0501277 1928.12
0 -0.009375 0.0503316 1164.52
-5.16988e-26 0.009375 0.0503316 1165.03
0 0.0040625 0.0510506 387.858
0 -0.0040625 0.0510506 387.333
-1.03398e-25 -0.006875 0.0507876 385.082
-6.27334e-21 0.006875 0.0507876 385.908
-5.42101e-20 0.0084375 0.0505593 383.946
2.71051e-20 -0.0084375 0.0505593 383.029
0 -0.0046875 0.0510506 387.228
2.71051e-20 0.0046875 0.0510506 387.85
0 -0.0109375 0.0501277 1928.12
-5.42101e-20 0.0109375 0.0501277 1928.13
0 -4.74558e-10 0.0513142 374.123
0 -0.01 0.0503316 1164.5
0 0.01 0.0503316 1165.05
0 -0.011875 0.049924 1928.13
4.1359e-25 0.011875 0.049924 1928.13
-1.29247e-26 -0.000625001 0.0513142 374.067
-6.46235e-27 0.000625 0.0513142 374.176
2.71051e-20 -0.0053125 0.0510506 387.253
-2.71051e-20 0.0053125 0.0510506 387.935
0 -0.00125 0.0513142 374.05
0 0.00125 0.0513142 374.2
-1.31677e-20 -0.0075 0.0507876 385.054
5.47919e-21 0.0075 0.0507876 385.948
0 0.00167842 0.0513142 374.216
2.58494e-26 -0.001875 0.0513142 374.044
-3.12329e-20 0.001875 0.0513142 374.223
-2.71051e-20 0.0090625 0.0505593 383.991
5.42101e-20 -0.0090625 0.0505593 383.008
-2.58494e-26 -0.0025 0.0513142 374.042
3.01122e-20 0.0025 0.0513142 374.248
2.58494e-26 0.0103628 0.0503316 1165.06
-2.71051e-20 0.0059375 0.0510506 387.953
0 -0.0059375 0.0510506 387.171
0 -0.003125 0.0513142 374.021
-1.44569e-20 0.003125 0.0513142 374.279
-2.06795e-25 0.0123678 0.049924 1928.13
1.54215e-20 -0.008125 0.0507876 385.034
1.36061e-20 0.008125 0.0507876 385.993
0 -0.010625 0.0503316 1164.48
-2.58494e-26 0.010625 0.0503316 1165.07
-2.71051e-20 -0.0115625 0.0501277 1928.12
0 0.0115625 0.0501277 1928.13
-2.58494e-26 -0.00375 0.0513142 374.001
-6.83654e-21 0.00375 0.0513142 374.306
0 0.00875 0.0507026 531.302
-4.1359e-25 -0.0125 0.049924 1928.13
0 0.0125 0.049924 1928.13
-5.42101e-20 0.0065625 0.0510506 388.029
0 -0.0065625 0.0510506 387.183
-2.71051e-20 0.0096875 0.0505593 384.023
-5.42101e-20 -0.0096875 0.0505593 382.939
-2.58494e-26 -0.004375 0.0513142 373.951
3.56784e-21 0.004375 0.0513142 374.328
1.03398e-25 0.0126555 0.049924 1928.13
0 -0.00875 0.0507876 385.003
0 0.00875 0.0507876 386.039
-2.71051e-20 0.0071875 0.0510506 388.043
-2.71051e-20 -0.0071875 0.0510506 387.102
6.46235e-27 0.00887143 0.0507876 386.047
-2.58494e-26 -0.005 0.0513142 373.903
1.17452e-20 0.005 0.0513142 374.328
-1.62185e-20 -0.01125 0.0503316 1164.46
-4.96484e-21 0.01125 0.0503316 1165.09
0 -0.0121875 0.0501277 1928.12
0 0.0121875 0.0501277 1928.13
2.71051e-20 0.0103125 0.0505593 384.062
5.42101e-20 -0.0103125 0.0505593 382.918
0 -0.0003125 0.0516082 360.202
0 0.0003125 0.0516082 360.297
2.71051e-20 0.0009375 0.0516082 360.328
-2.71051e-20 -0.0009375 0.0516082 360.179
-4.1359e-25 -0.013125 0.049924 1928.13
0 0.013125 0.049924 1928.13
5.16988e-26 -0.005625 0.0513142 373.887
-2.12278e-20 0.005625 0.0513142 374.34
2.71051e-20 -0.0015625 0.0516082 360.174
-2.71051e-20 0.0015625 0.0516082 360.31
0 -0.0078125 0.0510506 387.118
0 0.0078125 0.0510506 388.12
0 -0.009375 0.0507876 384.965
0 0.009375 0.0507876 386.081
0 0.0021875 0.0516082 360.351
-2.71051e-20 -0.0021875 0.0516082 360.274
2.71051e-20 0.0028125 0.0516082 360.33
2.71051e-20 -0.0028125 0.0516082 360.239
0 -0.00625 0.0513142 373.867
-4.33186e-20 0.00625 0.0513142 374.371
-2.06795e-25 -0.011875 0.0503316 1164.45
-1.59086e-20 0.011875 0.0503316 1165.11
5.16988e-26 0.0125 0.0501882 1433.65
2.71051e-20 0.0034375 0.0516082 360.378
-2.71051e-20 -0.0034375 0.0516082 360.266
-1.03398e-25 0.0135215 0.049924 1928.13
0 0.0109375 0.0505593 384.108
-2.71051e-20 -0.0109375 0.0505593 382.871
2.71051e-20 -0.0128125 0.0501277 1928.12
-2.71051e-20 0.0128125 0.0501277 1928.13
0 -0.0084375 0.0510506 387.056
0 0.0084375 0.0510506 388.146
0 -0.01 0.0507876 384.925
0 0.01 0.0507876 386.123
0 0.0040625 0.0516082 360.35
0 -0.0040625 0.0516082 360.233
-5.16988e-26 -0.006875 0.0513142 373.872
-2.22641e-20 0.006875 0.0513142 374.426
4.1359e-25 -0.01375 0.049924 1928.13
0 0.01375 0.049924 1928.13
-6.46235e-27 0.0102601 0.0507876 386.143
0 0.0046875 0.0516082 360.385
0 -0.0046875 0.0516082 360.157
-2.71051e-20 -0.0090625 0.0510506 387.061
-2.71051e-20 0.0090625 0.0510506 388.22
0 -0.0075 0.0513142 373.88
-3.92569e-20 0.0075 0.0513142 374.481
0 -0.0125 0.0503316 1164.43
-1.6523e-20 0.0125 0.0503316 1165.13
2.71051e-20 0.0115625 0.0505593 384.154
-2.71051e-20 -0.0115625 0.0505593 382.85
0 0.001875 0.0518452 300.394
-2.71051e-20 0.0053125 0.0516082 360.273
0 -0.0053125 0.0516082 360.119
0 -0.010625 0.0507876 384.895
-1.30433e-20 0.010625 0.0507876 386.172
2.71051e-20 0.0134375 0.0501277 1928.13
0 -0.0134375 0.0501277 1928.12
0 -1.7844e-10 0.0519027 291.503
0 -0.000625 0.0519027 292.348
0 0.000625 0.0519027 292.396
0 -0.00125 0.0519027 291.481
-3.23117e-27 0.00125 0.0519027 291.528
0 -0.001875 0.0519027 292.386
0 0.001875 0.0519027 292.394
4.03897e-28 0.00192366 0.0519027 292.326
0 -0.0059375 0.0516082 360.152
2.71051e-20 0.0059375 0.0516082 360.327
-4.1359e-25 -0.014375 0.049924 1928.13
0 0.014375 0.049924 1928.13
0 -0.008125 0.0513142 373.868
1.19982e-20 0.008125 0.0513142 374.518
2.71051e-20 -0.0096875 0.0510506 386.992
-2.71051e-20 0.0096875 0.0510506 388.238
-6.46235e-27 -0.0025 0.0519027 291.544
0 0.0025 0.0519027 291.526
3.10193e-25 0.0145022 0.049924 1928.13
0 -0.003125 0.0519027 292.414
-2.50164e-20 0.003125 0.0519027 292.39
-2.71051e-20 0.0121875 0.0505593 384.189
0 -0.0121875 0.0505593 382.8
0 -0.013125 0.0503316 1164.41
2.16198e-20 0.013125 0.0503316 1165.15
1.1293e-20 -0.01125 0.0507876 384.866
3.35908e-21 0.01125 0.0507876 386.221
-2.71051e-20 -0.0065625 0.0516082 360.111
-2.71051e-20 0.0065625 0.0516082 360.301
0 -0.00375 0.0519027 291.556
-3.96216e-20 0.00375 0.0519027 291.523
0 -0.00875 0.0513142 373.851
0 0.00875 0.0513142 374.551
-2.71051e-20 -0.0140625 0.0501277 1928.12
0 0.0140625 0.0501277 1928.13
2.71051e-20 -0.0103125 0.0510506 386.992
0 0.0103125 0.0510506 388.315
0 -0.004375 0.0519027 292.398
-3.31945e-20 0.004375 0.0519027 292.387
0 -0.0071875 0.0516082 360.245
2.71051e-20 0.0071875 0.0516082 360.457
8.07794e-28 0.00914297 0.0513142 374.569
2.58494e-26 0.01375 0.0502811 1259.75
0 0.015 0.049924 1928.13
0 -0.015 0.049924 1928.13
0 -0.005 0.0519027 291.509
-1.73339e-20 0.005 0.0519027 291.493
0 -0.011875 0.0507876 384.835
-6.39333e-22 0.011875 0.0507876 386.263
0 0.0128125 0.0505593 384.225
2.71051e-20 -0.0128125 0.0505593 382.777
2.58494e-26 -0.009375 0.0513142 373.834
1.61559e-27 0.009375 0.0513142 374.579
-1.54312e-20 -0.01375 0.0503316 1164.4
1.66868e-21 0.01375 0.0503316 1165.18
-2.71051e-20 -0.0078125 0.0516082 360.209
0 0.0078125 0.0516082 360.431
-1.00961e-20 0.005625 0.0519027 292.338
0 -0.005625 0.0519027 292.38
-2.71051e-20 -0.0109375 0.0510506 386.942
0 0.0109375 0.0510506 388.351
5.42101e-20 0.000300834 0.0522172 223.021
-5.42101e-20 -0.000300834 0.0522172 223.011
0 0.014375 0.0502015 1408.72
-2.71051e-20 -0.000949166 0.0522172 223.036
-2.71051e-20 0.000949166 0.0522172 222.971
0 -0.0146875 0.0501277 1928.12
-2.71051e-20 0.0146875 0.0501277 1928.13
2.71051e-20 -0.00155083 0.0522172 223.051
0 0.00155083 0.0522172 223.022
-2.71051e-20 0.00219917 0.0522172 222.925
0 -0.00219917 0.0522172 223.081
0 -0.00625 0.0519027 291.526
1.30773e-21 0.00625 0.0519027 291.474
0 -0.01 0.0513142 373.792
0 0.01 0.0513142 374.611
2.01948e-28 0.0100419 0.0513142 374.614
-2.71051e-20 0.00280083 0.0522172 223.016
2.71051e-20 -0.00280083 0.0522172 223.099
2.71051e-20 0.0084375 0.0516082 360.501
-2.71051e-20 -0.0084375 0.0516082 360.244
0 -0.0125 0.0507876 384.803
1.20596e-20 0.0125 0.0507876 386.303
-8.27181e-25 0.015625 0.049924 1928.13
0 -0.015625 0.049924 1928.13
0 -0.0134375 0.0505593 382.743
2.71051e-20 0.0134375 0.0505593 384.271
-2.71051e-20 0.00344917 0.0522172 222.868
5.42101e-20 -0.00344917 0.0522172 223.088
-2.71051e-20 -0.0115625 0.0510506 386.942
-2.71051e-20 0.0115625 0.0510506 388.416
0 -0.014375 0.0503316 1164.38
1.07994e-20 0.014375 0.0503316 1165.2
0 -0.006875 0.0519027 292.427
-3.84335e-20 0.006875 0.0519027 292.368
-2.71051e-20 0.00405083 0.0522172 223.015
-2.71051e-20 -0.00405083 0.0522172 223.155
-2.06795e-25 -0.0158406 0.049924 1928.13
-2.71051e-20 -0.0090625 0.0516082 360.197
0 0.0090625 0.0516082 360.463
0 -0.010625 0.0513142 373.758
1.37047e-20 0.010625 0.0513142 374.652
0 0.0153125 0.0501277 1928.13
-2.71051e-20 -0.0153125 0.0501277 1928.12
5.42101e-20 0.00469917 0.0522172 222.825
-5.42101e-20 -0.00469917 0.0522172 223.083
0 -0.0075 0.0519027 291.597
1.61454e-20 0.0075 0.0519027 291.533
0 -0.013125 0.0507876 384.78
2.01028e-20 0.013125 0.0507876 386.351
0 -0.0140625 0.0505593 382.723
-5.42101e-20 0.0140625 0.0505593 384.314
0 -0.0121875 0.0510506 386.89
2.71051e-20 0.0121875 0.0510506 388.439
0 0.00530083 0.0522172 223.007
0 -0.00530083 0.0522172 223.196
1.00974e-28 0.01 0.0515257 344.751
8.27181e-25 0.01625 0.049924 1928.13
0 -0.01625 0.049924 1928.13
0 0.0096875 0.0516082 360.522
-5.42101e-20 -0.0096875 0.0516082 360.24
-1.22108e-20 0.015 0.0503316 1165.21
0 -0.015 0.0503316 1164.37
0 -0.000625 0.0525189 197.319
-8.07794e-28 0.000625 0.0525189 197.292
-1.19502e-20 -0.01125 0.0513142 373.744
1.72911e-20 0.01125 0.0513142 374.662
0 -0.008125 0.0519027 292.465
-5.73382e-21 0.008125 0.0519027 292.408
1.61559e-27 -0.001875 0.0525189 197.357
0 0.001875 0.0525189 197.273
-2.71051e-20 0.00594917 0.0522172 222.774
0 -0.00594917 0.0522172 223.091
2.71051e-20 0.0159375 0.0501277 1928.13
-2.71051e-20 -0.0159375 0.0501277 1928.13
0 -0.003125 0.0525189 197.381
3.45643e-20 0.003125 0.0525189 197.242
1.00974e-28 0.00208582 0.052571 191.637
0 -0.0153322 0.0503316 1164.36
0 -0.01375 0.0507876 384.757
2.17706e-21 0.01375 0.0507876 386.402
0 0.00655083 0.0522172 223.011
-2.71051e-20 -0.00655083 0.0522172 223.268
0 -0.0103125 0.0516082 360.099
2.71051e-20 0.0103125 0.0516082 360.494
2.71051e-20 -0.0128125 0.0510506 386.891
-2.71051e-20 0.0128125 0.0510506 388.508
0 -0.00875 0.0519027 291.603
1.25859e-20 0.00875 0.0519027 291.542
2.58494e-26 -0.015625 0.050276 1268.58
-2.71051e-20 -0.0146875 0.0505593 382.679
-2.71051e-20 0.0146875 0.0505593 384.355
-8.49566e-22 -0.011875 0.0513142 373.73
1.37033e-20 0.011875 0.0513142 374.668
0 -4.00412e-11 0.0526734 180.605
0 -0.00125 0.0526734 180.632
0 0.00125 0.0526734 180.587
4.1359e-25 0.016875 0.049924 1928.13
-4.1359e-25 -0.016875 0.049924 1928.13
-1.61559e-27 -0.004375 0.0525189 197.402
-1.4455e-20 0.004375 0.0525189 197.224
2.56734e-20 0.015625 0.0503316 1165.23
-2.94585e-20 -0.015625 0.0503316 1164.35
7.06819e-28 0.009375 0.0518641 297.797
-5.42101e-20 -0.00719917 0.0522172 223.124
-2.71051e-20 0.00719917 0.0522172 222.731
1.61559e-27 -0.0025 0.0526734 180.667
-1.26911e-20 0.0025 0.0526734 180.564
-6.46235e-27 -0.009375 0.0519027 292.471
0 0.009375 0.0519027 292.408
0 -0.0109375 0.0516082 360.154
2.71051e-20 0.0109375 0.0516082 360.572
9.62647e-21 0.014375 0.0507876 386.45
0 -0.014375 0.0507876 384.729
0 -0.0134375 0.0510506 386.855
2.71051e-20 0.0134375 0.0510506 388.55
-5.42101e-20 0.0165625 0.0501277 1928.13
-2.71051e-20 -0.0165625 0.0501277 1928.13
0 -0.00780083 0.0522172 223.328
0 0.00780083 0.0522172 223.031
1.61559e-27 -0.00375 0.0526734 180.69
4.06689e-22 0.00375 0.0526734 180.54
0 -0.0125 0.0513142 373.72
-5.43171e-21 0.0125 0.0513142 374.699
3.67478e-20 0.005625 0.0525189 197.2
0 -0.005625 0.0525189 197.424
0 -0.0153125 0.0505593 382.653
2.71051e-20 0.0153125 0.0505593 384.388
0 -0.015 0.0506655 593.428
0 -0.0145982 0.0507876 384.719
0 -0.01 0.0519027 291.591
0 0.01 0.0519027 291.541
-5.42101e-20 -0.0115625 0.0516082 360.092
-2.71051e-20 0.0115625 0.0516082 360.429
2.35914e-20 0.01625 0.0503316 1165.26
-1.00713e-20 -0.01625 0.0503316 1164.34
-2.71051e-20 0.00844917 0.0522172 222.694
0 -0.00844917 0.0522172 223.116
-4.1359e-25 -0.0175 0.049924 1928.13
-4.1359e-25 0.0175 0.049924 1928.13
0 -0.005 0.0526734 180.705
1.10381e-21 0.005 0.0526734 180.521
0 0.0140625 0.0510506 388.623
0 -0.0140625 0.0510506 386.85
-1.80677e-21 0.015 0.0507876 386.491
1.32967e-20 -0.015 0.0507876 384.7
0 -0.013125 0.0513142 373.712
-3.4891e-20 0.013125 0.0513142 374.737
0 -0.006875 0.0525189 197.472
-1.93988e-20 0.006875 0.0525189 197.182
-6.46235e-27 -0.010625 0.0519027 292.439
-1.99154e-20 0.010625 0.0519027 292.412
-2.71051e-20 0.0171875 0.0501277 1928.13
0 -0.0171875 0.0501277 1928.13
-2.71051e-20 -0.00905083 0.0522172 223.374
0 0.00905083 0.0522172 223.031
-2.71051e-20 0.0159375 0.0505593 384.438
2.71051e-20 -0.0159375 0.0505593 382.625
0 -0.0121875 0.0516082 360.151
2.71051e-20 0.0121875 0.0516082 360.507
1.61559e-27 -0.00625 0.0526734 180.738
-1.39938e-20 0.00625 0.0526734 180.503
-3.23117e-27 -0.014375 0.0510728 378.749
1.13797e-20 0.016875 0.0503316 1165.28
-9.60315e-21 -0.016875 0.0503316 1164.33
0 0.0112363 0.0519027 291.539
0 0.01125 0.0519027 291.559
6.46235e-27 -0.01125 0.0519027 291.584
0 0.00969917 0.0522172 222.642
0 -0.00969917 0.0522172 223.114
0 -0.018125 0.049924 1928.13
0 0.018125 0.049924 1928.13
2.71051e-20 0.0146875 0.0510506 388.656
-2.71051e-20 -0.0146875 0.0510506 386.808
-2.85167e-20 0.01375 0.0513142 374.776
0 -0.01375 0.0513142 373.698
1.07099e-21 0.015625 0.0507876 386.541
-4.56418e-21 -0.015625 0.0507876 384.679
-3.23117e-27 -0.008125 0.0525189 197.493
-2.8734e-20 0.008125 0.0525189 197.176
5.42101e-20 0.000625 0.0531412 112.602
0 -0.000625 0.0531412 112.628
0 -0.0139348 0.0513142 373.696
0 0.001875 0.0531412 112.595
0 -0.001875 0.0531412 112.652
0 0.0128125 0.0516082 360.458
0 -0.0128125 0.0516082 360.105
-4.03897e-28 0.011875 0.0518336 302.026
2.71051e-20 0.0178125 0.0501277 1928.13
0 -0.0178125 0.0501277 1928.13
2.71051e-20 0.0165625 0.0505593 384.483
0 -0.0165625 0.0505593 382.605
1.3514e-20 -0.0075 0.0526734 180.774
-4.35942e-21 0.0075 0.0526734 180.495
-2.71051e-20 0.0103008 0.0522172 223.025
2.71051e-20 -0.0103008 0.0522172 223.429
0 0.003125 0.0531412 112.569
0 -0.003125 0.0531412 112.662
6.46235e-27 -0.011875 0.0519027 292.452
0 0.011875 0.0519027 292.367
-3.42184e-21 -0.0175 0.0503316 1164.31
4.44403e-22 0.0175 0.0503316 1165.3
-2.31251e-21 0.014375 0.0513142 374.814
0 -0.014375 0.0513142 373.689
2.71051e-20 0.0153125 0.0510506 388.715
-2.71051e-20 -0.0153125 0.0510506 386.804
0 -0.004375 0.0531412 112.671
-5.42101e-20 0.004375 0.0531412 112.563
-1.33148e-20 0.01625 0.0507876 386.596
1.56745e-20 -0.01625 0.0507876 384.659
-8.27181e-25 -0.01875 0.049924 1928.13
0 0.01875 0.049924 1928.13
2.71051e-20 0.0134375 0.0516082 360.548
0 -0.0134375 0.0516082 360.154
0 -0.009375 0.0525189 197.51
2.03906e-20 0.009375 0.0525189 197.153
0 0.0123461 0.0519027 291.714
0 0.0109492 0.0522172 222.582
-2.71051e-20 -0.0109492 0.0522172 223.117
-3.23117e-27 -0.0125 0.0519027 291.597
0 0.0125 0.0519027 291.501
0 -0.00875 0.0526734 180.786
-3.00533e-20 0.00875 0.0526734 180.481
-5.42101e-20 0.0171875 0.0505593 384.528
2.71051e-20 -0.0171875 0.0505593 382.572
5.42101e-20 0.0184375 0.0501277 1928.13
0 -0.0184375 0.0501277 1928.13
0 0.005625 0.0531412 112.554
0 -0.005625 0.0531412 112.682
2.77049e-21 0.015 0.0513142 374.847
-1.35708e-20 -0.015 0.0513142 373.68
-2.71051e-20 0.0115508 0.0522172 223.016
-5.42101e-20 -0.0115508 0.0522172 223.487
2.71051e-20 0.0159375 0.0510506 388.774
-5.42101e-20 -0.0159375 0.0510506 386.778
2.71051e-20 0.0140625 0.0516082 360.498
0 -0.0140625 0.0516082 360.092
-5.52763e-22 -0.018125 0.0503316 1164.3
-4.25378e-21 0.018125 0.0503316 1165.32
-4.50989e-21 -0.016875 0.0507876 384.638
1.84744e-20 0.016875 0.0507876 386.647
0 -0.01375 0.0517304 315.643
-3.19331e-20 0.013125 0.0519027 292.374
0 -0.013125 0.0519027 292.467
0 0.019375 0.049924 1928.14
8.27181e-25 -0.019375 0.049924 1928.13
0 -0.010625 0.0525189 197.538
1.04182e-20 0.010625 0.0525189 197.12
5.42101e-20 0.006875 0.0531412 112.545
0 -0.006875 0.0531412 112.715
0 -0.0178125 0.0505593 382.545
0 0.0178125 0.0505593 384.559
0 -0.01 0.0526734 180.807
1.7645e-20 0.01 0.0526734 180.454
0 0.0121992 0.0522172 222.54
-2.71051e-20 -0.0121992 0.0522172 223.119
2.71051e-20 0.0190625 0.0501277 1928.14
0 -0.0190625 0.0501277 1928.13
0 -0.0135034 0.0519027 291.95
-2.81611e-20 0.015625 0.0513142 374.912
-1.82843e-20 -0.015625 0.0513142 373.675
-5.04871e-29 0.010779 0.052557 193.007
-2.71051e-20 0.0146875 0.0516082 360.592
0 -0.0146875 0.0516082 360.166
0 0.0165625 0.0510506 388.841
-2.71051e-20 -0.0165625 0.0510506 386.773
1.30778e-20 0.01375 0.0519027 291.512
0 -0.01375 0.0519027 291.613
-2.5666e-20 -0.01875 0.0503316 1164.29
-2.81241e-21 0.01875 0.0503316 1165.34
-7.54016e-21 -0.0175 0.0507876 384.614
-6.97567e-21 0.0175 0.0507876 386.69
0 -4.30803e-12 0.0537586 82.4183
5.42101e-20 -0.008125 0.0531412 112.721
-5.42101e-20 0.008125 0.0531412 112.546
0 0.0128008 0.0522172 223.018
5.42101e-20 -0.0128008 0.0522172 223.53
0 -0.00125 0.0537586 82.4377
0 0.00125 0.0537586 82.4056
-8.27181e-25 0.02 0.049924 1928.14
0 -0.02 0.049924 1928.13
-1.26218e-29 0.00207958 0.0537586 82.3968
0 0.0125 0.0523334 229.423
0 -0.0184375 0.0505593 382.526
0 0.0184375 0.0505593 384.607
0 -0.0025 0.0537586 82.4508
2.52435e-29 0.0025 0.0537586 82.3923
-6.74473e-21 -0.01625 0.0513142 373.67
-1.13836e-21 0.01625 0.0513142 374.981
2.71051e-20 0.0153125 0.0516082 360.537
-2.71051e-20 -0.0153125 0.0516082 360.1
1.61559e-27 -0.011875 0.0525189 197.562
-4.03897e-28 0.011875 0.0525189 197.1
2.71051e-20 0.0196875 0.0501277 1928.14
2.71051e-20 -0.0196875 0.0501277 1928.13
9.56287e-21 0.014375 0.0519027 292.388
-7.19343e-22 -0.014375 0.0519027 292.486
0 -0.01125 0.0526734 180.833
0 0.01125 0.0526734 180.427
0 0.0171875 0.0510506 388.887
-2.71051e-20 -0.0171875 0.0510506 386.747
0 -0.00375 0.0537586 82.4568
-2.9814e-20 0.00375 0.0537586 82.3792
0 0.0134492 0.0522172 222.495
2.71051e-20 -0.0134492 0.0522172 223.124
4.88523e-21 -0.018125 0.0507876 384.598
-1.58748e-20 0.018125 0.0507876 386.735
4.73788e-21 -0.019375 0.0503316 1164.28
1.82166e-21 0.019375 0.0503316 1165.36
0 0.009375 0.0531412 112.531
0 -0.009375 0.0531412 112.719
0 -0.005 0.0537586 82.4625
-1.68659e-20 0.005 0.0537586 82.3737
-2.71051e-20 -0.0159375 0.0516082 360.175
-2.71051e-20 0.0159375 0.0516082 360.736
0 0.020625 0.049924 1928.14
0 -0.020625 0.049924 1928.13
2.197e-20 -0.016875 0.0513142 373.666
4.22017e-20 0.016875 0.0513142 375.021
-6.68275e-21 0.015 0.0519027 291.525
-2.45069e-20 -0.015 0.0519027 291.633
-2.71051e-20 -0.0190625 0.0505593 382.509
0 0.0190625 0.0505593 384.649
0 0.0178125 0.0510506 388.938
2.71051e-20 -0.0178125 0.0510506 386.737
-2.71051e-20 0.0140508 0.0522172 223.027
-5.42101e-20 -0.0140508 0.0522172 223.597
0 0.0203125 0.0501277 1928.14
-2.71051e-20 -0.0203125 0.0501277 1928.13
1.00974e-28 -0.00625 0.0537586 82.4795
-2.47229e-20 0.00625 0.0537586 82.367
-1.89142e-20 0.013125 0.0525189 197.08
-2.01948e-28 -0.013125 0.0525189 197.583
0 0.0126305 0.0526411 183.89
2.4349e-20 -0.0125 0.0526734 180.849
0 0.0125 0.0526734 180.411
-1.93346e-20 -0.01875 0.0507876 384.587
3.0621e-20 0.01875 0.0507876 386.787
1.49926e-21 -0.02 0.0503316 1164.27
-1.73749e-20 0.02 0.0503316 1165.38
-2.01948e-28 -0.0132423 0.0525479 194.446
-1.0842e-19 0.010625 0.0531412 112.501
0 -0.010625 0.0531412 112.745
2.71051e-20 -0.0165625 0.0516082 360.112
0 0.0165625 0.0516082 360.686
-6.42586e-21 -0.015625 0.0519027 292.506
-3.1986e-20 0.015625 0.0519027 292.429
-1.7548e-20 -0.0175 0.0513142 373.659
-1.00144e-20 0.0175 0.0513142 375.03
-2.71051e-20 -0.0146992 0.0522172 223.133
-2.71051e-20 0.0146992 0.0522172 222.457
-2.71051e-20 -0.0196875 0.0505593 382.483
0 0.0196875 0.0505593 384.693
8.27181e-25 0.02125 0.049924 1928.14
-8.27181e-25 -0.02125 0.049924 1928.13
0 0.0184375 0.0510506 388.988
0 -0.0184375 0.0510506 386.73
2.01948e-28 -0.0075 0.0537586 82.4944
-4.4273e-20 0.0075 0.0537586 82.3653
0 -0.0209375 0.0501277 1928.13
-2.71051e-20 0.0209375 0.0501277 1928.14
3.99425e-22 -0.019375 0.0507876 384.572
2.82628e-20 0.019375 0.0507876 386.838
0 0.000625 0.0543834 52.0959
5.42101e-20 -0.000625 0.0543834 52.1104
-3.46724e-21 -0.01625 0.0519027 291.658
-2.07779e-20 0.01625 0.0519027 291.593
1.1406e-20 0.020625 0.0503316 1165.4
1.4974e-21 -0.020625 0.0503316 1164.26
-2.71051e-20 -0.0171875 0.0516082 360.193
2.71051e-20 0.0171875 0.0516082 360.785
-2.71051e-20 0.0153008 0.0522172 223.037
0 -0.0153008 0.0522172 223.652
-5.42101e-20 0.001875 0.0543834 52.0925
-5.42101e-20 -0.001875 0.0543834 52.1237
2.91349e-21 -0.018125 0.0513142 373.658
-9.14996e-21 0.018125 0.0513142 375.043
-6.88535e-21 0.01375 0.0526734 180.396
-2.73642e-20 -0.01375 0.0526734 180.877
-2.92497e-21 0.014375 0.0525189 197.068
6.11428e-21 -0.014375 0.0525189 197.617
5.42101e-20 -0.011875 0.0531412 112.752
5.42101e-20 0.011875 0.0531412 112.498
-6.4148e-21 -0.00875 0.0537586 82.4946
-1.65104e-20 0.00875 0.0537586 82.361
1.03398e-25 -0.0217833 0.049924 1928.13
5.42101e-20 0.003125 0.0543834 52.0763
-5.42101e-20 -0.003125 0.0543834 52.1291
-2.71051e-20 -0.0203125 0.0505593 382.457
-2.71051e-20 0.0203125 0.0505593 384.722
-2.71051e-20 0.0190625 0.0510506 389.055
0 -0.0190625 0.0510506 386.73
0 0.021875 0.049924 1928.14
0 -0.021875 0.049924 1928.13
-5.42101e-20 0.004375 0.0543834 52.0734
-5.42101e-20 -0.004375 0.0543834 52.1284
-2.71051e-20 -0.0215625 0.0501277 1928.13
0 0.0215625 0.0501277 1928.14
3.47735e-20 -0.016875 0.0519027 292.533
1.22662e-20 0.016875 0.0519027 292.471
-1.40452e-20 -0.02 0.0507876 384.552
2.95664e-20 0.02 0.0507876 386.881
-2.71051e-20 -0.0178125 0.0516082 360.12
0 0.0178125 0.0516082 360.622
2.71051e-20 -0.0159492 0.0522172 223.143
0 0.0159492 0.0522172 222.425
1.4846e-20 -0.01875 0.0513142 373.659
-6.98445e-21 0.01875 0.0513142 375.109
-8.94844e-21 0.02125 0.0503316 1165.43
1.85774e-20 -0.02125 0.0503316 1164.25
5.42101e-20 0.005625 0.0543834 52.0692
5.42101e-20 -0.005625 0.0543834 52.1326
0 -0.01 0.0537586 82.5032
6.13705e-21 0.01 0.0537586 82.3427
0 -0.021875 0.0501258 1549.95
-1.57772e-29 0.0101291 0.0537586 82.3413
0 0.0196875 0.0510506 389.106
-2.71051e-20 -0.0196875 0.0510506 386.712
0 0.0209375 0.0505593 384.773
0 -0.0209375 0.0505593 382.442
1.0842e-19 0.013125 0.0531412 112.482
0 -0.013125 0.0531412 112.759
0 0.0225 0.049924 1928.14
0 -0.0225 0.049924 1928.13
-1.02854e-20 -0.015 0.0526734 180.905
2.35444e-21 0.015 0.0526734 180.386
-1.2604e-20 -0.0175 0.0519027 291.679
-4.11359e-20 0.0175 0.0519027 291.579
2.71051e-20 0.0165508 0.0522172 223.048
0 -0.0165508 0.0522172 223.717
1.61087e-20 -0.015625 0.0525189 197.647
-2.7251e-20 0.015625 0.0525189 197.059
2.71051e-20 -0.0184375 0.0516082 360.205
-5.42101e-20 0.0184375 0.0516082 360.73
1.70718e-20 -0.020625 0.0507876 384.538
-1.13844e-20 0.020625 0.0507876 386.931
0 0.006875 0.0543834 52.0646
0 -0.006875 0.0543834 52.1521
-2.71051e-20 -0.0221875 0.0501277 1928.13
0 0.0221875 0.0501277 1928.14
3.84231e-21 -0.019375 0.0513142 373.66
1.84698e-20 0.019375 0.0513142 375.177
-2.85324e-20 0.021875 0.0503316 1165.45
-1.41307e-20 -0.021875 0.0503316 1164.24
0 -0.01125 0.0537586 82.5148
0 0.01125 0.0537586 82.3287
0 0.0203125 0.0510506 389.158
-2.71051e-20 -0.0203125 0.0510506 386.701
-2.71051e-20 0.0215625 0.0505593 384.817
2.71051e-20 -0.0215625 0.0505593 382.427
6.31089e-30 0.00125 0.0549545 41.196
1.09429e-20 -0.018125 0.0519027 292.549
1.49494e-20 0.018125 0.0519027 292.43
0 -0.0171992 0.0522172 223.155
2.71051e-20 0.0171992 0.0522172 222.383
-3.15544e-30 -9.35839e-14 0.0549812 40.2847
-5.42101e-20 0.008125 0.0543834 52.0705
-1.0842e-19 -0.008125 0.0543834 52.1535
4.10208e-29 -0.00125 0.0549911 39.9534
0 -2.04799e-14 0.0550083 39.3491
0 -0.0190625 0.0516082 360.134
0 0.0190625 0.0516082 360.769
-8.27181e-25 0.023125 0.049924 1928.14
2.06795e-25 -0.023125 0.049924 1928.13
-6.06776e-21 -0.00125 0.0550083 39.3588
0 0.00125 0.0550083 39.3426
0 0.014375 0.0531412 112.48
0 -0.014375 0.0531412 112.784
-5.83757e-29 -0.0025 0.0549947 39.8348
-3.85301e-21 0.02125 0.0507876 386.984