# p  POINT_DATA 49394
# x  y  z  p
-0.01 -1.04067e-26 1.51748e-07 0.0169824
0.01 0 8.31199e-08 -0.00835436
-0.01 0 0.00067832 0.0169824
0.01 0 0.00067832 -0.0083544
-0.01 2.06795e-25 0.00137372 0.0169824
0.01 0 0.00137372 -0.0083544
-0.01 1.57772e-30 0.002087 0.0169824
0.01 -1.57772e-30 0.002087 -0.00835438
-0.0102613 0 0.000329046 0.0169824
0.0102613 0 0.000329046 -0.00835437
-0.0102561 -2.71051e-20 0.000988366 0.0169824
0.0102561 2.71051e-20 0.000988366 -0.00835444
-0.0102356 -2.71051e-20 0.00161953 0.0169824
0.0102356 -2.71051e-20 0.00161953 -0.00835436
0.0105293 -1.03398e-25 8.74336e-08 -0.00835433
-0.0105293 0 8.68458e-08 0.0169824
-0.0105268 -7.62371e-21 0.000638363 0.0169824
0.0105268 -1.14945e-20 0.000638363 -0.00835438
-0.0105159 0 0.0012653 0.0169824
0.0105159 -1.05474e-20 0.0012653 -0.00835441
0.0105028 -1.31836e-20 0.0017228 -0.00835439
-0.0105028 -6.15422e-21 0.0017228 0.0169824
0.010496 2.71051e-20 0.00202291 -0.00835441
-0.010496 0 0.00202291 0.0169824
0.0104977 0 0.00235078 -0.00835436
-0.0104977 0 0.00235077 0.0169824
0.0108033 2.71051e-20 0.000314595 -0.00835429
-0.0108033 2.71051e-20 0.000314595 0.0169824
0.0108031 2.71051e-20 0.00093799 -0.00835444
-0.0108031 -2.71051e-20 0.00093799 0.0169824
0.01079 5.42101e-20 0.00152732 -0.0083544
-0.01079 0 0.00152732 0.0169824
-0.0110754 0 7.54525e-09 0.0169824
0.0110754 5.16988e-26 4.96121e-09 -0.00835421
-0.0110889 0 0.000613667 0.0169824
0.0110889 7.44876e-22 0.000613666 -0.00835432
-0.0108991 2.71051e-20 0.00228385 0.0169824
0.0108991 0 0.00228385 -0.00835431
0.010988 3.33784e-20 0.00190078 -0.00835436
-0.010988 0 0.00190081 0.0169824
-0.0110831 0 0.00123268 0.0169824
0.0110831 -4.02672e-21 0.00123266 -0.00835441
0.0109863 0 0.00260985 -0.00835428
-0.0109863 0 0.00260985 0.0169824
-0.0113733 2.71051e-20 0.000305239 0.0169824
0.0113733 0 0.000305239 -0.00835414
-0.0113913 -2.71051e-20 0.000918847 0.0169824
0.0113913 2.71051e-20 0.000918847 -0.00835442
0.0112123 3.72562e-21 0.00231934 -0.00835429
-0.0112123 1.70995e-20 0.00231934 0.0169824
-0.0113682 -5.42101e-20 0.00155884 0.0169824
0.0113682 0 0.00155884 -0.00835437
-0.0114039 0 0.00209577 0.0169824
0.0114039 2.71051e-20 0.00209577 -0.00835431
0.0113392 0 0.00255892 -0.00835426
-0.0113392 -2.71051e-20 0.00255892 0.0169824
-0.0116471 2.06795e-25 3.69551e-09 0.0169824
0.0116471 0 2.16021e-09 -0.00835401
0.0116556 0 2.10937e-09 -0.00835401
-0.0116865 0 0.000598049 0.0169824
0.0116865 2.7043e-20 0.000598048 -0.0083542
-0.0117045 0 0.00122297 0.0169824
0.0117045 -1.81169e-20 0.00122297 -0.00835437
0.0114599 0 0.00285977 -0.00835418
-0.0114598 -6.61744e-24 0.00285975 0.0169824
-0.0117133 -3.30872e-24 0.00184588 0.0169824
0.0117133 2.32305e-20 0.00184588 -0.00835429
0.0116596 5.98879e-22 0.00239948 -0.00835421
-0.0116596 0 0.00239948 0.0169824
-0.0119676 2.71051e-20 0.000293859 0.0169825
0.0119676 -2.71051e-20 0.000293859 -0.00835389
0.0120131 -2.71051e-20 0.000895955 -0.00835436
-0.0120131 0 0.000895955 0.0169824
-0.0120953 0 6.93353e-10 0.0169825
0.0120433 0 0.00152444 -0.00835434
-0.0120433 2.71051e-20 0.00152444 0.0169824
-0.0118604 2.71051e-20 0.00273055 0.0169825
0.0118604 0 0.00273056 -0.00835411
0.0120387 0 0.00217273 -0.00835416
-0.0120387 -2.71051e-20 0.00217273 0.0169825
0.0122418 -2.06795e-25 1.69281e-09 -0.00835375
-0.0122418 1.03398e-25 7.11999e-10 0.0169825
-0.0122512 -1.03398e-25 8.57994e-05 0.0169825
0.0122823 0 0.000368539 -0.00835394
0.0119119 0 0.00310459 -0.00835383
-0.0119119 0 0.00310459 0.0169825
-0.0123043 -1.47189e-20 0.000568946 0.0169825
0.0123043 -7.97816e-21 0.000568944 -0.00835404
-0.0123731 5.16988e-26 1.76457e-10 0.0169825
-0.01236 -8.27181e-25 0.00118125 0.0169824
0.01236 2.40197e-20 0.00118125 -0.00835435
-0.0123814 0 0.00184434 0.0169824
0.0123814 3.68459e-20 0.00184432 -0.0083542
0.0125711 -2.71051e-20 0.000269457 -0.00835362
-0.0125711 -2.71051e-20 0.000269458 0.0169826
0.0123374 2.79124e-20 0.00258488 -0.00835384
-0.0123374 -8.03027e-21 0.00258488 0.0169825
0.0122817 0 0.00299995 -0.00835355
-0.0122817 -2.71051e-20 0.00299995 0.0169826
-0.0126475 0 0.000839063 0.0169825
0.0126475 -5.42101e-20 0.000839063 -0.00835433
0.0123472 -3.30872e-24 0.00333734 -0.00835348
-0.0123472 3.30872e-24 0.00333734 0.0169826
-0.0127108 0 0.0014705 0.0169825
0.0127108 0 0.0014705 -0.00835439
-0.0128491 0 1.64322e-09 0.0169826
0.0128491 0 4.78714e-10 -0.00835357
0.0128795 1.03398e-25 0.00024045 -0.00835375
0.0127172 0 0.00217074 -0.00835393
-0.0127172 -2.71051e-20 0.00217074 0.0169825
-0.0129129 -4.1359e-25 0.000505053 0.0169825
0.0129129 -1.07564e-21 0.000505051 -0.00835395
0.0125922 1.92386e-20 0.00303079 -0.00835349
-0.0125922 3.63744e-20 0.00303079 0.0169826
0.0130143 1.03398e-25 9.68852e-12 -0.0083539
-0.0130203 4.1359e-25 0.0010824 0.0169825
0.0130203 -2.23041e-20 0.0010824 -0.00835441
0.012793 0 0.00278388 -0.00835352
-0.012793 0 0.00278388 0.0169826
0.0127108 0 0.00327268 -0.00835342
-0.0127108 -2.71051e-20 0.00327268 0.0169826
0.0131383 0 0.000218112 -0.00835353
-0.0131383 -5.42101e-20 0.000218112 0.0169826
-0.013073 -8.27181e-25 0.00176511 0.0169825
0.013073 -1.45915e-21 0.0017651 -0.00835418
0.0127674 1.65436e-24 0.00356123 -0.0083527
-0.0127674 0 0.00356123 0.0169827
0.0132689 5.42101e-20 0.0007197 -0.00835435
-0.0132689 -2.71051e-20 0.000719701 0.0169825
0.0130872 1.12468e-20 0.00246808 -0.00835358
-0.0130872 -4.1359e-25 0.00246808 0.0169826
-0.0133746 -7.63736e-21 0.000406306 0.0169825
0.0133746 -2.46913e-21 0.000406304 -0.00835462
-0.0134599 0 3.79964e-09 0.0169825
0.0134599 -4.1359e-25 2.10898e-13 -0.00835479
0.0130916 1.51953e-21 0.00314268 -0.00835274
-0.0130916 0 0.00314268 0.0169827
-0.0134186 2.71051e-20 0.00131377 0.0169825
0.0134186 0 0.00131377 -0.00835456
-0.013075 -2.71051e-20 0.00349045 0.0169828
0.013075 2.71051e-20 0.00349045 -0.00835199
-0.0131725 0 0.00327109 0.0169828
-0.0134232 2.71051e-20 0.00207248 0.0169825
0.0134232 2.71051e-20 0.00207248 -0.00835388
0.0132045 -4.1359e-25 0.00332175 -0.00835229
-0.0132804 0 0.00312399 0.0169828
-0.0136984 2.71051e-20 0.000300358 0.0169824
0.0136984 2.71051e-20 0.000300357 -0.00835606
-0.013418 0 0.00277569 0.0169827
0.013418 0 0.00277569 -0.00835305
0.0131762 0 0.0037788 -0.00835172
-0.0131762 -1.03398e-25 0.0037788 0.016983
0.0133539 -2.06795e-25 0.00311672 -0.00835249
-0.0131995 0 0.00374163 0.0169829
0.0132257 -1.03398e-25 0.00369994 -0.00835174
-0.0135351 4.1359e-25 0.00243235 0.0169826
-0.0132228 0 0.00380696 0.016983
0.0137612 1.78009e-21 0.000786145 -0.00835553
-0.0137612 -6.02187e-21 0.000786151 0.0169825
-0.0133341 0 0.00352736 0.0169829
0.0133341 -1.24586e-20 0.00352736 -0.00835177
0.0132709 0 0.00383596 -0.00835149
0.0136439 -1.03398e-25 0.00242366 -0.0083535
0.0137678 -3.14242e-20 0.00165538 -0.00835455
-0.0137678 0 0.00165538 0.0169825
-0.013482 0 0.00331696 0.0169829
0.013482 -2.71051e-20 0.00331696 -0.00835187
-0.0137609 0 0.00192645 0.0169825
0.0137535 -1.03398e-25 0.00221656 -0.00835376
-0.0137484 -1.69965e-21 0.00241533 0.0169826
0.0137484 0 0.00241533 -0.00835348
0.013458 2.71051e-20 0.00374223 -0.00835145
-0.013458 0 0.00374223 0.016983
0.0140709 0 1.28268e-08 -0.00835663
-0.0140709 -1.65436e-24 1.00678e-08 0.0169825
-0.0137488 1.31389e-20 0.00307762 0.0169829
0.0137488 8.27181e-25 0.00307762 -0.0083521
-0.0135651 0 0.00401367 0.0169833
0.0135651 0 0.00401367 -0.00835079
0.0141231 2.71051e-20 0.00120897 -0.00835556
-0.0141231 2.71051e-20 0.00120897 0.0169825
-0.0137164 8.37686e-21 0.00361036 0.0169832
0.0137164 -2.51058e-20 0.00361035 -0.00835106
-0.014089 2.71051e-20 0.00201377 0.0169825
0.014089 -2.71051e-20 0.00201377 -0.00835426
0.0142657 -2.71051e-20 0.000418222 -0.00835721
-0.0142657 5.42101e-20 0.000418222 0.0169827
-0.014069 -2.71051e-20 0.0027392 0.0169827
0.014069 0 0.0027392 -0.0083528
0.0138967 -5.42101e-20 0.00392747 -0.00835012
-0.0138967 -2.71051e-20 0.00392747 0.0169835
-0.0143573 1.29247e-26 0.00161906 0.0169824
0.0140496 0 0.00340311 -0.00835075
-0.0140496 -2.71051e-20 0.00340311 0.0169832
0.014441 -2.03528e-21 0.00161391 -0.00835511
-0.014441 0 0.00161391 0.0169824
-0.0144492 -5.16988e-26 0.00155016 0.0169824
0.0145429 -4.79268e-21 0.000823371 -0.00835694
-0.0145429 0 0.000823363 0.0169821
-0.0139237 8.27181e-25 0.00428406 0.016984
0.0139237 -8.27181e-25 0.00428406 -0.00834962
0.0144036 0 0.00226571 -0.00835377
-0.014397 5.18146e-21 0.00237994 0.0169826
0.014397 1.03398e-25 0.00237994 -0.00835353
-0.0143653 -1.33755e-21 0.00309536 0.016983
0.0143653 0 0.00309537 -0.00835184
0.0147022 1.65436e-24 1.97585e-08 -0.00835783
-0.0147022 1.65436e-24 1.20797e-08 0.0169819
-0.014305 1.02024e-20 0.00382188 0.0169838
0.014305 0 0.00382188 -0.00834984
0.0146205 0 0.00235653 -0.00835365
-0.0142451 0 0.00421792 0.0169843
0.0142451 0 0.00421792 -0.00834913
0.0147298 2.71051e-20 0.00200539 -0.00835412
-0.0147298 0 0.00200539 0.0169824
-0.0148165 0 0.00124392 0.0169821
0.0148165 2.71051e-20 0.00124392 -0.00835654
-0.0148637 1.03398e-25 0.000885861 0.0169817
-0.0149583 8.27181e-25 2.99823e-17 0.0169813
-0.014711 2.71051e-20 0.00272495 0.0169827
0.014711 0 0.00272495 -0.00835297
0.0149557 2.71051e-20 0.000461619 -0.00835842
-0.0149557 0 0.000461616 0.0169811
-0.0142802 0 0.00455258 0.0169845
0.0142802 0 0.00455258 -0.00834911
-0.0146561 0 0.00344874 0.0169834
0.0146561 2.71051e-20 0.00344874 -0.00835094
-0.014516 1.96455e-20 0.0042716 0.0169845
0.014516 1.27129e-20 0.0042716 -0.00834889
0.0150861 3.4883e-20 0.00165187 -0.00835549
-0.0150861 2.49374e-21 0.00165188 0.0169823
-0.014707 0 0.0040482 0.0169844
0.014707 -2.71051e-20 0.0040482 -0.00834843
-0.0151175 2.3037e-21 0.00230446 0.0169825
0.0151175 0 0.00230446 -0.00835392
0.0150721 1.03398e-25 0.00259452 -0.00835329
0.0146108 0 0.00452168 -0.00834908
-0.0146108 2.71051e-20 0.00452168 0.0169846
0.0152997 0 4.97166e-18 -0.00835849
-0.0149933 6.47269e-21 0.00309786 0.0169831
0.0149933 0 0.00309786 -0.00835219
0.0153681 -2.06795e-25 0.000180865 -0.00835837
0.0153398 -1.15789e-20 0.00097864 -0.00835746
-0.0153398 4.20663e-21 0.000978636 0.0169812
-0.0153745 -1.65436e-24 2.26327e-08 0.0169804
0.0153745 2.06795e-25 1.33475e-09 -0.00835858
0.0146354 4.1359e-25 0.00482017 -0.0083503
-0.0146354 0 0.00482017 0.0169851
0.015424 -2.06795e-24 -4.9124e-19 -0.00835866
-0.0149803 -9.4464e-21 0.0037633 0.016984
0.0149803 0 0.0037633 -0.00835059
0.0153272 0 0.00275021 -0.0083534
-0.0153272 2.71051e-20 0.00275021 0.0169826
-0.0149658 1.916e-20 0.00441692 0.016985
0.0149658 -8.27181e-25 0.00441693 -0.00835047
0.014927 0 0.00477487 -0.0083515
-0.014927 5.42101e-20 0.00477488 0.0169855
0.0152999 2.71051e-20 0.00342236 -0.00835147
-0.0152999 -2.71051e-20 0.00342236 0.0169836
0.015716 1.0842e-19 0.00173426 -0.00835595
-0.015716 -5.42101e-20 0.00173426 0.0169821
0.0152841 2.71051e-20 0.00407715 -0.00835172
-0.0152841 2.71051e-20 0.00407715 0.0169844
0.0149898 0 0.00508707 -0.00835255
-0.0149898 0 0.00508707 0.0169857
0.0156647 0 0.00240043 -0.00835699
-0.0156647 3.11249e-20 0.00240043 0.0169823
0.0158727 0 0.000520994 -0.00835885
-0.0158727 -5.42101e-20 0.000520994 0.0169792
0.0156276 -2.58494e-26 0.00300563 -0.00835527
-0.0151702 7.21881e-21 0.00482145 0.0169857
0.0151702 -8.87193e-21 0.00482145 -0.00835222
-0.015623 -1.7895e-20 0.00308126 0.0169832
0.015623 -2.58494e-26 0.00308126 -0.00835506
-0.0153271 0 0.00461022 0.0169856
0.0153271 -2.71051e-20 0.00461022 -0.00835158
-0.0156022 1.95215e-22 0.00374982 0.0169842
0.0156022 0 0.00374982 -0.0083537
0.015269 2.71051e-20 0.00505544 -0.00835358
-0.015269 2.71051e-20 0.00505544 0.0169858
0.0157907 0 0.00307512 -0.00835689
-0.0152587 0 0.00528964 0.0169859
-0.0159605 0 0.00272817 0.0169821
0.0159605 0 0.00272817 -0.0083609
-0.0155971 4.34063e-21 0.0043751 0.0169851
0.0155971 0 0.0043751 -0.00835438
-0.0153431 -5.16988e-26 0.00535318 0.016986
0.0153431 2.58494e-26 0.00535318 -0.00835576
-0.0153741 -5.16988e-26 0.0052828 0.016986
0.0159183 2.71051e-20 0.00340547 -0.00835462
-0.0159183 2.71051e-20 0.00340547 0.0169842
-0.0155359 -1.50518e-20 0.00491577 0.0169859
0.0155359 -6.65301e-21 0.00491577 -0.00835513
-0.0159245 0 0.00405169 0.0169846
0.0159245 0 0.00405169 -0.00835695
0.0163947 6.3654e-20 0.00113361 -0.00836041
-0.0163947 0 0.0011336 0.0169798
0.0164795 0 3.15332e-08 -0.00836034
-0.0164795 -1.65436e-24 8.8495e-09 0.0169781
0.0162478 0 0.00305839 -0.00836189
-0.0162478 2.58494e-26 0.00305839 0.0169829
-0.0163779 3.29846e-20 0.00230525 0.0169819
0.0163779 1.22973e-20 0.00230525 -0.00836369
0.0156904 -2.71051e-20 0.00524875 -0.00835792
-0.0156904 0 0.00524875 0.0169861
-0.0158759 -2.71051e-20 0.00471202 0.0169858
0.0158759 2.71051e-20 0.00471202 -0.00835772
0.0162919 2.58494e-26 0.00348864 -0.00836204
0.0156951 0 0.00561829 -0.00836315
-0.0156951 -2.06795e-25 0.00561829 0.0169854
-0.0163084 0 0.00364992 0.0169841
0.0163084 0 0.00364992 -0.00836209
-0.016199 -1.98035e-20 0.00441125 0.0169848
0.016199 1.85211e-20 0.00441125 -0.00836277
-0.0159841 -1.03398e-25 0.00528499 0.0169853
0.0161146 2.72194e-20 0.00513441 -0.00836488
-0.0161146 -1.09677e-20 0.00513441 0.0169852
-0.016031 0 0.0055414 0.0169847
0.016031 2.71051e-20 0.0055414 -0.00836836
0.0165686 -2.58494e-26 0.00368644 -0.00836963
-0.0169814 -4.1359e-25 0.00114599 0.0169784
0.0165301 2.71051e-20 0.00408038 -0.00836743
-0.0165301 -5.42101e-20 0.00408038 0.0169845
-0.0170241 5.42101e-20 0.000577601 0.0169769
0.0170241 0 0.000577602 -0.00836181
0.0169741 -5.42101e-20 0.00175445 -0.00836489
-0.0169741 0 0.00175445 0.0169811
0.0160456 -4.1359e-25 0.00588233 -0.00836943
-0.0160456 0 0.00588233 0.0169845
-0.0167319 2.58494e-26 0.00370936 0.0169825
0.0168708 0 0.00304668 -0.00837483
-0.0168708 0 0.00304668 0.0169823
0.0164827 2.71051e-20 0.00476235 -0.00836918
-0.0164827 0 0.00476235 0.0169843
-0.0171727 -8.27181e-25 1.12492e-20 0.0169766
-0.0163092 0 0.00559034 0.0169847
0.0163092 -1.14857e-20 0.00559034 -0.00837006
-0.0163185 0 0.0055934 0.0169846
0.0168571 0 0.00372694 -0.00837799
-0.0168571 0 0.00372694 0.016982
-0.0168443 0 0.00404208 0.0169821
0.0168402 0 0.00414304 -0.00837818
0.0165194 0 0.0053648 -0.00837137
-0.0165194 -2.71051e-20 0.0053648 0.0169851
-0.0168293 -8.20953e-21 0.00441207 0.0169821
0.0168293 2.58494e-26 0.00441207 -0.00837831
-0.016393 0 0.00584515 0.0169843
0.016393 2.71051e-20 0.00584515 -0.00837049
0.0163955 -4.1359e-25 0.00614428 -0.00837888
-0.0163955 4.1359e-25 0.00614428 0.0169809
-0.0168096 -1.92126e-20 0.00506989 0.0169822
0.0168096 0 0.00506989 -0.00837842
0.017623 0 1.28629e-08 -0.0083635
-0.017623 0 6.37354e-09 0.0169756
0.0175916 1.95595e-20 0.00115888 -0.00836917
-0.0175916 0 0.00115887 0.0169769
-0.0171737 -2.71051e-20 0.004052 0.0169795
0.0171737 -2.71051e-20 0.004052 -0.00838991
0.0175442 8.6552e-21 0.00239621 -0.00838497
-0.0175442 2.06795e-25 0.00239621 0.0169768
-0.0167484 0 0.00577139 0.0169805
0.0167746 2.69232e-21 0.00574376 -0.00838129
-0.0167746 1.79837e-20 0.00574376 0.0169805
-0.0172119 1.29247e-26 0.00439474 0.0169787
0.0171404 2.71051e-20 0.0047287 -0.00838687
-0.0171404 -2.71051e-20 0.0047287 0.0169801
0.016705 0 0.00611265 -0.00838726
-0.016705 2.71051e-20 0.00611265 0.0169775
-0.0174986 0 0.00354411 0.0169761
0.0174986 -1.80555e-20 0.00354411 -0.0083981
0.0167191 0 0.00643602 -0.00838749
-0.0167191 4.1359e-25 0.00643602 0.0169767
-0.0171168 -5.42101e-20 0.00539052 0.0169788
0.0171168 0 0.00539052 -0.0083869
0.0174399 1.13091e-26 0.00438441 -0.00839775
-0.0174702 -1.29247e-26 0.00438304 0.0169763
0.0174702 0 0.00438304 -0.00839872
0.0174674 -8.07794e-28 0.00447207 -0.00839838
-0.0169625 2.58494e-26 0.00618381 0.0169767
0.0169667 3.76595e-21 0.00617943 -0.00838862
-0.0169667 -2.38953e-20 0.00617943 0.0169767
-0.0174615 0 0.00465962 0.0169759
0.0176237 0 0.00437799 -0.00840381
-0.0174493 3.93609e-22 0.00505023 0.0169753
0.0174493 6.46235e-27 0.00505023 -0.00839617
0.0171679 2.71051e-20 0.00597129 -0.00839095
-0.0171679 -5.42101e-20 0.00597129 0.0169768
0.0182005 5.42101e-20 0.000583381 -0.00836522
-0.0182005 0 0.000583381 0.0169743
-0.017043 -5.42101e-20 0.00643779 0.016976
0.017043 0 0.00643779 -0.00838772
-0.0177879 2.71051e-20 0.00403219 0.0169738
0.0177879 0 0.00403219 -0.00840976
0.0181761 0 0.00178292 -0.00838506
-0.0181761 0 0.00178292 0.0169753
0.0170214 0 0.00674884 -0.00839258
-0.0170214 4.1359e-25 0.00674884 0.0169713
-0.0174458 -3.58295e-20 0.00568734 0.0169738
0.0174458 0 0.00568734 -0.00839439
-0.0177804 0 0.00470438 0.016972
0.0177804 5.42101e-20 0.00470438 -0.00840824
0.0181642 -5.42101e-20 0.00305697 -0.00841563
-0.0181642 0 0.00305697 0.0169685
-0.0181317 -1.03398e-25 0.00370155 0.0169635
0.0181317 -1.5534e-20 0.00370155 -0.00842081
-0.0173841 -2.58494e-26 0.00637902 0.0169709
0.01741 0 0.00635261 -0.00839431
-0.01741 1.97626e-20 0.00635261 0.0169709
0.0177702 0 0.00535529 -0.0084028
-0.0177702 -5.42101e-20 0.00535529 0.0169704
-0.0173274 2.71051e-20 0.00672747 0.0169668
0.0173274 2.71051e-20 0.00672747 -0.00839743
0.0181109 3.23117e-27 0.00427061 -0.00841999
-0.0181076 2.58494e-26 0.00436205 0.0169633
0.0181076 3.23117e-27 0.00436205 -0.00841986
0.0173238 -4.1359e-25 0.00706119 -0.00839592
-0.0173238 0 0.00706119 0.016967
0.0177503 -2.71051e-20 0.00600627 -0.00839739
-0.0177503 -2.71051e-20 0.00600627 0.0169686
-0.0180996 0 0.004908 0.0169636
-0.018098 0 0.00501826 0.0169637
0.018098 6.46235e-27 0.00501826 -0.00841414
-0.0187969 0 8.75982e-09 0.0169728
0.0187969 0 7.97307e-09 -0.00836383
-0.0187878 0 0.0011673 0.0169701
0.0187878 6.38133e-20 0.0011673 -0.00837751
-0.0175851 -1.32765e-20 0.00679799 0.0169667
0.0175851 1.62869e-20 0.00679799 -0.00839681
0.0184432 -2.71051e-20 0.00401963 -0.00843436
-0.0184432 0 0.00401963 0.0169508
-0.0187844 0 0.00239454 0.0169589
0.0187844 3.67785e-21 0.00239454 -0.00840862
-0.0180831 8.89837e-21 0.00566925 0.0169632
0.0180831 0 0.00566925 -0.00840598
0.0177912 -5.42101e-20 0.00658995 -0.00839864
-0.0177912 0 0.00658995 0.0169659
0.0184158 0 0.00467993 -0.00842694
-0.0184158 0 0.00467993 0.0169568
0.0176529 -2.71051e-20 0.00706043 -0.00839439
-0.0176529 -2.71051e-20 0.00706043 0.0169673
-0.0183917 -9.69352e-27 0.00497632 0.0169561
0.0176264 0 0.00737367 -0.00839688
-0.0176264 0 0.00737367 0.0169626
-0.0180712 -1.00601e-20 0.00630777 0.0169629
0.0180712 -1.29247e-26 0.00630777 -0.00839979
0.0184261 0 0.0053197 -0.00841842
-0.0184261 -2.71051e-20 0.0053197 0.0169556
-0.0188515 6.93363e-20 0.00360143 0.0169436
0.0188515 4.94336e-20 0.00360143 -0.00843308
0.0188419 1.61559e-27 0.00367156 -0.00843318
0.0188873 9.69352e-27 0.00360322 -0.00843316
-0.0187497 -1.00536e-20 0.00434473 0.0169455
0.0187497 0 0.00434473 -0.00843411
-0.0180116 0 0.00698921 0.0169615
0.018025 0 0.00697581 -0.00839769
-0.018025 -6.07232e-21 0.00697581 0.0169615
0.0183967 0 0.00598007 -0.00840567
-0.0183967 0 0.00598007 0.0169577
0.0179363 0 0.0073519 -0.00839937
-0.0179363 2.71051e-20 0.0073519 0.0169579
-0.0193896 5.42101e-20 0.000584898 0.0169713
0.0193896 5.42101e-20 0.000584906 -0.00836244
-0.0180825 0 0.00712629 0.0169604
0.0188216 0 0.00491492 -0.00842755
-0.0188216 0 0.00491492 0.0169449
-0.0193933 -1.0842e-19 0.00177944 0.0169598
0.0193933 0 0.00177943 -0.00839795
-0.0187813 0 0.00522889 0.0169466
0.0179292 -4.1359e-25 0.00768641 -0.00839812
-0.0179292 0 0.00768641 0.0169589
0.018369 -2.71051e-20 0.00663164 -0.0083977
-0.018369 0 0.00663164 0.0169588
-0.0187273 -1.3372e-20 0.00564917 0.016949
0.0187273 0 0.00564917 -0.00841535
0.0194147 5.42101e-20 0.00301348 -0.00843651
-0.0194147 -5.42101e-20 0.00301348 0.0169321
0.0181958 1.14341e-20 0.00742304 -0.00839826
-0.0181958 -3.90067e-21 0.00742304 0.0169583
-0.0187015 -1.13832e-20 0.00629873 0.0169528
0.0187015 0 0.00629873 -0.0084032
0.0184056 0 0.00721495 -0.00839853
-0.0184056 0 0.00721495 0.016957
0.0190533 0 0.0053245 -0.00842658
-0.0190533 -5.42101e-20 0.0053245 0.016938
0.0182616 2.71051e-20 0.0076859 -0.00839687
-0.0182616 2.71051e-20 0.0076859 0.0169599
0.0193893 5.42101e-20 0.0043251 -0.00844506
-0.0193893 -1.0842e-19 0.0043251 0.0169186
0.0182322 -4.1359e-25 0.00799942 -0.00839769
-0.0182322 4.1359e-25 0.00799942 0.0169564
-0.0186894 8.43202e-21 0.00693288 0.016955
0.0186894 0 0.00693288 -0.00839772
-0.019034 0 0.00596484 0.0169445
0.019034 -2.71051e-20 0.00596484 -0.0084106
-0.0199808 0 6.34714e-09 0.0169689
0.0199808 0 4.68271e-09 -0.00835064
0.0193786 0 0.00498454 -0.00842964
-0.0193786 1.29247e-26 0.00498454 0.016925
-0.0199934 4.0823e-20 0.00116523 0.0169582
0.0199935 4.1359e-25 0.00116523 -0.00836943
0.0199465 0 0.00238441 -0.00840946
-0.0186432 3.23117e-27 0.00753385 0.0169553
0.018638 -2.19181e-20 0.00760163 -0.00839734
-0.018638 3.23117e-27 0.00760163 0.0169554
-0.0193661 -1.61559e-26 0.00549144 0.0169305
0.0190175 2.71051e-20 0.00660576 -0.00839893
-0.0190175 5.42101e-20 0.00660576 0.0169499
0.0200098 0 0.00234672 -0.00840829
-0.0200103 4.4341e-21 0.00238385 0.0169301
0.0200103 0 0.00238385 -0.00840951
0.0193626 -6.46235e-27 0.005634 -0.00841782
-0.0193626 0 0.005634 0.0169321
-0.0186925 0 0.00759827 0.0169551
0.0185453 2.71051e-20 0.00797801 -0.00839851
-0.0185453 0 0.00797801 0.0169529
0.0185355 0 0.00831268 -0.00839811
-0.0185355 0 0.00831268 0.0169542
0.0189879 0 0.00725654 -0.00839568
-0.0189879 -2.71051e-20 0.00725654 0.0169537
-0.0193479 8.03258e-21 0.00627375 0.0169409
0.0193479 0 0.00627375 -0.00840416
-0.0200226 0 0.00365995 0.0169063
0.0200226 5.16988e-26 0.00365995 -0.00843558
0.019693 -2.71051e-20 0.00529521 -0.00842352
-0.019693 2.71051e-20 0.00529521 0.0169164
0.0188066 5.70651e-21 0.00805004 -0.00839773
-0.0188066 0 0.00805004 0.0169538
-0.0193268 3.56339e-20 0.00692069 0.0169481
0.0193268 -9.78795e-21 0.00692069 -0.00839626
-0.0196676 0 0.00594439 0.0169294
0.0196676 -2.71051e-20 0.00594439 -0.00841048
0.01902 0 0.00784265 -0.00839692
-0.01902 -2.71051e-20 0.00784265 0.0169531
-0.0205868 0 0.000581102 0.0169665
0.0205869 -5.42101e-20 0.000581094 -0.0083388
-0.0188712 0 0.00831333 0.0169556
0.0188712 0 0.00831333 -0.00839771
-0.0189793 -1.29247e-26 0.00812045 0.0169536
0.020095 0 0.00487938 -0.00842876
-0.020095 2.88511e-20 0.00487938 0.016906
-0.0206115 5.42101e-20 0.00176878 0.0169351
0.0206115 -5.42101e-20 0.00176879 -0.0083793
0.0188391 0 0.00862624 -0.00839843
-0.0188391 -2.06795e-25 0.00862624 0.0169535
0.0193074 0 0.00756039 -0.00839538
-0.0193074 7.53401e-21 0.00756039 0.0169524
0.0196738 0 0.00657561 -0.00839654
-0.0196738 0 0.00657561 0.0169396
-0.0200211 -1.61559e-27 0.00545204 0.0169152
0.0200001 0 0.00561439 -0.00841629
-0.0200001 0 0.00561439 0.0169177
-0.0206346 5.42101e-20 0.00301452 0.0168928
0.0206346 -5.42101e-20 0.00301452 -0.00842469
-0.0191902 -5.16988e-26 0.00829051 0.0169533
0.0196391 -2.71051e-20 0.00723369 -0.00839388
-0.0196391 0 0.00723369 0.016949
0.0192519 0 0.00823155 -0.00839738
-0.0192519 1.84191e-20 0.00823155 0.0169533
0.0200715 -1.10809e-20 0.00617586 -0.00840272
-0.0200715 -1.31467e-20 0.00617586 0.0169281
-0.0191557 0 0.00860727 0.0169514
0.0191557 5.42101e-20 0.00860727 -0.00839915
-0.020483 0 0.00489641 0.0169001
0.0206641 0 0.00428079 -0.00843624
-0.0206641 5.42101e-20 0.00428079 0.0168822
0.0191433 -8.27181e-25 0.00894011 -0.00839946
-0.0191433 0 0.00894011 0.0169524
-0.0196055 2.71051e-20 0.00788712 0.0169536
0.0196055 -2.71051e-20 0.00788712 -0.00839487
-0.0199746 -2.89353e-20 0.0069041 0.0169413
0.0199746 0 0.0069041 -0.00839387
-0.0211724 0 4.27998e-09 0.0169666
0.0211724 0 1.71005e-09 -0.008311
0.0211631 9.04729e-26 0.00115311 -0.008332
-0.0193367 0 0.00876158 0.0169525
0.0212039 -1.29247e-25 0.00111756 -0.00833006
-0.0212049 5.00961e-21 0.00115268 0.0169484
0.0212049 0 0.00115268 -0.00833066
-0.0209443 1.29247e-26 0.00364559 0.0168893
0.0194188 1.41196e-20 0.0086858 -0.00839896
-0.0194188 -8.72717e-21 0.0086858 0.0169525
0.0199446 0 0.00755308 -0.00839293
-0.0199446 2.84216e-20 0.00755308 0.0169505
-0.0203041 0 0.00658402 0.0169311
0.0203041 0 0.00658402 -0.00839448
0.0212384 1.03398e-25 0.0023678 -0.00837532
-0.0212384 0 0.0023678 0.0169095
0.0206408 -5.42101e-20 0.00559143 -0.00841338
-0.0206408 -5.42101e-20 0.00559143 0.0169013
-0.0196393 5.42101e-20 0.00847876 0.0169526
0.0196393 -2.71051e-20 0.00847876 -0.0083979
-0.0194792 0 0.0089564 0.0169534
0.0194792 -2.71051e-20 0.0089564 -0.00839977
-0.0212577 1.29247e-26 0.00320256 0.0168924
0.0194172 -8.27181e-25 0.00928186 -0.00840121
-0.0194172 -1.03398e-25 0.00928186 0.0169529
-0.0202831 2.71051e-20 0.00722169 0.0169455
0.0202831 2.71051e-20 0.00722169 -0.00839059
0.0199297 0 0.00819016 -0.00839595
-0.0199297 1.56742e-20 0.00819016 0.0169536
0.0206294 -3.42139e-21 0.00624638 -0.00839506
-0.0206294 -1.07223e-21 0.00624638 0.0169251
0.0212679 0 0.00364055 -0.00841004
-0.0212679 -6.83962e-20 0.00364055 0.0168833
-0.0215301 2.58494e-26 0.00235329 0.0169134
-0.0196816 1.03398e-25 0.00904964 0.0169532
-0.0202625 0 0.00786089 0.0169536
0.0202625 0 0.00786089 -0.00839237
-0.0206173 9.29029e-21 0.00689381 0.0169388
0.0206173 2.7863e-20 0.00689381 -0.00839038
0.0198766 4.62187e-21 0.00887843 -0.00840002
-0.0198766 -8.80803e-21 0.00887843 0.0169534
-0.0217896 -5.42101e-20 0.000568414 0.0169668
0.0217897 0 0.000568406 -0.00828313
0.0212798 0 0.00493138 -0.00841377
-0.0212798 0 0.00493138 0.016888
0.021848 1.03398e-25 2.31189e-32 -0.00827583
-0.0197714 0 0.0092976 0.0169523
0.0197714 2.71051e-20 0.0092976 -0.00840265
0.019669 0 0.00964181 -0.00840472
-0.019669 -1.03398e-25 0.00964181 0.0169524
-0.0218374 -1.0842e-19 0.00173743 0.0169248
0.0218374 0 0.00173743 -0.00832233
-0.0205995 7.55505e-21 0.0075318 0.0169506
0.0205995 2.58494e-26 0.0075318 -0.00839006
0.0209456 2.71051e-20 0.00655441 -0.00838486
-0.0209456 -2.71051e-20 0.00655441 0.0169333
0.0202362 2.71051e-20 0.00851518 -0.00839842
-0.0202362 -2.71051e-20 0.00851518 0.0169546
-0.0198664 0 0.00955623 0.0169527
0.021882 5.42101e-20 0.00297573 -0.00837549
-0.021882 -1.0842e-19 0.00297573 0.016885
-0.0220941 -1.03398e-25 0.00112394 0.0169637
0.0205755 0 0.00817149 -0.00839468
-0.0205755 -7.31946e-21 0.00817149 0.0169556
0.0209362 0 0.00721472 -0.00839139
-0.0209362 2.71051e-20 0.00721472 0.0169455
-0.0199576 0 0.00972223 0.0169524
0.0199576 0 0.00972223 -0.0084068
0.0200954 -2.45685e-20 0.00945691 -0.00840432
-0.0200954 -3.02401e-20 0.00945691 0.0169531
0.0213454 -5.07709e-20 0.00613816 -0.00839732
-0.0213454 -3.05276e-20 0.00613817 0.0169191
-0.0202913 2.71051e-20 0.0091201 0.0169541
0.0202913 0 0.0091201 -0.00840114
-0.0222816 0 3.89898e-33 0.0169882
0.0199226 0 0.0100021 -0.00840988
-0.0199226 0 0.0100021 0.0169524
0.0219071 0 0.00426287 -0.00840314
-0.0219071 5.42101e-20 0.00426287 0.0168734
-0.0212536 -2.27454e-20 0.00687047 0.016939
0.0212536 0 0.00687047 -0.00839017
-0.0209198 0 0.00783 0.0169577
0.0209198 0 0.00783 -0.00838607
-0.020029 0 0.00993038 0.0169526
-0.0223699 0 3.33392e-10 0.0169899
0.02237 0 1.24611e-09 -0.00824865
0.0205825 0 0.00880038 -0.0084005
-0.0205825 -6.04979e-21 0.00880038 0.0169555
0.0201854 -1.34644e-20 0.00982489 -0.0084087
-0.0201854 2.53106e-20 0.00982489 0.0169528
0.0224249 -5.10023e-20 0.00111325 -0.00826732
-0.0224249 4.90291e-20 0.00111325 0.0169694
0.0208973 0 0.00847326 -0.00840158
-0.0208973 -2.71051e-20 0.00847326 0.0169565
-0.020392 -2.71051e-20 0.00967037 0.0169534
0.020392 5.42101e-20 0.00967037 -0.00840629
-0.0202271 2.71051e-20 0.0100702 0.0169524
0.0202271 2.71051e-20 0.0100702 -0.00841297
0.0224885 -3.18154e-20 0.00230562 -0.00831664
-0.0224885 2.66352e-20 0.00230562 0.0169262
-0.0219242 5.42101e-20 0.0055407 0.0168949
0.0219242 -1.0842e-19 0.0055407 -0.00840221
0.0206219 2.89937e-21 0.00940243 -0.00840421
-0.0206219 -3.47442e-20 0.00940243 0.0169545
0.0201769 0 0.0103635 -0.00841614
-0.0201769 0 0.0103635 0.0169513
-0.0214053 2.13007e-21 0.00750768 0.0169513
0.0214053 -1.29247e-26 0.00750768 -0.0083925
-0.0212331 1.44193e-20 0.0081501 0.0169586
0.0212331 0 0.0081501 -0.00839511
-0.0203339 0 0.0102354 0.0169517
-0.0225307 5.30341e-20 0.00358481 0.0168945
0.0225307 0 0.00358481 -0.00836768
-0.0209306 0 0.009079 0.0169566
0.0209306 0 0.009079 -0.00840083
0.0205788 2.06795e-25 0.0100354 -0.00841336
-0.0205788 3.3908e-20 0.0100354 0.0169524
0.0218832 0 0.00683353 -0.00839708
-0.0218832 0 0.00683353 0.0169382
-0.02047 0 0.0103922 0.0169502
0.02047 -5.42101e-20 0.0103922 -0.00841931
-0.0229945 -1.0842e-19 0.00053607 0.0170132
0.0229945 0 0.000536077 -0.00821408
-0.0213123 -2.0026e-20 0.00869943 0.0169583
0.0213123 2.58494e-26 0.00869943 -0.00840422
-0.020909 2.71051e-20 0.00972034 0.0169539
0.020909 2.71051e-20 0.00972034 -0.00840823
-0.0225437 2.3648e-20 0.00489464 0.0168942
0.0225437 5.16988e-26 0.00489464 -0.00839734
0.0204318 0 0.0107257 -0.00842517
-0.0204318 -5.16988e-26 0.0107257 0.0169493
-0.0205271 -5.16988e-26 0.0106465 0.0169496
-0.0230803 0 0.00165833 0.0169714
0.0230803 5.42101e-20 0.00165833 -0.00825145
-0.0212246 1.473e-20 0.00940472 0.0169558
0.0212246 2.53172e-20 0.00940472 -0.00840896
0.0207156 1.02949e-20 0.0104897 -0.00842332
-0.0207156 2.66155e-20 0.0104897 0.0169502
-0.0209353 0 0.0102994 0.016952
0.0209353 0 0.0102994 -0.00841964
0.0231589 0 0.00287976 -0.0083184
-0.0231589 5.42101e-20 0.00287976 0.0169228
0.0218885 5.42101e-20 0.00814494 -0.00839975
-0.0218885 1.0842e-19 0.00814494 0.0169634
0.0225301 -4.32605e-20 0.00619313 -0.00841081
-0.0225301 7.79492e-21 0.00619313 0.0169238
-0.0207613 -5.42101e-20 0.0107635 0.0169484
0.0207613 2.71051e-20 0.0107635 -0.00843102
-0.0215469 -2.71051e-20 0.00909429 0.0169588
0.0215469 0 0.00909429 -0.00841225
-0.0212144 5.35599e-22 0.0100278 0.0169528
0.0212144 -1.03398e-25 0.0100278 -0.00841569
0.020687 0 0.0110884 -0.00843516
-0.020687 0 0.0110884 0.0169462
-0.020768 5.16988e-26 0.0110218 0.0169466
-0.0231866 0 0.00419035 0.0168971
0.0231866 0 0.00419035 -0.00837256
-0.0218725 1.34414e-20 0.00877017 0.0169646
0.0218725 1.29247e-26 0.00877017 -0.00840346
-0.0235737 0 4.2994e-09 0.0170708
0.0235737 0 2.1284e-09 -0.00819232
-0.0215348 -2.71051e-20 0.00971336 0.0169539
0.0215348 0 0.00971337 -0.00841457
-0.0236425 -4.5619e-20 0.00102424 0.0170564
0.0236425 -4.98562e-20 0.00102424 -0.00820528
-0.0208199 0 0.0112773 0.0169433
0.0211543 0 0.0107041 -0.0084308