# U  POINT_DATA 49394
# x  y  z  U_x  U_y  U_z
-0.01 -1.04067e-26 1.51748e-07 9.87899e-18 8.32294e-17 4.10009e-18
0.01 0 8.31199e-08 -2.40147e-18 2.4135e-16 3.46816e-19
-0.01 0 0.00067832 3.06526e-13 2.41154e-12 -7.51313e-14
0.01 0 0.00067832 -4.24511e-13 7.06099e-11 -2.98836e-13
-0.01 2.06795e-25 0.00137372 3.66566e-12 3.66374e-11 -2.45915e-12
0.01 0 0.00137372 -1.09452e-11 1.63412e-09 -1.22544e-11
-0.01 1.57772e-30 0.002087 1.0465e-12 4.49112e-12 -5.52594e-13
0.01 -1.57772e-30 0.002087 -2.50621e-16 1.45577e-14 -2.03373e-16
-0.0102613 0 0.000329046 1.07694e-06 7.46252e-06 3.81943e-07
0.0102613 0 0.000329046 -1.53247e-07 1.47407e-05 2.11218e-08
-0.0102561 -2.71051e-20 0.000988366 1.65971e-06 2.07236e-05 -7.74292e-07
0.0102561 2.71051e-20 0.000988366 -4.03577e-06 0.000659915 -2.92985e-06
-0.0102356 -2.71051e-20 0.00161953 1.30391e-06 1.84843e-05 -9.41779e-07
0.0102356 -2.71051e-20 0.00161953 -4.82422e-06 0.000626105 -6.9023e-06
0.0105293 -1.03398e-25 8.74336e-08 -2.16027e-13 1.29847e-11 -4.22615e-14
-0.0105293 0 8.68458e-08 8.95245e-13 2.5371e-12 1.63283e-13
-0.0105268 -7.62371e-21 0.000638363 4.47807e-06 1.97228e-05 -1.74833e-07
0.0105268 -1.14945e-20 0.000638363 -8.42425e-06 0.000513227 -1.69255e-06
-0.0105159 0 0.0012653 7.5764e-06 3.33548e-05 -2.56839e-06
0.0105159 -1.05474e-20 0.0012653 -2.03772e-05 0.00108332 -1.31336e-05
0.0105028 -1.31836e-20 0.0017228 -2.17092e-05 0.000990784 -1.84601e-05
-0.0105028 -6.15422e-21 0.0017228 6.90483e-06 2.96314e-05 -3.64603e-06
0.010496 2.71051e-20 0.00202291 -1.93324e-05 0.000744622 -1.26444e-05
-0.010496 0 0.00202291 5.24349e-06 2.18934e-05 -2.85479e-06
0.0104977 0 0.00235078 -1.56018e-09 4.07373e-08 -1.09215e-09
-0.0104977 0 0.00235077 4.14748e-10 9.10926e-10 -2.56097e-10
0.0108033 2.71051e-20 0.000314595 -2.41203e-07 8.09676e-06 -9.4665e-08
-0.0108033 2.71051e-20 0.000314595 2.79338e-06 7.22397e-06 4.31947e-07
0.0108031 2.71051e-20 0.00093799 -2.88127e-05 0.00136381 -3.78689e-06
-0.0108031 -2.71051e-20 0.00093799 1.21893e-05 4.31876e-05 -7.53285e-07
0.01079 5.42101e-20 0.00152732 -4.28852e-05 0.00165825 -3.74727e-05
-0.01079 0 0.00152732 1.48706e-05 5.02643e-05 -7.4803e-06
-0.0110754 0 7.54525e-09 2.53455e-11 3.88228e-11 4.06394e-12
0.0110754 5.16988e-26 4.96121e-09 -2.64223e-13 6.76369e-12 -6.11813e-14
-0.0110889 0 0.000613667 1.13125e-05 2.83471e-05 -4.32705e-07
0.0110889 7.44876e-22 0.000613666 -2.13366e-05 0.00078752 -2.98265e-06
-0.0108991 2.71051e-20 0.00228385 1.17053e-05 2.69363e-05 -7.54769e-06
0.0108991 0 0.00228385 -4.53053e-05 0.000905212 -3.25541e-05
0.010988 3.33784e-20 0.00190078 -6.61881e-05 0.00153684 -5.26043e-05
-0.010988 0 0.00190081 2.05705e-05 4.66581e-05 -1.15151e-05
-0.0110831 0 0.00123268 2.23651e-05 5.61041e-05 -6.87709e-06
0.0110831 -4.02672e-21 0.00123266 -5.78056e-05 0.00180564 -3.29599e-05
0.0109863 0 0.00260985 -4.22418e-09 7.01176e-08 -3.0317e-09
-0.0109863 0 0.00260985 1.04168e-09 1.50587e-09 -6.82794e-10
-0.0113733 2.71051e-20 0.000305239 4.27769e-06 6.66149e-06 7.4246e-07
0.0113733 0 0.000305239 -4.12925e-07 8.17046e-06 -4.91442e-08
-0.0113913 -2.71051e-20 0.000918847 2.6315e-05 5.72387e-05 -2.19304e-06
0.0113913 2.71051e-20 0.000918847 -5.67608e-05 0.00180388 -8.1207e-06
0.0112123 3.72562e-21 0.00231934 -7.7813e-05 0.00127362 -5.978e-05
-0.0112123 1.70995e-20 0.00231934 2.13818e-05 3.855e-05 -1.38378e-05
-0.0113682 -5.42101e-20 0.00155884 3.67545e-05 7.44361e-05 -1.7274e-05
0.0113682 0 0.00155884 -0.000104371 0.00241906 -8.33056e-05
-0.0114039 0 0.00209577 3.56941e-05 6.20117e-05 -2.29072e-05
0.0114039 2.71051e-20 0.00209577 -0.000122223 0.0020283 -9.95867e-05
0.0113392 0 0.00255892 -6.53208e-05 0.000889831 -4.68008e-05
-0.0113392 -2.71051e-20 0.00255892 1.66104e-05 2.67688e-05 -1.09619e-05
-0.0116471 2.06795e-25 3.69551e-09 1.89742e-11 1.98941e-11 3.50926e-12
0.0116471 0 2.16021e-09 -2.23253e-14 4.4147e-13 -4.78952e-15
0.0116556 0 2.10937e-09 0 0 0
-0.0116865 0 0.000598049 1.88916e-05 3.39097e-05 -1.23088e-06
0.0116865 2.7043e-20 0.000598048 -3.17511e-05 0.00096586 -5.03375e-06
-0.0117045 0 0.00122297 4.16828e-05 7.33206e-05 -1.4308e-05
0.0117045 -1.81169e-20 0.00122297 -9.72594e-05 0.00233418 -6.32944e-05
0.0114599 0 0.00285977 -9.25288e-09 9.26461e-08 -6.24888e-09
-0.0114598 -6.61744e-24 0.00285975 2.27608e-09 2.01132e-09 -1.39761e-09
-0.0117133 -3.30872e-24 0.00184588 5.16197e-05 7.94352e-05 -3.10258e-05
0.0117133 2.32305e-20 0.00184588 -0.000157089 0.00255955 -0.000134855
0.0116596 5.98879e-22 0.00239948 -0.000146916 0.00173757 -0.000113151
-0.0116596 0 0.00239948 4.08501e-05 5.35089e-05 -2.69459e-05
-0.0119676 2.71051e-20 0.000293859 5.33274e-06 6.34966e-06 1.08938e-06
0.0119676 -2.71051e-20 0.000293859 -4.54387e-07 8.49378e-06 -1.23228e-07
0.0120131 -2.71051e-20 0.000895955 -7.11421e-05 0.00209622 -1.21281e-05
-0.0120131 0 0.000895955 4.04589e-05 6.69244e-05 -4.69436e-06
-0.0120953 0 6.93353e-10 0 0 0
0.0120433 0 0.00152444 -0.000158186 0.00303533 -0.000151979
-0.0120433 2.71051e-20 0.00152444 6.345e-05 9.51708e-05 -3.35331e-05
-0.0118604 2.71051e-20 0.00273055 4.22454e-05 4.14533e-05 -2.51164e-05
0.0118604 0 0.00273056 -0.000163654 0.00135148 -0.000107795
0.0120387 0 0.00217273 -0.000248088 0.00281163 -0.00020907
-0.0120387 -2.71051e-20 0.00217273 7.24619e-05 8.79702e-05 -5.14655e-05
0.0122418 -2.06795e-25 1.69281e-09 -1.40528e-12 3.162e-11 1.16171e-13
-0.0122418 1.03398e-25 7.11999e-10 4.82664e-12 7.74812e-12 1.35715e-12
-0.0122512 -1.03398e-25 8.57994e-05 3.60427e-06 5.60614e-06 -3.79933e-07
0.0122823 0 0.000368539 -1.90188e-05 0.000686593 -4.89022e-06
0.0119119 0 0.00310459 -1.25924e-08 9.16327e-08 -8.0987e-09
-0.0119119 0 0.00310459 3.12384e-09 1.98945e-09 -1.98943e-09
-0.0123043 -1.47189e-20 0.000568946 2.39003e-05 3.71748e-05 -2.51938e-06
0.0123043 -7.97816e-21 0.000568944 -2.93608e-05 0.00105995 -7.54943e-06
-0.0123731 5.16988e-26 1.76457e-10 0 0 0
-0.01236 -8.27181e-25 0.00118125 5.8001e-05 8.55102e-05 -2.51232e-05
0.01236 2.40197e-20 0.00118125 -0.00011354 0.00268734 -9.97074e-05
-0.0123814 0 0.00184434 8.51231e-05 0.000101953 -5.87585e-05
0.0123814 3.68459e-20 0.00184432 -0.000247469 0.00321487 -0.000225406
0.0125711 -2.71051e-20 0.000269457 -3.3012e-07 9.26422e-06 1.53547e-07
-0.0125711 -2.71051e-20 0.000269458 5.41388e-06 6.77933e-06 1.74452e-06
0.0123374 2.79124e-20 0.00258488 -0.000287826 0.0023081 -0.000207265
-0.0123374 -8.03027e-21 0.00258488 8.15127e-05 7.27004e-05 -6.07655e-05
0.0122817 0 0.00299995 -0.00020966 0.00130348 -0.000132165
-0.0122817 -2.71051e-20 0.00299995 5.54041e-05 4.0127e-05 -3.70185e-05
-0.0126475 0 0.000839063 4.55183e-05 7.0497e-05 -8.47122e-06
0.0126475 -5.42101e-20 0.000839063 -4.73057e-05 0.00218978 -1.85629e-05
0.0123472 -3.30872e-24 0.00333734 -1.02752e-08 5.60129e-08 -6.4292e-09
-0.0123472 3.30872e-24 0.00333734 2.68567e-09 1.20141e-09 -1.7473e-09
-0.0127108 0 0.0014705 8.29675e-05 0.000109954 -5.43114e-05
0.0127108 0 0.0014705 -0.000179461 0.00344509 -0.000218785
-0.0128491 0 1.64322e-09 1.20692e-11 1.94478e-11 5.48693e-12
0.0128491 0 4.78714e-10 1.36328e-12 1.1684e-11 1.20268e-12
0.0128795 1.03398e-25 0.00024045 2.05659e-07 0.000477418 -1.02925e-05
0.0127172 0 0.00217074 -0.000401616 0.0035743 -0.000321666
-0.0127172 -2.71051e-20 0.00217074 0.000121495 0.000114957 -9.55732e-05
-0.0129129 -4.1359e-25 0.000505053 2.04677e-05 3.53023e-05 -4.55882e-06
0.0129129 -1.07564e-21 0.000505051 4.31975e-07 0.00100279 -2.16188e-05
0.0125922 1.92386e-20 0.00303079 -0.000296769 0.00171378 -0.000189701
-0.0125922 3.63744e-20 0.00303079 8.34301e-05 5.36645e-05 -6.09543e-05
0.0130143 1.03398e-25 9.68852e-12 0 0 0
-0.0130203 4.1359e-25 0.0010824 5.77503e-05 8.82126e-05 -3.37038e-05
0.0130203 -2.23041e-20 0.0010824 -6.93413e-05 0.0027434 -0.000129116
0.012793 0 0.00278388 -0.000434701 0.00274007 -0.000284649
-0.012793 0 0.00278388 0.000122415 8.68787e-05 -0.000100375
0.0127108 0 0.00327268 -0.000250568 0.00114778 -0.00015563
-0.0127108 -2.71051e-20 0.00327268 7.35545e-05 3.55893e-05 -4.68538e-05
0.0131383 0 0.000218112 2.45529e-06 9.04447e-06 1.82497e-06
-0.0131383 -5.42101e-20 0.000218112 3.68959e-07 5.51415e-06 1.08252e-06
-0.013073 -8.27181e-25 0.00176511 0.000105849 0.000118706 -8.82611e-05
0.013073 -1.45915e-21 0.0017651 -0.000301626 0.00366109 -0.000255436
0.0127674 1.65436e-24 0.00356123 -5.71582e-09 2.47768e-08 -3.19527e-09
-0.0127674 0 0.00356123 1.61834e-09 5.06564e-10 -1.04246e-09
0.0132689 5.42101e-20 0.0007197 4.59534e-05 0.00190566 -7.17967e-05
-0.0132689 -2.71051e-20 0.000719701 3.26574e-05 6.14869e-05 -1.31275e-05
0.0130872 1.12468e-20 0.00246808 -0.000498537 0.00349193 -0.000288195
-0.0130872 -4.1359e-25 0.00246808 0.000146222 0.000113056 -0.000127171
-0.0133746 -7.63736e-21 0.000406306 1.22505e-05 2.27418e-05 -3.33173e-06
0.0133746 -2.46913e-21 0.000406304 1.62651e-05 0.000634662 -1.86665e-05
-0.0134599 0 3.79964e-09 2.77707e-11 3.25999e-11 1.68669e-11
0.0134599 -4.1359e-25 2.10898e-13 5.27495e-12 3.27522e-11 2.93271e-11
0.0130916 1.51953e-21 0.00314268 -0.00042617 0.00218454 -0.000206959
-0.0130916 0 0.00314268 0.000133863 6.89278e-05 -0.000104454
-0.0134186 2.71051e-20 0.00131377 7.223e-05 0.000113287 -6.12021e-05
0.0134186 0 0.00131377 -0.000106357 0.00350849 -0.000216307
-0.013075 -2.71051e-20 0.00349045 9.77399e-05 3.4886e-05 -6.34671e-05
0.013075 2.71051e-20 0.00349045 -0.00029013 0.00114164 -0.000146382
-0.0131725 0 0.00327109 0.000132741 6.22951e-05 -0.000101782
-0.0134232 2.71051e-20 0.00207248 0.000143698 0.000135508 -0.000138987
0.0134232 2.71051e-20 0.00207248 -0.000502536 0.00408688 -0.000266287
0.0132045 -4.1359e-25 0.00332175 -0.00039343 0.00190887 -0.000180087
-0.0132804 0 0.00312399 0.000159542 8.11341e-05 -0.000124315
-0.0136984 2.71051e-20 0.000300358 4.15554e-06 1.70254e-06 1.92516e-06
0.0136984 2.71051e-20 0.000300357 7.91971e-07 8.81596e-06 1.35157e-05
-0.013418 0 0.00277569 0.00019695 0.000117849 -0.00017462
0.013418 0 0.00277569 -0.000654386 0.00364797 -0.000279363
0.0131762 0 0.0037788 -6.67123e-10 2.87271e-09 -3.30878e-10
-0.0131762 -1.03398e-25 0.0037788 1.19016e-10 2.99837e-11 -8.21956e-11
0.0133539 -2.06795e-25 0.00311672 -0.000520401 0.00269507 -0.000130291
-0.0131995 0 0.00374163 1.92898e-05 7.25137e-06 -1.42567e-05
0.0132257 -1.03398e-25 0.00369994 -0.000111607 0.000499431 -4.68057e-05
-0.0135351 4.1359e-25 0.00243235 0.00016935 0.000128188 -0.000147136
-0.0132228 0 0.00380696 0 0 0
0.0137612 1.78009e-21 0.000786145 -2.5954e-05 0.00186238 -9.36714e-05
-0.0137612 -6.02187e-21 0.000786151 3.07002e-05 5.49979e-05 -2.19274e-05
-0.0133341 0 0.00352736 0.000130503 4.90584e-05 -9.64517e-05
0.0133341 -1.24586e-20 0.00352736 -0.000355838 0.00159235 -0.000149232
0.0132709 0 0.00383596 0 0 0
0.0136439 -1.03398e-25 0.00242366 -0.000653172 0.00396033 -8.54506e-05
0.0137678 -3.14242e-20 0.00165538 -0.00038914 0.00377146 -0.000128058
-0.0137678 0 0.00165538 0.000102972 0.000124703 -9.40085e-05
-0.013482 0 0.00331696 0.000190841 8.0688e-05 -0.000150735
0.013482 -2.71051e-20 0.00331696 -0.000547038 0.0025877 -0.000189773
-0.0137609 0 0.00192645 0.000130578 0.000128517 -0.000116351
0.0137535 -1.03398e-25 0.00221656 -0.00060554 0.00397583 -6.85014e-05
-0.0137484 -1.69965e-21 0.00241533 0.000180367 0.000135396 -0.000156646
0.0137484 0 0.00241533 -0.000682189 0.00404822 -4.74062e-05
0.013458 2.71051e-20 0.00374223 -0.00023167 0.00105229 -0.000112056
-0.013458 0 0.00374223 0.000103092 3.17503e-05 -7.52255e-05
0.0140709 0 1.28268e-08 1.21718e-09 9.51048e-09 -3.34953e-10
-0.0140709 -1.65436e-24 1.00678e-08 4.18568e-11 1.65106e-11 3.75566e-11
-0.0137488 1.31389e-20 0.00307762 0.00022323 0.000111407 -0.000173574
0.0137488 8.27181e-25 0.00307762 -0.000662285 0.00346378 -1.48534e-05
-0.0135651 0 0.00401367 1.26787e-09 4.48111e-10 -9.67588e-10
0.0135651 0 0.00401367 -1.92021e-09 1.08511e-08 -6.9483e-10
0.0141231 2.71051e-20 0.00120897 -0.000190241 0.00326317 -0.000171359
-0.0141231 2.71051e-20 0.00120897 4.66387e-05 0.000102972 -4.46771e-05
-0.0137164 8.37686e-21 0.00361036 0.000182929 6.57003e-05 -0.000135476
0.0137164 -2.51058e-20 0.00361035 -0.000404148 0.00213739 -4.28004e-05
-0.014089 2.71051e-20 0.00201377 0.000145682 0.000145243 -0.000128677
0.014089 -2.71051e-20 0.00201377 -0.000740264 0.00419037 0.000124411
0.0142657 -2.71051e-20 0.000418222 0.00011596 0.000869935 -4.16297e-05
-0.0142657 5.42101e-20 0.000418222 1.55986e-06 9.13542e-07 2.85956e-06
-0.014069 -2.71051e-20 0.0027392 0.00023164 0.000143111 -0.000181991
0.014069 0 0.0027392 -0.00083148 0.00426339 0.000231911
0.0138967 -5.42101e-20 0.00392747 -0.00023404 0.00160557 -6.11407e-05
-0.0138967 -2.71051e-20 0.00392747 0.000173926 4.73691e-05 -0.000135711
-0.0143573 1.29247e-26 0.00161906 0.000109302 0.000123833 -7.84647e-05
0.0140496 0 0.00340311 -0.000637999 0.00350699 0.000208737
-0.0140496 -2.71051e-20 0.00340311 0.000278133 0.000109395 -0.000190446
0.014441 -2.03528e-21 0.00161391 -0.000723783 0.00362343 0.000322772
-0.014441 0 0.00161391 0.0001102 0.00012371 -7.62585e-05
-0.0144492 -5.16988e-26 0.00155016 0.000103432 0.000117782 -7.22303e-05
0.0145429 -4.79268e-21 0.000823371 -0.000210995 0.00207516 3.30022e-05
-0.0145429 0 0.000823363 2.62762e-05 5.02066e-05 -2.63068e-05
-0.0139237 8.27181e-25 0.00428406 2.10499e-09 7.28728e-10 -1.40928e-09
0.0139237 -8.27181e-25 0.00428406 -1.54039e-09 1.90463e-08 1.07882e-09
0.0144036 0 0.00226571 -0.000937591 0.00412678 0.000616926
-0.014397 5.18146e-21 0.00237994 0.000209904 0.000148364 -9.6695e-05
0.014397 1.03398e-25 0.00237994 -0.00097506 0.00421499 0.000668475
-0.0143653 -1.33755e-21 0.00309536 0.000285363 0.000136857 -0.000115332
0.0143653 0 0.00309537 -0.00080586 0.00411074 0.000746823
0.0147022 1.65436e-24 1.97585e-08 1.79267e-09 3.13091e-08 -1.43623e-09
-0.0147022 1.65436e-24 1.20797e-08 -6.47926e-11 -2.82754e-11 1.75716e-10
-0.014305 1.02024e-20 0.00382188 0.000240545 8.5892e-05 -9.55842e-05
0.014305 0 0.00382188 -0.000289664 0.00279278 0.000531255
0.0146205 0 0.00235653 -0.00114007 0.00417311 0.00102782
-0.0142451 0 0.00421792 0.000157853 4.48612e-05 -8.64392e-05
0.0142451 0 0.00421792 -1.32538e-05 0.00154571 0.000234477
0.0147298 2.71051e-20 0.00200539 -0.00120356 0.00397609 0.0009335
-0.0147298 0 0.00200539 0.000181345 0.000146582 -5.70161e-05
-0.0148165 0 0.00124392 6.42898e-05 9.92937e-05 -7.68719e-05
0.0148165 2.71051e-20 0.00124392 -0.000739206 0.00305676 0.000371508
-0.0148637 1.03398e-25 0.000885861 3.9043e-05 5.20189e-05 -4.9871e-06
-0.0149583 8.27181e-25 2.99823e-17 0 0 0
-0.014711 2.71051e-20 0.00272495 0.000278754 0.000158172 -2.08146e-05
0.014711 0 0.00272495 -0.00112595 0.00441916 0.00136946
0.0149557 2.71051e-20 0.000461619 -1.86347e-05 0.00118069 -5.15363e-05
-0.0149557 0 0.000461616 -7.30158e-06 7.02569e-08 1.39665e-05
-0.0142802 0 0.00455258 1.49181e-09 5.89217e-10 -8.1293e-10
0.0142802 0 0.00455258 1.67155e-09 1.60467e-08 3.89713e-09
-0.0146561 0 0.00344874 0.000352238 0.000138866 -6.06713e-05
0.0146561 2.71051e-20 0.00344874 -0.000652983 0.00428983 0.00122644
-0.014516 1.96455e-20 0.0042716 0.000176888 6.15689e-05 -5.13466e-05
0.014516 1.27129e-20 0.0042716 0.000110742 0.00210271 0.00061447
0.0150861 3.4883e-20 0.00165187 -0.00135985 0.00346568 0.00107939
-0.0150861 2.49374e-21 0.00165188 0.000171798 0.000121821 1.47815e-05
-0.014707 0 0.0040482 0.00026225 0.000100087 -4.55155e-06
0.014707 -2.71051e-20 0.0040482 1.91578e-05 0.00334659 0.00114915
-0.0151175 2.3037e-21 0.00230446 0.000293044 0.000148884 0.000133392
0.0151175 0 0.00230446 -0.00150703 0.00407999 0.00182695
0.0150721 1.03398e-25 0.00259452 -0.00133791 0.00419761 0.00193297
0.0146108 0 0.00452168 0.000320847 0.0014594 0.000476589
-0.0146108 2.71051e-20 0.00452168 0.000113817 4.11158e-05 -6.16037e-05
0.0152997 0 4.97166e-18 0 0 0
-0.0149933 6.47269e-21 0.00309786 0.00037442 0.000153791 0.000207333
0.0149933 0 0.00309786 -0.00104444 0.00440172 0.00211695
0.0153681 -2.06795e-25 0.000180865 -0.000157726 0.000408044 0.000106073
0.0153398 -1.15789e-20 0.00097864 -0.00085343 0.00220786 0.000573944
-0.0153398 4.20663e-21 0.000978636 5.79939e-05 5.4709e-05 2.66594e-05
-0.0153745 -1.65436e-24 2.26327e-08 -9.89067e-10 1.39232e-10 -1.36052e-11
0.0153745 2.06795e-25 1.33475e-09 -5.61123e-10 2.89104e-09 -3.31956e-11
0.0146354 4.1359e-25 0.00482017 3.47546e-09 9.47769e-09 4.29086e-09
-0.0146354 0 0.00482017 5.46998e-10 3.41045e-10 -3.58155e-11
0.015424 -2.06795e-24 -4.9124e-19 0 0 0
-0.0149803 -9.4464e-21 0.0037633 0.000335558 0.000132155 0.000220324
0.0149803 0 0.0037633 -0.000251178 0.00411194 0.00201504
0.0153272 0 0.00275021 -0.00155775 0.00430813 0.0028069
-0.0153272 2.71051e-20 0.00275021 0.000400459 0.000159634 0.000386187
-0.0149658 1.916e-20 0.00441692 0.000149069 8.02048e-05 0.000163448
0.0149658 -8.27181e-25 0.00441693 0.000530089 0.00268025 0.00144235
0.014927 0 0.00477487 0.000701796 0.00139181 0.000781414
-0.014927 5.42101e-20 0.00477488 4.95913e-05 4.0387e-05 5.10309e-05
0.0152999 2.71051e-20 0.00342236 -0.000844518 0.00457936 0.00302695
-0.0152999 -2.71051e-20 0.00342236 0.000463748 0.000158018 0.00051176
0.015716 1.0842e-19 0.00173426 -0.0025587 0.00332669 0.00239774
-0.015716 -5.42101e-20 0.00173426 0.000324008 0.000119247 0.000265597
0.0152841 2.71051e-20 0.00407715 0.000420164 0.00430781 0.00274301
-0.0152841 2.71051e-20 0.00407715 0.000274984 0.000135091 0.000456523
0.0149898 0 0.00508707 2.28903e-09 3.75424e-09 2.57112e-09
-0.0149898 0 0.00508707 -8.42721e-12 1.22476e-10 2.50633e-10
0.0156647 0 0.00240043 -0.00209012 0.00405273 0.00330346
-0.0156647 3.11249e-20 0.00240043 0.000488892 0.000146567 0.000697414
0.0158727 0 0.000520994 -0.000595156 0.00135723 5.80282e-05
-0.0158727 -5.42101e-20 0.000520994 -0.000102641 5.77623e-06 -2.29321e-05
0.0156276 -2.58494e-26 0.00300563 -0.00153602 0.00439017 0.00365402
-0.0151702 7.21881e-21 0.00482145 2.1499e-05 5.79222e-05 0.000203614
0.0151702 -8.87193e-21 0.00482145 0.000928712 0.00199471 0.00136217
-0.015623 -1.7895e-20 0.00308126 0.000527778 0.000156388 0.000914021
0.015623 -2.58494e-26 0.00308126 -0.00146678 0.00443234 0.00369782
-0.0153271 0 0.00461022 7.19985e-05 9.56983e-05 0.000412929
0.0153271 -2.71051e-20 0.00461022 0.00114833 0.00324963 0.00226441
-0.0156022 1.95215e-22 0.00374982 0.000394802 0.000151534 0.00102947
0.0156022 0 0.00374982 -0.000253762 0.00455503 0.00379216
0.015269 2.71051e-20 0.00505544 0.000941399 0.00136656 0.00105934
-0.015269 2.71051e-20 0.00505544 -5.66555e-05 3.83938e-05 0.000151384
0.0157907 0 0.00307512 -0.00165093 0.00443857 0.00401902
-0.0152587 0 0.00528964 0 0 0
-0.0159605 0 0.00272817 0.000666306 0.00015036 0.00123559
0.0159605 0 0.00272817 -0.00230978 0.00423837 0.00428797
-0.0155971 4.34063e-21 0.0043751 0.000104583 0.000126919 0.000925952
0.0155971 0 0.0043751 0.0010725 0.00406075 0.00335134
-0.0153431 -5.16988e-26 0.00535318 -1.62653e-10 2.76749e-11 2.54839e-10
0.0153431 2.58494e-26 0.00535318 5.42068e-10 6.12899e-10 5.75828e-10
-0.0153741 -5.16988e-26 0.0052828 -2.0393e-05 1.25458e-05 9.15893e-05
0.0159183 2.71051e-20 0.00340547 -0.00117634 0.00459793 0.0046642
-0.0159183 2.71051e-20 0.00340547 0.00058484 0.000157278 0.00151742
-0.0155359 -1.50518e-20 0.00491577 -0.000126739 7.79703e-05 0.000569212
0.0155359 -6.65301e-21 0.00491577 0.00153394 0.00263016 0.00225671
-0.0159245 0 0.00405169 0.000260573 0.000155586 0.00162813
0.0159245 0 0.00405169 0.000561022 0.00472988 0.00472862
0.0163947 6.3654e-20 0.00113361 -0.00294135 0.00242387 0.00185436
-0.0163947 0 0.0011336 0.000505559 5.65168e-05 0.00044595
0.0164795 0 3.15332e-08 -5.6188e-08 5.09751e-08 1.63625e-08
-0.0164795 -1.65436e-24 8.8495e-09 -3.03775e-10 1.90029e-10 -9.45834e-10
0.0162478 0 0.00305839 -0.00215273 0.00445555 0.00489428
-0.0162478 2.58494e-26 0.00305839 0.000793077 0.000148435 0.00188411
-0.0163779 3.29846e-20 0.00230525 0.000976805 0.000125868 0.00162354
0.0163779 1.22973e-20 0.00230525 -0.00344623 0.00397084 0.00428119
0.0156904 -2.71051e-20 0.00524875 0.00199545 0.00203397 0.00205326
-0.0156904 0 0.00524875 -0.000349586 5.83038e-05 0.000494381
-0.0158759 -2.71051e-20 0.00471202 -0.000182022 0.000126113 0.00129633
0.0158759 2.71051e-20 0.00471202 0.00214168 0.00407832 0.00385418
0.0162919 2.58494e-26 0.00348864 -0.000981588 0.00465595 0.00524475
0.0156951 0 0.00561829 1.30192e-08 1.10673e-08 1.232e-08
-0.0156951 -2.06795e-25 0.00561829 -1.27559e-09 1.04479e-10 1.63421e-09
-0.0163084 0 0.00364992 0.000503686 0.000152077 0.00236662
0.0163084 0 0.00364992 -0.000542584 0.00473108 0.00537613
-0.016199 -1.98035e-20 0.00441125 -9.33095e-05 0.000146653 0.00224183
0.016199 1.85211e-20 0.00441125 0.00161689 0.00462467 0.00507764
-0.0159841 -1.03398e-25 0.00528499 -0.000414879 6.82605e-05 0.00103308
0.0161146 2.72194e-20 0.00513441 0.00269604 0.00320303 0.0035042
-0.0161146 -1.09677e-20 0.00513441 -0.000602317 9.91001e-05 0.00149982
-0.016031 0 0.0055414 -0.000632731 5.3882e-05 0.000771229
0.016031 2.71051e-20 0.0055414 0.00236067 0.00176 0.00206217
0.0165686 -2.58494e-26 0.00368644 -0.000461993 0.004825 0.00592883
-0.0169814 -4.1359e-25 0.00114599 0.00122388 5.79617e-05 0.000940405
0.0165301 2.71051e-20 0.00408038 0.000702669 0.00494405 0.00620656
-0.0165301 -5.42101e-20 0.00408038 0.000182574 0.000154919 0.00326531
-0.0170241 5.42101e-20 0.000577601 6.93345e-05 1.67118e-05 -0.00016078
0.0170241 0 0.000577602 -0.00259431 0.00151172 0.00085611
0.0169741 -5.42101e-20 0.00175445 -0.00608509 0.00358167 0.00419817
-0.0169741 0 0.00175445 0.00174816 8.90344e-05 0.00171499
0.0160456 -4.1359e-25 0.00588233 1.4085e-08 9.34387e-09 1.23205e-08
-0.0160456 0 0.00588233 -3.06922e-09 1.42e-10 3.59341e-09
-0.0167319 2.58494e-26 0.00370936 0.000526898 0.000148476 0.00366769
0.0168708 0 0.00304668 -0.0034056 0.00459756 0.00626475
-0.0168708 0 0.00304668 0.00132814 0.000131496 0.00353714
0.0164827 2.71051e-20 0.00476235 0.00304239 0.00476027 0.00556327
-0.0164827 0 0.00476235 -0.000629639 0.000150414 0.00281482
-0.0171727 -8.27181e-25 1.12492e-20 0 0 0
-0.0163092 0 0.00559034 -0.000955267 7.36299e-05 0.00140736
0.0163092 -1.14857e-20 0.00559034 0.00302247 0.00236563 0.00290961
-0.0163185 0 0.0055934 -0.000968618 7.39814e-05 0.00142817
0.0168571 0 0.00372694 -0.000372635 0.00492914 0.00654166
-0.0168571 0 0.00372694 0.000533761 0.000147411 0.0040524
-0.0168443 0 0.00404208 0.000191869 0.000149937 0.00404398
0.0168402 0 0.00414304 0.000981252 0.00496562 0.00642297
0.0165194 0 0.0053648 0.0040068 0.00369255 0.0043347
-0.0165194 -2.71051e-20 0.0053648 -0.00121576 0.000116859 0.0023197
-0.0168293 -8.20953e-21 0.00441207 -0.000209529 0.000152903 0.00403409
0.0168293 2.58494e-26 0.00441207 0.0018566 0.0049892 0.00634623
-0.016393 0 0.00584515 -0.00102742 5.22914e-05 0.001173
0.016393 2.71051e-20 0.00584515 0.00274597 0.00171281 0.00240107
0.0163955 -4.1359e-25 0.00614428 1.43823e-08 7.98743e-09 1.22995e-08
-0.0163955 4.1359e-25 0.00614428 -5.14887e-09 1.50422e-10 5.57822e-09
-0.0168096 -1.92126e-20 0.00506989 -0.00117017 0.000142222 0.00355353
0.0168096 0 0.00506989 0.00390574 0.004536 0.00552933
0.017623 0 1.28629e-08 -6.09543e-08 2.56818e-08 1.84098e-08
-0.017623 0 6.37354e-09 5.08759e-09 7.31998e-11 8.24779e-10
0.0175916 1.95595e-20 0.00115888 -0.00603097 0.00282157 0.0028017
-0.0175916 0 0.00115887 0.00197094 5.94644e-05 0.00145465
-0.0171737 -2.71051e-20 0.004052 0.000400465 0.000149631 0.00510641
0.0171737 -2.71051e-20 0.004052 0.000389437 0.00511031 0.00702432
0.0175442 8.6552e-21 0.00239621 -0.0060872 0.00439636 0.00504064
-0.0175442 2.06795e-25 0.00239621 0.00294941 0.000111561 0.00395304
-0.0167484 0 0.00577139 -0.00149448 8.63664e-05 0.00228798
0.0167746 2.69232e-21 0.00574376 0.00389014 0.00288372 0.00374205
-0.0167746 1.79837e-20 0.00574376 -0.00160522 9.27658e-05 0.00245752
-0.0172119 1.29247e-26 0.00439474 -0.000155045 0.0001519 0.00517174
0.0171404 2.71051e-20 0.0047287 0.00327746 0.00513444 0.00658208
-0.0171404 -2.71051e-20 0.0047287 -0.000780294 0.000156252 0.00493822
0.016705 0 0.00611265 0.00280038 0.00144582 0.00234023
-0.016705 2.71051e-20 0.00611265 -0.00138276 4.80865e-05 0.0014471
-0.0174986 0 0.00354411 0.00139182 0.00014126 0.00565844
0.0174986 -1.80555e-20 0.00354411 -0.00158906 0.00510023 0.00624102
0.0167191 0 0.00643602 1.36263e-08 7.12755e-09 1.14747e-08
-0.0167191 4.1359e-25 0.00643602 -6.78998e-09 1.52568e-10 7.41057e-09
-0.0171168 -5.42101e-20 0.00539052 -0.00203134 0.000147254 0.00425704
0.0171168 0 0.00539052 0.00525696 0.00462524 0.00574152
0.0174399 1.13091e-26 0.00438441 0.00173287 0.00522955 0.00642169
-0.0174702 -1.29247e-26 0.00438304 -0.000118271 0.000151223 0.00593959
0.0174702 0 0.00438304 0.00172672 0.0052415 0.00642544
0.0174674 -8.07794e-28 0.00447207 0.00208536 0.00521809 0.00636954
-0.0169625 2.58494e-26 0.00618381 -0.00179583 6.82771e-05 0.00219432
0.0169667 3.76595e-21 0.00617943 0.00344488 0.00206778 0.0029435
-0.0169667 -2.38953e-20 0.00617943 -0.00182701 6.94625e-05 0.00223242
-0.0174615 0 0.00465962 -0.000728675 0.000152219 0.00578558
0.0176237 0 0.00437799 0.00166156 0.00528952 0.00615578
-0.0174493 3.93609e-22 0.00505023 -0.00159073 0.000153626 0.00556808
0.0174493 6.46235e-27 0.00505023 0.00441444 0.0050661 0.00600654
0.0171679 2.71051e-20 0.00597129 0.00496387 0.00333563 0.00431076
-0.0171679 -5.42101e-20 0.00597129 -0.00247391 0.00011197 0.00343939
0.0182005 5.42101e-20 0.000583381 -0.00612558 0.00198343 0.00177744
-0.0182005 0 0.000583381 0.00132199 3.78714e-05 0.000361911
-0.017043 -5.42101e-20 0.00643779 -0.00164422 4.96448e-05 0.00184789
0.017043 0 0.00643779 0.00261747 0.00146107 0.00222188
-0.0177879 2.71051e-20 0.00403219 0.000834401 0.000145654 0.00690329
0.0177879 0 0.00403219 -2.25919e-05 0.00536058 0.00605557
0.0181761 0 0.00178292 -0.00943216 0.00426582 0.00445644
-0.0181761 0 0.00178292 0.00481567 9.60137e-05 0.00397126
0.0170214 0 0.00674884 1.21803e-08 6.76652e-09 1.03939e-08
-0.0170214 4.1359e-25 0.00674884 -7.63736e-09 1.44332e-10 8.22366e-09
-0.0174458 -3.58295e-20 0.00568734 -0.00268847 0.000139383 0.00477155
0.0174458 0 0.00568734 0.00554852 0.00432307 0.00512359
-0.0177804 0 0.00470438 -0.000938983 0.00015345 0.00680553
0.0177804 5.42101e-20 0.00470438 0.0033046 0.00536125 0.00602695
0.0181642 -5.42101e-20 0.00305697 -0.00530178 0.00517726 0.00531255
-0.0181642 0 0.00305697 0.00387763 0.000131269 0.00666126
-0.0181317 -1.03398e-25 0.00370155 0.00171174 0.000144 0.00731622
0.0181317 -1.5534e-20 0.00370155 -0.00144854 0.00538107 0.0054265
-0.0173841 -2.58494e-26 0.00637902 -0.00238434 8.25848e-05 0.00296528
0.01741 0 0.00635261 0.00398123 0.00257829 0.00321203
-0.01741 1.97626e-20 0.00635261 -0.00255461 8.84824e-05 0.00317703
0.0177702 0 0.00535529 0.00579585 0.00513806 0.0056667
-0.0177702 -5.42101e-20 0.00535529 -0.00259559 0.000157246 0.00627027
-0.0173274 2.71051e-20 0.00672747 -0.00175386 4.38535e-05 0.00182221
0.0173274 2.71051e-20 0.00672747 0.00211212 0.00123409 0.00181434
0.0181109 3.23117e-27 0.00427061 0.00105397 0.00543265 0.00532227
-0.0181076 2.58494e-26 0.00436205 2.98445e-05 0.000150991 0.00737127
0.0181076 3.23117e-27 0.00436205 0.00145609 0.00544093 0.00530552
0.0173238 -4.1359e-25 0.00706119 1.05406e-08 6.5003e-09 8.65529e-09
-0.0173238 0 0.00706119 -7.97892e-09 1.3286e-10 8.20014e-09
0.0177503 -2.71051e-20 0.00600627 0.00622538 0.00429049 0.00485217
-0.0177503 -2.71051e-20 0.00600627 -0.00366261 0.000143594 0.00526122
-0.0180996 0 0.004908 -0.00157761 0.000155307 0.0070759
-0.018098 0 0.00501826 -0.00190224 0.000156178 0.00701625
0.018098 6.46235e-27 0.00501826 0.00446017 0.00535195 0.00503229
-0.0187969 0 8.75982e-09 2.67013e-08 1.63617e-10 8.58196e-09
0.0187969 0 7.97307e-09 -6.81047e-08 2.11203e-08 1.50873e-08
-0.0187878 0 0.0011673 0.00478469 7.31056e-05 0.00277886
0.0187878 6.38133e-20 0.0011673 -0.00896488 0.00339203 0.00245709
-0.0175851 -1.32765e-20 0.00679799 -0.00237275 6.45174e-05 0.00254984
0.0175851 1.62869e-20 0.00679799 0.0027803 0.00179444 0.00213632
0.0184432 -2.71051e-20 0.00401963 -0.000508005 0.0055217 0.00489828
-0.0184432 0 0.00401963 0.0012549 0.000150004 0.00809693
-0.0187844 0 0.00239454 0.00598132 0.000123241 0.00581001
0.0187844 3.67785e-21 0.00239454 -0.00763899 0.00487327 0.00310424
-0.0180831 8.89837e-21 0.00566925 -0.00347049 0.000154602 0.00631928
0.0180831 0 0.00566925 0.00614345 0.0049193 0.00466004
0.0177912 -5.42101e-20 0.00658995 0.00446637 0.00293608 0.00321518
-0.0177912 0 0.00658995 -0.00348778 0.000105606 0.00392405
0.0184158 0 0.00467993 0.00303083 0.00551818 0.00427404
-0.0184158 0 0.00467993 -0.0010117 0.000154838 0.00767342
0.0176529 -2.71051e-20 0.00706043 0.001824 0.00125548 0.00141822
-0.0176529 -2.71051e-20 0.00706043 -0.00192086 4.5686e-05 0.00195718
-0.0183917 -9.69352e-27 0.00497632 -0.0019519 0.000157935 0.00717064
0.0176264 0 0.00737367 9.02435e-09 6.63697e-09 7.25691e-09
-0.0176264 0 0.00737367 -8.15493e-09 1.25915e-10 8.06871e-09
-0.0180712 -1.00601e-20 0.00630777 -0.00413482 0.000135577 0.00518919
0.0180712 -1.29247e-26 0.00630777 0.00571343 0.00395199 0.00378911
0.0184261 0 0.0053197 0.00571577 0.00538607 0.00417463
-0.0184261 -2.71051e-20 0.0053197 -0.00305882 0.000159164 0.00730131
-0.0188515 6.93363e-20 0.00360143 0.002833 0.000149884 0.00746636
0.0188515 4.94336e-20 0.00360143 -0.00207515 0.00543435 0.00302015
0.0188419 1.61559e-27 0.00367156 -0.00175447 0.00544512 0.00306598
0.0188873 9.69352e-27 0.00360322 -0.00205872 0.00543177 0.00285329
-0.0187497 -1.00536e-20 0.00434473 0.000270814 0.000155627 0.00779834
0.0187497 0 0.00434473 0.00132354 0.00554856 0.00350588
-0.0180116 0 0.00698921 -0.00303322 8.01798e-05 0.003113
0.018025 0 0.00697581 0.00314982 0.00228283 0.00213384
-0.018025 -6.07232e-21 0.00697581 -0.00313895 8.29747e-05 0.00322151
0.0183967 0 0.00598007 0.00681258 0.00486343 0.00392746
-0.0183967 0 0.00598007 -0.00454547 0.000158185 0.00645711
0.0179363 0 0.0073519 0.00131577 0.00111213 0.001107
-0.0179363 2.71051e-20 0.0073519 -0.00183223 3.98368e-05 0.00176423
-0.0193896 5.42101e-20 0.000584898 0.00426733 4.57796e-05 0.00143354
0.0193896 5.42101e-20 0.000584906 -0.00961912 0.0026541 0.00170574
-0.0180825 0 0.00712629 -0.00292683 7.49301e-05 0.00292358