# omega  POINT_DATA 59669
# x  y  z  omega
-0.0386366 -6.77626e-21 9.33814e-08 1265.93
0.0386366 6.77626e-21 9.33814e-08 1266.27
-0.0386366 0 0.000236766 1211.21
0.0386366 -3.38813e-21 0.000236754 1211.58
-0.0386365 -1.69407e-21 0.000428699 1303.57
0.0386365 1.69407e-21 0.000428676 1303.92
-0.0386365 -3.38813e-21 0.000666556 1712
0.0386365 -6.77626e-21 0.000666521 1712.25
-0.0386364 -1.69407e-21 0.000917399 1992.97
0.0386364 -1.69407e-21 0.000917369 1993.19
-0.0386364 -1.69407e-21 0.00111073 2140.78
0.0386364 0 0.00111069 2140.95
-0.0386364 0 0.00136165 2430.43
0.0386364 6.77626e-21 0.00136161 2430.53
-0.0386364 0 0.00162089 2524.29
0.0386364 5.0822e-21 0.00162088 2524.31
-0.0386365 0 0.00182904 2375.62
0.0386365 1.69407e-21 0.00182903 2375.59
0.0386365 6.77626e-21 0.002087 1735.63
-0.0386365 -6.77626e-21 0.002087 1735.8
-0.0387133 -6.77626e-21 0.000334786 1247.48
0.0387133 0 0.000334769 1247.88
0.0387145 -6.77626e-21 0.00100945 2203.61
-0.0387145 3.38813e-21 0.00100948 2203.4
0.0387157 3.38813e-21 0.00170741 2735.41
-0.0387157 3.38813e-21 0.00170743 2735.43
0.0388933 1.35525e-20 9.83892e-05 1440.88
-0.0388934 -2.03288e-20 9.8385e-05 1440.51
0.0388944 -6.77626e-21 8.11405e-08 1445.01
-0.0388944 -6.77626e-21 8.11392e-08 1444.64
0.038896 1.35525e-20 0.000773192 2188.36
-0.038896 6.77626e-21 0.000773227 2188.08
0.0389003 -1.35525e-20 0.000556945 1885.65
-0.0389003 0 0.000556978 1885.36
0.0388961 -1.35525e-20 0.00122361 2868.39
-0.0388961 -6.77626e-21 0.00122365 2868.25
-0.0388903 -1.35525e-20 0.00145595 3040.29
0.0388903 0 0.00145592 3040.35
-0.0388845 0 0.00190647 2365.5
0.0388845 6.77626e-21 0.00190644 2365.35
-0.0389211 -1.35525e-20 0.00212604 1694.08
0.0389211 1.35525e-20 0.00212604 1693.83
-0.03898 0 7.37425e-08 1443.74
0.03898 0 7.3742e-08 1444.13
-0.0389877 0 0.000656511 1919.69
0.0389877 -6.77626e-21 0.000656454 1921.81
-0.0389501 0 0.00204928 1913.44
0.0389501 1.35525e-20 0.00204927 1913.18
0.0389855 6.77626e-21 0.00132191 2721.85
-0.0389855 0 0.00132198 2718.93
0.0389857 -6.77626e-21 0.00196118 1996.01
-0.0389857 6.77626e-21 0.00196122 1993.45
-0.0390408 -6.77626e-21 0.00214247 1939.19
0.0390408 6.77626e-21 0.00214247 1938.98
-0.0390834 6.77626e-21 0.00203104 1897
0.0390834 -6.77626e-21 0.00203102 1896.69
-0.0391899 5.0822e-21 7.98183e-08 1762.68
0.0391899 -8.47033e-21 7.98187e-08 1763.09
-0.0392186 1.05879e-22 0.000973966 3493.97
0.039217 0 0.000971787 3494.34
0.0392186 0 0.000993521 3530.04
-0.0392186 0 0.000993748 3530
-0.0392339 1.12938e-22 0.000322247 1806.71
0.0392339 -3.38813e-22 0.000322224 1807.1
0.0392124 9.41148e-23 0.00160285 4228.33
-0.0392124 2.82344e-22 0.0016029 4227.82
0.0392589 1.01644e-20 8.17933e-08 1797.57
-0.0392589 -2.37169e-20 8.17941e-08 1797.18
-0.0392358 3.38813e-21 0.00211246 1614.34
0.0392358 -1.01644e-20 0.00211246 1613.92
-0.0392408 1.35525e-20 0.0021699 1589.95
0.0392408 3.38813e-21 0.00216991 1589.55
-0.0393079 0 0.00200293 1799.1
0.0393079 0 0.00200291 1798.76
0.0393994 1.35525e-20 0.00128732 2198.39
-0.0393994 -1.35525e-20 0.00128736 2195.07
0.0394321 1.35525e-20 0.000662255 1662.82
-0.0394321 -1.35525e-20 0.000662293 1660.8
-0.0393782 2.71051e-20 0.00218876 1811.7
0.0393783 0 0.00218876 1811.52
0.0394171 1.35525e-20 0.00182881 1891.37
-0.0394171 0 0.00182885 1888.36
-0.0394765 0 8.81966e-08 1360.48
0.0394765 -1.35525e-20 8.81971e-08 1360.71
0.039636 -1.35525e-20 8.20127e-08 1311.89
-0.039636 6.77626e-21 8.20112e-08 1311.76
-0.0396081 -4.51751e-21 0.00155275 2062.12
0.0396081 -2.25875e-21 0.00155275 2063.07
-0.0395887 -6.77626e-21 0.00221763 1203.55
0.0395887 -2.03288e-20 0.00221763 1203.49
-0.0396657 -2.25875e-21 0.000926812 1763.61
0.0396657 -4.51751e-21 0.000926845 1764.42
0.0396606 -6.77626e-21 0.00201754 1391.4
-0.0396606 0 0.00201754 1391.43
-0.0396602 -6.77626e-21 0.00213151 1155.84
0.0396602 0 0.00213151 1155.82
-0.0397186 0 0.000328044 1269.3
0.0397186 3.38813e-21 0.000328061 1269.63
-0.0397505 -6.77626e-21 0.00223983 1216.99
0.0397506 6.77626e-21 0.00223983 1217.06
-0.0398326 6.77626e-21 7.79286e-08 1219.05
0.0398326 0 7.79286e-08 1218.98
-0.0399409 5.64689e-21 0.0012628 1482.56
0.0399409 -4.51751e-21 0.00126293 1482.66
-0.0399609 0 7.37241e-08 1078.28
0.0399609 0 7.37245e-08 1078.1
0.0399375 -2.25875e-21 0.0016998 1492.77
-0.0399375 0 0.00169972 1493.34
-0.0399278 0 0.00226415 1386.55
0.0399278 0 0.00226415 1386.71
-0.0400201 6.77626e-21 0.000637232 1134.48
0.0400201 0 0.000637359 1134.98
-0.0400601 0 0.000117456 1054.25
0.0400601 1.35525e-20 0.000117489 1054.02
0.0400609 0 7.18816e-08 1054.44
-0.0400609 0 7.1881e-08 1054.68
0.0400257 -1.35525e-20 0.00227757 1211.72
-0.0400257 0 0.00227757 1211.42
-0.0402355 0 0.000320268 991.476
0.0402356 -1.35525e-20 0.000320378 991.073
-0.0402399 0 0.000958442 1041.23
0.0402399 0 0.000958653 1045.19
0.0402362 1.35525e-20 0.0015669 1170.35
-0.0402362 1.35525e-20 0.00156673 1170.58
0.0402212 -3.38813e-21 0.00200607 1034.58
-0.0402212 0 0.002006 1034.15
-0.0404904 0 5.21452e-08 930.794
0.0404904 0 5.21452e-08 930.289
-0.0404915 -3.38813e-21 3.22757e-05 930.279
0.0404915 0 3.22702e-05 929.775
-0.0405175 3.38813e-21 5.13595e-08 916.386
0.0405175 0 5.13599e-08 915.874
-0.0404556 0 0.00233656 1147.49
0.0404556 1.52466e-20 0.00233656 1148
-0.0404936 -7.52918e-22 0.00172666 958.631
0.0404937 -7.52918e-22 0.00172685 959.751
0.0405368 0 5.18925e-08 912.81
-0.0405368 0 5.18925e-08 913.319
0.0405375 0 2.05856e-05 912.792
-0.0405375 -3.38813e-21 2.05864e-05 913.301
-0.0405369 2.03288e-20 0.000628538 861.335
0.040537 -1.14349e-20 0.000628787 863.478
-0.0405371 -4.23516e-22 0.00063565 861.546
0.0405372 -1.18585e-20 0.000635983 863.702
-0.0404766 -5.2516e-20 0.00233943 1162.91
0.0404766 0 0.00233943 1163.42
-0.040541 1.69407e-21 0.000702547 861.312
0.040541 -1.27055e-21 0.000703745 863.596
-0.0405495 1.14349e-20 0.000632191 858.572
0.0405497 -8.04681e-21 0.000632486 860.714
0.0404906 0 0.00234135 1145.76
-0.0404906 -1.69407e-21 0.00234135 1145.24
-0.0405397 -1.12938e-22 0.00125155 858.231
0.0405397 -1.12938e-22 0.00125189 861.502
-0.0405452 0 0.00227937 1101.68
0.0405453 0 0.00227938 1102.19
0.0406158 -3.38813e-21 5.8098e-08 917.658
-0.0406159 0 5.81041e-08 918.219
0.0406084 -5.0822e-21 0.00235751 1137.38
-0.0406084 5.0822e-21 0.00235752 1136.84
-0.0408377 2.71051e-20 0.000322191 850.889
0.0408378 -2.71051e-20 0.000322355 850.252
0.0408178 0 0.00198965 833.323
-0.0408178 -4.51751e-21 0.0019895 832.172
-0.0410085 2.71051e-21 0.0010286 576.457
0.0410086 8.13152e-21 0.00102904 582.421
-0.0410119 4.51751e-21 0.00150845 591.057
0.041012 4.51751e-21 0.0015088 596.541
0.0409774 0 0.00240814 1105.85
-0.0409774 0 0.00240814 1105.27
0.0410604 1.35525e-20 8.41089e-08 900.161
-0.0410604 0 8.41151e-08 900.975
0.0410629 0 0.000105931 897.831
-0.0410629 0 0.000105838 898.644
0.0409965 6.77626e-21 0.00237824 1091.64
-0.0409965 6.77626e-21 0.00237826 1091.07
-0.0410275 0 0.00241502 1109.41
0.0410275 0 0.00241502 1109.98
-0.0410347 -2.03288e-20 0.00233955 1011.31
0.0410347 0 0.00233952 1012.23
-0.0410708 6.77626e-21 0.0023814 1078.42
0.0410708 0 0.00238138 1078.97
-0.0411588 -1.35525e-20 8.62142e-08 931.52
0.0411588 -1.35525e-20 8.62085e-08 930.727
-0.0410901 -6.77626e-21 0.0024236 1088.04
0.0410902 0 0.00242361 1088.59
-0.0412374 -6.77626e-21 0.000638695 710.543
0.0412374 0 0.000639091 713.081
-0.0412319 0 0.00177406 866.498
0.041232 0 0.00177433 870.878
-0.0412814 1.35525e-20 7.69686e-08 917.241
0.0412815 0 7.69596e-08 916.364
-0.0412864 0 0.000114574 916.131
0.0412864 -1.35525e-20 0.000114681 915.252
-0.0412719 -2.71051e-20 0.00123079 658.63
0.041272 -2.71051e-20 0.00123128 662.499
-0.0414111 -4.51751e-21 0.00202219 797.505
0.0414112 -2.25875e-21 0.00202236 800.352
-0.0414655 0 0.00100479 437.545
0.0414656 -1.35525e-20 0.00100527 441.502
0.0414387 6.77626e-21 0.00247143 1178.95
-0.0414387 0 0.00247142 1178.41
-0.0415231 0 0.000300335 888.006
0.0415231 -1.35525e-20 0.000300526 886.88
0.0414667 0 0.00241974 1179.73
-0.0414667 0 0.00241973 1179.18
-0.0415317 -9.03502e-21 0.00151516 424.234
0.0415317 9.03502e-21 0.0015155 435.208
-0.0415257 0 0.00236274 1077.77
0.0415258 6.77626e-21 0.00236276 1079.24
-0.0415358 2.03288e-20 0.00248474 1282.9
0.0415358 6.77626e-21 0.00248475 1283.48
-0.0417744 -6.77626e-21 8.98208e-05 861.733
0.0417745 0 8.98629e-05 860.777
-0.0417779 -6.77626e-21 6.56267e-09 861.776
0.041778 0 6.55901e-09 860.82
-0.0418022 1.12938e-20 0.000615402 573.823
0.0418022 0 0.000615762 575.023
-0.0417906 -2.71051e-20 0.00186249 730.443
0.0417906 2.71051e-20 0.00186269 735.846
-0.0417567 6.77626e-21 0.00251504 1473.65
0.0417567 2.03288e-20 0.00251505 1474.28
-0.0417893 7.52918e-22 0.0022836 1396.49
0.0417893 -1.50584e-21 0.00228367 1397.22
-0.0418476 6.77626e-21 0.00117393 320.739
0.0418476 -6.77626e-21 0.00117434 322.527
-0.0418763 1.35525e-20 -1.15002e-09 862.187
0.0418764 0 -1.15404e-09 861.283
-0.0419536 0 8.50389e-05 853.042
0.0419536 -1.35525e-20 8.50569e-05 852.186
-0.0419539 0 -1.03272e-09 853.494
0.041954 -1.35525e-20 -1.0365e-09 852.635
0.0419533 0 0.00254202 1854.73
-0.0419533 1.35525e-20 0.00254201 1854.16
-0.0419887 -1.35525e-20 0.0019478 626.682
0.0419887 0 0.00194795 638.562
-0.0420605 -4.51751e-21 0.00226453 1530.48
0.0420605 0 0.00226459 1534.83
-0.042061 0 0.00250113 2123.4
0.042061 1.35525e-20 0.00250114 2124.03
-0.0421378 -1.35525e-20 0.000921112 239.677
0.0421378 0 0.000921356 235.238
-0.0420718 6.77626e-21 0.00255827 2216.81
0.0420718 6.77626e-21 0.00255827 2217.47
0.0421546 2.71051e-20 0.000313421 814.683
-0.0421546 0 0.000313301 815.293
-0.0421336 9.03502e-21 0.0016375 396.209
0.0421336 -4.51751e-21 0.00163769 398.703
-0.0421793 -6.77626e-21 0.002247 1601.11
0.0421793 6.77626e-21 0.00224705 1606.23
0.0423852 6.77626e-21 6.66393e-05 823.728
-0.0423852 -6.77626e-21 6.66078e-05 824.097
-0.0423913 0 1.33679e-09 824.06
0.0423913 0 1.33598e-09 823.695
-0.0423173 0 0.00259195 2311.46
0.0423174 -6.77626e-21 0.00259196 2311.92
-0.0423622 1.35525e-20 0.00253137 2221.73
0.0423623 0 0.00253138 2222.12
0.0424524 0 1.43798e-09 826.86
-0.0424524 -6.77626e-21 1.43857e-09 827.154
-0.0424509 1.12938e-21 0.000611632 526.045
0.0424509 3.38813e-21 0.000611739 525.049
-0.042444 4.51751e-21 0.00122872 213.418
0.0424441 1.12938e-21 0.00122884 213.23
-0.0425171 6.77626e-21 1.31915e-09 829.877
0.0425171 0 1.31866e-09 829.642
-0.0425183 0 6.48504e-05 829.917
0.0425183 6.77626e-21 6.48584e-05 829.682
-0.0424587 -3.38813e-21 0.00227178 1459.06
0.0424587 -3.38813e-21 0.00227182 1461.66
-0.0424457 0 0.00260956 1949.89
0.0424458 -1.35525e-20 0.00260957 1950.15
-0.0424966 -4.51751e-21 0.00189079 540.395
0.0424967 4.51751e-21 0.00189085 544.67
-0.0425605 -1.35525e-20 0.00254401 2033.86
0.0425605 -1.35525e-20 0.00254402 2034
-0.0426002 -6.77626e-21 0.00263076 2059.75
0.0426003 1.35525e-20 0.00263076 2059.84
0.0427577 0 0.000308577 840.534
-0.0427577 0 0.000308578 840.514
-0.042762 0 0.00092253 195.97
0.042762 2.71051e-20 0.000922525 197.242
-0.042748 0 0.00216861 870.673
0.0427481 1.35525e-20 0.00216862 870.487
-0.0427408 -4.06576e-20 0.00240953 1822.5
0.0427408 0 0.00240953 1822.41
-0.0428416 8.13152e-21 0.00164355 290.464
0.0428416 -1.35525e-20 0.00164354 292.932
-0.0428297 0 0.00266224 1960.85
0.0428297 2.71051e-20 0.00266224 1960.74
0.0429615 0 5.93011e-11 839.918
-0.0429615 0 5.79639e-11 839.707
-0.0428847 0 0.00256824 1883.35
0.0428847 -1.35525e-20 0.00256825 1883.24
0.0429621 0 9.52028e-05 839.953
-0.0429622 1.35525e-20 9.51811e-05 839.742
-0.0429936 -5.80823e-21 0.00192518 488.623
0.0429937 -1.54886e-20 0.00192513 489.944
-0.0430551 0 -1.06622e-10 840.822
0.0430551 0 -1.05152e-10 841.104
0.0430752 -2.25875e-21 0.000610558 517.697
-0.0430752 -4.51751e-21 0.000610657 516.475
0.0430107 1.35525e-20 0.00268706 1607.14
-0.0430107 -1.35525e-20 0.00268706 1607.24
-0.0430775 -2.25875e-21 0.00123361 171.866
0.0430775 -2.25875e-21 0.00123349 174.736
-0.0430372 -2.25875e-21 0.00230972 1233.77
0.0430373 2.25875e-21 0.00230971 1234.16
-0.0431637 0 1.5382e-11 844.563
0.0431637 0 1.67288e-11 844.922
-0.0431652 1.35525e-20 0.000103815 844.5
0.0431652 0 0.000103811 844.859
0.0432457 -1.35525e-20 0.00271928 1810.03
-0.0432458 6.77626e-21 0.00271929 1810.22
0.0433794 -2.71051e-20 0.000307824 845.361
-0.0433795 -2.71051e-20 0.000307922 844.818
-0.0433141 4.51751e-21 0.00255689 1706.31
0.0433141 9.03502e-21 0.00255689 1706.11
-0.0433486 -9.03502e-21 0.00207031 517.008
0.0433486 -1.35525e-20 0.00207025 519.721
0.0433928 2.71051e-20 0.000922169 177.003
-0.0433928 2.71051e-20 0.000922361 174.077
-0.043354 -2.71051e-20 0.00273413 1787.62
0.043354 2.03288e-20 0.00273414 1787.39
-0.0434187 -4.51751e-21 0.0016019 233.624
0.0434187 6.77626e-21 0.00160173 237.385
0.0435473 0 9.019e-10 856.682
-0.0435473 -1.35525e-20 9.01633e-10 856.041
0.0435506 0 0.000132384 856.644
-0.0435506 -1.35525e-20 0.00013241 856.003
-0.0436835 2.71051e-20 1.03606e-09 859.121
0.0436835 -2.71051e-20 1.03617e-09 859.819
0.0436251 2.11758e-22 0.00235498 1102.94
-0.0436252 2.11758e-22 0.00235502 1100.79
0.0436012 2.71051e-20 0.00276801 1393.45
-0.0436012 0 0.00276801 1393.62
0.0436982 -4.51751e-21 0.000607493 516.965
-0.0436983 -4.51751e-21 0.000607717 515.247
0.0436672 0 0.00190306 429.702
-0.0436672 -2.71051e-20 0.0019032 424.966
0.0436479 2.11758e-22 0.00235467 1095.29
-0.0436479 0 0.00235472 1093.05
0.0437002 -9.03502e-21 0.00112951 163.565
-0.0437002 4.51751e-21 0.0011298 160.04
-0.0436555 -2.11758e-22 0.00236095 1104.58
0.0436555 2.11758e-22 0.00236091 1106.78
0.0438316 -2.71051e-20 0.000140387 861.952
-0.0438317 0 0.000140437 861.233
-0.0438324 1.35525e-20 1.26291e-09 861.436
0.0438324 1.35525e-20 1.263e-09 862.154
0.044004 0 0.000302869 872.265
-0.044004 2.71051e-20 0.000303007 871.452
0.0439928 0 0.00156096 185.42
-0.0439928 -6.77626e-21 0.00156117 180.706
-0.0439354 -6.77626e-21 0.00281381 1678.71
0.0439354 -2.5411e-20 0.00281382 1678.57
-0.0439809 1.35525e-20 0.00211391 424.245
0.0439809 -4.51751e-21 0.00211382 432.369
-0.0439531 -1.69407e-21 0.00279275 1695.25
0.0439531 3.38813e-21 0.0027928 1695.08
-0.043961 -1.69407e-21 0.00281732 1684.6
0.043961 0 0.00281732 1684.46
-0.0440043 2.25875e-21 0.0025931 1597.29
0.0440043 0 0.00259309 1597.46
0.0440988 1.6263e-20 0.00101219 154.729
-0.0440988 -8.13152e-21 0.0010125 152.288
0.0441598 2.71051e-20 2.36366e-09 868.14
-0.0441598 0 2.3638e-09 867.385
0.0441637 0 0.000147457 868.013
-0.0441637 -2.71051e-20 0.000147511 867.256
-0.0443161 0 2.58835e-09 870.384
0.0443161 -1.35525e-20 2.58819e-09 871.145
0.0443172 -6.77626e-21 0.000604412 516.482
-0.0443172 -2.25875e-21 0.000604657 515.262
0.0442814 -5.42101e-20 0.00191676 384.236
-0.0442814 -2.71051e-20 0.00191692 378.815
0.0443137 2.71051e-20 0.00123266 142.791
-0.0443137 0 0.00123298 139.829
-0.0442645 2.71051e-20 0.00285891 1521.9
0.0442646 2.71051e-20 0.00285892 1521.63
0.0443414 4.51751e-21 0.00231325 820.442
-0.0443414 -9.03502e-21 0.00231331 814.408
-0.0444716 0 0.000150042 867.911
0.0444716 -2.71051e-20 0.000150001 868.626
-0.0444749 -1.35525e-20 2.3549e-09 868.151
0.0444749 1.35525e-20 2.35475e-09 868.863
0.0445335 -2.71051e-21 0.00101154 150.4
-0.0445335 0 0.00101185 148.815
-0.0445227 4.51751e-21 0.00155722 165.741
0.0445227 0 0.00155701 168.219
-0.0445478 -2.71051e-20 0.00210098 320.644
0.0445478 2.71051e-21 0.00210088 328.292
-0.0445257 -1.35525e-20 0.00289471 1437.67
0.0445258 -3.38813e-20 0.00289472 1437.51
0.0446295 0 0.000304347 864.207
-0.0446295 -1.35525e-20 0.000304461 863.543
-0.044594 0 0.00278583 1444.2
0.044594 0 0.00278588 1444.02
-0.0446261 0 0.00264116 1447.01
0.0446261 -2.25875e-21 0.00264114 1447.28
0.0446645 0 0.00291372 1437.84
-0.0446646 -6.77626e-21 0.00291373 1437.99
0.0447808 1.35525e-20 1.63152e-09 868.515
-0.0447808 1.35525e-20 1.63155e-09 867.927
0.0447854 0 0.00015027 868.269
-0.0447855 1.35525e-20 0.000150312 867.68
-0.0449405 0 1.3988e-09 871.903
0.0449405 1.35525e-20 1.39877e-09 872.453
0.044942 4.51751e-21 0.000602417 517.204
-0.044942 -4.51751e-21 0.00060259 516.517
0.0449381 -4.51751e-21 0.00123202 126.821
-0.0449382 0 0.00123223 125.032
0.0449431 -6.77626e-21 0.00185203 184.719
-0.0449431 -2.25875e-21 0.00185217 179.08
0.0449492 -4.51751e-21 0.00232791 770.181
-0.0449492 -4.51751e-21 0.00232797 764.2
0.0449214 -1.35525e-20 0.00294893 1553.45
-0.0449214 0 0.00294893 1553.6
-0.0451017 -1.35525e-20 1.29463e-09 870.912
0.0451017 0 1.2946e-09 871.403
-0.0450995 0 0.00297331 1188.84
0.0450995 -2.03288e-20 0.00297331 1188.72
-0.045251 1.35525e-20 0.000202824 874.719
0.045251 9.03502e-21 0.000202783 875.145
0.0452595 2.71051e-20 0.000915145 149.417
-0.0452595 0 0.000915292 148.637
0.045262 2.71051e-20 0.00154673 95.3883
-0.045262 2.71051e-20 0.00154687 91.6394
0.0452616 0 0.00214816 234.726
-0.0452617 0 0.00214823 226.671
0.0452367 2.25875e-21 0.00269257 1080.15
-0.0452367 0 0.00269258 1079.89
0.0453935 0 1.00959e-09 879.716
-0.0453935 0 1.00963e-09 879.357
0.0453384 0 0.00300597 1086.15
-0.0453384 0 0.00300597 1086.19
-0.045559 -1.35525e-20 9.03952e-10 889.967
0.045559 -2.71051e-20 9.03906e-10 890.276
0.0455698 6.77626e-21 0.000598369 525.699
-0.0455698 2.25875e-21 0.000598452 525.144
0.045574 -4.51751e-21 0.00122571 121.265
-0.045574 6.77626e-21 0.00122582 118.958
-0.0454949 4.06576e-20 0.00302739 1215.11
0.0454949 0 0.00302739 1215.12
0.045575 -2.25875e-21 0.00186033 159.215
-0.045575 0 0.0018604 152.456
0.0455636 9.03502e-21 0.00235679 625.427
-0.0455636 -9.03502e-21 0.00235682 618.536
-0.0456185 1.35525e-20 0.00304441 1014.04
0.0456185 6.77626e-21 0.00304441 1014.11
-0.0457296 0 8.66649e-10 891.39
0.0457296 0 8.66605e-10 891.646
-0.0458748 0 0.000203876 896.293
0.0458748 9.03502e-21 0.000203862 896.503
0.0458876 0 0.000909899 149.561
-0.0458876 0 0.000909967 148.762
-0.0458326 -2.71051e-21 0.00274325 915.74
0.0458326 3.16226e-21 0.00274325 916.361
0.0458898 0 0.00154847 87.9793
-0.0458898 0 0.00154853 84.0383
0.0458888 0 0.00217764 209.95
-0.0458889 2.71051e-20 0.00217767 198.607
-0.0458626 -6.77626e-21 0.00307837 1082.52
0.0458626 -1.35525e-20 0.00307837 1082.64
0.0460115 -1.35525e-20 7.57524e-10 902.905
-0.0460115 2.71051e-20 7.57548e-10 902.737
-0.0459673 -6.77626e-21 0.0030928 1277.23
0.0459674 1.35525e-20 0.0030928 1277.32
-0.0461847 0 7.198e-10 920.365
0.0461847 0 7.19779e-10 920.504
-0.0461957 4.51751e-21 0.000591487 540.643
0.0461957 2.25875e-21 0.000591455 541.258
0.0462006 -9.03502e-21 0.00122009 118.503
-0.0462006 0 0.00122013 115.943
0.0462019 6.77626e-21 0.00186862 141.912
-0.0462019 0 0.00186864 135.307
-0.0461655 -6.77626e-21 0.00312126 1512.7
0.0461656 -2.03288e-20 0.00312127 1512.76
-0.0461939 -1.35525e-20 0.00295331 1523.74
0.0461939 0 0.00295328 1523.81
-0.0462707 2.25875e-21 0.00256437 892.911
0.0462707 1.12938e-21 0.00256437 903.276
-0.0463595 -2.71051e-20 6.73842e-10 925.187
0.0463595 2.71051e-20 6.73822e-10 925.297
-0.0463949 3.38813e-21 0.00315229 2015.23
0.046395 0 0.0031523 2015.27
-0.046506 0 0.000199294 932.369
0.046506 1.807e-20 0.000199294 932.458
0.0465144 0 0.000898641 152.286
-0.0465144 0 0.000898665 150.866
0.0465158 0 0.00154147 81.285
-0.0465158 0 0.00154149 77.1407
0.0464366 3.38813e-21 0.00315806 2045.72
-0.0464366 3.38813e-21 0.00315806 2045.72
0.0464514 -6.77626e-21 0.0031144 2037.4
-0.0464514 0 0.00311437 2037.38
0.0465218 -2.71051e-20 0.00218627 181.151
-0.0465218 0 0.00218628 174.348
0.0466484 1.35525e-20 5.2382e-10 941.517
-0.0466484 2.71051e-20 5.23805e-10 941.448
-0.0466132 9.03502e-21 0.00290744 1804.82
0.0466132 4.51751e-21 0.00290743 1810.24
-0.0468205 -2.71051e-20 4.77071e-10 973.111
0.0468205 0 4.77088e-10 973.174
-0.0468261 -6.77626e-21 0.00058046 565.391
0.0468261 -2.25875e-21 0.000580448 565.908
0.0467233 0 0.00319817 2103.71
-0.0467234 0 0.00319819 2103.69
0.0468292 -4.51751e-21 0.00120515 117.386
-0.0468292 -4.51751e-21 0.00120516 114.59
0.0468326 0 0.00185915 122.772
-0.0468326 -6.77626e-21 0.00185916 115.984
-0.0468472 3.61401e-21 0.00253599 731.588
0.0468472 4.51751e-21 0.00253598 744.948
0.0468396 -1.69407e-21 0.00321454 2157.76
-0.0468396 0 0.00321454 2157.66
0.0468444 0 0.00320755 2148.82
-0.0468444 0 0.00320756 2148.73
0.0468557 0 0.00318854 2077.42
-0.0468557 1.69407e-21 0.00318856 2076.46
0.0468539 -1.69407e-21 0.00321654 2116.16
-0.0468539 0 0.00321653 2116.1
-0.0468678 0 0.00320873 2125.02
0.0468679 0 0.00320873 2125.09
-0.0468728 3.38813e-21 0.00321918 2126.18
0.0468729 1.69407e-21 0.00321918 2126.25
-0.0469903 -1.35525e-20 4.262e-10 975.48
0.0469903 -1.35525e-20 4.26209e-10 975.523
0.0470012 0 0.00293207 1566.69
-0.0470012 0 0.00293208 1560.53
0.0471425 -9.03502e-21 0.000190384 983.903
-0.0471425 -9.03502e-21 0.000190377 983.869
0.0471463 5.42101e-20 0.000881282 156.473
-0.0471463 0 0.000881291 155.827
-0.0471461 -5.42101e-20 0.00152023 71.2448
0.0471461 2.71051e-20 0.00152022 76.3578
-0.047153 0 0.00216928 136.559
0.047153 0 0.00216927 147.6
-0.0471472 -6.77626e-21 0.00293418 1467.71
0.0471473 0 0.00293418 1470.76
0.0472953 0 2.46098e-10 994.073
-0.0472954 0 2.46072e-10 994.046
-0.0474624 0 1.94602e-10 1038.68
0.0474624 2.71051e-20 1.9462e-10 1038.72
-0.04735 0 0.00328627 1840.54
0.0473501 6.77626e-21 0.00328627 1840.53
-0.0474636 -1.35525e-20 0.000567332 595.501
0.0474636 -2.25875e-21 0.000567326 595.884
-0.0474647 9.03502e-21 0.00118521 114.569
0.0474647 0 0.0011852 117.665
-0.0473731 -6.77626e-21 0.0032485 1809.25
0.0473732 6.77626e-21 0.0032485 1809.23
0.0474651 9.03502e-21 0.00184525 106.249
-0.0474651 9.03502e-21 0.00184525 97.7751
-0.0474588 0 0.0025184 501.59
0.0474588 0 0.00251839 511.533
-0.047445 9.03502e-21 0.00290027 1225.8
0.047445 -1.35525e-20 0.00290027 1230.19
-0.0474338 -6.77626e-21 0.00316339 1566.03
0.0474339 0 0.00316339 1567.95
-0.0474249 -6.77626e-21 0.00329671 1691
0.047425 0 0.00329671 1690.96
-0.0474931 0 0.00325556 1746.76
0.0474932 -6.77626e-21 0.00325557 1746.69
-0.0476306 -1.35525e-20 1.68213e-10 1025
0.0476307 0 1.68224e-10 1025.03
-0.0475218 1.35525e-20 0.00331024 1759.08
0.0475219 0 0.00331024 1758.99
-0.0477792 0 0.000187403 1031.1
0.0477792 9.03502e-21 0.000187413 1031.12
-0.0477829 0 0.000865681 160.923
0.0477829 0 0.000865674 161.923
-0.0477845 2.71051e-20 0.00150006 66.5288
0.0477845 -5.42101e-20 0.00150006 72.3883
0.0477786 0 0.00217088 124.308
-0.0477786 2.71051e-20 0.00217088 112.512
-0.0477468 2.03288e-20 0.00297912 1221.29
0.0477468 0 0.00297912 1224.69
0.0479279 1.35525e-20 8.46695e-11 1039.27
-0.0479279 1.35525e-20 8.46536e-11 1039.25
-0.0478854 -6.77626e-21 0.00336132 1636.68
0.0478855 0 0.00336133 1636.55
-0.0479336 0 0.00329264 1587.69
0.0479336 -1.35525e-20 0.00329266 1587.59
-0.0481015 0 5.87263e-11 1093.47
0.0481015 -2.71051e-20 5.87356e-11 1093.51
-0.0481016 0 0.0005569 620.264
0.0481016 6.77626e-21 0.000556895 621.711
0.0481005 0 0.00117221 119.194
-0.0481005 -2.25875e-21 0.00117222 114.866
0.0480954 2.25875e-21 0.00184355 95.6418
-0.0480954 4.51751e-21 0.00184355 86.5083
0.0480213 1.35525e-20 0.00338025 1425.44
-0.0480213 -1.35525e-20 0.00338025 1425.45
-0.0480779 2.25875e-21 0.00254399 418.28
0.0480779 -2.25875e-21 0.00254399 430.461
-0.0480529 6.77626e-21 0.00300489 1107.65
0.048053 7.90564e-21 0.0030049 1113.28
0.0481626 -1.35525e-20 0.00330784 1541.5
-0.0481626 -2.71051e-20 0.00330782 1541.53
-0.0482805 0 5.28162e-11 1056.64
0.0482805 2.71051e-20 5.28235e-11 1056.66
0.048225 0 0.00340842 1582.05
-0.048225 6.77626e-21 0.00340843 1582.1
-0.0484142 9.03502e-21 0.000191539 1057.92
0.0484142 4.51751e-21 0.000191549 1057.93
-0.048417 -2.71051e-20 0.000858073 163.725
0.048417 0 0.000858069 168.798
0.0484147 0 0.00149607 69.9899
-0.0484147 2.71051e-20 0.00149607 64.1439
0.0484043 2.71051e-20 0.00218437 112.572
-0.0484043 -2.71051e-20 0.00218437 99.5678
-0.0483708 -1.35525e-20 0.00290962 733.239
0.0483708 1.35525e-20 0.00290963 746.834
0.0485467 1.35525e-20 3.79329e-11 1063.35
-0.0485467 0 3.79259e-11 1063.35
-0.0484431 -6.77626e-21 0.00343873 1658.96
0.0484431 -2.71051e-20 0.00343873 1658.97
-0.0484639 2.71051e-21 0.00324791 1548.32
0.048464 -2.71051e-21 0.00324792 1548.33
0.0486839 6.77626e-21 0.000595694 575.801
-0.0486839 6.77626e-21 0.000595693 572.779
-0.048731 0 3.20742e-11 1123.31
0.048731 2.71051e-20 3.20793e-11 1123.33
0.04873 2.25875e-21 0.00116766 120.257
-0.04873 -9.03502e-21 0.00116766 114.824
0.0487228 0 0.00184437 87.5018
-0.0487228 -6.77626e-21 0.00184437 79.8374
-0.0486954 2.25875e-21 0.0025583 374.97
0.0486954 -4.51751e-21 0.0025583 388.923
0.0486808 0 0.00347157 1559.83
-0.0486808 -2.71051e-20 0.00347157 1559.79
-0.0487347 1.807e-21 0.00303833 1136.32
0.0487348 -9.03502e-22 0.00303833 1146.2
-0.0489189 1.35525e-20 2.84986e-11 1069.59
0.0489189 1.35525e-20 2.85025e-11 1069.59
-0.0490437 6.77626e-21 0.000282065 973.444
0.0490437 -2.25875e-21 0.000282066 973.941
-0.0490452 0 0.000856189 164.208
0.0490452 2.71051e-20 0.000856191 170.009
0.0490418 0 0.0014945 67.9914
-0.0490419 0 0.00149449 62.3214
-0.0490331 -2.71051e-20 0.00217903 91.4904
0.0490331 2.71051e-20 0.00217904 97.667
0.0489629 -6.77626e-21 0.00351064 1447.44
-0.048963 3.72694e-20 0.00351064 1447.33
-0.0490668 -2.71051e-20 0.00277894 305.12
0.0490668 0 0.00277894 331.693
-0.0490412 4.51751e-21 0.00333027 1610.56
0.0490412 4.51751e-21 0.00333029 1610.65
-0.0490309 1.01644e-20 0.00352007 1469.43
0.049031 6.77626e-21 0.00352008 1469.57
0.0491635 -2.71051e-20 1.98058e-11 1071.48
-0.0491635 0 1.98029e-11 1071.5
-0.049353 0 1.62508e-11 1128.9
0.049353 -2.71051e-20 1.62524e-11 1128.89
0.0493564 -9.03502e-21 0.000636932 476.146
-0.0493564 4.51751e-21 0.000636922 471.865
0.0493563 4.51751e-21 0.00116575 120.121
-0.0493563 -4.51751e-21 0.00116574 114.153
0.0493524 3.38813e-21 0.00183764 80.1664
-0.0493524 0 0.00183764 72.5704
-0.0493586 -3.38813e-21 0.0024901 184.704
0.0493586 -1.12938e-21 0.0024901 200.274
-0.0493666 0 0.00305989 1045.59
0.0493666 -2.25875e-21 0.00305989 1054.9
-0.0493403 0 0.00356289 1644.18
0.0493403 1.35525e-20 0.0035629 1644.27
-0.0495418 0 1.40423e-11 1070.67
0.0495418 -1.35525e-20 1.40435e-11 1070.63
-0.0496167 6.77626e-21 0.000238625 1007.15
0.0496167 6.77626e-21 0.000238631 1007.46
-0.0496687 -2.71051e-20 0.000855711 164.346
0.0496687 2.71051e-20 0.000855725 170.908
0.0496679 0 0.00149257 66.927
-0.0496679 -2.71051e-20 0.00149255 60.459
-0.0496675 0 0.00216349 75.5543
0.0496675 0 0.0021635 87.7874
-0.0496049 6.77626e-21 0.00359927 1093.86
0.0496049 6.77626e-21 0.00359927 1093.87
-0.0496694 -2.71051e-20 0.00278151 244.502
0.0496694 -2.71051e-20 0.00278153 259.89
-0.0496485 -9.03502e-21 0.00336928 1264.67
0.0496486 4.51751e-21 0.0033693 1264.77
-0.0496411 6.77626e-21 0.00354774 1050.26
0.0496412 0 0.0035478 1050.32
0.0497814 -2.71051e-20 8.64185e-12 1071.96
-0.0497814 0 8.64103e-12 1072.01
0.0496784 3.38813e-21 0.00360933 1067.54
-0.0496784 0 0.00360934 1067.5
5.00836e-09 0 0.049924 1929.82
0.000626108 2.11758e-22 0.049925 1930.53
-0.000623055 0 0.049925 1930.6
0.00125224 0 0.049926 1932.83
-0.00124608 0 0.049926 1932.95
0.00187842 0 0.049927 1937.06
-0.00186909 -8.47033e-22 0.049927 1937.24
-0.0499694 0 6.43123e-12 1127.44
0.0499694 -2.71051e-20 6.43156e-12 1127.39
0.0499758 0 0.000549195 641.876
-0.0499758 0 0.000549187 638.653
0.00249202 8.47033e-22 0.0499281 1944.02
-0.00249202 0 0.0499281 1944.29
0.00249831 0 0.049924 1944.54
-0.00249831 -8.47033e-22 0.049924 1944.81
-0.00250466 0 0.0499281 1944.58
0.00250466 8.47033e-22 0.0499281 1944.31
-0.0499801 2.25875e-21 0.00116474 113.635
0.0499801 1.24231e-20 0.00116476 120.243
-0.04998 -3.38813e-21 0.00183424 65.7659
0.04998 1.12938e-21 0.00183425 75.3281
0.00311482 0 0.0499292 1955.28
-0.00311482 -1.69407e-21 0.0499292 1955.64
0.00312287 0 0.049924 1955.86
-0.00312287 0 0.049924 1956.22
-0.00313098 -1.69407e-21 0.0499292 1956.22
0.00313098 -1.69407e-21 0.0499292 1955.86
-0.0499303 -3.38813e-21 0.00305445 797.764
0.0499303 5.64689e-21 0.00305446 805.868
0.0499773 1.12938e-21 0.00249451 168.002
-0.0499773 0 0.00249451 153.419
0.00373743 1.69407e-21 0.049924 1971.53
-0.00373743 0 0.049924 1972.01
-0.00374741 0 0.049924 1972.22
0.00374741 0 0.049924 1971.74
-0.00375746 1.69407e-21 0.049924 1973
0.00375746 0 0.049924 1972.51
-0.0499341 0 0.00364445 1286.78
0.0499341 -1.35525e-20 0.00364445 1286.83
-0.00373751 1.69407e-21 0.0499304 1972.01
0.00373751 1.69407e-21 0.0499304 1971.53
-0.00375741 0 0.0499304 1972.99
0.00375741 1.69407e-21 0.0499304 1972.5
0.00436 0 0.049924 1993.65
-0.00436 0 0.049924 1994.26
-0.00437193 0 0.049924 1993.76
0.00437193 -1.69407e-21 0.049924 1993.14
-0.00438395 1.69407e-21 0.049924 1995.8
0.00438395 0 0.049924 1995.19
-0.0043601 0 0.0499316 1994.26
0.0043601 -1.69407e-21 0.0499316 1993.65
-0.00438389 -1.69407e-21 0.0499316 1995.79
0.00438389 0 0.0499316 1995.17
-0.000312322 0 0.0501276 1929.83
0.000312323 2.71051e-20 0.0501276 1929.8
-0.000936962 -2.71051e-20 0.0501276 1931.34
0.000936962 2.71051e-20 0.0501276 1931.25
0.0015616 -2.71051e-20 0.0501274 1934.36
-0.0015616 -2.71051e-20 0.0501274 1934.51
-0.0501533 1.35525e-20 5.60885e-12 1072.78
0.0501533 1.35525e-20 5.60909e-12 1072.74
0.00498239 0 0.049924 2014.64
-0.00498239 0 0.049924 2015.41
-0.00499644 0 0.049924 2013.32
0.00499644 0 0.049924 2012.56
-0.00501059 1.69407e-21 0.0499239 2016.06
0.00501059 -1.69407e-21 0.0499239 2015.29
0.00218623 0 0.0501271 1939.65
-0.00218623 -2.71051e-20 0.0501271 1939.87
-0.00498252 1.69407e-21 0.0499328 2015.39
0.00498252 0 0.0499328 2014.63
-0.00501051 1.69407e-21 0.0499327 2016.03
0.00501051 0 0.0499327 2015.26
0.00281086 0 0.0501267 1948.61
-0.00281086 2.71051e-20 0.0501267 1948.92
0.00560439 0 0.049924 2020.88
-0.00560439 -3.38813e-21 0.049924 2021.8
0.00562089 0 0.0499238 2016.76
-0.00562089 0 0.0499238 2017.68
-0.00563756 0 0.0499235 2020.1
0.00563756 0 0.0499235 2019.17
0.00343547 -2.71051e-20 0.050126 1962.38
-0.00343547 -5.42101e-20 0.050126 1962.8
-0.00560467 3.38813e-21 0.0499343 2021.77
0.00560467 0 0.0499343 2020.85
-0.00563733 0 0.0499339 2020.07
0.00563733 0 0.0499339 2019.14
-0.0501266 -2.03288e-20 0.00367073 992.53
0.0501266 -6.77626e-21 0.00367074 992.501
-0.0502798 9.03502e-21 0.000191907 1072.2
0.0502798 4.51751e-21 0.000191915 1072.15
0.00406004 2.71051e-20 0.0501251 1981.4