# omega  POINT_DATA 27238
# x  y  z  omega
-3.38813e-21 0.0103526 8.05504e-08 1504.91
3.38813e-21 -0.0103526 8.07755e-08 1505.12
3.38813e-21 -0.0103526 3.76214e-05 1531.03
-3.38813e-21 0.0103526 3.76305e-05 1530.81
3.38813e-21 -0.0103526 0.000631429 2001.7
3.38813e-21 0.0103526 0.000631529 2001.51
3.38813e-21 -0.0103526 0.000667946 2036.8
-3.38813e-21 0.0103526 0.000668067 2036.64
-3.38813e-21 -0.0103526 0.000705987 2167.19
0 0.0103526 0.000706122 2167.08
0 -0.0103777 4.50189e-05 1536.23
0 0.0103777 4.50396e-05 1536.01
3.38813e-21 0.0103798 8.03087e-08 1537.25
-3.38813e-21 -0.0103798 8.04298e-08 1537.47
0 -0.0103769 0.000621356 1993.08
0 0.0103769 0.000621457 1992.88
0 -0.0103728 0.000705935 2183.93
0 0.0103728 0.000706086 2183.83
0 -0.0103526 0.00132431 2933.27
3.38813e-21 0.0103526 0.0013244 2933.05
-3.38813e-21 -0.0103526 0.00136256 2900.9
0 0.0103526 0.00136268 2900.64
3.38813e-21 -0.0103526 0.00140245 3032.77
-3.38813e-21 0.0103526 0.00140259 3032.56
3.38813e-21 -0.0103729 0.00131435 2937.83
0 0.0103729 0.00131444 2937.61
0 -0.0103703 0.00139272 3047.97
0 0.0103703 0.00139287 3047.77
0 -0.0105447 0.00032626 1560.47
0 0.0105447 0.000326369 1560.24
3.38813e-21 -0.0103526 0.00204573 2336.91
-3.38813e-21 0.0103526 0.00204573 2337.22
-3.38813e-21 0.0103526 0.002087 2103.78
3.38813e-21 -0.0103526 0.002087 2103.32
-6.77626e-21 -0.0103709 0.00202634 2362.73
0 0.0103709 0.00202635 2363.05
0 -0.0105347 0.000977469 2703.6
-2.71051e-20 0.0105347 0.000977685 2703.55
0 -0.0103716 0.0020967 2033.81
0 0.0103716 0.00209671 2034.35
0 -0.0103939 0.0020689 2025.4
0 0.0103939 0.00206891 2025.95
3.38813e-21 -0.0105174 0.00130539 2219.11
0 0.0105177 0.00130551 2223.75
-1.35525e-20 -0.0105165 0.00160451 3384.14
0 0.0105165 0.00160468 3383.77
6.77626e-21 0.0106643 8.07563e-08 1361.47
-6.77626e-21 -0.0106644 8.09383e-08 1361.81
0 0.0106643 0.000112715 1355.09
-6.77626e-21 -0.0106644 0.000112638 1355.44
3.38813e-21 -0.0104508 0.00213729 1929.43
-6.77626e-21 0.010451 0.00213734 1929.81
0 0.0107383 7.95475e-08 1161.9
0 -0.0107384 7.92342e-08 1162.41
-5.64689e-22 -0.0107484 0.000677195 1181.23
1.8823e-22 0.0107484 0.000677558 1183.93
0 0.010797 0.000148914 1029.48
-6.77626e-21 -0.010797 0.000148767 1030.2
0 -0.0107396 0.00123189 1310.71
1.12938e-21 0.0107396 0.00123223 1323.07
4.23516e-22 -0.0106812 0.00170017 1589.53
0 0.0106821 0.00169938 1596.98
-6.77626e-21 0.0108192 6.38521e-08 1004.59
6.77626e-21 -0.0108192 6.3635e-08 1005.39
5.50571e-21 -0.0107144 0.00166243 1538.28
-3.59989e-20 0.0107143 0.0016627 1547.81
2.71051e-20 -0.0106712 0.00197829 1412.99
1.35525e-20 0.0106712 0.00197839 1414.03
-1.35525e-20 0.0108952 0.000304094 866.847
0 -0.0108952 0.000303947 867.631
-1.35525e-20 -0.0109109 0.000915282 468.293
0 0.0109109 0.00091567 493.089
1.35525e-20 -0.0107157 0.00227289 1302.04
1.35525e-20 0.0107158 0.00227295 1302.91
-1.35525e-20 -0.0107627 0.00222008 1304.21
0 0.0107627 0.00222022 1305.08
-1.35525e-20 -0.0108925 0.00149286 507.973
1.35525e-20 0.0108925 0.00149316 540.154
-1.35525e-20 -0.0107724 0.00230193 1352.39
0 0.0107724 0.00230196 1353.24
0 0.0108212 0.00232693 1429.51
0 -0.0108212 0.00232693 1428.71
0 0.0108444 0.00228008 1427.54
0 -0.0108445 0.00228001 1426.74
2.25875e-21 -0.0111112 0.000616145 589.378
-2.25875e-21 0.0111112 0.00061649 596.951
0 0.0111535 1.53938e-06 862.341
-2.11758e-22 -0.0111473 5.47822e-06 863.107
0 0.011147 5.86234e-06 862.454
-2.11758e-22 0.0111509 1.29512e-05 856.904
-5.29396e-21 -0.011151 1.21022e-05 857.804
-6.77626e-21 -0.011096 0.00121465 384.144
0 0.0110959 0.00121503 402.069
0 -0.0111696 -5.96294e-10 862.677
-3.17637e-21 0.0111707 -7.22546e-10 861.918
3.76459e-22 -0.0110352 0.00184535 834.468
7.52918e-22 0.0110352 0.00184552 851.502
0 0.0109407 0.00238813 1575.62
1.35525e-20 -0.0109408 0.00238818 1575.02
-1.35525e-20 -0.0111532 0.00249687 1635.07
-1.35525e-20 0.0111532 0.00249688 1635.68
0 0.0114315 0.000308606 840.464
2.71051e-20 -0.0114315 0.000308467 841.039
2.71051e-20 -0.0114183 0.000918416 175.39
2.71051e-20 0.0114183 0.000918716 182.754
0 -0.0113875 0.00154703 169.667
2.71051e-20 0.0113875 0.00154727 178.966
-9.03502e-21 -0.0112598 0.0023139 1457.33
6.77626e-21 0.0112598 0.00231395 1461.83
0 -0.0113392 0.00259198 1771.5
1.35525e-20 0.0113393 0.00259202 1772.05
0 -0.0116793 5.66494e-05 855.924
0 0.0116793 5.66517e-05 855.47
0 -0.0116837 2.74733e-09 856.172
-6.77626e-21 0.0116838 2.70093e-09 855.718
0 0.0117329 2.82821e-09 862.197
0 -0.0117329 2.87033e-09 862.63
3.38813e-21 -0.0117325 0.000605076 513.644
-3.38813e-21 0.0117325 0.000605313 516
-1.12938e-21 -0.0117171 0.00123388 147.238
3.38813e-21 0.0117171 0.00123417 153.886
0 -0.0114795 0.00266368 1975.84
0 0.0114796 0.0026637 1976.22
-6.77626e-21 0.0117883 2.65853e-09 866.073
0 -0.0117883 2.69853e-09 866.485
0 0.0117892 5.42091e-05 866.061
0 -0.0117892 5.42112e-05 866.473
-1.35525e-20 -0.0115087 0.00262146 1956.62
-1.35525e-20 0.0115087 0.0026215 1957.01
-2.25875e-21 -0.0116586 0.00190773 422.739
-2.25875e-21 0.0116586 0.0019079 436.215
-1.35525e-20 -0.0115418 0.00269549 1702.79
0 0.0115418 0.0026955 1703.25
-1.35525e-21 -0.0117157 0.00235642 1188.63
-4.51751e-22 0.0117159 0.0023565 1197.83
2.71051e-20 -0.0116486 0.00275063 1585.6
-2.71051e-20 0.0116486 0.00275064 1586.07
0 -0.0116731 0.00267354 1597.87
0 0.0116731 0.00267357 1598.35
5.42101e-20 0.0120453 0.000301328 881.37
0 -0.0120454 0.000301236 881.662
-2.71051e-20 -0.0120511 0.000915357 148.176
2.71051e-20 0.0120511 0.00091557 151.171
0 -0.012033 0.00156459 93.8542
0 0.012033 0.00156477 100.583
0 -0.01206 0.00216221 250.161
0 0.0120601 0.0021623 251.613
-2.71051e-20 -0.0119656 0.00265564 1549.41
2.71051e-20 0.0119656 0.00265569 1549.86
-6.77626e-21 -0.0122893 7.15655e-10 901.15
6.77626e-21 0.0122894 7.14789e-10 900.982
0 -0.0122905 5.31758e-05 901.158
0 0.0122905 5.31808e-05 900.99
-6.77626e-21 0.0123436 5.48212e-10 907.103
6.77626e-21 -0.0123436 5.47007e-10 907.257
-2.25875e-21 -0.0123659 0.000596094 531.848
2.25875e-21 0.0123659 0.000596232 533.267
6.77626e-21 0.0123987 5.15494e-10 911.754
-6.77626e-21 -0.0123987 5.14349e-10 911.89
0 0.0124005 5.03406e-05 911.704
0 -0.0124005 5.03428e-05 911.841
0 -0.0120574 0.00296139 1425.3
0 0.0120574 0.00296139 1425.65
-1.12938e-21 -0.012372 0.00122747 115.356
0 0.0123721 0.00122764 118.945
-1.35525e-20 -0.0121088 0.00291077 1423.95
-1.35525e-20 0.0121089 0.00291076 1424.3
0 -0.0123745 0.00187604 137.79
0 0.0123745 0.00187616 140.725
0 -0.0121515 0.00300998 1415.68
0 0.0121516 0.00301001 1416
-1.35525e-20 -0.0121996 0.00303504 1500.87
1.35525e-20 0.0121997 0.00303509 1501.25
-1.35525e-20 -0.0122191 0.00298806 1495.82
-1.35525e-20 0.0122192 0.00298808 1496.2
-1.03526e-21 -0.0123756 0.00256225 866.631
2.82344e-22 0.0123756 0.00256229 875.254
-2.71051e-20 0.0126709 0.000293136 931.575
5.42101e-20 -0.012671 0.000293093 931.587
-2.71051e-20 -0.0123021 0.00308847 1600.63
0 0.0123022 0.00308853 1600.97
-5.42101e-20 -0.0126957 0.000898572 149.439
0 0.0126958 0.00089868 152.482
2.71051e-20 -0.012709 0.00153933 68.8127
5.42101e-20 0.012709 0.00153943 70.3414
0 -0.0126986 0.00221282 131.209
-2.71051e-20 0.0126986 0.00221288 132.866
0 -0.0129174 7.10976e-11 970.349
0 0.0129174 7.11602e-11 970.387
-6.77626e-21 -0.0129197 4.74348e-05 970.377
0 0.0129197 4.7433e-05 970.415
-1.35525e-20 -0.012518 0.00320081 1573.42
1.35525e-20 0.0125181 0.00320085 1573.68
0 0.0129692 4.0155e-11 983.126
0 -0.0129692 4.01508e-11 983.085
0 -0.0126235 0.00300075 1425.97
-2.25875e-21 0.0126235 0.00300078 1428.49
3.38813e-21 0.0130046 0.000577477 574.521
0 -0.0130047 0.000577423 572.436
-6.77626e-21 0.0130214 3.77547e-11 989.257
0 -0.0130214 3.77506e-11 989.209
0 0.0130235 4.52047e-05 989.204
0 -0.0130235 4.52074e-05 989.157
-2.25875e-21 -0.0130315 0.00119939 109.689
2.82344e-21 0.0130316 0.00119946 112.778
-5.64689e-22 -0.0130336 0.0018718 83.182
1.12938e-21 0.0130336 0.00187185 86.2565
0 -0.0127497 0.00332057 1708.88
6.77626e-21 0.0127498 0.00332061 1709.05
-2.25875e-21 -0.0129826 0.00259345 428.096
5.64689e-21 0.0129826 0.00259348 440.128
0 -0.0128395 0.0033668 1814.27
1.35525e-20 0.0128396 0.00336684 1814.39
0 -0.0128582 0.00333774 1800.87
0 0.0128583 0.00333778 1800.99
0 0.0132994 0.000279159 1028.02
-2.71051e-20 -0.0132995 0.000279137 1027.92
-1.35525e-20 -0.0128782 0.00338673 1632.83
0 0.0128783 0.00338677 1632.98
5.42101e-20 0.0133387 0.000865034 165.197
2.71051e-20 -0.0133387 0.000865002 159.914
4.51751e-22 0.0130334 0.00304019 1163.47
2.25875e-22 -0.0130353 0.00304025 1154.36
6.77626e-21 -0.0129436 0.00342031 1555.13
-6.77626e-21 0.0129437 0.00342035 1555.29
0 -0.0129615 0.00336796 1563.22
1.35525e-20 0.0129616 0.00336799 1563.37
2.71051e-20 -0.0133632 0.00150671 59.4129
0 0.0133632 0.00150676 61.9283
0 -0.0133512 0.00219868 73.4063
2.71051e-20 0.0133512 0.00219872 79.8004
0 -0.0135358 4.47523e-12 1095.71
0 0.0135358 4.47588e-12 1095.85
0 -0.0135385 4.91843e-05 1095.74
0 0.0135385 4.91803e-05 1095.88
0 0.0135929 1.8852e-12 1121.58
6.77626e-21 -0.0135929 1.88467e-12 1121.44
1.12938e-21 0.013636 0.000546304 654.402
1.12938e-21 -0.0136361 0.000546291 649.907
-6.77626e-21 0.0136512 1.75111e-12 1129.25
0 -0.0136512 1.75062e-12 1129.1
0 0.0136535 4.92267e-05 1128.94
-6.77626e-21 -0.0136536 4.92359e-05 1128.79
2.71051e-20 -0.0133731 0.00282535 242.564
0 0.0133732 0.00282536 244.192
-2.71051e-20 -0.0132749 0.0033279 1494.21
-2.71051e-20 0.0132749 0.00332792 1494.32
5.64689e-22 -0.013679 0.00115206 115.375
-5.64689e-22 0.013679 0.00115208 121.279
0 -0.0136921 0.00182715 59.8405
1.12938e-21 0.0136921 0.00182717 63.2675
6.77626e-21 -0.0133673 0.00363809 1381.06
-6.77626e-21 0.0133673 0.00363812 1381.25
0 -0.013405 0.00359705 1380.74
0 0.013405 0.00359708 1380.94
1.12938e-21 -0.0136837 0.00251747 124.733
-1.69407e-21 0.0136838 0.00251749 126.877
0 0.0139138 0.000259106 1193.62
0 -0.0139138 0.000259099 1193.43
-1.35525e-20 -0.0134314 0.00367104 1381.05
0 0.0134314 0.00367107 1381.26
-1.35525e-20 -0.013468 0.00368979 1454.57
0 0.013468 0.00368982 1454.78
0 -0.0134844 0.00365352 1450.13
0 0.0134844 0.00365356 1450.34
2.71051e-20 0.0139705 0.000815055 193.399
-5.42101e-20 -0.0139705 0.000815048 180.537
4.39202e-22 -0.013675 0.00322688 840.258
0 0.013675 0.0032269 847.656
6.77626e-21 -0.0135481 0.00373065 1533.18
0 0.0135481 0.00373069 1533.43
-2.71051e-20 -0.0140148 0.00144488 58.459
-2.71051e-20 0.0140148 0.00144489 61.7281
6.77626e-21 -0.0141256 1.99131e-13 1379.55
6.77626e-21 0.0141256 1.99166e-13 1379.8
6.77626e-21 -0.0141299 5.79419e-05 1380.03
-1.35525e-20 0.0141299 5.79229e-05 1380.28
2.71051e-20 -0.01402 0.00213792 48.9254
-2.71051e-20 0.01402 0.00213792 50.5529
0 0.0141962 4.63662e-14 1455.04
-1.35525e-20 -0.0141962 4.63611e-14 1454.8
-3.38813e-21 0.0142449 0.000498317 857.359
-4.51751e-21 -0.0142449 0.000498316 844.349
0 0.0142626 5.40721e-05 1491.73
-6.77626e-21 -0.0142627 5.40946e-05 1491.49
-6.77626e-21 0.0142685 4.24128e-14 1493.68
6.77626e-21 -0.0142685 4.24077e-14 1493.44
-2.71051e-20 -0.0139913 0.00285486 126.338
0 0.0139913 0.00285488 125.056
6.77626e-21 -0.0137721 0.00385092 1503.69
-6.77626e-21 0.0137722 0.00385096 1504.1
5.64689e-22 -0.0138917 0.00364951 1366.93
-1.12938e-21 0.0138917 0.00364954 1368.82
-2.25875e-21 0.0143255 0.00107369 149.773
5.64689e-22 -0.0143255 0.00107369 134.563
0 -0.0143513 0.0017511 52.9161
5.64689e-22 0.0143513 0.0017511 56.4075
2.71051e-20 -0.0144732 0.000219186 1666.04
0 0.0144732 0.000219182 1666.34
6.77626e-21 -0.0139827 0.00397686 1583.04
-6.77626e-21 0.0139828 0.00397691 1583.37
2.25875e-21 -0.0143298 0.00248451 68.6717
2.25875e-21 0.0143298 0.00248452 72.2218
-5.42101e-20 0.0145986 0.000742805 264.371
2.71051e-20 -0.0145986 0.000742806 223.621
6.77626e-21 -0.0142572 0.00324559 414.804
4.51751e-21 0.0142572 0.00324562 423.528
1.35525e-20 -0.0140601 0.00402775 1673.39
0 0.0140601 0.00402781 1673.72
0 -0.014081 0.00400157 1656.41
0 0.0140811 0.00400163 1656.74
0 -0.0140961 0.00405297 1498.98
0 0.0140962 0.00405303 1499.32
5.27043e-21 -0.0146978 0.000423854 876.829
-7.52918e-22 0.0146978 0.000423853 890.169
6.77626e-21 -0.014714 5.32172e-05 1290.03
0 0.0147141 5.31873e-05 1290.31
6.77626e-21 -0.0147156 4.07604e-15 1293.8
6.77626e-21 0.0147157 4.07548e-15 1294.08
6.77626e-21 -0.0141531 0.00409437 1317.91
0 0.0141532 0.00409444 1318.22
-1.35525e-20 -0.014186 0.00402833 1343.78
0 0.0141861 0.00402839 1344.09
-2.71051e-20 -0.0146871 0.00133462 66.4487
-2.71051e-20 0.0146871 0.00133462 68.9866
-6.35275e-22 -0.0142916 0.00370912 1043.62
9.88205e-22 0.0142916 0.00370916 1049.11
-6.77626e-21 -0.0147878 2.32667e-16 1180.45
6.77626e-21 0.0147879 2.32452e-16 1180.81
0 -0.0146599 0.00209093 38.8193
0 0.0146599 0.00209094 45.1794
0 -0.014843 8.03853e-05 1048.95
0 0.014843 8.03526e-05 1049.39
0 -0.0148561 2.18776e-16 1046
0 0.0148561 2.1855e-16 1046.44
-5.42101e-20 -0.0146441 0.00281789 62.0115
2.71051e-20 0.0146441 0.0028179 69.2649
0 -0.0150101 0.000339146 695.689
2.71051e-20 0.0150101 0.000339154 696.226
-2.71051e-20 -0.0144832 0.00400474 1167.08
-2.71051e-20 0.0144832 0.0040048 1167.38
-2.71051e-20 -0.0144181 0.00428662 1185.47
0 0.0144182 0.0042867 1185.73
2.71051e-20 -0.0146327 0.00349143 219.542
0 0.0146327 0.00349146 204.082
0 -0.0149972 0.00170299 50.7909
1.8823e-21 0.0149972 0.001703 56.3512
0 -0.0144912 0.00422844 1201.25
0 0.0144913 0.00422852 1201.51
1.35525e-20 -0.0144934 0.00434137 1272.59
1.35525e-20 0.0144936 0.00434146 1272.83
-9.03502e-22 -0.0151529 0.000909675 292.563
2.93638e-21 0.0151529 0.000909676 304.604
-2.71051e-20 -0.0145637 0.00439248 1241.02
1.35525e-20 0.0145638 0.00439257 1241.25
-2.71051e-20 -0.014602 0.00431156 1245.44
-1.35525e-20 0.0146021 0.00431164 1245.67
5.64689e-22 -0.0150574 0.00235817 46.6013
-5.64689e-22 0.0150574 0.00235818 52.4018
-1.12938e-21 -0.0149519 0.00315932 104.457
-2.25875e-21 0.0149519 0.00315933 106.017
0 -0.0153675 5.06193e-05 578.719
-6.77626e-21 0.0153677 5.05775e-05 579.521
0 -0.015373 4.86613e-17 579.393
0 0.0153731 4.85588e-17 580.195
4.51751e-22 -0.0148915 0.00388258 664.03
-1.35525e-21 0.0148915 0.00388263 660.886
-6.77626e-21 -0.0154159 3.88773e-17 562.567
0 0.015416 3.87776e-17 563.433
-2.71051e-20 -0.0148215 0.00426958 1312.44
0 0.0148216 0.00426965 1312.62
0 -0.0154548 3.02596e-05 542.056
0 0.0154549 3.02264e-05 542.991
6.77626e-21 -0.0154565 3.72522e-17 542.427
0 0.0154566 3.71491e-17 543.361
6.77626e-21 -0.0148109 0.00457227 1411.8
0 0.014811 0.00457238 1411.9
6.77626e-21 -0.0148556 0.00452731 1427
0 0.0148557 0.00452741 1427.1
0 -0.015291 0.00279582 42.9179
0 0.015291 0.00279583 44.9502
0 -0.0148581 0.00460666 1509.13
0 0.0148583 0.00460678 1509.22
0 -0.0149 0.00463711 1488.63
6.77626e-21 0.0149001 0.00463723 1488.71
0 -0.0149278 0.00460013 1489.67
6.77626e-21 0.0149279 0.00460024 1489.75
0 -0.0152535 0.00349535 91.3508
2.71051e-20 0.0152535 0.00349537 103.497
0 -0.0150945 0.00432053 1107.81
7.52918e-22 0.0150946 0.00432059 1103.64
5.42101e-20 -0.0156481 0.00170282 43.8532
0 0.0156481 0.00170282 53.2364
0 0.0156283 0.00242155 42.8647
0 -0.0156283 0.00242155 39.8127
0 -0.0152931 0.00410118 302.024
0 0.0152932 0.00410122 288.81
0 -0.015191 0.0045723 1662.93
0 0.0151911 0.00457238 1662.91
5.42101e-20 0.0158564 0.000503046 317.661
0 -0.0158564 0.000503053 316.168
-1.12938e-21 -0.0155955 0.00313147 55.3103
0 0.0155955 0.00313148 59.1922
-6.77626e-21 -0.0151955 0.0048521 1728.75
-6.77626e-21 0.0151956 0.00485222 1728.72
-6.77626e-21 -0.0152218 0.00482879 1734.13
-6.77626e-21 0.0152219 0.0048289 1734.1
6.77626e-21 -0.0152273 0.00487524 1750.35
6.77626e-21 0.0152274 0.00487536 1750.32
-6.77626e-21 -0.0152573 0.00489706 1760.56
0 0.0152574 0.00489719 1760.53
0 -0.0152733 0.00486831 1762.2
0 0.0152734 0.00486843 1762.17
2.82344e-22 -0.0155765 0.00380625 147.418
5.64689e-22 0.0155765 0.00380628 150.472
-1.69407e-21 0.0161174 1.48167e-17 385.111
0 -0.0161182 1.48305e-17 383.389
-2.71051e-20 0.0159438 0.00275754 34.9403
0 -0.0159438 0.00275754 34.5827
1.8823e-22 -0.0155623 0.0044811 961.733
-1.17643e-22 0.0155624 0.00448116 976.933
2.71051e-20 -0.0155229 0.00482975 1865.37
2.71051e-20 0.015523 0.00482983 1865.3
2.71051e-20 -0.0159029 0.00345691 53.0827
-5.42101e-20 0.015903 0.00345692 54.3779
-3.38813e-21 -0.0155781 0.00513047 2037.17
-3.38813e-21 0.0155782 0.00513056 2037.25
2.71051e-20 -0.0158776 0.00413216 128.922
0 0.0158777 0.00413219 141.767
0 -0.0155898 0.00511599 2040.34
0 0.0155899 0.00511607 2040.42
-1.69407e-22 0.0163695 0.00112646 173.212
-7.34095e-22 -0.0163695 0.00112648 170.09
0 -0.0155955 0.00514312 2058.6
6.77626e-21 0.0155956 0.00514321 2058.69
0 -0.0156136 0.00515625 2073.29
0 0.0156137 0.00515634 2073.39
0 -0.0156211 0.00514122 2073.58
0 0.0156212 0.00514131 2073.69
2.11758e-22 0.0163299 0.00225504 43.6944
0 -0.0163314 0.00225388 42.5443
0 0.0165134 1.83628e-05 281.135
0 -0.0165134 1.83232e-05 279.247
0 0.016517 2.64107e-18 281.082
-3.38813e-21 -0.016517 2.63768e-18 279.193
3.38813e-22 -0.0157793 0.00488992 1528.13
-7.34095e-22 0.0157794 0.00488999 1551.29
0 -0.0162343 0.00309924 39.2899
5.64689e-22 0.0162343 0.00309924 39.0432
-3.38813e-21 -0.0165394 -1.52053e-19 278.017
3.38813e-21 0.0165394 -1.53119e-19 279.915
-3.38813e-21 -0.0165602 2.31404e-05 276.379
3.38813e-21 0.0165603 2.31905e-05 278.289
-3.38813e-21 -0.0165622 -1.44114e-19 276.372
3.38813e-21 0.0165623 -1.45159e-19 278.282
2.71051e-20 -0.0159282 0.00468151 405.845
-2.71051e-20 0.0159283 0.00468157 482.374
0 -0.0162015 0.00379234 72.6778
-5.64689e-22 0.0162016 0.00379236 75.4867
0 -0.0158863 0.00511953 2286.45
-2.71051e-20 0.0158864 0.0051196 2286.7
0 -0.0165599 0.00274152 31.7947
-2.71051e-20 0.0165599 0.00274152 31.1383
-8.47033e-22 -0.016193 0.00443156 206.31
-8.47033e-22 0.0161931 0.0044316 227.344
-6.77626e-21 -0.0159115 0.00537295 1727.48
0 0.0159116 0.00537303 1727.81
-6.77626e-21 -0.0159381 0.00534058 1719.39
0 0.0159382 0.00534066 1719.72
0 -0.0159556 0.00540506 1624.85
0 0.0159557 0.00540513 1625.2
5.42101e-20 -0.0165346 0.00343545 38.2078
0 0.0165347 0.00343545 36.2784
-5.64689e-22 -0.0161473 0.00497226 1017.89
-5.64689e-22 0.0161474 0.00497232 1033.63
0 -0.0160061 0.00544179 1377.44
-6.77626e-21 0.0160062 0.00544186 1377.86
-6.77626e-21 -0.0160434 0.00536957 1430.39
-6.77626e-21 0.0160435 0.00536965 1430.78
2.71051e-20 -0.0165061 0.00411387 70.3422
0 0.0165061 0.00411389 69.4111
1.0842e-19 0.0169791 0.00178697 42.4033
0 -0.0169791 0.00178697 44.1838
5.42101e-20 -0.0170733 0.000575201 241.839
0 0.0170733 0.000575203 244.118
3.88223e-22 -0.0169161 0.00243812 34.9689
-1.05879e-22 0.0169162 0.00243816 32.2736
0 -0.0163051 0.00529232 942.608
2.71051e-20 0.0163052 0.00529239 943.035
1.41172e-22 -0.0168686 0.00307981 33.8081
2.82344e-22 0.0168686 0.00307981 30.8985
0 -0.0164829 0.00475882 190.973
-2.71051e-20 0.016483 0.00475887 180.982
0 -0.0162225 0.00559923 964.821
-1.35525e-20 0.0162226 0.00559931 965.271
1.35525e-20 -0.0163053 0.00551974 981.426
-1.35525e-20 0.0163054 0.00551981 981.868
1.35525e-20 -0.0162978 0.00565404 1066.28
1.35525e-20 0.0162979 0.0056541 1066.74
2.82344e-22 -0.0168399 0.00376458 46.5643
0 0.0168399 0.00376458 43.4991
0 -0.0163778 0.00571225 1046.13
0 0.0163779 0.00571231 1046.61
0 -0.0164263 0.00561382 1048.27
1.35525e-20 0.0164264 0.00561388 1048.74
0 -0.0168092 0.00443951 100.243
0 0.0168092 0.00443953 97.668
2.71051e-20 -0.0172154 0.00273637 32.6875
5.42101e-20 0.0172154 0.00273638 27.6035
-2.71051e-20 -0.0171664 0.00341209 32.7317
-2.71051e-20 0.0171664 0.00341209 28.7499
2.25875e-21 -0.0167257 0.0051641 557.87
3.16226e-21 0.0167257 0.00516414 551.498
2.71051e-20 -0.0166359 0.00556304 1112.16
0 0.016636 0.00556311 1112.63
0 -0.0165776 0.00585761 1169.83
-2.03288e-20 0.0165777 0.0058577 1170.28
1.35525e-20 -0.016648 0.00578953 1188.54
0 0.0166481 0.00578962 1188.97
2.71051e-20 -0.0171607 0.00407706 45.7624
-2.71051e-20 0.0171607 0.00407707 40.4547
0 0.0176484 3.23622e-05 241.373
0 -0.0176485 3.23255e-05 238.893
6.77626e-21 0.0176509 -8.03953e-21 241.375
0 -0.0176509 -8.02771e-21 238.894
1.35525e-20 -0.0166431 0.00590528 1293.93
0 0.0166432 0.00590537 1294.3
-1.12938e-21 -0.0176285 0.00116335 145.093
-5.64689e-22 0.0176285 0.00116335 144.711
0 -0.0176822 2.53431e-21 238.852
0 0.0176822 2.54066e-21 241.347
6.77626e-21 -0.0177126 3.15372e-05 238.377
6.77626e-21 0.0177127 3.15721e-05 240.886
-6.77626e-21 -0.0177142 2.51156e-21 238.376
6.77626e-21 0.0177142 2.51789e-21 240.885
0 -0.0167058 0.00595053 1272.75
-2.71051e-20 0.0167058 0.0059506 1273.11
-1.35525e-20 -0.0167518 0.00589235 1272.43
-5.42101e-20 -0.0171029 0.00477857 90.6176
0 0.0171029 0.00477859 96.501
-1.35525e-20 0.0167519 0.00589242 1272.78
0 -0.0175088 0.00306443 32.6193
0 0.0175088 0.00306385 27.2809
8.99973e-22 0.0175117 0.00304918 27.424
0 -0.0175118 0.00304895 32.7563
5.64689e-22 0.0176368 0.00232613 34.3573
-5.64689e-22 -0.0176368 0.00232613 39.2666
7.52918e-22 -0.0169118 0.00560669 946.403
0 0.0169119 0.00560674 937.255
0 -0.0175634 0.0036581 37.4189
-5.64689e-22 0.0175634 0.00365811 31.3559
2.71051e-20 -0.0171319 0.00538503 276.166
-2.71051e-20 0.017132 0.00538507 245.207
0 -0.0169968 0.00585981 1381.88
-2.71051e-20 0.0169969 0.00585986 1382.17
2.25875e-21 -0.0174515 0.00442257 57.2543
0 0.0174515 0.00442258 53.382
1.35525e-20 -0.0169525 0.00612936 1403.55
1.35525e-20 0.0169526 0.0061294 1403.92
0 -0.0170054 0.00608737 1409.87
0 0.0170054 0.00608742 1410.24
0 -0.0170095 0.00617053 1416.22
0 0.0170095 0.00617057 1416.62
-1.69407e-21 -0.0174299 0.0050817 135.431
-1.12938e-21 0.0174299 0.00508172 128.414
1.35525e-20 -0.0170585 0.00621569 1423.17
-1.35525e-20 0.0170585 0.00621572 1423.57
0 -0.0170957 0.00616015 1426.43
-1.35525e-20 0.0170957 0.00616018 1426.83
2.71051e-20 -0.0177881 0.00407867 37.669
0 0.0177881 0.00407867 29.8756
5.42101e-20 -0.0182492 0.000583224 235.266
-5.42101e-20 0.0182492 0.000583225 237.986
1.0842e-19 0.0182177 0.0017667 46.2955
0 -0.0182177 0.00176669 51.2326
9.03502e-22 -0.0173923 0.00576036 755.872
2.71051e-21 0.0173923 0.00576039 745.366
0 -0.0173272 0.00613648 1472.61
-2.71051e-20 0.0173273 0.00613651 1473.09
-2.71051e-20 -0.0177633 0.00473764 56.1215
-2.71051e-20 0.0177633 0.00473765 48.3464
-1.0842e-19 0.0181474 0.0030587 24.4544
0 -0.0181474 0.0030587 32.3128
1.35525e-20 -0.0172962 0.00642627 1464.83
1.35525e-20 0.0172963 0.0064263 1465.28
-6.77626e-21 -0.0173396 0.0063839 1469.44
6.77626e-21 0.0173396 0.00638392 1469.89
0 -0.0181223 0.00372227 34.9335
-3.13402e-20 0.0181204 0.00372592 26.9203
0 -0.017341 0.00646754 1469.43
0 0.017341 0.00646756 1469.89
0 -0.0177401 0.00540102 109.345
0 0.0177401 0.00540103 115.032
0 -0.0173831 0.00650956 1461.35
1.35525e-20 0.017383 0.00650958 1461.79
-6.77626e-21 -0.0174233 0.00646349 1466.51
-6.77626e-21 0.0174233 0.00646351 1466.95
5.64689e-22 -0.0180948 0.00439399 42.31
2.82344e-22 0.0180948 0.00439399 33.9761
-6.77626e-21 -0.0175914 0.00620021 1111.96
7.52918e-22 0.0175914 0.00620023 1102.69
2.11758e-22 0.0183804 0.00368314 26.0199
0 -0.0183807 0.00368308 34.3612
5.64689e-22 -0.0180744 0.00505373 66.7564
0 0.0180744 0.00505374 61.3601
-2.71051e-20 -0.0177917 0.0059867 319.292
5.42101e-20 0.0177917 0.00598672 289.907
-2.71051e-20 -0.0176705 0.0064614 1486.85
-2.71051e-20 0.0176705 0.00646142 1487.27
0 0.0188284 2.77018e-05 238.113
0 -0.0188284 2.76798e-05 235.428
3.38813e-21 0.0188292 1.48229e-23 238.113
0 -0.0188293 1.48278e-23 235.428
6.77626e-21 -0.0176058 0.00673268 1460.24
6.77626e-21 0.0176058 0.00673269 1460.67
0 -0.0188572 -5.94337e-24 235.462
0 0.0188572 -5.97214e-24 238.147
-1.69407e-21 -0.0188314 0.00116255 145.735
1.12938e-21 0.0188314 0.00116255 143.919
2.71051e-20 -0.0184312 0.00404065 33.9053
2.71051e-20 0.0184312 0.00404065 25.6221
0 -0.0176558 0.00669542 1465.4
0 0.0176558 0.00669544 1465.84
0 -0.0188846 2.72795e-05 235.446
0 0.0188846 2.73009e-05 238.131
0 -0.0188852 -5.78567e-24 235.446
3.38813e-21 0.0188852 -5.80297e-24 238.131
0 -0.0176488 0.0067757 1465.77
0 0.0176488 0.00677571 1466.23
1.69407e-21 -0.0180727 0.00569488 156.9
2.25875e-21 0.0180727 0.00569489 149.908
-2.82344e-22 -0.0188 0.00239129 43.7202
2.82344e-22 0.0188 0.00239129 36.0896
6.77626e-21 -0.0176919 0.00681868 1455.42
6.77626e-21 0.0176919 0.00681869 1455.89
-6.77626e-21 -0.0177277 0.00676628 1461.28
-6.77626e-21 0.0177277 0.00676629 1461.75
-2.71051e-20 -0.0183972 0.00470952 41.8019
-2.71051e-20 0.0183972 0.00470952 32.3828
-3.61401e-21 -0.018036 0.00636963 795.306
-2.25875e-21 0.018036 0.00636963 784.227
0 -0.0184065 0.00534982 60.7409
2.71051e-20 0.0184065 0.00534983 50.9906
-4.23516e-22 0.0188389 0.00360748 24.4118
0 -0.0188389 0.00360748 33.3305
-1.99053e-20 0.0188449 0.00360726 24.4116
-4.65868e-21 -0.0188449 0.00360726 33.3394
0 -0.0179575 0.00674598 1465.69
0 0.0179575 0.00674599 1466.17
-4.23516e-22 -0.018797 0.00392551 34.6953
-2.11758e-22 0.018797 0.00392572 25.6813
0 -0.0187299 0.00435993 36.5446
-8.47033e-22 0.0187299 0.00435994 27.4216
0 -0.0187295 0.00436908 36.5928
-5.0822e-21 0.0187295 0.00436908 27.4649
6.77626e-21 -0.0179112 0.0070374 1444.77
0 0.0179112 0.00703741 1445.25
0 -0.0179573 0.0069938 1450.26
0 0.0179573 0.00699381 1450.74
0 -0.0179545 0.00708061 1452.37
0 0.0179545 0.00708062 1452.85
-5.42101e-20 -0.018373 0.00601996 120.454
0 0.018373 0.00601997 126.673
-6.77626e-21 -0.0179982 0.00712413 1443.15
6.77626e-21 0.0179982 0.00712414 1443.62
0 -0.0180407 0.00707639 1448.94
-6.77626e-21 0.0180407 0.0070764 1449.4
-2.82344e-22 -0.0187993 0.00494162 46.5081
0 0.0187993 0.00494163 35.5835
-5.27043e-21 -0.0182149 0.00681267 1104.5
1.50584e-21 0.0182149 0.00681268 1093.63
1.0842e-19 -0.0194433 0.000583039 235.607
1.0842e-19 0.0194433 0.000583039 238.258
5.42101e-20 -0.0194241 0.00177777 56.7688
5.42101e-20 0.0194241 0.00177777 48.874
-1.69407e-21 -0.0187034 0.00568152 73.8152
2.82344e-22 0.0187034 0.00568153 65.7364
-5.42101e-20 -0.0184175 0.00660392 324.204
-2.71051e-20 0.0184175 0.00660393 289.488
-2.71051e-20 -0.0182856 0.0070727 1460.62
2.71051e-20 0.0182856 0.00707271 1461.07
6.77626e-21 -0.0182152 0.00734069 1440.66
6.77626e-21 0.0182152 0.0073407 1441.16
1.0842e-19 0.0194206 0.00301783 24.0009
0 -0.0194206 0.00301783 33.8926
0 -0.0182686 0.00730221 1446.42
6.77626e-21 0.0182686 0.00730222 1446.93
-1.35525e-20 -0.0182601 0.00738542 1448.72
0 0.0182601 0.00738543 1449.27
0 -0.0186945 0.00631878 163.944
1.69407e-21 0.0186945 0.00631878 153.456
-6.77626e-21 -0.0183052 0.00743049 1439.73
0 0.0183052 0.0074305 1440.29
0 -0.0190301 0.00535182 46.111
2.71051e-20 0.0190301 0.00535182 32.2279
-6.77626e-21 -0.0183432 0.00737621 1445.68
0 0.0183432 0.00737622 1446.24
0 -0.0193729 0.00433863 32.8342
0 0.019373 0.00433863 22.7983
-9.03502e-22 -0.0186551 0.00698434 788.749
0 0.0186551 0.00698435 775.081
2.71051e-20 -0.019014 0.00599212 68.7916
-2.71051e-20 0.019014 0.00599212 54.0955
0 -0.0185715 0.00735757 1457.87
0 0.0185715 0.00735757 1458.48
0 0.0193594 0.0050052 27.6565
4.70574e-22 -0.0193594 0.0050052 39.5817
0 0.0200241 2.32174e-05 238.974
0 -0.0200241 2.32002e-05 236.51
3.38813e-21 0.0200244 -7.11699e-26 238.974
0 -0.0200244 -6.24674e-26 236.51
-6.77626e-21 -0.0185211 0.00764585 1438.88
-6.77626e-21 0.0185211 0.00764585 1439.48
0 -0.0200482 7.13798e-26 236.539
0 0.0200482 7.23318e-26 238.995
-6.77626e-21 -0.0185698 0.00760131 1444.85
-6.77626e-21 0.0185698 0.00760131 1445.45
0 -0.020072 2.30543e-05 236.564
3.38813e-21 0.020072 2.30714e-05 239.014
0 -0.0200723 6.81028e-26 236.564
-3.38813e-21 0.0200723 6.90154e-26 239.014
2.82344e-21 -0.0200388 0.00116454 148.747
0 0.0200388 0.00116454 146.75
-1.35525e-20 -0.0185663 0.00769085 1448.08
-1.35525e-20 0.0185663 0.00769085 1448.67
0 -0.0189943 0.00663938 125.132
-2.71051e-20 0.0189943 0.00663938 127.601
-8.47033e-22 -0.0193404 0.00565864 50.2853
0 0.0193404 0.00565864 36.414
-2.03288e-20 -0.0186116 0.00773605 1439.38
6.77626e-21 0.0186116 0.00773605 1439.96
2.82344e-22 -0.0200317 0.00238519 46.8463
5.64689e-22 0.0200317 0.00238519 39.3009
6.77626e-21 -0.0186561 0.00768715 1445.32
0 0.0186561 0.00768715 1445.9
2.25875e-21 -0.0188308 0.00742564 1102.28
-7.52918e-22 0.0188308 0.00742564 1089.98
-1.12938e-21 -0.019324 0.00630263 78.1064
-2.25875e-21 0.019324 0.00630263 66.8415
-1.41172e-22 -0.0200231 0.00366593 32.7187
-1.41172e-22 0.0200231 0.00366593 24.0997
2.71051e-20 -0.0190372 0.00721862 325.162
0 0.0190372 0.00721863 285.729
-5.42101e-20 -0.0196735 0.00531471 37.367
0 0.0196735 0.00531471 26.2129
0 -0.0188998 0.00768533 1459.99
-2.71051e-20 0.0188998 0.00768533 1460.55
-1.35525e-20 -0.0188271 0.007951 1442.22
0 0.0188271 0.007951 1442.85
-1.35525e-20 -0.0188821 0.00791241 1448.32
0 0.0188821 0.00791241 1448.95
0 -0.018873 0.00799685 1451.57
-1.35525e-20 0.018873 0.00799685 1452.23
-5.64689e-22 -0.0193199 0.00693381 167.043
-1.12938e-21 0.0193199 0.00693381 152.248
0 0.0196436 0.00596991 33.4314
0 -0.0196436 0.00596991 49.0633
-6.77626e-21 -0.018919 0.0080427 1443.35
0 0.018919 0.0080427 1444.04
-1.35525e-20 -0.0189579 0.00798817 1449.31
0 0.0189579 0.00798817 1449.99
7.05861e-23 -0.0200765 0.00477212 33.7634
-1.41172e-22 0.0200765 0.00477218 23.7667
-5.42101e-20 -0.0206493 0.000581176 237.47
0 0.0206493 0.000581176 239.732
-9.03502e-22 -0.0192723 0.00760065 792.767
-4.06576e-21 0.0192723 0.00760066 775.498
5.42101e-20 -0.0206483 0.00177116 61.61
0 0.0206483 0.00177116 56.4111
5.42101e-20 -0.019653 0.00659834 70.2667
2.71051e-20 0.019653 0.00659835 53.3207
0 -0.0199776 0.00563304 41.0078
3.76459e-22 0.0199776 0.00563304 28.081
0 -0.0191862 0.00797147 1464.35
-2.71051e-20 0.0191862 0.00797148 1465.08
6.77626e-21 -0.0191351 0.00825832 1449.54
0 0.0191351 0.00825832 1450.27
0 0.0206479 0.00302107 27.5694
5.42101e-20 -0.0206479 0.00302107 34.7827
0 -0.0191841 0.00821459 1455.75
-6.77626e-21 0.0191841 0.00821459 1456.47
0 -0.0191802 0.00830329 1460.37
1.35525e-20 0.0191802 0.00830329 1461.1
0 -0.019615 0.00725971 129.882
5.42101e-20 0.019615 0.00725972 125.773
-6.77626e-21 -0.0192251 0.00834806 1453.22
6.77626e-21 0.0192251 0.00834807 1453.92
0 -0.0192694 0.00830053 1458.92
6.77626e-21 0.0192694 0.00830053 1459.62
-4.70198e-38 -0.0200465 0.00620002 53.1905
5.64689e-22 0.0200465 0.00620002 36.8219