# p  POINT_DATA 59669
# x  y  z  p
-0.0386366 -6.77626e-21 9.33814e-08 0.00421158
0.0386366 6.77626e-21 9.33814e-08 0.00274838
-0.0386366 0 0.000236766 0.00421185
0.0386366 -3.38813e-21 0.000236754 0.00274925
-0.0386365 -1.69407e-21 0.000428699 0.00421188
0.0386365 1.69407e-21 0.000428676 0.0027493
-0.0386365 -3.38813e-21 0.000666556 0.00421166
0.0386365 -6.77626e-21 0.000666521 0.00274858
-0.0386364 -1.69407e-21 0.000917399 0.00421196
0.0386364 -1.69407e-21 0.000917369 0.00275004
-0.0386364 -1.69407e-21 0.00111073 0.00421197
0.0386364 0 0.00111069 0.00275003
-0.0386364 0 0.00136165 0.0042117
0.0386364 6.77626e-21 0.00136161 0.00274856
-0.0386364 0 0.00162089 0.00421184
0.0386364 5.0822e-21 0.00162088 0.00274931
-0.0386365 0 0.00182904 0.00421181
0.0386365 1.69407e-21 0.00182903 0.0027488
0.0386365 6.77626e-21 0.002087 0.00274723
-0.0386365 -6.77626e-21 0.002087 0.00421158
-0.0387133 -6.77626e-21 0.000334786 0.00421203
0.0387133 0 0.000334769 0.00274852
0.0387145 -6.77626e-21 0.00100945 0.00274955
-0.0387145 3.38813e-21 0.00100948 0.00421213
0.0387157 3.38813e-21 0.00170741 0.00274854
-0.0387157 3.38813e-21 0.00170743 0.00421195
0.0388933 1.35525e-20 9.83892e-05 0.00274511
-0.0388934 -2.03288e-20 9.8385e-05 0.0042119
0.0388944 -6.77626e-21 8.11405e-08 0.00274504
-0.0388944 -6.77626e-21 8.11392e-08 0.0042119
0.038896 1.35525e-20 0.000773192 0.00274579
-0.038896 6.77626e-21 0.000773227 0.004212
0.0389003 -1.35525e-20 0.000556945 0.00274525
-0.0389003 0 0.000556978 0.00421196
0.0388961 -1.35525e-20 0.00122361 0.00274579
-0.0388961 -6.77626e-21 0.00122365 0.00421202
-0.0388903 -1.35525e-20 0.00145595 0.00421195
0.0388903 0 0.00145592 0.00274559
-0.0388845 0 0.00190647 0.00421184
0.0388845 6.77626e-21 0.00190644 0.00274518
-0.0389211 -1.35525e-20 0.00212604 0.00421163
0.0389211 1.35525e-20 0.00212604 0.00274407
-0.03898 0 7.37425e-08 0.00421182
0.03898 0 7.3742e-08 0.00274318
-0.0389877 0 0.000656511 0.00421194
0.0389877 -6.77626e-21 0.000656454 0.00274335
-0.0389501 0 0.00204928 0.0042117
0.0389501 1.35525e-20 0.00204927 0.00274362
0.0389855 6.77626e-21 0.00132191 0.0027434
-0.0389855 0 0.00132198 0.00421201
0.0389857 -6.77626e-21 0.00196118 0.00274295
-0.0389857 6.77626e-21 0.00196122 0.00421185
-0.0390408 -6.77626e-21 0.00214247 0.00421189
0.0390408 6.77626e-21 0.00214247 0.0027422
-0.0390834 6.77626e-21 0.00203104 0.00421191
0.0390834 -6.77626e-21 0.00203102 0.0027415
-0.0391899 5.0822e-21 7.98183e-08 0.00421168
0.0391899 -8.47033e-21 7.98187e-08 0.00273943
-0.0392186 1.05879e-22 0.000973966 0.0042119
0.039217 0 0.000971787 0.00273836
0.0392186 0 0.000993521 0.00273836
-0.0392186 0 0.000993748 0.0042119
-0.0392339 1.12938e-22 0.000322247 0.0042117
0.0392339 -3.38813e-22 0.000322224 0.0027386
0.0392124 9.41148e-23 0.00160285 0.00273875
-0.0392124 2.82344e-22 0.0016029 0.00421187
0.0392589 1.01644e-20 8.17933e-08 0.00273831
-0.0392589 -2.37169e-20 8.17941e-08 0.0042117
-0.0392358 3.38813e-21 0.00211246 0.00421208
0.0392358 -1.01644e-20 0.00211246 0.00273959
-0.0392408 1.35525e-20 0.0021699 0.00421209
0.0392408 3.38813e-21 0.00216991 0.00273959
-0.0393079 0 0.00200293 0.0042122
0.0393079 0 0.00200291 0.00273853
0.0393994 1.35525e-20 0.00128732 0.00273678
-0.0393994 -1.35525e-20 0.00128736 0.00421243
0.0394321 1.35525e-20 0.000662255 0.00273608
-0.0394321 -1.35525e-20 0.000662293 0.00421233
-0.0393782 2.71051e-20 0.00218876 0.00421233
0.0393783 0 0.00218876 0.00273785
0.0394171 1.35525e-20 0.00182881 0.00273682
-0.0394171 0 0.00182885 0.00421249
-0.0394765 0 8.81966e-08 0.004212
0.0394765 -1.35525e-20 8.81971e-08 0.00273546
0.039636 -1.35525e-20 8.20127e-08 0.0027336
-0.039636 6.77626e-21 8.20112e-08 0.00421253
-0.0396081 -4.51751e-21 0.00155275 0.00421284
0.0396081 -2.25875e-21 0.00155275 0.00273382
-0.0395887 -6.77626e-21 0.00221763 0.00421278
0.0395887 -2.03288e-20 0.00221763 0.00273453
-0.0396657 -2.25875e-21 0.000926812 0.00421285
0.0396657 -4.51751e-21 0.000926845 0.00273298
0.0396606 -6.77626e-21 0.00201754 0.00273333
-0.0396606 0 0.00201754 0.00421288
-0.0396602 -6.77626e-21 0.00213151 0.00421293
0.0396602 0 0.00213151 0.00273326
-0.0397186 0 0.000328044 0.00421284
0.0397186 3.38813e-21 0.000328061 0.00273248
-0.0397505 -6.77626e-21 0.00223983 0.00421293
0.0397506 6.77626e-21 0.00223983 0.0027325
-0.0398326 6.77626e-21 7.79286e-08 0.004213
0.0398326 0 7.79286e-08 0.00273134
-0.0399409 5.64689e-21 0.0012628 0.00421307
0.0399409 -4.51751e-21 0.00126293 0.00273034
-0.0399609 0 7.37241e-08 0.00421306
0.0399609 0 7.37245e-08 0.00272992
0.0399375 -2.25875e-21 0.0016998 0.00273032
-0.0399375 0 0.00169972 0.00421311
-0.0399278 0 0.00226415 0.00421298
0.0399278 0 0.00226415 0.00273079
-0.0400201 6.77626e-21 0.000637232 0.00421313
0.0400201 0 0.000637359 0.00272924
-0.0400601 0 0.000117456 0.00421314
0.0400601 1.35525e-20 0.000117489 0.00272893
0.0400609 0 7.18816e-08 0.00272891
-0.0400609 0 7.1881e-08 0.00421315
0.0400257 -1.35525e-20 0.00227757 0.0027297
-0.0400257 0 0.00227757 0.00421309
-0.0402355 0 0.000320268 0.00421327
0.0402356 -1.35525e-20 0.000320378 0.00272711
-0.0402399 0 0.000958442 0.00421333
0.0402399 0 0.000958653 0.00272722
0.0402362 1.35525e-20 0.0015669 0.0027274
-0.0402362 1.35525e-20 0.00156673 0.00421334
0.0402212 -3.38813e-21 0.00200607 0.00272697
-0.0402212 0 0.002006 0.0042134
-0.0404904 0 5.21452e-08 0.00421333
0.0404904 0 5.21452e-08 0.00272488
-0.0404915 -3.38813e-21 3.22757e-05 0.00421333
0.0404915 0 3.22702e-05 0.00272487
-0.0405175 3.38813e-21 5.13595e-08 0.00421334
0.0405175 0 5.13599e-08 0.00272462
-0.0404556 0 0.00233656 0.00421344
0.0404556 1.52466e-20 0.00233656 0.00272529
-0.0404936 -7.52918e-22 0.00172666 0.00421353
0.0404937 -7.52918e-22 0.00172685 0.00272515
0.0405368 0 5.18925e-08 0.00272445
-0.0405368 0 5.18925e-08 0.00421334
0.0405375 0 2.05856e-05 0.00272446
-0.0405375 -3.38813e-21 2.05864e-05 0.00421334
-0.0405369 2.03288e-20 0.000628538 0.00421342
0.040537 -1.14349e-20 0.000628787 0.00272468
-0.0405371 -4.23516e-22 0.00063565 0.00421342
0.0405372 -1.18585e-20 0.000635983 0.00272465
-0.0404766 -5.2516e-20 0.00233943 0.00421345
0.0404766 0 0.00233943 0.00272509
-0.040541 1.69407e-21 0.000702547 0.00421343
0.040541 -1.27055e-21 0.000703745 0.00272466
-0.0405495 1.14349e-20 0.000632191 0.00421342
0.0405497 -8.04681e-21 0.000632486 0.00272457
0.0404906 0 0.00234135 0.00272495
-0.0404906 -1.69407e-21 0.00234135 0.00421347
-0.0405397 -1.12938e-22 0.00125155 0.00421351
0.0405397 -1.12938e-22 0.00125189 0.00272486
-0.0405452 0 0.00227937 0.00421352
0.0405453 0 0.00227938 0.0027245
0.0406158 -3.38813e-21 5.8098e-08 0.00272378
-0.0406159 0 5.81041e-08 0.00421344
0.0406084 -5.0822e-21 0.00235751 0.00272384
-0.0406084 5.0822e-21 0.00235752 0.00421349
-0.0408377 2.71051e-20 0.000322191 0.00421341
0.0408378 -2.71051e-20 0.000322355 0.00272202
0.0408178 0 0.00198965 0.00272213
-0.0408178 -4.51751e-21 0.0019895 0.00421377
-0.0410085 2.71051e-21 0.0010286 0.00421376
0.0410086 8.13152e-21 0.00102904 0.0027206
-0.0410119 4.51751e-21 0.00150845 0.0042138
0.041012 4.51751e-21 0.0015088 0.00272012
0.0409774 0 0.00240814 0.0027203
-0.0409774 0 0.00240814 0.0042136
0.0410604 1.35525e-20 8.41089e-08 0.00271996
-0.0410604 0 8.41151e-08 0.00421383
0.0410629 0 0.000105931 0.00272001
-0.0410629 0 0.000105838 0.00421382
0.0409965 6.77626e-21 0.00237824 0.00272014
-0.0409965 6.77626e-21 0.00237826 0.00421361
-0.0410275 0 0.00241502 0.00421363
0.0410275 0 0.00241502 0.00271985
-0.0410347 -2.03288e-20 0.00233955 0.00421363
0.0410347 0 0.00233952 0.00271981
-0.0410708 6.77626e-21 0.0023814 0.00421361
0.0410708 0 0.00238138 0.00271953
-0.0411588 -1.35525e-20 8.62142e-08 0.00421399
0.0411588 -1.35525e-20 8.62085e-08 0.0027191
-0.0410901 -6.77626e-21 0.0024236 0.00421361
0.0410902 0 0.00242361 0.00271933
-0.0412374 -6.77626e-21 0.000638695 0.00421383
0.0412374 0 0.000639091 0.00271828
-0.0412319 0 0.00177406 0.00421374
0.041232 0 0.00177433 0.00271816
-0.0412814 1.35525e-20 7.69686e-08 0.0042141
0.0412815 0 7.69596e-08 0.00271817
-0.0412864 0 0.000114574 0.00421411
0.0412864 -1.35525e-20 0.000114681 0.00271815
-0.0412719 -2.71051e-20 0.00123079 0.00421384
0.041272 -2.71051e-20 0.00123128 0.00271759
-0.0414111 -4.51751e-21 0.00202219 0.00421365
0.0414112 -2.25875e-21 0.00202236 0.00271687
-0.0414655 0 0.00100479 0.00421376
0.0414656 -1.35525e-20 0.00100527 0.00271586
0.0414387 6.77626e-21 0.00247143 0.00271585
-0.0414387 0 0.00247142 0.00421374
-0.0415231 0 0.000300335 0.00421453
0.0415231 -1.35525e-20 0.000300526 0.00271615
0.0414667 0 0.00241974 0.00271558
-0.0414667 0 0.00241973 0.00421377
-0.0415317 -9.03502e-21 0.00151516 0.00421376
0.0415317 9.03502e-21 0.0015155 0.0027153
-0.0415257 0 0.00236274 0.00421382
0.0415258 6.77626e-21 0.00236276 0.00271485
-0.0415358 2.03288e-20 0.00248474 0.00421383
0.0415358 6.77626e-21 0.00248475 0.00271464
-0.0417744 -6.77626e-21 8.98208e-05 0.00421355
0.0417745 0 8.98629e-05 0.00271261
-0.0417779 -6.77626e-21 6.56267e-09 0.00421354
0.041778 0 6.55901e-09 0.00271255
-0.0418022 1.12938e-20 0.000615402 0.00421366
0.0418022 0 0.000615762 0.00271219
-0.0417906 -2.71051e-20 0.00186249 0.00421374
0.0417906 2.71051e-20 0.00186269 0.00271243
-0.0417567 6.77626e-21 0.00251504 0.00421414
0.0417567 2.03288e-20 0.00251505 0.00271163
-0.0417893 7.52918e-22 0.0022836 0.00421409
0.0417893 -1.50584e-21 0.00228367 0.00271163
-0.0418476 6.77626e-21 0.00117393 0.00421369
0.0418476 -6.77626e-21 0.00117434 0.00271192
-0.0418763 1.35525e-20 -1.15002e-09 0.00421337
0.0418764 0 -1.15404e-09 0.0027112
-0.0419536 0 8.50389e-05 0.00421337
0.0419536 -1.35525e-20 8.50569e-05 0.00271033
-0.0419539 0 -1.03272e-09 0.00421337
0.041954 -1.35525e-20 -1.0365e-09 0.00271036
0.0419533 0 0.00254202 0.00270992
-0.0419533 1.35525e-20 0.00254201 0.00421379
-0.0419887 -1.35525e-20 0.0019478 0.00421384
0.0419887 0 0.00194795 0.00270989
-0.0420605 -4.51751e-21 0.00226453 0.00421375
0.0420605 0 0.00226459 0.00270893
-0.042061 0 0.00250113 0.00421374
0.042061 1.35525e-20 0.00250114 0.00270888
-0.0421378 -1.35525e-20 0.000921112 0.00421354
0.0421378 0 0.000921356 0.00270841
-0.0420718 6.77626e-21 0.00255827 0.00421373
0.0420718 6.77626e-21 0.00255827 0.00270876
0.0421546 2.71051e-20 0.000313421 0.00270758
-0.0421546 0 0.000313301 0.00421358
-0.0421336 9.03502e-21 0.0016375 0.00421358
0.0421336 -4.51751e-21 0.00163769 0.0027092
-0.0421793 -6.77626e-21 0.002247 0.00421357
0.0421793 6.77626e-21 0.00224705 0.00270781
0.0423852 6.77626e-21 6.66393e-05 0.00270555
-0.0423852 -6.77626e-21 6.66078e-05 0.00421363
-0.0423913 0 1.33679e-09 0.00421363
0.0423913 0 1.33598e-09 0.00270551
-0.0423173 0 0.00259195 0.00421371
0.0423174 -6.77626e-21 0.00259196 0.00270667
-0.0423622 1.35525e-20 0.00253137 0.00421371
0.0423623 0 0.00253138 0.00270631
0.0424524 0 1.43798e-09 0.00270485
-0.0424524 -6.77626e-21 1.43857e-09 0.00421365
-0.0424509 1.12938e-21 0.000611632 0.00421364
0.0424509 3.38813e-21 0.000611739 0.00270535
-0.042444 4.51751e-21 0.00122872 0.00421363
0.0424441 1.12938e-21 0.00122884 0.00270604
-0.0425171 6.77626e-21 1.31915e-09 0.00421366
0.0425171 0 1.31866e-09 0.00270417
-0.0425183 0 6.48504e-05 0.00421366
0.0425183 6.77626e-21 6.48584e-05 0.00270416
-0.0424587 -3.38813e-21 0.00227178 0.00421375
0.0424587 -3.38813e-21 0.00227182 0.00270544
-0.0424457 0 0.00260956 0.00421381
0.0424458 -1.35525e-20 0.00260957 0.0027055
-0.0424966 -4.51751e-21 0.00189079 0.00421378
0.0424967 4.51751e-21 0.00189085 0.00270532
-0.0425605 -1.35525e-20 0.00254401 0.00421387
0.0425605 -1.35525e-20 0.00254402 0.00270449
-0.0426002 -6.77626e-21 0.00263076 0.00421394
0.0426003 1.35525e-20 0.00263076 0.0027041
0.0427577 0 0.000308577 0.00270206
-0.0427577 0 0.000308578 0.00421372
-0.042762 0 0.00092253 0.00421374
0.042762 2.71051e-20 0.000922525 0.00270319
-0.042748 0 0.00216861 0.00421383
0.0427481 1.35525e-20 0.00216862 0.002703
-0.0427408 -4.06576e-20 0.00240953 0.00421396
0.0427408 0 0.00240953 0.00270285
-0.0428416 8.13152e-21 0.00164355 0.00421381
0.0428416 -1.35525e-20 0.00164354 0.00270263
-0.0428297 0 0.00266224 0.00421405
0.0428297 2.71051e-20 0.00266224 0.00270231
0.0429615 0 5.93011e-11 0.00270109
-0.0429615 0 5.79639e-11 0.00421367
-0.0428847 0 0.00256824 0.00421401
0.0428847 -1.35525e-20 0.00256825 0.00270198
0.0429621 0 9.52028e-05 0.0027011
-0.0429622 1.35525e-20 9.51811e-05 0.00421367
-0.0429936 -5.80823e-21 0.00192518 0.00421385
0.0429937 -1.54886e-20 0.00192513 0.00270189
-0.0430551 0 -1.06622e-10 0.00421367
0.0430551 0 -1.05152e-10 0.00270065
0.0430752 -2.25875e-21 0.000610558 0.00270091
-0.0430752 -4.51751e-21 0.000610657 0.0042137
0.0430107 1.35525e-20 0.00268706 0.00270112
-0.0430107 -1.35525e-20 0.00268706 0.00421401
-0.0430775 -2.25875e-21 0.00123361 0.00421376
0.0430775 -2.25875e-21 0.00123349 0.00270125
-0.0430372 -2.25875e-21 0.00230972 0.00421388
0.0430373 2.25875e-21 0.00230971 0.00270121
-0.0431637 0 1.5382e-11 0.00421365
0.0431637 0 1.67288e-11 0.00269998
-0.0431652 1.35525e-20 0.000103815 0.00421365
0.0431652 0 0.000103811 0.00269998
0.0432457 -1.35525e-20 0.00271928 0.00269968
-0.0432458 6.77626e-21 0.00271929 0.004214
0.0433794 -2.71051e-20 0.000307824 0.00269899
-0.0433795 -2.71051e-20 0.000307922 0.00421361
-0.0433141 4.51751e-21 0.00255689 0.00421392
0.0433141 9.03502e-21 0.00255689 0.00269945
-0.0433486 -9.03502e-21 0.00207031 0.00421378
0.0433486 -1.35525e-20 0.00207025 0.00269955
0.0433928 2.71051e-20 0.000922169 0.00269936
-0.0433928 2.71051e-20 0.000922361 0.00421373
-0.043354 -2.71051e-20 0.00273413 0.00421397
0.043354 2.03288e-20 0.00273414 0.00269914
-0.0434187 -4.51751e-21 0.0016019 0.00421374
0.0434187 6.77626e-21 0.00160173 0.0026991
0.0435473 0 9.019e-10 0.00269845
-0.0435473 -1.35525e-20 9.01633e-10 0.00421366
0.0435506 0 0.000132384 0.00269845
-0.0435506 -1.35525e-20 0.00013241 0.00421366
-0.0436835 2.71051e-20 1.03606e-09 0.00421366
0.0436835 -2.71051e-20 1.03617e-09 0.00269805
0.0436251 2.11758e-22 0.00235498 0.00269818
-0.0436252 2.11758e-22 0.00235502 0.00421372
0.0436012 2.71051e-20 0.00276801 0.00269811
-0.0436012 0 0.00276801 0.00421381
0.0436982 -4.51751e-21 0.000607493 0.0026979
-0.0436983 -4.51751e-21 0.000607717 0.00421364
0.0436672 0 0.00190306 0.00269792
-0.0436672 -2.71051e-20 0.0019032 0.0042137
0.0436479 2.11758e-22 0.00235467 0.00269805
-0.0436479 0 0.00235472 0.00421371
0.0437002 -9.03502e-21 0.00112951 0.00269781
-0.0437002 4.51751e-21 0.0011298 0.00421366
-0.0436555 -2.11758e-22 0.00236095 0.00421371
0.0436555 2.11758e-22 0.00236091 0.00269802
0.0438316 -2.71051e-20 0.000140387 0.00269745
-0.0438317 0 0.000140437 0.00421361
-0.0438324 1.35525e-20 1.26291e-09 0.00421361
0.0438324 1.35525e-20 1.263e-09 0.00269744
0.044004 0 0.000302869 0.00269692
-0.044004 2.71051e-20 0.000303007 0.00421365
0.0439928 0 0.00156096 0.00269633
-0.0439928 -6.77626e-21 0.00156117 0.00421356
-0.0439354 -6.77626e-21 0.00281381 0.00421372
0.0439354 -2.5411e-20 0.00281382 0.00269663
-0.0439809 1.35525e-20 0.00211391 0.00421359
0.0439809 -4.51751e-21 0.00211382 0.00269618
-0.0439531 -1.69407e-21 0.00279275 0.00421371
0.0439531 3.38813e-21 0.0027928 0.00269657
-0.043961 -1.69407e-21 0.00281732 0.00421371
0.043961 0 0.00281732 0.00269648
-0.0440043 2.25875e-21 0.0025931 0.00421364
0.0440043 0 0.00259309 0.00269635
0.0440988 1.6263e-20 0.00101219 0.00269598
-0.0440988 -8.13152e-21 0.0010125 0.00421348
0.0441598 2.71051e-20 2.36366e-09 0.00269605
-0.0441598 0 2.3638e-09 0.00421348
0.0441637 0 0.000147457 0.00269604
-0.0441637 -2.71051e-20 0.000147511 0.00421348
-0.0443161 0 2.58835e-09 0.00421343
0.0443161 -1.35525e-20 2.58819e-09 0.00269539
0.0443172 -6.77626e-21 0.000604412 0.00269523
-0.0443172 -2.25875e-21 0.000604657 0.00421338
0.0442814 -5.42101e-20 0.00191676 0.00269508
-0.0442814 -2.71051e-20 0.00191692 0.00421342
0.0443137 2.71051e-20 0.00123266 0.00269513
-0.0443137 0 0.00123298 0.00421333
-0.0442645 2.71051e-20 0.00285891 0.00421358
0.0442646 2.71051e-20 0.00285892 0.00269433
0.0443414 4.51751e-21 0.00231325 0.00269467
-0.0443414 -9.03502e-21 0.00231331 0.00421342
-0.0444716 0 0.000150042 0.00421333
0.0444716 -2.71051e-20 0.000150001 0.00269468
-0.0444749 -1.35525e-20 2.3549e-09 0.00421333
0.0444749 1.35525e-20 2.35475e-09 0.00269467
0.0445335 -2.71051e-21 0.00101154 0.00269426
-0.0445335 0 0.00101185 0.0042132
-0.0445227 4.51751e-21 0.00155722 0.00421317
0.0445227 0 0.00155701 0.00269453
-0.0445478 -2.71051e-20 0.00210098 0.00421324
0.0445478 2.71051e-21 0.00210088 0.00269443
-0.0445257 -1.35525e-20 0.00289471 0.00421343
0.0445258 -3.38813e-20 0.00289472 0.00269308
0.0446295 0 0.000304347 0.00269383
-0.0446295 -1.35525e-20 0.000304461 0.00421316
-0.044594 0 0.00278583 0.00421338
0.044594 0 0.00278588 0.00269288
-0.0446261 0 0.00264116 0.00421334
0.0446261 -2.25875e-21 0.00264114 0.00269288
0.0446645 0 0.00291372 0.00269251
-0.0446646 -6.77626e-21 0.00291373 0.00421335
0.0447808 1.35525e-20 1.63152e-09 0.00269311
-0.0447808 1.35525e-20 1.63155e-09 0.00421307
0.0447854 0 0.00015027 0.00269309
-0.0447855 1.35525e-20 0.000150312 0.00421307
-0.0449405 0 1.3988e-09 0.00421295
0.0449405 1.35525e-20 1.39877e-09 0.00269232
0.044942 4.51751e-21 0.000602417 0.00269237
-0.044942 -4.51751e-21 0.00060259 0.00421294
0.0449381 -4.51751e-21 0.00123202 0.00269242
-0.0449382 0 0.00123223 0.00421291
0.0449431 -6.77626e-21 0.00185203 0.00269235
-0.0449431 -2.25875e-21 0.00185217 0.00421298
0.0449492 -4.51751e-21 0.00232791 0.00269203
-0.0449492 -4.51751e-21 0.00232797 0.00421309
0.0449214 -1.35525e-20 0.00294893 0.0026914
-0.0449214 0 0.00294893 0.00421321
-0.0451017 -1.35525e-20 1.29463e-09 0.00421287
0.0451017 0 1.2946e-09 0.00269162
-0.0450995 0 0.00297331 0.00421326
0.0450995 -2.03288e-20 0.00297331 0.00269036
-0.045251 1.35525e-20 0.000202824 0.00421277
0.045251 9.03502e-21 0.000202783 0.00269106
0.0452595 2.71051e-20 0.000915145 0.00269096
-0.0452595 0 0.000915292 0.00421272
0.045262 2.71051e-20 0.00154673 0.00269058
-0.045262 2.71051e-20 0.00154687 0.00421276
0.0452616 0 0.00214816 0.00269071
-0.0452617 0 0.00214823 0.00421289
0.0452367 2.25875e-21 0.00269257 0.00268982
-0.0452367 0 0.00269258 0.0042132
0.0453935 0 1.00959e-09 0.0026906
-0.0453935 0 1.00963e-09 0.00421267
0.0453384 0 0.00300597 0.00268979
-0.0453384 0 0.00300597 0.00421303
-0.045559 -1.35525e-20 9.03952e-10 0.00421251
0.045559 -2.71051e-20 9.03906e-10 0.00269011
0.0455698 6.77626e-21 0.000598369 0.00269016
-0.0455698 2.25875e-21 0.000598452 0.00421248
0.045574 -4.51751e-21 0.00122571 0.00268997
-0.045574 6.77626e-21 0.00122582 0.00421247
-0.0454949 4.06576e-20 0.00302739 0.00421272
0.0454949 0 0.00302739 0.00268989
0.045575 -2.25875e-21 0.00186033 0.00268975
-0.045575 0 0.0018604 0.00421255
0.0455636 9.03502e-21 0.00235679 0.00268971
-0.0455636 -9.03502e-21 0.00235682 0.00421264
-0.0456185 1.35525e-20 0.00304441 0.00421253
0.0456185 6.77626e-21 0.00304441 0.00268983
-0.0457296 0 8.66649e-10 0.00421238
0.0457296 0 8.66605e-10 0.00268975
-0.0458748 0 0.000203876 0.00421226
0.0458748 9.03502e-21 0.000203862 0.00268952
0.0458876 0 0.000909899 0.00268936
-0.0458876 0 0.000909967 0.00421217
-0.0458326 -2.71051e-21 0.00274325 0.00421226
0.0458326 3.16226e-21 0.00274325 0.00268958
0.0458898 0 0.00154847 0.00268898
-0.0458898 0 0.00154853 0.00421223
0.0458888 0 0.00217764 0.00268874
-0.0458889 2.71051e-20 0.00217767 0.00421231
-0.0458626 -6.77626e-21 0.00307837 0.00421237
0.0458626 -1.35525e-20 0.00307837 0.00268874
0.0460115 -1.35525e-20 7.57524e-10 0.00268934
-0.0460115 2.71051e-20 7.57548e-10 0.00421213
-0.0459673 -6.77626e-21 0.0030928 0.00421234
0.0459674 1.35525e-20 0.0030928 0.00268812
-0.0461847 0 7.198e-10 0.00421198
0.0461847 0 7.19779e-10 0.00268902
-0.0461957 4.51751e-21 0.000591487 0.00421189
0.0461957 2.25875e-21 0.000591455 0.00268898
0.0462006 -9.03502e-21 0.00122009 0.00268876
-0.0462006 0 0.00122013 0.00421184
0.0462019 6.77626e-21 0.00186862 0.00268865
-0.0462019 0 0.00186864 0.0042119
-0.0461655 -6.77626e-21 0.00312126 0.0042126
0.0461656 -2.03288e-20 0.00312127 0.00268552
-0.0461939 -1.35525e-20 0.00295331 0.00421246
0.0461939 0 0.00295328 0.00268607
-0.0462707 2.25875e-21 0.00256437 0.00421205
0.0462707 1.12938e-21 0.00256437 0.00268745
-0.0463595 -2.71051e-20 6.73842e-10 0.0042118
0.0463595 2.71051e-20 6.73822e-10 0.00268885
-0.0463949 3.38813e-21 0.00315229 0.00421192
0.046395 0 0.0031523 0.00268651
-0.046506 0 0.000199294 0.00421162
0.046506 1.807e-20 0.000199294 0.00268869
0.0465144 0 0.000898641 0.0026884
-0.0465144 0 0.000898665 0.00421146
0.0465158 0 0.00154147 0.00268828
-0.0465158 0 0.00154149 0.00421151
0.0464366 3.38813e-21 0.00315806 0.00268658
-0.0464366 3.38813e-21 0.00315806 0.00421183
0.0464514 -6.77626e-21 0.0031144 0.0026867
-0.0464514 0 0.00311437 0.00421178
0.0465218 -2.71051e-20 0.00218627 0.00268863
-0.0465218 0 0.00218628 0.00421153
0.0466484 1.35525e-20 5.2382e-10 0.0026885
-0.0466484 2.71051e-20 5.23805e-10 0.00421144
-0.0466132 9.03502e-21 0.00290744 0.00421154
0.0466132 4.51751e-21 0.00290743 0.00268705
-0.0468205 -2.71051e-20 4.77071e-10 0.0042113
0.0468205 0 4.77088e-10 0.00268798
-0.0468261 -6.77626e-21 0.00058046 0.00421113
0.0468261 -2.25875e-21 0.000580448 0.00268797
0.0467233 0 0.00319817 0.00268642
-0.0467234 0 0.00319819 0.00421142
0.0468292 -4.51751e-21 0.00120515 0.00268779
-0.0468292 -4.51751e-21 0.00120516 0.00421106
0.0468326 0 0.00185915 0.00268767
-0.0468326 -6.77626e-21 0.00185916 0.00421111
-0.0468472 3.61401e-21 0.00253599 0.00421126
0.0468472 4.51751e-21 0.00253598 0.00268671
0.0468396 -1.69407e-21 0.00321454 0.00268642
-0.0468396 0 0.00321454 0.00421124
0.0468444 0 0.00320755 0.00268643
-0.0468444 0 0.00320756 0.00421123
0.0468557 0 0.00318854 0.00268639
-0.0468557 1.69407e-21 0.00318856 0.00421123
0.0468539 -1.69407e-21 0.00321654 0.00268637
-0.0468539 0 0.00321653 0.00421123
-0.0468678 0 0.00320873 0.00421122
0.0468679 0 0.00320873 0.00268635
-0.0468728 3.38813e-21 0.00321918 0.00421122
0.0468729 1.69407e-21 0.00321918 0.00268631
-0.0469903 -1.35525e-20 4.262e-10 0.004211
0.0469903 -1.35525e-20 4.26209e-10 0.00268765
0.0470012 0 0.00293207 0.00268644
-0.0470012 0 0.00293208 0.00421101
0.0471425 -9.03502e-21 0.000190384 0.00268747
-0.0471425 -9.03502e-21 0.000190377 0.00421077
0.0471463 5.42101e-20 0.000881282 0.00268732
-0.0471463 0 0.000881291 0.00421061
-0.0471461 -5.42101e-20 0.00152023 0.00421066
0.0471461 2.71051e-20 0.00152022 0.00268717
-0.047153 0 0.00216928 0.00421073
0.047153 0 0.00216927 0.00268659
-0.0471472 -6.77626e-21 0.00293418 0.00421082
0.0471473 0 0.00293418 0.00268631
0.0472953 0 2.46098e-10 0.00268729
-0.0472954 0 2.46072e-10 0.00421056
-0.0474624 0 1.94602e-10 0.00421042
0.0474624 2.71051e-20 1.9462e-10 0.00268698
-0.04735 0 0.00328627 0.00421075
0.0473501 6.77626e-21 0.00328627 0.00268528
-0.0474636 -1.35525e-20 0.000567332 0.00421025
0.0474636 -2.25875e-21 0.000567326 0.00268719
-0.0474647 9.03502e-21 0.00118521 0.00421019
0.0474647 0 0.0011852 0.00268698
-0.0473731 -6.77626e-21 0.0032485 0.00421069
0.0473732 6.77626e-21 0.0032485 0.00268535
0.0474651 9.03502e-21 0.00184525 0.00268647
-0.0474651 9.03502e-21 0.00184525 0.00421026
-0.0474588 0 0.0025184 0.00421039
0.0474588 0 0.00251839 0.00268608
-0.047445 9.03502e-21 0.00290027 0.00421043
0.047445 -1.35525e-20 0.00290027 0.00268606
-0.0474338 -6.77626e-21 0.00316339 0.00421056
0.0474339 0 0.00316339 0.00268555
-0.0474249 -6.77626e-21 0.00329671 0.00421064
0.047425 0 0.00329671 0.0026852
-0.0474931 0 0.00325556 0.00421053
0.0474932 -6.77626e-21 0.00325557 0.00268521
-0.0476306 -1.35525e-20 1.68213e-10 0.00421006
0.0476307 0 1.68224e-10 0.00268724
-0.0475218 1.35525e-20 0.00331024 0.00421052
0.0475219 0 0.00331024 0.00268503
-0.0477792 0 0.000187403 0.00420982
0.0477792 9.03502e-21 0.000187413 0.00268736
-0.0477829 0 0.000865681 0.00420977
0.0477829 0 0.000865674 0.00268695
-0.0477845 2.71051e-20 0.00150006 0.00420972
0.0477845 -5.42101e-20 0.00150006 0.00268646
0.0477786 0 0.00217088 0.00268562
-0.0477786 2.71051e-20 0.00217088 0.00420991
-0.0477468 2.03288e-20 0.00297912 0.00421002
0.0477468 0 0.00297912 0.00268589
0.0479279 1.35525e-20 8.46695e-11 0.00268756
-0.0479279 1.35525e-20 8.46536e-11 0.00420958
-0.0478854 -6.77626e-21 0.00336132 0.00420989
0.0478855 0 0.00336133 0.00268523
-0.0479336 0 0.00329264 0.00420974
0.0479336 -1.35525e-20 0.00329266 0.00268554
-0.0481015 0 5.87263e-11 0.00420933
0.0481015 -2.71051e-20 5.87356e-11 0.00268789
-0.0481016 0 0.0005569 0.00420928
0.0481016 6.77626e-21 0.000556895 0.00268777
0.0481005 0 0.00117221 0.00268725
-0.0481005 -2.25875e-21 0.00117222 0.00420927
0.0480954 2.25875e-21 0.00184355 0.00268637
-0.0480954 4.51751e-21 0.00184355 0.00420931
0.0480213 1.35525e-20 0.00338025 0.00268574
-0.0480213 -1.35525e-20 0.00338025 0.00420956
-0.0480779 2.25875e-21 0.00254399 0.00420938
0.0480779 -2.25875e-21 0.00254399 0.00268597
-0.0480529 6.77626e-21 0.00300489 0.0042094
0.048053 7.90564e-21 0.0030049 0.00268626
0.0481626 -1.35525e-20 0.00330784 0.00268583
-0.0481626 -2.71051e-20 0.00330782 0.0042093
-0.0482805 0 5.28162e-11 0.00420893
0.0482805 2.71051e-20 5.28235e-11 0.00268861
0.048225 0 0.00340842 0.00268557
-0.048225 6.77626e-21 0.00340843 0.00420923
-0.0484142 9.03502e-21 0.000191539 0.00420868
0.0484142 4.51751e-21 0.000191549 0.00268904
-0.048417 -2.71051e-20 0.000858073 0.00420886
0.048417 0 0.000858069 0.002688
0.0484147 0 0.00149607 0.00268752
-0.0484147 2.71051e-20 0.00149607 0.00420876
0.0484043 2.71051e-20 0.00218437 0.00268579
-0.0484043 -2.71051e-20 0.00218437 0.00420884
-0.0483708 -1.35525e-20 0.00290962 0.00420867
0.0483708 1.35525e-20 0.00290963 0.00268688
0.0485467 1.35525e-20 3.79329e-11 0.00268948
-0.0485467 0 3.79259e-11 0.00420843
-0.0484431 -6.77626e-21 0.00343873 0.00420887
0.0484431 -2.71051e-20 0.00343873 0.00268551
-0.0484639 2.71051e-21 0.00324791 0.00420871
0.048464 -2.71051e-21 0.00324792 0.00268634
0.0486839 6.77626e-21 0.000595694 0.00268924
-0.0486839 6.77626e-21 0.000595693 0.00420827
-0.048731 0 3.20742e-11 0.00420805
0.048731 2.71051e-20 3.20793e-11 0.00269015
0.04873 2.25875e-21 0.00116766 0.00268872
-0.04873 -9.03502e-21 0.00116766 0.00420821
0.0487228 0 0.00184437 0.00268826
-0.0487228 -6.77626e-21 0.00184437 0.00420809
-0.0486954 2.25875e-21 0.0025583 0.00420818
0.0486954 -4.51751e-21 0.0025583 0.00268727
0.0486808 0 0.00347157 0.00268577
-0.0486808 -2.71051e-20 0.00347157 0.00420839
-0.0487347 1.807e-21 0.00303833 0.0042082
0.0487348 -9.03502e-22 0.00303833 0.00268663
-0.0489189 1.35525e-20 2.84986e-11 0.00420759
0.0489189 1.35525e-20 2.85025e-11 0.00269064
-0.0490437 6.77626e-21 0.000282065 0.00420736
0.0490437 -2.25875e-21 0.000282066 0.00269105
-0.0490452 0 0.000856189 0.00420771
0.0490452 2.71051e-20 0.000856191 0.00268971
0.0490418 0 0.0014945 0.00268956
-0.0490419 0 0.00149449 0.00420752
-0.0490331 -2.71051e-20 0.00217903 0.00420727
0.0490331 2.71051e-20 0.00217904 0.00269009
0.0489629 -6.77626e-21 0.00351064 0.00268638
-0.048963 3.72694e-20 0.00351064 0.00420773
-0.0490668 -2.71051e-20 0.00277894 0.0042075
0.0490668 0 0.00277894 0.00268806
-0.0490412 4.51751e-21 0.00333027 0.00420758
0.0490412 4.51751e-21 0.00333029 0.0026869
-0.0490309 1.01644e-20 0.00352007 0.0042076
0.049031 6.77626e-21 0.00352008 0.00268656
0.0491635 -2.71051e-20 1.98058e-11 0.00269163
-0.0491635 0 1.98029e-11 0.00420708
-0.049353 0 1.62508e-11 0.00420664
0.049353 -2.71051e-20 1.62524e-11 0.00269281
0.0493564 -9.03502e-21 0.000636932 0.00269156
-0.0493564 4.51751e-21 0.000636922 0.00420694
0.0493563 4.51751e-21 0.00116575 0.00269075
-0.0493563 -4.51751e-21 0.00116574 0.00420694
0.0493524 3.38813e-21 0.00183764 0.00269002
-0.0493524 0 0.00183764 0.00420679
-0.0493586 -3.38813e-21 0.0024901 0.00420678
0.0493586 -1.12938e-21 0.0024901 0.00268948
-0.0493666 0 0.00305989 0.00420693
0.0493666 -2.25875e-21 0.00305989 0.00268863
-0.0493403 0 0.00356289 0.00420696
0.0493403 1.35525e-20 0.0035629 0.00268778
-0.0495418 0 1.40423e-11 0.00420627
0.0495418 -1.35525e-20 1.40435e-11 0.00269363
-0.0496167 6.77626e-21 0.000238625 0.0042061
0.0496167 6.77626e-21 0.000238631 0.00269383
-0.0496687 -2.71051e-20 0.000855711 0.00420634
0.0496687 2.71051e-20 0.000855725 0.00269249
0.0496679 0 0.00149257 0.00269111
-0.0496679 -2.71051e-20 0.00149255 0.0042062
-0.0496675 0 0.00216349 0.00420618
0.0496675 0 0.0021635 0.0026892
-0.0496049 6.77626e-21 0.00359927 0.00420684
0.0496049 6.77626e-21 0.00359927 0.00268792
-0.0496694 -2.71051e-20 0.00278151 0.00420616
0.0496694 -2.71051e-20 0.00278153 0.00269055
-0.0496485 -9.03502e-21 0.00336928 0.00420667
0.0496486 4.51751e-21 0.0033693 0.00268857
-0.0496411 6.77626e-21 0.00354774 0.00420682
0.0496412 0 0.0035478 0.00268802
0.0497814 -2.71051e-20 8.64185e-12 0.0026945
-0.0497814 0 8.64103e-12 0.00420568
0.0496784 3.38813e-21 0.00360933 0.00268821
-0.0496784 0 0.00360934 0.0042067
5.00836e-09 0 0.049924 -0.00050469
0.000626108 2.11758e-22 0.049925 -0.000477525
-0.000623055 0 0.049925 -0.000531678
0.00125224 0 0.049926 -0.000450399
-0.00124608 0 0.049926 -0.000558599
0.00187842 0 0.049927 -0.000423431
-0.00186909 -8.47033e-22 0.049927 -0.000585893
-0.0499694 0 6.43123e-12 0.00420508
0.0499694 -2.71051e-20 6.43156e-12 0.00269508
0.0499758 0 0.000549195 0.00269429
-0.0499758 0 0.000549187 0.00420533
0.00249202 8.47033e-22 0.0499281 -0.000396961
-0.00249202 0 0.0499281 -0.000613255
0.00249831 0 0.049924 -0.0003967
-0.00249831 -8.47033e-22 0.049924 -0.000613548
-0.00250466 0 0.0499281 -0.000613824
0.00250466 8.47033e-22 0.0499281 -0.000396428
-0.0499801 2.25875e-21 0.00116474 0.00420548
0.0499801 1.24231e-20 0.00116476 0.002693
-0.04998 -3.38813e-21 0.00183424 0.00420546
0.04998 1.12938e-21 0.00183425 0.00269121
0.00311482 0 0.0499292 -0.000370404
-0.00311482 -1.69407e-21 0.0499292 -0.000640717
0.00312287 0 0.049924 -0.00037007
-0.00312287 0 0.049924 -0.00064104
-0.00313098 -1.69407e-21 0.0499292 -0.000641438
0.00313098 -1.69407e-21 0.0499292 -0.000369714
-0.0499303 -3.38813e-21 0.00305445 0.00420582
0.0499303 5.64689e-21 0.00305446 0.00269086
0.0499773 1.12938e-21 0.00249451 0.00269111
-0.0499773 0 0.00249451 0.00420551