# pMean  POINT_DATA 27238
# x  y  z  pMean
-3.38813e-21 0.0103526 8.05504e-08 0.00381275
3.38813e-21 -0.0103526 8.07755e-08 0.00412873
3.38813e-21 -0.0103526 3.76214e-05 0.00412874
-3.38813e-21 0.0103526 3.76305e-05 0.00381292
3.38813e-21 -0.0103526 0.000631429 0.00412871
3.38813e-21 0.0103526 0.000631529 0.00381239
3.38813e-21 -0.0103526 0.000667946 0.00412869
-3.38813e-21 0.0103526 0.000668067 0.00381226
-3.38813e-21 -0.0103526 0.000705987 0.00412869
0 0.0103526 0.000706122 0.00381242
0 -0.0103777 4.50189e-05 0.00412878
0 0.0103777 4.50396e-05 0.00381314
3.38813e-21 0.0103798 8.03087e-08 0.00381319
-3.38813e-21 -0.0103798 8.04298e-08 0.00412878
0 -0.0103769 0.000621356 0.00412874
0 0.0103769 0.000621457 0.00381262
0 -0.0103728 0.000705935 0.00412871
0 0.0103728 0.000706086 0.00381255
0 -0.0103526 0.00132431 0.0041287
3.38813e-21 0.0103526 0.0013244 0.00381216
-3.38813e-21 -0.0103526 0.00136256 0.00412871
0 0.0103526 0.00136268 0.00381207
3.38813e-21 -0.0103526 0.00140245 0.00412872
-3.38813e-21 0.0103526 0.00140259 0.00381224
3.38813e-21 -0.0103729 0.00131435 0.00412872
0 0.0103729 0.00131444 0.00381229
0 -0.0103703 0.00139272 0.00412873
0 0.0103703 0.00139287 0.00381237
0 -0.0105447 0.00032626 0.00412893
0 0.0105447 0.000326369 0.00381416
3.38813e-21 -0.0103526 0.00204573 0.00412876
-3.38813e-21 0.0103526 0.00204573 0.00381227
-3.38813e-21 0.0103526 0.002087 0.00381212
3.38813e-21 -0.0103526 0.002087 0.00412876
-6.77626e-21 -0.0103709 0.00202634 0.00412878
0 0.0103709 0.00202635 0.0038124
0 -0.0105347 0.000977469 0.00412877
-2.71051e-20 0.0105347 0.000977685 0.00381276
0 -0.0103716 0.0020967 0.00412877
0 0.0103716 0.00209671 0.00381229
0 -0.0103939 0.0020689 0.00412878
0 0.0103939 0.00206891 0.00381242
3.38813e-21 -0.0105174 0.00130539 0.00412878
0 0.0105177 0.00130551 0.00381278
-1.35525e-20 -0.0105165 0.00160451 0.00412882
0 0.0105165 0.00160468 0.0038131
6.77626e-21 0.0106643 8.07563e-08 0.00381519
-6.77626e-21 -0.0106644 8.09383e-08 0.00412938
0 0.0106643 0.000112715 0.00381509
-6.77626e-21 -0.0106644 0.000112638 0.00412938
3.38813e-21 -0.0104508 0.00213729 0.0041289
-6.77626e-21 0.010451 0.00213734 0.00381316
0 0.0107383 7.95475e-08 0.00381488
0 -0.0107384 7.92342e-08 0.00412949
-5.64689e-22 -0.0107484 0.000677195 0.00412904
1.8823e-22 0.0107484 0.000677558 0.00381364
0 0.010797 0.000148914 0.00381458
-6.77626e-21 -0.010797 0.000148767 0.00413
0 -0.0107396 0.00123189 0.00412888
1.12938e-21 0.0107396 0.00123223 0.00381363
4.23516e-22 -0.0106812 0.00170017 0.00412885
0 0.0106821 0.00169938 0.00381356
-6.77626e-21 0.0108192 6.38521e-08 0.00381497
6.77626e-21 -0.0108192 6.3635e-08 0.00413015
5.50571e-21 -0.0107144 0.00166243 0.00412886
-3.59989e-20 0.0107143 0.0016627 0.00381368
2.71051e-20 -0.0106712 0.00197829 0.00412888
1.35525e-20 0.0106712 0.00197839 0.00381307
-1.35525e-20 0.0108952 0.000304094 0.00381437
0 -0.0108952 0.000303947 0.00413014
-1.35525e-20 -0.0109109 0.000915282 0.00412839
0 0.0109109 0.00091567 0.00380869
1.35525e-20 -0.0107157 0.00227289 0.00412919
1.35525e-20 0.0107158 0.00227295 0.003815
-1.35525e-20 -0.0107627 0.00222008 0.00412921
0 0.0107627 0.00222022 0.00381517
-1.35525e-20 -0.0108925 0.00149286 0.00412835
1.35525e-20 0.0108925 0.00149316 0.00380843
-1.35525e-20 -0.0107724 0.00230193 0.00412936
0 0.0107724 0.00230196 0.00381661
0 0.0108212 0.00232693 0.00381695
0 -0.0108212 0.00232693 0.00412942
0 0.0108444 0.00228008 0.00381704
0 -0.0108445 0.00228001 0.00412943
2.25875e-21 -0.0111112 0.000616145 0.00412948
-2.25875e-21 0.0111112 0.00061649 0.00381749
0 0.0111535 1.53938e-06 0.00381842
-2.11758e-22 -0.0111473 5.47822e-06 0.00412991
0 0.011147 5.86234e-06 0.00381835
-2.11758e-22 0.0111509 1.29512e-05 0.00381841
-5.29396e-21 -0.011151 1.21022e-05 0.0041299
-6.77626e-21 -0.011096 0.00121465 0.00412934
0 0.0110959 0.00121503 0.00381691
0 -0.0111696 -5.96294e-10 0.00412992
-3.17637e-21 0.0111707 -7.22546e-10 0.00381859
3.76459e-22 -0.0110352 0.00184535 0.00412939
7.52918e-22 0.0110352 0.00184552 0.00381733
0 0.0109407 0.00238813 0.00381727
1.35525e-20 -0.0109408 0.00238818 0.00412948
-1.35525e-20 -0.0111532 0.00249687 0.00412954
-1.35525e-20 0.0111532 0.00249688 0.00381695
0 0.0114315 0.000308606 0.0038211
2.71051e-20 -0.0114315 0.000308467 0.00412994
2.71051e-20 -0.0114183 0.000918416 0.00412993
2.71051e-20 0.0114183 0.000918716 0.00382107
0 -0.0113875 0.00154703 0.00412988
2.71051e-20 0.0113875 0.00154727 0.00382104
-9.03502e-21 -0.0112598 0.0023139 0.00412968
6.77626e-21 0.0112598 0.00231395 0.00381785
0 -0.0113392 0.00259198 0.00412972
1.35525e-20 0.0113393 0.00259202 0.00381976
0 -0.0116793 5.66494e-05 0.00413015
0 0.0116793 5.66517e-05 0.00382304
0 -0.0116837 2.74733e-09 0.00413016
-6.77626e-21 0.0116838 2.70093e-09 0.00382313
0 0.0117329 2.82821e-09 0.00382345
0 -0.0117329 2.87033e-09 0.0041302
3.38813e-21 -0.0117325 0.000605076 0.00413019
-3.38813e-21 0.0117325 0.000605313 0.00382353
-1.12938e-21 -0.0117171 0.00123388 0.00413016
3.38813e-21 0.0117171 0.00123417 0.00382375
0 -0.0114795 0.00266368 0.00412987
0 0.0114796 0.0026637 0.00382154
-6.77626e-21 0.0117883 2.65853e-09 0.00382387
0 -0.0117883 2.69853e-09 0.00413023
0 0.0117892 5.42091e-05 0.00382387
0 -0.0117892 5.42112e-05 0.00413024
-1.35525e-20 -0.0115087 0.00262146 0.0041299
-1.35525e-20 0.0115087 0.0026215 0.0038218
-2.25875e-21 -0.0116586 0.00190773 0.00413007
-2.25875e-21 0.0116586 0.0019079 0.00382304
-1.35525e-20 -0.0115418 0.00269549 0.00412987
0 0.0115418 0.0026955 0.00382197
-1.35525e-21 -0.0117157 0.00235642 0.00413006
-4.51751e-22 0.0117159 0.0023565 0.00382313
2.71051e-20 -0.0116486 0.00275063 0.00412992
-2.71051e-20 0.0116486 0.00275064 0.00382265
0 -0.0116731 0.00267354 0.00412998
0 0.0116731 0.00267357 0.00382305
5.42101e-20 0.0120453 0.000301328 0.00382595
0 -0.0120454 0.000301236 0.00413046
-2.71051e-20 -0.0120511 0.000915357 0.00413045
2.71051e-20 0.0120511 0.00091557 0.00382637
0 -0.012033 0.00156459 0.00413041
0 0.012033 0.00156477 0.00382684
0 -0.01206 0.00216221 0.00413037
0 0.0120601 0.0021623 0.00382684
-2.71051e-20 -0.0119656 0.00265564 0.00413023
2.71051e-20 0.0119656 0.00265569 0.00382584
-6.77626e-21 -0.0122893 7.15655e-10 0.00413065
6.77626e-21 0.0122894 7.14789e-10 0.00382816
0 -0.0122905 5.31758e-05 0.00413065
0 0.0122905 5.31808e-05 0.00382817
-6.77626e-21 0.0123436 5.48212e-10 0.00382863
6.77626e-21 -0.0123436 5.47007e-10 0.0041307
-2.25875e-21 -0.0123659 0.000596094 0.0041307
2.25875e-21 0.0123659 0.000596232 0.00382882
6.77626e-21 0.0123987 5.15494e-10 0.00382913
-6.77626e-21 -0.0123987 5.14349e-10 0.00413072
0 0.0124005 5.03406e-05 0.00382913
0 -0.0124005 5.03428e-05 0.00413072
0 -0.0120574 0.00296139 0.00413028
0 0.0120574 0.00296139 0.00382669
-1.12938e-21 -0.012372 0.00122747 0.00413068
0 0.0123721 0.00122764 0.00382911
-1.35525e-20 -0.0121088 0.00291077 0.00413036
-1.35525e-20 0.0121089 0.00291076 0.00382733
0 -0.0123745 0.00187604 0.00413065
0 0.0123745 0.00187616 0.00382936
0 -0.0121515 0.00300998 0.00413038
0 0.0121516 0.00301001 0.00382788
-1.35525e-20 -0.0121996 0.00303504 0.00413042
1.35525e-20 0.0121997 0.00303509 0.0038283
-1.35525e-20 -0.0122191 0.00298806 0.00413044
-1.35525e-20 0.0122192 0.00298808 0.00382847
-1.03526e-21 -0.0123756 0.00256225 0.00413061
2.82344e-22 0.0123756 0.00256229 0.00382914
-2.71051e-20 0.0126709 0.000293136 0.00383152
5.42101e-20 -0.012671 0.000293093 0.00413093
-2.71051e-20 -0.0123021 0.00308847 0.0041305
0 0.0123022 0.00308853 0.00382887
-5.42101e-20 -0.0126957 0.000898572 0.00413093
0 0.0126958 0.00089868 0.00383145
2.71051e-20 -0.012709 0.00153933 0.00413094
5.42101e-20 0.012709 0.00153943 0.00383187
0 -0.0126986 0.00221282 0.00413087
-2.71051e-20 0.0126986 0.00221288 0.00383197
0 -0.0129174 7.10976e-11 0.00413118
0 0.0129174 7.11602e-11 0.00383384
-6.77626e-21 -0.0129197 4.74348e-05 0.00413118
0 0.0129197 4.7433e-05 0.00383385
-1.35525e-20 -0.012518 0.00320081 0.00413073
1.35525e-20 0.0125181 0.00320085 0.00382955
0 0.0129692 4.0155e-11 0.00383426
0 -0.0129692 4.01508e-11 0.00413124
0 -0.0126235 0.00300075 0.00413096
-2.25875e-21 0.0126235 0.00300078 0.00383073
3.38813e-21 0.0130046 0.000577477 0.00383433
0 -0.0130047 0.000577423 0.00413123
-6.77626e-21 0.0130214 3.77547e-11 0.00383475
0 -0.0130214 3.77506e-11 0.00413128
0 0.0130235 4.52047e-05 0.00383476
0 -0.0130235 4.52074e-05 0.00413128
-2.25875e-21 -0.0130315 0.00119939 0.00413121
2.82344e-21 0.0130316 0.00119946 0.00383438
-5.64689e-22 -0.0130336 0.0018718 0.00413116
1.12938e-21 0.0130336 0.00187185 0.00383442
0 -0.0127497 0.00332057 0.00413077
6.77626e-21 0.0127498 0.00332061 0.00383232
-2.25875e-21 -0.0129826 0.00259345 0.00413105
5.64689e-21 0.0129826 0.00259348 0.00383405
0 -0.0128395 0.0033668 0.00413082
1.35525e-20 0.0128396 0.00336684 0.00383332
0 -0.0128582 0.00333774 0.00413084
0 0.0128583 0.00333778 0.0038335
0 0.0132994 0.000279159 0.00383718
-2.71051e-20 -0.0132995 0.000279137 0.00413154
-1.35525e-20 -0.0128782 0.00338673 0.00413082
0 0.0128783 0.00338677 0.00383345
5.42101e-20 0.0133387 0.000865034 0.00383699
2.71051e-20 -0.0133387 0.000865002 0.0041315
4.51751e-22 0.0130334 0.00304019 0.00383425
2.25875e-22 -0.0130353 0.00304025 0.00413101
6.77626e-21 -0.0129436 0.00342031 0.00413085
-6.77626e-21 0.0129437 0.00342035 0.00383377
0 -0.0129615 0.00336796 0.00413089
1.35525e-20 0.0129616 0.00336799 0.00383407
2.71051e-20 -0.0133632 0.00150671 0.00413142
0 0.0133632 0.00150676 0.00383702
0 -0.0133512 0.00219868 0.00413137
2.71051e-20 0.0133512 0.00219872 0.00383672
0 -0.0135358 4.47523e-12 0.00413184
0 0.0135358 4.47588e-12 0.00383818
0 -0.0135385 4.91843e-05 0.00413184
0 0.0135385 4.91803e-05 0.00383819
0 0.0135929 1.8852e-12 0.00383816
6.77626e-21 -0.0135929 1.88467e-12 0.00413193
1.12938e-21 0.013636 0.000546304 0.00383886
1.12938e-21 -0.0136361 0.000546291 0.00413187
-6.77626e-21 0.0136512 1.75111e-12 0.00383835
0 -0.0136512 1.75062e-12 0.004132
0 0.0136535 4.92267e-05 0.00383837
-6.77626e-21 -0.0136536 4.92359e-05 0.004132
2.71051e-20 -0.0133731 0.00282535 0.00413121
0 0.0133732 0.00282536 0.00383739
-2.71051e-20 -0.0132749 0.0033279 0.00413109
-2.71051e-20 0.0132749 0.00332792 0.0038365
5.64689e-22 -0.013679 0.00115206 0.00413175
-5.64689e-22 0.013679 0.00115208 0.00383944
0 -0.0136921 0.00182715 0.00413168
1.12938e-21 0.0136921 0.00182717 0.00383928
6.77626e-21 -0.0133673 0.00363809 0.00413118
-6.77626e-21 0.0133673 0.00363812 0.00383757
0 -0.013405 0.00359705 0.00413124
0 0.013405 0.00359708 0.00383804
1.12938e-21 -0.0136837 0.00251747 0.00413156
-1.69407e-21 0.0136838 0.00251749 0.00383947
0 0.0139138 0.000259106 0.00383946
0 -0.0139138 0.000259099 0.00413231
-1.35525e-20 -0.0134314 0.00367104 0.00413124
0 0.0134314 0.00367107 0.00383838
-1.35525e-20 -0.013468 0.00368979 0.00413123
0 0.013468 0.00368982 0.00383874
0 -0.0134844 0.00365352 0.00413125
0 0.0134844 0.00365356 0.00383887
2.71051e-20 0.0139705 0.000815055 0.0038416
-5.42101e-20 -0.0139705 0.000815048 0.00413208
4.39202e-22 -0.013675 0.00322688 0.00413152
0 0.013675 0.0032269 0.0038397
6.77626e-21 -0.0135481 0.00373065 0.00413133
0 0.0135481 0.00373069 0.00383936
-2.71051e-20 -0.0140148 0.00144488 0.00413195
-2.71051e-20 0.0140148 0.00144489 0.00384186
6.77626e-21 -0.0141256 1.99131e-13 0.00413254
6.77626e-21 0.0141256 1.99166e-13 0.00384246
6.77626e-21 -0.0141299 5.79419e-05 0.00413255
-1.35525e-20 0.0141299 5.79229e-05 0.0038425
2.71051e-20 -0.01402 0.00213792 0.00413196
-2.71051e-20 0.01402 0.00213792 0.00384136
0 0.0141962 4.63662e-14 0.0038429
-1.35525e-20 -0.0141962 4.63611e-14 0.00413265
-3.38813e-21 0.0142449 0.000498317 0.00384337
-4.51751e-21 -0.0142449 0.000498316 0.00413254
0 0.0142626 5.40721e-05 0.00384434
-6.77626e-21 -0.0142627 5.40946e-05 0.00413277
-6.77626e-21 0.0142685 4.24128e-14 0.0038443
6.77626e-21 -0.0142685 4.24077e-14 0.00413276
-2.71051e-20 -0.0139913 0.00285486 0.00413168
0 0.0139913 0.00285488 0.00384238
6.77626e-21 -0.0137721 0.00385092 0.00413182
-6.77626e-21 0.0137722 0.00385096 0.00384015
5.64689e-22 -0.0138917 0.00364951 0.00413214
-1.12938e-21 0.0138917 0.00364954 0.00384132
-2.25875e-21 0.0143255 0.00107369 0.00384433
5.64689e-22 -0.0143255 0.00107369 0.00413228
0 -0.0143513 0.0017511 0.00413226
5.64689e-22 0.0143513 0.0017511 0.00384439
2.71051e-20 -0.0144732 0.000219186 0.00413303
0 0.0144732 0.000219182 0.00384756
6.77626e-21 -0.0139827 0.00397686 0.00413158
-6.77626e-21 0.0139828 0.00397691 0.00384339
2.25875e-21 -0.0143298 0.00248451 0.00413219
2.25875e-21 0.0143298 0.00248452 0.00384395
-5.42101e-20 0.0145986 0.000742805 0.00384435
2.71051e-20 -0.0145986 0.000742806 0.00413273
6.77626e-21 -0.0142572 0.00324559 0.00413197
4.51751e-21 0.0142572 0.00324562 0.00384415
1.35525e-20 -0.0140601 0.00402775 0.00413158
0 0.0140601 0.00402781 0.00384465
0 -0.014081 0.00400157 0.00413161
0 0.0140811 0.00400163 0.00384483
0 -0.0140961 0.00405297 0.00413165
0 0.0140962 0.00405303 0.00384455
5.27043e-21 -0.0146978 0.000423854 0.00413283
-7.52918e-22 0.0146978 0.000423853 0.00384717
6.77626e-21 -0.014714 5.32172e-05 0.00413289
0 0.0147141 5.31873e-05 0.00384811
6.77626e-21 -0.0147156 4.07604e-15 0.00413289
6.77626e-21 0.0147157 4.07548e-15 0.00384803
6.77626e-21 -0.0141531 0.00409437 0.00413158
0 0.0141532 0.00409444 0.00384618
-1.35525e-20 -0.014186 0.00402833 0.00413166
0 0.0141861 0.00402839 0.00384636
-2.71051e-20 -0.0146871 0.00133462 0.00413232
-2.71051e-20 0.0146871 0.00133462 0.00384918
-6.35275e-22 -0.0142916 0.00370912 0.00413191
9.88205e-22 0.0142916 0.00370916 0.00384491
-6.77626e-21 -0.0147878 2.32667e-16 0.00413281
6.77626e-21 0.0147879 2.32452e-16 0.00384804
0 -0.0146599 0.00209093 0.00413278
0 0.0146599 0.00209094 0.00384512
0 -0.014843 8.03853e-05 0.00413287
0 0.014843 8.03526e-05 0.00384858
0 -0.0148561 2.18776e-16 0.00413287
0 0.0148561 2.1855e-16 0.00384852
-5.42101e-20 -0.0146441 0.00281789 0.00413236
2.71051e-20 0.0146441 0.0028179 0.00384682
0 -0.0150101 0.000339146 0.00413277
2.71051e-20 0.0150101 0.000339154 0.00384956
-2.71051e-20 -0.0144832 0.00400474 0.00413192
-2.71051e-20 0.0144832 0.0040048 0.00384819
-2.71051e-20 -0.0144181 0.00428662 0.00413164
0 0.0144182 0.0042867 0.00384822
2.71051e-20 -0.0146327 0.00349143 0.00413219
0 0.0146327 0.00349146 0.00384708
0 -0.0149972 0.00170299 0.00413265
1.8823e-21 0.0149972 0.001703 0.00384855
0 -0.0144912 0.00422844 0.00413175
0 0.0144913 0.00422852 0.00384869
1.35525e-20 -0.0144934 0.00434137 0.00413183
1.35525e-20 0.0144936 0.00434146 0.00384776
-9.03502e-22 -0.0151529 0.000909675 0.00413284
2.93638e-21 0.0151529 0.000909676 0.00385008
-2.71051e-20 -0.0145637 0.00439248 0.00413166
1.35525e-20 0.0145638 0.00439257 0.00384938
-2.71051e-20 -0.014602 0.00431156 0.00413174
-1.35525e-20 0.0146021 0.00431164 0.00384959
5.64689e-22 -0.0150574 0.00235817 0.00413274
-5.64689e-22 0.0150574 0.00235818 0.00384829
-1.12938e-21 -0.0149519 0.00315932 0.00413262
-2.25875e-21 0.0149519 0.00315933 0.00384879
0 -0.0153675 5.06193e-05 0.00413306
-6.77626e-21 0.0153677 5.05775e-05 0.00385209
0 -0.015373 4.86613e-17 0.00413306
0 0.0153731 4.85588e-17 0.00385203
4.51751e-22 -0.0148915 0.00388258 0.00413236
-1.35525e-21 0.0148915 0.00388263 0.00384956
-6.77626e-21 -0.0154159 3.88773e-17 0.00413304
0 0.015416 3.87776e-17 0.00385264
-2.71051e-20 -0.0148215 0.00426958 0.00413191
0 0.0148216 0.00426965 0.00385124
0 -0.0154548 3.02596e-05 0.00413311
0 0.0154549 3.02264e-05 0.00385306
6.77626e-21 -0.0154565 3.72522e-17 0.00413311
0 0.0154566 3.71491e-17 0.00385308
6.77626e-21 -0.0148109 0.00457227 0.004132
0 0.014811 0.00457238 0.00384929
6.77626e-21 -0.0148556 0.00452731 0.00413208
0 0.0148557 0.00452741 0.00384943
0 -0.015291 0.00279582 0.00413289
0 0.015291 0.00279583 0.00385062
0 -0.0148581 0.00460666 0.00413221
0 0.0148583 0.00460678 0.0038481
0 -0.0149 0.00463711 0.00413229
6.77626e-21 0.0149001 0.00463723 0.00384784
0 -0.0149278 0.00460013 0.00413231
6.77626e-21 0.0149279 0.00460024 0.00384805
0 -0.0152535 0.00349535 0.00413303
2.71051e-20 0.0152535 0.00349537 0.00385064
0 -0.0150945 0.00432053 0.00413249
7.52918e-22 0.0150946 0.00432059 0.00384979
5.42101e-20 -0.0156481 0.00170282 0.00413299
0 0.0156481 0.00170282 0.00385249
0 0.0156283 0.00242155 0.00385338
0 -0.0156283 0.00242155 0.00413271
0 -0.0152931 0.00410118 0.00413278
0 0.0152932 0.00410122 0.00385085
0 -0.015191 0.0045723 0.00413278
0 0.0151911 0.00457238 0.00384755
5.42101e-20 0.0158564 0.000503046 0.00385846
0 -0.0158564 0.000503053 0.00413376
-1.12938e-21 -0.0155955 0.00313147 0.00413283
0 0.0155955 0.00313148 0.00385349
-6.77626e-21 -0.0151955 0.0048521 0.00413263
-6.77626e-21 0.0151956 0.00485222 0.00384938
-6.77626e-21 -0.0152218 0.00482879 0.00413265
-6.77626e-21 0.0152219 0.0048289 0.00384957
6.77626e-21 -0.0152273 0.00487524 0.00413262
6.77626e-21 0.0152274 0.00487536 0.00384996
-6.77626e-21 -0.0152573 0.00489706 0.00413263
0 0.0152574 0.00489719 0.0038503
0 -0.0152733 0.00486831 0.00413264
0 0.0152734 0.00486843 0.00385037
2.82344e-22 -0.0155765 0.00380625 0.00413308
5.64689e-22 0.0155765 0.00380628 0.00385336
-1.69407e-21 0.0161174 1.48167e-17 0.00385834
0 -0.0161182 1.48305e-17 0.00413375
-2.71051e-20 0.0159438 0.00275754 0.00385659
0 -0.0159438 0.00275754 0.0041324
1.8823e-22 -0.0155623 0.0044811 0.00413323
-1.17643e-22 0.0155624 0.00448116 0.00385229
2.71051e-20 -0.0155229 0.00482975 0.00413271
2.71051e-20 0.015523 0.00482983 0.00385366
2.71051e-20 -0.0159029 0.00345691 0.00413299
-5.42101e-20 0.015903 0.00345692 0.00385612
-3.38813e-21 -0.0155781 0.00513047 0.00413297
-3.38813e-21 0.0155782 0.00513056 0.00385512
2.71051e-20 -0.0158776 0.00413216 0.0041335
0 0.0158777 0.00413219 0.00385588
0 -0.0155898 0.00511599 0.00413298
0 0.0155899 0.00511607 0.0038552
-1.69407e-22 0.0163695 0.00112646 0.00385941
-7.34095e-22 -0.0163695 0.00112648 0.00413369
0 -0.0155955 0.00514312 0.004133
6.77626e-21 0.0155956 0.00514321 0.00385532
0 -0.0156136 0.00515625 0.00413303
0 0.0156137 0.00515634 0.00385556
0 -0.0156211 0.00514122 0.00413304
0 0.0156212 0.00514131 0.00385561
2.11758e-22 0.0163299 0.00225504 0.003859
0 -0.0163314 0.00225388 0.00413295
0 0.0165134 1.83628e-05 0.00386166
0 -0.0165134 1.83232e-05 0.00413415
0 0.016517 2.64107e-18 0.00386164
-3.38813e-21 -0.016517 2.63768e-18 0.00413415
3.38813e-22 -0.0157793 0.00488992 0.00413351
-7.34095e-22 0.0157794 0.00488999 0.00385517
0 -0.0162343 0.00309924 0.00413298
5.64689e-22 0.0162343 0.00309924 0.003859
-3.38813e-21 -0.0165394 -1.52053e-19 0.00413418
3.38813e-21 0.0165394 -1.53119e-19 0.00386172
-3.38813e-21 -0.0165602 2.31404e-05 0.0041342
3.38813e-21 0.0165603 2.31905e-05 0.00386176
-3.38813e-21 -0.0165622 -1.44114e-19 0.0041342
3.38813e-21 0.0165623 -1.45159e-19 0.00386176
2.71051e-20 -0.0159282 0.00468151 0.00413427
-2.71051e-20 0.0159283 0.00468157 0.00385193
0 -0.0162015 0.00379234 0.00413354
-5.64689e-22 0.0162016 0.00379236 0.00385905
0 -0.0158863 0.00511953 0.00413349
-2.71051e-20 0.0158864 0.0051196 0.00385848
0 -0.0165599 0.00274152 0.00413292
-2.71051e-20 0.0165599 0.00274152 0.00386111
-8.47033e-22 -0.016193 0.00443156 0.0041341
-8.47033e-22 0.0161931 0.0044316 0.00385803
-6.77626e-21 -0.0159115 0.00537295 0.00413374
0 0.0159116 0.00537303 0.00386
-6.77626e-21 -0.0159381 0.00534058 0.00413378
0 0.0159382 0.00534066 0.00386026
0 -0.0159556 0.00540506 0.00413391
0 0.0159557 0.00540513 0.00386059
5.42101e-20 -0.0165346 0.00343545 0.0041336
0 0.0165347 0.00343545 0.00386218
-5.64689e-22 -0.0161473 0.00497226 0.0041342
-5.64689e-22 0.0161474 0.00497232 0.00385975
0 -0.0160061 0.00544179 0.00413393
-6.77626e-21 0.0160062 0.00544186 0.00386287
-6.77626e-21 -0.0160434 0.00536957 0.00413398
-6.77626e-21 0.0160435 0.00536965 0.00386289
2.71051e-20 -0.0165061 0.00411387 0.0041341
0 0.0165061 0.00411389 0.00386211
1.0842e-19 0.0169791 0.00178697 0.00386361
0 -0.0169791 0.00178697 0.00413363
5.42101e-20 -0.0170733 0.000575201 0.00413455
0 0.0170733 0.000575203 0.00386431
3.88223e-22 -0.0169161 0.00243812 0.00413296
-1.05879e-22 0.0169162 0.00243816 0.00386457
0 -0.0163051 0.00529232 0.00413453
2.71051e-20 0.0163052 0.00529239 0.00386608
1.41172e-22 -0.0168686 0.00307981 0.00413351
2.82344e-22 0.0168686 0.00307981 0.00386478
0 -0.0164829 0.00475882 0.00413457
-2.71051e-20 0.016483 0.00475887 0.00386257
0 -0.0162225 0.00559923 0.00413426
-1.35525e-20 0.0162226 0.00559931 0.00386682
1.35525e-20 -0.0163053 0.00551974 0.00413438
-1.35525e-20 0.0163054 0.00551981 0.00386739
1.35525e-20 -0.0162978 0.00565404 0.00413466
1.35525e-20 0.0162979 0.0056541 0.00386655
2.82344e-22 -0.0168399 0.00376458 0.00413459
0 0.0168399 0.00376458 0.00386514
0 -0.0163778 0.00571225 0.00413429
0 0.0163779 0.00571231 0.00386977
0 -0.0164263 0.00561382 0.0041344
1.35525e-20 0.0164264 0.00561388 0.00386982
0 -0.0168092 0.00443951 0.00413528
0 0.0168092 0.00443953 0.00386474
2.71051e-20 -0.0172154 0.00273637 0.00413244
5.42101e-20 0.0172154 0.00273638 0.00386819
-2.71051e-20 -0.0171664 0.00341209 0.00413502
-2.71051e-20 0.0171664 0.00341209 0.00386763
2.25875e-21 -0.0167257 0.0051641 0.00413542
3.16226e-21 0.0167257 0.00516414 0.00386709
2.71051e-20 -0.0166359 0.00556304 0.00413458
0 0.016636 0.00556311 0.00387197
0 -0.0165776 0.00585761 0.00413525
-2.03288e-20 0.0165777 0.0058577 0.0038694
1.35525e-20 -0.016648 0.00578953 0.00413548
0 0.0166481 0.00578962 0.0038694
2.71051e-20 -0.0171607 0.00407706 0.00413566
-2.71051e-20 0.0171607 0.00407707 0.0038687
0 0.0176484 3.23622e-05 0.00386798
0 -0.0176485 3.23255e-05 0.00413504
6.77626e-21 0.0176509 -8.03953e-21 0.00386799
0 -0.0176509 -8.02771e-21 0.00413504
1.35525e-20 -0.0166431 0.00590528 0.00413595
0 0.0166432 0.00590537 0.00386673
-1.12938e-21 -0.0176285 0.00116335 0.00413468
-5.64689e-22 0.0176285 0.00116335 0.0038681
0 -0.0176822 2.53431e-21 0.00413507
0 0.0176822 2.54066e-21 0.00386821
6.77626e-21 -0.0177126 3.15372e-05 0.00413509
6.77626e-21 0.0177127 3.15721e-05 0.00386842
-6.77626e-21 -0.0177142 2.51156e-21 0.0041351
6.77626e-21 0.0177142 2.51789e-21 0.00386843
0 -0.0167058 0.00595053 0.00413669
-2.71051e-20 0.0167058 0.0059506 0.00386597
-1.35525e-20 -0.0167518 0.00589235 0.00413667
-5.42101e-20 -0.0171029 0.00477857 0.00413683
0 0.0171029 0.00477859 0.00386576
-1.35525e-20 0.0167519 0.00589242 0.00386636
0 -0.0175088 0.00306443 0.00413409
0 0.0175088 0.00306385 0.00386951
8.99973e-22 0.0175117 0.00304918 0.00386951
0 -0.0175118 0.00304895 0.00413409
5.64689e-22 0.0176368 0.00232613 0.00386949
-5.64689e-22 -0.0176368 0.00232613 0.0041339
7.52918e-22 -0.0169118 0.00560669 0.00413639
0 0.0169119 0.00560674 0.00386846
0 -0.0175634 0.0036581 0.00413561
-5.64689e-22 0.0175634 0.00365811 0.00387096
2.71051e-20 -0.0171319 0.00538503 0.00413672
-2.71051e-20 0.017132 0.00538507 0.0038694
0 -0.0169968 0.00585981 0.00413791
-2.71051e-20 0.0169969 0.00585986 0.00386451
2.25875e-21 -0.0174515 0.00442257 0.00413656
0 0.0174515 0.00442258 0.00387051
1.35525e-20 -0.0169525 0.00612936 0.00413765
1.35525e-20 0.0169526 0.0061294 0.00386673
0 -0.0170054 0.00608737 0.00413768
0 0.0170054 0.00608742 0.00386712
0 -0.0170095 0.00617053 0.00413727
0 0.0170095 0.00617057 0.0038688
-1.69407e-21 -0.0174299 0.0050817 0.00413754
-1.12938e-21 0.0174299 0.00508172 0.00387004
1.35525e-20 -0.0170585 0.00621569 0.00413749
-1.35525e-20 0.0170585 0.00621572 0.00386963
0 -0.0170957 0.00616015 0.00413753
-1.35525e-20 0.0170957 0.00616018 0.00386966
2.71051e-20 -0.0177881 0.00407867 0.0041363
0 0.0177881 0.00407867 0.00387423
5.42101e-20 -0.0182492 0.000583224 0.00413555
-5.42101e-20 0.0182492 0.000583225 0.0038719
1.0842e-19 0.0182177 0.0017667 0.00387241
0 -0.0182177 0.00176669 0.00413494
9.03502e-22 -0.0173923 0.00576036 0.00413815
2.71051e-21 0.0173923 0.00576039 0.00387077
0 -0.0173272 0.00613648 0.00413744
-2.71051e-20 0.0173273 0.00613651 0.00387288
-2.71051e-20 -0.0177633 0.00473764 0.00413746
-2.71051e-20 0.0177633 0.00473765 0.00387312
-1.0842e-19 0.0181474 0.0030587 0.00387451
0 -0.0181474 0.0030587 0.00413546
1.35525e-20 -0.0172962 0.00642627 0.0041388
1.35525e-20 0.0172963 0.0064263 0.00387109
-6.77626e-21 -0.0173396 0.0063839 0.00413889
6.77626e-21 0.0173396 0.00638392 0.00387117
0 -0.0181223 0.00372227 0.00413622
-3.13402e-20 0.0181204 0.00372592 0.00387532
0 -0.017341 0.00646754 0.00413911
0 0.017341 0.00646756 0.00387109
0 -0.0177401 0.00540102 0.00413917
0 0.0177401 0.00540103 0.00387177
0 -0.0173831 0.00650956 0.00413997
1.35525e-20 0.017383 0.00650958 0.00387006
-6.77626e-21 -0.0174233 0.00646349 0.00413993
-6.77626e-21 0.0174233 0.00646351 0.00387026
5.64689e-22 -0.0180948 0.00439399 0.00413763
2.82344e-22 0.0180948 0.00439399 0.00387547
-6.77626e-21 -0.0175914 0.00620021 0.00413951
7.52918e-22 0.0175914 0.00620023 0.00387241
2.11758e-22 0.0183804 0.00368314 0.00387666
0 -0.0183807 0.00368308 0.00413638
5.64689e-22 -0.0180744 0.00505373 0.00413928
0 0.0180744 0.00505374 0.00387491
-2.71051e-20 -0.0177917 0.0059867 0.00413961
5.42101e-20 0.0177917 0.00598672 0.00387511
-2.71051e-20 -0.0176705 0.0064614 0.00414149
-2.71051e-20 0.0176705 0.00646142 0.00386921
0 0.0188284 2.77018e-05 0.00387423
0 -0.0188284 2.76798e-05 0.00413643
3.38813e-21 0.0188292 1.48229e-23 0.00387424
0 -0.0188293 1.48278e-23 0.00413643
6.77626e-21 -0.0176058 0.00673268 0.0041409
6.77626e-21 0.0176058 0.00673269 0.00387154
0 -0.0188572 -5.94337e-24 0.00413647
0 0.0188572 -5.97214e-24 0.00387435
-1.69407e-21 -0.0188314 0.00116255 0.00413612
1.12938e-21 0.0188314 0.00116255 0.00387488
2.71051e-20 -0.0184312 0.00404065 0.00413661
2.71051e-20 0.0184312 0.00404065 0.00387669
0 -0.0176558 0.00669542 0.0041409
0 0.0176558 0.00669544 0.0038718
0 -0.0188846 2.72795e-05 0.00413651
0 0.0188846 2.73009e-05 0.00387446
0 -0.0188852 -5.78567e-24 0.00413651
3.38813e-21 0.0188852 -5.80297e-24 0.00387447
0 -0.0176488 0.0067757 0.00414038
0 0.0176488 0.00677571 0.00387335
1.69407e-21 -0.0180727 0.00569488 0.00414049
2.25875e-21 0.0180727 0.00569489 0.00387474
-2.82344e-22 -0.0188 0.00239129 0.00413583
2.82344e-22 0.0188 0.00239129 0.00387689
6.77626e-21 -0.0176919 0.00681868 0.00414047
6.77626e-21 0.0176919 0.00681869 0.00387393
-6.77626e-21 -0.0177277 0.00676628 0.00414052
-6.77626e-21 0.0177277 0.00676629 0.00387393
-2.71051e-20 -0.0183972 0.00470952 0.00414008
-2.71051e-20 0.0183972 0.00470952 0.00387769
-3.61401e-21 -0.018036 0.00636963 0.00414121
-2.25875e-21 0.018036 0.00636963 0.00387535
0 -0.0184065 0.00534982 0.00414044
2.71051e-20 0.0184065 0.00534983 0.00387687
-4.23516e-22 0.0188389 0.00360748 0.00387902
0 -0.0188389 0.00360748 0.00413669
-1.99053e-20 0.0188449 0.00360726 0.00387905
-4.65868e-21 -0.0188449 0.00360726 0.00413669
0 -0.0179575 0.00674598 0.00414004
0 0.0179575 0.00674599 0.00387713
-4.23516e-22 -0.018797 0.00392551 0.00413736
-2.11758e-22 0.018797 0.00392572 0.00387898
0 -0.0187299 0.00435993 0.00413829
-8.47033e-22 0.0187299 0.00435994 0.00387884
0 -0.0187295 0.00436908 0.00413833
-5.0822e-21 0.0187295 0.00436908 0.00387888
6.77626e-21 -0.0179112 0.0070374 0.00414167
0 0.0179112 0.00703741 0.0038756
0 -0.0179573 0.0069938 0.00414177
0 0.0179573 0.00699381 0.00387567
0 -0.0179545 0.00708061 0.00414204
0 0.0179545 0.00708062 0.00387589
-5.42101e-20 -0.018373 0.00601996 0.00414274
0 0.018373 0.00601997 0.00387526
-6.77626e-21 -0.0179982 0.00712413 0.00414313
6.77626e-21 0.0179982 0.00712414 0.00387469
0 -0.0180407 0.00707639 0.00414307
-6.77626e-21 0.0180407 0.0070764 0.00387487
-2.82344e-22 -0.0187993 0.00494162 0.00413987
0 0.0187993 0.00494163 0.00388005
-5.27043e-21 -0.0182149 0.00681267 0.00414241
1.50584e-21 0.0182149 0.00681268 0.00387717
1.0842e-19 -0.0194433 0.000583039 0.00413737
1.0842e-19 0.0194433 0.000583039 0.0038766
5.42101e-20 -0.0194241 0.00177777 0.00413662
5.42101e-20 0.0194241 0.00177777 0.00387861
-1.69407e-21 -0.0187034 0.00568152 0.00414145
2.82344e-22 0.0187034 0.00568153 0.00387904
-5.42101e-20 -0.0184175 0.00660392 0.00414227
-2.71051e-20 0.0184175 0.00660393 0.00388034
-2.71051e-20 -0.0182856 0.0070727 0.00414491
2.71051e-20 0.0182856 0.00707271 0.00387401
6.77626e-21 -0.0182152 0.00734069 0.00414401
6.77626e-21 0.0182152 0.0073407 0.00387645
1.0842e-19 0.0194206 0.00301783 0.00388209
0 -0.0194206 0.00301783 0.0041363
0 -0.0182686 0.00730221 0.00414399
6.77626e-21 0.0182686 0.00730222 0.00387671
-1.35525e-20 -0.0182601 0.00738542 0.00414327
0 0.0182601 0.00738543 0.00387855
0 -0.0186945 0.00631878 0.00414324
1.69407e-21 0.0186945 0.00631878 0.00387911
-6.77626e-21 -0.0183052 0.00743049 0.00414329
0 0.0183052 0.0074305 0.00387902
0 -0.0190301 0.00535182 0.00414005
2.71051e-20 0.0190301 0.00535182 0.00388277
-6.77626e-21 -0.0183432 0.00737621 0.00414335
0 0.0183432 0.00737622 0.00387899
0 -0.0193729 0.00433863 0.00413853
0 0.019373 0.00433863 0.00388415
-9.03502e-22 -0.0186551 0.00698434 0.00414404
0 0.0186551 0.00698435 0.00388038
2.71051e-20 -0.019014 0.00599212 0.00414264
-2.71051e-20 0.019014 0.00599212 0.00388109
0 -0.0185715 0.00735757 0.00414253
0 0.0185715 0.00735757 0.00388223
0 0.0193594 0.0050052 0.00388114
4.70574e-22 -0.0193594 0.0050052 0.00414104
0 0.0200241 2.32174e-05 0.00387896
0 -0.0200241 2.32002e-05 0.0041386
3.38813e-21 0.0200244 -7.11699e-26 0.00387896
0 -0.0200244 -6.24674e-26 0.0041386
-6.77626e-21 -0.0185211 0.00764585 0.00414449
-6.77626e-21 0.0185211 0.00764585 0.00388051
0 -0.0200482 7.13798e-26 0.00413865
0 0.0200482 7.23318e-26 0.00387906
-6.77626e-21 -0.0185698 0.00760131 0.00414461
-6.77626e-21 0.0185698 0.00760131 0.00388055
0 -0.020072 2.30543e-05 0.0041387
3.38813e-21 0.020072 2.30714e-05 0.00387915
0 -0.0200723 6.81028e-26 0.0041387
-3.38813e-21 0.0200723 6.90154e-26 0.00387916
2.82344e-21 -0.0200388 0.00116454 0.00413836
0 0.0200388 0.00116454 0.00388028
-1.35525e-20 -0.0185663 0.00769085 0.00414494
-1.35525e-20 0.0185663 0.00769085 0.00388087
0 -0.0189943 0.00663938 0.00414537
-2.71051e-20 0.0189943 0.00663938 0.00387971
-8.47033e-22 -0.0193404 0.00565864 0.00414315
0 0.0193404 0.00565864 0.00388122
-2.03288e-20 -0.0186116 0.00773605 0.00414631
6.77626e-21 0.0186116 0.00773605 0.00387938
2.82344e-22 -0.0200317 0.00238519 0.004138
5.64689e-22 0.0200317 0.00238519 0.00388309