# U  POINT_DATA 27238
# x  y  z  U_x  U_y  U_z
-3.38813e-21 0.0103526 8.05504e-08 0 0 0
3.38813e-21 -0.0103526 8.07755e-08 0 0 0
3.38813e-21 -0.0103526 3.76214e-05 0 0 0
-3.38813e-21 0.0103526 3.76305e-05 0 0 0
3.38813e-21 -0.0103526 0.000631429 0 0 0
3.38813e-21 0.0103526 0.000631529 0 0 0
3.38813e-21 -0.0103526 0.000667946 0 0 0
-3.38813e-21 0.0103526 0.000668067 0 0 0
-3.38813e-21 -0.0103526 0.000705987 0 0 0
0 0.0103526 0.000706122 0 0 0
0 -0.0103777 4.50189e-05 -2.01612e-06 3.72579e-07 -8.15154e-08
0 0.0103777 4.50396e-05 2.91958e-05 -4.77537e-06 1.06954e-06
3.38813e-21 0.0103798 8.03087e-08 0 0 0
-3.38813e-21 -0.0103798 8.04298e-08 0 0 0
0 -0.0103769 0.000621356 -1.95765e-06 3.61772e-07 -7.91511e-08
0 0.0103769 0.000621457 2.83578e-05 -4.6383e-06 1.03884e-06
0 -0.0103728 0.000705935 -5.53366e-05 1.31011e-05 4.34848e-07
0 0.0103728 0.000706086 0.000415172 -0.000105212 -5.90778e-06
0 -0.0103526 0.00132431 0 0 0
3.38813e-21 0.0103526 0.0013244 0 0 0
-3.38813e-21 -0.0103526 0.00136256 0 0 0
0 0.0103526 0.00136268 0 0 0
3.38813e-21 -0.0103526 0.00140245 0 0 0
-3.38813e-21 0.0103526 0.00140259 0 0 0
3.38813e-21 -0.0103729 0.00131435 -5.56366e-05 1.31721e-05 4.37205e-07
0 0.0103729 0.00131444 0.000417599 -0.000105827 -5.94231e-06
0 -0.0103703 0.00139272 -5.01981e-05 1.21853e-05 -3.51819e-07
0 0.0103703 0.00139287 0.000361843 -9.10111e-05 -3.87671e-06
0 -0.0105447 0.00032626 -1.53474e-05 3.39567e-06 1.49395e-07
0 0.0105447 0.000326369 0.000446839 -0.000105291 2.57081e-05
3.38813e-21 -0.0103526 0.00204573 0 0 0
-3.38813e-21 0.0103526 0.00204573 0 0 0
-3.38813e-21 0.0103526 0.002087 0 0 0
3.38813e-21 -0.0103526 0.002087 0 0 0
-6.77626e-21 -0.0103709 0.00202634 -5.20473e-05 1.26342e-05 -3.6478e-07
0 0.0103709 0.00202635 0.000374897 -9.42945e-05 -4.01657e-06
0 -0.0105347 0.000977469 -0.000475154 0.000115039 2.98985e-06
-2.71051e-20 0.0105347 0.000977685 0.00364226 -0.000913582 5.79551e-07
0 -0.0103716 0.0020967 0 0 0
0 0.0103716 0.00209671 0 0 0
0 -0.0103939 0.0020689 -7.03826e-05 2.00877e-05 -3.51126e-06
0 0.0103939 0.00206891 0.000510162 -0.000156771 -2.48996e-05
3.38813e-21 -0.0105174 0.00130539 -0.00037632 9.67895e-05 4.15324e-07
0 0.0105177 0.00130551 0.00281162 -0.000774167 -1.93535e-05
-1.35525e-20 -0.0105165 0.00160451 -0.000446656 0.000108107 -2.71885e-06
0 0.0105165 0.00160468 0.00325669 -0.000809506 -1.7472e-05
6.77626e-21 0.0106643 8.07563e-08 0 0 0
-6.77626e-21 -0.0106644 8.09383e-08 0 0 0
0 0.0106643 0.000112715 7.31425e-05 -1.19635e-05 2.67946e-06
-6.77626e-21 -0.0106644 0.000112638 -5.04979e-06 9.33199e-07 -2.04172e-07
3.38813e-21 -0.0104508 0.00213729 0 0 0
-6.77626e-21 0.010451 0.00213734 0 0 0
0 0.0107383 7.95475e-08 0 0 0
0 -0.0107384 7.92342e-08 0 0 0
-5.64689e-22 -0.0107484 0.000677195 -0.000509661 0.000132665 2.39415e-06
1.8823e-22 0.0107484 0.000677558 0.00471859 -0.00133206 -1.66505e-06
0 0.010797 0.000148914 0.00136542 -0.000411131 1.64457e-06
-6.77626e-21 -0.010797 0.000148767 -4.0541e-06 1.57662e-06 -5.14206e-06
0 -0.0107396 0.00123189 -0.000871149 0.000224483 1.12567e-06
1.12938e-21 0.0107396 0.00123223 0.00653063 -0.00179642 -3.78472e-05
4.23516e-22 -0.0106812 0.00170017 -0.000720647 0.000188534 -7.00064e-06
0 0.0106821 0.00169938 0.00520734 -0.00143787 -9.55679e-05
-6.77626e-21 0.0108192 6.38521e-08 0 0 0
6.77626e-21 -0.0108192 6.3635e-08 0 0 0
5.50571e-21 -0.0107144 0.00166243 -0.000788152 0.000206147 -7.60186e-06
-3.59989e-20 0.0107143 0.0016627 0.00568212 -0.00156865 -0.000103492
2.71051e-20 -0.0106712 0.00197829 -0.000517796 0.00013819 -1.57216e-05
1.35525e-20 0.0106712 0.00197839 0.00375278 -0.00107508 -0.000118661
-1.35525e-20 0.0108952 0.000304094 0.00300268 -0.000900712 2.71886e-05
0 -0.0108952 0.000303947 -7.70492e-06 3.08364e-06 -7.6599e-06
-1.35525e-20 -0.0109109 0.000915282 -0.0010147 0.000266477 3.241e-06
0 0.0109109 0.00091567 0.00799382 -0.00224192 -1.99077e-05
1.35525e-20 -0.0107157 0.00227289 0 0 0
1.35525e-20 0.0107158 0.00227295 0 0 0
-1.35525e-20 -0.0107627 0.00222008 -0.000158529 3.86429e-05 -9.50218e-07
0 0.0107627 0.00222022 0.00114805 -0.000299054 -1.16729e-05
-1.35525e-20 -0.0108925 0.00149286 -0.00119066 0.00031783 -4.01595e-06
1.35525e-20 0.0108925 0.00149316 0.0085623 -0.00238521 -0.00010149
-1.35525e-20 -0.0107724 0.00230193 0 0 0
0 0.0107724 0.00230196 0 0 0
0 0.0108212 0.00232693 0 0 0
0 -0.0108212 0.00232693 0 0 0
0 0.0108444 0.00228008 0.00125145 -0.000371118 -2.58313e-05
0 -0.0108445 0.00228001 -0.000174325 4.99095e-05 -1.0167e-06
2.25875e-21 -0.0111112 0.000616145 -0.000630224 0.000169019 4.97576e-06
-2.25875e-21 0.0111112 0.00061649 0.00681374 -0.00199816 -4.81968e-06
0 0.0111535 1.53938e-06 1.00121e-05 -3.08687e-06 -1.97464e-07
-2.11758e-22 -0.0111473 5.47822e-06 -4.79114e-08 2.22809e-08 -3.37944e-08
0 0.011147 5.86234e-06 5.37754e-05 -1.61919e-05 6.47695e-08
-2.11758e-22 0.0111509 1.29512e-05 0.000136065 -4.02431e-05 -2.21893e-07
-5.29396e-21 -0.011151 1.21022e-05 -1.19717e-05 3.20643e-06 9.79773e-08
-6.77626e-21 -0.011096 0.00121465 -0.00128007 0.000333748 2.49896e-06
0 0.0110959 0.00121503 0.00977045 -0.0027453 -3.99815e-05
0 -0.0111696 -5.96294e-10 0 0 0
-3.17637e-21 0.0111707 -7.22546e-10 0 0 0
3.76459e-22 -0.0110352 0.00184535 -0.00105413 0.000274103 -8.90655e-06
7.52918e-22 0.0110352 0.00184552 0.00756331 -0.00213166 -0.000115253
0 0.0109407 0.00238813 0 0 0
1.35525e-20 -0.0109408 0.00238818 0 0 0
-1.35525e-20 -0.0111532 0.00249687 0 0 0
-1.35525e-20 0.0111532 0.00249688 0 0 0
0 0.0114315 0.000308606 0.00517457 -0.00155288 -2.93773e-05
2.71051e-20 -0.0114315 0.000308467 -7.48222e-06 1.90392e-06 2.15653e-06
2.71051e-20 -0.0114183 0.000918416 -0.00145196 0.000369614 -1.72087e-07
2.71051e-20 0.0114183 0.000918716 0.0120278 -0.00327431 -4.97084e-05
0 -0.0113875 0.00154703 -0.00183109 0.000463893 5.94572e-06
2.71051e-20 0.0113875 0.00154727 0.0133181 -0.00361584 2.83578e-05
-9.03502e-21 -0.0112598 0.0023139 -0.000843524 0.000191767 -7.61784e-06
6.77626e-21 0.0112598 0.00231395 0.00563562 -0.00145254 -5.27182e-05
0 -0.0113392 0.00259198 0 0 0
1.35525e-20 0.0113393 0.00259202 0 0 0
0 -0.0116793 5.66494e-05 -1.47048e-06 4.05797e-07 4.67947e-08
0 0.0116793 5.66517e-05 0.000986743 -0.000300656 -1.32445e-06
0 -0.0116837 2.74733e-09 0 0 0
-6.77626e-21 0.0116838 2.70093e-09 0 0 0
0 0.0117329 2.82821e-09 0 0 0
0 -0.0117329 2.87033e-09 0 0 0
3.38813e-21 -0.0117325 0.000605076 -0.000787095 0.000197254 3.08592e-06
-3.38813e-21 0.0117325 0.000605313 0.00935145 -0.00261966 -2.62976e-05
-1.12938e-21 -0.0117171 0.00123388 -0.00180927 0.000456254 5.96225e-06
3.38813e-21 0.0117171 0.00123417 0.0141488 -0.00388437 -4.0947e-06
0 -0.0114795 0.00266368 0 0 0
0 0.0114796 0.0026637 0 0 0
-6.77626e-21 0.0117883 2.65853e-09 0 0 0
0 -0.0117883 2.69853e-09 0 0 0
0 0.0117892 5.42091e-05 0.00106569 -0.000304213 2.14326e-07
0 -0.0117892 5.42112e-05 -1.44097e-06 4.35973e-07 1.61033e-07
-1.35525e-20 -0.0115087 0.00262146 -0.000190401 4.23716e-05 1.5379e-06
-1.35525e-20 0.0115087 0.0026215 0.00138298 -0.000358917 -1.74509e-05
-2.25875e-21 -0.0116586 0.00190773 -0.00168631 0.000420944 3.12437e-07
-2.25875e-21 0.0116586 0.0019079 0.0123403 -0.00336329 -6.21909e-06
-1.35525e-20 -0.0115418 0.00269549 0 0 0
0 0.0115418 0.0026955 0 0 0
-1.35525e-21 -0.0117157 0.00235642 -0.00117073 0.000285535 1.29508e-06
-4.51751e-22 0.0117159 0.0023565 0.00856556 -0.00232689 -2.22373e-05
2.71051e-20 -0.0116486 0.00275063 0 0 0
-2.71051e-20 0.0116486 0.00275064 0 0 0
0 -0.0116731 0.00267354 -0.000297478 7.24244e-05 5.57707e-06
0 0.0116731 0.00267357 0.00224965 -0.000625679 1.98304e-05
5.42101e-20 0.0120453 0.000301328 0.00584528 -0.00167035 -8.56787e-06
0 -0.0120454 0.000301236 -8.11365e-06 1.85491e-06 8.36727e-07
-2.71051e-20 -0.0120511 0.000915357 -0.00170131 0.000420962 9.67121e-06
2.71051e-20 0.0120511 0.00091557 0.0144746 -0.00401446 -1.79735e-05
0 -0.012033 0.00156459 -0.00226794 0.000574782 8.73826e-06
0 0.012033 0.00156477 0.0168919 -0.00467038 2.45253e-05
0 -0.01206 0.00216221 -0.00188727 0.000468424 -6.57471e-06
0 0.0120601 0.0021623 0.0142632 -0.00385259 -2.18088e-05
-2.71051e-20 -0.0119656 0.00265564 -0.00085932 0.000208784 1.65793e-05
2.71051e-20 0.0119656 0.00265569 0.00647383 -0.00179671 4.62418e-05
-6.77626e-21 -0.0122893 7.15655e-10 0 0 0
6.77626e-21 0.0122894 7.14789e-10 0 0 0
0 -0.0122905 5.31758e-05 -1.4135e-06 4.27662e-07 1.57963e-07
0 0.0122905 5.31808e-05 0.00104551 -0.000298453 2.10268e-07
-6.77626e-21 0.0123436 5.48212e-10 0 0 0
6.77626e-21 -0.0123436 5.47007e-10 0 0 0
-2.25875e-21 -0.0123659 0.000596094 -0.000848739 0.000212329 5.6645e-06
2.25875e-21 0.0123659 0.000596232 0.0104337 -0.00290265 1.59372e-06
6.77626e-21 0.0123987 5.15494e-10 0 0 0
-6.77626e-21 -0.0123987 5.14349e-10 0 0 0
0 0.0124005 5.03406e-05 0.00104198 -0.000290005 5.59878e-06
0 -0.0124005 5.03428e-05 -1.44096e-06 5.0393e-07 4.97903e-07
0 -0.0120574 0.00296139 0 0 0
0 0.0120574 0.00296139 0 0 0
-1.12938e-21 -0.012372 0.00122747 -0.00200194 0.000507882 5.74542e-06
0 0.0123721 0.00122764 0.0165418 -0.00455341 9.27413e-06
-1.35525e-20 -0.0121088 0.00291077 -0.000255697 6.22525e-05 4.79378e-06
-1.35525e-20 0.0121089 0.00291076 0.00193484 -0.000538124 1.70554e-05
0 -0.0123745 0.00187604 -0.00214501 0.000548593 -6.63357e-06
0 0.0123745 0.00187616 0.0170124 -0.00462948 1.24901e-05
0 -0.0121515 0.00300998 0 0 0
0 0.0121516 0.00301001 0 0 0
-1.35525e-20 -0.0121996 0.00303504 0 0 0
1.35525e-20 0.0121997 0.00303509 0 0 0
-1.35525e-20 -0.0122191 0.00298806 -0.000183377 4.96582e-05 -1.18129e-08
-1.35525e-20 0.0122192 0.00298808 0.00150282 -0.000403544 -2.16883e-05
-1.03526e-21 -0.0123756 0.00256225 -0.00134742 0.000338156 -5.32089e-06
2.82344e-22 0.0123756 0.00256229 0.0108807 -0.00293117 -2.71775e-05
-2.71051e-20 0.0126709 0.000293136 0.0060023 -0.00168765 2.66571e-05
5.42101e-20 -0.012671 0.000293093 -8.37115e-06 2.62383e-06 2.05518e-06
-2.71051e-20 -0.0123021 0.00308847 0 0 0
0 0.0123022 0.00308853 0 0 0
-5.42101e-20 -0.0126957 0.000898572 -0.0017143 0.000433326 1.03182e-05
0 0.0126958 0.00089868 0.0156159 -0.00429427 5.89869e-06
2.71051e-20 -0.012709 0.00153933 -0.00233593 0.000605878 -5.89252e-06
5.42101e-20 0.012709 0.00153943 0.0192454 -0.00525146 2.48753e-05
0 -0.0126986 0.00221282 -0.0021071 0.000551095 -2.34464e-05
-2.71051e-20 0.0126986 0.00221288 0.0178641 -0.00480396 2.45467e-05
0 -0.0129174 7.10976e-11 0 0 0
0 0.0129174 7.11602e-11 0 0 0
-6.77626e-21 -0.0129197 4.74348e-05 -1.35774e-06 4.74826e-07 4.69147e-07
0 0.0129197 4.7433e-05 0.000981807 -0.000273257 5.27545e-06
-1.35525e-20 -0.012518 0.00320081 0 0 0
1.35525e-20 0.0125181 0.00320085 0 0 0
0 0.0129692 4.0155e-11 0 0 0
0 -0.0129692 4.01508e-11 0 0 0
0 -0.0126235 0.00300075 -0.000855915 0.000192847 -6.62509e-06
-2.25875e-21 0.0126235 0.00300078 0.00684248 -0.00176223 -7.01377e-05
3.38813e-21 0.0130046 0.000577477 0.0108131 -0.00295981 1.7771e-05
0 -0.0130047 0.000577423 -0.000804485 0.000206661 8.67395e-06
-6.77626e-21 0.0130214 3.77547e-11 0 0 0
0 -0.0130214 3.77506e-11 0 0 0
0 0.0130235 4.52047e-05 0.000963206 -0.000242698 7.35952e-07
0 -0.0130235 4.52074e-05 -1.35591e-06 5.1556e-07 8.07877e-07
-2.25875e-21 -0.0130315 0.00119939 -0.00191074 0.000498775 1.62267e-06
2.82344e-21 0.0130316 0.00119946 0.017875 -0.00488616 2.36996e-05
-5.64689e-22 -0.0130336 0.0018718 -0.00210961 0.000569944 -2.3078e-05
1.12938e-21 0.0130336 0.00187185 0.0196173 -0.00530618 3.78711e-05
0 -0.0127497 0.00332057 0 0 0
6.77626e-21 0.0127498 0.00332061 0 0 0
-2.25875e-21 -0.0129826 0.00259345 -0.00151458 0.000408768 -3.07529e-05
5.64689e-21 0.0129826 0.00259348 0.0148459 -0.00398257 -1.95711e-05
0 -0.0128395 0.0033668 0 0 0
1.35525e-20 0.0128396 0.00336684 0 0 0
0 -0.0128582 0.00333774 -0.000115467 2.5718e-05 1.78357e-06
0 0.0128583 0.00333778 0.00106419 -0.000263866 -1.32229e-05
0 0.0132994 0.000279159 0.0058679 -0.00155353 1.55494e-05
-2.71051e-20 -0.0132995 0.000279137 -8.51546e-06 2.73812e-06 3.22236e-06
-1.35525e-20 -0.0128782 0.00338673 0 0 0
0 0.0128783 0.00338677 0 0 0
5.42101e-20 0.0133387 0.000865034 0.0160105 -0.0043703 2.31455e-05
2.71051e-20 -0.0133387 0.000865002 -0.00152695 0.000398332 1.94838e-05
4.51751e-22 0.0130334 0.00304019 0.0095995 -0.00256911 -4.15835e-05
2.25875e-22 -0.0130353 0.00304025 -0.000936217 0.000244637 -1.62874e-05
6.77626e-21 -0.0129436 0.00342031 0 0 0
-6.77626e-21 0.0129437 0.00342035 0 0 0
0 -0.0129615 0.00336796 -0.0001464 3.94812e-05 1.0225e-06
1.35525e-20 0.0129616 0.00336799 0.00168135 -0.000457904 1.11084e-05
2.71051e-20 -0.0133632 0.00150671 -0.00207688 0.000560658 -1.77986e-05
0 0.0133632 0.00150676 0.0206784 -0.00564189 4.19202e-05
0 -0.0133512 0.00219868 -0.00192028 0.000561796 -4.47224e-05
2.71051e-20 0.0133512 0.00219872 0.0206813 -0.00552952 6.0533e-05
0 -0.0135358 4.47523e-12 0 0 0
0 0.0135358 4.47588e-12 0 0 0
0 -0.0135385 4.91843e-05 -1.47519e-06 5.60915e-07 8.78946e-07
0 0.0135385 4.91803e-05 0.00104792 -0.000264043 8.00676e-07
0 0.0135929 1.8852e-12 0 0 0
6.77626e-21 -0.0135929 1.88467e-12 0 0 0
1.12938e-21 0.013636 0.000546304 0.0108038 -0.00293365 1.00161e-05
1.12938e-21 -0.0136361 0.000546291 -0.000663749 0.000173912 1.44013e-05
-6.77626e-21 0.0136512 1.75111e-12 0 0 0
0 -0.0136512 1.75062e-12 0 0 0
0 0.0136535 4.92267e-05 0.00111238 -0.000277104 -1.35436e-05
-6.77626e-21 -0.0136536 4.92359e-05 -1.38887e-06 5.39429e-07 8.74772e-07
2.71051e-20 -0.0133731 0.00282535 -0.00133387 0.000384403 -5.24574e-05
0 0.0133732 0.00282536 0.0161871 -0.00432996 -2.71452e-05
-2.71051e-20 -0.0132749 0.0033279 -0.000636552 0.000170348 4.46759e-06
-2.71051e-20 0.0132749 0.00332792 0.00717919 -0.0019694 2.63978e-05
5.64689e-22 -0.013679 0.00115206 -0.00156532 0.000416777 1.33348e-07
-5.64689e-22 0.013679 0.00115208 0.0186079 -0.00507996 2.22059e-05
0 -0.0136921 0.00182715 -0.00168293 0.000493851 -5.45504e-05
1.12938e-21 0.0136921 0.00182717 0.0216766 -0.00584074 3.91307e-05
6.77626e-21 -0.0133673 0.00363809 0 0 0
-6.77626e-21 0.0133673 0.00363812 0 0 0
0 -0.013405 0.00359705 -0.000143612 3.87293e-05 1.00302e-06
0 0.013405 0.00359708 0.0016494 -0.000449203 1.08974e-05
1.12938e-21 -0.0136837 0.00251747 -0.00131314 0.000425981 -8.69912e-05
-1.69407e-21 0.0136838 0.00251749 0.020052 -0.00534336 1.69379e-05
0 0.0139138 0.000259106 0.0056915 -0.00152817 -1.82192e-05
0 -0.0139138 0.000259099 -8.02007e-06 2.60751e-06 2.27387e-06
-1.35525e-20 -0.0134314 0.00367104 0 0 0
0 0.0134314 0.00367107 0 0 0
-1.35525e-20 -0.013468 0.00368979 0 0 0
0 0.013468 0.00368982 0 0 0
0 -0.0134844 0.00365352 -7.40558e-05 3.34545e-05 -6.08397e-06
0 0.0134844 0.00365356 0.0013091 -0.000348353 -3.31467e-05
2.71051e-20 0.0139705 0.000815055 0.0160319 -0.00438097 2.06793e-05
-5.42101e-20 -0.0139705 0.000815048 -0.00116478 0.000305947 3.34725e-05
4.39202e-22 -0.013675 0.00322688 -0.000684274 0.000235726 -5.59324e-05
0 0.013675 0.0032269 0.0121789 -0.00324812 -5.56587e-05
6.77626e-21 -0.0135481 0.00373065 0 0 0
0 0.0135481 0.00373069 0 0 0
-2.71051e-20 -0.0140148 0.00144488 -0.00151897 0.000410662 -3.5618e-05
-2.71051e-20 0.0140148 0.00144489 0.0218307 -0.00595896 7.28664e-06
6.77626e-21 -0.0141256 1.99131e-13 0 0 0
6.77626e-21 0.0141256 1.99166e-13 0 0 0
6.77626e-21 -0.0141299 5.79419e-05 -1.63445e-06 6.34812e-07 1.02945e-06
-1.35525e-20 0.0141299 5.79229e-05 0.00130889 -0.000326057 -1.59361e-05
2.71051e-20 -0.01402 0.00213792 -0.00122573 0.000442805 -0.000117747
-2.71051e-20 0.01402 0.00213792 0.0234504 -0.00621621 4.6887e-05
0 0.0141962 4.63662e-14 0 0 0
-1.35525e-20 -0.0141962 4.63611e-14 0 0 0
-3.38813e-21 0.0142449 0.000498317 0.0102915 -0.0028088 3.65071e-05
-4.51751e-21 -0.0142449 0.000498316 -0.00045027 0.000109836 1.14614e-05
0 0.0142626 5.40721e-05 0.00130268 -0.000326341 9.90693e-06
-6.77626e-21 -0.0142627 5.40946e-05 -1.093e-06 9.82949e-07 7.46347e-08
-6.77626e-21 0.0142685 4.24128e-14 0 0 0
6.77626e-21 -0.0142685 4.24077e-14 0 0 0
-2.71051e-20 -0.0139913 0.00285486 -0.000767859 0.000317472 -0.000135785
0 0.0139913 0.00285488 0.0202072 -0.00537925 -8.74338e-06
6.77626e-21 -0.0137721 0.00385092 0 0 0
-6.77626e-21 0.0137722 0.00385096 0 0 0
5.64689e-22 -0.0138917 0.00364951 -0.00039671 0.000142277 -3.22366e-05
-1.12938e-21 0.0138917 0.00364954 0.00773311 -0.00197012 -8.7783e-05
-2.25875e-21 0.0143255 0.00107369 0.0189524 -0.00515498 1.63841e-05
5.64689e-22 -0.0143255 0.00107369 -0.0010109 0.00024988 -1.20699e-05
0 -0.0143513 0.0017511 -0.000896343 0.000291791 -0.000100234
5.64689e-22 0.0143513 0.0017511 0.023592 -0.00630866 1.42248e-05
2.71051e-20 -0.0144732 0.000219186 -5.04647e-06 4.22064e-06 -6.60839e-07
0 0.0144732 0.000219182 0.0051096 -0.00135154 6.72621e-05
6.77626e-21 -0.0139827 0.00397686 0 0 0
-6.77626e-21 0.0139828 0.00397691 0 0 0
2.25875e-21 -0.0143298 0.00248451 -0.000363978 0.000242224 -0.000171106
2.25875e-21 0.0143298 0.00248452 0.0233571 -0.00619906 9.39601e-06
-5.42101e-20 0.0145986 0.000742805 0.0151459 -0.00419306 7.60652e-05
2.71051e-20 -0.0145986 0.000742806 -0.000698125 0.000144235 1.19924e-05
6.77626e-21 -0.0142572 0.00324559 9.33722e-07 0.000136172 -0.000154511
4.51751e-21 0.0142572 0.00324562 0.0167577 -0.0044634 -6.39174e-05
1.35525e-20 -0.0140601 0.00402775 0 0 0
0 0.0140601 0.00402781 0 0 0
0 -0.014081 0.00400157 -2.8231e-05 1.53447e-05 -4.24802e-06
0 0.0140811 0.00400163 0.00116737 -0.000304982 -4.29886e-05
0 -0.0140961 0.00405297 0 0 0
0 0.0140962 0.00405303 0 0 0
5.27043e-21 -0.0146978 0.000423854 -0.000229334 4.92698e-05 9.55481e-06
-7.52918e-22 0.0146978 0.000423853 0.00931868 -0.00257265 4.7785e-05
6.77626e-21 -0.014714 5.32172e-05 -1.07527e-06 9.67006e-07 7.34241e-08
0 0.0147141 5.31873e-05 0.00128137 -0.000321001 9.74482e-06
6.77626e-21 -0.0147156 4.07604e-15 0 0 0
6.77626e-21 0.0147157 4.07548e-15 0 0 0
6.77626e-21 -0.0141531 0.00409437 0 0 0
0 0.0141532 0.00409444 0 0 0
-1.35525e-20 -0.014186 0.00402833 4.21895e-05 1.44919e-05 -2.31638e-05
0 0.0141861 0.00402839 0.00227538 -0.000597807 9.82446e-06
-2.71051e-20 -0.0146871 0.00133462 -0.000708886 0.000155789 -6.09193e-05
-2.71051e-20 0.0146871 0.00133462 0.0231632 -0.0061826 -3.49313e-05
-6.35275e-22 -0.0142916 0.00370912 7.16119e-05 7.97863e-05 -0.000104051
9.88205e-22 0.0142916 0.00370916 0.0109104 -0.00289799 -6.02477e-05
-6.77626e-21 -0.0147878 2.32667e-16 0 0 0
6.77626e-21 0.0147879 2.32452e-16 0 0 0
0 -0.0146599 0.00209093 -0.000137533 0.000156133 -0.000184551
0 0.0146599 0.00209094 0.0258731 -0.00685497 3.65288e-05
0 -0.014843 8.03853e-05 -2.93968e-06 4.16723e-07 3.37426e-06
0 0.014843 8.03526e-05 0.00189865 -0.000507068 8.96151e-06
0 -0.0148561 2.18776e-16 0 0 0
0 0.0148561 2.1855e-16 0 0 0
-5.42101e-20 -0.0146441 0.00281789 0.000647822 5.49052e-05 -0.000243762
2.71051e-20 0.0146441 0.0028179 0.0238727 -0.00633822 -3.58522e-05
0 -0.0150101 0.000339146 -1.14458e-05 4.36115e-06 1.7175e-05
2.71051e-20 0.0150101 0.000339154 0.00805437 -0.00226406 3.15954e-06
-2.71051e-20 -0.0144832 0.00400474 0.00010733 5.70098e-05 -7.25254e-05
-2.71051e-20 0.0144832 0.0040048 0.0083075 -0.00219949 7.31886e-05
-2.71051e-20 -0.0144181 0.00428662 0 0 0
0 0.0144182 0.0042867 0 0 0
2.71051e-20 -0.0146327 0.00349143 0.00070329 1.112e-05 -0.000237756
0 0.0146327 0.00349146 0.018387 -0.00492344 -5.30316e-05
0 -0.0149972 0.00170299 -3.39267e-06 2.61023e-05 -0.000118255
1.8823e-21 0.0149972 0.001703 0.0253252 -0.00676809 -4.83998e-05
0 -0.0144912 0.00422844 5.22218e-05 1.79379e-05 -2.86719e-05
0 0.0144913 0.00422852 0.00281614 -0.000739881 1.21593e-05
1.35525e-20 -0.0144934 0.00434137 0 0 0
1.35525e-20 0.0144936 0.00434146 0 0 0
-9.03502e-22 -0.0151529 0.000909675 -0.000150053 2.15357e-05 -2.05324e-05
2.93638e-21 0.0151529 0.000909676 0.0167473 -0.00454526 -3.33529e-05
-2.71051e-20 -0.0145637 0.00439248 0 0 0
1.35525e-20 0.0145638 0.00439257 0 0 0
-2.71051e-20 -0.014602 0.00431156 0.000175105 -1.02151e-05 -4.57841e-05
-1.35525e-20 0.0146021 0.00431164 0.0028784 -0.000824949 -2.65409e-05
5.64689e-22 -0.0150574 0.00235817 0.00119777 -0.000154036 -0.000249126
-5.64689e-22 0.0150574 0.00235818 0.026143 -0.00697388 -6.05813e-05
-1.12938e-21 -0.0149519 0.00315932 0.00181244 -0.000221006 -0.000320917
-2.25875e-21 0.0149519 0.00315933 0.0231671 -0.00619671 -7.18331e-05
0 -0.0153675 5.06193e-05 -1.85114e-06 2.62415e-07 2.1248e-06
-6.77626e-21 0.0153677 5.05775e-05 0.0011951 -0.000319171 5.64077e-06
0 -0.015373 4.86613e-17 0 0 0
0 0.0153731 4.85588e-17 0 0 0
4.51751e-22 -0.0148915 0.00388258 0.00122742 -0.000118745 -0.000224523
-1.35525e-21 0.0148915 0.00388263 0.0145921 -0.00395961 -5.37743e-05
-6.77626e-21 -0.0154159 3.88773e-17 0 0 0
0 0.015416 3.87776e-17 0 0 0
-2.71051e-20 -0.0148215 0.00426958 0.000461978 -6.90991e-06 -0.000124441
0 0.0148216 0.00426965 0.0081819 -0.00233677 -8.6786e-05
0 -0.0154548 3.02596e-05 -7.24933e-07 1.45608e-06 2.49949e-07
0 0.0154549 3.02264e-05 0.000813705 -0.000212974 -4.00712e-06
6.77626e-21 -0.0154565 3.72522e-17 0 0 0
0 0.0154566 3.71491e-17 0 0 0
6.77626e-21 -0.0148109 0.00457227 0 0 0
0 0.014811 0.00457238 0 0 0
6.77626e-21 -0.0148556 0.00452731 0.000124736 -7.27669e-06 -3.26142e-05
0 0.0148557 0.00452741 0.0020507 -0.00058773 -1.89089e-05
0 -0.015291 0.00279582 0.00295646 -0.000526815 -0.000394598
0 0.015291 0.00279583 0.0273667 -0.00731284 -0.000107043
0 -0.0148581 0.00460666 0 0 0
0 0.0148583 0.00460678 0 0 0
0 -0.0149 0.00463711 0 0 0
6.77626e-21 0.0149001 0.00463723 0 0 0
0 -0.0149278 0.00460013 0.000131754 -1.04018e-05 -2.05613e-05
6.77626e-21 0.0149279 0.00460024 0.00149944 -0.000404277 1.17007e-05
0 -0.0152535 0.00349535 0.00297889 -0.000434799 -0.000409836
2.71051e-20 0.0152535 0.00349537 0.0232148 -0.00625778 -9.36432e-05
0 -0.0150945 0.00432053 0.00107182 -0.000102796 -0.000176395
7.52918e-22 0.0150946 0.00432059 0.0107872 -0.00298836 -7.987e-05
5.42101e-20 -0.0156481 0.00170282 0.00133649 -0.000380955 -0.000109964
0 0.0156481 0.00170282 0.027965 -0.00757195 -0.000198013
0 0.0156283 0.00242155 0.0286678 -0.00769464 -0.000186617
0 -0.0156283 0.00242155 0.00385197 -0.00080108 -0.000388284
0 -0.0152931 0.00410118 0.00219427 -0.000269803 -0.000321044
0 0.0152932 0.00410122 0.0171858 -0.00469531 -0.000122119
0 -0.015191 0.0045723 0.000617326 -4.29945e-05 -9.04626e-05
0 0.0151911 0.00457238 0.00732159 -0.00202491 -3.40337e-05
5.42101e-20 0.0158564 0.000503046 0.0135812 -0.00357185 -0.000101044
0 -0.0158564 0.000503053 -1.50413e-05 2.06963e-05 7.441e-06
-1.12938e-21 -0.0155955 0.00313147 0.00467857 -0.000888772 -0.000501546
0 0.0155955 0.00313148 0.0270641 -0.00727817 -0.000171269
-6.77626e-21 -0.0151955 0.0048521 0 0 0
-6.77626e-21 0.0151956 0.00485222 0 0 0
-6.77626e-21 -0.0152218 0.00482879 9.77703e-05 -7.71888e-06 -1.52579e-05
-6.77626e-21 0.0152219 0.0048289 0.00111269 -0.000300002 8.68271e-06
6.77626e-21 -0.0152273 0.00487524 0 0 0
6.77626e-21 0.0152274 0.00487536 0 0 0
-6.77626e-21 -0.0152573 0.00489706 0 0 0
0 0.0152574 0.00489719 0 0 0
0 -0.0152733 0.00486831 0.000149612 -1.18189e-05 -2.03694e-05
0 0.0152734 0.00486843 0.00112155 -0.000339673 -4.09621e-05
2.82344e-22 -0.0155765 0.00380625 0.0042038 -0.000705773 -0.000486706
5.64689e-22 0.0155765 0.00380628 0.0225246 -0.00615083 -0.000150993
-1.69407e-21 0.0161174 1.48167e-17 0 0 0
0 -0.0161182 1.48305e-17 0 0 0
-2.71051e-20 0.0159438 0.00275754 0.0302836 -0.00812112 -0.000254425
0 -0.0159438 0.00275754 0.00613267 -0.00129834 -0.0005425
1.8823e-22 -0.0155623 0.0044811 0.00234207 -0.000310831 -0.000279884
-1.17643e-22 0.0155624 0.00448116 0.0134879 -0.00376277 -0.000191552
2.71051e-20 -0.0155229 0.00482975 0.00090532 -1.85764e-05 -0.000132982
2.71051e-20 0.015523 0.00482983 0.00729196 -0.00212405 -0.000264487
2.71051e-20 -0.0159029 0.00345691 0.00663948 -0.00129533 -0.000656515
-5.42101e-20 0.015903 0.00345692 0.0273817 -0.00741766 -0.000231216
-3.38813e-21 -0.0155781 0.00513047 0 0 0
-3.38813e-21 0.0155782 0.00513056 0 0 0
2.71051e-20 -0.0158776 0.00413216 0.00523809 -0.000876721 -0.00057808
0 0.0158777 0.00413219 0.0228758 -0.00638105 -0.000161219
0 -0.0155898 0.00511599 8.51948e-05 -6.73015e-06 -1.15991e-05
0 0.0155899 0.00511607 0.000638642 -0.000193419 -2.33249e-05
-1.69407e-22 0.0163695 0.00112646 0.0224045 -0.00594436 -0.000219522
-7.34095e-22 -0.0163695 0.00112648 0.00177251 -0.000496369 -5.68069e-06
0 -0.0155955 0.00514312 0 0 0
6.77626e-21 0.0155956 0.00514321 0 0 0
0 -0.0156136 0.00515625 0 0 0
0 0.0156137 0.00515634 0 0 0
0 -0.0156211 0.00514122 0.000101652 -1.12188e-05 -1.18925e-05
0 0.0156212 0.00514131 0.000606477 -0.00019091 -3.23406e-05
2.11758e-22 0.0163299 0.00225504 0.030963 -0.00834196 -0.000327877
0 -0.0163314 0.00225388 0.00626787 -0.00150517 -0.00033445
0 0.0165134 1.83628e-05 0.000497224 -0.000131416 -4.98252e-06
0 -0.0165134 1.83232e-05 -6.60254e-07 6.21871e-07 3.94554e-07
0 0.016517 2.64107e-18 0 0 0
-3.38813e-21 -0.016517 2.63768e-18 0 0 0
3.38813e-22 -0.0157793 0.00488992 0.0017929 -0.000203228 -0.000200094
-7.34095e-22 0.0157794 0.00488999 0.00970788 -0.00276755 -0.000288275
0 -0.0162343 0.00309924 0.00833686 -0.00183375 -0.000619997
5.64689e-22 0.0162343 0.00309924 0.0303982 -0.00819849 -0.00029608
-3.38813e-21 -0.0165394 -1.52053e-19 0 0 0
3.38813e-21 0.0165394 -1.53119e-19 0 0 0
-3.38813e-21 -0.0165602 2.31404e-05 1.025e-05 -3.48069e-06 1.32965e-06
3.38813e-21 0.0165603 2.31905e-05 0.000675637 -0.000167911 -6.39438e-06
-3.38813e-21 -0.0165622 -1.44114e-19 0 0 0
3.38813e-21 0.0165623 -1.45159e-19 0 0 0
2.71051e-20 -0.0159282 0.00468151 0.00342074 -0.000474474 -0.000355317
-2.71051e-20 0.0159283 0.00468157 0.0158591 -0.00441042 -0.000327492
0 -0.0162015 0.00379234 0.00820125 -0.00165814 -0.00068285
-5.64689e-22 0.0162016 0.00379236 0.0272225 -0.00747733 -0.000255117
0 -0.0158863 0.00511953 0.00109128 -0.000100567 -0.000123456
-2.71051e-20 0.0158864 0.0051196 0.00689519 -0.00202656 -0.000319471
0 -0.0165599 0.00274152 0.00951077 -0.00225254 -0.000538624
-2.71051e-20 0.0165599 0.00274152 0.0329292 -0.00886348 -0.000389452
-8.47033e-22 -0.016193 0.00443156 0.00624941 -0.00111554 -0.000567312
-8.47033e-22 0.0161931 0.0044316 0.0219946 -0.00617976 -0.000286064
-6.77626e-21 -0.0159115 0.00537295 0 0 0
0 0.0159116 0.00537303 0 0 0
-6.77626e-21 -0.0159381 0.00534058 0.000256511 -2.83096e-05 -3.00096e-05
0 0.0159382 0.00534066 0.00153009 -0.000481651 -8.15927e-05
0 -0.0159556 0.00540506 0 0 0
0 0.0159557 0.00540513 0 0 0
5.42101e-20 -0.0165346 0.00343545 0.011054 -0.00248427 -0.000742982
0 0.0165347 0.00343545 0.0309357 -0.00837681 -0.000309952
-5.64689e-22 -0.0161473 0.00497226 0.00329702 -0.00050312 -0.000326184
-5.64689e-22 0.0161474 0.00497232 0.0134633 -0.00389258 -0.000298833
0 -0.0160061 0.00544179 0 0 0
-6.77626e-21 0.0160062 0.00544186 0 0 0
-6.77626e-21 -0.0160434 0.00536957 0.000668775 -9.08509e-05 -6.94591e-05
-6.77626e-21 0.0160435 0.00536965 0.00280244 -0.000869102 -9.08792e-05
2.71051e-20 -0.0165061 0.00411387 0.00994207 -0.00199854 -0.000754237
0 0.0165061 0.00411389 0.0277712 -0.00775028 -0.000317629
1.0842e-19 0.0169791 0.00178697 0.0327886 -0.00887402 -0.000467831
0 -0.0169791 0.00178697 0.00584176 -0.00159914 1.11599e-05
5.42101e-20 -0.0170733 0.000575201 0.000337263 -0.000137056 6.21776e-05
0 0.0170733 0.000575203 0.0169857 -0.00420619 -0.00014862
3.88223e-22 -0.0169161 0.00243812 0.0103254 -0.00258447 -0.000376063
-1.05879e-22 0.0169162 0.00243816 0.0336875 -0.00912241 -0.000396581
0 -0.0163051 0.00529232 0.00235446 -0.000315741 -0.000260787
2.71051e-20 0.0163052 0.00529239 0.010293 -0.00314803 -0.00023519
1.41172e-22 -0.0168686 0.00307981 0.0123811 -0.00298288 -0.000620867
2.82344e-22 0.0168686 0.00307981 0.0332599 -0.00902369 -0.000330464
0 -0.0164829 0.00475882 0.0068981 -0.0012275 -0.000614388
-2.71051e-20 0.016483 0.00475887 0.0224291 -0.00644667 -0.000334331
0 -0.0162225 0.00559923 0 0 0
-1.35525e-20 0.0162226 0.00559931 0 0 0
1.35525e-20 -0.0163053 0.00551974 0.000940788 -0.000127803 -9.77105e-05
-1.35525e-20 0.0163054 0.00551981 0.00394238 -0.00122262 -0.000127846
1.35525e-20 -0.0162978 0.00565404 0 0 0
1.35525e-20 0.0162979 0.0056541 0 0 0
2.82344e-22 -0.0168399 0.00376458 0.013198 -0.00296152 -0.000822698
0 0.0168399 0.00376458 0.031251 -0.00859678 -0.000272786
0 -0.0163778 0.00571225 0 0 0
0 0.0163779 0.00571231 0 0 0
0 -0.0164263 0.00561382 0.0010974 -0.000177744 -0.000104016
1.35525e-20 0.0164264 0.00561388 0.00423569 -0.00131712 -9.87213e-05
0 -0.0168092 0.00443951 0.0113391 -0.00231997 -0.000786448
0 0.0168092 0.00443953 0.0276137 -0.00780255 -0.000290543
2.71051e-20 -0.0172154 0.00273637 0.0132419 -0.00338169 -0.000394261
5.42101e-20 0.0172154 0.00273638 0.0350398 -0.00953606 -0.000377678
-2.71051e-20 -0.0171664 0.00341209 0.0156471 -0.00379379 -0.000803682
-2.71051e-20 0.0171664 0.00341209 0.0340735 -0.0093013 -0.000246434
2.25875e-21 -0.0167257 0.0051641 0.00638009 -0.00116957 -0.000500064
3.16226e-21 0.0167257 0.00516414 0.0182556 -0.0053468 -0.000272471
2.71051e-20 -0.0166359 0.00556304 0.00269395 -0.00040719 -0.000282714
0 0.016636 0.00556311 0.0105629 -0.0032515 -0.00021517
0 -0.0165776 0.00585761 0 0 0
-2.03288e-20 0.0165777 0.0058577 0 0 0
1.35525e-20 -0.016648 0.00578953 0.000979094 -0.000158582 -9.28027e-05
0 0.0166481 0.00578962 0.00377908 -0.00117513 -8.80792e-05
2.71051e-20 -0.0171607 0.00407706 0.0160334 -0.00354128 -0.000984679
-2.71051e-20 0.0171607 0.00407707 0.0321299 -0.00893538 -0.000219199
0 0.0176484 3.23622e-05 0.00094285 -0.000234319 -8.92334e-06
0 -0.0176485 3.23255e-05 1.43185e-05 -4.86227e-06 1.85743e-06
6.77626e-21 0.0176509 -8.03953e-21 0 0 0
0 -0.0176509 -8.02771e-21 0 0 0
1.35525e-20 -0.0166431 0.00590528 0 0 0
0 0.0166432 0.00590537 0 0 0
-1.12938e-21 -0.0176285 0.00116335 0.00467699 -0.00117636 7.71492e-05
-5.64689e-22 0.0176285 0.00116335 0.025743 -0.0067794 -0.0002747
0 -0.0176822 2.53431e-21 0 0 0
0 0.0176822 2.54066e-21 0 0 0
6.77626e-21 -0.0177126 3.15372e-05 8.18557e-05 -1.5542e-05 3.98867e-06
6.77626e-21 0.0177127 3.15721e-05 0.000986406 -0.000244922 -9.88816e-06
-6.77626e-21 -0.0177142 2.51156e-21 0 0 0
6.77626e-21 0.0177142 2.51789e-21 0 0 0
0 -0.0167058 0.00595053 0 0 0
-2.71051e-20 0.0167058 0.0059506 0 0 0
-1.35525e-20 -0.0167518 0.00589235 0.000897488 -0.00014411 -7.67246e-05