# UMean  POINT_DATA 59669
# x  y  z  UMean_x  UMean_y  UMean_z
-0.0386366 -6.77626e-21 9.33814e-08 0 0 0
0.0386366 6.77626e-21 9.33814e-08 0 0 0
-0.0386366 0 0.000236766 0 0 0
0.0386366 -3.38813e-21 0.000236754 0 0 0
-0.0386365 -1.69407e-21 0.000428699 0 0 0
0.0386365 1.69407e-21 0.000428676 0 0 0
-0.0386365 -3.38813e-21 0.000666556 0 0 0
0.0386365 -6.77626e-21 0.000666521 0 0 0
-0.0386364 -1.69407e-21 0.000917399 0 0 0
0.0386364 -1.69407e-21 0.000917369 0 0 0
-0.0386364 -1.69407e-21 0.00111073 0 0 0
0.0386364 0 0.00111069 0 0 0
-0.0386364 0 0.00136165 0 0 0
0.0386364 6.77626e-21 0.00136161 0 0 0
-0.0386364 0 0.00162089 0 0 0
0.0386364 5.0822e-21 0.00162088 0 0 0
-0.0386365 0 0.00182904 0 0 0
0.0386365 1.69407e-21 0.00182903 0 0 0
0.0386365 6.77626e-21 0.002087 0 0 0
-0.0386365 -6.77626e-21 0.002087 0 0 0
-0.0387133 -6.77626e-21 0.000334786 6.37324e-07 -1.55152e-07 -2.33738e-08
0.0387133 0 0.000334769 2.17461e-06 4.55646e-08 -6.53454e-08
0.0387145 -6.77626e-21 0.00100945 4.86926e-05 -7.25894e-06 -4.12417e-08
-0.0387145 3.38813e-21 0.00100948 4.40385e-05 -1.27789e-05 -2.86554e-07
0.0387157 3.38813e-21 0.00170741 4.76911e-05 -6.29031e-06 1.68673e-05
-0.0387157 3.38813e-21 0.00170743 4.92378e-05 -1.33028e-05 3.1748e-06
0.0388933 1.35525e-20 9.83892e-05 7.27981e-06 1.52534e-07 -2.18753e-07
-0.0388934 -2.03288e-20 9.8385e-05 2.13368e-06 -5.19429e-07 -7.82526e-08
0.0388944 -6.77626e-21 8.11405e-08 0 0 0
-0.0388944 -6.77626e-21 8.11392e-08 0 0 0
0.038896 1.35525e-20 0.000773192 0.000161851 -2.41282e-05 -1.37084e-07
-0.038896 6.77626e-21 0.000773227 0.000146375 -4.24747e-05 -9.52449e-07
0.0389003 -1.35525e-20 0.000556945 7.47482e-06 1.5662e-07 -2.24613e-07
-0.0389003 0 0.000556978 2.19086e-06 -5.33348e-07 -8.03495e-08
0.0388961 -1.35525e-20 0.00122361 0.000161979 -2.41474e-05 -1.37193e-07
-0.0388961 -6.77626e-21 0.00122365 0.000146494 -4.2509e-05 -9.53221e-07
-0.0388903 -1.35525e-20 0.00145595 0.000157651 -4.25931e-05 1.01651e-05
0.0388903 0 0.00145592 0.000152706 -2.01414e-05 5.40088e-05
-0.0388845 0 0.00190647 0.000154002 -4.16073e-05 9.92984e-06
0.0388845 6.77626e-21 0.00190644 0.000149174 -1.96756e-05 5.27597e-05
-0.0389211 -1.35525e-20 0.00212604 0 0 0
0.0389211 1.35525e-20 0.00212604 0 0 0
-0.03898 0 7.37425e-08 0 0 0
0.03898 0 7.3742e-08 0 0 0
-0.0389877 0 0.000656511 0.000111118 -3.0746e-05 -2.30549e-06
0.0389877 -6.77626e-21 0.000656454 1.18603e-05 1.67412e-05 6.66074e-06
-0.0389501 0 0.00204928 0.000113733 -3.18983e-05 6.56325e-06
0.0389501 1.35525e-20 0.00204927 0.000142645 -4.51111e-05 1.55496e-05
0.0389855 6.77626e-21 0.00132191 -4.29497e-05 4.80007e-05 1.0205e-05
-0.0389855 0 0.00132198 0.00024188 -6.27147e-05 -7.53669e-08
0.0389857 -6.77626e-21 0.00196118 8.77627e-06 1.93163e-05 3.64083e-06
-0.0389857 6.77626e-21 0.00196122 0.00021191 -5.59516e-05 5.15513e-06
-0.0390408 -6.77626e-21 0.00214247 0 0 0
0.0390408 6.77626e-21 0.00214247 0 0 0
-0.0390834 6.77626e-21 0.00203104 0.000146883 -3.73958e-05 3.38383e-06
0.0390834 -6.77626e-21 0.00203102 0.000243153 -7.35394e-05 -2.02619e-05
-0.0391899 5.0822e-21 7.98183e-08 0 0 0
0.0391899 -8.47033e-21 7.98187e-08 0 0 0
-0.0392186 1.05879e-22 0.000973966 0.000342576 -7.98164e-05 -3.67623e-06
0.039217 0 0.000971787 0.000255596 -1.43844e-05 1.72891e-05
0.0392186 0 0.000993521 0.000254549 -1.52824e-05 1.63399e-05
-0.0392186 0 0.000993748 0.000343177 -8.00038e-05 -3.60438e-06
-0.0392339 1.12938e-22 0.000322247 6.23851e-06 -5.79184e-07 4.71497e-07
0.0392339 -3.38813e-22 0.000322224 2.51722e-05 -8.4813e-06 3.60718e-07
0.0392124 9.41148e-23 0.00160285 0.000196565 -3.42606e-05 -1.22164e-05
-0.0392124 2.82344e-22 0.0016029 0.000352242 -8.54588e-05 -2.87466e-07
0.0392589 1.01644e-20 8.17933e-08 0 0 0
-0.0392589 -2.37169e-20 8.17941e-08 0 0 0
-0.0392358 3.38813e-21 0.00211246 7.10762e-05 -1.80957e-05 1.63743e-06
0.0392358 -1.01644e-20 0.00211246 0.000117645 -3.55807e-05 -9.80332e-06
-0.0392408 1.35525e-20 0.0021699 0 0 0
0.0392408 3.38813e-21 0.00216991 0 0 0
-0.0393079 0 0.00200293 0.000220645 -5.61754e-05 5.08314e-06
0.0393079 0 0.00200291 0.000365261 -0.00011047 -3.04371e-05
0.0393994 1.35525e-20 0.00128732 3.22658e-05 5.81548e-05 8.87239e-06
-0.0393994 -1.35525e-20 0.00128736 0.000441867 -0.000111959 -2.8229e-06
0.0394321 1.35525e-20 0.000662255 8.45044e-05 1.88564e-05 1.46175e-05
-0.0394321 -1.35525e-20 0.000662293 0.000238365 -6.00753e-05 -9.96475e-07
-0.0393782 2.71051e-20 0.00218876 0 0 0
0.0393783 0 0.00218876 0 0 0
0.0394171 1.35525e-20 0.00182881 0.000110128 2.67972e-05 -1.22067e-05
-0.0394171 0 0.00182885 0.000422117 -0.000107064 -2.14216e-06
-0.0394765 0 8.81966e-08 0 0 0
0.0394765 -1.35525e-20 8.81971e-08 0 0 0
0.039636 -1.35525e-20 8.20127e-08 0 0 0
-0.039636 6.77626e-21 8.20112e-08 0 0 0
-0.0396081 -4.51751e-21 0.00155275 0.000485522 -0.0001262 -7.43357e-06
0.0396081 -2.25875e-21 0.00155275 0.000351893 8.65365e-06 -1.56286e-05
-0.0395887 -6.77626e-21 0.00221763 0 0 0
0.0395887 -2.03288e-20 0.00221763 0 0 0
-0.0396657 -2.25875e-21 0.000926812 0.000411691 -0.000111224 -6.11439e-06
0.0396657 -4.51751e-21 0.000926845 0.000366904 1.46578e-05 2.59512e-06
0.0396606 -6.77626e-21 0.00201754 0.000423315 -2.07002e-05 -1.08419e-05
-0.0396606 0 0.00201754 0.000315079 -8.08541e-05 -6.50706e-06
-0.0396602 -6.77626e-21 0.00213151 0.000143953 -3.69405e-05 -2.97293e-06
0.0396602 0 0.00213151 0.000193414 -9.45797e-06 -4.95367e-06
-0.0397186 0 0.000328044 6.59404e-05 -1.70225e-05 -1.43119e-06
0.0397186 3.38813e-21 0.000328061 5.86364e-05 -5.69228e-06 2.1193e-06
-0.0397505 -6.77626e-21 0.00223983 0 0 0
0.0397506 6.77626e-21 0.00223983 0 0 0
-0.0398326 6.77626e-21 7.79286e-08 0 0 0
0.0398326 0 7.79286e-08 0 0 0
-0.0399409 5.64689e-21 0.0012628 0.000556411 -0.000139767 -1.04092e-05
0.0399409 -4.51751e-21 0.00126293 0.000533319 -5.78446e-05 -2.34054e-06
-0.0399609 0 7.37241e-08 0 0 0
0.0399609 0 7.37245e-08 0 0 0
0.0399375 -2.25875e-21 0.0016998 0.000503022 -4.79715e-05 3.58591e-07
-0.0399375 0 0.00169972 0.000532402 -0.000133935 -8.71878e-06
-0.0399278 0 0.00226415 0 0 0
0.0399278 0 0.00226415 0 0 0
-0.0400201 6.77626e-21 0.000637232 0.000260549 -6.55158e-05 -5.45429e-06
0.0400201 0 0.000637359 0.000285125 -4.07012e-05 -2.83958e-06
-0.0400601 0 0.000117456 2.3929e-06 -6.40688e-07 2.03601e-07
0.0400601 1.35525e-20 0.000117489 6.96823e-06 -1.4267e-06 6.69012e-08
0.0400609 0 7.18816e-08 0 0 0
-0.0400609 0 7.1881e-08 0 0 0
0.0400257 -1.35525e-20 0.00227757 0 0 0
-0.0400257 0 0.00227757 0 0 0
-0.0402355 0 0.000320268 5.9498e-06 -1.6433e-06 6.00312e-07
0.0402356 -1.35525e-20 0.000320378 1.51342e-05 -3.18631e-06 9.24885e-08
-0.0402399 0 0.000958442 0.000570432 -0.000140232 -1.40267e-05
0.0402399 0 0.000958653 0.000629248 -9.24721e-05 -1.132e-05
0.0402362 1.35525e-20 0.0015669 0.000607258 -7.00515e-05 1.86087e-05
-0.0402362 1.35525e-20 0.00156673 0.000703372 -0.000172532 -9.27153e-06
0.0402212 -3.38813e-21 0.00200607 0.000514877 -3.23371e-05 2.84196e-05
-0.0402212 0 0.002006 0.000427034 -0.000112355 -1.31381e-06
-0.0404904 0 5.21452e-08 0 0 0
0.0404904 0 5.21452e-08 0 0 0
-0.0404915 -3.38813e-21 3.22757e-05 6.56887e-07 -1.75878e-07 5.58915e-08
0.0404915 0 3.22702e-05 1.91202e-06 -3.91472e-07 1.83571e-08
-0.0405175 3.38813e-21 5.13595e-08 0 0 0
0.0405175 0 5.13599e-08 0 0 0
-0.0404556 0 0.00233656 0 0 0
0.0404556 1.52466e-20 0.00233656 0 0 0
-0.0404936 -7.52918e-22 0.00172666 0.000663607 -0.000162801 -3.1214e-06
0.0404937 -7.52918e-22 0.00172685 0.000606326 -9.93339e-06 4.76818e-05
0.0405368 0 5.18925e-08 0 0 0
-0.0405368 0 5.18925e-08 0 0 0
0.0405375 0 2.05856e-05 8.7632e-07 -3.98364e-07 -3.73915e-08
-0.0405375 -3.38813e-21 2.05864e-05 4.29028e-07 -1.06672e-07 7.15188e-08
-0.0405369 2.03288e-20 0.000628538 0.000313712 -7.67356e-05 -8.32686e-06
0.040537 -1.14349e-20 0.000628787 0.000338751 -1.80062e-05 -9.55373e-07
-0.0405371 -4.23516e-22 0.00063565 0.000316616 -7.74626e-05 -8.41708e-06
0.0405372 -1.18585e-20 0.000635983 0.000341716 -1.84313e-05 -9.47363e-07
-0.0404766 -5.2516e-20 0.00233943 0 0 0
0.0404766 0 0.00233943 0 0 0
-0.040541 1.69407e-21 0.000702547 0.000361126 -8.82991e-05 -8.88294e-06
0.040541 -1.27055e-21 0.000703745 0.000378207 -1.80845e-05 1.40132e-06
-0.0405495 1.14349e-20 0.000632191 0.000318443 -7.80068e-05 -8.46906e-06
0.0405497 -8.04681e-21 0.000632486 0.000338112 -1.66056e-05 -7.56157e-07
0.0404906 0 0.00234135 0 0 0
-0.0404906 -1.69407e-21 0.00234135 0 0 0
-0.0405397 -1.12938e-22 0.00125155 0.000719974 -0.00017567 -1.27988e-05
0.0405397 -1.12938e-22 0.00125189 0.000667794 -1.35536e-05 1.99528e-05
-0.0405452 0 0.00227937 9.77974e-05 -2.21604e-05 2.83984e-06
0.0405453 0 0.00227938 0.000107167 1.40122e-07 2.53959e-05
0.0406158 -3.38813e-21 5.8098e-08 0 0 0
-0.0406159 0 5.81041e-08 0 0 0
0.0406084 -5.0822e-21 0.00235751 0 0 0
-0.0406084 5.0822e-21 0.00235752 0 0 0
-0.0408377 2.71051e-20 0.000322191 4.90617e-06 -1.6676e-06 1.71743e-06
0.0408378 -2.71051e-20 0.000322355 1.19948e-05 -1.63919e-06 9.65039e-07
0.0408178 0 0.00198965 0.000576465 2.05025e-05 0.000117273
-0.0408178 -4.51751e-21 0.0019895 0.000576962 -0.000130277 9.49079e-06
-0.0410085 2.71051e-21 0.0010286 0.000778065 -0.000195387 -1.96486e-05
0.0410086 8.13152e-21 0.00102904 0.000563832 0.000144464 1.83956e-05
-0.0410119 4.51751e-21 0.00150845 0.00096999 -0.00024148 -4.58651e-06
0.041012 4.51751e-21 0.0015088 0.000504792 0.000210342 6.8478e-05
0.0409774 0 0.00240814 0 0 0
-0.0409774 0 0.00240814 0 0 0
0.0410604 1.35525e-20 8.41089e-08 0 0 0
-0.0410604 0 8.41151e-08 0 0 0
0.0410629 0 0.000105931 3.48543e-06 6.51417e-07 7.17152e-07
-0.0410629 0 0.000105838 1.14042e-06 -5.45973e-07 7.1734e-07
0.0409965 6.77626e-21 0.00237824 5.80531e-05 -6.86121e-07 6.39014e-06
-0.0409965 6.77626e-21 0.00237826 7.97304e-05 -1.58882e-05 -1.20376e-06
-0.0410275 0 0.00241502 0 0 0
0.0410275 0 0.00241502 0 0 0
-0.0410347 -2.03288e-20 0.00233955 0.000133505 -2.7054e-05 -1.95316e-06
0.0410347 0 0.00233952 9.58027e-05 1.15069e-05 8.38316e-06
-0.0410708 6.77626e-21 0.0023814 0.000103914 -2.15935e-05 -1.02622e-06
0.0410708 0 0.00238138 6.32191e-05 6.01342e-07 7.50615e-06
-0.0411588 -1.35525e-20 8.62142e-08 0 0 0
0.0411588 -1.35525e-20 8.62085e-08 0 0 0
-0.0410901 -6.77626e-21 0.0024236 0 0 0
0.0410902 0 0.00242361 0 0 0
-0.0412374 -6.77626e-21 0.000638695 0.000437934 -0.000107556 -9.33053e-06
0.0412374 0 0.000639091 0.000186499 9.26204e-05 1.45419e-05
-0.0412319 0 0.00177406 0.000919082 -0.000207393 3.75102e-06
0.041232 0 0.00177433 0.000297477 0.000134439 6.52304e-05
-0.0412814 1.35525e-20 7.69686e-08 0 0 0
0.0412815 0 7.69596e-08 0 0 0
-0.0412864 0 0.000114574 8.76733e-07 -1.76749e-07 -1.78916e-06
0.0412864 -1.35525e-20 0.000114681 1.39852e-06 -6.52395e-07 -1.01161e-07
-0.0412719 -2.71051e-20 0.00123079 0.00100156 -0.000234283 -9.88076e-06
0.041272 -2.71051e-20 0.00123128 0.000212163 0.00019871 4.15756e-05
-0.0414111 -4.51751e-21 0.00202219 0.000762905 -0.000149348 1.0135e-05
0.0414112 -2.25875e-21 0.00202236 0.000475309 9.68315e-05 0.000128078
-0.0414655 0 0.00100479 0.00090916 -0.000201138 -2.4598e-06
0.0414656 -1.35525e-20 0.00100527 0.000248786 0.000179046 3.73581e-05
0.0414387 6.77626e-21 0.00247143 0 0 0
-0.0414387 0 0.00247142 0 0 0
-0.0415231 0 0.000300335 3.76728e-06 -3.81474e-06 -4.49331e-06
0.0415231 -1.35525e-20 0.000300526 3.74678e-07 1.65263e-06 -3.93222e-06
0.0414667 0 0.00241974 8.87018e-05 8.43734e-07 1.05318e-05
-0.0414667 0 0.00241973 0.00014587 -3.03122e-05 -1.44057e-06
-0.0415317 -9.03502e-21 0.00151516 0.00114276 -0.000251435 -1.91787e-05
0.0415317 9.03502e-21 0.0015155 0.000277395 0.000256987 3.11412e-05
-0.0415257 0 0.00236274 0.000219267 -4.01986e-05 -4.59458e-06
0.0415258 6.77626e-21 0.00236276 0.000139277 1.8357e-05 1.51406e-05
-0.0415358 2.03288e-20 0.00248474 0 0 0
0.0415358 6.77626e-21 0.00248475 0 0 0
-0.0417744 -6.77626e-21 8.98208e-05 6.87725e-07 -1.38645e-07 -1.40345e-06
0.0417745 0 8.98629e-05 1.0965e-06 -5.11509e-07 -7.93149e-08
-0.0417779 -6.77626e-21 6.56267e-09 0 0 0
0.041778 0 6.55901e-09 0 0 0
-0.0418022 1.12938e-20 0.000615402 0.000483764 -0.000103284 -5.21612e-06
0.0418022 0 0.000615762 0.00013109 6.24181e-05 1.46626e-05
-0.0417906 -2.71051e-20 0.00186249 0.00102477 -0.000207427 -1.50633e-05
0.0417906 2.71051e-20 0.00186269 0.000289619 0.000139926 5.10991e-05
-0.0417567 6.77626e-21 0.00251504 0 0 0
0.0417567 2.03288e-20 0.00251505 0 0 0
-0.0417893 7.52918e-22 0.0022836 0.00052272 -8.9593e-05 2.65778e-06
0.0417893 -1.50584e-21 0.00228367 0.000423249 8.27319e-05 0.000100427
-0.0418476 6.77626e-21 0.00117393 0.0010933 -0.000223582 -1.57034e-05
0.0418476 -6.77626e-21 0.00117434 0.000205884 0.000139647 3.94513e-05
-0.0418763 1.35525e-20 -1.15002e-09 0 0 0
0.0418764 0 -1.15404e-09 0 0 0
-0.0419536 0 8.50389e-05 1.19413e-06 -7.68684e-08 -1.38408e-07
0.0419536 -1.35525e-20 8.50569e-05 2.03477e-06 3.37519e-08 -3.00216e-07
-0.0419539 0 -1.03272e-09 0 0 0
0.041954 -1.35525e-20 -1.0365e-09 0 0 0
0.0419533 0 0.00254202 0 0 0
-0.0419533 1.35525e-20 0.00254201 0 0 0
-0.0419887 -1.35525e-20 0.0019478 0.00104669 -0.000196347 -3.01037e-05
0.0419887 0 0.00194795 0.00019457 0.00017466 6.61325e-05
-0.0420605 -4.51751e-21 0.00226453 0.000633845 -0.000103554 -1.87669e-05
0.0420605 0 0.00226459 0.00023345 8.71139e-05 6.09886e-05
-0.042061 0 0.00250113 0.000150306 -2.22578e-05 -4.39371e-06
0.042061 1.35525e-20 0.00250114 4.51443e-05 3.37084e-05 2.73224e-05
-0.0421378 -1.35525e-20 0.000921112 0.000899891 -0.000152697 -1.27965e-05
0.0421378 0 0.000921356 0.000597043 -8.56837e-05 -2.51131e-05
-0.0420718 6.77626e-21 0.00255827 0 0 0
0.0420718 6.77626e-21 0.00255827 0 0 0
0.0421546 2.71051e-20 0.000313421 4.717e-06 1.47017e-06 2.82385e-07
-0.0421546 0 0.000313301 3.57036e-06 -7.3216e-07 -8.43578e-07
-0.0421336 9.03502e-21 0.0016375 0.00123393 -0.000222944 -3.80274e-05
0.0421336 -4.51751e-21 0.00163769 0.000475293 5.64513e-05 9.43457e-05
-0.0421793 -6.77626e-21 0.002247 0.000704208 -0.000107577 -2.90056e-05
0.0421793 6.77626e-21 0.00224705 0.000204797 7.88011e-05 5.00529e-05
0.0423852 6.77626e-21 6.66393e-05 1.59413e-06 2.64426e-08 -2.35202e-07
-0.0423852 -6.77626e-21 6.66078e-05 9.3529e-07 -6.02063e-08 -1.08407e-07
-0.0423913 0 1.33679e-09 0 0 0
0.0423913 0 1.33598e-09 0 0 0
-0.0423173 0 0.00259195 0 0 0
0.0423174 -6.77626e-21 0.00259196 0 0 0
-0.0423622 1.35525e-20 0.00253137 0.000180239 -2.66905e-05 -5.26871e-06
0.0423623 0 0.00253138 5.41299e-05 4.04178e-05 3.27607e-05
0.0424524 0 1.43798e-09 0 0 0
-0.0424524 -6.77626e-21 1.43857e-09 0 0 0
-0.0424509 1.12938e-21 0.000611632 0.000474227 -8.60379e-05 -8.61275e-06
0.0424509 3.38813e-21 0.000611739 0.000265536 7.62796e-06 -1.64219e-05
-0.042444 4.51751e-21 0.00122872 0.00117273 -0.000215109 -2.93308e-05
0.0424441 1.12938e-21 0.00122884 0.000478228 7.84318e-05 2.39817e-05
-0.0425171 6.77626e-21 1.31915e-09 0 0 0
0.0425171 0 1.31866e-09 0 0 0
-0.0425183 0 6.48504e-05 8.4384e-07 -2.46766e-07 3.89668e-08
0.0425183 6.77626e-21 6.48584e-05 8.56753e-08 7.93996e-07 5.99989e-07
-0.0424587 -3.38813e-21 0.00227178 0.000726081 -0.000120706 -3.09766e-05
0.0424587 -3.38813e-21 0.00227182 0.000190576 0.000121928 6.33414e-05
-0.0424457 0 0.00260956 0 0 0
0.0424458 -1.35525e-20 0.00260957 0 0 0
-0.0424966 -4.51751e-21 0.00189079 0.0011848 -0.000215221 -4.11991e-05
0.0424967 4.51751e-21 0.00189085 0.000358469 0.000180649 7.84411e-05
-0.0425605 -1.35525e-20 0.00254401 0.000223944 -3.4095e-05 -1.58048e-05
0.0425605 -1.35525e-20 0.00254402 5.90968e-05 5.2561e-05 2.78856e-05
-0.0426002 -6.77626e-21 0.00263076 0 0 0
0.0426003 1.35525e-20 0.00263076 0 0 0
0.0427577 0 0.000308577 1.8256e-06 3.25777e-06 3.33164e-06
-0.0427577 0 0.000308578 3.98185e-06 -1.15598e-06 2.98985e-07
-0.042762 0 0.00092253 0.0010065 -0.000192361 -2.16454e-05
0.042762 2.71051e-20 0.000922525 0.000467394 0.000112041 -4.51222e-05
-0.042748 0 0.00216861 0.00102301 -0.00018379 -4.1165e-05
0.0427481 1.35525e-20 0.00216862 0.000246904 0.000205976 9.38455e-05
-0.0427408 -4.06576e-20 0.00240953 0.000589205 -9.5298e-05 -3.30362e-05
0.0427408 0 0.00240953 0.000106624 0.000138854 6.30933e-05
-0.0428416 8.13152e-21 0.00164355 0.0014264 -0.000271226 -3.89128e-05
0.0428416 -1.35525e-20 0.00164354 0.000321533 0.000286434 7.18247e-05
-0.0428297 0 0.00266224 0 0 0
0.0428297 2.71051e-20 0.00266224 0 0 0
0.0429615 0 5.93011e-11 0 0 0
-0.0429615 0 5.79639e-11 0 0 0
-0.0428847 0 0.00256824 0.00027972 -4.25866e-05 -1.97411e-05
0.0428847 -1.35525e-20 0.00256825 7.38188e-05 6.56548e-05 3.48324e-05
0.0429621 0 9.52028e-05 1.25762e-07 1.1655e-06 8.80715e-07
-0.0429622 1.35525e-20 9.51811e-05 1.23853e-06 -3.62186e-07 5.71929e-08
-0.0429936 -5.80823e-21 0.00192518 0.00125844 -0.000237016 -3.90257e-05
0.0429937 -1.54886e-20 0.00192513 0.000298131 0.000282153 9.79667e-05
-0.0430551 0 -1.06622e-10 0 0 0
0.0430551 0 -1.05152e-10 0 0 0
0.0430752 -2.25875e-21 0.000610558 0.000188198 0.000114199 -8.79656e-06
-0.0430752 -4.51751e-21 0.000610657 0.000513487 -0.000102661 -1.12463e-05
0.0430107 1.35525e-20 0.00268706 0 0 0
-0.0430107 -1.35525e-20 0.00268706 0 0 0
-0.0430775 -2.25875e-21 0.00123361 0.00129062 -0.00025571 -2.96832e-05
0.0430775 -2.25875e-21 0.00123349 0.000293231 0.000315188 2.78751e-05
-0.0430372 -2.25875e-21 0.00230972 0.000838076 -0.000145962 -3.46968e-05
0.0430373 2.25875e-21 0.00230971 0.0001206 0.000213626 7.41754e-05
-0.0431637 0 1.5382e-11 0 0 0
0.0431637 0 1.67288e-11 0 0 0
-0.0431652 1.35525e-20 0.000103815 1.29769e-06 -5.13337e-07 -1.37255e-07
0.0431652 0 0.000103811 1.99247e-06 -6.58154e-08 1.01459e-07
0.0432457 -1.35525e-20 0.00271928 0 0 0
-0.0432458 6.77626e-21 0.00271929 0 0 0
0.0433794 -2.71051e-20 0.000307824 6.27665e-06 -2.52726e-09 4.17785e-07
-0.0433795 -2.71051e-20 0.000307922 3.41687e-06 -1.50542e-06 3.03237e-07
-0.0433141 4.51751e-21 0.00255689 0.000428099 -6.94108e-05 -2.44165e-05
0.0433141 9.03502e-21 0.00255689 1.4577e-05 0.00013784 4.95947e-05
-0.0433486 -9.03502e-21 0.00207031 0.00126586 -0.000229678 -3.67804e-05
0.0433486 -1.35525e-20 0.00207025 0.000134917 0.000361341 7.84144e-05
0.0433928 2.71051e-20 0.000922169 0.000264839 0.000345317 4.89587e-06
-0.0433928 2.71051e-20 0.000922361 0.00105241 -0.000217876 -2.43543e-05
-0.043354 -2.71051e-20 0.00273413 0 0 0
0.043354 2.03288e-20 0.00273414 0 0 0
-0.0434187 -4.51751e-21 0.0016019 0.00151778 -0.000296449 -3.32385e-05
0.0434187 6.77626e-21 0.00160173 7.37151e-05 0.00047303 7.2788e-05
0.0435473 0 9.019e-10 0 0 0
-0.0435473 -1.35525e-20 9.01633e-10 0 0 0
0.0435506 0 0.000132384 2.54085e-06 -8.39296e-08 1.29384e-07
-0.0435506 -1.35525e-20 0.00013241 1.65513e-06 -6.54732e-07 -1.7506e-07
-0.0436835 2.71051e-20 1.03606e-09 0 0 0
0.0436835 -2.71051e-20 1.03617e-09 0 0 0
0.0436251 2.11758e-22 0.00235498 5.14306e-05 0.000293131 5.26162e-05
-0.0436252 2.11758e-22 0.00235502 0.000947051 -0.000165801 -3.25848e-05
0.0436012 2.71051e-20 0.00276801 0 0 0
-0.0436012 0 0.00276801 0 0 0
0.0436982 -4.51751e-21 0.000607493 7.61295e-05 0.000187841 1.96233e-05
-0.0436983 -4.51751e-21 0.000607717 0.000539367 -0.000102985 -8.21425e-06
0.0436672 0 0.00190306 0.00023983 0.000414349 7.2327e-05
-0.0436672 -2.71051e-20 0.0019032 0.0014559 -0.000271741 -2.89015e-05
0.0436479 2.11758e-22 0.00235467 4.91374e-05 0.000296648 5.14613e-05
-0.0436479 0 0.00235472 0.000951989 -0.000166732 -3.24645e-05
0.0437002 -9.03502e-21 0.00112951 9.69562e-05 0.000435488 5.48518e-05
-0.0437002 4.51751e-21 0.0011298 0.00124343 -0.00023915 -1.99869e-05
-0.0436555 -2.11758e-22 0.00236095 0.000944812 -0.000165389 -3.22424e-05
0.0436555 2.11758e-22 0.00236091 4.81651e-05 0.000294664 5.13303e-05
0.0438316 -2.71051e-20 0.000140387 -3.00576e-07 1.88716e-07 -1.71439e-06
-0.0438317 0 0.000140437 1.88354e-06 1.22452e-07 -9.08509e-08
-0.0438324 1.35525e-20 1.26291e-09 0 0 0
0.0438324 1.35525e-20 1.263e-09 0 0 0
0.044004 0 0.000302869 -2.73593e-06 1.42026e-06 -5.30377e-06
-0.044004 2.71051e-20 0.000303007 3.37696e-06 5.66395e-08 -1.21437e-06
0.0439928 0 0.00156096 -9.94899e-05 0.000569317 9.9813e-05
-0.0439928 -6.77626e-21 0.00156117 0.00163661 -0.000294135 -2.6503e-05
-0.0439354 -6.77626e-21 0.00281381 0 0 0
0.0439354 -2.5411e-20 0.00281382 0 0 0
-0.0439809 1.35525e-20 0.00211391 0.0014094 -0.000249312 -4.00213e-05
0.0439809 -4.51751e-21 0.00211382 8.85125e-05 0.000475949 2.99327e-05
-0.0439531 -1.69407e-21 0.00279275 6.30695e-05 -1.0435e-05 -2.46676e-06
0.0439531 3.38813e-21 0.0027928 7.83416e-06 1.98362e-05 4.15354e-06
-0.043961 -1.69407e-21 0.00281732 0 0 0
0.043961 0 0.00281732 0 0 0
-0.0440043 2.25875e-21 0.0025931 0.000594195 -9.89053e-05 -2.16512e-05
0.0440043 0 0.00259309 4.32333e-05 0.000190421 4.1416e-05
0.0440988 1.6263e-20 0.00101219 2.84291e-06 0.000427871 7.83459e-05
-0.0440988 -8.13152e-21 0.0010125 0.00120233 -0.000206098 -1.31005e-05
0.0441598 2.71051e-20 2.36366e-09 0 0 0
-0.0441598 0 2.3638e-09 0 0 0
0.0441637 0 0.000147457 -3.15712e-07 1.98219e-07 -1.80072e-06
-0.0441637 -2.71051e-20 0.000147511 1.97839e-06 1.28619e-07 -9.54261e-08
-0.0443161 0 2.58835e-09 0 0 0
0.0443161 -1.35525e-20 2.58819e-09 0 0 0
0.0443172 -6.77626e-21 0.000604412 3.1129e-05 0.000185455 2.75465e-05
-0.0443172 -2.25875e-21 0.000604657 0.000560088 -8.7803e-05 -4.21156e-06
0.0442814 -5.42101e-20 0.00191676 0.000251932 0.000425436 8.7215e-05
-0.0442814 -2.71051e-20 0.00191692 0.00160911 -0.000278201 -3.27593e-05
0.0443137 2.71051e-20 0.00123266 8.09602e-05 0.000444574 7.48838e-05
-0.0443137 0 0.00123298 0.00146011 -0.000243099 -1.96579e-05
-0.0442645 2.71051e-20 0.00285891 0 0 0
0.0442646 2.71051e-20 0.00285892 0 0 0
0.0443414 4.51751e-21 0.00231325 0.000169326 0.000345728 7.56831e-05
-0.0443414 -9.03502e-21 0.00231331 0.00126334 -0.000211337 -3.63475e-05
-0.0444716 0 0.000150042 1.9061e-06 -9.72996e-09 9.87446e-08
0.0444716 -2.71051e-20 0.000150001 -2.53277e-06 1.19737e-06 -9.3681e-07
-0.0444749 -1.35525e-20 2.3549e-09 0 0 0
0.0444749 1.35525e-20 2.35475e-09 0 0 0
0.0445335 -2.71051e-21 0.00101154 4.69216e-05 0.000389029 5.46432e-05
-0.0445335 0 0.00101185 0.00122936 -0.000184189 -1.16423e-05
-0.0445227 4.51751e-21 0.00155722 0.00174205 -0.000281936 -2.81271e-05
0.0445227 0 0.00155701 3.3532e-06 0.000519679 8.43085e-05
-0.0445478 -2.71051e-20 0.00210098 0.00159404 -0.000261141 -4.23373e-05
0.0445478 2.71051e-21 0.00210088 0.000211801 0.000357965 0.000124363
-0.0445257 -1.35525e-20 0.00289471 0 0 0
0.0445258 -3.38813e-20 0.00289472 0 0 0
0.0446295 0 0.000304347 -8.61824e-06 4.86592e-06 -1.48097e-06
-0.0446295 -1.35525e-20 0.000304461 3.66696e-06 7.51479e-08 4.70636e-08
-0.044594 0 0.00278583 0.000318076 -5.30227e-05 -1.159e-05
0.044594 0 0.00278588 5.39924e-05 8.37865e-05 5.33449e-05
-0.0446261 0 0.00264116 0.000695656 -0.000115038 -2.47964e-05
0.0446261 -2.25875e-21 0.00264114 8.55346e-05 0.000193968 0.000106484
0.0446645 0 0.00291372 0 0 0
-0.0446646 -6.77626e-21 0.00291373 0 0 0
0.0447808 1.35525e-20 1.63152e-09 0 0 0
-0.0447808 1.35525e-20 1.63155e-09 0 0 0
0.0447854 0 0.00015027 -2.53731e-06 1.19952e-06 -9.38492e-07
-0.0447855 1.35525e-20 0.000150312 1.90953e-06 -9.74749e-09 9.89225e-08
-0.0449405 0 1.3988e-09 0 0 0
0.0449405 1.35525e-20 1.39877e-09 0 0 0
0.044942 4.51751e-21 0.000602417 5.7453e-05 0.000174914 2.54967e-05
-0.044942 -4.51751e-21 0.00060259 0.00057927 -8.4549e-05 -4.44e-06
0.0449381 -4.51751e-21 0.00123202 9.94201e-05 0.000451908 7.1418e-05
-0.0449382 0 0.00123223 0.00154621 -0.000241654 -2.24293e-05
0.0449431 -6.77626e-21 0.00185203 0.000200283 0.000476595 0.000108436
-0.0449431 -2.25875e-21 0.00185217 0.00180944 -0.00029451 -4.28337e-05
0.0449492 -4.51751e-21 0.00232791 0.000312687 0.000328948 0.00011135
-0.0449492 -4.51751e-21 0.00232797 0.00141175 -0.000230194 -4.24565e-05
0.0449214 -1.35525e-20 0.00294893 0 0 0
-0.0449214 0 0.00294893 0 0 0
-0.0451017 -1.35525e-20 1.29463e-09 0 0 0
0.0451017 0 1.2946e-09 0 0 0
-0.0450995 0 0.00297331 0 0 0
0.0450995 -2.03288e-20 0.00297331 0 0 0
-0.045251 1.35525e-20 0.000202824 2.23842e-06 -2.71438e-07 -2.96979e-07
0.045251 9.03502e-21 0.000202783 -8.79976e-07 2.73604e-06 8.49952e-07
0.0452595 2.71051e-20 0.000915145 0.000125238 0.000371857 6.30396e-05
-0.0452595 0 0.000915292 0.0012043 -0.000183753 -9.9314e-06
0.045262 2.71051e-20 0.00154673 0.000146744 0.000586814 8.59446e-05
-0.045262 2.71051e-20 0.00154687 0.0019957 -0.000330565 -3.87882e-05
0.0452616 0 0.00214816 0.000450189 0.00044326 0.000119835
-0.0452617 0 0.00214823 0.00179737 -0.000295607 -5.09029e-05
0.0452367 2.25875e-21 0.00269257 0.000145117 0.000218221 8.42351e-05
-0.0452367 0 0.00269258 0.000767207 -0.00013406 -3.38411e-05
0.0453935 0 1.00959e-09 0 0 0
-0.0453935 0 1.00963e-09 0 0 0
0.0453384 0 0.00300597 0 0 0
-0.0453384 0 0.00300597 0 0 0
-0.045559 -1.35525e-20 9.03952e-10 0 0 0
0.045559 -2.71051e-20 9.03906e-10 0 0 0
0.0455698 6.77626e-21 0.000598369 8.02111e-05 0.00018135 3.70223e-05
-0.0455698 2.25875e-21 0.000598452 0.000598839 -9.48685e-05 -3.08728e-06
0.045574 -4.51751e-21 0.00122571 0.00020168 0.000468322 8.27853e-05
-0.045574 6.77626e-21 0.00122582 0.00162714 -0.000265714 -1.95294e-05
-0.0454949 4.06576e-20 0.00302739 0 0 0
0.0454949 0 0.00302739 0 0 0
0.045575 -2.25875e-21 0.00186033 0.000401527 0.000507456 8.21717e-05
-0.045575 0 0.0018604 0.00195559 -0.000324739 -4.21968e-05
0.0455636 9.03502e-21 0.00235679 0.000532194 0.000354785 6.5036e-05
-0.0455636 -9.03502e-21 0.00235682 0.00156567 -0.000261231 -4.47491e-05
-0.0456185 1.35525e-20 0.00304441 0 0 0
0.0456185 6.77626e-21 0.00304441 0 0 0
-0.0457296 0 8.66649e-10 0 0 0
0.0457296 0 8.66605e-10 0 0 0
-0.0458748 0 0.000203876 2.02892e-06 -6.24146e-07 -9.96703e-07
0.0458748 9.03502e-21 0.000203862 -4.69435e-07 2.64972e-07 -1.284e-07
0.0458876 0 0.000909899 0.000174867 0.000368833 8.55253e-05
-0.0458876 0 0.000909967 0.00123028 -0.000201031 -9.14893e-07
-0.0458326 -2.71051e-21 0.00274325 0.00090376 -0.00015349 -2.33615e-05
0.0458326 3.16226e-21 0.00274325 0.000334254 0.000214342 4.4198e-05
0.0458898 0 0.00154847 0.00031176 0.000563672 0.000100067
-0.0458898 0 0.00154853 0.00209941 -0.000349465 -2.97767e-05
0.0458888 0 0.00217764 0.000669598 0.000451174 2.76842e-05
-0.0458889 2.71051e-20 0.00217767 0.0019526 -0.000324925 -5.05171e-05
-0.0458626 -6.77626e-21 0.00307837 0 0 0
0.0458626 -1.35525e-20 0.00307837 0 0 0
0.0460115 -1.35525e-20 7.57524e-10 0 0 0
-0.0460115 2.71051e-20 7.57548e-10 0 0 0
-0.0459673 -6.77626e-21 0.0030928 0 0 0
0.0459674 1.35525e-20 0.0030928 0 0 0
-0.0461847 0 7.198e-10 0 0 0
0.0461847 0 7.19779e-10 0 0 0
-0.0461957 4.51751e-21 0.000591487 0.000612055 -9.6924e-05 1.67973e-06
0.0461957 2.25875e-21 0.000591455 0.000140515 0.000179003 4.33024e-05
0.0462006 -9.03502e-21 0.00122009 0.000404992 0.000443652 8.92887e-05
-0.0462006 0 0.00122013 0.00169814 -0.000270489 -1.02262e-05
0.0462019 6.77626e-21 0.00186862 0.000733301 0.000446375 8.31614e-05
-0.0462019 0 0.00186864 0.00210311 -0.000340971 -3.90279e-05
-0.0461655 -6.77626e-21 0.00312126 0 0 0
0.0461656 -2.03288e-20 0.00312127 0 0 0
-0.0461939 -1.35525e-20 0.00295331 0.000554747 -7.86279e-05 1.13237e-06
0.0461939 0 0.00295328 0.000428263 0.000101107 -4.30444e-06
-0.0462707 2.25875e-21 0.00256437 0.00140265 -0.000224563 -3.08055e-05
0.0462707 1.12938e-21 0.00256437 0.000742422 0.0002441 3.57645e-05
-0.0463595 -2.71051e-20 6.73842e-10 0 0 0
0.0463595 2.71051e-20 6.73822e-10 0 0 0
-0.0463949 3.38813e-21 0.00315229 0 0 0
0.046395 0 0.0031523 0 0 0
-0.046506 0 0.000199294 1.58006e-06 -1.12792e-06 -1.92616e-06
0.046506 1.807e-20 0.000199294 -1.28806e-06 -1.22404e-06 7.46765e-07
0.0465144 0 0.000898641 0.000363502 0.000374237 9.19813e-05
-0.0465144 0 0.000898665 0.00126074 -0.000190556 1.12957e-05
0.0465158 0 0.00154147 0.000723299 0.000487619 8.2513e-05
-0.0465158 0 0.00154149 0.00222851 -0.00034239 -2.35617e-05
0.0464366 3.38813e-21 0.00315806 0 0 0
-0.0464366 3.38813e-21 0.00315806 0 0 0
0.0464514 -6.77626e-21 0.0031144 3.08642e-05 5.33345e-05 6.50461e-08
-0.0464514 0 0.00311437 0.000129514 -1.25245e-05 -4.58141e-06
0.0465218 -2.71051e-20 0.00218627 0.00120949 0.000295989 0.000134125
-0.0465218 0 0.00218628 0.00215763 -0.000348499 -5.40923e-05
0.0466484 1.35525e-20 5.2382e-10 0 0 0
-0.0466484 2.71051e-20 5.23805e-10 0 0 0
-0.0466132 9.03502e-21 0.00290744 0.000809397 -0.000101114 -2.106e-05
0.0466132 4.51751e-21 0.00290743 0.000434318 0.000207215 -1.10958e-06
-0.0468205 -2.71051e-20 4.77071e-10 0 0 0
0.0468205 0 4.77088e-10 0 0 0
-0.0468261 -6.77626e-21 0.00058046 0.000628248 -8.61016e-05 4.15708e-06
0.0468261 -2.25875e-21 0.000580448 0.000258391 0.000180851 3.68411e-05
0.0467233 0 0.00319817 0 0 0
-0.0467234 0 0.00319819 0 0 0
0.0468292 -4.51751e-21 0.00120515 0.000762018 0.000438816 7.7121e-05
-0.0468292 -4.51751e-21 0.00120516 0.00177947 -0.000252516 -5.6203e-06
0.0468326 0 0.00185915 0.00127493 0.000387729 8.73745e-05
-0.0468326 -6.77626e-21 0.00185916 0.00228747 -0.000343739 -3.85335e-05
-0.0468472 3.61401e-21 0.00253599 0.00166383 -0.000260254 -4.39913e-05
0.0468472 4.51751e-21 0.00253598 0.00124452 0.000162174 4.4014e-05
0.0468396 -1.69407e-21 0.00321454 0 0 0
-0.0468396 0 0.00321454 0 0 0
0.0468444 0 0.00320755 2.19921e-05 3.92186e-06 2.86557e-07
-0.0468444 0 0.00320756 2.63906e-05 -4.13302e-06 -3.04445e-07
0.0468557 0 0.00318854 7.96602e-05 6.94601e-06 6.21705e-07
-0.0468557 1.69407e-21 0.00318856 8.94605e-05 -1.3842e-05 -2.85028e-06
0.0468539 -1.69407e-21 0.00321654 0 0 0
-0.0468539 0 0.00321653 0 0 0
-0.0468678 0 0.00320873 3.39132e-05 -5.19004e-06 -2.27742e-06
0.0468679 0 0.00320873 3.64132e-05 3.15261e-06 3.09573e-06
-0.0468728 3.38813e-21 0.00321918 0 0 0
0.0468729 1.69407e-21 0.00321918 0 0 0
-0.0469903 -1.35525e-20 4.262e-10 0 0 0
0.0469903 -1.35525e-20 4.26209e-10 0 0 0
0.0470012 0 0.00293207 0.00070485 0.000141464 1.75763e-05
-0.0470012 0 0.00293208 0.000927654 -0.00013642 -3.94647e-05
0.0471425 -9.03502e-21 0.000190384 -3.15627e-07 -1.59162e-06 1.34619e-06
-0.0471425 -9.03502e-21 0.000190377 1.74092e-06 -1.13535e-06 -1.72488e-06
0.0471463 5.42101e-20 0.000881282 0.000648243 0.000385951 6.0131e-05
-0.0471463 0 0.000881291 0.00129678 -0.000154723 9.47641e-06
-0.0471461 -5.42101e-20 0.00152023 0.00236345 -0.000324112 -2.22907e-05