# k  POINT_DATA 64962
# x  y  z  k
0 -3.99946e-05 5.21085e-09 0.00277667
-5.42101e-20 0.000272502 0.000292358 0.00275888
5.42101e-20 -0.000352499 0.000292358 0.00279445
0 0.000585009 5.11816e-09 0.00274084
0 -3.99965e-05 0.000584718 0.00180968
-8.27181e-25 -0.000664995 5.31781e-09 0.00281241
0 0.000585003 0.000584719 0.00178839
7.82637e-21 -0.000665003 0.00058472 0.00183108
0 0.000272501 0.000892183 0.000823899
-2.71051e-20 0.000897501 0.000292359 0.00272279
0 -0.0003525 0.000892183 0.000830518
0 -0.0009775 0.000292358 0.00283036
-2.06795e-25 -3.99985e-05 0.00119965 0.000539257
0 0.00121001 4.87434e-09 0.00270414
-2.71051e-20 0.0008975 0.000892183 0.000817478
0 -0.00128999 5.46622e-09 0.00284813
-2.71051e-20 -0.0009775 0.000892183 0.000837558
0 0.000585002 0.00119965 0.000534294
-4.1359e-25 0.00121 0.000584719 0.00176679
-8.22466e-21 -0.000665001 0.00119965 0.000544366
-2.0682e-20 -0.00129 0.000584719 0.00185265
2.71051e-20 0.0002725 0.00152054 0.000245467
0 0.0015225 0.000292358 0.00268549
2.71051e-20 -0.0003525 0.00152054 0.000248826
2.71051e-20 -0.0016025 0.000292358 0.00286591
1.03398e-25 0.00121 0.00119965 0.000529448
-1.63341e-20 -0.00129 0.00119965 0.000549654
-2.71051e-20 0.0015225 0.000892183 0.000811383
-2.71051e-20 0.0008975 0.00152054 0.000242058
-2.71051e-20 -0.0009775 0.00152054 0.000252194
-2.71051e-20 -0.0016025 0.000892183 0.000844905
0 0.001835 4.40292e-09 0.00266634
3.17229e-21 -4.00002e-05 0.00184143 0.000205212
0 -0.00191499 5.51995e-09 0.00288343
-2.28794e-20 0.001835 0.000584719 0.00174479
1.57478e-20 0.000585 0.00184143 0.000201344
2.15287e-20 -0.000665 0.00184143 0.000209058
1.36472e-20 -0.001915 0.000584719 0.00187419
2.71051e-20 0.0015225 0.00152054 0.000238638
-8.13152e-20 0.0021475 0.000292358 0.00264719
0 0.0002725 0.002164 0.000161026
-1.77047e-20 0.001835 0.00119965 0.000524744
-2.71051e-20 -0.0003525 0.002164 0.000165375
1.05576e-20 0.00121 0.00184143 0.000197465
-2.71051e-20 -0.0016025 0.00152054 0.000255535
0 -0.0022275 0.000292358 0.00290094
-5.34483e-21 -0.00129 0.00184143 0.000212874
6.28471e-21 -0.001915 0.00119965 0.00055511
2.71051e-20 0.0021475 0.000892183 0.000805602
2.71051e-20 0.0008975 0.002164 0.000156671
-2.71051e-20 -0.0009775 0.002164 0.000169686
0 -0.0022275 0.000892183 0.00085269
0 0.00246 3.63123e-09 0.00262759
-1.30687e-20 -3.99999e-05 0.00248657 0.000151831
2.29286e-20 0.00246 0.000584717 0.00172247
0 -0.00253999 5.46152e-09 0.00291792
2.08414e-20 0.000585 0.00248657 0.000146996
1.27114e-22 -0.000665 0.00248657 0.000156637
-3.16773e-20 0.001835 0.00184143 0.000193587
-3.8042e-21 -0.00254 0.00058472 0.0018955
-2.71051e-20 0.0021475 0.00152054 0.000235157
0 0.0015225 0.002164 0.000152338
1.6167e-20 -0.001915 0.00184143 0.000216635
0 -0.0016025 0.002164 0.000173932
2.71051e-20 -0.0022275 0.00152054 0.000258823
-4.10075e-20 0.00246 0.00119965 0.000520198
2.1123e-20 0.00121 0.00248657 0.000142185
2.71051e-20 0.0027725 0.000292358 0.002608
3.59738e-20 -0.00129 0.00248657 0.000161376
-3.25744e-21 -0.00254 0.00119965 0.00056072
-5.42101e-20 0.0002725 0.00280426 0.000137858
-2.71051e-20 -0.0003525 0.00280426 0.000143182
2.71051e-20 -0.0028525 0.000292358 0.00293489
2.71051e-20 0.0027725 0.000892183 0.000800115
0 0.0008975 0.00280426 0.00013255
0 -0.0009775 0.00280426 0.000148418
0 -0.0028525 0.000892183 0.000860758
2.71051e-20 0.0021475 0.002164 0.000148056
-2.44104e-20 0.00246 0.00184143 0.000189754
0 0.003085 2.57439e-09 0.00258769
-2.41305e-20 0.001835 0.00248657 0.000137427
-5.42101e-20 -0.0022275 0.002164 0.000178103
8.80323e-21 -4e-05 0.00312195 0.000135851
-5.11549e-21 -0.00254 0.00184143 0.000220311
3.62667e-22 -0.001915 0.00248657 0.000166004
1.40358e-20 0.003085 0.000584717 0.00169968
0 0.0027725 0.00152054 0.000231752
0 -0.00316499 5.33244e-09 0.00295165
6.70392e-21 0.000585 0.00312195 0.00013021
5.42101e-20 0.0015225 0.00280426 0.000127307
-9.85718e-21 -0.000665 0.00312195 0.000141424
1.37056e-20 -0.003165 0.00058472 0.0019166
2.71051e-20 -0.0016025 0.00280426 0.000153577
0 -0.0028525 0.00152054 0.000262054
-4.84973e-21 0.003085 0.00119965 0.000515797
3.07691e-20 0.00121 0.00312195 0.000124601
2.46993e-20 -0.00129 0.00312195 0.000146876
-2.34547e-21 -0.003165 0.00119965 0.000566473
0 0.0033975 0.000292358 0.00256739
-2.71051e-20 0.0002725 0.00343582 0.000128237
-2.71051e-20 -0.0003525 0.00343582 0.000134163
0 -0.0034775 0.000292358 0.00296842
2.95342e-20 0.00246 0.00248657 0.000132784
5.42101e-20 0.0033975 0.000892183 0.000794797
-2.71051e-20 0.0027725 0.002164 0.000143892
2.71051e-20 0.0021475 0.00280426 0.000122139
2.71051e-20 0.0008975 0.00343582 0.000122232
-3.59433e-21 -0.00254 0.00248657 0.000170457
2.71051e-20 -0.0009775 0.00343582 0.000139966
0 -0.0028525 0.002164 0.000182119
-2.71051e-20 -0.0022275 0.00280426 0.000158509
-2.71051e-20 -0.0034775 0.000892183 0.000869181
-1.74879e-20 0.003085 0.00184143 0.000185999
7.94094e-21 0.001835 0.00312195 0.000119084
1.29247e-26 0.00359372 0.000584717 0.00168048
0 0.00344619 0.00119965 0.000513307
1.47847e-20 -0.003165 0.00184143 0.000223894
2.79755e-20 -0.001915 0.00312195 0.000152117
0 0.00371 1.37831e-09 0.00254608
5.42101e-20 0.0033975 0.00152054 0.000228388
0 0.00371 0.000533785 0.00175187
-3.09608e-21 -4e-05 0.00374969 0.000129466
0 0.00371 0.000584717 0.00167609
-5.42101e-20 0.0015225 0.00343582 0.000116358
8.27181e-25 -0.00378999 5.01249e-09 0.00298474
0 -0.0016025 0.00343582 0.000145576
2.93568e-20 0.000585 0.00374969 0.000123324
-2.71051e-20 -0.0034775 0.00152054 0.000265274
-3.88513e-21 -0.000665 0.00374969 0.000135475
6.93426e-21 -0.00379 0.000584719 0.00193757
3.23117e-27 0.00338244 0.00184143 0.000184259
0 0.00371 0.00119965 0.000511488
-2.99531e-20 0.00121 0.00374969 0.000117178
0 0.0027725 0.00280426 0.000117187
1.20645e-20 0.003085 0.00248657 0.000128281
-2.60883e-20 -0.00129 0.00374969 0.000141291
-2.90713e-20 0.00246 0.00312195 0.000113736
1.31232e-21 -0.00379 0.00119965 0.000572435
0 -0.0028525 0.00280426 0.000163199
-1.65391e-20 -0.00254 0.00312195 0.000157101
1.35571e-20 -0.003165 0.00248657 0.000174716
0 0.0033975 0.002164 0.000139805
2.71051e-20 0.0040225 0.000292358 0.00252478
2.71051e-20 0.0021475 0.00343582 0.00011058
0 0.0002725 0.00406234 0.000124624
2.71051e-20 -0.0003525 0.00406235 0.000130842
0 -0.0022275 0.00343582 0.000150838
-2.71051e-20 -0.0034775 0.002164 0.000185982
-2.71051e-20 -0.0041025 0.000292358 0.00300106
2.71051e-20 0.0040225 0.000892183 0.000789551
1.29247e-26 0.00371 0.00184143 0.000182343
-2.71051e-20 0.0008975 0.00406235 0.000118207
0 0.00334846 0.00248657 0.000126457
1.74016e-20 0.001835 0.00374969 0.000111154
2.71051e-20 -0.0009775 0.00406235 0.000136933
-2.71051e-20 -0.0041025 0.000892183 0.000878116
-1.75429e-20 -0.001915 0.00374969 0.000146816
1.5824e-20 -0.00379 0.00184143 0.000227381
0 0.0040225 0.00152054 0.000225108
5.16988e-26 0.004335 2.64124e-10 0.00250196
-2.71051e-20 0.0015225 0.00406235 0.000111922
0 0.004335 0.000206151 0.00220206
2.71051e-20 -0.0016025 0.00406235 0.000142693
0 0.004335 0.000584718 0.00165132
3.23421e-20 -4e-05 0.004375 0.000127472
0 -0.0041025 0.00152054 0.000268465
2.14346e-20 0.003085 0.00312195 0.000108611
-2.71051e-20 0.0033975 0.00280426 0.000112381
7.04291e-21 0.000585 0.004375 0.000121127
0 0.0027725 0.00343582 0.000105085
8.27181e-25 -0.004415 4.40884e-09 0.00301684
-1.70468e-20 -0.000665 0.004375 0.000133657
3.02207e-20 -0.003165 0.00312195 0.000161826
1.24681e-20 -0.004415 0.000584718 0.0019583
-2.71051e-20 -0.0028525 0.00343582 0.00015589
3.23117e-27 0.00371 0.00248657 0.000123954
0 -0.0034775 0.00280426 0.00016766
1.34264e-20 0.00246 0.00374969 0.000105323
0 0.004335 0.00119965 0.000507304
-2.85374e-20 -0.00254 0.00374969 0.000152051
3.39441e-22 -0.00379 0.00248657 0.000178765
2.98316e-21 0.00121 0.004375 0.000114727
2.01948e-28 0.00331919 0.00312195 0.000106788
2.95282e-21 -0.00129 0.004375 0.000139595
2.71051e-20 0.0040225 0.002164 0.000135911
-3.25237e-21 -0.004415 0.00119965 0.00057864
-5.42101e-20 0.0021475 0.00406234 0.000105761
0 -0.0022275 0.00406234 0.000148159
0 -0.0041025 0.002164 0.000189658
0 0.0046475 0.000292358 0.00247915
0 0.0002725 0.0046875 0.000124071
0 0.0047007 0 0.00247469
-2.71051e-20 -0.0003525 0.0046875 0.00013035
-2.58494e-26 0.004335 0.00184143 0.000178804
2.71051e-20 0.0046475 0.000892183 0.000784575
0 -0.0047275 0.000292358 0.00303263
-1.96117e-20 0.001835 0.004375 0.000108428
0 0.0008975 0.0046875 0.000117605
8.25788e-21 -0.001915 0.004375 0.000145215
-4.21283e-21 -0.004415 0.00184143 0.000230777
2.71051e-20 -0.0009775 0.0046875 0.000136501
0 -0.0047275 0.000892183 0.000887523
-2.71051e-20 0.0033975 0.00343582 9.98429e-05
0 0.00371 0.00312195 0.000103746
2.30747e-20 0.003085 0.00374969 9.97831e-05
0 -0.0034775 0.00343582 0.000160585
0 0.0046475 0.00152054 0.000221897
0 0.0040225 0.00280426 0.000107866
1.4445e-20 -0.003165 0.00374969 0.000156928
1.73763e-20 -0.00379 0.00312195 0.000166249
0 0.0027725 0.00406234 9.98751e-05
0 0.0015225 0.0046875 0.000111174
0 -0.0016025 0.0046875 0.000142252
-2.58494e-26 0.00496 1.87278e-10 0.00245536
2.71051e-20 -0.0028525 0.00406235 0.00015332
0 -0.0047275 0.00152054 0.000271667
-2.71051e-20 -0.0041025 0.00280426 0.000171854
0 0.00329094 0.00374969 9.80679e-05
0 0.00496 0.000584716 0.00162539
0 0.004335 0.00248657 0.000119839
4.07742e-21 -4e-05 0.005 0.000130352
-1.19273e-20 0.00246 0.004375 0.000102315
-5.92257e-21 0.000585 0.005 0.000124045
0 -0.00504 3.78226e-09 0.00304776
1.9383e-20 -0.000665 0.005 0.000136365
-7.04782e-21 -0.00254 0.004375 0.000150479
1.50231e-20 -0.004415 0.00248657 0.000182596
-1.23473e-20 -0.00504 0.000584717 0.00197863
0 0.00496 0.00119965 0.000503256
-5.42101e-20 0.0046475 0.002164 0.000132138
4.07742e-21 0.00121 0.005 0.000117538
2.71051e-20 0.0021475 0.0046875 0.000104854
2.9383e-20 -0.00129 0.005 0.000141979
0 0.00517206 0 0.00243893
5.2101e-21 -0.00504 0.00119965 0.000585045
-2.71051e-20 -0.0022275 0.0046875 0.000147757
0 -0.0047275 0.002164 0.000193176
0 0.00371 0.00374969 9.45775e-05
5.42101e-20 0.0052725 0.000292358 0.00243157
-2.71051e-20 0.0040225 0.00343582 9.49471e-05
0 0.00496 0.00184143 0.000175394
0 0.0033975 0.00406235 9.43367e-05
0 0.0002725 0.0053125 0.000130468
-2.71051e-20 -0.0003525 0.0053125 0.000136518
1.55516e-20 0.001835 0.005 0.000110981
-9.11772e-21 -0.00379 0.00374969 0.000161385
-1.61559e-27 0.004335 0.00312195 9.91909e-05
0 0.0052725 0.000892183 0.000779697
-2.71051e-20 -0.0034775 0.00406235 0.000157918
-2.71051e-20 -0.0041025 0.00343582 0.000164926
2.48063e-20 0.003085 0.004375 9.65087e-05
1.9383e-20 -0.001915 0.005 0.000147155
2.71051e-20 -0.0053525 0.000292358 0.00306289
-2.83891e-20 -0.00504 0.00184143 0.000234087
0 0.0008975 0.0053125 0.000124036
-7.65156e-21 -0.003165 0.004375 0.000155238
-2.71051e-20 -0.0009775 0.0053125 0.000142089
-1.16794e-20 -0.004415 0.00312195 0.000170348
2.71051e-20 -0.0053525 0.000892183 0.000897254
2.71051e-20 0.0046475 0.00280426 0.000103589
0 0.0027725 0.0046875 9.87707e-05
0 -0.0028525 0.0046875 0.000152681
0 0.0052725 0.00152054 0.000218798
-2.71051e-20 -0.0047275 0.00280426 0.000175786
2.71051e-20 0.0015225 0.0053125 0.000117337
1.29247e-26 0.00496 0.00248657 0.000115951
2.71051e-20 -0.0016025 0.0053125 0.000147074
0 -0.0053525 0.00152054 0.000274856
-6.62257e-21 0.00246 0.005 0.00010449
-5.16988e-26 0.005585 3.6468e-10 0.00240696
-2.58494e-26 0.005585 0.000283111 0.00201556
-5.92257e-21 -0.00254 0.005 0.000151864
-5.16988e-26 0.005585 0.000584716 0.0015986
8.59893e-22 -0.00504 0.00248657 0.000186193
-2.15959e-20 -4e-05 0.005625 0.000137215
-2.15959e-20 0.000585 0.005625 0.000131466
2.84041e-20 -0.000665 0.005625 0.000142451
0 -0.005665 3.56636e-09 0.00307744
5.16988e-26 0.00567058 0 0.00240007
3.34491e-21 -0.005665 0.000584718 0.00199851
-2.71051e-20 0.0052725 0.002164 0.000128582
0 0.005585 0.00119965 0.000499309
0 0.0040225 0.00406235 8.91907e-05
-1.02552e-29 0.00371 0.00436442 9.11391e-05
0 0.0021475 0.0053125 0.000110558
-2.01948e-28 0.004335 0.00374969 8.97715e-05
-1.57772e-30 0.00371 0.004375 9.10799e-05
-2.23594e-21 0.00121 0.005625 0.000125265
-2.71051e-20 -0.0022275 0.0053125 0.000151537
-1.09848e-20 -0.00129 0.005625 0.000147093
-2.71051e-20 -0.0053525 0.002164 0.000196505
2.71051e-20 -0.0041025 0.00406235 0.000162116
0 0.0046475 0.00343582 9.04149e-05
-7.04562e-21 -0.00379 0.004375 0.000159535
-5.42101e-20 0.0033975 0.0046875 9.30524e-05
-2.11243e-20 -0.005665 0.00119965 0.000591633
-1.06713e-21 -0.004415 0.00374969 0.000165427
-2.71051e-20 -0.0034775 0.0046875 0.000157034
0 -0.0047275 0.00343582 0.000168856
-1.61559e-27 0.00496 0.00312195 9.49749e-05
1.6028e-20 0.003085 0.005 9.82049e-05
0 0.005585 0.00184143 0.000172136
2.71051e-20 0.0058975 0.000292358 0.00238235
1.51458e-20 0.001835 0.005625 0.000118744
-1.0617e-20 -0.003165 0.005 0.00015608
1.40047e-20 -0.00504 0.00312195 0.000174099
-3.09848e-20 -0.001915 0.005625 0.000151214
5.42101e-20 0.0002725 0.0059375 0.000138445
5.42101e-20 -0.0003525 0.0059375 0.00014343
1.23464e-20 -0.005665 0.00184143 0.000237312
-2.71051e-20 0.0058975 0.000892183 0.000774903
0 0.0052725 0.00280426 9.96481e-05
0 -0.0059775 0.000292358 0.00309199
-2.71051e-20 0.0027725 0.0053125 0.000103775
-2.71051e-20 0.0008975 0.0059375 0.000132915
-2.71051e-20 -0.0009775 0.0059375 0.000147767
-2.71051e-20 -0.0028525 0.0053125 0.00015548
0 -0.0053525 0.00280426 0.000179395
-2.71051e-20 -0.0059775 0.000892183 0.000907358
0 0.0058975 0.00152054 0.000215807
0 0.005585 0.00248657 0.00011232
0 0.0015225 0.0059375 0.00012677
-3.44752e-20 0.00246 0.005625 0.000112035
-2.71051e-20 -0.0016025 0.0059375 0.000151442
-2.20881e-29 0.004335 0.00437009 8.61101e-05
-2.71051e-20 -0.0059775 0.00152054 0.000278087
1.84041e-20 -0.00254 0.005625 0.000154938
0 0.0046475 0.00406235 8.45409e-05
0 0.0040225 0.0046875 8.774e-05
-2.64154e-20 -0.005665 0.00248657 0.000189543
-4.1359e-25 0.00621 2.29851e-09 0.00235663
2.9562e-21 -0.004415 0.004375 0.000163418
0 0.00496 0.00374969 8.54016e-05
9.31606e-21 0.00371 0.005 9.2247e-05
2.71051e-20 -0.0041025 0.0046875 0.000161072
0 -0.0047275 0.00406235 0.000165812
5.16988e-26 0.00621 0.000584717 0.00157085
-1.71493e-20 -4e-05 0.00625 0.000144645
9.38296e-21 -0.00379 0.005 0.000159909
-3.24548e-20 0.000585 0.00625 0.000140051
7.70755e-21 -0.00504 0.00374969 0.000169079
-2.71051e-20 0.0058975 0.002164 0.000125192
1.28507e-20 -0.000665 0.00625 0.000148666
0 -0.00629 3.80663e-09 0.00310604
-2.71051e-20 0.0052725 0.00343582 8.63019e-05
-2.71051e-20 0.0033975 0.0053125 9.72213e-05
-2.71051e-20 0.0021475 0.0059375 0.000120312
8.95713e-21 -0.00629 0.000584718 0.00201802
0 0.00621 0.00119965 0.000495434
0 -0.0022275 0.0059375 0.000154802
0 -0.0034775 0.0053125 0.000159124
-2.71051e-20 -0.0059775 0.002164 0.000199658
2.71051e-20 -0.0053525 0.00343582 0.000172388
-7.40134e-21 0.00121 0.00625 0.000134785
2.8507e-21 -0.00129 0.00625 0.000152179
0 0.005585 0.00312195 9.11364e-05
-2.91296e-20 -0.00629 0.00119965 0.000598414
1.35337e-20 0.003085 0.005625 0.000105296
-5.67928e-21 -0.003165 0.005625 0.000158392
3.93398e-21 -0.005665 0.00312195 0.000177526
0 0.00621 0.00184143 0.000169031
-1.386e-20 0.001835 0.00625 0.000128932
-2.71051e-20 0.0065225 0.000292358 0.00233091
0 0.0058975 0.00280426 9.60098e-05
-7.1493e-21 -0.001915 0.00625 0.000155375
-5.42101e-20 0.0027725 0.0059375 0.000113496
2.77798e-21 -0.00629 0.00184143 0.000240449
-2.71051e-20 0.0002725 0.0065625 0.000146549
0 -0.0003525 0.0065625 0.000150157
2.71051e-20 0.0065225 0.000892183 0.00077007
-2.71051e-20 -0.0028525 0.0059375 0.000157931
-2.71051e-20 0.0046475 0.0046875 8.29505e-05
0 -0.0059775 0.00280426 0.000182703
-5.42101e-20 -0.0066025 0.000292358 0.00312009
9.46633e-30 0.00496 0.0043705 8.16222e-05
-3.38319e-20 0.004335 0.005 8.67555e-05
-2.71051e-20 0.0008975 0.0065625 0.000142295
0 0.00662526 0 0.00232165
0 -0.0009775 0.0065625 0.00015331
-5.42101e-20 0.0052725 0.00406235 8.03565e-05
0 -0.0047275 0.0046875 0.000164673
0 -0.0066025 0.000892183 0.000917822
-2.71051e-20 0.0040225 0.0053125 9.09743e-05
2.9383e-20 -0.004415 0.005 0.000163407
-7.04214e-21 -0.00504 0.004375 0.000166996
0 0.00621 0.00248657 0.000108937
-2.71051e-20 0.0065225 0.00152054 0.00021295
0 -0.0041025 0.0053125 0.000162406
-2.95607e-20 0.00246 0.00625 0.000122607
0 -0.0053525 0.00406235 0.000169262
2.63549e-21 0.005585 0.00374969 8.14993e-05
-2.71051e-20 0.0015225 0.0065625 0.000137161
-1.00101e-20 0.00371 0.005625 9.86872e-05
-1.24548e-20 -0.00254 0.00625 0.000158409
0 -0.0016025 0.0065625 0.000156196
1.97224e-22 -0.00629 0.00248657 0.000192657
-2.71051e-20 -0.0066025 0.00152054 0.000281311
-1.56793e-20 -0.00379 0.005625 0.000161661
3.34345e-20 -0.005665 0.00374969 0.000172445
0 0.0058975 0.00343582 8.26405e-05
0 0.006835 1.16091e-09 0.00230398
2.71051e-20 0.0033975 0.0059375 0.000106691
0 0.006835 0.000526117 0.00161826
2.58494e-26 0.006835 0.000584717 0.00154188
-2.71051e-20 0.0065225 0.002164 0.000122014
-3.97262e-20 -4e-05 0.006875 0.000151491
-2.71051e-20 -0.0034775 0.0059375 0.000161034
0 -0.0059775 0.00343582 0.000175646
9.66277e-21 0.000585 0.006875 0.00014818
5.42101e-20 0.0021475 0.0065625 0.000131484
-2.97262e-20 -0.000665 0.006875 0.000154432
0 -0.006915 4.03803e-09 0.00313337
-5.42101e-20 -0.0022275 0.0065625 0.00015906
-1.29247e-26 0.006835 0.00119965 0.000491573
-2.39882e-23 -0.006915 0.000584719 0.00203708
-2.71051e-20 -0.0066025 0.002164 0.000202595
-1.61446e-20 0.00621 0.00312195 8.76686e-05
2.19534e-20 0.003085 0.00625 0.000115946
6.13242e-21 0.00121 0.006875 0.000144285
-3.97262e-20 -0.00129 0.006875 0.000157186
2.28507e-20 -0.003165 0.00625 0.000161403
-5.6727e-21 -0.006915 0.00119965 0.000605382
-2.08783e-20 -0.00629 0.00312195 0.000180697
-1.34952e-20 0.00496 0.005 8.17959e-05
0 0.0052725 0.0046875 7.86235e-05
0 0.0046475 0.0053125 8.53571e-05
2.06795e-25 0.00706869 0 0.00228349
0 0.006835 0.00184143 0.000166092
1.26218e-29 0.005585 0.00436918 7.76472e-05
-2.0006e-20 -0.00504 0.005 0.000166696
2.71051e-20 0.0065225 0.00280426 9.26852e-05
-1.18213e-20 0.004335 0.005625 9.23495e-05
0 -0.0047275 0.0053125 0.000165478
-2.71051e-20 -0.0053525 0.0046875 0.000168236
-2.67469e-20 0.001835 0.006875 0.000139709
-2.71051e-20 0.0027725 0.0065625 0.000125135
-2.03372e-20 -0.001915 0.006875 0.000159893
-1.56793e-20 -0.004415 0.005625 0.000164755
0 0.0071475 0.000292358 0.00227706
0 -0.0028525 0.0065625 0.000161842
-2.39114e-20 -0.006915 0.00184143 0.000243497
3.23476e-20 -0.005665 0.004375 0.000170346
0 0.0058975 0.00406235 7.67062e-05
0 0.0040225 0.0059375 9.98618e-05
2.71051e-20 -0.0066025 0.00280426 0.000185758
0 0.0002725 0.0071875 0.000153356
5.42101e-20 -0.0003525 0.0071875 0.0001559
0 0.0071475 0.000892183 0.000765088
-2.71051e-20 -0.0041025 0.0059375 0.000164077
0 -0.0059775 0.00406235 0.000172488
2.71051e-20 -0.0072275 0.000292358 0.00314666
-5.42101e-20 0.0008975 0.0071875 0.000150519
0 -0.0009775 0.0071875 0.000158363
-1.00974e-28 0.00621 0.00374969 7.80616e-05
-3.28358e-20 0.00371 0.00625 0.000109145
0 0.006835 0.00248657 0.000105815
0 -0.0072275 0.000892183 0.000928647
-1.42118e-20 0.00246 0.006875 0.00013441
0 0.0071475 0.00152054 0.000210209
2.28507e-20 -0.00379 0.00625 0.000164451
3.47575e-21 -0.00629 0.00374969 0.000175593
2.90517e-20 -0.00254 0.006875 0.00016265
2.71051e-20 0.0015225 0.0071875 0.000147165
-3.40358e-20 -0.006915 0.00248657 0.000195567
0 -0.0016025 0.0071875 0.000160875
2.71051e-20 0.0065225 0.00343582 7.93937e-05
-2.71051e-20 -0.0072275 0.00152054 0.000284566
0 0.0033975 0.0065625 0.000118462
-2.71051e-20 -0.0034775 0.0065625 0.000164805
-2.71051e-20 -0.0066025 0.00343582 0.000178708
0 0.00746 1.94396e-09 0.00224917
-3.23117e-27 0.00736765 0.00119965 0.000488293
-2.71051e-20 0.0071475 0.002164 0.000119033
0 0.00746 0.000584717 0.00151177
0 0.0052725 0.0053125 8.02522e-05
3.27458e-20 0.005585 0.005 7.74072e-05
-5.23739e-21 0.00496 0.005625 8.64346e-05
-4.29909e-20 -4e-05 0.0075 0.000157168
0 0.0021475 0.0071875 0.000143025
-8.07794e-28 0.006835 0.00312195 8.45728e-05
-4.29909e-20 0.000585 0.0075 0.000154736
0 -0.0022275 0.0071875 0.000163441
2.23147e-20 -0.000665 0.0075 0.000159558
-2.71051e-20 0.0058975 0.0046875 7.48797e-05
-2.36459e-20 0.003085 0.006875 0.000128423
0 -0.00754 4.10809e-09 0.00315945
0 0.0046475 0.0059375 9.32046e-05
2.71051e-20 -0.0053525 0.0053125 0.000168398
-3.23117e-27 0.00746 0.00110516 0.000645085
2.71051e-20 -0.0072275 0.002164 0.000205374
-9.84813e-22 -0.00504 0.005625 0.000167794
-1.61559e-27 0.00746 0.00119965 0.000487724
-1.0617e-20 -0.005665 0.005 0.000169847
1.29326e-20 -0.00754 0.000584719 0.00205565
9.05172e-21 -0.003165 0.006875 0.000165571
-1.04621e-20 -0.006915 0.00312195 0.000183669
0 -0.0047275 0.0059375 0.000167059
1.26218e-29 0.00621 0.00436568 7.42327e-05
-2.71051e-20 -0.0059775 0.0046875 0.000171397
0 0.00621 0.004375 7.41747e-05
4.06175e-20 0.00121 0.0075 0.000152097
-3.17408e-21 0.004335 0.00625 0.000102318
-4.29909e-20 -0.00129 0.0075 0.000162035
-1.30743e-20 -0.00754 0.00119965 0.000612507
-1.71493e-20 -0.004415 0.00625 0.00016755
-1.29581e-20 -0.00629 0.004375 0.000173447
1.00974e-27 0.00744463 0.00184143 0.000163389
2.71051e-20 0.0071475 0.00280426 8.96815e-05
2.1215e-21 0.00746 0.00184143 0.000163321
-2.71051e-20 0.0065225 0.00406235 7.35137e-05
0 0.0040225 0.0065625 0.000111566
0 0.0027725 0.0071875 0.000137996
-2.70792e-21 0.001835 0.0075 0.000149038
2.71051e-20 -0.0028525 0.0071875 0.000166256
2.71051e-20 -0.0041025 0.0065625 0.000167886
2.01948e-28 0.00746 0.00206371 0.000142518
-4.29909e-20 -0.001915 0.0075 0.000164679
-5.42101e-20 -0.0066025 0.00406235 0.000175532
-2.71051e-20 -0.0072275 0.00280426 0.000188629
1.48364e-20 -0.00754 0.00184143 0.000246469
2.71051e-20 0.0077725 0.000292358 0.00222128
5.04871e-29 0.006835 0.00374969 7.50754e-05
-2.93413e-22 0.00371 0.006875 0.000121944
-2.71051e-20 0.0002725 0.0078125 0.000158606
-2.71051e-20 -0.0003525 0.0078125 0.00016081
-2.71051e-20 0.0077725 0.000892183 0.000760032
1.90517e-20 -0.00379 0.006875 0.000168739
2.71051e-20 -0.0078525 0.000292358 0.00317225
0 0.00746 0.00248657 0.000102944
0 0.0008975 0.0078125 0.000156461
1.00273e-20 -0.006915 0.00374969 0.00017857
-2.71051e-20 -0.0009775 0.0078125 0.00016316
-6.46235e-27 0.00786457 0.000584717 0.00149168
4.18261e-21 0.00246 0.0075 0.000145346
-2.71051e-20 -0.0078525 0.000892183 0.000939719
-4.29909e-20 -0.00254 0.0075 0.000167588
2.71051e-20 0.0077725 0.00152054 0.000207628
1.55446e-20 0.005585 0.005625 8.10794e-05
0 0.0071475 0.00343582 7.65847e-05
0 0.0058975 0.0053125 7.58734e-05
1.97209e-20 -0.00754 0.00248657 0.00019831
2.71051e-20 0.0052725 0.0059375 8.69243e-05
2.71051e-20 0.0033975 0.0071875 0.000132099
2.71051e-20 0.0015225 0.0078125 0.000154244
-2.39661e-20 0.00621 0.005 7.36026e-05
-2.71051e-20 -0.0016025 0.0078125 0.000165743
-2.01948e-28 0.00757916 0.00248657 0.000102444
4.35148e-21 0.00496 0.00625 9.56378e-05
-1.15959e-20 -0.005665 0.005625 0.000170897
0 -0.0034775 0.0071875 0.000169379
0 -0.0053525 0.0059375 0.000170241
2.71051e-20 -0.0059775 0.0053125 0.000171357
0 -0.0078525 0.00152054 0.000287804
2.71051e-20 -0.0072275 0.00343582 0.000181608
-1.24548e-20 -0.00504 0.00625 0.000170806
-5.42101e-20 0.0065225 0.0046875 7.15997e-05
-1.65336e-20 -0.00629 0.005 0.000172913
2.71051e-20 0.0046475 0.0065625 0.000104641
-2.71051e-20 0.0077725 0.002164 0.000116247
2.06795e-25 0.008085 1.44444e-09 0.00219269
0 0.00746 0.00312195 8.1838e-05
-2.71051e-20 -0.0047275 0.0065625 0.000171176
0 -0.0066025 0.0046875 0.000174371
-5.42101e-20 0.0021475 0.0078125 0.000151718
-5.81611e-26 0.008085 0.000570109 0.00149852
-7.88861e-30 0.006835 0.0043569 7.13047e-05
-6.35245e-21 0.008085 0.000584717 0.00148074
-1.39314e-20 0.003085 0.0075 0.000140885
3.63518e-22 0.006835 0.004375 7.11923e-05
-2.71051e-20 -0.0022275 0.0078125 0.000168655
-1.52159e-20 -4e-05 0.008125 0.000162212
-1.082e-20 0.004335 0.006875 0.000115143
-4.29909e-20 -0.003165 0.0075 0.000170847
0 -0.0078525 0.002164 0.000207987
-1.52159e-20 0.000585 0.008125 0.000159975
-1.52159e-20 -0.000665 0.008125 0.000164654
-2.08793e-21 -0.00754 0.00312195 0.000186486
0 -0.008165 4.21754e-09 0.00318459
-2.03372e-20 -0.004415 0.006875 0.000172171
4.78938e-22 0.008085 0.00119965 0.000483874
-2.9591e-21 -0.006915 0.004375 0.000176408
2.11779e-21 -0.008165 0.000584719 0.0020739
-9.96534e-22 0.00121 0.008125 0.000157835
2.71051e-20 0.0071475 0.00406235 7.08172e-05
-1.52159e-20 -0.00129 0.008125 0.000167383
0 0.0040225 0.0071875 0.00012565
-1.66199e-20 -0.008165 0.00119965 0.000619788
-2.71051e-20 0.0077725 0.00280426 8.6969e-05
0 0.00765391 0.00312195 8.10935e-05
2.71051e-20 -0.0041025 0.0071875 0.000172885
-2.71051e-20 0.0027725 0.0078125 0.000148646
-2.71051e-20 -0.0072275 0.00406235 0.000178436
3.22763e-20 0.008085 0.00184143 0.000160724
2.71051e-20 -0.0028525 0.0078125 0.000171999
4.64997e-21 0.001835 0.008125 0.00015566
0 -0.0078525 0.00280426 0.000191336
-1.52159e-20 -0.001915 0.008125 0.000170471
0 0.00746 0.00374969 7.25305e-05
2.17313e-20 0.00371 0.0075 0.000135616
5.42101e-20 0.0058975 0.0059375 8.12678e-05
-2.76216e-20 -0.008165 0.00184143 0.000249374
1.03398e-25 0.00837318 0 0.0021662
2.26337e-20 0.00621 0.005625 7.64039e-05
6.82221e-21 0.005585 0.00625 8.9261e-05
0 0.0083975 0.000292359 0.00216411
-4.29909e-20 -0.00379 0.0075 0.000174502
2.71051e-20 0.0065225 0.0053125 7.20575e-05
-2.71051e-20 0.0052725 0.0065625 9.7781e-05
8.02302e-21 -0.00754 0.00374969 0.000181435
5.42101e-20 -0.0059775 0.0059375 0.000173591
-2.45484e-21 -0.005665 0.00625 0.000174308
-1.69014e-20 -0.00629 0.005625 0.000174202
0 0.0002725 0.0084375 0.000163506
0 0.0083975 0.000892183 0.00075474
0 -0.0003525 0.0084375 0.000165925
6.76795e-21 0.008085 0.00248657 0.000100318
0 -0.0053525 0.0065625 0.000174747
-4.00935e-20 0.006835 0.005 7.03366e-05
0 -0.0066025 0.0053125 0.000174527
1.3803e-20 0.00496 0.006875 0.000108216
2.71051e-20 -0.0084775 0.000292359 0.00319693
0 0.0008975 0.0084375 0.000161327
3.39557e-20 0.00246 0.008125 0.000153275
-2.71051e-20 -0.0009775 0.0084375 0.000168719
0 0.0077725 0.00343582 7.41697e-05
-1.52159e-20 -0.00254 0.008125 0.000173975
-2.71051e-20 0.0033975 0.0078125 0.000144797
6.31089e-30 0.00765087 0.00374969 7.18788e-05
-2.71051e-20 -0.0084775 0.000892183 0.000951156
-1.03372e-20 -0.00504 0.006875 0.000175904
-1.59226e-20 -0.006915 0.005 0.000175999
-2.71051e-20 0.0083975 0.00152054 0.000205194
-1.5719e-20 -0.008165 0.00248657 0.000200921
0 0.0071475 0.0046875 6.88389e-05
-2.71051e-20 -0.0034775 0.0078125 0.000175752
2.71051e-20 0.0046475 0.0071875 0.000118715
-5.42101e-20 -0.0078525 0.00343582 0.000184398
-2.71051e-20 0.0015225 0.0084375 0.000159308
-2.71051e-20 -0.0016025 0.0084375 0.000171908
0 -0.0047275 0.0071875 0.000176734
3.15544e-30 0.00746 0.0042907 6.91914e-05
2.71051e-20 -0.0084775 0.00152054 0.000291064
-2.71051e-20 -0.0072275 0.0046875 0.000177293
0 0.00746 0.004375 6.86711e-05
-3.69088e-21 0.004335 0.0075 0.000129565
2.01948e-28 0.008085 0.00312195 7.94385e-05
-2.71051e-20 0.0083975 0.002164 0.000113662
-1.85227e-20 0.003085 0.008125 0.000150476
2.23147e-20 -0.004415 0.0075 0.000178554
2.71051e-20 0.0021475 0.0084375 0.000157369
-2.06795e-25 0.00871 1.68827e-09 0.00213523
2.95648e-21 -0.00754 0.004375 0.000179326
-1.52159e-20 -0.003165 0.008125 0.000177903
-2.71051e-20 -0.0022275 0.0084375 0.000175576
3.60752e-21 0.00871 0.000584717 0.00144913
-1.02306e-20 -0.008165 0.00312195 0.0001892
0 -0.0084775 0.002164 0.000210493
4.20678e-20 -4e-05 0.00875 0.000167742
3.28992e-21 0.000585 0.00875 0.000165125
-2.71051e-20 0.0077725 0.00406234 6.85579e-05
4.20678e-20 -0.000665 0.00875 0.00017072
-2.71051e-20 0.0040225 0.0078125 0.000139917
0 -0.00879 4.32624e-09 0.00320908
2.39247e-20 0.00871 0.00119965 0.000480022
1.51192e-20 -0.00879 0.000584719 0.002092
-1.05814e-20 0.00621 0.00625 8.34122e-05
0 0.0065225 0.0059375 7.64168e-05
0 0.0058975 0.0065625 9.10709e-05
0 -0.0041025 0.0078125 0.000179989
1.75093e-20 0.00121 0.00875 0.00016279
0 -0.0078525 0.00406235 0.000181303
3.28992e-21 -0.00129 0.00875 0.000174104
-2.13266e-20 0.006835 0.005625 7.23559e-05
0 0.0083975 0.00280426 8.45453e-05
3.79006e-20 0.005585 0.006875 0.000101289
7.54516e-21 -0.00629 0.00625 0.000178128
-9.70572e-21 -0.00879 0.00119965 0.000627246
0 -0.0059775 0.0065625 0.000178651
2.71051e-20 -0.0066025 0.0059375 0.000177332
-2.71051e-20 0.0027725 0.0084375 0.000155366
-2.52176e-20 0.00871 0.00184143 0.000158307
0 0.0071475 0.0053125 6.88504e-05
-2.71051e-20 -0.0028525 0.0084375 0.000179671
9.66278e-21 -0.005665 0.006875 0.00017998
4.12769e-21 0.008085 0.00374969 7.03964e-05
-3.09848e-20 -0.006915 0.005625 0.000177741
-2.71051e-20 0.0052725 0.0071875 0.000111727
0 -0.0084775 0.00280426 0.000193956
-2.42272e-20 0.00371 0.008125 0.000147047
-1.15386e-20 0.001835 0.00875 0.00016066
4.20678e-20 -0.001915 0.00875 0.000177921
0 -0.0053525 0.0071875 0.000180956
-1.92994e-20 -0.00379 0.008125 0.000182262
0 -0.0072275 0.0053125 0.000177803
3.87741e-26 0.0089555 0.000584717 0.00143648
-2.8787e-21 0.00746 0.005 6.7587e-05
1.89053e-20 -0.00879 0.00184143 0.000252229
2.02697e-21 -0.008165 0.00374969 0.000184258
-2.52737e-21 0.00496 0.0075 0.000122991
-6.46235e-27 0.0089216 0.00119965 0.000478706
2.71051e-20 0.0090225 0.000292359 0.00210636
2.23147e-20 -0.00504 0.0075 0.000182973
2.9383e-20 -0.00754 0.005 0.000179161
9.90624e-21 0.00871 0.00248657 9.79259e-05
2.71051e-20 0.0090225 0.000892183 0.000749344
-5.42101e-20 0.0002725 0.0090625 0.000169201
-2.71051e-20 -0.0003525 0.0090625 0.000172336
0 0.0083975 0.00343582 7.21214e-05
-2.71051e-20 0.0077725 0.0046875 6.64707e-05
-2.91776e-20 0.00246 0.00875 0.000158636
0 0.0046475 0.0078125 0.000133979
2.71051e-20 0.0033975 0.0084375 0.000153095
-2.71051e-20 0.0008975 0.0090625 0.000166464
2.71051e-20 -0.0091025 0.000292359 0.00322122
4.20678e-20 -0.00254 0.00875 0.000182165
2.71051e-20 -0.0009775 0.0090625 0.000175898
0 -0.0034775 0.0084375 0.00018419
-2.71051e-20 -0.0047275 0.0078125 0.000184608
4.35819e-21 -0.00879 0.00248657 0.000203438
2.71051e-20 -0.0078525 0.0046875 0.000180269
0 -0.0091025 0.000892183 0.000962923