# k  POINT_DATA 35434
# x  y  z  k
-5.56355e-09 0 0 0.00277438
3.99943e-05 0 0 0.00277262
-4.00052e-05 0 0 0.00277617
3.99946e-05 -6.77626e-21 3.74217e-05 0.00277262
-4.00052e-05 -6.77626e-21 3.74218e-05 0.00277617
0.000312496 0 0.000292358 0.00276197
-0.000312503 2.71051e-20 0.000292358 0.00278682
0.000584999 -6.77626e-21 0 0.00273063
-0.000585007 0 0 0.0027864
-2.45735e-09 3.38813e-21 0.000585361 0.00180746
0.000584999 -6.77626e-21 3.74188e-05 0.00273063
-0.000585007 6.77626e-21 3.74188e-05 0.0027864
0.000624996 0 0 0.00272561
-0.000625004 6.77626e-21 0 0.00278649
0.000664993 0 0 0.00272073
-0.000665 0 0 0.00278661
0.000664993 -6.77626e-21 3.74188e-05 0.00272073
-0.000665 -6.77626e-21 3.74188e-05 0.00278661
0.000624998 -2.25875e-21 0.000585361 0.00179336
-0.000625002 -3.38813e-21 0.000585362 0.00180714
0.000312498 0 0.000892183 0.000835433
-0.000312502 -2.71051e-20 0.000892183 0.000818136
0.000937499 0 0.000292358 0.00268939
-0.000937502 0 0.000292359 0.00278619
-9.85258e-10 2.25875e-21 0.00120022 0.000538705
-0.00121 -6.77626e-21 0 0.00276751
0.00121 0 0 0.00262323
-0.00121 0 3.74213e-05 0.00276751
0.00121 0 3.7419e-05 0.00262323
-0.00125 6.77626e-21 0 0.00276501
0.00125 -6.77626e-21 0 0.00261291
0.00129 0 0 0.00260274
-0.00129 -6.77626e-21 0 0.00276256
0.00129 -6.77626e-21 3.74191e-05 0.00260274
-0.00129 0 3.74212e-05 0.00276256
0.000937499 0 0.000892183 0.000860139
-0.000937501 0 0.000892184 0.000809562
0.000624999 -3.38813e-21 0.00120022 0.000544079
-0.000625001 2.25875e-21 0.00120022 0.000537032
0.00125 0 0.000585361 0.00175076
-0.00125 0 0.000585362 0.00179341
0.000312499 0 0.00152054 0.000241746
-0.000312501 0 0.00152054 0.000252118
-0.0015625 2.71051e-20 0.000292358 0.00274388
0.0015625 2.71051e-20 0.000292358 0.00253658
0.00125 0 0.00120022 0.000554268
-0.00125 1.12938e-21 0.00120022 0.00053848
0.0009375 -2.71051e-20 0.00152054 0.000231209
-0.0009375 -2.71051e-20 0.00152054 0.000261209
0.0015625 -2.71051e-20 0.000892183 0.000892426
-0.0015625 -2.71051e-20 0.000892183 0.000806405
0.001835 0 0 0.00243714
-0.001835 0 0 0.00271668
0.001835 0 3.74194e-05 0.00243714
-0.001835 0 3.74183e-05 0.00271668
-3.43611e-10 1.12938e-21 0.0018415 0.000204961
0.001875 -6.77626e-21 0 0.00242218
-0.001875 -6.77626e-21 0 0.00271273
-0.001915 0 0 0.0027088
0.001915 6.77626e-21 0 0.00240725
-0.001915 0 3.74182e-05 0.0027088
0.001915 0 3.74195e-05 0.00240725
0.000625 2.25875e-21 0.0018415 0.00018987
-0.000625 0 0.0018415 0.000219186
-0.001875 -1.12938e-21 0.000585361 0.00176626
0.001875 3.38813e-21 0.000585362 0.00166842
-0.0015625 0 0.00152054 0.000269829
0.0015625 -2.71051e-20 0.00152054 0.000225042
0.0003125 0 0.002164 0.000152793
-0.0003125 0 0.002164 0.000173052
-0.0021875 -2.71051e-20 0.000292358 0.0026816
0.0021875 2.71051e-20 0.000292358 0.00230781
0.00125 2.25875e-21 0.0018415 0.000177317
-0.00125 -1.12938e-21 0.0018415 0.000230794
-0.001875 0 0.00120022 0.000541553
0.001875 1.12938e-21 0.00120022 0.000566617
0.0009375 -2.71051e-20 0.002164 0.000133579
-0.0009375 -2.71051e-20 0.002164 0.000190245
-0.0021875 2.71051e-20 0.000892183 0.000806242
0.0021875 -2.71051e-20 0.000892183 0.000915388
0.00246 0 0 0.00218587
-0.00246 0 0 0.00265303
0.00246 6.77626e-21 3.74197e-05 0.00218587
-0.00246 0 3.74185e-05 0.00265303
-9.00686e-11 -1.12938e-21 0.00248636 0.000151525
0.0025 -6.77626e-21 0 0.00216784
-0.0025 -6.77626e-21 0 0.00264887
-0.00254 6.77626e-21 0 0.00264471
0.00254 6.77626e-21 0 0.00214979
-0.00254 0 3.74185e-05 0.00264471
0.00254 6.77626e-21 3.74198e-05 0.00214979
0.000625 1.12938e-21 0.00248636 0.000129414
-0.000625 -2.25875e-21 0.00248636 0.000172425
-0.0025 -1.12938e-21 0.000585361 0.00173536
0.0025 -1.12938e-21 0.000585362 0.00155215
0.001875 2.25875e-21 0.0018415 0.000169829
-0.001875 0 0.0018415 0.000239578
-0.0021875 -5.42101e-20 0.00152054 0.000276942
0.0021875 2.71051e-20 0.00152054 0.000224965
0.0015625 -2.71051e-20 0.002164 0.000119274
-0.0015625 0 0.002164 0.000201785
-0.0025 -1.12938e-21 0.00120022 0.000546401
0.0025 2.25875e-21 0.00120022 0.000579178
0.00125 1.12938e-21 0.00248636 0.000111321
-0.00125 -1.12938e-21 0.00248636 0.000187751
0.0003125 2.71051e-20 0.00280426 0.000127367
-0.0003125 -2.71051e-20 0.00280426 0.000152993
0.0028125 5.42101e-20 0.000292359 0.00202785
-0.0028125 0 0.000292358 0.00261614
-0.0028125 -2.71051e-20 0.000892183 0.00081148
0.0028125 -2.71051e-20 0.000892183 0.000939983
0.0009375 2.71051e-20 0.00280426 0.000104041
-0.0009375 5.42101e-20 0.00280426 0.000173498
0.0021875 2.71051e-20 0.002164 0.000109857
-0.0021875 -2.71051e-20 0.002164 0.000209649
0.00308499 6.77626e-21 0 0.00188746
-0.003085 6.77626e-21 0 0.00258871
0.00308499 0 3.742e-05 0.00188746
-0.003085 0 3.74183e-05 0.00258871
0.0025 0 0.0018415 0.000166526
-0.0025 1.12938e-21 0.0018415 0.000247263
0.001875 0 0.00248636 9.94409e-05
-0.001875 0 0.00248636 0.000197858
-1.56899e-11 0 0.00312179 0.000135492
0.00312499 0 0 0.00186663
-0.003125 0 0 0.00258468
0.00316499 0 2.93547e-122 0.00184577
-0.003165 0 0 0.00258066
0.00316499 -6.77626e-21 3.74198e-05 0.00184577
-0.003165 0 3.74183e-05 0.00258066
0.003125 -1.12938e-21 0.000585361 0.00141624
-0.003125 -1.12938e-21 0.000585362 0.00170722
0.000625 -1.12938e-21 0.00312179 0.000109523
-0.000625 -1.12938e-21 0.00312179 0.00015961
-0.0028125 0 0.00152054 0.000284204
0.0028125 0 0.00152054 0.000227432
0.0015625 5.42101e-20 0.00280426 8.85269e-05
-0.0015625 2.71051e-20 0.00280426 0.000185555
-0.003125 -4.51751e-21 0.00120022 0.000554748
0.003125 2.25875e-21 0.00120022 0.000597581
0.00125 -2.25875e-21 0.00312179 8.96326e-05
-0.00125 -1.12938e-21 0.00312179 0.000175942
0.0034375 -2.71051e-20 0.000292357 0.00170536
-0.0034375 0 0.000292358 0.00255322
0.0003125 -2.71051e-20 0.00343582 0.000116223
-0.0003125 -2.71051e-20 0.00343582 0.00014542
0.0025 0 0.00248636 9.25617e-05
-0.0025 1.12938e-21 0.00248636 0.000206975
0.0028125 0 0.002164 0.000103658
-0.0028125 5.42101e-20 0.002164 0.000218147
0.0034375 -2.71051e-20 0.000892183 0.000978919
-0.0034375 -2.71051e-20 0.000892184 0.000823115
0.0021875 2.71051e-20 0.00280426 8.0244e-05
-0.0021875 0 0.00280426 0.000194518
0.0009375 5.42101e-20 0.00343582 9.05029e-05
-0.0009375 2.71051e-20 0.00343582 0.000166561
0.003125 1.12938e-21 0.0018415 0.000166802
-0.003125 0 0.0018415 0.000256083
0.001875 -1.12938e-21 0.00312179 7.85345e-05
-0.001875 0 0.00312179 0.000186712
0.00371 0 3.16387e-122 0.00156138
-0.00371001 -6.77626e-21 0 0.00252781
0.00371 6.77626e-21 3.742e-05 0.00156139
-0.00371001 6.77626e-21 3.74169e-05 0.00252781
-1.31672e-12 0 0.00374964 0.000129077
-0.00375 -6.77626e-21 0 0.00252407
0.00375 0 6.09936e-122 0.00154059
-0.0034375 0 0.00152054 0.000293453
0.0034375 2.71051e-20 0.00152054 0.000234713
0.0015625 -5.42101e-20 0.00343582 7.55014e-05
-0.0015625 0 0.00343582 0.000178184
-0.00378999 0 0 0.00252033
0.00379 -6.77626e-21 9.24352e-111 0.00151966
-0.00378999 0 3.74166e-05 0.00252033
0.00379 0 3.74202e-05 0.00151966
-0.00375 -2.25875e-21 0.000585362 0.00168358
0.00375 2.25875e-21 0.000585361 0.00126368
0.000625 -1.12938e-21 0.00374964 0.000100702
-0.000625 0 0.00374964 0.000154649
-0.00375 3.38813e-21 0.00120022 0.000566724
0.00375 1.12938e-21 0.00120022 0.000615221
0.00125 -1.12938e-21 0.00374964 8.01343e-05
-0.00125 0 0.00374964 0.000170743
0.0028125 -5.42101e-20 0.00280426 7.66188e-05
-0.0028125 0 0.00280426 0.000205649
0.003125 -1.12938e-21 0.00248636 8.90662e-05
-0.003125 0 0.00248636 0.000217656
0.0025 0 0.00312179 7.37764e-05
-0.0025 -1.12938e-21 0.00312179 0.000197696
-0.0034375 0 0.002164 0.00022842
0.0034375 2.71051e-20 0.002164 0.000101195
-0.0040625 2.71051e-20 0.000292359 0.00249492
0.0040625 -2.71051e-20 0.000292358 0.00137568
0.0021875 2.71051e-20 0.00343582 6.99042e-05
-0.0021875 0 0.00343582 0.000188615
0.0003125 0 0.00406234 0.000111607
-0.0003125 0 0.00406235 0.000143064
-0.00406249 2.71051e-20 0.000892184 0.000839193
0.0040625 -2.71051e-20 0.000892183 0.000986817
0.0009375 2.71051e-20 0.00406235 8.44749e-05
-0.0009375 2.71051e-20 0.00406235 0.000163563
-0.00375 -2.25875e-21 0.0018415 0.000266422
0.00375 1.12938e-21 0.0018415 0.0001722
0.001875 0 0.00374964 7.02934e-05
-0.001875 -1.12938e-21 0.00374964 0.000182043
0.004335 6.77626e-21 -5.10571e-110 0.00123183
-0.004335 0 0 0.00247163
0.004335 0 3.74235e-05 0.00123183
-0.004335 0 3.74137e-05 0.00247163
-0.0040625 2.71051e-20 0.00152054 0.000304344
0.0040625 2.71051e-20 0.00152054 0.000251009
-0.0015625 0 0.00406234 0.00017467
0.0015625 2.71051e-20 0.00406235 7.00567e-05
-0.00437499 0 0 0.00246822
-1.854e-14 -1.12938e-21 0.00437499 0.000127071
0.004375 6.77626e-21 -4.18127e-110 0.00121036
-0.00437499 2.25875e-21 0.000585364 0.00166418
0.004375 0 0.000585361 0.001095
-0.00441498 -6.77626e-21 0 0.00246479
0.004415 0 5.70596e-102 0.00118894
-0.00441498 -6.77626e-21 3.74136e-05 0.00246479
0.004415 -6.77626e-21 3.74236e-05 0.00118894
0.003125 -1.12938e-21 0.00312179 7.18864e-05
-0.003125 -1.12938e-21 0.00312179 0.000210673
0.000625 0 0.00437499 9.74681e-05
-0.000625 -1.12938e-21 0.00437499 0.000152917
0.0034375 0 0.00280426 7.4917e-05
-0.0034375 0 0.00280426 0.000218456
0.0028125 -5.42101e-20 0.00343582 6.8371e-05
-0.0028125 5.42101e-20 0.00343582 0.000202017
0.00375 -2.25875e-21 0.00248636 8.76076e-05
-0.00375 0 0.00248636 0.000229403
0.0025 0 0.00374964 6.7212e-05
-0.0025 -2.25875e-21 0.00374964 0.000194692
-0.00437499 -3.38813e-21 0.00120022 0.000581169
0.004375 1.12938e-21 0.00120022 0.000626594
0.00125 -1.12938e-21 0.00437499 7.63996e-05
-0.00125 -1.12938e-21 0.00437499 0.000168538
0.0040625 2.71051e-20 0.002164 0.000101651
-0.0040625 -2.71051e-20 0.002164 0.000239365
0.0021875 0 0.00406235 6.57119e-05
-0.0021875 5.42101e-20 0.00406235 0.000186703
-0.00468748 0 0.00029236 0.0024415
0.0046875 -2.71051e-20 0.000292358 0.00104509
0.0003125 0 0.0046875 0.000110982
-0.0003125 2.71051e-20 0.0046875 0.000142636
-0.004375 3.38813e-21 0.0018415 0.000277493
0.004375 0 0.0018415 0.000187277
0.001875 -2.25875e-21 0.00437499 6.66759e-05
-0.001875 -3.38813e-21 0.00437499 0.000180395
-0.00468748 0 0.000892187 0.000858276
0.0046875 5.42101e-20 0.000892183 0.000969103
0.0009375 -5.42101e-20 0.0046875 8.28029e-05
-0.0009375 -2.71051e-20 0.0046875 0.000162413
-0.0034375 2.71051e-20 0.00343582 0.00021658
0.0034375 0 0.00343582 6.76668e-05
0.00375 -2.25875e-21 0.00312179 7.0502e-05
-0.00375 1.12938e-21 0.00312179 0.000224311
0.003125 -1.12938e-21 0.00374964 6.6084e-05
-0.003125 -1.12938e-21 0.00374964 0.000209424
-0.00468749 2.71051e-20 0.00152054 0.00031599
0.0046875 2.71051e-20 0.00152054 0.000290423
0.0040625 -2.71051e-20 0.00280426 7.27944e-05
-0.0040625 5.42101e-20 0.00280426 0.000231413
0.0028125 0 0.00406234 6.48643e-05
-0.0028125 0 0.00406235 0.000201431
-0.0015625 -2.71051e-20 0.0046875 0.000173511
0.0015625 0 0.0046875 6.8256e-05
-0.00495999 6.77626e-21 0 0.00242073
0.00496 0 8.03005e-101 0.000876682
-0.00495999 0 3.74087e-05 0.00242073
0.00496 6.77626e-21 3.7421e-05 0.000876682
-0.00499997 -6.77626e-21 0 0.00241768
-6.83803e-15 -1.12938e-21 0.005 0.000129956
0.005 0 8.6006e-101 0.000852362
-0.004375 3.38813e-21 0.00248636 0.000241178
0.004375 -1.12938e-21 0.00248636 8.80217e-05
-0.00499996 0 0.000585368 0.0016488
0.005 0 0.000585362 0.000895987
0.0025 -1.12938e-21 0.00437499 6.31593e-05
-0.0025 -2.25875e-21 0.00437499 0.000194699
0.000625 0 0.005 9.92772e-05
-0.000625 -1.12938e-21 0.005 0.000153709
-0.00503995 0 0 0.00241461
0.00504 6.77626e-21 2.10796e-94 0.000827768
-0.00503995 6.77626e-21 3.74082e-05 0.00241461
0.00504 0 3.7421e-05 0.000827768
-0.00499997 0 0.00120022 0.000597277
0.005 0 0.00120022 0.000632445
0.00125 -2.25875e-21 0.005 7.59919e-05
-0.00125 -1.12938e-21 0.005 0.000167965
-0.0046875 2.71051e-20 0.002164 0.000250166
0.0046875 0 0.002164 0.000105749
-0.0021875 5.42101e-20 0.0046875 0.000186695
0.0021875 5.42101e-20 0.0046875 6.26745e-05
0.00375 -1.12938e-21 0.00374964 6.45721e-05
-0.00375 0 0.00374964 0.000224983
-0.00531242 0 0.000292364 0.00239384
0.0053125 -2.71051e-20 0.000292358 0.000659363
-0.0040625 2.71051e-20 0.00343582 0.000230798
0.0040625 0 0.00343582 6.66542e-05
-0.0034375 2.71051e-20 0.00406235 0.000217666
0.0034375 5.42101e-20 0.00406235 6.34391e-05
0.0003125 2.71051e-20 0.0053125 0.000118427
-0.0003125 2.71051e-20 0.0053125 0.000147785
-0.00499999 1.12938e-21 0.0018415 0.000288735
0.005 0 0.0018415 0.000216252
0.001875 -4.51751e-21 0.005 6.50069e-05
-0.001875 -3.38813e-21 0.005 0.000181147
0.004375 -1.12938e-21 0.00312179 6.8935e-05
-0.004375 1.12938e-21 0.00312179 0.000237699
0.003125 -1.12938e-21 0.00437499 6.04844e-05
-0.003125 -1.12938e-21 0.00437499 0.000211649
-0.00531243 2.71051e-20 0.000892195 0.000879745
0.0053125 -5.42101e-20 0.000892183 0.00091157
-0.0009375 -5.42101e-20 0.0053125 0.000162009
0.0009375 0 0.0053125 8.48912e-05
-0.0046875 0 0.00280426 0.000243802
0.0046875 -2.71051e-20 0.00280426 7.20353e-05
0.0028125 -2.71051e-20 0.0046875 5.93869e-05
-0.0028125 2.71051e-20 0.0046875 0.000203964
-0.00531247 2.71051e-20 0.00152055 0.000328109
0.0053125 -2.71051e-20 0.00152054 0.000350778
-0.0015625 2.71051e-20 0.0053125 0.000173925
0.0015625 -2.71051e-20 0.0053125 6.80086e-05
-0.005 0 0.00248636 0.000252404
0.005 1.12938e-21 0.00248636 9.20737e-05
-0.00558491 0 0 0.00237482
0.005585 -6.77626e-21 1.70338e-94 0.000561048
-0.00558491 0 3.73999e-05 0.00237482
0.005585 0 3.74242e-05 0.000561048
0.0025 -2.25875e-21 0.005 5.94307e-05
-0.0025 -3.38813e-21 0.005 0.00019802
-0.00562488 -6.77626e-21 0 0.00237204
-7.8565e-15 0 0.005625 0.00013686
0.005625 0 3.81154e-94 0.000548392
-0.00562487 3.38813e-21 0.000585377 0.00163687
0.005625 0 0.000585362 0.000696395
0.000625 0 0.005625 0.000106526
-0.000625 0 0.005625 0.00015601
-0.00566484 0 0 0.00236921
-0.00566484 0 3.73999e-05 0.00236921
0.005665 -6.77626e-21 -1.77716e-88 0.000535167
0.005665 -6.77626e-21 3.74243e-05 0.000535167
-0.00531249 2.71051e-20 0.002164 0.000260567
0.0053125 0 0.002164 0.000117715
0.0040625 -5.42101e-20 0.00406235 6.05347e-05
-0.0040625 -5.42101e-20 0.00406234 0.000234885
0.0021875 -2.71051e-20 0.0053125 6.10835e-05
-0.0021875 -2.71051e-20 0.0053125 0.000190454
-0.00562493 -4.51751e-21 0.00120023 0.000614533
0.005625 2.25875e-21 0.00120022 0.000619037
0.004375 0 0.00374964 6.21667e-05
-0.004375 0 0.00374964 0.000240623
0.00375 -1.12938e-21 0.00437499 5.66306e-05
-0.00375 -2.25875e-21 0.00437499 0.000229788
0.00125 -2.25875e-21 0.005625 7.89999e-05
-0.00125 0 0.005625 0.000169181
0.0046875 2.71051e-20 0.00343582 6.42809e-05
-0.0046875 2.71051e-20 0.00343582 0.000244781
0.0034375 2.71051e-20 0.0046875 5.42503e-05
-0.0034375 5.42101e-20 0.0046875 0.000223531
-0.005 1.12938e-21 0.00312179 0.000250571
0.005 1.12938e-21 0.00312179 6.79012e-05
0.003125 0 0.005 5.39313e-05
-0.003125 -2.25875e-21 0.005 0.000217654
-0.00562497 2.25875e-21 0.00184151 0.000299888
0.005625 0 0.0018415 0.000260483
0.001875 -3.38813e-21 0.005625 6.50397e-05
-0.001875 -1.12938e-21 0.005625 0.000184948
-0.00593726 0 0.000292374 0.00235019
0.0059375 -2.71051e-20 0.000292358 0.000436852
0.0003125 0 0.0059375 0.000129873
-0.0003125 2.71051e-20 0.0059375 0.000151364
-0.00593732 2.71051e-20 0.000892214 0.000902764
0.0059375 2.71051e-20 0.000892183 0.000781923
-0.0053125 2.71051e-20 0.00280426 0.00025511
0.0053125 0 0.00280426 7.29726e-05
0.0028125 2.71051e-20 0.0053125 5.45779e-05
-0.0009375 -5.42101e-20 0.0059375 0.000162883
-0.0028125 5.42101e-20 0.0053125 0.000210965
0.0009375 2.71051e-20 0.0059375 9.29105e-05
-0.00593741 0 0.00152056 0.000340385
0.0059375 -2.71051e-20 0.00152054 0.000426022
0.0015625 5.42101e-20 0.0059375 7.01803e-05
-0.0015625 2.71051e-20 0.0059375 0.000177902
-0.00562499 1.12938e-21 0.00248636 0.000262924
0.005625 0 0.00248636 0.000103663
0.0025 -2.25875e-21 0.005625 5.73923e-05
-0.0025 -3.38813e-21 0.005625 0.000204605
0.004375 -1.12938e-21 0.00437499 5.27407e-05
-0.004375 -1.12938e-21 0.00437499 0.000247926
0.0046875 2.71051e-20 0.00406235 5.72042e-05
-0.0046875 2.71051e-20 0.00406235 0.000252021
-0.0040625 -2.71051e-20 0.0046875 0.000243068
0.0040625 2.71051e-20 0.0046875 4.82999e-05
-0.00620969 -6.77626e-21 0 0.0023328
-0.00620969 0 3.73859e-05 0.0023328
0.00621 -6.77626e-21 -1.02942e-87 0.00038557
0.00621 -6.77626e-21 3.74243e-05 0.00038557
-0.00624963 6.77626e-21 0 0.0023303
-0.005 0 0.00374964 0.000255924
0.005 0 0.00374964 5.96982e-05
-8.813e-15 0 0.00625 0.000144368
0.00375 0 0.005 4.78551e-05
-0.00375 -2.25875e-21 0.005 0.000237874
0.00625 0 -1.20714e-87 0.000378543
-0.00624966 0 0.000585395 0.00162757
0.00625 2.25875e-21 0.000585362 0.00054255
0.000625 0 0.00625 0.000117334
-0.000625 0 0.00625 0.000159051
-0.00628955 -6.77626e-21 0 0.00232773
-0.00628956 -6.77626e-21 3.73862e-05 0.00232773
0.00629 -6.77626e-21 8.28302e-81 0.000371282
0.00629 0 3.74244e-05 0.000371282
-0.00593747 0 0.00216401 0.000270378
0.0059375 0 0.002164 0.000147011
-0.0053125 -2.71051e-20 0.00343582 0.000258582
0.0053125 2.71051e-20 0.00343582 6.23486e-05
0.0034375 -2.71051e-20 0.0053125 4.75116e-05
-0.0034375 -5.42101e-20 0.0053125 0.000232153
0.0021875 0 0.0059375 6.08804e-05
-0.0021875 2.71051e-20 0.0059375 0.000197508
-0.00624982 -2.25875e-21 0.00120025 0.000632515
0.00625 -1.12938e-21 0.00120022 0.000579116
0.00125 -1.12938e-21 0.00625 8.62427e-05
-0.00125 -1.12938e-21 0.00625 0.000172949
-0.005625 1.12938e-21 0.00312179 0.00026281
0.005625 -1.12938e-21 0.00312179 6.87458e-05
0.003125 -2.25875e-21 0.005625 4.99518e-05
-0.003125 -3.38813e-21 0.005625 0.000226106
-0.00624994 1.12938e-21 0.00184152 0.000310808
0.00625 0 0.0018415 0.000305528
0.001875 -2.25875e-21 0.00625 6.78161e-05
-0.001875 -2.25875e-21 0.00625 0.000191472
-0.00593749 0 0.00280426 0.000265664
0.0059375 -2.71051e-20 0.00280426 7.72169e-05
-0.00656187 -2.71051e-20 0.000292393 0.00231034
0.0065625 -2.71051e-20 0.000292358 0.000319999
0.0003125 2.71051e-20 0.0065625 0.000140913
-0.0028125 5.42101e-20 0.0059375 0.00021949
0.0028125 5.42101e-20 0.0059375 5.30267e-05
-0.0003125 5.42101e-20 0.0065625 0.000155331
-0.00656205 5.42101e-20 0.00089225 0.000926923
0.0065625 2.71051e-20 0.000892183 0.000636054
0.0009375 2.71051e-20 0.0065625 0.000105643
-0.0009375 5.42101e-20 0.0065625 0.000166626
0.0046875 2.71051e-20 0.0046875 4.49238e-05
-0.0046875 2.71051e-20 0.0046875 0.000261728
0.005 -2.25875e-21 0.00437499 5.03441e-05
-0.005 0 0.00437499 0.00026534
0.004375 -1.12938e-21 0.005 4.30942e-05
-0.004375 -2.25875e-21 0.005 0.000257532
0.0053125 0 0.00406234 5.49661e-05
-0.0053125 0 0.00406234 0.000268301
0.0040625 0 0.0053125 4.13573e-05
-0.0040625 0 0.0053125 0.000252743
-0.00624999 2.25875e-21 0.00248637 0.000272823
0.00625 0 0.00248636 0.000122745
0.0025 -2.25875e-21 0.00625 5.79072e-05
-0.0025 -3.38813e-21 0.00625 0.000213181
-0.00656229 -2.71051e-20 0.00152059 0.000352683
0.0065625 0 0.00152054 0.000469114
0.0015625 2.71051e-20 0.0065625 7.62278e-05
-0.0015625 2.71051e-20 0.0065625 0.000184377
0.005625 -1.12938e-21 0.00374964 5.8649e-05
-0.005625 1.12938e-21 0.00374964 0.000270572
0.00375 -1.12938e-21 0.005625 4.2977e-05
-0.00375 -1.12938e-21 0.005625 0.000247592
-0.00683411 0 0 0.00229402
-0.00683412 6.77626e-21 3.73636e-05 0.00229402
0.006835 -6.77626e-21 7.38719e-81 0.00028096
0.006835 0 3.74239e-05 0.00028096
0.0059375 5.42101e-20 0.00343582 6.24896e-05
-0.0059375 2.71051e-20 0.00343582 0.000271867
0.0034375 2.71051e-20 0.0059375 4.46915e-05
-0.0034375 5.42101e-20 0.0059375 0.000241817
-0.006874 0 0 0.00229168
0.006875 0 1.56702e-80 0.000275468
-9.4467e-15 0 0.006875 0.000151292
-0.00687415 -2.25875e-21 0.000585427 0.00162035
0.006875 0 0.000585361 0.000421673
0.000625 0 0.006875 0.000129975
-0.000625 0 0.006875 0.000163224
-0.00656243 -2.71051e-20 0.00216402 0.000279663
0.0065625 2.71051e-20 0.002164 0.000179524
-0.00691384 0 0 0.00228928
-0.00691386 6.77626e-21 3.73654e-05 0.00228928
0.006915 0 3.60954e-73 0.000269854
0.006915 0 3.74238e-05 0.000269854
0.0021875 5.42101e-20 0.0065625 6.39691e-05
-0.0021875 5.42101e-20 0.0065625 0.000206098
-0.00687455 -3.38813e-21 0.00120029 0.000650987
0.006875 0 0.00120022 0.000517771
-0.00625 3.38813e-21 0.00312179 0.000274395
0.00625 -2.25875e-21 0.00312179 7.2895e-05
0.00125 -1.12938e-21 0.006875 9.76461e-05
-0.00125 -2.25875e-21 0.006875 0.000178893
0.003125 -2.25875e-21 0.00625 4.89478e-05
-0.003125 -3.38813e-21 0.00625 0.000236038
0.005 -2.25875e-21 0.005 4.10307e-05
-0.005 -1.12938e-21 0.005 0.000276292
0.0053125 -2.71051e-20 0.0046875 4.42823e-05
0.0046875 2.71051e-20 0.0053125 3.77929e-05
-0.0046875 0 0.0053125 0.000272589
-0.0053125 2.71051e-20 0.0046875 0.000279309
-0.00687483 2.25875e-21 0.00184153 0.00032148
0.006875 0 0.0018415 0.00034042
0.005625 -1.12938e-21 0.00437499 4.96924e-05
-0.005625 0 0.00437499 0.000281762
0.004375 0 0.005625 3.80711e-05
0.001875 -3.38813e-21 0.006875 7.40137e-05
-0.001875 -4.51751e-21 0.006875 0.000199907
-0.004375 -2.25875e-21 0.005625 0.000268433
-0.00656249 0 0.00280427 0.000275607
0.0065625 -2.71051e-20 0.00280426 8.75977e-05
0.0028125 -5.42101e-20 0.0065625 5.37511e-05
-0.0028125 0 0.0065625 0.000229625
-0.00718596 0 0.000292431 0.00227297
0.0071875 0 0.000292358 0.000230815
-0.0059375 -5.42101e-20 0.00406234 0.000283523
0.0059375 -5.42101e-20 0.00406235 5.47997e-05
0.0003125 2.71051e-20 0.0071875 0.000149909
0.0040625 2.71051e-20 0.0059375 3.83459e-05
-0.0040625 2.71051e-20 0.0059375 0.000263654
-0.0003125 0 0.0071875 0.000159022
-0.00718646 -5.42101e-20 0.000892308 0.000951852
0.0071875 -2.71051e-20 0.000892183 0.000503972
0.0009375 2.71051e-20 0.0071875 0.000123441
-0.0009375 -5.42101e-20 0.0071875 0.000171915
0.00625 -2.25875e-21 0.00374964 5.92712e-05
-0.00625 1.12938e-21 0.00374964 0.000284389
0.00375 -1.12938e-21 0.00625 4.12824e-05
-0.00375 -1.12938e-21 0.00625 0.000258682
-0.00687497 0 0.00248637 0.000282171
0.006875 1.12938e-21 0.00248636 0.000157398
-0.0025 -4.51751e-21 0.006875 0.00022338
0.0025 -3.38813e-21 0.006875 6.21301e-05
-0.00718701 0 0.00152063 0.000364967
0.0071875 0 0.00152054 0.000460598
0.0015625 5.42101e-20 0.0071875 8.52656e-05
-0.0015625 2.71051e-20 0.0071875 0.000192649
-0.0065625 -2.71051e-20 0.00343582 0.000284414
0.0065625 -2.71051e-20 0.00343582 6.43417e-05
-0.0034375 0 0.0065625 0.000253218
0.0034375 2.71051e-20 0.0065625 4.43216e-05
-0.00745778 -6.77626e-21 0 0.00225688
-0.0074578 6.77626e-21 3.73272e-05 0.00225688
0.00746 0 -7.52168e-73 0.00020927
0.00746 0 3.74203e-05 0.00020927
-0.00749758 6.77626e-21 0 0.00225457
0.0075 0 -3.91254e-73 0.000206559
-9.72327e-15 0 0.0075 0.000157016
-0.00718734 0 0.00216404 0.000288475
0.0071875 0 0.002164 0.000252053
-0.0021875 -2.71051e-20 0.0071875 0.0002165
0.0021875 -2.71051e-20 0.0071875 7.05843e-05
-0.0053125 2.71051e-20 0.0053125 0.000291543
0.0053125 0 0.0053125 3.71224e-05
-0.00749809 -4.51751e-21 0.000585476 0.00161417
0.0075 2.25875e-21 0.000585361 0.000313246
0.000625 0 0.0075 0.000142602
-0.005 -2.25875e-21 0.005625 0.000288445
-0.005625 0 0.005 0.000294076
-0.000625 0 0.0075 0.000168373
0.005 0 0.005625 3.58949e-05
0.005625 -1.12938e-21 0.005 4.09383e-05
-0.00753727 0 0 0.00225217
-0.00753733 0 3.73304e-05 0.00225217
0.00754 -6.77626e-21 -9.57921e-67 0.000203698
0.00754 0 3.74202e-05 0.000203698
-0.006875 -1.12938e-21 0.00312179 0.000285287
0.006875 -1.12938e-21 0.00312179 8.34231e-05
0.003125 -2.25875e-21 0.006875 5.18245e-05
-0.003125 -2.25875e-21 0.006875 0.000247452
0.0046875 -2.71051e-20 0.0059375 3.47856e-05
-0.0059375 2.71051e-20 0.0046875 0.000295911
-0.0046875 5.42101e-20 0.0059375 0.000284746
0.0059375 -2.71051e-20 0.0046875 4.47223e-05
-0.00749899 1.12938e-21 0.00120033 0.000669722
0.0075 1.12938e-21 0.00120022 0.000433836
0.00125 -1.12938e-21 0.0075 0.000112353
-0.00125 -1.12938e-21 0.0075 0.000186716
-0.00625 0 0.00437499 0.000297188
0.00625 0 0.00437499 5.03319e-05
-0.004375 -1.12938e-21 0.00625 0.000280614
0.004375 0 0.00625 3.62726e-05
-0.00718747 -2.71051e-20 0.00280427 0.000284955
0.0071875 -5.42101e-20 0.00280426 0.000110947
-0.0065625 2.71051e-20 0.00406235 0.000297737
0.0065625 0 0.00406235 5.54626e-05
0.0028125 0 0.0071875 6.02137e-05
-0.0028125 5.42101e-20 0.0071875 0.000241294
0.0040625 2.71051e-20 0.0065625 3.77687e-05
-0.0040625 0 0.0065625 0.000276039
-0.00749963 -1.12938e-21 0.00184156 0.00033191
0.0075 0 0.0018415 0.000368743
0.001875 -2.25875e-21 0.0075 8.31576e-05
-0.001875 -3.38813e-21 0.0075 0.00021007
-0.00780909 -2.71051e-20 0.000292497 0.00223609
0.0078125 -2.71051e-20 0.000292358 0.000182153
0.0003125 2.71051e-20 0.0078125 0.000156004
-0.0003125 2.71051e-20 0.0078125 0.00016313
-0.006875 0 0.00374964 0.000297333
0.006875 -2.25875e-21 0.00374964 6.21671e-05
0.00375 -1.12938e-21 0.006875 4.30549e-05
-0.00375 0 0.006875 0.000271025
-0.00781026 0 0.000892395 0.000977077
0.0078125 -2.71051e-20 0.000892183 0.000339065
-0.0009375 -5.42101e-20 0.0078125 0.000179421
0.0009375 2.71051e-20 0.0078125 0.000141068
-0.00749991 1.12938e-21 0.00248637 0.000291007
0.0075 0 0.00248636 0.000212722
0.0025 -3.38813e-21 0.0075 6.90008e-05
-0.0025 -4.51751e-21 0.0075 0.000234978
-0.005625 0 0.005625 0.000307518
0.005625 0 0.005625 3.57178e-05
-0.00781145 2.71051e-20 0.00152069 0.000377178
0.0078125 -5.42101e-20 0.00152054 0.000431995
-0.0071875 5.42101e-20 0.00343582 0.000296136
0.0071875 0 0.00343582 7.09137e-05
-0.0015625 0 0.0078125 0.000202875
-0.0034375 0 0.0071875 0.000265671
0.0015625 2.71051e-20 0.0078125 9.96391e-05
-0.0053125 2.71051e-20 0.0059375 0.000304901
-0.0059375 -5.42101e-20 0.0053125 0.00030954
0.0034375 5.42101e-20 0.0071875 4.90108e-05
0.0053125 2.71051e-20 0.0059375 3.38774e-05
0.00593751 0 0.00531251 3.76255e-05
-0.005 -1.12938e-21 0.00625 0.000301695
-0.00625 0 0.005 0.000310918
0.005 1.12938e-21 0.00625 3.39982e-05
0.00625 -2.25875e-21 0.005 4.20987e-05
-0.0046875 2.71051e-20 0.0065625 0.000298018
-0.0065625 2.71051e-20 0.0046875 0.000311581
0.0046875 5.42101e-20 0.0065625 3.41876e-05
0.00656251 2.71051e-20 0.00468751 4.63442e-05
-0.00808 0 0 0.0022204
-0.00808006 -6.77626e-21 3.72558e-05 0.0022204
0.008085 6.77626e-21 -1.96246e-65 0.000186693
0.008085 0 3.74199e-05 0.000186693
-0.00781215 0 0.00216406 0.000296871
0.0078125 0 0.002164 0.000330082
0.0021875 2.71051e-20 0.0078125 7.71297e-05
-0.0021875 2.71051e-20 0.0078125 0.000228256
-0.00811962 0 0 0.00221824
-0.00749999 1.12938e-21 0.00312179 0.000295479
0.0075 -2.25875e-21 0.00312179 0.000107193
0.003125 -3.38813e-21 0.0075 5.84623e-05
-0.003125 -2.25875e-21 0.0075 0.000259914
0.008125 -6.77626e-21 -2.05825e-65 0.000187727
-9.79465e-15 -2.25875e-21 0.008125 0.000162065
-0.00812098 -1.12938e-21 0.000585543 0.00160859
0.008125 -1.12938e-21 0.000585362 0.000234121
-0.006875 0 0.00437499 0.000311689
0.006875 -2.25875e-21 0.00437499 5.22515e-05
0.000625 -1.12938e-21 0.008125 0.000152403
-0.004375 0 0.006875 0.000293783
-0.000625 -2.25875e-21 0.008125 0.000175107
0.004375 -1.12938e-21 0.006875 3.74012e-05
-0.00815905 6.77626e-21 0 0.00221599
-0.0081592 -6.77626e-21 3.72599e-05 0.00221599
0.008165 0 -4.50163e-59 0.000188612
0.008165 6.77626e-21 3.74199e-05 0.000188612
-0.00812288 1.12938e-21 0.00120037 0.000688599
0.008125 2.25875e-21 0.00120022 0.000342635
0.00125 0 0.008125 0.000128705
-0.00125 -1.12938e-21 0.008125 0.00019637
-0.0071875 2.71051e-20 0.00406235 0.000311027
0.00718751 0 0.00406235 5.79601e-05
-0.0040625 2.71051e-20 0.0071875 0.000289171
0.0040625 2.71051e-20 0.0071875 4.11165e-05
-0.00781242 0 0.00280427 0.000293741
0.0078125 2.71051e-20 0.00280426 0.000158532
-0.0028125 5.42101e-20 0.0078125 0.000253862
0.0028125 2.71051e-20 0.0078125 6.80719e-05
-0.0081242 1.12938e-21 0.00184158 0.000342113
0.008125 1.12938e-21 0.0018415 0.000369537
0.001875 -1.12938e-21 0.008125 9.60139e-05
-0.001875 -2.25875e-21 0.008125 0.000221637
-0.0075 1.12938e-21 0.00374964 0.000309413
0.0075 -1.12938e-21 0.00374965 7.06587e-05
-0.00375 0 0.0075 0.000284157
0.00375 -1.12938e-21 0.0075 4.84553e-05
-0.0059375 0 0.0059375 0.000324085
0.00593755 2.71051e-20 0.00593755 3.4245e-05
-0.005625 0 0.00625 0.000321857
-0.00625 -1.12938e-21 0.005625 0.000325668
0.00562501 0 0.00625001 3.37024e-05
0.00625002 -1.12938e-21 0.00562502 3.69455e-05
-0.00843052 0 0.0002926 0.00220033
0.0084375 -2.71051e-20 0.000292359 0.000193152
0.0003125 5.42101e-20 0.0084375 0.000160028
-0.0065625 -2.71051e-20 0.0053125 0.000326641
-0.0053125 0 0.0065625 0.000319115
-0.0003125 5.42101e-20 0.0084375 0.000169094
0.00531253 2.71051e-20 0.00656253 3.3141e-05
0.00656255 -2.71051e-20 0.00531255 3.97018e-05
-0.00843304 2.71051e-20 0.000892502 0.00100261
0.0084375 2.71051e-20 0.000892184 0.000223418
0.0009375 -5.42101e-20 0.0084375 0.000152526
-0.0009375 5.42101e-20 0.0084375 0.000188777
-0.0081248 0 0.00248638 0.000299374
0.008125 1.12938e-21 0.00248636 0.000266864
0.0025 -2.25875e-21 0.008125 7.67743e-05
-0.005 0 0.006875 0.000315727
-0.006875 0 0.005 0.00032686
-0.0025 -4.51751e-21 0.008125 0.000247588
0.005 -1.12938e-21 0.006875 3.4634e-05
0.00687503 -1.12938e-21 0.00500003 4.47764e-05
-0.00781249 -2.71051e-20 0.00343582 0.00030704
0.00781251 0 0.00343583 8.85626e-05
-0.0034375 2.71051e-20 0.0078125 0.00027883
0.0034375 -2.71051e-20 0.0078125 5.65524e-05
-0.00843541 5.42101e-20 0.00152073 0.000389349
0.0084375 -2.71051e-20 0.00152054 0.000377612
0.0015625 -5.42101e-20 0.0084375 0.000121592
-0.0046875 -5.42101e-20 0.0071875 0.000311906
-0.0071875 2.71051e-20 0.0046875 0.000326411
-0.0015625 0 0.0084375 0.000214403
0.00468751 0 0.00718751 3.65291e-05
0.00718755 0 0.00468755 4.92389e-05
-0.0075 0 0.00437499 0.000325305
-0.004375 0 0.0075 0.000307605
0.004375 2.25875e-21 0.0075 4.15346e-05
0.00750003 -1.12938e-21 0.00437502 5.67441e-05
-0.00869981 0 0 0.00218366
-0.00869995 6.77626e-21 3.70993e-05 0.00218366
-0.00812497 0 0.00312179 0.00030501
0.008125 0 0.00312179 0.000155525
-0.003125 -3.38813e-21 0.008125 0.00027313
0.003125 -1.12938e-21 0.008125 6.69481e-05
-0.00843682 -5.42101e-20 0.00216404 0.000304885
0.00871 0 -4.38768e-59 0.000217229
0.00871 0 3.74198e-05 0.000217229
0.0084375 0 0.002164 0.00033835
0.0021875 5.42101e-20 0.0084375 8.56823e-05
-0.0021875 5.42101e-20 0.0084375 0.000241013
-0.00873908 0 0 0.00218132