# kMean  POINT_DATA 64962
# x  y  z  kMean
0 -3.99946e-05 5.21085e-09 0.00209926
-5.42101e-20 0.000272502 0.000292358 0.00208451
5.42101e-20 -0.000352499 0.000292358 0.002114
0 0.000585009 5.11816e-09 0.00206937
0 -3.99965e-05 0.000584718 0.00141568
-8.27181e-25 -0.000664995 5.31781e-09 0.00212842
0 0.000585003 0.000584719 0.00139589
7.82637e-21 -0.000665003 0.00058472 0.00143526
0 0.000272501 0.000892183 0.000716287
-2.71051e-20 0.000897501 0.000292359 0.00205423
0 -0.0003525 0.000892183 0.000726013
0 -0.0009775 0.000292358 0.00214283
-2.06795e-25 -3.99985e-05 0.00119965 0.000502004
0 0.00121001 4.87434e-09 0.00203899
-2.71051e-20 0.0008975 0.000892183 0.000706979
0 -0.00128999 5.46622e-09 0.00215681
-2.71051e-20 -0.0009775 0.000892183 0.000736003
0 0.000585002 0.00119965 0.000494998
-4.1359e-25 0.00121 0.000584719 0.00137604
-8.22466e-21 -0.000665001 0.00119965 0.000509208
-2.0682e-20 -0.00129 0.000584719 0.00145459
2.71051e-20 0.0002725 0.00152054 0.000277441
0 0.0015225 0.000292358 0.00202375
2.71051e-20 -0.0003525 0.00152054 0.000281942
2.71051e-20 -0.0016025 0.000292358 0.00217079
1.03398e-25 0.00121 0.00119965 0.000488186
-1.63341e-20 -0.00129 0.00119965 0.000516554
-2.71051e-20 0.0015225 0.000892183 0.000697969
-2.71051e-20 0.0008975 0.00152054 0.000273024
-2.71051e-20 -0.0009775 0.00152054 0.000286467
-2.71051e-20 -0.0016025 0.000892183 0.00074625
0 0.001835 4.40292e-09 0.002008
3.17229e-21 -4.00002e-05 0.00184143 0.000245732
0 -0.00191499 5.51995e-09 0.00218439
-2.28794e-20 0.001835 0.000584719 0.00135606
1.57478e-20 0.000585 0.00184143 0.000241341
2.15287e-20 -0.000665 0.00184143 0.000250115
1.36472e-20 -0.001915 0.000584719 0.00147365
2.71051e-20 0.0015225 0.00152054 0.000268579
-8.13152e-20 0.0021475 0.000292358 0.00199225
0 0.0002725 0.002164 0.000209578
-1.77047e-20 0.001835 0.00119965 0.000481571
-2.71051e-20 -0.0003525 0.002164 0.000213844
1.05576e-20 0.00121 0.00184143 0.000236935
-2.71051e-20 -0.0016025 0.00152054 0.000291006
0 -0.0022275 0.000292358 0.00219798
-5.34483e-21 -0.00129 0.00184143 0.000254486
6.28471e-21 -0.001915 0.00119965 0.000524055
2.71051e-20 0.0021475 0.000892183 0.000689415
2.71051e-20 0.0008975 0.002164 0.000205198
-2.71051e-20 -0.0009775 0.002164 0.000218084
0 -0.0022275 0.000892183 0.000756836
0 0.00246 3.63123e-09 0.0019767
-1.30687e-20 -3.99999e-05 0.00248657 0.000203149
2.29286e-20 0.00246 0.000584717 0.00133613
0 -0.00253999 5.46152e-09 0.00221121
2.08414e-20 0.000585 0.00248657 0.000198621
1.27114e-22 -0.000665 0.00248657 0.00020759
-3.16773e-20 0.001835 0.00184143 0.000232531
-3.8042e-21 -0.00254 0.00058472 0.00149245
-2.71051e-20 0.0021475 0.00152054 0.000264192
0 0.0015225 0.002164 0.000200814
1.6167e-20 -0.001915 0.00184143 0.00025883
0 -0.0016025 0.002164 0.000222262
2.71051e-20 -0.0022275 0.00152054 0.000295557
-4.10075e-20 0.00246 0.00119965 0.000475194
2.1123e-20 0.00121 0.00248657 0.000194041
2.71051e-20 0.0027725 0.000292358 0.00196116
3.59738e-20 -0.00129 0.00248657 0.000211943
-3.25744e-21 -0.00254 0.00119965 0.000531653
-5.42101e-20 0.0002725 0.00280426 0.000192286
-2.71051e-20 -0.0003525 0.00280426 0.000196977
2.71051e-20 -0.0028525 0.000292358 0.00222444
2.71051e-20 0.0027725 0.000892183 0.000681198
0 0.0008975 0.00280426 0.000187513
0 -0.0009775 0.00280426 0.00020154
0 -0.0028525 0.000892183 0.000767524
2.71051e-20 0.0021475 0.002164 0.000196417
-2.44104e-20 0.00246 0.00184143 0.000228156
0 0.003085 2.57439e-09 0.00194474
-2.41305e-20 0.001835 0.00248657 0.000189445
-5.42101e-20 -0.0022275 0.002164 0.000226369
8.80323e-21 -4e-05 0.00312195 0.0001912
-5.11549e-21 -0.00254 0.00184143 0.000263104
3.62667e-22 -0.001915 0.00248657 0.00021619
1.40358e-20 0.003085 0.000584717 0.00131606
0 0.0027725 0.00152054 0.000259899
0 -0.00316499 5.33244e-09 0.00223741
6.70392e-21 0.000585 0.00312195 0.000186389
5.42101e-20 0.0015225 0.00280426 0.000182731
-9.85718e-21 -0.000665 0.00312195 0.00019589
1.37056e-20 -0.003165 0.00058472 0.00151102
2.71051e-20 -0.0016025 0.00280426 0.000205971
0 -0.0028525 0.00152054 0.000300034
-4.84973e-21 0.003085 0.00119965 0.000469041
3.07691e-20 0.00121 0.00312195 0.000181508
2.46993e-20 -0.00129 0.00312195 0.000200435
-2.34547e-21 -0.003165 0.00119965 0.00053933
0 0.0033975 0.000292358 0.00192833
-2.71051e-20 0.0002725 0.00343582 0.000185362
-2.71051e-20 -0.0003525 0.00343582 0.000190203
0 -0.0034775 0.000292358 0.00225039
2.95342e-20 0.00246 0.00248657 0.000184842
5.42101e-20 0.0033975 0.000892183 0.000673437
-2.71051e-20 0.0027725 0.002164 0.000191994
2.71051e-20 0.0021475 0.00280426 0.000177914
2.71051e-20 0.0008975 0.00343582 0.000180425
-3.59433e-21 -0.00254 0.00248657 0.000220297
2.71051e-20 -0.0009775 0.00343582 0.000194867
0 -0.0028525 0.002164 0.000230329
-2.71051e-20 -0.0022275 0.00280426 0.000210242
-2.71051e-20 -0.0034775 0.000892183 0.000778475
-1.74879e-20 0.003085 0.00184143 0.000223819
7.94094e-21 0.001835 0.00312195 0.000176598
1.29247e-26 0.00359372 0.000584717 0.00129945
0 0.00344619 0.00119965 0.000465617
1.47847e-20 -0.003165 0.00184143 0.000267318
2.79755e-20 -0.001915 0.00312195 0.000204818
0 0.00371 1.37831e-09 0.00191173
5.42101e-20 0.0033975 0.00152054 0.000255611
0 0.00371 0.000533785 0.00134931
-3.09608e-21 -4e-05 0.00374969 0.000186115
0 0.00371 0.000584717 0.00129565
-5.42101e-20 0.0015225 0.00343582 0.00017539
8.27181e-25 -0.00378999 5.01249e-09 0.00226296
0 -0.0016025 0.00343582 0.000199388
2.93568e-20 0.000585 0.00374969 0.000181211
-2.71051e-20 -0.0034775 0.00152054 0.000304534
-3.88513e-21 -0.000665 0.00374969 0.000190876
6.93426e-21 -0.00379 0.000584719 0.0015294
3.23117e-27 0.00338244 0.00184143 0.000221787
0 0.00371 0.00119965 0.000463116
-2.99531e-20 0.00121 0.00374969 0.000176199
0 0.0027725 0.00280426 0.00017314
1.20645e-20 0.003085 0.00248657 0.000180289
-2.60883e-20 -0.00129 0.00374969 0.000195457
-2.90713e-20 0.00246 0.00312195 0.000171713
1.31232e-21 -0.00379 0.00119965 0.000547192
0 -0.0028525 0.00280426 0.00021433
-1.65391e-20 -0.00254 0.00312195 0.000209004
1.35571e-20 -0.003165 0.00248657 0.000224264
0 0.0033975 0.002164 0.000187648
2.71051e-20 0.0040225 0.000292358 0.00189513
2.71051e-20 0.0021475 0.00343582 0.000170385
0 0.0002725 0.00406234 0.000182023
2.71051e-20 -0.0003525 0.00406235 0.000186876
0 -0.0022275 0.00343582 0.000203695
-2.71051e-20 -0.0034775 0.002164 0.000234249
-2.71051e-20 -0.0041025 0.000292358 0.00227553
2.71051e-20 0.0040225 0.000892183 0.000665977
1.29247e-26 0.00371 0.00184143 0.000219549
-2.71051e-20 0.0008975 0.00406235 0.000177038
0 0.00334846 0.00248657 0.000178407
1.74016e-20 0.001835 0.00374969 0.000171143
2.71051e-20 -0.0009775 0.00406235 0.00019156
-2.71051e-20 -0.0041025 0.000892183 0.000789747
-1.75429e-20 -0.001915 0.00374969 0.000199824
1.5824e-20 -0.00379 0.00184143 0.000271542
0 0.0040225 0.00152054 0.000251469
5.16988e-26 0.004335 2.64124e-10 0.00187794
-2.71051e-20 0.0015225 0.00406235 0.000171947
0 0.004335 0.000206151 0.00166535
2.71051e-20 -0.0016025 0.00406235 0.000196015
0 0.004335 0.000584718 0.00127495
3.23421e-20 -4e-05 0.004375 0.000183574
0 -0.0041025 0.00152054 0.000309169
2.14346e-20 0.003085 0.00312195 0.0001669
-2.71051e-20 0.0033975 0.00280426 0.000168474
7.04291e-21 0.000585 0.004375 0.000178689
0 0.0027725 0.00343582 0.000165444
8.27181e-25 -0.004415 4.40884e-09 0.00228788
-1.70468e-20 -0.000665 0.004375 0.000188281
3.02207e-20 -0.003165 0.00312195 0.000212986
1.24681e-20 -0.004415 0.000584718 0.00154762
-2.71051e-20 -0.0028525 0.00343582 0.000207775
3.23117e-27 0.00371 0.00248657 0.000175825
0 -0.0034775 0.00280426 0.000218231
1.34264e-20 0.00246 0.00374969 0.000166109
0 0.004335 0.00119965 0.000457333
-2.85374e-20 -0.00254 0.00374969 0.000203951
3.39441e-22 -0.00379 0.00248657 0.000228111
2.98316e-21 0.00121 0.004375 0.000173663
2.01948e-28 0.00331919 0.00312195 0.000165142
2.95282e-21 -0.00129 0.004375 0.000192765
2.71051e-20 0.0040225 0.002164 0.000183346
-3.25237e-21 -0.004415 0.00119965 0.000555213
-5.42101e-20 0.0021475 0.00406234 0.000166854
0 -0.0022275 0.00406234 0.000200202
0 -0.0041025 0.002164 0.000238086
0 0.0046475 0.000292358 0.00186076
0 0.0002725 0.0046875 0.000180323
0 0.0047007 0 0.00185772
-2.71051e-20 -0.0003525 0.0046875 0.000185074
-2.58494e-26 0.004335 0.00184143 0.000215353
2.71051e-20 0.0046475 0.000892183 0.000658642
0 -0.0047275 0.000292358 0.00230024
-1.96117e-20 0.001835 0.004375 0.000168566
0 0.0008975 0.0046875 0.000175373
8.25788e-21 -0.001915 0.004375 0.00019699
-4.21283e-21 -0.004415 0.00184143 0.000275718
2.71051e-20 -0.0009775 0.0046875 0.000189612
0 -0.0047275 0.000892183 0.000801273
-2.71051e-20 0.0033975 0.00343582 0.000160576
0 0.00371 0.00312195 0.000162208
2.30747e-20 0.003085 0.00374969 0.000161133
0 -0.0034775 0.00343582 0.000211634
0 0.0046475 0.00152054 0.000247323
0 0.0040225 0.00280426 0.000163936
1.4445e-20 -0.003165 0.00374969 0.000207831
1.73763e-20 -0.00379 0.00312195 0.000216772
0 0.0027725 0.00406234 0.000161756
0 0.0015225 0.0046875 0.000170296
0 -0.0016025 0.0046875 0.000193873
-2.58494e-26 0.00496 1.87278e-10 0.00184338
2.71051e-20 -0.0028525 0.00406235 0.000204136
0 -0.0047275 0.00152054 0.00031372
-2.71051e-20 -0.0041025 0.00280426 0.00022196
0 0.00329094 0.00374969 0.000159535
0 0.00496 0.000584716 0.001254
0 0.004335 0.00248657 0.000171464
4.07742e-21 -4e-05 0.005 0.000183097
-1.19273e-20 0.00246 0.004375 0.00016346
-5.92257e-21 0.000585 0.005 0.00017842
0 -0.00504 3.78226e-09 0.00231244
1.9383e-20 -0.000665 0.005 0.00018751
-7.04782e-21 -0.00254 0.004375 0.000200954
1.50231e-20 -0.004415 0.00248657 0.000231804
-1.23473e-20 -0.00504 0.000584717 0.00156578
0 0.00496 0.00119965 0.000451722
-5.42101e-20 0.0046475 0.002164 0.000179152
4.07742e-21 0.00121 0.005 0.000173524
2.71051e-20 0.0021475 0.0046875 0.000165168
2.9383e-20 -0.00129 0.005 0.000191642
0 0.00517206 0 0.00183131
5.2101e-21 -0.00504 0.00119965 0.00056337
-2.71051e-20 -0.0022275 0.0046875 0.00019787
0 -0.0047275 0.002164 0.000241766
0 0.00371 0.00374969 0.000156282
5.42101e-20 0.0052725 0.000292358 0.001826
-2.71051e-20 0.0040225 0.00343582 0.000155881
0 0.00496 0.00184143 0.000211241
0 0.0033975 0.00406235 0.000156762
0 0.0002725 0.0053125 0.000181315
-2.71051e-20 -0.0003525 0.0053125 0.000185676
1.55516e-20 0.001835 0.005 0.000168474
-9.11772e-21 -0.00379 0.00374969 0.00021149
-1.61559e-27 0.004335 0.00312195 0.000157657
0 0.0052725 0.000892183 0.000651723
-2.71051e-20 -0.0034775 0.00406235 0.000207784
-2.71051e-20 -0.0041025 0.00343582 0.00021529
2.48063e-20 0.003085 0.004375 0.000158393
1.9383e-20 -0.001915 0.005 0.000195497
2.71051e-20 -0.0053525 0.000292358 0.00232464
-2.83891e-20 -0.00504 0.00184143 0.000279847
0 0.0008975 0.0053125 0.000176667
-7.65156e-21 -0.003165 0.004375 0.000204653
-2.71051e-20 -0.0009775 0.0053125 0.000189679
-1.16794e-20 -0.004415 0.00312195 0.000220347
2.71051e-20 -0.0053525 0.000892183 0.000813076
2.71051e-20 0.0046475 0.00280426 0.000159525
0 0.0027725 0.0046875 0.000160061
0 -0.0028525 0.0046875 0.000201605
0 0.0052725 0.00152054 0.000243322
-2.71051e-20 -0.0047275 0.00280426 0.000225488
2.71051e-20 0.0015225 0.0053125 0.00017176
1.29247e-26 0.00496 0.00248657 0.000167233
2.71051e-20 -0.0016025 0.0053125 0.000193402
0 -0.0053525 0.00152054 0.000318366
-6.62257e-21 0.00246 0.005 0.000163342
-5.16988e-26 0.005585 3.6468e-10 0.0018078
-2.58494e-26 0.005585 0.000283111 0.00152934
-5.92257e-21 -0.00254 0.005 0.000199109
-5.16988e-26 0.005585 0.000584716 0.00123268
8.59893e-22 -0.00504 0.00248657 0.000235376
-2.15959e-20 -4e-05 0.005625 0.000184154
-2.15959e-20 0.000585 0.005625 0.000180054
2.84041e-20 -0.000665 0.005625 0.000187942
0 -0.005665 3.56636e-09 0.00233672
5.16988e-26 0.00567058 0 0.00180284
3.34491e-21 -0.005665 0.000584718 0.00158394
-2.71051e-20 0.0052725 0.002164 0.000175046
0 0.005585 0.00119965 0.000446306
0 0.0040225 0.00406235 0.000151914
-1.02552e-29 0.00371 0.00436442 0.000153487
0 0.0021475 0.0053125 0.00016667
-2.01948e-28 0.004335 0.00374969 0.000151594
-1.57772e-30 0.00371 0.004375 0.000153438
-2.23594e-21 0.00121 0.005625 0.000175642
-2.71051e-20 -0.0022275 0.0053125 0.000196842
-1.09848e-20 -0.00129 0.005625 0.000191457
-2.71051e-20 -0.0053525 0.002164 0.000245404
2.71051e-20 -0.0041025 0.00406235 0.000211255
0 0.0046475 0.00343582 0.000151323
-7.04562e-21 -0.00379 0.004375 0.000208136
-5.42101e-20 0.0033975 0.0046875 0.000154994
-2.11243e-20 -0.005665 0.00119965 0.000571684
-1.06713e-21 -0.004415 0.00374969 0.000214937
-2.71051e-20 -0.0034775 0.0046875 0.000205084
0 -0.0047275 0.00343582 0.000218676
-1.61559e-27 0.00496 0.00312195 0.000153284
1.6028e-20 0.003085 0.005 0.000158178
0 0.005585 0.00184143 0.000207225
2.71051e-20 0.0058975 0.000292358 0.00178962
1.51458e-20 0.001835 0.005625 0.000170948
-1.0617e-20 -0.003165 0.005 0.000202507
1.40047e-20 -0.00504 0.00312195 0.000223757
-3.09848e-20 -0.001915 0.005625 0.000194753
5.42101e-20 0.0002725 0.0059375 0.000183056
5.42101e-20 -0.0003525 0.0059375 0.000186569
1.23464e-20 -0.005665 0.00184143 0.000283932
-2.71051e-20 0.0058975 0.000892183 0.000644988
0 0.0052725 0.00280426 0.000155312
0 -0.0059775 0.000292358 0.00234881
-2.71051e-20 0.0027725 0.0053125 0.000161467
-2.71051e-20 0.0008975 0.0059375 0.000179178
-2.71051e-20 -0.0009775 0.0059375 0.000189844
-2.71051e-20 -0.0028525 0.0053125 0.000200116
0 -0.0053525 0.00280426 0.000228932
-2.71051e-20 -0.0059775 0.000892183 0.00082516
0 0.0058975 0.00152054 0.000239352
0 0.005585 0.00248657 0.000163144
0 0.0015225 0.0059375 0.000174964
-3.44752e-20 0.00246 0.005625 0.000166024
-2.71051e-20 -0.0016025 0.0059375 0.000192902
-2.20881e-29 0.004335 0.00437009 0.00014866
-2.71051e-20 -0.0059775 0.00152054 0.000322986
1.84041e-20 -0.00254 0.005625 0.000197898
0 0.0046475 0.00406235 0.000147264
0 0.0040225 0.0046875 0.000150085
-2.64154e-20 -0.005665 0.00248657 0.000238809
-4.1359e-25 0.00621 2.29851e-09 0.00177152
2.9562e-21 -0.004415 0.004375 0.000211452
0 0.00496 0.00374969 0.000147118
9.31606e-21 0.00371 0.005 0.000153064
2.71051e-20 -0.0041025 0.0046875 0.000208419
0 -0.0047275 0.00406235 0.000214532
5.16988e-26 0.00621 0.000584717 0.00121111
-1.71493e-20 -4e-05 0.00625 0.000185401
9.38296e-21 -0.00379 0.005 0.000205741
-3.24548e-20 0.000585 0.00625 0.000182074
7.70755e-21 -0.00504 0.00374969 0.000218213
-2.71051e-20 0.0058975 0.002164 0.000171056
1.28507e-20 -0.000665 0.00625 0.000188504
0 -0.00629 3.80663e-09 0.0023608
-2.71051e-20 0.0052725 0.00343582 0.000147011
-2.71051e-20 0.0033975 0.0053125 0.000156188
-2.71051e-20 0.0021475 0.0059375 0.000170396
8.95713e-21 -0.00629 0.000584718 0.00160216
0 0.00621 0.00119965 0.000441001
0 -0.0022275 0.0059375 0.000195865
0 -0.0034775 0.0053125 0.000203222
-2.71051e-20 -0.0059775 0.002164 0.000248836
2.71051e-20 -0.0053525 0.00343582 0.00022196
-7.40134e-21 0.00121 0.00625 0.000178445
2.8507e-21 -0.00129 0.00625 0.000191465
0 0.005585 0.00312195 0.000149119
-2.91296e-20 -0.00629 0.00119965 0.000580191
1.35337e-20 0.003085 0.005625 0.000160929
-5.67928e-21 -0.003165 0.005625 0.000200943
3.93398e-21 -0.005665 0.00312195 0.000227027
0 0.00621 0.00184143 0.000203292
-1.386e-20 0.001835 0.00625 0.000174465
-2.71051e-20 0.0065225 0.000292358 0.00175343
0 0.0058975 0.00280426 0.000151268
-7.1493e-21 -0.001915 0.00625 0.000194347
-5.42101e-20 0.0027725 0.0059375 0.000165561
2.77798e-21 -0.00629 0.00184143 0.000287996
-2.71051e-20 0.0002725 0.0065625 0.000184559
0 -0.0003525 0.0065625 0.000187419
2.71051e-20 0.0065225 0.000892183 0.000638463
-2.71051e-20 -0.0028525 0.0059375 0.000198769
-2.71051e-20 0.0046475 0.0046875 0.000145363
0 -0.0059775 0.00280426 0.000232149
-5.42101e-20 -0.0066025 0.000292358 0.0023728
9.46633e-30 0.00496 0.0043705 0.000144116
-3.38319e-20 0.004335 0.005 0.000148088
-2.71051e-20 0.0008975 0.0065625 0.000181501
0 0.00662526 0 0.00174745
0 -0.0009775 0.0065625 0.000190183
-5.42101e-20 0.0052725 0.00406235 0.000142881
0 -0.0047275 0.0046875 0.000211601
0 -0.0066025 0.000892183 0.000837583
-2.71051e-20 0.0040225 0.0053125 0.000150987
2.9383e-20 -0.004415 0.005 0.000208865
-7.04214e-21 -0.00504 0.004375 0.000214628
0 0.00621 0.00248657 0.000159218
-2.71051e-20 0.0065225 0.00152054 0.000235403
0 -0.0041025 0.0053125 0.000206236
-2.95607e-20 0.00246 0.00625 0.00017013
0 -0.0053525 0.00406235 0.000217687
2.63549e-21 0.005585 0.00374969 0.000142894
-2.71051e-20 0.0015225 0.0065625 0.000178138
-1.00101e-20 0.00371 0.005625 0.000155749
-1.24548e-20 -0.00254 0.00625 0.000197209
0 -0.0016025 0.0065625 0.00019293
1.97224e-22 -0.00629 0.00248657 0.000242111
-2.71051e-20 -0.0066025 0.00152054 0.000327776
-1.56793e-20 -0.00379 0.005625 0.000203933
3.34345e-20 -0.005665 0.00374969 0.000221362
0 0.0058975 0.00343582 0.00014292
0 0.006835 1.16091e-09 0.00173528
2.71051e-20 0.0033975 0.0059375 0.0001605
0 0.006835 0.000526117 0.00124435
2.58494e-26 0.006835 0.000584717 0.00118967
-2.71051e-20 0.0065225 0.002164 0.000167233
-3.97262e-20 -4e-05 0.006875 0.000186572
-2.71051e-20 -0.0034775 0.0059375 0.000201664
0 -0.0059775 0.00343582 0.000225093
9.66277e-21 0.000585 0.006875 0.000183883
5.42101e-20 0.0021475 0.0065625 0.000174363
-2.97262e-20 -0.000665 0.006875 0.000189191
0 -0.006915 4.03803e-09 0.0023843
-5.42101e-20 -0.0022275 0.0065625 0.000195691
-1.29247e-26 0.006835 0.00119965 0.000435837
-2.39882e-23 -0.006915 0.000584719 0.00162026
-2.71051e-20 -0.0066025 0.002164 0.00025225
-1.61446e-20 0.00621 0.00312195 0.000145171
2.19534e-20 0.003085 0.00625 0.000165482
6.13242e-21 0.00121 0.006875 0.000181028
-3.97262e-20 -0.00129 0.006875 0.000191822
2.28507e-20 -0.003165 0.00625 0.000200099
-5.6727e-21 -0.006915 0.00119965 0.00058888
-2.08783e-20 -0.00629 0.00312195 0.000230169
-1.34952e-20 0.00496 0.005 0.000143336
0 0.0052725 0.0046875 0.000140943
0 0.0046475 0.0053125 0.000145917
2.06795e-25 0.00706869 0 0.0017218
0 0.006835 0.00184143 0.000199463
1.26218e-29 0.005585 0.00436918 0.000139845
-2.0006e-20 -0.00504 0.005 0.000211922
2.71051e-20 0.0065225 0.00280426 0.00014742
-1.18213e-20 0.004335 0.005625 0.000150576
0 -0.0047275 0.0053125 0.000209203
-2.71051e-20 -0.0053525 0.0046875 0.000214692
-2.67469e-20 0.001835 0.006875 0.000177905
-2.71051e-20 0.0027725 0.0065625 0.0001702
-2.03372e-20 -0.001915 0.006875 0.000194513
-1.56793e-20 -0.004415 0.005625 0.000206925
0 0.0071475 0.000292358 0.00171714
0 -0.0028525 0.0065625 0.000198512
-2.39114e-20 -0.006915 0.00184143 0.00029204
3.23476e-20 -0.005665 0.004375 0.000217699
0 0.0058975 0.00406235 0.000138768
0 0.0040225 0.0059375 0.000155318
2.71051e-20 -0.0066025 0.00280426 0.000235297
0 0.0002725 0.0071875 0.000185958
5.42101e-20 -0.0003525 0.0071875 0.000188351
0 0.0071475 0.000892183 0.000632173
-2.71051e-20 -0.0041025 0.0059375 0.000204611
0 -0.0059775 0.00406235 0.000220714
2.71051e-20 -0.0072275 0.000292358 0.0023958
-5.42101e-20 0.0008975 0.0071875 0.000183512
0 -0.0009775 0.0071875 0.00019081
-1.00974e-28 0.00621 0.00374969 0.000138936
-3.28358e-20 0.00371 0.00625 0.000160586
0 0.006835 0.00248657 0.000155482
0 -0.0072275 0.000892183 0.000850382
-1.42118e-20 0.00246 0.006875 0.000174441
0 0.0071475 0.00152054 0.000231547
2.28507e-20 -0.00379 0.00625 0.000203066
3.47575e-21 -0.00629 0.00374969 0.000224428
2.90517e-20 -0.00254 0.006875 0.000197306
2.71051e-20 0.0015225 0.0071875 0.000180959
-3.40358e-20 -0.006915 0.00248657 0.000245347
0 -0.0016025 0.0071875 0.000193363
2.71051e-20 0.0065225 0.00343582 0.000139112
-2.71051e-20 -0.0072275 0.00152054 0.000332408
0 0.0033975 0.0065625 0.000165666
-2.71051e-20 -0.0034775 0.0065625 0.00020145
-2.71051e-20 -0.0066025 0.00343582 0.000228164
0 0.00746 1.94396e-09 0.00169922
-3.23117e-27 0.00736765 0.00119965 0.000431504
-2.71051e-20 0.0071475 0.002164 0.000163547
0 0.00746 0.000584717 0.00116838
0 0.0052725 0.0053125 0.000141118
3.27458e-20 0.005585 0.005 0.000138864
-5.23739e-21 0.00496 0.005625 0.000145498
-4.29909e-20 -4e-05 0.0075 0.000187541
0 0.0021475 0.0071875 0.000178157
-8.07794e-28 0.006835 0.00312195 0.000141472
-4.29909e-20 0.000585 0.0075 0.000185223
0 -0.0022275 0.0071875 0.000196066
2.23147e-20 -0.000665 0.0075 0.000189932
-2.71051e-20 0.0058975 0.0046875 0.00013677
-2.36459e-20 0.003085 0.006875 0.000170592
0 -0.00754 4.10809e-09 0.00240732
0 0.0046475 0.0059375 0.000150079
2.71051e-20 -0.0053525 0.0053125 0.000212189
-3.23117e-27 0.00746 0.00110516 0.0005441
2.71051e-20 -0.0072275 0.002164 0.000255587
-9.84813e-22 -0.00504 0.005625 0.000209969
-1.61559e-27 0.00746 0.00119965 0.000430752
-1.0617e-20 -0.005665 0.005 0.000214965
1.29326e-20 -0.00754 0.000584719 0.0016383
9.05172e-21 -0.003165 0.006875 0.000200238
-1.04621e-20 -0.006915 0.00312195 0.000233226
0 -0.0047275 0.0059375 0.000207648
1.26218e-29 0.00621 0.00436568 0.000135902
-2.71051e-20 -0.0059775 0.0046875 0.000217703
0 0.00621 0.004375 0.000135856
4.06175e-20 0.00121 0.0075 0.000182901
-3.17408e-21 0.004335 0.00625 0.000155518
-4.29909e-20 -0.00129 0.0075 0.000192458
-1.30743e-20 -0.00754 0.00119965 0.000597771
-1.71493e-20 -0.004415 0.00625 0.000206148
-1.29581e-20 -0.00629 0.004375 0.000220725
1.00974e-27 0.00744463 0.00184143 0.000195821
2.71051e-20 0.0071475 0.00280426 0.000143832
2.1215e-21 0.00746 0.00184143 0.000195729
-2.71051e-20 0.0065225 0.00406235 0.000134949
0 0.0040225 0.0065625 0.000160861
0 0.0027725 0.0071875 0.000175045
-2.70792e-21 0.001835 0.0075 0.000180497
2.71051e-20 -0.0028525 0.0071875 0.000198953
2.71051e-20 -0.0041025 0.0065625 0.000204537
2.01948e-28 0.00746 0.00206371 0.000180641
-4.29909e-20 -0.001915 0.0075 0.000195153
-5.42101e-20 -0.0066025 0.00406235 0.000223744
-2.71051e-20 -0.0072275 0.00280426 0.000238343
1.48364e-20 -0.00754 0.00184143 0.000296056
2.71051e-20 0.0077725 0.000292358 0.00168131
5.04871e-29 0.006835 0.00374969 0.000135266
-2.93413e-22 0.00371 0.006875 0.000166343
-2.71051e-20 0.0002725 0.0078125 0.000186794
-2.71051e-20 -0.0003525 0.0078125 0.00018906
-2.71051e-20 0.0077725 0.000892183 0.000625902
1.90517e-20 -0.00379 0.006875 0.000203347
2.71051e-20 -0.0078525 0.000292358 0.00241885
0 0.00746 0.00248657 0.000151939
0 0.0008975 0.0078125 0.000184628
1.00273e-20 -0.006915 0.00374969 0.000227443
-2.71051e-20 -0.0009775 0.0078125 0.000191506
-6.46235e-27 0.00786457 0.000584717 0.00115477
4.18261e-21 0.00246 0.0075 0.000177913
-2.71051e-20 -0.0078525 0.000892183 0.000863562
-4.29909e-20 -0.00254 0.0075 0.000198051
2.71051e-20 0.0077725 0.00152054 0.000227658
1.55446e-20 0.005585 0.005625 0.000140622
0 0.0071475 0.00343582 0.000135558
0 0.0058975 0.0053125 0.000136623
1.97209e-20 -0.00754 0.00248657 0.000248514
2.71051e-20 0.0052725 0.0059375 0.000144879
2.71051e-20 0.0033975 0.0071875 0.000171459
2.71051e-20 0.0015225 0.0078125 0.000182504
-2.39661e-20 0.00621 0.005 0.000134706
-2.71051e-20 -0.0016025 0.0078125 0.000194151
-2.01948e-28 0.00757916 0.00248657 0.000151301
4.35148e-21 0.00496 0.00625 0.000150357
-1.15959e-20 -0.005665 0.005625 0.000213113
0 -0.0034775 0.0071875 0.000202035
0 -0.0053525 0.0059375 0.000210835
2.71051e-20 -0.0059775 0.0053125 0.000215276
0 -0.0078525 0.00152054 0.000337242
2.71051e-20 -0.0072275 0.00343582 0.00023113
-1.24548e-20 -0.00504 0.00625 0.000209378
-5.42101e-20 0.0065225 0.0046875 0.000132938
-1.65336e-20 -0.00629 0.005 0.000218039
2.71051e-20 0.0046475 0.0065625 0.000155814
-2.71051e-20 0.0077725 0.002164 0.00016004
2.06795e-25 0.008085 1.44444e-09 0.00166362
0 0.00746 0.00312195 0.000138022
-2.71051e-20 -0.0047275 0.0065625 0.000207796
0 -0.0066025 0.0046875 0.000220739
-5.42101e-20 0.0021475 0.0078125 0.000180366
-5.81611e-26 0.008085 0.000570109 0.00116025
-7.88861e-30 0.006835 0.0043569 0.000132282
-6.35245e-21 0.008085 0.000584717 0.00114735
-1.39314e-20 0.003085 0.0075 0.000175045
3.63518e-22 0.006835 0.004375 0.000132193
-2.71051e-20 -0.0022275 0.0078125 0.000197033
-1.52159e-20 -4e-05 0.008125 0.000188477
-1.082e-20 0.004335 0.006875 0.000161736
-4.29909e-20 -0.003165 0.0075 0.000201166
0 -0.0078525 0.002164 0.000258847
-1.52159e-20 0.000585 0.008125 0.00018622
-1.52159e-20 -0.000665 0.008125 0.000190916
-2.08793e-21 -0.00754 0.00312195 0.000236225
0 -0.008165 4.21754e-09 0.00243034
-2.03372e-20 -0.004415 0.006875 0.000206645
4.78938e-22 0.008085 0.00119965 0.000425718
-2.9591e-21 -0.006915 0.004375 0.000223759
2.11779e-21 -0.008165 0.000584719 0.00165652
-9.96534e-22 0.00121 0.008125 0.00018408
2.71051e-20 0.0071475 0.00406235 0.000131453
-1.52159e-20 -0.00129 0.008125 0.00019358
0 0.0040225 0.0071875 0.000167386
-1.66199e-20 -0.008165 0.00119965 0.000606864
-2.71051e-20 0.0077725 0.00280426 0.00014044
0 0.00765391 0.00312195 0.000137029
2.71051e-20 -0.0041025 0.0071875 0.000205363
-2.71051e-20 0.0027725 0.0078125 0.000178082
-2.71051e-20 -0.0072275 0.00406235 0.000226738
3.22763e-20 0.008085 0.00184143 0.000192098
2.71051e-20 -0.0028525 0.0078125 0.000200152
4.64997e-21 0.001835 0.008125 0.000182003
0 -0.0078525 0.00280426 0.00024137
-1.52159e-20 -0.001915 0.008125 0.000196491
0 0.00746 0.00374969 0.000131889
2.17313e-20 0.00371 0.0075 0.000171791
5.42101e-20 0.0058975 0.0059375 0.000139868
-2.76216e-20 -0.008165 0.00184143 0.000300074
1.03398e-25 0.00837318 0 0.00164723
2.26337e-20 0.00621 0.005625 0.000136031
6.82221e-21 0.005585 0.00625 0.000145222
0 0.0083975 0.000292359 0.00164593
-4.29909e-20 -0.00379 0.0075 0.000204523
2.71051e-20 0.0065225 0.0053125 0.000132493
-2.71051e-20 0.0052725 0.0065625 0.000150655
8.02302e-21 -0.00754 0.00374969 0.000230428
5.42101e-20 -0.0059775 0.0059375 0.000214151
-2.45484e-21 -0.005665 0.00625 0.000212768
-1.69014e-20 -0.00629 0.005625 0.000216376
0 0.0002725 0.0084375 0.000187823
0 0.0083975 0.000892183 0.000619736
0 -0.0003525 0.0084375 0.00019023
6.76795e-21 0.008085 0.00248657 0.000148591
0 -0.0053525 0.0065625 0.000211231
-4.00935e-20 0.006835 0.005 0.000130893
0 -0.0066025 0.0053125 0.000218438
1.3803e-20 0.00496 0.006875 0.000156862
2.71051e-20 -0.0084775 0.000292359 0.00244183
0 0.0008975 0.0084375 0.000185634
3.39557e-20 0.00246 0.008125 0.000179921
-2.71051e-20 -0.0009775 0.0084375 0.000192866
0 0.0077725 0.00343582 0.000132292
-1.52159e-20 -0.00254 0.008125 0.000199644
-2.71051e-20 0.0033975 0.0078125 0.000175595
6.31089e-30 0.00765087 0.00374969 0.000130946
-2.71051e-20 -0.0084775 0.000892183 0.000877065
-1.03372e-20 -0.00504 0.006875 0.000210137
-1.59226e-20 -0.006915 0.005 0.000221179
-2.71051e-20 0.0083975 0.00152054 0.00022388
-1.5719e-20 -0.008165 0.00248657 0.000251635
0 0.0071475 0.0046875 0.000129432
-2.71051e-20 -0.0034775 0.0078125 0.000203523
2.71051e-20 0.0046475 0.0071875 0.000162883
-5.42101e-20 -0.0078525 0.00343582 0.000234086
-2.71051e-20 0.0015225 0.0084375 0.000183553
-2.71051e-20 -0.0016025 0.0084375 0.000195797
0 -0.0047275 0.0071875 0.000208882
3.15544e-30 0.00746 0.0042907 0.000129254
2.71051e-20 -0.0084775 0.00152054 0.000341976
-2.71051e-20 -0.0072275 0.0046875 0.000223816
0 0.00746 0.004375 0.000128843
-3.69088e-21 0.004335 0.0075 0.00016808
2.01948e-28 0.008085 0.00312195 0.00013482
-2.71051e-20 0.0083975 0.002164 0.000156691
-1.85227e-20 0.003085 0.008125 0.000177756
2.23147e-20 -0.004415 0.0075 0.000208115
2.71051e-20 0.0021475 0.0084375 0.00018159
-2.06795e-25 0.00871 1.68827e-09 0.00162807
2.95648e-21 -0.00754 0.004375 0.000226824
-1.52159e-20 -0.003165 0.008125 0.00020305
-2.71051e-20 -0.0022275 0.0084375 0.000198984
3.60752e-21 0.00871 0.000584717 0.00112628
-1.02306e-20 -0.008165 0.00312195 0.000239207
0 -0.0084775 0.002164 0.000262084
4.20678e-20 -4e-05 0.00875 0.000189777
3.28992e-21 0.000585 0.00875 0.000187326
-2.71051e-20 0.0077725 0.00406234 0.000128258
4.20678e-20 -0.000665 0.00875 0.00019246
-2.71051e-20 0.0040225 0.0078125 0.000172722
0 -0.00879 4.32624e-09 0.00245378
2.39247e-20 0.00871 0.00119965 0.00042065
1.51192e-20 -0.00879 0.000584719 0.00167516
-1.05814e-20 0.00621 0.00625 0.000140218
0 0.0065225 0.0059375 0.000135141
0 0.0058975 0.0065625 0.000145484
0 -0.0041025 0.0078125 0.00020717
1.75093e-20 0.00121 0.00875 0.000185074
0 -0.0078525 0.00406235 0.000229761
3.28992e-21 -0.00129 0.00875 0.000195408
-2.13266e-20 0.006835 0.005625 0.000131772
0 0.0083975 0.00280426 0.000137292
3.79006e-20 0.005585 0.006875 0.000151825
7.54516e-21 -0.00629 0.00625 0.000216329
-9.70572e-21 -0.00879 0.00119965 0.000616163
0 -0.0059775 0.0065625 0.000214855
2.71051e-20 -0.0066025 0.0059375 0.000217637
-2.71051e-20 0.0027725 0.0084375 0.000179646
-2.52176e-20 0.00871 0.00184143 0.000188588
0 0.0071475 0.0053125 0.00012871
-2.71051e-20 -0.0028525 0.0084375 0.000202409
9.66278e-21 -0.005665 0.006875 0.000213829
4.12769e-21 0.008085 0.00374969 0.000128802
-3.09848e-20 -0.006915 0.005625 0.000219776
-2.71051e-20 0.0052725 0.0071875 0.000158096
0 -0.0084775 0.00280426 0.000244328
-2.42272e-20 0.00371 0.008125 0.00017541
-1.15386e-20 0.001835 0.00875 0.000182976
4.20678e-20 -0.001915 0.00875 0.000198634
0 -0.0053525 0.0071875 0.000212639
-1.92994e-20 -0.00379 0.008125 0.000206716
0 -0.0072275 0.0053125 0.000221723
3.87741e-26 0.0089555 0.000584717 0.00111785
-2.8787e-21 0.00746 0.005 0.000127429
1.89053e-20 -0.00879 0.00184143 0.00030406
2.02697e-21 -0.008165 0.00374969 0.000233444
-2.52737e-21 0.00496 0.0075 0.000163931
-6.46235e-27 0.0089216 0.00119965 0.000418889
2.71051e-20 0.0090225 0.000292359 0.00161021
2.23147e-20 -0.00504 0.0075 0.00021192
2.9383e-20 -0.00754 0.005 0.000224417
9.90624e-21 0.00871 0.00248657 0.000145434
2.71051e-20 0.0090225 0.000892183 0.000613172
-5.42101e-20 0.0002725 0.0090625 0.000189164
-2.71051e-20 -0.0003525 0.0090625 0.000191889
0 0.0083975 0.00343582 0.000129289
-2.71051e-20 0.0077725 0.0046875 0.00012623
-2.91776e-20 0.00246 0.00875 0.000180988
0 0.0046475 0.0078125 0.000169329
2.71051e-20 0.0033975 0.0084375 0.000177698
-2.71051e-20 0.0008975 0.0090625 0.000186684
2.71051e-20 -0.0091025 0.000292359 0.00246574
4.20678e-20 -0.00254 0.00875 0.000202102
2.71051e-20 -0.0009775 0.0090625 0.000194852
0 -0.0034775 0.0084375 0.000206115
-2.71051e-20 -0.0047275 0.0078125 0.000211045
4.35819e-21 -0.00879 0.00248657 0.000254708
2.71051e-20 -0.0078525 0.0046875 0.000226979
0 -0.0091025 0.000892183 0.000891097
-2.71051e-20 -0.0084775 0.00343582 0.000237073