# kMean  POINT_DATA 35434
# x  y  z  kMean
-5.56355e-09 0 0 0.00209734
3.99943e-05 0 0 0.00209618
-4.00052e-05 0 0 0.00209856
3.99946e-05 -6.77626e-21 3.74217e-05 0.00209618
-4.00052e-05 -6.77626e-21 3.74218e-05 0.00209856
0.000312496 0 0.000292358 0.00208876
-0.000312503 2.71051e-20 0.000292358 0.00210598
0.000584999 -6.77626e-21 0 0.00207027
-0.000585007 0 0 0.00210688
-2.45735e-09 3.38813e-21 0.000585361 0.00141381
0.000584999 -6.77626e-21 3.74188e-05 0.00207027
-0.000585007 6.77626e-21 3.74188e-05 0.00210688
0.000624996 0 0 0.0020673
-0.000625004 6.77626e-21 0 0.00210712
0.000664993 0 0 0.00206444
-0.000665 0 0 0.00210742
0.000664993 -6.77626e-21 3.74188e-05 0.00206444
-0.000665 -6.77626e-21 3.74188e-05 0.00210742
0.000624998 -2.25875e-21 0.000585361 0.00140024
-0.000625002 -3.38813e-21 0.000585362 0.0014196
0.000312498 0 0.000892183 0.000720732
-0.000312502 -2.71051e-20 0.000892183 0.000720323
0.000937499 0 0.000292358 0.00204595
-0.000937502 0 0.000292359 0.00210831
-9.85258e-10 2.25875e-21 0.00120022 0.000501372
-0.00121 -6.77626e-21 0 0.00209816
0.00121 0 0 0.00200756
-0.00121 0 3.74213e-05 0.00209816
0.00121 0 3.7419e-05 0.00200756
-0.00125 6.77626e-21 0 0.00209678
0.00125 -6.77626e-21 0 0.00200151
0.00129 0 0 0.00199562
-0.00129 -6.77626e-21 0 0.00209545
0.00129 -6.77626e-21 3.74191e-05 0.00199562
-0.00129 0 3.74212e-05 0.00209545
0.000937499 0 0.000892183 0.000726557
-0.000937501 0 0.000892184 0.000724233
0.000624999 -3.38813e-21 0.00120022 0.000496235
-0.000625001 2.25875e-21 0.00120022 0.00050848
0.00125 0 0.000585361 0.00137091
-0.00125 0 0.000585362 0.00141709
0.000312499 0 0.00152054 0.000272835
-0.000312501 0 0.00152054 0.000285973
-0.0015625 2.71051e-20 0.000292358 0.0020853
0.0015625 2.71051e-20 0.000292358 0.00195723
0.00125 0 0.00120022 0.000493498
-0.00125 1.12938e-21 0.00120022 0.000516973
0.0009375 -2.71051e-20 0.00152054 0.000258978
-0.0009375 -2.71051e-20 0.00152054 0.000297904
0.0015625 -2.71051e-20 0.000892183 0.000735984
-0.0015625 -2.71051e-20 0.000892183 0.000731189
0.001835 0 0 0.00189681
-0.001835 0 0 0.00207151
0.001835 0 3.74194e-05 0.00189681
-0.001835 0 3.74183e-05 0.00207151
-3.43611e-10 1.12938e-21 0.0018415 0.000245448
0.001875 -6.77626e-21 0 0.00188768
-0.001875 -6.77626e-21 0 0.00206949
-0.001915 0 0 0.00206749
0.001915 6.77626e-21 0 0.00187863
-0.001915 0 3.74182e-05 0.00206749
0.001915 0 3.74195e-05 0.00187863
0.000625 2.25875e-21 0.0018415 0.000229194
-0.000625 0 0.0018415 0.000260265
-0.001875 -1.12938e-21 0.000585361 0.00140763
0.001875 3.38813e-21 0.000585362 0.00131759
-0.0015625 0 0.00152054 0.000309158
0.0015625 -2.71051e-20 0.00152054 0.000246372
0.0003125 0 0.002164 0.000202106
-0.0003125 0 0.002164 0.00022077
-0.0021875 -2.71051e-20 0.000292358 0.0020537
0.0021875 2.71051e-20 0.000292358 0.00181821
0.00125 2.25875e-21 0.0018415 0.000213533
-0.00125 -1.12938e-21 0.0018415 0.00027287
-0.001875 0 0.00120022 0.000526789
0.001875 1.12938e-21 0.00120022 0.000492302
0.0009375 -2.71051e-20 0.002164 0.00018274
-0.0009375 -2.71051e-20 0.002164 0.000236312
-0.0021875 2.71051e-20 0.000892183 0.000741544
0.0021875 -2.71051e-20 0.000892183 0.000742708
0.00246 0 0 0.00174344
-0.00246 0 0 0.0020394
0.00246 6.77626e-21 3.74197e-05 0.00174344
-0.00246 0 3.74185e-05 0.0020394
-9.00686e-11 -1.12938e-21 0.00248636 0.000202864
0.0025 -6.77626e-21 0 0.00173235
-0.0025 -6.77626e-21 0 0.00203732
-0.00254 6.77626e-21 0 0.00203525
0.00254 6.77626e-21 0 0.0017213
-0.00254 0 3.74185e-05 0.00203525
0.00254 6.77626e-21 3.74198e-05 0.0017213
0.000625 1.12938e-21 0.00248636 0.000182511
-0.000625 -2.25875e-21 0.00248636 0.000221049
-0.0025 -1.12938e-21 0.000585361 0.00139757
0.0025 -1.12938e-21 0.000585362 0.0012424
0.001875 2.25875e-21 0.0018415 0.000200818
-0.001875 0 0.0018415 0.000283751
-0.0021875 -5.42101e-20 0.00152054 0.000319886
0.0021875 2.71051e-20 0.00152054 0.000237806
0.0015625 -2.71051e-20 0.002164 0.000165915
-0.0015625 0 0.002164 0.000248007
-0.0025 -1.12938e-21 0.00120022 0.000538401
0.0025 2.25875e-21 0.00120022 0.000491902
0.00125 1.12938e-21 0.00248636 0.000163675
-0.00125 -1.12938e-21 0.00248636 0.000235028
0.0003125 2.71051e-20 0.00280426 0.000183506
-0.0003125 -2.71051e-20 0.00280426 0.000205157
0.0028125 5.42101e-20 0.000292359 0.00164652
-0.0028125 0 0.000292358 0.00202095
-0.0028125 -2.71051e-20 0.000892183 0.000755918
0.0028125 -2.71051e-20 0.000892183 0.000748185
0.0009375 2.71051e-20 0.00280426 0.000161782
-0.0009375 5.42101e-20 0.00280426 0.00022203
0.0021875 2.71051e-20 0.002164 0.000153042
-0.0021875 -2.71051e-20 0.002164 0.000257855
0.00308499 6.77626e-21 0 0.00155719
-0.003085 6.77626e-21 0 0.00200713
0.00308499 0 3.742e-05 0.00155719
-0.003085 0 3.74183e-05 0.00200713
0.0025 0 0.0018415 0.000191558
-0.0025 1.12938e-21 0.0018415 0.000294193
0.001875 0 0.00248636 0.000148855
-0.001875 0 0.00248636 0.000245946
-1.56899e-11 0 0.00312179 0.000190896
0.00312499 0 0 0.00154384
-0.003125 0 0 0.00200511
0.00316499 0 2.93547e-122 0.00153053
-0.003165 0 0 0.0020031
0.00316499 -6.77626e-21 3.74198e-05 0.00153053
-0.003165 0 3.74183e-05 0.0020031
0.003125 -1.12938e-21 0.000585361 0.00115228
-0.003125 -1.12938e-21 0.000585362 0.00138907
0.000625 -1.12938e-21 0.00312179 0.000168512
-0.000625 -1.12938e-21 0.00312179 0.00021047
-0.0028125 0 0.00152054 0.000330855
0.0028125 0 0.00152054 0.000232401
0.0015625 5.42101e-20 0.00280426 0.000144357
-0.0015625 2.71051e-20 0.00280426 0.00023383
-0.003125 -4.51751e-21 0.00120022 0.000551839
0.003125 2.25875e-21 0.00120022 0.000494856
0.00125 -2.25875e-21 0.00312179 0.000148511
-0.00125 -1.12938e-21 0.00312179 0.00022482
0.0034375 -2.71051e-20 0.000292357 0.00144119
-0.0034375 0 0.000292358 0.00198928
0.0003125 -2.71051e-20 0.00343582 0.000176008
-0.0003125 -2.71051e-20 0.00343582 0.000198938
0.0025 0 0.00248636 0.000137939
-0.0025 1.12938e-21 0.00248636 0.000256444
0.0028125 0 0.002164 0.00014284
-0.0028125 5.42101e-20 0.002164 0.000268075
0.0034375 -2.71051e-20 0.000892183 0.000762067
-0.0034375 -2.71051e-20 0.000892184 0.000772627
0.0021875 2.71051e-20 0.00280426 0.000132201
-0.0021875 0 0.00280426 0.000244158
0.0009375 5.42101e-20 0.00343582 0.00015278
-0.0009375 2.71051e-20 0.00343582 0.000215782
0.003125 1.12938e-21 0.0018415 0.000185154
-0.003125 0 0.0018415 0.000305148
0.001875 -1.12938e-21 0.00312179 0.000134001
-0.001875 0 0.00312179 0.000236153
0.00371 0 3.16387e-122 0.00134334
-0.00371001 -6.77626e-21 0 0.00197558
0.00371 6.77626e-21 3.742e-05 0.00134334
-0.00371001 6.77626e-21 3.74169e-05 0.00197558
-1.31672e-12 0 0.00374964 0.000185805
-0.00375 -6.77626e-21 0 0.00197356
0.00375 0 6.09936e-122 0.00132911
-0.0034375 0 0.00152054 0.000342502
0.0034375 2.71051e-20 0.00152054 0.000230093
0.0015625 -5.42101e-20 0.00343582 0.000135153
-0.0015625 0 0.00343582 0.000227663
-0.00378999 0 0 0.00197154
0.00379 -6.77626e-21 9.24352e-111 0.00131482
-0.00378999 0 3.74166e-05 0.00197154
0.00379 0 3.74202e-05 0.00131482
-0.00375 -2.25875e-21 0.000585362 0.00138176
0.00375 2.25875e-21 0.000585361 0.00104859
0.000625 -1.12938e-21 0.00374964 0.000162381
-0.000625 0 0.00374964 0.000205573
-0.00375 3.38813e-21 0.00120022 0.000566432
0.00375 1.12938e-21 0.00120022 0.000499417
0.00125 -1.12938e-21 0.00374964 0.000141659
-0.00125 0 0.00374964 0.000219719
0.0028125 -5.42101e-20 0.00280426 0.000123762
-0.0028125 0 0.00280426 0.000255747
0.003125 -1.12938e-21 0.00248636 0.000129743
-0.003125 0 0.00248636 0.000267743
0.0025 0 0.00312179 0.000124431
-0.0025 -1.12938e-21 0.00312179 0.000247709
-0.0034375 0 0.002164 0.000279057
0.0034375 2.71051e-20 0.002164 0.00013513
-0.0040625 2.71051e-20 0.000292359 0.00195783
0.0040625 -2.71051e-20 0.000292358 0.00121697
0.0021875 2.71051e-20 0.00343582 0.000124321
-0.0021875 0 0.00343582 0.00023898
0.0003125 0 0.00406234 0.000172517
-0.0003125 0 0.00406235 0.000195761
-0.00406249 2.71051e-20 0.000892184 0.000790476
0.0040625 -2.71051e-20 0.000892183 0.000766126
0.0009375 2.71051e-20 0.00406235 0.000148222
-0.0009375 2.71051e-20 0.00406235 0.000211818
-0.00375 -2.25875e-21 0.0018415 0.000316643
0.00375 1.12938e-21 0.0018415 0.000181967
0.001875 0 0.00374964 0.000127553
-0.001875 -1.12938e-21 0.00374964 0.000231649
0.004335 6.77626e-21 -5.10571e-110 0.00112146
-0.004335 0 0 0.00194517
0.004335 0 3.74235e-05 0.00112146
-0.004335 0 3.74137e-05 0.00194517
-0.0040625 2.71051e-20 0.00152054 0.000354597
0.0040625 2.71051e-20 0.00152054 0.000232591
-0.0015625 0 0.00406234 0.00022362
0.0015625 2.71051e-20 0.00406235 0.000130482
-0.00437499 0 0 0.00194334
-1.854e-14 -1.12938e-21 0.00437499 0.000183266
0.004375 6.77626e-21 -4.18127e-110 0.00110732
-0.00437499 2.25875e-21 0.000585364 0.00137561
0.004375 0 0.000585361 0.000934831
-0.00441498 -6.77626e-21 0 0.00194148
0.004415 0 5.70596e-102 0.00109322
-0.00441498 -6.77626e-21 3.74136e-05 0.00194148
0.004415 -6.77626e-21 3.74236e-05 0.00109322
0.003125 -1.12938e-21 0.00312179 0.00011762
-0.003125 -1.12938e-21 0.00312179 0.000260368
0.000625 0 0.00437499 0.00015941
-0.000625 -1.12938e-21 0.00437499 0.000202571
0.0034375 0 0.00280426 0.000117323
-0.0034375 0 0.00280426 0.000268148
0.0028125 -5.42101e-20 0.00343582 0.000117462
-0.0028125 5.42101e-20 0.00343582 0.000251968
0.00375 -2.25875e-21 0.00248636 0.000123342
-0.00375 0 0.00248636 0.000279515
0.0025 0 0.00374964 0.00011905
-0.0025 -2.25875e-21 0.00374964 0.000244439
-0.00437499 -3.38813e-21 0.00120022 0.000581664
0.004375 1.12938e-21 0.00120022 0.00050115
0.00125 -1.12938e-21 0.00437499 0.000138158
-0.00125 -1.12938e-21 0.00437499 0.000216326
0.0040625 2.71051e-20 0.002164 0.000129893
-0.0040625 -2.71051e-20 0.002164 0.00029031
0.0021875 0 0.00406235 0.000120259
-0.0021875 5.42101e-20 0.00406235 0.000236336
-0.00468748 0 0.00029236 0.00192882
0.0046875 -2.71051e-20 0.000292358 0.00099771
0.0003125 0 0.0046875 0.000170933
-0.0003125 2.71051e-20 0.0046875 0.000193856
-0.004375 3.38813e-21 0.0018415 0.00032833
0.004375 0 0.0018415 0.000183675
0.001875 -2.25875e-21 0.00437499 0.00012404
-0.001875 -3.38813e-21 0.00437499 0.000228951
-0.00468748 0 0.000892187 0.000809175
0.0046875 5.42101e-20 0.000892183 0.000753592
0.0009375 -5.42101e-20 0.0046875 0.000145964
-0.0009375 -2.71051e-20 0.0046875 0.000208852
-0.0034375 2.71051e-20 0.00343582 0.00026562
0.0034375 0 0.00343582 0.000111952
0.00375 -2.25875e-21 0.00312179 0.000111751
-0.00375 1.12938e-21 0.00312179 0.000273404
0.003125 -1.12938e-21 0.00374964 0.000113063
-0.003125 -1.12938e-21 0.00374964 0.000258377
-0.00468749 2.71051e-20 0.00152054 0.0003668
0.0046875 2.71051e-20 0.00152054 0.000245649
0.0040625 -2.71051e-20 0.00280426 0.000111106
-0.0040625 5.42101e-20 0.00280426 0.000280592
0.0028125 0 0.00406234 0.000114159
-0.0028125 0 0.00406235 0.000250472
-0.0015625 -2.71051e-20 0.0046875 0.000221016
0.0015625 0 0.0046875 0.00012796
-0.00495999 6.77626e-21 0 0.00191775
0.00496 0 8.03005e-101 0.000881224
-0.00495999 0 3.74087e-05 0.00191775
0.00496 6.77626e-21 3.7421e-05 0.000881224
-0.00499997 -6.77626e-21 0 0.00191615
-6.83803e-15 -1.12938e-21 0.005 0.000182804
0.005 0 8.6006e-101 0.00086398
-0.004375 3.38813e-21 0.00248636 0.000291308
0.004375 -1.12938e-21 0.00248636 0.000118127
-0.00499996 0 0.000585368 0.00137119
0.005 0 0.000585362 0.000800609
0.0025 -1.12938e-21 0.00437499 0.000115564
-0.0025 -2.25875e-21 0.00437499 0.000243058
0.000625 0 0.005 0.000159055
-0.000625 -1.12938e-21 0.005 0.000200593
-0.00503995 0 0 0.00191452
0.00504 6.77626e-21 2.10796e-94 0.000846642
-0.00503995 6.77626e-21 3.74082e-05 0.00191452
0.00504 0 3.7421e-05 0.000846642
-0.00499997 0 0.00120022 0.000597006
0.005 0 0.00120022 0.000500035
0.00125 -2.25875e-21 0.005 0.000136653
-0.00125 -1.12938e-21 0.005 0.000213885
-0.0046875 2.71051e-20 0.002164 0.000301505
0.0046875 0 0.002164 0.000126386
-0.0021875 5.42101e-20 0.0046875 0.000234832
0.0021875 5.42101e-20 0.0046875 0.000117454
0.00375 -1.12938e-21 0.00374964 0.000107489
-0.00375 0 0.00374964 0.000272796
-0.00531242 0 0.000292364 0.00190345
0.0053125 -2.71051e-20 0.000292358 0.000730155
-0.0040625 2.71051e-20 0.00343582 0.000279263
0.0040625 0 0.00343582 0.000106641
-0.0034375 2.71051e-20 0.00406235 0.000265449
0.0034375 5.42101e-20 0.00406235 0.000108682
0.0003125 2.71051e-20 0.0053125 0.000173105
-0.0003125 2.71051e-20 0.0053125 0.000193328
-0.00499999 1.12938e-21 0.0018415 0.000339692
0.005 0 0.0018415 0.000193712
0.001875 -4.51751e-21 0.005 0.000121843
-0.001875 -3.38813e-21 0.005 0.000227579
0.004375 -1.12938e-21 0.00312179 0.0001059
-0.004375 1.12938e-21 0.00312179 0.000286362
0.003125 -1.12938e-21 0.00437499 0.000109112
-0.003125 -1.12938e-21 0.00437499 0.000258516
-0.00531243 2.71051e-20 0.000892195 0.000827826
0.0053125 -5.42101e-20 0.000892183 0.000719137
-0.0009375 -5.42101e-20 0.0053125 0.000206337
0.0009375 0 0.0053125 0.000146217
-0.0046875 0 0.00280426 0.000292865
0.0046875 -2.71051e-20 0.00280426 0.000105214
0.0028125 -2.71051e-20 0.0046875 0.000110385
-0.0028125 2.71051e-20 0.0046875 0.000250589
-0.00531247 2.71051e-20 0.00152055 0.000378523
0.0053125 -2.71051e-20 0.00152054 0.000275692
-0.0015625 2.71051e-20 0.0053125 0.000219333
0.0015625 -2.71051e-20 0.0053125 0.000126463
-0.005 0 0.00248636 0.000302587
0.005 1.12938e-21 0.00248636 0.000114694
-0.00558491 0 0 0.00189358
0.005585 -6.77626e-21 1.70338e-94 0.000640735
-0.00558491 0 3.73999e-05 0.00189358
0.005585 0 3.74242e-05 0.000640735
0.0025 -2.25875e-21 0.005 0.000112614
-0.0025 -3.38813e-21 0.005 0.000243379
-0.00562488 -6.77626e-21 0 0.00189214
-7.8565e-15 0 0.005625 0.000183901
0.005625 0 3.81154e-94 0.000628912
-0.00562487 3.38813e-21 0.000585377 0.00136857
0.005625 0 0.000585362 0.000654851
0.000625 0 0.005625 0.000161688
-0.000625 0 0.005625 0.00019921
-0.00566484 0 0 0.00189068
-0.00566484 0 3.73999e-05 0.00189068
0.005665 -6.77626e-21 -1.77716e-88 0.000616767
0.005665 -6.77626e-21 3.74243e-05 0.000616767
-0.00531249 2.71051e-20 0.002164 0.00031183
0.0053125 0 0.002164 0.000126901
0.0040625 -5.42101e-20 0.00406235 0.000102685
-0.0040625 -5.42101e-20 0.00406234 0.000280852
0.0021875 -2.71051e-20 0.0053125 0.000115493
-0.0021875 -2.71051e-20 0.0053125 0.000235132
-0.00562493 -4.51751e-21 0.00120023 0.000612542
0.005625 2.25875e-21 0.00120022 0.000490074
0.004375 0 0.00374964 0.000101506
-0.004375 0 0.00374964 0.000287296
0.00375 -1.12938e-21 0.00437499 0.000102421
-0.00375 -2.25875e-21 0.00437499 0.000274642
0.00125 -2.25875e-21 0.005625 0.000137652
-0.00125 0 0.005625 0.000212564
0.0046875 2.71051e-20 0.00343582 0.000100658
-0.0046875 2.71051e-20 0.00343582 0.000292731
0.0034375 2.71051e-20 0.0046875 0.000103223
-0.0034375 5.42101e-20 0.0046875 0.000267553
-0.005 1.12938e-21 0.00312179 0.000298875
0.005 1.12938e-21 0.00312179 0.000100131
0.003125 0 0.005 0.0001048
-0.003125 -2.25875e-21 0.005 0.000260618
-0.00562497 2.25875e-21 0.00184151 0.000350838
0.005625 0 0.0018415 0.000214236
0.001875 -3.38813e-21 0.005625 0.000120945
-0.001875 -1.12938e-21 0.005625 0.000227928
-0.00593726 0 0.000292374 0.00188081
0.0059375 -2.71051e-20 0.000292358 0.000527347
0.0003125 0 0.0059375 0.000176814
-0.0003125 2.71051e-20 0.0059375 0.000192362
-0.00593732 2.71051e-20 0.000892214 0.000847292
0.0059375 2.71051e-20 0.000892183 0.000643452
-0.0053125 2.71051e-20 0.00280426 0.000304185
0.0053125 0 0.00280426 0.000100384
0.0028125 2.71051e-20 0.0053125 0.000107125
-0.0009375 -5.42101e-20 0.0059375 0.000204814
-0.0028125 5.42101e-20 0.0053125 0.00025296
0.0009375 2.71051e-20 0.0059375 0.000150616
-0.00593741 0 0.00152056 0.000390726
0.0059375 -2.71051e-20 0.00152054 0.000317099
0.0015625 5.42101e-20 0.0059375 0.000127307
-0.0015625 2.71051e-20 0.0059375 0.000219769
-0.00562499 1.12938e-21 0.00248636 0.000313346
0.005625 0 0.00248636 0.000115318
0.0025 -2.25875e-21 0.005625 0.000110638
-0.0025 -3.38813e-21 0.005625 0.000245525
0.004375 -1.12938e-21 0.00437499 9.54049e-05
-0.004375 -1.12938e-21 0.00437499 0.000290932
0.0046875 2.71051e-20 0.00406235 9.60463e-05
-0.0046875 2.71051e-20 0.00406235 0.000296332
-0.0040625 -2.71051e-20 0.0046875 0.000284711
0.0040625 2.71051e-20 0.0046875 9.50942e-05
-0.00620969 -6.77626e-21 0 0.00187181
-0.00620969 0 3.73859e-05 0.00187181
0.00621 -6.77626e-21 -1.02942e-87 0.00048156
0.00621 -6.77626e-21 3.74243e-05 0.00048156
-0.00624963 6.77626e-21 0 0.00187051
-0.005 0 0.00374964 0.00030151
0.005 0 0.00374964 9.51455e-05
-8.813e-15 0 0.00625 0.000185196
0.00375 0 0.005 9.66505e-05
-0.00375 -2.25875e-21 0.005 0.000278395
0.00625 0 -1.20714e-87 0.000475278
-0.00624966 0 0.000585395 0.00136722
0.00625 2.25875e-21 0.000585362 0.000532149
0.000625 0 0.00625 0.000166115
-0.000625 0 0.00625 0.000198568
-0.00628955 -6.77626e-21 0 0.00186917
-0.00628956 -6.77626e-21 3.73862e-05 0.00186917
0.00629 -6.77626e-21 8.28302e-81 0.000468827
0.00629 0 3.74244e-05 0.000468827
-0.00593747 0 0.00216401 0.000322159
0.0059375 0 0.002164 0.00013699
-0.0053125 -2.71051e-20 0.00343582 0.000305717
0.0053125 2.71051e-20 0.00343582 9.42882e-05
0.0034375 -2.71051e-20 0.0053125 9.84673e-05
-0.0034375 -5.42101e-20 0.0053125 0.000271367
0.0021875 0 0.0059375 0.000114512
-0.0021875 2.71051e-20 0.0059375 0.000237477
-0.00624982 -2.25875e-21 0.00120025 0.000628122
0.00625 -1.12938e-21 0.00120022 0.000462758
0.00125 -1.12938e-21 0.00625 0.000141532
-0.00125 -1.12938e-21 0.00625 0.000212869
-0.005625 1.12938e-21 0.00312179 0.000310883
0.005625 -1.12938e-21 0.00312179 9.52162e-05
0.003125 -2.25875e-21 0.005625 0.000101737
-0.003125 -3.38813e-21 0.005625 0.000264267
-0.00624994 1.12938e-21 0.00184152 0.000361853
0.00625 0 0.0018415 0.000239241
0.001875 -2.25875e-21 0.00625 0.000122108
-0.001875 -2.25875e-21 0.00625 0.000229966
-0.00593749 0 0.00280426 0.000315243
0.0059375 -2.71051e-20 0.00280426 9.71517e-05
-0.00656187 -2.71051e-20 0.000292393 0.00186017
0.0065625 -2.71051e-20 0.000292358 0.000423041
0.0003125 2.71051e-20 0.0065625 0.000179636
-0.0028125 5.42101e-20 0.0059375 0.000256529
0.0028125 5.42101e-20 0.0059375 0.000105422
-0.0003125 5.42101e-20 0.0065625 0.000191976
-0.00656205 5.42101e-20 0.00089225 0.000866232
0.0065625 2.71051e-20 0.000892183 0.000536348
0.0009375 2.71051e-20 0.0065625 0.000157399
-0.0009375 5.42101e-20 0.0065625 0.000205118
0.0046875 2.71051e-20 0.0046875 8.77943e-05
-0.0046875 2.71051e-20 0.0046875 0.000301833
0.005 -2.25875e-21 0.00437499 8.89122e-05
-0.005 0 0.00437499 0.000306874
0.004375 -1.12938e-21 0.005 8.87724e-05
-0.004375 -2.25875e-21 0.005 0.000296279
0.0053125 0 0.00406234 8.95948e-05
-0.0053125 0 0.00406234 0.000311254
0.0040625 0 0.0053125 8.98177e-05
-0.0040625 0 0.0053125 0.000289949
-0.00624999 2.25875e-21 0.00248637 0.000323822
0.00625 0 0.00248636 0.000120752
0.0025 -2.25875e-21 0.00625 0.000110329
-0.0025 -3.38813e-21 0.00625 0.000249003
-0.00656229 -2.71051e-20 0.00152059 0.00040232
0.0065625 0 0.00152054 0.000350856
0.0015625 2.71051e-20 0.0065625 0.000130799
-0.0015625 2.71051e-20 0.0065625 0.000221773
0.005625 -1.12938e-21 0.00374964 8.93063e-05
-0.005625 1.12938e-21 0.00374964 0.000315145
0.00375 -1.12938e-21 0.005625 9.27783e-05
-0.00375 -1.12938e-21 0.005625 0.000283466
-0.00683411 0 0 0.00185109
-0.00683412 6.77626e-21 3.73636e-05 0.00185109
0.006835 -6.77626e-21 7.38719e-81 0.000388963
0.006835 0 3.74239e-05 0.000388963
0.0059375 5.42101e-20 0.00343582 8.90659e-05
-0.0059375 2.71051e-20 0.00343582 0.00031838
0.0034375 2.71051e-20 0.0059375 9.59324e-05
-0.0034375 5.42101e-20 0.0059375 0.000276211
-0.006874 0 0 0.00184981
0.006875 0 1.56702e-80 0.000384133
-9.4467e-15 0 0.006875 0.000186403
-0.00687415 -2.25875e-21 0.000585427 0.00136624
0.006875 0 0.000585361 0.000436347
0.000625 0 0.006875 0.000171079
-0.000625 0 0.006875 0.000198963
-0.00656243 -2.71051e-20 0.00216402 0.00033209
0.0065625 2.71051e-20 0.002164 0.000151719
-0.00691384 0 0 0.00184847
-0.00691386 6.77626e-21 3.73654e-05 0.00184847
0.006915 0 3.60954e-73 0.000379207
0.006915 0 3.74238e-05 0.000379207
0.0021875 5.42101e-20 0.0065625 0.00011581
-0.0021875 5.42101e-20 0.0065625 0.000240844
-0.00687455 -3.38813e-21 0.00120029 0.000643364
0.006875 0 0.00120022 0.00042018
-0.00625 3.38813e-21 0.00312179 0.000322438
0.00625 -2.25875e-21 0.00312179 9.20922e-05
0.00125 -1.12938e-21 0.006875 0.000147651
-0.00125 -2.25875e-21 0.006875 0.000214555
0.003125 -2.25875e-21 0.00625 0.000100501
-0.003125 -3.38813e-21 0.00625 0.000269044
0.005 -2.25875e-21 0.005 8.22986e-05
-0.005 -1.12938e-21 0.005 0.00031352
0.0053125 -2.71051e-20 0.0046875 8.22138e-05
0.0046875 2.71051e-20 0.0053125 8.23824e-05
-0.0046875 0 0.0053125 0.000308622
-0.0053125 2.71051e-20 0.0046875 0.000318077
-0.00687483 2.25875e-21 0.00184153 0.000372387
0.006875 0 0.0018415 0.000258628
0.005625 -1.12938e-21 0.00437499 8.34299e-05
-0.005625 0 0.00437499 0.00032187
0.004375 0 0.005625 8.46281e-05
0.001875 -3.38813e-21 0.006875 0.000125494
-0.001875 -4.51751e-21 0.006875 0.000233154
-0.004375 -2.25875e-21 0.005625 0.000302694
-0.00656249 0 0.00280427 0.000325829
0.0065625 -2.71051e-20 0.00280426 9.73644e-05
0.0028125 -5.42101e-20 0.0065625 0.000105571
-0.0028125 0 0.0065625 0.000261159
-0.00718596 0 0.000292431 0.00183939
0.0071875 0 0.000292358 0.000345129
-0.0059375 -5.42101e-20 0.00406234 0.000325221
0.0059375 -5.42101e-20 0.00406235 8.42808e-05
0.0003125 2.71051e-20 0.0071875 0.000181784
0.0040625 2.71051e-20 0.0059375 8.68955e-05
-0.0040625 2.71051e-20 0.0059375 0.000296336
-0.0003125 0 0.0071875 0.000192219
-0.00718646 -5.42101e-20 0.000892308 0.000885253
0.0071875 -2.71051e-20 0.000892183 0.000442344
0.0009375 2.71051e-20 0.0071875 0.000165503
-0.0009375 -5.42101e-20 0.0071875 0.000206535
0.00625 -2.25875e-21 0.00374964 8.44413e-05
-0.00625 1.12938e-21 0.00374964 0.00032799
0.00375 -1.12938e-21 0.00625 9.08595e-05
-0.00375 -1.12938e-21 0.00625 0.000289563
-0.00687497 0 0.00248637 0.000333746
0.006875 1.12938e-21 0.00248636 0.000133872
-0.0025 -4.51751e-21 0.006875 0.000253491
0.0025 -3.38813e-21 0.006875 0.000112034
-0.00718701 0 0.00152063 0.000413588
0.0071875 0 0.00152054 0.000349383
0.0015625 5.42101e-20 0.0071875 0.0001369
-0.0015625 2.71051e-20 0.0071875 0.000224793
-0.0065625 -2.71051e-20 0.00343582 0.000330288
0.0065625 -2.71051e-20 0.00343582 8.48222e-05
-0.0034375 0 0.0065625 0.000282276
0.0034375 2.71051e-20 0.0065625 9.50791e-05
-0.00745778 -6.77626e-21 0 0.00183008
-0.0074578 6.77626e-21 3.73272e-05 0.00183008
0.00746 0 -7.52168e-73 0.000320966
0.00746 0 3.74203e-05 0.000320966
-0.00749758 6.77626e-21 0 0.00182879
0.0075 0 -3.91254e-73 0.000317718
-9.72327e-15 0 0.0075 0.000187392
-0.00718734 0 0.00216404 0.000341425
0.0071875 0 0.002164 0.000182257
-0.0021875 -2.71051e-20 0.0071875 0.000245203
0.0021875 -2.71051e-20 0.0071875 0.000118461
-0.0053125 2.71051e-20 0.0053125 0.000325548
0.0053125 0 0.0053125 7.68031e-05
-0.00749809 -4.51751e-21 0.000585476 0.00136502
0.0075 2.25875e-21 0.000585361 0.000352752
0.000625 0 0.0075 0.000175333
-0.005 -2.25875e-21 0.005625 0.00032085
-0.005625 0 0.005 0.000329431
-0.000625 0 0.0075 0.000200182
0.005 0 0.005625 7.80866e-05
0.005625 -1.12938e-21 0.005 7.72591e-05
-0.00753727 0 0 0.00182742
-0.00753733 0 3.73304e-05 0.00182742
0.00754 -6.77626e-21 -9.57921e-67 0.000314336
0.00754 0 3.74202e-05 0.000314336
-0.006875 -1.12938e-21 0.00312179 0.00033327
0.006875 -1.12938e-21 0.00312179 9.2446e-05
0.003125 -2.25875e-21 0.006875 0.000101628
-0.003125 -2.25875e-21 0.006875 0.000274763
0.0046875 -2.71051e-20 0.0059375 7.94157e-05
-0.0059375 2.71051e-20 0.0046875 0.000332926
-0.0046875 5.42101e-20 0.0059375 0.000315867
0.0059375 -2.71051e-20 0.0046875 7.76304e-05
-0.00749899 1.12938e-21 0.00120033 0.000658371
0.0075 1.12938e-21 0.00120022 0.000364463
0.00125 -1.12938e-21 0.0075 0.000155088
-0.00125 -1.12938e-21 0.0075 0.000217277
-0.00625 0 0.00437499 0.000335713
0.00625 0 0.00437499 7.87831e-05
-0.004375 -1.12938e-21 0.00625 0.000309724
0.004375 0 0.00625 8.24498e-05
-0.00718747 -2.71051e-20 0.00280427 0.00033567
0.0071875 -5.42101e-20 0.00280426 0.000104446
-0.0065625 2.71051e-20 0.00406235 0.000338063
0.0065625 0 0.00406235 7.96011e-05
0.0028125 0 0.0071875 0.000108292
-0.0028125 5.42101e-20 0.0071875 0.000266756
0.0040625 2.71051e-20 0.0065625 8.55304e-05
-0.0040625 0 0.0065625 0.000303428
-0.00749963 -1.12938e-21 0.00184156 0.000382496
0.0075 0 0.0018415 0.000274341
0.001875 -2.25875e-21 0.0075 0.000130908
-0.001875 -3.38813e-21 0.0075 0.00023728
-0.00780909 -2.71051e-20 0.000292497 0.00181812
0.0078125 -2.71051e-20 0.000292358 0.000290173
0.0003125 2.71051e-20 0.0078125 0.000182596
-0.0003125 2.71051e-20 0.0078125 0.000192968
-0.006875 0 0.00374964 0.000339919
0.006875 -2.25875e-21 0.00374964 8.09394e-05
0.00375 -1.12938e-21 0.006875 9.13317e-05
-0.00375 0 0.006875 0.000296198
-0.00781026 0 0.000892395 0.000903788
0.0078125 -2.71051e-20 0.000892183 0.000334348
-0.0009375 -5.42101e-20 0.0078125 0.000209001
0.0009375 2.71051e-20 0.0078125 0.000171456
-0.00749991 1.12938e-21 0.00248637 0.000343066
0.0075 0 0.00248636 0.000161209
0.0025 -3.38813e-21 0.0075 0.000114845
-0.0025 -4.51751e-21 0.0075 0.000258745
-0.005625 0 0.005625 0.000337469
0.005625 0 0.005625 7.30555e-05
-0.00781145 2.71051e-20 0.00152069 0.000424597
0.0078125 -5.42101e-20 0.00152054 0.000331148
-0.0071875 5.42101e-20 0.00343582 0.000341276
0.0071875 0 0.00343582 8.32095e-05
-0.0015625 0 0.0078125 0.000228777
-0.0034375 0 0.0071875 0.000288858
0.0015625 2.71051e-20 0.0078125 0.000146496
-0.0053125 2.71051e-20 0.0059375 0.000333361
-0.0059375 -5.42101e-20 0.0053125 0.000341171
0.0034375 5.42101e-20 0.0071875 9.75714e-05
0.0053125 2.71051e-20 0.0059375 7.3744e-05
0.00593751 0 0.00531251 7.23883e-05
-0.005 -1.12938e-21 0.00625 0.000328491
-0.00625 0 0.005 0.000344135
0.005 1.12938e-21 0.00625 7.582e-05
0.00625 -2.25875e-21 0.005 7.31165e-05
-0.0046875 2.71051e-20 0.0065625 0.000323265
-0.0065625 2.71051e-20 0.0046875 0.000346641
0.0046875 5.42101e-20 0.0065625 7.79563e-05
0.00656251 2.71051e-20 0.00468751 7.36202e-05
-0.00808 0 0 0.00180818
-0.00808006 -6.77626e-21 3.72558e-05 0.00180818
0.008085 6.77626e-21 -1.96246e-65 0.000283623
0.008085 0 3.74199e-05 0.000283623
-0.00781215 0 0.00216406 0.000350235
0.0078125 0 0.002164 0.000234367
0.0021875 2.71051e-20 0.0078125 0.000121771
-0.0021875 2.71051e-20 0.0078125 0.000250344
-0.00811962 0 0 0.00180681
-0.00749999 1.12938e-21 0.00312179 0.000343414
0.0075 -2.25875e-21 0.00312179 9.97555e-05
0.003125 -3.38813e-21 0.0075 0.000104437
-0.003125 -2.25875e-21 0.0075 0.000280827
0.008125 -6.77626e-21 -2.05825e-65 0.000283007
-9.79465e-15 -2.25875e-21 0.008125 0.000188328
-0.00812098 -1.12938e-21 0.000585543 0.00136324
0.008125 -1.12938e-21 0.000585362 0.000284707
-0.006875 0 0.00437499 0.000348585
0.006875 -2.25875e-21 0.00437499 7.50056e-05
0.000625 -1.12938e-21 0.008125 0.000177841
-0.004375 0 0.006875 0.000316875
-0.000625 -2.25875e-21 0.008125 0.00020226
0.004375 -1.12938e-21 0.006875 8.23144e-05
-0.00815905 6.77626e-21 0 0.0018054
-0.0081592 -6.77626e-21 3.72599e-05 0.0018054
0.008165 0 -4.50163e-59 0.000282258
0.008165 6.77626e-21 3.74199e-05 0.000282258
-0.00812288 1.12938e-21 0.00120037 0.000673265
0.008125 2.25875e-21 0.00120022 0.000300766
0.00125 0 0.008125 0.000162348
-0.00125 -1.12938e-21 0.008125 0.000220877
-0.0071875 2.71051e-20 0.00406235 0.000350041
0.00718751 0 0.00406235 7.61299e-05
-0.0040625 2.71051e-20 0.0071875 0.00031023
0.0040625 2.71051e-20 0.0071875 8.71451e-05
-0.00781242 0 0.00280427 0.000344958
0.0078125 2.71051e-20 0.00280426 0.000124202
-0.0028125 5.42101e-20 0.0078125 0.000272675
0.0028125 2.71051e-20 0.0078125 0.000110855
-0.0081242 1.12938e-21 0.00184158 0.000392519
0.008125 1.12938e-21 0.0018415 0.000278555
0.001875 -1.12938e-21 0.008125 0.000138304
-0.001875 -2.25875e-21 0.008125 0.000242012
-0.0075 1.12938e-21 0.00374964 0.000351112
0.0075 -1.12938e-21 0.00374965 8.04434e-05
-0.00375 0 0.0075 0.000302725
0.00375 -1.12938e-21 0.0075 9.39917e-05
-0.0059375 0 0.0059375 0.000349797
0.00593755 2.71051e-20 0.00593755 6.92857e-05
-0.005625 0 0.00625 0.000345845
-0.00625 -1.12938e-21 0.005625 0.000353017
0.00562501 0 0.00625001 7.07042e-05
0.00625002 -1.12938e-21 0.00562502 6.9077e-05
-0.00843052 0 0.0002926 0.00179547
0.0084375 -2.71051e-20 0.000292359 0.000275708
0.0003125 5.42101e-20 0.0084375 0.000183014
-0.0065625 -2.71051e-20 0.0053125 0.000355799
-0.0053125 0 0.0065625 0.000341469
-0.0003125 5.42101e-20 0.0084375 0.000194731
0.00531253 2.71051e-20 0.00656253 7.21627e-05
0.00656255 -2.71051e-20 0.00531255 6.88258e-05
-0.00843304 2.71051e-20 0.000892502 0.000922284
0.0084375 2.71051e-20 0.000892184 0.00023863
0.0009375 -5.42101e-20 0.0084375 0.000174301
-0.0009375 5.42101e-20 0.0084375 0.000212337
-0.0081248 0 0.00248638 0.00035214
0.008125 1.12938e-21 0.00248636 0.00019353
0.0025 -2.25875e-21 0.008125 0.000118338
-0.005 0 0.006875 0.000336246
-0.006875 0 0.005 0.000357883
-0.0025 -4.51751e-21 0.008125 0.000264175
0.005 -1.12938e-21 0.006875 7.52066e-05
0.00687503 -1.12938e-21 0.00500003 6.99732e-05
-0.00781249 -2.71051e-20 0.00343582 0.000351728
0.00781251 0 0.00343583 8.72622e-05
-0.0034375 2.71051e-20 0.0078125 0.000295018
0.0034375 -2.71051e-20 0.0078125 0.000101031
-0.00843541 5.42101e-20 0.00152073 0.000435878
0.0084375 -2.71051e-20 0.00152054 0.000299289
0.0015625 -5.42101e-20 0.0084375 0.000157145
-0.0046875 -5.42101e-20 0.0071875 0.000330577
-0.0071875 2.71051e-20 0.0046875 0.000359593
-0.0015625 0 0.0084375 0.000233391
0.00468751 0 0.00718751 7.86244e-05
0.00718755 0 0.00468755 7.06706e-05
-0.0075 0 0.00437499 0.000360645
-0.004375 0 0.0075 0.000323848
0.004375 2.25875e-21 0.0075 8.41718e-05
0.00750003 -1.12938e-21 0.00437502 7.27997e-05
-0.00869981 0 0 0.00178458
-0.00869995 6.77626e-21 3.70993e-05 0.00178458
-0.00812497 0 0.00312179 0.000353128
0.008125 0 0.00312179 0.000120808
-0.003125 -3.38813e-21 0.008125 0.000286691
0.003125 -1.12938e-21 0.008125 0.000107317
-0.00843682 -5.42101e-20 0.00216404 0.000359206
0.00871 0 -4.38768e-59 0.000284254
0.00871 0 3.74198e-05 0.000284254
0.0084375 0 0.002164 0.000249315
0.0021875 5.42101e-20 0.0084375 0.000127801
-0.0021875 5.42101e-20 0.0084375 0.000255532
-0.00873908 0 0 0.00178305