# omega  POINT_DATA 35434
# x  y  z  omega
-5.56355e-09 0 0 1232.7
3.99943e-05 0 0 1232.53
-4.00052e-05 0 0 1232.87
3.99946e-05 -6.77626e-21 3.74217e-05 1232.53
-4.00052e-05 -6.77626e-21 3.74218e-05 1232.87
0.000312496 0 0.000292358 1231.54
-0.000312503 2.71051e-20 0.000292358 1233.87
0.000584999 -6.77626e-21 0 1228.58
-0.000585007 0 0 1233.82
-2.45735e-09 3.38813e-21 0.000585361 817.254
0.000584999 -6.77626e-21 3.74188e-05 1228.58
-0.000585007 6.77626e-21 3.74188e-05 1233.82
0.000624996 0 0 1228.11
-0.000625004 6.77626e-21 0 1233.83
0.000664993 0 0 1227.65
-0.000665 0 0 1233.84
0.000664993 -6.77626e-21 3.74188e-05 1227.65
-0.000665 -6.77626e-21 3.74188e-05 1233.84
0.000624998 -2.25875e-21 0.000585361 818.735
-0.000625002 -3.38813e-21 0.000585362 814.899
0.000312498 0 0.000892183 399.418
-0.000312502 -2.71051e-20 0.000892183 392.394
0.000937499 0 0.000292358 1224.7
-0.000937502 0 0.000292359 1233.8
-9.85258e-10 2.25875e-21 0.00120022 256.904
-0.00121 -6.77626e-21 0 1232.03
0.00121 0 0 1218.4
-0.00121 0 3.74213e-05 1232.03
0.00121 0 3.7419e-05 1218.4
-0.00125 6.77626e-21 0 1231.8
0.00125 -6.77626e-21 0 1217.42
0.00129 0 0 1216.45
-0.00129 -6.77626e-21 0 1231.57
0.00129 -6.77626e-21 3.74191e-05 1216.45
-0.00129 0 3.74212e-05 1231.57
0.000937499 0 0.000892183 407.657
-0.000937501 0 0.000892184 387.637
0.000624999 -3.38813e-21 0.00120022 262.593
-0.000625001 2.25875e-21 0.00120022 252.62
0.00125 0 0.000585361 817.169
-0.00125 0 0.000585362 811.96
0.000312499 0 0.00152054 117.707
-0.000312501 0 0.00152054 114.532
-0.0015625 2.71051e-20 0.000292358 1229.8
0.0015625 2.71051e-20 0.000292358 1210.15
0.00125 0 0.00120022 268.904
-0.00125 1.12938e-21 0.00120022 249.758
0.0009375 -2.71051e-20 0.00152054 121.978
-0.0009375 -2.71051e-20 0.00152054 112.391
0.0015625 -2.71051e-20 0.000892183 414.798
-0.0015625 -2.71051e-20 0.000892183 384.677
0.001835 0 0 1200.54
-0.001835 0 0 1227.23
0.001835 0 3.74194e-05 1200.54
-0.001835 0 3.74183e-05 1227.23
-3.43611e-10 1.12938e-21 0.0018415 90.4239
0.001875 -6.77626e-21 0 1199.09
-0.001875 -6.77626e-21 0 1226.86
-0.001915 0 0 1226.48
0.001915 6.77626e-21 0 1197.64
-0.001915 0 3.74182e-05 1226.48
0.001915 0 3.74195e-05 1197.64
0.000625 2.25875e-21 0.0018415 92.1159
-0.000625 0 0.0018415 89.0005
-0.001875 -1.12938e-21 0.000585361 808.461
0.001875 3.38813e-21 0.000585362 810.713
-0.0015625 0 0.00152054 110.83
0.0015625 -2.71051e-20 0.00152054 127.537
0.0003125 0 0.002164 64.5994
-0.0003125 0 0.002164 64.7732
-0.0021875 -2.71051e-20 0.000292358 1223.91
0.0021875 2.71051e-20 0.000292358 1188.03
0.00125 2.25875e-21 0.0018415 94.266
-0.00125 -1.12938e-21 0.0018415 87.2079
-0.001875 0 0.00120022 247.91
0.001875 1.12938e-21 0.00120022 274.774
0.0009375 -2.71051e-20 0.002164 64.089
-0.0009375 -2.71051e-20 0.002164 64.2265
-0.0021875 2.71051e-20 0.000892183 383.565
0.0021875 -2.71051e-20 0.000892183 418.837
0.00246 0 0 1175.99
-0.00246 0 0 1221.2
0.00246 6.77626e-21 3.74197e-05 1175.99
-0.00246 0 3.74185e-05 1221.2
-9.00686e-11 -1.12938e-21 0.00248636 62.4404
0.0025 -6.77626e-21 0 1174.2
-0.0025 -6.77626e-21 0 1220.8
-0.00254 6.77626e-21 0 1220.41
0.00254 6.77626e-21 0 1172.42
-0.00254 0 3.74185e-05 1220.41
0.00254 6.77626e-21 3.74198e-05 1172.42
0.000625 1.12938e-21 0.00248636 61.9516
-0.000625 -2.25875e-21 0.00248636 62.0519
-0.0025 -1.12938e-21 0.000585361 805.152
0.0025 -1.12938e-21 0.000585362 799.239
0.001875 2.25875e-21 0.0018415 97.1287
-0.001875 0 0.0018415 84.4704
-0.0021875 -5.42101e-20 0.00152054 109.073
0.0021875 2.71051e-20 0.00152054 134.283
0.0015625 -2.71051e-20 0.002164 63.3622
-0.0015625 0 0.002164 61.3062
-0.0025 -1.12938e-21 0.00120022 247.028
0.0025 2.25875e-21 0.00120022 279.363
0.00125 1.12938e-21 0.00248636 60.9089
-0.00125 -1.12938e-21 0.00248636 59.5494
0.0003125 2.71051e-20 0.00280426 60.0793
-0.0003125 -2.71051e-20 0.00280426 60.3306
0.0028125 5.42101e-20 0.000292359 1160.38
-0.0028125 0 0.000292358 1217.69
-0.0028125 -2.71051e-20 0.000892183 383.629
0.0028125 -2.71051e-20 0.000892183 419.056
0.0009375 2.71051e-20 0.00280426 59.0607
-0.0009375 5.42101e-20 0.00280426 58.9012
0.0021875 2.71051e-20 0.002164 63.2241
-0.0021875 -2.71051e-20 0.002164 56.5904
0.00308499 6.77626e-21 0 1146.15
-0.003085 6.77626e-21 0 1215.07
0.00308499 0 3.742e-05 1146.15
-0.003085 0 3.74183e-05 1215.07
0.0025 0 0.0018415 100.708
-0.0025 1.12938e-21 0.0018415 81.6375
0.001875 0 0.00248636 59.6936
-0.001875 0 0.00248636 54.8341
-1.56899e-11 0 0.00312179 59.9669
0.00312499 0 0 1144.03
-0.003125 0 0 1214.68
0.00316499 0 2.93547e-122 1141.92
-0.003165 0 0 1214.3
0.00316499 -6.77626e-21 3.74198e-05 1141.92
-0.003165 0 3.74183e-05 1214.3
0.003125 -1.12938e-21 0.000585361 784.379
-0.003125 -1.12938e-21 0.000585362 802.427
0.000625 -1.12938e-21 0.00312179 59.3681
-0.000625 -1.12938e-21 0.00312179 59.0278
-0.0028125 0 0.00152054 108.339
0.0028125 0 0.00152054 141.697
0.0015625 5.42101e-20 0.00280426 57.1498
-0.0015625 2.71051e-20 0.00280426 53.7952
-0.003125 -4.51751e-21 0.00120022 247.223
0.003125 2.25875e-21 0.00120022 283.545
0.00125 -2.25875e-21 0.00312179 57.8677
-0.00125 -1.12938e-21 0.00312179 54.9759
0.0034375 -2.71051e-20 0.000292357 1127.69
-0.0034375 0 0.000292358 1211.67
0.0003125 -2.71051e-20 0.00343582 59.6695
-0.0003125 -2.71051e-20 0.00343582 59.7912
0.0025 0 0.00248636 58.8277
-0.0025 1.12938e-21 0.00248636 49.8415
0.0028125 0 0.002164 63.5094
-0.0028125 5.42101e-20 0.002164 52.4591
0.0034375 -2.71051e-20 0.000892183 420.169
-0.0034375 -2.71051e-20 0.000892184 385.001
0.0021875 2.71051e-20 0.00280426 55.0716
-0.0021875 0 0.00280426 47.6831
0.0009375 5.42101e-20 0.00343582 58.6651
-0.0009375 2.71051e-20 0.00343582 57.0945
0.003125 1.12938e-21 0.0018415 104.865
-0.003125 0 0.0018415 79.6436
0.001875 -1.12938e-21 0.00312179 55.7894
-0.001875 0 0.00312179 48.6752
0.00371 0 3.16387e-122 1112.66
-0.00371001 -6.77626e-21 0 1209.24
0.00371 6.77626e-21 3.742e-05 1112.66
-0.00371001 6.77626e-21 3.74169e-05 1209.24
-1.31672e-12 0 0.00374964 60.7998
-0.00375 -6.77626e-21 0 1208.88
0.00375 0 6.09936e-122 1110.48
-0.0034375 0 0.00152054 108.405
0.0034375 2.71051e-20 0.00152054 149.768
0.0015625 -5.42101e-20 0.00343582 56.5967
-0.0015625 0 0.00343582 50.1245
-0.00378999 0 0 1208.52
0.00379 -6.77626e-21 9.24352e-111 1108.29
-0.00378999 0 3.74166e-05 1208.52
0.00379 0 3.74202e-05 1108.29
-0.00375 -2.25875e-21 0.000585362 800.401
0.00375 2.25875e-21 0.000585361 768.821
0.000625 -1.12938e-21 0.00374964 60.3871
-0.000625 0 0.00374964 58.6291
-0.00375 3.38813e-21 0.00120022 248.376
0.00375 1.12938e-21 0.00120022 289.793
0.00125 -1.12938e-21 0.00374964 58.7678
-0.00125 0 0.00374964 52.3897
0.0028125 -5.42101e-20 0.00280426 53.5477
-0.0028125 0 0.00280426 42.6763
0.003125 -1.12938e-21 0.00248636 58.3636
-0.003125 0 0.00248636 45.7898
0.0025 0 0.00312179 53.6632
-0.0025 -1.12938e-21 0.00312179 42.7974
-0.0034375 0 0.002164 49.2778
0.0034375 2.71051e-20 0.002164 64.3526
-0.0040625 2.71051e-20 0.000292359 1206.08
0.0040625 -2.71051e-20 0.000292358 1093.26
0.0021875 2.71051e-20 0.00343582 54.3413
-0.0021875 0 0.00343582 43.113
0.0003125 0 0.00406234 62.0581
-0.0003125 0 0.00406235 61.6792
-0.00406249 2.71051e-20 0.000892184 387.245
0.0040625 -2.71051e-20 0.000892183 424.454
0.0009375 2.71051e-20 0.00406235 61.1534
-0.0009375 2.71051e-20 0.00406235 55.9534
-0.00375 -2.25875e-21 0.0018415 78.4758
0.00375 1.12938e-21 0.0018415 110.471
0.001875 0 0.00374964 56.1357
-0.001875 -1.12938e-21 0.00374964 44.3977
0.004335 6.77626e-21 -5.10571e-110 1077.75
-0.004335 0 0 1203.83
0.004335 0 3.74235e-05 1077.75
-0.004335 0 3.74137e-05 1203.83
-0.0040625 2.71051e-20 0.00152054 109.32
0.0040625 2.71051e-20 0.00152054 161.378
-0.0015625 0 0.00406234 46.3905
0.0015625 2.71051e-20 0.00406235 58.6534
-0.00437499 0 0 1203.5
-1.854e-14 -1.12938e-21 0.00437499 63.0252
0.004375 6.77626e-21 -4.18127e-110 1075.42
-0.00437499 2.25875e-21 0.000585364 798.929
0.004375 0 0.000585361 754.544
-0.00441498 -6.77626e-21 0 1203.17
0.004415 0 5.70596e-102 1073.1
-0.00441498 -6.77626e-21 3.74136e-05 1203.17
0.004415 -6.77626e-21 3.74236e-05 1073.1
0.003125 -1.12938e-21 0.00312179 51.6708
-0.003125 -1.12938e-21 0.00312179 38.2554
0.000625 0 0.00437499 63.0132
-0.000625 -1.12938e-21 0.00437499 58.7546
0.0034375 0 0.00280426 52.0965
-0.0034375 0 0.00280426 38.7927
0.0028125 -5.42101e-20 0.00343582 51.6972
-0.0028125 5.42101e-20 0.00343582 37.7335
0.00375 -2.25875e-21 0.00248636 58.0934
-0.00375 0 0.00248636 42.6773
0.0025 0 0.00374964 52.8876
-0.0025 -2.25875e-21 0.00374964 37.7678
-0.00437499 -3.38813e-21 0.00120022 250.259
0.004375 1.12938e-21 0.00120022 299.924
0.00125 -1.12938e-21 0.00437499 61.1253
-0.00125 -1.12938e-21 0.00437499 49.6752
0.0040625 2.71051e-20 0.002164 66.2391
-0.0040625 -2.71051e-20 0.002164 46.802
0.0021875 0 0.00406235 54.9498
-0.0021875 5.42101e-20 0.00406235 37.9674
-0.00468748 0 0.00029236 1200.92
0.0046875 -2.71051e-20 0.000292358 1057.59
0.0003125 0 0.0046875 64.9565
-0.0003125 2.71051e-20 0.0046875 63.4095
-0.004375 3.38813e-21 0.0018415 78.0425
0.004375 0 0.0018415 118.829
0.001875 -2.25875e-21 0.00437499 57.4682
-0.001875 -3.38813e-21 0.00437499 40.0938
-0.00468748 0 0.000892187 389.978
0.0046875 5.42101e-20 0.000892183 433.752
0.0009375 -5.42101e-20 0.0046875 63.8848
-0.0009375 -2.71051e-20 0.0046875 53.9806
-0.0034375 2.71051e-20 0.00343582 33.8362
0.0034375 0 0.00343582 49.3504
0.00375 -2.25875e-21 0.00312179 49.4507
-0.00375 1.12938e-21 0.00312179 34.8857
0.003125 -1.12938e-21 0.00374964 49.3267
-0.003125 -1.12938e-21 0.00374964 33.1208
-0.00468749 2.71051e-20 0.00152054 110.945
0.0046875 2.71051e-20 0.00152054 176.801
0.0040625 -2.71051e-20 0.00280426 49.7512
-0.0040625 5.42101e-20 0.00280426 35.886
0.0028125 0 0.00406234 50.5631
-0.0028125 0 0.00406235 32.2622
-0.0015625 -2.71051e-20 0.0046875 42.3777
0.0015625 0 0.0046875 60.8104
-0.00495999 6.77626e-21 0 1198.9
0.00496 0 8.03005e-101 1038.75
-0.00495999 0 3.74087e-05 1198.9
0.00496 6.77626e-21 3.7421e-05 1038.75
-0.00499997 -6.77626e-21 0 1198.6
-6.83803e-15 -1.12938e-21 0.005 65.1678
0.005 0 8.6006e-101 1036.01
-0.004375 3.38813e-21 0.00248636 40.3392
0.004375 -1.12938e-21 0.00248636 58.9011
-0.00499996 0 0.000585368 797.884
0.005 0 0.000585362 738.528
0.0025 -1.12938e-21 0.00437499 52.1988
-0.0025 -2.25875e-21 0.00437499 33.0855
0.000625 0 0.005 66.1882
-0.000625 -1.12938e-21 0.005 58.0303
-0.00503995 0 0 1198.3
0.00504 6.77626e-21 2.10796e-94 1033.25
-0.00503995 6.77626e-21 3.74082e-05 1198.3
0.00504 0 3.7421e-05 1033.25
-0.00499997 0 0.00120022 252.647
0.005 0 0.00120022 312.323
0.00125 -2.25875e-21 0.005 63.9746
-0.00125 -1.12938e-21 0.005 46.3008
-0.0046875 2.71051e-20 0.002164 44.9995
0.0046875 0 0.002164 70.7353
-0.0021875 5.42101e-20 0.0046875 33.6387
0.0021875 5.42101e-20 0.0046875 55.4603
0.00375 -1.12938e-21 0.00374964 45.6372
-0.00375 0 0.00374964 29.9696
-0.00531242 0 0.000292364 1196.28
0.0053125 -2.71051e-20 0.000292358 1014.4
-0.0040625 2.71051e-20 0.00343582 31.045
0.0040625 0 0.00343582 46.6151
-0.0034375 2.71051e-20 0.00406235 28.6565
0.0034375 5.42101e-20 0.00406235 45.6991
0.0003125 2.71051e-20 0.0053125 68.4781
-0.0003125 2.71051e-20 0.0053125 63.8302
-0.00499999 1.12938e-21 0.0018415 78.2311
0.005 0 0.0018415 130.949
0.001875 -4.51751e-21 0.005 59.1082
-0.001875 -3.38813e-21 0.005 35.9018
0.004375 -1.12938e-21 0.00312179 47.1993
-0.004375 1.12938e-21 0.00312179 32.4173
0.003125 -1.12938e-21 0.00437499 45.9993
-0.003125 -1.12938e-21 0.00437499 28.7185
-0.00531243 2.71051e-20 0.000892195 392.972
0.0053125 -5.42101e-20 0.000892183 439.908
-0.0009375 -5.42101e-20 0.0053125 50.905
0.0009375 0 0.0053125 67.4338
-0.0046875 0 0.00280426 33.7206
0.0046875 -2.71051e-20 0.00280426 48.9661
0.0028125 -2.71051e-20 0.0046875 47.8227
-0.0028125 2.71051e-20 0.0046875 28.4729
-0.00531247 2.71051e-20 0.00152055 113.126
0.0053125 -2.71051e-20 0.00152054 195.641
-0.0015625 2.71051e-20 0.0053125 37.9397
0.0015625 -2.71051e-20 0.0053125 63.7707
-0.005 0 0.00248636 38.6219
0.005 1.12938e-21 0.00248636 62.4409
-0.00558491 0 0 1194.4
0.005585 -6.77626e-21 1.70338e-94 1003.02
-0.00558491 0 3.73999e-05 1194.4
0.005585 0 3.74242e-05 1003.02
0.0025 -2.25875e-21 0.005 51.539
-0.0025 -3.38813e-21 0.005 29.2501
-0.00562488 -6.77626e-21 0 1194.13
-7.8565e-15 0 0.005625 66.865
0.005625 0 3.81154e-94 1001.54
-0.00562487 3.38813e-21 0.000585377 797.125
0.005625 0 0.000585362 725.155
0.000625 0 0.005625 69.9816
-0.000625 0 0.005625 55.9964
-0.00566484 0 0 1193.85
-0.00566484 0 3.73999e-05 1193.85
0.005665 -6.77626e-21 -1.77716e-88 1000.01
0.005665 -6.77626e-21 3.74243e-05 1000.01
-0.00531249 2.71051e-20 0.002164 43.7448
0.0053125 0 0.002164 80.4394
0.0040625 -5.42101e-20 0.00406235 40.8894
-0.0040625 -5.42101e-20 0.00406234 26.3459
0.0021875 -2.71051e-20 0.0053125 56.393
-0.0021875 -2.71051e-20 0.0053125 29.6489
-0.00562493 -4.51751e-21 0.00120023 255.345
0.005625 2.25875e-21 0.00120022 325.517
0.004375 0 0.00374964 42.0033
-0.004375 0 0.00374964 27.8065
0.00375 -1.12938e-21 0.00437499 39.8963
-0.00375 -2.25875e-21 0.00437499 26.0224
0.00125 -2.25875e-21 0.005625 67.6909
-0.00125 0 0.005625 42.1875
0.0046875 2.71051e-20 0.00343582 43.4794
-0.0046875 2.71051e-20 0.00343582 29.0345
0.0034375 2.71051e-20 0.0046875 39.9127
-0.0034375 5.42101e-20 0.0046875 25.4818
-0.005 1.12938e-21 0.00312179 30.5893
0.005 1.12938e-21 0.00312179 46.0865
0.003125 0 0.005 42.5644
-0.003125 -2.25875e-21 0.005 25.4861
-0.00562497 2.25875e-21 0.00184151 78.911
0.005625 0 0.0018415 146.545
0.001875 -3.38813e-21 0.005625 61.8746
-0.001875 -1.12938e-21 0.005625 31.8764
-0.00593726 0 0.000292374 1191.97
0.0059375 -2.71051e-20 0.000292358 988.626
0.0003125 0 0.0059375 72.3695
-0.0003125 2.71051e-20 0.0059375 62.7867
-0.00593732 2.71051e-20 0.000892214 395.986
0.0059375 2.71051e-20 0.000892183 449.821
-0.0053125 2.71051e-20 0.00280426 32.0757
0.0053125 0 0.00280426 49.7426
0.0028125 2.71051e-20 0.0053125 46.4801
-0.0009375 -5.42101e-20 0.0059375 46.4659
-0.0028125 5.42101e-20 0.0053125 25.2384
0.0009375 2.71051e-20 0.0059375 71.6483
-0.00593741 0 0.00152056 115.717
0.0059375 -2.71051e-20 0.00152054 213.634
0.0015625 5.42101e-20 0.0059375 67.9127
-0.0015625 2.71051e-20 0.0059375 33.4375
-0.00562499 1.12938e-21 0.00248636 37.38
0.005625 0 0.00248636 69.7891
0.0025 -2.25875e-21 0.005625 52.2067
-0.0025 -3.38813e-21 0.005625 26.0761
0.004375 -1.12938e-21 0.00437499 35.0161
-0.004375 -1.12938e-21 0.00437499 24.2799
0.0046875 2.71051e-20 0.00406235 37.0354
-0.0046875 2.71051e-20 0.00406235 24.8055
-0.0040625 -2.71051e-20 0.0046875 23.6052
0.0040625 2.71051e-20 0.0046875 33.0843
-0.00620969 -6.77626e-21 0 1190.21
-0.00620969 0 3.73859e-05 1190.21
0.00621 -6.77626e-21 -1.02942e-87 982.568
0.00621 -6.77626e-21 3.74243e-05 982.568
-0.00624963 6.77626e-21 0 1189.96
-0.005 0 0.00374964 26.2796
0.005 0 0.00374964 39.5644
-8.813e-15 0 0.00625 67.3536
0.00375 0 0.005 34.3112
-0.00375 -2.25875e-21 0.005 23.2652
0.00625 0 -1.20714e-87 981.736
-0.00624966 0 0.000585395 796.512
0.00625 2.25875e-21 0.000585362 720.408
0.000625 0 0.00625 73.7556
-0.000625 0 0.00625 52.4671
-0.00628955 -6.77626e-21 0 1189.7
-0.00628956 -6.77626e-21 3.73862e-05 1189.7
0.00629 -6.77626e-21 8.28302e-81 980.877
0.00629 0 3.74244e-05 980.877
-0.00593747 0 0.00216401 42.9408
0.0059375 0 0.002164 96.2755
-0.0053125 -2.71051e-20 0.00343582 27.543
0.0053125 2.71051e-20 0.00343582 42.1804
0.0034375 -2.71051e-20 0.0053125 36.0412
-0.0034375 -5.42101e-20 0.0053125 22.7506
0.0021875 0 0.0059375 59.4241
-0.0021875 2.71051e-20 0.0059375 26.4765
-0.00624982 -2.25875e-21 0.00120025 258.205
0.00625 -1.12938e-21 0.00120022 340.507
0.00125 -1.12938e-21 0.00625 72.2368
-0.00125 -1.12938e-21 0.00625 37.6166
-0.005625 1.12938e-21 0.00312179 29.2069
0.005625 -1.12938e-21 0.00312179 46.793
0.003125 -2.25875e-21 0.005625 40.9239
-0.003125 -3.38813e-21 0.005625 22.9612
-0.00624994 1.12938e-21 0.00184152 79.9695
0.00625 0 0.0018415 165.34
0.001875 -2.25875e-21 0.00625 66.5017
-0.001875 -2.25875e-21 0.00625 28.372
-0.00593749 0 0.00280426 30.814
0.0059375 -2.71051e-20 0.00280426 52.8688
-0.00656187 -2.71051e-20 0.000292393 1187.95
0.0065625 -2.71051e-20 0.000292358 974.819
0.0003125 2.71051e-20 0.0065625 74.6572
-0.0028125 5.42101e-20 0.0059375 22.9389
0.0028125 5.42101e-20 0.0059375 46.5298
-0.0003125 5.42101e-20 0.0065625 59.6096
-0.00656205 5.42101e-20 0.00089225 398.913
0.0065625 2.71051e-20 0.000892183 460.934
0.0009375 2.71051e-20 0.0065625 76.3537
-0.0009375 5.42101e-20 0.0065625 41.0074
0.0046875 2.71051e-20 0.0046875 29.0548
-0.0046875 2.71051e-20 0.0046875 22.3632
0.005 -2.25875e-21 0.00437499 32.4708
-0.005 0 0.00437499 23.1076
0.004375 -1.12938e-21 0.005 28.5843
-0.004375 -2.25875e-21 0.005 21.8652
0.0053125 0 0.00406234 35.5687
-0.0053125 0 0.00406234 23.7397
0.0040625 0 0.0053125 28.205
-0.0040625 0 0.0053125 21.2226
-0.00624999 2.25875e-21 0.00248637 36.5068
0.00625 0 0.00248636 81.405
0.0025 -2.25875e-21 0.00625 55.5608
-0.0025 -3.38813e-21 0.00625 23.637
-0.00656229 -2.71051e-20 0.00152059 118.605
0.0065625 0 0.00152054 234.689
0.0015625 2.71051e-20 0.0065625 73.0338
-0.0015625 2.71051e-20 0.0065625 29.552
0.005625 -1.12938e-21 0.00374964 38.9527
-0.005625 1.12938e-21 0.00374964 25.1684
0.00375 -1.12938e-21 0.005625 31.2567
-0.00375 -1.12938e-21 0.005625 21.1471
-0.00683411 0 0 1186.24
-0.00683412 6.77626e-21 3.73636e-05 1186.24
0.006835 -6.77626e-21 7.38719e-81 970.149
0.006835 0 3.74239e-05 970.149
0.0059375 5.42101e-20 0.00343582 42.4111
-0.0059375 2.71051e-20 0.00343582 26.4109
0.0034375 2.71051e-20 0.0059375 34.6428
-0.0034375 5.42101e-20 0.0059375 20.9162
-0.006874 0 0 1185.99
0.006875 0 1.56702e-80 969.491
-9.4467e-15 0 0.006875 65.7159
-0.00687415 -2.25875e-21 0.000585427 795.933
0.006875 0 0.000585361 716.709
0.000625 0 0.006875 76.8735
-0.000625 0 0.006875 47.5704
-0.00656243 -2.71051e-20 0.00216402 42.4911
0.0065625 2.71051e-20 0.002164 116.567
-0.00691384 0 0 1185.74
-0.00691386 6.77626e-21 3.73654e-05 1185.74
0.006915 0 3.60954e-73 968.818
0.006915 0 3.74238e-05 968.818
0.0021875 5.42101e-20 0.0065625 65.6404
-0.0021875 5.42101e-20 0.0065625 24.0189
-0.00687455 -3.38813e-21 0.00120029 261.108
0.006875 0 0.00120022 354.859
-0.00625 3.38813e-21 0.00312179 28.1447
0.00625 -2.25875e-21 0.00312179 49.8373
0.00125 -1.12938e-21 0.006875 77.551
-0.00125 -2.25875e-21 0.006875 33.1524
0.003125 -2.25875e-21 0.00625 41.8034
-0.003125 -3.38813e-21 0.00625 21.1027
0.005 -2.25875e-21 0.005 26.1011
-0.005 -1.12938e-21 0.005 20.9593
0.0053125 -2.71051e-20 0.0046875 28.2243
0.0046875 2.71051e-20 0.0053125 23.9913
-0.0046875 0 0.0053125 20.2695
-0.0053125 2.71051e-20 0.0046875 21.5223
-0.00687483 2.25875e-21 0.00184153 81.3174
0.006875 0 0.0018415 188.895
0.005625 -1.12938e-21 0.00437499 31.9944
-0.005625 0 0.00437499 22.2998
0.004375 0 0.005625 25.0277
0.001875 -3.38813e-21 0.006875 72.5963
-0.001875 -4.51751e-21 0.006875 25.5448
-0.004375 -2.25875e-21 0.005625 20.0421
-0.00656249 0 0.00280427 29.8388
0.0065625 -2.71051e-20 0.00280426 60.1378
0.0028125 -5.42101e-20 0.0065625 50.6501
-0.0028125 0 0.0065625 21.1124
-0.00718596 0 0.000292431 1184.04
0.0071875 0 0.000292358 964.148
-0.0059375 -5.42101e-20 0.00406234 22.9841
0.0059375 -5.42101e-20 0.00406235 35.6573
0.0003125 2.71051e-20 0.0071875 74.4857
0.0040625 2.71051e-20 0.0059375 26.1358
-0.0040625 2.71051e-20 0.0059375 19.6987
-0.0003125 0 0.0071875 54.1178
-0.00718646 -5.42101e-20 0.000892308 401.616
0.0071875 -2.71051e-20 0.000892183 459.752
0.0009375 2.71051e-20 0.0071875 82.0014
-0.0009375 -5.42101e-20 0.0071875 35.5449
0.00625 -2.25875e-21 0.00374964 39.6173
-0.00625 1.12938e-21 0.00374964 24.3402
0.00375 -1.12938e-21 0.00625 30.4882
-0.00375 -1.12938e-21 0.00625 19.6361
-0.00687497 0 0.00248637 35.9292
0.006875 1.12938e-21 0.00248636 98.5139
-0.0025 -4.51751e-21 0.006875 21.7478
0.0025 -3.38813e-21 0.006875 62.2267
-0.00718701 0 0.00152063 121.676
0.0071875 0 0.00152054 261.357
0.0015625 5.42101e-20 0.0071875 78.8149
-0.0015625 2.71051e-20 0.0071875 26.5007
-0.0065625 -2.71051e-20 0.00343582 25.5309
0.0065625 -2.71051e-20 0.00343582 43.9771
-0.0034375 0 0.0065625 19.4426
0.0034375 2.71051e-20 0.0065625 35.3882
-0.00745778 -6.77626e-21 0 1182.27
-0.0074578 6.77626e-21 3.73272e-05 1182.27
0.00746 0 -7.52168e-73 961.546
0.00746 0 3.74203e-05 961.546
-0.00749758 6.77626e-21 0 1182.01
0.0075 0 -3.91254e-73 961.218
-9.72327e-15 0 0.0075 61.7489
-0.00718734 0 0.00216404 42.3618
0.0071875 0 0.002164 142.774
-0.0021875 -2.71051e-20 0.0071875 22.1052
0.0021875 -2.71051e-20 0.0071875 72.9006
-0.0053125 2.71051e-20 0.0053125 19.682
0.0053125 0 0.0053125 23.1326
-0.00749809 -4.51751e-21 0.000585476 795.232
0.0075 2.25875e-21 0.000585361 708.499
0.000625 0 0.0075 78.7324
-0.005 -2.25875e-21 0.005625 19.373
-0.005625 0 0.005 20.3715
-0.000625 0 0.0075 41.9111
0.005 0 0.005625 22.3895
0.005625 -1.12938e-21 0.005 25.8331
-0.00753727 0 0 1181.75
-0.00753733 0 3.73304e-05 1181.75
0.00754 -6.77626e-21 -9.57921e-67 960.872
0.00754 0 3.74202e-05 960.872
-0.006875 -1.12938e-21 0.00312179 27.3179
0.006875 -1.12938e-21 0.00312179 56.9399
0.003125 -2.25875e-21 0.006875 46.7756
-0.003125 -2.25875e-21 0.006875 19.6862
0.0046875 -2.71051e-20 0.0059375 21.7767
-0.0059375 2.71051e-20 0.0046875 20.9535
-0.0046875 5.42101e-20 0.0059375 18.9774
0.0059375 -2.71051e-20 0.0046875 28.5278
-0.00749899 1.12938e-21 0.00120033 263.953
0.0075 1.12938e-21 0.00120022 360.877
0.00125 -1.12938e-21 0.0075 83.269
-0.00125 -1.12938e-21 0.0075 29.3195
-0.00625 0 0.00437499 21.7358
0.00625 0 0.00437499 32.5668
-0.004375 -1.12938e-21 0.00625 18.7815
0.004375 0 0.00625 23.73
-0.00718747 -2.71051e-20 0.00280427 29.0847
0.0071875 -5.42101e-20 0.00280426 74.8618
-0.0065625 2.71051e-20 0.00406235 22.4388
0.0065625 0 0.00406235 36.4307
0.0028125 0 0.0071875 59.7179
-0.0028125 5.42101e-20 0.0071875 19.7535
0.0040625 2.71051e-20 0.0065625 25.7835
-0.0040625 0 0.0065625 18.4865
-0.00749963 -1.12938e-21 0.00184156 82.8863
0.0075 0 0.0018415 213.264
0.001875 -2.25875e-21 0.0075 79.4385
-0.001875 -3.38813e-21 0.0075 23.3405
-0.00780909 -2.71051e-20 0.000292497 1179.98
0.0078125 -2.71051e-20 0.000292358 958.269
0.0003125 2.71051e-20 0.0078125 71.5338
-0.0003125 2.71051e-20 0.0078125 46.8611
-0.006875 0 0.00374964 23.7088
0.006875 -2.25875e-21 0.00374964 41.9908
0.00375 -1.12938e-21 0.006875 32.8191
-0.00375 0 0.006875 18.5189
-0.00781026 0 0.000892395 404.005
0.0078125 -2.71051e-20 0.000892183 444.653
-0.0009375 -5.42101e-20 0.0078125 31.1159
0.0009375 2.71051e-20 0.0078125 86.9153
-0.00749991 1.12938e-21 0.00248637 35.6012
0.0075 0 0.00248636 123.307
0.0025 -3.38813e-21 0.0075 71.268
-0.0025 -4.51751e-21 0.0075 20.3142
-0.005625 0 0.005625 18.9767
0.005625 0 0.005625 22.0197
-0.00781145 2.71051e-20 0.00152069 124.845
0.0078125 -5.42101e-20 0.00152054 275.413
-0.0071875 5.42101e-20 0.00343582 24.8328
0.0071875 0 0.00343582 48.8548
-0.0015625 0 0.0078125 24.1123
-0.0034375 0 0.0071875 18.4357
0.0015625 2.71051e-20 0.0078125 85.3486
-0.0053125 2.71051e-20 0.0059375 18.563
-0.0059375 -5.42101e-20 0.0053125 19.328
0.0034375 5.42101e-20 0.0071875 41.344
0.0053125 2.71051e-20 0.0059375 20.6562
0.00593751 0 0.00531251 23.4474
-0.005 -1.12938e-21 0.00625 18.2996
-0.00625 0 0.005 19.9916
0.005 1.12938e-21 0.00625 20.892
0.00625 -2.25875e-21 0.005 26.6006
-0.0046875 2.71051e-20 0.0065625 17.963
-0.0065625 2.71051e-20 0.0046875 20.567
0.0046875 5.42101e-20 0.0065625 21.2218
0.00656251 2.71051e-20 0.00468751 29.6518
-0.00808 0 0 1178.14
-0.00808006 -6.77626e-21 3.72558e-05 1178.14
0.008085 6.77626e-21 -1.96246e-65 958.816
0.008085 0 3.74199e-05 958.816
-0.00781215 0 0.00216406 42.5121
0.0078125 0 0.002164 173.339
0.0021875 2.71051e-20 0.0078125 80.6928
-0.0021875 2.71051e-20 0.0078125 20.6419
-0.00811962 0 0 1177.88
-0.00749999 1.12938e-21 0.00312179 26.6694
0.0075 -2.25875e-21 0.00312179 71.7336
0.003125 -3.38813e-21 0.0075 56.2106
-0.003125 -2.25875e-21 0.0075 18.6634
0.008125 -6.77626e-21 -2.05825e-65 958.94
-9.79465e-15 -2.25875e-21 0.008125 55.7462
-0.00812098 -1.12938e-21 0.000585543 794.33
0.008125 -1.12938e-21 0.000585362 691.911
-0.006875 0 0.00437499 21.3359
0.006875 -2.25875e-21 0.00437499 34.1713
0.000625 -1.12938e-21 0.008125 77.8341
-0.004375 0 0.006875 17.8736
-0.000625 -2.25875e-21 0.008125 36.3553
0.004375 -1.12938e-21 0.006875 24.6077
-0.00815905 6.77626e-21 0 1177.61
-0.0081592 -6.77626e-21 3.72599e-05 1177.61
0.008165 0 -4.50163e-59 959.047
0.008165 6.77626e-21 3.74199e-05 959.047
-0.00812288 1.12938e-21 0.00120037 266.671
0.008125 2.25875e-21 0.00120022 347.991
0.00125 0 0.008125 88.1736
-0.00125 -1.12938e-21 0.008125 26.3123
-0.0071875 2.71051e-20 0.00406235 22.036
0.00718751 0 0.00406235 38.7086
-0.0040625 2.71051e-20 0.0071875 17.7105
0.0040625 2.71051e-20 0.0071875 28.7577
-0.00781242 0 0.00280427 28.508
0.0078125 2.71051e-20 0.00280426 102.575
-0.0028125 5.42101e-20 0.0078125 18.7554
0.0028125 2.71051e-20 0.0078125 71.7638
-0.0081242 1.12938e-21 0.00184158 84.611
0.008125 1.12938e-21 0.0018415 229.126
0.001875 -1.12938e-21 0.008125 86.6375
-0.001875 -2.25875e-21 0.008125 21.6484
-0.0075 1.12938e-21 0.00374964 23.2154
0.0075 -1.12938e-21 0.00374965 48.1868
-0.00375 0 0.0075 17.7514
0.00375 -1.12938e-21 0.0075 39.4115
-0.0059375 0 0.0059375 18.3339
0.00593755 2.71051e-20 0.00593755 20.8421
-0.005625 0 0.00625 18.0387
-0.00625 -1.12938e-21 0.005625 18.7479
0.00562501 0 0.00625001 20.3643
0.00625002 -1.12938e-21 0.00562502 22.7587
-0.00843052 0 0.0002926 1175.78
0.0084375 -2.71051e-20 0.000292359 959.593
0.0003125 5.42101e-20 0.0084375 64.8798
-0.0065625 -2.71051e-20 0.0053125 19.1179
-0.0053125 0 0.0065625 17.695
-0.0003125 5.42101e-20 0.0084375 39.7095
0.00531253 2.71051e-20 0.00656253 19.912
0.00656255 -2.71051e-20 0.00531255 24.7743
-0.00843304 2.71051e-20 0.000892502 406.06
0.0084375 2.71051e-20 0.000892184 397.561
0.0009375 -5.42101e-20 0.0084375 88.0156
-0.0009375 5.42101e-20 0.0084375 27.7284
-0.0081248 0 0.00248638 35.4808
0.008125 1.12938e-21 0.00248636 151.218
0.0025 -2.25875e-21 0.008125 81.2558
-0.005 0 0.006875 17.5359
-0.006875 0 0.005 19.7443
-0.0025 -4.51751e-21 0.008125 19.2471
0.005 -1.12938e-21 0.006875 21.1223
0.00687503 -1.12938e-21 0.00500003 28.4817
-0.00781249 -2.71051e-20 0.00343582 24.2673
0.00781251 0 0.00343583 60.7594
-0.0034375 2.71051e-20 0.0078125 17.7086
0.0034375 -2.71051e-20 0.0078125 52.0169
-0.00843541 5.42101e-20 0.00152073 128.03
0.0084375 -2.71051e-20 0.00152054 272.469
0.0015625 -5.42101e-20 0.0084375 92.4217
-0.0046875 -5.42101e-20 0.0071875 17.3343
-0.0071875 2.71051e-20 0.0046875 20.3019
-0.0015625 0 0.0084375 22.2895
0.00468751 0 0.00718751 22.665
0.00718755 0 0.00468755 31.8939
-0.0075 0 0.00437499 21.0433
-0.004375 0 0.0075 17.2684
0.004375 2.25875e-21 0.0075 28.453
0.00750003 -1.12938e-21 0.00437502 37.7964
-0.00869981 0 0 1173.81
-0.00869995 6.77626e-21 3.70993e-05 1173.81
-0.00812497 0 0.00312179 26.1604
0.008125 0 0.00312179 96.3379
-0.003125 -3.38813e-21 0.008125 17.9321
0.003125 -1.12938e-21 0.008125 69.5417
-0.00843682 -5.42101e-20 0.00216404 42.8874
0.00871 0 -4.38768e-59 962.492
0.00871 0 3.74198e-05 962.492
0.0084375 0 0.002164 195.148
0.0021875 5.42101e-20 0.0084375 88.0881
-0.0021875 5.42101e-20 0.0084375 19.5484
-0.00873908 0 0 1173.53
0.00875 0 -8.88928e-59 962.947
-9.80309e-15 -2.25875e-21 0.00875 48.5374
-0.00874218 2.25875e-21 0.00058561 793.208
0.00875 -2.25875e-21 0.000585362 660.47
0.000625 -1.12938e-21 0.00875 73.4908
-0.000625 -3.38813e-21 0.00875 31.6994
-0.00877807 0 0 1173.23
-0.00877839 0 3.70981e-05 1173.23
0.00879 6.77626e-21 -3.00861e-53 963.396
0.00879 0 3.74197e-05 963.396
-0.0078125 2.71051e-20 0.00406235 21.7286
-0.0040625 2.71051e-20 0.0078125 17.1506
0.00406251 2.71051e-20 0.0078125 35.5234
0.00781256 0 0.00406241 44.4338
-0.00874591 0 0.00120037 269.248
0.00875 3.38813e-21 0.00120022 308.534
0.00125 0 0.00875 91.5742
-0.00125 -2.25875e-21 0.00875 24.0261
-0.00625 -1.12938e-21 0.00625 17.9044
0.00625014 3.38813e-21 0.00625014 21.0411
-0.0059375 0 0.0065625 17.5629
-0.0065625 5.42101e-20 0.0059375 18.2118
0.00593771 5.42101e-20 0.00656271 20.0462
0.00656276 0 0.00593776 21.9696
-0.005625 0 0.006875 17.37
-0.006875 -2.25875e-21 0.005625 18.6169
0.00562508 1.12938e-21 0.00687508 20.3313
0.00687515 -5.64689e-21 0.00562515 24.7389
-0.00843738 5.42101e-20 0.00280422 28.081
0.00843751 5.42101e-20 0.00280427 134.124
0.0028125 5.42101e-20 0.0084375 84.4808
-0.0028125 5.42101e-20 0.0084375 18.042
-0.0053125 -5.42101e-20 0.0071875 17.1513
-0.0071875 2.71051e-20 0.0053125 18.9903
0.00531262 0 0.00718762 20.6888
0.00718777 2.71051e-20 0.00531277 27.6059
-0.0087485 2.25875e-21 0.00184148 86.4623
0.00875 1.12938e-21 0.0018415 229.203
-0.008125 2.25875e-21 0.00374965 22.8185
0.00812503 0 0.00374967 63.1137
-0.00375 -2.25875e-21 0.008125 17.2202
0.001875 -1.12938e-21 0.00875 93.9337
-0.001875 -1.12938e-21 0.00875 20.3722
0.00375 0 0.008125 51.5424
-0.005 0 0.0075 17.0281
-0.0075 0 0.005 19.577
0.00500004 -1.12938e-21 0.00750004 23.4281
0.00750015 1.12938e-21 0.00500015 31.7458
-0.00904936 2.71051e-20 0.000292715 1171.26
0.0090625 2.71051e-20 0.000292358 966.295
0.0003125 2.71051e-20 0.0090625 55.3667
-0.0003125 -5.42101e-20 0.0090625 34.189
-0.0087497 -1.12938e-21 0.00248624 35.5513
0.00875 0 0.00248636 169.643
-0.00905444 2.71051e-20 0.000892414 407.858
0.0025 0 0.00875 90.194
-0.0025 -3.38813e-21 0.00875 18.465
0.0090625 2.71051e-20 0.000892181 309.849
-0.00843752 -2.71051e-20 0.00343577 23.8009
0.00843756 2.71051e-20 0.00343588 88.0496
-0.0046875 -5.42101e-20 0.0078125 16.8781
-0.0078125 -5.42101e-20 0.0046875 20.107
0.0009375 2.71051e-20 0.0090625 85.706
-0.0009375 5.42101e-20 0.0090625 25.1649
-0.0034375 5.42101e-20 0.0084375 17.222
0.0034375 -2.71051e-20 0.0084375 69.9074
0.00468756 2.71051e-20 0.00781256 26.8626
0.00781279 -2.71051e-20 0.00468779 36.1469
-0.00905899 0 0.0015203 131.23
0.0090625 0 0.00152054 253.096
-0.0015625 -5.42101e-20 0.0090625 20.919
0.0015625 0 0.0090625 100.166
-0.008125 2.25875e-21 0.00437499 20.818
-0.004375 -1.12938e-21 0.008125 16.8555
0.00437502 0 0.00812502 36.791