# omega  POINT_DATA 64962
# x  y  z  omega
0 -3.99946e-05 5.21085e-09 1232.91
-5.42101e-20 0.000272502 0.000292358 1231.24
5.42101e-20 -0.000352499 0.000292358 1234.59
0 0.000585009 5.11816e-09 1229.54
0 -3.99965e-05 0.000584718 817.757
-8.27181e-25 -0.000664995 5.31781e-09 1236.27
0 0.000585003 0.000584719 815.708
7.82637e-21 -0.000665003 0.00058472 819.835
0 0.000272501 0.000892183 395.587
-2.71051e-20 0.000897501 0.000292359 1227.83
0 -0.0003525 0.000892183 396.318
0 -0.0009775 0.000292358 1237.95
-2.06795e-25 -3.99985e-05 0.00119965 257.04
0 0.00121001 4.87434e-09 1226.07
-2.71051e-20 0.0008975 0.000892183 394.922
0 -0.00128999 5.46622e-09 1239.62
-2.71051e-20 -0.0009775 0.000892183 397.146
0 0.000585002 0.00119965 256.691
-4.1359e-25 0.00121 0.000584719 813.645
-8.22466e-21 -0.000665001 0.00119965 257.452
-2.0682e-20 -0.00129 0.000584719 821.964
2.71051e-20 0.0002725 0.00152054 116.114
0 0.0015225 0.000292358 1224.31
2.71051e-20 -0.0003525 0.00152054 116.128
2.71051e-20 -0.0016025 0.000292358 1241.28
1.03398e-25 0.00121 0.00119965 256.388
-1.63341e-20 -0.00129 0.00119965 257.941
-2.71051e-20 0.0015225 0.000892183 394.308
-2.71051e-20 0.0008975 0.00152054 116.14
-2.71051e-20 -0.0009775 0.00152054 116.193
-2.71051e-20 -0.0016025 0.000892183 398.095
0 0.001835 4.40292e-09 1222.49
3.17229e-21 -4.00002e-05 0.00184143 90.434
0 -0.00191499 5.51995e-09 1242.92
-2.28794e-20 0.001835 0.000584719 811.552
1.57478e-20 0.000585 0.00184143 90.3322
2.15287e-20 -0.000665 0.00184143 90.552
1.36472e-20 -0.001915 0.000584719 824.121
2.71051e-20 0.0015225 0.00152054 116.187
-8.13152e-20 0.0021475 0.000292358 1220.68
0 0.0002725 0.002164 64.5885
-1.77047e-20 0.001835 0.00119965 256.123
-2.71051e-20 -0.0003525 0.002164 64.8128
1.05576e-20 0.00121 0.00184143 90.2467
-2.71051e-20 -0.0016025 0.00152054 116.296
0 -0.0022275 0.000292358 1244.55
-5.34483e-21 -0.00129 0.00184143 90.6726
6.28471e-21 -0.001915 0.00119965 258.502
2.71051e-20 0.0021475 0.000892183 393.753
2.71051e-20 0.0008975 0.002164 64.394
-2.71051e-20 -0.0009775 0.002164 64.9819
0 -0.0022275 0.000892183 399.146
0 0.00246 3.63123e-09 1218.81
-1.30687e-20 -3.99999e-05 0.00248657 62.4528
2.29286e-20 0.00246 0.000584717 809.431
0 -0.00253999 5.46152e-09 1246.13
2.08414e-20 0.000585 0.00248657 62.2472
1.27114e-22 -0.000665 0.00248657 62.6184
-3.16773e-20 0.001835 0.00184143 90.1679
-3.8042e-21 -0.00254 0.00058472 826.281
-2.71051e-20 0.0021475 0.00152054 116.261
0 0.0015225 0.002164 64.1725
1.6167e-20 -0.001915 0.00184143 90.7918
0 -0.0016025 0.002164 65.128
2.71051e-20 -0.0022275 0.00152054 116.423
-4.10075e-20 0.00246 0.00119965 255.894
2.1123e-20 0.00121 0.00248657 62.027
2.71051e-20 0.0027725 0.000292358 1216.95
3.59738e-20 -0.00129 0.00248657 62.7355
-3.25744e-21 -0.00254 0.00119965 259.123
-5.42101e-20 0.0002725 0.00280426 60.125
-2.71051e-20 -0.0003525 0.00280426 60.3083
2.71051e-20 -0.0028525 0.000292358 1247.7
2.71051e-20 0.0027725 0.000892183 393.233
0 0.0008975 0.00280426 59.9049
0 -0.0009775 0.00280426 60.3943
0 -0.0028525 0.000892183 400.281
2.71051e-20 0.0021475 0.002164 63.9567
-2.44104e-20 0.00246 0.00184143 90.0901
0 0.003085 2.57439e-09 1215.01
-2.41305e-20 0.001835 0.00248657 61.7921
-5.42101e-20 -0.0022275 0.002164 65.2288
8.80323e-21 -4e-05 0.00312195 59.9758
-5.11549e-21 -0.00254 0.00184143 90.9072
3.62667e-22 -0.001915 0.00248657 62.8176
1.40358e-20 0.003085 0.000584717 807.254
0 0.0027725 0.00152054 116.355
0 -0.00316499 5.33244e-09 1249.26
6.70392e-21 0.000585 0.00312195 59.8055
5.42101e-20 0.0015225 0.00280426 59.66
-9.85718e-21 -0.000665 0.00312195 60.0815
1.37056e-20 -0.003165 0.00058472 828.45
2.71051e-20 -0.0016025 0.00280426 60.4621
0 -0.0028525 0.00152054 116.583
-4.84973e-21 0.003085 0.00119965 255.686
3.07691e-20 0.00121 0.00312195 59.5839
2.46993e-20 -0.00129 0.00312195 60.1391
-2.34547e-21 -0.003165 0.00119965 259.812
0 0.0033975 0.000292358 1213.07
-2.71051e-20 0.0002725 0.00343582 59.6928
-2.71051e-20 -0.0003525 0.00343582 59.7789
0 -0.0034775 0.000292358 1250.82
2.95342e-20 0.00246 0.00248657 61.5409
5.42101e-20 0.0033975 0.000892183 392.701
-2.71051e-20 0.0027725 0.002164 63.693
2.71051e-20 0.0021475 0.00280426 59.4027
2.71051e-20 0.0008975 0.00343582 59.5009
-3.59433e-21 -0.00254 0.00248657 62.8476
2.71051e-20 -0.0009775 0.00343582 59.8467
0 -0.0028525 0.002164 65.3021
-2.71051e-20 -0.0022275 0.00280426 60.4763
-2.71051e-20 -0.0034775 0.000892183 401.521
-1.74879e-20 0.003085 0.00184143 90.0108
7.94094e-21 0.001835 0.00312195 59.3319
1.29247e-26 0.00359372 0.000584717 805.403
0 0.00344619 0.00119965 255.572
1.47847e-20 -0.003165 0.00184143 91.0302
2.79755e-20 -0.001915 0.00312195 60.1284
0 0.00371 1.37831e-09 1211.03
5.42101e-20 0.0033975 0.00152054 116.491
0 0.00371 0.000533785 840.35
-3.09608e-21 -4e-05 0.00374969 60.8039
0 0.00371 0.000584717 804.98
-5.42101e-20 0.0015225 0.00343582 59.2715
8.27181e-25 -0.00378999 5.01249e-09 1252.33
0 -0.0016025 0.00343582 59.8559
2.93568e-20 0.000585 0.00374969 60.7086
-2.71051e-20 -0.0034775 0.00152054 116.79
-3.88513e-21 -0.000665 0.00374969 60.8132
6.93426e-21 -0.00379 0.000584719 830.638
3.23117e-27 0.00338244 0.00184143 89.9812
0 0.00371 0.00119965 255.488
-2.99531e-20 0.00121 0.00374969 60.5531
0 0.0027725 0.00280426 59.1352
1.20645e-20 0.003085 0.00248657 61.2503
-2.60883e-20 -0.00129 0.00374969 60.6891
-2.90713e-20 0.00246 0.00312195 59.0617
1.31232e-21 -0.00379 0.00119965 260.577
0 -0.0028525 0.00280426 60.4085
-1.65391e-20 -0.00254 0.00312195 59.9962
1.35571e-20 -0.003165 0.00248657 62.8127
0 0.0033975 0.002164 63.4091
2.71051e-20 0.0040225 0.000292358 1209
2.71051e-20 0.0021475 0.00343582 58.9948
0 0.0002725 0.00406234 61.8555
2.71051e-20 -0.0003525 0.00406235 61.8857
0 -0.0022275 0.00343582 59.722
-2.71051e-20 -0.0034775 0.002164 65.3532
-2.71051e-20 -0.0041025 0.000292358 1253.84
2.71051e-20 0.0040225 0.000892183 392.148
1.29247e-26 0.00371 0.00184143 89.9486
-2.71051e-20 0.0008975 0.00406235 61.7822
0 0.00334846 0.00248657 61.1176
1.74016e-20 0.001835 0.00374969 60.3312
2.71051e-20 -0.0009775 0.00406235 61.739
-2.71051e-20 -0.0041025 0.000892183 402.871
-1.75429e-20 -0.001915 0.00374969 60.403
1.5824e-20 -0.00379 0.00184143 91.146
0 0.0040225 0.00152054 116.656
5.16988e-26 0.004335 2.64124e-10 1206.81
-2.71051e-20 0.0015225 0.00406235 61.6547
0 0.004335 0.000206151 1064.28
2.71051e-20 -0.0016025 0.00406235 61.3126
0 0.004335 0.000584718 802.565
3.23421e-20 -4e-05 0.004375 63.0137
0 -0.0041025 0.00152054 117.035
2.14346e-20 0.003085 0.00312195 58.7587
-2.71051e-20 0.0033975 0.00280426 58.7878
7.04291e-21 0.000585 0.004375 63.1109
0 0.0027725 0.00343582 58.7157
8.27181e-25 -0.004415 4.40884e-09 1255.3
-1.70468e-20 -0.000665 0.004375 62.7183
3.02207e-20 -0.003165 0.00312195 59.7219
1.24681e-20 -0.004415 0.000584718 832.831
-2.71051e-20 -0.0028525 0.00343582 59.3817
3.23117e-27 0.00371 0.00248657 60.9355
0 -0.0034775 0.00280426 60.2135
1.34264e-20 0.00246 0.00374969 60.0542
0 0.004335 0.00119965 255.286
-2.85374e-20 -0.00254 0.00374969 59.9527
3.39441e-22 -0.00379 0.00248657 62.6809
2.98316e-21 0.00121 0.004375 63.0544
2.01948e-28 0.00331919 0.00312195 58.6263
2.95282e-21 -0.00129 0.004375 62.2096
2.71051e-20 0.0040225 0.002164 63.1421
-3.25237e-21 -0.004415 0.00119965 261.414
-5.42101e-20 0.0021475 0.00406234 61.4007
0 -0.0022275 0.00406234 60.72
0 -0.0041025 0.002164 65.3129
0 0.0046475 0.000292358 1204.62
0 0.0002725 0.0046875 64.3627
0 0.0047007 0 1204.18
-2.71051e-20 -0.0003525 0.0046875 63.9506
-2.58494e-26 0.004335 0.00184143 89.8929
2.71051e-20 0.0046475 0.000892183 391.558
0 -0.0047275 0.000292358 1256.76
-1.96117e-20 0.001835 0.004375 62.8911
0 0.0008975 0.0046875 64.4429
8.25788e-21 -0.001915 0.004375 61.5073
-4.21283e-21 -0.004415 0.00184143 91.2378
2.71051e-20 -0.0009775 0.0046875 63.2975
0 -0.0047275 0.000892183 404.324
-2.71051e-20 0.0033975 0.00343582 58.3977
0 0.00371 0.00312195 58.4054
2.30747e-20 0.003085 0.00374969 59.7443
0 -0.0034775 0.00343582 58.889
0 0.0046475 0.00152054 116.836
0 0.0040225 0.00280426 58.4276
1.4445e-20 -0.003165 0.00374969 59.3385
1.73763e-20 -0.00379 0.00312195 59.3139
0 0.0027725 0.00406234 61.1021
0 0.0015225 0.0046875 64.3374
0 -0.0016025 0.0046875 62.489
-2.58494e-26 0.00496 1.87278e-10 1202.32
2.71051e-20 -0.0028525 0.00406235 59.9861
0 -0.0047275 0.00152054 117.318
-2.71051e-20 -0.0041025 0.00280426 59.872
0 0.00329094 0.00374969 59.6292
0 0.00496 0.000584716 800.011
0 0.004335 0.00248657 60.6091
4.07742e-21 -4e-05 0.005 65.1298
-1.19273e-20 0.00246 0.004375 62.6411
-5.92257e-21 0.000585 0.005 65.6338
0 -0.00504 3.78226e-09 1258.15
1.9383e-20 -0.000665 0.005 64.3975
-7.04782e-21 -0.00254 0.004375 60.6187
1.50231e-20 -0.004415 0.00248657 62.4409
-1.23473e-20 -0.00504 0.000584717 835.01
0 0.00496 0.00119965 255.087
-5.42101e-20 0.0046475 0.002164 62.8403
4.07742e-21 0.00121 0.005 65.8947
2.71051e-20 0.0021475 0.0046875 64.1708
2.9383e-20 -0.00129 0.005 63.423
0 0.00517206 0 1200.73
5.2101e-21 -0.00504 0.00119965 262.314
-2.71051e-20 -0.0022275 0.0046875 61.5074
0 -0.0047275 0.002164 65.1914
0 0.00371 0.00374969 59.395
5.42101e-20 0.0052725 0.000292358 1200.03
-2.71051e-20 0.0040225 0.00343582 58.0103
0 0.00496 0.00184143 89.8412
0 0.0033975 0.00406235 60.7585
0 0.0002725 0.0053125 66.503
-2.71051e-20 -0.0003525 0.0053125 65.7029
1.55516e-20 0.001835 0.005 65.9229
-9.11772e-21 -0.00379 0.00374969 58.5627
-1.61559e-27 0.004335 0.00312195 58.0283
0 0.0052725 0.000892183 390.965
-2.71051e-20 -0.0034775 0.00406235 59.0966
-2.71051e-20 -0.0041025 0.00343582 58.2873
2.48063e-20 0.003085 0.004375 62.316
1.9383e-20 -0.001915 0.005 62.1832
2.71051e-20 -0.0053525 0.000292358 1259.55
-2.83891e-20 -0.00504 0.00184143 91.2969
0 0.0008975 0.0053125 67.2268
-7.65156e-21 -0.003165 0.004375 59.4963
-2.71051e-20 -0.0009775 0.0053125 64.639
-1.16794e-20 -0.004415 0.00312195 58.7816
2.71051e-20 -0.0053525 0.000892183 405.863
2.71051e-20 0.0046475 0.00280426 58.0514
0 0.0027725 0.0046875 63.8902
0 -0.0028525 0.0046875 60.2614
0 0.0052725 0.00152054 117.053
-2.71051e-20 -0.0047275 0.00280426 59.4167
2.71051e-20 0.0015225 0.0053125 67.5716
1.29247e-26 0.00496 0.00248657 60.2612
2.71051e-20 -0.0016025 0.0053125 63.2666
0 -0.0053525 0.00152054 117.628
-6.62257e-21 0.00246 0.005 65.7606
-5.16988e-26 0.005585 3.6468e-10 1197.64
-2.58494e-26 0.005585 0.000283111 1003.83
-5.92257e-21 -0.00254 0.005 60.6323
-5.16988e-26 0.005585 0.000584716 797.35
8.59893e-22 -0.00504 0.00248657 62.0927
-2.15959e-20 -4e-05 0.005625 66.7917
-2.15959e-20 0.000585 0.005625 67.8125
2.84041e-20 -0.000665 0.005625 65.4474
0 -0.005665 3.56636e-09 1260.88
5.16988e-26 0.00567058 0 1196.97
3.34491e-21 -0.005665 0.000584718 837.171
-2.71051e-20 0.0052725 0.002164 62.5368
0 0.005585 0.00119965 254.891
0 0.0040225 0.00406235 60.4107
-1.02552e-29 0.00371 0.00436442 61.8991
0 0.0021475 0.0053125 67.6119
-2.01948e-28 0.004335 0.00374969 59.008
-1.57772e-30 0.00371 0.004375 61.9422
-2.23594e-21 0.00121 0.005625 68.5446
-2.71051e-20 -0.0022275 0.0053125 61.4699
-1.09848e-20 -0.00129 0.005625 63.7263
-2.71051e-20 -0.0053525 0.002164 64.956
2.71051e-20 -0.0041025 0.00406235 57.9781
0 0.0046475 0.00343582 57.6257
-7.04562e-21 -0.00379 0.004375 58.1218
-5.42101e-20 0.0033975 0.0046875 63.5127
-2.11243e-20 -0.005665 0.00119965 263.27
-1.06713e-21 -0.004415 0.00374969 57.5939
-2.71051e-20 -0.0034775 0.0046875 58.6413
0 -0.0047275 0.00343582 57.5574
-1.61559e-27 0.00496 0.00312195 57.6279
1.6028e-20 0.003085 0.005 65.4325
0 0.005585 0.00184143 89.7978
2.71051e-20 0.0058975 0.000292358 1195.26
1.51458e-20 0.001835 0.005625 69.0237
-1.0617e-20 -0.003165 0.005 58.7965
1.40047e-20 -0.00504 0.00312195 58.1162
-3.09848e-20 -0.001915 0.005625 61.6637
5.42101e-20 0.0002725 0.0059375 68.2438
5.42101e-20 -0.0003525 0.0059375 66.717
1.23464e-20 -0.005665 0.00184143 91.3196
-2.71051e-20 0.0058975 0.000892183 390.336
0 0.0052725 0.00280426 57.6418
0 -0.0059775 0.000292358 1262.22
-2.71051e-20 0.0027725 0.0053125 67.3693
-2.71051e-20 0.0008975 0.0059375 69.2763
-2.71051e-20 -0.0009775 0.0059375 64.7308
-2.71051e-20 -0.0028525 0.0053125 59.2907
0 -0.0053525 0.00280426 58.8378
-2.71051e-20 -0.0059775 0.000892183 407.489
0 0.0058975 0.00152054 117.288
0 0.005585 0.00248657 59.8941
0 0.0015225 0.0059375 70.1037
-3.44752e-20 0.00246 0.005625 69.2307
-2.71051e-20 -0.0016025 0.0059375 62.2687
-2.20881e-29 0.004335 0.00437009 61.5135
-2.71051e-20 -0.0059775 0.00152054 117.956
1.84041e-20 -0.00254 0.005625 59.3192
0 0.0046475 0.00406235 59.9822
0 0.0040225 0.0046875 63.0866
-2.64154e-20 -0.005665 0.00248657 61.6364
-4.1359e-25 0.00621 2.29851e-09 1192.75
2.9562e-21 -0.004415 0.004375 56.5265
0 0.00496 0.00374969 58.5723
9.31606e-21 0.00371 0.005 65.0313
2.71051e-20 -0.0041025 0.0046875 56.7714
0 -0.0047275 0.00406235 56.5539
5.16988e-26 0.00621 0.000584717 794.564
-1.71493e-20 -4e-05 0.00625 67.2184
9.38296e-21 -0.00379 0.005 56.74
-3.24548e-20 0.000585 0.00625 69.098
7.70755e-21 -0.00504 0.00374969 56.4472
-2.71051e-20 0.0058975 0.002164 62.214
1.28507e-20 -0.000665 0.00625 64.9138
0 -0.00629 3.80663e-09 1263.51
-2.71051e-20 0.0052725 0.00343582 57.1948
-2.71051e-20 0.0033975 0.0053125 66.9576
-2.71051e-20 0.0021475 0.0059375 70.8076
8.95713e-21 -0.00629 0.000584718 839.322
0 0.00621 0.00119965 254.69
0 -0.0022275 0.0059375 59.6498
0 -0.0034775 0.0053125 56.9927
-2.71051e-20 -0.0059775 0.002164 64.6435
2.71051e-20 -0.0053525 0.00343582 56.6614
-7.40134e-21 0.00121 0.00625 70.5324
2.8507e-21 -0.00129 0.00625 62.2787
0 0.005585 0.00312195 57.2022
-2.91296e-20 -0.00629 0.00119965 264.275
1.35337e-20 0.003085 0.005625 69.1385
-5.67928e-21 -0.003165 0.005625 56.7679
3.93398e-21 -0.005665 0.00312195 57.2957
0 0.00621 0.00184143 89.7675
-1.386e-20 0.001835 0.00625 71.5897
-2.71051e-20 0.0065225 0.000292358 1190.25
0 0.0058975 0.00280426 57.21
-7.1493e-21 -0.001915 0.00625 59.3913
-5.42101e-20 0.0027725 0.0059375 71.1341
2.77798e-21 -0.00629 0.00184143 91.3082
-2.71051e-20 0.0002725 0.0065625 68.3385
0 -0.0003525 0.0065625 65.5745
2.71051e-20 0.0065225 0.000892183 389.665
-2.71051e-20 -0.0028525 0.0059375 56.8664
-2.71051e-20 0.0046475 0.0046875 62.587
0 -0.0059775 0.00280426 58.1413
-5.42101e-20 -0.0066025 0.000292358 1264.8
9.46633e-30 0.00496 0.0043705 61.0245
-3.38319e-20 0.004335 0.005 64.5503
-2.71051e-20 0.0008975 0.0065625 70.5334
0 0.00662526 0 1189.34
0 -0.0009775 0.0065625 62.633
-5.42101e-20 0.0052725 0.00406235 59.4835
0 -0.0047275 0.0046875 54.8028
0 -0.0066025 0.000892183 409.201
-2.71051e-20 0.0040225 0.0053125 66.5684
2.9383e-20 -0.004415 0.005 54.5333
-7.04214e-21 -0.00504 0.004375 54.7702
0 0.00621 0.00248657 59.5125
-2.71051e-20 0.0065225 0.00152054 117.562
0 -0.0041025 0.0053125 54.5546
-2.95607e-20 0.00246 0.00625 72.3003
0 -0.0053525 0.00406235 55.0179
2.63549e-21 0.005585 0.00374969 58.1015
-2.71051e-20 0.0015225 0.0065625 72.2162
-1.00101e-20 0.00371 0.005625 68.8054
-1.24548e-20 -0.00254 0.00625 56.3591
0 -0.0016025 0.0065625 59.4823
1.97224e-22 -0.00629 0.00248657 61.0755
-2.71051e-20 -0.0066025 0.00152054 118.292
-1.56793e-20 -0.00379 0.005625 54.0998
3.34345e-20 -0.005665 0.00374969 55.1475
0 0.0058975 0.00343582 56.7643
0 0.006835 1.16091e-09 1187.62
2.71051e-20 0.0033975 0.0059375 71.0931
0 0.006835 0.000526117 831.317
2.58494e-26 0.006835 0.000584717 791.632
-2.71051e-20 0.0065225 0.002164 61.9055
-3.97262e-20 -4e-05 0.006875 65.5156
-2.71051e-20 -0.0034775 0.0059375 53.9221
0 -0.0059775 0.00343582 55.5521
9.66277e-21 0.000585 0.006875 68.4587
5.42101e-20 0.0021475 0.0065625 73.2314
-2.97262e-20 -0.000665 0.006875 62.2699
0 -0.006915 4.03803e-09 1266.01
-5.42101e-20 -0.0022275 0.0065625 56.1644
-1.29247e-26 0.006835 0.00119965 254.48
-2.39882e-23 -0.006915 0.000584719 841.456
-2.71051e-20 -0.0066025 0.002164 64.2453
-1.61446e-20 0.00621 0.00312195 56.7498
2.19534e-20 0.003085 0.00625 72.75
6.13242e-21 0.00121 0.006875 71.0087
-3.97262e-20 -0.00129 0.006875 58.8577
2.28507e-20 -0.003165 0.00625 53.2265
-5.6727e-21 -0.006915 0.00119965 265.334
-2.08783e-20 -0.00629 0.00312195 56.332
-1.34952e-20 0.00496 0.005 64.0002
0 0.0052725 0.0046875 62.0562
0 0.0046475 0.0053125 65.9593
2.06795e-25 0.00706869 0 1185.61
0 0.006835 0.00184143 89.756
1.26218e-29 0.005585 0.00436918 60.4636
-2.0006e-20 -0.00504 0.005 52.2309
2.71051e-20 0.0065225 0.00280426 56.7474
-1.18213e-20 0.004335 0.005625 68.2778
0 -0.0047275 0.0053125 52.0045
-2.71051e-20 -0.0053525 0.0046875 52.7065
-2.67469e-20 0.001835 0.006875 73.0622
-2.71051e-20 0.0027725 0.0065625 74.0283
-2.03372e-20 -0.001915 0.006875 55.3353
-1.56793e-20 -0.004415 0.005625 51.3592
0 0.0071475 0.000292358 1184.99
0 -0.0028525 0.0065625 52.7559
-2.39114e-20 -0.006915 0.00184143 91.2594
3.23476e-20 -0.005665 0.004375 52.9051
0 0.0058975 0.00406235 58.9608
0 0.0040225 0.0059375 70.6027
2.71051e-20 -0.0066025 0.00280426 57.3072
0 0.0002725 0.0071875 65.849
5.42101e-20 -0.0003525 0.0071875 62.3004
0 0.0071475 0.000892183 388.942
-2.71051e-20 -0.0041025 0.0059375 50.9299
0 -0.0059775 0.00406235 53.3611
2.71051e-20 -0.0072275 0.000292358 1267.23
-5.42101e-20 0.0008975 0.0071875 69.1139
0 -0.0009775 0.0071875 58.5719
-1.00974e-28 0.00621 0.00374969 57.6004
-3.28358e-20 0.00371 0.00625 72.8745
0 0.006835 0.00248657 59.13
0 -0.0072275 0.000892183 411.008
-1.42118e-20 0.00246 0.006875 74.596
0 0.0071475 0.00152054 117.853
2.28507e-20 -0.00379 0.00625 50.0728
3.47575e-21 -0.00629 0.00374969 53.7153
2.90517e-20 -0.00254 0.006875 51.785
2.71051e-20 0.0015225 0.0071875 72.1714
-3.40358e-20 -0.006915 0.00248657 60.4076
0 -0.0016025 0.0071875 54.7438
2.71051e-20 0.0065225 0.00343582 56.2794
-2.71051e-20 -0.0072275 0.00152054 118.652
0 0.0033975 0.0065625 74.7444
-2.71051e-20 -0.0034775 0.0065625 49.3616
-2.71051e-20 -0.0066025 0.00343582 54.3387
0 0.00746 1.94396e-09 1182.26
-3.23117e-27 0.00736765 0.00119965 254.291
-2.71051e-20 0.0071475 0.002164 61.6018
0 0.00746 0.000584717 788.559
0 0.0052725 0.0053125 65.3983
3.27458e-20 0.005585 0.005 63.3523
-5.23739e-21 0.00496 0.005625 67.6895
-4.29909e-20 -4e-05 0.0075 61.5001
0 0.0021475 0.0071875 74.6301
-8.07794e-28 0.006835 0.00312195 56.2798
-4.29909e-20 0.000585 0.0075 65.3035
0 -0.0022275 0.0071875 50.9507
2.23147e-20 -0.000665 0.0075 57.5673
-2.71051e-20 0.0058975 0.0046875 61.3677
-2.36459e-20 0.003085 0.006875 75.6959
0 -0.00754 4.10809e-09 1268.39
0 0.0046475 0.0059375 69.981
2.71051e-20 -0.0053525 0.0053125 49.4097
-3.23117e-27 0.00746 0.00110516 336.362
2.71051e-20 -0.0072275 0.002164 63.7509
-9.84813e-22 -0.00504 0.005625 48.6038
-1.61559e-27 0.00746 0.00119965 254.258
-1.0617e-20 -0.005665 0.005 49.8716
1.29326e-20 -0.00754 0.000584719 843.568
9.05172e-21 -0.003165 0.006875 48.2941
-1.04621e-20 -0.006915 0.00312195 55.2609
0 -0.0047275 0.0059375 47.9481
1.26218e-29 0.00621 0.00436568 59.8234
-2.71051e-20 -0.0059775 0.0046875 50.5355
0 0.00621 0.004375 59.8571
4.06175e-20 0.00121 0.0075 68.9061
-3.17408e-21 0.004335 0.00625 72.6366
-4.29909e-20 -0.00129 0.0075 53.609
-1.30743e-20 -0.00754 0.00119965 266.44
-1.71493e-20 -0.004415 0.00625 46.9767
-1.29581e-20 -0.00629 0.004375 50.9596
1.00974e-27 0.00744463 0.00184143 89.7579
2.71051e-20 0.0071475 0.00280426 56.293
2.1215e-21 0.00746 0.00184143 89.7579
-2.71051e-20 0.0065225 0.00406235 58.3946
0 0.0040225 0.0065625 75.058
0 0.0027725 0.0071875 76.4942
-2.70792e-21 0.001835 0.0075 72.1789
2.71051e-20 -0.0028525 0.0071875 47.2691
2.71051e-20 -0.0041025 0.0065625 46.0777
2.01948e-28 0.00746 0.00206371 79.0724
-4.29909e-20 -0.001915 0.0075 49.7309
-5.42101e-20 -0.0066025 0.00406235 51.6126
-2.71051e-20 -0.0072275 0.00280426 56.3646
1.48364e-20 -0.00754 0.00184143 91.1705
2.71051e-20 0.0077725 0.000292358 1179.52
5.04871e-29 0.006835 0.00374969 57.0622
-2.93413e-22 0.00371 0.006875 76.3937
-2.71051e-20 0.0002725 0.0078125 61.0495
-2.71051e-20 -0.0003525 0.0078125 56.8017
-2.71051e-20 0.0077725 0.000892183 388.18
1.90517e-20 -0.00379 0.006875 44.9502
2.71051e-20 -0.0078525 0.000292358 1269.56
0 0.00746 0.00248657 58.745
0 0.0008975 0.0078125 65.2018
1.00273e-20 -0.006915 0.00374969 52.1991
-2.71051e-20 -0.0009775 0.0078125 52.5954
-6.46235e-27 0.00786457 0.000584717 786.497
4.18261e-21 0.00246 0.0075 75.0093
-2.71051e-20 -0.0078525 0.000892183 412.876
-4.29909e-20 -0.00254 0.0075 46.0232
2.71051e-20 0.0077725 0.00152054 118.178
1.55446e-20 0.005585 0.005625 67.0065
0 0.0071475 0.00343582 55.8013
0 0.0058975 0.0053125 64.587
1.97209e-20 -0.00754 0.00248657 59.642
2.71051e-20 0.0052725 0.0059375 69.4193
2.71051e-20 0.0033975 0.0071875 77.5167
2.71051e-20 0.0015225 0.0078125 69.1375
-2.39661e-20 0.00621 0.005 62.6065
-2.71051e-20 -0.0016025 0.0078125 48.5251
-2.01948e-28 0.00757916 0.00248657 58.671
4.35148e-21 0.00496 0.00625 72.123
-1.15959e-20 -0.005665 0.005625 45.8969
0 -0.0034775 0.0071875 43.7901
0 -0.0053525 0.0059375 45.0528
2.71051e-20 -0.0059775 0.0053125 46.8348
0 -0.0078525 0.00152054 119.022
2.71051e-20 -0.0072275 0.00343582 53.0462
-1.24548e-20 -0.00504 0.00625 44.0014
-5.42101e-20 0.0065225 0.0046875 60.7047
-1.65336e-20 -0.00629 0.005 47.5078
2.71051e-20 0.0046475 0.0065625 74.9048
-2.71051e-20 0.0077725 0.002164 61.2966
2.06795e-25 0.008085 1.44444e-09 1176.7
0 0.00746 0.00312195 55.8046
-2.71051e-20 -0.0047275 0.0065625 42.9512
0 -0.0066025 0.0046875 48.3298
-5.42101e-20 0.0021475 0.0078125 72.7767
-5.81611e-26 0.008085 0.000570109 795.15
-7.88861e-30 0.006835 0.0043569 59.1289
-6.35245e-21 0.008085 0.000584717 785.373
-1.39314e-20 0.003085 0.0075 77.2706
3.63518e-22 0.006835 0.004375 59.1905
-2.71051e-20 -0.0022275 0.0078125 44.7039
-1.52159e-20 -4e-05 0.008125 55.4681
-1.082e-20 0.004335 0.006875 76.8008
-4.29909e-20 -0.003165 0.0075 42.559
0 -0.0078525 0.002164 63.1575
-1.52159e-20 0.000585 0.008125 59.8299
-1.52159e-20 -0.000665 0.008125 51.206
-2.08793e-21 -0.00754 0.00312195 54.107
0 -0.008165 4.21754e-09 1270.69
-2.03372e-20 -0.004415 0.006875 41.8118
4.78938e-22 0.008085 0.00119965 254.036
-2.9591e-21 -0.006915 0.004375 48.9748
2.11779e-21 -0.008165 0.000584719 845.672
-9.96534e-22 0.00121 0.008125 64.171
2.71051e-20 0.0071475 0.00406235 57.7709
-1.52159e-20 -0.00129 0.008125 47.145
0 0.0040225 0.0071875 78.2558
-1.66199e-20 -0.008165 0.00119965 267.592
-2.71051e-20 0.0077725 0.00280426 55.8171
0 0.00765391 0.00312195 55.6526
2.71051e-20 -0.0041025 0.0071875 40.5714
-2.71051e-20 0.0027725 0.0078125 76.1364
-2.71051e-20 -0.0072275 0.00406235 49.8029
3.22763e-20 0.008085 0.00184143 89.7809
2.71051e-20 -0.0028525 0.0078125 41.1694
4.64997e-21 0.001835 0.008125 68.3774
0 -0.0078525 0.00280426 55.335
-1.52159e-20 -0.001915 0.008125 43.3705
0 0.00746 0.00374969 56.494
2.17313e-20 0.00371 0.0075 78.9348
5.42101e-20 0.0058975 0.0059375 68.6213
-2.76216e-20 -0.008165 0.00184143 91.0468
1.03398e-25 0.00837318 0 1174.08
2.26337e-20 0.00621 0.005625 66.207
6.82221e-21 0.005585 0.00625 71.396
0 0.0083975 0.000292359 1173.88
-4.29909e-20 -0.00379 0.0075 39.3928
2.71051e-20 0.0065225 0.0053125 63.7665
-2.71051e-20 0.0052725 0.0065625 74.1871
8.02302e-21 -0.00754 0.00374969 50.6307
5.42101e-20 -0.0059775 0.0059375 42.2904
-2.45484e-21 -0.005665 0.00625 41.1997
-1.69014e-20 -0.00629 0.005625 43.2918
0 0.0002725 0.0084375 54.2289
0 0.0083975 0.000892183 387.384
0 -0.0003525 0.0084375 49.7925
6.76795e-21 0.008085 0.00248657 58.3566
0 -0.0053525 0.0065625 40.0535
-4.00935e-20 0.006835 0.005 61.7764
0 -0.0066025 0.0053125 44.3312
1.3803e-20 0.00496 0.006875 76.8361
2.71051e-20 -0.0084775 0.000292359 1271.81
0 0.0008975 0.0084375 58.8396
3.39557e-20 0.00246 0.008125 72.3627
-2.71051e-20 -0.0009775 0.0084375 45.6346
0 0.0077725 0.00343582 55.3089
-1.52159e-20 -0.00254 0.008125 39.9395
-2.71051e-20 0.0033975 0.0078125 78.9351
6.31089e-30 0.00765087 0.00374969 56.3124
-2.71051e-20 -0.0084775 0.000892183 414.834
-1.03372e-20 -0.00504 0.006875 38.9282
-1.59226e-20 -0.006915 0.005 45.1871
-2.71051e-20 0.0083975 0.00152054 118.537
-1.5719e-20 -0.008165 0.00248657 58.7969
0 0.0071475 0.0046875 59.8916
-2.71051e-20 -0.0034775 0.0078125 38.0077
2.71051e-20 0.0046475 0.0071875 78.9846
-5.42101e-20 -0.0078525 0.00343582 51.6963
-2.71051e-20 0.0015225 0.0084375 63.5052
-2.71051e-20 -0.0016025 0.0084375 41.8247
0 -0.0047275 0.0071875 37.6468
3.15544e-30 0.00746 0.0042907 58.1917
2.71051e-20 -0.0084775 0.00152054 119.412
-2.71051e-20 -0.0072275 0.0046875 46.1547
0 0.00746 0.004375 58.4563
-3.69088e-21 0.004335 0.0075 80.1129
2.01948e-28 0.008085 0.00312195 55.3149
-2.71051e-20 0.0083975 0.002164 61.0091
-1.85227e-20 0.003085 0.008125 75.9973
2.23147e-20 -0.004415 0.0075 36.5559
2.71051e-20 0.0021475 0.0084375 68.0904
-2.06795e-25 0.00871 1.68827e-09 1171.02
2.95648e-21 -0.00754 0.004375 46.9935
-1.52159e-20 -0.003165 0.008125 36.8923
-2.71051e-20 -0.0022275 0.0084375 38.4283
3.60752e-21 0.00871 0.000584717 782.105
-1.02306e-20 -0.008165 0.00312195 52.8932
0 -0.0084775 0.002164 62.4943
4.20678e-20 -4e-05 0.00875 48.2649
3.28992e-21 0.000585 0.00875 52.6532
-2.71051e-20 0.0077725 0.00406234 57.0927
4.20678e-20 -0.000665 0.00875 44.2079
-2.71051e-20 0.0040225 0.0078125 81.0317
0 -0.00879 4.32624e-09 1272.92
2.39247e-20 0.00871 0.00119965 253.809
1.51192e-20 -0.00879 0.000584719 847.792
-1.05814e-20 0.00621 0.00625 70.6194
0 0.0065225 0.0059375 67.8534
0 0.0058975 0.0065625 73.3563
0 -0.0041025 0.0078125 35.2021
1.75093e-20 0.00121 0.00875 57.2809
0 -0.0078525 0.00406235 47.9822
3.28992e-21 -0.00129 0.00875 40.5444
-2.13266e-20 0.006835 0.005625 65.2712
0 0.0083975 0.00280426 55.3329
3.79006e-20 0.005585 0.006875 76.4606
7.54516e-21 -0.00629 0.00625 38.609
-9.70572e-21 -0.00879 0.00119965 268.802
0 -0.0059775 0.0065625 37.4021
2.71051e-20 -0.0066025 0.0059375 39.7108
-2.71051e-20 0.0027725 0.0084375 72.4475
-2.52176e-20 0.00871 0.00184143 89.8286
0 0.0071475 0.0053125 62.7429
-2.71051e-20 -0.0028525 0.0084375 35.4564
9.66278e-21 -0.005665 0.006875 36.327
4.12769e-21 0.008085 0.00374969 55.8994
-3.09848e-20 -0.006915 0.005625 40.8294
-2.71051e-20 0.0052725 0.0071875 79.2678
0 -0.0084775 0.00280426 54.2432
-2.42272e-20 0.00371 0.008125 79.1594
-1.15386e-20 0.001835 0.00875 62.0386
4.20678e-20 -0.001915 0.00875 37.3167
0 -0.0053525 0.0071875 35.0614
-1.92994e-20 -0.00379 0.008125 34.2412
0 -0.0072275 0.0053125 41.9327
3.87741e-26 0.0089555 0.000584717 780.785
-2.8787e-21 0.00746 0.005 60.8502
1.89053e-20 -0.00879 0.00184143 90.8999
2.02697e-21 -0.008165 0.00374969 49.0419
-2.52737e-21 0.00496 0.0075 80.827
-6.46235e-27 0.0089216 0.00119965 253.726
2.71051e-20 0.0090225 0.000292359 1168.16
2.23147e-20 -0.00504 0.0075 34.0696
2.9383e-20 -0.00754 0.005 42.9501
9.90624e-21 0.00871 0.00248657 57.9744
2.71051e-20 0.0090225 0.000892183 386.544
-5.42101e-20 0.0002725 0.0090625 46.541
-2.71051e-20 -0.0003525 0.0090625 42.4971
0 0.0083975 0.00343582 54.8029
-2.71051e-20 0.0077725 0.0046875 59.0696
-2.91776e-20 0.00246 0.00875 66.7959
0 0.0046475 0.0078125 82.1795
2.71051e-20 0.0033975 0.0084375 76.4702
-2.71051e-20 0.0008975 0.0090625 51.0032
2.71051e-20 -0.0091025 0.000292359 1274.02
4.20678e-20 -0.00254 0.00875 34.5253
2.71051e-20 -0.0009775 0.0090625 38.9074
0 -0.0034775 0.0084375 32.9356
-2.71051e-20 -0.0047275 0.0078125 32.8032
4.35819e-21 -0.00879 0.00248657 57.8923
2.71051e-20 -0.0078525 0.0046875 44.035
0 -0.0091025 0.000892183 416.892
-2.71051e-20 -0.0084775 0.00343582 50.314
-2.71051e-20 0.0090225 0.00152054 118.924
-1.61559e-27 0.00897863 0.00184143 89.86
-2.71051e-20 0.0015225 0.0090625 55.7757
3.28966e-21 0.008085 0.004375 57.6648
-2.71051e-20 -0.0016025 0.0090625 35.8111
3.78974e-20 0.004335 0.008125 81.6852
-2.71051e-20 -0.0091025 0.00152054 119.822
-1.92994e-20 -0.004415 0.008125 31.9641
-2.71051e-20 0.0065225 0.0065625 72.6465
1.94561e-20 0.00871 0.00312195 54.8177
-6.70105e-21 0.006835 0.00625 69.7189
-7.0405e-21 -0.008165 0.004375 45.0513
2.59702e-21 0.00621 0.006875 75.8026
6.09379e-21 0.003085 0.00875 71.4192
5.42101e-20 0.0090225 0.002164 60.7401
0 0.0071475 0.0059375 66.7219
0 0.0058975 0.0071875 79.0311
3.28992e-21 -0.003165 0.00875 32.1431
-2.71051e-20 -0.0066025 0.0065625 35.0327
-2.71051e-20 0.0021475 0.0090625 60.7831
1.96628e-20 -0.00629 0.006875 34.0232
-7.1493e-21 -0.006915 0.00625 36.2595
-3.0129e-20 -0.00879 0.00312195 51.6444
-2.71051e-20 0.0083975 0.00406235 56.3907
2.71051e-20 -0.0022275 0.0090625 33.2026
0 0.009335 7.95895e-10 1165.22
-7.93489e-22 0.00746 0.005625 64.2003
0 0.009335 0.000458767 861.992
0 0.0040225 0.0084375 80.2008
0 -0.0059775 0.0071875 32.7911
1.85568e-20 0.005585 0.0075 81.183
0 0.009335 0.000584717 778.744
-2.71051e-20 -0.0072275 0.0059375 37.3431
-2.71051e-20 -0.0091025 0.002164 61.768
3.28992e-21 -4e-05 0.009375 41.2011
0 -0.0041025 0.0084375 30.8196
3.28992e-21 0.000585 0.009375 45.0677
3.28992e-21 -0.000665 0.009375 37.8225
-4.29909e-20 -0.005665 0.0075 31.9177
0 -0.0084775 0.00406235 46.1805
0 0.00906691 0.00248657 57.7641
9.01519e-21 -0.00754 0.005625 38.5376
-1.29247e-26 0.009335 0.00119965 253.564
0 0.0077725 0.0053125 61.6967
0 -0.009415 4.24465e-09 1275.1
0 0.0052725 0.0078125 82.8763
5.78964e-21 -0.009415 0.000584719 849.933
0 0.0090225 0.00280426 54.8459
1.75093e-20 0.00121 0.009375 49.3798
0 0.00945648 0 1164.06
3.28992e-21 -0.00129 0.009375 34.9177
0 -0.0053525 0.0078125 30.7672
0 0.0027725 0.0090625 65.8628
0 -0.0078525 0.0053125 39.6782
2.70595e-20 0.00871 0.00374969 55.2881
2.99099e-20 -0.009415 0.00119965 270.072
-2.71051e-20 -0.0028525 0.0090625 31.0141
-1.66694e-21 0.00371 0.00875 75.8147
4.20678e-20 0.008085 0.005 59.8321
0 0.009335 0.00184143 89.9016
-2.24223e-20 0.00496 0.008125 83.524
-2.71051e-20 -0.0091025 0.00280426 53.1082
3.28992e-21 -0.00379 0.00875 30.129
-1.5622e-20 0.001835 0.009375 54.0717
2.11754e-20 -0.00879 0.00374969 47.4599
-1.92994e-20 -0.00504 0.008125 30.0285
3.28992e-21 -0.001915 0.009375 32.4529
-5.92257e-21 -0.008165 0.005 40.8272
-5.49693e-21 -0.009415 0.00184143 90.7418
-5.42101e-20 0.0083975 0.0046875 58.1058
-2.71051e-20 0.0046475 0.0084375 83.3289
2.71051e-20 0.0096475 0.000292359 1162.28
0 0.0090225 0.00343582 54.2911
-8.07794e-28 0.009335 0.00248657 57.606
0 -0.0047275 0.0084375 29.0318
0 0.0033975 0.0090625 70.8963