# p  POINT_DATA 64962
# x  y  z  p
0 -3.99946e-05 5.21085e-09 0.123969
-5.42101e-20 0.000272502 0.000292358 0.124036
5.42101e-20 -0.000352499 0.000292358 0.123901
0 0.000585009 5.11816e-09 0.124102
0 -3.99965e-05 0.000584718 0.123936
-8.27181e-25 -0.000664995 5.31781e-09 0.123831
0 0.000585003 0.000584719 0.124069
7.82637e-21 -0.000665003 0.00058472 0.123799
0 0.000272501 0.000892183 0.123969
-2.71051e-20 0.000897501 0.000292359 0.124168
0 -0.0003525 0.000892183 0.123835
0 -0.0009775 0.000292358 0.123761
-2.06795e-25 -3.99985e-05 0.00119965 0.123811
0 0.00121001 4.87434e-09 0.124233
-2.71051e-20 0.0008975 0.000892183 0.1241
0 -0.00128999 5.46622e-09 0.123689
-2.71051e-20 -0.0009775 0.000892183 0.123697
0 0.000585002 0.00119965 0.123943
-4.1359e-25 0.00121 0.000584719 0.124199
-8.22466e-21 -0.000665001 0.00119965 0.123675
-2.0682e-20 -0.00129 0.000584719 0.123658
2.71051e-20 0.0002725 0.00152054 0.123785
0 0.0015225 0.000292358 0.124297
2.71051e-20 -0.0003525 0.00152054 0.123651
2.71051e-20 -0.0016025 0.000292358 0.123617
1.03398e-25 0.00121 0.00119965 0.124073
-1.63341e-20 -0.00129 0.00119965 0.123536
-2.71051e-20 0.0015225 0.000892183 0.124228
-2.71051e-20 0.0008975 0.00152054 0.123915
-2.71051e-20 -0.0009775 0.00152054 0.123514
-2.71051e-20 -0.0016025 0.000892183 0.123555
0 0.001835 4.40292e-09 0.12436
3.17229e-21 -4.00002e-05 0.00184143 0.123582
0 -0.00191499 5.51995e-09 0.123543
-2.28794e-20 0.001835 0.000584719 0.124326
1.57478e-20 0.000585 0.00184143 0.123715
2.15287e-20 -0.000665 0.00184143 0.123446
1.36472e-20 -0.001915 0.000584719 0.123513
2.71051e-20 0.0015225 0.00152054 0.124044
-8.13152e-20 0.0021475 0.000292358 0.124423
0 0.0002725 0.002164 0.123513
-1.77047e-20 0.001835 0.00119965 0.124199
-2.71051e-20 -0.0003525 0.002164 0.123378
1.05576e-20 0.00121 0.00184143 0.123844
-2.71051e-20 -0.0016025 0.00152054 0.123372
0 -0.0022275 0.000292358 0.123469
-5.34483e-21 -0.00129 0.00184143 0.123307
6.28471e-21 -0.001915 0.00119965 0.123391
2.71051e-20 0.0021475 0.000892183 0.124353
2.71051e-20 0.0008975 0.002164 0.123644
-2.71051e-20 -0.0009775 0.002164 0.12324
0 -0.0022275 0.000892183 0.123408
0 0.00246 3.63123e-09 0.124485
-1.30687e-20 -3.99999e-05 0.00248657 0.123281
2.29286e-20 0.00246 0.000584717 0.12445
0 -0.00253999 5.46152e-09 0.123392
2.08414e-20 0.000585 0.00248657 0.123416
1.27114e-22 -0.000665 0.00248657 0.123144
-3.16773e-20 0.001835 0.00184143 0.123972
-3.8042e-21 -0.00254 0.00058472 0.123363
-2.71051e-20 0.0021475 0.00152054 0.124169
0 0.0015225 0.002164 0.123773
1.6167e-20 -0.001915 0.00184143 0.123163
0 -0.0016025 0.002164 0.123099
2.71051e-20 -0.0022275 0.00152054 0.123226
-4.10075e-20 0.00246 0.00119965 0.124324
2.1123e-20 0.00121 0.00248657 0.123548
2.71051e-20 0.0027725 0.000292358 0.124547
3.59738e-20 -0.00129 0.00248657 0.123003
-3.25744e-21 -0.00254 0.00119965 0.123242
-5.42101e-20 0.0002725 0.00280426 0.123186
-2.71051e-20 -0.0003525 0.00280426 0.123049
2.71051e-20 -0.0028525 0.000292358 0.123315
2.71051e-20 0.0027725 0.000892183 0.124476
0 0.0008975 0.00280426 0.123321
0 -0.0009775 0.00280426 0.122908
0 -0.0028525 0.000892183 0.123256
2.71051e-20 0.0021475 0.002164 0.1239
-2.44104e-20 0.00246 0.00184143 0.124097
0 0.003085 2.57439e-09 0.124608
-2.41305e-20 0.001835 0.00248657 0.123677
-5.42101e-20 -0.0022275 0.002164 0.122953
8.80323e-21 -4e-05 0.00312195 0.122943
-5.11549e-21 -0.00254 0.00184143 0.123015
3.62667e-22 -0.001915 0.00248657 0.122858
1.40358e-20 0.003085 0.000584717 0.124573
0 0.0027725 0.00152054 0.124293
0 -0.00316499 5.33244e-09 0.123236
6.70392e-21 0.000585 0.00312195 0.123081
5.42101e-20 0.0015225 0.00280426 0.123453
-9.85718e-21 -0.000665 0.00312195 0.122802
1.37056e-20 -0.003165 0.00058472 0.123207
2.71051e-20 -0.0016025 0.00280426 0.122765
0 -0.0028525 0.00152054 0.123075
-4.84973e-21 0.003085 0.00119965 0.124446
3.07691e-20 0.00121 0.00312195 0.123217
2.46993e-20 -0.00129 0.00312195 0.122657
-2.34547e-21 -0.003165 0.00119965 0.123088
0 0.0033975 0.000292358 0.124669
-2.71051e-20 0.0002725 0.00343582 0.122839
-2.71051e-20 -0.0003525 0.00343582 0.122697
0 -0.0034775 0.000292358 0.123156
2.95342e-20 0.00246 0.00248657 0.123805
5.42101e-20 0.0033975 0.000892183 0.124597
-2.71051e-20 0.0027725 0.002164 0.124026
2.71051e-20 0.0021475 0.00280426 0.123583
2.71051e-20 0.0008975 0.00343582 0.122979
-3.59433e-21 -0.00254 0.00248657 0.122709
2.71051e-20 -0.0009775 0.00343582 0.122552
0 -0.0028525 0.002164 0.122803
-2.71051e-20 -0.0022275 0.00280426 0.122617
-2.71051e-20 -0.0034775 0.000892183 0.123099
-1.74879e-20 0.003085 0.00184143 0.124221
7.94094e-21 0.001835 0.00312195 0.123352
1.29247e-26 0.00359372 0.000584717 0.124671
0 0.00344619 0.00119965 0.124516
1.47847e-20 -0.003165 0.00184143 0.122861
2.79755e-20 -0.001915 0.00312195 0.122509
0 0.00371 1.37831e-09 0.12473
5.42101e-20 0.0033975 0.00152054 0.124415
0 0.00371 0.000533785 0.124697
-3.09608e-21 -4e-05 0.00374969 0.122597
0 0.00371 0.000584717 0.124694
-5.42101e-20 0.0015225 0.00343582 0.123117
8.27181e-25 -0.00378999 5.01249e-09 0.123074
0 -0.0016025 0.00343582 0.122404
2.93568e-20 0.000585 0.00374969 0.122742
-2.71051e-20 -0.0034775 0.00152054 0.122919
-3.88513e-21 -0.000665 0.00374969 0.122451
6.93426e-21 -0.00379 0.000584719 0.123046
3.23117e-27 0.00338244 0.00184143 0.124279
0 0.00371 0.00119965 0.124567
-2.99531e-20 0.00121 0.00374969 0.122884
0 0.0027725 0.00280426 0.123712
1.20645e-20 0.003085 0.00248657 0.123932
-2.60883e-20 -0.00129 0.00374969 0.122301
-2.90713e-20 0.00246 0.00312195 0.123485
1.31232e-21 -0.00379 0.00119965 0.122929
0 -0.0028525 0.00280426 0.122465
-1.65391e-20 -0.00254 0.00312195 0.122357
1.35571e-20 -0.003165 0.00248657 0.122555
0 0.0033975 0.002164 0.12415
2.71051e-20 0.0040225 0.000292358 0.12479
2.71051e-20 0.0021475 0.00343582 0.123254
0 0.0002725 0.00406234 0.1225
2.71051e-20 -0.0003525 0.00406235 0.122352
0 -0.0022275 0.00343582 0.122252
-2.71051e-20 -0.0034775 0.002164 0.122647
-2.71051e-20 -0.0041025 0.000292358 0.122992
2.71051e-20 0.0040225 0.000892183 0.124718
1.29247e-26 0.00371 0.00184143 0.124343
-2.71051e-20 0.0008975 0.00406235 0.122647
0 0.00334846 0.00248657 0.123985
1.74016e-20 0.001835 0.00374969 0.123024
2.71051e-20 -0.0009775 0.00406235 0.122201
-2.71051e-20 -0.0041025 0.000892183 0.122936
-1.75429e-20 -0.001915 0.00374969 0.122147
1.5824e-20 -0.00379 0.00184143 0.122703
0 0.0040225 0.00152054 0.124535
5.16988e-26 0.004335 2.64124e-10 0.124849
-2.71051e-20 0.0015225 0.00406235 0.122791
0 0.004335 0.000206151 0.124837
2.71051e-20 -0.0016025 0.00406235 0.122045
0 0.004335 0.000584718 0.124813
3.23421e-20 -4e-05 0.004375 0.122265
0 -0.0041025 0.00152054 0.122758
2.14346e-20 0.003085 0.00312195 0.123616
-2.71051e-20 0.0033975 0.00280426 0.123841
7.04291e-21 0.000585 0.004375 0.122415
0 0.0027725 0.00343582 0.123389
8.27181e-25 -0.004415 4.40884e-09 0.122907
-1.70468e-20 -0.000665 0.004375 0.122111
3.02207e-20 -0.003165 0.00312195 0.1222
1.24681e-20 -0.004415 0.000584718 0.12288
-2.71051e-20 -0.0028525 0.00343582 0.122095
3.23117e-27 0.00371 0.00248657 0.124058
0 -0.0034775 0.00280426 0.122307
1.34264e-20 0.00246 0.00374969 0.123164
0 0.004335 0.00119965 0.124686
-2.85374e-20 -0.00254 0.00374969 0.12199
3.39441e-22 -0.00379 0.00248657 0.122396
2.98316e-21 0.00121 0.004375 0.122564
2.01948e-28 0.00331919 0.00312195 0.123665
2.95282e-21 -0.00129 0.004375 0.121954
2.71051e-20 0.0040225 0.002164 0.124273
-3.25237e-21 -0.004415 0.00119965 0.122764
-5.42101e-20 0.0021475 0.00406234 0.122934
0 -0.0022275 0.00406234 0.121887
0 -0.0041025 0.002164 0.122486
0 0.0046475 0.000292358 0.124909
0 0.0002725 0.0046875 0.122181
0 0.0047007 0 0.124918
-2.71051e-20 -0.0003525 0.0046875 0.122025
-2.58494e-26 0.004335 0.00184143 0.124464
2.71051e-20 0.0046475 0.000892183 0.124836
0 -0.0047275 0.000292358 0.122822
-1.96117e-20 0.001835 0.004375 0.122711
0 0.0008975 0.0046875 0.122333
8.25788e-21 -0.001915 0.004375 0.121794
-4.21283e-21 -0.004415 0.00184143 0.122539
2.71051e-20 -0.0009775 0.0046875 0.121866
0 -0.0047275 0.000892183 0.122768
-2.71051e-20 0.0033975 0.00343582 0.123524
0 0.00371 0.00312195 0.123747
2.30747e-20 0.003085 0.00374969 0.123302
0 -0.0034775 0.00343582 0.121933
0 0.0046475 0.00152054 0.124655
0 0.0040225 0.00280426 0.123968
1.4445e-20 -0.003165 0.00374969 0.121827
1.73763e-20 -0.00379 0.00312195 0.122038
0 0.0027725 0.00406234 0.123076
0 0.0015225 0.0046875 0.122485
0 -0.0016025 0.0046875 0.121704
-2.58494e-26 0.00496 1.87278e-10 0.124968
2.71051e-20 -0.0028525 0.00406235 0.121724
0 -0.0047275 0.00152054 0.122591
-2.71051e-20 -0.0041025 0.00280426 0.122144
0 0.00329094 0.00374969 0.123347
0 0.00496 0.000584716 0.124931
0 0.004335 0.00248657 0.124182
4.07742e-21 -4e-05 0.005 0.121954
-1.19273e-20 0.00246 0.004375 0.122857
-5.92257e-21 0.000585 0.005 0.122112
0 -0.00504 3.78226e-09 0.122734
1.9383e-20 -0.000665 0.005 0.121793
-7.04782e-21 -0.00254 0.004375 0.121629
1.50231e-20 -0.004415 0.00248657 0.122231
-1.23473e-20 -0.00504 0.000584717 0.122708
0 0.00496 0.00119965 0.124805
-5.42101e-20 0.0046475 0.002164 0.124395
4.07742e-21 0.00121 0.005 0.122268
2.71051e-20 0.0021475 0.0046875 0.122634
2.9383e-20 -0.00129 0.005 0.121629
0 0.00517206 0 0.125007
5.2101e-21 -0.00504 0.00119965 0.122593
-2.71051e-20 -0.0022275 0.0046875 0.121538
0 -0.0047275 0.002164 0.122319
0 0.00371 0.00374969 0.123439
5.42101e-20 0.0052725 0.000292358 0.125027
-2.71051e-20 0.0040225 0.00343582 0.123658
0 0.00496 0.00184143 0.124584
0 0.0033975 0.00406235 0.123218
0 0.0002725 0.0053125 0.121887
-2.71051e-20 -0.0003525 0.0053125 0.121724
1.55516e-20 0.001835 0.005 0.122422
-9.11772e-21 -0.00379 0.00374969 0.12166
-1.61559e-27 0.004335 0.00312195 0.123878
0 0.0052725 0.000892183 0.124954
-2.71051e-20 -0.0034775 0.00406235 0.121557
-2.71051e-20 -0.0041025 0.00343582 0.121767
2.48063e-20 0.003085 0.004375 0.123002
1.9383e-20 -0.001915 0.005 0.121461
2.71051e-20 -0.0053525 0.000292358 0.122646
-2.83891e-20 -0.00504 0.00184143 0.122369
0 0.0008975 0.0053125 0.122047
-7.65156e-21 -0.003165 0.004375 0.121461
-2.71051e-20 -0.0009775 0.0053125 0.121558
-1.16794e-20 -0.004415 0.00312195 0.12187
2.71051e-20 -0.0053525 0.000892183 0.122593
2.71051e-20 0.0046475 0.00280426 0.124095
0 0.0027725 0.0046875 0.122782
0 -0.0028525 0.0046875 0.121368
0 0.0052725 0.00152054 0.124773
-2.71051e-20 -0.0047275 0.00280426 0.121976
2.71051e-20 0.0015225 0.0053125 0.122205
1.29247e-26 0.00496 0.00248657 0.124306
2.71051e-20 -0.0016025 0.0053125 0.121388
0 -0.0053525 0.00152054 0.122418
-6.62257e-21 0.00246 0.005 0.122574
-5.16988e-26 0.005585 3.6468e-10 0.125085
-2.58494e-26 0.005585 0.000283111 0.125067
-5.92257e-21 -0.00254 0.005 0.121289
-5.16988e-26 0.005585 0.000584716 0.125048
8.59893e-22 -0.00504 0.00248657 0.12206
-2.15959e-20 -4e-05 0.005625 0.121674
-2.15959e-20 0.000585 0.005625 0.12184
2.84041e-20 -0.000665 0.005625 0.121506
0 -0.005665 3.56636e-09 0.122555
5.16988e-26 0.00567058 0 0.1251
3.34491e-21 -0.005665 0.000584718 0.122529
-2.71051e-20 0.0052725 0.002164 0.124516
0 0.005585 0.00119965 0.124922
0 0.0040225 0.00406235 0.123358
-1.02552e-29 0.00371 0.00436442 0.12315
0 0.0021475 0.0053125 0.122361
-2.01948e-28 0.004335 0.00374969 0.123576
-1.57772e-30 0.00371 0.004375 0.123145
-2.23594e-21 0.00121 0.005625 0.122003
-2.71051e-20 -0.0022275 0.0053125 0.121214
-1.09848e-20 -0.00129 0.005625 0.121334
-2.71051e-20 -0.0053525 0.002164 0.122146
2.71051e-20 -0.0041025 0.00406235 0.121384
0 0.0046475 0.00343582 0.123792
-7.04562e-21 -0.00379 0.004375 0.121287
-5.42101e-20 0.0033975 0.0046875 0.12293
-2.11243e-20 -0.005665 0.00119965 0.122417
-1.06713e-21 -0.004415 0.00374969 0.121488
-2.71051e-20 -0.0034775 0.0046875 0.121193
0 -0.0047275 0.00343582 0.121594
-1.61559e-27 0.00496 0.00312195 0.124008
1.6028e-20 0.003085 0.005 0.122725
0 0.005585 0.00184143 0.124704
2.71051e-20 0.0058975 0.000292358 0.125143
1.51458e-20 0.001835 0.005625 0.122164
-1.0617e-20 -0.003165 0.005 0.121112
1.40047e-20 -0.00504 0.00312195 0.121697
-3.09848e-20 -0.001915 0.005625 0.121157
5.42101e-20 0.0002725 0.0059375 0.121629
5.42101e-20 -0.0003525 0.0059375 0.121458
1.23464e-20 -0.005665 0.00184143 0.122193
-2.71051e-20 0.0058975 0.000892183 0.12507
0 0.0052725 0.00280426 0.124221
0 -0.0059775 0.000292358 0.122464
-2.71051e-20 0.0027725 0.0053125 0.122516
-2.71051e-20 0.0008975 0.0059375 0.121797
-2.71051e-20 -0.0009775 0.0059375 0.121283
-2.71051e-20 -0.0028525 0.0053125 0.121035
0 -0.0053525 0.00280426 0.121801
-2.71051e-20 -0.0059775 0.000892183 0.122413
0 0.0058975 0.00152054 0.124891
0 0.005585 0.00248657 0.12443
0 0.0015225 0.0059375 0.121963
-3.44752e-20 0.00246 0.005625 0.122323
-2.71051e-20 -0.0016025 0.0059375 0.121105
-2.20881e-29 0.004335 0.00437009 0.123289
-2.71051e-20 -0.0059775 0.00152054 0.122239
1.84041e-20 -0.00254 0.005625 0.120977
0 0.0046475 0.00406235 0.123498
0 0.0040225 0.0046875 0.123076
-2.64154e-20 -0.005665 0.00248657 0.121883
-4.1359e-25 0.00621 2.29851e-09 0.1252
2.9562e-21 -0.004415 0.004375 0.121108
0 0.00496 0.00374969 0.123713
9.31606e-21 0.00371 0.005 0.122874
2.71051e-20 -0.0041025 0.0046875 0.121014
0 -0.0047275 0.00406235 0.121206
5.16988e-26 0.00621 0.000584717 0.125164
-1.71493e-20 -4e-05 0.00625 0.121434
9.38296e-21 -0.00379 0.005 0.120931
-3.24548e-20 0.000585 0.00625 0.121608
7.70755e-21 -0.00504 0.00374969 0.12131
-2.71051e-20 0.0058975 0.002164 0.124636
1.28507e-20 -0.000665 0.00625 0.121256
0 -0.00629 3.80663e-09 0.12237
-2.71051e-20 0.0052725 0.00343582 0.123925
-2.71051e-20 0.0033975 0.0053125 0.122669
-2.71051e-20 0.0021475 0.0059375 0.122127
8.95713e-21 -0.00629 0.000584718 0.122345
0 0.00621 0.00119965 0.125039
0 -0.0022275 0.0059375 0.120922
0 -0.0034775 0.0053125 0.120853
-2.71051e-20 -0.0059775 0.002164 0.121967
2.71051e-20 -0.0053525 0.00343582 0.121417
-7.40134e-21 0.00121 0.00625 0.12178
2.8507e-21 -0.00129 0.00625 0.121075
0 0.005585 0.00312195 0.124137
-2.91296e-20 -0.00629 0.00119965 0.122233
1.35337e-20 0.003085 0.005625 0.122481
-5.67928e-21 -0.003165 0.005625 0.120792
3.93398e-21 -0.005665 0.00312195 0.121518
0 0.00621 0.00184143 0.124823
-1.386e-20 0.001835 0.00625 0.121949
-2.71051e-20 0.0065225 0.000292358 0.125258
0 0.0058975 0.00280426 0.124348
-7.1493e-21 -0.001915 0.00625 0.120889
-5.42101e-20 0.0027725 0.0059375 0.122289
2.77798e-21 -0.00629 0.00184143 0.12201
-2.71051e-20 0.0002725 0.0065625 0.121414
0 -0.0003525 0.0065625 0.121234
2.71051e-20 0.0065225 0.000892183 0.125186
-2.71051e-20 -0.0028525 0.0059375 0.120735
-2.71051e-20 0.0046475 0.0046875 0.123222
0 -0.0059775 0.00280426 0.12162
-5.42101e-20 -0.0066025 0.000292358 0.122276
9.46633e-30 0.00496 0.0043705 0.123431
-3.38319e-20 0.004335 0.005 0.123023
-2.71051e-20 0.0008975 0.0065625 0.121592
0 0.00662526 0 0.125276
0 -0.0009775 0.0065625 0.121049
-5.42101e-20 0.0052725 0.00406235 0.123638
0 -0.0047275 0.0046875 0.120828
0 -0.0066025 0.000892183 0.122226
-2.71051e-20 0.0040225 0.0053125 0.122821
2.9383e-20 -0.004415 0.005 0.120745
-7.04214e-21 -0.00504 0.004375 0.120924
0 0.00621 0.00248657 0.124553
-2.71051e-20 0.0065225 0.00152054 0.125008
0 -0.0041025 0.0053125 0.120665
-2.95607e-20 0.00246 0.00625 0.122116
0 -0.0053525 0.00406235 0.121023
2.63549e-21 0.005585 0.00374969 0.123849
-2.71051e-20 0.0015225 0.0065625 0.121767
-1.00101e-20 0.00371 0.005625 0.122637
-1.24548e-20 -0.00254 0.00625 0.120699
0 -0.0016025 0.0065625 0.120861
1.97224e-22 -0.00629 0.00248657 0.1217
-2.71051e-20 -0.0066025 0.00152054 0.122053
-1.56793e-20 -0.00379 0.005625 0.120602
3.34345e-20 -0.005665 0.00374969 0.121127
0 0.0058975 0.00343582 0.124058
0 0.006835 1.16091e-09 0.125314
2.71051e-20 0.0033975 0.0059375 0.122448
0 0.006835 0.000526117 0.125282
2.58494e-26 0.006835 0.000584717 0.125279
-2.71051e-20 0.0065225 0.002164 0.124757
-3.97262e-20 -4e-05 0.006875 0.121238
-2.71051e-20 -0.0034775 0.0059375 0.120543
0 -0.0059775 0.00343582 0.121233
9.66277e-21 0.000585 0.006875 0.121422
5.42101e-20 0.0021475 0.0065625 0.12194
-2.97262e-20 -0.000665 0.006875 0.12105
0 -0.006915 4.03803e-09 0.122179
-5.42101e-20 -0.0022275 0.0065625 0.120668
-1.29247e-26 0.006835 0.00119965 0.125155
-2.39882e-23 -0.006915 0.000584719 0.122154
-2.71051e-20 -0.0066025 0.002164 0.121782
-1.61446e-20 0.00621 0.00312195 0.124267
2.19534e-20 0.003085 0.00625 0.122281
6.13242e-21 0.00121 0.006875 0.121604
-3.97262e-20 -0.00129 0.006875 0.120858
2.28507e-20 -0.003165 0.00625 0.120505
-5.6727e-21 -0.006915 0.00119965 0.122044
-2.08783e-20 -0.00629 0.00312195 0.121332
-1.34952e-20 0.00496 0.005 0.123172
0 0.0052725 0.0046875 0.123367
0 0.0046475 0.0053125 0.122973
2.06795e-25 0.00706869 0 0.125357
0 0.006835 0.00184143 0.124941
1.26218e-29 0.005585 0.00436918 0.123574
-2.0006e-20 -0.00504 0.005 0.120553
2.71051e-20 0.0065225 0.00280426 0.124474
-1.18213e-20 0.004335 0.005625 0.122792
0 -0.0047275 0.0053125 0.120472
-2.71051e-20 -0.0053525 0.0046875 0.120638
-2.67469e-20 0.001835 0.006875 0.121783
-2.71051e-20 0.0027725 0.0065625 0.12211
-2.03372e-20 -0.001915 0.006875 0.120662
-1.56793e-20 -0.004415 0.005625 0.120407
0 0.0071475 0.000292358 0.125372
0 -0.0028525 0.0065625 0.120471
-2.39114e-20 -0.006915 0.00184143 0.121821
3.23476e-20 -0.005665 0.004375 0.120735
0 0.0058975 0.00406235 0.123777
0 0.0040225 0.0059375 0.122607
2.71051e-20 -0.0066025 0.00280426 0.121434
0 0.0002725 0.0071875 0.121247
5.42101e-20 -0.0003525 0.0071875 0.121055
0 0.0071475 0.000892183 0.1253
-2.71051e-20 -0.0041025 0.0059375 0.120346
0 -0.0059775 0.00406235 0.120834
2.71051e-20 -0.0072275 0.000292358 0.122081
-5.42101e-20 0.0008975 0.0071875 0.121436
0 -0.0009775 0.0071875 0.12086
-1.00974e-28 0.00621 0.00374969 0.123985
-3.28358e-20 0.00371 0.00625 0.122444
0 0.006835 0.00248657 0.124676
0 -0.0072275 0.000892183 0.122032
-1.42118e-20 0.00246 0.006875 0.121959
0 0.0071475 0.00152054 0.125124
2.28507e-20 -0.00379 0.00625 0.120306
3.47575e-21 -0.00629 0.00374969 0.120937
2.90517e-20 -0.00254 0.006875 0.120462
2.71051e-20 0.0015225 0.0071875 0.121621
-3.40358e-20 -0.006915 0.00248657 0.121511
0 -0.0016025 0.0071875 0.12066
2.71051e-20 0.0065225 0.00343582 0.124191
-2.71051e-20 -0.0072275 0.00152054 0.12186
0 0.0033975 0.0065625 0.122277
-2.71051e-20 -0.0034775 0.0065625 0.12027
-2.71051e-20 -0.0066025 0.00343582 0.121043
0 0.00746 1.94396e-09 0.125428
-3.23117e-27 0.00736765 0.00119965 0.125253
-2.71051e-20 0.0071475 0.002164 0.124877
0 0.00746 0.000584717 0.125393
0 0.0052725 0.0053125 0.123124
3.27458e-20 0.005585 0.005 0.12332
-5.23739e-21 0.00496 0.005625 0.122946
-4.29909e-20 -4e-05 0.0075 0.121087
0 0.0021475 0.0071875 0.121804
-8.07794e-28 0.006835 0.00312195 0.124396
-4.29909e-20 0.000585 0.0075 0.121284
0 -0.0022275 0.0071875 0.120457
2.23147e-20 -0.000665 0.0075 0.120888
-2.71051e-20 0.0058975 0.0046875 0.123513
-2.36459e-20 0.003085 0.006875 0.122133
0 -0.00754 4.10809e-09 0.121981
0 0.0046475 0.0059375 0.122765
2.71051e-20 -0.0053525 0.0053125 0.120274
-3.23117e-27 0.00746 0.00110516 0.125289
2.71051e-20 -0.0072275 0.002164 0.121589
-9.84813e-22 -0.00504 0.005625 0.120208
-1.61559e-27 0.00746 0.00119965 0.12527
-1.0617e-20 -0.005665 0.005 0.120356
1.29326e-20 -0.00754 0.000584719 0.121957
9.05172e-21 -0.003165 0.006875 0.120257
-1.04621e-20 -0.006915 0.00312195 0.12114
0 -0.0047275 0.0059375 0.120145
1.26218e-29 0.00621 0.00436568 0.12372
-2.71051e-20 -0.0059775 0.0046875 0.120442
0 0.00621 0.004375 0.123716
4.06175e-20 0.00121 0.0075 0.121477
-3.17408e-21 0.004335 0.00625 0.122606
-4.29909e-20 -0.00129 0.0075 0.120684
-1.30743e-20 -0.00754 0.00119965 0.121847
-1.71493e-20 -0.004415 0.00625 0.120102
-1.29581e-20 -0.00629 0.004375 0.120539
1.00974e-27 0.00744463 0.00184143 0.125056
2.71051e-20 0.0071475 0.00280426 0.124599
2.1215e-21 0.00746 0.00184143 0.125059
-2.71051e-20 0.0065225 0.00406235 0.123917
0 0.0040225 0.0065625 0.122444
0 0.0027725 0.0071875 0.121984
-2.70792e-21 0.001835 0.0075 0.121667
2.71051e-20 -0.0028525 0.0071875 0.120249
2.71051e-20 -0.0041025 0.0065625 0.120064
2.01948e-28 0.00746 0.00206371 0.124969
-4.29909e-20 -0.001915 0.0075 0.120476
-5.42101e-20 -0.0066025 0.00406235 0.120639
-2.71051e-20 -0.0072275 0.00280426 0.121239
1.48364e-20 -0.00754 0.00184143 0.121625
2.71051e-20 0.0077725 0.000292358 0.125485
5.04871e-29 0.006835 0.00374969 0.124121
-2.93413e-22 0.00371 0.006875 0.122305
-2.71051e-20 0.0002725 0.0078125 0.121125
-2.71051e-20 -0.0003525 0.0078125 0.120921
-2.71051e-20 0.0077725 0.000892183 0.125414
1.90517e-20 -0.00379 0.006875 0.120049
2.71051e-20 -0.0078525 0.000292358 0.12188
0 0.00746 0.00248657 0.124799
0 0.0008975 0.0078125 0.121326
1.00273e-20 -0.006915 0.00374969 0.120741
-2.71051e-20 -0.0009775 0.0078125 0.120713
-6.46235e-27 0.00786457 0.000584717 0.125466
4.18261e-21 0.00246 0.0075 0.121854
-2.71051e-20 -0.0078525 0.000892183 0.121832
-4.29909e-20 -0.00254 0.0075 0.120265
2.71051e-20 0.0077725 0.00152054 0.125239
1.55446e-20 0.005585 0.005625 0.123099
0 0.0071475 0.00343582 0.124323
0 0.0058975 0.0053125 0.123274
1.97209e-20 -0.00754 0.00248657 0.121314
2.71051e-20 0.0052725 0.0059375 0.122921
2.71051e-20 0.0033975 0.0071875 0.122162
2.71051e-20 0.0015225 0.0078125 0.121524
-2.39661e-20 0.00621 0.005 0.123467
-2.71051e-20 -0.0016025 0.0078125 0.120502
-2.01948e-28 0.00757916 0.00248657 0.124822
4.35148e-21 0.00496 0.00625 0.122767
-1.15959e-20 -0.005665 0.005625 0.120002
0 -0.0034775 0.0071875 0.120038
0 -0.0053525 0.0059375 0.119938
2.71051e-20 -0.0059775 0.0053125 0.12007
0 -0.0078525 0.00152054 0.121661
2.71051e-20 -0.0072275 0.00343582 0.120846
-1.24548e-20 -0.00504 0.00625 0.119894
-5.42101e-20 0.0065225 0.0046875 0.123657
-1.65336e-20 -0.00629 0.005 0.120154
2.71051e-20 0.0046475 0.0065625 0.122609
-2.71051e-20 0.0077725 0.002164 0.124996
2.06795e-25 0.008085 1.44444e-09 0.125541
0 0.00746 0.00312195 0.124525
-2.71051e-20 -0.0047275 0.0065625 0.119853
0 -0.0066025 0.0046875 0.120241
-5.42101e-20 0.0021475 0.0078125 0.121719
-5.81611e-26 0.008085 0.000570109 0.125507
-7.88861e-30 0.006835 0.0043569 0.123865
-6.35245e-21 0.008085 0.000584717 0.125506
-1.39314e-20 0.003085 0.0075 0.122039
3.63518e-22 0.006835 0.004375 0.123858
-2.71051e-20 -0.0022275 0.0078125 0.120286
-1.52159e-20 -4e-05 0.008125 0.120978
-1.082e-20 0.004335 0.006875 0.122475
-4.29909e-20 -0.003165 0.0075 0.12005
0 -0.0078525 0.002164 0.121389
-1.52159e-20 0.000585 0.008125 0.121187
-1.52159e-20 -0.000665 0.008125 0.120766
-2.08793e-21 -0.00754 0.00312195 0.120941
0 -0.008165 4.21754e-09 0.121777
-2.03372e-20 -0.004415 0.006875 0.119835
4.78938e-22 0.008085 0.00119965 0.125385
-2.9591e-21 -0.006915 0.004375 0.120338
2.11779e-21 -0.008165 0.000584719 0.121753
-9.96534e-22 0.00121 0.008125 0.121393
2.71051e-20 0.0071475 0.00406235 0.124056
-1.52159e-20 -0.00129 0.008125 0.12055
0 0.0040225 0.0071875 0.122337
-1.66199e-20 -0.008165 0.00119965 0.121644
-2.71051e-20 0.0077725 0.00280426 0.124724
0 0.00765391 0.00312195 0.124565
2.71051e-20 -0.0041025 0.0071875 0.119821
-2.71051e-20 0.0027725 0.0078125 0.12191
-2.71051e-20 -0.0072275 0.00406235 0.120437
3.22763e-20 0.008085 0.00184143 0.125177
2.71051e-20 -0.0028525 0.0078125 0.120067
4.64997e-21 0.001835 0.008125 0.121596
0 -0.0078525 0.00280426 0.121039
-1.52159e-20 -0.001915 0.008125 0.12033
0 0.00746 0.00374969 0.124257
2.17313e-20 0.00371 0.0075 0.122221
5.42101e-20 0.0058975 0.0059375 0.123077
-2.76216e-20 -0.008165 0.00184143 0.121422
1.03398e-25 0.00837318 0 0.125593
2.26337e-20 0.00621 0.005625 0.123252
6.82221e-21 0.005585 0.00625 0.122926
0 0.0083975 0.000292359 0.125597
-4.29909e-20 -0.00379 0.0075 0.11983
2.71051e-20 0.0065225 0.0053125 0.123424
-2.71051e-20 0.0052725 0.0065625 0.122772
8.02302e-21 -0.00754 0.00374969 0.120539
5.42101e-20 -0.0059775 0.0059375 0.119727
-2.45484e-21 -0.005665 0.00625 0.11968
-1.69014e-20 -0.00629 0.005625 0.119792
0 0.0002725 0.0084375 0.121042
0 0.0083975 0.000892183 0.125527
0 -0.0003525 0.0084375 0.120824
6.76795e-21 0.008085 0.00248657 0.124921
0 -0.0053525 0.0065625 0.119638
-4.00935e-20 0.006835 0.005 0.123614
0 -0.0066025 0.0053125 0.119861
1.3803e-20 0.00496 0.006875 0.122644
2.71051e-20 -0.0084775 0.000292359 0.121673
0 0.0008975 0.0084375 0.121256
3.39557e-20 0.00246 0.008125 0.121796
-2.71051e-20 -0.0009775 0.0084375 0.120604
0 0.0077725 0.00343582 0.124455
-1.52159e-20 -0.00254 0.008125 0.120107
-2.71051e-20 0.0033975 0.0078125 0.1221
6.31089e-30 0.00765087 0.00374969 0.124298
-2.71051e-20 -0.0084775 0.000892183 0.121625
-1.03372e-20 -0.00504 0.006875 0.119617
-1.59226e-20 -0.006915 0.005 0.119946
-2.71051e-20 0.0083975 0.00152054 0.125355
-1.5719e-20 -0.008165 0.00248657 0.12111
0 0.0071475 0.0046875 0.123802
-2.71051e-20 -0.0034775 0.0078125 0.119844
2.71051e-20 0.0046475 0.0071875 0.122511
-5.42101e-20 -0.0078525 0.00343582 0.120642
-2.71051e-20 0.0015225 0.0084375 0.121467
-2.71051e-20 -0.0016025 0.0084375 0.120379
0 -0.0047275 0.0071875 0.1196
3.15544e-30 0.00746 0.0042907 0.124034
2.71051e-20 -0.0084775 0.00152054 0.121455
-2.71051e-20 -0.0072275 0.0046875 0.120033
0 0.00746 0.004375 0.123999
-3.69088e-21 0.004335 0.0075 0.122402
2.01948e-28 0.008085 0.00312195 0.124654
-2.71051e-20 0.0083975 0.002164 0.125116
-1.85227e-20 0.003085 0.008125 0.121993
2.23147e-20 -0.004415 0.0075 0.119606
2.71051e-20 0.0021475 0.0084375 0.121674
-2.06795e-25 0.00871 1.68827e-09 0.125653
2.95648e-21 -0.00754 0.004375 0.12013
-1.52159e-20 -0.003165 0.008125 0.11988
-2.71051e-20 -0.0022275 0.0084375 0.120152
3.60752e-21 0.00871 0.000584717 0.125619
-1.02306e-20 -0.008165 0.00312195 0.120736
0 -0.0084775 0.002164 0.121183
4.20678e-20 -4e-05 0.00875 0.120901
3.28992e-21 0.000585 0.00875 0.121123
-2.71051e-20 0.0077725 0.00406234 0.124194
4.20678e-20 -0.000665 0.00875 0.120675
-2.71051e-20 0.0040225 0.0078125 0.122286
0 -0.00879 4.32624e-09 0.121565
2.39247e-20 0.00871 0.00119965 0.125499
1.51192e-20 -0.00879 0.000584719 0.121542
-1.05814e-20 0.00621 0.00625 0.123085
0 0.0065225 0.0059375 0.123232
0 0.0058975 0.0065625 0.122934
0 -0.0041025 0.0078125 0.119617
1.75093e-20 0.00121 0.00875 0.121342
0 -0.0078525 0.00406235 0.120229
3.28992e-21 -0.00129 0.00875 0.120447
-2.13266e-20 0.006835 0.005625 0.123404
0 0.0083975 0.00280426 0.12485
3.79006e-20 0.005585 0.006875 0.122811
7.54516e-21 -0.00629 0.00625 0.119462
-9.70572e-21 -0.00879 0.00119965 0.121434
0 -0.0059775 0.0065625 0.119417
2.71051e-20 -0.0066025 0.0059375 0.11951
-2.71051e-20 0.0027725 0.0084375 0.12188
-2.52176e-20 0.00871 0.00184143 0.125294
0 0.0071475 0.0053125 0.123573
-2.71051e-20 -0.0028525 0.0084375 0.119921
9.66278e-21 -0.005665 0.006875 0.119394
4.12769e-21 0.008085 0.00374969 0.124392
-3.09848e-20 -0.006915 0.005625 0.119576
-2.71051e-20 0.0052725 0.0071875 0.122683
0 -0.0084775 0.00280426 0.120831
-2.42272e-20 0.00371 0.008125 0.122188
-1.15386e-20 0.001835 0.00875 0.121559
4.20678e-20 -0.001915 0.00875 0.120214
0 -0.0053525 0.0071875 0.119375
-1.92994e-20 -0.00379 0.008125 0.119649
0 -0.0072275 0.0053125 0.119646
3.87741e-26 0.0089555 0.000584717 0.125663
-2.8787e-21 0.00746 0.005 0.12376
1.89053e-20 -0.00879 0.00184143 0.121212
2.02697e-21 -0.008165 0.00374969 0.12033
-2.52737e-21 0.00496 0.0075 0.12258
-6.46235e-27 0.0089216 0.00119965 0.125538
2.71051e-20 0.0090225 0.000292359 0.125709
2.23147e-20 -0.00504 0.0075 0.119378
2.9383e-20 -0.00754 0.005 0.119731
9.90624e-21 0.00871 0.00248657 0.125044
2.71051e-20 0.0090225 0.000892183 0.125641
-5.42101e-20 0.0002725 0.0090625 0.120984
-2.71051e-20 -0.0003525 0.0090625 0.120753
0 0.0083975 0.00343582 0.124588
-2.71051e-20 0.0077725 0.0046875 0.123945
-2.91776e-20 0.00246 0.00875 0.121772
0 0.0046475 0.0078125 0.122471
2.71051e-20 0.0033975 0.0084375 0.122082
-2.71051e-20 0.0008975 0.0090625 0.121211
2.71051e-20 -0.0091025 0.000292359 0.121457
4.20678e-20 -0.00254 0.00875 0.119979
2.71051e-20 -0.0009775 0.0090625 0.12052
0 -0.0034775 0.0084375 0.119686
-2.71051e-20 -0.0047275 0.0078125 0.119385
4.35819e-21 -0.00879 0.00248657 0.1209
2.71051e-20 -0.0078525 0.0046875 0.119819
0 -0.0091025 0.000892183 0.121411
-2.71051e-20 -0.0084775 0.00343582 0.120432
-2.71051e-20 0.0090225 0.00152054 0.125471
-1.61559e-27 0.00897863 0.00184143 0.125345
-2.71051e-20 0.0015225 0.0090625 0.121435
3.28966e-21 0.008085 0.004375 0.12414
-2.71051e-20 -0.0016025 0.0090625 0.120283
3.78974e-20 0.004335 0.008125 0.12238
-2.71051e-20 -0.0091025 0.00152054 0.121241
-1.92994e-20 -0.004415 0.008125 0.119414
-2.71051e-20 0.0065225 0.0065625 0.123095
1.94561e-20 0.00871 0.00312195 0.124783
-6.70105e-21 0.006835 0.00625 0.123242
-7.0405e-21 -0.008165 0.004375 0.119916
2.59702e-21 0.00621 0.006875 0.122977
6.09379e-21 0.003085 0.00875 0.121983
5.42101e-20 0.0090225 0.002164 0.125235
0 0.0071475 0.0059375 0.123386
0 0.0058975 0.0071875 0.122854
3.28992e-21 -0.003165 0.00875 0.11974
-2.71051e-20 -0.0066025 0.0065625 0.119192
-2.71051e-20 0.0021475 0.0090625 0.121657
1.96628e-20 -0.00629 0.006875 0.119166
-7.1493e-21 -0.006915 0.00625 0.119238
-3.0129e-20 -0.00879 0.00312195 0.120523
-2.71051e-20 0.0083975 0.00406235 0.124332
2.71051e-20 -0.0022275 0.0090625 0.120043
0 0.009335 7.95895e-10 0.125765
-7.93489e-22 0.00746 0.005625 0.123555
0 0.009335 0.000458767 0.125738
0 0.0040225 0.0084375 0.122282
0 -0.0059775 0.0071875 0.119145
1.85568e-20 0.005585 0.0075 0.122757
0 0.009335 0.000584717 0.125731
-2.71051e-20 -0.0072275 0.0059375 0.119287
-2.71051e-20 -0.0091025 0.002164 0.120969
3.28992e-21 -4e-05 0.009375 0.120842
0 -0.0041025 0.0084375 0.119447
3.28992e-21 0.000585 0.009375 0.121077
3.28992e-21 -0.000665 0.009375 0.120604
-4.29909e-20 -0.005665 0.0075 0.119145
0 -0.0084775 0.00406235 0.120015
0 0.00906691 0.00248657 0.125114
9.01519e-21 -0.00754 0.005625 0.119355
-1.29247e-26 0.009335 0.00119965 0.125613
0 0.0077725 0.0053125 0.123721
0 -0.009415 4.24465e-09 0.121347
0 0.0052725 0.0078125 0.122654
5.78964e-21 -0.009415 0.000584719 0.121324
0 0.0090225 0.00280426 0.124975
1.75093e-20 0.00121 0.009375 0.121309
0 0.00945648 0 0.125786
3.28992e-21 -0.00129 0.009375 0.120363
0 -0.0053525 0.0078125 0.119149
0 0.0027725 0.0090625 0.121876
0 -0.0078525 0.0053125 0.119426
2.70595e-20 0.00871 0.00374969 0.124527