# pMean  POINT_DATA 35434
# x  y  z  pMean
-5.56355e-09 0 0 0.125584
3.99943e-05 0 0 0.125566
-4.00052e-05 0 0 0.125601
3.99946e-05 -6.77626e-21 3.74217e-05 0.125566
-4.00052e-05 -6.77626e-21 3.74218e-05 0.125601
0.000312496 0 0.000292358 0.125446
-0.000312503 2.71051e-20 0.000292358 0.125721
0.000584999 -6.77626e-21 0 0.12531
-0.000585007 0 0 0.125817
-2.45735e-09 3.38813e-21 0.000585361 0.125561
0.000584999 -6.77626e-21 3.74188e-05 0.12531
-0.000585007 6.77626e-21 3.74188e-05 0.125817
0.000624996 0 0 0.12529
-0.000625004 6.77626e-21 0 0.125831
0.000664993 0 0 0.12527
-0.000665 0 0 0.125846
0.000664993 -6.77626e-21 3.74188e-05 0.12527
-0.000665 -6.77626e-21 3.74188e-05 0.125846
0.000624998 -2.25875e-21 0.000585361 0.125265
-0.000625002 -3.38813e-21 0.000585362 0.125812
0.000312498 0 0.000892183 0.125398
-0.000312502 -2.71051e-20 0.000892183 0.12568
0.000937499 0 0.000292358 0.125134
-0.000937502 0 0.000292359 0.125941
-9.85258e-10 2.25875e-21 0.00120022 0.125474
-0.00121 -6.77626e-21 0 0.126009
0.00121 0 0 0.124991
-0.00121 0 3.74213e-05 0.126009
0.00121 0 3.7419e-05 0.124991
-0.00125 6.77626e-21 0 0.126019
0.00125 -6.77626e-21 0 0.12497
0.00129 0 0 0.12495
-0.00129 -6.77626e-21 0 0.12603
0.00129 -6.77626e-21 3.74191e-05 0.12495
-0.00129 0 3.74212e-05 0.12603
0.000937499 0 0.000892183 0.12508
-0.000937501 0 0.000892184 0.125906
0.000624999 -3.38813e-21 0.00120022 0.125173
-0.000625001 2.25875e-21 0.00120022 0.12573
0.00125 0 0.000585361 0.124943
-0.00125 0 0.000585362 0.126002
0.000312499 0 0.00152054 0.125265
-0.000312501 0 0.00152054 0.125552
-0.0015625 2.71051e-20 0.000292358 0.126097
0.0015625 2.71051e-20 0.000292358 0.124807
0.00125 0 0.00120022 0.124849
-0.00125 1.12938e-21 0.00120022 0.125923
0.0009375 -2.71051e-20 0.00152054 0.124945
-0.0009375 -2.71051e-20 0.00152054 0.125781
0.0015625 -2.71051e-20 0.000892183 0.124751
-0.0015625 -2.71051e-20 0.000892183 0.126064
0.001835 0 0 0.124668
-0.001835 0 0 0.126136
0.001835 0 3.74194e-05 0.124668
-0.001835 0 3.74183e-05 0.126136
-3.43611e-10 1.12938e-21 0.0018415 0.125309
0.001875 -6.77626e-21 0 0.124648
-0.001875 -6.77626e-21 0 0.126142
-0.001915 0 0 0.126148
0.001915 6.77626e-21 0 0.124627
-0.001915 0 3.74182e-05 0.126148
0.001915 0 3.74195e-05 0.124627
0.000625 2.25875e-21 0.0018415 0.125003
-0.000625 0 0.0018415 0.125571
-0.001875 -1.12938e-21 0.000585361 0.126125
0.001875 3.38813e-21 0.000585362 0.124621
-0.0015625 0 0.00152054 0.125941
0.0015625 -2.71051e-20 0.00152054 0.124617
0.0003125 0 0.002164 0.125063
-0.0003125 0 0.002164 0.125356
-0.0021875 -2.71051e-20 0.000292358 0.126187
0.0021875 2.71051e-20 0.000292358 0.124488
0.00125 2.25875e-21 0.0018415 0.12468
-0.00125 -1.12938e-21 0.0018415 0.125768
-0.001875 0 0.00120022 0.126047
0.001875 1.12938e-21 0.00120022 0.124527
0.0009375 -2.71051e-20 0.002164 0.12474
-0.0009375 -2.71051e-20 0.002164 0.125592
-0.0021875 2.71051e-20 0.000892183 0.126153
0.0021875 -2.71051e-20 0.000892183 0.124435
0.00246 0 0 0.124361
-0.00246 0 0 0.126198
0.00246 6.77626e-21 3.74197e-05 0.124361
-0.00246 0 3.74185e-05 0.126198
-9.00686e-11 -1.12938e-21 0.00248636 0.125089
0.0025 -6.77626e-21 0 0.124342
-0.0025 -6.77626e-21 0 0.1262
-0.00254 6.77626e-21 0 0.126203
0.00254 6.77626e-21 0 0.124324
-0.00254 0 3.74185e-05 0.126203
0.00254 6.77626e-21 3.74198e-05 0.124324
0.000625 1.12938e-21 0.00248636 0.124782
-0.000625 -2.25875e-21 0.00248636 0.125354
-0.0025 -1.12938e-21 0.000585361 0.126183
0.0025 -1.12938e-21 0.000585362 0.124317
0.001875 2.25875e-21 0.0018415 0.124363
-0.001875 0 0.0018415 0.125894
-0.0021875 -5.42101e-20 0.00152054 0.126029
0.0021875 2.71051e-20 0.00152054 0.124304
0.0015625 -2.71051e-20 0.002164 0.124418
-0.0015625 0 0.002164 0.125757
-0.0025 -1.12938e-21 0.00120022 0.126104
0.0025 2.25875e-21 0.00120022 0.124227
0.00125 1.12938e-21 0.00248636 0.124463
-0.00125 -1.12938e-21 0.00248636 0.125556
0.0003125 2.71051e-20 0.00280426 0.124821
-0.0003125 -2.71051e-20 0.00280426 0.125115
0.0028125 5.42101e-20 0.000292359 0.124196
-0.0028125 0 0.000292358 0.126214
-0.0028125 -2.71051e-20 0.000892183 0.126179
0.0028125 -2.71051e-20 0.000892183 0.124147
0.0009375 2.71051e-20 0.00280426 0.124503
-0.0009375 5.42101e-20 0.00280426 0.125354
0.0021875 2.71051e-20 0.002164 0.124113
-0.0021875 -2.71051e-20 0.002164 0.125849
0.00308499 6.77626e-21 0 0.124087
-0.003085 6.77626e-21 0 0.126201
0.00308499 0 3.742e-05 0.124087
-0.003085 0 3.74183e-05 0.126201
0.0025 0 0.0018415 0.124068
-0.0025 1.12938e-21 0.0018415 0.125953
0.001875 0 0.00248636 0.124156
-0.001875 0 0.00248636 0.125688
-1.56899e-11 0 0.00312179 0.124838
0.00312499 0 0 0.124072
-0.003125 0 0 0.1262
0.00316499 0 2.93547e-122 0.124056
-0.003165 0 0 0.126198
0.00316499 -6.77626e-21 3.74198e-05 0.124056
-0.003165 0 3.74183e-05 0.126198
0.003125 -1.12938e-21 0.000585361 0.124048
-0.003125 -1.12938e-21 0.000585362 0.126182
0.000625 -1.12938e-21 0.00312179 0.124537
-0.000625 -1.12938e-21 0.00312179 0.125103
-0.0028125 0 0.00152054 0.126055
0.0028125 0 0.00152054 0.124018
0.0015625 5.42101e-20 0.00280426 0.124192
-0.0015625 2.71051e-20 0.00280426 0.125524
-0.003125 -4.51751e-21 0.00120022 0.126103
0.003125 2.25875e-21 0.00120022 0.12396
0.00125 -2.25875e-21 0.00312179 0.12423
-0.00125 -1.12938e-21 0.00312179 0.125308
0.0034375 -2.71051e-20 0.000292357 0.123947
-0.0034375 0 0.000292358 0.126186
0.0003125 -2.71051e-20 0.00343582 0.124565
-0.0003125 -2.71051e-20 0.00343582 0.124854
0.0025 0 0.00248636 0.123872
-0.0025 1.12938e-21 0.00248636 0.125752
0.0028125 0 0.002164 0.123835
-0.0028125 5.42101e-20 0.002164 0.125879
0.0034375 -2.71051e-20 0.000892183 0.123902
-0.0034375 -2.71051e-20 0.000892184 0.126149
0.0021875 2.71051e-20 0.00280426 0.123903
-0.0021875 0 0.00280426 0.125622
0.0009375 5.42101e-20 0.00343582 0.12426
-0.0009375 2.71051e-20 0.00343582 0.125092
0.003125 1.12938e-21 0.0018415 0.123803
-0.003125 0 0.0018415 0.125954
0.001875 -1.12938e-21 0.00312179 0.123939
-0.001875 0 0.00312179 0.125444
0.00371 0 3.16387e-122 0.123861
-0.00371001 -6.77626e-21 0 0.126153
0.00371 6.77626e-21 3.742e-05 0.123861
-0.00371001 6.77626e-21 3.74169e-05 0.126153
-1.31672e-12 0 0.00374964 0.124583
-0.00375 -6.77626e-21 0 0.126149
0.00375 0 6.09936e-122 0.123849
-0.0034375 0 0.00152054 0.126028
0.0034375 2.71051e-20 0.00152054 0.123769
0.0015625 -5.42101e-20 0.00343582 0.123966
-0.0015625 0 0.00343582 0.125264
-0.00378999 0 0 0.126144
0.00379 -6.77626e-21 9.24352e-111 0.123837
-0.00378999 0 3.74166e-05 0.126144
0.00379 0 3.74202e-05 0.123837
-0.00375 -2.25875e-21 0.000585362 0.12613
0.00375 2.25875e-21 0.000585361 0.123828
0.000625 -1.12938e-21 0.00374964 0.124292
-0.000625 0 0.00374964 0.124841
-0.00375 3.38813e-21 0.00120022 0.126052
0.00375 1.12938e-21 0.00120022 0.123738
0.00125 -1.12938e-21 0.00374964 0.124
-0.00125 0 0.00374964 0.125044
0.0028125 -5.42101e-20 0.00280426 0.123637
-0.0028125 0 0.00280426 0.12566
0.003125 -1.12938e-21 0.00248636 0.123613
-0.003125 0 0.00248636 0.125759
0.0025 0 0.00312179 0.123668
-0.0025 -1.12938e-21 0.00312179 0.125516
-0.0034375 0 0.002164 0.125855
0.0034375 2.71051e-20 0.002164 0.123588
-0.0040625 2.71051e-20 0.000292359 0.126112
0.0040625 -2.71051e-20 0.000292358 0.123751
0.0021875 2.71051e-20 0.00343582 0.123694
-0.0021875 0 0.00343582 0.125369
0.0003125 0 0.00406234 0.124318
-0.0003125 0 0.00406235 0.124595
-0.00406249 2.71051e-20 0.000892184 0.126074
0.0040625 -2.71051e-20 0.000892183 0.12371
0.0009375 2.71051e-20 0.00406235 0.124026
-0.0009375 2.71051e-20 0.00406235 0.124826
-0.00375 -2.25875e-21 0.0018415 0.125907
0.00375 1.12938e-21 0.0018415 0.123577
0.001875 0 0.00374964 0.123725
-0.001875 -1.12938e-21 0.00374964 0.125183
0.004335 6.77626e-21 -5.10571e-110 0.123689
-0.004335 0 0 0.126065
0.004335 0 3.74235e-05 0.123689
-0.004335 0 3.74137e-05 0.126065
-0.0040625 2.71051e-20 0.00152054 0.125958
0.0040625 2.71051e-20 0.00152054 0.123568
-0.0015625 0 0.00406234 0.124996
0.0015625 2.71051e-20 0.00406235 0.123748
-0.00437499 0 0 0.126059
-1.854e-14 -1.12938e-21 0.00437499 0.124338
0.004375 6.77626e-21 -4.18127e-110 0.123681
-0.00437499 2.25875e-21 0.000585364 0.12604
0.004375 0 0.000585361 0.123662
-0.00441498 -6.77626e-21 0 0.126052
0.004415 0 5.70596e-102 0.123672
-0.00441498 -6.77626e-21 3.74136e-05 0.126052
0.004415 -6.77626e-21 3.74236e-05 0.123672
0.003125 -1.12938e-21 0.00312179 0.123416
-0.003125 -1.12938e-21 0.00312179 0.125532
0.000625 0 0.00437499 0.124061
-0.000625 -1.12938e-21 0.00437499 0.124585
0.0034375 0 0.00280426 0.123394
-0.0034375 0 0.00280426 0.125644
0.0028125 -5.42101e-20 0.00343582 0.123439
-0.0028125 5.42101e-20 0.00343582 0.125415
0.00375 -2.25875e-21 0.00248636 0.123385
-0.00375 0 0.00248636 0.125718
0.0025 0 0.00374964 0.123467
-0.0025 -2.25875e-21 0.00374964 0.125261
-0.00437499 -3.38813e-21 0.00120022 0.125964
0.004375 1.12938e-21 0.00120022 0.123568
0.00125 -1.12938e-21 0.00437499 0.123784
-0.00125 -1.12938e-21 0.00437499 0.12478
0.0040625 2.71051e-20 0.002164 0.12338
-0.0040625 -2.71051e-20 0.002164 0.125789
0.0021875 0 0.00406235 0.123492
-0.0021875 5.42101e-20 0.00406235 0.125104
-0.00468748 0 0.00029236 0.126005
0.0046875 -2.71051e-20 0.000292358 0.123611
0.0003125 0 0.0046875 0.12409
-0.0003125 2.71051e-20 0.0046875 0.124351
-0.004375 3.38813e-21 0.0018415 0.125823
0.004375 0 0.0018415 0.123396
0.001875 -2.25875e-21 0.00437499 0.123524
-0.001875 -3.38813e-21 0.00437499 0.124918
-0.00468748 0 0.000892187 0.125969
0.0046875 5.42101e-20 0.000892183 0.123574
0.0009375 -5.42101e-20 0.0046875 0.123812
-0.0009375 -2.71051e-20 0.0046875 0.124569
-0.0034375 2.71051e-20 0.00343582 0.125409
0.0034375 0 0.00343582 0.123196
0.00375 -2.25875e-21 0.00312179 0.123186
-0.00375 1.12938e-21 0.00312179 0.1255
0.003125 -1.12938e-21 0.00374964 0.123219
-0.003125 -1.12938e-21 0.00374964 0.125285
-0.00468749 2.71051e-20 0.00152054 0.125856
0.0046875 2.71051e-20 0.00152054 0.123419
0.0040625 -2.71051e-20 0.00280426 0.12318
-0.0040625 5.42101e-20 0.00280426 0.125586
0.0028125 0 0.00406234 0.123244
-0.0028125 0 0.00406235 0.125157
-0.0015625 -2.71051e-20 0.0046875 0.124731
0.0015625 0 0.0046875 0.12355
-0.00495999 6.77626e-21 0 0.125947
0.00496 0 8.03005e-101 0.123576
-0.00495999 0 3.74087e-05 0.125947
0.00496 6.77626e-21 3.7421e-05 0.123576
-0.00499997 -6.77626e-21 0 0.125939
-6.83803e-15 -1.12938e-21 0.005 0.124115
0.005 0 8.6006e-101 0.123571
-0.004375 3.38813e-21 0.00248636 0.12564
0.004375 -1.12938e-21 0.00248636 0.123195
-0.00499996 0 0.000585368 0.125921
0.005 0 0.000585362 0.123553
0.0025 -1.12938e-21 0.00437499 0.123276
-0.0025 -2.25875e-21 0.00437499 0.124999
0.000625 0 0.005 0.123854
-0.000625 -1.12938e-21 0.005 0.124345
-0.00503995 0 0 0.12593
0.00504 6.77626e-21 2.10796e-94 0.123567
-0.00503995 6.77626e-21 3.74082e-05 0.12593
0.00504 0 3.7421e-05 0.123567
-0.00499997 0 0.00120022 0.125848
0.005 0 0.00120022 0.123455
0.00125 -2.25875e-21 0.005 0.123591
-0.00125 -1.12938e-21 0.005 0.124528
-0.0046875 2.71051e-20 0.002164 0.12569
0.0046875 0 0.002164 0.123217
-0.0021875 5.42101e-20 0.0046875 0.124839
0.0021875 5.42101e-20 0.0046875 0.123305
0.00375 -1.12938e-21 0.00374964 0.122982
-0.00375 0 0.00374964 0.125263
-0.00531242 0 0.000292364 0.125872
0.0053125 -2.71051e-20 0.000292358 0.123532
-0.0040625 2.71051e-20 0.00343582 0.125361
0.0040625 0 0.00343582 0.122973
-0.0034375 2.71051e-20 0.00406235 0.12516
0.0034375 5.42101e-20 0.00406235 0.122997
0.0003125 2.71051e-20 0.0053125 0.123887
-0.0003125 2.71051e-20 0.0053125 0.12413
-0.00499999 1.12938e-21 0.0018415 0.125709
0.005 0 0.0018415 0.123269
0.001875 -4.51751e-21 0.005 0.123344
-0.001875 -3.38813e-21 0.005 0.124658
0.004375 -1.12938e-21 0.00312179 0.122986
-0.004375 1.12938e-21 0.00312179 0.125431
0.003125 -1.12938e-21 0.00437499 0.123028
-0.003125 -1.12938e-21 0.00437499 0.125029
-0.00531243 2.71051e-20 0.000892195 0.125837
0.0053125 -5.42101e-20 0.000892183 0.123495
-0.0009375 -5.42101e-20 0.0053125 0.12433
0.0009375 0 0.0053125 0.123626
-0.0046875 0 0.00280426 0.125496
0.0046875 -2.71051e-20 0.00280426 0.123005
0.0028125 -2.71051e-20 0.0046875 0.123062
-0.0028125 2.71051e-20 0.0046875 0.124895
-0.00531247 2.71051e-20 0.00152055 0.125727
0.0053125 -2.71051e-20 0.00152054 0.123329
-0.0015625 2.71051e-20 0.0053125 0.124481
0.0015625 -2.71051e-20 0.0053125 0.123377
-0.005 0 0.00248636 0.125532
0.005 1.12938e-21 0.00248636 0.123053
-0.00558491 0 0 0.125804
0.005585 -6.77626e-21 1.70338e-94 0.123516
-0.00558491 0 3.73999e-05 0.125804
0.005585 0 3.74242e-05 0.123516
0.0025 -2.25875e-21 0.005 0.123105
-0.0025 -3.38813e-21 0.005 0.124739
-0.00562488 -6.77626e-21 0 0.125794
-7.8565e-15 0 0.005625 0.123916
0.005625 0 3.81154e-94 0.123514
-0.00562487 3.38813e-21 0.000585377 0.125777
0.005625 0 0.000585362 0.123497
0.000625 0 0.005625 0.123675
-0.000625 0 0.005625 0.124127
-0.00566484 0 0 0.125784
-0.00566484 0 3.73999e-05 0.125784
0.005665 -6.77626e-21 -1.77716e-88 0.123512
0.005665 -6.77626e-21 3.74243e-05 0.123512
-0.00531249 2.71051e-20 0.002164 0.125564
0.0053125 0 0.002164 0.123109
0.0040625 -5.42101e-20 0.00406235 0.12276
-0.0040625 -5.42101e-20 0.00406234 0.125121
0.0021875 -2.71051e-20 0.0053125 0.123145
-0.0021875 -2.71051e-20 0.0053125 0.124582
-0.00562493 -4.51751e-21 0.00120023 0.125705
0.005625 2.25875e-21 0.00120022 0.123396
0.004375 0 0.00374964 0.122769
-0.004375 0 0.00374964 0.125203
0.00375 -1.12938e-21 0.00437499 0.122779
-0.00375 -2.25875e-21 0.00437499 0.125015
0.00125 -2.25875e-21 0.005625 0.12343
-0.00125 0 0.005625 0.124294
0.0046875 2.71051e-20 0.00343582 0.122785
-0.0046875 2.71051e-20 0.00343582 0.125281
0.0034375 2.71051e-20 0.0046875 0.122807
-0.0034375 5.42101e-20 0.0046875 0.124905
-0.005 1.12938e-21 0.00312179 0.125332
0.005 1.12938e-21 0.00312179 0.122831
0.003125 0 0.005 0.122855
-0.003125 -2.25875e-21 0.005 0.124772
-0.00562497 2.25875e-21 0.00184151 0.125569
0.005625 0 0.0018415 0.123197
0.001875 -3.38813e-21 0.005625 0.123197
-0.001875 -1.12938e-21 0.005625 0.124413
-0.00593726 0 0.000292374 0.125716
0.0059375 -2.71051e-20 0.000292358 0.123496
0.0003125 0 0.0059375 0.123714
-0.0003125 2.71051e-20 0.0059375 0.123934
-0.00593732 2.71051e-20 0.000892214 0.125682
0.0059375 2.71051e-20 0.000892183 0.123463
-0.0053125 2.71051e-20 0.00280426 0.125379
0.0053125 0 0.00280426 0.122883
0.0028125 2.71051e-20 0.0053125 0.122906
-0.0009375 -5.42101e-20 0.0059375 0.124115
-0.0028125 5.42101e-20 0.0053125 0.124639
0.0009375 2.71051e-20 0.0059375 0.123474
-0.00593741 0 0.00152056 0.125573
0.0059375 -2.71051e-20 0.00152054 0.123292
0.0015625 5.42101e-20 0.0059375 0.123242
-0.0015625 2.71051e-20 0.0059375 0.124249
-0.00562499 1.12938e-21 0.00248636 0.125398
0.005625 0 0.00248636 0.122968
0.0025 -2.25875e-21 0.005625 0.122969
-0.0025 -3.38813e-21 0.005625 0.124488
0.004375 -1.12938e-21 0.00437499 0.12255
-0.004375 -1.12938e-21 0.00437499 0.124962
0.0046875 2.71051e-20 0.00406235 0.122556
-0.0046875 2.71051e-20 0.00406235 0.125049
-0.0040625 -2.71051e-20 0.0046875 0.124872
0.0040625 2.71051e-20 0.0046875 0.122553
-0.00620969 -6.77626e-21 0 0.125641
-0.00620969 0 3.73859e-05 0.125641
0.00621 -6.77626e-21 -1.02942e-87 0.12349
0.00621 -6.77626e-21 3.74243e-05 0.12349
-0.00624963 6.77626e-21 0 0.12563
-0.005 0 0.00374964 0.125113
0.005 0 0.00374964 0.1226
-8.813e-15 0 0.00625 0.123748
0.00375 0 0.005 0.122596
-0.00375 -2.25875e-21 0.005 0.124762
0.00625 0 -1.20714e-87 0.123489
-0.00624966 0 0.000585395 0.125613
0.00625 2.25875e-21 0.000585362 0.123475
0.000625 0 0.00625 0.123532
-0.000625 0 0.00625 0.123935
-0.00628955 -6.77626e-21 0 0.12562
-0.00628956 -6.77626e-21 3.73862e-05 0.12562
0.00629 -6.77626e-21 8.28302e-81 0.123488
0.00629 0 3.74244e-05 0.123488
-0.00593747 0 0.00216401 0.125413
0.0059375 0 0.002164 0.123059
-0.0053125 -2.71051e-20 0.00343582 0.125173
0.0053125 2.71051e-20 0.00343582 0.12265
0.0034375 -2.71051e-20 0.0053125 0.122646
-0.0034375 -5.42101e-20 0.0053125 0.12465
0.0021875 0 0.0059375 0.123025
-0.0021875 2.71051e-20 0.0059375 0.124341
-0.00624982 -2.25875e-21 0.00120025 0.125543
0.00625 -1.12938e-21 0.00120022 0.123379
0.00125 -1.12938e-21 0.00625 0.123309
-0.00125 -1.12938e-21 0.00625 0.124081
-0.005625 1.12938e-21 0.00312179 0.125208
0.005625 -1.12938e-21 0.00312179 0.122734
0.003125 -2.25875e-21 0.005625 0.122723
-0.003125 -3.38813e-21 0.005625 0.12452
-0.00624994 1.12938e-21 0.00184152 0.12541
0.00625 0 0.0018415 0.123179
0.001875 -2.25875e-21 0.00625 0.123095
-0.001875 -2.25875e-21 0.00625 0.124186
-0.00593749 0 0.00280426 0.125238
0.0059375 -2.71051e-20 0.00280426 0.122821
-0.00656187 -2.71051e-20 0.000292393 0.125545
0.0065625 -2.71051e-20 0.000292358 0.123482
0.0003125 2.71051e-20 0.0065625 0.123576
-0.0028125 5.42101e-20 0.0059375 0.124391
0.0028125 5.42101e-20 0.0059375 0.122799
-0.0003125 5.42101e-20 0.0065625 0.123768
-0.00656205 5.42101e-20 0.00089225 0.125511
0.0065625 2.71051e-20 0.000892183 0.12346
0.0009375 2.71051e-20 0.0065625 0.123364
-0.0009375 5.42101e-20 0.0065625 0.123922
0.0046875 2.71051e-20 0.0046875 0.122331
-0.0046875 2.71051e-20 0.0046875 0.124807
0.005 -2.25875e-21 0.00437499 0.122368
-0.005 0 0.00437499 0.124881
0.004375 -1.12938e-21 0.005 0.122352
-0.004375 -2.25875e-21 0.005 0.124716
0.0053125 0 0.00406234 0.122409
-0.0053125 0 0.00406234 0.12495
0.0040625 0 0.0053125 0.122378
-0.0040625 0 0.0053125 0.124622
-0.00624999 2.25875e-21 0.00248637 0.125244
0.00625 0 0.00248636 0.122941
0.0025 -2.25875e-21 0.00625 0.122884
-0.0025 -3.38813e-21 0.00625 0.124251
-0.00656229 -2.71051e-20 0.00152059 0.125407
0.0065625 0 0.00152054 0.123299
0.0015625 2.71051e-20 0.0065625 0.123155
-0.0015625 2.71051e-20 0.0065625 0.124038
0.005625 -1.12938e-21 0.00374964 0.122495
-0.005625 1.12938e-21 0.00374964 0.124998
0.00375 -1.12938e-21 0.005625 0.12246
-0.00375 -1.12938e-21 0.005625 0.124511
-0.00683411 0 0 0.125465
-0.00683412 6.77626e-21 3.73636e-05 0.125465
0.006835 -6.77626e-21 7.38719e-81 0.123477
0.006835 0 3.74239e-05 0.123477
0.0059375 5.42101e-20 0.00343582 0.122582
-0.0059375 2.71051e-20 0.00343582 0.125043
0.0034375 2.71051e-20 0.0059375 0.122542
-0.0034375 5.42101e-20 0.0059375 0.124401
-0.006874 0 0 0.125453
0.006875 0 1.56702e-80 0.123476
-9.4467e-15 0 0.006875 0.123612
-0.00687415 -2.25875e-21 0.000585427 0.125437
0.006875 0 0.000585361 0.123469
0.000625 0 0.006875 0.123427
-0.000625 0 0.006875 0.123769
-0.00656243 -2.71051e-20 0.00216402 0.125248
0.0065625 2.71051e-20 0.002164 0.123065
-0.00691384 0 0 0.125442
-0.00691386 6.77626e-21 3.73654e-05 0.125442
0.006915 0 3.60954e-73 0.123475
0.006915 0 3.74238e-05 0.123475
0.0021875 5.42101e-20 0.0065625 0.122959
-0.0021875 5.42101e-20 0.0065625 0.124115
-0.00687455 -3.38813e-21 0.00120029 0.12537
0.006875 0 0.00120022 0.123389
-0.00625 3.38813e-21 0.00312179 0.125064
0.00625 -2.25875e-21 0.00312179 0.122701
0.00125 -1.12938e-21 0.006875 0.123232
-0.00125 -2.25875e-21 0.006875 0.123891
0.003125 -2.25875e-21 0.00625 0.122653
-0.003125 -3.38813e-21 0.00625 0.124277
0.005 -2.25875e-21 0.005 0.122159
-0.005 -1.12938e-21 0.005 0.124641
0.0053125 -2.71051e-20 0.0046875 0.122175
0.0046875 2.71051e-20 0.0053125 0.122145
-0.0046875 0 0.0053125 0.124562
-0.0053125 2.71051e-20 0.0046875 0.124717
-0.00687483 2.25875e-21 0.00184153 0.12524
0.006875 0 0.0018415 0.123204
0.005625 -1.12938e-21 0.00437499 0.122257
-0.005625 0 0.00437499 0.124775
0.004375 0 0.005625 0.122209
0.001875 -3.38813e-21 0.006875 0.123045
-0.001875 -4.51751e-21 0.006875 0.123978
-0.004375 -2.25875e-21 0.005625 0.124469
-0.00656249 0 0.00280427 0.12508
0.0065625 -2.71051e-20 0.00280426 0.122821
0.0028125 -5.42101e-20 0.0065625 0.122754
-0.0028125 0 0.0065625 0.124156
-0.00718596 0 0.000292431 0.125362
0.0071875 0 0.000292358 0.12347
-0.0059375 -5.42101e-20 0.00406234 0.124828
0.0059375 -5.42101e-20 0.00406235 0.122339
0.0003125 2.71051e-20 0.0071875 0.123473
0.0040625 2.71051e-20 0.0059375 0.122272
-0.0040625 2.71051e-20 0.0059375 0.124373
-0.0003125 0 0.0071875 0.12363
-0.00718646 -5.42101e-20 0.000892308 0.125329
0.0071875 -2.71051e-20 0.000892183 0.123464
0.0009375 2.71051e-20 0.0071875 0.123295
-0.0009375 -5.42101e-20 0.0071875 0.123756
0.00625 -2.25875e-21 0.00374964 0.122463
-0.00625 1.12938e-21 0.00374964 0.124864
0.00375 -1.12938e-21 0.00625 0.122397
-0.00375 -1.12938e-21 0.00625 0.124267
-0.00687497 0 0.00248637 0.125078
0.006875 1.12938e-21 0.00248636 0.122969
-0.0025 -4.51751e-21 0.006875 0.124029
0.0025 -3.38813e-21 0.006875 0.122861
-0.00718701 0 0.00152063 0.12523
0.0071875 0 0.00152054 0.123334
0.0015625 5.42101e-20 0.0071875 0.123116
-0.0015625 2.71051e-20 0.0071875 0.123848
-0.0065625 -2.71051e-20 0.00343582 0.124895
0.0065625 -2.71051e-20 0.00343582 0.122583
-0.0034375 0 0.0065625 0.124161
0.0034375 2.71051e-20 0.0065625 0.122516
-0.00745778 -6.77626e-21 0 0.125279
-0.0074578 6.77626e-21 3.73272e-05 0.125279
0.00746 0 -7.52168e-73 0.123467
0.00746 0 3.74203e-05 0.123467
-0.00749758 6.77626e-21 0 0.125267
0.0075 0 -3.91254e-73 0.123466
-9.72327e-15 0 0.0075 0.123506
-0.00718734 0 0.00216404 0.125074
0.0071875 0 0.002164 0.123117
-0.0021875 -2.71051e-20 0.0071875 0.123909
0.0021875 -2.71051e-20 0.0071875 0.12295
-0.0053125 2.71051e-20 0.0053125 0.124477
0.0053125 0 0.0053125 0.121984
-0.00749809 -4.51751e-21 0.000585476 0.125251
0.0075 2.25875e-21 0.000585361 0.123467
0.000625 0 0.0075 0.123358
-0.005 -2.25875e-21 0.005625 0.124398
-0.005625 0 0.005 0.124542
-0.000625 0 0.0075 0.12363
0.005 0 0.005625 0.122012
0.005625 -1.12938e-21 0.005 0.122046
-0.00753727 0 0 0.125255
-0.00753733 0 3.73304e-05 0.125255
0.00754 -6.77626e-21 -9.57921e-67 0.123466
0.00754 0 3.74202e-05 0.123466
-0.006875 -1.12938e-21 0.00312179 0.124905
0.006875 -1.12938e-21 0.00312179 0.12273
0.003125 -2.25875e-21 0.006875 0.122657
-0.003125 -2.25875e-21 0.006875 0.124047
0.0046875 -2.71051e-20 0.0059375 0.122038
-0.0059375 2.71051e-20 0.0046875 0.124604
-0.0046875 5.42101e-20 0.0059375 0.124317
0.0059375 -2.71051e-20 0.0046875 0.122106
-0.00749899 1.12938e-21 0.00120033 0.125187
0.0075 1.12938e-21 0.00120022 0.123414
0.00125 -1.12938e-21 0.0075 0.1232
-0.00125 -1.12938e-21 0.0075 0.123724
-0.00625 0 0.00437499 0.124649
0.00625 0 0.00437499 0.12223
-0.004375 -1.12938e-21 0.00625 0.124225
0.004375 0 0.00625 0.122151
-0.00718747 -2.71051e-20 0.00280427 0.124911
0.0071875 -5.42101e-20 0.00280426 0.122875
-0.0065625 2.71051e-20 0.00406235 0.12469
0.0065625 0 0.00406235 0.122348
0.0028125 0 0.0071875 0.122781
-0.0028125 5.42101e-20 0.0071875 0.123937
0.0040625 2.71051e-20 0.0065625 0.122259
-0.0040625 0 0.0065625 0.124132
-0.00749963 -1.12938e-21 0.00184156 0.125061
0.0075 0 0.0018415 0.123259
0.001875 -2.25875e-21 0.0075 0.123047
-0.001875 -3.38813e-21 0.0075 0.123789
-0.00780909 -2.71051e-20 0.000292497 0.125171
0.0078125 -2.71051e-20 0.000292358 0.123462
0.0003125 2.71051e-20 0.0078125 0.123401
-0.0003125 2.71051e-20 0.0078125 0.12352
-0.006875 0 0.00374964 0.124714
0.006875 -2.25875e-21 0.00374964 0.1225
0.00375 -1.12938e-21 0.006875 0.122424
-0.00375 0 0.006875 0.124031
-0.00781026 0 0.000892395 0.125139
0.0078125 -2.71051e-20 0.000892183 0.123471
-0.0009375 -5.42101e-20 0.0078125 0.123614
0.0009375 2.71051e-20 0.0078125 0.123265
-0.00749991 1.12938e-21 0.00248637 0.124903
0.0075 0 0.00248636 0.123041
0.0025 -3.38813e-21 0.0075 0.1229
-0.0025 -4.51751e-21 0.0075 0.123825
-0.005625 0 0.005625 0.124305
0.005625 0 0.005625 0.1219
-0.00781145 2.71051e-20 0.00152069 0.125046
0.0078125 -5.42101e-20 0.00152054 0.123384
-0.0071875 5.42101e-20 0.00343582 0.124735
0.0071875 0 0.00343582 0.122644
-0.0015625 0 0.0078125 0.12368
-0.0034375 0 0.0071875 0.123933
0.0015625 2.71051e-20 0.0078125 0.123126
-0.0053125 2.71051e-20 0.0059375 0.124237
-0.0059375 -5.42101e-20 0.0053125 0.124372
0.0034375 5.42101e-20 0.0071875 0.122577
0.0053125 2.71051e-20 0.0059375 0.121879
0.00593751 0 0.00531251 0.121919
-0.005 -1.12938e-21 0.00625 0.124157
-0.00625 0 0.005 0.124424
0.005 1.12938e-21 0.00625 0.121958
0.00625 -2.25875e-21 0.005 0.122027
-0.0046875 2.71051e-20 0.0065625 0.124076
-0.0065625 2.71051e-20 0.0046875 0.124473
0.0046875 5.42101e-20 0.0065625 0.122034
0.00656251 2.71051e-20 0.00468751 0.122129
-0.00808 0 0 0.125085
-0.00808006 -6.77626e-21 3.72558e-05 0.125085
0.008085 6.77626e-21 -1.96246e-65 0.12346
0.008085 0 3.74199e-05 0.12346
-0.00781215 0 0.00216406 0.124894
0.0078125 0 0.002164 0.1232
0.0021875 2.71051e-20 0.0078125 0.122997
-0.0021875 2.71051e-20 0.0078125 0.12372
-0.00811962 0 0 0.125072
-0.00749999 1.12938e-21 0.00312179 0.124736
0.0075 -2.25875e-21 0.00312179 0.122813
0.003125 -3.38813e-21 0.0075 0.122736
-0.003125 -2.25875e-21 0.0075 0.123831
0.008125 -6.77626e-21 -2.05825e-65 0.12346
-9.79465e-15 -2.25875e-21 0.008125 0.123428
-0.00812098 -1.12938e-21 0.000585543 0.125056
0.008125 -1.12938e-21 0.000585362 0.123467
-0.006875 0 0.00437499 0.124507
0.006875 -2.25875e-21 0.00437499 0.122283
0.000625 -1.12938e-21 0.008125 0.123322
-0.004375 0 0.006875 0.123987
-0.000625 -2.25875e-21 0.008125 0.123515
0.004375 -1.12938e-21 0.006875 0.122194
-0.00815905 6.77626e-21 0 0.12506
-0.0081592 -6.77626e-21 3.72599e-05 0.12506
0.008165 0 -4.50163e-59 0.12346
0.008165 6.77626e-21 3.74199e-05 0.12346
-0.00812288 1.12938e-21 0.00120037 0.124995
0.008125 2.25875e-21 0.00120022 0.123441
0.00125 0 0.008125 0.123208
-0.00125 -1.12938e-21 0.008125 0.123579
-0.0071875 2.71051e-20 0.00406235 0.124538
0.00718751 0 0.00406235 0.122426
-0.0040625 2.71051e-20 0.0071875 0.1239
0.0040625 2.71051e-20 0.0071875 0.122345
-0.00781242 0 0.00280427 0.124734
0.0078125 2.71051e-20 0.00280426 0.122975
-0.0028125 5.42101e-20 0.0078125 0.123734
0.0028125 2.71051e-20 0.0078125 0.122871
-0.0081242 1.12938e-21 0.00184158 0.124874
0.008125 1.12938e-21 0.0018415 0.123326
0.001875 -1.12938e-21 0.008125 0.123097
-0.001875 -2.25875e-21 0.008125 0.12362
-0.0075 1.12938e-21 0.00374964 0.124553
0.0075 -1.12938e-21 0.00374965 0.122598
-0.00375 0 0.0075 0.123808
0.00375 -1.12938e-21 0.0075 0.12254
-0.0059375 0 0.0059375 0.124136
0.00593755 2.71051e-20 0.00593755 0.121819
-0.005625 0 0.00625 0.124068
-0.00625 -1.12938e-21 0.005625 0.124193
0.00562501 0 0.00625001 0.121851
0.00625002 -1.12938e-21 0.00562502 0.121889
-0.00843052 0 0.0002926 0.124974
0.0084375 -2.71051e-20 0.000292359 0.123458
0.0003125 5.42101e-20 0.0084375 0.123356
-0.0065625 -2.71051e-20 0.0053125 0.124247
-0.0053125 0 0.0065625 0.123998
-0.0003125 5.42101e-20 0.0084375 0.123434
0.00531253 2.71051e-20 0.00656253 0.121882
0.00656255 -2.71051e-20 0.00531255 0.121955
-0.00843304 2.71051e-20 0.000892502 0.124941
0.0084375 2.71051e-20 0.000892184 0.123477
0.0009375 -5.42101e-20 0.0084375 0.123267
-0.0009375 5.42101e-20 0.0084375 0.123493
-0.0081248 0 0.00248638 0.12472
0.008125 1.12938e-21 0.00248636 0.123141
0.0025 -2.25875e-21 0.008125 0.122993
-0.005 0 0.006875 0.12392
-0.006875 0 0.005 0.12429
-0.0025 -4.51751e-21 0.008125 0.123637
0.005 -1.12938e-21 0.006875 0.122011
0.00687503 -1.12938e-21 0.00500003 0.122098
-0.00781249 -2.71051e-20 0.00343582 0.124564
0.00781251 0 0.00343583 0.122758
-0.0034375 2.71051e-20 0.0078125 0.123719
0.0034375 -2.71051e-20 0.0078125 0.122715
-0.00843541 5.42101e-20 0.00152073 0.124851
0.0084375 -2.71051e-20 0.00152054 0.12343
0.0015625 -5.42101e-20 0.0084375 0.123173
-0.0046875 -5.42101e-20 0.0071875 0.123842
-0.0071875 2.71051e-20 0.0046875 0.124329
-0.0015625 0 0.0084375 0.12353
0.00468751 0 0.00718751 0.122136
0.00718755 0 0.00468755 0.122231
-0.0075 0 0.00437499 0.124353
-0.004375 0 0.0075 0.123759
0.004375 2.25875e-21 0.0075 0.122335
0.00750003 -1.12938e-21 0.00437502 0.122404
-0.00869981 0 0 0.124886
-0.00869995 6.77626e-21 3.70993e-05 0.124886
-0.00812497 0 0.00312179 0.124559
0.008125 0 0.00312179 0.122936
-0.003125 -3.38813e-21 0.008125 0.123629
0.003125 -1.12938e-21 0.008125 0.122878
-0.00843682 -5.42101e-20 0.00216404 0.124704
0.00871 0 -4.38768e-59 0.123455
0.00871 0 3.74198e-05 0.123455
0.0084375 0 0.002164 0.123292
0.0021875 5.42101e-20 0.0084375 0.12309
-0.0021875 5.42101e-20 0.0084375 0.123549
-0.00873908 0 0 0.124873
0.00875 0 -8.88928e-59 0.123454
-9.80309e-15 -2.25875e-21 0.00875 0.123371
-0.00874218 2.25875e-21 0.00058561 0.124857
0.00875 -2.25875e-21 0.000585362 0.123465
0.000625 -1.12938e-21 0.00875 0.12331
-0.000625 -3.38813e-21 0.00875 0.123421
-0.00877807 0 0 0.124861
-0.00877839 0 3.70981e-05 0.124861
0.00879 6.77626e-21 -3.00861e-53 0.123454
0.00879 0 3.74197e-05 0.123454
-0.0078125 2.71051e-20 0.00406235 0.124375
-0.0040625 2.71051e-20 0.0078125 0.123679
0.00406251 2.71051e-20 0.0078125 0.122523
0.00781256 0 0.00406241 0.122562
-0.00874591 0 0.00120037 0.124794
0.00875 3.38813e-21 0.00120022 0.12346
0.00125 0 0.00875 0.123242
-0.00125 -2.25875e-21 0.00875 0.123454
-0.00625 -1.12938e-21 0.00625 0.123958
0.00625014 3.38813e-21 0.00625014 0.121843
-0.0059375 0 0.0065625 0.123899
-0.0065625 5.42101e-20 0.0059375 0.124016
0.00593771 5.42101e-20 0.00656271 0.121824
0.00656276 0 0.00593776 0.121862
-0.005625 0 0.006875 0.123832
-0.006875 -2.25875e-21 0.005625 0.124063
0.00562508 1.12938e-21 0.00687508 0.121909
0.00687515 -5.64689e-21 0.00562515 0.121974
-0.00843738 5.42101e-20 0.00280422 0.124551
0.00843751 5.42101e-20 0.00280427 0.1231
0.0028125 5.42101e-20 0.0084375 0.123012
-0.0028125 5.42101e-20 0.0084375 0.123545
-0.0053125 -5.42101e-20 0.0071875 0.123763
-0.0071875 2.71051e-20 0.0053125 0.124109
0.00531262 0 0.00718762 0.121993
0.00718777 2.71051e-20 0.00531277 0.122079
-0.0087485 2.25875e-21 0.00184148 0.124676
0.00875 1.12938e-21 0.0018415 0.123387
-0.008125 2.25875e-21 0.00374965 0.124383
0.00812503 0 0.00374967 0.122743
-0.00375 -2.25875e-21 0.008125 0.123596
0.001875 -1.12938e-21 0.00875 0.123179
-0.001875 -1.12938e-21 0.00875 0.123469
0.00375 0 0.008125 0.12273
-0.005 0 0.0075 0.123689
-0.0075 0 0.005 0.124142
0.00500004 -1.12938e-21 0.00750004 0.122167
0.00750015 1.12938e-21 0.00500015 0.122245
-0.00904936 2.71051e-20 0.000292715 0.124774
0.0090625 2.71051e-20 0.000292358 0.123452
0.0003125 2.71051e-20 0.0090625 0.123328
-0.0003125 -5.42101e-20 0.0090625 0.123365
-0.0087497 -1.12938e-21 0.00248624 0.124529
0.00875 0 0.00248636 0.123246