# pMean  POINT_DATA 64962
# x  y  z  pMean
0 -3.99946e-05 5.21085e-09 0.125573
-5.42101e-20 0.000272502 0.000292358 0.125658
5.42101e-20 -0.000352499 0.000292358 0.125487
0 0.000585009 5.11816e-09 0.125741
0 -3.99965e-05 0.000584718 0.125551
-8.27181e-25 -0.000664995 5.31781e-09 0.125401
0 0.000585003 0.000584719 0.125718
7.82637e-21 -0.000665003 0.00058472 0.125379
0 0.000272501 0.000892183 0.125612
-2.71051e-20 0.000897501 0.000292359 0.125824
0 -0.0003525 0.000892183 0.125443
0 -0.0009775 0.000292358 0.125314
-2.06795e-25 -3.99985e-05 0.00119965 0.125463
0 0.00121001 4.87434e-09 0.125905
-2.71051e-20 0.0008975 0.000892183 0.125778
0 -0.00128999 5.46622e-09 0.125225
-2.71051e-20 -0.0009775 0.000892183 0.125271
0 0.000585002 0.00119965 0.12563
-4.1359e-25 0.00121 0.000584719 0.125882
-8.22466e-21 -0.000665001 0.00119965 0.125293
-2.0682e-20 -0.00129 0.000584719 0.125205
2.71051e-20 0.0002725 0.00152054 0.125482
0 0.0015225 0.000292358 0.125987
2.71051e-20 -0.0003525 0.00152054 0.125314
2.71051e-20 -0.0016025 0.000292358 0.125136
1.03398e-25 0.00121 0.00119965 0.125793
-1.63341e-20 -0.00129 0.00119965 0.12512
-2.71051e-20 0.0015225 0.000892183 0.12594
-2.71051e-20 0.0008975 0.00152054 0.125646
-2.71051e-20 -0.0009775 0.00152054 0.125143
-2.71051e-20 -0.0016025 0.000892183 0.125096
0 0.001835 4.40292e-09 0.126066
3.17229e-21 -4.00002e-05 0.00184143 0.125299
0 -0.00191499 5.51995e-09 0.125046
-2.28794e-20 0.001835 0.000584719 0.126043
1.57478e-20 0.000585 0.00184143 0.125464
2.15287e-20 -0.000665 0.00184143 0.125129
1.36472e-20 -0.001915 0.000584719 0.125026
2.71051e-20 0.0015225 0.00152054 0.125806
-8.13152e-20 0.0021475 0.000292358 0.126146
0 0.0002725 0.002164 0.125282
-1.77047e-20 0.001835 0.00119965 0.125952
-2.71051e-20 -0.0003525 0.002164 0.125115
1.05576e-20 0.00121 0.00184143 0.125626
-2.71051e-20 -0.0016025 0.00152054 0.124968
0 -0.0022275 0.000292358 0.124955
-5.34483e-21 -0.00129 0.00184143 0.124956
6.28471e-21 -0.001915 0.00119965 0.124943
2.71051e-20 0.0021475 0.000892183 0.126098
2.71051e-20 0.0008975 0.002164 0.125446
-2.71051e-20 -0.0009775 0.002164 0.124944
0 -0.0022275 0.000892183 0.124916
0 0.00246 3.63123e-09 0.126224
-1.30687e-20 -3.99999e-05 0.00248657 0.125078
2.29286e-20 0.00246 0.000584717 0.1262
0 -0.00253999 5.46152e-09 0.124863
2.08414e-20 0.000585 0.00248657 0.125243
1.27114e-22 -0.000665 0.00248657 0.124908
-3.16773e-20 0.001835 0.00184143 0.125785
-3.8042e-21 -0.00254 0.00058472 0.124844
-2.71051e-20 0.0021475 0.00152054 0.125963
0 0.0015225 0.002164 0.125606
1.6167e-20 -0.001915 0.00184143 0.12478
0 -0.0016025 0.002164 0.124769
2.71051e-20 -0.0022275 0.00152054 0.124789
-4.10075e-20 0.00246 0.00119965 0.126109
2.1123e-20 0.00121 0.00248657 0.125406
2.71051e-20 0.0027725 0.000292358 0.126303
3.59738e-20 -0.00129 0.00248657 0.124735
-3.25744e-21 -0.00254 0.00119965 0.124762
-5.42101e-20 0.0002725 0.00280426 0.125041
-2.71051e-20 -0.0003525 0.00280426 0.124873
2.71051e-20 -0.0028525 0.000292358 0.12477
2.71051e-20 0.0027725 0.000892183 0.126253
0 0.0008975 0.00280426 0.125205
0 -0.0009775 0.00280426 0.124701
0 -0.0028525 0.000892183 0.124733
2.71051e-20 0.0021475 0.002164 0.125764
-2.44104e-20 0.00246 0.00184143 0.125941
0 0.003085 2.57439e-09 0.126379
-2.41305e-20 0.001835 0.00248657 0.125566
-5.42101e-20 -0.0022275 0.002164 0.124591
8.80323e-21 -4e-05 0.00312195 0.124828
-5.11549e-21 -0.00254 0.00184143 0.124599
3.62667e-22 -0.001915 0.00248657 0.124559
1.40358e-20 0.003085 0.000584717 0.126355
0 0.0027725 0.00152054 0.126118
0 -0.00316499 5.33244e-09 0.124676
6.70392e-21 0.000585 0.00312195 0.124995
5.42101e-20 0.0015225 0.00280426 0.125367
-9.85718e-21 -0.000665 0.00312195 0.124657
1.37056e-20 -0.003165 0.00058472 0.124657
2.71051e-20 -0.0016025 0.00280426 0.124527
0 -0.0028525 0.00152054 0.124606
-4.84973e-21 0.003085 0.00119965 0.126263
3.07691e-20 0.00121 0.00312195 0.125159
2.46993e-20 -0.00129 0.00312195 0.124483
-2.34547e-21 -0.003165 0.00119965 0.124576
0 0.0033975 0.000292358 0.126456
-2.71051e-20 0.0002725 0.00343582 0.124783
-2.71051e-20 -0.0003525 0.00343582 0.124613
0 -0.0034775 0.000292358 0.124581
2.95342e-20 0.00246 0.00248657 0.125722
5.42101e-20 0.0033975 0.000892183 0.126406
-2.71051e-20 0.0027725 0.002164 0.125919
2.71051e-20 0.0021475 0.00280426 0.125526
2.71051e-20 0.0008975 0.00343582 0.12495
-3.59433e-21 -0.00254 0.00248657 0.124378
2.71051e-20 -0.0009775 0.00343582 0.12444
0 -0.0028525 0.002164 0.124409
-2.71051e-20 -0.0022275 0.00280426 0.124347
-2.71051e-20 -0.0034775 0.000892183 0.124544
-1.74879e-20 0.003085 0.00184143 0.126095
7.94094e-21 0.001835 0.00312195 0.12532
1.29247e-26 0.00359372 0.000584717 0.126478
0 0.00344619 0.00119965 0.12635
1.47847e-20 -0.003165 0.00184143 0.124414
2.79755e-20 -0.001915 0.00312195 0.124305
0 0.00371 1.37831e-09 0.126531
5.42101e-20 0.0033975 0.00152054 0.12627
0 0.00371 0.000533785 0.126508
-3.09608e-21 -4e-05 0.00374969 0.124572
0 0.00371 0.000584717 0.126506
-5.42101e-20 0.0015225 0.00343582 0.125114
8.27181e-25 -0.00378999 5.01249e-09 0.124484
0 -0.0016025 0.00343582 0.124263
2.93568e-20 0.000585 0.00374969 0.124742
-2.71051e-20 -0.0034775 0.00152054 0.124419
-3.88513e-21 -0.000665 0.00374969 0.124398
6.93426e-21 -0.00379 0.000584719 0.124466
3.23117e-27 0.00338244 0.00184143 0.126166
0 0.00371 0.00119965 0.126413
-2.99531e-20 0.00121 0.00374969 0.124909
0 0.0027725 0.00280426 0.125681
1.20645e-20 0.003085 0.00248657 0.125876
-2.60883e-20 -0.00129 0.00374969 0.124221
-2.90713e-20 0.00246 0.00312195 0.125479
1.31232e-21 -0.00379 0.00119965 0.124386
0 -0.0028525 0.00280426 0.124164
-1.65391e-20 -0.00254 0.00312195 0.124122
1.35571e-20 -0.003165 0.00248657 0.124192
0 0.0033975 0.002164 0.126071
2.71051e-20 0.0040225 0.000292358 0.126606
2.71051e-20 0.0021475 0.00343582 0.125276
0 0.0002725 0.00406234 0.124532
2.71051e-20 -0.0003525 0.00406235 0.124358
0 -0.0022275 0.00343582 0.124082
-2.71051e-20 -0.0034775 0.002164 0.124221
-2.71051e-20 -0.0041025 0.000292358 0.124388
2.71051e-20 0.0040225 0.000892183 0.126556
1.29247e-26 0.00371 0.00184143 0.126245
-2.71051e-20 0.0008975 0.00406235 0.124702
0 0.00334846 0.00248657 0.12594
1.74016e-20 0.001835 0.00374969 0.125074
2.71051e-20 -0.0009775 0.00406235 0.124181
-2.71051e-20 -0.0041025 0.000892183 0.124351
-1.75429e-20 -0.001915 0.00374969 0.124041
1.5824e-20 -0.00379 0.00184143 0.124224
0 0.0040225 0.00152054 0.126419
5.16988e-26 0.004335 2.64124e-10 0.126679
-2.71051e-20 0.0015225 0.00406235 0.12487
0 0.004335 0.000206151 0.12667
2.71051e-20 -0.0016025 0.00406235 0.124002
0 0.004335 0.000584718 0.126654
3.23421e-20 -4e-05 0.004375 0.124327
0 -0.0041025 0.00152054 0.124226
2.14346e-20 0.003085 0.00312195 0.125636
-2.71051e-20 0.0033975 0.00280426 0.125836
7.04291e-21 0.000585 0.004375 0.124501
0 0.0027725 0.00343582 0.125435
8.27181e-25 -0.004415 4.40884e-09 0.124289
-1.70468e-20 -0.000665 0.004375 0.124149
3.02207e-20 -0.003165 0.00312195 0.123936
1.24681e-20 -0.004415 0.000584718 0.124271
-2.71051e-20 -0.0028525 0.00343582 0.123896
3.23117e-27 0.00371 0.00248657 0.126028
0 -0.0034775 0.00280426 0.123976
1.34264e-20 0.00246 0.00374969 0.125236
0 0.004335 0.00119965 0.126561
-2.85374e-20 -0.00254 0.00374969 0.123857
3.39441e-22 -0.00379 0.00248657 0.124002
2.98316e-21 0.00121 0.004375 0.124672
2.01948e-28 0.00331919 0.00312195 0.125694
2.95282e-21 -0.00129 0.004375 0.123969
2.71051e-20 0.0040225 0.002164 0.12622
-3.25237e-21 -0.004415 0.00119965 0.124191
-5.42101e-20 0.0021475 0.00406234 0.125035
0 -0.0022275 0.00406234 0.123818
0 -0.0041025 0.002164 0.124029
0 0.0046475 0.000292358 0.126753
0 0.0002725 0.0046875 0.124298
0 0.0047007 0 0.126764
-2.71051e-20 -0.0003525 0.0046875 0.12412
-2.58494e-26 0.004335 0.00184143 0.126393
2.71051e-20 0.0046475 0.000892183 0.126701
0 -0.0047275 0.000292358 0.12419
-1.96117e-20 0.001835 0.004375 0.124841
0 0.0008975 0.0046875 0.124472
8.25788e-21 -0.001915 0.004375 0.123786
-4.21283e-21 -0.004415 0.00184143 0.12403
2.71051e-20 -0.0009775 0.0046875 0.123938
0 -0.0047275 0.000892183 0.124153
-2.71051e-20 0.0033975 0.00343582 0.125593
0 0.00371 0.00312195 0.125791
2.30747e-20 0.003085 0.00374969 0.125396
0 -0.0034775 0.00343582 0.123707
0 0.0046475 0.00152054 0.126566
0 0.0040225 0.00280426 0.125989
1.4445e-20 -0.003165 0.00374969 0.123668
1.73763e-20 -0.00379 0.00312195 0.123745
0 0.0027725 0.00406234 0.125198
0 0.0015225 0.0046875 0.124643
0 -0.0016025 0.0046875 0.123755
-2.58494e-26 0.00496 1.87278e-10 0.126825
2.71051e-20 -0.0028525 0.00406235 0.12363
0 -0.0047275 0.00152054 0.12403
-2.71051e-20 -0.0041025 0.00280426 0.123783
0 0.00329094 0.00374969 0.125449
0 0.00496 0.000584716 0.126799
0 0.004335 0.00248657 0.126179
4.07742e-21 -4e-05 0.005 0.124103
-1.19273e-20 0.00246 0.004375 0.125007
-5.92257e-21 0.000585 0.005 0.124281
0 -0.00504 3.78226e-09 0.124088
1.9383e-20 -0.000665 0.005 0.123921
-7.04782e-21 -0.00254 0.004375 0.123598
1.50231e-20 -0.004415 0.00248657 0.123808
-1.23473e-20 -0.00504 0.000584717 0.124071
0 0.00496 0.00119965 0.126706
-5.42101e-20 0.0046475 0.002164 0.126369
4.07742e-21 0.00121 0.005 0.124456
2.71051e-20 0.0021475 0.0046875 0.124813
2.9383e-20 -0.00129 0.005 0.123736
0 0.00517206 0 0.126873
5.2101e-21 -0.00504 0.00119965 0.123991
-2.71051e-20 -0.0022275 0.0046875 0.123568
0 -0.0047275 0.002164 0.123834
0 0.00371 0.00374969 0.125555
5.42101e-20 0.0052725 0.000292358 0.126897
-2.71051e-20 0.0040225 0.00343582 0.12575
0 0.00496 0.00184143 0.12654
0 0.0033975 0.00406235 0.12536
0 0.0002725 0.0053125 0.124088
-2.71051e-20 -0.0003525 0.0053125 0.123906
1.55516e-20 0.001835 0.005 0.124629
-9.11772e-21 -0.00379 0.00374969 0.123475
-1.61559e-27 0.004335 0.00312195 0.125945
0 0.0052725 0.000892183 0.126846
-2.71051e-20 -0.0034775 0.00406235 0.123437
-2.71051e-20 -0.0041025 0.00343582 0.123513
2.48063e-20 0.003085 0.004375 0.125171
1.9383e-20 -0.001915 0.005 0.123548
2.71051e-20 -0.0053525 0.000292358 0.123987
-2.83891e-20 -0.00504 0.00184143 0.123831
0 0.0008975 0.0053125 0.124266
-7.65156e-21 -0.003165 0.004375 0.123406
-2.71051e-20 -0.0009775 0.0053125 0.123719
-1.16794e-20 -0.004415 0.00312195 0.123549
2.71051e-20 -0.0053525 0.000892183 0.123951
2.71051e-20 0.0046475 0.00280426 0.126139
0 0.0027725 0.0046875 0.12498
0 -0.0028525 0.0046875 0.123375
0 0.0052725 0.00152054 0.126711
-2.71051e-20 -0.0047275 0.00280426 0.123587
2.71051e-20 0.0015225 0.0053125 0.124442
1.29247e-26 0.00496 0.00248657 0.126327
2.71051e-20 -0.0016025 0.0053125 0.12353
0 -0.0053525 0.00152054 0.123829
-6.62257e-21 0.00246 0.005 0.124799
-5.16988e-26 0.005585 3.6468e-10 0.126968
-2.58494e-26 0.005585 0.000283111 0.126956
-5.92257e-21 -0.00254 0.005 0.123356
-5.16988e-26 0.005585 0.000584716 0.126943
8.59893e-22 -0.00504 0.00248657 0.123609
-2.15959e-20 -4e-05 0.005625 0.123904
-2.15959e-20 0.000585 0.005625 0.124087
2.84041e-20 -0.000665 0.005625 0.123717
0 -0.005665 3.56636e-09 0.123883
5.16988e-26 0.00567058 0 0.126987
3.34491e-21 -0.005665 0.000584718 0.123866
-2.71051e-20 0.0052725 0.002164 0.126514
0 0.005585 0.00119965 0.12685
0 0.0040225 0.00406235 0.12552
-1.02552e-29 0.00371 0.00436442 0.125337
0 0.0021475 0.0053125 0.124616
-2.01948e-28 0.004335 0.00374969 0.125712
-1.57772e-30 0.00371 0.004375 0.125333
-2.23594e-21 0.00121 0.005625 0.124267
-2.71051e-20 -0.0022275 0.0053125 0.123339
-1.09848e-20 -0.00129 0.005625 0.123527
-2.71051e-20 -0.0053525 0.002164 0.123632
2.71051e-20 -0.0041025 0.00406235 0.123241
0 0.0046475 0.00343582 0.125903
-7.04562e-21 -0.00379 0.004375 0.123209
-5.42101e-20 0.0033975 0.0046875 0.125144
-2.11243e-20 -0.005665 0.00119965 0.123787
-1.06713e-21 -0.004415 0.00374969 0.123277
-2.71051e-20 -0.0034775 0.0046875 0.123179
0 -0.0047275 0.00343582 0.123315
-1.61559e-27 0.00496 0.00312195 0.126095
1.6028e-20 0.003085 0.005 0.124967
0 0.005585 0.00184143 0.126683
2.71051e-20 0.0058975 0.000292358 0.127039
1.51458e-20 0.001835 0.005625 0.124445
-1.0617e-20 -0.003165 0.005 0.12316
1.40047e-20 -0.00504 0.00312195 0.12335
-3.09848e-20 -0.001915 0.005625 0.123335
5.42101e-20 0.0002725 0.0059375 0.123905
5.42101e-20 -0.0003525 0.0059375 0.123718
1.23464e-20 -0.005665 0.00184143 0.123627
-2.71051e-20 0.0058975 0.000892183 0.126988
0 0.0052725 0.00280426 0.126287
0 -0.0059775 0.000292358 0.12378
-2.71051e-20 0.0027725 0.0053125 0.124787
-2.71051e-20 0.0008975 0.0059375 0.124089
-2.71051e-20 -0.0009775 0.0059375 0.123526
-2.71051e-20 -0.0028525 0.0053125 0.123143
0 -0.0053525 0.00280426 0.123385
-2.71051e-20 -0.0059775 0.000892183 0.123744
0 0.0058975 0.00152054 0.126853
0 0.005585 0.00248657 0.126472
0 0.0015225 0.0059375 0.124271
-3.44752e-20 0.00246 0.005625 0.12462
-2.71051e-20 -0.0016025 0.0059375 0.123333
-2.20881e-29 0.004335 0.00437009 0.125494
-2.71051e-20 -0.0059775 0.00152054 0.123622
1.84041e-20 -0.00254 0.005625 0.123138
0 0.0046475 0.00406235 0.125678
0 0.0040225 0.0046875 0.125309
-2.64154e-20 -0.005665 0.00248657 0.123405
-4.1359e-25 0.00621 2.29851e-09 0.127109
2.9562e-21 -0.004415 0.004375 0.123008
0 0.00496 0.00374969 0.125867
9.31606e-21 0.00371 0.005 0.125133
2.71051e-20 -0.0041025 0.0046875 0.122979
0 -0.0047275 0.00406235 0.123039
5.16988e-26 0.00621 0.000584717 0.127083
-1.71493e-20 -4e-05 0.00625 0.123736
9.38296e-21 -0.00379 0.005 0.122959
-3.24548e-20 0.000585 0.00625 0.123924
7.70755e-21 -0.00504 0.00374969 0.123075
-2.71051e-20 0.0058975 0.002164 0.126657
1.28507e-20 -0.000665 0.00625 0.123543
0 -0.00629 3.80663e-09 0.123673
-2.71051e-20 0.0052725 0.00343582 0.126054
-2.71051e-20 0.0033975 0.0053125 0.124955
-2.71051e-20 0.0021475 0.0059375 0.12445
8.95713e-21 -0.00629 0.000584718 0.123656
0 0.00621 0.00119965 0.126991
0 -0.0022275 0.0059375 0.123136
0 -0.0034775 0.0053125 0.122942
-2.71051e-20 -0.0059775 0.002164 0.123425
2.71051e-20 -0.0053525 0.00343582 0.123112
-7.40134e-21 0.00121 0.00625 0.12411
2.8507e-21 -0.00129 0.00625 0.123347
0 0.005585 0.00312195 0.126244
-2.91296e-20 -0.00629 0.00119965 0.123578
1.35337e-20 0.003085 0.005625 0.124792
-5.67928e-21 -0.003165 0.005625 0.122937
3.93398e-21 -0.005665 0.00312195 0.123144
0 0.00621 0.00184143 0.126825
-1.386e-20 0.001835 0.00625 0.124293
-2.71051e-20 0.0065225 0.000292358 0.127179
0 0.0058975 0.00280426 0.126433
-7.1493e-21 -0.001915 0.00625 0.123149
-5.42101e-20 0.0027725 0.0059375 0.124626
2.77798e-21 -0.00629 0.00184143 0.123418
-2.71051e-20 0.0002725 0.0065625 0.123756
0 -0.0003525 0.0065625 0.123563
2.71051e-20 0.0065225 0.000892183 0.127128
-2.71051e-20 -0.0028525 0.0059375 0.122935
-2.71051e-20 0.0046475 0.0046875 0.12547
0 -0.0059775 0.00280426 0.123178
-5.42101e-20 -0.0066025 0.000292358 0.123567
9.46633e-30 0.00496 0.0043705 0.125653
-3.38319e-20 0.004335 0.005 0.125298
-2.71051e-20 0.0008975 0.0065625 0.123946
0 0.00662526 0 0.127201
0 -0.0009775 0.0065625 0.123365
-5.42101e-20 0.0052725 0.00406235 0.125833
0 -0.0047275 0.0046875 0.122774
0 -0.0066025 0.000892183 0.123531
-2.71051e-20 0.0040225 0.0053125 0.125124
2.9383e-20 -0.004415 0.005 0.122755
-7.04214e-21 -0.00504 0.004375 0.122803
0 0.00621 0.00248657 0.126616
-2.71051e-20 0.0065225 0.00152054 0.126993
0 -0.0041025 0.0053125 0.122737
-2.95607e-20 0.00246 0.00625 0.124473
0 -0.0053525 0.00406235 0.122834
2.63549e-21 0.005585 0.00374969 0.126019
-2.71051e-20 0.0015225 0.0065625 0.124133
-1.00101e-20 0.00371 0.005625 0.124962
-1.24548e-20 -0.00254 0.00625 0.122947
0 -0.0016025 0.0065625 0.123165
1.97224e-22 -0.00629 0.00248657 0.123195
-2.71051e-20 -0.0066025 0.00152054 0.12341
-1.56793e-20 -0.00379 0.005625 0.122732
3.34345e-20 -0.005665 0.00374969 0.122868
0 0.0058975 0.00343582 0.126205
0 0.006835 1.16091e-09 0.127247
2.71051e-20 0.0033975 0.0059375 0.124799
0 0.006835 0.000526117 0.127224
2.58494e-26 0.006835 0.000584717 0.127222
-2.71051e-20 0.0065225 0.002164 0.126799
-3.97262e-20 -4e-05 0.006875 0.123599
-2.71051e-20 -0.0034775 0.0059375 0.122729
0 -0.0059775 0.00343582 0.122903
9.66277e-21 0.000585 0.006875 0.123794
5.42101e-20 0.0021475 0.0065625 0.124318
-2.97262e-20 -0.000665 0.006875 0.1234
0 -0.006915 4.03803e-09 0.123458
-5.42101e-20 -0.0022275 0.0065625 0.122961
-1.29247e-26 0.006835 0.00119965 0.12713
-2.39882e-23 -0.006915 0.000584719 0.123441
-2.71051e-20 -0.0066025 0.002164 0.123213
-1.61446e-20 0.00621 0.00312195 0.126392
2.19534e-20 0.003085 0.00625 0.124651
6.13242e-21 0.00121 0.006875 0.123986
-3.97262e-20 -0.00129 0.006875 0.123198
2.28507e-20 -0.003165 0.00625 0.12274
-5.6727e-21 -0.006915 0.00119965 0.123362
-2.08783e-20 -0.00629 0.00312195 0.122933
-1.34952e-20 0.00496 0.005 0.125461
0 0.0052725 0.0046875 0.125629
0 0.0046475 0.0053125 0.125289
2.06795e-25 0.00706869 0 0.127298
0 0.006835 0.00184143 0.126966
1.26218e-29 0.005585 0.00436918 0.12581
-2.0006e-20 -0.00504 0.005 0.122546
2.71051e-20 0.0065225 0.00280426 0.126578
-1.18213e-20 0.004335 0.005625 0.125132
0 -0.0047275 0.0053125 0.122528
-2.71051e-20 -0.0053525 0.0046875 0.122565
-2.67469e-20 0.001835 0.006875 0.124176
-2.71051e-20 0.0027725 0.0065625 0.124499
-2.03372e-20 -0.001915 0.006875 0.122992
-1.56793e-20 -0.004415 0.005625 0.122522
0 0.0071475 0.000292358 0.127316
0 -0.0028525 0.0065625 0.122754
-2.39114e-20 -0.006915 0.00184143 0.123203
3.23476e-20 -0.005665 0.004375 0.122594
0 0.0058975 0.00406235 0.125987
0 0.0040225 0.0059375 0.124971
2.71051e-20 -0.0066025 0.00280426 0.122965
0 0.0002725 0.0071875 0.123639
5.42101e-20 -0.0003525 0.0071875 0.123438
0 0.0071475 0.000892183 0.127265
-2.71051e-20 -0.0041025 0.0059375 0.122519
0 -0.0059775 0.00406235 0.122623
2.71051e-20 -0.0072275 0.000292358 0.123349
-5.42101e-20 0.0008975 0.0071875 0.123836
0 -0.0009775 0.0071875 0.123234
-1.00974e-28 0.00621 0.00374969 0.126172
-3.28358e-20 0.00371 0.00625 0.124827
0 0.006835 0.00248657 0.126759
0 -0.0072275 0.000892183 0.123314
-1.42118e-20 0.00246 0.006875 0.124363
0 0.0071475 0.00152054 0.127132
2.28507e-20 -0.00379 0.00625 0.12253
3.47575e-21 -0.00629 0.00374969 0.122655
2.90517e-20 -0.00254 0.006875 0.122784
2.71051e-20 0.0015225 0.0071875 0.12403
-3.40358e-20 -0.006915 0.00248657 0.12298
0 -0.0016025 0.0071875 0.123026
2.71051e-20 0.0065225 0.00343582 0.126355
-2.71051e-20 -0.0072275 0.00152054 0.123192
0 0.0033975 0.0065625 0.124679
-2.71051e-20 -0.0034775 0.0065625 0.122543
-2.71051e-20 -0.0066025 0.00343582 0.122688
0 0.00746 1.94396e-09 0.127384
-3.23117e-27 0.00736765 0.00119965 0.127247
-2.71051e-20 0.0071475 0.002164 0.126941
0 0.00746 0.000584717 0.127358
0 0.0052725 0.0053125 0.125453
3.27458e-20 0.005585 0.005 0.125622
-5.23739e-21 0.00496 0.005625 0.125299
-4.29909e-20 -4e-05 0.0075 0.123493
0 0.0021475 0.0071875 0.124222
-8.07794e-28 0.006835 0.00312195 0.12654
-4.29909e-20 0.000585 0.0075 0.123696
0 -0.0022275 0.0071875 0.122817
2.23147e-20 -0.000665 0.0075 0.123287
-2.71051e-20 0.0058975 0.0046875 0.125789
-2.36459e-20 0.003085 0.006875 0.124546
0 -0.00754 4.10809e-09 0.123237
0 0.0046475 0.0059375 0.125142
2.71051e-20 -0.0053525 0.0053125 0.122315
-3.23117e-27 0.00746 0.00110516 0.127281
2.71051e-20 -0.0072275 0.002164 0.122996
-9.84813e-22 -0.00504 0.005625 0.122309
-1.61559e-27 0.00746 0.00119965 0.127267
-1.0617e-20 -0.005665 0.005 0.122332
1.29326e-20 -0.00754 0.000584719 0.12322
9.05172e-21 -0.003165 0.006875 0.122571
-1.04621e-20 -0.006915 0.00312195 0.122718
0 -0.0047275 0.0059375 0.122305
1.26218e-29 0.00621 0.00436568 0.125969
-2.71051e-20 -0.0059775 0.0046875 0.122352
0 0.00621 0.004375 0.125966
4.06175e-20 0.00121 0.0075 0.123895
-3.17408e-21 0.004335 0.00625 0.125001
-4.29909e-20 -0.00129 0.0075 0.123077
-1.30743e-20 -0.00754 0.00119965 0.123142
-1.71493e-20 -0.004415 0.00625 0.122315
-1.29581e-20 -0.00629 0.004375 0.122379
1.00974e-27 0.00744463 0.00184143 0.127102
2.71051e-20 0.0071475 0.00280426 0.126723
2.1215e-21 0.00746 0.00184143 0.127106
-2.71051e-20 0.0065225 0.00406235 0.126142
0 0.0040225 0.0065625 0.124857
0 0.0027725 0.0071875 0.12441
-2.70792e-21 0.001835 0.0075 0.124092
2.71051e-20 -0.0028525 0.0071875 0.122602
2.71051e-20 -0.0041025 0.0065625 0.122328
2.01948e-28 0.00746 0.00206371 0.127036
-4.29909e-20 -0.001915 0.0075 0.122865
-5.42101e-20 -0.0066025 0.00406235 0.122407
-2.71051e-20 -0.0072275 0.00280426 0.122747
1.48364e-20 -0.00754 0.00184143 0.122983
2.71051e-20 0.0077725 0.000292358 0.127452
5.04871e-29 0.006835 0.00374969 0.126324
-2.93413e-22 0.00371 0.006875 0.124728
-2.71051e-20 0.0002725 0.0078125 0.123551
-2.71051e-20 -0.0003525 0.0078125 0.123343
-2.71051e-20 0.0077725 0.000892183 0.1274
1.90517e-20 -0.00379 0.006875 0.122355
2.71051e-20 -0.0078525 0.000292358 0.123125
0 0.00746 0.00248657 0.126902
0 0.0008975 0.0078125 0.123757
1.00273e-20 -0.006915 0.00374969 0.122438
-2.71051e-20 -0.0009775 0.0078125 0.123131
-6.46235e-27 0.00786457 0.000584717 0.127446
4.18261e-21 0.00246 0.0075 0.124286
-2.71051e-20 -0.0078525 0.000892183 0.123091
-4.29909e-20 -0.00254 0.0075 0.122649
2.71051e-20 0.0077725 0.00152054 0.127269
1.55446e-20 0.005585 0.005625 0.125464
0 0.0071475 0.00343582 0.126505
0 0.0058975 0.0053125 0.125615
1.97209e-20 -0.00754 0.00248657 0.12276
2.71051e-20 0.0052725 0.0059375 0.12531
2.71051e-20 0.0033975 0.0071875 0.124596
2.71051e-20 0.0015225 0.0078125 0.123958
-2.39661e-20 0.00621 0.005 0.125782
-2.71051e-20 -0.0016025 0.0078125 0.122917
-2.01948e-28 0.00757916 0.00248657 0.126929
4.35148e-21 0.00496 0.00625 0.125173
-1.15959e-20 -0.005665 0.005625 0.122091
0 -0.0034775 0.0071875 0.122385
0 -0.0053525 0.0059375 0.122087
2.71051e-20 -0.0059775 0.0053125 0.122097
0 -0.0078525 0.00152054 0.122969
2.71051e-20 -0.0072275 0.00343582 0.12247
-1.24548e-20 -0.00504 0.00625 0.122096
-5.42101e-20 0.0065225 0.0046875 0.125947
-1.65336e-20 -0.00629 0.005 0.122114
2.71051e-20 0.0046475 0.0065625 0.125033
-2.71051e-20 0.0077725 0.002164 0.127081
2.06795e-25 0.008085 1.44444e-09 0.127519
0 0.00746 0.00312195 0.126686
-2.71051e-20 -0.0047275 0.0065625 0.122108
0 -0.0066025 0.0046875 0.122133
-5.42101e-20 0.0021475 0.0078125 0.124158
-5.81611e-26 0.008085 0.000570109 0.127494
-7.88861e-30 0.006835 0.0043569 0.126128
-6.35245e-21 0.008085 0.000584717 0.127494
-1.39314e-20 0.003085 0.0075 0.124477
3.63518e-22 0.006835 0.004375 0.126122
-2.71051e-20 -0.0022275 0.0078125 0.122699
-1.52159e-20 -4e-05 0.008125 0.123414
-1.082e-20 0.004335 0.006875 0.124908
-4.29909e-20 -0.003165 0.0075 0.12243
0 -0.0078525 0.002164 0.122773
-1.52159e-20 0.000585 0.008125 0.123625
-1.52159e-20 -0.000665 0.008125 0.1232
-2.08793e-21 -0.00754 0.00312195 0.122497
0 -0.008165 4.21754e-09 0.123011
-2.03372e-20 -0.004415 0.006875 0.122135
4.78938e-22 0.008085 0.00119965 0.127403
-2.9591e-21 -0.006915 0.004375 0.122159
2.11779e-21 -0.008165 0.000584719 0.122994
-9.96534e-22 0.00121 0.008125 0.123833
2.71051e-20 0.0071475 0.00406235 0.126295
-1.52159e-20 -0.00129 0.008125 0.122983
0 0.0040225 0.0071875 0.124781
-1.66199e-20 -0.008165 0.00119965 0.122916
-2.71051e-20 0.0077725 0.00280426 0.126866
0 0.00765391 0.00312195 0.126731
2.71051e-20 -0.0041025 0.0071875 0.122164
-2.71051e-20 0.0027725 0.0078125 0.124355
-2.71051e-20 -0.0072275 0.00406235 0.122186
3.22763e-20 0.008085 0.00184143 0.127244
2.71051e-20 -0.0028525 0.0078125 0.122477
4.64997e-21 0.001835 0.008125 0.124038
0 -0.0078525 0.00280426 0.122524
-1.52159e-20 -0.001915 0.008125 0.122764
0 0.00746 0.00374969 0.126475
2.17313e-20 0.00371 0.0075 0.124666
5.42101e-20 0.0058975 0.0059375 0.125477
-2.76216e-20 -0.008165 0.00184143 0.122756
1.03398e-25 0.00837318 0 0.127582
2.26337e-20 0.00621 0.005625 0.125628
6.82221e-21 0.005585 0.00625 0.125343
0 0.0083975 0.000292359 0.127587
-4.29909e-20 -0.00379 0.0075 0.122207
2.71051e-20 0.0065225 0.0053125 0.125777
-2.71051e-20 0.0052725 0.0065625 0.125206
8.02302e-21 -0.00754 0.00374969 0.122216
5.42101e-20 -0.0059775 0.0059375 0.121864
-2.45484e-21 -0.005665 0.00625 0.121873
-1.69014e-20 -0.00629 0.005625 0.121868
0 0.0002725 0.0084375 0.123489
0 0.0083975 0.000892183 0.127535
0 -0.0003525 0.0084375 0.123273
6.76795e-21 0.008085 0.00248657 0.127044
0 -0.0053525 0.0065625 0.121884
-4.00935e-20 0.006835 0.005 0.125942
0 -0.0066025 0.0053125 0.121874
1.3803e-20 0.00496 0.006875 0.125086
2.71051e-20 -0.0084775 0.000292359 0.122896
0 0.0008975 0.0084375 0.123703
3.39557e-20 0.00246 0.008125 0.12424
-2.71051e-20 -0.0009775 0.0084375 0.123053
0 0.0077725 0.00343582 0.126652
-1.52159e-20 -0.00254 0.008125 0.12254
-2.71051e-20 0.0033975 0.0078125 0.124548
6.31089e-30 0.00765087 0.00374969 0.12652
-2.71051e-20 -0.0084775 0.000892183 0.122861
-1.03372e-20 -0.00504 0.006875 0.12191
-1.59226e-20 -0.006915 0.005 0.121891
-2.71051e-20 0.0083975 0.00152054 0.127406
-1.5719e-20 -0.008165 0.00248657 0.122534
0 0.0071475 0.0046875 0.126104
-2.71051e-20 -0.0034775 0.0078125 0.122253
2.71051e-20 0.0046475 0.0071875 0.124963
-5.42101e-20 -0.0078525 0.00343582 0.122246
-2.71051e-20 0.0015225 0.0084375 0.123912
-2.71051e-20 -0.0016025 0.0084375 0.122831
0 -0.0047275 0.0071875 0.121938
3.15544e-30 0.00746 0.0042907 0.126303
2.71051e-20 -0.0084775 0.00152054 0.12274
-2.71051e-20 -0.0072275 0.0046875 0.121909
0 0.00746 0.004375 0.126276
-3.69088e-21 0.004335 0.0075 0.124853
2.01948e-28 0.008085 0.00312195 0.126831
-2.71051e-20 0.0083975 0.002164 0.127219
-1.85227e-20 0.003085 0.008125 0.12444
2.23147e-20 -0.004415 0.0075 0.12198
2.71051e-20 0.0021475 0.0084375 0.124121
-2.06795e-25 0.00871 1.68827e-09 0.127655
2.95648e-21 -0.00754 0.004375 0.121934
-1.52159e-20 -0.003165 0.008125 0.122313
-2.71051e-20 -0.0022275 0.0084375 0.122606
3.60752e-21 0.00871 0.000584717 0.127629
-1.02306e-20 -0.008165 0.00312195 0.12227
0 -0.0084775 0.002164 0.122543
4.20678e-20 -4e-05 0.00875 0.123357
3.28992e-21 0.000585 0.00875 0.123576
-2.71051e-20 0.0077725 0.00406234 0.126447
4.20678e-20 -0.000665 0.00875 0.123135
-2.71051e-20 0.0040225 0.0078125 0.12474
0 -0.00879 4.32624e-09 0.122778
2.39247e-20 0.00871 0.00119965 0.127539
1.51192e-20 -0.00879 0.000584719 0.122761
-1.05814e-20 0.00621 0.00625 0.125512
0 0.0065225 0.0059375 0.125643
0 0.0058975 0.0065625 0.125378
0 -0.0041025 0.0078125 0.122025
1.75093e-20 0.00121 0.00875 0.123792
0 -0.0078525 0.00406235 0.12196
3.28992e-21 -0.00129 0.00875 0.12291
-2.13266e-20 0.006835 0.005625 0.125791
0 0.0083975 0.00280426 0.127008
3.79006e-20 0.005585 0.006875 0.125262
7.54516e-21 -0.00629 0.00625 0.121646
-9.70572e-21 -0.00879 0.00119965 0.122684
0 -0.0059775 0.0065625 0.121657
2.71051e-20 -0.0066025 0.0059375 0.121638
-2.71051e-20 0.0027725 0.0084375 0.124326
-2.52176e-20 0.00871 0.00184143 0.127381
0 0.0071475 0.0053125 0.125938
-2.71051e-20 -0.0028525 0.0084375 0.122377
9.66278e-21 -0.005665 0.006875 0.121681
4.12769e-21 0.008085 0.00374969 0.126624
-3.09848e-20 -0.006915 0.005625 0.121642
-2.71051e-20 0.0052725 0.0071875 0.125143
0 -0.0084775 0.00280426 0.122294
-2.42272e-20 0.00371 0.008125 0.124636
-1.15386e-20 0.001835 0.00875 0.124005
4.20678e-20 -0.001915 0.00875 0.122683
0 -0.0053525 0.0071875 0.121708
-1.92994e-20 -0.00379 0.008125 0.122083
0 -0.0072275 0.0053125 0.121647
3.87741e-26 0.0089555 0.000584717 0.127682
-2.8787e-21 0.00746 0.005 0.1261
1.89053e-20 -0.00879 0.00184143 0.122524
2.02697e-21 -0.008165 0.00374969 0.121988
-2.52737e-21 0.00496 0.0075 0.125038
-6.46235e-27 0.0089216 0.00119965 0.127585
2.71051e-20 0.0090225 0.000292359 0.127722
2.23147e-20 -0.00504 0.0075 0.121749
2.9383e-20 -0.00754 0.005 0.121663
9.90624e-21 0.00871 0.00248657 0.127184
2.71051e-20 0.0090225 0.000892183 0.127671
-5.42101e-20 0.0002725 0.0090625 0.123444
-2.71051e-20 -0.0003525 0.0090625 0.12322
0 0.0083975 0.00343582 0.126799
-2.71051e-20 0.0077725 0.0046875 0.126259
-2.91776e-20 0.00246 0.00875 0.124217
0 0.0046475 0.0078125 0.12493
2.71051e-20 0.0033975 0.0084375 0.124529
-2.71051e-20 0.0008975 0.0090625 0.123666
2.71051e-20 -0.0091025 0.000292359 0.122661
4.20678e-20 -0.00254 0.00875 0.122452
2.71051e-20 -0.0009775 0.0090625 0.122993
0 -0.0034775 0.0084375 0.122145
-2.71051e-20 -0.0047275 0.0078125 0.121793
4.35819e-21 -0.00879 0.00248657 0.122301
2.71051e-20 -0.0078525 0.0046875 0.12168
0 -0.0091025 0.000892183 0.122626
-2.71051e-20 -0.0084775 0.00343582 0.122016
-2.71051e-20 0.0090225 0.00152054 0.127543
-1.61559e-27 0.00897863 0.00184143 0.127441
-2.71051e-20 0.0015225 0.0090625 0.123885
3.28966e-21 0.008085 0.004375 0.12643
-2.71051e-20 -0.0016025 0.0090625 0.122763
3.78974e-20 0.004335 0.008125 0.124831
-2.71051e-20 -0.0091025 0.00152054 0.122505
-1.92994e-20 -0.004415 0.008125 0.12185
-2.71051e-20 0.0065225 0.0065625 0.125549
1.94561e-20 0.00871 0.00312195 0.126976
-6.70105e-21 0.006835 0.00625 0.125679
-7.0405e-21 -0.008165 0.004375 0.121704
2.59702e-21 0.00621 0.006875 0.125437
6.09379e-21 0.003085 0.00875 0.124425
5.42101e-20 0.0090225 0.002164 0.127358
0 0.0071475 0.0059375 0.125807
0 0.0058975 0.0071875 0.125321
3.28992e-21 -0.003165 0.00875 0.122218
-2.71051e-20 -0.0066025 0.0065625 0.121425
-2.71051e-20 0.0021475 0.0090625 0.124102
1.96628e-20 -0.00629 0.006875 0.121449
-7.1493e-21 -0.006915 0.00625 0.121415
-3.0129e-20 -0.00879 0.00312195 0.122037
-2.71051e-20 0.0083975 0.00406235 0.126598
2.71051e-20 -0.0022275 0.0090625 0.12253
0 0.009335 7.95895e-10 0.12779
-7.93489e-22 0.00746 0.005625 0.125953
0 0.009335 0.000458767 0.12777
0 0.0040225 0.0084375 0.124729
0 -0.0059775 0.0071875 0.121476
1.85568e-20 0.005585 0.0075 0.125221
0 0.009335 0.000584717 0.127765
-2.71051e-20 -0.0072275 0.0059375 0.121407
-2.71051e-20 -0.0091025 0.002164 0.122308
3.28992e-21 -4e-05 0.009375 0.123313
0 -0.0041025 0.0084375 0.121909
3.28992e-21 0.000585 0.009375 0.12354
3.28992e-21 -0.000665 0.009375 0.123084
-4.29909e-20 -0.005665 0.0075 0.121515
0 -0.0084775 0.00406235 0.121729
0 0.00906691 0.00248657 0.127264
9.01519e-21 -0.00754 0.005625 0.12141
-1.29247e-26 0.009335 0.00119965 0.127675
0 0.0077725 0.0053125 0.126097
0 -0.009415 4.24465e-09 0.12254
0 0.0052725 0.0078125 0.125118
5.78964e-21 -0.009415 0.000584719 0.122523
0 0.0090225 0.00280426 0.12715
1.75093e-20 0.00121 0.009375 0.123764
0 0.00945648 0 0.127817
3.28992e-21 -0.00129 0.009375 0.122852
0 -0.0053525 0.0078125 0.121557
0 0.0027725 0.0090625 0.124316
0 -0.0078525 0.0053125 0.121415
2.70595e-20 0.00871 0.00374969 0.126773