# U  POINT_DATA 64962
# x  y  z  U_x  U_y  U_z
0 -3.99946e-05 5.21085e-09 3.7847e-07 -6.42638e-07 3.38189e-09
-5.42101e-20 0.000272502 0.000292358 0.031945 -0.0578175 0.000206232
5.42101e-20 -0.000352499 0.000292358 0.0312314 -0.058278 0.000175089
0 0.000585009 5.11816e-09 3.78613e-07 -6.25758e-07 3.67528e-09
0 -3.99965e-05 0.000584718 0.0519118 -0.125408 -0.00382336
-8.27181e-25 -0.000664995 5.31781e-09 3.78723e-07 -6.61448e-07 3.08196e-09
0 0.000585003 0.000584719 0.0528953 -0.124521 -0.00368601
7.82637e-21 -0.000665003 0.00058472 0.0508916 -0.126286 -0.003953
0 0.000272501 0.000892183 0.0732081 -0.193189 -0.00778276
-2.71051e-20 0.000897501 0.000292359 0.0326296 -0.0573505 0.00023892
0 -0.0003525 0.000892183 0.0719135 -0.194502 -0.00802053
0 -0.0009775 0.000292358 0.0304871 -0.0587264 0.000145763
-2.06795e-25 -3.99985e-05 0.00119965 0.0730013 -0.207217 -0.0127968
0 0.00121001 4.87434e-09 3.66798e-07 -5.9078e-07 3.82995e-09
-2.71051e-20 0.0008975 0.000892183 0.0744583 -0.191869 -0.00753158
0 -0.00128999 5.46622e-09 3.81168e-07 -6.85587e-07 2.78662e-09
-2.71051e-20 -0.0009775 0.000892183 0.0705759 -0.195806 -0.00824404
0 0.000585002 0.00119965 0.07428 -0.205849 -0.0124528
-4.1359e-25 0.00121 0.000584719 0.0538417 -0.123629 -0.00354177
-8.22466e-21 -0.000665001 0.00119965 0.0716808 -0.208589 -0.0131219
-2.0682e-20 -0.00129 0.000584719 0.0498355 -0.127153 -0.0040747
2.71051e-20 0.0002725 0.00152054 0.074101 -0.220066 -0.0175458
0 0.0015225 0.000292358 0.0332853 -0.0568807 0.000272334
2.71051e-20 -0.0003525 0.00152054 0.0727955 -0.221496 -0.0179793
2.71051e-20 -0.0016025 0.000292358 0.0297135 -0.0591615 0.000117116
1.03398e-25 0.00121 0.00119965 0.0755154 -0.204487 -0.0120918
-1.63341e-20 -0.00129 0.00119965 0.0703203 -0.209965 -0.013427
-2.71051e-20 0.0015225 0.000892183 0.0756623 -0.190543 -0.00726835
-2.71051e-20 0.0008975 0.00152054 0.0753658 -0.218655 -0.0170895
-2.71051e-20 -0.0009775 0.00152054 0.0714509 -0.222941 -0.018388
-2.71051e-20 -0.0016025 0.000892183 0.0691975 -0.1971 -0.00845234
0 0.001835 4.40292e-09 3.36641e-07 -5.29018e-07 3.74818e-09
3.17229e-21 -4.00002e-05 0.00184143 0.0697118 -0.220736 -0.0226382
0 -0.00191499 5.51995e-09 3.76319e-07 -6.97941e-07 2.42508e-09
-2.28794e-20 0.001835 0.000584719 0.0547498 -0.122733 -0.00339166
1.57478e-20 0.000585 0.00184143 0.0709429 -0.219273 -0.0220846
2.15287e-20 -0.000665 0.00184143 0.068441 -0.222222 -0.0231627
1.36472e-20 -0.001915 0.000584719 0.0487456 -0.128008 -0.0041882
2.71051e-20 0.0015225 0.00152054 0.0765885 -0.217263 -0.0166134
-8.13152e-20 0.0021475 0.000292358 0.0339106 -0.0564107 0.000305794
0 0.0002725 0.002164 0.0665672 -0.21993 -0.0271995
-1.77047e-20 0.001835 0.00119965 0.0767059 -0.203131 -0.011716
-2.71051e-20 -0.0003525 0.002164 0.06537 -0.22145 -0.0278459
1.05576e-20 0.00121 0.00184143 0.0721329 -0.217833 -0.0215056
-2.71051e-20 -0.0016025 0.00152054 0.0700696 -0.224402 -0.0187703
0 -0.0022275 0.000292358 0.0289131 -0.0595829 8.92553e-05
-5.34483e-21 -0.00129 0.00184143 0.0671326 -0.223729 -0.0236552
6.28471e-21 -0.001915 0.00119965 0.0689221 -0.211343 -0.0137105
2.71051e-20 0.0021475 0.000892183 0.0768182 -0.189211 -0.00699425
2.71051e-20 0.0008975 0.002164 0.0677242 -0.218438 -0.026521
-2.71051e-20 -0.0009775 0.002164 0.0641343 -0.222999 -0.0284556
0 -0.0022275 0.000892183 0.0677806 -0.198383 -0.00864426
0 0.00246 3.63123e-09 2.81777e-07 -4.32546e-07 3.32195e-09
-1.30687e-20 -3.99999e-05 0.00248657 0.0618075 -0.220366 -0.0320194
2.29286e-20 0.00246 0.000584717 0.0556184 -0.121835 -0.00323682
0 -0.00253999 5.46152e-09 3.63467e-07 -6.95975e-07 2.0169e-09
2.08414e-20 0.000585 0.00248657 0.0629082 -0.218797 -0.0312441
1.27114e-22 -0.000665 0.00248657 0.0606687 -0.221968 -0.0327541
-3.16773e-20 0.001835 0.00184143 0.0732803 -0.21642 -0.0209048
-3.8042e-21 -0.00254 0.00058472 0.0476242 -0.12885 -0.00429269
-2.71051e-20 0.0021475 0.00152054 0.0777682 -0.215889 -0.0161204
0 0.0015225 0.002164 0.0688393 -0.216977 -0.0258151
1.6167e-20 -0.001915 0.00184143 0.0657889 -0.225256 -0.0241131
0 -0.0016025 0.002164 0.0628627 -0.224573 -0.0290251
2.71051e-20 -0.0022275 0.00152054 0.0686533 -0.225879 -0.0191243
-4.10075e-20 0.00246 0.00119965 0.0778502 -0.201783 -0.0113277
2.1123e-20 0.00121 0.00248657 0.0639693 -0.217265 -0.0304339
2.71051e-20 0.0027725 0.000292358 0.0345054 -0.0559428 0.000339229
3.59738e-20 -0.00129 0.00248657 0.0594937 -0.223602 -0.0334431
-3.25744e-21 -0.00254 0.00119965 0.0674882 -0.212723 -0.013971
-5.42101e-20 0.0002725 0.00280426 0.05819 -0.219217 -0.0360596
-2.71051e-20 -0.0003525 0.00280426 0.0571464 -0.220868 -0.0369254
2.71051e-20 -0.0028525 0.000292358 0.0280882 -0.0599901 6.33674e-05
2.71051e-20 0.0027725 0.000892183 0.0779249 -0.187876 -0.006712
0 0.0008975 0.00280426 0.0591957 -0.217607 -0.0351503
0 -0.0009775 0.00280426 0.0560667 -0.222557 -0.0377413
0 -0.0028525 0.000892183 0.0663274 -0.199655 -0.00881901
2.71051e-20 0.0021475 0.002164 0.0699113 -0.215548 -0.0250868
-2.44104e-20 0.00246 0.00184143 0.0743842 -0.215032 -0.020286
0 0.003085 2.57439e-09 2.02539e-07 -3.04065e-07 2.51366e-09
-2.41305e-20 0.001835 0.00248657 0.0649897 -0.215773 -0.0295951
-5.42101e-20 -0.0022275 0.002164 0.0615572 -0.226171 -0.0295514
8.80323e-21 -4e-05 0.00312195 0.0536564 -0.220045 -0.040531
-5.11549e-21 -0.00254 0.00184143 0.064412 -0.226802 -0.024534
3.62667e-22 -0.001915 0.00248657 0.0582851 -0.225263 -0.0340818
1.40358e-20 0.003085 0.000584717 0.0564475 -0.120938 -0.00307855
0 0.0027725 0.00152054 0.0789034 -0.214535 -0.0156134
0 -0.00316499 5.33244e-09 3.4588e-07 -6.84665e-07 1.61433e-09
6.70392e-21 0.000585 0.00312195 0.0546159 -0.218355 -0.0395368
5.42101e-20 0.0015225 0.00280426 0.060163 -0.216044 -0.0342045
-9.85718e-21 -0.000665 0.00312195 0.0526637 -0.22178 -0.0414725
1.37056e-20 -0.003165 0.00058472 0.0464735 -0.129679 -0.00438756
2.71051e-20 -0.0016025 0.00280426 0.0549532 -0.224278 -0.038501
0 -0.0028525 0.00152054 0.0672041 -0.227369 -0.0194478
-4.84973e-21 0.003085 0.00119965 0.0789472 -0.200442 -0.0109295
3.07691e-20 0.00121 0.00312195 0.055541 -0.216718 -0.0384989
2.46993e-20 -0.00129 0.00312195 0.0516399 -0.223556 -0.0423533
-2.34547e-21 -0.003165 0.00119965 0.0660212 -0.214103 -0.0142074
0 0.0033975 0.000292358 0.0350716 -0.0554811 0.000372442
-2.71051e-20 0.0002725 0.00343582 0.0501159 -0.219158 -0.0440162
-2.71051e-20 -0.0003525 0.00343582 0.0492061 -0.220934 -0.0450898
0 -0.0034775 0.000292358 0.02724 -0.0603807 3.95722e-05
2.95342e-20 0.00246 0.00248657 0.0659689 -0.214321 -0.0287336
5.42101e-20 0.0033975 0.000892183 0.0789817 -0.186539 -0.00642382
-2.71051e-20 0.0027725 0.002164 0.0709395 -0.214152 -0.0243395
2.71051e-20 0.0021475 0.00280426 0.0610912 -0.214528 -0.0332304
2.71051e-20 0.0008975 0.00343582 0.0509955 -0.217439 -0.0428891
-3.59433e-21 -0.00254 0.00248657 0.0570457 -0.226948 -0.0346664
2.71051e-20 -0.0009775 0.00343582 0.0482678 -0.22276 -0.0460997
0 -0.0028525 0.002164 0.0602209 -0.227789 -0.0300315
-2.71051e-20 -0.0022275 0.00280426 0.0538087 -0.226028 -0.0391993
-2.71051e-20 -0.0034775 0.000892183 0.0648408 -0.200913 -0.00897631
-1.74879e-20 0.003085 0.00184143 0.0754436 -0.21367 -0.0196524
7.94094e-21 0.001835 0.00312195 0.0564313 -0.215137 -0.0374269
1.29247e-26 0.00359372 0.000584717 0.0570908 -0.120211 -0.002948
0 0.00344619 0.00119965 0.0795534 -0.199673 -0.010695
1.47847e-20 -0.003165 0.00184143 0.0630049 -0.228364 -0.0249155
2.79755e-20 -0.001915 0.00312195 0.0505878 -0.225365 -0.0431664
0 0.00371 1.37831e-09 1.06907e-07 -1.57019e-07 1.39056e-09
5.42101e-20 0.0033975 0.00152054 0.0799931 -0.213199 -0.0150947
0 0.00371 0.000533785 0.0522521 -0.109588 -0.00266397
-3.09608e-21 -4e-05 0.00374969 0.0459556 -0.2203 -0.0482819
0 0.00371 0.000584717 0.0572378 -0.120045 -0.00291815
-5.42101e-20 0.0015225 0.00343582 0.0518437 -0.215783 -0.0417205
8.27181e-25 -0.00378999 5.01249e-09 3.1636e-07 -6.48234e-07 1.20716e-09
0 -0.0016025 0.00343582 0.0473038 -0.224626 -0.0470366
2.93568e-20 0.000585 0.00374969 0.046803 -0.218481 -0.0470956
-2.71051e-20 -0.0034775 0.00152054 0.0657252 -0.228872 -0.0197397
-3.88513e-21 -0.000665 0.00374969 0.0450856 -0.222176 -0.0494028
6.93426e-21 -0.00379 0.000584719 0.0452958 -0.130492 -0.00447286
3.23117e-27 0.00338244 0.00184143 0.0759266 -0.213034 -0.0193456
0 0.00371 0.00119965 0.0799962 -0.199111 -0.0105237
-2.99531e-20 0.00121 0.00374969 0.0476263 -0.21673 -0.0458567
0 0.0027725 0.00280426 0.0619802 -0.213061 -0.0322353
1.20645e-20 0.003085 0.00248657 0.0669067 -0.212912 -0.0278549
-2.60883e-20 -0.00129 0.00374969 0.0441949 -0.224101 -0.050447
-2.90713e-20 0.00246 0.00312195 0.057287 -0.213615 -0.0363301
1.31232e-21 -0.00379 0.00119965 0.0645241 -0.215481 -0.0144189
0 -0.0028525 0.00280426 0.0526362 -0.227803 -0.0398322
-1.65391e-20 -0.00254 0.00312195 0.0495099 -0.227202 -0.0439064
1.35571e-20 -0.003165 0.00248657 0.0557784 -0.228654 -0.0351934
0 0.0033975 0.002164 0.0719239 -0.212791 -0.0235777
2.71051e-20 0.0040225 0.000292358 0.0356115 -0.0550306 0.000404475
2.71051e-20 0.0021475 0.00343582 0.0526616 -0.214194 -0.0405216
0 0.0002725 0.00406234 0.0426592 -0.21959 -0.0513861
2.71051e-20 -0.0003525 0.00406235 0.0418509 -0.221514 -0.0526255
0 -0.0022275 0.00343582 0.0463166 -0.226525 -0.0478935
-2.71051e-20 -0.0034775 0.002164 0.058857 -0.229425 -0.0304624
-2.71051e-20 -0.0041025 0.000292358 0.026371 -0.0607544 1.72687e-05
2.71051e-20 0.0040225 0.000892183 0.0799876 -0.185202 -0.00613158
1.29247e-26 0.00371 0.00184143 0.0764584 -0.212335 -0.0190076
-2.71051e-20 0.0008975 0.00406235 0.0434511 -0.217735 -0.0500816
0 0.00334846 0.00248657 0.0672849 -0.212336 -0.0274797
1.74016e-20 0.001835 0.00374969 0.0484245 -0.215055 -0.0445783
2.71051e-20 -0.0009775 0.00406235 0.0410273 -0.223495 -0.053786
-2.71051e-20 -0.0041025 0.000892183 0.0633235 -0.202157 -0.00911611
-1.75429e-20 -0.001915 0.00374969 0.0432856 -0.226062 -0.051405
1.5824e-20 -0.00379 0.00184143 0.0615708 -0.22994 -0.0252559
0 0.0040225 0.00152054 0.0810372 -0.211884 -0.0145674
5.16988e-26 0.004335 2.64124e-10 2.00883e-08 -2.89438e-08 2.70867e-10
-2.71051e-20 0.0015225 0.00406235 0.0442246 -0.215961 -0.0487263
0 0.004335 0.000206151 0.0204452 -0.0420111 -0.000972128
2.71051e-20 -0.0016025 0.00406235 0.04019 -0.225521 -0.0548554
0 0.004335 0.000584718 0.0579897 -0.119158 -0.0027573
3.23421e-20 -4e-05 0.004375 0.0389095 -0.221041 -0.055544
0 -0.0041025 0.00152054 0.0642198 -0.230385 -0.0199988
2.14346e-20 0.003085 0.00312195 0.0581085 -0.212157 -0.0352178
-2.71051e-20 0.0033975 0.00280426 0.0628307 -0.211647 -0.0312264
7.04291e-21 0.000585 0.004375 0.0396672 -0.219061 -0.0542101
0 0.0027725 0.00343582 0.0534496 -0.212679 -0.0393035
8.27181e-25 -0.004415 4.40884e-09 2.70296e-07 -5.74088e-07 8.04485e-10
-1.70468e-20 -0.000665 0.004375 0.0381423 -0.223085 -0.0567938
3.02207e-20 -0.003165 0.00312195 0.0484089 -0.229061 -0.0445679
1.24681e-20 -0.004415 0.000584718 0.0440936 -0.131289 -0.00454828
-2.71051e-20 -0.0028525 0.00343582 0.0453085 -0.228449 -0.0486645
3.23117e-27 0.00371 0.00248657 0.0678039 -0.211545 -0.0269648
0 -0.0034775 0.00280426 0.0514388 -0.229597 -0.0403956
1.34264e-20 0.00246 0.00374969 0.0491976 -0.213464 -0.0432739
0 0.004335 0.00119965 0.0809969 -0.197789 -0.0101128
-2.85374e-20 -0.00254 0.00374969 0.0423606 -0.228049 -0.0522686
3.39441e-22 -0.00379 0.00248657 0.0544866 -0.230377 -0.0356599
2.98316e-21 0.00121 0.004375 0.0404138 -0.21716 -0.0528076
2.01948e-28 0.00331919 0.00312195 0.0584042 -0.211634 -0.0347987
2.95282e-21 -0.00129 0.004375 0.0373673 -0.225175 -0.0579454
2.71051e-20 0.0040225 0.002164 0.0728647 -0.211464 -0.0228058
-3.25237e-21 -0.004415 0.00119965 0.0629997 -0.216857 -0.0146049
-5.42101e-20 0.0021475 0.00406234 0.0449779 -0.21428 -0.0473357
0 -0.0022275 0.00406234 0.0393412 -0.227575 -0.055824
0 -0.0041025 0.002164 0.057469 -0.231077 -0.030842
0 0.0046475 0.000292358 0.0361259 -0.0545947 0.000433519
0 0.0002725 0.0046875 0.0359232 -0.220475 -0.0584056
0 0.0047007 0 0 0 0
-2.71051e-20 -0.0003525 0.0046875 0.0352059 -0.222583 -0.0597574
-2.58494e-26 0.004335 0.00184143 0.0774289 -0.211027 -0.0183552
2.71051e-20 0.0046475 0.000892183 0.0809421 -0.183866 -0.00583729
0 -0.0047275 0.000292358 0.0254835 -0.0611117 -2.53321e-06
-1.96117e-20 0.001835 0.004375 0.041147 -0.215355 -0.0513535
0 0.0008975 0.0046875 0.0366365 -0.218442 -0.0569657
8.25788e-21 -0.001915 0.004375 0.0365864 -0.227295 -0.0589875
-4.21283e-21 -0.004415 0.00184143 0.0601129 -0.231527 -0.0255536
2.71051e-20 -0.0009775 0.0046875 0.0344864 -0.224745 -0.0610048
0 -0.0047275 0.000892183 0.0617781 -0.203387 -0.00923761
-2.71051e-20 0.0033975 0.00343582 0.0542087 -0.211241 -0.0380777
0 0.00371 0.00312195 0.0588975 -0.210763 -0.0340991
2.30747e-20 0.003085 0.00374969 0.0499464 -0.211963 -0.0419574
0 -0.0034775 0.00343582 0.0442821 -0.230389 -0.049343
0 0.0046475 0.00152054 0.0820359 -0.210589 -0.0140343
0 0.0040225 0.00280426 0.0636444 -0.210286 -0.0302101
1.4445e-20 -0.003165 0.00374969 0.0414225 -0.23005 -0.0530312
1.73763e-20 -0.00379 0.00312195 0.0472883 -0.230933 -0.0451471
0 0.0027725 0.00406234 0.0457113 -0.212701 -0.045926
0 0.0015225 0.0046875 0.037344 -0.216503 -0.0554555
0 -0.0016025 0.0046875 0.0337666 -0.226939 -0.0621341
-2.58494e-26 0.00496 1.87278e-10 1.46891e-08 -2.32138e-08 1.55414e-10
2.71051e-20 -0.0028525 0.00406235 0.0384853 -0.229644 -0.0566818
0 -0.0047275 0.00152054 0.0626905 -0.231906 -0.020224
-2.71051e-20 -0.0041025 0.00280426 0.0502204 -0.231404 -0.040887
0 0.00329094 0.00374969 0.0501857 -0.2115 -0.041524
0 0.00496 0.000584716 0.0587024 -0.118279 -0.00259749
0 0.004335 0.00248657 0.0686616 -0.210223 -0.0260687
4.07742e-21 -4e-05 0.005 0.0325737 -0.222295 -0.0624348
-1.19273e-20 0.00246 0.004375 0.0418654 -0.21366 -0.0498667
-5.92257e-21 0.000585 0.005 0.0332379 -0.220122 -0.061005
0 -0.00504 3.78226e-09 2.24858e-07 -4.95733e-07 4.8018e-10
1.9383e-20 -0.000665 0.005 0.0319131 -0.224521 -0.0637513
-7.04782e-21 -0.00254 0.004375 0.0358028 -0.229427 -0.0599116
1.50231e-20 -0.004415 0.00248657 0.053174 -0.232111 -0.0360641
-1.23473e-20 -0.00504 0.000584717 0.0428696 -0.132072 -0.00461368
0 0.00496 0.00119965 0.0819491 -0.196478 -0.00969901
-5.42101e-20 0.0046475 0.002164 0.0737628 -0.210172 -0.0220282
4.07742e-21 0.00121 0.005 0.0339034 -0.218029 -0.0594792
2.71051e-20 0.0021475 0.0046875 0.0380428 -0.214677 -0.0538954
2.9383e-20 -0.00129 0.005 0.0312579 -0.226777 -0.0649402
0 0.00517206 0 0 0 0
5.2101e-21 -0.00504 0.00119965 0.0614508 -0.218229 -0.014765
-2.71051e-20 -0.0022275 0.0046875 0.0330491 -0.229145 -0.0631352
0 -0.0047275 0.002164 0.0560603 -0.232741 -0.0311693
0 0.00371 0.00374969 0.0506727 -0.210557 -0.0406422
5.42101e-20 0.0052725 0.000292358 0.036612 -0.0541714 0.00045866
-2.71051e-20 0.0040225 0.00343582 0.0549414 -0.209881 -0.0368548
0 0.00496 0.00184143 0.0783558 -0.209747 -0.0176986
0 0.0033975 0.00406235 0.0464261 -0.211232 -0.0445137
0 0.0002725 0.0053125 0.0298872 -0.221908 -0.0650869
-2.71051e-20 -0.0003525 0.0053125 0.0292785 -0.224212 -0.0664894
1.55516e-20 0.001835 0.005 0.0345675 -0.216038 -0.0578784
-9.11772e-21 -0.00379 0.00374969 0.0404732 -0.232056 -0.0536891
-1.61559e-27 0.004335 0.00312195 0.059656 -0.209435 -0.032982
0 0.0052725 0.000892183 0.0818448 -0.182531 -0.00554231
-2.71051e-20 -0.0034775 0.00406235 0.0376229 -0.231716 -0.0574251
-2.71051e-20 -0.0041025 0.00343582 0.043241 -0.232335 -0.0499258
2.48063e-20 0.003085 0.004375 0.0425689 -0.212086 -0.0483668
1.9383e-20 -0.001915 0.005 0.0306095 -0.229041 -0.0659911
2.71051e-20 -0.0053525 0.000292358 0.0245806 -0.0614533 -2.05802e-05
-2.83891e-20 -0.00504 0.00184143 0.0586343 -0.233124 -0.025808
0 0.0008975 0.0053125 0.0305049 -0.219663 -0.0635616
-7.65156e-21 -0.003165 0.004375 0.0350182 -0.231557 -0.0607129
-2.71051e-20 -0.0009775 0.0053125 0.0286815 -0.226544 -0.0677536
-1.16794e-20 -0.004415 0.00312195 0.0461514 -0.232811 -0.0456418
2.71051e-20 -0.0053525 0.000892183 0.0602075 -0.204601 -0.00934136
2.71051e-20 0.0046475 0.00280426 0.0644231 -0.208977 -0.0291925
0 0.0027725 0.0046875 0.038731 -0.212981 -0.0523086
0 -0.0028525 0.0046875 0.0323367 -0.231345 -0.064004
0 0.0052725 0.00152054 0.0829896 -0.209312 -0.013498
-2.71051e-20 -0.0047275 0.00280426 0.048984 -0.233219 -0.0413052
2.71051e-20 0.0015225 0.0053125 0.0311282 -0.217507 -0.0619337
1.29247e-26 0.00496 0.00248657 0.0694815 -0.208945 -0.0251715
2.71051e-20 -0.0016025 0.0053125 0.0280972 -0.228881 -0.0688682
0 -0.0053525 0.00152054 0.0611405 -0.233434 -0.0204152
-6.62257e-21 0.00246 0.005 0.035228 -0.214173 -0.0562271
-5.16988e-26 0.005585 3.6468e-10 2.98403e-08 -4.1453e-08 4.22843e-10
-2.58494e-26 0.005585 0.000283111 0.0287486 -0.0568474 -0.00118114
-5.92257e-21 -0.00254 0.005 0.0299689 -0.231292 -0.0668989
-5.16988e-26 0.005585 0.000584716 0.0593751 -0.117408 -0.00243944
8.59893e-22 -0.00504 0.00248657 0.0518437 -0.233853 -0.0364052
-2.15959e-20 -4e-05 0.005625 0.026962 -0.224127 -0.068902
-2.15959e-20 0.000585 0.005625 0.0275106 -0.221761 -0.0674452
2.84041e-20 -0.000665 0.005625 0.0264292 -0.226516 -0.0702097
0 -0.005665 3.56636e-09 2.05244e-07 -4.70372e-07 2.67255e-10
5.16988e-26 0.00567058 0 0 0 0
3.34491e-21 -0.005665 0.000584718 0.0416267 -0.132838 -0.00466923
-2.71051e-20 0.0052725 0.002164 0.0746196 -0.208915 -0.0212481
0 0.005585 0.00119965 0.0828528 -0.195178 -0.00928384
0 0.0040225 0.00406235 0.0471245 -0.209875 -0.0431142
-1.02552e-29 0.00371 0.00436442 0.0433837 -0.210639 -0.0467675
0 0.0021475 0.0053125 0.031755 -0.215466 -0.0602288
-2.01948e-28 0.004335 0.00374969 0.0513788 -0.209247 -0.0393405
-1.57772e-30 0.00371 0.004375 0.0432582 -0.210641 -0.0468729
-2.23594e-21 0.00121 0.005625 0.0280724 -0.21945 -0.0658554
-2.71051e-20 -0.0022275 0.0053125 0.0275251 -0.231199 -0.0698267
-1.09848e-20 -0.00129 0.005625 0.0259135 -0.2289 -0.0713583
-2.71051e-20 -0.0053525 0.002164 0.054634 -0.234414 -0.0314434
2.71051e-20 -0.0041025 0.00406235 0.0367554 -0.23378 -0.0580518
0 0.0046475 0.00343582 0.0556507 -0.2086 -0.035644
-7.04562e-21 -0.00379 0.004375 0.0342335 -0.233671 -0.0613893
-5.42101e-20 0.0033975 0.0046875 0.0394083 -0.211428 -0.0507179
-2.11243e-20 -0.005665 0.00119965 0.0598804 -0.219596 -0.0148992
-1.06713e-21 -0.004415 0.00374969 0.0395152 -0.234056 -0.0542407
-2.71051e-20 -0.0034775 0.0046875 0.0316291 -0.233523 -0.0647395
0 -0.0047275 0.00343582 0.0421883 -0.23428 -0.050412
-1.61559e-27 0.00496 0.00312195 0.0603869 -0.208173 -0.031874
1.6028e-20 0.003085 0.005 0.0358834 -0.212454 -0.0545516
0 0.005585 0.00184143 0.0792396 -0.208493 -0.0170401
2.71051e-20 0.0058975 0.000292358 0.0370696 -0.0537624 0.000480286
1.51458e-20 0.001835 0.005625 0.028646 -0.217225 -0.0641547
-1.0617e-20 -0.003165 0.005 0.0293367 -0.233513 -0.0676641
1.40047e-20 -0.00504 0.00312195 0.0450012 -0.234689 -0.0460516
-3.09848e-20 -0.001915 0.005625 0.0254137 -0.231254 -0.0723424
5.42101e-20 0.0002725 0.0059375 0.0245783 -0.22396 -0.0713316
5.42101e-20 -0.0003525 0.0059375 0.0241042 -0.226428 -0.0726999
1.23464e-20 -0.005665 0.00184143 0.057138 -0.234727 -0.0260187
-2.71051e-20 0.0058975 0.000892183 0.0826956 -0.1812 -0.00524754
0 0.0052725 0.00280426 0.0651696 -0.207721 -0.0281805
0 -0.0059775 0.000292358 0.0236643 -0.0617786 -3.61769e-05
-2.71051e-20 0.0027725 0.0053125 0.0323834 -0.213569 -0.0584756
-2.71051e-20 0.0008975 0.0059375 0.0250719 -0.221512 -0.0698007
-2.71051e-20 -0.0009775 0.0059375 0.0236528 -0.22888 -0.073896
-2.71051e-20 -0.0028525 0.0053125 0.0269648 -0.233479 -0.0706297
0 -0.0053525 0.00280426 0.0477334 -0.235036 -0.0416492
-2.71051e-20 -0.0059775 0.000892183 0.0586148 -0.205798 -0.00942737
0 0.0058975 0.00152054 0.0838981 -0.208056 -0.0129599
0 0.005585 0.00248657 0.0702654 -0.207709 -0.024278
0 0.0015225 0.0059375 0.0255849 -0.219116 -0.0681253
-3.44752e-20 0.00246 0.005625 0.029229 -0.21512 -0.0623705
-2.71051e-20 -0.0016025 0.0059375 0.0232225 -0.231292 -0.0749155
-2.20881e-29 0.004335 0.00437009 0.043945 -0.20933 -0.045395
-2.71051e-20 -0.0059775 0.00152054 0.0595727 -0.234966 -0.0205721
1.84041e-20 -0.00254 0.005625 0.0249281 -0.233559 -0.0731621
0 0.0046475 0.00406235 0.0478089 -0.208633 -0.0417411
0 0.0040225 0.0046875 0.0400753 -0.210028 -0.0491448
-2.64154e-20 -0.005665 0.00248657 0.050499 -0.2356 -0.0366825
-4.1359e-25 0.00621 2.29851e-09 1.85704e-07 -2.80313e-07 2.19574e-09
2.9562e-21 -0.004415 0.004375 0.0334496 -0.235759 -0.0619408
0 0.00496 0.00374969 0.0520681 -0.208034 -0.0380628
9.31606e-21 0.00371 0.005 0.0365327 -0.210896 -0.052878
2.71051e-20 -0.0041025 0.0046875 0.0309276 -0.235666 -0.0653396
0 -0.0047275 0.00406235 0.0358844 -0.235825 -0.0585626
5.16988e-26 0.00621 0.000584717 0.0600083 -0.116547 -0.00228356
-1.71493e-20 -4e-05 0.00625 0.022139 -0.226531 -0.0748138
9.38296e-21 -0.00379 0.005 0.0287132 -0.235688 -0.0682881
-3.24548e-20 0.000585 0.00625 0.0225455 -0.224021 -0.0734194
7.70755e-21 -0.00504 0.00374969 0.0385508 -0.236042 -0.054687
-2.71051e-20 0.0058975 0.002164 0.0754358 -0.207691 -0.0204685
1.28507e-20 -0.000665 0.00625 0.0217564 -0.229013 -0.0760262
0 -0.00629 3.80663e-09 2.11688e-07 -5.05069e-07 1.05101e-10
-2.71051e-20 0.0052725 0.00343582 0.0563402 -0.207397 -0.0344529
-2.71051e-20 0.0033975 0.0053125 0.0330111 -0.211837 -0.0567045
-2.71051e-20 0.0021475 0.0059375 0.0261159 -0.216811 -0.0663308
8.95713e-21 -0.00629 0.000584718 0.0403672 -0.133587 -0.00471461
0 0.00621 0.00119965 0.0837082 -0.19389 -0.00886857
0 -0.0022275 0.0059375 0.0228102 -0.233643 -0.0757593
0 -0.0034775 0.0053125 0.0264163 -0.235703 -0.0712832
-2.71051e-20 -0.0059775 0.002164 0.0531932 -0.236093 -0.0316641
2.71051e-20 -0.0053525 0.00343582 0.0411266 -0.236217 -0.0508026
-7.40134e-21 0.00121 0.00625 0.0229762 -0.221518 -0.0718523
2.8507e-21 -0.00129 0.00625 0.0213965 -0.231443 -0.0770546
0 0.005585 0.00312195 0.0610933 -0.206976 -0.0307816
-2.91296e-20 -0.00629 0.00119965 0.0582918 -0.220956 -0.0150074
1.35337e-20 0.003085 0.005625 0.029819 -0.213164 -0.060534
-5.67928e-21 -0.003165 0.005625 0.024455 -0.2358 -0.0738233
3.93398e-21 -0.005665 0.00312195 0.0438407 -0.236562 -0.0463771
0 0.00621 0.00184143 0.0800812 -0.207267 -0.0163822
-1.386e-20 0.001835 0.00625 0.0234313 -0.219057 -0.07013
-2.71051e-20 0.0065225 0.000292358 0.0375005 -0.0533703 0.000498161
0 0.0058975 0.00280426 0.0658864 -0.206517 -0.0271792
-7.1493e-21 -0.001915 0.00625 0.0210556 -0.233799 -0.0779022
-5.42101e-20 0.0027725 0.0059375 0.026662 -0.214632 -0.0644469
2.77798e-21 -0.00629 0.00184143 0.0556274 -0.236334 -0.0261857
-2.71051e-20 0.0002725 0.0065625 0.0200944 -0.226596 -0.0769914
0 -0.0003525 0.0065625 0.0197791 -0.229137 -0.0782323
2.71051e-20 0.0065225 0.000892183 0.0834949 -0.179874 -0.00495392
-2.71051e-20 -0.0028525 0.0059375 0.0224125 -0.235916 -0.0764326
-2.71051e-20 0.0046475 0.0046875 0.0407345 -0.208785 -0.0476096
0 -0.0059775 0.00280426 0.0464711 -0.236852 -0.0419197
-5.42101e-20 -0.0066025 0.000292358 0.0227364 -0.0620867 -4.91356e-05
9.46633e-30 0.00496 0.0043705 0.0446121 -0.208156 -0.043965
-3.38319e-20 0.004335 0.005 0.0371759 -0.209511 -0.0512313
-2.71051e-20 0.0008975 0.0065625 0.0204374 -0.224016 -0.0755538
0 0.00662526 0 0 0 0
0 -0.0009775 0.0065625 0.0194897 -0.231608 -0.0792765
-5.42101e-20 0.0052725 0.00406235 0.0484825 -0.207507 -0.0404056
0 -0.0047275 0.0046875 0.030232 -0.237766 -0.0658079
0 -0.0066025 0.000892183 0.0570031 -0.206977 -0.00949535
-2.71051e-20 0.0040225 0.0053125 0.0336362 -0.21029 -0.0549449
2.9383e-20 -0.004415 0.005 0.0280982 -0.23781 -0.0687738
-7.04214e-21 -0.00504 0.004375 0.0326677 -0.237811 -0.0623705
0 0.00621 0.00248657 0.0710155 -0.206516 -0.0233917
-2.71051e-20 0.0065225 0.00152054 0.0847617 -0.206819 -0.0124218
0 -0.0041025 0.0053125 0.02588 -0.237861 -0.0717901
-2.95607e-20 0.00246 0.00625 0.0239097 -0.216678 -0.0682769
0 -0.0053525 0.00406235 0.0350119 -0.237843 -0.05896
2.63549e-21 0.005585 0.00374969 0.0527438 -0.206917 -0.036818
-2.71051e-20 0.0015225 0.0065625 0.0208105 -0.221428 -0.0739293
-1.00101e-20 0.00371 0.005625 0.0304128 -0.211385 -0.058678
-1.24548e-20 -0.00254 0.00625 0.0207297 -0.236066 -0.0785766
0 -0.0016025 0.0065625 0.0192212 -0.23399 -0.0801303
1.97224e-22 -0.00629 0.00248657 0.049143 -0.237347 -0.0368968
-2.71051e-20 -0.0066025 0.00152054 0.0579908 -0.236501 -0.020695
-1.56793e-20 -0.00379 0.005625 0.0239938 -0.237964 -0.0743348
3.34345e-20 -0.005665 0.00374969 0.0375822 -0.238007 -0.0550295
0 0.0058975 0.00343582 0.0570131 -0.206272 -0.0332888
0 0.006835 1.16091e-09 9.68054e-08 -1.30242e-07 1.40048e-09
2.71051e-20 0.0033975 0.0059375 0.0272196 -0.212617 -0.0625088
0 0.006835 0.000526117 0.0545291 -0.104103 -0.00191686
2.58494e-26 0.006835 0.000584717 0.0606027 -0.115699 -0.00213037
-2.71051e-20 0.0065225 0.002164 0.0762136 -0.206502 -0.0196921
-3.97262e-20 -4e-05 0.006875 0.0182098 -0.229358 -0.0800029
-2.71051e-20 -0.0034775 0.0059375 0.0220264 -0.238102 -0.0769474
0 -0.0059775 0.00343582 0.0400583 -0.238139 -0.0510992
9.66277e-21 0.000585 0.006875 0.0184573 -0.226812 -0.0787609
5.42101e-20 0.0021475 0.0065625 0.021214 -0.218873 -0.0721347
-2.97262e-20 -0.000665 0.006875 0.0179869 -0.231823 -0.0810438
0 -0.006915 4.03803e-09 2.16591e-07 -5.38834e-07 -5.9634e-11
-5.42101e-20 -0.0022275 0.0065625 0.0189687 -0.236269 -0.0808038
-1.29247e-26 0.006835 0.00119965 0.0845157 -0.192616 -0.00845431
-2.39882e-23 -0.006915 0.000584719 0.0390939 -0.134318 -0.00474952
-2.71051e-20 -0.0066025 0.002164 0.0517416 -0.237776 -0.0318318
-1.61446e-20 0.00621 0.00312195 0.0617783 -0.205843 -0.0297106
2.19534e-20 0.003085 0.00625 0.0244087 -0.21442 -0.0663236
6.13242e-21 0.00121 0.006875 0.0187335 -0.22421 -0.0773167
-3.97262e-20 -0.00129 0.006875 0.0177841 -0.234187 -0.081892
2.28507e-20 -0.003165 0.00625 0.0204152 -0.238236 -0.0790892
-5.6727e-21 -0.006915 0.00119965 0.0566881 -0.222308 -0.0150895
-2.08783e-20 -0.00629 0.00312195 0.0426727 -0.238425 -0.0466198
-1.34952e-20 0.00496 0.005 0.0378141 -0.208306 -0.0496348
0 0.0052725 0.0046875 0.0413887 -0.207701 -0.0461302
0 0.0046475 0.0053125 0.0342575 -0.208941 -0.0532258
2.06795e-25 0.00706869 0 0 0 0
0 0.006835 0.00184143 0.0808818 -0.206067 -0.0157268
1.26218e-29 0.005585 0.00436918 0.0452766 -0.207119 -0.0425852
-2.0006e-20 -0.00504 0.005 0.0274907 -0.239869 -0.0691282
2.71051e-20 0.0065225 0.00280426 0.0665764 -0.205363 -0.0261924
-1.18213e-20 0.004335 0.005625 0.0310073 -0.209806 -0.0568362
0 -0.0047275 0.0053125 0.0253533 -0.239945 -0.0721577
-2.71051e-20 -0.0053525 0.0046875 0.0295436 -0.239811 -0.0661502
-2.67469e-20 0.001835 0.006875 0.0190419 -0.221585 -0.0756767
-2.71051e-20 0.0027725 0.0065625 0.0216469 -0.216394 -0.0701953
-2.03372e-20 -0.001915 0.006875 0.0175961 -0.236439 -0.0825599
-1.56793e-20 -0.004415 0.005625 0.023543 -0.240044 -0.0747059
0 0.0071475 0.000292358 0.0379052 -0.0529965 0.000511825
0 -0.0028525 0.0065625 0.0187274 -0.238437 -0.0813107
-2.39114e-20 -0.006915 0.00184143 0.0541058 -0.237944 -0.0263097
3.23476e-20 -0.005665 0.004375 0.0318884 -0.23982 -0.0626831
0 0.0058975 0.00406235 0.0491496 -0.206494 -0.0391173
0 0.0040225 0.0059375 0.0277842 -0.210796 -0.0605538
2.71051e-20 -0.0066025 0.00280426 0.0452012 -0.238661 -0.0421178
0 0.0002725 0.0071875 0.0165594 -0.229609 -0.0818744
5.42101e-20 -0.0003525 0.0071875 0.0164062 -0.232091 -0.0829136
0 0.0071475 0.000892183 0.0842431 -0.178555 -0.00466191
-2.71051e-20 -0.0041025 0.0059375 0.0216524 -0.24019 -0.0773183
0 -0.0059775 0.00406235 0.0341399 -0.239826 -0.0592454
2.71051e-20 -0.0072275 0.000292358 0.0217996 -0.0623781 -5.91108e-05
-5.42101e-20 0.0008975 0.0071875 0.016738 -0.227027 -0.0806241
0 -0.0009775 0.0071875 0.0162727 -0.234456 -0.0837529
-1.00974e-28 0.00621 0.00374969 0.0534102 -0.205894 -0.0356136
-3.28358e-20 0.00371 0.00625 0.0249242 -0.212323 -0.0643061
0 0.006835 0.00248657 0.0717342 -0.205366 -0.0225157
0 -0.0072275 0.000892183 0.0553751 -0.208139 -0.00954482
-1.42118e-20 0.00246 0.006875 0.0193843 -0.218976 -0.0738552
0 0.0071475 0.00152054 0.0855814 -0.205602 -0.011885
2.28507e-20 -0.00379 0.00625 0.0201103 -0.240303 -0.0794558
3.47575e-21 -0.00629 0.00374969 0.0366112 -0.239945 -0.0552712
2.90517e-20 -0.00254 0.006875 0.0174182 -0.238571 -0.0830625
2.71051e-20 0.0015225 0.0071875 0.0169483 -0.22437 -0.0791595
-3.40358e-20 -0.006915 0.00248657 0.0477793 -0.239092 -0.0370496
0 -0.0016025 0.0071875 0.016153 -0.236694 -0.0844083
2.71051e-20 0.0065225 0.00343582 0.0576735 -0.205222 -0.0321574
-2.71051e-20 -0.0072275 0.00152054 0.0563977 -0.23804 -0.0207839
0 0.0033975 0.0065625 0.0221062 -0.214036 -0.0681433
-2.71051e-20 -0.0034775 0.0065625 0.0184947 -0.24049 -0.0816659
-2.71051e-20 -0.0066025 0.00343582 0.0389863 -0.240041 -0.0513048
0 0.00746 1.94396e-09 1.5345e-07 -2.2226e-07 1.94063e-09
-3.23117e-27 0.00736765 0.00119965 0.0851637 -0.191541 -0.00810278
-2.71051e-20 0.0071475 0.002164 0.0769548 -0.205346 -0.0189214
0 0.00746 0.000584717 0.0611583 -0.114862 -0.00198035
0 0.0052725 0.0053125 0.0348755 -0.207797 -0.0515737
3.27458e-20 0.005585 0.005 0.0384494 -0.207284 -0.0481091
-5.23739e-21 0.00496 0.005625 0.0316005 -0.208442 -0.055041
-4.29909e-20 -4e-05 0.0075 0.0152624 -0.232329 -0.0843249
0 0.0021475 0.0071875 0.017195 -0.221669 -0.0774833
-8.07794e-28 0.006835 0.00312195 0.0624457 -0.204772 -0.0286649
-4.29909e-20 0.000585 0.0075 0.0153568 -0.22988 -0.0832967
0 -0.0022275 0.0071875 0.0160418 -0.238801 -0.0848972
2.23147e-20 -0.000665 0.0075 0.0151852 -0.234652 -0.085155
-2.71051e-20 0.0058975 0.0046875 0.0420415 -0.206775 -0.0447215
-2.36459e-20 0.003085 0.006875 0.0197606 -0.216426 -0.071875
0 -0.00754 4.10809e-09 2.12135e-07 -5.51179e-07 -2.10051e-10
0 0.0046475 0.0059375 0.0283514 -0.209195 -0.0586201
2.71051e-20 -0.0053525 0.0053125 0.0248342 -0.241952 -0.0723969
-3.23117e-27 0.00746 0.00110516 0.0815699 -0.1796 -0.0071104
2.71051e-20 -0.0072275 0.002164 0.0502821 -0.23946 -0.0319483
-9.84813e-22 -0.00504 0.005625 0.0230996 -0.242039 -0.074948
-1.61559e-27 0.00746 0.00119965 0.085276 -0.191354 -0.00804184
-1.0617e-20 -0.005665 0.005 0.0268895 -0.241861 -0.0693614
1.29326e-20 -0.00754 0.000584719 0.0378091 -0.135032 -0.00477385