# UMean  POINT_DATA 64962
# x  y  z  UMean_x  UMean_y  UMean_z
0 -3.99946e-05 5.21085e-09 2.90975e-07 -6.84295e-07 2.43238e-09
-5.42101e-20 0.000272502 0.000292358 0.0246223 -0.0610054 0.00015273
5.42101e-20 -0.000352499 0.000292358 0.0240778 -0.0611963 0.000129729
0 0.000585009 5.11816e-09 2.91287e-07 -6.69789e-07 2.65391e-09
0 -3.99965e-05 0.000584718 0.0395187 -0.120929 -0.00265211
-8.27181e-25 -0.000664995 5.31781e-09 2.91065e-07 -7.00781e-07 2.14912e-09
0 0.000585003 0.000584719 0.0402014 -0.120329 -0.00257319
7.82637e-21 -0.000665003 0.00058472 0.0388166 -0.121526 -0.00272863
0 0.000272501 0.000892183 0.0553503 -0.181207 -0.00542423
-2.71051e-20 0.000897501 0.000292359 0.0251572 -0.0608157 0.000174406
0 -0.0003525 0.000892183 0.0545103 -0.182221 -0.00555613
0 -0.0009775 0.000292358 0.0235159 -0.0613825 0.000101052
-2.06795e-25 -3.99985e-05 0.00119965 0.0563177 -0.195434 -0.00888676
0 0.00121001 4.87434e-09 2.82588e-07 -6.35662e-07 2.76066e-09
-2.71051e-20 0.0008975 0.000892183 0.0561661 -0.18019 -0.00528331
0 -0.00128999 5.46622e-09 2.92836e-07 -7.22822e-07 1.81639e-09
-2.71051e-20 -0.0009775 0.000892183 0.0536434 -0.183231 -0.00568023
0 0.000585002 0.00119965 0.0571383 -0.194297 -0.00869285
-4.1359e-25 0.00121 0.000584719 0.0408742 -0.119726 -0.00248999
-8.22466e-21 -0.000665001 0.00119965 0.0554713 -0.196579 -0.00906892
-2.0682e-20 -0.00129 0.000584719 0.0380888 -0.122119 -0.00280234
2.71051e-20 0.0002725 0.00152054 0.0581396 -0.208716 -0.0122093
0 0.0015225 0.000292358 0.0256976 -0.0606191 0.000197258
2.71051e-20 -0.0003525 0.00152054 0.0573105 -0.20999 -0.0124554
2.71051e-20 -0.0016025 0.000292358 0.0229249 -0.0615662 7.22832e-05
1.03398e-25 0.00121 0.00119965 0.0579387 -0.193168 -0.00848865
-1.63341e-20 -0.00129 0.00119965 0.0546007 -0.197729 -0.00923727
-2.71051e-20 0.0015225 0.000892183 0.0569706 -0.17917 -0.00513398
-2.71051e-20 0.0008975 0.00152054 0.0589369 -0.207466 -0.011951
-2.71051e-20 -0.0009775 0.00152054 0.0564613 -0.211275 -0.0126835
-2.71051e-20 -0.0016025 0.000892183 0.0527472 -0.184236 -0.00579496
0 0.001835 4.40292e-09 2.59841e-07 -5.72184e-07 2.68711e-09
3.17229e-21 -4.00002e-05 0.00184143 0.055766 -0.210966 -0.0157835
0 -0.00191499 5.51995e-09 2.89106e-07 -7.32448e-07 1.4405e-09
-2.28794e-20 0.001835 0.000584719 0.0415343 -0.119122 -0.00240404
1.57478e-20 0.000585 0.00184143 0.0565465 -0.209657 -0.015476
2.15287e-20 -0.000665 0.00184143 0.0549638 -0.212293 -0.0160714
1.36472e-20 -0.001915 0.000584719 0.037343 -0.122709 -0.00287035
2.71051e-20 0.0015225 0.00152054 0.0597209 -0.206234 -0.0116811
-8.13152e-20 0.0021475 0.000292358 0.0262115 -0.0604274 0.000216753
0 0.0002725 0.002164 0.0541804 -0.2119 -0.019065
-1.77047e-20 0.001835 0.00119965 0.0587189 -0.192049 -0.0082754
-2.71051e-20 -0.0003525 0.002164 0.0534263 -0.213263 -0.0194165
1.05576e-20 0.00121 0.00184143 0.057302 -0.208369 -0.0151525
-2.71051e-20 -0.0016025 0.00152054 0.0555917 -0.212575 -0.0128914
0 -0.0022275 0.000292358 0.0223438 -0.0617537 4.49298e-05
-5.34483e-21 -0.00129 0.00184143 0.0541414 -0.213635 -0.0163373
6.28471e-21 -0.001915 0.00119965 0.053709 -0.19888 -0.00938965
2.71051e-20 0.0021475 0.000892183 0.0577564 -0.178147 -0.00497979
2.71051e-20 0.0008975 0.002164 0.054922 -0.210552 -0.0186908
-2.71051e-20 -0.0009775 0.002164 0.0526504 -0.214648 -0.0197429
0 -0.0022275 0.000892183 0.0518272 -0.185234 -0.00589743
0 0.00246 3.63123e-09 2.1798e-07 -4.70232e-07 2.3643e-09
-1.30687e-20 -3.99999e-05 0.00248657 0.0514035 -0.213094 -0.0225122
2.29286e-20 0.00246 0.000584717 0.04218 -0.118515 -0.00231541
0 -0.00253999 5.46152e-09 2.79465e-07 -7.27275e-07 1.0549e-09
2.08414e-20 0.000585 0.00248657 0.0521057 -0.211689 -0.0220951
1.27114e-22 -0.000665 0.00248657 0.0506836 -0.214516 -0.0228998
-3.16773e-20 0.001835 0.00184143 0.0580285 -0.207102 -0.0148137
-3.8042e-21 -0.00254 0.00058472 0.0365863 -0.1233 -0.00293186
-2.71051e-20 0.0021475 0.00152054 0.0604668 -0.20503 -0.0113997
0 0.0015225 0.002164 0.0556209 -0.209228 -0.0182991
1.6167e-20 -0.001915 0.00184143 0.0533014 -0.214988 -0.0165789
0 -0.0016025 0.002164 0.0518555 -0.216045 -0.0200441
2.71051e-20 -0.0022275 0.00152054 0.0547109 -0.21388 -0.0130771
-4.10075e-20 0.00246 0.00119965 0.0594722 -0.19094 -0.00805284
2.1123e-20 0.00121 0.00248657 0.0527826 -0.210303 -0.0216518
2.71051e-20 0.0027725 0.000292358 0.0267352 -0.0602244 0.000236933
3.59738e-20 -0.00129 0.00248657 0.049946 -0.215953 -0.0232569
-3.25744e-21 -0.00254 0.00119965 0.0527982 -0.200031 -0.00952588
-5.42101e-20 0.0002725 0.00280426 0.0493509 -0.21287 -0.0255393
-2.71051e-20 -0.0003525 0.00280426 0.0486818 -0.214335 -0.0259938
2.71051e-20 -0.0028525 0.000292358 0.021752 -0.0619526 1.97109e-05
2.71051e-20 0.0027725 0.000892183 0.0585196 -0.177122 -0.00481695
0 0.0008975 0.00280426 0.0499951 -0.211427 -0.0250514
0 -0.0009775 0.00280426 0.0480008 -0.21581 -0.0264111
0 -0.0028525 0.000892183 0.0508876 -0.186228 -0.00598954
2.71051e-20 0.0021475 0.002164 0.0562978 -0.207919 -0.0178869
-2.44104e-20 0.00246 0.00184143 0.0587265 -0.205856 -0.0144607
0 0.003085 2.57439e-09 1.56979e-07 -3.32145e-07 1.77497e-09
-2.41305e-20 0.001835 0.00248657 0.0534295 -0.208936 -0.0211857
-5.42101e-20 -0.0022275 0.002164 0.0510407 -0.217456 -0.0203161
8.80323e-21 -4e-05 0.00312195 0.0466937 -0.21399 -0.0287715
-5.11549e-21 -0.00254 0.00184143 0.0524478 -0.216352 -0.0167952
3.62667e-22 -0.001915 0.00248657 0.0491931 -0.217403 -0.0235826
1.40358e-20 0.003085 0.000584717 0.042798 -0.117902 -0.00222378
0 0.0027725 0.00152054 0.0611845 -0.203843 -0.011106
0 -0.00316499 5.33244e-09 2.66219e-07 -7.1266e-07 6.98049e-10
6.70392e-21 0.000585 0.00312195 0.0473053 -0.212484 -0.0282507
5.42101e-20 0.0015225 0.00280426 0.0506183 -0.21 -0.0245328
-9.85718e-21 -0.000665 0.00312195 0.0460685 -0.215512 -0.0292515
1.37056e-20 -0.003165 0.00058472 0.0358112 -0.123892 -0.00298695
2.71051e-20 -0.0016025 0.00280426 0.0473014 -0.217301 -0.0267942
0 -0.0028525 0.00152054 0.0538089 -0.215195 -0.0132429
-4.84973e-21 0.003085 0.00119965 0.060196 -0.189842 -0.00782266
3.07691e-20 0.00121 0.00312195 0.0478963 -0.211 -0.0276935
2.46993e-20 -0.00129 0.00312195 0.0454292 -0.217045 -0.0296889
-2.34547e-21 -0.003165 0.00119965 0.0518685 -0.201184 -0.0096462
0 0.0033975 0.000292358 0.0271981 -0.0600105 0.000255216
-2.71051e-20 0.0002725 0.00343582 0.0446676 -0.213591 -0.0314898
-2.71051e-20 -0.0003525 0.00343582 0.0440936 -0.215159 -0.0320385
0 -0.0034775 0.000292358 0.0211389 -0.0621497 -2.65298e-06
2.95342e-20 0.00246 0.00248657 0.0540535 -0.207592 -0.020701
5.42101e-20 0.0033975 0.000892183 0.0592461 -0.176101 -0.00464942
-2.71051e-20 0.0027725 0.002164 0.0569491 -0.206637 -0.0174618
2.71051e-20 0.0021475 0.00280426 0.0512075 -0.208594 -0.0239915
2.71051e-20 0.0008975 0.00343582 0.0452271 -0.212044 -0.0308981
-3.59433e-21 -0.00254 0.00248657 0.0484302 -0.218866 -0.0238733
2.71051e-20 -0.0009775 0.00343582 0.0435165 -0.216739 -0.0325377
0 -0.0028525 0.002164 0.0502243 -0.218881 -0.0205577
-2.71051e-20 -0.0022275 0.00280426 0.0465983 -0.218802 -0.0271403
-2.71051e-20 -0.0034775 0.000892183 0.0499263 -0.187215 -0.00607122
-1.74879e-20 0.003085 0.00184143 0.0594013 -0.204635 -0.0140982
7.94094e-21 0.001835 0.00312195 0.0484635 -0.209539 -0.0271053
1.29247e-26 0.00359372 0.000584717 0.043273 -0.117401 -0.00214803
0 0.00344619 0.00119965 0.0605972 -0.189216 -0.00768691
1.47847e-20 -0.003165 0.00184143 0.0515842 -0.217724 -0.016985
2.79755e-20 -0.001915 0.00312195 0.0447778 -0.218588 -0.0300833
0 0.00371 1.37831e-09 8.29716e-08 -1.7231e-07 9.73853e-10
5.42101e-20 0.0033975 0.00152054 0.061872 -0.202683 -0.0108075
0 0.00371 0.000533785 0.0396027 -0.10707 -0.00194511
-3.09608e-21 -4e-05 0.00374969 0.0422463 -0.214812 -0.0345401
0 0.00371 0.000584717 0.0433815 -0.117287 -0.00213071
-5.42101e-20 0.0015225 0.00343582 0.0457645 -0.210525 -0.0302678
8.27181e-25 -0.00378999 5.01249e-09 2.43897e-07 -6.72284e-07 3.97817e-10
0 -0.0016025 0.00343582 0.0429164 -0.218326 -0.0329872
2.93568e-20 0.000585 0.00374969 0.0427729 -0.213202 -0.0339319
-2.71051e-20 -0.0034775 0.00152054 0.0528936 -0.216513 -0.0133856
-3.88513e-21 -0.000665 0.00374969 0.0417131 -0.216438 -0.0350942
6.93426e-21 -0.00379 0.000584719 0.0350246 -0.124477 -0.00303362
3.23117e-27 0.00338244 0.00184143 0.0597109 -0.204066 -0.0139219
0 0.00371 0.00119965 0.0608901 -0.188759 -0.00758776
-2.99531e-20 0.00121 0.00374969 0.0432835 -0.211619 -0.0332768
0 0.0027725 0.00280426 0.0517864 -0.207213 -0.0234322
1.20645e-20 0.003085 0.00248657 0.0546612 -0.206273 -0.0202023
-2.60883e-20 -0.00129 0.00374969 0.0411713 -0.218071 -0.035591
-2.90713e-20 0.00246 0.00312195 0.0490111 -0.208106 -0.0264916
1.31232e-21 -0.00379 0.00119965 0.0509228 -0.202332 -0.00974938
0 -0.0028525 0.00280426 0.0458805 -0.220316 -0.0274429
-1.65391e-20 -0.00254 0.00312195 0.0441191 -0.22014 -0.0304312
1.35571e-20 -0.003165 0.00248657 0.0476636 -0.220339 -0.0241271
0 0.0033975 0.002164 0.0575921 -0.20538 -0.0170287
2.71051e-20 0.0040225 0.000292358 0.0276476 -0.0597888 0.000272663
2.71051e-20 0.0021475 0.00343582 0.0462838 -0.209034 -0.0296057
0 0.0002725 0.00406234 0.0403605 -0.214411 -0.0370036
2.71051e-20 -0.0003525 0.00406235 0.0398691 -0.216085 -0.0376211
0 -0.0022275 0.00343582 0.0423131 -0.219919 -0.0333859
-2.71051e-20 -0.0034775 0.002164 0.0494035 -0.220314 -0.020767
-2.71051e-20 -0.0041025 0.000292358 0.0205388 -0.0623429 -1.82821e-05
2.71051e-20 0.0040225 0.000892183 0.0599453 -0.175084 -0.00447797
1.29247e-26 0.00371 0.00184143 0.0600518 -0.20344 -0.0137278
-2.71051e-20 0.0008975 0.00406235 0.040842 -0.212762 -0.0363287
0 0.00334846 0.00248657 0.0549082 -0.205729 -0.0199859
1.74016e-20 0.001835 0.00374969 0.0437749 -0.210065 -0.0325812
2.71051e-20 -0.0009775 0.00406235 0.0393788 -0.217767 -0.0381722
-2.71051e-20 -0.0041025 0.000892183 0.0489488 -0.188192 -0.00613913
-1.75429e-20 -0.001915 0.00374969 0.0406211 -0.219707 -0.0360305
1.5824e-20 -0.00379 0.00184143 0.0507079 -0.2191 -0.017147
0 0.0040225 0.00152054 0.0625347 -0.201547 -0.0105035
5.16988e-26 0.004335 2.64124e-10 1.56078e-08 -3.18883e-08 1.8875e-10
-2.71051e-20 0.0015225 0.00406235 0.0413063 -0.211142 -0.0356054
0 0.004335 0.000206151 0.0154905 -0.0411352 -0.000718029
2.71051e-20 -0.0016025 0.00406235 0.0388791 -0.21945 -0.0386594
0 0.004335 0.000584718 0.0439365 -0.116674 -0.00203658
3.23421e-20 -4e-05 0.004375 0.0382233 -0.215809 -0.0398911
0 -0.0041025 0.00152054 0.0519655 -0.21783 -0.0135068
2.14346e-20 0.003085 0.00312195 0.0495437 -0.206703 -0.0258558
-2.71051e-20 0.0033975 0.00280426 0.0523444 -0.20586 -0.0228557
7.04291e-21 0.000585 0.004375 0.0386639 -0.214094 -0.0392231
0 0.0027725 0.00343582 0.0467869 -0.20758 -0.0289143
8.27181e-25 -0.004415 4.40884e-09 2.08901e-07 -5.93402e-07 1.65141e-10
-1.70468e-20 -0.000665 0.004375 0.037783 -0.217538 -0.0404884
3.02207e-20 -0.003165 0.00312195 0.0434586 -0.221696 -0.0307305
1.24681e-20 -0.004415 0.000584718 0.0342338 -0.125057 -0.00307124
-2.71051e-20 -0.0028525 0.00343582 0.0417018 -0.221517 -0.0337301
3.23117e-27 0.00371 0.00248657 0.0552472 -0.204983 -0.0196888
0 -0.0034775 0.00280426 0.0451685 -0.221835 -0.0277044
1.34264e-20 0.00246 0.00374969 0.044251 -0.208549 -0.0318492
0 0.004335 0.00119965 0.0615538 -0.187691 -0.00734758
-2.85374e-20 -0.00254 0.00374969 0.0400684 -0.221343 -0.0364109
3.39441e-22 -0.00379 0.00248657 0.04689 -0.221815 -0.0243425
2.98316e-21 0.00121 0.004375 0.0390973 -0.212404 -0.0384932
2.01948e-28 0.00331919 0.00312195 0.0497366 -0.206191 -0.0256103
2.95282e-21 -0.00129 0.004375 0.037342 -0.219265 -0.0410104
2.71051e-20 0.0040225 0.002164 0.0582007 -0.204154 -0.0165827
-3.25237e-21 -0.004415 0.00119965 0.049967 -0.203475 -0.00983665
-5.42101e-20 0.0021475 0.00406234 0.0417509 -0.209558 -0.0348388
0 -0.0022275 0.00406234 0.0383809 -0.22113 -0.0390821
0 -0.0041025 0.002164 0.0485628 -0.22175 -0.0209418
0 0.0046475 0.000292358 0.0280649 -0.0595703 0.000288443
0 0.0002725 0.0046875 0.0365299 -0.215479 -0.0421429
0 0.0047007 0 0 0 0
-2.71051e-20 -0.0003525 0.0046875 0.0361345 -0.21726 -0.0427958
-2.58494e-26 0.004335 0.00184143 0.0606756 -0.202269 -0.0133464
2.71051e-20 0.0046475 0.000892183 0.0606028 -0.174077 -0.00430365
0 -0.0047275 0.000292358 0.019927 -0.0625403 -2.91973e-05
-1.96117e-20 0.001835 0.004375 0.0395177 -0.210747 -0.0377094
0 0.0008975 0.0046875 0.036924 -0.213721 -0.0414162
8.25788e-21 -0.001915 0.004375 0.0368985 -0.220983 -0.0414598
-4.21283e-21 -0.004415 0.00184143 0.049821 -0.220477 -0.0172824
2.71051e-20 -0.0009775 0.0046875 0.0357504 -0.21904 -0.0433636
0 -0.0047275 0.000892183 0.0479688 -0.189158 -0.00619593
-2.71051e-20 0.0033975 0.00343582 0.0472775 -0.20616 -0.028199
0 0.00371 0.00312195 0.0500585 -0.205335 -0.0252005
2.30747e-20 0.003085 0.00374969 0.0447184 -0.207075 -0.0310869
0 -0.0034775 0.00343582 0.0411008 -0.223111 -0.0340188
0 0.0046475 0.00152054 0.0631694 -0.200434 -0.0101906
0 0.0040225 0.00280426 0.0528793 -0.204535 -0.0222582
1.4445e-20 -0.003165 0.00374969 0.03952 -0.222973 -0.0367306
1.73763e-20 -0.00379 0.00312195 0.0427986 -0.22325 -0.0309803
0 0.0027725 0.00406234 0.0421883 -0.208021 -0.0340311
0 0.0015225 0.0046875 0.0373177 -0.211991 -0.0406214
0 -0.0016025 0.0046875 0.0353602 -0.220802 -0.0438455
-2.58494e-26 0.00496 1.87278e-10 1.14111e-08 -2.51046e-08 9.59242e-11
2.71051e-20 -0.0028525 0.00406235 0.0378828 -0.222804 -0.0394382
0 -0.0047275 0.00152054 0.0510285 -0.219147 -0.0136107
-2.71051e-20 -0.0041025 0.00280426 0.0444471 -0.223353 -0.0279202
0 0.00329094 0.00374969 0.0448695 -0.206605 -0.0308294
0 0.00496 0.000584716 0.0444632 -0.116059 -0.00194111
0 0.004335 0.00248657 0.0558088 -0.203721 -0.019159
4.07742e-21 -4e-05 0.005 0.0346725 -0.217088 -0.0448356
-1.19273e-20 0.00246 0.004375 0.0399271 -0.209132 -0.0368784
-5.92257e-21 0.000585 0.005 0.0350179 -0.215272 -0.0441456
0 -0.00504 3.78226e-09 1.74362e-07 -5.10859e-07 9.46042e-12
1.9383e-20 -0.000665 0.005 0.0343365 -0.218908 -0.0454394
-7.04782e-21 -0.00254 0.004375 0.0364576 -0.222688 -0.0418395
1.50231e-20 -0.004415 0.00248657 0.0461073 -0.223292 -0.0245175
-1.23473e-20 -0.00504 0.000584717 0.0334411 -0.125632 -0.00310125
0 0.00496 0.00119965 0.0621866 -0.186634 -0.00710002
-5.42101e-20 0.0046475 0.002164 0.0587895 -0.202945 -0.0161196
4.07742e-21 0.00121 0.005 0.035364 -0.213473 -0.0433764
2.71051e-20 0.0021475 0.0046875 0.0376968 -0.210294 -0.0397709
2.9383e-20 -0.00129 0.005 0.0340073 -0.220709 -0.0459514
0 0.00517206 0 0 0 0
5.2101e-21 -0.00504 0.00119965 0.049005 -0.204611 -0.00990811
-2.71051e-20 -0.0022275 0.0046875 0.0349745 -0.222546 -0.0442513
0 -0.0047275 0.002164 0.0477214 -0.223188 -0.0210837
0 0.00371 0.00374969 0.0451769 -0.205649 -0.0303052
5.42101e-20 0.0052725 0.000292358 0.0284722 -0.0593379 0.00030203
-2.71051e-20 0.0040225 0.00343582 0.0477534 -0.204784 -0.0274677
0 0.00496 0.00184143 0.0612729 -0.20112 -0.0129541
0 0.0033975 0.00406235 0.0426269 -0.206537 -0.0331969
0 0.0002725 0.0053125 0.0331602 -0.216873 -0.0468787
-2.71051e-20 -0.0003525 0.0053125 0.0328655 -0.21874 -0.0475249
1.55516e-20 0.001835 0.005 0.0357081 -0.211698 -0.0425347
-9.11772e-21 -0.00379 0.00374969 0.0389764 -0.22459 -0.0369894
-1.61559e-27 0.004335 0.00312195 0.0505575 -0.204007 -0.0245298
0 0.0052725 0.000892183 0.0612312 -0.173065 -0.00412286
-2.71051e-20 -0.0034775 0.00406235 0.0373998 -0.224459 -0.0397277
-2.71051e-20 -0.0041025 0.00343582 0.0404943 -0.224693 -0.0342518
2.48063e-20 0.003085 0.004375 0.0403347 -0.207574 -0.0360112
1.9383e-20 -0.001915 0.005 0.0336772 -0.222481 -0.0463754
2.71051e-20 -0.0053525 0.000292358 0.0193292 -0.0627359 -3.74499e-05
-2.83891e-20 -0.00504 0.00184143 0.0489271 -0.221855 -0.0173912
0 0.0008975 0.0053125 0.0334575 -0.215013 -0.0461444
-7.65156e-21 -0.003165 0.004375 0.0360252 -0.224374 -0.0421494
-2.71051e-20 -0.0009775 0.0053125 0.0325955 -0.220591 -0.0480732
-1.16794e-20 -0.004415 0.00312195 0.0421339 -0.224797 -0.0311782
2.71051e-20 -0.0053525 0.000892183 0.0469816 -0.190112 -0.00624066
2.71051e-20 0.0046475 0.00280426 0.0533937 -0.203248 -0.0216463
0 0.0027725 0.0046875 0.038073 -0.208654 -0.0388719
0 -0.0028525 0.0046875 0.0345928 -0.22427 -0.0445854
0 0.0052725 0.00152054 0.0637794 -0.199337 -0.00986637
-2.71051e-20 -0.0047275 0.00280426 0.0437192 -0.224868 -0.0280877
2.71051e-20 0.0015225 0.0053125 0.0337568 -0.213165 -0.0453237
1.29247e-26 0.00496 0.00248657 0.0563481 -0.202491 -0.0186199
2.71051e-20 -0.0016025 0.0053125 0.0323232 -0.222404 -0.0485232
0 -0.0053525 0.00152054 0.0500852 -0.22046 -0.0136917
-6.62257e-21 0.00246 0.005 0.0360534 -0.209962 -0.0416307
-5.16988e-26 0.005585 3.6468e-10 2.32178e-08 -4.5987e-08 2.90891e-10
-2.58494e-26 0.005585 0.000283111 0.0217659 -0.055894 -0.000893262
-5.92257e-21 -0.00254 0.005 0.0333497 -0.224223 -0.046719
-5.16988e-26 0.005585 0.000584716 0.0449536 -0.115439 -0.00184487
8.59893e-22 -0.00504 0.00248657 0.0453182 -0.224771 -0.0246534
-2.15959e-20 -4e-05 0.005625 0.0315951 -0.218665 -0.0493389
-2.15959e-20 0.000585 0.005625 0.0318425 -0.21677 -0.0486706
2.84041e-20 -0.000665 0.005625 0.031365 -0.220542 -0.0499071
0 -0.005665 3.56636e-09 1.59849e-07 -4.83389e-07 -8.59481e-11
5.16988e-26 0.00567058 0 0 0 0
3.34491e-21 -0.005665 0.000584718 0.032649 -0.126202 -0.00312321
-2.71051e-20 0.0052725 0.002164 0.0593451 -0.201767 -0.0156503
0 0.005585 0.00119965 0.062789 -0.185587 -0.00684788
0 0.0040225 0.00406235 0.0430559 -0.205115 -0.0323511
-1.02552e-29 0.00371 0.00436442 0.0408167 -0.206071 -0.0350419
0 0.0021475 0.0053125 0.0340611 -0.21134 -0.0444226
-2.01948e-28 0.004335 0.00374969 0.0456278 -0.204281 -0.0295111
-1.57772e-30 0.00371 0.004375 0.0407416 -0.206079 -0.0351235
-2.23594e-21 0.00121 0.005625 0.0320904 -0.214869 -0.0479058
-2.71051e-20 -0.0022275 0.0053125 0.0320509 -0.224173 -0.0488817
-1.09848e-20 -0.00129 0.005625 0.0311499 -0.222381 -0.0503738
-2.71051e-20 -0.0053525 0.002164 0.0468676 -0.224633 -0.0211922
2.71051e-20 -0.0041025 0.00406235 0.0369154 -0.226095 -0.0399519
0 0.0046475 0.00343582 0.0482244 -0.203462 -0.0267262
-7.04562e-21 -0.00379 0.004375 0.0356004 -0.226034 -0.0423898
-5.42101e-20 0.0033975 0.0046875 0.0384513 -0.207082 -0.037944
-2.11243e-20 -0.005665 0.00119965 0.0480377 -0.205741 -0.00996214
-1.06713e-21 -0.004415 0.00374969 0.0384339 -0.22619 -0.0371872
-2.71051e-20 -0.0034775 0.0046875 0.034226 -0.225963 -0.0448455
0 -0.0047275 0.00343582 0.0398908 -0.226266 -0.0344273
-1.61559e-27 0.00496 0.00312195 0.0510421 -0.202729 -0.0238518
1.6028e-20 0.003085 0.005 0.0364013 -0.208288 -0.0406804
0 0.005585 0.00184143 0.0618523 -0.199993 -0.0125577
2.71051e-20 0.0058975 0.000292358 0.0288199 -0.0590922 0.000311565
1.51458e-20 0.001835 0.005625 0.0323392 -0.212974 -0.0470486
-1.0617e-20 -0.003165 0.005 0.0330295 -0.225929 -0.0469864
1.40047e-20 -0.00504 0.00312195 0.0414655 -0.22634 -0.031326
-3.09848e-20 -0.001915 0.005625 0.0309378 -0.224166 -0.0507433
5.42101e-20 0.0002725 0.0059375 0.0302743 -0.218566 -0.0511794
5.42101e-20 -0.0003525 0.0059375 0.0300804 -0.220482 -0.0517725
1.23464e-20 -0.005665 0.00184143 0.0480263 -0.223234 -0.0174721
-2.71051e-20 0.0058975 0.000892183 0.0618131 -0.172062 -0.00393913
0 0.0052725 0.00280426 0.0538926 -0.202002 -0.0210347
0 -0.0059775 0.000292358 0.0187281 -0.0629308 -4.07207e-05
-2.71051e-20 0.0027725 0.0053125 0.0343826 -0.20956 -0.0434573
-2.71051e-20 0.0008975 0.0059375 0.0304781 -0.216626 -0.0504799
-2.71051e-20 -0.0009775 0.0059375 0.0299185 -0.222356 -0.0522576
-2.71051e-20 -0.0028525 0.0053125 0.0317808 -0.225901 -0.0491577
0 -0.0053525 0.00280426 0.0429853 -0.226386 -0.0282132
-2.71051e-20 -0.0059775 0.000892183 0.0459933 -0.191058 -0.00627276
0 0.0058975 0.00152054 0.0643686 -0.19826 -0.00954456
0 0.005585 0.00248657 0.0568728 -0.201295 -0.0180781
0 0.0015225 0.0059375 0.0306692 -0.214672 -0.0496752
-3.44752e-20 0.00246 0.005625 0.0326054 -0.211103 -0.0461079
-2.71051e-20 -0.0016025 0.0059375 0.0297625 -0.224171 -0.0526413
-2.20881e-29 0.004335 0.00437009 0.0411482 -0.204658 -0.034217
-2.71051e-20 -0.0059775 0.00152054 0.0491356 -0.221773 -0.0137504
1.84041e-20 -0.00254 0.005625 0.0307283 -0.225899 -0.0510226
0 0.0046475 0.00406235 0.0434834 -0.203764 -0.0314934
0 0.0040225 0.0046875 0.0388329 -0.205581 -0.0370012
-2.64154e-20 -0.005665 0.00248657 0.0445244 -0.226253 -0.0247518
-4.1359e-25 0.00621 2.29851e-09 1.44214e-07 -3.05508e-07 1.31643e-09
2.9562e-21 -0.004415 0.004375 0.0351795 -0.227662 -0.0425616
0 0.00496 0.00374969 0.0460708 -0.202982 -0.0287092
9.31606e-21 0.00371 0.005 0.0367482 -0.206685 -0.0397007
2.71051e-20 -0.0041025 0.0046875 0.0338611 -0.227617 -0.0450332
0 -0.0047275 0.00406235 0.0364398 -0.227704 -0.0401104
5.16988e-26 0.00621 0.000584717 0.0453963 -0.114819 -0.00174783
-1.71493e-20 -4e-05 0.00625 0.0290196 -0.220479 -0.0533464
9.38296e-21 -0.00379 0.005 0.0327183 -0.227595 -0.0471796
-3.24548e-20 0.000585 0.00625 0.0291613 -0.218549 -0.052744
7.70755e-21 -0.00504 0.00374969 0.0378917 -0.227773 -0.037326
-2.71051e-20 0.0058975 0.002164 0.059908 -0.200613 -0.0151798
1.28507e-20 -0.000665 0.00625 0.0288997 -0.222362 -0.0538375
0 -0.00629 3.80663e-09 1.65744e-07 -5.17754e-07 -1.69823e-10
-2.71051e-20 0.0052725 0.00343582 0.0486789 -0.202204 -0.0259795
-2.71051e-20 0.0033975 0.0053125 0.0346982 -0.207854 -0.0424483
-2.71051e-20 0.0021475 0.0059375 0.0308696 -0.212719 -0.0487729
8.95713e-21 -0.00629 0.000584718 0.031856 -0.126766 -0.00313746
0 0.00621 0.00119965 0.063359 -0.184556 -0.00659497
0 -0.0022275 0.0059375 0.0296148 -0.225918 -0.0529268
0 -0.0034775 0.0053125 0.0315184 -0.227584 -0.049357
-2.71051e-20 -0.0059775 0.002164 0.0460111 -0.226078 -0.0212675
2.71051e-20 -0.0053525 0.00343582 0.0392823 -0.227831 -0.0345498
-7.40134e-21 0.00121 0.00625 0.0293068 -0.216582 -0.0520295
2.8507e-21 -0.00129 0.00625 0.0287998 -0.224183 -0.0542239
0 0.005585 0.00312195 0.0515096 -0.201501 -0.0231724
-2.91296e-20 -0.00629 0.00119965 0.0470669 -0.206868 -0.00999945
1.35337e-20 0.003085 0.005625 0.0328834 -0.209282 -0.0450994
-5.67928e-21 -0.003165 0.005625 0.030522 -0.227579 -0.0512214
3.93398e-21 -0.005665 0.00312195 0.0407961 -0.227879 -0.031427
0 0.00621 0.00184143 0.0624156 -0.198889 -0.0121624
-1.386e-20 0.001835 0.00625 0.0294569 -0.214591 -0.0512066
-2.71051e-20 0.0065225 0.000292358 0.029135 -0.0588356 0.000321283
0 0.0058975 0.00280426 0.0543745 -0.200797 -0.0204198
-7.1493e-21 -0.001915 0.00625 0.0287058 -0.225932 -0.0545133
-5.42101e-20 0.0027725 0.0059375 0.0311082 -0.210793 -0.0477789
2.77798e-21 -0.00629 0.00184143 0.0471207 -0.224614 -0.0175269
-2.71051e-20 0.0002725 0.0065625 0.0279024 -0.220481 -0.0549673
0 -0.0003525 0.0065625 0.0278214 -0.222385 -0.0554664
2.71051e-20 0.0065225 0.000892183 0.0623428 -0.171075 -0.00375113
-2.71051e-20 -0.0028525 0.0059375 0.0294667 -0.227602 -0.0531242
-2.71051e-20 0.0046475 0.0046875 0.0391983 -0.204175 -0.0360455
0 -0.0059775 0.00280426 0.0422536 -0.227904 -0.0282973
-5.42101e-20 -0.0066025 0.000292358 0.0181318 -0.0631199 -4.3013e-05
9.46633e-30 0.00496 0.0043705 0.0415503 -0.203324 -0.0333075
-3.38319e-20 0.004335 0.005 0.037089 -0.205166 -0.0387019
-2.71051e-20 0.0008975 0.0065625 0.0279905 -0.218522 -0.0543493
0 0.00662526 0 0 0 0
0 -0.0009775 0.0065625 0.0277784 -0.224222 -0.0558533
-5.42101e-20 0.0052725 0.00406235 0.0439024 -0.202498 -0.0306315
0 -0.0047275 0.0046875 0.0335021 -0.229231 -0.0451502
0 -0.0066025 0.000892183 0.0450008 -0.191995 -0.00629247
-2.71051e-20 0.0040225 0.0053125 0.0350104 -0.206221 -0.0414093
2.9383e-20 -0.004415 0.005 0.032414 -0.229214 -0.0473016
-7.04214e-21 -0.00504 0.004375 0.0347598 -0.229258 -0.0426687
0 0.00621 0.00248657 0.0573795 -0.20013 -0.0175346
-2.71051e-20 0.0065225 0.00152054 0.0649483 -0.197201 -0.00922451
0 -0.0041025 0.0053125 0.0312679 -0.229215 -0.0494828
-2.95607e-20 0.00246 0.00625 0.0296254 -0.212597 -0.0502794
0 -0.0053525 0.00406235 0.0359582 -0.229289 -0.0402091
2.63549e-21 0.005585 0.00374969 0.0465004 -0.201753 -0.0279073
-2.71051e-20 0.0015225 0.0065625 0.0280897 -0.216509 -0.0536136
-1.00101e-20 0.00371 0.005625 0.0331568 -0.207528 -0.0440406
-1.24548e-20 -0.00254 0.00625 0.0286127 -0.227608 -0.0547122
0 -0.0016025 0.0065625 0.0277399 -0.225981 -0.0561434
1.97224e-22 -0.00629 0.00248657 0.0437274 -0.227733 -0.0248138
-2.71051e-20 -0.0066025 0.00152054 0.0481831 -0.223088 -0.0137895
-1.56793e-20 -0.00379 0.005625 0.0303224 -0.229205 -0.0513471
3.34345e-20 -0.005665 0.00374969 0.0373486 -0.229342 -0.0374099
0 0.0058975 0.00343582 0.0491138 -0.200999 -0.0252359
0 0.006835 1.16091e-09 7.52369e-08 -1.452e-07 9.63772e-10
2.71051e-20 0.0033975 0.0059375 0.0313447 -0.208922 -0.0467129
0 0.006835 0.000526117 0.0412134 -0.102757 -0.00148263
2.58494e-26 0.006835 0.000584717 0.0458039 -0.114202 -0.00164777
-2.71051e-20 0.0065225 0.002164 0.0604292 -0.199486 -0.0147109
-3.97262e-20 -4e-05 0.006875 0.0270109 -0.222403 -0.0567878
-2.71051e-20 -0.0034775 0.0059375 0.0293221 -0.229228 -0.0532465
0 -0.0059775 0.00343582 0.0386784 -0.22939 -0.0346219
9.66277e-21 0.000585 0.006875 0.0270376 -0.220506 -0.0562895
5.42101e-20 0.0021475 0.0065625 0.0281994 -0.214463 -0.0527646
-2.97262e-20 -0.000665 0.006875 0.0270005 -0.224227 -0.0571745
0 -0.006915 4.03803e-09 1.70572e-07 -5.51091e-07 -2.56609e-10
-5.42101e-20 -0.0022275 0.0065625 0.0277061 -0.227656 -0.0563415
-1.29247e-26 0.006835 0.00119965 0.0638972 -0.183539 -0.00633862
-2.39882e-23 -0.006915 0.000584719 0.0310574 -0.127322 -0.00314539
-2.71051e-20 -0.0066025 0.002164 0.0451474 -0.227522 -0.0213137
-1.61446e-20 0.00621 0.00312195 0.0519554 -0.200316 -0.0224937
2.19534e-20 0.003085 0.00625 0.0298096 -0.210628 -0.0492553
6.13242e-21 0.00121 0.006875 0.0270767 -0.218541 -0.055672
-3.97262e-20 -0.00129 0.006875 0.0270017 -0.225971 -0.0574626
2.28507e-20 -0.003165 0.00625 0.0285168 -0.229217 -0.0548326
-5.6727e-21 -0.006915 0.00119965 0.046093 -0.207991 -0.0100212
-2.08783e-20 -0.00629 0.00312195 0.0401271 -0.229414 -0.0314828
-1.34952e-20 0.00496 0.005 0.0374405 -0.203746 -0.0376901
0 0.0052725 0.0046875 0.0395966 -0.202861 -0.0350802
0 0.0046475 0.0053125 0.0353146 -0.204685 -0.0403515
2.06795e-25 0.00706869 0 0 0 0
0 0.006835 0.00184143 0.0629511 -0.197805 -0.0117649
1.26218e-29 0.005585 0.00436918 0.0419556 -0.202079 -0.0323964
-2.0006e-20 -0.00504 0.005 0.032113 -0.230787 -0.0473582
2.71051e-20 0.0065225 0.00280426 0.0548355 -0.199626 -0.0198008
-1.18213e-20 0.004335 0.005625 0.0334265 -0.205853 -0.0429472
0 -0.0047275 0.0053125 0.0310249 -0.230792 -0.0495404
-2.71051e-20 -0.0053525 0.0046875 0.0331396 -0.230805 -0.0452042
-2.67469e-20 0.001835 0.006875 0.0271273 -0.216518 -0.0549349
-2.71051e-20 0.0027725 0.0065625 0.0283244 -0.212413 -0.0518011
-2.03372e-20 -0.001915 0.006875 0.0270056 -0.22763 -0.0576619
-1.56793e-20 -0.004415 0.005625 0.0301285 -0.230775 -0.0514059
0 0.0071475 0.000292358 0.0294306 -0.05858 0.00033448
0 -0.0028525 0.0065625 0.0276634 -0.229254 -0.0564564
-2.39114e-20 -0.006915 0.00184143 0.0462132 -0.225992 -0.017558
3.23476e-20 -0.005665 0.004375 0.0343406 -0.230824 -0.0427164
0 0.0058975 0.00406235 0.0443125 -0.201311 -0.0297766
0 0.0040225 0.0059375 0.0315738 -0.207113 -0.0455917
2.71051e-20 -0.0066025 0.00280426 0.0415171 -0.229417 -0.0283401
0 0.0002725 0.0071875 0.0261428 -0.22246 -0.0581686
5.42101e-20 -0.0003525 0.0071875 0.0261771 -0.224283 -0.0585489
0 0.0071475 0.000892183 0.0628359 -0.170095 -0.00355898
-2.71051e-20 -0.0041025 0.0059375 0.0291814 -0.230794 -0.0533021
0 -0.0059775 0.00406235 0.0354797 -0.230855 -0.0402517
2.71051e-20 -0.0072275 0.000292358 0.0175185 -0.0633007 -4.48427e-05
-5.42101e-20 0.0008975 0.0071875 0.0261149 -0.220559 -0.0576729
0 -0.0009775 0.0071875 0.0262253 -0.226018 -0.0588295
-1.00974e-28 0.00621 0.00374969 0.0469095 -0.200586 -0.0271137
-3.28358e-20 0.00371 0.00625 0.029998 -0.208699 -0.0481489
0 0.006835 0.00248657 0.057859 -0.198995 -0.0169889
0 -0.0072275 0.000892183 0.0440022 -0.192927 -0.00630055
-1.42118e-20 0.00246 0.006875 0.0271908 -0.214455 -0.0540763
0 0.0071475 0.00152054 0.0654996 -0.19616 -0.00889739
2.28507e-20 -0.00379 0.00625 0.028421 -0.230764 -0.054887
3.47575e-21 -0.00629 0.00374969 0.03681 -0.230897 -0.0374428
2.90517e-20 -0.00254 0.006875 0.0270124 -0.229206 -0.0577795
2.71051e-20 0.0015225 0.0071875 0.0261119 -0.218575 -0.0570521
-3.40358e-20 -0.006915 0.00248657 0.0429273 -0.229208 -0.0248419
0 -0.0016025 0.0071875 0.0262632 -0.227662 -0.059024
2.71051e-20 0.0065225 0.00343582 0.0495193 -0.199842 -0.024499
-2.71051e-20 -0.0072275 0.00152054 0.0472318 -0.224404 -0.0138101
0 0.0033975 0.0065625 0.0284612 -0.210383 -0.0507282
-2.71051e-20 -0.0034775 0.0065625 0.0276149 -0.230784 -0.0565032
-2.71051e-20 -0.0066025 0.00343582 0.0380736 -0.230939 -0.0346463
0 0.00746 1.94396e-09 1.19016e-07 -2.43822e-07 1.19962e-09
-3.23117e-27 0.00736765 0.00119965 0.0643283 -0.182682 -0.00611428
-2.71051e-20 0.0071475 0.002164 0.0609189 -0.198379 -0.0142366
0 0.00746 0.000584717 0.0461821 -0.11359 -0.00154341
0 0.0052725 0.0053125 0.0356524 -0.203263 -0.039283
3.27458e-20 0.005585 0.005 0.0378053 -0.202436 -0.0366775
-5.23739e-21 0.00496 0.005625 0.0337131 -0.204283 -0.0418312
-4.29909e-20 -4e-05 0.0075 0.0255945 -0.224242 -0.059634
0 0.0021475 0.0071875 0.0261081 -0.216524 -0.0563093
-8.07794e-28 0.006835 0.00312195 0.0523838 -0.199175 -0.0218179
-4.29909e-20 0.000585 0.0075 0.0255297 -0.222449 -0.0592516
0 -0.0022275 0.0071875 0.0263131 -0.229218 -0.0591386
2.23147e-20 -0.000665 0.0075 0.0256672 -0.225947 -0.0599152
-2.71051e-20 0.0058975 0.0046875 0.039984 -0.201649 -0.0341239
-2.36459e-20 0.003085 0.006875 0.0272684 -0.212376 -0.0530948
0 -0.00754 4.10809e-09 1.68132e-07 -5.62486e-07 -3.13949e-10
0 0.0046475 0.0059375 0.0318072 -0.205394 -0.0444361
2.71051e-20 -0.0053525 0.0053125 0.0307853 -0.23232 -0.0495382
-3.23117e-27 0.00746 0.00110516 0.0616031 -0.171939 -0.00537898
2.71051e-20 -0.0072275 0.002164 0.0442851 -0.22896 -0.0213326
-9.84813e-22 -0.00504 0.005625 0.0299374 -0.23229 -0.0514051
-1.61559e-27 0.00746 0.00119965 0.0644031 -0.182534 -0.00607539
-1.0617e-20 -0.005665 0.005 0.0318153 -0.232318 -0.0473563