# UMean  POINT_DATA 35434
# x  y  z  UMean_x  UMean_y  UMean_z
-5.56355e-09 0 0 0 0 0
3.99943e-05 0 0 0 0 0
-4.00052e-05 0 0 0 0 0
3.99946e-05 -6.77626e-21 3.74217e-05 0.00331574 -0.00770885 2.90623e-05
-4.00052e-05 -6.77626e-21 3.74218e-05 0.00298754 -0.00790851 1.00361e-05
0.000312496 0 0.000292358 0.0256861 -0.0603179 0.000216066
-0.000312503 2.71051e-20 0.000292358 0.0230836 -0.0618594 6.93351e-05
0.000584999 -6.77626e-21 0 0 0 0
-0.000585007 0 0 0 0 0
-2.45735e-09 3.38813e-21 0.000585361 0.0395766 -0.120944 -0.00264965
0.000584999 -6.77626e-21 3.74188e-05 0.00331548 -0.00770825 2.90601e-05
-0.000585007 6.77626e-21 3.74188e-05 0.0029873 -0.00790787 1.00353e-05
0.000624996 0 0 0 0 0
-0.000625004 6.77626e-21 0 0 0 0
0.000664993 0 0 0 0 0
-0.000665 0 0 0 0 0
0.000664993 -6.77626e-21 3.74188e-05 0.00356875 -0.00750544 4.79841e-05
-0.000665 -6.77626e-21 3.74188e-05 0.00260204 -0.00807867 -2.61605e-06
0.000624998 -2.25875e-21 0.000585361 0.0432367 -0.11897 -0.00216805
-0.000625002 -3.38813e-21 0.000585362 0.0353983 -0.122757 -0.0029817
0.000312498 0 0.000892183 0.0576537 -0.180487 -0.00512584
-0.000312502 -2.71051e-20 0.000892183 0.0523144 -0.182812 -0.00583764
0.000937499 0 0.000292358 0.0277142 -0.0587279 0.000366927
-0.000937502 0 0.000292359 0.020049 -0.0631703 -2.5089e-05
-9.85258e-10 2.25875e-21 0.00120022 0.0563721 -0.195372 -0.00887737
-0.00121 -6.77626e-21 0 0 0 0
0.00121 0 0 0 0 0
-0.00121 0 3.74213e-05 0.00260221 -0.00807922 -2.61623e-06
0.00121 0 3.7419e-05 0.00356877 -0.00750549 4.79844e-05
-0.00125 6.77626e-21 0 0 0 0
0.00125 -6.77626e-21 0 0 0 0
0.00129 0 0 0 0 0
-0.00129 -6.77626e-21 0 0 0 0
0.00129 -6.77626e-21 3.74191e-05 0.00375285 -0.00734062 6.09157e-05
-0.00129 0 3.74212e-05 0.00218861 -0.00822242 -7.50432e-06
0.000937499 0 0.000892183 0.0623628 -0.178036 -0.00419933
-0.000937501 0 0.000892184 0.0465391 -0.184901 -0.00621887
0.000624999 -3.38813e-21 0.00120022 0.0615226 -0.193268 -0.0078161
-0.000625001 2.25875e-21 0.00120022 0.0507566 -0.197481 -0.00958684
0.00125 0 0.000585361 0.0462765 -0.117011 -0.00162527
-0.00125 0 0.000585362 0.0309036 -0.12432 -0.00312323
0.000312499 0 0.00152054 0.0605308 -0.208305 -0.0117476
-0.000312501 0 0.00152054 0.0550254 -0.210238 -0.0128857
-0.0015625 2.71051e-20 0.000292358 0.0168144 -0.0642673 -5.7553e-05
0.0015625 2.71051e-20 0.000292358 0.0291928 -0.0574119 0.000472977
0.00125 0 0.00120022 0.0660846 -0.191232 -0.00656074
-0.00125 1.12938e-21 0.00120022 0.0448637 -0.199489 -0.00986604
0.0009375 -2.71051e-20 0.00152054 0.0655824 -0.206602 -0.0102726
-0.0009375 -2.71051e-20 0.00152054 0.0491818 -0.212322 -0.0134967
0.0015625 -2.71051e-20 0.000892183 0.0663427 -0.175543 -0.00319987
-0.0015625 -2.71051e-20 0.000892183 0.0405662 -0.186663 -0.00627902
0.001835 0 0 0 0 0
-0.001835 0 0 0 0 0
0.001835 0 3.74194e-05 0.00375288 -0.00734068 6.09162e-05
-0.001835 0 3.74183e-05 0.00218844 -0.00822177 -7.50374e-06
-3.43611e-10 1.12938e-21 0.0018415 0.0558163 -0.210882 -0.0157646
0.001875 -6.77626e-21 0 0 0 0
-0.001875 -6.77626e-21 0 0 0 0
-0.001915 0 0 0 0 0
0.001915 6.77626e-21 0 0 0 0
-0.001915 0 3.74182e-05 0.00177052 -0.00833542 -5.90353e-06
0.001915 0 3.74195e-05 0.0038755 -0.00723284 6.57133e-05
0.000625 2.25875e-21 0.0018415 0.0609432 -0.208902 -0.0141987
-0.000625 0 0.0018415 0.0503115 -0.213066 -0.016804
-0.001875 -1.12938e-21 0.000585361 0.0263128 -0.125623 -0.00310097
0.001875 3.38813e-21 0.000585362 0.0486694 -0.115205 -0.00109429
-0.0015625 0 0.00152054 0.0432017 -0.214423 -0.0135625
0.0015625 -2.71051e-20 0.00152054 0.0700952 -0.205118 -0.00864458
0.0003125 0 0.002164 0.0564541 -0.211353 -0.0184297
-0.0003125 0 0.002164 0.0512491 -0.213636 -0.0200068
-0.0021875 -2.71051e-20 0.000292358 0.0135605 -0.0651344 -4.15876e-05
0.0021875 2.71051e-20 0.000292358 0.0301907 -0.0565433 0.000515444
0.00125 2.25875e-21 0.0018415 0.0655633 -0.207208 -0.0123298
-0.00125 -1.12938e-21 0.0018415 0.0446114 -0.215329 -0.0171948
-0.001875 0 0.00120022 0.0389075 -0.201314 -0.0097771
0.001875 1.12938e-21 0.00120022 0.0699684 -0.189263 -0.00523687
0.0009375 -2.71051e-20 0.002164 0.0611991 -0.209351 -0.0163553
-0.0009375 -2.71051e-20 0.002164 0.0457843 -0.216072 -0.0208389
-0.0021875 2.71051e-20 0.000892183 0.034626 -0.188157 -0.0061124
0.0021875 -2.71051e-20 0.000892183 0.0694909 -0.172975 -0.00221096
0.00246 0 0 0 0 0
-0.00246 0 0 0 0 0
0.00246 6.77626e-21 3.74197e-05 0.00387553 -0.00723289 6.57137e-05
-0.00246 0 3.74185e-05 0.00177053 -0.00833548 -5.90357e-06
-9.00686e-11 -1.12938e-21 0.00248636 0.0514497 -0.213003 -0.0224854
0.0025 -6.77626e-21 0 0 0 0
-0.0025 -6.77626e-21 0 0 0 0
-0.00254 6.77626e-21 0 0 0 0
0.00254 6.77626e-21 0 0 0 0
-0.00254 0 3.74185e-05 0.00136635 -0.00842209 -9.03345e-07
0.00254 6.77626e-21 3.74198e-05 0.00393676 -0.00717795 6.37284e-05
0.000625 1.12938e-21 0.00248636 0.056183 -0.210612 -0.0203959
-0.000625 -2.25875e-21 0.00248636 0.0463629 -0.215607 -0.0238229
-0.0025 -1.12938e-21 0.000585361 0.0218045 -0.12669 -0.00296948
0.0025 -1.12938e-21 0.000585362 0.0503932 -0.113563 -0.000602758
0.001875 2.25875e-21 0.0018415 0.0696214 -0.205839 -0.010343
-0.001875 0 0.0018415 0.0389044 -0.217502 -0.0170212
-0.0021875 -5.42101e-20 0.00152054 0.0372696 -0.216369 -0.0132464
0.0021875 2.71051e-20 0.00152054 0.0739979 -0.203799 -0.00695701
0.0015625 -2.71051e-20 0.002164 0.0653695 -0.207765 -0.014056
-0.0015625 0 0.002164 0.0402727 -0.218506 -0.0208934
-0.0025 -1.12938e-21 0.00120022 0.0330678 -0.202924 -0.00945341
0.0025 2.25875e-21 0.00120022 0.0731042 -0.187298 -0.00389765
0.00125 1.12938e-21 0.00248636 0.060407 -0.20867 -0.0178775
-0.00125 -1.12938e-21 0.00248636 0.0411512 -0.218212 -0.0242644
0.0003125 2.71051e-20 0.00280426 0.0514234 -0.212095 -0.024744
-0.0003125 -2.71051e-20 0.00280426 0.0466949 -0.214923 -0.0267311
0.0028125 5.42101e-20 0.000292359 0.0307136 -0.0560973 0.000503912
-0.0028125 0 0.000292358 0.0104212 -0.0657989 -2.39328e-06
-0.0028125 -2.71051e-20 0.000892183 0.0288885 -0.18941 -0.0058052
0.0028125 -2.71051e-20 0.000892183 0.0717444 -0.170262 -0.00125119
0.0009375 2.71051e-20 0.00280426 0.0556802 -0.209648 -0.0220269
-0.0009375 5.42101e-20 0.00280426 0.0417437 -0.21779 -0.0276836
0.0021875 2.71051e-20 0.002164 0.0690157 -0.206676 -0.0117225
-0.0021875 -2.71051e-20 0.002164 0.0348693 -0.220716 -0.0203946
0.00308499 6.77626e-21 0 0 0 0
-0.003085 6.77626e-21 0 0 0 0
0.00308499 0 3.742e-05 0.00393678 -0.00717798 6.37287e-05
-0.003085 0 3.74183e-05 0.00136635 -0.00842205 -9.03341e-07
0.0025 0 0.0018415 0.0731297 -0.204773 -0.008325
-0.0025 1.12938e-21 0.0018415 0.0333244 -0.219448 -0.0164999
0.001875 0 0.00248636 0.0641383 -0.207341 -0.0152557
-0.001875 0 0.00248636 0.0359958 -0.22062 -0.023946
-1.56899e-11 0 0.00312179 0.046734 -0.213893 -0.0287386
0.00312499 0 0 0 0 0
-0.003125 0 0 0 0 0
0.00316499 0 2.93547e-122 0 0 0
-0.003165 0 0 0 0 0
0.00316499 -6.77626e-21 3.74198e-05 0.00394835 -0.0071938 6.05506e-05
-0.003165 0 3.74183e-05 0.000985954 -0.00848896 5.26337e-06
0.003125 -1.12938e-21 0.000585361 0.0514375 -0.112053 -0.000130049
-0.003125 -1.12938e-21 0.000585362 0.0174807 -0.127529 -0.00277917
0.000625 -1.12938e-21 0.00312179 0.0509882 -0.211038 -0.0261295
-0.000625 -1.12938e-21 0.00312179 0.0421666 -0.216982 -0.0303136
-0.0028125 0 0.00152054 0.0315206 -0.218122 -0.0127393
0.0028125 0 0.00152054 0.0772477 -0.202557 -0.00522705
0.0015625 5.42101e-20 0.00280426 0.059406 -0.207916 -0.0190466
-0.0015625 2.71051e-20 0.00280426 0.0368218 -0.220473 -0.0276106
-0.003125 -4.51751e-21 0.00120022 0.0274345 -0.204291 -0.00900747
0.003125 2.25875e-21 0.00120022 0.0754423 -0.185225 -0.00252531
0.00125 -2.25875e-21 0.00312179 0.0547944 -0.208911 -0.0229834
-0.00125 -1.12938e-21 0.00312179 0.037533 -0.219894 -0.0307105
0.0034375 -2.71051e-20 0.000292357 0.0308321 -0.0561766 0.000478859
-0.0034375 0 0.000292358 0.00747237 -0.0663075 4.44778e-05
0.0003125 -2.71051e-20 0.00343582 0.0465257 -0.212583 -0.0305395
-0.0003125 -2.71051e-20 0.00343582 0.042309 -0.215966 -0.0329187
0.0025 0 0.00248636 0.0675144 -0.20664 -0.012701
-0.0025 1.12938e-21 0.00248636 0.0309873 -0.222674 -0.023179
0.0028125 0 0.002164 0.0722497 -0.206066 -0.0094005
-0.0028125 5.42101e-20 0.002164 0.0296348 -0.222592 -0.0196308
0.0034375 -2.71051e-20 0.000892183 0.0730471 -0.167264 -0.000269638
-0.0034375 -2.71051e-20 0.000892184 0.0233829 -0.190347 -0.00543299
0.0021875 2.71051e-20 0.00280426 0.0627906 -0.207007 -0.0161756
-0.0021875 0 0.00280426 0.032034 -0.222776 -0.0268548
0.0009375 5.42101e-20 0.00343582 0.0503423 -0.209823 -0.0271878
-0.0009375 2.71051e-20 0.00343582 0.037934 -0.219246 -0.0338991
0.003125 1.12938e-21 0.0018415 0.0761125 -0.203913 -0.00625653
-0.003125 0 0.0018415 0.0279348 -0.221137 -0.0158131
0.001875 -1.12938e-21 0.00312179 0.0582594 -0.207776 -0.019847
-0.001875 0 0.00312179 0.0329974 -0.222408 -0.0301758
0.00371 0 3.16387e-122 0 0 0
-0.00371001 -6.77626e-21 0 0 0 0
0.00371 6.77626e-21 3.742e-05 0.00394838 -0.00719385 6.0551e-05
-0.00371001 6.77626e-21 3.74169e-05 0.000985917 -0.00848864 5.26318e-06
-1.31672e-12 0 0.00374964 0.0422805 -0.214708 -0.0345024
-0.00375 -6.77626e-21 0 0 0 0
0.00375 0 6.09936e-122 0 0 0
-0.0034375 0 0.00152054 0.0259793 -0.219653 -0.0121393
0.0034375 2.71051e-20 0.00152054 0.0798084 -0.201239 -0.00339874
0.0015625 -5.42101e-20 0.00343582 0.0537691 -0.208254 -0.0236543
-0.0015625 0 0.00343582 0.033645 -0.222061 -0.0336269
-0.00378999 0 0 0 0 0
0.00379 -6.77626e-21 9.24352e-111 0 0 0
-0.00378999 0 3.74166e-05 0.000631914 -0.00853593 9.43203e-06
0.00379 0 3.74202e-05 0.00390998 -0.00728481 5.75371e-05
-0.00375 -2.25875e-21 0.000585362 0.0133611 -0.128124 -0.0025713
0.00375 2.25875e-21 0.000585361 0.0517818 -0.110637 0.00036212
0.000625 -1.12938e-21 0.00374964 0.0460849 -0.211413 -0.0314238
-0.000625 0 0.00374964 0.0382675 -0.218263 -0.0362283
-0.00375 3.38813e-21 0.00120022 0.0220189 -0.205366 -0.00850749
0.00375 1.12938e-21 0.00120022 0.0769219 -0.182922 -0.00105645
0.00125 -1.12938e-21 0.00374964 0.0495712 -0.209234 -0.0277233
-0.00125 0 0.00374964 0.0342578 -0.22139 -0.0364869
0.0028125 -5.42101e-20 0.00280426 0.0660306 -0.206809 -0.0134853
-0.0028125 0 0.00280426 0.027423 -0.224603 -0.0258065
0.003125 -1.12938e-21 0.00248636 0.0706461 -0.206442 -0.0101705
-0.003125 0 0.00248636 0.0261621 -0.224359 -0.0222242
0.0025 0 0.00312179 0.0616113 -0.207561 -0.0169695
-0.0025 -1.12938e-21 0.00312179 0.0286122 -0.224431 -0.0291352
-0.0034375 0 0.002164 0.0246019 -0.224187 -0.0187538
0.0034375 2.71051e-20 0.002164 0.0751368 -0.205797 -0.00700608
-0.0040625 2.71051e-20 0.000292359 0.00472657 -0.0666631 7.51982e-05
0.0040625 -2.71051e-20 0.000292358 0.030574 -0.056854 0.000454893
0.0021875 2.71051e-20 0.00343582 0.0570927 -0.207925 -0.0204949
-0.0021875 0 0.00343582 0.0294992 -0.224318 -0.03259
0.0003125 0 0.00406234 0.0420019 -0.213169 -0.0359414
-0.0003125 0 0.00406235 0.0382905 -0.217113 -0.0386043
-0.00406249 2.71051e-20 0.000892184 0.0180683 -0.190928 -0.00504648
0.0040625 -2.71051e-20 0.000892183 0.0732734 -0.163794 0.000781152
0.0009375 2.71051e-20 0.00406235 0.0454756 -0.210077 -0.0320208
-0.0009375 2.71051e-20 0.00406235 0.0345409 -0.220727 -0.0394857
-0.00375 -2.25875e-21 0.0018415 0.0227602 -0.222583 -0.0150484
0.00375 1.12938e-21 0.0018415 0.0785539 -0.203136 -0.00404461
0.001875 0 0.00374964 0.0528956 -0.208558 -0.0242352
-0.001875 -1.12938e-21 0.00374964 0.0303639 -0.223879 -0.0356926
0.004335 6.77626e-21 -5.10571e-110 0 0 0
-0.004335 0 0 0 0 0
0.004335 0 3.74235e-05 0.00391033 -0.00728546 5.75423e-05
-0.004335 0 3.74137e-05 0.000631866 -0.00853528 9.43131e-06
-0.0040625 2.71051e-20 0.00152054 0.0206781 -0.220913 -0.011495
0.0040625 2.71051e-20 0.00152054 0.0816552 -0.199836 -0.00137244
-0.0015625 0 0.00406234 0.0309148 -0.223526 -0.0389304
0.0015625 2.71051e-20 0.00406235 0.048704 -0.208779 -0.0280247
-0.00437499 0 0 0 0 0
-1.854e-14 -1.12938e-21 0.00437499 0.0382517 -0.215699 -0.0398501
0.004375 6.77626e-21 -4.18127e-110 0 0 0
-0.00437499 2.25875e-21 0.000585364 0.00944587 -0.128462 -0.00236679
0.004375 0 0.000585361 0.051316 -0.109236 0.000897462
-0.00441498 -6.77626e-21 0 0 0 0
0.004415 0 5.70596e-102 0 0 0
-0.00441498 -6.77626e-21 3.74136e-05 0.00030126 -0.00855773 1.09829e-05
0.004415 -6.77626e-21 3.74236e-05 0.00380422 -0.00744721 5.94987e-05
0.003125 -1.12938e-21 0.00312179 0.0649753 -0.207983 -0.0142124
-0.003125 -1.12938e-21 0.00312179 0.024387 -0.225995 -0.0279244
0.000625 0 0.00437499 0.0416329 -0.211908 -0.0364068
-0.000625 -1.12938e-21 0.00437499 0.0348135 -0.219668 -0.0415792
0.0034375 0 0.00280426 0.0691958 -0.207091 -0.0107718
-0.0034375 0 0.00280426 0.0229974 -0.226047 -0.0246776
0.0028125 -5.42101e-20 0.00343582 0.0605516 -0.208499 -0.0177067
-0.0028125 5.42101e-20 0.00343582 0.0255004 -0.22602 -0.0312693
0.00375 -2.25875e-21 0.00248636 0.0735127 -0.20654 -0.00749666
-0.00375 0 0.00248636 0.0215327 -0.225779 -0.0211986
0.0025 0 0.00374964 0.0563382 -0.209136 -0.021264
-0.0025 -2.25875e-21 0.00374964 0.0265871 -0.225768 -0.03439
-0.00437499 -3.38813e-21 0.00120022 0.0168299 -0.206141 -0.00798348
0.004375 1.12938e-21 0.00120022 0.0774385 -0.180269 0.000558692
0.00125 -1.12938e-21 0.00437499 0.0448464 -0.209618 -0.0322035
-0.00125 -1.12938e-21 0.00437499 0.0314485 -0.222882 -0.0416001
0.0040625 2.71051e-20 0.002164 0.0776085 -0.20568 -0.00440661
-0.0040625 -2.71051e-20 0.002164 0.0197796 -0.225588 -0.0178158
0.0021875 0 0.00406235 0.0520225 -0.209271 -0.0247614
-0.0021875 5.42101e-20 0.00406235 0.0273991 -0.225608 -0.0376176
-0.00468748 0 0.00029236 0.00216333 -0.066829 8.64763e-05
0.0046875 -2.71051e-20 0.000292358 0.0297813 -0.0580557 0.000460462
0.0003125 0 0.0046875 0.0379566 -0.213996 -0.0410501
-0.0003125 2.71051e-20 0.0046875 0.0347584 -0.218515 -0.043805
-0.004375 3.38813e-21 0.0018415 0.0178109 -0.223813 -0.0142396
0.004375 0 0.0018415 0.080396 -0.20235 -0.00159167
0.001875 -2.25875e-21 0.00437499 0.0480333 -0.209458 -0.0284522
-0.001875 -3.38813e-21 0.00437499 0.028177 -0.22521 -0.0405368
-0.00468748 0 0.000892187 0.0129953 -0.19118 -0.00465173
0.0046875 5.42101e-20 0.000892183 0.0722365 -0.159713 0.00190555
0.0009375 -5.42101e-20 0.0046875 0.0410981 -0.210388 -0.0366146
-0.0009375 -2.71051e-20 0.0046875 0.0316646 -0.222318 -0.0444223
-0.0034375 2.71051e-20 0.00343582 0.021633 -0.227306 -0.0299249
0.0034375 0 0.00343582 0.0641424 -0.209525 -0.0148709
0.00375 -2.25875e-21 0.00312179 0.0682579 -0.208704 -0.0112482
-0.00375 1.12938e-21 0.00312179 0.0203248 -0.227253 -0.0266867
0.003125 -1.12938e-21 0.00374964 0.0599922 -0.210396 -0.0184814
-0.003125 -1.12938e-21 0.00374964 0.0229139 -0.227174 -0.0329618
-0.00468749 2.71051e-20 0.00152054 0.0156111 -0.221931 -0.0108211
0.0046875 2.71051e-20 0.00152054 0.0827091 -0.198209 0.000900135
0.0040625 -2.71051e-20 0.00280426 0.0721365 -0.207583 -0.00778557
-0.0040625 5.42101e-20 0.00280426 0.0187578 -0.227284 -0.0235201
0.0028125 0 0.00406234 0.0556917 -0.210848 -0.0220878
-0.0028125 0 0.00406235 0.0239516 -0.227126 -0.0360776
-0.0015625 -2.71051e-20 0.0046875 0.0286742 -0.224956 -0.0435621
0.0015625 0 0.0046875 0.0441088 -0.209226 -0.0321527
-0.00495999 6.77626e-21 0 0 0 0
0.00496 0 8.03005e-101 0 0 0
-0.00495999 0 3.74087e-05 0.000301221 -0.00855661 1.09814e-05
0.00496 6.77626e-21 3.7421e-05 0.00380396 -0.00744669 5.94946e-05
-0.00499997 -6.77626e-21 0 0 0 0
-6.83803e-15 -1.12938e-21 0.005 0.0346946 -0.216971 -0.0447937
0.005 0 8.6006e-101 0 0 0
-0.004375 3.38813e-21 0.00248636 0.0170959 -0.227032 -0.0201311
0.004375 -1.12938e-21 0.00248636 0.0759857 -0.206756 -0.00451812
-0.00499996 0 0.000585368 0.00575713 -0.128561 -0.00215929
0.005 0 0.000585362 0.0500291 -0.10794 0.00152282
0.0025 -1.12938e-21 0.00437499 0.0514871 -0.210966 -0.0255351
-0.0025 -2.25875e-21 0.00437499 0.0249599 -0.226872 -0.0390226
0.000625 0 0.005 0.0376322 -0.212596 -0.0411233
-0.000625 -1.12938e-21 0.005 0.0318428 -0.221239 -0.0463498
-0.00503995 0 0 0 0 0
0.00504 6.77626e-21 2.10796e-94 0 0 0
-0.00503995 6.77626e-21 3.74082e-05 -5.82035e-06 -0.00855434 1.31569e-05
0.00504 0 3.7421e-05 0.00366859 -0.00773646 8.54756e-05
-0.00499997 0 0.00120022 0.011903 -0.206664 -0.00743499
0.005 0 0.00120022 0.0768537 -0.1771 0.00233252
0.00125 -2.25875e-21 0.005 0.0405489 -0.209951 -0.0364232
-0.00125 -1.12938e-21 0.005 0.0290967 -0.22437 -0.0460627
-0.0046875 2.71051e-20 0.002164 0.0151737 -0.226826 -0.0168364
0.0046875 0 0.002164 0.0796056 -0.205688 -0.00149224
-0.0021875 5.42101e-20 0.0046875 0.0257201 -0.226749 -0.0420369
0.0021875 5.42101e-20 0.0046875 0.0472987 -0.210556 -0.0288686
0.00375 -1.12938e-21 0.00374964 0.0636461 -0.211793 -0.0153203
-0.00375 0 0.00374964 0.0193577 -0.228263 -0.0315585
-0.00531242 0 0.000292364 -0.000212063 -0.0668051 0.000104565
0.0053125 -2.71051e-20 0.000292358 0.0287434 -0.0602422 0.00064245
-0.0040625 2.71051e-20 0.00343582 0.0179149 -0.228372 -0.0286054
0.0040625 0 0.00343582 0.0675749 -0.210609 -0.0115506
-0.0034375 2.71051e-20 0.00406235 0.0205719 -0.228241 -0.0345698
0.0034375 5.42101e-20 0.00406235 0.0595886 -0.212709 -0.0192555
0.0003125 2.71051e-20 0.0053125 0.0343506 -0.215191 -0.0458489
-0.0003125 2.71051e-20 0.0053125 0.0317128 -0.220183 -0.048472
-0.00499999 1.12938e-21 0.0018415 0.0131 -0.224852 -0.0133955
0.005 0 0.0018415 0.0815047 -0.201371 0.00115269
0.001875 -4.51751e-21 0.005 0.0434994 -0.210127 -0.0323786
-0.001875 -3.38813e-21 0.005 0.0263902 -0.226422 -0.0447673
0.004375 -1.12938e-21 0.00312179 0.0711939 -0.209435 -0.00782001
-0.004375 1.12938e-21 0.00312179 0.016419 -0.228363 -0.0254339
0.003125 -1.12938e-21 0.00437499 0.0552494 -0.213145 -0.0228484
-0.003125 -1.12938e-21 0.00437499 0.0217813 -0.228072 -0.0374362
-0.00531243 2.71051e-20 0.000892195 0.00821744 -0.191187 -0.0042404
0.0053125 -5.42101e-20 0.000892183 0.0699461 -0.155135 0.00311014
-0.0009375 -5.42101e-20 0.0053125 0.0292354 -0.223938 -0.0487012
0.0009375 0 0.0053125 0.0371236 -0.210807 -0.0409798
-0.0046875 0 0.00280426 0.0146761 -0.228422 -0.0223261
0.0046875 -2.71051e-20 0.00280426 0.074617 -0.208061 -0.00437361
0.0028125 -2.71051e-20 0.0046875 0.0509359 -0.213188 -0.0264218
-0.0028125 2.71051e-20 0.0046875 0.0227689 -0.228005 -0.0403578
-0.00531247 2.71051e-20 0.00152055 0.0108216 -0.222756 -0.0101034
0.0053125 -2.71051e-20 0.00152054 0.082671 -0.195846 0.00340951
-0.0015625 2.71051e-20 0.0053125 0.0268126 -0.226268 -0.0475657
0.0015625 -2.71051e-20 0.0053125 0.0398653 -0.209381 -0.0359449
-0.005 0 0.00248636 0.0128516 -0.228155 -0.0190315
0.005 1.12938e-21 0.00248636 0.0779229 -0.207003 -0.00115073
-0.00558491 0 0 0 0 0
0.005585 -6.77626e-21 1.70338e-94 0 0 0
-0.00558491 0 3.73999e-05 -5.81905e-06 -0.00855244 1.3154e-05
0.005585 0 3.74242e-05 0.0036689 -0.00773712 8.54829e-05
0.0025 -2.25875e-21 0.005 0.0467308 -0.212522 -0.0295417
-0.0025 -3.38813e-21 0.005 0.0236728 -0.22779 -0.0431121
-0.00562488 -6.77626e-21 0 0 0 0
-7.8565e-15 0 0.005625 0.0316107 -0.218544 -0.0492989
0.005625 0 3.81154e-94 0 0 0
-0.00562487 3.38813e-21 0.000585377 0.00231048 -0.128469 -0.00194432
0.005625 0 0.000585362 0.0478165 -0.106499 0.00224375
0.000625 0 0.005625 0.0340615 -0.213563 -0.0455807
-0.000625 0 0.005625 0.0293419 -0.2229 -0.0505217
-0.00566484 0 0 0 0 0
-0.00566484 0 3.73999e-05 -0.000284582 -0.00853261 1.57022e-05
0.005665 -6.77626e-21 -1.77716e-88 0 0 0
0.005665 -6.77626e-21 3.74243e-05 0.00339395 -0.00791604 0.00012419
-0.00531249 2.71051e-20 0.002164 0.0107931 -0.227902 -0.0158306
0.0053125 0 0.002164 0.0810297 -0.205757 0.00179
0.0040625 -5.42101e-20 0.00406235 0.0632841 -0.214327 -0.0155998
-0.0040625 -5.42101e-20 0.00406234 0.017312 -0.229132 -0.0331283
0.0021875 -2.71051e-20 0.0053125 0.042725 -0.211342 -0.0325471
-0.0021875 -2.71051e-20 0.0053125 0.024354 -0.227717 -0.0459048
-0.00562493 -4.51751e-21 0.00120023 0.00724327 -0.206993 -0.00686408
0.005625 2.25875e-21 0.00120022 0.0750469 -0.173214 0.00421001
0.004375 0 0.00374964 0.0669109 -0.212972 -0.0114086
-0.004375 0 0.00374964 0.015931 -0.229223 -0.0301713
0.00375 -1.12938e-21 0.00437499 0.0589925 -0.215177 -0.0195237
-0.00375 -2.25875e-21 0.00437499 0.018675 -0.228989 -0.0359103
0.00125 -2.25875e-21 0.005625 0.0366366 -0.210216 -0.0403719
-0.00125 0 0.005625 0.027157 -0.22576 -0.0499028
0.0046875 2.71051e-20 0.00343582 0.0704634 -0.211475 -0.0075578
-0.0046875 2.71051e-20 0.00343582 0.0143292 -0.22937 -0.0272656
0.0034375 2.71051e-20 0.0046875 0.054782 -0.215834 -0.023628
-0.0034375 5.42101e-20 0.0046875 0.0198332 -0.228916 -0.0387389
-0.005 1.12938e-21 0.00312179 0.0126572 -0.229402 -0.0241479
0.005 1.12938e-21 0.00312179 0.0735074 -0.210005 -0.00385568
0.003125 0 0.005 0.0502552 -0.215604 -0.0269865
-0.003125 -2.25875e-21 0.005 0.0209436 -0.228756 -0.0414278
-0.00562497 2.25875e-21 0.00184151 0.0086159 -0.225742 -0.0125259
0.005625 0 0.0018415 0.0816889 -0.199865 0.00414146
0.001875 -3.38813e-21 0.005625 0.0392397 -0.210325 -0.0358523
-0.001875 -1.12938e-21 0.005625 0.02495 -0.227463 -0.0484339
-0.00593726 0 0.000292374 -0.00236803 -0.0666462 0.000126224
0.0059375 -2.71051e-20 0.000292358 0.0267586 -0.0618803 0.000939223
0.0003125 0 0.0059375 0.0312131 -0.216785 -0.050311
-0.0003125 2.71051e-20 0.0059375 0.0291664 -0.222018 -0.0525651
-0.00593732 2.71051e-20 0.000892214 0.00370663 -0.190995 -0.00382615
0.0059375 2.71051e-20 0.000892183 0.0663893 -0.15003 0.00432435
-0.0053125 2.71051e-20 0.00280426 0.0107648 -0.229461 -0.0211078
0.0053125 0 0.00280426 0.076462 -0.208492 -0.000515076
0.0028125 2.71051e-20 0.0053125 0.0459638 -0.215001 -0.0303288
-0.0009375 -5.42101e-20 0.0059375 0.0272529 -0.22546 -0.0523497
-0.0028125 5.42101e-20 0.0053125 0.0218482 -0.228687 -0.0441488
0.0009375 2.71051e-20 0.0059375 0.0335588 -0.211466 -0.0451838
-0.00593741 0 0.00152056 0.00626049 -0.223443 -0.00935905
0.0059375 -2.71051e-20 0.00152054 0.0813582 -0.192375 0.00600854
0.0015625 5.42101e-20 0.0059375 0.0359988 -0.209209 -0.0393783
-0.0015625 2.71051e-20 0.0059375 0.0253271 -0.227376 -0.0509954
-0.00562499 1.12938e-21 0.00248636 0.00878308 -0.229161 -0.0179198
0.005625 0 0.00248636 0.0792004 -0.207174 0.00258146
0.0025 -2.25875e-21 0.005625 0.041988 -0.213423 -0.0329556
-0.0025 -3.38813e-21 0.005625 0.0226765 -0.228531 -0.0467058
0.004375 -1.12938e-21 0.00437499 0.0622578 -0.216681 -0.0150865
-0.004375 -1.12938e-21 0.00437499 0.0156706 -0.229829 -0.0344201
0.0046875 2.71051e-20 0.00406235 0.0663267 -0.215471 -0.0109224
-0.0046875 2.71051e-20 0.00406235 0.0141684 -0.230016 -0.0316805
-0.0040625 -2.71051e-20 0.0046875 0.0169829 -0.229665 -0.0372034
0.0040625 2.71051e-20 0.0046875 0.0583163 -0.217837 -0.0196114
-0.00620969 -6.77626e-21 0 0 0 0
-0.00620969 0 3.73859e-05 -0.000284476 -0.00852943 1.56963e-05
0.00621 -6.77626e-21 -1.02942e-87 0 0 0
0.00621 -6.77626e-21 3.74243e-05 0.00339395 -0.00791604 0.00012419
-0.00624963 6.77626e-21 0 0 0 0
-0.005 0 0.00374964 0.0126155 -0.23017 -0.0287473
0.005 0 0.00374964 0.0694232 -0.21375 -0.00672239
-8.813e-15 0 0.00625 0.0290284 -0.220356 -0.053311
0.00375 0 0.005 0.0536786 -0.218184 -0.0234907
-0.00375 -2.25875e-21 0.005 0.0182472 -0.229525 -0.0398189
0.00625 0 -1.20714e-87 0 0 0
-0.00624966 0 0.000585395 -0.000890727 -0.128215 -0.00173956
0.00625 2.25875e-21 0.000585362 0.0442677 -0.10383 0.00291857
0.000625 0 0.00625 0.0309442 -0.214887 -0.0497726
-0.000625 0 0.00625 0.0273238 -0.224533 -0.0540844
-0.00628955 -6.77626e-21 0 0 0 0
-0.00628956 -6.77626e-21 3.73862e-05 -0.000536609 -0.00849455 1.66104e-05
0.00629 -6.77626e-21 8.28302e-81 0 0 0
0.00629 0 3.74244e-05 0.00290435 -0.00772873 0.000142003
-0.00593747 0 0.00216401 0.00658874 -0.228876 -0.0148197
0.0059375 0 0.002164 0.0816962 -0.205501 0.00535594
-0.0053125 -2.71051e-20 0.00343582 0.0108591 -0.230352 -0.0258744
0.0053125 2.71051e-20 0.00343582 0.0725026 -0.211977 -0.00296611
0.0034375 -2.71051e-20 0.0053125 0.0493396 -0.218396 -0.0275679
-0.0034375 -5.42101e-20 0.0053125 0.0193243 -0.229415 -0.0424657
0.0021875 0 0.0059375 0.0383697 -0.211366 -0.0355375
-0.0021875 2.71051e-20 0.0059375 0.0233062 -0.228492 -0.0492701
-0.00624982 -2.25875e-21 0.00120025 0.00283329 -0.207148 -0.00629592
0.00625 -1.12938e-21 0.00120022 0.0718772 -0.168322 0.00602272
0.00125 -1.12938e-21 0.00625 0.0331296 -0.210526 -0.044086
-0.00125 -1.12938e-21 0.00625 0.025636 -0.226968 -0.0531619
-0.005625 1.12938e-21 0.00312179 0.00902305 -0.230357 -0.0228416
0.005625 -1.12938e-21 0.00312179 0.0750505 -0.210395 0.000552852
0.003125 -2.25875e-21 0.005625 0.0449128 -0.217395 -0.0304961
-0.003125 -3.38813e-21 0.005625 0.0203524 -0.229294 -0.0449787
-0.00624994 1.12938e-21 0.00184152 0.00432908 -0.226504 -0.0116473
0.00625 0 0.0018415 0.0807438 -0.197439 0.00719539
0.001875 -2.25875e-21 0.00625 0.0353317 -0.209997 -0.0387923
-0.001875 -2.25875e-21 0.00625 0.0238644 -0.228302 -0.05159
-0.00593749 0 0.00280426 0.00698475 -0.2304 -0.019897
0.0059375 -2.71051e-20 0.00280426 0.0776344 -0.208932 0.00370418
-0.00656187 -2.71051e-20 0.000292393 -0.00431648 -0.0663725 0.000134606
0.0065625 -2.71051e-20 0.000292358 0.023078 -0.0607169 0.00110604
0.0003125 2.71051e-20 0.0065625 0.0285895 -0.21875 -0.0543421
-0.0028125 5.42101e-20 0.0059375 0.0211977 -0.229228 -0.0474995
0.0028125 5.42101e-20 0.0059375 0.0408936 -0.215982 -0.0334087
-0.0003125 5.42101e-20 0.0065625 0.0271446 -0.223874 -0.0560277
-0.00656205 5.42101e-20 0.00089225 -0.000515362 -0.190609 -0.00344618
0.0065625 2.71051e-20 0.000892183 0.0613962 -0.143905 0.00535861
0.0009375 2.71051e-20 0.0065625 0.0304155 -0.212548 -0.0492546
-0.0009375 5.42101e-20 0.0065625 0.0257311 -0.226782 -0.0553962
0.0046875 2.71051e-20 0.0046875 0.0611056 -0.219086 -0.0142124
-0.0046875 2.71051e-20 0.0046875 0.0142192 -0.230504 -0.0356677
0.005 -2.25875e-21 0.00437499 0.0646961 -0.217583 -0.00959548
-0.005 0 0.00437499 0.0127545 -0.230704 -0.032892
0.004375 -1.12938e-21 0.005 0.0565324 -0.219872 -0.0185114
-0.004375 -2.25875e-21 0.005 0.0156232 -0.230293 -0.0382486
0.0053125 0 0.00406234 0.0684059 -0.216072 -0.00544007
-0.0053125 0 0.00406234 0.0111053 -0.230941 -0.0301636
0.0040625 0 0.0053125 0.0522774 -0.220669 -0.0231563
-0.0040625 0 0.0053125 0.0168484 -0.230103 -0.0408674
-0.00624999 2.25875e-21 0.00248637 0.00486882 -0.230067 -0.0168088
0.00625 0 0.00248636 0.0796965 -0.207036 0.00653907
0.0025 -2.25875e-21 0.00625 0.0374312 -0.213448 -0.0355184
-0.0025 -3.38813e-21 0.00625 0.0219799 -0.22912 -0.0498531
-0.00656229 -2.71051e-20 0.00152059 0.00191365 -0.223969 -0.00862084
0.0065625 0 0.00152054 0.0785709 -0.187527 0.00842974
0.0015625 2.71051e-20 0.0065625 0.0325457 -0.20888 -0.0425266
-0.0015625 2.71051e-20 0.0065625 0.024233 -0.228253 -0.0539069
0.005625 -1.12938e-21 0.00374964 0.0709819 -0.214086 -0.00149491
-0.005625 1.12938e-21 0.00374964 0.00938732 -0.231059 -0.027283
0.00375 -1.12938e-21 0.005625 0.0476508 -0.220507 -0.0268277
-0.00375 -1.12938e-21 0.005625 0.0180318 -0.229969 -0.043323
-0.00683411 0 0 0 0 0
-0.00683412 6.77626e-21 3.73636e-05 -0.000536285 -0.00848943 1.66004e-05
0.006835 -6.77626e-21 7.38719e-81 0 0 0
0.006835 0 3.74239e-05 0.00290431 -0.00772862 0.000142001
0.0059375 5.42101e-20 0.00343582 0.0736182 -0.212164 0.00199599
-0.0059375 2.71051e-20 0.00343582 0.00748247 -0.231214 -0.0244703
0.0034375 2.71051e-20 0.0059375 0.0434547 -0.220201 -0.0306797
-0.0034375 5.42101e-20 0.0059375 0.0190395 -0.229844 -0.0458006
-0.006874 0 0 0 0 0
0.006875 0 1.56702e-80 0 0 0
-9.4467e-15 0 0.006875 0.0270124 -0.222283 -0.0567592
-0.00687415 -2.25875e-21 0.000585427 -0.00383749 -0.127812 -0.00156278
0.006875 0 0.000585361 0.0393081 -0.0993355 0.00329126
0.000625 0 0.006875 0.0283675 -0.216614 -0.0536446
-0.000625 0 0.006875 0.0258121 -0.226016 -0.0570464
-0.00656243 -2.71051e-20 0.00216402 0.00255431 -0.229737 -0.0137984
0.0065625 2.71051e-20 0.002164 0.0813534 -0.204378 0.00898741
-0.00691384 0 0 0 0 0
-0.00691386 6.77626e-21 3.73654e-05 -0.000764696 -0.0084445 1.71979e-05
0.006915 0 3.60954e-73 0 0 0
0.006915 0 3.74238e-05 0.00230116 -0.00729928 0.000108518
0.0021875 5.42101e-20 0.0065625 0.0344127 -0.21053 -0.0377253
-0.0021875 5.42101e-20 0.0065625 0.0225912 -0.229085 -0.0521878
-0.00687455 -3.38813e-21 0.00120029 -0.00128958 -0.207115 -0.00576561
0.006875 0 0.00120022 0.0671878 -0.16205 0.00748659
-0.00625 3.38813e-21 0.00312179 0.00551093 -0.231206 -0.0215459
0.00625 -2.25875e-21 0.00312179 0.0758213 -0.210671 0.00521972
0.00125 -1.12938e-21 0.006875 0.0301103 -0.211113 -0.0476375
-0.00125 -2.25875e-21 0.006875 0.0245392 -0.227949 -0.0559032
0.003125 -2.25875e-21 0.00625 0.0394993 -0.21831 -0.0330598
-0.003125 -3.38813e-21 0.00625 0.0200162 -0.229746 -0.0481304
0.005 -2.25875e-21 0.005 0.0585639 -0.220784 -0.0122384
-0.005 -1.12938e-21 0.005 0.0130684 -0.2311 -0.0366391
0.0053125 -2.71051e-20 0.0046875 0.0629477 -0.219701 -0.007807
0.0046875 2.71051e-20 0.0053125 0.0544309 -0.221895 -0.0170661
-0.0046875 0 0.0053125 0.0144423 -0.2309 -0.039256
-0.0053125 2.71051e-20 0.0046875 0.011525 -0.231355 -0.0340556
-0.00687483 2.25875e-21 0.00184153 0.000264273 -0.227119 -0.0107793
0.006875 0 0.0018415 0.0784349 -0.193635 0.0100151
0.005625 -1.12938e-21 0.00437499 0.0661366 -0.217915 -0.00345183
-0.005625 0 0.00437499 0.00990071 -0.231523 -0.0313123
0.004375 0 0.005625 0.0497778 -0.222323 -0.021345
0.001875 -3.38813e-21 0.006875 0.0319473 -0.209301 -0.0412718
-0.001875 -4.51751e-21 0.006875 0.0231299 -0.228953 -0.0543067
-0.004375 -2.25875e-21 0.005625 0.0157616 -0.230686 -0.0416939
-0.00656249 0 0.00280427 0.00334461 -0.23125 -0.0186971
0.0065625 -2.71051e-20 0.00280426 0.0781196 -0.209313 0.00811475
0.0028125 -5.42101e-20 0.0065625 0.0360491 -0.215915 -0.0354018
-0.0028125 0 0.0065625 0.0208246 -0.229674 -0.050455
-0.00718596 0 0.000292431 -0.00608176 -0.0660308 0.000138861
0.0071875 0 0.000292358 0.0184224 -0.0574989 0.000885883
-0.0059375 -5.42101e-20 0.00406234 0.00810192 -0.231727 -0.0286188
0.0059375 -5.42101e-20 0.00406235 0.0694068 -0.216127 0.000432927
0.0003125 2.71051e-20 0.0071875 0.0266242 -0.220942 -0.0578201
0.0040625 2.71051e-20 0.0059375 0.0455322 -0.222764 -0.0259081
-0.0040625 2.71051e-20 0.0059375 0.0169149 -0.230513 -0.0441582