# Force       
# CofR        : (0.000000e+00 0.000000e+00 0.000000e+00)
#
# Time        	(total_x total_y total_z)	(pressure_x pressure_y pressure_z)	(viscous_x viscous_y viscous_z)
0.000600024   	(-1.906143e-03 -5.043226e-06 2.398524e+03)	(-1.906144e-03 -5.043322e-06 2.398524e+03)	(2.735717e-10 9.524284e-11 7.950509e-08)
0.00123689    	(-1.948834e-03 3.956766e-07 2.398525e+03)	(-1.948834e-03 3.955180e-07 2.398525e+03)	(2.761407e-10 1.586930e-10 3.039502e-07)
0.00156543    	(-2.016942e-03 4.087200e-09 2.398524e+03)	(-2.016942e-03 3.926139e-09 2.398524e+03)	(-2.710071e-10 1.610607e-10 4.073062e-07)
0.00187576    	(-1.998692e-03 4.000229e-08 2.398524e+03)	(-1.998691e-03 3.983802e-08 2.398524e+03)	(-7.585192e-10 1.642680e-10 5.056048e-07)
0.00221796    	(-1.997776e-03 7.747481e-08 2.398524e+03)	(-1.997775e-03 7.730560e-08 2.398524e+03)	(-1.423746e-09 1.692112e-10 6.144779e-07)
0.00259984    	(-1.995177e-03 8.255837e-08 2.398524e+03)	(-1.995175e-03 8.238386e-08 2.398524e+03)	(-2.136376e-09 1.745055e-10 7.352521e-07)
0.00302895    	(-1.993578e-03 8.708037e-08 2.398524e+03)	(-1.993575e-03 8.690024e-08 2.398524e+03)	(-2.949247e-09 1.801329e-10 8.709186e-07)
0.00351443    	(-1.992424e-03 7.066115e-08 2.398524e+03)	(-1.992420e-03 7.047656e-08 2.398524e+03)	(-3.900475e-09 1.845890e-10 1.024101e-06)
0.00406361    	(-1.990636e-03 4.880031e-08 2.398524e+03)	(-1.990631e-03 4.861390e-08 2.398524e+03)	(-5.002811e-09 1.864058e-10 1.197098e-06)
0.00468662    	(-1.988520e-03 6.283137e-08 2.398524e+03)	(-1.988513e-03 6.264123e-08 2.398524e+03)	(-6.254838e-09 1.901431e-10 1.392689e-06)
0.00539649    	(-1.985168e-03 3.596548e-08 2.398524e+03)	(-1.985160e-03 3.577393e-08 2.398524e+03)	(-7.655984e-09 1.915573e-10 1.614656e-06)
0.00619537    	(-1.981323e-03 -8.502402e-09 2.398524e+03)	(-1.981314e-03 -8.689915e-09 2.398524e+03)	(-9.178716e-09 1.875131e-10 1.863284e-06)
0.00701997    	(-1.977710e-03 2.507854e-08 2.398524e+03)	(-1.977699e-03 2.489054e-08 2.398524e+03)	(-1.062828e-08 1.879943e-10 2.117924e-06)
0.00788847    	(-1.975025e-03 2.822168e-07 2.398524e+03)	(-1.975013e-03 2.819880e-07 2.398524e+03)	(-1.211996e-08 2.288494e-10 2.384105e-06)
0.00868964    	(-1.972168e-03 -2.396786e-07 2.398524e+03)	(-1.972155e-03 -2.398689e-07 2.398524e+03)	(-1.327892e-08 1.903380e-10 2.627667e-06)
0.00948204    	(-1.969428e-03 -3.702776e-09 2.398524e+03)	(-1.969414e-03 -3.889459e-09 2.398524e+03)	(-1.438139e-08 1.866839e-10 2.866634e-06)
0.0102888     	(-1.966448e-03 -1.610109e-08 2.398524e+03)	(-1.966432e-03 -1.628296e-08 2.398524e+03)	(-1.544875e-08 1.818662e-10 3.107725e-06)
0.0111194     	(-1.965140e-03 -7.306175e-08 2.398524e+03)	(-1.965123e-03 -7.323106e-08 2.398524e+03)	(-1.651088e-08 1.693024e-10 3.353071e-06)
0.0119791     	(-1.958859e-03 -8.144103e-07 2.398524e+03)	(-1.958841e-03 -8.144542e-07 2.398524e+03)	(-1.737402e-08 4.390546e-11 3.603399e-06)
0.0128694     	(-1.956489e-03 9.851534e-07 2.398524e+03)	(-1.956471e-03 9.849537e-07 2.398524e+03)	(-1.823837e-08 1.997046e-10 3.859314e-06)
0.013791      	(-1.956622e-03 -4.311606e-08 2.398524e+03)	(-1.956603e-03 -4.330654e-08 2.398524e+03)	(-1.926177e-08 1.904817e-10 4.120243e-06)
0.0147481     	(-1.955538e-03 2.378652e-08 2.398524e+03)	(-1.955517e-03 2.359285e-08 2.398524e+03)	(-2.053234e-08 1.936748e-10 4.386538e-06)
0.015756      	(-1.947619e-03 6.699750e-08 2.398524e+03)	(-1.947598e-03 6.679286e-08 2.398524e+03)	(-2.119772e-08 2.046401e-10 4.662602e-06)
0.0168235     	(-1.948378e-03 7.341773e-08 2.398524e+03)	(-1.948356e-03 7.320122e-08 2.398524e+03)	(-2.197791e-08 2.165075e-10 4.948746e-06)
0.0179336     	(-1.948922e-03 6.249688e-08 2.398524e+03)	(-1.948900e-03 6.226931e-08 2.398524e+03)	(-2.282411e-08 2.275756e-10 5.239072e-06)
0.0190955     	(-1.945537e-03 1.600783e-07 2.398524e+03)	(-1.945513e-03 1.598190e-07 2.398524e+03)	(-2.362195e-08 2.592200e-10 5.535176e-06)
0.0203275     	(-1.944208e-03 9.139309e-08 2.398524e+03)	(-1.944184e-03 9.111625e-08 2.398524e+03)	(-2.447621e-08 2.768453e-10 5.838574e-06)
0.0216372     	(-1.934028e-03 1.415584e-07 2.398524e+03)	(-1.934003e-03 1.412505e-07 2.398524e+03)	(-2.466322e-08 3.078408e-10 6.148675e-06)
0.0230267     	(-1.938446e-03 1.680989e-07 2.398523e+03)	(-1.938420e-03 1.677490e-07 2.398523e+03)	(-2.502837e-08 3.498265e-10 6.463266e-06)
0.0245005     	(-1.931972e-03 2.094177e-07 2.398523e+03)	(-1.931948e-03 2.090171e-07 2.398523e+03)	(-2.448505e-08 4.005643e-10 6.779695e-06)
0.0260626     	(-1.926497e-03 5.180581e-07 2.398523e+03)	(-1.926474e-03 5.175148e-07 2.398523e+03)	(-2.311637e-08 5.433696e-10 7.094391e-06)
0.0277284     	(-1.925914e-03 6.711623e-08 2.398523e+03)	(-1.925893e-03 6.655817e-08 2.398523e+03)	(-2.120385e-08 5.580668e-10 7.399158e-06)
0.0295157     	(-1.923868e-03 3.163162e-07 2.398523e+03)	(-1.923849e-03 3.156610e-07 2.398523e+03)	(-1.897079e-08 6.552029e-10 7.691809e-06)
0.0314415     	(-1.925571e-03 3.840908e-07 2.398523e+03)	(-1.925554e-03 3.833083e-07 2.398523e+03)	(-1.672721e-08 7.825540e-10 7.976640e-06)
0.0335256     	(-1.926815e-03 6.032216e-07 2.398523e+03)	(-1.926801e-03 6.022274e-07 2.398523e+03)	(-1.447374e-08 9.941425e-10 8.254629e-06)
0.0357944     	(-1.928933e-03 8.223091e-07 2.398523e+03)	(-1.928921e-03 8.210020e-07 2.398523e+03)	(-1.222934e-08 1.307125e-09 8.522596e-06)
0.0382803     	(-1.935503e-03 9.439129e-07 2.398522e+03)	(-1.935492e-03 9.422091e-07 2.398522e+03)	(-1.081707e-08 1.703789e-09 8.764692e-06)
0.0410291     	(-1.938719e-03 1.078682e-06 2.398522e+03)	(-1.938709e-03 1.076475e-06 2.398522e+03)	(-1.012579e-08 2.206890e-09 8.976420e-06)
0.0440511     	(-1.939980e-03 1.160901e-06 2.398522e+03)	(-1.939970e-03 1.158153e-06 2.398522e+03)	(-9.817313e-09 2.748583e-09 9.156617e-06)
0.0473817     	(-1.946452e-03 1.290143e-06 2.398522e+03)	(-1.946442e-03 1.286728e-06 2.398522e+03)	(-9.792639e-09 3.414745e-09 9.293746e-06)
0.0510694     	(-1.998524e-03 1.016171e-06 2.398521e+03)	(-1.998495e-03 1.012213e-06 2.398521e+03)	(-2.884924e-08 3.958038e-09 9.515235e-06)
0.0551662     	(-1.994633e-03 1.483361e-06 2.398521e+03)	(-1.994585e-03 1.478566e-06 2.398521e+03)	(-4.801029e-08 4.794717e-09 9.748075e-06)
0.0597194     	(-1.978629e-03 1.156668e-06 2.398521e+03)	(-1.978570e-03 1.151204e-06 2.398521e+03)	(-5.918387e-08 5.464622e-09 9.933417e-06)
0.0647864     	(-1.978363e-03 1.040858e-06 2.398520e+03)	(-1.978297e-03 1.034723e-06 2.398520e+03)	(-6.653436e-08 6.134261e-09 1.033008e-05)
0.0704266     	(-1.987914e-03 -2.447927e-08 2.398520e+03)	(-1.987837e-03 -3.053174e-08 2.398520e+03)	(-7.705041e-08 6.052467e-09 1.080751e-05)
0.0767144     	(-2.028619e-03 1.595332e-07 2.398519e+03)	(-2.028513e-03 1.534872e-07 2.398519e+03)	(-1.065133e-07 6.046035e-09 1.134612e-05)
0.0837577     	(-2.032124e-03 7.153672e-07 2.398519e+03)	(-2.031993e-03 7.088930e-07 2.398519e+03)	(-1.301662e-07 6.474252e-09 1.209779e-05)
0.0916237     	(-2.047443e-03 1.360161e-07 2.398519e+03)	(-2.047283e-03 1.296973e-07 2.398519e+03)	(-1.602965e-07 6.318838e-09 1.296222e-05)
0.0998592     	(-2.063043e-03 9.957396e-08 2.398519e+03)	(-2.062855e-03 9.333950e-08 2.398519e+03)	(-1.884285e-07 6.234462e-09 1.388816e-05)
0.107576      	(-2.087809e-03 -5.097609e-07 2.398518e+03)	(-2.087588e-03 -5.153779e-07 2.398518e+03)	(-2.208583e-07 5.616933e-09 1.467046e-05)
0.114922      	(-2.109298e-03 -3.957570e-07 2.398518e+03)	(-2.109043e-03 -4.009162e-07 2.398518e+03)	(-2.552014e-07 5.159236e-09 1.525598e-05)
0.121851      	(-2.138971e-03 -2.436968e-07 2.398517e+03)	(-2.138676e-03 -2.485210e-07 2.398517e+03)	(-2.950343e-07 4.824261e-09 1.563679e-05)
0.127918      	(-2.163395e-03 2.044626e-07 2.398517e+03)	(-2.163059e-03 1.996243e-07 2.398517e+03)	(-3.361543e-07 4.838310e-09 1.580331e-05)
0.134287      	(-2.193674e-03 3.292641e-07 2.398516e+03)	(-2.193287e-03 3.243270e-07 2.398516e+03)	(-3.867089e-07 4.937077e-09 1.551172e-05)
0.139912      	(-2.211644e-03 6.268569e-07 2.398516e+03)	(-2.211211e-03 6.215249e-07 2.398516e+03)	(-4.327753e-07 5.331988e-09 1.507366e-05)
0.144383      	(-2.242866e-03 6.271853e-07 2.398516e+03)	(-2.242391e-03 6.215367e-07 2.398516e+03)	(-4.745464e-07 5.648577e-09 1.460576e-05)
0.147409      	(-2.260232e-03 4.790764e-07 2.398516e+03)	(-2.259726e-03 4.732668e-07 2.398516e+03)	(-5.056480e-07 5.809594e-09 1.425661e-05)
0.150215      	(-2.270927e-03 6.633021e-07 2.398516e+03)	(-2.270392e-03 6.572779e-07 2.398516e+03)	(-5.344380e-07 6.024229e-09 1.390885e-05)
0.152583      	(-2.287084e-03 7.824385e-07 2.398516e+03)	(-2.286526e-03 7.761907e-07 2.398516e+03)	(-5.581546e-07 6.247895e-09 1.359436e-05)
0.15493       	(-2.294611e-03 7.657025e-07 2.398516e+03)	(-2.294027e-03 7.592218e-07 2.398516e+03)	(-5.840197e-07 6.480680e-09 1.326336e-05)
0.157118      	(-2.308676e-03 1.323516e-06 2.398516e+03)	(-2.308067e-03 1.316638e-06 2.398516e+03)	(-6.091770e-07 6.878350e-09 1.293592e-05)
0.15956       	(-2.318521e-03 1.086033e-06 2.398515e+03)	(-2.317883e-03 1.078795e-06 2.398515e+03)	(-6.378870e-07 7.238194e-09 1.255150e-05)
0.162406      	(-2.333972e-03 1.228538e-06 2.398515e+03)	(-2.333299e-03 1.220828e-06 2.398515e+03)	(-6.731837e-07 7.710330e-09 1.207747e-05)
0.16582       	(-2.348838e-03 1.306774e-06 2.398515e+03)	(-2.348119e-03 1.298457e-06 2.398515e+03)	(-7.186212e-07 8.317791e-09 1.147393e-05)
0.169865      	(-2.388430e-03 1.055561e-06 2.398515e+03)	(-2.387653e-03 1.046670e-06 2.398515e+03)	(-7.770069e-07 8.890744e-09 1.071589e-05)
0.174541      	(-2.419579e-03 1.192094e-06 2.398515e+03)	(-2.418733e-03 1.182445e-06 2.398515e+03)	(-8.459155e-07 9.648951e-09 9.790002e-06)
0.17985       	(-2.456032e-03 1.602640e-06 2.398515e+03)	(-2.455102e-03 1.591821e-06 2.398515e+03)	(-9.303016e-07 1.081981e-08 8.685427e-06)
0.1858        	(-2.500375e-03 1.549167e-06 2.398515e+03)	(-2.499347e-03 1.537034e-06 2.398515e+03)	(-1.027640e-06 1.213280e-08 7.415532e-06)
0.192211      	(-2.561634e-03 1.189813e-06 2.398516e+03)	(-2.560488e-03 1.176616e-06 2.398516e+03)	(-1.146307e-06 1.319677e-08 6.074538e-06)
0.198673      	(-2.587523e-03 9.937301e-07 2.398516e+03)	(-2.586260e-03 9.796996e-07 2.398516e+03)	(-1.262793e-06 1.403047e-08 4.844512e-06)
0.205007      	(-2.649102e-03 9.269627e-07 2.398516e+03)	(-2.647715e-03 9.121815e-07 2.398516e+03)	(-1.387001e-06 1.478124e-08 3.942863e-06)
0.211108      	(-2.700849e-03 6.583901e-07 2.398516e+03)	(-2.699341e-03 6.432151e-07 2.398516e+03)	(-1.507651e-06 1.517498e-08 3.170020e-06)
0.216843      	(-2.736116e-03 4.494962e-07 2.398517e+03)	(-2.734489e-03 4.341964e-07 2.398517e+03)	(-1.626772e-06 1.529978e-08 2.502009e-06)
0.222398      	(-2.810005e-03 2.499156e-07 2.398517e+03)	(-2.808253e-03 2.347306e-07 2.398517e+03)	(-1.751673e-06 1.518496e-08 1.914535e-06)
0.22758       	(-2.874481e-03 1.022688e-07 2.398517e+03)	(-2.872604e-03 8.736016e-08 2.398517e+03)	(-1.877411e-06 1.490863e-08 1.430327e-06)
0.232551      	(-2.915934e-03 -1.522641e-07 2.398517e+03)	(-2.913928e-03 -1.666760e-07 2.398517e+03)	(-2.005662e-06 1.441194e-08 1.028125e-06)
0.2373        	(-2.970099e-03 -3.243782e-07 2.398517e+03)	(-2.967962e-03 -3.381729e-07 2.398517e+03)	(-2.136945e-06 1.379473e-08 7.009135e-07)
0.242096      	(-3.034528e-03 -5.313384e-07 2.398517e+03)	(-3.032249e-03 -5.443697e-07 2.398517e+03)	(-2.279618e-06 1.303130e-08 4.352924e-07)
0.246724      	(-3.094178e-03 -6.933220e-07 2.398517e+03)	(-3.091750e-03 -7.055154e-07 2.398517e+03)	(-2.428122e-06 1.219342e-08 2.381756e-07)
0.251234      	(-3.167339e-03 -8.151476e-07 2.398517e+03)	(-3.164756e-03 -8.264607e-07 2.398517e+03)	(-2.583563e-06 1.131315e-08 9.963059e-08)
0.255917      	(-3.239354e-03 -9.148331e-07 2.398517e+03)	(-3.236598e-03 -9.252013e-07 2.398517e+03)	(-2.756594e-06 1.036818e-08 1.195446e-08)
0.260783      	(-3.311721e-03 -9.937153e-07 2.398517e+03)	(-3.308772e-03 -1.003108e-06 2.398517e+03)	(-2.949004e-06 9.392493e-09 -2.224240e-08)
0.265664      	(-3.384323e-03 -1.080420e-06 2.398517e+03)	(-3.381167e-03 -1.088861e-06 2.398517e+03)	(-3.155775e-06 8.441560e-09 -6.187779e-09)
0.270585      	(-3.468549e-03 -1.081666e-06 2.398517e+03)	(-3.465171e-03 -1.089232e-06 2.398517e+03)	(-3.378559e-06 7.565830e-09 5.339932e-08)
0.275401      	(-3.554934e-03 -1.127303e-06 2.398517e+03)	(-3.551323e-03 -1.134067e-06 2.398517e+03)	(-3.610999e-06 6.763931e-09 1.450510e-07)
0.280149      	(-3.639745e-03 -1.130263e-06 2.398517e+03)	(-3.635891e-03 -1.136330e-06 2.398517e+03)	(-3.853779e-06 6.067100e-09 2.604279e-07)
0.284304      	(-3.720233e-03 -1.103113e-06 2.398517e+03)	(-3.716155e-03 -1.108652e-06 2.398517e+03)	(-4.077733e-06 5.538462e-09 3.678353e-07)
0.288264      	(-3.795251e-03 -1.123029e-06 2.398517e+03)	(-3.790950e-03 -1.128111e-06 2.398517e+03)	(-4.301050e-06 5.081957e-09 4.784790e-07)
0.292063      	(-3.866227e-03 -1.103053e-06 2.398517e+03)	(-3.861703e-03 -1.107741e-06 2.398517e+03)	(-4.524495e-06 4.687310e-09 5.903030e-07)
0.295696      	(-3.944882e-03 -1.064631e-06 2.398517e+03)	(-3.940135e-03 -1.068973e-06 2.398517e+03)	(-4.746840e-06 4.342486e-09 6.994322e-07)
0.299383      	(-4.015993e-03 -1.052563e-06 2.398517e+03)	(-4.011012e-03 -1.056579e-06 2.398517e+03)	(-4.981034e-06 4.016521e-09 8.150213e-07)
0.303168      	(-4.082803e-03 -1.072834e-06 2.398517e+03)	(-4.077573e-03 -1.076527e-06 2.398517e+03)	(-5.230132e-06 3.692595e-09 9.372730e-07)
0.307357      	(-4.160473e-03 -1.075321e-06 2.398517e+03)	(-4.154956e-03 -1.078675e-06 2.398517e+03)	(-5.516732e-06 3.353542e-09 1.079279e-06)
0.312045      	(-4.261568e-03 -1.072004e-06 2.398517e+03)	(-4.255716e-03 -1.075005e-06 2.398517e+03)	(-5.851809e-06 3.000908e-09 1.244540e-06)
0.317307      	(-4.373496e-03 -1.110034e-06 2.398518e+03)	(-4.367250e-03 -1.112621e-06 2.398518e+03)	(-6.245567e-06 2.586708e-09 1.434779e-06)
0.323168      	(-4.488269e-03 -1.204375e-06 2.398518e+03)	(-4.481564e-03 -1.206413e-06 2.398518e+03)	(-6.705221e-06 2.037655e-09 1.650779e-06)
0.329297      	(-4.621173e-03 -1.282547e-06 2.398518e+03)	(-4.613963e-03 -1.283884e-06 2.398518e+03)	(-7.210210e-06 1.336658e-09 1.878633e-06)
0.335652      	(-4.767330e-03 -1.427884e-06 2.398518e+03)	(-4.759569e-03 -1.428309e-06 2.398518e+03)	(-7.760136e-06 4.251360e-10 2.121227e-06)
0.34205       	(-4.909836e-03 -1.578435e-06 2.398518e+03)	(-4.901496e-03 -1.577764e-06 2.398518e+03)	(-8.340395e-06 -6.708677e-10 2.377037e-06)
0.348666      	(-5.063543e-03 -1.741170e-06 2.398518e+03)	(-5.054573e-03 -1.739161e-06 2.398518e+03)	(-8.969350e-06 -2.009596e-09 2.662019e-06)
0.355264      	(-5.223330e-03 -1.920575e-06 2.398518e+03)	(-5.213705e-03 -1.917014e-06 2.398518e+03)	(-9.625402e-06 -3.560637e-09 2.966803e-06)
0.362249      	(-5.384804e-03 -2.045457e-06 2.398518e+03)	(-5.374453e-03 -2.040082e-06 2.398518e+03)	(-1.035084e-05 -5.375622e-09 3.318158e-06)
0.369473      	(-5.558219e-03 -2.143044e-06 2.398519e+03)	(-5.547084e-03 -2.135727e-06 2.398519e+03)	(-1.113483e-05 -7.317267e-09 3.707362e-06)
0.377039      	(-5.732627e-03 -2.333665e-06 2.398519e+03)	(-5.720634e-03 -2.324144e-06 2.398519e+03)	(-1.199252e-05 -9.520701e-09 4.138630e-06)
0.384718      	(-5.917496e-03 -2.359241e-06 2.398519e+03)	(-5.904594e-03 -2.347522e-06 2.398519e+03)	(-1.290163e-05 -1.171953e-08 4.593914e-06)
0.392901      	(-6.103784e-03 -2.388669e-06 2.398519e+03)	(-6.089871e-03 -2.374701e-06 2.398519e+03)	(-1.391253e-05 -1.396783e-08 5.091608e-06)
0.401355      	(-6.297989e-03 -2.251549e-06 2.398519e+03)	(-6.282988e-03 -2.235552e-06 2.398519e+03)	(-1.500117e-05 -1.599657e-08 5.612747e-06)
0.410443      	(-6.495721e-03 -1.926787e-06 2.398520e+03)	(-6.479502e-03 -1.909223e-06 2.398520e+03)	(-1.621891e-05 -1.756436e-08 6.177840e-06)
0.419867      	(-6.695762e-03 -1.526023e-06 2.398520e+03)	(-6.678232e-03 -1.507494e-06 2.398520e+03)	(-1.752966e-05 -1.852902e-08 6.772938e-06)
0.429781      	(-6.896232e-03 -1.068062e-06 2.398520e+03)	(-6.877275e-03 -1.049308e-06 2.398520e+03)	(-1.895703e-05 -1.875408e-08 7.418127e-06)
0.440121      	(-7.086740e-03 -5.595690e-07 2.398520e+03)	(-7.066249e-03 -5.413206e-07 2.398520e+03)	(-2.049068e-05 -1.824846e-08 8.128338e-06)
0.451003      	(-7.270141e-03 -1.266322e-07 2.398521e+03)	(-7.247994e-03 -1.094421e-07 2.398521e+03)	(-2.214724e-05 -1.719014e-08 8.935862e-06)
0.4606        	(-7.423560e-03 2.326785e-07 2.398521e+03)	(-7.399924e-03 2.486239e-07 2.398521e+03)	(-2.363574e-05 -1.594530e-08 9.700491e-06)
0.471383      	(-7.557262e-03 4.112827e-07 2.398521e+03)	(-7.531933e-03 4.256703e-07 2.398521e+03)	(-2.532955e-05 -1.438758e-08 1.063766e-05)
0.483395      	(-7.681396e-03 7.652234e-07 2.398522e+03)	(-7.654168e-03 7.774612e-07 2.398522e+03)	(-2.722785e-05 -1.223777e-08 1.177390e-05)
0.496082      	(-7.775701e-03 1.019955e-06 2.398522e+03)	(-7.746476e-03 1.029939e-06 2.398522e+03)	(-2.922568e-05 -9.983671e-09 1.306618e-05)
0.508593      	(-7.829749e-03 1.252215e-06 2.398522e+03)	(-7.798584e-03 1.259816e-06 2.398522e+03)	(-3.116471e-05 -7.600720e-09 1.442388e-05)
0.522         	(-7.833959e-03 1.412603e-06 2.398523e+03)	(-7.800780e-03 1.417537e-06 2.398523e+03)	(-3.317909e-05 -4.933658e-09 1.597259e-05)
0.535653      	(-7.782400e-03 1.550877e-06 2.398523e+03)	(-7.747268e-03 1.552963e-06 2.398523e+03)	(-3.513162e-05 -2.086635e-09 1.764498e-05)
0.54978       	(-7.666432e-03 1.837960e-06 2.398524e+03)	(-7.629419e-03 1.836681e-06 2.398524e+03)	(-3.701253e-05 1.278971e-09 1.946578e-05)
0.564136      	(-7.484722e-03 1.873473e-06 2.398524e+03)	(-7.445978e-03 1.868876e-06 2.398524e+03)	(-3.874426e-05 4.596477e-09 2.138903e-05)
0.581329      	(-7.173310e-03 2.045047e-06 2.398524e+03)	(-7.132795e-03 2.036350e-06 2.398524e+03)	(-4.051464e-05 8.697035e-09 2.374973e-05)
0.601977      	(-6.683811e-03 1.725431e-06 2.398525e+03)	(-6.641696e-03 1.712925e-06 2.398525e+03)	(-4.211519e-05 1.250568e-08 2.659682e-05)
0.626685      	(-5.962056e-03 1.101403e-06 2.398525e+03)	(-5.918870e-03 1.086647e-06 2.398525e+03)	(-4.318611e-05 1.475590e-08 2.994928e-05)
0.656235      	(-4.960089e-03 -1.771644e-07 2.398525e+03)	(-4.916875e-03 -1.914012e-07 2.398525e+03)	(-4.321447e-05 1.423682e-08 3.377445e-05)
0.69155       	(-3.674893e-03 -1.666080e-07 2.398525e+03)	(-3.633310e-03 -1.810712e-07 2.398525e+03)	(-4.158307e-05 1.446313e-08 3.769482e-05)
0.733789      	(-4.194925e-03 6.859001e-05 2.398528e+03)	(-4.153217e-03 6.823314e-05 2.398528e+03)	(-4.170796e-05 3.568653e-07 4.223445e-05)
0.782826      	(-2.221589e-02 -2.074319e-04 2.398580e+03)	(-2.213506e-02 -2.057548e-04 2.398580e+03)	(-8.083111e-05 -1.677121e-06 7.927033e-05)
0.837595      	(-4.052288e-03 7.875201e-04 2.398647e+03)	(-4.000274e-03 7.852177e-04 2.398646e+03)	(-5.201364e-05 2.302387e-06 1.727176e-04)
0.877618      	(1.820858e-02 -1.278499e-04 2.398435e+03)	(1.826674e-02 -1.283381e-04 2.398435e+03)	(-5.816171e-05 4.882331e-07 1.092783e-04)
0.923937      	(1.985120e-02 -2.221298e-03 2.398608e+03)	(1.988993e-02 -2.210098e-03 2.398608e+03)	(-3.872527e-05 -1.120048e-05 1.348856e-04)
0.954584      	(4.240214e-02 -1.472716e-04 2.398463e+03)	(4.241510e-02 -1.369051e-04 2.398463e+03)	(-1.296678e-05 -1.036649e-05 1.581518e-04)
0.974222      	(3.348154e-02 4.294666e-04 2.398621e+03)	(3.346334e-02 4.378213e-04 2.398621e+03)	(1.819174e-05 -8.354645e-06 2.026265e-04)
0.997492      	(3.950403e-02 1.092688e-03 2.398523e+03)	(3.944771e-02 1.095314e-03 2.398523e+03)	(5.631937e-05 -2.626107e-06 2.222008e-04)
1.02435       	(2.453769e-02 1.941815e-03 2.398527e+03)	(2.445095e-02 1.937639e-03 2.398527e+03)	(8.673878e-05 4.176160e-06 2.143757e-04)
1.05541       	(1.691389e-02 5.501332e-04 2.398554e+03)	(1.680549e-02 5.416483e-04 2.398554e+03)	(1.083985e-04 8.484864e-06 1.990705e-04)
1.09032       	(2.582911e-03 4.209660e-04 2.398545e+03)	(2.474073e-03 4.117795e-04 2.398545e+03)	(1.088374e-04 9.186480e-06 1.589141e-04)
1.12756       	(-2.181189e-03 -1.269872e-03 2.398545e+03)	(-2.278366e-03 -1.278617e-03 2.398544e+03)	(9.717681e-05 8.745145e-06 1.647236e-04)
1.15117       	(-2.319436e-02 -6.649999e-04 2.398496e+03)	(-2.325180e-02 -6.742985e-04 2.398496e+03)	(5.743390e-05 9.298669e-06 1.613250e-04)
1.17243       	(-1.384436e-02 3.148098e-04 2.398498e+03)	(-1.386710e-02 3.016767e-04 2.398498e+03)	(2.274147e-05 1.313313e-05 1.570846e-04)
1.19129       	(-1.258646e-02 5.379051e-04 2.398480e+03)	(-1.257795e-02 5.214212e-04 2.398480e+03)	(-8.507364e-06 1.648392e-05 1.536427e-04)
1.21245       	(-9.678574e-03 -1.116926e-04 2.398474e+03)	(-9.638659e-03 -1.289580e-04 2.398474e+03)	(-3.991567e-05 1.726536e-05 1.547683e-04)
1.23228       	(2.837403e-02 -1.202191e-03 2.398478e+03)	(2.841464e-02 -1.215884e-03 2.398478e+03)	(-4.060951e-05 1.369272e-05 1.764795e-04)
1.25444       	(8.460289e-02 -1.457922e-03 2.398485e+03)	(8.460342e-02 -1.467466e-03 2.398485e+03)	(-5.247088e-07 9.543774e-06 2.363561e-04)
1.27609       	(1.663486e-01 8.738620e-06 2.398479e+03)	(1.662648e-01 -6.316428e-07 2.398479e+03)	(8.375883e-05 9.370263e-06 3.359330e-04)
1.29529       	(2.875720e-01 2.297319e-04 2.398479e+03)	(2.873665e-01 2.203227e-04 2.398478e+03)	(2.054905e-04 9.409233e-06 4.864580e-04)
1.31622       	(4.964208e-01 1.797897e-05 2.398477e+03)	(4.960071e-01 8.164325e-06 2.398476e+03)	(4.136256e-04 9.814641e-06 7.615109e-04)
1.32875       	(6.889005e-01 2.576826e-04 2.398457e+03)	(6.883268e-01 2.473772e-04 2.398456e+03)	(5.736402e-04 1.030541e-05 1.000752e-03)
1.34287       	(9.612323e-01 9.511364e-04 2.398432e+03)	(9.604301e-01 9.397967e-04 2.398431e+03)	(8.021769e-04 1.133972e-05 1.359513e-03)
1.35395       	(1.262221e+00 1.395580e-03 2.398406e+03)	(1.261200e+00 1.382897e-03 2.398404e+03)	(1.020350e-03 1.268301e-05 1.728185e-03)
1.36188       	(1.536142e+00 1.417661e-03 2.398380e+03)	(1.534942e+00 1.403958e-03 2.398378e+03)	(1.200455e-03 1.370309e-05 2.052253e-03)
1.36693       	(1.750738e+00 1.229264e-03 2.398358e+03)	(1.749412e+00 1.215046e-03 2.398355e+03)	(1.326663e-03 1.421754e-05 2.292207e-03)
1.36919       	(1.883159e+00 1.131895e-03 2.398338e+03)	(1.881772e+00 1.117476e-03 2.398335e+03)	(1.387407e-03 1.441877e-05 2.409189e-03)
1.37045       	(1.967701e+00 9.699194e-04 2.398323e+03)	(1.966278e+00 9.554039e-04 2.398320e+03)	(1.423428e-03 1.451548e-05 2.476105e-03)
1.37129       	(2.029254e+00 9.195885e-04 2.398311e+03)	(2.027806e+00 9.050129e-04 2.398308e+03)	(1.448481e-03 1.457559e-05 2.520952e-03)
1.37205       	(2.064071e+00 8.618435e-04 2.398309e+03)	(2.062600e+00 8.472187e-04 2.398307e+03)	(1.471120e-03 1.462481e-05 2.562480e-03)
1.37266       	(2.103043e+00 8.366385e-04 2.398303e+03)	(2.101553e+00 8.219751e-04 2.398300e+03)	(1.489820e-03 1.466343e-05 2.596222e-03)
1.37319       	(2.132796e+00 8.151833e-04 2.398299e+03)	(2.131289e+00 8.004873e-04 2.398297e+03)	(1.506274e-03 1.469594e-05 2.625892e-03)
1.37377       	(2.144682e+00 7.790976e-04 2.398303e+03)	(2.143159e+00 7.643684e-04 2.398301e+03)	(1.523463e-03 1.472921e-05 2.658580e-03)
1.37419       	(2.186387e+00 7.986435e-04 2.398293e+03)	(2.184850e+00 7.838878e-04 2.398291e+03)	(1.536812e-03 1.475572e-05 2.682461e-03)
1.37456       	(2.211937e+00 7.674789e-04 2.398290e+03)	(2.210388e+00 7.527004e-04 2.398287e+03)	(1.548593e-03 1.477856e-05 2.703267e-03)
1.37498       	(2.208982e+00 7.388484e-04 2.398296e+03)	(2.207421e+00 7.240466e-04 2.398293e+03)	(1.561479e-03 1.480175e-05 2.727739e-03)
1.37532       	(2.241264e+00 7.563320e-04 2.398289e+03)	(2.239692e+00 7.415109e-04 2.398286e+03)	(1.572161e-03 1.482114e-05 2.747070e-03)
1.37544       	(2.453856e+00 8.138253e-04 2.398220e+03)	(2.452279e+00 7.989955e-04 2.398217e+03)	(1.577498e-03 1.482979e-05 2.752846e-03)
1.37558       	(2.388130e+00 7.460103e-04 2.398246e+03)	(2.386547e+00 7.311717e-04 2.398243e+03)	(1.583151e-03 1.483858e-05 2.760335e-03)
1.37575       	(2.339922e+00 7.218757e-04 2.398264e+03)	(2.338333e+00 7.070279e-04 2.398261e+03)	(1.589282e-03 1.484783e-05 2.769787e-03)
1.37595       	(2.306103e+00 7.148144e-04 2.398278e+03)	(2.304507e+00 6.999568e-04 2.398275e+03)	(1.596065e-03 1.485760e-05 2.781532e-03)
1.3762        	(2.284253e+00 6.982312e-04 2.398287e+03)	(2.282650e+00 6.833629e-04 2.398284e+03)	(1.603696e-03 1.486835e-05 2.795990e-03)
1.37649       	(2.273042e+00 6.640792e-04 2.398294e+03)	(2.271430e+00 6.491993e-04 2.398291e+03)	(1.612411e-03 1.487981e-05 2.813682e-03)
1.37684       	(2.270700e+00 6.546543e-04 2.398298e+03)	(2.269078e+00 6.397611e-04 2.398295e+03)	(1.622485e-03 1.489314e-05 2.835241e-03)
1.37726       	(2.277126e+00 6.447490e-04 2.398301e+03)	(2.275492e+00 6.298406e-04 2.398298e+03)	(1.634260e-03 1.490841e-05 2.861444e-03)
1.37777       	(2.291155e+00 6.169338e-04 2.398302e+03)	(2.289507e+00 6.020086e-04 2.398299e+03)	(1.648151e-03 1.492523e-05 2.893218e-03)
1.37838       	(2.314470e+00 5.775861e-04 2.398301e+03)	(2.312806e+00 5.626429e-04 2.398298e+03)	(1.664686e-03 1.494322e-05 2.931735e-03)
1.37911       	(2.348047e+00 5.599752e-04 2.398300e+03)	(2.346362e+00 5.450120e-04 2.398297e+03)	(1.684524e-03 1.496323e-05 2.978434e-03)
1.37998       	(2.394449e+00 5.516337e-04 2.398296e+03)	(2.392740e+00 5.366472e-04 2.398293e+03)	(1.708514e-03 1.498651e-05 3.035143e-03)
1.38103       	(2.456620e+00 5.265957e-04 2.398291e+03)	(2.454882e+00 5.115861e-04 2.398288e+03)	(1.737750e-03 1.500960e-05 3.104201e-03)
1.38229       	(2.535533e+00 4.954103e-04 2.398284e+03)	(2.533760e+00 4.803789e-04 2.398281e+03)	(1.773599e-03 1.503144e-05 3.188500e-03)
1.3838        	(2.637911e+00 4.510816e-04 2.398276e+03)	(2.636093e+00 4.360287e-04 2.398272e+03)	(1.817867e-03 1.505283e-05 3.291853e-03)
1.38562       	(2.770216e+00 4.018832e-04 2.398264e+03)	(2.768343e+00 3.868164e-04 2.398261e+03)	(1.872955e-03 1.506679e-05 3.419297e-03)
1.38779       	(2.936344e+00 3.293991e-04 2.398249e+03)	(2.934402e+00 3.143362e-04 2.398246e+03)	(1.941577e-03 1.506288e-05 3.576507e-03)
1.39035       	(3.142738e+00 1.990742e-04 2.398231e+03)	(3.140712e+00 1.840639e-04 2.398227e+03)	(2.026307e-03 1.501022e-05 3.768570e-03)
1.39334       	(3.397225e+00 2.133210e-05 2.398207e+03)	(3.395094e+00 6.474300e-06 2.398203e+03)	(2.130383e-03 1.485780e-05 4.001693e-03)
1.39684       	(3.711974e+00 -1.718522e-04 2.398178e+03)	(3.709716e+00 -1.864117e-04 2.398174e+03)	(2.258044e-03 1.455947e-05 4.283465e-03)
1.40087       	(4.104170e+00 -2.641878e-04 2.398141e+03)	(4.101756e+00 -2.783521e-04 2.398137e+03)	(2.413975e-03 1.416437e-05 4.620830e-03)
1.40551       	(4.593288e+00 -3.266235e-04 2.398093e+03)	(4.590684e+00 -3.402980e-04 2.398088e+03)	(2.604257e-03 1.367452e-05 5.021737e-03)
1.41083       	(5.200274e+00 -3.031507e-04 2.398030e+03)	(5.197439e+00 -3.163710e-04 2.398024e+03)	(2.835270e-03 1.322029e-05 5.492079e-03)
1.41687       	(5.947033e+00 -2.845405e-04 2.397944e+03)	(5.943919e+00 -2.973703e-04 2.397938e+03)	(3.113915e-03 1.282979e-05 6.031613e-03)
1.4237        	(6.849534e+00 -3.287834e-04 2.397826e+03)	(6.846086e+00 -3.413114e-04 2.397819e+03)	(3.447264e-03 1.252792e-05 6.632777e-03)
1.43134       	(7.904238e+00 -4.292153e-04 2.397659e+03)	(7.900397e+00 -4.417300e-04 2.397652e+03)	(3.840448e-03 1.251473e-05 7.276708e-03)
1.43918       	(9.008469e+00 -5.455542e-04 2.397453e+03)	(9.004214e+00 -5.583315e-04 2.397445e+03)	(4.254794e-03 1.277727e-05 7.913731e-03)
1.44665       	(1.001765e+01 -5.191234e-04 2.397236e+03)	(1.001301e+01 -5.322154e-04 2.397227e+03)	(4.635700e-03 1.309197e-05 8.501364e-03)
1.45334       	(1.083813e+01 -6.154333e-04 2.397044e+03)	(1.083319e+01 -6.287333e-04 2.397035e+03)	(4.940024e-03 1.329992e-05 9.014894e-03)
1.45938       	(1.146480e+01 -9.124840e-04 2.396887e+03)	(1.145964e+01 -9.257817e-04 2.396878e+03)	(5.159423e-03 1.329766e-05 9.452658e-03)
1.46487       	(1.193606e+01 -9.855085e-04 2.396772e+03)	(1.193076e+01 -9.987878e-04 2.396762e+03)	(5.294733e-03 1.327935e-05 9.822740e-03)
1.46991       	(1.230122e+01 -1.221343e-03 2.396690e+03)	(1.229587e+01 -1.234362e-03 2.396680e+03)	(5.354550e-03 1.301882e-05 1.013769e-02)
1.47457       	(1.259585e+01 -1.308272e-03 2.396631e+03)	(1.259050e+01 -1.320951e-03 2.396621e+03)	(5.349661e-03 1.267898e-05 1.040790e-02)
1.47888       	(1.283918e+01 -1.314196e-03 2.396590e+03)	(1.283388e+01 -1.326510e-03 2.396579e+03)	(5.294477e-03 1.231363e-05 1.063843e-02)
1.48291       	(1.304521e+01 -1.138310e-03 2.396550e+03)	(1.304001e+01 -1.150261e-03 2.396539e+03)	(5.200821e-03 1.195166e-05 1.083066e-02)
1.4867        	(1.322088e+01 -8.034487e-04 2.396495e+03)	(1.321580e+01 -8.151006e-04 2.396484e+03)	(5.076873e-03 1.165188e-05 1.098526e-02)
1.49029       	(1.336409e+01 -6.781411e-04 2.396430e+03)	(1.335916e+01 -6.894668e-04 2.396419e+03)	(4.926889e-03 1.132564e-05 1.110422e-02)
1.49373       	(1.347150e+01 -6.696206e-04 2.396350e+03)	(1.346675e+01 -6.805682e-04 2.396339e+03)	(4.752900e-03 1.094765e-05 1.118981e-02)
1.49704       	(1.353514e+01 -1.120723e-03 2.396253e+03)	(1.353058e+01 -1.131070e-03 2.396241e+03)	(4.555493e-03 1.034697e-05 1.124397e-02)
1.50025       	(1.354917e+01 -1.879137e-03 2.396149e+03)	(1.354483e+01 -1.888555e-03 2.396138e+03)	(4.334821e-03 9.418655e-06 1.127033e-02)
1.50336       	(1.351907e+01 -2.308035e-03 2.396040e+03)	(1.351498e+01 -2.316360e-03 2.396029e+03)	(4.091403e-03 8.324439e-06 1.127399e-02)
1.50639       	(1.344880e+01 -2.920282e-03 2.395917e+03)	(1.344497e+01 -2.927346e-03 2.395906e+03)	(3.826477e-03 7.063294e-06 1.125853e-02)
1.50936       	(1.334924e+01 -3.150059e-03 2.395782e+03)	(1.334569e+01 -3.155770e-03 2.395771e+03)	(3.542527e-03 5.711434e-06 1.122782e-02)
1.51227       	(1.321320e+01 -3.682515e-03 2.395623e+03)	(1.320995e+01 -3.686691e-03 2.395612e+03)	(3.240607e-03 4.176543e-06 1.118441e-02)
1.51514       	(1.304090e+01 -3.787382e-03 2.395431e+03)	(1.303798e+01 -3.789929e-03 2.395420e+03)	(2.921593e-03 2.546157e-06 1.113077e-02)
1.51796       	(1.282850e+01 -4.632891e-03 2.395224e+03)	(1.282591e+01 -4.633540e-03 2.395213e+03)	(2.586431e-03 6.489292e-07 1.106911e-02)
1.52074       	(1.257840e+01 -4.742653e-03 2.395004e+03)	(1.257617e+01 -4.741336e-03 2.394993e+03)	(2.236464e-03 -1.316495e-06 1.100122e-02)
1.52349       	(1.231144e+01 -5.257686e-03 2.394789e+03)	(1.230956e+01 -5.254268e-03 2.394778e+03)	(1.874771e-03 -3.418182e-06 1.092974e-02)