# omega  POINT_DATA 52106
# x  y  z  omega
0.015557 -1.35525e-20 5.70113e-08 1597.2
-0.015557 1.35525e-20 5.70113e-08 1597.35
-0.015557 -6.77626e-21 0.000135948 1592.59
0.015557 0 0.000135964 1592.47
-0.015557 6.77626e-21 0.000527058 1977.39
0.015557 6.77626e-21 0.000527125 1977.39
-0.015557 1.35525e-20 0.000659558 2219.68
0.015557 -1.35525e-20 0.000659639 2219.75
-0.0155569 0 0.000798557 2449.4
0.015557 0 0.000798637 2449.59
-0.0155569 6.77626e-21 0.00121614 3070.97
0.0155569 0 0.00121623 3071.35
-0.0155569 -6.77626e-21 0.00135476 3221.64
0.0155569 0 0.00135485 3222
-0.0156159 6.77626e-21 6.65977e-05 1608.7
0.0156159 -6.77626e-21 6.66114e-05 1608.55
0.015617 -6.77626e-21 5.8671e-08 1608.36
-0.015617 0 5.86705e-08 1608.52
-0.0156133 0 0.000593966 2123.98
0.0156133 6.77626e-21 0.00059404 2123.98
0.0156101 0 0.000721026 2356.8
-0.0156101 6.77626e-21 0.000720945 2356.7
-0.0155569 -6.77626e-21 0.00150199 3342.36
0.0155569 0 0.00150206 3342.88
-0.0156099 -6.77626e-21 0.00127797 3185.73
0.0156099 6.77626e-21 0.00127806 3186.07
0.0156067 -6.77626e-21 0.00140498 3322.35
-0.0156067 0 0.00140489 3321.93
-0.0156758 -6.77626e-21 6.25738e-08 1527.25
0.0156758 6.77626e-21 6.25741e-08 1527.01
-0.0155569 1.35525e-20 0.00193255 2632.77
0.0155569 0 0.00193257 2633.5
-0.0156643 -2.71051e-20 0.000653593 2047.24
0.0156643 1.35525e-20 0.000653701 2048.78
0.015557 -6.77626e-21 0.002087 2021.71
-0.015557 6.77626e-21 0.002087 2021.12
0.0156581 2.03288e-20 0.00132521 2916.73
-0.0156581 0 0.00132509 2913.53
0.0156109 0 0.00197556 2366.9
-0.0156109 0 0.00197554 2366.22
-0.01562 0 0.00210848 1781.44
0.01562 -6.77626e-21 0.00210848 1782.03
0.0156426 0 0.00205604 1892.26
-0.0156426 0 0.00205603 1891.63
0.0156707 0 0.00197912 1952.79
-0.0156707 -6.77626e-21 0.00197907 1950.13
-0.0156949 0 0.00213398 1855.88
0.0156949 0 0.00213398 1856.52
0.015885 6.77626e-21 7.41484e-08 1598.19
-0.015885 6.77626e-21 7.41473e-08 1598.55
-0.01589 0 0.00034758 1569.09
0.01589 -2.25875e-21 0.000347688 1569.78
-0.0158834 2.71051e-21 0.000956113 2636.53
0.0158834 -4.51751e-22 0.000956328 2639.85
0.0158471 2.25875e-21 0.00154379 3307.76
-0.0158471 2.25875e-21 0.00154362 3302.71
-0.0158414 2.82344e-21 0.00196386 1786.65
0.0158414 -1.12938e-21 0.00196392 1787.46
-0.015839 0 0.00218308 1343.29
0.015839 -1.35525e-20 0.00218308 1344.09
-0.0159079 -4.06576e-20 0.00220656 1410.48
0.0159079 0 0.00220656 1411.18
-0.0160357 0 0.00166133 1689.35
0.0160357 1.12938e-21 0.00166159 1698.84
-0.0161335 0 1.64555e-05 1144.83
0.0161337 -4.23516e-22 1.6266e-05 1143.84
-0.0161343 -4.23516e-22 5.30999e-08 1144
0.0161345 0 5.30909e-08 1143.02
-0.0159895 -4.06576e-20 0.00223438 1085.14
0.0159896 0 0.00223438 1086.04
-0.0161453 0 5.24551e-08 1114.72
0.0161479 0 3.0392e-06 1114.07
-0.0161363 -2.25875e-21 0.000658258 1119.86
0.0161363 0 0.00065863 1125.16
-0.016108 0 0.00123662 1269.97
0.0161079 -2.25875e-21 0.00123704 1280.89
-0.0162278 -1.8823e-21 0.00195621 950.488
0.0162278 1.12938e-21 0.00195641 952.175
0.0161979 6.77626e-21 0.00230534 1287.45
-0.0161979 0 0.00230537 1286.09
-0.0162561 6.77626e-21 0.00232518 1312.72
0.0162561 6.77626e-21 0.00232518 1314.18
-0.016267 0 0.00230119 1307.33
0.016267 0 0.00230117 1308.8
-0.0162975 1.35525e-20 0.00227122 1229.15
0.0162975 -6.77626e-21 0.00227118 1230.69
-0.0162994 1.35525e-20 0.00233991 1379.46
0.0162994 6.77626e-21 0.00233992 1380.98
0.0164713 1.35525e-20 0.000318776 823.151
-0.0164713 0 0.00031848 824.043
0.0164838 9.03502e-21 0.000934132 516.78
-0.0164839 -4.51751e-21 0.000933459 514.87
-0.0165151 2.71051e-20 8.91788e-08 849.363
0.0165151 0 8.91806e-08 848.025
0.0164768 9.03502e-21 0.00151147 544.536
-0.0164769 0 0.00151089 541.54
0.0166394 0 9.23357e-08 895.124
-0.0166394 0 9.23334e-08 896.493
-0.0165053 0 0.00241002 1712.3
0.0165054 1.35525e-20 0.00241002 1714.14
0.0167038 2.71051e-20 0.000635416 676.997
-0.0167039 0 0.000634646 676.479
0.0165943 5.64689e-22 0.00217414 1543.83
-0.0165943 1.12938e-21 0.00217395 1541.45
0.0167298 0 0.00122679 480.845
-0.0167299 0 0.00122589 479.02
0.0166885 0 0.00181391 787.634
-0.0166886 -2.71051e-20 0.00181341 785.274
-0.0166608 -1.35525e-20 0.00246303 1984.4
0.016661 0 0.00246306 1986.51
0.0168423 -1.35525e-20 7.0937e-08 873.555
-0.0168423 1.35525e-20 7.09338e-08 875.334
0.0169749 -2.25875e-21 0.000303039 829.358
-0.016975 4.51751e-21 0.000302648 831.092
-0.0168731 1.12938e-21 0.0022093 1590.65
0.0168731 1.12938e-21 0.00220951 1593.64
0.016996 -4.51751e-21 0.000918683 265.754
-0.0169961 0 0.000917792 263.208
0.0168625 -2.03288e-20 0.00253161 2593.51
-0.0168625 0 0.00253162 2591.65
0.0169886 -4.51751e-21 0.00152442 264.4
-0.0169887 4.51751e-21 0.00152371 260.567
0.0170875 0 2.4605e-08 846.505
-0.0170875 0 2.46021e-08 848.621
0.0169822 4.51751e-21 0.00199465 615.27
-0.0169822 4.51751e-21 0.00199427 611.357
-0.0169516 -9.03502e-21 0.00241979 2449.29
0.0169517 9.03502e-21 0.00241989 2451.32
-0.0169616 -1.35525e-20 0.00256534 2614.21
0.0169617 -2.03288e-20 0.00256538 2615.91
0.0172725 2.71051e-20 0.000609814 525.693
-0.0172727 0 0.000608963 525.856
0.017301 2.71051e-20 3.86873e-09 856.631
-0.0173011 2.71051e-20 3.86453e-09 858.631
0.0172756 0 0.0012186 224.248
-0.0172758 5.42101e-20 0.00121766 222.854
0.0172503 0 0.00183262 451.019
-0.0172504 2.71051e-20 0.00183214 446.805
-0.0171625 0 0.00263367 1879.94
0.0171625 0 0.00263369 1881.36
-0.0172627 -3.38813e-21 0.00228337 1390.7
0.0172628 -5.64689e-22 0.00228356 1395.71
0.0175152 -1.35525e-20 3.90438e-09 845.866
-0.0175152 0 3.90115e-09 847.702
0.0176166 -6.77626e-21 0.000304265 805.094
-0.0176168 4.51751e-21 0.000303958 806.51
0.0176138 1.12938e-21 0.000914505 198.238
-0.0176139 0 0.000913847 196.583
0.0175986 1.12938e-21 0.00154662 151.972
-0.0175987 1.12938e-21 0.0015461 151.2
0.0174824 0 0.00274279 1914.44
-0.0174824 -1.01644e-20 0.0027428 1913.71
-0.0174954 -1.69407e-21 0.00274721 1908.23
0.0174955 3.72694e-20 0.00274726 1908.86
0.0177275 -1.35525e-20 5.30347e-09 845.378
-0.0177276 4.06576e-20 5.30237e-09 846.86
-0.0176266 -1.807e-20 0.00211798 456.967
0.0176266 2.25875e-21 0.00211823 470.452
-0.0175733 2.25875e-21 0.00255362 1792.44
0.0175734 -4.51751e-21 0.0025537 1793.44
0.0179395 0 5.36713e-09 865.354
-0.0179395 0 5.36695e-09 866.503
0.0179446 -2.71051e-20 0.000602236 515.318
-0.0179448 -2.71051e-20 0.000601852 515.308
0.0179404 2.71051e-20 0.00122938 135.924
-0.0179405 0 0.00122893 134.701
-0.0179 -2.71051e-20 0.00190852 339.402
0.0179 -2.71051e-20 0.00190875 343.153
-0.0177928 0 0.00284873 1476.76
0.0177928 2.71051e-20 0.00284875 1477.17
-0.0179476 2.71051e-20 0.0024258 1018.52
0.0179477 2.71051e-20 0.00242589 1021.85
0.0181451 0 4.40341e-09 876.758
-0.0181451 0 4.40324e-09 877.66
-0.0180159 4.06576e-20 0.00292502 1300.08
0.018016 0 0.00292506 1300.25
0.0182715 -2.25875e-21 0.000300999 822.606
-0.0182716 -4.51751e-21 0.000300875 823.154
0.0182775 0 0.000913342 209.725
-0.0182775 -6.77626e-21 0.00091307 208.915
-0.0182702 -4.51751e-21 0.00156202 122.247
0.0182702 2.25875e-21 0.00156224 124.678
-0.0182366 -1.12938e-20 0.00214879 325.218
0.0182366 4.51751e-21 0.00214891 327.217
0.0181444 -6.77626e-21 0.00296949 1344.33
-0.0181446 -6.77626e-21 0.00296953 1344.25
-0.0181872 -6.77626e-22 0.00270867 1268.45
0.0181872 6.77626e-22 0.00270873 1268.91
0.0183921 1.35525e-20 2.43155e-09 890.516
-0.0183922 1.35525e-20 2.43148e-09 891.106
-0.0185886 0 1.46532e-09 909.314
0.0185886 0 1.46539e-09 908.887
-0.0183446 -1.35525e-20 0.00303802 1510.09
0.0183446 0 0.00303804 1510.27
0.0185996 -2.71051e-20 0.000595038 533.857
-0.0185997 0 0.000594918 533.515
-0.0186737 1.16165e-20 0.00129278 101.816
0.0186737 1.16165e-20 0.00129291 103.264
-0.0187703 -1.35525e-20 1.23409e-09 918.866
0.0187703 1.35525e-20 1.23413e-09 918.57
0.0185175 2.03288e-20 0.00309812 1580.12
-0.0185175 6.77626e-21 0.00309812 1579.98
-0.0187148 -4.51751e-21 0.00187601 130.215
0.0187148 4.51751e-21 0.00187608 133.405
-0.0186674 7.52918e-21 0.00253515 828.491
0.0186674 -3.01167e-21 0.00253519 830.951
0.018823 -1.35525e-20 0.000903657 216.217
-0.018823 4.51751e-21 0.00090356 215.388
0.0188705 -4.51751e-21 0.0002483 880.056
-0.0188706 2.25875e-21 0.000248266 880.172
-0.0186437 0 0.002939 1595.4
0.0186438 0 0.00293906 1595.56
-0.0189391 2.71051e-20 0.00154412 71.9793
0.0189391 2.71051e-20 0.00154419 73.4355
0.0187701 -9.74088e-21 0.00318665 1897.45
-0.0187699 -8.47033e-22 0.00318654 1897.46
0.0188367 -1.35525e-20 0.00285269 1440.51
-0.0188367 -1.35525e-20 0.00285269 1439.15
0.0190684 0 6.42265e-10 946.899
-0.0190684 1.35525e-20 6.42229e-10 947.019
-0.018947 0 0.00220299 146.855
0.018947 0 0.00220303 151.637
-0.0189611 -6.77626e-21 0.00294132 1579.59
0.0189611 -6.77626e-21 0.00294137 1580.92
-0.0192376 0 4.16948e-10 986.118
0.0192376 -2.71051e-20 4.16969e-10 986.039
0.0192505 -2.25875e-21 0.000578858 571.291
-0.0192506 1.12938e-20 0.000578833 571.112
-0.0192654 -6.77626e-21 0.00120337 111.253
0.0192654 -4.51751e-21 0.0012034 111.984
-0.0192728 4.51751e-21 0.00186871 95.688
0.0192728 1.12938e-20 0.00186874 98.1072
-0.0190865 0 0.00329541 2296.26
0.0190867 2.71051e-20 0.00329547 2296.15
-0.0193938 0 3.58644e-10 997.979
0.0193938 -2.71051e-20 3.58662e-10 997.924
0.0193936 -2.71051e-20 0.000130553 997.088
-0.0193936 1.35525e-20 0.000130545 997.143
-0.0191339 1.35525e-20 0.00323263 2257.39
0.019134 0 0.00323272 2257.32
-0.0192591 4.51751e-21 0.00254519 511.91
0.0192591 2.25875e-21 0.00254522 515.427
-0.0192048 0 0.003336 1959.66
0.0192049 1.35525e-20 0.00333604 1959.79
-0.0193217 4.51751e-22 0.00298746 1432.17
0.0193218 -9.03502e-22 0.0029875 1434.22
0.0195688 0 0.000280898 1015.85
-0.0195688 2.71051e-20 0.00028089 1015.86
0.0195891 -2.71051e-20 0.000871761 158.347
-0.0195891 5.42101e-20 0.000871755 158.225
-0.019374 0 0.0032822 1880.55
0.019374 -1.35525e-20 0.00328227 1880.69
-0.0196057 -2.71051e-20 0.00151348 63.1158
0.0196057 0 0.0015135 63.6099
-0.0193742 -2.71051e-20 0.00339404 1831.56
0.0193743 0 0.00339406 1831.71
-0.0196063 2.71051e-20 0.0021914 96.4475
0.0196063 2.71051e-20 0.00219141 99.4154
0.0197445 0 1.1881e-10 1055.18
-0.0197445 0 1.1881e-10 1055.17
0.0197496 1.35525e-20 0.000118775 1055.31
-0.0197497 2.71051e-20 0.000118767 1055.29
-0.0196349 0 0.00277709 335.162
0.019635 0 0.00277712 340.066
-0.0195953 1.35525e-20 0.00324376 2117.9
0.0195954 0 0.0032438 2117.94
-0.0198869 1.35525e-20 6.23641e-11 1114.13
0.0198869 1.35525e-20 6.23597e-11 1114.18
0.0199025 0 0.000551642 639.629
-0.0199025 6.77626e-21 0.00055164 639.044
-0.0196372 -2.71051e-20 0.00348423 1743.1
0.0196374 0 0.0034843 1743.12
-0.0199263 7.90564e-21 0.00116493 114.458
0.0199263 -2.25875e-21 0.00116493 115.641
-0.0197065 0 0.0033997 1767.2
0.0197066 1.35525e-20 0.00339978 1767.2
-0.0200175 0 0.000104927 1126.9
0.0200175 -1.35525e-20 0.000104918 1126.97
-0.020018 0 5.47768e-11 1127.65
0.0200181 0 5.47745e-11 1127.72
-0.0199354 0 0.00184109 71.8863
0.0199355 -5.64689e-21 0.0018411 73.0365
-0.0199397 0 0.00250609 185.212
0.0199397 -1.12938e-21 0.0025061 189.271
-0.0198048 -1.35525e-20 0.00354162 1705.1
0.0198049 2.71051e-20 0.00354168 1705.12
-0.0199176 0 0.00307583 1075.99
0.0199177 2.25875e-21 0.00307587 1079
-0.0202108 0 0.000262551 1165.22
0.0202108 2.71051e-20 0.000262544 1165.33
-0.0202372 2.71051e-20 0.000828952 174.812
0.0202372 0 0.00082895 177.121
-0.0199793 1.35525e-20 0.00344741 1460.89
0.0199793 -1.35525e-20 0.00344747 1460.92
-0.0199876 -6.77626e-21 0.00360417 1259.27
0.0199877 1.35525e-20 0.00360422 1259.35
-0.0202612 -2.71051e-20 0.00146953 58.6863
0.0202612 0 0.00146953 60.5065
-0.0202614 -2.71051e-20 0.00216708 68.2456
0.0202614 2.71051e-20 0.0021671 67.4831
-0.020424 0 1.48382e-11 1269.02
0.0204241 0 1.48336e-11 1269.13
-0.0204263 -1.35525e-20 8.83618e-05 1269.35
0.0204264 0 8.83583e-05 1269.46
-0.0201258 -2.71051e-20 0.00365147 1142.98
0.020126 2.03288e-20 0.00365154 1143.01
-0.0202574 -2.71051e-20 0.00283409 220.421
0.0202575 5.42101e-20 0.00283411 229.128
-0.02023 -1.35525e-20 0.00346726 1260.87
0.0202301 -8.13152e-21 0.00346732 1260.88
-0.0205366 0 8.07587e-12 1362.61
0.0205367 -1.35525e-20 8.0725e-12 1362.72
-0.0205431 -1.12938e-21 0.000507235 782.513
0.0205431 1.12938e-21 0.000507233 786.004
-0.0205806 1.12938e-21 0.00109806 130.217
0.0205806 -1.12938e-21 0.00109806 134.487
-0.0206332 0 7.2332e-05 1399.34
0.0206332 0 7.23425e-05 1399.46
-0.0206362 0 7.47893e-12 1394.39
0.0206362 1.35525e-20 7.47568e-12 1394.51
-0.0203258 -1.35525e-20 0.00371988 1410.72
0.020326 2.71051e-20 0.00371994 1410.73
-0.0205919 -2.25875e-21 0.00179229 59.6146
0.0205919 -3.38813e-21 0.00179229 60.886
-0.0205776 1.12938e-21 0.00251302 123.656
0.0205777 0 0.00251303 126.514
-0.0204396 1.35525e-20 0.00376155 1491.07
0.0204398 0 0.00376163 1491.04
-0.0204726 -1.35525e-20 0.00364922 1487.34
0.0204728 4.06576e-20 0.00364928 1487.31
-0.0205732 -1.50584e-21 0.00324396 888.623
0.0205733 -2.25875e-21 0.003244 890.668
-0.0208433 -2.71051e-20 0.000231572 1504.37
0.0208434 2.71051e-20 0.000231569 1504.5
-0.0208763 -2.71051e-20 0.000747796 226.217
0.0208763 0 0.000747794 237.386
-0.0209307 2.71051e-20 0.00137566 60.266
0.0209307 2.71051e-20 0.00137566 63.0365
-0.0206256 0 0.00382199 1770.13
0.0206258 6.77626e-21 0.00382207 1770.22
-0.0209018 2.71051e-20 0.00213753 51.5487
0.0209018 -2.71051e-20 0.00213753 52.9027
-0.0207137 0 0.00385276 1789.94
0.0207138 0 0.00385283 1790.06
-0.0208885 0 0.00285883 144.084
0.0208886 0 0.00285885 145.792
-0.0207601 -6.77626e-21 0.00376298 1751.36
0.0207602 0 0.00376308 1751.5
0.0211429 9.03502e-21 0.0004345 861.43
-0.0211429 3.01167e-21 0.000434502 859.341
-0.020841 -5.27043e-21 0.00362679 1573.83
0.0208411 2.25875e-21 0.00362684 1574.07
-0.0208387 -6.77626e-21 0.00389825 1915.83
0.0208388 1.35525e-20 0.0038983 1915.92
-0.0212597 0 5.25669e-13 1178.13
0.0212601 -1.05879e-20 5.19801e-13 1178.12
-0.0212767 2.5411e-21 1.41099e-05 1164.34
-0.0212768 0 1.74179e-06 1176.16
0.0212769 -8.47033e-21 1.38726e-05 1164.57
0.0212813 0 1.45875e-06 1176.18
0.0212895 0 2.69474e-13 1174.53
-0.0212896 0 2.7104e-13 1174.48
-0.0212723 -5.64689e-22 0.000878984 294.646
0.0212724 -2.25875e-21 0.000878975 296.218
-0.0212427 -1.12938e-22 0.00171816 62.8345
0.0212427 9.03502e-22 0.00171814 65.0877
-0.0212146 1.12938e-21 0.00249693 83.2629
0.0212146 -1.12938e-21 0.00249694 84.2444
-0.0210353 0 0.00398139 2212.5
0.0210355 0 0.00398146 2212.76
-0.021178 2.25875e-21 0.00323686 562.947
0.0211781 0 0.00323687 565.262
-0.0210737 1.35525e-20 0.00393726 2176.78
0.0210738 0 0.00393731 2177.02
-0.0211186 1.35525e-20 0.00402021 1960.35
0.0211188 0 0.0040203 1960.43
-0.0212476 8.06698e-23 0.00368161 1434.64
0.0212478 -4.03349e-22 0.00368166 1436.81
-0.0215747 0 0.00130736 66.6358
0.0215747 2.71051e-20 0.00130737 70.3269
-0.0212486 1.35525e-20 0.00397488 1818.5
0.0212488 0 0.00397493 1818.47
-0.0212527 1.35525e-20 0.00408538 1714.54
0.021253 -6.77626e-21 0.00408549 1714.42
-0.0216407 7.52918e-22 0.00033173 790.2
0.0216408 7.52918e-22 0.000331723 789.815
-0.0215441 -2.71051e-20 0.00209926 42.16
0.0215442 2.71051e-20 0.00209926 43.3324
-0.0215225 2.71051e-20 0.00284518 91.2997
0.0215225 0 0.0028452 91.0662
-0.0217961 0 7.94919e-14 916.222
0.0217961 1.35525e-20 7.91737e-14 916.151
-0.0215506 -2.71051e-20 0.00347094 338.224
0.0215507 0 0.00347097 346.128
-0.0214959 0 0.00395189 2117.92
0.0214961 1.35525e-20 0.00395193 2117.81
-0.0214983 6.77626e-21 0.00420475 1678.59
0.0214984 6.77626e-21 0.00420479 1678.4
-0.0218606 -1.41172e-22 0.00170493 53.6333
0.0218606 8.9409e-22 0.0017049 56.7539
-0.0219212 -3.38813e-21 0.000827127 308.218
0.0219212 4.51751e-22 0.00082711 306.576
-0.0219609 1.35525e-20 4.02034e-14 946.209
0.021961 -1.35525e-20 4.01314e-14 946.142
-0.0218494 -1.12938e-21 0.00247003 57.4869
0.0218494 -5.64689e-22 0.00247004 58.0244
-0.0216145 1.35525e-20 0.00413981 1777.22
0.0216145 1.35525e-20 0.00413983 1777.08
-0.0216502 1.35525e-20 0.00427857 1859.72
0.0216503 0 0.00427863 1859.6
-0.0218421 -1.69407e-21 0.00317495 177.125
0.0218422 -3.38813e-21 0.00317496 183.206
-0.0217324 0 0.00431835 1878.82
0.0217325 0 0.00431843 1878.73
-0.0217583 -1.35525e-20 0.00423555 1902.83
0.0217584 1.35525e-20 0.0042356 1902.76
-0.0221733 0 2.81576e-14 854.664
0.0221735 -6.77626e-21 2.80965e-14 854.473
-0.021866 7.05861e-23 0.00385234 1218.19
0.0218668 0 0.00385247 1225.24
-0.0222021 -2.71051e-20 0.00129532 69.0108
0.0222022 -2.71051e-20 0.00129532 73.4874
0.0222506 -7.05861e-23 0.000330091 746.858
-0.0222517 -3.5293e-23 0.000328747 747.226
-0.0221694 5.42101e-20 0.00208071 36.1351
0.0221694 0 0.00208072 39.6857
-0.0218631 -1.35525e-20 0.00438174 2058.88
0.0218633 1.35525e-20 0.00438183 2058.83
0.0223211 0 1.21342e-14 851.119
-0.0223212 6.77626e-21 1.21355e-14 851.312
-0.0221597 -5.42101e-20 0.00282094 59.3145
0.0221598 0 0.00282094 57.1682
-0.0221457 -2.71051e-20 0.00350913 198.918
0.0221457 2.71051e-20 0.00350915 216.916
-0.0220148 -2.03288e-20 0.00445531 2029.71
0.0220149 6.77626e-21 0.00445537 2029.6
-0.0225415 0 1.22277e-15 948.002
0.0225416 0 1.23378e-15 947.902
-0.0221394 0 0.00425961 1892.17
0.0221395 1.12938e-21 0.00425967 1892.95
-0.0224964 -2.96462e-20 0.00168456 51.2292
0.0224964 -4.23516e-22 0.0016846 55.7037
-0.0225021 0 0.00168479 51.1009
0.0225021 0 0.00168483 55.52
0.0225129 0 0.00168799 55.5479
-0.022513 0 0.00168798 51.1204
-0.022576 5.42101e-21 0.000874276 296.985
0.0225761 4.51751e-21 0.000874269 296.852
-0.0225135 -1.6134e-22 0.00242345 47.3844
0.0225136 8.87368e-22 0.00242345 48.1442
-0.0224593 -1.12938e-21 0.00318123 106.323
0.0224593 0 0.00318124 110.059
-0.0223019 -3.38813e-21 0.00459436 1876.19
0.022302 -3.38813e-21 0.00459437 1876.13
-0.0224349 -9.03502e-22 0.00390505 717.958
0.022435 6.77626e-21 0.00390508 727.851
-0.0228059 -1.27055e-20 8.70915e-16 763.354
0.0228061 4.23516e-22 8.77264e-16 763.147
-0.022811 -8.47033e-22 2.46647e-05 756.027
0.0228111 0 2.39222e-05 756.042
-0.0223412 0 0.00461337 1888.33
0.0223413 3.38813e-21 0.00461342 1888.28
0.0228141 4.23516e-22 8.58194e-16 763.734
-0.0228142 2.5411e-20 8.51408e-16 763.957
-0.0228118 -5.64689e-22 0.000334117 692.614
0.0228118 5.64689e-22 0.000334137 692.473
-0.022347 0 0.00460685 1877.76
0.0223471 0 0.00460689 1877.69
-0.0223545 0 0.00461977 1841.59
0.0223546 0 0.00461984 1841.45
-0.0223623 -3.38813e-21 0.00458505 1797.19
0.0223624 1.69407e-21 0.00458505 1797.87
-0.0223809 0 0.0046121 1824.55
0.022381 0 0.00461216 1824.39
-0.0223957 -1.69407e-21 0.00463972 1808.05
0.0223958 0 0.00463983 1807.85
-0.0225314 1.35525e-20 0.00433167 1283.75
0.0225315 0 0.00433171 1288.74
-0.0227767 -2.71051e-20 0.00282452 44.5595
0.0227767 0 0.00282454 44.2185
-0.0229169 2.71051e-20 0.00145351 57.0174
0.022917 0 0.00145354 64.1509
-0.0229127 2.71051e-20 0.001952 38.5662
0.0229127 0 0.001952 40.0369
-0.0227583 0 0.00352775 116.752
0.0227583 -2.71051e-20 0.00352777 115.826
-0.0226788 1.35525e-20 0.00436549 1112.88
0.0226789 -6.77626e-21 0.00436553 1119.62
-0.0231146 0 6.24631e-16 875.559
0.0231146 0 6.26477e-16 875.632
-0.0231263 5.64689e-22 0.000857356 321.477
0.0231264 1.12938e-21 0.000857382 326.174
-0.0231204 0 0.00168686 49.2898
0.0231204 0 0.00168687 53.49
-0.0226912 0 0.00478277 1560.61
0.0226912 1.35525e-20 0.00478283 1560.53
-0.0231332 4.23516e-22 0.00244156 37.8431
0.0231332 -8.47033e-22 0.00244157 38.8585
-0.0227888 -1.35525e-20 0.00466799 1511.66
0.0227889 -1.35525e-20 0.00466803 1511.58
-0.0230834 -1.12938e-21 0.00317456 67.3622
0.0230835 1.12938e-21 0.00317458 67.0902
-0.023319 0 3.10972e-16 671.109
0.0233191 6.77626e-21 3.12101e-16 671.306
-0.0230283 9.03502e-21 0.00391292 364.398
0.0230284 0 0.00391294 371.205
-0.02333 2.71051e-20 0.00142276 63.6025
0.02333 0 0.00142278 66.8384
-0.0233168 0 0.00194192 36.2652
0.0233168 2.71051e-20 0.00194194 39.8299
-0.0228965 -2.71051e-20 0.0048822 1381.67
0.0228966 0 0.00488226 1381.6
-0.0234102 2.25875e-21 0.000267243 648.301
0.0234102 -4.51751e-21 0.000267244 648.514
-0.0229986 7.52918e-22 0.0043906 938.082
0.0229987 -3.76459e-21 0.00439064 945.758
0.0235162 1.35525e-20 1.75957e-16 633.799
-0.0235162 6.77626e-21 1.74954e-16 633.551
-0.0234234 2.71051e-20 0.00278585 34.0902
0.0234234 0 0.00278586 33.6781
-0.0230651 1.35525e-20 0.00496382 1090.71
0.0230652 -2.71051e-20 0.00496388 1090.67
-0.0233787 2.71051e-20 0.00352562 71.0781
0.0233787 -2.71051e-20 0.00352564 71.5356
-0.0237161 1.35525e-20 -1.12817e-16 687.988
0.0237161 1.35525e-20 -1.126e-16 688.285
-0.0232668 -3.61401e-21 0.00471662 979.41
0.0232669 -1.35525e-21 0.00471667 980.28
-0.0233857 2.71051e-20 0.00417634 231.454
0.0233857 -2.71051e-20 0.00417637 240.198
-0.0232203 -6.77626e-21 0.00503892 1023.48
0.0232204 -1.35525e-20 0.00503899 1023.46
-0.0237642 -2.82344e-21 0.000871716 328.327
0.0237642 2.82344e-22 0.000871732 333.113
-0.0237897 -2.71051e-20 9.69712e-05 560.403
0.0237897 1.35525e-20 9.70283e-05 560.605
-0.0237941 1.35525e-20 4.97248e-16 561.455
0.0237942 -1.35525e-20 5.01214e-16 561.656
-0.0237454 -2.82344e-22 0.00168598 47.6157
0.0237454 -1.83524e-21 0.00168599 52.1692
-0.0238504 1.35525e-20 -3.63004e-16 536.815
0.0238505 0 -3.63597e-16 536.981
-0.0237771 1.35525e-21 0.00232532 35.3716
0.0237772 4.06576e-21 0.00232532 37.3761
-0.023345 2.71051e-20 0.00509928 1144.36
0.0233451 1.35525e-20 0.00509935 1144.35
-0.0237118 -5.64689e-21 0.00315193 45.4355
0.0237118 -3.38813e-21 0.00315194 45.2749
-0.0239754 0 0.000105727 476.033
0.0239757 0 0.000105814 476.158
-0.0240029 1.35525e-20 2.3863e-16 471.691
-0.0236913 7.90564e-21 0.0038564 123.196
0.0236913 -2.25875e-21 0.00385642 126.646
0.0240032 -1.35525e-20 2.38694e-16 471.811
-0.0235265 -2.03288e-20 0.00518714 1207.51
0.0235266 -1.35525e-20 0.0051872 1207.55
-0.0237117 0 0.00456148 712.665
0.0237118 9.03502e-21 0.00456152 718.134
-0.0235865 6.77626e-21 0.00521624 1255.91
0.0235867 -6.77626e-21 0.00521631 1255.94
-0.0236569 -1.6263e-20 0.00499193 1233.45
0.023657 -5.42101e-21 0.00499199 1233.45
-0.0240359 -2.71051e-20 0.0027785 28.9987
0.024036 0 0.00277852 29.8053
-0.0240146 -2.71051e-20 0.00349448 46.943
0.0240147 2.71051e-20 0.0034945 45.4539
-0.0237108 6.77626e-21 0.00516871 1344.8
0.023711 0 0.00516878 1344.77
-0.0237215 0 0.00528159 1449.44
0.0237217 0 0.00528165 1449.35
-0.0238516 -3.38813e-21 0.00489348 1099.1
0.0238517 3.38813e-21 0.00489352 1103.17
-0.0239976 -5.42101e-20 0.00419241 129.52
0.0239977 -2.71051e-20 0.00419244 134.961
-0.0238168 0 0.00514856 1302.83
0.0238169 -6.77626e-21 0.00514863 1305.04
-0.0238281 6.77626e-21 0.00525503 1523.61
0.0238283 6.77626e-21 0.00525509 1523.44
-0.0238429 1.35525e-20 0.00534032 1618.2
0.023843 -6.77626e-21 0.00534036 1617.94
-0.0243893 0 0.00171905 41.2508
0.0243893 -5.42101e-20 0.00171905 47.1486
-0.0239789 -2.71051e-20 0.00489875 878.361
0.023979 0 0.00489881 887.313
-0.0243696 -1.41172e-22 0.00243113 30.6599
0.0243706 -1.41172e-22 0.00243196 32.1152
-0.0244866 5.42101e-20 0.00051268 306.378
0.0244867 -5.42101e-20 0.000512684 306.56
-0.0243442 0 0.00312516 33.9275
0.0243442 -3.38813e-21 0.00312517 33.2703
-0.0239577 3.38813e-20 0.00539588 1720.55
0.0239578 -2.71051e-20 0.00539595 1720.25
-0.0240298 2.71051e-21 0.00521691 1594.75
0.02403 -1.0842e-20 0.00521698 1594.51
-0.0243197 0 0.00383765 72.0178
0.0243198 -1.12938e-21 0.00383767 73.9067
-0.0242836 -9.03502e-21 0.00455364 394.345
0.0242836 -6.77626e-21 0.00455368 402.739
-0.0241601 1.35525e-20 0.00549389 1509.38
0.0241602 0 0.00549396 1509.27
-0.0242635 3.01167e-21 0.00502115 987.751
0.0242637 3.01167e-21 0.00502121 994.604
-0.0246819 0 0.00275432 25.845
0.0246819 -2.71051e-20 0.00275433 25.4067
-0.0246457 2.71051e-20 0.00346491 33.8154
0.0246458 0 0.00346492 32.2982
-0.0243131 0 0.00556792 1204.66
0.0243132 -1.35525e-20 0.00556799 1204.57
-0.0249638 1.35525e-20 3.14502e-16 292.819
0.0249638 1.35525e-20 3.14469e-16 293.054
-0.0249658 1.35525e-20 0.000127061 291.515
0.0249658 4.06576e-20 0.000127084 291.752
-0.0246319 2.71051e-20 0.00416571 73.4857
0.0246319 -2.71051e-20 0.00416574 78.3586
-0.0250669 -6.77626e-21 0.00111391 166.173
0.025067 -6.77626e-21 0.00111391 168.054
-0.0245277 0 0.00533379 1032.73
0.0245278 -4.51751e-22 0.00533385 1033.63
-0.0246411 0 0.00480622 242.605
0.0246412 0 0.00480627 256.977
-0.0251264 0 -5.57162e-18 309.035
0.0251265 2.71051e-20 -5.54308e-18 309.299
-0.0244892 6.77626e-21 0.00565317 1095.27
0.0244893 0 0.00565322 1095.21
-0.0250457 2.25875e-21 0.00228488 31.3761
0.0250457 0 0.00228489 33.207
-0.0249744 -1.41172e-21 0.00307726 28.2066
0.0249744 1.12938e-21 0.00307727 28.0433
-0.0245965 1.35525e-20 0.00570515 1205.25
0.0245966 -2.71051e-20 0.00570519 1205.23
-0.0252751 -2.71051e-20 0.000134701 276.87
-0.0249934 0 0.00376622 47.6051
0.0252752 0 0.000134716 277.141
0.0249934 8.47033e-22 0.00376624 48.9225
-0.0252845 1.35525e-20 -2.40066e-18 276.807
0.0252846 0 -2.39523e-18 277.079
-0.0249434 -1.12938e-21 0.00449176 129.059
0.0249434 -3.38813e-21 0.00449179 136.901
-0.0247822 3.38813e-21 0.00579502 1269.5
0.0247823 -1.35525e-20 0.00579507 1269.53
-0.0249665 3.01167e-21 0.00518177 744.655
0.0249666 -1.50584e-21 0.00518182 752.549
-0.0248296 -6.77626e-21 0.00581795 1311.55
0.0248297 -3.38813e-21 0.00581801 1311.6
-0.0249104 -5.42101e-21 0.00560274 1294.07
0.0249105 -8.13152e-21 0.00560279 1294.11
-0.0254015 0 0.00285469 22.5686
0.0254015 5.42101e-20 0.0028547 24.4314
-0.0252645 0 0.00414474 49.8052
0.0252645 -2.71051e-20 0.00414475 51.8187
-0.0254031 -5.42101e-20 0.00331055 26.294
0.0254031 2.71051e-20 0.00331056 26.1663
-0.0249624 0 0.00577193 1415.25
0.0249625 -6.77626e-21 0.00577202 1415.29
-0.0249739 0 0.00588778 1535.67
0.024974 0 0.00588783 1535.66
-0.0252501 0 0.00482067 135.449
0.0252501 -2.71051e-20 0.00482071 144.659
-0.0257173 0 0.000556257 259.215
0.0257173 0 0.000556256 259.55
-0.0250723 6.77626e-21 0.00575396 1370.18
0.0250724 1.35525e-20 0.00575407 1373.14
-0.0256699 -5.42101e-20 0.00175088 41.4333
0.0256699 5.42101e-20 0.00175088 42.6313
-0.0256382 -8.47033e-22 0.0024157 28.4445
0.0256382 -1.97641e-21 0.00241571 29.6773
-0.0250837 6.77626e-21 0.00586274 1620.56
0.0250838 1.35525e-20 0.00586281 1620.5
-0.0256079 0 0.00307876 23.4756
0.0256079 0 0.00307876 24.4691
-0.025098 6.77626e-21 0.00594767 1727.52
0.025098 0 0.0059477 1727.36
-0.0251925 2.25875e-21 0.00555311 1156.42
0.0251926 1.12938e-20 0.00555317 1162.24
-0.0252316 -2.71051e-20 0.00551486 912.141
0.0252317 0 0.00551494 923.292
-0.0255924 -1.50584e-21 0.0037929 35.259
0.0255924 4.51751e-21 0.00379291 37.527
-0.0252102 -2.71051e-20 0.00600189 1837.54
0.0252104 -6.77626e-21 0.00600198 1837.45
-0.0252817 8.13152e-21 0.00582896 1695.76
0.0252819 8.13152e-21 0.00582905 1695.72
-0.0255735 -1.12938e-21 0.00447397 75.5682
0.0255735 0 0.00447399 81.6861
-0.0258318 -2.71051e-20 0.0028448 21.595
0.0258318 -5.42101e-20 0.0028448 22.3889
-0.0257993 0 0.00329834 22.4943
0.0257993 2.71051e-20 0.00329835 23.9265
-0.0255336 4.51751e-21 0.0051788 411.634
0.0255337 -2.25875e-21 0.00517885 422.331
-0.025412 4.06576e-20 0.00609921 1584.69
0.0254122 1.35525e-20 0.00609928 1584.66
-0.0255488 2.25875e-21 0.00563576 1018.68
0.0255489 6.77626e-21 0.00563582 1026.7
0.0262229 0 -2.45033e-18 253.684
-0.0262229 1.35525e-20 -2.47165e-18 253.285
0.0262242 0 0.000110099 253.511
-0.0262242 1.35525e-20 0.000110093 253.111
-0.025914 -2.71051e-20 0.00409942 33.0862
0.025914 -2.71051e-20 0.00409944 37.6117
-0.0255675 0 0.00617785 1254.67
0.0255677 0 0.00617797 1254.46
-0.025876 -2.71051e-20 0.00480446 78.6848
0.025876 0 0.00480449 87.2111
0.0263176 6.77626e-21 0.00114406 147.094
-0.0263176 0 0.00114406 147.868
-0.0263544 -1.35525e-20 1.26633e-19 252.718
0.0263544 -1.35525e-20 1.28683e-19 253.133
-0.0263095 -1.12938e-21 0.00235736 30.6813
0.0263095 0 0.00235737 30.4416
-0.0262443 0 0.00306374 21.3187
0.0262457 0 0.00306373 22.7384
-0.0262456 0 0.00305714 21.4081
0.0262456 6.67038e-21 0.00305717 22.8108
0.0262459 2.11758e-22 0.00308325 22.9759
-0.0262459 0 0.00308332 21.4919
-0.0258908 -2.71051e-20 0.00543286 254.979
0.0258909 0 0.00543291 269.915
-0.0257782 -4.51751e-22 0.00595398 1084.82
0.0257783 -1.35525e-21 0.00595406 1085.81
-0.0264724 -1.35525e-20 0.000113035 247.369
0.0264724 -1.35525e-20 0.000113038 247.804
-0.0264809 -1.35525e-20 1.33508e-19 247.33
0.0264809 0 1.34472e-19 247.765
-0.0257322 0 0.00626847 1114.4
0.0257323 0 0.00626852 1114.31
-0.0262544 -4.70574e-22 0.00364382 27.6376
0.0262544 8.47033e-22 0.00364383 30.9738
-0.0262049 -2.25875e-21 0.00444578 47.2187
0.026205 3.38813e-21 0.0044458 53.6849
-0.0258428 -1.35525e-20 0.00632526 1211.94
0.025843 -1.35525e-20 0.00632535 1211.91
-0.0261907 3.38813e-21 0.00512142 134.939
0.0261908 -3.38813e-21 0.00512145 145.309
-0.0260126 1.69407e-21 0.00644125 1237.63
0.0260127 5.0822e-21 0.00644133 1237.61
-0.0260426 -1.69407e-21 0.00646012 1248.76
0.0260428 3.38813e-21 0.00646024 1248.77
-0.0265279 2.71051e-20 0.00408779 26.4348
0.026528 0 0.0040878 30.9106
-0.0262146 5.27043e-21 0.00581641 759.837
0.0262147 -2.25875e-21 0.00581648 766.205
-0.0261568 -2.1684e-20 0.00624565 1277.71
0.026157 8.13152e-21 0.00624574 1277.7
-0.0265114 2.71051e-20 0.0047731 49.624
0.0265114 2.71051e-20 0.00477312 57.8367
0.0269562 0 0.000576391 241.33
-0.0269562 1.0842e-19 0.000576396 240.828
-0.0261882 0 0.00642613 1313.29
0.0261883 -6.77626e-21 0.00642626 1313.31
0.0269247 0 0.00175757 37.5864
-0.0269247 0 0.00175757 42.8429
-0.0261875 0 0.00655335 1367.9
0.0261876 0 0.00655342 1367.91
-0.0264989 0 0.00545186 140.113
0.026499 0 0.0054519 149.002
-0.0268811 -1.0842e-19 0.00306205 19.0444
0.0268811 -1.0842e-19 0.00306205 21.1571
-0.02635 3.38813e-21 0.00616024 1094.71
0.0263501 0 0.00616028 1097.87
-0.0262995 6.77626e-21 0.00641282 1245.87
0.0262996 -1.35525e-20 0.00641295 1247.34
-0.0263015 6.77626e-21 0.00652542 1406.68
0.0263016 1.35525e-20 0.00652551 1406.7
-0.0268577 0 0.00373171 22.6751
0.0268577 3.95282e-22 0.00373171 27.4739
-0.0263055 -3.38813e-21 0.00663191 1463.83
0.0263056 6.77626e-21 0.00663195 1463.86
-0.0264848 0 0.00617549 916.153
0.0264849 0 0.00617557 921.503
-0.0268382 0 0.0044189 32.6336
0.0268382 0 0.00441892 39.8789
-0.0263807 1.35525e-20 0.00668199 1519.89
0.0263808 -2.03288e-20 0.00668208 1520
-0.0265072 0 0.00650855 1479.44