# p  POINT_DATA 27788
# x  y  z  p
4.23516e-22 -0.0130568 4.20108e-06 0.00974266
0 0.0130568 4.20422e-06 -0.00392356
0 0.0130538 6.6649e-06 -0.00392356
-4.23516e-22 -0.0130538 6.66028e-06 0.00974266
1.69407e-21 -0.0130538 0.000644839 0.00974293
0 0.0130538 0.000645282 -0.00392379
0 -0.0130538 0.000659278 0.0097429
-8.47033e-22 0.0130538 0.000659736 -0.00392375
0 -0.0130538 0.000674531 0.00974292
-8.47033e-22 0.0130538 0.000674994 -0.00392377
0 -0.0130603 0.000649722 0.00974294
0 0.0130603 0.000650171 -0.00392379
0 -0.0130603 0.000668856 0.00974293
0 0.0130603 0.000669319 -0.00392378
-5.92923e-21 -0.0130709 0.000658157 0.00974298
1.60936e-20 0.0130709 0.000658618 -0.00392379
0 -0.0130538 0.00133809 0.00974319
1.69407e-21 0.0130538 0.00133857 -0.00392396
0 -0.0130538 0.00135468 0.00974318
0 0.0130538 0.00135516 -0.00392394
0 -0.0130538 0.00137216 0.00974319
0 0.0130538 0.00137263 -0.00392395
-1.69407e-21 -0.0130609 0.00134164 0.00974321
1.69407e-21 0.0130609 0.00134212 -0.00392398
-1.69407e-21 -0.0130605 0.00136331 0.00974321
0 0.0130605 0.00136378 -0.00392397
5.0822e-21 -0.0130744 0.00134748 0.00974328
1.69407e-21 0.0130744 0.00134796 -0.00392403
0 -0.0130556 0.00208219 0.00974352
0 0.0130577 0.00208858 -0.00392402
-4.23516e-22 -0.0130676 0.00208095 0.00974361
3.81165e-21 0.0130676 0.00208095 -0.00392409
-6.77626e-21 -0.0133442 8.05862e-08 0.0097432
0 0.0133442 8.05859e-08 -0.00392361
-3.38813e-21 -0.0133452 0.000326479 0.00974333
-5.64689e-21 0.0133452 0.000326736 -0.00392354
-2.25875e-21 -0.0133372 0.000959829 0.00974419
-5.64689e-21 0.0133372 0.000960365 -0.00392479
-4.51751e-21 -0.0132973 0.00155417 0.00974409
0 0.0132973 0.00155454 -0.0039247
3.04932e-20 0.0132406 0.00216284 -0.00392537
0 -0.0132406 0.00216285 0.00974514
6.77626e-21 -0.0132805 0.00206428 0.00974542
-3.38813e-21 0.0132805 0.00206425 -0.00392562
-2.71051e-20 0.0133174 0.00219404 -0.00392504
0 -0.0133175 0.00219406 0.00974478
-4.51751e-21 -0.0133831 0.00186918 0.00974559
0 0.0133831 0.00186936 -0.0039258
1.35525e-20 -0.0135632 9.24961e-08 0.00974616
-2.71051e-20 0.0135632 9.24953e-08 -0.00392592
-6.77626e-21 -0.0134965 0.00146605 0.0097448
6.77626e-21 0.0134965 0.00146649 -0.00392541
0 -0.0136117 8.70388e-05 0.00974687
6.77626e-21 0.0136117 8.71003e-05 -0.00392534
6.77626e-21 -0.0136152 8.46271e-08 0.00974688
0 0.0136152 8.46271e-08 -0.00392544
1.35525e-20 -0.0136416 8.0639e-08 0.0097467
0 0.0136416 8.06395e-08 -0.00392653
6.77626e-22 -0.0136355 0.000678728 0.00974664
2.48463e-21 0.0136355 0.000679269 -0.00392653
-1.35525e-20 0.0134811 0.00226049 -0.00392572
0 -0.0134812 0.00226053 0.00974556
2.82344e-21 -0.0136197 0.00118987 0.00974635
1.12938e-21 0.0136197 0.00119045 -0.00392656
-7.52918e-22 -0.0136061 0.00162976 0.00974645
-4.51751e-21 0.0136061 0.00163011 -0.00392655
1.35525e-20 0.0137235 7.39497e-08 -0.0039271
1.35525e-20 -0.0137235 7.39483e-08 0.00974717
6.77626e-21 0.0137252 9.16823e-05 -0.00392711
-6.77626e-21 -0.0137253 9.16246e-05 0.00974718
0 -0.0137103 0.00202484 0.00974674
-3.38813e-22 0.0137102 0.00202496 -0.00392673
-6.77626e-21 0.0136752 0.0023393 -0.00392663
6.77626e-21 -0.0136753 0.00233933 0.00974656
-6.77626e-21 0.0137679 0.00237692 -0.00392708
1.35525e-20 -0.013768 0.00237696 0.00974708
-1.35525e-20 -0.0139849 0.000399002 0.00974861
0 0.0139849 0.000399313 -0.00392907
-9.03502e-21 -0.013986 0.000912946 0.00974795
9.03502e-21 0.013986 0.000913447 -0.003928
-1.35525e-20 -0.0139545 0.00150378 0.00974768
-4.51751e-21 0.0139546 0.00150416 -0.00392771
1.35525e-20 -0.0140935 0.000126371 0.00974951
-1.35525e-20 0.0140935 0.000126457 -0.00392923
0 -0.0141015 1.51513e-08 0.00974957
0 0.0141015 1.51514e-08 -0.00392928
2.5411e-21 -0.0139607 0.00245511 0.00975018
0 0.0139609 0.00245518 -0.00392957
-2.71051e-20 -0.0141702 0.000612039 0.00974957
-2.71051e-20 0.0141702 0.000612472 -0.0039292
2.71051e-20 0.0139759 0.00246127 -0.00392972
1.69407e-20 -0.013976 0.00246129 0.00975037
9.31736e-21 0.0139805 0.00244911 -0.00392976
5.92923e-21 -0.0139806 0.00244893 0.00975042
-2.71051e-20 -0.0141582 0.00121268 0.00974912
0 0.0141582 0.00121315 -0.00392879
1.35525e-20 -0.0142137 6.98307e-09 0.00975023
0 0.0142137 6.98407e-09 -0.00392981
2.71051e-20 -0.0141062 0.00185461 0.00974883
0 0.0141062 0.00185482 -0.00392847
0 0.0140936 0.00222224 -0.00392972
-4.51751e-21 -0.0140936 0.00222217 0.00975034
-1.35525e-20 0.0143442 6.46477e-09 -0.00393039
0 -0.0143442 6.46386e-09 0.00975089
1.35525e-20 0.0141438 0.00239267 -0.00392954
-6.77626e-21 -0.0141439 0.00239256 0.00975004
0 0.014345 0.000135164 -0.00393038
-1.35525e-20 -0.014345 0.00013509 0.00975088
-1.35525e-20 0.0141782 0.00254345 -0.00392873
-1.35525e-20 -0.0141783 0.00254345 0.00974899
-2.43945e-20 0.0144148 0.000393235 -0.0039305
-2.71051e-21 -0.0144148 0.000392975 0.009751
0 0.014293 0.00252719 -0.00392917
6.77626e-21 -0.0142931 0.00252719 0.00974947
-2.03288e-20 0.0142857 0.00258696 -0.00392911
0 -0.0142858 0.00258699 0.00974941
-2.25875e-21 -0.0145008 0.000915389 0.00975115
4.51751e-21 0.0145008 0.000915765 -0.00393044
1.69407e-21 0.0143708 0.00229756 -0.00392946
0 -0.0143708 0.00229749 0.00974979
-2.25875e-21 -0.0144715 0.00154752 0.00975083
0 0.0144715 0.0015478 -0.00393017
1.35525e-20 -0.0144657 0.00205596 0.00975006
-4.51751e-21 0.0144657 0.00205609 -0.00392969
0 0.0146705 0.00015054 -0.00393172
1.35525e-20 -0.0146705 0.000150448 0.00975252
-1.35525e-20 0.01468 6.30535e-09 -0.00393176
1.35525e-20 -0.01468 6.30475e-09 0.00975258
-2.71051e-20 -0.0144708 0.00266175 0.00975019
1.35525e-20 0.0144708 0.00266174 -0.00392979
2.71051e-21 0.0145057 0.00250599 -0.00392963
-2.71051e-21 -0.0145058 0.00250596 0.00974996
0 0.0148233 5.71582e-09 -0.0039324
0 -0.0148234 5.71538e-09 0.00975335
6.77626e-21 -0.0148745 0.000558342 0.00975338
-4.51751e-21 0.0148745 0.000558581 -0.00393232
0 -0.0147686 0.00191048 0.00975211
0 0.0147686 0.00191064 -0.00393131
0 0.0146404 0.00273044 -0.00393029
0 -0.0146404 0.00273047 0.00975094
-2.12968e-20 -0.0148827 0.00116851 0.00975324
5.80823e-21 0.0148827 0.00116882 -0.00393213
1.35525e-20 0.0149747 4.96127e-09 -0.00393308
2.71051e-20 -0.0149747 4.9609e-09 0.0097543
1.35525e-20 0.0149752 0.000142336 -0.00393308
-1.35525e-20 -0.0149752 0.000142287 0.0097543
-2.25875e-21 -0.0148161 0.00236406 0.0097519
4.51751e-21 0.0148161 0.00236412 -0.00393124
-9.03502e-21 -0.0150223 0.00156473 0.00975358
0 0.0150222 0.00156494 -0.00393244
-2.71051e-20 0.0151424 0.000304981 -0.0039338
0 -0.0151424 0.000304874 0.00975531
-1.35525e-20 0.0148918 0.00283394 -0.00393066
-1.35525e-20 -0.0148918 0.00283398 0.00975127
2.71051e-20 -0.0151422 0.000920422 0.00975455
0 0.0151422 0.000920657 -0.00393311
8.13152e-21 0.0150419 0.00210501 -0.00393249
-1.0842e-20 -0.0150419 0.00210492 0.00975346
-4.51751e-21 -0.015053 0.00270398 0.00975217
0 0.015053 0.00270402 -0.0039315
0 -0.0150244 0.00288816 0.00975183
-2.71051e-20 0.0150245 0.0028882 -0.00393122
1.35525e-20 0.0153086 2.24203e-09 -0.00393455
1.35525e-20 -0.0153086 2.24182e-09 0.00975619
0 0.0153121 0.000140875 -0.00393456
-1.35525e-20 -0.0153122 0.000140824 0.00975621
0 -0.0154577 1.48782e-09 0.00975691
-1.35525e-20 0.0154577 1.48795e-09 -0.00393516
4.51751e-21 -0.0154655 0.000604019 0.00975661
2.25875e-21 0.0154655 0.000604165 -0.00393486
-1.12938e-20 -0.0154631 0.00123933 0.00975603
-6.77626e-21 0.0154631 0.0012395 -0.00393444
0 -0.0152755 0.00299148 0.00975369
2.71051e-20 0.0152755 0.0029915 -0.00393301
2.25875e-21 -0.015469 0.0018808 0.00975564
2.25875e-21 0.015469 0.00188091 -0.00393436
0 -0.0156043 1.3028e-09 0.00975776
-1.35525e-20 0.0156043 1.30289e-09 -0.0039358
-2.71051e-20 -0.0156046 0.000132299 0.00975776
1.35525e-20 0.0156046 0.000132329 -0.0039358
0 0.0153937 0.00303998 -0.00393417
2.71051e-20 -0.0153938 0.00303999 0.00975456
1.35525e-20 0.0154261 0.0029384 -0.00393421
-1.35525e-20 -0.0154261 0.00293835 0.00975465
2.25875e-21 -0.0155039 0.00256159 0.00975487
-7.52918e-22 0.0155039 0.00256162 -0.0039341
0 0.0157872 0.000299952 -0.00393662
0 -0.0157872 0.000299901 0.00975873
-2.71051e-20 -0.0157971 0.000915013 0.00975794
0 0.0157971 0.000915131 -0.00393597
0 -0.0157989 0.00156074 0.0097575
-2.71051e-20 0.0157989 0.00156083 -0.00393585
6.77626e-21 0.0156182 0.00313283 -0.00393425
-6.77626e-21 -0.0156183 0.00313287 0.00975451
-2.71051e-20 -0.015809 0.0022127 0.00975694
0 0.015809 0.00221276 -0.00393576
0 0.0159653 5.84461e-10 -0.00393752
-1.35525e-20 -0.0159653 5.84404e-10 0.0097596
-1.35525e-20 0.0159712 0.000124971 -0.00393755
-1.35525e-20 -0.0159712 0.000124945 0.00975963
0 -0.0156925 0.00316351 0.00975437
6.77626e-21 0.0156925 0.00316352 -0.0039342
0 -0.01572 0.00310334 0.00975439
-6.77626e-21 0.0157201 0.00310327 -0.00393421
-1.20467e-20 -0.0157996 0.00293416 0.00975442
0 0.0157996 0.00293419 -0.0039342
-6.77626e-21 -0.015781 0.00319986 0.00975532
-2.03288e-20 0.0157812 0.00319994 -0.00393504
0 -0.0161034 4.04832e-10 0.00976012
0 0.0161034 4.0486e-10 -0.00393817
-9.03502e-21 -0.016119 0.000594184 0.00975991
-6.77626e-21 0.016119 0.000594247 -0.00393785
-4.51751e-21 -0.0161299 0.00122524 0.00975936
0 0.0161299 0.00122532 -0.00393737
0 -0.0162343 3.59803e-10 0.00976077
-1.35525e-20 0.0162343 3.59826e-10 -0.00393889
-1.35525e-20 -0.0162345 0.00011328 0.00976078
0 0.0162345 0.000113292 -0.00393889
0 -0.0161352 0.00188661 0.00975885
4.51751e-21 0.0161352 0.00188666 -0.00393726
2.25875e-21 -0.0161278 0.00255594 0.00975799
6.77626e-21 0.0161278 0.00255599 -0.00393701
1.35525e-20 -0.0159975 0.00328828 0.00975668
0 0.0159976 0.00328832 -0.00393625
0 -0.0160352 0.00323057 0.00975691
4.06576e-20 0.0160353 0.00323064 -0.00393644
0 -0.0160906 0.00332631 0.00975712
1.35525e-20 0.0160907 0.00332633 -0.00393657
-2.71051e-20 -0.0164377 0.00029234 0.00976178
-2.71051e-20 0.0164377 0.000292357 -0.00393991
-2.71051e-20 -0.0164552 0.000897699 0.00976122
0 0.0164552 0.000897745 -0.00393895
-1.35525e-21 -0.0162066 0.0029897 0.00975785
2.25875e-21 0.0162067 0.00298974 -0.00393721
-2.71051e-20 -0.0164658 0.00154123 0.00976081
0 0.0164658 0.00154127 -0.00393872
1.35525e-20 0.0162526 0.00328164 -0.00393742
0 -0.0162527 0.0032816 0.00975802
0 0.0162526 0.00339239 -0.00393734
1.35525e-20 -0.0162526 0.00339241 0.0097579
0 -0.0164656 0.00220947 0.00976016
0 0.0164656 0.00220951 -0.00393872
0 0.0166389 1.04271e-10 -0.00394072
0 -0.0166389 1.04267e-10 0.00976306
0 0.0166447 0.000100575 -0.00394074
-1.35525e-20 -0.0166447 0.000100568 0.0097631
-2.71051e-20 -0.0165065 0.00278869 0.00975939
-2.71051e-20 0.0165065 0.00278872 -0.00393852
0 -0.0167551 6.1842e-11 0.00976373
1.35525e-20 0.0167551 6.18409e-11 -0.00394106
-2.25875e-21 -0.0167741 0.000577096 0.00976345
4.51751e-21 0.0167741 0.000577118 -0.00394081
2.71051e-20 -0.0164727 0.00325225 0.00975917
2.71051e-20 0.0164728 0.00325227 -0.00393848
1.12938e-21 -0.0167927 0.00119999 0.00976273
1.12938e-21 0.0167928 0.00120002 -0.00394041
0 -0.0164932 0.00349062 0.00975904
1.35525e-20 0.0164934 0.00349067 -0.0039384
-1.35525e-20 -0.0168627 5.6253e-11 0.00976468
-1.35525e-20 0.0168627 5.62518e-11 -0.00394147
0 -0.0168631 9.00351e-05 0.00976468
-1.35525e-20 0.0168631 9.00377e-05 -0.00394147
-1.12938e-21 -0.0167971 0.00186718 0.00976214
3.38813e-21 0.0167971 0.0018672 -0.0039403
0 -0.0165645 0.00339838 0.00975951
0 0.0165646 0.00339847 -0.0039388
2.25875e-21 -0.0168038 0.00251859 0.00976141
-1.12938e-21 0.0168039 0.00251861 -0.00394011
-2.71051e-20 -0.0166657 0.003561 0.00975982
0 0.0166658 0.00356102 -0.00393917
0 -0.0167839 0.00309024 0.00976081
-6.77626e-21 0.016784 0.00309026 -0.00393987
5.42101e-20 0.0170872 0.000280478 -0.00394238
2.71051e-20 -0.0170872 0.000280474 0.00976609
0 -0.0171093 0.000869706 0.0097647
0 0.0171094 0.000869716 -0.00394199
0 -0.0171238 0.0015109 0.00976411
2.71051e-20 0.0171238 0.00151092 -0.00394192
-6.77626e-21 0.0168547 0.00363794 -0.00394007
2.03288e-20 -0.0168548 0.00363795 0.00976086
2.71051e-20 -0.0171215 0.00218644 0.00976346
-2.71051e-20 0.0171216 0.00218645 -0.0039418
0 -0.0173128 1.50028e-11 0.00976668
-1.35525e-20 0.0173128 1.50016e-11 -0.00394358
1.35525e-20 0.017316 7.61098e-05 -0.00394359
0 -0.017316 7.61078e-05 0.00976669
4.51751e-21 -0.0169937 0.00347014 0.00976168
0 0.0169937 0.00347019 -0.00394082
-2.03288e-20 -0.0169518 0.00367748 0.0097613
2.03288e-20 0.0169519 0.00367752 -0.00394054
-5.42101e-20 -0.0171192 0.00284365 0.00976263
2.71051e-20 0.0171192 0.00284368 -0.00394139
0 0.0174041 1.00273e-11 -0.0039436
0 -0.0174041 1.00286e-11 0.00976648
-1.12938e-21 -0.0174225 0.000552281 0.00976646
0 0.0174225 0.000552286 -0.00394384
1.12938e-21 -0.0174464 0.00116236 0.00976588
0 0.0174464 0.00116237 -0.00394334
0 -0.0174883 9.27754e-12 0.00976706
1.35525e-20 0.0174883 9.27624e-12 -0.00394441
0 -0.0174886 6.91534e-05 0.00976706
1.35525e-20 0.0174886 6.91578e-05 -0.00394441
1.12938e-21 -0.0174523 0.00183361 0.00976533
-1.12938e-21 0.0174523 0.00183363 -0.00394302
4.06576e-20 0.0171554 0.00376035 -0.00394154
1.35525e-20 -0.0171554 0.00376034 0.00976196
2.25875e-21 -0.0174395 0.00252755 0.00976461
2.25875e-21 0.0174395 0.00252757 -0.00394304
0 -0.0172701 0.00381183 0.00976334
0 0.0172701 0.00381183 -0.00394334
1.35525e-20 0.0173096 0.0036891 -0.00394336
-1.35525e-20 -0.0173096 0.00368906 0.00976354
1.50584e-21 -0.0174174 0.00327288 0.00976372
4.89397e-21 0.0174174 0.00327291 -0.00394297
2.71051e-20 -0.0177262 0.000264489 0.00976769
2.71051e-20 0.0177262 0.000264491 -0.00394567
0 -0.0177529 0.000830839 0.0097674
2.71051e-20 0.0177529 0.000830843 -0.00394533
0 -0.0177737 0.00146633 0.00976718
0 0.0177737 0.00146634 -0.00394404
-2.03288e-20 0.0174674 0.00388876 -0.00394326
-1.35525e-20 -0.0174675 0.00388877 0.00976316
-2.71051e-20 -0.0177694 0.00215825 0.0097665
0 0.0177694 0.00215826 -0.00394422
-6.77626e-21 -0.0175188 0.00391124 0.00976312
0 0.017519 0.0039113 -0.00394321
-3.38813e-21 -0.0175509 0.00385321 0.00976321
-3.38813e-21 0.0175511 0.00385308 -0.0039432
-5.42101e-20 -0.0177413 0.00287705 0.00976579
2.71051e-20 0.0177414 0.00287708 -0.00394469
-6.77626e-21 0.0179809 1.39465e-12 -0.00394768
-6.77626e-21 -0.0179809 1.39504e-12 0.00976958
1.35525e-20 0.017982 5.25092e-05 -0.00394768
6.77626e-21 -0.017982 5.25067e-05 0.00976958
0 -0.0175787 0.00394073 0.00976366
-1.35525e-20 0.017579 0.0039409 -0.00394389
-4.51751e-21 -0.01766 0.00367697 0.00976342
3.01167e-21 0.01766 0.00367702 -0.00394309
-6.77626e-21 -0.0180462 7.99821e-13 0.00976959
6.77626e-21 0.0180462 7.99456e-13 -0.00394795
-2.25875e-21 -0.0180586 0.000513285 0.0097693
-3.38813e-21 0.0180586 0.000513288 -0.00394767
6.77626e-21 -0.0181035 4.49129e-05 0.00977062
0 0.0181035 4.49204e-05 -0.00394977
0 -0.0181053 7.64927e-13 0.00977061
0 0.0181054 7.64553e-13 -0.00394972
-2.25875e-22 0.0181062 0.00109872 -0.00394675
2.25875e-22 -0.0181062 0.00109871 0.00976893
0 -0.0181012 0.00178214 0.00976827
-1.69407e-21 0.0181012 0.00178214 -0.00394621
-1.12938e-21 -0.0180748 0.00251396 0.00976741
-1.12938e-21 0.0180748 0.00251397 -0.00394617
-1.35525e-20 -0.0177924 0.00406323 0.00976461
0 0.0177926 0.00406332 -0.00394521
0 -0.0178459 0.00400227 0.009765
0 0.017846 0.00400239 -0.00394551
-4.51751e-21 -0.0180178 0.00326611 0.00976651
-6.77626e-21 0.0180179 0.00326616 -0.00394608
0 -0.0183483 0.000235222 0.00977248
2.71051e-20 0.0183483 0.000235228 -0.00395178
0 -0.0178961 0.00412296 0.0097652
0 0.0178962 0.004123 -0.00394577
2.71051e-20 0.0183931 0.00076447 -0.00394801
0 -0.0183931 0.000764464 0.00976978
-2.25875e-22 -0.0180567 0.00374589 0.00976623
-4.51751e-22 0.0180567 0.00374594 -0.00394642
2.71051e-20 -0.0184337 0.00138079 0.00977074
0 0.0184337 0.0013808 -0.00394902
0 -0.0184036 0.00212468 0.00976863
2.71051e-20 0.0184036 0.00212468 -0.00394755
3.38813e-21 -0.0185327 3.11692e-13 0.00977109
-6.77626e-21 0.0185328 3.11508e-13 -0.00394984
0 0.0180755 0.00422628 -0.00394701
1.35525e-20 -0.0180755 0.00422633 0.009766
2.71051e-20 -0.0183781 0.00285998 0.00976867
5.42101e-20 0.0183781 0.00285999 -0.00394825
-5.64689e-22 -0.0186584 0.000460862 0.00977156
2.25875e-21 0.0186584 0.000460867 -0.00395036
1.35525e-20 -0.0181752 0.00428374 0.0097665
6.77626e-21 0.0181755 0.00428388 -0.00394767
0 -0.0182334 0.00409647 0.00976704
-4.51751e-21 0.0182335 0.00409657 -0.00394789
0 -0.0183786 0.00352144 0.00976781
-2.71051e-20 0.0183786 0.00352149 -0.00394784
3.38813e-21 -0.018738 2.24864e-13 0.00977162
0 0.018738 2.24779e-13 -0.00395022
3.38813e-21 -0.0187383 1.85704e-05 0.00977162
3.38813e-21 0.0187383 1.85635e-05 -0.00395023
-3.38813e-21 -0.0187394 0.000144213 0.00977161
-3.38813e-21 0.0187394 0.000144178 -0.00395044
-3.38813e-21 -0.0187638 5.24913e-14 0.00977163
-3.38813e-21 0.0187638 5.2518e-14 -0.00395054
3.38813e-21 0.018782 1.52393e-05 -0.00395029
0 -0.018782 1.5244e-05 0.00977132
-3.38813e-21 0.0187835 4.19052e-14 -0.00395028
3.38813e-21 -0.0187835 4.18701e-14 0.00977132
5.64689e-23 0.0187413 0.0017483 -0.00395034
5.64689e-23 -0.0187413 0.00174835 0.00977135
3.38813e-21 0.0188423 3.06821e-14 -0.00395098
0 -0.0188423 3.06421e-14 0.00977179
-4.51751e-21 0.0188305 0.000950992 -0.00395099
-2.25875e-21 -0.0188305 0.000950983 0.0097725
0 -0.0183688 0.00439528 0.00976761
0 0.0183689 0.00439535 -0.00394885
-5.64689e-22 -0.0187533 0.00244388 0.00977086
0 0.0187533 0.00244392 -0.00395041
0 -0.0186868 0.0032017 0.00976999
-2.25875e-21 0.0186868 0.00320172 -0.00395015
1.35525e-20 -0.0184806 0.00445983 0.0097692
1.35525e-20 0.0184807 0.00445985 -0.00395071
-1.35525e-20 -0.0185303 0.00433131 0.00976941
1.35525e-20 0.0185303 0.00433142 -0.00395075
-7.52918e-22 -0.0186604 0.00393307 0.00976953
2.25875e-21 0.0186604 0.0039331 -0.0039504
1.12938e-21 -0.0191244 0.000340856 0.00977424
-2.82344e-22 0.0191244 0.000340868 -0.00395351
1.35525e-20 0.0192203 9.49176e-15 -0.00395379
0 -0.0192203 9.47246e-15 0.00977425
0 0.0191645 0.00146332 -0.00395171
-2.71051e-20 -0.0191645 0.00146333 0.00977287
0 -0.0190143 0.00283766 0.00977191
0 0.0190143 0.00283768 -0.003952
-1.69407e-21 0.0186824 0.00457622 -0.0039512
1.01644e-20 -0.0186825 0.00457626 0.00976935
1.69407e-21 -0.0187038 0.00458858 0.00976938
0 0.0187039 0.00458863 -0.00395124
-2.71051e-20 0.01916 0.00195764 -0.00395332
0 -0.01916 0.00195763 0.00977343
1.69407e-21 -0.0187213 0.00456183 0.00976944
0 0.0187215 0.00456168 -0.00395124
-1.18585e-20 -0.0187278 0.00460243 0.00976959
-8.47033e-21 0.0187281 0.00460258 -0.00395152
0 -0.0189854 0.00354595 0.00977164
0 0.0189854 0.00354598 -0.00395263
0 -0.0188773 0.00434108 0.00976991
-3.01167e-21 0.0188774 0.00434115 -0.00395122
-3.59989e-21 -0.0193794 0.000836844 0.00977566
-1.69407e-21 0.0193797 0.000837393 -0.00395431
-5.73865e-20 -0.0193888 0.000856836 0.00977569
2.75286e-21 0.0193834 0.000855823 -0.00395433
-2.11758e-21 0.0194038 0.000856698 -0.0039544
-2.32934e-21 -0.0194042 0.000856742 0.00977576
-1.35525e-20 0.0194237 1.55386e-15 -0.0039545
1.35525e-20 -0.0194238 1.53919e-15 0.00977392
0 -0.0193728 0.00168997 0.00977449
0 0.0193728 0.00168998 -0.00395227
1.41172e-21 0.0193778 0.00244583 -0.00395376
2.82344e-22 -0.0193778 0.00244582 0.00977453
-1.35525e-20 -0.0189666 0.0047402 0.00977077
-1.35525e-20 0.0189667 0.00474028 -0.00395339
-1.12938e-21 -0.0193197 0.00318392 0.00977353
-2.25875e-21 0.0193197 0.00318394 -0.00395409
0 -0.0190326 0.00467124 0.00977122
1.35525e-20 0.0190327 0.00467137 -0.0039537
-2.71051e-20 0.0195819 0.00142144 -0.00395125
0 -0.0195819 0.00142144 0.00977547
0 -0.0192551 0.00392917 0.00977286
9.03502e-21 0.0192551 0.00392922 -0.00395424
6.77626e-21 -0.0196529 3.98809e-16 0.00977518
-6.77626e-21 0.019653 4.05019e-16 -0.00395688
-2.71051e-20 -0.0195685 0.0019371 0.00977469
2.71051e-20 0.0195685 0.00193711 -0.00395158
2.71051e-20 -0.0190799 0.00480555 0.0097715
-2.71051e-20 0.0190799 0.00480559 -0.00395421
0 0.0197212 0.00026999 -0.00395714
-2.25875e-21 -0.0197213 0.000269871 0.00977553
0 -0.0192753 0.0044119 0.00977263
-9.03502e-22 0.0192753 0.00441194 -0.00395468
-3.38813e-21 0.019834 4.73089e-16 -0.00395774
-3.38813e-21 -0.0198344 4.6802e-16 0.00977624
-6.77626e-21 0.0192476 0.00490233 -0.00395586
0 -0.0192477 0.00490234 0.00977218
0 -0.0196698 0.00278682 0.00977558
0 0.0196698 0.00278683 -0.00395517
-2.71051e-20 -0.0196164 0.00353233 0.00977513
0 0.0196164 0.00353236 -0.00395667
-1.35525e-20 -0.0193208 0.00494455 0.00977263
-1.35525e-20 0.019321 0.00494463 -0.00395649
4.51751e-21 -0.0194217 0.00475372 0.00977319
4.51751e-21 0.0194217 0.0047538 -0.00395653
0 0.0200351 -3.30531e-17 -0.00395827
-1.35525e-20 -0.0200351 -3.31475e-17 0.00977752
2.25875e-21 0.0200397 0.000879641 -0.00395728
-2.5411e-21 -0.0200397 0.000879689 0.00977804
0 -0.0196209 0.00418595 0.00977459
-2.71051e-20 0.019621 0.00418598 -0.00395645
-2.82344e-22 0.0200082 0.001684 -0.00395472
5.64689e-22 -0.0200082 0.00168399 0.00977754
0 -0.0200926 6.73445e-05 0.00977799
0 0.0200927 6.74618e-05 -0.00395843
0 -0.0200965 -8.39099e-19 0.00977798
0 0.0200966 -7.09534e-19 -0.00395843
0 -0.0201334 8.4998e-18 0.00977842
0 0.0201335 8.62606e-18 -0.00395873
2.71051e-20 -0.0195081 0.00505258 0.00977406
-1.35525e-20 0.0195081 0.00505262 -0.00395806
0 0.0200347 0.00229462 -0.0039564
-2.25875e-21 -0.0200347 0.0022946 0.00977746
9.03502e-22 -0.0199605 0.00311668 0.00977707
-1.12938e-21 0.0199605 0.00311671 -0.00395784
0 -0.020225 6.93279e-05 0.0097793
0 0.0202253 6.94576e-05 -0.00395953
-1.35525e-20 -0.0202304 -1.78061e-17 0.0097793
1.35525e-20 0.0202307 -1.76953e-17 -0.00395953
-1.12938e-21 -0.0199314 0.00385542 0.0097768
3.38813e-21 0.0199314 0.00385544 -0.00395933
-6.77626e-21 0.0196737 0.00514811 -0.00395971
-1.35525e-20 -0.0196737 0.00514812 0.00977572
1.807e-21 -0.0198941 0.00456695 0.00977662
-9.03502e-22 0.0198941 0.00456697 -0.00396014
0 -0.0197657 0.00520119 0.00977628
1.35525e-20 0.0197657 0.00520124 -0.00396062
9.03502e-21 -0.0198219 0.00501114 0.00977656
0 0.0198219 0.00501119 -0.0039605
-2.71051e-20 -0.0202897 0.00277314 0.00977864
0 0.0202897 0.00277314 -0.00395877
0 -0.0202612 0.00349046 0.00977886
2.71051e-20 0.0202612 0.00349047 -0.00396128
0 0.0199065 0.00528242 -0.00396205
2.71051e-20 -0.0199065 0.00528242 0.00977663
0 -0.0202451 0.00417935 0.0097787
0 0.0202451 0.00417938 -0.00396311
5.42101e-20 0.0206574 0.00171968 -0.00396023
5.42101e-20 -0.0206574 0.00171968 0.00978069
4.51751e-21 -0.0201293 0.004986 0.00977822
1.50584e-21 0.0201293 0.00498603 -0.00396313
0 0.0200532 0.00536706 -0.00396368
-6.77626e-21 -0.0200532 0.00536708 0.00977677
0 -0.0206314 0.00242245 0.00978016
-5.64689e-22 0.0206314 0.00242249 -0.00396156
5.42101e-20 0.0207755 0.000514881 -0.00396336
0 -0.0207756 0.000514862 0.00978361
0 -0.0205987 0.00311576 0.00978029
-1.12938e-21 0.0205987 0.00311576 -0.00396267
-2.71051e-20 -0.0203105 0.00476265 0.00977948
0 0.0203105 0.00476269 -0.00396408
-6.77626e-21 -0.0201708 0.00543492 0.00977761
2.03288e-20 0.0201709 0.00543498 -0.00396541
-4.51751e-21 -0.0202177 0.00527681 0.00977813
-4.51751e-21 0.0202177 0.00527687 -0.00396505
-1.12938e-21 -0.0205738 0.00381737 0.00978081
1.12938e-21 0.0205738 0.00381738 -0.00396509
4.51751e-21 -0.0205819 0.00447085 0.0097813
0 0.0205819 0.00447087 -0.00396699
0 -0.0203369 0.00553075 0.0097798
0 0.0203371 0.00553081 -0.00396836
-2.71051e-20 -0.0209426 0.00274697 0.00978131
0 0.0209426 0.00274698 -0.00396488
0 -0.0209032 0.00344943 0.00978246
8.13152e-20 0.0209032 0.00344944 -0.00396584
-1.35525e-20 -0.0204447 0.0055929 0.00978133
-1.35525e-20 0.0204447 0.00559292 -0.0039694
1.35525e-20 -0.0204858 0.00548981 0.00978154
0 0.0204858 0.00548988 -0.00396957
7.52918e-22 -0.0206004 0.00512924 0.00978175
2.25875e-21 0.0206004 0.00512925 -0.00396933
2.71051e-20 -0.0208995 0.004126 0.00978329
-2.71051e-20 0.0208995 0.00412602 -0.00397031
1.35525e-20 0.0213128 8.97542e-05 -0.00396714
1.35525e-20 -0.0213128 8.9712e-05 0.00978623
1.35525e-20 0.0213193 -2.80333e-18 -0.00396714
-1.35525e-20 -0.0213194 -2.88788e-18 0.00978623
4.51751e-21 0.0213562 0.00112751 -0.00396665
-2.25875e-21 -0.0213563 0.0011275 0.00978546
2.03288e-20 0.0206272 0.00569817 -0.00397342
-6.77626e-21 -0.0206273 0.00569821 0.00978259
2.71051e-20 -0.0208932 0.00478631 0.00978381
0 0.0208932 0.00478633 -0.00397098
1.12938e-21 0.0213143 0.00228572 -0.00396885
3.38813e-21 -0.0213143 0.00228571 0.00978455
0 0.02144 1.08456e-18 -0.00396761
-1.35525e-20 -0.0214401 1.08449e-18 0.00978667
0 -0.0206784 0.00572772 0.00978304
0 0.0206785 0.00572775 -0.00397474
1.41172e-22 -0.0212371 0.00307351 0.00978439
-2.82344e-22 0.0212371 0.00307352 -0.00396941
0 -0.0207149 0.00567146 0.00978328
0 0.020715 0.00567136 -0.00397516
6.77626e-21 -0.0207375 0.00576179 0.00978357
6.77626e-21 0.0207376 0.00576188 -0.00397505
1.50584e-21 -0.0208293 0.00551232 0.00978401
3.01167e-21 0.0208293 0.00551235 -0.00397652
0 -0.0215471 0.000109115 0.00978715
0 0.0215471 0.000109145 -0.00396854
0 0.0215566 9.65884e-19 -0.00396859
-1.35525e-20 -0.0215566 9.65605e-19 0.0097872
4.94103e-22 -0.0212592 0.00373091 0.00978529
-5.99982e-22 0.0212592 0.00373092 -0.00397172
-3.38813e-21 -0.0212042 0.00445828 0.00978572
0 0.0212042 0.00445829 -0.00397443
0 -0.0209535 0.0058866 0.00978521
-1.35525e-20 0.0209535 0.00588664 -0.00397763
2.25875e-21 -0.0211675 0.00514624 0.00978636
-2.25875e-21 0.0211675 0.00514627 -0.00397668
-1.35525e-20 -0.0210048 0.00583271 0.00978563
0 0.0210048 0.00583278 -0.00397795
0 0.0216644 0.00284434 -0.00397825
2.71051e-20 -0.0216644 0.00284434 0.00978762
2.71051e-20 -0.0210555 0.00594567 0.00978637
0 0.0210555 0.00594567 -0.00398016
-2.71051e-20 0.0216616 0.00329946 -0.00397449
-2.71051e-20 -0.0216616 0.00329945 0.00978728
0 -0.0215297 0.00411132 0.00978743
-2.71051e-20 0.0215297 0.00411133 -0.00397723
1.12938e-21 -0.0212154 0.00559337 0.00978724
1.12938e-21 0.0212154 0.0055934 -0.00397944
5.42101e-20 0.0219546 0.00177015 -0.0039709
5.42101e-20 -0.0219546 0.00177015 0.00978812
-5.42101e-20 0.0220217 0.000571054 -0.00397196
0 -0.0220218 0.000571066 0.00978937
0 -0.0215068 0.00478713 0.00978844
2.71051e-20 0.0215068 0.00478716 -0.0039794
-5.64689e-22 0.0219097 0.00242093 -0.00397681
0 -0.0219097 0.00242092 0.00978859
6.77626e-21 0.021227 0.00604556 -0.00398172
-6.77626e-21 -0.0212271 0.00604561 0.00978756
0 -0.0218721 0.0030677 0.00978838
0 0.0218721 0.0030677 -0.00397441
0 -0.0215266 0.00539882 0.00978954
0 0.0215266 0.00539885 -0.00398241
-4.51751e-21 -0.021392 0.00594167 0.00978901
-9.03502e-21 0.021392 0.00594175 -0.00398396
0 0.0218838 0.00375445 -0.00397979
4.23516e-22 -0.0218838 0.00375445 0.00978955
-1.35525e-20 -0.0213574 0.00612127 0.00978888
0 0.0213576 0.00612138 -0.00398482
-1.12938e-21 -0.0218345 0.00443965 0.00978995
0 0.0218345 0.00443967 -0.00398518
-2.71051e-20 -0.0221011 0.00283877 0.0097881
2.71051e-20 0.0221011 0.00283877 -0.00398133
0 -0.0220656 0.0032889 0.00978867
-2.71051e-20 0.0220656 0.00328891 -0.00396535
1.12938e-21 -0.0218182 0.00510344 0.00979135
2.25875e-21 0.0218183 0.00510346 -0.00398693
0 -0.0215448 0.00623065 0.00979144
-1.35525e-20 0.0215448 0.00623071 -0.00399262
-1.35525e-20 0.0225384 9.17221e-05 -0.00397701
0 -0.0225384 9.1706e-05 0.00979231
1.35525e-20 0.0225403 1.79113e-19 -0.003977
0 -0.0225404 1.78128e-19 0.00979232
0 0.0216442 0.0063096 -0.0039936
-1.35525e-20 -0.0216442 0.00630959 0.00979264
-2.71051e-20 -0.0221735 0.00407695 0.00979108
0 0.0221736 0.00407697 -0.00399195
0 0.0216896 0.0061912 -0.00399354
-1.35525e-20 -0.0216897 0.00619112 0.0097929
3.76459e-22 -0.0218103 0.00580094 0.00979291
-7.52918e-22 0.0218103 0.00580096 -0.00399238
0 0.0225989 0.00115695 -0.00397952
4.51751e-21 -0.0225989 0.00115695 0.00979237
0 0.0226373 8.21489e-20 -0.00397771
0 -0.0226373 8.09862e-20 0.00979284
5.42101e-20 -0.0221353 0.00476853 0.00979296
-2.71051e-20 0.0221353 0.00476855 -0.00399218
2.25875e-21 0.022582 0.00236336 -0.00399063
-4.51751e-21 -0.022582 0.00236336 0.00979197
5.50571e-21 0.0225009 0.00305827 -0.00398892
8.89385e-21 -0.022501 0.00305827 0.00979159
-3.38813e-20 0.0225096 0.00305557 -0.00398914
-1.65171e-20 -0.0225142 0.0030581 0.00979164
0 -0.0227255 8.81878e-05 0.00979332
-1.35525e-20 0.0227256 8.82072e-05 -0.00397848
-1.35525e-20 -0.0227307 3.10197e-20 0.00979335
-1.35525e-20 0.0227308 3.16342e-20 -0.00397851
0 0.0218385 0.00644695 -0.00399984
3.38813e-21 -0.0218386 0.00644701 0.00979481
0 -0.0221179 0.00543869 0.00979451
0 0.0221179 0.00543873 -0.00399434
1.69407e-21 -0.0218565 0.0064596 0.00979505
1.69407e-21 0.0218565 0.00645965 -0.0040009
0 -0.0218724 0.00643784 0.00979519
0 0.0218726 0.00643772 -0.00400139
0 -0.0218744 0.00647341 0.00979523
3.38813e-21 0.0218746 0.00647358 -0.00400067
0 -0.0225287 0.00364569 0.0097933
-1.807e-21 0.0225287 0.00364571 -0.00399356
1.12938e-21 -0.0224649 0.00441818 0.0097946
-5.64689e-22 0.022465 0.00441819 -0.00399724
-3.01167e-21 -0.0220386 0.00622588 0.00979669
-3.01167e-21 0.0220386 0.00622594 -0.00400742
0 -0.0224373 0.00510162 0.0097964
-1.12938e-21 0.0224374 0.00510164 -0.00399883
0 -0.022069 0.00662861 0.00979703
-1.35525e-20 0.0220691 0.00662869 -0.00400035
-1.35525e-20 -0.0221728 0.00656824 0.00979804
-2.71051e-20 0.0221729 0.00656835 -0.0040022
-4.51751e-21 -0.0223901 0.00581141 0.00979828
0 0.0223901 0.00581147 -0.00400445
2.71051e-20 -0.0227864 0.00407104 0.00979615
0 0.0227864 0.00407104 -0.00400271
-1.35525e-20 -0.0221653 0.00670526 0.00979867
-1.35525e-20 0.0221653 0.0067053 -0.00400554
0 0.0232274 0.000581677 -0.00398362
0 -0.0232275 0.000581678 0.00979614
0 -0.0227665 0.00474853 0.00979828
-5.42101e-20 0.0227666 0.00474854 -0.00400201
0 0.0231993 0.00176868 -0.00399179
0 -0.0231993 0.00176868 0.00979587
-1.35525e-20 -0.0222608 0.00678087 0.00979972
-1.35525e-20 0.0222609 0.00678088 -0.00400655
-1.35525e-20 -0.0223061 0.0066761 0.00980003
1.35525e-20 0.0223061 0.00667615 -0.00400679
7.26028e-22 -0.0224559 0.00637514 0.00980076
-8.06698e-22 0.0224559 0.00637519 -0.00400904
0 0.023153 0.00306261 -0.00402393
5.42101e-20 -0.023153 0.00306261 0.00979637
-2.71051e-20 -0.0227373 0.00543366 0.00979988
0 0.0227374 0.0054337 -0.00400688
-1.41172e-22 0.0231517 0.00371753 -0.00404025
-2.82344e-22 -0.0231517 0.00371752 0.00979796
1.86347e-20 0.0224506 0.00693113 -0.00401199
-6.77626e-21 -0.0224506 0.00693118 0.00980241