# p  POINT_DATA 52106
# x  y  z  p
0.015557 -1.35525e-20 5.70113e-08 -0.00381837
-0.015557 1.35525e-20 5.70113e-08 0.0096734
-0.015557 -6.77626e-21 0.000135948 0.00967338
0.015557 0 0.000135964 -0.00381798
-0.015557 6.77626e-21 0.000527058 0.00967338
0.015557 6.77626e-21 0.000527125 -0.00381804
-0.015557 1.35525e-20 0.000659558 0.0096734
0.015557 -1.35525e-20 0.000659639 -0.00381845
-0.0155569 0 0.000798557 0.00967336
0.015557 0 0.000798637 -0.0038184
-0.0155569 6.77626e-21 0.00121614 0.00967335
0.0155569 0 0.00121623 -0.00381848
-0.0155569 -6.77626e-21 0.00135476 0.00967339
0.0155569 0 0.00135485 -0.00381858
-0.0156159 6.77626e-21 6.65977e-05 0.00967335
0.0156159 -6.77626e-21 6.66114e-05 -0.00381777
0.015617 -6.77626e-21 5.8671e-08 -0.00381778
-0.015617 0 5.86705e-08 0.00967335
-0.0156133 0 0.000593966 0.00967334
0.0156133 6.77626e-21 0.00059404 -0.00381786
0.0156101 0 0.000721026 -0.00381805
-0.0156101 6.77626e-21 0.000720945 0.00967334
-0.0155569 -6.77626e-21 0.00150199 0.00967335
0.0155569 0 0.00150206 -0.00381858
-0.0156099 -6.77626e-21 0.00127797 0.00967333
0.0156099 6.77626e-21 0.00127806 -0.00381815
0.0156067 -6.77626e-21 0.00140498 -0.00381822
-0.0156067 0 0.00140489 0.00967333
-0.0156758 -6.77626e-21 6.25738e-08 0.00967331
0.0156758 6.77626e-21 6.25741e-08 -0.0038176
-0.0155569 1.35525e-20 0.00193255 0.00967337
0.0155569 0 0.00193257 -0.00381864
-0.0156643 -2.71051e-20 0.000653593 0.00967331
0.0156643 1.35525e-20 0.000653701 -0.00381771
0.015557 -6.77626e-21 0.002087 -0.00381861
-0.015557 6.77626e-21 0.002087 0.00967341
0.0156581 2.03288e-20 0.00132521 -0.00381789
-0.0156581 0 0.00132509 0.00967331
0.0156109 0 0.00197556 -0.00381827
-0.0156109 0 0.00197554 0.00967335
-0.01562 0 0.00210848 0.0096734
0.01562 -6.77626e-21 0.00210848 -0.00381846
0.0156426 0 0.00205604 -0.00381822
-0.0156426 0 0.00205603 0.00967337
0.0156707 0 0.00197912 -0.0038179
-0.0156707 -6.77626e-21 0.00197907 0.00967333
-0.0156949 0 0.00213398 0.00967331
0.0156949 0 0.00213398 -0.00381778
0.015885 6.77626e-21 7.41484e-08 -0.00381686
-0.015885 6.77626e-21 7.41473e-08 0.00967319
-0.01589 0 0.00034758 0.00967317
0.01589 -2.25875e-21 0.000347688 -0.00381673
-0.0158834 2.71051e-21 0.000956113 0.00967316
0.0158834 -4.51751e-22 0.000956328 -0.00381626
0.0158471 2.25875e-21 0.00154379 -0.00381643
-0.0158471 2.25875e-21 0.00154362 0.00967318
-0.0158414 2.82344e-21 0.00196386 0.00967314
0.0158414 -1.12938e-21 0.00196392 -0.00381617
-0.015839 0 0.00218308 0.00967317
0.015839 -1.35525e-20 0.00218308 -0.00381644
-0.0159079 -4.06576e-20 0.00220656 0.00967315
0.0159079 0 0.00220656 -0.00381643
-0.0160357 0 0.00166133 0.00967299
0.0160357 1.12938e-21 0.00166159 -0.003815
-0.0161335 0 1.64555e-05 0.00967304
0.0161337 -4.23516e-22 1.6266e-05 -0.00381592
-0.0161343 -4.23516e-22 5.30999e-08 0.00967304
0.0161345 0 5.30909e-08 -0.00381592
-0.0159895 -4.06576e-20 0.00223438 0.00967303
0.0159896 0 0.00223438 -0.00381553
-0.0161453 0 5.24551e-08 0.00967303
0.0161479 0 3.0392e-06 -0.00381584
-0.0161363 -2.25875e-21 0.000658258 0.00967293
0.0161363 0 0.00065863 -0.00381487
-0.016108 0 0.00123662 0.00967298
0.0161079 -2.25875e-21 0.00123704 -0.00381492
-0.0162278 -1.8823e-21 0.00195621 0.00967281
0.0162278 1.12938e-21 0.00195641 -0.00381366
0.0161979 6.77626e-21 0.00230534 -0.00381432
-0.0161979 0 0.00230537 0.00967289
-0.0162561 6.77626e-21 0.00232518 0.00967289
0.0162561 6.77626e-21 0.00232518 -0.00381414
-0.016267 0 0.00230119 0.00967287
0.016267 0 0.00230117 -0.003814
-0.0162975 1.35525e-20 0.00227122 0.00967282
0.0162975 -6.77626e-21 0.00227118 -0.00381366
-0.0162994 1.35525e-20 0.00233991 0.00967282
0.0162994 6.77626e-21 0.00233992 -0.00381372
0.0164713 1.35525e-20 0.000318776 -0.00381292
-0.0164713 0 0.00031848 0.00967274
0.0164838 9.03502e-21 0.000934132 -0.00381249
-0.0164839 -4.51751e-21 0.000933459 0.00967271
-0.0165151 2.71051e-20 8.91788e-08 0.00967268
0.0165151 0 8.91806e-08 -0.00381233
0.0164768 9.03502e-21 0.00151147 -0.00381246
-0.0164769 0 0.00151089 0.00967272
0.0166394 0 9.23357e-08 -0.0038112
-0.0166394 0 9.23334e-08 0.00967255
-0.0165053 0 0.00241002 0.00967259
0.0165054 1.35525e-20 0.00241002 -0.00381226
0.0167038 2.71051e-20 0.000635416 -0.00381125
-0.0167039 0 0.000634646 0.00967256
0.0165943 5.64689e-22 0.00217414 -0.0038113
-0.0165943 1.12938e-21 0.00217395 0.00967246
0.0167298 0 0.00122679 -0.00381104
-0.0167299 0 0.00122589 0.00967253
0.0166885 0 0.00181391 -0.00381138
-0.0166886 -2.71051e-20 0.00181341 0.00967257
-0.0166608 -1.35525e-20 0.00246303 0.00967259
0.016661 0 0.00246306 -0.00381186
0.0168423 -1.35525e-20 7.0937e-08 -0.00380998
-0.0168423 1.35525e-20 7.09338e-08 0.0096724
0.0169749 -2.25875e-21 0.000303039 -0.00380941
-0.016975 4.51751e-21 0.000302648 0.00967234
-0.0168731 1.12938e-21 0.0022093 0.0096724
0.0168731 1.12938e-21 0.00220951 -0.00381036
0.016996 -4.51751e-21 0.000918683 -0.00380987
-0.0169961 0 0.000917792 0.00967238
0.0168625 -2.03288e-20 0.00253161 -0.00381065
-0.0168625 0 0.00253162 0.00967245
0.0169886 -4.51751e-21 0.00152442 -0.00380989
-0.0169887 4.51751e-21 0.00152371 0.00967238
0.0170875 0 2.4605e-08 -0.00380879
-0.0170875 0 2.46021e-08 0.00967226
0.0169822 4.51751e-21 0.00199465 -0.00380953
-0.0169822 4.51751e-21 0.00199427 0.00967233
-0.0169516 -9.03502e-21 0.00241979 0.0096724
0.0169517 9.03502e-21 0.00241989 -0.0038101
-0.0169616 -1.35525e-20 0.00256534 0.0096724
0.0169617 -2.03288e-20 0.00256538 -0.00381009
0.0172725 2.71051e-20 0.000609814 -0.00380791
-0.0172727 0 0.000608963 0.00967218
0.017301 2.71051e-20 3.86873e-09 -0.00380771
-0.0173011 2.71051e-20 3.86453e-09 0.00967215
0.0172756 0 0.0012186 -0.00380772
-0.0172758 5.42101e-20 0.00121766 0.00967217
0.0172503 0 0.00183262 -0.00380796
-0.0172504 2.71051e-20 0.00183214 0.0096722
-0.0171625 0 0.00263367 0.00967227
0.0171625 0 0.00263369 -0.00380877
-0.0172627 -3.38813e-21 0.00228337 0.00967219
0.0172628 -5.64689e-22 0.00228356 -0.00380802
0.0175152 -1.35525e-20 3.90438e-09 -0.00380639
-0.0175152 0 3.90115e-09 0.00967201
0.0176166 -6.77626e-21 0.000304265 -0.00380569
-0.0176168 4.51751e-21 0.000303958 0.00967194
0.0176138 1.12938e-21 0.000914505 -0.00380576
-0.0176139 0 0.000913847 0.00967195
0.0175986 1.12938e-21 0.00154662 -0.00380571
-0.0175987 1.12938e-21 0.0015461 0.00967193
0.0174824 0 0.00274279 -0.00380609
-0.0174824 -1.01644e-20 0.0027428 0.00967194
-0.0174954 -1.69407e-21 0.00274721 0.00967192
0.0174955 3.72694e-20 0.00274726 -0.00380599
0.0177275 -1.35525e-20 5.30347e-09 -0.00380491
-0.0177276 4.06576e-20 5.30237e-09 0.00967186
-0.0176266 -1.807e-20 0.00211798 0.00967193
0.0176266 2.25875e-21 0.00211823 -0.00380551
-0.0175733 2.25875e-21 0.00255362 0.0096719
0.0175734 -4.51751e-21 0.0025537 -0.00380558
0.0179395 0 5.36713e-09 -0.00380343
-0.0179395 0 5.36695e-09 0.0096717
0.0179446 -2.71051e-20 0.000602236 -0.00380343
-0.0179448 -2.71051e-20 0.000601852 0.00967171
0.0179404 2.71051e-20 0.00122938 -0.00380344
-0.0179405 0 0.00122893 0.00967171
-0.0179 -2.71051e-20 0.00190852 0.00967173
0.0179 -2.71051e-20 0.00190875 -0.00380364
-0.0177928 0 0.00284873 0.00967178
0.0177928 2.71051e-20 0.00284875 -0.00380445
-0.0179476 2.71051e-20 0.0024258 0.00967168
0.0179477 2.71051e-20 0.00242589 -0.00380335
0.0181451 0 4.40341e-09 -0.0038022
-0.0181451 0 4.40324e-09 0.00967157
-0.0180159 4.06576e-20 0.00292502 0.00967167
0.018016 0 0.00292506 -0.00380323
0.0182715 -2.25875e-21 0.000300999 -0.00380132
-0.0182716 -4.51751e-21 0.000300875 0.00967148
0.0182775 0 0.000913342 -0.00380122
-0.0182775 -6.77626e-21 0.00091307 0.00967149
-0.0182702 -4.51751e-21 0.00156202 0.00967148
0.0182702 2.25875e-21 0.00156224 -0.0038012
-0.0182366 -1.12938e-20 0.00214879 0.0096715
0.0182366 4.51751e-21 0.00214891 -0.00380145
0.0181444 -6.77626e-21 0.00296949 -0.00380244
-0.0181446 -6.77626e-21 0.00296953 0.00967158
-0.0181872 -6.77626e-22 0.00270867 0.00967156
0.0181872 6.77626e-22 0.00270873 -0.0038021
0.0183921 1.35525e-20 2.43155e-09 -0.00380048
-0.0183922 1.35525e-20 2.43148e-09 0.00967139
-0.0185886 0 1.46532e-09 0.00967123
0.0185886 0 1.46539e-09 -0.00379896
-0.0183446 -1.35525e-20 0.00303802 0.00967143
0.0183446 0 0.00303804 -0.0038011
0.0185996 -2.71051e-20 0.000595038 -0.00379893
-0.0185997 0 0.000594918 0.00967124
-0.0186737 1.16165e-20 0.00129278 0.00967118
0.0186737 1.16165e-20 0.00129291 -0.00379821
-0.0187703 -1.35525e-20 1.23409e-09 0.00967111
0.0187703 1.35525e-20 1.23413e-09 -0.00379774
0.0185175 2.03288e-20 0.00309812 -0.00379927
-0.0185175 6.77626e-21 0.00309812 0.009671
-0.0187148 -4.51751e-21 0.00187601 0.00967116
0.0187148 4.51751e-21 0.00187608 -0.00379807
-0.0186674 7.52918e-21 0.00253515 0.00967118
0.0186674 -3.01167e-21 0.00253519 -0.00379877
0.018823 -1.35525e-20 0.000903657 -0.00379759
-0.018823 4.51751e-21 0.00090356 0.00967111
0.0188705 -4.51751e-21 0.0002483 -0.00379695
-0.0188706 2.25875e-21 0.000248266 0.00967103
-0.0186437 0 0.002939 0.00967108
0.0186438 0 0.00293906 -0.00379864
-0.0189391 2.71051e-20 0.00154412 0.00967102
0.0189391 2.71051e-20 0.00154419 -0.00379657
0.0187701 -9.74088e-21 0.00318665 -0.0037983
-0.0187699 -8.47033e-22 0.00318654 0.00967113
0.0188367 -1.35525e-20 0.00285269 -0.00379788
-0.0188367 -1.35525e-20 0.00285269 0.00967116
0.0190684 0 6.42265e-10 -0.00379559
-0.0190684 1.35525e-20 6.42229e-10 0.00967089
-0.018947 0 0.00220299 0.00967101
0.018947 0 0.00220303 -0.00379662
-0.0189611 -6.77626e-21 0.00294132 0.00967121
0.0189611 -6.77626e-21 0.00294137 -0.00379745
-0.0192376 0 4.16948e-10 0.00967076
0.0192376 -2.71051e-20 4.16969e-10 -0.00379432
0.0192505 -2.25875e-21 0.000578858 -0.0037944
-0.0192506 1.12938e-20 0.000578833 0.00967078
-0.0192654 -6.77626e-21 0.00120337 0.00967078
0.0192654 -4.51751e-21 0.0012034 -0.00379431
-0.0192728 4.51751e-21 0.00186871 0.00967078
0.0192728 1.12938e-20 0.00186874 -0.00379424
-0.0190865 0 0.00329541 0.00967093
0.0190867 2.71051e-20 0.00329547 -0.00379615
-0.0193938 0 3.58644e-10 0.00967067
0.0193938 -2.71051e-20 3.58662e-10 -0.00379338
0.0193936 -2.71051e-20 0.000130553 -0.00379338
-0.0193936 1.35525e-20 0.000130545 0.00967067
-0.0191339 1.35525e-20 0.00323263 0.00967089
0.019134 0 0.00323272 -0.00379579
-0.0192591 4.51751e-21 0.00254519 0.00967078
0.0192591 2.25875e-21 0.00254522 -0.00379447
-0.0192048 0 0.003336 0.00967085
0.0192049 1.35525e-20 0.00333604 -0.00379531
-0.0193217 4.51751e-22 0.00298746 0.00967075
0.0193218 -9.03502e-22 0.0029875 -0.00379424
0.0195688 0 0.000280898 -0.00379212
-0.0195688 2.71051e-20 0.00028089 0.00967054
0.0195891 -2.71051e-20 0.000871761 -0.00379208
-0.0195891 5.42101e-20 0.000871755 0.00967056
-0.019374 0 0.0032822 0.00967075
0.019374 -1.35525e-20 0.00328227 -0.0037942
-0.0196057 -2.71051e-20 0.00151348 0.00967053
0.0196057 0 0.0015135 -0.0037918
-0.0193742 -2.71051e-20 0.00339404 0.00967075
0.0193743 0 0.00339406 -0.00379424
-0.0196063 2.71051e-20 0.0021914 0.00967055
0.0196063 2.71051e-20 0.00219141 -0.00379186
0.0197445 0 1.1881e-10 -0.00379074
-0.0197445 0 1.1881e-10 0.0096704
0.0197496 1.35525e-20 0.000118775 -0.0037907
-0.0197497 2.71051e-20 0.000118767 0.0096704
-0.0196349 0 0.00277709 0.00967052
0.019635 0 0.00277712 -0.0037918
-0.0195953 1.35525e-20 0.00324376 0.0096706
0.0195954 0 0.0032438 -0.00379262
-0.0198869 1.35525e-20 6.23641e-11 0.00967025
0.0198869 1.35525e-20 6.23597e-11 -0.00378969
0.0199025 0 0.000551642 -0.00378969
-0.0199025 6.77626e-21 0.00055164 0.00967031
-0.0196372 -2.71051e-20 0.00348423 0.00967057
0.0196374 0 0.0034843 -0.0037924
-0.0199263 7.90564e-21 0.00116493 0.00967032
0.0199263 -2.25875e-21 0.00116493 -0.00378957
-0.0197065 0 0.0033997 0.00967052
0.0197066 1.35525e-20 0.00339978 -0.00379187
-0.0200175 0 0.000104927 0.0096702
0.0200175 -1.35525e-20 0.000104918 -0.00378867
-0.020018 0 5.47768e-11 0.00967019
0.0200181 0 5.47745e-11 -0.00378867
-0.0199354 0 0.00184109 0.0096703
0.0199355 -5.64689e-21 0.0018411 -0.00378941
-0.0199397 0 0.00250609 0.00967031
0.0199397 -1.12938e-21 0.0025061 -0.00378954
-0.0198048 -1.35525e-20 0.00354162 0.00967045
0.0198049 2.71051e-20 0.00354168 -0.00379127
-0.0199176 0 0.00307583 0.00967036
0.0199177 2.25875e-21 0.00307587 -0.00379012
-0.0202108 0 0.000262551 0.00967004
0.0202108 2.71051e-20 0.000262544 -0.00378713
-0.0202372 2.71051e-20 0.000828952 0.00967012
0.0202372 0 0.00082895 -0.00378744
-0.0199793 1.35525e-20 0.00344741 0.00967035
0.0199793 -1.35525e-20 0.00344747 -0.00379006
-0.0199876 -6.77626e-21 0.00360417 0.00967035
0.0199877 1.35525e-20 0.00360422 -0.00379013
-0.0202612 -2.71051e-20 0.00146953 0.00967009
0.0202612 0 0.00146953 -0.00378703
-0.0202614 -2.71051e-20 0.00216708 0.00967004
0.0202614 2.71051e-20 0.0021671 -0.00378694
-0.020424 0 1.48382e-11 0.00967001
0.0204241 0 1.48336e-11 -0.00378531
-0.0204263 -1.35525e-20 8.83618e-05 0.00967001
0.0204264 0 8.83583e-05 -0.00378528
-0.0201258 -2.71051e-20 0.00365147 0.00967027
0.020126 2.03288e-20 0.00365154 -0.00378926
-0.0202574 -2.71051e-20 0.00283409 0.00967013
0.0202575 5.42101e-20 0.00283411 -0.00378753
-0.02023 -1.35525e-20 0.00346726 0.00967018
0.0202301 -8.13152e-21 0.00346732 -0.00378835
-0.0205366 0 8.07587e-12 0.00966995
0.0205367 -1.35525e-20 8.0725e-12 -0.00378444
-0.0205431 -1.12938e-21 0.000507235 0.00967003
0.0205431 1.12938e-21 0.000507233 -0.0037848
-0.0205806 1.12938e-21 0.00109806 0.00966989
0.0205806 -1.12938e-21 0.00109806 -0.00378491
-0.0206332 0 7.2332e-05 0.00967008
0.0206332 0 7.23425e-05 -0.00378323
-0.0206362 0 7.47893e-12 0.00967007
0.0206362 1.35525e-20 7.47568e-12 -0.00378324
-0.0203258 -1.35525e-20 0.00371988 0.00967011
0.020326 2.71051e-20 0.00371994 -0.00378808
-0.0205919 -2.25875e-21 0.00179229 0.00966983
0.0205919 -3.38813e-21 0.00179229 -0.00378464
-0.0205776 1.12938e-21 0.00251302 0.00966989
0.0205777 0 0.00251303 -0.00378507
-0.0204396 1.35525e-20 0.00376155 0.00966974
0.0204398 0 0.00376163 -0.00378697
-0.0204726 -1.35525e-20 0.00364922 0.00966978
0.0204728 4.06576e-20 0.00364928 -0.00378671
-0.0205732 -1.50584e-21 0.00324396 0.00966992
0.0205733 -2.25875e-21 0.003244 -0.00378589
-0.0208433 -2.71051e-20 0.000231572 0.00967004
0.0208434 2.71051e-20 0.000231569 -0.00378134
-0.0208763 -2.71051e-20 0.000747796 0.00966992
0.0208763 0 0.000747794 -0.00378324
-0.0209307 2.71051e-20 0.00137566 0.00966949
0.0209307 2.71051e-20 0.00137566 -0.00378204
-0.0206256 0 0.00382199 0.00966994
0.0206258 6.77626e-21 0.00382207 -0.00378643
-0.0209018 2.71051e-20 0.00213753 0.00966967
0.0209018 -2.71051e-20 0.00213753 -0.0037825
-0.0207137 0 0.00385276 0.00967002
0.0207138 0 0.00385283 -0.00378614
-0.0208885 0 0.00285883 0.00966974
0.0208886 0 0.00285885 -0.00378333
-0.0207601 -6.77626e-21 0.00376298 0.00967007
0.0207602 0 0.00376308 -0.00378586
0.0211429 9.03502e-21 0.0004345 -0.00378165
-0.0211429 3.01167e-21 0.000434502 0.00966975
-0.020841 -5.27043e-21 0.00362679 0.00967013
0.0208411 2.25875e-21 0.00362684 -0.00378535
-0.0208387 -6.77626e-21 0.00389825 0.0096698
0.0208388 1.35525e-20 0.0038983 -0.00378518
-0.0212597 0 5.25669e-13 0.00966957
0.0212601 -1.05879e-20 5.19801e-13 -0.0037813
-0.0212767 2.5411e-21 1.41099e-05 0.00966956
-0.0212768 0 1.74179e-06 0.00966956
0.0212769 -8.47033e-21 1.38726e-05 -0.00378122
0.0212813 0 1.45875e-06 -0.00378122
0.0212895 0 2.69474e-13 -0.00378118
-0.0212896 0 2.7104e-13 0.00966954
-0.0212723 -5.64689e-22 0.000878984 0.00966942
0.0212724 -2.25875e-21 0.000878975 -0.00378088
-0.0212427 -1.12938e-22 0.00171816 0.00966941
0.0212427 9.03502e-22 0.00171814 -0.00378025
-0.0212146 1.12938e-21 0.00249693 0.00966947
0.0212146 -1.12938e-21 0.00249694 -0.00378077
-0.0210353 0 0.00398139 0.00966969
0.0210355 0 0.00398146 -0.00378409
-0.021178 2.25875e-21 0.00323686 0.00966951
0.0211781 0 0.00323687 -0.00378185
-0.0210737 1.35525e-20 0.00393726 0.00966966
0.0210738 0 0.00393731 -0.00378376
-0.0211186 1.35525e-20 0.00402021 0.00966962
0.0211188 0 0.0040203 -0.00378367
-0.0212476 8.06698e-23 0.00368161 0.0096695
0.0212478 -4.03349e-22 0.00368166 -0.0037821
-0.0215747 0 0.00130736 0.00966926
0.0215747 2.71051e-20 0.00130737 -0.00377843
-0.0212486 1.35525e-20 0.00397488 0.00966956
0.0212488 0 0.00397493 -0.00378286
-0.0212527 1.35525e-20 0.00408538 0.00966957
0.021253 -6.77626e-21 0.00408549 -0.00378316
-0.0216407 7.52918e-22 0.00033173 0.00966785
0.0216408 7.52918e-22 0.000331723 -0.00377994
-0.0215441 -2.71051e-20 0.00209926 0.00966924
0.0215442 2.71051e-20 0.00209926 -0.00377819
-0.0215225 2.71051e-20 0.00284518 0.00966925
0.0215225 0 0.0028452 -0.0037791
-0.0217961 0 7.94919e-14 0.00966786
0.0217961 1.35525e-20 7.91737e-14 -0.0037792
-0.0215506 -2.71051e-20 0.00347094 0.00966925
0.0215507 0 0.00347097 -0.00377969
-0.0214959 0 0.00395189 0.0096694
0.0214961 1.35525e-20 0.00395193 -0.00378121
-0.0214983 6.77626e-21 0.00420475 0.00966935
0.0214984 6.77626e-21 0.00420479 -0.00378192
-0.0218606 -1.41172e-22 0.00170493 0.00966902
0.0218606 8.9409e-22 0.0017049 -0.00377636
-0.0219212 -3.38813e-21 0.000827127 0.00966861
0.0219212 4.51751e-22 0.00082711 -0.00377702
-0.0219609 1.35525e-20 4.02034e-14 0.00966833
0.021961 -1.35525e-20 4.01314e-14 -0.00377874
-0.0218494 -1.12938e-21 0.00247003 0.00966904
0.0218494 -5.64689e-22 0.00247004 -0.00377656
-0.0216145 1.35525e-20 0.00413981 0.00966922
0.0216145 1.35525e-20 0.00413983 -0.00378098
-0.0216502 1.35525e-20 0.00427857 0.00966916
0.0216503 0 0.00427863 -0.0037811
-0.0218421 -1.69407e-21 0.00317495 0.00966905
0.0218422 -3.38813e-21 0.00317496 -0.00377755
-0.0217324 0 0.00431835 0.0096688
0.0217325 0 0.00431843 -0.00378034
-0.0217583 -1.35525e-20 0.00423555 0.00966883
0.0217584 1.35525e-20 0.0042356 -0.00378004
-0.0221733 0 2.81576e-14 0.00966791
0.0221735 -6.77626e-21 2.80965e-14 -0.00377809
-0.021866 7.05861e-23 0.00385234 0.009669
0.0218668 0 0.00385247 -0.00377868
-0.0222021 -2.71051e-20 0.00129532 0.00966861
0.0222022 -2.71051e-20 0.00129532 -0.00377405
0.0222506 -7.05861e-23 0.000330091 -0.00377827
-0.0222517 -3.5293e-23 0.000328747 0.00966783
-0.0221694 5.42101e-20 0.00208071 0.0096689
0.0221694 0 0.00208072 -0.00377401
-0.0218631 -1.35525e-20 0.00438174 0.00966896
0.0218633 1.35525e-20 0.00438183 -0.00378013
0.0223211 0 1.21342e-14 -0.00377697
-0.0223212 6.77626e-21 1.21355e-14 0.00966774
-0.0221597 -5.42101e-20 0.00282094 0.00966878
0.0221598 0 0.00282094 -0.00377495
-0.0221457 -2.71051e-20 0.00350913 0.0096689
0.0221457 2.71051e-20 0.00350915 -0.00377637
-0.0220148 -2.03288e-20 0.00445531 0.00966904
0.0220149 6.77626e-21 0.00445537 -0.00377976
-0.0225415 0 1.22277e-15 0.0096676
0.0225416 0 1.23378e-15 -0.00377428
-0.0221394 0 0.00425961 0.0096691
0.0221395 1.12938e-21 0.00425967 -0.00377869
-0.0224964 -2.96462e-20 0.00168456 0.00966855
0.0224964 -4.23516e-22 0.0016846 -0.00377165
-0.0225021 0 0.00168479 0.00966854
0.0225021 0 0.00168483 -0.00377162
0.0225129 0 0.00168799 -0.00377151
-0.022513 0 0.00168798 0.00966853
-0.022576 5.42101e-21 0.000874276 0.00966808
0.0225761 4.51751e-21 0.000874269 -0.00377214
-0.0225135 -1.6134e-22 0.00242345 0.00966853
0.0225136 8.87368e-22 0.00242345 -0.00377219
-0.0224593 -1.12938e-21 0.00318123 0.00966859
0.0224593 0 0.00318124 -0.00377388
-0.0223019 -3.38813e-21 0.00459436 0.00966889
0.022302 -3.38813e-21 0.00459437 -0.00377852
-0.0224349 -9.03502e-22 0.00390505 0.00966871
0.022435 6.77626e-21 0.00390508 -0.0037758
-0.0228059 -1.27055e-20 8.70915e-16 0.0096656
0.0228061 4.23516e-22 8.77264e-16 -0.00376957
-0.022811 -8.47033e-22 2.46647e-05 0.00966557
0.0228111 0 2.39222e-05 -0.00376952
-0.0223412 0 0.00461337 0.00966889
0.0223413 3.38813e-21 0.00461342 -0.00377838
0.0228141 4.23516e-22 8.58194e-16 -0.00376948
-0.0228142 2.5411e-20 8.51408e-16 0.00966559
-0.0228118 -5.64689e-22 0.000334117 0.00966599
0.0228118 5.64689e-22 0.000334137 -0.00377019
-0.022347 0 0.00460685 0.00966889
0.0223471 0 0.00460689 -0.00377833
-0.0223545 0 0.00461977 0.00966888
0.0223546 0 0.00461984 -0.00377834
-0.0223623 -3.38813e-21 0.00458505 0.00966888
0.0223624 1.69407e-21 0.00458505 -0.00377819
-0.0223809 0 0.0046121 0.00966883
0.022381 0 0.00461216 -0.0037781
-0.0223957 -1.69407e-21 0.00463972 0.00966878
0.0223958 0 0.00463983 -0.00377806
-0.0225314 1.35525e-20 0.00433167 0.00966892
0.0225315 0 0.00433171 -0.00377675
-0.0227767 -2.71051e-20 0.00282452 0.00966835
0.0227767 0 0.00282454 -0.00377127
-0.0229169 2.71051e-20 0.00145351 0.00966841
0.022917 0 0.00145354 -0.00376881
-0.0229127 2.71051e-20 0.001952 0.00966806
0.0229127 0 0.001952 -0.00376875
-0.0227583 0 0.00352775 0.00966834
0.0227583 -2.71051e-20 0.00352777 -0.00377289
-0.0226788 1.35525e-20 0.00436549 0.00966875
0.0226789 -6.77626e-21 0.00436553 -0.00377595
-0.0231146 0 6.24631e-16 0.00966665
0.0231146 0 6.26477e-16 -0.00376846
-0.0231263 5.64689e-22 0.000857356 0.00966748
0.0231264 1.12938e-21 0.000857382 -0.00376703
-0.0231204 0 0.00168686 0.00966807
0.0231204 0 0.00168687 -0.00376688
-0.0226912 0 0.00478277 0.00966822
0.0226912 1.35525e-20 0.00478283 -0.00377648
-0.0231332 4.23516e-22 0.00244156 0.00966802
0.0231332 -8.47033e-22 0.00244157 -0.00376805
-0.0227888 -1.35525e-20 0.00466799 0.0096682
0.0227889 -1.35525e-20 0.00466803 -0.00377562
-0.0230834 -1.12938e-21 0.00317456 0.00966815
0.0230835 1.12938e-21 0.00317458 -0.00377057
-0.023319 0 3.10972e-16 0.00966636
0.0233191 6.77626e-21 3.12101e-16 -0.00376725
-0.0230283 9.03502e-21 0.00391292 0.00966826
0.0230284 0 0.00391294 -0.00377278
-0.02333 2.71051e-20 0.00142276 0.00966787
0.02333 0 0.00142278 -0.00376541
-0.0233168 0 0.00194192 0.00966797
0.0233168 2.71051e-20 0.00194194 -0.00376633
-0.0228965 -2.71051e-20 0.0048822 0.00966852
0.0228966 0 0.00488226 -0.00377683
-0.0234102 2.25875e-21 0.000267243 0.00966657
0.0234102 -4.51751e-21 0.000267244 -0.00376661
-0.0229986 7.52918e-22 0.0043906 0.00966828
0.0229987 -3.76459e-21 0.00439064 -0.00377419
0.0235162 1.35525e-20 1.75957e-16 -0.00376542
-0.0235162 6.77626e-21 1.74954e-16 0.00966673
-0.0234234 2.71051e-20 0.00278585 0.00966785
0.0234234 0 0.00278586 -0.00376787
-0.0230651 1.35525e-20 0.00496382 0.00966845
0.0230652 -2.71051e-20 0.00496388 -0.00377661
-0.0233787 2.71051e-20 0.00352562 0.00966804
0.0233787 -2.71051e-20 0.00352564 -0.00377003
-0.0237161 1.35525e-20 -1.12817e-16 0.00966775
0.0237161 1.35525e-20 -1.126e-16 -0.00376291
-0.0232668 -3.61401e-21 0.00471662 0.00966823
0.0232669 -1.35525e-21 0.00471667 -0.00377435
-0.0233857 2.71051e-20 0.00417634 0.00966806
0.0233857 -2.71051e-20 0.00417637 -0.00377198
-0.0232203 -6.77626e-21 0.00503892 0.00966828
0.0232204 -1.35525e-20 0.00503899 -0.00377627
-0.0237642 -2.82344e-21 0.000871716 0.00966764
0.0237642 2.82344e-22 0.000871732 -0.00376273
-0.0237897 -2.71051e-20 9.69712e-05 0.00966816
0.0237897 1.35525e-20 9.70283e-05 -0.00376209
-0.0237941 1.35525e-20 4.97248e-16 0.00966817
0.0237942 -1.35525e-20 5.01214e-16 -0.00376207
-0.0237454 -2.82344e-22 0.00168598 0.00966767
0.0237454 -1.83524e-21 0.00168599 -0.00376289
-0.0238504 1.35525e-20 -3.63004e-16 0.00966802
0.0238505 0 -3.63597e-16 -0.00376175
-0.0237771 1.35525e-21 0.00232532 0.00966773
0.0237772 4.06576e-21 0.00232532 -0.00376471
-0.023345 2.71051e-20 0.00509928 0.00966817
0.0233451 1.35525e-20 0.00509935 -0.003776
-0.0237118 -5.64689e-21 0.00315193 0.00966781
0.0237118 -3.38813e-21 0.00315194 -0.0037674
-0.0239754 0 0.000105727 0.00966757
0.0239757 0 0.000105814 -0.00376066
-0.0240029 1.35525e-20 2.3863e-16 0.00966755
-0.0236913 7.90564e-21 0.0038564 0.00966785
0.0236913 -2.25875e-21 0.00385642 -0.00376976
0.0240032 -1.35525e-20 2.38694e-16 -0.00376038
-0.0235265 -2.03288e-20 0.00518714 0.00966734
0.0235266 -1.35525e-20 0.0051872 -0.00377514
-0.0237117 0 0.00456148 0.00966783
0.0237118 9.03502e-21 0.00456152 -0.00377225
-0.0235865 6.77626e-21 0.00521624 0.00966741
0.0235867 -6.77626e-21 0.00521631 -0.0037751
-0.0236569 -1.6263e-20 0.00499193 0.00966763
0.023657 -5.42101e-21 0.00499199 -0.00377398
-0.0240359 -2.71051e-20 0.0027785 0.0096677
0.024036 0 0.00277852 -0.00376452
-0.0240146 -2.71051e-20 0.00349448 0.00966765
0.0240147 2.71051e-20 0.0034945 -0.00376708
-0.0237108 6.77626e-21 0.00516871 0.00966759
0.023711 0 0.00516878 -0.00377452
-0.0237215 0 0.00528159 0.00966781
0.0237217 0 0.00528165 -0.00377512
-0.0238516 -3.38813e-21 0.00489348 0.00966788
0.0238517 3.38813e-21 0.00489352 -0.00377311
-0.0239976 -5.42101e-20 0.00419241 0.00966765
0.0239977 -2.71051e-20 0.00419244 -0.00376988
-0.0238168 0 0.00514856 0.00966774
0.0238169 -6.77626e-21 0.00514863 -0.00377416
-0.0238281 6.77626e-21 0.00525503 0.00966768
0.0238283 6.77626e-21 0.00525509 -0.00377432
-0.0238429 1.35525e-20 0.00534032 0.00966763
0.023843 -6.77626e-21 0.00534036 -0.00377456
-0.0243893 0 0.00171905 0.00966727
0.0243893 -5.42101e-20 0.00171905 -0.00375883
-0.0239789 -2.71051e-20 0.00489875 0.00966812
0.023979 0 0.00489881 -0.00377307
-0.0243696 -1.41172e-22 0.00243113 0.00966722
0.0243706 -1.41172e-22 0.00243196 -0.00376219
-0.0244866 5.42101e-20 0.00051268 0.00966717
0.0244867 -5.42101e-20 0.000512684 -0.0037562
-0.0243442 0 0.00312516 0.00966733
0.0243442 -3.38813e-21 0.00312517 -0.00376441
-0.0239577 3.38813e-20 0.00539588 0.0096675
0.0239578 -2.71051e-20 0.00539595 -0.00377411
-0.0240298 2.71051e-21 0.00521691 0.00966769
0.02403 -1.0842e-20 0.00521698 -0.00377322
-0.0243197 0 0.00383765 0.00966745
0.0243198 -1.12938e-21 0.00383767 -0.00376714
-0.0242836 -9.03502e-21 0.00455364 0.00966746
0.0242836 -6.77626e-21 0.00455368 -0.00377
-0.0241601 1.35525e-20 0.00549389 0.00966768
0.0241602 0 0.00549396 -0.00377433
-0.0242635 3.01167e-21 0.00502115 0.00966742
0.0242637 3.01167e-21 0.00502121 -0.00377153
-0.0246819 0 0.00275432 0.00966674
0.0246819 -2.71051e-20 0.00275433 -0.00376186
-0.0246457 2.71051e-20 0.00346491 0.00966723
0.0246458 0 0.00346492 -0.00376404
-0.0243131 0 0.00556792 0.00966754
0.0243132 -1.35525e-20 0.00556799 -0.00377406
-0.0249638 1.35525e-20 3.14502e-16 0.00966686
0.0249638 1.35525e-20 3.14469e-16 -0.00375146
-0.0249658 1.35525e-20 0.000127061 0.00966686
0.0249658 4.06576e-20 0.000127084 -0.00375148
-0.0246319 2.71051e-20 0.00416571 0.00966727
0.0246319 -2.71051e-20 0.00416574 -0.0037674
-0.0250669 -6.77626e-21 0.00111391 0.0096668
0.025067 -6.77626e-21 0.00111391 -0.00375205
-0.0245277 0 0.00533379 0.00966729
0.0245278 -4.51751e-22 0.00533385 -0.00377167
-0.0246411 0 0.00480622 0.00966715
0.0246412 0 0.00480627 -0.00376937
-0.0251264 0 -5.57162e-18 0.00966679
0.0251265 2.71051e-20 -5.54308e-18 -0.00375017
-0.0244892 6.77626e-21 0.00565317 0.00966729
0.0244893 0 0.00565322 -0.00377369
-0.0250457 2.25875e-21 0.00228488 0.00966675
0.0250457 0 0.00228489 -0.00375718
-0.0249744 -1.41172e-21 0.00307726 0.0096668
0.0249744 1.12938e-21 0.00307727 -0.00376081
-0.0245965 1.35525e-20 0.00570515 0.00966718
0.0245966 -2.71051e-20 0.00570519 -0.00377349
-0.0252751 -2.71051e-20 0.000134701 0.00966668
-0.0249934 0 0.00376622 0.00966687
0.0252752 0 0.000134716 -0.00374843
0.0249934 8.47033e-22 0.00376624 -0.00376381
-0.0252845 1.35525e-20 -2.40066e-18 0.00966667
0.0252846 0 -2.39523e-18 -0.00374832
-0.0249434 -1.12938e-21 0.00449176 0.00966692
0.0249434 -3.38813e-21 0.00449179 -0.00376703
-0.0247822 3.38813e-21 0.00579502 0.00966629
0.0247823 -1.35525e-20 0.00579507 -0.00377266
-0.0249665 3.01167e-21 0.00518177 0.00966685
0.0249666 -1.50584e-21 0.00518182 -0.00376952
-0.0248296 -6.77626e-21 0.00581795 0.00966634
0.0248297 -3.38813e-21 0.00581801 -0.00377259
-0.0249104 -5.42101e-21 0.00560274 0.00966659
0.0249105 -8.13152e-21 0.00560279 -0.0037714
-0.0254015 0 0.00285469 0.00966672
0.0254015 5.42101e-20 0.0028547 -0.00375781
-0.0252645 0 0.00414474 0.00966658
0.0252645 -2.71051e-20 0.00414475 -0.00376439
-0.0254031 -5.42101e-20 0.00331055 0.00966641
0.0254031 2.71051e-20 0.00331056 -0.00375999
-0.0249624 0 0.00577193 0.00966654
0.0249625 -6.77626e-21 0.00577202 -0.00377188
-0.0249739 0 0.00588778 0.00966675
0.024974 0 0.00588783 -0.00377247
-0.0252501 0 0.00482067 0.00966666
0.0252501 -2.71051e-20 0.00482071 -0.0037669
-0.0257173 0 0.000556257 0.00966641
0.0257173 0 0.000556256 -0.00374427
-0.0250723 6.77626e-21 0.00575396 0.00966669
0.0250724 1.35525e-20 0.00575407 -0.00377143
-0.0256699 -5.42101e-20 0.00175088 0.00966636
0.0256699 5.42101e-20 0.00175088 -0.00374909
-0.0256382 -8.47033e-22 0.0024157 0.00966642
0.0256382 -1.97641e-21 0.00241571 -0.00375391
-0.0250837 6.77626e-21 0.00586274 0.00966661
0.0250838 1.35525e-20 0.00586281 -0.00377156
-0.0256079 0 0.00307876 0.00966645
0.0256079 0 0.00307876 -0.00375779
-0.025098 6.77626e-21 0.00594767 0.00966654
0.025098 0 0.0059477 -0.00377177
-0.0251925 2.25875e-21 0.00555311 0.00966673
0.0251926 1.12938e-20 0.00555317 -0.00377007
-0.0252316 -2.71051e-20 0.00551486 0.0096671
0.0252317 0 0.00551494 -0.00377029
-0.0255924 -1.50584e-21 0.0037929 0.00966639
0.0255924 4.51751e-21 0.00379291 -0.00376132
-0.0252102 -2.71051e-20 0.00600189 0.00966639
0.0252104 -6.77626e-21 0.00600198 -0.00377125
-0.0252817 8.13152e-21 0.00582896 0.0096666
0.0252819 8.13152e-21 0.00582905 -0.00377037
-0.0255735 -1.12938e-21 0.00447397 0.00966641
0.0255735 0 0.00447399 -0.00376419
-0.0258318 -2.71051e-20 0.0028448 0.0096663
0.0258318 -5.42101e-20 0.0028448 -0.00375662
-0.0257993 0 0.00329834 0.00966644
0.0257993 2.71051e-20 0.00329835 -0.0037586
-0.0255336 4.51751e-21 0.0051788 0.0096664
0.0255337 -2.25875e-21 0.00517885 -0.00376677
-0.025412 4.06576e-20 0.00609921 0.00966644
0.0254122 1.35525e-20 0.00609928 -0.00377151
-0.0255488 2.25875e-21 0.00563576 0.00966629
0.0255489 6.77626e-21 0.00563582 -0.00376834
0.0262229 0 -2.45033e-18 -0.00373957
-0.0262229 1.35525e-20 -2.47165e-18 0.00966604
0.0262242 0 0.000110099 -0.00373958
-0.0262242 1.35525e-20 0.000110093 0.00966604
-0.025914 -2.71051e-20 0.00409942 0.00966625
0.025914 -2.71051e-20 0.00409944 -0.0037618
-0.0255675 0 0.00617785 0.00966628
0.0255677 0 0.00617797 -0.00377109
-0.025876 -2.71051e-20 0.00480446 0.00966614
0.025876 0 0.00480449 -0.00376352
0.0263176 6.77626e-21 0.00114406 -0.0037413
-0.0263176 0 0.00114406 0.0096659
-0.0263544 -1.35525e-20 1.26633e-19 0.00966595
0.0263544 -1.35525e-20 1.28683e-19 -0.00373833
-0.0263095 -1.12938e-21 0.00235736 0.00966586
0.0263095 0 0.00235737 -0.00374894