# U  POINT_DATA 52106
# x  y  z  U_x  U_y  U_z
0.015557 -1.35525e-20 5.70113e-08 0 0 0
-0.015557 1.35525e-20 5.70113e-08 0 0 0
-0.015557 -6.77626e-21 0.000135948 0 0 0
0.015557 0 0.000135964 0 0 0
-0.015557 6.77626e-21 0.000527058 0 0 0
0.015557 6.77626e-21 0.000527125 0 0 0
-0.015557 1.35525e-20 0.000659558 0 0 0
0.015557 -1.35525e-20 0.000659639 0 0 0
-0.0155569 0 0.000798557 0 0 0
0.015557 0 0.000798637 0 0 0
-0.0155569 6.77626e-21 0.00121614 0 0 0
0.0155569 0 0.00121623 0 0 0
-0.0155569 -6.77626e-21 0.00135476 0 0 0
0.0155569 0 0.00135485 0 0 0
-0.0156159 6.77626e-21 6.65977e-05 -2.7465e-06 1.80418e-06 1.02223e-07
0.0156159 -6.77626e-21 6.66114e-05 -1.69889e-06 2.62303e-06 -5.79794e-07
0.015617 -6.77626e-21 5.8671e-08 0 0 0
-0.015617 0 5.86705e-08 0 0 0
-0.0156133 0 0.000593966 -2.62995e-06 1.72763e-06 9.78855e-08
0.0156133 6.77626e-21 0.00059404 -1.62677e-06 2.51168e-06 -5.55183e-07
0.0156101 0 0.000721026 -0.000150196 0.000128755 3.54435e-06
-0.0156101 6.77626e-21 0.000720945 -2.24878e-05 1.88798e-05 5.56017e-07
-0.0155569 -6.77626e-21 0.00150199 0 0 0
0.0155569 0 0.00150206 0 0 0
-0.0156099 -6.77626e-21 0.00127797 -2.23851e-05 1.87936e-05 5.53477e-07
0.0156099 6.77626e-21 0.00127806 -0.00014951 0.000128166 3.52816e-06
0.0156067 -6.77626e-21 0.00140498 -0.000153902 0.000127747 3.23679e-06
-0.0156067 0 0.00140489 -2.26057e-05 1.862e-05 -6.28237e-07
-0.0156758 -6.77626e-21 6.25738e-08 0 0 0
0.0156758 6.77626e-21 6.25741e-08 0 0 0
-0.0155569 1.35525e-20 0.00193255 0 0 0
0.0155569 0 0.00193257 0 0 0
-0.0156643 -2.71051e-20 0.000653593 -2.29811e-05 1.8999e-05 3.79393e-07
0.0156643 1.35525e-20 0.000653701 -0.000146829 0.000126597 1.61348e-07
0.015557 -6.77626e-21 0.002087 0 0 0
-0.015557 6.77626e-21 0.002087 0 0 0
0.0156581 2.03288e-20 0.00132521 -0.000283694 0.00024603 2.01509e-06
-0.0156581 0 0.00132509 -4.45287e-05 3.69172e-05 3.67944e-07
0.0156109 0 0.00197556 -0.000166919 0.000138551 3.51055e-06
-0.0156109 0 0.00197554 -2.45172e-05 2.01945e-05 -6.81361e-07
-0.01562 0 0.00210848 0 0 0
0.01562 -6.77626e-21 0.00210848 0 0 0
0.0156426 0 0.00205604 -0.000162797 0.000145934 4.77629e-06
-0.0156426 0 0.00205603 -2.28115e-05 2.02467e-05 -6.08687e-07
0.0156707 0 0.00197912 -0.000295034 0.000253541 4.62474e-06
-0.0156707 -6.77626e-21 0.00197907 -4.50133e-05 3.72234e-05 -3.37984e-07
-0.0156949 0 0.00213398 0 0 0
0.0156949 0 0.00213398 0 0 0
0.015885 6.77626e-21 7.41484e-08 0 0 0
-0.015885 6.77626e-21 7.41473e-08 0 0 0
-0.01589 0 0.00034758 -2.68525e-05 2.16012e-05 1.35667e-07
0.01589 -2.25875e-21 0.000347688 -0.000125511 0.000100411 1.2606e-06
-0.0158834 2.71051e-21 0.000956113 -0.000117415 9.34987e-05 3.13249e-07
0.0158834 -4.51751e-22 0.000956328 -0.000793238 0.00065501 -5.88278e-06
0.0158471 2.25875e-21 0.00154379 -0.000834447 0.000699891 -1.85906e-06
-0.0158471 2.25875e-21 0.00154362 -0.000123061 9.99035e-05 1.94638e-06
-0.0158414 2.82344e-21 0.00196386 -7.82015e-05 6.09616e-05 1.14585e-06
0.0158414 -1.12938e-21 0.00196392 -0.000567689 0.000456845 3.02652e-07
-0.015839 0 0.00218308 0 0 0
0.015839 -1.35525e-20 0.00218308 0 0 0
-0.0159079 -4.06576e-20 0.00220656 0 0 0
0.0159079 0 0.00220656 0 0 0
-0.0160357 0 0.00166133 -0.000180653 0.000144604 3.5971e-06
0.0160357 1.12938e-21 0.00166159 -0.00119869 0.00101432 -5.00605e-06
-0.0161335 0 1.64555e-05 -5.83674e-07 4.84714e-07 1.25929e-08
0.0161337 -4.23516e-22 1.6266e-05 -7.03987e-07 2.56043e-07 3.30391e-08
-0.0161343 -4.23516e-22 5.30999e-08 0 0 0
0.0161345 0 5.30909e-08 0 0 0
-0.0159895 -4.06576e-20 0.00223438 0 0 0
0.0159896 0 0.00223438 0 0 0
-0.0161453 0 5.24551e-08 -3.81358e-08 3.70552e-08 -2.43576e-10
0.0161479 0 3.0392e-06 -4.66256e-08 2.89947e-08 -2.58038e-09
-0.0161363 -2.25875e-21 0.000658258 -0.000114696 9.14244e-05 -5.70613e-07
0.0161363 0 0.00065863 -0.000748479 0.000628922 1.82853e-06
-0.016108 0 0.00123662 -0.000203323 0.000165785 2.28498e-06
0.0161079 -2.25875e-21 0.00123704 -0.00132801 0.00114467 -3.86505e-06
-0.0162278 -1.8823e-21 0.00195621 -0.000167641 0.000131687 3.66132e-06
0.0162278 1.12938e-21 0.00195641 -0.00116864 0.000970405 1.80438e-06
0.0161979 6.77626e-21 0.00230534 0 0 0
-0.0161979 0 0.00230537 0 0 0
-0.0162561 6.77626e-21 0.00232518 0 0 0
0.0162561 6.77626e-21 0.00232518 0 0 0
-0.016267 0 0.00230119 -1.999e-05 1.74084e-05 -7.43657e-08
0.016267 0 0.00230117 -0.00012866 0.000122718 3.3963e-06
-0.0162975 1.35525e-20 0.00227122 -3.64722e-05 2.78646e-05 6.1541e-07
0.0162975 -6.77626e-21 0.00227118 -0.000225926 0.000194582 8.78607e-07
-0.0162994 1.35525e-20 0.00233991 0 0 0
0.0162994 6.77626e-21 0.00233992 0 0 0
0.0164713 1.35525e-20 0.000318776 -0.000151511 0.000135328 7.03959e-06
-0.0164713 0 0.00031848 -2.63772e-05 2.24596e-05 5.21799e-07
0.0164838 9.03502e-21 0.000934132 -0.00159486 0.00138442 -3.60242e-05
-0.0164839 -4.51751e-21 0.000933459 -0.000235557 0.000192896 4.22519e-06
-0.0165151 2.71051e-20 8.91788e-08 0 0 0
0.0165151 0 8.91806e-08 0 0 0
0.0164768 9.03502e-21 0.00151147 -0.00196972 0.00170793 -1.88695e-05
-0.0164769 0 0.00151089 -0.000296044 0.000240054 7.09808e-06
0.0166394 0 9.23357e-08 0 0 0
-0.0166394 0 9.23334e-08 0 0 0
-0.0165053 0 0.00241002 0 0 0
0.0165054 1.35525e-20 0.00241002 0 0 0
0.0167038 2.71051e-20 0.000635416 -0.0010108 0.000885971 -9.23256e-06
-0.0167039 0 0.000634646 -0.000154005 0.000126546 3.44409e-06
0.0165943 5.64689e-22 0.00217414 -0.00132025 0.00106358 5.21535e-06
-0.0165943 1.12938e-21 0.00217395 -0.000191349 0.000139104 1.82243e-06
0.0167298 0 0.00122679 -0.0021572 0.00186511 -9.61737e-06
-0.0167299 0 0.00122589 -0.000332873 0.00026656 3.70292e-06
0.0166885 0 0.00181391 -0.00194349 0.0016928 6.47476e-06
-0.0166886 -2.71051e-20 0.00181341 -0.000299257 0.000239055 1.19276e-06
-0.0166608 -1.35525e-20 0.00246303 0 0 0
0.016661 0 0.00246306 0 0 0
0.0168423 -1.35525e-20 7.0937e-08 0 0 0
-0.0168423 1.35525e-20 7.09338e-08 0 0 0
0.0169749 -2.25875e-21 0.000303039 -0.000123862 0.000108326 -8.68084e-06
-0.016975 4.51751e-21 0.000302648 -2.22501e-05 1.86581e-05 5.56476e-07
-0.0168731 1.12938e-21 0.0022093 -0.000228348 0.000176798 5.20444e-07
0.0168731 1.12938e-21 0.00220951 -0.00153709 0.00133228 1.20007e-05
0.016996 -4.51751e-21 0.000918683 -0.00218901 0.00186236 2.43093e-05
-0.0169961 0 0.000917792 -0.000325147 0.00025081 6.28127e-07
0.0168625 -2.03288e-20 0.00253161 0 0 0
-0.0168625 0 0.00253162 0 0 0
0.0169886 -4.51751e-21 0.00152442 -0.0028461 0.00243592 -1.05884e-05
-0.0169887 4.51751e-21 0.00152371 -0.000433888 0.000332878 5.5249e-06
0.0170875 0 2.4605e-08 0 0 0
-0.0170875 0 2.46021e-08 0 0 0
0.0169822 4.51751e-21 0.00199465 -0.0022326 0.00193817 6.94891e-06
-0.0169822 4.51751e-21 0.00199427 -0.000341704 0.000265317 2.35334e-06
-0.0169516 -9.03502e-21 0.00241979 -0.000102912 8.244e-05 -1.14281e-06
0.0169517 9.03502e-21 0.00241989 -0.000705848 0.000628173 1.67612e-05
-0.0169616 -1.35525e-20 0.00256534 0 0 0
0.0169617 -2.03288e-20 0.00256538 0 0 0
0.0172725 2.71051e-20 0.000609814 -0.00126337 0.0010883 -6.05241e-07
-0.0172727 0 0.000608963 -0.000194016 0.000153554 1.57024e-06
0.017301 2.71051e-20 3.86873e-09 0 0 0
-0.0173011 2.71051e-20 3.86453e-09 0 0 0
0.0172756 0 0.0012186 -0.00278266 0.00238945 -6.25998e-06
-0.0172758 5.42101e-20 0.00121766 -0.000440237 0.000344136 4.80605e-06
0.0172503 0 0.00183262 -0.00272898 0.00236429 -1.24545e-06
-0.0172504 2.71051e-20 0.00183214 -0.000442722 0.000344381 6.27228e-06
-0.0171625 0 0.00263367 0 0 0
0.0171625 0 0.00263369 0 0 0
-0.0172627 -3.38813e-21 0.00228337 -0.000290069 0.000227731 4.04777e-06
0.0172628 -5.64689e-22 0.00228356 -0.0018842 0.00165904 8.31674e-06
0.0175152 -1.35525e-20 3.90438e-09 0 0 0
-0.0175152 0 3.90115e-09 0 0 0
0.0176166 -6.77626e-21 0.000304265 -0.000222084 0.00019392 -6.28898e-07
-0.0176168 4.51751e-21 0.000303958 -2.76292e-05 2.22552e-05 2.49079e-07
0.0176138 1.12938e-21 0.000914505 -0.00272741 0.00236514 8.43951e-07
-0.0176139 0 0.000913847 -0.000410292 0.000324055 3.67653e-06
0.0175986 1.12938e-21 0.00154662 -0.00369859 0.00320203 -8.29984e-06
-0.0175987 1.12938e-21 0.0015461 -0.000579068 0.000452775 8.40613e-06
0.0174824 0 0.00274279 0 0 0
-0.0174824 -1.01644e-20 0.0027428 0 0 0
-0.0174954 -1.69407e-21 0.00274721 0 0 0
0.0174955 3.72694e-20 0.00274726 0 0 0
0.0177275 -1.35525e-20 5.30347e-09 0 0 0
-0.0177276 4.06576e-20 5.30237e-09 0 0 0
-0.0176266 -1.807e-20 0.00211798 -0.000475839 0.000369313 9.29198e-06
0.0176266 2.25875e-21 0.00211823 -0.00297302 0.00259194 2.28301e-06
-0.0175733 2.25875e-21 0.00255362 -0.00020633 0.000158805 7.16794e-06
0.0175734 -4.51751e-21 0.0025537 -0.00134002 0.00117068 -5.36732e-06
0.0179395 0 5.36713e-09 0 0 0
-0.0179395 0 5.36695e-09 0 0 0
0.0179446 -2.71051e-20 0.000602236 -0.00149413 0.00130276 1.55672e-06
-0.0179448 -2.71051e-20 0.000601852 -0.000233024 0.000183671 1.88955e-06
0.0179404 2.71051e-20 0.00122938 -0.00349784 0.00303393 -3.23026e-07
-0.0179405 0 0.00122893 -0.000566665 0.000442711 7.29876e-06
-0.0179 -2.71051e-20 0.00190852 -0.000598049 0.000460428 1.02607e-05
0.0179 -2.71051e-20 0.00190875 -0.00350922 0.00303421 1.18548e-05
-0.0177928 0 0.00284873 0 0 0
0.0177928 2.71051e-20 0.00284875 0 0 0
-0.0179476 2.71051e-20 0.0024258 -0.000411771 0.000316412 7.35899e-06
0.0179477 2.71051e-20 0.00242589 -0.00242915 0.002115 2.47333e-05
0.0181451 0 4.40341e-09 0 0 0
-0.0181451 0 4.40324e-09 0 0 0
-0.0180159 4.06576e-20 0.00292502 0 0 0
0.018016 0 0.00292506 0 0 0
0.0182715 -2.25875e-21 0.000300999 -0.000281377 0.00024606 2.23136e-06
-0.0182716 -4.51751e-21 0.000300875 -4.48963e-05 3.56922e-05 3.28495e-07
0.0182775 0 0.000913342 -0.00305814 0.00266947 -8.53247e-07
-0.0182775 -6.77626e-21 0.00091307 -0.000487227 0.000384436 4.37101e-06
-0.0182702 -4.51751e-21 0.00156202 -0.000723525 0.000564079 1.03642e-05
0.0182702 2.25875e-21 0.00156224 -0.0042721 0.00368954 2.44456e-06
-0.0182366 -1.12938e-20 0.00214879 -0.000650029 0.000501004 9.25545e-06
0.0182366 4.51751e-21 0.00214891 -0.00374629 0.00323429 3.2499e-05
0.0181444 -6.77626e-21 0.00296949 0 0 0
-0.0181446 -6.77626e-21 0.00296953 0 0 0
-0.0181872 -6.77626e-22 0.00270867 -0.000282602 0.000222674 4.62206e-06
0.0181872 6.77626e-22 0.00270873 -0.00166188 0.0014814 3.31891e-05
0.0183921 1.35525e-20 2.43155e-09 0 0 0
-0.0183922 1.35525e-20 2.43148e-09 0 0 0
-0.0185886 0 1.46532e-09 0 0 0
0.0185886 0 1.46539e-09 0 0 0
-0.0183446 -1.35525e-20 0.00303802 0 0 0
0.0183446 0 0.00303804 0 0 0
0.0185996 -2.71051e-20 0.000595038 -0.0016667 0.00146063 4.71473e-06
-0.0185997 0 0.000594918 -0.000274385 0.000216751 1.62196e-06
-0.0186737 1.16165e-20 0.00129278 -0.000760919 0.000594509 9.44258e-06
0.0186737 1.16165e-20 0.00129291 -0.004281 0.0036953 1.58438e-06
-0.0187703 -1.35525e-20 1.23409e-09 0 0 0
0.0187703 1.35525e-20 1.23413e-09 0 0 0
0.0185175 2.03288e-20 0.00309812 0 0 0
-0.0185175 6.77626e-21 0.00309812 0 0 0
-0.0187148 -4.51751e-21 0.00187601 -0.000834317 0.000646611 1.29081e-05
0.0187148 4.51751e-21 0.00187608 -0.0045236 0.00388578 1.73089e-05
-0.0186674 7.52918e-21 0.00253515 -0.000553121 0.000425369 8.22712e-06
0.0186674 -3.01167e-21 0.00253519 -0.00300562 0.00260086 4.26101e-05
0.018823 -1.35525e-20 0.000903657 -0.00322943 0.00283016 8.42755e-06
-0.018823 4.51751e-21 0.00090356 -0.000546153 0.000431451 3.10119e-06
0.0188705 -4.51751e-21 0.0002483 -0.000229543 0.000201372 1.53695e-07
-0.0188706 2.25875e-21 0.000248266 -3.78568e-05 3.00753e-05 4.00719e-07
-0.0186437 0 0.002939 -0.000259498 0.000196645 2.59789e-06
0.0186438 0 0.00293906 -0.00146187 0.00126575 3.24966e-05
-0.0189391 2.71051e-20 0.00154412 -0.000908225 0.000707748 1.22493e-05
0.0189391 2.71051e-20 0.00154419 -0.0049081 0.00420756 -3.04005e-06
0.0187701 -9.74088e-21 0.00318665 -4.3496e-06 4.09384e-06 1.56845e-07
-0.0187699 -8.47033e-22 0.00318654 -7.17535e-07 5.97573e-07 4.3844e-09
0.0188367 -1.35525e-20 0.00285269 -0.00208356 0.00185978 5.47992e-05
-0.0188367 -1.35525e-20 0.00285269 -0.00038588 0.000302883 4.2288e-06
0.0190684 0 6.42265e-10 0 0 0
-0.0190684 1.35525e-20 6.42229e-10 0 0 0
-0.018947 0 0.00220299 -0.000879991 0.000680071 1.5011e-05
0.018947 0 0.00220303 -0.00458149 0.00392762 3.54944e-05
-0.0189611 -6.77626e-21 0.00294132 -0.000359953 0.000288376 3.39804e-06
0.0189611 -6.77626e-21 0.00294137 -0.00190114 0.00174241 6.45031e-05
-0.0192376 0 4.16948e-10 0 0 0
0.0192376 -2.71051e-20 4.16969e-10 0 0 0
0.0192505 -2.25875e-21 0.000578858 -0.0017379 0.00153176 4.44139e-06
-0.0192506 1.12938e-20 0.000578833 -0.000304243 0.000242698 1.58231e-06
-0.0192654 -6.77626e-21 0.00120337 -0.000793539 0.000625143 8.52454e-06
0.0192654 -4.51751e-21 0.0012034 -0.00427875 0.00369855 9.97342e-07
-0.0192728 4.51751e-21 0.00186871 -0.000985293 0.000766916 1.55602e-05
0.0192728 1.12938e-20 0.00186874 -0.00496865 0.00423143 1.95952e-05
-0.0190865 0 0.00329541 0 0 0
0.0190867 2.71051e-20 0.00329547 0 0 0
-0.0193938 0 3.58644e-10 0 0 0
0.0193938 -2.71051e-20 3.58662e-10 0 0 0
0.0193936 -2.71051e-20 0.000130553 -3.39603e-06 2.9665e-06 1.07185e-06
-0.0193936 1.35525e-20 0.000130545 -3.23453e-06 2.58567e-06 4.10011e-08
-0.0191339 1.35525e-20 0.00323263 -0.000101923 7.93334e-05 5.48381e-07
0.019134 0 0.00323272 -0.000530181 0.000482027 2.2357e-05
-0.0192591 4.51751e-21 0.00254519 -0.000771392 0.000598074 1.23647e-05
0.0192591 2.25875e-21 0.00254522 -0.00377238 0.00325292 6.42763e-05
-0.0192048 0 0.003336 0 0 0
0.0192049 1.35525e-20 0.00333604 0 0 0
-0.0193217 4.51751e-22 0.00298746 -0.00046463 0.000363949 4.97256e-06
0.0193218 -9.03502e-22 0.0029875 -0.00231568 0.0020585 7.27266e-05
0.0195688 0 0.000280898 -1.23128e-05 1.09569e-05 1.75257e-06
-0.0195688 2.71051e-20 0.00028089 -6.75896e-06 5.40194e-06 1.56163e-07
0.0195891 -2.71051e-20 0.000871761 -0.0035623 0.00314697 5.38524e-06
-0.0195891 5.42101e-20 0.000871755 -0.00063933 0.000513819 3.50209e-06
-0.019374 0 0.0032822 -0.00016402 0.000131238 1.08523e-06
0.019374 -1.35525e-20 0.00328227 -0.000786871 0.000734889 4.10642e-05
-0.0196057 -2.71051e-20 0.00151348 -0.00105159 0.000824212 1.59592e-05
0.0196057 0 0.0015135 -0.00521396 0.00442223 -1.06157e-05
-0.0193742 -2.71051e-20 0.00339404 0 0 0
0.0193743 0 0.00339406 0 0 0
-0.0196063 2.71051e-20 0.0021914 -0.0011108 0.000863655 1.89236e-05
0.0196063 2.71051e-20 0.00219141 -0.00521 0.00440172 5.58505e-05
0.0197445 0 1.1881e-10 0 0 0
-0.0197445 0 1.1881e-10 0 0 0
0.0197496 1.35525e-20 0.000118775 -3.08964e-06 2.69886e-06 9.75146e-07
-0.0197497 2.71051e-20 0.000118767 -2.9427e-06 2.35239e-06 3.73019e-08
-0.0196349 0 0.00277709 -0.000802045 0.000626887 1.16919e-05
0.019635 0 0.00277712 -0.00374304 0.00327929 0.000100721
-0.0195953 1.35525e-20 0.00324376 -0.000315216 0.000254705 6.8039e-07
0.0195954 0 0.0032438 -0.00158294 0.00147666 8.18067e-05
-0.0198869 1.35525e-20 6.23641e-11 0 0 0
0.0198869 1.35525e-20 6.23597e-11 0 0 0
0.0199025 0 0.000551642 -0.00173421 0.00153287 7.02711e-06
-0.0199025 6.77626e-21 0.00055164 -0.000318784 0.000254875 1.68878e-06
-0.0196372 -2.71051e-20 0.00348423 0 0 0
0.0196374 0 0.0034843 0 0 0
-0.0199263 7.90564e-21 0.00116493 -0.000880254 0.00069578 1.03147e-05
0.0199263 -2.25875e-21 0.00116493 -0.00442494 0.00379557 2.96447e-06
-0.0197065 0 0.0033997 -0.000158921 0.000127158 1.0515e-06
0.0197066 1.35525e-20 0.00339978 -0.000762649 0.000712267 3.98002e-05
-0.0200175 0 0.000104927 -2.65314e-06 2.10767e-06 1.84757e-07
0.0200175 -1.35525e-20 0.000104918 -4.82836e-07 -3.82853e-09 -6.89813e-07
-0.020018 0 5.47768e-11 0 0 0
0.0200181 0 5.47745e-11 0 0 0
-0.0199354 0 0.00184109 -0.00117433 0.000919732 1.99778e-05
0.0199355 -5.64689e-21 0.0018411 -0.00540842 0.00452645 3.79971e-05
-0.0199397 0 0.00250609 -0.00106909 0.000835424 1.87288e-05
0.0199397 -1.12938e-21 0.0025061 -0.00476091 0.00405186 0.000111749
-0.0198048 -1.35525e-20 0.00354162 0 0 0
0.0198049 2.71051e-20 0.00354168 0 0 0
-0.0199176 0 0.00307583 -0.000638232 0.000503293 9.24457e-06
0.0199177 2.25875e-21 0.00307587 -0.00286446 0.00256523 0.000118123
-0.0202108 0 0.000262551 -6.61591e-06 5.21583e-06 5.38194e-07
0.0202108 2.71051e-20 0.000262544 -4.89803e-06 3.47249e-06 -2.59508e-06
-0.0202372 2.71051e-20 0.000828952 -0.000650926 0.00051828 2.71563e-06
0.0202372 0 0.00082895 -0.00352126 0.00311149 2.65231e-05
-0.0199793 1.35525e-20 0.00344741 -0.000249466 0.000202111 2.09134e-06
0.0199793 -1.35525e-20 0.00344747 -0.00104716 0.00101086 7.19951e-05
-0.0199876 -6.77626e-21 0.00360417 0 0 0
0.0199877 1.35525e-20 0.00360422 0 0 0
-0.0202612 -2.71051e-20 0.00146953 -0.00119167 0.000937316 1.94691e-05
0.0202612 0 0.00146953 -0.00545445 0.00454282 -7.62659e-06
-0.0202614 -2.71051e-20 0.00216708 -0.00134971 0.00105934 2.5623e-05
0.0202614 2.71051e-20 0.0021671 -0.00577009 0.00475082 0.000114391
-0.020424 0 1.48382e-11 0 0 0
0.0204241 0 1.48336e-11 0 0 0
-0.0204263 -1.35525e-20 8.83618e-05 -2.23429e-06 1.77493e-06 1.55589e-07
0.0204264 0 8.83583e-05 -4.06627e-07 -3.22426e-09 -5.80936e-07
-0.0201258 -2.71051e-20 0.00365147 0 0 0
0.020126 2.03288e-20 0.00365154 0 0 0
-0.0202574 -2.71051e-20 0.00283409 -0.00106057 0.000828283 1.97938e-05
0.0202575 5.42101e-20 0.00283411 -0.00447925 0.00389455 0.000178737
-0.02023 -1.35525e-20 0.00346726 -0.000344722 0.000278558 3.54773e-06
0.0202301 -8.13152e-21 0.00346732 -0.00147839 0.0014186 9.53294e-05
-0.0205366 0 8.07587e-12 0 0 0
0.0205367 -1.35525e-20 8.0725e-12 0 0 0
-0.0205431 -1.12938e-21 0.000507235 -0.000302428 0.000247415 4.83521e-06
0.0205431 1.12938e-21 0.000507233 -0.00164886 0.00146439 8.22636e-06
-0.0205806 1.12938e-21 0.00109806 -0.000923554 0.000734623 1.60184e-05
0.0205806 -1.12938e-21 0.00109806 -0.00446085 0.003775 1.52525e-05
-0.0206332 0 7.2332e-05 -1.33539e-06 1.01582e-06 7.09058e-07
0.0206332 0 7.23425e-05 -1.08875e-05 1.66233e-05 -2.18175e-05
-0.0206362 0 7.47893e-12 0 0 0
0.0206362 1.35525e-20 7.47568e-12 0 0 0
-0.0203258 -1.35525e-20 0.00371988 0 0 0
0.020326 2.71051e-20 0.00371994 0 0 0
-0.0205919 -2.25875e-21 0.00179229 -0.00135099 0.00106116 2.45812e-05
0.0205919 -3.38813e-21 0.00179229 -0.00580391 0.00472449 7.82272e-05
-0.0205776 1.12938e-21 0.00251302 -0.00133587 0.00104578 2.42065e-05
0.0205777 0 0.00251303 -0.00542534 0.00451671 0.000205095
-0.0204396 1.35525e-20 0.00376155 0 0 0
0.0204398 0 0.00376163 0 0 0
-0.0204726 -1.35525e-20 0.00364922 -0.000230943 0.00016929 2.46619e-06
0.0204728 4.06576e-20 0.00364928 -0.000937983 0.000853503 7.00357e-05
-0.0205732 -1.50584e-21 0.00324396 -0.000789382 0.000616608 1.26092e-05
0.0205733 -2.25875e-21 0.003244 -0.003152 0.00284885 0.000204782
-0.0208433 -2.71051e-20 0.000231572 -5.10637e-06 4.25503e-06 1.40561e-06
0.0208434 2.71051e-20 0.000231569 -3.38681e-05 4.49799e-05 -4.35872e-05
-0.0208763 -2.71051e-20 0.000747796 -0.000584867 0.000492325 1.47449e-05
0.0208763 0 0.000747794 -0.00323216 0.00286879 5.02061e-05
-0.0209307 2.71051e-20 0.00137566 -0.00127078 0.000996632 2.72552e-05
0.0209307 2.71051e-20 0.00137566 -0.00566028 0.00459605 6.79271e-07
-0.0206256 0 0.00382199 0 0 0
0.0206258 6.77626e-21 0.00382207 0 0 0
-0.0209018 2.71051e-20 0.00213753 -0.00159024 0.00125014 2.65815e-05
0.0209018 -2.71051e-20 0.00213753 -0.00632593 0.00500534 0.000201975
-0.0207137 0 0.00385276 0 0 0
0.0207138 0 0.00385283 0 0 0
-0.0208885 0 0.00285883 -0.00137864 0.00107323 2.55761e-05
0.0208886 0 0.00285885 -0.00523937 0.00448863 0.000328193
-0.0207601 -6.77626e-21 0.00376298 -0.000191535 0.000159066 4.31177e-07
0.0207602 0 0.00376308 -0.000753343 0.000791921 7.93599e-05
0.0211429 9.03502e-21 0.0004345 -0.00147461 0.00136568 -3.77868e-05
-0.0211429 3.01167e-21 0.000434502 -0.000213865 0.000172716 2.51999e-06
-0.020841 -5.27043e-21 0.00362679 -0.000498764 0.000403416 2.92984e-06
0.0208411 2.25875e-21 0.00362684 -0.00192149 0.00196665 0.000201842
-0.0208387 -6.77626e-21 0.00389825 0 0 0
0.0208388 1.35525e-20 0.0038983 0 0 0
-0.0212597 0 5.25669e-13 0 0 0
0.0212601 -1.05879e-20 5.19801e-13 0 0 0
-0.0212767 2.5411e-21 1.41099e-05 -6.99735e-06 5.55508e-06 7.83483e-08
-0.0212768 0 1.74179e-06 -2.52448e-08 2.1224e-08 -7.91868e-09
0.0212769 -8.47033e-21 1.38726e-05 -4.68149e-05 4.34437e-05 -1.59544e-06
0.0212813 0 1.45875e-06 -2.44402e-07 2.86145e-07 1.79529e-07
0.0212895 0 2.69474e-13 0 0 0
-0.0212896 0 2.7104e-13 0 0 0
-0.0212723 -5.64689e-22 0.000878984 -0.000732058 0.000578777 1.14667e-05
0.0212724 -2.25875e-21 0.000878975 -0.00371321 0.00314424 -5.88032e-05
-0.0212427 -1.12938e-22 0.00171816 -0.00148604 0.0011694 2.67721e-05
0.0212427 9.03502e-22 0.00171814 -0.00615841 0.00482759 0.00011648
-0.0212146 1.12938e-21 0.00249693 -0.00162897 0.00127191 3.38514e-05
0.0212146 -1.12938e-21 0.00249694 -0.00613462 0.00494197 0.000333601
-0.0210353 0 0.00398139 0 0 0
0.0210355 0 0.00398146 0 0 0
-0.021178 2.25875e-21 0.00323686 -0.00114406 0.000888633 2.3656e-05
0.0211781 0 0.00323687 -0.00408138 0.00365138 0.000357004
-0.0210737 1.35525e-20 0.00393726 -0.000112957 8.78746e-05 6.14797e-07
0.0210738 0 0.00393731 -0.00040817 0.000425003 6.22077e-05
-0.0211186 1.35525e-20 0.00402021 0 0 0
0.0211188 0 0.0040203 0 0 0
-0.0212476 8.06698e-23 0.00368161 -0.000690719 0.000539758 1.08204e-05
0.0212478 -4.03349e-22 0.00368166 -0.00244145 0.00239778 0.000288026
-0.0215747 0 0.00130736 -0.00135873 0.00107989 1.42334e-05
0.0215747 2.71051e-20 0.00130737 -0.00596868 0.00466732 -1.79154e-05
-0.0212486 1.35525e-20 0.00397488 -0.000206854 0.000162494 3.27568e-06
0.0212488 0 0.00397493 -0.000669501 0.000730962 0.000119751
-0.0212527 1.35525e-20 0.00408538 0 0 0
0.021253 -6.77626e-21 0.00408549 0 0 0
-0.0216407 7.52918e-22 0.00033173 -2.75713e-05 2.74571e-05 1.18116e-05
0.0216408 7.52918e-22 0.000331723 -0.00115415 0.00126748 -4.64678e-05
-0.0215441 -2.71051e-20 0.00209926 -0.00183165 0.0014349 4.14138e-05
0.0215442 2.71051e-20 0.00209926 -0.00702485 0.00528252 0.000300969
-0.0215225 2.71051e-20 0.00284518 -0.00172959 0.00134089 4.21185e-05
0.0215225 0 0.0028452 -0.0060115 0.00501904 0.000500028
-0.0217961 0 7.94919e-14 0 0 0
0.0217961 1.35525e-20 7.91737e-14 0 0 0
-0.0215506 -2.71051e-20 0.00347094 -0.00118751 0.000925203 2.67139e-05
0.0215507 0 0.00347097 -0.00396744 0.00379222 0.000450128
-0.0214959 0 0.00395189 -0.0004743 0.000376641 4.93286e-06
0.0214961 1.35525e-20 0.00395193 -0.00162002 0.00175191 0.0002818
-0.0214983 6.77626e-21 0.00420475 0 0 0
0.0214984 6.77626e-21 0.00420479 0 0 0
-0.0218606 -1.41172e-22 0.00170493 -0.00168317 0.00131896 3.22271e-05
0.0218606 8.9409e-22 0.0017049 -0.00683946 0.00510324 0.000205721
-0.0219212 -3.38813e-21 0.000827127 -0.000732785 0.000568836 8.87331e-06
0.0219212 4.51751e-22 0.00082711 -0.0037601 0.00306393 -8.93442e-05
-0.0219609 1.35525e-20 4.02034e-14 0 0 0
0.021961 -1.35525e-20 4.01314e-14 0 0 0
-0.0218494 -1.12938e-21 0.00247003 -0.00193495 0.00150648 4.98144e-05
0.0218494 -5.64689e-22 0.00247004 -0.00691109 0.00534215 0.000491798
-0.0216145 1.35525e-20 0.00413981 -0.000231422 0.000181793 3.66472e-06
0.0216145 1.35525e-20 0.00413983 -0.000748966 0.000817721 0.000133964
-0.0216502 1.35525e-20 0.00427857 0 0 0
0.0216503 0 0.00427863 0 0 0
-0.0218421 -1.69407e-21 0.00317495 -0.00163158 0.00126609 4.49031e-05
0.0218422 -3.38813e-21 0.00317496 -0.00531464 0.00467485 0.000591187
-0.0217324 0 0.00431835 0 0 0
0.0217325 0 0.00431843 0 0 0
-0.0217583 -1.35525e-20 0.00423555 -0.000195177 0.000145405 3.44075e-06
0.0217584 1.35525e-20 0.0042356 -0.000607246 0.000646504 0.000101736
-0.0221733 0 2.81576e-14 0 0 0
0.0221735 -6.77626e-21 2.80965e-14 0 0 0
-0.021866 7.05861e-23 0.00385234 -0.000881171 0.000689817 2.1956e-05
0.0218668 0 0.00385247 -0.00274993 0.00283742 0.000436623
-0.0222021 -2.71051e-20 0.00129532 -0.00146738 0.00114167 1.80137e-05
0.0222022 -2.71051e-20 0.00129532 -0.0066456 0.00486854 7.93611e-05
0.0222506 -7.05861e-23 0.000330091 -0.000702473 0.000709743 2.67512e-05
-0.0222517 -3.5293e-23 0.000328747 -4.90306e-06 -1.207e-05 1.18601e-05
-0.0221694 5.42101e-20 0.00208071 -0.00208497 0.00162649 5.49242e-05
0.0221694 0 0.00208072 -0.00787229 0.00562567 0.000438445
-0.0218631 -1.35525e-20 0.00438174 0 0 0
0.0218633 1.35525e-20 0.00438183 0 0 0
0.0223211 0 1.21342e-14 0 0 0
-0.0223212 6.77626e-21 1.21355e-14 0 0 0
-0.0221597 -5.42101e-20 0.00282094 -0.00209649 0.00162609 6.07113e-05
0.0221598 0 0.00282094 -0.00677125 0.00545061 0.000722442
-0.0221457 -2.71051e-20 0.00350913 -0.00158997 0.00123043 5.31183e-05
0.0221457 2.71051e-20 0.00350915 -0.00472712 0.00457171 0.000714852
-0.0220148 -2.03288e-20 0.00445531 0 0 0
0.0220149 6.77626e-21 0.00445537 0 0 0
-0.0225415 0 1.22277e-15 0 0 0
0.0225416 0 1.23378e-15 0 0 0
-0.0221394 0 0.00425961 -0.000483392 0.000400991 8.18066e-06
0.0221395 1.12938e-21 0.00425967 -0.00142168 0.00185472 0.000345818
-0.0224964 -2.96462e-20 0.00168456 -0.00184752 0.00144296 4.27833e-05
0.0224964 -4.23516e-22 0.0016846 -0.00759094 0.0053434 0.000308689
-0.0225021 0 0.00168479 -0.00185149 0.00144619 4.31632e-05
0.0225021 0 0.00168483 -0.00760252 0.00534912 0.000311812
0.0225129 0 0.00168799 -0.00761942 0.00535391 0.000314163
-0.022513 0 0.00168798 -0.00185456 0.00144874 4.34211e-05
-0.022576 5.42101e-21 0.000874276 -0.00083318 0.000643863 6.95436e-06
0.0225761 4.51751e-21 0.000874269 -0.00431121 0.00327035 -1.85583e-05
-0.0225135 -1.6134e-22 0.00242345 -0.00218459 0.00170294 6.48398e-05
0.0225136 8.87368e-22 0.00242345 -0.00757747 0.00562618 0.000652145
-0.0224593 -1.12938e-21 0.00318123 -0.00202874 0.00157229 6.41542e-05
0.0224593 0 0.00318124 -0.00606371 0.00523414 0.000837572
-0.0223019 -3.38813e-21 0.00459436 0 0 0
0.022302 -3.38813e-21 0.00459437 0 0 0
-0.0224349 -9.03502e-22 0.00390505 -0.00124637 0.000974661 4.13404e-05
0.022435 6.77626e-21 0.00390508 -0.00340628 0.00361752 0.000683978
-0.0228059 -1.27055e-20 8.70915e-16 0 0 0
0.0228061 4.23516e-22 8.77264e-16 0 0 0
-0.022811 -8.47033e-22 2.46647e-05 -2.90041e-07 4.5983e-07 1.65029e-06
0.0228111 0 2.39222e-05 -8.7408e-05 7.90838e-05 -4.84742e-06
-0.0223412 0 0.00461337 0 0 0
0.0223413 3.38813e-21 0.00461342 0 0 0
0.0228141 4.23516e-22 8.58194e-16 0 0 0
-0.0228142 2.5411e-20 8.51408e-16 0 0 0
-0.0228118 -5.64689e-22 0.000334117 -8.80256e-05 7.19354e-05 1.77543e-05
0.0228118 5.64689e-22 0.000334137 -0.00142953 0.00122574 -5.21123e-05
-0.022347 0 0.00460685 -1.95879e-05 1.57211e-05 1.01607e-07
0.0223471 0 0.00460689 -5.4217e-05 6.81729e-05 1.55659e-05
-0.0223545 0 0.00461977 0 0 0
0.0223546 0 0.00461984 0 0 0
-0.0223623 -3.38813e-21 0.00458505 -7.56027e-05 6.00998e-05 2.41601e-06
0.0223624 1.69407e-21 0.00458505 -0.000194804 0.000240525 5.00596e-05
-0.0223809 0 0.0046121 -4.23794e-05 3.46665e-05 1.66786e-06
0.022381 0 0.00461216 -0.000107326 0.000151908 3.6926e-05
-0.0223957 -1.69407e-21 0.00463972 0 0 0
0.0223958 0 0.00463983 0 0 0
-0.0225314 1.35525e-20 0.00433167 -0.000745357 0.000604977 2.23188e-05
0.0225315 0 0.00433171 -0.00194235 0.00248252 0.000531214
-0.0227767 -2.71051e-20 0.00282452 -0.00242929 0.0018866 7.75013e-05
0.0227767 0 0.00282454 -0.00743241 0.00574424 0.000884476
-0.0229169 2.71051e-20 0.00145351 -0.00184426 0.0014399 4.57825e-05
0.022917 0 0.00145354 -0.0079091 0.00537856 0.000248417
-0.0229127 2.71051e-20 0.001952 -0.00221455 0.00173825 7.44228e-05
0.0229127 0 0.001952 -0.00876016 0.00588822 0.000524007
-0.0227583 0 0.00352775 -0.00202777 0.00156882 6.5983e-05
0.0227583 -2.71051e-20 0.00352777 -0.00543467 0.00521251 0.00102725
-0.0226788 1.35525e-20 0.00436549 -0.000815309 0.000660088 3.00573e-05
0.0226789 -6.77626e-21 0.00436553 -0.00204751 0.00264924 0.000583973
-0.0231146 0 6.24631e-16 0 0 0
0.0231146 0 6.26477e-16 0 0 0
-0.0231263 5.64689e-22 0.000857356 -0.000789355 0.000617445 1.37126e-05
0.0231264 1.12938e-21 0.000857382 -0.00445052 0.00322465 9.32267e-05
-0.0231204 0 0.00168686 -0.0020532 0.00161232 6.10359e-05
0.0231204 0 0.00168687 -0.00854994 0.00566383 0.000431401
-0.0226912 0 0.00478277 0 0 0
0.0226912 1.35525e-20 0.00478283 0 0 0
-0.0231332 4.23516e-22 0.00244156 -0.00249896 0.00194543 8.14011e-05
0.0231332 -8.47033e-22 0.00244157 -0.00830464 0.0058741 0.000779307
-0.0227888 -1.35525e-20 0.00466799 -0.000335441 0.000274392 1.32014e-05
0.0227889 -1.35525e-20 0.00466803 -0.000848001 0.00120025 0.000291759
-0.0230834 -1.12938e-21 0.00317456 -0.00243052 0.00188062 8.12985e-05
0.0230835 1.12938e-21 0.00317458 -0.00673009 0.0056165 0.00101933
-0.023319 0 3.10972e-16 0 0 0
0.0233191 6.77626e-21 3.12101e-16 0 0 0
-0.0230283 9.03502e-21 0.00391292 -0.00174646 0.00134985 6.52432e-05
0.0230284 0 0.00391294 -0.00422972 0.00444428 0.000960252
-0.02333 2.71051e-20 0.00142276 -0.00188505 0.00148952 5.64765e-05
0.02333 0 0.00142278 -0.00848455 0.00553229 0.000360451
-0.0233168 0 0.00194192 -0.00236703 0.00185581 7.91337e-05
0.0233168 2.71051e-20 0.00194194 -0.009358 0.0060685 0.00057147
-0.0228965 -2.71051e-20 0.0048822 0 0 0
0.0228966 0 0.00488226 0 0 0
-0.0234102 2.25875e-21 0.000267243 -1.65043e-05 1.48703e-05 1.99576e-05
0.0234102 -4.51751e-21 0.000267244 -0.00123488 0.00118129 1.76615e-05
-0.0229986 7.52918e-22 0.0043906 -0.00107105 0.000835102 4.0235e-05
0.0229987 -3.76459e-21 0.00439064 -0.00248559 0.00311943 0.000741135
0.0235162 1.35525e-20 1.75957e-16 0 0 0
-0.0235162 6.77626e-21 1.74954e-16 0 0 0
-0.0234234 2.71051e-20 0.00278585 -0.0027814 0.00214985 9.17719e-05
0.0234234 0 0.00278586 -0.00812185 0.00592279 0.000951145
-0.0230651 1.35525e-20 0.00496382 0 0 0
0.0230652 -2.71051e-20 0.00496388 0 0 0
-0.0233787 2.71051e-20 0.00352562 -0.00249233 0.00192534 8.9003e-05
0.0233787 -2.71051e-20 0.00352564 -0.00601424 0.0056015 0.00121415
-0.0237161 1.35525e-20 -1.12817e-16 0 0 0
0.0237161 1.35525e-20 -1.126e-16 0 0 0
-0.0232668 -3.61401e-21 0.00471662 -0.000744651 0.000583093 2.62805e-05
0.0232669 -1.35525e-21 0.00471667 -0.00159911 0.00228065 0.000647792
-0.0233857 2.71051e-20 0.00417634 -0.00177576 0.00136129 7.09229e-05
0.0233857 -2.71051e-20 0.00417637 -0.00383952 0.00458158 0.00110288
-0.0232203 -6.77626e-21 0.00503892 0 0 0
0.0232204 -1.35525e-20 0.00503899 0 0 0
-0.0237642 -2.82344e-21 0.000871716 -0.000886718 0.000709121 2.26348e-05
0.0237642 2.82344e-22 0.000871732 -0.00506283 0.00343345 0.00016311
-0.0237897 -2.71051e-20 9.69712e-05 -8.5814e-06 3.85204e-06 -7.51792e-06
0.0237897 1.35525e-20 9.70283e-05 -0.000550543 0.000371966 1.98394e-05