# Force       
# CofR        : (0.000000e+00 0.000000e+00 0.000000e+00)
#
# Time        	(total_x total_y total_z)	(pressure_x pressure_y pressure_z)	(viscous_x viscous_y viscous_z)
4050          	(4.831388e+00 -2.664640e-04 1.825008e-01)	(4.812362e+00 -2.651046e-04 1.828094e-01)	(1.902674e-02 -1.359425e-06 -3.085983e-04)
4051          	(7.944187e+00 -1.135714e-03 3.191817e-01)	(7.921019e+00 -1.133023e-03 3.191762e-01)	(2.316746e-02 -2.691797e-06 5.483962e-06)
4052          	(8.102770e+00 -2.926450e-03 4.713934e-01)	(8.074155e+00 -2.917270e-03 4.715603e-01)	(2.861547e-02 -9.180594e-06 -1.668985e-04)
4053          	(6.480519e+00 -1.444823e-03 7.233363e-01)	(6.449080e+00 -1.432730e-03 7.230778e-01)	(3.143898e-02 -1.209259e-05 2.585337e-04)
4054          	(3.852281e+00 -1.123134e-03 9.520798e-01)	(3.821441e+00 -1.108511e-03 9.508052e-01)	(3.083981e-02 -1.462360e-05 1.274592e-03)
4055          	(1.283455e+00 -9.056919e-04 1.095344e+00)	(1.257080e+00 -8.878697e-04 1.091858e+00)	(2.637548e-02 -1.782227e-05 3.486484e-03)
4056          	(-5.537612e-01 -2.493326e-04 1.127994e+00)	(-5.746575e-01 -2.327818e-04 1.123129e+00)	(2.089628e-02 -1.655077e-05 4.865294e-03)
4057          	(-1.349360e+00 9.296660e-04 1.066960e+00)	(-1.364833e+00 9.422115e-04 1.060766e+00)	(1.547325e-02 -1.254550e-05 6.193734e-03)
4058          	(-1.269759e+00 -3.249758e-04 9.630844e-01)	(-1.281365e+00 -3.118214e-04 9.560004e-01)	(1.160525e-02 -1.315445e-05 7.084009e-03)
4059          	(-5.445282e-01 -1.660301e-03 7.934422e-01)	(-5.544409e-01 -1.643878e-03 7.859465e-01)	(9.912744e-03 -1.642266e-05 7.495672e-03)
4060          	(4.324791e-01 -1.584757e-03 6.391972e-01)	(4.225802e-01 -1.566663e-03 6.317491e-01)	(9.898895e-03 -1.809416e-05 7.448148e-03)
4061          	(1.066116e+00 -3.166859e-04 5.347828e-01)	(1.055384e+00 -3.024540e-04 5.277771e-01)	(1.073265e-02 -1.423195e-05 7.005704e-03)
4062          	(1.535404e+00 9.618775e-04 4.982649e-01)	(1.523518e+00 9.687939e-04 4.917947e-01)	(1.188537e-02 -6.916369e-06 6.470197e-03)
4063          	(1.774523e+00 1.775733e-03 5.205070e-01)	(1.761558e+00 1.775272e-03 5.144609e-01)	(1.296470e-02 4.609834e-07 6.046126e-03)
4064          	(1.768269e+00 2.406273e-03 5.778779e-01)	(1.754603e+00 2.398466e-03 5.720531e-01)	(1.366579e-02 7.806379e-06 5.824752e-03)
4065          	(1.669378e+00 2.464508e-03 6.519252e-01)	(1.655385e+00 2.451625e-03 6.460988e-01)	(1.399305e-02 1.288277e-05 5.826446e-03)
4066          	(1.518528e+00 2.169617e-03 7.182836e-01)	(1.504494e+00 2.154137e-03 7.123033e-01)	(1.403389e-02 1.547921e-05 5.980398e-03)
4067          	(1.346866e+00 1.266616e-03 7.624611e-01)	(1.333013e+00 1.252555e-03 7.562452e-01)	(1.385324e-02 1.406165e-05 6.215856e-03)
4068          	(1.190323e+00 2.118426e-04 7.809032e-01)	(1.176806e+00 2.024731e-04 7.744483e-01)	(1.351651e-02 9.369591e-06 6.454969e-03)
4069          	(1.001068e+00 -3.848206e-04 7.741942e-01)	(9.880829e-01 -3.898556e-04 7.675267e-01)	(1.298556e-02 5.035023e-06 6.667513e-03)
4070          	(9.685502e-01 -8.278028e-04 7.589382e-01)	(9.560167e-01 -8.286967e-04 7.521139e-01)	(1.253348e-02 8.939790e-07 6.824311e-03)
4071          	(1.108155e+00 -1.675773e-03 7.334573e-01)	(1.095755e+00 -1.670047e-03 7.265774e-01)	(1.240026e-02 -5.726176e-06 6.879848e-03)
4072          	(1.257803e+00 -1.828521e-03 7.030382e-01)	(1.245279e+00 -1.816767e-03 6.961773e-01)	(1.252455e-02 -1.175426e-05 6.860881e-03)
4073          	(1.335865e+00 -9.871617e-04 6.706026e-01)	(1.323128e+00 -9.739906e-04 6.637795e-01)	(1.273668e-02 -1.317104e-05 6.823087e-03)
4074          	(1.467456e+00 -1.939519e-04 6.560397e-01)	(1.454368e+00 -1.819423e-04 6.492841e-01)	(1.308799e-02 -1.200959e-05 6.755632e-03)
4075          	(1.455433e+00 8.488028e-04 6.469960e-01)	(1.442071e+00 8.566871e-04 6.402961e-01)	(1.336204e-02 -7.884255e-06 6.699855e-03)
4076          	(1.453637e+00 1.652451e-03 6.436812e-01)	(1.439989e+00 1.654797e-03 6.369972e-01)	(1.364752e-02 -2.345892e-06 6.683931e-03)
4077          	(1.492405e+00 2.015330e-03 6.409393e-01)	(1.478416e+00 2.012867e-03 6.342560e-01)	(1.398932e-02 2.463772e-06 6.683295e-03)
4078          	(1.519091e+00 1.951813e-03 6.333342e-01)	(1.504764e+00 1.946057e-03 6.266293e-01)	(1.432691e-02 5.755734e-06 6.704869e-03)
4079          	(1.540723e+00 1.675498e-03 6.194722e-01)	(1.526095e+00 1.668527e-03 6.127390e-01)	(1.462793e-02 6.971501e-06 6.733220e-03)
4080          	(1.557414e+00 1.038223e-03 5.966144e-01)	(1.542502e+00 1.032716e-03 5.898799e-01)	(1.491190e-02 5.506841e-06 6.734558e-03)
4081          	(1.577188e+00 8.843460e-05 5.634126e-01)	(1.561979e+00 8.732800e-05 5.567254e-01)	(1.520895e-02 1.106598e-06 6.687239e-03)
4082          	(1.590986e+00 -4.705906e-04 5.229318e-01)	(1.575499e+00 -4.670083e-04 5.163450e-01)	(1.548737e-02 -3.582297e-06 6.586803e-03)
4083          	(1.622416e+00 -6.945862e-04 4.798237e-01)	(1.606647e+00 -6.867769e-04 4.734019e-01)	(1.576957e-02 -7.809344e-06 6.421776e-03)
4084          	(1.659368e+00 -6.245569e-04 4.371927e-01)	(1.643292e+00 -6.136897e-04 4.309973e-01)	(1.607584e-02 -1.086721e-05 6.195346e-03)
4085          	(1.691078e+00 -4.672759e-04 3.996856e-01)	(1.674682e+00 -4.540526e-04 3.937608e-01)	(1.639550e-02 -1.322331e-05 5.924824e-03)
4086          	(1.709795e+00 -3.009760e-04 3.675084e-01)	(1.693094e+00 -2.861173e-04 3.618918e-01)	(1.670105e-02 -1.485871e-05 5.616557e-03)
4087          	(1.732461e+00 -2.908917e-05 3.340041e-01)	(1.715484e+00 -1.374049e-05 3.287142e-01)	(1.697678e-02 -1.534868e-05 5.289900e-03)
4088          	(1.753326e+00 4.118083e-04 3.037840e-01)	(1.736097e+00 4.257382e-04 2.988339e-01)	(1.722866e-02 -1.392986e-05 4.950046e-03)
4089          	(1.758919e+00 7.463292e-04 2.815307e-01)	(1.741485e+00 7.585040e-04 2.769339e-01)	(1.743433e-02 -1.217477e-05 4.596879e-03)
4090          	(1.748724e+00 9.667436e-04 2.681367e-01)	(1.731155e+00 9.769419e-04 2.639157e-01)	(1.756871e-02 -1.019833e-05 4.220941e-03)
4091          	(1.728016e+00 1.059728e-03 2.633733e-01)	(1.710386e+00 1.067879e-03 2.595317e-01)	(1.763007e-02 -8.151215e-06 3.841625e-03)
4092          	(1.703440e+00 1.001525e-03 2.660733e-01)	(1.685801e+00 1.008184e-03 2.625879e-01)	(1.763884e-02 -6.658822e-06 3.485393e-03)
4093          	(1.672389e+00 1.041693e-03 2.715535e-01)	(1.654785e+00 1.046117e-03 2.683759e-01)	(1.760412e-02 -4.423721e-06 3.177555e-03)
4094          	(1.648992e+00 1.041972e-03 2.798829e-01)	(1.631437e+00 1.044058e-03 2.769536e-01)	(1.755438e-02 -2.086183e-06 2.929315e-03)
4095          	(1.610345e+00 8.337624e-04 2.897519e-01)	(1.592872e+00 8.353573e-04 2.869981e-01)	(1.747296e-02 -1.594905e-06 2.753823e-03)
4096          	(1.577927e+00 4.075154e-04 2.973835e-01)	(1.560559e+00 4.113433e-04 2.947347e-01)	(1.736739e-02 -3.827947e-06 2.648823e-03)
4097          	(1.575374e+00 4.235846e-04 3.051487e-01)	(1.558108e+00 4.291895e-04 3.025458e-01)	(1.726604e-02 -5.604840e-06 2.602898e-03)
4098          	(1.557195e+00 5.143318e-04 3.033672e-01)	(1.540040e+00 5.208522e-04 3.007875e-01)	(1.715503e-02 -6.520305e-06 2.579660e-03)
4099          	(1.564019e+00 5.307609e-04 3.059145e-01)	(1.546938e+00 5.382311e-04 3.033322e-01)	(1.708184e-02 -7.470195e-06 2.582320e-03)
4100          	(1.573450e+00 5.551380e-04 2.956433e-01)	(1.556402e+00 5.631694e-04 2.930803e-01)	(1.704780e-02 -8.031426e-06 2.562953e-03)
4101          	(1.575766e+00 5.376324e-04 2.922316e-01)	(1.558752e+00 5.461700e-04 2.896727e-01)	(1.701426e-02 -8.537590e-06 2.558935e-03)
4102          	(1.577910e+00 6.420273e-04 2.752668e-01)	(1.560919e+00 6.499188e-04 2.727557e-01)	(1.699142e-02 -7.891559e-06 2.511072e-03)
4103          	(1.578548e+00 6.114011e-04 2.580000e-01)	(1.561550e+00 6.183079e-04 2.555753e-01)	(1.699806e-02 -6.906831e-06 2.424664e-03)
4104          	(1.581738e+00 5.937085e-04 2.466262e-01)	(1.564706e+00 5.996799e-04 2.443252e-01)	(1.703210e-02 -5.971397e-06 2.301046e-03)
4105          	(1.581585e+00 6.251425e-04 2.253688e-01)	(1.564501e+00 6.300601e-04 2.232572e-01)	(1.708461e-02 -4.917611e-06 2.111639e-03)
4106          	(1.580906e+00 6.432165e-04 2.042270e-01)	(1.563762e+00 6.466588e-04 2.023309e-01)	(1.714461e-02 -3.442318e-06 1.896070e-03)
4107          	(1.577033e+00 6.428369e-04 1.849079e-01)	(1.559842e+00 6.450493e-04 1.832394e-01)	(1.719129e-02 -2.212422e-06 1.668470e-03)
4108          	(1.575952e+00 6.256809e-04 1.737148e-01)	(1.558725e+00 6.270122e-04 1.722611e-01)	(1.722712e-02 -1.331333e-06 1.453677e-03)
4109          	(1.560832e+00 5.559557e-04 1.593212e-01)	(1.543622e+00 5.568229e-04 1.580898e-01)	(1.720966e-02 -8.672528e-07 1.231370e-03)
4110          	(1.541418e+00 4.450160e-04 1.477682e-01)	(1.524259e+00 4.457984e-04 1.467437e-01)	(1.715964e-02 -7.824633e-07 1.024566e-03)
4111          	(1.532630e+00 3.606950e-04 1.425939e-01)	(1.515535e+00 3.613405e-04 1.417657e-01)	(1.709476e-02 -6.455861e-07 8.282574e-04)
4112          	(1.502976e+00 1.506956e-04 1.350036e-01)	(1.486001e+00 1.518503e-04 1.343613e-01)	(1.697451e-02 -1.154703e-06 6.423231e-04)
4113          	(1.488944e+00 5.120769e-05 1.323999e-01)	(1.472075e+00 5.285997e-05 1.319177e-01)	(1.686912e-02 -1.652275e-06 4.822869e-04)
4114          	(1.453318e+00 -6.258594e-05 1.257691e-01)	(1.436618e+00 -6.038962e-05 1.254401e-01)	(1.670025e-02 -2.196316e-06 3.289910e-04)
4115          	(1.436517e+00 -1.018449e-04 1.235471e-01)	(1.419970e+00 -9.947522e-05 1.233514e-01)	(1.654788e-02 -2.369668e-06 1.957798e-04)
4116          	(1.404171e+00 -9.705929e-05 1.154799e-01)	(1.387825e+00 -9.518011e-05 1.154203e-01)	(1.634641e-02 -1.879174e-06 5.958419e-05)
4117          	(1.386739e+00 -8.312205e-05 1.120236e-01)	(1.370573e+00 -8.168289e-05 1.120804e-01)	(1.616618e-02 -1.439160e-06 -5.680226e-05)
4118          	(1.369204e+00 -4.431223e-05 1.070687e-01)	(1.353246e+00 -4.379474e-05 1.072443e-01)	(1.595745e-02 -5.174910e-07 -1.756106e-04)
4119          	(1.352215e+00 1.451379e-05 1.003529e-01)	(1.336471e+00 1.391297e-05 1.006391e-01)	(1.574478e-02 6.008178e-07 -2.862451e-04)
4120          	(1.331335e+00 1.504758e-04 8.658194e-02)	(1.315805e+00 1.482245e-04 8.698861e-02)	(1.553012e-02 2.251362e-06 -4.066706e-04)
4121          	(1.320715e+00 2.247049e-04 7.940056e-02)	(1.305372e+00 2.210010e-04 7.991943e-02)	(1.534279e-02 3.703892e-06 -5.188682e-04)
4122          	(1.312242e+00 2.852673e-04 7.220906e-02)	(1.297077e+00 2.801102e-04 7.284620e-02)	(1.516456e-02 5.157123e-06 -6.371357e-04)
4123          	(1.305690e+00 3.242325e-04 6.504754e-02)	(1.290679e+00 3.177516e-04 6.579722e-02)	(1.501153e-02 6.480951e-06 -7.496741e-04)
4124          	(1.300174e+00 3.856187e-04 5.786374e-02)	(1.285294e+00 3.779254e-04 5.872122e-02)	(1.487993e-02 7.693258e-06 -8.574781e-04)
4125          	(1.298678e+00 4.834719e-04 4.947466e-02)	(1.283891e+00 4.743929e-04 5.044092e-02)	(1.478679e-02 9.079007e-06 -9.662609e-04)
4126          	(1.297395e+00 4.658240e-04 4.546327e-02)	(1.282668e+00 4.557814e-04 4.652773e-02)	(1.472771e-02 1.004259e-05 -1.064467e-03)
4127          	(1.296820e+00 4.400521e-04 4.340730e-02)	(1.282145e+00 4.298201e-04 4.455394e-02)	(1.467470e-02 1.023195e-05 -1.146644e-03)
4128          	(1.296418e+00 4.086266e-04 4.363016e-02)	(1.281787e+00 3.986208e-04 4.483813e-02)	(1.463161e-02 1.000578e-05 -1.207967e-03)
4129          	(1.300792e+00 1.772452e-04 5.092364e-02)	(1.286189e+00 1.690458e-04 5.216295e-02)	(1.460261e-02 8.199403e-06 -1.239311e-03)
4130          	(1.299283e+00 1.677486e-04 5.468179e-02)	(1.284704e+00 1.603823e-04 5.593384e-02)	(1.457888e-02 7.366333e-06 -1.252053e-03)
4131          	(1.296819e+00 1.557896e-04 6.113108e-02)	(1.282290e+00 1.495135e-04 6.237843e-02)	(1.452883e-02 6.276141e-06 -1.247348e-03)
4132          	(1.293344e+00 1.355459e-04 7.060820e-02)	(1.278879e+00 1.301306e-04 7.184033e-02)	(1.446537e-02 5.415336e-06 -1.232135e-03)
4133          	(1.289235e+00 5.786975e-05 8.995185e-02)	(1.274839e+00 5.337976e-05 9.113769e-02)	(1.439606e-02 4.489986e-06 -1.185843e-03)
4134          	(1.284802e+00 3.478679e-05 1.026442e-01)	(1.270465e+00 3.030798e-05 1.037716e-01)	(1.433640e-02 4.478803e-06 -1.127476e-03)
4135          	(1.279851e+00 1.014344e-05 1.172294e-01)	(1.265589e+00 5.424887e-06 1.182769e-01)	(1.426194e-02 4.718553e-06 -1.047514e-03)
4136          	(1.274799e+00 -1.195791e-05 1.335753e-01)	(1.260616e+00 -1.728811e-05 1.345328e-01)	(1.418323e-02 5.330194e-06 -9.574320e-04)
4137          	(1.270112e+00 -4.888650e-05 1.584071e-01)	(1.256009e+00 -5.487582e-05 1.592497e-01)	(1.410327e-02 5.989318e-06 -8.425440e-04)
4138          	(1.266277e+00 -5.854638e-05 1.738004e-01)	(1.252241e+00 -6.551369e-05 1.745309e-01)	(1.403594e-02 6.967307e-06 -7.305220e-04)
4139          	(1.263220e+00 -5.375383e-05 1.887837e-01)	(1.249253e+00 -6.206530e-05 1.893859e-01)	(1.396790e-02 8.311469e-06 -6.022360e-04)
4140          	(1.260876e+00 -3.635688e-05 2.032339e-01)	(1.246967e+00 -4.614872e-05 2.036983e-01)	(1.390872e-02 9.791844e-06 -4.643507e-04)
4141          	(1.260340e+00 4.651976e-05 2.216173e-01)	(1.246480e+00 3.499951e-05 2.219262e-01)	(1.385948e-02 1.152025e-05 -3.088602e-04)
4142          	(1.259565e+00 5.585309e-05 2.324556e-01)	(1.245747e+00 4.314392e-05 2.326176e-01)	(1.381713e-02 1.270918e-05 -1.619933e-04)
4143          	(1.259421e+00 5.405936e-05 2.418046e-01)	(1.245654e+00 4.017590e-05 2.418197e-01)	(1.376732e-02 1.388346e-05 -1.516065e-05)
4144          	(1.259941e+00 5.275116e-05 2.498726e-01)	(1.246215e+00 3.782536e-05 2.497493e-01)	(1.372525e-02 1.492580e-05 1.232851e-04)
4145          	(1.263342e+00 9.861101e-05 2.579767e-01)	(1.249641e+00 8.237066e-05 2.577185e-01)	(1.370148e-02 1.624035e-05 2.581663e-04)
4146          	(1.264899e+00 8.615532e-05 2.629963e-01)	(1.251203e+00 6.880971e-05 2.626114e-01)	(1.369582e-02 1.734561e-05 3.848745e-04)
4147          	(1.266875e+00 7.087705e-05 2.667533e-01)	(1.253186e+00 5.273182e-05 2.662450e-01)	(1.368835e-02 1.814523e-05 5.082847e-04)
4148          	(1.269157e+00 5.306082e-05 2.693877e-01)	(1.255469e+00 3.425335e-05 2.687660e-01)	(1.368766e-02 1.880747e-05 6.216231e-04)
4149          	(1.277702e+00 2.356364e-05 2.710415e-01)	(1.264000e+00 4.187266e-06 2.703211e-01)	(1.370132e-02 1.937638e-05 7.203799e-04)
4150          	(1.279703e+00 -1.232562e-06 2.718847e-01)	(1.265980e+00 -2.121101e-05 2.710755e-01)	(1.372309e-02 1.997845e-05 8.092256e-04)
4151          	(1.281514e+00 -2.658056e-05 2.720633e-01)	(1.267784e+00 -4.667594e-05 2.711737e-01)	(1.372946e-02 2.009538e-05 8.896162e-04)
4152          	(1.283107e+00 -5.268942e-05 2.716979e-01)	(1.269372e+00 -7.246998e-05 2.707377e-01)	(1.373424e-02 1.978056e-05 9.601101e-04)
4153          	(1.286654e+00 -1.122219e-04 2.718308e-01)	(1.272915e+00 -1.310144e-04 2.708102e-01)	(1.373940e-02 1.879250e-05 1.020595e-03)
4154          	(1.287579e+00 -1.362346e-04 2.706449e-01)	(1.273827e+00 -1.539811e-04 2.695730e-01)	(1.375191e-02 1.774656e-05 1.071923e-03)
4155          	(1.288067e+00 -1.625756e-04 2.693545e-01)	(1.274312e+00 -1.787365e-04 2.682391e-01)	(1.375531e-02 1.616094e-05 1.115336e-03)
4156          	(1.288185e+00 -1.935689e-04 2.681434e-01)	(1.274422e+00 -2.079719e-04 2.669906e-01)	(1.376229e-02 1.440307e-05 1.152812e-03)
4157          	(1.287932e+00 -2.283581e-04 2.671883e-01)	(1.274159e+00 -2.410205e-04 2.660032e-01)	(1.377318e-02 1.266236e-05 1.185154e-03)
4158          	(1.286667e+00 -3.078036e-04 2.689049e-01)	(1.272880e+00 -3.183935e-04 2.676857e-01)	(1.378693e-02 1.058987e-05 1.219288e-03)
4159          	(1.286328e+00 -3.446101e-04 2.680461e-01)	(1.272516e+00 -3.534332e-04 2.667975e-01)	(1.381164e-02 8.823154e-06 1.248599e-03)
4160          	(1.285983e+00 -3.802699e-04 2.674889e-01)	(1.272150e+00 -3.876401e-04 2.662116e-01)	(1.383258e-02 7.370188e-06 1.277302e-03)
4161          	(1.285728e+00 -4.129457e-04 2.673102e-01)	(1.271873e+00 -4.192332e-04 2.660044e-01)	(1.385546e-02 6.287505e-06 1.305811e-03)
4162          	(1.285662e+00 -4.413245e-04 2.675507e-01)	(1.271787e+00 -4.468635e-04 2.662170e-01)	(1.387563e-02 5.538949e-06 1.333660e-03)
4163          	(1.285368e+00 -5.360360e-04 2.708956e-01)	(1.271483e+00 -5.405171e-04 2.695348e-01)	(1.388460e-02 4.481098e-06 1.360787e-03)
4164          	(1.286011e+00 -5.531086e-04 2.710145e-01)	(1.272119e+00 -5.564129e-04 2.696343e-01)	(1.389220e-02 3.304251e-06 1.380283e-03)
4165          	(1.287016e+00 -5.607989e-04 2.711979e-01)	(1.273126e+00 -5.636410e-04 2.698024e-01)	(1.388975e-02 2.842147e-06 1.395509e-03)
4166          	(1.288432e+00 -5.579836e-04 2.714559e-01)	(1.274545e+00 -5.606716e-04 2.700474e-01)	(1.388789e-02 2.687962e-06 1.408480e-03)
4167          	(1.290285e+00 -5.438865e-04 2.717850e-01)	(1.276400e+00 -5.468349e-04 2.703683e-01)	(1.388494e-02 2.948359e-06 1.416725e-03)
4168          	(1.296192e+00 -5.004627e-04 2.732231e-01)	(1.282306e+00 -5.042639e-04 2.718044e-01)	(1.388591e-02 3.801269e-06 1.418773e-03)
4169          	(1.298176e+00 -4.737196e-04 2.733671e-01)	(1.284285e+00 -4.779767e-04 2.719520e-01)	(1.389128e-02 4.257071e-06 1.415143e-03)
4170          	(1.300312e+00 -4.436126e-04 2.734919e-01)	(1.286420e+00 -4.482498e-04 2.720841e-01)	(1.389196e-02 4.637175e-06 1.407721e-03)
4171          	(1.302644e+00 -4.127059e-04 2.736353e-01)	(1.288747e+00 -4.174220e-04 2.722374e-01)	(1.389689e-02 4.716156e-06 1.397917e-03)
4172          	(1.305163e+00 -3.836088e-04 2.738625e-01)	(1.291259e+00 -3.882789e-04 2.724783e-01)	(1.390488e-02 4.670108e-06 1.384226e-03)
4173          	(1.310845e+00 -3.670497e-04 2.747233e-01)	(1.296927e+00 -3.717724e-04 2.733579e-01)	(1.391866e-02 4.722732e-06 1.365420e-03)
4174          	(1.312710e+00 -3.441238e-04 2.752046e-01)	(1.298772e+00 -3.488737e-04 2.738622e-01)	(1.393756e-02 4.749839e-06 1.342342e-03)
4175          	(1.314348e+00 -3.286185e-04 2.759017e-01)	(1.300394e+00 -3.331874e-04 2.745845e-01)	(1.395343e-02 4.568917e-06 1.317188e-03)
4176          	(1.315924e+00 -3.201509e-04 2.768575e-01)	(1.301951e+00 -3.244429e-04 2.755656e-01)	(1.397255e-02 4.292036e-06 1.291833e-03)
4177          	(1.318373e+00 -3.486117e-04 2.788944e-01)	(1.304378e+00 -3.525476e-04 2.776255e-01)	(1.399458e-02 3.935917e-06 1.268894e-03)
4178          	(1.319221e+00 -3.511559e-04 2.802707e-01)	(1.305200e+00 -3.550796e-04 2.790221e-01)	(1.402134e-02 3.923724e-06 1.248588e-03)
4179          	(1.319886e+00 -3.607516e-04 2.819089e-01)	(1.305838e+00 -3.648213e-04 2.806741e-01)	(1.404750e-02 4.069688e-06 1.234788e-03)
4180          	(1.320798e+00 -4.119946e-04 2.848004e-01)	(1.306722e+00 -4.162008e-04 2.835695e-01)	(1.407524e-02 4.206203e-06 1.230869e-03)
4181          	(1.320887e+00 -4.232255e-04 2.866388e-01)	(1.306783e+00 -4.277078e-04 2.854064e-01)	(1.410415e-02 4.482285e-06 1.232389e-03)
4182          	(1.320867e+00 -4.324475e-04 2.886115e-01)	(1.306738e+00 -4.373553e-04 2.873710e-01)	(1.412848e-02 4.907823e-06 1.240524e-03)
4183          	(1.320598e+00 -4.771909e-04 2.919440e-01)	(1.306448e+00 -4.825582e-04 2.906855e-01)	(1.415023e-02 5.367257e-06 1.258448e-03)
4184          	(1.320436e+00 -4.763105e-04 2.937496e-01)	(1.306264e+00 -4.823861e-04 2.924697e-01)	(1.417159e-02 6.075543e-06 1.279918e-03)
4185          	(1.320338e+00 -4.672282e-04 2.955201e-01)	(1.306149e+00 -4.741400e-04 2.942145e-01)	(1.418850e-02 6.911849e-06 1.305589e-03)
4186          	(1.320448e+00 -5.054808e-04 2.988097e-01)	(1.306244e+00 -5.129207e-04 2.974709e-01)	(1.420450e-02 7.439902e-06 1.338802e-03)
4187          	(1.320608e+00 -4.816864e-04 2.999704e-01)	(1.306385e+00 -4.897058e-04 2.985994e-01)	(1.422211e-02 8.019398e-06 1.370959e-03)
4188          	(1.321605e+00 -4.627645e-04 3.022150e-01)	(1.307366e+00 -4.713712e-04 3.008094e-01)	(1.423914e-02 8.606687e-06 1.405565e-03)
4189          	(1.322072e+00 -4.306265e-04 3.026196e-01)	(1.307812e+00 -4.397474e-04 3.011814e-01)	(1.425967e-02 9.120899e-06 1.438153e-03)
4190          	(1.322776e+00 -3.932877e-04 3.028240e-01)	(1.308497e+00 -4.029265e-04 3.013548e-01)	(1.427881e-02 9.638841e-06 1.469173e-03)
4191          	(1.324338e+00 -3.510933e-04 3.037126e-01)	(1.310036e+00 -3.613321e-04 3.022123e-01)	(1.430152e-02 1.023879e-05 1.500308e-03)
4192          	(1.325285e+00 -3.130778e-04 3.034780e-01)	(1.310958e+00 -3.238056e-04 3.019496e-01)	(1.432676e-02 1.072785e-05 1.528433e-03)
4193          	(1.327157e+00 -2.807674e-04 3.037492e-01)	(1.312808e+00 -2.920286e-04 3.021977e-01)	(1.434911e-02 1.126122e-05 1.551511e-03)
4194          	(1.328178e+00 -2.514365e-04 3.031408e-01)	(1.313805e+00 -2.630843e-04 3.015713e-01)	(1.437331e-02 1.164782e-05 1.569482e-03)
4195          	(1.330320e+00 -2.321616e-04 3.028008e-01)	(1.315927e+00 -2.441720e-04 3.012207e-01)	(1.439285e-02 1.201041e-05 1.580114e-03)
4196          	(1.331404e+00 -2.153013e-04 3.018602e-01)	(1.316991e+00 -2.274457e-04 3.002751e-01)	(1.441329e-02 1.214442e-05 1.585076e-03)
4197          	(1.333780e+00 -2.100256e-04 3.008932e-01)	(1.319351e+00 -2.221847e-04 2.993115e-01)	(1.442925e-02 1.215908e-05 1.581695e-03)
4198          	(1.336128e+00 -2.116531e-04 2.996231e-01)	(1.321679e+00 -2.235996e-04 2.980503e-01)	(1.444880e-02 1.194646e-05 1.572773e-03)
4199          	(1.337157e+00 -2.100999e-04 2.983321e-01)	(1.322691e+00 -2.217407e-04 2.967722e-01)	(1.446628e-02 1.164075e-05 1.559945e-03)
4200          	(1.339772e+00 -2.211715e-04 2.965866e-01)	(1.325291e+00 -2.324655e-04 2.950458e-01)	(1.448042e-02 1.129401e-05 1.540756e-03)
4201          	(1.341600e+00 -2.290489e-04 2.947274e-01)	(1.327104e+00 -2.400530e-04 2.932104e-01)	(1.449596e-02 1.100418e-05 1.516911e-03)
4202          	(1.342742e+00 -2.325039e-04 2.933508e-01)	(1.328234e+00 -2.432077e-04 2.918612e-01)	(1.450849e-02 1.070378e-05 1.489588e-03)
4203          	(1.345461e+00 -2.434498e-04 2.913125e-01)	(1.330943e+00 -2.537648e-04 2.898559e-01)	(1.451834e-02 1.031503e-05 1.456588e-03)
4204          	(1.347967e+00 -2.512989e-04 2.893797e-01)	(1.333436e+00 -2.612158e-04 2.879588e-01)	(1.453063e-02 9.916885e-06 1.420844e-03)
4205          	(1.350068e+00 -2.541480e-04 2.876427e-01)	(1.335527e+00 -2.636194e-04 2.862594e-01)	(1.454138e-02 9.471342e-06 1.383328e-03)
4206          	(1.351878e+00 -2.529338e-04 2.861331e-01)	(1.337327e+00 -2.620142e-04 2.847873e-01)	(1.455113e-02 9.080359e-06 1.345784e-03)
4207          	(1.353729e+00 -2.479570e-04 2.848275e-01)	(1.339168e+00 -2.567416e-04 2.835182e-01)	(1.456092e-02 8.784588e-06 1.309337e-03)
4208          	(1.354814e+00 -2.430754e-04 2.843644e-01)	(1.340242e+00 -2.516672e-04 2.830870e-01)	(1.457162e-02 8.591872e-06 1.277381e-03)
4209          	(1.357068e+00 -2.241280e-04 2.830901e-01)	(1.342485e+00 -2.326331e-04 2.818435e-01)	(1.458305e-02 8.505135e-06 1.246611e-03)
4210          	(1.359289e+00 -2.027352e-04 2.819425e-01)	(1.344691e+00 -2.112289e-04 2.807230e-01)	(1.459767e-02 8.493770e-06 1.219487e-03)
4211          	(1.361115e+00 -1.832735e-04 2.809790e-01)	(1.346502e+00 -1.917914e-04 2.797835e-01)	(1.461304e-02 8.517873e-06 1.195568e-03)
4212          	(1.362481e+00 -1.656854e-04 2.802724e-01)	(1.347852e+00 -1.742806e-04 2.790969e-01)	(1.462872e-02 8.595253e-06 1.175453e-03)
4213          	(1.363602e+00 -1.501034e-04 2.798250e-01)	(1.348958e+00 -1.587799e-04 2.786657e-01)	(1.464486e-02 8.676558e-06 1.159309e-03)
4214          	(1.364488e+00 -1.388177e-04 2.795592e-01)	(1.349827e+00 -1.475995e-04 2.784121e-01)	(1.466170e-02 8.781784e-06 1.147106e-03)
4215          	(1.365222e+00 -1.324346e-04 2.794239e-01)	(1.350542e+00 -1.413249e-04 2.782854e-01)	(1.467963e-02 8.890300e-06 1.138510e-03)
4216          	(1.365496e+00 -1.247610e-04 2.795921e-01)	(1.350798e+00 -1.337430e-04 2.784577e-01)	(1.469831e-02 8.982003e-06 1.134367e-03)
4217          	(1.366309e+00 -1.285736e-04 2.795297e-01)	(1.351590e+00 -1.376040e-04 2.783984e-01)	(1.471878e-02 9.030389e-06 1.131308e-03)
4218          	(1.367068e+00 -1.387196e-04 2.795119e-01)	(1.352325e+00 -1.476297e-04 2.783799e-01)	(1.474319e-02 8.910054e-06 1.131960e-03)
4219          	(1.367730e+00 -1.539060e-04 2.795530e-01)	(1.352960e+00 -1.626001e-04 2.784180e-01)	(1.476996e-02 8.694083e-06 1.135028e-03)
4220          	(1.368342e+00 -1.723892e-04 2.796698e-01)	(1.353544e+00 -1.808135e-04 2.785291e-01)	(1.479858e-02 8.424308e-06 1.140675e-03)
4221          	(1.368849e+00 -1.923255e-04 2.798786e-01)	(1.354022e+00 -2.004350e-04 2.787303e-01)	(1.482775e-02 8.109536e-06 1.148280e-03)
4222          	(1.368832e+00 -2.089478e-04 2.802070e-01)	(1.353977e+00 -2.165582e-04 2.790507e-01)	(1.485488e-02 7.610346e-06 1.156270e-03)
4223          	(1.368782e+00 -2.208828e-04 2.803287e-01)	(1.353902e+00 -2.278084e-04 2.791641e-01)	(1.487999e-02 6.925584e-06 1.164535e-03)
4224          	(1.369047e+00 -2.369690e-04 2.810510e-01)	(1.354146e+00 -2.432011e-04 2.798801e-01)	(1.490088e-02 6.232057e-06 1.170894e-03)
4225          	(1.369309e+00 -2.504612e-04 2.818599e-01)	(1.354388e+00 -2.561024e-04 2.806824e-01)	(1.492175e-02 5.641160e-06 1.177433e-03)
4226          	(1.369638e+00 -2.617713e-04 2.827208e-01)	(1.354700e+00 -2.668830e-04 2.815393e-01)	(1.493828e-02 5.111676e-06 1.181531e-03)
4227          	(1.369363e+00 -2.660785e-04 2.836344e-01)	(1.354413e+00 -2.707222e-04 2.824507e-01)	(1.494987e-02 4.643686e-06 1.183682e-03)
4228          	(1.369469e+00 -2.745025e-04 2.843494e-01)	(1.354510e+00 -2.786650e-04 2.831652e-01)	(1.495865e-02 4.162544e-06 1.184190e-03)
4229          	(1.370136e+00 -2.799150e-04 2.854924e-01)	(1.355173e+00 -2.836110e-04 2.843108e-01)	(1.496335e-02 3.695996e-06 1.181583e-03)
4230          	(1.370774e+00 -2.854166e-04 2.867183e-01)	(1.355805e+00 -2.886970e-04 2.855403e-01)	(1.496867e-02 3.280401e-06 1.178060e-03)
4231          	(1.371317e+00 -2.907727e-04 2.880542e-01)	(1.356346e+00 -2.937264e-04 2.868821e-01)	(1.497077e-02 2.953748e-06 1.172115e-03)
4232          	(1.371025e+00 -2.905648e-04 2.895481e-01)	(1.356055e+00 -2.932006e-04 2.883834e-01)	(1.496922e-02 2.635773e-06 1.164700e-03)
4233          	(1.371061e+00 -2.913035e-04 2.909743e-01)	(1.356093e+00 -2.935740e-04 2.898171e-01)	(1.496753e-02 2.270566e-06 1.157240e-03)
4234          	(1.371115e+00 -3.007268e-04 2.928927e-01)	(1.356152e+00 -3.025662e-04 2.917432e-01)	(1.496284e-02 1.839350e-06 1.149557e-03)
4235          	(1.370247e+00 -3.042909e-04 2.949792e-01)	(1.355290e+00 -3.056996e-04 2.938357e-01)	(1.495740e-02 1.408753e-06 1.143491e-03)
4236          	(1.369999e+00 -3.145128e-04 2.971657e-01)	(1.355049e+00 -3.155593e-04 2.960273e-01)	(1.495044e-02 1.046481e-06 1.138443e-03)
4237          	(1.369571e+00 -3.244111e-04 2.994357e-01)	(1.354628e+00 -3.251112e-04 2.983006e-01)	(1.494273e-02 7.000920e-07 1.135072e-03)
4238          	(1.368959e+00 -3.331828e-04 3.017568e-01)	(1.354024e+00 -3.335689e-04 3.006228e-01)	(1.493488e-02 3.861664e-07 1.133989e-03)
4239          	(1.368516e+00 -3.312962e-04 3.037898e-01)	(1.353587e+00 -3.313466e-04 3.026540e-01)	(1.492931e-02 5.047626e-08 1.135717e-03)
4240          	(1.367472e+00 -3.371215e-04 3.062352e-01)	(1.352549e+00 -3.366214e-04 3.050944e-01)	(1.492293e-02 -5.000915e-07 1.140788e-03)
4241          	(1.366283e+00 -3.418317e-04 3.086061e-01)	(1.351365e+00 -3.406899e-04 3.074561e-01)	(1.491832e-02 -1.141778e-06 1.149963e-03)
4242          	(1.365010e+00 -3.452847e-04 3.108311e-01)	(1.350096e+00 -3.435076e-04 3.096687e-01)	(1.491410e-02 -1.777105e-06 1.162385e-03)
4243          	(1.363714e+00 -3.474116e-04 3.128542e-01)	(1.348804e+00 -3.450291e-04 3.116765e-01)	(1.491042e-02 -2.382505e-06 1.177690e-03)
4244          	(1.363024e+00 -3.475001e-04 3.142763e-01)	(1.348116e+00 -3.445684e-04 3.130813e-01)	(1.490852e-02 -2.931680e-06 1.194913e-03)
4245          	(1.361593e+00 -3.478389e-04 3.160187e-01)	(1.346687e+00 -3.444029e-04 3.148048e-01)	(1.490519e-02 -3.436006e-06 1.213843e-03)
4246          	(1.360214e+00 -3.466996e-04 3.175140e-01)	(1.345311e+00 -3.428810e-04 3.162789e-01)	(1.490346e-02 -3.818549e-06 1.235019e-03)
4247          	(1.358951e+00 -3.430477e-04 3.187355e-01)	(1.344049e+00 -3.389361e-04 3.174786e-01)	(1.490198e-02 -4.111652e-06 1.256974e-03)
4248          	(1.358334e+00 -3.453793e-04 3.192205e-01)	(1.343433e+00 -3.409689e-04 3.179421e-01)	(1.490156e-02 -4.410424e-06 1.278380e-03)
4249          	(1.357286e+00 -3.360488e-04 3.201084e-01)	(1.342386e+00 -3.313627e-04 3.188094e-01)	(1.490002e-02 -4.686126e-06 1.298991e-03)
4250          	(1.356125e+00 -3.229416e-04 3.207446e-01)	(1.341225e+00 -3.179900e-04 3.194250e-01)	(1.490039e-02 -4.951586e-06 1.319592e-03)
4251          	(1.355704e+00 -3.191107e-04 3.206309e-01)	(1.340802e+00 -3.137411e-04 3.192929e-01)	(1.490145e-02 -5.369668e-06 1.338029e-03)
4252          	(1.355039e+00 -2.966728e-04 3.208661e-01)	(1.340138e+00 -2.909143e-04 3.195113e-01)	(1.490126e-02 -5.758529e-06 1.354808e-03)
4253          	(1.354700e+00 -2.860576e-04 3.205247e-01)	(1.339797e+00 -2.800006e-04 3.191545e-01)	(1.490346e-02 -6.057082e-06 1.370156e-03)
4254          	(1.354390e+00 -2.544749e-04 3.204846e-01)	(1.339487e+00 -2.482015e-04 3.191018e-01)	(1.490304e-02 -6.273351e-06 1.382837e-03)
4255          	(1.354179e+00 -2.378298e-04 3.199776e-01)	(1.339275e+00 -2.314038e-04 3.185840e-01)	(1.490416e-02 -6.426024e-06 1.393616e-03)
4256          	(1.354613e+00 -2.024374e-04 3.196860e-01)	(1.339711e+00 -1.961374e-04 3.182857e-01)	(1.490191e-02 -6.299981e-06 1.400253e-03)
4257          	(1.354514e+00 -1.813629e-04 3.190617e-01)	(1.339614e+00 -1.753070e-04 3.176580e-01)	(1.490002e-02 -6.055975e-06 1.403688e-03)
4258          	(1.354470e+00 -1.607951e-04 3.184369e-01)	(1.339576e+00 -1.550019e-04 3.170342e-01)	(1.489410e-02 -5.793236e-06 1.402618e-03)
4259          	(1.354986e+00 -1.357868e-04 3.178755e-01)	(1.340097e+00 -1.302256e-04 3.164768e-01)	(1.488917e-02 -5.561129e-06 1.398643e-03)
4260          	(1.355173e+00 -1.199010e-04 3.171841e-01)	(1.340287e+00 -1.145558e-04 3.157915e-01)	(1.488521e-02 -5.345176e-06 1.392647e-03)
4261          	(1.356071e+00 -1.069302e-04 3.163965e-01)	(1.341192e+00 -1.018614e-04 3.150140e-01)	(1.487918e-02 -5.068819e-06 1.382502e-03)
4262          	(1.356442e+00 -9.843402e-05 3.156849e-01)	(1.341567e+00 -9.358087e-05 3.143145e-01)	(1.487456e-02 -4.853154e-06 1.370361e-03)