# Force       
# CofR        : (0.000000e+00 0.000000e+00 0.000000e+00)
#
# Time        	(total_x total_y total_z)	(pressure_x pressure_y pressure_z)	(viscous_x viscous_y viscous_z)
1             	(1.105139e+02 -1.717848e+02 -4.625424e+02)	(1.104867e+02 -1.717854e+02 -4.625427e+02)	(2.712358e-02 5.654408e-04 3.011596e-04)
2             	(1.052380e+02 -1.725117e+02 -4.618761e+02)	(1.052581e+02 -1.725055e+02 -4.618761e+02)	(-2.013420e-02 -6.141288e-03 -1.236081e-06)
3             	(8.009963e+01 -1.770013e+02 -4.619101e+02)	(8.015866e+01 -1.769885e+02 -4.619088e+02)	(-5.903076e-02 -1.273069e-02 -1.289285e-03)
4             	(1.387849e+01 -1.891100e+02 -4.612690e+02)	(1.393917e+01 -1.890957e+02 -4.612688e+02)	(-6.068346e-02 -1.435492e-02 -1.937939e-04)
5             	(-6.513786e+01 -2.037264e+02 -4.592084e+02)	(-6.509203e+01 -2.037145e+02 -4.592107e+02)	(-4.582586e-02 -1.195526e-02 2.228169e-03)
6             	(-1.000421e+02 -2.105076e+02 -4.598434e+02)	(-1.000286e+02 -2.105009e+02 -4.598473e+02)	(-1.356411e-02 -6.729386e-03 3.910388e-03)
7             	(-9.132985e+01 -2.092266e+02 -4.613016e+02)	(-9.134897e+01 -2.092252e+02 -4.613082e+02)	(1.911739e-02 -1.361675e-03 6.606533e-03)
8             	(-6.622794e+01 -2.049097e+02 -4.635954e+02)	(-6.626863e+01 -2.049121e+02 -4.636035e+02)	(4.068928e-02 2.407651e-03 8.096585e-03)
9             	(-2.806102e+01 -1.981703e+02 -4.663721e+02)	(-2.810845e+01 -1.981743e+02 -4.663801e+02)	(4.743388e-02 3.960485e-03 8.002984e-03)
10            	(4.208383e+00 -1.925172e+02 -4.688494e+02)	(4.167626e+00 -1.925208e+02 -4.688560e+02)	(4.075742e-02 3.552679e-03 6.537244e-03)
11            	(2.238001e+01 -1.892441e+02 -4.698482e+02)	(2.235444e+01 -1.892459e+02 -4.698528e+02)	(2.557392e-02 1.827630e-03 4.529113e-03)
12            	(2.533958e+01 -1.885755e+02 -4.696692e+02)	(2.533264e+01 -1.885748e+02 -4.696715e+02)	(6.942059e-03 -7.280811e-04 2.281116e-03)
13            	(2.087513e+01 -1.891890e+02 -4.687171e+02)	(2.088445e+01 -1.891855e+02 -4.687169e+02)	(-9.319680e-03 -3.454574e-03 -2.400973e-04)
14            	(1.289925e+01 -1.904023e+02 -4.673148e+02)	(1.291797e+01 -1.903970e+02 -4.673125e+02)	(-1.871331e-02 -5.372453e-03 -2.273476e-03)
15            	(5.022230e+00 -1.916345e+02 -4.658313e+02)	(5.042287e+00 -1.916285e+02 -4.658284e+02)	(-2.005671e-02 -5.932513e-03 -2.865280e-03)
16            	(6.401742e-01 -1.922441e+02 -4.645229e+02)	(6.553565e-01 -1.922389e+02 -4.645209e+02)	(-1.518234e-02 -5.293123e-03 -2.084165e-03)
17            	(6.325827e-02 -1.922930e+02 -4.638155e+02)	(7.059962e-02 -1.922889e+02 -4.638148e+02)	(-7.341347e-03 -4.067798e-03 -6.988384e-04)
18            	(1.733489e+00 -1.919731e+02 -4.634885e+02)	(1.732856e+00 -1.919704e+02 -4.634895e+02)	(6.335482e-04 -2.705557e-03 1.026140e-03)
19            	(4.205043e+00 -1.915671e+02 -4.635633e+02)	(4.198580e+00 -1.915655e+02 -4.635659e+02)	(6.463630e-03 -1.669481e-03 2.562624e-03)
20            	(6.116367e+00 -1.913219e+02 -4.640090e+02)	(6.107019e+00 -1.913208e+02 -4.640127e+02)	(9.348182e-03 -1.128623e-03 3.654591e-03)
21            	(6.609115e+00 -1.913637e+02 -4.646212e+02)	(6.599731e+00 -1.913626e+02 -4.646253e+02)	(9.383463e-03 -1.123978e-03 4.122357e-03)
22            	(5.467823e+00 -1.917080e+02 -4.652730e+02)	(5.460454e+00 -1.917064e+02 -4.652769e+02)	(7.368702e-03 -1.585165e-03 3.932476e-03)
23            	(3.305342e+00 -1.922074e+02 -4.658312e+02)	(3.300989e+00 -1.922051e+02 -4.658344e+02)	(4.352668e-03 -2.294827e-03 3.237956e-03)
24            	(5.934324e-01 -1.927693e+02 -4.662190e+02)	(5.920950e-01 -1.927662e+02 -4.662212e+02)	(1.337367e-03 -3.102750e-03 2.208929e-03)
25            	(-2.082214e+00 -1.932764e+02 -4.664289e+02)	(-2.081264e+00 -1.932726e+02 -4.664300e+02)	(-9.495590e-04 -3.763175e-03 1.062277e-03)
26            	(-3.937282e+00 -1.935761e+02 -4.663993e+02)	(-3.935199e+00 -1.935719e+02 -4.663994e+02)	(-2.082539e-03 -4.215531e-03 6.740558e-05)
27            	(-5.082262e+00 -1.937542e+02 -4.663046e+02)	(-5.080099e+00 -1.937498e+02 -4.663040e+02)	(-2.162416e-03 -4.464435e-03 -6.326440e-04)
28            	(-4.397370e+00 -1.935417e+02 -4.660241e+02)	(-4.395938e+00 -1.935373e+02 -4.660232e+02)	(-1.431327e-03 -4.478691e-03 -9.395039e-04)
29            	(-3.134289e+00 -1.932386e+02 -4.657794e+02)	(-3.133927e+00 -1.932342e+02 -4.657785e+02)	(-3.622055e-04 -4.361269e-03 -9.344966e-04)
30            	(-1.315229e+00 -1.928301e+02 -4.655236e+02)	(-1.315886e+00 -1.928259e+02 -4.655229e+02)	(6.569384e-04 -4.181192e-03 -6.738998e-04)
31            	(6.927267e-01 -1.923921e+02 -4.652844e+02)	(6.913759e-01 -1.923881e+02 -4.652841e+02)	(1.350748e-03 -4.020945e-03 -2.755328e-04)
32            	(3.106157e+00 -1.918873e+02 -4.650169e+02)	(3.104487e+00 -1.918834e+02 -4.650171e+02)	(1.669492e-03 -3.967053e-03 1.361694e-04)
33            	(4.202781e+00 -1.916533e+02 -4.649198e+02)	(4.201180e+00 -1.916493e+02 -4.649203e+02)	(1.600534e-03 -3.969762e-03 4.816697e-04)
34            	(5.253214e+00 -1.914502e+02 -4.648616e+02)	(5.251945e+00 -1.914461e+02 -4.648623e+02)	(1.269354e-03 -4.042892e-03 6.864247e-04)
35            	(5.079916e+00 -1.914900e+02 -4.648938e+02)	(5.079046e+00 -1.914858e+02 -4.648945e+02)	(8.699880e-04 -4.165553e-03 7.627445e-04)
36            	(4.597709e+00 -1.915994e+02 -4.649731e+02)	(4.597201e+00 -1.915951e+02 -4.649739e+02)	(5.074302e-04 -4.303191e-03 7.548447e-04)
37            	(4.006958e+00 -1.917648e+02 -4.651302e+02)	(4.006667e+00 -1.917604e+02 -4.651308e+02)	(2.906453e-04 -4.470372e-03 5.805949e-04)
38            	(3.231601e+00 -1.919696e+02 -4.653033e+02)	(3.231387e+00 -1.919649e+02 -4.653037e+02)	(2.142670e-04 -4.648400e-03 3.394605e-04)
39            	(2.484336e+00 -1.921597e+02 -4.654472e+02)	(2.484084e+00 -1.921549e+02 -4.654473e+02)	(2.516958e-04 -4.813669e-03 8.707899e-05)
40            	(1.723120e+00 -1.923457e+02 -4.655736e+02)	(1.722773e+00 -1.923407e+02 -4.655734e+02)	(3.471006e-04 -4.962156e-03 -1.308077e-04)
41            	(9.481701e-01 -1.925252e+02 -4.656789e+02)	(9.477219e-01 -1.925201e+02 -4.656786e+02)	(4.482489e-04 -5.097662e-03 -2.833331e-04)
42            	(6.992890e-01 -1.925688e+02 -4.656726e+02)	(6.987630e-01 -1.925636e+02 -4.656722e+02)	(5.259415e-04 -5.224017e-03 -3.550085e-04)
43            	(5.572713e-01 -1.925909e+02 -4.656731e+02)	(5.567198e-01 -1.925856e+02 -4.656728e+02)	(5.514688e-04 -5.324068e-03 -3.668758e-04)
44            	(3.824060e-01 -1.926228e+02 -4.656900e+02)	(3.818634e-01 -1.926174e+02 -4.656896e+02)	(5.426599e-04 -5.402989e-03 -3.562998e-04)
45            	(4.843942e-01 -1.925911e+02 -4.656791e+02)	(4.838865e-01 -1.925856e+02 -4.656788e+02)	(5.076548e-04 -5.434864e-03 -2.983671e-04)
46            	(6.346900e-01 -1.925472e+02 -4.656632e+02)	(6.342222e-01 -1.925418e+02 -4.656630e+02)	(4.677720e-04 -5.420609e-03 -2.088275e-04)
47            	(1.173507e+00 -1.924206e+02 -4.655958e+02)	(1.173055e+00 -1.924153e+02 -4.655957e+02)	(4.521722e-04 -5.377309e-03 -1.110910e-04)
48            	(1.740999e+00 -1.922965e+02 -4.655274e+02)	(1.740532e+00 -1.922911e+02 -4.655274e+02)	(4.670534e-04 -5.341994e-03 -3.379509e-05)
49            	(2.273099e+00 -1.921635e+02 -4.654369e+02)	(2.272612e+00 -1.921582e+02 -4.654369e+02)	(4.865360e-04 -5.279489e-03 9.285036e-06)
50            	(2.346278e+00 -1.921444e+02 -4.654331e+02)	(2.345788e+00 -1.921392e+02 -4.654331e+02)	(4.901780e-04 -5.204633e-03 2.080063e-05)
51            	(2.660600e+00 -1.920787e+02 -4.653944e+02)	(2.660093e+00 -1.920735e+02 -4.653944e+02)	(5.075023e-04 -5.147578e-03 1.445206e-05)
52            	(2.704947e+00 -1.920732e+02 -4.653962e+02)	(2.704437e+00 -1.920681e+02 -4.653962e+02)	(5.095760e-04 -5.102737e-03 -2.217388e-05)
53            	(2.710972e+00 -1.920776e+02 -4.653975e+02)	(2.710464e+00 -1.920725e+02 -4.653975e+02)	(5.085327e-04 -5.077042e-03 -7.809175e-05)
54            	(2.663853e+00 -1.920913e+02 -4.653961e+02)	(2.663343e+00 -1.920863e+02 -4.653960e+02)	(5.098300e-04 -5.075493e-03 -1.431434e-04)
55            	(2.595986e+00 -1.921078e+02 -4.653957e+02)	(2.595471e+00 -1.921027e+02 -4.653955e+02)	(5.150270e-04 -5.090262e-03 -2.058190e-04)
56            	(2.469333e+00 -1.921324e+02 -4.653931e+02)	(2.468809e+00 -1.921273e+02 -4.653928e+02)	(5.236771e-04 -5.120870e-03 -2.562551e-04)
57            	(2.237552e+00 -1.921797e+02 -4.654132e+02)	(2.237026e+00 -1.921746e+02 -4.654129e+02)	(5.265549e-04 -5.146579e-03 -2.896865e-04)
58            	(2.213359e+00 -1.921854e+02 -4.654132e+02)	(2.212825e+00 -1.921803e+02 -4.654129e+02)	(5.348753e-04 -5.173591e-03 -3.064783e-04)
59            	(2.176134e+00 -1.921913e+02 -4.654125e+02)	(2.175587e+00 -1.921861e+02 -4.654122e+02)	(5.473617e-04 -5.202775e-03 -3.053632e-04)
60            	(1.981776e+00 -1.922285e+02 -4.654296e+02)	(1.981220e+00 -1.922233e+02 -4.654293e+02)	(5.560096e-04 -5.225861e-03 -2.927778e-04)
61            	(1.956486e+00 -1.922300e+02 -4.654279e+02)	(1.955915e+00 -1.922247e+02 -4.654277e+02)	(5.708183e-04 -5.245783e-03 -2.685488e-04)
62            	(1.936136e+00 -1.922292e+02 -4.654265e+02)	(1.935546e+00 -1.922240e+02 -4.654262e+02)	(5.894495e-04 -5.262930e-03 -2.364063e-04)
63            	(1.924108e+00 -1.922261e+02 -4.654256e+02)	(1.923496e+00 -1.922208e+02 -4.654254e+02)	(6.122376e-04 -5.274264e-03 -2.011437e-04)
64            	(1.923648e+00 -1.922203e+02 -4.654259e+02)	(1.923009e+00 -1.922150e+02 -4.654257e+02)	(6.396118e-04 -5.278978e-03 -1.676604e-04)
65            	(1.972190e+00 -1.922053e+02 -4.654303e+02)	(1.971519e+00 -1.922001e+02 -4.654301e+02)	(6.705521e-04 -5.273573e-03 -1.401702e-04)
66            	(2.083456e+00 -1.921801e+02 -4.654387e+02)	(2.082750e+00 -1.921748e+02 -4.654386e+02)	(7.061911e-04 -5.261092e-03 -1.240044e-04)
67            	(2.268809e+00 -1.921444e+02 -4.654508e+02)	(2.268062e+00 -1.921392e+02 -4.654507e+02)	(7.468951e-04 -5.249786e-03 -1.224181e-04)
68            	(2.375659e+00 -1.921238e+02 -4.654533e+02)	(2.374866e+00 -1.921185e+02 -4.654531e+02)	(7.936880e-04 -5.251289e-03 -1.307790e-04)
69            	(2.517593e+00 -1.920955e+02 -4.654451e+02)	(2.516751e+00 -1.920903e+02 -4.654449e+02)	(8.421792e-04 -5.256893e-03 -1.403441e-04)
70            	(2.565823e+00 -1.920857e+02 -4.654473e+02)	(2.564936e+00 -1.920804e+02 -4.654472e+02)	(8.867663e-04 -5.270362e-03 -1.538791e-04)
71            	(2.611618e+00 -1.920767e+02 -4.654490e+02)	(2.610691e+00 -1.920714e+02 -4.654488e+02)	(9.270862e-04 -5.292837e-03 -1.682550e-04)
72            	(2.654441e+00 -1.920683e+02 -4.654504e+02)	(2.653476e+00 -1.920630e+02 -4.654502e+02)	(9.648028e-04 -5.324984e-03 -1.813351e-04)
73            	(2.674216e+00 -1.920632e+02 -4.654502e+02)	(2.673217e+00 -1.920579e+02 -4.654500e+02)	(9.993663e-04 -5.364536e-03 -1.912002e-04)
74            	(2.682810e+00 -1.920596e+02 -4.654495e+02)	(2.681781e+00 -1.920542e+02 -4.654493e+02)	(1.029655e-03 -5.408844e-03 -1.973453e-04)
75            	(2.688048e+00 -1.920562e+02 -4.654483e+02)	(2.686993e+00 -1.920507e+02 -4.654481e+02)	(1.055425e-03 -5.455496e-03 -1.995625e-04)
76            	(2.690374e+00 -1.920530e+02 -4.654467e+02)	(2.689297e+00 -1.920475e+02 -4.654465e+02)	(1.077080e-03 -5.501951e-03 -1.978386e-04)
77            	(2.690332e+00 -1.920501e+02 -4.654449e+02)	(2.689237e+00 -1.920445e+02 -4.654447e+02)	(1.094491e-03 -5.546434e-03 -1.914104e-04)
78            	(2.688931e+00 -1.920475e+02 -4.654428e+02)	(2.687824e+00 -1.920419e+02 -4.654426e+02)	(1.107011e-03 -5.588156e-03 -1.801716e-04)
79            	(2.686017e+00 -1.920454e+02 -4.654404e+02)	(2.684902e+00 -1.920398e+02 -4.654402e+02)	(1.114556e-03 -5.626799e-03 -1.639153e-04)
80            	(2.680025e+00 -1.920440e+02 -4.654378e+02)	(2.678907e+00 -1.920383e+02 -4.654376e+02)	(1.118200e-03 -5.661847e-03 -1.431210e-04)
81            	(2.652716e+00 -1.920453e+02 -4.654334e+02)	(2.651598e+00 -1.920396e+02 -4.654333e+02)	(1.117670e-03 -5.691581e-03 -1.185932e-04)
82            	(2.622346e+00 -1.920468e+02 -4.654294e+02)	(2.621232e+00 -1.920411e+02 -4.654293e+02)	(1.114946e-03 -5.712758e-03 -9.283198e-05)
83            	(2.593682e+00 -1.920481e+02 -4.654260e+02)	(2.592570e+00 -1.920424e+02 -4.654260e+02)	(1.111617e-03 -5.724669e-03 -6.874090e-05)
84            	(2.570818e+00 -1.920490e+02 -4.654234e+02)	(2.569708e+00 -1.920433e+02 -4.654234e+02)	(1.109858e-03 -5.729482e-03 -4.826006e-05)
85            	(2.550076e+00 -1.920496e+02 -4.654189e+02)	(2.548965e+00 -1.920439e+02 -4.654189e+02)	(1.110306e-03 -5.730614e-03 -3.140627e-05)
86            	(2.604245e+00 -1.920371e+02 -4.654102e+02)	(2.603129e+00 -1.920314e+02 -4.654102e+02)	(1.116828e-03 -5.734562e-03 -1.814061e-05)
87            	(2.602086e+00 -1.920366e+02 -4.654099e+02)	(2.600964e+00 -1.920309e+02 -4.654099e+02)	(1.121654e-03 -5.736419e-03 -7.646253e-06)
88            	(2.653511e+00 -1.920244e+02 -4.654013e+02)	(2.652382e+00 -1.920187e+02 -4.654013e+02)	(1.128769e-03 -5.737472e-03 7.548342e-07)
89            	(2.653440e+00 -1.920235e+02 -4.654009e+02)	(2.652307e+00 -1.920178e+02 -4.654009e+02)	(1.133085e-03 -5.736184e-03 8.487867e-06)
90            	(2.654378e+00 -1.920224e+02 -4.654002e+02)	(2.653243e+00 -1.920166e+02 -4.654002e+02)	(1.135925e-03 -5.732350e-03 1.639492e-05)
91            	(2.720304e+00 -1.920066e+02 -4.653893e+02)	(2.719161e+00 -1.920008e+02 -4.653893e+02)	(1.142975e-03 -5.728901e-03 2.504071e-05)
92            	(2.722767e+00 -1.920045e+02 -4.653882e+02)	(2.721619e+00 -1.919988e+02 -4.653882e+02)	(1.147681e-03 -5.722199e-03 3.486862e-05)
93            	(2.726693e+00 -1.920019e+02 -4.653867e+02)	(2.725542e+00 -1.919962e+02 -4.653868e+02)	(1.151647e-03 -5.711256e-03 4.512253e-05)
94            	(2.812216e+00 -1.919823e+02 -4.653752e+02)	(2.811056e+00 -1.919766e+02 -4.653752e+02)	(1.160344e-03 -5.701781e-03 5.487079e-05)
95            	(2.818416e+00 -1.919790e+02 -4.653733e+02)	(2.817248e+00 -1.919733e+02 -4.653733e+02)	(1.167286e-03 -5.689143e-03 6.456658e-05)
96            	(2.828652e+00 -1.919752e+02 -4.653713e+02)	(2.827477e+00 -1.919696e+02 -4.653714e+02)	(1.174767e-03 -5.674662e-03 7.403735e-05)
97            	(2.878348e+00 -1.919657e+02 -4.653710e+02)	(2.877163e+00 -1.919600e+02 -4.653710e+02)	(1.184628e-03 -5.660710e-03 8.195510e-05)
98            	(2.905740e+00 -1.919603e+02 -4.653697e+02)	(2.904544e+00 -1.919546e+02 -4.653698e+02)	(1.196333e-03 -5.651617e-03 8.822245e-05)
99            	(2.932374e+00 -1.919556e+02 -4.653699e+02)	(2.931166e+00 -1.919500e+02 -4.653699e+02)	(1.208285e-03 -5.645620e-03 9.138430e-05)
100           	(2.951012e+00 -1.919526e+02 -4.653707e+02)	(2.949792e+00 -1.919469e+02 -4.653708e+02)	(1.219795e-03 -5.642650e-03 9.047443e-05)
101           	(2.965095e+00 -1.919505e+02 -4.653721e+02)	(2.963864e+00 -1.919449e+02 -4.653722e+02)	(1.230730e-03 -5.641748e-03 8.548916e-05)
102           	(2.975779e+00 -1.919491e+02 -4.653737e+02)	(2.974538e+00 -1.919435e+02 -4.653737e+02)	(1.240787e-03 -5.641882e-03 7.719859e-05)
103           	(2.983875e+00 -1.919482e+02 -4.653754e+02)	(2.982626e+00 -1.919426e+02 -4.653755e+02)	(1.249508e-03 -5.642647e-03 6.584634e-05)
104           	(2.989605e+00 -1.919478e+02 -4.653774e+02)	(2.988349e+00 -1.919421e+02 -4.653775e+02)	(1.256925e-03 -5.643539e-03 5.178605e-05)
105           	(2.994865e+00 -1.919477e+02 -4.653801e+02)	(2.993602e+00 -1.919420e+02 -4.653802e+02)	(1.263264e-03 -5.644172e-03 3.547154e-05)
106           	(2.997360e+00 -1.919483e+02 -4.653837e+02)	(2.996091e+00 -1.919426e+02 -4.653838e+02)	(1.268805e-03 -5.644220e-03 1.753190e-05)
107           	(2.940357e+00 -1.919608e+02 -4.653937e+02)	(2.939087e+00 -1.919551e+02 -4.653937e+02)	(1.269806e-03 -5.640153e-03 -1.144889e-06)
108           	(2.932948e+00 -1.919624e+02 -4.653949e+02)	(2.931675e+00 -1.919567e+02 -4.653949e+02)	(1.273440e-03 -5.637781e-03 -2.032836e-05)
109           	(2.926599e+00 -1.919635e+02 -4.653960e+02)	(2.925321e+00 -1.919579e+02 -4.653960e+02)	(1.278071e-03 -5.638196e-03 -3.930472e-05)
110           	(2.922185e+00 -1.919641e+02 -4.653969e+02)	(2.920902e+00 -1.919584e+02 -4.653969e+02)	(1.283222e-03 -5.639157e-03 -5.711210e-05)
111           	(2.919797e+00 -1.919642e+02 -4.653977e+02)	(2.918508e+00 -1.919585e+02 -4.653976e+02)	(1.288679e-03 -5.640238e-03 -7.281730e-05)
112           	(2.919137e+00 -1.919639e+02 -4.653982e+02)	(2.917843e+00 -1.919583e+02 -4.653981e+02)	(1.293929e-03 -5.641433e-03 -8.624664e-05)
113           	(2.919790e+00 -1.919635e+02 -4.653985e+02)	(2.918492e+00 -1.919578e+02 -4.653984e+02)	(1.298086e-03 -5.642522e-03 -9.751983e-05)
114           	(2.921246e+00 -1.919630e+02 -4.653986e+02)	(2.919946e+00 -1.919574e+02 -4.653985e+02)	(1.300508e-03 -5.643383e-03 -1.071326e-04)
115           	(2.923170e+00 -1.919626e+02 -4.653986e+02)	(2.921868e+00 -1.919570e+02 -4.653985e+02)	(1.301506e-03 -5.644352e-03 -1.149776e-04)
116           	(2.925223e+00 -1.919623e+02 -4.653985e+02)	(2.923922e+00 -1.919567e+02 -4.653984e+02)	(1.301108e-03 -5.645535e-03 -1.212281e-04)
117           	(2.927096e+00 -1.919621e+02 -4.653983e+02)	(2.925797e+00 -1.919565e+02 -4.653981e+02)	(1.299072e-03 -5.647007e-03 -1.260257e-04)
118           	(2.928606e+00 -1.919621e+02 -4.653980e+02)	(2.927310e+00 -1.919564e+02 -4.653979e+02)	(1.295509e-03 -5.649010e-03 -1.296579e-04)
119           	(2.929665e+00 -1.919621e+02 -4.653977e+02)	(2.928374e+00 -1.919565e+02 -4.653975e+02)	(1.290572e-03 -5.651403e-03 -1.322816e-04)
120           	(2.930285e+00 -1.919623e+02 -4.653973e+02)	(2.929001e+00 -1.919566e+02 -4.653972e+02)	(1.284106e-03 -5.654220e-03 -1.340605e-04)
121           	(2.930618e+00 -1.919625e+02 -4.653968e+02)	(2.929341e+00 -1.919568e+02 -4.653967e+02)	(1.276206e-03 -5.657574e-03 -1.351050e-04)
122           	(2.930417e+00 -1.919628e+02 -4.653963e+02)	(2.929150e+00 -1.919571e+02 -4.653961e+02)	(1.267070e-03 -5.661539e-03 -1.358579e-04)
123           	(2.929800e+00 -1.919631e+02 -4.653956e+02)	(2.928543e+00 -1.919574e+02 -4.653955e+02)	(1.256938e-03 -5.666266e-03 -1.365239e-04)
124           	(2.928256e+00 -1.919636e+02 -4.653950e+02)	(2.927009e+00 -1.919579e+02 -4.653949e+02)	(1.246066e-03 -5.671725e-03 -1.372130e-04)
125           	(2.925867e+00 -1.919643e+02 -4.653944e+02)	(2.924632e+00 -1.919586e+02 -4.653942e+02)	(1.234854e-03 -5.678146e-03 -1.381259e-04)
126           	(2.922843e+00 -1.919651e+02 -4.653938e+02)	(2.921620e+00 -1.919594e+02 -4.653936e+02)	(1.223227e-03 -5.685521e-03 -1.396483e-04)
127           	(2.919085e+00 -1.919660e+02 -4.653932e+02)	(2.917874e+00 -1.919603e+02 -4.653931e+02)	(1.211377e-03 -5.693992e-03 -1.418181e-04)
128           	(2.914826e+00 -1.919670e+02 -4.653927e+02)	(2.913626e+00 -1.919613e+02 -4.653925e+02)	(1.199263e-03 -5.703238e-03 -1.446132e-04)
129           	(2.910309e+00 -1.919680e+02 -4.653922e+02)	(2.909122e+00 -1.919623e+02 -4.653920e+02)	(1.187591e-03 -5.713153e-03 -1.478052e-04)
130           	(2.905777e+00 -1.919690e+02 -4.653918e+02)	(2.904600e+00 -1.919633e+02 -4.653917e+02)	(1.176723e-03 -5.723412e-03 -1.512775e-04)
131           	(2.901475e+00 -1.919700e+02 -4.653915e+02)	(2.900308e+00 -1.919643e+02 -4.653914e+02)	(1.166618e-03 -5.733640e-03 -1.547317e-04)
132           	(2.897635e+00 -1.919709e+02 -4.653913e+02)	(2.896478e+00 -1.919652e+02 -4.653912e+02)	(1.157280e-03 -5.743556e-03 -1.579081e-04)
133           	(2.894461e+00 -1.919717e+02 -4.653912e+02)	(2.893312e+00 -1.919659e+02 -4.653910e+02)	(1.148948e-03 -5.752830e-03 -1.607169e-04)
134           	(2.892135e+00 -1.919723e+02 -4.653911e+02)	(2.890994e+00 -1.919665e+02 -4.653909e+02)	(1.141499e-03 -5.761309e-03 -1.629986e-04)
135           	(2.890817e+00 -1.919727e+02 -4.653910e+02)	(2.889682e+00 -1.919670e+02 -4.653908e+02)	(1.134893e-03 -5.768885e-03 -1.643758e-04)
136           	(2.890593e+00 -1.919730e+02 -4.653910e+02)	(2.889463e+00 -1.919673e+02 -4.653908e+02)	(1.129186e-03 -5.775513e-03 -1.647896e-04)
137           	(2.891442e+00 -1.919732e+02 -4.653910e+02)	(2.890318e+00 -1.919674e+02 -4.653908e+02)	(1.124506e-03 -5.781428e-03 -1.643948e-04)
138           	(2.893287e+00 -1.919733e+02 -4.653910e+02)	(2.892166e+00 -1.919675e+02 -4.653908e+02)	(1.120802e-03 -5.786777e-03 -1.632302e-04)
139           	(2.896007e+00 -1.919733e+02 -4.653910e+02)	(2.894889e+00 -1.919675e+02 -4.653909e+02)	(1.118162e-03 -5.791935e-03 -1.614144e-04)
140           	(2.899451e+00 -1.919732e+02 -4.653911e+02)	(2.898334e+00 -1.919674e+02 -4.653910e+02)	(1.116449e-03 -5.797136e-03 -1.590698e-04)
141           	(2.903506e+00 -1.919730e+02 -4.653913e+02)	(2.902391e+00 -1.919672e+02 -4.653911e+02)	(1.115673e-03 -5.802546e-03 -1.562729e-04)
142           	(2.907933e+00 -1.919727e+02 -4.653914e+02)	(2.906817e+00 -1.919669e+02 -4.653913e+02)	(1.115800e-03 -5.808179e-03 -1.531124e-04)
143           	(2.912619e+00 -1.919723e+02 -4.653916e+02)	(2.911502e+00 -1.919665e+02 -4.653915e+02)	(1.116905e-03 -5.813941e-03 -1.495300e-04)
144           	(2.917488e+00 -1.919718e+02 -4.653918e+02)	(2.916369e+00 -1.919660e+02 -4.653917e+02)	(1.118853e-03 -5.819711e-03 -1.456385e-04)
145           	(2.922642e+00 -1.919712e+02 -4.653922e+02)	(2.921521e+00 -1.919654e+02 -4.653920e+02)	(1.121531e-03 -5.825508e-03 -1.415287e-04)
146           	(2.935015e+00 -1.919698e+02 -4.653936e+02)	(2.933890e+00 -1.919640e+02 -4.653934e+02)	(1.124999e-03 -5.830750e-03 -1.372003e-04)
147           	(2.944366e+00 -1.919688e+02 -4.653950e+02)	(2.943237e+00 -1.919629e+02 -4.653948e+02)	(1.128655e-03 -5.835529e-03 -1.327241e-04)
148           	(2.950493e+00 -1.919681e+02 -4.653963e+02)	(2.949360e+00 -1.919623e+02 -4.653961e+02)	(1.132206e-03 -5.839777e-03 -1.281302e-04)
149           	(2.951290e+00 -1.919677e+02 -4.653965e+02)	(2.950155e+00 -1.919619e+02 -4.653964e+02)	(1.134949e-03 -5.843192e-03 -1.234827e-04)
150           	(2.951249e+00 -1.919674e+02 -4.653967e+02)	(2.950112e+00 -1.919616e+02 -4.653966e+02)	(1.137049e-03 -5.845858e-03 -1.185151e-04)
151           	(2.950608e+00 -1.919671e+02 -4.653968e+02)	(2.949470e+00 -1.919612e+02 -4.653967e+02)	(1.138491e-03 -5.847691e-03 -1.130417e-04)
152           	(2.949580e+00 -1.919667e+02 -4.653968e+02)	(2.948441e+00 -1.919608e+02 -4.653967e+02)	(1.139269e-03 -5.848401e-03 -1.070400e-04)
153           	(2.948363e+00 -1.919662e+02 -4.653968e+02)	(2.947224e+00 -1.919603e+02 -4.653967e+02)	(1.139341e-03 -5.847688e-03 -1.004809e-04)
154           	(2.947180e+00 -1.919656e+02 -4.653967e+02)	(2.946041e+00 -1.919598e+02 -4.653966e+02)	(1.138532e-03 -5.845447e-03 -9.336284e-05)
155           	(2.946050e+00 -1.919650e+02 -4.653967e+02)	(2.944914e+00 -1.919591e+02 -4.653966e+02)	(1.136845e-03 -5.841786e-03 -8.561237e-05)
156           	(2.945031e+00 -1.919643e+02 -4.653966e+02)	(2.943897e+00 -1.919585e+02 -4.653966e+02)	(1.134089e-03 -5.836665e-03 -7.727999e-05)
157           	(2.944144e+00 -1.919636e+02 -4.653966e+02)	(2.943013e+00 -1.919578e+02 -4.653965e+02)	(1.130327e-03 -5.830125e-03 -6.834030e-05)
158           	(2.943352e+00 -1.919629e+02 -4.653966e+02)	(2.942226e+00 -1.919571e+02 -4.653966e+02)	(1.125735e-03 -5.822443e-03 -5.870088e-05)
159           	(2.942697e+00 -1.919623e+02 -4.653966e+02)	(2.941576e+00 -1.919565e+02 -4.653966e+02)	(1.120628e-03 -5.813825e-03 -4.853294e-05)
160           	(2.942246e+00 -1.919616e+02 -4.653966e+02)	(2.941131e+00 -1.919558e+02 -4.653966e+02)	(1.115182e-03 -5.804109e-03 -3.796894e-05)
161           	(2.942104e+00 -1.919609e+02 -4.653967e+02)	(2.940994e+00 -1.919551e+02 -4.653967e+02)	(1.109444e-03 -5.793248e-03 -2.705364e-05)
162           	(2.942420e+00 -1.919602e+02 -4.653968e+02)	(2.941316e+00 -1.919544e+02 -4.653968e+02)	(1.103559e-03 -5.781386e-03 -1.600146e-05)
163           	(2.943256e+00 -1.919594e+02 -4.653969e+02)	(2.942158e+00 -1.919536e+02 -4.653969e+02)	(1.097653e-03 -5.768664e-03 -5.172900e-06)
164           	(2.944622e+00 -1.919586e+02 -4.653970e+02)	(2.943530e+00 -1.919529e+02 -4.653970e+02)	(1.091824e-03 -5.754853e-03 5.245920e-06)
165           	(2.946371e+00 -1.919579e+02 -4.653972e+02)	(2.945285e+00 -1.919522e+02 -4.653972e+02)	(1.086117e-03 -5.740042e-03 1.514642e-05)
166           	(2.948254e+00 -1.919573e+02 -4.653973e+02)	(2.947173e+00 -1.919515e+02 -4.653973e+02)	(1.080559e-03 -5.724573e-03 2.441739e-05)
167           	(2.950085e+00 -1.919567e+02 -4.653975e+02)	(2.949010e+00 -1.919510e+02 -4.653975e+02)	(1.075057e-03 -5.708815e-03 3.295513e-05)
168           	(2.951677e+00 -1.919563e+02 -4.653977e+02)	(2.950607e+00 -1.919506e+02 -4.653977e+02)	(1.069456e-03 -5.692831e-03 4.072146e-05)
169           	(2.952824e+00 -1.919559e+02 -4.653979e+02)	(2.951760e+00 -1.919502e+02 -4.653979e+02)	(1.063777e-03 -5.676846e-03 4.788928e-05)
170           	(2.953428e+00 -1.919557e+02 -4.653981e+02)	(2.952370e+00 -1.919500e+02 -4.653981e+02)	(1.058197e-03 -5.661364e-03 5.464680e-05)
171           	(2.953559e+00 -1.919556e+02 -4.653983e+02)	(2.952506e+00 -1.919499e+02 -4.653983e+02)	(1.052840e-03 -5.646557e-03 6.106488e-05)
172           	(2.953297e+00 -1.919554e+02 -4.653985e+02)	(2.952250e+00 -1.919498e+02 -4.653986e+02)	(1.047791e-03 -5.632474e-03 6.728080e-05)
173           	(2.952760e+00 -1.919553e+02 -4.653987e+02)	(2.951717e+00 -1.919497e+02 -4.653988e+02)	(1.043006e-03 -5.619157e-03 7.342980e-05)
174           	(2.952026e+00 -1.919552e+02 -4.653990e+02)	(2.950987e+00 -1.919496e+02 -4.653990e+02)	(1.038540e-03 -5.606694e-03 7.948097e-05)
175           	(2.951265e+00 -1.919550e+02 -4.653992e+02)	(2.950230e+00 -1.919494e+02 -4.653993e+02)	(1.034473e-03 -5.594979e-03 8.537137e-05)
176           	(2.950689e+00 -1.919548e+02 -4.653995e+02)	(2.949658e+00 -1.919492e+02 -4.653996e+02)	(1.030893e-03 -5.583756e-03 9.101281e-05)
177           	(2.950505e+00 -1.919544e+02 -4.653998e+02)	(2.949477e+00 -1.919489e+02 -4.653999e+02)	(1.027826e-03 -5.572690e-03 9.640313e-05)
178           	(2.950860e+00 -1.919540e+02 -4.654001e+02)	(2.949834e+00 -1.919484e+02 -4.654002e+02)	(1.025289e-03 -5.561522e-03 1.015235e-04)
179           	(2.951892e+00 -1.919534e+02 -4.654005e+02)	(2.950868e+00 -1.919479e+02 -4.654007e+02)	(1.023316e-03 -5.549985e-03 1.061503e-04)
180           	(2.954060e+00 -1.919527e+02 -4.654012e+02)	(2.953038e+00 -1.919471e+02 -4.654013e+02)	(1.021847e-03 -5.537606e-03 1.102089e-04)
181           	(2.959526e+00 -1.919515e+02 -4.654023e+02)	(2.958505e+00 -1.919460e+02 -4.654024e+02)	(1.020790e-03 -5.523977e-03 1.136295e-04)
182           	(2.966944e+00 -1.919501e+02 -4.654036e+02)	(2.965925e+00 -1.919446e+02 -4.654038e+02)	(1.019716e-03 -5.509090e-03 1.165167e-04)
183           	(2.970482e+00 -1.919491e+02 -4.654043e+02)	(2.969463e+00 -1.919436e+02 -4.654044e+02)	(1.018310e-03 -5.493685e-03 1.190245e-04)
184           	(2.978107e+00 -1.919476e+02 -4.654056e+02)	(2.977090e+00 -1.919422e+02 -4.654058e+02)	(1.016562e-03 -5.477005e-03 1.212178e-04)
185           	(2.980971e+00 -1.919468e+02 -4.654063e+02)	(2.979957e+00 -1.919413e+02 -4.654064e+02)	(1.014310e-03 -5.460739e-03 1.232515e-04)
186           	(2.983235e+00 -1.919461e+02 -4.654068e+02)	(2.982224e+00 -1.919406e+02 -4.654069e+02)	(1.011699e-03 -5.444895e-03 1.249984e-04)
187           	(2.985533e+00 -1.919454e+02 -4.654073e+02)	(2.984525e+00 -1.919399e+02 -4.654075e+02)	(1.008653e-03 -5.429241e-03 1.264339e-04)
188           	(2.986833e+00 -1.919449e+02 -4.654078e+02)	(2.985828e+00 -1.919395e+02 -4.654079e+02)	(1.005266e-03 -5.414160e-03 1.276020e-04)
189           	(2.988053e+00 -1.919444e+02 -4.654082e+02)	(2.987051e+00 -1.919390e+02 -4.654083e+02)	(1.001439e-03 -5.399370e-03 1.284815e-04)
190           	(2.989083e+00 -1.919439e+02 -4.654086e+02)	(2.988086e+00 -1.919385e+02 -4.654088e+02)	(9.970996e-04 -5.384726e-03 1.289599e-04)
191           	(2.989777e+00 -1.919435e+02 -4.654091e+02)	(2.988784e+00 -1.919381e+02 -4.654092e+02)	(9.922338e-04 -5.370352e-03 1.288711e-04)
192           	(2.990398e+00 -1.919431e+02 -4.654095e+02)	(2.989411e+00 -1.919378e+02 -4.654097e+02)	(9.868200e-04 -5.356169e-03 1.280728e-04)
193           	(2.990946e+00 -1.919427e+02 -4.654100e+02)	(2.989966e+00 -1.919374e+02 -4.654101e+02)	(9.809113e-04 -5.342234e-03 1.265590e-04)
194           	(2.991538e+00 -1.919424e+02 -4.654105e+02)	(2.990563e+00 -1.919370e+02 -4.654106e+02)	(9.745041e-04 -5.328580e-03 1.243029e-04)
195           	(2.992254e+00 -1.919420e+02 -4.654110e+02)	(2.991286e+00 -1.919367e+02 -4.654111e+02)	(9.677140e-04 -5.315219e-03 1.212018e-04)
196           	(2.993123e+00 -1.919416e+02 -4.654114e+02)	(2.992163e+00 -1.919363e+02 -4.654115e+02)	(9.605779e-04 -5.302091e-03 1.172690e-04)
197           	(2.994107e+00 -1.919412e+02 -4.654117e+02)	(2.993154e+00 -1.919359e+02 -4.654118e+02)	(9.531237e-04 -5.289253e-03 1.125805e-04)
198           	(2.995155e+00 -1.919409e+02 -4.654120e+02)	(2.994209e+00 -1.919356e+02 -4.654121e+02)	(9.454886e-04 -5.276833e-03 1.072220e-04)
199           	(2.996122e+00 -1.919406e+02 -4.654123e+02)	(2.995184e+00 -1.919354e+02 -4.654124e+02)	(9.377702e-04 -5.265245e-03 1.012150e-04)
200           	(2.996941e+00 -1.919405e+02 -4.654125e+02)	(2.996011e+00 -1.919352e+02 -4.654126e+02)	(9.300534e-04 -5.254517e-03 9.462867e-05)
201           	(2.997561e+00 -1.919404e+02 -4.654127e+02)	(2.996639e+00 -1.919351e+02 -4.654127e+02)	(9.223975e-04 -5.244724e-03 8.759473e-05)
202           	(2.998047e+00 -1.919403e+02 -4.654127e+02)	(2.997133e+00 -1.919351e+02 -4.654128e+02)	(9.147705e-04 -5.235743e-03 8.018550e-05)
203           	(2.998474e+00 -1.919401e+02 -4.654126e+02)	(2.997567e+00 -1.919349e+02 -4.654127e+02)	(9.071983e-04 -5.227113e-03 7.244599e-05)
204           	(2.998723e+00 -1.919402e+02 -4.654127e+02)	(2.997823e+00 -1.919350e+02 -4.654128e+02)	(8.999597e-04 -5.218994e-03 6.464569e-05)
205           	(3.065853e+00 -1.919254e+02 -4.654022e+02)	(3.064952e+00 -1.919202e+02 -4.654023e+02)	(9.001076e-04 -5.213457e-03 5.666284e-05)
206           	(3.066269e+00 -1.919250e+02 -4.654021e+02)	(3.065373e+00 -1.919198e+02 -4.654021e+02)	(8.955897e-04 -5.205794e-03 4.887962e-05)
207           	(3.066704e+00 -1.919247e+02 -4.654020e+02)	(3.065814e+00 -1.919195e+02 -4.654020e+02)	(8.894931e-04 -5.195900e-03 4.123562e-05)