# Force       
# CofR        : (0.000000e+00 0.000000e+00 0.000000e+00)
#
# Time        	(total_x total_y total_z)	(pressure_x pressure_y pressure_z)	(viscous_x viscous_y viscous_z)
107.008       	(1.117195e+01 -7.889284e-02 3.031464e+02)	(1.113557e+01 -8.211331e-02 3.031211e+02)	(3.638586e-02 3.220464e-03 2.532695e-02)
107.015       	(1.117194e+01 -7.858846e-02 3.031472e+02)	(1.113554e+01 -8.186420e-02 3.031219e+02)	(3.640030e-02 3.275743e-03 2.532122e-02)
107.023       	(1.117200e+01 -7.829215e-02 3.031482e+02)	(1.113559e+01 -8.162118e-02 3.031229e+02)	(3.641387e-02 3.329027e-03 2.531605e-02)
107.031       	(1.117203e+01 -7.798212e-02 3.031492e+02)	(1.113560e+01 -8.136236e-02 3.031239e+02)	(3.642657e-02 3.380237e-03 2.531144e-02)
107.038       	(1.117199e+01 -7.765725e-02 3.031504e+02)	(1.113555e+01 -8.108664e-02 3.031251e+02)	(3.643835e-02 3.429388e-03 2.530733e-02)
107.046       	(1.117189e+01 -7.734766e-02 3.031519e+02)	(1.113544e+01 -8.082426e-02 3.031266e+02)	(3.644926e-02 3.476602e-03 2.530385e-02)
107.053       	(1.117167e+01 -7.706108e-02 3.031534e+02)	(1.113521e+01 -8.058289e-02 3.031281e+02)	(3.645934e-02 3.521811e-03 2.530090e-02)
107.061       	(1.117164e+01 -7.674892e-02 3.031551e+02)	(1.113517e+01 -8.031392e-02 3.031298e+02)	(3.646861e-02 3.565005e-03 2.529840e-02)
107.069       	(1.117163e+01 -7.643752e-02 3.031569e+02)	(1.113515e+01 -8.004373e-02 3.031316e+02)	(3.647713e-02 3.606206e-03 2.529632e-02)
107.076       	(1.117136e+01 -7.615772e-02 3.031590e+02)	(1.113488e+01 -7.980315e-02 3.031337e+02)	(3.648502e-02 3.645431e-03 2.529463e-02)
107.084       	(1.117112e+01 -7.588166e-02 3.031611e+02)	(1.113462e+01 -7.956446e-02 3.031358e+02)	(3.649225e-02 3.682810e-03 2.529327e-02)
107.092       	(1.117081e+01 -7.559705e-02 3.031634e+02)	(1.113431e+01 -7.931548e-02 3.031381e+02)	(3.649885e-02 3.718433e-03 2.529213e-02)
107.099       	(1.117059e+01 -7.531421e-02 3.031659e+02)	(1.113409e+01 -7.906653e-02 3.031406e+02)	(3.650488e-02 3.752319e-03 2.529117e-02)
107.107       	(1.117026e+01 -7.504405e-02 3.031686e+02)	(1.113375e+01 -7.882848e-02 3.031433e+02)	(3.651037e-02 3.784428e-03 2.529027e-02)
107.115       	(1.116983e+01 -7.477250e-02 3.031713e+02)	(1.113331e+01 -7.858735e-02 3.031460e+02)	(3.651522e-02 3.814841e-03 2.528938e-02)
107.122       	(1.116936e+01 -7.450780e-02 3.031741e+02)	(1.113284e+01 -7.835139e-02 3.031488e+02)	(3.651947e-02 3.843591e-03 2.528848e-02)
107.13        	(1.116884e+01 -7.423941e-02 3.031771e+02)	(1.113232e+01 -7.811029e-02 3.031518e+02)	(3.652318e-02 3.870878e-03 2.528756e-02)
107.137       	(1.116822e+01 -7.399622e-02 3.031803e+02)	(1.113169e+01 -7.789291e-02 3.031550e+02)	(3.652635e-02 3.896699e-03 2.528654e-02)
107.145       	(1.116752e+01 -7.374234e-02 3.031834e+02)	(1.113099e+01 -7.766335e-02 3.031581e+02)	(3.652894e-02 3.921009e-03 2.528538e-02)
107.153       	(1.116674e+01 -7.347617e-02 3.031868e+02)	(1.113021e+01 -7.742008e-02 3.031615e+02)	(3.653097e-02 3.943904e-03 2.528408e-02)
107.16        	(1.116574e+01 -7.324183e-02 3.031904e+02)	(1.112920e+01 -7.720722e-02 3.031651e+02)	(3.653238e-02 3.965386e-03 2.528269e-02)
107.168       	(1.116477e+01 -7.302230e-02 3.031940e+02)	(1.112824e+01 -7.700791e-02 3.031687e+02)	(3.653304e-02 3.985607e-03 2.528119e-02)
107.176       	(1.116373e+01 -7.281749e-02 3.031978e+02)	(1.112720e+01 -7.682217e-02 3.031725e+02)	(3.653297e-02 4.004672e-03 2.527961e-02)
107.183       	(1.116264e+01 -7.261158e-02 3.032017e+02)	(1.112611e+01 -7.663424e-02 3.031764e+02)	(3.653213e-02 4.022661e-03 2.527802e-02)
107.191       	(1.116148e+01 -7.239798e-02 3.032057e+02)	(1.112495e+01 -7.643769e-02 3.031804e+02)	(3.653055e-02 4.039716e-03 2.527643e-02)
107.198       	(1.116037e+01 -7.219609e-02 3.032098e+02)	(1.112385e+01 -7.625198e-02 3.031846e+02)	(3.652820e-02 4.055886e-03 2.527485e-02)
107.206       	(1.115926e+01 -7.199632e-02 3.032140e+02)	(1.112273e+01 -7.606762e-02 3.031887e+02)	(3.652499e-02 4.071302e-03 2.527327e-02)
107.214       	(1.115822e+01 -7.179853e-02 3.032183e+02)	(1.112170e+01 -7.588468e-02 3.031930e+02)	(3.652100e-02 4.086149e-03 2.527174e-02)
107.221       	(1.115726e+01 -7.159323e-02 3.032226e+02)	(1.112075e+01 -7.569383e-02 3.031974e+02)	(3.651626e-02 4.100592e-03 2.527023e-02)
107.229       	(1.115629e+01 -7.138000e-02 3.032270e+02)	(1.111978e+01 -7.549480e-02 3.032018e+02)	(3.651075e-02 4.114804e-03 2.526877e-02)
107.237       	(1.115522e+01 -7.119615e-02 3.032314e+02)	(1.111872e+01 -7.532489e-02 3.032062e+02)	(3.650452e-02 4.128740e-03 2.526730e-02)
107.244       	(1.115427e+01 -7.101111e-02 3.032358e+02)	(1.111777e+01 -7.515354e-02 3.032106e+02)	(3.649749e-02 4.142425e-03 2.526576e-02)
107.252       	(1.115342e+01 -7.081703e-02 3.032403e+02)	(1.111693e+01 -7.497300e-02 3.032150e+02)	(3.648978e-02 4.155972e-03 2.526415e-02)
107.26        	(1.115256e+01 -7.063274e-02 3.032446e+02)	(1.111608e+01 -7.480209e-02 3.032193e+02)	(3.648140e-02 4.169354e-03 2.526233e-02)
107.267       	(1.115179e+01 -7.044471e-02 3.032488e+02)	(1.111532e+01 -7.462734e-02 3.032236e+02)	(3.647229e-02 4.182622e-03 2.526022e-02)
107.275       	(1.115118e+01 -7.025818e-02 3.032530e+02)	(1.111472e+01 -7.445389e-02 3.032278e+02)	(3.646262e-02 4.195712e-03 2.525783e-02)
107.282       	(1.115069e+01 -7.006350e-02 3.032572e+02)	(1.111424e+01 -7.427204e-02 3.032319e+02)	(3.645234e-02 4.208539e-03 2.525504e-02)
107.29        	(1.115029e+01 -6.985745e-02 3.032612e+02)	(1.111384e+01 -7.407855e-02 3.032359e+02)	(3.644152e-02 4.221098e-03 2.525184e-02)
107.298       	(1.114989e+01 -6.967400e-02 3.032650e+02)	(1.111346e+01 -7.390733e-02 3.032398e+02)	(3.643016e-02 4.233332e-03 2.524818e-02)
107.305       	(1.114958e+01 -6.949832e-02 3.032687e+02)	(1.111316e+01 -7.374341e-02 3.032435e+02)	(3.641821e-02 4.245097e-03 2.524397e-02)
107.313       	(1.114939e+01 -6.932468e-02 3.032723e+02)	(1.111298e+01 -7.358103e-02 3.032470e+02)	(3.640570e-02 4.256355e-03 2.523915e-02)
107.321       	(1.114924e+01 -6.915449e-02 3.032756e+02)	(1.111284e+01 -7.342151e-02 3.032503e+02)	(3.639260e-02 4.267026e-03 2.523369e-02)
107.328       	(1.114910e+01 -6.896250e-02 3.032787e+02)	(1.111272e+01 -7.323953e-02 3.032535e+02)	(3.637896e-02 4.277029e-03 2.522752e-02)
107.336       	(1.114898e+01 -6.879669e-02 3.032817e+02)	(1.111261e+01 -7.308295e-02 3.032564e+02)	(3.636480e-02 4.286262e-03 2.522066e-02)
107.344       	(1.114881e+01 -6.864708e-02 3.032844e+02)	(1.111246e+01 -7.294159e-02 3.032592e+02)	(3.635013e-02 4.294509e-03 2.521301e-02)
107.351       	(1.114883e+01 -6.850132e-02 3.032869e+02)	(1.111250e+01 -7.280294e-02 3.032617e+02)	(3.633502e-02 4.301625e-03 2.520462e-02)
107.359       	(1.114882e+01 -6.836130e-02 3.032891e+02)	(1.111250e+01 -7.266878e-02 3.032639e+02)	(3.631953e-02 4.307484e-03 2.519546e-02)
107.366       	(1.114890e+01 -6.819872e-02 3.032912e+02)	(1.111260e+01 -7.251065e-02 3.032660e+02)	(3.630369e-02 4.311926e-03 2.518557e-02)
107.374       	(1.114900e+01 -6.804978e-02 3.032930e+02)	(1.111271e+01 -7.236458e-02 3.032678e+02)	(3.628752e-02 4.314793e-03 2.517496e-02)
107.382       	(1.114904e+01 -6.792297e-02 3.032946e+02)	(1.111277e+01 -7.223898e-02 3.032695e+02)	(3.627103e-02 4.316008e-03 2.516365e-02)
107.389       	(1.114912e+01 -6.780263e-02 3.032959e+02)	(1.111286e+01 -7.211805e-02 3.032708e+02)	(3.625430e-02 4.315417e-03 2.515154e-02)
107.397       	(1.114921e+01 -6.767289e-02 3.032971e+02)	(1.111297e+01 -7.198576e-02 3.032719e+02)	(3.623735e-02 4.312872e-03 2.513868e-02)
107.405       	(1.114930e+01 -6.755484e-02 3.032980e+02)	(1.111308e+01 -7.186305e-02 3.032728e+02)	(3.622016e-02 4.308217e-03 2.512518e-02)
107.412       	(1.114947e+01 -6.744989e-02 3.032986e+02)	(1.111327e+01 -7.175122e-02 3.032735e+02)	(3.620286e-02 4.301336e-03 2.511109e-02)
107.42        	(1.114966e+01 -6.735412e-02 3.032990e+02)	(1.111347e+01 -7.164620e-02 3.032739e+02)	(3.618541e-02 4.292083e-03 2.509646e-02)
107.427       	(1.114992e+01 -6.725616e-02 3.032992e+02)	(1.111375e+01 -7.153658e-02 3.032741e+02)	(3.616797e-02 4.280424e-03 2.508138e-02)
107.435       	(1.115014e+01 -6.716802e-02 3.032992e+02)	(1.111399e+01 -7.143452e-02 3.032741e+02)	(3.615059e-02 4.266499e-03 2.506590e-02)
107.443       	(1.115044e+01 -6.708813e-02 3.032990e+02)	(1.111431e+01 -7.133835e-02 3.032740e+02)	(3.613337e-02 4.250220e-03 2.505013e-02)
107.45        	(1.115077e+01 -6.700776e-02 3.032986e+02)	(1.111466e+01 -7.123946e-02 3.032736e+02)	(3.611638e-02 4.231703e-03 2.503404e-02)
107.458       	(1.115129e+01 -6.691007e-02 3.032981e+02)	(1.111519e+01 -7.112116e-02 3.032731e+02)	(3.609985e-02 4.211095e-03 2.501791e-02)
107.466       	(1.115187e+01 -6.684501e-02 3.032973e+02)	(1.111579e+01 -7.103358e-02 3.032723e+02)	(3.608374e-02 4.188573e-03 2.500175e-02)
107.473       	(1.115238e+01 -6.681118e-02 3.032964e+02)	(1.111631e+01 -7.097541e-02 3.032714e+02)	(3.606805e-02 4.164226e-03 2.498567e-02)
107.481       	(1.115298e+01 -6.676384e-02 3.032952e+02)	(1.111693e+01 -7.090203e-02 3.032702e+02)	(3.605282e-02 4.138184e-03 2.496972e-02)
107.489       	(1.115382e+01 -6.672500e-02 3.032938e+02)	(1.111778e+01 -7.083576e-02 3.032689e+02)	(3.603812e-02 4.110758e-03 2.495393e-02)
107.496       	(1.115463e+01 -6.671162e-02 3.032924e+02)	(1.111861e+01 -7.079376e-02 3.032675e+02)	(3.602400e-02 4.082138e-03 2.493839e-02)
107.504       	(1.115550e+01 -6.672236e-02 3.032909e+02)	(1.111949e+01 -7.077490e-02 3.032660e+02)	(3.601050e-02 4.052535e-03 2.492308e-02)
107.511       	(1.115623e+01 -6.675647e-02 3.032891e+02)	(1.112023e+01 -7.077855e-02 3.032642e+02)	(3.599770e-02 4.022085e-03 2.490796e-02)
107.519       	(1.115701e+01 -6.680685e-02 3.032873e+02)	(1.112102e+01 -7.079784e-02 3.032624e+02)	(3.598557e-02 3.990989e-03 2.489308e-02)
107.527       	(1.115796e+01 -6.684243e-02 3.032853e+02)	(1.112199e+01 -7.080189e-02 3.032604e+02)	(3.597419e-02 3.959452e-03 2.487847e-02)
107.534       	(1.115887e+01 -6.689223e-02 3.032832e+02)	(1.112290e+01 -7.081984e-02 3.032583e+02)	(3.596374e-02 3.927612e-03 2.486430e-02)
107.542       	(1.115970e+01 -6.698015e-02 3.032809e+02)	(1.112375e+01 -7.087592e-02 3.032561e+02)	(3.595410e-02 3.895769e-03 2.485053e-02)
107.55        	(1.116062e+01 -6.705071e-02 3.032786e+02)	(1.112468e+01 -7.091477e-02 3.032537e+02)	(3.594525e-02 3.864061e-03 2.483719e-02)
107.557       	(1.116160e+01 -6.713564e-02 3.032761e+02)	(1.112566e+01 -7.096819e-02 3.032512e+02)	(3.593713e-02 3.832547e-03 2.482436e-02)
107.565       	(1.116243e+01 -6.725336e-02 3.032736e+02)	(1.112650e+01 -7.105468e-02 3.032488e+02)	(3.592971e-02 3.801323e-03 2.481219e-02)
107.573       	(1.116309e+01 -6.740452e-02 3.032711e+02)	(1.112717e+01 -7.117500e-02 3.032463e+02)	(3.592294e-02 3.770482e-03 2.480075e-02)
107.58        	(1.116375e+01 -6.755543e-02 3.032686e+02)	(1.112783e+01 -7.129552e-02 3.032438e+02)	(3.591692e-02 3.740091e-03 2.479022e-02)
107.588       	(1.116451e+01 -6.774965e-02 3.032659e+02)	(1.112860e+01 -7.145976e-02 3.032412e+02)	(3.591161e-02 3.710111e-03 2.478048e-02)
107.595       	(1.116529e+01 -6.797443e-02 3.032632e+02)	(1.112938e+01 -7.165489e-02 3.032385e+02)	(3.590698e-02 3.680459e-03 2.477159e-02)
107.603       	(1.116575e+01 -6.824792e-02 3.032607e+02)	(1.112985e+01 -7.189895e-02 3.032359e+02)	(3.590294e-02 3.651027e-03 2.476362e-02)
107.611       	(1.116641e+01 -6.853753e-02 3.032579e+02)	(1.113051e+01 -7.215921e-02 3.032332e+02)	(3.589952e-02 3.621676e-03 2.475654e-02)
107.618       	(1.116691e+01 -6.887010e-02 3.032553e+02)	(1.113101e+01 -7.246237e-02 3.032305e+02)	(3.589684e-02 3.592274e-03 2.475042e-02)
107.626       	(1.116727e+01 -6.925523e-02 3.032524e+02)	(1.113137e+01 -7.281777e-02 3.032277e+02)	(3.589458e-02 3.562534e-03 2.474519e-02)
107.634       	(1.116751e+01 -6.966606e-02 3.032497e+02)	(1.113162e+01 -7.319827e-02 3.032249e+02)	(3.589258e-02 3.532210e-03 2.474096e-02)
107.641       	(1.116770e+01 -7.009624e-02 3.032472e+02)	(1.113181e+01 -7.359744e-02 3.032224e+02)	(3.589099e-02 3.501201e-03 2.473784e-02)
107.649       	(1.116784e+01 -7.055288e-02 3.032445e+02)	(1.113195e+01 -7.402220e-02 3.032197e+02)	(3.588975e-02 3.469327e-03 2.473558e-02)
107.656       	(1.116792e+01 -7.103626e-02 3.032417e+02)	(1.113203e+01 -7.447280e-02 3.032170e+02)	(3.588877e-02 3.436537e-03 2.473410e-02)
107.664       	(1.116812e+01 -7.152068e-02 3.032390e+02)	(1.113224e+01 -7.492339e-02 3.032143e+02)	(3.588808e-02 3.402710e-03 2.473348e-02)
107.672       	(1.116829e+01 -7.199542e-02 3.032363e+02)	(1.113240e+01 -7.536312e-02 3.032116e+02)	(3.588756e-02 3.367707e-03 2.473359e-02)
107.679       	(1.116813e+01 -7.252223e-02 3.032337e+02)	(1.113224e+01 -7.585374e-02 3.032090e+02)	(3.588707e-02 3.331509e-03 2.473428e-02)
107.687       	(1.116783e+01 -7.305523e-02 3.032312e+02)	(1.113194e+01 -7.634918e-02 3.032065e+02)	(3.588669e-02 3.293952e-03 2.473555e-02)
107.695       	(1.116754e+01 -7.356330e-02 3.032288e+02)	(1.113165e+01 -7.681821e-02 3.032041e+02)	(3.588650e-02 3.254904e-03 2.473734e-02)
107.702       	(1.116724e+01 -7.407735e-02 3.032264e+02)	(1.113136e+01 -7.729177e-02 3.032016e+02)	(3.588635e-02 3.214425e-03 2.473950e-02)
107.71        	(1.116653e+01 -7.459500e-02 3.032240e+02)	(1.113064e+01 -7.776718e-02 3.031993e+02)	(3.588605e-02 3.172188e-03 2.474193e-02)
107.718       	(1.116569e+01 -7.510132e-02 3.032217e+02)	(1.112981e+01 -7.822965e-02 3.031970e+02)	(3.588566e-02 3.128322e-03 2.474452e-02)
107.725       	(1.116499e+01 -7.560679e-02 3.032195e+02)	(1.112910e+01 -7.868949e-02 3.031948e+02)	(3.588493e-02 3.082705e-03 2.474734e-02)
107.733       	(1.116424e+01 -7.610156e-02 3.032173e+02)	(1.112836e+01 -7.913683e-02 3.031926e+02)	(3.588393e-02 3.035270e-03 2.475033e-02)
107.74        	(1.116293e+01 -7.662750e-02 3.032153e+02)	(1.112705e+01 -7.961325e-02 3.031906e+02)	(3.588226e-02 2.985753e-03 2.475341e-02)
107.748       	(1.116140e+01 -7.715555e-02 3.032136e+02)	(1.112552e+01 -8.008963e-02 3.031888e+02)	(3.588011e-02 2.934081e-03 2.475685e-02)
107.756       	(1.116038e+01 -7.764071e-02 3.032118e+02)	(1.112451e+01 -8.052112e-02 3.031870e+02)	(3.587770e-02 2.880409e-03 2.476044e-02)
107.763       	(1.115916e+01 -7.813160e-02 3.032103e+02)	(1.112328e+01 -8.095618e-02 3.031855e+02)	(3.587495e-02 2.824580e-03 2.476454e-02)
107.771       	(1.115760e+01 -7.866742e-02 3.032086e+02)	(1.112173e+01 -8.143395e-02 3.031839e+02)	(3.587152e-02 2.766531e-03 2.476897e-02)
107.779       	(1.115588e+01 -7.922097e-02 3.032071e+02)	(1.112001e+01 -8.192746e-02 3.031824e+02)	(3.586725e-02 2.706489e-03 2.477375e-02)
107.786       	(1.115420e+01 -7.976886e-02 3.032060e+02)	(1.111834e+01 -8.241335e-02 3.031812e+02)	(3.586249e-02 2.644487e-03 2.477904e-02)
107.794       	(1.115231e+01 -8.033200e-02 3.032050e+02)	(1.111645e+01 -8.291272e-02 3.031802e+02)	(3.585714e-02 2.580718e-03 2.478501e-02)
107.802       	(1.115015e+01 -8.088722e-02 3.032042e+02)	(1.111430e+01 -8.340244e-02 3.031794e+02)	(3.585122e-02 2.515219e-03 2.479177e-02)
107.809       	(1.114785e+01 -8.146548e-02 3.032033e+02)	(1.111201e+01 -8.391336e-02 3.031785e+02)	(3.584467e-02 2.447878e-03 2.479924e-02)
107.817       	(1.114576e+01 -8.202475e-02 3.032025e+02)	(1.110992e+01 -8.440345e-02 3.031777e+02)	(3.583744e-02 2.378701e-03 2.480733e-02)
107.824       	(1.114369e+01 -8.256209e-02 3.032020e+02)	(1.110786e+01 -8.487018e-02 3.031772e+02)	(3.582977e-02 2.308092e-03 2.481602e-02)
107.832       	(1.114141e+01 -8.308732e-02 3.032015e+02)	(1.110559e+01 -8.532355e-02 3.031767e+02)	(3.582153e-02 2.236231e-03 2.482535e-02)
107.84        	(1.113904e+01 -8.360061e-02 3.032010e+02)	(1.110323e+01 -8.576368e-02 3.031762e+02)	(3.581271e-02 2.163071e-03 2.483524e-02)
107.847       	(1.113669e+01 -8.406991e-02 3.032008e+02)	(1.110088e+01 -8.615873e-02 3.031760e+02)	(3.580363e-02 2.088823e-03 2.484577e-02)
107.855       	(1.113433e+01 -8.450266e-02 3.032007e+02)	(1.109853e+01 -8.651637e-02 3.031758e+02)	(3.579420e-02 2.013716e-03 2.485692e-02)
107.863       	(1.113178e+01 -8.492802e-02 3.032004e+02)	(1.109599e+01 -8.686575e-02 3.031755e+02)	(3.578435e-02 1.937724e-03 2.486842e-02)
107.87        	(1.112900e+01 -8.531542e-02 3.032004e+02)	(1.109322e+01 -8.717661e-02 3.031755e+02)	(3.577418e-02 1.861184e-03 2.488037e-02)
107.878       	(1.112628e+01 -8.564376e-02 3.032003e+02)	(1.109051e+01 -8.742802e-02 3.031754e+02)	(3.576354e-02 1.784253e-03 2.489265e-02)
107.885       	(1.112340e+01 -8.593714e-02 3.032003e+02)	(1.108765e+01 -8.764423e-02 3.031754e+02)	(3.575257e-02 1.707088e-03 2.490500e-02)
107.893       	(1.112019e+01 -8.620473e-02 3.032006e+02)	(1.108445e+01 -8.783446e-02 3.031756e+02)	(3.574139e-02 1.629729e-03 2.491763e-02)
107.901       	(1.111716e+01 -8.642391e-02 3.032009e+02)	(1.108143e+01 -8.797617e-02 3.031759e+02)	(3.572993e-02 1.552262e-03 2.493046e-02)
107.908       	(1.111451e+01 -8.657760e-02 3.032008e+02)	(1.107879e+01 -8.805251e-02 3.031758e+02)	(3.571799e-02 1.474903e-03 2.494297e-02)
107.916       	(1.111153e+01 -8.675155e-02 3.032009e+02)	(1.107582e+01 -8.814909e-02 3.031760e+02)	(3.570579e-02 1.397546e-03 2.495522e-02)
107.924       	(1.110849e+01 -8.694111e-02 3.032012e+02)	(1.107279e+01 -8.826152e-02 3.031762e+02)	(3.569332e-02 1.320414e-03 2.496699e-02)
107.931       	(1.110573e+01 -8.708484e-02 3.032014e+02)	(1.107005e+01 -8.832849e-02 3.031764e+02)	(3.568070e-02 1.243656e-03 2.497822e-02)
107.939       	(1.110306e+01 -8.720578e-02 3.032016e+02)	(1.106740e+01 -8.837308e-02 3.031766e+02)	(3.566782e-02 1.167305e-03 2.498892e-02)
107.947       	(1.110004e+01 -8.736122e-02 3.032022e+02)	(1.106438e+01 -8.845282e-02 3.031772e+02)	(3.565487e-02 1.091599e-03 2.499919e-02)
107.954       	(1.109711e+01 -8.753057e-02 3.032024e+02)	(1.106147e+01 -8.854718e-02 3.031774e+02)	(3.564171e-02 1.016605e-03 2.500881e-02)
107.962       	(1.109441e+01 -8.770810e-02 3.032026e+02)	(1.105878e+01 -8.865046e-02 3.031776e+02)	(3.562845e-02 9.423581e-04 2.501795e-02)
107.969       	(1.109180e+01 -8.787133e-02 3.032030e+02)	(1.105619e+01 -8.874028e-02 3.031780e+02)	(3.561524e-02 8.689501e-04 2.502675e-02)
107.977       	(1.108893e+01 -8.802345e-02 3.032033e+02)	(1.105333e+01 -8.882014e-02 3.031783e+02)	(3.560209e-02 7.966950e-04 2.503509e-02)
107.985       	(1.108616e+01 -8.817742e-02 3.032036e+02)	(1.105057e+01 -8.890335e-02 3.031786e+02)	(3.558907e-02 7.259275e-04 2.504306e-02)
107.992       	(1.108377e+01 -8.832833e-02 3.032038e+02)	(1.104819e+01 -8.898506e-02 3.031788e+02)	(3.557637e-02 6.567211e-04 2.505055e-02)
108           	(1.108131e+01 -8.845131e-02 3.032042e+02)	(1.104575e+01 -8.904070e-02 3.031791e+02)	(3.556400e-02 5.893887e-04 2.505753e-02)
108.008       	(1.107876e+01 -8.856090e-02 3.032044e+02)	(1.104320e+01 -8.908515e-02 3.031793e+02)	(3.555202e-02 5.242493e-04 2.506394e-02)
108.015       	(1.107637e+01 -8.864010e-02 3.032045e+02)	(1.104083e+01 -8.910149e-02 3.031795e+02)	(3.554027e-02 4.613914e-04 2.506965e-02)
108.023       	(1.107459e+01 -8.869052e-02 3.032048e+02)	(1.103906e+01 -8.909158e-02 3.031797e+02)	(3.552892e-02 4.010547e-04 2.507475e-02)
108.031       	(1.107269e+01 -8.872671e-02 3.032051e+02)	(1.103717e+01 -8.907026e-02 3.031800e+02)	(3.551783e-02 3.435455e-04 2.507912e-02)
108.038       	(1.107079e+01 -8.875494e-02 3.032051e+02)	(1.103529e+01 -8.904409e-02 3.031800e+02)	(3.550687e-02 2.891507e-04 2.508245e-02)
108.046       	(1.106884e+01 -8.875839e-02 3.032052e+02)	(1.103335e+01 -8.899646e-02 3.031801e+02)	(3.549600e-02 2.380690e-04 2.508480e-02)
108.053       	(1.106708e+01 -8.871734e-02 3.032053e+02)	(1.103159e+01 -8.890777e-02 3.031802e+02)	(3.548506e-02 1.904282e-04 2.508608e-02)
108.061       	(1.106538e+01 -8.865405e-02 3.032054e+02)	(1.102991e+01 -8.880062e-02 3.031803e+02)	(3.547408e-02 1.465744e-04 2.508633e-02)
108.069       	(1.106369e+01 -8.856904e-02 3.032053e+02)	(1.102823e+01 -8.867585e-02 3.031802e+02)	(3.546298e-02 1.068097e-04 2.508562e-02)
108.076       	(1.106201e+01 -8.846467e-02 3.032050e+02)	(1.102655e+01 -8.853608e-02 3.031799e+02)	(3.545155e-02 7.141833e-05 2.508390e-02)
108.084       	(1.106049e+01 -8.833811e-02 3.032047e+02)	(1.102505e+01 -8.837865e-02 3.031796e+02)	(3.543973e-02 4.053514e-05 2.508118e-02)
108.092       	(1.105907e+01 -8.821178e-02 3.032043e+02)	(1.102364e+01 -8.822623e-02 3.031792e+02)	(3.542759e-02 1.444630e-05 2.507775e-02)
108.099       	(1.105764e+01 -8.807626e-02 3.032038e+02)	(1.102223e+01 -8.806912e-02 3.031788e+02)	(3.541520e-02 -7.145507e-06 2.507373e-02)
108.107       	(1.105633e+01 -8.792034e-02 3.032032e+02)	(1.102092e+01 -8.789605e-02 3.031781e+02)	(3.540264e-02 -2.428759e-05 2.506923e-02)
108.115       	(1.105533e+01 -8.777463e-02 3.032025e+02)	(1.101994e+01 -8.773758e-02 3.031774e+02)	(3.539007e-02 -3.704796e-05 2.506447e-02)
108.122       	(1.105444e+01 -8.765673e-02 3.032017e+02)	(1.101906e+01 -8.761106e-02 3.031766e+02)	(3.537764e-02 -4.566530e-05 2.505948e-02)
108.13        	(1.105380e+01 -8.757441e-02 3.032008e+02)	(1.101844e+01 -8.752401e-02 3.031757e+02)	(3.536539e-02 -5.040730e-05 2.505454e-02)
108.137       	(1.105304e+01 -8.754714e-02 3.031997e+02)	(1.101768e+01 -8.749545e-02 3.031746e+02)	(3.535331e-02 -5.169197e-05 2.504977e-02)
108.145       	(1.105244e+01 -8.753793e-02 3.031984e+02)	(1.101709e+01 -8.748808e-02 3.031734e+02)	(3.534138e-02 -4.985090e-05 2.504522e-02)
108.153       	(1.105208e+01 -8.753934e-02 3.031971e+02)	(1.101675e+01 -8.749427e-02 3.031720e+02)	(3.532981e-02 -4.507432e-05 2.504099e-02)
108.16        	(1.105167e+01 -8.758195e-02 3.031956e+02)	(1.101635e+01 -8.754439e-02 3.031706e+02)	(3.531874e-02 -3.756038e-05 2.503711e-02)
108.168       	(1.105141e+01 -8.764743e-02 3.031940e+02)	(1.101611e+01 -8.761985e-02 3.031689e+02)	(3.530824e-02 -2.757809e-05 2.503368e-02)
108.176       	(1.105151e+01 -8.773890e-02 3.031922e+02)	(1.101621e+01 -8.772355e-02 3.031672e+02)	(3.529830e-02 -1.535875e-05 2.503076e-02)
108.183       	(1.105177e+01 -8.783418e-02 3.031903e+02)	(1.101648e+01 -8.783297e-02 3.031653e+02)	(3.528890e-02 -1.214363e-06 2.502826e-02)
108.191       	(1.105211e+01 -8.796900e-02 3.031882e+02)	(1.101683e+01 -8.798365e-02 3.031632e+02)	(3.527991e-02 1.465590e-05 2.502615e-02)
108.198       	(1.105263e+01 -8.813670e-02 3.031860e+02)	(1.101736e+01 -8.816887e-02 3.031610e+02)	(3.527135e-02 3.217714e-05 2.502436e-02)
108.206       	(1.105357e+01 -8.832103e-02 3.031838e+02)	(1.101830e+01 -8.837213e-02 3.031588e+02)	(3.526342e-02 5.110437e-05 2.502294e-02)
108.214       	(1.105437e+01 -8.853120e-02 3.031814e+02)	(1.101911e+01 -8.860238e-02 3.031564e+02)	(3.525604e-02 7.118200e-05 2.502169e-02)
108.221       	(1.105545e+01 -8.875589e-02 3.031789e+02)	(1.102020e+01 -8.884818e-02 3.031539e+02)	(3.524921e-02 9.228890e-05 2.502062e-02)
108.229       	(1.105666e+01 -8.901291e-02 3.031765e+02)	(1.102142e+01 -8.912707e-02 3.031515e+02)	(3.524303e-02 1.141578e-04 2.501980e-02)
108.237       	(1.105748e+01 -8.931907e-02 3.031739e+02)	(1.102225e+01 -8.945564e-02 3.031489e+02)	(3.523736e-02 1.365757e-04 2.501916e-02)
108.244       	(1.105850e+01 -8.964313e-02 3.031712e+02)	(1.102327e+01 -8.980252e-02 3.031462e+02)	(3.523217e-02 1.593868e-04 2.501863e-02)
108.252       	(1.105970e+01 -8.997929e-02 3.031684e+02)	(1.102447e+01 -9.016177e-02 3.031434e+02)	(3.522752e-02 1.824804e-04 2.501827e-02)
108.26        	(1.106124e+01 -9.029015e-02 3.031654e+02)	(1.102602e+01 -9.049574e-02 3.031404e+02)	(3.522326e-02 2.055914e-04 2.501798e-02)
108.267       	(1.106300e+01 -9.059607e-02 3.031624e+02)	(1.102778e+01 -9.082462e-02 3.031374e+02)	(3.521937e-02 2.285495e-04 2.501773e-02)
108.275       	(1.106449e+01 -9.093636e-02 3.031593e+02)	(1.102927e+01 -9.118762e-02 3.031343e+02)	(3.521581e-02 2.512644e-04 2.501760e-02)
108.282       	(1.106614e+01 -9.129907e-02 3.031563e+02)	(1.103093e+01 -9.157272e-02 3.031313e+02)	(3.521265e-02 2.736482e-04 2.501759e-02)
108.29        	(1.106798e+01 -9.167984e-02 3.031534e+02)	(1.103277e+01 -9.197530e-02 3.031284e+02)	(3.520988e-02 2.954600e-04 2.501791e-02)
108.298       	(1.106980e+01 -9.211998e-02 3.031507e+02)	(1.103459e+01 -9.243644e-02 3.031257e+02)	(3.520759e-02 3.164644e-04 2.501861e-02)
108.305       	(1.107156e+01 -9.264237e-02 3.031479e+02)	(1.103635e+01 -9.297876e-02 3.031229e+02)	(3.520554e-02 3.363889e-04 2.501962e-02)
108.313       	(1.107340e+01 -9.319894e-02 3.031453e+02)	(1.103820e+01 -9.355429e-02 3.031203e+02)	(3.520370e-02 3.553507e-04 2.502099e-02)
108.321       	(1.107512e+01 -9.376949e-02 3.031428e+02)	(1.103992e+01 -9.414279e-02 3.031177e+02)	(3.520210e-02 3.732966e-04 2.502275e-02)
108.328       	(1.107645e+01 -9.436323e-02 3.031404e+02)	(1.104125e+01 -9.475313e-02 3.031154e+02)	(3.520080e-02 3.899051e-04 2.502501e-02)
108.336       	(1.107804e+01 -9.492186e-02 3.031380e+02)	(1.104284e+01 -9.532709e-02 3.031130e+02)	(3.519956e-02 4.052282e-04 2.502751e-02)
108.344       	(1.107982e+01 -9.547778e-02 3.031362e+02)	(1.104462e+01 -9.589684e-02 3.031111e+02)	(3.519871e-02 4.190548e-04 2.503062e-02)
108.351       	(1.108131e+01 -9.605105e-02 3.031344e+02)	(1.104612e+01 -9.648262e-02 3.031094e+02)	(3.519811e-02 4.315732e-04 2.503433e-02)
108.359       	(1.108264e+01 -9.662284e-02 3.031328e+02)	(1.104745e+01 -9.706576e-02 3.031077e+02)	(3.519756e-02 4.429240e-04 2.503857e-02)
108.366       	(1.108377e+01 -9.720938e-02 3.031315e+02)	(1.104857e+01 -9.766245e-02 3.031064e+02)	(3.519726e-02 4.530692e-04 2.504347e-02)
108.374       	(1.108472e+01 -9.779031e-02 3.031303e+02)	(1.104952e+01 -9.825235e-02 3.031053e+02)	(3.519727e-02 4.620405e-04 2.504891e-02)
108.382       	(1.108610e+01 -9.837941e-02 3.031293e+02)	(1.105090e+01 -9.884914e-02 3.031042e+02)	(3.519755e-02 4.697275e-04 2.505477e-02)
108.389       	(1.108729e+01 -9.898701e-02 3.031286e+02)	(1.105210e+01 -9.946331e-02 3.031035e+02)	(3.519809e-02 4.763069e-04 2.506113e-02)
108.397       	(1.108760e+01 -9.963157e-02 3.031282e+02)	(1.105240e+01 -1.001133e-01 3.031031e+02)	(3.519883e-02 4.817492e-04 2.506806e-02)
108.405       	(1.108835e+01 -1.002316e-01 3.031278e+02)	(1.105315e+01 -1.007177e-01 3.031027e+02)	(3.519972e-02 4.860915e-04 2.507526e-02)
108.412       	(1.108931e+01 -1.008098e-01 3.031276e+02)	(1.105411e+01 -1.012993e-01 3.031025e+02)	(3.520106e-02 4.895091e-04 2.508278e-02)
108.42        	(1.108963e+01 -1.013698e-01 3.031276e+02)	(1.105442e+01 -1.018621e-01 3.031026e+02)	(3.520276e-02 4.922796e-04 2.509066e-02)
108.427       	(1.108971e+01 -1.018844e-01 3.031279e+02)	(1.105450e+01 -1.023789e-01 3.031028e+02)	(3.520475e-02 4.944941e-04 2.509883e-02)
108.435       	(1.109034e+01 -1.023267e-01 3.031281e+02)	(1.105513e+01 -1.028229e-01 3.031030e+02)	(3.520729e-02 4.962142e-04 2.510712e-02)
108.443       	(1.109098e+01 -1.027052e-01 3.031285e+02)	(1.105577e+01 -1.032028e-01 3.031034e+02)	(3.521041e-02 4.975528e-04 2.511546e-02)
108.45        	(1.109136e+01 -1.030372e-01 3.031291e+02)	(1.105614e+01 -1.035357e-01 3.031040e+02)	(3.521408e-02 4.985533e-04 2.512385e-02)
108.458       	(1.109174e+01 -1.033142e-01 3.031300e+02)	(1.105653e+01 -1.038136e-01 3.031048e+02)	(3.521839e-02 4.994116e-04 2.513224e-02)
108.466       	(1.109228e+01 -1.035265e-01 3.031309e+02)	(1.105706e+01 -1.040265e-01 3.031058e+02)	(3.522341e-02 5.000633e-04 2.514063e-02)
108.473       	(1.109290e+01 -1.037062e-01 3.031320e+02)	(1.105767e+01 -1.042068e-01 3.031069e+02)	(3.522915e-02 5.006518e-04 2.514899e-02)
108.481       	(1.109340e+01 -1.038549e-01 3.031332e+02)	(1.105817e+01 -1.043562e-01 3.031080e+02)	(3.523540e-02 5.012724e-04 2.515719e-02)
108.489       	(1.109393e+01 -1.039432e-01 3.031344e+02)	(1.105869e+01 -1.044451e-01 3.031093e+02)	(3.524215e-02 5.018770e-04 2.516529e-02)
108.496       	(1.109451e+01 -1.040185e-01 3.031358e+02)	(1.105926e+01 -1.045209e-01 3.031106e+02)	(3.524945e-02 5.024336e-04 2.517338e-02)
108.504       	(1.109517e+01 -1.040352e-01 3.031372e+02)	(1.105991e+01 -1.045382e-01 3.031120e+02)	(3.525718e-02 5.030126e-04 2.518137e-02)
108.511       	(1.109583e+01 -1.039970e-01 3.031386e+02)	(1.106056e+01 -1.045006e-01 3.031134e+02)	(3.526531e-02 5.035800e-04 2.518927e-02)
108.519       	(1.109646e+01 -1.039306e-01 3.031399e+02)	(1.106119e+01 -1.044348e-01 3.031147e+02)	(3.527374e-02 5.042199e-04 2.519704e-02)
108.527       	(1.109757e+01 -1.038049e-01 3.031412e+02)	(1.106229e+01 -1.043100e-01 3.031160e+02)	(3.528234e-02 5.051069e-04 2.520460e-02)
108.534       	(1.109906e+01 -1.036196e-01 3.031426e+02)	(1.106377e+01 -1.041260e-01 3.031174e+02)	(3.529122e-02 5.064206e-04 2.521185e-02)
108.542       	(1.110038e+01 -1.034094e-01 3.031440e+02)	(1.106508e+01 -1.039177e-01 3.031188e+02)	(3.530046e-02 5.082401e-04 2.521873e-02)
108.55        	(1.110161e+01 -1.031829e-01 3.031452e+02)	(1.106631e+01 -1.036935e-01 3.031200e+02)	(3.530996e-02 5.106260e-04 2.522508e-02)
108.557       	(1.110296e+01 -1.029146e-01 3.031465e+02)	(1.106765e+01 -1.034282e-01 3.031213e+02)	(3.531950e-02 5.135735e-04 2.523091e-02)
108.565       	(1.110441e+01 -1.026055e-01 3.031477e+02)	(1.106908e+01 -1.031228e-01 3.031225e+02)	(3.532911e-02 5.173311e-04 2.523607e-02)
108.573       	(1.110569e+01 -1.022720e-01 3.031490e+02)	(1.107035e+01 -1.027941e-01 3.031238e+02)	(3.533887e-02 5.221149e-04 2.524066e-02)
108.58        	(1.110669e+01 -1.019131e-01 3.031502e+02)	(1.107134e+01 -1.024412e-01 3.031250e+02)	(3.534871e-02 5.280668e-04 2.524463e-02)
108.588       	(1.110767e+01 -1.014864e-01 3.031514e+02)	(1.107231e+01 -1.020216e-01 3.031261e+02)	(3.535864e-02 5.352588e-04 2.524787e-02)
108.595       	(1.110870e+01 -1.009989e-01 3.031524e+02)	(1.107333e+01 -1.015425e-01 3.031272e+02)	(3.536877e-02 5.436053e-04 2.525039e-02)
108.603       	(1.110957e+01 -1.004743e-01 3.031535e+02)	(1.107419e+01 -1.010274e-01 3.031282e+02)	(3.537916e-02 5.530867e-04 2.525223e-02)
108.611       	(1.111030e+01 -9.991517e-02 3.031545e+02)	(1.107491e+01 -1.004788e-01 3.031293e+02)	(3.538979e-02 5.636715e-04 2.525354e-02)
108.618       	(1.111103e+01 -9.930120e-02 3.031557e+02)	(1.107563e+01 -9.987657e-02 3.031304e+02)	(3.540069e-02 5.753733e-04 2.525438e-02)