# Moment      
# CofR        : (0.000000e+00 0.000000e+00 0.000000e+00)
#
# Time        	(total_x total_y total_z)	(pressure_x pressure_y pressure_z)	(viscous_x viscous_y viscous_z)
107.008       	(-1.623182e-02 2.795567e-01 3.257894e-02)	(-1.618686e-02 2.778426e-01 3.254130e-02)	(-4.495266e-05 1.714118e-03 3.764716e-05)
107.015       	(-1.609122e-02 2.795566e-01 3.257872e-02)	(-1.604407e-02 2.778416e-01 3.253930e-02)	(-4.715603e-05 1.715005e-03 3.941858e-05)
107.023       	(-1.595111e-02 2.795584e-01 3.257415e-02)	(-1.590182e-02 2.778426e-01 3.253295e-02)	(-4.929085e-05 1.715851e-03 4.119619e-05)
107.031       	(-1.581589e-02 2.795594e-01 3.255249e-02)	(-1.576453e-02 2.778427e-01 3.250951e-02)	(-5.135899e-05 1.716656e-03 4.297544e-05)
107.038       	(-1.568214e-02 2.795586e-01 3.252894e-02)	(-1.562878e-02 2.778412e-01 3.248418e-02)	(-5.336084e-05 1.717417e-03 4.476501e-05)
107.046       	(-1.554142e-02 2.795565e-01 3.250258e-02)	(-1.548612e-02 2.778384e-01 3.245602e-02)	(-5.530126e-05 1.718137e-03 4.656195e-05)
107.053       	(-1.540803e-02 2.795512e-01 3.246499e-02)	(-1.535085e-02 2.778324e-01 3.241662e-02)	(-5.717832e-05 1.718815e-03 4.836804e-05)
107.061       	(-1.527825e-02 2.795507e-01 3.243700e-02)	(-1.521926e-02 2.778313e-01 3.238682e-02)	(-5.898975e-05 1.719453e-03 5.018715e-05)
107.069       	(-1.515964e-02 2.795506e-01 3.239841e-02)	(-1.509889e-02 2.778305e-01 3.234638e-02)	(-6.075048e-05 1.720057e-03 5.203067e-05)
107.076       	(-1.503978e-02 2.795443e-01 3.235434e-02)	(-1.497732e-02 2.778237e-01 3.230044e-02)	(-6.245802e-05 1.720626e-03 5.389501e-05)
107.084       	(-1.492879e-02 2.795384e-01 3.231007e-02)	(-1.486467e-02 2.778172e-01 3.225429e-02)	(-6.411558e-05 1.721161e-03 5.577518e-05)
107.092       	(-1.482032e-02 2.795310e-01 3.227157e-02)	(-1.475460e-02 2.778094e-01 3.221389e-02)	(-6.572573e-05 1.721661e-03 5.767845e-05)
107.099       	(-1.472024e-02 2.795259e-01 3.223535e-02)	(-1.465294e-02 2.778038e-01 3.217573e-02)	(-6.729769e-05 1.722131e-03 5.961684e-05)
107.107       	(-1.463416e-02 2.795179e-01 3.218860e-02)	(-1.456532e-02 2.777953e-01 3.212700e-02)	(-6.884233e-05 1.722571e-03 6.159850e-05)
107.115       	(-1.455483e-02 2.795073e-01 3.213454e-02)	(-1.448446e-02 2.777844e-01 3.207093e-02)	(-7.036972e-05 1.722981e-03 6.361121e-05)
107.122       	(-1.448558e-02 2.794960e-01 3.208142e-02)	(-1.441370e-02 2.777726e-01 3.201577e-02)	(-7.188518e-05 1.723360e-03 6.564897e-05)
107.13        	(-1.442410e-02 2.794833e-01 3.202911e-02)	(-1.435071e-02 2.777596e-01 3.196140e-02)	(-7.339418e-05 1.723712e-03 6.771175e-05)
107.137       	(-1.437421e-02 2.794681e-01 3.196754e-02)	(-1.429930e-02 2.777440e-01 3.189775e-02)	(-7.490840e-05 1.724035e-03 6.979457e-05)
107.145       	(-1.433047e-02 2.794508e-01 3.189411e-02)	(-1.425404e-02 2.777265e-01 3.182222e-02)	(-7.643505e-05 1.724331e-03 7.188878e-05)
107.153       	(-1.429887e-02 2.794317e-01 3.181638e-02)	(-1.422088e-02 2.777071e-01 3.174238e-02)	(-7.799320e-05 1.724599e-03 7.400251e-05)
107.16        	(-1.427907e-02 2.794070e-01 3.172416e-02)	(-1.419948e-02 2.776821e-01 3.164802e-02)	(-7.959212e-05 1.724839e-03 7.614039e-05)
107.168       	(-1.427260e-02 2.793831e-01 3.161309e-02)	(-1.419136e-02 2.776581e-01 3.153480e-02)	(-8.124096e-05 1.725050e-03 7.829416e-05)
107.176       	(-1.427329e-02 2.793576e-01 3.150454e-02)	(-1.419035e-02 2.776323e-01 3.142408e-02)	(-8.294359e-05 1.725231e-03 8.046064e-05)
107.183       	(-1.428401e-02 2.793306e-01 3.139096e-02)	(-1.419930e-02 2.776052e-01 3.130832e-02)	(-8.471170e-05 1.725381e-03 8.263306e-05)
107.191       	(-1.430774e-02 2.793021e-01 3.126137e-02)	(-1.422118e-02 2.775766e-01 3.117656e-02)	(-8.655906e-05 1.725500e-03 8.480333e-05)
107.198       	(-1.433792e-02 2.792747e-01 3.113138e-02)	(-1.424943e-02 2.775491e-01 3.104440e-02)	(-8.848906e-05 1.725586e-03 8.697945e-05)
107.206       	(-1.437204e-02 2.792472e-01 3.100317e-02)	(-1.428154e-02 2.775216e-01 3.091400e-02)	(-9.050571e-05 1.725640e-03 8.917045e-05)
107.214       	(-1.441861e-02 2.792217e-01 3.086724e-02)	(-1.432599e-02 2.774961e-01 3.077586e-02)	(-9.261639e-05 1.725660e-03 9.137836e-05)
107.221       	(-1.446744e-02 2.791981e-01 3.074252e-02)	(-1.437262e-02 2.774724e-01 3.064892e-02)	(-9.482174e-05 1.725651e-03 9.360356e-05)
107.229       	(-1.452584e-02 2.791741e-01 3.061681e-02)	(-1.442871e-02 2.774485e-01 3.052097e-02)	(-9.712936e-05 1.725613e-03 9.583925e-05)
107.237       	(-1.459533e-02 2.791479e-01 3.047190e-02)	(-1.449579e-02 2.774223e-01 3.037381e-02)	(-9.954158e-05 1.725547e-03 9.808799e-05)
107.244       	(-1.465784e-02 2.791244e-01 3.033944e-02)	(-1.455578e-02 2.773989e-01 3.023911e-02)	(-1.020522e-04 1.725450e-03 1.003388e-04)
107.252       	(-1.473135e-02 2.791034e-01 3.021232e-02)	(-1.462668e-02 2.773781e-01 3.010972e-02)	(-1.046696e-04 1.725331e-03 1.026021e-04)
107.26        	(-1.480864e-02 2.790824e-01 3.008119e-02)	(-1.470125e-02 2.773572e-01 2.997631e-02)	(-1.073893e-04 1.725190e-03 1.048752e-04)
107.267       	(-1.489378e-02 2.790635e-01 2.994978e-02)	(-1.478356e-02 2.773385e-01 2.984262e-02)	(-1.102190e-04 1.725029e-03 1.071598e-04)
107.275       	(-1.498421e-02 2.790488e-01 2.982466e-02)	(-1.487106e-02 2.773239e-01 2.971521e-02)	(-1.131512e-04 1.724850e-03 1.094434e-04)
107.282       	(-1.506930e-02 2.790369e-01 2.970290e-02)	(-1.495312e-02 2.773122e-01 2.959118e-02)	(-1.161785e-04 1.724655e-03 1.117164e-04)
107.29        	(-1.515893e-02 2.790270e-01 2.958111e-02)	(-1.503962e-02 2.773026e-01 2.946715e-02)	(-1.193007e-04 1.724450e-03 1.139662e-04)
107.298       	(-1.524813e-02 2.790175e-01 2.946867e-02)	(-1.512562e-02 2.772933e-01 2.935248e-02)	(-1.225168e-04 1.724233e-03 1.161932e-04)
107.305       	(-1.533620e-02 2.790101e-01 2.935255e-02)	(-1.521038e-02 2.772861e-01 2.923416e-02)	(-1.258240e-04 1.724005e-03 1.183946e-04)
107.313       	(-1.541484e-02 2.790057e-01 2.924470e-02)	(-1.528563e-02 2.772820e-01 2.912415e-02)	(-1.292112e-04 1.723770e-03 1.205559e-04)
107.321       	(-1.548980e-02 2.790022e-01 2.913595e-02)	(-1.535712e-02 2.772787e-01 2.901328e-02)	(-1.326744e-04 1.723527e-03 1.226720e-04)
107.328       	(-1.555983e-02 2.789991e-01 2.905156e-02)	(-1.542362e-02 2.772759e-01 2.892682e-02)	(-1.362095e-04 1.723275e-03 1.247314e-04)
107.336       	(-1.562524e-02 2.789965e-01 2.895803e-02)	(-1.548542e-02 2.772734e-01 2.883130e-02)	(-1.398141e-04 1.723020e-03 1.267268e-04)
107.344       	(-1.567527e-02 2.789926e-01 2.887576e-02)	(-1.553180e-02 2.772698e-01 2.874712e-02)	(-1.434696e-04 1.722759e-03 1.286414e-04)
107.351       	(-1.571962e-02 2.789936e-01 2.880918e-02)	(-1.557246e-02 2.772711e-01 2.867870e-02)	(-1.471674e-04 1.722494e-03 1.304740e-04)
107.359       	(-1.575452e-02 2.789937e-01 2.874987e-02)	(-1.560362e-02 2.772715e-01 2.861765e-02)	(-1.508973e-04 1.722228e-03 1.322207e-04)
107.366       	(-1.576553e-02 2.789961e-01 2.870199e-02)	(-1.561089e-02 2.772741e-01 2.856812e-02)	(-1.546374e-04 1.721962e-03 1.338682e-04)
107.374       	(-1.577165e-02 2.789987e-01 2.865238e-02)	(-1.561328e-02 2.772770e-01 2.851697e-02)	(-1.583741e-04 1.721694e-03 1.354116e-04)
107.382       	(-1.576079e-02 2.790001e-01 2.860592e-02)	(-1.559870e-02 2.772787e-01 2.846907e-02)	(-1.620888e-04 1.721426e-03 1.368476e-04)
107.389       	(-1.572901e-02 2.790024e-01 2.856760e-02)	(-1.556326e-02 2.772812e-01 2.842943e-02)	(-1.657580e-04 1.721159e-03 1.381682e-04)
107.397       	(-1.568296e-02 2.790049e-01 2.853200e-02)	(-1.551359e-02 2.772840e-01 2.839262e-02)	(-1.693696e-04 1.720895e-03 1.393761e-04)
107.405       	(-1.561910e-02 2.790076e-01 2.849706e-02)	(-1.544621e-02 2.772870e-01 2.835660e-02)	(-1.728909e-04 1.720627e-03 1.404581e-04)
107.412       	(-1.554284e-02 2.790121e-01 2.845210e-02)	(-1.536654e-02 2.772918e-01 2.831070e-02)	(-1.763009e-04 1.720361e-03 1.413960e-04)
107.42        	(-1.544808e-02 2.790169e-01 2.841752e-02)	(-1.526851e-02 2.772969e-01 2.827534e-02)	(-1.795729e-04 1.720093e-03 1.421800e-04)
107.427       	(-1.534854e-02 2.790237e-01 2.836874e-02)	(-1.516584e-02 2.773039e-01 2.822593e-02)	(-1.827038e-04 1.719826e-03 1.428042e-04)
107.435       	(-1.523776e-02 2.790295e-01 2.831449e-02)	(-1.505209e-02 2.773099e-01 2.817123e-02)	(-1.856760e-04 1.719560e-03 1.432543e-04)
107.443       	(-1.511184e-02 2.790371e-01 2.826192e-02)	(-1.492337e-02 2.773178e-01 2.811839e-02)	(-1.884698e-04 1.719297e-03 1.435224e-04)
107.45        	(-1.497200e-02 2.790457e-01 2.821713e-02)	(-1.478092e-02 2.773266e-01 2.807353e-02)	(-1.910760e-04 1.719038e-03 1.435979e-04)
107.458       	(-1.482186e-02 2.790587e-01 2.817943e-02)	(-1.462837e-02 2.773399e-01 2.803593e-02)	(-1.934892e-04 1.718785e-03 1.434932e-04)
107.466       	(-1.466656e-02 2.790733e-01 2.813457e-02)	(-1.447085e-02 2.773548e-01 2.799136e-02)	(-1.957167e-04 1.718538e-03 1.432107e-04)
107.473       	(-1.449279e-02 2.790862e-01 2.808505e-02)	(-1.429505e-02 2.773679e-01 2.794231e-02)	(-1.977399e-04 1.718296e-03 1.427419e-04)
107.481       	(-1.430489e-02 2.791013e-01 2.804058e-02)	(-1.410534e-02 2.773833e-01 2.789849e-02)	(-1.995494e-04 1.718058e-03 1.420912e-04)
107.489       	(-1.411084e-02 2.791221e-01 2.800556e-02)	(-1.390970e-02 2.774043e-01 2.786429e-02)	(-2.011393e-04 1.717827e-03 1.412736e-04)
107.496       	(-1.389653e-02 2.791426e-01 2.796616e-02)	(-1.369402e-02 2.774250e-01 2.782587e-02)	(-2.025049e-04 1.717602e-03 1.402959e-04)
107.504       	(-1.366644e-02 2.791643e-01 2.792529e-02)	(-1.346280e-02 2.774469e-01 2.778613e-02)	(-2.036402e-04 1.717386e-03 1.391571e-04)
107.511       	(-1.341680e-02 2.791826e-01 2.787641e-02)	(-1.321226e-02 2.774654e-01 2.773855e-02)	(-2.045398e-04 1.717178e-03 1.378581e-04)
107.519       	(-1.315693e-02 2.792021e-01 2.782888e-02)	(-1.295173e-02 2.774851e-01 2.769247e-02)	(-2.052033e-04 1.716977e-03 1.364059e-04)
107.527       	(-1.288760e-02 2.792258e-01 2.778936e-02)	(-1.268197e-02 2.775090e-01 2.765454e-02)	(-2.056322e-04 1.716785e-03 1.348221e-04)
107.534       	(-1.259726e-02 2.792484e-01 2.774396e-02)	(-1.239144e-02 2.775318e-01 2.761085e-02)	(-2.058243e-04 1.716599e-03 1.331104e-04)
107.542       	(-1.230350e-02 2.792692e-01 2.768140e-02)	(-1.209772e-02 2.775528e-01 2.755014e-02)	(-2.057786e-04 1.716418e-03 1.312657e-04)
107.55        	(-1.198407e-02 2.792922e-01 2.764270e-02)	(-1.177858e-02 2.775759e-01 2.751341e-02)	(-2.054935e-04 1.716241e-03 1.292928e-04)
107.557       	(-1.166130e-02 2.793165e-01 2.760714e-02)	(-1.145633e-02 2.776004e-01 2.747993e-02)	(-2.049743e-04 1.716066e-03 1.272107e-04)
107.565       	(-1.132502e-02 2.793371e-01 2.755613e-02)	(-1.112080e-02 2.776212e-01 2.743109e-02)	(-2.042230e-04 1.715891e-03 1.250365e-04)
107.573       	(-1.097674e-02 2.793536e-01 2.750728e-02)	(-1.077350e-02 2.776379e-01 2.738451e-02)	(-2.032338e-04 1.715712e-03 1.227662e-04)
107.58        	(-1.061681e-02 2.793700e-01 2.745626e-02)	(-1.041480e-02 2.776544e-01 2.733585e-02)	(-2.020106e-04 1.715526e-03 1.204058e-04)
107.588       	(-1.026174e-02 2.793890e-01 2.740006e-02)	(-1.006117e-02 2.776737e-01 2.728207e-02)	(-2.005670e-04 1.715333e-03 1.179896e-04)
107.595       	(-9.881154e-03 2.794084e-01 2.735029e-02)	(-9.682258e-03 2.776932e-01 2.723478e-02)	(-1.988969e-04 1.715135e-03 1.155154e-04)
107.603       	(-9.489404e-03 2.794198e-01 2.730342e-02)	(-9.292399e-03 2.777049e-01 2.719043e-02)	(-1.970053e-04 1.714926e-03 1.129944e-04)
107.611       	(-9.100725e-03 2.794361e-01 2.723897e-02)	(-8.905826e-03 2.777214e-01 2.712852e-02)	(-1.948990e-04 1.714707e-03 1.104484e-04)
107.618       	(-8.706872e-03 2.794485e-01 2.717383e-02)	(-8.514283e-03 2.777340e-01 2.706596e-02)	(-1.925893e-04 1.714482e-03 1.078645e-04)
107.626       	(-8.305178e-03 2.794573e-01 2.709588e-02)	(-8.115101e-03 2.777430e-01 2.699065e-02)	(-1.900770e-04 1.714248e-03 1.052288e-04)
107.634       	(-7.899839e-03 2.794632e-01 2.703448e-02)	(-7.712480e-03 2.777492e-01 2.693194e-02)	(-1.873584e-04 1.713997e-03 1.025481e-04)
107.641       	(-7.453917e-03 2.794678e-01 2.700727e-02)	(-7.269493e-03 2.777541e-01 2.690745e-02)	(-1.844237e-04 1.713735e-03 9.982568e-05)
107.649       	(-7.024075e-03 2.794710e-01 2.695146e-02)	(-6.842766e-03 2.777575e-01 2.685439e-02)	(-1.813090e-04 1.713466e-03 9.706842e-05)
107.656       	(-6.599589e-03 2.794726e-01 2.691333e-02)	(-6.421558e-03 2.777594e-01 2.681904e-02)	(-1.780314e-04 1.713186e-03 9.428263e-05)
107.664       	(-6.158269e-03 2.794775e-01 2.689762e-02)	(-5.983694e-03 2.777646e-01 2.680616e-02)	(-1.745753e-04 1.712899e-03 9.145788e-05)
107.672       	(-5.734195e-03 2.794813e-01 2.687091e-02)	(-5.563230e-03 2.777687e-01 2.678229e-02)	(-1.709646e-04 1.712606e-03 8.861095e-05)
107.679       	(-5.320252e-03 2.794769e-01 2.683294e-02)	(-5.153035e-03 2.777646e-01 2.674717e-02)	(-1.672178e-04 1.712308e-03 8.576370e-05)
107.687       	(-4.910704e-03 2.794690e-01 2.679378e-02)	(-4.747363e-03 2.777570e-01 2.671085e-02)	(-1.633411e-04 1.711998e-03 8.293165e-05)
107.695       	(-4.484626e-03 2.794615e-01 2.679922e-02)	(-4.325316e-03 2.777498e-01 2.671912e-02)	(-1.593100e-04 1.711682e-03 8.009970e-05)
107.702       	(-4.075230e-03 2.794536e-01 2.679125e-02)	(-3.920103e-03 2.777423e-01 2.671398e-02)	(-1.551272e-04 1.711361e-03 7.727499e-05)
107.71        	(-3.674698e-03 2.794354e-01 2.676264e-02)	(-3.523891e-03 2.777244e-01 2.668818e-02)	(-1.508076e-04 1.711032e-03 7.445416e-05)
107.718       	(-3.279380e-03 2.794142e-01 2.674381e-02)	(-3.133036e-03 2.777035e-01 2.667217e-02)	(-1.463439e-04 1.710694e-03 7.163413e-05)
107.725       	(-2.910390e-03 2.793961e-01 2.671669e-02)	(-2.768642e-03 2.776858e-01 2.664787e-02)	(-1.417478e-04 1.710339e-03 6.881169e-05)
107.733       	(-2.564634e-03 2.793771e-01 2.667909e-02)	(-2.427618e-03 2.776672e-01 2.661309e-02)	(-1.370160e-04 1.709975e-03 6.600034e-05)
107.74        	(-2.229078e-03 2.793438e-01 2.664283e-02)	(-2.096933e-03 2.776342e-01 2.657963e-02)	(-1.321450e-04 1.709596e-03 6.319087e-05)
107.748       	(-1.908857e-03 2.793053e-01 2.661187e-02)	(-1.781731e-03 2.775961e-01 2.655148e-02)	(-1.271260e-04 1.709189e-03 6.039256e-05)
107.756       	(-1.614366e-03 2.792797e-01 2.659615e-02)	(-1.492382e-03 2.775709e-01 2.653853e-02)	(-1.219838e-04 1.708762e-03 5.761836e-05)
107.763       	(-1.340024e-03 2.792487e-01 2.658549e-02)	(-1.223288e-03 2.775403e-01 2.653062e-02)	(-1.167362e-04 1.708315e-03 5.486776e-05)
107.771       	(-1.084269e-03 2.792093e-01 2.654023e-02)	(-9.728768e-04 2.775014e-01 2.648811e-02)	(-1.113918e-04 1.707846e-03 5.211571e-05)
107.779       	(-8.416368e-04 2.791659e-01 2.650271e-02)	(-7.356787e-04 2.774585e-01 2.645333e-02)	(-1.059581e-04 1.707349e-03 4.937704e-05)
107.786       	(-6.328681e-04 2.791239e-01 2.646342e-02)	(-5.323893e-04 2.774170e-01 2.641675e-02)	(-1.004788e-04 1.706826e-03 4.667052e-05)
107.794       	(-4.493637e-04 2.790761e-01 2.642193e-02)	(-3.544055e-04 2.773699e-01 2.637793e-02)	(-9.495819e-05 1.706271e-03 4.399594e-05)
107.802       	(-2.838182e-04 2.790220e-01 2.637591e-02)	(-1.944022e-04 2.773163e-01 2.633454e-02)	(-8.941604e-05 1.705687e-03 4.136719e-05)
107.809       	(-1.390745e-04 2.789643e-01 2.632724e-02)	(-5.520926e-05 2.772592e-01 2.628847e-02)	(-8.386525e-05 1.705069e-03 3.876515e-05)
107.817       	(-9.371761e-06 2.789117e-01 2.629833e-02)	(6.895130e-05 2.772073e-01 2.626213e-02)	(-7.832306e-05 1.704418e-03 3.620177e-05)
107.824       	(7.805117e-05 2.788597e-01 2.625392e-02)	(1.508830e-04 2.771560e-01 2.622022e-02)	(-7.283179e-05 1.703742e-03 3.370758e-05)
107.832       	(1.580047e-04 2.788025e-01 2.621444e-02)	(2.253964e-04 2.770995e-01 2.618315e-02)	(-6.739168e-05 1.703036e-03 3.128328e-05)
107.84        	(1.959030e-04 2.787429e-01 2.615890e-02)	(2.579264e-04 2.770406e-01 2.612998e-02)	(-6.202337e-05 1.702299e-03 2.892338e-05)
107.847       	(1.895664e-04 2.786839e-01 2.611602e-02)	(2.463206e-04 2.769823e-01 2.608938e-02)	(-5.675419e-05 1.701530e-03 2.663572e-05)
107.855       	(1.602250e-04 2.786245e-01 2.606520e-02)	(2.118192e-04 2.769238e-01 2.604077e-02)	(-5.159414e-05 1.700735e-03 2.443230e-05)
107.863       	(1.062139e-04 2.785605e-01 2.598236e-02)	(1.527551e-04 2.768606e-01 2.596005e-02)	(-4.654120e-05 1.699913e-03 2.230793e-05)
107.87        	(1.737878e-05 2.784908e-01 2.590415e-02)	(5.899429e-05 2.767917e-01 2.588388e-02)	(-4.161551e-05 1.699062e-03 2.026697e-05)
107.878       	(-1.044870e-04 2.784224e-01 2.581656e-02)	(-6.765306e-05 2.767242e-01 2.579824e-02)	(-3.683397e-05 1.698181e-03 1.831527e-05)
107.885       	(-2.601506e-04 2.783502e-01 2.569661e-02)	(-2.279474e-04 2.766529e-01 2.568013e-02)	(-3.220326e-05 1.697280e-03 1.647524e-05)
107.893       	(-4.692790e-04 2.782697e-01 2.556079e-02)	(-4.415426e-04 2.765734e-01 2.554605e-02)	(-2.773635e-05 1.696352e-03 1.474697e-05)
107.901       	(-6.964236e-04 2.781937e-01 2.545195e-02)	(-6.730052e-04 2.764983e-01 2.543883e-02)	(-2.341844e-05 1.695395e-03 1.312623e-05)
107.908       	(-9.457388e-04 2.781268e-01 2.533805e-02)	(-9.264785e-04 2.764324e-01 2.532643e-02)	(-1.926036e-05 1.694422e-03 1.161292e-05)
107.916       	(-1.238130e-03 2.780519e-01 2.518383e-02)	(-1.222860e-03 2.763585e-01 2.517362e-02)	(-1.527062e-05 1.693437e-03 1.021597e-05)
107.924       	(-1.567379e-03 2.779757e-01 2.502394e-02)	(-1.555918e-03 2.762832e-01 2.501501e-02)	(-1.146173e-05 1.692439e-03 8.927086e-06)
107.931       	(-1.928182e-03 2.779064e-01 2.487586e-02)	(-1.920340e-03 2.762150e-01 2.486813e-02)	(-7.841472e-06 1.691430e-03 7.735000e-06)
107.939       	(-2.312968e-03 2.778393e-01 2.472022e-02)	(-2.308539e-03 2.761488e-01 2.471359e-02)	(-4.428308e-06 1.690416e-03 6.635481e-06)
107.947       	(-2.729048e-03 2.777633e-01 2.454506e-02)	(-2.727828e-03 2.760740e-01 2.453943e-02)	(-1.220320e-06 1.689397e-03 5.632449e-06)
107.954       	(-3.160159e-03 2.776898e-01 2.436801e-02)	(-3.161948e-03 2.760014e-01 2.436329e-02)	(1.788823e-06 1.688374e-03 4.718919e-06)
107.962       	(-3.606606e-03 2.776219e-01 2.420242e-02)	(-3.611199e-03 2.759346e-01 2.419854e-02)	(4.592183e-06 1.687346e-03 3.880015e-06)
107.969       	(-4.088371e-03 2.775565e-01 2.402707e-02)	(-4.095538e-03 2.758702e-01 2.402395e-02)	(7.166615e-06 1.686318e-03 3.115782e-06)
107.977       	(-4.571803e-03 2.774844e-01 2.384766e-02)	(-4.581322e-03 2.757991e-01 2.384525e-02)	(9.519370e-06 1.685291e-03 2.408378e-06)
107.985       	(-5.066661e-03 2.774148e-01 2.368074e-02)	(-5.078291e-03 2.757306e-01 2.367898e-02)	(1.163041e-05 1.684267e-03 1.757511e-06)
107.992       	(-5.555081e-03 2.773547e-01 2.353205e-02)	(-5.568583e-03 2.756714e-01 2.353090e-02)	(1.350169e-05 1.683250e-03 1.155709e-06)
108           	(-6.067723e-03 2.772931e-01 2.337248e-02)	(-6.082842e-03 2.756109e-01 2.337189e-02)	(1.511884e-05 1.682245e-03 5.968925e-07)
108.008       	(-6.578980e-03 2.772290e-01 2.320146e-02)	(-6.595468e-03 2.755477e-01 2.320137e-02)	(1.648768e-05 1.681259e-03 8.754177e-08)
108.015       	(-7.091358e-03 2.771690e-01 2.306897e-02)	(-7.108975e-03 2.754887e-01 2.306936e-02)	(1.761749e-05 1.680285e-03 -3.869905e-07)
108.023       	(-7.610798e-03 2.771243e-01 2.295791e-02)	(-7.629297e-03 2.754450e-01 2.295874e-02)	(1.849860e-05 1.679331e-03 -8.219623e-07)
108.031       	(-8.133182e-03 2.770766e-01 2.281493e-02)	(-8.152327e-03 2.753982e-01 2.281616e-02)	(1.914483e-05 1.678403e-03 -1.227052e-06)
108.038       	(-8.654024e-03 2.770290e-01 2.266503e-02)	(-8.673596e-03 2.753515e-01 2.266664e-02)	(1.957226e-05 1.677502e-03 -1.603404e-06)
108.046       	(-9.175925e-03 2.769800e-01 2.252709e-02)	(-9.195712e-03 2.753033e-01 2.252904e-02)	(1.978699e-05 1.676628e-03 -1.957838e-06)
108.053       	(-9.693782e-03 2.769357e-01 2.241120e-02)	(-9.713591e-03 2.752599e-01 2.241349e-02)	(1.980913e-05 1.675777e-03 -2.288946e-06)
108.061       	(-1.020578e-02 2.768931e-01 2.227949e-02)	(-1.022543e-02 2.752181e-01 2.228208e-02)	(1.964820e-05 1.674950e-03 -2.590570e-06)
108.069       	(-1.069833e-02 2.768505e-01 2.214337e-02)	(-1.071766e-02 2.751764e-01 2.214625e-02)	(1.932526e-05 1.674147e-03 -2.878476e-06)
108.076       	(-1.117874e-02 2.768080e-01 2.201451e-02)	(-1.119760e-02 2.751347e-01 2.201766e-02)	(1.885844e-05 1.673363e-03 -3.150438e-06)
108.084       	(-1.164620e-02 2.767699e-01 2.189998e-02)	(-1.166445e-02 2.750973e-01 2.190337e-02)	(1.825763e-05 1.672597e-03 -3.396589e-06)
108.092       	(-1.209685e-02 2.767340e-01 2.179310e-02)	(-1.211440e-02 2.750621e-01 2.179672e-02)	(1.755036e-05 1.671848e-03 -3.620954e-06)
108.099       	(-1.253308e-02 2.766979e-01 2.169038e-02)	(-1.254984e-02 2.750268e-01 2.169422e-02)	(1.675966e-05 1.671114e-03 -3.835469e-06)
108.107       	(-1.294841e-02 2.766646e-01 2.161457e-02)	(-1.296431e-02 2.749943e-01 2.161861e-02)	(1.589509e-05 1.670392e-03 -4.031068e-06)
108.115       	(-1.333596e-02 2.766393e-01 2.156046e-02)	(-1.335092e-02 2.749696e-01 2.156467e-02)	(1.496157e-05 1.669683e-03 -4.216322e-06)
108.122       	(-1.369894e-02 2.766167e-01 2.152628e-02)	(-1.371291e-02 2.749477e-01 2.153068e-02)	(1.397219e-05 1.668987e-03 -4.404939e-06)
108.13        	(-1.405274e-02 2.766002e-01 2.149196e-02)	(-1.406567e-02 2.749319e-01 2.149655e-02)	(1.293141e-05 1.668306e-03 -4.591023e-06)
108.137       	(-1.436979e-02 2.765806e-01 2.146842e-02)	(-1.438166e-02 2.749130e-01 2.147322e-02)	(1.186847e-05 1.667638e-03 -4.798586e-06)
108.145       	(-1.465929e-02 2.765651e-01 2.146649e-02)	(-1.467009e-02 2.748981e-01 2.147153e-02)	(1.080192e-05 1.666977e-03 -5.040020e-06)
108.153       	(-1.492731e-02 2.765557e-01 2.147228e-02)	(-1.493704e-02 2.748894e-01 2.147759e-02)	(9.730997e-06 1.666329e-03 -5.308613e-06)
108.16        	(-1.515827e-02 2.765448e-01 2.147407e-02)	(-1.516694e-02 2.748791e-01 2.147969e-02)	(8.663300e-06 1.665697e-03 -5.621304e-06)
108.168       	(-1.537050e-02 2.765380e-01 2.148226e-02)	(-1.537811e-02 2.748730e-01 2.148824e-02)	(7.608599e-06 1.665074e-03 -5.974462e-06)
108.176       	(-1.554804e-02 2.765399e-01 2.149395e-02)	(-1.555462e-02 2.748755e-01 2.150032e-02)	(6.585435e-06 1.664463e-03 -6.377783e-06)
108.183       	(-1.570065e-02 2.765459e-01 2.152449e-02)	(-1.570625e-02 2.748820e-01 2.153132e-02)	(5.599091e-06 1.663867e-03 -6.828456e-06)
108.191       	(-1.582753e-02 2.765537e-01 2.154210e-02)	(-1.583219e-02 2.748904e-01 2.154943e-02)	(4.656886e-06 1.663286e-03 -7.326773e-06)
108.198       	(-1.591555e-02 2.765662e-01 2.158931e-02)	(-1.591934e-02 2.749035e-01 2.159718e-02)	(3.786516e-06 1.662713e-03 -7.871872e-06)
108.206       	(-1.599176e-02 2.765890e-01 2.163755e-02)	(-1.599475e-02 2.749268e-01 2.164601e-02)	(2.989243e-06 1.662160e-03 -8.458090e-06)
108.214       	(-1.602683e-02 2.766083e-01 2.168457e-02)	(-1.602911e-02 2.749467e-01 2.169366e-02)	(2.283408e-06 1.661622e-03 -9.094559e-06)
108.221       	(-1.602834e-02 2.766347e-01 2.177068e-02)	(-1.603002e-02 2.749736e-01 2.178044e-02)	(1.686498e-06 1.661097e-03 -9.761573e-06)
108.229       	(-1.601093e-02 2.766645e-01 2.184140e-02)	(-1.601214e-02 2.750039e-01 2.185185e-02)	(1.208441e-06 1.660595e-03 -1.045541e-05)
108.237       	(-1.594486e-02 2.766844e-01 2.190785e-02)	(-1.594573e-02 2.750243e-01 2.191902e-02)	(8.700192e-07 1.660106e-03 -1.117164e-05)
108.244       	(-1.585673e-02 2.767092e-01 2.196691e-02)	(-1.585740e-02 2.750496e-01 2.197882e-02)	(6.741122e-07 1.659634e-03 -1.190834e-05)
108.252       	(-1.573525e-02 2.767386e-01 2.203984e-02)	(-1.573589e-02 2.750794e-01 2.205249e-02)	(6.342908e-07 1.659176e-03 -1.265484e-05)
108.26        	(-1.557180e-02 2.767765e-01 2.213135e-02)	(-1.557257e-02 2.751178e-01 2.214475e-02)	(7.652812e-07 1.658732e-03 -1.340137e-05)
108.267       	(-1.538457e-02 2.768199e-01 2.223559e-02)	(-1.538564e-02 2.751616e-01 2.224973e-02)	(1.073261e-06 1.658310e-03 -1.414555e-05)
108.275       	(-1.517212e-02 2.768564e-01 2.234291e-02)	(-1.517368e-02 2.751985e-01 2.235779e-02)	(1.558090e-06 1.657906e-03 -1.488030e-05)
108.282       	(-1.492218e-02 2.768972e-01 2.246450e-02)	(-1.492442e-02 2.752397e-01 2.248010e-02)	(2.231348e-06 1.657520e-03 -1.560238e-05)
108.29        	(-1.465058e-02 2.769424e-01 2.261081e-02)	(-1.465368e-02 2.752853e-01 2.262711e-02)	(3.100376e-06 1.657150e-03 -1.629787e-05)
108.298       	(-1.436998e-02 2.769875e-01 2.275681e-02)	(-1.437414e-02 2.753307e-01 2.277378e-02)	(4.158617e-06 1.656803e-03 -1.697510e-05)
108.305       	(-1.407163e-02 2.770308e-01 2.289460e-02)	(-1.407704e-02 2.753743e-01 2.291223e-02)	(5.415116e-06 1.656476e-03 -1.762994e-05)
108.313       	(-1.376408e-02 2.770763e-01 2.304015e-02)	(-1.377094e-02 2.754201e-01 2.305841e-02)	(6.867165e-06 1.656166e-03 -1.825395e-05)
108.321       	(-1.343704e-02 2.771188e-01 2.317690e-02)	(-1.344555e-02 2.754630e-01 2.319573e-02)	(8.505890e-06 1.655877e-03 -1.883303e-05)
108.328       	(-1.311248e-02 2.771515e-01 2.327567e-02)	(-1.312281e-02 2.754959e-01 2.329505e-02)	(1.033171e-05 1.655606e-03 -1.937985e-05)
108.336       	(-1.275996e-02 2.771907e-01 2.341815e-02)	(-1.277230e-02 2.755353e-01 2.343807e-02)	(1.234574e-05 1.655348e-03 -1.991466e-05)
108.344       	(-1.236882e-02 2.772349e-01 2.360535e-02)	(-1.238338e-02 2.755797e-01 2.362578e-02)	(1.456107e-05 1.655105e-03 -2.043529e-05)
108.351       	(-1.198295e-02 2.772718e-01 2.377173e-02)	(-1.199990e-02 2.756169e-01 2.379267e-02)	(1.695278e-05 1.654875e-03 -2.094169e-05)
108.359       	(-1.159398e-02 2.773045e-01 2.392763e-02)	(-1.161347e-02 2.756499e-01 2.394907e-02)	(1.948463e-05 1.654657e-03 -2.143723e-05)
108.366       	(-1.119053e-02 2.773322e-01 2.408783e-02)	(-1.121268e-02 2.756777e-01 2.410977e-02)	(2.214405e-05 1.654453e-03 -2.194227e-05)
108.374       	(-1.079211e-02 2.773556e-01 2.425063e-02)	(-1.081701e-02 2.757013e-01 2.427307e-02)	(2.490861e-05 1.654261e-03 -2.243888e-05)
108.382       	(-1.039942e-02 2.773897e-01 2.444178e-02)	(-1.042717e-02 2.757356e-01 2.446471e-02)	(2.775550e-05 1.654079e-03 -2.293374e-05)
108.389       	(-1.001450e-02 2.774191e-01 2.462130e-02)	(-1.004515e-02 2.757652e-01 2.464471e-02)	(3.065765e-05 1.653918e-03 -2.341232e-05)
108.397       	(-9.622849e-03 2.774263e-01 2.480521e-02)	(-9.656461e-03 2.757726e-01 2.482910e-02)	(3.361186e-05 1.653768e-03 -2.388335e-05)
108.405       	(-9.240199e-03 2.774447e-01 2.501325e-02)	(-9.276800e-03 2.757910e-01 2.503759e-02)	(3.660102e-05 1.653632e-03 -2.434472e-05)
108.412       	(-8.883244e-03 2.774683e-01 2.522174e-02)	(-8.922831e-03 2.758148e-01 2.524652e-02)	(3.958677e-05 1.653519e-03 -2.477810e-05)
108.42        	(-8.535405e-03 2.774759e-01 2.540844e-02)	(-8.577960e-03 2.758224e-01 2.543363e-02)	(4.255492e-05 1.653431e-03 -2.519266e-05)
108.427       	(-8.195016e-03 2.774775e-01 2.560888e-02)	(-8.240523e-03 2.758242e-01 2.563447e-02)	(4.550749e-05 1.653360e-03 -2.558850e-05)
108.435       	(-7.860471e-03 2.774929e-01 2.584774e-02)	(-7.908908e-03 2.758396e-01 2.587371e-02)	(4.843652e-05 1.653313e-03 -2.596427e-05)
108.443       	(-7.556674e-03 2.775088e-01 2.604921e-02)	(-7.607988e-03 2.758555e-01 2.607552e-02)	(5.131452e-05 1.653299e-03 -2.630476e-05)
108.45        	(-7.269394e-03 2.775179e-01 2.625958e-02)	(-7.323532e-03 2.758646e-01 2.628618e-02)	(5.413862e-05 1.653317e-03 -2.660297e-05)
108.458       	(-7.007125e-03 2.775273e-01 2.647491e-02)	(-7.064033e-03 2.758739e-01 2.650178e-02)	(5.690764e-05 1.653368e-03 -2.686266e-05)
108.466       	(-6.776758e-03 2.775406e-01 2.668829e-02)	(-6.836371e-03 2.758871e-01 2.671537e-02)	(5.961292e-05 1.653455e-03 -2.708414e-05)
108.473       	(-6.588862e-03 2.775558e-01 2.688587e-02)	(-6.651102e-03 2.759022e-01 2.691313e-02)	(6.223960e-05 1.653581e-03 -2.725984e-05)
108.481       	(-6.434131e-03 2.775682e-01 2.706669e-02)	(-6.498916e-03 2.759145e-01 2.709408e-02)	(6.478571e-05 1.653748e-03 -2.738510e-05)
108.489       	(-6.313753e-03 2.775813e-01 2.723390e-02)	(-6.381001e-03 2.759274e-01 2.726137e-02)	(6.724810e-05 1.653950e-03 -2.747196e-05)
108.496       	(-6.225733e-03 2.775957e-01 2.738483e-02)	(-6.295349e-03 2.759415e-01 2.741235e-02)	(6.961614e-05 1.654190e-03 -2.752011e-05)
108.504       	(-6.178197e-03 2.776121e-01 2.752993e-02)	(-6.250086e-03 2.759576e-01 2.755746e-02)	(7.188896e-05 1.654463e-03 -2.753012e-05)
108.511       	(-6.168856e-03 2.776287e-01 2.764338e-02)	(-6.242917e-03 2.759739e-01 2.767090e-02)	(7.406051e-05 1.654774e-03 -2.751551e-05)
108.519       	(-6.186494e-03 2.776445e-01 2.773797e-02)	(-6.262629e-03 2.759894e-01 2.776544e-02)	(7.613496e-05 1.655115e-03 -2.747137e-05)
108.527       	(-6.238230e-03 2.776723e-01 2.783616e-02)	(-6.316339e-03 2.760169e-01 2.786357e-02)	(7.810879e-05 1.655485e-03 -2.740298e-05)
108.534       	(-6.333515e-03 2.777097e-01 2.791989e-02)	(-6.413486e-03 2.760538e-01 2.794721e-02)	(7.997116e-05 1.655889e-03 -2.731492e-05)
108.542       	(-6.465138e-03 2.777428e-01 2.797881e-02)	(-6.546850e-03 2.760865e-01 2.800601e-02)	(8.171209e-05 1.656328e-03 -2.720261e-05)
108.55        	(-6.626725e-03 2.777738e-01 2.800789e-02)	(-6.710050e-03 2.761170e-01 2.803497e-02)	(8.332484e-05 1.656799e-03 -2.707824e-05)
108.557       	(-6.835488e-03 2.778078e-01 2.801004e-02)	(-6.920281e-03 2.761505e-01 2.803699e-02)	(8.479231e-05 1.657300e-03 -2.694913e-05)
108.565       	(-7.075539e-03 2.778441e-01 2.798407e-02)	(-7.161639e-03 2.761863e-01 2.801090e-02)	(8.610070e-05 1.657831e-03 -2.682396e-05)
108.573       	(-7.356825e-03 2.778764e-01 2.793358e-02)	(-7.444057e-03 2.762180e-01 2.796028e-02)	(8.723289e-05 1.658392e-03 -2.669919e-05)
108.58        	(-7.667887e-03 2.779017e-01 2.785572e-02)	(-7.756072e-03 2.762427e-01 2.788230e-02)	(8.818423e-05 1.658979e-03 -2.657530e-05)
108.588       	(-8.002246e-03 2.779266e-01 2.777104e-02)	(-8.091193e-03 2.762670e-01 2.779751e-02)	(8.894773e-05 1.659590e-03 -2.646852e-05)
108.595       	(-8.358510e-03 2.779527e-01 2.767653e-02)	(-8.448029e-03 2.762925e-01 2.770291e-02)	(8.951924e-05 1.660229e-03 -2.638758e-05)
108.603       	(-8.743229e-03 2.779748e-01 2.755864e-02)	(-8.833119e-03 2.763139e-01 2.758496e-02)	(8.988924e-05 1.660893e-03 -2.632173e-05)
108.611       	(-9.150139e-03 2.779936e-01 2.744451e-02)	(-9.240199e-03 2.763321e-01 2.747078e-02)	(9.005969e-05 1.661576e-03 -2.627088e-05)