# Probe 0 (-1 0.395 0)
# Probe 1 (1 0.395 0)
#       Probe             0             1
#        Time
   0.00060024       897.274       897.169
   0.00132087       892.599        893.11
   0.00218514       903.265        903.55
   0.00322225       903.531       903.282
    0.0044251       904.143        903.84
   0.00586993       905.178       904.715
   0.00625149       909.558        908.39
   0.00663218       907.229       906.307
   0.00697057       907.246       906.345
   0.00718624       908.211       907.135
   0.00741282       907.465       906.556
   0.00768039       906.984       906.149
   0.00800153       906.814       906.022
   0.00838681       906.844       906.047
   0.00884929       906.983       906.168
   0.00940426       907.229       906.371
    0.0100699       907.559       906.642
    0.0108354        908.01       907.013
    0.0116876       908.516       907.425
     0.012647       909.019        907.83
    0.0137571       909.527       908.233
    0.0150893       910.067       908.663
    0.0166897       910.691       909.153
    0.0186076       911.356       909.667
    0.0209109       912.008       910.162
    0.0235289       912.612       910.603
    0.0246606       914.045       911.666
    0.0259316       913.535       911.183
    0.0273769       913.302       910.955
    0.0289955        913.23        910.85
    0.0308001       913.193        910.77
    0.0329232       913.126       910.655
    0.0354755       913.002       910.477
    0.0384343       912.834       910.225
    0.0412148       912.657       909.939
    0.0427647       912.848       909.922
    0.0438281       912.496       909.538
    0.0450099       912.122       909.241
    0.0459003       912.078       909.145
    0.0468917       911.681       908.841
    0.0480779        911.42       908.682
    0.0494727       911.152       908.455
    0.0511475       910.833       908.147
    0.0530906       910.495       907.797
    0.0554062       910.046       907.375
    0.0566516       910.394       907.498
    0.0581004       909.519        906.77
    0.0597371       909.182        906.51
    0.0615715       908.819       906.156
    0.0636693        908.46       905.809
    0.0661769       908.023       905.384
    0.0691896       907.539       904.885
    0.0725553       906.949       904.341
    0.0755236        906.48       903.904
    0.0769874       906.422       903.774
    0.0787069       905.636       903.128
     0.080752       905.343       902.874
     0.083043       905.028       902.526
    0.0856168       904.703       902.148
    0.0882562       904.366        901.77
    0.0899576       904.186       901.491
    0.0919102       903.889       901.203
    0.0941161       903.614        900.86
    0.0960675       903.354       900.605
    0.0977718       903.169       900.402
    0.0996872       902.951       900.134
      0.10073       902.872       899.974
     0.101925       902.782       899.785
     0.103332       902.539       899.547
     0.104714       902.366       899.325
     0.105776       902.327       899.173
     0.106967       902.183       899.012
     0.108021       902.038       898.858
     0.108999       901.917       898.708
       0.1101       901.736       898.505
     0.111417       901.534       898.295
     0.112997       901.314       898.028
     0.114894       901.047       897.718
      0.11712        900.75       897.331
     0.119761       900.357       896.874
     0.121521       900.203       896.669
     0.122994       900.005       896.412
     0.124723       899.664       896.042
     0.126719       899.329       895.651
     0.128294       899.126       895.416
     0.130171       898.784       894.976
     0.132058       898.489        894.63
      0.13377       898.238       894.311
     0.135771       897.846       893.847
     0.138106        897.39       893.365
     0.140368       897.025       892.942
       0.1429       896.551       892.403
     0.145039       896.227       892.049
     0.147453       895.726         891.5
     0.149902       895.275       891.016
     0.150999       895.382       891.146
     0.152316       894.915       890.701
     0.153821       894.536       890.298
     0.155518       894.156       889.923
     0.157166       893.872        889.62
     0.158583       893.661       889.399
     0.160178       893.312       889.032
     0.162077       892.908        888.62
     0.163758       892.612       888.337
     0.165771       892.203       887.908
     0.168125       891.751       887.446
     0.170759       891.269       886.957
     0.173808       890.729       886.382
     0.176694        890.27       885.937
     0.178423       890.176       885.932
     0.180349       889.843       885.538
     0.182207       889.512       885.197
     0.183565       889.402       885.183
     0.185132       889.094       884.792
     0.186911       888.733       884.432
     0.188957       888.389       884.055
     0.191261        888.02         883.7
     0.193946       887.602       883.266
     0.195123       887.734       883.754
     0.195936       888.007        883.86
      0.19691       887.587       883.321
     0.198013       887.283       882.978
     0.199281       887.008       882.674
     0.200606        886.81       882.478
     0.201838       886.678       882.372
     0.202923       886.591       882.324
      0.20416       886.371       882.053
      0.20559       886.135       881.823
     0.207301       885.884       881.579
     0.209348       885.603       881.291
     0.210515       885.737       881.564
     0.211727        885.57       881.274
     0.213049       885.358       881.076
     0.214491       885.158        880.91
     0.216141       884.932       880.716
     0.218126       884.673       880.474
     0.220515        884.42       880.228
     0.222967       884.236       880.066
      0.22441        884.43       880.335
      0.22605       884.081       879.944
     0.227681       883.922       879.867
     0.228965       883.933       879.903
     0.230407       883.683        879.64
     0.232041        883.49       879.512
     0.233915       883.324       879.346
      0.23606       883.164       879.267
      0.23855       882.967       879.093
     0.241423       882.794        879.04
     0.244616       882.743       878.913
     0.248163       882.641       878.839
     0.252098       882.391       878.834
     0.253431       883.324       880.113
     0.254962       881.711       878.919
     0.256804        881.94       878.988
     0.258865       881.697       878.913
     0.261162       881.616       878.894
     0.263088       881.594       879.047
     0.265242       881.544       878.889
     0.267613       881.486       878.898
     0.269173       881.532       879.044
     0.270821       881.501        878.99
     0.272435       881.544       879.056
     0.273639       881.619       879.205
     0.274687        881.65       879.284
     0.275843       881.595       879.266
     0.277185       881.546       879.264
     0.278732       881.527       879.305
     0.279543       881.812       879.626
     0.280477       881.637       879.565
     0.281533       881.621       879.549
     0.282707       881.584       879.564
     0.284024       881.564       879.605
     0.285524       881.542       879.664
     0.287282       881.528        879.74
     0.288008       881.907       880.139
      0.28888       881.697       880.077
     0.289867       881.666       880.071
     0.290634       881.753       880.223
     0.291421       881.718       880.236
     0.292301        881.67       880.227
     0.293329       881.629       880.225
     0.294559       881.607       880.251
     0.296037       881.593        880.31
     0.297811       881.597       880.404
     0.299939        881.62       880.533
     0.302504       881.637         880.7
      0.30559        881.68       880.912
     0.309258       881.717       881.174
     0.313405       881.779       881.474
     0.316414       881.964       881.797
     0.318738       882.078       882.037
     0.320498       882.185       882.231
     0.322492       882.064       882.244
     0.324711       882.045       882.349
      0.32536       883.025       883.176
     0.326094       882.487       882.826
     0.326942       882.311       882.697
     0.327915       882.173        882.65
     0.329018        882.08       882.638
     0.330257        882.03       882.661
      0.33166       881.997       882.706
     0.333326       881.972       882.767
     0.335335       881.966       882.855
     0.337622       881.999       882.978
     0.340328       882.037       883.106
     0.343398       882.067       883.279
     0.344822       882.364       883.631
     0.346527       882.307       883.541
     0.348446         882.3       883.613
     0.350611       882.308       883.666
     0.353101       882.336       883.745
     0.355261       882.455       883.843
     0.357714       882.503       883.927
     0.359295       882.679       884.026
     0.361146       882.696       884.102
     0.363283       882.724       884.174
     0.365182       882.811       884.243
     0.367322       882.853       884.346
     0.369114        882.95        884.41
     0.370522       883.108       884.506
     0.372161       883.127       884.642
     0.374098       883.148       884.731
     0.376346       883.212       884.824
      0.37887       883.305       884.969
     0.381754       883.425       885.111
     0.384949       883.593       885.293
     0.386463       883.901       885.415
     0.388265       883.904       885.634
     0.389159        884.26       885.776
     0.390099       884.205       885.829
     0.391176       884.147       885.828
     0.392322       884.149       885.823
     0.393604       884.162        885.85
       0.3947       884.255       885.895
     0.395939       884.287       885.953
     0.397345       884.328       885.991
     0.398975       884.382       886.059
     0.400812       884.453       886.149
     0.402878       884.538       886.252
     0.405368       884.644       886.374
     0.408326       884.779       886.461
     0.411852       884.952       886.584
     0.413651       885.177       886.575
     0.415706       885.225       886.702
      0.41758       885.315       886.749
     0.419693        885.37         886.8
     0.420616       885.589       886.699
     0.421719       885.633       886.878
     0.423023       885.618       886.889
     0.424594       885.677       886.933
     0.426479       885.728       886.954
     0.428707       885.801       886.989
     0.430328        885.95       886.983
     0.431667       886.079       887.021
     0.433257       886.103       887.066
     0.435013       886.164        887.13
     0.436982       886.252       887.168
     0.438685       886.357       887.178
     0.440602       886.428       887.193
     0.442402       886.511       887.197
     0.443654       886.652       887.203
     0.445098       886.693       887.172
     0.446814       886.743       887.195
     0.448023       886.853       887.192
     0.449391       886.924       887.212
     0.450924       886.969       887.193
     0.452093       887.072       887.124
     0.453462       887.131        887.16
     0.454872       887.206       887.132
     0.456484       887.302       887.116
     0.457451       887.436       887.008
     0.457957       887.715       886.909
     0.458533       887.717       887.021
     0.459181       887.706       887.096
     0.459937       887.683       887.119
     0.460847       887.686       887.132
     0.461935       887.721       887.132
     0.463248       887.768       887.126
     0.464845        887.84       887.116
     0.466799       887.956        887.08
      0.46917       888.109       887.016
     0.471973       888.318       886.985
     0.475087       888.565       886.945
     0.478646       888.858       886.875
     0.480289       889.304       886.616
     0.481603       889.443       886.772
     0.483136       889.462       886.824
      0.48501       889.567       886.846
     0.487151       889.736       886.807
     0.489721       889.965       886.775
     0.490863       890.511       886.671
     0.492168       890.373       886.758
     0.493735       890.438       886.718
     0.494779       890.706       886.668
     0.496084       890.694        886.69
     0.497389       890.832       886.643
     0.498695       890.976       886.623
          0.5       891.133       886.593
     0.501567        891.26       886.553
     0.503354       891.446         886.5
     0.504941       891.718        886.46
     0.506715       891.898       886.405
     0.507724       892.382       886.388
     0.508446       892.678       886.391
     0.509259       892.566       886.358
     0.510196       892.567       886.321
     0.511319       892.597       886.274
     0.512572       892.727       886.224
     0.514077       892.861        886.16
     0.515138       893.255       886.138
     0.516372       893.318       886.094
     0.517761       893.462       886.043
      0.51864       893.933       886.039
     0.519651       893.948       885.993
     0.520837        894.03       885.934
     0.522198       894.175       885.883
      0.52372         894.4       885.825
     0.525471       894.658       885.758
     0.527534       894.972       885.673
      0.52992       895.387        885.58
     0.532685       895.843       885.474
     0.535801       896.446       885.365
     0.538324       897.115       885.269
     0.539368        898.15        885.26
     0.540109       898.479       885.211
     0.540933       898.319       885.163
     0.541734       898.452        885.14
     0.542636       898.444       885.111
     0.543717       898.496       885.067
     0.545014       898.649       885.019
     0.546567       898.897       884.962
     0.548433       899.271       884.892
     0.550668       899.757        884.81
     0.553236        900.38       884.738
     0.556317       901.112        884.63
     0.557556       902.351       884.679
     0.558988       902.398       884.647
     0.560603       902.727       884.561
     0.562412       903.166       884.492
     0.563268        904.42       884.624
     0.564296       904.276       884.553
      0.56553       904.412       884.455
     0.566131       905.783        884.62
     0.566851       905.446       884.515
     0.567667       905.458        884.44
     0.568406       905.814       884.426
     0.569198       905.913       884.377
     0.570103       906.021       884.323
     0.571189       906.181       884.274
     0.572461       906.481       884.239
     0.573988       906.908        884.19
     0.575763       907.484        884.17
     0.577709         908.2        884.15
     0.579909       909.011       884.129
     0.582424       909.959       884.089
     0.585208       911.102       884.061
     0.585943       913.617       884.507
     0.586797       913.271        884.09
     0.587774       913.387       884.038
     0.588882       913.637       884.022
     0.590155       914.004       884.046
     0.591316       914.707       884.133
     0.592471       915.243       884.106
     0.593811       915.678       884.077
     0.595299       916.304       884.013
      0.59688       917.082       884.067
     0.597941         918.3       884.301
     0.599213       918.596         884.1
      0.60045       919.329       884.173
     0.601524       920.174       884.127
     0.602717        920.65       884.092
     0.604111       921.226        884.11
     0.605781       921.996       884.127
     0.607783        923.01       884.149
     0.610189       924.369       884.225
     0.611281       926.476       884.501
     0.612503       926.859       884.349
      0.61383       927.579         884.4
     0.615255        928.43       884.406
     0.616473       929.581       884.474
     0.617653        930.44       884.508
     0.618994       931.123         884.5
     0.620582       932.007       884.524
     0.622488        933.22       884.569
     0.624776       934.757       884.663
     0.627515       936.773        884.76
     0.630214       939.101       884.893
     0.631984       941.406       885.108
     0.634051       942.901       885.147
     0.636353       944.831        885.25
     0.637837       947.176       885.435
     0.639498       948.412       885.469
     0.641386       950.011       885.535
     0.643161       951.857       885.637
      0.64468       953.763       885.761
     0.646179       955.329       885.838
     0.647825       956.857       885.905
     0.649718       958.589       885.979
     0.651949        960.75       886.089
     0.654566        963.49       886.234
     0.657596       966.857       886.411
     0.660709        970.68       886.625
     0.662356       974.377       886.934
     0.663092       978.709       887.302
     0.663949       978.475        887.13
     0.664976       978.823       887.071
     0.666136       979.738       887.089
     0.667455       981.077        887.13
     0.668408       983.568       887.299
     0.668949       987.249       887.556
     0.669552        986.91       887.462
     0.670245       986.908       887.417
     0.671076       987.104       887.393
     0.672072       987.721       887.407
     0.673269       988.914       887.443
     0.674702       990.574       887.516
     0.676405       992.773       887.608
     0.678453       995.639       887.725
     0.680908       999.159       887.877
     0.683635       1003.44       888.063
     0.686707       1008.36       888.271
     0.689275       1013.14       888.491
     0.690901       1017.22       888.666
     0.692775        1020.1       888.731
     0.694938       1023.76       888.844
     0.697439       1028.16       889.008
     0.700293        1033.4       889.199
     0.702691       1038.49       889.404
     0.704861       1043.11       889.564
     0.706882       1047.49       889.707
     0.709155       1051.87       889.831
     0.711752       1057.19       889.997
     0.714754       1063.57       890.197
      0.71526       1074.99       890.712
     0.715827       1073.65       890.642
     0.716442       1073.67       890.556
     0.717136       1073.81       890.508
     0.717906       1074.45       890.502
     0.718793       1075.44       890.514
     0.719839       1076.93       890.553
     0.721046       1079.05       890.616
     0.722375       1081.95       890.696
     0.723859       1085.16       890.791
     0.725564       1088.92       890.903
     0.727132       1092.77       891.011
     0.728963       1097.12       891.127
     0.731167       1102.55       891.276
     0.733679       1108.89        891.44
     0.736543       1116.34        891.64
     0.739679        1124.6       891.841
     0.742742       1132.62       892.029
     0.746266       1142.49       892.265
     0.749478       1151.18       892.478
     0.751376       1157.08       892.548
     0.753557       1162.78       892.698
     0.755997       1169.82       892.869
     0.757845       1175.58       892.947
      0.75983       1181.27        893.09
     0.761049       1186.61       893.133
      0.76248       1190.02       893.294
     0.763014       1198.06       893.243
     0.763649       1197.73       893.426
      0.76437       1198.62        893.48
     0.765174       1199.97       893.544
     0.766088       1201.74       893.591
     0.767176        1204.1       893.645
     0.768476       1207.46       893.712
      0.77003       1211.97       893.804
     0.771786       1217.01       893.891
     0.773842       1223.42       894.013
     0.775898       1229.51       894.108
     0.778208       1236.57       894.238
     0.780817       1244.67       894.378
     0.782945       1249.97       894.457
     0.784237       1254.27        894.48
     0.785715       1258.28       894.686
     0.787364       1263.17       894.797
     0.789213       1268.94       894.921
       0.7913        1275.8       895.033
     0.793387        1281.4       895.158
     0.795734       1288.88       895.284
      0.79811       1295.63       895.384
     0.800801       1304.35       895.545
     0.802534       1305.99       895.609
     0.803915       1310.09       895.731
     0.805471       1314.92        895.82
     0.807208       1320.66       895.901
      0.80846       1322.81       895.929
     0.809968       1328.28       896.012
     0.811778        1335.2       896.054
     0.813869          1342       896.138
     0.816384       1349.66       896.243
     0.819253       1356.98       896.359
     0.821176       1356.33       896.371
     0.823411       1362.68       896.505
      0.82527       1365.05       896.532
     0.827212       1369.51        896.61
     0.828975        1372.6       896.653
     0.830854       1376.86       896.724
     0.832942       1381.84       896.779
     0.833902       1381.27       896.668
     0.835056       1383.87       896.828
     0.836365       1386.75        896.86
     0.837586       1388.78       896.884
     0.838928        1391.8       896.951
     0.840462       1395.22       897.001
     0.842216       1398.83       897.036
     0.844265       1402.92       897.063
     0.846698       1407.65       897.111
     0.849021       1409.75        897.14
     0.851766       1414.56       897.204
     0.854461       1417.47       897.235
     0.856134       1416.43       897.211
     0.858002       1419.48       897.273
     0.859466       1420.37       897.254
     0.861159       1423.57       897.294
     0.863061       1426.51       897.317
     0.865075       1428.79       897.336
     0.867324       1431.43        897.37
     0.869334       1432.06       897.363
     0.871587       1434.75       897.378
     0.874155       1436.93       897.386
     0.876363       1437.47       897.367
     0.878495       1438.44       897.351
     0.880925       1440.08       897.367
     0.883694       1441.97       897.381
     0.886837       1443.01       897.385
     0.890488       1444.02       897.385
     0.894264       1444.38       897.359
     0.896222       1442.72       897.218
      0.89818       1442.98       897.271
     0.900394       1443.47       897.305
     0.902884       1443.79       897.322
     0.904716       1442.99       897.276
     0.906932       1443.38       897.314
     0.909259       1443.22       897.304
     0.911851       1443.14       897.297
     0.914695       1442.75       897.285
     0.915987       1441.39       897.163
     0.916828       1441.55       897.178
     0.917784       1441.14       897.181
     0.918926       1440.86       897.198
       0.9203       1440.48       897.205
      0.92196       1440.06       897.208
     0.923911       1439.72       897.202
     0.925913       1439.29       897.172
     0.927366       1438.17       897.122
     0.928687       1437.85       897.135
     0.930204       1437.38       897.127
     0.931628       1436.71        897.09
     0.932787       1436.17       897.091
      0.93408       1435.82        897.09
     0.935578       1435.55       897.084
     0.937367        1435.1       897.071
     0.938895       1434.04       897.031
     0.940747       1433.58       897.026
     0.942863       1432.67       897.022
     0.944495       1431.57       896.994
     0.946128       1430.84       896.981
     0.947509       1430.08       896.953
     0.948928       1429.45        896.94
     0.950575       1428.75       896.929
     0.952552       1427.86       896.909
     0.954925       1426.61       896.893
     0.957742        1425.1       896.872
     0.960383       1423.55        896.83
     0.963213       1421.86       896.787
     0.965512        1420.5       896.733
     0.967811       1419.14       896.689
     0.969957       1417.86       896.682
     0.972268       1416.46        896.64
     0.974001       1415.48       896.593
     0.975735       1414.37       896.537
     0.977468       1413.31       896.533
     0.979346        1412.2       896.514
     0.980821       1411.31       896.466
     0.982419       1410.27       896.449
     0.983884        1409.4       896.418
     0.985227       1408.61       896.385
     0.986704       1407.66       896.369
     0.988366       1406.61       896.365
     0.990305        1405.4       896.339
     0.992729       1403.93       896.306
     0.995153        1402.5       896.259
     0.997576       1400.99       896.212
            1       1399.61       896.156
      1.00276       1397.99         896.1
      1.00585       1396.16       896.041
      1.00898       1394.43       895.961
       1.0116       1393.06       895.878
      1.01381       1391.93       895.813
      1.01623       1390.62       895.765
      1.01749       1390.43       895.659
       1.0184       1390.09       895.593
      1.01944       1389.35       895.594
      1.02064        1388.6       895.588
      1.02205       1387.75       895.574
      1.02364       1386.99       895.543
      1.02543       1386.17       895.502
      1.02745       1385.24       895.447
      1.02974       1384.16        895.39
      1.03236       1383.09        895.32
      1.03531       1381.91       895.224
      1.03868       1380.61       895.119
       1.0416        1379.7       895.004
      1.04502        1378.5         894.9
       1.0463       1378.96       894.719
      1.04778       1378.03       894.732
       1.0495       1377.41       894.685
      1.05149       1376.81       894.622
      1.05364       1376.24        894.54
      1.05608       1375.57       894.449
      1.05884       1375.01       894.345
      1.06204       1374.34       894.212
      1.06566       1373.72       894.052
      1.06897       1373.42        893.89
      1.07248       1372.95       893.722
      1.07607       1372.72       893.539
      1.08023       1372.39       893.323
      1.08237       1372.94       893.099
      1.08324       1373.94       892.918
      1.08426       1373.17       892.955
      1.08541       1372.92       892.919
      1.08635       1373.15       892.834
       1.0873       1372.95       892.809
      1.08837       1372.74       892.785
      1.08961       1372.66       892.748
      1.09105        1372.6       892.683
      1.09277        1372.6       892.586
      1.09484       1372.71       892.478
      1.09733       1372.83       892.331
      1.10022        1373.1       892.158
      1.10223       1373.63       891.997
       1.1036       1374.08       891.887
      1.10514       1374.04       891.805
      1.10655        1374.3       891.708
      1.10791       1374.46        891.62
      1.10917       1374.72        891.53
      1.11064       1374.85       891.452
      1.11226       1375.07       891.354
      1.11421        1375.3        891.24
      1.11645       1375.72       891.096
      1.11899       1376.24       890.926
       1.1207       1376.86       890.776
      1.12175       1377.43       890.639
      1.12292       1377.51       890.572
      1.12366       1378.07       890.448
      1.12452       1377.98       890.427
      1.12524       1378.29       890.359
      1.12593       1378.45       890.312
      1.12649       1378.77        890.25
      1.12711       1378.72       890.234
      1.12781       1378.72       890.218
      1.12864       1378.79       890.185
      1.12964       1378.92       890.137
      1.13083       1379.17       890.067
      1.13226       1379.49       889.977
      1.13387        1379.9       889.864
       1.1358       1380.44       889.726
      1.13775       1381.02       889.584
      1.13987        1381.6       889.427
      1.14151        1382.2       889.291
      1.14335       1382.73       889.145
      1.14545       1383.34       888.987
      1.14796       1384.02       888.798
      1.14936       1384.69       888.681
      1.15104       1385.13       888.521
      1.15268       1385.68       888.393
      1.15393       1386.17       888.267
      1.15528       1386.51       888.162
      1.15678       1386.92       888.047
      1.15846       1387.43       887.923
      1.16035       1388.02       887.776
      1.16252       1388.66       887.597
      1.16504       1389.39       887.383
      1.16747        1390.2        887.17
      1.17024       1391.03       886.932
      1.17332       1391.95       886.667
      1.17565       1392.75        886.46
      1.17825       1393.49       886.227
      1.18117       1394.31       885.976
      1.18436       1395.21       885.697
      1.18533       1395.82       885.588
      1.18648       1396.01       885.486
      1.18786       1396.35       885.378
      1.18952       1396.74       885.241
      1.19151       1397.23       885.073
       1.1939       1397.82       884.869
      1.19674        1398.5       884.623
      1.20003       1399.25       884.338
      1.20164       1399.72       884.211
      1.20301       1400.05       884.092
      1.20458       1400.41       883.955
      1.20635       1400.75       883.801
      1.20842       1401.13       883.619
      1.21081       1401.56       883.414
      1.21349       1402.07       883.185
      1.21627       1402.55       882.948
      1.21935          1403       882.689
      1.22286        1403.5       882.395
      1.22688          1404       882.066
      1.22859       1404.17        881.99
      1.22996       1404.43       881.899
      1.23149        1404.6        881.76
      1.23245        1404.7       881.747
      1.23352       1404.77       881.636
      1.23476       1404.85       881.518
      1.23618       1404.93       881.392
      1.23784       1405.04       881.253
       1.2397       1405.17       881.106
      1.24177       1405.28       880.946