# Moment      
# CofR        : (0.000000e+00 0.000000e+00 0.000000e+00)
#
# Time        	(total_x total_y total_z)	(pressure_x pressure_y pressure_z)	(viscous_x viscous_y viscous_z)
0.00060024    	(2.380406e-02 1.071454e-03 5.063642e-03)	(2.380406e-02 1.071458e-03 5.063641e-03)	(3.108917e-10 -3.768405e-09 6.939661e-10)
0.00132087    	(2.381215e-02 1.013110e-03 5.055669e-03)	(2.381215e-02 1.013122e-03 5.055664e-03)	(-7.189173e-09 -1.204993e-08 5.799078e-09)
0.00218514    	(2.381173e-02 1.105063e-03 5.063213e-03)	(2.381167e-02 1.105075e-03 5.063171e-03)	(5.660465e-08 -1.279452e-08 4.244478e-08)
0.00322225    	(2.381428e-02 1.115490e-03 5.079454e-03)	(2.381424e-02 1.115506e-03 5.079464e-03)	(3.988151e-08 -1.607790e-08 -1.012580e-08)
0.0044251     	(2.377940e-02 1.106813e-03 5.015904e-03)	(2.377950e-02 1.106835e-03 5.016016e-03)	(-9.415923e-08 -2.260256e-08 -1.114018e-07)
0.00586993    	(2.384446e-02 1.124365e-03 5.108795e-03)	(2.384431e-02 1.124391e-03 5.109666e-03)	(1.511359e-07 -2.605072e-08 -8.711346e-07)
0.00625149    	(2.418424e-02 1.175518e-03 5.286474e-03)	(2.418288e-02 1.175479e-03 5.285741e-03)	(1.364224e-06 3.980931e-08 7.329299e-07)
0.00663218    	(2.237615e-02 8.904800e-04 2.501467e-03)	(2.237298e-02 8.903605e-04 2.499060e-03)	(3.166327e-06 1.195479e-07 2.407250e-06)
0.00697057    	(2.327994e-02 9.780909e-04 3.542016e-03)	(2.328129e-02 9.781679e-04 3.539701e-03)	(-1.349553e-06 -7.692127e-08 2.315407e-06)
0.00718624    	(2.292786e-02 8.932278e-04 3.124743e-03)	(2.292833e-02 8.932774e-04 3.124147e-03)	(-4.699517e-07 -4.957709e-08 5.965083e-07)
0.00741282    	(2.412460e-02 1.125308e-03 5.480326e-03)	(2.412385e-02 1.125304e-03 5.479402e-03)	(7.498267e-07 4.370517e-09 9.235175e-07)
0.00768039    	(2.389191e-02 1.107421e-03 5.140641e-03)	(2.389123e-02 1.107425e-03 5.140560e-03)	(6.805187e-07 -4.306813e-09 8.139047e-08)
0.00800153    	(2.443665e-02 1.246963e-03 6.179281e-03)	(2.443598e-02 1.246961e-03 6.178899e-03)	(6.740253e-07 2.777049e-09 3.820212e-07)
0.00838681    	(2.386443e-02 1.152095e-03 5.229173e-03)	(2.386408e-02 1.152100e-03 5.228124e-03)	(3.541708e-07 -5.275911e-09 1.049287e-06)
0.00884929    	(2.369476e-02 1.112666e-03 4.763482e-03)	(2.369691e-02 1.112781e-03 4.762642e-03)	(-2.156233e-06 -1.149917e-07 8.395607e-07)
0.00940426    	(2.353570e-02 1.077024e-03 4.505616e-03)	(2.353927e-02 1.077201e-03 4.504478e-03)	(-3.567484e-06 -1.765318e-07 1.137850e-06)
0.0100699     	(2.370422e-02 1.108871e-03 4.802906e-03)	(2.370719e-02 1.109024e-03 4.801857e-03)	(-2.970364e-06 -1.527880e-07 1.048948e-06)
0.0108354     	(2.379521e-02 1.128771e-03 4.950489e-03)	(2.379812e-02 1.128923e-03 4.949697e-03)	(-2.907043e-06 -1.518045e-07 7.920837e-07)
0.0116876     	(2.371090e-02 1.113915e-03 4.821366e-03)	(2.371372e-02 1.114065e-03 4.820518e-03)	(-2.823490e-06 -1.500023e-07 8.476459e-07)
0.012647      	(2.377729e-02 1.126422e-03 4.946154e-03)	(2.377929e-02 1.126539e-03 4.945552e-03)	(-2.001826e-06 -1.174569e-07 6.020543e-07)
0.0137571     	(2.385819e-02 1.150253e-03 5.100614e-03)	(2.386020e-02 1.150371e-03 5.100159e-03)	(-2.015631e-06 -1.177231e-07 4.547956e-07)
0.0150893     	(2.387998e-02 1.156464e-03 5.136242e-03)	(2.388216e-02 1.156587e-03 5.135877e-03)	(-2.175682e-06 -1.230793e-07 3.646496e-07)
0.0166897     	(2.384860e-02 1.156384e-03 5.082625e-03)	(2.385074e-02 1.156501e-03 5.082049e-03)	(-2.140017e-06 -1.165522e-07 5.754153e-07)
0.0186076     	(2.384075e-02 1.162857e-03 5.102965e-03)	(2.384222e-02 1.162952e-03 5.102503e-03)	(-1.466978e-06 -9.537965e-08 4.617663e-07)
0.0209109     	(2.386719e-02 1.166425e-03 5.115555e-03)	(2.386821e-02 1.166498e-03 5.115284e-03)	(-1.020492e-06 -7.292397e-08 2.708497e-07)
0.0235289     	(2.385523e-02 1.169374e-03 5.070607e-03)	(2.385531e-02 1.169398e-03 5.070446e-03)	(-8.350697e-08 -2.403443e-08 1.602828e-07)
0.0246606     	(2.386868e-02 1.183031e-03 5.083295e-03)	(2.386813e-02 1.183007e-03 5.083158e-03)	(5.495942e-07 2.474628e-08 1.370233e-07)
0.0259316     	(2.384730e-02 1.185278e-03 5.110647e-03)	(2.384678e-02 1.185242e-03 5.110192e-03)	(5.202570e-07 3.607571e-08 4.551382e-07)
0.0273769     	(2.391342e-02 1.183143e-03 5.139534e-03)	(2.391380e-02 1.183143e-03 5.138663e-03)	(-3.739005e-07 6.428774e-11 8.703504e-07)
0.0289955     	(2.394101e-02 1.183319e-03 5.132050e-03)	(2.394278e-02 1.183352e-03 5.131187e-03)	(-1.769400e-06 -3.306447e-08 8.625946e-07)
0.0308001     	(2.386127e-02 1.174106e-03 5.064591e-03)	(2.386316e-02 1.174144e-03 5.063684e-03)	(-1.890058e-06 -3.852918e-08 9.071745e-07)
0.0329232     	(2.380356e-02 1.166553e-03 5.006580e-03)	(2.380492e-02 1.166566e-03 5.006065e-03)	(-1.358917e-06 -1.255709e-08 5.152135e-07)
0.0354755     	(2.381009e-02 1.171339e-03 5.069953e-03)	(2.381152e-02 1.171342e-03 5.069439e-03)	(-1.437116e-06 -2.349751e-09 5.141733e-07)
0.0384343     	(2.383614e-02 1.172868e-03 5.045864e-03)	(2.383733e-02 1.172853e-03 5.045398e-03)	(-1.190444e-06 1.465458e-08 4.665117e-07)
0.0412148     	(2.380484e-02 1.179233e-03 5.107722e-03)	(2.380658e-02 1.179219e-03 5.107969e-03)	(-1.735416e-06 1.467220e-08 -2.469107e-07)
0.0427647     	(2.391104e-02 1.169482e-03 5.010301e-03)	(2.391302e-02 1.169439e-03 5.010649e-03)	(-1.981450e-06 4.294883e-08 -3.471198e-07)
0.0438281     	(2.380345e-02 1.165269e-03 4.933867e-03)	(2.380462e-02 1.165184e-03 4.933707e-03)	(-1.161045e-06 8.492092e-08 1.599366e-07)
0.0450099     	(2.397044e-02 1.192110e-03 5.263033e-03)	(2.397030e-02 1.191983e-03 5.263000e-03)	(1.454312e-07 1.263890e-07 3.259268e-08)
0.0459003     	(2.403786e-02 1.204539e-03 5.379911e-03)	(2.403821e-02 1.204441e-03 5.379492e-03)	(-3.433097e-07 9.826332e-08 4.195769e-07)
0.0468917     	(2.394624e-02 1.197304e-03 5.313189e-03)	(2.394590e-02 1.197208e-03 5.312527e-03)	(3.348738e-07 9.643758e-08 6.623132e-07)
0.0480779     	(2.375067e-02 1.172347e-03 5.072347e-03)	(2.375012e-02 1.172251e-03 5.071690e-03)	(5.573046e-07 9.535665e-08 6.571338e-07)
0.0494727     	(2.378810e-02 1.162809e-03 4.981001e-03)	(2.378817e-02 1.162673e-03 4.980116e-03)	(-6.800472e-08 1.364216e-07 8.844048e-07)
0.0511475     	(2.375412e-02 1.167085e-03 5.024807e-03)	(2.375506e-02 1.166965e-03 5.024197e-03)	(-9.361215e-07 1.203072e-07 6.092893e-07)
0.0530906     	(2.378438e-02 1.164711e-03 5.016881e-03)	(2.378552e-02 1.164581e-03 5.016217e-03)	(-1.139962e-06 1.295713e-07 6.635132e-07)
0.0554062     	(2.376898e-02 1.167160e-03 5.086019e-03)	(2.376982e-02 1.167031e-03 5.085320e-03)	(-8.399044e-07 1.282707e-07 6.992339e-07)
0.0566516     	(2.391154e-02 1.162209e-03 4.943821e-03)	(2.391249e-02 1.162101e-03 4.943199e-03)	(-9.518043e-07 1.071222e-07 6.227119e-07)
0.0581004     	(2.375877e-02 1.167131e-03 5.007990e-03)	(2.375899e-02 1.167066e-03 5.007220e-03)	(-2.136373e-07 6.455564e-08 7.696557e-07)
0.0597371     	(2.381147e-02 1.151515e-03 4.911188e-03)	(2.381295e-02 1.151360e-03 4.909686e-03)	(-1.474773e-06 1.548827e-07 1.502637e-06)
0.0615715     	(2.371329e-02 1.177404e-03 5.165030e-03)	(2.371508e-02 1.177210e-03 5.164377e-03)	(-1.782797e-06 1.939331e-07 6.537980e-07)
0.0636693     	(2.380655e-02 1.171282e-03 5.103064e-03)	(2.380806e-02 1.171081e-03 5.102074e-03)	(-1.513202e-06 2.003299e-07 9.896235e-07)
0.0661769     	(2.381759e-02 1.166159e-03 5.092969e-03)	(2.381874e-02 1.165982e-03 5.091855e-03)	(-1.154465e-06 1.768036e-07 1.114085e-06)
0.0691896     	(2.380832e-02 1.167519e-03 5.090364e-03)	(2.380961e-02 1.167359e-03 5.089399e-03)	(-1.296676e-06 1.601423e-07 9.650506e-07)
0.0725553     	(2.380682e-02 1.169740e-03 5.083859e-03)	(2.380816e-02 1.169590e-03 5.082618e-03)	(-1.334449e-06 1.507886e-07 1.241063e-06)
0.0755236     	(2.383704e-02 1.166584e-03 5.080721e-03)	(2.383808e-02 1.166437e-03 5.079196e-03)	(-1.037715e-06 1.471030e-07 1.524525e-06)
0.0769874     	(2.376381e-02 1.181877e-03 5.183858e-03)	(2.376469e-02 1.181737e-03 5.182685e-03)	(-8.770635e-07 1.398884e-07 1.173212e-06)
0.0787069     	(2.372734e-02 1.183869e-03 5.221433e-03)	(2.372833e-02 1.183739e-03 5.220761e-03)	(-9.854116e-07 1.300639e-07 6.721364e-07)
0.080752      	(2.378659e-02 1.175250e-03 5.104906e-03)	(2.378803e-02 1.175083e-03 5.104995e-03)	(-1.439593e-06 1.670585e-07 -8.886349e-08)
0.083043      	(2.384937e-02 1.171814e-03 5.046924e-03)	(2.385091e-02 1.171622e-03 5.046489e-03)	(-1.545522e-06 1.916371e-07 4.350653e-07)
0.0856168     	(2.381727e-02 1.178631e-03 5.084893e-03)	(2.381877e-02 1.178444e-03 5.083909e-03)	(-1.491370e-06 1.871130e-07 9.841585e-07)
0.0882562     	(2.379842e-02 1.176309e-03 5.088936e-03)	(2.379923e-02 1.176111e-03 5.087960e-03)	(-8.122888e-07 1.973676e-07 9.766218e-07)
0.0899576     	(2.382626e-02 1.184062e-03 5.129844e-03)	(2.382689e-02 1.183850e-03 5.128869e-03)	(-6.279315e-07 2.114251e-07 9.748063e-07)
0.0919102     	(2.376378e-02 1.182218e-03 5.081194e-03)	(2.376411e-02 1.181992e-03 5.080307e-03)	(-3.315545e-07 2.260522e-07 8.868243e-07)
0.0941161     	(2.375216e-02 1.180408e-03 5.044971e-03)	(2.375292e-02 1.180189e-03 5.044046e-03)	(-7.592900e-07 2.190421e-07 9.249929e-07)
0.0960675     	(2.379349e-02 1.181255e-03 5.043601e-03)	(2.379366e-02 1.181034e-03 5.042316e-03)	(-1.654748e-07 2.206409e-07 1.284547e-06)
0.0977718     	(2.382129e-02 1.184949e-03 5.088616e-03)	(2.382130e-02 1.184708e-03 5.087248e-03)	(-6.776470e-09 2.407641e-07 1.368415e-06)
0.0996872     	(2.379857e-02 1.193712e-03 5.150356e-03)	(2.379887e-02 1.193455e-03 5.149081e-03)	(-2.966678e-07 2.566887e-07 1.275350e-06)
0.10073       	(2.398757e-02 1.198051e-03 5.314961e-03)	(2.398747e-02 1.197759e-03 5.313803e-03)	(1.013015e-07 2.920348e-07 1.157541e-06)
0.101925      	(2.386892e-02 1.198116e-03 5.171286e-03)	(2.386920e-02 1.197844e-03 5.170107e-03)	(-2.780800e-07 2.724393e-07 1.178756e-06)
0.103332      	(2.383631e-02 1.197499e-03 5.061336e-03)	(2.383714e-02 1.197228e-03 5.060249e-03)	(-8.287122e-07 2.716408e-07 1.087276e-06)
0.104714      	(2.383880e-02 1.202119e-03 5.037239e-03)	(2.383938e-02 1.201828e-03 5.036026e-03)	(-5.861782e-07 2.916861e-07 1.213110e-06)
0.105776      	(2.389282e-02 1.201047e-03 5.144745e-03)	(2.389363e-02 1.200759e-03 5.143273e-03)	(-8.124163e-07 2.883514e-07 1.472280e-06)
0.106967      	(2.395439e-02 1.209384e-03 5.243471e-03)	(2.395545e-02 1.209103e-03 5.242012e-03)	(-1.057935e-06 2.815905e-07 1.459154e-06)
0.108021      	(2.388217e-02 1.195126e-03 5.192019e-03)	(2.388318e-02 1.194841e-03 5.190099e-03)	(-1.003906e-06 2.842952e-07 1.920640e-06)
0.108999      	(2.380660e-02 1.191010e-03 5.118481e-03)	(2.380691e-02 1.190708e-03 5.117266e-03)	(-3.158979e-07 3.010684e-07 1.215494e-06)
0.1101        	(2.371702e-02 1.182436e-03 4.976265e-03)	(2.371706e-02 1.182150e-03 4.975368e-03)	(-4.539753e-08 2.862036e-07 8.975222e-07)
0.111417      	(2.377488e-02 1.191768e-03 5.040719e-03)	(2.377441e-02 1.191492e-03 5.039675e-03)	(4.617837e-07 2.759086e-07 1.044389e-06)
0.112997      	(2.381701e-02 1.197205e-03 5.101699e-03)	(2.381652e-02 1.196929e-03 5.100755e-03)	(4.963618e-07 2.757601e-07 9.442176e-07)
0.114894      	(2.384123e-02 1.200954e-03 5.143499e-03)	(2.384125e-02 1.200665e-03 5.142660e-03)	(-1.913066e-08 2.881809e-07 8.397061e-07)
0.11712       	(2.381716e-02 1.204735e-03 5.121826e-03)	(2.381768e-02 1.204432e-03 5.121115e-03)	(-5.147291e-07 3.023827e-07 7.109828e-07)
0.119761      	(2.381139e-02 1.208037e-03 5.080133e-03)	(2.381223e-02 1.207722e-03 5.079192e-03)	(-8.352125e-07 3.143875e-07 9.413726e-07)
0.121521      	(2.381844e-02 1.210121e-03 5.046066e-03)	(2.381920e-02 1.209786e-03 5.045027e-03)	(-7.619371e-07 3.354959e-07 1.039573e-06)
0.122994      	(2.382354e-02 1.209186e-03 5.013828e-03)	(2.382309e-02 1.208859e-03 5.012498e-03)	(4.464778e-07 3.273237e-07 1.330339e-06)
0.124723      	(2.385353e-02 1.204635e-03 4.953960e-03)	(2.385341e-02 1.204273e-03 4.952030e-03)	(1.229146e-07 3.620460e-07 1.930362e-06)
0.126719      	(2.385032e-02 1.208142e-03 4.995344e-03)	(2.385119e-02 1.207751e-03 4.992925e-03)	(-8.685515e-07 3.911701e-07 2.419437e-06)
0.128294      	(2.377993e-02 1.221827e-03 5.138635e-03)	(2.378143e-02 1.221406e-03 5.136372e-03)	(-1.508197e-06 4.202065e-07 2.263825e-06)
0.130171      	(2.380408e-02 1.227576e-03 5.144711e-03)	(2.380619e-02 1.227127e-03 5.142620e-03)	(-2.108687e-06 4.489247e-07 2.091361e-06)
0.132058      	(2.373393e-02 1.224359e-03 5.127281e-03)	(2.373557e-02 1.223916e-03 5.124949e-03)	(-1.644964e-06 4.428028e-07 2.331595e-06)
0.13377       	(2.378525e-02 1.244341e-03 5.307645e-03)	(2.378572e-02 1.243889e-03 5.305382e-03)	(-4.714686e-07 4.512947e-07 2.263028e-06)
0.135771      	(2.381729e-02 1.239146e-03 5.195588e-03)	(2.381878e-02 1.238707e-03 5.193502e-03)	(-1.489422e-06 4.390782e-07 2.086523e-06)
0.138106      	(2.379983e-02 1.230996e-03 5.110840e-03)	(2.380111e-02 1.230511e-03 5.109056e-03)	(-1.275550e-06 4.846764e-07 1.783680e-06)
0.140368      	(2.380164e-02 1.229934e-03 5.091449e-03)	(2.380275e-02 1.229470e-03 5.088851e-03)	(-1.108567e-06 4.640057e-07 2.598476e-06)
0.1429        	(2.379734e-02 1.241420e-03 5.171729e-03)	(2.379771e-02 1.240960e-03 5.169392e-03)	(-3.685210e-07 4.603529e-07 2.337169e-06)
0.145039      	(2.383335e-02 1.240636e-03 5.118758e-03)	(2.383358e-02 1.240136e-03 5.117049e-03)	(-2.314340e-07 4.995799e-07 1.709302e-06)
0.147453      	(2.382404e-02 1.241083e-03 5.091948e-03)	(2.382378e-02 1.240513e-03 5.090576e-03)	(2.553172e-07 5.702838e-07 1.372435e-06)
0.149902      	(2.380174e-02 1.251010e-03 5.156616e-03)	(2.380127e-02 1.250397e-03 5.155345e-03)	(4.648809e-07 6.128834e-07 1.271284e-06)
0.150999      	(2.381499e-02 1.251486e-03 5.126116e-03)	(2.381460e-02 1.250851e-03 5.124769e-03)	(3.875124e-07 6.353276e-07 1.347299e-06)
0.152316      	(2.383032e-02 1.262777e-03 5.229749e-03)	(2.383018e-02 1.262126e-03 5.228394e-03)	(1.312329e-07 6.508628e-07 1.354864e-06)
0.153821      	(2.383510e-02 1.258377e-03 5.180258e-03)	(2.383479e-02 1.257715e-03 5.179038e-03)	(3.084711e-07 6.615157e-07 1.219713e-06)
0.155518      	(2.380186e-02 1.250443e-03 5.080550e-03)	(2.380242e-02 1.249799e-03 5.079380e-03)	(-5.650874e-07 6.445536e-07 1.170836e-06)
0.157166      	(2.378250e-02 1.250643e-03 5.064177e-03)	(2.378370e-02 1.249998e-03 5.062897e-03)	(-1.201133e-06 6.441526e-07 1.279900e-06)
0.158583      	(2.377756e-02 1.254065e-03 5.083797e-03)	(2.377890e-02 1.253404e-03 5.082655e-03)	(-1.337496e-06 6.611427e-07 1.141239e-06)
0.160178      	(2.378082e-02 1.255090e-03 5.084973e-03)	(2.378218e-02 1.254408e-03 5.083530e-03)	(-1.362488e-06 6.814410e-07 1.443002e-06)
0.162077      	(2.379656e-02 1.264132e-03 5.154880e-03)	(2.379808e-02 1.263432e-03 5.153475e-03)	(-1.523358e-06 7.002561e-07 1.405391e-06)
0.163758      	(2.382905e-02 1.269290e-03 5.182449e-03)	(2.383074e-02 1.268577e-03 5.180957e-03)	(-1.683174e-06 7.130695e-07 1.492347e-06)
0.165771      	(2.380187e-02 1.270093e-03 5.146842e-03)	(2.380369e-02 1.269375e-03 5.145114e-03)	(-1.815724e-06 7.179290e-07 1.727726e-06)
0.168125      	(2.382614e-02 1.275385e-03 5.183395e-03)	(2.382752e-02 1.274655e-03 5.181738e-03)	(-1.377606e-06 7.294716e-07 1.656498e-06)
0.170759      	(2.382465e-02 1.276037e-03 5.153158e-03)	(2.382616e-02 1.275267e-03 5.151426e-03)	(-1.512153e-06 7.692006e-07 1.731869e-06)
0.173808      	(2.380083e-02 1.277584e-03 5.132233e-03)	(2.380257e-02 1.276771e-03 5.130660e-03)	(-1.736599e-06 8.125591e-07 1.573312e-06)
0.176694      	(2.388398e-02 1.294953e-03 5.243904e-03)	(2.388519e-02 1.294084e-03 5.242375e-03)	(-1.213313e-06 8.687405e-07 1.529220e-06)
0.178423      	(2.376126e-02 1.281486e-03 5.050954e-03)	(2.376196e-02 1.280577e-03 5.049229e-03)	(-6.992876e-07 9.089147e-07 1.725691e-06)
0.180349      	(2.381841e-02 1.296126e-03 5.178735e-03)	(2.381910e-02 1.295191e-03 5.176953e-03)	(-6.863804e-07 9.354360e-07 1.781457e-06)
0.182207      	(2.379159e-02 1.293522e-03 5.091356e-03)	(2.379241e-02 1.292572e-03 5.089561e-03)	(-8.177947e-07 9.496353e-07 1.794308e-06)
0.183565      	(2.375669e-02 1.295975e-03 5.080904e-03)	(2.375720e-02 1.294993e-03 5.078957e-03)	(-5.034679e-07 9.822415e-07 1.947537e-06)
0.185132      	(2.380078e-02 1.307951e-03 5.230880e-03)	(2.380228e-02 1.306982e-03 5.228921e-03)	(-1.496542e-06 9.690004e-07 1.958469e-06)
0.186911      	(2.382441e-02 1.306225e-03 5.172452e-03)	(2.382613e-02 1.305241e-03 5.170542e-03)	(-1.712801e-06 9.843118e-07 1.910763e-06)
0.188957      	(2.385554e-02 1.311671e-03 5.193150e-03)	(2.385620e-02 1.310610e-03 5.191779e-03)	(-6.576448e-07 1.060975e-06 1.370979e-06)
0.191261      	(2.381798e-02 1.316008e-03 5.213126e-03)	(2.381924e-02 1.314898e-03 5.211957e-03)	(-1.265409e-06 1.110402e-06 1.168837e-06)
0.193946      	(2.382991e-02 1.311427e-03 5.125523e-03)	(2.383038e-02 1.310307e-03 5.124721e-03)	(-4.705076e-07 1.119919e-06 8.013652e-07)
0.195123      	(2.384484e-02 1.324611e-03 5.272019e-03)	(2.384440e-02 1.323421e-03 5.271255e-03)	(4.450809e-07 1.190698e-06 7.644468e-07)
0.195936      	(2.385073e-02 1.321099e-03 5.129725e-03)	(2.385004e-02 1.319932e-03 5.128853e-03)	(6.968070e-07 1.166916e-06 8.720195e-07)
0.19691       	(2.375237e-02 1.336491e-03 5.262904e-03)	(2.375173e-02 1.335334e-03 5.262407e-03)	(6.455534e-07 1.157481e-06 4.968376e-07)
0.198013      	(2.372992e-02 1.339159e-03 5.276448e-03)	(2.373017e-02 1.338035e-03 5.276280e-03)	(-2.553732e-07 1.123498e-06 1.685120e-07)
0.199281      	(2.368771e-02 1.338821e-03 5.228137e-03)	(2.368911e-02 1.337687e-03 5.227965e-03)	(-1.396946e-06 1.133825e-06 1.715914e-07)
0.200606      	(2.388854e-02 1.305041e-03 4.850754e-03)	(2.389100e-02 1.303799e-03 4.848919e-03)	(-2.467730e-06 1.241790e-06 1.835509e-06)
0.201838      	(2.377765e-02 1.340484e-03 5.121765e-03)	(2.377970e-02 1.339187e-03 5.119283e-03)	(-2.041493e-06 1.296508e-06 2.482084e-06)
0.202923      	(2.390487e-02 1.340643e-03 5.142569e-03)	(2.390945e-02 1.339224e-03 5.139615e-03)	(-4.580799e-06 1.419001e-06 2.953924e-06)
0.20416       	(2.376693e-02 1.346255e-03 5.273966e-03)	(2.377161e-02 1.344814e-03 5.271837e-03)	(-4.677999e-06 1.441017e-06 2.129303e-06)
0.20559       	(2.382296e-02 1.335586e-03 5.157100e-03)	(2.382647e-02 1.334166e-03 5.155608e-03)	(-3.504247e-06 1.420233e-06 1.492020e-06)
0.207301      	(2.379117e-02 1.351802e-03 5.273326e-03)	(2.379343e-02 1.350395e-03 5.272127e-03)	(-2.257481e-06 1.406243e-06 1.199695e-06)
0.209348      	(2.383836e-02 1.349923e-03 5.229492e-03)	(2.384059e-02 1.348492e-03 5.228074e-03)	(-2.228122e-06 1.430776e-06 1.417593e-06)
0.210515      	(2.377192e-02 1.337463e-03 5.097103e-03)	(2.377409e-02 1.336007e-03 5.094841e-03)	(-2.170265e-06 1.455944e-06 2.261958e-06)
0.211727      	(2.382511e-02 1.355583e-03 5.219067e-03)	(2.382672e-02 1.354084e-03 5.217265e-03)	(-1.611499e-06 1.499066e-06 1.802662e-06)
0.213049      	(2.375103e-02 1.345911e-03 5.126643e-03)	(2.375229e-02 1.344382e-03 5.124709e-03)	(-1.259670e-06 1.528274e-06 1.934438e-06)
0.214491      	(2.383601e-02 1.360204e-03 5.228140e-03)	(2.383759e-02 1.358671e-03 5.226516e-03)	(-1.578122e-06 1.533147e-06 1.624038e-06)
0.216141      	(2.384449e-02 1.366683e-03 5.263007e-03)	(2.384635e-02 1.365138e-03 5.261676e-03)	(-1.859434e-06 1.544923e-06 1.330833e-06)
0.218126      	(2.380794e-02 1.364570e-03 5.223991e-03)	(2.381027e-02 1.363013e-03 5.222628e-03)	(-2.322857e-06 1.557496e-06 1.363492e-06)
0.220515      	(2.383224e-02 1.371909e-03 5.198610e-03)	(2.383483e-02 1.370323e-03 5.197450e-03)	(-2.587979e-06 1.586727e-06 1.160043e-06)
0.222967      	(2.384471e-02 1.378829e-03 5.209169e-03)	(2.384699e-02 1.377177e-03 5.207860e-03)	(-2.280344e-06 1.652508e-06 1.309541e-06)
0.22441       	(2.382236e-02 1.374745e-03 5.137941e-03)	(2.382408e-02 1.373051e-03 5.136453e-03)	(-1.716973e-06 1.693981e-06 1.488504e-06)
0.22605       	(2.383842e-02 1.381676e-03 5.185114e-03)	(2.383972e-02 1.379941e-03 5.183859e-03)	(-1.292052e-06 1.735143e-06 1.254949e-06)
0.227681      	(2.381611e-02 1.380836e-03 5.129120e-03)	(2.381749e-02 1.379072e-03 5.128126e-03)	(-1.381957e-06 1.763399e-06 9.937728e-07)
0.228965      	(2.382717e-02 1.390098e-03 5.179774e-03)	(2.382866e-02 1.388311e-03 5.178905e-03)	(-1.486685e-06 1.787012e-06 8.683018e-07)
0.230407      	(2.388393e-02 1.398644e-03 5.248553e-03)	(2.388522e-02 1.396828e-03 5.247645e-03)	(-1.288118e-06 1.815576e-06 9.086586e-07)
0.232041      	(2.382114e-02 1.394188e-03 5.173964e-03)	(2.382204e-02 1.392327e-03 5.172724e-03)	(-8.920635e-07 1.861724e-06 1.240360e-06)
0.233915      	(2.381013e-02 1.400561e-03 5.231885e-03)	(2.381166e-02 1.398672e-03 5.230255e-03)	(-1.531953e-06 1.888612e-06 1.629260e-06)
0.23606       	(2.387050e-02 1.416300e-03 5.203035e-03)	(2.387219e-02 1.414366e-03 5.201653e-03)	(-1.693190e-06 1.934502e-06 1.381816e-06)
0.23855       	(2.384249e-02 1.413777e-03 5.176331e-03)	(2.384429e-02 1.411792e-03 5.174903e-03)	(-1.803030e-06 1.985313e-06 1.427277e-06)
0.241423      	(2.381437e-02 1.419008e-03 5.228912e-03)	(2.381642e-02 1.416943e-03 5.227758e-03)	(-2.046049e-06 2.064487e-06 1.154467e-06)
0.244616      	(2.382522e-02 1.425077e-03 5.262731e-03)	(2.382741e-02 1.422945e-03 5.261662e-03)	(-2.196638e-06 2.132199e-06 1.069671e-06)
0.248163      	(2.384794e-02 1.432508e-03 5.226753e-03)	(2.385012e-02 1.430309e-03 5.225617e-03)	(-2.182557e-06 2.198851e-06 1.135555e-06)
0.252098      	(2.385995e-02 1.437623e-03 5.257478e-03)	(2.386194e-02 1.435313e-03 5.255928e-03)	(-1.991218e-06 2.309765e-06 1.550139e-06)
0.253431      	(2.393560e-02 1.431763e-03 5.155758e-03)	(2.393740e-02 1.429452e-03 5.154225e-03)	(-1.798398e-06 2.310680e-06 1.532503e-06)
0.254962      	(2.383458e-02 1.449643e-03 5.351453e-03)	(2.383613e-02 1.447302e-03 5.350119e-03)	(-1.546361e-06 2.341757e-06 1.333953e-06)
0.256804      	(2.381165e-02 1.451502e-03 5.320654e-03)	(2.381320e-02 1.449094e-03 5.319337e-03)	(-1.556201e-06 2.407943e-06 1.317256e-06)
0.258865      	(2.375144e-02 1.465489e-03 5.295939e-03)	(2.375386e-02 1.463010e-03 5.294151e-03)	(-2.418335e-06 2.478348e-06 1.788735e-06)
0.261162      	(2.376046e-02 1.475174e-03 5.199619e-03)	(2.376280e-02 1.472646e-03 5.197402e-03)	(-2.335885e-06 2.527817e-06 2.217095e-06)
0.263088      	(2.389067e-02 1.461269e-03 5.281144e-03)	(2.389248e-02 1.458719e-03 5.278957e-03)	(-1.805200e-06 2.549274e-06 2.187761e-06)
0.265242      	(2.389685e-02 1.467164e-03 5.322273e-03)	(2.389795e-02 1.464574e-03 5.320324e-03)	(-1.101216e-06 2.589767e-06 1.948852e-06)
0.267613      	(2.387889e-02 1.477084e-03 5.273695e-03)	(2.387933e-02 1.474446e-03 5.272153e-03)	(-4.495059e-07 2.637580e-06 1.541779e-06)
0.269173      	(2.389136e-02 1.484164e-03 5.262537e-03)	(2.389114e-02 1.481470e-03 5.260857e-03)	(2.107882e-07 2.693920e-06 1.679930e-06)
0.270821      	(2.387426e-02 1.488319e-03 5.323367e-03)	(2.387366e-02 1.485535e-03 5.322083e-03)	(6.016716e-07 2.784472e-06 1.283545e-06)
0.272435      	(2.386027e-02 1.489040e-03 5.276662e-03)	(2.386081e-02 1.486227e-03 5.275649e-03)	(-5.325556e-07 2.813579e-06 1.012378e-06)
0.273639      	(2.377617e-02 1.473638e-03 5.133750e-03)	(2.377636e-02 1.470753e-03 5.132791e-03)	(-1.921037e-07 2.884444e-06 9.588612e-07)
0.274687      	(2.384420e-02 1.480171e-03 5.189338e-03)	(2.384483e-02 1.477260e-03 5.187977e-03)	(-6.333791e-07 2.911693e-06 1.360379e-06)
0.275843      	(2.385476e-02 1.489916e-03 5.236199e-03)	(2.385579e-02 1.486981e-03 5.234830e-03)	(-1.036592e-06 2.935640e-06 1.368449e-06)
0.277185      	(2.385131e-02 1.498143e-03 5.261794e-03)	(2.385273e-02 1.495175e-03 5.260376e-03)	(-1.423563e-06 2.967777e-06 1.417970e-06)
0.278732      	(2.386892e-02 1.497284e-03 5.237948e-03)	(2.387072e-02 1.494266e-03 5.235915e-03)	(-1.805710e-06 3.017885e-06 2.033538e-06)
0.279543      	(2.377887e-02 1.526704e-03 5.492636e-03)	(2.378095e-02 1.523631e-03 5.491006e-03)	(-2.080418e-06 3.073358e-06 1.630201e-06)
0.280477      	(2.416601e-02 1.465975e-03 4.849994e-03)	(2.416829e-02 1.462887e-03 4.848632e-03)	(-2.285061e-06 3.088088e-06 1.362579e-06)
0.281533      	(2.387083e-02 1.508354e-03 5.254416e-03)	(2.387376e-02 1.505224e-03 5.253386e-03)	(-2.925123e-06 3.129995e-06 1.030126e-06)
0.282707      	(2.394259e-02 1.505208e-03 5.211347e-03)	(2.394456e-02 1.502077e-03 5.210423e-03)	(-1.969102e-06 3.130735e-06 9.237734e-07)
0.284024      	(2.395311e-02 1.511329e-03 5.226835e-03)	(2.395396e-02 1.508192e-03 5.226315e-03)	(-8.529974e-07 3.137171e-06 5.192958e-07)
0.285524      	(2.391827e-02 1.510575e-03 5.230931e-03)	(2.391886e-02 1.507395e-03 5.230375e-03)	(-5.931715e-07 3.179964e-06 5.561727e-07)
0.287282      	(2.386478e-02 1.517979e-03 5.265241e-03)	(2.386564e-02 1.514726e-03 5.264269e-03)	(-8.601632e-07 3.252193e-06 9.723040e-07)
0.288008      	(2.381056e-02 1.531598e-03 5.391316e-03)	(2.381157e-02 1.528302e-03 5.390694e-03)	(-1.010838e-06 3.295654e-06 6.222472e-07)
0.28888       	(2.390953e-02 1.517434e-03 5.220773e-03)	(2.391183e-02 1.514089e-03 5.219667e-03)	(-2.301531e-06 3.344705e-06 1.106086e-06)
0.289867      	(2.374462e-02 1.512859e-03 5.152153e-03)	(2.374788e-02 1.509500e-03 5.150566e-03)	(-3.262299e-06 3.359584e-06 1.587166e-06)
0.290634      	(2.373784e-02 1.518699e-03 5.225993e-03)	(2.374051e-02 1.515295e-03 5.224678e-03)	(-2.670430e-06 3.404949e-06 1.315310e-06)
0.291421      	(2.389610e-02 1.542127e-03 5.390380e-03)	(2.389890e-02 1.538704e-03 5.389299e-03)	(-2.798897e-06 3.423353e-06 1.081019e-06)
0.292301      	(2.377061e-02 1.528606e-03 5.221639e-03)	(2.377348e-02 1.525154e-03 5.220509e-03)	(-2.862184e-06 3.452259e-06 1.130013e-06)
0.293329      	(2.386292e-02 1.540660e-03 5.335728e-03)	(2.386577e-02 1.537179e-03 5.334593e-03)	(-2.842215e-06 3.481031e-06 1.134720e-06)
0.294559      	(2.388177e-02 1.544449e-03 5.325306e-03)	(2.388542e-02 1.540971e-03 5.324034e-03)	(-3.644577e-06 3.478015e-06 1.272339e-06)
0.296037      	(2.387446e-02 1.542292e-03 5.291435e-03)	(2.387778e-02 1.538760e-03 5.290331e-03)	(-3.326401e-06 3.531395e-06 1.104343e-06)
0.297811      	(2.387667e-02 1.543770e-03 5.283667e-03)	(2.387948e-02 1.540174e-03 5.282284e-03)	(-2.815733e-06 3.596286e-06 1.382869e-06)
0.299939      	(2.389639e-02 1.551793e-03 5.304633e-03)	(2.389906e-02 1.548127e-03 5.303105e-03)	(-2.673987e-06 3.666030e-06 1.527888e-06)
0.302504      	(2.389861e-02 1.558001e-03 5.349599e-03)	(2.390141e-02 1.554260e-03 5.347792e-03)	(-2.797562e-06 3.741405e-06 1.806352e-06)
0.30559       	(2.388975e-02 1.563701e-03 5.313562e-03)	(2.389221e-02 1.559842e-03 5.311725e-03)	(-2.459245e-06 3.858739e-06 1.836214e-06)
0.309258      	(2.391877e-02 1.573843e-03 5.282980e-03)	(2.392080e-02 1.569851e-03 5.280956e-03)	(-2.026793e-06 3.992333e-06 2.023498e-06)
0.313405      	(2.390341e-02 1.582314e-03 5.348146e-03)	(2.390508e-02 1.578178e-03 5.345842e-03)	(-1.669911e-06 4.135395e-06 2.304242e-06)
0.316414      	(2.393175e-02 1.593858e-03 5.262173e-03)	(2.393366e-02 1.589632e-03 5.259379e-03)	(-1.908192e-06 4.225777e-06 2.793414e-06)
0.318738      	(2.392085e-02 1.595610e-03 5.297179e-03)	(2.392238e-02 1.591299e-03 5.294578e-03)	(-1.529441e-06 4.311130e-06 2.600992e-06)
0.320498      	(2.397202e-02 1.594522e-03 5.343296e-03)	(2.397360e-02 1.590156e-03 5.341094e-03)	(-1.577395e-06 4.365703e-06 2.202109e-06)
0.322492      	(2.382923e-02 1.597519e-03 5.454353e-03)	(2.382981e-02 1.593107e-03 5.451881e-03)	(-5.842115e-07 4.412589e-06 2.471447e-06)
0.324711      	(2.389424e-02 1.610631e-03 5.387141e-03)	(2.389554e-02 1.606147e-03 5.384362e-03)	(-1.306601e-06 4.483993e-06 2.778943e-06)
0.32536       	(2.377699e-02 1.601105e-03 5.298872e-03)	(2.377741e-02 1.596559e-03 5.296055e-03)	(-4.209856e-07 4.545701e-06 2.817258e-06)
0.326094      	(2.402761e-02 1.620289e-03 5.551231e-03)	(2.402797e-02 1.615659e-03 5.548509e-03)	(-3.550674e-07 4.630051e-06 2.722480e-06)
0.326942      	(2.388832e-02 1.601752e-03 5.437323e-03)	(2.388932e-02 1.597076e-03 5.435211e-03)	(-9.982657e-07 4.675778e-06 2.112204e-06)
0.327915      	(2.387260e-02 1.603835e-03 5.329005e-03)	(2.387397e-02 1.599148e-03 5.327197e-03)	(-1.372316e-06 4.687784e-06 1.807549e-06)
0.329018      	(2.385384e-02 1.596485e-03 5.232674e-03)	(2.385513e-02 1.591784e-03 5.231089e-03)	(-1.293380e-06 4.700513e-06 1.584992e-06)
0.330257      	(2.386403e-02 1.606691e-03 5.308368e-03)	(2.386524e-02 1.601956e-03 5.306675e-03)	(-1.209747e-06 4.735027e-06 1.692946e-06)
0.33166       	(2.388220e-02 1.612998e-03 5.344936e-03)	(2.388349e-02 1.608209e-03 5.342985e-03)	(-1.289546e-06 4.788283e-06 1.950998e-06)
0.333326      	(2.391154e-02 1.619517e-03 5.354848e-03)	(2.391312e-02 1.614673e-03 5.352684e-03)	(-1.581972e-06 4.844187e-06 2.163628e-06)
0.335335      	(2.391063e-02 1.621294e-03 5.325769e-03)	(2.391230e-02 1.616378e-03 5.323489e-03)	(-1.668154e-06 4.916276e-06 2.280027e-06)
0.337622      	(2.393442e-02 1.627285e-03 5.343681e-03)	(2.393631e-02 1.622290e-03 5.341376e-03)	(-1.882731e-06 4.994912e-06 2.304988e-06)
0.340328      	(2.392748e-02 1.631662e-03 5.345857e-03)	(2.392950e-02 1.626578e-03 5.343086e-03)	(-2.019789e-06 5.084740e-06 2.771500e-06)
0.343398      	(2.391775e-02 1.641305e-03 5.378808e-03)	(2.391938e-02 1.636101e-03 5.376626e-03)	(-1.635579e-06 5.203985e-06 2.182364e-06)
0.344822      	(2.394807e-02 1.636877e-03 5.374069e-03)	(2.394988e-02 1.631623e-03 5.371850e-03)	(-1.803644e-06 5.253947e-06 2.219680e-06)
0.346527      	(2.391433e-02 1.643167e-03 5.344999e-03)	(2.391671e-02 1.637883e-03 5.343129e-03)	(-2.383546e-06 5.283784e-06 1.870004e-06)
0.348446      	(2.390120e-02 1.637323e-03 5.274390e-03)	(2.390394e-02 1.631957e-03 5.272285e-03)	(-2.736497e-06 5.366077e-06 2.105232e-06)
0.350611      	(2.389442e-02 1.641073e-03 5.264473e-03)	(2.389717e-02 1.635624e-03 5.261993e-03)	(-2.747324e-06 5.449349e-06 2.479290e-06)
0.353101      	(2.394191e-02 1.646964e-03 5.318713e-03)	(2.394478e-02 1.641392e-03 5.316439e-03)	(-2.870197e-06 5.572272e-06 2.274133e-06)
0.355261      	(2.394199e-02 1.655735e-03 5.340556e-03)	(2.394482e-02 1.650084e-03 5.337740e-03)	(-2.824332e-06 5.651778e-06 2.815775e-06)
0.357714      	(2.390992e-02 1.664464e-03 5.408226e-03)	(2.391260e-02 1.658734e-03 5.405574e-03)	(-2.675322e-06 5.729719e-06 2.651581e-06)
0.359295      	(2.396693e-02 1.670614e-03 5.469491e-03)	(2.396950e-02 1.664856e-03 5.467169e-03)	(-2.566459e-06 5.757772e-06 2.321823e-06)