# k  POINT_DATA 48208
# x  y  z  k
0 -3.17067e-08 0.049924 5.16066e-06
0 0.000624967 0.049924 5.16114e-06
0 -0.000625031 0.0499246 5.15717e-06
8.27181e-25 0.00124997 0.049924 5.16185e-06
0 -0.00125003 0.0499252 5.14984e-06
1.29247e-25 0.00185145 0.049924 5.16318e-06
-2.58494e-26 0.00187498 0.049924 5.16323e-06
-1.80946e-25 0.00190585 0.049924 5.1633e-06
8.27181e-25 -0.00187503 0.0499258 5.1407e-06
-4.1359e-25 0.00249999 0.049924 5.16471e-06
8.27181e-25 -0.00250003 0.0499264 5.13131e-06
0 0.00187498 0.0499806 6.87287e-06
-4.1359e-25 0.00312499 0.049924 5.16616e-06
-8.27181e-25 -0.00312503 0.049927 5.12281e-06
-4.1359e-25 0.00375 0.049924 5.16742e-06
-8.27181e-25 -0.00375003 0.0499276 5.11481e-06
-8.27181e-25 0.004375 0.049924 5.16862e-06
-8.27181e-25 -0.00437504 0.0499282 5.1076e-06
0 0.000312471 0.0501277 5.16115e-06
-5.42101e-20 -0.000312444 0.050128 5.16016e-06
2.71051e-20 0.000937474 0.0501277 5.16112e-06
-2.71051e-20 -0.000937448 0.0501285 5.15418e-06
-2.71051e-20 0.00156248 0.0501277 5.16258e-06
5.42101e-20 -0.00156244 0.050129 5.1455e-06
0 0.005 0.049924 5.16966e-06
0 0.00218749 0.0501277 5.16388e-06
-5.42101e-20 -0.00218744 0.0501295 5.1359e-06
0 -0.00500005 0.0499288 5.10186e-06
0 0.00281249 0.0501277 5.16555e-06
0 -0.00281245 0.05013 5.12671e-06
0 0.005625 0.049924 5.17057e-06
-8.27181e-25 -0.00562507 0.0499294 5.09588e-06
2.71051e-20 0.0034375 0.0501277 5.16678e-06
2.71051e-20 -0.00343745 0.0501305 5.11891e-06
0 0.0040625 0.0501277 5.16807e-06
2.71051e-20 -0.00406245 0.0501309 5.11071e-06
0 0.00625 0.049924 5.17131e-06
0 -0.00625008 0.04993 5.08962e-06
9.11905e-21 3.39203e-08 0.0503317 1.75525e-05
-1.57392e-21 0.000624993 0.0503316 1.75267e-05
-2.5789e-20 -0.00062492 0.050332 1.75691e-05
-2.71051e-20 0.0046875 0.0501277 5.16916e-06
1.3249e-20 0.00124999 0.0503315 1.75022e-05
1.09118e-20 -0.00124991 0.0503324 1.75704e-05
2.71051e-20 -0.00468747 0.0501314 5.10449e-06
2.45079e-20 0.00187499 0.0503315 1.74806e-05
1.20607e-20 -0.00187491 0.0503328 1.75644e-05
1.56651e-20 0.00249999 0.0503315 1.74589e-05
8.27181e-25 0.006875 0.049924 5.17188e-06
-1.07914e-20 -0.00249991 0.0503332 1.75566e-05
8.27181e-25 -0.00687508 0.0499306 5.08345e-06
-2.71051e-20 0.0053125 0.0501277 5.17015e-06
2.71051e-20 -0.00531248 0.0501319 5.09922e-06
1.13913e-20 0.003125 0.0503315 1.74382e-05
2.06497e-20 -0.00312491 0.0503336 1.75487e-05
-9.68959e-21 0.00375 0.0503315 1.74169e-05
-2.2611e-21 -0.00374992 0.050334 1.75414e-05
-2.71051e-20 0.0059375 0.0501277 5.17098e-06
2.71051e-20 -0.00593748 0.0501324 5.09253e-06
0 0.0075 0.049924 5.1723e-06
0 -0.00750009 0.0499312 5.07662e-06
3.53072e-20 0.004375 0.0503315 1.73959e-05
-3.55671e-20 -0.00437492 0.0503343 1.75364e-05
0 0.0065625 0.0501277 5.17163e-06
-2.71051e-20 0.000312531 0.0505591 3.02079e-05
5.42101e-20 -0.000312425 0.0505593 3.0259e-05
-2.71051e-20 -0.00656249 0.0501329 5.08671e-06
-5.16988e-25 0.00802206 0.049924 5.17249e-06
0 0.000937506 0.050559 3.01509e-05
0 -0.000937385 0.0505595 3.02803e-05
-7.59683e-21 0.005 0.0503315 1.73747e-05
1.03398e-25 0.008125 0.049924 5.17253e-06
1.56139e-20 -0.00499993 0.0503347 1.75375e-05
0 0.00156249 0.050559 3.01098e-05
8.13152e-20 -0.00156238 0.0505598 3.02792e-05
-8.27181e-25 -0.00812509 0.0499318 5.06959e-06
0 0.00218749 0.050559 3.00604e-05
-2.71051e-20 -0.00218738 0.0505601 3.02749e-05
0 0.0028125 0.050559 3.00189e-05
0 -0.00281238 0.0505604 3.02666e-05
-2.71051e-20 0.0071875 0.0501277 5.17213e-06
-2.0499e-20 0.005625 0.0503315 1.73536e-05
-2.71051e-20 -0.00718749 0.0501334 5.08018e-06
-1.88758e-20 -0.00562494 0.0503351 1.75381e-05
0 0.0034375 0.050559 2.99737e-05
-2.71051e-20 -0.00343739 0.0505607 3.02607e-05
-2.06795e-25 0.00875 0.049924 5.17259e-06
0 -0.00875009 0.0499324 5.06235e-06
-1.25845e-20 0.00625 0.0503315 1.73324e-05
0 0.0040625 0.050559 2.99303e-05
-2.70563e-20 -0.00624994 0.0503355 1.75395e-05
0 -0.0040624 0.050561 3.02535e-05
0 0.0078125 0.0501277 5.17246e-06
-2.71051e-20 -0.00781249 0.0501339 5.07306e-06
2.71051e-20 0.0046875 0.050559 2.98862e-05
2.71051e-20 -0.0046874 0.0505613 3.0258e-05
2.38642e-20 5.18284e-08 0.0507872 0.000134296
1.57471e-20 0.000625017 0.0507871 0.000134077
-4.66013e-22 -0.000624911 0.0507873 0.000134466
0 0.009375 0.049924 5.17246e-06
5.42589e-21 0.006875 0.0503315 1.73109e-05
8.5272e-22 0.00125 0.0507871 0.000133894
2.35056e-20 -0.00124989 0.0507875 0.000134543
3.19267e-20 -0.00687495 0.0503359 1.75419e-05
0 -0.00937509 0.049933 5.05521e-06
-1.86827e-20 0.00187499 0.050787 0.000133701
-2.3444e-20 -0.00187488 0.0507877 0.000134558
-5.42101e-20 0.0084375 0.0501277 5.1726e-06
0 0.0053125 0.050559 2.98426e-05
0 -0.0084375 0.0501343 5.06612e-06
2.71051e-20 -0.00531241 0.0505616 3.02697e-05
8.60681e-21 0.0025 0.050787 0.000133511
2.33416e-20 -0.00249988 0.050788 0.000134559
5.16988e-26 0.008125 0.0502191 1.39329e-05
1.48184e-20 0.003125 0.050787 0.000133326
-8.92218e-21 -0.00312489 0.0507882 0.000134546
-1.6483e-20 0.0075 0.0503315 1.72894e-05
2.04065e-21 -0.00749995 0.0503363 1.7543e-05
2.71051e-20 0.0059375 0.050559 2.97989e-05
0 -0.00593742 0.0505619 3.02728e-05
0 0.01 0.049924 5.17215e-06
-8.27181e-25 -0.0100001 0.0499336 5.04818e-06
-1.99943e-20 0.00375 0.050787 0.000133138
-9.3703e-21 -0.0037499 0.0507884 0.000134553
-2.71051e-20 0.0090625 0.0501277 5.17257e-06
0 -0.00906249 0.0501348 5.05857e-06
1.30474e-20 0.004375 0.050787 0.000132953
9.96339e-21 -0.0043749 0.0507886 0.000134589
-3.51257e-21 0.008125 0.0503315 1.72676e-05
0 0.0065625 0.050559 2.9755e-05
0 -0.00656242 0.0505622 3.02876e-05
0 0.0103557 0.049924 5.17187e-06
-1.56378e-20 -0.00812495 0.0503366 1.75433e-05
-2.41254e-20 0.005 0.050787 0.000132768
2.58494e-26 0.00842979 0.0503315 1.7257e-05
-2.06795e-25 -0.00499991 0.0507888 0.000134648
2.06795e-25 0.010625 0.049924 5.17166e-06
-2.71051e-20 0.00031254 0.0510487 0.000241709
2.71051e-20 -0.000312437 0.0510488 0.000242123
0 -0.0106251 0.0499342 5.04109e-06
2.71051e-20 0.0096875 0.0501277 5.17236e-06
2.71051e-20 0.000937508 0.0510487 0.000241348
0 -0.000937409 0.051049 0.000242347
0 -0.0096875 0.0501353 5.05185e-06
-5.42101e-20 0.0071875 0.050559 2.97111e-05
-2.71051e-20 -0.00718742 0.0505624 3.02955e-05
0 0.0015625 0.0510487 0.000241051
0 -0.0015624 0.0510491 0.000242412
0 0.00875 0.0503315 1.72458e-05
2.21548e-20 -0.00874995 0.050337 1.7545e-05
0 0.0021875 0.0510486 0.000240689
0 -0.00218739 0.0510493 0.000242428
3.16671e-20 0.005625 0.050787 0.000132583
-1.66398e-20 -0.00562491 0.050789 0.000134706
0 0.0028125 0.0510486 0.000240365
2.71051e-20 -0.0028124 0.0510494 0.000242408
-5.42101e-20 0.0078125 0.050559 2.96669e-05
0 -0.00781242 0.0505627 3.03048e-05
2.71051e-20 0.0034375 0.0510486 0.000240025
5.42101e-20 -0.0034374 0.0510496 0.0002424
2.19409e-20 0.00625 0.050787 0.000132399
2.06795e-25 -0.00624992 0.0507892 0.000134768
4.1359e-25 0.01125 0.049924 5.17101e-06
0 0.0103125 0.0501277 5.17194e-06
2.71051e-20 -0.0103125 0.0501358 5.0445e-06
8.27181e-25 -0.0112501 0.0499348 5.03453e-06
0 0.009375 0.0503315 1.72238e-05
-2.69239e-20 -0.00937495 0.0503374 1.75491e-05
0 0.0040625 0.0510486 0.000239695
-5.42101e-20 -0.00406241 0.0510497 0.000242452
-1.59511e-21 0.006875 0.050787 0.000132214
-6.97437e-21 -0.00687492 0.0507894 0.000134833
-2.71051e-20 0.0084375 0.050559 2.96226e-05
-2.71051e-20 -0.00843743 0.050563 3.03146e-05
2.71051e-20 0.0046875 0.0510486 0.000239361
-2.71051e-20 -0.00468742 0.0510498 0.000242554
2.71051e-20 0.0109375 0.0501277 5.17137e-06
-2.95347e-20 3.58407e-08 0.051311 0.0003085
2.77223e-20 0.000625016 0.051311 0.000308116
-1.84552e-20 -0.000624943 0.0513111 0.000308861
0 0.01 0.0503315 1.72016e-05
0 -0.0109375 0.0501363 5.03768e-06
4.1359e-25 0.011875 0.049924 5.1702e-06
-1.45799e-20 -0.00999995 0.0503378 1.75532e-05
0 0.0053125 0.0510486 0.000239032
5.42101e-20 -0.00531242 0.05105 0.00024268
-1.12457e-20 0.00125 0.051311 0.000307779
8.58872e-21 -0.00124993 0.0513112 0.000309106
-8.27181e-25 -0.0118751 0.0499354 5.02722e-06
1.57686e-21 0.0075 0.050787 0.00013203
2.94977e-20 -0.00749992 0.0507896 0.000134894
-1.23888e-20 0.001875 0.0513109 0.000307433
-2.73396e-20 -0.00187492 0.0513113 0.000309267
2.71051e-20 0.0090625 0.050559 2.95784e-05
5.42101e-20 -0.00906243 0.0505633 3.03265e-05
1.02982e-20 0.0025 0.0513109 0.000307087
1.30919e-20 -0.00249992 0.0513114 0.000309384
0 0.0103482 0.0503315 1.71891e-05
0 0.0059375 0.0510486 0.000238702
-2.71051e-20 -0.00593743 0.0510501 0.00024278
1.95797e-20 0.003125 0.0513109 0.000306745
-2.60205e-20 -0.00312493 0.0513115 0.000309487
4.84648e-21 0.008125 0.050787 0.000131844
-3.865e-21 -0.00812492 0.0507898 0.000134956
-2.06795e-25 0.0123908 0.049924 5.16938e-06
0 0.010625 0.0503315 1.71792e-05
2.71051e-20 0.0115625 0.0501277 5.17065e-06
-3.2296e-20 -0.010625 0.0503382 1.7558e-05
-1.2996e-21 0.00375 0.0513109 0.000306403
1.08741e-20 -0.00374993 0.0513115 0.000309601
5.42101e-20 -0.0115625 0.0501368 5.03138e-06
-1.03398e-25 0.0125 0.049924 5.16921e-06
2.71051e-20 0.0065625 0.0510486 0.000238372
0 -0.00656243 0.0510503 0.000242921
0 -0.0125001 0.049936 5.01927e-06
-2.71051e-20 0.0096875 0.050559 2.95339e-05
-2.71051e-20 -0.00968742 0.0505636 3.03452e-05
3.10193e-25 0.0126216 0.049924 5.16898e-06
-1.27472e-20 0.004375 0.0513109 0.000306063
3.77086e-21 -0.00437494 0.0513116 0.000309748
-6.46235e-27 0.00862684 0.050787 0.000131695
6.46235e-27 0.00875 0.050787 0.000131659
-1.55924e-22 -0.00874992 0.0507901 0.000135037
-2.71051e-20 0.0071875 0.0510486 0.000238042
0 -0.00718743 0.0510504 0.000243023
-1.33652e-20 0.005 0.0513109 0.000305721
0 -0.00499994 0.0513117 0.000309911
1.21006e-21 0.01125 0.0503315 1.71569e-05
-2.47335e-20 -0.01125 0.0503386 1.75659e-05
-2.71051e-20 0.0121875 0.0501277 5.16974e-06
0 -0.0121875 0.0501373 5.02305e-06
0 0.0103125 0.050559 2.94892e-05
2.71051e-20 0.000312518 0.051601 0.000376813
2.71051e-20 -0.000312458 0.051601 0.000377236
2.71051e-20 -0.0103124 0.0505639 3.03577e-05
2.71051e-20 0.000937501 0.051601 0.000376464
0 -0.000937451 0.0516011 0.000377618
1.10858e-21 0.005625 0.0513109 0.000305378
-2.93395e-20 -0.00562494 0.0513118 0.000310063
-4.1359e-25 0.013125 0.049924 5.16805e-06
-5.42101e-20 0.0015625 0.051601 0.000376115
0 -0.00156244 0.0516011 0.000377931
0 -0.0131251 0.0499366 5.01125e-06
0 0.0078125 0.0510486 0.000237712
0 -0.00781242 0.0510505 0.000243149
0 0.009375 0.050787 0.000131474
2.71051e-20 0.0021875 0.0516009 0.000375759
0 -0.00218744 0.0516012 0.000378191
-2.69146e-20 -0.00937492 0.0507903 0.000135125
-2.71051e-20 0.0028125 0.0516009 0.000375413
2.71051e-20 -0.00281244 0.0516013 0.000378411
0 0.0125 0.0501437 1.16088e-05
-2.06963e-20 0.00625 0.0513109 0.000305035
-9.89205e-22 -0.00624994 0.0513119 0.000310215
-2.11855e-20 0.011875 0.0503315 1.71345e-05
-2.71051e-20 0.0034375 0.0516009 0.000375056
2.71051e-20 -0.00343745 0.0516013 0.000378637
-2.01964e-20 -0.011875 0.050339 1.75709e-05
0 0.0109375 0.050559 2.94444e-05
0 -0.0109374 0.0505641 3.03783e-05
-5.42101e-20 0.0128125 0.0501277 5.16869e-06
2.71051e-20 0.0084375 0.0510486 0.000237379
-2.71051e-20 -0.00843743 0.0510507 0.000243262
0 -0.0128125 0.0501378 5.01549e-06
0 0.0040625 0.0516009 0.000374712
0 -0.00406246 0.0516014 0.000378852
6.46235e-27 0.01 0.050787 0.000131287
-3.8253e-21 -0.00999992 0.0507905 0.000135207
1.87292e-20 0.006875 0.0513109 0.000304692
0 -0.00687495 0.051312 0.000310375
0 0.01375 0.049924 5.16664e-06
0 -0.0137501 0.0499372 5.00288e-06
0 0.0102442 0.050787 0.000131215
0 0.0046875 0.0516009 0.000374362
2.71051e-20 -0.00468745 0.0516014 0.000379072
2.71051e-20 0.0090625 0.0510486 0.000237049
-2.71051e-20 -0.00906243 0.0510508 0.000243429
3.84499e-20 0.0075 0.0513109 0.000304349
4.23635e-20 -0.00749995 0.0513121 0.000310543
1.72154e-20 0.0125 0.0503315 1.71122e-05
-5.42101e-20 0.0115625 0.050559 2.94001e-05
-7.00126e-21 -0.0124999 0.0503393 1.75732e-05
2.71051e-20 -0.0115624 0.0505644 3.04034e-05
-2.71051e-20 0.0053125 0.0516009 0.000374005
0 -0.00531246 0.0516015 0.000379279
-3.45331e-20 0.010625 0.050787 0.000131101
-1.8934e-20 -0.0106249 0.0507907 0.000135295
-6.92118e-22 1.49272e-08 0.0518914 0.000365047
-4.14252e-21 -0.000624977 0.0518914 0.000365398
1.04753e-20 0.000625007 0.0518914 0.000364716
-2.71051e-20 0.0134375 0.0501277 5.16741e-06
-2.05803e-20 0.00125 0.0518914 0.000364412
2.68287e-20 -0.00124997 0.0518915 0.000365712
-2.71051e-20 -0.0134375 0.0501382 5.00701e-06
2.52478e-20 0.001875 0.0518914 0.000364104
2.35407e-20 -0.00187497 0.0518915 0.000365979
0 0.0059375 0.0516009 0.000373648
0 -0.00593745 0.0516015 0.000379459
-8.65873e-21 0.008125 0.0513109 0.000304006
-2.75083e-20 -0.00812495 0.0513121 0.00031071
1.75566e-20 0.0025 0.0518914 0.0003638
2.46695e-20 -0.00249997 0.0518915 0.000366208
4.1359e-25 0.014375 0.049924 5.16502e-06
-2.71051e-20 0.0096875 0.0510486 0.000236718
-5.42101e-20 -0.00968743 0.051051 0.000243594
-8.27181e-25 -0.0143751 0.0499378 4.99494e-06
-7.43441e-21 0.003125 0.0518914 0.000363494
-1.81117e-20 -0.00312497 0.0518916 0.000366422
0 0.0121875 0.050559 2.93555e-05
-3.23117e-27 0.00875 0.0512677 0.000289463
2.71051e-20 -0.0121874 0.0505647 3.04132e-05
9.20125e-21 0.013125 0.0503315 1.70898e-05
2.71051e-20 0.0065625 0.0516009 0.000373291
2.71051e-20 -0.00656246 0.0516016 0.000379647
-2.22408e-20 0.01125 0.050787 0.000130915
1.1344e-20 -0.0112499 0.0507909 0.0001354
4.40515e-21 -0.0131249 0.0503397 1.75779e-05
-5.20946e-21 0.00375 0.0518914 0.000363188
1.38624e-21 -0.00374997 0.0518916 0.000366631
0 0.00875 0.0513109 0.000303662
-9.27647e-21 -0.00874995 0.0513122 0.000310899
2.71051e-20 0.0140625 0.0501277 5.16586e-06
4.03897e-28 0.00885848 0.0513109 0.000303603
0 -0.0140625 0.0501387 4.99875e-06
-1.69694e-20 0.004375 0.0518914 0.000362885
-7.91758e-21 -0.00437497 0.0518916 0.000366832
2.71051e-20 0.0103125 0.0510486 0.000236384
-2.71051e-20 -0.0103124 0.0510511 0.000243731
0 0.0071875 0.0516009 0.000372936
0 -0.00718747 0.0516017 0.000379859
0 0.015 0.049924 5.16326e-06
-3.54796e-20 0.005 0.0518914 0.000362575
-1.29247e-26 -0.00499998 0.0518916 0.000367024
0 -0.0150001 0.0499384 4.98678e-06
-1.0197e-20 0.011875 0.050787 0.00013073
2.71051e-20 0.0128125 0.050559 2.93117e-05
0 0.009375 0.0513109 0.000303319
-2.47697e-20 -0.0118749 0.0507911 0.000135496
8.96684e-21 -0.00937495 0.0513123 0.000311106
0 -0.0128124 0.050565 3.04315e-05
-9.19618e-22 0.01375 0.0503315 1.70665e-05
3.28585e-20 -0.0137499 0.0503401 1.75812e-05
2.71051e-20 0.0078125 0.0516009 0.00037258
0 -0.00781246 0.0516017 0.000380088
-1.47275e-20 0.005625 0.0518914 0.000362262
-9.62068e-21 -0.00562498 0.0518917 0.000367195
-2.71051e-20 -0.000312488 0.052197 0.000353027
0 0.000312507 0.052197 0.000352728
-2.71051e-20 0.000937507 0.052197 0.000352476
0 -0.000937479 0.052197 0.000353324
2.71051e-20 0.0109375 0.0510486 0.00023605
2.71051e-20 -0.0109374 0.0510512 0.000243923
5.42101e-20 0.0015625 0.052197 0.000352213
0 -0.00156248 0.0521971 0.000353588
-2.71051e-20 0.0146875 0.0501277 5.16417e-06
-2.71051e-20 0.0021875 0.052197 0.000351952
2.71051e-20 -0.00218748 0.0521971 0.000353817
2.71051e-20 -0.0146875 0.0501392 4.99112e-06
4.34432e-20 0.00625 0.0518914 0.000361948
1.40182e-20 -0.00624998 0.0518917 0.000367355
2.71051e-20 0.0028125 0.052197 0.000351698
-2.71051e-20 -0.00281248 0.0521971 0.000354021
-2.01948e-28 0.01 0.0513109 0.000302976
1.06381e-21 -0.00999995 0.0513124 0.000311303
0 0.0100497 0.0513109 0.000302949
0 0.0084375 0.0516009 0.000372224
0 -0.00843746 0.0516017 0.000380311
0 0.0125 0.050787 0.000130547
3.11268e-21 -0.0124999 0.0507913 0.000135583
-2.71051e-20 0.0034375 0.052197 0.000351433
2.71051e-20 -0.00343748 0.0521971 0.000354228
-8.27181e-25 0.015625 0.049924 5.16134e-06
5.42101e-20 0.0134375 0.050559 2.92671e-05
0 -0.0134374 0.0505653 3.04487e-05
0 -0.0156251 0.049939 4.97774e-06
0 0.0115625 0.0510486 0.000235721
-1.23573e-20 0.014375 0.0503315 1.70428e-05
0 -0.0115624 0.0510514 0.000244114
-4.31459e-21 0.006875 0.0518914 0.000361635
1.16419e-21 -0.00687498 0.0518917 0.000367528
-7.25437e-22 -0.0143749 0.0503405 1.75856e-05
0 0.0040625 0.052197 0.000351176
0 -0.00406248 0.0521971 0.000354415
-2.71051e-20 0.0090625 0.0516009 0.000371868
2.71051e-20 -0.00906246 0.0516018 0.000380565
1.77147e-20 0.010625 0.0513109 0.000302633
1.21676e-20 -0.0106249 0.0513125 0.000311508
5.42101e-20 0.0046875 0.052197 0.000350917
-2.71051e-20 -0.00468748 0.0521971 0.000354595
2.71051e-20 0.0153125 0.0501277 5.16234e-06
2.71051e-20 -0.0153125 0.0501397 4.98243e-06
3.07758e-21 0.0075 0.0518914 0.000361322
4.66699e-21 -0.00749998 0.0518918 0.000367721
1.46242e-20 0.013125 0.050787 0.000130365
1.70062e-20 -0.0131249 0.0507915 0.000135673
0 0.0053125 0.052197 0.000350647
0 -0.00531248 0.0521972 0.000354757
2.71051e-20 0.0140625 0.050559 2.92205e-05
-2.71051e-20 0.0121875 0.0510486 0.000235389
0 -0.0140624 0.0505656 3.04612e-05
2.71051e-20 -0.0121874 0.0510515 0.000244282
8.27181e-25 0.01625 0.049924 5.15925e-06
-2.71051e-20 0.0096875 0.0516009 0.000371513
2.01518e-20 3.6118e-09 0.0525028 0.000340262
-2.71051e-20 -0.00968747 0.0516019 0.000380812
-1.95267e-20 -0.000624995 0.0525028 0.000340481
1.95619e-20 0.000625002 0.0525028 0.00034006
8.27181e-25 -0.01625 0.0499396 4.96771e-06
-2.17644e-20 -0.00124999 0.0525028 0.000340688
3.15052e-21 0.00125 0.0525028 0.000339867
-1.3915e-20 0.015 0.0503315 1.70195e-05
1.99712e-21 0.008125 0.0518914 0.000361009
3.79585e-22 -0.00812498 0.0518918 0.00036792
2.33306e-21 -0.0149999 0.0503409 1.75901e-05
0 0.01 0.0515681 0.000328277
4.1433e-21 0.01125 0.0513109 0.00030229
-2.12662e-20 -0.0112499 0.0513126 0.000311736
-5.42101e-20 0.0059375 0.052197 0.000350378
2.71051e-20 -0.00593749 0.0521972 0.000354893
8.93092e-21 -0.00187499 0.0525028 0.000340872
6.97518e-22 0.001875 0.0525028 0.000339669
6.63466e-21 -0.00249999 0.0525028 0.000341034
1.68202e-20 0.0025 0.0525028 0.000339476
2.26288e-21 -0.00312499 0.0525028 0.000341186
-3.81974e-21 0.003125 0.0525028 0.00033928
2.71051e-20 0.0159375 0.0501277 5.16034e-06
0 0.0065625 0.052197 0.000350108
2.71051e-20 -0.00656248 0.0521972 0.000355024
0 -0.0159374 0.0501402 4.97304e-06
-3.83016e-20 0.01375 0.050787 0.000130176
2.37171e-20 -0.0137499 0.0507917 0.000135749
2.71051e-20 0.0103125 0.0516009 0.000371161
0 -0.0103125 0.0516019 0.000381052
-8.07794e-28 0.00875 0.0518914 0.000360697
-1.50569e-20 -0.00874998 0.0518918 0.000368129
2.71051e-20 0.0128125 0.0510486 0.000235066
-2.71051e-20 -0.0128124 0.0510516 0.000244444
-8.44968e-21 -0.00374999 0.0525028 0.000341331
2.39742e-21 0.00375 0.0525028 0.000339083
-2.71051e-20 0.0146875 0.050559 2.91747e-05
0 -0.0146874 0.0505658 3.04827e-05
5.14471e-21 0.011875 0.0513109 0.000301949
6.91208e-21 -0.0118749 0.0513127 0.000311966
3.31363e-20 -0.00437499 0.0525028 0.000341466
-2.33103e-20 0.004375 0.0525028 0.000338888
5.42101e-20 0.0071875 0.052197 0.000349839
2.71051e-20 -0.00718748 0.0521972 0.000355184
0 0.016875 0.049924 5.15699e-06
-4.05711e-21 0.015625 0.0503315 1.69962e-05
-1.75114e-20 -0.0156249 0.0503413 1.75925e-05
0 -0.016875 0.0499402 4.95752e-06
0 0.00932597 0.0518914 0.000360409
0 0.009375 0.0518914 0.000360385
-5.81114e-21 -0.00937498 0.0518918 0.000368346
-8.08397e-21 -0.00499999 0.0525028 0.00034159
-3.41884e-20 0.005 0.0525028 0.000338688
-5.04871e-29 0.00945271 0.0518914 0.000360346
-5.42101e-20 0.0109375 0.0516009 0.000370805
0 -0.0109375 0.051602 0.000381304
2.71051e-20 0.0078125 0.052197 0.000349569
0 -0.00781249 0.0521972 0.000355355
-1.82249e-21 0.014375 0.050787 0.000129984
4.91842e-21 -0.0143749 0.0507919 0.000135827
-2.71051e-20 0.0134375 0.0510486 0.00023474
2.71051e-20 -0.0134374 0.0510518 0.000244606
0 0.0165625 0.0501277 5.15816e-06
-3.23117e-27 -0.00562499 0.0525028 0.000341695
-2.80914e-20 0.005625 0.0525028 0.000338485
0 -0.0165624 0.0501407 4.96238e-06
1.49441e-20 0.0125 0.0513109 0.000301611
-1.0819e-21 -0.0124999 0.0513127 0.000312177
2.71051e-20 -0.000312498 0.052814 0.000327644
0 0.000312501 0.052814 0.000327507
0 0.000937501 0.052814 0.000327386
2.71051e-20 -0.000937496 0.052814 0.000327784
0 0.0153125 0.050559 2.91296e-05
2.71051e-20 -0.0153124 0.0505661 3.04962e-05
2.71051e-20 0.0015625 0.052814 0.000327252
2.71051e-20 -0.00156249 0.052814 0.000327912
-1.20835e-20 0.01 0.0518914 0.000360073
1.07204e-20 -0.00999998 0.0518919 0.000368555
0 0.0021875 0.052814 0.000327121
-2.71051e-20 -0.00218749 0.052814 0.000328024
-1.13476e-20 0.00625 0.0525028 0.000338282
0 -0.00624999 0.0525029 0.000341784
-2.71051e-20 0.0084375 0.052197 0.0003493
-2.71051e-20 -0.00843749 0.0521972 0.000355529
-2.71051e-20 0.0115625 0.0516009 0.000370452
0 -0.0115625 0.051602 0.000381579
0 0.0028125 0.052814 0.000326993
-2.71051e-20 -0.00281249 0.052814 0.000328125
9.60977e-21 0.01625 0.0503315 1.69728e-05
1.9715e-20 -0.0162499 0.0503416 1.75924e-05
-8.27181e-25 0.0175 0.049924 5.15458e-06
0 -0.0175001 0.0499408 4.94809e-06
-2.71051e-20 0.0034375 0.052814 0.000326859
-2.71051e-20 -0.0034375 0.052814 0.000328222
2.71051e-20 0.0140625 0.0510486 0.000234394
-2.57954e-20 0.006875 0.0525028 0.000338079
5.72229e-21 -0.00687499 0.0525029 0.00034188
0 -0.0140624 0.0510519 0.00024473
2.0965e-20 0.015 0.050787 0.000129796
1.20739e-20 -0.0149999 0.0507921 0.000135904
-2.68868e-20 0.013125 0.0513109 0.000301277
8.74309e-21 -0.0131249 0.0513128 0.000312391
-7.27499e-21 0.010625 0.0518914 0.000359762
3.54718e-20 -0.010625 0.0518919 0.000368766
0 0.0040625 0.052814 0.000326727
0 -0.00406249 0.052814 0.000328311
-2.71051e-20 0.0090625 0.052197 0.000349032
2.71051e-20 -0.00906248 0.0521973 0.000355712
2.71051e-20 0.0171875 0.0501277 5.15581e-06
-2.52435e-29 0.009375 0.0521572 0.00035033
0 -0.0171874 0.0501412 4.95265e-06
0 0.0159375 0.050559 2.90843e-05
2.71051e-20 -0.0159374 0.0505664 3.05104e-05
0 0.0121875 0.0516009 0.000370102
2.71051e-20 0.0046875 0.052814 0.000326595
2.71051e-20 -0.0046875 0.052814 0.000328394
2.71051e-20 -0.0121875 0.0516021 0.000381864
-1.62539e-20 0.0075 0.0525028 0.000337874
-3.21395e-21 -0.00749999 0.0525029 0.000341992
2.71051e-20 0.0053125 0.052814 0.000326459
-2.71051e-20 -0.0053125 0.052814 0.000328462
-1.19275e-20 0.016875 0.0503315 1.69493e-05
-2.71051e-20 0.0096875 0.052197 0.000348763
2.71051e-20 -0.00968748 0.0521973 0.000355893
3.06408e-20 -0.0168749 0.050342 1.75938e-05
6.59456e-21 0.01125 0.0518914 0.00035945
3.26626e-20 -0.01125 0.0518919 0.000368994
0 0.018125 0.049924 5.152e-06
-2.71051e-20 0.0146875 0.0510486 0.000234055
1.81866e-21 0.01375 0.0513109 0.000300931
0 -0.0146874 0.051052 0.000244892
-6.64433e-21 -0.0137499 0.0513129 0.000312588
-1.13052e-20 3.84931e-10 0.0531252 0.000340732
1.61392e-20 0.008125 0.0525028 0.00033767
-2.18337e-20 -0.00812499 0.0525029 0.00034211
-8.27181e-25 -0.0181251 0.0499414 4.93817e-06
3.21963e-20 -0.000624999 0.0531252 0.000340803
-2.86776e-21 0.000625 0.0531252 0.000340665
3.89476e-20 0.015625 0.050787 0.00012961
-4.39327e-21 -0.00125 0.0531252 0.00034087
9.21964e-21 0.00125 0.0531252 0.000340596
8.96829e-21 -0.0156249 0.0507923 0.000135977
1.00974e-28 0.0114599 0.0518914 0.000359346
-2.71051e-20 0.0059375 0.052814 0.000326323
-5.42101e-20 -0.00593749 0.052814 0.000328514
2.04798e-20 -0.001875 0.0531252 0.000340928
1.36633e-20 0.001875 0.0531252 0.000340522
-5.42101e-20 0.0128125 0.0516009 0.000369757
0 -0.0128125 0.0516021 0.000382118
-2.57298e-20 -0.0025 0.0531252 0.000340977
-3.84817e-21 0.0025 0.0531252 0.00034045
0 0.0178125 0.0501277 5.15335e-06
0 0.0165625 0.050559 2.90391e-05
2.71051e-20 0.0103125 0.052197 0.000348496
5.42101e-20 -0.0103125 0.0521973 0.000356064
-2.01948e-28 0.011875 0.0518669 0.000356727
2.71051e-20 -0.0165624 0.0505667 3.05201e-05
-2.71051e-20 -0.0178125 0.0501417 4.94352e-06
2.04414e-20 -0.003125 0.0531252 0.00034102
-1.77914e-20 0.003125 0.0531252 0.000340375
2.71051e-20 0.0065625 0.052814 0.000326186
2.71051e-20 -0.0065625 0.052814 0.000328554
4.12713e-20 0.00875 0.0525028 0.000337466
-9.61704e-21 -0.00874999 0.0525029 0.000342232
2.01948e-28 0.011875 0.0518914 0.000359141
6.07582e-21 -0.011875 0.0518919 0.000369239
-1.62909e-20 -0.00375 0.0531252 0.000341057
-6.34095e-21 0.00375 0.0531252 0.000340298
0 0.0120147 0.0518914 0.000359072
3.28943e-20 0.014375 0.0513109 0.000300578
-2.43481e-21 0.0175 0.0503315 1.6926e-05
2.14288e-20 -0.0143749 0.051313 0.000312778
0 0.0153125 0.0510486 0.000233722
-4.33993e-20 -0.0174999 0.0503424 1.7598e-05
2.71051e-20 -0.0153124 0.0510522 0.000245009
5.42101e-20 0.0071875 0.052814 0.000326048
0 -0.0071875 0.052814 0.000328608
2.4442e-20 -0.004375 0.0531252 0.000341089
1.46083e-20 0.004375 0.0531252 0.000340221
0 0.0134375 0.0516009 0.000369413
5.42101e-20 -0.0134375 0.0516022 0.000382395
1.5792e-20 0.01625 0.050787 0.000129423
-6.28099e-21 -0.0162499 0.0507925 0.000136054
0 0.01875 0.049924 5.14917e-06
2.71051e-20 0.0109375 0.052197 0.000348227
0 -0.0109375 0.0521973 0.00035624
-9.05521e-22 0.009375 0.0525028 0.000337261
-3.65562e-20 -0.00937499 0.0525029 0.000342357
0 0.01125 0.0521436 0.000350042
8.27181e-25 -0.0187501 0.049942 4.92762e-06
-2.74375e-20 -0.005 0.0531252 0.000341111
-3.07949e-20 0.005 0.0531252 0.000340143
0 0.0125 0.0518914 0.000358835
-7.94753e-22 -0.0125 0.051892 0.000369471
-2.71051e-20 0.0078125 0.052814 0.000325909
2.71051e-20 -0.0078125 0.052814 0.00032867
5.42101e-20 0.0171875 0.050559 2.89941e-05
0 -0.0171874 0.050567 3.05357e-05
-5.42101e-20 0.0184375 0.0501277 5.15065e-06
1.80212e-20 -0.005625 0.0531252 0.000341121
-6.5015e-21 0.005625 0.0531252 0.000340064
0 -0.0184375 0.0501421 4.93282e-06
0 0.0003125 0.0534376 0.000353902
0 -0.0003125 0.0534376 0.000353908
0 -0.0009375 0.0534376 0.000353908
0 0.0009375 0.0534376 0.000353896
-2.09299e-20 0.01 0.0525028 0.000337057
-1.28446e-20 -0.00999999 0.0525029 0.000342477
-9.98867e-21 0.015 0.0513109 0.000300234
0 -0.0015625 0.0534376 0.000353908
0 0.0015625 0.0534376 0.000353882
3.40367e-20 -0.0149999 0.0513131 0.000312979
2.71051e-20 0.0115625 0.052197 0.000347959
0 -0.0115625 0.0521973 0.000356449
0 0.0159375 0.0510486 0.000233389
0 -0.0159374 0.0510523 0.000245163
-2.71051e-20 0.0021875 0.0534376 0.000353868
0 -0.0021875 0.0534376 0.000353901
-2.71051e-20 0.0140625 0.0516009 0.000369045
-2.71051e-20 0.0084375 0.052814 0.00032577
-5.42101e-20 -0.0084375 0.052814 0.000328734
0 -0.0140624 0.0516022 0.000382624
-3.26744e-20 -0.00625 0.0531252 0.000341119
-2.16961e-20 0.00625 0.0531252 0.000339984
-2.85237e-20 0.018125 0.0503315 1.69024e-05
-3.69146e-20 -0.0181249 0.0503428 1.76007e-05
0 -0.0028125 0.0534376 0.000353891
-5.42101e-20 0.0028125 0.0534376 0.000353851
4.38571e-21 0.016875 0.050787 0.000129237
-3.09332e-20 -0.0168749 0.0507927 0.000136128
-2.81054e-20 0.013125 0.0518914 0.000358532
3.67612e-21 -0.013125 0.051892 0.000369703
0 -0.0034375 0.0534376 0.000353874
0 0.0034375 0.0534376 0.000353831
0 0.019375 0.049924 5.14618e-06
1.40736e-21 0.010625 0.0525028 0.000336853
-5.33132e-21 -0.010625 0.0525029 0.000342595
5.65787e-21 -0.006875 0.0531252 0.000341115
2.93534e-20 0.006875 0.0531252 0.000339903
-8.27181e-25 -0.0193751 0.0499426 4.91632e-06
-5.42101e-20 0.0090625 0.052814 0.00032563
0 -0.0090625 0.052814 0.000328801
-2.71051e-20 0.0040625 0.0534376 0.000353808
0 -0.0040625 0.0534376 0.000353855
-1.00974e-28 0.0107672 0.0525028 0.000336806
-2.71051e-20 0.0121875 0.052197 0.000347693
0 -0.0121875 0.0521973 0.000356654
-2.71051e-20 0.0178125 0.050559 2.89497e-05
2.71051e-20 -0.0178124 0.0505673 3.05557e-05
-2.71051e-20 0.0190625 0.0501277 5.14769e-06
-2.27186e-20 0.015625 0.0513109 0.000299892
3.53561e-20 -0.0156249 0.0513132 0.000313181
5.42101e-20 0.0046875 0.0534376 0.000353786
-2.71051e-20 -0.0046875 0.0534376 0.000353829
2.71051e-20 -0.0190625 0.0501426 4.92242e-06
-2.71051e-20 0.0146875 0.0516009 0.000368686
0 -0.0146875 0.0516023 0.000382871
-1.24918e-20 -0.0075 0.0531252 0.000341118
1.55901e-20 0.0075 0.0531252 0.000339819
-2.71051e-20 0.0165625 0.0510486 0.000233057
-2.71051e-20 -0.0165624 0.0510525 0.000245299
2.48947e-20 0.01375 0.0518914 0.000358218
-1.01825e-20 -0.01375 0.051892 0.000369924
0 0.01125 0.0525028 0.000336648
5.17748e-21 -0.01125 0.0525029 0.000342726
5.42101e-20 0.0096875 0.052814 0.00032549
-2.71051e-20 -0.0096875 0.052814 0.000328868
-2.71051e-20 0.0053125 0.0534376 0.000353764
2.71051e-20 -0.0053125 0.0534376 0.000353793
2.06795e-25 0.01875 0.0503315 1.68779e-05
1.0597e-20 0.0175 0.050787 0.000129053
2.14968e-20 -0.0187499 0.0503432 1.76014e-05
1.88825e-20 -0.0174999 0.0507929 0.000136211
-1.52307e-20 -0.008125 0.0531252 0.000341125
-3.03002e-20 0.008125 0.0531252 0.000339735
2.71051e-20 0.0128125 0.052197 0.000347432
-2.71051e-20 -0.0128125 0.0521973 0.00035684
3.41159e-20 -2.04802e-14 0.05375 0.000384248
3.28992e-21 -0.000625 0.05375 0.000384214
3.41243e-20 0.000625 0.05375 0.000384279
-4.65339e-21 0.00125 0.05375 0.000384306
-4.65991e-21 -0.00125 0.05375 0.00038418
-2.71051e-20 -0.0059375 0.0534376 0.000353749
5.42101e-20 0.0059375 0.0534376 0.000353743
-8.27181e-25 0.02 0.049924 5.14306e-06
-1.2821e-20 0.001875 0.05375 0.000384327
-8.74399e-21 -0.001875 0.05375 0.000384144
0 -0.0200001 0.0499432 4.90444e-06
-8.73692e-21 0.0025 0.05375 0.000384346
-1.2829e-20 -0.0025 0.05375 0.000384102
0 0.0103125 0.052814 0.000325351
0 -0.0103125 0.052814 0.000328928
0 0.0184375 0.050559 2.8904e-05
2.49775e-20 0.01625 0.0513109 0.00029955
2.71051e-20 -0.0184374 0.0505675 3.0567e-05
-1.8527e-20 -0.0162499 0.0513133 0.000313383
0 0.0153125 0.0516009 0.000368337
2.71051e-20 -0.0153124 0.0516023 0.000383151
0 0.011875 0.0525028 0.000336444
2.74666e-20 -0.011875 0.0525029 0.000342869
0 0.0065625 0.0534376 0.000353719
0 -0.0065625 0.0534376 0.000353691
3.4126e-20 0.003125 0.05375 0.000384363
-1.2829e-20 -0.003125 0.05375 0.000384052
-2.66481e-21 -0.00875 0.0531252 0.000341132
-3.44056e-21 0.00875 0.0531252 0.00033965
4.97583e-21 0.014375 0.0518914 0.000357899
-9.55381e-22 -0.014375 0.051892 0.000370132
5.42101e-20 0.0196875 0.0501277 5.14466e-06
0 0.0171875 0.0510486 0.000232725
-2.71051e-20 -0.0171874 0.0510526 0.000245444
2.71051e-20 -0.0196875 0.0501431 4.91022e-06
-2.32377e-20 0.00375 0.05375 0.000384378
-1.69132e-20 -0.00375 0.05375 0.000384001
0 0.0134375 0.052197 0.000347171