# kMean  POINT_DATA 48208
# x  y  z  kMean
0 -3.17067e-08 0.049924 5.16064e-06
0 0.000624967 0.049924 5.16108e-06
0 -0.000625031 0.0499246 5.15708e-06
8.27181e-25 0.00124997 0.049924 5.16167e-06
0 -0.00125003 0.0499252 5.14968e-06
1.29247e-25 0.00185145 0.049924 5.16301e-06
-2.58494e-26 0.00187498 0.049924 5.16306e-06
-1.80946e-25 0.00190585 0.049924 5.16314e-06
8.27181e-25 -0.00187503 0.0499258 5.1405e-06
-4.1359e-25 0.00249999 0.049924 5.16462e-06
8.27181e-25 -0.00250003 0.0499264 5.1311e-06
0 0.00187498 0.0499806 6.87273e-06
-4.1359e-25 0.00312499 0.049924 5.16603e-06
-8.27181e-25 -0.00312503 0.049927 5.12266e-06
-4.1359e-25 0.00375 0.049924 5.16729e-06
-8.27181e-25 -0.00375003 0.0499276 5.11465e-06
-8.27181e-25 0.004375 0.049924 5.16847e-06
-8.27181e-25 -0.00437504 0.0499282 5.10748e-06
0 0.000312471 0.0501277 5.16115e-06
-5.42101e-20 -0.000312444 0.050128 5.16014e-06
2.71051e-20 0.000937474 0.0501277 5.16101e-06
-2.71051e-20 -0.000937448 0.0501285 5.15402e-06
-2.71051e-20 0.00156248 0.0501277 5.16233e-06
5.42101e-20 -0.00156244 0.050129 5.14534e-06
0 0.005 0.049924 5.16956e-06
0 0.00218749 0.0501277 5.1638e-06
-5.42101e-20 -0.00218744 0.0501295 5.13566e-06
0 -0.00500005 0.0499288 5.1018e-06
0 0.00281249 0.0501277 5.16543e-06
0 -0.00281245 0.05013 5.12654e-06
0 0.005625 0.049924 5.17052e-06
-8.27181e-25 -0.00562507 0.0499294 5.09585e-06
2.71051e-20 0.0034375 0.0501277 5.16663e-06
2.71051e-20 -0.00343745 0.0501305 5.11876e-06
0 0.0040625 0.0501277 5.16794e-06
2.71051e-20 -0.00406245 0.0501309 5.11054e-06
0 0.00625 0.049924 5.17122e-06
0 -0.00625008 0.04993 5.08957e-06
9.11905e-21 3.39203e-08 0.0503317 1.75526e-05
-1.57392e-21 0.000624993 0.0503316 1.75268e-05
-2.5789e-20 -0.00062492 0.050332 1.75692e-05
-2.71051e-20 0.0046875 0.0501277 5.169e-06
1.3249e-20 0.00124999 0.0503315 1.75023e-05
1.09118e-20 -0.00124991 0.0503324 1.75705e-05
2.71051e-20 -0.00468747 0.0501314 5.10441e-06
2.45079e-20 0.00187499 0.0503315 1.74806e-05
1.20607e-20 -0.00187491 0.0503328 1.75645e-05
1.56651e-20 0.00249999 0.0503315 1.74589e-05
8.27181e-25 0.006875 0.049924 5.17178e-06
-1.07914e-20 -0.00249991 0.0503332 1.75566e-05
8.27181e-25 -0.00687508 0.0499306 5.08334e-06
-2.71051e-20 0.0053125 0.0501277 5.17013e-06
2.71051e-20 -0.00531248 0.0501319 5.09917e-06
1.13913e-20 0.003125 0.0503315 1.74382e-05
2.06497e-20 -0.00312491 0.0503336 1.75487e-05
-9.68959e-21 0.00375 0.0503315 1.74169e-05
-2.2611e-21 -0.00374992 0.050334 1.75415e-05
-2.71051e-20 0.0059375 0.0501277 5.1709e-06
2.71051e-20 -0.00593748 0.0501324 5.09252e-06
0 0.0075 0.049924 5.17216e-06
0 -0.00750009 0.0499312 5.07649e-06
3.53072e-20 0.004375 0.0503315 1.7396e-05
-3.55671e-20 -0.00437492 0.0503343 1.75365e-05
0 0.0065625 0.0501277 5.17154e-06
-2.71051e-20 0.000312531 0.0505591 3.02082e-05
5.42101e-20 -0.000312425 0.0505593 3.02593e-05
-2.71051e-20 -0.00656249 0.0501329 5.08662e-06
-5.16988e-25 0.00802206 0.049924 5.17233e-06
0 0.000937506 0.050559 3.01513e-05
0 -0.000937385 0.0505595 3.02806e-05
-7.59683e-21 0.005 0.0503315 1.73749e-05
1.03398e-25 0.008125 0.049924 5.17237e-06
1.56139e-20 -0.00499993 0.0503347 1.75376e-05
0 0.00156249 0.050559 3.011e-05
8.13152e-20 -0.00156238 0.0505598 3.02794e-05
-8.27181e-25 -0.00812509 0.0499318 5.06952e-06
0 0.00218749 0.050559 3.00607e-05
-2.71051e-20 -0.00218738 0.0505601 3.02751e-05
0 0.0028125 0.050559 3.00191e-05
0 -0.00281238 0.0505604 3.02669e-05
-2.71051e-20 0.0071875 0.0501277 5.17201e-06
-2.0499e-20 0.005625 0.0503315 1.73538e-05
-2.71051e-20 -0.00718749 0.0501334 5.08006e-06
-1.88758e-20 -0.00562494 0.0503351 1.75383e-05
0 0.0034375 0.050559 2.99737e-05
-2.71051e-20 -0.00343739 0.0505607 3.02608e-05
-2.06795e-25 0.00875 0.049924 5.17242e-06
0 -0.00875009 0.0499324 5.06229e-06
-1.25845e-20 0.00625 0.0503315 1.73325e-05
0 0.0040625 0.050559 2.99306e-05
-2.70563e-20 -0.00624994 0.0503355 1.75396e-05
0 -0.0040624 0.050561 3.02538e-05
0 0.0078125 0.0501277 5.17231e-06
-2.71051e-20 -0.00781249 0.0501339 5.07292e-06
2.71051e-20 0.0046875 0.050559 2.98865e-05
2.71051e-20 -0.0046874 0.0505613 3.02582e-05
2.38642e-20 5.18284e-08 0.0507872 0.000134297
1.57471e-20 0.000625017 0.0507871 0.000134078
-4.66013e-22 -0.000624911 0.0507873 0.000134467
0 0.009375 0.049924 5.17235e-06
5.42589e-21 0.006875 0.0503315 1.73111e-05
8.5272e-22 0.00125 0.0507871 0.000133895
2.35056e-20 -0.00124989 0.0507875 0.000134544
3.19267e-20 -0.00687495 0.0503359 1.7542e-05
0 -0.00937509 0.049933 5.05505e-06
-1.86827e-20 0.00187499 0.050787 0.000133703
-2.3444e-20 -0.00187488 0.0507877 0.000134559
-5.42101e-20 0.0084375 0.0501277 5.17243e-06
0 0.0053125 0.050559 2.9843e-05
0 -0.0084375 0.0501343 5.06611e-06
2.71051e-20 -0.00531241 0.0505616 3.027e-05
8.60681e-21 0.0025 0.050787 0.000133512
2.33416e-20 -0.00249988 0.050788 0.00013456
5.16988e-26 0.008125 0.0502191 1.39329e-05
1.48184e-20 0.003125 0.050787 0.000133327
-8.92218e-21 -0.00312489 0.0507882 0.000134547
-1.6483e-20 0.0075 0.0503315 1.72895e-05
2.04065e-21 -0.00749995 0.0503363 1.7543e-05
2.71051e-20 0.0059375 0.050559 2.97993e-05
0 -0.00593742 0.0505619 3.02732e-05
0 0.01 0.049924 5.17208e-06
-8.27181e-25 -0.0100001 0.0499336 5.04804e-06
-1.99943e-20 0.00375 0.050787 0.000133139
-9.3703e-21 -0.0037499 0.0507884 0.000134554
-2.71051e-20 0.0090625 0.0501277 5.17241e-06
0 -0.00906249 0.0501348 5.05846e-06
1.30474e-20 0.004375 0.050787 0.000132954
9.96339e-21 -0.0043749 0.0507886 0.00013459
-3.51257e-21 0.008125 0.0503315 1.72677e-05
0 0.0065625 0.050559 2.97553e-05
0 -0.00656242 0.0505622 3.0288e-05
0 0.0103557 0.049924 5.17176e-06
-1.56378e-20 -0.00812495 0.0503366 1.75435e-05
-2.41254e-20 0.005 0.050787 0.000132769
2.58494e-26 0.00842979 0.0503315 1.72571e-05
-2.06795e-25 -0.00499991 0.0507888 0.000134649
2.06795e-25 0.010625 0.049924 5.17152e-06
-2.71051e-20 0.00031254 0.0510487 0.000241711
2.71051e-20 -0.000312437 0.0510488 0.000242125
0 -0.0106251 0.0499342 5.04107e-06
2.71051e-20 0.0096875 0.0501277 5.17229e-06
2.71051e-20 0.000937508 0.0510487 0.00024135
0 -0.000937409 0.051049 0.00024235
0 -0.0096875 0.0501353 5.05163e-06
-5.42101e-20 0.0071875 0.050559 2.97114e-05
-2.71051e-20 -0.00718742 0.0505624 3.02957e-05
0 0.0015625 0.0510487 0.000241053
0 -0.0015624 0.0510491 0.000242414
0 0.00875 0.0503315 1.72459e-05
2.21548e-20 -0.00874995 0.050337 1.75452e-05
0 0.0021875 0.0510486 0.000240691
0 -0.00218739 0.0510493 0.00024243
3.16671e-20 0.005625 0.050787 0.000132585
-1.66398e-20 -0.00562491 0.050789 0.000134707
0 0.0028125 0.0510486 0.000240367
2.71051e-20 -0.0028124 0.0510494 0.00024241
-5.42101e-20 0.0078125 0.050559 2.96673e-05
0 -0.00781242 0.0505627 3.03052e-05
2.71051e-20 0.0034375 0.0510486 0.000240027
5.42101e-20 -0.0034374 0.0510496 0.000242402
2.19409e-20 0.00625 0.050787 0.0001324
2.06795e-25 -0.00624992 0.0507892 0.000134769
4.1359e-25 0.01125 0.049924 5.17086e-06
0 0.0103125 0.0501277 5.17186e-06
2.71051e-20 -0.0103125 0.0501358 5.04445e-06
8.27181e-25 -0.0112501 0.0499348 5.03454e-06
0 0.009375 0.0503315 1.72239e-05
-2.69239e-20 -0.00937495 0.0503374 1.75492e-05
0 0.0040625 0.0510486 0.000239697
-5.42101e-20 -0.00406241 0.0510497 0.000242454
-1.59511e-21 0.006875 0.050787 0.000132216
-6.97437e-21 -0.00687492 0.0507894 0.000134834
-2.71051e-20 0.0084375 0.050559 2.96229e-05
-2.71051e-20 -0.00843743 0.050563 3.0315e-05
2.71051e-20 0.0046875 0.0510486 0.000239364
-2.71051e-20 -0.00468742 0.0510498 0.000242556
2.71051e-20 0.0109375 0.0501277 5.17118e-06
-2.95347e-20 3.58407e-08 0.051311 0.000308503
2.77223e-20 0.000625016 0.051311 0.000308119
-1.84552e-20 -0.000624943 0.0513111 0.000308864
0 0.01 0.0503315 1.72017e-05
0 -0.0109375 0.0501363 5.03769e-06
4.1359e-25 0.011875 0.049924 5.17003e-06
-1.45799e-20 -0.00999995 0.0503378 1.75533e-05
0 0.0053125 0.0510486 0.000239034
5.42101e-20 -0.00531242 0.05105 0.000242683
-1.12457e-20 0.00125 0.051311 0.000307782
8.58872e-21 -0.00124993 0.0513112 0.000309109
-8.27181e-25 -0.0118751 0.0499354 5.02717e-06
1.57686e-21 0.0075 0.050787 0.000132031
2.94977e-20 -0.00749992 0.0507896 0.000134895
-1.23888e-20 0.001875 0.0513109 0.000307436
-2.73396e-20 -0.00187492 0.0513113 0.00030927
2.71051e-20 0.0090625 0.050559 2.95788e-05
5.42101e-20 -0.00906243 0.0505633 3.03268e-05
1.02982e-20 0.0025 0.0513109 0.00030709
1.30919e-20 -0.00249992 0.0513114 0.000309386
0 0.0103482 0.0503315 1.71893e-05
0 0.0059375 0.0510486 0.000238704
-2.71051e-20 -0.00593743 0.0510501 0.000242782
1.95797e-20 0.003125 0.0513109 0.000306748
-2.60205e-20 -0.00312493 0.0513115 0.000309489
4.84648e-21 0.008125 0.050787 0.000131846
-3.865e-21 -0.00812492 0.0507898 0.000134958
-2.06795e-25 0.0123908 0.049924 5.16915e-06
0 0.010625 0.0503315 1.71794e-05
2.71051e-20 0.0115625 0.0501277 5.17054e-06
-3.2296e-20 -0.010625 0.0503382 1.7558e-05
-1.2996e-21 0.00375 0.0513109 0.000306405
1.08741e-20 -0.00374993 0.0513115 0.000309603
5.42101e-20 -0.0115625 0.0501368 5.03138e-06
-1.03398e-25 0.0125 0.049924 5.16897e-06
2.71051e-20 0.0065625 0.0510486 0.000238375
0 -0.00656243 0.0510503 0.000242923
0 -0.0125001 0.049936 5.0192e-06
-2.71051e-20 0.0096875 0.050559 2.95341e-05
-2.71051e-20 -0.00968742 0.0505636 3.03456e-05
3.10193e-25 0.0126216 0.049924 5.16875e-06
-1.27472e-20 0.004375 0.0513109 0.000306066
3.77086e-21 -0.00437494 0.0513116 0.00030975
-6.46235e-27 0.00862684 0.050787 0.000131697
6.46235e-27 0.00875 0.050787 0.00013166
-1.55924e-22 -0.00874992 0.0507901 0.000135038
-2.71051e-20 0.0071875 0.0510486 0.000238045
0 -0.00718743 0.0510504 0.000243024
-1.33652e-20 0.005 0.0513109 0.000305724
0 -0.00499994 0.0513117 0.000309913
1.21006e-21 0.01125 0.0503315 1.7157e-05
-2.47335e-20 -0.01125 0.0503386 1.7566e-05
-2.71051e-20 0.0121875 0.0501277 5.16952e-06
0 -0.0121875 0.0501373 5.02295e-06
0 0.0103125 0.050559 2.94896e-05
2.71051e-20 0.000312518 0.051601 0.000376816
2.71051e-20 -0.000312458 0.051601 0.000377239
2.71051e-20 -0.0103124 0.0505639 3.03579e-05
2.71051e-20 0.000937501 0.051601 0.000376468
0 -0.000937451 0.0516011 0.000377622
1.10858e-21 0.005625 0.0513109 0.000305381
-2.93395e-20 -0.00562494 0.0513118 0.000310067
-4.1359e-25 0.013125 0.049924 5.16783e-06
-5.42101e-20 0.0015625 0.051601 0.000376119
0 -0.00156244 0.0516011 0.000377935
0 -0.0131251 0.0499366 5.01126e-06
0 0.0078125 0.0510486 0.000237715
0 -0.00781242 0.0510505 0.000243152
0 0.009375 0.050787 0.000131475
2.71051e-20 0.0021875 0.0516009 0.000375762
0 -0.00218744 0.0516012 0.000378194
-2.69146e-20 -0.00937492 0.0507903 0.000135126
-2.71051e-20 0.0028125 0.0516009 0.000375417
2.71051e-20 -0.00281244 0.0516013 0.000378414
0 0.0125 0.0501437 1.16087e-05
-2.06963e-20 0.00625 0.0513109 0.000305037
-9.89205e-22 -0.00624994 0.0513119 0.000310218
-2.11855e-20 0.011875 0.0503315 1.71346e-05
-2.71051e-20 0.0034375 0.0516009 0.00037506
2.71051e-20 -0.00343745 0.0516013 0.000378641
-2.01964e-20 -0.011875 0.050339 1.7571e-05
0 0.0109375 0.050559 2.94448e-05
0 -0.0109374 0.0505641 3.03782e-05
-5.42101e-20 0.0128125 0.0501277 5.16842e-06
2.71051e-20 0.0084375 0.0510486 0.000237382
-2.71051e-20 -0.00843743 0.0510507 0.000243265
0 -0.0128125 0.0501378 5.01545e-06
0 0.0040625 0.0516009 0.000374715
0 -0.00406246 0.0516014 0.000378855
6.46235e-27 0.01 0.050787 0.000131289
-3.8253e-21 -0.00999992 0.0507905 0.000135207
1.87292e-20 0.006875 0.0513109 0.000304695
0 -0.00687495 0.051312 0.000310378
0 0.01375 0.049924 5.1665e-06
0 -0.0137501 0.0499372 5.00289e-06
0 0.0102442 0.050787 0.000131216
0 0.0046875 0.0516009 0.000374365
2.71051e-20 -0.00468745 0.0516014 0.000379075
2.71051e-20 0.0090625 0.0510486 0.000237052
-2.71051e-20 -0.00906243 0.0510508 0.000243431
3.84499e-20 0.0075 0.0513109 0.000304352
4.23635e-20 -0.00749995 0.0513121 0.000310546
1.72154e-20 0.0125 0.0503315 1.71122e-05
-5.42101e-20 0.0115625 0.050559 2.94005e-05
-7.00126e-21 -0.0124999 0.0503393 1.75733e-05
2.71051e-20 -0.0115624 0.0505644 3.04037e-05
-2.71051e-20 0.0053125 0.0516009 0.000374009
0 -0.00531246 0.0516015 0.000379283
-3.45331e-20 0.010625 0.050787 0.000131103
-1.8934e-20 -0.0106249 0.0507907 0.000135295
-6.92118e-22 1.49272e-08 0.0518914 0.00036505
-4.14252e-21 -0.000624977 0.0518914 0.000365402
1.04753e-20 0.000625007 0.0518914 0.000364719
-2.71051e-20 0.0134375 0.0501277 5.16723e-06
-2.05803e-20 0.00125 0.0518914 0.000364415
2.68287e-20 -0.00124997 0.0518915 0.000365715
-2.71051e-20 -0.0134375 0.0501382 5.00707e-06
2.52478e-20 0.001875 0.0518914 0.000364108
2.35407e-20 -0.00187497 0.0518915 0.000365982
0 0.0059375 0.0516009 0.000373651
0 -0.00593745 0.0516015 0.000379463
-8.65873e-21 0.008125 0.0513109 0.000304009
-2.75083e-20 -0.00812495 0.0513121 0.000310714
1.75566e-20 0.0025 0.0518914 0.000363803
2.46695e-20 -0.00249997 0.0518915 0.000366211
4.1359e-25 0.014375 0.049924 5.16487e-06
-2.71051e-20 0.0096875 0.0510486 0.00023672
-5.42101e-20 -0.00968743 0.051051 0.000243596
-8.27181e-25 -0.0143751 0.0499378 4.99486e-06
-7.43441e-21 0.003125 0.0518914 0.000363497
-1.81117e-20 -0.00312497 0.0518916 0.000366425
0 0.0121875 0.050559 2.93558e-05
-3.23117e-27 0.00875 0.0512677 0.000289466
2.71051e-20 -0.0121874 0.0505647 3.04134e-05
9.20125e-21 0.013125 0.0503315 1.70898e-05
2.71051e-20 0.0065625 0.0516009 0.000373295
2.71051e-20 -0.00656246 0.0516016 0.000379651
-2.22408e-20 0.01125 0.050787 0.000130917
1.1344e-20 -0.0112499 0.0507909 0.000135401
4.40515e-21 -0.0131249 0.0503397 1.7578e-05
-5.20946e-21 0.00375 0.0518914 0.000363191
1.38624e-21 -0.00374997 0.0518916 0.000366634
0 0.00875 0.0513109 0.000303665
-9.27647e-21 -0.00874995 0.0513122 0.000310902
2.71051e-20 0.0140625 0.0501277 5.16577e-06
4.03897e-28 0.00885848 0.0513109 0.000303605
0 -0.0140625 0.0501387 4.99872e-06
-1.69694e-20 0.004375 0.0518914 0.000362888
-7.91758e-21 -0.00437497 0.0518916 0.000366835
2.71051e-20 0.0103125 0.0510486 0.000236387
-2.71051e-20 -0.0103124 0.0510511 0.000243731
0 0.0071875 0.0516009 0.000372939
0 -0.00718747 0.0516017 0.000379863
0 0.015 0.049924 5.16307e-06
-3.54796e-20 0.005 0.0518914 0.000362579
-1.29247e-26 -0.00499998 0.0518916 0.000367028
0 -0.0150001 0.0499384 4.98663e-06
-1.0197e-20 0.011875 0.050787 0.000130732
2.71051e-20 0.0128125 0.050559 2.93121e-05
0 0.009375 0.0513109 0.000303322
-2.47697e-20 -0.0118749 0.0507911 0.000135497
8.96684e-21 -0.00937495 0.0513123 0.000311109
0 -0.0128124 0.050565 3.04317e-05
-9.19618e-22 0.01375 0.0503315 1.70666e-05
3.28585e-20 -0.0137499 0.0503401 1.75813e-05
2.71051e-20 0.0078125 0.0516009 0.000372584
0 -0.00781246 0.0516017 0.000380093
-1.47275e-20 0.005625 0.0518914 0.000362265
-9.62068e-21 -0.00562498 0.0518917 0.000367199
-2.71051e-20 -0.000312488 0.052197 0.00035303
0 0.000312507 0.052197 0.000352731
-2.71051e-20 0.000937507 0.052197 0.000352478
0 -0.000937479 0.052197 0.000353327
2.71051e-20 0.0109375 0.0510486 0.000236054
2.71051e-20 -0.0109374 0.0510512 0.000243924
5.42101e-20 0.0015625 0.052197 0.000352216
0 -0.00156248 0.0521971 0.000353591
-2.71051e-20 0.0146875 0.0501277 5.16398e-06
-2.71051e-20 0.0021875 0.052197 0.000351955
2.71051e-20 -0.00218748 0.0521971 0.00035382
2.71051e-20 -0.0146875 0.0501392 4.991e-06
4.34432e-20 0.00625 0.0518914 0.000361951
1.40182e-20 -0.00624998 0.0518917 0.000367359
2.71051e-20 0.0028125 0.052197 0.000351701
-2.71051e-20 -0.00281248 0.0521971 0.000354024
-2.01948e-28 0.01 0.0513109 0.00030298
1.06381e-21 -0.00999995 0.0513124 0.000311305
0 0.0100497 0.0513109 0.000302952
0 0.0084375 0.0516009 0.000372227
0 -0.00843746 0.0516017 0.000380315
0 0.0125 0.050787 0.000130548
3.11268e-21 -0.0124999 0.0507913 0.000135584
-2.71051e-20 0.0034375 0.052197 0.000351436
2.71051e-20 -0.00343748 0.0521971 0.000354231
-8.27181e-25 0.015625 0.049924 5.16121e-06
5.42101e-20 0.0134375 0.050559 2.92675e-05
0 -0.0134374 0.0505653 3.04489e-05
0 -0.0156251 0.049939 4.97753e-06
0 0.0115625 0.0510486 0.000235724
-1.23573e-20 0.014375 0.0503315 1.70429e-05
0 -0.0115624 0.0510514 0.000244116
-4.31459e-21 0.006875 0.0518914 0.000361638
1.16419e-21 -0.00687498 0.0518917 0.000367532
-7.25437e-22 -0.0143749 0.0503405 1.75856e-05
0 0.0040625 0.052197 0.000351179
0 -0.00406248 0.0521971 0.000354417
-2.71051e-20 0.0090625 0.0516009 0.000371871
2.71051e-20 -0.00906246 0.0516018 0.000380569
1.77147e-20 0.010625 0.0513109 0.000302636
1.21676e-20 -0.0106249 0.0513125 0.00031151
5.42101e-20 0.0046875 0.052197 0.00035092
-2.71051e-20 -0.00468748 0.0521971 0.000354598
2.71051e-20 0.0153125 0.0501277 5.16216e-06
2.71051e-20 -0.0153125 0.0501397 4.98226e-06
3.07758e-21 0.0075 0.0518914 0.000361326
4.66699e-21 -0.00749998 0.0518918 0.000367725
1.46242e-20 0.013125 0.050787 0.000130366
1.70062e-20 -0.0131249 0.0507915 0.000135673
0 0.0053125 0.052197 0.00035065
0 -0.00531248 0.0521972 0.00035476
2.71051e-20 0.0140625 0.050559 2.92208e-05
-2.71051e-20 0.0121875 0.0510486 0.000235392
0 -0.0140624 0.0505656 3.04613e-05
2.71051e-20 -0.0121874 0.0510515 0.000244283
8.27181e-25 0.01625 0.049924 5.15919e-06
-2.71051e-20 0.0096875 0.0516009 0.000371516
2.01518e-20 3.6118e-09 0.0525028 0.000340265
-2.71051e-20 -0.00968747 0.0516019 0.000380816
-1.95267e-20 -0.000624995 0.0525028 0.000340483
1.95619e-20 0.000625002 0.0525028 0.000340062
8.27181e-25 -0.01625 0.0499396 4.96755e-06
-2.17644e-20 -0.00124999 0.0525028 0.000340691
3.15052e-21 0.00125 0.0525028 0.000339869
-1.3915e-20 0.015 0.0503315 1.70196e-05
1.99712e-21 0.008125 0.0518914 0.000361013
3.79585e-22 -0.00812498 0.0518918 0.000367925
2.33306e-21 -0.0149999 0.0503409 1.75901e-05
0 0.01 0.0515681 0.000328281
4.1433e-21 0.01125 0.0513109 0.000302293
-2.12662e-20 -0.0112499 0.0513126 0.000311739
-5.42101e-20 0.0059375 0.052197 0.000350381
2.71051e-20 -0.00593749 0.0521972 0.000354898
8.93092e-21 -0.00187499 0.0525028 0.000340874
6.97518e-22 0.001875 0.0525028 0.000339672
6.63466e-21 -0.00249999 0.0525028 0.000341036
1.68202e-20 0.0025 0.0525028 0.000339478
2.26288e-21 -0.00312499 0.0525028 0.000341189
-3.81974e-21 0.003125 0.0525028 0.000339283
2.71051e-20 0.0159375 0.0501277 5.16027e-06
0 0.0065625 0.052197 0.000350111
2.71051e-20 -0.00656248 0.0521972 0.000355027
0 -0.0159374 0.0501402 4.97281e-06
-3.83016e-20 0.01375 0.050787 0.000130177
2.37171e-20 -0.0137499 0.0507917 0.000135749
2.71051e-20 0.0103125 0.0516009 0.000371165
0 -0.0103125 0.0516019 0.000381055
-8.07794e-28 0.00875 0.0518914 0.0003607
-1.50569e-20 -0.00874998 0.0518918 0.000368133
2.71051e-20 0.0128125 0.0510486 0.000235069
-2.71051e-20 -0.0128124 0.0510516 0.000244445
-8.44968e-21 -0.00374999 0.0525028 0.000341334
2.39742e-21 0.00375 0.0525028 0.000339085
-2.71051e-20 0.0146875 0.050559 2.91751e-05
0 -0.0146874 0.0505658 3.04827e-05
5.14471e-21 0.011875 0.0513109 0.000301952
6.91208e-21 -0.0118749 0.0513127 0.000311968
3.31363e-20 -0.00437499 0.0525028 0.000341469
-2.33103e-20 0.004375 0.0525028 0.00033889
5.42101e-20 0.0071875 0.052197 0.000349841
2.71051e-20 -0.00718748 0.0521972 0.000355187
0 0.016875 0.049924 5.15696e-06
-4.05711e-21 0.015625 0.0503315 1.69963e-05
-1.75114e-20 -0.0156249 0.0503413 1.75925e-05
0 -0.016875 0.0499402 4.95737e-06
0 0.00932597 0.0518914 0.000360412
0 0.009375 0.0518914 0.000360387
-5.81114e-21 -0.00937498 0.0518918 0.00036835
-8.08397e-21 -0.00499999 0.0525028 0.000341593
-3.41884e-20 0.005 0.0525028 0.000338691
-5.04871e-29 0.00945271 0.0518914 0.000360349
-5.42101e-20 0.0109375 0.0516009 0.000370809
0 -0.0109375 0.051602 0.000381308
2.71051e-20 0.0078125 0.052197 0.000349572
0 -0.00781249 0.0521972 0.00035536
-1.82249e-21 0.014375 0.050787 0.000129986
4.91842e-21 -0.0143749 0.0507919 0.000135827
-2.71051e-20 0.0134375 0.0510486 0.000234742
2.71051e-20 -0.0134374 0.0510518 0.000244607
0 0.0165625 0.0501277 5.1581e-06
-3.23117e-27 -0.00562499 0.0525028 0.000341698
-2.80914e-20 0.005625 0.0525028 0.000338488
0 -0.0165624 0.0501407 4.96228e-06
1.49441e-20 0.0125 0.0513109 0.000301615
-1.0819e-21 -0.0124999 0.0513127 0.000312179
2.71051e-20 -0.000312498 0.052814 0.000327646
0 0.000312501 0.052814 0.00032751
0 0.000937501 0.052814 0.000327388
2.71051e-20 -0.000937496 0.052814 0.000327786
0 0.0153125 0.050559 2.91299e-05
2.71051e-20 -0.0153124 0.0505661 3.04964e-05
2.71051e-20 0.0015625 0.052814 0.000327254
2.71051e-20 -0.00156249 0.052814 0.000327914
-1.20835e-20 0.01 0.0518914 0.000360077
1.07204e-20 -0.00999998 0.0518919 0.000368559
0 0.0021875 0.052814 0.000327123
-2.71051e-20 -0.00218749 0.052814 0.000328026
-1.13476e-20 0.00625 0.0525028 0.000338285
0 -0.00624999 0.0525029 0.000341787
-2.71051e-20 0.0084375 0.052197 0.000349303
-2.71051e-20 -0.00843749 0.0521972 0.000355533
-2.71051e-20 0.0115625 0.0516009 0.000370456
0 -0.0115625 0.051602 0.000381583
0 0.0028125 0.052814 0.000326995
-2.71051e-20 -0.00281249 0.052814 0.000328127
9.60977e-21 0.01625 0.0503315 1.69729e-05
1.9715e-20 -0.0162499 0.0503416 1.75924e-05
-8.27181e-25 0.0175 0.049924 5.15452e-06
0 -0.0175001 0.0499408 4.94794e-06
-2.71051e-20 0.0034375 0.052814 0.000326861
-2.71051e-20 -0.0034375 0.052814 0.000328224
2.71051e-20 0.0140625 0.0510486 0.000234396
-2.57954e-20 0.006875 0.0525028 0.000338081
5.72229e-21 -0.00687499 0.0525029 0.000341883
0 -0.0140624 0.0510519 0.00024473
2.0965e-20 0.015 0.050787 0.000129798
1.20739e-20 -0.0149999 0.0507921 0.000135905
-2.68868e-20 0.013125 0.0513109 0.00030128
8.74309e-21 -0.0131249 0.0513128 0.000312392
-7.27499e-21 0.010625 0.0518914 0.000359766
3.54718e-20 -0.010625 0.0518919 0.000368769
0 0.0040625 0.052814 0.000326729
0 -0.00406249 0.052814 0.000328312
-2.71051e-20 0.0090625 0.052197 0.000349035
2.71051e-20 -0.00906248 0.0521973 0.000355715
2.71051e-20 0.0171875 0.0501277 5.15581e-06
-2.52435e-29 0.009375 0.0521572 0.000350333
0 -0.0171874 0.0501412 4.95246e-06
0 0.0159375 0.050559 2.90848e-05
2.71051e-20 -0.0159374 0.0505664 3.05106e-05
0 0.0121875 0.0516009 0.000370106
2.71051e-20 0.0046875 0.052814 0.000326597
2.71051e-20 -0.0046875 0.052814 0.000328396
2.71051e-20 -0.0121875 0.0516021 0.000381868
-1.62539e-20 0.0075 0.0525028 0.000337877
-3.21395e-21 -0.00749999 0.0525029 0.000341995
2.71051e-20 0.0053125 0.052814 0.000326461
-2.71051e-20 -0.0053125 0.052814 0.000328464
-1.19275e-20 0.016875 0.0503315 1.69495e-05
-2.71051e-20 0.0096875 0.052197 0.000348765
2.71051e-20 -0.00968748 0.0521973 0.000355896
3.06408e-20 -0.0168749 0.050342 1.75937e-05
6.59456e-21 0.01125 0.0518914 0.000359454
3.26626e-20 -0.01125 0.0518919 0.000368998
0 0.018125 0.049924 5.15184e-06
-2.71051e-20 0.0146875 0.0510486 0.000234058
1.81866e-21 0.01375 0.0513109 0.000300933
0 -0.0146874 0.051052 0.000244893
-6.64433e-21 -0.0137499 0.0513129 0.00031259
-1.13052e-20 3.84931e-10 0.0531252 0.000340734
1.61392e-20 0.008125 0.0525028 0.000337673
-2.18337e-20 -0.00812499 0.0525029 0.000342113
-8.27181e-25 -0.0181251 0.0499414 4.93808e-06
3.21963e-20 -0.000624999 0.0531252 0.000340804
-2.86776e-21 0.000625 0.0531252 0.000340666
3.89476e-20 0.015625 0.050787 0.000129611
-4.39327e-21 -0.00125 0.0531252 0.000340872
9.21964e-21 0.00125 0.0531252 0.000340597
8.96829e-21 -0.0156249 0.0507923 0.000135978
1.00974e-28 0.0114599 0.0518914 0.00035935
-2.71051e-20 0.0059375 0.052814 0.000326325
-5.42101e-20 -0.00593749 0.052814 0.000328516
2.04798e-20 -0.001875 0.0531252 0.00034093
1.36633e-20 0.001875 0.0531252 0.000340524
-5.42101e-20 0.0128125 0.0516009 0.000369761
0 -0.0128125 0.0516021 0.000382122
-2.57298e-20 -0.0025 0.0531252 0.000340979
-3.84817e-21 0.0025 0.0531252 0.000340452
0 0.0178125 0.0501277 5.15322e-06
0 0.0165625 0.050559 2.90395e-05
2.71051e-20 0.0103125 0.052197 0.000348499
5.42101e-20 -0.0103125 0.0521973 0.000356068
-2.01948e-28 0.011875 0.0518669 0.000356731
2.71051e-20 -0.0165624 0.0505667 3.05201e-05
-2.71051e-20 -0.0178125 0.0501417 4.94342e-06
2.04414e-20 -0.003125 0.0531252 0.000341021
-1.77914e-20 0.003125 0.0531252 0.000340377
2.71051e-20 0.0065625 0.052814 0.000326188
2.71051e-20 -0.0065625 0.052814 0.000328556
4.12713e-20 0.00875 0.0525028 0.000337468
-9.61704e-21 -0.00874999 0.0525029 0.000342235
2.01948e-28 0.011875 0.0518914 0.000359144
6.07582e-21 -0.011875 0.0518919 0.000369242
-1.62909e-20 -0.00375 0.0531252 0.000341059
-6.34095e-21 0.00375 0.0531252 0.0003403
0 0.0120147 0.0518914 0.000359076
3.28943e-20 0.014375 0.0513109 0.000300581
-2.43481e-21 0.0175 0.0503315 1.69262e-05
2.14288e-20 -0.0143749 0.051313 0.00031278
0 0.0153125 0.0510486 0.000233725
-4.33993e-20 -0.0174999 0.0503424 1.75978e-05
2.71051e-20 -0.0153124 0.0510522 0.00024501
5.42101e-20 0.0071875 0.052814 0.00032605
0 -0.0071875 0.052814 0.00032861
2.4442e-20 -0.004375 0.0531252 0.000341091
1.46083e-20 0.004375 0.0531252 0.000340223
0 0.0134375 0.0516009 0.000369416
5.42101e-20 -0.0134375 0.0516022 0.000382397
1.5792e-20 0.01625 0.050787 0.000129425
-6.28099e-21 -0.0162499 0.0507925 0.000136055
0 0.01875 0.049924 5.14894e-06
2.71051e-20 0.0109375 0.052197 0.00034823
0 -0.0109375 0.0521973 0.000356244
-9.05521e-22 0.009375 0.0525028 0.000337264
-3.65562e-20 -0.00937499 0.0525029 0.00034236
0 0.01125 0.0521436 0.000350046
8.27181e-25 -0.0187501 0.049942 4.92749e-06
-2.74375e-20 -0.005 0.0531252 0.000341113
-3.07949e-20 0.005 0.0531252 0.000340145
0 0.0125 0.0518914 0.000358839
-7.94753e-22 -0.0125 0.051892 0.000369474
-2.71051e-20 0.0078125 0.052814 0.000325911
2.71051e-20 -0.0078125 0.052814 0.000328672
5.42101e-20 0.0171875 0.050559 2.89946e-05
0 -0.0171874 0.050567 3.05355e-05
-5.42101e-20 0.0184375 0.0501277 5.15045e-06
1.80212e-20 -0.005625 0.0531252 0.000341123
-6.5015e-21 0.005625 0.0531252 0.000340066
0 -0.0184375 0.0501421 4.93274e-06
0 0.0003125 0.0534376 0.000353904
0 -0.0003125 0.0534376 0.000353909
0 -0.0009375 0.0534376 0.000353909
0 0.0009375 0.0534376 0.000353897
-2.09299e-20 0.01 0.0525028 0.00033706
-1.28446e-20 -0.00999999 0.0525029 0.00034248
-9.98867e-21 0.015 0.0513109 0.000300237
0 -0.0015625 0.0534376 0.00035391
0 0.0015625 0.0534376 0.000353884
3.40367e-20 -0.0149999 0.0513131 0.000312982
2.71051e-20 0.0115625 0.052197 0.000347962
0 -0.0115625 0.0521973 0.000356453
0 0.0159375 0.0510486 0.000233392
0 -0.0159374 0.0510523 0.000245164
-2.71051e-20 0.0021875 0.0534376 0.000353869
0 -0.0021875 0.0534376 0.000353903
-2.71051e-20 0.0140625 0.0516009 0.000369046
-2.71051e-20 0.0084375 0.052814 0.000325772
-5.42101e-20 -0.0084375 0.052814 0.000328736
0 -0.0140624 0.0516022 0.000382627
-3.26744e-20 -0.00625 0.0531252 0.000341121
-2.16961e-20 0.00625 0.0531252 0.000339986
-2.85237e-20 0.018125 0.0503315 1.69025e-05
-3.69146e-20 -0.0181249 0.0503428 1.76005e-05
0 -0.0028125 0.0534376 0.000353892
-5.42101e-20 0.0028125 0.0534376 0.000353852
4.38571e-21 0.016875 0.050787 0.000129238
-3.09332e-20 -0.0168749 0.0507927 0.000136129
-2.81054e-20 0.013125 0.0518914 0.000358535
3.67612e-21 -0.013125 0.051892 0.000369705
0 -0.0034375 0.0534376 0.000353875
0 0.0034375 0.0534376 0.000353832
0 0.019375 0.049924 5.14593e-06
1.40736e-21 0.010625 0.0525028 0.000336856
-5.33132e-21 -0.010625 0.0525029 0.000342597
5.65787e-21 -0.006875 0.0531252 0.000341117
2.93534e-20 0.006875 0.0531252 0.000339904
-8.27181e-25 -0.0193751 0.0499426 4.91613e-06
-5.42101e-20 0.0090625 0.052814 0.000325632
0 -0.0090625 0.052814 0.000328803
-2.71051e-20 0.0040625 0.0534376 0.00035381
0 -0.0040625 0.0534376 0.000353856
-1.00974e-28 0.0107672 0.0525028 0.000336809
-2.71051e-20 0.0121875 0.052197 0.000347697
0 -0.0121875 0.0521973 0.000356657
-2.71051e-20 0.0178125 0.050559 2.895e-05
2.71051e-20 -0.0178124 0.0505673 3.05556e-05
-2.71051e-20 0.0190625 0.0501277 5.14743e-06
-2.27186e-20 0.015625 0.0513109 0.000299895
3.53561e-20 -0.0156249 0.0513132 0.000313183
5.42101e-20 0.0046875 0.0534376 0.000353788
-2.71051e-20 -0.0046875 0.0534376 0.000353831
2.71051e-20 -0.0190625 0.0501426 4.92225e-06
-2.71051e-20 0.0146875 0.0516009 0.000368691
0 -0.0146875 0.0516023 0.000382875
-1.24918e-20 -0.0075 0.0531252 0.00034112
1.55901e-20 0.0075 0.0531252 0.000339821
-2.71051e-20 0.0165625 0.0510486 0.000233059
-2.71051e-20 -0.0165624 0.0510525 0.0002453
2.48947e-20 0.01375 0.0518914 0.00035822
-1.01825e-20 -0.01375 0.051892 0.000369927
0 0.01125 0.0525028 0.000336651
5.17748e-21 -0.01125 0.0525029 0.000342729
5.42101e-20 0.0096875 0.052814 0.000325492
-2.71051e-20 -0.0096875 0.052814 0.00032887
-2.71051e-20 0.0053125 0.0534376 0.000353766
2.71051e-20 -0.0053125 0.0534376 0.000353794
2.06795e-25 0.01875 0.0503315 1.68779e-05
1.0597e-20 0.0175 0.050787 0.000129055
2.14968e-20 -0.0187499 0.0503432 1.76013e-05
1.88825e-20 -0.0174999 0.0507929 0.000136211
-1.52307e-20 -0.008125 0.0531252 0.000341126
-3.03002e-20 0.008125 0.0531252 0.000339737
2.71051e-20 0.0128125 0.052197 0.000347436
-2.71051e-20 -0.0128125 0.0521973 0.000356843
3.41159e-20 -2.04802e-14 0.05375 0.000384246
3.28992e-21 -0.000625 0.05375 0.000384212
3.41243e-20 0.000625 0.05375 0.000384276
-4.65339e-21 0.00125 0.05375 0.000384301
-4.65991e-21 -0.00125 0.05375 0.000384175
-2.71051e-20 -0.0059375 0.0534376 0.000353749
5.42101e-20 0.0059375 0.0534376 0.000353744
-8.27181e-25 0.02 0.049924 5.14283e-06
-1.2821e-20 0.001875 0.05375 0.000384323
-8.74399e-21 -0.001875 0.05375 0.000384138
0 -0.0200001 0.0499432 4.9043e-06
-8.73692e-21 0.0025 0.05375 0.000384344
-1.2829e-20 -0.0025 0.05375 0.000384097
0 0.0103125 0.052814 0.000325352
0 -0.0103125 0.052814 0.00032893
0 0.0184375 0.050559 2.89042e-05
2.49775e-20 0.01625 0.0513109 0.000299553
2.71051e-20 -0.0184374 0.0505675 3.05668e-05
-1.8527e-20 -0.0162499 0.0513133 0.000313385
0 0.0153125 0.0516009 0.00036834
2.71051e-20 -0.0153124 0.0516023 0.000383155
0 0.011875 0.0525028 0.000336446
2.74666e-20 -0.011875 0.0525029 0.000342871
0 0.0065625 0.0534376 0.00035372
0 -0.0065625 0.0534376 0.000353693
3.4126e-20 0.003125 0.05375 0.000384361
-1.2829e-20 -0.003125 0.05375 0.00038405
-2.66481e-21 -0.00875 0.0531252 0.000341134
-3.44056e-21 0.00875 0.0531252 0.000339651
4.97583e-21 0.014375 0.0518914 0.000357902
-9.55381e-22 -0.014375 0.051892 0.000370136
5.42101e-20 0.0196875 0.0501277 5.14442e-06
0 0.0171875 0.0510486 0.000232728
-2.71051e-20 -0.0171874 0.0510526 0.000245444
2.71051e-20 -0.0196875 0.0501431 4.91001e-06
-2.32377e-20 0.00375 0.05375 0.000384373
-1.69132e-20 -0.00375 0.05375 0.000383996
0 0.0134375 0.052197 0.000347173
0 -0.0134375 0.0521973 0.000357051