# kMean  POINT_DATA 45383
# x  y  z  kMean
0.01 3.4489e-27 1.48997e-07 3.88813e-07
-0.01 2.10863e-26 8.48436e-08 5.90068e-07
-0.01 -4.1359e-25 0.000678316 8.35811e-07
0.01 1.29247e-26 0.00067832 5.74856e-07
0.0100335 -2.58494e-26 0.00067574 5.82985e-07
-0.01 0 0.00137373 9.57308e-07
0.01 0 0.00137372 6.75049e-07
-0.01 3.30872e-24 0.00208696 9.65162e-07
0.01 1.57772e-30 0.002087 6.93241e-07
0.0101864 -2.06795e-25 0.00133473 5.90911e-07
-0.0102702 2.71051e-20 0.000327905 5.90068e-07
0.0102702 0 0.000327954 3.88809e-07
-0.0102616 -2.71051e-20 0.000986823 1.08494e-06
0.0102619 0 0.000986956 7.63465e-07
-0.0102382 0 0.00161862 8.27857e-07
0.0102389 -2.71051e-20 0.00161883 5.85369e-07
-0.0105473 0 0.000241058 1.19721e-06
-0.0105508 0 8.49672e-08 1.31545e-06
0.0105508 -2.06795e-25 8.59948e-08 9.20064e-07
-0.0105415 -1.7018e-20 0.00063654 1.00315e-06
0.0105418 1.3268e-20 0.00063661 7.06298e-07
-0.0105237 0 0.00126378 6.13415e-07
0.0105246 -3.02368e-20 0.00126397 4.38217e-07
-0.0105066 -5.27079e-21 0.00172222 7.22395e-07
0.0105082 1.83047e-20 0.00172263 5.21005e-07
-0.0104981 0 0.00202328 1.087e-06
0.0105003 -2.71051e-20 0.00202395 7.89299e-07
-0.0104973 3.30872e-24 0.00235191 1.28682e-06
0.0105018 -1.65436e-24 0.00235298 9.78773e-07
-0.0108324 2.71051e-20 0.000312949 2.05335e-06
0.0108326 -2.71051e-20 0.000313002 1.46049e-06
-0.0108211 2.71051e-20 0.000935918 3.28232e-07
0.0108219 2.71051e-20 0.000936095 2.4345e-07
-0.0107987 0 0.00152672 2.10481e-07
0.0108006 0 0.00152718 1.59077e-07
0.0111231 0 1.4102e-08 1.90354e-06
-0.0111231 0 1.1833e-08 2.54003e-06
-0.0111217 8.27181e-25 0.00054366 1.59244e-06
-0.0109001 0 0.00228558 1.48503e-06
-0.0111215 0 0.000612314 1.47278e-06
0.011122 -1.07835e-20 0.00061238 1.11189e-06
0.0109057 0 0.00228695 1.16674e-06
-0.0109929 0 0.00190209 6.58317e-07
0.0109964 -1.87952e-20 0.00190279 5.1006e-07
-0.0111 0 0.00123235 2.80092e-07
0.0111015 1.75966e-20 0.00123258 2.23021e-07
-0.0109856 0 0.00261204 1.50652e-06
0.0109947 0 0.00261423 1.22741e-06
-0.0114284 -2.71051e-20 0.000305075 3.04013e-06
0.0114286 0 0.000305108 2.35883e-06
-0.0112129 -7.82513e-21 0.00232217 1.104e-06
0.0112195 2.75319e-20 0.00232367 9.02259e-07
-0.0114246 -2.71051e-20 0.00092111 4.42998e-07
0.0114256 -2.71051e-20 0.00092126 3.66794e-07
-0.0113817 2.71051e-20 0.0015635 1.41657e-07
0.0113839 0 0.00156383 1.26309e-07
-0.011173 -4.1359e-25 0.00271189 1.80631e-06
-0.0114068 -2.71051e-20 0.00210155 2.96671e-07
0.011411 0 0.00210244 2.50443e-07
-0.0113382 2.71051e-20 0.00256301 1.52771e-06
0.0113467 0 0.00256544 1.28724e-06
0.0117295 0 6.31228e-09 2.76044e-06
-0.0117295 -4.1359e-25 4.80147e-09 3.39403e-06
-0.0117405 0 0.00051944 2.16558e-06
-0.0117423 -1.03398e-25 0.00060318 1.96754e-06
0.0117428 7.38507e-21 0.000603251 1.61744e-06
-0.0115321 -2.06795e-25 0.00238299 1.26852e-06
-0.0117315 0 0.00123297 3.39353e-07
0.0117329 1.46188e-20 0.00123324 3.0697e-07
-0.0114582 0 0.00286379 2.26242e-06
0.011472 0 0.00286721 2.0124e-06
-0.0117202 0 0.00185692 2.6798e-07
0.0117223 -1.09221e-20 0.00185737 2.49827e-07
-0.0116916 1.03398e-25 0.00211226 7.62586e-07
-0.0116585 2.78171e-20 0.00240709 1.3337e-06
0.0116635 2.72903e-20 0.00240866 1.18699e-06
-0.0120571 2.71051e-20 0.000300839 3.75722e-06
0.0120573 0 0.000300897 3.1726e-06
-0.0120651 0 0.000916399 5.66745e-07
0.0120657 -2.71051e-20 0.000916727 5.21454e-07
-0.0120089 -1.03398e-25 0.00187021 2.59725e-07
-0.0120608 0 0.00155099 1.96799e-07
0.0120609 -2.71051e-20 0.00155169 2.0607e-07
-0.0118568 -2.71051e-20 0.00273895 2.98497e-06
0.0118619 2.71051e-20 0.00274195 2.72542e-06
0.012035 2.71051e-20 0.00219403 4.18775e-07
-0.0120372 2.71051e-20 0.00219395 4.37142e-07
-0.0119121 0 0.00310559 2.89742e-06
0.0119304 0 0.00311016 2.65557e-06
0.0123683 0 2.71643e-09 3.54929e-06
-0.0123683 0 2.66988e-09 4.03413e-06
-0.0123892 -1.55096e-25 0.000564551 2.43726e-06
-0.0123904 -2.58494e-26 0.00059722 2.34486e-06
0.0123907 -6.09301e-21 0.000597448 2.09156e-06
-0.0123962 0 0.00122692 4.04865e-07
0.0123962 2.18467e-20 0.00122803 4.10872e-07
-0.0123949 0 0.00129009 3.89961e-07
0.0123792 1.92452e-20 0.00188965 2.72958e-07
-0.0123827 -1.15441e-20 0.00188742 2.49036e-07
-0.0125417 -5.16988e-26 0.00059593 2.41278e-06
0.0123193 -1.44194e-20 0.00260601 1.33614e-06
-0.0123305 -1.39827e-20 0.00260668 1.42667e-06
-0.0125688 2.58494e-26 0.00122537 4.16522e-07
0.0122774 5.42101e-20 0.00301148 2.58689e-06
-0.0122788 2.71051e-20 0.00300901 2.81128e-06
-0.0127075 2.71051e-20 0.00029719 4.31522e-06
0.0127075 0 0.000297361 3.93167e-06
0.0127224 5.42101e-20 0.000910669 6.69948e-07
-0.0127228 0 0.000909514 6.60825e-07
-0.0123477 0 0.00333768 2.5072e-06
0.0123698 6.61744e-24 0.00334298 2.43805e-06
0.0127185 0 0.0015595 2.40702e-07
-0.0127224 -5.42101e-20 0.00155586 1.88856e-07
0.0126865 -2.71051e-20 0.00223766 2.24807e-07
-0.0127017 2.71051e-20 0.00223253 1.70986e-07
0.0125633 3.5132e-20 0.00303647 1.80652e-06
-0.0125873 2.72324e-20 0.00304271 1.82417e-06
-0.0130258 0 2.56512e-09 4.54113e-06
0.0130258 0 1.94236e-09 4.28075e-06
0.0127297 0 0.00279908 5.1829e-07
0.0130472 -4.14488e-20 0.000592235 2.53041e-06
-0.0130474 -5.12438e-22 0.000591621 2.63983e-06
-0.0127816 0 0.0028142 4.49357e-07
0.0126842 0 0.00327272 2.29137e-06
0.0130549 -1.93221e-20 0.00122427 5.11083e-07
-0.0130573 -4.99638e-21 0.00122099 4.49521e-07
-0.0127078 -5.42101e-20 0.00328029 2.20721e-06
0.0130409 1.73815e-20 0.00189495 2.62291e-07
-0.0130523 -1.41804e-20 0.00188526 1.66003e-07
-0.0127679 0 0.0035615 2.16817e-06
0.0130294 -1.15689e-20 0.00254415 4.41612e-07
0.0127922 0 0.0035676 3.35127e-06
-0.0130668 1.01148e-20 0.00252843 2.27184e-07
0.0129755 1.26195e-20 0.00310441 2.02579e-06
0.0133645 0 0.000294678 4.63056e-06
-0.0133647 0 0.0002943 4.76751e-06
0.013377 0 0.000905403 8.15188e-07
-0.0133788 2.71051e-20 0.000902908 7.39635e-07
-0.0130842 1.61383e-20 0.00316077 1.12303e-06
0.0133744 2.71051e-20 0.00155542 3.0879e-07
-0.0133828 2.71051e-20 0.00154643 1.99201e-07
-0.013073 -2.71051e-20 0.00349728 2.12951e-06
0.0133614 -2.71051e-20 0.00222042 2.73953e-07
-0.0133875 2.71051e-20 0.0021975 1.06233e-07
0.0131593 2.71051e-20 0.00342851 4.39914e-06
0.0133331 0 0.0028787 7.36701e-07
-0.0136859 0 1.99115e-09 4.92387e-06
0.0136859 2.06795e-25 1.20838e-09 4.91257e-06
-0.0133972 2.71051e-20 0.00283002 1.62602e-07
-0.0131766 0 0.00377904 2.05604e-06
0.0137005 -3.18841e-20 0.000588479 2.91437e-06
-0.0137012 -1.04183e-21 0.000587422 2.86489e-06
0.0132008 0 0.00378645 4.36658e-06
0.0137066 -6.16394e-21 0.00121712 6.10773e-07
-0.0137113 3.09643e-20 0.00121149 4.9388e-07
-0.0133317 1.11537e-20 0.00353346 1.49269e-06
0.0136964 -3.10408e-20 0.00188403 2.95544e-07
-0.0137136 1.11279e-20 0.00186546 1.60834e-07
-0.0134741 0 0.00333584 3.85023e-07
0.0136686 -1.20677e-20 0.00256371 4.05614e-07
-0.0137152 -1.23908e-20 0.00251516 1.39237e-07
-0.0134565 0 0.0037461 1.98306e-06
0.0136041 -1.80358e-20 0.00329192 2.23331e-06
0.0140177 -2.71051e-20 0.000293139 5.19299e-06
-0.0140182 -2.71051e-20 0.000292601 5.07935e-06
0.0135422 2.71051e-20 0.0036961 4.33429e-06
0.0140256 -2.71051e-20 0.000900278 9.4142e-07
-0.0140284 0 0.000896824 8.00064e-07
-0.0137342 -9.32398e-21 0.00311436 3.272e-07
0.014023 -2.71051e-20 0.00154615 3.65597e-07
-0.0140338 2.71051e-20 0.00153371 2.25799e-07
-0.0135654 0 0.00401386 2.98149e-06
0.0135836 -6.61744e-24 0.00402855 4.11849e-06
0.0140057 2.71051e-20 0.00221874 2.34787e-07
-0.0137123 -3.40468e-21 0.00361961 1.7488e-06
-0.0140348 -2.71051e-20 0.00218502 1.1225e-07
0.0139704 0 0.00290901 3.71525e-07
-0.0140398 -5.42101e-20 0.00281908 1.74794e-07
0.0138292 3.56647e-20 0.00373726 3.06832e-06
-0.0143389 0 2.44464e-09 5.12738e-06
0.0143389 -2.06795e-25 1.44847e-09 5.33041e-06
0.0143466 -4.82205e-21 0.000586141 3.1735e-06
-0.0143476 -3.25982e-20 0.00058495 2.98687e-06
0.0143501 2.75087e-20 0.00121019 6.90153e-07
-0.0143553 -9.53879e-21 0.00120417 5.27481e-07
-0.0138945 0 0.00393317 3.97598e-06
-0.0140375 2.71051e-20 0.00343143 5.79627e-07
0.0140303 5.42101e-20 0.00350658 8.86631e-07
0.0143403 -1.58557e-20 0.00187312 3.14948e-07
-0.0143565 0 0.00185406 1.7746e-07
0.0139282 2.71051e-20 0.00399009 3.90379e-06
0.0143175 1.86488e-21 0.00255235 2.73332e-07
-0.0139239 0 0.00428422 3.97846e-06
-0.0143528 -2.3069e-20 0.00250721 1.36073e-07
0.0139403 0 0.00429658 3.96149e-06
0.0146631 5.42101e-20 0.000292462 5.46675e-06
-0.0146635 -2.71051e-20 0.000291927 5.17502e-06
0.0143152 -1.14068e-20 0.00320647 4.86746e-07
-0.0143427 -1.40377e-20 0.00314905 2.92285e-07
0.0146669 -2.71051e-20 0.000896444 1.01548e-06
-0.0146697 0 0.00089329 8.24499e-07
0.014725 -1.03398e-25 3.73197e-16 5.37446e-06
0.0146638 -2.71051e-20 0.00153733 4.25341e-07
-0.014673 2.71051e-20 0.00152674 2.49719e-07
-0.0142998 -2.53862e-20 0.00383371 1.99276e-06
0.0146505 2.71051e-20 0.00220325 2.33157e-07
0.0143063 1.87274e-20 0.0038743 2.10869e-06
0.0148154 -2.58494e-26 0.000585312 3.21186e-06
-0.0146709 0 0.00217815 1.21739e-07
-0.0142437 -2.71051e-20 0.00422231 3.98093e-06
-0.014746 0 0.00185053 1.92379e-07
0.014255 0 0.00424396 4.01902e-06
0.0148484 0 0.00120616 7.24072e-07
0.0146399 0 0.00286477 2.58271e-07
-0.0147113 5.16988e-26 0.00250555 1.42006e-07
-0.0146627 0 0.00282903 1.34776e-07
-0.0149819 4.1359e-25 3.19382e-09 5.09055e-06
0.0149819 0 9.62822e-10 5.40376e-06
-0.0142803 -6.61744e-24 0.00455271 3.75924e-06
0.0149853 2.95045e-20 0.000585012 3.22576e-06
-0.0149861 2.76522e-20 0.000584127 2.96848e-06
0.0142938 -6.61744e-24 0.00456274 3.96108e-06
0.0149869 0 0.00120504 7.33499e-07
-0.0149906 -2.34151e-20 0.00120094 5.39356e-07
0.0149249 -1.29247e-26 0.00186093 3.54483e-07
-0.0146412 0 0.00348482 2.64417e-07
0.0146341 0 0.00351739 4.00476e-07
-0.0149904 0 0.00167349 2.92909e-07
0.0149806 -1.29247e-26 0.00185977 3.58246e-07
0.0149792 -1.29247e-26 0.00193528 3.47893e-07
-0.0149903 -2.84612e-20 0.00184831 2.01738e-07
-0.0145147 1.94586e-20 0.00427467 2.75478e-06
0.0145233 -1.26724e-20 0.00429208 2.93313e-06
0.0149685 0 0.00252404 2.67174e-07
-0.0149829 3.00624e-20 0.0025043 1.465e-07
-0.0149776 0 0.00275132 1.64149e-07
-0.0147025 -2.71051e-20 0.0040589 7.0127e-07
0.0147084 0 0.00408023 8.31122e-07
0.0149582 -1.2332e-20 0.00317892 3.22691e-07
-0.0146099 -2.71051e-20 0.0045237 3.53781e-06
-0.0149688 0 0.00315684 1.93122e-07
0.0153005 0 0.000292235 5.34118e-06
-0.0153009 2.71051e-20 0.000291878 5.0066e-06
0.0146196 0 0.00453529 3.90322e-06
0.0153021 2.71051e-20 0.000894041 1.00523e-06
-0.0153039 0 0.000892113 8.03126e-07
0.0153002 -2.71051e-20 0.00152928 4.76224e-07
-0.0153052 -5.42101e-20 0.00152357 2.71285e-07
-0.0146355 0 0.0048202 3.57056e-06
0.0146456 -6.61744e-24 0.00482779 3.97655e-06
-0.0149723 -7.88386e-21 0.00378401 3.81497e-07
0.0149713 2.97901e-20 0.00380142 5.18517e-07
0.0152929 2.71051e-20 0.00218496 2.95281e-07
-0.0153015 5.42101e-20 0.00217419 1.63457e-07
0.0152835 -2.71051e-20 0.00284024 2.82312e-07
-0.0152919 2.71051e-20 0.00282667 1.65993e-07
-0.0149633 -2.90903e-20 0.00442183 1.86243e-06
0.014969 7.21301e-21 0.00443194 2.11982e-06
-0.0156169 0 3.92127e-09 4.80354e-06
0.0156169 0 1.59541e-09 5.10458e-06
0.0156181 0 0.000584603 3.05117e-06
-0.0156185 -1.11957e-20 0.000584185 2.80337e-06
0.0156191 0 0.0012017 7.25738e-07
-0.0156207 7.49829e-21 0.00119995 5.28633e-07
0.0154662 0 0.00250915 3.50838e-07
-0.0149261 0 0.00477675 3.60329e-06
0.0152816 2.71051e-20 0.00347878 3.50565e-07
-0.0152852 0 0.00346631 2.08211e-07
0.0149333 2.71051e-20 0.00478413 4.04984e-06
-0.0156201 0 0.00172303 2.98987e-07
0.0156163 0 0.00184941 4.24188e-07
-0.0156199 0 0.00184524 2.45337e-07
-0.0154693 0 0.003148 2.46261e-07
0.0156092 0 0.00250487 3.74874e-07
-0.0156138 1.03398e-25 0.00249847 2.24656e-07
-0.0152764 -5.42101e-20 0.00409542 3.21707e-07
0.0152785 -5.42101e-20 0.00410448 4.61966e-07
0.015608 0 0.00259841 3.81318e-07
-0.0149898 -6.61744e-24 0.00508713 3.63294e-06
0.0149968 -6.61744e-24 0.00509235 4.17729e-06
0.0156006 -8.95009e-22 0.00315251 4.19491e-07
-0.0151689 3.65283e-21 0.00482334 2.67062e-06
-0.0156039 0 0.00314562 2.60558e-07
0.0151743 -2.36971e-20 0.00482866 3.09276e-06
-0.0156032 0 0.00318364 2.64773e-07
0.0159322 2.71051e-20 0.000292222 4.86896e-06
-0.0159323 5.42101e-20 0.000292065 4.60132e-06
0.0159282 0 0.000584568 2.8885e-06
0.0159329 2.71051e-20 0.000892712 9.2138e-07
-0.0159336 0 0.000891952 7.41391e-07
0.0159836 -1.03398e-25 2.31451e-21 4.78301e-06
-0.0153229 0 0.00461704 7.24735e-07
0.0159322 5.42101e-20 0.00152399 4.91333e-07
-0.015934 0 0.00152204 2.91255e-07
0.0153273 2.71051e-20 0.00462278 8.98647e-07
-0.015592 4.1359e-25 0.00378396 3.31326e-07
0.0155918 -2.53283e-20 0.0037897 5.23764e-07
0.0159284 -5.42101e-20 0.00217342 4.31224e-07
-0.0159311 -5.42101e-20 0.00217013 2.54443e-07
-0.0152682 0 0.00505663 3.66258e-06
0.0152733 0 0.00506088 4.30469e-06
-0.0160398 1.29247e-26 0.00184385 2.96177e-07
0.0159217 2.71051e-20 0.00282271 4.88442e-07
-0.0159241 -5.42101e-20 0.00281877 3.13618e-07
-0.0155885 -3.96352e-20 0.00438984 6.49439e-07
0.0155908 -2.47426e-20 0.00439405 9.15809e-07
-0.0162467 0 4.50343e-09 4.33356e-06
0.0162467 0 1.14466e-09 4.55232e-06
0.0162034 -1.61559e-27 0.00120022 6.81932e-07
-0.0153431 -6.61744e-24 0.00535315 5.53785e-06
0.0153477 6.61744e-24 0.00535654 6.66231e-06
0.0162471 8.31836e-21 0.000584533 2.72124e-06
-0.0162472 -2.39986e-20 0.00058442 2.53188e-06
0.0159122 2.71051e-20 0.00346529 5.56325e-07
-0.0159131 0 0.00346161 3.54267e-07
0.0162478 2.9653e-22 0.00120011 6.78603e-07
-0.0162481 1.03398e-25 0.00119968 5.08939e-07
-0.0155338 -1.10412e-20 0.00491869 3.25862e-06
0.0162477 -8.07794e-27 0.00123763 6.68556e-07
0.0155374 -2.06994e-20 0.00492201 3.98378e-06
0.0162469 2.58494e-26 0.00184409 5.0617e-07
-0.0162477 -1.29247e-26 0.00184316 3.21345e-07
-0.0162472 2.58494e-26 0.00193845 3.31757e-07
-0.015901 0 0.00409355 4.40844e-07
0.0159019 0 0.00409655 7.25659e-07
0.0162431 0 0.00249417 6.04493e-07
-0.016244 0 0.00249283 3.92326e-07
0.0162387 2.58494e-26 0.00283855 6.87034e-07
0.0162348 0 0.0031392 7.59092e-07
-0.0162354 0 0.00313774 4.90943e-07
-0.0156894 0 0.00525034 7.41083e-06
0.0156925 -2.71051e-20 0.00525277 9.0185e-06
-0.0162334 -5.16988e-26 0.00321975 4.96737e-07
-0.0158705 0 0.0047214 1.10429e-06
0.0158727 -2.71051e-20 0.00472386 1.58595e-06
0.0165604 -2.71051e-20 0.000292258 4.23635e-06
-0.0165604 -2.71051e-20 0.000292218 4.06636e-06
0.0165607 0 0.000892189 7.99215e-07
-0.0165609 0 0.000892028 6.62338e-07
0.0165606 2.71051e-20 0.00152156 4.96597e-07
-0.016561 -2.71051e-20 0.00152113 3.34959e-07
-0.0162196 -4.61319e-21 0.00378044 5.36348e-07
0.0162198 -1.89987e-20 0.00378182 8.63195e-07
-0.0156952 0 0.00561829 7.30302e-06
0.0156978 0 0.00562028 8.86108e-06
0.0165588 2.71051e-20 0.00216766 6.04564e-07
-0.0165593 2.71051e-20 0.00216703 4.0417e-07
-0.0161896 1.76851e-20 0.00442818 7.17521e-07
0.0161906 2.18425e-20 0.00442953 1.14132e-06
0.0165536 -2.71051e-20 0.00281397 8.90437e-07
-0.016554 5.42101e-20 0.00281321 5.95176e-07
-0.0168738 0 4.79187e-09 3.81554e-06
0.0168738 0 1.76193e-09 3.96182e-06
-0.0168739 -2.55938e-20 0.00058458 2.23982e-06
0.0168739 -2.81035e-21 0.000584593 2.37238e-06
-0.0165426 -2.71051e-20 0.00345663 6.9893e-07
0.0165425 0 0.00345738 1.09781e-06
-0.0161125 2.40213e-20 0.0051374 3.68421e-06
0.0161142 4.04326e-21 0.00513878 4.67728e-06
0.0168742 -9.76008e-21 0.00119965 6.56785e-07
-0.0168743 -1.12436e-20 0.0011996 5.21642e-07
-0.0160304 5.42101e-20 0.00554246 7.19536e-06
0.0168741 3.23117e-27 0.00173823 6.66882e-07
0.0160322 0 0.00554379 8.70376e-06
-0.0168741 -4.0643e-21 0.00184202 4.78634e-07
0.0168741 -3.23117e-27 0.00184212 6.6883e-07
-0.0165205 -5.42101e-20 0.00410417 6.54296e-07
0.0165209 -2.71051e-20 0.00410496 1.07751e-06
-0.0168728 1.29247e-26 0.00226182 6.26829e-07
0.016872 -2.58494e-26 0.00248968 1.02216e-06
-0.0168721 1.29247e-26 0.00248953 7.07214e-07
-0.0160456 0 0.00588237 7.05791e-06
0.0160471 0 0.0058834 8.6932e-06
0.0168056 -9.69352e-27 0.00313292 1.3533e-06
-0.0168654 -2.58494e-26 0.00313207 9.25633e-07
0.0168654 1.2324e-20 0.00313226 1.41557e-06
-0.0164772 -2.71051e-20 0.00477307 6.63039e-07
0.0168651 -3.23117e-27 0.00314406 1.41811e-06
0.0164781 2.71051e-20 0.00477392 1.16933e-06
-0.0168631 -2.58494e-26 0.00322486 9.31385e-07
0.0171867 0 0.000292305 3.68757e-06
-0.0171867 -2.71051e-20 0.000292302 3.56498e-06
0.0171869 -5.42101e-20 0.000892117 7.15645e-07
-0.0171869 2.71051e-20 0.000892093 6.15716e-07
0.0171305 0 0.0018419 8.37403e-07
-0.0163088 -1.01578e-20 0.00559077 5.20972e-06
0.01631 -2.39154e-20 0.00559165 6.56096e-06
0.0171869 5.42101e-20 0.00152074 6.12572e-07
-0.0171869 -2.71051e-20 0.00152071 4.70025e-07
-0.0168494 2.06795e-25 0.00377631 9.65571e-07
0.0168495 1.30306e-20 0.00377656 1.5542e-06
0.017186 -5.42101e-20 0.00216542 9.61501e-07
-0.0171861 5.42101e-20 0.00216535 7.05239e-07
-0.016518 2.71051e-20 0.00536714 1.32954e-06
0.016519 -2.71051e-20 0.00536792 2.07832e-06
-0.0168212 5.60332e-21 0.00443102 8.86309e-07
0.0168216 2.32297e-20 0.00443137 1.49541e-06
-0.0163928 0 0.00584542 6.92066e-06
0.0163937 -2.71051e-20 0.00584612 8.68264e-06
0.0171824 -2.71051e-20 0.0028096 1.62775e-06
-0.0171824 0 0.00280953 1.12132e-06
-0.0174996 8.27181e-25 4.65707e-09 3.40319e-06
0.0174996 0 2.44541e-09 3.5434e-06
-0.0163956 0 0.00614428 6.54864e-06
-0.0174996 -3.09442e-20 0.000584661 2.02905e-06
0.0174996 1.85347e-20 0.00058466 2.14448e-06
0.0163962 0 0.00614484 8.19451e-06
-0.0171728 2.71051e-20 0.00345119 1.28356e-06
0.0171728 0 0.00345131 2.0401e-06
-0.0174998 0 0.0011996 6.24685e-07
0.0174998 -3.25385e-20 0.0011996 7.44471e-07
-0.0168072 1.8466e-20 0.00507468 9.62566e-07
0.0168078 4.87209e-21 0.00507514 1.63633e-06
-0.0174997 0 0.00184159 8.28906e-07
0.0174997 0 0.00184159 1.0801e-06
-0.0174397 1.61559e-27 0.00248806 1.25957e-06
0.0174993 -3.23117e-27 0.00212642 1.41915e-06
-0.0171543 2.71051e-20 0.00409713 1.22282e-06
0.0171545 2.71051e-20 0.00409729 1.99733e-06
0.0174987 6.46235e-27 0.00248791 1.84945e-06
-0.0174987 9.50713e-21 0.00248791 1.31702e-06
-0.0174983 3.23117e-27 0.00255404 1.35332e-06
-0.0167741 3.0341e-20 0.00574437 3.47266e-06
0.0167746 9.70779e-21 0.00574481 4.588e-06
-0.0174944 1.29247e-26 0.00312778 1.66818e-06
0.0174944 -1.26602e-20 0.00312779 2.52883e-06
-0.0171359 2.71051e-20 0.00474309 1.00526e-06
0.0171362 5.42101e-20 0.00474333 1.7382e-06
-0.0167048 0 0.00611288 6.17702e-06
0.0167053 0 0.00611327 7.7067e-06
0.017492 0 0.00326736 2.57263e-06
-0.017491 0 0.00333122 1.67918e-06
0.0178123 0 0.000292339 3.3993e-06
-0.0178123 0 0.000292339 3.24147e-06
-0.0178123 -2.71051e-20 0.000892127 6.50256e-07
0.0178123 0 0.000892128 7.30758e-07
-0.0178123 -5.42101e-20 0.00152058 7.62416e-07
0.0178123 2.71051e-20 0.00152058 9.19438e-07
-0.0174836 2.58494e-26 0.00376687 1.70274e-06
0.0174836 2.07376e-20 0.00376691 2.7294e-06
-0.0167191 1.32349e-23 0.00643605 6.23721e-06
0.0167195 0 0.0064363 7.88234e-06
0.0178119 -2.71051e-20 0.00216457 1.82763e-06
-0.0178119 2.71051e-20 0.00216457 1.37836e-06
-0.017115 0 0.00539431 8.33767e-07
0.0171154 -2.71051e-20 0.0053946 1.53857e-06
-0.0174667 -3.87098e-20 0.00441055 1.52003e-06
0.0174668 -2.93517e-20 0.00441062 2.5369e-06
-0.0178098 2.71051e-20 0.00280703 2.05876e-06
0.0178098 2.71051e-20 0.00280703 2.97432e-06
-0.0169664 -2.12883e-20 0.00617963 4.6193e-06
0.0169667 -2.29162e-20 0.00617988 5.95428e-06
-0.0181249 8.27181e-25 4.21997e-09 3.21719e-06
0.0181249 4.1359e-25 2.86614e-09 3.42929e-06
-0.0178039 -2.71051e-20 0.00344471 2.20342e-06
0.0178039 5.42101e-20 0.00344474 3.46461e-06
-0.0181249 -3.85977e-20 0.000584697 1.99157e-06
0.0181249 -1.09296e-20 0.000584697 2.13261e-06
-0.0181249 2.39707e-21 0.00119962 8.90757e-07
0.0181249 8.70287e-21 0.00119962 1.01763e-06
-0.0174472 8.06418e-21 0.00505795 1.18822e-06
0.0174474 1.62624e-21 0.00505807 2.11952e-06
-0.017167 -2.71051e-20 0.00597246 1.28581e-06
0.0171673 -8.13152e-20 0.00597271 1.9809e-06
-0.0170427 8.13152e-20 0.00643802 6.29737e-06
-0.0181249 0 0.00184147 1.51882e-06
0.0181249 3.21988e-21 0.00184147 1.92164e-06
0.0170429 0 0.0064382 8.05792e-06
-0.017793 0 0.00408287 2.09265e-06
0.017793 2.71051e-20 0.00408289 3.40214e-06
0.0181245 0 0.00242045 3.11201e-06
-0.0181245 0 0.0024871 2.36349e-06
0.0181245 0 0.0024871 3.24905e-06
-0.017907 1.29247e-26 0.00376084 2.36762e-06
-0.0170214 0 0.00674878 5.80835e-06
0.0170216 0 0.00674896 7.39444e-06
-0.0181236 3.23117e-27 0.00276431 2.53428e-06
-0.017444 2.95734e-20 0.00568992 1.03555e-06
0.0174442 1.32349e-22 0.00569009 1.82746e-06
0.0179724 0 0.00375993 3.84779e-06
-0.0181225 0 0.00312454 2.75622e-06
0.0181225 0 0.00312455 4.06281e-06
-0.0177779 -2.71051e-20 0.00472459 1.75607e-06
0.017778 2.71051e-20 0.00472464 3.00413e-06
-0.0184375 0 0.000292351 3.19291e-06
0.0184375 0 0.000292351 3.45928e-06
-0.0184375 0 0.000892166 8.42478e-07
0.0184375 0 0.000892167 8.99702e-07
0.0184374 -2.71051e-20 0.00152054 1.52644e-06
-0.0184374 2.71051e-20 0.00152054 1.31203e-06
-0.0181171 1.29247e-26 0.00375785 2.69762e-06
0.0181172 0 0.00375786 4.17903e-06
0.0183579 -1.61559e-27 0.00248696 3.92978e-06
0.0181148 0 0.00390619 4.10261e-06
-0.0174092 4.04723e-20 0.0063534 3.12978e-06
0.0174094 1.25864e-20 0.00635351 4.20173e-06
-0.0181139 0 0.00396148 2.59611e-06
-0.017766 2.71051e-20 0.0053638 1.16461e-06
0.0177661 0 0.00536388 2.20646e-06
0.0184373 0 0.0021642 3.4154e-06
-0.0184373 -2.71051e-20 0.0021642 2.62402e-06
-0.0173271 -2.71051e-20 0.00672776 5.31943e-06
0.0173272 -2.71051e-20 0.00672785 6.73102e-06
-0.0181071 2.58494e-26 0.00439391 2.38055e-06
0.0181071 -4.85384e-21 0.00439392 3.85136e-06
0.0184364 2.71051e-20 0.0028054 4.77101e-06
-0.0184364 -2.71051e-20 0.0028054 3.3877e-06
-0.0173238 0 0.00706122 5.28688e-06
0.0173239 -1.32349e-23 0.00706123 6.74525e-06
-0.0177469 -2.71051e-20 0.00601017 8.42952e-07
0.017747 0 0.00601025 1.58222e-06
-0.01875 0 3.911e-09 3.35708e-06
0.01875 0 3.03741e-09 3.6855e-06
-0.0184337 -2.71051e-20 0.00343972 3.36941e-06
0.0184337 0 0.00343972 5.0341e-06
-0.01875 -1.26453e-20 0.000584711 2.22439e-06
0.01875 1.94291e-20 0.000584711 2.3977e-06
-0.0180931 2.86184e-20 0.00503408 1.81981e-06
0.0180932 2.89029e-20 0.00503411 3.16237e-06
-0.01875 2.04593e-21 0.00119964 1.47094e-06
0.01875 1.00276e-20 0.00119964 1.58589e-06
-0.01875 1.99221e-20 0.00184144 2.70217e-06
0.01875 3.18214e-20 0.00184144 3.29361e-06
-0.0175849 -4.2881e-21 0.0067982 3.95083e-06
0.017585 1.36319e-21 0.00679826 5.13621e-06
-0.0184279 -2.71051e-20 0.00407228 3.11604e-06
0.0184279 -5.42101e-20 0.0040723 4.80339e-06
-0.0187498 -3.46215e-20 0.00248672 3.84092e-06
0.0187498 -3.23117e-27 0.00248672 5.07315e-06
0.0187496 -1.61559e-27 0.0026799 5.24788e-06
-0.0184308 0 0.00438836 2.77731e-06
-0.0180758 3.04278e-20 0.00567799 1.22e-06
0.0180758 2.94824e-20 0.00567802 2.2978e-06
-0.0177903 -2.71051e-20 0.00659091 1.18022e-06
0.0177904 0 0.00659098 1.79975e-06
-0.0187494 -3.23117e-27 0.00293764 4.01505e-06
0.0184842 0 0.00438746 4.39072e-06
0.0187492 0 0.00312276 5.64842e-06
-0.0187492 3.23117e-27 0.00312276 4.08654e-06
-0.0184184 0 0.0047076 2.54829e-06
0.0184184 5.42101e-20 0.0047076 4.18261e-06
-0.0176528 0 0.00706059 5.25433e-06
0.0176528 2.71051e-20 0.00706062 6.75948e-06
-0.0190625 -2.71051e-20 0.000292356 3.52123e-06
0.0190625 -2.71051e-20 0.000292356 3.9117e-06
-0.0190625 0 0.000892176 1.30465e-06
0.0190625 0 0.000892176 1.2789e-06
-0.0176265 -1.32349e-23 0.00737367 4.79606e-06
0.0176265 0 0.00737369 6.11183e-06
-0.0187471 2.58494e-26 0.00375263 3.76882e-06
0.0187471 0 0.00375264 5.39662e-06
0.0190625 0 0.00152054 2.65284e-06
-0.0190625 -2.71051e-20 0.00152054 2.43604e-06
-0.0180691 -1.06541e-20 0.00630978 9.5582e-07
0.0180692 4.73147e-21 0.00630982 1.72048e-06
-0.0184047 0 0.0053471 1.80897e-06
0.0184047 2.71051e-20 0.00534713 3.25308e-06
0.0190624 0 0.00216406 5.58405e-06
-0.0190624 0 0.00216406 4.43946e-06
-0.0187422 0 0.00438303 3.15891e-06
0.0187422 2.58494e-26 0.00438304 4.75965e-06
-0.0190622 -2.71051e-20 0.00280458 4.90856e-06
0.0190622 2.71051e-20 0.00280458 6.51576e-06
0.019294 -5.16988e-26 6.84918e-45 4.27826e-06
-0.0180246 2.00707e-20 0.00697622 2.60525e-06
0.0180246 -2.91366e-20 0.00697625 3.49415e-06
0.0187368 0 0.00475082 4.27312e-06
-0.0183915 0 0.00598567 1.07094e-06
0.0183916 2.71051e-20 0.00598568 2.15761e-06
-0.0187351 1.29247e-26 0.00486052 2.60036e-06
0.0190612 -2.71051e-20 0.00343712 6.26967e-06
-0.0190612 -2.71051e-20 0.00343712 4.67721e-06
-0.019375 0 4.06668e-09 4.01406e-06
0.019375 -1.03398e-25 4.52376e-10 4.36654e-06
0.019375 -5.16988e-26 0.000278199 3.71992e-06
-0.019375 -1.08675e-20 0.000584717 2.911e-06
0.019375 1.76076e-21 0.000584716 3.00748e-06
-0.0179362 2.71051e-20 0.00735206 4.3377e-06
0.0179362 2.71051e-20 0.00735208 5.46401e-06
0.0187328 -1.20244e-21 0.00501785 3.91988e-06
-0.0187328 0 0.00501785 2.41632e-06
-0.019375 4.87695e-21 0.00119964 2.61954e-06
0.019375 -2.11878e-20 0.00119964 2.62956e-06
-0.019375 7.35881e-22 0.00184143 4.49291e-06
0.019375 -9.90321e-21 0.00184143 5.18163e-06
-0.0190587 0 0.00406623 3.90702e-06
0.0190587 2.71051e-20 0.00406624 5.47444e-06
0.0179293 0 0.00768642 5.34998e-06
-0.0179292 0 0.00768646 4.25394e-06
-0.0188685 6.46235e-27 0.00501569 2.46518e-06
-0.0183671 0 0.00663351 7.16405e-07
0.0183672 -5.42101e-20 0.00663353 1.34794e-06
-0.019375 2.80885e-20 0.0024866 5.62261e-06
0.019375 3.96519e-20 0.0024866 6.95782e-06
-0.0187185 3.41212e-23 0.00565746 1.64656e-06
0.0187186 -2.65227e-20 0.00565747 2.96079e-06
-0.0193459 2.62533e-27 0.00312215 5.31138e-06
0.0193748 -8.07794e-28 0.00300189 6.87207e-06
0.01897 2.58494e-26 0.00501408 3.95204e-06
-0.0190533 2.71051e-20 0.00469698 3.05593e-06
0.0190533 0 0.00469699 4.57031e-06
0.0193748 8.07794e-28 0.00312212 6.85207e-06
-0.0193748 -2.01948e-28 0.00312212 5.37068e-06
-0.0193748 1.00974e-27 0.00313568 5.35184e-06
0.0181955 1.22687e-20 0.00742325 4.07591e-06
-0.0181955 -1.80656e-20 0.00742325 3.18763e-06
-0.0196875 0 0.000292358 4.50688e-06
0.0196875 -2.71051e-20 0.000292358 4.82139e-06
-0.0196875 0 0.00089218 2.27591e-06
0.0196875 0 0.00089218 1.97443e-06
0.0186985 -3.22104e-21 0.0063019 1.98466e-06
-0.0186985 1.21273e-20 0.0063019 1.01318e-06
-0.0193742 6.46235e-27 0.00375048 4.49808e-06
0.0193742 0 0.00375048 5.93257e-06
0.0196875 -2.71051e-20 0.00152054 4.64107e-06
-0.0196875 2.71051e-20 0.00152054 4.48553e-06
-0.0184047 0 0.00721591 9.69607e-07
0.0184047 -2.71051e-20 0.00721592 1.42564e-06
-0.0190436 0 0.00533179 2.24269e-06
0.0190437 2.71051e-20 0.00533179 3.66226e-06
0.0196875 -2.71051e-20 0.00216401 7.85417e-06
-0.0196875 2.71051e-20 0.00216401 6.61434e-06
-0.0182613 0 0.00768613 4.17017e-06
0.0182613 0 0.00768613 5.23592e-06
-0.0193723 0 0.00437779 3.50873e-06
0.0193723 2.58494e-26 0.00437779 4.88662e-06
0.0196874 0 0.00280433 7.87449e-06
-0.0196874 0 0.00280433 6.52659e-06
-0.0182323 -1.32349e-23 0.00799942 3.83231e-06
0.0182323 0 0.00799942 4.7198e-06
-0.0186874 3.62636e-20 0.00693489 7.57331e-07
0.0186875 -2.53117e-21 0.00693493 1.34413e-06
-0.0190287 2.71051e-20 0.00597154 1.46165e-06
0.0190287 -5.42101e-20 0.00597155 2.7637e-06
0.0196872 0 0.00343614 6.75003e-06
-0.0196872 -2.71051e-20 0.00343614 5.37184e-06
-0.02 0 4.58353e-09 5.60719e-06
0.02 2.06795e-25 9.31731e-10 5.56251e-06
-0.0193674 0 0.00500776 2.64473e-06
0.0193674 -5.16988e-26 0.00500776 4.00594e-06
0.02 2.58494e-26 0.000467287 4.36346e-06
-0.02 -2.93322e-20 0.000584718 4.38081e-06
0.02 1.94111e-20 0.000584716 4.06214e-06
0.0197651 0 0.00312203 7.20564e-06
-0.02 1.35382e-20 0.00119965 4.54534e-06
0.02 -1.89486e-21 0.00119965 4.2604e-06
0.0193626 2.58494e-26 0.00531036 3.61264e-06
-0.02 -3.59029e-20 0.00184143 6.87388e-06
0.02 2.54179e-20 0.00184143 7.45203e-06
-0.0193616 0 0.00537394 2.20205e-06
0.0196863 0 0.00406358 5.23545e-06
-0.0196863 0 0.00406358 4.03466e-06
0.0186372 8.86076e-21 0.00760237 2.66898e-06
-0.0186372 -6.02187e-22 0.00760238 2.07432e-06
-0.0190127 0 0.0066109 8.08863e-07
0.0190127 0 0.00661089 1.67335e-06
-0.02 6.69831e-21 0.00248657 7.43393e-06
0.02 -3.33276e-20 0.00248657 8.62549e-06
0.0193574 1.50816e-21 0.00564266 3.18073e-06
-0.0193574 2.58494e-26 0.00564266 1.87718e-06
-0.0185451 0 0.00797829 3.49437e-06
0.0185451 2.71051e-20 0.00797829 4.20353e-06
-0.0196838 0 0.00469127 3.03285e-06
0.0196838 2.71051e-20 0.00469127 4.26318e-06
-0.02 2.75628e-20 0.00312197 6.21429e-06
0.02 0 0.00312197 7.4184e-06
0.02 0 0.00325476 7.04061e-06
-0.0199999 1.61559e-27 0.0033983 5.49533e-06
0.0185356 0 0.00831268 4.10413e-06
-0.0185355 0 0.00831272 3.47765e-06
-0.0203125 0 0.000292358 6.70749e-06
0.0203125 -2.71051e-20 0.000292358 6.30365e-06
-0.0189844 -2.71051e-20 0.00725983 5.2193e-07
0.0189845 -2.71051e-20 0.00725984 9.33409e-07
0.0203125 0 0.000892183 3.10106e-06
-0.0203125 2.71051e-20 0.000892183 3.99368e-06
0.0193417 -2.11953e-20 0.00628271 2.27433e-06
-0.0193417 -9.31405e-21 0.00628271 1.19135e-06
0.0199998 -1.61559e-27 0.00374985 5.63202e-06
-0.0199998 0 0.00374985 4.58066e-06
-0.0203125 -5.42101e-20 0.00152054 7.46696e-06
0.0203125 0 0.00152054 7.37481e-06
0.0196781 -2.71051e-20 0.00532193 3.52196e-06
-0.0196781 -2.71051e-20 0.00532193 2.24112e-06
-0.0203125 -2.71051e-20 0.002164 8.93193e-06
0.0203125 0 0.002164 9.94328e-06
0.0188063 2.09508e-20 0.00805025 3.10447e-06
-0.0188063 -1.5326e-20 0.00805025 2.59717e-06
-0.0199992 -1.29247e-26 0.00437577 3.34057e-06
0.0199992 0 0.00437577 4.31181e-06
-0.019683 0 0.00563764 1.85358e-06
-0.0203125 2.71051e-20 0.00280427 7.66626e-06
0.0203125 -2.71051e-20 0.00280427 8.8328e-06
0.0193191 3.50642e-20 0.00692789 1.37535e-06
-0.0193191 1.54782e-20 0.00692789 6.91474e-07
0.0197473 1.29247e-26 0.00563665 3.04765e-06
0.0196677 0 0.00595699 2.76674e-06
-0.0196677 -2.71051e-20 0.00595699 1.55544e-06
-0.019019 2.71051e-20 0.00784353 7.62935e-07
0.019019 -2.71051e-20 0.00784353 1.02196e-06
0.0203124 2.71051e-20 0.00343589 6.2235e-06
-0.0203124 2.71051e-20 0.00343589 5.29914e-06
-0.0199972 2.58494e-26 0.00500279 2.50038e-06
0.0199972 2.58494e-26 0.00500279 3.55637e-06
0.018871 -2.71051e-20 0.00831348 4.0047e-06
-0.018871 -5.42101e-20 0.00831348 3.46092e-06
-0.020625 -8.27181e-25 5.04458e-09 8.72714e-06
0.020625 0 1.50663e-09 7.38319e-06
0.020625 0 0.000563462 5.71625e-06