# omega  POINT_DATA 45383
# x  y  z  omega
0.01 3.4489e-27 1.48997e-07 919.857
-0.01 2.10863e-26 8.48436e-08 920.316
-0.01 -4.1359e-25 0.000678316 1044
0.01 1.29247e-26 0.00067832 1042.38
0.0100335 -2.58494e-26 0.00067574 1025.95
-0.01 0 0.00137373 1288.72
0.01 0 0.00137372 1283.64
-0.01 3.30872e-24 0.00208696 1165.46
0.01 1.57772e-30 0.002087 1163.72
0.0101864 -2.06795e-25 0.00133473 1095.59
-0.0102702 2.71051e-20 0.000327905 920.316
0.0102702 0 0.000327954 919.855
-0.0102616 -2.71051e-20 0.000986823 1169.39
0.0102619 0 0.000986956 1166.59
-0.0102382 0 0.00161862 1409.77
0.0102389 -2.71051e-20 0.00161883 1402.37
-0.0105473 0 0.000241058 834.362
-0.0105508 0 8.49672e-08 869.265
0.0105508 -2.06795e-25 8.59948e-08 868.858
-0.0105415 -1.7018e-20 0.00063654 777.08
0.0105418 1.3268e-20 0.00063661 776.675
-0.0105237 0 0.00126378 755.877
0.0105246 -3.02368e-20 0.00126397 754.325
-0.0105066 -5.27079e-21 0.00172222 887.181
0.0105082 1.83047e-20 0.00172263 885.83
-0.0104981 0 0.00202328 948.669
0.0105003 -2.71051e-20 0.00202395 951.208
-0.0104973 3.30872e-24 0.00235191 1125.92
0.0105018 -1.65436e-24 0.00235298 1129.5
-0.0108324 2.71051e-20 0.000312949 817.333
0.0108326 -2.71051e-20 0.000313002 816.982
-0.0108211 2.71051e-20 0.000935918 225.584
0.0108219 2.71051e-20 0.000936095 227.138
-0.0107987 0 0.00152672 241.856
0.0108006 0 0.00152718 243.697
0.0111231 0 1.4102e-08 838.037
-0.0111231 0 1.1833e-08 838.351
-0.0111217 8.27181e-25 0.00054366 552.998
-0.0109001 0 0.00228558 1301.74
-0.0111215 0 0.000612314 516.963
0.011122 -1.07835e-20 0.00061238 517.491
0.0109057 0 0.00228695 1306.36
-0.0109929 0 0.00190209 594.334
0.0109964 -1.87952e-20 0.00190279 596.704
-0.0111 0 0.00123235 184.252
0.0111015 1.75966e-20 0.00123258 185.728
-0.0109856 0 0.00261204 1568.27
0.0109947 0 0.00261423 1580.01
-0.0114284 -2.71051e-20 0.000305075 859.948
0.0114286 0 0.000305108 859.674
-0.0112129 -7.82513e-21 0.00232217 1151.24
0.0112195 2.75319e-20 0.00232367 1158.49
-0.0114246 -2.71051e-20 0.00092111 154.234
0.0114256 -2.71051e-20 0.00092126 155.305
-0.0113817 2.71051e-20 0.0015635 111.663
0.0113839 0 0.00156383 113.067
-0.011173 -4.1359e-25 0.00271189 1487.07
-0.0114068 -2.71051e-20 0.00210155 301.385
0.011411 0 0.00210244 303.02
-0.0113382 2.71051e-20 0.00256301 1831.08
0.0113467 0 0.00256544 1849.86
0.0117295 0 6.31228e-09 871.677
-0.0117295 -4.1359e-25 4.80147e-09 872.02
-0.0117405 0 0.00051944 565.247
-0.0117423 -1.03398e-25 0.00060318 515.792
0.0117428 7.38507e-21 0.000603251 516.25
-0.0115321 -2.06795e-25 0.00238299 918.09
-0.0117315 0 0.00123297 123.17
0.0117329 1.46188e-20 0.00123324 124.798
-0.0114582 0 0.00286379 1363.53
0.011472 0 0.00286721 1386.31
-0.0117202 0 0.00185692 166.255
0.0117223 -1.09221e-20 0.00185737 168.789
-0.0116916 1.03398e-25 0.00211226 472.317
-0.0116585 2.78171e-20 0.00240709 825.724
0.0116635 2.72903e-20 0.00240866 838.973
-0.0120571 2.71051e-20 0.000300839 884.409
0.0120573 0 0.000300897 883.995
-0.0120651 0 0.000916399 148.436
0.0120657 -2.71051e-20 0.000916727 149.929
-0.0120089 -1.03398e-25 0.00187021 136.638
-0.0120608 0 0.00155099 77.0748
0.0120609 -2.71051e-20 0.00155169 79.676
-0.0118568 -2.71051e-20 0.00273895 903.718
0.0118619 2.71051e-20 0.00274195 930.524
0.012035 2.71051e-20 0.00219403 167.218
-0.0120372 2.71051e-20 0.00219395 162.683
-0.0119121 0 0.00310559 1055.85
0.0119304 0 0.00311016 1108.5
0.0123683 0 2.71643e-09 894.53
-0.0123683 0 2.66988e-09 895.279
-0.0123892 -1.55096e-25 0.000564551 546.559
-0.0123904 -2.58494e-26 0.00059722 526.379
0.0123907 -6.09301e-21 0.000597448 526.907
-0.0123962 0 0.00122692 109.492
0.0123962 2.18467e-20 0.00122803 111.862
-0.0123949 0 0.00129009 108.42
0.0123792 1.92452e-20 0.00188965 101.45
-0.0123827 -1.15441e-20 0.00188742 98.2859
-0.0125417 -5.16988e-26 0.00059593 528.742
0.0123193 -1.44194e-20 0.00260601 577.921
-0.0123305 -1.39827e-20 0.00260668 552.992
-0.0125688 2.58494e-26 0.00122537 108.376
0.0122774 5.42101e-20 0.00301148 1283.5
-0.0122788 2.71051e-20 0.00300901 1205.53
-0.0127075 2.71051e-20 0.00029719 906.313
0.0127075 0 0.000297361 905.225
0.0127224 5.42101e-20 0.000910669 151.981
-0.0127228 0 0.000909514 149.759
-0.0123477 0 0.00333768 1431.16
0.0123698 6.61744e-24 0.00334298 1553.71
0.0127185 0 0.0015595 64.7769
-0.0127224 -5.42101e-20 0.00155586 61.5294
0.0126865 -2.71051e-20 0.00223766 93.1638
-0.0127017 2.71051e-20 0.00223253 90.9567
0.0125633 3.5132e-20 0.00303647 1145.04
-0.0125873 2.72324e-20 0.00304271 1056.35
-0.0130258 0 2.56512e-09 915.269
0.0130258 0 1.94236e-09 913.533
0.0127297 0 0.00279908 304.114
0.0130472 -4.14488e-20 0.000592235 537.078
-0.0130474 -5.12438e-22 0.000591621 536.641
-0.0127816 0 0.0028142 279.483
0.0126842 0 0.00327272 1820
0.0130549 -1.93221e-20 0.00122427 108.09
-0.0130573 -4.99638e-21 0.00122099 105.217
-0.0127078 -5.42101e-20 0.00328029 1653.76
0.0130409 1.73815e-20 0.00189495 69.9999
-0.0130523 -1.41804e-20 0.00188526 66.5123
-0.0127679 0 0.0035615 1827.35
0.0130294 -1.15689e-20 0.00254415 161.67
0.0127922 0 0.0035676 1364.33
-0.0130668 1.01148e-20 0.00252843 144.377
0.0129755 1.26195e-20 0.00310441 832.947
0.0133645 0 0.000294678 921.859
-0.0133647 0 0.0002943 924.243
0.013377 0 0.000905403 154.799
-0.0133788 2.71051e-20 0.000902908 151.915
-0.0130842 1.61383e-20 0.00316077 952.645
0.0133744 2.71051e-20 0.00155542 59.1834
-0.0133828 2.71051e-20 0.00154643 56.0418
-0.013073 -2.71051e-20 0.00349728 1999.21
0.0133614 -2.71051e-20 0.00222042 63.7081
-0.0133875 2.71051e-20 0.0021975 58.466
0.0131593 2.71051e-20 0.00342851 913.843
0.0133331 0 0.0028787 169.853
-0.0136859 0 1.99115e-09 929.659
0.0136859 2.06795e-25 1.20838e-09 926.759
-0.0133972 2.71051e-20 0.00283002 135.823
-0.0131766 0 0.00377904 2338.84
0.0137005 -3.18841e-20 0.000588479 544.931
-0.0137012 -1.04183e-21 0.000587422 544.654
0.0132008 0 0.00378645 1054.94
0.0137066 -6.16394e-21 0.00121712 107.748
-0.0137113 3.09643e-20 0.00121149 104.394
-0.0133317 1.11537e-20 0.00353346 1698.61
0.0136964 -3.10408e-20 0.00188403 56.8156
-0.0137136 1.11279e-20 0.00186546 52.4918
-0.0134741 0 0.00333584 433.071
0.0136686 -1.20677e-20 0.00256371 92.54
-0.0137152 -1.23908e-20 0.00251516 77.7876
-0.0134565 0 0.0037461 2676.22
0.0136041 -1.80358e-20 0.00329192 551.085
0.0140177 -2.71051e-20 0.000293139 931.631
-0.0140182 -2.71051e-20 0.000292601 935.044
0.0135422 2.71051e-20 0.0036961 1194.9
0.0140256 -2.71051e-20 0.000900278 157.663
-0.0140284 0 0.000896824 154.254
-0.0137342 -9.32398e-21 0.00311436 222.004
0.014023 -2.71051e-20 0.00154615 57.3748
-0.0140338 2.71051e-20 0.00153371 53.5691
-0.0135654 0 0.00401386 1917.22
0.0135836 -6.61744e-24 0.00402855 1305.67
0.0140057 2.71051e-20 0.00221874 47.2153
-0.0137123 -3.40468e-21 0.00361961 1177.41
-0.0140348 -2.71051e-20 0.00218502 42.0459
0.0139704 0 0.00290901 87.9208
-0.0140398 -5.42101e-20 0.00281908 73.9404
0.0138292 3.56647e-20 0.00373726 970.492
-0.0143389 0 2.44464e-09 937.216
0.0143389 -2.06795e-25 1.44847e-09 933.814
0.0143466 -4.82205e-21 0.000586141 549.664
-0.0143476 -3.25982e-20 0.00058495 549.187
0.0143501 2.75087e-20 0.00121019 108.628
-0.0143553 -9.53879e-21 0.00120417 104.503
-0.0138945 0 0.00393317 1161.23
-0.0140375 2.71051e-20 0.00343143 213.523
0.0140303 5.42101e-20 0.00350658 269.646
0.0143403 -1.58557e-20 0.00187312 49.8822
-0.0143565 0 0.00185406 45.4632
0.0139282 2.71051e-20 0.00399009 1415.87
0.0143175 1.86488e-21 0.00255235 55.6603
-0.0139239 0 0.00428422 1265.03
-0.0143528 -2.3069e-20 0.00250721 48.116
0.0139403 0 0.00429658 1455.7
0.0146631 5.42101e-20 0.000292462 935.979
-0.0146635 -2.71051e-20 0.000291927 939.37
0.0143152 -1.14068e-20 0.00320647 132.084
-0.0143427 -1.40377e-20 0.00314905 108.073
0.0146669 -2.71051e-20 0.000896444 159.925
-0.0146697 0 0.00089329 155.751
0.014725 -1.03398e-25 3.73197e-16 935.547
0.0146638 -2.71051e-20 0.00153733 57.4718
-0.014673 2.71051e-20 0.00152674 52.738
-0.0142998 -2.53862e-20 0.00383371 654.397
0.0146505 2.71051e-20 0.00220325 37.5354
0.0143063 1.87274e-20 0.0038743 758.589
0.0148154 -2.58494e-26 0.000585312 551.357
-0.0146709 0 0.00217815 33.5285
-0.0142437 -2.71051e-20 0.00422231 1368.61
-0.014746 0 0.00185053 43.9389
0.014255 0 0.00424396 1495.41
0.0148484 0 0.00120616 109.721
0.0146399 0 0.00286477 51.2283
-0.0147113 5.16988e-26 0.00250555 40.285
-0.0146627 0 0.00282903 42.468
-0.0149819 4.1359e-25 3.19382e-09 939.521
0.0149819 0 9.62822e-10 936.7
-0.0142803 -6.61744e-24 0.00455271 1500.53
0.0149853 2.95045e-20 0.000585012 551.97
-0.0149861 2.76522e-20 0.000584127 550.794
0.0142938 -6.61744e-24 0.00456274 1589.74
0.0149869 0 0.00120504 110.024
-0.0149906 -2.34151e-20 0.00120094 105.102
0.0149249 -1.29247e-26 0.00186093 47.5894
-0.0146412 0 0.00348482 96.6058
0.0146341 0 0.00351739 109.036
-0.0149904 0 0.00167349 59.7576
0.0149806 -1.29247e-26 0.00185977 47.3711
0.0149792 -1.29247e-26 0.00193528 46.4507
-0.0149903 -2.84612e-20 0.00184831 42.9828
-0.0145147 1.94586e-20 0.00427467 1102.16
0.0145233 -1.26724e-20 0.00429208 1170.92
0.0149685 0 0.00252404 39.2744
-0.0149829 3.00624e-20 0.0025043 34.3539
-0.0149776 0 0.00275132 41.5427
-0.0147025 -2.71051e-20 0.0040589 284.622
0.0147084 0 0.00408023 312.57
0.0149582 -1.2332e-20 0.00317892 61.8937
-0.0146099 -2.71051e-20 0.0045237 1632.3
-0.0149688 0 0.00315684 53.3442
0.0153005 0 0.000292235 937.417
-0.0153009 2.71051e-20 0.000291878 939.67
0.0146196 0 0.00453529 1683.94
0.0153021 2.71051e-20 0.000894041 161.319
-0.0153039 0 0.000892113 156.407
0.0153002 -2.71051e-20 0.00152928 59.3069
-0.0153052 -5.42101e-20 0.00152357 53.8706
-0.0146355 0 0.0048202 1727.47
0.0146456 -6.61744e-24 0.00482779 1766.93
-0.0149723 -7.88386e-21 0.00378401 138.425
0.0149713 2.97901e-20 0.00380142 154.385
0.0152929 2.71051e-20 0.00218496 34.9789
-0.0153015 5.42101e-20 0.00217419 31.7193
0.0152835 -2.71051e-20 0.00284024 33.6677
-0.0152919 2.71051e-20 0.00282667 29.7609
-0.0149633 -2.90903e-20 0.00442183 885.209
0.014969 7.21301e-21 0.00443194 912.152
-0.0156169 0 3.92127e-09 939.041
0.0156169 0 1.59541e-09 937.429
0.0156181 0 0.000584603 552.831
-0.0156185 -1.11957e-20 0.000584185 550.831
0.0156191 0 0.0012017 111.896
-0.0156207 7.49829e-21 0.00119995 106.372
0.0154662 0 0.00250915 35.4996
-0.0149261 0 0.00477675 1822.56
0.0152816 2.71051e-20 0.00347878 54.2681
-0.0152852 0 0.00346631 45.1084
0.0149333 2.71051e-20 0.00478413 1849.86
-0.0156201 0 0.00172303 56.2425
0.0156163 0 0.00184941 48.9549
-0.0156199 0 0.00184524 44.531
-0.0154693 0 0.003148 37.9075
0.0156092 0 0.00250487 34.4151
-0.0156138 1.03398e-25 0.00249847 31.538
-0.0152764 -5.42101e-20 0.00409542 113.442
0.0152785 -5.42101e-20 0.00410448 126.356
0.015608 0 0.00259841 34.941
-0.0149898 -6.61744e-24 0.00508713 1998.95
0.0149968 -6.61744e-24 0.00509235 2016.17
0.0156006 -8.95009e-22 0.00315251 38.0559
-0.0151689 3.65283e-21 0.00482334 1456.24
-0.0156039 0 0.00314562 33.7543
0.0151743 -2.36971e-20 0.00482866 1473.29
-0.0156032 0 0.00318364 35.3216
0.0159322 2.71051e-20 0.000292222 937.44
-0.0159323 5.42101e-20 0.000292065 938.414
0.0159282 0 0.000584568 553.007
0.0159329 2.71051e-20 0.000892712 162.233
-0.0159336 0 0.000891952 156.82
0.0159836 -1.03398e-25 2.31451e-21 937.346
-0.0153229 0 0.00461704 360.586
0.0159322 5.42101e-20 0.00152399 62.8598
-0.015934 0 0.00152204 56.8238
0.0153273 2.71051e-20 0.00462278 376.23
-0.015592 4.1359e-25 0.00378396 60.0711
0.0155918 -2.53283e-20 0.0037897 68.6103
0.0159284 -5.42101e-20 0.00217342 38.4186
-0.0159311 -5.42101e-20 0.00217013 35.5755
-0.0152682 0 0.00505663 2175.17
0.0152733 0 0.00506088 2182.4
-0.0160398 1.29247e-26 0.00184385 48.1361
0.0159217 2.71051e-20 0.00282271 30.6605
-0.0159241 -5.42101e-20 0.00281877 29.1248
-0.0155885 -3.96352e-20 0.00438984 178.405
0.0155908 -2.47426e-20 0.00439405 191.638
-0.0162467 0 4.50343e-09 937.89
0.0162467 0 1.14466e-09 937.286
0.0162034 -1.61559e-27 0.00120022 114.416
-0.0153431 -6.61744e-24 0.00535315 1561.74
0.0153477 6.61744e-24 0.00535654 1565.92
0.0162471 8.31836e-21 0.000584533 553.188
-0.0162472 -2.39986e-20 0.00058442 550.64
0.0159122 2.71051e-20 0.00346529 33.7541
-0.0159131 0 0.00346161 31.0627
0.0162478 2.9653e-22 0.00120011 114.607
-0.0162481 1.03398e-25 0.00119968 109.097
-0.0155338 -1.10412e-20 0.00491869 954.522
0.0162477 -8.07794e-27 0.00123763 111.047
0.0155374 -2.06994e-20 0.00492201 963.759
0.0162469 2.58494e-26 0.00184409 53.5147
-0.0162477 -1.29247e-26 0.00184316 49.9208
-0.0162472 2.58494e-26 0.00193845 47.887
-0.015901 0 0.00409355 50.3026
0.0159019 0 0.00409655 59.6613
0.0162431 0 0.00249417 37.1891
-0.016244 0 0.00249283 36.0556
0.0162387 2.58494e-26 0.00283855 34.8477
0.0162348 0 0.0031392 32.8037
-0.0162354 0 0.00313774 31.8866
-0.0156894 0 0.00525034 949.068
0.0156925 -2.71051e-20 0.00525277 949.803
-0.0162334 -5.16988e-26 0.00321975 32.504
-0.0158705 0 0.0047214 164.777
0.0158727 -2.71051e-20 0.00472386 179.664
0.0165604 -2.71051e-20 0.000292258 937.133
-0.0165604 -2.71051e-20 0.000292218 937.367
0.0165607 0 0.000892189 163.426
-0.0165609 0 0.000892028 157.784
0.0165606 2.71051e-20 0.00152156 68.3091
-0.016561 -2.71051e-20 0.00152113 63.4906
-0.0162196 -4.61319e-21 0.00378044 36.7253
0.0162198 -1.89987e-20 0.00378182 40.3182
-0.0156952 0 0.00561829 1056.43
0.0156978 0 0.00562028 1056.7
0.0165588 2.71051e-20 0.00216766 44.28
-0.0165593 2.71051e-20 0.00216703 43.6623
-0.0161896 1.76851e-20 0.00442818 79.69
0.0161906 2.18425e-20 0.00442953 89.4536
0.0165536 -2.71051e-20 0.00281397 35.3592
-0.016554 5.42101e-20 0.00281321 35.8313
-0.0168738 0 4.79187e-09 937.068
0.0168738 0 1.76193e-09 936.948
-0.0168739 -2.55938e-20 0.00058458 551.544
0.0168739 -2.81035e-21 0.000584593 553.809
-0.0165426 -2.71051e-20 0.00345663 31.5687
0.0165425 0 0.00345738 31.5041
-0.0161125 2.40213e-20 0.0051374 536.591
0.0161142 4.04326e-21 0.00513878 546.373
0.0168742 -9.76008e-21 0.00119965 118.118
-0.0168743 -1.12436e-20 0.0011996 114.758
-0.0160304 5.42101e-20 0.00554246 1163.64
0.0168741 3.23117e-27 0.00173823 69.0014
0.0160322 0 0.00554379 1163.52
-0.0168741 -4.0643e-21 0.00184202 59.1548
0.0168741 -3.23117e-27 0.00184212 59.5274
-0.0165205 -5.42101e-20 0.00410417 33.9439
0.0165209 -2.71051e-20 0.00410496 36.3124
-0.0168728 1.29247e-26 0.00226182 50.0508
0.016872 -2.58494e-26 0.00248968 43.5407
-0.0168721 1.29247e-26 0.00248953 45.1126
-0.0160456 0 0.00588237 1290.78
0.0160471 0 0.0058834 1290.53
0.0168056 -9.69352e-27 0.00313292 36.1332
-0.0168654 -2.58494e-26 0.00313207 38.0237
0.0168654 1.2324e-20 0.00313226 36.4821
-0.0164772 -2.71051e-20 0.00477307 67.0611
0.0168651 -3.23117e-27 0.00314406 36.4391
0.0164781 2.71051e-20 0.00477392 79.2758
-0.0168631 -2.58494e-26 0.00322486 37.4843
0.0171867 0 0.000292305 936.763
-0.0171867 -2.71051e-20 0.000292302 936.769
0.0171869 -5.42101e-20 0.000892117 165.628
-0.0171869 2.71051e-20 0.000892093 162.001
0.0171305 0 0.0018419 62.7113
-0.0163088 -1.01578e-20 0.00559077 948.964
0.01631 -2.39154e-20 0.00559165 956.363
0.0171869 5.42101e-20 0.00152074 73.699
-0.0171869 -2.71051e-20 0.00152071 74.4129
-0.0168494 2.06795e-25 0.00377631 34.279
0.0168495 1.30306e-20 0.00377656 34.1366
0.017186 -5.42101e-20 0.00216542 51.7038
-0.0171861 5.42101e-20 0.00216535 54.9546
-0.016518 2.71051e-20 0.00536714 227.894
0.016519 -2.71051e-20 0.00536792 250.937
-0.0168212 5.60332e-21 0.00443102 42.6292
0.0168216 2.32297e-20 0.00443137 46.9604
-0.0163928 0 0.00584542 1417.75
0.0163937 -2.71051e-20 0.00584612 1417.44
0.0171824 -2.71051e-20 0.0028096 42.7864
-0.0171824 0 0.00280953 45.9648
-0.0174996 8.27181e-25 4.65707e-09 936.63
0.0174996 0 2.44541e-09 936.637
-0.0163956 0 0.00614428 1462.67
-0.0174996 -3.09442e-20 0.000584661 555.119
0.0174996 1.85347e-20 0.00058466 555.501
0.0163962 0 0.00614484 1462.41
-0.0171728 2.71051e-20 0.00345119 38.6896
0.0171728 0 0.00345131 36.2497
-0.0174998 0 0.0011996 124.811
0.0174998 -3.25385e-20 0.0011996 123.555
-0.0168072 1.8466e-20 0.00507468 107.19
0.0168078 4.87209e-21 0.00507514 120.22
-0.0174997 0 0.00184159 70.9669
0.0174997 0 0.00184159 67.2952
-0.0174397 1.61559e-27 0.00248806 53.6927
0.0174993 -3.23117e-27 0.00212642 60.1199
-0.0171543 2.71051e-20 0.00409713 33.0052
0.0171545 2.71051e-20 0.00409729 32.5997
0.0174987 6.46235e-27 0.00248791 51.0135
-0.0174987 9.50713e-21 0.00248791 54.5851
-0.0174983 3.23117e-27 0.00255404 53.5438
-0.0167741 3.0341e-20 0.00574437 742.818
0.0167746 9.70779e-21 0.00574481 752.962
-0.0174944 1.29247e-26 0.00312778 44.5101
0.0174944 -1.26602e-20 0.00312779 41.832
-0.0171359 2.71051e-20 0.00474309 37.5672
0.0171362 5.42101e-20 0.00474333 40.9968
-0.0167048 0 0.00611288 1507.55
0.0167053 0 0.00611327 1507.35
0.017492 0 0.00326736 40.4127
-0.017491 0 0.00333122 42.1405
0.0178123 0 0.000292339 936.511
-0.0178123 0 0.000292339 936.491
-0.0178123 -2.71051e-20 0.000892127 173.053
0.0178123 0 0.000892128 170.929
-0.0178123 -5.42101e-20 0.00152058 88.5264
0.0178123 2.71051e-20 0.00152058 82.6543
-0.0174836 2.58494e-26 0.00376687 37.0661
0.0174836 2.07376e-20 0.00376691 35.3326
-0.0167191 1.32349e-23 0.00643605 1502.03
0.0167195 0 0.0064363 1501.86
0.0178119 -2.71051e-20 0.00216457 61.049
-0.0178119 2.71051e-20 0.00216457 65.9008
-0.017115 0 0.00539431 87.5543
0.0171154 -2.71051e-20 0.0053946 100.184
-0.0174667 -3.87098e-20 0.00441055 34.3204
0.0174668 -2.93517e-20 0.00441062 34.7254
-0.0178098 2.71051e-20 0.00280703 51.5284
0.0178098 2.71051e-20 0.00280703 48.5185
-0.0169664 -2.12883e-20 0.00617963 1101.38
0.0169667 -2.29162e-20 0.00617988 1107.26
-0.0181249 8.27181e-25 4.21997e-09 936.448
0.0181249 4.1359e-25 2.86614e-09 936.474
-0.0178039 -2.71051e-20 0.00344471 41.8223
0.0178039 5.42101e-20 0.00344474 39.7365
-0.0181249 -3.85977e-20 0.000584697 562.205
0.0181249 -1.09296e-20 0.000584697 559.099
-0.0181249 2.39707e-21 0.00119962 139.227
0.0181249 8.70287e-21 0.00119962 132.257
-0.0174472 8.06418e-21 0.00505795 49.7089
0.0174474 1.62624e-21 0.00505807 54.9576
-0.017167 -2.71051e-20 0.00597246 275.905
0.0171673 -8.13152e-20 0.00597271 294.082
-0.0170427 8.13152e-20 0.00643802 1496.52
-0.0181249 0 0.00184147 82.0047
0.0181249 3.21988e-21 0.00184147 75.8299
0.0170429 0 0.0064382 1496.37
-0.017793 0 0.00408287 34.6907
0.017793 2.71051e-20 0.00408289 32.7281
0.0181245 0 0.00242045 58.2414
-0.0181245 0 0.0024871 59.9984
0.0181245 0 0.0024871 56.2166
-0.017907 1.29247e-26 0.00376084 37.5027
-0.0170214 0 0.00674878 1477.32
0.0170216 0 0.00674896 1477.23
-0.0181236 3.23117e-27 0.00276431 54.1562
-0.017444 2.95734e-20 0.00568992 131.645
0.0174442 1.32349e-22 0.00569009 143.434
0.0179724 0 0.00375993 35.3641
-0.0181225 0 0.00312454 46.5645
0.0181225 0 0.00312455 43.9998
-0.0177779 -2.71051e-20 0.00472459 32.1568
0.017778 2.71051e-20 0.00472464 32.7633
-0.0184375 0 0.000292351 936.404
0.0184375 0 0.000292351 936.437
-0.0184375 0 0.000892166 190.918
0.0184375 0 0.000892167 180.466
0.0184374 -2.71051e-20 0.00152054 93.7203
-0.0184374 2.71051e-20 0.00152054 103.171
-0.0181171 1.29247e-26 0.00375785 37.7195
0.0181172 0 0.00375786 35.3734
0.0183579 -1.61559e-27 0.00248696 56.1147
0.0181148 0 0.00390619 34.3561
-0.0174092 4.04723e-20 0.0063534 765.877
0.0174094 1.25864e-20 0.00635351 773.477
-0.0181139 0 0.00396148 36.0392
-0.017766 2.71051e-20 0.0053638 42.5311
0.0177661 0 0.00536388 47.0058
0.0184373 0 0.0021642 65.8368
-0.0184373 -2.71051e-20 0.0021642 70.3543
-0.0173271 -2.71051e-20 0.00672776 1458.12
0.0173272 -2.71051e-20 0.00672785 1458.09
-0.0181071 2.58494e-26 0.00439391 32.471
0.0181071 -4.85384e-21 0.00439392 31.0114
0.0184364 2.71051e-20 0.0028054 49.508
-0.0184364 -2.71051e-20 0.0028054 52.2623
-0.0173238 0 0.00706122 1443.35
0.0173239 -1.32349e-23 0.00706123 1443.4
-0.0177469 -2.71051e-20 0.00601017 107.841
0.017747 0 0.00601025 119.092
-0.01875 0 3.911e-09 936.41
0.01875 0 3.03741e-09 936.45
-0.0184337 -2.71051e-20 0.00343972 40.6434
0.0184337 0 0.00343972 38.238
-0.01875 -1.26453e-20 0.000584711 573.394
0.01875 1.94291e-20 0.000584711 565.345
-0.0180931 2.86184e-20 0.00503408 33.8289
0.0180932 2.89029e-20 0.00503411 34.7839
-0.01875 2.04593e-21 0.00119964 155.908
0.01875 1.00276e-20 0.00119964 142.96
-0.01875 1.99221e-20 0.00184144 88.256
0.01875 3.18214e-20 0.00184144 81.2007
-0.0175849 -4.2881e-21 0.0067982 1070.71
0.017585 1.36319e-21 0.00679826 1074.31
-0.0184279 -2.71051e-20 0.00407228 33.6797
0.0184279 -5.42101e-20 0.0040723 30.759
-0.0187498 -3.46215e-20 0.00248672 59.6733
0.0187498 -3.23117e-27 0.00248672 55.9435
0.0187496 -1.61559e-27 0.0026799 51.2798
-0.0184308 0 0.00438836 30.7213
-0.0180758 3.04278e-20 0.00567799 57.9707
0.0180758 2.94824e-20 0.00567802 63.2408
-0.0177903 -2.71051e-20 0.00659091 297.93
0.0177904 0 0.00659098 308.846
-0.0187494 -3.23117e-27 0.00293764 48.1463
0.0184842 0 0.00438746 28.2611
0.0187492 0 0.00312276 40.5886
-0.0187492 3.23117e-27 0.00312276 43.414
-0.0184184 0 0.0047076 29.3682
0.0184184 5.42101e-20 0.0047076 27.854
-0.0176528 0 0.00706059 1428.57
0.0176528 2.71051e-20 0.00706062 1428.71
-0.0190625 -2.71051e-20 0.000292356 936.414
0.0190625 -2.71051e-20 0.000292356 936.463
-0.0190625 0 0.000892176 218.22
0.0190625 0 0.000892176 196.137
-0.0176265 -1.32349e-23 0.00737367 1423.44
0.0176265 0 0.00737369 1423.57
-0.0187471 2.58494e-26 0.00375263 34.1124
0.0187471 0 0.00375264 31.1616
0.0190625 0 0.00152054 100.207
-0.0190625 -2.71051e-20 0.00152054 109.915
-0.0180691 -1.06541e-20 0.00630978 148.638
0.0180692 4.73147e-21 0.00630982 157.937
-0.0184047 0 0.0053471 31.4246
0.0184047 2.71051e-20 0.00534713 31.7265
0.0190624 0 0.00216406 64.9765
-0.0190624 0 0.00216406 69.5103
-0.0187422 0 0.00438303 29.0385
0.0187422 2.58494e-26 0.00438304 26.3799
-0.0190622 -2.71051e-20 0.00280458 46.6604
0.0190622 2.71051e-20 0.00280458 43.5401
0.019294 -5.16988e-26 6.84918e-45 936.506
-0.0180246 2.00707e-20 0.00697622 751.093
0.0180246 -2.91366e-20 0.00697625 756.644
0.0187368 0 0.00475082 26.4376
-0.0183915 0 0.00598567 51.0183
0.0183916 2.71051e-20 0.00598568 56.1152
-0.0187351 1.29247e-26 0.00486052 28.1896
0.0190612 -2.71051e-20 0.00343712 31.1042
-0.0190612 -2.71051e-20 0.00343712 34.1246
-0.019375 0 4.06668e-09 936.47
0.019375 -1.03398e-25 4.52376e-10 936.514
0.019375 -5.16988e-26 0.000278199 763.623
-0.019375 -1.08675e-20 0.000584717 584.562
0.019375 1.76076e-21 0.000584716 573.135
-0.0179362 2.71051e-20 0.00735206 1418.3
0.0179362 2.71051e-20 0.00735208 1418.42
0.0187328 -1.20244e-21 0.00501785 26.4794
-0.0187328 0 0.00501785 27.9098
-0.019375 4.87695e-21 0.00119964 168.992
0.019375 -2.11878e-20 0.00119964 152.681
-0.019375 7.35881e-22 0.00184143 87.4999
0.019375 -9.90321e-21 0.00184143 80.7336
-0.0190587 0 0.00406623 28.0033
0.0190587 2.71051e-20 0.00406624 24.5478
0.0179293 0 0.00768642 1410.95
-0.0179292 0 0.00768646 1410.83
-0.0188685 6.46235e-27 0.00501569 26.8878
-0.0183671 0 0.00663351 124.833
0.0183672 -5.42101e-20 0.00663353 134.564
-0.019375 2.80885e-20 0.0024866 53.1426
0.019375 3.96519e-20 0.0024866 49.6472
-0.0187185 3.41212e-23 0.00565746 35.4306
0.0187186 -2.65227e-20 0.00565747 36.6747
-0.0193459 2.62533e-27 0.00312215 35.9877
0.0193748 -8.07794e-28 0.00300189 35.9834
0.01897 2.58494e-26 0.00501408 24.3439
-0.0190533 2.71051e-20 0.00469698 25.1019
0.0190533 0 0.00469699 22.3788
0.0193748 8.07794e-28 0.00312212 32.7953
-0.0193748 -2.01948e-28 0.00312212 35.6282
-0.0193748 1.00974e-27 0.00313568 35.4459
0.0181955 1.22687e-20 0.00742325 1056.23
-0.0181955 -1.80656e-20 0.00742325 1053.48
-0.0196875 0 0.000292358 936.526
0.0196875 -2.71051e-20 0.000292358 936.566
-0.0196875 0 0.00089218 235.822
0.0196875 0 0.00089218 211.741
0.0186985 -3.22104e-21 0.0063019 73.561
-0.0186985 1.21273e-20 0.0063019 67.8988
-0.0193742 6.46235e-27 0.00375048 27.1824
0.0193742 0 0.00375048 24.2493
0.0196875 -2.71051e-20 0.00152054 101.158
-0.0196875 2.71051e-20 0.00152054 110.332
-0.0184047 0 0.00721591 310.231
0.0184047 -2.71051e-20 0.00721592 318.435
-0.0190436 0 0.00533179 25.8146
0.0190437 2.71051e-20 0.00533179 24.0643
0.0196875 -2.71051e-20 0.00216401 56.5185
-0.0196875 2.71051e-20 0.00216401 60.1574
-0.0182613 0 0.00768613 1403.35
0.0182613 0 0.00768613 1403.48
-0.0193723 0 0.00437779 23.6502
0.0193723 2.58494e-26 0.00437779 20.7377
0.0196874 0 0.00280433 33.6666
-0.0196874 0 0.00280433 36.3609
-0.0182323 -1.32349e-23 0.00799942 1399.51
0.0182323 0 0.00799942 1399.61
-0.0186874 3.62636e-20 0.00693489 161.407
0.0186875 -2.53117e-21 0.00693493 169.931
-0.0190287 2.71051e-20 0.00597154 33.7004
0.0190287 -5.42101e-20 0.00597155 35.0716
0.0196872 0 0.00343614 22.9136
-0.0196872 -2.71051e-20 0.00343614 25.4111
-0.02 0 4.58353e-09 936.66
0.02 2.06795e-25 9.31731e-10 936.656
-0.0193674 0 0.00500776 23.1315
0.0193674 -5.16988e-26 0.00500776 20.766
0.02 2.58494e-26 0.000467287 650.224
-0.02 -2.93322e-20 0.000584718 590.561
0.02 1.94111e-20 0.000584716 578.244
0.0197651 0 0.00312203 27.9562
-0.02 1.35382e-20 0.00119965 172.474
0.02 -1.89486e-21 0.00119965 156.029
0.0193626 2.58494e-26 0.00531036 23.2653
-0.02 -3.59029e-20 0.00184143 79.4466
0.02 2.54179e-20 0.00184143 73.9057
-0.0193616 0 0.00537394 25.2162
0.0196863 0 0.00406358 18.4392
-0.0196863 0 0.00406358 21.2008
0.0186372 8.86076e-21 0.00760237 749.104
-0.0186372 -6.02187e-22 0.00760238 744.041
-0.0190127 0 0.0066109 63.061
0.0190127 0 0.00661089 69.5124
-0.02 6.69831e-21 0.00248657 42.6964
0.02 -3.33276e-20 0.00248657 40.0409
0.0193574 1.50816e-21 0.00564266 26.0099
-0.0193574 2.58494e-26 0.00564266 26.746
-0.0185451 0 0.00797829 1395.66
0.0185451 2.71051e-20 0.00797829 1395.74
-0.0196838 0 0.00469127 20.3076
0.0196838 2.71051e-20 0.00469127 17.6011
-0.02 2.75628e-20 0.00312197 27.0527
0.02 0 0.00312197 25.0443
0.02 0 0.00325476 23.7178
-0.0199999 1.61559e-27 0.0033983 24.2748
0.0185356 0 0.00831268 1389.99
-0.0185355 0 0.00831272 1389.91
-0.0203125 0 0.000292358 936.795
0.0203125 -2.71051e-20 0.000292358 936.746
-0.0189844 -2.71051e-20 0.00725983 134.975
0.0189845 -2.71051e-20 0.00725984 144.672
0.0203125 0 0.000892183 216.447
-0.0203125 2.71051e-20 0.000892183 242.02
0.0193417 -2.11953e-20 0.00628271 44.1629
-0.0193417 -9.31405e-21 0.00628271 41.1293
0.0199998 -1.61559e-27 0.00374985 18.7721
-0.0199998 0 0.00374985 20.7407
-0.0203125 -5.42101e-20 0.00152054 99.8031
0.0203125 0 0.00152054 93.0912
0.0196781 -2.71051e-20 0.00532193 19.0721
-0.0196781 -2.71051e-20 0.00532193 21.3424
-0.0203125 -2.71051e-20 0.002164 47.4004
0.0203125 0 0.002164 44.7704
0.0188063 2.09508e-20 0.00805025 1041.2
-0.0188063 -1.5326e-20 0.00805025 1038.39
-0.0199992 -1.29247e-26 0.00437577 18.8137
0.0199992 0 0.00437577 16.6333
-0.019683 0 0.00563764 24.4226
-0.0203125 2.71051e-20 0.00280427 26.9819
0.0203125 -2.71051e-20 0.00280427 25.3178
0.0193191 3.50642e-20 0.00692789 85.6975
-0.0193191 1.54782e-20 0.00692789 78.0921
0.0197473 1.29247e-26 0.00563665 23.0815
0.0196677 0 0.00595699 26.0195
-0.0196677 -2.71051e-20 0.00595699 26.2692
-0.019019 2.71051e-20 0.00784353 306.081
0.019019 -2.71051e-20 0.00784353 314.591
0.0203124 2.71051e-20 0.00343589 18.3142
-0.0203124 2.71051e-20 0.00343589 19.4938
-0.0199972 2.58494e-26 0.00500279 19.243
0.0199972 2.58494e-26 0.00500279 17.1568
0.018871 -2.71051e-20 0.00831348 1384.23
-0.018871 -5.42101e-20 0.00831348 1384.16
-0.020625 -8.27181e-25 5.04458e-09 937.045
0.020625 0 1.50663e-09 936.879
0.020625 0 0.000563462 592.176
-0.020625 -4.10447e-21 0.000584719 591.698
0.020625 0 0.000584717 579.173
-0.020625 1.79653e-20 0.00119965 166.932
0.020625 -3.00745e-20 0.00119965 151.738
-0.020625 6.78743e-21 0.00184143 66.9143
0.020625 7.22569e-21 0.00184143 63.2901
0.0203122 0 0.00406266 15.4252
-0.0203122 2.71051e-20 0.00406266 16.8623
-0.0188392 1.32349e-23 0.00862624 1384.91
0.0188392 1.32349e-23 0.00862624 1384.96
-0.0196513 -2.71051e-20 0.00659729 41.8109
0.0196513 -2.71051e-20 0.00659729 46.3951
0.0193053 1.95314e-20 0.00756209 173.802
-0.0193053 1.42606e-21 0.00756209 163.774
-0.0199921 0 0.00563287 22.217
0.0199921 0 0.00563287 21.2424
-0.020625 -1.57e-20 0.00248657 33.2076
0.020625 6.87521e-21 0.00248657 31.4666
0.0199893 0 0.00580089 24.4129
-0.0199888 2.58494e-26 0.00582967 24.9442
0.0203112 0 0.00468874 15.0727
-0.0203112 -5.42101e-20 0.00468874 16.8914
-0.020625 -3.85434e-20 0.00312195 21.4952
0.020625 -3.54986e-21 0.00312195 20.3848
-0.0196335 2.71051e-20 0.00723751 73.5713
0.0196335 0 0.00723751 83.2327
0.0192515 1.39827e-20 0.00823193 737.809
-0.0192515 -2.13082e-20 0.00823193 731.741
-0.0209375 -8.13152e-20 0.000292358 937.295
0.0209375 2.71051e-20 0.000292358 937.012
0.020625 0 0.0036167 17.1949
0.0199814 2.66698e-20 0.00626807 33.2281
-0.0199814 -5.16988e-26 0.00626807 31.0191
-0.020625 -2.01948e-28 0.00370038 17.5666
-0.0209375 0 0.000892183 239.623
0.0209375 5.42101e-20 0.000892183 215.036
0.020625 0 0.00374972 16.3372
-0.020625 -2.01948e-28 0.00374972 17.2315
0.0209375 0 0.00152054 80.5272
-0.0209375 -2.71051e-20 0.00152054 84.1463
-0.0203086 2.71051e-20 0.00531632 18.452
0.0203086 2.71051e-20 0.00531632 16.9012
-0.0191556 0 0.00860744 1385.66
0.0191556 0 0.00860744 1385.7
0.021025 -3.23117e-27 0.000584717 577.605
-0.0209375 0 0.002164 36.2167
0.0209375 -2.71051e-20 0.002164 34.6863
-0.0206248 0 0.00437516 16.2503
0.0206248 3.23117e-27 0.00437516 15.1161
0.0209375 -2.71051e-20 0.00280426 21.1781
-0.0209375 0 0.00280426 22.3213
0.0199645 9.42076e-21 0.00690861 56.5723
-0.0199645 2.00852e-20 0.00690861 49.6268
0.0191434 0 0.00894011 1326.21
-0.0191433 0 0.00894015 1326.18
0.0196038 0 0.00788848 141.12
-0.0196038 -2.71051e-20 0.00788848 128.786
-0.0203027 -2.71051e-20 0.00594717 22.8718
0.0203027 0 0.00594717 23.0571
-0.0209375 0 0.00343583 17.2095
0.0209375 2.71051e-20 0.00343583 16.7521
-0.0206242 0 0.00500078 17.3914
0.0206242 0 0.00500078 16.1636
-0.02125 0 5.26059e-09 937.673
0.02125 0 1.72095e-09 937.189
-0.02125 7.54182e-21 0.000584718 587.414
0.02125 0 0.000584717 576.723
0.02125 -9.69352e-27 0.000684835 506.038
0.0194186 5.57189e-21 0.00868609 990.63
-0.0194186 2.70256e-20 0.00868609 987.035
-0.02125 -3.08774e-20 0.00119965 154.004
0.02125 0 0.00119965 142.57
-0.0209554 -2.01948e-28 0.00374971 16.8059
0.0199411 6.25679e-21 0.00755457 90.8337
-0.0199411 9.20817e-21 0.00755457 80.1714