# p  POINT_DATA 45383
# x  y  z  p
0.01 3.4489e-27 1.48997e-07 -0.013161
-0.01 2.10863e-26 8.48436e-08 0.0152191
-0.01 -4.1359e-25 0.000678316 0.0152191
0.01 1.29247e-26 0.00067832 -0.0131611
0.0100335 -2.58494e-26 0.00067574 -0.0131611
-0.01 0 0.00137373 0.0152192
0.01 0 0.00137372 -0.0131611
-0.01 3.30872e-24 0.00208696 0.0152192
0.01 1.57772e-30 0.002087 -0.0131612
0.0101864 -2.06795e-25 0.00133473 -0.0131611
-0.0102702 2.71051e-20 0.000327905 0.0152191
0.0102702 0 0.000327954 -0.013161
-0.0102616 -2.71051e-20 0.000986823 0.0152191
0.0102619 0 0.000986956 -0.0131611
-0.0102382 0 0.00161862 0.0152193
0.0102389 -2.71051e-20 0.00161883 -0.0131612
-0.0105473 0 0.000241058 0.0152191
-0.0105508 0 8.49672e-08 0.0152191
0.0105508 -2.06795e-25 8.59948e-08 -0.013161
-0.0105415 -1.7018e-20 0.00063654 0.0152191
0.0105418 1.3268e-20 0.00063661 -0.0131611
-0.0105237 0 0.00126378 0.0152192
0.0105246 -3.02368e-20 0.00126397 -0.0131611
-0.0105066 -5.27079e-21 0.00172222 0.0152192
0.0105082 1.83047e-20 0.00172263 -0.0131612
-0.0104981 0 0.00202328 0.0152191
0.0105003 -2.71051e-20 0.00202395 -0.0131611
-0.0104973 3.30872e-24 0.00235191 0.0152193
0.0105018 -1.65436e-24 0.00235298 -0.0131612
-0.0108324 2.71051e-20 0.000312949 0.0152192
0.0108326 -2.71051e-20 0.000313002 -0.013161
-0.0108211 2.71051e-20 0.000935918 0.0152191
0.0108219 2.71051e-20 0.000936095 -0.0131611
-0.0107987 0 0.00152672 0.0152192
0.0108006 0 0.00152718 -0.0131611
0.0111231 0 1.4102e-08 -0.0131611
-0.0111231 0 1.1833e-08 0.0152192
-0.0111217 8.27181e-25 0.00054366 0.0152192
-0.0109001 0 0.00228558 0.0152194
-0.0111215 0 0.000612314 0.0152192
0.011122 -1.07835e-20 0.00061238 -0.0131611
0.0109057 0 0.00228695 -0.0131613
-0.0109929 0 0.00190209 0.0152193
0.0109964 -1.87952e-20 0.00190279 -0.0131612
-0.0111 0 0.00123235 0.0152192
0.0111015 1.75966e-20 0.00123258 -0.0131611
-0.0109856 0 0.00261204 0.0152194
0.0109947 0 0.00261423 -0.0131613
-0.0114284 -2.71051e-20 0.000305075 0.0152193
0.0114286 0 0.000305108 -0.0131611
-0.0112129 -7.82513e-21 0.00232217 0.0152194
0.0112195 2.75319e-20 0.00232367 -0.0131613
-0.0114246 -2.71051e-20 0.00092111 0.0152192
0.0114256 -2.71051e-20 0.00092126 -0.0131611
-0.0113817 2.71051e-20 0.0015635 0.0152193
0.0113839 0 0.00156383 -0.0131611
-0.011173 -4.1359e-25 0.00271189 0.0152195
-0.0114068 -2.71051e-20 0.00210155 0.0152194
0.011411 0 0.00210244 -0.0131613
-0.0113382 2.71051e-20 0.00256301 0.0152194
0.0113467 0 0.00256544 -0.0131614
0.0117295 0 6.31228e-09 -0.0131612
-0.0117295 -4.1359e-25 4.80147e-09 0.0152194
-0.0117405 0 0.00051944 0.0152194
-0.0117423 -1.03398e-25 0.00060318 0.0152194
0.0117428 7.38507e-21 0.000603251 -0.0131612
-0.0115321 -2.06795e-25 0.00238299 0.0152195
-0.0117315 0 0.00123297 0.0152194
0.0117329 1.46188e-20 0.00123324 -0.0131613
-0.0114582 0 0.00286379 0.0152196
0.011472 0 0.00286721 -0.0131615
-0.0117202 0 0.00185692 0.0152195
0.0117223 -1.09221e-20 0.00185737 -0.0131613
-0.0116916 1.03398e-25 0.00211226 0.0152195
-0.0116585 2.78171e-20 0.00240709 0.0152196
0.0116635 2.72903e-20 0.00240866 -0.0131615
-0.0120571 2.71051e-20 0.000300839 0.0152196
0.0120573 0 0.000300897 -0.0131613
-0.0120651 0 0.000916399 0.0152195
0.0120657 -2.71051e-20 0.000916727 -0.0131613
-0.0120089 -1.03398e-25 0.00187021 0.0152197
-0.0120608 0 0.00155099 0.0152195
0.0120609 -2.71051e-20 0.00155169 -0.0131614
-0.0118568 -2.71051e-20 0.00273895 0.0152197
0.0118619 2.71051e-20 0.00274195 -0.0131616
0.012035 2.71051e-20 0.00219403 -0.0131615
-0.0120372 2.71051e-20 0.00219395 0.0152198
-0.0119121 0 0.00310559 0.0152201
0.0119304 0 0.00311016 -0.0131618
0.0123683 0 2.71643e-09 -0.0131615
-0.0123683 0 2.66988e-09 0.0152198
-0.0123892 -1.55096e-25 0.000564551 0.0152198
-0.0123904 -2.58494e-26 0.00059722 0.0152198
0.0123907 -6.09301e-21 0.000597448 -0.0131615
-0.0123962 0 0.00122692 0.0152197
0.0123962 2.18467e-20 0.00122803 -0.0131615
-0.0123949 0 0.00129009 0.0152197
0.0123792 1.92452e-20 0.00188965 -0.0131616
-0.0123827 -1.15441e-20 0.00188742 0.0152198
-0.0125417 -5.16988e-26 0.00059593 0.0152199
0.0123193 -1.44194e-20 0.00260601 -0.0131618
-0.0123305 -1.39827e-20 0.00260668 0.0152202
-0.0125688 2.58494e-26 0.00122537 0.0152198
0.0122774 5.42101e-20 0.00301148 -0.0131619
-0.0122788 2.71051e-20 0.00300901 0.0152205
-0.0127075 2.71051e-20 0.00029719 0.0152201
0.0127075 0 0.000297361 -0.0131616
0.0127224 5.42101e-20 0.000910669 -0.0131616
-0.0127228 0 0.000909514 0.0152199
-0.0123477 0 0.00333768 0.0152205
0.0123698 6.61744e-24 0.00334298 -0.0131621
0.0127185 0 0.0015595 -0.0131617
-0.0127224 -5.42101e-20 0.00155586 0.0152199
0.0126865 -2.71051e-20 0.00223766 -0.0131617
-0.0127017 2.71051e-20 0.00223253 0.0152202
0.0125633 3.5132e-20 0.00303647 -0.0131621
-0.0125873 2.72324e-20 0.00304271 0.0152205
-0.0130258 0 2.56512e-09 0.0152203
0.0130258 0 1.94236e-09 -0.0131619
0.0127297 0 0.00279908 -0.013162
0.0130472 -4.14488e-20 0.000592235 -0.0131619
-0.0130474 -5.12438e-22 0.000591621 0.0152202
-0.0127816 0 0.0028142 0.0152206
0.0126842 0 0.00327272 -0.0131621
0.0130549 -1.93221e-20 0.00122427 -0.013162
-0.0130573 -4.99638e-21 0.00122099 0.0152201
-0.0127078 -5.42101e-20 0.00328029 0.0152205
0.0130409 1.73815e-20 0.00189495 -0.013162
-0.0130523 -1.41804e-20 0.00188526 0.0152203
-0.0127679 0 0.0035615 0.0152213
0.0130294 -1.15689e-20 0.00254415 -0.0131621
0.0127922 0 0.0035676 -0.0131623
-0.0130668 1.01148e-20 0.00252843 0.0152208
0.0129755 1.26195e-20 0.00310441 -0.0131623
0.0133645 0 0.000294678 -0.0131621
-0.0133647 0 0.0002943 0.0152205
0.013377 0 0.000905403 -0.0131622
-0.0133788 2.71051e-20 0.000902908 0.0152203
-0.0130842 1.61383e-20 0.00316077 0.0152214
0.0133744 2.71051e-20 0.00155542 -0.0131622
-0.0133828 2.71051e-20 0.00154643 0.0152205
-0.013073 -2.71051e-20 0.00349728 0.0152221
0.0133614 -2.71051e-20 0.00222042 -0.0131623
-0.0133875 2.71051e-20 0.0021975 0.0152208
0.0131593 2.71051e-20 0.00342851 -0.0131625
0.0133331 0 0.0028787 -0.0131624
-0.0136859 0 1.99115e-09 0.0152207
0.0136859 2.06795e-25 1.20838e-09 -0.0131626
-0.0133972 2.71051e-20 0.00283002 0.0152216
-0.0131766 0 0.00377904 0.0152225
0.0137005 -3.18841e-20 0.000588479 -0.0131626
-0.0137012 -1.04183e-21 0.000587422 0.0152206
0.0132008 0 0.00378645 -0.0131624
0.0137066 -6.16394e-21 0.00121712 -0.0131626
-0.0137113 3.09643e-20 0.00121149 0.0152205
-0.0133317 1.11537e-20 0.00353346 0.0152224
0.0136964 -3.10408e-20 0.00188403 -0.0131626
-0.0137136 1.11279e-20 0.00186546 0.0152209
-0.0134741 0 0.00333584 0.0152223
0.0136686 -1.20677e-20 0.00256371 -0.0131626
-0.0137152 -1.23908e-20 0.00251516 0.0152216
-0.0134565 0 0.0037461 0.0152228
0.0136041 -1.80358e-20 0.00329192 -0.0131625
0.0140177 -2.71051e-20 0.000293139 -0.0131629
-0.0140182 -2.71051e-20 0.000292601 0.0152208
0.0135422 2.71051e-20 0.0036961 -0.0131623
0.0140256 -2.71051e-20 0.000900278 -0.013163
-0.0140284 0 0.000896824 0.0152206
-0.0137342 -9.32398e-21 0.00311436 0.0152226
0.014023 -2.71051e-20 0.00154615 -0.013163
-0.0140338 2.71051e-20 0.00153371 0.0152208
-0.0135654 0 0.00401386 0.0152237
0.0135836 -6.61744e-24 0.00402855 -0.0131625
0.0140057 2.71051e-20 0.00221874 -0.0131629
-0.0137123 -3.40468e-21 0.00361961 0.0152234
-0.0140348 -2.71051e-20 0.00218502 0.0152214
0.0139704 0 0.00290901 -0.0131626
-0.0140398 -5.42101e-20 0.00281908 0.0152224
0.0138292 3.56647e-20 0.00373726 -0.0131626
-0.0143389 0 2.44464e-09 0.0152207
0.0143389 -2.06795e-25 1.44847e-09 -0.0131636
0.0143466 -4.82205e-21 0.000586141 -0.0131636
-0.0143476 -3.25982e-20 0.00058495 0.0152207
0.0143501 2.75087e-20 0.00121019 -0.0131636
-0.0143553 -9.53879e-21 0.00120417 0.0152207
-0.0138945 0 0.00393317 0.0152247
-0.0140375 2.71051e-20 0.00343143 0.0152241
0.0140303 5.42101e-20 0.00350658 -0.0131627
0.0143403 -1.58557e-20 0.00187312 -0.0131635
-0.0143565 0 0.00185406 0.0152212
0.0139282 2.71051e-20 0.00399009 -0.0131626
0.0143175 1.86488e-21 0.00255235 -0.0131633
-0.0139239 0 0.00428422 0.0152261
-0.0143528 -2.3069e-20 0.00250721 0.0152223
0.0139403 0 0.00429658 -0.0131623
0.0146631 5.42101e-20 0.000292462 -0.0131641
-0.0146635 -2.71051e-20 0.000291927 0.0152207
0.0143152 -1.14068e-20 0.00320647 -0.0131629
-0.0143427 -1.40377e-20 0.00314905 0.0152237
0.0146669 -2.71051e-20 0.000896444 -0.0131642
-0.0146697 0 0.00089329 0.0152206
0.014725 -1.03398e-25 3.73197e-16 -0.0131644
0.0146638 -2.71051e-20 0.00153733 -0.0131642
-0.014673 2.71051e-20 0.00152674 0.0152209
-0.0142998 -2.53862e-20 0.00383371 0.0152259
0.0146505 2.71051e-20 0.00220325 -0.0131639
0.0143063 1.87274e-20 0.0038743 -0.0131624
0.0148154 -2.58494e-26 0.000585312 -0.0131646
-0.0146709 0 0.00217815 0.0152218
-0.0142437 -2.71051e-20 0.00422231 0.0152275
-0.014746 0 0.00185053 0.0152214
0.014255 0 0.00424396 -0.0131619
0.0148484 0 0.00120616 -0.0131647
0.0146399 0 0.00286477 -0.0131634
-0.0147113 5.16988e-26 0.00250555 0.0152226
-0.0146627 0 0.00282903 0.0152234
-0.0149819 4.1359e-25 3.19382e-09 0.0152204
0.0149819 0 9.62822e-10 -0.013165
-0.0142803 -6.61744e-24 0.00455271 0.0152277
0.0149853 2.95045e-20 0.000585012 -0.013165
-0.0149861 2.76522e-20 0.000584127 0.0152204
0.0142938 -6.61744e-24 0.00456274 -0.013162
0.0149869 0 0.00120504 -0.0131649
-0.0149906 -2.34151e-20 0.00120094 0.0152207
0.0149249 -1.29247e-26 0.00186093 -0.0131647
-0.0146412 0 0.00348482 0.0152248
0.0146341 0 0.00351739 -0.0131628
-0.0149904 0 0.00167349 0.0152212
0.0149806 -1.29247e-26 0.00185977 -0.0131648
0.0149792 -1.29247e-26 0.00193528 -0.0131647
-0.0149903 -2.84612e-20 0.00184831 0.0152214
-0.0145147 1.94586e-20 0.00427467 0.0152279
0.0145233 -1.26724e-20 0.00429208 -0.0131621
0.0149685 0 0.00252404 -0.0131644
-0.0149829 3.00624e-20 0.0025043 0.0152228
-0.0149776 0 0.00275132 0.0152235
-0.0147025 -2.71051e-20 0.0040589 0.0152282
0.0147084 0 0.00408023 -0.0131621
0.0149582 -1.2332e-20 0.00317892 -0.0131636
-0.0146099 -2.71051e-20 0.0045237 0.0152279
-0.0149688 0 0.00315684 0.0152247
0.0153005 0 0.000292235 -0.0131658
-0.0153009 2.71051e-20 0.000291878 0.0152202
0.0146196 0 0.00453529 -0.0131621
0.0153021 2.71051e-20 0.000894041 -0.0131658
-0.0153039 0 0.000892113 0.0152203
0.0153002 -2.71051e-20 0.00152928 -0.0131657
-0.0153052 -5.42101e-20 0.00152357 0.0152209
-0.0146355 0 0.0048202 0.0152295
0.0146456 -6.61744e-24 0.00482779 -0.0131619
-0.0149723 -7.88386e-21 0.00378401 0.015227
0.0149713 2.97901e-20 0.00380142 -0.0131627
0.0152929 2.71051e-20 0.00218496 -0.0131654
-0.0153015 5.42101e-20 0.00217419 0.0152221
0.0152835 -2.71051e-20 0.00284024 -0.0131646
-0.0152919 2.71051e-20 0.00282667 0.015224
-0.0149633 -2.90903e-20 0.00442183 0.0152294
0.014969 7.21301e-21 0.00443194 -0.013162
-0.0156169 0 3.92127e-09 0.0152197
0.0156169 0 1.59541e-09 -0.0131667
0.0156181 0 0.000584603 -0.0131667
-0.0156185 -1.11957e-20 0.000584185 0.0152199
0.0156191 0 0.0012017 -0.0131665
-0.0156207 7.49829e-21 0.00119995 0.0152204
0.0154662 0 0.00250915 -0.0131654
-0.0149261 0 0.00477675 0.015231
0.0152816 2.71051e-20 0.00347878 -0.0131634
-0.0152852 0 0.00346631 0.0152266
0.0149333 2.71051e-20 0.00478413 -0.0131616
-0.0156201 0 0.00172303 0.0152213
0.0156163 0 0.00184941 -0.0131663
-0.0156199 0 0.00184524 0.0152215
-0.0154693 0 0.003148 0.0152254
0.0156092 0 0.00250487 -0.0131657
-0.0156138 1.03398e-25 0.00249847 0.0152233
-0.0152764 -5.42101e-20 0.00409542 0.0152285
0.0152785 -5.42101e-20 0.00410448 -0.0131626
0.015608 0 0.00259841 -0.0131656
-0.0149898 -6.61744e-24 0.00508713 0.0152312
0.0149968 -6.61744e-24 0.00509235 -0.0131618
0.0156006 -8.95009e-22 0.00315251 -0.0131647
-0.0151689 3.65283e-21 0.00482334 0.0152312
-0.0156039 0 0.00314562 0.0152256
0.0151743 -2.36971e-20 0.00482866 -0.0131618
-0.0156032 0 0.00318364 0.0152257
0.0159322 2.71051e-20 0.000292222 -0.0131677
-0.0159323 5.42101e-20 0.000292065 0.0152193
0.0159282 0 0.000584568 -0.0131676
0.0159329 2.71051e-20 0.000892712 -0.0131675
-0.0159336 0 0.000891952 0.0152197
0.0159836 -1.03398e-25 2.31451e-21 -0.0131679
-0.0153229 0 0.00461704 0.0152314
0.0159322 5.42101e-20 0.00152399 -0.0131673
-0.015934 0 0.00152204 0.0152208
0.0153273 2.71051e-20 0.00462278 -0.0131616
-0.015592 4.1359e-25 0.00378396 0.0152281
0.0155918 -2.53283e-20 0.0037897 -0.0131634
0.0159284 -5.42101e-20 0.00217342 -0.0131669
-0.0159311 -5.42101e-20 0.00217013 0.0152224
-0.0152682 0 0.00505663 0.0152313
0.0152733 0 0.00506088 -0.013162
-0.0160398 1.29247e-26 0.00184385 0.0152215
0.0159217 2.71051e-20 0.00282271 -0.013166
-0.0159241 -5.42101e-20 0.00281877 0.0152246
-0.0155885 -3.96352e-20 0.00438984 0.0152306
0.0155908 -2.47426e-20 0.00439405 -0.0131623
-0.0162467 0 4.50343e-09 0.0152185
0.0162467 0 1.14466e-09 -0.0131687
0.0162034 -1.61559e-27 0.00120022 -0.013168
-0.0153431 -6.61744e-24 0.00535315 0.015232
0.0153477 6.61744e-24 0.00535654 -0.0131618
0.0162471 8.31836e-21 0.000584533 -0.0131685
-0.0162472 -2.39986e-20 0.00058442 0.0152189
0.0159122 2.71051e-20 0.00346529 -0.0131646
-0.0159131 0 0.00346161 0.0152272
0.0162478 2.9653e-22 0.00120011 -0.0131682
-0.0162481 1.03398e-25 0.00119968 0.0152199
-0.0155338 -1.10412e-20 0.00491869 0.015232
0.0162477 -8.07794e-27 0.00123763 -0.0131681
0.0155374 -2.06994e-20 0.00492201 -0.0131618
0.0162469 2.58494e-26 0.00184409 -0.0131678
-0.0162477 -1.29247e-26 0.00184316 0.0152215
-0.0162472 2.58494e-26 0.00193845 0.0152217
-0.015901 0 0.00409355 0.0152301
0.0159019 0 0.00409655 -0.013163
0.0162431 0 0.00249417 -0.0131672
-0.016244 0 0.00249283 0.0152234
0.0162387 2.58494e-26 0.00283855 -0.0131667
0.0162348 0 0.0031392 -0.0131662
-0.0162354 0 0.00313774 0.0152256
-0.0156894 0 0.00525034 0.0152327
0.0156925 -2.71051e-20 0.00525277 -0.0131616
-0.0162334 -5.16988e-26 0.00321975 0.0152259
-0.0158705 0 0.0047214 0.0152325
0.0158727 -2.71051e-20 0.00472386 -0.0131619
0.0165604 -2.71051e-20 0.000292258 -0.0131697
-0.0165604 -2.71051e-20 0.000292218 0.0152178
0.0165607 0 0.000892189 -0.0131691
-0.0165609 0 0.000892028 0.0152188
0.0165606 2.71051e-20 0.00152156 -0.0131688
-0.016561 -2.71051e-20 0.00152113 0.0152204
-0.0162196 -4.61319e-21 0.00378044 0.0152281
0.0162198 -1.89987e-20 0.00378182 -0.0131648
-0.0156952 0 0.00561829 0.0152311
0.0156978 0 0.00562028 -0.0131635
0.0165588 2.71051e-20 0.00216766 -0.0131682
-0.0165593 2.71051e-20 0.00216703 0.0152223
-0.0161896 1.76851e-20 0.00442818 0.01523
0.0161906 2.18425e-20 0.00442953 -0.0131638
0.0165536 -2.71051e-20 0.00281397 -0.0131676
-0.016554 5.42101e-20 0.00281321 0.0152243
-0.0168738 0 4.79187e-09 0.0152166
0.0168738 0 1.76193e-09 -0.0131709
-0.0168739 -2.55938e-20 0.00058458 0.0152173
0.0168739 -2.81035e-21 0.000584593 -0.0131705
-0.0165426 -2.71051e-20 0.00345663 0.0152263
0.0165425 0 0.00345738 -0.0131666
-0.0161125 2.40213e-20 0.0051374 0.015231
0.0161142 4.04326e-21 0.00513878 -0.0131635
0.0168742 -9.76008e-21 0.00119965 -0.0131698
-0.0168743 -1.12436e-20 0.0011996 0.015219
-0.0160304 5.42101e-20 0.00554246 0.0152295
0.0168741 3.23117e-27 0.00173823 -0.0131694
0.0160322 0 0.00554379 -0.0131654
-0.0168741 -4.0643e-21 0.00184202 0.0152207
0.0168741 -3.23117e-27 0.00184212 -0.0131693
-0.0165205 -5.42101e-20 0.00410417 0.0152289
0.0165209 -2.71051e-20 0.00410496 -0.0131649
-0.0168728 1.29247e-26 0.00226182 0.0152216
0.016872 -2.58494e-26 0.00248968 -0.0131691
-0.0168721 1.29247e-26 0.00248953 0.015222
-0.0160456 0 0.00588237 0.0152296
0.0160471 0 0.0058834 -0.0131648
0.0168056 -9.69352e-27 0.00313292 -0.0131686
-0.0168654 -2.58494e-26 0.00313207 0.015223
0.0168654 1.2324e-20 0.00313226 -0.0131688
-0.0164772 -2.71051e-20 0.00477307 0.0152287
0.0168651 -3.23117e-27 0.00314406 -0.0131688
0.0164781 2.71051e-20 0.00477392 -0.0131652
-0.0168631 -2.58494e-26 0.00322486 0.0152232
0.0171867 0 0.000292305 -0.013172
-0.0171867 -2.71051e-20 0.000292302 0.0152154
0.0171869 -5.42101e-20 0.000892117 -0.0131709
-0.0171869 2.71051e-20 0.000892093 0.0152174
0.0171305 0 0.0018419 -0.0131702
-0.0163088 -1.01578e-20 0.00559077 0.0152303
0.01631 -2.39154e-20 0.00559165 -0.0131644
0.0171869 5.42101e-20 0.00152074 -0.0131702
-0.0171869 -2.71051e-20 0.00152071 0.0152195
-0.0168494 2.06795e-25 0.00377631 0.0152241
0.0168495 1.30306e-20 0.00377656 -0.0131684
0.017186 -5.42101e-20 0.00216542 -0.01317
-0.0171861 5.42101e-20 0.00216535 0.0152207
-0.016518 2.71051e-20 0.00536714 0.0152318
0.016519 -2.71051e-20 0.00536792 -0.0131634
-0.0168212 5.60332e-21 0.00443102 0.015225
0.0168216 2.32297e-20 0.00443137 -0.0131679
-0.0163928 0 0.00584542 0.0152297
0.0163937 -2.71051e-20 0.00584612 -0.0131642
0.0171824 -2.71051e-20 0.0028096 -0.0131704
-0.0171824 0 0.00280953 0.0152208
-0.0174996 8.27181e-25 4.65707e-09 0.0152136
0.0174996 0 2.44541e-09 -0.0131734
-0.0163956 0 0.00614428 0.0152239
-0.0174996 -3.09442e-20 0.000584661 0.015215
0.0174996 1.85347e-20 0.00058466 -0.0131727
0.0163962 0 0.00614484 -0.01317
-0.0171728 2.71051e-20 0.00345119 0.0152207
0.0171728 0 0.00345131 -0.0131708
-0.0174998 0 0.0011996 0.0152173
0.0174998 -3.25385e-20 0.0011996 -0.0131716
-0.0168072 1.8466e-20 0.00507468 0.0152256
0.0168078 4.87209e-21 0.00507514 -0.013168
-0.0174997 0 0.00184159 0.0152181
0.0174997 0 0.00184159 -0.0131714
-0.0174397 1.61559e-27 0.00248806 0.0152174
0.0174993 -3.23117e-27 0.00212642 -0.0131718
-0.0171543 2.71051e-20 0.00409713 0.0152208
0.0171545 2.71051e-20 0.00409729 -0.013171
0.0174987 6.46235e-27 0.00248791 -0.0131724
-0.0174987 9.50713e-21 0.00248791 0.0152169
-0.0174983 3.23117e-27 0.00255404 0.0152167
-0.0167741 3.0341e-20 0.00574437 0.0152235
0.0167746 9.70779e-21 0.00574481 -0.0131703
-0.0174944 1.29247e-26 0.00312778 0.0152148
0.0174944 -1.26602e-20 0.00312779 -0.013174
-0.0171359 2.71051e-20 0.00474309 0.0152219
0.0171362 5.42101e-20 0.00474333 -0.0131704
-0.0167048 0 0.00611288 0.0152181
0.0167053 0 0.00611327 -0.0131758
0.017492 0 0.00326736 -0.0131744
-0.017491 0 0.00333122 0.0152143
0.0178123 0 0.000292339 -0.0131747
-0.0178123 0 0.000292339 0.0152119
-0.0178123 -2.71051e-20 0.000892127 0.0152153
0.0178123 0 0.000892128 -0.013173
-0.0178123 -5.42101e-20 0.00152058 0.015217
0.0178123 2.71051e-20 0.00152058 -0.0131722
-0.0174836 2.58494e-26 0.00376687 0.0152132
0.0174836 2.07376e-20 0.00376691 -0.0131756
-0.0167191 1.32349e-23 0.00643605 0.015218
0.0167195 0 0.0064363 -0.0131751
0.0178119 -2.71051e-20 0.00216457 -0.0131732
-0.0178119 2.71051e-20 0.00216457 0.0152153
-0.017115 0 0.00539431 0.0152196
0.0171154 -2.71051e-20 0.0053946 -0.0131732
-0.0174667 -3.87098e-20 0.00441055 0.0152131
0.0174668 -2.93517e-20 0.00441062 -0.0131763
-0.0178098 2.71051e-20 0.00280703 0.015211
0.0178098 2.71051e-20 0.00280703 -0.0131759
-0.0169664 -2.12883e-20 0.00617963 0.0152181
0.0169667 -2.29162e-20 0.00617988 -0.013175
-0.0181249 8.27181e-25 4.21997e-09 0.0152096
0.0181249 4.1359e-25 2.86614e-09 -0.0131764
-0.0178039 -2.71051e-20 0.00344471 0.0152068
0.0178039 5.42101e-20 0.00344474 -0.013179
-0.0181249 -3.85977e-20 0.000584697 0.0152116
0.0181249 -1.09296e-20 0.000584697 -0.0131753
-0.0181249 2.39707e-21 0.00119962 0.015214
0.0181249 8.70287e-21 0.00119962 -0.0131741
-0.0174472 8.06418e-21 0.00505795 0.0152134
0.0174474 1.62624e-21 0.00505807 -0.0131771
-0.017167 -2.71051e-20 0.00597246 0.0152185
0.0171673 -8.13152e-20 0.00597271 -0.0131748
-0.0170427 8.13152e-20 0.00643802 0.0152178
-0.0181249 0 0.00184147 0.0152119
0.0181249 3.21988e-21 0.00184147 -0.013175
0.0170429 0 0.0064382 -0.0131744
-0.017793 0 0.00408287 0.0152049
0.017793 2.71051e-20 0.00408289 -0.0131813
0.0181245 0 0.00242045 -0.0131782
-0.0181245 0 0.0024871 0.0152057
0.0181245 0 0.0024871 -0.0131786
-0.017907 1.29247e-26 0.00376084 0.0152004
-0.0170214 0 0.00674878 0.015211
0.0170216 0 0.00674896 -0.0131811
-0.0181236 3.23117e-27 0.00276431 0.0152027
-0.017444 2.95734e-20 0.00568992 0.0152129
0.0174442 1.32349e-22 0.00569009 -0.0131786
0.0179724 0 0.00375993 -0.0131848
-0.0181225 0 0.00312454 0.0151987
0.0181225 0 0.00312455 -0.0131833
-0.0177779 -2.71051e-20 0.00472459 0.0152051
0.017778 2.71051e-20 0.00472464 -0.0131824
-0.0184375 0 0.000292351 0.0152073
0.0184375 0 0.000292351 -0.013178
-0.0184375 0 0.000892166 0.0152122
0.0184375 0 0.000892167 -0.0131755
0.0184374 -2.71051e-20 0.00152054 -0.0131754
-0.0184374 2.71051e-20 0.00152054 0.0152116
-0.0181171 1.29247e-26 0.00375785 0.015194
0.0181172 0 0.00375786 -0.0131876
0.0183579 -1.61559e-27 0.00248696 -0.0131821
0.0181148 0 0.00390619 -0.0131882
-0.0174092 4.04723e-20 0.0063534 0.0152101
0.0174094 1.25864e-20 0.00635351 -0.0131818
-0.0181139 0 0.00396148 0.0151937
-0.017766 2.71051e-20 0.0053638 0.0152071
0.0177661 0 0.00536388 -0.0131821
0.0184373 0 0.0021642 -0.0131792
-0.0184373 -2.71051e-20 0.0021642 0.0152038
-0.0173271 -2.71051e-20 0.00672776 0.0152042
0.0173272 -2.71051e-20 0.00672785 -0.0131879
-0.0181071 2.58494e-26 0.00439391 0.015193
0.0181071 -4.85384e-21 0.00439392 -0.0131901
0.0184364 2.71051e-20 0.0028054 -0.0131858
-0.0184364 -2.71051e-20 0.0028054 0.0151929
-0.0173238 0 0.00706122 0.0152056
0.0173239 -1.32349e-23 0.00706123 -0.0131856
-0.0177469 -2.71051e-20 0.00601017 0.0152061
0.017747 0 0.00601025 -0.0131845
-0.01875 0 3.911e-09 0.0152049
0.01875 0 3.03741e-09 -0.0131797
-0.0184337 -2.71051e-20 0.00343972 0.0151843
0.0184337 0 0.00343972 -0.0131926
-0.01875 -1.26453e-20 0.000584711 0.0152074
0.01875 1.94291e-20 0.000584711 -0.0131784
-0.0180931 2.86184e-20 0.00503408 0.0151953
0.0180932 2.89029e-20 0.00503411 -0.0131904
-0.01875 2.04593e-21 0.00119964 0.0152085
0.01875 1.00276e-20 0.00119964 -0.0131775
-0.01875 1.99221e-20 0.00184144 0.015201
0.01875 3.18214e-20 0.00184144 -0.0131808
-0.0175849 -4.2881e-21 0.0067982 0.0152049
0.017585 1.36319e-21 0.00679826 -0.0131863
-0.0184279 -2.71051e-20 0.00407228 0.0151804
0.0184279 -5.42101e-20 0.0040723 -0.0131974
-0.0187498 -3.46215e-20 0.00248672 0.0151881
0.0187498 -3.23117e-27 0.00248672 -0.0131881
0.0187496 -1.61559e-27 0.0026799 -0.0131907
-0.0184308 0 0.00438836 0.0151805
-0.0180758 3.04278e-20 0.00567799 0.0151983
0.0180758 2.94824e-20 0.00567802 -0.0131899
-0.0177903 -2.71051e-20 0.00659091 0.0152035
0.0177904 0 0.00659098 -0.0131876
-0.0187494 -3.23117e-27 0.00293764 0.0151797
0.0184842 0 0.00438746 -0.0132004
0.0187492 0 0.00312276 -0.0131966
-0.0187492 3.23117e-27 0.00312276 0.0151762
-0.0184184 0 0.0047076 0.0151819
0.0184184 5.42101e-20 0.0047076 -0.0131991
-0.0176528 0 0.00706059 0.015207
0.0176528 2.71051e-20 0.00706062 -0.0131834
-0.0190625 -2.71051e-20 0.000292356 0.0152026
0.0190625 -2.71051e-20 0.000292356 -0.0131814
-0.0190625 0 0.000892176 0.0152078
0.0190625 0 0.000892176 -0.0131785
-0.0176265 -1.32349e-23 0.00737367 0.0152012
0.0176265 0 0.00737369 -0.0131896
-0.0187471 2.58494e-26 0.00375263 0.0151692
0.0187471 0 0.00375264 -0.0132037
0.0190625 0 0.00152054 -0.0131803
-0.0190625 -2.71051e-20 0.00152054 0.0152025
-0.0180691 -1.06541e-20 0.00630978 0.0151999
0.0180692 4.73147e-21 0.00630982 -0.01319
-0.0184047 0 0.0053471 0.015187
0.0184047 2.71051e-20 0.00534713 -0.013198
0.0190624 0 0.00216406 -0.0131883
-0.0190624 0 0.00216406 0.0151864
-0.0187422 0 0.00438303 0.0151684
0.0187422 2.58494e-26 0.00438304 -0.0132075
-0.0190622 -2.71051e-20 0.00280458 0.0151697
0.0190622 2.71051e-20 0.00280458 -0.013199
0.019294 -5.16988e-26 6.84918e-45 -0.0131824
-0.0180246 2.00707e-20 0.00697622 0.0151996
0.0180246 -2.91366e-20 0.00697625 -0.013191
0.0187368 0 0.00475082 -0.0132075
-0.0183915 0 0.00598567 0.015193
0.0183916 2.71051e-20 0.00598568 -0.0131951
-0.0187351 1.29247e-26 0.00486052 0.015172
0.0190612 -2.71051e-20 0.00343712 -0.013209
-0.0190612 -2.71051e-20 0.00343712 0.0151582
-0.019375 0 4.06668e-09 0.0152012
0.019375 -1.03398e-25 4.52376e-10 -0.0131827
0.019375 -5.16988e-26 0.000278199 -0.0131821
-0.019375 -1.08675e-20 0.000584717 0.0152033
0.019375 1.76076e-21 0.000584716 -0.0131814
-0.0179362 2.71051e-20 0.00735206 0.0151955
0.0179362 2.71051e-20 0.00735208 -0.0131958
0.0187328 -1.20244e-21 0.00501785 -0.0132074
-0.0187328 0 0.00501785 0.0151732
-0.019375 4.87695e-21 0.00119964 0.0152011
0.019375 -2.11878e-20 0.00119964 -0.0131817
-0.019375 7.35881e-22 0.00184143 0.015187
0.019375 -9.90321e-21 0.00184143 -0.0131884
-0.0190587 0 0.00406623 0.015154
0.0190587 2.71051e-20 0.00406624 -0.0132157
0.0179293 0 0.00768642 -0.0131932
-0.0179292 0 0.00768646 0.0151973
-0.0188685 6.46235e-27 0.00501569 0.0151689
-0.0183671 0 0.00663351 0.0151968
0.0183672 -5.42101e-20 0.00663353 -0.0131932
-0.019375 2.80885e-20 0.0024866 0.0151681
0.019375 3.96519e-20 0.0024866 -0.0131996
-0.0187185 3.41212e-23 0.00565746 0.0151812
0.0187186 -2.65227e-20 0.00565747 -0.013204
-0.0193459 2.62533e-27 0.00312215 0.0151544
0.0193748 -8.07794e-28 0.00300189 -0.0132089
0.01897 2.58494e-26 0.00501408 -0.0132136
-0.0190533 2.71051e-20 0.00469698 0.0151573
0.0190533 0 0.00469699 -0.0132177
0.0193748 8.07794e-28 0.00312212 -0.0132111
-0.0193748 -2.01948e-28 0.00312212 0.0151533
-0.0193748 1.00974e-27 0.00313568 0.0151531
0.0181955 1.22687e-20 0.00742325 -0.0131939
-0.0181955 -1.80656e-20 0.00742325 0.0151966
-0.0196875 0 0.000292358 0.0151998
0.0196875 -2.71051e-20 0.000292358 -0.0131841
-0.0196875 0 0.00089218 0.0152031
0.0196875 0 0.00089218 -0.0131815
0.0186985 -3.22104e-21 0.0063019 -0.0131995
-0.0186985 1.21273e-20 0.0063019 0.0151891
-0.0193742 6.46235e-27 0.00375048 0.0151456
0.0193742 0 0.00375048 -0.0132201
0.0196875 -2.71051e-20 0.00152054 -0.0131863
-0.0196875 2.71051e-20 0.00152054 0.0151911
-0.0184047 0 0.00721591 0.015195
0.0184047 -2.71051e-20 0.00721592 -0.0131955
-0.0190436 0 0.00533179 0.0151665
0.0190437 2.71051e-20 0.00533179 -0.0132148
0.0196875 -2.71051e-20 0.00216401 -0.0131986
-0.0196875 2.71051e-20 0.00216401 0.015168
-0.0182613 0 0.00768613 0.0151992
0.0182613 0 0.00768613 -0.0131906
-0.0193723 0 0.00437779 0.0151459
0.0193723 2.58494e-26 0.00437779 -0.0132247
0.0196874 0 0.00280433 -0.0132123
-0.0196874 0 0.00280433 0.0151486
-0.0182323 -1.32349e-23 0.00799942 0.0151957
0.0182323 0 0.00799942 -0.0131948
-0.0186874 3.62636e-20 0.00693489 0.0151936
0.0186875 -2.53117e-21 0.00693493 -0.0131965
-0.0190287 2.71051e-20 0.00597154 0.0151783
0.0190287 -5.42101e-20 0.00597155 -0.0132081
0.0196872 0 0.00343614 -0.0132241
-0.0196872 -2.71051e-20 0.00343614 0.0151368
-0.02 0 4.58353e-09 0.0152007
0.02 2.06795e-25 9.31731e-10 -0.0131845
-0.0193674 0 0.00500776 0.0151533
0.0193674 -5.16988e-26 0.00500776 -0.0132238
0.02 2.58494e-26 0.000467287 -0.0131837
-0.02 -2.93322e-20 0.000584718 0.0152013
0.02 1.94111e-20 0.000584716 -0.0131835
0.0197651 0 0.00312203 -0.0132185
-0.02 1.35382e-20 0.00119965 0.0151942
0.02 -1.89486e-21 0.00119965 -0.0131857
0.0193626 2.58494e-26 0.00531036 -0.013221
-0.02 -3.59029e-20 0.00184143 0.015174
0.02 2.54179e-20 0.00184143 -0.0131958
-0.0193616 0 0.00537394 0.0151604
0.0196863 0 0.00406358 -0.0132317
-0.0196863 0 0.00406358 0.0151335
0.0186372 8.86076e-21 0.00760237 -0.0131958
-0.0186372 -6.02187e-22 0.00760238 0.0151947
-0.0190127 0 0.0066109 0.0151881
0.0190127 0 0.00661089 -0.0132014
-0.02 6.69831e-21 0.00248657 0.015152
0.02 -3.33276e-20 0.00248657 -0.0132098
0.0193574 1.50816e-21 0.00564266 -0.0132179
-0.0193574 2.58494e-26 0.00564266 0.0151656
-0.0185451 0 0.00797829 0.0151922
0.0185451 2.71051e-20 0.00797829 -0.0131989
-0.0196838 0 0.00469127 0.0151386
0.0196838 2.71051e-20 0.00469127 -0.0132336
-0.02 2.75628e-20 0.00312197 0.0151369
0.02 0 0.00312197 -0.013223
0.02 0 0.00325476 -0.013225
-0.0199999 1.61559e-27 0.0033983 0.0151338
0.0185356 0 0.00831268 -0.0131969
-0.0185355 0 0.00831272 0.0151938
-0.0203125 0 0.000292358 0.0152017
0.0203125 -2.71051e-20 0.000292358 -0.0131848
-0.0189844 -2.71051e-20 0.00725983 0.0151944
0.0189845 -2.71051e-20 0.00725984 -0.0131959
0.0203125 0 0.000892183 -0.0131834
-0.0203125 2.71051e-20 0.000892183 0.0152008
0.0193417 -2.11953e-20 0.00628271 -0.0132093
-0.0193417 -9.31405e-21 0.00628271 0.0151789
0.0199998 -1.61559e-27 0.00374985 -0.0132328
-0.0199998 0 0.00374985 0.0151299
-0.0203125 -5.42101e-20 0.00152054 0.0151818
0.0203125 0 0.00152054 -0.0131915
0.0196781 -2.71051e-20 0.00532193 -0.0132291
-0.0196781 -2.71051e-20 0.00532193 0.0151508
-0.0203125 -2.71051e-20 0.002164 0.0151553
0.0203125 0 0.002164 -0.0132067
0.0188063 2.09508e-20 0.00805025 -0.0131973
-0.0188063 -1.5326e-20 0.00805025 0.0151934
-0.0199992 -1.29247e-26 0.00437577 0.0151313
0.0199992 0 0.00437577 -0.0132375
-0.019683 0 0.00563764 0.0151606
-0.0203125 2.71051e-20 0.00280427 0.0151364
0.0203125 -2.71051e-20 0.00280427 -0.0132215
0.0193191 3.50642e-20 0.00692789 -0.0132014
-0.0193191 1.54782e-20 0.00692789 0.0151889
0.0197473 1.29247e-26 0.00563665 -0.0132242
0.0196677 0 0.00595699 -0.0132195
-0.0196677 -2.71051e-20 0.00595699 0.015167
-0.019019 2.71051e-20 0.00784353 0.0151928
0.019019 -2.71051e-20 0.00784353 -0.0131981
0.0203124 2.71051e-20 0.00343589 -0.0132339
-0.0203124 2.71051e-20 0.00343589 0.0151259
-0.0199972 2.58494e-26 0.00500279 0.0151406
0.0199972 2.58494e-26 0.00500279 -0.0132359
0.018871 -2.71051e-20 0.00831348 -0.0131948
-0.018871 -5.42101e-20 0.00831348 0.0151954
-0.020625 -8.27181e-25 5.04458e-09 0.0152065
0.020625 0 1.50663e-09 -0.0131834
0.020625 0 0.000563462 -0.0131832
-0.020625 -4.10447e-21 0.000584719 0.0152045
0.020625 0 0.000584717 -0.0131832
-0.020625 1.79653e-20 0.00119965 0.0151916
0.020625 -3.00745e-20 0.00119965 -0.0131878
-0.020625 6.78743e-21 0.00184143 0.0151673
0.020625 7.22569e-21 0.00184143 -0.0132004
0.0203122 0 0.00406266 -0.0132416
-0.0203122 2.71051e-20 0.00406266 0.0151235
-0.0188392 1.32349e-23 0.00862624 0.0151938
0.0188392 1.32349e-23 0.00862624 -0.013197
-0.0196513 -2.71051e-20 0.00659729 0.0151821
0.0196513 -2.71051e-20 0.00659729 -0.013208
0.0193053 1.95314e-20 0.00756209 -0.0131976
-0.0193053 1.42606e-21 0.00756209 0.0151933
-0.0199921 0 0.00563287 0.0151558
0.0199921 0 0.00563287 -0.0132282
-0.020625 -1.57e-20 0.00248657 0.0151449
0.020625 6.87521e-21 0.00248657 -0.0132157
0.0199893 0 0.00580089 -0.0132251
-0.0199888 2.58494e-26 0.00582967 0.015161
0.0203112 0 0.00468874 -0.0132433
-0.0203112 -5.42101e-20 0.00468874 0.0151296
-0.020625 -3.85434e-20 0.00312195 0.0151307
0.020625 -3.54986e-21 0.00312195 -0.0132292
-0.0196335 2.71051e-20 0.00723751 0.0151912
0.0196335 0 0.00723751 -0.0132002