# U  POINT_DATA 45383
# x  y  z  U_x  U_y  U_z
0.01 3.4489e-27 1.48997e-07 3.60886e-17 -2.68844e-14 1.85602e-17
-0.01 2.10863e-26 8.48436e-08 5.8368e-17 -2.47891e-14 -1.73965e-17
-0.01 -4.1359e-25 0.000678316 5.72585e-11 -2.33921e-08 -5.93807e-11
0.01 1.29247e-26 0.00067832 1.06543e-12 -7.04599e-10 1.26276e-12
0.0100335 -2.58494e-26 0.00067574 1.39328e-06 -0.000357047 4.41577e-07
-0.01 0 0.00137373 2.64885e-10 -1.19736e-07 -3.28528e-10
0.01 0 0.00137372 1.6277e-11 -1.14621e-08 2.24607e-11
-0.01 3.30872e-24 0.00208696 1.25724e-09 -2.72287e-07 -8.26173e-10
0.01 1.57772e-30 0.002087 2.39878e-16 -8.19013e-14 1.87879e-16
0.0101864 -2.06795e-25 0.00133473 1.11654e-05 -0.0028703 4.77252e-06
-0.0102702 2.71051e-20 0.000327905 7.20436e-06 -0.00303913 -2.1525e-06
0.0102702 0 0.000327954 3.32121e-06 -0.00242286 1.69839e-06
-0.0102616 -2.71051e-20 0.000986823 1.4411e-05 -0.00585519 -2.02465e-05
0.0102619 0 0.000986956 7.55952e-06 -0.00489325 1.11935e-05
-0.0102382 0 0.00161862 9.18663e-06 -0.00489107 -9.00614e-06
0.0102389 -2.71051e-20 0.00161883 4.89328e-06 -0.00409575 5.80553e-06
-0.0105473 0 0.000241058 1.57135e-05 -0.0025536 -5.95658e-06
-0.0105508 0 8.49672e-08 1.00416e-10 -1.63071e-08 -8.76717e-12
0.0105508 -2.06795e-25 8.59948e-08 2.59195e-11 -6.9269e-09 3.14701e-12
-0.0105415 -1.7018e-20 0.00063654 4.15023e-05 -0.00674452 -1.57324e-05
0.0105418 1.3268e-20 0.00063661 2.25296e-05 -0.00577351 7.14038e-06
-0.0105237 0 0.00126378 5.83645e-05 -0.00919972 -3.20008e-05
0.0105246 -3.02368e-20 0.00126397 3.14284e-05 -0.00807932 1.34337e-05
-0.0105066 -5.27079e-21 0.00172222 5.06186e-05 -0.00780041 -2.93929e-05
0.0105082 1.83047e-20 0.00172263 2.69889e-05 -0.00682074 1.39502e-05
-0.0104981 0 0.00202328 3.93809e-05 -0.00570566 -2.29034e-05
0.0105003 -2.71051e-20 0.00202395 2.16523e-05 -0.00482438 1.50322e-05
-0.0104973 3.30872e-24 0.00235191 1.89021e-09 -1.93805e-07 -1.15465e-09
0.0105018 -1.65436e-24 0.00235298 8.46196e-10 -1.4535e-07 5.10732e-10
-0.0108324 2.71051e-20 0.000312949 4.32924e-05 -0.00537431 -2.49137e-06
0.0108326 -2.71051e-20 0.000313002 2.3042e-05 -0.0044957 1.48117e-06
-0.0108211 2.71051e-20 0.000935918 9.95491e-05 -0.0125988 -3.77649e-05
0.0108219 2.71051e-20 0.000936095 5.53347e-05 -0.011179 1.41975e-05
-0.0107987 0 0.00152672 0.000108677 -0.0132923 -5.90013e-05
0.0108006 0 0.00152718 5.72094e-05 -0.011998 2.17856e-05
0.0111231 0 1.4102e-08 9.79796e-10 -1.36296e-07 3.03192e-11
-0.0111231 0 1.1833e-08 1.35945e-09 -1.23704e-07 -4.12327e-11
-0.0111217 8.27181e-25 0.00054366 9.67476e-05 -0.00912241 -2.28704e-05
-0.0109001 0 0.00228558 8.21709e-05 -0.00684862 -5.13583e-05
-0.0111215 0 0.000612314 0.000108965 -0.0102744 -2.57585e-05
0.011122 -1.07835e-20 0.00061238 6.40298e-05 -0.00924216 6.76921e-06
0.0109057 0 0.00228695 4.26991e-05 -0.00604983 2.38918e-05
-0.0109929 0 0.00190209 0.000140221 -0.0119917 -7.75048e-05
0.0109964 -1.87952e-20 0.00190279 7.38091e-05 -0.0111112 2.59119e-05
-0.0111 0 0.00123235 0.000165351 -0.0154299 -7.00051e-05
0.0111015 1.75966e-20 0.00123258 9.32693e-05 -0.0143024 1.88798e-05
-0.0109856 0 0.00261204 7.44523e-10 -5.38169e-08 -4.62705e-10
0.0109947 0 0.00261423 2.19478e-09 -2.84173e-07 1.21173e-09
-0.0114284 -2.71051e-20 0.000305075 8.56975e-05 -0.00649296 -1.6234e-06
0.0114286 0 0.000305108 5.13647e-05 -0.00568338 7.80597e-07
-0.0112129 -7.82513e-21 0.00232217 0.000139539 -0.00963897 -8.38559e-05
0.0112195 2.75319e-20 0.00232367 7.07013e-05 -0.0089758 3.10033e-05
-0.0114246 -2.71051e-20 0.00092111 0.000208821 -0.0167789 -6.18528e-05
0.0114256 -2.71051e-20 0.00092126 0.00012731 -0.0157522 1.08382e-05
-0.0113817 2.71051e-20 0.0015635 0.000249369 -0.0192475 -0.000122851
0.0113839 0 0.00156383 0.000136375 -0.0184971 2.86679e-05
-0.011173 -4.1359e-25 0.00271189 0 0 0
-0.0114068 -2.71051e-20 0.00210155 0.00023082 -0.0154519 -0.000134907
0.011411 0 0.00210244 0.000116391 -0.0147851 4.00665e-05
-0.0113382 2.71051e-20 0.00256301 0.000104961 -0.00663194 -6.49027e-05
0.0113467 0 0.00256544 5.25544e-05 -0.00607595 2.88579e-05
0.0117295 0 6.31228e-09 7.21349e-10 -6.42452e-08 3.5935e-12
-0.0117295 -4.1359e-25 4.80147e-09 7.28445e-10 -4.75432e-08 -1.38943e-11
-0.0117405 0 0.00051944 0.000157057 -0.0107631 -3.50242e-05
-0.0117423 -1.03398e-25 0.00060318 0.000182376 -0.0124983 -4.06704e-05
0.0117428 7.38507e-21 0.000603251 0.000121106 -0.0118283 2.2425e-06
-0.0115321 -2.06795e-25 0.00238299 0.000216823 -0.0120743 -0.000128451
-0.0117315 0 0.00123297 0.00029701 -0.0200096 -0.000124667
0.0117329 1.46188e-20 0.00123324 0.000181486 -0.0196371 9.57726e-06
-0.0114582 0 0.00286379 2.13485e-09 -1.00552e-07 -1.23265e-09
0.011472 0 0.00286721 4.50068e-09 -4.76243e-07 2.165e-09
-0.0117202 0 0.00185692 0.000328992 -0.0199214 -0.000182297
0.0117223 -1.09221e-20 0.00185737 0.000170231 -0.0197362 2.34824e-05
-0.0116916 1.03398e-25 0.00211226 0.000291143 -0.0167273 -0.000165506
-0.0116585 2.78171e-20 0.00240709 0.000247439 -0.0130391 -0.000146118
0.0116635 2.72903e-20 0.00240866 0.000112078 -0.0126642 3.35286e-05
-0.0120571 2.71051e-20 0.000300839 0.000123525 -0.00720313 -2.41281e-06
0.0120573 0 0.000300897 8.84001e-05 -0.00658061 -1.30774e-07
-0.0120651 0 0.000916399 0.00031513 -0.0197778 -9.85623e-05
0.0120657 -2.71051e-20 0.000916727 0.000219827 -0.0195605 -2.4419e-06
-0.0120089 -1.03398e-25 0.00187021 0.000410157 -0.0221765 -0.000241349
-0.0120608 0 0.00155099 0.000415884 -0.0243075 -0.000217203
0.0120609 -2.71051e-20 0.00155169 0.000242597 -0.0248133 1.82323e-06
-0.0118568 -2.71051e-20 0.00273895 0.000242563 -0.00987042 -0.000136381
0.0118619 2.71051e-20 0.00274195 9.63886e-05 -0.00938136 4.31023e-05
0.012035 2.71051e-20 0.00219403 0.000191234 -0.0213463 2.17117e-05
-0.0120372 2.71051e-20 0.00219395 0.000431266 -0.0211275 -0.000260237
-0.0119121 0 0.00310559 7.19482e-09 -2.64874e-07 -4.22153e-09
0.0119304 0 0.00311016 6.30414e-09 -6.49321e-07 2.35528e-09
0.0123683 0 2.71643e-09 6.3516e-10 -3.93177e-08 -6.66962e-12
-0.0123683 0 2.66988e-09 7.02205e-10 -3.96249e-08 -1.75615e-11
-0.0123892 -1.55096e-25 0.000564551 0.000225783 -0.0133323 -5.97964e-05
-0.0123904 -2.58494e-26 0.00059722 0.000238849 -0.0141038 -6.32567e-05
0.0123907 -6.09301e-21 0.000597448 0.000196098 -0.013978 -9.20824e-06
-0.0123962 0 0.00122692 0.000415067 -0.0235735 -0.000202706
0.0123962 2.18467e-20 0.00122803 0.000290609 -0.0243547 -2.52079e-05
-0.0123949 0 0.00129009 0.00042465 -0.0237192 -0.000213715
0.0123792 1.92452e-20 0.00188965 0.000264417 -0.0262542 -2.18498e-05
-0.0123827 -1.15441e-20 0.00188742 0.00051526 -0.0250968 -0.000317817
-0.0125417 -5.16988e-26 0.00059593 0.000242659 -0.0143843 -7.02485e-05
0.0123193 -1.44194e-20 0.00260601 0.000157257 -0.0174003 7.01306e-06
-0.0123305 -1.39827e-20 0.00260668 0.00044185 -0.017078 -0.000281946
-0.0125688 2.58494e-26 0.00122537 0.000432068 -0.0242939 -0.000227375
0.0122774 5.42101e-20 0.00301148 8.54865e-05 -0.00892997 2.57067e-05
-0.0122788 2.71051e-20 0.00300901 0.000284221 -0.00939516 -0.000172631
-0.0127075 2.71051e-20 0.00029719 0.000142061 -0.00771549 -4.18355e-06
0.0127075 0 0.000297361 0.000139004 -0.00732263 -2.2671e-06
0.0127224 5.42101e-20 0.000910669 0.000340497 -0.0227564 -3.23467e-05
-0.0127228 0 0.000909514 0.000379284 -0.0220118 -0.00015054
-0.0123477 0 0.00333768 1.161e-08 -3.29444e-07 -6.90916e-09
0.0123698 6.61744e-24 0.00334298 5.48429e-09 -6.4554e-07 1.49098e-09
0.0127185 0 0.0015595 0.000359593 -0.0303686 -6.79258e-05
-0.0127224 -5.42101e-20 0.00155586 0.000551797 -0.0282718 -0.00034666
0.0126865 -2.71051e-20 0.00223766 0.000266047 -0.0285792 -4.3941e-05
-0.0127017 2.71051e-20 0.00223253 0.000664006 -0.0267557 -0.000448714
0.0125633 3.5132e-20 0.00303647 0.000103094 -0.012397 8.9223e-06
-0.0125873 2.72324e-20 0.00304271 0.000414253 -0.0124289 -0.000261543
-0.0130258 0 2.56512e-09 7.31756e-10 -4.31828e-08 -3.50657e-11
0.0130258 0 1.94236e-09 7.25111e-10 -3.20499e-08 -1.4553e-11
0.0127297 0 0.00279908 0.00016254 -0.0203972 -1.53519e-05
0.0130472 -4.14488e-20 0.000592235 0.000296188 -0.0157839 -2.7519e-05
-0.0130474 -5.12438e-22 0.000591621 0.000255397 -0.0153218 -9.3619e-05
-0.0127816 0 0.0028142 0.000620824 -0.0198782 -0.000415477
0.0126842 0 0.00327272 6.29375e-05 -0.00805317 1.60486e-05
0.0130549 -1.93221e-20 0.00122427 0.000426717 -0.0283878 -8.10993e-05
-0.0130573 -4.99638e-21 0.00122099 0.000480195 -0.0263334 -0.000297208
-0.0127078 -5.42101e-20 0.00328029 0.000339652 -0.00819511 -0.000198505
0.0130409 1.73815e-20 0.00189495 0.000371834 -0.0324753 -0.000111122
-0.0130523 -1.41804e-20 0.00188526 0.000670902 -0.0296516 -0.000487684
-0.0127679 0 0.0035615 1.6509e-08 -3.57112e-07 -9.99401e-09
0.0130294 -1.15689e-20 0.00254415 0.000232399 -0.0278838 -8.75995e-05
0.0127922 0 0.0035676 3.96632e-09 -7.82945e-07 -9.27174e-11
-0.0130668 1.01148e-20 0.00252843 0.0007718 -0.0262148 -0.000556847
0.0129755 1.26195e-20 0.00310441 0.000104369 -0.0166638 -3.17116e-05
0.0133645 0 0.000294678 0.000209832 -0.00794922 -4.6911e-06
-0.0133647 0 0.0002943 0.000128461 -0.0081136 -8.80217e-06
0.013377 0 0.000905403 0.000499215 -0.0254089 -7.1652e-05
-0.0133788 2.71051e-20 0.000902908 0.000376418 -0.0237184 -0.000214165
-0.0130842 1.61383e-20 0.00316077 0.000622547 -0.0158726 -0.000421539
0.0133744 2.71051e-20 0.00155542 0.000505762 -0.0351167 -0.000152511
-0.0133828 2.71051e-20 0.00154643 0.000616399 -0.0314211 -0.000480125
-0.013073 -2.71051e-20 0.00349728 0.000419142 -0.00811747 -0.00026064
0.0133614 -2.71051e-20 0.00222042 0.000354044 -0.0356825 -0.000177244
-0.0133875 2.71051e-20 0.0021975 0.000848419 -0.0320341 -0.000671409
0.0131593 2.71051e-20 0.00342851 4.40461e-05 -0.0119355 -1.49766e-05
0.0133331 0 0.0028787 0.000156025 -0.0277208 -0.000121658
-0.0136859 0 1.99115e-09 4.44054e-10 -3.53325e-08 -4.78721e-11
0.0136859 2.06795e-25 1.20838e-09 6.65929e-10 -2.15225e-08 -1.56672e-11
-0.0133972 2.71051e-20 0.00283002 0.000962298 -0.0267611 -0.000700218
-0.0131766 0 0.00377904 1.99085e-08 -3.73813e-07 -1.3085e-08
0.0137005 -3.18841e-20 0.000588479 0.000424099 -0.0171991 -4.57773e-05
-0.0137012 -1.04183e-21 0.000587422 0.000222998 -0.0161857 -0.000121982
0.0132008 0 0.00378645 1.76207e-09 -9.25395e-07 -2.30669e-09
0.0137066 -6.16394e-21 0.00121712 0.000596496 -0.0316043 -0.000135067
-0.0137113 3.09643e-20 0.00121149 0.000476788 -0.028338 -0.000373193
-0.0133317 1.11537e-20 0.00353346 0.000556873 -0.0114473 -0.000377647
0.0136964 -3.10408e-20 0.00188403 0.000497293 -0.0377911 -0.00020827
-0.0137136 1.11279e-20 0.00186546 0.000758905 -0.033237 -0.00061462
-0.0134741 0 0.00333584 0.00083037 -0.018632 -0.000580108
0.0136686 -1.20677e-20 0.00256371 0.000273858 -0.035307 -0.000203824
-0.0137152 -1.23908e-20 0.00251516 0.000996184 -0.0319935 -0.00074218
-0.0134565 0 0.0037461 0.000416724 -0.00748395 -0.00028861
0.0136041 -1.80358e-20 0.00329192 6.77602e-05 -0.0223188 -0.000105349
0.0140177 -2.71051e-20 0.000293139 0.00030033 -0.00842338 -7.23756e-06
-0.0140182 -2.71051e-20 0.000292601 8.14106e-05 -0.00838152 -1.37107e-05
0.0135422 2.71051e-20 0.0036961 8.22096e-06 -0.0115928 -3.94533e-05
0.0140256 -2.71051e-20 0.000900278 0.000691818 -0.0273295 -0.000100875
-0.0140284 0 0.000896824 0.000310225 -0.0247948 -0.000254928
-0.0137342 -9.32398e-21 0.00311436 0.0010362 -0.0258653 -0.00071718
0.014023 -2.71051e-20 0.00154615 0.000686272 -0.0387237 -0.000216304
-0.0140338 2.71051e-20 0.00153371 0.000609476 -0.0335424 -0.000547817
-0.0135654 0 0.00401386 2.93894e-08 -5.03135e-07 -2.094e-08
0.0135836 -6.61744e-24 0.00402855 -1.16909e-09 -9.3219e-07 -4.139e-09
0.0140057 2.71051e-20 0.00221874 0.000443114 -0.041585 -0.000285963
-0.0137123 -3.40468e-21 0.00361961 0.000762555 -0.0154738 -0.000524946
-0.0140348 -2.71051e-20 0.00218502 0.000959802 -0.0359145 -0.000758067
0.0139704 0 0.00290901 0.000148039 -0.0364384 -0.000232972
-0.0140398 -5.42101e-20 0.00281908 0.0012107 -0.033329 -0.000837963
0.0138292 3.56647e-20 0.00373726 -8.03982e-06 -0.0161632 -7.66246e-05
-0.0143389 0 2.44464e-09 2.52504e-10 -4.45678e-08 -8.54353e-11
0.0143389 -2.06795e-25 1.44847e-09 1.14392e-09 -2.82296e-08 -2.49955e-11
0.0143466 -4.82205e-21 0.000586141 0.000565313 -0.0180709 -5.15557e-05
-0.0143476 -3.25982e-20 0.00058495 0.000158721 -0.0166201 -0.000135802
0.0143501 2.75087e-20 0.00121019 0.000780019 -0.0336822 -0.000146467
-0.0143553 -9.53879e-21 0.00120417 0.000439406 -0.0294106 -0.000388148
-0.0138945 0 0.00393317 0.000686587 -0.0113109 -0.000497557
-0.0140375 2.71051e-20 0.00343143 0.00117113 -0.0257668 -0.00077023
0.0140303 5.42101e-20 0.00350658 -2.65643e-06 -0.0264134 -0.00013612
0.0143403 -1.58557e-20 0.00187312 0.000633331 -0.0416803 -0.00022432
-0.0143565 0 0.00185406 0.000816288 -0.0354528 -0.000600818
0.0139282 2.71051e-20 0.00399009 -2.89251e-05 -0.0109003 -5.64127e-05
0.0143175 1.86488e-21 0.00255235 0.000331882 -0.0421263 -0.000223836
-0.0139239 0 0.00428422 4.25299e-08 -7.34187e-07 -2.83675e-08
-0.0143528 -2.3069e-20 0.00250721 0.00117346 -0.0362312 -0.000696834
0.0139403 0 0.00429658 -3.52838e-09 -1.01116e-06 -3.56068e-09
0.0146631 5.42101e-20 0.000292462 0.000394956 -0.00864323 -7.87312e-06
-0.0146635 -2.71051e-20 0.000291927 1.68421e-05 -0.00846318 -1.87798e-05
0.0143152 -1.14068e-20 0.00320647 7.23313e-05 -0.0360893 -0.000147908
-0.0143427 -1.40377e-20 0.00314905 0.00132428 -0.0324475 -0.000699865
0.0146669 -2.71051e-20 0.000896444 0.000880663 -0.0282172 -9.17923e-05
-0.0146697 0 0.00089329 0.000230376 -0.0251001 -0.000259541
0.014725 -1.03398e-25 3.73197e-16 0 0 0
0.0146638 -2.71051e-20 0.00153733 0.000858647 -0.0406782 -0.000179416
-0.014673 2.71051e-20 0.00152674 0.000613611 -0.0343491 -0.000494987
-0.0142998 -2.53862e-20 0.00383371 0.000998365 -0.0208552 -0.000524832
0.0146505 2.71051e-20 0.00220325 0.000542165 -0.0456994 -0.000217195
0.0143063 1.87274e-20 0.0038743 -3.15662e-05 -0.0220742 -3.71722e-05
0.0148154 -2.58494e-26 0.000585312 0.000649115 -0.0181803 -3.89613e-05
-0.0146709 0 0.00217815 0.00108227 -0.0379968 -0.00060389
-0.0142437 -2.71051e-20 0.00422231 0.000622905 -0.0112044 -0.000375768
-0.014746 0 0.00185053 0.000893505 -0.0357419 -0.00046823
0.014255 0 0.00424396 -4.06135e-05 -0.0111495 -1.75767e-05
0.0148484 0 0.00120616 0.000880811 -0.0340987 -8.98437e-05
0.0146399 0 0.00286477 0.000192943 -0.0445557 -0.00016024
-0.0147113 5.16988e-26 0.00250555 0.00130632 -0.0373736 -0.00047131
-0.0146627 0 0.00282903 0.0014374 -0.0377316 -0.000585406
-0.0149819 4.1359e-25 3.19382e-09 -1.17797e-10 -5.81617e-08 -1.52243e-10
0.0149819 0 9.62822e-10 9.45754e-10 -1.88336e-08 -1.61412e-11
-0.0142803 -6.61744e-24 0.00455271 4.44113e-08 -8.4008e-07 -2.60445e-08
0.0149853 2.95045e-20 0.000585012 0.000679476 -0.0182199 -3.43985e-05
-0.0149861 2.76522e-20 0.000584127 9.83385e-05 -0.0165384 -0.000131715
0.0142938 -6.61744e-24 0.00456274 -1.94103e-09 -1.0891e-06 3.64029e-10
0.0149869 0 0.00120504 0.000908826 -0.0342145 -7.41055e-05
-0.0149906 -2.34151e-20 0.00120094 0.000440639 -0.0293468 -0.000319945
0.0149249 -1.29247e-26 0.00186093 0.000700414 -0.0432126 -7.60718e-05
-0.0146412 0 0.00348482 0.00148664 -0.0333351 -0.000601347
0.0146341 0 0.00351739 -3.95951e-05 -0.0377529 -6.46201e-05
-0.0149904 0 0.00167349 0.000806568 -0.0341473 -0.000367477
0.0149806 -1.29247e-26 0.00185977 0.0007068 -0.0433585 -6.19603e-05
0.0149792 -1.29247e-26 0.00193528 0.000665539 -0.0437054 -5.19176e-05
-0.0149903 -2.84612e-20 0.00184831 0.000941941 -0.0359232 -0.000385061
-0.0145147 1.94586e-20 0.00427467 0.000749045 -0.0154556 -0.000358936
0.0145233 -1.26724e-20 0.00429208 -2.57578e-05 -0.016394 3.15834e-05
0.0149685 0 0.00252404 0.000343839 -0.0464097 2.63832e-05
-0.0149829 3.00624e-20 0.0025043 0.00140695 -0.0382389 -0.000300501
-0.0149776 0 0.00275132 0.00148893 -0.0378958 -0.00025581
-0.0147025 -2.71051e-20 0.0040589 0.00111106 -0.0249976 -0.000407282
0.0147084 0 0.00408023 -4.51508e-05 -0.0273583 8.55995e-05
0.0149582 -1.2332e-20 0.00317892 5.41946e-05 -0.0444561 0.000166677
-0.0146099 -2.71051e-20 0.0045237 0.000522322 -0.0103922 -0.000295481
-0.0149688 0 0.00315684 0.00162351 -0.0373325 -0.000182443
0.0153005 0 0.000292235 0.000463617 -0.00853241 -6.87415e-06
-0.0153009 2.71051e-20 0.000291878 -4.77779e-05 -0.00832044 -2.54183e-05
0.0146196 0 0.00453529 7.63723e-06 -0.0109216 2.75432e-05
0.0153021 2.71051e-20 0.000894041 0.000986777 -0.0278195 -3.21151e-05
-0.0153039 0 0.000892113 0.0001977 -0.0245215 -0.000226465
0.0153002 -2.71051e-20 0.00152928 0.000907601 -0.040398 4.59542e-06
-0.0153052 -5.42101e-20 0.00152357 0.000727873 -0.0335663 -0.000302005
-0.0146355 0 0.0048202 4.18865e-08 -9.52767e-07 -1.87804e-08
0.0146456 -6.61744e-24 0.00482779 4.87456e-09 -1.15954e-06 9.82894e-09
-0.0149723 -7.88386e-21 0.00378401 0.00143398 -0.0326127 -0.000112425
0.0149713 2.97901e-20 0.00380142 -3.32647e-05 -0.0376337 0.000290755
0.0152929 2.71051e-20 0.00218496 0.000515566 -0.0467019 0.000139092
-0.0153015 5.42101e-20 0.00217419 0.00134466 -0.0377978 -0.000142118
0.0152835 -2.71051e-20 0.00284024 0.000126086 -0.0486129 0.000338371
-0.0152919 2.71051e-20 0.00282667 0.00176044 -0.0394127 0.000126065
-0.0149633 -2.90903e-20 0.00442183 0.000810341 -0.020456 -5.91355e-05
0.014969 7.21301e-21 0.00443194 4.86497e-05 -0.0228099 0.000293476
-0.0156169 0 3.92127e-09 -6.36367e-10 -6.93202e-08 -2.62382e-10
0.0156169 0 1.59541e-09 1.6048e-09 -2.81746e-08 -2.54367e-11
0.0156181 0 0.000584603 0.00071513 -0.0175958 2.07345e-06
-0.0156185 -1.11957e-20 0.000584185 8.20927e-05 -0.0159177 -0.000110796
0.0156191 0 0.0012017 0.000883395 -0.0330416 8.40936e-05
-0.0156207 7.49829e-21 0.00119995 0.000569773 -0.0280993 -0.000156122
0.0154662 0 0.00250915 0.000195566 -0.0468845 0.000492074
-0.0149261 0 0.00477675 0.000402406 -0.0106036 -0.000118701
0.0152816 2.71051e-20 0.00347878 -6.21575e-05 -0.0468066 0.000548001
-0.0152852 0 0.00346631 0.00180758 -0.0387899 0.000323192
0.0149333 2.71051e-20 0.00478413 8.98706e-05 -0.0111658 0.000160725
-0.0156201 0 0.00172303 0.00113303 -0.0333599 2.84978e-05
0.0156163 0 0.00184941 0.000578691 -0.042386 0.000301336
-0.0156199 0 0.00184524 0.00126463 -0.0345889 7.16294e-05
-0.0154693 0 0.003148 0.00193377 -0.0388111 0.000681739
0.0156092 0 0.00250487 0.000152968 -0.0470209 0.000625864
-0.0156138 1.03398e-25 0.00249847 0.001837 -0.0378307 0.000509262
-0.0152764 -5.42101e-20 0.00409542 0.0013634 -0.03405 0.0002583
0.0152785 -5.42101e-20 0.00410448 1.39808e-05 -0.039636 0.000611123
0.015608 0 0.00259841 0.000116592 -0.0472215 0.000673656
-0.0149898 -6.61744e-24 0.00508713 2.92676e-08 -1.07424e-06 -1.28182e-09
0.0149968 -6.61744e-24 0.00509235 1.56854e-08 -1.24197e-06 2.5255e-08
0.0156006 -8.95009e-22 0.00315251 -9.89006e-05 -0.0484098 0.000956771
-0.0151689 3.65283e-21 0.00482334 0.000441117 -0.0151958 8.73928e-05
-0.0156039 0 0.00314562 0.00201725 -0.0392089 0.000914244
0.0151743 -2.36971e-20 0.00482866 0.000150716 -0.0167225 0.000356612
-0.0156032 0 0.00318364 0.00199922 -0.0391486 0.000923363
0.0159322 2.71051e-20 0.000292222 0.000484615 -0.00812959 -8.43587e-06
-0.0159323 5.42101e-20 0.000292065 -9.85281e-05 -0.00796599 -3.66146e-05
0.0159282 0 0.000584568 0.000676855 -0.0170052 2.39226e-05
0.0159329 2.71051e-20 0.000892712 0.000933635 -0.0262158 5.59298e-05
-0.0159336 0 0.000891952 0.000281909 -0.0231041 -0.00015712
0.0159836 -1.03398e-25 2.31451e-21 0 0 0
-0.0153229 0 0.00461704 0.000758508 -0.0248671 0.000289064
0.0159322 5.42101e-20 0.00152399 0.000703978 -0.0379716 0.000308755
-0.015934 0 0.00152204 0.00108097 -0.0313454 6.13441e-05
0.0153273 2.71051e-20 0.00462278 0.000169429 -0.0280802 0.000622583
-0.015592 4.1359e-25 0.00378396 0.00171455 -0.0381963 0.00106737
0.0155918 -2.53283e-20 0.0037897 -5.72012e-05 -0.0461871 0.00116234
0.0159284 -5.42101e-20 0.00217342 0.000186812 -0.0445508 0.000749089
-0.0159311 -5.42101e-20 0.00217013 0.00190561 -0.0356798 0.000666689
-0.0152682 0 0.00505663 0.000164785 -0.010222 9.51002e-05
0.0152733 0 0.00506088 0.000193673 -0.0110586 0.000290497
-0.0160398 1.29247e-26 0.00184385 0.00172096 -0.0330273 0.000574212
0.0159217 2.71051e-20 0.00282271 -0.000214498 -0.048214 0.00126738
-0.0159241 -5.42101e-20 0.00281877 0.00233368 -0.0384304 0.00137697
-0.0155885 -3.96352e-20 0.00438984 0.00102287 -0.0327638 0.000954051
0.0155908 -2.47426e-20 0.00439405 0.000207742 -0.0383899 0.00115258
-0.0162467 0 4.50343e-09 -1.08884e-09 -7.54293e-08 -4.43341e-10
0.0162467 0 1.14466e-09 1.1339e-09 -1.90016e-08 -3.02054e-11
0.0162034 -1.61559e-27 0.00120022 0.000640711 -0.0307901 0.000289217
-0.0153431 -6.61744e-24 0.00535315 -8.18094e-10 -1.48665e-06 3.84234e-08
0.0153477 6.61744e-24 0.00535654 5.00209e-08 -1.69381e-06 6.35991e-08
0.0162471 8.31836e-21 0.000584533 0.000637498 -0.0163979 4.63899e-05
-0.0162472 -2.39986e-20 0.00058442 0.000158986 -0.0148742 -6.97032e-05
0.0159122 2.71051e-20 0.00346529 -0.000246248 -0.049966 0.00166973
-0.0159131 0 0.00346161 0.00216983 -0.0401796 0.0018277
0.0162478 2.9653e-22 0.00120011 0.000622271 -0.030619 0.000304802
-0.0162481 1.03398e-25 0.00119968 0.000944584 -0.0260411 0.000133579
-0.0155338 -1.10412e-20 0.00491869 0.000298121 -0.0206951 0.000594036
0.0162477 -8.07794e-27 0.00123763 0.000593544 -0.0311387 0.000335658
0.0155374 -2.06994e-20 0.00492201 0.000394308 -0.0233722 0.0008074
0.0162469 2.58494e-26 0.00184409 0.00012924 -0.0395379 0.000834359
-0.0162477 -1.29247e-26 0.00184316 0.00194686 -0.0322542 0.000823017
-0.0162472 2.58494e-26 0.00193845 0.00204621 -0.0328217 0.000961769
-0.015901 0 0.00409355 0.00152669 -0.0397837 0.00186803
0.0159019 0 0.00409655 6.09128e-05 -0.0483758 0.00182613
0.0162431 0 0.00249417 -0.000371202 -0.0449672 0.00153076
-0.016244 0 0.00249283 0.00262415 -0.0361229 0.00176896
0.0162387 2.58494e-26 0.00283855 -0.000451607 -0.0468271 0.00187508
0.0162348 0 0.0031392 -0.000521801 -0.0484508 0.00217568
-0.0162354 0 0.00313774 0.00264464 -0.0388957 0.00255803
-0.0156894 0 0.00525034 -0.000181877 -0.0159329 0.000584769
0.0156925 -2.71051e-20 0.00525277 0.000648908 -0.0174585 0.000776684
-0.0162334 -5.16988e-26 0.00321975 0.00256375 -0.0390917 0.0026032
-0.0158705 0 0.0047214 0.000473858 -0.033421 0.00149595
0.0158727 -2.71051e-20 0.00472386 0.000595213 -0.0388599 0.00162866
0.0165604 -2.71051e-20 0.000292258 0.000456504 -0.00757185 -1.55898e-05
-0.0165604 -2.71051e-20 0.000292218 -0.000120984 -0.00747213 -5.46822e-05
0.0165607 0 0.000892189 0.000680857 -0.023955 0.000155507
-0.0165609 0 0.000892028 0.000582036 -0.0211799 -3.11263e-05
0.0165606 2.71051e-20 0.00152156 0.000166215 -0.0345268 0.000704395
-0.016561 -2.71051e-20 0.00152113 0.00184774 -0.0286578 0.000667283
-0.0162196 -4.61319e-21 0.00378044 0.00201073 -0.0404316 0.00291203
0.0162198 -1.89987e-20 0.00378182 -0.000210466 -0.0499466 0.00257561
-0.0156952 0 0.00561829 -4.58932e-08 -1.86932e-06 9.35609e-08
0.0156978 0 0.00562028 9.55451e-08 -2.10088e-06 1.1425e-07
0.0165588 2.71051e-20 0.00216766 -0.000539762 -0.0411644 0.00157445
-0.0165593 2.71051e-20 0.00216703 0.00295343 -0.0333647 0.00189601
-0.0161896 1.76851e-20 0.00442818 0.000910831 -0.0388159 0.00268379
0.0161906 2.18425e-20 0.00442953 0.000451175 -0.0469115 0.0025556
0.0165536 -2.71051e-20 0.00281397 -0.000913284 -0.0459561 0.00252309
-0.016554 5.42101e-20 0.00281321 0.00329894 -0.0370203 0.0031252
-0.0168738 0 4.79187e-09 -1.07637e-09 -7.51018e-08 -6.97928e-10
0.0168738 0 1.76193e-09 1.60064e-09 -2.80841e-08 -8.45479e-11
-0.0168739 -2.55938e-20 0.00058458 0.000405619 -0.0137114 1.03387e-05
0.0168739 -2.81035e-21 0.000584593 0.000428331 -0.0150693 9.77026e-05
-0.0165426 -2.71051e-20 0.00345663 0.0027765 -0.0399439 0.00389187
0.0165425 0 0.00345738 -0.000712893 -0.0496547 0.00323363
-0.0161125 2.40213e-20 0.0051374 -0.000270959 -0.0268709 0.00177748
0.0161142 4.04326e-21 0.00513878 0.00099387 -0.0311826 0.00184301
0.0168742 -9.76008e-21 0.00119965 7.2304e-05 -0.0280726 0.000591226
-0.0168743 -1.12436e-20 0.0011996 0.00172959 -0.024044 0.00061009
-0.0160304 5.42101e-20 0.00554246 -0.000581175 -0.0149407 0.000965808
0.0168741 3.23117e-27 0.00173823 -0.00057923 -0.0353878 0.00137913
0.0160322 0 0.00554379 0.00088232 -0.0162647 0.00105138
-0.0168741 -4.0643e-21 0.00184202 0.00317084 -0.0304807 0.00192532
0.0168741 -3.23117e-27 0.00184212 -0.000704904 -0.0367988 0.0015311
-0.0165205 -5.42101e-20 0.00410417 0.00158397 -0.0418033 0.00407495
0.0165209 -2.71051e-20 0.00410496 4.68385e-05 -0.0517698 0.00358258
-0.0168728 1.29247e-26 0.00226182 0.00364556 -0.0335543 0.00290575
0.016872 -2.58494e-26 0.00248968 -0.0012749 -0.0430313 0.00267367
-0.0168721 1.29247e-26 0.00248953 0.00390307 -0.0352215 0.00343757
-0.0160456 0 0.00588237 -1.08661e-07 -1.84838e-06 1.53121e-07
0.0160471 0 0.0058834 1.46451e-07 -2.08514e-06 1.64334e-07
0.0168056 -9.69352e-27 0.00313292 -0.0011822 -0.0478618 0.00353636
-0.0168654 -2.58494e-26 0.00313207 0.00360856 -0.0389109 0.00459369
0.0168654 1.2324e-20 0.00313226 -0.00125141 -0.0478001 0.00367895
-0.0164772 -2.71051e-20 0.00477307 7.66582e-05 -0.0404366 0.00336243
0.0168651 -3.23117e-27 0.00314406 -0.00123893 -0.0478627 0.00369047
0.0164781 2.71051e-20 0.00477392 0.00109438 -0.0489164 0.00323758
-0.0168631 -2.58494e-26 0.00322486 0.00344113 -0.0392886 0.00466904
0.0171867 0 0.000292305 0.000382357 -0.00705643 -2.79774e-05
-0.0171867 -2.71051e-20 0.000292302 -8.22121e-05 -0.0069799 -8.03786e-05
0.0171869 -5.42101e-20 0.000892117 0.000194001 -0.0219431 0.000282687
-0.0171869 2.71051e-20 0.000892093 0.00125974 -0.0194197 0.000210029
0.0171305 0 0.0018419 -0.00121085 -0.036554 0.00188185
-0.0163088 -1.01578e-20 0.00559077 -0.000943722 -0.0204278 0.00170769
0.01631 -2.39154e-20 0.00559165 0.00134923 -0.023212 0.00175075
0.0171869 5.42101e-20 0.00152074 -0.000761873 -0.0320237 0.00123305
-0.0171869 -2.71051e-20 0.00152071 0.00325157 -0.0270309 0.00160889
-0.0168494 2.06795e-25 0.00377631 0.00244615 -0.0415332 0.00511683
0.0168495 1.30306e-20 0.00377656 -0.000569864 -0.0512138 0.00430775
0.017186 -5.42101e-20 0.00216542 -0.00168432 -0.0395144 0.00261422
-0.0171861 5.42101e-20 0.00216535 0.00463131 -0.0328898 0.0035311
-0.016518 2.71051e-20 0.00536714 -0.00107974 -0.0321676 0.00270052
0.016519 -2.71051e-20 0.00536792 0.00177093 -0.0376389 0.00272482
-0.0168212 5.60332e-21 0.00443102 0.000818452 -0.0424405 0.00492452
0.0168216 2.32297e-20 0.00443137 0.000568286 -0.0521538 0.00442126
-0.0163928 0 0.00584542 -0.00117005 -0.0147423 0.00149842
0.0163937 -2.71051e-20 0.00584612 0.00140912 -0.0164336 0.00151831
0.0171824 -2.71051e-20 0.0028096 -0.00195723 -0.0454889 0.00397481
-0.0171824 0 0.00280953 0.00472239 -0.0376037 0.0051869
-0.0174996 8.27181e-25 4.65707e-09 9.96927e-12 -6.87777e-08 -9.61056e-10
0.0174996 0 2.44541e-09 1.65111e-09 -3.68503e-08 -1.87804e-10
-0.0163956 0 0.00614428 -1.69856e-07 -1.73101e-06 1.99903e-07
-0.0174996 -3.09442e-20 0.000584661 0.000943352 -0.0128648 0.000165515
0.0174996 1.85347e-20 0.00058466 5.81386e-05 -0.0141581 0.000174111
0.0163962 0 0.00614484 1.96518e-07 -1.97488e-06 2.07765e-07
-0.0171728 2.71051e-20 0.00345119 0.00363234 -0.0410729 0.00615791
0.0171728 0 0.00345131 -0.00141862 -0.0501035 0.00497401
-0.0174998 0 0.0011996 0.00311113 -0.0231327 0.00132745
0.0174998 -3.25385e-20 0.0011996 -0.000817525 -0.0267496 0.000982048
-0.0168072 1.8466e-20 0.00507468 -0.000817564 -0.039301 0.00416542
0.0168078 4.87209e-21 0.00507514 0.00175157 -0.0475123 0.00400499
-0.0174997 0 0.00184159 0.00504529 -0.0306489 0.00332479
0.0174997 0 0.00184159 -0.00193926 -0.0362016 0.00238683
-0.0174397 1.61559e-27 0.00248806 0.00549354 -0.0364625 0.00509878
0.0174993 -3.23117e-27 0.00212642 -0.00219055 -0.0394751 0.00306543
-0.0171543 2.71051e-20 0.00409713 0.00179239 -0.0433092 0.00633285
0.0171545 2.71051e-20 0.00409729 -0.000195062 -0.0533182 0.00543271
0.0174987 6.46235e-27 0.00248791 -0.00250948 -0.0436297 0.00392668
-0.0174987 9.50713e-21 0.00248791 0.00565895 -0.0365916 0.00527156
-0.0174983 3.23117e-27 0.00255404 0.00557392 -0.0370431 0.00540714
-0.0167741 3.0341e-20 0.00574437 -0.00171209 -0.025826 0.00283914
0.0167746 9.70779e-21 0.00574481 0.00213181 -0.0302802 0.00285021
-0.0174944 1.29247e-26 0.00312778 0.00483618 -0.0409602 0.00658342
0.0174944 -1.26602e-20 0.00312779 -0.0021992 -0.0492873 0.00517425
-0.0171359 2.71051e-20 0.00474309 -0.000182397 -0.0441271 0.00589092
0.0171362 5.42101e-20 0.00474333 0.0013264 -0.0544631 0.00540185
-0.0167048 0 0.00611288 -0.00160432 -0.0134589 0.00176329
0.0167053 0 0.00611327 0.00170775 -0.0149623 0.00177638
0.017492 0 0.00326736 -0.00195693 -0.0501525 0.00533803
-0.017491 0 0.00333122 0.00425722 -0.0418587 0.00674974
0.0178123 0 0.000292339 0.000243902 -0.0067717 -4.19599e-05
-0.0178123 0 0.000292339 9.0082e-05 -0.00664233 -0.000110845
-0.0178123 -2.71051e-20 0.000892127 0.00253573 -0.0186101 0.00065159
0.0178123 0 0.000892128 -0.00059582 -0.0210925 0.000490372
-0.0178123 -5.42101e-20 0.00152058 0.00543196 -0.0275901 0.00286499
0.0178123 2.71051e-20 0.00152058 -0.00212383 -0.0320921 0.00193922
-0.0174836 2.58494e-26 0.00376687 0.00301745 -0.0437827 0.0071059
0.0174836 2.07376e-20 0.00376691 -0.00108978 -0.0532494 0.00592423
-0.0167191 1.32349e-23 0.00643605 -2.20467e-07 -1.72369e-06 2.43394e-07
0.0167195 0 0.0064363 2.40593e-07 -1.98951e-06 2.51623e-07
0.0178119 -2.71051e-20 0.00216457 -0.00318805 -0.0411984 0.00376407
-0.0178119 2.71051e-20 0.00216457 0.00686768 -0.0351012 0.00529828
-0.017115 0 0.00539431 -0.00204541 -0.0410037 0.00483664
0.0171154 -2.71051e-20 0.0053946 0.00279598 -0.0497727 0.00476446
-0.0174667 -3.87098e-20 0.00441055 0.000781887 -0.045197 0.00692371
0.0174668 -2.93517e-20 0.00441062 0.000527483 -0.0555034 0.00614388
-0.0178098 2.71051e-20 0.00280703 0.00640955 -0.0407502 0.00706025
0.0178098 2.71051e-20 0.00280703 -0.00320401 -0.0482945 0.00534604
-0.0169664 -2.12883e-20 0.00617963 -0.0020798 -0.0194284 0.00253504
0.0169667 -2.29162e-20 0.00617988 0.00227435 -0.0224203 0.00255975
-0.0181249 8.27181e-25 4.21997e-09 2.71323e-09 -6.03279e-08 -1.07953e-09
0.0181249 4.1359e-25 2.86614e-09 7.01455e-10 -4.24716e-08 -2.91188e-10
-0.0178039 -2.71051e-20 0.00344471 0.00457268 -0.0444007 0.00791964
0.0178039 5.42101e-20 0.00344474 -0.00221102 -0.0532529 0.00639527