# UMean  POINT_DATA 45383
# x  y  z  UMean_x  UMean_y  UMean_z
0.01 3.4489e-27 1.48997e-07 3.46982e-17 -2.68781e-14 2.85785e-17
-0.01 2.10863e-26 8.48436e-08 6.50147e-17 -2.47866e-14 -2.22933e-17
-0.01 -4.1359e-25 0.000678316 5.72156e-11 -2.33919e-08 -5.87307e-11
0.01 1.29247e-26 0.00067832 1.0933e-12 -7.04511e-10 1.22157e-12
0.0100335 -2.58494e-26 0.00067574 1.40327e-06 -0.000356976 4.71039e-07
-0.01 0 0.00137373 2.69479e-10 -1.19736e-07 -3.36202e-10
0.01 0 0.00137372 1.85201e-11 -1.14591e-08 2.34111e-11
-0.01 3.30872e-24 0.00208696 1.24927e-09 -2.72283e-07 -8.23822e-10
0.01 1.57772e-30 0.002087 2.2984e-16 -8.1899e-14 1.81548e-16
0.0101864 -2.06795e-25 0.00133473 1.11777e-05 -0.00286978 4.82228e-06
-0.0102702 2.71051e-20 0.000327905 7.33669e-06 -0.00303867 -2.17013e-06
0.0102702 0 0.000327954 3.16901e-06 -0.00242251 1.97759e-06
-0.0102616 -2.71051e-20 0.000986823 1.48941e-05 -0.00585533 -2.0556e-05
0.0102619 0 0.000986956 8.00265e-06 -0.00489231 1.1542e-05
-0.0102382 0 0.00161862 9.1907e-06 -0.00489072 -9.42335e-06
0.0102389 -2.71051e-20 0.00161883 5.11182e-06 -0.00409462 6.02071e-06
-0.0105473 0 0.000241058 1.57932e-05 -0.0025535 -6.03375e-06
-0.0105508 0 8.49672e-08 1.01868e-10 -1.63052e-08 -1.06636e-11
0.0105508 -2.06795e-25 8.59948e-08 2.61381e-11 -6.92531e-09 5.50447e-12
-0.0105415 -1.7018e-20 0.00063654 4.17127e-05 -0.00674425 -1.59362e-05
0.0105418 1.3268e-20 0.00063661 2.26912e-05 -0.00577237 7.61678e-06
-0.0105237 0 0.00126378 5.84873e-05 -0.00919931 -3.22249e-05
0.0105246 -3.02368e-20 0.00126397 3.14631e-05 -0.00807785 1.35738e-05
-0.0105066 -5.27079e-21 0.00172222 5.03765e-05 -0.00779999 -2.95373e-05
0.0105082 1.83047e-20 0.00172263 2.68198e-05 -0.00681988 1.38296e-05
-0.0104981 0 0.00202328 3.8915e-05 -0.00570555 -2.28928e-05
0.0105003 -2.71051e-20 0.00202395 2.14468e-05 -0.00482432 1.48012e-05
-0.0104973 3.30872e-24 0.00235191 1.8848e-09 -1.93802e-07 -1.13747e-09
0.0105018 -1.65436e-24 0.00235298 8.5542e-10 -1.45343e-07 5.12923e-10
-0.0108324 2.71051e-20 0.000312949 4.32467e-05 -0.0053742 -2.8135e-06
0.0108326 -2.71051e-20 0.000313002 2.33611e-05 -0.00449486 2.3663e-06
-0.0108211 2.71051e-20 0.000935918 9.9827e-05 -0.0125982 -3.79412e-05
0.0108219 2.71051e-20 0.000936095 5.53924e-05 -0.0111766 1.4598e-05
-0.0107987 0 0.00152672 0.000108405 -0.0132914 -5.90116e-05
0.0108006 0 0.00152718 5.66512e-05 -0.0119965 2.14133e-05
0.0111231 0 1.4102e-08 9.91617e-10 -1.36266e-07 4.92692e-11
-0.0111231 0 1.1833e-08 1.35006e-09 -1.23695e-07 -5.55141e-11
-0.0111217 8.27181e-25 0.00054366 9.65734e-05 -0.00912204 -2.31036e-05
-0.0109001 0 0.00228558 8.17521e-05 -0.00684825 -5.07792e-05
-0.0111215 0 0.000612314 0.000108769 -0.010274 -2.60212e-05
0.011122 -1.07835e-20 0.00061238 6.40397e-05 -0.00924043 6.99264e-06
0.0109057 0 0.00228695 4.29242e-05 -0.00604891 2.36381e-05
-0.0109929 0 0.00190209 0.000139942 -0.0119909 -7.72631e-05
0.0109964 -1.87952e-20 0.00190279 7.37526e-05 -0.0111096 2.58595e-05
-0.0111 0 0.00123235 0.000165224 -0.0154291 -6.99972e-05
0.0111015 1.75966e-20 0.00123258 9.3065e-05 -0.0143 1.88076e-05
-0.0109856 0 0.00261204 7.45992e-10 -5.38126e-08 -4.56766e-10
0.0109947 0 0.00261423 2.21149e-09 -2.8413e-07 1.22306e-09
-0.0114284 -2.71051e-20 0.000305075 8.51489e-05 -0.00649256 -2.08963e-06
0.0114286 0 0.000305108 5.14149e-05 -0.00568229 8.26252e-07
-0.0112129 -7.82513e-21 0.00232217 0.00013945 -0.00963831 -8.3493e-05
0.0112195 2.75319e-20 0.00232367 7.07715e-05 -0.0089743 3.11069e-05
-0.0114246 -2.71051e-20 0.00092111 0.000208354 -0.0167784 -6.19367e-05
0.0114256 -2.71051e-20 0.00092126 0.000126915 -0.0157496 1.03855e-05
-0.0113817 2.71051e-20 0.0015635 0.000249302 -0.0192462 -0.000122542
0.0113839 0 0.00156383 0.000136446 -0.018494 2.87816e-05
-0.011173 -4.1359e-25 0.00271189 0 0 0
-0.0114068 -2.71051e-20 0.00210155 0.000230665 -0.0154508 -0.000134618
0.011411 0 0.00210244 0.000116575 -0.0147826 4.05868e-05
-0.0113382 2.71051e-20 0.00256301 0.000105243 -0.00663144 -6.46704e-05
0.0113467 0 0.00256544 5.23699e-05 -0.00607495 2.88911e-05
0.0117295 0 6.31228e-09 7.24611e-10 -6.4231e-08 2.09617e-12
-0.0117295 -4.1359e-25 4.80147e-09 7.27599e-10 -4.75431e-08 -1.72949e-11
-0.0117405 0 0.00051944 0.000156761 -0.0107628 -3.52685e-05
-0.0117423 -1.03398e-25 0.00060318 0.000182033 -0.0124979 -4.09542e-05
0.0117428 7.38507e-21 0.000603251 0.00012102 -0.0118265 2.33228e-06
-0.0115321 -2.06795e-25 0.00238299 0.00021687 -0.0120736 -0.000128326
-0.0117315 0 0.00123297 0.000296797 -0.0200088 -0.000124732
0.0117329 1.46188e-20 0.00123324 0.000181447 -0.0196344 9.62182e-06
-0.0114582 0 0.00286379 2.13694e-09 -1.00542e-07 -1.23365e-09
0.011472 0 0.00286721 4.46742e-09 -4.76169e-07 2.15355e-09
-0.0117202 0 0.00185692 0.000328941 -0.0199204 -0.000182164
0.0117223 -1.09221e-20 0.00185737 0.00017037 -0.0197333 2.36309e-05
-0.0116916 1.03398e-25 0.00211226 0.000291163 -0.0167264 -0.00016542
-0.0116585 2.78171e-20 0.00240709 0.00024754 -0.0130383 -0.000146087
0.0116635 2.72903e-20 0.00240866 0.000111968 -0.0126622 3.3477e-05
-0.0120571 2.71051e-20 0.000300839 0.000123548 -0.00720306 -2.59938e-06
0.0120573 0 0.000300897 8.85315e-05 -0.00657935 2.86417e-07
-0.0120651 0 0.000916399 0.000314747 -0.0197774 -9.8958e-05
0.0120657 -2.71051e-20 0.000916727 0.000219687 -0.0195581 -2.09791e-06
-0.0120089 -1.03398e-25 0.00187021 0.000410139 -0.0221759 -0.00024133
-0.0120608 0 0.00155099 0.00041596 -0.0243068 -0.000217278
0.0120609 -2.71051e-20 0.00155169 0.000242919 -0.0248104 2.0144e-06
-0.0118568 -2.71051e-20 0.00273895 0.000242862 -0.00986946 -0.000136779
0.0118619 2.71051e-20 0.00274195 9.59848e-05 -0.00937993 4.26007e-05
0.012035 2.71051e-20 0.00219403 0.00019121 -0.0213434 2.14436e-05
-0.0120372 2.71051e-20 0.00219395 0.000431221 -0.0211269 -0.000260245
-0.0119121 0 0.00310559 7.21013e-09 -2.64849e-07 -4.22406e-09
0.0119304 0 0.00311016 6.26119e-09 -6.49247e-07 2.31646e-09
0.0123683 0 2.71643e-09 6.35247e-10 -3.93132e-08 -7.97709e-12
-0.0123683 0 2.66988e-09 7.04068e-10 -3.96253e-08 -1.57167e-11
-0.0123892 -1.55096e-25 0.000564551 0.000225734 -0.013332 -5.99148e-05
-0.0123904 -2.58494e-26 0.00059722 0.000238796 -0.0141035 -6.33818e-05
0.0123907 -6.09301e-21 0.000597448 0.000196205 -0.0139762 -9.10096e-06
-0.0123962 0 0.00122692 0.000415035 -0.023573 -0.000202868
0.0123962 2.18467e-20 0.00122803 0.00029063 -0.024352 -2.50644e-05
-0.0123949 0 0.00129009 0.000424623 -0.0237187 -0.000213874
0.0123792 1.92452e-20 0.00188965 0.000264505 -0.0262514 -2.19006e-05
-0.0123827 -1.15441e-20 0.00188742 0.000515286 -0.0250965 -0.000317946
-0.0125417 -5.16988e-26 0.00059593 0.000242688 -0.0143839 -7.03726e-05
0.0123193 -1.44194e-20 0.00260601 0.000157376 -0.0173983 6.69866e-06
-0.0123305 -1.39827e-20 0.00260668 0.000441945 -0.0170776 -0.000282144
-0.0125688 2.58494e-26 0.00122537 0.000432098 -0.0242935 -0.000227542
0.0122774 5.42101e-20 0.00301148 8.55354e-05 -0.00892905 2.55183e-05
-0.0122788 2.71051e-20 0.00300901 0.000284468 -0.00939485 -0.000172586
-0.0127075 2.71051e-20 0.00029719 0.000142276 -0.00771546 -4.04562e-06
0.0127075 0 0.000297361 0.00013937 -0.00732207 -2.66115e-06
0.0127224 5.42101e-20 0.000910669 0.000340556 -0.0227535 -3.22744e-05
-0.0127228 0 0.000909514 0.000379211 -0.022011 -0.000150603
-0.0123477 0 0.00333768 1.16151e-08 -3.29442e-07 -6.91885e-09
0.0123698 6.61744e-24 0.00334298 5.51473e-09 -6.45496e-07 1.4719e-09
0.0127185 0 0.0015595 0.00035944 -0.0303658 -6.79607e-05
-0.0127224 -5.42101e-20 0.00155586 0.000552053 -0.0282719 -0.000346769
0.0126865 -2.71051e-20 0.00223766 0.000266254 -0.0285767 -4.40303e-05
-0.0127017 2.71051e-20 0.00223253 0.000663824 -0.0267556 -0.000449038
0.0125633 3.5132e-20 0.00303647 0.000103492 -0.0123959 8.68696e-06
-0.0125873 2.72324e-20 0.00304271 0.000414241 -0.0124288 -0.000261446
-0.0130258 0 2.56512e-09 7.32831e-10 -4.31809e-08 -3.28232e-11
0.0130258 0 1.94236e-09 7.24458e-10 -3.20492e-08 -1.37929e-11
0.0127297 0 0.00279908 0.000163291 -0.020395 -1.58682e-05
0.0130472 -4.14488e-20 0.000592235 0.000296264 -0.0157823 -2.7597e-05
-0.0130474 -5.12438e-22 0.000591621 0.000255696 -0.0153213 -9.37394e-05
-0.0127816 0 0.0028142 0.000620943 -0.019878 -0.000415822
0.0126842 0 0.00327272 6.33337e-05 -0.00805278 1.60381e-05
0.0130549 -1.93221e-20 0.00122427 0.000426712 -0.0283851 -8.10277e-05
-0.0130573 -4.99638e-21 0.00122099 0.000480401 -0.0263331 -0.000297389
-0.0127078 -5.42101e-20 0.00328029 0.000339275 -0.00819556 -0.000197942
0.0130409 1.73815e-20 0.00189495 0.000371777 -0.0324728 -0.000110985
-0.0130523 -1.41804e-20 0.00188526 0.000670935 -0.0296515 -0.000487771
-0.0127679 0 0.0035615 1.648e-08 -3.57127e-07 -9.99472e-09
0.0130294 -1.15689e-20 0.00254415 0.000232674 -0.0278814 -8.76377e-05
0.0127922 0 0.0035676 4.02254e-09 -7.82856e-07 -8.72326e-11
-0.0130668 1.01148e-20 0.00252843 0.000771677 -0.0262145 -0.000557063
0.0129755 1.26195e-20 0.00310441 0.00010478 -0.0166621 -3.19367e-05
0.0133645 0 0.000294678 0.000209523 -0.00794858 -4.72939e-06
-0.0133647 0 0.0002943 0.000128963 -0.00811327 -8.75572e-06
0.013377 0 0.000905403 0.000499415 -0.0254063 -7.16027e-05
-0.0133788 2.71051e-20 0.000902908 0.000376967 -0.0237178 -0.000214775
-0.0130842 1.61383e-20 0.00316077 0.000622486 -0.0158725 -0.000421393
0.0133744 2.71051e-20 0.00155542 0.000505629 -0.0351144 -0.000152313
-0.0133828 2.71051e-20 0.00154643 0.000616491 -0.0314212 -0.000480063
-0.013073 -2.71051e-20 0.00349728 0.000419158 -0.00811759 -0.000260268
0.0133614 -2.71051e-20 0.00222042 0.000353907 -0.0356797 -0.000176782
-0.0133875 2.71051e-20 0.0021975 0.000848376 -0.0320337 -0.000671396
0.0131593 2.71051e-20 0.00342851 4.43114e-05 -0.0119336 -1.53955e-05
0.0133331 0 0.0028787 0.000156252 -0.0277184 -0.000121613
-0.0136859 0 1.99115e-09 4.4474e-10 -3.53299e-08 -4.77131e-11
0.0136859 2.06795e-25 1.20838e-09 6.65188e-10 -2.15218e-08 -1.3952e-11
-0.0133972 2.71051e-20 0.00283002 0.000961893 -0.0267607 -0.000700419
-0.0131766 0 0.00377904 1.98938e-08 -3.73812e-07 -1.31052e-08
0.0137005 -3.18841e-20 0.000588479 0.00042404 -0.0171978 -4.55463e-05
-0.0137012 -1.04183e-21 0.000587422 0.000223421 -0.0161853 -0.000122084
0.0132008 0 0.00378645 1.75492e-09 -9.25269e-07 -2.33345e-09
0.0137066 -6.16394e-21 0.00121712 0.000596541 -0.031602 -0.000134995
-0.0137113 3.09643e-20 0.00121149 0.000476972 -0.0283376 -0.000373156
-0.0133317 1.11537e-20 0.00353346 0.000557199 -0.0114471 -0.000377549
0.0136964 -3.10408e-20 0.00188403 0.000497132 -0.0377887 -0.000208126
-0.0137136 1.11279e-20 0.00186546 0.000758883 -0.0332368 -0.000614391
-0.0134741 0 0.00333584 0.000830713 -0.0186312 -0.000579859
0.0136686 -1.20677e-20 0.00256371 0.000273804 -0.0353046 -0.000203653
-0.0137152 -1.23908e-20 0.00251516 0.000996146 -0.0319933 -0.000742248
-0.0134565 0 0.0037461 0.000417337 -0.0074839 -0.00028893
0.0136041 -1.80358e-20 0.00329192 6.78263e-05 -0.0223168 -0.000105591
0.0140177 -2.71051e-20 0.000293139 0.00029994 -0.00842315 -6.59634e-06
-0.0140182 -2.71051e-20 0.000292601 8.14466e-05 -0.00838144 -1.37284e-05
0.0135422 2.71051e-20 0.0036961 7.91351e-06 -0.0115913 -3.98867e-05
0.0140256 -2.71051e-20 0.000900278 0.000692093 -0.0273275 -0.000100613
-0.0140284 0 0.000896824 0.000310836 -0.0247942 -0.000254758
-0.0137342 -9.32398e-21 0.00311436 0.00103606 -0.0258649 -0.000717409
0.014023 -2.71051e-20 0.00154615 0.000686101 -0.0387212 -0.000216527
-0.0140338 2.71051e-20 0.00153371 0.00060895 -0.033542 -0.000547292
-0.0135654 0 0.00401386 2.93775e-08 -5.0312e-07 -2.09628e-08
0.0135836 -6.61744e-24 0.00402855 -1.18287e-09 -9.32082e-07 -4.18269e-09
0.0140057 2.71051e-20 0.00221874 0.000442909 -0.041583 -0.000285825
-0.0137123 -3.40468e-21 0.00361961 0.000762622 -0.0154735 -0.00052509
-0.0140348 -2.71051e-20 0.00218502 0.000960184 -0.0359145 -0.000757755
0.0139704 0 0.00290901 0.000147932 -0.0364362 -0.000232934
-0.0140398 -5.42101e-20 0.00281908 0.00121062 -0.0333288 -0.000838353
0.0138292 3.56647e-20 0.00373726 -8.01142e-06 -0.0161615 -7.7007e-05
-0.0143389 0 2.44464e-09 2.49537e-10 -4.45662e-08 -8.6994e-11
0.0143389 -2.06795e-25 1.44847e-09 1.14283e-09 -2.82282e-08 -2.16263e-11
0.0143466 -4.82205e-21 0.000586141 0.000565195 -0.0180696 -5.11201e-05
-0.0143476 -3.25982e-20 0.00058495 0.000158448 -0.0166198 -0.000135836
0.0143501 2.75087e-20 0.00121019 0.000780014 -0.0336801 -0.000146487
-0.0143553 -9.53879e-21 0.00120417 0.000439311 -0.0294102 -0.000387808
-0.0138945 0 0.00393317 0.000686278 -0.0113108 -0.000497392
-0.0140375 2.71051e-20 0.00343143 0.00117067 -0.0257662 -0.000770881
0.0140303 5.42101e-20 0.00350658 -2.37639e-06 -0.0264111 -0.000136507
0.0143403 -1.58557e-20 0.00187312 0.000633155 -0.0416783 -0.000224337
-0.0143565 0 0.00185406 0.000816224 -0.0354527 -0.000600615
0.0139282 2.71051e-20 0.00399009 -2.88088e-05 -0.0108991 -5.67412e-05
0.0143175 1.86488e-21 0.00255235 0.000331729 -0.0421245 -0.000223666
-0.0139239 0 0.00428422 4.24877e-08 -7.34171e-07 -2.8345e-08
-0.0143528 -2.3069e-20 0.00250721 0.0011735 -0.0362311 -0.000696867
0.0139403 0 0.00429658 -3.48581e-09 -1.01106e-06 -3.57729e-09
0.0146631 5.42101e-20 0.000292462 0.000394512 -0.00864284 -7.19915e-06
-0.0146635 -2.71051e-20 0.000291927 1.54975e-05 -0.00846284 -1.93768e-05
0.0143152 -1.14068e-20 0.00320647 7.23925e-05 -0.0360872 -0.000147921
-0.0143427 -1.40377e-20 0.00314905 0.00132402 -0.0324471 -0.000700055
0.0146669 -2.71051e-20 0.000896444 0.00088076 -0.0282147 -9.16352e-05
-0.0146697 0 0.00089329 0.000230004 -0.0250996 -0.000259218
0.014725 -1.03398e-25 3.73197e-16 0 0 0
0.0146638 -2.71051e-20 0.00153733 0.000858417 -0.0406766 -0.000179701
-0.014673 2.71051e-20 0.00152674 0.000613512 -0.0343491 -0.000494642
-0.0142998 -2.53862e-20 0.00383371 0.000998004 -0.0208548 -0.0005249
0.0146505 2.71051e-20 0.00220325 0.000542061 -0.0456977 -0.000216891
0.0143063 1.87274e-20 0.0038743 -3.12314e-05 -0.0220724 -3.74091e-05
0.0148154 -2.58494e-26 0.000585312 0.000649101 -0.018179 -3.84239e-05
-0.0146709 0 0.00217815 0.00108226 -0.0379968 -0.000604254
-0.0142437 -2.71051e-20 0.00422231 0.000622474 -0.011204 -0.000375274
-0.014746 0 0.00185053 0.000893482 -0.0357417 -0.000468051
0.014255 0 0.00424396 -3.97297e-05 -0.0111485 -1.77701e-05
0.0148484 0 0.00120616 0.000880923 -0.0340968 -8.99358e-05
0.0146399 0 0.00286477 0.000192753 -0.0445541 -0.000160042
-0.0147113 5.16988e-26 0.00250555 0.00130629 -0.0373735 -0.000471291
-0.0146627 0 0.00282903 0.00143729 -0.0377313 -0.000585097
-0.0149819 4.1359e-25 3.19382e-09 -1.23148e-10 -5.81614e-08 -1.57778e-10
0.0149819 0 9.62822e-10 9.45392e-10 -1.8833e-08 -1.48479e-11
-0.0142803 -6.61744e-24 0.00455271 4.43981e-08 -8.40048e-07 -2.60292e-08
0.0149853 2.95045e-20 0.000585012 0.000679499 -0.0182186 -3.38242e-05
-0.0149861 2.76522e-20 0.000584127 9.77118e-05 -0.0165381 -0.000132199
0.0142938 -6.61744e-24 0.00456274 -1.91245e-09 -1.089e-06 3.47708e-10
0.0149869 0 0.00120504 0.000908971 -0.0342126 -7.42176e-05
-0.0149906 -2.34151e-20 0.00120094 0.000440447 -0.0293465 -0.000319875
0.0149249 -1.29247e-26 0.00186093 0.000700407 -0.0432111 -7.61872e-05
-0.0146412 0 0.00348482 0.00148628 -0.0333346 -0.000601348
0.0146341 0 0.00351739 -3.93555e-05 -0.0377505 -6.44944e-05
-0.0149904 0 0.00167349 0.000806519 -0.0341471 -0.000367339
0.0149806 -1.29247e-26 0.00185977 0.000706809 -0.043357 -6.20851e-05
0.0149792 -1.29247e-26 0.00193528 0.000665533 -0.0437038 -5.20071e-05
-0.0149903 -2.84612e-20 0.00184831 0.000941945 -0.035923 -0.000384897
-0.0145147 1.94586e-20 0.00427467 0.000748816 -0.0154551 -0.00035889
0.0145233 -1.26724e-20 0.00429208 -2.53335e-05 -0.0163927 3.13184e-05
0.0149685 0 0.00252404 0.000343717 -0.0464081 2.65698e-05
-0.0149829 3.00624e-20 0.0025043 0.00140687 -0.0382388 -0.000300443
-0.0149776 0 0.00275132 0.00148883 -0.0378956 -0.000255771
-0.0147025 -2.71051e-20 0.0040589 0.00111082 -0.024997 -0.000407719
0.0147084 0 0.00408023 -4.5053e-05 -0.0273562 8.52159e-05
0.0149582 -1.2332e-20 0.00317892 5.41929e-05 -0.0444541 0.000166759
-0.0146099 -2.71051e-20 0.0045237 0.000522302 -0.0103917 -0.000295407
-0.0149688 0 0.00315684 0.00162337 -0.0373322 -0.000182435
0.0153005 0 0.000292235 0.000463862 -0.008532 -5.65596e-06
-0.0153009 2.71051e-20 0.000291878 -4.80539e-05 -0.00832019 -2.63919e-05
0.0146196 0 0.00453529 7.92631e-06 -0.0109207 2.73228e-05
0.0153021 2.71051e-20 0.000894041 0.000986974 -0.0278175 -3.18823e-05
-0.0153039 0 0.000892113 0.000197187 -0.0245211 -0.00022714
0.0153002 -2.71051e-20 0.00152928 0.000908107 -0.0403966 4.03206e-06
-0.0153052 -5.42101e-20 0.00152357 0.000728096 -0.0335661 -0.000301705
-0.0146355 0 0.0048202 4.19007e-08 -9.52739e-07 -1.87912e-08
0.0146456 -6.61744e-24 0.00482779 4.89312e-09 -1.15947e-06 9.79805e-09
-0.0149723 -7.88386e-21 0.00378401 0.00143373 -0.0326123 -0.000112664
0.0149713 2.97901e-20 0.00380142 -3.32121e-05 -0.0376315 0.000290589
0.0152929 2.71051e-20 0.00218496 0.000515432 -0.0467005 0.000139147
-0.0153015 5.42101e-20 0.00217419 0.00134456 -0.0377976 -0.000141751
0.0152835 -2.71051e-20 0.00284024 0.00012602 -0.0486113 0.000338557
-0.0152919 2.71051e-20 0.00282667 0.00176033 -0.0394126 0.000125992
-0.0149633 -2.90903e-20 0.00442183 0.000810141 -0.0204557 -5.92012e-05
0.014969 7.21301e-21 0.00443194 4.86472e-05 -0.0228083 0.000293428
-0.0156169 0 3.92127e-09 -6.34505e-10 -6.932e-08 -2.66885e-10
0.0156169 0 1.59541e-09 1.60682e-09 -2.81735e-08 -2.19143e-11
0.0156181 0 0.000584603 0.000715497 -0.0175947 2.7864e-06
-0.0156185 -1.11957e-20 0.000584185 8.21182e-05 -0.0159174 -0.00011119
0.0156191 0 0.0012017 0.000883654 -0.03304 8.39442e-05
-0.0156207 7.49829e-21 0.00119995 0.000569683 -0.0280988 -0.000156196
0.0154662 0 0.00250915 0.000195573 -0.0468832 0.000492117
-0.0149261 0 0.00477675 0.000402201 -0.0106038 -0.000118369
0.0152816 2.71051e-20 0.00347878 -6.21418e-05 -0.0468046 0.000547828
-0.0152852 0 0.00346631 0.0018076 -0.0387896 0.000322989
0.0149333 2.71051e-20 0.00478413 8.98677e-05 -0.0111653 0.000160924
-0.0156201 0 0.00172303 0.00113306 -0.0333595 2.86082e-05
0.0156163 0 0.00184941 0.000578955 -0.0423848 0.000300923
-0.0156199 0 0.00184524 0.00126468 -0.0345885 7.1783e-05
-0.0154693 0 0.003148 0.00193378 -0.0388108 0.000681733
0.0156092 0 0.00250487 0.000153013 -0.0470197 0.000625865
-0.0156138 1.03398e-25 0.00249847 0.00183707 -0.0378305 0.000509343
-0.0152764 -5.42101e-20 0.00409542 0.00136301 -0.03405 0.000258005
0.0152785 -5.42101e-20 0.00410448 1.38364e-05 -0.0396338 0.00061091
0.015608 0 0.00259841 0.000116631 -0.0472203 0.000673661
-0.0149898 -6.61744e-24 0.00508713 2.92664e-08 -1.07424e-06 -1.25387e-09
0.0149968 -6.61744e-24 0.00509235 1.56851e-08 -1.24189e-06 2.52588e-08
0.0156006 -8.95009e-22 0.00315251 -9.88945e-05 -0.0484084 0.000956807
-0.0151689 3.65283e-21 0.00482334 0.000440984 -0.0151957 8.77244e-05
-0.0156039 0 0.00314562 0.00201729 -0.0392087 0.000914234
0.0151743 -2.36971e-20 0.00482866 0.000150483 -0.0167212 0.000356973
-0.0156032 0 0.00318364 0.00199925 -0.0391484 0.000923344
0.0159322 2.71051e-20 0.000292222 0.000485733 -0.0081291 -7.47606e-06
-0.0159323 5.42101e-20 0.000292065 -9.76835e-05 -0.00796565 -3.65867e-05
0.0159282 0 0.000584568 0.000677137 -0.0170041 2.4365e-05
0.0159329 2.71051e-20 0.000892712 0.00093353 -0.0262143 5.63583e-05
-0.0159336 0 0.000891952 0.000281945 -0.0231037 -0.000157072
0.0159836 -1.03398e-25 2.31451e-21 0 0 0
-0.0153229 0 0.00461704 0.000758342 -0.0248667 0.000288983
0.0159322 5.42101e-20 0.00152399 0.000704425 -0.0379703 0.000308043
-0.015934 0 0.00152204 0.00108087 -0.0313446 6.13795e-05
0.0153273 2.71051e-20 0.00462278 0.000169153 -0.0280779 0.000622919
-0.015592 4.1359e-25 0.00378396 0.00171442 -0.0381961 0.0010672
0.0155918 -2.53283e-20 0.0037897 -5.71915e-05 -0.0461854 0.00116209
0.0159284 -5.42101e-20 0.00217342 0.00018704 -0.0445499 0.000748668
-0.0159311 -5.42101e-20 0.00217013 0.00190582 -0.0356796 0.000666603
-0.0152682 0 0.00505663 0.000164756 -0.0102219 9.58416e-05
0.0152733 0 0.00506088 0.000193249 -0.0110574 0.000291047
-0.0160398 1.29247e-26 0.00184385 0.00172117 -0.0330269 0.000574282
0.0159217 2.71051e-20 0.00282271 -0.000214349 -0.0482132 0.00126756
-0.0159241 -5.42101e-20 0.00281877 0.00233397 -0.0384303 0.00137708
-0.0155885 -3.96352e-20 0.00438984 0.00102268 -0.0327635 0.000953779
0.0155908 -2.47426e-20 0.00439405 0.000207672 -0.038388 0.00115236
-0.0162467 0 4.50343e-09 -1.08631e-09 -7.54259e-08 -4.44428e-10
0.0162467 0 1.14466e-09 1.13585e-09 -1.90001e-08 -2.95966e-11
0.0162034 -1.61559e-27 0.00120022 0.000640514 -0.0307887 0.000288972
-0.0153431 -6.61744e-24 0.00535315 -8.10783e-10 -1.48666e-06 3.84485e-08
0.0153477 6.61744e-24 0.00535654 4.99498e-08 -1.6937e-06 6.36124e-08
0.0162471 8.31836e-21 0.000584533 0.000637691 -0.0163968 4.65541e-05
-0.0162472 -2.39986e-20 0.00058442 0.000159359 -0.0148738 -6.95923e-05
0.0159122 2.71051e-20 0.00346529 -0.000246319 -0.0499648 0.00166968
-0.0159131 0 0.00346161 0.00216982 -0.0401793 0.00182783
0.0162478 2.9653e-22 0.00120011 0.00062204 -0.0306177 0.00030455
-0.0162481 1.03398e-25 0.00119968 0.000944849 -0.0260404 0.000133776
-0.0155338 -1.10412e-20 0.00491869 0.000298131 -0.0206948 0.000594128
0.0162477 -8.07794e-27 0.00123763 0.000593339 -0.0311374 0.000335391
0.0155374 -2.06994e-20 0.00492201 0.000394006 -0.0233706 0.000807526
0.0162469 2.58494e-26 0.00184409 0.000129457 -0.0395368 0.000833853
-0.0162477 -1.29247e-26 0.00184316 0.00194716 -0.0322538 0.000823045
-0.0162472 2.58494e-26 0.00193845 0.00204649 -0.0328213 0.000961788
-0.015901 0 0.00409355 0.00152656 -0.0397833 0.00186773
0.0159019 0 0.00409655 6.1147e-05 -0.0483744 0.00182557
0.0162431 0 0.00249417 -0.000370911 -0.0449663 0.00153052
-0.016244 0 0.00249283 0.00262434 -0.0361226 0.00176893
0.0162387 2.58494e-26 0.00283855 -0.00045143 -0.0468262 0.00187494
0.0162348 0 0.0031392 -0.000521723 -0.0484499 0.00217561
-0.0162354 0 0.00313774 0.00264469 -0.0388955 0.00255812
-0.0156894 0 0.00525034 -0.000181582 -0.0159328 0.000584817
0.0156925 -2.71051e-20 0.00525277 0.000648492 -0.0174576 0.000776778
-0.0162334 -5.16988e-26 0.00321975 0.00256379 -0.0390914 0.00260327
-0.0158705 0 0.0047214 0.000473799 -0.0334205 0.00149552
0.0158727 -2.71051e-20 0.00472386 0.000595145 -0.0388581 0.00162811
0.0165604 -2.71051e-20 0.000292258 0.000457018 -0.00757074 -1.60381e-05
-0.0165604 -2.71051e-20 0.000292218 -0.00012089 -0.00747184 -5.47013e-05
0.0165607 0 0.000892189 0.000680084 -0.0239534 0.000155222
-0.0165609 0 0.000892028 0.000582552 -0.0211792 -3.07362e-05
0.0165606 2.71051e-20 0.00152156 0.000165731 -0.0345259 0.000703945
-0.016561 -2.71051e-20 0.00152113 0.00184835 -0.0286573 0.000667595
-0.0162196 -4.61319e-21 0.00378044 0.00201073 -0.0404314 0.00291196
0.0162198 -1.89987e-20 0.00378182 -0.000210434 -0.0499455 0.00257536
-0.0156952 0 0.00561829 -4.58848e-08 -1.8693e-06 9.35682e-08
0.0156978 0 0.00562028 9.55051e-08 -2.10079e-06 1.14256e-07
0.0165588 2.71051e-20 0.00216766 -0.000539086 -0.0411632 0.00157401
-0.0165593 2.71051e-20 0.00216703 0.0029539 -0.0333644 0.00189586
-0.0161896 1.76851e-20 0.00442818 0.000910808 -0.0388156 0.00268343
0.0161906 2.18425e-20 0.00442953 0.000451158 -0.0469101 0.00255515
0.0165536 -2.71051e-20 0.00281397 -0.000913174 -0.0459555 0.00252282
-0.016554 5.42101e-20 0.00281321 0.00329873 -0.03702 0.0031252
-0.0168738 0 4.79187e-09 -1.08081e-09 -7.50933e-08 -7.04408e-10
0.0168738 0 1.76193e-09 1.59976e-09 -2.80822e-08 -8.71267e-11
-0.0168739 -2.55938e-20 0.00058458 0.000405478 -0.0137107 1.00971e-05
0.0168739 -2.81035e-21 0.000584593 0.000427929 -0.015068 9.70232e-05
-0.0165426 -2.71051e-20 0.00345663 0.00277662 -0.0399436 0.00389202
0.0165425 0 0.00345738 -0.00071277 -0.0496539 0.0032335
-0.0161125 2.40213e-20 0.0051374 -0.000270907 -0.0268706 0.00177741
0.0161142 4.04326e-21 0.00513878 0.000993672 -0.0311813 0.00184284
0.0168742 -9.76008e-21 0.00119965 7.19072e-05 -0.0280711 0.000590886
-0.0168743 -1.12436e-20 0.0011996 0.00172988 -0.0240433 0.000610139
-0.0160304 5.42101e-20 0.00554246 -0.000581181 -0.0149405 0.000966047
0.0168741 3.23117e-27 0.00173823 -0.000579105 -0.0353864 0.00137889
0.0160322 0 0.00554379 0.00088215 -0.0162641 0.00105155
-0.0168741 -4.0643e-21 0.00184202 0.00317126 -0.0304802 0.00192549
0.0168741 -3.23117e-27 0.00184212 -0.000704679 -0.0367974 0.00153089
-0.0165205 -5.42101e-20 0.00410417 0.00158401 -0.0418034 0.00407469
0.0165209 -2.71051e-20 0.00410496 4.66845e-05 -0.0517687 0.00358232
-0.0168728 1.29247e-26 0.00226182 0.00364578 -0.0335539 0.00290587
0.016872 -2.58494e-26 0.00248968 -0.00127451 -0.0430302 0.00267334
-0.0168721 1.29247e-26 0.00248953 0.00390317 -0.0352211 0.00343767
-0.0160456 0 0.00588237 -1.08682e-07 -1.84836e-06 1.53203e-07
0.0160471 0 0.0058834 1.4643e-07 -2.08504e-06 1.64324e-07
0.0168056 -9.69352e-27 0.00313292 -0.00118202 -0.047861 0.00353612
-0.0168654 -2.58494e-26 0.00313207 0.0036085 -0.0389106 0.00459371
0.0168654 1.2324e-20 0.00313226 -0.00125122 -0.0477993 0.0036787
-0.0164772 -2.71051e-20 0.00477307 7.67207e-05 -0.0404363 0.00336199
0.0168651 -3.23117e-27 0.00314406 -0.00123874 -0.0478618 0.00369022
0.0164781 2.71051e-20 0.00477392 0.0010943 -0.0489149 0.00323714
-0.0168631 -2.58494e-26 0.00322486 0.00344109 -0.0392883 0.00466904
0.0171867 0 0.000292305 0.000381589 -0.00705557 -2.90941e-05
-0.0171867 -2.71051e-20 0.000292302 -8.31459e-05 -0.00697905 -8.1141e-05
0.0171869 -5.42101e-20 0.000892117 0.00019341 -0.0219413 0.000281823
-0.0171869 2.71051e-20 0.000892093 0.00125951 -0.0194191 0.000209459
0.0171305 0 0.0018419 -0.00121054 -0.0365524 0.00188169
-0.0163088 -1.01578e-20 0.00559077 -0.000943726 -0.0204276 0.00170806
0.01631 -2.39154e-20 0.00559165 0.00134895 -0.023211 0.0017506
0.0171869 5.42101e-20 0.00152074 -0.000761604 -0.032022 0.00123329
-0.0171869 -2.71051e-20 0.00152071 0.00325185 -0.0270301 0.00160896
-0.0168494 2.06795e-25 0.00377631 0.00244622 -0.0415331 0.00511672
0.0168495 1.30306e-20 0.00377656 -0.000569828 -0.0512128 0.00430746
0.017186 -5.42101e-20 0.00216542 -0.00168388 -0.0395129 0.00261401
-0.0171861 5.42101e-20 0.00216535 0.00463166 -0.0328895 0.00353153
-0.016518 2.71051e-20 0.00536714 -0.00107978 -0.0321674 0.00270069
0.016519 -2.71051e-20 0.00536792 0.0017707 -0.0376373 0.00272463
-0.0168212 5.60332e-21 0.00443102 0.000818448 -0.0424404 0.00492424
0.0168216 2.32297e-20 0.00443137 0.000568186 -0.0521526 0.00442088
-0.0163928 0 0.00584542 -0.00117001 -0.0147422 0.00149911
0.0163937 -2.71051e-20 0.00584612 0.0014087 -0.0164325 0.00151791
0.0171824 -2.71051e-20 0.0028096 -0.0019569 -0.0454878 0.00397442
-0.0171824 0 0.00280953 0.00472218 -0.0376033 0.00518701
-0.0174996 8.27181e-25 4.65707e-09 9.7244e-12 -6.8775e-08 -9.71046e-10
0.0174996 0 2.44541e-09 1.64891e-09 -3.68487e-08 -1.90966e-10
-0.0163956 0 0.00614428 -1.69852e-07 -1.731e-06 2.00027e-07
-0.0174996 -3.09442e-20 0.000584661 0.000943011 -0.0128644 0.000164929
0.0174996 1.85347e-20 0.00058466 5.78343e-05 -0.0141569 0.000173593
0.0163962 0 0.00614484 1.96501e-07 -1.97475e-06 2.07716e-07
-0.0171728 2.71051e-20 0.00345119 0.00363241 -0.0410726 0.00615774
0.0171728 0 0.00345131 -0.00141841 -0.0501026 0.00497378
-0.0174998 0 0.0011996 0.00311107 -0.0231322 0.0013272
0.0174998 -3.25385e-20 0.0011996 -0.000817309 -0.0267477 0.000981992
-0.0168072 1.8466e-20 0.00507468 -0.000817634 -0.0393008 0.00416521
0.0168078 4.87209e-21 0.00507514 0.0017514 -0.047511 0.00400475
-0.0174997 0 0.00184159 0.00504537 -0.0306485 0.0033249
0.0174997 0 0.00184159 -0.00193882 -0.0361997 0.00238672
-0.0174397 1.61559e-27 0.00248806 0.00549352 -0.0364623 0.00509892
0.0174993 -3.23117e-27 0.00212642 -0.00219014 -0.0394734 0.00306521
-0.0171543 2.71051e-20 0.00409713 0.00179245 -0.0433091 0.00633267
0.0171545 2.71051e-20 0.00409729 -0.000195093 -0.0533171 0.00543216
0.0174987 6.46235e-27 0.00248791 -0.00250909 -0.0436282 0.00392629
-0.0174987 9.50713e-21 0.00248791 0.00565893 -0.0365914 0.0052717
-0.0174983 3.23117e-27 0.00255404 0.00557388 -0.0370429 0.00540726
-0.0167741 3.0341e-20 0.00574437 -0.00171194 -0.0258257 0.00283937
0.0167746 9.70779e-21 0.00574481 0.00213168 -0.0302791 0.00284994
-0.0174944 1.29247e-26 0.00312778 0.00483605 -0.04096 0.00658334
0.0174944 -1.26602e-20 0.00312779 -0.00219885 -0.049286 0.00517394
-0.0171359 2.71051e-20 0.00474309 -0.000182569 -0.044127 0.00589069
0.0171362 5.42101e-20 0.00474333 0.00132627 -0.0544621 0.00540155
-0.0167048 0 0.00611288 -0.00160365 -0.0134585 0.0017637
0.0167053 0 0.00611327 0.00170791 -0.0149616 0.00177598
0.017492 0 0.00326736 -0.00195662 -0.0501513 0.00533772
-0.017491 0 0.00333122 0.00425711 -0.0418585 0.00674964
0.0178123 0 0.000292339 0.000243674 -0.00677113 -4.23649e-05
-0.0178123 0 0.000292339 9.00113e-05 -0.00664254 -0.000111456
-0.0178123 -2.71051e-20 0.000892127 0.00253561 -0.01861 0.000651191
0.0178123 0 0.000892128 -0.000595445 -0.0210909 0.000490694
-0.0178123 -5.42101e-20 0.00152058 0.00543179 -0.0275895 0.00286488
0.0178123 2.71051e-20 0.00152058 -0.00212301 -0.0320896 0.0019393
-0.0174836 2.58494e-26 0.00376687 0.0030174 -0.0437825 0.00710576
0.0174836 2.07376e-20 0.00376691 -0.00108961 -0.0532483 0.00592395
-0.0167191 1.32349e-23 0.00643605 -2.20385e-07 -1.72362e-06 2.43484e-07
0.0167195 0 0.0064363 2.40592e-07 -1.9894e-06 2.51572e-07
0.0178119 -2.71051e-20 0.00216457 -0.00318782 -0.0411965 0.00376355
-0.0178119 2.71051e-20 0.00216457 0.00686754 -0.0351011 0.00529836
-0.017115 0 0.00539431 -0.00204554 -0.0410036 0.00483627
0.0171154 -2.71051e-20 0.0053946 0.00279574 -0.0497713 0.00476443
-0.0174667 -3.87098e-20 0.00441055 0.000781846 -0.0451969 0.00692359
0.0174668 -2.93517e-20 0.00441062 0.000527504 -0.0555023 0.00614356
-0.0178098 2.71051e-20 0.00280703 0.00640945 -0.0407501 0.00706019
0.0178098 2.71051e-20 0.00280703 -0.00320348 -0.0482929 0.00534562
-0.0169664 -2.12883e-20 0.00617963 -0.00207938 -0.019428 0.00253543
0.0169667 -2.29162e-20 0.00617988 0.00227444 -0.0224194 0.00255943
-0.0181249 8.27181e-25 4.21997e-09 2.71616e-09 -6.03321e-08 -1.0845e-09
0.0181249 4.1359e-25 2.86614e-09 7.0387e-10 -4.24681e-08 -2.95141e-10
-0.0178039 -2.71051e-20 0.00344471 0.0045724 -0.0444005 0.00791944
0.0178039 5.42101e-20 0.00344474 -0.00221071 -0.0532516 0.00639507