# UMean  POINT_DATA 48208
# x  y  z  UMean_x  UMean_y  UMean_z
0 -3.17067e-08 0.049924 -7.94482e-08 -6.10392e-08 3.40296e-10
0 0.000624967 0.049924 -7.60752e-08 -5.86442e-08 3.18028e-10
0 -0.000625031 0.0499246 -8.19861e-08 -6.28161e-08 3.62577e-10
8.27181e-25 0.00124997 0.049924 -6.76205e-08 -5.229e-08 2.78408e-10
0 -0.00125003 0.0499252 -8.40482e-08 -6.4236e-08 3.71798e-10
1.29247e-25 0.00185145 0.049924 0 0 0
-2.58494e-26 0.00187498 0.049924 -2.48548e-09 -1.69418e-09 4.57061e-12
-1.80946e-25 0.00190585 0.049924 0 0 0
8.27181e-25 -0.00187503 0.0499258 -8.55683e-08 -6.52078e-08 3.72668e-10
-4.1359e-25 0.00249999 0.049924 -5.47753e-08 -4.26059e-08 2.1978e-10
8.27181e-25 -0.00250003 0.0499264 -8.65118e-08 -6.5729e-08 3.67148e-10
0 0.00187498 0.0499806 -0.000694081 -0.00126146 2.50033e-05
-4.1359e-25 0.00312499 0.049924 -5.57016e-08 -4.34405e-08 2.24361e-10
-8.27181e-25 -0.00312503 0.049927 -8.69954e-08 -6.58897e-08 3.53769e-10
-4.1359e-25 0.00375 0.049924 -6.47125e-08 -5.05924e-08 2.62379e-10
-8.27181e-25 -0.00375003 0.0499276 -8.71455e-08 -6.57838e-08 3.4e-10
-8.27181e-25 0.004375 0.049924 -7.15452e-08 -5.6067e-08 2.90322e-10
-8.27181e-25 -0.00437504 0.0499282 -8.70592e-08 -6.54988e-08 3.38271e-10
0 0.000312471 0.0501277 -0.00818567 -0.00593111 2.49196e-05
-5.42101e-20 -0.000312444 0.050128 -0.00819111 -0.00591457 2.70673e-05
2.71051e-20 0.000937474 0.0501277 -0.00817887 -0.00594708 2.49639e-05
-2.71051e-20 -0.000937448 0.0501285 -0.00818869 -0.0058986 2.77739e-05
-2.71051e-20 0.00156248 0.0501277 -0.00817349 -0.00596246 2.42183e-05
5.42101e-20 -0.00156244 0.050129 -0.00818645 -0.00587998 2.77646e-05
0 0.005 0.049924 -7.4442e-08 -5.84698e-08 3.03619e-10
0 0.00218749 0.0501277 -0.0081701 -0.00597779 2.43789e-05
-5.42101e-20 -0.00218744 0.0501295 -0.00818444 -0.00586031 2.70038e-05
0 -0.00500005 0.0499288 -8.68211e-08 -6.50959e-08 3.35704e-10
0 0.00281249 0.0501277 -0.00816613 -0.00599262 2.43888e-05
0 -0.00281245 0.05013 -0.0081836 -0.00584212 2.62398e-05
0 0.005625 0.049924 -7.44354e-08 -5.85894e-08 3.0966e-10
-8.27181e-25 -0.00562507 0.0499294 -8.65153e-08 -6.46303e-08 3.26271e-10
2.71051e-20 0.0034375 0.0501277 -0.00816259 -0.00600636 2.5219e-05
2.71051e-20 -0.00343745 0.0501305 -0.0081846 -0.00582388 2.48891e-05
0 0.0040625 0.0501277 -0.00815982 -0.00601914 2.4611e-05
2.71051e-20 -0.00406245 0.0501309 -0.00818614 -0.00580458 2.49147e-05
0 0.00625 0.049924 -7.20808e-08 -5.68538e-08 3.0033e-10
0 -0.00625008 0.04993 -8.6252e-08 -6.41957e-08 3.20472e-10
9.11905e-21 3.39203e-08 0.0503317 -0.00501798 -0.00903667 0.000183673
-1.57392e-21 0.000624993 0.0503316 -0.00501097 -0.00905451 0.000181632
-2.5789e-20 -0.00062492 0.050332 -0.00502361 -0.00901946 0.000186098
-2.71051e-20 0.0046875 0.0501277 -0.00815654 -0.00603197 2.46189e-05
1.3249e-20 0.00124999 0.0503315 -0.00500507 -0.00907163 0.000180683
1.09118e-20 -0.00124991 0.0503324 -0.00502726 -0.00900155 0.0001873
2.71051e-20 -0.00468747 0.0501314 -0.00818856 -0.00578673 2.43787e-05
2.45079e-20 0.00187499 0.0503315 -0.00500061 -0.00908835 0.000180139
1.20607e-20 -0.00187491 0.0503328 -0.00502961 -0.00898201 0.000187346
1.56651e-20 0.00249999 0.0503315 -0.00499717 -0.00910454 0.000179824
8.27181e-25 0.006875 0.049924 -6.84352e-08 -5.40877e-08 2.84898e-10
-1.07914e-20 -0.00249991 0.0503332 -0.00503142 -0.00896237 0.000186736
8.27181e-25 -0.00687508 0.0499306 -8.61413e-08 -6.38728e-08 3.14362e-10
-2.71051e-20 0.0053125 0.0501277 -0.0081542 -0.0060443 2.47972e-05
2.71051e-20 -0.00531248 0.0501319 -0.00819195 -0.00576862 2.36589e-05
1.13913e-20 0.003125 0.0503315 -0.00499373 -0.00912009 0.000179803
2.06497e-20 -0.00312491 0.0503336 -0.00503402 -0.00894327 0.000185594
-9.68959e-21 0.00375 0.0503315 -0.00499099 -0.00913472 0.000179773
-2.2611e-21 -0.00374992 0.050334 -0.00503736 -0.00892375 0.000184688
-2.71051e-20 0.0059375 0.0501277 -0.00815125 -0.00605592 2.54432e-05
2.71051e-20 -0.00593748 0.0501324 -0.00819504 -0.00574806 2.28948e-05
0 0.0075 0.049924 -6.05473e-08 -4.79419e-08 2.51403e-10
0 -0.00750009 0.0499312 -8.6219e-08 -6.36651e-08 3.01825e-10
3.53072e-20 0.004375 0.0503315 -0.00498859 -0.00914861 0.000179314
-3.55671e-20 -0.00437492 0.0503343 -0.00504167 -0.00890384 0.000184114
0 0.0065625 0.0501277 -0.00814822 -0.00606745 2.50069e-05
-2.71051e-20 0.000312531 0.0505591 -0.00176887 -0.0122327 0.000343052
5.42101e-20 -0.000312425 0.0505593 -0.0017783 -0.0122137 0.000347014
-2.71051e-20 -0.00656249 0.0501329 -0.00819801 -0.00572755 2.33188e-05
-5.16988e-25 0.00802206 0.049924 0 0 0
0 0.000937506 0.050559 -0.00176318 -0.0122519 0.000340872
0 -0.000937385 0.0505595 -0.00178907 -0.0121958 0.000349917
-7.59683e-21 0.005 0.0503315 -0.00498658 -0.00916205 0.000178881
1.03398e-25 0.008125 0.049924 -1.06534e-08 -7.45524e-09 2.13491e-11
1.56139e-20 -0.00499993 0.0503347 -0.00504658 -0.00888421 0.000183381
0 0.00156249 0.050559 -0.0017568 -0.0122705 0.000339957
8.13152e-20 -0.00156238 0.0505598 -0.0017979 -0.0121765 0.000351162
-8.27181e-25 -0.00812509 0.0499318 -8.64113e-08 -6.35278e-08 2.91522e-10
0 0.00218749 0.050559 -0.00175415 -0.0122881 0.000339271
-2.71051e-20 -0.00218738 0.0505601 -0.00180287 -0.012156 0.000350895
0 0.0028125 0.050559 -0.00175043 -0.0123052 0.000338506
0 -0.00281238 0.0505604 -0.00180816 -0.0121358 0.00035025
-2.71051e-20 0.0071875 0.0501277 -0.00814548 -0.0060781 2.60715e-05
-2.0499e-20 0.005625 0.0503315 -0.00498464 -0.00917496 0.000178744
-2.71051e-20 -0.00718749 0.0501334 -0.00820153 -0.00570635 2.24421e-05
-1.88758e-20 -0.00562494 0.0503351 -0.00505217 -0.00886341 0.000182541
0 0.0034375 0.050559 -0.00174794 -0.0123218 0.000338325
-2.71051e-20 -0.00343739 0.0505607 -0.00181318 -0.012116 0.000348443
-2.06795e-25 0.00875 0.049924 -2.72781e-08 -1.91298e-08 5.48764e-11
0 -0.00875009 0.0499324 -8.65893e-08 -6.33732e-08 2.81901e-10
-1.25845e-20 0.00625 0.0503315 -0.0049827 -0.00918734 0.000178502
0 0.0040625 0.050559 -0.00174578 -0.0123372 0.000338159
-2.70563e-20 -0.00624994 0.0503355 -0.0050585 -0.00884142 0.000181831
0 -0.0040624 0.050561 -0.00181905 -0.0120952 0.000347939
0 0.0078125 0.0501277 -0.00814272 -0.00608849 2.48196e-05
-2.71051e-20 -0.00781249 0.0501339 -0.00820508 -0.00568303 2.12008e-05
2.71051e-20 0.0046875 0.050559 -0.0017444 -0.0123518 0.000337081
2.71051e-20 -0.0046874 0.0505613 -0.00182591 -0.0120741 0.000346678
2.38642e-20 5.18284e-08 0.0507872 0.0253851 -0.0150012 0.00569628
1.57471e-20 0.000625017 0.0507871 0.0253931 -0.0150053 0.00569402
-4.66013e-22 -0.000624911 0.0507873 0.0253704 -0.0149979 0.00569791
0 0.009375 0.049924 -3.85619e-08 -2.70988e-08 7.91628e-11
5.42589e-21 0.006875 0.0503315 -0.00498106 -0.00919917 0.000178213
8.5272e-22 0.00125 0.0507871 0.0253994 -0.0150094 0.00569293
2.35056e-20 -0.00124989 0.0507875 0.025352 -0.0149946 0.00569742
3.19267e-20 -0.00687495 0.0503359 -0.00506618 -0.00881864 0.000181028
0 -0.00937509 0.049933 -8.66758e-08 -6.3133e-08 2.74583e-10
-1.86827e-20 0.00187499 0.050787 0.0253988 -0.0150125 0.00569135
-2.3444e-20 -0.00187488 0.0507877 0.0253324 -0.01499 0.00569446
-5.42101e-20 0.0084375 0.0501277 -0.00813971 -0.00609878 2.55182e-05
0 0.0053125 0.050559 -0.0017434 -0.0123659 0.000336216
0 -0.0084375 0.0501343 -0.00820937 -0.0056598 2.07719e-05
2.71051e-20 -0.00531241 0.0505616 -0.00183295 -0.0120526 0.000346257
8.60681e-21 0.0025 0.050787 0.0253988 -0.0150152 0.00569017
2.33416e-20 -0.00249988 0.050788 0.0253161 -0.014985 0.00569052
5.16988e-26 0.008125 0.0502191 -0.00360547 -0.00667879 0.000128266
1.48184e-20 0.003125 0.050787 0.0253988 -0.0150175 0.00568918
-8.92218e-21 -0.00312489 0.0507882 0.0252977 -0.0149793 0.0056851
-1.6483e-20 0.0075 0.0503315 -0.0049795 -0.00921042 0.000177609
2.04065e-21 -0.00749995 0.0503363 -0.00507476 -0.0087946 0.000179652
2.71051e-20 0.0059375 0.050559 -0.00174196 -0.0123795 0.000335683
0 -0.00593742 0.0505619 -0.00184179 -0.0120296 0.000344805
0 0.01 0.049924 -3.9813e-08 -2.8035e-08 8.60668e-11
-8.27181e-25 -0.0100001 0.0499336 -8.6697e-08 -6.28371e-08 2.7173e-10
-1.99943e-20 0.00375 0.050787 0.0253972 -0.015019 0.00568822
-9.3703e-21 -0.0037499 0.0507884 0.0252807 -0.0149728 0.00567977
-2.71051e-20 0.0090625 0.0501277 -0.00813699 -0.00610845 2.50099e-05
0 -0.00906249 0.0501348 -0.00821329 -0.00563428 1.9767e-05
1.30474e-20 0.004375 0.050787 0.0253946 -0.01502 0.00568692
9.96339e-21 -0.0043749 0.0507886 0.0252649 -0.0149654 0.00567519
-3.51257e-21 0.008125 0.0503315 -0.00497794 -0.00922116 0.000177091
0 0.0065625 0.050559 -0.00174169 -0.0123923 0.000335025
0 -0.00656242 0.0505622 -0.00185249 -0.0120056 0.000343726
0 0.0103557 0.049924 0 0 0
-1.56378e-20 -0.00812495 0.0503366 -0.00508443 -0.00876925 0.000178442
-2.41254e-20 0.005 0.050787 0.0253913 -0.0150203 0.00568533
2.58494e-26 0.00842979 0.0503315 -0.00497719 -0.0092261 0.000176964
-2.06795e-25 -0.00499991 0.0507888 0.0252497 -0.014957 0.00567098
2.06795e-25 0.010625 0.049924 -3.27208e-08 -2.61375e-08 1.39679e-10
-2.71051e-20 0.00031254 0.0510487 0.0534778 -0.0178682 0.0112296
2.71051e-20 -0.000312437 0.0510488 0.0534672 -0.0178804 0.0112314
0 -0.0106251 0.0499342 -8.6746e-08 -6.2553e-08 2.61238e-10
2.71051e-20 0.0096875 0.0501277 -0.00813438 -0.0061181 2.65769e-05
2.71051e-20 0.000937508 0.0510487 0.053485 -0.0178574 0.0112287
0 -0.000937409 0.051049 0.053444 -0.0178933 0.0112301
0 -0.0096875 0.0501353 -0.00821793 -0.00560818 2.01153e-05
-5.42101e-20 0.0071875 0.050559 -0.00174124 -0.0124047 0.00033387
-2.71051e-20 -0.00718742 0.0505624 -0.00186619 -0.0119801 0.000342017
0 0.0015625 0.0510487 0.0534871 -0.0178456 0.0112277
0 -0.0015624 0.0510491 0.0534121 -0.0179052 0.011225
0 0.00875 0.0503315 -0.0049764 -0.00923128 0.00017683
2.21548e-20 -0.00874995 0.050337 -0.00509501 -0.00874277 0.000177187
0 0.0021875 0.0510486 0.0534809 -0.017833 0.0112254
0 -0.00218739 0.0510493 0.0533818 -0.0179164 0.0112177
3.16671e-20 0.005625 0.050787 0.0253876 -0.01502 0.0056838
-1.66398e-20 -0.00562491 0.050789 0.0252331 -0.0149475 0.00566655
0 0.0028125 0.0510486 0.0534794 -0.0178209 0.0112242
2.71051e-20 -0.0028124 0.0510494 0.0533507 -0.0179263 0.0112089
-5.42101e-20 0.0078125 0.050559 -0.00174097 -0.0124163 0.000332773
0 -0.00781242 0.0505627 -0.00188024 -0.0119536 0.000340316
2.71051e-20 0.0034375 0.0510486 0.0534744 -0.0178075 0.0112224
5.42101e-20 -0.0034374 0.0510496 0.0533206 -0.0179348 0.0111988
2.19409e-20 0.00625 0.050787 0.0253833 -0.0150193 0.00568221
2.06795e-25 -0.00624992 0.0507892 0.0252142 -0.0149367 0.00566169
4.1359e-25 0.01125 0.049924 -4.42011e-08 -3.53608e-08 1.8982e-10
0 0.0103125 0.0501277 -0.00813171 -0.00612678 2.64731e-05
2.71051e-20 -0.0103125 0.0501358 -0.00822315 -0.00558269 1.96472e-05
8.27181e-25 -0.0112501 0.0499348 -8.69072e-08 -6.23327e-08 2.43113e-10
0 0.009375 0.0503315 -0.00497507 -0.00924101 0.000176726
-2.69239e-20 -0.00937495 0.0503374 -0.00510643 -0.00871475 0.000176181
0 0.0040625 0.0510486 0.0534682 -0.017794 0.0112207
-5.42101e-20 -0.00406241 0.0510497 0.0532936 -0.017942 0.0111898
-1.59511e-21 0.006875 0.050787 0.0253783 -0.015018 0.00568035
-6.97437e-21 -0.00687492 0.0507894 0.0251908 -0.0149246 0.00565616
-2.71051e-20 0.0084375 0.050559 -0.00174083 -0.012427 0.00033234
-2.71051e-20 -0.00843743 0.050563 -0.00189649 -0.011926 0.00033887
2.71051e-20 0.0046875 0.0510486 0.0534605 -0.0177803 0.0112184
-2.71051e-20 -0.00468742 0.0510498 0.0532709 -0.0179479 0.0111822
2.71051e-20 0.0109375 0.0501277 -0.00812881 -0.00613465 2.65555e-05
-2.95347e-20 3.58407e-08 0.051311 0.0964268 -0.0247702 0.0216562
2.77223e-20 0.000625016 0.051311 0.0964307 -0.0247364 0.0216535
-1.84552e-20 -0.000624943 0.0513111 0.0964172 -0.0248053 0.0216583
0 0.01 0.0503315 -0.00497395 -0.00925037 0.000176776
0 -0.0109375 0.0501363 -0.00822851 -0.00555603 1.82776e-05
4.1359e-25 0.011875 0.049924 -5.04226e-08 -4.03939e-08 2.1941e-10
-1.45799e-20 -0.00999995 0.0503378 -0.00511859 -0.00868615 0.000175251
0 0.0053125 0.0510486 0.053452 -0.0177657 0.0112162
5.42101e-20 -0.00531242 0.05105 0.0532468 -0.0179522 0.0111745
-1.12457e-20 0.00125 0.051311 0.0964292 -0.0247024 0.0216507
8.58872e-21 -0.00124993 0.0513112 0.0963966 -0.0248403 0.0216571
-8.27181e-25 -0.0118751 0.0499354 -8.71843e-08 -6.21854e-08 2.29726e-10
1.57686e-21 0.0075 0.050787 0.0253731 -0.0150161 0.00567838
2.94977e-20 -0.00749992 0.0507896 0.0251632 -0.0149107 0.00564992
-1.23888e-20 0.001875 0.0513109 0.0964175 -0.024667 0.0216462
-2.73396e-20 -0.00187492 0.0513113 0.09637 -0.0248743 0.0216525
2.71051e-20 0.0090625 0.050559 -0.00174063 -0.0124368 0.00033152
5.42101e-20 -0.00906243 0.0505633 -0.00191468 -0.0118963 0.000336702
1.02982e-20 0.0025 0.0513109 0.0964078 -0.0246323 0.0216426
1.30919e-20 -0.00249992 0.0513114 0.0963418 -0.0249071 0.0216455
0 0.0103482 0.0503315 -0.00497325 -0.00925505 0.000176593
0 0.0059375 0.0510486 0.0534429 -0.0177505 0.0112136
-2.71051e-20 -0.00593743 0.0510501 0.0532215 -0.0179553 0.0111664
1.95797e-20 0.003125 0.0513109 0.0963975 -0.0245971 0.021639
-2.60205e-20 -0.00312493 0.0513115 0.0963133 -0.0249381 0.0216367
4.84648e-21 0.008125 0.050787 0.0253675 -0.0150136 0.00567664
-3.865e-21 -0.00812492 0.0507898 0.025132 -0.0148953 0.00564359
-2.06795e-25 0.0123908 0.049924 0 0 0
0 0.010625 0.0503315 -0.00497269 -0.00925877 0.000176447
2.71051e-20 0.0115625 0.0501277 -0.00812654 -0.00614255 2.67699e-05
-3.2296e-20 -0.010625 0.0503382 -0.00513121 -0.00865692 0.000173238
-1.2996e-21 0.00375 0.0513109 0.0963849 -0.0245613 0.0216352
1.08741e-20 -0.00374993 0.0513115 0.0962834 -0.024967 0.0216265
5.42101e-20 -0.0115625 0.0501368 -0.00823462 -0.00552823 1.69045e-05
-1.03398e-25 0.0125 0.049924 -1.00313e-08 -7.11423e-09 2.30115e-11
2.71051e-20 0.0065625 0.0510486 0.0534327 -0.0177352 0.011211
0 -0.00656243 0.0510503 0.0531921 -0.0179574 0.0111578
0 -0.0125001 0.049936 -8.5928e-08 -6.0948e-08 2.20756e-10
-2.71051e-20 0.0096875 0.050559 -0.00174091 -0.0124465 0.000330835
-2.71051e-20 -0.00968742 0.0505636 -0.00193402 -0.0118654 0.000335465
3.10193e-25 0.0126216 0.049924 0 0 0
-1.27472e-20 0.004375 0.0513109 0.0963709 -0.0245252 0.0216311
3.77086e-21 -0.00437494 0.0513116 0.096262 -0.0249952 0.0216184
-6.46235e-27 0.00862684 0.050787 0.0253629 -0.0150111 0.00567527
6.46235e-27 0.00875 0.050787 0.0253618 -0.0150105 0.00567493
-1.55924e-22 -0.00874992 0.0507901 0.0251011 -0.0148785 0.00563748
-2.71051e-20 0.0071875 0.0510486 0.0534219 -0.0177194 0.0112079
0 -0.00718743 0.0510504 0.0531519 -0.017957 0.0111469
-1.33652e-20 0.005 0.0513109 0.0963555 -0.0244887 0.0216269
0 -0.00499994 0.0513117 0.096242 -0.025022 0.0216109
1.21006e-21 0.01125 0.0503315 -0.0049715 -0.00926647 0.000176129
-2.47335e-20 -0.01125 0.0503386 -0.00514359 -0.00862663 0.000170969
-2.71051e-20 0.0121875 0.0501277 -0.00812342 -0.00615009 2.73462e-05
0 -0.0121875 0.0501373 -0.00823952 -0.00549894 1.70216e-05
0 0.0103125 0.050559 -0.00174148 -0.0124559 0.000330226
2.71051e-20 0.000312518 0.051601 0.140632 -0.0318382 0.0323832
2.71051e-20 -0.000312458 0.051601 0.140634 -0.0318959 0.0323882
2.71051e-20 -0.0103124 0.0505639 -0.00195374 -0.0118334 0.000333066
2.71051e-20 0.000937501 0.051601 0.140625 -0.0317812 0.0323783
0 -0.000937451 0.0516011 0.140625 -0.0319543 0.0323907
1.10858e-21 0.005625 0.0513109 0.0963393 -0.0244517 0.0216225
-2.93395e-20 -0.00562494 0.0513118 0.0962222 -0.0250476 0.0216036
-4.1359e-25 0.013125 0.049924 -4.75565e-08 -3.8203e-08 2.03242e-10
-5.42101e-20 0.0015625 0.051601 0.140611 -0.0317229 0.0323727
0 -0.00156244 0.0516011 0.140606 -0.0320122 0.0323895
0 -0.0131251 0.0499366 -8.20401e-08 -5.78661e-08 2.02443e-10
0 0.0078125 0.0510486 0.0534107 -0.0177028 0.0112053
0 -0.00781242 0.0510505 0.0531077 -0.0179548 0.0111357
0 0.009375 0.050787 0.0253556 -0.0150069 0.005673
2.71051e-20 0.0021875 0.0516009 0.140594 -0.0316646 0.0323666
0 -0.00218744 0.0516012 0.140582 -0.0320692 0.0323853
-2.69146e-20 -0.00937492 0.0507903 0.0250666 -0.0148603 0.00563074
-2.71051e-20 0.0028125 0.0516009 0.140578 -0.0316069 0.0323612
2.71051e-20 -0.00281244 0.0516013 0.140556 -0.0321237 0.0323781
0 0.0125 0.0501437 -0.00267928 -0.00500423 9.47886e-05
-2.06963e-20 0.00625 0.0513109 0.0963224 -0.0244144 0.021618
-9.89205e-22 -0.00624994 0.0513119 0.0962001 -0.0250723 0.021596
-2.11855e-20 0.011875 0.0503315 -0.00497031 -0.00927395 0.000176058
-2.71051e-20 0.0034375 0.0516009 0.140559 -0.0315483 0.0323553
2.71051e-20 -0.00343745 0.0516013 0.14053 -0.032176 0.032369
-2.01964e-20 -0.011875 0.050339 -0.0051557 -0.00859509 0.000169568
0 0.0109375 0.050559 -0.00174153 -0.0124636 0.000329525
0 -0.0109374 0.0505641 -0.00197449 -0.0118003 0.000329187
-5.42101e-20 0.0128125 0.0501277 -0.00812056 -0.00615702 2.71548e-05
2.71051e-20 0.0084375 0.0510486 0.053399 -0.017686 0.0112024
-2.71051e-20 -0.00843743 0.0510507 0.0530582 -0.0179502 0.0111247
0 -0.0128125 0.0501378 -0.00824471 -0.00546991 1.68159e-05
0 0.0040625 0.0516009 0.140539 -0.0314893 0.0323492
0 -0.00406246 0.0516014 0.140509 -0.032227 0.0323601
6.46235e-27 0.01 0.050787 0.025349 -0.0150028 0.00567108
-3.8253e-21 -0.00999992 0.0507905 0.0250309 -0.014841 0.00562392
1.87292e-20 0.006875 0.0513109 0.0963046 -0.0243768 0.0216133
0 -0.00687495 0.051312 0.0961721 -0.0250956 0.0215878
0 0.01375 0.049924 -4.75894e-08 -3.82755e-08 2.03385e-10
0 -0.0137501 0.0499372 -7.96942e-08 -5.58899e-08 1.81865e-10
0 0.0102442 0.050787 0.0253464 -0.015001 0.00567037
0 0.0046875 0.0516009 0.140516 -0.0314299 0.032343
2.71051e-20 -0.00468745 0.0516014 0.140492 -0.0322767 0.0323524
2.71051e-20 0.0090625 0.0510486 0.0533869 -0.0176688 0.0111996
-2.71051e-20 -0.00906243 0.0510508 0.0530108 -0.0179452 0.0111133
3.84499e-20 0.0075 0.0513109 0.0962861 -0.0243386 0.0216085
4.23635e-20 -0.00749995 0.0513121 0.096138 -0.025117 0.0215788
1.72154e-20 0.0125 0.0503315 -0.00496906 -0.00928098 0.000175797
-5.42101e-20 0.0115625 0.050559 -0.00174194 -0.012471 0.000328635
-7.00126e-21 -0.0124999 0.0503393 -0.00516877 -0.00856217 0.000168491
2.71051e-20 -0.0115624 0.0505644 -0.00199206 -0.0117665 0.000326693
-2.71051e-20 0.0053125 0.0516009 0.140493 -0.0313703 0.0323366
0 -0.00531246 0.0516015 0.140477 -0.0323254 0.0323456
-3.45331e-20 0.010625 0.050787 0.0253423 -0.0149981 0.00566926
-1.8934e-20 -0.0106249 0.0507907 0.0249952 -0.0148211 0.00561632
-6.92118e-22 1.49272e-08 0.0518914 0.177521 -0.0391764 0.041586
-4.14252e-21 -0.000624977 0.0518914 0.177528 -0.0392563 0.0415927
1.04753e-20 0.000625007 0.0518914 0.177507 -0.039097 0.0415783
-2.71051e-20 0.0134375 0.0501277 -0.00811808 -0.00616393 2.65929e-05
-2.05803e-20 0.00125 0.0518914 0.177488 -0.0390175 0.0415703
2.68287e-20 -0.00124997 0.0518915 0.17753 -0.039337 0.0415978
-2.71051e-20 -0.0134375 0.0501382 -0.00824953 -0.00544045 1.57253e-05
2.52478e-20 0.001875 0.0518914 0.177465 -0.0389375 0.0415618
2.35407e-20 -0.00187497 0.0518915 0.177523 -0.0394169 0.0415994
0 0.0059375 0.0516009 0.140469 -0.0313104 0.0323301
0 -0.00593745 0.0516015 0.140462 -0.0323732 0.0323389
-8.65873e-21 0.008125 0.0513109 0.096267 -0.0243 0.0216038
-2.75083e-20 -0.00812495 0.0513121 0.0960936 -0.0251355 0.0215686
1.75566e-20 0.0025 0.0518914 0.177441 -0.0388578 0.0415535
2.46695e-20 -0.00249997 0.0518915 0.177511 -0.0394954 0.0415978
4.1359e-25 0.014375 0.049924 -5.91977e-08 -4.76645e-08 2.53065e-10
-2.71051e-20 0.0096875 0.0510486 0.0533741 -0.0176511 0.0111961
-5.42101e-20 -0.00968743 0.051051 0.052958 -0.0179389 0.0111012
-8.27181e-25 -0.0143751 0.0499378 -8.2526e-08 -5.75314e-08 1.73644e-10
-7.43441e-21 0.003125 0.0518914 0.177416 -0.0387779 0.0415453
-1.81117e-20 -0.00312497 0.0518916 0.177502 -0.0395726 0.0415947
0 0.0121875 0.050559 -0.00174221 -0.0124781 0.000328428
-3.23117e-27 0.00875 0.0512677 0.0903956 -0.0234975 0.0202844
2.71051e-20 -0.0121874 0.0505647 -0.00201235 -0.011731 0.000324799
9.20125e-21 0.013125 0.0503315 -0.00496809 -0.00928748 0.000174988
2.71051e-20 0.0065625 0.0516009 0.140444 -0.0312502 0.0323236
2.71051e-20 -0.00656246 0.0516016 0.140444 -0.0324205 0.0323325
-2.22408e-20 0.01125 0.050787 0.0253354 -0.0149927 0.00566728
1.1344e-20 -0.0112499 0.0507909 0.0249608 -0.0148008 0.00560889
4.40515e-21 -0.0131249 0.0503397 -0.00518141 -0.00852875 0.000167032
-5.20946e-21 0.00375 0.0518914 0.177388 -0.0386975 0.0415368
1.38624e-21 -0.00374997 0.0518916 0.177491 -0.0396479 0.0415897
0 0.00875 0.0513109 0.0962474 -0.0242612 0.021599
-9.27647e-21 -0.00874995 0.0513122 0.0960507 -0.0251532 0.0215593
2.71051e-20 0.0140625 0.0501277 -0.00811593 -0.00617013 2.66003e-05
4.03897e-28 0.00885848 0.0513109 0.0962439 -0.0242544 0.0215981
0 -0.0140625 0.0501387 -0.00825415 -0.00540992 1.44375e-05
-1.69694e-20 0.004375 0.0518914 0.177359 -0.0386169 0.0415283
-7.91758e-21 -0.00437497 0.0518916 0.177483 -0.0397219 0.0415847
2.71051e-20 0.0103125 0.0510486 0.0533608 -0.0176327 0.0111931
-2.71051e-20 -0.0103124 0.0510511 0.052906 -0.017932 0.0110893
0 0.0071875 0.0516009 0.140418 -0.0311896 0.0323169
0 -0.00718747 0.0516017 0.14042 -0.0324657 0.0323254
0 0.015 0.049924 -7.13174e-08 -5.749e-08 3.06388e-10
-3.54796e-20 0.005 0.0518914 0.177329 -0.038536 0.0415197
-1.29247e-26 -0.00499998 0.0518916 0.177478 -0.0397948 0.0415803
0 -0.0150001 0.0499384 -8.68687e-08 -6.01846e-08 1.67146e-10
-1.0197e-20 0.011875 0.050787 0.0253284 -0.0149869 0.00566537
2.71051e-20 0.0128125 0.050559 -0.00174302 -0.0124846 0.000327188
0 0.009375 0.0513109 0.0962271 -0.0242221 0.021594
-2.47697e-20 -0.0118749 0.0507911 0.0249259 -0.0147794 0.00560199
8.96684e-21 -0.00937495 0.0513123 0.0960073 -0.0251707 0.02155
0 -0.0128124 0.050565 -0.00203396 -0.0116936 0.000322456
-9.19618e-22 0.01375 0.0503315 -0.0049674 -0.00929321 0.000174249
3.28585e-20 -0.0137499 0.0503401 -0.00519377 -0.00849468 0.000165265
2.71051e-20 0.0078125 0.0516009 0.140391 -0.0311286 0.0323101
0 -0.00781246 0.0516017 0.140389 -0.0325095 0.0323179
-1.47275e-20 0.005625 0.0518914 0.177299 -0.038455 0.041511
-9.62068e-21 -0.00562498 0.0518917 0.177478 -0.0398675 0.0415774
-2.71051e-20 -0.000312488 0.052197 0.215014 -0.0466546 0.0509398
0 0.000312507 0.052197 0.214991 -0.0465524 0.050929
-2.71051e-20 0.000937507 0.052197 0.214965 -0.0464505 0.0509182
0 -0.000937479 0.052197 0.215031 -0.0467571 0.0509492
2.71051e-20 0.0109375 0.0510486 0.0533473 -0.0176142 0.0111901
2.71051e-20 -0.0109374 0.0510512 0.0528556 -0.0179253 0.011077
5.42101e-20 0.0015625 0.052197 0.214935 -0.0463483 0.0509069
0 -0.00156248 0.0521971 0.215043 -0.0468603 0.0509571
-2.71051e-20 0.0146875 0.0501277 -0.00811303 -0.00617566 2.73607e-05
-2.71051e-20 0.0021875 0.052197 0.214903 -0.0462464 0.0508957
2.71051e-20 -0.00218748 0.0521971 0.215051 -0.0469636 0.0509626
2.71051e-20 -0.0146875 0.0501392 -0.00825949 -0.0053793 1.40798e-05
4.34432e-20 0.00625 0.0518914 0.177267 -0.0383737 0.0415023
1.40182e-20 -0.00624998 0.0518917 0.177475 -0.0399389 0.0415742
2.71051e-20 0.0028125 0.052197 0.21487 -0.0461446 0.0508849
-2.71051e-20 -0.00281248 0.0521971 0.215054 -0.047065 0.0509644
-2.01948e-28 0.01 0.0513109 0.0962064 -0.0241825 0.0215889
1.06381e-21 -0.00999995 0.0513124 0.0959633 -0.0251878 0.0215409
0 0.0100497 0.0513109 0.0962047 -0.0241793 0.0215885
0 0.0084375 0.0516009 0.140364 -0.0310675 0.0323033
0 -0.00843746 0.0516017 0.140349 -0.0325499 0.0323097
0 0.0125 0.050787 0.0253211 -0.0149809 0.00566342
3.11268e-21 -0.0124999 0.0507913 0.0248889 -0.0147565 0.00559495
-2.71051e-20 0.0034375 0.052197 0.214835 -0.0460425 0.0508741
2.71051e-20 -0.00343748 0.0521971 0.215056 -0.0471649 0.0509644
-8.27181e-25 0.015625 0.049924 -7.81775e-08 -6.30883e-08 3.43135e-10
5.42101e-20 0.0134375 0.050559 -0.00174375 -0.0124902 0.000325924
0 -0.0134374 0.0505653 -0.00205323 -0.0116556 0.000320222
0 -0.0156251 0.049939 -8.8517e-08 -6.09372e-08 1.5962e-10
0 0.0115625 0.0510486 0.0533333 -0.017595 0.0111867
-1.23573e-20 0.014375 0.0503315 -0.00496671 -0.0092982 0.000174048
0 -0.0115624 0.0510514 0.0528063 -0.0179184 0.0110657
-4.31459e-21 0.006875 0.0518914 0.177235 -0.0382923 0.0414936
1.16419e-21 -0.00687498 0.0518917 0.177467 -0.0400093 0.0415712
-7.25437e-22 -0.0143749 0.0503405 -0.00520622 -0.0084598 0.000163538
0 0.0040625 0.052197 0.214799 -0.0459401 0.0508631
0 -0.00406248 0.0521971 0.215062 -0.0472642 0.0509633
-2.71051e-20 0.0090625 0.0516009 0.140337 -0.0310062 0.0322965
2.71051e-20 -0.00906246 0.0516018 0.140314 -0.0325911 0.0323032
1.77147e-20 0.010625 0.0513109 0.0961852 -0.0241426 0.0215839
1.21676e-20 -0.0106249 0.0513125 0.0959206 -0.025205 0.0215319
5.42101e-20 0.0046875 0.052197 0.214762 -0.0458377 0.0508522
-2.71051e-20 -0.00468748 0.0521971 0.215069 -0.047362 0.0509621
2.71051e-20 0.0153125 0.0501277 -0.00811005 -0.0061815 2.75669e-05
2.71051e-20 -0.0153125 0.0501397 -0.00826488 -0.00534703 1.20995e-05
3.07758e-21 0.0075 0.0518914 0.177201 -0.0382105 0.0414848
4.66699e-21 -0.00749998 0.0518918 0.177459 -0.040079 0.0415693
1.46242e-20 0.013125 0.050787 0.0253134 -0.0149741 0.00566114
1.70062e-20 -0.0131249 0.0507915 0.0248531 -0.014733 0.005588
0 0.0053125 0.052197 0.214725 -0.045735 0.0508412
0 -0.00531248 0.0521972 0.215079 -0.0474589 0.0509616
2.71051e-20 0.0140625 0.050559 -0.00174495 -0.0124944 0.000324763
-2.71051e-20 0.0121875 0.0510486 0.0533193 -0.0175758 0.0111834
0 -0.0140624 0.0505656 -0.00207448 -0.011617 0.000317733
2.71051e-20 -0.0121874 0.0510515 0.0527541 -0.0179101 0.0110537
8.27181e-25 0.01625 0.049924 -8.08545e-08 -6.5307e-08 3.62302e-10
-2.71051e-20 0.0096875 0.0516009 0.140308 -0.0309447 0.0322895
2.01518e-20 3.6118e-09 0.0525028 0.234422 -0.0512577 0.0555848
-2.71051e-20 -0.00968747 0.0516019 0.140277 -0.0326327 0.0322968
-1.95267e-20 -0.000624995 0.0525028 0.234451 -0.0513752 0.0555971
1.95619e-20 0.000625002 0.0525028 0.234389 -0.0511407 0.0555721
8.27181e-25 -0.01625 0.0499396 -8.85369e-08 -6.05573e-08 1.49949e-10
-2.17644e-20 -0.00124999 0.0525028 0.234477 -0.0514935 0.0556085
3.15052e-21 0.00125 0.0525028 0.234355 -0.0510239 0.0555592
-1.3915e-20 0.015 0.0503315 -0.00496568 -0.00930306 0.000174062
1.99712e-21 0.008125 0.0518914 0.177168 -0.0381286 0.0414759
3.79585e-22 -0.00812498 0.0518918 0.177441 -0.0401463 0.0415665
2.33306e-21 -0.0149999 0.0503409 -0.00521834 -0.00842391 0.000161607
0 0.01 0.0515681 0.132036 -0.0302531 0.0303895
4.1433e-21 0.01125 0.0513109 0.0961634 -0.0241023 0.0215787
-2.12662e-20 -0.0112499 0.0513126 0.0958782 -0.0252223 0.0215231
-5.42101e-20 0.0059375 0.052197 0.214687 -0.0456323 0.0508303
2.71051e-20 -0.00593749 0.0521972 0.215091 -0.0475555 0.050962
8.93092e-21 -0.00187499 0.0525028 0.234499 -0.0516123 0.0556184
6.97518e-22 0.001875 0.0525028 0.234318 -0.0509073 0.0555462
6.63466e-21 -0.00249999 0.0525028 0.234518 -0.0517307 0.0556258
1.68202e-20 0.0025 0.0525028 0.23428 -0.0507909 0.0555335
2.26288e-21 -0.00312499 0.0525028 0.234534 -0.0518482 0.0556309
-3.81974e-21 0.003125 0.0525028 0.23424 -0.0506745 0.055521
2.71051e-20 0.0159375 0.0501277 -0.00810795 -0.00618644 2.84045e-05
0 0.0065625 0.052197 0.214648 -0.0455294 0.0508194
2.71051e-20 -0.00656248 0.0521972 0.215103 -0.0476515 0.0509634
0 -0.0159374 0.0501402 -0.00826936 -0.0053137 1.22856e-05
-3.83016e-20 0.01375 0.050787 0.0253053 -0.0149664 0.0056588
2.37171e-20 -0.0137499 0.0507917 0.0248175 -0.014709 0.00558104
2.71051e-20 0.0103125 0.0516009 0.140279 -0.0308827 0.0322824
0 -0.0103125 0.0516019 0.140242 -0.0326739 0.0322907
-8.07794e-28 0.00875 0.0518914 0.177133 -0.0380466 0.0414671
-1.50569e-20 -0.00874998 0.0518918 0.177422 -0.0402128 0.0415645
2.71051e-20 0.0128125 0.0510486 0.0533049 -0.0175562 0.0111803
-2.71051e-20 -0.0128124 0.0510516 0.0527003 -0.0179009 0.0110417
-8.44968e-21 -0.00374999 0.0525028 0.234552 -0.0519648 0.0556344
2.39742e-21 0.00375 0.0525028 0.2342 -0.0505579 0.0555086
-2.71051e-20 0.0146875 0.050559 -0.00174614 -0.0124984 0.000324324
0 -0.0146874 0.0505658 -0.00209348 -0.011577 0.000314915
5.14471e-21 0.011875 0.0513109 0.0961414 -0.0240618 0.0215735
6.91208e-21 -0.0118749 0.0513127 0.0958355 -0.0252395 0.0215142
3.31363e-20 -0.00437499 0.0525028 0.23457 -0.0520805 0.055637
-2.33103e-20 0.004375 0.0525028 0.234159 -0.0504414 0.0554961
5.42101e-20 0.0071875 0.052197 0.214607 -0.0454266 0.0508085
2.71051e-20 -0.00718748 0.0521972 0.215111 -0.0477462 0.0509653
0 0.016875 0.049924 -8.15163e-08 -6.58993e-08 3.64242e-10
-4.05711e-21 0.015625 0.0503315 -0.00496479 -0.00930749 0.000174086
-1.75114e-20 -0.0156249 0.0503413 -0.00523078 -0.00838679 0.000159995
0 -0.016875 0.0499402 -8.85594e-08 -6.01721e-08 1.28711e-10
0 0.00932597 0.0518914 0.177101 -0.0379708 0.0414589
0 0.009375 0.0518914 0.177098 -0.0379644 0.0414582
-5.81114e-21 -0.00937498 0.0518918 0.177404 -0.0402798 0.0415635
-8.08397e-21 -0.00499999 0.0525028 0.23459 -0.0521952 0.0556395
-3.41884e-20 0.005 0.0525028 0.234117 -0.0503248 0.0554838
-5.04871e-29 0.00945271 0.0518914 0.177094 -0.0379541 0.0414571
-5.42101e-20 0.0109375 0.0516009 0.140249 -0.0308205 0.0322754
0 -0.0109375 0.051602 0.140208 -0.0327162 0.0322848
2.71051e-20 0.0078125 0.052197 0.214567 -0.0453234 0.0507976
0 -0.00781249 0.0521972 0.215115 -0.0478403 0.050968
-1.82249e-21 0.014375 0.050787 0.0252969 -0.0149581 0.00565658
4.91842e-21 -0.0143749 0.0507919 0.0247819 -0.0146843 0.00557382
-2.71051e-20 0.0134375 0.0510486 0.0532897 -0.0175358 0.0111767
2.71051e-20 -0.0134374 0.0510518 0.05265 -0.0178924 0.01103
0 0.0165625 0.0501277 -0.00810549 -0.00619092 2.8545e-05
-3.23117e-27 -0.00562499 0.0525028 0.234611 -0.0523093 0.0556426
-2.80914e-20 0.005625 0.0525028 0.234075 -0.0502082 0.0554716
0 -0.0165624 0.0501407 -0.00827335 -0.00527998 1.18961e-05
1.49441e-20 0.0125 0.0513109 0.0961192 -0.0240211 0.0215683
-1.0819e-21 -0.0124999 0.0513127 0.0957879 -0.0252554 0.0215043
2.71051e-20 -0.000312498 0.052814 0.253971 -0.0560047 0.060269
0 0.000312501 0.052814 0.253931 -0.0558722 0.0602543
0 0.000937501 0.052814 0.253891 -0.0557405 0.0602395
2.71051e-20 -0.000937496 0.052814 0.254008 -0.0561378 0.0602835
0 0.0153125 0.050559 -0.00174678 -0.0125024 0.000323831
2.71051e-20 -0.0153124 0.0505661 -0.00211252 -0.0115361 0.000312313
2.71051e-20 0.0015625 0.052814 0.253848 -0.0556089 0.0602247
2.71051e-20 -0.00156249 0.052814 0.254045 -0.0562721 0.0602974