# Moment      
# CofR        : (0.000000e+00 0.000000e+00 0.000000e+00)
#
# Time        	(total_x total_y total_z)	(pressure_x pressure_y pressure_z)	(viscous_x viscous_y viscous_z)
5001          	(-4.265579e-03 6.510211e-04 -8.166724e-03)	(-4.257292e-03 6.685223e-04 -8.202676e-03)	(-8.287909e-06 -1.750117e-05 3.595254e-05)
5002          	(-4.266614e-03 6.515413e-04 -8.178605e-03)	(-4.258304e-03 6.690189e-04 -8.214412e-03)	(-8.309391e-06 -1.747763e-05 3.580660e-05)
5003          	(-4.268261e-03 6.509930e-04 -8.193237e-03)	(-4.259929e-03 6.684411e-04 -8.228889e-03)	(-8.332510e-06 -1.744807e-05 3.565201e-05)
5004          	(-4.270542e-03 6.494748e-04 -8.209990e-03)	(-4.262186e-03 6.668991e-04 -8.245487e-03)	(-8.355611e-06 -1.742426e-05 3.549773e-05)
5005          	(-4.273179e-03 6.473635e-04 -8.227558e-03)	(-4.264802e-03 6.647633e-04 -8.262915e-03)	(-8.376594e-06 -1.739984e-05 3.535689e-05)
5006          	(-4.275849e-03 6.451315e-04 -8.244404e-03)	(-4.267456e-03 6.624988e-04 -8.279651e-03)	(-8.392926e-06 -1.736732e-05 3.524738e-05)
5007          	(-4.278417e-03 6.432395e-04 -8.259443e-03)	(-4.270014e-03 6.605680e-04 -8.294621e-03)	(-8.402994e-06 -1.732845e-05 3.517827e-05)
5008          	(-4.280499e-03 6.419777e-04 -8.270851e-03)	(-4.272092e-03 6.592774e-04 -8.305999e-03)	(-8.406781e-06 -1.729973e-05 3.514709e-05)
5009          	(-4.282220e-03 6.414671e-04 -8.279445e-03)	(-4.273815e-03 6.587571e-04 -8.314587e-03)	(-8.405722e-06 -1.729001e-05 3.514244e-05)
5010          	(-4.283648e-03 6.417605e-04 -8.285735e-03)	(-4.275246e-03 6.590618e-04 -8.320890e-03)	(-8.401294e-06 -1.730137e-05 3.515484e-05)
5011          	(-4.284642e-03 6.427258e-04 -8.289245e-03)	(-4.276247e-03 6.600512e-04 -8.324425e-03)	(-8.394574e-06 -1.732542e-05 3.518014e-05)
5012          	(-4.285148e-03 6.441789e-04 -8.289675e-03)	(-4.276761e-03 6.615421e-04 -8.324887e-03)	(-8.386657e-06 -1.736313e-05 3.521269e-05)
5013          	(-4.285134e-03 6.459397e-04 -8.286752e-03)	(-4.276755e-03 6.633481e-04 -8.322000e-03)	(-8.378661e-06 -1.740840e-05 3.524747e-05)
5014          	(-4.284610e-03 6.477237e-04 -8.280418e-03)	(-4.276238e-03 6.651798e-04 -8.315695e-03)	(-8.372394e-06 -1.745618e-05 3.527701e-05)
5015          	(-4.283628e-03 6.491988e-04 -8.270845e-03)	(-4.275259e-03 6.667013e-04 -8.306143e-03)	(-8.368854e-06 -1.750252e-05 3.529736e-05)
5016          	(-4.282283e-03 6.500402e-04 -8.258518e-03)	(-4.273916e-03 6.675928e-04 -8.293831e-03)	(-8.366892e-06 -1.755254e-05 3.531365e-05)
5017          	(-4.280714e-03 6.499497e-04 -8.244228e-03)	(-4.272349e-03 6.675652e-04 -8.279565e-03)	(-8.364265e-06 -1.761545e-05 3.533713e-05)
5018          	(-4.279038e-03 6.486592e-04 -8.228582e-03)	(-4.270679e-03 6.663548e-04 -8.263955e-03)	(-8.359855e-06 -1.769560e-05 3.537296e-05)
5019          	(-4.277455e-03 6.460039e-04 -8.213187e-03)	(-4.269103e-03 6.638065e-04 -8.248610e-03)	(-8.352291e-06 -1.780261e-05 3.542327e-05)
5020          	(-4.275770e-03 6.419631e-04 -8.199747e-03)	(-4.267431e-03 6.599156e-04 -8.235239e-03)	(-8.339389e-06 -1.795255e-05 3.549160e-05)
5021          	(-4.275231e-03 6.370787e-04 -8.191795e-03)	(-4.266910e-03 6.552306e-04 -8.227366e-03)	(-8.321116e-06 -1.815188e-05 3.557133e-05)
5022          	(-4.275214e-03 6.317761e-04 -8.188381e-03)	(-4.266916e-03 6.501795e-04 -8.224034e-03)	(-8.298731e-06 -1.840343e-05 3.565271e-05)
5023          	(-4.275656e-03 6.266656e-04 -8.189547e-03)	(-4.267384e-03 6.453735e-04 -8.225287e-03)	(-8.271365e-06 -1.870794e-05 3.574051e-05)
5024          	(-4.276377e-03 6.223676e-04 -8.194428e-03)	(-4.268138e-03 6.414153e-04 -8.230261e-03)	(-8.239463e-06 -1.904768e-05 3.583288e-05)
5025          	(-4.277217e-03 6.193151e-04 -8.202073e-03)	(-4.269012e-03 6.387120e-04 -8.237997e-03)	(-8.204627e-06 -1.939688e-05 3.592337e-05)
5026          	(-4.277994e-03 6.176635e-04 -8.211251e-03)	(-4.269824e-03 6.373979e-04 -8.247254e-03)	(-8.169493e-06 -1.973433e-05 3.600371e-05)
5027          	(-4.278653e-03 6.175377e-04 -8.221408e-03)	(-4.270517e-03 6.375807e-04 -8.257476e-03)	(-8.136309e-06 -2.004299e-05 3.606855e-05)
5028          	(-4.279188e-03 6.187725e-04 -8.232312e-03)	(-4.271081e-03 6.390858e-04 -8.268431e-03)	(-8.106386e-06 -2.031329e-05 3.611890e-05)
5029          	(-4.279684e-03 6.209602e-04 -8.243951e-03)	(-4.271603e-03 6.415072e-04 -8.280104e-03)	(-8.080759e-06 -2.054702e-05 3.615305e-05)
5030          	(-4.280307e-03 6.234963e-04 -8.256317e-03)	(-4.272247e-03 6.442455e-04 -8.292483e-03)	(-8.060658e-06 -2.074916e-05 3.616593e-05)
5031          	(-4.281018e-03 6.258898e-04 -8.268634e-03)	(-4.272970e-03 6.467989e-04 -8.304785e-03)	(-8.047438e-06 -2.090907e-05 3.615119e-05)
5032          	(-4.281740e-03 6.279096e-04 -8.280250e-03)	(-4.273699e-03 6.489155e-04 -8.316360e-03)	(-8.040825e-06 -2.100588e-05 3.611092e-05)
5033          	(-4.282375e-03 6.294309e-04 -8.290200e-03)	(-4.274337e-03 6.504809e-04 -8.326256e-03)	(-8.038489e-06 -2.105004e-05 3.605590e-05)
5034          	(-4.282831e-03 6.304289e-04 -8.297715e-03)	(-4.274792e-03 6.514860e-04 -8.333710e-03)	(-8.038779e-06 -2.105719e-05 3.599483e-05)
5035          	(-4.282879e-03 6.311803e-04 -8.300704e-03)	(-4.274839e-03 6.521975e-04 -8.336640e-03)	(-8.040830e-06 -2.101718e-05 3.593591e-05)
5036          	(-4.282692e-03 6.317788e-04 -8.301059e-03)	(-4.274649e-03 6.527234e-04 -8.336948e-03)	(-8.042834e-06 -2.094461e-05 3.588922e-05)
5037          	(-4.282253e-03 6.322434e-04 -8.298922e-03)	(-4.274210e-03 6.530946e-04 -8.334784e-03)	(-8.043378e-06 -2.085125e-05 3.586152e-05)
5038          	(-4.281580e-03 6.324930e-04 -8.294648e-03)	(-4.273539e-03 6.532372e-04 -8.330502e-03)	(-8.041825e-06 -2.074418e-05 3.585436e-05)
5039          	(-4.280702e-03 6.324861e-04 -8.288644e-03)	(-4.272662e-03 6.531105e-04 -8.324501e-03)	(-8.039607e-06 -2.062443e-05 3.585662e-05)
5040          	(-4.279553e-03 6.322682e-04 -8.281188e-03)	(-4.271514e-03 6.527525e-04 -8.317047e-03)	(-8.038516e-06 -2.048429e-05 3.585876e-05)
5041          	(-4.277970e-03 6.320981e-04 -8.271732e-03)	(-4.269932e-03 6.524425e-04 -8.307594e-03)	(-8.037976e-06 -2.034436e-05 3.586225e-05)
5042          	(-4.276055e-03 6.323563e-04 -8.260521e-03)	(-4.268018e-03 6.525817e-04 -8.296392e-03)	(-8.037215e-06 -2.022534e-05 3.587037e-05)
5043          	(-4.273812e-03 6.333152e-04 -8.247576e-03)	(-4.265775e-03 6.534423e-04 -8.283457e-03)	(-8.036844e-06 -2.012716e-05 3.588076e-05)
5044          	(-4.271125e-03 6.349724e-04 -8.232795e-03)	(-4.263088e-03 6.550217e-04 -8.268690e-03)	(-8.036802e-06 -2.004927e-05 3.589518e-05)
5045          	(-4.268160e-03 6.371364e-04 -8.217106e-03)	(-4.260123e-03 6.571321e-04 -8.253020e-03)	(-8.036949e-06 -1.999569e-05 3.591416e-05)
5046          	(-4.265319e-03 6.392744e-04 -8.201752e-03)	(-4.257282e-03 6.592469e-04 -8.237685e-03)	(-8.037424e-06 -1.997249e-05 3.593351e-05)
5047          	(-4.262335e-03 6.411699e-04 -8.188431e-03)	(-4.254297e-03 6.611487e-04 -8.224382e-03)	(-8.038260e-06 -1.997888e-05 3.595084e-05)
5048          	(-4.260028e-03 6.422954e-04 -8.177614e-03)	(-4.251990e-03 6.623204e-04 -8.213584e-03)	(-8.038276e-06 -2.002507e-05 3.596949e-05)
5049          	(-4.259359e-03 6.423052e-04 -8.171209e-03)	(-4.251323e-03 6.624342e-04 -8.207200e-03)	(-8.036225e-06 -2.012897e-05 3.599170e-05)
5050          	(-4.259273e-03 6.417562e-04 -8.167999e-03)	(-4.251242e-03 6.620638e-04 -8.204016e-03)	(-8.031559e-06 -2.030761e-05 3.601741e-05)
5051          	(-4.259715e-03 6.410797e-04 -8.167864e-03)	(-4.251690e-03 6.616320e-04 -8.203906e-03)	(-8.024945e-06 -2.055232e-05 3.604183e-05)
5052          	(-4.260569e-03 6.407686e-04 -8.170302e-03)	(-4.252551e-03 6.615996e-04 -8.206355e-03)	(-8.018118e-06 -2.083109e-05 3.605344e-05)
5053          	(-4.261665e-03 6.411513e-04 -8.174274e-03)	(-4.253653e-03 6.622724e-04 -8.210322e-03)	(-8.012152e-06 -2.112106e-05 3.604800e-05)
5054          	(-4.262930e-03 6.424771e-04 -8.179231e-03)	(-4.254922e-03 6.638647e-04 -8.215252e-03)	(-8.008526e-06 -2.138753e-05 3.602115e-05)
5055          	(-4.265130e-03 6.449978e-04 -8.185623e-03)	(-4.257121e-03 6.666022e-04 -8.221594e-03)	(-8.008952e-06 -2.160443e-05 3.597126e-05)
5056          	(-4.267545e-03 6.480586e-04 -8.192730e-03)	(-4.259532e-03 6.698249e-04 -8.228635e-03)	(-8.013042e-06 -2.176629e-05 3.590551e-05)
5057          	(-4.270204e-03 6.512028e-04 -8.200740e-03)	(-4.262184e-03 6.730798e-04 -8.236570e-03)	(-8.019933e-06 -2.187694e-05 3.583024e-05)
5058          	(-4.273560e-03 6.539551e-04 -8.209752e-03)	(-4.265531e-03 6.758921e-04 -8.245501e-03)	(-8.029088e-06 -2.193705e-05 3.574844e-05)
5059          	(-4.277105e-03 6.559165e-04 -8.220151e-03)	(-4.269065e-03 6.778800e-04 -8.255816e-03)	(-8.039588e-06 -2.196349e-05 3.566476e-05)
5060          	(-4.280732e-03 6.566489e-04 -8.232080e-03)	(-4.272682e-03 6.786426e-04 -8.267665e-03)	(-8.049525e-06 -2.199370e-05 3.558557e-05)
5061          	(-4.284255e-03 6.561469e-04 -8.244997e-03)	(-4.276196e-03 6.781842e-04 -8.280507e-03)	(-8.058765e-06 -2.203739e-05 3.550924e-05)
5062          	(-4.286566e-03 6.544488e-04 -8.256870e-03)	(-4.278499e-03 6.765324e-04 -8.292304e-03)	(-8.067820e-06 -2.208362e-05 3.543339e-05)
5063          	(-4.288495e-03 6.519287e-04 -8.267759e-03)	(-4.280419e-03 6.740610e-04 -8.303119e-03)	(-8.076585e-06 -2.213236e-05 3.536087e-05)
5064          	(-4.290082e-03 6.490159e-04 -8.277529e-03)	(-4.281997e-03 6.712054e-04 -8.312826e-03)	(-8.084402e-06 -2.218944e-05 3.529726e-05)
5065          	(-4.291203e-03 6.460078e-04 -8.285673e-03)	(-4.283112e-03 6.682582e-04 -8.320917e-03)	(-8.091202e-06 -2.225036e-05 3.524397e-05)
5066          	(-4.291777e-03 6.431430e-04 -8.291878e-03)	(-4.283679e-03 6.654312e-04 -8.327076e-03)	(-8.098214e-06 -2.228820e-05 3.519724e-05)
5067          	(-4.291792e-03 6.407102e-04 -8.296152e-03)	(-4.283687e-03 6.630097e-04 -8.331308e-03)	(-8.105591e-06 -2.229955e-05 3.515520e-05)
5068          	(-4.291119e-03 6.388516e-04 -8.297909e-03)	(-4.283004e-03 6.611318e-04 -8.333023e-03)	(-8.114443e-06 -2.228018e-05 3.511350e-05)
5069          	(-4.289741e-03 6.376882e-04 -8.296869e-03)	(-4.281616e-03 6.599124e-04 -8.331943e-03)	(-8.125195e-06 -2.222426e-05 3.507397e-05)
5070          	(-4.287667e-03 6.373371e-04 -8.292793e-03)	(-4.279529e-03 6.594705e-04 -8.327832e-03)	(-8.137885e-06 -2.213338e-05 3.503924e-05)
5071          	(-4.284959e-03 6.377897e-04 -8.285664e-03)	(-4.276807e-03 6.598043e-04 -8.320679e-03)	(-8.151841e-06 -2.201454e-05 3.501506e-05)
5072          	(-4.280752e-03 6.386166e-04 -8.275081e-03)	(-4.272587e-03 6.604975e-04 -8.310089e-03)	(-8.165447e-06 -2.188086e-05 3.500764e-05)
5073          	(-4.276227e-03 6.395460e-04 -8.262622e-03)	(-4.268048e-03 6.612766e-04 -8.297636e-03)	(-8.179571e-06 -2.173054e-05 3.501394e-05)
5074          	(-4.271551e-03 6.401496e-04 -8.249562e-03)	(-4.263357e-03 6.617250e-04 -8.284590e-03)	(-8.194435e-06 -2.157543e-05 3.502816e-05)
5075          	(-4.267219e-03 6.399371e-04 -8.237340e-03)	(-4.259010e-03 6.613681e-04 -8.272390e-03)	(-8.208601e-06 -2.143102e-05 3.504961e-05)
5076          	(-4.263440e-03 6.386478e-04 -8.227264e-03)	(-4.255219e-03 6.599479e-04 -8.262339e-03)	(-8.221105e-06 -2.130019e-05 3.507491e-05)
5077          	(-4.260591e-03 6.362503e-04 -8.219995e-03)	(-4.252359e-03 6.574427e-04 -8.255095e-03)	(-8.231496e-06 -2.119237e-05 3.509981e-05)
5078          	(-4.259622e-03 6.331330e-04 -8.216404e-03)	(-4.251385e-03 6.542608e-04 -8.251535e-03)	(-8.237762e-06 -2.112785e-05 3.513071e-05)
5079          	(-4.259439e-03 6.296733e-04 -8.215829e-03)	(-4.251201e-03 6.507912e-04 -8.251007e-03)	(-8.237695e-06 -2.111796e-05 3.517769e-05)
5080          	(-4.259798e-03 6.264272e-04 -8.217605e-03)	(-4.251566e-03 6.475715e-04 -8.252847e-03)	(-8.231270e-06 -2.114433e-05 3.524269e-05)
5081          	(-4.260537e-03 6.240418e-04 -8.221025e-03)	(-4.252317e-03 6.452333e-04 -8.256343e-03)	(-8.220123e-06 -2.119147e-05 3.531877e-05)
5082          	(-4.261527e-03 6.230224e-04 -8.225524e-03)	(-4.253322e-03 6.442675e-04 -8.260927e-03)	(-8.205488e-06 -2.124511e-05 3.540242e-05)
5083          	(-4.262708e-03 6.235402e-04 -8.230817e-03)	(-4.254518e-03 6.448246e-04 -8.266300e-03)	(-8.190106e-06 -2.128448e-05 3.548254e-05)
5084          	(-4.264082e-03 6.254041e-04 -8.236866e-03)	(-4.255906e-03 6.467126e-04 -8.272416e-03)	(-8.176175e-06 -2.130848e-05 3.555001e-05)
5085          	(-4.265757e-03 6.282552e-04 -8.243995e-03)	(-4.257594e-03 6.495825e-04 -8.279606e-03)	(-8.162726e-06 -2.132727e-05 3.561106e-05)
5086          	(-4.268001e-03 6.315694e-04 -8.252491e-03)	(-4.259852e-03 6.529074e-04 -8.288159e-03)	(-8.149547e-06 -2.133795e-05 3.566805e-05)
5087          	(-4.270686e-03 6.348144e-04 -8.261180e-03)	(-4.262548e-03 6.561504e-04 -8.296896e-03)	(-8.137592e-06 -2.133601e-05 3.571669e-05)
5088          	(-4.273899e-03 6.376493e-04 -8.268973e-03)	(-4.265771e-03 6.589672e-04 -8.304729e-03)	(-8.127481e-06 -2.131787e-05 3.575614e-05)
5089          	(-4.277162e-03 6.400361e-04 -8.275469e-03)	(-4.269043e-03 6.613153e-04 -8.311256e-03)	(-8.119069e-06 -2.127921e-05 3.578748e-05)
5090          	(-4.280099e-03 6.418961e-04 -8.280200e-03)	(-4.271987e-03 6.631228e-04 -8.316013e-03)	(-8.112063e-06 -2.122665e-05 3.581311e-05)
5091          	(-4.282720e-03 6.430679e-04 -8.282800e-03)	(-4.274614e-03 6.642195e-04 -8.318637e-03)	(-8.106528e-06 -2.115161e-05 3.583670e-05)
5092          	(-4.283874e-03 6.434778e-04 -8.283184e-03)	(-4.275771e-03 6.645225e-04 -8.319039e-03)	(-8.103228e-06 -2.104468e-05 3.585538e-05)
5093          	(-4.286412e-03 6.401627e-04 -8.281300e-03)	(-4.278310e-03 6.610957e-04 -8.317174e-03)	(-8.101298e-06 -2.093300e-05 3.587486e-05)
5094          	(-4.286654e-03 6.394520e-04 -8.277844e-03)	(-4.278550e-03 6.602370e-04 -8.313718e-03)	(-8.104097e-06 -2.078504e-05 3.587466e-05)
5095          	(-4.286510e-03 6.379630e-04 -8.273005e-03)	(-4.278401e-03 6.585944e-04 -8.308880e-03)	(-8.108732e-06 -2.063138e-05 3.587558e-05)
5096          	(-4.285939e-03 6.358137e-04 -8.267132e-03)	(-4.277826e-03 6.563079e-04 -8.303020e-03)	(-8.112685e-06 -2.049424e-05 3.588744e-05)
5097          	(-4.284270e-03 6.320427e-04 -8.252400e-03)	(-4.276154e-03 6.524267e-04 -8.288317e-03)	(-8.116600e-06 -2.038394e-05 3.591718e-05)
5098          	(-4.283129e-03 6.302764e-04 -8.245579e-03)	(-4.275010e-03 6.505757e-04 -8.281541e-03)	(-8.118903e-06 -2.029927e-05 3.596262e-05)
5099          	(-4.281705e-03 6.289896e-04 -8.238267e-03)	(-4.273587e-03 6.492375e-04 -8.274292e-03)	(-8.118470e-06 -2.024780e-05 3.602551e-05)
5100          	(-4.280047e-03 6.282224e-04 -8.230451e-03)	(-4.271930e-03 6.484515e-04 -8.266548e-03)	(-8.116392e-06 -2.022907e-05 3.609748e-05)
5101          	(-4.278126e-03 6.278497e-04 -8.221240e-03)	(-4.270011e-03 6.480892e-04 -8.257405e-03)	(-8.114750e-06 -2.023953e-05 3.616482e-05)
5102          	(-4.276033e-03 6.277428e-04 -8.211656e-03)	(-4.267918e-03 6.480197e-04 -8.247873e-03)	(-8.114931e-06 -2.027693e-05 3.621694e-05)
5103          	(-4.273880e-03 6.277175e-04 -8.202583e-03)	(-4.265764e-03 6.480559e-04 -8.238839e-03)	(-8.116063e-06 -2.033845e-05 3.625680e-05)
5104          	(-4.271893e-03 6.275236e-04 -8.194857e-03)	(-4.263776e-03 6.479410e-04 -8.231148e-03)	(-8.116959e-06 -2.041732e-05 3.629046e-05)
5105          	(-4.270010e-03 6.271778e-04 -8.188934e-03)	(-4.261894e-03 6.476961e-04 -8.225261e-03)	(-8.116094e-06 -2.051829e-05 3.632717e-05)
5106          	(-4.268430e-03 6.267783e-04 -8.184789e-03)	(-4.260316e-03 6.474180e-04 -8.221153e-03)	(-8.113926e-06 -2.063967e-05 3.636439e-05)
5107          	(-4.267881e-03 6.266112e-04 -8.182540e-03)	(-4.259768e-03 6.473727e-04 -8.218927e-03)	(-8.112887e-06 -2.076152e-05 3.638644e-05)
5108          	(-4.266584e-03 6.287041e-04 -8.180556e-03)	(-4.258467e-03 6.495558e-04 -8.216929e-03)	(-8.116971e-06 -2.085165e-05 3.637297e-05)
5109          	(-4.266310e-03 6.301377e-04 -8.179175e-03)	(-4.258185e-03 6.510650e-04 -8.215499e-03)	(-8.124944e-06 -2.092727e-05 3.632398e-05)
5110          	(-4.266159e-03 6.332097e-04 -8.181049e-03)	(-4.258019e-03 6.541298e-04 -8.217286e-03)	(-8.139440e-06 -2.092007e-05 3.623713e-05)
5111          	(-4.266222e-03 6.362171e-04 -8.180625e-03)	(-4.258062e-03 6.570871e-04 -8.216732e-03)	(-8.160287e-06 -2.087007e-05 3.610656e-05)
5112          	(-4.266614e-03 6.396022e-04 -8.181725e-03)	(-4.258428e-03 6.603607e-04 -8.217677e-03)	(-8.186399e-06 -2.075852e-05 3.595133e-05)
5113          	(-4.267492e-03 6.428320e-04 -8.185416e-03)	(-4.259281e-03 6.634926e-04 -8.221219e-03)	(-8.210776e-06 -2.066055e-05 3.580298e-05)
5114          	(-4.269076e-03 6.455207e-04 -8.193535e-03)	(-4.260846e-03 6.661440e-04 -8.229210e-03)	(-8.230202e-06 -2.062323e-05 3.567534e-05)
5115          	(-4.271284e-03 6.473106e-04 -8.205365e-03)	(-4.263039e-03 6.679670e-04 -8.240930e-03)	(-8.244649e-06 -2.065635e-05 3.556510e-05)
5116          	(-4.274052e-03 6.481874e-04 -8.220645e-03)	(-4.265798e-03 6.689372e-04 -8.256120e-03)	(-8.253723e-06 -2.074983e-05 3.547495e-05)
5117          	(-4.277037e-03 6.482269e-04 -8.237547e-03)	(-4.268779e-03 6.691081e-04 -8.272954e-03)	(-8.257945e-06 -2.088116e-05 3.540661e-05)
5118          	(-4.280023e-03 6.475079e-04 -8.254765e-03)	(-4.271764e-03 6.685437e-04 -8.290125e-03)	(-8.258269e-06 -2.103579e-05 3.535964e-05)
5119          	(-4.282623e-03 6.461002e-04 -8.270093e-03)	(-4.274368e-03 6.673056e-04 -8.305423e-03)	(-8.255605e-06 -2.120537e-05 3.533057e-05)
5120          	(-4.284956e-03 6.442349e-04 -8.284385e-03)	(-4.276704e-03 6.656161e-04 -8.319696e-03)	(-8.251535e-06 -2.138116e-05 3.531082e-05)
5121          	(-4.286716e-03 6.420778e-04 -8.295749e-03)	(-4.278468e-03 6.636220e-04 -8.331041e-03)	(-8.247727e-06 -2.154424e-05 3.529218e-05)
5122          	(-4.287907e-03 6.399730e-04 -8.304164e-03)	(-4.279661e-03 6.616472e-04 -8.339431e-03)	(-8.246016e-06 -2.167422e-05 3.526768e-05)
5123          	(-4.288401e-03 6.381523e-04 -8.309425e-03)	(-4.280153e-03 6.599126e-04 -8.344656e-03)	(-8.247981e-06 -2.176030e-05 3.523100e-05)
5124          	(-4.288120e-03 6.369025e-04 -8.311183e-03)	(-4.279866e-03 6.587002e-04 -8.346366e-03)	(-8.254319e-06 -2.179770e-05 3.518255e-05)
5125          	(-4.287041e-03 6.363616e-04 -8.309266e-03)	(-4.278776e-03 6.581393e-04 -8.344393e-03)	(-8.265099e-06 -2.177772e-05 3.512758e-05)
5126          	(-4.285192e-03 6.365701e-04 -8.303726e-03)	(-4.276912e-03 6.582748e-04 -8.338797e-03)	(-8.280399e-06 -2.170468e-05 3.507040e-05)
5127          	(-4.282658e-03 6.374150e-04 -8.294839e-03)	(-4.274359e-03 6.589999e-04 -8.329856e-03)	(-8.299258e-06 -2.158487e-05 3.501709e-05)
5128          	(-4.279582e-03 6.386439e-04 -8.283170e-03)	(-4.271262e-03 6.600618e-04 -8.318144e-03)	(-8.320560e-06 -2.141785e-05 3.497399e-05)
5129          	(-4.275195e-03 6.393966e-04 -8.268483e-03)	(-4.266852e-03 6.606130e-04 -8.303427e-03)	(-8.343019e-06 -2.121640e-05 3.494369e-05)
5130          	(-4.270376e-03 6.395934e-04 -8.253497e-03)	(-4.262011e-03 6.605852e-04 -8.288425e-03)	(-8.364913e-06 -2.099185e-05 3.492856e-05)
5131          	(-4.265850e-03 6.388256e-04 -8.239515e-03)	(-4.257466e-03 6.595756e-04 -8.274449e-03)	(-8.383677e-06 -2.075002e-05 3.493449e-05)
5132          	(-4.261996e-03 6.369538e-04 -8.227778e-03)	(-4.253597e-03 6.574543e-04 -8.262733e-03)	(-8.399034e-06 -2.050051e-05 3.495554e-05)
5133          	(-4.259038e-03 6.340810e-04 -8.218651e-03)	(-4.250627e-03 6.543390e-04 -8.253635e-03)	(-8.410864e-06 -2.025797e-05 3.498381e-05)
5134          	(-4.257904e-03 6.308356e-04 -8.213803e-03)	(-4.249486e-03 6.508660e-04 -8.248826e-03)	(-8.418166e-06 -2.003034e-05 3.502283e-05)
5135          	(-4.257406e-03 6.271947e-04 -8.211602e-03)	(-4.248987e-03 6.470097e-04 -8.246681e-03)	(-8.419785e-06 -1.981501e-05 3.507909e-05)
5136          	(-4.257494e-03 6.237029e-04 -8.211797e-03)	(-4.249078e-03 6.433147e-04 -8.246951e-03)	(-8.415653e-06 -1.961172e-05 3.515466e-05)
5137          	(-4.258035e-03 6.208473e-04 -8.213946e-03)	(-4.249630e-03 6.402713e-04 -8.249198e-03)	(-8.405481e-06 -1.942398e-05 3.525227e-05)
5138          	(-4.259017e-03 6.189432e-04 -8.218045e-03)	(-4.250626e-03 6.382002e-04 -8.253413e-03)	(-8.390691e-06 -1.925696e-05 3.536767e-05)
5139          	(-4.260457e-03 6.180806e-04 -8.224139e-03)	(-4.252083e-03 6.371919e-04 -8.259629e-03)	(-8.373732e-06 -1.911129e-05 3.549040e-05)
5140          	(-4.262458e-03 6.181701e-04 -8.232395e-03)	(-4.254102e-03 6.371477e-04 -8.268007e-03)	(-8.356281e-06 -1.897765e-05 3.561229e-05)
5141          	(-4.265583e-03 6.190476e-04 -8.242933e-03)	(-4.257244e-03 6.378991e-04 -8.278661e-03)	(-8.339117e-06 -1.885145e-05 3.572802e-05)
5142          	(-4.269455e-03 6.204542e-04 -8.253847e-03)	(-4.261131e-03 6.391882e-04 -8.289676e-03)	(-8.323548e-06 -1.873400e-05 3.582955e-05)
5143          	(-4.273770e-03 6.222527e-04 -8.263811e-03)	(-4.265460e-03 6.408847e-04 -8.299725e-03)	(-8.310162e-06 -1.863197e-05 3.591379e-05)
5144          	(-4.277998e-03 6.243263e-04 -8.271838e-03)	(-4.269699e-03 6.428696e-04 -8.307819e-03)	(-8.299192e-06 -1.854326e-05 3.598039e-05)
5145          	(-4.281942e-03 6.264840e-04 -8.277252e-03)	(-4.273652e-03 6.449388e-04 -8.313287e-03)	(-8.290102e-06 -1.845482e-05 3.603531e-05)
5146          	(-4.285279e-03 6.284554e-04 -8.279906e-03)	(-4.276997e-03 6.468076e-04 -8.315992e-03)	(-8.282509e-06 -1.835222e-05 3.608562e-05)
5147          	(-4.288093e-03 6.299507e-04 -8.279904e-03)	(-4.279817e-03 6.481814e-04 -8.316039e-03)	(-8.276224e-06 -1.823071e-05 3.613512e-05)
5148          	(-4.292878e-03 6.292899e-04 -8.277750e-03)	(-4.284608e-03 6.474115e-04 -8.313942e-03)	(-8.269263e-06 -1.812168e-05 3.619174e-05)
5149          	(-4.294205e-03 6.296722e-04 -8.273334e-03)	(-4.285942e-03 6.476528e-04 -8.309584e-03)	(-8.263882e-06 -1.798068e-05 3.624977e-05)
5150          	(-4.294379e-03 6.289782e-04 -8.268014e-03)	(-4.286121e-03 6.468186e-04 -8.304330e-03)	(-8.258558e-06 -1.784046e-05 3.631567e-05)
5151          	(-4.294139e-03 6.272862e-04 -8.261719e-03)	(-4.285887e-03 6.449979e-04 -8.298113e-03)	(-8.252082e-06 -1.771172e-05 3.639377e-05)
5152          	(-4.293453e-03 6.248519e-04 -8.254664e-03)	(-4.285208e-03 6.424629e-04 -8.291145e-03)	(-8.244660e-06 -1.761094e-05 3.648117e-05)
5153          	(-4.290623e-03 6.201178e-04 -8.238132e-03)	(-4.282383e-03 6.376710e-04 -8.274702e-03)	(-8.239765e-06 -1.755319e-05 3.657021e-05)
5154          	(-4.289073e-03 6.181116e-04 -8.230734e-03)	(-4.280839e-03 6.356379e-04 -8.267400e-03)	(-8.233566e-06 -1.752632e-05 3.666569e-05)
5155          	(-4.287062e-03 6.163984e-04 -8.223624e-03)	(-4.278834e-03 6.339359e-04 -8.260376e-03)	(-8.227766e-06 -1.753753e-05 3.675217e-05)
5156          	(-4.284531e-03 6.151857e-04 -8.216874e-03)	(-4.276306e-03 6.327656e-04 -8.253693e-03)	(-8.224341e-06 -1.757986e-05 3.681918e-05)
5157          	(-4.281238e-03 6.147800e-04 -8.210847e-03)	(-4.273013e-03 6.324218e-04 -8.247703e-03)	(-8.225074e-06 -1.764176e-05 3.685507e-05)
5158          	(-4.277706e-03 6.150447e-04 -8.205853e-03)	(-4.269476e-03 6.327570e-04 -8.242713e-03)	(-8.230042e-06 -1.771231e-05 3.685991e-05)
5159          	(-4.274161e-03 6.159064e-04 -8.202422e-03)	(-4.265922e-03 6.336866e-04 -8.239256e-03)	(-8.239052e-06 -1.778021e-05 3.683405e-05)
5160          	(-4.267611e-03 6.179351e-04 -8.198151e-03)	(-4.259355e-03 6.357536e-04 -8.234912e-03)	(-8.256286e-06 -1.781849e-05 3.676107e-05)
5161          	(-4.264878e-03 6.197864e-04 -8.198090e-03)	(-4.256603e-03 6.376519e-04 -8.234752e-03)	(-8.274763e-06 -1.786553e-05 3.666178e-05)
5162          	(-4.263370e-03 6.223950e-04 -8.198738e-03)	(-4.255073e-03 6.402764e-04 -8.235264e-03)	(-8.297898e-06 -1.788139e-05 3.652679e-05)
5163          	(-4.262028e-03 6.260061e-04 -8.199484e-03)	(-4.253705e-03 6.438788e-04 -8.235858e-03)	(-8.322643e-06 -1.787273e-05 3.637326e-05)
5164          	(-4.260119e-03 6.309578e-04 -8.204701e-03)	(-4.251770e-03 6.487903e-04 -8.240908e-03)	(-8.348542e-06 -1.783249e-05 3.620710e-05)
5165          	(-4.259405e-03 6.357892e-04 -8.205919e-03)	(-4.251029e-03 6.535716e-04 -8.241933e-03)	(-8.376192e-06 -1.778236e-05 3.601366e-05)
5166          	(-4.259327e-03 6.404879e-04 -8.209071e-03)	(-4.250919e-03 6.581620e-04 -8.244869e-03)	(-8.408715e-06 -1.767413e-05 3.579738e-05)
5167          	(-4.260108e-03 6.444490e-04 -8.216043e-03)	(-4.251668e-03 6.620380e-04 -8.251623e-03)	(-8.439592e-06 -1.758902e-05 3.558082e-05)
5168          	(-4.261887e-03 6.471993e-04 -8.227003e-03)	(-4.253422e-03 6.647548e-04 -8.262385e-03)	(-8.465141e-06 -1.755557e-05 3.538213e-05)
5169          	(-4.264653e-03 6.483349e-04 -8.242266e-03)	(-4.256169e-03 6.659123e-04 -8.277471e-03)	(-8.484226e-06 -1.757741e-05 3.520489e-05)
5170          	(-4.268183e-03 6.478109e-04 -8.260100e-03)	(-4.259687e-03 6.654567e-04 -8.295152e-03)	(-8.496588e-06 -1.764585e-05 3.505205e-05)
5171          	(-4.272163e-03 6.458675e-04 -8.278809e-03)	(-4.263661e-03 6.636174e-04 -8.313736e-03)	(-8.502079e-06 -1.774981e-05 3.492622e-05)
5172          	(-4.276271e-03 6.429313e-04 -8.296835e-03)	(-4.267771e-03 6.608113e-04 -8.331669e-03)	(-8.500002e-06 -1.788009e-05 3.483418e-05)
5173          	(-4.280239e-03 6.395019e-04 -8.313116e-03)	(-4.271749e-03 6.575411e-04 -8.347898e-03)	(-8.489302e-06 -1.803914e-05 3.478222e-05)
5174          	(-4.283847e-03 6.360992e-04 -8.326954e-03)	(-4.275375e-03 6.543237e-04 -8.361717e-03)	(-8.471587e-06 -1.822450e-05 3.476264e-05)
5175          	(-4.286828e-03 6.331966e-04 -8.337428e-03)	(-4.278378e-03 6.516198e-04 -8.372186e-03)	(-8.450210e-06 -1.842320e-05 3.475787e-05)
5176          	(-4.289124e-03 6.313201e-04 -8.344794e-03)	(-4.280695e-03 6.499391e-04 -8.379544e-03)	(-8.428825e-06 -1.861900e-05 3.474935e-05)
5177          	(-4.290547e-03 6.307394e-04 -8.348361e-03)	(-4.282138e-03 6.495370e-04 -8.383096e-03)	(-8.408890e-06 -1.879767e-05 3.473510e-05)
5178          	(-4.291046e-03 6.314762e-04 -8.347930e-03)	(-4.282656e-03 6.504257e-04 -8.382654e-03)	(-8.390609e-06 -1.894957e-05 3.472478e-05)
5179          	(-4.290565e-03 6.333920e-04 -8.343136e-03)	(-4.282190e-03 6.524474e-04 -8.377862e-03)	(-8.374645e-06 -1.905542e-05 3.472629e-05)
5180          	(-4.289134e-03 6.361014e-04 -8.334018e-03)	(-4.280772e-03 6.551992e-04 -8.368759e-03)	(-8.362170e-06 -1.909782e-05 3.474158e-05)
5181          	(-4.286878e-03 6.390460e-04 -8.321077e-03)	(-4.278525e-03 6.581200e-04 -8.355851e-03)	(-8.352949e-06 -1.907395e-05 3.477389e-05)
5182          	(-4.284015e-03 6.414999e-04 -8.305371e-03)	(-4.275669e-03 6.604914e-04 -8.340197e-03)	(-8.346095e-06 -1.899151e-05 3.482519e-05)
5183          	(-4.280849e-03 6.427045e-04 -8.288475e-03)	(-4.272508e-03 6.615611e-04 -8.323369e-03)	(-8.341176e-06 -1.885661e-05 3.489434e-05)
5184          	(-4.277269e-03 6.415962e-04 -8.270752e-03)	(-4.268931e-03 6.602787e-04 -8.305730e-03)	(-8.337751e-06 -1.868250e-05 3.497733e-05)
5185          	(-4.273906e-03 6.385896e-04 -8.255474e-03)	(-4.265572e-03 6.570780e-04 -8.290546e-03)	(-8.334259e-06 -1.848839e-05 3.507213e-05)
5186          	(-4.271076e-03 6.339343e-04 -8.243948e-03)	(-4.262747e-03 6.522371e-04 -8.279127e-03)	(-8.328674e-06 -1.830283e-05 3.517959e-05)
5187          	(-4.269319e-03 6.285186e-04 -8.237922e-03)	(-4.260998e-03 6.466563e-04 -8.273217e-03)	(-8.320797e-06 -1.813767e-05 3.529487e-05)
5188          	(-4.268207e-03 6.225100e-04 -8.236179e-03)	(-4.259896e-03 6.405062e-04 -8.271594e-03)	(-8.310536e-06 -1.799617e-05 3.541498e-05)
5189          	(-4.267570e-03 6.165776e-04 -8.237830e-03)	(-4.259273e-03 6.344512e-04 -8.273373e-03)	(-8.296968e-06 -1.787360e-05 3.554329e-05)
5190          	(-4.267285e-03 6.113661e-04 -8.241987e-03)	(-4.259005e-03 6.291262e-04 -8.277670e-03)	(-8.279754e-06 -1.776014e-05 3.568357e-05)
5191          	(-4.267251e-03 6.073657e-04 -8.247843e-03)	(-4.258991e-03 6.250135e-04 -8.283675e-03)	(-8.260408e-06 -1.764771e-05 3.583168e-05)
5192          	(-4.267391e-03 6.048857e-04 -8.254697e-03)	(-4.259151e-03 6.224297e-04 -8.290678e-03)	(-8.240478e-06 -1.754398e-05 3.598083e-05)
5193          	(-4.267665e-03 6.040698e-04 -8.261983e-03)	(-4.259441e-03 6.215042e-04 -8.298100e-03)	(-8.223191e-06 -1.743437e-05 3.611683e-05)
5194          	(-4.268068e-03 6.047760e-04 -8.269261e-03)	(-4.259858e-03 6.220854e-04 -8.305496e-03)	(-8.210026e-06 -1.730942e-05 3.623489e-05)
5195          	(-4.268609e-03 6.066735e-04 -8.276106e-03)	(-4.260408e-03 6.238395e-04 -8.312441e-03)	(-8.201163e-06 -1.716594e-05 3.633439e-05)
5196          	(-4.269282e-03 6.092830e-04 -8.282009e-03)	(-4.261084e-03 6.262891e-04 -8.318419e-03)	(-8.197319e-06 -1.700614e-05 3.640941e-05)
5197          	(-4.270051e-03 6.121733e-04 -8.286395e-03)	(-4.261853e-03 6.290092e-04 -8.322855e-03)	(-8.198108e-06 -1.683592e-05 3.645933e-05)
5198          	(-4.270871e-03 6.149884e-04 -8.288814e-03)	(-4.262669e-03 6.316466e-04 -8.325306e-03)	(-8.202198e-06 -1.665813e-05 3.649188e-05)
5199          	(-4.271708e-03 6.174712e-04 -8.289105e-03)	(-4.263500e-03 6.339397e-04 -8.325622e-03)	(-8.207819e-06 -1.646847e-05 3.651679e-05)
5200          	(-4.273467e-03 6.197686e-04 -8.287438e-03)	(-4.265253e-03 6.360340e-04 -8.323978e-03)	(-8.213968e-06 -1.626547e-05 3.653999e-05)
5201          	(-4.275403e-03 6.214135e-04 -8.283787e-03)	(-4.267184e-03 6.374652e-04 -8.320355e-03)	(-8.218910e-06 -1.605176e-05 3.656858e-05)
5202          	(-4.277360e-03 6.222795e-04 -8.278970e-03)	(-4.269139e-03 6.381113e-04 -8.315577e-03)	(-8.221401e-06 -1.583180e-05 3.660761e-05)
5203          	(-4.279070e-03 6.223978e-04 -8.273472e-03)	(-4.270850e-03 6.380110e-04 -8.310132e-03)	(-8.220629e-06 -1.561323e-05 3.665983e-05)
5204          	(-4.280299e-03 6.219727e-04 -8.267216e-03)	(-4.272082e-03 6.373774e-04 -8.303941e-03)	(-8.216743e-06 -1.540473e-05 3.672430e-05)
5205          	(-4.280818e-03 6.212795e-04 -8.260210e-03)	(-4.272607e-03 6.364913e-04 -8.297007e-03)	(-8.210496e-06 -1.521183e-05 3.679658e-05)
5206          	(-4.280594e-03 6.200009e-04 -8.253138e-03)	(-4.272391e-03 6.350464e-04 -8.290011e-03)	(-8.202561e-06 -1.504548e-05 3.687296e-05)
5207          	(-4.279868e-03 6.190446e-04 -8.245947e-03)	(-4.271674e-03 6.339550e-04 -8.282895e-03)	(-8.194228e-06 -1.491034e-05 3.694861e-05)