# Wall shear stress
# Time        	patch         	min           	max           
500           	cylinder	(-3.862903e-03 -4.300167e-03 -2.989503e-03)	(1.200759e-03 3.671932e-03 4.808572e-03)
1000          	cylinder	(-3.931908e-03 -4.291169e-03 -4.068767e-03)	(1.316159e-03 3.447616e-03 5.047189e-03)
