# p  POINT_DATA 5809
# x  y  z  p
-1.57772e-30 -0.237 8.31749e-08 -0.0321043
-1.09046e-25 0.237 8.64572e-08 -0.0317511
0 0.237 0.000550924 -0.0317461
0 -0.237 0.000550925 -0.0321009
0 0.237 0.0011232 -0.0317382
0 -0.237 0.0011232 -0.0320952
0 0.237 0.00172954 -0.0317342
0 -0.237 0.00172954 -0.0320913
0 -0.237 0.00236831 -0.0320926
0 0.237 0.00236831 -0.0317364
-8.27181e-25 -0.237 0.00302578 -0.032104
0 0.237 0.00302578 -0.0317454
0 0.237 0.00361376 -0.0317549
0 -0.237 0.00366636 -0.0321204
0 0.237 0.00368597 -0.0317561
0 -0.237 0.00368597 -0.0321209
-1.03398e-25 0.237 0.00384697 -0.0317581
0 0.237 0.00433887 -0.0317644
1.03398e-25 -0.237 0.00433887 -0.0321356
-4.1359e-25 0.237 0.00498192 -0.0317722
0 -0.237 0.00498192 -0.0321531
0 0.237 0.0056169 -0.0317875
0 -0.237 0.0056169 -0.0321794
-2.06795e-25 0.237 0.0060091 -0.0318037
2.06795e-25 -0.237 0.00624674 -0.032208
0 0.237 0.00624674 -0.0318135
-2.06795e-25 -0.237 0.00687382 -0.0322313
0 0.237 0.00687382 -0.0318422
3.87741e-26 -0.237078 0.00368896 -0.0321213
-4.1359e-25 0.237 0.00749962 -0.0318652
0 -0.237 0.00749962 -0.0322467
0 -0.237 0.00812489 -0.0322542
-4.1359e-25 0.237 0.0081249 -0.0318803
-4.1359e-25 0.237 0.00874998 -0.0318873
0 -0.237 0.00874998 -0.0322519
0 0.237 0.009375 -0.0318841
2.06795e-25 -0.237 0.009375 -0.0322371
0 -0.237 0.0096071 -0.0322261
-4.1359e-25 0.237 0.01 -0.0318666
-4.1359e-25 -0.237 0.01 -0.0322074
4.1359e-25 -0.237 0.010625 -0.0321614
8.27181e-25 0.237 0.010625 -0.0318321
0 0.237223 0.00369457 -0.0317572
-2.71051e-20 0.237263 0.000279273 -0.0317511
2.71051e-20 -0.237263 0.000279185 -0.0321043
0 -0.237 0.01125 -0.0320999
0 0.237 0.01125 -0.0317788
0 0.237267 0.000847159 -0.0317411
0 -0.237267 0.000847159 -0.0320974
0 -0.237269 0.00144351 -0.0320929
0 0.237269 0.00144351 -0.0317352
-2.71051e-20 -0.23727 0.00206936 -0.0320897
0 0.23727 0.00206936 -0.0317331
2.71051e-20 -0.23727 0.00271568 -0.0320955
0 0.23727 0.00271568 -0.0317397
-2.71051e-20 0.23727 0.00336939 -0.0317511
0 -0.23727 0.00336939 -0.0321124
0 -0.237 0.011875 -0.0320286
0 0.237 0.011875 -0.0317071
5.42101e-20 0.237271 0.00402047 -0.031761
-2.71051e-20 -0.237271 0.00402047 -0.0321293
0 0.237 0.0121518 -0.0316696
-2.71051e-20 0.237271 0.00466435 -0.0317677
5.42101e-20 -0.237271 0.00466435 -0.0321419
0 -0.237 0.0125 -0.0319568
-4.1359e-25 0.237 0.0125 -0.0316224
2.71051e-20 0.237272 0.00530117 -0.0317766
-2.71051e-20 -0.237272 0.00530117 -0.0321643
2.58494e-26 -0.237306 0.00434507 -0.0321347
0 0.237272 0.0059324 -0.0317984
0 -0.237272 0.0059324 -0.0321943
2.71051e-20 0.237272 0.00656043 -0.0318287
-2.71051e-20 -0.237272 0.00656043 -0.0322217
-4.1359e-25 0.237 0.013125 -0.0315347
0 -0.237 0.013125 -0.031894
2.71051e-20 0.237272 0.00718674 -0.0318557
-5.42101e-20 -0.237272 0.00718674 -0.032241
0 -0.237 0.0134875 -0.0318656
-4.1359e-25 0.237 0.01375 -0.0314538
2.06795e-25 -0.237 0.01375 -0.031845
0 0.237272 0.00781225 -0.0318747
0 -0.237272 0.00781225 -0.0322525
0 -0.237272 0.00843743 -0.0322559
0 0.237272 0.00843743 -0.0318859
0 -0.237371 0.00498524 -0.0321484
0 0.237 0.014375 -0.0313872
0 -0.237 0.014375 -0.0318099
-2.71051e-20 0.237272 0.00906248 -0.0318888
2.71051e-20 -0.237272 0.00906248 -0.032248
0 0.237 0.0146945 -0.0313621
-2.71051e-20 -0.237272 0.0096875 -0.0322261
-2.71051e-20 0.237272 0.0096875 -0.0318795
4.1359e-25 0.237 0.015 -0.031338
2.06795e-25 -0.237 0.015 -0.0317869
0 -0.237427 0.0056183 -0.0321722
-2.71051e-20 -0.237272 0.0103125 -0.0321886
-2.71051e-20 0.237272 0.0103125 -0.0318538
0 0.237 0.015625 -0.0313045
0 -0.237 0.015625 -0.0317729
0 0.23752 8.32931e-08 -0.0317517
0 -0.237521 8.4701e-08 -0.0321043
-1.03398e-25 0.237523 0.00017771 -0.0317502
2.71051e-20 -0.237272 0.0109375 -0.0321342
-2.71051e-20 0.237272 0.0109375 -0.0318104
0 -0.237529 0.000533903 -0.0321016
1.30587e-20 0.237529 0.000562809 -0.0317471
0 -0.237529 0.000562807 -0.0321014
0 0.237533 0.00115011 -0.0317397
0 -0.237533 0.00115011 -0.0320967
0 0.237538 0.00176909 -0.0317367
0 -0.237538 0.00176909 -0.0320939
0 -0.237469 0.00624719 -0.0322033
4.1359e-25 0.23754 0.0024097 -0.0317401
-1.63962e-20 -0.23754 0.0024097 -0.0320964
2.71051e-20 -0.237272 0.0115625 -0.0320656
0 0.237272 0.0115625 -0.0317473
0 0.237 0.01625 -0.0312846
0 -0.237 0.01625 -0.0317654
0 -0.237541 0.00305869 -0.0321083
2.06795e-25 0.237541 0.00305869 -0.0317493
-1.29247e-26 -0.23756 0.000563223 -0.0321016
0 -0.237542 0.00370687 -0.0321236
0 0.237542 0.00370687 -0.0317588
-5.16988e-26 -0.237543 0.00434987 -0.0321339
0 0.237543 0.00434987 -0.0317645
0 -0.237272 0.0121875 -0.0319915
-8.13152e-20 0.237272 0.0121875 -0.0316668
-1.33882e-20 0.237543 0.00498678 -0.0317687
0 -0.237543 0.00498678 -0.0321462
0 -0.237499 0.0068739 -0.032233
4.1359e-25 0.237 0.016875 -0.0312751
0 -0.237 0.016875 -0.0317625
6.46235e-27 0.237526 0.00624724 -0.0318041
-9.19024e-21 0.237544 0.00561869 -0.0317797
0 -0.237544 0.00561869 -0.0321703
-2.71051e-20 -0.237272 0.0128125 -0.0319221
0 0.237272 0.0128125 -0.031578
2.00312e-20 -0.237544 0.00624726 -0.0322025
6.46235e-27 0.237544 0.00624726 -0.0318038
4.1359e-25 0.237 0.0172755 -0.0312742
-6.46235e-27 0.237544 0.00645559 -0.0318145
-1.29247e-26 -0.237524 0.00749961 -0.0322565
-2.58494e-26 -0.237544 0.00687391 -0.0322332
0 0.237544 0.00687391 -0.0318359
0 -0.237 0.0175 -0.0317629
-2.06795e-25 0.237 0.0175 -0.0312737
2.71051e-20 -0.237272 0.0134375 -0.0318659
0 0.237272 0.0134375 -0.0314914
-2.58494e-26 0.237544 0.00749961 -0.0318668
0 -0.237544 0.00749961 -0.0322569
1.03398e-25 0.237 0.0177366 -0.0312753
0 -0.237544 0.00796935 -0.0322682
0 -0.237497 0.00937499 -0.0322608
1.18271e-21 0.237544 0.00812487 -0.0318911
0 -0.237544 0.00812487 -0.0322719
5.42101e-20 -0.237272 0.0140625 -0.0318242
0 0.237272 0.0140625 -0.0314161
4.1359e-25 -0.237 0.018125 -0.0317657
0 0.237 0.018125 -0.0312781
1.93025e-20 0.237544 0.00874996 -0.0319067
1.88007e-20 -0.237544 0.00874996 -0.0322751
0 -0.237544 0.00896088 -0.032271
0 -0.237272 0.0146875 -0.0317957
-2.71051e-20 0.237272 0.0146875 -0.0313584
-2.12714e-20 0.237544 0.00937499 -0.0319099
-2.58494e-26 -0.237544 0.00937499 -0.032263
0 -0.237 0.01875 -0.03177
-4.1359e-25 0.237 0.01875 -0.0312866
-2.14989e-20 0.237544 0.01 -0.0318951
0 -0.237544 0.01 -0.0322329
6.46235e-27 -0.23762 0.00812488 -0.0322821
0 -0.237272 0.0153125 -0.0317782
-2.71051e-20 0.237272 0.0153125 -0.0313176
0 -0.237544 0.010625 -0.0321842
4.63769e-21 0.237544 0.010625 -0.0318592
0 -0.237 0.019375 -0.0317754
4.1359e-25 0.237 0.019375 -0.0312977
-2.71051e-20 0.237799 0.000284465 -0.0317523
2.71051e-20 -0.237799 0.000284553 -0.0321043
-2.71051e-20 -0.237272 0.0159375 -0.0317676
-2.71051e-20 0.237272 0.0159375 -0.0312914
0 -0.237544 0.01125 -0.0321196
4.93062e-21 0.237544 0.01125 -0.0318023
-2.71051e-20 0.237811 0.000863452 -0.0317436
-5.42101e-20 -0.237811 0.000863452 -0.0320997
0 -0.23782 0.00147122 -0.0320969
0 0.23782 0.00147122 -0.031739
2.71051e-20 -0.237826 0.00210431 -0.0320963
0 0.237826 0.00210431 -0.0317397
2.06795e-25 -0.237544 0.011875 -0.0320455
0 0.237544 0.011875 -0.0317272
0 -0.237 0.02 -0.0317816
0 0.237 0.02 -0.0313104
0 0.237544 0.0119635 -0.0317149
-5.42101e-20 0.237829 0.00274869 -0.0317479
0 -0.237829 0.00274869 -0.0321043
-5.42101e-20 -0.237272 0.0165625 -0.0317632
-2.71051e-20 0.237272 0.0165625 -0.0312777
0 -0.23783 0.00339421 -0.0321211
5.42101e-20 0.23783 0.00339421 -0.0317584
0 0.237831 0.00403604 -0.0317645
2.71051e-20 -0.237831 0.00403604 -0.0321313
0 -0.237544 0.0125 -0.0319707
2.06795e-25 0.237544 0.0125 -0.0316399
0 0.237832 0.00467279 -0.0317647
0 -0.237832 0.00467279 -0.0321329
0 -0.237485 0.01375 -0.0318531
-2.71051e-20 0.237833 0.00530504 -0.0317654
-2.71051e-20 -0.237833 0.00530504 -0.0321454
-6.46235e-27 0.237793 0.00687412 -0.0318469
-2.71051e-20 -0.237272 0.0171875 -0.0317618
0 0.237272 0.0171875 -0.0312724
0 -0.237 0.020625 -0.0317884
0 0.237 0.020625 -0.0313237
0 0.237544 0.013125 -0.0315495
0 -0.237544 0.013125 -0.0319051
-5.42101e-20 0.237833 0.00593404 -0.0317782
0 -0.237833 0.00593404 -0.0321767
2.71051e-20 0.237834 0.00656112 -0.0318093
-5.42101e-20 -0.237834 0.00656112 -0.032217
5.16988e-26 -0.237922 0.00116186 -0.0320994
2.71051e-20 -0.237272 0.0178125 -0.0317641
2.71051e-20 0.237272 0.0178125 -0.0312749
6.46235e-27 -0.23778 0.00874997 -0.0323062
-2.06795e-25 0.237544 0.01375 -0.0314659
0 -0.237544 0.01375 -0.0318541
2.71051e-20 0.237834 0.00718692 -0.0318498
0 -0.237834 0.00718692 -0.032253
4.1359e-25 -0.237 0.02125 -0.0317955
-4.1359e-25 0.237 0.02125 -0.0313369
0 0.237834 0.00781229 -0.0318872
0 -0.237834 0.00781229 -0.0322815
0 -0.237529 0.014375 -0.0318172
0 0.237544 0.014375 -0.0313972
-6.46235e-27 -0.237544 0.014375 -0.0318174
0 0.237834 0.00843743 -0.0319172
2.71051e-20 -0.237834 0.00843743 -0.0322984
0 -0.237513 0.015 -0.0317929
2.71051e-20 -0.237272 0.0184375 -0.0317673
5.42101e-20 0.237272 0.0184375 -0.0312812
5.16988e-26 0.237544 0.0147612 -0.0313659
0 -0.237834 0.00906248 -0.0322988
2.71051e-20 0.237834 0.00906248 -0.0319359
0 0.237 0.021875 -0.0313497
0 -0.237 0.021875 -0.0318028
0 -0.237497 0.015625 -0.0317781
2.06893e-21 0.237544 0.015 -0.0313466
-1.29247e-26 -0.237544 0.015 -0.0317933
2.71051e-20 -0.237834 0.0096875 -0.0322799
2.71051e-20 0.237834 0.0096875 -0.0319363
2.71051e-20 -0.237272 0.0190625 -0.0317728
5.42101e-20 0.237272 0.0190625 -0.031292
0 -0.237497 0.01625 -0.0317701
-2.59562e-20 0.237544 0.015625 -0.031312
-2.58494e-26 -0.237544 0.015625 -0.0317785
5.42101e-20 -0.237834 0.0103125 -0.0322379
-2.71051e-20 0.237834 0.0103125 -0.0319119
0 -0.23806 2.90145e-09 -0.0321065
2.06795e-25 0.23806 -5.5536e-11 -0.0317555
0 0.237 0.0225 -0.0313614
0 -0.237 0.0225 -0.0318099
-2.06795e-25 0.238068 0.000191009 -0.0317539
0 0.237431 0.0175 -0.0312782
0 0.238083 0.000570196 -0.0317507
0 -0.238083 0.000570195 -0.032104
5.42101e-20 -0.237834 0.0109375 -0.0321767
2.71051e-20 0.237834 0.0109375 -0.0318619
-5.42101e-20 -0.237272 0.0196875 -0.0317781
5.42101e-20 0.237272 0.0196875 -0.0313034
0 0.237981 0.00749973 -0.0319068
-3.21423e-20 0.237544 0.01625 -0.0312913
0 -0.237544 0.01625 -0.0317705
-4.1359e-25 0.238097 0.00116715 -0.0317442
0 -0.238097 0.00116715 -0.0321005
0 -0.237516 0.016875 -0.031767
0 -0.237834 0.0115625 -0.0321026
-5.42101e-20 0.237834 0.0115625 -0.0317906
0 -0.238109 0.00179591 -0.0321001
2.06795e-25 0.238109 0.00179591 -0.0317445
0 0.237 0.023125 -0.0313717
0 -0.237 0.023125 -0.0318166
0 0.238117 0.00244027 -0.0317511
0 -0.238117 0.00244027 -0.0321046
5.42101e-20 -0.237272 0.0203125 -0.0317852
2.71051e-20 0.237272 0.0203125 -0.0313173
0 0.23812 0.00308541 -0.0317606
-5.16988e-26 -0.23812 0.00308541 -0.0321164
9.28334e-21 0.237544 0.016875 -0.0312811
0 -0.237544 0.016875 -0.0317673
-2.71051e-20 -0.237834 0.0121875 -0.0320229
-2.71051e-20 0.237834 0.0121875 -0.031705
0 -0.238121 0.00372595 -0.0321277
0 0.238121 0.00372595 -0.0317667
0 -0.238122 0.00436151 -0.0321321
2.58494e-26 0.238122 0.00436151 -0.031766
-6.46235e-27 -0.237544 0.0172731 -0.0317674
0 -0.238122 0.00499302 -0.0321431
0 0.238122 0.00499302 -0.0317639
-6.46235e-27 0.237881 0.011875 -0.0317578
0 -0.237834 0.0128125 -0.0319469
0 0.237834 0.0128125 -0.0316105
0 0.237 0.02375 -0.0313801
8.27181e-25 -0.237 0.02375 -0.0318228
2.39433e-21 0.237544 0.0175 -0.0312794
-6.46235e-27 -0.237544 0.0175 -0.0317675
0 -0.238123 0.00562167 -0.0321767
-1.48616e-20 0.238123 0.00562167 -0.0317737
-2.71051e-20 -0.237272 0.0209375 -0.0317916
-5.42101e-20 0.237272 0.0209375 -0.03133
0 -0.238123 0.00624853 -0.03223
0 0.238123 0.00624853 -0.031807
-2.71051e-20 -0.237834 0.0134375 -0.0318858
5.42101e-20 0.237834 0.0134375 -0.0315187
0 -0.238124 0.0068744 -0.0322855
-1.29247e-26 0.238124 0.0068744 -0.0318615
-2.19107e-20 0.237544 0.018125 -0.0312836
1.06337e-20 -0.237544 0.018125 -0.0317702
0 -0.238124 0.00749977 -0.0323277
1.29247e-26 0.238124 0.00749977 -0.0319199
0 -0.237834 0.0140625 -0.0318409
2.71051e-20 0.237834 0.0140625 -0.031438
0 0.237272 0.0215625 -0.0313438
-2.71051e-20 -0.237272 0.0215625 -0.0317995
8.27181e-25 0.237 0.024375 -0.0313863
-8.27181e-25 -0.237 0.024375 -0.0318282
0 0.238253 -3.33791e-10 -0.0317578
3.23117e-27 0.238124 0.00805007 -0.0319606
0 -0.238124 0.00812492 -0.0323504
-1.61559e-27 0.238124 0.00812492 -0.0319661
-9.09899e-21 -0.237544 0.01875 -0.0317746
-1.30372e-20 0.237544 0.01875 -0.0312922
-1.29247e-26 -0.238124 0.00874998 -0.0323515
0 0.238124 0.00874998 -0.0319917
2.71051e-20 -0.237834 0.0146875 -0.0318092
2.71051e-20 0.237834 0.0146875 -0.0313768
0 0.237272 0.0221875 -0.0313555
-2.71051e-20 -0.237272 0.0221875 -0.031806
0 -0.238124 0.00937499 -0.0323325
1.29906e-20 0.238124 0.00937499 -0.0319935
-8.27181e-25 0.237 0.025 -0.03139
0 -0.237 0.025 -0.0318324
5.42101e-20 -0.237834 0.0153125 -0.0317905
5.42101e-20 0.237834 0.0153125 -0.0313339
3.56757e-20 -0.237544 0.019375 -0.0317801
2.80914e-20 0.237544 0.019375 -0.0313034
0 -0.238124 0.01 -0.0322951
5.2839e-21 0.238124 0.01 -0.0319701
0 -0.238124 0.010625 -0.0322407
-2.27215e-20 0.238124 0.010625 -0.0319242
2.71051e-20 -0.238362 0.000287929 -0.0321088
5.42101e-20 0.238362 0.000287929 -0.0317587
-2.71051e-20 0.237272 0.0228125 -0.0313673
0 -0.237272 0.0228125 -0.0318137
2.71051e-20 -0.237834 0.0159375 -0.0317781
-2.71051e-20 0.237834 0.0159375 -0.0313053
0 -0.237 0.025625 -0.0318353
8.27181e-25 0.237 0.025625 -0.031391
1.29247e-26 -0.23774 0.0175 -0.0317736
6.48282e-21 -0.237544 0.02 -0.0317865
1.75214e-20 0.237544 0.02 -0.0313163
-1.03398e-25 -0.238124 0.01125 -0.0321719
-3.20249e-20 0.238124 0.01125 -0.0318597
-5.42101e-20 0.238389 0.000874094 -0.031748
-2.71051e-20 -0.238389 0.000874094 -0.0321031
1.29247e-26 0.238124 0.0115928 -0.031816
0 0.237834 0.0165625 -0.0312908
-2.71051e-20 -0.237834 0.0165625 -0.0317734
2.42338e-27 0.238273 0.00812493 -0.0319952
-2.71051e-20 -0.238408 0.00148916 -0.0321026
2.71051e-20 0.238408 0.00148916 -0.0317464
0 -0.238124 0.011875 -0.0320932
1.29247e-26 0.238124 0.011875 -0.0317799
2.58494e-26 -0.238409 0.00244824 -0.0321058
-5.42101e-20 0.237272 0.0234375 -0.0313761
-5.42101e-20 -0.237272 0.0234375 -0.0318196
2.71051e-20 -0.238422 0.00212682 -0.0321048
-5.42101e-20 0.238422 0.00212682 -0.0317531
1.76907e-20 -0.237544 0.020625 -0.0317935
2.19445e-20 0.237544 0.020625 -0.0313301
2.71051e-20 -0.238429 0.00277088 -0.0321131
-2.71051e-20 0.238429 0.00277088 -0.0317639
-8.27181e-25 -0.237 0.02625 -0.0318364
-8.27181e-25 0.237 0.02625 -0.0313889
-1.03398e-25 -0.238124 0.0125 -0.032012
-5.16988e-26 0.238124 0.0125 -0.0316883
-2.71051e-20 0.237834 0.0171875 -0.0312837
0 -0.237834 0.0171875 -0.0317709
-5.42101e-20 0.238431 0.0034119 -0.0317722
0 -0.238431 0.0034119 -0.0321272
2.71051e-20 0.238431 0.00404796 -0.0317718
0 -0.238431 0.00404796 -0.0321312
-2.71051e-20 0.238431 0.00467997 -0.0317629
2.71051e-20 -0.238431 0.00467997 -0.0321328
0 0.238124 0.013125 -0.0315929
-5.16988e-26 -0.238124 0.013125 -0.0319398
2.71051e-20 0.237272 0.0240625 -0.0313841
2.71051e-20 -0.237272 0.0240625 -0.031826
-2.71051e-20 0.238432 0.00530874 -0.0317626
0 -0.238432 0.00530874 -0.0321613
-6.66894e-21 -0.237544 0.02125 -0.0318008
1.17276e-20 0.237544 0.02125 -0.031344
2.71051e-20 -0.237834 0.0178125 -0.0317735
0 0.237834 0.0178125 -0.0312866
0 0.238432 0.00593583 -0.0317885
-2.71051e-20 -0.238432 0.00593583 -0.032224
0 -0.237 0.026875 -0.0318356
8.27181e-25 0.237 0.026875 -0.0313838
0 0.238124 0.01375 -0.0315035
2.58494e-26 -0.238124 0.01375 -0.0318845
5.42101e-20 0.238432 0.00656171 -0.0318524
0 -0.238432 0.00656171 -0.0323034
2.71051e-20 0.238432 0.00718722 -0.0319356
0 -0.238432 0.00718722 -0.0323702
2.71051e-20 -0.237834 0.0184375 -0.0317762
-2.71051e-20 0.237834 0.0184375 -0.031292
1.34926e-20 0.237544 0.021875 -0.0313573
1.01331e-20 -0.237544 0.021875 -0.0318082
0 0.237272 0.0246875 -0.0313886
-2.71051e-20 -0.237272 0.0246875 -0.0318303
-2.58494e-26 0.238124 0.014375 -0.0314295
2.58494e-26 -0.238124 0.014375 -0.0318442
2.71051e-20 0.238432 0.00781239 -0.032009
-2.71051e-20 -0.238432 0.00781239 -0.0324082
-5.42101e-20 -0.238432 0.00843746 -0.0324158
2.71051e-20 0.238432 0.00843746 -0.0320535
1.29247e-26 0.238124 0.0148898 -0.0313855
0 -0.237 0.0275 -0.0318325
8.27181e-25 0.237 0.0275 -0.0313754
-2.58494e-26 -0.238124 0.015 -0.0318177
-6.46235e-27 0.238124 0.015 -0.0313761
5.42101e-20 0.237834 0.0190625 -0.0313036
-2.71051e-20 -0.237834 0.0190625 -0.0317824
0 0.238432 0.00906249 -0.032063
2.71051e-20 -0.238432 0.00906249 -0.032395
-8.20356e-22 0.237544 0.0225 -0.0313695
-1.36934e-20 -0.237544 0.0225 -0.0318154
-5.42101e-20 0.237272 0.0253125 -0.0313914
-2.71051e-20 -0.237272 0.0253125 -0.0318345
2.71051e-20 -0.238432 0.0096875 -0.0323578
8.13152e-20 0.238432 0.0096875 -0.0320411
0 -0.238631 5.27908e-09 -0.0321121
0 0.238631 3.43194e-09 -0.0317625
-1.00723e-20 0.238124 0.015625 -0.0313392
-2.58494e-26 -0.238124 0.015625 -0.0318008
0 0.237834 0.0196875 -0.0313147
-5.42101e-20 -0.237834 0.0196875 -0.0317874
2.71051e-20 -0.238432 0.0103125 -0.0323062
0 0.238432 0.0103125 -0.0319929
8.27181e-25 -0.237 0.028125 -0.031827
4.1359e-25 0.237 0.028125 -0.0313638
1.89503e-20 0.237544 0.023125 -0.0313803
-7.67996e-21 -0.237544 0.023125 -0.0318224
0 0.238672 0.000575691 -0.031757
1.10619e-20 -0.238672 0.000575689 -0.0321088
3.95688e-20 0.238124 0.01625 -0.0313168
2.58494e-26 -0.238124 0.01625 -0.0317909
-1.29247e-26 -0.238659 0.003098 -0.0321158
-2.71051e-20 -0.238432 0.0109375 -0.0322434
0 0.238432 0.0109375 -0.0319318
0 0.237272 0.0259375 -0.0313905
2.71051e-20 -0.237272 0.0259375 -0.0318361
5.42101e-20 0.237834 0.0203125 -0.03133
2.71051e-20 -0.237834 0.0203125 -0.0317955
-8.27181e-25 0.238701 0.00117836 -0.0317524
-1.82985e-20 -0.238701 0.00117836 -0.0321056
2.71051e-20 -0.238432 0.0115625 -0.032166
0 0.238433 0.0115625 -0.0318559
1.82992e-20 0.238124 0.016875 -0.031305
0 -0.238124 0.016875 -0.0317862
1.7585e-20 0.237544 0.02375 -0.0313891
6.84864e-21 -0.237544 0.02375 -0.0318287
0 0.238723 0.00181179 -0.0317574
3.85178e-20 -0.238723 0.00181179 -0.0321053
0 -0.237 0.02875 -0.0318187
-4.1359e-25 0.237 0.02875 -0.0313489
2.71051e-20 -0.238432 0.0121875 -0.0320824
-5.42101e-20 0.238433 0.0121875 -0.0317693
0 0.238737 0.00245721 -0.0317669
9.87602e-21 -0.238737 0.00245721 -0.0321072
2.71051e-20 0.237834 0.0209375 -0.0313433
5.42101e-20 -0.237834 0.0209375 -0.0318018
-2.71051e-20 0.237272 0.0265625 -0.0313873
-5.42101e-20 -0.237272 0.0265625 -0.0318367
0 0.238742 0.00309995 -0.0317748
3.97351e-20 -0.238742 0.00309995 -0.0321157
0 -0.238742 0.00338081 -0.0321201
3.41861e-21 0.238124 0.0175 -0.0313022
0 -0.238124 0.0175 -0.0317854
-2.58494e-26 0.238742 0.00373666 -0.0317764
0 -0.238742 0.00373666 -0.0321257
0 -0.238432 0.0128125 -0.0319968
-2.71051e-20 0.238433 0.0128125 -0.0316694
0 -0.238741 0.0043684 -0.0321371
0 0.238741 0.0043684 -0.0317718
-5.59836e-21 0.237544 0.024375 -0.0313959
4.69839e-22 -0.237544 0.024375 -0.0318343
0 -0.238741 0.00499695 -0.0321733
6.46235e-27 0.238741 0.00499695 -0.0317733
6.46235e-27 -0.238124 0.0179648 -0.031787
2.58494e-26 -0.238741 0.00562368 -0.0322436
0 0.238741 0.00562368 -0.0318032
0 0.237834 0.0215625 -0.031359
0 -0.237834 0.0215625 -0.0318105
2.71051e-20 -0.238432 0.0134375 -0.0319307
0 0.238433 0.0134375 -0.0315738
2.62596e-21 0.238124 0.018125 -0.0313058
0 -0.238124 0.018125 -0.0317876
0 -0.237 0.029375 -0.0318076
-2.06795e-25 0.237 0.029375 -0.0313308
0 -0.238741 0.00624945 -0.032328
6.46235e-27 0.238741 0.00624945 -0.0318728
2.71051e-20 -0.237272 0.0271875 -0.0318345
0 0.237272 0.0271875 -0.0313803
2.58494e-26 -0.238741 0.00687478 -0.0323985
1.29247e-26 0.238741 0.00687478 -0.0319623
-2.71051e-20 -0.238433 0.0140625 -0.0318817
-2.71051e-20 0.238433 0.0140625 -0.0314843
-1.25851e-20 0.237544 0.025 -0.0314001
-2.71824e-20 -0.237544 0.025 -0.0318388
0 -0.238741 0.00749992 -0.0324374
6.46235e-27 0.238741 0.00749992 -0.0320396
1.35859e-21 -0.238124 0.01875 -0.0317917
7.84839e-22 0.238124 0.01875 -0.0313139
8.07794e-28 0.238701 0.00874999 -0.0320925
-2.71051e-20 0.237834 0.0221875 -0.0313711
0 -0.237834 0.0221875 -0.031817
0 -0.238741 0.00812497 -0.0324465
3.23117e-27 0.238741 0.00812497 -0.0320869
2.71051e-20 0.238432 0.0146875 -0.0314198
-2.71051e-20 -0.238432 0.0146875 -0.0318461
0 -0.237 0.03 -0.0317934
-2.06795e-25 0.237 0.03 -0.0313097
0 0.237272 0.0278125 -0.0313705
-2.71051e-20 -0.237272 0.0278125 -0.0318305
-1.29247e-26 -0.238741 0.00874999 -0.0324301
-8.07794e-28 0.238741 0.00874999 -0.0320995
-8.07794e-28 0.238741 0.00894905 -0.0320944
-1.83295e-20 -0.238124 0.019375 -0.0317971
3.09077e-20 0.238124 0.019375 -0.0313249
0 0.237 0.0301963 -0.0313023
3.19958e-20 0.237544 0.025625 -0.0314016
1.36733e-20 -0.237544 0.025625 -0.031842
2.71051e-20 -0.238432 0.0153125 -0.0318259
0 0.238433 0.0153125 -0.0313747
0 -0.238741 0.009375 -0.0323971
0 0.238741 0.009375 -0.0320834
0 0.237834 0.0228125 -0.0313843
0 -0.237834 0.0228125 -0.0318252
1.29247e-26 -0.238918 0.00373619 -0.0321216
1.29247e-26 -0.238741 0.01 -0.032353
2.73027e-20 0.238741 0.01 -0.0320435
0 0.238956 0.000288814 -0.0317662
2.71051e-20 -0.238956 0.000288814 -0.0321154
-1.91757e-20 -0.238124 0.02 -0.0318034
1.43873e-20 0.238124 0.02 -0.0313378
-2.71051e-20 -0.238432 0.0159375 -0.0318095
-2.71051e-20 0.238433 0.0159375 -0.0313434
-2.71051e-20 0.237272 0.0284375 -0.0313571
5.42101e-20 -0.237272 0.0284375 -0.0318235
8.27181e-25 -0.237 0.030625 -0.0317762
0 0.237 0.030625 -0.0312861
0 -0.238741 0.010625 -0.0322978
3.2973e-20 0.238741 0.010625 -0.0319872
0 0.237834 0.0234375 -0.0313936
2.71051e-20 -0.237834 0.0234375 -0.0318312
-7.16545e-21 -0.237544 0.02625 -0.0318435
-8.29662e-21 0.237544 0.02625 -0.0314001
-5.42101e-20 -0.239 0.000876671 -0.0321077
0 0.239 0.000876671 -0.0317547
5.16988e-26 -0.238741 0.01125 -0.0322297
0 0.238741 0.01125 -0.0319191
-2.71051e-20 0.238433 0.0165625 -0.0313282
0 -0.238433 0.0165625 -0.0318033
6.46235e-27 0.238741 0.0113017 -0.0319125
-5.27028e-21 -0.238124 0.020625 -0.0318103
4.86643e-21 0.238124 0.020625 -0.0313518
2.71051e-20 -0.239031 0.00149329 -0.0321091
0 0.239031 0.00149329 -0.0317605
0 -0.238741 0.011875 -0.0321503
-6.46235e-27 0.238741 0.011875 -0.0318394
0 0.237272 0.0290625 -0.0313406
-2.71051e-20 -0.237272 0.0290625 -0.0318139
0 0.237834 0.0240625 -0.0314029
5.42101e-20 -0.237834 0.0240625 -0.0318382
0 0.238432 0.0171875 -0.031318
0 -0.238432 0.0171875 -0.0317978
-4.1359e-25 -0.237 0.03125 -0.0317563
4.1359e-25 0.237 0.03125 -0.0312603
6.46855e-21 -0.237544 0.026875 -0.0318431
1.73017e-20 0.237544 0.026875 -0.0313957
-2.71051e-20 0.239054 0.0021315 -0.0317698
5.42101e-20 -0.239054 0.0021315 -0.0321047
0 -0.238741 0.0125 -0.0320638
2.58494e-26 0.238741 0.0125 -0.031747
-1.97166e-20 -0.238124 0.02125 -0.0318175
2.83612e-20 0.238124 0.02125 -0.0313661
-2.71051e-20 -0.239065 0.00277515 -0.032106
2.71051e-20 0.239065 0.00277515 -0.0317808
0 0.238612 0.015 -0.0314056
0 0.239066 0.00341637 -0.0317824
0 -0.239066 0.00341637 -0.0321163
2.71051e-20 -0.238432 0.0178125 -0.0318002
-5.42101e-20 0.238433 0.0178125 -0.031321
-2.71051e-20 0.239063 0.00405176 -0.0317791
2.71051e-20 -0.239063 0.00405176 -0.0321281
0 0.238741 0.013125 -0.0316485
0 -0.238741 0.013125 -0.0319829
0 0.239062 0.00468248 -0.0317735
0 -0.239062 0.00468248 -0.0321563
0 0.237834 0.0246875 -0.0314082
5.42101e-20 -0.237834 0.0246875 -0.0318428
0 0.239061 0.00531037 -0.0317944
2.71051e-20 -0.239061 0.00531037 -0.032243
2.71051e-20 0.237272 0.0296875 -0.0313209
-5.42101e-20 -0.237272 0.0296875 -0.0318012
-3.00147e-20 0.238124 0.021875 -0.0313799
2.09472e-20 -0.238124 0.021875 -0.0318248
-9.72206e-21 -0.237544 0.0275 -0.0318405
-6.70968e-21 0.237544 0.0275 -0.031388
0 -0.237 0.031875 -0.031734
-4.1359e-25 0.237 0.031875 -0.0312328
2.71051e-20 0.23906 0.0059367 -0.0318678
0 -0.23906 0.0059367 -0.032347
0 0.238741 0.01375 -0.0315532
-2.58494e-26 -0.238741 0.01375 -0.0319217
2.71051e-20 -0.238432 0.0184375 -0.0318009
0 0.238433 0.0184375 -0.0313241
2.71051e-20 0.23906 0.00656221 -0.0319838
0 -0.23906 0.00656221 -0.0324389
5.42101e-20 -0.23906 0.0071874 -0.0324827
5.42101e-20 0.23906 0.0071874 -0.0320789
1.29247e-26 0.238741 0.014375 -0.0314715
0 -0.238741 0.014375 -0.0318778
2.71051e-20 0.237834 0.0253125 -0.0314123
-2.71051e-20 -0.237834 0.0253125 -0.0318477
-1.03398e-25 0.238124 0.0225 -0.0313925
1.67563e-20 -0.238124 0.0225 -0.0318318
2.71051e-20 0.23906 0.00781246 -0.0321364
0 -0.23906 0.00781246 -0.0324895
-2.71051e-20 0.238432 0.0190625 -0.0313364
2.71051e-20 -0.238432 0.0190625 -0.0318077
0 0.237272 0.0303125 -0.0312985
-2.71051e-20 -0.237272 0.0303125 -0.0317855
2.42232e-20 -0.237544 0.028125 -0.0318356
2.67252e-21 0.237544 0.028125 -0.0313771
2.71051e-20 0.23906 0.00843749 -0.0321498
-5.42101e-20 -0.23906 0.00843749 -0.032473
0 -0.238741 0.015 -0.0318507
1.61559e-27 0.238741 0.015 -0.0314135
-4.1359e-25 0.237 0.0325 -0.0312041
-4.1359e-25 -0.237 0.0325 -0.0317101
0 0.238741 0.0151474 -0.0314041
1.65436e-24 0.239232 1.14178e-08 -0.0317688
0 -0.239232 7.9948e-09 -0.0321174
2.71051e-20 0.23906 0.0090625 -0.0321326
2.71051e-20 -0.23906 0.0090625 -0.0324372
0 0.238432 0.0196875 -0.0313454
2.71051e-20 -0.238432 0.0196875 -0.0318111
5.42101e-20 -0.237834 0.0259375 -0.0318498
2.71051e-20 0.237834 0.0259375 -0.0314125
1.02289e-20 0.238124 0.023125 -0.0314038
-1.3876e-20 -0.238124 0.023125 -0.0318387
-6.46235e-27 -0.239205 0.00436813 -0.0321436
1.29247e-26 -0.238741 0.015625 -0.0318332
-6.46235e-27 0.238741 0.015625 -0.0313738
8.13152e-20 0.239061 0.0096875 -0.0320978
-5.42101e-20 -0.239061 0.0096875 -0.0323988
2.06795e-25 -0.237 0.0328488 -0.0316963
-1.10631e-20 -0.237544 0.02875 -0.0318279
0 0.237544 0.02875 -0.0313627
0 0.237272 0.0309375 -0.0312738
0 -0.237272 0.0309375 -0.031767
2.71051e-20 -0.23906 0.0103125 -0.0323497
5.42101e-20 0.239061 0.0103125 -0.0320428
1.86662e-20 0.239291 0.000573876 -0.0317648
2.59387e-20 -0.239291 0.00057387 -0.0321146
-1.29247e-26 -0.238741 0.01625 -0.0318226
-4.50141e-21 0.238741 0.01625 -0.0313513
-2.71051e-20 0.238432 0.0203125 -0.0313616
2.71051e-20 -0.238432 0.0203125 -0.0318198
-4.1359e-25 0.237 0.033125 -0.0311758
0 -0.237 0.033125 -0.0316854
-2.11032e-20 0.238124 0.02375 -0.0314132
3.53232e-20 -0.238124 0.02375 -0.0318449
-2.71051e-20 0.23906 0.0109375 -0.031982
-2.71051e-20 -0.239061 0.0109375 -0.0322923
-2.71051e-20 0.237834 0.0265625 -0.0314106
-5.42101e-20 -0.237834 0.0265625 -0.0318514
1.29247e-26 -0.238741 0.016875 -0.0318168
2.32803e-22 0.238741 0.016875 -0.0313392
-2.58494e-26 0.23745 0.03 -0.0313219
-3.55291e-20 0.239335 0.00117391 -0.0317663
-1.69183e-20 -0.239335 0.00117392 -0.0321131
0 0.239061 0.0115625 -0.0319073
0 -0.239061 0.0115625 -0.0322176
0 0.237544 0.029375 -0.0313452
-1.9387e-26 0.237544 0.0293311 -0.0313464
2.71051e-20 0.238432 0.0209375 -0.0313729
-2.71051e-20 -0.238432 0.0209375 -0.0318245
2.66311e-21 -0.237544 0.029375 -0.0318174
0 0.237272 0.0315625 -0.0312469
0 -0.237272 0.0315625 -0.0317455
5.50034e-21 0.238124 0.024375 -0.0314207
-3.27998e-21 -0.238124 0.024375 -0.0318504
-2.71051e-20 0.23906 0.0121875 -0.0318258
5.42101e-20 -0.23906 0.0121875 -0.032136
8.27181e-25 0.239367 0.00180576 -0.0317703
1.08783e-20 -0.239367 0.00180576 -0.0321043
-6.46235e-27 -0.238741 0.0175 -0.0318158
-6.84691e-21 0.238741 0.0175 -0.0313368
0 0.237834 0.0271875 -0.0314049
2.71051e-20 -0.237834 0.0271875 -0.0318501
4.1359e-25 0.237 0.03375 -0.0311498
0 -0.237 0.03375 -0.0316606
0 0.239388 0.00244888 -0.031776
-8.64383e-21 -0.239388 0.00244888 -0.0320945
2.71051e-20 -0.23906 0.0128125 -0.0320405
0 0.239061 0.0128125 -0.0317242
0 0.238432 0.0215625 -0.0313895
5.42101e-20 -0.238432 0.0215625 -0.0318336
2.06795e-25 0.239391 0.00309523 -0.0317803
-2.12591e-20 -0.239391 0.00309522 -0.0320959
1.61559e-27 -0.238741 0.0179102 -0.0318171
-1.03398e-25 0.239387 0.00373495 -0.031778
-2.09157e-20 -0.239387 0.00373495 -0.0321104
-5.16988e-25 -0.237 0.0339359 -0.0316537
0 0.239383 0.00436802 -0.0317755
-2.47394e-20 -0.239383 0.00436802 -0.0321461
-1.2221e-20 0.238741 0.018125 -0.0313407
3.23117e-27 -0.238741 0.018125 -0.0318178
-3.23117e-27 -0.239382 0.00482427 -0.0322039
-7.98477e-21 -0.237544 0.03 -0.0318039
0 0.237544 0.03 -0.0313245
1.59524e-20 0.238124 0.025 -0.0314255
2.25361e-20 -0.238124 0.025 -0.0318549
0 0.239381 0.00499721 -0.031797
0 -0.239381 0.00499721 -0.0322258
0 0.23906 0.0134375 -0.031627
0 -0.239061 0.0134375 -0.0319641
-2.71051e-20 -0.237272 0.0321875 -0.0317225
-2.71051e-20 0.237272 0.0321875 -0.0312187
-6.46235e-27 -0.23938 0.00562396 -0.0323444
-6.46235e-27 0.23938 0.00562396 -0.0318704
-2.71051e-20 0.237834 0.0278125 -0.0313966
2.71051e-20 -0.237834 0.0278125 -0.0318473
0 -0.23938 0.0062497 -0.0324455
0 0.23938 0.0062497 -0.0319813
0 0.238432 0.0221875 -0.0314003
0 -0.238432 0.0221875 -0.0318385
-4.03897e-28 0.239281 0.009375 -0.0321382
2.01948e-28 0.239206 0.01125 -0.0319603
2.71051e-20 0.23906 0.0140625 -0.0315281
0 -0.239061 0.0140625 -0.0319108
-1.22568e-20 -0.238741 0.01875 -0.0318221
-9.70787e-22 0.238741 0.01875 -0.0313494
2.44179e-20 -0.23938 0.00687491 -0.0325017
0 0.23938 0.00687491 -0.0320899
0 0.237 0.034375 -0.0311289
0 -0.237 0.034375 -0.0316375
0 -0.23938 0.00749998 -0.0325192
0 0.23938 0.00749998 -0.03216
-1.04828e-20 -0.238124 0.025625 -0.0318583
-2.45052e-22 0.238124 0.025625 -0.0314279
3.23117e-27 -0.239453 0.00499651 -0.0322307
-2.40463e-20 -0.237544 0.030625 -0.0317875
0 0.237544 0.030625 -0.0313011
2.71051e-20 -0.23906 0.0146875 -0.0318729
-5.42101e-20 0.239061 0.0146875 -0.0314544
0 -0.23938 0.00812499 -0.0325086
0 0.23938 0.00812499 -0.0321838
-2.71051e-20 0.238432 0.0228125 -0.0314146
0 -0.238433 0.0228125 -0.031847
9.86219e-21 -0.238741 0.019375 -0.0318273
1.84262e-20 0.238741 0.019375 -0.0313605
0 0.237834 0.0284375 -0.0313844
-2.71051e-20 -0.237834 0.0284375 -0.0318413
-2.71051e-20 -0.237272 0.0328125 -0.0316978
0 0.237272 0.0328125 -0.0311896
-3.23117e-27 -0.23938 0.00875 -0.0324808
0 0.23938 0.00875 -0.0321774
0 0.239061 0.0153125 -0.0314054
0 -0.239061 0.0153125 -0.0318582
0 -0.23938 0.009375 -0.0324406
1.24579e-20 0.23938 0.009375 -0.0321482
-1.80946e-25 -0.237 0.0349567 -0.0316199
1.89928e-20 -0.238124 0.02625 -0.0318602