# p  POINT_DATA 25961
# x  y  z  p
0.01 0 8.31199e-08 -0.0268073
-0.01 0 8.31199e-08 0.150512
-0.01 0 0.00067832 0.150512
0.01 0 0.00067832 -0.0268073
0.0100157 7.75482e-26 0.000677127 -0.0268073
-0.01 0 0.00137372 0.150513
0.01 0 0.00137372 -0.0268073
0.0100746 0 0.00135804 -0.0268074
-0.01 0 0.002087 0.150512
0.01 0 0.002087 -0.0268074
-0.0102613 0 0.000329046 0.150512
0.0102613 2.71051e-20 0.000329046 -0.0268074
0.0102561 2.71051e-20 0.000988366 -0.0268074
-0.0102561 -2.71051e-20 0.000988366 0.150513
0.0102356 2.71051e-20 0.00161953 -0.0268074
-0.0102356 0 0.00161953 0.150513
0.0105293 -4.1359e-25 8.89198e-08 -0.0268073
-0.0105293 0 8.68458e-08 0.150512
0.0105282 -2.06795e-25 0.000279278 -0.0268074
-0.0105268 -2.08425e-20 0.000638363 0.150512
0.0105268 -1.52449e-21 0.000638362 -0.0268074
-0.0105159 1.65436e-24 0.0012653 0.150513
0.0105159 -2.13925e-20 0.0012653 -0.0268074
-0.0105028 -1.06839e-20 0.0017228 0.150512
0.0105028 -1.34979e-20 0.0017228 -0.0268074
-0.010496 2.71051e-20 0.00202291 0.150512
0.010496 -2.71051e-20 0.00202291 -0.0268074
0.0104977 0 0.00235078 -0.0268074
-0.0104977 0 0.00235077 0.150512
-0.0108033 2.71051e-20 0.000314595 0.150512
0.0108033 2.71051e-20 0.000314594 -0.0268074
-0.0108031 2.71051e-20 0.00093799 0.150513
0.0108031 0 0.00093799 -0.0268074
-0.01079 -2.71051e-20 0.00152732 0.150513
0.01079 -2.71051e-20 0.00152732 -0.0268074
-0.0110754 0 7.36178e-09 0.150512
0.0110754 0 6.46274e-09 -0.0268073
0.01108 0 0.000208299 -0.0268073
-0.0110889 0 0.000613667 0.150512
0.0110889 -2.63209e-21 0.000613666 -0.0268073
-0.0108991 2.71051e-20 0.00228385 0.150512
0.0108991 5.42101e-20 0.00228385 -0.0268074
0.010988 -2.7115e-20 0.00190078 -0.0268074
-0.010988 0 0.00190081 0.150512
-0.0110831 -1.65436e-24 0.00123268 0.150513
0.0110831 1.26559e-20 0.00123266 -0.0268074
0.0109863 0 0.00260985 -0.0268074
-0.0109863 6.61744e-24 0.00260985 0.150512
0.0113733 0 0.000305239 -0.0268073
-0.0113733 0 0.000305239 0.150512
-0.0113913 0 0.000918847 0.150513
0.0113913 0 0.000918847 -0.0268074
0.0112123 1.12761e-20 0.00231934 -0.0268074
-0.0112123 2.62713e-21 0.00231934 0.150512
-0.0113682 -2.71051e-20 0.00155884 0.150512
0.0113682 -2.71051e-20 0.00155884 -0.0268074
0.0114039 -5.42101e-20 0.00209577 -0.0268074
-0.0114039 2.71051e-20 0.00209577 0.150512
0.011595 2.58494e-26 2.35794e-09 -0.0268073
0.0113392 -2.71051e-20 0.00255892 -0.0268074
-0.0113392 0 0.00255892 0.150512
-0.0116471 0 3.40354e-09 0.150512
0.0116471 0 2.32037e-09 -0.0268073
-0.0116865 0 0.000598049 0.150513
0.0116865 2.92168e-20 0.000598049 -0.0268073
-0.0117045 0 0.00122297 0.150513
0.0117045 -1.815e-20 0.00122297 -0.0268074
0.0114599 0 0.00285977 -0.0268073
-0.0114598 0 0.00285975 0.150511
0.0117133 2.22677e-20 0.00184588 -0.0268073
-0.0117133 3.30872e-24 0.00184588 0.150512
0.0116596 1.99913e-20 0.00239949 -0.0268073
-0.0116596 0 0.00239948 0.150512
0.0119676 2.71051e-20 0.000293859 -0.0268073
-0.0119676 2.71051e-20 0.000293859 0.150513
-0.0120019 -1.03398e-25 9.94023e-10 0.150513
-0.0120131 2.71051e-20 0.000895955 0.150513
0.0120131 0 0.000895956 -0.0268074
0.0120433 5.42101e-20 0.00152444 -0.0268074
-0.0120433 2.71051e-20 0.00152444 0.150513
-0.0118604 -5.42101e-20 0.00273055 0.150511
0.0118604 -2.71051e-20 0.00273056 -0.0268073
0.0120387 -2.71051e-20 0.00217273 -0.0268073
-0.0120387 0 0.00217273 0.150512
0.0122418 -4.1359e-25 3.11206e-09 -0.0268072
-0.0122418 -1.03398e-25 1.04582e-09 0.150514
-0.0122568 2.06795e-25 0.000136244 0.150514
0.0119119 0 0.00310459 -0.0268073
-0.0119119 6.61744e-24 0.00310459 0.15051
0.0123043 -2.01443e-20 0.000568947 -0.0268073
-0.0123043 -1.23721e-20 0.000568945 0.150514
0.01236 5.58512e-21 0.00118123 -0.0268073
-0.01236 -8.27181e-25 0.00118125 0.150513
-0.0124541 -1.03398e-25 1.48697e-10 0.150515
0.0123814 1.50017e-20 0.00184432 -0.0268073
-0.0123814 0 0.00184434 0.150512
-0.0125711 2.71051e-20 0.000269458 0.150515
0.0125711 -2.71051e-20 0.000269458 -0.0268072
0.0123374 -1.70498e-20 0.00258488 -0.0268073
-0.0123374 -5.93254e-21 0.00258488 0.150511
0.0122817 0 0.00299995 -0.0268073
-0.0122817 -2.71051e-20 0.00299995 0.15051
0.0126475 -2.71051e-20 0.000839063 -0.0268073
-0.0126475 0 0.000839063 0.150514
0.0123472 -3.30872e-24 0.00333734 -0.0268073
-0.0123472 0 0.00333734 0.150509
-0.0127108 2.71051e-20 0.0014705 0.150513
0.0127108 2.71051e-20 0.0014705 -0.0268073
0.0128491 1.65436e-24 5.01678e-09 -0.0268071
-0.0128491 0 1.4199e-09 0.150517
0.0127172 2.71051e-20 0.00217074 -0.0268073
-0.0127172 0 0.00217074 0.150512
0.0129129 1.7772e-20 0.000505056 -0.0268072
-0.0129129 0 0.000505053 0.150517
0.0125922 1.71011e-20 0.00303079 -0.0268072
-0.0125922 -2.95667e-20 0.00303079 0.150509
0.0130203 -4.5313e-21 0.00108239 -0.0268073
-0.0130203 0 0.0010824 0.150515
0.012793 5.42101e-20 0.00278388 -0.0268072
-0.012793 0 0.00278388 0.15051
0.0127108 -5.42101e-20 0.00327268 -0.0268073
-0.0127108 2.71051e-20 0.00327268 0.150509
0.0131383 2.71051e-20 0.000218112 -0.0268071
-0.0131383 2.71051e-20 0.000218112 0.15052
0.013073 -1.26559e-22 0.0017651 -0.0268073
-0.013073 0 0.00176511 0.150513
0.0127674 0 0.00356123 -0.0268071
-0.0127674 -1.65436e-24 0.00356123 0.150507
-0.0132689 0 0.000719701 0.150518
0.0132689 0 0.0007197 -0.0268073
0.0130872 1.59067e-21 0.00246807 -0.0268072
-0.0130872 0 0.00246808 0.150511
0.0133746 2.37649e-20 0.000406313 -0.0268073
-0.0133746 1.82459e-20 0.000406306 0.150517
0.0134599 0 1.02233e-08 -0.0268073
-0.0134599 8.27181e-25 3.72109e-09 0.150517
0.0130916 1.83692e-20 0.00314268 -0.0268071
-0.0130916 2.06795e-25 0.00314268 0.150508
-0.0134186 -2.71051e-20 0.00131377 0.150515
0.0134186 2.71051e-20 0.00131377 -0.0268073
0.013075 0 0.00349045 -0.0268071
-0.013075 0 0.00349045 0.150506
-0.013162 4.1359e-25 0.00325434 0.150507
-0.0134232 0 0.00207248 0.150512
0.0134232 5.42101e-20 0.00207248 -0.0268073
0.0132078 0 0.00332703 -0.0268071
-0.0132595 0 0.00312606 0.150508
-0.0136984 0 0.000300358 0.150514
0.0136984 -2.71051e-20 0.000300357 -0.0268076
0.013418 -5.42101e-20 0.00277569 -0.0268071
-0.013418 0 0.00277569 0.15051
0.0131762 -2.06795e-25 0.0037788 -0.026807
-0.0131762 0 0.0037788 0.150504
-0.0131848 5.16988e-26 0.00376504 0.150505
0.0133596 0 0.00311615 -0.0268071
-0.0131928 -1.03398e-25 0.00378881 0.150504
0.0132283 0 0.00369585 -0.026807
-0.013523 -2.06795e-25 0.00243331 0.150511
0.0137612 -1.41729e-20 0.000786143 -0.0268072
-0.0137612 2.14405e-20 0.000786151 0.150517
-0.0133341 0 0.00352736 0.150505
0.0133341 -3.4254e-20 0.00352736 -0.026807
0.0132767 -2.06795e-25 0.00383951 -0.026807
0.0137678 -5.15334e-22 0.00165537 -0.0268072
-0.0137678 0 0.00165538 0.150514
-0.013482 2.71051e-20 0.00331696 0.150506
0.013482 0 0.00331696 -0.026807
-0.0137612 0 0.00191385 0.150513
0.0137268 -2.58494e-26 0.00241705 -0.0268072
0.013749 0 0.00239287 -0.0268072
-0.0137484 0 0.00241533 0.150511
0.0137484 -2.58494e-26 0.00241533 -0.0268071
-0.013458 2.71051e-20 0.00374223 0.150503
0.013458 -5.42101e-20 0.00374223 -0.026807
0.0140709 0 3.70269e-08 -0.0268072
-0.0140709 0 9.99199e-09 0.150516
-0.0137488 2.11378e-20 0.00307762 0.150507
0.0137488 -1.73452e-20 0.00307762 -0.026807
-0.0135651 8.27181e-25 0.00401367 0.150501
0.0135651 0 0.00401367 -0.0268069
0.0141231 2.71051e-20 0.00120897 -0.0268072
-0.0141231 0 0.00120897 0.150518
-0.0137164 -1.92146e-20 0.00361036 0.150503
0.0137164 7.00457e-21 0.00361036 -0.0268069
0.014089 0 0.00201377 -0.0268072
-0.014089 2.71051e-20 0.00201377 0.150513
-0.0142657 5.42101e-20 0.000418222 0.150519
0.0142657 2.71051e-20 0.000418221 -0.0268069
-0.014069 -2.71051e-20 0.0027392 0.150508
0.014069 0 0.0027392 -0.026807
0.0138967 0 0.00392747 -0.0268068
-0.0138967 0 0.00392747 0.150499
0.0140496 0 0.00340311 -0.0268068
-0.0140496 0 0.00340311 0.150504
-0.0143919 -6.46235e-27 0.00161694 0.150511
0.014441 0 0.00161392 -0.0268072
-0.014441 2.83767e-21 0.00161391 0.150511
-0.0144454 -1.16322e-25 0.00157999 0.150511
0.0145429 1.93395e-20 0.000823379 -0.0268072
-0.0145429 0 0.000823363 0.150516
-0.0139237 0 0.00428406 0.150498
0.0139237 -1.65436e-24 0.00428406 -0.0268067
0.0143988 2.58494e-26 0.0023483 -0.0268071
-0.014397 9.51671e-21 0.00237994 0.150505
0.014397 0 0.00237994 -0.0268071
0.0144898 0 0.00237022 -0.0268071
-0.0143653 -4.95068e-21 0.00309536 0.150503
0.0143653 0 0.00309537 -0.0268069
0.0147022 0 4.94613e-08 -0.0268073
-0.0147022 -1.65436e-24 1.20861e-08 0.150516
-0.014305 3.55117e-20 0.00382188 0.150497
0.014305 8.27181e-25 0.00382188 -0.0268067
0.0142451 0 0.00421792 -0.0268065
-0.0142451 0 0.00421792 0.150498
0.0147298 -8.13152e-20 0.00200539 -0.0268072
-0.0147298 0 0.00200539 0.150501
-0.0148165 0 0.00124392 0.150513
0.0148165 0 0.00124392 -0.0268072
-0.0149179 1.03398e-25 0.000896435 0.150507
-0.0149609 0 2.9798e-17 0.15051
0.014711 -2.71051e-20 0.00272495 -0.0268071
-0.014711 -2.71051e-20 0.00272495 0.150499
-0.0149557 0 0.000461616 0.150513
0.0149557 0 0.000461611 -0.0268076
-0.0142802 0 0.00455258 0.150493
0.0142802 -8.27181e-25 0.00455258 -0.0268065
0.0146561 0 0.00344874 -0.0268068
-0.0146561 2.71051e-20 0.00344874 0.150499
-0.014516 -1.6116e-20 0.00427159 0.150491
0.014516 8.44882e-21 0.0042716 -0.0268065
0.0150861 3.43148e-20 0.00165189 -0.0268072
-0.0150861 -1.64128e-21 0.00165188 0.150496
0.014707 0 0.0040482 -0.0268065
-0.014707 -2.71051e-20 0.0040482 0.150487
0.0151175 0 0.00230446 -0.0268071
-0.0151175 1.62417e-21 0.00230446 0.150484
0.0150684 -2.06795e-25 0.00261829 -0.026807
0.0146108 0 0.00452168 -0.0268065
-0.0146108 0 0.00452168 0.150488
-0.0149933 -3.80007e-20 0.00309786 0.150483
0.0149933 4.1359e-25 0.00309786 -0.0268069
0.0153398 2.56277e-20 0.000978644 -0.0268074
-0.0153398 1.2094e-20 0.000978635 0.150496
0.0153745 0 1.29805e-08 -0.0268077
-0.0153745 0 2.22893e-08 0.150501
-0.0146354 0 0.00482017 0.150494
0.0146354 0 0.00482017 -0.0268064
-0.0149803 6.29567e-21 0.0037633 0.150483
0.0149803 -8.27181e-25 0.0037633 -0.0268067
0.0153272 0 0.00275021 -0.026807
-0.0153272 -2.71051e-20 0.00275021 0.150466
-0.0149658 -1.06954e-21 0.00441692 0.150488
0.0149658 8.27181e-25 0.00441693 -0.0268065
-0.014927 -2.71051e-20 0.00477488 0.1505
0.014927 -5.42101e-20 0.00477488 -0.0268063
0.0152999 0 0.00342236 -0.0268067
-0.0152999 2.71051e-20 0.00342236 0.150468
0.015716 5.42101e-20 0.00173426 -0.0268072
-0.015716 5.42101e-20 0.00173426 0.150462
0.0152841 -5.42101e-20 0.00407715 -0.0268066
-0.0152841 2.71051e-20 0.00407715 0.150479
0.0149898 0 0.00508707 -0.0268063
-0.0149898 0 0.00508707 0.150499
0.0156647 -4.1359e-25 0.00240043 -0.0268071
-0.0156647 -1.56624e-20 0.00240043 0.150448
-0.0158727 1.0842e-19 0.000520994 0.150482
0.0158727 -5.42101e-20 0.000520992 -0.0268079
0.0156354 1.03398e-25 0.00287872 -0.026807
-0.0151702 -3.72645e-22 0.00482145 0.150494
0.0151702 8.2991e-21 0.00482145 -0.0268063
-0.015623 -1.63432e-20 0.00308126 0.150444
0.015623 0 0.00308126 -0.0268069
-0.0153271 2.71051e-20 0.00461022 0.150482
0.0153271 0 0.00461022 -0.0268063
0.0156022 0 0.00374982 -0.0268067
-0.0156022 1.15971e-21 0.00374982 0.150451
-0.0151797 1.03398e-25 0.00523007 0.150505
0.015269 -2.71051e-20 0.00505544 -0.0268063
-0.015269 2.71051e-20 0.00505544 0.150498
0.0159605 0 0.00272817 -0.0268072
-0.0159605 0 0.00272817 0.150423
-0.0155971 -2.10666e-20 0.0043751 0.150469
0.0155971 0 0.0043751 -0.0268065
-0.0160322 0 0.00235138 0.150434
-0.0153431 1.03398e-25 0.00535318 0.150509
0.0153431 -1.29247e-26 0.00535318 -0.0268063
-0.0154076 0 0.0052069 0.150504
0.0159183 5.42101e-20 0.00340547 -0.0268066
-0.0159183 -2.71051e-20 0.00340547 0.150421
0.0155359 0 0.00491577 -0.0268064
-0.0155359 1.41866e-20 0.00491577 0.150495
-0.0159245 2.71051e-20 0.00405169 0.150437
0.0159245 2.71051e-20 0.00405169 -0.0268067
0.0163947 -2.47708e-20 0.00113361 -0.0268075
-0.0163947 0 0.0011336 0.150447
0.0161888 -5.16988e-26 0.00306055 -0.0268069
0.0164795 0 4.5134e-08 -0.0268078
-0.0164795 0 7.53989e-09 0.150459
-0.0163851 -5.16988e-26 0.00180393 0.150431
-0.0162478 0 0.00305839 0.150414
0.0162478 0 0.00305839 -0.0268069
0.0163779 -1.93548e-20 0.00230526 -0.0268072
-0.0163779 0 0.00230525 0.15042
0.0156904 -2.71051e-20 0.00524875 -0.0268063
-0.0156904 -2.71051e-20 0.00524875 0.15052
0.0162566 -1.29247e-26 0.00314393 -0.0268069
0.0158759 2.71051e-20 0.00471202 -0.0268065
-0.0158759 -2.71051e-20 0.00471202 0.150477
-0.0165637 -2.06795e-25 0.00113717 0.150442
0.0156951 0 0.00561829 -0.0268066
-0.0156951 0 0.00561829 0.15054
0.0163084 0 0.00364992 -0.0268067
-0.0163084 0 0.00364992 0.150419
0.016199 0 0.00441125 -0.0268067
-0.016199 2.63777e-20 0.00441125 0.150453
-0.016068 5.16988e-26 0.00518819 0.150523
0.0161146 -1.43821e-20 0.00513441 -0.0268066
-0.0161146 1.76055e-20 0.00513441 0.150521
-0.016031 0 0.0055414 0.15056
0.016031 -2.71051e-20 0.0055414 -0.0268067
-0.0169948 0 1.57361e-20 0.150444
-0.0165964 0 0.00369035 0.150413
-0.0161687 5.16988e-26 0.00526118 0.150535
0.0165301 0 0.00408038 -0.0268066
-0.0165301 2.71051e-20 0.00408038 0.150417
0.0170241 -5.42101e-20 0.0005776 -0.0268078
-0.0170241 0 0.000577601 0.150436
0.0169741 5.42101e-20 0.00175445 -0.0268073
-0.0169741 5.42101e-20 0.00175445 0.150406
-0.0160456 4.1359e-25 0.00588233 0.150577
0.0160456 0 0.00588233 -0.0268067
0.0168708 -5.42101e-20 0.00304668 -0.0268071
-0.0168708 -1.0842e-19 0.00304668 0.150388
0.0164827 -5.42101e-20 0.00476235 -0.0268069
-0.0164827 2.71051e-20 0.00476235 0.150479
0.0168025 -6.46235e-27 0.00371927 -0.0268071
0.0163092 7.98333e-21 0.00559034 -0.0268068
-0.0163092 0 0.00559034 0.150571
-0.0168571 0 0.00372694 0.150408
0.0168571 0 0.00372694 -0.0268071
0.0168524 -6.46235e-27 0.00384281 -0.0268071
0.0165194 0 0.0053648 -0.0268068
-0.0165194 -2.71051e-20 0.0053648 0.150559
-0.0168333 -2.58494e-26 0.00431301 0.150442
0.0168293 0 0.00441207 -0.0268071
-0.0168293 6.46235e-27 0.00441207 0.150448
-0.016393 -2.71051e-20 0.00584515 0.150594
0.016393 2.71051e-20 0.00584515 -0.0268068
-0.0163955 0 0.00614428 0.150638
0.0163955 4.1359e-25 0.00614428 -0.0268074
-0.0169489 0 0.00440665 0.150448
0.0168096 0 0.00506989 -0.0268072
-0.0168096 -1.29247e-26 0.00506989 0.150528
-0.0168053 0 0.00515263 0.150541
0.017623 3.30872e-24 2.17597e-08 -0.0268076
-0.017623 -1.65436e-24 1.01887e-08 0.150426
0.0175916 7.34536e-21 0.00115888 -0.0268075
-0.0175916 0 0.00115887 0.150417
-0.0171737 -2.71051e-20 0.004052 0.150411
0.0171737 2.71051e-20 0.004052 -0.0268075
0.0175442 2.16208e-20 0.00239621 -0.0268074
-0.0175442 0 0.00239621 0.1504
-0.0167746 0 0.00574376 0.150629
0.0167746 5.16988e-26 0.00574376 -0.0268075
-0.0171404 2.71051e-20 0.0047287 0.150483
0.0171404 2.71051e-20 0.0047287 -0.0268074
-0.016705 0 0.00611265 0.150682
0.016705 0 0.00611265 -0.026808
0.0174986 -5.16988e-26 0.00354411 -0.0268076
-0.0174986 0 0.00354412 0.150407
-0.0167191 4.1359e-25 0.00643602 0.150722
0.0167191 0 0.00643602 -0.0268082
-0.0171168 -2.71051e-20 0.00539052 0.150589
0.0171168 2.71051e-20 0.00539052 -0.0268078
0.0174765 1.29247e-26 0.0041983 -0.0268077
-0.0172565 0 0.00505616 0.150537
-0.0174702 -5.16988e-26 0.00438304 0.150451
0.0174702 0 0.00438304 -0.0268078
-0.0169667 2.3884e-20 0.00617943 0.150719
0.0169667 1.23494e-20 0.00617943 -0.0268082
0.0174493 0 0.00505023 -0.0268081
-0.0174493 0 0.00505023 0.150541
-0.0171679 2.71051e-20 0.00597129 0.150714
0.0171679 0 0.00597129 -0.0268081
0.0182005 -1.0842e-19 0.00058338 -0.0268075
-0.0182005 5.42101e-20 0.000583381 0.150415
-0.017043 -2.71051e-20 0.00643779 0.150762
0.017043 -2.71051e-20 0.00643779 -0.0268082
0.0177879 2.71051e-20 0.00403219 -0.0268079
-0.0177879 0 0.00403219 0.150421
-0.0181761 -1.0842e-19 0.00178292 0.150411
0.0181761 0 0.00178292 -0.0268074
-0.0170214 4.1359e-25 0.00674884 0.150793
0.0170214 -4.1359e-25 0.00674884 -0.0268091
-0.0174458 0 0.00568734 0.150659
0.0174458 -3.41019e-21 0.00568734 -0.0268085
-0.0177804 -2.71051e-20 0.00470438 0.150492
0.0177804 0 0.00470438 -0.0268082
-0.0181642 -1.0842e-19 0.00305697 0.150397
0.0181642 5.42101e-20 0.00305697 -0.026808
-0.0181317 -2.06795e-25 0.00370155 0.15041
0.0181317 1.63857e-21 0.00370155 -0.0268087
-0.01741 0 0.00635261 0.150775
0.01741 -2.59746e-20 0.00635261 -0.0268091
-0.0177702 -2.71051e-20 0.00535529 0.150601
0.0177702 0 0.00535529 -0.0268087
-0.0173274 0 0.00672747 0.150823
0.0173274 -2.71051e-20 0.00672747 -0.0268099
0.0181132 0 0.00420721 -0.0268088
-0.0181076 3.26442e-21 0.00436205 0.150453
0.0181076 6.46235e-27 0.00436205 -0.0268088
-0.0173238 4.1359e-25 0.00706119 0.150845
0.0173238 4.1359e-25 0.00706119 -0.0268099
0.0177503 0 0.00600627 -0.0268093
-0.0177503 2.71051e-20 0.00600627 0.150727
-0.018098 -1.63446e-20 0.00501826 0.150538
0.018098 0 0.00501826 -0.0268091
-0.0187969 0 1.59693e-08 0.150408
0.0187969 1.65436e-24 1.06448e-08 -0.0268072
-0.0187878 0 0.00116731 0.150414
0.0187878 3.70221e-20 0.00116731 -0.0268073
-0.0175851 2.16202e-20 0.00679799 0.150845
0.0175851 -5.35682e-21 0.00679799 -0.0268099
-0.0184432 2.71051e-20 0.00401963 0.150408
0.0184432 2.71051e-20 0.00401963 -0.0268098
-0.0187844 0 0.00239454 0.15041
0.0187844 -3.07554e-20 0.00239454 -0.0268079
-0.0180831 0 0.00566925 0.150648
0.0180831 0 0.00566925 -0.0268097
0.0177912 0 0.00658995 -0.0268099
-0.0177912 0 0.00658995 0.150844
-0.0184158 -2.71051e-20 0.00467993 0.150489
0.0184158 0 0.00467993 -0.0268093
-0.0176529 -2.71051e-20 0.00706043 0.150868
0.0176529 0 0.00706043 -0.0268099
-0.0176264 -4.1359e-25 0.00737367 0.150861
0.0176264 0 0.00737367 -0.0268108
-0.0180712 2.58494e-26 0.00630777 0.150764
0.0180712 0 0.00630777 -0.0268102
-0.0184261 -2.71051e-20 0.0053197 0.150573
0.0184261 -2.71051e-20 0.0053197 -0.0268101
-0.0188515 2.06795e-25 0.00360143 0.15039
0.0188515 0 0.00360143 -0.0268095
0.0188003 -6.46235e-27 0.00397534 -0.0268097
-0.0187497 -2.08725e-20 0.00434473 0.150423
0.0187497 1.29247e-26 0.00434473 -0.0268099
-0.018025 1.03398e-25 0.00697581 0.150841
0.018025 0 0.00697581 -0.0268109
-0.0183967 0 0.00598007 0.150691
0.0183967 -2.71051e-20 0.00598007 -0.0268105
0.0190444 -3.87741e-26 0.00361107 -0.0268097
-0.0179363 0 0.0073519 0.150853
0.0179363 -2.71051e-20 0.0073519 -0.0268117
-0.0193896 5.42101e-20 0.000584898 0.1504
0.0193896 0 0.000584906 -0.026807
-0.0188216 2.24226e-20 0.00491492 0.150488
0.0188216 -2.43697e-20 0.00491492 -0.0268104
-0.0193933 -5.42101e-20 0.00177944 0.150432
0.0193933 0 0.00177943 -0.0268073
-0.0179292 4.1359e-25 0.00768641 0.150841
0.0179292 0 0.00768641 -0.0268117
0.018369 0 0.00663164 -0.026811
-0.018369 0 0.00663164 0.150787
-0.0187273 -2.57838e-20 0.00564917 0.150582
0.0187273 0 0.00564917 -0.0268109
-0.0194147 0 0.00301348 0.1504
0.0194147 0 0.00301348 -0.0268091
-0.0181958 -4.12143e-22 0.00742304 0.150842
0.0181958 1.10958e-20 0.00742304 -0.0268117
-0.0187015 1.86691e-20 0.00629873 0.150673
0.0187015 2.11144e-21 0.00629873 -0.0268113
0.0184056 2.71051e-20 0.00721495 -0.0268117
-0.0184056 -2.71051e-20 0.00721495 0.150846
-0.0190533 -5.42101e-20 0.0053245 0.150491
0.0190533 -2.71051e-20 0.0053245 -0.0268113
0.0182616 -2.71051e-20 0.0076859 -0.0268116
-0.0182616 -2.71051e-20 0.0076859 0.150827
0.0197137 5.16988e-26 0.00238644 -0.0268081
-0.0193893 0 0.0043251 0.150344
0.0193893 0 0.0043251 -0.026811
0.0182322 0 0.00799942 -0.0268125
-0.0182322 0 0.00799942 0.150771
-0.0186894 0 0.00693288 0.150738
0.0186894 2.58494e-26 0.00693288 -0.0268119
-0.019034 0 0.00596484 0.150574
0.019034 0 0.00596484 -0.0268117
-0.0199808 -1.65436e-24 1.15616e-08 0.15039
0.0199808 0 1.81198e-09 -0.0268063
-0.0193786 -5.16988e-26 0.00498454 0.150334
0.0193786 1.29247e-26 0.00498454 -0.0268118
-0.0199934 0 0.00116524 0.150403
0.0199935 0 0.00116523 -0.0268066
0.0200018 -5.16988e-26 0.00176843 -0.0268073
-0.018638 0 0.00760163 0.150746
0.018638 1.03398e-25 0.00760163 -0.0268125
-0.0190175 -5.42101e-20 0.00660576 0.150638
0.0190175 -5.42101e-20 0.00660576 -0.0268121
-0.0200103 0 0.00238385 0.150365
0.0200103 0 0.00238385 -0.0268081
0.0201183 5.16988e-26 0.00116394 -0.0268064
-0.0193626 0 0.005634 0.150393
0.0193626 6.46235e-27 0.005634 -0.0268121
0.0185453 0 0.00797801 -0.0268133
-0.0185453 2.71051e-20 0.00797801 0.150713
0.0185355 0 0.00831268 -0.0268133
-0.0185355 0 0.00831268 0.150666
0.020316 0 -1.46994e-28 -0.0268057
-0.0189879 2.71051e-20 0.00725654 0.150669
0.0189879 -2.71051e-20 0.00725654 -0.0268126
-0.0193479 -3.73296e-20 0.00627375 0.150469
0.0193479 0 0.00627375 -0.0268125
-0.0200226 0 0.00365995 0.150223
0.0200226 0 0.00365995 -0.0268104
-0.019693 0 0.00529521 0.150179
0.019693 -5.42101e-20 0.00529521 -0.0268127
-0.0188066 3.8133e-21 0.00805004 0.150666
0.0188066 2.79695e-20 0.00805004 -0.0268133
-0.0193268 2.58494e-26 0.00692069 0.150507
0.0193268 -2.58494e-26 0.00692069 -0.0268129
-0.0196676 5.42101e-20 0.00594439 0.150326
0.0196676 -2.71051e-20 0.00594439 -0.0268128
-0.01902 0 0.00784265 0.150664
0.01902 -2.71051e-20 0.00784265 -0.0268133
-0.0205868 5.42101e-20 0.000581102 0.15038
0.0205869 0 0.000581094 -0.0268056
-0.0188712 0 0.00831333 0.150618
0.0188712 2.71051e-20 0.00831333 -0.0268132
-0.020095 4.74981e-20 0.00487938 0.150053
0.020095 1.80999e-20 0.00487938 -0.0268124
-0.0206115 -5.42101e-20 0.00176879 0.1504
0.0206115 5.42101e-20 0.00176879 -0.0268066
-0.0188391 0 0.00862624 0.150515
0.0188391 8.27181e-25 0.00862624 -0.0268139
-0.0193074 -1.03398e-25 0.00756039 0.150524
0.0193074 0 0.00756039 -0.0268134
-0.0196738 -2.71051e-20 0.00657561 0.150341
0.0196738 -2.71051e-20 0.00657561 -0.0268132
-0.0200001 0 0.00561439 0.150119
0.0200001 3.96488e-21 0.00561439 -0.026813
0.0206346 1.0842e-19 0.00301452 -0.0268094
-0.0206346 5.42101e-20 0.00301452 0.150227
0.0196391 5.42101e-20 0.00723369 -0.0268135
-0.0196391 0 0.00723369 0.150377
0.0192519 -2.06795e-25 0.00823155 -0.026814
-0.0192519 0 0.00823155 0.15048
-0.0200715 -3.31551e-21 0.00617586 0.150121
0.0200715 6.46235e-27 0.00617586 -0.0268134
0.0191557 2.71051e-20 0.00860727 -0.0268146
-0.0191557 2.71051e-20 0.00860727 0.150411
-0.0206641 -1.0842e-19 0.00428079 0.149921
0.0206641 5.42101e-20 0.00428079 -0.0268121
0.0191433 8.27181e-25 0.00894011 -0.0268148
-0.0191433 0 0.00894011 0.150346
0.0196055 0 0.00788712 -0.0268139
-0.0196055 0 0.00788712 0.150369
-0.0199746 -7.72817e-21 0.0069041 0.150169
0.0199746 1.29247e-26 0.0069041 -0.0268137
-0.0211723 1.65436e-24 1.19397e-08 0.150376
0.0211724 0 4.52929e-09 -0.0268043
-0.0212048 -1.65436e-24 0.00115269 0.15037
0.0212049 0 0.00115268 -0.0268049
0.0194188 -2.94596e-20 0.0086858 -0.0268147
-0.0194188 -3.17377e-20 0.0086858 0.150339
-0.0199446 -5.16988e-26 0.00755308 0.150193
0.0199446 0 0.00755308 -0.026814
0.0203041 2.71051e-20 0.00658402 -0.026814
-0.0203041 0 0.00658402 0.149957
-0.0212384 8.27181e-25 0.0023678 0.150203
0.0212384 0 0.0023678 -0.0268071
0.0206408 0 0.00559143 -0.0268137
-0.0206408 -5.42101e-20 0.00559143 0.149687
0.0196393 0 0.00847876 -0.0268146
-0.0196393 -5.42101e-20 0.00847876 0.150323
0.0194792 2.71051e-20 0.0089564 -0.0268149
-0.0194792 2.71051e-20 0.0089564 0.15028
-0.0194172 -8.27181e-25 0.00928185 0.150199
0.0194172 0 0.00928186 -0.0268154
-0.0202831 2.71051e-20 0.00722169 0.150003
0.0202831 2.71051e-20 0.00722169 -0.0268142
-0.0199297 2.75656e-20 0.00819016 0.150189
0.0199297 -1.03398e-25 0.00819016 -0.0268146
-0.0206294 4.84268e-21 0.00624638 0.149684
0.0206294 6.46235e-27 0.00624638 -0.0268139
-0.0212679 0 0.00364055 0.149825
0.0212679 0 0.00364055 -0.0268102
0.0202625 2.71051e-20 0.00786089 -0.0268145
-0.0202625 5.42101e-20 0.00786089 0.150023
-0.0206173 -1.84924e-20 0.00689381 0.149734
0.0206173 0 0.00689381 -0.0268142
-0.0198766 0 0.00887843 0.150159
0.0198766 -2.06795e-25 0.00887843 -0.0268153
-0.0217896 -5.42101e-20 0.000568406 0.150373
0.0217897 -5.42101e-20 0.000568406 -0.0268029
-0.0212798 1.03398e-25 0.00493138 0.149439
0.0212798 -1.03398e-25 0.00493138 -0.0268126
0.0197714 0 0.0092976 -0.0268159
-0.0197714 2.71051e-20 0.0092976 0.150118
-0.019669 0 0.00964181 0.150086
0.019669 0 0.00964181 -0.0268162
-0.0218374 0 0.00173743 0.150327
0.0218374 -1.0842e-19 0.00173743 -0.0268045
-0.0205995 0 0.0075318 0.149789
0.0205995 0 0.0075318 -0.0268145
0.0209456 0 0.00655441 -0.0268138
-0.0209456 -2.71051e-20 0.00655441 0.149424
-0.0202362 -5.42101e-20 0.00851518 0.150025
0.0202362 -2.71051e-20 0.00851518 -0.0268151
0.021882 5.42101e-20 0.00297573 -0.0268079
-0.021882 0 0.00297573 0.149854
-0.0205755 0 0.00817149 0.149838
0.0205755 5.16988e-26 0.00817149 -0.026815
-0.0209362 5.42101e-20 0.00721472 0.149549
0.0209362 -2.71051e-20 0.00721472 -0.0268149
0.0199576 0 0.00972223 -0.0268165
-0.0199576 0 0.00972223 0.150054
-0.0200954 8.34625e-21 0.00945691 0.150057
0.0200954 4.1359e-25 0.00945691 -0.0268162
0.0213454 -3.79224e-21 0.00613816 -0.0268139
-0.0213454 0 0.00613817 0.149219
-0.0202913 0 0.0091201 0.150026
0.0202913 0 0.0091201 -0.0268158
-0.0199226 -8.27181e-25 0.0100021 0.150083
0.0199226 -8.27181e-25 0.0100021 -0.0268168
-0.0219071 5.42101e-20 0.00426287 0.149295
0.0219071 -1.6263e-19 0.00426287 -0.0268112
0.0212536 0 0.00687047 -0.0268144
-0.0212536 0 0.00687047 0.149321
-0.0209198 2.71051e-20 0.00783 0.14959
0.0209198 0 0.00783 -0.0268146
-0.0222349 2.06795e-25 0.00231824 0.150014
-0.0223699 0 8.59575e-09 0.150368
0.02237 0 1.06529e-08 -0.0268009
-0.0205825 4.88367e-21 0.00880038 0.149892
0.0205825 -1.03398e-25 0.00880038 -0.0268157
-0.0223673 5.16988e-26 0.00111511 0.150313
-0.0224227 5.16988e-26 0.00107137 0.150312
-0.0201854 3.83857e-20 0.00982489 0.150064
0.0201854 8.94679e-21 0.00982489 -0.0268167
-0.0224248 -7.65802e-20 0.00111325 0.15031
0.0224249 0 0.00111326 -0.0268016
-0.0222602 -1.03398e-25 0.00359676 0.149465
0.0208973 5.42101e-20 0.00847326 -0.0268158
-0.0208973 0 0.00847326 0.149712
-0.020392 -2.71051e-20 0.00967037 0.150026
0.020392 0 0.00967037 -0.0268166
0.0202271 0 0.0100702 -0.026817
-0.0202271 -5.42101e-20 0.0100702 0.150111
0.0224885 -8.27181e-25 0.00230561 -0.0268042
-0.0224885 4.35242e-20 0.00230562 0.149965
-0.0219242 -5.42101e-20 0.0055407 0.148858
0.0219242 0 0.0055407 -0.0268134
-0.0206219 2.06795e-25 0.00940243 0.149958
0.0206219 0 0.00940243 -0.0268164
0.0201769 0 0.0103635 -0.0268175
-0.0201769 0 0.0103635 0.150076
-0.0214053 0 0.00750768 0.149313
0.0214053 6.51345e-21 0.00750768 -0.0268148
-0.0212331 -1.26051e-20 0.0081501 0.149504
0.0212331 -2.58494e-26 0.0081501 -0.0268152
-0.0227454 8.27181e-25 -8.97294e-36 0.150371
-0.0222376 0 0.00490354 0.148963
0.0225307 0 0.00358481 -0.0268078
-0.0225307 4.80054e-20 0.00358482 0.149367
-0.0209306 -2.71051e-20 0.009079 0.149799
0.0209306 0 0.009079 -0.0268161
-0.0205788 -3.71061e-20 0.0100354 0.15004
0.0205788 0 0.0100354 -0.0268173
0.0218832 1.0842e-19 0.00683353 -0.0268144
-0.0218832 -5.42101e-20 0.00683353 0.148786
-0.0220903 0 0.00617273 0.148783
-0.02047 0 0.0103922 0.150041
0.02047 2.71051e-20 0.0103922 -0.026818
-0.0229944 -5.42101e-20 0.000536085 0.150364
0.0229945 0 0.000536078 -0.0267988
-0.0213123 -1.20898e-21 0.00869943 0.149576
0.0213123 -2.58494e-26 0.00869943 -0.0268161
-0.020909 -2.71051e-20 0.00972034 0.14997
0.020909 0 0.00972034 -0.026817
0.0225437 0 0.00489464 -0.0268109
-0.0225437 1.64738e-21 0.00489464 0.14881
0.0204318 0 0.0107257 -0.0268183
-0.0204318 0 0.0107257 0.150093
-0.0230802 5.42101e-20 0.00165832 0.150173
0.0230803 -5.42101e-20 0.00165833 -0.0268003
-0.0212246 0 0.00940472 0.149783
0.0212246 -5.16988e-26 0.00940472 -0.0268169
0.0207156 3.86198e-20 0.0104897 -0.0268182
-0.0207156 -3.64125e-21 0.0104897 0.150076
0.0209353 0 0.0102994 -0.0268179
-0.0209353 -2.71051e-20 0.0102994 0.150042
-0.0231589 0 0.00287977 0.149499
0.0231589 0 0.00287976 -0.0268042
-0.0218885 5.42101e-20 0.00814494 0.149021
0.0218885 5.42101e-20 0.00814494 -0.0268152
0.0225301 -1.6632e-20 0.00619313 -0.0268128
-0.0225301 -2.90288e-20 0.00619313 0.148526
0.0207613 5.42101e-20 0.0107635 -0.0268186
-0.0207613 0 0.0107635 0.150145
-0.0215469 0 0.00909429 0.149544
0.0215469 0 0.00909429 -0.0268169
0.0212144 0 0.0100278 -0.0268177
-0.0212144 -4.58186e-21 0.0100278 0.14997
0.020687 -8.27181e-25 0.0110884 -0.026819
-0.020687 0 0.0110884 0.150138
-0.0231865 0 0.00419035 0.14882
0.0231866 0 0.00419035 -0.0268078
0.0218725 0 0.00877017 -0.0268158
-0.0218725 0 0.00877017 0.149335
-0.0235735 0 1.78781e-08 0.150377
0.0235737 0 1.46761e-08 -0.0267956
-0.0215348 -2.71051e-20 0.00971336 0.149818
0.0215348 -2.71051e-20 0.00971337 -0.0268176
-0.0224336 -2.42338e-27 0.00748097 0.148671
-0.0236424 -4.84893e-20 0.00102426 0.150198
0.0236425 -3.30872e-24 0.00102426 -0.0267962
0.0211543 4.7385e-21 0.0107041 -0.0268188
-0.0211543 -1.03398e-25 0.0107041 0.150102
0.0225191 2.6493e-20 0.00747875 -0.0268142
-0.0225191 5.12412e-20 0.00747875 0.148617
0.0218553 2.58494e-26 0.00939598 -0.0268169
-0.0218553 1.29247e-26 0.00939598 0.149586
0.021043 0 0.011115 -0.0268195
-0.021043 2.71051e-20 0.011115 0.150131
-0.0231776 5.42101e-20 0.0055198 0.148271
0.0231777 0 0.00551979 -0.0268108
0.0209424 0 0.0114514 -0.02682
-0.0209424 -6.46235e-27 0.0114514 0.150142
0.0215108 -2.71051e-20 0.0103577 -0.0268182
-0.0215108 2.71051e-20 0.0103577 0.150041
-0.0237791 -1.4919e-20 0.00216485 0.149722
0.0237792 0 0.00216486 -0.0267989
-0.0209529 -8.40105e-26 0.0114663 0.150143
-0.0225545 0 0.00806049 0.148827
-0.0221872 5.42101e-20 0.00906953 0.149322
0.0221872 -2.71051e-20 0.00906953 -0.026815
-0.0211228 -6.46235e-27 0.0113806 0.150145
0.0218425 0 0.0100258 -0.0268181
-0.0218425 0 0.0100258 0.149857
-0.0238309 -1.33705e-20 0.00346141 0.14909
0.023831 0 0.00346141 -0.0268033
-0.021348 -6.46235e-27 0.0112435 0.150147
-0.024136 0 0.000451688 0.150391
0.0241362 -1.0842e-19 0.000451688 -0.0267924
-0.0231587 0 0.00682378 0.148186
0.0231587 -1.0842e-19 0.00682378 -0.0268124
0.0213633 2.06795e-25 0.0112862 -0.0268201
-0.0213633 -3.31821e-20 0.0112862 0.15015
-0.0212283 0 0.0115413 0.150153
0.0212283 -2.71051e-20 0.0115413 -0.0268205
-0.0218459 -6.46235e-27 0.0103407 0.149959
0.0215589 0 0.0109592 -0.0268196
-0.0215589 -2.71051e-20 0.0109592 0.150142
-0.0221622 2.71051e-20 0.00970256 0.149657
0.0221622 0 0.00970256 -0.0268181
0.0225915 0 0.00866816 -0.0268154
-0.0225915 -1.65035e-20 0.00866816 0.149045
-0.0225553 -1.61559e-27 0.00893135 0.149183
-0.0218006 -3.23117e-26 0.0106547 0.150063
0.021198 0 0.0118146 -0.0268212