# U  POINT_DATA 25961
# x  y  z  U_x  U_y  U_z
0.01 0 8.31199e-08 -5.78601e-19 9.94178e-17 1.0308e-18
-0.01 0 8.31199e-08 -1.20517e-17 5.8766e-17 -3.04988e-17
-0.01 0 0.00067832 1.00208e-12 -3.62985e-12 2.53962e-13
0.01 0 0.00067832 4.16543e-14 1.38064e-11 7.2035e-14
0.0100157 7.75482e-26 0.000677127 -5.67446e-08 4.18296e-06 1.80045e-08
-0.01 0 0.00137372 1.12832e-11 -7.25009e-11 2.92638e-11
0.01 0 0.00137372 1.16278e-12 3.96618e-10 -4.18894e-13
0.0100746 0 0.00135804 -6.45075e-07 4.08117e-05 -2.07616e-07
-0.01 0 0.002087 3.22361e-12 -3.01165e-12 5.25048e-12
0.01 0 0.002087 -1.53998e-17 2.07867e-15 -2.25597e-17
-0.0102613 0 0.000329046 -1.01247e-06 1.36218e-06 -2.37595e-06
0.0102613 2.71051e-20 0.000329046 -9.05113e-08 1.67162e-05 2.14912e-07
0.0102561 2.71051e-20 0.000988366 6.27666e-07 0.000173318 6.37082e-07
-0.0102561 -2.71051e-20 0.000988366 1.0164e-05 -9.98702e-06 3.52806e-06
0.0102356 2.71051e-20 0.00161953 2.6751e-07 0.000161625 -1.1177e-06
-0.0102356 0 0.00161953 -8.73705e-07 -1.09057e-05 2.13941e-05
0.0105293 -4.1359e-25 8.89198e-08 -5.80154e-13 5.32698e-11 6.23427e-13
-0.0105293 0 8.68458e-08 7.13645e-14 -7.04901e-13 -3.43663e-13
0.0105282 -2.06795e-25 0.000279278 -8.31229e-07 6.12745e-05 2.63741e-07
-0.0105268 -2.08425e-20 0.000638363 2.48428e-05 -8.21167e-06 3.99869e-06
0.0105268 -1.52449e-21 0.000638362 -1.90032e-06 0.000140083 6.02952e-07
-0.0105159 1.65436e-24 0.0012653 4.29691e-05 -2.07039e-05 2.71685e-05
0.0105159 -2.13925e-20 0.0012653 -4.45914e-06 0.000282114 -1.43516e-06
-0.0105028 -1.06839e-20 0.0017228 2.12315e-05 -1.98372e-05 3.4579e-05
0.0105028 -1.34979e-20 0.0017228 -4.28571e-06 0.000256055 -3.47845e-06
-0.010496 2.71051e-20 0.00202291 -5.71394e-06 -1.30165e-05 1.91386e-05
0.010496 -2.71051e-20 0.00202291 -2.97597e-06 0.0001928 -3.11226e-06
0.0104977 0 0.00235078 -2.77382e-10 1.06224e-08 -2.32319e-10
-0.0104977 0 0.00235077 -8.82841e-10 -2.06909e-09 1.5005e-09
-0.0108033 2.71051e-20 0.000314595 1.8837e-06 4.16606e-08 -1.81114e-06
0.0108033 2.71051e-20 0.000314594 -1.7024e-07 9.68206e-06 5.18013e-08
-0.0108031 2.71051e-20 0.00093799 8.69389e-05 -2.41274e-05 1.64687e-05
0.0108031 0 0.00093799 -7.78907e-06 0.000358736 1.49456e-06
-0.01079 -2.71051e-20 0.00152732 7.46577e-05 -3.7038e-05 6.57648e-05
0.01079 -2.71051e-20 0.00152732 -1.07173e-05 0.000428365 -6.47568e-06
-0.0110754 0 7.36178e-09 1.46047e-11 -1.5426e-11 -9.12145e-12
0.0110754 0 6.46274e-09 -1.48625e-12 3.62796e-11 2.19821e-13
0.01108 0 0.000208299 -2.49645e-06 7.16126e-05 3.27695e-07
-0.0110889 0 0.000613667 7.95496e-05 -1.63033e-05 1.26613e-05
0.0110889 -2.63209e-21 0.000613666 -7.35479e-06 0.000210978 9.65422e-07
-0.0108991 2.71051e-20 0.00228385 -2.91454e-05 -2.20784e-05 4.27696e-05
0.0108991 5.42101e-20 0.00228385 -8.49024e-06 0.000231826 -6.71485e-06
0.010988 -2.7115e-20 0.00190078 -1.67702e-05 0.000398693 -9.30495e-06
-0.010988 0 0.00190081 5.09479e-05 -3.78522e-05 7.58098e-05
-0.0110831 -1.65436e-24 0.00123268 0.000141643 -4.14173e-05 6.22043e-05
0.0110831 1.26559e-20 0.00123266 -1.78002e-05 0.00047134 -3.88036e-06
0.0109863 0 0.00260985 -7.99871e-10 1.83023e-08 -6.00588e-10
-0.0109863 6.61744e-24 0.00260985 -3.21486e-09 -3.67619e-09 4.2395e-09
0.0113733 0 0.000305239 -5.3254e-07 9.60778e-06 3.18002e-08
-0.0113733 0 0.000305239 4.29552e-06 -7.11991e-07 -1.64953e-06
-0.0113913 0 0.000918847 0.000228215 -4.10974e-05 3.82356e-05
0.0113913 0 0.000918847 -2.12141e-05 0.000474631 2.32294e-06
0.0112123 1.12761e-20 0.00231934 -1.73782e-05 0.00033055 -1.11432e-05
-0.0112123 2.62713e-21 0.00231934 -1.38494e-05 -3.36378e-05 8.09021e-05
-0.0113682 -2.71051e-20 0.00155884 0.000181741 -6.42439e-05 0.000129921
0.0113682 -2.71051e-20 0.00155884 -3.21258e-05 0.000629537 -1.29547e-05
0.0114039 -5.42101e-20 0.00209577 -3.09574e-05 0.000529962 -1.7553e-05
-0.0114039 2.71051e-20 0.00209577 4.60872e-05 -5.48584e-05 0.000125672
0.011595 2.58494e-26 2.35794e-09 0 0 0
0.0113392 -2.71051e-20 0.00255892 -1.25781e-05 0.000230423 -9.09462e-06
-0.0113392 0 0.00255892 -5.73438e-05 -2.39634e-05 7.33059e-05
-0.0116471 0 3.40354e-09 1.29317e-11 -4.349e-12 -6.60347e-12
0.0116471 0 2.32037e-09 -2.69006e-13 3.73647e-12 3.32535e-15
-0.0116865 0 0.000598049 0.000172061 -2.40848e-05 2.437e-05
0.0116865 2.92168e-20 0.000598049 -1.46453e-05 0.000260201 1.32379e-06
-0.0117045 0 0.00122297 0.000323988 -6.23659e-05 9.23452e-05
0.0117045 -1.815e-20 0.00122297 -3.8496e-05 0.000618031 -7.20851e-06
0.0114599 0 0.00285977 -1.86587e-09 2.48728e-08 -1.1621e-09
-0.0114598 0 0.00285975 -6.46309e-09 -4.85477e-09 8.7455e-09
0.0117133 2.22677e-20 0.00184588 -4.82581e-05 0.000679599 -2.15234e-05
-0.0117133 3.30872e-24 0.00184588 0.00018802 -7.08582e-05 0.000132383
0.0116596 1.99913e-20 0.00239949 -3.53995e-05 0.000462701 -1.9873e-05
-0.0116596 0 0.00239948 -4.55655e-06 -4.67003e-05 0.000121349
0.0119676 2.71051e-20 0.000293859 -9.6272e-07 9.7935e-06 4.77268e-08
-0.0119676 2.71051e-20 0.000293859 5.60656e-06 -3.62276e-07 -2.99144e-06
-0.0120019 -1.03398e-25 9.94023e-10 0 0 0
-0.0120131 2.71051e-20 0.000895955 0.000460253 -5.55164e-05 6.5475e-05
0.0120131 0 0.000895956 -3.66926e-05 0.000560761 2.96516e-06
0.0120433 5.42101e-20 0.00152444 -6.42055e-05 0.000811592 -2.1655e-05
-0.0120433 2.71051e-20 0.00152444 0.000422902 -8.9254e-05 0.000138496
-0.0118604 -5.42101e-20 0.00273055 -0.000109701 -3.47941e-05 0.000153783
0.0118604 -2.71051e-20 0.00273056 -3.38946e-05 0.000363314 -2.00029e-05
0.0120387 -2.71051e-20 0.00217273 -6.77853e-05 0.000763307 -3.44924e-05
-0.0120387 0 0.00217273 0.00011568 -7.68064e-05 0.000136164
0.0122418 -4.1359e-25 3.11206e-09 -6.77397e-12 6.91679e-11 6.05276e-13
-0.0122418 -1.03398e-25 1.04582e-09 1.3502e-11 9.8377e-14 -7.86347e-12
-0.0122568 2.06795e-25 0.000136244 6.47655e-05 -7.20335e-06 8.21679e-06
0.0119119 0 0.00310459 -2.52387e-09 2.5257e-08 -1.4832e-09
-0.0119119 6.61744e-24 0.00310459 -7.92907e-09 -4.57169e-09 7.95679e-09
0.0123043 -2.01443e-20 0.000568947 -2.0957e-05 0.000291615 1.57311e-06
-0.0123043 -1.23721e-20 0.000568945 0.000270456 -3.0081e-05 3.43128e-05
0.01236 5.58512e-21 0.00118123 -6.14898e-05 0.000732745 -1.18096e-05
-0.01236 -8.27181e-25 0.00118125 0.00053318 -7.93913e-05 3.80255e-05
-0.0124541 -1.03398e-25 1.48697e-10 0 0 0
0.0123814 1.50017e-20 0.00184432 -8.79472e-05 0.000889132 -3.63299e-05
-0.0123814 0 0.00184434 0.000366622 -9.22458e-05 -2.86311e-05
-0.0125711 2.71051e-20 0.000269458 9.37134e-06 -1.65814e-07 -6.1345e-06
0.0125711 -2.71051e-20 0.000269458 -1.13491e-06 1.05191e-05 2.27521e-07
0.0123374 -1.70498e-20 0.00258488 -7.18662e-05 0.000646548 -3.81183e-05
-0.0123374 -5.93254e-21 0.00258488 4.55061e-05 -5.89356e-05 -1.8176e-05
0.0122817 0 0.00299995 -4.0997e-05 0.000358771 -2.44883e-05
-0.0122817 -2.71051e-20 0.00299995 -0.000139324 -3.14927e-05 9.64819e-05
0.0126475 -2.71051e-20 0.000839063 -4.62383e-05 0.000602485 3.1346e-06
-0.0126475 0 0.000839063 0.000622384 -6.60933e-05 8.33399e-05
0.0123472 -3.30872e-24 0.00333734 -2.02368e-09 1.58617e-08 -1.17088e-09
-0.0123472 0 0.00333734 -5.35562e-09 -2.58975e-09 4.33721e-09
-0.0127108 2.71051e-20 0.0014705 0.000624744 -0.000107235 -0.000134144
0.0127108 2.71051e-20 0.0014705 -9.92566e-05 0.000960525 -3.21593e-05
0.0128491 1.65436e-24 5.01678e-09 -1.13068e-12 1.5953e-10 1.51786e-12
-0.0128491 0 1.4199e-09 2.32268e-12 -1.74097e-12 1.65948e-11
0.0127172 2.71051e-20 0.00217074 -0.000120938 0.00102331 -5.68797e-05
-0.0127172 0 0.00217074 0.000311627 -9.61976e-05 -0.000258728
0.0129129 1.7772e-20 0.000505056 -2.04407e-05 0.000284812 -6.50288e-07
-0.0129129 0 0.000505053 0.000220537 -3.25443e-05 -3.67259e-05
0.0125922 1.71011e-20 0.00303079 -6.42307e-05 0.000487908 -3.67316e-05
-0.0125922 -2.95667e-20 0.00303079 -5.6551e-05 -3.93043e-05 -9.35415e-06
0.0130203 -4.5313e-21 0.00108239 -7.59226e-05 0.000778552 -1.71483e-05
-0.0130203 0 0.0010824 0.000476535 -8.83793e-05 -0.000373677
0.012793 5.42101e-20 0.00278388 -0.000103638 0.000793654 -5.79401e-05
-0.012793 0 0.00278388 9.60381e-05 -6.22598e-05 -0.000250643
0.0127108 -5.42101e-20 0.00327268 -4.94865e-05 0.000325743 -2.85527e-05
-0.0127108 2.71051e-20 0.00327268 -0.000120362 -2.53677e-05 0.000114957
0.0131383 2.71051e-20 0.000218112 9.17633e-07 1.13647e-05 9.52446e-08
-0.0131383 2.71051e-20 0.000218112 -2.69558e-06 -3.36514e-07 1.34285e-05
0.013073 -1.26559e-22 0.0017651 -0.000130062 0.0010702 -4.99005e-05
-0.013073 0 0.00176511 0.000436616 -0.000105763 -0.000883844
0.0127674 0 0.00356123 -1.1613e-09 7.228e-09 -6.60696e-10
-0.0127674 -1.65436e-24 0.00356123 -1.32296e-09 -9.79682e-10 -7.42577e-11
-0.0132689 0 0.000719701 0.000278357 -6.68262e-05 -0.000239723
0.0132689 0 0.0007197 -3.75151e-05 0.000542964 -6.05838e-06
0.0130872 1.59067e-21 0.00246807 -0.000143049 0.00104285 -7.05377e-05
-0.0130872 0 0.00246808 0.000336838 -8.24516e-05 -0.00101171
0.0133746 2.37649e-20 0.000406313 -1.2742e-05 0.000185256 -1.36685e-06
-0.0133746 1.82459e-20 0.000406306 2.7069e-05 -2.67378e-05 -4.9116e-05
0.0134599 0 1.02233e-08 -1.86146e-11 2.70803e-10 2.76203e-11
-0.0134599 8.27181e-25 3.72109e-09 -1.24274e-09 -7.95328e-11 3.62774e-10
0.0130916 1.83692e-20 0.00314268 -0.000102115 0.00065163 -5.63324e-05
-0.0130916 2.06795e-25 0.00314268 0.000192692 -4.24082e-05 -0.000606598
-0.0134186 -2.71051e-20 0.00131377 0.000391116 -0.000115533 -0.00120691
0.0134186 2.71051e-20 0.00131377 -0.000123788 0.00102914 -3.51036e-05
0.013075 0 0.00349045 -5.97766e-05 0.000330981 -3.43974e-05
-0.013075 0 0.00349045 -2.32386e-05 -2.04509e-05 -0.000122439
-0.013162 4.1359e-25 0.00325434 0.000198487 -3.74992e-05 -0.000585051
-0.0134232 0 0.00207248 0.000400562 -0.00010445 -0.00191558
0.0134232 5.42101e-20 0.00207248 -0.000174459 0.00125744 -7.41352e-05
0.0132078 0 0.00332703 -9.3312e-05 0.000567927 -5.23339e-05
-0.0132595 0 0.00312606 0.000415423 -4.69484e-05 -0.00124091
-0.0136984 0 0.000300358 -0.000196567 -1.40914e-05 7.80073e-05
0.0136984 -2.71051e-20 0.000300357 -2.10263e-06 6.79925e-06 1.84437e-06
0.013418 -5.42101e-20 0.00277569 -0.000176567 0.00112405 -9.34622e-05
-0.013418 0 0.00277569 0.00055165 -7.00366e-05 -0.00170455
0.0131762 -2.06795e-25 0.0037788 -1.56945e-10 8.99636e-10 -9.28152e-11
-0.0131762 0 0.0037788 2.33734e-11 -1.9572e-11 -7.66674e-11
-0.0131848 5.16988e-26 0.00376504 1.16371e-05 -1.39526e-06 -2.91325e-05
0.0133596 0 0.00311615 -0.00013718 0.000838223 -6.96557e-05
-0.0131928 -1.03398e-25 0.00378881 0 0 0
0.0132283 0 0.00369585 -2.7627e-05 0.000157348 -1.5831e-05
-0.013523 -2.06795e-25 0.00243331 0.000482011 -8.71218e-05 -0.00264163
0.0137612 -1.41729e-20 0.000786143 -5.93021e-05 0.000505625 -1.01969e-05
-0.0137612 2.14405e-20 0.000786151 -0.000204605 -7.05378e-05 -0.000977713
-0.0133341 0 0.00352736 0.000212656 -2.54964e-05 -0.000532366
0.0133341 -3.4254e-20 0.00352736 -8.37464e-05 0.000476972 -4.79891e-05
0.0132767 -2.06795e-25 0.00383951 0 0 0
0.0137678 -5.15334e-22 0.00165537 -0.000165464 0.00118203 -4.8771e-05
-0.0137678 0 0.00165538 2.02761e-05 -0.00011 -0.00280953
-0.013482 2.71051e-20 0.00331696 0.000527095 -4.11268e-05 -0.00124143
0.013482 0 0.00331696 -0.000135581 0.000789676 -7.47448e-05
-0.0137612 0 0.00191385 0.000202848 -0.00010304 -0.00303909
0.0137268 -2.58494e-26 0.00241705 -0.00020277 0.00130529 -8.36137e-05
0.013749 0 0.00239287 -0.000203624 0.00131025 -8.30125e-05
-0.0137484 0 0.00241533 0.000557082 -8.95368e-05 -0.00348449
0.0137484 -2.58494e-26 0.00241533 -0.000204786 0.00131415 -8.40552e-05
-0.013458 2.71051e-20 0.00374223 0.000133584 -1.50271e-05 -0.000234625
0.013458 -5.42101e-20 0.00374223 -5.61102e-05 0.000311611 -3.49172e-05
0.0140709 0 3.70269e-08 -1.27429e-10 3.4341e-10 8.06639e-11
-0.0140709 0 9.99199e-09 -7.97641e-09 -1.05403e-09 -3.67971e-09
-0.0137488 2.11378e-20 0.00307762 0.00106473 -6.01834e-05 -0.00309004
0.0137488 -1.73452e-20 0.00307762 -0.000188091 0.00110914 -8.9e-05
-0.0135651 8.27181e-25 0.00401367 5.99168e-09 1.69053e-10 -7.10115e-09
0.0135651 0 0.00401367 -6.06699e-10 3.155e-09 -3.96179e-10
0.0141231 2.71051e-20 0.00120897 -0.00013946 0.000994626 -1.55075e-05
-0.0141231 0 0.00120897 -0.000711633 -0.000115911 -0.00311898
-0.0137164 -1.92146e-20 0.00361036 0.000879981 -3.06808e-05 -0.00166402
0.0137164 7.00457e-21 0.00361036 -0.000118907 0.000663786 -6.41958e-05
0.014089 0 0.00201377 -0.000221378 0.00142937 -6.83424e-05
-0.014089 2.71051e-20 0.00201377 -5.03136e-05 -0.000104408 -0.0049434
-0.0142657 5.42101e-20 0.000418222 -0.000826237 -4.84287e-05 -0.000554277
0.0142657 2.71051e-20 0.000418221 -2.1853e-06 5.43831e-06 9.73703e-07
-0.014069 -2.71051e-20 0.0027392 0.00126306 -8.01409e-05 -0.00539314
0.014069 0 0.0027392 -0.000246265 0.00144652 -9.89523e-05
0.0138967 0 0.00392747 -9.25588e-05 0.000487923 -6.09436e-05
-0.0138967 0 0.00392747 0.000999476 -1.68269e-05 -0.0011201
0.0140496 0 0.00340311 -0.000203179 0.0011325 -9.12052e-05
-0.0140496 0 0.00340311 0.00199561 -5.28402e-05 -0.00434759
-0.0143919 -6.46235e-27 0.00161694 -0.00111687 -0.000108929 -0.00517409
0.014441 0 0.00161392 -0.000208968 0.00126853 -4.12282e-05
-0.014441 2.83767e-21 0.00161391 -0.00120639 -0.000108845 -0.00536024
-0.0144454 -1.16322e-25 0.00157999 -0.00124072 -0.000107747 -0.00523949
0.0145429 1.93395e-20 0.000823379 -8.06005e-05 0.000512279 -1.07252e-05
-0.0145429 0 0.000823363 -0.00200643 -8.32687e-05 -0.00254589
-0.0139237 0 0.00428406 1.79004e-08 3.10617e-10 -2.38901e-08
0.0139237 -1.65436e-24 0.00428406 -1.0105e-09 5.66895e-09 -6.00226e-10
0.0143988 2.58494e-26 0.0023483 -0.000271464 0.00153461 -6.48408e-05
-0.014397 9.51671e-21 0.00237994 0.000476648 -9.62858e-05 -0.00703939
0.014397 0 0.00237994 -0.000274156 0.00154608 -6.58582e-05
0.0144898 0 0.00237022 -0.000287309 0.00157031 -5.73383e-05
-0.0143653 -4.95068e-21 0.00309536 0.00220167 -7.71711e-05 -0.00701647
0.0143653 0 0.00309537 -0.00026677 0.00145497 -7.37035e-05
0.0147022 0 4.94613e-08 -1.3204e-10 3.52725e-10 3.19753e-10
-0.0147022 -1.65436e-24 1.20861e-08 -4.02196e-08 -4.86036e-09 -2.01714e-08
-0.014305 3.55117e-20 0.00382188 0.00263819 -4.52357e-05 -0.00472323
0.014305 8.27181e-25 0.00382188 -0.000160365 0.000926846 -5.1709e-05
0.0142451 0 0.00421792 -7.43436e-05 0.000478848 -3.71562e-05
-0.0142451 0 0.00421792 0.00158219 -2.06103e-05 -0.0023277
0.0147298 -8.13152e-20 0.00200539 -0.000290816 0.00157336 -4.69521e-05
-0.0147298 0 0.00200539 -0.000836578 -0.000105246 -0.00820927
-0.0148165 0 0.00124392 -0.00323342 -0.000109879 -0.00502292
0.0148165 0 0.00124392 -0.000180453 0.00106472 -3.44587e-05
-0.0149179 1.03398e-25 0.000896435 -0.00307434 -8.19152e-05 -0.00303723
-0.0149609 0 2.9798e-17 0 0 0
0.014711 -2.71051e-20 0.00272495 -0.000336795 0.00173023 -4.94425e-05
-0.014711 -2.71051e-20 0.00272495 0.00147912 -9.54283e-05 -0.0095642
-0.0149557 0 0.000461616 -0.00320981 -6.0927e-05 -0.00149181
0.0149557 0 0.000461611 -1.72973e-06 3.71965e-06 6.62521e-06
-0.0142802 0 0.00455258 2.70496e-08 2.69294e-10 -3.23012e-08
0.0142802 -8.27181e-25 0.00455258 -6.82516e-10 4.79143e-09 -3.33339e-10
0.0146561 0 0.00344874 -0.000286772 0.00153638 -5.34264e-05
-0.0146561 2.71051e-20 0.00344874 0.00402009 -8.20904e-05 -0.00897849
-0.014516 -1.6116e-20 0.00427159 0.00309588 -3.37124e-05 -0.00427205
0.014516 8.44882e-21 0.0042716 -9.79038e-05 0.00067868 -2.6719e-05
0.0150861 3.43148e-20 0.00165189 -0.000284341 0.00139231 -1.98654e-05
-0.0150861 -1.64128e-21 0.00165188 -0.00282922 -0.000103497 -0.00664541
0.014707 0 0.0040482 -0.000168311 0.00112118 -1.84344e-05
-0.014707 -2.71051e-20 0.0040482 0.00486848 -6.08981e-05 -0.00758452
0.0151175 0 0.00230446 -0.000376268 0.00173423 2.85606e-07
-0.0151175 1.62417e-21 0.00230446 -0.00039383 -9.98595e-05 -0.00924428
0.0150684 -2.06795e-25 0.00261829 -0.000376769 0.00175832 7.63441e-06
0.0146108 0 0.00452168 -5.36333e-05 0.000451492 -2.43686e-05
-0.0146108 0 0.00452168 0.00288918 -2.05686e-05 -0.00301365
-0.0149933 -3.80007e-20 0.00309786 0.00290406 -9.59409e-05 -0.0105235
0.0149933 4.1359e-25 0.00309786 -0.000377534 0.00179512 1.88642e-05
0.0153398 2.56277e-20 0.000978644 -0.000137911 0.000644263 -8.40199e-07
-0.0153398 1.2094e-20 0.000978635 -0.0042756 -8.03927e-05 -0.00358993
0.0153745 0 1.29805e-08 3.16994e-11 2.4308e-10 9.05399e-11
-0.0153745 0 2.22893e-08 -1.00425e-07 4.87087e-09 -3.5263e-08
-0.0146354 0 0.00482017 2.55359e-08 1.63569e-10 -2.81488e-08
0.0146354 0 0.00482017 -2.60711e-10 2.86138e-09 -5.62239e-11
-0.0149803 6.29567e-21 0.0037633 0.00546183 -8.46454e-05 -0.0100849
0.0149803 -8.27181e-25 0.0037633 -0.000272762 0.00154587 3.4176e-05
0.0153272 0 0.00275021 -0.000463578 0.00195999 6.70981e-05
-0.0153272 -2.71051e-20 0.00275021 0.00110782 -0.000103334 -0.0113762
-0.0149658 -1.06954e-21 0.00441692 0.00558013 -5.58268e-05 -0.0073281
0.0149658 8.27181e-25 0.00441693 -0.000107158 0.000932191 3.26721e-05
-0.014927 -2.71051e-20 0.00477488 0.00404612 -3.10987e-05 -0.00463053
0.014927 -5.42101e-20 0.00477488 -2.61047e-05 0.000458708 8.16912e-06
0.0152999 0 0.00342236 -0.000420743 0.00194499 0.000107584
-0.0152999 2.71051e-20 0.00342236 0.00495371 -0.000102442 -0.0121018
0.015716 5.42101e-20 0.00173426 -0.000435591 0.00162598 4.37773e-05
-0.015716 5.42101e-20 0.00173426 -0.00522012 -9.09539e-05 -0.0067925
0.0152841 -5.42101e-20 0.00407715 -0.000229106 0.00162683 0.00010582
-0.0152841 2.71051e-20 0.00407715 0.00798978 -9.54712e-05 -0.0119071
0.0149898 0 0.00508707 -2.47512e-11 1.08562e-09 5.39319e-11
-0.0149898 0 0.00508707 1.05635e-08 5.31432e-11 -1.11669e-08
0.0156647 -4.1359e-25 0.00240043 -0.000533956 0.00197206 0.000153325
-0.0156647 -1.56624e-20 0.00240043 -0.00109193 -9.3068e-05 -0.00876416
-0.0158727 1.0842e-19 0.000520994 -0.00632631 -5.47129e-05 -0.00146008
0.0158727 -5.42101e-20 0.000520992 8.83214e-06 1.4714e-05 -2.77358e-06
0.0156354 1.03398e-25 0.00287872 -0.00053017 0.0020562 0.00018963
-0.0151702 -3.72645e-22 0.00482145 0.00596049 -4.82788e-05 -0.00674243
0.0151702 8.2991e-21 0.00482145 -3.35659e-05 0.000677673 4.79281e-05
-0.015623 -1.63432e-20 0.00308126 0.00237534 -9.46323e-05 -0.0102526
0.015623 0 0.00308126 -0.000528566 0.00209183 0.000205004
-0.0153271 2.71051e-20 0.00461022 0.0085553 -7.88646e-05 -0.0103845
0.0153271 0 0.00461022 -8.21604e-05 0.00113933 0.000100647
0.0156022 0 0.00374982 -0.00038984 0.00199902 0.000238857
-0.0156022 1.15971e-21 0.00374982 0.00633779 -9.43495e-05 -0.0112027
-0.0151797 1.03398e-25 0.00523007 0 0 0
0.015269 -2.71051e-20 0.00505544 6.80172e-06 0.000443737 3.61154e-05
-0.015269 2.71051e-20 0.00505544 0.0053361 -3.54801e-05 -0.00528517
0.0159605 0 0.00272817 -0.000656071 0.00218413 0.000296571
-0.0159605 0 0.00272817 -0.000726945 -8.48134e-05 -0.00749624
-0.0155971 -2.10666e-20 0.0043751 0.00904347 -9.08158e-05 -0.0112293
0.0155971 0 0.0043751 -0.00017012 0.00161572 0.000222401
-0.0160322 0 0.00235138 -0.00226658 -8.049e-05 -0.00682632
-0.0153431 1.03398e-25 0.00535318 1.3921e-08 -2.60425e-10 -1.3371e-08
0.0153431 -1.29247e-26 0.00535318 5.17386e-12 7.23052e-11 9.65315e-12
-0.0154076 0 0.0052069 0.00283884 -2.30367e-05 -0.00298111
0.0159183 5.42101e-20 0.00340547 -0.000575719 0.0022753 0.000348289
-0.0159183 -2.71051e-20 0.00340547 0.0040953 -8.78023e-05 -0.00996918
0.0155359 0 0.00491577 -1.15712e-05 0.000953907 0.000135522
-0.0155359 1.41866e-20 0.00491577 0.00848876 -6.88842e-05 -0.00891419
-0.0159245 2.71051e-20 0.00405169 0.00825359 -9.15615e-05 -0.0108161
0.0159245 2.71051e-20 0.00405169 -0.000336885 0.00214839 0.000392502
0.0163947 -2.47708e-20 0.00113361 -0.000357532 0.000892319 8.37017e-05
-0.0163947 0 0.0011336 -0.00705203 -6.46123e-05 -0.00274659
0.0161888 -5.16988e-26 0.00306055 -0.00069671 0.00230422 0.000407262
0.0164795 0 4.5134e-08 -2.03522e-09 5.93075e-09 -1.00131e-09
-0.0164795 0 7.53989e-09 -6.61296e-08 1.30363e-09 -7.14886e-09
-0.0163851 -5.16988e-26 0.00180393 -0.00494621 -6.69281e-05 -0.00403798
-0.0162478 0 0.00305839 0.000998808 -7.07032e-05 -0.00693697
0.0162478 0 0.00305839 -0.000714255 0.00232638 0.000428367
0.0163779 -1.93548e-20 0.00230526 -0.000752697 0.00208014 0.000349958
-0.0163779 0 0.00230525 -0.00337135 -6.86602e-05 -0.00500376
0.0156904 -2.71051e-20 0.00524875 7.30266e-05 0.000694844 0.000111944
-0.0156904 -2.71051e-20 0.00524875 0.00911909 -6.73691e-05 -0.0086264
0.0162566 -1.29247e-26 0.00314393 -0.000689556 0.0023339 0.000443856
0.0158759 2.71051e-20 0.00471202 -4.79527e-05 0.00162522 0.000312156
-0.0158759 -2.71051e-20 0.00471202 0.0114258 -9.89166e-05 -0.0119037
-0.0165637 -2.06795e-25 0.00113717 -0.00718404 -6.20477e-05 -0.00245704
0.0156951 0 0.00561829 6.36558e-10 3.89182e-09 8.51138e-10
-0.0156951 0 0.00561829 3.93422e-08 -8.0934e-10 -3.48678e-08
0.0163084 0 0.00364992 -0.00054345 0.00237837 0.000535479
-0.0163084 0 0.00364992 0.00513042 -6.85009e-05 -0.00738194
0.016199 0 0.00441125 -0.000204969 0.00212455 0.000517955
-0.016199 2.63777e-20 0.00441125 0.00939307 -8.14605e-05 -0.00884218
-0.016068 5.16988e-26 0.00518819 0.00950374 -7.67782e-05 -0.00792157
0.0161146 -1.43821e-20 0.00513441 8.1403e-05 0.00132341 0.000347228
-0.0161146 1.76055e-20 0.00513441 0.0106921 -8.63783e-05 -0.00891207
-0.016031 0 0.0055414 0.00962801 -8.11052e-05 -0.00807873
0.016031 -2.71051e-20 0.0055414 0.000144764 0.000671847 0.000178879
-0.0169948 0 1.57361e-20 0 0 0
-0.0165964 0 0.00369035 0.00487096 -5.20916e-05 -0.00414459
-0.0161687 5.16988e-26 0.00526118 0.0106977 -8.85969e-05 -0.00873175
0.0165301 0 0.00408038 -0.000429094 0.00254618 0.000727073
-0.0165301 2.71051e-20 0.00408038 0.00673861 -5.42167e-05 -0.00497111
0.0170241 -5.42101e-20 0.0005776 -7.51323e-05 0.000173199 -2.9985e-05
-0.0170241 0 0.000577601 -0.00860934 -4.66123e-05 -2.42432e-05
0.0169741 5.42101e-20 0.00175445 -0.000946309 0.00182208 0.000325929
-0.0169741 5.42101e-20 0.00175445 -0.00798886 -6.77581e-05 -0.00294493
-0.0160456 4.1359e-25 0.00588233 5.63966e-08 -1.26604e-09 -4.64639e-08
0.0160456 0 0.00588233 1.01976e-09 3.60106e-09 1.18757e-09
0.0168708 -5.42101e-20 0.00304668 -0.00102651 0.00264342 0.00077293
-0.0168708 -1.0842e-19 0.00304668 -0.000931894 -2.05694e-05 -0.00129322
0.0164827 -5.42101e-20 0.00476235 -1.19091e-05 0.00219395 0.000647898
-0.0164827 2.71051e-20 0.00476235 0.0110787 -8.03042e-05 -0.0075465
0.0168025 -6.46235e-27 0.00371927 -0.000633425 0.00268132 0.000840704
0.0163092 7.98333e-21 0.00559034 0.00019903 0.000959202 0.000315292
-0.0163092 0 0.00559034 0.0107123 -9.43573e-05 -0.00826354
-0.0168571 0 0.00372694 0.00463614 -3.72407e-05 -0.00121469
0.0168571 0 0.00372694 -0.000643377 0.00271483 0.000874465
0.0168524 -6.46235e-27 0.00384281 -0.000584518 0.00269606 0.000875149
0.0165194 0 0.0053648 0.000233332 0.00158598 0.000531066
-0.0165194 -2.71051e-20 0.0053648 0.0124076 -0.000105244 -0.00845723
-0.0168333 -2.58494e-26 0.00431301 0.00763621 -4.90204e-05 -0.00206451
0.0168293 0 0.00441207 -0.00029535 0.00260385 0.00087851
-0.0168293 6.46235e-27 0.00441207 0.00814331 -5.10114e-05 -0.00220815
-0.016393 -2.71051e-20 0.00584515 0.0101818 -9.70987e-05 -0.00826247
0.016393 2.71051e-20 0.00584515 0.000219901 0.000652089 0.000246215
-0.0163955 0 0.00614428 6.35994e-08 -1.65317e-09 -4.75527e-08
0.0163955 4.1359e-25 0.00614428 1.41216e-09 3.46433e-09 1.54042e-09
-0.0169489 0 0.00440665 0.00803226 -4.86775e-05 -0.000719589
0.0168096 0 0.00506989 0.000120892 0.00218655 0.000790556
-0.0168096 -1.29247e-26 0.00506989 0.0108409 -7.61004e-05 -0.00404438
-0.0168053 0 0.00515263 0.0107941 -7.93397e-05 -0.00419937
0.017623 3.30872e-24 2.17597e-08 -6.33922e-09 1.00962e-08 -2.3863e-10
-0.017623 -1.65436e-24 1.01887e-08 -9.41695e-08 -2.80218e-09 2.31965e-09
0.0175916 7.34536e-21 0.00115888 -0.00079957 0.00120086 0.000236259
-0.0175916 0 0.00115887 -0.00798699 -4.64499e-05 -0.000696011
-0.0171737 -2.71051e-20 0.004052 0.0059128 -3.08813e-05 0.00241282
0.0171737 2.71051e-20 0.004052 -0.000621899 0.00291769 0.00107482
0.0175442 2.16208e-20 0.00239621 -0.00138319 0.00245555 0.000721317
-0.0175442 0 0.00239621 -0.0031399 -3.99786e-05 0.000897159
-0.0167746 0 0.00574376 0.0104597 -0.000102484 -0.0053067
0.0167746 5.16988e-26 0.00574376 0.000321787 0.00131426 0.000544432
-0.0171404 2.71051e-20 0.0047287 0.00889961 -3.9324e-05 0.00121551
0.0171404 2.71051e-20 0.0047287 -0.000120539 0.00275023 0.00106163
-0.016705 0 0.00611265 0.00940214 -0.000112271 -0.00640895
0.016705 0 0.00611265 0.000297525 0.000653416 0.000318884
0.0174986 -5.16988e-26 0.00354411 -0.0010104 0.0029956 0.00109657
-0.0174986 0 0.00354412 0.00423663 -3.11914e-05 0.00482666
-0.0167191 4.1359e-25 0.00643602 5.96679e-08 -2.07944e-09 -4.11431e-08
0.0167191 0 0.00643602 1.70886e-09 3.45922e-09 1.88856e-09
-0.0171168 -2.71051e-20 0.00539052 0.0108175 -7.65194e-05 -0.000967835
0.0171168 2.71051e-20 0.00539052 0.000365509 0.00226994 0.000945133
0.0174765 1.29247e-26 0.0041983 -0.000597041 0.00300459 0.00116921
-0.0172565 0 0.00505616 0.00991473 -6.28189e-05 0.0024999
-0.0174702 -5.16988e-26 0.00438304 0.00754846 -3.85087e-05 0.00576593
0.0174702 0 0.00438304 -0.000480311 0.00300713 0.00118972
-0.0169667 2.3884e-20 0.00617943 0.00884706 -0.000123621 -0.00451934
0.0169667 1.23494e-20 0.00617943 0.00037863 0.000969026 0.000483655
0.0174493 0 0.00505023 6.85516e-05 0.00276424 0.00116574
-0.0174493 0 0.00505023 0.00951508 -5.70878e-05 0.00532385
-0.0171679 2.71051e-20 0.00597129 0.00967873 -0.000119151 -0.00179259
0.0171679 0 0.00597129 0.000507507 0.00161043 0.000759793
0.0182005 -1.0842e-19 0.00058338 -0.000444781 0.00060126 1.75666e-05
-0.0182005 5.42101e-20 0.000583381 -0.00863388 -3.55881e-05 0.000421316
-0.017043 -2.71051e-20 0.00643779 0.00748704 -0.000139288 -0.00527273
0.017043 -2.71051e-20 0.00643779 0.000334822 0.00066306 0.000380794
0.0177879 2.71051e-20 0.00403219 -0.000880802 0.00320432 0.00128248
-0.0177879 0 0.00403219 0.00646051 -3.6341e-05 0.0088903
-0.0181761 -1.0842e-19 0.00178292 -0.00668663 -3.60243e-05 -0.000278252
0.0181761 0 0.00178292 -0.00176118 0.00225038 0.000643475
-0.0170214 4.1359e-25 0.00674884 4.65001e-08 -2.3572e-09 -2.10273e-08
0.0170214 -4.1359e-25 0.00674884 1.93449e-09 3.48878e-09 2.14089e-09
-0.0174458 0 0.00568734 0.00945347 -9.15459e-05 0.00390332
0.0174458 -3.41019e-21 0.00568734 0.000476339 0.00225361 0.0010363
-0.0177804 -2.71051e-20 0.00470438 0.0089773 -4.75851e-05 0.0104805
0.0177804 0 0.00470438 -0.000290772 0.00315163 0.0013386
-0.0181642 -1.0842e-19 0.00305697 0.0033433 -3.41886e-05 0.00822022
0.0181642 5.42101e-20 0.00305697 -0.00179955 0.00313769 0.00116008
-0.0181317 -2.06795e-25 0.00370155 0.00716976 -4.29912e-05 0.0116917
0.0181317 1.63857e-21 0.00370155 -0.00119516 0.00328573 0.00127559
-0.01741 0 0.00635261 0.00688164 -0.000131136 0.00135304
0.01741 -2.59746e-20 0.00635261 0.000515198 0.00132979 0.000694659
-0.0177702 -2.71051e-20 0.00535529 0.0093973 -6.5275e-05 0.0105153
0.0177702 0 0.00535529 0.000314599 0.0028816 0.00131554
-0.0173274 0 0.00672747 0.0051013 -0.000139324 -0.00046042
0.0173274 -2.71051e-20 0.00672747 0.000369733 0.000643608 0.000399748
0.0181132 0 0.00420721 -0.000823936 0.00330793 0.00131801
-0.0181076 3.26442e-21 0.00436205 0.00921535 -5.32408e-05 0.0140474
0.0181076 6.46235e-27 0.00436205 -0.000710265 0.00331472 0.001331
-0.0173238 4.1359e-25 0.00706119 2.53304e-08 -2.44593e-09 6.97272e-09
0.0173238 4.1359e-25 0.00706119 2.11791e-09 3.51928e-09 2.28918e-09
0.0177503 0 0.00600627 0.000709703 0.00231847 0.00115312
-0.0177503 2.71051e-20 0.00600627 0.00790718 -0.000102383 0.00846287
-0.018098 -1.63446e-20 0.00501826 0.00993627 -7.00375e-05 0.0158401
0.018098 0 0.00501826 -9.10841e-05 0.00319925 0.00136084
-0.0187969 0 1.59693e-08 -1.41301e-07 -4.19037e-09 -2.29395e-09
0.0187969 1.65436e-24 1.06448e-08 -8.20678e-09 9.33734e-09 6.91557e-10
-0.0187878 0 0.00116731 -0.00521959 -3.07444e-05 0.0010343
0.0187878 3.70221e-20 0.00116731 -0.00143834 0.00161901 0.000369516
-0.0175851 2.16202e-20 0.00679799 0.00379562 -0.00014992 0.00295694
0.0175851 -5.35682e-21 0.00679799 0.000484763 0.000964739 0.000561405
-0.0184432 2.71051e-20 0.00401963 0.0101173 -5.45262e-05 0.0164102
0.0184432 2.71051e-20 0.00401963 -0.00113355 0.0034509 0.00133774
-0.0187844 0 0.00239454 0.00368772 -3.38406e-05 0.00805398
0.0187844 -3.07554e-20 0.00239454 -0.00216861 0.0029305 0.000872353
-0.0180831 0 0.00566925 0.00858341 -9.4235e-05 0.0156437
0.0180831 0 0.00566925 0.000473134 0.00285964 0.00131496
0.0177912 0 0.00658995 0.000700954 0.00161712 0.000872167
-0.0177912 0 0.00658995 0.00441501 -0.000152157 0.00715984
-0.0184158 -2.71051e-20 0.00467993 0.0112817 -7.39653e-05 0.0202344
0.0184158 0 0.00467993 -0.000536304 0.00344765 0.00136494
-0.0176529 -2.71051e-20 0.00706043 0.0018837 -0.000158421 0.00233559
0.0176529 0 0.00706043 0.000391677 0.00065769 0.000423884
-0.0176264 -4.1359e-25 0.00737367 3.93239e-10 -2.61173e-09 2.89395e-08
0.0176264 0 0.00737367 2.31352e-09 3.65142e-09 2.44454e-09
-0.0180712 2.58494e-26 0.00630777 0.00529158 -0.000130577 0.0138656
0.0180712 0 0.00630777 0.000764098 0.00227704 0.00113896
-0.0184261 -2.71051e-20 0.0053197 0.0100968 -9.30551e-05 0.0219876
0.0184261 -2.71051e-20 0.0053197 0.000150973 0.0033094 0.00142229
-0.0188515 2.06795e-25 0.00360143 0.0117288 -6.11701e-05 0.0185831
0.0188515 0 0.00360143 -0.00161575 0.00349404 0.00115879
0.0188003 -6.46235e-27 0.00397534 -0.0012815 0.00351307 0.00122083
-0.0187497 -2.08725e-20 0.00434473 0.0124692 -7.57549e-05 0.0213894
0.0187497 1.29247e-26 0.00434473 -0.000951286 0.00353188 0.00128213
-0.018025 1.03398e-25 0.00697581 0.000577647 -0.000170013 0.0098202
0.018025 0 0.00697581 0.000633111 0.00132199 0.000734484
-0.0183967 0 0.00598007 0.00699904 -0.000116457 0.0216629
0.0183967 -2.71051e-20 0.00598007 0.000707441 0.0029324 0.00136814
0.0190444 -3.87741e-26 0.00361107 -0.00168766 0.00355945 0.00106515
-0.0179363 0 0.0073519 -0.00177053 -0.000188902 0.00573587
0.0179363 -2.71051e-20 0.0073519 0.000403915 0.00063416 0.00041757
-0.0193896 5.42101e-20 0.000584898 -0.00758988 -3.37062e-05 -0.000672242
0.0193896 0 0.000584906 -0.000962679 0.000929474 0.000106938
-0.0188216 2.24226e-20 0.00491492 0.0121909 -0.000104895 0.0261353
0.0188216 -2.43697e-20 0.00491492 -0.000335719 0.00350488 0.00129854