# k  POINT_DATA 25961
# x  y  z  k
0.01 0 8.31199e-08 3.80087e-09
-0.01 0 8.31199e-08 1.10549e-10
-0.01 0 0.00067832 1.02102e-10
0.01 0 0.00067832 5.1995e-09
0.0100157 7.75482e-26 0.000677127 5.33564e-09
-0.01 0 0.00137372 9.49252e-11
0.01 0 0.00137372 6.56685e-09
0.0100746 0 0.00135804 6.29409e-09
-0.01 0 0.002087 1.23727e-10
0.01 0 0.002087 8.13476e-09
-0.0102613 0 0.000329046 1.10536e-10
0.0102613 2.71051e-20 0.000329046 3.80084e-09
0.0102561 2.71051e-20 0.000988366 6.61742e-09
-0.0102561 -2.71051e-20 0.000988366 9.35519e-11
0.0102356 2.71051e-20 0.00161953 6.51556e-09
-0.0102356 0 0.00161953 9.63194e-11
0.0105293 -4.1359e-25 8.89198e-08 1.44589e-08
-0.0105293 0 8.68458e-08 8.05153e-10
0.0105282 -2.06795e-25 0.000279278 1.24029e-08
-0.0105268 -2.08425e-20 0.000638363 6.79533e-10
0.0105268 -1.52449e-21 0.000638362 9.75864e-09
-0.0105159 1.65436e-24 0.0012653 3.91306e-10
0.0105159 -2.13925e-20 0.0012653 4.68137e-09
-0.0105028 -1.06839e-20 0.0017228 2.08399e-10
0.0105028 -1.34979e-20 0.0017228 6.15654e-09
-0.010496 2.71051e-20 0.00202291 1.48045e-10
0.010496 -2.71051e-20 0.00202291 9.57131e-09
0.0104977 0 0.00235078 1.2912e-08
-0.0104977 0 0.00235077 3.52747e-10
-0.0108033 2.71051e-20 0.000314595 1.50906e-09
0.0108033 2.71051e-20 0.000314594 2.52595e-08
-0.0108031 2.71051e-20 0.00093799 9.97406e-10
0.0108031 0 0.00093799 3.62104e-09
-0.01079 -2.71051e-20 0.00152732 3.97037e-10
0.01079 -2.71051e-20 0.00152732 2.07816e-09
-0.0110754 0 7.36178e-09 9.3797e-09
0.0110754 0 6.46274e-09 3.20201e-08
0.01108 0 0.000208299 2.7474e-08
-0.0110889 0 0.000613667 7.11176e-09
0.0110889 -2.63209e-21 0.000613666 1.86267e-08
-0.0108991 2.71051e-20 0.00228385 5.55791e-10
0.0108991 5.42101e-20 0.00228385 1.62256e-08
0.010988 -2.7115e-20 0.00190078 6.96863e-09
-0.010988 0 0.00190081 8.75125e-10
-0.0110831 -1.65436e-24 0.00123268 3.08164e-09
0.0110831 1.26559e-20 0.00123266 3.47744e-09
0.0109863 0 0.00260985 1.82113e-08
-0.0109863 6.61744e-24 0.00260985 1.08922e-09
0.0113733 0 0.000305239 3.89199e-08
-0.0113733 0 0.000305239 1.74122e-08
-0.0113913 0 0.000918847 8.48401e-09
0.0113913 0 0.000918847 6.16556e-09
0.0112123 1.12761e-20 0.00231934 1.35128e-08
-0.0112123 2.62713e-21 0.00231934 9.87917e-10
-0.0113682 -2.71051e-20 0.00155884 2.66256e-09
0.0113682 -2.71051e-20 0.00155884 2.10411e-09
0.0114039 -5.42101e-20 0.00209577 3.97991e-09
-0.0114039 2.71051e-20 0.00209577 7.54843e-10
0.011595 2.58494e-26 2.35794e-09 4.37692e-08
0.0113392 -2.71051e-20 0.00255892 2.01695e-08
-0.0113392 0 0.00255892 1.61526e-09
-0.0116471 0 3.40354e-09 1.57226e-07
0.0116471 0 2.32037e-09 4.49476e-08
-0.0116865 0 0.000598049 9.46238e-08
0.0116865 2.92168e-20 0.000598049 2.64142e-08
-0.0117045 0 0.00122297 1.76988e-08
0.0117045 -1.815e-20 0.00122297 5.08374e-09
0.0114599 0 0.00285977 3.47226e-08
-0.0114598 0 0.00285975 3.71157e-09
0.0117133 2.22677e-20 0.00184588 4.27362e-09
-0.0117133 3.30872e-24 0.00184588 4.75921e-09
0.0116596 1.99913e-20 0.00239949 2.04925e-08
-0.0116596 0 0.00239948 2.83902e-09
0.0119676 2.71051e-20 0.000293859 5.10871e-08
-0.0119676 2.71051e-20 0.000293859 2.99629e-07
-0.0120019 -1.03398e-25 9.94023e-10 3.06149e-07
-0.0120131 2.71051e-20 0.000895955 4.64575e-08
0.0120131 0 0.000895956 8.34677e-09
0.0120433 5.42101e-20 0.00152444 3.57699e-09
-0.0120433 2.71051e-20 0.00152444 1.27844e-08
-0.0118604 -5.42101e-20 0.00273055 5.77305e-09
0.0118604 -2.71051e-20 0.00273056 4.90338e-08
0.0120387 -2.71051e-20 0.00217273 7.50401e-09
-0.0120387 0 0.00217273 3.27387e-09
0.0122418 -4.1359e-25 3.11206e-09 5.25782e-08
-0.0122418 -1.03398e-25 1.04582e-09 4.06816e-07
-0.0122568 2.06795e-25 0.000136244 3.66363e-07
0.0119119 0 0.00310459 5.16925e-08
-0.0119119 6.61744e-24 0.00310459 6.77636e-09
0.0123043 -2.01443e-20 0.000568947 3.14082e-08
-0.0123043 -1.23721e-20 0.000568945 2.37885e-07
0.01236 5.58512e-21 0.00118123 6.81841e-09
-0.01236 -8.27181e-25 0.00118125 3.96129e-08
-0.0124541 -1.03398e-25 1.48697e-10 4.58862e-07
0.0123814 1.50017e-20 0.00184432 4.84025e-09
-0.0123814 0 0.00184434 1.24537e-08
-0.0125711 2.71051e-20 0.000269458 5.15089e-07
0.0125711 -2.71051e-20 0.000269458 5.40844e-08
0.0123374 -1.70498e-20 0.00258488 2.59977e-08
-0.0123374 -5.93254e-21 0.00258488 6.31584e-09
0.0122817 0 0.00299995 5.43087e-08
-0.0122817 -2.71051e-20 0.00299995 7.7637e-09
0.0126475 -2.71051e-20 0.000839063 1.07419e-08
-0.0126475 0 0.000839063 7.42794e-08
0.0123472 -3.30872e-24 0.00333734 5.15619e-08
-0.0123472 0 0.00333734 8.03855e-09
-0.0127108 2.71051e-20 0.0014705 2.39816e-08
0.0127108 2.71051e-20 0.0014705 4.49062e-09
0.0128491 1.65436e-24 5.01678e-09 4.51226e-08
-0.0128491 0 1.4199e-09 5.5572e-07
0.0127172 2.71051e-20 0.00217074 3.80455e-09
-0.0127172 0 0.00217074 1.0181e-08
0.0129129 1.7772e-20 0.000505056 3.33208e-08
-0.0129129 0 0.000505053 3.27621e-07
0.0125922 1.71011e-20 0.00303079 3.79525e-08
-0.0125922 -2.95667e-20 0.00303079 6.96058e-09
0.0130203 -4.5313e-21 0.00108239 1.45553e-08
-0.0130203 0 0.0010824 6.14975e-08
0.012793 5.42101e-20 0.00278388 9.64874e-09
-0.012793 0 0.00278388 4.69093e-09
0.0127108 -5.42101e-20 0.00327268 4.88519e-08
-0.0127108 2.71051e-20 0.00327268 8.3097e-09
0.0131383 2.71051e-20 0.000218112 3.61357e-08
-0.0131383 2.71051e-20 0.000218112 5.96464e-07
0.013073 -1.26559e-22 0.0017651 5.89433e-09
-0.013073 0 0.00176511 3.08054e-08
0.0127674 0 0.00356123 5.0392e-08
-0.0127674 -1.65436e-24 0.00356123 7.46725e-09
-0.0132689 0 0.000719701 9.80897e-08
0.0132689 0 0.0007197 3.16959e-08
0.0130872 1.59067e-21 0.00246807 5.8824e-09
-0.0130872 0 0.00246808 2.03885e-08
0.0133746 2.37649e-20 0.000406313 1.20829e-07
-0.0133746 1.82459e-20 0.000406306 3.35202e-07
0.0134599 0 1.02233e-08 1.6879e-07
-0.0134599 8.27181e-25 3.72109e-09 4.47349e-07
0.0130916 1.83692e-20 0.00314268 2.63558e-08
-0.0130916 2.06795e-25 0.00314268 1.13857e-08
-0.0134186 -2.71051e-20 0.00131377 4.62609e-08
0.0134186 2.71051e-20 0.00131377 1.03228e-08
0.013075 0 0.00349045 5.19168e-08
-0.013075 0 0.00349045 6.63323e-09
-0.013162 4.1359e-25 0.00325434 1.0557e-08
-0.0134232 0 0.00207248 4.28103e-08
0.0134232 5.42101e-20 0.00207248 5.34639e-09
0.0132078 0 0.00332703 3.16495e-08
-0.0132595 0 0.00312606 2.79393e-08
-0.0136984 0 0.000300358 2.98211e-07
0.0136984 -2.71051e-20 0.000300357 3.01465e-07
0.013418 -5.42101e-20 0.00277569 4.49424e-09
-0.013418 0 0.00277569 2.61074e-08
0.0131762 -2.06795e-25 0.0037788 5.12191e-08
-0.0131762 0 0.0037788 6.36578e-09
-0.0131848 5.16988e-26 0.00376504 6.48427e-09
0.0133596 0 0.00311615 1.95127e-08
-0.0131928 -1.03398e-25 0.00378881 7.04534e-09
0.0132283 0 0.00369585 4.66609e-08
-0.013523 -2.06795e-25 0.00243331 7.13008e-08
0.0137612 -1.41729e-20 0.000786143 1.23029e-07
-0.0137612 2.14405e-20 0.000786151 1.49962e-07
-0.0133341 0 0.00352736 8.53097e-09
0.0133341 -3.4254e-20 0.00352736 3.74018e-08
0.0132767 -2.06795e-25 0.00383951 5.84199e-08
0.0137678 -5.15334e-22 0.00165537 1.57687e-08
-0.0137678 0 0.00165538 8.98698e-08
-0.013482 2.71051e-20 0.00331696 1.28811e-08
0.013482 0 0.00331696 9.67613e-09
-0.0137612 0 0.00191385 9.25086e-08
0.0137268 -2.58494e-26 0.00241705 7.73935e-09
0.013749 0 0.00239287 8.03746e-09
-0.0137484 0 0.00241533 9.76285e-08
0.0137484 -2.58494e-26 0.00241533 7.80204e-09
-0.013458 2.71051e-20 0.00374223 6.10013e-09
0.013458 -5.42101e-20 0.00374223 5.05261e-08
0.0140709 0 3.70269e-08 2.63214e-07
-0.0140709 0 9.99199e-09 2.3833e-07
-0.0137488 2.11378e-20 0.00307762 7.61962e-08
0.0137488 -1.73452e-20 0.00307762 9.57727e-09
-0.0135651 8.27181e-25 0.00401367 2.23173e-08
0.0135651 0 0.00401367 7.90791e-08
0.0141231 2.71051e-20 0.00120897 3.59142e-08
-0.0141231 0 0.00120897 1.12265e-07
-0.0137164 -1.92146e-20 0.00361036 4.04513e-08
0.0137164 7.00457e-21 0.00361036 4.63866e-08
0.014089 0 0.00201377 1.29592e-08
-0.014089 2.71051e-20 0.00201377 1.56486e-07
-0.0142657 5.42101e-20 0.000418222 1.7784e-07
0.0142657 2.71051e-20 0.000418221 2.24575e-07
-0.014069 -2.71051e-20 0.0027392 1.66087e-07
0.014069 0 0.0027392 8.69311e-09
0.0138967 0 0.00392747 1.07517e-07
-0.0138967 0 0.00392747 3.84694e-08
0.0140496 0 0.00340311 1.53666e-08
-0.0140496 0 0.00340311 1.11241e-07
-0.0143919 -6.46235e-27 0.00161694 2.81558e-07
0.014441 0 0.00161392 3.12619e-08
-0.014441 2.83767e-21 0.00161391 2.96649e-07
-0.0144454 -1.16322e-25 0.00157999 3.01187e-07
0.0145429 1.93395e-20 0.000823379 1.37685e-07
-0.0145429 0 0.000823363 4.02416e-07
-0.0139237 0 0.00428406 1.22842e-07
0.0139237 -1.65436e-24 0.00428406 1.05975e-07
0.0143988 2.58494e-26 0.0023483 1.68884e-08
-0.014397 9.51671e-21 0.00237994 3.81036e-07
0.014397 0 0.00237994 1.62691e-08
0.0144898 0 0.00237022 1.86872e-08
-0.0143653 -4.95068e-21 0.00309536 3.88185e-07
0.0143653 0 0.00309537 1.39762e-08
0.0147022 0 4.94613e-08 2.29183e-07
-0.0147022 -1.65436e-24 1.20861e-08 5.595e-07
-0.014305 3.55117e-20 0.00382188 2.81165e-07
0.014305 8.27181e-25 0.00382188 5.45942e-08
0.0142451 0 0.00421792 1.04436e-07
-0.0142451 0 0.00421792 2.0703e-07
0.0147298 -8.13152e-20 0.00200539 2.41599e-08
-0.0147298 0 0.00200539 4.98556e-07
-0.0148165 0 0.00124392 4.07347e-07
0.0148165 0 0.00124392 5.20742e-08
-0.0149179 1.03398e-25 0.000896435 8.36824e-07
-0.0149609 0 2.9798e-17 9.85024e-07
0.014711 -2.71051e-20 0.00272495 1.93209e-08
-0.014711 -2.71051e-20 0.00272495 6.9618e-07
-0.0149557 0 0.000461616 9.17313e-07
0.0149557 0 0.000461611 2.33504e-07
-0.0142802 0 0.00455258 4.05095e-07
0.0142802 -8.27181e-25 0.00455258 9.82844e-08
0.0146561 0 0.00344874 1.27864e-08
-0.0146561 2.71051e-20 0.00344874 6.04144e-07
-0.014516 -1.6116e-20 0.00427159 4.31308e-07
0.014516 8.44882e-21 0.0042716 7.282e-08
0.0150861 3.43148e-20 0.00165189 4.30688e-08
-0.0150861 -1.64128e-21 0.00165188 7.38891e-07
0.014707 0 0.0040482 2.01484e-08
-0.014707 -2.71051e-20 0.0040482 4.83031e-07
0.0151175 0 0.00230446 3.50424e-08
-0.0151175 1.62417e-21 0.00230446 1.19687e-06
0.0150684 -2.06795e-25 0.00261829 3.262e-08
0.0146108 0 0.00452168 9.214e-08
-0.0146108 0 0.00452168 6.02914e-07
-0.0149933 -3.80007e-20 0.00309786 1.50495e-06
0.0149933 4.1359e-25 0.00309786 2.89183e-08
0.0153398 2.56277e-20 0.000978644 1.53654e-07
-0.0153398 1.2094e-20 0.000978635 1.32548e-06
0.0153745 0 1.29805e-08 2.50366e-07
-0.0153745 0 2.22893e-08 1.66551e-06
-0.0146354 0 0.00482017 1.0558e-06
0.0146354 0 0.00482017 9.12642e-08
-0.0149803 6.29567e-21 0.0037633 1.40164e-06
0.0149803 -8.27181e-25 0.0037633 2.17892e-08
0.0153272 0 0.00275021 4.70808e-08
-0.0153272 -2.71051e-20 0.00275021 2.10332e-06
-0.0149658 -1.06954e-21 0.00441692 1.29149e-06
0.0149658 8.27181e-25 0.00441693 5.02797e-08
-0.014927 -2.71051e-20 0.00477488 1.5083e-06
0.014927 -5.42101e-20 0.00477488 9.03891e-08
0.0152999 0 0.00342236 3.61603e-08
-0.0152999 2.71051e-20 0.00342236 2.57169e-06
0.015716 5.42101e-20 0.00173426 5.77425e-08
-0.015716 5.42101e-20 0.00173426 1.61683e-06
0.0152841 -5.42101e-20 0.00407715 1.86135e-08
-0.0152841 2.71051e-20 0.00407715 2.04348e-06
0.0149898 0 0.00508707 8.9552e-08
-0.0149898 0 0.00508707 2.39646e-06
0.0156647 -4.1359e-25 0.00240043 7.66611e-08
-0.0156647 -1.56624e-20 0.00240043 2.82201e-06
-0.0158727 1.0842e-19 0.000520994 2.91327e-06
0.0158727 -5.42101e-20 0.000520992 2.78486e-07
0.0156354 1.03398e-25 0.00287872 7.56485e-08
-0.0151702 -3.72645e-22 0.00482145 2.21615e-06
0.0151702 8.2991e-21 0.00482145 6.66078e-08
-0.015623 -1.63432e-20 0.00308126 3.68499e-06
0.015623 0 0.00308126 7.52197e-08
-0.0153271 2.71051e-20 0.00461022 1.85843e-06
0.0153271 0 0.00461022 1.98153e-08
0.0156022 0 0.00374982 5.61422e-08
-0.0156022 1.15971e-21 0.00374982 4.44772e-06
-0.0151797 1.03398e-25 0.00523007 4.12e-06
0.015269 -2.71051e-20 0.00505544 8.87157e-08
-0.015269 2.71051e-20 0.00505544 3.2837e-06
0.0159605 0 0.00272817 1.14967e-07
-0.0159605 0 0.00272817 4.18557e-06
-0.0155971 -2.10666e-20 0.0043751 4.38024e-06
0.0155971 0 0.0043751 3.54286e-08
-0.0160322 0 0.00235138 3.03691e-06
-0.0153431 1.03398e-25 0.00535318 5.60378e-06
0.0153431 -1.29247e-26 0.00535318 1.3436e-07
-0.0154076 0 0.0052069 5.36563e-06
0.0159183 5.42101e-20 0.00340547 1.029e-07
-0.0159183 -2.71051e-20 0.00340547 5.83999e-06
0.0155359 0 0.00491577 8.25881e-08
-0.0155359 1.41866e-20 0.00491577 4.89166e-06
-0.0159245 2.71051e-20 0.00405169 7.29679e-06
0.0159245 2.71051e-20 0.00405169 6.73966e-08
0.0163947 -2.47708e-20 0.00113361 2.07731e-07
-0.0163947 0 0.0011336 3.18734e-06
0.0161888 -5.16988e-26 0.00306055 1.51777e-07
0.0164795 0 4.5134e-08 3.14485e-07
-0.0164795 0 7.53989e-09 4.67131e-06
-0.0163851 -5.16988e-26 0.00180393 3.21691e-06
-0.0162478 0 0.00305839 4.96766e-06
0.0162478 0 0.00305839 1.59766e-07
0.0163779 -1.93548e-20 0.00230526 1.51326e-07
-0.0163779 0 0.00230525 3.23902e-06
0.0156904 -2.71051e-20 0.00524875 1.79947e-07
-0.0156904 -2.71051e-20 0.00524875 7.92098e-06
0.0162566 -1.29247e-26 0.00314393 1.58756e-07
0.0158759 2.71051e-20 0.00471202 3.89411e-08
-0.0158759 -2.71051e-20 0.00471202 6.7508e-06
-0.0165637 -2.06795e-25 0.00113717 3.3647e-06
0.0156951 0 0.00561829 1.75979e-07
-0.0156951 0 0.00561829 8.67162e-06
0.0163084 0 0.00364992 1.52784e-07
-0.0163084 0 0.00364992 7.51044e-06
0.016199 0 0.00441125 9.24285e-08
-0.016199 2.63777e-20 0.00441125 9.67426e-06
-0.016068 5.16988e-26 0.00518819 9.92284e-06
0.0161146 -1.43821e-20 0.00513441 1.0585e-07
-0.0161146 1.76055e-20 0.00513441 1.00793e-05
-0.016031 0 0.0055414 9.42123e-06
0.016031 -2.71051e-20 0.0055414 1.72016e-07
-0.0169948 0 1.57361e-20 5.64733e-06
-0.0165964 0 0.00369035 8.46951e-06
-0.0161687 5.16988e-26 0.00526118 1.02846e-05
0.0165301 0 0.00408038 1.87389e-07
-0.0165301 2.71051e-20 0.00408038 1.08711e-05
0.0170241 -5.42101e-20 0.0005776 3.49777e-07
-0.0170241 0 0.000577601 6.39489e-06
0.0169741 5.42101e-20 0.00175445 1.35094e-07
-0.0169741 5.42101e-20 0.00175445 1.7443e-06
-0.0160456 4.1359e-25 0.00588233 9.87578e-06
0.0160456 0 0.00588233 1.65419e-07
0.0168708 -5.42101e-20 0.00304668 3.22898e-07
-0.0168708 -1.0842e-19 0.00304668 4.91655e-06
0.0164827 -5.42101e-20 0.00476235 7.87558e-08
-0.0164827 2.71051e-20 0.00476235 1.38584e-05
0.0168025 -6.46235e-27 0.00371927 2.99203e-07
0.0163092 7.98333e-21 0.00559034 1.27379e-07
-0.0163092 0 0.00559034 1.08175e-05
-0.0168571 0 0.00372694 9.3375e-06
0.0168571 0 0.00372694 3.15399e-07
0.0168524 -6.46235e-27 0.00384281 3.03337e-07
0.0165194 0 0.0053648 4.73408e-08
-0.0165194 -2.71051e-20 0.0053648 1.27924e-05
-0.0168333 -2.58494e-26 0.00431301 1.29967e-05
0.0168293 0 0.00441207 2.44076e-07
-0.0168293 6.46235e-27 0.00441207 1.36152e-05
-0.016393 -2.71051e-20 0.00584515 1.03298e-05
0.016393 2.71051e-20 0.00584515 1.5883e-07
-0.0163955 0 0.00614428 1.08564e-05
0.0163955 4.1359e-25 0.00614428 1.56944e-07
-0.0169489 0 0.00440665 1.38478e-05
0.0168096 0 0.00506989 1.2266e-07
-0.0168096 -1.29247e-26 0.00506989 1.86208e-05
-0.0168053 0 0.00515263 1.85605e-05
0.017623 3.30872e-24 2.17597e-08 3.81033e-07
-0.017623 -1.65436e-24 1.01887e-08 6.83698e-06
0.0175916 7.34536e-21 0.00115888 3.02921e-07
-0.0175916 0 0.00115887 4.44341e-06
-0.0171737 -2.71051e-20 0.004052 1.04805e-05
0.0171737 2.71051e-20 0.004052 4.3302e-07
0.0175442 2.16208e-20 0.00239621 4.51472e-07
-0.0175442 0 0.00239621 3.99169e-06
-0.0167746 0 0.00574376 1.81295e-05
0.0167746 5.16988e-26 0.00574376 1.03618e-07
-0.0171404 2.71051e-20 0.0047287 1.90605e-05
0.0171404 2.71051e-20 0.0047287 2.7843e-07
-0.016705 0 0.00611265 1.13824e-05
0.016705 0 0.00611265 1.55061e-07
0.0174986 -5.16988e-26 0.00354411 6.72874e-07
-0.0174986 0 0.00354412 8.9892e-06
-0.0167191 4.1359e-25 0.00643602 9.83712e-06
0.0167191 0 0.00643602 1.53835e-07
-0.0171168 -2.71051e-20 0.00539052 2.9033e-05
0.0171168 2.71051e-20 0.00539052 9.64069e-08
0.0174765 1.29247e-26 0.0041983 5.95689e-07
-0.0172565 0 0.00505616 2.34067e-05
-0.0174702 -5.16988e-26 0.00438304 1.48612e-05
0.0174702 0 0.00438304 5.73893e-07
-0.0169667 2.3884e-20 0.00617943 1.61853e-05
0.0169667 1.23494e-20 0.00617943 1.19278e-07
0.0174493 0 0.00505023 3.54152e-07
-0.0174493 0 0.00505023 2.54719e-05
-0.0171679 2.71051e-20 0.00597129 2.92875e-05
0.0171679 0 0.00597129 4.796e-08
0.0182005 -1.0842e-19 0.00058338 4.1267e-07
-0.0182005 5.42101e-20 0.000583381 7.28446e-06
-0.017043 -2.71051e-20 0.00643779 8.29263e-06
0.017043 -2.71051e-20 0.00643779 1.52609e-07
0.0177879 2.71051e-20 0.00403219 8.89569e-07
-0.0177879 0 0.00403219 1.12518e-05
-0.0181761 -1.0842e-19 0.00178292 2.24155e-06
0.0181761 0 0.00178292 3.10766e-07
-0.0170214 4.1359e-25 0.00674884 9.57274e-06
0.0170214 -4.1359e-25 0.00674884 1.47579e-07
-0.0174458 0 0.00568734 3.57998e-05
0.0174458 -3.41019e-21 0.00568734 1.4838e-07
-0.0177804 -2.71051e-20 0.00470438 1.88096e-05
0.0177804 0 0.00470438 6.92315e-07
-0.0181642 -1.0842e-19 0.00305697 7.20121e-06
0.0181642 5.42101e-20 0.00305697 1.04861e-06
-0.0181317 -2.06795e-25 0.00370155 1.40516e-05
0.0181317 1.63857e-21 0.00370155 1.1952e-06
-0.01741 0 0.00635261 3.02356e-05
0.01741 -2.59746e-20 0.00635261 1.01968e-07
-0.0177702 -2.71051e-20 0.00535529 3.47771e-05
0.0177702 0 0.00535529 3.54387e-07
-0.0173274 0 0.00672747 1.08526e-05
0.0173274 -2.71051e-20 0.00672747 1.4255e-07
0.0181132 0 0.00420721 1.15339e-06
-0.0181076 3.26442e-21 0.00436205 2.05565e-05
0.0181076 6.46235e-27 0.00436205 1.14059e-06
-0.0173238 4.1359e-25 0.00706119 9.31338e-06
0.0173238 4.1359e-25 0.00706119 1.41912e-07
0.0177503 0 0.00600627 1.08587e-07
-0.0177503 2.71051e-20 0.00600627 5.04957e-05
-0.018098 -1.63446e-20 0.00501826 3.24188e-05
0.018098 0 0.00501826 8.39041e-07
-0.0187969 0 1.59693e-08 6.9342e-06
0.0187969 1.65436e-24 1.06448e-08 4.83554e-07
-0.0187878 0 0.00116731 5.93229e-06
0.0187878 3.70221e-20 0.00116731 4.97948e-07
-0.0175851 2.16202e-20 0.00679799 2.51178e-05
0.0175851 -5.35682e-21 0.00679799 1.11404e-07
-0.0184432 2.71051e-20 0.00401963 2.07779e-05
0.0184432 2.71051e-20 0.00401963 1.57193e-06
-0.0187844 0 0.00239454 1.03693e-05
0.0187844 -3.07554e-20 0.00239454 1.16297e-06
-0.0180831 0 0.00566925 4.61338e-05
0.0180831 0 0.00566925 4.34959e-07
0.0177912 0 0.00658995 4.8036e-08
-0.0177912 0 0.00658995 5.79329e-05
-0.0184158 -2.71051e-20 0.00467993 3.11342e-05
0.0184158 0 0.00467993 1.39992e-06
-0.0176529 -2.71051e-20 0.00706043 7.7739e-06
0.0176529 0 0.00706043 1.41274e-07
-0.0176264 -4.1359e-25 0.00737367 8.64898e-06
0.0176264 0 0.00737367 1.36506e-07
-0.0180712 2.58494e-26 0.00630777 5.6082e-05
0.0180712 0 0.00630777 1.59629e-07
-0.0184261 -2.71051e-20 0.0053197 4.4908e-05
0.0184261 -2.71051e-20 0.0053197 9.03896e-07
-0.0188515 2.06795e-25 0.00360143 2.7048e-05
0.0188515 0 0.00360143 2.00875e-06
0.0188003 -6.46235e-27 0.00397534 1.93632e-06
-0.0187497 -2.08725e-20 0.00434473 3.39473e-05
0.0187497 1.29247e-26 0.00434473 1.86475e-06
-0.018025 1.03398e-25 0.00697581 4.10167e-05
0.018025 0 0.00697581 9.68488e-08
-0.0183967 0 0.00598007 5.44507e-05
0.0183967 -2.71051e-20 0.00598007 3.87284e-07
0.0190444 -3.87741e-26 0.00361107 2.38575e-06
-0.0179363 0 0.0073519 9.52429e-06
0.0179363 -2.71051e-20 0.0073519 1.31735e-07
-0.0193896 5.42101e-20 0.000584898 6.58253e-06
0.0193896 0 0.000584906 5.54721e-07
-0.0188216 2.24226e-20 0.00491492 4.85859e-05
0.0188216 -2.43697e-20 0.00491492 1.62001e-06
-0.0193933 -5.42101e-20 0.00177944 7.55523e-06
0.0193933 0 0.00177943 7.138e-07
-0.0179292 4.1359e-25 0.00768641 1.43763e-05
0.0179292 0 0.00768641 1.30953e-07
0.018369 0 0.00663164 1.09448e-07
-0.018369 0 0.00663164 6.12684e-05
-0.0187273 -2.57838e-20 0.00564917 5.74229e-05
0.0187273 0 0.00564917 9.73404e-07
-0.0194147 0 0.00301348 2.45897e-05
0.0194147 0 0.00301348 2.59624e-06
-0.0181958 -4.12143e-22 0.00742304 3.45434e-05
0.0181958 1.10958e-20 0.00742304 1.03354e-07
-0.0187015 1.86691e-20 0.00629873 6.34871e-05
0.0187015 2.11144e-21 0.00629873 4.51001e-07
0.0184056 2.71051e-20 0.00721495 4.5868e-08
-0.0184056 -2.71051e-20 0.00721495 7.65633e-05
-0.0190533 -5.42101e-20 0.0053245 6.28441e-05
0.0190533 -2.71051e-20 0.0053245 1.66354e-06
0.0182616 -2.71051e-20 0.0076859 1.3017e-07
-0.0182616 -2.71051e-20 0.0076859 1.92296e-05
0.0197137 5.16988e-26 0.00238644 2.20707e-06
-0.0193893 0 0.0043251 6.04006e-05
0.0193893 0 0.0043251 3.09084e-06
0.0182322 0 0.00799942 1.25769e-07
-0.0182322 0 0.00799942 1.62526e-05
-0.0186894 0 0.00693288 7.12143e-05
0.0186894 2.58494e-26 0.00693288 1.57086e-07
-0.019034 0 0.00596484 6.74635e-05
0.019034 0 0.00596484 9.31593e-07
-0.0199808 -1.65436e-24 1.15616e-08 5.84193e-06
0.0199808 0 1.81198e-09 6.65054e-07
-0.0193786 -5.16988e-26 0.00498454 6.43824e-05
0.0193786 1.29247e-26 0.00498454 2.37501e-06
-0.0199934 0 0.00116524 1.01523e-05
0.0199935 0 0.00116523 9.00149e-07
0.0200018 -5.16988e-26 0.00176843 1.71204e-06
-0.018638 0 0.00760163 5.25902e-05
0.018638 1.03398e-25 0.00760163 9.06678e-08
-0.0190175 -5.42101e-20 0.00660576 7.08409e-05
0.0190175 -5.42101e-20 0.00660576 3.82178e-07
-0.0200103 0 0.00238385 3.04159e-05
0.0200103 0 0.00238385 2.54038e-06
0.0201183 5.16988e-26 0.00116394 9.74537e-07
-0.0193626 0 0.005634 6.88695e-05
0.0193626 6.46235e-27 0.005634 1.7571e-06
0.0185453 0 0.00797801 1.21366e-07
-0.0185453 2.71051e-20 0.00797801 1.32748e-05
0.0185355 0 0.00831268 1.2116e-07
-0.0185355 0 0.00831268 2.30404e-05
0.020316 0 -1.46994e-28 7.31371e-07
-0.0189879 2.71051e-20 0.00725654 7.58399e-05
0.0189879 -2.71051e-20 0.00725654 1.05563e-07
-0.0193479 -3.73296e-20 0.00627375 7.36469e-05
0.0193479 0 0.00627375 1.02091e-06
-0.0200226 0 0.00365995 6.06272e-05
0.0200226 0 0.00365995 4.2978e-06
-0.019693 0 0.00529521 6.81663e-05
0.019693 -5.42101e-20 0.00529521 2.62928e-06
-0.0188066 3.8133e-21 0.00805004 4.37499e-05
0.0188066 2.79695e-20 0.00805004 9.61221e-08
-0.0193268 2.58494e-26 0.00692069 7.67031e-05
0.0193268 -2.58494e-26 0.00692069 4.52058e-07
-0.0196676 5.42101e-20 0.00594439 7.68789e-05
0.0196676 -2.71051e-20 0.00594439 1.80061e-06
-0.01902 0 0.00784265 8.69512e-05
0.01902 -2.71051e-20 0.00784265 4.38893e-08
-0.0205868 5.42101e-20 0.000581102 5.09908e-06
0.0205869 0 0.000581094 7.75726e-07
-0.0188712 0 0.00831333 3.28092e-05
0.0188712 2.71051e-20 0.00831333 1.20953e-07
-0.020095 4.74981e-20 0.00487938 7.68343e-05
0.020095 1.80999e-20 0.00487938 3.8503e-06
-0.0206115 -5.42101e-20 0.00176879 2.15771e-05
0.0206115 5.42101e-20 0.00176879 1.56708e-06
-0.0188391 0 0.00862624 3.02609e-05
0.0188391 8.27181e-25 0.00862624 1.19014e-07
-0.0193074 -1.03398e-25 0.00756039 8.24482e-05
0.0193074 0 0.00756039 1.54792e-07
-0.0196738 -2.71051e-20 0.00657561 7.93562e-05
0.0196738 -2.71051e-20 0.00657561 9.60453e-07
-0.0200001 0 0.00561439 7.76908e-05
0.0200001 3.96488e-21 0.00561439 2.69608e-06
0.0206346 1.0842e-19 0.00301452 5.33684e-06
-0.0206346 5.42101e-20 0.00301452 6.86313e-05
0.0196391 5.42101e-20 0.00723369 3.74143e-07
-0.0196391 0 0.00723369 8.09031e-05
0.0192519 -2.06795e-25 0.00823155 8.90618e-08
-0.0192519 0 0.00823155 6.08319e-05
-0.0200715 -3.31551e-21 0.00617586 8.62806e-05
0.0200715 6.46235e-27 0.00617586 1.98312e-06
0.0191557 2.71051e-20 0.00860727 1.17074e-07
-0.0191557 2.71051e-20 0.00860727 2.77114e-05
-0.0206641 -1.0842e-19 0.00428079 8.90071e-05
0.0206641 5.42101e-20 0.00428079 6.14848e-06
0.0191433 8.27181e-25 0.00894011 1.21374e-07
-0.0191433 0 0.00894011 3.49853e-05
0.0196055 0 0.00788712 1.10082e-07
-0.0196055 0 0.00788712 8.57797e-05
-0.0199746 -7.72817e-21 0.0069041 8.83616e-05
0.0199746 1.29247e-26 0.0069041 1.03338e-06
-0.0211723 1.65436e-24 1.19397e-08 8.16118e-06
0.0211724 0 4.52929e-09 9.00841e-07
-0.0212048 -1.65436e-24 0.00115269 2.48507e-05
0.0212049 0 0.00115268 1.62235e-06
0.0194188 -2.94596e-20 0.0086858 9.75782e-08
-0.0194188 -3.17377e-20 0.0086858 4.91921e-05
-0.0199446 -5.16988e-26 0.00755308 8.84881e-05
0.0199446 0 0.00755308 4.70119e-07
0.0203041 2.71051e-20 0.00658402 1.82891e-06
-0.0203041 0 0.00658402 9.70299e-05
-0.0212384 8.27181e-25 0.0023678 6.4328e-05
0.0212384 0 0.0023678 4.7938e-06
0.0206408 0 0.00559143 4.23979e-06
-0.0206408 -5.42101e-20 0.00559143 9.50125e-05
0.0196393 0 0.00847876 4.79439e-08
-0.0196393 -5.42101e-20 0.00847876 7.88624e-05
0.0194792 2.71051e-20 0.0089564 1.25677e-07
-0.0194792 2.71051e-20 0.0089564 4.2264e-05
-0.0194172 -8.27181e-25 0.00928185 4.24173e-05
0.0194172 0 0.00928186 1.25423e-07
-0.0202831 2.71051e-20 0.00722169 9.60463e-05
0.0202831 2.71051e-20 0.00722169 9.58979e-07
-0.0199297 2.75656e-20 0.00819016 8.52375e-05
0.0199297 -1.03398e-25 0.00819016 1.85197e-07
-0.0206294 4.84268e-21 0.00624638 9.58602e-05
0.0206294 6.46235e-27 0.00624638 2.96312e-06
-0.0212679 0 0.00364055 9.28616e-05
0.0212679 0 0.00364055 7.78507e-06
0.0202625 2.71051e-20 0.00786089 4.4203e-07
-0.0202625 5.42101e-20 0.00786089 9.14411e-05
-0.0206173 -1.84924e-20 0.00689381 9.58764e-05
0.0206173 0 0.00689381 2.05428e-06
-0.0198766 0 0.00887843 6.31736e-05
0.0198766 -2.06795e-25 0.00887843 1.04892e-07
-0.0217896 -5.42101e-20 0.000568406 1.12308e-05
0.0217897 -5.42101e-20 0.000568406 1.02626e-06
-0.0212798 1.03398e-25 0.00493138 9.86643e-05
0.0212798 -1.03398e-25 0.00493138 7.47987e-06
0.0197714 0 0.0092976 1.25169e-07
-0.0197714 2.71051e-20 0.0092976 4.25708e-05
-0.019669 0 0.00964181 3.64707e-05
0.019669 0 0.00964181 9.2952e-08
-0.0218374 0 0.00173743 6.21771e-05
0.0218374 -1.0842e-19 0.00173743 3.14944e-06
-0.0205995 0 0.0075318 9.40292e-05
0.0205995 0 0.0075318 1.22235e-06
0.0209456 0 0.00655441 3.28906e-06
-0.0209456 -2.71051e-20 0.00655441 9.5249e-05
-0.0202362 -5.42101e-20 0.00851518 8.54327e-05
0.0202362 -2.71051e-20 0.00851518 1.5718e-07
0.021882 5.42101e-20 0.00297573 9.18611e-06
-0.021882 0 0.00297573 0.000105544
-0.0205755 0 0.00817149 8.9185e-05
0.0205755 5.16988e-26 0.00817149 6.65715e-07
-0.0209362 5.42101e-20 0.00721472 9.51573e-05
0.0209362 -2.71051e-20 0.00721472 2.13496e-06
0.0199576 0 0.00972223 6.07033e-08
-0.0199576 0 0.00972223 3.03647e-05
-0.0200954 8.34625e-21 0.00945691 4.42357e-05
0.0200954 4.1359e-25 0.00945691 7.03978e-08
0.0213454 -3.79224e-21 0.00613816 5.30221e-06
-0.0213454 0 0.00613817 9.68453e-05
-0.0202913 0 0.0091201 7.13898e-05
0.0202913 0 0.0091201 6.80888e-08
-0.0199226 -8.27181e-25 0.0100021 2.84013e-05
0.0199226 -8.27181e-25 0.0100021 6.16102e-08
-0.0219071 5.42101e-20 0.00426287 0.00010845
0.0219071 -1.6263e-19 0.00426287 1.05002e-05
0.0212536 0 0.00687047 3.45951e-06
-0.0212536 0 0.00687047 9.53227e-05
-0.0209198 2.71051e-20 0.00783 9.33994e-05
0.0209198 0 0.00783 1.33513e-06
-0.0222349 2.06795e-25 0.00231824 9.29405e-05
-0.0223699 0 8.59575e-09 3.91526e-05
0.02237 0 1.06529e-08 1.08809e-06
-0.0205825 4.88367e-21 0.00880038 7.98993e-05
0.0205825 -1.03398e-25 0.00880038 3.28272e-07
-0.0223673 5.16988e-26 0.00111511 6.07809e-05
-0.0224227 5.16988e-26 0.00107137 6.16771e-05
-0.0201854 3.83857e-20 0.00982489 3.06436e-05
0.0201854 8.94679e-21 0.00982489 5.05898e-08
-0.0224248 -7.65802e-20 0.00111325 6.25576e-05
0.0224249 0 0.00111326 2.55392e-06
-0.0222602 -1.03398e-25 0.00359676 0.000108749
0.0208973 5.42101e-20 0.00847326 7.32825e-07
-0.0208973 0 0.00847326 8.64773e-05
-0.020392 -2.71051e-20 0.00967037 3.51943e-05
0.020392 0 0.00967037 2.82481e-08
0.0202271 0 0.0100702 6.25179e-08
-0.0202271 -5.42101e-20 0.0100702 2.6436e-05
0.0224885 -8.27181e-25 0.00230561 7.87974e-06
-0.0224885 4.35242e-20 0.00230562 0.000100223
-0.0219242 -5.42101e-20 0.0055407 0.000102254
0.0219242 0 0.0055407 9.01262e-06
-0.0206219 2.06795e-25 0.00940243 5.6564e-05
0.0206219 0 0.00940243 1.40054e-07
0.0201769 0 0.0103635 6.35868e-08
-0.0201769 0 0.0103635 2.21009e-05
-0.0214053 0 0.00750768 9.34231e-05
0.0214053 6.51345e-21 0.00750768 2.85943e-06
-0.0212331 -1.26051e-20 0.0081501 8.96312e-05
0.0212331 -2.58494e-26 0.0081501 1.59945e-06
-0.0227454 8.27181e-25 -8.97294e-36 5.82946e-05
-0.0222376 0 0.00490354 0.000101406
0.0225307 0 0.00358481 1.27498e-05
-0.0225307 4.80054e-20 0.00358482 0.000113079
-0.0209306 -2.71051e-20 0.009079 7.65614e-05
0.0209306 0 0.009079 3.62059e-07
-0.0205788 -3.71061e-20 0.0100354 2.90124e-05
0.0205788 0 0.0100354 6.41583e-08
0.0218832 1.0842e-19 0.00683353 5.85733e-06
-0.0218832 -5.42101e-20 0.00683353 9.571e-05
-0.0220903 0 0.00617273 9.21454e-05
-0.02047 0 0.0103922 1.77627e-05
0.02047 2.71051e-20 0.0103922 6.46565e-08
-0.0229944 -5.42101e-20 0.000536085 6.71414e-05
0.0229945 0 0.000536078 1.15007e-06
-0.0213123 -1.20898e-21 0.00869943 8.17538e-05
0.0213123 -2.58494e-26 0.00869943 1.22207e-06
-0.020909 -2.71051e-20 0.00972034 4.63403e-05
0.020909 0 0.00972034 1.19771e-07
0.0225437 0 0.00489464 1.32973e-05
-0.0225437 1.64738e-21 0.00489464 0.000102282
0.0204318 0 0.0107257 7.0203e-08
-0.0204318 0 0.0107257 1.62729e-05
-0.0230802 5.42101e-20 0.00165832 0.000110145
0.0230803 -5.42101e-20 0.00165833 4.95582e-06
-0.0212246 0 0.00940472 6.521e-05
0.0212246 -5.16988e-26 0.00940472 5.97705e-07
0.0207156 3.86198e-20 0.0104897 6.31552e-08
-0.0207156 -3.64125e-21 0.0104897 1.78306e-05
0.0209353 0 0.0102994 4.87267e-08
-0.0209353 -2.71051e-20 0.0102994 2.10139e-05
-0.0231589 0 0.00287977 0.000123605
0.0231589 0 0.00287976 1.43275e-05
-0.0218885 5.42101e-20 0.00814494 8.84242e-05
0.0218885 5.42101e-20 0.00814494 3.44934e-06
0.0225301 -1.6632e-20 0.00619313 1.15567e-05
-0.0225301 -2.90288e-20 0.00619313 8.93702e-05
0.0207613 5.42101e-20 0.0107635 7.5752e-08
-0.0207613 0 0.0107635 1.47825e-05
-0.0215469 0 0.00909429 7.81254e-05
0.0215469 0 0.00909429 1.25654e-06
0.0212144 0 0.0100278 2.64635e-07
-0.0212144 -4.58186e-21 0.0100278 3.8311e-05
0.020687 -8.27181e-25 0.0110884 8.01386e-08
-0.020687 0 0.0110884 1.15946e-05
-0.0231865 0 0.00419035 0.000115033
0.0231866 0 0.00419035 1.70048e-05
0.0218725 0 0.00877017 2.74343e-06
-0.0218725 0 0.00877017 8.17083e-05
-0.0235735 0 1.78781e-08 0.000100509
0.0235737 0 1.46761e-08 1.08465e-06
-0.0215348 -2.71051e-20 0.00971336 5.9627e-05
0.0215348 -2.71051e-20 0.00971337 6.53509e-07
-0.0224336 -2.42338e-27 0.00748097 8.50833e-05
-0.0236424 -4.84893e-20 0.00102426 0.000113464
0.0236425 -3.30872e-24 0.00102426 3.17452e-06
0.0211543 4.7385e-21 0.0107041 1.12797e-07
-0.0211543 -1.03398e-25 0.0107041 1.66372e-05
0.0225191 2.6493e-20 0.00747875 9.08151e-06
-0.0225191 5.12412e-20 0.00747875 8.43902e-05
0.0218553 2.58494e-26 0.00939598 1.98404e-06
-0.0218553 1.29247e-26 0.00939598 7.11853e-05
0.021043 0 0.011115 8.45265e-08