# omega  POINT_DATA 25961
# x  y  z  omega
0.01 0 8.31199e-08 955.266
-0.01 0 8.31199e-08 955.265
-0.01 0 0.00067832 1086.73
0.01 0 0.00067832 1086.73
0.0100157 7.75482e-26 0.000677127 1078.11
-0.01 0 0.00137372 1329.83
0.01 0 0.00137372 1329.84
0.0100746 0 0.00135804 1249.97
-0.01 0 0.002087 1185.47
0.01 0 0.002087 1185.47
-0.0102613 0 0.000329046 955.264
0.0102613 2.71051e-20 0.000329046 955.264
0.0102561 2.71051e-20 0.000988366 1220.01
-0.0102561 -2.71051e-20 0.000988366 1220.01
0.0102356 2.71051e-20 0.00161953 1441.24
-0.0102356 0 0.00161953 1441.24
0.0105293 -4.1359e-25 8.89198e-08 882.402
-0.0105293 0 8.68458e-08 882.4
0.0105282 -2.06795e-25 0.000279278 845.454
-0.0105268 -2.08425e-20 0.000638363 800.13
0.0105268 -1.52449e-21 0.000638362 797.933
-0.0105159 1.65436e-24 0.0012653 781.846
0.0105159 -2.13925e-20 0.0012653 777.751
-0.0105028 -1.06839e-20 0.0017228 903.725
0.0105028 -1.34979e-20 0.0017228 901.304
-0.010496 2.71051e-20 0.00202291 958.562
0.010496 -2.71051e-20 0.00202291 958.563
0.0104977 0 0.00235078 1134.69
-0.0104977 0 0.00235077 1134.69
-0.0108033 2.71051e-20 0.000314595 808.563
0.0108033 2.71051e-20 0.000314594 808.566
-0.0108031 2.71051e-20 0.00093799 238.734
0.0108031 0 0.00093799 230.118
-0.01079 -2.71051e-20 0.00152732 252.075
0.01079 -2.71051e-20 0.00152732 244.368
-0.0110754 0 7.36178e-09 833.356
0.0110754 0 6.46274e-09 833.36
0.01108 0 0.000208299 725.628
-0.0110889 0 0.000613667 518.637
0.0110889 -2.63209e-21 0.000613666 515.971
-0.0108991 2.71051e-20 0.00228385 1309.4
0.0108991 5.42101e-20 0.00228385 1309.4
0.010988 -2.7115e-20 0.00190078 597.059
-0.010988 0 0.00190081 600.239
-0.0110831 -1.65436e-24 0.00123268 190.23
0.0110831 1.26559e-20 0.00123266 185.209
0.0109863 0 0.00260985 1565.48
-0.0109863 6.61744e-24 0.00260985 1565.48
0.0113733 0 0.000305239 858.663
-0.0113733 0 0.000305239 858.66
-0.0113913 0 0.000918847 154.949
0.0113913 0 0.000918847 152.766
0.0112123 1.12761e-20 0.00231934 1147.96
-0.0112123 2.62713e-21 0.00231934 1150.16
-0.0113682 -2.71051e-20 0.00155884 111.096
0.0113682 -2.71051e-20 0.00155884 109.771
0.0114039 -5.42101e-20 0.00209577 296.408
-0.0114039 2.71051e-20 0.00209577 303.01
0.011595 2.58494e-26 2.35794e-09 886.875
0.0113392 -2.71051e-20 0.00255892 1818.01
-0.0113392 0 0.00255892 1818.01
-0.0116471 0 3.40354e-09 892.257
0.0116471 0 2.32037e-09 892.242
-0.0116865 0 0.000598049 528.204
0.0116865 2.92168e-20 0.000598049 527.287
-0.0117045 0 0.00122297 123.508
0.0117045 -1.815e-20 0.00122297 122.168
0.0114599 0 0.00285977 1336.74
-0.0114598 0 0.00285975 1336.73
0.0117133 2.22677e-20 0.00184588 161.251
-0.0117133 3.30872e-24 0.00184588 164.064
0.0116596 1.99913e-20 0.00239949 809.583
-0.0116596 0 0.00239948 811.842
0.0119676 2.71051e-20 0.000293859 926.444
-0.0119676 2.71051e-20 0.000293859 926.476
-0.0120019 -1.03398e-25 9.94023e-10 964.74
-0.0120131 2.71051e-20 0.000895955 152.168
0.0120131 0 0.000895956 150.667
0.0120433 5.42101e-20 0.00152444 74.1196
-0.0120433 2.71051e-20 0.00152444 74.4465
-0.0118604 -5.42101e-20 0.00273055 863.459
0.0118604 -2.71051e-20 0.00273056 863.465
0.0120387 -2.71051e-20 0.00217273 152.022
-0.0120387 0 0.00217273 154.664
0.0122418 -4.1359e-25 3.11206e-09 1013.69
-0.0122418 -1.03398e-25 1.04582e-09 1013.74
-0.0122568 2.06795e-25 0.000136244 913.716
0.0119119 0 0.00310459 995.35
-0.0119119 6.61744e-24 0.00310459 995.342
0.0123043 -2.01443e-20 0.000568947 594.988
-0.0123043 -1.23721e-20 0.000568945 596.056
0.01236 5.58512e-21 0.00118123 114.337
-0.01236 -8.27181e-25 0.00118125 115.764
-0.0124541 -1.03398e-25 1.48697e-10 1145.74
0.0123814 1.50017e-20 0.00184432 90.4203
-0.0123814 0 0.00184434 92.5064
-0.0125711 2.71051e-20 0.000269458 1101.88
0.0125711 -2.71051e-20 0.000269458 1101.83
0.0123374 -1.70498e-20 0.00258488 517.111
-0.0123374 -5.93254e-21 0.00258488 520.873
0.0122817 0 0.00299995 1125.13
-0.0122817 -2.71051e-20 0.00299995 1125.12
0.0126475 -2.71051e-20 0.000839063 170.787
-0.0126475 0 0.000839063 173.529
0.0123472 -3.30872e-24 0.00333734 1333.07
-0.0123472 0 0.00333734 1333.07
-0.0127108 2.71051e-20 0.0014705 61.1837
0.0127108 2.71051e-20 0.0014705 60.0846
0.0128491 1.65436e-24 5.01678e-09 1391.33
-0.0128491 0 1.4199e-09 1391.39
0.0127172 2.71051e-20 0.00217074 74.7999
-0.0127172 0 0.00217074 79.0463
0.0129129 1.7772e-20 0.000505056 820.033
-0.0129129 0 0.000505053 820.769
0.0125922 1.71011e-20 0.00303079 986.853
-0.0125922 -2.95667e-20 0.00303079 990.865
0.0130203 -4.5313e-21 0.00108239 136.322
-0.0130203 0 0.0010824 137.71
0.012793 5.42101e-20 0.00278388 251.129
-0.012793 0 0.00278388 263.548
0.0127108 -5.42101e-20 0.00327268 1538.21
-0.0127108 2.71051e-20 0.00327268 1538.21
0.0131383 2.71051e-20 0.000218112 1681.64
-0.0131383 2.71051e-20 0.000218112 1681.72
0.013073 -1.26559e-22 0.0017651 60.6856
-0.013073 0 0.00176511 65.806
0.0127674 0 0.00356123 1703.43
-0.0127674 -1.65436e-24 0.00356123 1703.43
-0.0132689 0 0.000719701 243.904
0.0132689 0 0.0007197 243.751
0.0130872 1.59067e-21 0.00246807 123.59
-0.0130872 0 0.00246808 137.199
0.0133746 2.37649e-20 0.000406313 949.184
-0.0133746 1.82459e-20 0.000406306 949.272
0.0134599 0 1.02233e-08 1284.26
-0.0134599 8.27181e-25 3.72109e-09 1284.31
0.0130916 1.83692e-20 0.00314268 884.105
-0.0130916 2.06795e-25 0.00314268 898.779
-0.0134186 -2.71051e-20 0.00131377 64.0976
0.0134186 2.71051e-20 0.00131377 62.5486
0.013075 0 0.00349045 1867
-0.013075 0 0.00349045 1867
-0.013162 4.1359e-25 0.00325434 1108.69
-0.0134232 0 0.00207248 59.986
0.0134232 5.42101e-20 0.00207248 46.9744
0.0132078 0 0.00332703 1231.37
-0.0132595 0 0.00312606 730.568
-0.0136984 0 0.000300358 886.842
0.0136984 -2.71051e-20 0.000300357 886.815
0.013418 -5.42101e-20 0.00277569 108.737
-0.013418 0 0.00277569 133.162
0.0131762 -2.06795e-25 0.0037788 2211.48
-0.0131762 0 0.0037788 2211.48
-0.0131848 5.16988e-26 0.00376504 2179.22
0.0133596 0 0.00311615 603.408
-0.0131928 -1.03398e-25 0.00378881 2195.25
0.0132283 0 0.00369585 2012.64
-0.013523 -2.06795e-25 0.00243331 107.743
0.0137612 -1.41729e-20 0.000786143 358.64
-0.0137612 2.14405e-20 0.000786151 358.597
-0.0133341 0 0.00352736 1621.94
0.0133341 -3.4254e-20 0.00352736 1608.71
0.0132767 -2.06795e-25 0.00383951 2112.99
0.0137678 -5.15334e-22 0.00165537 56.9375
-0.0137678 0 0.00165538 66.94
-0.013482 2.71051e-20 0.00331696 433.483
0.013482 0 0.00331696 393.687
-0.0137612 0 0.00191385 75.6368
0.0137268 -2.58494e-26 0.00241705 65.6705
0.013749 0 0.00239287 63.5147
-0.0137484 0 0.00241533 92.5105
0.0137484 -2.58494e-26 0.00241533 63.715
-0.013458 2.71051e-20 0.00374223 2553.65
0.013458 -5.42101e-20 0.00374223 2553.65
0.0140709 0 3.70269e-08 673.198
-0.0140709 0 9.99199e-09 673.209
-0.0137488 2.11378e-20 0.00307762 240.203
0.0137488 -1.73452e-20 0.00307762 195.861
-0.0135651 8.27181e-25 0.00401367 1830.4
0.0135651 0 0.00401367 1830.41
0.0141231 2.71051e-20 0.00120897 82.1308
-0.0141231 0 0.00120897 80.3133
-0.0137164 -1.92146e-20 0.00361036 1144.1
0.0137164 7.00457e-21 0.00361036 1119.64
0.014089 0 0.00201377 38.312
-0.014089 2.71051e-20 0.00201377 64.3426
-0.0142657 5.42101e-20 0.000418222 457.403
0.0142657 2.71051e-20 0.000418221 457.409
-0.014069 -2.71051e-20 0.0027392 110.942
0.014069 0 0.0027392 60.095
0.0138967 0 0.00392747 1110.06
-0.0138967 0 0.00392747 1110.05
0.0140496 0 0.00340311 188.013
-0.0140496 0 0.00340311 251.03
-0.0143919 -6.46235e-27 0.00161694 72.3367
0.014441 0 0.00161392 58.1653
-0.014441 2.83767e-21 0.00161391 72.7616
-0.0144454 -1.16322e-25 0.00157999 80.3587
0.0145429 1.93395e-20 0.000823379 251.144
-0.0145429 0 0.000823363 249.817
-0.0139237 0 0.00428406 1215.03
0.0139237 -1.65436e-24 0.00428406 1215.03
0.0143988 2.58494e-26 0.0023483 42.8563
-0.014397 9.51671e-21 0.00237994 88.3457
0.014397 0 0.00237994 42.1966
0.0144898 0 0.00237022 41.1767
-0.0143653 -4.95068e-21 0.00309536 164.303
0.0143653 0 0.00309537 94.2875
0.0147022 0 4.94613e-08 415.118
-0.0147022 -1.65436e-24 1.20861e-08 415.157
-0.014305 3.55117e-20 0.00382188 680.643
0.014305 8.27181e-25 0.00382188 626.748
0.0142451 0 0.00421792 1319.77
-0.0142451 0 0.00421792 1319.78
0.0147298 -8.13152e-20 0.00200539 33.8482
-0.0147298 0 0.00200539 70.6442
-0.0148165 0 0.00124392 75.6611
0.0148165 0 0.00124392 79.1972
-0.0149179 1.03398e-25 0.000896435 228.871
-0.0149609 0 2.9798e-17 388.317
0.014711 -2.71051e-20 0.00272495 36.6419
-0.014711 -2.71051e-20 0.00272495 106.783
-0.0149557 0 0.000461616 375.551
0.0149557 0 0.000461611 375.468
-0.0142802 0 0.00455258 1459.85
0.0142802 -8.27181e-25 0.00455258 1459.81
0.0146561 0 0.00344874 86.0329
-0.0146561 2.71051e-20 0.00344874 182.118
-0.014516 -1.6116e-20 0.00427159 1114.83
0.014516 8.44882e-21 0.0042716 1074.99
0.0150861 3.43148e-20 0.00165189 52.992
-0.0150861 -1.64128e-21 0.00165188 69.8104
0.014707 0 0.0040482 275.97
-0.014707 -2.71051e-20 0.0040482 398.271
0.0151175 0 0.00230446 34.2787
-0.0151175 1.62417e-21 0.00230446 84.1654
0.0150684 -2.06795e-25 0.00261829 39.9569
0.0146108 0 0.00452168 1599.68
-0.0146108 0 0.00452168 1599.75
-0.0149933 -3.80007e-20 0.00309786 128.568
0.0149933 4.1359e-25 0.00309786 48.634
0.0153398 2.56277e-20 0.000978644 202.805
-0.0153398 1.2094e-20 0.000978635 205.309
0.0153745 0 1.29805e-08 345.218
-0.0153745 0 2.22893e-08 345.394
-0.0146354 0 0.00482017 1693.45
0.0146354 0 0.00482017 1693.33
-0.0149803 6.29567e-21 0.0037633 243.596
0.0149803 -8.27181e-25 0.0037633 133.3
0.0153272 0 0.00275021 28.667
-0.0153272 -2.71051e-20 0.00275021 91.6882
-0.0149658 -1.06954e-21 0.00441692 959.137
0.0149658 8.27181e-25 0.00441693 870.221
-0.014927 -2.71051e-20 0.00477488 1787.08
0.014927 -5.42101e-20 0.00477488 1786.9
0.0152999 0 0.00342236 44.1156
-0.0152999 2.71051e-20 0.00342236 134.497
0.015716 5.42101e-20 0.00173426 41.357
-0.015716 5.42101e-20 0.00173426 59.4776
0.0152841 -5.42101e-20 0.00407715 112.542
-0.0152841 2.71051e-20 0.00407715 242.951
0.0149898 0 0.00508707 1964.47
-0.0149898 0 0.00508707 1964.77
0.0156647 -4.1359e-25 0.00240043 29.7221
-0.0156647 -1.56624e-20 0.00240043 70.241
-0.0158727 1.0842e-19 0.000520994 295.103
0.0158727 -5.42101e-20 0.000520992 294.77
0.0156354 1.03398e-25 0.00287872 30.7495
-0.0151702 -3.72645e-22 0.00482145 1504.52
0.0151702 8.2991e-21 0.00482145 1435.27
-0.015623 -1.63432e-20 0.00308126 90.1474
0.015623 0 0.00308126 31.1845
-0.0153271 2.71051e-20 0.00461022 568.067
0.0153271 0 0.00461022 358.222
0.0156022 0 0.00374982 59.4028
-0.0156022 1.15971e-21 0.00374982 141.926
-0.0151797 1.03398e-25 0.00523007 1736.08
0.015269 -2.71051e-20 0.00505544 2141.86
-0.015269 2.71051e-20 0.00505544 2142.28
0.0159605 0 0.00272817 23.9416
-0.0159605 0 0.00272817 56.6801
-0.0155971 -2.10666e-20 0.0043751 306.802
0.0155971 0 0.0043751 179.062
-0.0160322 0 0.00235138 60.1464
-0.0153431 1.03398e-25 0.00535318 1539.2
0.0153431 -1.29247e-26 0.00535318 1538.49
-0.0154076 0 0.0052069 1364.91
0.0159183 5.42101e-20 0.00340547 28.2046
-0.0159183 -2.71051e-20 0.00340547 77.9288
0.0155359 0 0.00491577 943.138
-0.0155359 1.41866e-20 0.00491577 1018.04
-0.0159245 2.71051e-20 0.00405169 112.623
0.0159245 2.71051e-20 0.00405169 52.8542
0.0163947 -2.47708e-20 0.00113361 157.926
-0.0163947 0 0.0011336 163.267
0.0161888 -5.16988e-26 0.00306055 25.0414
0.0164795 0 4.5134e-08 267.032
-0.0164795 0 7.53989e-09 267.584
-0.0163851 -5.16988e-26 0.00180393 98.837
-0.0162478 0 0.00305839 59.1962
0.0162478 0 0.00305839 24.4004
0.0163779 -1.93548e-20 0.00230526 31.5382
-0.0163779 0 0.00230525 50.6524
0.0156904 -2.71051e-20 0.00524875 935.871
-0.0156904 -2.71051e-20 0.00524875 936.863
0.0162566 -1.29247e-26 0.00314393 25.8044
0.0158759 2.71051e-20 0.00471202 166.222
-0.0158759 -2.71051e-20 0.00471202 264.523
-0.0165637 -2.06795e-25 0.00113717 160.843
0.0156951 0 0.00561829 1044.07
-0.0156951 0 0.00561829 1045.15
0.0163084 0 0.00364992 34.1092
-0.0163084 0 0.00364992 74.5631
0.016199 0 0.00441125 81.7388
-0.016199 2.63777e-20 0.00441125 139.119
-0.016068 5.16988e-26 0.00518819 623.318
0.0161146 -1.43821e-20 0.00513441 537.104
-0.0161146 1.76055e-20 0.00513441 570.572
-0.016031 0 0.0055414 1153.29
0.016031 -2.71051e-20 0.0055414 1152.11
-0.0169948 0 1.57361e-20 254.392
-0.0165964 0 0.00369035 59.4521
-0.0161687 5.16988e-26 0.00526118 678.924
0.0165301 0 0.00408038 31.5088
-0.0165301 2.71051e-20 0.00408038 58.9961
0.0170241 -5.42101e-20 0.0005776 239.84
-0.0170241 0 0.000577601 240.604
0.0169741 5.42101e-20 0.00175445 45.4662
-0.0169741 5.42101e-20 0.00175445 48.3546
-0.0160456 4.1359e-25 0.00588233 1283.67
0.0160456 0 0.00588233 1282.44
0.0168708 -5.42101e-20 0.00304668 19.2632
-0.0168708 -1.0842e-19 0.00304668 34.2775
0.0164827 -5.42101e-20 0.00476235 74.283
-0.0164827 2.71051e-20 0.00476235 117.042
0.0168025 -6.46235e-27 0.00371927 25.1665
0.0163092 7.98333e-21 0.00559034 949.595
-0.0163092 0 0.00559034 960.253
-0.0168571 0 0.00372694 45.7761
0.0168571 0 0.00372694 24.1774
0.0168524 -6.46235e-27 0.00384281 26.8637
0.0165194 0 0.0053648 245.056
-0.0165194 -2.71051e-20 0.0053648 275.587
-0.0168333 -2.58494e-26 0.00431301 63.6172
0.0168293 0 0.00441207 40.0613
-0.0168293 6.46235e-27 0.00441207 66.6329
-0.016393 -2.71051e-20 0.00584515 1413.89
0.016393 2.71051e-20 0.00584515 1412.61
-0.0163955 0 0.00614428 1458.9
0.0163955 4.1359e-25 0.00614428 1457.56
-0.0169489 0 0.00440665 62.7828
0.0168096 0 0.00506989 114.369
-0.0168096 -1.29247e-26 0.00506989 134.871
-0.0168053 0 0.00515263 207.919
0.017623 3.30872e-24 2.17597e-08 237.494
-0.017623 -1.65436e-24 1.01887e-08 238.313
0.0175916 7.34536e-21 0.00115888 142.813
-0.0175916 0 0.00115887 146.105
-0.0171737 -2.71051e-20 0.004052 39.9484
0.0171737 2.71051e-20 0.004052 20.0836
0.0175442 2.16208e-20 0.00239621 32.41
-0.0175442 0 0.00239621 46.9299
-0.0167746 0 0.00574376 729.822
0.0167746 5.16988e-26 0.00574376 746.191
-0.0171404 2.71051e-20 0.0047287 52.2726
0.0171404 2.71051e-20 0.0047287 35.4218
-0.016705 0 0.00611265 1503.87
0.016705 0 0.00611265 1502.46
0.0174986 -5.16988e-26 0.00354411 18.0564
-0.0174986 0 0.00354412 42.1262
-0.0167191 4.1359e-25 0.00643602 1497.68
0.0167191 0 0.00643602 1496.47
-0.0171168 -2.71051e-20 0.00539052 84.0773
0.0171168 2.71051e-20 0.00539052 92.6883
0.0174765 1.29247e-26 0.0041983 21.7286
-0.0172565 0 0.00505616 82.5097
-0.0174702 -5.16988e-26 0.00438304 46.0084
0.0174702 0 0.00438304 22.7657
-0.0169667 2.3884e-20 0.00617943 1064.46
0.0169667 1.23494e-20 0.00617943 1099.49
0.0174493 0 0.00505023 46.9154
-0.0174493 0 0.00505023 59.915
-0.0171679 2.71051e-20 0.00597129 170.361
0.0171679 0 0.00597129 280.187
0.0182005 -1.0842e-19 0.00058338 235.119
-0.0182005 5.42101e-20 0.000583381 235.994
-0.017043 -2.71051e-20 0.00643779 1491.49
0.017043 -2.71051e-20 0.00643779 1490.48
0.0177879 2.71051e-20 0.00403219 15.5752
-0.0177879 0 0.00403219 44.476
-0.0181761 -1.0842e-19 0.00178292 54.9204
0.0181761 0 0.00178292 46.163
-0.0170214 4.1359e-25 0.00674884 1472.71
0.0170214 -4.1359e-25 0.00674884 1471.54
-0.0174458 0 0.00568734 97.415
0.0174458 -3.41019e-21 0.00568734 131.526
-0.0177804 -2.71051e-20 0.00470438 47.6725
0.0177804 0 0.00470438 20.3941
-0.0181642 -1.0842e-19 0.00305697 49.6799
0.0181642 5.42101e-20 0.00305697 17.7112
-0.0181317 -2.06795e-25 0.00370155 50.8644
0.0181317 1.63857e-21 0.00370155 14.9685
-0.01741 0 0.00635261 693.973
0.01741 -2.59746e-20 0.00635261 758.849
-0.0177702 -2.71051e-20 0.00535529 56.1205
0.0177702 0 0.00535529 39.9129
-0.0173274 0 0.00672747 1453.94
0.0173274 -2.71051e-20 0.00672747 1452.6
0.0181132 0 0.00420721 15.4888
-0.0181076 3.26442e-21 0.00436205 52.7715
0.0181076 6.46235e-27 0.00436205 15.6481
-0.0173238 4.1359e-25 0.00706119 1439.86
0.0173238 4.1359e-25 0.00706119 1438.71
0.0177503 0 0.00600627 99.7753
-0.0177503 2.71051e-20 0.00600627 72.6002
-0.018098 -1.63446e-20 0.00501826 57.4172
0.018098 0 0.00501826 23.7296
-0.0187969 0 1.59693e-08 235.345
0.0187969 1.65436e-24 1.06448e-08 234.517
-0.0187878 0 0.00116731 153.869
0.0187878 3.70221e-20 0.00116731 141.466
-0.0175851 2.16202e-20 0.00679799 995.628
0.0175851 -5.35682e-21 0.00679799 1060.72
-0.0184432 2.71051e-20 0.00401963 57.6212
0.0184432 2.71051e-20 0.00401963 12.7626
-0.0187844 0 0.00239454 69.1737
0.0187844 -3.07554e-20 0.00239454 31.8094
-0.0180831 0 0.00566925 65.4116
0.0180831 0 0.00566925 50.8212
0.0177912 0 0.00658995 275.561
-0.0177912 0 0.00658995 72.9142
-0.0184158 -2.71051e-20 0.00467993 61.1141
0.0184158 0 0.00467993 13.9732
-0.0176529 -2.71051e-20 0.00706043 1425.78
0.0176529 0 0.00706043 1424.83
-0.0176264 -4.1359e-25 0.00737367 1420.74
0.0176264 0 0.00737367 1419.68
-0.0180712 2.58494e-26 0.00630777 71.3253
0.0180712 0 0.00630777 132.97
-0.0184261 -2.71051e-20 0.0053197 64.7344
0.0184261 -2.71051e-20 0.0053197 21.0171
-0.0188515 2.06795e-25 0.00360143 66.0143
0.0188515 0 0.00360143 14.1148
0.0188003 -6.46235e-27 0.00397534 13.3454
-0.0187497 -2.08725e-20 0.00434473 63.1037
0.0187497 1.29247e-26 0.00434473 12.5853
-0.018025 1.03398e-25 0.00697581 643.641
0.018025 0 0.00697581 733.791
-0.0183967 0 0.00598007 68.4597
0.0183967 -2.71051e-20 0.00598007 42.9449
0.0190444 -3.87741e-26 0.00361107 13.8115
-0.0179363 0 0.0073519 1415.71
0.0179363 -2.71051e-20 0.0073519 1414.54
-0.0193896 5.42101e-20 0.000584898 234.693
0.0193896 0 0.000584906 233.913
-0.0188216 2.24226e-20 0.00491492 67.3119
0.0188216 -2.43697e-20 0.00491492 15.2629
-0.0193933 -5.42101e-20 0.00177944 85.7998
0.0193933 0 0.00177943 46.116
-0.0179292 4.1359e-25 0.00768641 1408.14
0.0179292 0 0.00768641 1406.35
0.018369 0 0.00663164 101.084
-0.018369 0 0.00663164 71.1282
-0.0187273 -2.57838e-20 0.00564917 68.5499
0.0187273 0 0.00564917 25.314
-0.0194147 0 0.00301348 85.9448
0.0194147 0 0.00301348 16.5733
-0.0181958 -4.12143e-22 0.00742304 963.144
0.0181958 1.10958e-20 0.00742304 1038.7
-0.0187015 1.86691e-20 0.00629873 70.1723
0.0187015 2.11144e-21 0.00629873 52.815
0.0184056 2.71051e-20 0.00721495 272.894
-0.0184056 -2.71051e-20 0.00721495 36.2426
-0.0190533 -5.42101e-20 0.0053245 71.3545
0.0190533 -2.71051e-20 0.0053245 14.354
0.0182616 -2.71051e-20 0.0076859 1398.17
-0.0182616 -2.71051e-20 0.0076859 1400.58
0.0197137 5.16988e-26 0.00238644 30.4261
-0.0193893 0 0.0043251 75.4144
0.0193893 0 0.0043251 10.0882
0.0182322 0 0.00799942 1394.33
-0.0182322 0 0.00799942 1396.37
-0.0186894 0 0.00693288 61.2438
0.0186894 2.58494e-26 0.00693288 132.698
-0.019034 0 0.00596484 69.7039
0.019034 0 0.00596484 23.377
-0.0199808 -1.65436e-24 1.15616e-08 236.13
0.0199808 0 1.81198e-09 235.463
-0.0193786 -5.16988e-26 0.00498454 72.183
0.0193786 1.29247e-26 0.00498454 12.0612
-0.0199934 0 0.00116524 176.5
0.0199935 0 0.00116523 141.012
0.0200018 -5.16988e-26 0.00176843 86.0548
-0.018638 0 0.00760163 628.503
0.018638 1.03398e-25 0.00760163 721.628
-0.0190175 -5.42101e-20 0.00660576 71.4173
0.0190175 -5.42101e-20 0.00660576 44.6451
-0.0200103 0 0.00238385 104.495
0.0200103 0 0.00238385 29.9846
0.0201183 5.16988e-26 0.00116394 141.224
-0.0193626 0 0.005634 69.3785
0.0193626 6.46235e-27 0.005634 16.0058
0.0185453 0 0.00797801 1390.49
-0.0185453 2.71051e-20 0.00797801 1392.16
0.0185355 0 0.00831268 1385.69
-0.0185355 0 0.00831268 1388.54
0.020316 0 -1.46994e-28 237.407
-0.0189879 2.71051e-20 0.00725654 68.112
0.0189879 -2.71051e-20 0.00725654 100.312
-0.0193479 -3.73296e-20 0.00627375 68.0589
0.0193479 0 0.00627375 26.821
-0.0200226 0 0.00365995 84.339
0.0200226 0 0.00365995 12.2733
-0.019693 0 0.00529521 71.0767
0.019693 -5.42101e-20 0.00529521 11.0465
-0.0188066 3.8133e-21 0.00805004 955.821
0.0188066 2.79695e-20 0.00805004 1024.27
-0.0193268 2.58494e-26 0.00692069 68.1271
0.0193268 -2.58494e-26 0.00692069 53.5784
-0.0196676 5.42101e-20 0.00594439 65.4788
0.0196676 -2.71051e-20 0.00594439 15.3938
-0.01902 0 0.00784265 53.0994
0.01902 -2.71051e-20 0.00784265 270.29
-0.0205868 5.42101e-20 0.000581102 237.572
0.0205869 0 0.000581094 237.018
-0.0188712 0 0.00831333 1384.93
0.0188712 2.71051e-20 0.00831333 1380.88
-0.020095 4.74981e-20 0.00487938 69.6193
0.020095 1.80999e-20 0.00487938 10.0561
-0.0206115 -5.42101e-20 0.00176879 145.634
0.0206115 5.42101e-20 0.00176879 43.168
-0.0188391 0 0.00862624 1385.43
0.0188391 8.27181e-25 0.00862624 1381.68
-0.0193074 -1.03398e-25 0.00756039 63.2276
0.0193074 0 0.00756039 131.849
-0.0196738 -2.71051e-20 0.00657561 65.7177
0.0196738 -2.71051e-20 0.00657561 24.3468
-0.0200001 0 0.00561439 65.292
0.0200001 3.96488e-21 0.00561439 12.3895
0.0206346 1.0842e-19 0.00301452 13.7254
-0.0206346 5.42101e-20 0.00301452 100.374
0.0196391 5.42101e-20 0.00723369 45.5704
-0.0196391 0 0.00723369 67.1073
0.0192519 -2.06795e-25 0.00823155 715.949
-0.0192519 0 0.00823155 637.712
-0.0200715 -3.31551e-21 0.00617586 61.1962
0.0200715 6.46235e-27 0.00617586 17.2458
0.0191557 2.71051e-20 0.00860727 1382.48
-0.0191557 2.71051e-20 0.00860727 1385.94
-0.0206641 -1.0842e-19 0.00428079 75.4069
0.0206641 5.42101e-20 0.00428079 8.64394
0.0191433 8.27181e-25 0.00894011 1321.41
-0.0191433 0 0.00894011 1325.76
0.0196055 0 0.00788712 99.7328
-0.0196055 0 0.00788712 65.3438
-0.0199746 -7.72817e-21 0.0069041 61.5821
0.0199746 1.29247e-26 0.0069041 28.1319
-0.0211723 1.65436e-24 1.19397e-08 243.268
0.0211724 0 4.52929e-09 242.375
-0.0212048 -1.65436e-24 0.00115269 199.177
0.0212049 0 0.00115268 143.073
0.0194188 -2.94596e-20 0.0086858 980.351
-0.0194188 -3.17377e-20 0.0086858 930.695
-0.0199446 -5.16988e-26 0.00755308 62.4769
0.0199446 0 0.00755308 53.739
0.0203041 2.71051e-20 0.00658402 16.9394
-0.0203041 0 0.00658402 56.1729
-0.0212384 8.27181e-25 0.0023678 124.229
0.0212384 0 0.0023678 27.5974
0.0206408 0 0.00559143 9.84682
-0.0206408 -5.42101e-20 0.00559143 55.261
0.0196393 0 0.00847876 268.495
-0.0196393 -5.42101e-20 0.00847876 106.163
0.0194792 2.71051e-20 0.0089564 1260.3
-0.0194792 2.71051e-20 0.0089564 1265.54
-0.0194172 -8.27181e-25 0.00928185 1141.27
0.0194172 0 0.00928186 1136
-0.0202831 2.71051e-20 0.00722169 57.4385
0.0202831 2.71051e-20 0.00722169 26.1672
-0.0199297 2.75656e-20 0.00819016 76.5874
0.0199297 -1.03398e-25 0.00819016 128.158
-0.0206294 4.84268e-21 0.00624638 54.6059
0.0206294 6.46235e-27 0.00624638 13.8231
-0.0212679 0 0.00364055 78.1133
0.0212679 0 0.00364055 10.8169
0.0202625 2.71051e-20 0.00786089 44.4771
-0.0202625 5.42101e-20 0.00786089 59.9246
-0.0206173 -1.84924e-20 0.00689381 54.167
0.0206173 0 0.00689381 18.6098
-0.0198766 0 0.00887843 550.364
0.0198766 -2.06795e-25 0.00887843 589.292
-0.0217896 -5.42101e-20 0.000568406 248.978
0.0217897 -5.42101e-20 0.000568406 247.744
-0.0212798 1.03398e-25 0.00493138 54.1691
0.0212798 -1.03398e-25 0.00493138 8.95784
0.0197714 0 0.0092976 1011.57
-0.0197714 2.71051e-20 0.0092976 1016.88
-0.019669 0 0.00964181 1621.58
0.019669 0 0.00964181 1617.01
-0.0218374 0 0.00173743 162.851
0.0218374 -1.0842e-19 0.00173743 40.583
-0.0205995 0 0.0075318 55.0266
0.0205995 0 0.0075318 28.5159
0.0209456 0 0.00655441 13.2024
-0.0209456 -2.71051e-20 0.00655441 52.7365
-0.0202362 -5.42101e-20 0.00851518 72.7126
0.0202362 -2.71051e-20 0.00851518 89.2098
0.021882 5.42101e-20 0.00297573 12.547
-0.021882 0 0.00297573 87.3092
-0.0205755 0 0.00817149 59.9704
0.0205755 5.16988e-26 0.00817149 49.8606
-0.0209362 5.42101e-20 0.00721472 50.3749
0.0209362 -2.71051e-20 0.00721472 18.2806
0.0199576 0 0.00972223 2223.04
-0.0199576 0 0.00972223 2226.89
-0.0200954 8.34625e-21 0.00945691 1041.75
0.0200954 4.1359e-25 0.00945691 995.925
0.0213454 -3.79224e-21 0.00613816 11.4153
-0.0213454 0 0.00613817 45.8396
-0.0202913 0 0.0091201 159.419
0.0202913 0 0.0091201 190.56
-0.0199226 -8.27181e-25 0.0100021 2023.65
0.0199226 -8.27181e-25 0.0100021 2020.05
-0.0219071 5.42101e-20 0.00426287 49.4505
0.0219071 -1.6263e-19 0.00426287 8.38409
0.0212536 0 0.00687047 14.945
-0.0212536 0 0.00687047 47.6013
-0.0209198 2.71051e-20 0.00783 52.5395
0.0209198 0 0.00783 25.6713
-0.0222349 2.06795e-25 0.00231824 118.883
-0.0223699 0 8.59575e-09 267.772
0.02237 0 1.06529e-08 263.116
-0.0205825 4.88367e-21 0.00880038 91.0342
0.0205825 -1.03398e-25 0.00880038 97.0865
-0.0223673 5.16988e-26 0.00111511 215.673
-0.0224227 5.16988e-26 0.00107137 218.418
-0.0201854 3.83857e-20 0.00982489 1552.7
0.0201854 8.94679e-21 0.00982489 1481.79
-0.0224248 -7.65802e-20 0.00111325 216.489
0.0224249 0 0.00111326 153.998
-0.0222602 -1.03398e-25 0.00359676 61.605
0.0208973 5.42101e-20 0.00847326 41.2317
-0.0208973 0 0.00847326 55.109
-0.020392 -2.71051e-20 0.00967037 598.586
0.020392 0 0.00967037 391.218
0.0202271 0 0.0100702 1816.85
-0.0202271 -5.42101e-20 0.0100702 1820.21
0.0224885 -8.27181e-25 0.00230561 27.4674
-0.0224885 4.35242e-20 0.00230562 117.522
-0.0219242 -5.42101e-20 0.0055407 36.6212
0.0219242 0 0.0055407 8.96265
-0.0206219 2.06795e-25 0.00940243 277.086
0.0206219 0 0.00940243 199.987
0.0201769 0 0.0103635 1711.82
-0.0201769 0 0.0103635 1714.64
-0.0214053 0 0.00750768 45.6605
0.0214053 6.51345e-21 0.00750768 19.6068
-0.0212331 -1.26051e-20 0.0081501 50.189
0.0212331 -2.58494e-26 0.0081501 30.0567
-0.0227454 8.27181e-25 -8.97294e-36 292.607
-0.0222376 0 0.00490354 42.0228
0.0225307 0 0.00358481 10.5096
-0.0225307 4.80054e-20 0.00358482 57.1056
-0.0209306 -2.71051e-20 0.009079 75.2898
0.0209306 0 0.009079 65.2458
-0.0205788 -3.71061e-20 0.0100354 984.106
0.0205788 0 0.0100354 889.025
0.0218832 1.0842e-19 0.00683353 12.5382
-0.0218832 -5.42101e-20 0.00683353 34.5904
-0.0220903 0 0.00617273 36.9336
-0.02047 0 0.0103922 1608.99
0.02047 2.71051e-20 0.0103922 1606.71
-0.0229944 -5.42101e-20 0.000536085 286.611
0.0229945 0 0.000536078 278.525
-0.0213123 -1.20898e-21 0.00869943 57.116
0.0213123 -2.58494e-26 0.00869943 42.5366
-0.020909 -2.71051e-20 0.00972034 229.586
0.020909 0 0.00972034 126.15
0.0225437 0 0.00489464 8.63955
-0.0225437 1.64738e-21 0.00489464 38.1412
0.0204318 0 0.0107257 1454.93
-0.0204318 0 0.0107257 1457.02
-0.0230802 5.42101e-20 0.00165832 164.662
0.0230803 -5.42101e-20 0.00165833 43.5737
-0.0212246 0 0.00940472 113.829
0.0212246 -5.16988e-26 0.00940472 70.3388
0.0207156 3.86198e-20 0.0104897 1077.04
-0.0207156 -3.64125e-21 0.0104897 1136.44
0.0209353 0 0.0102994 293.858
-0.0209353 -2.71051e-20 0.0102994 471.546
-0.0231589 0 0.00287977 53.9509
0.0231589 0 0.00287976 12.6764
-0.0218885 5.42101e-20 0.00814494 38.2603
0.0218885 5.42101e-20 0.00814494 19.284
0.0225301 -1.6632e-20 0.00619313 10.3483
-0.0225301 -2.90288e-20 0.00619313 31.675
0.0207613 5.42101e-20 0.0107635 1303.08
-0.0207613 0 0.0107635 1304.98
-0.0215469 0 0.00909429 53.1316
0.0215469 0 0.00909429 36.2107
0.0212144 0 0.0100278 146.206
-0.0212144 -4.58186e-21 0.0100278 262.521
0.020687 -8.27181e-25 0.0110884 1177.06
-0.020687 0 0.0110884 1178.56
-0.0231865 0 0.00419035 37.368
0.0231866 0 0.00419035 8.46324
0.0218725 0 0.00877017 27.4897
-0.0218725 0 0.00877017 45.3891
-0.0235735 0 1.78781e-08 347.375
0.0235737 0 1.46761e-08 335.081
-0.0215348 -2.71051e-20 0.00971336 98.4606
0.0215348 -2.71051e-20 0.00971337 54.1903
-0.0224336 -2.42338e-27 0.00748097 32.8671
-0.0236424 -4.84893e-20 0.00102426 257.508
0.0236425 -3.30872e-24 0.00102426 197.319
0.0211543 4.7385e-21 0.0107041 615.993
-0.0211543 -1.03398e-25 0.0107041 713.296
0.0225191 2.6493e-20 0.00747875 14.3758
-0.0225191 5.12412e-20 0.00747875 31.8038
0.0218553 2.58494e-26 0.00939598 36.9011
-0.0218553 1.29247e-26 0.00939598 62.7298
0.021043 0 0.011115 1051.01
-0.021043 2.71051e-20 0.011115 1052.11
-0.0231776 5.42101e-20 0.0055198 29.1397
0.0231777 0 0.00551979 8.74002
0.0209424 0 0.0114514 1732.03
-0.0209424 -6.46235e-27 0.0114514 1732.64
0.0215108 -2.71051e-20 0.0103577 97.4123
-0.0215108 2.71051e-20 0.0103577 231.581
-0.0237791 -1.4919e-20 0.00216485 104.772
0.0237792 0 0.00216486 32.4927
-0.0209529 -8.40105e-26 0.0114663 1753.97
-0.0225545 0 0.00806049 34.3246
-0.0221872 5.42101e-20 0.00906953 42.2655
0.0221872 -2.71051e-20 0.00906953 24.0761
-0.0211228 -6.46235e-27 0.0113806 1495.58
0.0218425 0 0.0100258 57.3846
-0.0218425 0 0.0100258 123.742
-0.0238309 -1.33705e-20 0.00346141 41.4009
0.023831 0 0.00346141 10.8972
-0.021348 -6.46235e-27 0.0112435 1145.37
-0.024136 0 0.000451688 408.792
0.0241362 -1.0842e-19 0.000451688 392.245
-0.0231587 0 0.00682378 26.31
0.0231587 -1.0842e-19 0.00682378 11.1328
0.0213633 2.06795e-25 0.0112862 1074.14
-0.0213633 -3.31821e-20 0.0112862 1179.57
-0.0212283 0 0.0115413 2413.32
0.0212283 -2.71051e-20 0.0115413 2413.19
-0.0218459 -6.46235e-27 0.0103407 183.797
0.0215589 0 0.0109592 204.363
-0.0215589 -2.71051e-20 0.0109592 395.123
-0.0221622 2.71051e-20 0.00970256 57.4876
0.0221622 0 0.00970256 33.2145
0.0225915 0 0.00866816 20.0374
-0.0225915 -1.65035e-20 0.00866816 36.9578
-0.0225553 -1.61559e-27 0.00893135 40.4885
-0.0218006 -3.23117e-26 0.0106547 275.892
0.021198 0 0.0118146 2253.87
-0.021198 0 0.0118146 2253.95
-0.0223975 -6.46235e-27 0.00938204 48.9457
0.0218492 1.05795e-20 0.010651 107.198
-0.0218492 0 0.010651 242.985
-0.0238226 3.53161e-20 0.00482927 32.1877
0.0238227 -3.0281e-20 0.00482927 8.44243
-0.0221896 0 0.00998008 99.7929
0.0224936 0 0.00937957 26.4884
-0.0224936 -1.61559e-27 0.00937957 46.5012
-0.0243535 0 0.00151159 157.779
0.0243536 0 0.00151158 57.9887
0.0214522 -1.05596e-20 0.0116532 1644.79
-0.0214522 1.86084e-20 0.0116532 1727.03
0.0221811 0 0.0103174 45.9995
-0.0221811 5.42101e-20 0.0103174 110.967
0.0216524 2.71051e-20 0.0115106 431.95
-0.0216524 2.71051e-20 0.0115106 677.944
-0.0231638 0 0.00808475 28.1289
0.0231638 0 0.00808475 14.5634
0.0214945 2.71051e-20 0.0118953 2094.49
-0.0214945 2.71051e-20 0.0118953 2094.51
0.0238023 3.90781e-20 0.00616473 9.38864
-0.0238023 -1.17098e-20 0.00616473 26.224
-0.0245816 3.61842e-20 0.000867554 255.011
0.0245818 -7.80792e-20 0.000867512 209.746
0.0218774 0 0.0112557 220.805
-0.0218774 2.05259e-20 0.0112557 416.07
0.0225698 3.55059e-20 0.00993 33.7736
-0.0225698 2.95042e-20 0.00993 73.5638
-0.0245173 -5.42101e-20 0.00266677 38.5324
0.0245175 -1.0842e-19 0.00266677 14.182
-0.0214548 0 0.0121776 1972.37
0.0214548 -4.1359e-25 0.0121776 1972.34
0.0221734 5.42101e-20 0.0109509 75.9743
-0.0221734 0 0.0109509 225.097
-0.0244638 -5.42101e-20 0.00410821 35.1694
0.0244639 1.0842e-19 0.0041082 8.44639
-0.0248191 0 5.55242e-08 296.602
0.0248195 0 2.17063e-08 277.763
-0.0218316 2.79173e-22 0.0118824 1125.25