# omega  POINT_DATA 5809
# x  y  z  omega
-1.57772e-30 -0.237 8.31749e-08 1089.95
-1.09046e-25 0.237 8.64572e-08 1090.73
0 0.237 0.000550924 1107.86
0 -0.237 0.000550925 1107.47
0 0.237 0.0011232 1117.01
0 -0.237 0.0011232 1117.03
0 0.237 0.00172954 1104.58
0 -0.237 0.00172954 1104.6
0 -0.237 0.00236831 1100.42
0 0.237 0.00236831 1100.39
-8.27181e-25 -0.237 0.00302578 1099.22
0 0.237 0.00302578 1099.18
0 0.237 0.00361376 1095.95
0 -0.237 0.00366636 1095.7
0 0.237 0.00368597 1095.55
0 -0.237 0.00368597 1095.59
-1.03398e-25 0.237 0.00384697 1094.41
0 0.237 0.00433887 1090.93
1.03398e-25 -0.237 0.00433887 1090.94
-4.1359e-25 0.237 0.00498192 1087.03
0 -0.237 0.00498192 1086.99
0 0.237 0.0056169 1083.65
0 -0.237 0.0056169 1083.58
-2.06795e-25 0.237 0.0060091 1082.53
2.06795e-25 -0.237 0.00624674 1081.87
0 0.237 0.00624674 1081.86
-2.06795e-25 -0.237 0.00687382 1081.83
0 0.237 0.00687382 1081.52
3.87741e-26 -0.237078 0.00368896 1029.6
-4.1359e-25 0.237 0.00749962 1081.67
0 -0.237 0.00749962 1082.49
0 -0.237 0.00812489 1083.69
-4.1359e-25 0.237 0.0081249 1082.38
-4.1359e-25 0.237 0.00874998 1083.57
0 -0.237 0.00874998 1085.12
0 0.237 0.009375 1084.93
2.06795e-25 -0.237 0.009375 1086.5
0 -0.237 0.0096071 1086.94
-4.1359e-25 0.237 0.01 1086.19
-4.1359e-25 -0.237 0.01 1087.67
4.1359e-25 -0.237 0.010625 1088.54
8.27181e-25 0.237 0.010625 1087.19
0 0.237223 0.00369457 905.057
-2.71051e-20 0.237263 0.000279273 1090.73
2.71051e-20 -0.237263 0.000279185 1089.95
0 -0.237 0.01125 1089.17
0 0.237 0.01125 1087.87
0 0.237267 0.000847159 1125.29
0 -0.237267 0.000847159 1125.3
0 -0.237269 0.00144351 1108.53
0 0.237269 0.00144351 1108.5
-2.71051e-20 -0.23727 0.00206936 1100.57
0 0.23727 0.00206936 1100.54
2.71051e-20 -0.23727 0.00271568 1100.26
0 0.23727 0.00271568 1100.22
-2.71051e-20 0.23727 0.00336939 1098.14
0 -0.23727 0.00336939 1098.18
0 -0.237 0.011875 1089.68
0 0.237 0.011875 1088.32
5.42101e-20 0.237271 0.00402047 1092.98
-2.71051e-20 -0.237271 0.00402047 1093
0 0.237 0.0121518 1088.48
-2.71051e-20 0.237271 0.00466435 1088.9
5.42101e-20 -0.237271 0.00466435 1088.88
0 -0.237 0.0125 1090.13
-4.1359e-25 0.237 0.0125 1088.69
2.71051e-20 0.237272 0.00530117 1085.18
-2.71051e-20 -0.237272 0.00530117 1085.11
2.58494e-26 -0.237306 0.00434507 838
0 0.237272 0.0059324 1082.12
0 -0.237272 0.0059324 1082.06
2.71051e-20 0.237272 0.00656043 1081.59
-2.71051e-20 -0.237272 0.00656043 1081.68
-4.1359e-25 0.237 0.013125 1089.01
0 -0.237 0.013125 1090.49
2.71051e-20 0.237272 0.00718674 1081.46
-5.42101e-20 -0.237272 0.00718674 1081.99
0 -0.237 0.0134875 1090.66
-4.1359e-25 0.237 0.01375 1089.36
2.06795e-25 -0.237 0.01375 1090.78
0 0.237272 0.00781225 1081.88
0 -0.237272 0.00781225 1082.99
0 -0.237272 0.00843743 1084.39
0 0.237272 0.00843743 1082.88
0 -0.237371 0.00498524 796.955
0 0.237 0.014375 1089.71
0 -0.237 0.014375 1091
-2.71051e-20 0.237272 0.00906248 1084.25
2.71051e-20 -0.237272 0.00906248 1085.85
0 0.237 0.0146945 1089.88
-2.71051e-20 -0.237272 0.0096875 1087.15
-2.71051e-20 0.237272 0.0096875 1085.62
4.1359e-25 0.237 0.015 1090.05
2.06795e-25 -0.237 0.015 1091.16
0 -0.237427 0.0056183 775.169
-2.71051e-20 -0.237272 0.0103125 1088.19
-2.71051e-20 0.237272 0.0103125 1086.77
0 0.237 0.015625 1090.41
0 -0.237 0.015625 1091.31
0 0.23752 8.32931e-08 1040.25
0 -0.237521 8.4701e-08 1039.52
-1.03398e-25 0.237523 0.00017771 985.364
2.71051e-20 -0.237272 0.0109375 1088.89
-2.71051e-20 0.237272 0.0109375 1087.61
0 -0.237529 0.000533903 874.889
1.30587e-20 0.237529 0.000562809 866.371
0 -0.237529 0.000562807 865.975
0 0.237533 0.00115011 668.252
0 -0.237533 0.00115011 667.408
0 0.237538 0.00176909 643.129
0 -0.237538 0.00176909 640.634
0 -0.237469 0.00624719 760.677
4.1359e-25 0.23754 0.0024097 635.542
-1.63962e-20 -0.23754 0.0024097 631.813
2.71051e-20 -0.237272 0.0115625 1089.44
0 0.237272 0.0115625 1088.12
0 0.237 0.01625 1090.77
0 -0.237 0.01625 1091.46
0 -0.237541 0.00305869 631.007
2.06795e-25 0.237541 0.00305869 633.389
-1.29247e-26 -0.23756 0.000563223 850.786
0 -0.237542 0.00370687 634.663
0 0.237542 0.00370687 632.702
-5.16988e-26 -0.237543 0.00434987 642.377
0 0.237543 0.00434987 633.317
0 -0.237272 0.0121875 1089.92
-8.13152e-20 0.237272 0.0121875 1088.53
-1.33882e-20 0.237543 0.00498678 637.387
0 -0.237543 0.00498678 662.513
0 -0.237499 0.0068739 745.332
4.1359e-25 0.237 0.016875 1091.13
0 -0.237 0.016875 1091.62
6.46235e-27 0.237526 0.00624724 699.159
-9.19024e-21 0.237544 0.00561869 654.228
0 -0.237544 0.00561869 690.431
-2.71051e-20 -0.237272 0.0128125 1090.33
0 0.237272 0.0128125 1088.85
2.00312e-20 -0.237544 0.00624726 709.342
6.46235e-27 0.237544 0.00624726 685.869
4.1359e-25 0.237 0.0172755 1091.35
-6.46235e-27 0.237544 0.00645559 693.975
-1.29247e-26 -0.237524 0.00749961 721.629
-2.58494e-26 -0.237544 0.00687391 714.718
0 0.237544 0.00687391 710.252
0 -0.237 0.0175 1091.79
-2.06795e-25 0.237 0.0175 1091.46
2.71051e-20 -0.237272 0.0134375 1090.65
0 0.237272 0.0134375 1089.18
-2.58494e-26 0.237544 0.00749961 717.715
0 -0.237544 0.00749961 707.66
1.03398e-25 0.237 0.0177366 1091.58
0 -0.237544 0.00796935 695.281
0 -0.237497 0.00937499 689.558
1.18271e-21 0.237544 0.00812487 710.52
0 -0.237544 0.00812487 691.182
5.42101e-20 -0.237272 0.0140625 1090.91
0 0.237272 0.0140625 1089.54
4.1359e-25 -0.237 0.018125 1091.97
0 0.237 0.018125 1091.78
1.93025e-20 0.237544 0.00874996 692.119
1.88007e-20 -0.237544 0.00874996 671.433
0 -0.237544 0.00896088 664.939
0 -0.237272 0.0146875 1091.09
-2.71051e-20 0.237272 0.0146875 1089.88
-2.12714e-20 0.237544 0.00937499 670.381
-2.58494e-26 -0.237544 0.00937499 652.189
0 -0.237 0.01875 1092.15
-4.1359e-25 0.237 0.01875 1092.07
-2.14989e-20 0.237544 0.01 650.209
0 -0.237544 0.01 638.162
6.46235e-27 -0.23762 0.00812488 626.779
0 -0.237272 0.0153125 1091.22
-2.71051e-20 0.237272 0.0153125 1090.22
0 -0.237544 0.010625 631.309
4.63769e-21 0.237544 0.010625 636.178
0 -0.237 0.019375 1092.31
4.1359e-25 0.237 0.019375 1092.33
-2.71051e-20 0.237799 0.000284465 988.972
2.71051e-20 -0.237799 0.000284553 988.376
-2.71051e-20 -0.237272 0.0159375 1091.38
-2.71051e-20 0.237272 0.0159375 1090.59
0 -0.237544 0.01125 628.93
4.93062e-21 0.237544 0.01125 629.579
-2.71051e-20 0.237811 0.000863452 236.81
-5.42101e-20 -0.237811 0.000863452 236.583
0 -0.23782 0.00147122 175.83
0 0.23782 0.00147122 179.131
2.71051e-20 -0.237826 0.00210431 158.144
0 0.237826 0.00210431 165.071
2.06795e-25 -0.237544 0.011875 628.165
0 0.237544 0.011875 627.049
0 -0.237 0.02 1092.42
0 0.237 0.02 1092.56
0 0.237544 0.0119635 626.862
-5.42101e-20 0.237829 0.00274869 161.106
0 -0.237829 0.00274869 152.906
-5.42101e-20 -0.237272 0.0165625 1091.53
-2.71051e-20 0.237272 0.0165625 1090.96
0 -0.23783 0.00339421 160.767
5.42101e-20 0.23783 0.00339421 162.135
0 0.237831 0.00403604 166.648
2.71051e-20 -0.237831 0.00403604 175.937
0 -0.237544 0.0125 628.547
2.06795e-25 0.237544 0.0125 625.728
0 0.237832 0.00467279 173.215
0 -0.237832 0.00467279 200.486
0 -0.237485 0.01375 682.347
-2.71051e-20 0.237833 0.00530504 188.421
-2.71051e-20 -0.237833 0.00530504 262.639
-6.46235e-27 0.237793 0.00687412 512.634
-2.71051e-20 -0.237272 0.0171875 1091.7
0 0.237272 0.0171875 1091.31
0 -0.237 0.020625 1092.5
0 0.237 0.020625 1092.76
0 0.237544 0.013125 625.315
0 -0.237544 0.013125 630.21
-5.42101e-20 0.237833 0.00593404 247.588
0 -0.237833 0.00593404 319.461
2.71051e-20 0.237834 0.00656112 318.398
-5.42101e-20 -0.237834 0.00656112 341.191
5.16988e-26 -0.237922 0.00116186 324.847
2.71051e-20 -0.237272 0.0178125 1091.88
2.71051e-20 0.237272 0.0178125 1091.62
6.46235e-27 -0.23778 0.00874997 467.091
-2.06795e-25 0.237544 0.01375 626.14
0 -0.237544 0.01375 632.722
2.71051e-20 0.237834 0.00718692 346.133
0 -0.237834 0.00718692 340.728
4.1359e-25 -0.237 0.02125 1092.55
-4.1359e-25 0.237 0.02125 1092.9
0 0.237834 0.00781229 347.933
0 -0.237834 0.00781229 311.07
0 -0.237529 0.014375 647.735
0 0.237544 0.014375 628.16
-6.46235e-27 -0.237544 0.014375 635.357
0 0.237834 0.00843743 315.575
2.71051e-20 -0.237834 0.00843743 271.701
0 -0.237513 0.015 663.996
2.71051e-20 -0.237272 0.0184375 1092.07
5.42101e-20 0.237272 0.0184375 1091.94
5.16988e-26 0.237544 0.0147612 629.672
0 -0.237834 0.00906248 228.402
2.71051e-20 0.237834 0.00906248 271.208
0 0.237 0.021875 1093.01
0 -0.237 0.021875 1092.55
0 -0.237497 0.015625 679.005
2.06893e-21 0.237544 0.015 630.607
-1.29247e-26 -0.237544 0.015 637.938
2.71051e-20 -0.237834 0.0096875 191.186
2.71051e-20 0.237834 0.0096875 225.021
2.71051e-20 -0.237272 0.0190625 1092.24
5.42101e-20 0.237272 0.0190625 1092.21
0 -0.237497 0.01625 681.218
-2.59562e-20 0.237544 0.015625 633.032
-2.58494e-26 -0.237544 0.015625 640.341
5.42101e-20 -0.237834 0.0103125 169.387
-2.71051e-20 0.237834 0.0103125 187.203
0 -0.23806 2.90145e-09 976.866
2.06795e-25 0.23806 -5.5536e-11 977.155
0 0.237 0.0225 1093.07
0 -0.237 0.0225 1092.51
-2.06795e-25 0.238068 0.000191009 850.257
0 0.237431 0.0175 733.397
0 0.238083 0.000570196 598.344
0 -0.238083 0.000570195 596.569
5.42101e-20 -0.237834 0.0109375 161.754
2.71051e-20 0.237834 0.0109375 166.343
-5.42101e-20 -0.237272 0.0196875 1092.38
5.42101e-20 0.237272 0.0196875 1092.46
0 0.237981 0.00749973 362.427
-3.21423e-20 0.237544 0.01625 635.468
0 -0.237544 0.01625 642.448
-4.1359e-25 0.238097 0.00116715 176.839
0 -0.238097 0.00116715 170.693
0 -0.237516 0.016875 667.132
0 -0.237834 0.0115625 158.505
-5.42101e-20 0.237834 0.0115625 159.186
0 -0.238109 0.00179591 123.142
2.06795e-25 0.238109 0.00179591 133.32
0 0.237 0.023125 1093.1
0 -0.237 0.023125 1092.43
0 0.238117 0.00244027 119.623
0 -0.238117 0.00244027 109.297
5.42101e-20 -0.237272 0.0203125 1092.46
2.71051e-20 0.237272 0.0203125 1092.66
0 0.23812 0.00308541 113.598
-5.16988e-26 -0.23812 0.00308541 109.577
9.28334e-21 0.237544 0.016875 637.824
0 -0.237544 0.016875 644.14
-2.71051e-20 -0.237834 0.0121875 157.614
-2.71051e-20 0.237834 0.0121875 155.198
0 -0.238121 0.00372595 124.92
0 0.238121 0.00372595 113.901
0 -0.238122 0.00436151 154.314
2.58494e-26 0.238122 0.00436151 122.532
-6.46235e-27 -0.237544 0.0172731 645.024
0 -0.238122 0.00499302 193.431
0 0.238122 0.00499302 146.161
-6.46235e-27 0.237881 0.011875 327.125
0 -0.237834 0.0128125 159.142
0 0.237834 0.0128125 153.108
0 0.237 0.02375 1093.12
8.27181e-25 -0.237 0.02375 1092.32
2.39433e-21 0.237544 0.0175 640.002
-6.46235e-27 -0.237544 0.0175 645.528
0 -0.238123 0.00562167 230.008
-1.48616e-20 0.238123 0.00562167 185.348
-2.71051e-20 -0.237272 0.0209375 1092.55
-5.42101e-20 0.237272 0.0209375 1092.85
0 -0.238123 0.00624853 246.719
0 0.238123 0.00624853 227.418
-2.71051e-20 -0.237834 0.0134375 163.577
5.42101e-20 0.237834 0.0134375 152.869
0 -0.238124 0.0068744 242.452
-1.29247e-26 0.238124 0.0068744 249.538
-2.19107e-20 0.237544 0.018125 641.872
1.06337e-20 -0.237544 0.018125 646.735
0 -0.238124 0.00749977 223.832
1.29247e-26 0.238124 0.00749977 246.03
0 -0.237834 0.0140625 168.7
2.71051e-20 0.237834 0.0140625 155.743
0 0.237272 0.0215625 1092.96
-2.71051e-20 -0.237272 0.0215625 1092.55
8.27181e-25 0.237 0.024375 1093.12
-8.27181e-25 -0.237 0.024375 1092.17
0 0.238253 -3.33791e-10 972.067
3.23117e-27 0.238124 0.00805007 227.651
0 -0.238124 0.00812492 196.661
-1.61559e-27 0.238124 0.00812492 225.151
-9.09899e-21 -0.237544 0.01875 648.293
-1.30372e-20 0.237544 0.01875 643.504
-1.29247e-26 -0.238124 0.00874998 168.765
0 0.238124 0.00874998 194.412
2.71051e-20 -0.237834 0.0146875 173.77
2.71051e-20 0.237834 0.0146875 160.309
0 0.237272 0.0221875 1093.06
-2.71051e-20 -0.237272 0.0221875 1092.55
0 -0.238124 0.00937499 144.173
1.29906e-20 0.238124 0.00937499 164.077
-8.27181e-25 0.237 0.025 1093.13
0 -0.237 0.025 1092.01
5.42101e-20 -0.237834 0.0153125 178.801
5.42101e-20 0.237834 0.0153125 164.917
3.56757e-20 -0.237544 0.019375 650.14
2.80914e-20 0.237544 0.019375 644.959
0 -0.238124 0.01 127.112
5.2839e-21 0.238124 0.01 138.861
0 -0.238124 0.010625 118.177
-2.27215e-20 0.238124 0.010625 122.27
2.71051e-20 -0.238362 0.000287929 965.06
5.42101e-20 0.238362 0.000287929 965.043
-2.71051e-20 0.237272 0.0228125 1093.08
0 -0.237272 0.0228125 1092.47
2.71051e-20 -0.237834 0.0159375 183.17
-2.71051e-20 0.237834 0.0159375 169.379
0 -0.237 0.025625 1091.85
8.27181e-25 0.237 0.025625 1093.15
1.29247e-26 -0.23774 0.0175 471.97
6.48282e-21 -0.237544 0.02 651.976
1.75214e-20 0.237544 0.02 646.669
-1.03398e-25 -0.238124 0.01125 114.078
-3.20249e-20 0.238124 0.01125 114.24
-5.42101e-20 0.238389 0.000874094 183.42
-2.71051e-20 -0.238389 0.000874094 176.75
1.29247e-26 0.238124 0.0115928 112.294
0 0.237834 0.0165625 174.005
-2.71051e-20 -0.237834 0.0165625 186.997
2.42338e-27 0.238273 0.00812493 191.706
-2.71051e-20 -0.238408 0.00148916 89.8615
2.71051e-20 0.238408 0.00148916 104.663
0 -0.238124 0.011875 111.878
1.29247e-26 0.238124 0.011875 110.692
2.58494e-26 -0.238409 0.00244824 86.1855
-5.42101e-20 0.237272 0.0234375 1093.13
-5.42101e-20 -0.237272 0.0234375 1092.4
2.71051e-20 -0.238422 0.00212682 66.4298
-5.42101e-20 0.238422 0.00212682 82.3455
1.76907e-20 -0.237544 0.020625 653.601
2.19445e-20 0.237544 0.020625 648.925
2.71051e-20 -0.238429 0.00277088 57.8894
-2.71051e-20 0.238429 0.00277088 68.1629
-8.27181e-25 -0.237 0.02625 1091.72
-8.27181e-25 0.237 0.02625 1093.21
-1.03398e-25 -0.238124 0.0125 111.029
-5.16988e-26 0.238124 0.0125 108.615
-2.71051e-20 0.237834 0.0171875 178.154
0 -0.237834 0.0171875 189.68
-5.42101e-20 0.238431 0.0034119 61.1868
0 -0.238431 0.0034119 64.9643
2.71051e-20 0.238431 0.00404796 63.7992
0 -0.238431 0.00404796 96.4157
-2.71051e-20 0.238431 0.00467997 84.8251
2.71051e-20 -0.238431 0.00467997 143.163
0 0.238124 0.013125 107.577
-5.16988e-26 -0.238124 0.013125 111.763
2.71051e-20 0.237272 0.0240625 1093.11
2.71051e-20 -0.237272 0.0240625 1092.24
-2.71051e-20 0.238432 0.00530874 136.871
0 -0.238432 0.00530874 165.711
-6.66894e-21 -0.237544 0.02125 655.074
1.17276e-20 0.237544 0.02125 651.596
2.71051e-20 -0.237834 0.0178125 192.248
0 0.237834 0.0178125 182.122
0 0.238432 0.00593583 167.145
-2.71051e-20 -0.238432 0.00593583 169.769
0 -0.237 0.026875 1091.6
8.27181e-25 0.237 0.026875 1093.29
0 0.238124 0.01375 107.829
2.58494e-26 -0.238124 0.01375 113.795
5.42101e-20 0.238432 0.00656171 174.222
0 -0.238432 0.00656171 153.063
2.71051e-20 0.238432 0.00718722 156.219
0 -0.238432 0.00718722 131.062
2.71051e-20 -0.237834 0.0184375 194.176
-2.71051e-20 0.237834 0.0184375 185.066
1.34926e-20 0.237544 0.021875 654.083
1.01331e-20 -0.237544 0.021875 656.451
0 0.237272 0.0246875 1093.14
-2.71051e-20 -0.237272 0.0246875 1092.11
-2.58494e-26 0.238124 0.014375 109.252
2.58494e-26 -0.238124 0.014375 116.501
2.71051e-20 0.238432 0.00781239 129.899
-2.71051e-20 -0.238432 0.00781239 108.496
-5.42101e-20 -0.238432 0.00843746 91.6705
2.71051e-20 0.238432 0.00843746 103.027
1.29247e-26 0.238124 0.0148898 110.894
0 -0.237 0.0275 1091.54
8.27181e-25 0.237 0.0275 1093.39
-2.58494e-26 -0.238124 0.015 119.716
-6.46235e-27 0.238124 0.015 111.246
5.42101e-20 0.237834 0.0190625 188.114
-2.71051e-20 -0.237834 0.0190625 198.17
0 0.238432 0.00906249 83.9554
2.71051e-20 -0.238432 0.00906249 80.1025
-8.20356e-22 0.237544 0.0225 656.34
-1.36934e-20 -0.237544 0.0225 657.833
-5.42101e-20 0.237272 0.0253125 1093.12
-2.71051e-20 -0.237272 0.0253125 1091.92
2.71051e-20 -0.238432 0.0096875 74.4267
8.13152e-20 0.238432 0.0096875 72.828
0 -0.238631 5.27908e-09 962.133
0 0.238631 3.43194e-09 962.129
-1.00723e-20 0.238124 0.015625 113.582
-2.58494e-26 -0.238124 0.015625 123.117
0 0.237834 0.0196875 190.407
-5.42101e-20 -0.237834 0.0196875 201.322
2.71051e-20 -0.238432 0.0103125 71.3607
0 0.238432 0.0103125 67.7535
8.27181e-25 -0.237 0.028125 1091.52
4.1359e-25 0.237 0.028125 1093.52
1.89503e-20 0.237544 0.023125 658.313
-7.67996e-21 -0.237544 0.023125 659.235
0 0.238672 0.000575691 584.057
1.10619e-20 -0.238672 0.000575689 577.481
3.95688e-20 0.238124 0.01625 116.363
2.58494e-26 -0.238124 0.01625 126.377
-1.29247e-26 -0.238659 0.003098 67.0144
-2.71051e-20 -0.238432 0.0109375 68.3455
0 0.238432 0.0109375 65.6411
0 0.237272 0.0259375 1093.19
2.71051e-20 -0.237272 0.0259375 1091.79
5.42101e-20 0.237834 0.0203125 194.551
2.71051e-20 -0.237834 0.0203125 205.355
-8.27181e-25 0.238701 0.00117836 154.533
-1.82985e-20 -0.238701 0.00117836 138.36
2.71051e-20 -0.238432 0.0115625 65.9011
0 0.238433 0.0115625 63.8875
1.82992e-20 0.238124 0.016875 119.427
0 -0.238124 0.016875 129.232
1.7585e-20 0.237544 0.02375 659.923
6.84864e-21 -0.237544 0.02375 660.639
0 0.238723 0.00181179 96.0575
3.85178e-20 -0.238723 0.00181179 78.1259
0 -0.237 0.02875 1091.57
-4.1359e-25 0.237 0.02875 1093.66
2.71051e-20 -0.238432 0.0121875 63.681
-5.42101e-20 0.238433 0.0121875 62.6741
0 0.238737 0.00245721 73.4243
9.87602e-21 -0.238737 0.00245721 60.1759
2.71051e-20 0.237834 0.0209375 199.121
5.42101e-20 -0.237834 0.0209375 207.708
-2.71051e-20 0.237272 0.0265625 1093.24
-5.42101e-20 -0.237272 0.0265625 1091.64
0 0.238742 0.00309995 61.2017
3.97351e-20 -0.238742 0.00309995 60.4237
0 -0.238742 0.00338081 69.3987
3.41861e-21 0.238124 0.0175 122.52
0 -0.238124 0.0175 131.736
-2.58494e-26 0.238742 0.00373666 59.3004
0 -0.238742 0.00373666 80.7698
0 -0.238432 0.0128125 61.8201
-2.71051e-20 0.238433 0.0128125 61.6935
0 -0.238741 0.0043684 112.222
0 0.238741 0.0043684 74.9306
-5.59836e-21 0.237544 0.024375 661.235
4.69839e-22 -0.237544 0.024375 662.067
0 -0.238741 0.00499695 134.238
6.46235e-27 0.238741 0.00499695 107.374
6.46235e-27 -0.238124 0.0179648 133.403
2.58494e-26 -0.238741 0.00562368 137.874
0 0.238741 0.00562368 134.436
0 0.237834 0.0215625 205.032
0 -0.237834 0.0215625 211.212
2.71051e-20 -0.238432 0.0134375 60.5653
0 0.238433 0.0134375 60.8575
2.62596e-21 0.238124 0.018125 125.365
0 -0.238124 0.018125 133.977
0 -0.237 0.029375 1091.67
-2.06795e-25 0.237 0.029375 1093.8
0 -0.238741 0.00624945 126.868
6.46235e-27 0.238741 0.00624945 140.193
2.71051e-20 -0.237272 0.0271875 1091.56
0 0.237272 0.0271875 1093.34
2.58494e-26 -0.238741 0.00687478 109.113
1.29247e-26 0.238741 0.00687478 127.735
-2.71051e-20 -0.238433 0.0140625 60.2837
-2.71051e-20 0.238433 0.0140625 60.0233
-1.25851e-20 0.237544 0.025 662.196
-2.71824e-20 -0.237544 0.025 663.463
0 -0.238741 0.00749992 91.7277
6.46235e-27 0.238741 0.00749992 106.757
1.35859e-21 -0.238124 0.01875 136.512
7.84839e-22 0.238124 0.01875 127.985
8.07794e-28 0.238701 0.00874999 79.0912
-2.71051e-20 0.237834 0.0221875 208.952
0 -0.237834 0.0221875 213.259
0 -0.238741 0.00812497 78.135
3.23117e-27 0.238741 0.00812497 86.4084
2.71051e-20 0.238432 0.0146875 59.0172
-2.71051e-20 -0.238432 0.0146875 61.102
0 -0.237 0.03 1091.83
-2.06795e-25 0.237 0.03 1093.95
0 0.237272 0.0278125 1093.45
-2.71051e-20 -0.237272 0.0278125 1091.52
-1.29247e-26 -0.238741 0.00874999 69.5624
-8.07794e-28 0.238741 0.00874999 71.1404
-8.07794e-28 0.238741 0.00894905 68.2996
-1.83295e-20 -0.238124 0.019375 139.308
3.09077e-20 0.238124 0.019375 130.413
0 0.237 0.0301963 1093.99
3.19958e-20 0.237544 0.025625 662.819
1.36733e-20 -0.237544 0.025625 664.841
2.71051e-20 -0.238432 0.0153125 62.9732
0 0.238433 0.0153125 58.7252
0 -0.238741 0.009375 65.5649
0 0.238741 0.009375 62.221
0 0.237834 0.0228125 214.022
0 -0.237834 0.0228125 216.88
1.29247e-26 -0.238918 0.00373619 80.1114
1.29247e-26 -0.238741 0.01 64.2389
2.73027e-20 0.238741 0.01 58.2918
0 0.238956 0.000288814 959.145
2.71051e-20 -0.238956 0.000288814 959.135
-1.91757e-20 -0.238124 0.02 142.056
1.43873e-20 0.238124 0.02 133.066
-2.71051e-20 -0.238432 0.0159375 65.2545
-2.71051e-20 0.238433 0.0159375 59.2058
-2.71051e-20 0.237272 0.0284375 1093.59
5.42101e-20 -0.237272 0.0284375 1091.53
8.27181e-25 -0.237 0.030625 1092.05
0 0.237 0.030625 1094.07
0 -0.238741 0.010625 63.1614
3.2973e-20 0.238741 0.010625 57.5225
0 0.237834 0.0234375 216.848
2.71051e-20 -0.237834 0.0234375 219.077
-7.16545e-21 -0.237544 0.02625 666.037
-8.29662e-21 0.237544 0.02625 662.96
-5.42101e-20 -0.239 0.000876671 192.219
0 0.239 0.000876671 212.501
5.16988e-26 -0.238741 0.01125 61.9059
0 0.238741 0.01125 57.5195
-2.71051e-20 0.238433 0.0165625 60.6894
0 -0.238433 0.0165625 67.7819
6.46235e-27 0.238741 0.0113017 57.5089
-5.27028e-21 -0.238124 0.020625 144.506
4.86643e-21 0.238124 0.020625 136.256
2.71051e-20 -0.239031 0.00149329 92.9308
0 0.239031 0.00149329 116.027
0 -0.238741 0.011875 60.4392
-6.46235e-27 0.238741 0.011875 57.3906
0 0.237272 0.0290625 1093.73
-2.71051e-20 -0.237272 0.0290625 1091.6
0 0.237834 0.0240625 220.488
5.42101e-20 -0.237834 0.0240625 222.782
0 0.238432 0.0171875 62.6379
0 -0.238432 0.0171875 70.1507
-4.1359e-25 -0.237 0.03125 1092.29
4.1359e-25 0.237 0.03125 1094.18
6.46855e-21 -0.237544 0.026875 667.049
1.73017e-20 0.237544 0.026875 662.712
-2.71051e-20 0.239054 0.0021315 81.0792
5.42101e-20 -0.239054 0.0021315 63.1804
0 -0.238741 0.0125 58.4462
2.58494e-26 0.238741 0.0125 57.1815
-1.97166e-20 -0.238124 0.02125 146.74
2.83612e-20 0.238124 0.02125 139.857
-2.71051e-20 -0.239065 0.00277515 53.2531
2.71051e-20 0.239065 0.00277515 62.2185
0 0.238612 0.015 64.3067
0 0.239066 0.00341637 53.263
0 -0.239066 0.00341637 65.4423
2.71051e-20 -0.238432 0.0178125 72.54
-5.42101e-20 0.238433 0.0178125 64.9061
-2.71051e-20 0.239063 0.00405176 58.834
2.71051e-20 -0.239063 0.00405176 95.9023
0 0.238741 0.013125 56.6529
0 -0.238741 0.013125 55.8626
0 0.239062 0.00468248 92.0993
0 -0.239062 0.00468248 112.962
0 0.237834 0.0246875 222.134
5.42101e-20 -0.237834 0.0246875 225.139
0 0.239061 0.00531037 115.444
2.71051e-20 -0.239061 0.00531037 114.608
2.71051e-20 0.237272 0.0296875 1093.88
-5.42101e-20 -0.237272 0.0296875 1091.74
-3.00147e-20 0.238124 0.021875 143.233
2.09472e-20 -0.238124 0.021875 148.832
-9.72206e-21 -0.237544 0.0275 667.679
-6.70968e-21 0.237544 0.0275 661.92
0 -0.237 0.031875 1092.55
-4.1359e-25 0.237 0.031875 1094.26
2.71051e-20 0.23906 0.0059367 117.854
0 -0.23906 0.0059367 100.767
0 0.238741 0.01375 55.6184
-2.58494e-26 -0.238741 0.01375 53.483
2.71051e-20 -0.238432 0.0184375 74.621
0 0.238433 0.0184375 67.078
2.71051e-20 0.23906 0.00656221 100.866
0 -0.23906 0.00656221 83.12
5.42101e-20 -0.23906 0.0071874 68.4606
5.42101e-20 0.23906 0.0071874 78.7816
1.29247e-26 0.238741 0.014375 53.788
0 -0.238741 0.014375 52.2924
2.71051e-20 0.237834 0.0253125 224.355
-2.71051e-20 -0.237834 0.0253125 228.743
-1.03398e-25 0.238124 0.0225 146.353
1.67563e-20 -0.238124 0.0225 150.929
2.71051e-20 0.23906 0.00781246 61.2777
0 -0.23906 0.00781246 58.2361
-2.71051e-20 0.238432 0.0190625 69.3837
2.71051e-20 -0.238432 0.0190625 76.7411
0 0.237272 0.0303125 1094.01
-2.71051e-20 -0.237272 0.0303125 1091.93
2.42232e-20 -0.237544 0.028125 667.912
2.67252e-21 0.237544 0.028125 660.604
2.71051e-20 0.23906 0.00843749 50.7221
-5.42101e-20 -0.23906 0.00843749 53.6203
0 -0.238741 0.015 52.5485
1.61559e-27 0.238741 0.015 51.8408
-4.1359e-25 0.237 0.0325 1094.33
-4.1359e-25 -0.237 0.0325 1092.77
0 0.238741 0.0151474 51.6048
1.65436e-24 0.239232 1.14178e-08 985.779
0 -0.239232 7.9948e-09 985.776
2.71051e-20 0.23906 0.0090625 46.329
2.71051e-20 -0.23906 0.0090625 52.471
0 0.238432 0.0196875 71.437
2.71051e-20 -0.238432 0.0196875 78.6283
5.42101e-20 -0.237834 0.0259375 231.022
2.71051e-20 0.237834 0.0259375 224.6
1.02289e-20 0.238124 0.023125 149.1
-1.3876e-20 -0.238124 0.023125 153.019
-6.46235e-27 -0.239205 0.00436813 99.219
1.29247e-26 -0.238741 0.015625 53.707
-6.46235e-27 0.238741 0.015625 50.8407
8.13152e-20 0.239061 0.0096875 45.3897
-5.42101e-20 -0.239061 0.0096875 54.9829
2.06795e-25 -0.237 0.0328488 1092.88
-1.10631e-20 -0.237544 0.02875 667.567
0 0.237544 0.02875 658.748
0 0.237272 0.0309375 1094.13
0 -0.237272 0.0309375 1092.16
2.71051e-20 -0.23906 0.0103125 55.9805
5.42101e-20 0.239061 0.0103125 46.9126
1.86662e-20 0.239291 0.000573876 613.701
2.59387e-20 -0.239291 0.00057387 602.461
-1.29247e-26 -0.238741 0.01625 55.3821
-4.50141e-21 0.238741 0.01625 51.0097
-2.71051e-20 0.238432 0.0203125 73.5368
2.71051e-20 -0.238432 0.0203125 80.5129
-4.1359e-25 0.237 0.033125 1094.35
0 -0.237 0.033125 1092.96
-2.11032e-20 0.238124 0.02375 151.355
3.53232e-20 -0.238124 0.02375 155.077
-2.71051e-20 0.23906 0.0109375 49.5659
-2.71051e-20 -0.239061 0.0109375 56.8006
-2.71051e-20 0.237834 0.0265625 224.806
-5.42101e-20 -0.237834 0.0265625 233.853
1.29247e-26 -0.238741 0.016875 57.26
2.32803e-22 0.238741 0.016875 51.9573
-2.58494e-26 0.23745 0.03 729.738
-3.55291e-20 0.239335 0.00117391 176.295
-1.69183e-20 -0.239335 0.00117392 154.43
0 0.239061 0.0115625 50.8123
0 -0.239061 0.0115625 56.4528
0 0.237544 0.029375 657.159
-1.9387e-26 0.237544 0.0293311 656.562
2.71051e-20 0.238432 0.0209375 75.4371
-2.71051e-20 -0.238432 0.0209375 82.0134
2.66311e-21 -0.237544 0.029375 666.547
0 0.237272 0.0315625 1094.23
0 -0.237272 0.0315625 1092.43
5.50034e-21 0.238124 0.024375 153.169
-3.27998e-21 -0.238124 0.024375 157.119
-2.71051e-20 0.23906 0.0121875 52.0491
5.42101e-20 -0.23906 0.0121875 55.6187
8.27181e-25 0.239367 0.00180576 102.495
1.08783e-20 -0.239367 0.00180576 84.7324
-6.46235e-27 -0.238741 0.0175 59.1887
-6.84691e-21 0.238741 0.0175 53.393
0 0.237834 0.0271875 223.445
2.71051e-20 -0.237834 0.0271875 235.343
4.1359e-25 0.237 0.03375 1094.3
0 -0.237 0.03375 1093.1
0 0.239388 0.00244888 74.2061
-8.64383e-21 -0.239388 0.00244888 63.5369
2.71051e-20 -0.23906 0.0128125 52.563
0 0.239061 0.0128125 52.1908
0 0.238432 0.0215625 77.3959
5.42101e-20 -0.238432 0.0215625 83.5642
2.06795e-25 0.239391 0.00309523 59.762
-2.12591e-20 -0.239391 0.00309522 62.3809
1.61559e-27 -0.238741 0.0179102 60.4209
-1.03398e-25 0.239387 0.00373495 58.8051
-2.09157e-20 -0.239387 0.00373495 78.3514
-5.16988e-25 -0.237 0.0339359 1093.12
0 0.239383 0.00436802 75.469
-2.47394e-20 -0.239383 0.00436802 94.2412
-1.2221e-20 0.238741 0.018125 55.0415
3.23117e-27 -0.238741 0.018125 61.0663
-3.23117e-27 -0.239382 0.00482427 96.5947
-7.98477e-21 -0.237544 0.03 664.694
0 0.237544 0.03 653.529
1.59524e-20 0.238124 0.025 154.469
2.25361e-20 -0.238124 0.025 159.066
0 0.239381 0.00499721 95.258
0 -0.239381 0.00499721 97.4867
0 0.23906 0.0134375 51.7605
0 -0.239061 0.0134375 48.3759
-2.71051e-20 -0.237272 0.0321875 1092.67
-2.71051e-20 0.237272 0.0321875 1094.3
-6.46235e-27 -0.23938 0.00562396 88.3279
-6.46235e-27 0.23938 0.00562396 99.5553
-2.71051e-20 0.237834 0.0278125 221.398
2.71051e-20 -0.237834 0.0278125 236.523
0 -0.23938 0.0062497 72.2711
0 0.23938 0.0062497 88.4724
0 0.238432 0.0221875 79.0485
0 -0.238432 0.0221875 84.8042
-4.03897e-28 0.239281 0.009375 41.6703
2.01948e-28 0.239206 0.01125 49.5307
2.71051e-20 0.23906 0.0140625 49.7183
0 -0.239061 0.0140625 44.5431
-1.22568e-20 -0.238741 0.01875 62.8602
-9.70787e-22 0.238741 0.01875 56.7877
2.44179e-20 -0.23938 0.00687491 58.3926
0 0.23938 0.00687491 70.2276
0 0.237 0.034375 1094.16
0 -0.237 0.034375 1093.17
0 -0.23938 0.00749998 48.2935
0 0.23938 0.00749998 53.3162
-1.04828e-20 -0.238124 0.025625 160.92
-2.45052e-22 0.238124 0.025625 155.248
3.23117e-27 -0.239453 0.00499651 95.0418
-2.40463e-20 -0.237544 0.030625 662.042
0 0.237544 0.030625 650.371
2.71051e-20 -0.23906 0.0146875 43.0424
-5.42101e-20 0.239061 0.0146875 46.2576
0 -0.23938 0.00812499 43.7938
0 0.23938 0.00812499 43.4089
-2.71051e-20 0.238432 0.0228125 80.8316
0 -0.238433 0.0228125 86.2535
9.86219e-21 -0.238741 0.019375 64.5723
1.84262e-20 0.238741 0.019375 58.5421
0 0.237834 0.0284375 217.877
-2.71051e-20 -0.237834 0.0284375 236.312
-2.71051e-20 -0.237272 0.0328125 1092.88
0 0.237272 0.0328125 1094.35
-3.23117e-27 -0.23938 0.00875 42.8682
0 0.23938 0.00875 38.5341
0 0.239061 0.0153125 43.1967
0 -0.239061 0.0153125 42.8522
0 -0.23938 0.009375 45.3006
1.24579e-20 0.23938 0.009375 37.9222
-1.80946e-25 -0.237 0.0349567 1093.15
1.89928e-20 -0.238124 0.02625 162.462
3.71985e-20 0.238124 0.02625 155.332
0 0.237 0.035 1093.92
-2.58494e-26 -0.237 0.035 1093.15
0 -0.239571 0.000281055 1012.82
0 0.239571 0.000281055 1012.82
-2.01948e-28 0.23938 0.00968999 38.8652
-2.06795e-25 -0.237 0.0350421 1093.14
-4.78555e-21 -0.238741 0.02 66.1719
3.0018e-20 0.238741 0.02 60.2307
-2.71051e-20 0.238432 0.0234375 82.0957
0 -0.238432 0.0234375 87.3171
0 -0.23938 0.01 48.9246
4.03897e-28 0.23938 0.01 39.7933
7.26657e-21 -0.237544 0.03125 658.565
0 0.237544 0.03125 647.166
0 0.239061 0.0159375 42.0429
0 -0.239061 0.0159375 43.5022
-5.42101e-20 -0.237834 0.0290625 235.045
0 0.237834 0.0290625 213.619
0 -0.23938 0.010625 52.098
-3.15309e-20 0.23938 0.010625 43.1963
-2.71051e-20 -0.237272 0.0334375 1093.04
2.71051e-20 0.237272 0.0334375 1094.34
-1.62338e-20 -0.238741 0.020625 67.606
1.93724e-21 0.238741 0.020625 61.8472
2.71051e-20 -0.23906 0.0165625 44.7266
-2.71051e-20 0.239061 0.0165625 41.8892
-2.01948e-28 0.23938 0.0110495 45.4621
1.12032e-20 -0.238124 0.026875 163.679
-7.5383e-21 0.238124 0.026875 154.845
-5.42101e-20 0.238432 0.0240625 83.347
0 -0.238432 0.0240625 88.5483
0 -0.23938 0.01125 53.8881
-4.03897e-28 0.23938 0.01125 46.5325
0 0.239645 0.000870548 250.81
0 -0.239645 0.000870587 225.351
-4.1359e-25 -0.237 0.035625 1093
0 0.237 0.035625 1093.56
0 -0.237544 0.031875 654.467
0 0.237544 0.031875 644.612
0 -0.23938 0.011875 54.3323
0 0.23938 0.011875 49.0618
2.71051e-20 0.23967 0.00147016 124.745
0 -0.23967 0.00147012 106.218
-2.71051e-20 0.23906 0.0171875 42.3831
0 -0.23906 0.0171875 46.1043
-5.42101e-20 -0.237834 0.0296875 231.986
0 0.237834 0.0296875 208.092
2.59529e-20 -0.238741 0.02125 68.8874
1.66276e-22 0.238741 0.02125 63.384
0 -0.237272 0.0340625 1093.16
0 0.237272 0.0340625 1094.26
-6.46235e-27 -0.23938 0.0125 53.1143
0 0.23938 0.0125 50.4485
-2.9442e-20 -0.238124 0.0275 164.296
2.41138e-20 0.238124 0.0275 153.594
2.71051e-20 0.238432 0.0246875 84.0342
0 -0.238432 0.0246875 89.3824
-2.71051e-20 0.23906 0.0178125 43.3994
0 -0.239061 0.0178125 47.6724
0 -0.239714 0.00211665 76.487
0 0.239714 0.00211665 88.0018
-2.58494e-26 -0.237159 0.035 960.784
0 0.239724 0.00274304 65.7821
0 -0.239724 0.00274304 61.2693
0 0.23938 0.013125 50.6238
0 -0.23938 0.013125 49.6302
-2.29449e-20 -0.238741 0.021875 70.0356
-2.58494e-26 0.238741 0.021875 64.8027
0 -0.239718 0.0034164 69.461
5.42101e-20 0.239718 0.0034164 57.9757