# p  POINT_DATA 5809
# x  y  z  p
-1.57772e-30 -0.237 8.31749e-08 -0.0276869
-1.09046e-25 0.237 8.64572e-08 -0.0271529
0 0.237 0.000550924 -0.0271493
0 -0.237 0.000550925 -0.0276846
0 0.237 0.0011232 -0.0271432
0 -0.237 0.0011232 -0.0276804
0 0.237 0.00172954 -0.0271389
0 -0.237 0.00172954 -0.0276765
0 -0.237 0.00236831 -0.0276761
0 0.237 0.00236831 -0.0271381
-8.27181e-25 -0.237 0.00302578 -0.0276858
0 0.237 0.00302578 -0.0271423
0 0.237 0.00361376 -0.0271488
0 -0.237 0.00366636 -0.0277022
0 0.237 0.00368597 -0.0271496
0 -0.237 0.00368597 -0.0277027
-1.03398e-25 0.237 0.00384697 -0.0271518
0 0.237 0.00433887 -0.0271584
1.03398e-25 -0.237 0.00433887 -0.0277183
-4.1359e-25 0.237 0.00498192 -0.0271686
0 -0.237 0.00498192 -0.0277358
0 0.237 0.0056169 -0.0271851
0 -0.237 0.0056169 -0.0277614
-2.06795e-25 0.237 0.0060091 -0.0272014
2.06795e-25 -0.237 0.00624674 -0.02779
0 0.237 0.00624674 -0.0272113
-2.06795e-25 -0.237 0.00687382 -0.0278138
0 0.237 0.00687382 -0.0272412
3.87741e-26 -0.237078 0.00368896 -0.0277032
-4.1359e-25 0.237 0.00749962 -0.0272667
0 -0.237 0.00749962 -0.0278302
0 -0.237 0.00812489 -0.0278391
-4.1359e-25 0.237 0.0081249 -0.0272855
-4.1359e-25 0.237 0.00874998 -0.0272977
0 -0.237 0.00874998 -0.0278384
0 0.237 0.009375 -0.0273
2.06795e-25 -0.237 0.009375 -0.0278251
0 -0.237 0.0096071 -0.0278144
-4.1359e-25 0.237 0.01 -0.027287
-4.1359e-25 -0.237 0.01 -0.0277964
4.1359e-25 -0.237 0.010625 -0.0277512
8.27181e-25 0.237 0.010625 -0.0272553
0 0.237223 0.00369457 -0.0271507
-2.71051e-20 0.237263 0.000279273 -0.0271529
2.71051e-20 -0.237263 0.000279185 -0.027687
0 -0.237 0.01125 -0.0276901
0 0.237 0.01125 -0.0272033
0 0.237267 0.000847159 -0.0271456
0 -0.237267 0.000847159 -0.0276823
0 -0.237269 0.00144351 -0.0276784
0 0.237269 0.00144351 -0.0271406
-2.71051e-20 -0.23727 0.00206936 -0.0276744
0 0.23727 0.00206936 -0.0271371
2.71051e-20 -0.23727 0.00271568 -0.0276778
0 0.23727 0.00271568 -0.0271391
-2.71051e-20 0.23727 0.00336939 -0.0271454
0 -0.23727 0.00336939 -0.0276937
0 -0.237 0.011875 -0.0276182
0 0.237 0.011875 -0.0271313
5.42101e-20 0.237271 0.00402047 -0.0271538
-2.71051e-20 -0.237271 0.00402047 -0.0277116
0 0.237 0.0121518 -0.0270931
-2.71051e-20 0.237271 0.00466435 -0.027163
5.42101e-20 -0.237271 0.00466435 -0.0277249
0 -0.237 0.0125 -0.0275445
-4.1359e-25 0.237 0.0125 -0.027045
2.71051e-20 0.237272 0.00530117 -0.0271742
-2.71051e-20 -0.237272 0.00530117 -0.0277465
2.58494e-26 -0.237306 0.00434507 -0.0277178
0 0.237272 0.0059324 -0.0271958
0 -0.237272 0.0059324 -0.0277761
2.71051e-20 0.237272 0.00656043 -0.0272267
-2.71051e-20 -0.237272 0.00656043 -0.0278038
-4.1359e-25 0.237 0.013125 -0.0269545
0 -0.237 0.013125 -0.0274786
2.71051e-20 0.237272 0.00718674 -0.0272557
-5.42101e-20 -0.237272 0.00718674 -0.0278238
0 -0.237 0.0134875 -0.0274483
-4.1359e-25 0.237 0.01375 -0.0268699
2.06795e-25 -0.237 0.01375 -0.0274263
0 0.237272 0.00781225 -0.0272777
0 -0.237272 0.00781225 -0.0278366
0 -0.237272 0.00843743 -0.0278416
0 0.237272 0.00843743 -0.0272934
0 -0.237371 0.00498524 -0.0277314
0 0.237 0.014375 -0.0267992
0 -0.237 0.014375 -0.0273884
-2.71051e-20 0.237272 0.00906248 -0.027302
2.71051e-20 -0.237272 0.00906248 -0.0278354
0 0.237 0.0146945 -0.0267719
-2.71051e-20 -0.237272 0.0096875 -0.0278148
-2.71051e-20 0.237272 0.0096875 -0.0272979
4.1359e-25 0.237 0.015 -0.0267458
2.06795e-25 -0.237 0.015 -0.0273635
0 -0.237427 0.0056183 -0.0277542
-2.71051e-20 -0.237272 0.0103125 -0.027778
-2.71051e-20 0.237272 0.0103125 -0.027276
0 0.237 0.015625 -0.0267086
0 -0.237 0.015625 -0.0273485
0 0.23752 8.32931e-08 -0.027153
0 -0.237521 8.4701e-08 -0.0276872
-1.03398e-25 0.237523 0.00017771 -0.027152
2.71051e-20 -0.237272 0.0109375 -0.0277244
-2.71051e-20 0.237272 0.0109375 -0.0272347
0 -0.237529 0.000533903 -0.0276854
1.30587e-20 0.237529 0.000562809 -0.0271497
0 -0.237529 0.000562807 -0.0276853
0 0.237533 0.00115011 -0.0271441
0 -0.237533 0.00115011 -0.0276818
0 0.237538 0.00176909 -0.0271407
0 -0.237538 0.00176909 -0.027679
0 -0.237469 0.00624719 -0.0277847
4.1359e-25 0.23754 0.0024097 -0.0271409
-1.63962e-20 -0.23754 0.0024097 -0.02768
2.71051e-20 -0.237272 0.0115625 -0.0276559
0 0.237272 0.0115625 -0.027172
0 0.237 0.01625 -0.0266858
0 -0.237 0.01625 -0.0273407
0 -0.237541 0.00305869 -0.0276904
2.06795e-25 0.237541 0.00305869 -0.0271454
-1.29247e-26 -0.23756 0.000563223 -0.0276854
0 -0.237542 0.00370687 -0.027706
0 0.237542 0.00370687 -0.0271521
-5.16988e-26 -0.237543 0.00434987 -0.0277174
0 0.237543 0.00434987 -0.0271593
0 -0.237272 0.0121875 -0.0275805
-8.13152e-20 0.237272 0.0121875 -0.0270905
-1.33882e-20 0.237543 0.00498678 -0.0271663
0 -0.237543 0.00498678 -0.0277294
0 -0.237499 0.0068739 -0.027815
4.1359e-25 0.237 0.016875 -0.0266744
0 -0.237 0.016875 -0.0273379
6.46235e-27 0.237526 0.00624724 -0.0272017
-9.19024e-21 0.237544 0.00561869 -0.027178
0 -0.237544 0.00561869 -0.0277522
-2.71051e-20 -0.237272 0.0128125 -0.0275084
0 0.237272 0.0128125 -0.0269994
2.00312e-20 -0.237544 0.00624726 -0.0277839
6.46235e-27 0.237544 0.00624726 -0.0272014
4.1359e-25 0.237 0.0172755 -0.0266727
-6.46235e-27 0.237544 0.00645559 -0.0272124
-1.29247e-26 -0.237524 0.00749961 -0.0278398
-2.58494e-26 -0.237544 0.00687391 -0.0278151
0 0.237544 0.00687391 -0.0272345
0 -0.237 0.0175 -0.0273384
-2.06795e-25 0.237 0.0175 -0.0266718
2.71051e-20 -0.237272 0.0134375 -0.0274488
0 0.237272 0.0134375 -0.0269095
-2.58494e-26 0.237544 0.00749961 -0.0272684
0 -0.237544 0.00749961 -0.0278401
1.03398e-25 0.237 0.0177366 -0.0266732
0 -0.237544 0.00796935 -0.0278528
0 -0.237497 0.00937499 -0.0278495
1.18271e-21 0.237544 0.00812487 -0.0272974
0 -0.237544 0.00812487 -0.027857
5.42101e-20 -0.237272 0.0140625 -0.0274038
0 0.237272 0.0140625 -0.0268302
4.1359e-25 -0.237 0.018125 -0.027341
0 0.237 0.018125 -0.0266756
1.93025e-20 0.237544 0.00874996 -0.027319
1.88007e-20 -0.237544 0.00874996 -0.0278622
0 -0.237544 0.00896088 -0.0278587
0 -0.237272 0.0146875 -0.0273729
-2.71051e-20 0.237272 0.0146875 -0.0267683
-2.12714e-20 0.237544 0.00937499 -0.027328
-2.58494e-26 -0.237544 0.00937499 -0.0278518
0 -0.237 0.01875 -0.0273448
-4.1359e-25 0.237 0.01875 -0.0266836
-2.14989e-20 0.237544 0.01 -0.0273178
0 -0.237544 0.01 -0.0278228
6.46235e-27 -0.23762 0.00812488 -0.0278676
0 -0.237272 0.0153125 -0.0273541
-2.71051e-20 0.237272 0.0153125 -0.0267234
0 -0.237544 0.010625 -0.0277748
4.63769e-21 0.237544 0.010625 -0.0272845
0 -0.237 0.019375 -0.0273491
4.1359e-25 0.237 0.019375 -0.0266941
-2.71051e-20 0.237799 0.000284465 -0.027153
2.71051e-20 -0.237799 0.000284553 -0.0276874
-2.71051e-20 -0.237272 0.0159375 -0.0273429
-2.71051e-20 0.237272 0.0159375 -0.0266939
0 -0.237544 0.01125 -0.0277107
4.93062e-21 0.237544 0.01125 -0.0272283
-2.71051e-20 0.237811 0.000863452 -0.0271471
-5.42101e-20 -0.237811 0.000863452 -0.0276844
0 -0.23782 0.00147122 -0.0276822
0 0.23782 0.00147122 -0.0271432
2.71051e-20 -0.237826 0.00210431 -0.027681
0 0.237826 0.00210431 -0.0271419
2.06795e-25 -0.237544 0.011875 -0.0276362
0 0.237544 0.011875 -0.0271525
0 -0.237 0.02 -0.0273536
0 0.237 0.02 -0.0267056
0 0.237544 0.0119635 -0.0271399
-5.42101e-20 0.237829 0.00274869 -0.0271454
0 -0.237829 0.00274869 -0.0276868
-5.42101e-20 -0.237272 0.0165625 -0.0273385
-2.71051e-20 0.237272 0.0165625 -0.0266778
0 -0.23783 0.00339421 -0.0277032
5.42101e-20 0.23783 0.00339421 -0.0271515
0 0.237831 0.00403604 -0.0271578
2.71051e-20 -0.237831 0.00403604 -0.0277154
0 -0.237544 0.0125 -0.0275596
2.06795e-25 0.237544 0.0125 -0.0270634
0 0.237832 0.00467279 -0.0271625
0 -0.237832 0.00467279 -0.0277174
0 -0.237485 0.01375 -0.0274356
-2.71051e-20 0.237833 0.00530504 -0.0271653
-2.71051e-20 -0.237833 0.00530504 -0.0277283
-6.46235e-27 0.237793 0.00687412 -0.0272454
-2.71051e-20 -0.237272 0.0171875 -0.0273372
0 0.237272 0.0171875 -0.0266709
0 -0.237 0.020625 -0.0273578
0 0.237 0.020625 -0.0267174
0 0.237544 0.013125 -0.0269703
0 -0.237544 0.013125 -0.027491
-5.42101e-20 0.237833 0.00593404 -0.0271764
0 -0.237833 0.00593404 -0.0277575
2.71051e-20 0.237834 0.00656112 -0.0272061
-5.42101e-20 -0.237834 0.00656112 -0.0277977
5.16988e-26 -0.237922 0.00116186 -0.0276842
2.71051e-20 -0.237272 0.0178125 -0.0273396
2.71051e-20 0.237272 0.0178125 -0.0266727
6.46235e-27 -0.23778 0.00874997 -0.0278948
-2.06795e-25 0.237544 0.01375 -0.0268832
0 -0.237544 0.01375 -0.0274367
2.71051e-20 0.237834 0.00718692 -0.0272491
0 -0.237834 0.00718692 -0.027835
4.1359e-25 -0.237 0.02125 -0.0273614
-4.1359e-25 0.237 0.02125 -0.0267288
0 0.237834 0.00781229 -0.0272912
0 -0.237834 0.00781229 -0.0278656
0 -0.237529 0.014375 -0.0273968
0 0.237544 0.014375 -0.0268105
-6.46235e-27 -0.237544 0.014375 -0.027397
0 0.237834 0.00843743 -0.0273278
2.71051e-20 -0.237834 0.00843743 -0.027885
0 -0.237513 0.015 -0.0273705
2.71051e-20 -0.237272 0.0184375 -0.0273425
5.42101e-20 0.237272 0.0184375 -0.0266784
5.16988e-26 0.237544 0.0147612 -0.0267768
0 -0.237834 0.00906248 -0.0278876
2.71051e-20 0.237834 0.00906248 -0.0273536
0 0.237 0.021875 -0.0267391
0 -0.237 0.021875 -0.0273643
0 -0.237497 0.015625 -0.0273544
2.06893e-21 0.237544 0.015 -0.026756
-1.29247e-26 -0.237544 0.015 -0.0273709
2.71051e-20 -0.237834 0.0096875 -0.0278703
2.71051e-20 0.237834 0.0096875 -0.0273597
2.71051e-20 -0.237272 0.0190625 -0.0273471
5.42101e-20 0.237272 0.0190625 -0.0266887
0 -0.237497 0.01625 -0.027346
-2.59562e-20 0.237544 0.015625 -0.0267177
-2.58494e-26 -0.237544 0.015625 -0.027355
5.42101e-20 -0.237834 0.0103125 -0.0278292
-2.71051e-20 0.237834 0.0103125 -0.0273387
0 -0.23806 2.90145e-09 -0.0276893
2.06795e-25 0.23806 -5.5536e-11 -0.0271555
0 0.237 0.0225 -0.0267477
0 -0.237 0.0225 -0.0273662
-2.06795e-25 0.238068 0.000191009 -0.0271543
0 0.237431 0.0175 -0.0266773
0 0.238083 0.000570196 -0.027152
0 -0.238083 0.000570195 -0.0276876
5.42101e-20 -0.237834 0.0109375 -0.0277685
2.71051e-20 0.237834 0.0109375 -0.0272897
-5.42101e-20 -0.237272 0.0196875 -0.0273511
5.42101e-20 0.237272 0.0196875 -0.0266994
0 0.237981 0.00749973 -0.0273104
-3.21423e-20 0.237544 0.01625 -0.026694
0 -0.237544 0.01625 -0.0273465
-4.1359e-25 0.238097 0.00116715 -0.027147
0 -0.238097 0.00116715 -0.0276852
0 -0.237516 0.016875 -0.027343
0 -0.237834 0.0115625 -0.0276947
-5.42101e-20 0.237834 0.0115625 -0.0272177
0 -0.238109 0.00179591 -0.0276845
2.06795e-25 0.238109 0.00179591 -0.0271461
0 0.237 0.023125 -0.0267543
0 -0.237 0.023125 -0.0273672
0 0.238117 0.00244027 -0.0271486
0 -0.238117 0.00244027 -0.0276872
5.42101e-20 -0.237272 0.0203125 -0.0273561
2.71051e-20 0.237272 0.0203125 -0.0267119
0 0.23812 0.00308541 -0.0271531
-5.16988e-26 -0.23812 0.00308541 -0.0276977
9.28334e-21 0.237544 0.016875 -0.0266818
0 -0.237544 0.016875 -0.0273433
-2.71051e-20 -0.237834 0.0121875 -0.0276141
-2.71051e-20 0.237834 0.0121875 -0.0271305
0 -0.238121 0.00372595 -0.02771
0 0.238121 0.00372595 -0.0271575
0 -0.238122 0.00436151 -0.0277157
2.58494e-26 0.238122 0.00436151 -0.02716
-6.46235e-27 -0.237544 0.0172731 -0.0273435
0 -0.238122 0.00499302 -0.0277258
0 0.238122 0.00499302 -0.0271618
-6.46235e-27 0.237881 0.011875 -0.0271845
0 -0.237834 0.0128125 -0.0275359
0 0.237834 0.0128125 -0.0270337
0 0.237 0.02375 -0.0267585
8.27181e-25 -0.237 0.02375 -0.027367
2.39433e-21 0.237544 0.0175 -0.0266788
-6.46235e-27 -0.237544 0.0175 -0.0273436
0 -0.238123 0.00562167 -0.0277572
-1.48616e-20 0.238123 0.00562167 -0.0271717
-2.71051e-20 -0.237272 0.0209375 -0.0273595
-5.42101e-20 0.237272 0.0209375 -0.026723
0 -0.238123 0.00624853 -0.0278095
0 0.238123 0.00624853 -0.0272037
-2.71051e-20 -0.237834 0.0134375 -0.0274716
5.42101e-20 0.237834 0.0134375 -0.0269389
0 -0.238124 0.0068744 -0.0278668
-1.29247e-26 0.238124 0.0068744 -0.0272601
-2.19107e-20 0.237544 0.018125 -0.0266824
1.06337e-20 -0.237544 0.018125 -0.0273462
0 -0.238124 0.00749977 -0.0279124
1.29247e-26 0.238124 0.00749977 -0.0273242
0 -0.237834 0.0140625 -0.027423
2.71051e-20 0.237834 0.0140625 -0.0268546
0 0.237272 0.0215625 -0.0267346
-2.71051e-20 -0.237272 0.0215625 -0.0273633
8.27181e-25 0.237 0.024375 -0.0267601
-8.27181e-25 -0.237 0.024375 -0.0273657
0 0.238253 -3.33791e-10 -0.0271577
3.23117e-27 0.238124 0.00805007 -0.0273717
0 -0.238124 0.00812492 -0.0279387
-1.61559e-27 0.238124 0.00812492 -0.0273782
-9.09899e-21 -0.237544 0.01875 -0.0273501
-1.30372e-20 0.237544 0.01875 -0.0266903
-1.29247e-26 -0.238124 0.00874998 -0.0279424
0 0.238124 0.00874998 -0.0274118
2.71051e-20 -0.237834 0.0146875 -0.0273886
2.71051e-20 0.237834 0.0146875 -0.0267897
0 0.237272 0.0221875 -0.0267435
-2.71051e-20 -0.237272 0.0221875 -0.0273652
0 -0.238124 0.00937499 -0.0279246
1.29906e-20 0.238124 0.00937499 -0.0274197
-8.27181e-25 0.237 0.025 -0.0267588
0 -0.237 0.025 -0.0273631
5.42101e-20 -0.237834 0.0153125 -0.0273682
5.42101e-20 0.237834 0.0153125 -0.0267429
3.56757e-20 -0.237544 0.019375 -0.0273546
2.80914e-20 0.237544 0.019375 -0.0267009
0 -0.238124 0.01 -0.0278871
5.2839e-21 0.238124 0.01 -0.0273996
0 -0.238124 0.010625 -0.0278326
-2.27215e-20 0.238124 0.010625 -0.0273545
2.71051e-20 -0.238362 0.000287929 -0.0276913
5.42101e-20 0.238362 0.000287929 -0.027158
-2.71051e-20 0.237272 0.0228125 -0.0267519
0 -0.237272 0.0228125 -0.0273672
2.71051e-20 -0.237834 0.0159375 -0.0273549
-2.71051e-20 0.237834 0.0159375 -0.0267108
0 -0.237 0.025625 -0.0273591
8.27181e-25 0.237 0.025625 -0.0267547
1.29247e-26 -0.23774 0.0175 -0.0273501
6.48282e-21 -0.237544 0.02 -0.0273592
1.75214e-20 0.237544 0.02 -0.0267129
-1.03398e-25 -0.238124 0.01125 -0.0277642
-3.20249e-20 0.238124 0.01125 -0.027289
-5.42101e-20 0.238389 0.000874094 -0.0271497
-2.71051e-20 -0.238389 0.000874094 -0.0276872
1.29247e-26 0.238124 0.0115928 -0.0272443
0 0.237834 0.0165625 -0.0266937
-2.71051e-20 -0.237834 0.0165625 -0.02735
2.42338e-27 0.238273 0.00812493 -0.0274098
-2.71051e-20 -0.238408 0.00148916 -0.0276872
2.71051e-20 0.238408 0.00148916 -0.0271482
0 -0.238124 0.011875 -0.0276857
1.29247e-26 0.238124 0.011875 -0.0272076
2.58494e-26 -0.238409 0.00244824 -0.0276873
-5.42101e-20 0.237272 0.0234375 -0.0267567
-5.42101e-20 -0.237272 0.0234375 -0.0273671
2.71051e-20 -0.238422 0.00212682 -0.0276879
-5.42101e-20 0.238422 0.00212682 -0.0271514
1.76907e-20 -0.237544 0.020625 -0.0273636
2.19445e-20 0.237544 0.020625 -0.0267253
2.71051e-20 -0.238429 0.00277088 -0.0276933
-2.71051e-20 0.238429 0.00277088 -0.0271559
-8.27181e-25 -0.237 0.02625 -0.0273535
-8.27181e-25 0.237 0.02625 -0.0267474
-1.03398e-25 -0.238124 0.0125 -0.0276035
-5.16988e-26 0.238124 0.0125 -0.0271139
-2.71051e-20 0.237834 0.0171875 -0.0266849
0 -0.237834 0.0171875 -0.0273476
-5.42101e-20 0.238431 0.0034119 -0.0271597
0 -0.238431 0.0034119 -0.0277074
2.71051e-20 0.238431 0.00404796 -0.0271609
0 -0.238431 0.00404796 -0.0277138
-2.71051e-20 0.238431 0.00467997 -0.0271584
2.71051e-20 -0.238431 0.00467997 -0.0277161
0 0.238124 0.013125 -0.0270159
-5.16988e-26 -0.238124 0.013125 -0.027529
2.71051e-20 0.237272 0.0240625 -0.0267602
2.71051e-20 -0.237272 0.0240625 -0.027367
-2.71051e-20 0.238432 0.00530874 -0.0271608
0 -0.238432 0.00530874 -0.0277416
-6.66894e-21 -0.237544 0.02125 -0.0273673
1.17276e-20 0.237544 0.02125 -0.0267371
2.71051e-20 -0.237834 0.0178125 -0.0273503
0 0.237834 0.0178125 -0.0266868
0 0.238432 0.00593583 -0.0271844
-2.71051e-20 -0.238432 0.00593583 -0.0278017
0 -0.237 0.026875 -0.0273463
8.27181e-25 0.237 0.026875 -0.026737
0 0.238124 0.01375 -0.0269234
2.58494e-26 -0.238124 0.01375 -0.0274704
5.42101e-20 0.238432 0.00656171 -0.0272484
0 -0.238432 0.00656171 -0.0278824
2.71051e-20 0.238432 0.00718722 -0.0273377
0 -0.238432 0.00718722 -0.0279539
2.71051e-20 -0.237834 0.0184375 -0.0273528
-2.71051e-20 0.237834 0.0184375 -0.0266917
1.34926e-20 0.237544 0.021875 -0.0267478
1.01331e-20 -0.237544 0.021875 -0.0273703
0 0.237272 0.0246875 -0.0267599
-2.71051e-20 -0.237272 0.0246875 -0.0273645
-2.58494e-26 0.238124 0.014375 -0.0268462
2.58494e-26 -0.238124 0.014375 -0.0274269
2.71051e-20 0.238432 0.00781239 -0.0274209
-2.71051e-20 -0.238432 0.00781239 -0.0279975
-5.42101e-20 -0.238432 0.00843746 -0.0280092
2.71051e-20 0.238432 0.00843746 -0.0274756
1.29247e-26 0.238124 0.0148898 -0.0267994
0 -0.237 0.0275 -0.0273371
8.27181e-25 0.237 0.0275 -0.0267235
-2.58494e-26 -0.238124 0.015 -0.027398
-6.46235e-27 0.238124 0.015 -0.0267894
5.42101e-20 0.237834 0.0190625 -0.0267027
-2.71051e-20 -0.237834 0.0190625 -0.0273583
0 0.238432 0.00906249 -0.027493
2.71051e-20 -0.238432 0.00906249 -0.0279902
-8.20356e-22 0.237544 0.0225 -0.0267568
-1.36934e-20 -0.237544 0.0225 -0.0273723
-5.42101e-20 0.237272 0.0253125 -0.0267577
-2.71051e-20 -0.237272 0.0253125 -0.0273617
2.71051e-20 -0.238432 0.0096875 -0.0279519
8.13152e-20 0.238432 0.0096875 -0.027475
0 -0.238631 5.27908e-09 -0.027694
0 0.238631 3.43194e-09 -0.0271621
-1.00723e-20 0.238124 0.015625 -0.026749
-2.58494e-26 -0.238124 0.015625 -0.0273796
0 0.237834 0.0196875 -0.0267131
-5.42101e-20 -0.237834 0.0196875 -0.027362
2.71051e-20 -0.238432 0.0103125 -0.0278984
0 0.238432 0.0103125 -0.027427
8.27181e-25 -0.237 0.028125 -0.0273258
4.1359e-25 0.237 0.028125 -0.0267068
1.89503e-20 0.237544 0.023125 -0.0267638
-7.67996e-21 -0.237544 0.023125 -0.0273733
0 0.238672 0.000575691 -0.0271573
1.10619e-20 -0.238672 0.000575689 -0.0276915
3.95688e-20 0.238124 0.01625 -0.0267236
2.58494e-26 -0.238124 0.01625 -0.0273689
-1.29247e-26 -0.238659 0.003098 -0.0276943
-2.71051e-20 -0.238432 0.0109375 -0.0278357
0 0.238432 0.0109375 -0.0273642
0 0.237272 0.0259375 -0.0267516
2.71051e-20 -0.237272 0.0259375 -0.0273565
5.42101e-20 0.237834 0.0203125 -0.0267274
2.71051e-20 -0.237834 0.0203125 -0.0273678
-8.27181e-25 0.238701 0.00117836 -0.027153
-1.82985e-20 -0.238701 0.00117836 -0.0276891
2.71051e-20 -0.238432 0.0115625 -0.0277592
0 0.238433 0.0115625 -0.0272859
1.82992e-20 0.238124 0.016875 -0.0267096
0 -0.238124 0.016875 -0.0273638
1.7585e-20 0.237544 0.02375 -0.0267684
6.84864e-21 -0.237544 0.02375 -0.0273733
0 0.238723 0.00181179 -0.0271558
3.85178e-20 -0.238723 0.00181179 -0.027688
0 -0.237 0.02875 -0.0273123
-4.1359e-25 0.237 0.02875 -0.0266869
2.71051e-20 -0.238432 0.0121875 -0.0276758
-5.42101e-20 0.238433 0.0121875 -0.0271973
0 0.238737 0.00245721 -0.02716
9.87602e-21 -0.238737 0.00245721 -0.0276873
2.71051e-20 0.237834 0.0209375 -0.026739
5.42101e-20 -0.237834 0.0209375 -0.027371
-2.71051e-20 0.237272 0.0265625 -0.0267431
-5.42101e-20 -0.237272 0.0265625 -0.0273505
0 0.238742 0.00309995 -0.027162
3.97351e-20 -0.238742 0.00309995 -0.0276938
0 -0.238742 0.00338081 -0.0276985
3.41861e-21 0.238124 0.0175 -0.0267051
0 -0.238124 0.0175 -0.0273629
-2.58494e-26 0.238742 0.00373666 -0.0271617
0 -0.238742 0.00373666 -0.0277045
0 -0.238432 0.0128125 -0.027589
-2.71051e-20 0.238433 0.0128125 -0.027095
0 -0.238741 0.0043684 -0.0277168
0 0.238741 0.0043684 -0.0271606
-5.59836e-21 0.237544 0.024375 -0.0267705
4.69839e-22 -0.237544 0.024375 -0.0273722
0 -0.238741 0.00499695 -0.0277513
6.46235e-27 0.238741 0.00499695 -0.027166
6.46235e-27 -0.238124 0.0179648 -0.0273643
2.58494e-26 -0.238741 0.00562368 -0.0278197
0 0.238741 0.00562368 -0.0271965
0 0.237834 0.0215625 -0.0267521
0 -0.237834 0.0215625 -0.0273756
2.71051e-20 -0.238432 0.0134375 -0.0275203
0 0.238433 0.0134375 -0.0269969
2.62596e-21 0.238124 0.018125 -0.0267077
0 -0.238124 0.018125 -0.0273648
0 -0.237 0.029375 -0.0272964
-2.06795e-25 0.237 0.029375 -0.0266642
0 -0.238741 0.00624945 -0.0279058
6.46235e-27 0.238741 0.00624945 -0.0272676
2.71051e-20 -0.237272 0.0271875 -0.027342
0 0.237272 0.0271875 -0.0267309
2.58494e-26 -0.238741 0.00687478 -0.0279815
1.29247e-26 0.238741 0.00687478 -0.0273636
-2.71051e-20 -0.238433 0.0140625 -0.0274678
-2.71051e-20 0.238433 0.0140625 -0.0269044
-1.25851e-20 0.237544 0.025 -0.0267697
-2.71824e-20 -0.237544 0.025 -0.0273698
0 -0.238741 0.00749992 -0.0280266
6.46235e-27 0.238741 0.00749992 -0.0274512
1.35859e-21 -0.238124 0.01875 -0.0273684
7.84839e-22 0.238124 0.01875 -0.026715
8.07794e-28 0.238701 0.00874999 -0.0275231
-2.71051e-20 0.237834 0.0221875 -0.0267613
0 -0.237834 0.0221875 -0.0273772
0 -0.238741 0.00812497 -0.0280404
3.23117e-27 0.238741 0.00812497 -0.0275093
2.71051e-20 0.238432 0.0146875 -0.0268371
-2.71051e-20 -0.238432 0.0146875 -0.0274292
0 -0.237 0.03 -0.0272779
-2.06795e-25 0.237 0.03 -0.0266387
0 0.237272 0.0278125 -0.026716
-2.71051e-20 -0.237272 0.0278125 -0.0273321
-1.29247e-26 -0.238741 0.00874999 -0.0280264
-8.07794e-28 0.238741 0.00874999 -0.0275307
-8.07794e-28 0.238741 0.00894905 -0.0275273
-1.83295e-20 -0.238124 0.019375 -0.0273727
3.09077e-20 0.238124 0.019375 -0.0267251
0 0.237 0.0301963 -0.0266299
3.19958e-20 0.237544 0.025625 -0.0267661
1.36733e-20 -0.237544 0.025625 -0.0273661
2.71051e-20 -0.238432 0.0153125 -0.027407
0 0.238433 0.0153125 -0.0267888
0 -0.238741 0.009375 -0.0279931
0 0.238741 0.009375 -0.0275198
0 0.237834 0.0228125 -0.0267709
0 -0.237834 0.0228125 -0.0273797
1.29247e-26 -0.238918 0.00373619 -0.027699
1.29247e-26 -0.238741 0.01 -0.0279467
2.73027e-20 0.238741 0.01 -0.0274809
0 0.238956 0.000288814 -0.0271661
2.71051e-20 -0.238956 0.000288814 -0.0276969
-1.91757e-20 -0.238124 0.02 -0.0273771
1.43873e-20 0.238124 0.02 -0.0267368
-2.71051e-20 -0.238432 0.0159375 -0.0273891
-2.71051e-20 0.238433 0.0159375 -0.0267542
-2.71051e-20 0.237272 0.0284375 -0.0266975
5.42101e-20 -0.237272 0.0284375 -0.0273195
8.27181e-25 -0.237 0.030625 -0.0272569
0 0.237 0.030625 -0.0266108
0 -0.238741 0.010625 -0.0278897
3.2973e-20 0.238741 0.010625 -0.0274231
0 0.237834 0.0234375 -0.0267762
2.71051e-20 -0.237834 0.0234375 -0.0273795
-7.16545e-21 -0.237544 0.02625 -0.0273608
-8.29662e-21 0.237544 0.02625 -0.0267593
-5.42101e-20 -0.239 0.000876671 -0.0276905
0 0.239 0.000876671 -0.0271552
5.16988e-26 -0.238741 0.01125 -0.0278218
0 0.238741 0.01125 -0.0273521
-2.71051e-20 0.238433 0.0165625 -0.0267364
0 -0.238433 0.0165625 -0.0273821
6.46235e-27 0.238741 0.0113017 -0.0273453
-5.27028e-21 -0.238124 0.020625 -0.0273812
4.86643e-21 0.238124 0.020625 -0.0267494
2.71051e-20 -0.239031 0.00149329 -0.0276916
0 0.239031 0.00149329 -0.027159
0 -0.238741 0.011875 -0.0277435
-6.46235e-27 0.238741 0.011875 -0.0272695
0 0.237272 0.0290625 -0.0266763
-2.71051e-20 -0.237272 0.0290625 -0.027305
0 0.237834 0.0240625 -0.0267809
5.42101e-20 -0.237834 0.0240625 -0.0273798
0 0.238432 0.0171875 -0.026724
0 -0.238432 0.0171875 -0.0273761
-4.1359e-25 -0.237 0.03125 -0.0272333
4.1359e-25 0.237 0.03125 -0.026581
6.46855e-21 -0.237544 0.026875 -0.027354
1.73017e-20 0.237544 0.026875 -0.0267496
-2.71051e-20 0.239054 0.0021315 -0.0271646
5.42101e-20 -0.239054 0.0021315 -0.0276854
0 -0.238741 0.0125 -0.0276568
2.58494e-26 0.238741 0.0125 -0.0271747
-1.97166e-20 -0.238124 0.02125 -0.0273848
2.83612e-20 0.238124 0.02125 -0.0267614
-2.71051e-20 -0.239065 0.00277515 -0.0276826
2.71051e-20 0.239065 0.00277515 -0.027168
0 0.238612 0.015 -0.0268224
0 0.239066 0.00341637 -0.0271645
0 -0.239066 0.00341637 -0.0276915
2.71051e-20 -0.238432 0.0178125 -0.0273783
-5.42101e-20 0.238433 0.0178125 -0.0267256
-2.71051e-20 0.239063 0.00405176 -0.0271617
2.71051e-20 -0.239063 0.00405176 -0.027705
0 0.238741 0.013125 -0.0270739
0 -0.238741 0.013125 -0.0275744
0 0.239062 0.00468248 -0.0271613
0 -0.239062 0.00468248 -0.0277322
0 0.237834 0.0246875 -0.0267813
5.42101e-20 -0.237834 0.0246875 -0.0273776
0 0.239061 0.00531037 -0.0271836
2.71051e-20 -0.239061 0.00531037 -0.0278158
2.71051e-20 0.237272 0.0296875 -0.0266521
-5.42101e-20 -0.237272 0.0296875 -0.0272878
-3.00147e-20 0.238124 0.021875 -0.0267725
2.09472e-20 -0.238124 0.021875 -0.0273877
-9.72206e-21 -0.237544 0.0275 -0.0273453
-6.70968e-21 0.237544 0.0275 -0.0267366
0 -0.237 0.031875 -0.0272077
-4.1359e-25 0.237 0.031875 -0.0265497
2.71051e-20 0.23906 0.0059367 -0.0272575
0 -0.23906 0.0059367 -0.0279208
0 0.238741 0.01375 -0.0269761
-2.58494e-26 -0.238741 0.01375 -0.0275105
2.71051e-20 -0.238432 0.0184375 -0.0273785
0 0.238433 0.0184375 -0.0267275
2.71051e-20 0.23906 0.00656221 -0.0273811
0 -0.23906 0.00656221 -0.0280196
5.42101e-20 -0.23906 0.0071874 -0.0280713
5.42101e-20 0.23906 0.0071874 -0.0274885
1.29247e-26 0.238741 0.014375 -0.0268919
0 -0.238741 0.014375 -0.0274635
2.71051e-20 0.237834 0.0253125 -0.0267803
-2.71051e-20 -0.237834 0.0253125 -0.0273755
-1.03398e-25 0.238124 0.0225 -0.0267818
1.67563e-20 -0.238124 0.0225 -0.0273895
2.71051e-20 0.23906 0.00781246 -0.0275594
0 -0.23906 0.00781246 -0.0280846
-2.71051e-20 0.238432 0.0190625 -0.0267387
2.71051e-20 -0.238432 0.0190625 -0.0273844
0 0.237272 0.0303125 -0.0266253
-2.71051e-20 -0.237272 0.0303125 -0.027268
2.42232e-20 -0.237544 0.028125 -0.0273347
2.67252e-21 0.237544 0.028125 -0.0267206
2.71051e-20 0.23906 0.00843749 -0.0275829
-5.42101e-20 -0.23906 0.00843749 -0.028071
0 -0.238741 0.015 -0.027434
1.61559e-27 0.238741 0.015 -0.0268312
-4.1359e-25 0.237 0.0325 -0.0265176
-4.1359e-25 -0.237 0.0325 -0.0271804
0 0.238741 0.0151474 -0.0268211
1.65436e-24 0.239232 1.14178e-08 -0.0271689
0 -0.239232 7.9948e-09 -0.0276985
2.71051e-20 0.23906 0.0090625 -0.0275726
2.71051e-20 -0.23906 0.0090625 -0.0280357
0 0.238432 0.0196875 -0.0267464
2.71051e-20 -0.238432 0.0196875 -0.0273862
5.42101e-20 -0.237834 0.0259375 -0.0273708
2.71051e-20 0.237834 0.0259375 -0.0267751
1.02289e-20 0.238124 0.023125 -0.0267892
-1.3876e-20 -0.238124 0.023125 -0.0273903
-6.46235e-27 -0.239205 0.00436813 -0.027718
1.29247e-26 -0.238741 0.015625 -0.0274148
-6.46235e-27 0.238741 0.015625 -0.0267885
8.13152e-20 0.239061 0.0096875 -0.0275396
-5.42101e-20 -0.239061 0.0096875 -0.027995
2.06795e-25 -0.237 0.0328488 -0.0271647
-1.10631e-20 -0.237544 0.02875 -0.0273217
0 0.237544 0.02875 -0.0267014
0 0.237272 0.0309375 -0.0265964
0 -0.237272 0.0309375 -0.0272457
2.71051e-20 -0.23906 0.0103125 -0.027942
5.42101e-20 0.239061 0.0103125 -0.027483
1.86662e-20 0.239291 0.000573876 -0.0271648
2.59387e-20 -0.239291 0.00057387 -0.027696
-1.29247e-26 -0.238741 0.01625 -0.0274029
-4.50141e-21 0.238741 0.01625 -0.0267633
-2.71051e-20 0.238432 0.0203125 -0.0267611
2.71051e-20 -0.238432 0.0203125 -0.0273925
-4.1359e-25 0.237 0.033125 -0.0264856
0 -0.237 0.033125 -0.0271523
-2.11032e-20 0.238124 0.02375 -0.0267941
3.53232e-20 -0.238124 0.02375 -0.0273901
-2.71051e-20 0.23906 0.0109375 -0.0274189
-2.71051e-20 -0.239061 0.0109375 -0.027883
-2.71051e-20 0.237834 0.0265625 -0.0267679
-5.42101e-20 -0.237834 0.0265625 -0.0273657
1.29247e-26 -0.238741 0.016875 -0.0273963
2.32803e-22 0.238741 0.016875 -0.0267487
-2.58494e-26 0.23745 0.03 -0.0266515
-3.55291e-20 0.239335 0.00117391 -0.0271653
-1.69183e-20 -0.239335 0.00117392 -0.0276945
0 0.239061 0.0115625 -0.02734
0 -0.239061 0.0115625 -0.0278099
0 0.237544 0.029375 -0.0266792
-1.9387e-26 0.237544 0.0293311 -0.0266808
2.71051e-20 0.238432 0.0209375 -0.0267705
-2.71051e-20 -0.238432 0.0209375 -0.027394
2.66311e-21 -0.237544 0.029375 -0.0273066
0 0.237272 0.0315625 -0.0265656
0 -0.237272 0.0315625 -0.0272209
5.50034e-21 0.238124 0.024375 -0.0267968
-3.27998e-21 -0.238124 0.024375 -0.0273889
-2.71051e-20 0.23906 0.0121875 -0.0272555
5.42101e-20 -0.23906 0.0121875 -0.0277295
8.27181e-25 0.239367 0.00180576 -0.0271675
1.08783e-20 -0.239367 0.00180576 -0.0276851
-6.46235e-27 -0.238741 0.0175 -0.0273948
-6.84691e-21 0.238741 0.0175 -0.0267443
0 0.237834 0.0271875 -0.0267568
2.71051e-20 -0.237834 0.0271875 -0.027358
4.1359e-25 0.237 0.03375 -0.0264556
0 -0.237 0.03375 -0.0271242
0 0.239388 0.00244888 -0.0271691
-8.64383e-21 -0.239388 0.00244888 -0.0276727
2.71051e-20 -0.23906 0.0128125 -0.0276335
0 0.239061 0.0128125 -0.0271517
0 0.238432 0.0215625 -0.0267847
5.42101e-20 -0.238432 0.0215625 -0.0273991
2.06795e-25 0.239391 0.00309523 -0.0271668
-2.12591e-20 -0.239391 0.00309522 -0.027671
1.61559e-27 -0.238741 0.0179102 -0.0273958
-1.03398e-25 0.239387 0.00373495 -0.0271607
-2.09157e-20 -0.239387 0.00373495 -0.0276844
-5.16988e-25 -0.237 0.0339359 -0.0271162
0 0.239383 0.00436802 -0.0271589
-2.47394e-20 -0.239383 0.00436802 -0.0277185
-1.2221e-20 0.238741 0.018125 -0.0267468
3.23117e-27 -0.238741 0.018125 -0.0273963
-3.23117e-27 -0.239382 0.00482427 -0.0277747
-7.98477e-21 -0.237544 0.03 -0.0272888
0 0.237544 0.03 -0.0266542
1.59524e-20 0.238124 0.025 -0.0267966
2.25361e-20 -0.238124 0.025 -0.0273864
0 0.239381 0.00499721 -0.0271821
0 -0.239381 0.00499721 -0.0277961
0 0.23906 0.0134375 -0.0270524
0 -0.239061 0.0134375 -0.0275553
-2.71051e-20 -0.237272 0.0321875 -0.0271945
-2.71051e-20 0.237272 0.0321875 -0.0265339
-6.46235e-27 -0.23938 0.00562396 -0.0279157
-6.46235e-27 0.23938 0.00562396 -0.0272571
-2.71051e-20 0.237834 0.0278125 -0.0267432
2.71051e-20 -0.237834 0.0278125 -0.0273493
0 -0.23938 0.0062497 -0.0280228
0 0.23938 0.0062497 -0.027375
0 0.238432 0.0221875 -0.0267924
0 -0.238432 0.0221875 -0.0273993
-4.03897e-28 0.239281 0.009375 -0.0275812
2.01948e-28 0.239206 0.01125 -0.0273961
2.71051e-20 0.23906 0.0140625 -0.0269512
0 -0.239061 0.0140625 -0.0274989
-1.22568e-20 -0.238741 0.01875 -0.0273998
-9.70787e-22 0.238741 0.01875 -0.0267541
2.44179e-20 -0.23938 0.00687491 -0.0280877
0 0.23938 0.00687491 -0.0274968
0 0.237 0.034375 -0.02643
0 -0.237 0.034375 -0.0270972
0 -0.23938 0.00749998 -0.0281126
0 0.23938 0.00749998 -0.0275808
-1.04828e-20 -0.238124 0.025625 -0.0273829
-2.45052e-22 0.238124 0.025625 -0.0267937
3.23117e-27 -0.239453 0.00499651 -0.0278006
-2.40463e-20 -0.237544 0.030625 -0.0272685
0 0.237544 0.030625 -0.0266267
2.71051e-20 -0.23906 0.0146875 -0.0274585
-5.42101e-20 0.239061 0.0146875 -0.0268755
0 -0.23938 0.00812499 -0.0281063
0 0.23938 0.00812499 -0.0276158
-2.71051e-20 0.238432 0.0228125 -0.0268029
0 -0.238433 0.0228125 -0.027402
9.86219e-21 -0.238741 0.019375 -0.0274037
1.84262e-20 0.238741 0.019375 -0.0267637
0 0.237834 0.0284375 -0.026726
-2.71051e-20 -0.237834 0.0284375 -0.027338
-2.71051e-20 -0.237272 0.0328125 -0.0271664
0 0.237272 0.0328125 -0.0265013
-3.23117e-27 -0.23938 0.00875 -0.0280801
0 0.23938 0.00875 -0.0276174
0 0.239061 0.0153125 -0.0268239
0 -0.239061 0.0153125 -0.0274419
0 -0.23938 0.009375 -0.0280392
1.24579e-20 0.23938 0.009375 -0.0275924
-1.80946e-25 -0.237 0.0349567 -0.027075
1.89928e-20 -0.238124 0.02625 -0.0273781
3.71985e-20 0.238124 0.02625 -0.0267879