# pMean  POINT_DATA 25961
# x  y  z  pMean
0.01 0 8.31199e-08 -0.0247254
-0.01 0 8.31199e-08 0.152482
-0.01 0 0.00067832 0.152482
0.01 0 0.00067832 -0.0247254
0.0100157 7.75482e-26 0.000677127 -0.0247254
-0.01 0 0.00137372 0.152482
0.01 0 0.00137372 -0.0247254
0.0100746 0 0.00135804 -0.0247254
-0.01 0 0.002087 0.152482
0.01 0 0.002087 -0.0247254
-0.0102613 0 0.000329046 0.152482
0.0102613 2.71051e-20 0.000329046 -0.0247254
0.0102561 2.71051e-20 0.000988366 -0.0247255
-0.0102561 -2.71051e-20 0.000988366 0.152482
0.0102356 2.71051e-20 0.00161953 -0.0247254
-0.0102356 0 0.00161953 0.152482
0.0105293 -4.1359e-25 8.89198e-08 -0.0247254
-0.0105293 0 8.68458e-08 0.152482
0.0105282 -2.06795e-25 0.000279278 -0.0247254
-0.0105268 -2.08425e-20 0.000638363 0.152482
0.0105268 -1.52449e-21 0.000638362 -0.0247254
-0.0105159 1.65436e-24 0.0012653 0.152482
0.0105159 -2.13925e-20 0.0012653 -0.0247254
-0.0105028 -1.06839e-20 0.0017228 0.152482
0.0105028 -1.34979e-20 0.0017228 -0.0247254
-0.010496 2.71051e-20 0.00202291 0.152482
0.010496 -2.71051e-20 0.00202291 -0.0247255
0.0104977 0 0.00235078 -0.0247254
-0.0104977 0 0.00235077 0.152482
-0.0108033 2.71051e-20 0.000314595 0.152482
0.0108033 2.71051e-20 0.000314594 -0.0247254
-0.0108031 2.71051e-20 0.00093799 0.152482
0.0108031 0 0.00093799 -0.0247255
-0.01079 -2.71051e-20 0.00152732 0.152482
0.01079 -2.71051e-20 0.00152732 -0.0247255
-0.0110754 0 7.36178e-09 0.152481
0.0110754 0 6.46274e-09 -0.0247254
0.01108 0 0.000208299 -0.0247254
-0.0110889 0 0.000613667 0.152482
0.0110889 -2.63209e-21 0.000613666 -0.0247254
-0.0108991 2.71051e-20 0.00228385 0.152482
0.0108991 5.42101e-20 0.00228385 -0.0247254
0.010988 -2.7115e-20 0.00190078 -0.0247254
-0.010988 0 0.00190081 0.152482
-0.0110831 -1.65436e-24 0.00123268 0.152482
0.0110831 1.26559e-20 0.00123266 -0.0247254
0.0109863 0 0.00260985 -0.0247254
-0.0109863 6.61744e-24 0.00260985 0.152481
0.0113733 0 0.000305239 -0.0247254
-0.0113733 0 0.000305239 0.152481
-0.0113913 0 0.000918847 0.152482
0.0113913 0 0.000918847 -0.0247255
0.0112123 1.12761e-20 0.00231934 -0.0247254
-0.0112123 2.62713e-21 0.00231934 0.152481
-0.0113682 -2.71051e-20 0.00155884 0.152482
0.0113682 -2.71051e-20 0.00155884 -0.0247254
0.0114039 -5.42101e-20 0.00209577 -0.0247254
-0.0114039 2.71051e-20 0.00209577 0.152482
0.011595 2.58494e-26 2.35794e-09 -0.0247253
0.0113392 -2.71051e-20 0.00255892 -0.0247254
-0.0113392 0 0.00255892 0.152481
-0.0116471 0 3.40354e-09 0.152481
0.0116471 0 2.32037e-09 -0.0247253
-0.0116865 0 0.000598049 0.152482
0.0116865 2.92168e-20 0.000598049 -0.0247254
-0.0117045 0 0.00122297 0.152482
0.0117045 -1.815e-20 0.00122297 -0.0247254
0.0114599 0 0.00285977 -0.0247254
-0.0114598 0 0.00285975 0.15248
0.0117133 2.22677e-20 0.00184588 -0.0247254
-0.0117133 3.30872e-24 0.00184588 0.152482
0.0116596 1.99913e-20 0.00239949 -0.0247254
-0.0116596 0 0.00239948 0.152481
0.0119676 2.71051e-20 0.000293859 -0.0247253
-0.0119676 2.71051e-20 0.000293859 0.152482
-0.0120019 -1.03398e-25 9.94023e-10 0.152483
-0.0120131 2.71051e-20 0.000895955 0.152483
0.0120131 0 0.000895956 -0.0247254
0.0120433 5.42101e-20 0.00152444 -0.0247254
-0.0120433 2.71051e-20 0.00152444 0.152482
-0.0118604 -5.42101e-20 0.00273055 0.15248
0.0118604 -2.71051e-20 0.00273056 -0.0247254
0.0120387 -2.71051e-20 0.00217273 -0.0247254
-0.0120387 0 0.00217273 0.152481
0.0122418 -4.1359e-25 3.11206e-09 -0.0247252
-0.0122418 -1.03398e-25 1.04582e-09 0.152483
-0.0122568 2.06795e-25 0.000136244 0.152483
0.0119119 0 0.00310459 -0.0247253
-0.0119119 6.61744e-24 0.00310459 0.152479
0.0123043 -2.01443e-20 0.000568947 -0.0247253
-0.0123043 -1.23721e-20 0.000568945 0.152483
0.01236 5.58512e-21 0.00118123 -0.0247254
-0.01236 -8.27181e-25 0.00118125 0.152483
-0.0124541 -1.03398e-25 1.48697e-10 0.152485
0.0123814 1.50017e-20 0.00184432 -0.0247254
-0.0123814 0 0.00184434 0.152481
-0.0125711 2.71051e-20 0.000269458 0.152486
0.0125711 -2.71051e-20 0.000269458 -0.0247252
0.0123374 -1.70498e-20 0.00258488 -0.0247253
-0.0123374 -5.93254e-21 0.00258488 0.152479
0.0122817 0 0.00299995 -0.0247253
-0.0122817 -2.71051e-20 0.00299995 0.152479
0.0126475 -2.71051e-20 0.000839063 -0.0247254
-0.0126475 0 0.000839063 0.152484
0.0123472 -3.30872e-24 0.00333734 -0.0247253
-0.0123472 0 0.00333734 0.152477
-0.0127108 2.71051e-20 0.0014705 0.152482
0.0127108 2.71051e-20 0.0014705 -0.0247254
0.0128491 1.65436e-24 5.01678e-09 -0.0247251
-0.0128491 0 1.4199e-09 0.152489
0.0127172 2.71051e-20 0.00217074 -0.0247253
-0.0127172 0 0.00217074 0.15248
0.0129129 1.7772e-20 0.000505056 -0.0247252
-0.0129129 0 0.000505053 0.152488
0.0125922 1.71011e-20 0.00303079 -0.0247253
-0.0125922 -2.95667e-20 0.00303079 0.152477
0.0130203 -4.5313e-21 0.00108239 -0.0247253
-0.0130203 0 0.0010824 0.152485
0.012793 5.42101e-20 0.00278388 -0.0247253
-0.012793 0 0.00278388 0.152478
0.0127108 -5.42101e-20 0.00327268 -0.0247253
-0.0127108 2.71051e-20 0.00327268 0.152476
0.0131383 2.71051e-20 0.000218112 -0.0247251
-0.0131383 2.71051e-20 0.000218112 0.152492
0.013073 -1.26559e-22 0.0017651 -0.0247253
-0.013073 0 0.00176511 0.152482
0.0127674 0 0.00356123 -0.0247251
-0.0127674 -1.65436e-24 0.00356123 0.152474
-0.0132689 0 0.000719701 0.152489
0.0132689 0 0.0007197 -0.0247254
0.0130872 1.59067e-21 0.00246807 -0.0247252
-0.0130872 0 0.00246808 0.152479
0.0133746 2.37649e-20 0.000406313 -0.0247253
-0.0133746 1.82459e-20 0.000406306 0.152489
0.0134599 0 1.02233e-08 -0.0247253
-0.0134599 8.27181e-25 3.72109e-09 0.152489
0.0130916 1.83692e-20 0.00314268 -0.0247251
-0.0130916 2.06795e-25 0.00314268 0.152475
-0.0134186 -2.71051e-20 0.00131377 0.152486
0.0134186 2.71051e-20 0.00131377 -0.0247253
0.013075 0 0.00349045 -0.024725
-0.013075 0 0.00349045 0.152473
-0.013162 4.1359e-25 0.00325434 0.152474
-0.0134232 0 0.00207248 0.152481
0.0134232 5.42101e-20 0.00207248 -0.0247253
0.0132078 0 0.00332703 -0.0247251
-0.0132595 0 0.00312606 0.152475
-0.0136984 0 0.000300358 0.152486
0.0136984 -2.71051e-20 0.000300357 -0.0247256
0.013418 -5.42101e-20 0.00277569 -0.0247251
-0.013418 0 0.00277569 0.152478
0.0131762 -2.06795e-25 0.0037788 -0.024725
-0.0131762 0 0.0037788 0.152471
-0.0131848 5.16988e-26 0.00376504 0.152471
0.0133596 0 0.00311615 -0.0247251
-0.0131928 -1.03398e-25 0.00378881 0.152471
0.0132283 0 0.00369585 -0.024725
-0.013523 -2.06795e-25 0.00243331 0.152479
0.0137612 -1.41729e-20 0.000786143 -0.0247254
-0.0137612 2.14405e-20 0.000786151 0.152489
-0.0133341 0 0.00352736 0.152471
0.0133341 -3.4254e-20 0.00352736 -0.024725
0.0132767 -2.06795e-25 0.00383951 -0.024725
0.0137678 -5.15334e-22 0.00165537 -0.0247252
-0.0137678 0 0.00165538 0.152485
-0.013482 2.71051e-20 0.00331696 0.152473
0.013482 0 0.00331696 -0.024725
-0.0137612 0 0.00191385 0.152483
0.0137268 -2.58494e-26 0.00241705 -0.0247252
0.013749 0 0.00239287 -0.0247252
-0.0137484 0 0.00241533 0.152479
0.0137484 -2.58494e-26 0.00241533 -0.0247252
-0.013458 2.71051e-20 0.00374223 0.152468
0.013458 -5.42101e-20 0.00374223 -0.024725
0.0140709 0 3.70269e-08 -0.0247254
-0.0140709 0 9.99199e-09 0.15249
-0.0137488 2.11378e-20 0.00307762 0.152474
0.0137488 -1.73452e-20 0.00307762 -0.024725
-0.0135651 8.27181e-25 0.00401367 0.152466
0.0135651 0 0.00401367 -0.0247249
0.0141231 2.71051e-20 0.00120897 -0.0247253
-0.0141231 0 0.00120897 0.15249
-0.0137164 -1.92146e-20 0.00361036 0.152469
0.0137164 7.00457e-21 0.00361036 -0.0247249
0.014089 0 0.00201377 -0.0247252
-0.014089 2.71051e-20 0.00201377 0.152482
-0.0142657 5.42101e-20 0.000418222 0.152494
0.0142657 2.71051e-20 0.000418221 -0.0247253
-0.014069 -2.71051e-20 0.0027392 0.152476
0.014069 0 0.0027392 -0.024725
0.0138967 0 0.00392747 -0.0247248
-0.0138967 0 0.00392747 0.152463
0.0140496 0 0.00340311 -0.0247248
-0.0140496 0 0.00340311 0.15247
-0.0143919 -6.46235e-27 0.00161694 0.15248
0.014441 0 0.00161392 -0.0247252
-0.014441 2.83767e-21 0.00161391 0.15248
-0.0144454 -1.16322e-25 0.00157999 0.15248
0.0145429 1.93395e-20 0.000823379 -0.0247253
-0.0145429 0 0.000823363 0.152488
-0.0139237 0 0.00428406 0.152463
0.0139237 -1.65436e-24 0.00428406 -0.0247246
0.0143988 2.58494e-26 0.0023483 -0.0247251
-0.014397 9.51671e-21 0.00237994 0.152471
0.014397 0 0.00237994 -0.0247251
0.0144898 0 0.00237022 -0.0247251
-0.0143653 -4.95068e-21 0.00309536 0.152468
0.0143653 0 0.00309537 -0.0247249
0.0147022 0 4.94613e-08 -0.0247254
-0.0147022 -1.65436e-24 1.20861e-08 0.152489
-0.014305 3.55117e-20 0.00382188 0.152461
0.014305 8.27181e-25 0.00382188 -0.0247247
0.0142451 0 0.00421792 -0.0247245
-0.0142451 0 0.00421792 0.152463
0.0147298 -8.13152e-20 0.00200539 -0.0247252
-0.0147298 0 0.00200539 0.152466
-0.0148165 0 0.00124392 0.152482
0.0148165 0 0.00124392 -0.0247252
-0.0149179 1.03398e-25 0.000896435 0.152475
-0.0149609 0 2.9798e-17 0.152481
0.014711 -2.71051e-20 0.00272495 -0.0247251
-0.014711 -2.71051e-20 0.00272495 0.152462
-0.0149557 0 0.000461616 0.152485
0.0149557 0 0.000461611 -0.0247256
-0.0142802 0 0.00455258 0.152456
0.0142802 -8.27181e-25 0.00455258 -0.0247245
0.0146561 0 0.00344874 -0.0247248
-0.0146561 2.71051e-20 0.00344874 0.152462
-0.014516 -1.6116e-20 0.00427159 0.152454
0.014516 8.44882e-21 0.0042716 -0.0247245
0.0150861 3.43148e-20 0.00165189 -0.0247252
-0.0150861 -1.64128e-21 0.00165188 0.15246
0.014707 0 0.0040482 -0.0247245
-0.014707 -2.71051e-20 0.0040482 0.152449
0.0151175 0 0.00230446 -0.0247251
-0.0151175 1.62417e-21 0.00230446 0.152443
0.0150684 -2.06795e-25 0.00261829 -0.024725
0.0146108 0 0.00452168 -0.0247245
-0.0146108 0 0.00452168 0.152449
-0.0149933 -3.80007e-20 0.00309786 0.152442
0.0149933 4.1359e-25 0.00309786 -0.0247249
0.0153398 2.56277e-20 0.000978644 -0.0247254
-0.0153398 1.2094e-20 0.000978635 0.152462
0.0153745 0 1.29805e-08 -0.0247256
-0.0153745 0 2.22893e-08 0.152469
-0.0146354 0 0.00482017 0.152457
0.0146354 0 0.00482017 -0.0247244
-0.0149803 6.29567e-21 0.0037633 0.152443
0.0149803 -8.27181e-25 0.0037633 -0.0247247
0.0153272 0 0.00275021 -0.024725
-0.0153272 -2.71051e-20 0.00275021 0.15242
-0.0149658 -1.06954e-21 0.00441692 0.152449
0.0149658 8.27181e-25 0.00441693 -0.0247245
-0.014927 -2.71051e-20 0.00477488 0.152464
0.014927 -5.42101e-20 0.00477488 -0.0247243
0.0152999 0 0.00342236 -0.0247247
-0.0152999 2.71051e-20 0.00342236 0.152423
0.015716 5.42101e-20 0.00173426 -0.0247252
-0.015716 5.42101e-20 0.00173426 0.152416
0.0152841 -5.42101e-20 0.00407715 -0.0247246
-0.0152841 2.71051e-20 0.00407715 0.152437
0.0149898 0 0.00508707 -0.0247244
-0.0149898 0 0.00508707 0.152463
0.0156647 -4.1359e-25 0.00240043 -0.0247252
-0.0156647 -1.56624e-20 0.00240043 0.1524
-0.0158727 1.0842e-19 0.000520994 0.152443
0.0158727 -5.42101e-20 0.000520992 -0.0247257
0.0156354 1.03398e-25 0.00287872 -0.024725
-0.0151702 -3.72645e-22 0.00482145 0.152456
0.0151702 8.2991e-21 0.00482145 -0.0247244
-0.015623 -1.63432e-20 0.00308126 0.152396
0.015623 0 0.00308126 -0.0247249
-0.0153271 2.71051e-20 0.00461022 0.152442
0.0153271 0 0.00461022 -0.0247244
0.0156022 0 0.00374982 -0.0247247
-0.0156022 1.15971e-21 0.00374982 0.152405
-0.0151797 1.03398e-25 0.00523007 0.152468
0.015269 -2.71051e-20 0.00505544 -0.0247244
-0.015269 2.71051e-20 0.00505544 0.152461
0.0159605 0 0.00272817 -0.0247253
-0.0159605 0 0.00272817 0.152371
-0.0155971 -2.10666e-20 0.0043751 0.152427
0.0155971 0 0.0043751 -0.0247246
-0.0160322 0 0.00235138 0.152384
-0.0153431 1.03398e-25 0.00535318 0.152473
0.0153431 -1.29247e-26 0.00535318 -0.0247244
-0.0154076 0 0.0052069 0.152467
0.0159183 5.42101e-20 0.00340547 -0.0247246
-0.0159183 -2.71051e-20 0.00340547 0.15237
0.0155359 0 0.00491577 -0.0247244
-0.0155359 1.41866e-20 0.00491577 0.152456
-0.0159245 2.71051e-20 0.00405169 0.152389
0.0159245 2.71051e-20 0.00405169 -0.0247247
0.0163947 -2.47708e-20 0.00113361 -0.0247254
-0.0163947 0 0.0011336 0.152401
0.0161888 -5.16988e-26 0.00306055 -0.024725
0.0164795 0 4.5134e-08 -0.0247257
-0.0164795 0 7.53989e-09 0.152416
-0.0163851 -5.16988e-26 0.00180393 0.152383
-0.0162478 0 0.00305839 0.152362
0.0162478 0 0.00305839 -0.024725
0.0163779 -1.93548e-20 0.00230526 -0.0247252
-0.0163779 0 0.00230525 0.152369
0.0156904 -2.71051e-20 0.00524875 -0.0247244
-0.0156904 -2.71051e-20 0.00524875 0.152484
0.0162566 -1.29247e-26 0.00314393 -0.024725
0.0158759 2.71051e-20 0.00471202 -0.0247245
-0.0158759 -2.71051e-20 0.00471202 0.152435
-0.0165637 -2.06795e-25 0.00113717 0.152396
0.0156951 0 0.00561829 -0.0247247
-0.0156951 0 0.00561829 0.152504
0.0163084 0 0.00364992 -0.0247247
-0.0163084 0 0.00364992 0.152368
0.016199 0 0.00441125 -0.0247247
-0.016199 2.63777e-20 0.00441125 0.152406
-0.016068 5.16988e-26 0.00518819 0.152484
0.0161146 -1.43821e-20 0.00513441 -0.0247247
-0.0161146 1.76055e-20 0.00513441 0.152482
-0.016031 0 0.0055414 0.152525
0.016031 -2.71051e-20 0.0055414 -0.0247248
-0.0169948 0 1.57361e-20 0.1524
-0.0165964 0 0.00369035 0.152362
-0.0161687 5.16988e-26 0.00526118 0.152497
0.0165301 0 0.00408038 -0.0247247
-0.0165301 2.71051e-20 0.00408038 0.152366
0.0170241 -5.42101e-20 0.0005776 -0.0247258
-0.0170241 0 0.000577601 0.15239
0.0169741 5.42101e-20 0.00175445 -0.0247252
-0.0169741 5.42101e-20 0.00175445 0.152354
-0.0160456 4.1359e-25 0.00588233 0.152543
0.0160456 0 0.00588233 -0.0247249
0.0168708 -5.42101e-20 0.00304668 -0.0247252
-0.0168708 -1.0842e-19 0.00304668 0.152335
0.0164827 -5.42101e-20 0.00476235 -0.024725
-0.0164827 2.71051e-20 0.00476235 0.152434
0.0168025 -6.46235e-27 0.00371927 -0.0247252
0.0163092 7.98333e-21 0.00559034 -0.0247249
-0.0163092 0 0.00559034 0.152537
-0.0168571 0 0.00372694 0.152356
0.0168571 0 0.00372694 -0.0247252
0.0168524 -6.46235e-27 0.00384281 -0.0247252
0.0165194 0 0.0053648 -0.0247249
-0.0165194 -2.71051e-20 0.0053648 0.152524
-0.0168333 -2.58494e-26 0.00431301 0.152393
0.0168293 0 0.00441207 -0.0247252
-0.0168293 6.46235e-27 0.00441207 0.1524
-0.016393 -2.71051e-20 0.00584515 0.152561
0.016393 2.71051e-20 0.00584515 -0.0247249
-0.0163955 0 0.00614428 0.15261
0.0163955 4.1359e-25 0.00614428 -0.0247255
-0.0169489 0 0.00440665 0.1524
0.0168096 0 0.00506989 -0.0247253
-0.0168096 -1.29247e-26 0.00506989 0.152489
-0.0168053 0 0.00515263 0.152503
0.017623 3.30872e-24 2.17597e-08 -0.0247258
-0.017623 -1.65436e-24 1.01887e-08 0.152379
0.0175916 7.34536e-21 0.00115888 -0.0247255
-0.0175916 0 0.00115887 0.152368
-0.0171737 -2.71051e-20 0.004052 0.15236
0.0171737 2.71051e-20 0.004052 -0.0247257
0.0175442 2.16208e-20 0.00239621 -0.0247255
-0.0175442 0 0.00239621 0.152349
-0.0167746 0 0.00574376 0.152601
0.0167746 5.16988e-26 0.00574376 -0.0247256
-0.0171404 2.71051e-20 0.0047287 0.152438
0.0171404 2.71051e-20 0.0047287 -0.0247255
-0.016705 0 0.00611265 0.15266
0.016705 0 0.00611265 -0.0247261
0.0174986 -5.16988e-26 0.00354411 -0.0247257
-0.0174986 0 0.00354412 0.152356
-0.0167191 4.1359e-25 0.00643602 0.152705
0.0167191 0 0.00643602 -0.0247263
-0.0171168 -2.71051e-20 0.00539052 0.152555
0.0171168 2.71051e-20 0.00539052 -0.024726
0.0174765 1.29247e-26 0.0041983 -0.0247259
-0.0172565 0 0.00505616 0.152499
-0.0174702 -5.16988e-26 0.00438304 0.152404
0.0174702 0 0.00438304 -0.0247259
-0.0169667 2.3884e-20 0.00617943 0.152703
0.0169667 1.23494e-20 0.00617943 -0.0247263
0.0174493 0 0.00505023 -0.0247262
-0.0174493 0 0.00505023 0.152503
-0.0171679 2.71051e-20 0.00597129 0.152697
0.0171679 0 0.00597129 -0.0247262
0.0182005 -1.0842e-19 0.00058338 -0.0247258
-0.0182005 5.42101e-20 0.000583381 0.152369
-0.017043 -2.71051e-20 0.00643779 0.152751
0.017043 -2.71051e-20 0.00643779 -0.0247263
0.0177879 2.71051e-20 0.00403219 -0.024726
-0.0177879 0 0.00403219 0.152371
-0.0181761 -1.0842e-19 0.00178292 0.152361
0.0181761 0 0.00178292 -0.0247255
-0.0170214 4.1359e-25 0.00674884 0.152787
0.0170214 -4.1359e-25 0.00674884 -0.0247271
-0.0174458 0 0.00568734 0.152636
0.0174458 -3.41019e-21 0.00568734 -0.0247266
-0.0177804 -2.71051e-20 0.00470438 0.152449
0.0177804 0 0.00470438 -0.0247263
-0.0181642 -1.0842e-19 0.00305697 0.152346
0.0181642 5.42101e-20 0.00305697 -0.0247261
-0.0181317 -2.06795e-25 0.00370155 0.152362
0.0181317 1.63857e-21 0.00370155 -0.0247268
-0.01741 0 0.00635261 0.152768
0.01741 -2.59746e-20 0.00635261 -0.0247272
-0.0177702 -2.71051e-20 0.00535529 0.152571
0.0177702 0 0.00535529 -0.0247268
-0.0173274 0 0.00672747 0.152823
0.0173274 -2.71051e-20 0.00672747 -0.0247279
0.0181132 0 0.00420721 -0.0247269
-0.0181076 3.26442e-21 0.00436205 0.152408
0.0181076 6.46235e-27 0.00436205 -0.0247269
-0.0173238 4.1359e-25 0.00706119 0.15285
0.0173238 4.1359e-25 0.00706119 -0.0247279
0.0177503 0 0.00600627 -0.0247274
-0.0177503 2.71051e-20 0.00600627 0.152715
-0.018098 -1.63446e-20 0.00501826 0.152504
0.018098 0 0.00501826 -0.0247272
-0.0187969 0 1.59693e-08 0.152362
0.0187969 1.65436e-24 1.06448e-08 -0.0247255
-0.0187878 0 0.00116731 0.152368
0.0187878 3.70221e-20 0.00116731 -0.0247255
-0.0175851 2.16202e-20 0.00679799 0.152849
0.0175851 -5.35682e-21 0.00679799 -0.0247279
-0.0184432 2.71051e-20 0.00401963 0.152363
0.0184432 2.71051e-20 0.00401963 -0.024728
-0.0187844 0 0.00239454 0.152362
0.0187844 -3.07554e-20 0.00239454 -0.024726
-0.0180831 0 0.00566925 0.152628
0.0180831 0 0.00566925 -0.0247277
0.0177912 0 0.00658995 -0.0247279
-0.0177912 0 0.00658995 0.152848
-0.0184158 -2.71051e-20 0.00467993 0.152451
0.0184158 0 0.00467993 -0.0247273
-0.0176529 -2.71051e-20 0.00706043 0.152877
0.0176529 0 0.00706043 -0.0247279
-0.0176264 -4.1359e-25 0.00737367 0.152873
0.0176264 0 0.00737367 -0.0247287
-0.0180712 2.58494e-26 0.00630777 0.152761
0.0180712 0 0.00630777 -0.0247282
-0.0184261 -2.71051e-20 0.0053197 0.152547
0.0184261 -2.71051e-20 0.0053197 -0.0247281
-0.0188515 2.06795e-25 0.00360143 0.152346
0.0188515 0 0.00360143 -0.0247275
0.0188003 -6.46235e-27 0.00397534 -0.0247277
-0.0187497 -2.08725e-20 0.00434473 0.152383
0.0187497 1.29247e-26 0.00434473 -0.0247279
-0.018025 1.03398e-25 0.00697581 0.152852
0.018025 0 0.00697581 -0.0247288
-0.0183967 0 0.00598007 0.152681
0.0183967 -2.71051e-20 0.00598007 -0.0247284
0.0190444 -3.87741e-26 0.00361107 -0.0247277
-0.0179363 0 0.0073519 0.152869
0.0179363 -2.71051e-20 0.0073519 -0.0247296
-0.0193896 5.42101e-20 0.000584898 0.152355
0.0193896 0 0.000584906 -0.0247253
-0.0188216 2.24226e-20 0.00491492 0.152457
0.0188216 -2.43697e-20 0.00491492 -0.0247283
-0.0193933 -5.42101e-20 0.00177944 0.152387
0.0193933 0 0.00177943 -0.0247254
-0.0179292 4.1359e-25 0.00768641 0.152858
0.0179292 0 0.00768641 -0.0247295
0.018369 0 0.00663164 -0.024729
-0.018369 0 0.00663164 0.152793
-0.0187273 -2.57838e-20 0.00564917 0.152564
0.0187273 0 0.00564917 -0.0247288
-0.0194147 0 0.00301348 0.152357
0.0194147 0 0.00301348 -0.0247271
-0.0181958 -4.12143e-22 0.00742304 0.15286
0.0181958 1.10958e-20 0.00742304 -0.0247296
-0.0187015 1.86691e-20 0.00629873 0.152669
0.0187015 2.11144e-21 0.00629873 -0.0247292
0.0184056 2.71051e-20 0.00721495 -0.0247296
-0.0184056 -2.71051e-20 0.00721495 0.152865
-0.0190533 -5.42101e-20 0.0053245 0.152468
0.0190533 -2.71051e-20 0.0053245 -0.0247291
0.0182616 -2.71051e-20 0.0076859 -0.0247295
-0.0182616 -2.71051e-20 0.0076859 0.152848
0.0197137 5.16988e-26 0.00238644 -0.0247261
-0.0193893 0 0.0043251 0.152308
0.0193893 0 0.0043251 -0.0247288
0.0182322 0 0.00799942 -0.0247303
-0.0182322 0 0.00799942 0.15279
-0.0186894 0 0.00693288 0.152748
0.0186894 2.58494e-26 0.00693288 -0.0247297
-0.019034 0 0.00596484 0.152565
0.019034 0 0.00596484 -0.0247295
-0.0199808 -1.65436e-24 1.15616e-08 0.152345
0.0199808 0 1.81198e-09 -0.0247245
-0.0193786 -5.16988e-26 0.00498454 0.152307
0.0193786 1.29247e-26 0.00498454 -0.0247296
-0.0199934 0 0.00116524 0.152359
0.0199935 0 0.00116523 -0.0247247
0.0200018 -5.16988e-26 0.00176843 -0.0247254
-0.018638 0 0.00760163 0.152764
0.018638 1.03398e-25 0.00760163 -0.0247303
-0.0190175 -5.42101e-20 0.00660576 0.152641
0.0190175 -5.42101e-20 0.00660576 -0.0247299
-0.0200103 0 0.00238385 0.152326
0.0200103 0 0.00238385 -0.0247261
0.0201183 5.16988e-26 0.00116394 -0.0247246
-0.0193626 0 0.005634 0.152374
0.0193626 6.46235e-27 0.005634 -0.0247299
0.0185453 0 0.00797801 -0.024731
-0.0185453 2.71051e-20 0.00797801 0.152732
0.0185355 0 0.00831268 -0.024731
-0.0185355 0 0.00831268 0.152681
0.020316 0 -1.46994e-28 -0.0247239
-0.0189879 2.71051e-20 0.00725654 0.152683
0.0189879 -2.71051e-20 0.00725654 -0.0247304
-0.0193479 -3.73296e-20 0.00627375 0.152461
0.0193479 0 0.00627375 -0.0247302
-0.0200226 0 0.00365995 0.152188
0.0200226 0 0.00365995 -0.0247283
-0.019693 0 0.00529521 0.152153
0.019693 -5.42101e-20 0.00529521 -0.0247304
-0.0188066 3.8133e-21 0.00805004 0.152681
0.0188066 2.79695e-20 0.00805004 -0.024731
-0.0193268 2.58494e-26 0.00692069 0.152509
0.0193268 -2.58494e-26 0.00692069 -0.0247306
-0.0196676 5.42101e-20 0.00594439 0.15231
0.0196676 -2.71051e-20 0.00594439 -0.0247305
-0.01902 0 0.00784265 0.152682
0.01902 -2.71051e-20 0.00784265 -0.024731
-0.0205868 5.42101e-20 0.000581102 0.152334
0.0205869 0 0.000581094 -0.0247237
-0.0188712 0 0.00831333 0.152631
0.0188712 2.71051e-20 0.00831333 -0.024731
-0.020095 4.74981e-20 0.00487938 0.152022
0.020095 1.80999e-20 0.00487938 -0.0247302
-0.0206115 -5.42101e-20 0.00176879 0.152362
0.0206115 5.42101e-20 0.00176879 -0.0247246
-0.0188391 0 0.00862624 0.152519
0.0188391 8.27181e-25 0.00862624 -0.0247317
-0.0193074 -1.03398e-25 0.00756039 0.152531
0.0193074 0 0.00756039 -0.0247311
-0.0196738 -2.71051e-20 0.00657561 0.152334
0.0196738 -2.71051e-20 0.00657561 -0.0247308
-0.0200001 0 0.00561439 0.152095
0.0200001 3.96488e-21 0.00561439 -0.0247307
0.0206346 1.0842e-19 0.00301452 -0.0247273
-0.0206346 5.42101e-20 0.00301452 0.152197
0.0196391 5.42101e-20 0.00723369 -0.0247313
-0.0196391 0 0.00723369 0.152376
0.0192519 -2.06795e-25 0.00823155 -0.0247317
-0.0192519 0 0.00823155 0.152484
-0.0200715 -3.31551e-21 0.00617586 0.152102
0.0200715 6.46235e-27 0.00617586 -0.0247311
0.0191557 2.71051e-20 0.00860727 -0.0247324
-0.0191557 2.71051e-20 0.00860727 0.152407
-0.0206641 -1.0842e-19 0.00428079 0.15189
0.0206641 5.42101e-20 0.00428079 -0.0247298
0.0191433 8.27181e-25 0.00894011 -0.0247325
-0.0191433 0 0.00894011 0.152332
0.0196055 0 0.00788712 -0.0247317
-0.0196055 0 0.00788712 0.152369
-0.0199746 -7.72817e-21 0.0069041 0.152155
0.0199746 1.29247e-26 0.0069041 -0.0247314
-0.0211723 1.65436e-24 1.19397e-08 0.152331
0.0211724 0 4.52929e-09 -0.0247225
-0.0212048 -1.65436e-24 0.00115269 0.152329
0.0212049 0 0.00115268 -0.0247231
0.0194188 -2.94596e-20 0.0086858 -0.0247325
-0.0194188 -3.17377e-20 0.0086858 0.152326
-0.0199446 -5.16988e-26 0.00755308 0.152181
0.0199446 0 0.00755308 -0.0247318
0.0203041 2.71051e-20 0.00658402 -0.0247316
-0.0203041 0 0.00658402 0.151933
-0.0212384 8.27181e-25 0.0023678 0.152169
0.0212384 0 0.0023678 -0.0247251
0.0206408 0 0.00559143 -0.0247313
-0.0206408 -5.42101e-20 0.00559143 0.151652
0.0196393 0 0.00847876 -0.0247324
-0.0196393 -5.42101e-20 0.00847876 0.152313
0.0194792 2.71051e-20 0.0089564 -0.0247326
-0.0194792 2.71051e-20 0.0089564 0.152255
-0.0194172 -8.27181e-25 0.00928185 0.152163
0.0194172 0 0.00928186 -0.0247331
-0.0202831 2.71051e-20 0.00722169 0.15198
0.0202831 2.71051e-20 0.00722169 -0.0247319
-0.0199297 2.75656e-20 0.00819016 0.152171
0.0199297 -1.03398e-25 0.00819016 -0.0247323
-0.0206294 4.84268e-21 0.00624638 0.151649
0.0206294 6.46235e-27 0.00624638 -0.0247314
-0.0212679 0 0.00364055 0.15179
0.0212679 0 0.00364055 -0.024728
0.0202625 2.71051e-20 0.00786089 -0.0247321
-0.0202625 5.42101e-20 0.00786089 0.151997
-0.0206173 -1.84924e-20 0.00689381 0.151697
0.0206173 0 0.00689381 -0.0247319
-0.0198766 0 0.00887843 0.152123
0.0198766 -2.06795e-25 0.00887843 -0.024733
-0.0217896 -5.42101e-20 0.000568406 0.152328
0.0217897 -5.42101e-20 0.000568406 -0.0247212
-0.0212798 1.03398e-25 0.00493138 0.151393
0.0212798 -1.03398e-25 0.00493138 -0.0247303
0.0197714 0 0.0092976 -0.0247335
-0.0197714 2.71051e-20 0.0092976 0.152069
-0.019669 0 0.00964181 0.152029
0.019669 0 0.00964181 -0.0247339
-0.0218374 0 0.00173743 0.152291
0.0218374 -1.0842e-19 0.00173743 -0.0247226
-0.0205995 0 0.0075318 0.151749
0.0205995 0 0.0075318 -0.0247322
0.0209456 0 0.00655441 -0.0247312
-0.0209456 -2.71051e-20 0.00655441 0.151378
-0.0202362 -5.42101e-20 0.00851518 0.151988
0.0202362 -2.71051e-20 0.00851518 -0.0247328
0.021882 5.42101e-20 0.00297573 -0.0247259
-0.021882 0 0.00297573 0.151823
-0.0205755 0 0.00817149 0.151791
0.0205755 5.16988e-26 0.00817149 -0.0247327
-0.0209362 5.42101e-20 0.00721472 0.151495
0.0209362 -2.71051e-20 0.00721472 -0.0247326
0.0199576 0 0.00972223 -0.0247342
-0.0199576 0 0.00972223 0.151987
-0.0200954 8.34625e-21 0.00945691 0.151995
0.0200954 4.1359e-25 0.00945691 -0.0247339
0.0213454 -3.79224e-21 0.00613816 -0.0247314
-0.0213454 0 0.00613817 0.151161
-0.0202913 0 0.0091201 0.151968
0.0202913 0 0.0091201 -0.0247335
-0.0199226 -8.27181e-25 0.0100021 0.152011
0.0199226 -8.27181e-25 0.0100021 -0.0247344
-0.0219071 5.42101e-20 0.00426287 0.151249
0.0219071 -1.6263e-19 0.00426287 -0.0247289
0.0212536 0 0.00687047 -0.0247319
-0.0212536 0 0.00687047 0.151263
-0.0209198 2.71051e-20 0.00783 0.151533
0.0209198 0 0.00783 -0.0247322
-0.0222349 2.06795e-25 0.00231824 0.151969
-0.0223699 0 8.59575e-09 0.152326
0.02237 0 1.06529e-08 -0.0247194
-0.0205825 4.88367e-21 0.00880038 0.151831
0.0205825 -1.03398e-25 0.00880038 -0.0247334
-0.0223673 5.16988e-26 0.00111511 0.15227
-0.0224227 5.16988e-26 0.00107137 0.152269
-0.0201854 3.83857e-20 0.00982489 0.151992
0.0201854 8.94679e-21 0.00982489 -0.0247344
-0.0224248 -7.65802e-20 0.00111325 0.152267
0.0224249 0 0.00111326 -0.0247201
-0.0222602 -1.03398e-25 0.00359676 0.15141
0.0208973 5.42101e-20 0.00847326 -0.0247335
-0.0208973 0 0.00847326 0.151644
-0.020392 -2.71051e-20 0.00967037 0.151953
0.020392 0 0.00967037 -0.0247343
0.0202271 0 0.0100702 -0.0247347
-0.0202271 -5.42101e-20 0.0100702 0.152035
0.0224885 -8.27181e-25 0.00230561 -0.0247225
-0.0224885 4.35242e-20 0.00230562 0.151918
-0.0219242 -5.42101e-20 0.0055407 0.150789
0.0219242 0 0.0055407 -0.024731
-0.0206219 2.06795e-25 0.00940243 0.151882
0.0206219 0 0.00940243 -0.0247341
0.0201769 0 0.0103635 -0.0247352
-0.0201769 0 0.0103635 0.151992
-0.0214053 0 0.00750768 0.151243
0.0214053 6.51345e-21 0.00750768 -0.0247324
-0.0212331 -1.26051e-20 0.0081501 0.151432
0.0212331 -2.58494e-26 0.0081501 -0.0247329
-0.0227454 8.27181e-25 -8.97294e-36 0.152328
-0.0222376 0 0.00490354 0.150894
0.0225307 0 0.00358481 -0.0247258
-0.0225307 4.80054e-20 0.00358482 0.151307
-0.0209306 -2.71051e-20 0.009079 0.151719
0.0209306 0 0.009079 -0.0247337
-0.0205788 -3.71061e-20 0.0100354 0.151955
0.0205788 0 0.0100354 -0.024735
0.0218832 1.0842e-19 0.00683353 -0.024732
-0.0218832 -5.42101e-20 0.00683353 0.1507
-0.0220903 0 0.00617273 0.150704
-0.02047 0 0.0103922 0.151949
0.02047 2.71051e-20 0.0103922 -0.0247356
-0.0229944 -5.42101e-20 0.000536085 0.152323
0.0229945 0 0.000536078 -0.0247175
-0.0213123 -1.20898e-21 0.00869943 0.151487
0.0213123 -2.58494e-26 0.00869943 -0.0247338
-0.020909 -2.71051e-20 0.00972034 0.151877
0.020909 0 0.00972034 -0.0247347
0.0225437 0 0.00489464 -0.0247287
-0.0225437 1.64738e-21 0.00489464 0.150735
0.0204318 0 0.0107257 -0.0247359
-0.0204318 0 0.0107257 0.152004
-0.0230802 5.42101e-20 0.00165832 0.152125
0.0230803 -5.42101e-20 0.00165833 -0.0247189
-0.0212246 0 0.00940472 0.151683
0.0212246 -5.16988e-26 0.00940472 -0.0247346
0.0207156 3.86198e-20 0.0104897 -0.0247358
-0.0207156 -3.64125e-21 0.0104897 0.151984
0.0209353 0 0.0102994 -0.0247356
-0.0209353 -2.71051e-20 0.0102994 0.151945
-0.0231589 0 0.00287977 0.151424
0.0231589 0 0.00287976 -0.0247225
-0.0218885 5.42101e-20 0.00814494 0.150917
0.0218885 5.42101e-20 0.00814494 -0.0247329
0.0225301 -1.6632e-20 0.00619313 -0.0247305
-0.0225301 -2.90288e-20 0.00619313 0.150433
0.0207613 5.42101e-20 0.0107635 -0.0247362
-0.0207613 0 0.0107635 0.152059
-0.0215469 0 0.00909429 0.151436
0.0215469 0 0.00909429 -0.0247346
0.0212144 0 0.0100278 -0.0247354
-0.0212144 -4.58186e-21 0.0100278 0.151863
0.020687 -8.27181e-25 0.0110884 -0.0247367
-0.020687 0 0.0110884 0.15205
-0.0231865 0 0.00419035 0.150734
0.0231866 0 0.00419035 -0.0247259
0.0218725 0 0.00877017 -0.0247334
-0.0218725 0 0.00877017 0.151215
-0.0235735 0 1.78781e-08 0.152333
0.0235737 0 1.46761e-08 -0.0247145
-0.0215348 -2.71051e-20 0.00971336 0.151697
0.0215348 -2.71051e-20 0.00971337 -0.0247353
-0.0224336 -2.42338e-27 0.00748097 0.150561
-0.0236424 -4.84893e-20 0.00102426 0.152138
0.0236425 -3.30872e-24 0.00102426 -0.024715
0.0211543 4.7385e-21 0.0107041 -0.0247364
-0.0211543 -1.03398e-25 0.0107041 0.152004
0.0225191 2.6493e-20 0.00747875 -0.0247319
-0.0225191 5.12412e-20 0.00747875 0.150504
0.0218553 2.58494e-26 0.00939598 -0.0247346
-0.0218553 1.29247e-26 0.00939598 0.151456
0.021043 0 0.011115 -0.0247371
-0.021043 2.71051e-20 0.011115 0.15204
-0.0231776 5.42101e-20 0.0055198 0.150169
0.0231777 0 0.00551979 -0.0247286
0.0209424 0 0.0114514 -0.0247376
-0.0209424 -6.46235e-27 0.0114514 0.15205
0.0215108 -2.71051e-20 0.0103577 -0.0247359
-0.0215108 2.71051e-20 0.0103577 0.151925
-0.0237791 -1.4919e-20 0.00216485 0.151626
0.0237792 0 0.00216486 -0.0247175
-0.0209529 -8.40105e-26 0.0114663 0.152051
-0.0225545 0 0.00806049 0.150699
-0.0221872 5.42101e-20 0.00906953 0.151182
0.0221872 -2.71051e-20 0.00906953 -0.0247326
-0.0211228 -6.46235e-27 0.0113806 0.152052
0.0218425 0 0.0100258 -0.0247357
-0.0218425 0 0.0100258 0.151723
-0.0238309 -1.33705e-20 0.00346141 0.150977
0.023831 0 0.00346141 -0.0247217
-0.021348 -6.46235e-27 0.0112435 0.152051
-0.024136 0 0.000451688 0.152343
0.0241362 -1.0842e-19 0.000451688 -0.0247114
-0.0231587 0 0.00682378 0.150071
0.0231587 -1.0842e-19 0.00682378 -0.0247301
0.0213633 2.06795e-25 0.0112862 -0.0247377
-0.0213633 -3.31821e-20 0.0112862 0.152055
-0.0212283 0 0.0115413 0.15206
0.0212283 -2.71051e-20 0.0115413 -0.024738
-0.0218459 -6.46235e-27 0.0103407 0.151832
0.0215589 0 0.0109592 -0.0247372
-0.0215589 -2.71051e-20 0.0109592 0.15204
-0.0221622 2.71051e-20 0.00970256 0.151504
0.0221622 0 0.00970256 -0.0247358
0.0225915 0 0.00866816 -0.0247331
-0.0225915 -1.65035e-20 0.00866816 0.150902
-0.0225553 -1.61559e-27 0.00893135 0.151036
-0.0218006 -3.23117e-26 0.0106547 0.151944
0.021198 0 0.0118146 -0.0247387