# pMean  POINT_DATA 5809
# x  y  z  pMean
-1.57772e-30 -0.237 8.31749e-08 -0.0298027
-1.09046e-25 0.237 8.64572e-08 -0.0300942
0 0.237 0.000550924 -0.0300905
0 -0.237 0.000550925 -0.0298005
0 0.237 0.0011232 -0.0300842
0 -0.237 0.0011232 -0.0297961
0 0.237 0.00172954 -0.0300799
0 -0.237 0.00172954 -0.0297915
0 -0.237 0.00236831 -0.0297898
0 0.237 0.00236831 -0.0300793
-8.27181e-25 -0.237 0.00302578 -0.0297974
0 0.237 0.00302578 -0.0300836
0 0.237 0.00361376 -0.0300898
0 -0.237 0.00366636 -0.0298124
0 0.237 0.00368597 -0.0300905
0 -0.237 0.00368597 -0.0298129
-1.03398e-25 0.237 0.00384697 -0.0300923
0 0.237 0.00433887 -0.0300977
1.03398e-25 -0.237 0.00433887 -0.0298276
-4.1359e-25 0.237 0.00498192 -0.0301062
0 -0.237 0.00498192 -0.0298442
0 0.237 0.0056169 -0.030122
0 -0.237 0.0056169 -0.0298693
-2.06795e-25 0.237 0.0060091 -0.0301383
2.06795e-25 -0.237 0.00624674 -0.0298981
0 0.237 0.00624674 -0.0301483
-2.06795e-25 -0.237 0.00687382 -0.0299221
0 0.237 0.00687382 -0.0301778
3.87741e-26 -0.237078 0.00368896 -0.0298133
-4.1359e-25 0.237 0.00749962 -0.0302021
0 -0.237 0.00749962 -0.0299385
0 -0.237 0.00812489 -0.0299476
-4.1359e-25 0.237 0.0081249 -0.0302191
-4.1359e-25 0.237 0.00874998 -0.0302287
0 -0.237 0.00874998 -0.0299474
0 0.237 0.009375 -0.0302283
2.06795e-25 -0.237 0.009375 -0.0299348
0 -0.237 0.0096071 -0.0299246
-4.1359e-25 0.237 0.01 -0.0302132
-4.1359e-25 -0.237 0.01 -0.0299072
4.1359e-25 -0.237 0.010625 -0.0298634
8.27181e-25 0.237 0.010625 -0.0301802
0 0.237223 0.00369457 -0.0300913
-2.71051e-20 0.237263 0.000279273 -0.0300942
2.71051e-20 -0.237263 0.000279185 -0.0298028
0 -0.237 0.01125 -0.0298043
0 0.237 0.01125 -0.0301279
0 0.237267 0.000847159 -0.0300866
0 -0.237267 0.000847159 -0.0297982
0 -0.237269 0.00144351 -0.0297939
0 0.237269 0.00144351 -0.0300816
-2.71051e-20 -0.23727 0.00206936 -0.029789
0 0.23727 0.00206936 -0.0300781
2.71051e-20 -0.23727 0.00271568 -0.0297905
0 0.23727 0.00271568 -0.0300804
-2.71051e-20 0.23727 0.00336939 -0.0300868
0 -0.23727 0.00336939 -0.0298043
0 -0.237 0.011875 -0.0297355
0 0.237 0.011875 -0.0300568
5.42101e-20 0.237271 0.00402047 -0.0300941
-2.71051e-20 -0.237271 0.00402047 -0.0298214
0 0.237 0.0121518 -0.0300196
-2.71051e-20 0.237271 0.00466435 -0.0301012
5.42101e-20 -0.237271 0.00466435 -0.0298338
0 -0.237 0.0125 -0.0296663
-4.1359e-25 0.237 0.0125 -0.0299729
2.71051e-20 0.237272 0.00530117 -0.030111
-2.71051e-20 -0.237272 0.00530117 -0.0298544
2.58494e-26 -0.237306 0.00434507 -0.029827
0 0.237272 0.0059324 -0.0301328
0 -0.237272 0.0059324 -0.0298841
2.71051e-20 0.237272 0.00656043 -0.0301637
-2.71051e-20 -0.237272 0.00656043 -0.0299121
-4.1359e-25 0.237 0.013125 -0.0298867
0 -0.237 0.013125 -0.0296059
2.71051e-20 0.237272 0.00718674 -0.0301919
-5.42101e-20 -0.237272 0.00718674 -0.0299321
0 -0.237 0.0134875 -0.0295787
-4.1359e-25 0.237 0.01375 -0.0298083
2.06795e-25 -0.237 0.01375 -0.029559
0 0.237272 0.00781225 -0.0302124
0 -0.237272 0.00781225 -0.0299449
0 -0.237272 0.00843743 -0.0299502
0 0.237272 0.00843743 -0.0302258
0 -0.237371 0.00498524 -0.0298397
0 0.237 0.014375 -0.0297452
0 -0.237 0.014375 -0.0295258
-2.71051e-20 0.237272 0.00906248 -0.0302317
2.71051e-20 -0.237272 0.00906248 -0.0299447
0 0.237 0.0146945 -0.0297219
-2.71051e-20 -0.237272 0.0096875 -0.029925
-2.71051e-20 0.237272 0.0096875 -0.030225
4.1359e-25 0.237 0.015 -0.0296997
2.06795e-25 -0.237 0.015 -0.0295045
0 -0.237427 0.0056183 -0.0298619
-2.71051e-20 -0.237272 0.0103125 -0.0298894
-2.71051e-20 0.237272 0.0103125 -0.0302013
0 0.237 0.015625 -0.0296699
0 -0.237 0.015625 -0.0294918
0 0.23752 8.32931e-08 -0.0300943
0 -0.237521 8.4701e-08 -0.029803
-1.03398e-25 0.237523 0.00017771 -0.0300933
2.71051e-20 -0.237272 0.0109375 -0.0298374
-2.71051e-20 0.237272 0.0109375 -0.0301592
0 -0.237529 0.000533903 -0.0298012
1.30587e-20 0.237529 0.000562809 -0.0300909
0 -0.237529 0.000562807 -0.0298011
0 0.237533 0.00115011 -0.0300851
0 -0.237533 0.00115011 -0.0297975
0 0.237538 0.00176909 -0.0300817
0 -0.237538 0.00176909 -0.0297939
0 -0.237469 0.00624719 -0.0298926
4.1359e-25 0.23754 0.0024097 -0.030082
-1.63962e-20 -0.23754 0.0024097 -0.0297933
2.71051e-20 -0.237272 0.0115625 -0.0297713
0 0.237272 0.0115625 -0.0300967
0 0.237 0.01625 -0.0296536
0 -0.237 0.01625 -0.0294853
0 -0.237541 0.00305869 -0.0298016
2.06795e-25 0.237541 0.00305869 -0.0300865
-1.29247e-26 -0.23756 0.000563223 -0.0298012
0 -0.237542 0.00370687 -0.0298159
0 0.237542 0.00370687 -0.0300925
-5.16988e-26 -0.237543 0.00434987 -0.0298265
0 0.237543 0.00434987 -0.0300978
0 -0.237272 0.0121875 -0.0296998
-8.13152e-20 0.237272 0.0121875 -0.0300168
-1.33882e-20 0.237543 0.00498678 -0.0301029
0 -0.237543 0.00498678 -0.0298376
0 -0.237499 0.0068739 -0.0299231
4.1359e-25 0.237 0.016875 -0.0296472
0 -0.237 0.016875 -0.029483
6.46235e-27 0.237526 0.00624724 -0.0301386
-9.19024e-21 0.237544 0.00561869 -0.0301144
0 -0.237544 0.00561869 -0.0298599
-2.71051e-20 -0.237272 0.0128125 -0.0296329
0 0.237272 0.0128125 -0.0299289
2.00312e-20 -0.237544 0.00624726 -0.0298917
6.46235e-27 0.237544 0.00624726 -0.0301382
4.1359e-25 0.237 0.0172755 -0.0296479
-6.46235e-27 0.237544 0.00645559 -0.0301492
-1.29247e-26 -0.237524 0.00749961 -0.0299481
-2.58494e-26 -0.237544 0.00687391 -0.0299232
0 0.237544 0.00687391 -0.0301711
0 -0.237 0.0175 -0.0294837
-2.06795e-25 0.237 0.0175 -0.0296484
2.71051e-20 -0.237272 0.0134375 -0.0295789
0 0.237272 0.0134375 -0.0298444
-2.58494e-26 0.237544 0.00749961 -0.0302038
0 -0.237544 0.00749961 -0.0299484
1.03398e-25 0.237 0.0177366 -0.0296508
0 -0.237544 0.00796935 -0.0299613
0 -0.237497 0.00937499 -0.0299594
1.18271e-21 0.237544 0.00812487 -0.0302307
0 -0.237544 0.00812487 -0.0299656
5.42101e-20 -0.237272 0.0140625 -0.0295392
0 0.237272 0.0140625 -0.0297721
4.1359e-25 -0.237 0.018125 -0.0294862
0 0.237 0.018125 -0.0296548
1.93025e-20 0.237544 0.00874996 -0.0302494
1.88007e-20 -0.237544 0.00874996 -0.0299714
0 -0.237544 0.00896088 -0.0299681
0 -0.237272 0.0146875 -0.0295124
-2.71051e-20 0.237272 0.0146875 -0.0297182
-2.12714e-20 0.237544 0.00937499 -0.0302556
-2.58494e-26 -0.237544 0.00937499 -0.0299617
0 -0.237 0.01875 -0.0294898
-4.1359e-25 0.237 0.01875 -0.0296646
-2.14989e-20 0.237544 0.01 -0.0302431
0 -0.237544 0.01 -0.0299337
6.46235e-27 -0.23762 0.00812488 -0.0299763
0 -0.237272 0.0153125 -0.0294965
-2.71051e-20 0.237272 0.0153125 -0.0296812
0 -0.237544 0.010625 -0.0298869
4.63769e-21 0.237544 0.010625 -0.0302085
0 -0.237 0.019375 -0.0294941
4.1359e-25 0.237 0.019375 -0.0296765
-2.71051e-20 0.237799 0.000284465 -0.0300945
2.71051e-20 -0.237799 0.000284553 -0.0298032
-2.71051e-20 -0.237272 0.0159375 -0.0294871
-2.71051e-20 0.237272 0.0159375 -0.0296587
0 -0.237544 0.01125 -0.0298244
4.93062e-21 0.237544 0.01125 -0.0301522
-2.71051e-20 0.237811 0.000863452 -0.0300882
-5.42101e-20 -0.237811 0.000863452 -0.0298002
0 -0.23782 0.00147122 -0.0297977
0 0.23782 0.00147122 -0.0300841
2.71051e-20 -0.237826 0.00210431 -0.0297951
0 0.237826 0.00210431 -0.0300829
2.06795e-25 -0.237544 0.011875 -0.0297527
0 0.237544 0.011875 -0.0300774
0 -0.237 0.02 -0.0294989
0 0.237 0.02 -0.0296893
0 0.237544 0.0119635 -0.0300652
-5.42101e-20 0.237829 0.00274869 -0.0300865
0 -0.237829 0.00274869 -0.0297986
-5.42101e-20 -0.237272 0.0165625 -0.0294835
-2.71051e-20 0.237272 0.0165625 -0.0296484
0 -0.23783 0.00339421 -0.0298131
5.42101e-20 0.23783 0.00339421 -0.0300922
0 0.237831 0.00403604 -0.0300968
2.71051e-20 -0.237831 0.00403604 -0.0298247
0 -0.237544 0.0125 -0.0296804
2.06795e-25 0.237544 0.0125 -0.0299907
0 0.237832 0.00467279 -0.0300987
0 -0.237832 0.00467279 -0.029826
0 -0.237485 0.01375 -0.0295673
-2.71051e-20 0.237833 0.00530504 -0.0301005
-2.71051e-20 -0.237833 0.00530504 -0.0298359
-6.46235e-27 0.237793 0.00687412 -0.0301823
-2.71051e-20 -0.237272 0.0171875 -0.0294825
0 0.237272 0.0171875 -0.0296459
0 -0.237 0.020625 -0.0295037
0 0.237 0.020625 -0.0297023
0 0.237544 0.013125 -0.0299016
0 -0.237544 0.013125 -0.0296171
-5.42101e-20 0.237833 0.00593404 -0.0301127
0 -0.237833 0.00593404 -0.0298648
2.71051e-20 0.237834 0.00656112 -0.0301433
-5.42101e-20 -0.237834 0.00656112 -0.0299054
5.16988e-26 -0.237922 0.00116186 -0.0297998
2.71051e-20 -0.237272 0.0178125 -0.0294848
2.71051e-20 0.237272 0.0178125 -0.0296508
6.46235e-27 -0.23778 0.00874997 -0.0300042
-2.06795e-25 0.237544 0.01375 -0.0298204
0 -0.237544 0.01375 -0.0295683
2.71051e-20 0.237834 0.00718692 -0.0301855
0 -0.237834 0.00718692 -0.0299431
4.1359e-25 -0.237 0.02125 -0.0295085
-4.1359e-25 0.237 0.02125 -0.0297149
0 0.237834 0.00781229 -0.0302256
0 -0.237834 0.00781229 -0.029974
0 -0.237529 0.014375 -0.0295332
0 0.237544 0.014375 -0.0297551
-6.46235e-27 -0.237544 0.014375 -0.0295335
0 0.237834 0.00843743 -0.0302593
2.71051e-20 -0.237834 0.00843743 -0.029994
0 -0.237513 0.015 -0.0295106
2.71051e-20 -0.237272 0.0184375 -0.0294875
5.42101e-20 0.237272 0.0184375 -0.0296587
5.16988e-26 0.237544 0.0147612 -0.0297261
0 -0.237834 0.00906248 -0.0299974
2.71051e-20 0.237834 0.00906248 -0.0302817
0 0.237 0.021875 -0.0297265
0 -0.237 0.021875 -0.0295131
0 -0.237497 0.015625 -0.0294971
2.06893e-21 0.237544 0.015 -0.0297082
-1.29247e-26 -0.237544 0.015 -0.029511
2.71051e-20 -0.237834 0.0096875 -0.0299809
2.71051e-20 0.237834 0.0096875 -0.030285
2.71051e-20 -0.237272 0.0190625 -0.0294921
5.42101e-20 0.237272 0.0190625 -0.0296705
0 -0.237497 0.01625 -0.0294902
-2.59562e-20 0.237544 0.015625 -0.0296774
-2.58494e-26 -0.237544 0.015625 -0.0294976
5.42101e-20 -0.237834 0.0103125 -0.0299405
-2.71051e-20 0.237834 0.0103125 -0.0302621
0 -0.23806 2.90145e-09 -0.0298052
2.06795e-25 0.23806 -5.5536e-11 -0.0300971
0 0.237 0.0225 -0.0297368
0 -0.237 0.0225 -0.0295175
-2.06795e-25 0.238068 0.000191009 -0.0300959
0 0.237431 0.0175 -0.0296529
0 0.238083 0.000570196 -0.0300935
0 -0.238083 0.000570195 -0.0298034
5.42101e-20 -0.237834 0.0109375 -0.0298809
2.71051e-20 0.237834 0.0109375 -0.0302125
-5.42101e-20 -0.237272 0.0196875 -0.0294961
5.42101e-20 0.237272 0.0196875 -0.0296824
0 0.237981 0.00749973 -0.0302456
-3.21423e-20 0.237544 0.01625 -0.0296602
0 -0.237544 0.01625 -0.0294907
-4.1359e-25 0.238097 0.00116715 -0.0300883
0 -0.238097 0.00116715 -0.0298009
0 -0.237516 0.016875 -0.0294878
0 -0.237834 0.0115625 -0.0298088
-5.42101e-20 0.237834 0.0115625 -0.0301413
0 -0.238109 0.00179591 -0.0297995
2.06795e-25 0.238109 0.00179591 -0.0300874
0 0.237 0.023125 -0.0297453
0 -0.237 0.023125 -0.0295214
0 0.238117 0.00244027 -0.0300902
0 -0.238117 0.00244027 -0.0298006
5.42101e-20 -0.237272 0.0203125 -0.0295016
2.71051e-20 0.237272 0.0203125 -0.0296961
0 0.23812 0.00308541 -0.0300946
-5.16988e-26 -0.23812 0.00308541 -0.0298091
9.28334e-21 0.237544 0.016875 -0.0296532
0 -0.237544 0.016875 -0.0294881
-2.71051e-20 -0.237834 0.0121875 -0.0297315
-2.71051e-20 0.237834 0.0121875 -0.0300557
0 -0.238121 0.00372595 -0.0298202
0 0.238121 0.00372595 -0.0300979
0 -0.238122 0.00436151 -0.029825
2.58494e-26 0.238122 0.00436151 -0.0300979
-6.46235e-27 -0.237544 0.0172731 -0.0294884
0 -0.238122 0.00499302 -0.0298339
0 0.238122 0.00499302 -0.0300976
-6.46235e-27 0.237881 0.011875 -0.030109
0 -0.237834 0.0128125 -0.029658
0 0.237834 0.0128125 -0.0299618
0 0.237 0.02375 -0.0297517
8.27181e-25 -0.237 0.02375 -0.0295248
2.39433e-21 0.237544 0.0175 -0.029654
-6.46235e-27 -0.237544 0.0175 -0.0294886
0 -0.238123 0.00562167 -0.0298646
-1.48616e-20 0.238123 0.00562167 -0.0301077
-2.71051e-20 -0.237272 0.0209375 -0.0295058
-5.42101e-20 0.237272 0.0209375 -0.0297084
0 -0.238123 0.00624853 -0.0299173
0 0.238123 0.00624853 -0.0301408
-2.71051e-20 -0.237834 0.0134375 -0.0295992
5.42101e-20 0.237834 0.0134375 -0.0298717
0 -0.238124 0.0068744 -0.0299753
-1.29247e-26 0.238124 0.0068744 -0.0301971
-2.19107e-20 0.237544 0.018125 -0.0296604
1.06337e-20 -0.237544 0.018125 -0.0294911
0 -0.238124 0.00749977 -0.0300214
1.29247e-26 0.238124 0.00749977 -0.0302593
0 -0.237834 0.0140625 -0.0295563
2.71051e-20 0.237834 0.0140625 -0.0297939
0 0.237272 0.0215625 -0.0297214
-2.71051e-20 -0.237272 0.0215625 -0.0295112
8.27181e-25 0.237 0.024375 -0.0297557
-8.27181e-25 -0.237 0.024375 -0.0295275
0 0.238253 -3.33791e-10 -0.0300994
3.23117e-27 0.238124 0.00805007 -0.0303039
0 -0.238124 0.00812492 -0.030048
-1.61559e-27 0.238124 0.00812492 -0.0303099
-9.09899e-21 -0.237544 0.01875 -0.0294949
-1.30372e-20 0.237544 0.01875 -0.0296703
-1.29247e-26 -0.238124 0.00874998 -0.0300522
0 0.238124 0.00874998 -0.0303396
2.71051e-20 -0.237834 0.0146875 -0.0295262
2.71051e-20 0.237834 0.0146875 -0.0297365
0 0.237272 0.0221875 -0.0297317
-2.71051e-20 -0.237272 0.0221875 -0.029515
0 -0.238124 0.00937499 -0.030035
1.29906e-20 0.238124 0.00937499 -0.0303442
-8.27181e-25 0.237 0.025 -0.0297572
0 -0.237 0.025 -0.0295293
5.42101e-20 -0.237834 0.0153125 -0.0295091
5.42101e-20 0.237834 0.0153125 -0.0296974
3.56757e-20 -0.237544 0.019375 -0.0294992
2.80914e-20 0.237544 0.019375 -0.0296822
0 -0.238124 0.01 -0.0299985
5.2839e-21 0.238124 0.01 -0.0303221
0 -0.238124 0.010625 -0.029945
-2.27215e-20 0.238124 0.010625 -0.0302765
2.71051e-20 -0.238362 0.000287929 -0.0298073
5.42101e-20 0.238362 0.000287929 -0.0300998
-2.71051e-20 0.237272 0.0228125 -0.0297418
0 -0.237272 0.0228125 -0.0295199
2.71051e-20 -0.237834 0.0159375 -0.029498
-2.71051e-20 0.237834 0.0159375 -0.0296724
0 -0.237 0.025625 -0.0295299
8.27181e-25 0.237 0.025625 -0.029756
1.29247e-26 -0.23774 0.0175 -0.0294948
6.48282e-21 -0.237544 0.02 -0.029504
1.75214e-20 0.237544 0.02 -0.0296953
-1.03398e-25 -0.238124 0.01125 -0.0298776
-3.20249e-20 0.238124 0.01125 -0.0302117
-5.42101e-20 0.238389 0.000874094 -0.0300912
-2.71051e-20 -0.238389 0.000874094 -0.029803
1.29247e-26 0.238124 0.0115928 -0.0301678
0 0.237834 0.0165625 -0.0296614
-2.71051e-20 -0.237834 0.0165625 -0.0294942
2.42338e-27 0.238273 0.00812493 -0.0303407
-2.71051e-20 -0.238408 0.00148916 -0.0298028
2.71051e-20 0.238408 0.00148916 -0.0300896
0 -0.238124 0.011875 -0.029801
1.29247e-26 0.238124 0.011875 -0.0301317
2.58494e-26 -0.238409 0.00244824 -0.0298015
-5.42101e-20 0.237272 0.0234375 -0.0297487
-5.42101e-20 -0.237272 0.0234375 -0.029523
2.71051e-20 -0.238422 0.00212682 -0.0298027
-5.42101e-20 0.238422 0.00212682 -0.0300932
1.76907e-20 -0.237544 0.020625 -0.0295089
2.19445e-20 0.237544 0.020625 -0.0297088
2.71051e-20 -0.238429 0.00277088 -0.029806
-2.71051e-20 0.238429 0.00277088 -0.0300981
-8.27181e-25 -0.237 0.02625 -0.029529
-8.27181e-25 0.237 0.02625 -0.0297518
-1.03398e-25 -0.238124 0.0125 -0.0297222
-5.16988e-26 0.238124 0.0125 -0.0300401
-2.71051e-20 0.237834 0.0171875 -0.0296572
0 -0.237834 0.0171875 -0.0294923
-5.42101e-20 0.238431 0.0034119 -0.0301016
0 -0.238431 0.0034119 -0.0298186
2.71051e-20 0.238431 0.00404796 -0.0301009
0 -0.238431 0.00404796 -0.0298242
-2.71051e-20 0.238431 0.00467997 -0.0300949
2.71051e-20 -0.238431 0.00467997 -0.0298248
0 0.238124 0.013125 -0.0299455
-5.16988e-26 -0.238124 0.013125 -0.0296525
2.71051e-20 0.237272 0.0240625 -0.0297546
2.71051e-20 -0.237272 0.0240625 -0.0295267
-2.71051e-20 0.238432 0.00530874 -0.0300961
0 -0.238432 0.00530874 -0.029849
-6.66894e-21 -0.237544 0.02125 -0.0295138
1.17276e-20 0.237544 0.02125 -0.0297218
2.71051e-20 -0.237834 0.0178125 -0.0294949
0 0.237834 0.0178125 -0.0296624
0 0.238432 0.00593583 -0.0301214
-2.71051e-20 -0.238432 0.00593583 -0.0299092
0 -0.237 0.026875 -0.0295265
8.27181e-25 0.237 0.026875 -0.0297448
0 0.238124 0.01375 -0.0298583
2.58494e-26 -0.238124 0.01375 -0.0295993
5.42101e-20 0.238432 0.00656171 -0.0301864
0 -0.238432 0.00656171 -0.0299911
2.71051e-20 0.238432 0.00718722 -0.0302744
0 -0.238432 0.00718722 -0.0300635
2.71051e-20 -0.237834 0.0184375 -0.0294973
-2.71051e-20 0.237834 0.0184375 -0.0296697
1.34926e-20 0.237544 0.021875 -0.0297339
1.01331e-20 -0.237544 0.021875 -0.0295186
0 0.237272 0.0246875 -0.0297568
-2.71051e-20 -0.237272 0.0246875 -0.0295284
-2.58494e-26 0.238124 0.014375 -0.0297876
2.58494e-26 -0.238124 0.014375 -0.0295608
2.71051e-20 0.238432 0.00781239 -0.0303538
-2.71051e-20 -0.238432 0.00781239 -0.0301073
-5.42101e-20 -0.238432 0.00843746 -0.0301191
2.71051e-20 0.238432 0.00843746 -0.0304037
1.29247e-26 0.238124 0.0148898 -0.0297467
0 -0.237 0.0275 -0.0295219
8.27181e-25 0.237 0.0275 -0.0297345
-2.58494e-26 -0.238124 0.015 -0.0295357
-6.46235e-27 0.238124 0.015 -0.0297379
5.42101e-20 0.237834 0.0190625 -0.0296823
-2.71051e-20 -0.237834 0.0190625 -0.0295026
0 0.238432 0.00906249 -0.0304166
2.71051e-20 -0.238432 0.00906249 -0.0301004
-8.20356e-22 0.237544 0.0225 -0.0297444
-1.36934e-20 -0.237544 0.0225 -0.0295229
-5.42101e-20 0.237272 0.0253125 -0.0297575
-2.71051e-20 -0.237272 0.0253125 -0.0295302
2.71051e-20 -0.238432 0.0096875 -0.0300631
8.13152e-20 0.238432 0.0096875 -0.030396
0 -0.238631 5.27908e-09 -0.0298102
0 0.238631 3.43194e-09 -0.0301037
-1.00723e-20 0.238124 0.015625 -0.0297045
-2.58494e-26 -0.238124 0.015625 -0.0295202
0 0.237834 0.0196875 -0.0296939
-5.42101e-20 -0.237834 0.0196875 -0.0295062
2.71051e-20 -0.238432 0.0103125 -0.0300109
0 0.238432 0.0103125 -0.0303474
8.27181e-25 -0.237 0.028125 -0.0295151
4.1359e-25 0.237 0.028125 -0.0297211
1.89503e-20 0.237544 0.023125 -0.0297533
-7.67996e-21 -0.237544 0.023125 -0.029527
0 0.238672 0.000575691 -0.030099
1.10619e-20 -0.238672 0.000575689 -0.0298076
3.95688e-20 0.238124 0.01625 -0.0296854
2.58494e-26 -0.238124 0.01625 -0.0295113
-1.29247e-26 -0.238659 0.003098 -0.0298075
-2.71051e-20 -0.238432 0.0109375 -0.0299489
0 0.238432 0.0109375 -0.0302856
0 0.237272 0.0259375 -0.0297544
2.71051e-20 -0.237272 0.0259375 -0.0295296
5.42101e-20 0.237834 0.0203125 -0.0297091
2.71051e-20 -0.237834 0.0203125 -0.0295123
-8.27181e-25 0.238701 0.00117836 -0.0300948
-1.82985e-20 -0.238701 0.00117836 -0.0298052
2.71051e-20 -0.238432 0.0115625 -0.029873
0 0.238433 0.0115625 -0.0302089
1.82992e-20 0.238124 0.016875 -0.0296767
0 -0.238124 0.016875 -0.0295073
1.7585e-20 0.237544 0.02375 -0.02976
6.84864e-21 -0.237544 0.02375 -0.0295304
0 0.238723 0.00181179 -0.0300981
3.85178e-20 -0.238723 0.00181179 -0.0298042
0 -0.237 0.02875 -0.0295057
-4.1359e-25 0.237 0.02875 -0.0297044
2.71051e-20 -0.238432 0.0121875 -0.0297917
-5.42101e-20 0.238433 0.0121875 -0.030122
0 0.238737 0.00245721 -0.030103
9.87602e-21 -0.238737 0.00245721 -0.0298025
2.71051e-20 0.237834 0.0209375 -0.0297217
5.42101e-20 -0.237834 0.0209375 -0.0295162
-2.71051e-20 0.237272 0.0265625 -0.0297492
-5.42101e-20 -0.237272 0.0265625 -0.0295284
0 0.238742 0.00309995 -0.0301055
3.97351e-20 -0.238742 0.00309995 -0.0298073
0 -0.238742 0.00338081 -0.0298113
3.41861e-21 0.238124 0.0175 -0.0296763
0 -0.238124 0.0175 -0.0295068
-2.58494e-26 0.238742 0.00373666 -0.0301045
0 -0.238742 0.00373666 -0.0298165
0 -0.238432 0.0128125 -0.0297087
-2.71051e-20 0.238433 0.0128125 -0.030022
0 -0.238741 0.0043684 -0.029827
0 0.238741 0.0043684 -0.0301009
-5.59836e-21 0.237544 0.024375 -0.0297646
4.69839e-22 -0.237544 0.024375 -0.0295333
0 -0.238741 0.00499695 -0.02986
6.46235e-27 0.238741 0.00499695 -0.0301042
6.46235e-27 -0.238124 0.0179648 -0.0295084
2.58494e-26 -0.238741 0.00562368 -0.0299281
0 0.238741 0.00562368 -0.0301349
0 0.237834 0.0215625 -0.029736
0 -0.237834 0.0215625 -0.0295223
2.71051e-20 -0.238432 0.0134375 -0.029645
0 0.238433 0.0134375 -0.0299276
2.62596e-21 0.238124 0.018125 -0.0296818
0 -0.238124 0.018125 -0.0295089
0 -0.237 0.029375 -0.0294936
-2.06795e-25 0.237 0.029375 -0.0296846
0 -0.238741 0.00624945 -0.0300149
6.46235e-27 0.238741 0.00624945 -0.0302067
2.71051e-20 -0.237272 0.0271875 -0.0295245
0 0.237272 0.0271875 -0.0297403
2.58494e-26 -0.238741 0.00687478 -0.0300911
1.29247e-26 0.238741 0.00687478 -0.030301
-2.71051e-20 -0.238433 0.0140625 -0.0295978
-2.71051e-20 0.238433 0.0140625 -0.0298409
-1.25851e-20 0.237544 0.025 -0.0297665
-2.71824e-20 -0.237544 0.025 -0.0295352
0 -0.238741 0.00749992 -0.030136
6.46235e-27 0.238741 0.00749992 -0.0303846
1.35859e-21 -0.238124 0.01875 -0.0295125
7.84839e-22 0.238124 0.01875 -0.0296912
8.07794e-28 0.238701 0.00874999 -0.0304466
-2.71051e-20 0.237834 0.0221875 -0.0297465
0 -0.237834 0.0221875 -0.0295259
0 -0.238741 0.00812497 -0.0301497
3.23117e-27 0.238741 0.00812497 -0.0304374
2.71051e-20 0.238432 0.0146875 -0.02978
-2.71051e-20 -0.238432 0.0146875 -0.0295636
0 -0.237 0.03 -0.0294785
-2.06795e-25 0.237 0.03 -0.0296615
0 0.237272 0.0278125 -0.0297287
-2.71051e-20 -0.237272 0.0278125 -0.0295192
-1.29247e-26 -0.238741 0.00874999 -0.0301361
-8.07794e-28 0.238741 0.00874999 -0.030454
-8.07794e-28 0.238741 0.00894905 -0.0304495
-1.83295e-20 -0.238124 0.019375 -0.0295167
3.09077e-20 0.238124 0.019375 -0.0297029
0 0.237 0.0301963 -0.0296534
3.19958e-20 0.237544 0.025625 -0.0297658
1.36733e-20 -0.237544 0.025625 -0.029536
2.71051e-20 -0.238432 0.0153125 -0.0295448
0 0.238433 0.0153125 -0.0297386
0 -0.238741 0.009375 -0.0301038
0 0.238741 0.009375 -0.0304398
0 0.237834 0.0228125 -0.0297578
0 -0.237834 0.0228125 -0.0295311
1.29247e-26 -0.238918 0.00373619 -0.0298115
1.29247e-26 -0.238741 0.01 -0.0300588
2.73027e-20 0.238741 0.01 -0.0303999
0 0.238956 0.000288814 -0.0301077
2.71051e-20 -0.238956 0.000288814 -0.0298133
-1.91757e-20 -0.238124 0.02 -0.0295213
1.43873e-20 0.238124 0.02 -0.029716
-2.71051e-20 -0.238432 0.0159375 -0.0295295
-2.71051e-20 0.238433 0.0159375 -0.0297102
-2.71051e-20 0.237272 0.0284375 -0.0297135
5.42101e-20 -0.237272 0.0284375 -0.029511
8.27181e-25 -0.237 0.030625 -0.0294604
0 0.237 0.030625 -0.0296357
0 -0.238741 0.010625 -0.030003
3.2973e-20 0.238741 0.010625 -0.0303427
0 0.237834 0.0234375 -0.029765
2.71051e-20 -0.237834 0.0234375 -0.029534
-7.16545e-21 -0.237544 0.02625 -0.0295354
-8.29662e-21 0.237544 0.02625 -0.0297622
-5.42101e-20 -0.239 0.000876671 -0.0298068
0 0.239 0.000876671 -0.030097
5.16988e-26 -0.238741 0.01125 -0.0299358
0 0.238741 0.01125 -0.0302735
-2.71051e-20 0.238433 0.0165625 -0.0296983
0 -0.238433 0.0165625 -0.0295241
6.46235e-27 0.238741 0.0113017 -0.0302668
-5.27028e-21 -0.238124 0.020625 -0.0295261
4.86643e-21 0.238124 0.020625 -0.0297296
2.71051e-20 -0.239031 0.00149329 -0.0298086
0 0.239031 0.00149329 -0.0301015
0 -0.238741 0.011875 -0.0298584
-6.46235e-27 0.238741 0.011875 -0.0301931
0 0.237272 0.0290625 -0.0296953
-2.71051e-20 -0.237272 0.0290625 -0.0295004
0 0.237834 0.0240625 -0.0297721
5.42101e-20 -0.237834 0.0240625 -0.0295381
0 0.238432 0.0171875 -0.0296905
0 -0.238432 0.0171875 -0.0295191
-4.1359e-25 -0.237 0.03125 -0.0294391
4.1359e-25 0.237 0.03125 -0.0296074
6.46855e-21 -0.237544 0.026875 -0.0295332
1.73017e-20 0.237544 0.026875 -0.0297558
-2.71051e-20 0.239054 0.0021315 -0.030108
5.42101e-20 -0.239054 0.0021315 -0.0298027
0 -0.238741 0.0125 -0.0297742
2.58494e-26 0.238741 0.0125 -0.0301003
-1.97166e-20 -0.238124 0.02125 -0.0295308
2.83612e-20 0.238124 0.02125 -0.0297428
-2.71051e-20 -0.239065 0.00277515 -0.0297985
2.71051e-20 0.239065 0.00277515 -0.0301126
0 0.238612 0.015 -0.0297679
0 0.239066 0.00341637 -0.0301098
0 -0.239066 0.00341637 -0.0298056
2.71051e-20 -0.238432 0.0178125 -0.0295216
-5.42101e-20 0.238433 0.0178125 -0.0296955
-2.71051e-20 0.239063 0.00405176 -0.0301056
2.71051e-20 -0.239063 0.00405176 -0.0298172
0 0.238741 0.013125 -0.0300021
0 -0.238741 0.013125 -0.0296958
0 0.239062 0.00468248 -0.0301021
0 -0.239062 0.00468248 -0.0298418
0 0.237834 0.0246875 -0.029775
5.42101e-20 -0.237834 0.0246875 -0.02954
0 0.239061 0.00531037 -0.0301236
2.71051e-20 -0.239061 0.00531037 -0.0299245
2.71051e-20 0.237272 0.0296875 -0.0296738
-5.42101e-20 -0.237272 0.0296875 -0.0294868
-3.00147e-20 0.238124 0.021875 -0.0297551
2.09472e-20 -0.238124 0.021875 -0.0295353
-9.72206e-21 -0.237544 0.0275 -0.0295291
-6.70968e-21 0.237544 0.0275 -0.0297462
0 -0.237 0.031875 -0.0294151
-4.1359e-25 0.237 0.031875 -0.0295773
2.71051e-20 0.23906 0.0059367 -0.0301988
0 -0.23906 0.0059367 -0.0300306
0 0.238741 0.01375 -0.0299087
-2.58494e-26 -0.238741 0.01375 -0.029637
2.71051e-20 -0.238432 0.0184375 -0.0295223
0 0.238433 0.0184375 -0.0297001
2.71051e-20 0.23906 0.00656221 -0.030321
0 -0.23906 0.00656221 -0.03013
5.42101e-20 -0.23906 0.0071874 -0.030181
5.42101e-20 0.23906 0.0071874 -0.0304237
1.29247e-26 0.238741 0.014375 -0.0298301
0 -0.238741 0.014375 -0.0295952
2.71051e-20 0.237834 0.0253125 -0.0297768
-2.71051e-20 -0.237834 0.0253125 -0.0295423
-1.03398e-25 0.238124 0.0225 -0.0297659
1.67563e-20 -0.238124 0.0225 -0.0295393
2.71051e-20 0.23906 0.00781246 -0.0304878
0 -0.23906 0.00781246 -0.0301934
-2.71051e-20 0.238432 0.0190625 -0.0297133
2.71051e-20 -0.238432 0.0190625 -0.0295281
0 0.237272 0.0303125 -0.0296493
-2.71051e-20 -0.237272 0.0303125 -0.0294702
2.42232e-20 -0.237544 0.028125 -0.0295228
2.67252e-21 0.237544 0.028125 -0.0297334
2.71051e-20 0.23906 0.00843749 -0.0305056
-5.42101e-20 -0.23906 0.00843749 -0.0301799
0 -0.238741 0.015 -0.0295696
1.61559e-27 0.238741 0.015 -0.0297759
-4.1359e-25 0.237 0.0325 -0.0295456
-4.1359e-25 -0.237 0.0325 -0.0293886
0 0.238741 0.0151474 -0.0297674
1.65436e-24 0.239232 1.14178e-08 -0.0301106
0 -0.239232 7.9948e-09 -0.0298155
2.71051e-20 0.23906 0.0090625 -0.030491
2.71051e-20 -0.23906 0.0090625 -0.0301455
0 0.238432 0.0196875 -0.0297227
2.71051e-20 -0.238432 0.0196875 -0.0295302
5.42101e-20 -0.237834 0.0259375 -0.0295422
2.71051e-20 0.237834 0.0259375 -0.0297747
1.02289e-20 0.238124 0.023125 -0.0297751
-1.3876e-20 -0.238124 0.023125 -0.029543
-6.46235e-27 -0.239205 0.00436813 -0.0298287
1.29247e-26 -0.238741 0.015625 -0.0295533
-6.46235e-27 0.238741 0.015625 -0.0297397
8.13152e-20 0.239061 0.0096875 -0.0304566
-5.42101e-20 -0.239061 0.0096875 -0.0301065
2.06795e-25 -0.237 0.0328488 -0.0293729
-1.10631e-20 -0.237544 0.02875 -0.029514
0 0.237544 0.02875 -0.0297174
0 0.237272 0.0309375 -0.0296222
0 -0.237272 0.0309375 -0.0294505
2.71051e-20 -0.23906 0.0103125 -0.0300552
5.42101e-20 0.239061 0.0103125 -0.0304004
1.86662e-20 0.239291 0.000573876 -0.0301067
2.59387e-20 -0.239291 0.00057387 -0.029813
-1.29247e-26 -0.238741 0.01625 -0.0295435
-4.50141e-21 0.238741 0.01625 -0.0297203
-2.71051e-20 0.238432 0.0203125 -0.0297387
2.71051e-20 -0.238432 0.0203125 -0.029537
-4.1359e-25 0.237 0.033125 -0.0295134
0 -0.237 0.033125 -0.0293606
-2.11032e-20 0.238124 0.02375 -0.0297822
3.53232e-20 -0.238124 0.02375 -0.0295461
-2.71051e-20 0.23906 0.0109375 -0.0303381
-2.71051e-20 -0.239061 0.0109375 -0.0299974
-2.71051e-20 0.237834 0.0265625 -0.0297708
-5.42101e-20 -0.237834 0.0265625 -0.0295417
1.29247e-26 -0.238741 0.016875 -0.0295384
2.32803e-22 0.238741 0.016875 -0.0297109
-2.58494e-26 0.23745 0.03 -0.0296733
-3.55291e-20 0.239335 0.00117391 -0.0301079
-1.69183e-20 -0.239335 0.00117392 -0.0298122
0 0.239061 0.0115625 -0.030262
0 -0.239061 0.0115625 -0.0299244
0 0.237544 0.029375 -0.0296982
-1.9387e-26 0.237544 0.0293311 -0.0296996
2.71051e-20 0.238432 0.0209375 -0.0297493
-2.71051e-20 -0.238432 0.0209375 -0.0295393
2.66311e-21 -0.237544 0.029375 -0.0295026
0 0.237272 0.0315625 -0.0295927
0 -0.237272 0.0315625 -0.0294277
5.50034e-21 0.238124 0.024375 -0.0297873
-3.27998e-21 -0.238124 0.024375 -0.0295487
-2.71051e-20 0.23906 0.0121875 -0.03018
5.42101e-20 -0.23906 0.0121875 -0.029845
8.27181e-25 0.239367 0.00180576 -0.0301111
1.08783e-20 -0.239367 0.00180576 -0.0298037
-6.46235e-27 -0.238741 0.0175 -0.0295377
-6.84691e-21 0.238741 0.0175 -0.0297104
0 0.237834 0.0271875 -0.029763
2.71051e-20 -0.237834 0.0271875 -0.0295385
4.1359e-25 0.237 0.03375 -0.0294823
0 -0.237 0.03375 -0.0293318
0 0.239388 0.00244888 -0.0301136
-8.64383e-21 -0.239388 0.00244888 -0.0297909
2.71051e-20 -0.23906 0.0128125 -0.029752
0 0.239061 0.0128125 -0.030078
0 0.238432 0.0215625 -0.0297646
5.42101e-20 -0.238432 0.0215625 -0.0295457
2.06795e-25 0.239391 0.00309523 -0.0301125
-2.12591e-20 -0.239391 0.00309522 -0.0297874
1.61559e-27 -0.238741 0.0179102 -0.029539
-1.03398e-25 0.239387 0.00373495 -0.0301068
-2.09157e-20 -0.239387 0.00373495 -0.0297982
-5.16988e-25 -0.237 0.0339359 -0.0293233
0 0.239383 0.00436802 -0.0301034
-2.47394e-20 -0.239383 0.00436802 -0.0298294
-1.2221e-20 0.238741 0.018125 -0.0297159
3.23117e-27 -0.238741 0.018125 -0.0295397
-3.23117e-27 -0.239382 0.00482427 -0.0298846
-7.98477e-21 -0.237544 0.03 -0.0294881
0 0.237544 0.03 -0.0296758
1.59524e-20 0.238124 0.025 -0.0297897
2.25361e-20 -0.238124 0.025 -0.0295503
0 0.239381 0.00499721 -0.0301251
0 -0.239381 0.00499721 -0.0299055
0 0.23906 0.0134375 -0.0299815
0 -0.239061 0.0134375 -0.029678
-2.71051e-20 -0.237272 0.0321875 -0.0294024
-2.71051e-20 0.237272 0.0321875 -0.0295619
-6.46235e-27 -0.23938 0.00562396 -0.030026
-6.46235e-27 0.23938 0.00562396 -0.0302006
-2.71051e-20 0.237834 0.0278125 -0.0297529
2.71051e-20 -0.237834 0.0278125 -0.0295342
0 -0.23938 0.0062497 -0.0301338
0 0.23938 0.0062497 -0.0303173
0 0.238432 0.0221875 -0.0297737
0 -0.238432 0.0221875 -0.0295477
-4.03897e-28 0.239281 0.009375 -0.0304983
2.01948e-28 0.239206 0.01125 -0.0303165
2.71051e-20 0.23906 0.0140625 -0.0298852
0 -0.239061 0.0140625 -0.0296278
-1.22568e-20 -0.238741 0.01875 -0.0295436
-9.70787e-22 0.238741 0.01875 -0.0297257
2.44179e-20 -0.23938 0.00687491 -0.0301978
0 0.23938 0.00687491 -0.0304339
0 0.237 0.034375 -0.0294546
0 -0.237 0.034375 -0.0293034
0 -0.23938 0.00749998 -0.0302215
0 0.23938 0.00749998 -0.0305111
-1.04828e-20 -0.238124 0.025625 -0.0295512
-2.45052e-22 0.238124 0.025625 -0.0297898
3.23117e-27 -0.239453 0.00499651 -0.0299102
-2.40463e-20 -0.237544 0.030625 -0.0294707
0 0.237544 0.030625 -0.0296504
2.71051e-20 -0.23906 0.0146875 -0.0295918
-5.42101e-20 0.239061 0.0146875 -0.0298149
0 -0.23938 0.00812499 -0.0302151
0 0.23938 0.00812499 -0.0305397
-2.71051e-20 0.238432 0.0228125 -0.029786
0 -0.238433 0.0228125 -0.029553
9.86219e-21 -0.238741 0.019375 -0.0295477
1.84262e-20 0.238741 0.019375 -0.0297373
0 0.237834 0.0284375 -0.029739
-2.71051e-20 -0.237834 0.0284375 -0.029527
-2.71051e-20 -0.237272 0.0328125 -0.0293748
0 0.237272 0.0328125 -0.0295294
-3.23117e-27 -0.23938 0.00875 -0.0301897
0 0.23938 0.00875 -0.0305366
0 0.239061 0.0153125 -0.0297704
0 -0.239061 0.0153125 -0.0295785
0 -0.23938 0.009375 -0.0301503
1.24579e-20 0.23938 0.009375 -0.0305089
-1.80946e-25 -0.237 0.0349567 -0.0292792
1.89928e-20 -0.238124 0.02625 -0.0295507