# U  POINT_DATA 5809
# x  y  z  U_x  U_y  U_z
-1.57772e-30 -0.237 8.31749e-08 1.17806e-14 -4.43956e-16 -8.18572e-16
-1.09046e-25 0.237 8.64572e-08 1.52256e-14 1.35079e-15 -2.69572e-16
0 0.237 0.000550924 8.94946e-09 2.97724e-10 -1.63606e-09
0 -0.237 0.000550925 7.69278e-09 -2.36513e-10 -1.10043e-09
0 0.237 0.0011232 8.39445e-08 -2.55431e-10 -1.15969e-08
0 -0.237 0.0011232 9.48133e-08 -1.17358e-10 -1.14181e-08
0 0.237 0.00172954 1.89382e-08 -9.7833e-10 1.84199e-09
0 -0.237 0.00172954 2.22063e-08 1.24867e-09 1.11375e-09
0 -0.237 0.00236831 4.98487e-08 5.91548e-09 1.93763e-08
0 0.237 0.00236831 3.61464e-08 -3.4605e-09 1.7735e-08
-8.27181e-25 -0.237 0.00302578 3.75929e-08 4.11506e-09 2.88915e-08
0 0.237 0.00302578 2.40098e-08 -2.47762e-09 2.05072e-08
0 0.237 0.00361376 0 0 0
0 -0.237 0.00366636 0 0 0
0 0.237 0.00368597 4.02806e-09 -2.37843e-10 3.38808e-09
0 -0.237 0.00368597 1.2759e-09 5.34509e-11 1.03477e-09
-1.03398e-25 0.237 0.00384697 0 0 0
0 0.237 0.00433887 1.1725e-08 -8.68786e-10 1.20033e-08
1.03398e-25 -0.237 0.00433887 4.3842e-09 2.28332e-10 3.73726e-09
-4.1359e-25 0.237 0.00498192 1.2123e-08 -1.24958e-09 1.16955e-08
0 -0.237 0.00498192 4.82073e-09 7.17942e-10 4.51124e-09
0 0.237 0.0056169 1.34478e-08 -2.35179e-09 1.32317e-08
0 -0.237 0.0056169 3.23835e-09 1.09217e-09 3.31919e-09
-2.06795e-25 0.237 0.0060091 0 0 0
2.06795e-25 -0.237 0.00624674 -1.41396e-09 -2.42737e-10 -3.84663e-09
0 0.237 0.00624674 5.93356e-09 -1.41553e-09 4.70689e-09
-2.06795e-25 -0.237 0.00687382 -1.05124e-08 -3.64158e-09 -1.91004e-08
0 0.237 0.00687382 2.44249e-09 -4.55329e-11 -1.89578e-09
3.87741e-26 -0.237078 0.00368896 0.000675871 0.000125062 0.000582981
-4.1359e-25 0.237 0.00749962 -6.85211e-09 4.30895e-09 -1.95171e-08
0 -0.237 0.00749962 -2.48015e-08 -7.17391e-09 -4.00669e-08
0 -0.237 0.00812489 -4.36326e-08 -9.55623e-09 -6.44247e-08
-4.1359e-25 0.237 0.0081249 -2.39782e-08 9.79112e-09 -4.89703e-08
-4.1359e-25 0.237 0.00874998 -5.06069e-08 1.43479e-08 -9.01287e-08
0 -0.237 0.00874998 -6.13603e-08 -9.47373e-09 -8.3337e-08
0 0.237 0.009375 -7.96766e-08 1.51796e-08 -1.28768e-07
2.06795e-25 -0.237 0.009375 -6.16509e-08 -6.27998e-09 -7.6953e-08
0 -0.237 0.0096071 0 0 0
-4.1359e-25 0.237 0.01 -1.07627e-07 1.29097e-08 -1.58912e-07
-4.1359e-25 -0.237 0.01 -1.35789e-07 -7.36856e-09 -1.44059e-07
4.1359e-25 -0.237 0.010625 -2.03993e-07 -5.40821e-09 -1.95716e-07
8.27181e-25 0.237 0.010625 -1.38213e-07 9.34955e-09 -1.85446e-07
0 0.237223 0.00369457 0.00124445 -0.000458362 0.00200951
-2.71051e-20 0.237263 0.000279273 0.000882641 8.12522e-05 -2.42008e-05
2.71051e-20 -0.237263 0.000279185 0.00108861 -5.73791e-05 -4.75017e-05
0 -0.237 0.01125 -2.51891e-07 -1.75409e-09 -2.1477e-07
0 0.237 0.01125 -1.51357e-07 4.6827e-09 -1.82511e-07
0 0.237267 0.000847159 0.00351524 1.02054e-05 -0.000737649
0 -0.237267 0.000847159 0.00396875 -5.46378e-05 -0.00060673
0 -0.237269 0.00144351 0.00445675 9.20108e-05 -0.00025527
0 0.237269 0.00144351 0.00364095 -0.000153401 -0.000110823
-2.71051e-20 -0.23727 0.00206936 0.00437067 0.000382617 0.000787759
0 0.23727 0.00206936 0.00332417 -0.000304559 0.00104145
2.71051e-20 -0.23727 0.00271568 0.00431125 0.000541114 0.00238849
0 0.23727 0.00271568 0.00323672 -0.000322928 0.00227201
-2.71051e-20 0.23727 0.00336939 0.00345631 -0.000274865 0.00316421
0 -0.23727 0.00336939 0.00433534 0.000304541 0.00368316
0 -0.237 0.011875 -2.68077e-07 1.37345e-09 -2.00453e-07
0 0.237 0.011875 -1.26011e-07 8.68409e-10 -1.3482e-07
5.42101e-20 0.237271 0.00402047 0.00384523 -0.00023862 0.00361642
-2.71051e-20 -0.237271 0.00402047 0.0042299 8.52756e-05 0.0038978
0 0.237 0.0121518 0 0 0
-2.71051e-20 0.237271 0.00466435 0.00422534 -0.000299652 0.00368635
5.42101e-20 -0.237271 0.00466435 0.00369022 0.000296247 0.0034514
0 -0.237 0.0125 -2.41408e-07 2.79881e-09 -1.56423e-07
-4.1359e-25 0.237 0.0125 -1.80852e-07 -1.52725e-09 -1.57279e-07
2.71051e-20 0.237272 0.00530117 0.00425899 -0.000536508 0.00361883
-2.71051e-20 -0.237272 0.00530117 0.00226617 0.000586748 0.0025978
2.58494e-26 -0.237306 0.00434507 0.00228877 5.34923e-05 0.00172939
0 0.237272 0.0059324 0.00328582 -0.000740684 0.00309345
0 -0.237272 0.0059324 0.000457796 0.000423342 0.000703232
2.71051e-20 0.237272 0.00656043 0.00158477 -0.000540797 0.0013306
-2.71051e-20 -0.237272 0.00656043 -0.00156498 -0.000470473 -0.0028274
-4.1359e-25 0.237 0.013125 -2.39066e-07 -3.87488e-09 -1.79452e-07
0 -0.237 0.013125 -1.97345e-07 2.64685e-09 -1.10004e-07
2.71051e-20 0.237272 0.00718674 -0.000397975 0.000443258 -0.00217922
-5.42101e-20 -0.237272 0.00718674 -0.00479585 -0.00156952 -0.00790105
0 -0.237 0.0134875 0 0 0
-4.1359e-25 0.237 0.01375 -2.48305e-07 -4.748e-09 -1.59148e-07
2.06795e-25 -0.237 0.01375 -1.43285e-07 1.90115e-09 -7.29885e-08
0 0.237272 0.00781225 -0.00345383 0.00170149 -0.00747182
0 -0.237272 0.00781225 -0.00908746 -0.00231707 -0.0135647
0 -0.237272 0.00843743 -0.0137572 -0.00252069 -0.0188773
0 0.237272 0.00843743 -0.00748888 0.00254426 -0.013549
0 -0.237371 0.00498524 0.000972528 -0.00049489 0.000236839
0 0.237 0.014375 -1.84753e-07 -3.40937e-09 -1.01125e-07
0 -0.237 0.014375 -1.42762e-07 1.43401e-09 -6.26305e-08
-2.71051e-20 0.237272 0.00906248 -0.0118326 0.00273566 -0.019288
2.71051e-20 -0.237272 0.00906248 -0.0183757 -0.00228125 -0.0232438
0 0.237 0.0146945 0 0 0
-2.71051e-20 -0.237272 0.0096875 -0.0227558 -0.00176251 -0.0263824
-2.71051e-20 0.237272 0.0096875 -0.0160728 0.00240732 -0.0239866
4.1359e-25 0.237 0.015 -1.81376e-07 -3.01652e-09 -8.97432e-08
2.06795e-25 -0.237 0.015 -1.35943e-07 8.26558e-10 -5.17108e-08
0 -0.237427 0.0056183 -0.00215359 -0.00155605 -0.00323749
-2.71051e-20 -0.237272 0.0103125 -0.0268035 -0.00111109 -0.0281813
-2.71051e-20 0.237272 0.0103125 -0.0200527 0.00178024 -0.0273316
0 0.237 0.015625 -2.54386e-07 -3.29756e-09 -1.07618e-07
0 -0.237 0.015625 -1.32826e-07 3.05141e-10 -4.41603e-08
0 0.23752 8.32931e-08 3.14236e-09 2.17115e-10 -2.94015e-10
0 -0.237521 8.4701e-08 6.94736e-09 -3.18284e-10 -4.40285e-10
-1.03398e-25 0.237523 0.00017771 0.000928236 -1.85007e-05 -0.000119169
2.71051e-20 -0.237272 0.0109375 -0.0304296 -0.000491243 -0.0286072
-2.71051e-20 0.237272 0.0109375 -0.0237227 0.00106709 -0.0292516
0 -0.237529 0.000533903 0.00331682 2.94724e-05 -0.000297613
1.30587e-20 0.237529 0.000562809 0.00294067 -5.86103e-05 -0.000377529
0 -0.237529 0.000562807 0.00349642 3.10681e-05 -0.000313727
0 0.237533 0.00115011 0.00366386 -0.000663323 1.53868e-05
0 -0.237533 0.00115011 0.00487136 0.000558385 -0.000175414
0 0.237538 0.00176909 0.00275369 -0.00127173 0.0015049
0 -0.237538 0.00176909 0.00454468 0.00132264 0.000815387
0 -0.237469 0.00624719 -0.00622871 -0.00288823 -0.0084758
4.1359e-25 0.23754 0.0024097 0.00205929 -0.00150326 0.00315349
-1.63962e-20 -0.23754 0.0024097 0.00424949 0.00187692 0.00226412
2.71051e-20 -0.237272 0.0115625 -0.0336095 2.70427e-07 -0.0278906
0 0.237272 0.0115625 -0.0270652 0.000425031 -0.0297744
0 0.237 0.01625 -2.6025e-07 -2.32169e-09 -9.38739e-08
0 -0.237 0.01625 -1.36828e-07 -1.53923e-10 -4.00763e-08
0 -0.237541 0.00305869 0.00446626 0.00169538 0.00361998
2.06795e-25 0.237541 0.00305869 0.00219146 -0.0013815 0.00436074
-1.29247e-26 -0.23756 0.000563223 0.00352271 5.53674e-05 -0.000303635
0 -0.237542 0.00370687 0.00472069 0.00087351 0.00407189
0 0.237542 0.00370687 0.00302367 -0.00111369 0.00488255
-5.16988e-26 -0.237543 0.00434987 0.0040589 9.48633e-05 0.00306691
0 0.237543 0.00434987 0.00406872 -0.000819734 0.00468319
0 -0.237272 0.0121875 -0.0363129 0.000352527 -0.0262352
-8.13152e-20 0.237272 0.0121875 -0.0301099 -7.38413e-05 -0.0291843
-1.33882e-20 0.237543 0.00498678 0.00445999 -0.000476828 0.00366708
0 -0.237543 0.00498678 0.00142333 -0.000724288 0.000346621
0 -0.237499 0.0068739 -0.0109787 -0.00393965 -0.0146593
4.1359e-25 0.237 0.016875 -2.29029e-07 -1.15684e-09 -7.07337e-08
0 -0.237 0.016875 -1.48811e-07 -5.8728e-10 -3.86441e-08
6.46235e-27 0.237526 0.00624724 -0.00075381 0.00173078 -0.00302204
-9.19024e-21 0.237544 0.00561869 0.00285182 0.000319808 0.00124709
0 -0.237544 0.00561869 -0.00274529 -0.00198357 -0.004127
-2.71051e-20 -0.237272 0.0128125 -0.0384494 0.000543096 -0.0239263
0 0.237272 0.0128125 -0.0328645 -0.000450709 -0.0276626
2.00312e-20 -0.237544 0.00624726 -0.00722421 -0.00334984 -0.00983045
6.46235e-27 0.237544 0.00624726 -0.000779988 0.00179089 -0.00312698
4.1359e-25 0.237 0.0172755 0 0 0
-6.46235e-27 0.237544 0.00645559 -0.00221007 0.00233021 -0.00507766
-1.29247e-26 -0.237524 0.00749961 -0.016459 -0.00435038 -0.0210211
-2.58494e-26 -0.237544 0.00687391 -0.0119775 -0.00429807 -0.015993
0 0.237544 0.00687391 -0.00508162 0.00341314 -0.00899454
0 -0.237 0.0175 -1.76575e-07 -1.09616e-09 -4.10101e-08
-2.06795e-25 0.237 0.0175 -1.22585e-07 -8.85503e-11 -2.97506e-08
2.71051e-20 -0.237272 0.0134375 -0.0399815 0.000559085 -0.0213378
0 0.237272 0.0134375 -0.0352635 -0.000676701 -0.0254506
-2.58494e-26 0.237544 0.00749961 -0.00962519 0.00455427 -0.0154641
0 -0.237544 0.00749961 -0.0170962 -0.00451878 -0.0218349
1.03398e-25 0.237 0.0177366 0 0 0
0 -0.237544 0.00796935 -0.0209422 -0.0041432 -0.0255023
0 -0.237497 0.00937499 -0.0288547 -0.00167804 -0.0298852
1.18271e-21 0.237544 0.00812487 -0.0144613 0.00486707 -0.0217069
0 -0.237544 0.00812487 -0.0222156 -0.00401885 -0.0267165
5.42101e-20 -0.237272 0.0140625 -0.0409933 0.000467919 -0.0187921
0 0.237272 0.0140625 -0.0372621 -0.000756304 -0.0228513
4.1359e-25 -0.237 0.018125 -2.16988e-07 -1.77051e-09 -4.49664e-08
0 0.237 0.018125 -2.01364e-07 4.13745e-10 -4.59855e-08
1.93025e-20 0.237544 0.00874996 -0.0192524 0.00433535 -0.0269774
1.88007e-20 -0.237544 0.00874996 -0.0270541 -0.00303307 -0.0303452
0 -0.237544 0.00896088 -0.0285784 -0.00262912 -0.0311394
0 -0.237272 0.0146875 -0.0415937 0.000324125 -0.0164627
-2.71051e-20 0.237272 0.0146875 -0.0388565 -0.000696837 -0.0201832
-2.12714e-20 0.237544 0.00937499 -0.0237159 0.00323162 -0.0308893
-2.58494e-26 -0.237544 0.00937499 -0.0315711 -0.00183602 -0.0326986
0 -0.237 0.01875 -2.80208e-07 -2.76283e-09 -5.17239e-08
-4.1359e-25 0.237 0.01875 -2.42513e-07 1.16218e-09 -4.82776e-08
-2.14989e-20 0.237544 0.01 -0.0278253 0.00189306 -0.0333951
0 -0.237544 0.01 -0.0358517 -0.000621254 -0.0338862
6.46235e-27 -0.23762 0.00812488 -0.0234945 -0.00417493 -0.0278403
0 -0.237272 0.0153125 -0.0419245 0.000156894 -0.0144441
-2.71051e-20 0.237272 0.0153125 -0.0401347 -0.000576331 -0.0176754
0 -0.237544 0.010625 -0.0400011 0.000484438 -0.0340468
4.63769e-21 0.237544 0.010625 -0.0316946 0.000575328 -0.0346404
0 -0.237 0.019375 -3.51169e-07 -3.98969e-09 -5.73708e-08
4.1359e-25 0.237 0.019375 -2.55884e-07 1.87617e-09 -4.42437e-08
-2.71051e-20 0.237799 0.000284465 0.00286623 0.00026403 -0.000315223
2.71051e-20 -0.237799 0.000284553 0.00315273 -0.000211207 -0.000194432
-2.71051e-20 -0.237272 0.0159375 -0.0421197 1.72328e-05 -0.012727
-2.71051e-20 0.237272 0.0159375 -0.0411523 -0.000434975 -0.0154003
0 -0.237544 0.01125 -0.0440144 0.00140192 -0.0332767
4.93062e-21 0.237544 0.01125 -0.0354745 -0.000582432 -0.0348341
-2.71051e-20 0.237811 0.000863452 0.00455547 -0.000610643 -0.000434211
-5.42101e-20 -0.237811 0.000863452 0.00586069 0.000463775 -0.000409122
0 -0.23782 0.00147122 0.00521275 0.00178963 0.000603897
0 0.23782 0.00147122 0.00290765 -0.00195968 0.00140563
2.71051e-20 -0.237826 0.00210431 0.00411864 0.00309847 0.00216974
0 0.237826 0.00210431 0.00107209 -0.00272871 0.00376584
2.06795e-25 -0.237544 0.011875 -0.047757 0.0020837 -0.0316542
0 0.237544 0.011875 -0.0392271 -0.00153203 -0.0341227
0 -0.237 0.02 -3.85704e-07 -4.92039e-09 -5.52274e-08
0 0.237 0.02 -2.50034e-07 2.46576e-09 -3.75738e-08
0 0.237544 0.0119635 -0.0397468 -0.00163591 -0.033907
-5.42101e-20 0.237829 0.00274869 0.000555579 -0.00269453 0.00559573
0 -0.237829 0.00274869 0.00419727 0.00353735 0.00373174
-5.42101e-20 -0.237272 0.0165625 -0.0422205 -0.000121026 -0.0112732
-2.71051e-20 0.237272 0.0165625 -0.0419556 -0.000271313 -0.0133967
0 -0.23783 0.00339421 0.00503704 0.00241907 0.00468083
5.42101e-20 0.23783 0.00339421 0.00149737 -0.00225593 0.00644893
0 0.237831 0.00403604 0.00329286 -0.00170083 0.00632844
2.71051e-20 -0.237831 0.00403604 0.00529497 0.000687467 0.0040229
0 -0.237544 0.0125 -0.0510356 0.00247708 -0.029336
2.06795e-25 0.237544 0.0125 -0.0428989 -0.00226597 -0.0325985
0 0.237832 0.00467279 0.0049177 -0.00104969 0.00512049
0 -0.237832 0.00467279 0.00301549 -0.000701457 0.000866975
0 -0.237485 0.01375 -0.049529 0.00207792 -0.0211905
-2.71051e-20 0.237833 0.00530504 0.00444319 -1.92778e-05 0.00223555
-2.71051e-20 -0.237833 0.00530504 -0.0033369 -0.00312279 -0.00562593
-6.46235e-27 0.237793 0.00687412 -0.0094124 0.00636246 -0.0149345
-2.71051e-20 -0.237272 0.0171875 -0.0423219 -0.000216811 -0.0100321
0 0.237272 0.0171875 -0.0425975 -0.000125995 -0.0116451
0 -0.237 0.020625 -3.60642e-07 -5.05148e-09 -4.4625e-08
0 0.237 0.020625 -2.51689e-07 3.10618e-09 -3.27821e-08
0 0.237544 0.013125 -0.0463676 -0.00275129 -0.030392
0 -0.237544 0.013125 -0.0536583 0.00254095 -0.0265973
-5.42101e-20 0.237833 0.00593404 -0.000614112 0.00261008 -0.00403334
0 -0.237833 0.00593404 -0.0105038 -0.00590403 -0.0143736
2.71051e-20 0.237834 0.00656112 -0.0074904 0.00592128 -0.0130877
-5.42101e-20 -0.237834 0.00656112 -0.0175201 -0.00756416 -0.0231307
5.16988e-26 -0.237922 0.00116186 0.00438303 0.00157464 0.000336519
2.71051e-20 -0.237272 0.0178125 -0.0423868 -0.000317089 -0.00894976
2.71051e-20 0.237272 0.0178125 -0.0430877 3.77373e-05 -0.0101394
6.46235e-27 -0.23778 0.00874997 -0.0304485 -0.00289221 -0.0326594
-2.06795e-25 0.237544 0.01375 -0.0494724 -0.00295507 -0.0277099
0 -0.237544 0.01375 -0.0555467 0.00233039 -0.0237652
2.71051e-20 0.237834 0.00718692 -0.0142294 0.00795431 -0.0223531
0 -0.237834 0.00718692 -0.0243483 -0.00770639 -0.0304974
4.1359e-25 -0.237 0.02125 -3.07061e-07 -4.66395e-09 -3.2188e-08
-4.1359e-25 0.237 0.02125 -2.81538e-07 4.13858e-09 -3.15676e-08
0 0.237834 0.00781229 -0.020704 0.00824666 -0.0302451
0 -0.237834 0.00781229 -0.0305282 -0.00657732 -0.0357863
0 -0.237529 0.014375 -0.055214 0.00191467 -0.0205071
0 0.237544 0.014375 -0.0520841 -0.00288155 -0.0248262
-6.46235e-27 -0.237544 0.014375 -0.0567558 0.00196814 -0.0210797
0 0.237834 0.00843743 -0.0265323 0.00707779 -0.0359777
2.71051e-20 -0.237834 0.00843743 -0.0358903 -0.00471977 -0.0390276
0 -0.237513 0.015 -0.0541099 0.0014532 -0.0175946
2.71051e-20 -0.237272 0.0184375 -0.0424498 -0.000383058 -0.00798668
5.42101e-20 0.237272 0.0184375 -0.0435279 0.00015627 -0.00884484
5.16988e-26 0.237544 0.0147612 -0.0533655 -0.00271253 -0.0230817
0 -0.237834 0.00906248 -0.0406018 -0.00263409 -0.0405774
2.71051e-20 0.237834 0.00906248 -0.0315126 0.00504676 -0.0394878
0 0.237 0.021875 -3.27322e-07 5.52344e-09 -3.12534e-08
0 -0.237 0.021875 -2.7843e-07 -4.55155e-09 -2.40264e-08
0 -0.237497 0.015625 -0.0527178 0.00104082 -0.0151361
2.06893e-21 0.237544 0.015 -0.054158 -0.002608 -0.0220028
-1.29247e-26 -0.237544 0.015 -0.0574108 0.00154185 -0.018668
2.71051e-20 -0.237834 0.0096875 -0.0449607 -0.000659308 -0.0408844
2.71051e-20 0.237834 0.0096875 -0.0358088 0.00276131 -0.0411391
2.71051e-20 -0.237272 0.0190625 -0.0424016 -0.000463567 -0.00707336
5.42101e-20 0.237272 0.0190625 -0.0438531 0.000290059 -0.00771301
0 -0.237497 0.01625 -0.0526576 0.000719422 -0.0134346
-2.59562e-20 0.237544 0.015625 -0.055727 -0.00224696 -0.0193833
-2.58494e-26 -0.237544 0.015625 -0.0576614 0.00113842 -0.0165555
5.42101e-20 -0.237834 0.0103125 -0.0492991 0.00107825 -0.0403426
-2.71051e-20 0.237834 0.0103125 -0.0397302 0.000615903 -0.0414112
0 -0.23806 2.90145e-09 2.89543e-08 -1.24558e-09 -1.8914e-09
2.06795e-25 0.23806 -5.5536e-11 6.45608e-09 4.30896e-10 -8.45912e-10
0 0.237 0.0225 -3.63944e-07 6.86015e-09 -2.91601e-08
0 -0.237 0.0225 -3.03964e-07 -5.3378e-09 -2.07229e-08
-2.06795e-25 0.238068 0.000191009 0.000959023 -0.000194521 -4.35289e-05
0 0.237431 0.0175 -0.0460442 -0.000854592 -0.0103471
0 0.238083 0.000570196 0.00286283 -0.000580674 -0.00012994
0 -0.238083 0.000570195 0.00396285 0.000462051 -0.000134735
5.42101e-20 -0.237834 0.0109375 -0.0538958 0.00250969 -0.0392661
2.71051e-20 0.237834 0.0109375 -0.0436376 -0.00119348 -0.0408038
-5.42101e-20 -0.237272 0.0196875 -0.0423369 -0.00051081 -0.00620657
5.42101e-20 0.237272 0.0196875 -0.0441274 0.000389301 -0.00672744
0 0.237981 0.00749973 -0.0178887 0.0087318 -0.0260417
-3.21423e-20 0.237544 0.01625 -0.0568496 -0.00184439 -0.0170204
0 -0.237544 0.01625 -0.057634 0.000787411 -0.0147043
-4.1359e-25 0.238097 0.00116715 0.00165292 -0.00239682 0.0012906
0 -0.238097 0.00116715 0.00416329 0.00203196 0.000566892
0 -0.237516 0.016875 -0.0544834 0.000474479 -0.0123956
0 -0.237834 0.0115625 -0.0585691 0.00365029 -0.03753
-5.42101e-20 0.237834 0.0115625 -0.0478477 -0.0026778 -0.039705
0 -0.238109 0.00179591 0.00276138 0.00367106 0.00190492
2.06795e-25 0.238109 0.00179591 -0.00101483 -0.00378234 0.00379702
0 0.237 0.023125 -4.03875e-07 8.33558e-09 -2.65901e-08
0 -0.237 0.023125 -3.56944e-07 -6.73439e-09 -1.80316e-08
0 0.238117 0.00244027 -0.0023655 -0.0040293 0.00582116
0 -0.238117 0.00244027 0.00246528 0.00448188 0.00298185
5.42101e-20 -0.237272 0.0203125 -0.0421871 -0.000580735 -0.00537308
2.71051e-20 0.237272 0.0203125 -0.0442378 0.000527186 -0.00584157
0 0.23812 0.00308541 -0.00141509 -0.00339908 0.00662132
-5.16988e-26 -0.23812 0.00308541 0.00350118 0.00356533 0.00330604
9.28334e-21 0.237544 0.016875 -0.0576001 -0.00145098 -0.0149152
0 -0.237544 0.016875 -0.0574345 0.000500179 -0.013067
-2.71051e-20 -0.237834 0.0121875 -0.0630127 0.00440269 -0.0351318
-2.71051e-20 0.237834 0.0121875 -0.0522815 -0.00386507 -0.0379999
0 -0.238121 0.00372595 0.00387293 0.000910837 0.00226446
0 0.238121 0.00372595 0.00107303 -0.00234628 0.0061784
0 -0.238122 0.00436151 0.00137228 -0.002328 -0.00125244
2.58494e-26 0.238122 0.00436151 0.00334822 -0.00079348 0.00441012
-6.46235e-27 -0.237544 0.0172731 -0.0572363 0.00035097 -0.0121287
0 -0.238122 0.00499302 -0.00456964 -0.00555189 -0.00760196
0 0.238122 0.00499302 0.00284753 0.00167459 0.000563703
-6.46235e-27 0.237881 0.011875 -0.0442272 -0.003568 -0.0342513
0 -0.237834 0.0128125 -0.0668756 0.00468552 -0.0322088
0 0.237834 0.0128125 -0.0567646 -0.00474885 -0.0357023
0 0.237 0.02375 -4.58017e-07 1.01678e-08 -2.40102e-08
8.27181e-25 -0.237 0.02375 -3.97217e-07 -8.05311e-09 -1.32732e-08
2.39433e-21 0.237544 0.0175 -0.058054 -0.0010775 -0.0130459
-6.46235e-27 -0.237544 0.0175 -0.0571234 0.000265944 -0.0115941
0 -0.238123 0.00562167 -0.011877 -0.00837693 -0.0156634
-1.48616e-20 0.238123 0.00562167 -0.00179562 0.00506758 -0.00597366
-2.71051e-20 -0.237272 0.0209375 -0.0420808 -0.000615155 -0.00457389
-5.42101e-20 0.237272 0.0209375 -0.0443076 0.000621455 -0.00503951
0 -0.238123 0.00624853 -0.0184908 -0.00978404 -0.0234635
0 0.238123 0.00624853 -0.00864212 0.0084148 -0.014429
-2.71051e-20 -0.237834 0.0134375 -0.0698644 0.00445013 -0.0290636
5.42101e-20 0.237834 0.0134375 -0.0610356 -0.00521032 -0.0328953
0 -0.238124 0.0068744 -0.0239812 -0.00939739 -0.02951
-1.29247e-26 0.238124 0.0068744 -0.0151781 0.010289 -0.0228425
-2.19107e-20 0.237544 0.018125 -0.0583002 -0.00074977 -0.0113899
1.06337e-20 -0.237544 0.018125 -0.0567374 7.77557e-05 -0.0102466
0 -0.238124 0.00749977 -0.0284022 -0.00764252 -0.0333709
1.29247e-26 0.238124 0.00749977 -0.0205959 0.0101004 -0.029507
0 -0.237834 0.0140625 -0.0719082 0.00391202 -0.0260049
2.71051e-20 0.237834 0.0140625 -0.0648202 -0.00526028 -0.0297749
0 0.237272 0.0215625 -0.0442347 0.000744128 -0.00429695
-2.71051e-20 -0.237272 0.0215625 -0.0418732 -0.000677936 -0.00379132
8.27181e-25 0.237 0.024375 -4.95137e-07 1.16696e-08 -1.96475e-08
-8.27181e-25 -0.237 0.024375 -4.2332e-07 -9.22808e-09 -7.18927e-09
0 0.238253 -3.33791e-10 0 0 0
3.23117e-27 0.238124 0.00805007 -0.0243943 0.00853587 -0.0333435
0 -0.238124 0.00812492 -0.0320356 -0.00521734 -0.0353457
-1.61559e-27 0.238124 0.00812492 -0.0249109 0.00832306 -0.0338653
-9.09899e-21 -0.237544 0.01875 -0.0562946 -7.42603e-05 -0.00898408
-1.30372e-20 0.237544 0.01875 -0.0583917 -0.000465891 -0.00990522
-1.29247e-26 -0.238124 0.00874998 -0.0354042 -0.00268657 -0.036038
0 0.238124 0.00874998 -0.0283609 0.00570681 -0.0361536
2.71051e-20 -0.237834 0.0146875 -0.0731037 0.00322699 -0.0231877
2.71051e-20 0.237834 0.0146875 -0.0679197 -0.00489298 -0.0266186
0 0.237272 0.0221875 -0.0442012 0.000819173 -0.00362074
-2.71051e-20 -0.237272 0.0221875 -0.0417127 -0.000708949 -0.00303266
0 -0.238124 0.00937499 -0.0390667 -0.000388307 -0.036031
1.29906e-20 0.238124 0.00937499 -0.0314191 0.00293142 -0.0369576
-8.27181e-25 0.237 0.025 -4.975e-07 1.22617e-08 -1.36555e-08
0 -0.237 0.025 -4.42868e-07 -1.0358e-08 -5.91752e-10
5.42101e-20 -0.237834 0.0153125 -0.0736038 0.00250781 -0.0206969
5.42101e-20 0.237834 0.0153125 -0.0702668 -0.00433921 -0.0236482
3.56757e-20 -0.237544 0.019375 -0.0558122 -0.000199818 -0.00777586
2.80914e-20 0.237544 0.019375 -0.0583613 -0.000214561 -0.00856123
0 -0.238124 0.01 -0.0433908 0.00159664 -0.0356941
5.2839e-21 0.238124 0.01 -0.0346274 0.000401775 -0.0368689
0 -0.238124 0.010625 -0.0484607 0.00331596 -0.0351199
-2.27215e-20 0.238124 0.010625 -0.0383751 -0.00173168 -0.0363142
2.71051e-20 -0.238362 0.000287929 0.00298787 -0.000184966 -0.000212311
5.42101e-20 0.238362 0.000287929 0.00249031 0.000278725 -0.000358688
-2.71051e-20 0.237272 0.0228125 -0.0440428 0.000921464 -0.00299155
0 -0.237272 0.0228125 -0.0414257 -0.000773774 -0.00229444
2.71051e-20 -0.237834 0.0159375 -0.0735797 0.00191086 -0.0184645
-2.71051e-20 0.237834 0.0159375 -0.0719154 -0.00370215 -0.0209153
0 -0.237 0.025625 -4.49577e-07 -1.12555e-08 6.06184e-09
8.27181e-25 0.237 0.025625 -4.84433e-07 1.232e-08 -7.49837e-09
1.29247e-26 -0.23774 0.0175 -0.06281 0.000677253 -0.0118317
6.48282e-21 -0.237544 0.02 -0.0553118 -0.000312601 -0.00661543
1.75214e-20 0.237544 0.02 -0.0582317 2.04294e-05 -0.00734041
-1.03398e-25 -0.238124 0.01125 -0.0541117 0.00478334 -0.0342043
-3.20249e-20 0.238124 0.01125 -0.0427929 -0.00351641 -0.0354832
-5.42101e-20 0.238389 0.000874094 0.00147589 -0.0023368 0.00062383
-2.71051e-20 -0.238389 0.000874094 0.00384513 0.00184526 0.000297273
1.29247e-26 0.238124 0.0115928 -0.0455587 -0.00435056 -0.0348584
0 0.237834 0.0165625 -0.0729442 -0.00302463 -0.018467
-2.71051e-20 -0.237834 0.0165625 -0.0731918 0.00137381 -0.016453
2.42338e-27 0.238273 0.00812493 -0.0241588 0.00815472 -0.0329985
-2.71051e-20 -0.238408 0.00148916 0.00161119 0.00412749 0.00183421
2.71051e-20 0.238408 0.00148916 -0.00252721 -0.00479314 0.00367816
0 -0.238124 0.011875 -0.0599719 0.00591274 -0.0327698
1.29247e-26 0.238124 0.011875 -0.0478354 -0.0050372 -0.0343441
2.58494e-26 -0.238409 0.00244824 0.000839547 0.00511695 0.00285835
-5.42101e-20 0.237272 0.0234375 -0.0439851 0.000979773 -0.00241694
-5.42101e-20 -0.237272 0.0234375 -0.0412133 -0.000810897 -0.00158853
2.71051e-20 -0.238422 0.00212682 -2.45914e-06 0.00574188 0.00304128
-5.42101e-20 0.238422 0.00212682 -0.00569172 -0.00572344 0.00642013
1.76907e-20 -0.237544 0.020625 -0.0548197 -0.000410954 -0.00549683
2.19445e-20 0.237544 0.020625 -0.0580351 0.000234207 -0.00622336
2.71051e-20 -0.238429 0.00277088 0.0015001 0.00558542 0.0029576
-2.71051e-20 0.238429 0.00277088 -0.00551029 -0.00501306 0.00753001
-8.27181e-25 -0.237 0.02625 -4.39042e-07 -1.16689e-08 1.20892e-08
-8.27181e-25 0.237 0.02625 -4.68635e-07 1.20975e-08 -1.61355e-09
-1.03398e-25 -0.238124 0.0125 -0.0654815 0.00653314 -0.0307187
-5.16988e-26 0.238124 0.0125 -0.0533053 -0.00627821 -0.0327807
-2.71051e-20 0.237834 0.0171875 -0.0734734 -0.00242861 -0.0162412
0 -0.237834 0.0171875 -0.072568 0.000989642 -0.0145997
-5.42101e-20 0.238431 0.0034119 -0.00228213 -0.00366315 0.00691327
0 -0.238431 0.0034119 0.00322926 0.00273765 0.00179698
2.71051e-20 0.238431 0.00404796 0.00173168 -0.0017771 0.00500865
0 -0.238431 0.00404796 0.00187531 -0.00222312 -0.00152297
-2.71051e-20 0.238431 0.00467997 0.00341519 0.00137676 0.00113728
2.71051e-20 -0.238431 0.00467997 -0.00479155 -0.00715667 -0.00849659
0 0.238124 0.013125 -0.0588838 -0.00711067 -0.0307421
-5.16988e-26 -0.238124 0.013125 -0.0700763 0.00650936 -0.0281714
2.71051e-20 0.237272 0.0240625 -0.0438292 0.0010614 -0.00187261
2.71051e-20 -0.237272 0.0240625 -0.040868 -0.000881565 -0.000913023
-2.71051e-20 0.238432 0.00530874 -0.00146111 0.00647753 -0.00635437
0 -0.238432 0.00530874 -0.0133149 -0.0113595 -0.0173322
-6.66894e-21 -0.237544 0.02125 -0.0543452 -0.00050144 -0.00441312
1.17276e-20 0.237544 0.02125 -0.0577945 0.000427027 -0.00519132
2.71051e-20 -0.237834 0.0178125 -0.0717666 0.000627866 -0.0128729
0 0.237834 0.0178125 -0.0736234 -0.00183159 -0.0142381
0 0.238432 0.00593583 -0.00968302 0.0113408 -0.0159242
-2.71051e-20 -0.238432 0.00593583 -0.0205254 -0.0132608 -0.0255175
0 -0.237 0.026875 -4.18431e-07 -1.17225e-08 1.71326e-08
8.27181e-25 0.237 0.026875 -4.35265e-07 1.12508e-08 3.91101e-09
0 0.238124 0.01375 -0.0641105 -0.00740767 -0.0282662
2.58494e-26 -0.238124 0.01375 -0.073377 0.00592939 -0.0254199
5.42101e-20 0.238432 0.00656171 -0.0169596 0.0139506 -0.0248986
0 -0.238432 0.00656171 -0.0255872 -0.0125273 -0.0310126
2.71051e-20 0.238432 0.00718722 -0.0221953 0.0134566 -0.031222
0 -0.238432 0.00718722 -0.0285825 -0.00985835 -0.0334984
2.71051e-20 -0.237834 0.0184375 -0.0708794 0.000399226 -0.0112431
-2.71051e-20 0.237834 0.0184375 -0.0735199 -0.00139302 -0.012408
1.34926e-20 0.237544 0.021875 -0.0575319 0.000600736 -0.0042305
1.01331e-20 -0.237544 0.021875 -0.0538962 -0.000588679 -0.00335966
0 0.237272 0.0246875 -0.0438017 0.00110371 -0.00136543
-2.71051e-20 -0.237272 0.0246875 -0.0406321 -0.000926958 -0.00028116
-2.58494e-26 0.238124 0.014375 -0.0685482 -0.00713842 -0.0255246
2.58494e-26 -0.238124 0.014375 -0.0753442 0.00506212 -0.022725
2.71051e-20 0.238432 0.00781239 -0.0253757 0.0108219 -0.0343314
-2.71051e-20 -0.238432 0.00781239 -0.0301864 -0.00644762 -0.0337094
-5.42101e-20 -0.238432 0.00843746 -0.0314914 -0.00310786 -0.0327786
2.71051e-20 0.238432 0.00843746 -0.0270818 0.00717177 -0.0349361
1.29247e-26 0.238124 0.0148898 -0.0713258 -0.00657191 -0.0232532
0 -0.237 0.0275 -3.94559e-07 -1.14891e-08 2.12701e-08
8.27181e-25 0.237 0.0275 -3.64288e-07 9.24852e-09 8.05818e-09
-2.58494e-26 -0.238124 0.015 -0.0762314 0.00410341 -0.0202525
-6.46235e-27 0.238124 0.015 -0.0719204 -0.00645064 -0.0227669
5.42101e-20 0.237834 0.0190625 -0.0732134 -0.000942519 -0.0107156
-2.71051e-20 -0.237834 0.0190625 -0.0699638 0.000163349 -0.00968728
0 0.238432 0.00906249 -0.0282909 0.00351704 -0.0341508
2.71051e-20 -0.238432 0.00906249 -0.0335216 -0.000245777 -0.0316208
-8.20356e-22 0.237544 0.0225 -0.057257 0.000758354 -0.00333267
-1.36934e-20 -0.237544 0.0225 -0.053471 -0.000680105 -0.00233846
-5.42101e-20 0.237272 0.0253125 -0.0437192 0.00116159 -0.000873105
-2.71051e-20 -0.237272 0.0253125 -0.0402895 -0.00100141 0.000310737
2.71051e-20 -0.238432 0.0096875 -0.0370372 0.00203532 -0.0308569
8.13152e-20 0.238432 0.0096875 -0.0299759 0.000362387 -0.032921
0 -0.238631 5.27908e-09 2.14786e-08 1.04848e-09 -1.85639e-09
0 0.238631 3.43194e-09 7.04325e-09 4.64334e-10 -1.30252e-09
-1.00723e-20 0.238124 0.015625 -0.0741647 -0.00559871 -0.0201442
-2.58494e-26 -0.238124 0.015625 -0.0763176 0.00323936 -0.0180238
0 0.237834 0.0196875 -0.0727864 -0.000615713 -0.00913878
-5.42101e-20 -0.237834 0.0196875 -0.0690471 2.2453e-05 -0.00817852
2.71051e-20 -0.238432 0.0103125 -0.0421197 0.00398674 -0.0304994
0 0.238432 0.0103125 -0.0328713 -0.00218298 -0.0318313
8.27181e-25 -0.237 0.028125 -3.66713e-07 -1.09545e-08 2.44751e-08
4.1359e-25 0.237 0.028125 -2.73575e-07 6.70482e-09 9.92914e-09
1.89503e-20 0.237544 0.023125 -0.056993 0.00089911 -0.00249261
-7.67996e-21 -0.237544 0.023125 -0.0530846 -0.000775671 -0.00135535
0 0.238672 0.000575691 0.000480343 -0.00182936 0.000494448
1.10619e-20 -0.238672 0.000575689 0.00221489 0.00143778 0.00025001
3.95688e-20 0.238124 0.01625 -0.0754638 -0.0046947 -0.0177357
2.58494e-26 -0.238124 0.01625 -0.0758491 0.00251885 -0.0159814
-1.29247e-26 -0.238659 0.003098 0.00150036 0.00325793 0.00125834
-2.71051e-20 -0.238432 0.0109375 -0.0484053 0.0057489 -0.0301878
0 0.238432 0.0109375 -0.0371316 -0.00422278 -0.0310223
0 0.237272 0.0259375 -0.0438128 0.00118232 -0.000394356
2.71051e-20 -0.237272 0.0259375 -0.0401001 -0.00105187 0.000857443
5.42101e-20 0.237834 0.0203125 -0.0722981 -0.000235352 -0.00769316
2.71051e-20 -0.237834 0.0203125 -0.0681619 -0.000172632 -0.00673427
-8.27181e-25 0.238701 0.00117836 -0.00332519 -0.00503337 0.00298126
-1.82985e-20 -0.238701 0.00117836 0.000591056 0.0040599 0.00152987
2.71051e-20 -0.238432 0.0115625 -0.0554933 0.00729133 -0.0296685
0 0.238433 0.0115625 -0.0424387 -0.00603361 -0.0302147
1.82992e-20 0.238124 0.016875 -0.0760365 -0.00385614 -0.0155376
0 -0.238124 0.016875 -0.0750195 0.00194379 -0.0140824
1.7585e-20 0.237544 0.02375 -0.056752 0.00101851 -0.00170021
6.84864e-21 -0.237544 0.02375 -0.0527382 -0.00087455 -0.000413094
0 0.238723 0.00181179 -0.00764779 -0.00664147 0.00589502
3.85178e-20 -0.238723 0.00181179 -0.00165061 0.00581924 0.00281244
0 -0.237 0.02875 -3.43414e-07 -1.0322e-08 2.74091e-08
-4.1359e-25 0.237 0.02875 -2.04461e-07 4.71691e-09 1.05912e-08
2.71051e-20 -0.238432 0.0121875 -0.0627806 0.00838065 -0.0286091
-5.42101e-20 0.238433 0.0121875 -0.0486864 -0.00764164 -0.0292799
0 0.238737 0.00245721 -0.00865442 -0.00621604 0.0072886
9.87602e-21 -0.238737 0.00245721 -0.000990039 0.00583165 0.00271937
2.71051e-20 0.237834 0.0209375 -0.0718094 1.08795e-05 -0.00634836
5.42101e-20 -0.237834 0.0209375 -0.0673211 -0.000268336 -0.00532555
-2.71051e-20 0.237272 0.0265625 -0.043899 0.00121065 0.00010207
-5.42101e-20 -0.237272 0.0265625 -0.0398854 -0.00112066 0.00137389
0 0.238742 0.00309995 -0.00530784 -0.00446028 0.00658511
3.97351e-20 -0.238742 0.00309995 0.00119054 0.00321033 0.000941254
0 -0.238742 0.00338081 0.000822352 0.000892693 -0.000571277
3.41861e-21 0.238124 0.0175 -0.076081 -0.00309522 -0.0135167
0 -0.238124 0.0175 -0.0739578 0.00148357 -0.0122974
-2.58494e-26 0.238742 0.00373666 -0.000444205 -0.00186255 0.00435258
0 -0.238742 0.00373666 0.000355866 -0.00204373 -0.00248763