# U  POINT_DATA 25961
# x  y  z  U_x  U_y  U_z
0.01 0 8.31199e-08 -6.71295e-19 7.04636e-17 5.25111e-19
-0.01 0 8.31199e-08 -2.44129e-17 1.59046e-17 -2.58947e-17
-0.01 0 0.00067832 1.57187e-12 -4.79354e-12 -3.72845e-13
0.01 0 0.00067832 -6.37428e-14 3.09728e-11 -5.59499e-14
0.0100157 7.75482e-26 0.000677127 -7.88256e-08 1.01975e-05 -6.10019e-09
-0.01 0 0.00137372 2.36273e-11 -9.46331e-11 3.36391e-11
0.01 0 0.00137372 -2.18818e-12 9.63166e-10 -1.88904e-12
0.0100746 0 0.00135804 -9.83102e-07 0.000106081 -3.99997e-07
-0.01 0 0.002087 4.3352e-12 -3.23069e-12 8.52129e-12
0.01 0 0.002087 -3.02209e-17 4.98527e-15 -2.39236e-17
-0.0102613 0 0.000329046 -2.4388e-06 -2.03739e-06 -2.40199e-06
0.0102613 2.71051e-20 0.000329046 -8.83761e-08 1.17427e-05 6.29882e-08
0.0102561 2.71051e-20 0.000988366 -4.17615e-07 0.000408403 -5.88169e-07
-0.0102561 -2.71051e-20 0.000988366 1.51178e-05 -1.40297e-05 -9.33555e-07
0.0102356 2.71051e-20 0.00161953 -8.24981e-07 0.0003912 -9.78204e-07
-0.0102356 0 0.00161953 1.39246e-06 -1.52855e-05 3.08087e-05
0.0105293 -4.1359e-25 8.89198e-08 -3.16008e-13 3.7245e-11 6.73679e-14
-0.0105293 0 8.68458e-08 -4.38979e-13 -9.56334e-13 -4.80346e-13
0.0105282 -2.06795e-25 0.000279278 -1.15469e-06 0.000149379 -8.93594e-08
-0.0105268 -2.08425e-20 0.000638363 3.2527e-05 -9.81482e-06 5.49652e-07
0.0105268 -1.52449e-21 0.000638362 -2.63979e-06 0.000341504 -2.04287e-07
-0.0105159 1.65436e-24 0.0012653 5.94395e-05 -2.09319e-05 3.90228e-05
0.0105159 -2.13925e-20 0.0012653 -6.79578e-06 0.000733297 -2.76501e-06
-0.0105028 -1.06839e-20 0.0017228 2.8553e-05 -2.12803e-05 5.61206e-05
0.0105028 -1.34979e-20 0.0017228 -6.94089e-06 0.000667584 -4.02063e-06
-0.010496 2.71051e-20 0.00202291 -1.24174e-05 -1.72468e-05 2.71612e-05
0.010496 -2.71051e-20 0.00202291 -4.98815e-06 0.000474307 -2.71771e-06
0.0104977 0 0.00235078 -3.88505e-10 2.75097e-08 -2.49297e-10
-0.0104977 0 0.00235077 -1.82e-09 -2.52344e-09 2.63695e-09
-0.0108033 2.71051e-20 0.000314595 -1.64351e-06 -1.55203e-06 -2.05071e-06
0.0108033 2.71051e-20 0.000314594 -1.03227e-07 6.88873e-06 1.48934e-08
-0.0108031 2.71051e-20 0.00093799 0.000117224 -2.16307e-05 7.43594e-06
0.0108031 0 0.00093799 -9.7644e-06 0.000933205 -3.20734e-07
-0.01079 -2.71051e-20 0.00152732 0.000102677 -3.2238e-05 0.000115254
0.01079 -2.71051e-20 0.00152732 -1.57886e-05 0.00118069 -8.7795e-06
-0.0110754 0 7.36178e-09 -8.35439e-12 -1.3058e-11 -1.38512e-11
0.0110754 0 6.46274e-09 -2.40335e-13 2.58433e-11 3.11398e-14
0.01108 0 0.000208299 -2.73625e-06 0.000193731 -9.48416e-08
-0.0110889 0 0.000613667 0.000104301 -1.18525e-05 9.95073e-06
0.0110889 -2.63209e-21 0.000613666 -8.06128e-06 0.000570753 -2.79407e-07
-0.0108991 2.71051e-20 0.00228385 -6.3668e-05 -2.16107e-05 7.92843e-05
0.0108991 5.42101e-20 0.00228385 -1.18419e-05 0.000647161 -7.27594e-06
0.010988 -2.7115e-20 0.00190078 -2.22627e-05 0.00116151 -1.14402e-05
-0.010988 0 0.00190081 4.4306e-05 -2.90563e-05 0.000146353
-0.0110831 -1.65436e-24 0.00123268 0.000185001 -2.91693e-05 0.0001013
0.0110831 1.26559e-20 0.00123266 -2.19938e-05 0.00134319 -6.94864e-06
0.0109863 0 0.00260985 -1.08539e-09 5.16991e-08 -6.45832e-10
-0.0109863 6.61744e-24 0.00260985 -6.86201e-09 -4.06478e-09 8.06603e-09
0.0113733 0 0.000305239 -8.05478e-08 7.00268e-06 2.85798e-08
-0.0113733 0 0.000305239 -1.18504e-06 -6.5849e-07 -2.46336e-06
-0.0113913 0 0.000918847 0.00030714 -2.40395e-05 3.73628e-05
0.0113913 0 0.000918847 -2.26262e-05 0.0013602 -8.52641e-07
0.0112123 1.12761e-20 0.00231934 -2.28145e-05 0.000993657 -1.25458e-05
-0.0112123 2.62713e-21 0.00231934 -6.56866e-05 -2.58537e-05 0.000163288
-0.0113682 -2.71051e-20 0.00155884 0.000219263 -3.89479e-05 0.000248048
0.0113682 -2.71051e-20 0.00155884 -4.04825e-05 0.00192041 -1.80074e-05
0.0114039 -5.42101e-20 0.00209577 -3.98546e-05 0.00164768 -2.09063e-05
-0.0114039 2.71051e-20 0.00209577 -7.22983e-06 -3.57726e-05 0.000270312
0.011595 2.58494e-26 2.35794e-09 0 0 0
0.0113392 -2.71051e-20 0.00255892 -1.66228e-05 0.000686439 -9.402e-06
-0.0113392 0 0.00255892 -0.000123894 -2.02493e-05 0.000138464
-0.0116471 0 3.40354e-09 3.33071e-13 -2.86714e-12 -1.4859e-11
0.0116471 0 2.32037e-09 -4.29112e-14 2.78662e-12 -1.85504e-14
-0.0116865 0 0.000598049 0.000248776 -1.08009e-05 3.68332e-05
0.0116865 2.92168e-20 0.000598049 -1.56538e-05 0.000771457 -1.01266e-06
-0.0117045 0 0.00122297 0.000463145 -2.9272e-05 0.00019772
0.0117045 -1.815e-20 0.00122297 -4.54539e-05 0.00193781 -1.37026e-05
0.0114599 0 0.00285977 -2.48128e-09 7.5202e-08 -1.36179e-09
-0.0114598 0 0.00285975 -1.48649e-08 -5.03062e-09 1.67345e-08
0.0117133 2.22677e-20 0.00184588 -6.02587e-05 0.00220738 -2.85469e-05
-0.0117133 3.30872e-24 0.00184588 0.000206251 -3.69724e-05 0.000330051
0.0116596 1.99913e-20 0.00239949 -4.51829e-05 0.00148616 -2.34751e-05
-0.0116596 0 0.00239948 -9.75262e-05 -3.01227e-05 0.000275179
0.0119676 2.71051e-20 0.000293859 -1.67802e-08 7.3429e-06 -1.34688e-07
-0.0119676 2.71051e-20 0.000293859 1.14939e-06 -3.45301e-07 -7.58086e-06
-0.0120019 -1.03398e-25 9.94023e-10 0 0 0
-0.0120131 2.71051e-20 0.000895955 0.000703304 -1.86988e-05 0.000122738
0.0120131 0 0.000895956 -4.08235e-05 0.00175459 -3.15272e-06
0.0120433 5.42101e-20 0.00152444 -7.83414e-05 0.00273146 -3.33271e-05
-0.0120433 2.71051e-20 0.00152444 0.000617758 -3.59062e-05 0.000388904
-0.0118604 -5.42101e-20 0.00273055 -0.000263497 -2.82542e-05 0.000289548
0.0118604 -2.71051e-20 0.00273056 -4.39315e-05 0.00114814 -2.28692e-05
0.0120387 -2.71051e-20 0.00217273 -8.47783e-05 0.00259166 -4.29135e-05
-0.0120387 0 0.00217273 1.63065e-05 -3.73481e-05 0.000420476
0.0122418 -4.1359e-25 3.11206e-09 -6.7191e-13 5.2697e-11 -2.23123e-12
-0.0122418 -1.03398e-25 1.04582e-09 2.32963e-11 2.59319e-13 -1.93547e-11
-0.0122568 2.06795e-25 0.000136244 0.00011202 -1.02216e-06 2.22993e-05
0.0119119 0 0.00310459 -3.24142e-09 8.03876e-08 -1.81887e-09
-0.0119119 6.61744e-24 0.00310459 -1.96647e-08 -4.54722e-09 1.84974e-08
0.0123043 -2.01443e-20 0.000568947 -2.34974e-05 0.000935121 -1.57842e-06
-0.0123043 -1.23721e-20 0.000568945 0.000467787 -4.26881e-06 9.31204e-05
0.01236 5.58512e-21 0.00118123 -7.41277e-05 0.00249848 -2.12538e-05
-0.01236 -8.27181e-25 0.00118125 0.000927593 -1.55729e-05 0.000255862
-0.0124541 -1.03398e-25 1.48697e-10 0 0 0
0.0123814 1.50017e-20 0.00184432 -0.00010952 0.00314814 -4.83587e-05
-0.0123814 0 0.00184434 0.000549733 -2.69933e-05 0.000309532
-0.0125711 2.71051e-20 0.000269458 2.369e-05 -1.55607e-07 -1.49525e-05
0.0125711 -2.71051e-20 0.000269458 1.60864e-08 8.05456e-06 -5.63866e-07
0.0123374 -1.70498e-20 0.00258488 -9.02057e-05 0.00227183 -4.61537e-05
-0.0123374 -5.93254e-21 0.00258488 -7.65614e-05 -2.74864e-05 0.000263682
0.0122817 0 0.00299995 -5.17534e-05 0.00120136 -2.88295e-05
-0.0122817 -2.71051e-20 0.00299995 -0.000360049 -2.46119e-05 0.000285735
0.0126475 -2.71051e-20 0.000839063 -5.45866e-05 0.00202678 -2.52641e-06
-0.0126475 0 0.000839063 0.00116977 1.85668e-06 0.000278702
0.0123472 -3.30872e-24 0.00333734 -2.51115e-09 5.27457e-08 -1.43131e-09
-0.0123472 0 0.00333734 -1.46538e-08 -2.45349e-09 1.23711e-08
-0.0127108 2.71051e-20 0.0014705 0.00121297 -1.00899e-05 0.000236358
0.0127108 2.71051e-20 0.0014705 -0.000123342 0.00349704 -4.65975e-05
0.0128491 1.65436e-24 5.01678e-09 -4.71223e-13 1.1819e-10 -9.39604e-12
-0.0128491 0 1.4199e-09 8.41784e-11 -2.17907e-12 -2.97666e-11
0.0127172 2.71051e-20 0.00217074 -0.000152112 0.00378392 -7.05346e-05
-0.0127172 0 0.00217074 0.000375009 -2.3965e-05 0.000189956
0.0129129 1.7772e-20 0.000505056 -2.72458e-05 0.000969878 -2.07313e-06
-0.0129129 0 0.000505053 0.000538944 5.56508e-06 7.05272e-05
0.0125922 1.71011e-20 0.00303079 -7.95972e-05 0.00172461 -4.35764e-05
-0.0125922 -2.95667e-20 0.00303079 -0.000266461 -2.2229e-05 0.000243323
0.0130203 -4.5313e-21 0.00108239 -9.64214e-05 0.00284667 -2.62295e-05
-0.0130203 0 0.0010824 0.00117047 1.17514e-05 -0.000105143
0.012793 5.42101e-20 0.00278388 -0.000128385 0.00290055 -6.97733e-05
-0.012793 0 0.00278388 -7.51799e-05 -2.34695e-05 0.000126274
0.0127108 -5.42101e-20 0.00327268 -6.04826e-05 0.00112573 -3.31222e-05
-0.0127108 2.71051e-20 0.00327268 -0.000355958 -1.88545e-05 0.000311971
0.0131383 2.71051e-20 0.000218112 1.44835e-07 8.14623e-06 -8.24937e-07
-0.0131383 2.71051e-20 0.000218112 2.96511e-05 -9.63787e-08 -4.65141e-06
0.013073 -1.26559e-22 0.0017651 -0.000164532 0.00407418 -6.50998e-05
-0.013073 0 0.00176511 0.000905531 4.78421e-06 -0.000522086
0.0127674 0 0.00356123 -1.3838e-09 2.48473e-08 -7.88277e-10
-0.0127674 -1.65436e-24 0.00356123 -6.35609e-09 -8.32741e-10 4.6197e-09
-0.0132689 0 0.000719701 0.000985631 2.10672e-05 3.27381e-05
0.0132689 0 0.0007197 -5.72966e-05 0.00193431 -4.48931e-06
0.0130872 1.59067e-21 0.00246807 -0.000179633 0.00396802 -8.33267e-05
-0.0130872 0 0.00246808 0.000344021 -4.04941e-06 -0.000563394
0.0133746 2.37649e-20 0.000406313 -1.87821e-05 0.000643538 -1.27413e-06
-0.0133746 1.82459e-20 0.000406306 0.000318381 7.9162e-06 3.29967e-05
0.0134599 0 1.02233e-08 2.45271e-12 2.13179e-10 2.96551e-11
-0.0134599 8.27181e-25 3.72109e-09 -1.44958e-10 -4.411e-11 3.91631e-10
0.0130916 1.83692e-20 0.00314268 -0.000123175 0.00242001 -6.40996e-05
-0.0130916 2.06795e-25 0.00314268 -6.65343e-05 -7.77334e-06 -0.000191111
-0.0134186 -2.71051e-20 0.00131377 0.00132158 3.29918e-05 -0.000964316
0.0134186 2.71051e-20 0.00131377 -0.000154059 0.00400996 -5.35909e-05
0.013075 0 0.00349045 -6.93883e-05 0.00118078 -3.92027e-05
-0.013075 0 0.00349045 -0.000342225 -1.19525e-05 0.000192766
-0.013162 4.1359e-25 0.00325434 -9.35405e-05 -6.66787e-06 -0.000159044
-0.0134232 0 0.00207248 0.00071605 2.11093e-05 -0.0015377
0.0134232 5.42101e-20 0.00207248 -0.0002259 0.00496726 -8.86402e-05
0.0132078 0 0.00332703 -0.000110364 0.00210102 -5.86101e-05
-0.0132595 0 0.00312606 0.000107797 3.41476e-06 -0.000808228
-0.0136984 0 0.000300358 -5.24071e-05 3.07772e-06 7.33024e-05
0.0136984 -2.71051e-20 0.000300357 2.15538e-07 7.99873e-06 1.51454e-06
0.013418 -5.42101e-20 0.00277569 -0.000217115 0.00434041 -0.000104844
-0.013418 0 0.00277569 0.000408905 1.24069e-05 -0.00111911
0.0131762 -2.06795e-25 0.0037788 -1.77166e-10 3.15309e-09 -1.04397e-10
-0.0131762 0 0.0037788 -1.28438e-10 -1.35872e-11 7.64091e-11
-0.0131848 5.16988e-26 0.00376504 -8.73226e-06 -2.17006e-07 -4.41278e-06
0.0133596 0 0.00311615 -0.000166092 0.00318316 -7.66417e-05
-0.0131928 -1.03398e-25 0.00378881 0 0 0
0.0132283 0 0.00369585 -3.18155e-05 0.000578751 -1.7367e-05
-0.013523 -2.06795e-25 0.00243331 0.000390314 2.81392e-05 -0.00233384
0.0137612 -1.41729e-20 0.000786143 -8.30965e-05 0.00219108 -2.30751e-05
-0.0137612 2.14405e-20 0.000786151 0.000354571 3.21836e-05 -0.000875631
-0.0133341 0 0.00352736 -0.000159573 -3.96515e-06 -8.06388e-05
0.0133341 -3.4254e-20 0.00352736 -9.64433e-05 0.00175438 -5.26451e-05
0.0132767 -2.06795e-25 0.00383951 0 0 0
0.0137678 -5.15334e-22 0.00165537 -0.0002218 0.00477896 -7.0162e-05
-0.0137678 0 0.00165538 0.000409245 4.95498e-05 -0.00272231
-0.013482 2.71051e-20 0.00331696 0.000122016 4.91371e-06 -0.000603572
0.013482 0 0.00331696 -0.000158854 0.00296809 -8.20669e-05
-0.0137612 0 0.00191385 0.000410948 4.79292e-05 -0.00290157
0.0137268 -2.58494e-26 0.00241705 -0.000264305 0.00518712 -9.50211e-05
0.013749 0 0.00239287 -0.000265823 0.005215 -9.46697e-05
-0.0137484 0 0.00241533 0.000414253 4.47846e-05 -0.00324937
0.0137484 -2.58494e-26 0.00241533 -0.000267164 0.00522828 -9.5416e-05
-0.013458 2.71051e-20 0.00374223 -0.000258379 -4.90016e-06 0.000167252
0.013458 -5.42101e-20 0.00374223 -6.14007e-05 0.00111937 -3.67989e-05
0.0140709 0 3.70269e-08 -5.80346e-10 3.15922e-08 -1.71316e-10
-0.0140709 0 9.99199e-09 -2.51755e-09 -4.97429e-10 -2.83609e-09
-0.0137488 2.11378e-20 0.00307762 0.000616003 3.60303e-05 -0.00260724
0.0137488 -1.73452e-20 0.00307762 -0.000228404 0.00429117 -9.48518e-05
-0.0135651 8.27181e-25 0.00401367 7.03812e-10 2.45746e-10 -1.78245e-09
0.0135651 0 0.00401367 -6.44602e-10 1.15607e-08 -3.8945e-10
0.0141231 2.71051e-20 0.00120897 -0.000193712 0.00423619 -5.43376e-05
-0.0141231 0 0.00120897 -0.000195014 7.15548e-05 -0.00320504
-0.0137164 -1.92146e-20 0.00361036 0.000348803 1.59151e-05 -0.00111531
0.0137164 7.00457e-21 0.00361036 -0.000133996 0.00247418 -6.62136e-05
0.014089 0 0.00201377 -0.000309842 0.00584577 -8.35478e-05
-0.014089 2.71051e-20 0.00201377 -0.000242284 7.2643e-05 -0.00512403
-0.0142657 5.42101e-20 0.000418222 -0.000267057 3.65123e-05 -0.000460446
0.0142657 2.71051e-20 0.000418221 -2.23785e-05 0.00107502 -1.02076e-05
-0.014069 -2.71051e-20 0.0027392 0.000717472 7.35668e-05 -0.00525567
0.014069 0 0.0027392 -0.000316555 0.00577111 -0.000103757
0.0138967 0 0.00392747 -9.58518e-05 0.00174687 -6.01231e-05
-0.0138967 0 0.00392747 0.000357472 9.22375e-06 -0.000483266
0.0140496 0 0.00340311 -0.000233712 0.00432047 -9.09012e-05
-0.0140496 0 0.00340311 0.00128692 5.86857e-05 -0.0038097
-0.0143919 -6.46235e-27 0.00161694 -0.00140515 7.95156e-05 -0.00577505
0.014441 0 0.00161392 -0.000309937 0.00527037 -4.75272e-05
-0.014441 2.83767e-21 0.00161391 -0.00154799 8.18748e-05 -0.00601538
-0.0144454 -1.16322e-25 0.00157999 -0.00157076 8.06647e-05 -0.0058788
0.0145429 1.93395e-20 0.000823379 -0.000139962 0.00286372 -2.43264e-05
-0.0145429 0 0.000823363 -0.00207848 5.36733e-05 -0.00283229
-0.0139237 0 0.00428406 7.38589e-09 5.68143e-10 -1.62882e-08
0.0139237 -1.65436e-24 0.00428406 -1.01033e-09 2.06187e-08 -5.35632e-10
0.0143988 2.58494e-26 0.0023483 -0.000371196 0.00618523 -6.19599e-05
-0.014397 9.51671e-21 0.00237994 -0.000137592 9.77409e-05 -0.00770902
0.014397 0 0.00237994 -0.000373836 0.00622465 -6.25818e-05
0.0144898 0 0.00237022 -0.000391254 0.00629342 -5.03555e-05
-0.0143653 -4.95068e-21 0.00309536 0.00145482 0.00010177 -0.00730548
0.0143653 0 0.00309537 -0.000326896 0.00569755 -6.61466e-05
0.0147022 0 4.94613e-08 -1.83101e-09 9.19836e-08 -6.01219e-10
-0.0147022 -1.65436e-24 1.20861e-08 -4.02786e-08 -4.1746e-09 -2.11479e-08
-0.014305 3.55117e-20 0.00382188 0.00184636 6.88799e-05 -0.00454621
0.014305 8.27181e-25 0.00382188 -0.000174344 0.00346238 -4.35118e-05
0.0142451 0 0.00421792 -6.94519e-05 0.00169378 -3.03222e-05
-0.0142451 0 0.00421792 0.000718231 2.96516e-05 -0.00188578
0.0147298 -8.13152e-20 0.00200539 -0.000431078 0.0063597 -3.23095e-05
-0.0147298 0 0.00200539 -0.00168234 0.000107237 -0.0095674
-0.0148165 0 0.00124392 -0.00405568 7.45859e-05 -0.00597662
0.0148165 0 0.00124392 -0.000299362 0.00459733 -2.12896e-05
-0.0149179 1.03398e-25 0.000896435 -0.00353925 5.33915e-05 -0.00352769
-0.0149609 0 2.9798e-17 0 0 0
0.014711 -2.71051e-20 0.00272495 -0.000437258 0.00690412 -3.11114e-05
-0.014711 -2.71051e-20 0.00272495 0.000606096 0.000136564 -0.0108366
-0.0149557 0 0.000461616 -0.00372542 3.26115e-05 -0.00166731
0.0149557 0 0.000461611 -4.45491e-05 0.00161644 -1.3886e-05
-0.0142802 0 0.00455258 1.68928e-08 6.17287e-10 -2.7227e-08
0.0142802 -8.27181e-25 0.00455258 -6.18992e-10 1.72294e-08 -2.19722e-10
0.0146561 0 0.00344874 -0.000329411 0.00590745 -3.62586e-05
-0.0146561 2.71051e-20 0.00344874 0.00315262 0.00014135 -0.00961793
-0.014516 -1.6116e-20 0.00427159 0.00224769 6.12118e-05 -0.00405873
0.014516 8.44882e-21 0.0042716 -9.46294e-05 0.00244873 -1.50109e-05
0.0150861 3.43148e-20 0.00165189 -0.000431196 0.00555591 9.00669e-06
-0.0150861 -1.64128e-21 0.00165188 -0.0037027 9.22392e-05 -0.00791242
0.014707 0 0.0040482 -0.000171864 0.00413102 -1.6782e-06
-0.014707 -2.71051e-20 0.0040482 0.00398731 0.000117713 -0.00777381
0.0151175 0 0.00230446 -0.000509063 0.00675859 3.2337e-05
-0.0151175 1.62417e-21 0.00230446 -0.00117725 0.000132957 -0.0109432
0.0150684 -2.06795e-25 0.00261829 -0.000488669 0.00683236 3.6779e-05
0.0146108 0 0.00452168 -4.54071e-05 0.0015803 -1.26933e-05
-0.0146108 0 0.00452168 0.00208818 3.81643e-05 -0.00263974
-0.0149933 -3.80007e-20 0.00309786 0.00229913 0.000167951 -0.0122081
0.0149933 4.1359e-25 0.00309786 -0.000457505 0.00694509 4.35669e-05
0.0153398 2.56277e-20 0.000978644 -0.000253454 0.00337793 7.53512e-06
-0.0153398 1.2094e-20 0.000978635 -0.00518243 5.30745e-05 -0.00430994
0.0153745 0 1.29805e-08 -1.52335e-09 4.15299e-08 -3.24664e-10
-0.0153745 0 2.22893e-08 -1.1957e-07 8.20552e-09 -4.03654e-08
-0.0146354 0 0.00482017 1.97705e-08 5.09605e-10 -2.68974e-08
0.0146354 0 0.00482017 -1.91242e-10 1.01379e-08 2.82021e-11
-0.0149803 6.29567e-21 0.0037633 0.00493117 0.000174261 -0.0113234
0.0149803 -8.27181e-25 0.0037633 -0.000300073 0.00580253 5.49641e-05
0.0153272 0 0.00275021 -0.00057956 0.00755444 0.000104771
-0.0153272 -2.71051e-20 0.00275021 0.000584296 0.000175826 -0.0138397
-0.0149658 -1.06954e-21 0.00441692 0.00501112 0.0001264 -0.00791063
0.0149658 8.27181e-25 0.00441693 -0.000101453 0.003356 4.85558e-05
-0.014927 -2.71051e-20 0.00477488 0.0033017 7.06374e-05 -0.00469009
0.014927 -5.42101e-20 0.00477488 -1.19435e-05 0.00157637 1.95525e-05
0.0152999 0 0.00342236 -0.00048159 0.00738191 0.000133233
-0.0152999 2.71051e-20 0.00342236 0.00477988 0.000216107 -0.0144302
0.015716 5.42101e-20 0.00173426 -0.000635755 0.00582478 0.000118542
-0.015716 5.42101e-20 0.00173426 -0.006215 9.68951e-05 -0.00840723
0.0152841 -5.42101e-20 0.00407715 -0.000234736 0.00597398 0.000129805
-0.0152841 2.71051e-20 0.00407715 0.00782144 0.000226779 -0.013809
0.0149898 0 0.00508707 6.61501e-12 3.77553e-09 8.58194e-11
-0.0149898 0 0.00508707 9.34011e-09 2.15634e-10 -1.13342e-08
0.0156647 -4.1359e-25 0.00240043 -0.000682276 0.00727176 0.000193146
-0.0156647 -1.56624e-20 0.00240043 -0.00159101 0.000149573 -0.0108408
-0.0158727 1.0842e-19 0.000520994 -0.00779292 1.0296e-05 -0.00176731
0.0158727 -5.42101e-20 0.000520992 -0.000122473 0.00178306 -2.2404e-05
0.0156354 1.03398e-25 0.00287872 -0.000645139 0.00761343 0.000216589
-0.0151702 -3.72645e-22 0.00482145 0.0055367 0.000119109 -0.00723733
0.0151702 8.2991e-21 0.00482145 -2.05521e-05 0.00235837 6.11931e-05
-0.015623 -1.63432e-20 0.00308126 0.00228455 0.000192405 -0.0126465
0.015623 0 0.00308126 -0.000629413 0.00775812 0.000226516
-0.0153271 2.71051e-20 0.00461022 0.0083478 0.000196452 -0.0117067
0.0153271 0 0.00461022 -6.91577e-05 0.00403418 0.000117608
0.0156022 0 0.00374982 -0.000434279 0.00733137 0.000251756
-0.0156022 1.15971e-21 0.00374982 0.00653902 0.000232721 -0.0137163
-0.0151797 1.03398e-25 0.00523007 0 0 0
0.015269 -2.71051e-20 0.00505544 1.86676e-05 0.0014962 4.7638e-05
-0.015269 2.71051e-20 0.00505544 0.00502292 9.18226e-05 -0.00540418
0.0159605 0 0.00272817 -0.000804162 0.00785076 0.00031809
-0.0159605 0 0.00272817 -0.000915588 0.000155908 -0.00948381
-0.0155971 -2.10666e-20 0.0043751 0.00931901 0.00024397 -0.0134934
0.0155971 0 0.0043751 -0.000172795 0.0057817 0.000233273
-0.0160322 0 0.00235138 -0.00291034 0.000130313 -0.00840136
-0.0153431 1.03398e-25 0.00535318 1.42228e-08 2.27324e-10 -1.45597e-08
0.0153431 -1.29247e-26 0.00535318 6.78721e-12 2.46187e-10 1.14308e-11
-0.0154076 0 0.0052069 0.00290881 6.29867e-05 -0.00341605
0.0159183 5.42101e-20 0.00340547 -0.0006552 0.00823011 0.000349846
-0.0159183 -2.71051e-20 0.00340547 0.00460411 0.000220586 -0.0127375
0.0155359 0 0.00491577 6.80713e-07 0.00329603 0.000145947
-0.0155359 1.41866e-20 0.00491577 0.00869801 0.000188345 -0.0102148
-0.0159245 2.71051e-20 0.00405169 0.00888847 0.000266545 -0.0138618
0.0159245 2.71051e-20 0.00405169 -0.000369159 0.00773639 0.000392946
0.0163947 -2.47708e-20 0.00113361 -0.000560641 0.00380852 0.00010147
-0.0163947 0 0.0011336 -0.0085899 3.53453e-05 -0.00319832
0.0161888 -5.16988e-26 0.00306055 -0.000810864 0.00805791 0.00040587
0.0164795 0 4.5134e-08 -1.08416e-08 9.59186e-08 -8.0874e-10
-0.0164795 0 7.53989e-09 -8.17153e-08 1.56098e-09 -7.72698e-09
-0.0163851 -5.16988e-26 0.00180393 -0.00605039 7.93158e-05 -0.00486246
-0.0162478 0 0.00305839 0.000951213 0.000169362 -0.00877174
0.0162478 0 0.00305839 -0.000829798 0.00808919 0.000424584
0.0163779 -1.93548e-20 0.00230526 -0.000926608 0.00704503 0.000362237
-0.0163779 0 0.00230525 -0.00415118 0.0001122 -0.00610702
0.0156904 -2.71051e-20 0.00524875 8.58123e-05 0.00229959 0.000123731
-0.0156904 -2.71051e-20 0.00524875 0.00964482 0.000187451 -0.0096578
0.0162566 -1.29247e-26 0.00314393 -0.000797378 0.00811442 0.000437492
0.0158759 2.71051e-20 0.00471202 -3.6593e-05 0.00566318 0.000313068
-0.0158759 -2.71051e-20 0.00471202 0.0123456 0.000293082 -0.0148376
-0.0165637 -2.06795e-25 0.00113717 -0.00874234 3.17222e-05 -0.00277496
0.0156951 0 0.00561829 6.95281e-10 1.29943e-08 8.96945e-10
-0.0156951 0 0.00561829 4.35377e-08 7.28359e-10 -4.13945e-08
0.0163084 0 0.00364992 -0.000605606 0.00826364 0.000513849
-0.0163084 0 0.00364992 0.00542956 0.000211473 -0.00974799
0.016199 0 0.00441125 -0.000221383 0.00741143 0.000496621
-0.016199 2.63777e-20 0.00441125 0.0102073 0.000266362 -0.011876
-0.016068 5.16988e-26 0.00518819 0.0106676 0.000238638 -0.0102764
0.0161146 -1.43821e-20 0.00513441 8.68955e-05 0.00447558 0.000334165
-0.0161146 1.76055e-20 0.00513441 0.0120015 0.000268477 -0.0115613
-0.016031 0 0.0055414 0.0109911 0.000231281 -0.0100454
0.016031 -2.71051e-20 0.0055414 0.000151428 0.00217029 0.000178206
-0.0169948 0 1.57361e-20 0 0 0
-0.0165964 0 0.00369035 0.00478475 0.000179403 -0.00615801
-0.0161687 5.16988e-26 0.00526118 0.0122176 0.000270937 -0.0114041
0.0165301 0 0.00408038 -0.000469864 0.00877197 0.0006796
-0.0165301 2.71051e-20 0.00408038 0.00705741 0.000207231 -0.00754542
0.0170241 -5.42101e-20 0.0005776 -0.000315956 0.00198335 -1.15406e-05
-0.0170241 0 0.000577601 -0.0106897 -2.11952e-05 0.000199642
0.0169741 5.42101e-20 0.00175445 -0.00118855 0.00581169 0.000327128
-0.0169741 5.42101e-20 0.00175445 -0.00957409 5.92661e-05 -0.0031128
-0.0160456 4.1359e-25 0.00588233 6.73884e-08 1.11909e-09 -5.88783e-08
0.0160456 0 0.00588233 1.02665e-09 1.17879e-08 1.17138e-09
0.0168708 -5.42101e-20 0.00304668 -0.00114362 0.00826901 0.000718571
-0.0168708 -1.0842e-19 0.00304668 -0.00160799 0.000112248 -0.0014223
0.0164827 -5.42101e-20 0.00476235 -1.66839e-05 0.00752501 0.000607721
-0.0164827 2.71051e-20 0.00476235 0.0124519 0.000297052 -0.0111206
0.0168025 -6.46235e-27 0.00371927 -0.000702809 0.0088996 0.000765169
0.0163092 7.98333e-21 0.00559034 0.000199698 0.00313444 0.000298712
-0.0163092 0 0.00559034 0.0127787 0.000277323 -0.0109958
-0.0168571 0 0.00372694 0.00420118 0.000150379 -0.00290896
0.0168571 0 0.00372694 -0.00071356 0.00896994 0.000792968
0.0168524 -6.46235e-27 0.00384281 -0.000649062 0.00893589 0.000792295
0.0165194 0 0.0053648 0.000233717 0.00526642 0.000490149
-0.0165194 -2.71051e-20 0.0053648 0.0147944 0.000342697 -0.0123986
-0.0168333 -2.58494e-26 0.00431301 0.00775617 0.000194223 -0.00465308
0.0168293 0 0.00441207 -0.000332184 0.00876858 0.000788988
-0.0168293 6.46235e-27 0.00441207 0.00835705 0.000201633 -0.00494788
-0.016393 -2.71051e-20 0.00584515 0.0126353 0.000261001 -0.0106089
0.016393 2.71051e-20 0.00584515 0.000214972 0.00207682 0.000236918
-0.0163955 0 0.00614428 8.09234e-08 1.37181e-09 -6.56012e-08
0.0163955 4.1359e-25 0.00614428 1.354e-09 1.11319e-08 1.45882e-09
-0.0169489 0 0.00440665 0.00804297 0.000187513 -0.00338272
0.0168096 0 0.00506989 0.000105502 0.00731169 0.00070796
-0.0168096 -1.29247e-26 0.00506989 0.0122619 0.000280241 -0.00768127
-0.0168053 0 0.00515263 0.012346 0.00028369 -0.00782091
0.017623 3.30872e-24 2.17597e-08 -1.10155e-08 4.90741e-08 2.17425e-10
-0.017623 -1.65436e-24 1.01887e-08 -1.1178e-07 -2.35623e-09 8.21524e-09
0.0175916 7.34536e-21 0.00115888 -0.00100556 0.00400155 0.000215708
-0.0175916 0 0.00115887 -0.00966949 9.68629e-06 -0.000200088
-0.0171737 -2.71051e-20 0.004052 0.00490131 0.000118647 0.000635231
0.0171737 2.71051e-20 0.004052 -0.000692472 0.00957172 0.000944887
0.0175442 2.16208e-20 0.00239621 -0.00153258 0.00724722 0.000629913
-0.0175442 0 0.00239621 -0.00494044 6.28624e-05 0.000873593
-0.0167746 0 0.00574376 0.0129464 0.000308335 -0.00881858
0.0167746 5.16988e-26 0.00574376 0.000303945 0.00426092 0.000489847
-0.0171404 2.71051e-20 0.0047287 0.00907216 0.000184657 -0.00181107
0.0171404 2.71051e-20 0.0047287 -0.000151791 0.00917304 0.000921776
-0.016705 0 0.00611265 0.0122492 0.000293978 -0.00957689
0.016705 0 0.00611265 0.0002809 0.00203648 0.000294385
0.0174986 -5.16988e-26 0.00354411 -0.00108764 0.00928069 0.000941933
-0.0174986 0 0.00354412 0.00262581 9.20318e-05 0.00346735
-0.0167191 4.1359e-25 0.00643602 8.07046e-08 1.59824e-09 -6.34446e-08
0.0167191 0 0.00643602 1.58032e-09 1.08841e-08 1.72567e-09
-0.0171168 -2.71051e-20 0.00539052 0.0124668 0.000289403 -0.00493097
0.0171168 2.71051e-20 0.00539052 0.000338199 0.0074646 0.000831439
0.0174765 1.29247e-26 0.0041983 -0.000657125 0.00961383 0.000995672
-0.0172565 0 0.00505616 0.0106241 0.000219297 -0.000813655
-0.0174702 -5.16988e-26 0.00438304 0.00667452 0.00012599 0.00343656
0.0174702 0 0.00438304 -0.000535548 0.00970791 0.00101085
-0.0169667 2.3884e-20 0.00617943 0.0118259 0.000325644 -0.00804296
0.0169667 1.23494e-20 0.00617943 0.000348832 0.00304347 0.000430864
0.0174493 0 0.00505023 2.618e-05 0.00900699 0.000990448
-0.0174493 0 0.00505023 0.00991732 0.000192998 0.00214982
-0.0171679 2.71051e-20 0.00597129 0.012687 0.000360066 -0.0061143
0.0171679 0 0.00597129 0.000464952 0.00513081 0.000663963
0.0182005 -1.0842e-19 0.00058338 -0.000615047 0.0020569 2.8399e-05
-0.0182005 5.42101e-20 0.000583381 -0.00985297 -3.11741e-05 0.00121798
-0.017043 -2.71051e-20 0.00643779 0.0105689 0.000323938 -0.00837866
0.017043 -2.71051e-20 0.00643779 0.000304224 0.00202769 0.000341431
0.0177879 2.71051e-20 0.00403219 -0.000947637 0.00997111 0.0010692
-0.0177879 0 0.00403219 0.00460245 8.10807e-05 0.00689892
-0.0181761 -1.0842e-19 0.00178292 -0.00852458 3.35267e-05 0.000856394
0.0181761 0 0.00178292 -0.00193122 0.00625113 0.000529129
-0.0170214 4.1359e-25 0.00674884 6.85361e-08 1.64829e-09 -4.34273e-08
0.0170214 -4.1359e-25 0.00674884 1.73561e-09 1.07539e-08 1.90753e-09
-0.0174458 0 0.00568734 0.011256 0.000274963 0.000133356
0.0174458 -3.41019e-21 0.00568734 0.000422665 0.00724623 0.000887297
-0.0177804 -2.71051e-20 0.00470438 0.00820031 0.00012108 0.00792786
0.0177804 0 0.00470438 -0.000342062 0.0101011 0.00110619
-0.0181642 -1.0842e-19 0.00305697 0.000258138 4.82049e-05 0.00726877
0.0181642 5.42101e-20 0.00305697 -0.00186321 0.00875166 0.000959846
-0.0181317 -2.06795e-25 0.00370155 0.00470701 6.84549e-05 0.00982707
0.0181317 1.63857e-21 0.00370155 -0.00126155 0.00974352 0.00102934
-0.01741 0 0.00635261 0.00958117 0.000320561 -0.00205448
0.01741 -2.59746e-20 0.00635261 0.000457497 0.0041454 0.000598183
-0.0177702 -2.71051e-20 0.00535529 0.00995862 0.000177681 0.00735681
0.0177702 0 0.00535529 0.000255273 0.00927311 0.00110048
-0.0173274 0 0.00672747 0.00797093 0.000311128 -0.00339199
0.0173274 -2.71051e-20 0.00672747 0.000328623 0.00192699 0.000351147
0.0181132 0 0.00420721 -0.000888044 0.010063 0.00105415
-0.0181076 3.26442e-21 0.00436205 0.00747402 9.13686e-05 0.0118233
0.0181076 6.46235e-27 0.00436205 -0.000773673 0.0101609 0.00106175
-0.0173238 4.1359e-25 0.00706119 4.56665e-08 1.54901e-09 -1.59414e-08
0.0173238 4.1359e-25 0.00706119 1.85509e-09 1.06371e-08 1.99394e-09
0.0177503 0 0.00600627 0.00062332 0.0073327 0.000975866
-0.0177503 2.71051e-20 0.00600627 0.00977219 0.000263535 0.00488475
-0.018098 -1.63446e-20 0.00501826 0.00941842 0.000130671 0.0134132
0.018098 0 0.00501826 -0.000159489 0.0100254 0.00108998
-0.0187969 0 1.59693e-08 -1.57427e-07 -3.85013e-09 1.25021e-08
0.0187969 1.65436e-24 1.06448e-08 -9.42835e-09 2.54478e-08 6.47012e-10
-0.0187878 0 0.00116731 -0.00711293 -1.51738e-05 0.00139973
0.0187878 3.70221e-20 0.00116731 -0.0015456 0.0043458 0.000292911
-0.0175851 2.16202e-20 0.00679799 0.0065215 0.000328258 -0.000209292
0.0175851 -5.35682e-21 0.00679799 0.000422765 0.00291709 0.000480363
-0.0184432 2.71051e-20 0.00401963 0.00745178 6.85357e-05 0.0141226
0.0184432 2.71051e-20 0.00401963 -0.00120115 0.0101178 0.0010329
-0.0187844 0 0.00239454 0.000465026 3.07993e-05 0.00732339
0.0187844 -3.07554e-20 0.00239454 -0.00222682 0.0077836 0.000670804
-0.0180831 0 0.00566925 0.00942726 0.000186737 0.012976
0.0180831 0 0.00566925 0.000379872 0.00899901 0.00107058
0.0177912 0 0.00658995 0.000606712 0.0049629 0.000734833
-0.0177912 0 0.00658995 0.00698233 0.000341894 0.00396145
-0.0184158 -2.71051e-20 0.00467993 0.00962334 9.50942e-05 0.0181549
0.0184158 0 0.00467993 -0.000603846 0.010445 0.00103985
-0.0176529 -2.71051e-20 0.00706043 0.00461812 0.000332321 -0.00103569
0.0176529 0 0.00706043 0.000339807 0.00193718 0.000364575
-0.0176264 -4.1359e-25 0.00737367 2.03008e-08 1.42698e-09 1.11313e-08
0.0176264 0 0.00737367 1.98436e-09 1.08706e-08 2.09569e-09
-0.0180712 2.58494e-26 0.00630777 0.00718829 0.000257301 0.0111023
0.0180712 0 0.00630777 0.000647144 0.00706962 0.000937598
-0.0184261 -2.71051e-20 0.0053197 0.00991037 0.000129724 0.0200484
0.0184261 -2.71051e-20 0.0053197 5.60591e-05 0.0102631 0.00111255
-0.0188515 2.06795e-25 0.00360143 0.00881292 6.99577e-05 0.0171112
0.0188515 0 0.00360143 -0.00165001 0.00963405 0.000855116
0.0188003 -6.46235e-27 0.00397534 -0.0013275 0.00994118 0.000901634
-0.0187497 -2.08725e-20 0.00434473 0.0103507 8.70271e-05 0.0196384
0.0187497 1.29247e-26 0.00434473 -0.00100889 0.0102446 0.000947592
-0.018025 1.03398e-25 0.00697581 0.00306538 0.000305715 0.00739785
0.018025 0 0.00697581 0.000535867 0.00398776 0.000610562
-0.0183967 0 0.00598007 0.00811604 0.000175951 0.0196705
0.0183967 -2.71051e-20 0.00598007 0.000575319 0.00913024 0.00109172
0.0190444 -3.87741e-26 0.00361107 -0.00171039 0.00966042 0.000753866
-0.0179363 0 0.0073519 0.00108125 0.000308389 0.00412215
0.0179363 -2.71051e-20 0.0073519 0.00034514 0.00184266 0.000355746
-0.0193896 5.42101e-20 0.000584898 -0.00823301 -4.4224e-05 0.000217857
0.0193896 0 0.000584906 -0.00101582 0.0022418 8.27652e-05
-0.0188216 2.24226e-20 0.00491492 0.011218 0.000111995 0.024882
0.0188216 -2.43697e-20 0.00491492 -0.000421667 0.0103805 0.000953029
-0.0193933 -5.42101e-20 0.00177944 -0.00175848 -1.76351e-05 0.00332996
0.0193933 0 0.00177943 -0.00265561 0.00693968 0.00054312
-0.0179292 4.1359e-25 0.00768641 -6.16069e-09 1.13092e-09 4.84249e-08