# UMean  POINT_DATA 25961
# x  y  z  UMean_x  UMean_y  UMean_z
0.01 0 8.31199e-08 -2.70255e-19 8.74788e-17 1.15563e-19
-0.01 0 8.31199e-08 -1.64023e-17 7.70058e-17 -1.85807e-17
-0.01 0 0.00067832 1.78312e-12 7.55815e-12 4.37768e-13
0.01 0 0.00067832 -1.42739e-13 4.82944e-11 -7.36072e-14
0.0100157 7.75482e-26 0.000677127 -1.21089e-07 1.49447e-05 -1.63776e-08
-0.01 0 0.00137372 2.56118e-11 1.55934e-10 4.68033e-11
0.01 0 0.00137372 -4.63838e-12 1.50518e-09 -3.10983e-12
0.0100746 0 0.00135804 -1.37515e-06 0.000153361 -4.86727e-07
-0.01 0 0.002087 5.80181e-12 2.12378e-11 8.49005e-12
0.01 0 0.002087 -4.9559e-17 7.59563e-15 -3.09469e-17
-0.0102613 0 0.000329046 -1.53276e-06 5.5731e-06 -1.78601e-06
0.0102613 2.71051e-20 0.000329046 -4.65491e-08 1.46423e-05 2.39054e-08
0.0102561 2.71051e-20 0.000988366 -1.86464e-06 0.000636073 -1.01369e-06
-0.0102561 -2.71051e-20 0.000988366 1.79515e-05 9.49972e-05 5.77444e-06
0.0102356 2.71051e-20 0.00161953 -1.94209e-06 0.000604828 -1.56734e-06
-0.0102356 0 0.00161953 2.80202e-06 8.95881e-05 3.50701e-05
0.0105293 -4.1359e-25 8.89198e-08 -3.00923e-13 4.58324e-11 -7.37375e-14
-0.0105293 0 8.68458e-08 -1.19846e-13 5.62648e-13 -4.03274e-13
0.0105282 -2.06795e-25 0.000279278 -1.77378e-06 0.000218919 -2.39909e-07
-0.0105268 -2.08425e-20 0.000638363 3.8719e-05 7.41958e-05 5.75125e-06
0.0105268 -1.52449e-21 0.000638362 -4.05513e-06 0.000500481 -5.48469e-07
-0.0105159 1.65436e-24 0.0012653 7.03369e-05 0.000153008 4.22878e-05
0.0105159 -2.13925e-20 0.0012653 -9.50586e-06 0.00106012 -3.36454e-06
-0.0105028 -1.06839e-20 0.0017228 3.82119e-05 0.000139864 5.59144e-05
0.0105028 -1.34979e-20 0.0017228 -9.19885e-06 0.000969311 -4.80608e-06
-0.010496 2.71051e-20 0.00202291 -3.96975e-06 0.000105991 3.17824e-05
0.010496 -2.71051e-20 0.00202291 -6.78904e-06 0.000721973 -3.90643e-06
0.0104977 0 0.00235078 -5.19201e-10 3.94514e-08 -2.98823e-10
-0.0104977 0 0.00235077 -1.03959e-09 3.94017e-09 2.43654e-09
-0.0108033 2.71051e-20 0.000314595 1.36811e-07 3.17317e-06 -2.00952e-06
0.0108033 2.71051e-20 0.000314594 -9.69533e-08 8.22088e-06 -5.91414e-08
-0.0108031 2.71051e-20 0.00093799 0.000136176 0.000192157 2.08128e-05
0.0108031 0 0.00093799 -1.39892e-05 0.00133642 -1.15558e-06
-0.01079 -2.71051e-20 0.00152732 0.000122735 0.000231816 0.000104917
0.01079 -2.71051e-20 0.00152732 -1.97971e-05 0.00163783 -9.34645e-06
-0.0110754 0 7.36178e-09 5.73154e-12 1.14353e-11 -1.21417e-11
0.0110754 0 6.46274e-09 -5.90667e-13 3.08867e-11 -2.39096e-13
0.01108 0 0.000208299 -3.83622e-06 0.000264984 -2.54759e-07
-0.0110889 0 0.000613667 0.000120518 0.000110318 1.69483e-05
0.0110889 -2.63209e-21 0.000613666 -1.13019e-05 0.000780671 -7.50548e-07
-0.0108991 2.71051e-20 0.00228385 -3.80043e-05 0.00012628 6.77374e-05
0.0108991 5.42101e-20 0.00228385 -1.46574e-05 0.000894566 -8.4526e-06
0.010988 -2.7115e-20 0.00190078 -2.6774e-05 0.0015387 -1.24638e-05
-0.010988 0 0.00190081 8.37306e-05 0.000211621 0.000120378
-0.0110831 -1.65436e-24 0.00123268 0.000221057 0.000249445 9.47972e-05
0.0110831 1.26559e-20 0.00123266 -2.82595e-05 0.0018006 -7.70839e-06
0.0109863 0 0.00260985 -1.29954e-09 6.90967e-08 -7.46482e-10
-0.0109863 6.61744e-24 0.00260985 -4.42237e-09 6.30398e-09 6.56648e-09
0.0113733 0 0.000305239 -2.10657e-07 8.3057e-06 -6.75888e-08
-0.0113733 0 0.000305239 1.72517e-06 2.78617e-06 -2.32067e-06
-0.0113913 0 0.000918847 0.000348946 0.000247828 5.20983e-05
0.0113913 0 0.000918847 -3.13733e-05 0.00180324 -1.74937e-06
0.0112123 1.12761e-20 0.00231934 -2.66283e-05 0.00128415 -1.39751e-05
-0.0112123 2.62713e-21 0.00231934 -1.62054e-05 0.000174048 0.000126853
-0.0113682 -2.71051e-20 0.00155884 0.00028388 0.000328839 0.000203747
0.0113682 -2.71051e-20 0.00155884 -4.87363e-05 0.00244874 -1.87514e-05
0.0114039 -5.42101e-20 0.00209577 -4.58317e-05 0.00206465 -2.23487e-05
-0.0114039 2.71051e-20 0.00209577 7.34237e-05 0.000274548 0.000200303
0.011595 2.58494e-26 2.35794e-09 0 0 0
0.0113392 -2.71051e-20 0.00255892 -1.92827e-05 0.000895226 -1.10542e-05
-0.0113392 0 0.00255892 -8.22489e-05 0.000121737 0.000111181
-0.0116471 0 3.40354e-09 8.28914e-12 4.41941e-12 -1.15867e-11
0.0116471 0 2.32037e-09 -9.11248e-14 3.27844e-12 -5.54564e-14
-0.0116865 0 0.000598049 0.000262164 0.00013138 3.74622e-05
0.0116865 2.92168e-20 0.000598049 -2.05767e-05 0.000979402 -9.16678e-07
-0.0117045 0 0.00122297 0.000501177 0.000312584 0.000146367
0.0117045 -1.815e-20 0.00122297 -5.51126e-05 0.00239147 -1.30647e-05
0.0114599 0 0.00285977 -2.65783e-09 9.37279e-08 -1.41537e-09
-0.0114598 0 0.00285975 -9.3191e-09 7.92935e-09 1.29208e-08
0.0117133 2.22677e-20 0.00184588 -6.82021e-05 0.00265072 -2.83409e-05
-0.0117133 3.30872e-24 0.00184588 0.000291724 0.00033729 0.000214914
0.0116596 1.99913e-20 0.00239949 -4.96056e-05 0.00179735 -2.44491e-05
-0.0116596 0 0.00239948 -3.38875e-06 0.000228558 0.000190116
0.0119676 2.71051e-20 0.000293859 -2.85556e-07 8.63551e-06 -2.06445e-07
-0.0119676 2.71051e-20 0.000293859 4.07271e-06 1.43453e-06 -6.11928e-06
-0.0120019 -1.03398e-25 9.94023e-10 0 0 0
-0.0120131 2.71051e-20 0.000895955 0.000709623 0.000280656 0.000108758
0.0120131 0 0.000895956 -5.16334e-05 0.00215173 -1.68374e-06
0.0120433 5.42101e-20 0.00152444 -8.91377e-05 0.00318054 -3.06132e-05
-0.0120433 2.71051e-20 0.00152444 0.000658075 0.000395386 0.00022534
-0.0118604 -5.42101e-20 0.00273055 -0.000159109 0.000177169 0.000224284
0.0118604 -2.71051e-20 0.00273056 -4.63565e-05 0.00139905 -2.4008e-05
0.0120387 -2.71051e-20 0.00217273 -9.17166e-05 0.00297172 -4.24344e-05
-0.0120387 0 0.00217273 0.000173523 0.000356861 0.000231948
0.0122418 -4.1359e-25 3.11206e-09 -1.96549e-12 6.16341e-11 -2.68398e-12
-0.0122418 -1.03398e-25 1.04582e-09 2.08294e-11 2.89369e-12 -1.43512e-11
-0.0122568 2.06795e-25 0.000136244 0.000101648 3.40564e-05 1.44353e-05
0.0119119 0 0.00310459 -3.3803e-09 9.46045e-08 -1.76933e-09
-0.0119119 6.61744e-24 0.00310459 -1.19024e-08 7.20537e-09 1.21744e-08
0.0123043 -2.01443e-20 0.000568947 -2.88277e-05 0.00110839 -7.24842e-07
-0.0123043 -1.23721e-20 0.000568945 0.000424473 0.000142217 6.02809e-05
0.01236 5.58512e-21 0.00118123 -8.44391e-05 0.0028558 -1.88547e-05
-0.01236 -8.27181e-25 0.00118125 0.000839672 0.000349414 8.55156e-05
-0.0124541 -1.03398e-25 1.48697e-10 0 0 0
0.0123814 1.50017e-20 0.00184432 -0.000117412 0.00347376 -4.61164e-05
-0.0123814 0 0.00184434 0.000571891 0.000396594 1.38152e-05
-0.0125711 2.71051e-20 0.000269458 1.95315e-05 1.00086e-06 -1.0032e-05
0.0125711 -2.71051e-20 0.000269458 -3.26932e-07 9.42733e-06 -5.59896e-07
0.0123374 -1.70498e-20 0.00258488 -9.36654e-05 0.00249467 -4.51679e-05
-0.0123374 -5.93254e-21 0.00258488 6.34904e-05 0.000270702 2.91866e-05
0.0122817 0 0.00299995 -5.3618e-05 0.00137382 -2.85334e-05
-0.0122817 -2.71051e-20 0.00299995 -0.000214268 0.000154359 0.000158831
0.0126475 -2.71051e-20 0.000839063 -6.47913e-05 0.00233059 -4.61749e-07
-0.0126475 0 0.000839063 0.000989171 0.000294368 0.000152751
0.0123472 -3.30872e-24 0.00333734 -2.57539e-09 5.89564e-08 -1.36822e-09
-0.0123472 0 0.00333734 -8.37389e-09 3.88029e-09 6.93316e-09
-0.0127108 2.71051e-20 0.0014705 0.000997861 0.000429296 -0.000143228
0.0127108 2.71051e-20 0.0014705 -0.000132782 0.00377825 -4.32311e-05
0.0128491 1.65436e-24 5.01678e-09 -2.47913e-12 1.44178e-10 -1.1256e-11
-0.0128491 0 1.4199e-09 4.75763e-11 1.21747e-12 -3.70753e-12
0.0127172 2.71051e-20 0.00217074 -0.00015655 0.00397412 -6.80953e-05
-0.0127172 0 0.00217074 0.000472249 0.000405865 -0.000264381
0.0129129 1.7772e-20 0.000505056 -3.04417e-05 0.00109727 -2.38222e-06
-0.0129129 0 0.000505053 0.000392662 0.000137686 -2.76947e-05
0.0125922 1.71011e-20 0.00303079 -8.11547e-05 0.00185977 -4.23694e-05
-0.0125922 -2.95667e-20 0.00303079 -9.93509e-05 0.000186885 3.59047e-05
0.0130203 -4.5313e-21 0.00108239 -0.000104076 0.00307512 -2.52626e-05
-0.0130203 0 0.0010824 0.000831894 0.000355454 -0.000444755
0.012793 5.42101e-20 0.00278388 -0.000130356 0.00302725 -6.67216e-05
-0.012793 0 0.00278388 0.000116239 0.000286624 -0.000242396
0.0127108 -5.42101e-20 0.00327268 -6.13709e-05 0.00123388 -3.27705e-05
-0.0127108 2.71051e-20 0.00327268 -0.000191406 0.000125016 0.000178484
0.0131383 2.71051e-20 0.000218112 2.56368e-09 1.0328e-05 -9.57303e-07
-0.0131383 2.71051e-20 0.000218112 1.06126e-05 4.70077e-07 6.55209e-06
0.013073 -1.26559e-22 0.0017651 -0.00016958 0.00419642 -6.294e-05
-0.013073 0 0.00176511 0.00072692 0.000419549 -0.00106989
0.0127674 0 0.00356123 -1.40638e-09 2.64839e-08 -7.57448e-10
-0.0127674 -1.65436e-24 0.00356123 -2.59482e-09 1.3937e-09 8.54467e-10
-0.0132689 0 0.000719701 0.000593089 0.000268952 -0.000259913
0.0132689 0 0.0007197 -5.97607e-05 0.00214988 -7.63757e-06
0.0130872 1.59067e-21 0.00246807 -0.000180417 0.00399932 -8.12886e-05
-0.0130872 0 0.00246808 0.000481495 0.0003504 -0.00117111
0.0133746 2.37649e-20 0.000406313 -2.01923e-05 0.000773915 -2.06934e-06
-0.0133746 1.82459e-20 0.000406306 0.000142707 9.60516e-05 -4.95863e-05
0.0134599 0 1.02233e-08 -2.39026e-11 3.07261e-09 2.768e-11
-0.0134599 8.27181e-25 3.72109e-09 -8.82794e-10 6.80506e-11 6.03384e-10
0.0130916 1.83692e-20 0.00314268 -0.000123875 0.00244521 -6.29566e-05
-0.0130916 2.06795e-25 0.00314268 0.000207164 0.000200479 -0.000656061
-0.0134186 -2.71051e-20 0.00131377 0.000759849 0.000437153 -0.00153311
0.0134186 2.71051e-20 0.00131377 -0.000162766 0.00412454 -5.17783e-05
0.013075 0 0.00349045 -7.0863e-05 0.00123083 -3.85418e-05
-0.013075 0 0.00349045 -9.1732e-05 0.000105176 -8.38599e-05
-0.013162 4.1359e-25 0.00325434 0.000204488 0.000180369 -0.000625957
-0.0134232 0 0.00207248 0.000657023 0.000406903 -0.00231943
0.0134232 5.42101e-20 0.00207248 -0.000223943 0.00487621 -8.76367e-05
0.0132078 0 0.00332703 -0.000111497 0.00211492 -5.80304e-05
-0.0132595 0 0.00312606 0.000480783 0.00021879 -0.0013928
-0.0136984 0 0.000300358 -0.000174357 2.20569e-05 0.000104383
0.0136984 -2.71051e-20 0.000300357 -1.47274e-06 0.000188174 2.40487e-06
0.013418 -5.42101e-20 0.00277569 -0.000215625 0.00423071 -0.000103301
-0.013418 0 0.00277569 0.000707803 0.000311307 -0.00196372
0.0131762 -2.06795e-25 0.0037788 -1.8282e-10 3.23742e-09 -1.03454e-10
-0.0131762 0 0.0037788 9.52102e-13 2.62506e-11 -6.21367e-11
-0.0131848 5.16988e-26 0.00376504 1.08321e-05 7.17955e-06 -3.02261e-05
0.0133596 0 0.00311615 -0.000165112 0.00311524 -7.64458e-05
-0.0131928 -1.03398e-25 0.00378881 0 0 0
0.0132283 0 0.00369585 -3.23445e-05 0.000579293 -1.73776e-05
-0.013523 -2.06795e-25 0.00243331 0.000681557 0.000356463 -0.00309961
0.0137612 -1.41729e-20 0.000786143 -8.71117e-05 0.00233952 -2.25777e-05
-0.0137612 2.14405e-20 0.000786151 -7.03453e-05 0.000263046 -0.00120988
-0.0133341 0 0.00352736 0.000197945 0.000131199 -0.00055235
0.0133341 -3.4254e-20 0.00352736 -9.80467e-05 0.00175603 -5.26773e-05
0.0132767 -2.06795e-25 0.00383951 0 0 0
0.0137678 -5.15334e-22 0.00165537 -0.000219543 0.00472021 -6.92611e-05
-0.0137678 0 0.00165538 0.000237675 0.000414942 -0.00339787
-0.013482 2.71051e-20 0.00331696 0.000590079 0.000204763 -0.00137163
0.013482 0 0.00331696 -0.000159277 0.00290594 -8.17198e-05
-0.0137612 0 0.00191385 0.000423829 0.000396119 -0.0036356
0.0137268 -2.58494e-26 0.00241705 -0.000256582 0.00497142 -9.53363e-05
0.013749 0 0.00239287 -0.000257983 0.00499585 -9.50261e-05
-0.0137484 0 0.00241533 0.000785013 0.000359598 -0.00409687
0.0137484 -2.58494e-26 0.00241533 -0.000259153 0.00500424 -9.58106e-05
-0.013458 2.71051e-20 0.00374223 9.49237e-05 8.41525e-05 -0.000203278
0.013458 -5.42101e-20 0.00374223 -6.42941e-05 0.00113652 -3.78836e-05
0.0140709 0 3.70269e-08 -8.35508e-10 4.12871e-08 -1.3222e-10
-0.0140709 0 9.99199e-09 -8.33332e-09 7.96643e-10 -4.98903e-09
-0.0137488 2.11378e-20 0.00307762 0.00127843 0.00027217 -0.00354053
0.0137488 -1.73452e-20 0.00307762 -0.000224984 0.00408808 -9.60307e-05
-0.0135651 8.27181e-25 0.00401367 6.20369e-09 1.3806e-09 -7.4695e-09
0.0135651 0 0.00401367 -6.80602e-10 1.15634e-08 -4.13221e-10
0.0141231 2.71051e-20 0.00120897 -0.00019426 0.00427711 -5.20395e-05
-0.0141231 0 0.00120897 -0.000654875 0.000425892 -0.00379721
-0.0137164 -1.92146e-20 0.00361036 0.000984694 0.000160402 -0.0018561
0.0137164 7.00457e-21 0.00361036 -0.000136333 0.00239751 -6.81021e-05
0.014089 0 0.00201377 -0.000293985 0.00555725 -8.48759e-05
-0.014089 2.71051e-20 0.00201377 0.000123163 0.000390686 -0.00588127
-0.0142657 5.42101e-20 0.000418222 -0.000920285 0.000194421 -0.000767916
0.0142657 2.71051e-20 0.000418221 -3.01638e-05 0.00125673 -9.12248e-06
-0.014069 -2.71051e-20 0.0027392 0.00158065 0.00033139 -0.00625151
0.014069 0 0.0027392 -0.000303513 0.00536667 -0.000106519
0.0138967 0 0.00392747 -0.000102078 0.00172761 -6.30042e-05
-0.0138967 0 0.00392747 0.0010792 0.000114083 -0.00122312
0.0140496 0 0.00340311 -0.000233298 0.00405857 -9.49941e-05
-0.0140496 0 0.00340311 0.00233793 0.000252929 -0.00495904
-0.0143919 -6.46235e-27 0.00161694 -0.00110264 0.000401217 -0.00606877
0.014441 0 0.00161392 -0.000289617 0.00515784 -5.55493e-05
-0.014441 2.83767e-21 0.00161391 -0.00120816 0.000400137 -0.00627904
-0.0144454 -1.16322e-25 0.00157999 -0.00125285 0.000396549 -0.00614008
0.0145429 1.93395e-20 0.000823379 -0.000133866 0.00296666 -2.8119e-05
-0.0145429 0 0.000823363 -0.00224958 0.000316521 -0.00304042
-0.0139237 0 0.00428406 1.92604e-08 2.29353e-09 -2.65734e-08
0.0139237 -1.65436e-24 0.00428406 -1.10241e-09 2.02537e-08 -6.04194e-10
0.0143988 2.58494e-26 0.0023483 -0.000348125 0.00580219 -6.95447e-05
-0.014397 9.51671e-21 0.00237994 0.00073493 0.000369259 -0.0080916
0.014397 0 0.00237994 -0.000350646 0.00582995 -7.01477e-05
0.0144898 0 0.00237022 -0.000366201 0.00590404 -5.96272e-05
-0.0143653 -4.95068e-21 0.00309536 0.0026381 0.000321209 -0.00795772
0.0143653 0 0.00309537 -0.000315776 0.0052472 -7.44261e-05
0.0147022 0 4.94613e-08 -1.64904e-09 1.00433e-07 -4.82264e-10
-0.0147022 -1.65436e-24 1.20861e-08 -4.70962e-08 -3.82028e-10 -2.48765e-08
-0.014305 3.55117e-20 0.00382188 0.00299476 0.000213438 -0.00530316
0.014305 8.27181e-25 0.00382188 -0.000178484 0.00322919 -5.14909e-05
0.0142451 0 0.00421792 -7.91745e-05 0.00164639 -3.64257e-05
-0.0142451 0 0.00421792 0.00171348 0.000122516 -0.00262879
0.0147298 -8.13152e-20 0.00200539 -0.000393362 0.00608114 -4.53826e-05
-0.0147298 0 0.00200539 -0.000726617 0.000384822 -0.00941482
-0.0148165 0 0.00124392 -0.00358463 0.000399623 -0.00586287
0.0148165 0 0.00124392 -0.000271967 0.00467846 -4.09755e-05
-0.0149179 1.03398e-25 0.000896435 -0.00344899 0.000321261 -0.00352568
-0.0149609 0 2.9798e-17 0 0 0
0.014711 -2.71051e-20 0.00272495 -0.000410908 0.00630489 -4.41766e-05
-0.014711 -2.71051e-20 0.00272495 0.00190379 0.00037011 -0.0107695
-0.0149557 0 0.000461616 -0.0037861 0.000253901 -0.00174298
0.0149557 0 0.000461611 -3.98784e-05 0.00171761 -1.18166e-05
-0.0142802 0 0.00455258 2.95235e-08 2.0344e-09 -3.6127e-08
0.0142802 -8.27181e-25 0.00455258 -7.25786e-10 1.66738e-08 -3.10295e-10
0.0146561 0 0.00344874 -0.000323475 0.00535767 -4.98238e-05
-0.0146561 2.71051e-20 0.00344874 0.00468185 0.000335362 -0.0100929
-0.014516 -1.6116e-20 0.00427159 0.00344604 0.000167272 -0.00477502
0.014516 8.44882e-21 0.0042716 -0.000104689 0.00229993 -2.46264e-05
0.0150861 3.43148e-20 0.00165189 -0.000392498 0.00555712 -1.31798e-05
-0.0150861 -1.64128e-21 0.00165188 -0.00299049 0.000394177 -0.00756515
0.014707 0 0.0040482 -0.000181381 0.00378837 -1.56626e-05
-0.014707 -2.71051e-20 0.0040482 0.00549632 0.000267593 -0.00845004
0.0151175 0 0.00230446 -0.000471407 0.0064051 1.15282e-05
-0.0151175 1.62417e-21 0.00230446 -0.000159111 0.000391582 -0.0102909
0.0150684 -2.06795e-25 0.00261829 -0.000457342 0.00636868 1.69944e-05
0.0146108 0 0.00452168 -5.63192e-05 0.00151735 -2.15837e-05
-0.0146108 0 0.00452168 0.00318897 0.000115223 -0.00336809
-0.0149933 -3.80007e-20 0.00309786 0.00350576 0.000385216 -0.0116302
0.0149933 4.1359e-25 0.00309786 -0.000435848 0.00631302 2.53472e-05
0.0153398 2.56277e-20 0.000978644 -0.000227103 0.00354565 -5.37032e-06
-0.0153398 1.2094e-20 0.000978635 -0.00479818 0.000326593 -0.00407154
0.0153745 0 1.29805e-08 -1.12612e-09 4.52342e-08 -2.86258e-10
-0.0153745 0 2.22893e-08 -1.16402e-07 1.36918e-08 -4.05457e-08
-0.0146354 0 0.00482017 2.8089e-08 1.38026e-09 -3.12873e-08
0.0146354 0 0.00482017 -2.72028e-10 9.67762e-09 -3.79874e-11
-0.0149803 6.29567e-21 0.0037633 0.0062322 0.000352784 -0.0111395
0.0149803 -8.27181e-25 0.0037633 -0.000299334 0.0052245 3.73282e-05
0.0153272 0 0.00275021 -0.000543257 0.00697513 8.00579e-05
-0.0153272 -2.71051e-20 0.00275021 0.00158781 0.000412597 -0.0123678
-0.0149658 -1.06954e-21 0.00441692 0.00620559 0.000244592 -0.00808392
0.0149658 8.27181e-25 0.00441693 -0.000114059 0.00306102 3.45352e-05
-0.014927 -2.71051e-20 0.00477488 0.00446715 0.000147817 -0.0051563
0.014927 -5.42101e-20 0.00477488 -2.63392e-05 0.00149215 9.93561e-06
0.0152999 0 0.00342236 -0.000463656 0.00658997 0.000111793
-0.0152999 2.71051e-20 0.00342236 0.0057874 0.000420817 -0.0132148
0.015716 5.42101e-20 0.00173426 -0.000578047 0.00612576 7.86777e-05
-0.015716 5.42101e-20 0.00173426 -0.00549768 0.0003999 -0.00740315
0.0152841 -5.42101e-20 0.00407715 -0.000244564 0.00532163 0.000107928
-0.0152841 2.71051e-20 0.00407715 0.00895788 0.000395691 -0.0130489
0.0149898 0 0.00508707 -2.69062e-11 3.57015e-09 5.94951e-11
-0.0149898 0 0.00508707 1.15618e-08 4.95448e-10 -1.22575e-08
0.0156647 -4.1359e-25 0.00240043 -0.000631847 0.0069716 0.000163237
-0.0156647 -1.56624e-20 0.00240043 -0.000809745 0.000417602 -0.00943673
-0.0158727 1.0842e-19 0.000520994 -0.00724127 0.000253192 -0.00162082
0.0158727 -5.42101e-20 0.000520992 -9.69691e-05 0.00204302 -2.13478e-05
0.0156354 1.03398e-25 0.00287872 -0.000603965 0.007075 0.000191458
-0.0151702 -3.72645e-22 0.00482145 0.00655607 0.000209845 -0.0073976
0.0151702 8.2991e-21 0.00482145 -3.56441e-05 0.00217086 4.89477e-05
-0.015623 -1.63432e-20 0.00308126 0.00299943 0.000430909 -0.0110579
0.015623 0 0.00308126 -0.000592157 0.00711878 0.000203408
-0.0153271 2.71051e-20 0.00461022 0.009431 0.000326338 -0.011358
0.0153271 0 0.00461022 -8.70877e-05 0.0036378 0.000100555
0.0156022 0 0.00374982 -0.000421549 0.00653413 0.000232332
-0.0156022 1.15971e-21 0.00374982 0.00722382 0.000435031 -0.0121632
-0.0151797 1.03398e-25 0.00523007 0 0 0
0.015269 -2.71051e-20 0.00505544 5.67002e-06 0.00141027 3.74764e-05
-0.015269 2.71051e-20 0.00505544 0.00583181 0.000157656 -0.00575719
0.0159605 0 0.00272817 -0.00074491 0.00745943 0.000289161
-0.0159605 0 0.00272817 -0.000302476 0.000432501 -0.00791011
-0.0155971 -2.10666e-20 0.0043751 0.0100224 0.000404782 -0.0122434
0.0155971 0 0.0043751 -0.000183079 0.00512595 0.000215824
-0.0160322 0 0.00235138 -0.00208252 0.000419191 -0.00732879
-0.0153431 1.03398e-25 0.00535318 1.5243e-08 2.18552e-10 -1.45321e-08
0.0153431 -1.29247e-26 0.00535318 4.79365e-12 2.30295e-10 9.80901e-12
-0.0154076 0 0.0052069 0.0031118 9.80069e-05 -0.0032453
0.0159183 5.42101e-20 0.00340547 -0.000619299 0.00744345 0.000332206
-0.0159183 -2.71051e-20 0.00340547 0.00485061 0.000457146 -0.0106651
0.0155359 0 0.00491577 -1.60546e-05 0.00297972 0.000132499
-0.0155359 1.41866e-20 0.00491577 0.00930499 0.000293064 -0.00970419
-0.0159245 2.71051e-20 0.00405169 0.00923712 0.000466022 -0.011704
0.0159245 2.71051e-20 0.00405169 -0.000361915 0.00678302 0.00037618
0.0163947 -2.47708e-20 0.00113361 -0.000507671 0.00418534 8.40562e-05
-0.0163947 0 0.0011336 -0.00770585 0.000321611 -0.00297106
0.0161888 -5.16988e-26 0.00306055 -0.000760722 0.00756003 0.000385679
0.0164795 0 4.5134e-08 -9.27554e-09 1.13863e-07 -1.03581e-09
-0.0164795 0 7.53989e-09 -7.46802e-08 4.06632e-09 -8.01924e-09
-0.0163851 -5.16988e-26 0.00180393 -0.00517347 0.000378295 -0.00432997
-0.0162478 0 0.00305839 0.00154354 0.000444608 -0.00739872
0.0162478 0 0.00305839 -0.000778311 0.00760607 0.000404698
0.0163779 -1.93548e-20 0.00230526 -0.000860694 0.00704842 0.000336493
-0.0163779 0 0.00230525 -0.00327958 0.000420686 -0.00534624
0.0156904 -2.71051e-20 0.00524875 6.84159e-05 0.00213827 0.000110841
-0.0156904 -2.71051e-20 0.00524875 0.00995918 0.000267048 -0.00933487
0.0162566 -1.29247e-26 0.00314393 -0.000749419 0.00758437 0.000418851
0.0158759 2.71051e-20 0.00471202 -5.57379e-05 0.00500015 0.00029897
-0.0158759 -2.71051e-20 0.00471202 0.0125279 0.0004431 -0.0129575
-0.0165637 -2.06795e-25 0.00113717 -0.0078412 0.000320254 -0.00264745
0.0156951 0 0.00561829 5.9633e-10 1.20478e-08 8.2956e-10
-0.0156951 0 0.00561829 4.31508e-08 6.10466e-10 -3.79639e-08
0.0163084 0 0.00364992 -0.000578511 0.00745599 0.000502567
-0.0163084 0 0.00364992 0.00591302 0.000454947 -0.00801103
0.016199 0 0.00441125 -0.000223034 0.00648761 0.000488409
-0.016199 2.63777e-20 0.00441125 0.0103979 0.000457117 -0.00970167
-0.016068 5.16988e-26 0.00518819 0.0104259 0.000341432 -0.00870531
0.0161146 -1.43821e-20 0.00513441 7.0554e-05 0.00395407 0.000327765
-0.0161146 1.76055e-20 0.00513441 0.0117295 0.000384124 -0.00979382
-0.016031 0 0.0055414 0.0105574 0.000298874 -0.00881298
0.016031 -2.71051e-20 0.0055414 0.000135464 0.00200409 0.000170467
-0.0169948 0 1.57361e-20 0 0 0
-0.0165964 0 0.00369035 0.00557606 0.000442926 -0.0046699
-0.0161687 5.16988e-26 0.00526118 0.0117448 0.00037584 -0.00960574
0.0165301 0 0.00408038 -0.000453673 0.00771846 0.000678188
-0.0165301 2.71051e-20 0.00408038 0.00756968 0.000447965 -0.00554701
0.0170241 -5.42101e-20 0.0005776 -0.000273117 0.00244185 -2.02093e-05
-0.0170241 0 0.000577601 -0.00962711 0.000240616 -3.90573e-05
0.0169741 5.42101e-20 0.00175445 -0.0011015 0.00629979 0.000303294
-0.0169741 5.42101e-20 0.00175445 -0.00836627 0.000399011 -0.00307666
-0.0160456 4.1359e-25 0.00588233 6.21439e-08 8.32418e-10 -5.09535e-08
0.0160456 0 0.00588233 9.50421e-10 1.0832e-08 1.1288e-09
0.0168708 -5.42101e-20 0.00304668 -0.00108092 0.00810355 0.000710314
-0.0168708 -1.0842e-19 0.00304668 -0.000513508 0.000445374 -0.00147101
0.0164827 -5.42101e-20 0.00476235 -2.70195e-05 0.00649335 0.000607417
-0.0164827 2.71051e-20 0.00476235 0.0121765 0.000471373 -0.0084582
0.0168025 -6.46235e-27 0.00371927 -0.000669057 0.00802857 0.000774724
0.0163092 7.98333e-21 0.00559034 0.000184638 0.00280074 0.000295609
-0.0163092 0 0.00559034 0.0117845 0.00035433 -0.0091174
-0.0168571 0 0.00372694 0.0052711 0.000432047 -0.00164608
0.0168571 0 0.00372694 -0.000679072 0.0080919 0.000804827
0.0168524 -6.46235e-27 0.00384281 -0.000618313 0.00801162 0.000805588
0.0165194 0 0.0053648 0.000215265 0.00459383 0.000493821
-0.0165194 -2.71051e-20 0.0053648 0.0136487 0.000460302 -0.00948352
-0.0168333 -2.58494e-26 0.00431301 0.00844795 0.000433931 -0.00267986
0.0168293 0 0.00441207 -0.000319807 0.00761717 0.000809323
-0.0168293 6.46235e-27 0.00441207 0.00898492 0.000434249 -0.00285459
-0.016393 -2.71051e-20 0.00584515 0.0112352 0.000309123 -0.00907154
0.016393 2.71051e-20 0.00584515 0.00020398 0.00189731 0.000231991
-0.0163955 0 0.00614428 7.04018e-08 9.29435e-10 -5.28307e-08
0.0163955 4.1359e-25 0.00614428 1.30624e-09 1.01386e-08 1.44272e-09
-0.0169489 0 0.00440665 0.00882829 0.000424804 -0.00133914
0.0168096 0 0.00506989 9.85161e-05 0.00626544 0.000728551
-0.0168096 -1.29247e-26 0.00506989 0.011918 0.000446139 -0.0049045
-0.0168053 0 0.00515263 0.0118755 0.000439951 -0.00505923
0.017623 3.30872e-24 2.17597e-08 -1.0196e-08 6.05502e-08 -1.04211e-11
-0.017623 -1.65436e-24 1.01887e-08 -1.03743e-07 2.17628e-10 3.1743e-09
0.0175916 7.34536e-21 0.00115888 -0.000945037 0.00444602 0.000209077
-0.0175916 0 0.00115887 -0.00866442 0.000312 -0.000679198
-0.0171737 -2.71051e-20 0.004052 0.00648842 0.000409018 0.00196977
0.0171737 2.71051e-20 0.004052 -0.000657161 0.00844106 0.000981255
0.0175442 2.16208e-20 0.00239621 -0.00146247 0.00735834 0.000642076
-0.0175442 0 0.00239621 -0.00336055 0.000395837 0.000744965
-0.0167746 0 0.00574376 0.0115724 0.000395738 -0.00616473
0.0167746 5.16988e-26 0.00574376 0.000295292 0.00370805 0.000501826
-0.0171404 2.71051e-20 0.0047287 0.0097615 0.000409508 0.000555495
0.0171404 2.71051e-20 0.0047287 -0.000143493 0.00779282 0.000968138
-0.016705 0 0.00611265 0.0104178 0.000336016 -0.00719507
0.016705 0 0.00611265 0.000274315 0.00184806 0.000295931
0.0174986 -5.16988e-26 0.00354411 -0.00103978 0.00851034 0.000989616
-0.0174986 0 0.00354412 0.00451038 0.000391638 0.00444192
-0.0167191 4.1359e-25 0.00643602 6.65375e-08 9.98792e-10 -4.66834e-08
0.0167191 0 0.00643602 1.56796e-09 9.86887e-09 1.74624e-09
-0.0171168 -2.71051e-20 0.00539052 0.0119077 0.000441224 -0.00179376
0.0171168 2.71051e-20 0.00539052 0.000331957 0.00633139 0.000865889
0.0174765 1.29247e-26 0.0041983 -0.000623029 0.00843249 0.00105777
-0.0172565 0 0.00505616 0.0108625 0.000406277 0.00181967
-0.0174702 -5.16988e-26 0.00438304 0.00814584 0.000383653 0.00526354
0.0174702 0 0.00438304 -0.000505342 0.00841051 0.00107701
-0.0169667 2.3884e-20 0.00617943 0.00988171 0.000379615 -0.00531771
0.0169667 1.23494e-20 0.00617943 0.000346847 0.00268546 0.000443827
0.0174493 0 0.00505023 3.8044e-05 0.00760833 0.00105846
-0.0174493 0 0.00505023 0.010407 0.000389076 0.00472125
-0.0171679 2.71051e-20 0.00597129 0.0108595 0.000450661 -0.00264821
0.0171679 0 0.00597129 0.000464005 0.00442606 0.000693246
0.0182005 -1.0842e-19 0.00058338 -0.00058009 0.00255537 1.93228e-05
-0.0182005 5.42101e-20 0.000583381 -0.00939164 0.000226292 0.000568211
-0.017043 -2.71051e-20 0.00643779 0.00839915 0.000354356 -0.00602791
0.017043 -2.71051e-20 0.00643779 0.000305826 0.00183609 0.000349987
0.0177879 2.71051e-20 0.00403219 -0.00089943 0.00882907 0.00115139
-0.0177879 0 0.00403219 0.00674447 0.000364237 0.00842159
-0.0181761 -1.0842e-19 0.00178292 -0.00723033 0.000385782 -0.000212342
0.0181761 0 0.00178292 -0.00185298 0.00658285 0.000544248
-0.0170214 4.1359e-25 0.00674884 5.27811e-08 9.55455e-10 -2.58993e-08
0.0170214 -4.1359e-25 0.00674884 1.76119e-09 9.76884e-09 1.9648e-09
-0.0174458 0 0.00568734 0.0105254 0.000408268 0.00323596
0.0174458 -3.41019e-21 0.00568734 0.000429829 0.00612487 0.000943077
-0.0177804 -2.71051e-20 0.00470438 0.00964884 0.00035207 0.0100356
0.0177804 0 0.00470438 -0.000313618 0.00856246 0.00120594
-0.0181642 -1.0842e-19 0.00305697 0.00298955 0.00035436 0.00784952
0.0181642 5.42101e-20 0.00305697 -0.0018117 0.00851755 0.00102628
-0.0181317 -2.06795e-25 0.00370155 0.00727025 0.000339549 0.011282
0.0181317 1.63857e-21 0.00370155 -0.00120997 0.00885466 0.0011298
-0.01741 0 0.00635261 0.00784146 0.000387264 0.00073921
0.01741 -2.59746e-20 0.00635261 0.000467788 0.00358906 0.000632375
-0.0177702 -2.71051e-20 0.00535529 0.0103395 0.000354164 0.0100329
0.0177702 0 0.00535529 0.000272209 0.0077361 0.0011919
-0.0173274 0 0.00672747 0.00588287 0.000339156 -0.00100363
0.0173274 -2.71051e-20 0.00672747 0.000335721 0.00175478 0.000365698
0.0181132 0 0.00420721 -0.000841068 0.00886525 0.00116954
-0.0181076 3.26442e-21 0.00436205 0.00962869 0.000327818 0.0136653
0.0181076 6.46235e-27 0.00436205 -0.000728109 0.00886849 0.0011817
-0.0173238 4.1359e-25 0.00706119 3.04238e-08 8.18688e-10 2.73083e-09
0.0173238 4.1359e-25 0.00706119 1.91699e-09 9.70786e-09 2.08798e-09
0.0177503 0 0.00600627 0.000643083 0.00617919 0.00104682
-0.0177503 2.71051e-20 0.00600627 0.0089699 0.000382347 0.00797616
-0.018098 -1.63446e-20 0.00501826 0.0106742 0.000319446 0.0155171
0.018098 0 0.00501826 -0.000123309 0.00847168 0.0012167
-0.0187969 0 1.59693e-08 -1.53799e-07 2.31044e-10 9.84844e-10
0.0187969 1.65436e-24 1.06448e-08 -9.16792e-09 3.09671e-08 5.68492e-10
-0.0187878 0 0.00116731 -0.0060606 0.000268211 0.00099525
0.0187878 3.70221e-20 0.00116731 -0.00150735 0.00468608 0.000309187
-0.0175851 2.16202e-20 0.00679799 0.00456036 0.000365346 0.00243228
0.0175851 -5.35682e-21 0.00679799 0.000438273 0.00258309 0.000510072
-0.0184432 2.71051e-20 0.00401963 0.0103141 0.000307352 0.0160332
0.0184432 2.71051e-20 0.00401963 -0.00114632 0.0090794 0.00117089
-0.0187844 0 0.00239454 0.00296192 0.000315201 0.00774428
0.0187844 -3.07554e-20 0.00239454 -0.00218913 0.00773025 0.000745011
-0.0180831 0 0.00566925 0.00953936 0.000327777 0.0153597
0.0180831 0 0.00566925 0.000414053 0.00751439 0.00118401
0.0177912 0 0.00658995 0.000632462 0.00428795 0.000789444
-0.0177912 0 0.00658995 0.00530758 0.000418725 0.00674637
-0.0184158 -2.71051e-20 0.00467993 0.011784 0.00028863 0.0199922
0.0184158 0 0.00467993 -0.000553482 0.00899599 0.00119876
-0.0176529 -2.71051e-20 0.00706043 0.00250804 0.000340137 0.00172219
0.0176529 0 0.00706043 0.000353882 0.00176972 0.000385482
-0.0176264 -4.1359e-25 0.00737367 4.67416e-09 6.84505e-10 2.60873e-08
0.0176264 0 0.00737367 2.08485e-09 9.97344e-09 2.22246e-09
-0.0180712 2.58494e-26 0.00630777 0.006261 0.00035487 0.0136305
0.0180712 0 0.00630777 0.000685852 0.0059589 0.00102799
-0.0184261 -2.71051e-20 0.0053197 0.010934 0.000283768 0.0218595
0.0184261 -2.71051e-20 0.0053197 0.000104563 0.00857675 0.00126856
-0.0188515 2.06795e-25 0.00360143 0.0116779 0.000291225 0.0183348
0.0188515 0 0.00360143 -0.00161206 0.00896044 0.00099785
0.0188003 -6.46235e-27 0.00397534 -0.00128371 0.00903483 0.00105529
-0.0187497 -2.08725e-20 0.00434473 0.012838 0.000283651 0.0211967
0.0187497 1.29247e-26 0.00434473 -0.000959314 0.00910833 0.00111203
-0.018025 1.03398e-25 0.00697581 0.00132175 0.00035062 0.00959589
0.018025 0 0.00697581 0.000568717 0.00346921 0.000663937
-0.0183967 0 0.00598007 0.00797819 0.000290652 0.0216241
0.0183967 -2.71051e-20 0.00598007 0.000627032 0.00757118 0.00122776
0.0190444 -3.87741e-26 0.00361107 -0.00167911 0.00899347 0.000906299
-0.0179363 0 0.0073519 -0.00118659 0.000323764 0.00555851
0.0179363 -2.71051e-20 0.0073519 0.000363894 0.00169592 0.000379743
-0.0193896 5.42101e-20 0.000584898 -0.00827689 0.000200012 -0.000456164
0.0193896 0 0.000584906 -0.000999098 0.00268977 7.96591e-05
-0.0188216 2.24226e-20 0.00491492 0.012882 0.000262457 0.0261478
0.0188216 -2.43697e-20 0.00491492 -0.000364572 0.00893771 0.00113336
-0.0193933 -5.42101e-20 0.00177944 0.000775341 0.000263675 0.00411223
0.0193933 0 0.00177943 -0.00263185 0.00701664 0.000606277
-0.0179292 4.1359e-25 0.00768641 -2.04494e-08 4.9083e-10 5.90347e-08
0.0179292 0 0.00768641 2.36384e-09 1.09972e-08 2.46332e-09