# UMean  POINT_DATA 5809
# x  y  z  UMean_x  UMean_y  UMean_z
-1.57772e-30 -0.237 8.31749e-08 1.49681e-14 -6.60354e-16 -8.40214e-16
-1.09046e-25 0.237 8.64572e-08 1.82501e-14 1.38291e-15 -1.2804e-15
0 0.237 0.000550924 8.94259e-09 3.29022e-10 -1.63513e-09
0 -0.237 0.000550925 8.94352e-09 -3.0652e-10 -1.33419e-09
0 0.237 0.0011232 8.4095e-08 -2.19711e-10 -1.12456e-08
0 -0.237 0.0011232 1.00962e-07 -6.78491e-10 -1.43307e-08
0 0.237 0.00172954 1.90594e-08 -9.59245e-10 2.19527e-09
0 -0.237 0.00172954 2.32964e-08 1.08885e-09 1.00674e-10
0 -0.237 0.00236831 5.17413e-08 5.56963e-09 1.66195e-08
0 0.237 0.00236831 3.6604e-08 -3.21575e-09 1.87043e-08
-8.27181e-25 -0.237 0.00302578 3.87682e-08 3.93563e-09 2.69262e-08
0 0.237 0.00302578 2.43941e-08 -2.12728e-09 2.08225e-08
0 0.237 0.00361376 0 0 0
0 -0.237 0.00366636 0 0 0
0 0.237 0.00368597 4.06012e-09 -1.80281e-10 3.26044e-09
0 -0.237 0.00368597 1.31668e-09 4.94773e-11 9.78093e-10
-1.03398e-25 0.237 0.00384697 0 0 0
0 0.237 0.00433887 1.18002e-08 -7.36836e-10 1.1004e-08
1.03398e-25 -0.237 0.00433887 4.57298e-09 2.14261e-10 3.54783e-09
-4.1359e-25 0.237 0.00498192 1.19797e-08 -1.26551e-09 1.0287e-08
0 -0.237 0.00498192 5.13015e-09 7.19278e-10 4.29426e-09
0 0.237 0.0056169 1.287e-08 -2.43193e-09 1.13572e-08
0 -0.237 0.0056169 3.61404e-09 1.13507e-09 3.18895e-09
-2.06795e-25 0.237 0.0060091 0 0 0
2.06795e-25 -0.237 0.00624674 -1.11529e-09 -1.75838e-10 -3.83569e-09
0 0.237 0.00624674 5.41206e-09 -1.39402e-09 3.63642e-09
-2.06795e-25 -0.237 0.00687382 -1.04436e-08 -3.61765e-09 -1.90211e-08
0 0.237 0.00687382 1.53165e-09 7.1398e-11 -3.67659e-09
3.87741e-26 -0.237078 0.00368896 0.000692365 0.000119879 0.000559891
-4.1359e-25 0.237 0.00749962 -8.26433e-09 4.40801e-09 -2.19859e-08
0 -0.237 0.00749962 -2.51007e-08 -7.22305e-09 -3.99201e-08
0 -0.237 0.00812489 -4.43731e-08 -9.64549e-09 -6.41098e-08
-4.1359e-25 0.237 0.0081249 -2.60589e-08 9.74616e-09 -5.17446e-08
-4.1359e-25 0.237 0.00874998 -5.34893e-08 1.41273e-08 -9.26529e-08
0 -0.237 0.00874998 -6.24652e-08 -9.54008e-09 -8.2745e-08
0 0.237 0.009375 -8.31656e-08 1.48487e-08 -1.30324e-07
2.06795e-25 -0.237 0.009375 -6.27176e-08 -6.286e-09 -7.61811e-08
0 -0.237 0.0096071 0 0 0
-4.1359e-25 0.237 0.01 -1.11552e-07 1.25375e-08 -1.59184e-07
-4.1359e-25 -0.237 0.01 -1.37259e-07 -7.30421e-09 -1.41535e-07
4.1359e-25 -0.237 0.010625 -2.05745e-07 -5.30545e-09 -1.9146e-07
8.27181e-25 0.237 0.010625 -1.42567e-07 8.96466e-09 -1.84301e-07
0 0.237223 0.00369457 0.00130377 -0.000379543 0.00195881
-2.71051e-20 0.237263 0.000279273 0.000976037 8.68731e-05 -4.94562e-05
2.71051e-20 -0.237263 0.000279185 0.00152878 -8.06068e-05 -7.93956e-05
0 -0.237 0.01125 -2.53254e-07 -1.69733e-09 -2.08964e-07
0 0.237 0.01125 -1.55506e-07 4.35015e-09 -1.801e-07
0 0.237267 0.000847159 0.00351478 1.83489e-05 -0.000754376
0 -0.237267 0.000847159 0.00425772 -7.70646e-05 -0.000689508
0 -0.237269 0.00144351 0.00469095 6.57828e-05 -0.000409025
0 0.237269 0.00144351 0.00364823 -0.000149416 -7.69504e-05
-2.71051e-20 -0.23727 0.00206936 0.00455547 0.000345751 0.000570108
0 0.23727 0.00206936 0.00335214 -0.00028794 0.0011095
2.71051e-20 -0.23727 0.00271568 0.00444782 0.00051752 0.00214937
0 0.23727 0.00271568 0.00327629 -0.000286357 0.00233978
-2.71051e-20 0.23727 0.00336939 0.00350072 -0.00021629 0.00314461
0 -0.23727 0.00336939 0.00446268 0.000290715 0.00347648
0 -0.237 0.011875 -2.68418e-07 1.29802e-09 -1.93837e-07
0 0.237 0.011875 -1.28972e-07 6.51759e-10 -1.32103e-07
5.42101e-20 0.237271 0.00402047 0.00388088 -0.000178122 0.00339858
-2.71051e-20 -0.237271 0.00402047 0.00438629 6.25158e-05 0.00372668
0 0.237 0.0121518 0 0 0
-2.71051e-20 0.237271 0.00466435 0.00422177 -0.000289097 0.00327656
5.42101e-20 -0.237271 0.00466435 0.00389208 0.00028069 0.0032801
0 -0.237 0.0125 -2.40527e-07 2.57427e-09 -1.50308e-07
-4.1359e-25 0.237 0.0125 -1.8346e-07 -1.73233e-09 -1.52512e-07
2.71051e-20 0.237272 0.00530117 0.00415978 -0.00056567 0.0031355
-2.71051e-20 -0.237272 0.00530117 0.00247572 0.000595673 0.00248625
2.58494e-26 -0.237306 0.00434507 0.00241564 3.87567e-05 0.00164969
0 0.237272 0.0059324 0.0030696 -0.000753423 0.00261586
0 -0.237272 0.0059324 0.000610752 0.000451833 0.000689183
2.71051e-20 0.237272 0.00656043 0.00132971 -0.000510042 0.000834171
-2.71051e-20 -0.237272 0.00656043 -0.00148101 -0.000445691 -0.00279848
-4.1359e-25 0.237 0.013125 -2.41214e-07 -4.02137e-09 -1.72461e-07
0 -0.237 0.013125 -1.95607e-07 2.3395e-09 -1.05128e-07
2.71051e-20 0.237272 0.00718674 -0.000718762 0.000485571 -0.00279917
-5.42101e-20 -0.237272 0.00718674 -0.00479692 -0.00156643 -0.0078534
0 -0.237 0.0134875 0 0 0
-4.1359e-25 0.237 0.01375 -2.48937e-07 -4.73786e-09 -1.51431e-07
2.06795e-25 -0.237 0.01375 -1.41854e-07 1.60394e-09 -6.9574e-08
0 0.237272 0.00781225 -0.00387515 0.00171 -0.00812998
0 -0.237272 0.00781225 -0.00919598 -0.00233303 -0.0134815
0 -0.237272 0.00843743 -0.0139655 -0.00253935 -0.0187303
0 0.237272 0.00843743 -0.00799141 0.00251155 -0.0140996
0 -0.237371 0.00498524 0.00115406 -0.000485984 0.000175154
0 0.237 0.014375 -1.83965e-07 -3.27868e-09 -9.52729e-08
0 -0.237 0.014375 -1.40778e-07 1.11099e-09 -5.95984e-08
-2.71051e-20 0.237272 0.00906248 -0.012394 0.00267827 -0.0196417
2.71051e-20 -0.237272 0.00906248 -0.0186584 -0.00228922 -0.0230056
0 0.237 0.0146945 0 0 0
-2.71051e-20 -0.237272 0.0096875 -0.0230808 -0.00175528 -0.0260279
-2.71051e-20 0.237272 0.0096875 -0.0166777 0.00234169 -0.024112
4.1359e-25 0.237 0.015 -1.80013e-07 -2.7456e-09 -8.38508e-08
2.06795e-25 -0.237 0.015 -1.33704e-07 5.28206e-10 -4.92431e-08
0 -0.237427 0.0056183 -0.00201029 -0.00153286 -0.00324033
-2.71051e-20 -0.237272 0.0103125 -0.0271335 -0.00109399 -0.0276889
-2.71051e-20 0.237272 0.0103125 -0.0206877 0.00171479 -0.0272282
0 0.237 0.015625 -2.50867e-07 -2.78805e-09 -9.98188e-08
0 -0.237 0.015625 -1.30455e-07 4.49655e-11 -4.21636e-08
0 0.23752 8.32931e-08 3.2337e-09 2.34846e-10 -3.55872e-10
0 -0.237521 8.4701e-08 7.92493e-09 -4.23244e-10 -4.68252e-10
-1.03398e-25 0.237523 0.00017771 0.000929492 -1.72231e-05 -0.000124213
2.71051e-20 -0.237272 0.0109375 -0.0307198 -0.000474793 -0.0279615
-2.71051e-20 0.237272 0.0109375 -0.0243677 0.00100748 -0.0289258
0 -0.237529 0.000533903 0.00364388 -1.56954e-05 -0.000349819
1.30587e-20 0.237529 0.000562809 0.00294465 -5.45626e-05 -0.00039351
0 -0.237529 0.000562807 0.00384118 -1.65452e-05 -0.00036876
0 0.237533 0.00115011 0.0036863 -0.00066553 3.09848e-05
0 -0.237533 0.00115011 0.00516257 0.000500697 -0.000282979
0 0.237538 0.00176909 0.0028348 -0.00125682 0.00156011
0 -0.237538 0.00176909 0.00473217 0.00125822 0.00066246
0 -0.237469 0.00624719 -0.00619068 -0.0028778 -0.00843701
4.1359e-25 0.23754 0.0024097 0.00219081 -0.0014445 0.00321795
-1.63962e-20 -0.23754 0.0024097 0.00432866 0.00181611 0.00208181
2.71051e-20 -0.237272 0.0115625 -0.033807 5.14169e-06 -0.0270967
0 0.237272 0.0115625 -0.0276938 0.000373815 -0.0292375
0 0.237 0.01625 -2.55251e-07 -1.72034e-09 -8.6658e-08
0 -0.237 0.01625 -1.34335e-07 -3.71217e-10 -3.84041e-08
0 -0.237541 0.00305869 0.00451039 0.00165585 0.00343696
2.06795e-25 0.237541 0.00305869 0.00234591 -0.0012596 0.00438263
-1.29247e-26 -0.23756 0.000563223 0.00386488 5.00714e-06 -0.000356876
0 -0.237542 0.00370687 0.00483589 0.000837309 0.00391062
0 0.237542 0.00370687 0.0031678 -0.000922183 0.00475936
-5.16988e-26 -0.237543 0.00434987 0.0042839 6.87312e-05 0.00292557
0 0.237543 0.00434987 0.00414868 -0.000624806 0.00431787
0 -0.237272 0.0121875 -0.0363572 0.000335571 -0.0253176
-8.13152e-20 0.237272 0.0121875 -0.0306896 -0.000117195 -0.0284548
-1.33882e-20 0.237543 0.00498678 0.00435198 -0.000352597 0.0030439
0 -0.237543 0.00498678 0.00168901 -0.000711253 0.000256343
0 -0.237499 0.0068739 -0.0110601 -0.00394406 -0.014599
4.1359e-25 0.237 0.016875 -2.23712e-07 -6.12342e-10 -6.51923e-08
0 -0.237 0.016875 -1.46164e-07 -7.58684e-10 -3.71708e-08
6.46235e-27 0.237526 0.00624724 -0.00123911 0.00179246 -0.00381417
-9.19024e-21 0.237544 0.00561869 0.00248118 0.000403948 0.000455121
0 -0.237544 0.00561869 -0.00256262 -0.00195402 -0.00413062
-2.71051e-20 -0.237272 0.0128125 -0.0382919 0.000496491 -0.0229413
0 0.237272 0.0128125 -0.0333383 -0.000483922 -0.0267426
2.00312e-20 -0.237544 0.00624726 -0.00718011 -0.00333775 -0.00978546
6.46235e-27 0.237544 0.00624726 -0.00128214 0.00185471 -0.00394662
4.1359e-25 0.237 0.0172755 0 0 0
-6.46235e-27 0.237544 0.00645559 -0.00272486 0.00237678 -0.00588658
-1.29247e-26 -0.237524 0.00749961 -0.0166644 -0.00435932 -0.0209229
-2.58494e-26 -0.237544 0.00687391 -0.0120663 -0.00430288 -0.0159272
0 0.237544 0.00687391 -0.00562178 0.00342508 -0.00978194
0 -0.237 0.0175 -1.73573e-07 -1.22066e-09 -3.95412e-08
-2.06795e-25 0.237 0.0175 -1.19063e-07 1.25039e-10 -2.74178e-08
2.71051e-20 -0.237272 0.0134375 -0.0396062 0.000485273 -0.0203564
0 0.237272 0.0134375 -0.0355607 -0.000690598 -0.024366
-2.58494e-26 0.237544 0.00749961 -0.0102351 0.00450013 -0.0161824
0 -0.237544 0.00749961 -0.0173095 -0.00452807 -0.0217328
1.03398e-25 0.237 0.0177366 0 0 0
0 -0.237544 0.00796935 -0.0212411 -0.00414692 -0.0253569
0 -0.237497 0.00937499 -0.0293172 -0.00165431 -0.0296028
1.18271e-21 0.237544 0.00812487 -0.0151368 0.00475085 -0.0222636
0 -0.237544 0.00812487 -0.0225428 -0.00402073 -0.0265568
5.42101e-20 -0.237272 0.0140625 -0.0404261 0.000378108 -0.01788
0 0.237272 0.0140625 -0.0373183 -0.000743042 -0.0216486
4.1359e-25 -0.237 0.018125 -2.13487e-07 -1.81691e-09 -4.3345e-08
0 0.237 0.018125 -1.95904e-07 7.89297e-10 -4.25562e-08
1.93025e-20 0.237544 0.00874996 -0.0199745 0.00418393 -0.0273103
1.88007e-20 -0.237544 0.00874996 -0.0274793 -0.00302098 -0.0301154
0 -0.237544 0.00896088 -0.0290309 -0.00261234 -0.0308828
0 -0.237272 0.0146875 -0.0408917 0.000233501 -0.0156621
-2.71051e-20 0.237272 0.0146875 -0.0386284 -0.000654316 -0.0189242
-2.12714e-20 0.237544 0.00937499 -0.0244791 0.00307623 -0.030994
-2.58494e-26 -0.237544 0.00937499 -0.0320772 -0.00181005 -0.0323897
0 -0.237 0.01875 -2.76004e-07 -2.67214e-09 -4.9685e-08
-4.1359e-25 0.237 0.01875 -2.35843e-07 1.5236e-09 -4.48257e-08
-2.14989e-20 0.237544 0.01 -0.028633 0.0017532 -0.0332983
0 -0.237544 0.01 -0.0364183 -0.000586853 -0.0334864
6.46235e-27 -0.23762 0.00812488 -0.0238431 -0.00417304 -0.027673
0 -0.237272 0.0153125 -0.0411437 7.20824e-05 -0.0137715
-2.71051e-20 0.237272 0.0153125 -0.0396163 -0.000507546 -0.0164287
0 -0.237544 0.010625 -0.0405961 0.000516786 -0.0335382
4.63769e-21 0.237544 0.010625 -0.0325526 0.000457958 -0.034375
0 -0.237 0.019375 -3.46417e-07 -3.6881e-09 -5.47076e-08
4.1359e-25 0.237 0.019375 -2.4882e-07 2.15583e-09 -4.11616e-08
-2.71051e-20 0.237799 0.000284465 0.00279647 0.000277791 -0.000330024
2.71051e-20 -0.237799 0.000284553 0.00341941 -0.000261966 -0.000213862
-2.71051e-20 -0.237272 0.0159375 -0.041307 -5.42678e-05 -0.0121786
-2.71051e-20 0.237272 0.0159375 -0.0403797 -0.000350207 -0.0142265
0 -0.237544 0.01125 -0.0445889 0.00141565 -0.0326439
4.93062e-21 0.237544 0.01125 -0.0363736 -0.00067747 -0.0344159
-2.71051e-20 0.237811 0.000863452 0.00454795 -0.000622584 -0.000441021
-5.42101e-20 -0.237811 0.000863452 0.00624563 0.000367923 -0.000496297
0 -0.23782 0.00147122 0.00546821 0.00170197 0.000497895
0 0.23782 0.00147122 0.00300145 -0.00196901 0.00145914
2.71051e-20 -0.237826 0.00210431 0.00418951 0.00298985 0.00203714
0 0.237826 0.00210431 0.00127237 -0.0026789 0.00383117
2.06795e-25 -0.237544 0.011875 -0.0482475 0.00205791 -0.0309015
0 0.237544 0.011875 -0.0401346 -0.00160658 -0.033548
0 -0.237 0.02 -3.81002e-07 -4.41735e-09 -5.1981e-08
0 0.237 0.02 -2.43093e-07 2.63028e-09 -3.49188e-08
0 0.237544 0.0119635 -0.0406484 -0.00170694 -0.0333094
-5.42101e-20 0.237829 0.00274869 0.000818082 -0.0025601 0.00565216
0 -0.237829 0.00274869 0.00411692 0.00346261 0.0035937
-5.42101e-20 -0.237272 0.0165625 -0.0414165 -0.000175162 -0.0108321
-2.71051e-20 0.237272 0.0165625 -0.0409773 -0.000177726 -0.0123401
0 -0.23783 0.00339421 0.00502901 0.00237283 0.00453282
5.42101e-20 0.23783 0.00339421 0.0017717 -0.0019945 0.00643242
0 0.237831 0.00403604 0.00351709 -0.00131093 0.00609024
2.71051e-20 -0.237831 0.00403604 0.00548093 0.00062503 0.00390407
0 -0.237544 0.0125 -0.0513756 0.00239489 -0.0284957
2.06795e-25 0.237544 0.0125 -0.0437645 -0.00231565 -0.0318624
0 0.237832 0.00467279 0.00498235 -0.000726798 0.00452353
0 -0.237832 0.00467279 0.00337294 -0.000705152 0.000763711
0 -0.237485 0.01375 -0.0494671 0.00191276 -0.0204413
-2.71051e-20 0.237833 0.00530504 0.00404672 0.000177343 0.00122667
-2.71051e-20 -0.237833 0.00530504 -0.00304138 -0.00305975 -0.0055993
-6.46235e-27 0.237793 0.00687412 -0.0100516 0.00631863 -0.0157403
-2.71051e-20 -0.237272 0.0171875 -0.0415546 -0.000252198 -0.00967409
0 0.237272 0.0171875 -0.0414727 -3.58434e-05 -0.0107275
0 -0.237 0.020625 -3.56612e-07 -4.45667e-09 -4.11136e-08
0 0.237 0.020625 -2.44737e-07 3.15894e-09 -3.03343e-08
0 0.237544 0.013125 -0.0471229 -0.00276185 -0.029503
0 -0.237544 0.013125 -0.0538003 0.0024 -0.0257258
-5.42101e-20 0.237833 0.00593404 -0.00139175 0.00279521 -0.00524161
0 -0.237833 0.00593404 -0.0104313 -0.005886 -0.0142874
2.71051e-20 0.237834 0.00656112 -0.00825934 0.0059752 -0.0141955
-5.42101e-20 -0.237834 0.00656112 -0.0176558 -0.00758761 -0.0230506
5.16988e-26 -0.237922 0.00116186 0.0046591 0.00148331 0.000293592
2.71051e-20 -0.237272 0.0178125 -0.0416601 -0.000331854 -0.00864024
2.71051e-20 0.237272 0.0178125 -0.041877 0.000116618 -0.00936052
6.46235e-27 -0.23778 0.00874997 -0.0309585 -0.00287033 -0.0324285
-2.06795e-25 0.237544 0.01375 -0.050045 -0.00291045 -0.0266998
0 -0.237544 0.01375 -0.0554773 0.00214516 -0.0229249
2.71051e-20 0.237834 0.00718692 -0.0150543 0.00787413 -0.0232867
0 -0.237834 0.00718692 -0.0246552 -0.00773074 -0.0303899
4.1359e-25 -0.237 0.02125 -3.03817e-07 -4.09241e-09 -2.86887e-08
-4.1359e-25 0.237 0.02125 -2.73903e-07 4.09027e-09 -2.89807e-08
0 0.237834 0.00781229 -0.0215852 0.0080565 -0.0309096
0 -0.237834 0.00781229 -0.0309708 -0.00657737 -0.0356151
0 -0.237529 0.014375 -0.054959 0.00171486 -0.0197658
0 0.237544 0.014375 -0.0524137 -0.00277435 -0.0237455
-6.46235e-27 -0.237544 0.014375 -0.0564936 0.00176275 -0.0203178
0 0.237834 0.00843743 -0.0274373 0.00682342 -0.0363292
2.71051e-20 -0.237834 0.00843743 -0.0364459 -0.00469205 -0.0387883
0 -0.237513 0.015 -0.0537151 0.0012612 -0.0169715
2.71051e-20 -0.237272 0.0184375 -0.0417695 -0.000375386 -0.00769246
5.42101e-20 0.237272 0.0184375 -0.0422802 0.000219488 -0.0081939
5.16988e-26 0.237544 0.0147612 -0.0535245 -0.00256891 -0.0219944
0 -0.237834 0.00906248 -0.0412628 -0.00258586 -0.0402813
2.71051e-20 0.237834 0.00906248 -0.0324392 0.00478161 -0.0395592
0 0.237 0.021875 -3.18616e-07 5.36523e-09 -2.83177e-08
0 -0.237 0.021875 -2.7555e-07 -4.00453e-09 -2.03364e-08
0 -0.237497 0.015625 -0.0522303 0.000871879 -0.0146261
2.06893e-21 0.237544 0.015 -0.0542116 -0.00244184 -0.0209113
-1.29247e-26 -0.237544 0.015 -0.0569919 0.00133813 -0.0180068
2.71051e-20 -0.237834 0.0096875 -0.0457237 -0.000601946 -0.0405369
2.71051e-20 0.237834 0.0096875 -0.0367756 0.00252445 -0.0410025
2.71051e-20 -0.237272 0.0190625 -0.0417975 -0.000431171 -0.00677607
5.42101e-20 0.237272 0.0190625 -0.042594 0.000335837 -0.00716395
0 -0.237497 0.01625 -0.0521019 0.000579223 -0.0130077
-2.59562e-20 0.237544 0.015625 -0.0555048 -0.0020362 -0.0183382
-2.58494e-26 -0.237544 0.015625 -0.0571283 0.00095364 -0.0159977
5.42101e-20 -0.237834 0.0103125 -0.050156 0.00113499 -0.0399386
-2.71051e-20 0.237834 0.0103125 -0.0407613 0.000421667 -0.0411344
0 -0.23806 2.90145e-09 3.11865e-08 -1.83566e-09 -2.0186e-09
2.06795e-25 0.23806 -5.5536e-11 6.31418e-09 4.50777e-10 -8.73098e-10
0 0.237 0.0225 -3.5439e-07 6.61061e-09 -2.58927e-08
0 -0.237 0.0225 -3.00712e-07 -4.7458e-09 -1.61225e-08
-2.06795e-25 0.238068 0.000191009 0.000953895 -0.000198415 -4.11493e-05
0 0.237431 0.0175 -0.045383 -0.000677091 -0.00977502
0 0.238083 0.000570196 0.00284752 -0.000592297 -0.000122837
0 -0.238083 0.000570195 0.00426154 0.000365718 -0.000157979
5.42101e-20 -0.237834 0.0109375 -0.0548096 0.00254937 -0.0387763
2.71051e-20 0.237834 0.0109375 -0.0447668 -0.00134572 -0.0404462
-5.42101e-20 -0.237272 0.0196875 -0.0418077 -0.000457265 -0.00588236
5.42101e-20 0.237272 0.0196875 -0.042858 0.000416514 -0.00624652
0 0.237981 0.00749973 -0.0186091 0.0085215 -0.0266335
-3.21423e-20 0.237544 0.01625 -0.0563777 -0.00160802 -0.0160656
0 -0.237544 0.01625 -0.0570258 0.000633963 -0.014237
-4.1359e-25 0.238097 0.00116715 0.00177858 -0.00241469 0.00133008
0 -0.238097 0.00116715 0.00443254 0.00192549 0.000553052
0 -0.237516 0.016875 -0.0538634 0.000364072 -0.0120173
0 -0.237834 0.0115625 -0.059478 0.00364432 -0.0369313
-5.42101e-20 0.237834 0.0115625 -0.0490508 -0.00279637 -0.0392528
0 -0.238109 0.00179591 0.00282326 0.00357145 0.00191101
2.06795e-25 0.238109 0.00179591 -0.000729995 -0.00375577 0.00384744
0 0.237 0.023125 -3.93352e-07 8.01799e-09 -2.29109e-08
0 -0.237 0.023125 -3.52879e-07 -6.07423e-09 -1.20156e-08
0 0.238117 0.00244027 -0.00196673 -0.00391987 0.00585954
0 -0.238117 0.00244027 0.00232013 0.00439448 0.00299772
5.42101e-20 -0.237272 0.0203125 -0.0417159 -0.000511157 -0.00499918
2.71051e-20 0.237272 0.0203125 -0.0429706 0.000531785 -0.00540345
0 0.23812 0.00308541 -0.00100478 -0.00315915 0.00662792
-5.16988e-26 -0.23812 0.00308541 0.00339133 0.0035289 0.00330797
9.28334e-21 0.237544 0.016875 -0.0569226 -0.00121101 -0.0140755
0 -0.237544 0.016875 -0.0567809 0.000383793 -0.0126682
-2.71051e-20 -0.237834 0.0121875 -0.0638378 0.00431685 -0.0344348
-2.71051e-20 0.237834 0.0121875 -0.0535116 -0.00395113 -0.0374218
0 -0.238121 0.00372595 0.00403963 0.000914655 0.00225874
0 0.238121 0.00372595 0.00138427 -0.00192623 0.00604755
0 -0.238122 0.00436151 0.00176147 -0.00230066 -0.00121605
2.58494e-26 0.238122 0.00436151 0.00344433 -0.000294835 0.00394385
-6.46235e-27 -0.237544 0.0172731 -0.0565664 0.000260721 -0.0117562
0 -0.238122 0.00499302 -0.00420977 -0.00551583 -0.00750306
0 0.238122 0.00499302 0.00256328 0.00204751 -0.000310872
-6.46235e-27 0.237881 0.011875 -0.0454051 -0.00365175 -0.0338114
0 -0.237834 0.0128125 -0.0675383 0.0045043 -0.0314516
0 0.237834 0.0128125 -0.0579561 -0.00478535 -0.0349891
0 0.237 0.02375 -4.46089e-07 9.80538e-09 -1.97639e-08
8.27181e-25 -0.237 0.02375 -3.9229e-07 -7.37991e-09 -6.00528e-09
2.39433e-21 0.237544 0.0175 -0.0572202 -0.000853697 -0.0123246
-6.46235e-27 -0.237544 0.0175 -0.0564441 0.000190589 -0.0112365
0 -0.238123 0.00562167 -0.0117406 -0.00837478 -0.0155276
-1.48616e-20 0.238123 0.00562167 -0.00245376 0.00527533 -0.00706753
-2.71051e-20 -0.237272 0.0209375 -0.0416524 -0.00053321 -0.00413141
-5.42101e-20 0.237272 0.0209375 -0.0430714 0.00060674 -0.00462966
0 -0.238123 0.00624853 -0.0185771 -0.0098184 -0.0233315
0 0.238123 0.00624853 -0.00942626 0.00847258 -0.0154726
-2.71051e-20 -0.237834 0.0134375 -0.0703177 0.00418497 -0.0283056
5.42101e-20 0.237834 0.0134375 -0.0621085 -0.00516844 -0.0320613
0 -0.238124 0.0068744 -0.0242264 -0.00942309 -0.0293669
-1.29247e-26 0.238124 0.0068744 -0.0159493 0.0101709 -0.0236729
-2.19107e-20 0.237544 0.018125 -0.0573536 -0.000553112 -0.0107761
1.06337e-20 -0.237544 0.018125 -0.0560444 4.4674e-05 -0.00990004
0 -0.238124 0.00749977 -0.0287704 -0.00763799 -0.0331884
1.29247e-26 0.238124 0.00749977 -0.0213526 0.00983895 -0.0300574
0 -0.237834 0.0140625 -0.0721348 0.00359606 -0.0252992
2.71051e-20 0.237834 0.0140625 -0.0656989 -0.00512135 -0.0288605
0 0.237272 0.0215625 -0.04303 0.000714365 -0.00389981
-2.71051e-20 -0.237272 0.0215625 -0.0414645 -0.00059172 -0.00327135
8.27181e-25 0.237 0.024375 -4.82209e-07 1.13159e-08 -1.50118e-08
-8.27181e-25 -0.237 0.024375 -4.17489e-07 -8.59979e-09 1.01449e-09
0 0.238253 -3.33791e-10 0 0 0
3.23117e-27 0.238124 0.00805007 -0.0251407 0.00820655 -0.033639
0 -0.238124 0.00812492 -0.0325272 -0.00519023 -0.0351279
-1.61559e-27 0.238124 0.00812492 -0.025656 0.0079845 -0.0341262
-9.09899e-21 -0.237544 0.01875 -0.0556006 -6.56085e-05 -0.00862231
-1.30372e-20 0.237544 0.01875 -0.0573647 -0.000303291 -0.00937913
-1.29247e-26 -0.238124 0.00874998 -0.0360378 -0.00265039 -0.0358056
0 0.238124 0.00874998 -0.0291321 0.00536699 -0.0361842
2.71051e-20 -0.237834 0.0146875 -0.0731114 0.00289754 -0.0225618
2.71051e-20 0.237834 0.0146875 -0.0685469 -0.00465593 -0.0256774
0 0.237272 0.0221875 -0.0430275 0.000777085 -0.00322355
-2.71051e-20 -0.237272 0.0221875 -0.0413105 -0.000619756 -0.00242971
0 -0.238124 0.00937499 -0.0398572 -0.0003492 -0.0357968
1.29906e-20 0.238124 0.00937499 -0.0322774 0.00264492 -0.0368456
-8.27181e-25 0.237 0.025 -4.84447e-07 1.19824e-08 -9.0184e-09
0 -0.237 0.025 -4.36055e-07 -9.80294e-09 8.26355e-09
5.42101e-20 -0.237834 0.0153125 -0.0734152 0.00219353 -0.0201544
5.42101e-20 0.237834 0.0153125 -0.0706162 -0.00401884 -0.0227351
3.56757e-20 -0.237544 0.019375 -0.0551263 -0.000152298 -0.00737584
2.80914e-20 0.237544 0.019375 -0.0572755 -8.8551e-05 -0.00809647
0 -0.238124 0.01 -0.0443333 0.00163958 -0.0354502
5.2839e-21 0.238124 0.01 -0.0356233 0.000186775 -0.0366861
0 -0.238124 0.010625 -0.0495277 0.00335841 -0.0348361
-2.27215e-20 0.238124 0.010625 -0.0395246 -0.00188776 -0.0360925
2.71051e-20 -0.238362 0.000287929 0.00321323 -0.000276944 -0.0002227
5.42101e-20 0.238362 0.000287929 0.00241188 0.000272457 -0.000358984
-2.71051e-20 0.237272 0.0228125 -0.0428816 0.000874054 -0.00258738
0 -0.237272 0.0228125 -0.0409932 -0.000689935 -0.00161542
2.71051e-20 -0.237834 0.0159375 -0.073239 0.00163837 -0.0179987
-2.71051e-20 0.237834 0.0159375 -0.0719839 -0.00332803 -0.0200744
0 -0.237 0.025625 -4.41771e-07 -1.08137e-08 1.50791e-08
8.27181e-25 0.237 0.025625 -4.71645e-07 1.21586e-08 -3.10347e-09
1.29247e-26 -0.23774 0.0175 -0.0621406 0.000577016 -0.0114594
6.48282e-21 -0.237544 0.02 -0.0546354 -0.000233163 -0.00615668
1.75214e-20 0.237544 0.02 -0.0571041 0.000109571 -0.00691142
-1.03398e-25 -0.238124 0.01125 -0.0552473 0.00480116 -0.0338383
-3.20249e-20 0.238124 0.01125 -0.0440765 -0.00363433 -0.0352171
-5.42101e-20 0.238389 0.000874094 0.00157578 -0.00238023 0.000676197
-2.71051e-20 -0.238389 0.000874094 0.00416403 0.00169624 0.000323579
1.29247e-26 0.238124 0.0115928 -0.0468913 -0.00445338 -0.0345503
0 0.237834 0.0165625 -0.0727543 -0.00262614 -0.0177249
-2.71051e-20 -0.237834 0.0165625 -0.0727238 0.00115477 -0.0160401
2.42338e-27 0.238273 0.00812493 -0.0248012 0.00777609 -0.0331765
-2.71051e-20 -0.238408 0.00148916 0.00172155 0.0040348 0.0019523
2.71051e-20 0.238408 0.00148916 -0.00220125 -0.00479931 0.00373775
0 -0.238124 0.011875 -0.0610871 0.00586249 -0.0322932
1.29247e-26 0.238124 0.011875 -0.0492084 -0.0051276 -0.0340015
2.58494e-26 -0.238409 0.00244824 0.000567891 0.00508729 0.00300558
-5.42101e-20 0.237272 0.0234375 -0.0428366 0.000929088 -0.00200232
-5.42101e-20 -0.237272 0.0234375 -0.0407575 -0.00073065 -0.000843188
2.71051e-20 -0.238422 0.00212682 -0.00020028 0.00563219 0.00319283
-5.42101e-20 0.238422 0.00212682 -0.00516331 -0.00565033 0.00644204
1.76907e-20 -0.237544 0.020625 -0.0541517 -0.000306698 -0.00496295
2.19445e-20 0.237544 0.020625 -0.0568826 0.000288578 -0.00580932
2.71051e-20 -0.238429 0.00277088 0.00112161 0.00552917 0.00314667
-2.71051e-20 0.238429 0.00277088 -0.00489989 -0.00483211 0.00753899
-8.27181e-25 -0.237 0.02625 -4.30546e-07 -1.13565e-08 2.06636e-08
-8.27181e-25 0.237 0.02625 -4.56232e-07 1.20762e-08 2.39447e-09
-1.03398e-25 -0.238124 0.0125 -0.0664665 0.00637505 -0.0301356
-5.16988e-26 0.238124 0.0125 -0.0546982 -0.0063301 -0.032324
-2.71051e-20 0.237834 0.0171875 -0.0730703 -0.00204544 -0.0156041
0 -0.237834 0.0171875 -0.0719982 0.000829996 -0.0142163
-5.42101e-20 0.238431 0.0034119 -0.00178408 -0.00327931 0.00689129
0 -0.238431 0.0034119 0.00325621 0.00277025 0.00190645
2.71051e-20 0.238431 0.00404796 0.00198178 -0.00112921 0.00476372
0 -0.238431 0.00404796 0.00233941 -0.00212923 -0.00138419
-2.71051e-20 0.238431 0.00467997 0.00325925 0.00201613 0.000352201
2.71051e-20 -0.238431 0.00467997 -0.00423944 -0.00707349 -0.00826251
0 0.238124 0.013125 -0.0602081 -0.00709056 -0.0301544
-5.16988e-26 -0.238124 0.013125 -0.0708355 0.0062348 -0.0275198
2.71051e-20 0.237272 0.0240625 -0.0426728 0.00101389 -0.00144916
2.71051e-20 -0.237272 0.0240625 -0.0403533 -0.000811329 -0.000118372
-2.71051e-20 0.238432 0.00530874 -0.00211333 0.00681478 -0.00746292
0 -0.238432 0.00530874 -0.0130794 -0.011358 -0.0170895
-6.66894e-21 -0.237544 0.02125 -0.0536842 -0.00038208 -0.00379458
1.17276e-20 0.237544 0.02125 -0.0566292 0.000453028 -0.00477632
2.71051e-20 -0.237834 0.0178125 -0.0711156 0.000534373 -0.0124928
0 0.237834 0.0178125 -0.0730395 -0.00148341 -0.0136914
0 0.238432 0.00593583 -0.010491 0.0114532 -0.0169728
-2.71051e-20 -0.238432 0.00593583 -0.0205847 -0.0133361 -0.0253273
0 -0.237 0.026875 -4.09581e-07 -1.15391e-08 2.48443e-08
8.27181e-25 0.237 0.026875 -4.23798e-07 1.13757e-08 7.27464e-09
0 0.238124 0.01375 -0.0652709 -0.00728045 -0.0275615
2.58494e-26 -0.238124 0.01375 -0.0738625 0.00556516 -0.0247616
5.42101e-20 0.238432 0.00656171 -0.0177421 0.0138278 -0.0257037
0 -0.238432 0.00656171 -0.0258119 -0.0125852 -0.0308392
2.71051e-20 0.238432 0.00718722 -0.0229025 0.0131294 -0.0316899
0 -0.238432 0.00718722 -0.0288964 -0.00985557 -0.0332852
2.71051e-20 -0.237834 0.0184375 -0.0701657 0.000366386 -0.0108392
-2.71051e-20 0.237834 0.0184375 -0.0727862 -0.00109199 -0.011933
1.34926e-20 0.237544 0.021875 -0.0563626 0.000604286 -0.00380278
1.01331e-20 -0.237544 0.021875 -0.0532433 -0.000462024 -0.00265399
0 0.237272 0.0246875 -0.0426464 0.00106001 -0.000938524
-2.71051e-20 -0.237272 0.0246875 -0.0400634 -0.000864578 0.000546724
-2.58494e-26 0.238124 0.014375 -0.0694607 -0.00689078 -0.0247415
2.58494e-26 -0.238124 0.014375 -0.0755574 0.00465681 -0.0221119
2.71051e-20 0.238432 0.00781239 -0.0259854 0.0103686 -0.0344571
-2.71051e-20 -0.238432 0.00781239 -0.0305954 -0.00640722 -0.0334694
-5.42101e-20 -0.238432 0.00843746 -0.0320503 -0.00306696 -0.0325574
2.71051e-20 0.238432 0.00843746 -0.0276603 0.00671082 -0.0348284
1.29247e-26 0.238124 0.0148898 -0.0719913 -0.00623248 -0.0224499
0 -0.237 0.0275 -3.85665e-07 -1.1423e-08 2.79013e-08
8.27181e-25 0.237 0.0275 -3.54875e-07 9.47945e-09 1.04633e-08
-2.58494e-26 -0.238124 0.015 -0.0762009 0.00370256 -0.0197032
-6.46235e-27 0.238124 0.015 -0.072533 -0.00609156 -0.0219593
5.42101e-20 0.237834 0.0190625 -0.0723542 -0.00069812 -0.010289
-2.71051e-20 -0.237834 0.0190625 -0.0691839 0.000190304 -0.00923317
0 0.238432 0.00906249 -0.0289599 0.00313507 -0.0339512
2.71051e-20 -0.238432 0.00906249 -0.0342817 -0.000217993 -0.0314491
-8.20356e-22 0.237544 0.0225 -0.0560887 0.000747649 -0.00288595
-1.36934e-20 -0.237544 0.0225 -0.0528253 -0.00055529 -0.0015507
-5.42101e-20 0.237272 0.0253125 -0.0425452 0.00112747 -0.000449762
-2.71051e-20 -0.237272 0.0253125 -0.0396431 -0.000949865 0.00114755
2.71051e-20 -0.238432 0.0096875 -0.038018 0.00205784 -0.0307388
8.13152e-20 0.238432 0.0096875 -0.0308433 9.89798e-05 -0.0327348
0 -0.238631 5.27908e-09 2.45123e-08 3.66434e-10 -2.07206e-09
0 0.238631 3.43194e-09 7.30992e-09 3.90127e-10 -1.30521e-09
-1.00723e-20 0.238124 0.015625 -0.0744655 -0.00515683 -0.0193678
-2.58494e-26 -0.238124 0.015625 -0.0760837 0.0028768 -0.0175373
0 0.237834 0.0196875 -0.0718374 -0.000425732 -0.00873818
-5.42101e-20 -0.237834 0.0196875 -0.0682122 9.98042e-05 -0.00765073
2.71051e-20 -0.238432 0.0103125 -0.0432939 0.00402131 -0.0303987
0 0.238432 0.0103125 -0.0339894 -0.00234845 -0.0317009
8.27181e-25 -0.237 0.028125 -3.58151e-07 -1.09887e-08 2.98808e-08
4.1359e-25 0.237 0.028125 -2.66738e-07 6.97289e-09 1.13522e-08
1.89503e-20 0.237544 0.023125 -0.0558312 0.000881856 -0.00202519
-7.67996e-21 -0.237544 0.023125 -0.0524452 -0.000660357 -0.000495968
0 0.238672 0.000575691 0.000606995 -0.00187521 0.000528637
1.10619e-20 -0.238672 0.000575689 0.00246664 0.00133856 0.000281765
3.95688e-20 0.238124 0.01625 -0.0754696 -0.00420832 -0.0170257
2.58494e-26 -0.238124 0.01625 -0.0754487 0.0022186 -0.0155451
-1.29247e-26 -0.238659 0.003098 0.00138735 0.00337205 0.00151562
-2.71051e-20 -0.238432 0.0109375 -0.0497355 0.00578747 -0.0300534
0 0.238432 0.0109375 -0.0384538 -0.00433447 -0.0309043
0 0.237272 0.0259375 -0.0426308 0.00115842 1.42836e-05
2.71051e-20 -0.237272 0.0259375 -0.0393696 -0.0010105 0.00168191
5.42101e-20 0.237834 0.0203125 -0.0712788 -9.78525e-05 -0.00729798
2.71051e-20 -0.237834 0.0203125 -0.0672852 -5.46892e-05 -0.00612111
-8.27181e-25 0.238701 0.00117836 -0.0029892 -0.00508607 0.0030466
-1.82985e-20 -0.238701 0.00117836 0.000708379 0.00400332 0.00166912
2.71051e-20 -0.238432 0.0115625 -0.0568919 0.00729034 -0.0294346
0 0.238433 0.0115625 -0.0439234 -0.00612209 -0.0300833
1.82992e-20 0.238124 0.016875 -0.075781 -0.0033682 -0.0149085
0 -0.238124 0.016875 -0.0744816 0.00171585 -0.0136751
1.7585e-20 0.237544 0.02375 -0.0556011 0.00100284 -0.00121423
6.84864e-21 -0.237544 0.02375 -0.052101 -0.000774504 0.00050341
0 0.238723 0.00181179 -0.0070536 -0.00663403 0.00591623
3.85178e-20 -0.238723 0.00181179 -0.00182952 0.00581152 0.0030388
0 -0.237 0.02875 -3.3537e-07 -1.04418e-08 3.16475e-08
-4.1359e-25 0.237 0.02875 -1.99628e-07 4.98429e-09 1.1322e-08
2.71051e-20 -0.238432 0.0121875 -0.0641185 0.0082723 -0.028239
-5.42101e-20 0.238433 0.0121875 -0.0502664 -0.00770963 -0.029078
0 0.238737 0.00245721 -0.0078964 -0.00612501 0.00727037
9.87602e-21 -0.238737 0.00245721 -0.00140407 0.00586697 0.00301441
2.71051e-20 0.237834 0.0209375 -0.0707256 0.000103193 -0.00593572
5.42101e-20 -0.237834 0.0209375 -0.0664176 -0.000119715 -0.00461492
-2.71051e-20 0.237272 0.0265625 -0.0427006 0.00120119 0.000483727
-5.42101e-20 -0.237272 0.0265625 -0.039074 -0.00108957 0.0021613
0 0.238742 0.00309995 -0.00462966 -0.004216 0.00655566
3.97351e-20 -0.238742 0.00309995 0.00107704 0.00334776 0.00123808
0 -0.238742 0.00338081 0.000949984 0.00104946 -0.00028434
3.41861e-21 0.238124 0.0175 -0.0756016 -0.00264346 -0.0129657
0 -0.238124 0.0175 -0.0733078 0.00133455 -0.0118964
-2.58494e-26 0.238742 0.00373666 -9.66659e-05 -0.00134623 0.00419574
0 -0.238742 0.00373666 0.000789009 -0.00186246 -0.00221322