# k  POINT_DATA 63583
# x  y  z  k
2.65631e-06 2.35746e-23 0.049924 1.26029e-05
-0.000624384 -1.05879e-22 0.0499244 1.26072e-05
0.000625562 -1.05879e-22 0.0499244 1.25983e-05
-0.00124876 2.11758e-22 0.0499248 1.26056e-05
0.00125112 0 0.0499248 1.25981e-05
-0.00187315 -2.11758e-22 0.0499251 1.25985e-05
0.00187665 -2.11758e-22 0.0499251 1.26017e-05
-0.00249754 0 0.0499255 1.25902e-05
0.00250214 4.23516e-22 0.0499255 1.26098e-05
-0.00312195 -4.23516e-22 0.0499258 1.25839e-05
0.00312761 4.23516e-22 0.0499258 1.26228e-05
-0.00374636 0 0.0499262 1.25827e-05
0.00375304 0 0.0499262 1.26446e-05
-0.00437076 0 0.0499265 1.2592e-05
0.0043785 0 0.0499265 1.26736e-05
0.000312485 -2.71051e-20 0.0501277 1.2596e-05
-0.000312486 2.71051e-20 0.0501277 1.26097e-05
-0.000937479 0 0.0501277 1.26046e-05
0.000937478 2.71051e-20 0.0501277 1.26005e-05
0.00156244 0 0.0501276 1.25953e-05
-0.00156244 2.71051e-20 0.0501276 1.26066e-05
0.005004 0 0.0499269 1.2709e-05
-0.00499514 -8.47033e-22 0.0499269 1.26124e-05
-0.00218741 2.71051e-20 0.0501276 1.25902e-05
0.00218741 -2.71051e-20 0.0501276 1.26076e-05
-0.00281234 0 0.0501275 1.25901e-05
0.00281234 0 0.0501275 1.26113e-05
0.00562955 0 0.0499273 1.27491e-05
-0.00561949 8.47033e-22 0.0499273 1.26461e-05
-0.00343728 -2.71051e-20 0.0501275 1.25775e-05
0.00343728 -2.71051e-20 0.0501275 1.26335e-05
-0.00406221 -2.71051e-20 0.0501274 1.25874e-05
0.00406221 0 0.0501274 1.26547e-05
0.00625515 0 0.0499277 1.27893e-05
-0.00624382 -8.47033e-22 0.0499277 1.26938e-05
5.5543e-12 1.03398e-25 0.0503316 1.76354e-05
-0.000625384 0 0.0503318 1.76451e-05
0.00062461 4.8175e-21 0.0503318 1.76284e-05
0.00468714 5.42101e-20 0.0501273 1.26914e-05
-0.00468714 0 0.0501273 1.2596e-05
-0.00125075 0 0.0503321 1.76557e-05
0.00124923 -1.79995e-21 0.0503321 1.76293e-05
-0.00187385 0 0.0503322 1.76641e-05
0.00187385 1.12232e-20 0.0503322 1.7636e-05
-0.00249847 -2.11758e-22 0.0503325 1.76746e-05
0.00249847 1.10114e-20 0.0503325 1.76462e-05
0.00686815 0 0.0499281 1.28242e-05
-0.00686815 -8.47033e-22 0.0499281 1.27558e-05
0.00687445 -8.47033e-22 0.049924 1.28249e-05
-0.00687445 0 0.049924 1.27622e-05
-0.00688078 8.47033e-22 0.0499281 1.2758e-05
0.00688078 0 0.0499281 1.28254e-05
0.00531209 -2.71051e-20 0.0501273 1.27253e-05
-0.00531209 0 0.0501273 1.2628e-05
-0.00312312 0 0.0503326 1.76859e-05
0.00312312 2.22346e-20 0.0503326 1.76623e-05
-0.00374776 0 0.0503327 1.77059e-05
0.00374776 3.09167e-20 0.0503327 1.76851e-05
0.00593706 0 0.0501272 1.27714e-05
-0.00593706 0 0.0501272 1.26632e-05
0.00749248 8.47033e-22 0.0499285 1.28542e-05
-0.00749248 -8.47033e-22 0.0499285 1.28343e-05
0.00749944 8.47033e-22 0.049924 1.28546e-05
-0.00749944 -8.47033e-22 0.049924 1.28419e-05
-0.00750642 0 0.0499285 1.28375e-05
0.00750642 8.47033e-22 0.0499285 1.2855e-05
-0.00437717 -4.23516e-22 0.0503328 1.77361e-05
0.00437239 -4.23516e-22 0.0503328 1.77121e-05
0.00656203 0 0.0501272 1.28055e-05
-0.00656203 -2.71051e-20 0.0501272 1.2723e-05
0.000312514 0 0.0505592 2.27728e-05
-0.000312515 0 0.0505592 2.27984e-05
0.000937509 0 0.0505592 2.27811e-05
-0.000937509 -5.42101e-20 0.0505592 2.28038e-05
0.00499701 1.65171e-20 0.050333 1.7747e-05
-0.00499701 0 0.050333 1.77816e-05
0.0081168 -8.47033e-22 0.0499289 1.28796e-05
-0.0081168 0 0.0499289 1.29145e-05
0.00812442 -8.47033e-22 0.049924 1.288e-05
-0.00812442 8.47033e-22 0.049924 1.29224e-05
-0.00813207 0 0.0499289 1.29174e-05
0.00813207 -8.47033e-22 0.0499289 1.28805e-05
-0.00156252 2.71051e-20 0.0505591 2.28441e-05
0.00156252 2.71051e-20 0.0505591 2.27753e-05
-0.00218749 0 0.050559 2.28531e-05
0.00218749 0 0.050559 2.28016e-05
-0.00281247 -5.42101e-20 0.0505589 2.29028e-05
0.00281247 -2.71051e-20 0.0505589 2.27991e-05
0.00718702 0 0.0501271 1.28422e-05
-0.00718702 2.71051e-20 0.0501271 1.27905e-05
0.00562156 -4.23516e-22 0.0503288 1.77303e-05
-0.00562156 -4.23516e-22 0.0503288 1.77922e-05
0.0056216 1.69407e-21 0.0503331 1.77982e-05
-0.0056278 0 0.0503331 1.78596e-05
-0.00343743 -2.71051e-20 0.0505588 2.29123e-05
0.00343743 0 0.0505588 2.28403e-05
0.0087411 -1.69407e-21 0.0499294 1.28948e-05
-0.0087411 0 0.0499294 1.29779e-05
-0.00874939 1.69407e-21 0.049924 1.29859e-05
0.00874939 0 0.049924 1.28947e-05
-0.00875772 0 0.0499294 1.29804e-05
0.00875772 -1.69407e-21 0.0499294 1.28948e-05
0.00624613 -4.23516e-22 0.0503286 1.77581e-05
-0.00624613 0 0.0503286 1.78642e-05
0.00624618 1.77877e-20 0.0503334 1.78347e-05
-0.00624618 -4.23516e-22 0.0503334 1.79414e-05
-0.00406239 5.42101e-20 0.0505587 2.29865e-05
0.00406239 -2.71051e-20 0.0505587 2.28469e-05
0.00781202 2.71051e-20 0.0501269 1.28648e-05
-0.00781202 -2.71051e-20 0.0501269 1.28807e-05
0.00468734 0 0.0505585 2.28904e-05
-0.00468734 2.71051e-20 0.0505585 2.30159e-05
-3.81844e-10 2.58494e-26 0.0507876 6.39412e-05
-0.000625172 0 0.0507875 6.40365e-05
0.000624854 0 0.0507875 6.38527e-05
0.00936537 0 0.0499298 1.28989e-05
-0.00936537 0 0.0499298 1.30259e-05
0.00687069 0 0.0503282 1.7784e-05
-0.00687069 0 0.0503282 1.79537e-05
0.00687075 -1.43996e-20 0.0503336 1.78699e-05
-0.00687859 0 0.0503336 1.80412e-05
-0.00937433 0 0.049924 1.30339e-05
0.00937433 0 0.049924 1.28987e-05
-0.00938332 0 0.0499298 1.3028e-05
0.00938332 1.69407e-21 0.0499298 1.28988e-05
-0.00124972 0 0.0507878 6.4145e-05
0.00124971 -1.10114e-20 0.0507873 6.37788e-05
-0.00187545 -5.29396e-23 0.0507879 6.42644e-05
0.00187459 -1.12761e-20 0.0507879 6.37161e-05
0.008437 0 0.0501268 1.28928e-05
-0.008437 0 0.0501268 1.29501e-05
0.00531231 2.71051e-20 0.0505584 2.2916e-05
-0.00531231 2.71051e-20 0.0505584 2.31294e-05
-0.00250054 0 0.0507878 6.43944e-05
0.00249948 1.75759e-20 0.0507878 6.36568e-05
0.00749529 0 0.0503277 1.78073e-05
-0.00749529 0 0.0503277 1.80575e-05
-0.00312436 0 0.0507868 6.45314e-05
0.00312436 -1.99053e-20 0.0507868 6.3601e-05
0.00749536 -1.77877e-20 0.0503337 1.79024e-05
-0.00749536 8.47033e-22 0.0503337 1.81557e-05
0.00593728 2.71051e-20 0.0505582 2.2956e-05
-0.00593728 -5.42101e-20 0.0505582 2.32032e-05
0.00998957 0 0.049924 1.29064e-05
-0.00998957 0 0.049924 1.30736e-05
-0.00999924 0 0.049924 1.30821e-05
0.00999924 0 0.049924 1.29063e-05
-0.0100089 0 0.049924 1.30763e-05
0.0100089 0 0.049924 1.29065e-05
-0.00998963 0 0.0499302 1.30735e-05
0.00998963 0 0.0499302 1.29063e-05
-0.0100089 0 0.0499302 1.30763e-05
0.0100089 1.69407e-21 0.0499302 1.29064e-05
-0.00375066 0 0.0507878 6.46902e-05
0.00374926 -1.15408e-20 0.0507878 6.35485e-05
-0.00906196 2.71051e-20 0.0501265 1.30067e-05
0.00906196 -2.71051e-20 0.0501265 1.28942e-05
0.00437414 8.47033e-21 0.0507865 6.34983e-05
-0.00437574 1.05879e-22 0.0507865 6.48626e-05
0.0081199 0 0.0503273 1.78272e-05
-0.0081199 0 0.0503273 1.81627e-05
0.00811999 1.10114e-20 0.0503338 1.7931e-05
-0.00812944 8.47033e-22 0.0503338 1.82707e-05
0.00656228 0 0.0505581 2.29729e-05
-0.00656228 -5.42101e-20 0.0505581 2.33533e-05
0.00499902 -2.44581e-20 0.0507877 6.34599e-05
-0.0050008 1.05879e-22 0.0507877 6.50606e-05
0.0106139 1.69407e-21 0.049924 1.29269e-05
-0.0106139 1.69407e-21 0.049924 1.31301e-05
-0.0106242 0 0.049924 1.31389e-05
0.0106242 -1.69407e-21 0.049924 1.29274e-05
-0.0106345 0 0.049924 1.31331e-05
0.0106345 0 0.049924 1.29278e-05
-0.010614 -1.69407e-21 0.0499306 1.31301e-05
0.010614 1.69407e-21 0.0499306 1.29269e-05
-0.0106345 -1.69407e-21 0.0499306 1.3133e-05
0.0106345 1.69407e-21 0.0499306 1.29277e-05
-0.000312504 0 0.0510505 0.000106669
0.000312504 0 0.0510505 0.000106419
-0.0096869 0 0.0501262 1.30454e-05
0.0096869 -5.42101e-20 0.0501262 1.29008e-05
-0.00093753 0 0.0510505 0.000106772
0.00093753 2.71051e-20 0.0510505 0.000106328
0.0071873 0 0.0505579 2.3018e-05
-0.0071873 2.71051e-20 0.0505579 2.34678e-05
-0.00156254 2.71051e-20 0.0510504 0.000107069
0.00156254 0 0.0510504 0.000106117
-0.00874971 0 0.0503302 1.83518e-05
0.00874971 1.41172e-22 0.0503302 1.79312e-05
0.00562387 -2.30816e-20 0.0507861 6.34219e-05
-0.00562591 -2.11758e-22 0.0507861 6.52774e-05
-0.00218754 0 0.0510504 0.000107197
0.00218754 5.42101e-20 0.0510504 0.000106041
-0.00281254 5.42101e-20 0.0510503 0.000107537
0.00281254 2.71051e-20 0.0510503 0.000105851
0.00781234 2.71051e-20 0.0505576 2.30366e-05
-0.00781234 -2.71051e-20 0.0505576 2.36467e-05
-0.00343751 0 0.0510501 0.000107691
0.00343751 5.42101e-20 0.0510501 0.000105772
0.00624873 -4.02341e-21 0.0507877 6.33824e-05
-0.00624871 0 0.0507858 6.55113e-05
0.0112381 0 0.049924 1.29578e-05
-0.0112381 -1.69407e-21 0.049924 1.32006e-05
0.0103118 0 0.0501259 1.29091e-05
-0.0103118 0 0.0501259 1.31023e-05
-0.0112491 0 0.049924 1.32102e-05
0.0112491 0 0.049924 1.29585e-05
-0.0112601 0 0.049924 1.32049e-05
0.0112601 0 0.049924 1.29586e-05
-0.0112382 -1.69407e-21 0.049931 1.32005e-05
0.0112382 -1.69407e-21 0.049931 1.29577e-05
-0.01126 -1.69407e-21 0.049931 1.32048e-05
0.01126 -1.69407e-21 0.049931 1.29585e-05
0.00937469 -1.41172e-22 0.0503298 1.79514e-05
-0.00937469 -5.64689e-22 0.0503298 1.84455e-05
0.00406249 -5.42101e-20 0.05105 0.000105585
-0.00406249 2.71051e-20 0.05105 0.000108093
0.00687357 1.54584e-20 0.0507856 6.33555e-05
-0.00687621 2.11758e-22 0.0507856 6.57683e-05
0.00843739 0 0.0505573 2.30746e-05
-0.00843739 -2.71051e-20 0.0505573 2.37614e-05
0.00468748 -2.71051e-20 0.0510499 0.000105512
-0.00468748 -5.42101e-20 0.0510499 0.000108282
0.0109367 -2.71051e-20 0.0501256 1.29426e-05
-0.0109367 0 0.0501256 1.31583e-05
-0.00999964 0 0.0503294 1.8546e-05
0.00999964 1.41172e-22 0.0503294 1.79766e-05
0.0118623 0 0.049924 1.29973e-05
-0.0118623 0 0.049924 1.32884e-05
-1.40721e-10 0 0.0513142 0.000128468
-0.011874 0 0.049924 1.32985e-05
0.011874 0 0.049924 1.29989e-05
-0.000624982 0 0.0513141 0.000128634
0.000625044 -6.44539e-21 0.0513141 0.000128302
-0.0118857 0 0.049924 1.32934e-05
0.0118857 0 0.049924 1.29992e-05
-0.0118624 0 0.0499314 1.32883e-05
0.0118624 0 0.0499314 1.29972e-05
0.00531245 2.71051e-20 0.0510498 0.000105353
-0.00531245 2.71051e-20 0.0510498 0.000108747
-0.0118856 0 0.0499314 1.32933e-05
0.0118856 -1.69407e-21 0.0499314 1.29991e-05
-0.00124997 6.61744e-24 0.0513142 0.000128818
0.00124997 2.69595e-20 0.0513141 0.000128152
0.00749848 5.71747e-21 0.0507876 6.3335e-05
-0.00750136 -2.11758e-22 0.0507876 6.60472e-05
-0.00187509 1.32349e-23 0.0513142 0.000129014
0.00187497 2.84682e-20 0.051314 0.000128006
0.00906241 2.71051e-20 0.0505568 2.31004e-05
-0.00906241 -2.71051e-20 0.0505568 2.39424e-05
-0.00250009 0 0.0513141 0.000129226
0.00249997 0 0.0513141 0.000127865
0.00593746 -2.71051e-20 0.0510497 0.000105287
-0.00593746 0 0.0510497 0.000108968
-0.00312507 -6.61744e-24 0.051314 0.000129452
0.00312507 4.73147e-21 0.051314 0.000127721
0.00812339 -1.48231e-20 0.050785 6.33188e-05
-0.00812652 0 0.050785 6.63352e-05
-0.0106246 1.41172e-22 0.050329 1.86564e-05
0.0106246 -1.41172e-22 0.050329 1.80145e-05
0.0115616 0 0.0501253 1.29707e-05
-0.0115616 -2.71051e-20 0.0501253 1.32442e-05
-0.00375004 0 0.0513139 0.000129699
0.00374998 2.8594e-20 0.0513139 0.000127573
0.0124864 0 0.049924 1.30455e-05
-0.0124864 0 0.049924 1.33972e-05
0.0124989 0 0.049924 1.30474e-05
-0.0124989 0 0.049924 1.34084e-05
-0.0125115 0 0.049924 1.34042e-05
0.0125115 0 0.049924 1.30472e-05
-0.0124865 -1.69407e-21 0.0499319 1.3397e-05
0.0124865 0 0.0499319 1.30454e-05
0.00656246 0 0.0510495 0.000105142
-0.00656246 -5.42101e-20 0.0510495 0.000109477
-0.0125114 0 0.0499319 1.3404e-05
0.0125114 1.69407e-21 0.0499319 1.30471e-05
-0.00968739 0 0.0505562 2.40445e-05
0.00968739 5.42101e-20 0.0505562 2.31496e-05
0.00437498 -3.65978e-20 0.0513138 0.000127428
-0.00437502 0 0.0513138 0.000129957
0.00874839 -3.30343e-20 0.0507872 6.33107e-05
-0.00875163 2.11758e-22 0.0507847 6.66389e-05
0.00718748 0 0.0510494 0.000105107
-0.00718748 0 0.0510494 0.000109734
0.00499998 0 0.0513138 0.000127287
-0.005 0 0.0513138 0.000130242
-0.0112495 -4.23516e-22 0.0503285 1.87867e-05
0.0112495 -1.41172e-22 0.0503285 1.80579e-05
0.0121866 0 0.050125 1.30226e-05
-0.0121866 0 0.050125 1.33341e-05
-0.0103124 0 0.0505556 2.42516e-05
0.0103124 -2.71051e-20 0.0505556 2.31878e-05
-0.004375 -3.30872e-24 0.0514227 0.000133894
0.004375 3.30872e-24 0.0514227 0.00013132
0.000312513 -2.71051e-20 0.0516082 0.000150959
-0.000312513 0 0.0516082 0.000151225
-0.000937517 2.71051e-20 0.0516082 0.000151274
0.000937517 -2.71051e-20 0.0516082 0.00015091
0.0131104 1.69407e-21 0.049924 1.30966e-05
-0.0131104 0 0.049924 1.35283e-05
-0.0131239 1.69407e-21 0.049924 1.35402e-05
0.0131239 3.38813e-21 0.049924 1.30994e-05
0.00562497 1.43532e-20 0.0513137 0.000127141
-0.00562501 0 0.0513137 0.000130543
-0.00499999 1.65436e-24 0.051379 0.000132591
0.00499999 -1.65436e-24 0.051379 0.000129611
-0.0131374 -1.69407e-21 0.049924 1.35362e-05
0.0131374 0 0.049924 1.30992e-05
-0.0131106 -1.69407e-21 0.0499325 1.35282e-05
0.0131106 -1.69407e-21 0.0499325 1.30965e-05
-0.0131373 -1.69407e-21 0.0499325 1.3536e-05
0.0131373 -1.69407e-21 0.0499325 1.30991e-05
-0.00156253 0 0.0516082 0.000151558
0.00156253 2.71051e-20 0.0516082 0.000150657
0.00375001 9.92617e-24 0.0515042 0.000134374
-0.00375001 3.30872e-24 0.0515042 0.000136589
0.00937336 3.38813e-21 0.0507843 6.33057e-05
-0.00937666 -4.15046e-20 0.0507843 6.69357e-05
0.00781251 -2.71051e-20 0.0510492 0.000104995
-0.00781251 5.42101e-20 0.0510492 0.00011031
-0.00218753 2.71051e-20 0.0516081 0.000151628
0.00218753 -2.71051e-20 0.0516081 0.000150608
-0.00281253 0 0.0516081 0.00015194
0.00281253 0 0.0516081 0.000150358
-0.00562499 0 0.0513796 0.000132921
0.00562499 -1.65436e-24 0.0513797 0.000129486
0.00624996 -3.30872e-24 0.0513136 0.000126996
-0.00625002 0 0.0513136 0.000130867
0.00312502 0 0.0516018 0.000138044
-0.00312502 3.30872e-24 0.0516018 0.00013989
-0.0118744 4.23516e-22 0.050328 1.89349e-05
0.0118744 2.82344e-22 0.050328 1.81092e-05
-0.00343753 -2.71051e-20 0.051608 0.000152029
0.00343753 2.71051e-20 0.051608 0.000150296
0.0109373 -2.71051e-20 0.050555 2.32611e-05
-0.0109373 0 0.050555 2.43765e-05
0.0128115 -2.71051e-20 0.0501247 1.30666e-05
-0.0128115 0 0.0501247 1.3463e-05
0.00843756 2.71051e-20 0.0510489 0.000104972
-0.00843756 -2.71051e-20 0.0510489 0.000110592
0.00250002 0 0.0516948 0.000141558
-0.00250002 0 0.0516948 0.000143029
0.00999837 0 0.0507864 6.33175e-05
-0.0100016 -2.11758e-22 0.0507838 6.72595e-05
0.00406252 0 0.051608 0.000150032
-0.00406252 2.71051e-20 0.051608 0.000152367
0.00687495 -2.63904e-20 0.0513135 0.000126858
-0.00687495 -6.61744e-24 0.0513135 0.000131204
0.0137345 -1.69407e-21 0.049924 1.31483e-05
-0.0137345 0 0.049924 1.3685e-05
0.0137489 0 0.049924 1.31512e-05
-0.0137489 0 0.049924 1.36983e-05
-0.0137634 0 0.049924 1.36959e-05
0.0137634 0 0.049924 1.31503e-05
-0.00624999 0 0.0514085 0.000134294
0.00624999 3.30872e-24 0.0514085 0.000130355
-0.0137346 -1.69407e-21 0.0499331 1.36849e-05
0.0137346 0 0.0499331 1.31482e-05
-0.0137632 1.69407e-21 0.0499331 1.36957e-05
0.0137632 0 0.0499331 1.31502e-05
0.00187502 0 0.0517709 0.000144451
-0.00187502 -1.65436e-24 0.0517711 0.000145569
0.0046875 -2.71051e-20 0.0516079 0.000149977
-0.0046875 -2.71051e-20 0.0516079 0.000152467
0.00125001 -8.27181e-25 0.0518255 0.000146573
-0.00125001 3.30872e-24 0.0518258 0.000147324
0.00906259 -2.71051e-20 0.0510486 0.000104885
-0.00906259 -2.71051e-20 0.0510486 0.000111228
-0.0124994 0 0.0503276 1.91165e-05
0.0124994 4.23516e-22 0.0503276 1.81671e-05
0.00749997 -6.61744e-24 0.0513134 0.00012673
-0.00750007 0 0.0513134 0.000131572
0.0115622 0 0.0505543 2.33012e-05
-0.0115622 -2.71051e-20 0.0505543 2.46343e-05
0.000625007 0 0.0518574 0.000147928
-0.000625007 8.27181e-25 0.0518581 0.000148328
0.00531251 -5.42101e-20 0.0516078 0.000149691
-0.00531251 5.42101e-20 0.0516078 0.000152846
0.0106266 -1.43996e-20 0.0507834 6.33515e-05
-0.0106266 0 0.0507859 6.76066e-05
0.0134365 -2.71051e-20 0.0501244 1.31255e-05
-0.0134365 0 0.0501244 1.35966e-05
-0.00687499 0 0.0514385 0.00013571
0.00687499 6.61744e-24 0.0514385 0.000131265
-4.03963e-11 3.23117e-27 0.0519027 0.000149751
0.000625009 4.1359e-25 0.0519027 0.000149566
-0.000625003 -4.1359e-25 0.0519027 0.000149943
0.00125 0 0.0519027 0.000149353
-0.00125002 1.13208e-20 0.0519027 0.000150103
0.001875 3.30872e-24 0.0519027 0.000149195
-0.00187504 -3.899e-20 0.0519027 0.000150338
-0.0143585 -1.69407e-21 0.049924 1.38768e-05
0.0143585 0 0.049924 1.31975e-05
0.00593751 -2.71051e-20 0.0516078 0.000149616
-0.00593751 0 0.0516078 0.00015298
0.0143739 0 0.049924 1.32013e-05
-0.0143739 0 0.049924 1.38906e-05
0.00812501 -1.24011e-20 0.0513133 0.000126607
-0.00812501 0 0.0513133 0.000131955
-0.0143893 -1.69407e-21 0.049924 1.38898e-05
0.0143893 0 0.049924 1.32005e-05
-0.0143587 0 0.0499336 1.38767e-05
0.0143587 0 0.0499336 1.31974e-05
0.0096876 2.71051e-20 0.0510482 0.000104892
-0.0096876 -2.71051e-20 0.0510482 0.000111525
0.00249999 0 0.0519026 0.000149032
-0.00250005 -1.20305e-20 0.0519026 0.000150559
-0.0143892 -1.69407e-21 0.0499336 1.38895e-05
0.0143892 0 0.0499336 1.32003e-05
-0.00750002 0 0.051446 0.000136329
0.00750002 0 0.051446 0.000131379
0.00312497 0 0.0519026 0.000148833
-0.00312507 1.59613e-20 0.0519026 0.000150798
0.0121872 2.71051e-20 0.0505537 2.33898e-05
-0.0121872 2.71051e-20 0.0505537 2.47988e-05
-0.0131244 -7.05861e-22 0.0503272 1.93324e-05
0.0131244 0 0.0503272 1.82247e-05
0.0112483 -1.56701e-20 0.0507829 6.33829e-05
-0.0112515 0 0.0507854 6.79835e-05
0.00656251 -2.71051e-20 0.0516077 0.000149318
-0.00656251 2.71051e-20 0.0516077 0.00015341
0.00374994 -1.32349e-23 0.0519027 0.000148609
-0.00375008 -3.93738e-20 0.0519027 0.000151013
-0.00812505 0 0.0514143 0.000135571
0.00812505 -6.61744e-24 0.0514143 0.000130135
0.00875006 8.27181e-25 0.0513131 0.000126491
-0.00875008 -8.27181e-25 0.0513131 0.000132367
0.0140615 2.71051e-20 0.0501241 1.31693e-05
-0.0140615 -2.71051e-20 0.0501241 1.37786e-05
-0.00881331 0 0.0513131 0.00013241
0.00881337 5.79026e-24 0.0513131 0.00012648
-0.00875007 0 0.0513281 0.000132904
0.00875007 -4.96308e-24 0.0513282 0.000127014
0.0103126 2.71051e-20 0.0510478 0.000104837
-0.0103126 0 0.0510478 0.000112222
-0.0043751 -3.73356e-20 0.0519025 0.000151246
0.0043751 0 0.0519025 0.00014847
0.00718752 -2.71051e-20 0.0516076 0.000149241
-0.00718752 0 0.0516076 0.00015356
0.0149826 0 0.049924 1.32434e-05
-0.0149826 0 0.049924 1.40813e-05
-0.0149989 0 0.049924 1.40942e-05
0.0149989 -3.38813e-21 0.049924 1.32468e-05
-0.0150152 0 0.049924 1.40945e-05
0.0150152 0 0.049924 1.32457e-05
-0.0149828 1.69407e-21 0.0499342 1.40811e-05
0.0149828 -1.69407e-21 0.0499342 1.32432e-05
-0.00500012 -4.12929e-21 0.0519026 0.000151449
0.0049999 0 0.0519026 0.000148257
-0.0150151 1.69407e-21 0.0499341 1.40941e-05
0.0150151 0 0.0499341 1.32455e-05
-0.00937509 1.32349e-23 0.0512978 0.000130901
0.00937509 -1.32349e-23 0.0512978 0.000124571
0.0128121 -2.71051e-20 0.0505531 2.34382e-05
-0.0128121 0 0.0505531 2.5146e-05
0.0118733 2.20229e-20 0.0507824 6.34226e-05
-0.0118765 0 0.0507824 6.83855e-05
-0.00937514 8.25195e-21 0.0513129 0.000132792
0.00937504 0 0.0513129 0.000126383
0.0137494 8.47033e-22 0.0503268 1.82821e-05
-0.0137494 0 0.0503268 1.95839e-05
0.00781255 0 0.0516075 0.000148948
-0.00781255 0 0.0516075 0.000154044
0.0109375 0 0.0510474 0.000104894
-0.0109375 -5.42101e-20 0.0510474 0.000112572
-0.00562513 3.17637e-21 0.0519024 0.000151779
0.00562488 0 0.0519026 0.000148072
0.000300834 -2.71051e-20 0.0522172 0.000148706
-0.000300834 0 0.0522172 0.000148124
-0.000949178 8.13152e-20 0.0522172 0.000149091
0.000949178 2.71051e-20 0.0522172 0.000147629
0.0146865 0 0.0501237 1.32247e-05
-0.0146865 -5.42101e-20 0.0501237 1.39814e-05
-0.00155084 -2.71051e-20 0.0522172 0.000148501
0.00155084 0 0.0522172 0.000148226
-0.0100001 -6.61744e-23 0.051277 0.000128797
0.0100001 -1.32349e-23 0.051277 0.000122041
-0.00219919 0 0.0522172 0.000149609
0.00219919 -2.71051e-20 0.0522172 0.000147224
-0.00625015 2.32934e-21 0.0519024 0.000152131
0.00624987 0 0.0519024 0.000147827
-0.0100002 -2.98976e-20 0.0513125 0.000133245
0.00999998 7.9277e-21 0.0513127 0.000126285
-0.00280085 -2.71051e-20 0.0522171 0.000149068
0.00280085 0 0.0522171 0.00014795
0.00843757 0 0.0516074 0.00014887
-0.00843757 2.71051e-20 0.0516074 0.000154225
0.0124982 -3.38813e-21 0.0507819 6.34783e-05
-0.0125016 4.65868e-21 0.0507819 6.88372e-05
0.0156067 -3.38813e-21 0.0499241 1.32703e-05
-0.0156067 0 0.0499241 1.42556e-05
0.0134371 2.71051e-20 0.0505525 2.35193e-05
-0.0134371 -2.71051e-20 0.0505525 2.54048e-05
0.0156239 3.38813e-21 0.049924 1.32727e-05
-0.0156239 0 0.049924 1.42656e-05
-0.0156411 -3.38813e-21 0.0499239 1.42646e-05
0.0156411 0 0.0499239 1.32708e-05
-0.0156069 0 0.0499348 1.42553e-05
0.0156069 -3.38813e-21 0.0499348 1.32701e-05
-0.0156409 0 0.0499346 1.4264e-05
0.0156409 0 0.0499346 1.32705e-05
-0.00344918 2.71051e-20 0.0522171 0.000150102
0.00344918 2.71051e-20 0.0522171 0.000146664
0.0143744 -8.47033e-22 0.0503263 1.8336e-05
-0.0143744 0 0.0503263 1.98763e-05
0.0115625 0 0.0510469 0.000104841
-0.0115625 0 0.0510469 0.000113353
-0.0106251 1.05879e-22 0.0512559 0.000126644
0.0106251 0 0.0512559 0.000119473
-0.00687516 2.10699e-20 0.0519024 0.000152432
0.00687485 0 0.0519027 0.000147618
-0.00405085 2.71051e-20 0.0522171 0.000149563
0.00405085 0 0.0522171 0.000147457
0.00906259 -2.71051e-20 0.0516072 0.000148589
-0.00906259 5.42101e-20 0.0516072 0.000154769
-0.0106249 0 0.0513122 0.000133722
0.0106249 0 0.0513126 0.000126201
0.0153117 2.71051e-20 0.0501229 1.326e-05
-0.0153117 -5.42101e-20 0.0501229 1.41866e-05
0.00469918 0 0.0522171 0.000146347
-0.00469918 0 0.0522171 0.000150536
-0.00750018 -2.44316e-20 0.0519026 0.000152706
0.00749986 -2.64698e-23 0.0519022 0.00014738
0.0131266 0 0.0507842 6.35299e-05
-0.013123 2.07523e-20 0.0507813 6.93299e-05
-0.0112501 -1.32349e-22 0.0512373 0.000124845
0.0112501 0 0.0512373 0.000117233
0.0140622 -2.71051e-20 0.0505519 2.35673e-05
-0.0140622 2.71051e-20 0.0505519 2.58426e-05
0.0121875 0 0.0510465 0.000104915
-0.0121875 0 0.0510465 0.000113764
0.00530085 0 0.0522171 0.000147028
-0.00530085 -2.71051e-20 0.0522171 0.000149956
0.0162308 0 0.0499239 1.32697e-05
-0.0162308 0 0.0499239 1.43885e-05
0.0162489 3.38813e-21 0.0499238 1.3271e-05
-0.0162489 0 0.0499238 1.4398e-05
-0.0162311 0 0.0499351 1.4388e-05
0.0162311 0 0.0499351 1.32694e-05
-0.016267 0 0.0499237 1.43967e-05
0.016267 0 0.0499237 1.32679e-05
0.0096876 -2.71051e-20 0.0516071 0.000148507
-0.0096876 -2.71051e-20 0.0516071 0.00015498
0.0149995 5.64689e-22 0.0503256 1.8379e-05
-0.0149995 0 0.0503256 2.01879e-05
-0.0162668 0 0.0499349 1.4396e-05
0.0162668 -3.38813e-21 0.0499349 1.32675e-05
0.000625003 0 0.0525189 0.000145662
-0.000625008 -2.23339e-20 0.0525189 0.000146152
-0.0112504 1.03762e-20 0.0513119 0.000134231
0.0112504 0 0.0513124 0.000126121
-0.00812521 4.23516e-22 0.0519022 0.000153055
0.00812485 2.64698e-23 0.0519022 0.000147194
0.00187503 3.30872e-24 0.0525189 0.000145173
-0.00187503 1.20074e-20 0.0525189 0.000146656
0.00594917 -5.42101e-20 0.0522171 0.000145887
-0.00594917 0 0.0522171 0.000151284
-0.011875 -1.58819e-22 0.0512242 0.000123745
0.011875 -5.29396e-23 0.0512242 0.000115655
0.0159368 0 0.0501213 1.32758e-05
-0.0159368 0 0.0501213 1.43236e-05
0.0137479 0 0.0507838 6.35853e-05
-0.0137518 1.69407e-20 0.0507807 6.9864e-05
0.00312505 0 0.0525189 0.000144707
-0.00312497 2.15067e-21 0.0525189 0.000147226
0.00655084 -5.42101e-20 0.052217 0.0001465
-0.00655084 -2.71051e-20 0.052217 0.000150857
0.0103126 0 0.0516069 0.000148244
-0.0103126 -5.42101e-20 0.0516069 0.000155586
0.0128125 -2.71051e-20 0.0510461 0.000104909
-0.0128125 2.71051e-20 0.0510461 0.000114645
-0.00875025 -7.41154e-22 0.0519025 0.000153411
0.00874983 -2.64698e-23 0.0519025 0.000146972
0.0146872 0 0.0505511 2.36387e-05
-0.0146872 0 0.0505511 2.61967e-05
-0.0118753 3.91753e-21 0.0513116 0.000134763
0.0118753 -5.29396e-23 0.0513116 0.00012605
-7.54057e-12 0 0.0526734 0.000144312
0.00125002 0 0.0526734 0.000143763
-0.00125002 5.24763e-21 0.0526734 0.000144805
0.0168548 0 0.0499237 1.32619e-05
-0.0168548 0 0.0499237 1.45078e-05
0.0156246 8.47033e-22 0.0503244 1.84031e-05
-0.0156246 -8.47033e-22 0.0503244 2.04845e-05
0.0168738 3.38813e-21 0.0499236 1.32642e-05
-0.0168738 0 0.0499236 1.45174e-05
0.00437507 0 0.0525188 0.000144252
-0.00437507 1.49356e-20 0.0525188 0.000147751
-0.0168552 0 0.0499355 1.45072e-05
0.0168552 3.38813e-21 0.0499355 1.32615e-05
-0.0168928 3.38813e-21 0.0499235 1.4516e-05
0.0168928 0 0.0499235 1.32621e-05
0.00719919 2.71051e-20 0.052217 0.000145343
-0.00719919 0 0.052217 0.000151857
-0.0168924 0 0.0499353 1.4515e-05
0.0168924 0 0.0499353 1.32617e-05
-0.0125 5.29396e-23 0.0512179 0.000123534
0.0125 -5.29396e-23 0.0512179 0.000114904
0.00250004 3.30872e-24 0.0526734 0.000143309
-0.00250004 -2.51628e-20 0.0526734 0.000145407
-0.00937529 1.21761e-21 0.051902 0.000153832
0.00937479 0 0.0519025 0.000146787
0.0109376 -2.71051e-20 0.0516067 0.000148152
-0.0109376 0 0.0516067 0.000155829
0.0143728 -9.31736e-21 0.0507801 6.36436e-05
-0.014377 0 0.0507801 7.0434e-05
0.0134375 2.71051e-20 0.0510457 0.000104989
-0.0134375 0 0.0510457 0.000115142
0.0165617 2.71051e-20 0.0501194 1.32553e-05
-0.0165617 0 0.0501194 1.44485e-05
0.00780085 0 0.052217 0.000146004
-0.00780085 -5.42101e-20 0.052217 0.000151371
0.00375005 6.61744e-24 0.0526733 0.000142746
-0.00375005 2.16787e-20 0.0526733 0.000145985
-0.0125004 3.26637e-20 0.0513119 0.000135326
0.0124996 0 0.0513119 0.00012599
0.0153124 0 0.0505502 2.365e-05
-0.0153124 0 0.0505502 2.66858e-05
-0.00562508 7.02773e-21 0.0525188 0.000148365
0.00562508 0 0.0525188 0.000143767
-0.0100004 -2.43522e-21 0.0519024 0.000154243
0.00999982 -5.24102e-21 0.0519024 0.000146562
-0.013125 -5.29396e-23 0.0512174 0.000124072
0.013125 0 0.0512174 0.000114837
0.0162497 0 0.050323 1.84153e-05
-0.0162497 -2.82344e-22 0.050323 2.07555e-05
0.0115626 0 0.0516065 0.000147916
-0.0115626 0 0.0516065 0.000156485
0.0174788 3.38813e-21 0.0499237 1.32711e-05
-0.0174788 0 0.0499237 1.46287e-05
0.0084492 -5.42101e-20 0.0522169 0.000144883
-0.0084492 2.71051e-20 0.0522169 0.000152534
0.0174986 -3.38813e-21 0.0499235 1.32739e-05
-0.0174986 3.38813e-21 0.0499235 1.4639e-05
-0.0174793 -3.38813e-21 0.0499359 1.46279e-05
0.0174793 0 0.0499359 1.32707e-05
-0.0175184 -3.38813e-21 0.0499234 1.46383e-05
0.0175184 3.38813e-21 0.0499234 1.32722e-05
-0.00500007 -6.87553e-20 0.0526734 0.000146524
0.00499995 0 0.0526734 0.000142279
-0.0175179 0 0.0499357 1.4637e-05
0.0175179 0 0.0499357 1.32717e-05
0.0140625 0 0.0510452 0.000105
-0.0140625 -2.71051e-20 0.0510452 0.000116099
0.0149978 1.35525e-20 0.0507795 6.36941e-05
-0.0150022 0 0.0507795 7.10265e-05
-0.0131254 -5.24102e-21 0.0513118 0.000135914
0.0131246 0 0.0513118 0.000125935
-0.00687492 -3.44504e-20 0.0525187 0.000149118
0.0068751 1.32349e-23 0.0525187 0.000143207
-0.0106253 -2.37169e-20 0.0519017 0.00015469
0.0106246 -5.29396e-23 0.0519023 0.000146336
0.0171866 -2.71051e-20 0.0501174 1.32609e-05
-0.0171866 -5.42101e-20 0.0501174 1.45588e-05
0.00905088 -2.71051e-20 0.0522169 0.00014556
-0.00905088 -2.71051e-20 0.0522169 0.000152127
0.0159374 0 0.050549 2.3683e-05
-0.0159374 2.71051e-20 0.050549 2.7043e-05
0.0121875 0 0.0516063 0.000147831
-0.0121875 0 0.0516063 0.000156753
-0.01375 0 0.0512192 0.000124944
0.01375 5.29396e-23 0.0512193 0.000115067
-0.00625007 -1.80789e-20 0.0526733 0.000147332
0.00625007 0 0.0526733 0.000141733
0.0168746 0 0.0503213 1.84289e-05
-0.0168746 -5.64689e-22 0.0503213 2.10156e-05
0.0181029 -3.38813e-21 0.0499235 1.32949e-05
-0.0181029 0 0.0499235 1.4757e-05
-0.0112504 -1.26526e-20 0.0519024 0.000155114
0.0112504 5.29396e-23 0.0519017 0.000146155
0.00969921 -2.71051e-20 0.0522168 0.000144418
-0.00969921 0 0.0522168 0.000153408
0.0181235 0 0.0499233 1.32985e-05
-0.0181235 3.38813e-21 0.0499233 1.47673e-05
0.0146875 -2.71051e-20 0.0510448 0.000105093
-0.0146875 2.71051e-20 0.0510448 0.000116634
-0.0181035 -3.38813e-21 0.0499362 1.47558e-05
0.0181035 0 0.0499362 1.32944e-05
-0.0181441 -3.38813e-21 0.0499232 1.47668e-05
0.0181441 0 0.0499232 1.32977e-05
-0.0137504 -5.29396e-23 0.0513108 0.00013652
0.0137504 5.29396e-23 0.0513115 0.000125886
0.0156273 2.71051e-20 0.0507786 6.37349e-05
-0.0156272 0 0.0507821 7.16183e-05
-0.0181435 0 0.049936 1.47652e-05
0.0181435 0 0.049936 1.3297e-05
-0.00812512 -2.07126e-20 0.0525187 0.00014976
0.00812512 -1.32349e-23 0.0525187 0.000142696
0.000625009 0 0.0531412 0.000137407
-0.000625009 5.42101e-20 0.0531412 0.000138062
0.0128125 -2.71051e-20 0.0516061 0.000147601
-0.0128125 0 0.0516061 0.000157437
0.00187502 -5.42101e-20 0.0531412 0.000136764
-0.00187502 5.42101e-20 0.0531412 0.000138753
0.0178114 2.71051e-20 0.0501153 1.32731e-05
-0.0178114 0 0.0501153 1.46883e-05
0.0165624 -2.71051e-20 0.0505475 2.36989e-05
-0.0165624 -5.42101e-20 0.0505475 2.75055e-05
-0.0143751 -1.05879e-22 0.0512197 0.000125643
0.0143751 0 0.0512197 0.000115125
-0.00750009 -1.02306e-20 0.0526733 0.000147974
0.00750009 0 0.0526733 0.000141171
0.0103009 -2.71051e-20 0.0522167 0.000145095
-0.0103009 0 0.0522167 0.000153007
0.00312503 -5.42101e-20 0.0531412 0.000136138
-0.00312503 -5.42101e-20 0.0531412 0.000139455
-0.0118754 2.13346e-20 0.0519015 0.000155583
0.0118746 0 0.0519015 0.000145979
0.0174995 2.82344e-22 0.0503195 1.84598e-05
-0.0174995 8.47033e-22 0.0503195 2.1285e-05
-0.0143747 7.14684e-21 0.0513104 0.000137132
0.0143747 0 0.0513104 0.000125838
0.0153126 -5.42101e-20 0.0510442 0.000105107
-0.0153126 2.71051e-20 0.0510442 0.000117626
0.016248 2.11758e-21 0.0507777 6.37748e-05
-0.016248 4.23516e-22 0.0507777 7.22006e-05
0.0187269 3.38813e-21 0.0499232 1.33349e-05
-0.0187269 0 0.0499232 1.49042e-05
0.00437501 -5.42101e-20 0.0531412 0.000135521
-0.00437501 -5.42101e-20 0.0531412 0.000140179
0.0134375 -2.71051e-20 0.051606 0.000147526
-0.0134375 2.71051e-20 0.051606 0.000157717
0.0187483 0 0.0499231 1.33389e-05
-0.0187483 0 0.0499231 1.49165e-05
-0.0187276 0 0.0499365 1.49028e-05
0.0187276 3.38813e-21 0.0499365 1.33342e-05
-0.0187697 0 0.0499229 1.49178e-05
0.0187697 0 0.0499229 1.33388e-05
-0.0187691 0 0.0499363 1.49158e-05
0.0187691 0 0.0499363 1.33379e-05
-0.00937516 -3.26637e-20 0.0525187 0.000150574
0.00937488 1.36319e-20 0.0525187 0.000142202
0.0109492 2.71051e-20 0.0522167 0.000143777