# kMean  POINT_DATA 27167
# x  y  z  kMean
0 -0.0100383 9.88059e-08 3.9493e-10
0 0.0100383 9.88059e-08 4.43888e-09
-6.77626e-21 0.0100383 0.000270318 5.18165e-09
-3.38813e-20 -0.0100383 0.000270355 4.63683e-10
0 0.0100383 0.000399158 5.33501e-09
-6.77626e-21 -0.0100383 0.000399216 4.82144e-10
0 0.0100383 0.000671987 5.20723e-09
0 -0.0100383 0.000672082 4.84217e-10
0 0.0100383 0.000954688 6.36753e-09
1.35525e-20 -0.0100383 0.000954778 6.12151e-10
2.71051e-20 0.0100383 0.00108461 6.5164e-09
-1.35525e-20 -0.0100383 0.00108472 6.30706e-10
0 0.0100383 0.00136726 5.95039e-09
0 -0.0100383 0.00136736 5.74643e-10
-2.03288e-20 0.0100382 0.00165828 6.46921e-09
6.77626e-21 -0.0100382 0.00165833 6.3424e-10
0 0.0100382 0.00179903 6.79926e-09
-1.35525e-20 -0.0100382 0.00179907 6.73242e-10
1.35525e-20 -0.0102118 8.66105e-08 4.54063e-10
0 0.0102118 8.66107e-08 5.08872e-09
-4.51751e-21 0.0102382 0.000331507 5.19423e-09
0 -0.0102382 0.000331549 4.67089e-10
-2.71051e-20 0.0100382 0.002087 7.71023e-09
2.71051e-20 -0.0100382 0.002087 7.88045e-10
0 0.0102243 0.000990464 6.33753e-09
0 -0.0102243 0.000990555 6.09408e-10
0 0.0102083 0.00163604 6.7211e-09
0 -0.0102083 0.00163609 6.62539e-10
-1.35525e-20 -0.0102224 0.00218426 9.81771e-10
2.71051e-20 0.0102225 0.00218428 9.40417e-09
0 0.010458 6.24978e-08 1.13159e-08
-2.71051e-20 -0.010458 6.24966e-08 1.07943e-09
0 0.0104623 0.000144468 1.15729e-08
0 -0.0104623 0.000144482 1.10518e-09
0 0.0105577 0.000633902 1.06995e-08
-4.51751e-21 -0.0105577 0.000633982 1.04695e-09
1.35525e-20 0.01058 5.25664e-08 1.60858e-08
1.35525e-20 -0.01058 5.25657e-08 1.57562e-09
2.71051e-21 -0.0104079 0.00203703 9.79052e-10
-1.6263e-20 0.010408 0.00203704 9.40155e-09
9.03502e-21 0.010539 0.00125631 4.67101e-09
4.51751e-21 -0.010539 0.00125641 4.53878e-10
0 0.0106667 9.98935e-05 2.08622e-08
-1.35525e-20 -0.0106667 9.99038e-05 2.09154e-09
-3.01167e-21 0.0105324 0.0017155 6.20502e-09
1.05409e-20 -0.0105324 0.00171555 6.3044e-10
-1.35525e-20 -0.0104246 0.00229102 1.20508e-09
0 0.0104247 0.00229107 1.09911e-08
0 -0.0106751 3.95308e-08 2.11605e-09
1.35525e-20 0.0106752 3.95301e-08 2.10795e-08
1.35525e-20 -0.0105566 0.00221565 1.24614e-09
0 0.0105567 0.0022157 1.12587e-08
1.35525e-20 -0.0105735 0.00236965 1.43774e-09
0 0.0105737 0.00236971 1.24889e-08
-2.71051e-20 -0.0108504 0.000315325 2.91808e-09
2.71051e-20 0.0108504 0.000315288 2.92225e-08
2.71051e-20 -0.0108348 0.000932939 3.48147e-10
2.71051e-20 0.0108349 0.000932867 3.64464e-09
0 -0.0108178 0.00151928 1.94486e-10
2.71051e-20 0.0108179 0.00151923 1.93349e-09
-1.35525e-20 -0.0106814 0.00242665 1.60098e-09
0 0.0106816 0.00242671 1.35478e-08
0 -0.0107334 0.002339 1.58574e-09
0 0.0107336 0.00233907 1.34502e-08
-6.77626e-21 -0.0110782 8.04033e-09 3.51026e-09
0 0.0110782 8.03996e-09 3.31028e-08
0 -0.0110788 6.39066e-05 3.51554e-09
0 0.0110788 6.38979e-05 3.31446e-08
0 -0.0111402 -5.0826e-11 3.63711e-09
0 0.0111402 -5.09721e-11 3.39634e-08
-3.38813e-21 0.0111346 0.000610508 1.9543e-08
-2.25875e-21 -0.0111346 0.000610587 2.0889e-09
-2.25875e-21 -0.0111195 0.00122932 3.51595e-10
1.12938e-21 0.0111196 0.00122924 3.24072e-09
-3.61401e-21 -0.0110331 0.00190701 7.7336e-10
9.03502e-22 0.0110332 0.001907 6.55638e-09
0 0.0111969 4.05707e-11 3.49062e-08
0 -0.0111969 4.06969e-11 3.78888e-09
0 0.011197 5.9483e-05 3.48951e-08
0 -0.011197 5.94923e-05 3.78694e-09
0 -0.0109687 0.002298 1.80247e-09
0 0.0109689 0.00229806 1.48717e-08
1.35525e-20 -0.0109784 0.0025835 2.03829e-09
-1.35525e-20 0.0109787 0.00258362 1.56076e-08
-1.35525e-20 -0.0110322 0.00252116 2.04507e-09
0 0.0110324 0.00252128 1.5619e-08
-1.35525e-20 -0.0110647 0.00262905 2.17835e-09
1.35525e-20 0.0110649 0.00262916 1.60384e-08
-2.71051e-20 -0.0114329 0.000303637 4.38707e-09
0 0.0114329 0.000303605 3.88652e-08
0 -0.0111379 0.00266759 2.2844e-09
0 0.0111381 0.0026677 1.63377e-08
0 -0.0111676 0.0026113 2.27797e-09
1.35525e-20 0.0111678 0.00261141 1.63143e-08
-2.71051e-20 -0.0114367 0.000916296 6.30949e-10
0 0.0114367 0.00091623 5.70179e-09
-1.50584e-21 -0.011273 0.00233144 1.60421e-09
-4.51751e-21 0.0112732 0.0023315 1.17772e-08
-5.42101e-20 -0.0114108 0.00155891 2.36159e-10
0 0.0114108 0.00155888 1.71049e-09
-2.71051e-20 -0.0114548 0.00210261 4.60566e-10
0 0.0114549 0.00210264 3.22371e-09
0 -0.0116763 1.11166e-09 5.38604e-09
0 0.0116763 1.11171e-09 4.40342e-08
0 -0.0116771 3.85435e-05 5.38749e-09
0 0.0116771 3.85343e-05 4.40425e-08
-2.71051e-20 -0.011407 0.00257359 2.51534e-09
2.71051e-20 0.0114072 0.00257368 1.70219e-08
0 -0.0117135 1.17278e-09 5.55174e-09
-6.77626e-21 0.0117135 1.17283e-09 4.49339e-08
-6.77626e-21 0.0117497 1.11165e-09 4.5684e-08
6.77626e-21 -0.0117497 1.11158e-09 5.6946e-09
0 0.0117514 3.5956e-05 4.56781e-08
0 -0.0117514 3.59627e-05 5.69344e-09
0 0.0117364 0.000596551 2.60617e-08
0 -0.0117364 0.000596601 3.22919e-09
5.64689e-22 -0.0117435 0.00122276 6.58316e-10
-5.64689e-22 0.0117435 0.00122272 4.54778e-09
-6.77626e-21 -0.0114702 0.00284265 4.32692e-09
0 0.0114705 0.00284279 2.48656e-08
-6.77626e-21 -0.0114996 0.00279927 4.35256e-09
0 0.0114998 0.00279942 2.49754e-08
0 -0.0115305 0.00287442 5.0019e-09
0 0.0115308 0.00287455 2.77045e-08
1.12938e-21 -0.0117521 0.00184887 6.47248e-10
1.12938e-21 0.0117522 0.00184887 3.3162e-09
-1.35525e-20 -0.011585 0.00290382 5.62114e-09
0 0.0115853 0.00290395 3.03699e-08
4.51751e-21 -0.0117097 0.00240797 2.93507e-09
-2.25875e-21 0.0117099 0.00240804 1.61968e-08
0 -0.01162 0.00284239 5.58779e-09
1.35525e-20 0.0116202 0.00284253 3.0229e-08
0 -0.0120252 0.000293165 6.70293e-09
-2.71051e-20 0.0120252 0.000293149 5.09015e-08
5.42101e-20 -0.0120563 0.000895248 1.07e-09
5.42101e-20 0.0120564 0.000895221 7.77216e-09
5.42101e-20 -0.0120785 0.00152564 6.85581e-10
2.71051e-20 0.0120786 0.00152563 2.91203e-09
-2.71051e-20 -0.0119134 0.00273996 7.41802e-09
2.71051e-20 0.0119137 0.00274007 3.81631e-08
0 -0.0120751 0.00217654 1.23102e-09
0 0.0120752 0.00217659 5.44937e-09
-3.38813e-21 -0.0122802 1.16251e-10 7.75466e-09
0 0.0122802 1.16247e-10 5.42377e-08
0 -0.0122814 2.10156e-05 7.75506e-09
0 0.0122814 2.10088e-05 5.42387e-08
3.38813e-21 -0.0123014 8.01245e-11 7.84558e-09
0 0.0123014 8.01301e-11 5.45285e-08
0 0.012322 7.76986e-11 5.47824e-08
0 -0.012322 7.76925e-11 7.92195e-09
0 0.0123232 1.85978e-05 5.47807e-08
-3.38813e-21 -0.0123232 1.86029e-05 7.92147e-09
0 -0.01193 0.00308971 8.56681e-09
0 0.0119303 0.00308987 3.89999e-08
6.77626e-21 -0.0119644 0.0030398 8.57734e-09
0 0.0119646 0.00303997 3.89939e-08
0 -0.0123483 0.000568694 4.73887e-09
0 0.0123483 0.000568677 3.22078e-08
0 -0.0119766 0.00311487 8.88763e-09
6.77626e-21 0.0119769 0.00311502 3.9197e-08
0 -0.0120209 0.00313842 9.19174e-09
-6.77626e-21 0.0120212 0.00313856 3.94369e-08
-1.35525e-20 -0.0120441 0.00309412 9.17386e-09
-6.77626e-21 0.0120444 0.00309427 3.94128e-08
-1.12938e-21 -0.012391 0.00118194 1.46656e-09
-1.12938e-21 0.0123911 0.00118192 6.41977e-09
5.64689e-22 -0.0124059 0.00184696 1.57052e-09
-5.64689e-22 0.012406 0.00184698 3.99665e-09
2.71051e-20 -0.0126198 0.000269545 8.97833e-09
0 0.0126199 0.000269541 5.81201e-08
9.03502e-22 -0.0123629 0.00258809 4.99246e-09
0 0.0123631 0.00258818 1.97464e-08
2.71051e-20 -0.012324 0.00300712 1.03007e-08
-2.71051e-20 0.0123242 0.00300724 4.01329e-08
0 -0.0126819 0.000839778 1.9808e-09
2.71051e-20 0.0126819 0.000839773 1.06087e-08
0 -0.0123691 0.00332403 1.149e-08
-6.77626e-21 0.0123694 0.00332418 3.94411e-08
2.71051e-20 -0.0127333 0.0014734 2.11822e-09
0 0.0127334 0.00147341 4.2989e-09
6.77626e-21 -0.0123952 0.00328327 1.1497e-08
0 0.0123955 0.00328342 3.94179e-08
-6.77626e-21 -0.0124114 0.00334656 1.17407e-08
0 0.0124117 0.00334671 3.91421e-08
0 -0.0128908 5.71212e-06 8.36324e-09
0 0.0128903 3.97342e-12 4.93913e-08
0 -0.0128967 3.22163e-12 8.34887e-09
8.47033e-22 0.0128967 3.22196e-12 4.9193e-08
0 -0.0124524 0.00336833 1.20917e-08
6.77626e-21 0.0124527 0.00336847 3.91339e-08
-8.47033e-22 0.0129024 4.47153e-06 4.89848e-08
8.47033e-22 -0.0129024 4.47647e-06 8.33044e-09
-6.77626e-21 -0.0124699 0.00333453 1.20692e-08
0 0.0124701 0.00333468 3.91224e-08
2.71051e-20 -0.0127306 0.00217621 2.27725e-09
0 0.0127307 0.00217625 3.35828e-09
0 -0.0129436 0.000502359 6.54885e-09
0 0.0129436 0.000502361 3.51727e-08
-5.92923e-21 -0.0129444 0.000510131 6.49766e-09
0 0.0129526 0.000508426 3.47279e-08
0 -0.0126107 0.00303067 8.91338e-09
0 0.0126109 0.00303078 2.90923e-08
0 -0.0127835 0.00277774 2.94443e-09
2.71051e-20 0.0127837 0.00277782 7.94483e-09
-2.82344e-22 -0.0130621 0.00107673 9.05073e-09
2.82344e-23 0.0130622 0.00107674 2.01379e-08
-2.71051e-20 -0.0127348 0.00327342 1.32379e-08
0 0.0127351 0.00327353 3.82579e-08
8.47033e-22 0.0131537 0.00046125 6.81824e-08
4.23516e-22 -0.0131537 0.000461237 1.4851e-08
-2.71051e-20 0.0131765 0.00021876 4.02412e-08
0 -0.0131765 0.000218756 7.71609e-09
-4.23516e-22 0.0131833 1.68074e-12 9.79179e-08
8.47033e-22 -0.0131834 1.67988e-12 2.0889e-08
-1.41172e-21 -0.013081 0.00177273 6.00992e-09
-8.47033e-22 0.013081 0.00177275 6.24509e-09
0 -0.0127833 0.00354413 2.32792e-08
0 0.0127836 0.00354426 5.42505e-08
0 -0.0128061 0.00351007 2.33938e-08
6.77626e-21 0.0128064 0.0035102 5.44255e-08
-5.64689e-22 -0.0130749 0.00248236 6.27653e-09
-1.12938e-21 0.013075 0.00248242 7.60183e-09
6.77626e-21 -0.0128267 0.00356715 2.54324e-08
0 -0.0132939 0.000722074 7.14599e-09
0 0.013294 0.000722076 2.92087e-08
6.77626e-21 0.012827 0.00356727 5.73555e-08
1.35525e-20 -0.0128705 0.00359021 2.90273e-08
0 0.0128708 0.00359033 6.33693e-08
0 -0.0129024 0.00352957 2.85253e-08
6.77626e-21 0.0129027 0.00352968 6.25533e-08
0 -0.0130201 0.00308568 1.6183e-08
1.12938e-21 0.0130203 0.00308577 3.48598e-08
0 -0.0133991 0.000404506 2.46734e-08
0 0.0133991 0.000404508 1.0749e-07
-1.35525e-20 -0.013401 0.000412597 2.51716e-08
8.47033e-22 0.013401 0.000412598 1.09536e-07
-8.47033e-22 0.0134864 4.87967e-06 1.48216e-07
0 -0.0134865 4.88092e-06 3.38587e-08
0 0.0134935 6.35544e-15 1.51053e-07
0 -0.0134936 6.33963e-15 3.45914e-08
2.71051e-20 -0.0134291 0.0013211 8.63982e-09
0 0.0134291 0.00132111 1.05271e-08
8.47033e-22 0.0134987 6.9958e-06 1.54052e-07
0 -0.0134988 6.99781e-06 3.52248e-08
0 0.0135005 6.30778e-15 1.54094e-07
0 -0.0135006 6.29214e-15 3.52345e-08
0 -0.0134156 0.00209107 1.10289e-08
0 0.0134157 0.0020911 7.12621e-09
2.71051e-20 -0.0131946 0.00340701 3.75227e-08
0 0.0131948 0.0034071 7.68055e-08
-2.71051e-20 -0.0133762 0.00281985 9.39442e-09
0 0.0133763 0.0028199 1.19065e-08
0 -0.0131543 0.00373939 4.29535e-08
-6.77626e-21 0.0131545 0.0037395 7.89134e-08
0 -0.0132115 0.00367305 4.31859e-08
0 0.0132117 0.00367316 7.88545e-08
0 0.0137224 0.000302335 2.6226e-07
2.71051e-20 -0.0137225 0.000302334 6.14093e-08
0 -0.0132141 0.00377085 4.41494e-08
1.35525e-20 0.0132143 0.00377095 7.81055e-08
-3.95282e-22 -0.0137748 0.000790615 6.57914e-08
5.64689e-22 0.0137748 0.00079062 1.08084e-07
0 -0.0132699 0.00380392 4.75986e-08
1.35525e-20 0.0132701 0.00380403 8.0385e-08
1.35525e-20 -0.0133033 0.0037381 4.72738e-08
0 0.0133034 0.00373821 8.01737e-08
-4.23516e-22 0.013766 0.00148274 3.67989e-08
0 -0.013766 0.00148307 3.51006e-08
0 0.0137616 0.00166835 1.7526e-08
-2.11758e-22 -0.0137615 0.00167294 2.68666e-08
0 -0.0137168 0.00245604 2.50497e-08
0 0.0137169 0.00245607 1.22291e-08
4.51751e-22 -0.0136289 0.00324654 3.18484e-08
1.35525e-21 0.013629 0.0032466 4.18922e-08
-2.71051e-20 -0.0135494 0.00365539 5.26018e-08
0 0.0135495 0.00365548 8.163e-08
0 0.0140721 1.55615e-05 2.31062e-07
-1.69407e-21 -0.0140722 1.55722e-05 1.37112e-07
-1.69407e-21 0.0140756 -2.0176e-16 2.31105e-07
-1.69407e-21 -0.0140757 -2.01911e-16 1.37066e-07
3.38813e-21 0.0140911 -3.05359e-16 2.28408e-07
3.38813e-21 -0.0140912 -3.0516e-16 1.41312e-07
0 0.0141007 2.20372e-05 2.24926e-07
0 -0.0141008 2.20525e-05 1.46193e-07
0 0.0141074 -2.98024e-16 2.24866e-07
0 -0.0141076 -2.97827e-16 1.46315e-07
0 -0.0135544 0.00397426 5.62751e-08
6.77626e-21 0.0135546 0.00397437 7.8856e-08
2.11758e-22 -0.0140341 0.00165404 5.21901e-08
0 0.0140347 0.00165401 2.69716e-08
-6.77626e-21 -0.0135849 0.0039369 5.63362e-08
6.77626e-21 0.0135851 0.00393701 7.8671e-08
0 -0.0135876 0.00399408 5.61238e-08
0 0.0135878 0.00399419 7.68088e-08
0 -0.0141246 0.00121981 4.31945e-08
2.71051e-20 0.0141246 0.00121982 3.60053e-08
0 -0.0136161 0.00401529 5.77496e-08
6.77626e-21 0.0136163 0.00401538 7.72236e-08
-6.77626e-21 -0.013638 0.00398927 5.76986e-08
6.77626e-21 0.0136382 0.00398937 7.72316e-08
0 -0.0140719 0.00204106 4.5265e-08
-2.71051e-20 0.014072 0.00204107 1.78272e-08
-2.71051e-20 0.0142772 0.000421914 1.92912e-07
-5.42101e-20 -0.0142772 0.000421919 2.22588e-07
-2.71051e-20 -0.0140129 0.00281709 3.57323e-08
0 0.014013 0.00281713 1.2593e-08
7.52918e-22 -0.0138313 0.00369716 4.57129e-08
2.63521e-21 0.0138314 0.00369723 5.83398e-08
5.42101e-20 -0.0140444 0.00346029 2.14675e-08
-2.71051e-20 0.0140445 0.00346035 1.68424e-08
-2.71051e-20 -0.0139247 0.00394753 6.16169e-08
2.71051e-20 0.0139249 0.0039476 7.36194e-08
4.23516e-22 -0.0144296 0.00162635 8.90648e-08
0 0.0144296 0.00162637 4.07735e-08
-1.18585e-20 -0.0144358 0.00162651 8.95089e-08
-4.23516e-22 0.0144358 0.00162653 4.08453e-08
0 0.0144133 0.00187152 3.76662e-08
-2.11758e-22 -0.0144133 0.00187201 9.44788e-08
3.38813e-21 -0.0139302 0.00424974 7.21132e-08
0 0.0139303 0.00424982 7.53605e-08
-8.47033e-22 0.0145459 0.000829514 1.36628e-07
-5.64689e-22 -0.0145459 0.000829511 1.42647e-07
1.41172e-22 -0.0143705 0.00241704 1.05798e-07
1.41172e-22 0.0143705 0.00241706 3.05102e-08
0 -0.0139467 0.00423388 7.21652e-08
-3.38813e-21 0.0139468 0.00423397 7.53548e-08
-3.38813e-21 -0.0139493 0.00426393 7.33998e-08
3.38813e-21 0.0139494 0.00426401 7.56205e-08
3.38813e-21 -0.0139673 0.00427743 7.45521e-08
-3.38813e-21 0.0139673 0.0042775 7.57772e-08
3.38813e-21 -0.0139799 0.00425949 7.45165e-08
0 0.01398 0.00425956 7.57647e-08
-8.47033e-22 -0.0143443 0.0031393 8.18397e-08
-5.64689e-22 0.0143443 0.00313933 2.49669e-08
0 -0.0146845 2.609e-05 2.05637e-07
0 0.0146845 2.60621e-05 2.19553e-07
0 -0.0146916 -2.56304e-19 2.05692e-07
-3.38813e-21 0.0146916 -2.5093e-19 2.1949e-07
0 -0.0147109 8.39779e-18 2.03164e-07
0 0.0147109 8.40222e-18 2.2195e-07
0 0.0147271 2.99299e-05 2.2367e-07
0 -0.0147271 2.99639e-05 2.01427e-07
0 0.0147301 8.1741e-18 2.23695e-07
0 -0.0147302 8.16959e-18 2.01394e-07
-5.64689e-22 -0.0143144 0.00384165 6.19624e-08
0 0.0143145 0.00384169 4.43724e-08
0 -0.0147153 0.00202632 1.5379e-07
0 0.0147153 0.00202633 4.4518e-08
0 -0.0148123 0.00125345 1.11102e-07
0 0.0148123 0.00125345 6.42282e-08
0 -0.0142662 0.00421647 8.46611e-08
2.71051e-20 0.0142663 0.00421652 7.72285e-08
2.71051e-20 -0.0146941 0.00275223 1.83775e-07
2.71051e-20 0.0146941 0.00275225 4.61685e-08
-2.71051e-20 -0.0149583 0.000465189 1.8534e-07
0 0.0149583 0.000465188 2.4903e-07
0 -0.0143128 0.00453664 9.2733e-08
0 0.0143129 0.00453669 7.51636e-08
1.69407e-21 -0.0143174 0.0045308 9.27368e-08
1.69407e-21 0.0143174 0.00453085 7.51588e-08
0 -0.014319 0.00454125 9.30411e-08
1.69407e-21 0.014319 0.00454129 7.51096e-08
0 -0.0143246 0.00454547 9.33516e-08
1.69407e-21 0.0143246 0.00454551 7.50415e-08
-1.69407e-21 0.014329 0.00454051 7.50402e-08
0 -0.014329 0.00454047 9.33419e-08
-2.71051e-20 -0.0146519 0.00346949 9.55002e-08
-2.71051e-20 0.014652 0.0034695 2.61239e-08
-4.23516e-22 -0.0145371 0.00427137 7.70584e-08
1.77877e-20 0.0145371 0.0042714 5.68954e-08
-2.82344e-22 -0.0150759 0.00166227 2.33908e-07
2.82344e-22 0.0150759 0.00166227 7.72287e-08
2.11758e-21 0.014608 0.00429795 5.64068e-08
0 -0.0146083 0.00429801 8.37136e-08
5.29396e-23 -0.0150582 0.00232574 3.54823e-07
-5.82335e-22 0.0150586 0.0023257 8.81339e-08
0 -0.0147146 0.00405696 4.51336e-08
-2.71051e-20 0.0147147 0.00405699 2.06011e-08
-1.09055e-20 -0.0151061 0.00232002 3.72012e-07
3.29284e-20 0.0151053 0.00231903 9.20781e-08
5.29396e-23 0.015093 0.0024032 9.14534e-08
1.05879e-22 -0.0150929 0.00240385 3.71988e-07
-4.23516e-22 0.0145531 0.00471689 7.53215e-08
0 -0.0145535 0.00471718 1.09172e-07
-8.47033e-22 -0.0149812 0.00311066 3.69364e-07
1.86347e-20 0.0149812 0.00311067 8.56296e-08
0 -0.0149884 0.00311083 3.72195e-07
0 0.0149808 0.0031189 8.62252e-08
0 -0.0146393 0.00452217 1.01061e-07
8.13152e-20 0.0146393 0.0045222 7.26828e-08
0 -0.0153521 2.62972e-05 2.9419e-07
0 0.0153522 2.62884e-05 3.01667e-07
0 -0.0153541 1.06034e-19 2.94059e-07
0 0.0153541 1.06058e-19 3.01602e-07
0 -0.0153336 0.000981682 2.97945e-07
0 0.0153336 0.000981685 2.04702e-07
-3.38813e-21 -0.015371 -9.43422e-20 2.9951e-07
0 0.015371 -9.43934e-20 3.03914e-07
-3.38813e-21 0.0153889 1.38802e-05 3.07127e-07
0 -0.0153889 1.38836e-05 3.05679e-07
0 0.0153893 -9.17904e-20 3.07141e-07
0 -0.0153893 -9.17397e-20 3.05708e-07
8.47033e-22 0.0146775 0.00480516 7.54613e-08
0 -0.0146713 0.00480158 1.17339e-07
1.37643e-20 -0.0149797 0.00377544 2.21022e-07
2.41404e-20 0.0149766 0.00377563 5.58362e-08
0 0.0149779 0.00383386 5.56635e-08
0 -0.0149779 0.00383404 2.11704e-07
-5.42101e-20 -0.0153191 0.00276241 6.58144e-07
0 0.0153191 0.00276241 1.49419e-07
0 -0.0149757 0.00442242 1.1696e-07
4.51751e-22 0.0149757 0.00442244 5.4033e-08
0 -0.0152934 0.00343579 5.44067e-07
0 0.0152934 0.0034358 1.21716e-07
2.71051e-20 -0.0149462 0.00476533 1.3158e-07
-2.71051e-20 0.0149462 0.00476535 7.76608e-08
0 0.0157071 0.0017387 1.46348e-07
0 -0.0157071 0.00173869 5.45192e-07
5.42101e-20 -0.0152785 0.0040944 2.25217e-07
2.71051e-20 0.0152785 0.00409441 6.01087e-08
0 -0.014998 0.00505067 1.48899e-07
0 0.0149981 0.00505067 8.04645e-08
0 -0.0150083 0.00502931 1.48735e-07
0 0.0150084 0.0050293 8.04244e-08
1.48231e-20 -0.0156565 0.00240913 1.19922e-06
2.11758e-22 0.0156565 0.00240914 2.75492e-07
0 -0.0150173 0.00506515 1.53036e-07
0 0.0150174 0.00506516 8.21439e-08
-2.11758e-22 0.015642 0.00267527 2.80256e-07
4.23516e-22 -0.015642 0.00267555 1.25245e-06
0 -0.0150364 0.00507946 1.5267e-07
-3.38813e-21 0.0150365 0.00507948 8.10435e-08
-3.38813e-21 -0.0150495 0.00506281 1.52694e-07
0 0.0150496 0.00506282 8.10278e-08
-5.42101e-20 0.015871 0.000522609 3.98794e-07
0 -0.0158711 0.00052261 4.95118e-07
4.23516e-22 -0.0156193 0.00309416 1.33513e-06
-6.35275e-21 0.0156198 0.00308833 2.87529e-07
0 -0.0151805 0.0048173 1.29075e-07
0 0.0151805 0.00481731 6.51479e-08
0 -0.0153242 0.00462128 8.46101e-08
0 0.0153242 0.00462129 3.26878e-08
1.41172e-22 -0.0155928 0.00376523 1.05453e-06
0 0.0155928 0.00376524 2.19912e-07
0 -0.0152849 0.0050422 1.69007e-07
2.71051e-20 0.0152849 0.0050422 8.35176e-08
0 -0.015956 0.00273569 2.07998e-06
0 0.015956 0.0027357 4.66897e-07
1.41172e-22 -0.0156111 0.00436319 6.34949e-07
-1.05879e-22 0.0156111 0.00436316 1.44404e-07
1.05879e-22 0.01536 0.00532139 1.3694e-07
1.05879e-22 -0.015359 0.00532072 3.16689e-07
0 -0.0159107 0.00341804 2.06291e-06
-5.42101e-20 0.0159107 0.00341805 4.14117e-07
0 -0.0153751 0.00533351 3.26448e-07
-1.37643e-21 0.0153755 0.00533381 1.40299e-07
0 0.0155376 0.00491087 1.02453e-07
5.64689e-22 -0.0155376 0.00491087 2.69593e-07
2.71051e-20 -0.015907 0.00407427 1.4065e-06
2.71051e-20 0.015907 0.00407427 2.86563e-07
5.64689e-22 0.0163929 0.00113505 4.18871e-07
-2.82344e-22 -0.0163929 0.00113505 1.29146e-06
-1.69407e-21 -0.0164714 7.31733e-06 1.02471e-06
1.69407e-21 0.0164714 7.30933e-06 5.22195e-07
-1.69407e-21 -0.0164715 3.37846e-21 1.02466e-06
0 0.0164715 3.38103e-21 5.22181e-07
0 -0.0164799 3.92497e-21 1.03184e-06
0 0.0164799 3.92783e-21 5.23927e-07
0 0.0164875 7.98174e-06 5.25626e-07
0 -0.0164875 7.99057e-06 1.03882e-06
0 0.0164879 3.93933e-21 5.25628e-07
0 -0.0164879 3.93667e-21 1.03883e-06
-2.82344e-22 0.0162419 0.00306677 7.17383e-07
2.82344e-22 -0.0162419 0.00306677 3.36887e-06
0 -0.0163552 0.00243067 3.07826e-06
0 0.0163553 0.00243041 6.53776e-07
-3.17637e-22 -0.0163771 0.00230866 3.02187e-06
-1.56701e-20 0.0163771 0.00230868 6.41406e-07
2.71051e-20 -0.0156952 0.00522881 4.71605e-07
2.71051e-20 0.0156952 0.00522881 1.9305e-07
2.71051e-20 -0.0158708 0.00471773 3.85388e-07
2.71051e-20 0.0158708 0.00471773 1.06293e-07
1.69407e-21 -0.0156945 0.00557308 5.24718e-07
0 0.0156945 0.00557309 2.06975e-07
1.69407e-21 -0.0157031 0.00556196 5.24726e-07
1.69407e-21 0.0157031 0.00556198 2.06974e-07
0 -0.0157032 0.00557964 5.26825e-07
-3.38813e-21 0.0157032 0.00557964 2.07483e-07
-1.69407e-21 0.0157125 0.0055866 2.08284e-07
0 -0.0157125 0.00558661 5.29671e-07
1.69407e-21 0.0157204 0.00557597 2.08246e-07
0 -0.0157205 0.00557597 5.29542e-07
-2.82344e-22 -0.0163001 0.00366347 3.61428e-06
-2.82344e-22 0.0163001 0.00366347 7.43096e-07
7.05861e-22 0.0161921 0.00441855 4.60632e-07
2.82344e-22 -0.0161921 0.00441855 2.15746e-06
-1.41172e-22 -0.0161069 0.00511691 7.58793e-07
-4.23516e-22 0.0161069 0.00511691 2.2197e-07
-5.42101e-20 0.01604 0.00551404 2.20852e-07
5.42101e-20 -0.01604 0.00551404 5.78278e-07
2.71051e-20 -0.016526 0.00408753 4.98794e-06
0 0.016526 0.00408753 1.00918e-06
0 0.0170249 0.000578089 6.4723e-07
-1.0842e-19 -0.0170249 0.000578088 1.56079e-06
5.42101e-20 0.0169748 0.00175444 4.70274e-07
-5.42101e-20 -0.0169748 0.00175444 2.55868e-06
0 -0.0160444 0.00583567 6.23115e-07
0 0.0160444 0.00583566 2.24949e-07
3.38813e-21 -0.0160574 0.00581994 6.23136e-07
0 0.0160574 0.00581994 2.24931e-07
0 0.0160586 0.00584628 2.25136e-07
0 -0.0160586 0.00584629 6.2653e-07
-3.38813e-21 0.0160728 0.00585689 2.25398e-07
3.38813e-21 -0.0160728 0.00585691 6.30235e-07
-3.38813e-21 0.0160861 0.00584361 2.25369e-07
0 -0.0160861 0.00584362 6.30073e-07
0 -0.0168748 0.00305299 7.60274e-06
0 0.0168748 0.003053 1.61877e-06
-2.71051e-20 -0.0164851 0.00475809 1.95931e-06
0 0.0164851 0.00475809 4.60197e-07
-7.52918e-22 0.0163205 0.005565 2.08244e-07
-3.76459e-22 -0.0163205 0.00556501 6.25099e-07
4.70574e-22 0.0168571 0.00373388 1.83032e-06
0 -0.0168571 0.00373388 8.66514e-06
0 -0.0165295 0.00534686 6.22334e-07
-2.71051e-20 0.0165295 0.00534686 1.73494e-07
0 -0.0168299 0.0044115 6.97701e-06
-1.41172e-22 0.0168299 0.0044115 1.53674e-06
2.71051e-20 0.0164078 0.00581578 2.28838e-07
-2.71051e-20 -0.0164078 0.00581579 6.72949e-07
3.38813e-21 -0.0163998 0.00610069 7.48548e-07
0 0.0163998 0.00610068 2.52414e-07
0 0.0164127 0.00608898 2.52444e-07
0 -0.0164127 0.00608898 7.48645e-07
0 0.0164129 0.00611042 2.54361e-07
-3.38813e-21 -0.0164129 0.00611043 7.54496e-07
0 0.016425 0.00612105 2.56196e-07
0 -0.016425 0.00612106 7.60522e-07
0 0.0164353 0.00610824 2.56133e-07
0 -0.0164353 0.00610825 7.60326e-07
4.23516e-22 -0.0168163 0.00505861 3.40482e-06
2.82344e-22 0.0168163 0.00505861 8.40754e-07
0 0.0176265 -3.90467e-24 7.09268e-07
0 -0.0176215 4.77654e-06 2.7207e-06
0 -0.0176314 -3.86189e-24 2.73696e-06
0 0.0176313 4.81267e-06 7.10174e-07
0 0.0175955 0.00115783 7.30947e-07
-5.64689e-22 -0.0175956 0.00115783 4.38707e-06
0 -0.017176 0.0040533 1.27545e-05
-2.71051e-20 0.017176 0.0040533 2.72882e-06
3.64224e-20 -0.0175451 0.00239265 1.14345e-05
-2.03288e-20 0.0175451 0.00239266 2.02996e-06
-2.03288e-20 -0.017553 0.00239273 1.15036e-05
8.47033e-22 0.017553 0.00239274 2.04194e-06
6.77626e-22 -0.016789 0.00571973 1.19739e-06
0 0.016789 0.00571973 3.57033e-07
2.71051e-20 -0.0171455 0.00472285 8.27886e-06
0 0.0171455 0.00472285 1.96055e-06
-2.71051e-20 0.0167243 0.00608098 2.79294e-07
0 -0.0167243 0.00608098 8.34701e-07
0 -0.0175066 0.00343165 1.719e-05
-1.05879e-22 0.0175066 0.00343176 3.67298e-06
0 -0.0175024 0.00354592 1.7821e-05
0 0.0175015 0.00354591 3.85366e-06
0 -0.0167347 0.00638838 9.15463e-07
3.38813e-21 0.0167347 0.00638838 2.90731e-07
0 -0.0167445 0.00637729 9.15551e-07
0 0.0167445 0.0063773 2.90733e-07
-3.38813e-21 -0.0167456 0.00639795 9.21226e-07
0 0.0167456 0.00639795 2.91549e-07
3.17637e-22 0.0175745 0.00356409 4.24779e-06
0 -0.0175746 0.00356411 1.88774e-05
3.38813e-21 0.0167557 0.00640831 2.92291e-07
0 -0.0167557 0.00640832 9.26986e-07
0 0.0167665 0.00639832 2.92256e-07
3.38813e-21 -0.0167665 0.00639832 9.268e-07
0 0.017128 0.00537448 8.49068e-07
-2.71051e-20 -0.017128 0.00537448 3.101e-06
2.11758e-22 -0.0174755 0.00437875 1.66297e-05
-1.94818e-20 0.0174716 0.00437888 3.88064e-06
7.52918e-22 -0.0169872 0.00615002 9.26026e-07
1.31761e-21 0.0169872 0.00615002 2.93854e-07
0 -0.0174538 0.00503866 1.14538e-05
-2.6258e-20 0.0174538 0.00503866 2.96023e-06
-2.71051e-20 0.0171853 0.00594727 2.99065e-07
-2.71051e-20 -0.0171853 0.00594727 9.36419e-07
0 0.0182056 0.00058276 7.72799e-07
5.42101e-20 -0.0182056 0.000582758 3.90842e-06
-2.71051e-20 0.0170678 0.00640561 3.03281e-07
-5.42101e-20 -0.0170678 0.00640561 1.0063e-06
0 -0.0177914 0.004032 2.37223e-05
-2.71051e-20 0.0177914 0.004032 5.55552e-06
1.0842e-19 0.018185 0.00177763 1.03391e-06
5.42101e-20 -0.018185 0.00177763 9.59523e-06
0 -0.0170411 0.00670226 1.06796e-06
-3.38813e-21 0.0170411 0.00670226 3.27263e-07
-3.38813e-21 -0.0170521 0.00669292 1.068e-06
0 0.0170521 0.00669292 3.27286e-07
0 -0.017051 0.00671245 1.07221e-06
0 0.017051 0.00671244 3.29008e-07
0 0.0170609 0.00672261 3.30672e-07
3.38813e-21 -0.0170609 0.00672262 1.07647e-06
-3.38813e-21 0.0170703 0.0067113 3.30614e-07
0 -0.0170703 0.0067113 1.07632e-06
4.23516e-22 -0.0174549 0.00566696 5.19464e-06
-8.89385e-21 0.0174549 0.00566696 1.58204e-06
4.23516e-22 -0.0174621 0.00566666 5.22673e-06
-8.04681e-21 0.0174555 0.00567336 1.59317e-06
0 -0.0177854 0.00469986 2.16712e-05
-2.71051e-20 0.0177854 0.00469986 5.263e-06
-5.42101e-20 -0.0181697 0.0030568 2.6421e-05
-5.42101e-20 0.0181697 0.0030568 5.09432e-06
-4.23516e-22 0.0181311 0.00370549 7.27042e-06
0 -0.0181311 0.00370549 2.69765e-05
0 0.0181352 0.00369814 7.29834e-06
0 -0.0181386 0.00370544 2.70333e-05
3.38813e-22 -0.0174312 0.00632674 1.73264e-06
-6.77626e-22 0.0174312 0.00632674 5.87126e-07
-2.71051e-20 -0.0177791 0.00534408 1.29074e-05
-5.42101e-20 0.0177791 0.00534408 3.79193e-06
2.71051e-20 0.0173547 0.00669604 3.54118e-07
-2.71051e-20 -0.0173547 0.00669604 1.13651e-06
2.64698e-23 -0.0181107 0.00435384 2.62841e-05
4.63221e-23 0.0181107 0.00435393 7.80477e-06
6.61744e-24 -0.0181104 0.00436061 2.62764e-05
0 0.0181104 0.00436061 7.81005e-06
-1.19114e-22 0.0181186 0.00436044 7.8648e-06
0 -0.0181187 0.00436044 2.63959e-05
0 -0.017346 0.00701596 1.23646e-06
0 0.017346 0.00701596 3.69991e-07
0 -0.017356 0.00700506 1.23657e-06
-3.38813e-21 0.017356 0.00700507 3.69998e-07
0 -0.017356 0.0070262 1.24371e-06
-3.38813e-21 0.017356 0.0070262 3.71155e-07
3.38813e-21 0.017366 0.00703645 3.7223e-07
0 -0.017366 0.00703645 1.25088e-06
0 0.0173769 0.00702633 3.72183e-07
3.38813e-21 -0.0173769 0.00702633 1.25065e-06
-2.71051e-20 -0.0177656 0.00598778 4.46892e-06
0 0.0177656 0.00598778 1.58221e-06
-2.64698e-23 -0.0181027 0.00501244 2.28076e-05
-1.74436e-20 0.0181027 0.00501244 7.23122e-06
-4.23516e-22 0.018806 3.41759e-06 8.44302e-07
-4.23516e-22 -0.018799 3.40478e-06 6.46906e-06
0 0.0187936 0.00116588 1.16304e-06
2.82344e-22 -0.0187936 0.00116588 1.22925e-05
7.94093e-23 0.0181603 0.0050047 7.70858e-06
0 -0.0181605 0.00500468 2.38926e-05
0 0.0176114 0.00676943 4.12406e-07
5.64689e-22 -0.0176114 0.00676944 1.28707e-06
-2.71051e-20 -0.0184458 0.00401954 3.04966e-05
5.42101e-20 0.0184458 0.00401954 1.02351e-05
-8.47033e-22 0.0187881 0.00239454 4.4213e-06
0 -0.0187881 0.00239454 2.8942e-05
0 -0.0180927 0.00565812 1.54876e-05
-3.16314e-20 0.0180923 0.0056577 5.37741e-06
0 -0.017813 0.00656607 1.37832e-06
0 0.017813 0.00656607 4.98191e-07
-2.71051e-20 0.018419 0.0046774 1.01365e-05
-2.71051e-20 -0.018419 0.0046774 2.91438e-05
2.64698e-23 0.0181646 0.00565621 6.11038e-06
0 -0.018165 0.0056562 1.72464e-05
2.71051e-20 0.0176826 0.00702997 3.87521e-07
-2.71051e-20 -0.0176826 0.00702997 1.34895e-06
3.38813e-21 -0.0176504 0.0073291 1.41981e-06
-3.38813e-21 0.0176504 0.0073291 4.17137e-07
0 -0.0176622 0.00731917 1.41985e-06
0 0.0176622 0.00731917 4.17166e-07
0 -0.0176607 0.00733968 1.42514e-06
3.38813e-21 0.0176607 0.00733968 4.194e-07
0 0.017671 0.0073503 4.21547e-07
0 -0.017671 0.0073503 1.43027e-06
3.38813e-21 0.0176811 0.0073384 4.21469e-07
0 -0.0176811 0.0073384 1.43006e-06
0 -0.0180849 0.00628831 7.25845e-06
-9.74088e-21 0.0180849 0.00628831 2.74788e-06
0 0.0184318 0.00531284 9.68056e-06
0 -0.0184318 0.00531284 2.73273e-05
-2.82344e-22 0.0188513 0.00360407 1.07228e-05
7.05861e-22 -0.0188513 0.00360407 3.96613e-05
4.23516e-22 0.018748 0.00434753 1.20958e-05
5.0822e-21 -0.0187481 0.00434155 3.55166e-05
-4.51751e-22 0.0180499 0.006951 9.08076e-07
7.90564e-22 -0.0180499 0.006951 2.42216e-06
0 -0.0184073 0.00596812 1.75394e-05
2.71051e-20 0.0184073 0.00596812 6.57034e-06
2.71051e-20 -0.0179676 0.00732197 1.49897e-06
0 0.0179676 0.00732197 4.505e-07
0 -0.0193955 0.00058428 9.03724e-06
0 0.0193955 0.00058428 9.15973e-07
0 0.018826 0.00491014 1.3228e-05
4.23516e-22 -0.0188202 0.00491059 3.6389e-05
5.42101e-20 -0.0193971 0.00177916 2.68997e-05
5.42101e-20 0.0193971 0.00177916 1.94385e-06
0 -0.0179547 0.00764207 1.62656e-06
0 0.0179547 0.00764207 4.72417e-07
-3.38813e-21 -0.0179658 0.00763011 1.62671e-06
0 0.0179658 0.00763011 4.7243e-07
0 -0.0179656 0.00765323 1.63683e-06
0 0.0179656 0.00765323 4.74219e-07
0 -0.0183868 0.00661376 6.35751e-06
-5.42101e-20 0.0183868 0.00661376 2.61261e-06
0 0.0179765 0.00766446 4.75863e-07
0 -0.0179765 0.00766446 1.6469e-06
0 0.0179886 0.00765336 4.7579e-07
0 -0.0179886 0.00765336 1.64655e-06
2.11758e-22 0.0187345 0.00564446 1.18885e-05
0 -0.0187313 0.00564103 3.1024e-05
0 -0.0194124 0.00301785 5.32405e-05
-5.42101e-20 0.0194124 0.00301785 9.7303e-06
-5.29396e-23 0.0186153 0.00628803 7.57165e-06
-5.29396e-23 -0.0186155 0.00628803 1.89517e-05
-7.52918e-22 0.0182255 0.00739575 5.71187e-07
7.52918e-22 -0.0182255 0.00739575 1.72481e-06
-5.29396e-23 0.0187129 0.00628799 8.45994e-06
0 -0.0187121 0.00628723 2.10994e-05
-1.05879e-22 -0.0187119 0.00636687 1.96732e-05
-5.29396e-23 0.0187119 0.00636701 7.93293e-06
2.71051e-20 0.0184304 0.00719208 7.7265e-07
-5.42101e-20 -0.0184305 0.00719208 1.90921e-06
0 -0.0190561 0.00532095 4.19606e-05
2.71051e-20 0.0190561 0.00532095 1.66599e-05
0 0.0182948 0.00765678 4.97017e-07
-2.71051e-20 -0.0182948 0.00765678 1.77192e-06
0 -0.0193887 0.00432607 5.41612e-05
-5.42101e-20 0.0193887 0.00432607 1.83591e-05
-3.38813e-21 -0.0182591 0.0079553 1.84262e-06
0 0.0182591 0.0079553 5.29422e-07
0 0.0182726 0.00794412 5.29454e-07