# omega  POINT_DATA 63583
# x  y  z  omega
2.65631e-06 2.35746e-23 0.049924 1929.74
-0.000624384 -1.05879e-22 0.0499244 1929.96
0.000625562 -1.05879e-22 0.0499244 1929.96
-0.00124876 2.11758e-22 0.0499248 1930.53
0.00125112 0 0.0499248 1930.53
-0.00187315 -2.11758e-22 0.0499251 1931.27
0.00187665 -2.11758e-22 0.0499251 1931.27
-0.00249754 0 0.0499255 1932.12
0.00250214 4.23516e-22 0.0499255 1932.12
-0.00312195 -4.23516e-22 0.0499258 1933.21
0.00312761 4.23516e-22 0.0499258 1933.22
-0.00374636 0 0.0499262 1934.49
0.00375304 0 0.0499262 1934.5
-0.00437076 0 0.0499265 1935.84
0.0043785 0 0.0499265 1935.86
0.000312485 -2.71051e-20 0.0501277 1929.74
-0.000312486 2.71051e-20 0.0501277 1929.74
-0.000937479 0 0.0501277 1930.19
0.000937478 2.71051e-20 0.0501277 1930.19
0.00156244 0 0.0501276 1930.87
-0.00156244 2.71051e-20 0.0501276 1930.87
0.005004 0 0.0499269 1937.21
-0.00499514 -8.47033e-22 0.0499269 1937.19
-0.00218741 2.71051e-20 0.0501276 1931.66
0.00218741 -2.71051e-20 0.0501276 1931.66
-0.00281234 0 0.0501275 1932.56
0.00281234 0 0.0501275 1932.56
0.00562955 0 0.0499273 1938.38
-0.00561949 8.47033e-22 0.0499273 1938.36
-0.00343728 -2.71051e-20 0.0501275 1933.82
0.00343728 -2.71051e-20 0.0501275 1933.83
-0.00406221 -2.71051e-20 0.0501274 1935.11
0.00406221 0 0.0501274 1935.13
0.00625515 0 0.0499277 1939.43
-0.00624382 -8.47033e-22 0.0499277 1939.42
5.5543e-12 1.03398e-25 0.0503316 1166.69
-0.000625384 0 0.0503318 1167.31
0.00062461 4.8175e-21 0.0503318 1166.44
0.00468714 5.42101e-20 0.0501273 1936.51
-0.00468714 0 0.0501273 1936.5
-0.00125075 0 0.0503321 1168.04
0.00124923 -1.79995e-21 0.0503321 1166.21
-0.00187385 0 0.0503322 1168.88
0.00187385 1.12232e-20 0.0503322 1166.13
-0.00249847 -2.11758e-22 0.0503325 1169.74
0.00249847 1.10114e-20 0.0503325 1166.09
0.00686815 0 0.0499281 1940.68
-0.00686815 -8.47033e-22 0.0499281 1940.68
0.00687445 -8.47033e-22 0.049924 1941.15
-0.00687445 0 0.049924 1941.14
-0.00688078 8.47033e-22 0.0499281 1940.73
0.00688078 0 0.0499281 1940.74
0.00531209 -2.71051e-20 0.0501273 1937.8
-0.00531209 0 0.0501273 1937.79
-0.00312312 0 0.0503326 1170.84
0.00312312 2.22346e-20 0.0503326 1166.28
-0.00374776 0 0.0503327 1172.12
0.00374776 3.09167e-20 0.0503327 1166.55
0.00593706 0 0.0501272 1938.83
-0.00593706 0 0.0501272 1938.82
0.00749248 8.47033e-22 0.0499285 1942.75
-0.00749248 -8.47033e-22 0.0499285 1942.75
0.00749944 8.47033e-22 0.049924 1943.32
-0.00749944 -8.47033e-22 0.049924 1943.32
-0.00750642 0 0.0499285 1942.84
0.00750642 8.47033e-22 0.0499285 1942.84
-0.00437717 -4.23516e-22 0.0503328 1173.49
0.00437239 -4.23516e-22 0.0503328 1166.9
0.00656203 0 0.0501272 1939.88
-0.00656203 -2.71051e-20 0.0501272 1939.87
0.000312514 0 0.0505592 385.506
-0.000312515 0 0.0505592 386.152
0.000937509 0 0.0505592 384.374
-0.000937509 -5.42101e-20 0.0505592 387.372
0.00499701 1.65171e-20 0.050333 1167.27
-0.00499701 0 0.050333 1174.89
0.0081168 -8.47033e-22 0.0499289 1945.94
-0.0081168 0 0.0499289 1945.94
0.00812442 -8.47033e-22 0.049924 1946.57
-0.00812442 8.47033e-22 0.049924 1946.58
-0.00813207 0 0.0499289 1946.09
0.00813207 -8.47033e-22 0.0499289 1946.09
-0.00156252 2.71051e-20 0.0505591 387.993
0.00156252 2.71051e-20 0.0505591 383.626
-0.00218749 0 0.050559 389.187
0.00218749 0 0.050559 382.437
-0.00281247 -5.42101e-20 0.0505589 389.858
0.00281247 -2.71051e-20 0.0505589 381.87
0.00718702 0 0.0501271 1941.49
-0.00718702 2.71051e-20 0.0501271 1941.48
0.00562156 -4.23516e-22 0.0503288 1175.45
-0.00562156 -4.23516e-22 0.0503288 1183.89
0.0056216 1.69407e-21 0.0503331 1165.45
-0.0056278 0 0.0503331 1174.06
-0.00343743 -2.71051e-20 0.0505588 391.345
0.00343743 0 0.0505588 380.889
0.0087411 -1.69407e-21 0.0499294 1950.54
-0.0087411 0 0.0499294 1950.55
-0.00874939 1.69407e-21 0.049924 1951.14
0.00874939 0 0.049924 1951.13
-0.00875772 0 0.0499294 1950.79
0.00875772 -1.69407e-21 0.0499294 1950.78
0.00624613 -4.23516e-22 0.0503286 1176.77
-0.00624613 0 0.0503286 1186.07
0.00624618 1.77877e-20 0.0503334 1165.45
-0.00624618 -4.23516e-22 0.0503334 1174.95
-0.00406239 5.42101e-20 0.0505587 392.38
0.00406239 -2.71051e-20 0.0505587 380.31
0.00781202 2.71051e-20 0.0501269 1944.04
-0.00781202 -2.71051e-20 0.0501269 1944.04
0.00468734 0 0.0505585 379.513
-0.00468734 2.71051e-20 0.0505585 394.073
-3.81844e-10 2.58494e-26 0.0507876 290.148
-0.000625172 0 0.0507875 290.753
0.000624854 0 0.0507875 289.567
0.00936537 0 0.0499298 1956.44
-0.00936537 0 0.0499298 1956.46
0.00687069 0 0.0503282 1178.34
-0.00687069 0 0.0503282 1188.35
0.00687075 -1.43996e-20 0.0503336 1165.66
-0.00687859 0 0.0503336 1175.91
-0.00937433 0 0.049924 1956.87
0.00937433 0 0.049924 1956.86
-0.00938332 0 0.0499298 1956.75
0.00938332 1.69407e-21 0.0499298 1956.74
-0.00124972 0 0.0507878 291.352
0.00124971 -1.10114e-20 0.0507873 288.961
-0.00187545 -5.29396e-23 0.0507879 291.935
0.00187459 -1.12761e-20 0.0507879 288.323
0.008437 0 0.0501268 1947.9
-0.008437 0 0.0501268 1947.9
0.00531231 2.71051e-20 0.0505584 379.014
-0.00531231 2.71051e-20 0.0505584 395.269
-0.00250054 0 0.0507878 292.537
0.00249948 1.75759e-20 0.0507878 287.734
0.00749529 0 0.0503277 1180.36
-0.00749529 0 0.0503277 1190.98
-0.00312436 0 0.0507868 293.216
0.00312436 -1.99053e-20 0.0507868 287.191
0.00749536 -1.77877e-20 0.0503337 1166.33
-0.00749536 8.47033e-22 0.0503337 1177.21
0.00593728 2.71051e-20 0.0505582 378.514
-0.00593728 -5.42101e-20 0.0505582 396.938
0.00998957 0 0.049924 1962.95
-0.00998957 0 0.049924 1962.97
-0.00999924 0 0.049924 1963.17
0.00999924 0 0.049924 1963.15
-0.0100089 0 0.049924 1963.31
0.0100089 0 0.049924 1963.28
-0.00998963 0 0.0499302 1962.97
0.00998963 0 0.0499302 1962.95
-0.0100089 0 0.0499302 1963.3
0.0100089 1.69407e-21 0.0499302 1963.28
-0.00375066 0 0.0507878 293.984
0.00374926 -1.15408e-20 0.0507878 286.638
-0.00906196 2.71051e-20 0.0501265 1953.32
0.00906196 -2.71051e-20 0.0501265 1953.3
0.00437414 8.47033e-21 0.0507865 286.122
-0.00437574 1.05879e-22 0.0507865 294.794
0.0081199 0 0.0503273 1182.93
-0.0081199 0 0.0503273 1194.05
0.00811999 1.10114e-20 0.0503338 1167.59
-0.00812944 8.47033e-22 0.0503338 1179
0.00656228 0 0.0505581 378.176
-0.00656228 -5.42101e-20 0.0505581 397.994
0.00499902 -2.44581e-20 0.0507877 285.614
-0.0050008 1.05879e-22 0.0507877 295.633
0.0106139 1.69407e-21 0.049924 1969.58
-0.0106139 1.69407e-21 0.049924 1969.6
-0.0106242 0 0.049924 1969.55
0.0106242 -1.69407e-21 0.049924 1969.52
-0.0106345 0 0.049924 1969.96
0.0106345 0 0.049924 1969.93
-0.010614 -1.69407e-21 0.0499306 1969.6
0.010614 1.69407e-21 0.0499306 1969.57
-0.0106345 -1.69407e-21 0.0499306 1969.95
0.0106345 1.69407e-21 0.0499306 1969.92
-0.000312504 0 0.0510505 191.212
0.000312504 0 0.0510505 190.995
-0.0096869 0 0.0501262 1959.74
0.0096869 -5.42101e-20 0.0501262 1959.72
-0.00093753 0 0.0510505 191.531
0.00093753 2.71051e-20 0.0510505 190.682
0.0071873 0 0.0505579 377.754
-0.0071873 2.71051e-20 0.0505579 399.15
-0.00156254 2.71051e-20 0.0510504 191.735
0.00156254 0 0.0510504 190.466
-0.00874971 0 0.0503302 1185.07
0.00874971 1.41172e-22 0.0503302 1173.27
0.00562387 -2.30816e-20 0.0507861 285.179
-0.00562591 -2.11758e-22 0.0507861 296.436
-0.00218754 0 0.0510504 192.056
0.00218754 5.42101e-20 0.0510504 190.114
-0.00281254 5.42101e-20 0.0510503 192.257
0.00281254 2.71051e-20 0.0510503 189.884
0.00781234 2.71051e-20 0.0505576 377.577
-0.00781234 -2.71051e-20 0.0505576 399.948
-0.00343751 0 0.0510501 192.598
0.00343751 5.42101e-20 0.0510501 189.511
0.00624873 -4.02341e-21 0.0507877 284.793
-0.00624871 0 0.0507858 297.197
0.0112381 0 0.049924 1976.37
-0.0112381 -1.69407e-21 0.049924 1976.4
0.0103118 0 0.0501259 1966.31
-0.0103118 0 0.0501259 1966.34
-0.0112491 0 0.049924 1976.07
0.0112491 0 0.049924 1976.04
-0.0112601 0 0.049924 1976.8
0.0112601 0 0.049924 1976.77
-0.0112382 -1.69407e-21 0.049931 1976.39
0.0112382 -1.69407e-21 0.049931 1976.37
-0.01126 -1.69407e-21 0.049931 1976.79
0.01126 -1.69407e-21 0.049931 1976.76
0.00937469 -1.41172e-22 0.0503298 1176.35
-0.00937469 -5.64689e-22 0.0503298 1188.62
0.00406249 -5.42101e-20 0.05105 189.255
-0.00406249 2.71051e-20 0.05105 192.785
0.00687357 1.54584e-20 0.0507856 284.414
-0.00687621 2.11758e-22 0.0507856 297.799
0.00843739 0 0.0505573 377.335
-0.00843739 -2.71051e-20 0.0505573 400.853
0.00468748 -2.71051e-20 0.0510499 188.846
-0.00468748 -5.42101e-20 0.0510499 193.084
0.0109367 -2.71051e-20 0.0501256 1972.95
-0.0109367 0 0.0501256 1972.97
-0.00999964 0 0.0503294 1192.53
0.00999964 1.41172e-22 0.0503294 1179.74
0.0118623 0 0.049924 1983.37
-0.0118623 0 0.049924 1983.4
-1.40721e-10 0 0.0513142 153.187
-0.011874 0 0.049924 1982.74
0.011874 0 0.049924 1982.71
-0.000624982 0 0.0513141 153.316
0.000625044 -6.44539e-21 0.0513141 153.068
-0.0118857 0 0.049924 1983.82
0.0118857 0 0.049924 1983.79
-0.0118624 0 0.0499314 1983.39
0.0118624 0 0.0499314 1983.36
0.00531245 2.71051e-20 0.0510498 188.535
-0.00531245 2.71051e-20 0.0510498 193.221
-0.0118856 0 0.0499314 1983.81
0.0118856 -1.69407e-21 0.0499314 1983.77
-0.00124997 6.61744e-24 0.0513142 153.433
0.00124997 2.69595e-20 0.0513141 152.942
0.00749848 5.71747e-21 0.0507876 284.081
-0.00750136 -2.11758e-22 0.0507876 298.315
-0.00187509 1.32349e-23 0.0513142 153.538
0.00187497 2.84682e-20 0.051314 152.792
0.00906241 2.71051e-20 0.0505568 377.347
-0.00906241 -2.71051e-20 0.0505568 401.534
-0.00250009 0 0.0513141 153.645
0.00249997 0 0.0513141 152.639
0.00593746 -2.71051e-20 0.0510497 188.115
-0.00593746 0 0.0510497 193.397
-0.00312507 -6.61744e-24 0.051314 153.748
0.00312507 4.73147e-21 0.051314 152.486
0.00812339 -1.48231e-20 0.050785 283.788
-0.00812652 0 0.050785 298.755
-0.0106246 1.41172e-22 0.050329 1196.53
0.0106246 -1.41172e-22 0.050329 1183.19
0.0115616 0 0.0501253 1979.9
-0.0115616 -2.71051e-20 0.0501253 1979.93
-0.00375004 0 0.0513139 153.842
0.00374998 2.8594e-20 0.0513139 152.324
0.0124864 0 0.049924 1990.37
-0.0124864 0 0.049924 1990.41
0.0124989 0 0.049924 1989.35
-0.0124989 0 0.049924 1989.39
-0.0125115 0 0.049924 1990.86
0.0125115 0 0.049924 1990.82
-0.0124865 -1.69407e-21 0.0499319 1990.4
0.0124865 0 0.0499319 1990.36
0.00656246 0 0.0510495 187.813
-0.00656246 -5.42101e-20 0.0510495 193.483
-0.0125114 0 0.0499319 1990.85
0.0125114 1.69407e-21 0.0499319 1990.81
-0.00968739 0 0.0505562 402.874
0.00968739 5.42101e-20 0.0505562 377.478
0.00437498 -3.65978e-20 0.0513138 152.136
-0.00437502 0 0.0513138 153.921
0.00874839 -3.30343e-20 0.0507872 283.549
-0.00875163 2.11758e-22 0.0507847 299.161
0.00718748 0 0.0510494 187.371
-0.00718748 0 0.0510494 193.575
0.00499998 0 0.0513138 151.937
-0.005 0 0.0513138 153.982
-0.0112495 -4.23516e-22 0.0503285 1200.64
0.0112495 -1.41172e-22 0.0503285 1186.76
0.0121866 0 0.050125 1986.9
-0.0121866 0 0.050125 1986.93
-0.0103124 0 0.0505556 403.889
0.0103124 -2.71051e-20 0.0505556 377.597
-0.004375 -3.30872e-24 0.0514227 142.103
0.004375 3.30872e-24 0.0514227 140.773
0.000312513 -2.71051e-20 0.0516082 114.073
-0.000312513 0 0.0516082 114.048
-0.000937517 2.71051e-20 0.0516082 114.036
0.000937517 -2.71051e-20 0.0516082 114.1
0.0131104 1.69407e-21 0.049924 1997.4
-0.0131104 0 0.049924 1997.45
-0.0131239 1.69407e-21 0.049924 1996.03
0.0131239 3.38813e-21 0.049924 1995.97
0.00562497 1.43532e-20 0.0513137 151.748
-0.00562501 0 0.0513137 154.007
-0.00499999 1.65436e-24 0.051379 146.87
0.00499999 -1.65436e-24 0.051379 145.096
-0.0131374 -1.69407e-21 0.049924 1997.94
0.0131374 0 0.049924 1997.89
-0.0131106 -1.69407e-21 0.0499325 1997.44
0.0131106 -1.69407e-21 0.0499325 1997.38
-0.0131373 -1.69407e-21 0.0499325 1997.92
0.0131373 -1.69407e-21 0.0499325 1997.87
-0.00156253 0 0.0516082 113.986
0.00156253 2.71051e-20 0.0516082 114.11
0.00375001 9.92617e-24 0.0515042 132.367
-0.00375001 3.30872e-24 0.0515042 133.126
0.00937336 3.38813e-21 0.0507843 283.43
-0.00937666 -4.15046e-20 0.0507843 299.697
0.00781251 -2.71051e-20 0.0510492 187.074
-0.00781251 5.42101e-20 0.0510492 193.561
-0.00218753 2.71051e-20 0.0516081 113.929
0.00218753 -2.71051e-20 0.0516081 114.085
-0.00281253 0 0.0516081 113.879
0.00281253 0 0.0516081 114.088
-0.00562499 0 0.0513796 146.833
0.00562499 -1.65436e-24 0.0513797 144.904
0.00624996 -3.30872e-24 0.0513136 151.556
-0.00625002 0 0.0513136 154.006
0.00312502 0 0.0516018 122.211
-0.00312502 3.30872e-24 0.0516018 122.677
-0.0118744 4.23516e-22 0.050328 1204.99
0.0118744 2.82344e-22 0.050328 1190.47
-0.00343753 -2.71051e-20 0.051608 113.802
0.00343753 2.71051e-20 0.051608 114.095
0.0109373 -2.71051e-20 0.050555 377.826
-0.0109373 0 0.050555 405.412
0.0128115 -2.71051e-20 0.0501247 1993.87
-0.0128115 0 0.0501247 1993.92
0.00843756 2.71051e-20 0.0510489 186.641
-0.00843756 -2.71051e-20 0.0510489 193.63
0.00250002 0 0.0516948 112.184
-0.00250002 0 0.0516948 112.39
0.00999837 0 0.0507864 283.331
-0.0100016 -2.11758e-22 0.0507838 300.296
0.00406252 0 0.051608 114.079
-0.00406252 2.71051e-20 0.051608 113.719
0.00687495 -2.63904e-20 0.0513135 151.344
-0.00687495 -6.61744e-24 0.0513135 153.978
0.0137345 -1.69407e-21 0.049924 2004.72
-0.0137345 0 0.049924 2004.78
0.0137489 0 0.049924 2002.84
-0.0137489 0 0.049924 2002.91
-0.0137634 0 0.049924 2005.35
0.0137634 0 0.049924 2005.28
-0.00624999 0 0.0514085 143.583
0.00624999 3.30872e-24 0.0514085 141.716
-0.0137346 -1.69407e-21 0.0499331 2004.77
0.0137346 0 0.0499331 2004.7
-0.0137632 1.69407e-21 0.0499331 2005.32
0.0137632 0 0.0499331 2005.26
0.00187502 0 0.0517709 104.608
-0.00187502 -1.65436e-24 0.0517711 104.43
0.0046875 -2.71051e-20 0.0516079 114.014
-0.0046875 -2.71051e-20 0.0516079 113.622
0.00125001 -8.27181e-25 0.0518255 98.7332
-0.00125001 3.30872e-24 0.0518258 98.5443
0.00906259 -2.71051e-20 0.0510486 186.37
-0.00906259 -2.71051e-20 0.0510486 193.603
-0.0124994 0 0.0503276 1209.29
0.0124994 4.23516e-22 0.0503276 1194.1
0.00749997 -6.61744e-24 0.0513134 151.122
-0.00750007 0 0.0513134 153.923
0.0115622 0 0.0505543 377.99
-0.0115622 -2.71051e-20 0.0505543 406.514
0.000625007 0 0.0518574 95.3454
-0.000625007 8.27181e-25 0.0518581 95.33
0.00531251 -5.42101e-20 0.0516078 114.026
-0.00531251 5.42101e-20 0.0516078 113.526
0.0106266 -1.43996e-20 0.0507834 283.245
-0.0106266 0 0.0507859 300.924
0.0134365 -2.71051e-20 0.0501244 2000.92
-0.0134365 0 0.0501244 2000.99
-0.00687499 0 0.0514385 140.304
0.00687499 6.61744e-24 0.0514385 138.498
-4.03963e-11 3.23117e-27 0.0519027 90.0643
0.000625009 4.1359e-25 0.0519027 90.5278
-0.000625003 -4.1359e-25 0.0519027 90.5766
0.00125 0 0.0519027 90.5543
-0.00125002 1.13208e-20 0.0519027 90.3007
0.001875 3.30872e-24 0.0519027 90.7077
-0.00187504 -3.899e-20 0.0519027 90.284
-0.0143585 -1.69407e-21 0.049924 2013.06
0.0143585 0 0.049924 2012.97
0.00593751 -2.71051e-20 0.0516078 113.998
-0.00593751 0 0.0516078 113.403
0.0143739 0 0.049924 2010.63
-0.0143739 0 0.049924 2010.71
0.00812501 -1.24011e-20 0.0513133 150.896
-0.00812501 0 0.0513133 153.852
-0.0143893 -1.69407e-21 0.049924 2013.75
0.0143893 0 0.049924 2013.66
-0.0143587 0 0.0499336 2013.04
0.0143587 0 0.0499336 2012.95
0.0096876 2.71051e-20 0.0510482 185.972
-0.0096876 -2.71051e-20 0.0510482 193.681
0.00249999 0 0.0519026 90.1009
-0.00250005 -1.20305e-20 0.0519026 89.8816
-0.0143892 -1.69407e-21 0.0499336 2013.72
0.0143892 0 0.0499336 2013.64
-0.00750002 0 0.051446 139.354
0.00750002 0 0.051446 137.463
0.00312497 0 0.0519026 90.5675
-0.00312507 1.59613e-20 0.0519026 90.2075
0.0121872 2.71051e-20 0.0505537 378.155
-0.0121872 2.71051e-20 0.0505537 408.347
-0.0131244 -7.05861e-22 0.0503272 1213.49
0.0131244 0 0.0503272 1197.78
0.0112483 -1.56701e-20 0.0507829 283.181
-0.0112515 0 0.0507854 301.569
0.00656251 -2.71051e-20 0.0516077 113.991
-0.00656251 2.71051e-20 0.0516077 113.252
0.00374994 -1.32349e-23 0.0519027 90.5918
-0.00375008 -3.93738e-20 0.0519027 89.7626
-0.00812505 0 0.0514143 142.812
0.00812505 -6.61744e-24 0.0514143 140.572
0.00875006 8.27181e-25 0.0513131 150.68
-0.00875008 -8.27181e-25 0.0513131 153.777
0.0140615 2.71051e-20 0.0501241 2008.51
-0.0140615 -2.71051e-20 0.0501241 2008.59
-0.00881331 0 0.0513131 153.767
0.00881337 5.79026e-24 0.0513131 150.658
-0.00875007 0 0.0513281 152.124
0.00875007 -4.96308e-24 0.0513282 149.136
0.0103126 2.71051e-20 0.0510478 185.723
-0.0103126 0 0.0510478 193.619
-0.0043751 -3.73356e-20 0.0519025 90.0149
0.0043751 0 0.0519025 90.6973
0.00718752 -2.71051e-20 0.0516076 113.906
-0.00718752 0 0.0516076 113.111
0.0149826 0 0.049924 2020.85
-0.0149826 0 0.049924 2020.96
-0.0149989 0 0.049924 2017.93
0.0149989 -3.38813e-21 0.049924 2017.82
-0.0150152 0 0.049924 2021.34
0.0150152 0 0.049924 2021.23
-0.0149828 1.69407e-21 0.0499342 2020.94
0.0149828 -1.69407e-21 0.0499342 2020.83
-0.00500012 -4.12929e-21 0.0519026 89.7791
0.0049999 0 0.0519026 90.1897
-0.0150151 1.69407e-21 0.0499341 2021.3
0.0150151 0 0.0499341 2021.19
-0.00937509 1.32349e-23 0.0512978 157.875
0.00937509 -1.32349e-23 0.0512978 154.284
0.0128121 -2.71051e-20 0.0505531 378.289
-0.0128121 0 0.0505531 409.472
0.0118733 2.20229e-20 0.0507824 283.099
-0.0118765 0 0.0507824 302.269
-0.00937514 8.25195e-21 0.0513129 153.683
0.00937504 0 0.0513129 150.466
0.0137494 8.47033e-22 0.0503268 1201.63
-0.0137494 0 0.0503268 1217.76
0.00781255 0 0.0516075 113.854
-0.00781255 0 0.0516075 112.952
0.0109375 0 0.0510474 185.321
-0.0109375 -5.42101e-20 0.0510474 193.671
-0.00562513 3.17637e-21 0.0519024 89.9501
0.00562488 0 0.0519026 90.6573
0.000300834 -2.71051e-20 0.0522172 67.6263
-0.000300834 0 0.0522172 64.6892
-0.000949178 8.13152e-20 0.0522172 68.5092
0.000949178 2.71051e-20 0.0522172 65.2828
0.0146865 0 0.0501237 2017.49
-0.0146865 -5.42101e-20 0.0501237 2017.59
-0.00155084 -2.71051e-20 0.0522172 64.8541
0.00155084 0 0.0522172 68.9053
-0.0100001 -6.61744e-23 0.051277 163.465
0.0100001 -1.32349e-23 0.051277 159.224
-0.00219919 0 0.0522172 67.3384
0.00219919 -2.71051e-20 0.0522172 64.7148
-0.00625015 2.32934e-21 0.0519024 89.3483
0.00624987 0 0.0519024 90.5246
-0.0100002 -2.98976e-20 0.0513125 153.577
0.00999998 7.9277e-21 0.0513127 150.255
-0.00280085 -2.71051e-20 0.0522171 64.5613
0.00280085 0 0.0522171 67.697
0.00843757 0 0.0516074 113.754
-0.00843757 2.71051e-20 0.0516074 112.78
0.0124982 -3.38813e-21 0.0507819 282.997
-0.0125016 4.65868e-21 0.0507819 302.938
0.0156067 -3.38813e-21 0.0499241 2023.71
-0.0156067 0 0.0499241 2023.84
0.0134371 2.71051e-20 0.0505525 378.494
-0.0134371 -2.71051e-20 0.0505525 410.793
0.0156239 3.38813e-21 0.049924 2019.86
-0.0156239 0 0.049924 2019.99
-0.0156411 -3.38813e-21 0.0499239 2023.3
0.0156411 0 0.0499239 2023.17
-0.0156069 0 0.0499348 2023.81
0.0156069 -3.38813e-21 0.0499348 2023.68
-0.0156409 0 0.0499346 2023.27
0.0156409 0 0.0499346 2023.14
-0.00344918 2.71051e-20 0.0522171 67.5594
0.00344918 2.71051e-20 0.0522171 65.3662
0.0143744 -8.47033e-22 0.0503263 1206.01
-0.0143744 0 0.0503263 1222.33
0.0115625 0 0.0510469 185.079
-0.0115625 0 0.0510469 193.554
-0.0106251 1.05879e-22 0.0512559 169.239
0.0106251 0 0.0512559 164.284
-0.00687516 2.10699e-20 0.0519024 89.5566
0.00687485 0 0.0519027 90.8302
-0.00405085 2.71051e-20 0.0522171 64.1592
0.00405085 0 0.0522171 69.0112
0.00906259 -2.71051e-20 0.0516072 113.706
-0.00906259 5.42101e-20 0.0516072 112.608
-0.0106249 0 0.0513122 153.455
0.0106249 0 0.0513126 150.025
0.0153117 2.71051e-20 0.0501229 2023.87
-0.0153117 -5.42101e-20 0.0501229 2023.99
0.00469918 0 0.0522171 64.6769
-0.00469918 0 0.0522171 67.5391
-0.00750018 -2.44316e-20 0.0519026 89.1961
0.00749986 -2.64698e-23 0.0519022 90.4411
0.0131266 0 0.0507842 282.912
-0.013123 2.07523e-20 0.0507813 303.456
-0.0112501 -1.32349e-22 0.0512373 174.313
0.0112501 0 0.0512373 168.696
0.0140622 -2.71051e-20 0.0505519 378.658
-0.0140622 2.71051e-20 0.0505519 411.55
0.0121875 0 0.0510465 184.677
-0.0121875 0 0.0510465 193.508
0.00530085 0 0.0522171 68.2276
-0.00530085 -2.71051e-20 0.0522171 64.6166
0.0162308 0 0.0499239 2020.96
-0.0162308 0 0.0499239 2021.1
0.0162489 3.38813e-21 0.0499238 2016.72
-0.0162489 0 0.0499238 2016.87
-0.0162311 0 0.0499351 2021.06
0.0162311 0 0.0499351 2020.92
-0.016267 0 0.0499237 2020.16
0.016267 0 0.0499237 2020.02
0.0096876 -2.71051e-20 0.0516071 113.59
-0.0096876 -2.71051e-20 0.0516071 112.361
0.0149995 5.64689e-22 0.0503256 1210.08
-0.0149995 0 0.0503256 1226.23
-0.0162668 0 0.0499349 2020.12
0.0162668 -3.38813e-21 0.0499349 2019.98
0.000625003 0 0.0525189 60.2385
-0.000625008 -2.23339e-20 0.0525189 60.3352
-0.0112504 1.03762e-20 0.0513119 153.311
0.0112504 0 0.0513124 149.801
-0.00812521 4.23516e-22 0.0519022 89.4277
0.00812485 2.64698e-23 0.0519022 90.6535
0.00187503 3.30872e-24 0.0525189 60.5373
-0.00187503 1.20074e-20 0.0525189 59.9202
0.00594917 -5.42101e-20 0.0522171 65.3686
-0.00594917 0 0.0522171 67.2414
-0.011875 -1.58819e-22 0.0512242 177.879
0.011875 -5.29396e-23 0.0512242 171.741
0.0159368 0 0.0501213 2022.22
-0.0159368 0 0.0501213 2022.35
0.0137479 0 0.0507838 282.834
-0.0137518 1.69407e-20 0.0507807 303.842
0.00312505 0 0.0525189 60.3335
-0.00312497 2.15067e-21 0.0525189 59.8716
0.00655084 -5.42101e-20 0.052217 68.9324
-0.00655084 -2.71051e-20 0.052217 63.6954
0.0103126 0 0.0516069 113.516
-0.0103126 -5.42101e-20 0.0516069 112.163
0.0128125 -2.71051e-20 0.0510461 184.401
-0.0128125 2.71051e-20 0.0510461 193.268
-0.00875025 -7.41154e-22 0.0519025 89.014
0.00874983 -2.64698e-23 0.0519025 90.2379
0.0146872 0 0.0505511 378.98
-0.0146872 0 0.0505511 412.011
-0.0118753 3.91753e-21 0.0513116 153.128
0.0118753 -5.29396e-23 0.0513116 149.582
-7.54057e-12 0 0.0526734 56.0048
0.00125002 0 0.0526734 56.6143
-0.00125002 5.24763e-21 0.0526734 56.2912
0.0168548 0 0.0499237 2017.58
-0.0168548 0 0.0499237 2017.73
0.0156246 8.47033e-22 0.0503244 1211.33
-0.0156246 -8.47033e-22 0.0503244 1227.11
0.0168738 3.38813e-21 0.0499236 2013.28
-0.0168738 0 0.0499236 2013.44
0.00437507 0 0.0525188 60.6011
-0.00437507 1.49356e-20 0.0525188 59.6915
-0.0168552 0 0.0499355 2017.69
0.0168552 3.38813e-21 0.0499355 2017.54
-0.0168928 3.38813e-21 0.0499235 2016.89
0.0168928 0 0.0499235 2016.74
0.00719919 2.71051e-20 0.052217 65.5013
-0.00719919 0 0.052217 67.1591
-0.0168924 0 0.0499353 2016.86
0.0168924 0 0.0499353 2016.7
-0.0125 5.29396e-23 0.0512179 179.51
0.0125 -5.29396e-23 0.0512179 173.052
0.00250004 3.30872e-24 0.0526734 56.0969
-0.00250004 -2.51628e-20 0.0526734 55.7992
-0.00937529 1.21761e-21 0.051902 88.9628
0.00937479 0 0.0519025 90.4953
0.0109376 -2.71051e-20 0.0516067 113.342
-0.0109376 0 0.0516067 111.895
0.0143728 -9.31736e-21 0.0507801 282.782
-0.014377 0 0.0507801 303.974
0.0134375 2.71051e-20 0.0510457 183.991
-0.0134375 0 0.0510457 193.098
0.0165617 2.71051e-20 0.0501194 2017.94
-0.0165617 0 0.0501194 2018.09
0.00780085 0 0.052217 68.6967
-0.00780085 -5.42101e-20 0.052217 63.7617
0.00375005 6.61744e-24 0.0526733 56.7332
-0.00375005 2.16787e-20 0.0526733 55.7111
-0.0125004 3.26637e-20 0.0513119 152.907
0.0124996 0 0.0513119 149.355
0.0153124 0 0.0505502 379.395
-0.0153124 0 0.0505502 411.587
-0.00562508 7.02773e-21 0.0525188 59.7251
0.00562508 0 0.0525188 60.5724
-0.0100004 -2.43522e-21 0.0519024 88.4865
0.00999982 -5.24102e-21 0.0519024 90.3013
-0.013125 -5.29396e-23 0.0512174 179.462
0.013125 0 0.0512174 172.896
0.0162497 0 0.050323 1209.62
-0.0162497 -2.82344e-22 0.050323 1225.14
0.0115626 0 0.0516065 113.273
-0.0115626 0 0.0516065 111.649
0.0174788 3.38813e-21 0.0499237 2015.67
-0.0174788 0 0.0499237 2015.84
0.0084492 -5.42101e-20 0.0522169 65.324
-0.0084492 2.71051e-20 0.0522169 67.2222
0.0174986 -3.38813e-21 0.0499235 2011.29
-0.0174986 3.38813e-21 0.0499235 2011.47
-0.0174793 -3.38813e-21 0.0499359 2015.8
0.0174793 0 0.0499359 2015.63
-0.0175184 -3.38813e-21 0.0499234 2015.05
0.0175184 3.38813e-21 0.0499234 2014.88
-0.00500007 -6.87553e-20 0.0526734 55.808
0.00499995 0 0.0526734 56.3081
-0.0175179 0 0.0499357 2015.03
0.0175179 0 0.0499357 2014.86
0.0140625 0 0.0510452 183.721
-0.0140625 -2.71051e-20 0.0510452 192.702
0.0149978 1.35525e-20 0.0507795 282.796
-0.0150022 0 0.0507795 303.776
-0.0131254 -5.24102e-21 0.0513118 152.645
0.0131246 0 0.0513118 149.103
-0.00687492 -3.44504e-20 0.0525187 59.3216
0.0068751 1.32349e-23 0.0525187 60.9076
-0.0106253 -2.37169e-20 0.0519017 88.5669
0.0106246 -5.29396e-23 0.0519023 90.4062
0.0171866 -2.71051e-20 0.0501174 2015.65
-0.0171866 -5.42101e-20 0.0501174 2015.81
0.00905088 -2.71051e-20 0.0522169 68.3694
-0.00905088 -2.71051e-20 0.0522169 63.6529
0.0159374 0 0.050549 379.452
-0.0159374 2.71051e-20 0.050549 410.975
0.0121875 0 0.0516063 113.137
-0.0121875 0 0.0516063 111.34
-0.01375 0 0.0512192 178.643
0.01375 5.29396e-23 0.0512193 172.119
-0.00625007 -1.80789e-20 0.0526733 55.394
0.00625007 0 0.0526733 56.7544
0.0168746 0 0.0503213 1207.65
-0.0168746 -5.64689e-22 0.0503213 1223.19
0.0181029 -3.38813e-21 0.0499235 2014.34
-0.0181029 0 0.0499235 2014.53
-0.0112504 -1.26526e-20 0.0519024 88.1161
0.0112504 5.29396e-23 0.0519017 89.852
0.00969921 -2.71051e-20 0.0522168 65.3311
-0.00969921 0 0.0522168 66.2313
0.0181235 0 0.0499233 2009.87
-0.0181235 3.38813e-21 0.0499233 2010.05
0.0146875 -2.71051e-20 0.0510448 183.309
-0.0146875 2.71051e-20 0.0510448 192.409
-0.0181035 -3.38813e-21 0.0499362 2014.5
0.0181035 0 0.0499362 2014.32
-0.0181441 -3.38813e-21 0.0499232 2013.72
0.0181441 0 0.0499232 2013.54
-0.0137504 -5.29396e-23 0.0513108 152.336
0.0137504 5.29396e-23 0.0513115 148.856
0.0156273 2.71051e-20 0.0507786 282.749
-0.0156272 0 0.0507821 303.308
-0.0181435 0 0.049936 2013.72
0.0181435 0 0.049936 2013.53
-0.00812512 -2.07126e-20 0.0525187 59.3407
0.00812512 -1.32349e-23 0.0525187 60.7629
0.000625009 0 0.0531412 39.7573
-0.000625009 5.42101e-20 0.0531412 39.6962
0.0128125 -2.71051e-20 0.0516061 113.05
-0.0128125 0 0.0516061 111.048
0.00187502 -5.42101e-20 0.0531412 39.87
-0.00187502 5.42101e-20 0.0531412 39.5713
0.0178114 2.71051e-20 0.0501153 2014.37
-0.0178114 0 0.0501153 2014.55
0.0165624 -2.71051e-20 0.0505475 379.182
-0.0165624 -5.42101e-20 0.0505475 410.279
-0.0143751 -1.05879e-22 0.0512197 178.166
0.0143751 0 0.0512197 171.713
-0.00750009 -1.02306e-20 0.0526733 55.3482
0.00750009 0 0.0526733 56.745
0.0103009 -2.71051e-20 0.0522167 68.9708
-0.0103009 0 0.0522167 63.401
0.00312503 -5.42101e-20 0.0531412 39.9119
-0.00312503 -5.42101e-20 0.0531412 39.4817
-0.0118754 2.13346e-20 0.0519015 88.1932
0.0118746 0 0.0519015 90.26
0.0174995 2.82344e-22 0.0503195 1206.35
-0.0174995 8.47033e-22 0.0503195 1222.03
-0.0143747 7.14684e-21 0.0513104 151.991
0.0143747 0 0.0513104 148.606
0.0153126 -5.42101e-20 0.0510442 183.061
-0.0153126 2.71051e-20 0.0510442 191.896
0.016248 2.11758e-21 0.0507777 282.529
-0.016248 4.23516e-22 0.0507777 302.777
0.0187269 3.38813e-21 0.0499232 2013.17
-0.0187269 0 0.0499232 2013.37
0.00437501 -5.42101e-20 0.0531412 40.0328
-0.00437501 -5.42101e-20 0.0531412 39.4047
0.0134375 -2.71051e-20 0.051606 112.836
-0.0134375 2.71051e-20 0.051606 110.713
0.0187483 0 0.0499231 2008.6
-0.0187483 0 0.0499231 2008.8
-0.0187276 0 0.0499365 2013.36
0.0187276 3.38813e-21 0.0499365 2013.17
-0.0187697 0 0.0499229 2012.57
0.0187697 0 0.0499229 2012.37
-0.0187691 0 0.0499363 2012.59
0.0187691 0 0.0499363 2012.39
-0.00937516 -3.26637e-20 0.0525187 58.8929
0.00937488 1.36319e-20 0.0525187 60.648
0.0109492 2.71051e-20 0.0522167 64.8227
-0.0109492 2.71051e-20 0.0522167 65.8193
-0.0150001 -5.29396e-23 0.0512155 178.921
0.0150001 -1.05879e-22 0.0512155 172.484
-0.0125004 -1.16467e-21 0.0519023 87.6083
0.0124996 -1.06938e-20 0.0519014 90.1078
0.0171874 2.71051e-20 0.050546 378.763
-0.0171874 -5.42101e-20 0.050546 410.369
-0.00875011 7.57036e-21 0.0526731 55.2884
0.00875011 0 0.0526731 56.6084
-0.0184363 -2.71051e-20 0.0501132 2013.45
0.0184363 -2.71051e-20 0.0501132 2013.26
0.00562501 0 0.0531411 40.0611
-0.00562501 -1.0842e-19 0.0531411 39.2868
-0.0150006 -2.95403e-20 0.0513101 151.608
0.0149996 -5.29396e-23 0.0513109 148.354
0.0159377 -2.71051e-20 0.0510435 182.655
-0.0159377 5.42101e-20 0.0510435 191.582
0.0115509 -2.71051e-20 0.0522166 68.1872
-0.0115509 2.71051e-20 0.0522166 63.3233
0.0181244 -2.82344e-22 0.0503177 1205.42
-0.0181244 2.82344e-22 0.0503177 1221.27
0.0140626 -2.71051e-20 0.0516057 112.749
-0.0140626 0 0.0516057 110.379
0.0168771 1.10114e-20 0.0507766 282.19
-0.0168771 0 0.0507766 302.43
-0.0131255 -1.65171e-20 0.0519013 87.7522
0.0131245 0 0.0519022 90.3538
-0.0156251 1.05879e-22 0.051205 181.398
0.0156251 0 0.051205 174.816
0.0193508 -3.38813e-21 0.0499231 2012.13
-0.0193508 0 0.0499231 2012.34
0.0193732 3.38813e-21 0.0499229 2007.41
-0.0193732 0 0.0499229 2007.62
-0.0193516 0 0.049937 2012.36
0.0193516 0 0.049937 2012.15
-0.0193957 3.38813e-21 0.0499228 2011.52
0.0193957 3.38813e-21 0.0499228 2011.31
-0.0193949 0 0.0499367 2011.57
0.0193949 0 0.0499367 2011.36
-0.0106252 1.7523e-20 0.0525185 58.6086
0.0106248 -3.84871e-20 0.0525185 60.6958
0.00687501 0 0.0531411 40.1191
-0.00687501 -5.42101e-20 0.0531411 39.2049
0.0178123 -2.71051e-20 0.0505444 378.313
-0.0178123 0 0.0505444 409.906
-0.0100001 2.062e-20 0.0526731 54.8594
0.00999988 5.76512e-20 0.0526734 56.8117
-0.0190612 -2.71051e-20 0.0501112 2012.6
0.0190612 2.71051e-20 0.0501112 2012.4
0.0121992 -2.71051e-20 0.0522166 65.4866
-0.0121992 0 0.0522166 65.4928
-0.0156256 2.69992e-20 0.0513097 151.219
0.0156246 1.05879e-22 0.0513106 148.098
0.0146876 -2.71051e-20 0.0516055 112.527
-0.0146876 -2.71051e-20 0.0516055 110.026
0.0165627 0 0.0510427 182.393
-0.0165627 0 0.0510427 191.084
-0.0137495 -1.93759e-20 0.0519011 87.1864
0.0137505 0 0.0519021 89.9541
0.0187493 0 0.0503159 1204.62
-0.0187493 -2.82344e-22 0.0503159 1220.73
-0.0162502 -1.05879e-22 0.0511882 185.629
0.0162502 -1.05879e-22 0.0511882 178.688
0.0174982 1.3129e-20 0.0507755 281.796
-0.017502 2.11758e-22 0.0507755 302.134
-5.59391e-13 0 0.0537586 31.1839
-0.00812501 -5.42101e-20 0.0531411 39.0758
0.00812501 0 0.0531411 40.18
0.0128009 2.71051e-20 0.0522165 68.9775
-0.0128009 2.71051e-20 0.0522165 62.7799
0.0199745 6.77626e-21 0.0499228 2011.12
-0.0199745 0 0.0499228 2011.35
0.00125 0 0.0537586 31.2255
-0.00125002 9.635e-21 0.0537586 31.1384
0.0199982 0 0.0499226 2006.21
-0.0199982 0 0.0499226 2006.44
-0.0199754 0 0.0499374 2011.41
0.0199754 3.38813e-21 0.0499374 2011.18