# p  POINT_DATA 27167
# x  y  z  p
0 -0.0100383 9.88059e-08 0.00334522
0 0.0100383 9.88059e-08 0.00346219
-6.77626e-21 0.0100383 0.000270318 0.00346223
-3.38813e-20 -0.0100383 0.000270355 0.00334522
0 0.0100383 0.000399158 0.00346223
-6.77626e-21 -0.0100383 0.000399216 0.00334522
0 0.0100383 0.000671987 0.00346218
0 -0.0100383 0.000672082 0.00334522
0 0.0100383 0.000954688 0.00346223
1.35525e-20 -0.0100383 0.000954778 0.00334521
2.71051e-20 0.0100383 0.00108461 0.00346223
-1.35525e-20 -0.0100383 0.00108472 0.00334521
0 0.0100383 0.00136726 0.00346217
0 -0.0100383 0.00136736 0.00334522
-2.03288e-20 0.0100382 0.00165828 0.00346216
6.77626e-21 -0.0100382 0.00165833 0.00334523
0 0.0100382 0.00179903 0.00346214
-1.35525e-20 -0.0100382 0.00179907 0.00334524
1.35525e-20 -0.0102118 8.66105e-08 0.00334518
0 0.0102118 8.66107e-08 0.00346235
-4.51751e-21 0.0102382 0.000331507 0.00346238
0 -0.0102382 0.000331549 0.00334517
-2.71051e-20 0.0100382 0.002087 0.00346206
2.71051e-20 -0.0100382 0.002087 0.00334527
0 0.0102243 0.000990464 0.00346239
0 -0.0102243 0.000990555 0.00334515
0 0.0102083 0.00163604 0.00346231
0 -0.0102083 0.00163609 0.00334518
-1.35525e-20 -0.0102224 0.00218426 0.00334526
2.71051e-20 0.0102225 0.00218428 0.00346209
0 0.010458 6.24978e-08 0.0034624
-2.71051e-20 -0.010458 6.24966e-08 0.00334516
0 0.0104623 0.000144468 0.00346242
0 -0.0104623 0.000144482 0.00334515
0 0.0105577 0.000633902 0.0034624
-4.51751e-21 -0.0105577 0.000633982 0.00334515
1.35525e-20 0.01058 5.25664e-08 0.00346233
1.35525e-20 -0.01058 5.25657e-08 0.00334517
2.71051e-21 -0.0104079 0.00203703 0.00334521
-1.6263e-20 0.010408 0.00203704 0.00346222
9.03502e-21 0.010539 0.00125631 0.00346236
4.51751e-21 -0.010539 0.00125641 0.00334516
0 0.0106667 9.98935e-05 0.00346241
-1.35525e-20 -0.0106667 9.99038e-05 0.00334515
-3.01167e-21 0.0105324 0.0017155 0.00346231
1.05409e-20 -0.0105324 0.00171555 0.00334518
-1.35525e-20 -0.0104246 0.00229102 0.00334523
0 0.0104247 0.00229107 0.00346218
0 -0.0106751 3.95308e-08 0.00334515
1.35525e-20 0.0106752 3.95301e-08 0.0034624
1.35525e-20 -0.0105566 0.00221565 0.00334519
0 0.0105567 0.0022157 0.00346228
1.35525e-20 -0.0105735 0.00236965 0.00334518
0 0.0105737 0.00236971 0.0034623
-2.71051e-20 -0.0108504 0.000315325 0.00334514
2.71051e-20 0.0108504 0.000315288 0.00346243
2.71051e-20 -0.0108348 0.000932939 0.00334516
2.71051e-20 0.0108349 0.000932867 0.00346234
0 -0.0108178 0.00151928 0.00334517
2.71051e-20 0.0108179 0.00151923 0.0034623
-1.35525e-20 -0.0106814 0.00242665 0.00334515
0 0.0106816 0.00242671 0.00346236
0 -0.0107334 0.002339 0.00334514
0 0.0107336 0.00233907 0.00346238
-6.77626e-21 -0.0110782 8.04033e-09 0.00334512
0 0.0110782 8.03996e-09 0.00346245
0 -0.0110788 6.39066e-05 0.00334512
0 0.0110788 6.38979e-05 0.00346246
0 -0.0111402 -5.0826e-11 0.00334512
0 0.0111402 -5.09721e-11 0.00346245
-3.38813e-21 0.0111346 0.000610508 0.00346245
-2.25875e-21 -0.0111346 0.000610587 0.00334512
-2.25875e-21 -0.0111195 0.00122932 0.00334513
1.12938e-21 0.0111196 0.00122924 0.00346241
-3.61401e-21 -0.0110331 0.00190701 0.00334512
9.03502e-22 0.0110332 0.001907 0.00346242
0 0.0111969 4.05707e-11 0.00346247
0 -0.0111969 4.06969e-11 0.00334511
0 0.011197 5.9483e-05 0.00346247
0 -0.011197 5.94923e-05 0.00334511
0 -0.0109687 0.002298 0.0033451
0 0.0109689 0.00229806 0.00346249
1.35525e-20 -0.0109784 0.0025835 0.0033451
-1.35525e-20 0.0109787 0.00258362 0.00346245
-1.35525e-20 -0.0110322 0.00252116 0.0033451
0 0.0110324 0.00252128 0.00346247
-1.35525e-20 -0.0110647 0.00262905 0.0033451
1.35525e-20 0.0110649 0.00262916 0.00346245
-2.71051e-20 -0.0114329 0.000303637 0.00334508
0 0.0114329 0.000303605 0.00346252
0 -0.0111379 0.00266759 0.00334509
0 0.0111381 0.0026677 0.00346246
0 -0.0111676 0.0026113 0.00334509
1.35525e-20 0.0111678 0.00261141 0.00346247
-2.71051e-20 -0.0114367 0.000916296 0.00334511
0 0.0114367 0.00091623 0.00346249
-1.50584e-21 -0.011273 0.00233144 0.00334508
-4.51751e-21 0.0112732 0.0023315 0.00346251
-5.42101e-20 -0.0114108 0.00155891 0.0033451
0 0.0114108 0.00155888 0.00346249
-2.71051e-20 -0.0114548 0.00210261 0.00334507
0 0.0114549 0.00210264 0.00346253
0 -0.0116763 1.11166e-09 0.00334504
0 0.0116763 1.11171e-09 0.00346261
0 -0.0116771 3.85435e-05 0.00334503
0 0.0116771 3.85343e-05 0.00346261
-2.71051e-20 -0.011407 0.00257359 0.00334507
2.71051e-20 0.0114072 0.00257368 0.0034625
0 -0.0117135 1.17278e-09 0.00334503
-6.77626e-21 0.0117135 1.17283e-09 0.00346263
-6.77626e-21 0.0117497 1.11165e-09 0.00346265
6.77626e-21 -0.0117497 1.11158e-09 0.00334502
0 0.0117514 3.5956e-05 0.00346265
0 -0.0117514 3.59627e-05 0.00334502
0 0.0117364 0.000596551 0.0034626
0 -0.0117364 0.000596601 0.00334505
5.64689e-22 -0.0117435 0.00122276 0.00334506
-5.64689e-22 0.0117435 0.00122272 0.00346257
-6.77626e-21 -0.0114702 0.00284265 0.00334506
0 0.0114705 0.00284279 0.0034625
-6.77626e-21 -0.0114996 0.00279927 0.00334506
0 0.0114998 0.00279942 0.00346251
0 -0.0115305 0.00287442 0.00334506
0 0.0115308 0.00287455 0.00346251
1.12938e-21 -0.0117521 0.00184887 0.00334504
1.12938e-21 0.0117522 0.00184887 0.00346259
-1.35525e-20 -0.011585 0.00290382 0.00334505
0 0.0115853 0.00290395 0.00346252
4.51751e-21 -0.0117097 0.00240797 0.00334504
-2.25875e-21 0.0117099 0.00240804 0.00346257
0 -0.01162 0.00284239 0.00334504
1.35525e-20 0.0116202 0.00284253 0.00346253
0 -0.0120252 0.000293165 0.00334497
-2.71051e-20 0.0120252 0.000293149 0.00346275
5.42101e-20 -0.0120563 0.000895248 0.00334503
5.42101e-20 0.0120564 0.000895221 0.00346263
5.42101e-20 -0.0120785 0.00152564 0.00334501
2.71051e-20 0.0120786 0.00152563 0.00346266
-2.71051e-20 -0.0119134 0.00273996 0.00334502
2.71051e-20 0.0119137 0.00274007 0.00346258
0 -0.0120751 0.00217654 0.00334499
0 0.0120752 0.00217659 0.00346266
-3.38813e-21 -0.0122802 1.16251e-10 0.0033449
0 0.0122802 1.16247e-10 0.00346291
0 -0.0122814 2.10156e-05 0.0033449
0 0.0122814 2.10088e-05 0.00346291
3.38813e-21 -0.0123014 8.01245e-11 0.00334489
0 0.0123014 8.01301e-11 0.00346292
0 0.012322 7.76986e-11 0.00346293
0 -0.012322 7.76925e-11 0.00334489
0 0.0123232 1.85978e-05 0.00346293
-3.38813e-21 -0.0123232 1.86029e-05 0.00334489
0 -0.01193 0.00308971 0.00334496
0 0.0119303 0.00308987 0.00346262
6.77626e-21 -0.0119644 0.0030398 0.00334496
0 0.0119646 0.00303997 0.00346263
0 -0.0123483 0.000568694 0.00334494
0 0.0123483 0.000568677 0.00346282
0 -0.0119766 0.00311487 0.00334495
6.77626e-21 0.0119769 0.00311502 0.00346264
0 -0.0120209 0.00313842 0.00334493
-6.77626e-21 0.0120212 0.00313856 0.00346266
-1.35525e-20 -0.0120441 0.00309412 0.00334493
-6.77626e-21 0.0120444 0.00309427 0.00346267
-1.12938e-21 -0.012391 0.00118194 0.00334498
-1.12938e-21 0.0123911 0.00118192 0.00346272
5.64689e-22 -0.0124059 0.00184696 0.00334496
-5.64689e-22 0.012406 0.00184698 0.00346271
2.71051e-20 -0.0126198 0.000269545 0.00334481
0 0.0126199 0.000269541 0.0034631
9.03502e-22 -0.0123629 0.00258809 0.00334491
0 0.0123631 0.00258818 0.00346271
2.71051e-20 -0.012324 0.00300712 0.00334486
-2.71051e-20 0.0123242 0.00300724 0.00346276
0 -0.0126819 0.000839778 0.00334497
2.71051e-20 0.0126819 0.000839773 0.00346276
0 -0.0123691 0.00332403 0.00334483
-6.77626e-21 0.0123694 0.00332418 0.00346276
2.71051e-20 -0.0127333 0.0014734 0.00334492
0 0.0127334 0.00147341 0.0034628
6.77626e-21 -0.0123952 0.00328327 0.00334483
0 0.0123955 0.00328342 0.00346276
-6.77626e-21 -0.0124114 0.00334656 0.00334483
0 0.0124117 0.00334671 0.00346275
0 -0.0128908 5.71212e-06 0.00334481
0 0.0128903 3.97342e-12 0.00346317
0 -0.0128967 3.22163e-12 0.00334481
8.47033e-22 0.0128967 3.22196e-12 0.00346317
0 -0.0124524 0.00336833 0.0033448
6.77626e-21 0.0124527 0.00336847 0.00346278
-8.47033e-22 0.0129024 4.47153e-06 0.00346318
8.47033e-22 -0.0129024 4.47647e-06 0.00334481
-6.77626e-21 -0.0124699 0.00333453 0.0033448
0 0.0124701 0.00333468 0.00346279
2.71051e-20 -0.0127306 0.00217621 0.00334491
0 0.0127307 0.00217625 0.00346273
0 -0.0129436 0.000502359 0.00334489
0 0.0129436 0.000502361 0.003463
-5.92923e-21 -0.0129444 0.000510131 0.00334489
0 0.0129526 0.000508426 0.003463
0 -0.0126107 0.00303067 0.00334481
0 0.0126109 0.00303078 0.00346279
0 -0.0127835 0.00277774 0.00334482
2.71051e-20 0.0127837 0.00277782 0.00346278
-2.82344e-22 -0.0130621 0.00107673 0.00334489
2.82344e-23 0.0130622 0.00107674 0.00346289
-2.71051e-20 -0.0127348 0.00327342 0.00334476
0 0.0127351 0.00327353 0.00346283
8.47033e-22 0.0131537 0.00046125 0.00346303
4.23516e-22 -0.0131537 0.000461237 0.0033449
-2.71051e-20 0.0131765 0.00021876 0.00346325
0 -0.0131765 0.000218756 0.00334481
-4.23516e-22 0.0131833 1.68074e-12 0.00346318
8.47033e-22 -0.0131834 1.67988e-12 0.00334485
-1.41172e-21 -0.013081 0.00177273 0.00334485
-8.47033e-22 0.013081 0.00177275 0.00346287
0 -0.0127833 0.00354413 0.00334471
0 0.0127836 0.00354426 0.00346294
0 -0.0128061 0.00351007 0.0033447
6.77626e-21 0.0128064 0.0035102 0.00346295
-5.64689e-22 -0.0130749 0.00248236 0.00334483
-1.12938e-21 0.013075 0.00248242 0.00346282
6.77626e-21 -0.0128267 0.00356715 0.00334472
0 -0.0132939 0.000722074 0.00334496
0 0.013294 0.000722076 0.00346284
6.77626e-21 0.012827 0.00356727 0.00346294
1.35525e-20 -0.0128705 0.00359021 0.00334464
0 0.0128708 0.00359033 0.00346308
0 -0.0129024 0.00352957 0.00334465
6.77626e-21 0.0129027 0.00352968 0.00346308
0 -0.0130201 0.00308568 0.00334474
1.12938e-21 0.0130203 0.00308577 0.00346293
0 -0.0133991 0.000404506 0.00334491
0 0.0133991 0.000404508 0.00346308
-1.35525e-20 -0.013401 0.000412597 0.00334491
8.47033e-22 0.013401 0.000412598 0.00346308
-8.47033e-22 0.0134864 4.87967e-06 0.00346319
0 -0.0134865 4.88092e-06 0.00334489
0 0.0134935 6.35544e-15 0.00346319
0 -0.0134936 6.33963e-15 0.00334489
2.71051e-20 -0.0134291 0.0013211 0.00334476
0 0.0134291 0.00132111 0.00346307
8.47033e-22 0.0134987 6.9958e-06 0.00346319
0 -0.0134988 6.99781e-06 0.00334489
0 0.0135005 6.30778e-15 0.00346319
0 -0.0135006 6.29214e-15 0.00334489
0 -0.0134156 0.00209107 0.00334483
0 0.0134157 0.0020911 0.00346289
2.71051e-20 -0.0131946 0.00340701 0.00334459
0 0.0131948 0.0034071 0.00346324
-2.71051e-20 -0.0133762 0.00281985 0.00334477
0 0.0133763 0.0028199 0.00346288
0 -0.0131543 0.00373939 0.00334452
-6.77626e-21 0.0131545 0.0037395 0.00346325
0 -0.0132115 0.00367305 0.00334452
0 0.0132117 0.00367316 0.00346326
0 0.0137224 0.000302335 0.00346312
2.71051e-20 -0.0137225 0.000302334 0.00334497
0 -0.0132141 0.00377085 0.00334457
1.35525e-20 0.0132143 0.00377095 0.00346315
-3.95282e-22 -0.0137748 0.000790615 0.00334479
5.64689e-22 0.0137748 0.00079062 0.00346314
0 -0.0132699 0.00380392 0.00334447
1.35525e-20 0.0132701 0.00380403 0.00346326
1.35525e-20 -0.0133033 0.0037381 0.00334447
0 0.0133034 0.00373821 0.00346327
-4.23516e-22 0.013766 0.00148274 0.00346304
0 -0.013766 0.00148307 0.00334476
0 0.0137616 0.00166835 0.00346302
-2.11758e-22 -0.0137615 0.00167294 0.00334476
0 -0.0137168 0.00245604 0.00334479
0 0.0137169 0.00245607 0.00346292
4.51751e-22 -0.0136289 0.00324654 0.00334465
1.35525e-21 0.013629 0.0032466 0.00346306
-2.71051e-20 -0.0135494 0.00365539 0.0033444
0 0.0135495 0.00365548 0.00346334
0 0.0140721 1.55615e-05 0.00346335
-1.69407e-21 -0.0140722 1.55722e-05 0.00334475
-1.69407e-21 0.0140756 -2.0176e-16 0.00346335
-1.69407e-21 -0.0140757 -2.01911e-16 0.00334475
3.38813e-21 0.0140911 -3.05359e-16 0.00346336
3.38813e-21 -0.0140912 -3.0516e-16 0.00334474
0 0.0141007 2.20372e-05 0.00346338
0 -0.0141008 2.20525e-05 0.00334472
0 0.0141074 -2.98024e-16 0.00346338
0 -0.0141076 -2.97827e-16 0.00334472
0 -0.0135544 0.00397426 0.00334453
6.77626e-21 0.0135546 0.00397437 0.00346311
2.11758e-22 -0.0140341 0.00165404 0.00334473
0 0.0140347 0.00165401 0.00346305
-6.77626e-21 -0.0135849 0.0039369 0.00334453
6.77626e-21 0.0135851 0.00393701 0.00346311
0 -0.0135876 0.00399408 0.0033446
0 0.0135878 0.00399419 0.003463
0 -0.0141246 0.00121981 0.0033447
2.71051e-20 0.0141246 0.00121982 0.00346313
0 -0.0136161 0.00401529 0.00334463
6.77626e-21 0.0136163 0.00401538 0.00346297
-6.77626e-21 -0.013638 0.00398927 0.00334462
6.77626e-21 0.0136382 0.00398937 0.00346298
0 -0.0140719 0.00204106 0.00334474
-2.71051e-20 0.014072 0.00204107 0.00346297
-2.71051e-20 0.0142772 0.000421914 0.0034636
-5.42101e-20 -0.0142772 0.000421919 0.00334451
-2.71051e-20 -0.0140129 0.00281709 0.0033448
0 0.014013 0.00281713 0.00346294
7.52918e-22 -0.0138313 0.00369716 0.00334461
2.63521e-21 0.0138314 0.00369723 0.00346301
5.42101e-20 -0.0140444 0.00346029 0.00334467
-2.71051e-20 0.0140445 0.00346035 0.00346293
-2.71051e-20 -0.0139247 0.00394753 0.00334473
2.71051e-20 0.0139249 0.0039476 0.00346279
4.23516e-22 -0.0144296 0.00162635 0.00334469
0 0.0144296 0.00162637 0.00346311
-1.18585e-20 -0.0144358 0.00162651 0.00334469
-4.23516e-22 0.0144358 0.00162653 0.00346311
0 0.0144133 0.00187152 0.00346308
-2.11758e-22 -0.0144133 0.00187201 0.0033447
3.38813e-21 -0.0139302 0.00424974 0.00334461
0 0.0139303 0.00424982 0.00346299
-8.47033e-22 0.0145459 0.000829514 0.00346338
-5.64689e-22 -0.0145459 0.000829511 0.0033446
1.41172e-22 -0.0143705 0.00241704 0.00334473
1.41172e-22 0.0143705 0.00241706 0.003463
0 -0.0139467 0.00423388 0.00334461
-3.38813e-21 0.0139468 0.00423397 0.003463
-3.38813e-21 -0.0139493 0.00426393 0.00334459
3.38813e-21 0.0139494 0.00426401 0.00346303
3.38813e-21 -0.0139673 0.00427743 0.00334459
-3.38813e-21 0.0139673 0.0042775 0.00346305
3.38813e-21 -0.0139799 0.00425949 0.00334459
0 0.01398 0.00425956 0.00346305
-8.47033e-22 -0.0143443 0.0031393 0.00334465
-5.64689e-22 0.0143443 0.00313933 0.00346306
0 -0.0146845 2.609e-05 0.0033446
0 0.0146845 2.60621e-05 0.00346348
0 -0.0146916 -2.56304e-19 0.0033446
-3.38813e-21 0.0146916 -2.5093e-19 0.00346348
0 -0.0147109 8.39779e-18 0.00334462
0 0.0147109 8.40222e-18 0.00346347
0 0.0147271 2.99299e-05 0.00346347
0 -0.0147271 2.99639e-05 0.0033446
0 0.0147301 8.1741e-18 0.00346348
0 -0.0147302 8.16959e-18 0.0033446
-5.64689e-22 -0.0143144 0.00384165 0.00334453
0 0.0143145 0.00384169 0.00346312
0 -0.0147153 0.00202632 0.0033448
0 0.0147153 0.00202633 0.00346291
0 -0.0148123 0.00125345 0.0033445
0 0.0148123 0.00125345 0.00346343
0 -0.0142662 0.00421647 0.00334444
2.71051e-20 0.0142663 0.00421652 0.0034633
2.71051e-20 -0.0146941 0.00275223 0.00334459
2.71051e-20 0.0146941 0.00275225 0.00346317
-2.71051e-20 -0.0149583 0.000465189 0.0033447
0 0.0149583 0.000465188 0.00346334
0 -0.0143128 0.00453664 0.00334457
0 0.0143129 0.00453669 0.00346311
1.69407e-21 -0.0143174 0.0045308 0.00334457
1.69407e-21 0.0143174 0.00453085 0.00346311
0 -0.014319 0.00454125 0.00334457
1.69407e-21 0.014319 0.00454129 0.0034631
0 -0.0143246 0.00454547 0.00334458
1.69407e-21 0.0143246 0.00454551 0.0034631
-1.69407e-21 0.014329 0.00454051 0.0034631
0 -0.014329 0.00454047 0.00334458
-2.71051e-20 -0.0146519 0.00346949 0.00334455
-2.71051e-20 0.014652 0.0034695 0.00346319
-4.23516e-22 -0.0145371 0.00427137 0.00334447
1.77877e-20 0.0145371 0.0042714 0.00346321
-2.82344e-22 -0.0150759 0.00166227 0.00334456
2.82344e-22 0.0150759 0.00166227 0.00346317
2.11758e-21 0.014608 0.00429795 0.00346321
0 -0.0146083 0.00429801 0.00334448
5.29396e-23 -0.0150582 0.00232574 0.00334459
-5.82335e-22 0.0150586 0.0023257 0.00346308
0 -0.0147146 0.00405696 0.00334427
-2.71051e-20 0.0147147 0.00405699 0.00346337
-1.09055e-20 -0.0151061 0.00232002 0.00334458
3.29284e-20 0.0151053 0.00231903 0.00346309
5.29396e-23 0.015093 0.0024032 0.0034631
1.05879e-22 -0.0150929 0.00240385 0.00334457
-4.23516e-22 0.0145531 0.00471689 0.00346323
0 -0.0145535 0.00471718 0.00334442
-8.47033e-22 -0.0149812 0.00311066 0.00334451
1.86347e-20 0.0149812 0.00311067 0.00346322
0 -0.0149884 0.00311083 0.00334451
0 0.0149808 0.0031189 0.00346322
0 -0.0146393 0.00452217 0.00334468
8.13152e-20 0.0146393 0.0045222 0.00346295
0 -0.0153521 2.62972e-05 0.00334461
0 0.0153522 2.62884e-05 0.0034633
0 -0.0153541 1.06034e-19 0.00334461
0 0.0153541 1.06058e-19 0.0034633
0 -0.0153336 0.000981682 0.00334451
0 0.0153336 0.000981685 0.00346329
-3.38813e-21 -0.015371 -9.43422e-20 0.00334463
0 0.015371 -9.43934e-20 0.00346328
-3.38813e-21 0.0153889 1.38802e-05 0.00346328
0 -0.0153889 1.38836e-05 0.00334462
0 0.0153893 -9.17904e-20 0.00346328
0 -0.0153893 -9.17397e-20 0.00334462
8.47033e-22 0.0146775 0.00480516 0.0034633
0 -0.0146713 0.00480158 0.00334434
1.37643e-20 -0.0149797 0.00377544 0.00334432
2.41404e-20 0.0149766 0.00377563 0.00346339
0 0.0149779 0.00383386 0.00346338
0 -0.0149779 0.00383404 0.00334434
-5.42101e-20 -0.0153191 0.00276241 0.00334452
0 0.0153191 0.00276241 0.00346316
0 -0.0149757 0.00442242 0.00334456
4.51751e-22 0.0149757 0.00442244 0.00346324
0 -0.0152934 0.00343579 0.00334437
0 0.0152934 0.0034358 0.00346334
2.71051e-20 -0.0149462 0.00476533 0.00334395
-2.71051e-20 0.0149462 0.00476535 0.00346367
0 0.0157071 0.0017387 0.00346313
0 -0.0157071 0.00173869 0.00334428
5.42101e-20 -0.0152785 0.0040944 0.00334407
2.71051e-20 0.0152785 0.00409441 0.00346365
0 -0.014998 0.00505067 0.00334402
0 0.0149981 0.00505067 0.00346372
0 -0.0150083 0.00502931 0.00334401
0 0.0150084 0.0050293 0.00346372
1.48231e-20 -0.0156565 0.00240913 0.00334443
2.11758e-22 0.0156565 0.00240914 0.00346337
0 -0.0150173 0.00506515 0.00334409
0 0.0150174 0.00506516 0.00346371
-2.11758e-22 0.015642 0.00267527 0.00346338
4.23516e-22 -0.015642 0.00267555 0.00334449
0 -0.0150364 0.00507946 0.00334398
-3.38813e-21 0.0150365 0.00507948 0.00346376
-3.38813e-21 -0.0150495 0.00506281 0.00334398
0 0.0150496 0.00506282 0.00346377
-5.42101e-20 0.015871 0.000522609 0.00346318
0 -0.0158711 0.00052261 0.00334446
4.23516e-22 -0.0156193 0.00309416 0.00334458
-6.35275e-21 0.0156198 0.00308833 0.00346339
0 -0.0151805 0.0048173 0.0033446
0 0.0151805 0.00481731 0.00346335
0 -0.0153242 0.00462128 0.00334586
0 0.0153242 0.00462129 0.0034625
1.41172e-22 -0.0155928 0.00376523 0.0033444
0 0.0155928 0.00376524 0.00346353
0 -0.0152849 0.0050422 0.00334399
2.71051e-20 0.0152849 0.0050422 0.00346386
0 -0.015956 0.00273569 0.00334445
0 0.015956 0.0027357 0.00346369
1.41172e-22 -0.0156111 0.00436319 0.00334451
-1.05879e-22 0.0156111 0.00436316 0.00346355
1.05879e-22 0.01536 0.00532139 0.00346392
1.05879e-22 -0.015359 0.00532072 0.00334443
0 -0.0159107 0.00341804 0.00334497
-5.42101e-20 0.0159107 0.00341805 0.00346338
0 -0.0153751 0.00533351 0.00334444
-1.37643e-21 0.0153755 0.00533381 0.00346395
0 0.0155376 0.00491087 0.00346367
5.64689e-22 -0.0155376 0.00491087 0.00334463
2.71051e-20 -0.015907 0.00407427 0.00334423
2.71051e-20 0.015907 0.00407427 0.00346374
5.64689e-22 0.0163929 0.00113505 0.00346306
-2.82344e-22 -0.0163929 0.00113505 0.00334429
-1.69407e-21 -0.0164714 7.31733e-06 0.00334434
1.69407e-21 0.0164714 7.30933e-06 0.00346305
-1.69407e-21 -0.0164715 3.37846e-21 0.00334434
0 0.0164715 3.38103e-21 0.00346305
0 -0.0164799 3.92497e-21 0.00334433
0 0.0164799 3.92783e-21 0.00346305
0 0.0164875 7.98174e-06 0.00346305
0 -0.0164875 7.99057e-06 0.00334433
0 0.0164879 3.93933e-21 0.00346305
0 -0.0164879 3.93667e-21 0.00334433
-2.82344e-22 0.0162419 0.00306677 0.0034635
2.82344e-22 -0.0162419 0.00306677 0.00334466
0 -0.0163552 0.00243067 0.00334441
0 0.0163553 0.00243041 0.00346337
-3.17637e-22 -0.0163771 0.00230866 0.00334437
-1.56701e-20 0.0163771 0.00230868 0.00346334
2.71051e-20 -0.0156952 0.00522881 0.00334479
2.71051e-20 0.0156952 0.00522881 0.00346408
2.71051e-20 -0.0158708 0.00471773 0.00334399
2.71051e-20 0.0158708 0.00471773 0.00346423
1.69407e-21 -0.0156945 0.00557308 0.00334459
0 0.0156945 0.00557309 0.00346447
1.69407e-21 -0.0157031 0.00556196 0.00334458
1.69407e-21 0.0157031 0.00556198 0.00346447
0 -0.0157032 0.00557964 0.00334455
-3.38813e-21 0.0157032 0.00557964 0.0034645
-1.69407e-21 0.0157125 0.0055866 0.00346452
0 -0.0157125 0.00558661 0.00334454
1.69407e-21 0.0157204 0.00557597 0.00346452
0 -0.0157205 0.00557597 0.00334454
-2.82344e-22 -0.0163001 0.00366347 0.00334458
-2.82344e-22 0.0163001 0.00366347 0.00346364
7.05861e-22 0.0161921 0.00441855 0.00346406
2.82344e-22 -0.0161921 0.00441855 0.00334431
-1.41172e-22 -0.0161069 0.00511691 0.00334438
-4.23516e-22 0.0161069 0.00511691 0.00346447
-5.42101e-20 0.01604 0.00551404 0.00346497
5.42101e-20 -0.01604 0.00551404 0.00334427
2.71051e-20 -0.016526 0.00408753 0.00334448
0 0.016526 0.00408753 0.003464
0 0.0170249 0.000578089 0.00346291
-1.0842e-19 -0.0170249 0.000578088 0.00334421
5.42101e-20 0.0169748 0.00175444 0.003463
-5.42101e-20 -0.0169748 0.00175444 0.0033442
0 -0.0160444 0.00583567 0.00334472
0 0.0160444 0.00583566 0.00346475
3.38813e-21 -0.0160574 0.00581994 0.00334472
0 0.0160574 0.00581994 0.00346476
0 0.0160586 0.00584628 0.00346474
0 -0.0160586 0.00584629 0.00334475
-3.38813e-21 0.0160728 0.00585689 0.00346472
3.38813e-21 -0.0160728 0.00585691 0.00334477
-3.38813e-21 0.0160861 0.00584361 0.00346473
0 -0.0160861 0.00584362 0.00334477
0 -0.0168748 0.00305299 0.0033445
0 0.0168748 0.003053 0.00346335
-2.71051e-20 -0.0164851 0.00475809 0.00334456
0 0.0164851 0.00475809 0.00346427
-7.52918e-22 0.0163205 0.005565 0.00346481
-3.76459e-22 -0.0163205 0.00556501 0.00334458
4.70574e-22 0.0168571 0.00373388 0.00346376
0 -0.0168571 0.00373388 0.00334362
0 -0.0165295 0.00534686 0.00334424
-2.71051e-20 0.0165295 0.00534686 0.00346492
0 -0.0168299 0.0044115 0.00334364
-1.41172e-22 0.0168299 0.0044115 0.00346416
2.71051e-20 0.0164078 0.00581578 0.00346455
-2.71051e-20 -0.0164078 0.00581579 0.0033452
3.38813e-21 -0.0163998 0.00610069 0.00334479
0 0.0163998 0.00610068 0.0034652
0 0.0164127 0.00608898 0.0034652
0 -0.0164127 0.00608898 0.00334479
0 0.0164129 0.00611042 0.00346526
-3.38813e-21 -0.0164129 0.00611043 0.00334476
0 0.016425 0.00612105 0.00346531
0 -0.016425 0.00612106 0.00334472
0 0.0164353 0.00610824 0.00346531
0 -0.0164353 0.00610825 0.00334472
4.23516e-22 -0.0168163 0.00505861 0.00334426
2.82344e-22 0.0168163 0.00505861 0.00346471
0 0.0176265 -3.90467e-24 0.00346253
0 -0.0176215 4.77654e-06 0.00334421
0 -0.0176314 -3.86189e-24 0.00334421
0 0.0176313 4.81267e-06 0.00346253
0 0.0175955 0.00115783 0.00346259
-5.64689e-22 -0.0175956 0.00115783 0.00334427
0 -0.017176 0.0040533 0.0033423
-2.71051e-20 0.017176 0.0040533 0.00346378
3.64224e-20 -0.0175451 0.00239265 0.00334442
-2.03288e-20 0.0175451 0.00239266 0.00346288
-2.03288e-20 -0.017553 0.00239273 0.00334442
8.47033e-22 0.017553 0.00239274 0.00346288
6.77626e-22 -0.016789 0.00571973 0.00334466
0 0.016789 0.00571973 0.00346532
2.71051e-20 -0.0171455 0.00472285 0.0033432
0 0.0171455 0.00472285 0.00346458
-2.71051e-20 0.0167243 0.00608098 0.003466
0 -0.0167243 0.00608098 0.00334431
0 -0.0175066 0.00343165 0.00334357
-1.05879e-22 0.0175066 0.00343176 0.00346347
0 -0.0175024 0.00354592 0.00334348
0 0.0175015 0.00354591 0.00346354
0 -0.0167347 0.00638838 0.00334497
3.38813e-21 0.0167347 0.00638838 0.00346585
0 -0.0167445 0.00637729 0.00334498
0 0.0167445 0.0063773 0.00346586
-3.38813e-21 -0.0167456 0.00639795 0.00334502
0 0.0167456 0.00639795 0.00346585
3.17637e-22 0.0175745 0.00356409 0.0034635
0 -0.0175746 0.00356411 0.00334358
3.38813e-21 0.0167557 0.00640831 0.00346583
0 -0.0167557 0.00640832 0.00334507
0 0.0167665 0.00639832 0.00346584
3.38813e-21 -0.0167665 0.00639832 0.00334507
0 0.017128 0.00537448 0.00346505
-2.71051e-20 -0.017128 0.00537448 0.00334498
2.11758e-22 -0.0174755 0.00437875 0.00334347
-1.94818e-20 0.0174716 0.00437888 0.00346417
7.52918e-22 -0.0169872 0.00615002 0.00334488
1.31761e-21 0.0169872 0.00615002 0.00346592
0 -0.0174538 0.00503866 0.00334465
-2.6258e-20 0.0174538 0.00503866 0.00346487
-2.71051e-20 0.0171853 0.00594727 0.00346604
-2.71051e-20 -0.0171853 0.00594727 0.0033446
0 0.0182056 0.00058276 0.00346215
5.42101e-20 -0.0182056 0.000582758 0.00334421
-2.71051e-20 0.0170678 0.00640561 0.00346572
-5.42101e-20 -0.0170678 0.00640561 0.00334573
0 -0.0177914 0.004032 0.00334329
-2.71051e-20 0.0177914 0.004032 0.00346381
1.0842e-19 0.018185 0.00177763 0.0034623
5.42101e-20 -0.018185 0.00177763 0.00334446
0 -0.0170411 0.00670226 0.00334519
-3.38813e-21 0.0170411 0.00670226 0.00346619
-3.38813e-21 -0.0170521 0.00669292 0.00334519
0 0.0170521 0.00669292 0.0034662
0 -0.017051 0.00671245 0.00334516
0 0.017051 0.00671244 0.00346623
0 0.0170609 0.00672261 0.00346626
3.38813e-21 -0.0170609 0.00672262 0.00334512
-3.38813e-21 0.0170703 0.0067113 0.00346626
0 -0.0170703 0.0067113 0.00334512
4.23516e-22 -0.0174549 0.00566696 0.00334514
-8.89385e-21 0.0174549 0.00566696 0.0034656
4.23516e-22 -0.0174621 0.00566666 0.00334514
-8.04681e-21 0.0174555 0.00567336 0.00346561
0 -0.0177854 0.00469986 0.00334507
-2.71051e-20 0.0177854 0.00469986 0.00346452
-5.42101e-20 -0.0181697 0.0030568 0.00334454
-5.42101e-20 0.0181697 0.0030568 0.00346291
-4.23516e-22 0.0181311 0.00370549 0.00346319
0 -0.0181311 0.00370549 0.00334433
0 0.0181352 0.00369814 0.00346319
0 -0.0181386 0.00370544 0.00334436
3.38813e-22 -0.0174312 0.00632674 0.00334516
-6.77626e-22 0.0174312 0.00632674 0.00346627
-2.71051e-20 -0.0177791 0.00534408 0.00334537
-5.42101e-20 0.0177791 0.00534408 0.00346532
2.71051e-20 0.0173547 0.00669604 0.00346677
-2.71051e-20 -0.0173547 0.00669604 0.00334458
2.64698e-23 -0.0181107 0.00435384 0.00334518
4.63221e-23 0.0181107 0.00435393 0.00346386
6.61744e-24 -0.0181104 0.00436061 0.00334519
0 0.0181104 0.00436061 0.00346387
-1.19114e-22 0.0181186 0.00436044 0.00346386
0 -0.0181187 0.00436044 0.00334521
0 -0.017346 0.00701596 0.00334538
0 0.017346 0.00701596 0.00346658
0 -0.017356 0.00700506 0.00334538
-3.38813e-21 0.017356 0.00700507 0.00346658
0 -0.017356 0.0070262 0.00334544
-3.38813e-21 0.017356 0.0070262 0.00346657
3.38813e-21 0.017366 0.00703645 0.00346656
0 -0.017366 0.00703645 0.00334549
0 0.0173769 0.00702633 0.00346656
3.38813e-21 -0.0173769 0.00702633 0.00334549
-2.71051e-20 -0.0177656 0.00598778 0.00334566
0 0.0177656 0.00598778 0.00346596
-2.64698e-23 -0.0181027 0.00501244 0.00334621
-1.74436e-20 0.0181027 0.00501244 0.00346471
-4.23516e-22 0.018806 3.41759e-06 0.00346175
-4.23516e-22 -0.018799 3.40478e-06 0.00334444
0 0.0187936 0.00116588 0.00346191
2.82344e-22 -0.0187936 0.00116588 0.00334454
7.94093e-23 0.0181603 0.0050047 0.00346466
0 -0.0181605 0.00500468 0.00334627
0 0.0176114 0.00676943 0.00346667
5.64689e-22 -0.0176114 0.00676944 0.00334537
-2.71051e-20 -0.0184458 0.00401954 0.00334526
5.42101e-20 0.0184458 0.00401954 0.00346276
-8.47033e-22 0.0187881 0.00239454 0.00346234
0 -0.0187881 0.00239454 0.00334483
0 -0.0180927 0.00565812 0.00334595
-3.16314e-20 0.0180923 0.0056577 0.0034655
0 -0.017813 0.00656607 0.00334524
0 0.017813 0.00656607 0.00346685
-2.71051e-20 0.018419 0.0046774 0.00346436
-2.71051e-20 -0.018419 0.0046774 0.0033471
2.64698e-23 0.0181646 0.00565621 0.00346544
0 -0.018165 0.0056562 0.00334596
2.71051e-20 0.0176826 0.00702997 0.0034664
-2.71051e-20 -0.0176826 0.00702997 0.00334629
3.38813e-21 -0.0176504 0.0073291 0.00334558
-3.38813e-21 0.0176504 0.0073291 0.00346665
0 -0.0176622 0.00731917 0.00334558
0 0.0176622 0.00731917 0.00346665
0 -0.0176607 0.00733968 0.00334552
3.38813e-21 0.0176607 0.00733968 0.00346667
0 0.017671 0.0073503 0.00346668
0 -0.017671 0.0073503 0.00334547
3.38813e-21 0.0176811 0.0073384 0.00346668
0 -0.0176811 0.0073384 0.00334547
0 -0.0180849 0.00628831 0.00334562
-9.74088e-21 0.0180849 0.00628831 0.00346628
0 0.0184318 0.00531284 0.00346466
0 -0.0184318 0.00531284 0.00334728
-2.82344e-22 0.0188513 0.00360407 0.00346264
7.05861e-22 -0.0188513 0.00360407 0.00334573
4.23516e-22 0.018748 0.00434753 0.0034633
5.0822e-21 -0.0187481 0.00434155 0.00334658
-4.51751e-22 0.0180499 0.006951 0.00346674
7.90564e-22 -0.0180499 0.006951 0.00334555
0 -0.0184073 0.00596812 0.00334552
2.71051e-20 0.0184073 0.00596812 0.00346601
2.71051e-20 -0.0179676 0.00732197 0.00334475
0 0.0179676 0.00732197 0.00346696
0 -0.0193955 0.00058428 0.00334467
0 0.0193955 0.00058428 0.00346136
0 0.018826 0.00491014 0.00346411
4.23516e-22 -0.0188202 0.00491059 0.00334693
5.42101e-20 -0.0193971 0.00177916 0.00334484
5.42101e-20 0.0193971 0.00177916 0.00346183
0 -0.0179547 0.00764207 0.0033457
0 0.0179547 0.00764207 0.00346672
-3.38813e-21 -0.0179658 0.00763011 0.0033457
0 0.0179658 0.00763011 0.00346672
0 -0.0179656 0.00765323 0.00334578
0 0.0179656 0.00765323 0.0034667
0 -0.0183868 0.00661376 0.00334608
-5.42101e-20 0.0183868 0.00661376 0.00346625
0 0.0179765 0.00766446 0.00346668
0 -0.0179765 0.00766446 0.00334585
0 0.0179886 0.00765336 0.00346668
0 -0.0179886 0.00765336 0.00334585
2.11758e-22 0.0187345 0.00564446 0.00346497
0 -0.0187313 0.00564103 0.00334603
0 -0.0194124 0.00301785 0.00334551
-5.42101e-20 0.0194124 0.00301785 0.00346232
-5.29396e-23 0.0186153 0.00628803 0.00346587
-5.29396e-23 -0.0186155 0.00628803 0.00334569
-7.52918e-22 0.0182255 0.00739575 0.00346688
7.52918e-22 -0.0182255 0.00739575 0.00334566
-5.29396e-23 0.0187129 0.00628799 0.00346579
0 -0.0187121 0.00628723 0.00334571
-1.05879e-22 -0.0187119 0.00636687 0.00334574
-5.29396e-23 0.0187119 0.00636701 0.00346587
2.71051e-20 0.0184304 0.00719208 0.0034672
-5.42101e-20 -0.0184305 0.00719208 0.00334543
0 -0.0190561 0.00532095 0.0033459
2.71051e-20 0.0190561 0.00532095 0.00346426
0 0.0182948 0.00765678 0.00346647
-2.71051e-20 -0.0182948 0.00765678 0.00334679
0 -0.0193887 0.00432607 0.00334799
-5.42101e-20 0.0193887 0.00432607 0.0034625
-3.38813e-21 -0.0182591 0.0079553 0.00334596
0 0.0182591 0.0079553 0.00346636
0 0.0182726 0.00794412 0.00346636
-3.38813e-21 -0.0182726 0.00794412 0.00334595
0 -0.0182707 0.00796722 0.00334589
0 0.0182707 0.00796722 0.00346635
4.23516e-22 -0.0187103 0.00691346 0.00334598
-8.47033e-22 0.0187051 0.00691855 0.00346637
0 0.0182824 0.00797922 0.00346634
0 -0.0182824 0.00797922 0.00334581
2.71051e-20 -0.0190408 0.00595799 0.00334536
-2.71051e-20 0.0190408 0.00595799 0.00346496
0 0.0182938 0.0079658 0.00346634
0 -0.0182938 0.0079658 0.00334582
4.23516e-22 0.019989 2.63232e-06 0.00346097
0 -0.0199836 2.63489e-06 0.00334492
0 0.0193748 0.00498849 0.00346241
3.38813e-21 -0.0193748 0.00498849 0.00334768
0 0.0193837 0.0049883 0.00346237
6.77626e-21 -0.0193837 0.0049883 0.00334777
4.23516e-22 0.0199938 0.00116195 0.00346122
-8.47033e-22 -0.0199939 0.00116196 0.00334498