# p  POINT_DATA 63583
# x  y  z  p
2.65631e-06 2.35746e-23 0.049924 0.00264903
-0.000624384 -1.05879e-22 0.0499244 0.00264925
0.000625562 -1.05879e-22 0.0499244 0.00264892
-0.00124876 2.11758e-22 0.0499248 0.00264959
0.00125112 0 0.0499248 0.00264888
-0.00187315 -2.11758e-22 0.0499251 0.00264995
0.00187665 -2.11758e-22 0.0499251 0.00264896
-0.00249754 0 0.0499255 0.0026502
0.00250214 4.23516e-22 0.0499255 0.00264913
-0.00312195 -4.23516e-22 0.0499258 0.00265028
0.00312761 4.23516e-22 0.0499258 0.00264925
-0.00374636 0 0.0499262 0.00265013
0.00375304 0 0.0499262 0.00264922
-0.00437076 0 0.0499265 0.0026498
0.0043785 0 0.0499265 0.00264902
0.000312485 -2.71051e-20 0.0501277 0.00264887
-0.000312486 2.71051e-20 0.0501277 0.00264919
-0.000937479 0 0.0501277 0.0026493
0.000937478 2.71051e-20 0.0501277 0.00264897
0.00156244 0 0.0501276 0.00264879
-0.00156244 2.71051e-20 0.0501276 0.00264988
0.005004 0 0.0499269 0.00264867
-0.00499514 -8.47033e-22 0.0499269 0.0026493
-0.00218741 2.71051e-20 0.0501276 0.00265002
0.00218741 -2.71051e-20 0.0501276 0.00264913
-0.00281234 0 0.0501275 0.00265038
0.00281234 0 0.0501275 0.00264914
0.00562955 0 0.0499273 0.00264818
-0.00561949 8.47033e-22 0.0499273 0.0026488
-0.00343728 -2.71051e-20 0.0501275 0.00265018
0.00343728 -2.71051e-20 0.0501275 0.00264935
-0.00406221 -2.71051e-20 0.0501274 0.00265009
0.00406221 0 0.0501274 0.0026491
0.00625515 0 0.0499277 0.00264762
-0.00624382 -8.47033e-22 0.0499277 0.00264842
5.5543e-12 1.03398e-25 0.0503316 0.00264995
-0.000625384 0 0.0503318 0.0026502
0.00062461 4.8175e-21 0.0503318 0.0026498
0.00468714 5.42101e-20 0.0501273 0.00264894
-0.00468714 0 0.0501273 0.00264952
-0.00125075 0 0.0503321 0.00265056
0.00124923 -1.79995e-21 0.0503321 0.00264973
-0.00187385 0 0.0503322 0.00265094
0.00187385 1.12232e-20 0.0503322 0.00264978
-0.00249847 -2.11758e-22 0.0503325 0.00265122
0.00249847 1.10114e-20 0.0503325 0.00264991
0.00686815 0 0.0499281 0.00264704
-0.00686815 -8.47033e-22 0.0499281 0.00264811
0.00687445 -8.47033e-22 0.049924 0.00264702
-0.00687445 0 0.049924 0.00264809
-0.00688078 8.47033e-22 0.0499281 0.0026481
0.00688078 0 0.0499281 0.00264703
0.00531209 -2.71051e-20 0.0501273 0.00264839
-0.00531209 0 0.0501273 0.00264909
-0.00312312 0 0.0503326 0.00265133
0.00312312 2.22346e-20 0.0503326 0.00264999
-0.00374776 0 0.0503327 0.00265121
0.00374776 3.09167e-20 0.0503327 0.00264994
0.00593706 0 0.0501272 0.00264797
-0.00593706 0 0.0501272 0.00264852
0.00749248 8.47033e-22 0.0499285 0.00264643
-0.00749248 -8.47033e-22 0.0499285 0.00264779
0.00749944 8.47033e-22 0.049924 0.0026464
-0.00749944 -8.47033e-22 0.049924 0.00264777
-0.00750642 0 0.0499285 0.00264778
0.00750642 8.47033e-22 0.0499285 0.00264641
-0.00437717 -4.23516e-22 0.0503328 0.00265091
0.00437239 -4.23516e-22 0.0503328 0.00264971
0.00656203 0 0.0501272 0.00264726
-0.00656203 -2.71051e-20 0.0501272 0.00264834
0.000312514 0 0.0505592 0.00265056
-0.000312515 0 0.0505592 0.00265122
0.000937509 0 0.0505592 0.00265085
-0.000937509 -5.42101e-20 0.0505592 0.00265112
0.00499701 1.65171e-20 0.050333 0.00264933
-0.00499701 0 0.050333 0.00265045
0.0081168 -8.47033e-22 0.0499289 0.00264574
-0.0081168 0 0.0499289 0.00264773
0.00812442 -8.47033e-22 0.049924 0.0026457
-0.00812442 8.47033e-22 0.049924 0.00264772
-0.00813207 0 0.0499289 0.00264773
0.00813207 -8.47033e-22 0.0499289 0.00264571
-0.00156252 2.71051e-20 0.0505591 0.00265199
0.00156252 2.71051e-20 0.0505591 0.00265036
-0.00218749 0 0.050559 0.00265192
0.00218749 0 0.050559 0.00265088
-0.00281247 -5.42101e-20 0.0505589 0.0026526
0.00281247 -2.71051e-20 0.0505589 0.00265054
0.00718702 0 0.0501271 0.0026468
-0.00718702 2.71051e-20 0.0501271 0.00264788
0.00562156 -4.23516e-22 0.0503288 0.00264881
-0.00562156 -4.23516e-22 0.0503288 0.00264997
0.0056216 1.69407e-21 0.0503331 0.00264881
-0.0056278 0 0.0503331 0.00264998
-0.00343743 -2.71051e-20 0.0505588 0.0026522
0.00343743 0 0.0505588 0.00265096
0.0087411 -1.69407e-21 0.0499294 0.0026452
-0.0087411 0 0.0499294 0.00264797
-0.00874939 1.69407e-21 0.049924 0.00264799
0.00874939 0 0.049924 0.00264517
-0.00875772 0 0.0499294 0.00264798
0.00875772 -1.69407e-21 0.0499294 0.00264519
0.00624613 -4.23516e-22 0.0503286 0.00264822
-0.00624613 0 0.0503286 0.00264961
0.00624618 1.77877e-20 0.0503334 0.00264821
-0.00624618 -4.23516e-22 0.0503334 0.00264962
-0.00406239 5.42101e-20 0.0505587 0.00265242
0.00406239 -2.71051e-20 0.0505587 0.0026504
0.00781202 2.71051e-20 0.0501269 0.00264603
-0.00781202 -2.71051e-20 0.0501269 0.0026477
0.00468734 0 0.0505585 0.00265043
-0.00468734 2.71051e-20 0.0505585 0.00265167
-3.81844e-10 2.58494e-26 0.0507876 0.00265559
-0.000625172 0 0.0507875 0.00265593
0.000624854 0 0.0507875 0.00265535
0.00936537 0 0.0499298 0.00264503
-0.00936537 0 0.0499298 0.00264818
0.00687069 0 0.0503282 0.00264759
-0.00687069 0 0.0503282 0.0026493
0.00687075 -1.43996e-20 0.0503336 0.00264759
-0.00687859 0 0.0503336 0.00264931
-0.00937433 0 0.049924 0.0026482
0.00937433 0 0.049924 0.002645
-0.00938332 0 0.0499298 0.00264818
0.00938332 1.69407e-21 0.0499298 0.00264504
-0.00124972 0 0.0507878 0.00265636
0.00124971 -1.10114e-20 0.0507873 0.0026552
-0.00187545 -5.29396e-23 0.0507879 0.00265681
0.00187459 -1.12761e-20 0.0507879 0.00265515
0.008437 0 0.0501268 0.00264541
-0.008437 0 0.0501268 0.00264777
0.00531231 2.71051e-20 0.0505584 0.00264958
-0.00531231 2.71051e-20 0.0505584 0.00265156
-0.00250054 0 0.0507878 0.00265717
0.00249948 1.75759e-20 0.0507878 0.00265518
0.00749529 0 0.0503277 0.00264694
-0.00749529 0 0.0503277 0.002649
-0.00312436 0 0.0507868 0.00265737
0.00312436 -1.99053e-20 0.0507868 0.00265517
0.00749536 -1.77877e-20 0.0503337 0.00264694
-0.00749536 8.47033e-22 0.0503337 0.00264902
0.00593728 2.71051e-20 0.0505582 0.00264934
-0.00593728 -5.42101e-20 0.0505582 0.00265081
0.00998957 0 0.049924 0.00264501
-0.00998957 0 0.049924 0.00264817
-0.00999924 0 0.049924 0.00264821
0.00999924 0 0.049924 0.00264497
-0.0100089 0 0.049924 0.00264817
0.0100089 0 0.049924 0.002645
-0.00998963 0 0.0499302 0.00264817
0.00998963 0 0.0499302 0.00264501
-0.0100089 0 0.0499302 0.00264817
0.0100089 1.69407e-21 0.0499302 0.002645
-0.00375066 0 0.0507878 0.00265736
0.00374926 -1.15408e-20 0.0507878 0.00265505
-0.00906196 2.71051e-20 0.0501265 0.0026482
0.00906196 -2.71051e-20 0.0501265 0.00264498
0.00437414 8.47033e-21 0.0507865 0.00265476
-0.00437574 1.05879e-22 0.0507865 0.00265719
0.0081199 0 0.0503273 0.00264623
-0.0081199 0 0.0503273 0.00264898
0.00811999 1.10114e-20 0.0503338 0.00264622
-0.00812944 8.47033e-22 0.0503338 0.00264901
0.00656228 0 0.0505581 0.00264832
-0.00656228 -5.42101e-20 0.0505581 0.00265087
0.00499902 -2.44581e-20 0.0507877 0.00265432
-0.0050008 1.05879e-22 0.0507877 0.00265687
0.0106139 1.69407e-21 0.049924 0.0026449
-0.0106139 1.69407e-21 0.049924 0.00264791
-0.0106242 0 0.049924 0.00264796
0.0106242 -1.69407e-21 0.049924 0.00264485
-0.0106345 0 0.049924 0.00264789
0.0106345 0 0.049924 0.00264489
-0.010614 -1.69407e-21 0.0499306 0.00264791
0.010614 1.69407e-21 0.0499306 0.0026449
-0.0106345 -1.69407e-21 0.0499306 0.00264789
0.0106345 1.69407e-21 0.0499306 0.00264489
-0.000312504 0 0.0510505 0.00266167
0.000312504 0 0.0510505 0.00265925
-0.0096869 0 0.0501262 0.00264818
0.0096869 -5.42101e-20 0.0501262 0.00264509
-0.00093753 0 0.0510505 0.00266005
0.00093753 2.71051e-20 0.0510505 0.00266106
0.0071873 0 0.0505579 0.00264802
-0.0071873 2.71051e-20 0.0505579 0.0026502
-0.00156254 2.71051e-20 0.0510504 0.00266262
0.00156254 0 0.0510504 0.00265885
-0.00874971 0 0.0503302 0.00264931
0.00874971 1.41172e-22 0.0503302 0.00264567
0.00562387 -2.30816e-20 0.0507861 0.00265373
-0.00562591 -2.11758e-22 0.0507861 0.00265657
-0.00218754 0 0.0510504 0.00266104
0.00218754 5.42101e-20 0.0510504 0.00266084
-0.00281254 5.42101e-20 0.0510503 0.00266345
0.00281254 2.71051e-20 0.0510503 0.00265876
0.00781234 2.71051e-20 0.0505576 0.00264693
-0.00781234 -2.71051e-20 0.0505576 0.00265034
-0.00343751 0 0.0510501 0.00266156
0.00343751 5.42101e-20 0.0510501 0.00266073
0.00624873 -4.02341e-21 0.0507877 0.00265309
-0.00624871 0 0.0507858 0.00265634
0.0112381 0 0.049924 0.00264461
-0.0112381 -1.69407e-21 0.049924 0.00264734
0.0103118 0 0.0501259 0.00264491
-0.0103118 0 0.0501259 0.00264817
-0.0112491 0 0.049924 0.00264741
0.0112491 0 0.049924 0.00264455
-0.0112601 0 0.049924 0.00264731
0.0112601 0 0.049924 0.00264459
-0.0112382 -1.69407e-21 0.049931 0.00264734
0.0112382 -1.69407e-21 0.049931 0.00264461
-0.01126 -1.69407e-21 0.049931 0.00264731
0.01126 -1.69407e-21 0.049931 0.00264459
0.00937469 -1.41172e-22 0.0503298 0.00264546
-0.00937469 -5.64689e-22 0.0503298 0.00264959
0.00406249 -5.42101e-20 0.05105 0.00265841
-0.00406249 2.71051e-20 0.05105 0.00266362
0.00687357 1.54584e-20 0.0507856 0.00265242
-0.00687621 2.11758e-22 0.0507856 0.00265616
0.00843739 0 0.0505573 0.00264655
-0.00843739 -2.71051e-20 0.0505573 0.00265024
0.00468748 -2.71051e-20 0.0510499 0.0026601
-0.00468748 -5.42101e-20 0.0510499 0.00266138
0.0109367 -2.71051e-20 0.0501256 0.00264487
-0.0109367 0 0.0501256 0.00264765
-0.00999964 0 0.0503294 0.00264965
0.00999964 1.41172e-22 0.0503294 0.0026454
0.0118623 0 0.049924 0.00264414
-0.0118623 0 0.049924 0.00264646
-1.40721e-10 0 0.0513142 0.00266978
-0.011874 0 0.049924 0.00264655
0.011874 0 0.049924 0.00264407
-0.000624982 0 0.0513141 0.00267025
0.000625044 -6.44539e-21 0.0513141 0.00266941
-0.0118857 0 0.049924 0.00264641
0.0118857 0 0.049924 0.00264412
-0.0118624 0 0.0499314 0.00264646
0.0118624 0 0.0499314 0.00264414
0.00531245 2.71051e-20 0.0510498 0.00265746
-0.00531245 2.71051e-20 0.0510498 0.00266324
-0.0118856 0 0.0499314 0.00264641
0.0118856 -1.69407e-21 0.0499314 0.00264412
-0.00124997 6.61744e-24 0.0513142 0.00267076
0.00124997 2.69595e-20 0.0513141 0.00266914
0.00749848 5.71747e-21 0.0507876 0.00265173
-0.00750136 -2.11758e-22 0.0507876 0.00265604
-0.00187509 1.32349e-23 0.0513142 0.0026713
0.00187497 2.84682e-20 0.051314 0.00266896
0.00906241 2.71051e-20 0.0505568 0.00264576
-0.00906241 -2.71051e-20 0.0505568 0.00265107
-0.00250009 0 0.0513141 0.00267175
0.00249997 0 0.0513141 0.00266883
0.00593746 -2.71051e-20 0.0510497 0.00265884
-0.00593746 0 0.0510497 0.00266106
-0.00312507 -6.61744e-24 0.051314 0.00267209
0.00312507 4.73147e-21 0.051314 0.00266869
0.00812339 -1.48231e-20 0.050785 0.00265103
-0.00812652 0 0.050785 0.00265618
-0.0106246 1.41172e-22 0.050329 0.00264946
0.0106246 -1.41172e-22 0.050329 0.00264526
0.0115616 0 0.0501253 0.00264433
-0.0115616 -2.71051e-20 0.0501253 0.00264702
-0.00375004 0 0.0513139 0.00267226
0.00374998 2.8594e-20 0.0513139 0.00266843
0.0124864 0 0.049924 0.00264352
-0.0124864 0 0.049924 0.00264548
0.0124989 0 0.049924 0.00264343
-0.0124989 0 0.049924 0.00264559
-0.0125115 0 0.049924 0.00264544
0.0125115 0 0.049924 0.00264348
-0.0124865 -1.69407e-21 0.0499319 0.00264548
0.0124865 0 0.0499319 0.00264352
0.00656246 0 0.0510495 0.00265614
-0.00656246 -5.42101e-20 0.0510495 0.002663
-0.0125114 0 0.0499319 0.00264544
0.0125114 1.69407e-21 0.0499319 0.00264348
-0.00968739 0 0.0505562 0.00265097
0.00968739 5.42101e-20 0.0505562 0.00264606
0.00437498 -3.65978e-20 0.0513138 0.00266807
-0.00437502 0 0.0513138 0.00267227
0.00874839 -3.30343e-20 0.0507872 0.00265048
-0.00875163 2.11758e-22 0.0507847 0.00265663
0.00718748 0 0.0510494 0.0026575
-0.00718748 0 0.0510494 0.00266094
0.00499998 0 0.0513138 0.00266754
-0.005 0 0.0513138 0.0026722
-0.0112495 -4.23516e-22 0.0503285 0.00264897
0.0112495 -1.41172e-22 0.0503285 0.00264492
0.0121866 0 0.050125 0.00264393
-0.0121866 0 0.050125 0.00264588
-0.0103124 0 0.0505556 0.00265134
0.0103124 -2.71051e-20 0.0505556 0.00264558
-0.004375 -3.30872e-24 0.0514227 0.00267687
0.004375 3.30872e-24 0.0514227 0.00267235
0.000312513 -2.71051e-20 0.0516082 0.00267201
-0.000312513 0 0.0516082 0.0026868
-0.000937517 2.71051e-20 0.0516082 0.00267307
0.000937517 -2.71051e-20 0.0516082 0.00268592
0.0131104 1.69407e-21 0.049924 0.00264275
-0.0131104 0 0.049924 0.0026446
-0.0131239 1.69407e-21 0.049924 0.00264475
0.0131239 3.38813e-21 0.049924 0.00264265
0.00562497 1.43532e-20 0.0513137 0.00266688
-0.00562501 0 0.0513137 0.00267215
-0.00499999 1.65436e-24 0.051379 0.00267499
0.00499999 -1.65436e-24 0.051379 0.00267011
-0.0131374 -1.69407e-21 0.049924 0.00264455
0.0131374 0 0.049924 0.00264272
-0.0131106 -1.69407e-21 0.0499325 0.0026446
0.0131106 -1.69407e-21 0.0499325 0.00264275
-0.0131373 -1.69407e-21 0.0499325 0.00264456
0.0131373 -1.69407e-21 0.0499325 0.00264272
-0.00156253 0 0.0516082 0.00268791
0.00156253 2.71051e-20 0.0516082 0.00267133
0.00375001 9.92617e-24 0.0515042 0.002676
-0.00375001 3.30872e-24 0.0515042 0.00268029
0.00937336 3.38813e-21 0.0507843 0.00265023
-0.00937666 -4.15046e-20 0.0507843 0.00265708
0.00781251 -2.71051e-20 0.0510492 0.00265477
-0.00781251 5.42101e-20 0.0510492 0.00266306
-0.00218753 2.71051e-20 0.0516081 0.00267424
0.00218753 -2.71051e-20 0.0516081 0.0026854
-0.00281253 0 0.0516081 0.00268889
0.00281253 0 0.0516081 0.0026709
-0.00562499 0 0.0513796 0.00267499
0.00562499 -1.65436e-24 0.0513797 0.00266946
0.00624996 -3.30872e-24 0.0513136 0.00266621
-0.00625002 0 0.0513136 0.00267211
0.00312502 0 0.0516018 0.00268012
-0.00312502 3.30872e-24 0.0516018 0.00268409
-0.0118744 4.23516e-22 0.050328 0.00264818
0.0118744 2.82344e-22 0.050328 0.00264441
-0.00343753 -2.71051e-20 0.051608 0.00267506
0.00343753 2.71051e-20 0.051608 0.00268493
0.0109373 -2.71051e-20 0.050555 0.0026457
-0.0109373 0 0.050555 0.00265072
0.0128115 -2.71051e-20 0.0501247 0.00264308
-0.0128115 0 0.0501247 0.00264506
0.00843756 2.71051e-20 0.0510489 0.00265619
-0.00843756 -2.71051e-20 0.0510489 0.00266147
0.00250002 0 0.0516948 0.00268416
-0.00250002 0 0.0516948 0.00268765
0.00999837 0 0.0507864 0.00265014
-0.0100016 -2.11758e-22 0.0507838 0.00265732
0.00406252 0 0.051608 0.00267021
-0.00406252 2.71051e-20 0.051608 0.00268941
0.00687495 -2.63904e-20 0.0513135 0.00266552
-0.00687495 -6.61744e-24 0.0513135 0.00267217
0.0137345 -1.69407e-21 0.049924 0.00264189
-0.0137345 0 0.049924 0.00264377
0.0137489 0 0.049924 0.00264177
-0.0137489 0 0.049924 0.00264396
-0.0137634 0 0.049924 0.00264372
0.0137634 0 0.049924 0.00264184
-0.00624999 0 0.0514085 0.00267624
0.00624999 3.30872e-24 0.0514085 0.00266995
-0.0137346 -1.69407e-21 0.0499331 0.00264377
0.0137346 0 0.0499331 0.00264189
-0.0137632 1.69407e-21 0.0499331 0.00264373
0.0137632 0 0.0499331 0.00264184
0.00187502 0 0.0517709 0.00268736
-0.00187502 -1.65436e-24 0.0517711 0.00269019
0.0046875 -2.71051e-20 0.0516079 0.00268412
-0.0046875 -2.71051e-20 0.0516079 0.00267527
0.00125001 -8.27181e-25 0.0518255 0.00269
-0.00125001 3.30872e-24 0.0518258 0.00269199
0.00906259 -2.71051e-20 0.0510486 0.00265374
-0.00906259 -2.71051e-20 0.0510486 0.00266412
-0.0124994 0 0.0503276 0.00264729
0.0124994 4.23516e-22 0.0503276 0.00264374
0.00749997 -6.61744e-24 0.0513134 0.00266483
-0.00750007 0 0.0513134 0.00267233
0.0115622 0 0.0505543 0.0026448
-0.0115622 -2.71051e-20 0.0505543 0.00265055
0.000625007 0 0.0518574 0.00269153
-0.000625007 8.27181e-25 0.0518581 0.0026926
0.00531251 -5.42101e-20 0.0516078 0.00266903
-0.00531251 5.42101e-20 0.0516078 0.00268952
0.0106266 -1.43996e-20 0.0507834 0.00264994
-0.0106266 0 0.0507859 0.00265733
0.0134365 -2.71051e-20 0.0501244 0.00264239
-0.0134365 0 0.0501244 0.00264413
-0.00687499 0 0.0514385 0.00267762
0.00687499 6.61744e-24 0.0514385 0.0026704
-4.03963e-11 3.23117e-27 0.0519027 0.00269401
0.000625009 4.1359e-25 0.0519027 0.00269338
-0.000625003 -4.1359e-25 0.0519027 0.00269443
0.00125 0 0.0519027 0.00269315
-0.00125002 1.13208e-20 0.0519027 0.00269518
0.001875 3.30872e-24 0.0519027 0.00269267
-0.00187504 -3.899e-20 0.0519027 0.00269563
-0.0143585 -1.69407e-21 0.049924 0.0026428
0.0143585 0 0.049924 0.00264087
0.00593751 -2.71051e-20 0.0516078 0.00268275
-0.00593751 0 0.0516078 0.00267542
0.0143739 0 0.049924 0.00264073
-0.0143739 0 0.049924 0.00264302
0.00812501 -1.24011e-20 0.0513133 0.00266419
-0.00812501 0 0.0513133 0.00267272
-0.0143893 -1.69407e-21 0.049924 0.00264272
0.0143893 0 0.049924 0.00264081
-0.0143587 0 0.0499336 0.0026428
0.0143587 0 0.0499336 0.00264087
0.0096876 2.71051e-20 0.0510482 0.00265568
-0.0096876 -2.71051e-20 0.0510482 0.00266257
0.00249999 0 0.0519026 0.00269253
-0.00250005 -1.20305e-20 0.0519026 0.00269632
-0.0143892 -1.69407e-21 0.0499336 0.00264272
0.0143892 0 0.0499336 0.00264081
-0.00750002 0 0.051446 0.0026782
0.00750002 0 0.051446 0.00267003
0.00312497 0 0.0519026 0.00269207
-0.00312507 1.59613e-20 0.0519026 0.00269663
0.0121872 2.71051e-20 0.0505537 0.00264461
-0.0121872 2.71051e-20 0.0505537 0.00264932
-0.0131244 -7.05861e-22 0.0503272 0.0026465
0.0131244 0 0.0503272 0.00264293
0.0112483 -1.56701e-20 0.0507829 0.00264956
-0.0112515 0 0.0507854 0.00265707
0.00656251 -2.71051e-20 0.0516077 0.00266767
-0.00656251 2.71051e-20 0.0516077 0.0026896
0.00374994 -1.32349e-23 0.0519027 0.00269185
-0.00375008 -3.93738e-20 0.0519027 0.00269711
-0.00812505 0 0.0514143 0.00267719
0.00812505 -6.61744e-24 0.0514143 0.00266813
0.00875006 8.27181e-25 0.0513131 0.00266368
-0.00875008 -8.27181e-25 0.0513131 0.0026733
0.0140615 2.71051e-20 0.0501241 0.00264135
-0.0140615 -2.71051e-20 0.0501241 0.0026434
-0.00881331 0 0.0513131 0.00267336
0.00881337 5.79026e-24 0.0513131 0.00266365
-0.00875007 0 0.0513281 0.00267397
0.00875007 -4.96308e-24 0.0513282 0.00266427
0.0103126 2.71051e-20 0.0510478 0.00265352
-0.0103126 0 0.0510478 0.00266481
-0.0043751 -3.73356e-20 0.0519025 0.00269716
0.0043751 0 0.0519025 0.00269122
0.00718752 -2.71051e-20 0.0516076 0.00268132
-0.00718752 0 0.0516076 0.00267576
0.0149826 0 0.049924 0.00263935
-0.0149826 0 0.049924 0.00264223
-0.0149989 0 0.049924 0.00264256
0.0149989 -3.38813e-21 0.049924 0.00263919
-0.0150152 0 0.049924 0.00264227
0.0150152 0 0.049924 0.00263921
-0.0149828 1.69407e-21 0.0499342 0.00264223
0.0149828 -1.69407e-21 0.0499342 0.00263935
-0.00500012 -4.12929e-21 0.0519026 0.00269746
0.0049999 0 0.0519026 0.00269076
-0.0150151 1.69407e-21 0.0499341 0.00264227
0.0150151 0 0.0499341 0.00263921
-0.00937509 1.32349e-23 0.0512978 0.00267341
0.00937509 -1.32349e-23 0.0512978 0.00266299
0.0128121 -2.71051e-20 0.0505531 0.0026434
-0.0128121 0 0.0505531 0.00264895
0.0118733 2.20229e-20 0.0507824 0.00264903
-0.0118765 0 0.0507824 0.00265655
-0.00937514 8.25195e-21 0.0513129 0.00267389
0.00937504 0 0.0513129 0.00266337
0.0137494 8.47033e-22 0.0503268 0.00264201
-0.0137494 0 0.0503268 0.00264574
0.00781255 0 0.0516075 0.00266627
-0.00781255 0 0.0516075 0.00269021
0.0109375 0 0.0510474 0.00265527
-0.0109375 -5.42101e-20 0.0510474 0.00266283
-0.00562513 3.17637e-21 0.0519024 0.00269746
0.00562488 0 0.0519026 0.00268991
0.000300834 -2.71051e-20 0.0522172 0.00266348
-0.000300834 0 0.0522172 0.00275365
-0.000949178 8.13152e-20 0.0522172 0.00266485
0.000949178 2.71051e-20 0.0522172 0.00275273
0.0146865 0 0.0501237 0.00264033
-0.0146865 -5.42101e-20 0.0501237 0.00264215
-0.00155084 -2.71051e-20 0.0522172 0.00275478
0.00155084 0 0.0522172 0.00266248
-0.0100001 -6.61744e-23 0.051277 0.00267316
0.0100001 -1.32349e-23 0.051277 0.0026623
-0.00219919 0 0.0522172 0.00266624
0.00219919 -2.71051e-20 0.0522172 0.00275209
-0.00625015 2.32934e-21 0.0519024 0.00269774
0.00624987 0 0.0519024 0.00268938
-0.0100002 -2.98976e-20 0.0513125 0.0026743
0.00999998 7.9277e-21 0.0513127 0.00266318
-0.00280085 -2.71051e-20 0.0522171 0.00275583
0.00280085 0 0.0522171 0.00266163
0.00843757 0 0.0516074 0.00268009
-0.00843757 2.71051e-20 0.0516074 0.00267678
0.0124982 -3.38813e-21 0.0507819 0.00264834
-0.0125016 4.65868e-21 0.0507819 0.00265594
0.0156067 -3.38813e-21 0.0499241 0.00263762
-0.0156067 0 0.0499241 0.00264293
0.0134371 2.71051e-20 0.0505525 0.00264288
-0.0134371 -2.71051e-20 0.0505525 0.0026479
0.0156239 3.38813e-21 0.049924 0.0026375
-0.0156239 0 0.049924 0.00264333
-0.0156411 -3.38813e-21 0.0499239 0.00264307
0.0156411 0 0.0499239 0.00263751
-0.0156069 0 0.0499348 0.00264293
0.0156069 -3.38813e-21 0.0499348 0.00263762
-0.0156409 0 0.0499346 0.00264307
0.0156409 0 0.0499346 0.00263751
-0.00344918 2.71051e-20 0.0522171 0.00266741
0.00344918 2.71051e-20 0.0522171 0.00275144
0.0143744 -8.47033e-22 0.0503263 0.00264094
-0.0143744 0 0.0503263 0.00264487
0.0115625 0 0.0510469 0.00265277
-0.0115625 0 0.0510469 0.00266459
-0.0106251 1.05879e-22 0.0512559 0.00267269
0.0106251 0 0.0512559 0.00266153
-0.00687516 2.10699e-20 0.0519024 0.00269785
0.00687485 0 0.0519027 0.00268849
-0.00405085 2.71051e-20 0.0522171 0.00275646
0.00405085 0 0.0522171 0.00266068
0.00906259 -2.71051e-20 0.0516072 0.00266523
-0.00906259 5.42101e-20 0.0516072 0.00269147
-0.0106249 0 0.0513122 0.00267454
0.0106249 0 0.0513126 0.00266292
0.0153117 2.71051e-20 0.0501229 0.00263824
-0.0153117 -5.42101e-20 0.0501229 0.00264238
0.00469918 0 0.0522171 0.00275046
-0.00469918 0 0.0522171 0.00266816
-0.00750018 -2.44316e-20 0.0519026 0.0026984
0.00749986 -2.64698e-23 0.0519022 0.00268795
0.0131266 0 0.0507842 0.00264749
-0.013123 2.07523e-20 0.0507813 0.00265541
-0.0112501 -1.32349e-22 0.0512373 0.00267206
0.0112501 0 0.0512373 0.00266068
0.0140622 -2.71051e-20 0.0505519 0.00264148
-0.0140622 2.71051e-20 0.0505519 0.00264755
0.0121875 0 0.0510465 0.00265423
-0.0121875 0 0.0510465 0.00266217
0.00530085 0 0.0522171 0.00265931
-0.00530085 -2.71051e-20 0.0522171 0.00275679
0.0162308 0 0.0499239 0.00263667
-0.0162308 0 0.0499239 0.00264425
0.0162489 3.38813e-21 0.0499238 0.00263662
-0.0162489 0 0.0499238 0.00264463
-0.0162311 0 0.0499351 0.00264425
0.0162311 0 0.0499351 0.00263667
-0.016267 0 0.0499237 0.00264438
0.016267 0 0.0499237 0.00263663
0.0096876 -2.71051e-20 0.0516071 0.00267936
-0.0096876 -2.71051e-20 0.0516071 0.00267805
0.0149995 5.64689e-22 0.0503256 0.00263944
-0.0149995 0 0.0503256 0.00264448
-0.0162668 0 0.0499349 0.00264438
0.0162668 -3.38813e-21 0.0499349 0.00263663
0.000625003 0 0.0525189 0.00271717
-0.000625008 -2.23339e-20 0.0525189 0.00271839
-0.0112504 1.03762e-20 0.0513119 0.00267453
0.0112504 0 0.0513124 0.00266252
-0.00812521 4.23516e-22 0.0519022 0.00269883
0.00812485 2.64698e-23 0.0519022 0.00268718
0.00187503 3.30872e-24 0.0525189 0.0027163
-0.00187503 1.20074e-20 0.0525189 0.00271965
0.00594917 -5.42101e-20 0.0522171 0.00274916
-0.00594917 0 0.0522171 0.00266878
-0.011875 -1.58819e-22 0.0512242 0.00267141
0.011875 -5.29396e-23 0.0512242 0.00265983
0.0159368 0 0.0501213 0.00263691
-0.0159368 0 0.0501213 0.00264366
0.0137479 0 0.0507838 0.00264656
-0.0137518 1.69407e-20 0.0507807 0.00265492
0.00312505 0 0.0525189 0.00271548
-0.00312497 2.15067e-21 0.0525189 0.00272079
0.00655084 -5.42101e-20 0.052217 0.00265783
-0.00655084 -2.71051e-20 0.052217 0.00275706
0.0103126 0 0.0516069 0.0026647
-0.0103126 -5.42101e-20 0.0516069 0.00269243
0.0128125 -2.71051e-20 0.0510461 0.00265141
-0.0128125 2.71051e-20 0.0510461 0.00266376
-0.00875025 -7.41154e-22 0.0519025 0.00269964
0.00874983 -2.64698e-23 0.0519025 0.00268682
0.0146872 0 0.0505511 0.00264066
-0.0146872 0 0.0505511 0.0026464
-0.0118753 3.91753e-21 0.0513116 0.00267437
0.0118753 -5.29396e-23 0.0513116 0.00266198
-7.54057e-12 0 0.0526734 0.00272363
0.00125002 0 0.0526734 0.00272256
-0.00125002 5.24763e-21 0.0526734 0.00272492
0.0168548 0 0.0499237 0.0026363
-0.0168548 0 0.0499237 0.00264531
0.0156246 8.47033e-22 0.0503244 0.00263788
-0.0156246 -8.47033e-22 0.0503244 0.00264521
0.0168738 3.38813e-21 0.0499236 0.00263629
-0.0168738 0 0.0499236 0.00264566
0.00437507 0 0.0525188 0.0027145
-0.00437507 1.49356e-20 0.0525188 0.00272151
-0.0168552 0 0.0499355 0.00264531
0.0168552 3.38813e-21 0.0499355 0.0026363
-0.0168928 3.38813e-21 0.0499235 0.00264542
0.0168928 0 0.0499235 0.00263628
0.00719919 2.71051e-20 0.052217 0.00274775
-0.00719919 0 0.052217 0.00266962
-0.0168924 0 0.0499353 0.00264542
0.0168924 0 0.0499353 0.00263628
-0.0125 5.29396e-23 0.0512179 0.0026709
0.0125 -5.29396e-23 0.0512179 0.00265899
0.00250004 3.30872e-24 0.0526734 0.0027217
-0.00250004 -2.51628e-20 0.0526734 0.00272616
-0.00937529 1.21761e-21 0.051902 0.00270012
0.00937479 0 0.0519025 0.00268624
0.0109376 -2.71051e-20 0.0516067 0.00267872
-0.0109376 0 0.0516067 0.00267872
0.0143728 -9.31736e-21 0.0507801 0.00264553
-0.014377 0 0.0507801 0.00265442
0.0134375 2.71051e-20 0.0510457 0.00265258
-0.0134375 0 0.0510457 0.00266148
0.0165617 2.71051e-20 0.0501194 0.00263642
-0.0165617 0 0.0501194 0.00264499
0.00780085 0 0.052217 0.00265636
-0.00780085 -5.42101e-20 0.052217 0.00275789
0.00375005 6.61744e-24 0.0526733 0.00272081
-0.00375005 2.16787e-20 0.0526733 0.0027271
-0.0125004 3.26637e-20 0.0513119 0.00267412
0.0124996 0 0.0513119 0.00266129
0.0153124 0 0.0505502 0.00263858
-0.0153124 0 0.0505502 0.00264701
-0.00562508 7.02773e-21 0.0525188 0.00272207
0.00562508 0 0.0525188 0.00271312
-0.0100004 -2.43522e-21 0.0519024 0.00270079
0.00999982 -5.24102e-21 0.0519024 0.00268607
-0.013125 -5.29396e-23 0.0512174 0.00267065
0.013125 0 0.0512174 0.00265816
0.0162497 0 0.050323 0.00263703
-0.0162497 -2.82344e-22 0.050323 0.00264644
0.0115626 0 0.0516065 0.00266385
-0.0115626 0 0.0516065 0.00269264
0.0174788 3.38813e-21 0.0499237 0.00263582
-0.0174788 0 0.0499237 0.00264612
0.0084492 -5.42101e-20 0.0522169 0.00274658
-0.0084492 2.71051e-20 0.0522169 0.00267111
0.0174986 -3.38813e-21 0.0499235 0.00263582
-0.0174986 3.38813e-21 0.0499235 0.00264645
-0.0174793 -3.38813e-21 0.0499359 0.00264612
0.0174793 0 0.0499359 0.00263582
-0.0175184 -3.38813e-21 0.0499234 0.00264624
0.0175184 3.38813e-21 0.0499234 0.00263575
-0.00500007 -6.87553e-20 0.0526734 0.00272775
0.00499995 0 0.0526734 0.00271959
-0.0175179 0 0.0499357 0.00264623
0.0175179 0 0.0499357 0.00263576
0.0140625 0 0.0510452 0.00264959
-0.0140625 -2.71051e-20 0.0510452 0.00266319
0.0149978 1.35525e-20 0.0507795 0.00264428
-0.0150022 0 0.0507795 0.00265436
-0.0131254 -5.24102e-21 0.0513118 0.00267394
0.0131246 0 0.0513118 0.00266047
-0.00687492 -3.44504e-20 0.0525187 0.00272271
0.0068751 1.32349e-23 0.0525187 0.00271169
-0.0106253 -2.37169e-20 0.0519017 0.00270102
0.0106246 -5.29396e-23 0.0519023 0.00268554
0.0171866 -2.71051e-20 0.0501174 0.0026362
-0.0171866 -5.42101e-20 0.0501174 0.00264574
0.00905088 -2.71051e-20 0.0522169 0.00265524
-0.00905088 -2.71051e-20 0.0522169 0.00275906
0.0159374 0 0.050549 0.0026378
-0.0159374 2.71051e-20 0.050549 0.00264779
0.0121875 0 0.0516063 0.00267758
-0.0121875 0 0.0516063 0.00267873
-0.01375 0 0.0512192 0.00267056
0.01375 5.29396e-23 0.0512193 0.00265731
-0.00625007 -1.80789e-20 0.0526733 0.00272837
0.00625007 0 0.0526733 0.00271818
0.0168746 0 0.0503213 0.00263671
-0.0168746 -5.64689e-22 0.0503213 0.00264743
0.0181029 -3.38813e-21 0.0499235 0.00263515
-0.0181029 0 0.0499235 0.00264665
-0.0112504 -1.26526e-20 0.0519024 0.00270137
0.0112504 5.29396e-23 0.0519017 0.00268526
0.00969921 -2.71051e-20 0.0522168 0.00274573
-0.00969921 0 0.0522168 0.00267253
0.0181235 0 0.0499233 0.0026352
-0.0181235 3.38813e-21 0.0499233 0.00264692
0.0146875 -2.71051e-20 0.0510448 0.0026507
-0.0146875 2.71051e-20 0.0510448 0.00266099
-0.0181035 -3.38813e-21 0.0499362 0.00264665
0.0181035 0 0.0499362 0.00263516
-0.0181441 -3.38813e-21 0.0499232 0.00264672
0.0181441 0 0.0499232 0.0026351
-0.0137504 -5.29396e-23 0.0513108 0.00267385
0.0137504 5.29396e-23 0.0513115 0.00265957
0.0156273 2.71051e-20 0.0507786 0.0026431
-0.0156272 0 0.0507821 0.00265506
-0.0181435 0 0.049936 0.00264672
0.0181435 0 0.049936 0.00263511
-0.00812512 -2.07126e-20 0.0525187 0.00272394
0.00812512 -1.32349e-23 0.0525187 0.00271033
0.000625009 0 0.0531412 0.00274705
-0.000625009 5.42101e-20 0.0531412 0.0027485
0.0128125 -2.71051e-20 0.0516061 0.00266244
-0.0128125 0 0.0516061 0.00269249
0.00187502 -5.42101e-20 0.0531412 0.00274602
-0.00187502 5.42101e-20 0.0531412 0.00274978
0.0178114 2.71051e-20 0.0501153 0.00263543
-0.0178114 0 0.0501153 0.00264659
0.0165624 -2.71051e-20 0.0505475 0.002637
-0.0165624 -5.42101e-20 0.0505475 0.00264932
-0.0143751 -1.05879e-22 0.0512197 0.00267049
0.0143751 0 0.0512197 0.00265641
-0.00750009 -1.02306e-20 0.0526733 0.00272933
0.00750009 0 0.0526733 0.00271674
0.0103009 -2.71051e-20 0.0522167 0.00265434
-0.0103009 0 0.0522167 0.00276001
0.00312503 -5.42101e-20 0.0531412 0.00274496
-0.00312503 -5.42101e-20 0.0531412 0.00275103
-0.0118754 2.13346e-20 0.0519015 0.00270131
0.0118746 0 0.0519015 0.0026845
0.0174995 2.82344e-22 0.0503195 0.00263629
-0.0174995 8.47033e-22 0.0503195 0.00264815
-0.0143747 7.14684e-21 0.0513104 0.00267383
0.0143747 0 0.0513104 0.00265867
0.0153126 -5.42101e-20 0.0510442 0.0026475
-0.0153126 2.71051e-20 0.0510442 0.00266349
0.016248 2.11758e-21 0.0507777 0.00264242
-0.016248 4.23516e-22 0.0507777 0.00265614
0.0187269 3.38813e-21 0.0499232 0.00263441
-0.0187269 0 0.0499232 0.00264672
0.00437501 -5.42101e-20 0.0531412 0.00274392
-0.00437501 -5.42101e-20 0.0531412 0.00275181
0.0134375 -2.71051e-20 0.051606 0.00267597
-0.0134375 2.71051e-20 0.051606 0.00267871
0.0187483 0 0.0499231 0.00263448
-0.0187483 0 0.0499231 0.00264695
-0.0187276 0 0.0499365 0.00264672
0.0187276 3.38813e-21 0.0499365 0.00263442
-0.0187697 0 0.0499229 0.00264678
0.0187697 0 0.0499229 0.00263433
-0.0187691 0 0.0499363 0.00264677
0.0187691 0 0.0499363 0.00263433
-0.00937516 -3.26637e-20 0.0525187 0.00272523
0.00937488 1.36319e-20 0.0525187 0.00270933
0.0109492 2.71051e-20 0.0522167 0.00274498
-0.0109492 2.71051e-20 0.0522167 0.00267356
-0.0150001 -5.29396e-23 0.0512155 0.00267057
0.0150001 -1.05879e-22 0.0512155 0.00265533
-0.0125004 -1.16467e-21 0.0519023 0.00270152
0.0124996 -1.06938e-20 0.0519014 0.00268396
0.0171874 2.71051e-20 0.050546 0.00263719
-0.0171874 -5.42101e-20 0.050546 0.00264967
-0.00875011 7.57036e-21 0.0526731 0.00273067
0.00875011 0 0.0526731 0.00271555
-0.0184363 -2.71051e-20 0.0501132 0.00264672
0.0184363 -2.71051e-20 0.0501132 0.00263491
0.00562501 0 0.0531411 0.00274241
-0.00562501 -1.0842e-19 0.0531411 0.00275268
-0.0150006 -2.95403e-20 0.0513101 0.00267412
0.0149996 -5.29396e-23 0.0513109 0.00265774
0.0159377 -2.71051e-20 0.0510435 0.0026488
-0.0159377 5.42101e-20 0.0510435 0.00266244
0.0115509 -2.71051e-20 0.0522166 0.00265335