# U  POINT_DATA 63583
# x  y  z  U_x  U_y  U_z
2.65631e-06 2.35746e-23 0.049924 7.54829e-08 1.65738e-08 -1.47665e-10
-0.000624384 -1.05879e-22 0.0499244 2.16742e-05 4.79351e-06 -3.47386e-08
0.000625562 -1.05879e-22 0.0499244 2.14572e-05 4.62308e-06 -9.5204e-08
-0.00124876 2.11758e-22 0.0499248 4.32076e-05 9.65622e-06 -5.43182e-08
0.00125112 0 0.0499248 4.40471e-05 9.51218e-06 -1.99737e-07
-0.00187315 -2.11758e-22 0.0499251 6.42199e-05 1.45096e-05 -5.96631e-08
0.00187665 -2.11758e-22 0.0499251 6.55386e-05 1.41989e-05 -3.04748e-07
-0.00249754 0 0.0499255 8.43916e-05 1.92551e-05 -5.23113e-08
0.00250214 4.23516e-22 0.0499255 8.62124e-05 1.87178e-05 -4.08864e-07
-0.00312195 -4.23516e-22 0.0499258 0.000103733 2.38689e-05 -3.21371e-08
0.00312761 4.23516e-22 0.0499258 0.000106091 2.305e-05 -5.11945e-07
-0.00374636 0 0.0499262 0.000122724 2.84358e-05 1.70255e-09
0.00375304 0 0.0499262 0.000125703 2.72915e-05 -6.18382e-07
-0.00437076 0 0.0499265 0.000142185 3.31334e-05 5.07461e-08
0.0043785 0 0.0499265 0.000145827 3.16034e-05 -7.28681e-07
0.000312485 -2.71051e-20 0.0501277 0.0181904 0.00394925 -5.72132e-05
-0.000312486 2.71051e-20 0.0501277 0.0181942 0.0039647 -5.75142e-05
-0.000937479 0 0.0501277 0.0181801 0.00398931 -4.88319e-05
0.000937478 2.71051e-20 0.0501277 0.0181986 0.00394805 -6.54478e-05
0.00156244 0 0.0501276 0.0181959 0.00395363 -6.4715e-05
-0.00156244 2.71051e-20 0.0501276 0.018171 0.00402191 -4.88546e-05
0.005004 0 0.0499269 0.00016722 3.61526e-05 -8.49206e-07
-0.00499514 -8.47033e-22 0.0499269 0.000162858 3.81382e-05 1.24864e-07
-0.00218741 2.71051e-20 0.0501276 0.0181461 0.00404868 -4.03585e-05
0.00218741 -2.71051e-20 0.0501276 0.0182071 0.00396147 -7.21866e-05
-0.00281234 0 0.0501275 0.0181344 0.00407562 -4.08427e-05
0.00281234 0 0.0501275 0.0182118 0.00396457 -6.99931e-05
0.00562955 0 0.0499273 0.000190261 4.10249e-05 -9.80525e-07
-0.00561949 8.47033e-22 0.0499273 0.000185143 4.35882e-05 2.34888e-07
-0.00343728 -2.71051e-20 0.0501275 0.0181126 0.00409439 -3.23961e-05
0.00343728 -2.71051e-20 0.0501275 0.0182331 0.00396584 -7.65536e-05
-0.00406221 -2.71051e-20 0.0501274 0.0181075 0.00411198 -3.24392e-05
0.00406221 0 0.0501274 0.018254 0.00396145 -7.43295e-05
0.00625515 0 0.0499277 0.000214692 4.61887e-05 -1.11768e-06
-0.00624382 -8.47033e-22 0.0499277 0.000208864 4.95037e-05 3.99923e-07
5.5543e-12 1.03398e-25 0.0503316 0.0368037 0.00823776 1.66194e-05
-0.000625384 0 0.0503318 0.0368183 0.00827627 3.54297e-05
0.00062461 4.8175e-21 0.0503318 0.0367851 0.00820728 -1.9338e-06
0.00468714 5.42101e-20 0.0501273 0.0182874 0.00395611 -8.06898e-05
-0.00468714 0 0.0501273 0.0181018 0.00412488 -2.31837e-05
-0.00125075 0 0.0503321 0.0368312 0.0083208 5.43267e-05
0.00124923 -1.79995e-21 0.0503321 0.0367706 0.00818631 -2.02811e-05
-0.00187385 0 0.0503322 0.0368415 0.00836505 7.29887e-05
0.00187385 1.12232e-20 0.0503322 0.0367568 0.00817021 -3.8151e-05
-0.00249847 -2.11758e-22 0.0503325 0.0368549 0.00840706 9.1547e-05
0.00249847 1.10114e-20 0.0503325 0.0367482 0.00815557 -5.50017e-05
0.00686815 0 0.0499281 0.000292493 6.28691e-05 -1.49603e-06
-0.00686815 -8.47033e-22 0.0499281 0.000284623 6.77096e-05 6.16743e-07
0.00687445 -8.47033e-22 0.049924 0 0 0
-0.00687445 0 0.049924 0 0 0
-0.00688078 8.47033e-22 0.0499281 0.000257487 6.18295e-05 8.39183e-07
0.00688078 0 0.0499281 0.000264356 5.67856e-05 -1.42256e-06
0.00531209 -2.71051e-20 0.0501273 0.0183185 0.00394761 -7.85818e-05
-0.00531209 0 0.0501273 0.0181129 0.00413923 -2.14057e-05
-0.00312312 0 0.0503326 0.0368711 0.00844588 0.000110283
0.00312312 2.22346e-20 0.0503326 0.0367441 0.0081401 -7.10584e-05
-0.00374776 0 0.0503327 0.0368931 0.0084817 0.000129592
0.00374776 3.09167e-20 0.0503327 0.0367485 0.00812323 -8.65775e-05
0.00593706 0 0.0501272 0.0183584 0.00393964 -8.45435e-05
-0.00593706 0 0.0501272 0.0181264 0.00415798 -9.59045e-06
0.00749248 8.47033e-22 0.0499285 0.000323484 6.94867e-05 -1.74074e-06
-0.00749248 -8.47033e-22 0.0499285 0.000315079 7.56587e-05 1.02688e-06
0.00749944 8.47033e-22 0.049924 0 0 0
-0.00749944 -8.47033e-22 0.049924 0 0 0
-0.00750642 0 0.0499285 0.000285404 6.95857e-05 1.17332e-06
0.00750642 8.47033e-22 0.0499285 0.000292169 6.28996e-05 -1.5237e-06
-0.00437717 -4.23516e-22 0.0503328 0.0369241 0.00851649 0.000149883
0.00437239 -4.23516e-22 0.0503328 0.03676 0.0081049 -0.000101756
0.00656203 0 0.0501272 0.0183886 0.00393227 -8.20217e-05
-0.00656203 -2.71051e-20 0.0501272 0.0181547 0.00418641 -3.95373e-06
0.000312514 0 0.0505592 0.0558289 0.0125903 8.12836e-05
-0.000312515 0 0.0505592 0.0558708 0.0126468 0.000103394
0.000937509 0 0.0505592 0.055798 0.0125421 3.65195e-05
-0.000937509 -5.42101e-20 0.0505592 0.0559021 0.0127059 0.000148721
0.00499701 1.65171e-20 0.050333 0.0367785 0.00808556 -0.000116692
-0.00499701 0 0.050333 0.0369641 0.00855155 0.000171543
0.0081168 -8.47033e-22 0.0499289 0.000354773 7.63773e-05 -1.85019e-06
-0.0081168 0 0.0499289 0.000346558 8.44961e-05 1.42473e-06
0.00812442 -8.47033e-22 0.049924 0 0 0
-0.00812442 8.47033e-22 0.049924 0 0 0
-0.00813207 0 0.0499289 0.00031363 7.8314e-05 1.76499e-06
0.00813207 -8.47033e-22 0.0499289 0.000320218 6.97325e-05 -1.83813e-06
-0.00156252 2.71051e-20 0.0505591 0.0559448 0.012768 0.000170874
0.00156252 2.71051e-20 0.0505591 0.0557598 0.0124999 1.48073e-05
-0.00218749 0 0.050559 0.0559807 0.0128246 0.000215447
0.00218749 0 0.050559 0.0557357 0.0124638 -2.87875e-05
-0.00281247 -5.42101e-20 0.0505589 0.0560335 0.0128823 0.000237613
0.00281247 -2.71051e-20 0.0505589 0.0557057 0.0124288 -4.78752e-05
0.00718702 0 0.0501271 0.0184181 0.00393079 -8.75111e-05
-0.00718702 2.71051e-20 0.0501271 0.0181878 0.00422433 1.13363e-05
0.00562156 -4.23516e-22 0.0503288 0.0366147 0.00802381 -0.000129853
-0.00562156 -4.23516e-22 0.0503288 0.0368216 0.00854473 0.000191889
0.0056216 1.69407e-21 0.0503331 0.0368543 0.00807669 -0.000131507
-0.0056278 0 0.0503331 0.037068 0.00860323 0.000195935
-0.00343743 -2.71051e-20 0.0505588 0.0560818 0.0129351 0.000282973
0.00343743 0 0.0505588 0.055694 0.0123971 -8.91799e-05
0.0087411 -1.69407e-21 0.0499294 0.000386422 8.41495e-05 -2.21816e-06
-0.0087411 0 0.0499294 0.000378472 9.45051e-05 2.1299e-06
-0.00874939 1.69407e-21 0.049924 0 0 0
0.00874939 0 0.049924 0 0 0
-0.00875772 0 0.0499294 0.000342165 8.71587e-05 2.21918e-06
0.00875772 -1.69407e-21 0.0499294 0.00034823 7.6611e-05 -2.03783e-06
0.00624613 -4.23516e-22 0.0503286 0.0366173 0.00799856 -0.000143808
-0.00624613 0 0.0503286 0.036856 0.00858439 0.000217024
0.00624618 1.77877e-20 0.0503334 0.0368879 0.00805815 -0.000145787
-0.00624618 -4.23516e-22 0.0503334 0.0371352 0.00865086 0.000221821
-0.00406239 5.42101e-20 0.0505587 0.0561512 0.0129902 0.000307013
0.00406239 -2.71051e-20 0.0505587 0.0556815 0.0123641 -0.000106129
0.00781202 2.71051e-20 0.0501269 0.0184357 0.00393771 -8.4914e-05
-0.00781202 -2.71051e-20 0.0501269 0.0182346 0.0042861 2.0778e-05
0.00468734 0 0.0505585 0.0556861 0.0123331 -0.000146265
-0.00468734 2.71051e-20 0.0505585 0.0562194 0.0130448 0.000355514
-3.81844e-10 2.58494e-26 0.0507876 0.07325 0.016026 0.000234253
-0.000625172 0 0.0507875 0.0733118 0.0160837 0.000277603
0.000624854 0 0.0507875 0.0731896 0.0159721 0.000191169
0.00936537 0 0.0499298 0.00041711 9.17647e-05 -2.44091e-06
-0.00936537 0 0.0499298 0.000409845 0.000104399 2.65813e-06
0.00687069 0 0.0503282 0.0366166 0.00797509 -0.000157479
-0.00687069 0 0.0503282 0.0368976 0.00863183 0.000243562
0.00687075 -1.43996e-20 0.0503336 0.0369196 0.00804164 -0.000159959
-0.00687859 0 0.0503336 0.037211 0.00870662 0.000249305
-0.00937433 0 0.049924 0 0 0
0.00937433 0 0.049924 0 0 0
-0.00938332 0 0.0499298 0.000370205 9.58758e-05 2.87558e-06
0.00938332 1.69407e-21 0.0499298 0.000375966 8.3281e-05 -2.42921e-06
-0.00124972 0 0.0507878 0.0733746 0.0161433 0.000320991
0.00124971 -1.10114e-20 0.0507873 0.0731322 0.0159235 0.00014832
-0.00187545 -5.29396e-23 0.0507879 0.0734424 0.0162026 0.000363891
0.00187459 -1.12761e-20 0.0507879 0.0730798 0.0158796 0.00010604
0.008437 0 0.0501268 0.0184505 0.00397012 -9.30804e-05
-0.008437 0 0.0501268 0.0182661 0.00437255 4.02788e-05
0.00531231 2.71051e-20 0.0505584 0.0556918 0.0123003 -0.000162112
-0.00531231 2.71051e-20 0.0505584 0.0563084 0.0131044 0.000383225
-0.00250054 0 0.0507878 0.0735139 0.0162599 0.000406718
0.00249948 1.75759e-20 0.0507878 0.0730306 0.015838 6.50427e-05
0.00749529 0 0.0503277 0.0366121 0.0079567 -0.000171205
-0.00749529 0 0.0503277 0.0369467 0.00869141 0.000271618
-0.00312436 0 0.0507868 0.0735916 0.0163159 0.000449735
0.00312436 -1.99053e-20 0.0507868 0.0729879 0.0157981 2.51578e-05
0.00749536 -1.77877e-20 0.0503337 0.0369471 0.00803012 -0.000174092
-0.00749536 8.47033e-22 0.0503337 0.0372941 0.00877461 0.000278236
0.00593728 2.71051e-20 0.0505582 0.0557104 0.0122678 -0.000200706
-0.00593728 -5.42101e-20 0.0505582 0.0563986 0.0131687 0.000436589
0.00998957 0 0.049924 0 0 0
-0.00998957 0 0.049924 0 0 0
-0.00999924 0 0.049924 0 0 0
0.00999924 0 0.049924 0 0 0
-0.0100089 0 0.049924 0 0 0
0.0100089 0 0.049924 0 0 0
-0.00998963 0 0.0499302 0.000565626 0.000146486 4.39352e-06
0.00998963 0 0.0499302 0.000574428 0.000127243 -3.71151e-06
-0.0100089 0 0.0499302 0.000567914 0.000149151 4.88173e-06
0.0100089 1.69407e-21 0.0499302 0.000575566 0.000128162 -3.82254e-06
-0.00375066 0 0.0507878 0.0736769 0.0163713 0.000493581
0.00374926 -1.15408e-20 0.0507878 0.0729528 0.0157591 -1.36189e-05
-0.00906196 2.71051e-20 0.0501265 0.0182878 0.00444743 4.92485e-05
0.00906196 -2.71051e-20 0.0501265 0.018442 0.00399532 -9.28868e-05
0.00437414 8.47033e-21 0.0507865 0.0729257 0.0157208 -5.19401e-05
-0.00437574 1.05879e-22 0.0507865 0.0737707 0.0164273 0.000538696
0.0081199 0 0.0503273 0.0366043 0.00795091 -0.000185927
-0.0081199 0 0.0503273 0.0369977 0.00876655 0.000300881
0.00811999 1.10114e-20 0.0503338 0.03697 0.00803099 -0.000189444
-0.00812944 8.47033e-22 0.0503338 0.0373776 0.00885767 0.000308536
0.00656228 0 0.0505581 0.0557258 0.0122345 -0.000215982
-0.00656228 -5.42101e-20 0.0505581 0.0565053 0.0132411 0.000469262
0.00499902 -2.44581e-20 0.0507877 0.0729069 0.0156827 -8.9653e-05
-0.0050008 1.05879e-22 0.0507877 0.0738733 0.0164849 0.000585367
0.0106139 1.69407e-21 0.049924 0 0 0
-0.0106139 1.69407e-21 0.049924 0 0 0
-0.0106242 0 0.049924 0 0 0
0.0106242 -1.69407e-21 0.049924 0 0 0
-0.0106345 0 0.049924 0 0 0
0.0106345 0 0.049924 0 0 0
-0.010614 -1.69407e-21 0.0499306 0.00060394 0.000158612 5.19141e-06
0.010614 1.69407e-21 0.0499306 0.000612082 0.000136293 -4.06505e-06
-0.0106345 -1.69407e-21 0.0499306 0.000606515 0.000161145 5.96746e-06
0.0106345 1.69407e-21 0.0499306 0.000613899 0.000137271 -4.44046e-06
-0.000312504 0 0.0510505 0.0913076 0.0195821 0.000386296
0.000312504 0 0.0510505 0.0912167 0.0195246 0.000376054
-0.0096869 0 0.0501262 0.0182961 0.00450954 6.63742e-05
0.0096869 -5.42101e-20 0.0501262 0.0184404 0.00401314 -0.000101701
-0.00093753 0 0.0510505 0.0913915 0.0196397 0.000482624
0.00093753 2.71051e-20 0.0510505 0.0911376 0.0194712 0.000280151
0.0071873 0 0.0505579 0.0557508 0.0122043 -0.000254476
-0.0071873 2.71051e-20 0.0505579 0.0566141 0.0133195 0.000525417
-0.00156254 2.71051e-20 0.0510504 0.0914885 0.0196996 0.000493043
0.00156254 0 0.0510504 0.0910553 0.0194205 0.000270493
-0.00874971 0 0.0503302 0.0373634 0.00892123 0.000336196
0.00874971 1.41172e-22 0.0503302 0.0368952 0.00802046 -0.000204889
0.00562387 -2.30816e-20 0.0507861 0.0728936 0.0156439 -0.000126737
-0.00562591 -2.11758e-22 0.0507861 0.0739843 0.0165458 0.000634099
-0.00218754 0 0.0510504 0.0915813 0.0197571 0.000588085
0.00218754 5.42101e-20 0.0510504 0.0909846 0.0193725 0.000175674
-0.00281254 5.42101e-20 0.0510503 0.0916875 0.0198148 0.000598243
0.00281254 2.71051e-20 0.0510503 0.0909113 0.0193247 0.000168556
0.00781234 2.71051e-20 0.0505576 0.0557664 0.0121775 -0.000269772
-0.00781234 -2.71051e-20 0.0505576 0.0567353 0.0134082 0.000560163
-0.00343751 0 0.0510501 0.091792 0.0198707 0.000693226
0.00343751 5.42101e-20 0.0510501 0.0908532 0.0192789 7.58913e-05
0.00624873 -4.02341e-21 0.0507877 0.0728839 0.0156048 -0.000163732
-0.00624871 0 0.0507858 0.0741013 0.016611 0.000684876
0.0112381 0 0.049924 0 0 0
-0.0112381 -1.69407e-21 0.049924 0 0 0
0.0103118 0 0.0501259 0.018445 0.00402673 -0.000102476
-0.0103118 0 0.0501259 0.0183148 0.00456525 7.53381e-05
-0.0112491 0 0.049924 0 0 0
0.0112491 0 0.049924 0 0 0
-0.0112601 0 0.049924 0 0 0
0.0112601 0 0.049924 0 0 0
-0.0112382 -1.69407e-21 0.049931 0.000643832 0.000171059 6.33462e-06
0.0112382 -1.69407e-21 0.049931 0.00065167 0.000145717 -4.71367e-06
-0.01126 -1.69407e-21 0.049931 0.000647373 0.000173737 6.9102e-06
0.01126 -1.69407e-21 0.049931 0.000653761 0.000146671 -4.77804e-06
0.00937469 -1.41172e-22 0.0503298 0.0368921 0.00802396 -0.000221071
-0.00937469 -5.64689e-22 0.0503298 0.0374268 0.00899526 0.000364211
0.00406249 -5.42101e-20 0.05105 0.0907924 0.0192329 7.1074e-05
-0.00406249 2.71051e-20 0.05105 0.0919116 0.0199284 0.000704819
0.00687357 1.54584e-20 0.0507856 0.0728795 0.0155672 -0.000200889
-0.00687621 2.11758e-22 0.0507856 0.0742282 0.0166816 0.000736757
0.00843739 0 0.0505573 0.055786 0.0121624 -0.000310212
-0.00843739 -2.71051e-20 0.0505573 0.0568458 0.0134979 0.000617336
0.00468748 -2.71051e-20 0.0510499 0.0907499 0.0191891 -2.09527e-05
-0.00468748 -5.42101e-20 0.0510499 0.0920298 0.0199846 0.000801721
0.0109367 -2.71051e-20 0.0501256 0.0184691 0.00404058 -0.000111193
-0.0109367 0 0.0501256 0.0183363 0.00461331 9.22723e-05
-0.00999964 0 0.0503294 0.0374944 0.00906284 0.000392317
0.00999964 1.41172e-22 0.0503294 0.0368932 0.00802453 -0.000237308
0.0118623 0 0.049924 0 0 0
-0.0118623 0 0.049924 0 0 0
-1.40721e-10 0 0.0513142 0.1044 0.0214446 0.000452147
-0.011874 0 0.049924 0 0 0
0.011874 0 0.049924 0 0 0
-0.000624982 0 0.0513141 0.104489 0.0214976 0.000510202
0.000625044 -6.44539e-21 0.0513141 0.104312 0.021393 0.000394068
-0.0118857 0 0.049924 0 0 0
0.0118857 0 0.049924 0 0 0
-0.0118624 0 0.0499314 0.00068856 0.000184791 7.34984e-06
0.0118624 0 0.0499314 0.000695354 0.000156003 -5.08203e-06
0.00531245 2.71051e-20 0.0510498 0.090704 0.0191435 -2.44287e-05
-0.00531245 2.71051e-20 0.0510498 0.092165 0.0200444 0.000815843
-0.0118856 0 0.0499314 0.000692972 0.000187838 8.34546e-06
0.0118856 -1.69407e-21 0.0499314 0.000698524 0.000157256 -5.51205e-06
-0.00124997 6.61744e-24 0.0513142 0.104581 0.0215519 0.000568414
0.00124997 2.69595e-20 0.0513141 0.10423 0.0213441 0.000336431
0.00749848 5.71747e-21 0.0507876 0.0728757 0.0155317 -0.000238222
-0.00750136 -2.11758e-22 0.0507876 0.074361 0.016758 0.00078976
-0.00187509 1.32349e-23 0.0513142 0.104678 0.0216064 0.000625829
0.00187497 2.84682e-20 0.051314 0.104152 0.0212973 0.000279129
0.00906241 2.71051e-20 0.0505568 0.055786 0.0121482 -0.000327055
-0.00906241 -2.71051e-20 0.0505568 0.0569648 0.0135825 0.000649557
-0.00250009 0 0.0513141 0.104778 0.0216599 0.000683178
0.00249997 0 0.0513141 0.104076 0.0212516 0.000223081
0.00593746 -2.71051e-20 0.0510497 0.0906701 0.0190986 -0.000115498
-0.00593746 0 0.0510497 0.0922952 0.0201044 0.000916123
-0.00312507 -6.61744e-24 0.051314 0.104885 0.0217131 0.00074028
0.00312507 4.73147e-21 0.051314 0.104007 0.0212069 0.00016798
0.00812339 -1.48231e-20 0.050785 0.0728721 0.0155015 -0.000276499
-0.00812652 0 0.050785 0.074497 0.0168384 0.000843353
-0.0106246 1.41172e-22 0.050329 0.0375728 0.00912669 0.000420575
0.0106246 -1.41172e-22 0.050329 0.0369048 0.00802448 -0.000253186
0.0115616 0 0.0501253 0.0184903 0.00405031 -0.000110418
-0.0115616 -2.71051e-20 0.0501253 0.0183763 0.00466015 0.000101691
-0.00375004 0 0.0513139 0.104995 0.021766 0.000798137
0.00374998 2.8594e-20 0.0513139 0.103943 0.0211626 0.000113992
0.0124864 0 0.049924 0 0 0
-0.0124864 0 0.049924 0 0 0
0.0124989 0 0.049924 0 0 0
-0.0124989 0 0.049924 0 0 0
-0.0125115 0 0.049924 0 0 0
0.0125115 0 0.049924 0 0 0
-0.0124865 -1.69407e-21 0.0499319 0.000739726 0.000200511 8.90852e-06
0.0124865 0 0.0499319 0.000745647 0.000167865 -5.88389e-06
0.00656246 0 0.0510495 0.0906333 0.0190536 -0.000119188
-0.00656246 -5.42101e-20 0.0510495 0.0924411 0.020169 0.000933509
-0.0125114 0 0.0499319 0.000745723 0.000204375 9.72846e-06
0.0125114 1.69407e-21 0.0499319 0.000749184 0.000169297 -5.9719e-06
-0.00968739 0 0.0505562 0.057079 0.0136594 0.000703849
0.00968739 5.42101e-20 0.0505562 0.0557906 0.0121344 -0.0003667
0.00437498 -3.65978e-20 0.0513138 0.103885 0.0211189 6.03214e-05
-0.00437502 0 0.0513138 0.10511 0.021819 0.000856512
0.00874839 -3.30343e-20 0.0507872 0.0728643 0.0154755 -0.000315479
-0.00875163 2.11758e-22 0.0507847 0.074634 0.0169179 0.000896103
0.00718748 0 0.0510494 0.0906083 0.0190105 -0.000211046
-0.00718748 0 0.0510494 0.0925863 0.0202355 0.00103533
0.00499998 0 0.0513138 0.103834 0.0210752 7.36017e-06
-0.005 0 0.0513138 0.105233 0.021873 0.000916229
-0.0112495 -4.23516e-22 0.0503285 0.0376631 0.00918882 0.000449525
0.0112495 -1.41172e-22 0.0503285 0.0369239 0.00802356 -0.000268253
0.0121866 0 0.050125 0.0185277 0.00406324 -0.000119327
-0.0121866 0 0.050125 0.0184206 0.00470847 0.000121176
-0.0103124 0 0.0505556 0.0572162 0.0137371 0.000736415
0.0103124 -2.71051e-20 0.0505556 0.055793 0.0121197 -0.000382774
-0.004375 -3.30872e-24 0.0514227 0.109218 0.022308 0.000897349
0.004375 3.30872e-24 0.0514227 0.108024 0.0216294 8.72051e-05
0.000312513 -2.71051e-20 0.0516082 0.117897 0.0233712 0.000576276
-0.000312513 0 0.0516082 0.118017 0.0234212 0.000474577
-0.000937517 2.71051e-20 0.0516082 0.118081 0.0234684 0.000702187
0.000937517 -2.71051e-20 0.0516082 0.11784 0.0233266 0.000348001
0.0131104 1.69407e-21 0.049924 0 0 0
-0.0131104 0 0.049924 0 0 0
-0.0131239 1.69407e-21 0.049924 0 0 0
0.0131239 3.38813e-21 0.049924 0 0 0
0.00562497 1.43532e-20 0.0513137 0.103787 0.0210311 -4.54568e-05
-0.00562501 0 0.0513137 0.105359 0.0219282 0.000977067
-0.00499999 1.65436e-24 0.051379 0.107703 0.0221657 0.000941287
0.00499999 -1.65436e-24 0.051379 0.106326 0.0213827 2.28678e-05
-0.0131374 -1.69407e-21 0.049924 0 0 0
0.0131374 0 0.049924 0 0 0
-0.0131106 -1.69407e-21 0.0499325 0.000797577 0.000218586 1.04049e-05
0.0131106 -1.69407e-21 0.0499325 0.000801284 0.00018107 -6.3872e-06
-0.0131373 -1.69407e-21 0.0499325 0.000804428 0.000223245 1.17753e-05
0.0131373 -1.69407e-21 0.0499325 0.000805702 0.000182863 -6.82914e-06
-0.00156253 0 0.0516082 0.118205 0.0235203 0.000600998
0.00156253 2.71051e-20 0.0516082 0.117728 0.0232798 0.000450952
0.00375001 9.92617e-24 0.0515042 0.111213 0.0220566 0.000163544
-0.00375001 3.30872e-24 0.0515042 0.112219 0.0226269 0.000868574
0.00937336 3.38813e-21 0.0507843 0.0728491 0.0154496 -0.00035404
-0.00937666 -4.15046e-20 0.0507843 0.0747706 0.0169931 0.000947325
0.00781251 -2.71051e-20 0.0510492 0.0905767 0.0189683 -0.00021543
-0.00781251 5.42101e-20 0.0510492 0.0927444 0.0203073 0.0010552
-0.00218753 2.71051e-20 0.0516081 0.118276 0.0235682 0.000826686
0.00218753 -2.71051e-20 0.0516081 0.117676 0.0232377 0.000222917
-0.00281253 0 0.0516081 0.118407 0.0236194 0.000725521
0.00281253 0 0.0516081 0.11757 0.023193 0.000328368
-0.00562499 0 0.0513796 0.107841 0.0222219 0.00100264
0.00562499 -1.65436e-24 0.0513797 0.106293 0.0213415 -3.0688e-05
0.00624996 -3.30872e-24 0.0513136 0.103743 0.0209872 -9.831e-05
-0.00625002 0 0.0513136 0.105489 0.021985 0.00103941
0.00312502 0 0.0516018 0.114946 0.0225515 0.000245227
-0.00312502 3.30872e-24 0.0516018 0.115767 0.0230155 0.000843622
-0.0118744 4.23516e-22 0.050328 0.0377633 0.00925216 0.000480065
0.0118744 2.82344e-22 0.050328 0.0369488 0.00802257 -0.000283156
-0.00343753 -2.71051e-20 0.051608 0.118486 0.0236665 0.000950226
0.00343753 2.71051e-20 0.051608 0.117528 0.0231519 0.000101939
0.0109373 -2.71051e-20 0.050555 0.0558131 0.0121074 -0.000421075
-0.0109373 0 0.050555 0.0573598 0.0138132 0.00079153
0.0128115 -2.71051e-20 0.0501247 0.0185597 0.00407506 -0.000118898
-0.0128115 0 0.0501247 0.0184859 0.00476718 0.000134043
0.00843756 2.71051e-20 0.0510489 0.0905534 0.0189302 -0.000309129
-0.00843756 -2.71051e-20 0.0510489 0.0928958 0.0203778 0.00115831
0.00250002 0 0.0516948 0.118617 0.0230331 0.00032983
-0.00250002 0 0.0516948 0.119261 0.0233954 0.000817422
0.00999837 0 0.0507864 0.0728382 0.0154242 -0.000391926
-0.0100016 -2.11758e-22 0.0507838 0.0749169 0.0170663 0.000998522
0.00406252 0 0.051608 0.117432 0.0231076 0.000209556
-0.00406252 2.71051e-20 0.051608 0.118624 0.0237172 0.000850677
0.00687495 -2.63904e-20 0.0513135 0.103704 0.0209439 -0.000151554
-0.00687495 -6.61744e-24 0.0513135 0.105624 0.022044 0.00110219
0.0137345 -1.69407e-21 0.049924 0 0 0
-0.0137345 0 0.049924 0 0 0
0.0137489 0 0.049924 0 0 0
-0.0137489 0 0.049924 0 0 0
-0.0137634 0 0.049924 0 0 0
0.0137634 0 0.049924 0 0 0
-0.00624999 0 0.0514085 0.109074 0.0224072 0.00107694
0.00624999 3.30872e-24 0.0514085 0.107369 0.0214363 -7.79282e-05
-0.0137346 -1.69407e-21 0.0499331 0.000858586 0.000238275 1.2568e-05
0.0137346 0 0.0499331 0.000859939 0.000195172 -7.28886e-06
-0.0137632 1.69407e-21 0.0499331 0.000867414 0.00024377 1.39148e-05
0.0137632 0 0.0499331 0.000864247 0.000196985 -7.34952e-06
0.00187502 0 0.0517709 0.121504 0.0234222 0.000410687
-0.00187502 -1.65436e-24 0.0517711 0.121982 0.0236893 0.000781879
0.0046875 -2.71051e-20 0.0516079 0.117401 0.023067 -1.62472e-05
-0.0046875 -2.71051e-20 0.0516079 0.11871 0.0237644 0.00107552
0.00125001 -8.27181e-25 0.0518255 0.123747 0.0237255 0.000489881
-0.00125001 3.30872e-24 0.0518258 0.124069 0.0239017 0.000739875
0.00906259 -2.71051e-20 0.0510486 0.09052 0.0188922 -0.000314767
-0.00906259 -2.71051e-20 0.0510486 0.0930596 0.0204499 0.00117736
-0.0124994 0 0.0503276 0.0378779 0.00932148 0.000512955
0.0124994 4.23516e-22 0.0503276 0.0369822 0.008023 -0.000298025
0.00749997 -6.61744e-24 0.0513134 0.103667 0.0209016 -0.000205006
-0.00750007 0 0.0513134 0.105763 0.0221053 0.00116625
0.0115622 0 0.0505543 0.0558296 0.0120934 -0.000435461
-0.0115622 -2.71051e-20 0.0505543 0.0575249 0.0138934 0.00082646
0.000625007 0 0.0518574 0.124931 0.0239063 0.000560508
-0.000625007 8.27181e-25 0.0518581 0.125114 0.0239966 0.000686282
0.00531251 -5.42101e-20 0.0516078 0.117313 0.023022 9.28606e-05
-0.00531251 5.42101e-20 0.0516078 0.118858 0.0238161 0.000978776
0.0106266 -1.43996e-20 0.0507834 0.0728355 0.0153996 -0.00042899
-0.0106266 0 0.0507859 0.0750761 0.0171393 0.00104999
0.0134365 -2.71051e-20 0.0501244 0.0185998 0.00409081 -0.00012687
-0.0134365 0 0.0501244 0.018553 0.00483447 0.000158453
-0.00687499 0 0.0514385 0.110315 0.0225952 0.00115193
0.00687499 6.61744e-24 0.0514385 0.108452 0.0215341 -0.000126428
-4.03963e-11 3.23117e-27 0.0519027 0.126839 0.0241679 0.000638906
0.000625009 4.1359e-25 0.0519027 0.126652 0.0241161 0.0005744
-0.000625003 -4.1359e-25 0.0519027 0.126805 0.0242014 0.000700716
0.00125 0 0.0519027 0.126692 0.0240848 0.000513035
-0.00125002 1.13208e-20 0.0519027 0.126996 0.0242546 0.000765625
0.001875 3.30872e-24 0.0519027 0.12651 0.0240352 0.000448643
-0.00187504 -3.899e-20 0.0519027 0.126967 0.0242893 0.00082683
-0.0143585 -1.69407e-21 0.049924 0 0 0
0.0143585 0 0.049924 0 0 0
0.00593751 -2.71051e-20 0.0516078 0.117289 0.0229811 -0.000133352
-0.00593751 0 0.0516078 0.118949 0.0238653 0.00120474
0.0143739 0 0.049924 0 0 0
-0.0143739 0 0.049924 0 0 0
0.00812501 -1.24011e-20 0.0513133 0.103632 0.0208611 -0.000259212
-0.00812501 0 0.0513133 0.105905 0.0221677 0.00123071
-0.0143893 -1.69407e-21 0.049924 0 0 0
0.0143893 0 0.049924 0 0 0
-0.0143587 0 0.0499336 0.000920542 0.0002587 1.47671e-05
0.0143587 0 0.0499336 0.000917181 0.000209049 -7.79966e-06
0.0096876 2.71051e-20 0.0510482 0.0904946 0.0188555 -0.000407668
-0.0096876 -2.71051e-20 0.0510482 0.0932187 0.0205184 0.00127751
0.00249999 0 0.0519026 0.126555 0.0240056 0.000388107
-0.00250005 -1.20305e-20 0.0519026 0.127162 0.0243422 0.00089066
-0.0143892 -1.69407e-21 0.0499336 0.00093126 0.000265107 1.7089e-05
0.0143892 0 0.0499336 0.000922359 0.000210877 -8.37024e-06
-0.00750002 0 0.051446 0.110753 0.0226881 0.00121988
0.00750002 0 0.051446 0.108726 0.0215306 -0.000179585
0.00312497 0 0.0519026 0.126378 0.0239569 0.000325976
-0.00312507 1.59613e-20 0.0519026 0.127139 0.0243765 0.000951607
0.0121872 2.71051e-20 0.0505537 0.055866 0.0120831 -0.000472968
-0.0121872 2.71051e-20 0.0505537 0.0576918 0.0139758 0.000885546
-0.0131244 -7.05861e-22 0.0503272 0.0380036 0.00939834 0.000548545
0.0131244 0 0.0503272 0.0370188 0.00802457 -0.000312516
0.0112483 -1.56701e-20 0.0507829 0.0728374 0.0153752 -0.000465366
-0.0112515 0 0.0507854 0.0752437 0.0172126 0.00110255
0.00656251 -2.71051e-20 0.0516077 0.117209 0.0229362 -2.41686e-05
-0.00656251 2.71051e-20 0.0516077 0.119101 0.0239186 0.00111076
0.00374994 -1.32349e-23 0.0519027 0.126432 0.0239281 0.00026728
-0.00375008 -3.93738e-20 0.0519027 0.127341 0.024429 0.001016
-0.00812505 0 0.0514143 0.109678 0.0226071 0.00127171
0.00812505 -6.61744e-24 0.0514143 0.107463 0.0213387 -0.000241178
0.00875006 8.27181e-25 0.0513131 0.103596 0.0208221 -0.000313757
-0.00875008 -8.27181e-25 0.0513131 0.106047 0.0222301 0.00129521
0.0140615 2.71051e-20 0.0501241 0.0186288 0.00410629 -0.000125582
-0.0140615 -2.71051e-20 0.0501241 0.0186467 0.0049131 0.000178811
-0.00881331 0 0.0513131 0.106062 0.0222363 0.00130159
0.00881337 5.79026e-24 0.0513131 0.103592 0.0208183 -0.000319241
-0.00875007 0 0.0513281 0.106611 0.0222953 0.00130142
0.00875007 -4.96308e-24 0.0513282 0.10417 0.0208936 -0.000311192
0.0103126 2.71051e-20 0.0510478 0.0904667 0.0188178 -0.000411252
-0.0103126 0 0.0510478 0.0933932 0.0205876 0.00129589
-0.0043751 -3.73356e-20 0.0519025 0.127324 0.0244632 0.00107732
0.0043751 0 0.0519025 0.126263 0.0238795 0.000205699
0.00718752 -2.71051e-20 0.0516076 0.117192 0.022896 -0.000251176
-0.00718752 0 0.0516076 0.119198 0.0239696 0.0013369
0.0149826 0 0.049924 0 0 0
-0.0149826 0 0.049924 0 0 0
-0.0149989 0 0.049924 0 0 0
0.0149989 -3.38813e-21 0.049924 0 0 0
-0.0150152 0 0.049924 0 0 0
0.0150152 0 0.049924 0 0 0
-0.0149828 1.69407e-21 0.0499342 0.000982391 0.000279663 1.80273e-05
0.0149828 -1.69407e-21 0.0499342 0.000973007 0.000222457 -8.82986e-06
-0.00500012 -4.12929e-21 0.0519026 0.12753 0.0245156 0.00114244
0.0049999 0 0.0519026 0.126323 0.0238507 0.000147352
-0.0150151 1.69407e-21 0.0499341 0.000992225 0.00028685 2.10479e-05
0.0150151 0 0.0499341 0.000976622 0.000224488 -9.94086e-06
-0.00937509 1.32349e-23 0.0512978 0.105291 0.0221396 0.00134648
0.00937509 -1.32349e-23 0.0512978 0.102678 0.0206306 -0.00036753
0.0128121 -2.71051e-20 0.0505531 0.0558999 0.0120715 -0.00048681
-0.0128121 0 0.0505531 0.0578828 0.0140666 0.000926353
0.0118733 2.20229e-20 0.0507824 0.0728465 0.0153518 -0.000501377
-0.0118765 0 0.0507824 0.07542 0.0172877 0.00115671
-0.00937514 8.25195e-21 0.0513129 0.106193 0.0222918 0.00135826
0.00937504 0 0.0513129 0.10356 0.0207838 -0.000367912
0.0137494 8.47033e-22 0.0503268 0.0370567 0.00802786 -0.000326628
-0.0137494 0 0.0503268 0.0381412 0.00948231 0.000587483
0.00781255 0 0.0516075 0.117116 0.022852 -0.000142115
-0.00781255 0 0.0516075 0.119351 0.0240246 0.00124559
0.0109375 0 0.0510474 0.0904518 0.0187821 -0.00050224
-0.0109375 -5.42101e-20 0.0510474 0.0935672 0.0206549 0.00139622
-0.00562513 3.17637e-21 0.0519024 0.127519 0.0245508 0.00120538
0.00562488 0 0.0519026 0.126161 0.0238018 8.64059e-05
0.000300834 -2.71051e-20 0.0522172 0.135259 0.0249073 0.000740991
-0.000300834 0 0.0522172 0.136116 0.024966 0.0007626
-0.000949178 8.13152e-20 0.0522172 0.135387 0.024983 0.000868418
0.000949178 2.71051e-20 0.0522172 0.135996 0.0248928 0.000637217
0.0146865 0 0.0501237 0.0186669 0.0041246 -0.000134145
-0.0146865 -5.42101e-20 0.0501237 0.0187618 0.0050083 0.000214361
-0.00155084 -2.71051e-20 0.0522172 0.136242 0.0250408 0.000890036
0.00155084 0 0.0522172 0.135137 0.0248342 0.000615086
-0.0100001 -6.61744e-23 0.051277 0.104224 0.0219958 0.0013927
0.0100001 -1.32349e-23 0.051277 0.101458 0.0203865 -0.000418964
-0.00219919 0 0.0522172 0.135522 0.0250602 0.000994544
0.00219919 -2.71051e-20 0.0522172 0.135883 0.0248227 0.000510439
-0.00625015 2.32934e-21 0.0519024 0.127729 0.0246041 0.00127219
0.00624987 0 0.0519024 0.126229 0.023773 2.81307e-05
-0.0100002 -2.98976e-20 0.0513125 0.106343 0.0223521 0.00142116
0.00999998 7.9277e-21 0.0513127 0.103526 0.0207452 -0.000420878
-0.00280085 -2.71051e-20 0.0522171 0.136376 0.0251155 0.00101505
0.00280085 0 0.0522171 0.135023 0.0247632 0.000489842
0.00843757 0 0.0516074 0.117101 0.0228138 -0.000370303
-0.00843757 2.71051e-20 0.0516074 0.119448 0.0240761 0.00147196
0.0124982 -3.38813e-21 0.0507819 0.0728642 0.0153299 -0.000537164
-0.0125016 4.65868e-21 0.0507819 0.0756064 0.0173662 0.00121364
0.0156067 -3.38813e-21 0.0499241 0 0 0
-0.0156067 0 0.0499241 0 0 0
0.0134371 2.71051e-20 0.0505525 0.0559488 0.0120634 -0.000523757
-0.0134371 -2.71051e-20 0.0505525 0.0580736 0.0141608 0.000991387
0.0156239 3.38813e-21 0.049924 0 0 0
-0.0156239 0 0.049924 0 0 0
-0.0156411 -3.38813e-21 0.0499239 0 0 0
0.0156411 0 0.0499239 0 0 0
-0.0156069 0 0.0499348 0.00104423 0.000301883 2.21511e-05
0.0156069 -3.38813e-21 0.0499348 0.00102781 0.000236253 -1.04619e-05
-0.0156409 0 0.0499346 0.00104919 0.000307869 2.5603e-05
0.0156409 0 0.0499346 0.00102786 0.000237818 -1.29495e-05
-0.00344918 2.71051e-20 0.0522171 0.135665 0.0251365 0.00112062
0.00344918 2.71051e-20 0.0522171 0.135777 0.0247536 0.000388545
0.0143744 -8.47033e-22 0.0503263 0.0370947 0.00803225 -0.000341021
-0.0143744 0 0.0503263 0.0382954 0.0095753 0.000630861
0.0115625 0 0.0510469 0.0904345 0.0187454 -0.000504736
-0.0115625 0 0.0510469 0.0937536 0.0207239 0.0014167
-0.0106251 1.05879e-22 0.0512559 0.103135 0.0218474 0.00143751
0.0106251 0 0.0512559 0.100215 0.020139 -0.000468316
-0.00687516 2.10699e-20 0.0519024 0.127722 0.0246406 0.00133651
0.00687485 0 0.0519027 0.126072 0.0237242 -3.31647e-05
-0.00405085 2.71051e-20 0.0522171 0.136518 0.0251899 0.00114159
0.00405085 0 0.0522171 0.134919 0.0246928 0.000368191
0.00906259 -2.71051e-20 0.0516072 0.117026 0.0227718 -0.000261328
-0.00906259 5.42101e-20 0.0516072 0.119603 0.0241307 0.00138174
-0.0106249 0 0.0513122 0.106498 0.0224119 0.00148392