# UMean  POINT_DATA 27167
# x  y  z  UMean_x  UMean_y  UMean_z
0 -0.0100383 9.88059e-08 0 0 0
0 0.0100383 9.88059e-08 0 0 0
-6.77626e-21 0.0100383 0.000270318 0 0 0
-3.38813e-20 -0.0100383 0.000270355 0 0 0
0 0.0100383 0.000399158 0 0 0
-6.77626e-21 -0.0100383 0.000399216 0 0 0
0 0.0100383 0.000671987 0 0 0
0 -0.0100383 0.000672082 0 0 0
0 0.0100383 0.000954688 0 0 0
1.35525e-20 -0.0100383 0.000954778 0 0 0
2.71051e-20 0.0100383 0.00108461 0 0 0
-1.35525e-20 -0.0100383 0.00108472 0 0 0
0 0.0100383 0.00136726 0 0 0
0 -0.0100383 0.00136736 0 0 0
-2.03288e-20 0.0100382 0.00165828 0 0 0
6.77626e-21 -0.0100382 0.00165833 0 0 0
0 0.0100382 0.00179903 0 0 0
-1.35525e-20 -0.0100382 0.00179907 0 0 0
1.35525e-20 -0.0102118 8.66105e-08 0 0 0
0 0.0102118 8.66107e-08 0 0 0
-4.51751e-21 0.0102382 0.000331507 9.06351e-06 -1.74299e-06 -4.52124e-07
0 -0.0102382 0.000331549 9.88672e-06 -2.1645e-06 3.64375e-07
-2.71051e-20 0.0100382 0.002087 0 0 0
2.71051e-20 -0.0100382 0.002087 0 0 0
0 0.0102243 0.000990464 0.00028761 -3.47009e-05 2.26101e-06
0 -0.0102243 0.000990555 9.85775e-05 -1.38836e-05 1.4116e-07
0 0.0102083 0.00163604 0.000279232 -3.61566e-05 1.35392e-06
0 -0.0102083 0.00163609 9.58818e-05 -1.44571e-05 -5.18527e-07
-1.35525e-20 -0.0102224 0.00218426 0 0 0
2.71051e-20 0.0102225 0.00218428 0 0 0
0 0.010458 6.24978e-08 0 0 0
-2.71051e-20 -0.010458 6.24966e-08 0 0 0
0 0.0104623 0.000144468 5.79587e-06 -1.15191e-06 -3.12193e-07
0 -0.0104623 0.000144482 6.30724e-06 -1.42702e-06 2.51062e-07
0 0.0105577 0.000633902 0.000337985 -3.0581e-05 2.26176e-06
-4.51751e-21 -0.0105577 0.000633982 0.000124933 -1.29549e-05 3.56072e-08
1.35525e-20 0.01058 5.25664e-08 0 0 0
1.35525e-20 -0.01058 5.25657e-08 0 0 0
2.71051e-21 -0.0104079 0.00203703 0.000131075 -1.56201e-05 -2.76727e-06
-1.6263e-20 0.010408 0.00203704 0.000370939 -3.50768e-05 7.19976e-06
9.03502e-21 0.010539 0.00125631 0.000723536 -6.74239e-05 2.28826e-06
4.51751e-21 -0.010539 0.00125641 0.000258963 -2.75987e-05 6.20373e-07
0 0.0106667 9.98935e-05 2.45227e-06 -1.06188e-07 -2.67126e-07
-1.35525e-20 -0.0106667 9.99038e-05 2.93351e-06 -1.85618e-07 3.63533e-08
-3.01167e-21 0.0105324 0.0017155 0.000677457 -6.5558e-05 2.78713e-06
1.05409e-20 -0.0105324 0.00171555 0.000241583 -2.76268e-05 -2.3911e-07
-1.35525e-20 -0.0104246 0.00229102 0 0 0
0 0.0104247 0.00229107 0 0 0
0 -0.0106751 3.95308e-08 0 0 0
1.35525e-20 0.0106752 3.95301e-08 0 0 0
1.35525e-20 -0.0105566 0.00221565 7.99074e-05 -9.34448e-06 -1.93985e-06
0 0.0105567 0.0022157 0.000225143 -2.08312e-05 4.81316e-06
1.35525e-20 -0.0105735 0.00236965 0 0 0
0 0.0105737 0.00236971 0 0 0
-2.71051e-20 -0.0108504 0.000315325 9.2642e-06 -7.59272e-07 8.92575e-08
2.71051e-20 0.0108504 0.000315288 7.76169e-06 -4.34486e-07 -5.77821e-07
2.71051e-20 -0.0108348 0.000932939 0.000342754 -2.93783e-05 -2.60864e-07
2.71051e-20 0.0108349 0.000932867 0.00094001 -7.22386e-05 6.58313e-06
0 -0.0108178 0.00151928 0.000428869 -4.28765e-05 3.52148e-06
2.71051e-20 0.0108179 0.00151923 0.0011746 -0.000100987 -2.79989e-06
-1.35525e-20 -0.0106814 0.00242665 0 0 0
0 0.0106816 0.00242671 0 0 0
0 -0.0107334 0.002339 0.000102 -1.43779e-05 1.80614e-06
0 0.0107336 0.00233907 0.000272131 -2.9267e-05 -1.48975e-06
-6.77626e-21 -0.0110782 8.04033e-09 0 0 0
0 0.0110782 8.03996e-09 0 0 0
0 -0.0110788 6.39066e-05 1.87703e-06 -1.18769e-07 2.3261e-08
0 0.0110788 6.38979e-05 1.56906e-06 -6.79434e-08 -1.70918e-07
0 -0.0111402 -5.0826e-11 0 0 0
0 0.0111402 -5.09721e-11 0 0 0
-3.38813e-21 0.0111346 0.000610508 0.000564519 -5.19505e-05 2.11086e-06
-2.25875e-21 -0.0111346 0.000610587 0.000217544 -2.33077e-05 5.15961e-07
-2.25875e-21 -0.0111195 0.00122932 0.000503714 -5.71469e-05 3.8077e-06
1.12938e-21 0.0111196 0.00122924 0.00131902 -0.000126145 2.33811e-08
-3.61401e-21 -0.0110331 0.00190701 0.000436785 -5.40588e-05 5.39081e-06
9.03502e-22 0.0110332 0.001907 0.00113181 -0.00011343 -3.3061e-06
0 0.0111969 4.05707e-11 0 0 0
0 -0.0111969 4.06969e-11 0 0 0
0 0.011197 5.9483e-05 1.50832e-06 -1.5716e-07 -4.62294e-08
0 -0.011197 5.94923e-05 1.77003e-06 -2.43498e-07 2.97237e-08
0 -0.0109687 0.002298 0.000243568 -3.38971e-05 4.19855e-06
0 0.0109689 0.00229806 0.000655095 -6.96311e-05 -3.31448e-06
1.35525e-20 -0.0109784 0.0025835 0 0 0
-1.35525e-20 0.0109787 0.00258362 0 0 0
-1.35525e-20 -0.0110322 0.00252116 8.03964e-05 -1.13326e-05 1.42359e-06
0 0.0110324 0.00252128 0.000214476 -2.30664e-05 -1.17413e-06
-1.35525e-20 -0.0110647 0.00262905 0 0 0
1.35525e-20 0.0110649 0.00262916 0 0 0
-2.71051e-20 -0.0114329 0.000303637 9.00925e-06 -1.22766e-06 1.69271e-07
0 0.0114329 0.000303605 7.72341e-06 -7.27924e-07 -3.48917e-07
0 -0.0111379 0.00266759 0 0 0
0 0.0111381 0.0026677 0 0 0
0 -0.0111676 0.0026113 8.29908e-05 -1.12428e-05 1.84604e-06
1.35525e-20 0.0111678 0.00261141 0.000205584 -2.08635e-05 -1.07042e-06
-2.71051e-20 -0.0114367 0.000916296 0.000517537 -6.22649e-05 1.99113e-06
0 0.0114367 0.00091623 0.00132684 -0.000135718 3.20323e-06
-1.50584e-21 -0.011273 0.00233144 0.000380945 -5.00253e-05 7.38456e-06
-4.51751e-21 0.0112732 0.0023315 0.000957038 -9.81899e-05 -6.18871e-06
-5.42101e-20 -0.0114108 0.00155891 0.000726457 -9.37206e-05 9.91151e-06
0 0.0114108 0.00155888 0.00183603 -0.000195085 -6.71178e-06
-2.71051e-20 -0.0114548 0.00210261 0.000637917 -8.14667e-05 1.25923e-05
0 0.0114549 0.00210264 0.00156335 -0.000159617 -1.23405e-05
0 -0.0116763 1.11166e-09 0 0 0
0 0.0116763 1.11171e-09 0 0 0
0 -0.0116771 3.85435e-05 1.14673e-06 -1.57752e-07 1.92567e-08
0 0.0116771 3.85343e-05 9.77093e-07 -1.01809e-07 -2.99475e-08
-2.71051e-20 -0.011407 0.00257359 0.000266559 -3.5422e-05 5.43336e-06
2.71051e-20 0.0114072 0.00257368 0.000665904 -6.6812e-05 -3.03825e-06
0 -0.0117135 1.17278e-09 0 0 0
-6.77626e-21 0.0117135 1.17283e-09 0 0 0
-6.77626e-21 0.0117497 1.11165e-09 0 0 0
6.77626e-21 -0.0117497 1.11158e-09 0 0 0
0 0.0117514 3.5956e-05 9.65034e-07 -7.69087e-08 -1.61329e-07
0 -0.0117514 3.59627e-05 1.10956e-06 -1.68021e-07 5.27557e-08
0 0.0117364 0.000596551 0.000740224 -7.83501e-05 2.67022e-06
0 -0.0117364 0.000596601 0.000309726 -3.81454e-05 8.94327e-07
5.64689e-22 -0.0117435 0.00122276 0.000772723 -9.8372e-05 6.82821e-06
-5.64689e-22 0.0117435 0.00122272 0.00182821 -0.00019753 -1.23863e-06
-6.77626e-21 -0.0114702 0.00284265 0 0 0
0 0.0114705 0.00284279 0 0 0
-6.77626e-21 -0.0114996 0.00279927 6.78621e-05 -9.19335e-06 1.50952e-06
0 0.0114998 0.00279942 0.00016809 -1.70585e-05 -8.752e-07
0 -0.0115305 0.00287442 0 0 0
0 0.0115308 0.00287455 0 0 0
1.12938e-21 -0.0117521 0.00184887 0.000895033 -0.000115718 1.41721e-05
1.12938e-21 0.0117522 0.00184887 0.00205195 -0.000220344 -1.31126e-05
-1.35525e-20 -0.011585 0.00290382 0 0 0
0 0.0115853 0.00290395 0 0 0
4.51751e-21 -0.0117097 0.00240797 0.000610813 -8.12205e-05 1.25493e-05
-2.25875e-21 0.0117099 0.00240804 0.00138408 -0.000147484 -1.21673e-05
0 -0.01162 0.00284239 0.000115889 -1.79175e-05 3.47542e-06
1.35525e-20 0.0116202 0.00284253 0.000253549 -2.98149e-05 -2.98528e-06
0 -0.0120252 0.000293165 9.03153e-06 -1.33766e-06 3.81727e-07
-2.71051e-20 0.0120252 0.000293149 7.90138e-06 -6.6091e-07 -1.20282e-06
5.42101e-20 -0.0120563 0.000895248 0.000717665 -8.94912e-05 1.0769e-06
5.42101e-20 0.0120564 0.000895221 0.00165387 -0.000180087 9.1597e-06
5.42101e-20 -0.0120785 0.00152564 0.00113295 -0.000148613 1.45443e-05
2.71051e-20 0.0120786 0.00152563 0.00250607 -0.000280597 -1.09392e-05
-2.71051e-20 -0.0119134 0.00273996 0.000483039 -7.21872e-05 1.31936e-05
2.71051e-20 0.0119137 0.00274007 0.00106563 -0.000123209 -1.1826e-05
0 -0.0120751 0.00217654 0.00111212 -0.00014298 1.99321e-05
0 0.0120752 0.00217659 0.00235707 -0.00025296 -2.27431e-05
-3.38813e-21 -0.0122802 1.16251e-10 0 0 0
0 0.0122802 1.16247e-10 0 0 0
0 -0.0122814 2.10156e-05 6.48414e-07 -9.81891e-08 3.08297e-08
0 0.0122814 2.10088e-05 5.63877e-07 -4.49384e-08 -9.42659e-08
3.38813e-21 -0.0123014 8.01245e-11 0 0 0
0 0.0123014 8.01301e-11 0 0 0
0 0.012322 7.76986e-11 0 0 0
0 -0.012322 7.76925e-11 0 0 0
0 0.0123232 1.85978e-05 5.60402e-07 -6.97382e-08 -1.96323e-07
-3.38813e-21 -0.0123232 1.86029e-05 6.63968e-07 -7.03425e-08 7.55565e-08
0 -0.01193 0.00308971 0 0 0
0 0.0119303 0.00308987 0 0 0
6.77626e-21 -0.0119644 0.0030398 9.87835e-05 -1.52729e-05 2.96244e-06
0 0.0119646 0.00303997 0.000216123 -2.5414e-05 -2.54463e-06
0 -0.0123483 0.000568694 0.000410431 -4.95718e-05 5.75653e-07
0 0.0123483 0.000568677 0.00087302 -9.65023e-05 5.6008e-06
0 -0.0119766 0.00311487 0 0 0
6.77626e-21 0.0119769 0.00311502 0 0 0
0 -0.0120209 0.00313842 0 0 0
-6.77626e-21 0.0120212 0.00313856 0 0 0
-1.35525e-20 -0.0120441 0.00309412 0.000110965 -1.66524e-05 3.6071e-06
-6.77626e-21 0.0120444 0.00309427 0.000211012 -2.56436e-05 -4.80523e-06
-1.12938e-21 -0.012391 0.00118194 0.00111004 -0.000140618 8.32157e-06
-1.12938e-21 0.0123911 0.00118192 0.00228974 -0.000260573 -1.41841e-06
5.64689e-22 -0.0124059 0.00184696 0.00144613 -0.000184441 1.96814e-05
-5.64689e-22 0.012406 0.00184698 0.0028302 -0.000321009 -2.53048e-05
2.71051e-20 -0.0126198 0.000269545 9.60766e-06 -9.87724e-07 1.00053e-06
0 0.0126199 0.000269541 8.20774e-06 -1.05122e-06 -2.63199e-06
9.03502e-22 -0.0123629 0.00258809 0.00108409 -0.000138144 2.11328e-05
0 0.0123631 0.00258818 0.00202244 -0.000228585 -3.25795e-05
2.71051e-20 -0.012324 0.00300712 0.000561333 -7.97668e-05 1.58637e-05
-2.71051e-20 0.0123242 0.00300724 0.00107616 -0.000127668 -2.18972e-05
0 -0.0126819 0.000839778 0.000927222 -0.000109149 -1.57647e-07
2.71051e-20 0.0126819 0.000839773 0.0018708 -0.000209598 1.74764e-05
0 -0.0123691 0.00332403 0 0 0
-6.77626e-21 0.0123694 0.00332418 0 0 0
2.71051e-20 -0.0127333 0.0014734 0.0016676 -0.000216049 1.8074e-05
0 0.0127334 0.00147341 0.00314064 -0.000373531 -2.17335e-05
6.77626e-21 -0.0123952 0.00328327 0.000106965 -1.60521e-05 3.47707e-06
0 0.0123955 0.00328342 0.00020345 -2.47246e-05 -4.63302e-06
-6.77626e-21 -0.0124114 0.00334656 0 0 0
0 0.0124117 0.00334671 0 0 0
0 -0.0128908 5.71212e-06 1.42713e-07 -1.51193e-08 1.624e-08
0 0.0128903 3.97342e-12 1.20349e-07 -1.49766e-08 -4.21613e-08
0 -0.0128967 3.22163e-12 0 0 0
8.47033e-22 0.0128967 3.22196e-12 0 0 0
0 -0.0124524 0.00336833 0 0 0
6.77626e-21 0.0124527 0.00336847 0 0 0
-8.47033e-22 0.0129024 4.47153e-06 1.2197e-07 -4.20664e-08 -5.35854e-08
8.47033e-22 -0.0129024 4.47647e-06 1.47173e-07 -2.35994e-08 2.78088e-08
-6.77626e-21 -0.0124699 0.00333453 0.000107369 -1.61351e-05 4.53681e-06
0 0.0124701 0.00333468 0.000178975 -2.55525e-05 -7.28118e-06
2.71051e-20 -0.0127306 0.00217621 0.00188296 -0.000231742 2.62254e-05
0 0.0127307 0.00217625 0.00333223 -0.000379529 -4.57854e-05
0 -0.0129436 0.000502359 0.00047194 -5.50879e-05 1.1245e-07
0 0.0129436 0.000502361 0.000879759 -0.000102356 8.31085e-06
-5.92923e-21 -0.0129444 0.000510131 0.000480256 -5.6073e-05 8.3283e-08
0 0.0129526 0.000508426 0.000895431 -0.00010416 8.51545e-06
0 -0.0126107 0.00303067 0.000874775 -0.000111653 2.17215e-05
0 0.0126109 0.00303078 0.00150725 -0.000178516 -3.7946e-05
0 -0.0127835 0.00277774 0.00150388 -0.000178669 3.15211e-05
2.71051e-20 0.0127837 0.00277782 0.00250187 -0.000284134 -6.26976e-05
-2.82344e-22 -0.0130621 0.00107673 0.00145958 -0.000179465 7.94274e-06
2.82344e-23 0.0130622 0.00107674 0.00255843 -0.000302179 -7.3169e-06
-2.71051e-20 -0.0127348 0.00327342 0.000590045 -8.02907e-05 1.85717e-05
0 0.0127351 0.00327353 0.000993146 -0.000129743 -3.09115e-05
8.47033e-22 0.0131537 0.00046125 0.000752931 -8.81221e-05 8.0771e-06
4.23516e-22 -0.0131537 0.000461237 0.000414427 -4.78908e-05 -3.36911e-07
-2.71051e-20 0.0131765 0.00021876 7.97228e-06 -2.66443e-06 -3.20214e-06
0 -0.0131765 0.000218756 9.44814e-06 -1.38746e-06 1.45001e-06
-4.23516e-22 0.0131833 1.68074e-12 0 0 0
8.47033e-22 -0.0131834 1.67988e-12 0 0 0
-1.41172e-21 -0.013081 0.00177273 0.00222162 -0.000271479 2.06024e-05
-8.47033e-22 0.013081 0.00177275 0.00363755 -0.000427011 -5.28323e-05
0 -0.0127833 0.00354413 0 0 0
0 0.0127836 0.00354426 0 0 0
0 -0.0128061 0.00351007 0.000115131 -1.73016e-05 4.86478e-06
6.77626e-21 0.0128064 0.0035102 0.0001919 -2.73978e-05 -7.807e-06
-5.64689e-22 -0.0130749 0.00248236 0.00223405 -0.000262388 2.5409e-05
-1.12938e-21 0.013075 0.00248242 0.00343284 -0.000400576 -8.08309e-05
6.77626e-21 -0.0128267 0.00356715 0 0 0
0 -0.0132939 0.000722074 0.00101511 -0.000117456 -2.01854e-06
0 0.013294 0.000722076 0.0017747 -0.000212287 2.33558e-05
6.77626e-21 0.012827 0.00356727 0 0 0
1.35525e-20 -0.0128705 0.00359021 0 0 0
0 0.0128708 0.00359033 0 0 0
0 -0.0129024 0.00352957 0.000246221 -2.76938e-05 7.28296e-06
6.77626e-21 0.0129027 0.00352968 0.000345742 -4.36066e-05 -1.23898e-05
0 -0.0130201 0.00308568 0.00141439 -0.000167686 2.52879e-05
1.12938e-21 0.0130203 0.00308577 0.00211057 -0.000257656 -6.52395e-05
0 -0.0133991 0.000404506 0.000331765 -3.76739e-05 -8.33148e-07
0 0.0133991 0.000404508 0.000575392 -6.81083e-05 7.43784e-06
-1.35525e-20 -0.013401 0.000412597 0.00033856 -3.84124e-05 -8.66505e-07
8.47033e-22 0.013401 0.000412598 0.000587428 -6.94883e-05 7.64965e-06
-8.47033e-22 0.0134864 4.87967e-06 1.3364e-07 -4.32567e-08 -4.87139e-08
0 -0.0134865 4.88092e-06 1.55766e-07 -2.07295e-08 1.8269e-08
0 0.0134935 6.35544e-15 0 0 0
0 -0.0134936 6.33963e-15 0 0 0
2.71051e-20 -0.0134291 0.0013211 0.00230666 -0.000287061 1.79486e-05
0 0.0134291 0.00132111 0.00365787 -0.000439972 -4.73217e-05
8.47033e-22 0.0134987 6.9958e-06 1.37518e-07 1.05786e-07 5.78148e-08
0 -0.0134988 6.99781e-06 1.36924e-07 7.78598e-08 -6.17194e-08
0 0.0135005 6.30778e-15 0 0 0
0 -0.0135006 6.29214e-15 0 0 0
0 -0.0134156 0.00209107 0.00301162 -0.000349825 2.0461e-05
0 0.0134157 0.0020911 0.00439613 -0.000512669 -9.52683e-05
2.71051e-20 -0.0131946 0.00340701 0.00109249 -0.000129027 2.87697e-05
0 0.0131948 0.0034071 0.0015459 -0.000201724 -5.28807e-05
-2.71051e-20 -0.0133762 0.00281985 0.00263836 -0.000300829 2.28301e-05
0 0.0133763 0.0028199 0.00362982 -0.000441242 -0.000121837
0 -0.0131543 0.00373939 0 0 0
-6.77626e-21 0.0131545 0.0037395 0 0 0
0 -0.0132115 0.00367305 0.000306671 -3.44929e-05 9.07101e-06
0 0.0132117 0.00367316 0.000430648 -5.43153e-05 -1.54324e-05
0 0.0137224 0.000302335 6.28308e-06 3.42273e-06 3.30792e-06
2.71051e-20 -0.0137225 0.000302334 6.33954e-06 1.88186e-06 -2.16797e-06
0 -0.0132141 0.00377085 0 0 0
1.35525e-20 0.0132143 0.00377095 0 0 0
-3.95282e-22 -0.0137748 0.000790615 0.00131444 -0.000157192 4.49228e-06
5.64689e-22 0.0137748 0.00079062 0.00206897 -0.000239575 -1.87265e-05
0 -0.0132699 0.00380392 0 0 0
1.35525e-20 0.0132701 0.00380403 0 0 0
1.35525e-20 -0.0133033 0.0037381 0.00035475 -4.56227e-05 6.33957e-06
0 0.0133034 0.00373821 0.00043295 -6.30619e-05 -1.91334e-05
-4.23516e-22 0.013766 0.00148274 0.00390171 -0.000456473 -8.08097e-05
0 -0.013766 0.00148307 0.00281377 -0.00032632 1.33024e-05
0 0.0137616 0.00166835 0.00439838 -0.000515242 -9.76317e-05
-2.11758e-22 -0.0137615 0.00167294 0.00321895 -0.000372013 1.56971e-05
0 -0.0137168 0.00245604 0.00364086 -0.000402031 2.39017e-05
0 0.0137169 0.00245607 0.00461227 -0.000554994 -0.000147969
4.51751e-22 -0.0136289 0.00324654 0.00249872 -0.000273863 2.30209e-05
1.35525e-21 0.013629 0.0032466 0.00298824 -0.000385436 -0.000117134
-2.71051e-20 -0.0135494 0.00365539 0.00128128 -0.000157592 1.70137e-05
0 0.0135495 0.00365548 0.00156624 -0.000221496 -6.18631e-05
0 0.0140721 1.55615e-05 3.05895e-07 2.3531e-07 1.28603e-07
-1.69407e-21 -0.0140722 1.55722e-05 3.04697e-07 1.73261e-07 -1.37344e-07
-1.69407e-21 0.0140756 -2.0176e-16 0 0 0
-1.69407e-21 -0.0140757 -2.01911e-16 0 0 0
3.38813e-21 0.0140911 -3.05359e-16 0 0 0
3.38813e-21 -0.0140912 -3.0516e-16 0 0 0
0 0.0141007 2.20372e-05 5.98562e-05 -6.05005e-06 -6.05109e-07
0 -0.0141008 2.20525e-05 1.70331e-05 -1.88969e-06 2.9358e-07
0 0.0141074 -2.98024e-16 0 0 0
0 -0.0141076 -2.97827e-16 0 0 0
0 -0.0135544 0.00397426 0 0 0
6.77626e-21 0.0135546 0.00397437 0 0 0
2.11758e-22 -0.0140341 0.00165404 0.00379075 -0.000430603 1.60267e-05
0 0.0140347 0.00165401 0.00472732 -0.000548423 -0.00012368
-6.77626e-21 -0.0135849 0.0039369 0.000230117 -2.95942e-05 4.1123e-06
6.77626e-21 0.0135851 0.00393701 0.00028082 -4.09033e-05 -1.24104e-05
0 -0.0135876 0.00399408 0 0 0
0 0.0135878 0.00399419 0 0 0
0 -0.0141246 0.00121981 0.00303547 -0.000361473 6.3422e-06
2.71051e-20 0.0141246 0.00121982 0.00408044 -0.000474141 -7.6357e-05
0 -0.0136161 0.00401529 0 0 0
6.77626e-21 0.0136163 0.00401538 0 0 0
-6.77626e-21 -0.013638 0.00398927 0.000190546 -1.71389e-05 7.26996e-07
6.77626e-21 0.0136382 0.00398937 0.000207996 -2.6605e-05 -7.73584e-06
0 -0.0140719 0.00204106 0.00448115 -0.000486617 1.73644e-05
-2.71051e-20 0.014072 0.00204107 0.00541961 -0.00062904 -0.000168863
-2.71051e-20 0.0142772 0.000421914 0.00113791 -0.000110696 -4.78258e-06
-5.42101e-20 -0.0142772 0.000421919 0.000388088 -4.4965e-05 5.02824e-06
-2.71051e-20 -0.0140129 0.00281709 0.00446725 -0.000474473 3.40635e-05
0 0.014013 0.00281713 0.00504012 -0.000639105 -0.000206539
7.52918e-22 -0.0138313 0.00369716 0.0019834 -0.000210343 1.36673e-05
2.63521e-21 0.0138314 0.00369723 0.00218439 -0.000297036 -9.29287e-05
5.42101e-20 -0.0140444 0.00346029 0.00344987 -0.000351974 1.54425e-05
-2.71051e-20 0.0140445 0.00346035 0.00364774 -0.000482999 -0.000163425
-2.71051e-20 -0.0139247 0.00394753 0.00133547 -0.000133603 9.3508e-06
2.71051e-20 0.0139249 0.0039476 0.00145221 -0.000202573 -5.9882e-05
4.23516e-22 -0.0144296 0.00162635 0.00461824 -0.000515544 1.64479e-05
0 0.0144296 0.00162637 0.00519964 -0.000596047 -0.000161176
-1.18585e-20 -0.0144358 0.00162651 0.00463519 -0.000517135 1.65624e-05
-4.23516e-22 0.0144358 0.00162653 0.00521182 -0.000597353 -0.000162066
0 0.0144133 0.00187152 0.00541947 -0.000635565 -0.000187137
-2.11758e-22 -0.0144133 0.00187201 0.00494734 -0.000543371 2.08392e-05
3.38813e-21 -0.0139302 0.00424974 0 0 0
0 0.0139303 0.00424982 0 0 0
-8.47033e-22 0.0145459 0.000829514 0.00295025 -0.000307417 -5.98537e-05
-5.64689e-22 -0.0145459 0.000829511 0.00232152 -0.000266953 7.47994e-06
1.41172e-22 -0.0143705 0.00241704 0.00565586 -0.000603029 3.05909e-05
1.41172e-22 0.0143705 0.00241706 0.00589294 -0.000722421 -0.000244201
0 -0.0139467 0.00423388 0.000126374 -1.13669e-05 4.82159e-07
-3.38813e-21 0.0139468 0.00423397 0.000137936 -1.76436e-05 -5.13017e-06
-3.38813e-21 -0.0139493 0.00426393 0 0 0
3.38813e-21 0.0139494 0.00426401 0 0 0
3.38813e-21 -0.0139673 0.00427743 0 0 0
-3.38813e-21 0.0139673 0.0042775 0 0 0
3.38813e-21 -0.0139799 0.00425949 0.000153529 -1.406e-05 5.09478e-10
0 0.01398 0.00425956 0.000145381 -2.23459e-05 -7.56265e-06
-8.47033e-22 -0.0143443 0.0031393 0.00528428 -0.000544156 3.12643e-05
-5.64689e-22 0.0143443 0.00313933 0.00516458 -0.000685653 -0.000253569
0 -0.0146845 2.609e-05 2.01516e-05 -2.23566e-06 3.47329e-07
0 0.0146845 2.60621e-05 7.07884e-05 -7.15504e-06 -7.15627e-07
0 -0.0146916 -2.56304e-19 0 0 0
-3.38813e-21 0.0146916 -2.5093e-19 0 0 0
0 -0.0147109 8.39779e-18 0 0 0
0 0.0147109 8.40222e-18 0 0 0
0 0.0147271 2.99299e-05 0.000112909 -9.44812e-06 -1.69438e-06
0 -0.0147271 2.99639e-05 8.61994e-05 -9.3526e-06 1.90671e-06
0 0.0147301 8.1741e-18 0 0 0
0 -0.0147302 8.16959e-18 0 0 0
-5.64689e-22 -0.0143144 0.00384165 0.00334034 -0.000331188 1.72709e-05
0 0.0143145 0.00384169 0.00309128 -0.000444999 -0.00016488
0 -0.0147153 0.00202632 0.00642006 -0.000694359 3.0212e-05
0 0.0147153 0.00202633 0.00641364 -0.000751554 -0.000254549
0 -0.0148123 0.00125345 0.00450636 -0.000516144 1.17778e-05
0 0.0148123 0.00125345 0.0048777 -0.000527569 -0.000144136
0 -0.0142662 0.00421647 0.00159026 -0.000158762 4.49201e-06
2.71051e-20 0.0142663 0.00421652 0.00150445 -0.000239449 -8.28567e-05
2.71051e-20 -0.0146941 0.00275223 0.00717112 -0.000748449 4.07364e-05
2.71051e-20 0.0146941 0.00275225 0.0066452 -0.000862183 -0.000342341
-2.71051e-20 -0.0149583 0.000465189 0.00139576 -0.000150381 6.8847e-06
0 0.0149583 0.000465188 0.00177175 -0.000125887 -1.36413e-05
0 -0.0143128 0.00453664 0 0 0
0 0.0143129 0.00453669 0 0 0
1.69407e-21 -0.0143174 0.0045308 5.19152e-05 -4.75433e-06 1.72278e-10
1.69407e-21 0.0143174 0.00453085 4.9096e-05 -7.54632e-06 -2.55395e-06
0 -0.014319 0.00454125 0 0 0
1.69407e-21 0.014319 0.00454129 0 0 0
0 -0.0143246 0.00454547 0 0 0
1.69407e-21 0.0143246 0.00454551 0 0 0
-1.69407e-21 0.014329 0.00454051 4.58927e-05 -7.90785e-06 -2.83672e-06
0 -0.014329 0.00454047 5.46672e-05 -5.18142e-06 4.0255e-08
-2.71051e-20 -0.0146519 0.00346949 0.00623157 -0.000621577 3.58065e-05
-2.71051e-20 0.014652 0.0034695 0.00547658 -0.000776108 -0.000310535
-4.23516e-22 -0.0145371 0.00427137 0.00263539 -0.00025762 1.54011e-05
1.77877e-20 0.0145371 0.0042714 0.00225621 -0.000358171 -0.000137241
-2.82344e-22 -0.0150759 0.00166227 0.00634497 -0.000700991 3.40671e-05
2.82344e-22 0.0150759 0.00166227 0.00601433 -0.000666134 -0.000223597
2.11758e-21 0.014608 0.00429795 0.00240924 -0.000382231 -0.000149519
0 -0.0146083 0.00429801 0.00290676 -0.000278097 1.57543e-05
5.29396e-23 -0.0150582 0.00232574 0.00803127 -0.000851367 4.6632e-05
-5.82335e-22 0.0150586 0.0023257 0.00699936 -0.000857981 -0.000329308
0 -0.0147146 0.00405696 0.00462297 -0.000442459 2.41673e-05
-2.71051e-20 0.0147147 0.00405699 0.00383954 -0.000585668 -0.000233521
-1.09055e-20 -0.0151061 0.00232002 0.00819539 -0.00086852 4.77436e-05
3.29284e-20 0.0151053 0.00231903 0.00707511 -0.00086726 -0.000335135
5.29396e-23 0.015093 0.0024032 0.00706003 -0.000875004 -0.000340087
1.05879e-22 -0.0150929 0.00240385 0.00822832 -0.000867227 4.74535e-05
-4.23516e-22 0.0145531 0.00471689 0 0 0
0 -0.0145535 0.00471718 0 0 0
-8.47033e-22 -0.0149812 0.00311066 0.00848911 -0.000854955 4.49768e-05
1.86347e-20 0.0149812 0.00311067 0.00692834 -0.000939897 -0.000381668
0 -0.0149884 0.00311083 0.00850823 -0.000856424 4.49868e-05
0 0.0149808 0.0031189 0.00693215 -0.000940964 -0.000382235
0 -0.0146393 0.00452217 0.00170384 -0.000172728 1.76205e-05
8.13152e-20 0.0146393 0.0045222 0.00143451 -0.000250643 -9.59102e-05
0 -0.0153521 2.62972e-05 7.56511e-05 -8.20811e-06 1.67338e-06
0 0.0153522 2.62884e-05 9.91714e-05 -8.29858e-06 -1.48823e-06
0 -0.0153541 1.06034e-19 0 0 0
0 0.0153541 1.06058e-19 0 0 0
0 -0.0153336 0.000981682 0.00404568 -0.000455385 2.40764e-05
0 0.0153336 0.000981685 0.0038689 -0.000375497 -0.000111216
-3.38813e-21 -0.015371 -9.43422e-20 0 0 0
0 0.015371 -9.43934e-20 0 0 0
-3.38813e-21 0.0153889 1.38802e-05 5.86666e-05 -4.64797e-06 -8.44541e-07
0 -0.0153889 1.38836e-05 6.20803e-05 -7.55738e-06 6.65237e-07
0 0.0153893 -9.17904e-20 0 0 0
0 -0.0153893 -9.17397e-20 0 0 0
8.47033e-22 0.0146775 0.00480516 1.73941e-05 -2.7474e-06 -1.46588e-06
0 -0.0146713 0.00480158 2.18234e-05 -1.51644e-06 3.84248e-07
1.37643e-20 -0.0149797 0.00377544 0.00723301 -0.000693483 2.99364e-05
2.41404e-20 0.0149766 0.00377563 0.00562865 -0.000829654 -0.000331003
0 0.0149779 0.00383386 0.00541266 -0.000800902 -0.000320442
0 -0.0149779 0.00383404 0.00697034 -0.000665796 2.8782e-05
-5.42101e-20 -0.0153191 0.00276241 0.0103655 -0.00107496 5.64442e-05
0 0.0153191 0.00276241 0.00804825 -0.00105079 -0.000428781
0 -0.0149757 0.00442242 0.00427538 -0.000380391 1.74026e-05
4.51751e-22 0.0149757 0.00442244 0.00318449 -0.000503428 -0.000211956
0 -0.0152934 0.00343579 0.0101876 -0.000975197 4.69492e-05
0 0.0152934 0.0034358 0.00752476 -0.00106855 -0.000444318
2.71051e-20 -0.0149462 0.00476533 0.00195913 -0.000119687 1.93253e-05
-2.71051e-20 0.0149462 0.00476535 0.00148271 -0.00023377 -0.000128564
0 0.0157071 0.0017387 0.00719188 -0.000754952 -0.00030148
0 -0.0157071 0.00173869 0.00909996 -0.000999305 7.47226e-05
5.42101e-20 -0.0152785 0.0040944 0.00821581 -0.000766549 1.37135e-05
2.71051e-20 0.0152785 0.00409441 0.00590143 -0.0009181 -0.000348143
0 -0.014998 0.00505067 0 0 0
0 0.0149981 0.00505067 0 0 0
0 -0.0150083 0.00502931 0.000228169 -9.9593e-06 3.55632e-06
0 0.0150084 0.0050293 0.000173821 -2.49846e-05 -1.61816e-05
1.48231e-20 -0.0156565 0.00240913 0.011671 -0.00121908 5.98615e-05
2.11758e-22 0.0156565 0.00240914 0.00841173 -0.00104079 -0.000404358
0 -0.0150173 0.00506515 0 0 0
0 0.0150174 0.00506516 0 0 0
-2.11758e-22 0.015642 0.00267527 0.00848882 -0.00108683 -0.000422838
4.23516e-22 -0.015642 0.00267555 0.011993 -0.00123084 5.8818e-05
0 -0.0150364 0.00507946 0 0 0
-3.38813e-21 0.0150365 0.00507948 0 0 0
-3.38813e-21 -0.0150495 0.00506281 0.00024335 -1.49886e-05 7.42966e-06
0 0.0150496 0.00506282 0.000171167 -2.69332e-05 -1.89049e-05
-5.42101e-20 0.015871 0.000522609 0.00226084 -0.000153212 -2.46719e-05
0 -0.0158711 0.00052261 0.00240838 -0.000290077 2.00138e-05
4.23516e-22 -0.0156193 0.00309416 0.0124921 -0.00124901 5.71466e-05
-6.35275e-21 0.0156198 0.00308833 0.00860832 -0.00115831 -0.000451515
0 -0.0151805 0.0048173 0.00320662 -0.000241696 2.05675e-05
0 0.0151805 0.00481731 0.00224309 -0.000358559 -0.000182883
0 -0.0153242 0.00462128 0.00564975 -0.000475723 1.40465e-05
0 0.0153242 0.00462129 0.00384696 -0.000613081 -0.000283522
1.41172e-22 -0.0155928 0.00376523 0.0118041 -0.00112427 5.46109e-05
0 0.0155928 0.00376524 0.00780874 -0.00114318 -0.000441159
0 -0.0152849 0.0050422 0.00208996 -0.000137923 2.77306e-05
2.71051e-20 0.0152849 0.0050422 0.0014526 -0.000237716 -0.000139483
0 -0.015956 0.00273569 0.0143738 -0.00148022 5.43116e-05
0 0.015956 0.0027357 0.0094583 -0.00119839 -0.000441823
1.41172e-22 -0.0156111 0.00436319 0.009717 -0.000897865 3.20571e-05
-1.05879e-22 0.0156111 0.00436316 0.00625227 -0.000975438 -0.000371416
1.05879e-22 0.01536 0.00532139 3.17137e-06 -5.2892e-07 -2.85642e-07
1.05879e-22 -0.015359 0.00532072 4.57662e-06 -3.29835e-07 3.72849e-08
0 -0.0159107 0.00341804 0.0150322 -0.00146546 7.00375e-05
-5.42101e-20 0.0159107 0.00341805 0.00939671 -0.00131275 -0.000489937
0 -0.0153751 0.00533351 0 0 0
-1.37643e-21 0.0153755 0.00533381 0 0 0
0 0.0155376 0.00491087 0.0033278 -0.000552774 -0.000233172
5.64689e-22 -0.0155376 0.00491087 0.00511185 -0.000443093 7.24422e-06
2.71051e-20 -0.015907 0.00407427 0.0138111 -0.00129461 8.6584e-05
2.71051e-20 0.015907 0.00407427 0.00842507 -0.00127414 -0.000481664
5.64689e-22 0.0163929 0.00113505 0.00516999 -0.000442651 -0.000147727
-2.82344e-22 -0.0163929 0.00113505 0.00764191 -0.00080118 6.39532e-05
-1.69407e-21 -0.0164714 7.31733e-06 3.27194e-05 -3.98311e-06 3.50613e-07
1.69407e-21 0.0164714 7.30933e-06 3.0894e-05 -2.44763e-06 -4.44738e-07
-1.69407e-21 -0.0164715 3.37846e-21 0 0 0
0 0.0164715 3.38103e-21 0 0 0
0 -0.0164799 3.92497e-21 0 0 0
0 0.0164799 3.92783e-21 0 0 0
0 0.0164875 7.98174e-06 3.94247e-05 -1.40126e-06 -4.79605e-07
0 -0.0164875 7.99057e-06 5.708e-05 -5.74729e-06 2.24956e-07
0 0.0164879 3.93933e-21 0 0 0
0 -0.0164879 3.93667e-21 0 0 0
-2.82344e-22 0.0162419 0.00306677 0.00995249 -0.00132297 -0.000431555
2.82344e-22 -0.0162419 0.00306677 0.016484 -0.00165536 9.17777e-05
0 -0.0163552 0.00243067 0.0153059 -0.00156414 0.000106518
0 0.0163553 0.00243041 0.00934207 -0.00112367 -0.000356522
-3.17637e-22 -0.0163771 0.00230866 0.01508 -0.00154662 0.000109267
-1.56701e-20 0.0163771 0.00230868 0.00922565 -0.00108575 -0.000342289
2.71051e-20 -0.0156952 0.00522881 0.00371759 -0.000332315 -1.28902e-05
2.71051e-20 0.0156952 0.00522881 0.00239253 -0.00043397 -0.000179762
2.71051e-20 -0.0158708 0.00471773 0.009815 -0.000909278 8.98691e-07
2.71051e-20 0.0158708 0.00471773 0.00611501 -0.00100855 -0.000356122
1.69407e-21 -0.0156945 0.00557308 0 0 0
0 0.0156945 0.00557309 0 0 0
1.69407e-21 -0.0157031 0.00556196 0.000193145 -1.86215e-05 6.90315e-07
1.69407e-21 0.0157031 0.00556198 0.000122745 -2.28815e-05 -9.70546e-06
0 -0.0157032 0.00557964 0 0 0
-3.38813e-21 0.0157032 0.00557964 0 0 0
-1.69407e-21 0.0157125 0.0055866 0 0 0
0 -0.0157125 0.00558661 0 0 0
1.69407e-21 0.0157204 0.00557597 0.000133103 -2.27995e-05 -8.16048e-06
0 -0.0157205 0.00557597 0.000213754 -2.11537e-05 -2.73639e-07
-2.82344e-22 -0.0163001 0.00366347 0.0173489 -0.00169358 0.00010971
-2.82344e-22 0.0163001 0.00366347 0.00992947 -0.00142345 -0.000446267
7.05861e-22 0.0161921 0.00441855 0.00859814 -0.00131947 -0.000416015
2.82344e-22 -0.0161921 0.00441855 0.0150156 -0.00143204 7.77123e-05
-1.41172e-22 -0.0161069 0.00511691 0.00873786 -0.000807574 1.51209e-05
-4.23516e-22 0.0161069 0.00511691 0.00511405 -0.000824152 -0.000264235
-5.42101e-20 0.01604 0.00551404 0.00253044 -0.000432168 -0.000154526
5.42101e-20 -0.01604 0.00551404 0.00405304 -0.000375013 -1.85326e-05
2.71051e-20 -0.016526 0.00408753 0.0201324 -0.00197694 0.000127337
0 0.016526 0.00408753 0.010859 -0.00159954 -0.000437021
0 0.0170249 0.000578089 0.00290224 -9.47582e-05 -3.06839e-05
-1.0842e-19 -0.0170249 0.000578088 0.00423791 -0.00042997 1.17302e-05
5.42101e-20 0.0169748 0.00175444 0.00853272 -0.000794101 -0.000246098
-5.42101e-20 -0.0169748 0.00175444 0.0150932 -0.00151464 0.000151707
0 -0.0160444 0.00583567 0 0 0
0 0.0160444 0.00583566 0 0 0
3.38813e-21 -0.0160574 0.00581994 0.000327997 -3.24594e-05 -4.19887e-07
0 0.0160574 0.00581994 0.000204364 -3.50058e-05 -1.25294e-05
0 0.0160586 0.00584628 0 0 0
0 -0.0160586 0.00584629 0 0 0
-3.38813e-21 0.0160728 0.00585689 0 0 0
3.38813e-21 -0.0160728 0.00585691 0 0 0
-3.38813e-21 0.0160861 0.00584361 0.000202686 -3.55413e-05 -1.26946e-05
0 -0.0160861 0.00584362 0.000349619 -3.4578e-05 3.49664e-07
0 -0.0168748 0.00305299 0.0223407 -0.00224997 0.00018975
0 0.0168748 0.003053 0.0116619 -0.0015505 -0.000322721
-2.71051e-20 -0.0164851 0.00475809 0.0165198 -0.00157043 9.79347e-05
0 0.0164851 0.00475809 0.00909114 -0.00140782 -0.000390494
-7.52918e-22 0.0163205 0.005565 0.00382776 -0.00062048 -0.000193462
-3.76459e-22 -0.0163205 0.00556501 0.00663407 -0.000610814 -1.14653e-06
4.70574e-22 0.0168571 0.00373388 0.0119977 -0.00171154 -0.000319178
0 -0.0168571 0.00373388 0.0235567 -0.00230195 0.000154398
0 -0.0165295 0.00534686 0.0117146 -0.00105916 2.06766e-05
-2.71051e-20 0.0165295 0.00534686 0.00654768 -0.00100411 -0.000273084
0 -0.0168299 0.0044115 0.0224031 -0.00214464 0.000129757
-1.41172e-22 0.0168299 0.0044115 0.0114267 -0.00168837 -0.00031342
2.71051e-20 0.0164078 0.00581578 0.00252243 -0.000441729 -0.000156289
-2.71051e-20 -0.0164078 0.00581579 0.00434868 -0.000417285 -4.74948e-06
3.38813e-21 -0.0163998 0.00610069 0 0 0
0 0.0163998 0.00610068 0 0 0