# k  POINT_DATA 43565
# x  y  z  k
-3.30872e-24 0.00104604 1.58372e-08 0.000207108
-2.1684e-19 -0.000203985 0.00116944 0.000207847
0 -0.00145396 1.55656e-08 0.000208559
1.16872e-19 0.001046 0.00233888 0.000226984
0 0.00229601 0.00116944 0.000206371
5.08501e-20 -0.00145398 0.00233888 0.000227983
-2.1684e-19 -0.00270399 0.00116943 0.000209271
0 0.00354601 1.54868e-08 0.000205607
1.0842e-19 -0.000203995 0.00356872 0.000247452
0 -0.00395397 1.47352e-08 0.000209957
-1.0842e-19 0.002296 0.00356873 0.000246903
1.08543e-19 0.00354599 0.00233888 0.00022595
-1.0842e-19 -0.002704 0.00356872 0.000247986
5.16864e-20 -0.00395401 0.00233888 0.000228949
-6.13913e-20 0.001046 0.00479858 0.000239273
1.0842e-19 0.004796 0.00116944 0.000204842
-2.65624e-20 -0.001454 0.00479858 0.000239589
-1.0842e-19 -0.005204 0.00116943 0.000210643
-8.79827e-20 0.003546 0.00479858 0.000238949
1.0842e-19 0.004796 0.00356872 0.000246337
-1.65436e-24 0.006046 1.32897e-08 0.00020405
0 -0.000204 0.00608215 0.000231298
4.1359e-25 -0.003954 0.00479858 0.000239897
1.0842e-19 -0.005204 0.00356872 0.000248505
0 -0.006454 1.30614e-08 0.000211305
9.109e-20 0.00604599 0.00233888 0.000224881
0 0.002296 0.00608215 0.000231211
1.0842e-19 -0.002704 0.00608215 0.000231384
8.32574e-20 -0.006454 0.00233887 0.000229882
0 0.007296 0.00116943 0.000203258
-4.87021e-20 0.001046 0.00736572 0.000227025
-3.61046e-20 -0.001454 0.00736572 0.000227005
-6.41696e-20 0.006046 0.00479858 0.000238616
-1.0842e-19 0.004796 0.00608215 0.000231124
0 -0.00770401 0.00116943 0.000211966
0 -0.005204 0.00608215 0.000231471
6.12058e-20 -0.006454 0.00479858 0.000240197
2.1684e-19 0.007296 0.00356872 0.000245753
7.27234e-20 0.003546 0.00736572 0.000227048
0 -0.003954 0.00736572 0.000226987
1.0842e-19 -0.007704 0.00356872 0.000249009
-1.65436e-24 0.00854602 1.01674e-08 0.000202436
0 -0.000204 0.008656 0.000222723
3.0506e-20 0.008546 0.00233887 0.000223773
0 -0.00895401 1.13402e-08 0.000212604
1.0842e-19 0.002296 0.00865601 0.000222853
2.1684e-19 -0.002704 0.00865601 0.000222597
-1.73753e-20 -0.00895401 0.00233887 0.000230784
0 0.007296 0.00608215 0.000231036
-6.27586e-20 0.006046 0.00736572 0.000227072
5.05862e-21 -0.006454 0.00736572 0.000226971
-6.09576e-20 0.008546 0.00479858 0.000238273
-1.0842e-19 -0.007704 0.00608215 0.000231557
0 0.009796 0.00116944 0.000201613
0 0.004796 0.008656 0.000222988
-4.63851e-20 0.001046 0.00994629 0.000219307
9.72651e-21 -0.001454 0.00994629 0.000219113
1.0842e-19 -0.005204 0.00865601 0.000222477
-3.28411e-21 -0.008954 0.00479858 0.000240491
0 -0.010204 0.00116944 0.000213241
-2.1684e-19 0.009796 0.00356872 0.000245149
6.11923e-20 0.003546 0.00994629 0.000219508
8.14903e-20 -0.003954 0.00994629 0.000218925
0 -0.010204 0.00356873 0.000249501
0 0.011046 8.1473e-09 0.000200763
-1.0842e-19 -0.000204 0.011217 0.000215711
-6.65281e-21 0.008546 0.00736572 0.000227099
6.9075e-20 0.011046 0.00233887 0.000222625
-1.0842e-19 0.007296 0.008656 0.000223127
0 0.002296 0.011217 0.000215976
0 -0.011454 1.00102e-08 0.000213855
-1.0842e-19 0.009796 0.00608215 0.000230946
0 -0.002704 0.011217 0.000215455
0 -0.007704 0.00865601 0.000222361
-1.16074e-19 -0.008954 0.00736572 0.000226957
1.03364e-19 0.006046 0.00994629 0.000219715
4.90187e-21 -0.011454 0.00233887 0.000231655
5.32412e-20 -0.006454 0.00994629 0.000218744
1.0842e-19 -0.010204 0.00608215 0.000231643
1.04358e-19 0.011046 0.00479858 0.000237919
2.1684e-19 0.004796 0.011217 0.000216249
-2.1684e-19 0.012296 0.00116944 0.000199912
2.1684e-19 -0.005204 0.011217 0.000215207
-4.15844e-20 -0.011454 0.00479858 0.000240779
-4.95486e-20 0.001046 0.0124878 0.000211914
1.82458e-20 -0.001454 0.0124878 0.00021161
0 -0.012704 0.00116943 0.000214469
0 0.012296 0.00356873 0.000244526
-2.41021e-20 0.003546 0.0124878 0.000212229
0 0.009796 0.008656 0.000223271
-9.53899e-20 -0.003954 0.0124878 0.000211314
-2.58494e-26 0.008546 0.00994629 0.000219929
0 -0.012704 0.00356872 0.00024998
-5.16988e-26 0.011046 0.00736572 0.000227126
1.0842e-19 -0.010204 0.008656 0.00022225
0 0.007296 0.011217 0.00021653
1.03448e-19 -0.008954 0.00994629 0.000218569
8.27181e-25 0.013546 6.90219e-09 0.000199031
0 -0.007704 0.011217 0.000214967
7.6245e-20 -0.011454 0.00736572 0.000226947
0 0.012296 0.00608215 0.000230855
0 -0.000204 0.0137433 0.000207823
-1.43847e-21 0.013546 0.00233887 0.000221438
6.23766e-20 0.006046 0.0124878 0.000212555
0 0.002296 0.0137433 0.000208177
0 -0.013954 8.61294e-09 0.00021506
-1.0842e-19 -0.002704 0.0137433 0.00020748
5.10456e-20 -0.006454 0.0124878 0.000211028
-1.0842e-19 -0.012704 0.00608215 0.00023173
-2.34615e-20 -0.013954 0.00233887 0.000232497
9.32818e-20 0.013546 0.00479858 0.000237554
0 0.004796 0.0137433 0.000208545
-1.0842e-19 -0.005204 0.0137433 0.000207146
0 -0.013954 0.00479858 0.00024106
3.25261e-19 0.014796 0.00116944 0.00019815
-1.29247e-26 0.011046 0.00994629 0.000220148
0 0.009796 0.011217 0.000216819
-1.90307e-20 0.001046 0.0149988 0.00020323
-1.0842e-19 0.012296 0.008656 0.000223418
1.04505e-19 -0.001454 0.0149988 0.000202848
-1.06374e-19 0.008546 0.0124878 0.000212888
1.0842e-19 -0.010204 0.011217 0.000214734
-5.3168e-20 -0.011454 0.00994629 0.0002184
0 0.014796 0.00356872 0.00024388
1.0842e-19 -0.015204 0.00116943 0.000215651
7.23021e-20 -0.008954 0.0124878 0.00021075
0 -0.012704 0.008656 0.000222144
-8.82354e-21 0.003546 0.0149988 0.000203625
0 0.013546 0.00736572 0.000227154
-8.20398e-20 -0.003954 0.0149988 0.000202478
1.0842e-19 0.007296 0.0137433 0.000208925
-1.0842e-19 -0.015204 0.00356872 0.000250448
0 0.0148798 0.00479858 0.000237352
0 0.0138282 0.00736572 0.000227158
-1.0842e-19 -0.007704 0.0137433 0.000206823
-3.23117e-27 -0.013954 0.00736572 0.000226938
1.29247e-26 -0.0152493 0.00479858 0.000241203
1.0842e-19 0.014796 0.00608215 0.000230761
8.27181e-25 0.016046 5.10446e-09 0.000197237
-3.23117e-27 -0.0143632 0.00736572 0.000226937
1.20733e-19 0.006046 0.0149988 0.000204034
2.58494e-26 0.016046 0.00233887 0.000220208
-1.0842e-19 -0.000204 0.0162494 0.000198255
8.74269e-20 -0.006454 0.0149988 0.00020212
-2.06795e-25 0.0162013 0.00233887 0.000220129
0 -0.015204 0.00608215 0.000231818
-2.58494e-26 0.016046 0.00331439 0.000226937
0 0.002296 0.0162494 0.000198677
0 0.013546 0.00927608 0.000222134
0 -0.016454 7.35239e-09 0.000216219
-1.0842e-19 -0.002704 0.0162494 0.000197847
0 0.0132413 0.00994629 0.000220346
2.66092e-20 -0.016454 0.00233887 0.000233311
1.0842e-19 0.012296 0.011217 0.000217115
3.79047e-20 0.011046 0.0124878 0.00021323
0 0.016046 0.00479858 0.000237175
1.61559e-27 0.013546 0.00994629 0.000220373
0 0.0168588 0 0.000196634
0 0.009796 0.0137433 0.00020931
0 0.004796 0.0162494 0.000199113
-1.44746e-19 -0.011454 0.0124878 0.000210482
1.0842e-19 -0.012704 0.011217 0.000214509
-2.58494e-26 -0.016454 0.00425899 0.000239576
0 -0.005204 0.0162494 0.000197452
0 -0.010204 0.0137433 0.00020651
4.40724e-20 -0.013954 0.00994629 0.000218237
-2.58494e-26 -0.016454 0.00479858 0.000241336
2.1684e-19 0.014796 0.008656 0.00022357
-4.03897e-27 -0.0140935 0.00994629 0.000218228
5.34705e-20 0.008546 0.0149988 0.000204454
-1.0842e-19 0.017296 0.00116943 0.000196325
1.0958e-20 -0.008954 0.0149988 0.000201772
1.0842e-19 -0.015204 0.008656 0.000222043
-1.91606e-20 0.001046 0.0175 0.000192736
8.08399e-20 -0.001454 0.0175 0.00019229
8.60369e-21 0.016046 0.00736572 0.000227183
-1.0842e-19 0.017296 0.00356872 0.000243212
0 -0.017704 0.00116943 0.000216788
-1.0842e-19 0.007296 0.0162494 0.000199564
8.08393e-20 0.003546 0.0175 0.000193196
-1.91544e-20 -0.003954 0.0175 0.000191859
1.0842e-19 -0.007704 0.0162494 0.000197071
0 0.0129674 0.0124878 0.0002135
-2.58494e-26 -0.016454 0.00736572 0.000226932
-1.0842e-19 -0.017704 0.00356873 0.000250904
-1.0842e-19 0.017296 0.00608215 0.000230664
8.07794e-28 0.013546 0.0124878 0.000213582
-1.0842e-19 0.012296 0.0137433 0.000209706
1.42061e-19 0.006046 0.0175 0.000193671
-1.65436e-24 0.018546 1.05965e-08 0.00019538
1.0842e-19 0.014796 0.011217 0.000217421
-2.01948e-28 0.011046 0.0149988 0.000204886
0 -0.013954 0.0123475 0.000210664
-1.9158e-20 -0.006454 0.0175 0.000191443
0 -0.0139078 0.0124878 0.000210226
0 0.018546 0.00233887 0.000218934
-1.0842e-19 -0.012704 0.0137433 0.000206206
0 -0.017704 0.00608215 0.000231905
0 -0.013954 0.0124878 0.000210221
0 -0.000204 0.01875 0.000186764
0 -0.011454 0.0149988 0.000201434
-6.6779e-20 0.016046 0.00994629 0.000220604
1.0842e-19 0.002296 0.01875 0.000187248
0 -0.015204 0.011217 0.000214292
0 -0.002704 0.01875 0.000186297
0 -0.018954 6.98088e-09 0.000217335
-1.0842e-19 0.009796 0.0162494 0.00020003
1.93152e-20 -0.018954 0.00233887 0.000234097
-2.06795e-25 0.018546 0.00479858 0.000236784
-2.1684e-19 -0.010204 0.0162494 0.000196697
6.46235e-27 -0.016454 0.00994629 0.00021808
0 -0.018954 0.00379254 0.000238535
0 0.017296 0.00865601 0.000223725
1.0842e-19 0.004796 0.01875 0.000187747
0 -0.005204 0.01875 0.000185845
8.084e-20 0.008546 0.0175 0.00019416
5.16988e-26 -0.018954 0.00479858 0.000241606
1.58401e-19 -0.008954 0.0175 0.00019104
-1.0842e-19 -0.017704 0.00865601 0.000221945
0 0.0128206 0.0149988 0.000205202
-1.0842e-19 0.019796 0.00116944 0.000194435
-4.83916e-20 0.018546 0.00736572 0.000227213
-1.91544e-20 0.001046 0.02 0.000180297
8.08456e-20 -0.001454 0.02 0.000179804
0 0.019796 0.00356872 0.000242518
-1.0842e-19 0.007296 0.01875 0.000188261
1.0842e-19 0.014796 0.0137433 0.000210115
0 0.013546 0.0149988 0.000205331
-1.0842e-19 -0.020204 0.00116943 0.000217883
-1.0842e-19 -0.007704 0.01875 0.000185408
1.26218e-29 -0.0136771 0.0149988 0.000201143
5.84013e-20 0.003546 0.02 0.000180807
0 0.016046 0.0124878 0.000213943
-2.58494e-26 -0.018954 0.00736572 0.000226928
0 0.012296 0.0162494 0.00020051
-1.91544e-20 -0.003954 0.02 0.000179327
-1.26218e-29 -0.013954 0.0149988 0.000201107
1.0842e-19 -0.015204 0.0137433 0.000205912
0 -0.020204 0.00356872 0.000251349
-1.0842e-19 0.017296 0.011217 0.000217731
0 -0.012704 0.0162494 0.000196335
0 -0.016454 0.0124878 0.000209968
-1.9158e-20 0.011046 0.0175 0.000194662
1.0842e-19 0.019796 0.00608215 0.000230565
-1.91544e-20 0.006046 0.02 0.000181332
5.84007e-20 -0.011454 0.0175 0.000190649
-1.0842e-19 -0.017704 0.011217 0.00021408
-1.91544e-20 -0.006454 0.02 0.000178865
-2.58494e-26 0.018546 0.00994629 0.00022084
0 0.021046 1.24254e-08 0.000193457
-1.0842e-19 -0.020204 0.00608215 0.000231992
1.0842e-19 0.009796 0.01875 0.000188787
0 0.021046 0.00233888 0.000217614
0 -0.000204 0.02125 0.000173329
0 -0.010204 0.01875 0.000184986
1.0842e-19 0.002296 0.02125 0.000173849
-1.29247e-26 -0.018954 0.00994629 0.000217927
1.0842e-19 -0.002704 0.02125 0.000172827
0 -0.021454 7.94194e-09 0.000218408
1.27918e-19 -0.021454 0.00233887 0.000234856
2.06795e-25 0.021046 0.00479858 0.000236378
1.0842e-19 0.019796 0.008656 0.000223884
8.08456e-20 0.008546 0.02 0.000181872
0 0.004796 0.02125 0.000174385
0 -0.005204 0.02125 0.00017234
-1.91544e-20 -0.008954 0.02 0.000178417
0 -0.021454 0.00459418 0.000241288
2.01948e-28 0.016046 0.0149988 0.000205789
0 0.014796 0.0162494 0.000201004
0 -0.020204 0.008656 0.000221851
-2.58494e-26 -0.021454 0.00479858 0.000241871
-3.9443e-29 0.013546 0.017442 0.000195415
0 0.017296 0.0137433 0.000210536
8.08476e-20 0.013546 0.0175 0.000195179
-4.73317e-30 -0.013954 0.0172412 0.000191391
-1.0842e-19 -0.015204 0.0162494 0.000195986
0 -0.016454 0.0149988 0.000200788
-3.79057e-20 0.021046 0.00736572 0.000227242
-1.0842e-19 0.022296 0.00116944 0.000192479
0 0.018546 0.0124878 0.000214314
5.84013e-20 -0.013954 0.0175 0.00019027
0 -0.017704 0.0137433 0.000205625
0 0.012296 0.01875 0.000189326
1.0842e-19 0.007296 0.02125 0.000174937
8.08456e-20 0.001046 0.0225 0.000165922
8.08456e-20 -0.001454 0.0225 0.000165401
0 0.022296 0.00356873 0.000241799
0 -0.007704 0.02125 0.000171868
-1.0842e-19 -0.012704 0.01875 0.000184578
0 -0.021454 0.00736572 0.000226925
0 -0.018954 0.0124878 0.000209723
0 -0.022704 0.00116943 0.000218934
-1.29247e-26 -0.0222244 0.00479858 0.000241951
0 0.019796 0.011217 0.000218052
5.84013e-20 0.003546 0.0225 0.000166461
8.08456e-20 -0.003954 0.0225 0.000164896
1.58401e-19 0.011046 0.02 0.000182427
0 -0.022704 0.00356872 0.000251783
1.58401e-19 -0.011454 0.02 0.000177982
1.0842e-19 -0.020204 0.011217 0.000213875
0 0.022296 0.00608215 0.000230463
0 0.021046 0.00994629 0.000221083
-1.91544e-20 0.006046 0.0225 0.000167017
-1.0842e-19 0.009796 0.02125 0.000175506
-1.91544e-20 -0.006454 0.0225 0.000164406
0 -0.022704 0.00608215 0.00023208
0 0.023546 1.31505e-08 0.000191466
0 -0.010204 0.02125 0.000171407
0 -0.021454 0.00994629 0.000217779
0 0.023546 0.00233888 0.000216248
1.57772e-30 0.016046 0.0174837 0.000195777
0 0.017296 0.0162494 0.000201514
0 0.016046 0.0175 0.000195712
0 -0.000204 0.02375 0.000157986
4.03897e-28 0.018546 0.0149988 0.000206261
1.0842e-19 0.002296 0.02375 0.000158526
0 0.014796 0.01875 0.00018988
0 -0.002704 0.02375 0.000157462
0 0.022296 0.00865601 0.000224047
-1.65436e-24 -0.023954 9.6474e-09 0.000219439
-5.83757e-29 -0.016454 0.0174745 0.000190014
0 -0.016454 0.0175 0.000189903
0 0.023546 0.00479858 0.000235957
-1.0842e-19 -0.017704 0.0162494 0.000195646
-1.36562e-19 -0.023954 0.00233887 0.000235588
8.08456e-20 0.008546 0.0225 0.00016759
-1.0842e-19 0.019796 0.0137433 0.000210967
1.0842e-19 -0.015204 0.01875 0.000184184
-1.91544e-20 0.013546 0.02 0.000182997
0 -0.018954 0.0149988 0.000200479
-1.91544e-20 -0.008954 0.0225 0.000163929
0 0.004796 0.02375 0.000159085
1.0842e-19 -0.022704 0.008656 0.00022176
-1.0842e-19 -0.005204 0.02375 0.000156954
-1.91544e-20 -0.013954 0.02 0.000177559
5.56351e-20 -0.023954 0.00479858 0.000242131
-2.1684e-19 -0.020204 0.0137433 0.000205346
0 0.021046 0.0124878 0.000214696
-1.0842e-19 0.012296 0.02125 0.000176091
1.03398e-25 0.023546 0.00736572 0.000227272
0 -0.012704 0.02125 0.000170957
1.0842e-19 0.024796 0.00116944 0.000190454
0 -0.021454 0.0124878 0.000209484
0 -0.023954 0.00654325 0.000231796
1.0842e-19 0.007296 0.02375 0.000159661
1.0842e-19 0.022296 0.011217 0.000218381
-1.0842e-19 -0.007704 0.02375 0.000156461
-1.91544e-20 0.001046 0.025 0.000149674
8.08456e-20 -0.001454 0.025 0.000149139
0 0.024796 0.00356872 0.000241052
0 -0.023954 0.00736572 0.000226924
1.58401e-19 0.011046 0.0225 0.000168181
2.1684e-19 -0.025204 0.00116944 0.000219944
1.58401e-19 -0.011454 0.0225 0.000163464
-1.91544e-20 0.003546 0.025 0.000150227
8.08456e-20 -0.003954 0.025 0.00014862
-2.1684e-19 -0.022704 0.011217 0.000213675
0 -0.025204 0.00356872 0.000252209
3.31322e-29 0.018546 0.0174888 0.000196304
0 0.018546 0.0175 0.00019626
0 0.017296 0.01875 0.00019045
1.0842e-19 0.024796 0.00608215 0.000230357
0 0.023546 0.00994629 0.000221332
1.0842e-19 0.019796 0.0162494 0.000202039
8.08456e-20 0.016046 0.02 0.000183584
-1.0842e-19 0.009796 0.02375 0.000160256
-1.91544e-20 0.006046 0.025 0.000150799
9.15079e-29 -0.018954 0.017485 0.000189613
-1.0842e-19 -0.017704 0.01875 0.000183801
8.08456e-20 -0.018954 0.0175 0.000189547
8.08456e-20 -0.006454 0.025 0.000148118
0 0.021046 0.0149988 0.000206746
0 -0.010204 0.02375 0.000155981
-1.0842e-19 0.014796 0.02125 0.000176693
8.08456e-20 -0.016454 0.02 0.000177149
0 -0.025204 0.00608215 0.000232167
0 -0.020204 0.0162494 0.000195315
8.92812e-20 -0.023954 0.00994629 0.000217636
1.65436e-24 0.026046 1.21855e-08 0.000189407
-1.0842e-19 -0.015204 0.02125 0.000170519
7.01011e-20 0.026046 0.00233887 0.000214832
4.03897e-28 -0.021454 0.0149988 0.000200179
0 0.022296 0.0137433 0.00021141
0 -0.000204 0.02625 0.000140818
-1.91544e-20 0.013546 0.0225 0.00016879
0 0.024796 0.008656 0.000224213
0 0.002296 0.02625 0.000141366
1.0842e-19 -0.002704 0.02625 0.000140289
-1.91544e-20 0.008546 0.025 0.00015139
0 -0.026454 1.02881e-08 0.00022043
8.08456e-20 -0.013954 0.0225 0.000163011
1.33585e-19 0.026046 0.00479858 0.00023552
0 -0.022704 0.0137433 0.000205075
8.08456e-20 -0.008954 0.025 0.00014763
-6.2436e-20 -0.026454 0.00233887 0.000236296
2.1684e-19 -0.025204 0.008656 0.000221673
0 0.023546 0.0124878 0.000215086
-1.0842e-19 0.004796 0.02625 0.000141932
0 0.012296 0.02375 0.000160871
0 -0.005204 0.02625 0.000139776
-9.43353e-20 -0.026454 0.00479858 0.000242386
-1.0842e-19 -0.012704 0.02375 0.000155512
0 -0.023954 0.0124878 0.000209251
0 0.026046 0.00736572 0.000227302
0 0.024796 0.011217 0.000218715
-1.0842e-19 0.007296 0.02625 0.000142519
0 0.019796 0.01875 0.000191038
-1.57772e-30 0.018546 0.02 0.000184188
-2.1684e-19 0.027296 0.00116944 0.000188359
-1.91544e-20 0.011046 0.025 0.000152002
1.29247e-26 -0.026454 0.00694427 0.000229464
0 -0.007704 0.02625 0.00013928
0 0.021046 0.0174904 0.000196862
0 0.021046 0.0175 0.000196824
-1.0842e-19 0.017296 0.02125 0.000177312
-1.29247e-26 -0.026454 0.00736572 0.000226926
1.58401e-19 -0.011454 0.025 0.000147156
1.58401e-19 0.001046 0.0275 0.00013171
0 0.027296 0.00356872 0.000240276
1.58401e-19 -0.001454 0.0275 0.000131177
8.08456e-20 -0.018954 0.02 0.000176751
-1.0842e-19 -0.020204 0.01875 0.000183429
0 -0.025204 0.011217 0.000213481
0 0.022296 0.0162494 0.000202579
8.08456e-20 0.016046 0.0225 0.000169417
0 -0.017704 0.02125 0.000170094
1.51461e-28 -0.021454 0.0174873 0.000189256
0 -0.021454 0.0175 0.0001892
1.58401e-19 0.003546 0.0275 0.000132262
-1.0842e-19 -0.027704 0.00116943 0.000220916
-9.67102e-20 -0.003954 0.0275 0.000130662
3.28979e-21 -0.016454 0.0225 0.000162571
0 0.026046 0.00994629 0.000221584
0 0.023546 0.0149988 0.000207245
-1.0842e-19 -0.022704 0.0162494 0.000194993
-2.1684e-19 -0.027704 0.00356872 0.000252624
-2.1684e-19 0.027296 0.00608215 0.000230248
0 0.014796 0.02375 0.000161505
-1.0842e-19 0.009796 0.02625 0.000143126
-1.91544e-20 0.006046 0.0275 0.000132834
1.0842e-19 -0.010204 0.02625 0.0001388
0 -0.015204 0.02375 0.000155057
3.28979e-21 -0.006454 0.0275 0.000130165
-1.29247e-26 -0.026454 0.00994629 0.000217498
0 -0.023954 0.0149988 0.000199886
-1.0842e-19 0.024796 0.0137433 0.000211866
0 -0.027704 0.00608215 0.000232255
1.58401e-19 0.013546 0.025 0.000152633
-1.65436e-24 0.028546 9.91191e-09 0.000187276
1.58401e-19 -0.013954 0.025 0.000146696
1.0842e-19 0.027296 0.00865601 0.000224382
9.75076e-20 0.028546 0.00233887 0.000213365
0 -0.025204 0.0137433 0.00020481
0 -0.000204 0.02875 0.000122059
-1.91544e-20 0.008546 0.0275 0.000133428
0 0.002296 0.02875 0.000122596
-1.0842e-19 -0.002704 0.02875 0.000121541
-3.23117e-27 0.026046 0.0124878 0.000215486
-1.91544e-20 -0.008954 0.0275 0.000129685
-8.8438e-20 0.028546 0.00479858 0.000235066
1.65436e-24 -0.028954 9.37348e-09 0.000221375
0 0.012296 0.02625 0.000143754
0 -0.027704 0.008656 0.00022159
1.58401e-19 0.021046 0.02 0.000184809
1.0842e-19 0.019796 0.02125 0.000177951
-3.26281e-20 -0.028954 0.00233887 0.000236977
-1.0842e-19 0.022296 0.01875 0.000191642
-1.0842e-19 0.004796 0.02875 0.000123154
-1.91544e-20 0.018546 0.0225 0.000170064
0 -0.012704 0.02625 0.000138334
1.0842e-19 -0.005204 0.02875 0.000121042
3.23117e-27 -0.026454 0.0124878 0.000209025
0 -0.020204 0.02125 0.000169681
8.08456e-20 -0.021454 0.02 0.000176364
1.10441e-29 0.023546 0.0174904 0.000197442
-1.9149e-20 0.023546 0.0175 0.000197404
-1.64808e-19 -0.028954 0.00479858 0.000242637
0 0.017296 0.02375 0.000162159
-1.91544e-20 -0.018954 0.0225 0.000162143
0 -0.022704 0.01875 0.000183067
-5.16988e-26 0.028546 0.00736572 0.000227333
0 0.027296 0.011217 0.000219055
1.0842e-19 -0.017704 0.02375 0.000154615
5.84013e-20 0.011046 0.0275 0.000134043
-1.0842e-19 0.024796 0.0162494 0.000203133
0 -0.023954 0.0174875 0.000188918
-1.0842e-19 0.007296 0.02875 0.000123733
0 -0.023954 0.0175 0.000188863
-1.29247e-26 -0.028954 0.00659417 0.00023165
1.58401e-19 0.016046 0.025 0.000153286
-1.0842e-19 -0.007704 0.02875 0.000120562
-1.91544e-20 -0.011454 0.0275 0.00012922
2.1684e-19 0.029796 0.00116944 0.000186192
-1.29247e-26 -0.028954 0.00736572 0.000226929
-1.0842e-19 -0.027704 0.011217 0.000213292
-1.91544e-20 -0.016454 0.025 0.00014625
-1.0842e-19 -0.025204 0.0162494 0.000194679
-1.0842e-19 0.029796 0.00356872 0.000239468
8.08456e-20 0.001046 0.03 0.000112461
8.08456e-20 -0.001454 0.03 0.00011195
0 0.026046 0.0149988 0.000207755
0 0.014796 0.02625 0.000144404
-1.91544e-20 0.003546 0.03 0.000112993
0 -0.030204 0.00116943 0.000221835
1.29247e-26 0.028546 0.00994629 0.000221842
-9.67102e-20 -0.003954 0.03 0.000111459
-1.0842e-19 -0.015204 0.02625 0.000137883
0 0.009796 0.02875 0.000124334
0 -0.026454 0.0149988 0.0001996
-1.0842e-19 0.029796 0.00608215 0.000230135
1.0842e-19 -0.030204 0.00356872 0.00025303
-1.0842e-19 -0.010204 0.02875 0.000120098
1.0842e-19 0.027296 0.0137433 0.000212334
-1.91544e-20 0.006046 0.03 0.000113545
0 -0.028954 0.00994629 0.000217364
5.84013e-20 0.013546 0.0275 0.000134681
3.28979e-21 -0.006454 0.03 0.000110986
0 0.022296 0.02125 0.000178608
1.58401e-19 0.021046 0.0225 0.000170731
-1.0842e-19 -0.030204 0.00608215 0.000232344
1.58401e-19 -0.013954 0.0275 0.000128771
5.84013e-20 0.023546 0.02 0.00018545
0 0.019796 0.02375 0.000162834
0 -0.027704 0.0137433 0.000204552
-1.0842e-19 0.029796 0.008656 0.000224556
0 0.031046 8.13302e-09 0.000185072
0 0.024796 0.01875 0.000192264
1.58401e-19 -0.021454 0.0225 0.000161728
0 -0.022704 0.02125 0.00016928
8.08456e-20 0.018546 0.025 0.00015396
0 0.031046 0.00233887 0.000211845
0 0.028546 0.0124878 0.000215895
1.0842e-19 -0.020204 0.02375 0.000154185
5.84013e-20 0.008546 0.03 0.00011412
-9.67102e-20 -0.023954 0.02 0.000175988
0 -0.000204 0.03125 0.000102343
-1.0842e-19 0.012296 0.02875 0.000124959
8.08456e-20 -0.008954 0.03 0.00011053
0 0.002296 0.03125 0.000102848
0 -0.002704 0.03125 0.000101859
-1.91544e-20 -0.018954 0.025 0.000145816
-1.57772e-30 0.026046 0.0174889 0.000198042
5.84013e-20 0.026046 0.0175 0.000197999
0 -0.025204 0.01875 0.000182716
0 0.031046 0.00479858 0.000234594
1.0842e-19 -0.030204 0.008656 0.00022151
0 -0.012704 0.02875 0.00011965
0 0.017296 0.02625 0.000145076
0 -0.031454 8.26335e-09 0.000222345
-3.23117e-27 -0.028954 0.0124878 0.000208804
5.73302e-20 -0.031454 0.00233887 0.000237665
-1.0842e-19 0.004796 0.03125 0.000103374
-1.0842e-19 -0.017704 0.02625 0.000137445
-1.0842e-19 -0.005204 0.03125 0.000101393
-8.83524e-29 -0.026454 0.017487 0.000188592
8.08497e-20 -0.026454 0.0175 0.000188534
0 0.027296 0.0162494 0.000203697
7.69326e-20 -0.031454 0.00479858 0.000242884
1.0842e-19 0.029796 0.011217 0.000219404
1.58401e-19 0.016046 0.0275 0.000135341
-3.23117e-27 -0.031454 0.00522866 0.000240212
-2.58494e-26 0.031046 0.00736572 0.000227363
1.58401e-19 0.011046 0.03 0.000114717
1.58401e-19 -0.016454 0.0275 0.000128334
0 0.007296 0.03125 0.000103921
-1.91544e-20 -0.011454 0.03 0.00011009
0 -0.027704 0.0162494 0.000194372
-1.0842e-19 -0.007704 0.03125 0.000100945
1.0842e-19 -0.030204 0.011217 0.000213109
-5.63223e-21 0.028546 0.0149988 0.000208277
0 -0.031454 0.00736572 0.000226935
0 0.032296 0.00116944 0.000183951
-1.0842e-19 0.014796 0.02875 0.000125607
1.0842e-19 0.032296 0.00356872 0.000238627
-1.91544e-20 0.001046 0.0325 9.28623e-05
-1.0842e-19 -0.015204 0.02875 0.000119216
-9.67102e-20 -0.001454 0.0325 9.23931e-05
-1.91544e-20 0.023546 0.0225 0.000171419
0 0.022296 0.02375 0.000163532
-6.46235e-27 0.031046 0.00994629 0.000222107
4.03897e-28 -0.028954 0.0149988 0.000199322
0 0.024796 0.02125 0.000179287
3.28979e-21 0.021046 0.025 0.000154657
-9.67102e-20 0.003546 0.0325 9.33515e-05
0 -0.032704 0.00116943 0.000222855
8.08456e-20 -0.003954 0.0325 9.19428e-05
-1.0842e-19 0.009796 0.03125 0.000104491
0 0.029796 0.0137433 0.000212814
5.84013e-20 0.026046 0.02 0.000186109
1.0842e-19 -0.022704 0.02375 0.000153768
-1.0842e-19 0.032296 0.00608215 0.000230019
-9.67102e-20 -0.023954 0.0225 0.000161325
0 -0.010204 0.03125 0.000100515
0 0.019796 0.02625 0.000145771
-1.0842e-19 -0.032704 0.00356873 0.00025343
-1.91544e-20 0.013546 0.03 0.000115338
3.28979e-21 -0.021454 0.025 0.000145393
0 -0.025204 0.02125 0.00016889
0 -0.031454 0.00994629 0.000217235
8.08456e-20 0.006046 0.0325 9.38615e-05
8.08456e-20 -0.013954 0.03 0.000109665
0 0.027296 0.01875 0.000192903
-1.0842e-19 -0.020204 0.02625 0.000137018
-1.91544e-20 -0.006454 0.0325 9.15103e-05
3.28979e-21 -0.026454 0.02 0.000175623
8.08456e-20 0.018546 0.0275 0.000136025
1.0842e-19 -0.030204 0.0137433 0.000204302
1.0842e-19 -0.032704 0.00608215 0.000232433
8.08456e-20 -0.018954 0.0275 0.00012791
-2.1684e-19 0.032296 0.008656 0.000224734
1.0842e-19 -0.027704 0.01875 0.000182373
2.55382e-20 0.031046 0.0124878 0.000216315
-4.73317e-29 0.028546 0.0174847 0.000198667
-1.57772e-30 0.028546 0.0175 0.000198608
0 0.033546 8.11061e-09 0.000182793
-1.0842e-19 0.017296 0.02875 0.000126279
1.0842e-19 0.012296 0.03125 0.000105085
5.84013e-20 0.008546 0.0325 9.43931e-05
0 0.033546 0.00233887 0.000210271
-1.91544e-20 -0.008954 0.0325 9.10946e-05
-1.0842e-19 -0.012704 0.03125 0.000100099
0 -0.000204 0.03375 8.29027e-05
-1.0842e-19 -0.017704 0.02875 0.000118794
-1.26218e-29 -0.028954 0.0174857 0.000188277
0 0.002296 0.03375 8.33559e-05
-1.0842e-19 -0.032704 0.008656 0.000221434
0 -0.028954 0.0175 0.000188214
0 -0.031454 0.0124878 0.000208591
-1.0842e-19 -0.002704 0.03375 8.24682e-05
0 0.033546 0.00479858 0.000234103
1.0842e-19 0.029796 0.0162494 0.000204275
0 -0.033954 7.88963e-09 0.00022341
-1.91544e-20 0.016046 0.03 0.000115984
3.37515e-20 -0.033954 0.00233887 0.0002384
-1.0842e-19 0.004796 0.03375 8.3829e-05
0 -0.005204 0.03375 8.20515e-05
1.0842e-19 0.032296 0.011217 0.000219762
-9.67102e-20 -0.016454 0.03 0.000109254
2.72011e-20 -0.033954 0.00479858 0.00024313
1.0842e-19 -0.030204 0.0162494 0.000194074
1.58401e-19 0.011046 0.0325 9.49472e-05
-1.0842e-19 0.024796 0.02375 0.000164251
8.08456e-20 0.023546 0.025 0.000155377
2.58494e-26 0.033546 0.00736572 0.000227394
1.58401e-19 0.026046 0.0225 0.000172129
-1.0842e-19 0.022296 0.02625 0.000146491
1.58401e-19 -0.011454 0.0325 9.06946e-05
1.7236e-20 0.031046 0.0149988 0.000208813
0 -0.033954 0.00602802 0.000235378
0 0.007296 0.03375 8.43225e-05
-2.1684e-19 -0.032704 0.011217 0.000212931
0 0.014796 0.03125 0.000105703
0 0.027296 0.02125 0.000179985
0 -0.007704 0.03375 8.16516e-05
-3.54881e-20 -0.023954 0.025 0.000144982
-3.54881e-20 0.021046 0.0275 0.000136734
1.0842e-19 -0.025204 0.02375 0.000153361
-1.0842e-19 -0.022704 0.02625 0.000136603
3.28979e-21 -0.026454 0.0225 0.000160932
0 -0.033954 0.00736572 0.000226943
0 -0.015204 0.03125 9.96974e-05
2.1684e-19 0.034796 0.00116944 0.000181635
0 -0.031454 0.0149988 0.000199051
-1.91544e-20 0.028546 0.02 0.000186788
3.28979e-21 -0.021454 0.0275 0.000127497
0 0.019796 0.02875 0.000126976
0 -0.027704 0.02125 0.000168512
1.0842e-19 0.034796 0.00356872 0.000237751
-6.46235e-27 0.033546 0.00994629 0.000222379
8.08456e-20 0.001046 0.035 7.39793e-05
8.08456e-20 -0.001454 0.035 7.35642e-05
-1.0842e-19 0.032296 0.0137433 0.000213307
0 -0.020204 0.02875 0.000118384
-1.0842e-19 0.009796 0.03375 8.48377e-05
3.28979e-21 0.003546 0.035 7.44121e-05
-1.91544e-20 -0.028954 0.02 0.000175267
0 0.029796 0.01875 0.00019356
-3.54881e-20 0.013546 0.0325 9.55248e-05
1.58401e-19 -0.003954 0.035 7.31656e-05
-1.0842e-19 -0.035204 0.00116943 0.000223966
-1.0842e-19 -0.010204 0.03375 8.12675e-05
0 0.018546 0.03 0.000116654
4.1359e-25 0.035322 0 0.000181119
0 0.034796 0.00608215 0.000229898
-4.15987e-20 -0.013954 0.0325 9.03088e-05
0 -0.033954 0.00994629 0.00021711
0 -0.035204 0.00356873 0.000253829
1.0842e-19 -0.032704 0.0137433 0.000204058
-9.67102e-20 -0.018954 0.03 0.000108854
8.08456e-20 0.006046 0.035 7.48633e-05
-1.0842e-19 -0.030204 0.01875 0.000182038
5.84013e-20 -0.006454 0.035 7.27829e-05
-1.57772e-29 0.031046 0.0174753 0.000199328
-9.67102e-20 0.031046 0.0175 0.000199233
-1.0842e-19 0.017296 0.03125 0.000106346
0 -0.035204 0.00608215 0.000232523
-4.78217e-20 0.033546 0.0124878 0.000216747
-2.1684e-19 0.034796 0.00865601 0.000224916
0 -0.017704 0.03125 9.93079e-05
0 0.012296 0.03375 8.53751e-05
-1.0413e-28 -0.031454 0.0174805 0.000187989
-1.91513e-20 -0.031454 0.0175 0.000187902
-1.91544e-20 0.008546 0.035 7.5334e-05
4.1359e-25 0.036046 3.3064e-09 0.000180437
-1.0842e-19 -0.012704 0.03375 8.08976e-05
2.06795e-25 0.036046 0.00171503 0.000201117
-1.91544e-20 0.026046 0.025 0.000156121
0 0.024796 0.02625 0.000147235
-9.31081e-20 0.036046 0.00233887 0.00020864
5.84013e-20 -0.008954 0.035 7.24148e-05
-3.23117e-27 -0.0353819 0.00736572 0.000226949
-1.0842e-19 0.032296 0.0162494 0.000204865
8.07794e-28 -0.033954 0.0124878 0.000208383
-1.0842e-19 0.027296 0.02375 0.000164994
-9.67102e-20 0.023546 0.0275 0.000137469
-9.67102e-20 0.016046 0.0325 9.61265e-05
-1.0842e-19 -0.000204 0.03625 6.46324e-05
-1.0842e-19 -0.035204 0.008656 0.000221361
0 0.002296 0.03625 6.50263e-05
-9.67102e-20 0.028546 0.0225 0.000172862
-1.0842e-19 -0.002704 0.03625 6.42534e-05
-1.03398e-25 0.036046 0.00479858 0.000233591
-1.0842e-19 0.022296 0.02875 0.000127699
0 -0.025204 0.02625 0.000136197
3.28979e-21 -0.026454 0.025 0.00014458
5.84013e-20 -0.016454 0.0325 8.99357e-05
0 -0.036454 7.98331e-09 0.000224555
8.08456e-20 -0.023954 0.0275 0.000127094
0 -0.027704 0.02375 0.000152965
-1.0842e-19 -0.032704 0.0162494 0.000193784
3.46762e-20 -0.036454 0.00233887 0.000239175
-1.0842e-19 0.034796 0.011217 0.00022013
0 0.0365624 0 0.000179934
1.0842e-19 0.004796 0.03625 6.54371e-05
0 0.029796 0.02125 0.000180706
-1.0842e-19 -0.005204 0.03625 6.38895e-05
-1.0842e-19 -0.022704 0.02875 0.000117985
-3.54881e-20 0.021046 0.03 0.000117351
8.08456e-20 -0.028954 0.0225 0.00016055
-1.91544e-20 0.011046 0.035 7.5825e-05
-1.00974e-28 0.033546 0.0149988 0.000209362
-1.39374e-19 -0.036454 0.00479858 0.000243376
-5.16988e-26 0.036046 0.00736572 0.000227425
1.58401e-19 -0.011454 0.035 7.20603e-05
0 0.014796 0.03375 8.5936e-05
-9.67102e-20 -0.021454 0.03 0.000108465
1.0842e-19 -0.030204 0.02125 0.000168146
8.08456e-20 0.031046 0.02 0.000187487
1.0842e-19 -0.035204 0.011217 0.00021276
0 0.007296 0.03625 6.58647e-05
1.0842e-19 0.019796 0.03125 0.000107016
-1.0842e-19 -0.015204 0.03375 8.05411e-05
1.0842e-19 -0.007704 0.03625 6.35389e-05
1.61559e-27 -0.0357267 0.00994629 0.000217026
0 -0.033954 0.0149988 0.000198788
0 -0.036454 0.00736572 0.000226953
0 -0.020204 0.03125 9.89298e-05
-1.91544e-20 -0.031454 0.02 0.000174922
1.0842e-19 0.037296 0.00116944 0.00017924
0 0.032296 0.01875 0.000194235