# kMean  POINT_DATA 32307
# x  y  z  kMean
-1.68069e-08 -2.1684e-19 0 0.000203918
0.00104601 2.71051e-20 0 0.000203934
-0.00104603 -1.0842e-19 0 0.000203911
0.00145397 2.71051e-20 0 0.000203933
-0.00145399 -1.0842e-19 0 0.000203911
0.00124999 0 0.00116944 0.000205308
-0.00125001 9.03502e-21 0.00116944 0.000205291
-6.14363e-09 0 0.00233887 0.000223016
0.00249999 -2.1684e-19 0 0.000203932
-0.00250001 -2.1684e-19 0 0.000203906
-0.0025 0 0.00233887 0.000223091
0.0025 0 0.00233887 0.000222938
-0.00354602 -1.0842e-19 0 0.000203907
0.00354602 2.71051e-20 0 0.000203946
0.00125 9.03502e-21 0.00356873 0.000240323
-0.00125 9.03502e-21 0.00356873 0.000240481
-0.00375 -9.03502e-21 0.00116944 0.000205293
0.00375 -9.03502e-21 0.00116943 0.000205312
-0.00395398 0 0 0.000203905
0.00395398 2.71051e-20 0 0.000203941
-2.20276e-09 1.0842e-19 0.00479858 0.000233663
-0.00499999 -1.0842e-19 0 0.000203872
0.00500001 1.0842e-19 0 0.000203928
-0.00375 9.03502e-21 0.00356873 0.000240641
0.00375 -9.03502e-21 0.00356873 0.000240158
0.0025 1.0842e-19 0.00479858 0.000233493
-0.0025 1.0842e-19 0.00479858 0.000233833
-0.005 0 0.00233887 0.000223153
0.005 0 0.00233887 0.000222847
-0.00604601 0 0 0.000203844
0.00604603 -5.42101e-20 0 0.000203935
0.00125 -1.807e-20 0.00608215 0.000224948
-0.00125 -9.03502e-21 0.00608215 0.000225121
-0.00625 -9.03502e-21 0.00116943 0.000205234
0.00625001 -1.807e-20 0.00116944 0.000205294
-0.00645398 0 0 0.00020384
0.00645399 -5.42101e-20 0 0.000203928
0.005 1.0842e-19 0.00479858 0.000233319
-0.005 1.0842e-19 0.00479858 0.000233999
0.00375 2.71051e-20 0.00608215 0.00022478
-0.00375 -1.807e-20 0.00608215 0.000225294
0.00625 0 0.00356873 0.000239977
-0.00625 1.807e-20 0.00356873 0.000240789
-7.43098e-10 1.0842e-19 0.00736572 0.000219504
-0.0075 0 0 0.000203832
0.00750001 1.0842e-19 0 0.000203911
0.0025 1.0842e-19 0.00736572 0.000219347
-0.0025 1.0842e-19 0.00736572 0.000219667
-0.0075 1.0842e-19 0.00233887 0.000223206
0.0075 0 0.00233887 0.000222746
-0.00854601 -5.42101e-20 0 0.000203826
0.00854602 8.13152e-20 0 0.000203916
0.00625 0 0.00608215 0.000224613
-0.00625 -9.03502e-21 0.00608215 0.000225467
0.00125 2.71051e-20 0.008656 0.00021423
-0.00125 1.807e-20 0.00865601 0.000214378
-0.00875 -9.03502e-21 0.00116944 0.000205223
0.00875 -1.807e-20 0.00116944 0.00020527
0.005 1.0842e-19 0.00736572 0.000219197
-0.005 1.0842e-19 0.00736572 0.000219833
0.0075 1.0842e-19 0.00479858 0.000233142
-0.0075 1.0842e-19 0.00479858 0.000234159
0.00895399 8.13152e-20 0 0.000203909
-0.00895399 -5.42101e-20 0 0.000203822
0.00375 9.03502e-21 0.008656 0.000214091
-0.00375 -9.03502e-21 0.008656 0.000214533
0.00875 0 0.00356872 0.000239796
-0.00875 -9.03502e-21 0.00356873 0.000240923
-1.99308e-10 1.0842e-19 0.00994629 0.000210177
0.00999999 1.0842e-19 0 0.000203885
-0.01 0 0 0.000203792
0.0025 1.0842e-19 0.00994629 0.000210051
-0.0025 1.0842e-19 0.00994629 0.000210313
-0.01 1.0842e-19 0.00233887 0.000223255
0.01 0 0.00233887 0.000222637
0.0075 1.0842e-19 0.00736572 0.000219052
-0.0075 1.0842e-19 0.00736572 0.000220001
0.00875 -1.807e-20 0.00608215 0.000224447
-0.00875 -9.03502e-21 0.00608215 0.000225635
-0.00625 2.71051e-20 0.008656 0.00021469
0.00625 2.71051e-20 0.008656 0.000213964
0.011046 1.0842e-19 0 0.000203892
-0.011046 -8.13152e-20 0 0.000203763
0.01 1.0842e-19 0.00479858 0.000232963
-0.01 1.0842e-19 0.00479858 0.000234317
0.005 1.0842e-19 0.00994629 0.000209938
-0.005 1.0842e-19 0.00994629 0.000210454
0.00125 -9.03502e-21 0.011217 0.000206095
-0.00125 9.03502e-21 0.011217 0.000206209
0.01125 1.807e-20 0.00116943 0.000205239
-0.01125 2.71051e-20 0.00116944 0.000205163
0.011454 1.0842e-19 0 0.000203882
-0.011454 -8.13152e-20 0 0.000203753
0.01125 0 0.00356872 0.000239604
-0.01125 -9.03502e-21 0.00356872 0.000241061
-0.00375 2.71051e-20 0.011217 0.000206336
0.00375 -9.03502e-21 0.011217 0.00020599
0.00875 9.03502e-21 0.008656 0.000213844
-0.00875 2.71051e-20 0.008656 0.000214863
0.01 1.0842e-19 0.00736572 0.000218912
-0.01 1.0842e-19 0.00736572 0.000220176
0.0075 1.0842e-19 0.00994629 0.000209835
-0.0075 1.0842e-19 0.00994629 0.000210605
-3.50387e-11 1.0842e-19 0.0124878 0.000202081
0.0125 1.0842e-19 0 0.000203845
-0.0125 0 0 0.000203715
0.0125 0 0.00233887 0.000222517
-0.0125 1.0842e-19 0.00233887 0.000223286
0.0025 1.0842e-19 0.0124878 0.000202002
-0.0025 1.0842e-19 0.0124878 0.000202172
-0.01125 2.71051e-20 0.00608215 0.000225815
0.01125 9.03502e-21 0.00608215 0.000224281
0.00625 -2.71051e-20 0.011217 0.000205906
-0.00625 2.71051e-20 0.011217 0.000206461
0.0125 1.0842e-19 0.00479858 0.00023278
-0.0125 1.0842e-19 0.00479858 0.000234478
0.005 1.0842e-19 0.0124878 0.000201938
-0.005 1.0842e-19 0.0124878 0.000202274
-0.013546 -5.42101e-20 0 0.000203678
0.013546 8.13152e-20 0 0.000203833
0.01375 4.51751e-21 0.00116944 0.000205174
-0.01375 -2.71051e-20 0.00116944 0.000205085
0.00125 9.03502e-21 0.0137433 0.000197945
-0.00125 0 0.0137433 0.000197997
0.013954 -2.71051e-20 0 0.000203818
-0.013954 -5.42101e-20 0 0.000203668
0.01 1.0842e-19 0.00994629 0.000209742
-0.01 1.0842e-19 0.00994629 0.000210765
-0.01125 2.71051e-20 0.008656 0.000215035
0.01125 0 0.00865601 0.000213733
0.01375 4.51751e-21 0.00356872 0.000239406
-0.01375 9.03502e-21 0.00356873 0.000241193
0.00875 -9.03502e-21 0.011217 0.000205827
-0.00875 -9.03502e-21 0.011217 0.000206604
0.00375 1.807e-20 0.0137433 0.000197902
-0.00375 -9.03502e-21 0.0137433 0.000198065
0.0125 1.0842e-19 0.00736572 0.000218776
-0.0125 1.0842e-19 0.00736572 0.000220355
0.0075 1.0842e-19 0.0124878 0.000201887
-0.0075 1.0842e-19 0.0124878 0.000202385
-2.91796e-12 1.0842e-19 0.0149988 0.000193278
0.015 0 0 0.000203778
-0.015 0 0 0.000203641
0.01375 1.807e-20 0.00608215 0.000224118
-0.01375 -9.03502e-21 0.00608215 0.000225994
0.00625 9.03502e-21 0.0137433 0.000197876
-0.00625 1.807e-20 0.0137433 0.000198147
0.015 1.0842e-19 0.00233887 0.000222378
-0.015 1.0842e-19 0.00233887 0.000223318
0.0025 1.0842e-19 0.0149988 0.000193269
-0.0025 1.0842e-19 0.0149988 0.000193302
0.015 1.0842e-19 0.00479858 0.000232593
-0.015 1.0842e-19 0.00479858 0.000234638
0.005 1.0842e-19 0.0149988 0.000193275
-0.005 1.0842e-19 0.0149988 0.000193338
0.01125 9.03502e-21 0.011217 0.000205763
-0.01125 -9.03502e-21 0.011217 0.000206751
0.0125 1.0842e-19 0.00994629 0.00020966
-0.0125 1.0842e-19 0.00994629 0.000210931
0.01 1.0842e-19 0.0124878 0.000201847
-0.01 1.0842e-19 0.0124878 0.000202504
-0.016046 -5.42101e-20 0 0.000203615
0.016046 -5.42101e-20 0 0.000203762
0.01375 -1.807e-20 0.008656 0.000213629
-0.01375 -1.807e-20 0.008656 0.000215218
0.01625 -1.807e-20 0.00116944 0.000205096
-0.01625 0 0.00116944 0.000205029
0.00875 -1.807e-20 0.0137433 0.000197864
-0.00875 -9.03502e-21 0.0137433 0.000198236
0.00125 0 0.0162494 0.000188489
-0.00125 0 0.0162494 0.000188461
-0.016454 -5.42101e-20 0 0.000203604
0.016454 -5.42101e-20 0 0.000203744
0.01625 -2.71051e-20 0.00356872 0.0002392
-0.01625 2.71051e-20 0.00356872 0.000241328
-0.00375 1.807e-20 0.0162494 0.000188457
0.00375 1.807e-20 0.0162494 0.000188527
0.015 1.0842e-19 0.00736572 0.000218649
-0.015 1.0842e-19 0.00736572 0.00022054
0.0075 1.0842e-19 0.0149988 0.000193295
-0.0075 1.0842e-19 0.0149988 0.000193383
0.01625 -9.03502e-21 0.00608215 0.000223957
-0.01625 2.71051e-20 0.00608215 0.000226178
0.00625 9.03502e-21 0.0162494 0.000188583
-0.00625 -9.03502e-21 0.0162494 0.000188454
0.0175 0 0 0.000203701
-0.0175 0 0 0.000203565
-1.02403e-14 1.0842e-19 0.0175 0.000182925
0.0175 1.0842e-19 0.00233887 0.000222227
-0.0175 1.0842e-19 0.00233887 0.000223349
0.0125 1.0842e-19 0.0124878 0.000201822
-0.0125 1.0842e-19 0.0124878 0.000202631
0.0025 1.0842e-19 0.0175 0.000183005
-0.0025 1.0842e-19 0.0175 0.000182861
0.01375 -1.807e-20 0.011217 0.000205712
-0.01375 -1.807e-20 0.011217 0.000206911
-0.01125 9.03502e-21 0.0137433 0.000198328
0.01125 -1.807e-20 0.0137433 0.000197862
0.015 1.0842e-19 0.00994629 0.000209591
-0.015 1.0842e-19 0.00994629 0.000211107
0.01 1.0842e-19 0.0149988 0.00019333
-0.01 1.0842e-19 0.0149988 0.000193436
0.0175 1.0842e-19 0.00479858 0.0002324
-0.0175 1.0842e-19 0.00479858 0.0002348
0.005 1.0842e-19 0.0175 0.0001831
-0.005 1.0842e-19 0.0175 0.000182809
0.01625 -9.03502e-21 0.008656 0.000213542
-0.01625 0 0.008656 0.000215405
0.00875 -2.71051e-20 0.0162494 0.00018865
-0.00875 -1.807e-20 0.0162494 0.000188468
-0.018546 -5.42101e-20 0 0.000203529
0.018546 -5.42101e-20 0 0.000203688
-0.01875 9.03502e-21 0.00116944 0.000204951
0.01875 -3.61401e-20 0.00116944 0.000205017
0.00125 9.03502e-21 0.01875 0.000177306
-0.00125 0 0.01875 0.000177183
-0.018954 -5.42101e-20 0 0.000203518
0.018954 -5.42101e-20 0 0.00020367
0.0175 1.0842e-19 0.00736572 0.000218527
-0.0175 1.0842e-19 0.00736572 0.000220728
0.0075 1.0842e-19 0.0175 0.00018321
-0.0075 1.0842e-19 0.0175 0.000182767
-0.01875 -9.03502e-21 0.00356872 0.000241461
0.01875 -1.807e-20 0.00356872 0.000238969
-0.00375 9.03502e-21 0.01875 0.000177077
0.00375 -1.807e-20 0.01875 0.000177441
0.01375 -1.807e-20 0.0137433 0.000197876
-0.01375 -9.03502e-21 0.0137433 0.000198438
0.015 1.0842e-19 0.0124878 0.000201811
-0.015 1.0842e-19 0.0124878 0.000202771
0.0125 1.0842e-19 0.0149988 0.00019338
-0.0125 1.0842e-19 0.0149988 0.0001935
0.01875 -2.71051e-20 0.00608215 0.000223802
-0.01875 -1.807e-20 0.00608215 0.000226363
0.01625 -1.807e-20 0.011217 0.000205675
-0.01625 9.03502e-21 0.011217 0.000207078
-0.01125 -2.71051e-20 0.0162494 0.000188482
0.01125 -1.807e-20 0.0162494 0.000188738
-0.00625 -9.03502e-21 0.01875 0.000176981
0.00625 -1.807e-20 0.01875 0.000177592
-0.02 0 0 0.000203482
0.02 0 0 0.000203619
-1.02403e-14 1.0842e-19 0.02 0.000170798
0.0175 1.0842e-19 0.00994629 0.000209534
-0.0175 1.0842e-19 0.00994629 0.000211292
-0.02 1.0842e-19 0.00233887 0.00022337
0.02 1.0842e-19 0.00233887 0.000222066
0.0025 1.0842e-19 0.02 0.000170975
0.01 1.0842e-19 0.0175 0.000183335
-0.0025 1.0842e-19 0.02 0.000170637
-0.01 1.0842e-19 0.0175 0.000182736
0.02 1.0842e-19 0.00479858 0.000232202
-0.02 1.0842e-19 0.00479858 0.000234956
0.005 1.0842e-19 0.02 0.000171167
-0.005 1.0842e-19 0.02 0.000170489
0.01875 9.03502e-21 0.008656 0.000213457
-0.01875 -1.807e-20 0.008656 0.000215603
0.00875 -1.807e-20 0.01875 0.000177758
-0.00875 1.807e-20 0.01875 0.000176899
0.021046 -1.0842e-19 0 0.0002036
-0.021046 -5.42101e-20 0 0.000203451
0.015 1.0842e-19 0.0149988 0.000193447
-0.015 1.0842e-19 0.0149988 0.000193577
0.02125 -1.35525e-20 0.00116944 0.000204922
-0.02125 -3.61401e-20 0.00116944 0.000204879
0.01625 9.03502e-21 0.0137433 0.000197908
-0.01625 1.807e-20 0.0137433 0.000198558
0.01375 -9.03502e-21 0.0162494 0.00018884
-0.01375 2.71051e-20 0.0162494 0.000188518
0.00125 -1.807e-20 0.02125 0.000164329
-0.00125 -1.807e-20 0.02125 0.000164111
0.02 1.0842e-19 0.00736572 0.000218412
-0.02 1.0842e-19 0.00736572 0.000220921
0.0075 1.0842e-19 0.02 0.000171374
-0.0075 1.0842e-19 0.02 0.000170352
-0.021454 -5.42101e-20 0 0.000203439
0.021454 -5.42101e-20 0 0.000203576
0.0175 1.0842e-19 0.0124878 0.000201815
-0.0175 1.0842e-19 0.0124878 0.000202922
0.0125 1.0842e-19 0.0175 0.000183476
-0.0125 1.0842e-19 0.0175 0.000182716
0.02125 -1.807e-20 0.00356873 0.00023873
-0.02125 2.71051e-20 0.00356873 0.000241572
-0.00375 -1.807e-20 0.02125 0.000163914
0.00375 -1.807e-20 0.02125 0.000164561
0.01875 -1.807e-20 0.011217 0.000205655
-0.01875 9.03502e-21 0.011217 0.000207262
-0.01125 1.807e-20 0.01875 0.000176828
0.01125 1.807e-20 0.01875 0.00017794
0.02125 2.71051e-20 0.00608215 0.000223647
-0.02125 1.807e-20 0.00608215 0.000226546
0.00625 2.71051e-20 0.02125 0.000164808
-0.00625 -9.03502e-21 0.02125 0.000163721
0.02 1.0842e-19 0.00994629 0.00020949
-0.02 1.0842e-19 0.00994629 0.000211485
0.01 1.0842e-19 0.02 0.000171596
-0.01 1.0842e-19 0.02 0.000170226
-0.0225 0 0 0.000203391
0.0225 -1.0842e-19 0 0.000203503
-1.02402e-14 1.0842e-19 0.0225 0.000156904
-0.0225 1.0842e-19 0.00233887 0.000223384
0.0225 1.0842e-19 0.00233887 0.000221884
0.0025 1.0842e-19 0.0225 0.000157178
-0.0025 1.0842e-19 0.0225 0.000156647
0.02125 9.03502e-21 0.008656 0.000213391
-0.02125 9.03502e-21 0.008656 0.000215805
0.01625 0 0.0162494 0.000188958
-0.01625 9.03502e-21 0.0162494 0.000188561
0.00875 9.03502e-21 0.02125 0.000165074
-0.00875 2.71051e-20 0.02125 0.000163541
0.0225 1.0842e-19 0.00479858 0.000232003
-0.0225 1.0842e-19 0.00479858 0.000235109
0.0175 1.0842e-19 0.0149988 0.000193529
-0.0175 1.0842e-19 0.0149988 0.000193665
0.005 1.0842e-19 0.0225 0.000157468
-0.005 1.0842e-19 0.0225 0.000156403
0.015 1.0842e-19 0.0175 0.000183634
-0.015 1.0842e-19 0.0175 0.000182709
0.01875 -1.807e-20 0.0137433 0.000197955
-0.01875 9.03502e-21 0.0137433 0.000198688
0.01375 1.807e-20 0.01875 0.000178135
-0.01375 9.03502e-21 0.01875 0.000176769
0.023546 -5.42101e-20 0 0.000203468
-0.023546 -5.42101e-20 0 0.000203353
0.02 1.0842e-19 0.0124878 0.000201838
-0.02 1.0842e-19 0.0124878 0.000203083
0.0125 1.0842e-19 0.02 0.000171834
-0.0125 1.0842e-19 0.02 0.000170112
0.0225 1.0842e-19 0.00736572 0.000218306
-0.0225 1.0842e-19 0.00736572 0.00022112
0.0075 1.0842e-19 0.0225 0.000157773
-0.0075 1.0842e-19 0.0225 0.000156167
-0.02375 -1.807e-20 0.00116944 0.000204786
0.02375 -4.51751e-21 0.00116944 0.000204784
0.00125 1.807e-20 0.02375 0.000149617
-0.00125 -9.03502e-21 0.02375 0.000149304
-0.023954 -5.42101e-20 0 0.000203336
0.023954 -1.0842e-19 0 0.00020344
-0.02375 -9.03502e-21 0.00356872 0.000241689
0.02375 -9.03502e-21 0.00356873 0.000238486
0.02125 -1.807e-20 0.011217 0.000205652
-0.02125 9.03502e-21 0.011217 0.00020745
0.01125 -1.807e-20 0.02125 0.000165352
-0.01125 -1.807e-20 0.02125 0.000163371
0.00375 9.03502e-21 0.02375 0.000149949
-0.00375 -1.807e-20 0.02375 0.000149006
-0.02375 -9.03502e-21 0.00608215 0.000226734
0.02375 -9.03502e-21 0.00608215 0.000223505
-0.00625 2.71051e-20 0.02375 0.000148717
0.00625 9.03502e-21 0.02375 0.000150294
0.0225 1.0842e-19 0.00994629 0.000209461
-0.0225 1.0842e-19 0.00994629 0.000211687
0.01 1.0842e-19 0.0225 0.000158093
-0.01 1.0842e-19 0.0225 0.000155941
0.0175 1.0842e-19 0.0175 0.000183809
-0.0175 1.0842e-19 0.0175 0.000182714
-0.01875 1.807e-20 0.0162494 0.000188617
0.01875 2.71051e-20 0.0162494 0.000189093
0.01625 2.71051e-20 0.01875 0.000178348
-0.01625 9.03502e-21 0.01875 0.000176721
0.02 1.0842e-19 0.0149988 0.000193631
-0.02 1.0842e-19 0.0149988 0.000193764
0.015 1.0842e-19 0.02 0.000172089
-0.015 1.0842e-19 0.02 0.00017001
-0.025 0 0 0.000203279
0.025 0 0 0.000203365
-1.02403e-14 1.0842e-19 0.025 0.000141313
-0.025 1.0842e-19 0.00233887 0.000223388
0.025 1.0842e-19 0.00233887 0.000221685
0.0025 1.0842e-19 0.025 0.000141683
-0.0025 1.0842e-19 0.025 0.00014096
-0.02375 0 0.008656 0.000216021
0.02375 9.03502e-21 0.008656 0.00021333
0.02125 -1.807e-20 0.0137433 0.000198022
-0.02125 -1.807e-20 0.0137433 0.000198827
0.01375 0 0.02125 0.000165647
-0.00875 1.807e-20 0.02375 0.000148434
-0.01375 -1.807e-20 0.02125 0.000163217
0.00875 2.71051e-20 0.02375 0.000150655
0.025 1.0842e-19 0.00479858 0.000231799
-0.025 1.0842e-19 0.00479858 0.000235265
0.005 1.0842e-19 0.025 0.000142068
-0.005 1.0842e-19 0.025 0.000140621
0.0225 1.0842e-19 0.0124878 0.000201877
-0.0225 1.0842e-19 0.0124878 0.000203254
0.0125 1.0842e-19 0.0225 0.000158429
-0.0125 1.0842e-19 0.0225 0.000155729
0.026046 -5.42101e-20 0 0.000203338
-0.026046 -5.42101e-20 0 0.000203224
0.025 1.0842e-19 0.00736572 0.000218208
-0.025 1.0842e-19 0.00736572 0.000221322
0.0075 1.0842e-19 0.025 0.000142469
-0.0075 1.0842e-19 0.025 0.000140288
-0.02375 2.71051e-20 0.011217 0.000207653
0.02375 -1.807e-20 0.011217 0.000205665
-0.02625 0 0.00116944 0.000204665
0.02625 0 0.00116944 0.000204649
0.00125 -9.03502e-21 0.02625 0.000133253
0.01125 1.807e-20 0.02375 0.000151032
-0.01125 2.71051e-20 0.02375 0.000148165
-0.00125 9.03502e-21 0.02625 0.000132842
0.026454 -5.42101e-20 0 0.000203308
-0.026454 -5.42101e-20 0 0.000203208
-0.02625 -1.807e-20 0.00356872 0.000241806
0.02625 -9.03502e-21 0.00356873 0.000238222
-0.01875 -1.807e-20 0.01875 0.000176684
0.00375 -9.03502e-21 0.02625 0.000133676
-0.00375 2.71051e-20 0.02625 0.000132456
0.01875 1.807e-20 0.01875 0.00017858
0.0175 1.0842e-19 0.02 0.000172362
0.02 1.0842e-19 0.0175 0.000184004
-0.02 1.0842e-19 0.0175 0.000182729
-0.0175 1.0842e-19 0.02 0.000169919
0.02125 9.03502e-21 0.0162494 0.000189251
-0.02125 2.71051e-20 0.0162494 0.000188682
0.01625 9.03502e-21 0.02125 0.000165963
-0.01625 0 0.02125 0.000163072
0.025 1.0842e-19 0.00994629 0.000209443
-0.025 1.0842e-19 0.00994629 0.000211897
0.01 1.0842e-19 0.025 0.000142884
-0.01 1.0842e-19 0.025 0.000139965
0.02625 0 0.00608215 0.000223355
-0.02625 -1.807e-20 0.00608215 0.000226922
0.00625 0 0.02625 0.000134115
-0.00625 2.71051e-20 0.02625 0.000132071
0.0225 1.0842e-19 0.0149988 0.000193752
-0.0225 1.0842e-19 0.0149988 0.000193874
0.015 1.0842e-19 0.0225 0.000158783
-0.015 1.0842e-19 0.0225 0.00015553
0.02375 0 0.0137433 0.000198106
-0.02375 0 0.0137433 0.00019898
0.01375 -9.03502e-21 0.02375 0.000151426
-0.01375 2.71051e-20 0.02375 0.000147913
-0.0275 0 0 0.000203169
0.0275 0 0 0.000203217
-1.02404e-14 1.0842e-19 0.0275 0.000124171
-0.0275 1.0842e-19 0.00233887 0.00022339
0.0275 1.0842e-19 0.00233887 0.000221472
0.0025 1.0842e-19 0.0275 0.000124628
-0.0025 1.0842e-19 0.0275 0.000123731
0.02625 9.03502e-21 0.008656 0.000213284
-0.02625 9.03502e-21 0.008656 0.00021623
-0.00875 1.807e-20 0.02625 0.000131697
0.00875 9.03502e-21 0.02625 0.000134568
0.0275 1.0842e-19 0.00479858 0.000231587
-0.0275 1.0842e-19 0.00479858 0.000235421
0.025 1.0842e-19 0.0124878 0.000201929
-0.025 1.0842e-19 0.0124878 0.000203435
0.0125 1.0842e-19 0.025 0.000143316
0.005 1.0842e-19 0.0275 0.000125099
-0.005 1.0842e-19 0.0275 0.000123304
-0.0125 1.0842e-19 0.025 0.000139657
0.02 1.0842e-19 0.02 0.000172654
-0.02 1.0842e-19 0.02 0.000169838
0.01875 0 0.02125 0.000166292
0.02125 2.71051e-20 0.01875 0.000178833
-0.01875 -1.807e-20 0.02125 0.000162937
-0.02125 1.807e-20 0.01875 0.000176657
0.0275 1.0842e-19 0.00736572 0.000218116
-0.0275 1.0842e-19 0.00736572 0.000221528
0.0175 1.0842e-19 0.0225 0.000159155
0.0225 1.0842e-19 0.0175 0.000184217
-0.0175 1.0842e-19 0.0225 0.00015534
-0.0225 1.0842e-19 0.0175 0.000182755
0.0075 1.0842e-19 0.0275 0.000125586
-0.0075 1.0842e-19 0.0275 0.000122886
0.028546 -1.0842e-19 0 0.000203171
-0.028546 -5.42101e-20 0 0.00020313
0.02625 -9.03502e-21 0.011217 0.000205684
-0.02625 -1.807e-20 0.011217 0.000207855
0.01125 -9.03502e-21 0.02625 0.000135037
-0.01125 -1.807e-20 0.02625 0.000131335
0.02875 -4.51751e-21 0.00116944 0.000204478
-0.02875 -3.61401e-20 0.00116944 0.000204581
0.02375 -1.807e-20 0.0162494 0.000189425
-0.02375 0 0.0162494 0.000188761
0.00125 2.71051e-20 0.02875 0.00011545
-0.01625 1.807e-20 0.02375 0.000147669
0.01625 1.807e-20 0.02375 0.000151839
-0.00125 9.03502e-21 0.02875 0.000114961
-0.028954 -5.42101e-20 0 0.000203118
0.028954 -5.42101e-20 0 0.00020314
-0.02875 -1.807e-20 0.00356872 0.000241913
0.02875 -1.807e-20 0.00356873 0.000237953
0.00375 -2.71051e-20 0.02875 0.000115951
-0.00375 1.807e-20 0.02875 0.000114488
0.025 1.0842e-19 0.0149988 0.000193887
-0.025 1.0842e-19 0.0149988 0.000193994
0.015 1.0842e-19 0.025 0.000143765
-0.015 1.0842e-19 0.025 0.000139361
0.0275 1.0842e-19 0.00994629 0.00020944
-0.0275 1.0842e-19 0.00994629 0.000212112
0.01 1.0842e-19 0.0275 0.000126087
-0.01 1.0842e-19 0.0275 0.000122479
0.02875 9.03502e-21 0.00608215 0.000223212
-0.02875 -1.807e-20 0.00608215 0.000227118
0.00625 -1.807e-20 0.02875 0.000116468
-0.00625 -9.03502e-21 0.02875 0.000114026
-0.02625 9.03502e-21 0.0137433 0.000199143
0.02625 -9.03502e-21 0.0137433 0.000198203
0.01375 1.807e-20 0.02625 0.000135523
-0.01375 1.807e-20 0.02625 0.000130988
-0.03 0 0 0.000203079
0.03 -1.0842e-19 0 0.000203054
-1.02402e-14 1.0842e-19 0.03 0.000105878
0.02875 -1.807e-20 0.008656 0.000213251
-0.02875 0 0.008656 0.000216453
-0.00875 0 0.02875 0.000113579
0.02125 1.807e-20 0.02125 0.000166648
-0.02125 -1.807e-20 0.02125 0.000162813
0.00875 -1.807e-20 0.02875 0.000117001
-0.03 1.0842e-19 0.00233887 0.000223402
0.03 1.0842e-19 0.00233887 0.000221242
0.02 1.0842e-19 0.0225 0.000159546
0.0225 1.0842e-19 0.02 0.000172964
0.0025 1.0842e-19 0.03 0.000106395
-0.0025 1.0842e-19 0.03 0.000105376
-0.02 1.0842e-19 0.0225 0.000155161
-0.0225 1.0842e-19 0.02 0.000169768
0.0275 1.0842e-19 0.0124878 0.000201998
-0.0275 1.0842e-19 0.0124878 0.000203626
0.0125 1.0842e-19 0.0275 0.000126605
-0.0125 1.0842e-19 0.0275 0.000122085
0.01875 9.03502e-21 0.02375 0.000152267
0.02375 -1.807e-20 0.01875 0.000179099
-0.02375 -1.807e-20 0.01875 0.000176643
-0.01875 -9.03502e-21 0.02375 0.000147434
0.03 1.0842e-19 0.00479858 0.000231366
-0.03 1.0842e-19 0.00479858 0.000235577
0.005 1.0842e-19 0.03 0.000106927
-0.005 1.0842e-19 0.03 0.000104888
0.025 1.0842e-19 0.0175 0.000184445
0.0175 1.0842e-19 0.025 0.000144231
-0.0175 1.0842e-19 0.025 0.000139075
-0.025 1.0842e-19 0.0175 0.000182791
0.02875 2.71051e-20 0.011217 0.000205729
-0.02875 -9.03502e-21 0.011217 0.000208073
0.02625 -9.03502e-21 0.0162494 0.000189615
-0.02625 2.71051e-20 0.0162494 0.000188847
-0.01625 -1.807e-20 0.02625 0.000130651
0.01125 -1.807e-20 0.02875 0.000117548
-0.01125 -9.03502e-21 0.02875 0.00011314
0.01625 0 0.02625 0.000136026
0.03 1.0842e-19 0.00736572 0.00021803
-0.03 1.0842e-19 0.00736572 0.000221741
0.0075 1.0842e-19 0.03 0.000107475
-0.0075 1.0842e-19 0.03 0.000104412
0.031046 2.71051e-20 0 0.000203011
-0.031046 -5.42101e-20 0 0.000203042
-0.03125 -1.807e-20 0.00116944 0.000204498
0.03125 9.03502e-21 0.00116944 0.000204312
0.00125 9.03502e-21 0.03125 9.67888e-05
-0.00125 -9.03502e-21 0.03125 9.62613e-05
0.0275 1.0842e-19 0.0149988 0.00019404
-0.0275 1.0842e-19 0.0149988 0.000194124
0.015 1.0842e-19 0.0275 0.00012714
-0.015 1.0842e-19 0.0275 0.000121703
0.03125 -1.807e-20 0.00356872 0.000237653
-0.03125 -9.03502e-21 0.00356873 0.000242026
-0.031454 -5.42101e-20 0 0.000203024
0.031454 2.71051e-20 0 0.000202977
-0.00375 9.03502e-21 0.03125 9.57475e-05
0.00375 9.03502e-21 0.03125 9.73317e-05
0.03 1.0842e-19 0.00994629 0.00020945
-0.03 1.0842e-19 0.00994629 0.000212336
0.01 1.0842e-19 0.03 0.000108038
-0.01 1.0842e-19 0.03 0.000103948
0.0225 1.0842e-19 0.0225 0.000159955
-0.0225 1.0842e-19 0.0225 0.000154991
0.03125 -9.03502e-21 0.00608215 0.000223064
-0.03125 -9.03502e-21 0.00608215 0.000227318
-0.02875 -1.807e-20 0.0137433 0.000199317
0.02875 -1.807e-20 0.0137433 0.000198319
0.00625 2.71051e-20 0.03125 9.78912e-05
0.01375 -9.03502e-21 0.02875 0.000118112
-0.01375 9.03502e-21 0.02875 0.000112715
0.02125 9.03502e-21 0.02375 0.000152717
0.02375 2.71051e-20 0.02125 0.000167011
-0.00625 1.807e-20 0.03125 9.52474e-05
-0.02125 9.03502e-21 0.02375 0.000147211
-0.02375 0 0.02125 0.000162696
0.02 1.0842e-19 0.025 0.000144716
0.025 1.0842e-19 0.02 0.000173289
-0.02 1.0842e-19 0.025 0.000138799
-0.025 1.0842e-19 0.02 0.000169708
0.01875 2.71051e-20 0.02625 0.000136545
0.02625 -1.807e-20 0.01875 0.000179383
-0.01875 2.71051e-20 0.02625 0.000130325
-0.02625 1.807e-20 0.01875 0.000176638
-0.03125 2.71051e-20 0.008656 0.000216682
0.03125 -9.03502e-21 0.00865601 0.000213225
0.00875 1.807e-20 0.03125 9.84662e-05
-0.00875 1.807e-20 0.03125 9.47597e-05
0.03 1.0842e-19 0.0124878 0.000202085
-0.03 1.0842e-19 0.0124878 0.000203825
0.0125 1.0842e-19 0.03 0.000108619
-0.0125 1.0842e-19 0.03 0.000103496
-0.0325 0 0 0.000202963
0.0325 -1.0842e-19 0 0.000202877
-1.02402e-14 1.0842e-19 0.0325 8.73114e-05
-0.0325 1.0842e-19 0.00233887 0.0002234
0.0325 1.0842e-19 0.00233887 0.000221001
0.0025 1.0842e-19 0.0325 8.78467e-05
-0.0025 1.0842e-19 0.0325 8.67909e-05
0.0275 1.0842e-19 0.0175 0.000184693
0.0175 1.0842e-19 0.0275 0.000127693
-0.0175 1.0842e-19 0.0275 0.000121331
-0.0275 1.0842e-19 0.0175 0.000182837
0.0325 1.0842e-19 0.00479858 0.00023114
-0.0325 1.0842e-19 0.00479858 0.000235734
0.005 1.0842e-19 0.0325 8.83978e-05
-0.005 1.0842e-19 0.0325 8.62844e-05
0.02875 -2.71051e-20 0.0162494 0.000189827
-0.02875 2.71051e-20 0.0162494 0.000188945
0.01625 9.03502e-21 0.02875 0.000118696
-0.01625 9.03502e-21 0.02875 0.000112301
0.03125 9.03502e-21 0.011217 0.000205781
-0.03125 9.03502e-21 0.011217 0.000208295
0.01125 1.807e-20 0.03125 9.90592e-05
-0.01125 1.807e-20 0.03125 9.42843e-05
0.0325 1.0842e-19 0.00736572 0.000217953
-0.0325 1.0842e-19 0.00736572 0.000221958
0.0075 1.0842e-19 0.0325 8.8965e-05
-0.0075 1.0842e-19 0.0325 8.5791e-05
0.03 1.0842e-19 0.0149988 0.000194214
-0.03 1.0842e-19 0.0149988 0.000194263
0.015 1.0842e-19 0.03 0.000109218
-0.015 1.0842e-19 0.03 0.000103057
0.033546 -1.35525e-19 0 0.000202819
-0.033546 -5.42101e-20 0 0.000202901
-0.02375 9.03502e-21 0.02375 0.000146997
0.02375 2.71051e-20 0.02375 0.000153182
0.0225 1.0842e-19 0.025 0.00014522
0.025 1.0842e-19 0.0225 0.000160381
-0.0225 1.0842e-19 0.025 0.000138533
-0.025 1.0842e-19 0.0225 0.00015483
0.03375 -9.03502e-21 0.00116943 0.000204115
-0.03375 9.03502e-21 0.00116944 0.000204364
0.00125 -9.03502e-21 0.03375 7.84062e-05
0.02125 -1.807e-20 0.02625 0.000137086
0.02625 1.807e-20 0.02125 0.000167398
-0.02125 0 0.02625 0.000130007
-0.02625 1.807e-20 0.02125 0.00016259
-0.00125 0 0.03375 7.78811e-05
-0.03375 -1.807e-20 0.00356872 0.000242133
0.03375 9.03502e-21 0.00356873 0.00023736
-0.033954 -5.42101e-20 0 0.000202882
0.033954 -1.35525e-19 0 0.000202781
-0.00375 1.807e-20 0.03375 7.73699e-05
0.00375 9.03502e-21 0.03375 7.89464e-05
0.0325 1.0842e-19 0.00994629 0.000209477
-0.0325 1.0842e-19 0.00994629 0.000212568
0.02 1.0842e-19 0.0275 0.000128264
0.0275 1.0842e-19 0.02 0.000173636
0.01 1.0842e-19 0.0325 8.95494e-05
-0.01 1.0842e-19 0.0325 8.53099e-05
-0.02 1.0842e-19 0.0275 0.000120969
-0.0275 1.0842e-19 0.02 0.000169657
0.03125 -1.807e-20 0.0137433 0.000198454
-0.03125 -1.807e-20 0.0137433 0.000199491
-0.01375 9.03502e-21 0.03125 9.38214e-05
0.01375 -1.807e-20 0.03125 9.96699e-05
0.03375 -9.03502e-21 0.00608215 0.000222925
-0.03375 -9.03502e-21 0.00608215 0.000227517
0.00625 9.03502e-21 0.03375 7.95023e-05
0.01875 -1.807e-20 0.02875 0.000119296
-0.01875 1.807e-20 0.02875 0.000111898
0.02875 1.807e-20 0.01875 0.000179693
-0.02875 -1.807e-20 0.01875 0.000176643
-0.00625 2.71051e-20 0.03375 7.6874e-05
0.03 1.0842e-19 0.0175 0.000184964
0.0175 1.0842e-19 0.03 0.000109835
-0.0175 1.0842e-19 0.03 0.000102628
-0.03 1.0842e-19 0.0175 0.000182894
0.0325 1.0842e-19 0.0124878 0.000202191
-0.0325 1.0842e-19 0.0124878 0.000204031
0.0125 1.0842e-19 0.0325 9.0152e-05
-0.0125 1.0842e-19 0.0325 8.48414e-05
0.03375 -9.03502e-21 0.008656 0.000213224
-0.03375 -9.03502e-21 0.008656 0.000216918
0.00875 0 0.03375 8.00748e-05
-0.00875 -1.807e-20 0.03375 7.63892e-05
0.035 -1.0842e-19 0 0.000202683
-0.035 0 0 0.000202839
-1.02402e-14 1.0842e-19 0.035 6.94718e-05
0.035 1.0842e-19 0.00233887 0.000220741
-0.035 1.0842e-19 0.00233887 0.000223393
0.0025 1.0842e-19 0.035 6.9992e-05
-0.0025 1.0842e-19 0.035 6.89652e-05
0.03125 9.03502e-21 0.0162494 0.000190063
-0.03125 -1.807e-20 0.0162494 0.000189052
0.01625 1.807e-20 0.03125 0.000100301
-0.01625 1.807e-20 0.03125 9.3371e-05
0.035 1.0842e-19 0.00479858 0.000230907
-0.035 1.0842e-19 0.00479858 0.000235893
0.025 1.0842e-19 0.025 0.000145743
0.005 1.0842e-19 0.035 7.05267e-05
-0.005 1.0842e-19 0.035 6.84716e-05
-0.025 1.0842e-19 0.025 0.000138276
-0.02375 9.03502e-21 0.02625 0.000129699
0.02375 2.71051e-20 0.02625 0.000137642
0.02625 9.03502e-21 0.02375 0.000153668
-0.02625 -9.03502e-21 0.02375 0.000146791
0.0225 1.0842e-19 0.0275 0.000128855
0.0275 1.0842e-19 0.0225 0.000160827
-0.0225 1.0842e-19 0.0275 0.000120617
-0.0275 1.0842e-19 0.0225 0.000154677
0.03375 -2.71051e-20 0.011217 0.000205861
-0.03375 -2.71051e-20 0.011217 0.000208528
0.01125 1.807e-20 0.03375 8.06656e-05
-0.01125 2.71051e-20 0.03375 7.59166e-05
0.02125 9.03502e-21 0.02875 0.000119918
0.02875 1.807e-20 0.02125 0.000167802
-0.02125 0 0.02875 0.000111504
-0.02875 0 0.02125 0.000162492
0.035 1.0842e-19 0.00736572 0.000217885
-0.035 1.0842e-19 0.00736572 0.000222184
0.0325 1.0842e-19 0.0149988 0.000194409
-0.0325 1.0842e-19 0.0149988 0.00019441
0.015 1.0842e-19 0.0325 9.07736e-05
-0.015 1.0842e-19 0.0325 8.43852e-05
0.0075 1.0842e-19 0.035 7.10763e-05
-0.0075 1.0842e-19 0.035 6.79899e-05
0.036046 -1.6263e-19 0 0.000202621
-0.036046 -8.13152e-20 0 0.0002028
0.02 1.0842e-19 0.03 0.000110472
0.03 1.0842e-19 0.02 0.000174004
-0.02 1.0842e-19 0.03 0.00010221
-0.03 1.0842e-19 0.02 0.000169615
0.03625 9.03502e-21 0.00116943 0.000203911
-0.03625 -1.807e-20 0.00116944 0.000204272
0.00125 1.807e-20 0.03625 6.11308e-05
-0.00125 -9.03502e-21 0.03625 6.06299e-05
0.035 1.0842e-19 0.00994629 0.000209524
-0.035 1.0842e-19 0.00994629 0.00021281
0.01 1.0842e-19 0.035 7.16424e-05
-0.01 1.0842e-19 0.035 6.75194e-05
0.03625 9.03502e-21 0.00356872 0.000237027
-0.03625 -9.03502e-21 0.00356872 0.000242241
0.03375 -1.807e-20 0.0137433 0.000198611
-0.03375 -1.807e-20 0.0137433 0.000199677
0.03125 9.03502e-21 0.01875 0.000180019
0.01875 2.71051e-20 0.03125 0.000100949
-0.01875 9.03502e-21 0.03125 9.29311e-05
-0.03125 9.03502e-21 0.01875 0.000176657
0.01375 -9.03502e-21 0.03375 8.12747e-05
-0.01375 -9.03502e-21 0.03375 7.5457e-05
0.00375 1.807e-20 0.03625 6.16443e-05
-0.00375 -1.807e-20 0.03625 6.01412e-05
-0.036454 -8.13152e-20 0 0.000202784
0.036454 -1.6263e-19 0 0.00020258
0.03625 2.71051e-20 0.00608215 0.00022278
-0.03625 -1.807e-20 0.00608215 0.000227733
-0.00625 -1.807e-20 0.03625 5.96639e-05
0.00625 1.807e-20 0.03625 6.2172e-05
0.0325 1.0842e-19 0.0175 0.000185256
0.0175 1.0842e-19 0.0325 9.14146e-05
-0.0175 1.0842e-19 0.0325 8.39404e-05
-0.0325 1.0842e-19 0.0175 0.000182959
0.02625 1.807e-20 0.02625 0.000138221
-0.02625 1.807e-20 0.02625 0.000129401
0.035 1.0842e-19 0.0124878 0.00020232
-0.035 1.0842e-19 0.0124878 0.000204247
0.0125 1.0842e-19 0.035 7.22263e-05
-0.0125 1.0842e-19 0.035 6.70605e-05
0.025 1.0842e-19 0.0275 0.000129465
0.0275 1.0842e-19 0.025 0.000146286
-0.025 1.0842e-19 0.0275 0.000120275
-0.0275 1.0842e-19 0.025 0.000138027
0.03625 -1.807e-20 0.00865601 0.000213228
-0.03625 -9.03502e-21 0.008656 0.000217167
-0.00875 2.71051e-20 0.03625 5.91965e-05
-0.02375 -9.03502e-21 0.02875 0.000111121