# kMean  POINT_DATA 43565
# x  y  z  kMean
-3.30872e-24 0.00104604 1.58372e-08 0.000203304
-2.1684e-19 -0.000203985 0.00116944 0.000204043
0 -0.00145396 1.55656e-08 0.000204771
1.16872e-19 0.001046 0.00233888 0.000222595
0 0.00229601 0.00116944 0.000202565
5.08501e-20 -0.00145398 0.00233888 0.000223601
-2.1684e-19 -0.00270399 0.00116943 0.0002055
0 0.00354601 1.54868e-08 0.000201788
1.0842e-19 -0.000203995 0.00356872 0.000242463
0 -0.00395397 1.47352e-08 0.000206182
-1.0842e-19 0.002296 0.00356873 0.000241924
1.08543e-19 0.00354599 0.00233888 0.000221557
-1.0842e-19 -0.002704 0.00356872 0.000243001
5.16864e-20 -0.00395401 0.00233888 0.000224573
-6.13913e-20 0.001046 0.00479858 0.000233537
1.0842e-19 0.004796 0.00116944 0.00020101
-2.65624e-20 -0.001454 0.00479858 0.000233838
-1.0842e-19 -0.005204 0.00116943 0.000206865
-8.79827e-20 0.003546 0.00479858 0.000233233
1.0842e-19 0.004796 0.00356872 0.000241362
-1.65436e-24 0.006046 1.32897e-08 0.000200177
0 -0.000204 0.00608215 0.000224786
4.1359e-25 -0.003954 0.00479858 0.000234131
1.0842e-19 -0.005204 0.00356872 0.000243515
0 -0.006454 1.30614e-08 0.000207562
9.109e-20 0.00604599 0.00233888 0.000220461
0 0.002296 0.00608215 0.000224725
1.0842e-19 -0.002704 0.00608215 0.000224845
8.32574e-20 -0.006454 0.00233887 0.000225519
0 0.007296 0.00116943 0.000199343
-4.87021e-20 0.001046 0.00736572 0.000219524
-3.61046e-20 -0.001454 0.00736572 0.000219475
-6.41696e-20 0.006046 0.00479858 0.000232918
-1.0842e-19 0.004796 0.00608215 0.000224678
0 -0.00770401 0.00116943 0.000208259
0 -0.005204 0.00608215 0.000224898
6.12058e-20 -0.006454 0.00479858 0.000234411
2.1684e-19 0.007296 0.00356872 0.000240776
7.27234e-20 0.003546 0.00736572 0.00021958
0 -0.003954 0.00736572 0.000219428
1.0842e-19 -0.007704 0.00356872 0.000244013
-1.65436e-24 0.00854602 1.01674e-08 0.000198493
0 -0.000204 0.008656 0.000214203
3.0506e-20 0.008546 0.00233887 0.00021932
0 -0.00895401 1.13402e-08 0.000208907
1.0842e-19 0.002296 0.00865601 0.000214364
2.1684e-19 -0.002704 0.00865601 0.000214047
-1.73753e-20 -0.00895401 0.00233887 0.000226439
0 0.007296 0.00608215 0.000224619
-6.27586e-20 0.006046 0.00736572 0.00021964
5.05862e-21 -0.006454 0.00736572 0.00021938
-6.09576e-20 0.008546 0.00479858 0.000232597
-1.0842e-19 -0.007704 0.00608215 0.000224948
0 0.009796 0.00116944 0.000197642
0 0.004796 0.008656 0.000214533
-4.63851e-20 0.001046 0.00994629 0.000210267
9.72651e-21 -0.001454 0.00994629 0.000210051
1.0842e-19 -0.005204 0.00865601 0.0002139
-3.28411e-21 -0.008954 0.00479858 0.000234683
0 -0.010204 0.00116944 0.000209555
-2.1684e-19 0.009796 0.00356872 0.000240184
6.11923e-20 0.003546 0.00994629 0.00021049
8.14903e-20 -0.003954 0.00994629 0.000209842
0 -0.010204 0.00356873 0.000244491
0 0.011046 8.1473e-09 0.000196768
-1.0842e-19 -0.000204 0.011217 0.000206134
-6.65281e-21 0.008546 0.00736572 0.000219704
6.9075e-20 0.011046 0.00233887 0.000218151
-1.0842e-19 0.007296 0.008656 0.000214709
0 0.002296 0.011217 0.000206407
0 -0.011454 1.00102e-08 0.000210181
-1.0842e-19 0.009796 0.00608215 0.000224581
0 -0.002704 0.011217 0.000205863
0 -0.007704 0.00865601 0.000213753
-1.16074e-19 -0.008954 0.00736572 0.000219334
1.03364e-19 0.006046 0.00994629 0.000210723
4.90187e-21 -0.011454 0.00233887 0.000227317
5.32412e-20 -0.006454 0.00994629 0.000209639
1.0842e-19 -0.010204 0.00608215 0.000225002
1.04358e-19 0.011046 0.00479858 0.00023227
2.1684e-19 0.004796 0.011217 0.000206695
-2.1684e-19 0.012296 0.00116944 0.000195893
2.1684e-19 -0.005204 0.011217 0.000205599
-4.15844e-20 -0.011454 0.00479858 0.000234947
-4.95486e-20 0.001046 0.0124878 0.000202212
1.82458e-20 -0.001454 0.0124878 0.000201899
0 -0.012704 0.00116943 0.000210808
0 0.012296 0.00356873 0.000239569
-2.41021e-20 0.003546 0.0124878 0.000202536
0 0.009796 0.008656 0.00021489
-9.53899e-20 -0.003954 0.0124878 0.000201592
-2.58494e-26 0.008546 0.00994629 0.000210965
0 -0.012704 0.00356872 0.000244964
-5.16988e-26 0.011046 0.00736572 0.000219775
1.0842e-19 -0.010204 0.008656 0.000213612
0 0.007296 0.011217 0.000206995
1.03448e-19 -0.008954 0.00994629 0.00020944
8.27181e-25 0.013546 6.90219e-09 0.000195003
0 -0.007704 0.011217 0.000205345
7.6245e-20 -0.011454 0.00736572 0.00021929
0 0.012296 0.00608215 0.000224526
0 -0.000204 0.0137433 0.00019799
-1.43847e-21 0.013546 0.00233887 0.000216949
6.23766e-20 0.006046 0.0124878 0.000202874
0 0.002296 0.0137433 0.000198347
0 -0.013954 8.61294e-09 0.000211394
-1.0842e-19 -0.002704 0.0137433 0.000197641
5.10456e-20 -0.006454 0.0124878 0.000201294
-1.0842e-19 -0.012704 0.00608215 0.000225047
-2.34615e-20 -0.013954 0.00233887 0.00022816
9.32818e-20 0.013546 0.00479858 0.000231929
0 0.004796 0.0137433 0.000198728
-1.0842e-19 -0.005204 0.0137433 0.000197298
0 -0.013954 0.00479858 0.000235208
3.25261e-19 0.014796 0.00116944 0.000194112
-1.29247e-26 0.011046 0.00994629 0.000211216
0 0.009796 0.011217 0.000207307
-1.90307e-20 0.001046 0.0149988 0.000193438
-1.0842e-19 0.012296 0.008656 0.000215083
1.04505e-19 -0.001454 0.0149988 0.000193055
-1.06374e-19 0.008546 0.0124878 0.000203221
1.0842e-19 -0.010204 0.011217 0.000205091
-5.3168e-20 -0.011454 0.00994629 0.000209249
0 0.014796 0.00356872 0.000238925
1.0842e-19 -0.015204 0.00116943 0.00021198
7.23021e-20 -0.008954 0.0124878 0.000201006
0 -0.012704 0.008656 0.000213479
-8.82354e-21 0.003546 0.0149988 0.000193838
0 0.013546 0.00736572 0.000219847
-8.20398e-20 -0.003954 0.0149988 0.000192681
1.0842e-19 0.007296 0.0137433 0.00019911
-1.0842e-19 -0.015204 0.00356872 0.000245423
0 0.0148798 0.00479858 0.000231738
0 0.0138282 0.00736572 0.000219855
-1.0842e-19 -0.007704 0.0137433 0.000196967
-3.23117e-27 -0.013954 0.00736572 0.000219252
1.29247e-26 -0.0152493 0.00479858 0.000235341
1.0842e-19 0.014796 0.00608215 0.000224483
8.27181e-25 0.016046 5.10446e-09 0.000193181
-3.23117e-27 -0.0143632 0.00736572 0.000219247
1.20733e-19 0.006046 0.0149988 0.000194251
2.58494e-26 0.016046 0.00233887 0.000215704
-1.0842e-19 -0.000204 0.0162494 0.000188503
8.74269e-20 -0.006454 0.0149988 0.000192318
-2.06795e-25 0.0162013 0.00233887 0.000215624
0 -0.015204 0.00608215 0.000225107
-2.58494e-26 0.016046 0.00331439 0.000221998
0 0.002296 0.0162494 0.000188923
0 0.013546 0.00927608 0.000213647
0 -0.016454 7.35239e-09 0.000212575
-1.0842e-19 -0.002704 0.0162494 0.000188097
0 0.0132413 0.00994629 0.000211441
2.66092e-20 -0.016454 0.00233887 0.000228979
1.0842e-19 0.012296 0.011217 0.000207622
3.79047e-20 0.011046 0.0124878 0.000203578
0 0.016046 0.00479858 0.000231572
1.61559e-27 0.013546 0.00994629 0.000211473
0 0.0168588 0 0.000192568
0 0.009796 0.0137433 0.000199505
0 0.004796 0.0162494 0.000189365
-1.44746e-19 -0.011454 0.0124878 0.000200728
1.0842e-19 -0.012704 0.011217 0.000204857
-2.58494e-26 -0.016454 0.00425899 0.000234042
0 -0.005204 0.0162494 0.000187701
0 -0.010204 0.0137433 0.000196652
4.40724e-20 -0.013954 0.00994629 0.000209069
-2.58494e-26 -0.016454 0.00479858 0.000235465
2.1684e-19 0.014796 0.008656 0.000215278
-4.03897e-27 -0.0140935 0.00994629 0.000209059
5.34705e-20 0.008546 0.0149988 0.000194672
-1.0842e-19 0.017296 0.00116943 0.00019225
1.0958e-20 -0.008954 0.0149988 0.000191966
1.0842e-19 -0.015204 0.008656 0.000213354
-1.91606e-20 0.001046 0.0175 0.00018311
8.08399e-20 -0.001454 0.0175 0.000182667
8.60369e-21 0.016046 0.00736572 0.00021992
-1.0842e-19 0.017296 0.00356872 0.000238251
0 -0.017704 0.00116943 0.000213171
-1.0842e-19 0.007296 0.0162494 0.000189811
8.08393e-20 0.003546 0.0175 0.000183568
-1.91544e-20 -0.003954 0.0175 0.000182238
1.0842e-19 -0.007704 0.0162494 0.000187316
0 0.0129674 0.0124878 0.00020386
-2.58494e-26 -0.016454 0.00736572 0.000219221
-1.0842e-19 -0.017704 0.00356873 0.000245869
-1.0842e-19 0.017296 0.00608215 0.000224427
8.07794e-28 0.013546 0.0124878 0.000203945
-1.0842e-19 0.012296 0.0137433 0.000199912
1.42061e-19 0.006046 0.0175 0.000184041
-1.65436e-24 0.018546 1.05965e-08 0.000191295
1.0842e-19 0.014796 0.011217 0.000207946
-2.01948e-28 0.011046 0.0149988 0.000195108
0 -0.013954 0.0123475 0.000200937
-1.9158e-20 -0.006454 0.0175 0.000181823
0 -0.0139078 0.0124878 0.000200467
0 0.018546 0.00233887 0.000214415
-1.0842e-19 -0.012704 0.0137433 0.000196347
0 -0.017704 0.00608215 0.000225165
0 -0.013954 0.0124878 0.000200462
0 -0.000204 0.01875 0.00017727
0 -0.011454 0.0149988 0.000191626
-6.6779e-20 0.016046 0.00994629 0.000211739
1.0842e-19 0.002296 0.01875 0.000177745
0 -0.015204 0.011217 0.000204631
0 -0.002704 0.01875 0.000176801
0 -0.018954 6.98088e-09 0.000213736
-1.0842e-19 0.009796 0.0162494 0.000190276
1.93152e-20 -0.018954 0.00233887 0.000229783
-2.06795e-25 0.018546 0.00479858 0.000231203
-2.1684e-19 -0.010204 0.0162494 0.00018694
6.46235e-27 -0.016454 0.00994629 0.000208893
0 -0.018954 0.00379254 0.00023329
0 0.017296 0.00865601 0.000215477
1.0842e-19 0.004796 0.01875 0.000178241
0 -0.005204 0.01875 0.000176356
8.084e-20 0.008546 0.0175 0.000184526
5.16988e-26 -0.018954 0.00479858 0.000235716
1.58401e-19 -0.008954 0.0175 0.000181418
-1.0842e-19 -0.017704 0.00865601 0.000213236
0 0.0128206 0.0149988 0.000195429
-1.0842e-19 0.019796 0.00116944 0.00019034
-4.83916e-20 0.018546 0.00736572 0.000219997
-1.91544e-20 0.001046 0.02 0.000171001
8.08456e-20 -0.001454 0.02 0.000170514
0 0.019796 0.00356872 0.000237559
-1.0842e-19 0.007296 0.01875 0.00017875
1.0842e-19 0.014796 0.0137433 0.00020033
0 0.013546 0.0149988 0.00019556
-1.0842e-19 -0.020204 0.00116943 0.000214302
-1.0842e-19 -0.007704 0.01875 0.00017592
1.26218e-29 -0.0136771 0.0149988 0.000191335
5.84013e-20 0.003546 0.02 0.000171506
0 0.016046 0.0124878 0.000204326
-2.58494e-26 -0.018954 0.00736572 0.000219192
0 0.012296 0.0162494 0.000190754
-1.91544e-20 -0.003954 0.02 0.000170042
-1.26218e-29 -0.013954 0.0149988 0.000191298
1.0842e-19 -0.015204 0.0137433 0.000196049
0 -0.020204 0.00356872 0.000246305
-1.0842e-19 0.017296 0.011217 0.000208294
0 -0.012704 0.0162494 0.000186579
0 -0.016454 0.0124878 0.000200199
-1.9158e-20 0.011046 0.0175 0.000185025
1.0842e-19 0.019796 0.00608215 0.000224383
-1.91544e-20 0.006046 0.02 0.000172026
5.84007e-20 -0.011454 0.0175 0.000181029
-1.0842e-19 -0.017704 0.011217 0.000204397
-1.91544e-20 -0.006454 0.02 0.000169586
-2.58494e-26 0.018546 0.00994629 0.000212016
0 0.021046 1.24254e-08 0.000189322
-1.0842e-19 -0.020204 0.00608215 0.000225226
1.0842e-19 0.009796 0.01875 0.000179268
0 0.021046 0.00233888 0.000213068
0 -0.000204 0.02125 0.00016424
0 -0.010204 0.01875 0.0001755
1.0842e-19 0.002296 0.02125 0.000164751
-1.29247e-26 -0.018954 0.00994629 0.000208724
1.0842e-19 -0.002704 0.02125 0.000163746
0 -0.021454 7.94194e-09 0.000214869
1.27918e-19 -0.021454 0.00233887 0.000230567
2.06795e-25 0.021046 0.00479858 0.00023082
1.0842e-19 0.019796 0.008656 0.000215686
8.08456e-20 0.008546 0.02 0.00017256
0 0.004796 0.02125 0.000165286
0 -0.005204 0.02125 0.000163267
-1.91544e-20 -0.008954 0.02 0.000169141
0 -0.021454 0.00459418 0.000235514
2.01948e-28 0.016046 0.0149988 0.000196028
0 0.014796 0.0162494 0.000191255
0 -0.020204 0.008656 0.000213121
-2.58494e-26 -0.021454 0.00479858 0.000235963
-3.9443e-29 0.013546 0.017442 0.000185775
0 0.017296 0.0137433 0.000200766
8.08476e-20 0.013546 0.0175 0.000185543
-4.73317e-30 -0.013954 0.0172412 0.000181754
-1.0842e-19 -0.015204 0.0162494 0.000186231
0 -0.016454 0.0149988 0.000190978
-3.79057e-20 0.021046 0.00736572 0.000220076
-1.0842e-19 0.022296 0.00116944 0.000188304
0 0.018546 0.0124878 0.000204721
5.84013e-20 -0.013954 0.0175 0.000180653
0 -0.017704 0.0137433 0.000195756
0 0.012296 0.01875 0.000179807
1.0842e-19 0.007296 0.02125 0.000165829
8.08456e-20 0.001046 0.0225 0.000157119
8.08456e-20 -0.001454 0.0225 0.000156606
0 0.022296 0.00356873 0.000236832
0 -0.007704 0.02125 0.000162801
-1.0842e-19 -0.012704 0.01875 0.000175097
0 -0.021454 0.00736572 0.000219168
0 -0.018954 0.0124878 0.000199946
0 -0.022704 0.00116943 0.000215436
-1.29247e-26 -0.0222244 0.00479858 0.000236037
0 0.019796 0.011217 0.000208646
5.84013e-20 0.003546 0.0225 0.000157651
8.08456e-20 -0.003954 0.0225 0.000156109
1.58401e-19 0.011046 0.02 0.000173109
0 -0.022704 0.00356872 0.000246725
1.58401e-19 -0.011454 0.02 0.000168712
1.0842e-19 -0.020204 0.011217 0.00020419
0 0.022296 0.00608215 0.000224322
0 0.021046 0.00994629 0.000212298
-1.91544e-20 0.006046 0.0225 0.000158203
-1.0842e-19 0.009796 0.02125 0.000166394
-1.91544e-20 -0.006454 0.0225 0.000155625
0 -0.022704 0.00608215 0.000225289
0 0.023546 1.31505e-08 0.000187269
0 -0.010204 0.02125 0.000162345
0 -0.021454 0.00994629 0.000208563
0 0.023546 0.00233888 0.000211669
1.57772e-30 0.016046 0.0174837 0.000186142
0 0.017296 0.0162494 0.000191771
0 0.016046 0.0175 0.000186078
0 -0.000204 0.02375 0.000149476
4.03897e-28 0.018546 0.0149988 0.000196509
1.0842e-19 0.002296 0.02375 0.000150008
0 0.014796 0.01875 0.000180358
0 -0.002704 0.02375 0.000148962
0 0.022296 0.00865601 0.0002159
-1.65436e-24 -0.023954 9.6474e-09 0.000215944
-5.83757e-29 -0.016454 0.0174745 0.000180398
0 -0.016454 0.0175 0.000180289
0 0.023546 0.00479858 0.000230423
-1.0842e-19 -0.017704 0.0162494 0.00018589
-1.36562e-19 -0.023954 0.00233887 0.000231319
8.08456e-20 0.008546 0.0225 0.000158771
-1.0842e-19 0.019796 0.0137433 0.000201209
1.0842e-19 -0.015204 0.01875 0.000174707
-1.91544e-20 0.013546 0.02 0.000173675
0 -0.018954 0.0149988 0.000190668
-1.91544e-20 -0.008954 0.0225 0.000155156
0 0.004796 0.02375 0.000150562
1.0842e-19 -0.022704 0.008656 0.000213013
-1.0842e-19 -0.005204 0.02375 0.000148461
-1.91544e-20 -0.013954 0.02 0.000168297
5.56351e-20 -0.023954 0.00479858 0.000236206
-2.1684e-19 -0.020204 0.0137433 0.000195478
0 0.021046 0.0124878 0.000205119
-1.0842e-19 0.012296 0.02125 0.000166968
1.03398e-25 0.023546 0.00736572 0.00022016
0 -0.012704 0.02125 0.000161906
1.0842e-19 0.024796 0.00116944 0.000186234
0 -0.021454 0.0124878 0.000199704
0 -0.023954 0.00654325 0.00022461
1.0842e-19 0.007296 0.02375 0.000151137
1.0842e-19 0.022296 0.011217 0.000208997
-1.0842e-19 -0.007704 0.02375 0.000147973
-1.91544e-20 0.001046 0.025 0.000141533
8.08456e-20 -0.001454 0.025 0.000141007
0 0.024796 0.00356872 0.000236087
0 -0.023954 0.00736572 0.000219143
1.58401e-19 0.011046 0.0225 0.000159354
2.1684e-19 -0.025204 0.00116944 0.000216451
1.58401e-19 -0.011454 0.0225 0.000154701
-1.91544e-20 0.003546 0.025 0.000142079
8.08456e-20 -0.003954 0.025 0.000140499
-2.1684e-19 -0.022704 0.011217 0.000203977
0 -0.025204 0.00356872 0.000247157
3.31322e-29 0.018546 0.0174888 0.000186672
0 0.018546 0.0175 0.000186628
0 0.017296 0.01875 0.000180929
1.0842e-19 0.024796 0.00608215 0.000224279
0 0.023546 0.00994629 0.000212586
1.0842e-19 0.019796 0.0162494 0.0001923
8.08456e-20 0.016046 0.02 0.000174258
-1.0842e-19 0.009796 0.02375 0.000151723
-1.91544e-20 0.006046 0.025 0.000142646
9.15079e-29 -0.018954 0.017485 0.000179999
-1.0842e-19 -0.017704 0.01875 0.000174328
8.08456e-20 -0.018954 0.0175 0.000179935
8.08456e-20 -0.006454 0.025 0.000140003
0 0.021046 0.0149988 0.000196996
0 -0.010204 0.02375 0.000147506
-1.0842e-19 0.014796 0.02125 0.000167566
8.08456e-20 -0.016454 0.02 0.000167894
0 -0.025204 0.00608215 0.000225341
0 -0.020204 0.0162494 0.000185562
8.92812e-20 -0.023954 0.00994629 0.000208405
1.65436e-24 0.026046 1.21855e-08 0.000185166
-1.0842e-19 -0.015204 0.02125 0.000161477
7.01011e-20 0.026046 0.00233887 0.000210233
4.03897e-28 -0.021454 0.0149988 0.000190368
0 0.022296 0.0137433 0.000201652
0 -0.000204 0.02625 0.000133055
-1.91544e-20 0.013546 0.0225 0.000159955
0 0.024796 0.008656 0.000216125
0 0.002296 0.02625 0.000133592
1.0842e-19 -0.002704 0.02625 0.000132536
-1.91544e-20 0.008546 0.025 0.00014323
0 -0.026454 1.02881e-08 0.000216945
8.08456e-20 -0.013954 0.0225 0.000154259
1.33585e-19 0.026046 0.00479858 0.000230021
0 -0.022704 0.0137433 0.000195207
8.08456e-20 -0.008954 0.025 0.000139524
-6.2436e-20 -0.026454 0.00233887 0.000232035
2.1684e-19 -0.025204 0.008656 0.000212909
0 0.023546 0.0124878 0.000205524
-1.0842e-19 0.004796 0.02625 0.000134155
0 0.012296 0.02375 0.000152332
0 -0.005204 0.02625 0.000132035
-9.43353e-20 -0.026454 0.00479858 0.00023645
-1.0842e-19 -0.012704 0.02375 0.000147049
0 -0.023954 0.0124878 0.000199463
0 0.026046 0.00736572 0.000220255
0 0.024796 0.011217 0.000209357
-1.0842e-19 0.007296 0.02625 0.00013473
0 0.019796 0.01875 0.000181514
-1.57772e-30 0.018546 0.02 0.000174861
-2.1684e-19 0.027296 0.00116944 0.000184098
-1.91544e-20 0.011046 0.025 0.000143832
1.29247e-26 -0.026454 0.00694427 0.000221966
0 -0.007704 0.02625 0.000131544
0 0.021046 0.0174904 0.000187229
0 0.021046 0.0175 0.000187191
-1.0842e-19 0.017296 0.02125 0.000168181
-1.29247e-26 -0.026454 0.00736572 0.000219121
1.58401e-19 -0.011454 0.025 0.000139061
1.58401e-19 0.001046 0.0275 0.000124389
0 0.027296 0.00356872 0.000235316
1.58401e-19 -0.001454 0.0275 0.000123868
8.08456e-20 -0.018954 0.02 0.000167502
-1.0842e-19 -0.020204 0.01875 0.000173961
0 -0.025204 0.011217 0.000203769
0 0.022296 0.0162494 0.000192835
8.08456e-20 0.016046 0.0225 0.000160577
0 -0.017704 0.02125 0.000161064
1.51461e-28 -0.021454 0.0174873 0.000179646
0 -0.021454 0.0175 0.000179592
1.58401e-19 0.003546 0.0275 0.000124931
-1.0842e-19 -0.027704 0.00116943 0.000217438
-9.67102e-20 -0.003954 0.0275 0.000123364
3.28979e-21 -0.016454 0.0225 0.000153828
0 0.026046 0.00994629 0.000212882
0 0.023546 0.0149988 0.000197497
-1.0842e-19 -0.022704 0.0162494 0.00018524
-2.1684e-19 -0.027704 0.00356872 0.000247578
-2.1684e-19 0.027296 0.00608215 0.000224239
0 0.014796 0.02375 0.000152957
-1.0842e-19 0.009796 0.02625 0.00013533
-1.91544e-20 0.006046 0.0275 0.000125494
1.0842e-19 -0.010204 0.02625 0.000131074
0 -0.015204 0.02375 0.000146603
3.28979e-21 -0.006454 0.0275 0.000122877
-1.29247e-26 -0.026454 0.00994629 0.000208251
0 -0.023954 0.0149988 0.000190072
-1.0842e-19 0.024796 0.0137433 0.000202121
0 -0.027704 0.00608215 0.000225408
1.58401e-19 0.013546 0.025 0.000144453
-1.65436e-24 0.028546 9.91191e-09 0.000183005
1.58401e-19 -0.013954 0.025 0.00013861
1.0842e-19 0.027296 0.00865601 0.000216363
9.75076e-20 0.028546 0.00233887 0.000208753
0 -0.025204 0.0137433 0.000194937
0 -0.000204 0.02875 0.000115194
-1.91544e-20 0.008546 0.0275 0.000126075
0 0.002296 0.02875 0.000115716
-1.0842e-19 -0.002704 0.02875 0.000114686
-3.23117e-27 0.026046 0.0124878 0.000205943
-1.91544e-20 -0.008954 0.0275 0.000122405
-8.8438e-20 0.028546 0.00479858 0.000229601
1.65436e-24 -0.028954 9.37348e-09 0.000217907
0 0.012296 0.02625 0.000135945
0 -0.027704 0.008656 0.000212802
1.58401e-19 0.021046 0.02 0.000175481
1.0842e-19 0.019796 0.02125 0.00016882
-3.26281e-20 -0.028954 0.00233887 0.000232725
-1.0842e-19 0.022296 0.01875 0.000182119
-1.0842e-19 0.004796 0.02875 0.000116264
-1.91544e-20 0.018546 0.0225 0.000161219
0 -0.012704 0.02625 0.000130617
1.0842e-19 -0.005204 0.02875 0.000114199
3.23117e-27 -0.026454 0.0124878 0.000199228
0 -0.020204 0.02125 0.000160656
8.08456e-20 -0.021454 0.02 0.000167122
1.10441e-29 0.023546 0.0174904 0.000187807
-1.9149e-20 0.023546 0.0175 0.00018777
-1.64808e-19 -0.028954 0.00479858 0.000236693
0 0.017296 0.02375 0.000153604
-1.91544e-20 -0.018954 0.0225 0.000153409
0 -0.022704 0.01875 0.000173607
-5.16988e-26 0.028546 0.00736572 0.000220348
0 0.027296 0.011217 0.00020972
1.0842e-19 -0.017704 0.02375 0.000146167
5.84013e-20 0.011046 0.0275 0.000126676
-1.0842e-19 0.024796 0.0162494 0.000193392
0 -0.023954 0.0174875 0.000179309
-1.0842e-19 0.007296 0.02875 0.000116829
0 -0.023954 0.0175 0.000179255
-1.29247e-26 -0.028954 0.00659417 0.000224392
1.58401e-19 0.016046 0.025 0.000145094
-1.0842e-19 -0.007704 0.02875 0.00011373
-1.91544e-20 -0.011454 0.0275 0.00012195
2.1684e-19 0.029796 0.00116944 0.000181913
-1.29247e-26 -0.028954 0.00736572 0.000219106
-1.0842e-19 -0.027704 0.011217 0.000203572
-1.91544e-20 -0.016454 0.025 0.000138171
-1.0842e-19 -0.025204 0.0162494 0.000184919
-1.0842e-19 0.029796 0.00356872 0.000234511
8.08456e-20 0.001046 0.03 0.000106086
8.08456e-20 -0.001454 0.03 0.000105589
0 0.026046 0.0149988 0.000198015
0 0.014796 0.02625 0.000136578
-1.91544e-20 0.003546 0.03 0.000106603
0 -0.030204 0.00116943 0.000218376
1.29247e-26 0.028546 0.00994629 0.000213187
-9.67102e-20 -0.003954 0.03 0.000105109
-1.0842e-19 -0.015204 0.02625 0.000130171
0 0.009796 0.02875 0.000117411
0 -0.026454 0.0149988 0.000189783
-1.0842e-19 0.029796 0.00608215 0.000224185
1.0842e-19 -0.030204 0.00356872 0.00024798
-1.0842e-19 -0.010204 0.02875 0.000113274
1.0842e-19 0.027296 0.0137433 0.000202601
-1.91544e-20 0.006046 0.03 0.000107142
0 -0.028954 0.00994629 0.000208104
5.84013e-20 0.013546 0.0275 0.000127297
3.28979e-21 -0.006454 0.03 0.000104647
0 0.022296 0.02125 0.000169474
1.58401e-19 0.021046 0.0225 0.000161881
-1.0842e-19 -0.030204 0.00608215 0.000225486
1.58401e-19 -0.013954 0.0275 0.000121508
5.84013e-20 0.023546 0.02 0.00017612
0 0.019796 0.02375 0.000154272
0 -0.027704 0.0137433 0.000194673
-1.0842e-19 0.029796 0.008656 0.000216591
0 0.031046 8.13302e-09 0.000180769
0 0.024796 0.01875 0.000182735
1.58401e-19 -0.021454 0.0225 0.000153003
0 -0.022704 0.02125 0.000160264
8.08456e-20 0.018546 0.025 0.000145758
0 0.031046 0.00233887 0.000207221
0 0.028546 0.0124878 0.000206373
1.0842e-19 -0.020204 0.02375 0.00014575
5.84013e-20 0.008546 0.03 0.000107699
-9.67102e-20 -0.023954 0.02 0.000166752
0 -0.000204 0.03125 9.64738e-05
-1.0842e-19 0.012296 0.02875 0.000118018
8.08456e-20 -0.008954 0.03 0.000104203
0 0.002296 0.03125 9.69618e-05
0 -0.002704 0.03125 9.60022e-05
-1.91544e-20 -0.018954 0.025 0.000137747
-1.57772e-30 0.026046 0.0174889 0.000188405
5.84013e-20 0.026046 0.0175 0.000188363
0 -0.025204 0.01875 0.000173257
0 0.031046 0.00479858 0.000229161
1.0842e-19 -0.030204 0.008656 0.000212705
0 -0.012704 0.02875 0.000112835
0 0.017296 0.02625 0.000137237
0 -0.031454 8.26335e-09 0.00021889
-3.23117e-27 -0.028954 0.0124878 0.000199003
5.73302e-20 -0.031454 0.00233887 0.000233418
-1.0842e-19 0.004796 0.03125 9.74713e-05
-1.0842e-19 -0.017704 0.02625 0.000129744
-1.0842e-19 -0.005204 0.03125 9.55487e-05
-8.83524e-29 -0.026454 0.017487 0.000178984
8.08497e-20 -0.026454 0.0175 0.000178927
0 0.027296 0.0162494 0.000193957
7.69326e-20 -0.031454 0.00479858 0.00023693
1.0842e-19 0.029796 0.011217 0.000210107
1.58401e-19 0.016046 0.0275 0.000127941
-3.23117e-27 -0.031454 0.00522866 0.000233942
-2.58494e-26 0.031046 0.00736572 0.000220434
1.58401e-19 0.011046 0.03 0.000108276
1.58401e-19 -0.016454 0.0275 0.000121081
0 0.007296 0.03125 9.80031e-05
-1.91544e-20 -0.011454 0.03 0.000103775
0 -0.027704 0.0162494 0.000184615
-1.0842e-19 -0.007704 0.03125 9.51117e-05
1.0842e-19 -0.030204 0.011217 0.000203387
-5.63223e-21 0.028546 0.0149988 0.000198543
0 -0.031454 0.00736572 0.000219095
0 0.032296 0.00116944 0.000179626
-1.0842e-19 0.014796 0.02875 0.000118647
1.0842e-19 0.032296 0.00356872 0.000233683
-1.91544e-20 0.001046 0.0325 8.75014e-05
-1.0842e-19 -0.015204 0.02875 0.000112411
-9.67102e-20 -0.001454 0.0325 8.70473e-05
-1.91544e-20 0.023546 0.0225 0.000162563
0 0.022296 0.02375 0.000154959
-6.46235e-27 0.031046 0.00994629 0.000213497
4.03897e-28 -0.028954 0.0149988 0.000189504
0 0.024796 0.02125 0.000170154
3.28979e-21 0.021046 0.025 0.000146443
-9.67102e-20 0.003546 0.0325 8.79735e-05
0 -0.032704 0.00116943 0.000219404
8.08456e-20 -0.003954 0.0325 8.66099e-05
-1.0842e-19 0.009796 0.03125 9.8552e-05
0 0.029796 0.0137433 0.000203092
5.84013e-20 0.026046 0.02 0.000176776
1.0842e-19 -0.022704 0.02375 0.000145343
-1.0842e-19 0.032296 0.00608215 0.000224124
-9.67102e-20 -0.023954 0.0225 0.000152609
0 -0.010204 0.03125 9.46974e-05
0 0.019796 0.02625 0.00013792
-1.0842e-19 -0.032704 0.00356873 0.000248375
-1.91544e-20 0.013546 0.03 0.000108878
3.28979e-21 -0.021454 0.025 0.000137336
0 -0.025204 0.02125 0.000159881
0 -0.031454 0.00994629 0.000207962
8.08456e-20 0.006046 0.0325 8.84668e-05
8.08456e-20 -0.013954 0.03 0.000103359
0 0.027296 0.01875 0.000183369
-1.0842e-19 -0.020204 0.02625 0.000129329
-1.91544e-20 -0.006454 0.0325 8.61901e-05
3.28979e-21 -0.026454 0.02 0.000166392
8.08456e-20 0.018546 0.0275 0.000128609
1.0842e-19 -0.030204 0.0137433 0.000194419
1.0842e-19 -0.032704 0.00608215 0.000225555
8.08456e-20 -0.018954 0.0275 0.000120667
-2.1684e-19 0.032296 0.008656 0.000216823
1.0842e-19 -0.027704 0.01875 0.00017292
2.55382e-20 0.031046 0.0124878 0.000206818
-4.73317e-29 0.028546 0.0174847 0.000189027
-1.57772e-30 0.028546 0.0175 0.000188969
0 0.033546 8.11061e-09 0.000178454
-1.0842e-19 0.017296 0.02875 0.000119302
1.0842e-19 0.012296 0.03125 9.91242e-05
5.84013e-20 0.008546 0.0325 8.89786e-05
0 0.033546 0.00233887 0.000205632
-1.91544e-20 -0.008954 0.0325 8.57878e-05
-1.0842e-19 -0.012704 0.03125 9.42936e-05
0 -0.000204 0.03375 7.80668e-05
-1.0842e-19 -0.017704 0.02875 0.000111998
-1.26218e-29 -0.028954 0.0174857 0.000178673
0 0.002296 0.03375 7.85031e-05
-1.0842e-19 -0.032704 0.008656 0.000212611
0 -0.028954 0.0175 0.00017861
0 -0.031454 0.0124878 0.000198785
-1.0842e-19 -0.002704 0.03375 7.76463e-05
0 0.033546 0.00479858 0.000228702
1.0842e-19 0.029796 0.0162494 0.000194533
0 -0.033954 7.88963e-09 0.000219907
-1.91544e-20 0.016046 0.03 0.000109503
3.37515e-20 -0.033954 0.00233887 0.000234124
-1.0842e-19 0.004796 0.03375 7.8958e-05
0 -0.005204 0.03375 7.72424e-05
1.0842e-19 0.032296 0.011217 0.000210502
-9.67102e-20 -0.016454 0.03 0.000102957
2.72011e-20 -0.033954 0.00479858 0.000237161
1.0842e-19 -0.030204 0.0162494 0.000184321
1.58401e-19 0.011046 0.0325 8.95102e-05
-1.0842e-19 0.024796 0.02375 0.000155666
8.08456e-20 0.023546 0.025 0.000147148
2.58494e-26 0.033546 0.00736572 0.000220523
1.58401e-19 0.026046 0.0225 0.000163266
-1.0842e-19 0.022296 0.02625 0.00013862
1.58401e-19 -0.011454 0.0325 8.54006e-05
1.7236e-20 0.031046 0.0149988 0.000199088
0 -0.033954 0.00602802 0.000228504
0 0.007296 0.03375 7.94347e-05
-2.1684e-19 -0.032704 0.011217 0.000203196
0 0.014796 0.03125 9.97227e-05
0 0.027296 0.02125 0.000170847
0 -0.007704 0.03375 7.68576e-05
-3.54881e-20 -0.023954 0.025 0.000136936
-3.54881e-20 0.021046 0.0275 0.000129299
1.0842e-19 -0.025204 0.02375 0.000144949
-1.0842e-19 -0.022704 0.02625 0.000128924
3.28979e-21 -0.026454 0.0225 0.000152225
0 -0.033954 0.00736572 0.000219084
0 -0.015204 0.03125 9.38987e-05
2.1684e-19 0.034796 0.00116944 0.000177283
0 -0.031454 0.0149988 0.000189233
-1.91544e-20 0.028546 0.02 0.000177447
3.28979e-21 -0.021454 0.0275 0.000120264
0 0.019796 0.02875 0.000119976
0 -0.027704 0.02125 0.00015951
1.0842e-19 0.034796 0.00356872 0.00023281
-6.46235e-27 0.033546 0.00994629 0.000213817
8.08456e-20 0.001046 0.035 6.96389e-05
8.08456e-20 -0.001454 0.035 6.92396e-05
-1.0842e-19 0.032296 0.0137433 0.0002036
0 -0.020204 0.02875 0.000111598
-1.0842e-19 0.009796 0.03375 7.99245e-05
3.28979e-21 0.003546 0.035 7.00539e-05
-1.91544e-20 -0.028954 0.02 0.000166042
0 0.029796 0.01875 0.000184018
-3.54881e-20 0.013546 0.0325 9.00668e-05
1.58401e-19 -0.003954 0.035 6.88546e-05
-1.0842e-19 -0.035204 0.00116943 0.00022041
-1.0842e-19 -0.010204 0.03375 7.64847e-05
0 0.018546 0.03 0.000110152
4.1359e-25 0.035322 0 0.000176762
0 0.034796 0.00608215 0.000224063
-4.15987e-20 -0.013954 0.0325 8.50255e-05
0 -0.033954 0.00994629 0.000207825
0 -0.035204 0.00356873 0.000248762
1.0842e-19 -0.032704 0.0137433 0.000194175
-9.67102e-20 -0.018954 0.03 0.000102568
8.08456e-20 0.006046 0.035 7.04882e-05
-1.0842e-19 -0.030204 0.01875 0.000172586
5.84013e-20 -0.006454 0.035 6.84865e-05
-1.57772e-29 0.031046 0.0174753 0.000189688
-9.67102e-20 0.031046 0.0175 0.000189595
-1.0842e-19 0.017296 0.03125 0.000100342
0 -0.035204 0.00608215 0.000225621
-4.78217e-20 0.033546 0.0124878 0.000207275
-2.1684e-19 0.034796 0.00865601 0.000217068
0 -0.017704 0.03125 9.35212e-05
0 0.012296 0.03375 8.04401e-05
-1.0413e-28 -0.031454 0.0174805 0.000178385
-1.91513e-20 -0.031454 0.0175 0.0001783
-1.91544e-20 0.008546 0.035 7.09385e-05
4.1359e-25 0.036046 3.3064e-09 0.000176073
-1.0842e-19 -0.012704 0.03375 7.61268e-05
2.06795e-25 0.036046 0.00171503 0.000196543
-1.91544e-20 0.026046 0.025 0.000147877
0 0.024796 0.02625 0.000139347
-9.31081e-20 0.036046 0.00233887 0.000203989
5.84013e-20 -0.008954 0.035 6.81325e-05
-3.23117e-27 -0.0353819 0.00736572 0.000219079
-1.0842e-19 0.032296 0.0162494 0.000195136
8.07794e-28 -0.033954 0.0124878 0.000198572
-1.0842e-19 0.027296 0.02375 0.000156396
-9.67102e-20 0.023546 0.0275 0.000130012
-9.67102e-20 0.016046 0.0325 9.06471e-05
-1.0842e-19 -0.000204 0.03625 6.08055e-05
-1.0842e-19 -0.035204 0.008656 0.000212525
0 0.002296 0.03625 6.11802e-05
-9.67102e-20 0.028546 0.0225 0.000163988
-1.0842e-19 -0.002704 0.03625 6.04397e-05
-1.03398e-25 0.036046 0.00479858 0.00022822
-1.0842e-19 0.022296 0.02875 0.000120679
0 -0.025204 0.02625 0.000128529
3.28979e-21 -0.026454 0.025 0.000136547
5.84013e-20 -0.016454 0.0325 8.46636e-05
0 -0.036454 7.98331e-09 0.00022095
8.08456e-20 -0.023954 0.0275 0.00011987
0 -0.027704 0.02375 0.000144563
-1.0842e-19 -0.032704 0.0162494 0.000184031
3.46762e-20 -0.036454 0.00233887 0.000234841
-1.0842e-19 0.034796 0.011217 0.000210907
0 0.0365624 0 0.000175565
1.0842e-19 0.004796 0.03625 6.15745e-05
0 0.029796 0.02125 0.000171555
-1.0842e-19 -0.005204 0.03625 6.00901e-05
-1.0842e-19 -0.022704 0.02875 0.000111206
-3.54881e-20 0.021046 0.03 0.000110825
8.08456e-20 -0.028954 0.0225 0.000151854
-1.91544e-20 0.011046 0.035 7.14063e-05
-1.00974e-28 0.033546 0.0149988 0.000199648
-1.39374e-19 -0.036454 0.00479858 0.00023739
-5.16988e-26 0.036046 0.00736572 0.000220617
1.58401e-19 -0.011454 0.035 6.77906e-05
0 0.014796 0.03375 8.09803e-05
-9.67102e-20 -0.021454 0.03 0.000102188
1.0842e-19 -0.030204 0.02125 0.000159154
8.08456e-20 0.031046 0.02 0.000178139
1.0842e-19 -0.035204 0.011217 0.00020302
0 0.007296 0.03625 6.19859e-05
1.0842e-19 0.019796 0.03125 0.000100988
-1.0842e-19 -0.015204 0.03375 7.5783e-05
1.0842e-19 -0.007704 0.03625 5.97559e-05
1.61559e-27 -0.0357267 0.00994629 0.000207733
0 -0.033954 0.0149988 0.000188969
0 -0.036454 0.00736572 0.000219076
0 -0.020204 0.03125 9.31545e-05
-1.91544e-20 -0.031454 0.02 0.000165701
1.0842e-19 0.037296 0.00116944 0.000174863