# omega  POINT_DATA 43565
# x  y  z  omega
-3.30872e-24 0.00104604 1.58372e-08 80.1559
-2.1684e-19 -0.000203985 0.00116944 80.2228
0 -0.00145396 1.55656e-08 80.2871
1.16872e-19 0.001046 0.00233888 55.7726
0 0.00229601 0.00116944 80.0891
5.08501e-20 -0.00145398 0.00233888 55.8065
-2.1684e-19 -0.00270399 0.00116943 80.3514
0 0.00354601 1.54868e-08 80.0199
1.0842e-19 -0.000203995 0.00356872 30.9656
0 -0.00395397 1.47352e-08 80.4133
-1.0842e-19 0.002296 0.00356873 31.0324
1.08543e-19 0.00354599 0.00233888 55.7382
-1.0842e-19 -0.002704 0.00356872 30.9027
5.16864e-20 -0.00395401 0.00233888 55.8399
-6.13913e-20 0.001046 0.00479858 23.8701
1.0842e-19 0.004796 0.00116944 79.9507
-2.65624e-20 -0.001454 0.00479858 23.8162
-1.0842e-19 -0.005204 0.00116943 80.4753
-8.79827e-20 0.003546 0.00479858 23.9274
1.0842e-19 0.004796 0.00356872 31.1034
-1.65436e-24 0.006046 1.32897e-08 79.8789
0 -0.000204 0.00608215 16.6162
4.1359e-25 -0.003954 0.00479858 23.7654
1.0842e-19 -0.005204 0.00356872 30.8436
0 -0.006454 1.30614e-08 80.5348
9.109e-20 0.00604599 0.00233888 55.7034
0 0.002296 0.00608215 16.6603
1.0842e-19 -0.002704 0.00608215 16.5746
8.32574e-20 -0.006454 0.00233887 55.8726
0 0.007296 0.00116943 79.8071
-4.87021e-20 0.001046 0.00736572 13.9454
-3.61046e-20 -0.001454 0.00736572 13.9094
-6.41696e-20 0.006046 0.00479858 23.9883
-1.0842e-19 0.004796 0.00608215 16.7073
0 -0.00770401 0.00116943 80.5943
0 -0.005204 0.00608215 16.5355
6.12058e-20 -0.006454 0.00479858 23.7178
2.1684e-19 0.007296 0.00356872 31.1786
7.27234e-20 0.003546 0.00736572 13.9836
0 -0.003954 0.00736572 13.8755
1.0842e-19 -0.007704 0.00356872 30.7881
-1.65436e-24 0.00854602 1.01674e-08 79.7322
0 -0.000204 0.008656 11.2328
3.0506e-20 0.008546 0.00233887 55.6679
0 -0.00895401 1.13402e-08 80.6515
1.0842e-19 0.002296 0.00865601 11.2628
2.1684e-19 -0.002704 0.00865601 11.2045
-1.73753e-20 -0.00895401 0.00233887 55.9049
0 0.007296 0.00608215 16.7573
-6.27586e-20 0.006046 0.00736572 14.0242
5.05862e-21 -0.006454 0.00736572 13.8436
-6.09576e-20 0.008546 0.00479858 24.0528
-1.0842e-19 -0.007704 0.00608215 16.4988
0 0.009796 0.00116944 79.6573
0 0.004796 0.008656 11.2945
-4.63851e-20 0.001046 0.00994629 9.95322
9.72651e-21 -0.001454 0.00994629 9.92806
1.0842e-19 -0.005204 0.00865601 11.1778
-3.28411e-21 -0.008954 0.00479858 23.6731
0 -0.010204 0.00116944 80.7088
-2.1684e-19 0.009796 0.00356872 31.2582
6.11923e-20 0.003546 0.00994629 9.9798
8.14903e-20 -0.003954 0.00994629 9.90426
0 -0.010204 0.00356873 30.7363
0 0.011046 8.1473e-09 79.5799
-1.0842e-19 -0.000204 0.011217 8.65458
-6.65281e-21 0.008546 0.00736572 14.0672
6.9075e-20 0.011046 0.00233887 55.6317
-1.0842e-19 0.007296 0.008656 11.328
0 0.002296 0.011217 8.67634
0 -0.011454 1.00102e-08 80.7639
-1.0842e-19 0.009796 0.00608215 16.8103
0 -0.002704 0.011217 8.63393
0 -0.007704 0.00865601 11.1525
-1.16074e-19 -0.008954 0.00736572 13.8135
1.03364e-19 0.006046 0.00994629 10.0079
4.90187e-21 -0.011454 0.00233887 55.9367
5.32412e-20 -0.006454 0.00994629 9.88171
1.0842e-19 -0.010204 0.00608215 16.4645
1.04358e-19 0.011046 0.00479858 24.1212
2.1684e-19 0.004796 0.011217 8.69927
-2.1684e-19 0.012296 0.00116944 79.5024
2.1684e-19 -0.005204 0.011217 8.61432
-4.15844e-20 -0.011454 0.00479858 23.6314
-4.95486e-20 0.001046 0.0124878 7.933
1.82458e-20 -0.001454 0.0124878 7.91418
0 -0.012704 0.00116943 80.8191
0 0.012296 0.00356873 31.3422
-2.41021e-20 0.003546 0.0124878 7.9528
0 0.009796 0.008656 11.3634
-9.53899e-20 -0.003954 0.0124878 7.89629
-2.58494e-26 0.008546 0.00994629 10.0375
0 -0.012704 0.00356872 30.688
-5.16988e-26 0.011046 0.00736572 14.1128
1.0842e-19 -0.010204 0.008656 11.1287
0 0.007296 0.011217 8.72342
1.03448e-19 -0.008954 0.00994629 9.86039
8.27181e-25 0.013546 6.90219e-09 79.4221
0 -0.007704 0.011217 8.59572
7.6245e-20 -0.011454 0.00736572 13.7853
0 0.012296 0.00608215 16.8666
0 -0.000204 0.0137433 7.19511
-1.43847e-21 0.013546 0.00233887 55.595
6.23766e-20 0.006046 0.0124878 7.97362
0 0.002296 0.0137433 7.21196
0 -0.013954 8.61294e-09 80.8721
-1.0842e-19 -0.002704 0.0137433 7.17906
5.10456e-20 -0.006454 0.0124878 7.87927
-1.0842e-19 -0.012704 0.00608215 16.4322
-2.34615e-20 -0.013954 0.00233887 55.968
9.32818e-20 0.013546 0.00479858 24.1935
0 0.004796 0.0137433 7.22963
-1.0842e-19 -0.005204 0.0137433 7.16377
0 -0.013954 0.00479858 23.5924
3.25261e-19 0.014796 0.00116944 79.3416
-1.29247e-26 0.011046 0.00994629 10.0688
0 0.009796 0.011217 8.74886
-1.90307e-20 0.001046 0.0149988 6.73279
-1.0842e-19 0.012296 0.008656 11.401
1.04505e-19 -0.001454 0.0149988 6.71781
-1.06374e-19 0.008546 0.0124878 7.99552
1.0842e-19 -0.010204 0.011217 8.57806
-5.3168e-20 -0.011454 0.00994629 9.84023
0 0.014796 0.00356872 31.431
1.0842e-19 -0.015204 0.00116943 80.9251
7.23021e-20 -0.008954 0.0124878 7.86309
0 -0.012704 0.008656 11.1063
-8.82354e-21 0.003546 0.0149988 6.74851
0 0.013546 0.00736572 14.1611
-8.20398e-20 -0.003954 0.0149988 6.70352
1.0842e-19 0.007296 0.0137433 7.24818
-1.0842e-19 -0.015204 0.00356872 30.643
0 0.0148798 0.00479858 24.2343
0 0.0138282 0.00736572 14.1669
-1.0842e-19 -0.007704 0.0137433 7.14919
-3.23117e-27 -0.013954 0.00736572 13.7588
1.29247e-26 -0.0152493 0.00479858 23.5736
1.0842e-19 0.014796 0.00608215 16.9262
8.27181e-25 0.016046 5.10446e-09 79.2582
-3.23117e-27 -0.0143632 0.00736572 13.7547
1.20733e-19 0.006046 0.0149988 6.76498
2.58494e-26 0.016046 0.00233887 55.5576
-1.0842e-19 -0.000204 0.0162494 6.25575
8.74269e-20 -0.006454 0.0149988 6.68988
-2.06795e-25 0.0162013 0.00233887 55.5553
0 -0.015204 0.00608215 16.4021
-2.58494e-26 0.016046 0.00331439 43.1489
0 0.002296 0.0162494 6.26959
0 0.013546 0.00927608 11.1561
0 -0.016454 7.35239e-09 80.976
-1.0842e-19 -0.002704 0.0162494 6.24254
0 0.0132413 0.00994629 10.0978
2.66092e-20 -0.016454 0.00233887 55.9989
1.0842e-19 0.012296 0.011217 8.77565
3.79047e-20 0.011046 0.0124878 8.01855
0 0.016046 0.00479858 24.2699
1.61559e-27 0.013546 0.00994629 10.1018
0 0.0168588 0 79.2029
0 0.009796 0.0137433 7.26765
0 0.004796 0.0162494 6.28408
-1.44746e-19 -0.011454 0.0124878 7.84771
1.0842e-19 -0.012704 0.011217 8.56131
-2.58494e-26 -0.016454 0.00425899 30.6732
0 -0.005204 0.0162494 6.22992
0 -0.010204 0.0137433 7.1353
4.40724e-20 -0.013954 0.00994629 9.82116
-2.58494e-26 -0.016454 0.00479858 23.5561
2.1684e-19 0.014796 0.008656 11.4406
-4.03897e-27 -0.0140935 0.00994629 9.82015
5.34705e-20 0.008546 0.0149988 6.78229
-1.0842e-19 0.017296 0.00116943 79.1747
1.0958e-20 -0.008954 0.0149988 6.67686
1.0842e-19 -0.015204 0.008656 11.085
-1.91606e-20 0.001046 0.0175 5.92907
8.08399e-20 -0.001454 0.0175 5.91627
8.60369e-21 0.016046 0.00736572 14.2123
-1.0842e-19 0.017296 0.00356872 31.5245
0 -0.017704 0.00116943 81.0269
-1.0842e-19 0.007296 0.0162494 6.29929
8.08393e-20 0.003546 0.0175 5.94246
-1.91544e-20 -0.003954 0.0175 5.90405
1.0842e-19 -0.007704 0.0162494 6.21785
0 0.0129674 0.0124878 8.03717
-2.58494e-26 -0.016454 0.00736572 13.7339
-1.0842e-19 -0.017704 0.00356873 30.6013
-1.0842e-19 0.017296 0.00608215 16.9896
8.07794e-28 0.013546 0.0124878 8.04278
-1.0842e-19 0.012296 0.0137433 7.28809
1.42061e-19 0.006046 0.0175 5.95649
-1.65436e-24 0.018546 1.05965e-08 79.0881
1.0842e-19 0.014796 0.011217 8.80388
-2.01948e-28 0.011046 0.0149988 6.80047
0 -0.013954 0.0123475 7.94284
-1.9158e-20 -0.006454 0.0175 5.89238
0 -0.0139078 0.0124878 7.83335
0 0.018546 0.00233887 55.5196
-1.0842e-19 -0.012704 0.0137433 7.12206
0 -0.017704 0.00608215 16.3739
0 -0.013954 0.0124878 7.83308
0 -0.000204 0.01875 5.58935
0 -0.011454 0.0149988 6.66444
-6.6779e-20 0.016046 0.00994629 10.1367
1.0842e-19 0.002296 0.01875 5.60169
0 -0.015204 0.011217 8.54541
0 -0.002704 0.01875 5.57756
0 -0.018954 6.98088e-09 81.0758
-1.0842e-19 0.009796 0.0162494 6.31528
1.93152e-20 -0.018954 0.00233887 56.0294
-2.06795e-25 0.018546 0.00479858 24.3507
-2.1684e-19 -0.010204 0.0162494 6.20632
6.46235e-27 -0.016454 0.00994629 9.80312
0 -0.018954 0.00379254 36.818
0 0.017296 0.00865601 11.4826
1.0842e-19 0.004796 0.01875 5.61461
0 -0.005204 0.01875 5.56631
8.084e-20 0.008546 0.0175 5.9712
5.16988e-26 -0.018954 0.00479858 23.5224
1.58401e-19 -0.008954 0.0175 5.88124
-1.0842e-19 -0.017704 0.00865601 11.065
0 0.0128206 0.0149988 6.81402
-1.0842e-19 0.019796 0.00116944 79.0015
-4.83916e-20 0.018546 0.00736572 14.2666
-1.91544e-20 0.001046 0.02 5.34114
8.08456e-20 -0.001454 0.02 5.32945
0 0.019796 0.00356872 31.623
-1.0842e-19 0.007296 0.01875 5.62811
1.0842e-19 0.014796 0.0137433 7.30957
0 0.013546 0.0149988 6.81957
-1.0842e-19 -0.020204 0.00116943 81.1247
-1.0842e-19 -0.007704 0.01875 5.55557
1.26218e-29 -0.0136771 0.0149988 6.65389
5.84013e-20 0.003546 0.02 5.35336
0 0.016046 0.0124878 8.06828
-2.58494e-26 -0.018954 0.00736572 13.7106
0 0.012296 0.0162494 6.3321
-1.91544e-20 -0.003954 0.02 5.31828
-1.26218e-29 -0.013954 0.0149988 6.65258
1.0842e-19 -0.015204 0.0137433 7.10943
0 -0.020204 0.00356872 30.5628
-1.0842e-19 0.017296 0.011217 8.83364
0 -0.012704 0.0162494 6.19529
0 -0.016454 0.0124878 7.81918
-1.9158e-20 0.011046 0.0175 5.98664
1.0842e-19 0.019796 0.00608215 17.0569
-1.91544e-20 0.006046 0.02 5.36612
5.84007e-20 -0.011454 0.0175 5.8706
-1.0842e-19 -0.017704 0.011217 8.53033
-1.91544e-20 -0.006454 0.02 5.3076
-2.58494e-26 0.018546 0.00994629 10.1736
0 0.021046 1.24254e-08 78.9116
-1.0842e-19 -0.020204 0.00608215 16.3476
1.0842e-19 0.009796 0.01875 5.64225
0 0.021046 0.00233888 55.4807
0 -0.000204 0.02125 5.08099
0 -0.010204 0.01875 5.54533
1.0842e-19 0.002296 0.02125 5.09253
-1.29247e-26 -0.018954 0.00994629 9.78608
1.0842e-19 -0.002704 0.02125 5.06992
0 -0.021454 7.94194e-09 81.1716
1.27918e-19 -0.021454 0.00233887 56.0594
2.06795e-25 0.021046 0.00479858 24.436
1.0842e-19 0.019796 0.008656 11.5271
8.08456e-20 0.008546 0.02 5.37944
0 0.004796 0.02125 5.1046
0 -0.005204 0.02125 5.05934
-1.91544e-20 -0.008954 0.02 5.2974
0 -0.021454 0.00459418 26.1977
2.01948e-28 0.016046 0.0149988 6.83964
0 0.014796 0.0162494 6.34976
0 -0.020204 0.008656 11.0462
-2.58494e-26 -0.021454 0.00479858 23.4913
-3.9443e-29 0.013546 0.017442 6.02177
0 0.017296 0.0137433 7.33213
8.08476e-20 0.013546 0.0175 6.00285
-4.73317e-30 -0.013954 0.0172412 5.9424
-1.0842e-19 -0.015204 0.0162494 6.18474
0 -0.016454 0.0149988 6.64126
-3.79057e-20 0.021046 0.00736572 14.3241
-1.0842e-19 0.022296 0.00116944 78.8217
0 0.018546 0.0124878 8.09513
5.84013e-20 -0.013954 0.0175 5.86045
0 -0.017704 0.0137433 7.09741
0 0.012296 0.01875 5.65706
1.0842e-19 0.007296 0.02125 5.11717
8.08456e-20 0.001046 0.0225 4.88081
8.08456e-20 -0.001454 0.0225 4.86979
0 0.022296 0.00356873 31.7266
0 -0.007704 0.02125 5.04921
-1.0842e-19 -0.012704 0.01875 5.53559
0 -0.021454 0.00736572 13.6888
0 -0.018954 0.0124878 7.80597
0 -0.022704 0.00116943 81.2186
-1.29247e-26 -0.0222244 0.00479858 23.4824
0 0.019796 0.011217 8.86502
5.84013e-20 0.003546 0.0225 4.89229
8.08456e-20 -0.003954 0.0225 4.85922
1.58401e-19 0.011046 0.02 5.39336
0 -0.022704 0.00356872 30.5276
1.58401e-19 -0.011454 0.02 5.28766
1.0842e-19 -0.020204 0.011217 8.51603
0 0.022296 0.00608215 17.1282
0 0.021046 0.00994629 10.2126
-1.91544e-20 0.006046 0.0225 4.90424
-1.0842e-19 0.009796 0.02125 5.13025
-1.91544e-20 -0.006454 0.0225 4.84907
0 -0.022704 0.00608215 16.3232
0 0.023546 1.31505e-08 78.7285
0 -0.010204 0.02125 5.0395
0 -0.021454 0.00994629 9.77
0 0.023546 0.00233888 55.4411
1.57772e-30 0.016046 0.0174837 6.02519
0 0.017296 0.0162494 6.36833
0 0.016046 0.0175 6.01986
0 -0.000204 0.02375 4.66939
4.03897e-28 0.018546 0.0149988 6.86072
1.0842e-19 0.002296 0.02375 4.68033
0 0.014796 0.01875 5.67258
0 -0.002704 0.02375 4.65887
0 0.022296 0.00865601 11.5742
-1.65436e-24 -0.023954 9.6474e-09 81.2636
-5.83757e-29 -0.016454 0.0174745 5.8588
0 -0.016454 0.0175 5.85075
0 0.023546 0.00479858 24.526
-1.0842e-19 -0.017704 0.0162494 6.17466
-1.36562e-19 -0.023954 0.00233887 56.089
8.08456e-20 0.008546 0.0225 4.91669
-1.0842e-19 0.019796 0.0137433 7.35585
1.0842e-19 -0.015204 0.01875 5.52628
-1.91544e-20 0.013546 0.02 5.40789
0 -0.018954 0.0149988 6.63046
-1.91544e-20 -0.008954 0.0225 4.83932
0 0.004796 0.02375 4.6917
1.0842e-19 -0.022704 0.008656 11.0285
-1.0842e-19 -0.005204 0.02375 4.64875
-1.91544e-20 -0.013954 0.02 5.27835
5.56351e-20 -0.023954 0.00479858 23.4626
-2.1684e-19 -0.020204 0.0137433 7.08595
0 0.021046 0.0124878 8.12339
-1.0842e-19 0.012296 0.02125 5.14387
1.03398e-25 0.023546 0.00736572 14.3851
0 -0.012704 0.02125 5.03021
1.0842e-19 0.024796 0.00116944 78.6353
0 -0.021454 0.0124878 7.79342
0 -0.023954 0.00654325 16.8063
1.0842e-19 0.007296 0.02375 4.70352
1.0842e-19 0.022296 0.011217 8.89809
-1.0842e-19 -0.007704 0.02375 4.639
-1.91544e-20 0.001046 0.025 4.49936
8.08456e-20 -0.001454 0.025 4.4889
0 0.024796 0.00356872 31.8353
0 -0.023954 0.00736572 13.6684
1.58401e-19 0.011046 0.0225 4.92963
2.1684e-19 -0.025204 0.00116944 81.3087
1.58401e-19 -0.011454 0.0225 4.82995
-1.91544e-20 0.003546 0.025 4.51023
8.08456e-20 -0.003954 0.025 4.47882
-2.1684e-19 -0.022704 0.011217 8.50249
0 -0.025204 0.00356872 30.4953
3.31322e-29 0.018546 0.0174888 6.04137
0 0.018546 0.0175 6.03771
0 0.017296 0.01875 5.68885
1.0842e-19 0.024796 0.00608215 17.2039
0 0.023546 0.00994629 10.2538
1.0842e-19 0.019796 0.0162494 6.38784
8.08456e-20 0.016046 0.02 5.42309
-1.0842e-19 0.009796 0.02375 4.71582
-1.91544e-20 0.006046 0.025 4.52153
9.15079e-29 -0.018954 0.017485 5.84622
-1.0842e-19 -0.017704 0.01875 5.51741
8.08456e-20 -0.018954 0.0175 5.84149
8.08456e-20 -0.006454 0.025 4.46912
0 0.021046 0.0149988 6.88288
0 -0.010204 0.02375 4.62959
-1.0842e-19 0.014796 0.02125 5.15806
8.08456e-20 -0.016454 0.02 5.26944
0 -0.025204 0.00608215 16.3005
0 -0.020204 0.0162494 6.16504
8.92812e-20 -0.023954 0.00994629 9.75484
1.65436e-24 0.026046 1.21855e-08 78.5385
-1.0842e-19 -0.015204 0.02125 5.0213
7.01011e-20 0.026046 0.00233887 55.4006
4.03897e-28 -0.021454 0.0149988 6.62018
0 0.022296 0.0137433 7.38078
0 -0.000204 0.02625 4.31867
-1.91544e-20 0.013546 0.0225 4.9431
0 0.024796 0.008656 11.624
0 0.002296 0.02625 4.32906
1.0842e-19 -0.002704 0.02625 4.30866
-1.91544e-20 0.008546 0.025 4.53327
0 -0.026454 1.02881e-08 81.352
8.08456e-20 -0.013954 0.0225 4.82095
1.33585e-19 0.026046 0.00479858 24.6207
0 -0.022704 0.0137433 7.07504
8.08456e-20 -0.008954 0.025 4.45977
-6.2436e-20 -0.026454 0.00233887 56.1184
2.1684e-19 -0.025204 0.008656 11.0119
0 0.023546 0.0124878 8.15317
-1.0842e-19 0.004796 0.02625 4.33985
0 0.012296 0.02375 4.7286
0 -0.005204 0.02625 4.29901
-9.43353e-20 -0.026454 0.00479858 23.4363
-1.0842e-19 -0.012704 0.02375 4.62051
0 -0.023954 0.0124878 7.7815
0 0.026046 0.00736572 14.4497
0 0.024796 0.011217 8.93298
-1.0842e-19 0.007296 0.02625 4.35106
0 0.019796 0.01875 5.70591
-1.57772e-30 0.018546 0.02 5.43899
-2.1684e-19 0.027296 0.00116944 78.4418
-1.91544e-20 0.011046 0.025 4.54547
1.29247e-26 -0.026454 0.00694427 15.2561
0 -0.007704 0.02625 4.28972
0 0.021046 0.0174904 6.0596
0 0.021046 0.0175 6.05644
-1.0842e-19 0.017296 0.02125 5.17287
-1.29247e-26 -0.026454 0.00736572 13.6494
1.58401e-19 -0.011454 0.025 4.45076
1.58401e-19 0.001046 0.0275 4.16842
0 0.027296 0.00356872 31.9493
1.58401e-19 -0.001454 0.0275 4.15854
8.08456e-20 -0.018954 0.02 5.26095
-1.0842e-19 -0.020204 0.01875 5.50896
0 -0.025204 0.011217 8.48965
0 0.022296 0.0162494 6.40832
8.08456e-20 0.016046 0.0225 4.95714
0 -0.017704 0.02125 5.01278
1.51461e-28 -0.021454 0.0174873 5.83663
0 -0.021454 0.0175 5.83264
1.58401e-19 0.003546 0.0275 4.17867
-1.0842e-19 -0.027704 0.00116943 81.3954
-9.67102e-20 -0.003954 0.0275 4.14905
3.28979e-21 -0.016454 0.0225 4.81232
0 0.026046 0.00994629 10.2973
0 0.023546 0.0149988 6.90618
-1.0842e-19 -0.022704 0.0162494 6.15589
-2.1684e-19 -0.027704 0.00356872 30.4664
-2.1684e-19 0.027296 0.00608215 17.2841
0 0.014796 0.02375 4.7419
-1.0842e-19 0.009796 0.02625 4.3627
-1.91544e-20 0.006046 0.0275 4.18933
1.0842e-19 -0.010204 0.02625 4.28077
0 -0.015204 0.02375 4.61179
3.28979e-21 -0.006454 0.0275 4.13991
-1.29247e-26 -0.026454 0.00994629 9.74051
0 -0.023954 0.0149988 6.61038
-1.0842e-19 0.024796 0.0137433 7.40703
0 -0.027704 0.00608215 16.2794
1.58401e-19 0.013546 0.025 4.55815
-1.65436e-24 0.028546 9.91191e-09 78.3415
1.58401e-19 -0.013954 0.025 4.44209
1.0842e-19 0.027296 0.00865601 11.6767
9.75076e-20 0.028546 0.00233887 55.3592
0 -0.025204 0.0137433 7.06464
0 -0.000204 0.02875 4.00811
-1.91544e-20 0.008546 0.0275 4.20042
0 0.002296 0.02875 4.01783
-1.0842e-19 -0.002704 0.02875 3.99875
-3.23117e-27 0.026046 0.0124878 8.18457
-1.91544e-20 -0.008954 0.0275 4.13112
-8.8438e-20 0.028546 0.00479858 24.7205
1.65436e-24 -0.028954 9.37348e-09 81.4363
0 0.012296 0.02625 4.37478
0 -0.027704 0.008656 10.9962
1.58401e-19 0.021046 0.02 5.45562
1.0842e-19 0.019796 0.02125 5.18832
-3.26281e-20 -0.028954 0.00233887 56.1473
-1.0842e-19 0.022296 0.01875 5.72378
-1.0842e-19 0.004796 0.02875 4.02795
-1.91544e-20 0.018546 0.0225 4.97176
0 -0.012704 0.02625 4.27217
1.0842e-19 -0.005204 0.02875 3.98977
3.23117e-27 -0.026454 0.0124878 7.77017
0 -0.020204 0.02125 5.00465
8.08456e-20 -0.021454 0.02 5.25282
1.10441e-29 0.023546 0.0174904 6.07927
-1.9149e-20 0.023546 0.0175 6.07608
-1.64808e-19 -0.028954 0.00479858 23.4125
0 0.017296 0.02375 4.75573
-1.91544e-20 -0.018954 0.0225 4.80407
0 -0.022704 0.01875 5.50078
-5.16988e-26 0.028546 0.00736572 14.5182
0 0.027296 0.011217 8.96978
1.0842e-19 -0.017704 0.02375 4.60343
5.84013e-20 0.011046 0.0275 4.21193
-1.0842e-19 0.024796 0.0162494 6.42983
0 -0.023954 0.0174875 5.82808
-1.0842e-19 0.007296 0.02875 4.03848
0 -0.023954 0.0175 5.82415
-1.29247e-26 -0.028954 0.00659417 16.5713
1.58401e-19 0.016046 0.025 4.57134
-1.0842e-19 -0.007704 0.02875 3.98115
-1.91544e-20 -0.011454 0.0275 4.12268
2.1684e-19 0.029796 0.00116944 78.2413
-1.29247e-26 -0.028954 0.00736572 13.6317
-1.0842e-19 -0.027704 0.011217 8.47748
-1.91544e-20 -0.016454 0.025 4.43377
-1.0842e-19 -0.025204 0.0162494 6.14712
-1.0842e-19 0.029796 0.00356872 32.0685
8.08456e-20 0.001046 0.03 3.87366
8.08456e-20 -0.001454 0.03 3.86459
0 0.026046 0.0149988 6.93068
0 0.014796 0.02625 4.38734
-1.91544e-20 0.003546 0.03 3.88312
0 -0.030204 0.00116943 81.4772
1.29247e-26 0.028546 0.00994629 10.3434
-9.67102e-20 -0.003954 0.03 3.85588
-1.0842e-19 -0.015204 0.02625 4.26391
0 0.009796 0.02875 4.04944
0 -0.026454 0.0149988 6.60098
-1.0842e-19 0.029796 0.00608215 17.3692
1.0842e-19 -0.030204 0.00356872 30.4408
-1.0842e-19 -0.010204 0.02875 3.97287
1.0842e-19 0.027296 0.0137433 7.43472
-1.91544e-20 0.006046 0.03 3.89296
0 -0.028954 0.00994629 9.72703
5.84013e-20 0.013546 0.0275 4.2239
3.28979e-21 -0.006454 0.03 3.84752
0 0.022296 0.02125 5.20446
1.58401e-19 0.021046 0.0225 4.98701
-1.0842e-19 -0.030204 0.00608215 16.26
1.58401e-19 -0.013954 0.0275 4.11457
5.84013e-20 0.023546 0.02 5.47302
0 0.019796 0.02375 4.77014
0 -0.027704 0.0137433 7.05473
-1.0842e-19 0.029796 0.008656 11.7326
0 0.031046 8.13302e-09 78.1373
0 0.024796 0.01875 5.74251
1.58401e-19 -0.021454 0.0225 4.79619
0 -0.022704 0.02125 4.9969
8.08456e-20 0.018546 0.025 4.58505
0 0.031046 0.00233887 55.3167
0 0.028546 0.0124878 8.2177
1.0842e-19 -0.020204 0.02375 4.59543
5.84013e-20 0.008546 0.03 3.90321
-9.67102e-20 -0.023954 0.02 5.24501
0 -0.000204 0.03125 3.72997
-1.0842e-19 0.012296 0.02875 4.06082
8.08456e-20 -0.008954 0.03 3.8395
0 0.002296 0.03125 3.73876
0 -0.002704 0.03125 3.72154
-1.91544e-20 -0.018954 0.025 4.42579
-1.57772e-30 0.026046 0.0174889 6.10038
5.84013e-20 0.026046 0.0175 6.09668
0 -0.025204 0.01875 5.49292
0 0.031046 0.00479858 24.8253
1.0842e-19 -0.030204 0.008656 10.9816
0 -0.012704 0.02875 3.96492
0 0.017296 0.02625 4.40039
0 -0.031454 8.26335e-09 81.5226
-3.23117e-27 -0.028954 0.0124878 7.75943
5.73302e-20 -0.031454 0.00233887 56.179
-1.0842e-19 0.004796 0.03125 3.74793
-1.0842e-19 -0.017704 0.02625 4.25596
-1.0842e-19 -0.005204 0.03125 3.71346
-8.83524e-29 -0.026454 0.017487 5.82007
8.08497e-20 -0.026454 0.0175 5.81601
0 0.027296 0.0162494 6.45242
7.69326e-20 -0.031454 0.00479858 23.3913
1.0842e-19 0.029796 0.011217 9.00865
1.58401e-19 0.016046 0.0275 4.23635
-3.23117e-27 -0.031454 0.00522866 21.7535
-2.58494e-26 0.031046 0.00736572 14.5908
1.58401e-19 0.011046 0.03 3.91389
1.58401e-19 -0.016454 0.0275 4.10676
0 0.007296 0.03125 3.75749
-1.91544e-20 -0.011454 0.03 3.83181
0 -0.027704 0.0162494 6.13864
-1.0842e-19 -0.007704 0.03125 3.70572
1.0842e-19 -0.030204 0.011217 8.46598
-5.63223e-21 0.028546 0.0149988 6.95648
0 -0.031454 0.00736572 13.6153
0 0.032296 0.00116944 78.0334
-1.0842e-19 0.014796 0.02875 4.07267
1.0842e-19 0.032296 0.00356872 32.1931
-1.91544e-20 0.001046 0.0325 3.61081
-1.0842e-19 -0.015204 0.02875 3.95727
-9.67102e-20 -0.001454 0.0325 3.6027
-1.91544e-20 0.023546 0.0225 5.00291
0 0.022296 0.02375 4.78513
-6.46235e-27 0.031046 0.00994629 10.3921
4.03897e-28 -0.028954 0.0149988 6.59201
0 0.024796 0.02125 5.22132
3.28979e-21 0.021046 0.025 4.59932
-9.67102e-20 0.003546 0.0325 3.61929
0 -0.032704 0.00116943 81.5679
8.08456e-20 -0.003954 0.0325 3.59492
-1.0842e-19 0.009796 0.03125 3.76746
0 0.029796 0.0137433 7.46393
5.84013e-20 0.026046 0.02 5.49121
1.0842e-19 -0.022704 0.02375 4.58778
-1.0842e-19 0.032296 0.00608215 17.4593
-9.67102e-20 -0.023954 0.0225 4.78865
0 -0.010204 0.03125 3.69829
0 0.019796 0.02625 4.41396
-1.0842e-19 -0.032704 0.00356873 30.4191
-1.91544e-20 0.013546 0.03 3.925
3.28979e-21 -0.021454 0.025 4.41814
0 -0.025204 0.02125 4.98942
0 -0.031454 0.00994629 9.71434
8.08456e-20 0.006046 0.0325 3.62815
8.08456e-20 -0.013954 0.03 3.82441
0 0.027296 0.01875 5.76208
-1.0842e-19 -0.020204 0.02625 4.24834
-1.91544e-20 -0.006454 0.0325 3.58748
3.28979e-21 -0.026454 0.02 5.23753
8.08456e-20 0.018546 0.0275 4.24929
1.0842e-19 -0.030204 0.0137433 7.04533
1.0842e-19 -0.032704 0.00608215 16.2421
8.08456e-20 -0.018954 0.0275 4.09925
-2.1684e-19 0.032296 0.008656 11.7918
1.0842e-19 -0.027704 0.01875 5.48545
2.55382e-20 0.031046 0.0124878 8.25267
-4.73317e-29 0.028546 0.0174847 6.12339
-1.57772e-30 0.028546 0.0175 6.11827
0 0.033546 8.11061e-09 77.9256
-1.0842e-19 0.017296 0.02875 4.08499
1.0842e-19 0.012296 0.03125 3.77784
5.84013e-20 0.008546 0.0325 3.63739
0 0.033546 0.00233887 55.2731
-1.91544e-20 -0.008954 0.0325 3.58035
-1.0842e-19 -0.012704 0.03125 3.69116
0 -0.000204 0.03375 3.48337
-1.0842e-19 -0.017704 0.02875 3.9499
-1.26218e-29 -0.028954 0.0174857 5.81271
0 0.002296 0.03375 3.49117
-1.0842e-19 -0.032704 0.008656 10.9679
0 -0.028954 0.0175 5.80821
0 -0.031454 0.0124878 7.74926
-1.0842e-19 -0.002704 0.03375 3.47591
0 0.033546 0.00479858 24.9354
1.0842e-19 0.029796 0.0162494 6.47615
0 -0.033954 7.88963e-09 81.6172
-1.91544e-20 0.016046 0.03 3.93656
3.37515e-20 -0.033954 0.00233887 56.2171
-1.0842e-19 0.004796 0.03375 3.49932
0 -0.005204 0.03375 3.46878
1.0842e-19 0.032296 0.011217 9.04969
-9.67102e-20 -0.016454 0.03 3.81728
2.72011e-20 -0.033954 0.00479858 23.3731
1.0842e-19 -0.030204 0.0162494 6.13056
1.58401e-19 0.011046 0.0325 3.64703
-1.0842e-19 0.024796 0.02375 4.80075
8.08456e-20 0.023546 0.025 4.61417
2.58494e-26 0.033546 0.00736572 14.6677
1.58401e-19 0.026046 0.0225 5.01951
-1.0842e-19 0.022296 0.02625 4.42807
1.58401e-19 -0.011454 0.0325 3.57351
1.7236e-20 0.031046 0.0149988 6.98365
0 -0.033954 0.00602802 18.6927
0 0.007296 0.03375 3.50785
-2.1684e-19 -0.032704 0.011217 8.45509
0 0.014796 0.03125 3.78866
0 0.027296 0.02125 5.23893
0 -0.007704 0.03375 3.46196
-3.54881e-20 -0.023954 0.025 4.41081
-3.54881e-20 0.021046 0.0275 4.26274
1.0842e-19 -0.025204 0.02375 4.5805
-1.0842e-19 -0.022704 0.02625 4.24101
3.28979e-21 -0.026454 0.0225 4.78145
0 -0.033954 0.00736572 13.6001
0 -0.015204 0.03125 3.6843
2.1684e-19 0.034796 0.00116944 77.8179
0 -0.031454 0.0149988 6.5835
-1.91544e-20 0.028546 0.02 5.51022
3.28979e-21 -0.021454 0.0275 4.09201
0 0.019796 0.02875 4.09781
0 -0.027704 0.02125 4.98231
1.0842e-19 0.034796 0.00356872 32.3228
-6.46235e-27 0.033546 0.00994629 10.4437
8.08456e-20 0.001046 0.035 3.36955
8.08456e-20 -0.001454 0.035 3.36231
-1.0842e-19 0.032296 0.0137433 7.49474
0 -0.020204 0.02875 3.94279
-1.0842e-19 0.009796 0.03375 3.51676
3.28979e-21 0.003546 0.035 3.37711
-1.91544e-20 -0.028954 0.02 5.23041
0 0.029796 0.01875 5.78255
-3.54881e-20 0.013546 0.0325 3.65708
1.58401e-19 -0.003954 0.035 3.35538
-1.0842e-19 -0.035204 0.00116943 81.6666
-1.0842e-19 -0.010204 0.03375 3.45544
0 0.018546 0.03 3.94859
4.1359e-25 0.035322 0 77.7697
0 0.034796 0.00608215 17.5548
-4.15987e-20 -0.013954 0.0325 3.56695
0 -0.033954 0.00994629 9.70242
0 -0.035204 0.00356873 30.402
1.0842e-19 -0.032704 0.0137433 7.03642
-9.67102e-20 -0.018954 0.03 3.81041
8.08456e-20 0.006046 0.035 3.38503
-1.0842e-19 -0.030204 0.01875 5.47829
5.84013e-20 -0.006454 0.035 3.34876
-1.57772e-29 0.031046 0.0174753 6.14924
-9.67102e-20 0.031046 0.0175 6.14091
-1.0842e-19 0.017296 0.03125 3.79992
0 -0.035204 0.00608215 16.2259
-4.78217e-20 0.033546 0.0124878 8.2896
-2.1684e-19 0.034796 0.00865601 11.8546
0 -0.017704 0.03125 3.67767
0 0.012296 0.03375 3.52606
-1.0413e-28 -0.031454 0.0174805 5.80688
-1.91513e-20 -0.031454 0.0175 5.80077
-1.91544e-20 0.008546 0.035 3.3933
4.1359e-25 0.036046 3.3064e-09 77.7062
-1.0842e-19 -0.012704 0.03375 3.44918
2.06795e-25 0.036046 0.00171503 61.2237
-1.91544e-20 0.026046 0.025 4.62964
0 0.024796 0.02625 4.44275
-9.31081e-20 0.036046 0.00233887 55.2282
5.84013e-20 -0.008954 0.035 3.34241
-3.23117e-27 -0.0353819 0.00736572 13.5921
-1.0842e-19 0.032296 0.0162494 6.50109
8.07794e-28 -0.033954 0.0124878 7.73961
-1.0842e-19 0.027296 0.02375 4.81703
-9.67102e-20 0.023546 0.0275 4.27673
-9.67102e-20 0.016046 0.0325 3.66756
-1.0842e-19 -0.000204 0.03625 3.24833
-1.0842e-19 -0.035204 0.008656 10.955
0 0.002296 0.03625 3.25532
-9.67102e-20 0.028546 0.0225 5.03682
-1.0842e-19 -0.002704 0.03625 3.24162
-1.03398e-25 0.036046 0.00479858 25.0509
-1.0842e-19 0.022296 0.02875 4.11113
0 -0.025204 0.02625 4.23396
3.28979e-21 -0.026454 0.025 4.40379
5.84013e-20 -0.016454 0.0325 3.56063
0 -0.036454 7.98331e-09 81.7189
8.08456e-20 -0.023954 0.0275 4.08504
0 -0.027704 0.02375 4.57357
-1.0842e-19 -0.032704 0.0162494 6.12288
3.46762e-20 -0.036454 0.00233887 56.261
-1.0842e-19 0.034796 0.011217 9.09307
0 0.0365624 0 77.6592
1.0842e-19 0.004796 0.03625 3.26265
0 0.029796 0.02125 5.25732
-1.0842e-19 -0.005204 0.03625 3.23521
-1.0842e-19 -0.022704 0.02875 3.93592
-3.54881e-20 0.021046 0.03 3.96112
8.08456e-20 -0.028954 0.0225 4.77459
-1.91544e-20 0.011046 0.035 3.40195
-1.00974e-28 0.033546 0.0149988 7.01228
-1.39374e-19 -0.036454 0.00479858 23.3579
-5.16988e-26 0.036046 0.00736572 14.7493
1.58401e-19 -0.011454 0.035 3.33633
0 0.014796 0.03375 3.53577
-9.67102e-20 -0.021454 0.03 3.80376
1.0842e-19 -0.030204 0.02125 4.97558
8.08456e-20 0.031046 0.02 5.53009
1.0842e-19 -0.035204 0.011217 8.44481
0 0.007296 0.03625 3.2703
1.0842e-19 0.019796 0.03125 3.81166
-1.0842e-19 -0.015204 0.03375 3.44317
1.0842e-19 -0.007704 0.03625 3.22907
1.61559e-27 -0.0357267 0.00994629 9.69449
0 -0.033954 0.0149988 6.57538
0 -0.036454 0.00736572 13.5862
0 -0.020204 0.03125 3.67127
-1.91544e-20 -0.031454 0.02 5.22362
1.0842e-19 0.037296 0.00116944 77.5945
0 0.032296 0.01875 5.80397
-4.6787e-20 0.036046 0.00994629 10.4983
0 0.034796 0.0137433 7.52725
3.28979e-21 0.018546 0.0325 3.67849
-1.0842e-19 0.037296 0.00356873 32.4578
5.84013e-20 0.001046 0.0375 3.12395
8.08456e-20 -0.001454 0.0375 3.11703
3.28979e-21 0.013546 0.035 3.411
-1.0842e-19 0.009796 0.03625 3.27832
8.08456e-20 -0.018954 0.0325 3.55453
-1.0842e-19 -0.010204 0.03625 3.22319
8.08456e-20 0.003546 0.0375 3.13116
5.84013e-20 -0.013954 0.035 3.33048
0 -0.032704 0.01875 5.47144
3.28979e-21 -0.003954 0.0375 3.11038
-1.0842e-19 -0.037704 0.00116943 81.7712
4.31606e-20 -0.036454 0.00994629 9.69123
-1.0842e-19 0.037296 0.00608215 17.656
-2.1684e-19 -0.035204 0.0137433 7.0279
7.88861e-29 0.033546 0.0174696 6.17498
-1.91523e-20 0.033546 0.0175 6.16466
0 0.027296 0.02625 4.45803
0 -0.037704 0.00356872 30.3894
5.84013e-20 0.026046 0.0275 4.29129
-1.0842e-19 0.017296 0.03375 3.54591
-9.67102e-20 0.028546 0.025 4.64575
-2.01948e-28 -0.0358479 0.0124878 7.73267
0 0.024796 0.02875 4.12499
8.08456e-20 0.006046 0.0375 3.13868
-9.67102e-20 -0.006454 0.0375 3.10399
1.0842e-19 0.029796 0.02375 4.83401
0 -0.017704 0.03375 3.43738
8.08456e-20 0.023546 0.03 3.97415
6.74542e-21 0.036046 0.0124878 8.3286
8.08456e-20 -0.026454 0.0275 4.07831
0 -0.027704 0.02625 4.22716
-1.73549e-29 -0.033954 0.0174555 5.80754
-1.0842e-19 -0.037704 0.00608215 16.2111
3.28979e-21 -0.033954 0.0175 5.79365
1.0842e-19 -0.025204 0.02875 3.92928
-9.67102e-20 -0.028954 0.025 4.39704
0 0.012296 0.03625 3.28669
-1.0842e-19 0.037296 0.008656 11.9212
3.28979e-21 0.031046 0.0225 5.05489
1.0842e-19 0.022296 0.03125 3.82388
-1.91544e-20 -0.023954 0.03 3.79734
1.0842e-19 0.034796 0.0162494 6.52731
-2.1684e-19 -0.012704 0.03625 3.21753
0 -0.030204 0.02375 4.56688
3.28979e-21 0.008546 0.0375 3.14653
-9.67102e-20 0.016046 0.035 3.42046
-6.18584e-20 -0.036454 0.0124878 7.73045
3.30872e-24 0.038546 1.26999e-08 77.4787
1.58401e-19 -0.008954 0.0375 3.09785
-4.1359e-25 0.038546 0.00233887 55.1818
1.0842e-19 -0.022704 0.03125 3.66507
0 0.032296 0.02125 5.27653
8.08456e-20 -0.031454 0.0225 4.76803
-4.15987e-20 -0.016454 0.035 3.32485
0 -0.037704 0.008656 10.9431
-3.54881e-20 0.021046 0.0325 3.68988
-1.0842e-19 -0.000204 0.0387501 2.99252
1.0842e-19 -0.035204 0.0162494 6.11552
0 0.002296 0.0387501 2.99964
0 0.038546 0.00479858 25.1719
0 -0.002704 0.0387501 2.98565
-3.54881e-20 -0.021454 0.0325 3.54864
-1.0842e-19 0.037296 0.011217 9.13893
0 -0.038954 8.09623e-09 81.8253
2.52435e-29 -0.0359513 0.0149988 6.56918
0 -0.032704 0.02125 4.96918
7.06452e-20 -0.038954 0.00233887 56.3095
0 0.036046 0.0149988 7.04243
-1.0842e-19 0.004796 0.0387501 3.00705
-4.15987e-20 0.033546 0.02 5.55087
-3.54881e-20 0.011046 0.0375 3.15472
0 -0.005204 0.0387501 2.97904
-1.0842e-19 0.019796 0.03375 3.55648
0 0.014796 0.03625 3.29548
1.58401e-19 -0.011454 0.0375 3.09193
0 0.038546 0.00736572 14.8356
-7.10648e-20 -0.038954 0.00479858 23.3458
0 -0.015204 0.03625 3.21207
0 -0.020204 0.03375 3.43179
1.0842e-19 -0.037704 0.011217 8.43513
-3.54881e-20 -0.033954 0.02 5.21713