# omega  POINT_DATA 32307
# x  y  z  omega
-1.68069e-08 -2.1684e-19 0 80.2108
0.00104601 2.71051e-20 0 80.2143
-0.00104603 -1.0842e-19 0 80.2094
0.00145397 2.71051e-20 0 80.2148
-0.00145399 -1.0842e-19 0 80.2087
0.00124999 0 0.00116944 78.4753
-0.00125001 9.03502e-21 0.00116944 78.4667
-6.14363e-09 0 0.00233887 55.7868
0.00249999 -2.1684e-19 0 80.2158
-0.00250001 -2.1684e-19 0 80.2049
-0.0025 0 0.00233887 55.7412
0.0025 0 0.00233887 55.8336
-0.00354602 -1.0842e-19 0 80.2031
0.00354602 2.71051e-20 0 80.219
0.00125 9.03502e-21 0.00356873 32.2724
-0.00125 9.03502e-21 0.00356873 32.1894
-0.00375 -9.03502e-21 0.00116944 78.4574
0.00375 -9.03502e-21 0.00116943 78.4831
-0.00395398 0 0 80.2023
0.00395398 2.71051e-20 0 80.2193
-2.20276e-09 1.0842e-19 0.00479858 23.8475
-0.00499999 -1.0842e-19 0 80.1982
0.00500001 1.0842e-19 0 80.2197
-0.00375 9.03502e-21 0.00356873 32.1096
0.00375 -9.03502e-21 0.00356873 32.3586
0.0025 1.0842e-19 0.00479858 23.9154
-0.0025 1.0842e-19 0.00479858 23.7826
-0.005 0 0.00233887 55.6968
0.005 0 0.00233887 55.8817
-0.00604601 0 0 80.1961
0.00604603 -5.42101e-20 0 80.2224
0.00125 -1.807e-20 0.00608215 16.9667
-0.00125 -9.03502e-21 0.00608215 16.9211
-0.00625 -9.03502e-21 0.00116943 78.4476
0.00625001 -1.807e-20 0.00116944 78.4897
-0.00645398 0 0 80.1951
0.00645399 -5.42101e-20 0 80.2225
0.005 1.0842e-19 0.00479858 23.9862
-0.005 1.0842e-19 0.00479858 23.7204
0.00375 2.71051e-20 0.00608215 17.0146
-0.00375 -1.807e-20 0.00608215 16.8778
0.00625 0 0.00356873 32.4484
-0.00625 1.807e-20 0.00356873 32.0329
-7.43098e-10 1.0842e-19 0.00736572 13.9304
-0.0075 0 0 80.1906
0.00750001 1.0842e-19 0 80.2224
0.0025 1.0842e-19 0.00736572 13.9662
-0.0025 1.0842e-19 0.00736572 13.8965
-0.0075 1.0842e-19 0.00233887 55.6536
0.0075 0 0.00233887 55.931
-0.00854601 -5.42101e-20 0 80.1881
0.00854602 8.13152e-20 0 80.2246
0.00625 0 0.00608215 17.0652
-0.00625 -9.03502e-21 0.00608215 16.8367
0.00125 2.71051e-20 0.008656 11.348
-0.00125 1.807e-20 0.00865601 11.3228
-0.00875 -9.03502e-21 0.00116944 78.4369
0.00875 -1.807e-20 0.00116944 78.4954
0.005 1.0842e-19 0.00736572 14.0041
-0.005 1.0842e-19 0.00736572 13.8645
0.0075 1.0842e-19 0.00479858 24.0603
-0.0075 1.0842e-19 0.00479858 23.6609
0.00895399 8.13152e-20 0 80.2245
-0.00895399 -5.42101e-20 0 80.1869
0.00375 9.03502e-21 0.008656 11.3749
-0.00375 -9.03502e-21 0.008656 11.2993
0.00875 0 0.00356872 32.5416
-0.00875 -9.03502e-21 0.00356873 31.9592
-1.99308e-10 1.0842e-19 0.00994629 9.94269
0.00999999 1.0842e-19 0 80.2241
-0.01 0 0 80.1822
0.0025 1.0842e-19 0.00994629 9.963
-0.0025 1.0842e-19 0.00994629 9.92374
-0.01 1.0842e-19 0.00233887 55.6115
0.01 0 0.00233887 55.9818
0.0075 1.0842e-19 0.00736572 14.0442
-0.0075 1.0842e-19 0.00736572 13.8342
0.00875 -1.807e-20 0.00608215 17.1184
-0.00875 -9.03502e-21 0.00608215 16.7976
-0.00625 2.71051e-20 0.008656 11.277
0.00625 2.71051e-20 0.008656 11.4035
0.011046 1.0842e-19 0 80.2261
-0.011046 -8.13152e-20 0 80.1793
0.01 1.0842e-19 0.00479858 24.1376
-0.01 1.0842e-19 0.00479858 23.6039
0.005 1.0842e-19 0.00994629 9.98476
-0.005 1.0842e-19 0.00994629 9.90607
0.00125 -9.03502e-21 0.011217 8.70332
-0.00125 9.03502e-21 0.011217 8.68877
0.01125 1.807e-20 0.00116943 78.5005
-0.01125 2.71051e-20 0.00116944 78.4256
0.011454 1.0842e-19 0 80.2258
-0.011454 -8.13152e-20 0 80.1781
0.01125 0 0.00356872 32.6386
-0.01125 -9.03502e-21 0.00356872 31.8881
-0.00375 2.71051e-20 0.011217 8.67535
0.00375 -9.03502e-21 0.011217 8.71904
0.00875 9.03502e-21 0.008656 11.4339
-0.00875 2.71051e-20 0.008656 11.2563
0.01 1.0842e-19 0.00736572 14.0866
-0.01 1.0842e-19 0.00736572 13.8056
0.0075 1.0842e-19 0.00994629 10.008
-0.0075 1.0842e-19 0.00994629 9.88962
-3.50387e-11 1.0842e-19 0.0124878 7.92513
0.0125 1.0842e-19 0 80.2245
-0.0125 0 0 80.1731
0.0125 0 0.00233887 56.0339
-0.0125 1.0842e-19 0.00233887 55.5705
0.0025 1.0842e-19 0.0124878 7.93712
-0.0025 1.0842e-19 0.0124878 7.91413
-0.01125 2.71051e-20 0.00608215 16.7604
0.01125 9.03502e-21 0.00608215 17.1745
0.00625 -2.71051e-20 0.011217 8.736
-0.00625 2.71051e-20 0.011217 8.66296
0.0125 1.0842e-19 0.00479858 24.2184
-0.0125 1.0842e-19 0.00479858 23.5493
0.005 1.0842e-19 0.0124878 7.95017
-0.005 1.0842e-19 0.0124878 7.90408
-0.013546 -5.42101e-20 0 80.1699
0.013546 8.13152e-20 0 80.2257
0.01375 4.51751e-21 0.00116944 78.5039
-0.01375 -2.71051e-20 0.00116944 78.4138
0.00125 9.03502e-21 0.0137433 7.21933
-0.00125 0 0.0137433 7.21065
0.013954 -2.71051e-20 0 80.2252
-0.013954 -5.42101e-20 0 80.1685
0.01 1.0842e-19 0.00994629 10.0329
-0.01 1.0842e-19 0.00994629 9.87434
-0.01125 2.71051e-20 0.008656 11.2368
0.01125 0 0.00865601 11.4662
0.01375 4.51751e-21 0.00356872 32.7394
-0.01375 9.03502e-21 0.00356873 31.82
0.00875 -9.03502e-21 0.011217 8.75427
-0.00875 -9.03502e-21 0.011217 8.6516
0.00375 1.807e-20 0.0137433 7.22888
-0.00375 -9.03502e-21 0.0137433 7.20282
0.0125 1.0842e-19 0.00736572 14.1315
-0.0125 1.0842e-19 0.00736572 13.7785
0.0075 1.0842e-19 0.0124878 7.96432
-0.0075 1.0842e-19 0.0124878 7.89493
-2.91796e-12 1.0842e-19 0.0149988 6.72652
0.015 0 0 80.2235
-0.015 0 0 80.1633
0.01375 1.807e-20 0.00608215 17.2335
-0.01375 -9.03502e-21 0.00608215 16.7251
0.00625 9.03502e-21 0.0137433 7.23936
-0.00625 1.807e-20 0.0137433 7.19577
0.015 1.0842e-19 0.00233887 56.0873
-0.015 1.0842e-19 0.00233887 55.5305
0.0025 1.0842e-19 0.0149988 6.73394
-0.0025 1.0842e-19 0.0149988 6.71987
0.015 1.0842e-19 0.00479858 24.3028
-0.015 1.0842e-19 0.00479858 23.497
0.005 1.0842e-19 0.0149988 6.74215
-0.005 1.0842e-19 0.0149988 6.71394
0.01125 9.03502e-21 0.011217 8.77393
-0.01125 -9.03502e-21 0.011217 8.64116
0.0125 1.0842e-19 0.00994629 10.0595
-0.0125 1.0842e-19 0.00994629 9.86014
0.01 1.0842e-19 0.0124878 7.97964
-0.01 1.0842e-19 0.0124878 7.88663
-0.016046 -5.42101e-20 0 80.1597
0.016046 -5.42101e-20 0 80.2245
0.01375 -1.807e-20 0.008656 11.5007
-0.01375 -1.807e-20 0.008656 11.2185
0.01625 -1.807e-20 0.00116944 78.5067
-0.01625 0 0.00116944 78.4014
0.00875 -1.807e-20 0.0137433 7.25081
-0.00875 -9.03502e-21 0.0137433 7.18949
0.00125 0 0.0162494 6.26941
-0.00125 0 0.0162494 6.26389
-0.016454 -5.42101e-20 0 80.1582
0.016454 -5.42101e-20 0 80.2238
0.01625 -2.71051e-20 0.00356872 32.8441
-0.01625 2.71051e-20 0.00356872 31.7542
-0.00375 1.807e-20 0.0162494 6.25903
0.00375 1.807e-20 0.0162494 6.27563
0.015 1.0842e-19 0.00736572 14.179
-0.015 1.0842e-19 0.00736572 13.753
0.0075 1.0842e-19 0.0149988 6.75121
-0.0075 1.0842e-19 0.0149988 6.7087
0.01625 -9.03502e-21 0.00608215 17.2957
-0.01625 2.71051e-20 0.00608215 16.6915
0.00625 9.03502e-21 0.0162494 6.28257
-0.00625 -9.03502e-21 0.0162494 6.25477
0.0175 0 0 80.2215
-0.0175 0 0 80.1528
-1.02403e-14 1.0842e-19 0.0175 5.92371
0.0175 1.0842e-19 0.00233887 56.1422
-0.0175 1.0842e-19 0.00233887 55.4916
0.0125 1.0842e-19 0.0124878 7.99619
-0.0125 1.0842e-19 0.0124878 7.87914
0.0025 1.0842e-19 0.0175 5.92885
-0.0025 1.0842e-19 0.0175 5.91919
0.01375 -1.807e-20 0.011217 8.79505
-0.01375 -1.807e-20 0.011217 8.63165
-0.01125 9.03502e-21 0.0137433 7.18391
0.01125 -1.807e-20 0.0137433 7.2633
0.015 1.0842e-19 0.00994629 10.0879
-0.015 1.0842e-19 0.00994629 9.84698
0.01 1.0842e-19 0.0149988 6.76117
-0.01 1.0842e-19 0.0149988 6.70412
0.0175 1.0842e-19 0.00479858 24.391
-0.0175 1.0842e-19 0.00479858 23.4469
0.005 1.0842e-19 0.0175 5.93463
-0.005 1.0842e-19 0.0175 5.91525
0.01625 -9.03502e-21 0.008656 11.5372
-0.01625 0 0.008656 11.2015
0.00875 -2.71051e-20 0.0162494 6.29026
-0.00875 -1.807e-20 0.0162494 6.25111
-0.018546 -5.42101e-20 0 80.149
0.018546 -5.42101e-20 0 80.2222
-0.01875 9.03502e-21 0.00116944 78.3886
0.01875 -3.61401e-20 0.00116944 78.5086
0.00125 9.03502e-21 0.01875 5.59813
-0.00125 0 0.01875 5.59393
-0.018954 -5.42101e-20 0 80.1474
0.018954 -5.42101e-20 0 80.2212
0.0175 1.0842e-19 0.00736572 14.2292
-0.0175 1.0842e-19 0.00736572 13.7288
0.0075 1.0842e-19 0.0175 5.94108
-0.0075 1.0842e-19 0.0175 5.91186
-0.01875 -9.03502e-21 0.00356872 31.6911
0.01875 -1.807e-20 0.00356872 32.9529
-0.00375 9.03502e-21 0.01875 5.59025
0.00375 -1.807e-20 0.01875 5.60291
0.01375 -1.807e-20 0.0137433 7.27686
-0.01375 -9.03502e-21 0.0137433 7.17903
0.015 1.0842e-19 0.0124878 8.01405
-0.015 1.0842e-19 0.0124878 7.87242
0.0125 1.0842e-19 0.0149988 6.77207
-0.0125 1.0842e-19 0.0149988 6.70015
0.01875 -2.71051e-20 0.00608215 17.3612
-0.01875 -1.807e-20 0.00608215 16.6596
0.01625 -1.807e-20 0.011217 8.81772
-0.01625 9.03502e-21 0.011217 8.62298
-0.01125 -2.71051e-20 0.0162494 6.24801
0.01125 -1.807e-20 0.0162494 6.29877
-0.00625 -9.03502e-21 0.01875 5.5871
0.00625 -1.807e-20 0.01875 5.60829
-0.02 0 0 80.1418
0.02 0 0 80.2179
-1.02403e-14 1.0842e-19 0.02 5.33625
0.0175 1.0842e-19 0.00994629 10.1182
-0.0175 1.0842e-19 0.00994629 9.83482
-0.02 1.0842e-19 0.00233887 55.4536
0.02 1.0842e-19 0.00233887 56.1985
0.0025 1.0842e-19 0.02 5.34054
0.01 1.0842e-19 0.0175 5.94825
-0.0025 1.0842e-19 0.02 5.33247
-0.01 1.0842e-19 0.0175 5.909
0.02 1.0842e-19 0.00479858 24.483
-0.02 1.0842e-19 0.00479858 23.3989
0.005 1.0842e-19 0.02 5.34536
-0.005 1.0842e-19 0.02 5.32917
0.01875 9.03502e-21 0.008656 11.5762
-0.01875 -1.807e-20 0.008656 11.1856
0.00875 -1.807e-20 0.01875 5.61429
-0.00875 1.807e-20 0.01875 5.58444
0.021046 -1.0842e-19 0 80.2178
-0.021046 -5.42101e-20 0 80.1377
0.015 1.0842e-19 0.0149988 6.78398
-0.015 1.0842e-19 0.0149988 6.69678
0.02125 -1.35525e-20 0.00116944 78.5087
-0.02125 -3.61401e-20 0.00116944 78.3753
0.01625 9.03502e-21 0.0137433 7.29159
-0.01625 1.807e-20 0.0137433 7.17479
0.01375 -9.03502e-21 0.0162494 6.30816
-0.01375 2.71051e-20 0.0162494 6.24545
0.00125 -1.807e-20 0.02125 5.08735
-0.00125 -1.807e-20 0.02125 5.08346
0.02 1.0842e-19 0.00736572 14.2823
-0.02 1.0842e-19 0.00736572 13.7061
0.0075 1.0842e-19 0.02 5.35075
-0.0075 1.0842e-19 0.02 5.32634
-0.021454 -5.42101e-20 0 80.136
0.021454 -5.42101e-20 0 80.2166
0.0175 1.0842e-19 0.0124878 8.0333
-0.0175 1.0842e-19 0.0124878 7.86644
0.0125 1.0842e-19 0.0175 5.95618
-0.0125 1.0842e-19 0.0175 5.90663
0.02125 -1.807e-20 0.00356873 33.0657
-0.02125 2.71051e-20 0.00356873 31.6302
-0.00375 -1.807e-20 0.02125 5.08002
0.00375 -1.807e-20 0.02125 5.09171
0.01875 -1.807e-20 0.011217 8.84202
-0.01875 9.03502e-21 0.011217 8.61513
-0.01125 1.807e-20 0.01875 5.58224
0.01125 1.807e-20 0.01875 5.62094
0.02125 2.71051e-20 0.00608215 17.4303
-0.02125 1.807e-20 0.00608215 16.6293
0.00625 2.71051e-20 0.02125 5.09658
-0.00625 -9.03502e-21 0.02125 5.07702
0.02 1.0842e-19 0.00994629 10.1506
-0.02 1.0842e-19 0.00994629 9.82361
0.01 1.0842e-19 0.02 5.35672
-0.01 1.0842e-19 0.02 5.32395
-0.0225 0 0 80.1303
0.0225 -1.0842e-19 0 80.2128
-1.02402e-14 1.0842e-19 0.0225 4.8762
-0.0225 1.0842e-19 0.00233887 55.4166
0.0225 1.0842e-19 0.00233887 56.2563
0.0025 1.0842e-19 0.0225 4.88037
-0.0025 1.0842e-19 0.0225 4.87246
0.02125 9.03502e-21 0.008656 11.6176
-0.02125 9.03502e-21 0.008656 11.1707
0.01625 0 0.0162494 6.31848
-0.01625 9.03502e-21 0.0162494 6.2434
0.00875 9.03502e-21 0.02125 5.10197
-0.00875 2.71051e-20 0.02125 5.07443
0.0225 1.0842e-19 0.00479858 24.579
-0.0225 1.0842e-19 0.00479858 23.3529
0.0175 1.0842e-19 0.0149988 6.79695
-0.0175 1.0842e-19 0.0149988 6.69397
0.005 1.0842e-19 0.0225 4.88499
-0.005 1.0842e-19 0.0225 4.86912
0.015 1.0842e-19 0.0175 5.96492
-0.015 1.0842e-19 0.0175 5.90475
0.01875 -1.807e-20 0.0137433 7.30752
-0.01875 9.03502e-21 0.0137433 7.17118
0.01375 1.807e-20 0.01875 5.62829
-0.01375 9.03502e-21 0.01875 5.5805
0.023546 -5.42101e-20 0 80.2124
-0.023546 -5.42101e-20 0 80.1259
0.02 1.0842e-19 0.0124878 8.05401
-0.02 1.0842e-19 0.0124878 7.86116
0.0125 1.0842e-19 0.02 5.36331
-0.0125 1.0842e-19 0.02 5.32198
0.0225 1.0842e-19 0.00736572 14.3386
-0.0225 1.0842e-19 0.00736572 13.6845
0.0075 1.0842e-19 0.0225 4.89007
-0.0075 1.0842e-19 0.0225 4.86617
-0.02375 -1.807e-20 0.00116944 78.3616
0.02375 -4.51751e-21 0.00116944 78.5079
0.00125 1.807e-20 0.02375 4.67449
-0.00125 -9.03502e-21 0.02375 4.67046
-0.023954 -5.42101e-20 0 80.1241
0.023954 -1.0842e-19 0 80.2109
-0.02375 -9.03502e-21 0.00356872 31.5716
0.02375 -9.03502e-21 0.00356873 33.1829
0.02125 -1.807e-20 0.011217 8.8681
-0.02125 9.03502e-21 0.011217 8.60807
0.01125 -1.807e-20 0.02125 5.10791
-0.01125 -1.807e-20 0.02125 5.07222
0.00375 9.03502e-21 0.02375 4.67892
-0.00375 -1.807e-20 0.02375 4.66681
-0.02375 -9.03502e-21 0.00608215 16.6004
0.02375 -9.03502e-21 0.00608215 17.5031
-0.00625 2.71051e-20 0.02375 4.66352
0.00625 9.03502e-21 0.02375 4.68376
0.0225 1.0842e-19 0.00994629 10.1851
-0.0225 1.0842e-19 0.00994629 9.81328
0.01 1.0842e-19 0.0225 4.89565
-0.01 1.0842e-19 0.0225 4.86359
0.0175 1.0842e-19 0.0175 5.97451
-0.0175 1.0842e-19 0.0175 5.90334
-0.01875 1.807e-20 0.0162494 6.24184
0.01875 2.71051e-20 0.0162494 6.32976
0.01625 2.71051e-20 0.01875 5.63639
-0.01625 9.03502e-21 0.01875 5.57917
0.02 1.0842e-19 0.0149988 6.81104
-0.02 1.0842e-19 0.0149988 6.69172
0.015 1.0842e-19 0.02 5.37054
-0.015 1.0842e-19 0.02 5.32041
-0.025 0 0 80.1182
0.025 0 0 80.2062
-1.02403e-14 1.0842e-19 0.025 4.49498
-0.025 1.0842e-19 0.00233887 55.3805
0.025 1.0842e-19 0.00233887 56.3155
0.0025 1.0842e-19 0.025 4.49939
-0.0025 1.0842e-19 0.025 4.49094
-0.02375 0 0.008656 11.1569
0.02375 9.03502e-21 0.008656 11.6616
0.02125 -1.807e-20 0.0137433 7.32474
-0.02125 -1.807e-20 0.0137433 7.16816
0.01375 0 0.02125 5.11441
-0.00875 1.807e-20 0.02375 4.66057
-0.01375 -1.807e-20 0.02125 5.0704
0.00875 2.71051e-20 0.02375 4.68905
0.025 1.0842e-19 0.00479858 24.6792
-0.025 1.0842e-19 0.00479858 23.3087
0.005 1.0842e-19 0.025 4.50419
-0.005 1.0842e-19 0.025 4.48724
0.0225 1.0842e-19 0.0124878 8.07628
-0.0225 1.0842e-19 0.0124878 7.85654
0.0125 1.0842e-19 0.0225 4.90174
-0.0125 1.0842e-19 0.0225 4.86135
0.026046 -5.42101e-20 0 80.2052
-0.026046 -5.42101e-20 0 80.1136
0.025 1.0842e-19 0.00736572 14.3981
-0.025 1.0842e-19 0.00736572 13.6642
0.0075 1.0842e-19 0.025 4.50939
-0.0075 1.0842e-19 0.025 4.48386
-0.02375 2.71051e-20 0.011217 8.60175
0.02375 -1.807e-20 0.011217 8.896
-0.02625 0 0.00116944 78.3475
0.02625 0 0.00116944 78.5055
0.00125 -9.03502e-21 0.02625 4.32317
0.01125 1.807e-20 0.02375 4.6948
-0.01125 2.71051e-20 0.02375 4.65796
-0.00125 9.03502e-21 0.02625 4.31874
0.026454 -5.42101e-20 0 80.2034
-0.026454 -5.42101e-20 0 80.1117
-0.02625 -1.807e-20 0.00356872 31.5151
0.02625 -9.03502e-21 0.00356873 33.3041
-0.01875 -1.807e-20 0.01875 5.57829
0.00375 -9.03502e-21 0.02625 4.32795
-0.00375 2.71051e-20 0.02625 4.31466
0.01875 1.807e-20 0.01875 5.64525
0.0175 1.0842e-19 0.02 5.37845
0.02 1.0842e-19 0.0175 5.98499
-0.02 1.0842e-19 0.0175 5.90238
-0.0175 1.0842e-19 0.02 5.31922
0.02125 9.03502e-21 0.0162494 6.34208
-0.02125 2.71051e-20 0.0162494 6.24076
0.01625 9.03502e-21 0.02125 5.1215
-0.01625 0 0.02125 5.06893
0.025 1.0842e-19 0.00994629 10.2219
-0.025 1.0842e-19 0.00994629 9.80381
0.01 1.0842e-19 0.025 4.515
-0.01 1.0842e-19 0.025 4.48081
0.02625 0 0.00608215 17.5797
-0.02625 -1.807e-20 0.00608215 16.573
0.00625 0 0.02625 4.3331
-0.00625 2.71051e-20 0.02625 4.31087
0.0225 1.0842e-19 0.0149988 6.82632
-0.0225 1.0842e-19 0.0149988 6.68999
0.015 1.0842e-19 0.0225 4.90837
-0.015 1.0842e-19 0.0225 4.85945
0.02375 0 0.0137433 7.34333
-0.02375 0 0.0137433 7.16572
0.01375 -9.03502e-21 0.02375 4.70103
-0.01375 2.71051e-20 0.02375 4.65564
-0.0275 0 0 80.1057
0.0275 0 0 80.1981
-1.02404e-14 1.0842e-19 0.0275 4.16428
-0.0275 1.0842e-19 0.00233887 55.3453
0.0275 1.0842e-19 0.00233887 56.3762
0.0025 1.0842e-19 0.0275 4.16913
-0.0025 1.0842e-19 0.0275 4.15977
0.02625 9.03502e-21 0.008656 11.7084
-0.02625 9.03502e-21 0.008656 11.1439
-0.00875 1.807e-20 0.02625 4.3074
0.00875 9.03502e-21 0.02625 4.33862
0.0275 1.0842e-19 0.00479858 24.7837
-0.0275 1.0842e-19 0.00479858 23.2664
0.025 1.0842e-19 0.0124878 8.10019
-0.025 1.0842e-19 0.0124878 7.85257
0.0125 1.0842e-19 0.025 4.52106
0.005 1.0842e-19 0.0275 4.17432
-0.005 1.0842e-19 0.0275 4.15558
-0.0125 1.0842e-19 0.025 4.47805
0.02 1.0842e-19 0.02 5.38709
-0.02 1.0842e-19 0.02 5.31841
0.01875 0 0.02125 5.12921
0.02125 2.71051e-20 0.01875 5.65495
-0.01875 -1.807e-20 0.02125 5.06779
-0.02125 1.807e-20 0.01875 5.57784
0.0275 1.0842e-19 0.00736572 14.461
-0.0275 1.0842e-19 0.00736572 13.645
0.0175 1.0842e-19 0.0225 4.91556
0.0225 1.0842e-19 0.0175 5.99643
-0.0175 1.0842e-19 0.0225 4.85786
-0.0225 1.0842e-19 0.0175 5.90183
0.0075 1.0842e-19 0.0275 4.17988
-0.0075 1.0842e-19 0.0275 4.15169
0.028546 -1.0842e-19 0 80.1967
-0.028546 -5.42101e-20 0 80.1009
0.02625 -9.03502e-21 0.011217 8.92589
-0.02625 -1.807e-20 0.011217 8.59614
0.01125 -9.03502e-21 0.02625 4.34455
-0.01125 -1.807e-20 0.02625 4.30423
0.02875 -4.51751e-21 0.00116944 78.5021
-0.02875 -3.61401e-20 0.00116944 78.3331
0.02375 -1.807e-20 0.0162494 6.35546
-0.02375 0 0.0162494 6.24019
0.00125 2.71051e-20 0.02875 4.01251
-0.01625 1.807e-20 0.02375 4.65362
0.01625 1.807e-20 0.02375 4.70778
-0.00125 9.03502e-21 0.02875 4.00761
-0.028954 -5.42101e-20 0 80.0989
0.028954 -5.42101e-20 0 80.1946
-0.02875 -1.807e-20 0.00356872 31.4609
0.02875 -1.807e-20 0.00356873 33.4299
0.00375 -2.71051e-20 0.02875 4.01773
-0.00375 1.807e-20 0.02875 4.00304
0.025 1.0842e-19 0.0149988 6.84284
-0.025 1.0842e-19 0.0149988 6.68875
0.015 1.0842e-19 0.025 4.52759
-0.015 1.0842e-19 0.025 4.47558
0.0275 1.0842e-19 0.00994629 10.2612
-0.0275 1.0842e-19 0.00994629 9.79515
0.01 1.0842e-19 0.0275 4.1858
-0.01 1.0842e-19 0.0275 4.14809
0.02875 9.03502e-21 0.00608215 17.6606
-0.02875 -1.807e-20 0.00608215 16.5468
0.00625 -1.807e-20 0.02875 4.02331
-0.00625 -9.03502e-21 0.02875 3.99876
-0.02625 9.03502e-21 0.0137433 7.1638
0.02625 -9.03502e-21 0.0137433 7.36336
0.01375 1.807e-20 0.02625 4.3509
-0.01375 1.807e-20 0.02625 4.30131
-0.03 0 0 80.0928
0.03 -1.0842e-19 0 80.1884
-1.02402e-14 1.0842e-19 0.03 3.86987
0.02875 -1.807e-20 0.008656 11.7582
-0.02875 0 0.008656 11.132
-0.00875 0 0.02875 3.99477
0.02125 1.807e-20 0.02125 5.13758
-0.02125 -1.807e-20 0.02125 5.06697
0.00875 -1.807e-20 0.02875 4.02922
-0.03 1.0842e-19 0.00233887 55.3109
0.03 1.0842e-19 0.00233887 56.4383
0.02 1.0842e-19 0.0225 4.92334
0.0225 1.0842e-19 0.02 5.39648
0.0025 1.0842e-19 0.03 3.87486
-0.0025 1.0842e-19 0.03 3.86519
-0.02 1.0842e-19 0.0225 4.85657
-0.0225 1.0842e-19 0.02 5.31794
0.0275 1.0842e-19 0.0124878 8.12586
-0.0275 1.0842e-19 0.0124878 7.84921
0.0125 1.0842e-19 0.0275 4.19211
-0.0125 1.0842e-19 0.0275 4.14476
0.01875 9.03502e-21 0.02375 4.71505
0.02375 -1.807e-20 0.01875 5.66551
-0.02375 -1.807e-20 0.01875 5.57765
-0.01875 -9.03502e-21 0.02375 4.65187
0.03 1.0842e-19 0.00479858 24.8926
-0.03 1.0842e-19 0.00479858 23.2258
0.005 1.0842e-19 0.03 3.88018
-0.005 1.0842e-19 0.03 3.86081
0.025 1.0842e-19 0.0175 6.00887
0.0175 1.0842e-19 0.025 4.5346
-0.0175 1.0842e-19 0.025 4.47337
-0.025 1.0842e-19 0.0175 5.90165
0.02875 2.71051e-20 0.011217 8.95786
-0.02875 -9.03502e-21 0.011217 8.59121
0.02625 -9.03502e-21 0.0162494 6.36999
-0.02625 2.71051e-20 0.0162494 6.23995
-0.01625 -1.807e-20 0.02625 4.29867
0.01125 -1.807e-20 0.02875 4.0355
-0.01125 -9.03502e-21 0.02875 3.99107
0.01625 0 0.02625 4.3577
0.03 1.0842e-19 0.00736572 14.5276
-0.03 1.0842e-19 0.00736572 13.6269
0.0075 1.0842e-19 0.03 3.88585
-0.0075 1.0842e-19 0.03 3.85672
0.031046 2.71051e-20 0 80.1861
-0.031046 -5.42101e-20 0 80.0878
-0.03125 -1.807e-20 0.00116944 78.3185
0.03125 9.03502e-21 0.00116944 78.4968
0.00125 9.03502e-21 0.03125 3.73419
-0.00125 -9.03502e-21 0.03125 3.72945
0.0275 1.0842e-19 0.0149988 6.86071
-0.0275 1.0842e-19 0.0149988 6.68795
0.015 1.0842e-19 0.0275 4.19882
-0.015 1.0842e-19 0.0275 4.1417
0.03125 -1.807e-20 0.00356872 33.5598
-0.03125 -9.03502e-21 0.00356873 31.4085
-0.031454 -5.42101e-20 0 80.0858
0.031454 2.71051e-20 0 80.1838
-0.00375 9.03502e-21 0.03125 3.72501
0.00375 9.03502e-21 0.03125 3.73924
0.03 1.0842e-19 0.00994629 10.303
-0.03 1.0842e-19 0.00994629 9.78726
0.01 1.0842e-19 0.03 3.89187
-0.01 1.0842e-19 0.03 3.85291
0.0225 1.0842e-19 0.0225 4.93175
-0.0225 1.0842e-19 0.0225 4.85557
0.03125 -9.03502e-21 0.00608215 17.7456
-0.03125 -9.03502e-21 0.00608215 16.5219
-0.02875 -1.807e-20 0.0137433 7.16242
0.02875 -1.807e-20 0.0137433 7.38494
0.00625 2.71051e-20 0.03125 3.74462
0.01375 -9.03502e-21 0.02875 4.04214
-0.01375 9.03502e-21 0.02875 3.98763
0.02125 9.03502e-21 0.02375 4.72288
0.02375 2.71051e-20 0.02125 5.14665
-0.00625 1.807e-20 0.03125 3.72085
-0.02125 9.03502e-21 0.02375 4.65039
-0.02375 0 0.02125 5.06651
0.02 1.0842e-19 0.025 4.54212
0.025 1.0842e-19 0.02 5.40669
-0.02 1.0842e-19 0.025 4.47143
-0.025 1.0842e-19 0.02 5.31777
0.01875 2.71051e-20 0.02625 4.36497
0.02625 -1.807e-20 0.01875 5.677
-0.01875 2.71051e-20 0.02625 4.29627
-0.02625 1.807e-20 0.01875 5.57776
-0.03125 2.71051e-20 0.008656 11.1209
0.03125 -9.03502e-21 0.00865601 11.811
0.00875 1.807e-20 0.03125 3.75034
-0.00875 1.807e-20 0.03125 3.71698
0.03 1.0842e-19 0.0124878 8.15339
-0.03 1.0842e-19 0.0124878 7.84646
0.0125 1.0842e-19 0.03 3.89826
-0.0125 1.0842e-19 0.03 3.84936
-0.0325 0 0 80.0796
0.0325 -1.0842e-19 0 80.1771
-1.02402e-14 1.0842e-19 0.0325 3.60742
-0.0325 1.0842e-19 0.00233887 55.2774
0.0325 1.0842e-19 0.00233887 56.5019
0.0025 1.0842e-19 0.0325 3.61219
-0.0025 1.0842e-19 0.0325 3.60294
0.0275 1.0842e-19 0.0175 6.02236
0.0175 1.0842e-19 0.0275 4.20596
-0.0175 1.0842e-19 0.0275 4.13889
-0.0275 1.0842e-19 0.0175 5.90181
0.0325 1.0842e-19 0.00479858 25.006
-0.0325 1.0842e-19 0.00479858 23.1868
0.005 1.0842e-19 0.0325 3.61727
-0.005 1.0842e-19 0.0325 3.59874
0.02875 -2.71051e-20 0.0162494 6.38574
-0.02875 2.71051e-20 0.0162494 6.24001
0.01625 9.03502e-21 0.02875 4.04917
-0.01625 9.03502e-21 0.02875 3.98443
0.03125 9.03502e-21 0.011217 8.99205
-0.03125 9.03502e-21 0.011217 8.58693
0.01125 1.807e-20 0.03125 3.75645
-0.01125 1.807e-20 0.03125 3.71335
0.0325 1.0842e-19 0.00736572 14.598
-0.0325 1.0842e-19 0.00736572 13.6099
0.0075 1.0842e-19 0.0325 3.62267
-0.0075 1.0842e-19 0.0325 3.59481
0.03 1.0842e-19 0.0149988 6.87998
-0.03 1.0842e-19 0.0149988 6.68764
0.015 1.0842e-19 0.03 3.90503
-0.015 1.0842e-19 0.03 3.84605
0.033546 -1.35525e-19 0 80.1745
-0.033546 -5.42101e-20 0 80.0744
-0.02375 9.03502e-21 0.02375 4.64916
0.02375 2.71051e-20 0.02375 4.7313
0.0225 1.0842e-19 0.025 4.55018
0.025 1.0842e-19 0.0225 4.94082
-0.0225 1.0842e-19 0.025 4.46973
-0.025 1.0842e-19 0.0225 4.85484
0.03375 -9.03502e-21 0.00116943 78.4907
-0.03375 9.03502e-21 0.00116944 78.3036
0.00125 -9.03502e-21 0.03375 3.48669
0.02125 -1.807e-20 0.02625 4.37271
0.02625 1.807e-20 0.02125 5.15646
-0.02125 0 0.02625 4.29412
-0.02625 1.807e-20 0.02125 5.06629
-0.00125 0 0.03375 3.48218
-0.03375 -1.807e-20 0.00356872 31.358
0.03375 9.03502e-21 0.00356873 33.6941
-0.033954 -5.42101e-20 0 80.0724
0.033954 -1.35525e-19 0 80.1718
-0.00375 1.807e-20 0.03375 3.47793
0.00375 9.03502e-21 0.03375 3.4915
0.0325 1.0842e-19 0.00994629 10.3476
-0.0325 1.0842e-19 0.00994629 9.78011
0.02 1.0842e-19 0.0275 4.21355
0.0275 1.0842e-19 0.02 5.41774
0.01 1.0842e-19 0.0325 3.62842
-0.01 1.0842e-19 0.0325 3.59113
-0.02 1.0842e-19 0.0275 4.13632
-0.0275 1.0842e-19 0.02 5.3179
0.03125 -1.807e-20 0.0137433 7.40814
-0.03125 -1.807e-20 0.0137433 7.16164
-0.01375 9.03502e-21 0.03125 3.70998
0.01375 -1.807e-20 0.03125 3.76292
0.03375 -9.03502e-21 0.00608215 17.8354
-0.03375 -9.03502e-21 0.00608215 16.4983
0.00625 9.03502e-21 0.03375 3.49659
0.01875 -1.807e-20 0.02875 4.05661
-0.01875 1.807e-20 0.02875 3.98148
0.02875 1.807e-20 0.01875 5.68944
-0.02875 -1.807e-20 0.01875 5.5783
-0.00625 2.71051e-20 0.03375 3.47394
0.03 1.0842e-19 0.0175 6.03697
0.0175 1.0842e-19 0.03 3.91221
-0.0175 1.0842e-19 0.03 3.84299
-0.03 1.0842e-19 0.0175 5.90235
0.0325 1.0842e-19 0.0124878 8.18291
-0.0325 1.0842e-19 0.0124878 7.84427
0.0125 1.0842e-19 0.0325 3.63454
-0.0125 1.0842e-19 0.0325 3.58769
0.03375 -9.03502e-21 0.008656 11.8673
-0.03375 -9.03502e-21 0.008656 11.1106
0.00875 0 0.03375 3.50201
-0.00875 -1.807e-20 0.03375 3.4702
0.035 -1.0842e-19 0 80.164
-0.035 0 0 80.066
-1.02402e-14 1.0842e-19 0.035 3.36652
0.035 1.0842e-19 0.00233887 56.5668
-0.035 1.0842e-19 0.00233887 55.2447
0.0025 1.0842e-19 0.035 3.37133
-0.0025 1.0842e-19 0.035 3.36196
0.03125 9.03502e-21 0.0162494 6.40276
-0.03125 -1.807e-20 0.0162494 6.24064
0.01625 1.807e-20 0.03125 3.7698
-0.01625 1.807e-20 0.03125 3.70684
0.035 1.0842e-19 0.00479858 25.124
-0.035 1.0842e-19 0.00479858 23.1494
0.025 1.0842e-19 0.025 4.5588
0.005 1.0842e-19 0.035 3.37641
-0.005 1.0842e-19 0.035 3.35764
-0.025 1.0842e-19 0.025 4.46826
-0.02375 9.03502e-21 0.02625 4.29219
0.02375 2.71051e-20 0.02625 4.38096
0.02625 9.03502e-21 0.02375 4.74033
-0.02625 -9.03502e-21 0.02375 4.64817
0.0225 1.0842e-19 0.0275 4.2216
0.0275 1.0842e-19 0.0225 4.95058
-0.0225 1.0842e-19 0.0275 4.13398
-0.0275 1.0842e-19 0.0225 4.85436
0.03375 -2.71051e-20 0.011217 9.02862
-0.03375 -2.71051e-20 0.011217 8.58327
0.01125 1.807e-20 0.03375 3.50779
-0.01125 2.71051e-20 0.03375 3.4667
0.02125 9.03502e-21 0.02875 4.06448
0.02875 1.807e-20 0.02125 5.16705
-0.02125 0 0.02875 3.97876
-0.02875 0 0.02125 5.06625
0.035 1.0842e-19 0.00736572 14.6726
-0.035 1.0842e-19 0.00736572 13.5938
0.0325 1.0842e-19 0.0149988 6.90075
-0.0325 1.0842e-19 0.0149988 6.68777
0.015 1.0842e-19 0.0325 3.64105
-0.015 1.0842e-19 0.0325 3.58449
0.0075 1.0842e-19 0.035 3.38176
-0.0075 1.0842e-19 0.035 3.35355
0.036046 -1.6263e-19 0 80.1605
-0.036046 -8.13152e-20 0 80.0606
0.02 1.0842e-19 0.03 3.91981
0.03 1.0842e-19 0.02 5.42968
-0.02 1.0842e-19 0.03 3.84016
-0.03 1.0842e-19 0.02 5.31832
0.03625 9.03502e-21 0.00116943 78.4824
-0.03625 -1.807e-20 0.00116944 78.2884
0.00125 1.807e-20 0.03625 3.25063
-0.00125 -9.03502e-21 0.03625 3.24573
0.035 1.0842e-19 0.00994629 10.3952
-0.035 1.0842e-19 0.00994629 9.77367
0.01 1.0842e-19 0.035 3.38743
-0.01 1.0842e-19 0.035 3.34968
0.03625 9.03502e-21 0.00356872 33.8325
-0.03625 -9.03502e-21 0.00356872 31.3093
0.03375 -1.807e-20 0.0137433 7.43309
-0.03375 -1.807e-20 0.0137433 7.16127
0.03125 9.03502e-21 0.01875 5.70291
0.01875 2.71051e-20 0.03125 3.7771
-0.01875 9.03502e-21 0.03125 3.70393
-0.03125 9.03502e-21 0.01875 5.57912
0.01375 -9.03502e-21 0.03375 3.51393
-0.01375 -9.03502e-21 0.03375 3.46342
0.00375 1.807e-20 0.03625 3.25576
-0.00375 -1.807e-20 0.03625 3.24105
-0.036454 -8.13152e-20 0 80.0585
0.036454 -1.6263e-19 0 80.1576
0.03625 2.71051e-20 0.00608215 17.9298
-0.03625 -1.807e-20 0.00608215 16.4758
-0.00625 -1.807e-20 0.03625 3.23656
0.00625 1.807e-20 0.03625 3.26116
0.0325 1.0842e-19 0.0175 6.05276
0.0175 1.0842e-19 0.0325 3.64796
-0.0175 1.0842e-19 0.0325 3.58151
-0.0325 1.0842e-19 0.0175 5.90325
0.02625 1.807e-20 0.02625 4.38976
-0.02625 1.807e-20 0.02625 4.29049
0.035 1.0842e-19 0.0124878 8.21454
-0.035 1.0842e-19 0.0124878 7.84257
0.0125 1.0842e-19 0.035 3.39343
-0.0125 1.0842e-19 0.035 3.34602
0.025 1.0842e-19 0.0275 4.23015
0.0275 1.0842e-19 0.025 4.568
-0.025 1.0842e-19 0.0275 4.13186
-0.0275 1.0842e-19 0.025 4.46702
0.03625 -1.807e-20 0.00865601 11.9271
-0.03625 -9.03502e-21 0.008656 11.1012
-0.00875 2.71051e-20 0.03625 3.23228
-0.02375 -9.03502e-21 0.02875 3.97627
0.02375 9.03502e-21 0.02875 4.07281
0.02875 1.807e-20 0.02375 4.75001
-0.02875 -1.807e-20 0.02375 4.64741
0.00875 -9.03502e-21 0.03625 3.26679
-0.03375 -1.807e-20 0.0162494 6.24154
0.03375 -1.807e-20 0.0162494 6.42113
0.01625 -2.71051e-20 0.03375 3.52046
-0.01625 1.807e-20 0.03375 3.46036
-0.0375 0 0 80.0521
0.0225 1.0842e-19 0.03 3.92786
0.03 1.0842e-19 0.0225 4.96107
-1.02404e-14 1.0842e-19 0.0375 3.12105
-0.0225 1.0842e-19 0.03 3.83755
-0.03 1.0842e-19 0.0225 4.85412
0.0375 -1.0842e-19 0 80.1493
0.0375 1.0842e-19 0.00233887 56.6331
-0.0375 1.0842e-19 0.00233887 55.2128
0.0025 1.0842e-19 0.0375 3.12685
-0.0025 1.0842e-19 0.0375 3.11545
0.03125 2.71051e-20 0.02125 5.17845
-0.03125 -1.807e-20 0.02125 5.06658
0.02125 9.03502e-21 0.03125 3.78483
-0.02125 -9.03502e-21 0.03125 3.70123
0.0375 1.0842e-19 0.00479858 25.2467
-0.0375 1.0842e-19 0.00479858 23.1135
0.005 1.0842e-19 0.0375 3.13285
-0.005 1.0842e-19 0.0375 3.11002
0.03625 9.03502e-21 0.011217 9.06769
-0.03625 9.03502e-21 0.011217 8.58019
-0.01125 9.03502e-21 0.03625 3.22818
0.01125 2.71051e-20 0.03625 3.27272
0.035 1.0842e-19 0.0149988 6.9231
-0.035 1.0842e-19 0.0149988 6.68828
0.015 1.0842e-19 0.035 3.39978
-0.015 1.0842e-19 0.035 3.34255
0.02 1.0842e-19 0.0325 3.65528
0.0325 1.0842e-19 0.02 5.44257
-0.02 1.0842e-19 0.0325 3.57875
-0.0325 1.0842e-19 0.02 5.31904
0.0375 1.0842e-19 0.00736572 14.7515
-0.0375 1.0842e-19 0.00736572 13.5787
0.0075 1.0842e-19 0.0375 3.13907
-0.0075 1.0842e-19 0.0375 3.10476
0.038546 8.13152e-20 0 80.1456
-0.038546 -5.42101e-20 0 80.0466
0.03375 9.03502e-21 0.01875 5.71748
0.01875 9.03502e-21 0.03375 3.52737
-0.03375 9.03502e-21 0.01875 5.58025
-0.01875 -9.03502e-21 0.03375 3.45751
0.03875 1.807e-20 0.00116943 78.4735
-0.03875 -9.03502e-21 0.00116944 78.273
0.03625 -1.807e-20 0.0137433 7.45988
-0.03625 -9.03502e-21 0.0137433 7.16117
0.01375 -1.807e-20 0.03625 3.27898
-0.01375 1.807e-20 0.03625 3.22426
0.00125 9.03502e-21 0.0387501 2.99423
-0.00125 9.03502e-21 0.0387501 2.98763
0.0375 1.0842e-19 0.00994629 10.4459
-0.0375 1.0842e-19 0.00994629 9.76791
0.01 1.0842e-19 0.0375 3.14552
-0.01 1.0842e-19 0.0375 3.09966
0.0275 1.0842e-19 0.0275 4.23922
-0.0275 1.0842e-19 0.0275 4.12995
0.03875 -9.03502e-21 0.00356873 33.9752
-0.03875 1.807e-20 0.00356872 31.2623
0.02625 -1.807e-20 0.02875 4.08162
0.02875 2.71051e-20 0.02625 4.39911
-0.02875 9.03502e-21 0.02625 4.28899
-0.02625 1.807e-20 0.02875 3.97398
-0.00375 -9.03502e-21 0.0387501 2.98118
0.00375 9.03502e-21 0.0387501 3.001
-0.038954 -5.42101e-20 0 80.0445
0.038954 5.42101e-20 0 80.1424
0.025 1.0842e-19 0.03 3.93636
0.03 1.0842e-19 0.025 4.57783
-0.025 1.0842e-19 0.03 3.83515
-0.03 1.0842e-19 0.025 4.466
0.035 1.0842e-19 0.0175 6.06979
0.0175 1.0842e-19 0.035 3.40651
-0.0175 1.0842e-19 0.035 3.33927
-0.035 1.0842e-19 0.0175 5.90447
-0.03875 -9.03502e-21 0.00608215 16.4545
0.03875 2.71051e-20 0.00608215 18.0293
-0.03125 1.807e-20 0.02375 4.64689
0.02375 1.807e-20 0.03125 3.79301
0.03125 1.807e-20 0.02375 4.76038
-0.02375 9.03502e-21 0.03125 3.69875
0.00625 9.03502e-21 0.0387501 3.00793
-0.00625 -1.807e-20 0.0387501 2.97487