# p  POINT_DATA 43565
# x  y  z  p
-3.30872e-24 0.00104604 1.58372e-08 0.0069757
-2.1684e-19 -0.000203985 0.00116944 0.0069548
0 -0.00145396 1.55656e-08 0.00693428
1.16872e-19 0.001046 0.00233888 0.00697617
0 0.00229601 0.00116944 0.00699659
5.08501e-20 -0.00145398 0.00233888 0.00693474
-2.1684e-19 -0.00270399 0.00116943 0.00691376
0 0.00354601 1.54868e-08 0.00701785
1.0842e-19 -0.000203995 0.00356872 0.00695574
0 -0.00395397 1.47352e-08 0.00689362
-1.0842e-19 0.002296 0.00356873 0.00699757
1.08543e-19 0.00354599 0.00233888 0.00701835
-1.0842e-19 -0.002704 0.00356872 0.00691466
5.16864e-20 -0.00395401 0.00233888 0.00689406
-6.13913e-20 0.001046 0.00479858 0.00697601
1.0842e-19 0.004796 0.00116944 0.00703911
-2.65624e-20 -0.001454 0.00479858 0.00693459
-1.0842e-19 -0.005204 0.00116943 0.00687348
-8.79827e-20 0.003546 0.00479858 0.00701816
1.0842e-19 0.004796 0.00356872 0.00704013
-1.65436e-24 0.006046 1.32897e-08 0.00706073
0 -0.000204 0.00608215 0.00695447
4.1359e-25 -0.003954 0.00479858 0.00689393
1.0842e-19 -0.005204 0.00356872 0.00687434
0 -0.006454 1.30614e-08 0.00685372
9.109e-20 0.00604599 0.00233888 0.00706125
0 0.002296 0.00608215 0.00699622
1.0842e-19 -0.002704 0.00608215 0.00691347
8.32574e-20 -0.006454 0.00233887 0.00685414
0 0.007296 0.00116943 0.00708235
-4.87021e-20 0.001046 0.00736572 0.00697405
-3.61046e-20 -0.001454 0.00736572 0.00693273
-6.41696e-20 0.006046 0.00479858 0.00706104
-1.0842e-19 0.004796 0.00608215 0.0070387
0 -0.00770401 0.00116943 0.00683396
0 -0.005204 0.00608215 0.00687321
6.12058e-20 -0.006454 0.00479858 0.00685403
2.1684e-19 0.007296 0.00356872 0.00708342
7.27234e-20 0.003546 0.00736572 0.00701609
0 -0.003954 0.00736572 0.00689217
1.0842e-19 -0.007704 0.00356872 0.00683479
-1.65436e-24 0.00854602 1.01674e-08 0.00710433
0 -0.000204 0.008656 0.00695193
3.0506e-20 0.008546 0.00233887 0.00710487
0 -0.00895401 1.13402e-08 0.00681459
1.0842e-19 0.002296 0.00865601 0.00699355
2.1684e-19 -0.002704 0.00865601 0.00691105
-1.73753e-20 -0.00895401 0.00233887 0.006815
0 0.007296 0.00608215 0.0070819
-6.27586e-20 0.006046 0.00736572 0.00705886
5.05862e-21 -0.006454 0.00736572 0.00685236
-6.09576e-20 0.008546 0.00479858 0.00710464
-1.0842e-19 -0.007704 0.00608215 0.00683373
0 0.009796 0.00116944 0.0071263
0 0.004796 0.008656 0.00703589
-4.63851e-20 0.001046 0.00994629 0.00697062
9.72651e-21 -0.001454 0.00994629 0.00692947
1.0842e-19 -0.005204 0.00865601 0.00687092
-3.28411e-21 -0.008954 0.00479858 0.00681489
0 -0.010204 0.00116944 0.00679522
-2.1684e-19 0.009796 0.00356872 0.00712741
6.11923e-20 0.003546 0.00994629 0.00701249
8.14903e-20 -0.003954 0.00994629 0.00688907
0 -0.010204 0.00356873 0.00679602
0 0.011046 8.1473e-09 0.00714862
-1.0842e-19 -0.000204 0.011217 0.0069478
-6.65281e-21 0.008546 0.00736572 0.00710234
6.9075e-20 0.011046 0.00233887 0.00714918
-1.0842e-19 0.007296 0.008656 0.00707895
0 0.002296 0.011217 0.0069892
0 -0.011454 1.00102e-08 0.00677624
-1.0842e-19 0.009796 0.00608215 0.0071258
0 -0.002704 0.011217 0.00690712
0 -0.007704 0.00865601 0.00683155
-1.16074e-19 -0.008954 0.00736572 0.00681331
1.03364e-19 0.006046 0.00994629 0.00705508
4.90187e-21 -0.011454 0.00233887 0.00677663
5.32412e-20 -0.006454 0.00994629 0.00684941
1.0842e-19 -0.010204 0.00608215 0.00679501
1.04358e-19 0.011046 0.00479858 0.00714893
2.1684e-19 0.004796 0.011217 0.00703133
-2.1684e-19 0.012296 0.00116944 0.00717093
2.1684e-19 -0.005204 0.011217 0.00686718
-4.15844e-20 -0.011454 0.00479858 0.00677654
-4.95486e-20 0.001046 0.0124878 0.00696579
1.82458e-20 -0.001454 0.0124878 0.00692488
0 -0.012704 0.00116943 0.00675726
0 0.012296 0.00356873 0.00717209
-2.41021e-20 0.003546 0.0124878 0.00700742
0 0.009796 0.008656 0.00712269
-9.53899e-20 -0.003954 0.0124878 0.00688469
-2.58494e-26 0.008546 0.00994629 0.00709836
0 -0.012704 0.00356872 0.00675803
-5.16988e-26 0.011046 0.00736572 0.00714651
1.0842e-19 -0.010204 0.008656 0.00679293
0 0.007296 0.011217 0.00707415
1.03448e-19 -0.008954 0.00994629 0.0068105
8.27181e-25 0.013546 6.90219e-09 0.00719359
0 -0.007704 0.011217 0.00682799
7.6245e-20 -0.011454 0.00736572 0.00677503
0 0.012296 0.00608215 0.00717039
0 -0.000204 0.0137433 0.00694252
-1.43847e-21 0.013546 0.00233887 0.00719418
6.23766e-20 0.006046 0.0124878 0.00704974
0 0.002296 0.0137433 0.00698365
0 -0.013954 8.61294e-09 0.00673867
-1.0842e-19 -0.002704 0.0137433 0.00690209
5.10456e-20 -0.006454 0.0124878 0.00684524
-1.0842e-19 -0.012704 0.00608215 0.00675707
-2.34615e-20 -0.013954 0.00233887 0.00673905
9.32818e-20 0.013546 0.00479858 0.0071939
0 0.004796 0.0137433 0.00702549
-1.0842e-19 -0.005204 0.0137433 0.00686239
0 -0.013954 0.00479858 0.00673896
3.25261e-19 0.014796 0.00116944 0.00721624
-1.29247e-26 0.011046 0.00994629 0.00714232
0 0.009796 0.011217 0.00711766
-1.90307e-20 0.001046 0.0149988 0.00695976
-1.0842e-19 0.012296 0.008656 0.00716712
1.04505e-19 -0.001454 0.0149988 0.00691914
-1.06374e-19 0.008546 0.0124878 0.00709276
1.0842e-19 -0.010204 0.011217 0.00678955
-5.3168e-20 -0.011454 0.00994629 0.00677236
0 0.014796 0.00356872 0.00721745
1.0842e-19 -0.015204 0.00116943 0.00672009
7.23021e-20 -0.008954 0.0124878 0.00680654
0 -0.012704 0.008656 0.00675509
-8.82354e-21 0.003546 0.0149988 0.00700109
0 0.013546 0.00736572 0.00719135
-8.20398e-20 -0.003954 0.0149988 0.00687923
1.0842e-19 0.007296 0.0137433 0.00706802
-1.0842e-19 -0.015204 0.00356872 0.00672082
0 0.0148798 0.00479858 0.00721825
0 0.0138282 0.00736572 0.00719648
-1.0842e-19 -0.007704 0.0137433 0.00682342
-3.23117e-27 -0.013954 0.00736572 0.00673753
1.29247e-26 -0.0152493 0.00479858 0.0067199
1.0842e-19 0.014796 0.00608215 0.00721565
8.27181e-25 0.016046 5.10446e-09 0.00723921
-3.23117e-27 -0.0143632 0.00736572 0.00673152
1.20733e-19 0.006046 0.0149988 0.00704312
2.58494e-26 0.016046 0.00233887 0.00723983
-1.0842e-19 -0.000204 0.0162494 0.00693603
8.74269e-20 -0.006454 0.0149988 0.00684004
-2.06795e-25 0.0162013 0.00233887 0.0072427
0 -0.015204 0.00608215 0.00671992
-2.58494e-26 0.016046 0.00331439 0.00723971
0 0.002296 0.0162494 0.00697685
0 0.013546 0.00927608 0.00718809
0 -0.016454 7.35239e-09 0.0067019
-1.0842e-19 -0.002704 0.0162494 0.00689591
0 0.0132413 0.00994629 0.00718151
2.66092e-20 -0.016454 0.00233887 0.00670225
1.0842e-19 0.012296 0.011217 0.00716183
3.79047e-20 0.011046 0.0124878 0.00713644
0 0.016046 0.00479858 0.00723953
1.61559e-27 0.013546 0.00994629 0.00718695
0 0.0168588 0 0.00725425
0 0.009796 0.0137433 0.00711122
0 0.004796 0.0162494 0.00701837
-1.44746e-19 -0.011454 0.0124878 0.00676858
1.0842e-19 -0.012704 0.011217 0.00675186
-2.58494e-26 -0.016454 0.00425899 0.00670219
0 -0.005204 0.0162494 0.00685651
0 -0.010204 0.0137433 0.00678519
4.40724e-20 -0.013954 0.00994629 0.00673498
-2.58494e-26 -0.016454 0.00479858 0.00670217
2.1684e-19 0.014796 0.008656 0.00721221
-4.03897e-27 -0.0140935 0.00994629 0.00673294
5.34705e-20 0.008546 0.0149988 0.00708581
-1.0842e-19 0.017296 0.00116943 0.00726219
1.0958e-20 -0.008954 0.0149988 0.00680157
1.0842e-19 -0.015204 0.008656 0.00671803
-1.91606e-20 0.001046 0.0175 0.00695258
8.08399e-20 -0.001454 0.0175 0.0069123
8.60369e-21 0.016046 0.00736572 0.00723684
-1.0842e-19 0.017296 0.00356872 0.00726346
0 -0.017704 0.00116943 0.00668371
-1.0842e-19 0.007296 0.0162494 0.00706058
8.08393e-20 0.003546 0.0175 0.00699355
-1.91544e-20 -0.003954 0.0175 0.00687272
1.0842e-19 -0.007704 0.0162494 0.00681782
0 0.0129674 0.0124878 0.00717051
-2.58494e-26 -0.016454 0.00736572 0.0067008
-1.0842e-19 -0.017704 0.00356873 0.0066844
-1.0842e-19 0.017296 0.00608215 0.00726155
8.07794e-28 0.013546 0.0124878 0.00718077
-1.0842e-19 0.012296 0.0137433 0.00715507
1.42061e-19 0.006046 0.0175 0.00703519
-1.65436e-24 0.018546 1.05965e-08 0.00728547
1.0842e-19 0.014796 0.011217 0.00720665
-2.01948e-28 0.011046 0.0149988 0.00712915
0 -0.013954 0.0123475 0.00673157
-1.9158e-20 -0.006454 0.0175 0.00683384
0 -0.0139078 0.0124878 0.00673206
0 0.018546 0.00233887 0.00728612
-1.0842e-19 -0.012704 0.0137433 0.00674771
0 -0.017704 0.00608215 0.00668355
0 -0.013954 0.0124878 0.00673137
0 -0.000204 0.01875 0.00692851
0 -0.011454 0.0149988 0.00676385
-6.6779e-20 0.016046 0.00994629 0.00723221
1.0842e-19 0.002296 0.01875 0.00696893
0 -0.015204 0.011217 0.00671495
0 -0.002704 0.01875 0.00688875
0 -0.018954 6.98088e-09 0.00666592
-1.0842e-19 0.009796 0.0162494 0.00710342
1.93152e-20 -0.018954 0.00233887 0.00666625
-2.06795e-25 0.018546 0.00479858 0.0072858
-2.1684e-19 -0.010204 0.0162494 0.00677986
6.46235e-27 -0.016454 0.00994629 0.00669837
0 -0.018954 0.00379254 0.00666621
0 0.017296 0.00865601 0.00725794
1.0842e-19 0.004796 0.01875 0.00701003
0 -0.005204 0.01875 0.00684969
8.084e-20 0.008546 0.0175 0.00707748
5.16988e-26 -0.018954 0.00479858 0.00666618
1.58401e-19 -0.008954 0.0175 0.00679566
-1.0842e-19 -0.017704 0.00865601 0.00668173
0 0.0128206 0.0149988 0.00716036
-1.0842e-19 0.019796 0.00116944 0.00730876
-4.83916e-20 0.018546 0.00736572 0.00728296
-1.91544e-20 0.001046 0.02 0.00694421
8.08456e-20 -0.001454 0.02 0.00690434
0 0.019796 0.00356872 0.00731009
-1.0842e-19 0.007296 0.01875 0.00705177
1.0842e-19 0.014796 0.0137433 0.00719955
0 0.013546 0.0149988 0.00717312
-1.0842e-19 -0.020204 0.00116943 0.00664813
-1.0842e-19 -0.007704 0.01875 0.00681132
1.26218e-29 -0.0136771 0.0149988 0.00673096
5.84013e-20 0.003546 0.02 0.00698473
0 0.016046 0.0124878 0.00722573
-2.58494e-26 -0.018954 0.00736572 0.00666486
0 0.012296 0.0162494 0.0071469
-1.91544e-20 -0.003954 0.02 0.00686514
-1.26218e-29 -0.013954 0.0149988 0.00672686
1.0842e-19 -0.015204 0.0137433 0.00671099
0 -0.020204 0.00356872 0.00664878
-1.0842e-19 0.017296 0.011217 0.00725209
0 -0.012704 0.0162494 0.00674262
0 -0.016454 0.0124878 0.00669493
-1.9158e-20 0.011046 0.0175 0.00712041
1.0842e-19 0.019796 0.00608215 0.00730808
-1.91544e-20 0.006046 0.02 0.00702589
5.84007e-20 -0.011454 0.0175 0.0067582
-1.0842e-19 -0.017704 0.011217 0.00667879
-1.91544e-20 -0.006454 0.02 0.00682662
-2.58494e-26 0.018546 0.00994629 0.0072781
0 0.021046 1.24254e-08 0.00733234
-1.0842e-19 -0.020204 0.00608215 0.00664796
1.0842e-19 0.009796 0.01875 0.00709416
0 0.021046 0.00233888 0.00733302
0 -0.000204 0.02125 0.0069197
0 -0.010204 0.01875 0.00677365
1.0842e-19 0.002296 0.02125 0.00695968
-1.29247e-26 -0.018954 0.00994629 0.00666253
1.0842e-19 -0.002704 0.02125 0.00688038
0 -0.021454 7.94194e-09 0.00663074
1.27918e-19 -0.021454 0.00233887 0.00663105
2.06795e-25 0.021046 0.00479858 0.00733268
1.0842e-19 0.019796 0.008656 0.00730428
8.08456e-20 0.008546 0.02 0.00706769
0 0.004796 0.02125 0.00700028
0 -0.005204 0.02125 0.00684173
-1.91544e-20 -0.008954 0.02 0.0067888
0 -0.021454 0.00459418 0.00663097
2.01948e-28 0.016046 0.0149988 0.00721771
0 0.014796 0.0162494 0.00719098
0 -0.020204 0.008656 0.00664622
-2.58494e-26 -0.021454 0.00479858 0.00663097
-3.9443e-29 0.013546 0.017442 0.00716416
0 0.017296 0.0137433 0.00724465
8.08476e-20 0.013546 0.0175 0.00716394
-4.73317e-30 -0.013954 0.0172412 0.00672203
-1.0842e-19 -0.015204 0.0162494 0.00670613
0 -0.016454 0.0149988 0.00669062
-3.79057e-20 0.021046 0.00736572 0.00732969
-1.0842e-19 0.022296 0.00116944 0.00735593
0 0.018546 0.0124878 0.00727129
5.84013e-20 -0.013954 0.0175 0.00672147
0 -0.017704 0.0137433 0.00667501
0 0.012296 0.01875 0.00713715
1.0842e-19 0.007296 0.02125 0.00704149
8.08456e-20 0.001046 0.0225 0.00693455
8.08456e-20 -0.001454 0.0225 0.00689515
0 0.022296 0.00356873 0.00735732
0 -0.007704 0.02125 0.00680375
-1.0842e-19 -0.012704 0.01875 0.00673668
0 -0.021454 0.00736572 0.0066297
0 -0.018954 0.0124878 0.00665924
0 -0.022704 0.00116943 0.00661334
-1.29247e-26 -0.0222244 0.00479858 0.00662036
0 0.019796 0.011217 0.00729813
5.84013e-20 0.003546 0.0225 0.00697459
8.08456e-20 -0.003954 0.0225 0.0068564
1.58401e-19 0.011046 0.02 0.00711011
0 -0.022704 0.00356872 0.00661396
1.58401e-19 -0.011454 0.02 0.00675167
1.0842e-19 -0.020204 0.011217 0.0066434
0 0.022296 0.00608215 0.00735519
0 0.021046 0.00994629 0.00732459
-1.91544e-20 0.006046 0.0225 0.00701525
-1.0842e-19 0.009796 0.02125 0.00708333
-1.91544e-20 -0.006454 0.0225 0.00681831
0 -0.022704 0.00608215 0.00661316
0 0.023546 1.31505e-08 0.0073798
0 -0.010204 0.02125 0.00676646
0 -0.021454 0.00994629 0.00662746
0 0.023546 0.00233888 0.00738051
1.57772e-30 0.016046 0.0174837 0.00720813
0 0.017296 0.0162494 0.00723566
0 0.016046 0.0175 0.00720807
0 -0.000204 0.02375 0.00690967
4.03897e-28 0.018546 0.0149988 0.00726288
1.0842e-19 0.002296 0.02375 0.00694915
0 0.014796 0.01875 0.00718074
0 -0.002704 0.02375 0.00687083
0 0.022296 0.00865601 0.00735122
-1.65436e-24 -0.023954 9.6474e-09 0.00659636
-5.83757e-29 -0.016454 0.0174745 0.00668553
0 -0.016454 0.0175 0.00668548
0 0.023546 0.00479858 0.00738014
-1.0842e-19 -0.017704 0.0162494 0.00667038
-1.36562e-19 -0.023954 0.00233887 0.00659665
8.08456e-20 0.008546 0.0225 0.00705652
-1.0842e-19 0.019796 0.0137433 0.00729034
1.0842e-19 -0.015204 0.01875 0.00670045
-1.91544e-20 0.013546 0.02 0.00715312
0 -0.018954 0.0149988 0.00665513
-1.91544e-20 -0.008954 0.0225 0.0067809
0 0.004796 0.02375 0.00698925
1.0842e-19 -0.022704 0.008656 0.00661148
-1.0842e-19 -0.005204 0.02375 0.00683264
-1.91544e-20 -0.013954 0.02 0.00671525
5.56351e-20 -0.023954 0.00479858 0.00659655
-2.1684e-19 -0.020204 0.0137433 0.00663978
0 0.021046 0.0124878 0.00731745
-1.0842e-19 0.012296 0.02125 0.00712578
1.03398e-25 0.023546 0.00736572 0.007377
0 -0.012704 0.02125 0.00672987
1.0842e-19 0.024796 0.00116944 0.00740367
0 -0.021454 0.0124878 0.00662431
0 -0.023954 0.00654325 0.00659572
1.0842e-19 0.007296 0.02375 0.00702996
1.0842e-19 0.022296 0.011217 0.00734476
-1.0842e-19 -0.007704 0.02375 0.00679511
-1.91544e-20 0.001046 0.025 0.00692381
8.08456e-20 -0.001454 0.025 0.00688491
0 0.024796 0.00356872 0.00740513
0 -0.023954 0.00736572 0.00659532
1.58401e-19 0.011046 0.0225 0.00709839
2.1684e-19 -0.025204 0.00116944 0.00657937
1.58401e-19 -0.011454 0.0225 0.00674418
-1.91544e-20 0.003546 0.025 0.00696333
8.08456e-20 -0.003954 0.025 0.00684665
-2.1684e-19 -0.022704 0.011217 0.00660878
0 -0.025204 0.00356872 0.00657992
3.31322e-29 0.018546 0.0174888 0.00725281
0 0.018546 0.0175 0.00725276
0 0.017296 0.01875 0.0072249
1.0842e-19 0.024796 0.00608215 0.00740289
0 0.023546 0.00994629 0.00737165
1.0842e-19 0.019796 0.0162494 0.0072809
8.08456e-20 0.016046 0.02 0.00719671
-1.0842e-19 0.009796 0.02375 0.00707127
-1.91544e-20 0.006046 0.025 0.00700346
9.15079e-29 -0.018954 0.017485 0.00665025
-1.0842e-19 -0.017704 0.01875 0.00666495
8.08456e-20 -0.018954 0.0175 0.00665022
8.08456e-20 -0.006454 0.025 0.00680902
0 0.021046 0.0149988 0.00730863
0 -0.010204 0.02375 0.00675827
-1.0842e-19 0.014796 0.02125 0.00716881
8.08456e-20 -0.016454 0.02 0.00667955
0 -0.025204 0.00608215 0.00657914
0 -0.020204 0.0162494 0.00663537
8.92812e-20 -0.023954 0.00994629 0.00659317
1.65436e-24 0.026046 1.21855e-08 0.0074278
-1.0842e-19 -0.015204 0.02125 0.00669399
7.01011e-20 0.026046 0.00233887 0.00742855
4.03897e-28 -0.021454 0.0149988 0.00662039
0 0.022296 0.0137433 0.00733661
0 -0.000204 0.02625 0.00689874
-1.91544e-20 0.013546 0.0225 0.00714084
0 0.024796 0.008656 0.00739871
0 0.002296 0.02625 0.00693769
1.0842e-19 -0.002704 0.02625 0.00686041
-1.91544e-20 0.008546 0.025 0.00704418
0 -0.026454 1.02881e-08 0.00656278
8.08456e-20 -0.013954 0.0225 0.00670815
1.33585e-19 0.026046 0.00479858 0.00742816
0 -0.022704 0.0137433 0.00660532
8.08456e-20 -0.008954 0.025 0.00677206
-6.2436e-20 -0.026454 0.00233887 0.00656304
2.1684e-19 -0.025204 0.008656 0.00657751
0 0.023546 0.0124878 0.00736418
-1.0842e-19 0.004796 0.02625 0.00697724
0 0.012296 0.02375 0.00711315
0 -0.005204 0.02625 0.0068227
-9.43353e-20 -0.026454 0.00479858 0.00656292
-1.0842e-19 -0.012704 0.02375 0.00672211
0 -0.023954 0.0124878 0.00659015
0 0.026046 0.00736572 0.00742487
0 0.024796 0.011217 0.00739194
-1.0842e-19 0.007296 0.02625 0.00701738
0 0.019796 0.01875 0.0072696
-1.57772e-30 0.018546 0.02 0.00724085
-2.1684e-19 0.027296 0.00116944 0.00745194
-1.91544e-20 0.011046 0.025 0.00708547
1.29247e-26 -0.026454 0.00694427 0.00656191
0 -0.007704 0.02625 0.00678564
0 0.021046 0.0174904 0.00729804
0 0.021046 0.0175 0.007298
-1.0842e-19 0.017296 0.02125 0.00721239
-1.29247e-26 -0.026454 0.00736572 0.00656172
1.58401e-19 -0.011454 0.025 0.00673577
1.58401e-19 0.001046 0.0275 0.00691218
0 0.027296 0.00356872 0.00745348
1.58401e-19 -0.001454 0.0275 0.00687381
8.08456e-20 -0.018954 0.02 0.00664457
-1.0842e-19 -0.020204 0.01875 0.00663019
0 -0.025204 0.011217 0.00657492
0 0.022296 0.0162494 0.00732668
8.08456e-20 0.016046 0.0225 0.00718384
0 -0.017704 0.02125 0.00665881
1.51461e-28 -0.021454 0.0174873 0.00661572
0 -0.021454 0.0175 0.0066157
1.58401e-19 0.003546 0.0275 0.00695114
-1.0842e-19 -0.027704 0.00116943 0.0065462
-9.67102e-20 -0.003954 0.0275 0.00683606
3.28979e-21 -0.016454 0.0225 0.00667281
0 0.026046 0.00994629 0.00741925
0 0.023546 0.0149988 0.00735492
-1.0842e-19 -0.022704 0.0162494 0.0066011
-2.1684e-19 -0.027704 0.00356872 0.00654669
-2.1684e-19 0.027296 0.00608215 0.00745112
0 0.014796 0.02375 0.00715559
-1.0842e-19 0.009796 0.02625 0.00705809
-1.91544e-20 0.006046 0.0275 0.00699069
1.0842e-19 -0.010204 0.02625 0.00674922
0 -0.015204 0.02375 0.00668662
3.28979e-21 -0.006454 0.0275 0.00679893
-1.29247e-26 -0.026454 0.00994629 0.00655963
0 -0.023954 0.0149988 0.00658639
-1.0842e-19 0.024796 0.0137433 0.00738344
0 -0.027704 0.00608215 0.0065459
1.58401e-19 0.013546 0.025 0.00712731
-1.65436e-24 0.028546 9.91191e-09 0.00747633
1.58401e-19 -0.013954 0.025 0.00670014
1.0842e-19 0.027296 0.00865601 0.00744675
9.75076e-20 0.028546 0.00233887 0.00747712
0 -0.025204 0.0137433 0.0065716
0 -0.000204 0.02875 0.00688694
-1.91544e-20 0.008546 0.0275 0.0070308
0 0.002296 0.02875 0.00692533
-1.0842e-19 -0.002704 0.02875 0.00684916
-3.23117e-27 0.026046 0.0124878 0.00741144
-1.91544e-20 -0.008954 0.0275 0.00676244
-8.8438e-20 0.028546 0.00479858 0.00747671
1.65436e-24 -0.028954 9.37348e-09 0.00653003
0 0.012296 0.02625 0.00709935
0 -0.027704 0.008656 0.00654431
1.58401e-19 0.021046 0.02 0.00728551
1.0842e-19 0.019796 0.02125 0.00725651
-3.26281e-20 -0.028954 0.00233887 0.00653024
-1.0842e-19 0.022296 0.01875 0.00731481
-1.0842e-19 0.004796 0.02875 0.00696429
-1.91544e-20 0.018546 0.0225 0.00722737
0 -0.012704 0.02625 0.00671347
1.0842e-19 -0.005204 0.02875 0.00681197
3.23117e-27 -0.026454 0.0124878 0.00655673
0 -0.020204 0.02125 0.00662434
8.08456e-20 -0.021454 0.02 0.00661031
1.10441e-29 0.023546 0.0174904 0.00734379
-1.9149e-20 0.023546 0.0175 0.00734374
-1.64808e-19 -0.028954 0.00479858 0.00653007
0 0.017296 0.02375 0.00719856
-1.91544e-20 -0.018954 0.0225 0.00663815
0 -0.022704 0.01875 0.00659615
-5.16988e-26 0.028546 0.00736572 0.00747326
0 0.027296 0.011217 0.00743965
1.0842e-19 -0.017704 0.02375 0.0066518
5.84013e-20 0.011046 0.0275 0.00707146
-1.0842e-19 0.024796 0.0162494 0.00737298
0 -0.023954 0.0174875 0.00658193
-1.0842e-19 0.007296 0.02875 0.00700382
0 -0.023954 0.0175 0.00658191
-1.29247e-26 -0.028954 0.00659417 0.00652924
1.58401e-19 0.016046 0.025 0.00716969
-1.0842e-19 -0.007704 0.02875 0.00677541
-1.91544e-20 -0.011454 0.0275 0.00672659
2.1684e-19 0.029796 0.00116944 0.00750073
-1.29247e-26 -0.028954 0.00736572 0.00652888
-1.0842e-19 -0.027704 0.011217 0.00654181
-1.91544e-20 -0.016454 0.025 0.00666518
-1.0842e-19 -0.025204 0.0162494 0.00656756
-1.0842e-19 0.029796 0.00356872 0.00750235
8.08456e-20 0.001046 0.03 0.00689971
8.08456e-20 -0.001454 0.03 0.00686192
0 0.026046 0.0149988 0.00740173
0 0.014796 0.02625 0.00714114
-1.91544e-20 0.003546 0.03 0.00693808
0 -0.030204 0.00116943 0.00651385
1.29247e-26 0.028546 0.00994629 0.00746737
-9.67102e-20 -0.003954 0.03 0.00682472
-1.0842e-19 -0.015204 0.02625 0.00667837
0 0.009796 0.02875 0.00704389
0 -0.026454 0.0149988 0.00655313
-1.0842e-19 0.029796 0.00608215 0.00749987
1.0842e-19 -0.030204 0.00356872 0.00651423
-1.0842e-19 -0.010204 0.02875 0.00673948
1.0842e-19 0.027296 0.0137433 0.00743077
-1.91544e-20 0.006046 0.03 0.006977
0 -0.028954 0.00994629 0.00652686
5.84013e-20 0.013546 0.0275 0.00711265
3.28979e-21 -0.006454 0.03 0.00678812
0 0.022296 0.02125 0.00730112
1.58401e-19 0.021046 0.0225 0.00727142
-1.0842e-19 -0.030204 0.00608215 0.00651343
1.58401e-19 -0.013954 0.0275 0.00669139
5.84013e-20 0.023546 0.02 0.00733067
0 0.019796 0.02375 0.00724203
0 -0.027704 0.0137433 0.00653862
-1.0842e-19 0.029796 0.008656 0.00749529
0 0.031046 8.13302e-09 0.00752536
0 0.024796 0.01875 0.00736051
1.58401e-19 -0.021454 0.0225 0.00660419
0 -0.022704 0.02125 0.00659057
8.08456e-20 0.018546 0.025 0.00721257
0 0.031046 0.00233887 0.00752618
0 0.028546 0.0124878 0.00745919
1.0842e-19 -0.020204 0.02375 0.00661766
5.84013e-20 0.008546 0.03 0.00701647
-9.67102e-20 -0.023954 0.02 0.00657677
0 -0.000204 0.03125 0.00687439
-1.0842e-19 0.012296 0.02875 0.0070845
8.08456e-20 -0.008954 0.03 0.00675213
0 0.002296 0.03125 0.00691218
0 -0.002704 0.03125 0.00683719
-1.91544e-20 -0.018954 0.025 0.0066309
-1.57772e-30 0.026046 0.0174889 0.00739004
5.84013e-20 0.026046 0.0175 0.00738998
0 -0.025204 0.01875 0.00656283
0 0.031046 0.00479858 0.00752576
1.0842e-19 -0.030204 0.008656 0.00651187
0 -0.012704 0.02875 0.00670418
0 0.017296 0.02625 0.00718345
0 -0.031454 8.26335e-09 0.00649806
-3.23117e-27 -0.028954 0.0124878 0.00652406
5.73302e-20 -0.031454 0.00233887 0.00649822
-1.0842e-19 0.004796 0.03125 0.00695051
-1.0842e-19 -0.017704 0.02625 0.00664394
-1.0842e-19 -0.005204 0.03125 0.00680056
-8.83524e-29 -0.026454 0.017487 0.00654887
8.08497e-20 -0.026454 0.0175 0.00654884
0 0.027296 0.0162494 0.00741977
7.69326e-20 -0.031454 0.00479858 0.00649798
1.0842e-19 0.029796 0.011217 0.00748785
1.58401e-19 0.016046 0.0275 0.00715435
-3.23117e-27 -0.031454 0.00522866 0.00649778
-2.58494e-26 0.031046 0.00736572 0.00752214
1.58401e-19 0.011046 0.03 0.00705646
1.58401e-19 -0.016454 0.0275 0.00665684
0 0.007296 0.03125 0.00698939
-1.91544e-20 -0.011454 0.03 0.00671677
0 -0.027704 0.0162494 0.00653475
-1.0842e-19 -0.007704 0.03125 0.00676453
1.0842e-19 -0.030204 0.011217 0.00650945
-5.63223e-21 0.028546 0.0149988 0.00744903
0 -0.031454 0.00736572 0.0064968
0 0.032296 0.00116944 0.00754999
-1.0842e-19 0.014796 0.02875 0.0071256
1.0842e-19 0.032296 0.00356872 0.0075517
-1.91544e-20 0.001046 0.0325 0.0068865
-1.0842e-19 -0.015204 0.02875 0.00666952
-9.67102e-20 -0.001454 0.0325 0.00684932
-1.91544e-20 0.023546 0.0225 0.00731594
0 0.022296 0.02375 0.007286
-6.46235e-27 0.031046 0.00994629 0.00751597
4.03897e-28 -0.028954 0.0149988 0.00652061
0 0.024796 0.02125 0.00734621
3.28979e-21 0.021046 0.025 0.00725594
-9.67102e-20 0.003546 0.0325 0.00692423
0 -0.032704 0.00116943 0.00648226
8.08456e-20 -0.003954 0.0325 0.0068127
-1.0842e-19 0.009796 0.03125 0.00702878
0 0.029796 0.0137433 0.00747856
5.84013e-20 0.026046 0.02 0.00737629
1.0842e-19 -0.022704 0.02375 0.00658421
-1.0842e-19 0.032296 0.00608215 0.00754909
-9.67102e-20 -0.023954 0.0225 0.00657093
0 -0.010204 0.03125 0.0067291
0 0.019796 0.02625 0.00722624
-1.0842e-19 -0.032704 0.00356873 0.00648253
-1.91544e-20 0.013546 0.03 0.00709696
3.28979e-21 -0.021454 0.025 0.00659729
0 -0.025204 0.02125 0.0065575
0 -0.031454 0.00994629 0.00649483
8.08456e-20 0.006046 0.0325 0.0069625
8.08456e-20 -0.013954 0.03 0.00668203
0 0.027296 0.01875 0.00740668
-1.0842e-19 -0.020204 0.02625 0.00661019
-1.91544e-20 -0.006454 0.0325 0.00677666
3.28979e-21 -0.026454 0.02 0.00654393
8.08456e-20 0.018546 0.0275 0.00719653
1.0842e-19 -0.030204 0.0137433 0.00650639
1.0842e-19 -0.032704 0.00608215 0.00648172
8.08456e-20 -0.018954 0.0275 0.00662295
-2.1684e-19 0.032296 0.008656 0.0075443
1.0842e-19 -0.027704 0.01875 0.00653023
2.55382e-20 0.031046 0.0124878 0.00750742
-4.73317e-29 0.028546 0.0174847 0.00743677
-1.57772e-30 0.028546 0.0175 0.0074367
0 0.033546 8.11061e-09 0.00757484
-1.0842e-19 0.017296 0.02875 0.00716719
1.0842e-19 0.012296 0.03125 0.00706868
5.84013e-20 0.008546 0.0325 0.00700128
0 0.033546 0.00233887 0.00757571
-1.91544e-20 -0.008954 0.0325 0.00674121
-1.0842e-19 -0.012704 0.03125 0.0066943
0 -0.000204 0.03375 0.00686114
-1.0842e-19 -0.017704 0.02875 0.00663551
-1.26218e-29 -0.028954 0.0174857 0.00651653
0 0.002296 0.03375 0.00689828
-1.0842e-19 -0.032704 0.008656 0.00648018
0 -0.028954 0.0175 0.0065165
0 -0.031454 0.0124878 0.00649213
-1.0842e-19 -0.002704 0.03375 0.00682455
0 0.033546 0.00479858 0.00757527
1.0842e-19 0.029796 0.0162494 0.00746703
0 -0.033954 7.88963e-09 0.0064668
-1.91544e-20 0.016046 0.03 0.00713794
3.37515e-20 -0.033954 0.00233887 0.00646692
-1.0842e-19 0.004796 0.03375 0.00693595
0 -0.005204 0.03375 0.0067885
1.0842e-19 0.032296 0.011217 0.0075365
-9.67102e-20 -0.016454 0.03 0.00664792
2.72011e-20 -0.033954 0.00479858 0.00646664
1.0842e-19 -0.030204 0.0162494 0.00650267
1.58401e-19 0.011046 0.0325 0.00704056
-1.0842e-19 0.024796 0.02375 0.00733041
8.08456e-20 0.023546 0.025 0.00729977
2.58494e-26 0.033546 0.00736572 0.00757147
1.58401e-19 0.026046 0.0225 0.00736091
-1.0842e-19 0.022296 0.02625 0.00726949
1.58401e-19 -0.011454 0.0325 0.00670636
1.7236e-20 0.031046 0.0149988 0.00749677
0 -0.033954 0.00602802 0.00646607
0 0.007296 0.03375 0.00697413
-2.1684e-19 -0.032704 0.011217 0.00647783
0 0.014796 0.03125 0.00710905
0 0.027296 0.02125 0.00739177
0 -0.007704 0.03375 0.00675305
-3.54881e-20 -0.023954 0.025 0.00656436
-3.54881e-20 0.021046 0.0275 0.00723917
1.0842e-19 -0.025204 0.02375 0.00655145
-1.0842e-19 -0.022704 0.02625 0.0065771
3.28979e-21 -0.026454 0.0225 0.00653837
0 -0.033954 0.00736572 0.00646546
0 -0.015204 0.03125 0.00666011
2.1684e-19 0.034796 0.00116944 0.00759969
0 -0.031454 0.0149988 0.00648881
-1.91544e-20 0.028546 0.02 0.00742238
3.28979e-21 -0.021454 0.0275 0.00658972
0 0.019796 0.02875 0.00720924
0 -0.027704 0.02125 0.00652514
1.0842e-19 0.034796 0.00356872 0.00760149
-6.46235e-27 0.033546 0.00994629 0.00756502
8.08456e-20 0.001046 0.035 0.00687261
8.08456e-20 -0.001454 0.035 0.00683607
-1.0842e-19 0.032296 0.0137433 0.0075268
0 -0.020204 0.02875 0.00660215
-1.0842e-19 0.009796 0.03375 0.0070128
3.28979e-21 0.003546 0.035 0.00690967
-1.91544e-20 -0.028954 0.02 0.0065118
0 0.029796 0.01875 0.00745331
-3.54881e-20 0.013546 0.0325 0.00708031
1.58401e-19 -0.003954 0.035 0.00680007
-1.0842e-19 -0.035204 0.00116943 0.00645134
-1.0842e-19 -0.010204 0.03375 0.00671815
0 0.018546 0.03 0.00717937
4.1359e-25 0.035322 0 0.00761028
0 0.034796 0.00608215 0.00759876
-4.15987e-20 -0.013954 0.0325 0.00667211
0 -0.033954 0.00994629 0.00646353
0 -0.035204 0.00356873 0.00645155
1.0842e-19 -0.032704 0.0137433 0.00647488
-9.67102e-20 -0.018954 0.03 0.00661446
8.08456e-20 0.006046 0.035 0.00694724
-1.0842e-19 -0.030204 0.01875 0.00649835
5.84013e-20 -0.006454 0.035 0.00676463
-1.57772e-29 0.031046 0.0174753 0.00748398
-9.67102e-20 0.031046 0.0175 0.00748385
-1.0842e-19 0.017296 0.03125 0.00714989
0 -0.035204 0.00608215 0.00645073
-4.78217e-20 0.033546 0.0124878 0.00755607
-2.1684e-19 0.034796 0.00865601 0.00759375
0 -0.017704 0.03125 0.00662655
0 0.012296 0.03375 0.00705196
-1.0413e-28 -0.031454 0.0174805 0.00648491
-1.91513e-20 -0.031454 0.0175 0.00648488
-1.91544e-20 0.008546 0.035 0.0069853
4.1359e-25 0.036046 3.3064e-09 0.00762473
-1.0842e-19 -0.012704 0.03375 0.00668386
2.06795e-25 0.036046 0.00171503 0.00762541
-1.91544e-20 0.026046 0.025 0.00734402
0 0.024796 0.02625 0.00731316
-9.31081e-20 0.036046 0.00233887 0.00762566
5.84013e-20 -0.008954 0.035 0.00672975
-3.23117e-27 -0.0353819 0.00736572 0.00644797
-1.0842e-19 0.032296 0.0162494 0.00751472
8.07794e-28 -0.033954 0.0124878 0.00646093
-1.0842e-19 0.027296 0.02375 0.00737526
-9.67102e-20 0.023546 0.0275 0.00728225
-9.67102e-20 0.016046 0.0325 0.00712052
-1.0842e-19 -0.000204 0.03625 0.00684726
-1.0842e-19 -0.035204 0.008656 0.00644921
0 0.002296 0.03625 0.00688375
-9.67102e-20 0.028546 0.0225 0.00740632
-1.0842e-19 -0.002704 0.03625 0.00681134
-1.03398e-25 0.036046 0.00479858 0.0076252
-1.0842e-19 0.022296 0.02875 0.00725172
0 -0.025204 0.02625 0.00654469
3.28979e-21 -0.026454 0.025 0.00653212
5.84013e-20 -0.016454 0.0325 0.00663847
0 -0.036454 7.98331e-09 0.00643622
8.08456e-20 -0.023954 0.0275 0.00655716
0 -0.027704 0.02375 0.00651938
-1.0842e-19 -0.032704 0.0162494 0.00647131
3.46762e-20 -0.036454 0.00233887 0.00643632
-1.0842e-19 0.034796 0.011217 0.00758559
0 0.0365624 0 0.00763512
1.0842e-19 0.004796 0.03625 0.0069207
0 0.029796 0.02125 0.00743774
-1.0842e-19 -0.005204 0.03625 0.0067759
-1.0842e-19 -0.022704 0.02875 0.00656945
-3.54881e-20 0.021046 0.03 0.00722123
8.08456e-20 -0.028954 0.0225 0.0065065
-1.91544e-20 0.011046 0.035 0.00702384
-1.00974e-28 0.033546 0.0149988 0.00754493
-1.39374e-19 -0.036454 0.00479858 0.00643601
-5.16988e-26 0.036046 0.00736572 0.00762124
1.58401e-19 -0.011454 0.035 0.00669543
0 0.014796 0.03375 0.00709155
-9.67102e-20 -0.021454 0.03 0.00658163
1.0842e-19 -0.030204 0.02125 0.00649347
8.08456e-20 0.031046 0.02 0.00746888
1.0842e-19 -0.035204 0.011217 0.00644694
0 0.007296 0.03625 0.00695817
1.0842e-19 0.019796 0.03125 0.00719115
-1.0842e-19 -0.015204 0.03375 0.00665016
1.0842e-19 -0.007704 0.03625 0.00674106
1.61559e-27 -0.0357267 0.00994629 0.00644185
0 -0.033954 0.0149988 0.00645773
0 -0.036454 0.00736572 0.00643484
0 -0.020204 0.03125 0.00659361
-1.91544e-20 -0.031454 0.02 0.00648038
1.0842e-19 0.037296 0.00116944 0.00764979
0 0.032296 0.01875 0.00750036
-4.6787e-20 0.036046 0.00994629 0.00761449
0 0.034796 0.0137433 0.00757544
3.28979e-21 0.018546 0.0325 0.00716115
-1.0842e-19 0.037296 0.00356873 0.0076517
5.84013e-20 0.001046 0.0375 0.00685818
8.08456e-20 -0.001454 0.0375 0.00682232
3.28979e-21 0.013546 0.035 0.00706283
-1.0842e-19 0.009796 0.03625 0.0069961
8.08456e-20 -0.018954 0.0325 0.00660545
-1.0842e-19 -0.010204 0.03625 0.00670672
8.08456e-20 0.003546 0.0375 0.00689454
5.84013e-20 -0.013954 0.035 0.0066617
0 -0.032704 0.01875 0.00646718
3.28979e-21 -0.003954 0.0375 0.00678696
-1.0842e-19 -0.037704 0.00116943 0.00642109
4.31606e-20 -0.036454 0.00994629 0.00643296
-1.0842e-19 0.037296 0.00608215 0.00764884
-2.1684e-19 -0.035204 0.0137433 0.00644409