# pMean  POINT_DATA 43565
# x  y  z  pMean
-3.30872e-24 0.00104604 1.58372e-08 0.00713597
-2.1684e-19 -0.000203985 0.00116944 0.00711509
0 -0.00145396 1.55656e-08 0.00709459
1.16872e-19 0.001046 0.00233888 0.00713643
0 0.00229601 0.00116944 0.00715685
5.08501e-20 -0.00145398 0.00233888 0.00709503
-2.1684e-19 -0.00270399 0.00116943 0.00707408
0 0.00354601 1.54868e-08 0.0071781
1.0842e-19 -0.000203995 0.00356872 0.00711599
0 -0.00395397 1.47352e-08 0.00705397
-1.0842e-19 0.002296 0.00356873 0.00715779
1.08543e-19 0.00354599 0.00233888 0.00717858
-1.0842e-19 -0.002704 0.00356872 0.00707496
5.16864e-20 -0.00395401 0.00233888 0.00705439
-6.13913e-20 0.001046 0.00479858 0.00713613
1.0842e-19 0.004796 0.00116944 0.00719935
-2.65624e-20 -0.001454 0.00479858 0.00709476
-1.0842e-19 -0.005204 0.00116943 0.00703385
-8.79827e-20 0.003546 0.00479858 0.00717825
1.0842e-19 0.004796 0.00356872 0.00720033
-1.65436e-24 0.006046 1.32897e-08 0.00722097
0 -0.000204 0.00608215 0.0071145
4.1359e-25 -0.003954 0.00479858 0.00705416
1.0842e-19 -0.005204 0.00356872 0.00703468
0 -0.006454 1.30614e-08 0.00701412
9.109e-20 0.00604599 0.00233888 0.00722146
0 0.002296 0.00608215 0.00715619
1.0842e-19 -0.002704 0.00608215 0.00707358
8.32574e-20 -0.006454 0.00233887 0.00701453
0 0.007296 0.00116943 0.00724258
-4.87021e-20 0.001046 0.00736572 0.00713391
-3.61046e-20 -0.001454 0.00736572 0.00709267
-6.41696e-20 0.006046 0.00479858 0.00722111
-1.0842e-19 0.004796 0.00608215 0.00719865
0 -0.00770401 0.00116943 0.00699438
0 -0.005204 0.00608215 0.00703338
6.12058e-20 -0.006454 0.00479858 0.00701431
2.1684e-19 0.007296 0.00356872 0.0072436
7.27234e-20 0.003546 0.00736572 0.00717591
0 -0.003954 0.00736572 0.00705216
1.0842e-19 -0.007704 0.00356872 0.00699519
-1.65436e-24 0.00854602 1.01674e-08 0.00726455
0 -0.000204 0.008656 0.0071117
3.0506e-20 0.008546 0.00233887 0.00726507
0 -0.00895401 1.13402e-08 0.00697504
1.0842e-19 0.002296 0.00865601 0.00715324
2.1684e-19 -0.002704 0.00865601 0.00707088
-1.73753e-20 -0.00895401 0.00233887 0.00697544
0 0.007296 0.00608215 0.00724181
-6.27586e-20 0.006046 0.00736572 0.00721863
5.05862e-21 -0.006454 0.00736572 0.00701242
-6.09576e-20 0.008546 0.00479858 0.00726468
-1.0842e-19 -0.007704 0.00608215 0.00699395
0 0.009796 0.00116944 0.00728652
0 0.004796 0.008656 0.00719554
-4.63851e-20 0.001046 0.00994629 0.00713011
9.72651e-21 -0.001454 0.00994629 0.00708905
1.0842e-19 -0.005204 0.00865601 0.0070308
-3.28411e-21 -0.008954 0.00479858 0.00697524
0 -0.010204 0.00116944 0.0069557
-2.1684e-19 0.009796 0.00356872 0.00728759
6.11923e-20 0.003546 0.00994629 0.00717191
8.14903e-20 -0.003954 0.00994629 0.00704872
0 -0.010204 0.00356873 0.00695649
0 0.011046 8.1473e-09 0.00730884
-1.0842e-19 -0.000204 0.011217 0.00710711
-6.65281e-21 0.008546 0.00736572 0.00726206
6.9075e-20 0.011046 0.00233887 0.00730939
-1.0842e-19 0.007296 0.008656 0.00723852
0 0.002296 0.011217 0.00714842
0 -0.011454 1.00102e-08 0.00693675
-1.0842e-19 0.009796 0.00608215 0.00728569
0 -0.002704 0.011217 0.00706654
0 -0.007704 0.00865601 0.00699154
-1.16074e-19 -0.008954 0.00736572 0.00697346
1.03364e-19 0.006046 0.00994629 0.00721442
4.90187e-21 -0.011454 0.00233887 0.00693714
5.32412e-20 -0.006454 0.00994629 0.00700917
1.0842e-19 -0.010204 0.00608215 0.00695532
1.04358e-19 0.011046 0.00479858 0.00730896
2.1684e-19 0.004796 0.011217 0.00719046
-2.1684e-19 0.012296 0.00116944 0.00733116
2.1684e-19 -0.005204 0.011217 0.00702669
-4.15844e-20 -0.011454 0.00479858 0.00693696
-4.95486e-20 0.001046 0.0124878 0.00712483
1.82458e-20 -0.001454 0.0124878 0.00708403
0 -0.012704 0.00116943 0.0069178
0 0.012296 0.00356873 0.00733228
-2.41021e-20 0.003546 0.0124878 0.00716635
0 0.009796 0.008656 0.00728221
-9.53899e-20 -0.003954 0.0124878 0.00704395
-2.58494e-26 0.008546 0.00994629 0.00725763
0 -0.012704 0.00356872 0.00691857
-5.16988e-26 0.011046 0.00736572 0.00730619
1.0842e-19 -0.010204 0.008656 0.00695304
0 0.007296 0.011217 0.00723319
1.03448e-19 -0.008954 0.00994629 0.00697038
8.27181e-25 0.013546 6.90219e-09 0.00735382
0 -0.007704 0.011217 0.00698765
7.6245e-20 -0.011454 0.00736572 0.00693527
0 0.012296 0.00608215 0.00733026
0 -0.000204 0.0137433 0.00710139
-1.43847e-21 0.013546 0.00233887 0.00735438
6.23766e-20 0.006046 0.0124878 0.00720859
0 0.002296 0.0137433 0.0071424
0 -0.013954 8.61294e-09 0.00689925
-1.0842e-19 -0.002704 0.0137433 0.00706108
5.10456e-20 -0.006454 0.0124878 0.00700463
-1.0842e-19 -0.012704 0.00608215 0.00691745
-2.34615e-20 -0.013954 0.00233887 0.00689962
9.32818e-20 0.013546 0.00479858 0.00735393
0 0.004796 0.0137433 0.00718415
-1.0842e-19 -0.005204 0.0137433 0.00702149
0 -0.013954 0.00479858 0.00689945
3.25261e-19 0.014796 0.00116944 0.00737647
-1.29247e-26 0.011046 0.00994629 0.00730153
0 0.009796 0.011217 0.00727664
-1.90307e-20 0.001046 0.0149988 0.00711835
-1.0842e-19 0.012296 0.008656 0.0073266
1.04505e-19 -0.001454 0.0149988 0.00707785
-1.06374e-19 0.008546 0.0124878 0.0072515
1.0842e-19 -0.010204 0.011217 0.0069493
-5.3168e-20 -0.011454 0.00994629 0.00693233
0 0.014796 0.00356872 0.00737762
1.0842e-19 -0.015204 0.00116943 0.00688069
7.23021e-20 -0.008954 0.0124878 0.00696606
0 -0.012704 0.008656 0.00691527
-8.82354e-21 0.003546 0.0149988 0.00715955
0 0.013546 0.00736572 0.00735102
-8.20398e-20 -0.003954 0.0149988 0.00703806
1.0842e-19 0.007296 0.0137433 0.00722656
-1.0842e-19 -0.015204 0.00356872 0.0068814
0 0.0148798 0.00479858 0.00737827
0 0.0138282 0.00736572 0.00735615
-1.0842e-19 -0.007704 0.0137433 0.00698268
-3.23117e-27 -0.013954 0.00736572 0.00689785
1.29247e-26 -0.0152493 0.00479858 0.00688042
1.0842e-19 0.014796 0.00608215 0.00737553
8.27181e-25 0.016046 5.10446e-09 0.00739946
-3.23117e-27 -0.0143632 0.00736572 0.00689185
1.20733e-19 0.006046 0.0149988 0.00720145
2.58494e-26 0.016046 0.00233887 0.00740004
-1.0842e-19 -0.000204 0.0162494 0.00709446
8.74269e-20 -0.006454 0.0149988 0.00699903
-2.06795e-25 0.0162013 0.00233887 0.00740292
0 -0.015204 0.00608215 0.00688036
-2.58494e-26 0.016046 0.00331439 0.00739985
0 0.002296 0.0162494 0.00713514
0 0.013546 0.00927608 0.00734738
0 -0.016454 7.35239e-09 0.00686253
-1.0842e-19 -0.002704 0.0162494 0.00705446
0 0.0132413 0.00994629 0.00734068
2.66092e-20 -0.016454 0.00233887 0.00686288
1.0842e-19 0.012296 0.011217 0.00732072
3.79047e-20 0.011046 0.0124878 0.0072951
0 0.016046 0.00479858 0.00739955
1.61559e-27 0.013546 0.00994629 0.00734611
0 0.0168588 0 0.00741451
0 0.009796 0.0137433 0.00726965
0 0.004796 0.0162494 0.00717651
-1.44746e-19 -0.011454 0.0124878 0.00692821
1.0842e-19 -0.012704 0.011217 0.00691171
-2.58494e-26 -0.016454 0.00425899 0.00686276
0 -0.005204 0.0162494 0.00701521
0 -0.010204 0.0137433 0.0069446
4.40724e-20 -0.013954 0.00994629 0.00689505
-2.58494e-26 -0.016454 0.00479858 0.00686272
2.1684e-19 0.014796 0.008656 0.00737167
-4.03897e-27 -0.0140935 0.00994629 0.00689301
5.34705e-20 0.008546 0.0149988 0.00724401
-1.0842e-19 0.017296 0.00116943 0.00742245
1.0958e-20 -0.008954 0.0149988 0.00696073
1.0842e-19 -0.015204 0.008656 0.0068783
-1.91606e-20 0.001046 0.0175 0.00711071
8.08399e-20 -0.001454 0.0175 0.00707058
8.60369e-21 0.016046 0.00736572 0.00739649
-1.0842e-19 0.017296 0.00356872 0.00742363
0 -0.017704 0.00116943 0.00684437
-1.0842e-19 0.007296 0.0162494 0.00721856
8.08393e-20 0.003546 0.0175 0.00715153
-1.91544e-20 -0.003954 0.0175 0.00703115
1.0842e-19 -0.007704 0.0162494 0.00697672
0 0.0129674 0.0124878 0.0073291
-2.58494e-26 -0.016454 0.00736572 0.0068612
-1.0842e-19 -0.017704 0.00356873 0.00684506
-1.0842e-19 0.017296 0.00608215 0.00742141
8.07794e-28 0.013546 0.0124878 0.00733934
-1.0842e-19 0.012296 0.0137433 0.0073134
1.42061e-19 0.006046 0.0175 0.00719301
-1.65436e-24 0.018546 1.05965e-08 0.00744575
1.0842e-19 0.014796 0.011217 0.00736549
-2.01948e-28 0.011046 0.0149988 0.00728723
0 -0.013954 0.0123475 0.00689135
-1.9158e-20 -0.006454 0.0175 0.00699245
0 -0.0139078 0.0124878 0.00689182
0 0.018546 0.00233887 0.00744636
-1.0842e-19 -0.012704 0.0137433 0.00690725
0 -0.017704 0.00608215 0.00684405
0 -0.013954 0.0124878 0.00689114
0 -0.000204 0.01875 0.0070865
0 -0.011454 0.0149988 0.00692316
-6.6779e-20 0.016046 0.00994629 0.00739135
1.0842e-19 0.002296 0.01875 0.00712675
0 -0.015204 0.011217 0.00687492
0 -0.002704 0.01875 0.00704691
0 -0.018954 6.98088e-09 0.00682662
-1.0842e-19 0.009796 0.0162494 0.00726128
1.93152e-20 -0.018954 0.00233887 0.00682696
-2.06795e-25 0.018546 0.00479858 0.00744584
-2.1684e-19 -0.010204 0.0162494 0.00693893
6.46235e-27 -0.016454 0.00994629 0.00685853
0 -0.018954 0.00379254 0.00682686
0 0.017296 0.00865601 0.00741736
1.0842e-19 0.004796 0.01875 0.0071677
0 -0.005204 0.01875 0.00700802
8.084e-20 0.008546 0.0175 0.00723515
5.16988e-26 -0.018954 0.00479858 0.0068268
1.58401e-19 -0.008954 0.0175 0.00695447
-1.0842e-19 -0.017704 0.00865601 0.00684209
0 0.0128206 0.0149988 0.00731836
-1.0842e-19 0.019796 0.00116944 0.00746906
-4.83916e-20 0.018546 0.00736572 0.00744261
-1.91544e-20 0.001046 0.02 0.0071019
8.08456e-20 -0.001454 0.02 0.00706221
0 0.019796 0.00356872 0.00747032
-1.0842e-19 0.007296 0.01875 0.00720926
1.0842e-19 0.014796 0.0137433 0.00735779
0 0.013546 0.0149988 0.00733109
-1.0842e-19 -0.020204 0.00116943 0.00680887
-1.0842e-19 -0.007704 0.01875 0.00696985
1.26218e-29 -0.0136771 0.0149988 0.00689041
5.84013e-20 0.003546 0.02 0.00714224
0 0.016046 0.0124878 0.00738424
-2.58494e-26 -0.018954 0.00736572 0.00682534
0 0.012296 0.0162494 0.0073046
-1.91544e-20 -0.003954 0.02 0.00702319
-1.26218e-29 -0.013954 0.0149988 0.00688633
1.0842e-19 -0.015204 0.0137433 0.00687068
0 -0.020204 0.00356872 0.00680953
-1.0842e-19 0.017296 0.011217 0.00741093
0 -0.012704 0.0162494 0.00690186
0 -0.016454 0.0124878 0.00685481
-1.9158e-20 0.011046 0.0175 0.00727791
1.0842e-19 0.019796 0.00608215 0.00746797
-1.91544e-20 0.006046 0.02 0.00718322
5.84007e-20 -0.011454 0.0175 0.00691719
-1.0842e-19 -0.017704 0.011217 0.00683886
-1.91544e-20 -0.006454 0.02 0.00698488
-2.58494e-26 0.018546 0.00994629 0.00743721
0 0.021046 1.24254e-08 0.00749266
-1.0842e-19 -0.020204 0.00608215 0.00680855
1.0842e-19 0.009796 0.01875 0.00725147
0 0.021046 0.00233888 0.00749329
0 -0.000204 0.02125 0.00707727
0 -0.010204 0.01875 0.00693237
1.0842e-19 0.002296 0.02125 0.00711705
-1.29247e-26 -0.018954 0.00994629 0.00682279
1.0842e-19 -0.002704 0.02125 0.00703813
0 -0.021454 7.94194e-09 0.00679151
1.27918e-19 -0.021454 0.00233887 0.00679183
2.06795e-25 0.021046 0.00479858 0.00749274
1.0842e-19 0.019796 0.008656 0.00746369
8.08456e-20 0.008546 0.02 0.00722483
0 0.004796 0.02125 0.00715745
0 -0.005204 0.02125 0.00699969
-1.91544e-20 -0.008954 0.02 0.00694727
0 -0.021454 0.00459418 0.0067917
2.01948e-28 0.016046 0.0149988 0.00737557
0 0.014796 0.0162494 0.00734857
0 -0.020204 0.008656 0.00680667
-2.58494e-26 -0.021454 0.00479858 0.00679169
-3.9443e-29 0.013546 0.017442 0.00732152
0 0.017296 0.0137433 0.0074028
8.08476e-20 0.013546 0.0175 0.00732129
-4.73317e-30 -0.013954 0.0172412 0.00688123
-1.0842e-19 -0.015204 0.0162494 0.00686553
0 -0.016454 0.0149988 0.00685023
-3.79057e-20 0.021046 0.00736572 0.00748934
-1.0842e-19 0.022296 0.00116944 0.00751626
0 0.018546 0.0124878 0.00742975
5.84013e-20 -0.013954 0.0175 0.00688064
0 -0.017704 0.0137433 0.00683482
0 0.012296 0.01875 0.00729429
1.0842e-19 0.007296 0.02125 0.00719847
8.08456e-20 0.001046 0.0225 0.00709182
8.08456e-20 -0.001454 0.0225 0.00705262
0 0.022296 0.00356873 0.00751756
0 -0.007704 0.02125 0.00696196
-1.0842e-19 -0.012704 0.01875 0.0068956
0 -0.021454 0.00736572 0.00679028
0 -0.018954 0.0124878 0.00681924
0 -0.022704 0.00116943 0.00677415
-1.29247e-26 -0.0222244 0.00479858 0.00678111
0 0.019796 0.011217 0.00745692
5.84013e-20 0.003546 0.0225 0.00713165
8.08456e-20 -0.003954 0.0225 0.00701408
1.58401e-19 0.011046 0.02 0.00726706
0 -0.022704 0.00356872 0.00677478
1.58401e-19 -0.011454 0.02 0.00691034
1.0842e-19 -0.020204 0.011217 0.00680359
0 0.022296 0.00608215 0.00751508
0 0.021046 0.00994629 0.00748366
-1.91544e-20 0.006046 0.0225 0.0071721
-1.0842e-19 0.009796 0.02125 0.00724011
-1.91544e-20 -0.006454 0.0225 0.00697623
0 -0.022704 0.00608215 0.00677387
0 0.023546 1.31505e-08 0.00754015
0 -0.010204 0.02125 0.00692489
0 -0.021454 0.00994629 0.00678785
0 0.023546 0.00233888 0.00754082
1.57772e-30 0.016046 0.0174837 0.00736535
0 0.017296 0.0162494 0.00739315
0 0.016046 0.0175 0.00736529
0 -0.000204 0.02375 0.00706684
4.03897e-28 0.018546 0.0149988 0.00742064
1.0842e-19 0.002296 0.02375 0.00710611
0 0.014796 0.01875 0.00733771
0 -0.002704 0.02375 0.00702823
0 0.022296 0.00865601 0.0075106
-1.65436e-24 -0.023954 9.6474e-09 0.0067572
-5.83757e-29 -0.016454 0.0174745 0.00684487
0 -0.016454 0.0175 0.00684482
0 0.023546 0.00479858 0.00754024
-1.0842e-19 -0.017704 0.0162494 0.00682992
-1.36562e-19 -0.023954 0.00233887 0.0067575
8.08456e-20 0.008546 0.0225 0.00721315
-1.0842e-19 0.019796 0.0137433 0.0074484
1.0842e-19 -0.015204 0.01875 0.00685956
-1.91544e-20 0.013546 0.02 0.00730989
0 -0.018954 0.0149988 0.00681488
-1.91544e-20 -0.008954 0.0225 0.00693905
0 0.004796 0.02375 0.007146
1.0842e-19 -0.022704 0.008656 0.00677205
-1.0842e-19 -0.005204 0.02375 0.00699027
-1.91544e-20 -0.013954 0.02 0.00687412
5.56351e-20 -0.023954 0.00479858 0.00675736
-2.1684e-19 -0.020204 0.0137433 0.00679973
0 0.021046 0.0124878 0.00747583
-1.0842e-19 0.012296 0.02125 0.00728235
1.03398e-25 0.023546 0.00736572 0.00753665
0 -0.012704 0.02125 0.00688848
1.0842e-19 0.024796 0.00116944 0.00756405
0 -0.021454 0.0124878 0.00678447
0 -0.023954 0.00654325 0.00675645
1.0842e-19 0.007296 0.02375 0.00718648
1.0842e-19 0.022296 0.011217 0.00750346
-1.0842e-19 -0.007704 0.02375 0.00695299
-1.91544e-20 0.001046 0.025 0.00708068
8.08456e-20 -0.001454 0.025 0.00704201
0 0.024796 0.00356872 0.00756546
0 -0.023954 0.00736572 0.00675602
1.58401e-19 0.011046 0.0225 0.0072548
2.1684e-19 -0.025204 0.00116944 0.00674024
1.58401e-19 -0.011454 0.0225 0.00690255
-1.91544e-20 0.003546 0.025 0.00711998
8.08456e-20 -0.003954 0.025 0.00700398
-2.1684e-19 -0.022704 0.011217 0.00676914
0 -0.025204 0.00356872 0.00674082
3.31322e-29 0.018546 0.0174888 0.00740989
0 0.018546 0.0175 0.00740984
0 0.017296 0.01875 0.00738171
1.0842e-19 0.024796 0.00608215 0.00756282
0 0.023546 0.00994629 0.00753068
1.0842e-19 0.019796 0.0162494 0.00743824
8.08456e-20 0.016046 0.02 0.00735331
-1.0842e-19 0.009796 0.02375 0.00722755
-1.91544e-20 0.006046 0.025 0.00715987
9.15079e-29 -0.018954 0.017485 0.00680976
-1.0842e-19 -0.017704 0.01875 0.00682426
8.08456e-20 -0.018954 0.0175 0.00680973
8.08456e-20 -0.006454 0.025 0.00696662
0 0.021046 0.0149988 0.00746626
0 -0.010204 0.02375 0.00691636
-1.0842e-19 0.014796 0.02125 0.0073252
8.08456e-20 -0.016454 0.02 0.00683862
0 -0.025204 0.00608215 0.00673995
0 -0.020204 0.0162494 0.00679507
8.92812e-20 -0.023954 0.00994629 0.0067537
1.65436e-24 0.026046 1.21855e-08 0.00758821
-1.0842e-19 -0.015204 0.02125 0.00685281
7.01011e-20 0.026046 0.00233887 0.00758892
4.03897e-28 -0.021454 0.0149988 0.0067803
0 0.022296 0.0137433 0.00749457
0 -0.000204 0.02625 0.00705552
-1.91544e-20 0.013546 0.0225 0.00729704
0 0.024796 0.008656 0.00755811
0 0.002296 0.02625 0.00709425
1.0842e-19 -0.002704 0.02625 0.00701744
-1.91544e-20 0.008546 0.025 0.00720034
0 -0.026454 1.02881e-08 0.00672368
8.08456e-20 -0.013954 0.0225 0.00686674
1.33585e-19 0.026046 0.00479858 0.00758831
0 -0.022704 0.0137433 0.00676544
8.08456e-20 -0.008954 0.025 0.0069299
-6.2436e-20 -0.026454 0.00233887 0.00672396
2.1684e-19 -0.025204 0.008656 0.00673822
0 0.023546 0.0124878 0.00752248
-1.0842e-19 0.004796 0.02625 0.00713355
0 0.012296 0.02375 0.0072692
0 -0.005204 0.02625 0.00697999
-9.43353e-20 -0.026454 0.00479858 0.00672381
-1.0842e-19 -0.012704 0.02375 0.00688044
0 -0.023954 0.0124878 0.00675046
0 0.026046 0.00736572 0.00758455
0 0.024796 0.011217 0.0075506
-1.0842e-19 0.007296 0.02625 0.00717344
0 0.019796 0.01875 0.00742626
-1.57772e-30 0.018546 0.02 0.00739728
-2.1684e-19 0.027296 0.00116944 0.00761238
-1.91544e-20 0.011046 0.025 0.00724137
1.29247e-26 -0.026454 0.00694427 0.00672273
0 -0.007704 0.02625 0.0069432
0 0.021046 0.0174904 0.00745496
0 0.021046 0.0175 0.00745492
-1.0842e-19 0.017296 0.02125 0.00736861
-1.29247e-26 -0.026454 0.00736572 0.00672252
1.58401e-19 -0.011454 0.025 0.00689384
1.58401e-19 0.001046 0.0275 0.00706865
0 0.027296 0.00356872 0.00761384
1.58401e-19 -0.001454 0.0275 0.00703054
8.08456e-20 -0.018954 0.02 0.00680384
-1.0842e-19 -0.020204 0.01875 0.00678967
0 -0.025204 0.011217 0.00673541
0 0.022296 0.0162494 0.00748387
8.08456e-20 0.016046 0.0225 0.00733985
0 -0.017704 0.02125 0.00681785
1.51461e-28 -0.021454 0.0174873 0.00677542
0 -0.021454 0.0175 0.0067754
1.58401e-19 0.003546 0.0275 0.00710737
-1.0842e-19 -0.027704 0.00116943 0.00670713
-9.67102e-20 -0.003954 0.0275 0.00699306
3.28979e-21 -0.016454 0.0225 0.00683162
0 0.026046 0.00994629 0.00757828
0 0.023546 0.0149988 0.00751246
-1.0842e-19 -0.022704 0.0162494 0.006761
-2.1684e-19 -0.027704 0.00356872 0.00670766
-2.1684e-19 0.027296 0.00608215 0.0076111
0 0.014796 0.02375 0.00731142
-1.0842e-19 0.009796 0.02625 0.00721387
-1.91544e-20 0.006046 0.0275 0.00714664
1.0842e-19 -0.010204 0.02625 0.00690703
0 -0.015204 0.02375 0.0068452
3.28979e-21 -0.006454 0.0275 0.0069562
-1.29247e-26 -0.026454 0.00994629 0.00672029
0 -0.023954 0.0149988 0.00674649
-1.0842e-19 0.024796 0.0137433 0.00754134
0 -0.027704 0.00608215 0.00670677
1.58401e-19 0.013546 0.025 0.00728298
-1.65436e-24 0.028546 9.91191e-09 0.0076368
1.58401e-19 -0.013954 0.025 0.00685847
1.0842e-19 0.027296 0.00865601 0.00760617
9.75076e-20 0.028546 0.00233887 0.00763754
0 -0.025204 0.0137433 0.00673189
0 -0.000204 0.02875 0.00704335
-1.91544e-20 0.008546 0.0275 0.00718647
0 0.002296 0.02875 0.00708148
-1.0842e-19 -0.002704 0.02875 0.00700584
-3.23117e-27 0.026046 0.0124878 0.00756969
-1.91544e-20 -0.008954 0.0275 0.00691998
-8.8438e-20 0.028546 0.00479858 0.0076369
1.65436e-24 -0.028954 9.37348e-09 0.00669098
0 0.012296 0.02625 0.00725487
0 -0.027704 0.008656 0.00670514
1.58401e-19 0.021046 0.02 0.00744176
1.0842e-19 0.019796 0.02125 0.00741252
-3.26281e-20 -0.028954 0.00233887 0.00669123
-1.0842e-19 0.022296 0.01875 0.0074713
-1.0842e-19 0.004796 0.02875 0.00712018
-1.91544e-20 0.018546 0.0225 0.00738318
0 -0.012704 0.02625 0.00687154
1.0842e-19 -0.005204 0.02875 0.00696894
3.23117e-27 -0.026454 0.0124878 0.00671719
0 -0.020204 0.02125 0.00678358
8.08456e-20 -0.021454 0.02 0.00676979
1.10441e-29 0.023546 0.0174904 0.00750057
-1.9149e-20 0.023546 0.0175 0.00750052
-1.64808e-19 -0.028954 0.00479858 0.00669104
0 0.017296 0.02375 0.00735417
-1.91544e-20 -0.018954 0.0225 0.00679718
0 -0.022704 0.01875 0.00675584
-5.16988e-26 0.028546 0.00736572 0.00763295
0 0.027296 0.011217 0.00759828
1.0842e-19 -0.017704 0.02375 0.00681059
5.84013e-20 0.011046 0.0275 0.00722685
-1.0842e-19 0.024796 0.0162494 0.00753007
0 -0.023954 0.0174875 0.00674183
-1.0842e-19 0.007296 0.02875 0.0071594
0 -0.023954 0.0175 0.0067418
-1.29247e-26 -0.028954 0.00659417 0.00669017
1.58401e-19 0.016046 0.025 0.00732512
-1.0842e-19 -0.007704 0.02875 0.00693267
-1.91544e-20 -0.011454 0.0275 0.00688439
2.1684e-19 0.029796 0.00116944 0.00766122
-1.29247e-26 -0.028954 0.00736572 0.00668979
-1.0842e-19 -0.027704 0.011217 0.00670241
-1.91544e-20 -0.016454 0.025 0.00682375
-1.0842e-19 -0.025204 0.0162494 0.00672764
-1.0842e-19 0.029796 0.00356872 0.00766277
8.08456e-20 0.001046 0.03 0.00705579
8.08456e-20 -0.001454 0.03 0.00701829
0 0.026046 0.0149988 0.00755918
0 0.014796 0.02625 0.00729642
-1.91544e-20 0.003546 0.03 0.00709388
0 -0.030204 0.00116943 0.00667483
1.29247e-26 0.028546 0.00994629 0.00762639
-9.67102e-20 -0.003954 0.03 0.00698138
-1.0842e-19 -0.015204 0.02625 0.00683671
0 0.009796 0.02875 0.00719918
0 -0.026454 0.0149988 0.00671339
-1.0842e-19 0.029796 0.00608215 0.00765984
1.0842e-19 -0.030204 0.00356872 0.00667529
-1.0842e-19 -0.010204 0.02875 0.006897
1.0842e-19 0.027296 0.0137433 0.00758857
-1.91544e-20 0.006046 0.03 0.00713253
0 -0.028954 0.00994629 0.00668765
5.84013e-20 0.013546 0.0275 0.00726778
3.28979e-21 -0.006454 0.03 0.00694508
0 0.022296 0.02125 0.00745694
1.58401e-19 0.021046 0.0225 0.00742701
-1.0842e-19 -0.030204 0.00608215 0.00667442
1.58401e-19 -0.013954 0.0275 0.00684946
5.84013e-20 0.023546 0.02 0.00748674
0 0.019796 0.02375 0.00739742
0 -0.027704 0.0137433 0.00669906
-1.0842e-19 0.029796 0.008656 0.0076547
0 0.031046 8.13302e-09 0.00768589
0 0.024796 0.01875 0.00751685
1.58401e-19 -0.021454 0.0225 0.00676345
0 -0.022704 0.02125 0.00675005
8.08456e-20 0.018546 0.025 0.00736777
0 0.031046 0.00233887 0.00768667
0 0.028546 0.0124878 0.00761739
1.0842e-19 -0.020204 0.02375 0.00677667
5.84013e-20 0.008546 0.03 0.00717169
-9.67102e-20 -0.023954 0.02 0.00673646
0 -0.000204 0.03125 0.00703042
-1.0842e-19 0.012296 0.02875 0.00723949
8.08456e-20 -0.008954 0.03 0.00690937
0 0.002296 0.03125 0.0070679
0 -0.002704 0.03125 0.00699354
-1.91544e-20 -0.018954 0.025 0.00678969
-1.57772e-30 0.026046 0.0174889 0.00754669
5.84013e-20 0.026046 0.0175 0.00754664
0 -0.025204 0.01875 0.00672273
0 0.031046 0.00479858 0.00768598
1.0842e-19 -0.030204 0.008656 0.00667283
0 -0.012704 0.02875 0.00686198
0 0.017296 0.02625 0.00733848
0 -0.031454 8.26335e-09 0.00665907
-3.23117e-27 -0.028954 0.0124878 0.00668467
5.73302e-20 -0.031454 0.00233887 0.00665928
-1.0842e-19 0.004796 0.03125 0.00710597
-1.0842e-19 -0.017704 0.02625 0.00680251
-1.0842e-19 -0.005204 0.03125 0.00695721
-8.83524e-29 -0.026454 0.017487 0.00670894
8.08497e-20 -0.026454 0.0175 0.00670892
0 0.027296 0.0162494 0.00757675
7.69326e-20 -0.031454 0.00479858 0.00665906
1.0842e-19 0.029796 0.011217 0.00764645
1.58401e-19 0.016046 0.0275 0.00730922
-3.23117e-27 -0.031454 0.00522866 0.00665886
-2.58494e-26 0.031046 0.00736572 0.00768184
1.58401e-19 0.011046 0.03 0.00721136
1.58401e-19 -0.016454 0.0275 0.00681517
0 0.007296 0.03125 0.00714455
-1.91544e-20 -0.011454 0.03 0.00687429
0 -0.027704 0.0162494 0.00669499
-1.0842e-19 -0.007704 0.03125 0.00692148
1.0842e-19 -0.030204 0.011217 0.00667023
-5.63223e-21 0.028546 0.0149988 0.00760638
0 -0.031454 0.00736572 0.00665783
0 0.032296 0.00116944 0.00771056
-1.0842e-19 0.014796 0.02875 0.00728032
1.0842e-19 0.032296 0.00356872 0.00771218
-1.91544e-20 0.001046 0.0325 0.00704219
-1.0842e-19 -0.015204 0.02875 0.0068276
-9.67102e-20 -0.001454 0.0325 0.00700533
-1.91544e-20 0.023546 0.0225 0.00747133
0 0.022296 0.02375 0.00744115
-6.46235e-27 0.031046 0.00994629 0.00767497
4.03897e-28 -0.028954 0.0149988 0.00668104
0 0.024796 0.02125 0.00750187
3.28979e-21 0.021046 0.025 0.00741089
-9.67102e-20 0.003546 0.0325 0.00707962
0 -0.032704 0.00116943 0.0066433
8.08456e-20 -0.003954 0.0325 0.00696904
-1.0842e-19 0.009796 0.03125 0.00718361
0 0.029796 0.0137433 0.00763631
5.84013e-20 0.026046 0.02 0.00753221
1.0842e-19 -0.022704 0.02375 0.00674347
-1.0842e-19 0.032296 0.00608215 0.0077091
-9.67102e-20 -0.023954 0.0225 0.00673042
0 -0.010204 0.03125 0.00688633
0 0.019796 0.02625 0.007381
-1.0842e-19 -0.032704 0.00356873 0.00664368
-1.91544e-20 0.013546 0.03 0.00725156
3.28979e-21 -0.021454 0.025 0.00675633
0 -0.025204 0.02125 0.0067172
0 -0.031454 0.00994629 0.00665576
8.08456e-20 0.006046 0.0325 0.00711758
8.08456e-20 -0.013954 0.03 0.00683985
0 0.027296 0.01875 0.00756288
-1.0842e-19 -0.020204 0.02625 0.006769
-1.91544e-20 -0.006454 0.0325 0.00693331
3.28979e-21 -0.026454 0.02 0.00670382
8.08456e-20 0.018546 0.0275 0.00735113
1.0842e-19 -0.030204 0.0137433 0.006667
1.0842e-19 -0.032704 0.00608215 0.00664284
8.08456e-20 -0.018954 0.0275 0.00678153
-2.1684e-19 0.032296 0.008656 0.00770372
1.0842e-19 -0.027704 0.01875 0.00669032
2.55382e-20 0.031046 0.0124878 0.00766557
-4.73317e-29 0.028546 0.0174847 0.00759331
-1.57772e-30 0.028546 0.0175 0.00759323
0 0.033546 8.11061e-09 0.00773544
-1.0842e-19 0.017296 0.02875 0.00732164
1.0842e-19 0.012296 0.03125 0.00722318
5.84013e-20 0.008546 0.0325 0.00715603
0 0.033546 0.00233887 0.00773627
-1.91544e-20 -0.008954 0.0325 0.00689816
-1.0842e-19 -0.012704 0.03125 0.00685185
0 -0.000204 0.03375 0.00701681
-1.0842e-19 -0.017704 0.02875 0.00679385
-1.26218e-29 -0.028954 0.0174857 0.00667679
0 0.002296 0.03375 0.00705363
-1.0842e-19 -0.032704 0.008656 0.00664125
0 -0.028954 0.0175 0.00667677
0 -0.031454 0.0124878 0.0066529
-1.0842e-19 -0.002704 0.03375 0.00698056
0 0.033546 0.00479858 0.00773554
1.0842e-19 0.029796 0.0162494 0.00762392
0 -0.033954 7.88963e-09 0.00662788
-1.91544e-20 0.016046 0.03 0.00729224
3.37515e-20 -0.033954 0.00233887 0.00662806
-1.0842e-19 0.004796 0.03375 0.00709096
0 -0.005204 0.03375 0.00694483
1.0842e-19 0.032296 0.011217 0.00769508
-9.67102e-20 -0.016454 0.03 0.00680602
2.72011e-20 -0.033954 0.00479858 0.00662783
1.0842e-19 -0.030204 0.0162494 0.00666312
1.58401e-19 0.011046 0.0325 0.00719498
-1.0842e-19 0.024796 0.02375 0.00748534
8.08456e-20 0.023546 0.025 0.00745448
2.58494e-26 0.033546 0.00736572 0.00773121
1.58401e-19 0.026046 0.0225 0.00751611
-1.0842e-19 0.022296 0.02625 0.00742399
1.58401e-19 -0.011454 0.0325 0.00686362
1.7236e-20 0.031046 0.0149988 0.00765405
0 -0.033954 0.00602802 0.00662725
0 0.007296 0.03375 0.00712882
-2.1684e-19 -0.032704 0.011217 0.00663874
0 0.014796 0.03125 0.00726323
0 0.027296 0.02125 0.00754723
0 -0.007704 0.03375 0.0069097
-3.54881e-20 -0.023954 0.025 0.00672366
-3.54881e-20 0.021046 0.0275 0.00739349
1.0842e-19 -0.025204 0.02375 0.00671096
-1.0842e-19 -0.022704 0.02625 0.00673617
3.28979e-21 -0.026454 0.0225 0.00669808
0 -0.033954 0.00736572 0.00662662
0 -0.015204 0.03125 0.00681795
2.1684e-19 0.034796 0.00116944 0.00776033
0 -0.031454 0.0149988 0.00664942
-1.91544e-20 0.028546 0.02 0.00757812
3.28979e-21 -0.021454 0.0275 0.00674856
0 0.019796 0.02875 0.00736339
0 -0.027704 0.02125 0.00668503
1.0842e-19 0.034796 0.00356872 0.00776204
-6.46235e-27 0.033546 0.00994629 0.00772402
8.08456e-20 0.001046 0.035 0.00702794
8.08456e-20 -0.001454 0.035 0.00699175
-1.0842e-19 0.032296 0.0137433 0.00768449
0 -0.020204 0.02875 0.00676075
-1.0842e-19 0.009796 0.03375 0.00716715
3.28979e-21 0.003546 0.035 0.00706467
-1.91544e-20 -0.028954 0.02 0.0066719
0 0.029796 0.01875 0.00760936
-3.54881e-20 0.013546 0.0325 0.00723441
1.58401e-19 -0.003954 0.035 0.00695608
-1.0842e-19 -0.035204 0.00116943 0.00661247
-1.0842e-19 -0.010204 0.03375 0.00687513
0 0.018546 0.03 0.00733338
4.1359e-25 0.035322 0 0.00777094
0 0.034796 0.00608215 0.00775882
-4.15987e-20 -0.013954 0.0325 0.00682967
0 -0.033954 0.00994629 0.0066246
0 -0.035204 0.00356873 0.0066128
1.0842e-19 -0.032704 0.0137433 0.00663565
-9.67102e-20 -0.018954 0.03 0.00677282
8.08456e-20 0.006046 0.035 0.0071019
-1.0842e-19 -0.030204 0.01875 0.00665865
5.84013e-20 -0.006454 0.035 0.00692097
-1.57772e-29 0.031046 0.0174753 0.0076404
-9.67102e-20 0.031046 0.0175 0.00764027
-1.0842e-19 0.017296 0.03125 0.00730377
0 -0.035204 0.00608215 0.00661197
-4.78217e-20 0.033546 0.0124878 0.00771418
-2.1684e-19 0.034796 0.00865601 0.0077532
0 -0.017704 0.03125 0.00678466
0 0.012296 0.03375 0.00720598
-1.0413e-28 -0.031454 0.0174805 0.00664537
-1.91513e-20 -0.031454 0.0175 0.00664534
-1.91544e-20 0.008546 0.035 0.00713961
4.1359e-25 0.036046 3.3064e-09 0.00778541
-1.0842e-19 -0.012704 0.03375 0.00684115
2.06795e-25 0.036046 0.00171503 0.00778605
-1.91544e-20 0.026046 0.025 0.0074985
0 0.024796 0.02625 0.00746743
-9.31081e-20 0.036046 0.00233887 0.00778629
5.84013e-20 -0.008954 0.035 0.00688642
-3.23117e-27 -0.0353819 0.00736572 0.00660922
-1.0842e-19 0.032296 0.0162494 0.00767151
8.07794e-28 -0.033954 0.0124878 0.00662186
-1.0842e-19 0.027296 0.02375 0.00752998
-9.67102e-20 0.023546 0.0275 0.0074363
-9.67102e-20 0.016046 0.0325 0.00727429
-1.0842e-19 -0.000204 0.03625 0.00700259
-1.0842e-19 -0.035204 0.008656 0.00661043
0 0.002296 0.03625 0.00703873
-9.67102e-20 0.028546 0.0225 0.0075613
-1.0842e-19 -0.002704 0.03625 0.00696703
-1.03398e-25 0.036046 0.00479858 0.00778555
-1.0842e-19 0.022296 0.02875 0.00740558
0 -0.025204 0.02625 0.00670402
3.28979e-21 -0.026454 0.025 0.00669165
5.84013e-20 -0.016454 0.0325 0.00679632
0 -0.036454 7.98331e-09 0.00659741
8.08456e-20 -0.023954 0.0275 0.00671626
0 -0.027704 0.02375 0.00667911
-1.0842e-19 -0.032704 0.0162494 0.00663193
3.46762e-20 -0.036454 0.00233887 0.00659758
-1.0842e-19 0.034796 0.011217 0.00774416
0 0.0365624 0 0.00779582
1.0842e-19 0.004796 0.03625 0.00707535
0 0.029796 0.02125 0.00759299
-1.0842e-19 -0.005204 0.03625 0.00693191
-1.0842e-19 -0.022704 0.02875 0.00672831
-3.54881e-20 0.021046 0.03 0.00737493
8.08456e-20 -0.028954 0.0225 0.00666643
-1.91544e-20 0.011046 0.035 0.0071778
-1.00974e-28 0.033546 0.0149988 0.00770212
-1.39374e-19 -0.036454 0.00479858 0.00659733
-5.16988e-26 0.036046 0.00736572 0.00778102
1.58401e-19 -0.011454 0.035 0.00685243
0 0.014796 0.03375 0.00724524
-9.67102e-20 -0.021454 0.03 0.00674027
1.0842e-19 -0.030204 0.02125 0.0066536
8.08456e-20 0.031046 0.02 0.00762445
1.0842e-19 -0.035204 0.011217 0.00660801
0 0.007296 0.03625 0.00711248
1.0842e-19 0.019796 0.03125 0.0073447
-1.0842e-19 -0.015204 0.03375 0.00680773
1.0842e-19 -0.007704 0.03625 0.00689742
1.61559e-27 -0.0357267 0.00994629 0.00660304
0 -0.033954 0.0149988 0.00661853
0 -0.036454 0.00736572 0.00659615
0 -0.020204 0.03125 0.006752
-1.91544e-20 -0.031454 0.02 0.00664069
1.0842e-19 0.037296 0.00116944 0.0078105
0 0.032296 0.01875 0.00765628
-4.6787e-20 0.036046 0.00994629 0.00777349
0 0.034796 0.0137433 0.00773306
3.28979e-21 0.018546 0.0325 0.00731459
-1.0842e-19 0.037296 0.00356873 0.00781232
5.84013e-20 0.001046 0.0375 0.00701316
8.08456e-20 -0.001454 0.0375 0.00697767
3.28979e-21 0.013546 0.035 0.00721644
-1.0842e-19 0.009796 0.03625 0.00715
8.08456e-20 -0.018954 0.0325 0.0067636
-1.0842e-19 -0.010204 0.03625 0.00686341
8.08456e-20 0.003546 0.0375 0.00704916
5.84013e-20 -0.013954 0.035 0.00681902
0 -0.032704 0.01875 0.00662766
3.28979e-21 -0.003954 0.0375 0.00694266
-1.0842e-19 -0.037704 0.00116943 0.00658236
4.31606e-20 -0.036454 0.00994629 0.00659419
-1.0842e-19 0.037296 0.00608215 0.00780897
-2.1684e-19 -0.035204 0.0137433 0.00660505