# pMean  POINT_DATA 32307
# x  y  z  pMean
-1.68069e-08 -2.1684e-19 0 0.00711866
0.00104601 2.71051e-20 0 0.00710733
-0.00104603 -1.0842e-19 0 0.00712966
0.00145397 2.71051e-20 0 0.00710298
-0.00145399 -1.0842e-19 0 0.00713391
0.00124999 0 0.00116944 0.00710519
-0.00125001 9.03502e-21 0.00116944 0.00713182
-6.14363e-09 0 0.00233887 0.00711911
0.00249999 -2.1684e-19 0 0.00709171
-0.00250001 -2.1684e-19 0 0.00714498
-0.0025 0 0.00233887 0.00714542
0.0025 0 0.00233887 0.00709215
-0.00354602 -1.0842e-19 0 0.00715575
0.00354602 2.71051e-20 0 0.0070801
0.00125 9.03502e-21 0.00356873 0.00710598
-0.00125 9.03502e-21 0.00356873 0.0071326
-0.00375 -9.03502e-21 0.00116944 0.00715787
0.00375 -9.03502e-21 0.00116943 0.0070779
-0.00395398 0 0 0.00715991
0.00395398 2.71051e-20 0 0.00707563
-2.20276e-09 1.0842e-19 0.00479858 0.00711882
-0.00499999 -1.0842e-19 0 0.00717075
0.00500001 1.0842e-19 0 0.007064
-0.00375 9.03502e-21 0.00356873 0.00715861
0.00375 -9.03502e-21 0.00356873 0.00707866
0.0025 1.0842e-19 0.00479858 0.00709181
-0.0025 1.0842e-19 0.00479858 0.00714516
-0.005 0 0.00233887 0.00717116
0.005 0 0.00233887 0.00706445
-0.00604601 0 0 0.00718129
0.00604603 -5.42101e-20 0 0.00705202
0.00125 -1.807e-20 0.00608215 0.00710447
-0.00125 -9.03502e-21 0.00608215 0.00713119
-0.00625 -9.03502e-21 0.00116943 0.00718336
0.00625001 -1.807e-20 0.00116944 0.00704976
-0.00645398 0 0 0.00718537
0.00645399 -5.42101e-20 0 0.00704741
0.005 1.0842e-19 0.00479858 0.00706409
-0.005 1.0842e-19 0.00479858 0.0071709
0.00375 2.71051e-20 0.00608215 0.00707707
-0.00375 -1.807e-20 0.00608215 0.00715726
0.00625 0 0.00356873 0.00705056
-0.00625 1.807e-20 0.00356873 0.00718405
-7.43098e-10 1.0842e-19 0.00736572 0.00711665
-0.0075 0 0 0.007196
0.00750001 1.0842e-19 0 0.00703546
0.0025 1.0842e-19 0.00736572 0.00708954
-0.0025 1.0842e-19 0.00736572 0.00714309
-0.0075 1.0842e-19 0.00233887 0.00719638
0.0075 0 0.00233887 0.00703596
-0.00854601 -5.42101e-20 0 0.00720634
0.00854602 8.13152e-20 0 0.00702315
0.00625 0 0.00608215 0.00704895
-0.00625 -9.03502e-21 0.00608215 0.00718276
0.00125 2.71051e-20 0.008656 0.00710158
-0.00125 1.807e-20 0.00865601 0.00712842
-0.00875 -9.03502e-21 0.00116944 0.00720837
0.00875 -1.807e-20 0.00116944 0.00702083
0.005 1.0842e-19 0.00736572 0.00706173
-0.005 1.0842e-19 0.00736572 0.00716891
0.0075 1.0842e-19 0.00479858 0.00703562
-0.0075 1.0842e-19 0.00479858 0.00719611
0.00895399 8.13152e-20 0 0.00701842
-0.00895399 -5.42101e-20 0 0.00721034
0.00375 9.03502e-21 0.008656 0.00707405
-0.00375 -9.03502e-21 0.008656 0.00715459
0.00875 0 0.00356872 0.00702174
-0.00875 -9.03502e-21 0.00356873 0.007209
-1.99308e-10 1.0842e-19 0.00994629 0.00711293
0.00999999 1.0842e-19 0 0.00700617
-0.01 0 0 0.00722074
0.0025 1.0842e-19 0.00994629 0.00708566
-0.0025 1.0842e-19 0.00994629 0.00713953
-0.01 1.0842e-19 0.00233887 0.00722109
0.01 0 0.00233887 0.00700672
0.0075 1.0842e-19 0.00736572 0.00703318
-0.0075 1.0842e-19 0.00736572 0.00719419
0.00875 -1.807e-20 0.00608215 0.00702008
-0.00875 -9.03502e-21 0.00608215 0.00720774
-0.00625 2.71051e-20 0.008656 0.00718017
0.00625 2.71051e-20 0.008656 0.00704579
0.011046 1.0842e-19 0 0.00699355
-0.011046 -8.13152e-20 0 0.00723087
0.01 1.0842e-19 0.00479858 0.00700641
-0.01 1.0842e-19 0.00479858 0.00722082
0.005 1.0842e-19 0.00994629 0.00705769
-0.005 1.0842e-19 0.00994629 0.00716549
0.00125 -9.03502e-21 0.011217 0.00709689
-0.00125 9.03502e-21 0.011217 0.00712394
0.01125 1.807e-20 0.00116943 0.00699117
-0.01125 2.71051e-20 0.00116944 0.00723285
0.011454 1.0842e-19 0 0.00698869
-0.011454 -8.13152e-20 0 0.00723478
0.01125 0 0.00356872 0.00699216
-0.01125 -9.03502e-21 0.00356872 0.00723344
-0.00375 2.71051e-20 0.011217 0.00715031
0.00375 -9.03502e-21 0.011217 0.00706918
0.00875 9.03502e-21 0.008656 0.0070168
-0.00875 2.71051e-20 0.008656 0.00720527
0.01 1.0842e-19 0.00736572 0.00700386
-0.01 1.0842e-19 0.00736572 0.00721897
0.0075 1.0842e-19 0.00994629 0.00702898
-0.0075 1.0842e-19 0.00994629 0.00719091
-3.50387e-11 1.0842e-19 0.0124878 0.00710775
0.0125 1.0842e-19 0 0.00697611
-0.0125 0 0 0.00724497
0.0125 0 0.00233887 0.0069767
-0.0125 1.0842e-19 0.00233887 0.00724529
0.0025 1.0842e-19 0.0124878 0.00708027
-0.0025 1.0842e-19 0.0124878 0.00713457
-0.01125 2.71051e-20 0.00608215 0.00723223
0.01125 9.03502e-21 0.00608215 0.00699043
0.00625 -2.71051e-20 0.011217 0.00704074
-0.00625 2.71051e-20 0.011217 0.00717609
0.0125 1.0842e-19 0.00479858 0.00697639
-0.0125 1.0842e-19 0.00479858 0.00724501
0.005 1.0842e-19 0.0124878 0.00705209
-0.005 1.0842e-19 0.0124878 0.00716075
-0.013546 -5.42101e-20 0 0.00725488
0.013546 8.13152e-20 0 0.00696315
0.01375 4.51751e-21 0.00116944 0.0069607
-0.01375 -2.71051e-20 0.00116944 0.00725682
0.00125 9.03502e-21 0.0137433 0.00709103
-0.00125 0 0.0137433 0.0071183
0.013954 -2.71051e-20 0 0.00695815
-0.013954 -5.42101e-20 0 0.00725871
0.01 1.0842e-19 0.00994629 0.00699951
-0.01 1.0842e-19 0.00994629 0.00721582
-0.01125 2.71051e-20 0.008656 0.00722986
0.01125 0 0.00865601 0.00698702
0.01375 4.51751e-21 0.00356872 0.00696176
-0.01375 9.03502e-21 0.00356873 0.00725734
0.00875 -9.03502e-21 0.011217 0.00701155
-0.00875 -9.03502e-21 0.011217 0.00720133
0.00375 1.807e-20 0.0137433 0.00706308
-0.00375 -9.03502e-21 0.0137433 0.00714491
0.0125 1.0842e-19 0.00736572 0.00697376
-0.0125 1.0842e-19 0.00736572 0.00724324
0.0075 1.0842e-19 0.0124878 0.00702315
-0.0075 1.0842e-19 0.0124878 0.00718637
-2.91796e-12 1.0842e-19 0.0149988 0.0071014
0.015 0 0 0.0069452
-0.015 0 0 0.00726866
0.01375 1.807e-20 0.00608215 0.00695997
-0.01375 -9.03502e-21 0.00608215 0.00725619
0.00625 9.03502e-21 0.0137433 0.00703439
-0.00625 1.807e-20 0.0137433 0.00717093
0.015 1.0842e-19 0.00233887 0.00694583
-0.015 1.0842e-19 0.00233887 0.00726895
0.0025 1.0842e-19 0.0149988 0.00707366
-0.0025 1.0842e-19 0.0149988 0.00712847
0.015 1.0842e-19 0.00479858 0.00694554
-0.015 1.0842e-19 0.00479858 0.00726869
0.005 1.0842e-19 0.0149988 0.00704521
-0.005 1.0842e-19 0.0149988 0.00715491
0.01125 9.03502e-21 0.011217 0.00698158
-0.01125 -9.03502e-21 0.011217 0.00722606
0.0125 1.0842e-19 0.00994629 0.00696923
-0.0125 1.0842e-19 0.00994629 0.00724021
0.01 1.0842e-19 0.0124878 0.00699344
-0.01 1.0842e-19 0.0124878 0.00721145
-0.016046 -5.42101e-20 0 0.00727835
0.016046 -5.42101e-20 0 0.00693185
0.01375 -1.807e-20 0.008656 0.00695644
-0.01375 -1.807e-20 0.008656 0.00725392
0.01625 -1.807e-20 0.00116944 0.00692933
-0.01625 0 0.00116944 0.00728025
0.00875 -1.807e-20 0.0137433 0.00700493
-0.00875 -9.03502e-21 0.0137433 0.00719638
0.00125 0 0.0162494 0.00708393
-0.00125 0 0.0162494 0.0071115
-0.016454 -5.42101e-20 0 0.00728209
0.016454 -5.42101e-20 0 0.00692671
0.01625 -2.71051e-20 0.00356872 0.00693049
-0.01625 2.71051e-20 0.00356872 0.00728075
-0.00375 1.807e-20 0.0162494 0.00713838
0.00375 1.807e-20 0.0162494 0.0070557
0.015 1.0842e-19 0.00736572 0.00694281
-0.015 1.0842e-19 0.00736572 0.007267
0.0075 1.0842e-19 0.0149988 0.007016
-0.0075 1.0842e-19 0.0149988 0.00718076
0.01625 -9.03502e-21 0.00608215 0.00692863
-0.01625 2.71051e-20 0.00608215 0.00727967
0.00625 9.03502e-21 0.0162494 0.00702672
-0.00625 -9.03502e-21 0.0162494 0.00716465
0.0175 0 0 0.0069134
-0.0175 0 0 0.00729185
-1.02403e-14 1.0842e-19 0.0175 0.00709392
0.0175 1.0842e-19 0.00233887 0.00691408
-0.0175 1.0842e-19 0.00233887 0.00729214
0.0125 1.0842e-19 0.0124878 0.00696293
-0.0125 1.0842e-19 0.0124878 0.00723601
0.0025 1.0842e-19 0.0175 0.00706587
-0.0025 1.0842e-19 0.0175 0.0071213
0.01375 -1.807e-20 0.011217 0.00695079
-0.01375 -1.807e-20 0.011217 0.00725028
-0.01125 9.03502e-21 0.0137433 0.00722131
0.01125 -1.807e-20 0.0137433 0.0069747
0.015 1.0842e-19 0.00994629 0.00693812
-0.015 1.0842e-19 0.00994629 0.00726409
0.01 1.0842e-19 0.0149988 0.00698602
-0.01 1.0842e-19 0.0149988 0.00720607
0.0175 1.0842e-19 0.00479858 0.0069138
-0.0175 1.0842e-19 0.00479858 0.0072919
0.005 1.0842e-19 0.0175 0.0070371
-0.005 1.0842e-19 0.0175 0.00714802
0.01625 -9.03502e-21 0.008656 0.006925
-0.01625 0 0.008656 0.00727748
0.00875 -2.71051e-20 0.0162494 0.00699698
-0.00875 -1.807e-20 0.0162494 0.00719035
-0.018546 -5.42101e-20 0 0.00730137
0.018546 -5.42101e-20 0 0.00689968
-0.01875 9.03502e-21 0.00116944 0.00730323
0.01875 -3.61401e-20 0.00116944 0.00689709
0.00125 9.03502e-21 0.01875 0.00707577
-0.00125 0 0.01875 0.00710367
-0.018954 -5.42101e-20 0 0.00730505
0.018954 -5.42101e-20 0 0.00689439
0.0175 1.0842e-19 0.00736572 0.00691097
-0.0175 1.0842e-19 0.00736572 0.00729028
0.0075 1.0842e-19 0.0175 0.00700756
-0.0075 1.0842e-19 0.0175 0.00717415
-0.01875 -9.03502e-21 0.00356872 0.00730373
0.01875 -1.807e-20 0.00356872 0.00689832
-0.00375 9.03502e-21 0.01875 0.00713086
0.00375 -1.807e-20 0.01875 0.00704718
0.01375 -1.807e-20 0.0137433 0.00694364
-0.01375 -9.03502e-21 0.0137433 0.00724572
0.015 1.0842e-19 0.0124878 0.00693158
-0.015 1.0842e-19 0.0124878 0.00726006
0.0125 1.0842e-19 0.0149988 0.00695522
-0.0125 1.0842e-19 0.0149988 0.00723085
0.01875 -2.71051e-20 0.00608215 0.00689639
-0.01875 -1.807e-20 0.00608215 0.00730268
0.01625 -1.807e-20 0.011217 0.00691914
-0.01625 9.03502e-21 0.011217 0.00727398
-0.01125 -2.71051e-20 0.0162494 0.00721551
0.01125 -1.807e-20 0.0162494 0.00696646
-0.00625 -9.03502e-21 0.01875 0.00715744
0.00625 -1.807e-20 0.01875 0.00701784
-0.02 0 0 0.00731464
0.02 0 0 0.00688069
-1.02403e-14 1.0842e-19 0.02 0.00708529
0.0175 1.0842e-19 0.00994629 0.00690611
-0.0175 1.0842e-19 0.00994629 0.00728749
-0.02 1.0842e-19 0.00233887 0.00731491
0.02 1.0842e-19 0.00233887 0.0068814
0.0025 1.0842e-19 0.02 0.00705687
0.01 1.0842e-19 0.0175 0.00697724
-0.0025 1.0842e-19 0.02 0.00711301
-0.01 1.0842e-19 0.0175 0.00719972
0.02 1.0842e-19 0.00479858 0.00688112
-0.02 1.0842e-19 0.00479858 0.00731467
0.005 1.0842e-19 0.02 0.00702772
-0.005 1.0842e-19 0.02 0.00714008
0.01875 9.03502e-21 0.008656 0.00689262
-0.01875 -1.807e-20 0.008656 0.00730057
0.00875 -1.807e-20 0.01875 0.00698772
-0.00875 1.807e-20 0.01875 0.00718343
0.021046 -1.0842e-19 0 0.00686656
-0.021046 -5.42101e-20 0 0.00732399
0.015 1.0842e-19 0.0149988 0.00692357
-0.015 1.0842e-19 0.0149988 0.00725511
0.02125 -1.35525e-20 0.00116944 0.00686389
-0.02125 -3.61401e-20 0.00116944 0.00732582
0.01625 9.03502e-21 0.0137433 0.00691169
-0.01625 1.807e-20 0.0137433 0.0072696
0.01375 -9.03502e-21 0.0162494 0.00693509
-0.01375 2.71051e-20 0.0162494 0.00724015
0.00125 -1.807e-20 0.02125 0.00706631
-0.00125 -1.807e-20 0.02125 0.00709459
0.02 1.0842e-19 0.00736572 0.00687819
-0.02 1.0842e-19 0.00736572 0.00731311
0.0075 1.0842e-19 0.02 0.0069978
-0.0075 1.0842e-19 0.02 0.00716653
-0.021454 -5.42101e-20 0 0.0073276
0.021454 -5.42101e-20 0 0.0068611
0.0175 1.0842e-19 0.0124878 0.00689931
-0.0175 1.0842e-19 0.0124878 0.00728362
0.0125 1.0842e-19 0.0175 0.00694611
-0.0125 1.0842e-19 0.0175 0.00722476
0.02125 -1.807e-20 0.00356873 0.00686518
-0.02125 2.71051e-20 0.00356873 0.00732626
-0.00375 -1.807e-20 0.02125 0.00712216
0.00375 -1.807e-20 0.02125 0.00703734
0.01875 -1.807e-20 0.011217 0.00688652
-0.01875 9.03502e-21 0.011217 0.00729723
-0.01125 1.807e-20 0.01875 0.00720888
0.01125 1.807e-20 0.01875 0.00695681
0.02125 2.71051e-20 0.00608215 0.00686316
-0.02125 1.807e-20 0.00608215 0.00732526
0.00625 2.71051e-20 0.02125 0.00700761
-0.00625 -9.03502e-21 0.02125 0.00714909
0.02 1.0842e-19 0.00994629 0.00687314
-0.02 1.0842e-19 0.00994629 0.00731042
0.01 1.0842e-19 0.02 0.00696707
-0.01 1.0842e-19 0.02 0.00719241
-0.0225 0 0 0.00733701
0.0225 -1.0842e-19 0 0.00684693
-1.02402e-14 1.0842e-19 0.0225 0.00707542
-0.0225 1.0842e-19 0.00233887 0.00733725
0.0225 1.0842e-19 0.00233887 0.0068477
0.0025 1.0842e-19 0.0225 0.0070466
-0.0025 1.0842e-19 0.0225 0.00710354
0.02125 9.03502e-21 0.008656 0.00685928
-0.02125 9.03502e-21 0.008656 0.00732322
0.01625 0 0.0162494 0.00690283
-0.01625 9.03502e-21 0.0162494 0.00726428
0.00875 9.03502e-21 0.02125 0.00697707
-0.00875 2.71051e-20 0.02125 0.00717542
0.0225 1.0842e-19 0.00479858 0.00684743
-0.0225 1.0842e-19 0.00479858 0.007337
0.0175 1.0842e-19 0.0149988 0.006891
-0.0175 1.0842e-19 0.0149988 0.00727886
0.005 1.0842e-19 0.0225 0.00701703
-0.005 1.0842e-19 0.0225 0.00713098
0.015 1.0842e-19 0.0175 0.0069141
-0.015 1.0842e-19 0.0175 0.00724926
0.01875 -1.807e-20 0.0137433 0.00687881
-0.01875 9.03502e-21 0.0137433 0.00729302
0.01375 1.807e-20 0.01875 0.00692504
-0.01375 9.03502e-21 0.01875 0.00723379
0.023546 -5.42101e-20 0 0.00683233
-0.023546 -5.42101e-20 0 0.00734618
0.02 1.0842e-19 0.0124878 0.00686609
-0.02 1.0842e-19 0.0124878 0.00730671
0.0125 1.0842e-19 0.02 0.00693551
-0.0125 1.0842e-19 0.02 0.00721774
0.0225 1.0842e-19 0.00736572 0.0068444
-0.0225 1.0842e-19 0.00736572 0.0073355
0.0075 1.0842e-19 0.0225 0.00698669
-0.0075 1.0842e-19 0.0225 0.0071578
-0.02375 -1.807e-20 0.00116944 0.00734797
0.02375 -4.51751e-21 0.00116944 0.00682957
0.00125 1.807e-20 0.02375 0.00705564
-0.00125 -9.03502e-21 0.02375 0.00708434
-0.023954 -5.42101e-20 0 0.00734972
0.023954 -1.0842e-19 0 0.00682669
-0.02375 -9.03502e-21 0.00356872 0.00734836
0.02375 -9.03502e-21 0.00356873 0.006831
0.02125 -1.807e-20 0.011217 0.00685294
-0.02125 9.03502e-21 0.011217 0.00732001
0.01125 -1.807e-20 0.02125 0.00694569
-0.01125 -1.807e-20 0.02125 0.00720119
0.00375 9.03502e-21 0.02375 0.00702624
-0.00375 -1.807e-20 0.02375 0.00711231
-0.02375 -9.03502e-21 0.00608215 0.00734741
0.02375 -9.03502e-21 0.00608215 0.00682892
-0.00625 2.71051e-20 0.02375 0.00713965
0.00625 9.03502e-21 0.02375 0.00699609
0.0225 1.0842e-19 0.00994629 0.00683917
-0.0225 1.0842e-19 0.00994629 0.00733292
0.01 1.0842e-19 0.0225 0.00695553
-0.01 1.0842e-19 0.0225 0.00718404
0.0175 1.0842e-19 0.0175 0.00688116
-0.0175 1.0842e-19 0.0175 0.00727326
-0.01875 1.807e-20 0.0162494 0.0072879
0.01875 2.71051e-20 0.0162494 0.0068696
0.01625 2.71051e-20 0.01875 0.00689238
-0.01625 9.03502e-21 0.01875 0.00725817
0.02 1.0842e-19 0.0149988 0.00685747
-0.02 1.0842e-19 0.0149988 0.00730214
0.015 1.0842e-19 0.02 0.00690307
-0.015 1.0842e-19 0.02 0.00724253
-0.025 0 0 0.00735892
0.025 0 0 0.00681208
-1.02403e-14 1.0842e-19 0.025 0.0070645
-0.025 1.0842e-19 0.00233887 0.00735915
0.025 1.0842e-19 0.00233887 0.00681292
0.0025 1.0842e-19 0.025 0.00703525
-0.0025 1.0842e-19 0.025 0.00709304
-0.02375 0 0.008656 0.00734546
0.02375 9.03502e-21 0.008656 0.00682489
0.02125 -1.807e-20 0.0137433 0.00684496
-0.02125 -1.807e-20 0.0137433 0.00731596
0.01375 0 0.02125 0.00691347
-0.00875 1.807e-20 0.02375 0.00716635
-0.01375 -1.807e-20 0.02125 0.00722641
0.00875 2.71051e-20 0.02375 0.00696512
0.025 1.0842e-19 0.00479858 0.00681269
-0.025 1.0842e-19 0.00479858 0.00735891
0.005 1.0842e-19 0.025 0.00700524
-0.005 1.0842e-19 0.025 0.0071209
0.0225 1.0842e-19 0.0124878 0.00683186
-0.0225 1.0842e-19 0.0124878 0.00732935
0.0125 1.0842e-19 0.0225 0.00692352
-0.0125 1.0842e-19 0.0225 0.00720971
0.026046 -5.42101e-20 0 0.00679702
-0.026046 -5.42101e-20 0 0.00736789
0.025 1.0842e-19 0.00736572 0.00680956
-0.025 1.0842e-19 0.00736572 0.00735748
0.0075 1.0842e-19 0.025 0.00697445
-0.0075 1.0842e-19 0.025 0.00714812
-0.02375 2.71051e-20 0.011217 0.00734236
0.02375 -1.807e-20 0.011217 0.00681832
-0.02625 0 0.00116944 0.00736965
0.02625 0 0.00116944 0.00679418
0.00125 -9.03502e-21 0.02625 0.00704406
0.01125 1.807e-20 0.02375 0.00693333
-0.01125 2.71051e-20 0.02375 0.00719249
-0.00125 9.03502e-21 0.02625 0.00707319
0.026454 -5.42101e-20 0 0.00679121
-0.026454 -5.42101e-20 0 0.00737136
-0.02625 -1.807e-20 0.00356872 0.00737005
0.02625 -9.03502e-21 0.00356873 0.00679572
-0.01875 -1.807e-20 0.01875 0.00728203
0.00375 -9.03502e-21 0.02625 0.00701422
-0.00375 2.71051e-20 0.02625 0.0071016
0.01875 1.807e-20 0.01875 0.00685875
0.0175 1.0842e-19 0.02 0.0068697
0.02 1.0842e-19 0.0175 0.00684724
-0.02 1.0842e-19 0.0175 0.00729676
-0.0175 1.0842e-19 0.02 0.0072668
0.02125 9.03502e-21 0.0162494 0.00683536
-0.02125 2.71051e-20 0.0162494 0.00731105
0.01625 9.03502e-21 0.02125 0.00688034
-0.01625 0 0.02125 0.0072511
0.025 1.0842e-19 0.00994629 0.00680414
-0.025 1.0842e-19 0.00994629 0.007355
0.01 1.0842e-19 0.025 0.00694284
-0.01 1.0842e-19 0.025 0.00717473
0.02625 0 0.00608215 0.0067936
-0.02625 -1.807e-20 0.00608215 0.00736914
0.00625 0 0.02625 0.0069836
-0.00625 2.71051e-20 0.02625 0.00712935
0.0225 1.0842e-19 0.0149988 0.00682291
-0.0225 1.0842e-19 0.0149988 0.00732496
0.015 1.0842e-19 0.0225 0.00689063
-0.015 1.0842e-19 0.0225 0.00723483
0.02375 0 0.0137433 0.00681004
-0.02375 0 0.0137433 0.00733846
0.01375 -9.03502e-21 0.02375 0.00690065
-0.01375 2.71051e-20 0.02375 0.00721806
-0.0275 0 0 0.0073804
0.0275 0 0 0.00677612
-1.02404e-14 1.0842e-19 0.0275 0.00705271
-0.0275 1.0842e-19 0.00233887 0.00738063
0.0275 1.0842e-19 0.00233887 0.00677702
0.0025 1.0842e-19 0.0275 0.00702299
-0.0025 1.0842e-19 0.0275 0.0070817
0.02625 9.03502e-21 0.008656 0.00678943
-0.02625 9.03502e-21 0.008656 0.00736727
-0.00875 1.807e-20 0.02625 0.00715646
0.00875 9.03502e-21 0.02625 0.00695216
0.0275 1.0842e-19 0.00479858 0.00677683
-0.0275 1.0842e-19 0.00479858 0.00738042
0.025 1.0842e-19 0.0124878 0.00679656
-0.025 1.0842e-19 0.0124878 0.00735157
0.0125 1.0842e-19 0.025 0.00691036
0.005 1.0842e-19 0.0275 0.00699252
-0.005 1.0842e-19 0.0275 0.00711
-0.0125 1.0842e-19 0.025 0.00720077
0.02 1.0842e-19 0.02 0.00683534
-0.02 1.0842e-19 0.02 0.00729057
0.01875 0 0.02125 0.00684625
0.02125 2.71051e-20 0.01875 0.00682412
-0.01875 -1.807e-20 0.02125 0.00727526
-0.02125 1.807e-20 0.01875 0.00730542
0.0275 1.0842e-19 0.00736572 0.0067736
-0.0275 1.0842e-19 0.00736572 0.00737904
0.0175 1.0842e-19 0.0225 0.00685679
0.0225 1.0842e-19 0.0175 0.00681229
-0.0175 1.0842e-19 0.0225 0.00725942
-0.0225 1.0842e-19 0.0175 0.0073198
0.0075 1.0842e-19 0.0275 0.00696124
-0.0075 1.0842e-19 0.0275 0.00713764
0.028546 -1.0842e-19 0 0.00676058
-0.028546 -5.42101e-20 0 0.00738922
0.02625 -9.03502e-21 0.011217 0.0067826
-0.02625 -1.807e-20 0.011217 0.0073643
0.01125 -9.03502e-21 0.02625 0.00691987
-0.01125 -1.807e-20 0.02625 0.00718297
0.02875 -4.51751e-21 0.00116944 0.00675765
-0.02875 -3.61401e-20 0.00116944 0.00739095
0.02375 -1.807e-20 0.0162494 0.00680009
-0.02375 0 0.0162494 0.00733375
0.00125 2.71051e-20 0.02875 0.0070316
-0.01625 1.807e-20 0.02375 0.00724308
0.01625 1.807e-20 0.02375 0.00686706
-0.00125 9.03502e-21 0.02875 0.00706122
-0.028954 -5.42101e-20 0 0.00739263
0.028954 -5.42101e-20 0 0.00675457
-0.02875 -1.807e-20 0.00356872 0.00739134
0.02875 -1.807e-20 0.00356873 0.00675932
0.00375 -2.71051e-20 0.02875 0.00700128
-0.00375 1.807e-20 0.02875 0.00709009
0.025 1.0842e-19 0.0149988 0.00678727
-0.025 1.0842e-19 0.0149988 0.00734735
0.015 1.0842e-19 0.025 0.00687698
-0.015 1.0842e-19 0.025 0.00722625
0.0275 1.0842e-19 0.00994629 0.00676798
-0.0275 1.0842e-19 0.00994629 0.00737667
0.01 1.0842e-19 0.0275 0.00692913
-0.01 1.0842e-19 0.0275 0.00716466
0.02875 9.03502e-21 0.00608215 0.00675712
-0.02875 -1.807e-20 0.00608215 0.00739047
0.00625 -1.807e-20 0.02875 0.00697017
-0.00625 -9.03502e-21 0.02875 0.00711829
-0.02625 9.03502e-21 0.0137433 0.00736056
0.02625 -9.03502e-21 0.0137433 0.00677402
0.01375 1.807e-20 0.02625 0.00688669
-0.01375 1.807e-20 0.02625 0.00720891
-0.03 0 0 0.00740153
0.03 -1.0842e-19 0 0.00673899
-1.02402e-14 1.0842e-19 0.03 0.0070401
0.02875 -1.807e-20 0.008656 0.00675278
-0.02875 0 0.008656 0.00738868
-0.00875 0 0.02875 0.00714583
0.02125 1.807e-20 0.02125 0.00681113
-0.02125 -1.807e-20 0.02125 0.00729893
0.00875 -1.807e-20 0.02875 0.00693823
-0.03 1.0842e-19 0.00233887 0.00740175
0.03 1.0842e-19 0.00233887 0.00673995
0.02 1.0842e-19 0.0225 0.00682195
0.0225 1.0842e-19 0.02 0.00679994
0.0025 1.0842e-19 0.03 0.00700989
-0.0025 1.0842e-19 0.03 0.00706958
-0.02 1.0842e-19 0.0225 0.00728349
-0.0225 1.0842e-19 0.02 0.00731386
0.0275 1.0842e-19 0.0124878 0.00676012
-0.0275 1.0842e-19 0.0124878 0.00737338
0.0125 1.0842e-19 0.0275 0.00689615
-0.0125 1.0842e-19 0.0275 0.00719108
0.01875 9.03502e-21 0.02375 0.00683249
0.02375 -1.807e-20 0.01875 0.00678841
-0.02375 -1.807e-20 0.01875 0.00732834
-0.01875 -9.03502e-21 0.02375 0.00726757
0.03 1.0842e-19 0.00479858 0.00673977
-0.03 1.0842e-19 0.00479858 0.00740153
0.005 1.0842e-19 0.03 0.00697892
-0.005 1.0842e-19 0.03 0.00709835
0.025 1.0842e-19 0.0175 0.00677625
0.0175 1.0842e-19 0.025 0.00684265
-0.0175 1.0842e-19 0.025 0.00725118
-0.025 1.0842e-19 0.0175 0.00734239
0.02875 2.71051e-20 0.011217 0.00674573
-0.02875 -9.03502e-21 0.011217 0.00738583
0.02625 -9.03502e-21 0.0162494 0.00676369
-0.02625 2.71051e-20 0.0162494 0.00735604
-0.01625 -1.807e-20 0.02625 0.00723429
0.01125 -1.807e-20 0.02875 0.00690544
-0.01125 -9.03502e-21 0.02875 0.00717275
0.01625 0 0.02625 0.00685259
0.03 1.0842e-19 0.00736572 0.00673642
-0.03 1.0842e-19 0.00736572 0.0074002
0.0075 1.0842e-19 0.03 0.00694714
-0.0075 1.0842e-19 0.03 0.00712643
0.031046 2.71051e-20 0 0.00672293
-0.031046 -5.42101e-20 0 0.00741022
-0.03125 -1.807e-20 0.00116944 0.00741192
0.03125 9.03502e-21 0.00116944 0.0067199
0.00125 9.03502e-21 0.03125 0.00701838
-0.00125 -9.03502e-21 0.03125 0.00704848
0.0275 1.0842e-19 0.0149988 0.00675049
-0.0275 1.0842e-19 0.0149988 0.00736934
0.015 1.0842e-19 0.0275 0.00686224
-0.015 1.0842e-19 0.0275 0.00721694
0.03125 -1.807e-20 0.00356872 0.00672166
-0.03125 -9.03502e-21 0.00356873 0.00741228
-0.031454 -5.42101e-20 0 0.00741358
0.031454 2.71051e-20 0 0.00671671
-0.00375 9.03502e-21 0.03125 0.00707785
0.00375 9.03502e-21 0.03125 0.00698755
0.03 1.0842e-19 0.00994629 0.0067306
-0.03 1.0842e-19 0.00994629 0.00739792
0.01 1.0842e-19 0.03 0.00691451
-0.01 1.0842e-19 0.03 0.00715388
0.0225 1.0842e-19 0.0225 0.00678606
-0.0225 1.0842e-19 0.0225 0.00730708
0.03125 -9.03502e-21 0.00608215 0.00671937
-0.03125 -9.03502e-21 0.00608215 0.00741138
-0.02875 -1.807e-20 0.0137433 0.00738224
0.02875 -1.807e-20 0.0137433 0.00673683
0.00625 2.71051e-20 0.03125 0.00695591
0.01375 -9.03502e-21 0.02875 0.00687172
-0.01375 9.03502e-21 0.02875 0.00719908
0.02125 9.03502e-21 0.02375 0.00679688
0.02375 2.71051e-20 0.02125 0.00677495
-0.00625 1.807e-20 0.03125 0.0071065
-0.02125 9.03502e-21 0.02375 0.00729158
-0.02375 0 0.02125 0.00732212
0.02 1.0842e-19 0.025 0.00680731
0.025 1.0842e-19 0.02 0.00676344
-0.02 1.0842e-19 0.025 0.00727559
-0.025 1.0842e-19 0.02 0.0073367
0.01875 2.71051e-20 0.02625 0.00681749
0.02625 -1.807e-20 0.01875 0.00675156
-0.01875 2.71051e-20 0.02625 0.00725913
-0.02625 1.807e-20 0.01875 0.00735084
-0.03125 2.71051e-20 0.008656 0.00740966
0.03125 -9.03502e-21 0.00865601 0.00671489
0.00875 1.807e-20 0.03125 0.00692345
-0.00875 1.807e-20 0.03125 0.00713449
0.03 1.0842e-19 0.0124878 0.00672246
-0.03 1.0842e-19 0.0124878 0.00739477
0.0125 1.0842e-19 0.03 0.00688099
-0.0125 1.0842e-19 0.03 0.00718072
-0.0325 0 0 0.0074223
0.0325 -1.0842e-19 0 0.00670058
-1.02402e-14 1.0842e-19 0.0325 0.00702677
-0.0325 1.0842e-19 0.00233887 0.0074225
0.0325 1.0842e-19 0.00233887 0.00670158
0.0025 1.0842e-19 0.0325 0.00699605
-0.0025 1.0842e-19 0.0325 0.00705675
0.0275 1.0842e-19 0.0175 0.00673905
0.0175 1.0842e-19 0.0275 0.00682738
-0.0175 1.0842e-19 0.0275 0.00724223
-0.0275 1.0842e-19 0.0175 0.00736457
0.0325 1.0842e-19 0.00479858 0.0067014
-0.0325 1.0842e-19 0.00479858 0.00742226
0.005 1.0842e-19 0.0325 0.00696456
-0.005 1.0842e-19 0.0325 0.007086
0.02875 -2.71051e-20 0.0162494 0.00672611
-0.02875 2.71051e-20 0.0162494 0.00737791
0.01625 9.03502e-21 0.02875 0.00683707
-0.01625 9.03502e-21 0.02875 0.00722485
0.03125 9.03502e-21 0.011217 0.00670757
-0.03125 9.03502e-21 0.011217 0.00740692
0.01125 1.807e-20 0.03125 0.00689009
-0.01125 1.807e-20 0.03125 0.00716186
0.0325 1.0842e-19 0.00736572 0.00669794
-0.0325 1.0842e-19 0.00736572 0.00742097
0.0075 1.0842e-19 0.0325 0.00693224
-0.0075 1.0842e-19 0.0325 0.00711456
0.03 1.0842e-19 0.0149988 0.00671248
-0.03 1.0842e-19 0.0149988 0.0073909
0.015 1.0842e-19 0.03 0.00684653
-0.015 1.0842e-19 0.03 0.00720698
0.033546 -1.35525e-19 0 0.00668395
-0.033546 -5.42101e-20 0 0.00743083
-0.02375 9.03502e-21 0.02375 0.00731509
0.02375 2.71051e-20 0.02375 0.00676019
0.0225 1.0842e-19 0.025 0.00677091
0.025 1.0842e-19 0.0225 0.00674907
-0.0225 1.0842e-19 0.025 0.0072995
-0.025 1.0842e-19 0.0225 0.00733021
0.03375 -9.03502e-21 0.00116943 0.00668081
-0.03375 9.03502e-21 0.00116944 0.00743248
0.00125 -9.03502e-21 0.03375 0.00700446
0.02125 -1.807e-20 0.02625 0.00678137
0.02625 1.807e-20 0.02125 0.00673763
-0.02125 0 0.02625 0.00728347
-0.02625 1.807e-20 0.02125 0.00734489
-0.00125 0 0.03375 0.00703507
-0.03375 -1.807e-20 0.00356872 0.00743281
0.03375 9.03502e-21 0.00356873 0.00668262
-0.033954 -5.42101e-20 0 0.00743411
0.033954 -1.35525e-19 0 0.00667749
-0.00375 1.807e-20 0.03375 0.00706494
0.00375 9.03502e-21 0.03375 0.0069731
0.0325 1.0842e-19 0.00994629 0.00669193
-0.0325 1.0842e-19 0.00994629 0.00741877
0.02 1.0842e-19 0.0275 0.0067915
0.0275 1.0842e-19 0.02 0.00672578
0.01 1.0842e-19 0.0325 0.00689906
-0.01 1.0842e-19 0.0325 0.00714246
-0.02 1.0842e-19 0.0275 0.00726699
-0.0275 1.0842e-19 0.02 0.00735911
0.03125 -1.807e-20 0.0137433 0.00669837
-0.03125 -1.807e-20 0.0137433 0.00740351
-0.01375 9.03502e-21 0.03125 0.00718861
0.01375 -1.807e-20 0.03125 0.00685583
0.03375 -9.03502e-21 0.00608215 0.00668026
-0.03375 -9.03502e-21 0.00608215 0.00743193
0.00625 9.03502e-21 0.03375 0.00694094
0.01875 -1.807e-20 0.02875 0.00680143
-0.01875 1.807e-20 0.02875 0.00725006
0.02875 1.807e-20 0.01875 0.00671354
-0.02875 -1.807e-20 0.01875 0.00737292
-0.00625 2.71051e-20 0.03375 0.00709409
0.03 1.0842e-19 0.0175 0.00670062
0.0175 1.0842e-19 0.03 0.00681111
-0.0175 1.0842e-19 0.03 0.00723267
-0.03 1.0842e-19 0.0175 0.00738633
0.0325 1.0842e-19 0.0124878 0.00668351
-0.0325 1.0842e-19 0.0124878 0.00741575
0.0125 1.0842e-19 0.0325 0.00686497
-0.0125 1.0842e-19 0.0325 0.00716974
0.03375 -9.03502e-21 0.008656 0.00667566
-0.03375 -9.03502e-21 0.008656 0.00743028
0.00875 0 0.03375 0.0069079
-0.00875 -1.807e-20 0.03375 0.00712254
0.035 -1.0842e-19 0 0.00666069
-0.035 0 0 0.00744261
-1.02402e-14 1.0842e-19 0.035 0.0070128
0.035 1.0842e-19 0.00233887 0.00666176
-0.035 1.0842e-19 0.00233887 0.00744281
0.0025 1.0842e-19 0.035 0.00698154
-0.0025 1.0842e-19 0.035 0.0070433
0.03125 9.03502e-21 0.0162494 0.00668726
-0.03125 -1.807e-20 0.0162494 0.00739936
0.01625 1.807e-20 0.03125 0.00682062
-0.01625 1.807e-20 0.03125 0.0072148
0.035 1.0842e-19 0.00479858 0.00666161
-0.035 1.0842e-19 0.00479858 0.00744259
0.025 1.0842e-19 0.025 0.00673338
0.005 1.0842e-19 0.035 0.0069495
-0.005 1.0842e-19 0.035 0.00707307
-0.025 1.0842e-19 0.025 0.00732294
-0.02375 9.03502e-21 0.02625 0.00730729
0.02375 2.71051e-20 0.02625 0.00674414
0.02625 9.03502e-21 0.02375 0.00672235
-0.02625 -9.03502e-21 0.02375 0.00733815
0.0225 1.0842e-19 0.0275 0.00675454
0.0275 1.0842e-19 0.0225 0.0067109
-0.0225 1.0842e-19 0.0275 0.00729124
-0.0275 1.0842e-19 0.0225 0.0073529
0.03375 -2.71051e-20 0.011217 0.00666809
-0.03375 -2.71051e-20 0.011217 0.00742763
0.01125 1.807e-20 0.03375 0.00687398
-0.01125 2.71051e-20 0.03375 0.00715037
0.02125 9.03502e-21 0.02875 0.00676472
0.02875 1.807e-20 0.02125 0.00669911
-0.02125 0 0.02875 0.00727474
-0.02875 0 0.02125 0.00736721
0.035 1.0842e-19 0.00736572 0.00665806
-0.035 1.0842e-19 0.00736572 0.00744134
0.0325 1.0842e-19 0.0149988 0.00667317
-0.0325 1.0842e-19 0.0149988 0.00741204
0.015 1.0842e-19 0.0325 0.00682994
-0.015 1.0842e-19 0.0325 0.00719642
0.0075 1.0842e-19 0.035 0.00691663
-0.0075 1.0842e-19 0.035 0.00710211
0.036046 -1.6263e-19 0 0.00664338
-0.036046 -8.13152e-20 0 0.00745093
0.02 1.0842e-19 0.03 0.00677466
0.03 1.0842e-19 0.02 0.00668687
-0.02 1.0842e-19 0.03 0.00725781
-0.03 1.0842e-19 0.02 0.00738109
0.03625 9.03502e-21 0.00116943 0.0066401
-0.03625 -1.807e-20 0.00116944 0.00745256
0.00125 1.807e-20 0.03625 0.00698991
-0.00125 -9.03502e-21 0.03625 0.00702108
0.035 1.0842e-19 0.00994629 0.00665186
-0.035 1.0842e-19 0.00994629 0.00743923
0.01 1.0842e-19 0.035 0.00688287
-0.01 1.0842e-19 0.035 0.0071305
0.03625 9.03502e-21 0.00356872 0.00664208
-0.03625 -9.03502e-21 0.00356872 0.00745291
0.03375 -1.807e-20 0.0137433 0.00665858
-0.03375 -1.807e-20 0.0137433 0.00742437
0.03125 9.03502e-21 0.01875 0.00667423
0.01875 2.71051e-20 0.03125 0.00678441
-0.01875 9.03502e-21 0.03125 0.00724041
-0.03125 9.03502e-21 0.01875 0.00739457
0.01375 -9.03502e-21 0.03375 0.00683914
-0.01375 -9.03502e-21 0.03375 0.00717756
0.00375 1.807e-20 0.03625 0.00695799
-0.00375 -1.807e-20 0.03625 0.00705148
-0.036454 -8.13152e-20 0 0.00745415
0.036454 -1.6263e-19 0 0.00663665
0.03625 2.71051e-20 0.00608215 0.00663969
-0.03625 -1.807e-20 0.00608215 0.00745208
-0.00625 -1.807e-20 0.03625 0.00708113
0.00625 1.807e-20 0.03625 0.00692526
0.0325 1.0842e-19 0.0175 0.00666087
0.0175 1.0842e-19 0.0325 0.00679392
-0.0175 1.0842e-19 0.0325 0.00722253
-0.0325 1.0842e-19 0.0175 0.00740767
0.02625 1.807e-20 0.02625 0.00670575
-0.02625 1.807e-20 0.02625 0.00733067
0.035 1.0842e-19 0.0124878 0.00664316
-0.035 1.0842e-19 0.0124878 0.00743634
0.0125 1.0842e-19 0.035 0.00684821
-0.0125 1.0842e-19 0.035 0.00715824
0.025 1.0842e-19 0.0275 0.00671646
0.0275 1.0842e-19 0.025 0.00669467
-0.025 1.0842e-19 0.0275 0.00731501
-0.0275 1.0842e-19 0.025 0.00734592
0.03625 -1.807e-20 0.00865601 0.00663498
-0.03625 -9.03502e-21 0.008656 0.00745051
-0.00875 2.71051e-20 0.03625 0.00711009
-0.02375 -9.03502e-21 0.02875 0.00729892
0.02375 9.03502e-21 0.02875 0.00672693
0.02875 1.807e-20 0.02375 0.0066833
-0.02875 -1.807e-20 0.02375 0.00736076
0.00875 -9.03502e-21 0.03625 0.00689167
-0.03375 -1.807e-20 0.0162494 0.00742038
0.03375 -1.807e-20 0.0162494 0.00664705
0.01625 -2.71051e-20 0.03375 0.00680331
-0.01625 1.807e-20 0.03375 0.00720417
-0.0375 0 0 0.00746253
0.0225 1.0842e-19 0.03 0.00673712
0.03 1.0842e-19 0.0225 0.00667148
-1.02404e-14 1.0842e-19 0.0375 0.00699831
-0.0225 1.0842e-19 0.03 0.00728242
-0.03 1.0842e-19 0.0225 0.00737514
0.0375 -1.0842e-19 0 0.00661921
0.0375 1.0842e-19 0.00233887 0.00662037
-0.0375 1.0842e-19 0.00233887 0.00746273
0.0025 1.0842e-19 0.0375 0.0069665
-0.0025 1.0842e-19 0.0375 0.00702936
0.03125 2.71051e-20 0.02125 0.00665933
-0.03125 -1.807e-20 0.02125 0.00738912