# UMean  POINT_DATA 43565
# x  y  z  UMean_x  UMean_y  UMean_z
-3.30872e-24 0.00104604 1.58372e-08 5.48755e-07 -2.2475e-07 1.40656e-09
-2.1684e-19 -0.000203985 0.00116944 0.0640105 -0.0258035 0.000156759
0 -0.00145396 1.55656e-08 5.44155e-07 -2.18953e-07 1.31989e-09
1.16872e-19 0.001046 0.00233888 0.0800524 -0.0286718 0.000314341
0 0.00229601 0.00116944 0.0634425 -0.0260276 0.000164103
5.08501e-20 -0.00145398 0.00233888 0.0805871 -0.0284166 0.000299586
-2.1684e-19 -0.00270399 0.00116943 0.0645591 -0.0255754 0.00014959
0 0.00354601 1.54868e-08 5.31655e-07 -2.21673e-07 1.43965e-09
1.0842e-19 -0.000203995 0.00356872 0.0968991 -0.0313302 0.000459292
0 -0.00395397 1.47352e-08 5.19523e-07 -2.05403e-07 1.19259e-09
-1.0842e-19 0.002296 0.00356873 0.0963799 -0.0316143 0.000482139
1.08543e-19 0.00354599 0.00233888 0.0794993 -0.0289242 0.000329711
-1.0842e-19 -0.002704 0.00356872 0.0974014 -0.0310447 0.000437389
5.16864e-20 -0.00395401 0.00233888 0.0811041 -0.0281588 0.000285479
-6.13913e-20 0.001046 0.00479858 0.104166 -0.0315851 0.00061547
1.0842e-19 0.004796 0.00116944 0.0628547 -0.0262473 0.000171745
-2.65624e-20 -0.001454 0.00479858 0.104655 -0.0313081 0.000586381
-1.0842e-19 -0.005204 0.00116943 0.065089 -0.0253436 0.000142777
-8.79827e-20 0.003546 0.00479858 0.103662 -0.0318607 0.000645993
1.0842e-19 0.004796 0.00356872 0.0958434 -0.0318968 0.000506035
-1.65436e-24 0.006046 1.32897e-08 4.51829e-07 -1.91818e-07 1.29281e-09
0 -0.000204 0.00608215 0.112039 -0.0315656 0.000743828
4.1359e-25 -0.003954 0.00479858 0.10513 -0.0310295 0.000558777
1.0842e-19 -0.005204 0.00356872 0.0978881 -0.0307578 0.000416619
0 -0.006454 1.30614e-08 4.64271e-07 -1.80388e-07 1.00821e-09
9.109e-20 0.00604599 0.00233888 0.0789276 -0.0291734 0.000345833
0 0.002296 0.00608215 0.111565 -0.0318336 0.000780805
1.0842e-19 -0.002704 0.00608215 0.1125 -0.0312953 0.000709008
8.32574e-20 -0.006454 0.00233887 0.0816041 -0.0278985 0.000271999
0 0.007296 0.00116943 0.0622468 -0.0264624 0.000179695
-4.87021e-20 0.001046 0.00736572 0.116667 -0.0313681 0.000885114
-3.61046e-20 -0.001454 0.00736572 0.11712 -0.0311076 0.000843781
-6.41696e-20 0.006046 0.00479858 0.103142 -0.0321347 0.000678043
-1.0842e-19 0.004796 0.00608215 0.111077 -0.0321013 0.000819383
0 -0.00770401 0.00116943 0.0656001 -0.0251086 0.000136058
0 -0.005204 0.00608215 0.112949 -0.031024 0.0006759
6.12058e-20 -0.006454 0.00479858 0.105592 -0.0307496 0.000532408
2.1684e-19 0.007296 0.00356872 0.0952895 -0.0321775 0.000531303
7.27234e-20 0.003546 0.00736572 0.116201 -0.0316269 0.000928631
0 -0.003954 0.00736572 0.117562 -0.0308457 0.000804542
1.0842e-19 -0.007704 0.00356872 0.0983598 -0.0304698 0.000396787
-1.65436e-24 0.00854602 1.01674e-08 3.42192e-07 -1.47945e-07 1.03466e-09
0 -0.000204 0.008656 0.121763 -0.0309108 0.000984106
3.0506e-20 0.008546 0.00233887 0.0783366 -0.0294194 0.00036271
0 -0.00895401 1.13402e-08 4.06241e-07 -1.55136e-07 8.33936e-10
1.0842e-19 0.002296 0.00865601 0.121319 -0.0311613 0.00103216
2.1684e-19 -0.002704 0.00865601 0.122198 -0.0306578 0.000938607
-1.73753e-20 -0.00895401 0.00233887 0.0820881 -0.0276362 0.000259114
0 0.007296 0.00608215 0.110576 -0.032366 0.000860059
-6.27586e-20 0.006046 0.00736572 0.115723 -0.0318843 0.000974265
5.05862e-21 -0.006454 0.00736572 0.117993 -0.0305825 0.000766993
-6.09576e-20 0.008546 0.00479858 0.102606 -0.0324068 0.00071177
-1.0842e-19 -0.007704 0.00608215 0.113387 -0.0307509 0.000643961
0 0.009796 0.00116944 0.0616177 -0.0266727 0.000187912
0 0.004796 0.008656 0.120863 -0.0314105 0.00108264
-4.63851e-20 0.001046 0.00994629 0.125106 -0.0306192 0.00111687
9.72651e-21 -0.001454 0.00994629 0.125535 -0.0303749 0.00106528
1.0842e-19 -0.005204 0.00865601 0.122621 -0.0304047 0.000895059
-3.28411e-21 -0.008954 0.00479858 0.10604 -0.0304685 0.000507272
0 -0.010204 0.00116944 0.0660938 -0.0248707 0.000129674
-2.1684e-19 0.009796 0.00356872 0.0947176 -0.0324562 0.000557657
6.11923e-20 0.003546 0.00994629 0.124668 -0.0308617 0.00117113
8.14903e-20 -0.003954 0.00994629 0.125952 -0.0301289 0.00101608
0 -0.010204 0.00356873 0.0988186 -0.0301805 0.000377978
0 0.011046 8.1473e-09 2.71315e-07 -1.19483e-07 8.67181e-10
-1.0842e-19 -0.000204 0.011217 0.128864 -0.0300868 0.00119619
-6.65281e-21 0.008546 0.00736572 0.115232 -0.0321398 0.00102216
6.9075e-20 0.011046 0.00233887 0.0777259 -0.0296618 0.000380331
-1.0842e-19 0.007296 0.008656 0.120393 -0.0316584 0.00113547
0 0.002296 0.011217 0.128442 -0.0303225 0.0012539
0 -0.011454 1.00102e-08 3.61279e-07 -1.35618e-07 7.01561e-10
-1.0842e-19 0.009796 0.00608215 0.11006 -0.0326303 0.000902899
0 -0.002704 0.011217 0.129276 -0.0298485 0.00114115
0 -0.007704 0.00865601 0.123032 -0.0301496 0.00085344
-1.16074e-19 -0.008954 0.00736572 0.118412 -0.0303177 0.000731241
1.03364e-19 0.006046 0.00994629 0.124219 -0.0311025 0.001228
4.90187e-21 -0.011454 0.00233887 0.0825567 -0.027372 0.00024698
5.32412e-20 -0.006454 0.00994629 0.126359 -0.0298816 0.000969232
1.0842e-19 -0.010204 0.00608215 0.113812 -0.030477 0.000613827
1.04358e-19 0.011046 0.00479858 0.102054 -0.032677 0.000747057
2.1684e-19 0.004796 0.011217 0.128011 -0.0305571 0.00131464
-2.1684e-19 0.012296 0.00116944 0.0609671 -0.0268777 0.000196558
2.1684e-19 -0.005204 0.011217 0.129677 -0.0296089 0.00108848
-4.15844e-20 -0.011454 0.00479858 0.106476 -0.0301865 0.000483611
-4.95486e-20 0.001046 0.0124878 0.131473 -0.0297876 0.00132023
1.82458e-20 -0.001454 0.0124878 0.131881 -0.0295563 0.0012599
0 -0.012704 0.00116943 0.0665703 -0.0246301 0.000123682
0 0.012296 0.00356873 0.094127 -0.0327331 0.000585219
-2.41021e-20 0.003546 0.0124878 0.131056 -0.0300168 0.00138363
0 0.009796 0.008656 0.119914 -0.0319032 0.00119073
-9.53899e-20 -0.003954 0.0124878 0.132279 -0.0293231 0.00120225
-2.58494e-26 0.008546 0.00994629 0.123758 -0.0313411 0.00128743
0 -0.012704 0.00356872 0.0992635 -0.0298909 0.000360438
-5.16988e-26 0.011046 0.00736572 0.114728 -0.0323929 0.00107236
1.0842e-19 -0.010204 0.008656 0.123435 -0.0298923 0.000814106
0 0.007296 0.011217 0.12757 -0.0307888 0.00137801
1.03448e-19 -0.008954 0.00994629 0.126756 -0.0296323 0.000924769
8.27181e-25 0.013546 6.90219e-09 2.27322e-07 -1.01993e-07 7.68699e-10
0 -0.007704 0.011217 0.13007 -0.0293674 0.00103896
7.6245e-20 -0.011454 0.00736572 0.11882 -0.0300517 0.000697412
0 0.012296 0.00608215 0.109532 -0.032891 0.00094753
0 -0.000204 0.0137433 0.134484 -0.0292601 0.00138214
-1.43847e-21 0.013546 0.00233887 0.0770952 -0.0299006 0.000398789
6.23766e-20 0.006046 0.0124878 0.130629 -0.030244 0.0014501
0 0.002296 0.0137433 0.13408 -0.0294843 0.00144791
0 -0.013954 8.61294e-09 3.13079e-07 -1.15537e-07 5.76651e-10
-1.0842e-19 -0.002704 0.0137433 0.134878 -0.0290333 0.0013194
5.10456e-20 -0.006454 0.0124878 0.132668 -0.0290883 0.00114732
-1.0842e-19 -0.012704 0.00608215 0.114226 -0.0302023 0.000585507
-2.34615e-20 -0.013954 0.00233887 0.0830102 -0.027106 0.000235684
9.32818e-20 0.013546 0.00479858 0.101486 -0.0329451 0.000783931
0 0.004796 0.0137433 0.133668 -0.0297069 0.00151726
-1.0842e-19 -0.005204 0.0137433 0.135264 -0.0288051 0.00125925
0 -0.013954 0.00479858 0.106899 -0.0299036 0.000461263
3.25261e-19 0.014796 0.00116944 0.0602951 -0.0270775 0.000205701
-1.29247e-26 0.011046 0.00994629 0.123286 -0.0315773 0.0013497
0 0.009796 0.011217 0.127116 -0.0310189 0.00144421
-1.90307e-20 0.001046 0.0149988 0.136669 -0.0289709 0.00150268
-1.0842e-19 0.012296 0.008656 0.119423 -0.0321457 0.00124883
1.04505e-19 -0.001454 0.0149988 0.137061 -0.0287505 0.00143463
-1.06374e-19 0.008546 0.0124878 0.130191 -0.0304689 0.00151948
1.0842e-19 -0.010204 0.011217 0.130453 -0.0291239 0.000991623
-5.3168e-20 -0.011454 0.00994629 0.127143 -0.0293815 0.00088236
0 0.014796 0.00356872 0.0935185 -0.0330076 0.000614004
1.0842e-19 -0.015204 0.00116943 0.0670302 -0.0243867 0.000118365
7.23021e-20 -0.008954 0.0124878 0.133048 -0.0288517 0.00109506
0 -0.012704 0.008656 0.123825 -0.0296342 0.000776562
-8.82354e-21 0.003546 0.0149988 0.136268 -0.0291893 0.00157416
0 0.013546 0.00736572 0.114211 -0.0326438 0.00112503
-8.20398e-20 -0.003954 0.0149988 0.137445 -0.0285281 0.00136967
1.0842e-19 0.007296 0.0137433 0.133245 -0.0299269 0.00158965
-1.0842e-19 -0.015204 0.00356872 0.0996957 -0.0295996 0.000343922
0 0.0148798 0.00479858 0.101173 -0.0330871 0.000804529
0 0.0138282 0.00736572 0.114151 -0.0326719 0.00113125
-1.0842e-19 -0.007704 0.0137433 0.135641 -0.0285751 0.00120192
-3.23117e-27 -0.013954 0.00736572 0.119216 -0.0297846 0.000665219
1.29247e-26 -0.0152493 0.00479858 0.107111 -0.0297566 0.000450252
1.0842e-19 0.014796 0.00608215 0.108987 -0.033151 0.0009943
8.27181e-25 0.016046 5.10446e-09 1.61734e-07 -7.38946e-08 5.77399e-10
-3.23117e-27 -0.0143632 0.00736572 0.119279 -0.0297406 0.000660235
1.20733e-19 0.006046 0.0149988 0.135857 -0.0294054 0.00164901
2.58494e-26 0.016046 0.00233887 0.0764447 -0.0301356 0.000418054
-1.0842e-19 -0.000204 0.0162494 0.139249 -0.0284629 0.00155342
8.74269e-20 -0.006454 0.0149988 0.137819 -0.028304 0.00130761
-2.06795e-25 0.0162013 0.00233887 0.0764029 -0.0301499 0.000419287
0 -0.015204 0.00608215 0.114626 -0.0299263 0.000558337
-2.58494e-26 0.016046 0.00331439 0.0861438 -0.0313554 0.000578472
0 0.002296 0.0162494 0.138858 -0.0286775 0.00162702
0 0.013546 0.00927608 0.120571 -0.0320274 0.00133983
0 -0.016454 7.35239e-09 2.69094e-07 -9.76345e-08 4.7105e-10
-1.0842e-19 -0.002704 0.0162494 0.13963 -0.0282466 0.00148336
0 0.0132413 0.00994629 0.122861 -0.0317827 0.00140721
2.66092e-20 -0.016454 0.00233887 0.083448 -0.0268383 0.000225001
1.0842e-19 0.012296 0.011217 0.126652 -0.0312463 0.00151369
3.79047e-20 0.011046 0.0124878 0.129743 -0.0306914 0.00159206
0 0.016046 0.00479858 0.1009 -0.0332112 0.000822537
1.61559e-27 0.013546 0.00994629 0.122803 -0.0318112 0.00141519
0 0.0168588 0 0 0 0
0 0.009796 0.0137433 0.132812 -0.0301445 0.00166517
0 0.004796 0.0162494 0.138459 -0.0288898 0.00170423
-1.44746e-19 -0.011454 0.0124878 0.133418 -0.0286137 0.00104525
1.0842e-19 -0.012704 0.011217 0.130825 -0.0288796 0.00094624
-2.58494e-26 -0.016454 0.00425899 0.102074 -0.0290096 0.000392843
0 -0.005204 0.0162494 0.140001 -0.0280285 0.00141647
0 -0.010204 0.0137433 0.136008 -0.0283438 0.0011471
4.40724e-20 -0.013954 0.00994629 0.12752 -0.0291294 0.000841894
-2.58494e-26 -0.016454 0.00479858 0.107308 -0.0296198 0.00044001
2.1684e-19 0.014796 0.008656 0.11892 -0.0323862 0.00131
-4.03897e-27 -0.0140935 0.00994629 0.12754 -0.0291152 0.000839762
5.34705e-20 0.008546 0.0149988 0.135437 -0.029619 0.00172715
-1.0842e-19 0.017296 0.00116943 0.0596017 -0.0272718 0.000215029
1.0958e-20 -0.008954 0.0149988 0.138185 -0.0280781 0.00124842
1.0842e-19 -0.015204 0.008656 0.124204 -0.0293744 0.000740806
-1.91606e-20 0.001046 0.0175 0.141163 -0.0281879 0.00167303
8.08399e-20 -0.001454 0.0175 0.141543 -0.0279769 0.00159763
8.60369e-21 0.016046 0.00736572 0.11368 -0.0328927 0.00118017
-1.0842e-19 0.017296 0.00356872 0.0928914 -0.0332801 0.000644131
0 -0.017704 0.00116943 0.0674742 -0.0241408 0.000113201
-1.0842e-19 0.007296 0.0162494 0.138051 -0.0290992 0.00178466
8.08393e-20 0.003546 0.0175 0.140774 -0.0283967 0.00175191
-1.91544e-20 -0.003954 0.0175 0.141914 -0.027764 0.0015258
1.0842e-19 -0.007704 0.0162494 0.140364 -0.0278085 0.00135261
0 0.0129674 0.0124878 0.12939 -0.0308605 0.00165062
-2.58494e-26 -0.016454 0.00736572 0.1196 -0.0295163 0.000634769
-1.0842e-19 -0.017704 0.00356873 0.100111 -0.0293085 0.000328015
-1.0842e-19 0.017296 0.00608215 0.108428 -0.033408 0.0010433
8.07794e-28 0.013546 0.0124878 0.129284 -0.0309114 0.00166826
-1.0842e-19 0.012296 0.0137433 0.132368 -0.0303594 0.00174424
1.42061e-19 0.006046 0.0175 0.140376 -0.028603 0.00183424
-1.65436e-24 0.018546 1.05965e-08 3.32917e-07 -1.52523e-07 1.21278e-09
1.0842e-19 0.014796 0.011217 0.126177 -0.0314712 0.00158683
-2.01948e-28 0.011046 0.0149988 0.135006 -0.0298301 0.00180898
0 -0.013954 0.0123475 0.133433 -0.0284156 0.000989335
-1.9158e-20 -0.006454 0.0175 0.142277 -0.0275492 0.00145738
0 -0.0139078 0.0124878 0.133772 -0.0283783 0.000998826
0 0.018546 0.00233887 0.0757734 -0.0303666 0.000437893
-1.0842e-19 -0.012704 0.0137433 0.136365 -0.0281106 0.00109542
0 -0.017704 0.00608215 0.115013 -0.0296496 0.000532773
0 -0.013954 0.0124878 0.133778 -0.0283739 0.000997951
0 -0.000204 0.01875 0.143462 -0.0277031 0.00171545
0 -0.011454 0.0149988 0.138541 -0.0278504 0.00119223
-6.6779e-20 0.016046 0.00994629 0.122307 -0.0320426 0.00148385
1.0842e-19 0.002296 0.01875 0.143083 -0.0279085 0.00179619
0 -0.015204 0.011217 0.131187 -0.0286332 0.000903096
0 -0.002704 0.01875 0.143833 -0.0274953 0.00163826
0 -0.018954 6.98088e-09 2.57177e-07 -9.17491e-08 4.27286e-10
-1.0842e-19 0.009796 0.0162494 0.137633 -0.0293064 0.00186885
1.93152e-20 -0.018954 0.00233887 0.0838703 -0.0265692 0.000214659
-2.06795e-25 0.018546 0.00479858 0.100298 -0.0334752 0.000862862
-2.1684e-19 -0.010204 0.0162494 0.14072 -0.0275863 0.00129188
6.46235e-27 -0.016454 0.00994629 0.127886 -0.0288758 0.000803689
0 -0.018954 0.00379254 0.0979556 -0.0282038 0.000335912
0 0.017296 0.00865601 0.118403 -0.0326242 0.00137365
1.0842e-19 0.004796 0.01875 0.142695 -0.0281113 0.00188019
0 -0.005204 0.01875 0.144195 -0.0272859 0.00156511
8.084e-20 0.008546 0.0175 0.139969 -0.0288068 0.00192041
5.16988e-26 -0.018954 0.00479858 0.107704 -0.0293352 0.000419827
1.58401e-19 -0.008954 0.0175 0.142632 -0.0273325 0.00139217
-1.0842e-19 -0.017704 0.00865601 0.124572 -0.0291138 0.000707482
0 0.0128206 0.0149988 0.134693 -0.0299783 0.00186988
-1.0842e-19 0.019796 0.00116944 0.0588862 -0.0274602 0.000224228
-4.83916e-20 0.018546 0.00736572 0.113134 -0.0331393 0.00123791
-1.91544e-20 0.001046 0.02 0.14519 -0.0274414 0.00183425
8.08456e-20 -0.001454 0.02 0.14556 -0.0272391 0.00175239
0 0.019796 0.00356872 0.0922437 -0.0335503 0.00067517
-1.0842e-19 0.007296 0.01875 0.142298 -0.028312 0.00196788
1.0842e-19 0.014796 0.0137433 0.131915 -0.0305723 0.00182731
0 0.013546 0.0149988 0.134565 -0.0300389 0.00189477
-1.0842e-19 -0.020204 0.00116943 0.067902 -0.0238929 0.000108028
-1.0842e-19 -0.007704 0.01875 0.144549 -0.0270742 0.00149531
1.26218e-29 -0.0136771 0.0149988 0.138851 -0.0276464 0.00114488
5.84013e-20 0.003546 0.02 0.144813 -0.0276411 0.00191969
0 0.016046 0.0124878 0.128814 -0.0311288 0.00174829
-2.58494e-26 -0.018954 0.00736572 0.119973 -0.0292469 0.000606121
0 0.012296 0.0162494 0.137204 -0.0295114 0.00195739
-1.91544e-20 -0.003954 0.02 0.14592 -0.0270346 0.00167428
-1.26218e-29 -0.013954 0.0149988 0.138889 -0.027621 0.00113898
1.0842e-19 -0.015204 0.0137433 0.136714 -0.0278754 0.00104645
0 -0.020204 0.00356872 0.100513 -0.0290163 0.000312722
-1.0842e-19 0.017296 0.011217 0.125692 -0.0316934 0.00166344
0 -0.012704 0.0162494 0.141067 -0.0273622 0.00123435
0 -0.016454 0.0124878 0.13413 -0.0281325 0.000953076
-1.9158e-20 0.011046 0.0175 0.139552 -0.0290084 0.00201087
1.0842e-19 0.019796 0.00608215 0.107852 -0.033664 0.00109471
-1.91544e-20 0.006046 0.02 0.144427 -0.0278383 0.00200902
5.84007e-20 -0.011454 0.0175 0.142978 -0.0271139 0.00133015
-1.0842e-19 -0.017704 0.011217 0.131541 -0.0283857 0.000862536
-1.91544e-20 -0.006454 0.02 0.146273 -0.0268282 0.00159989
-2.58494e-26 0.018546 0.00994629 0.121799 -0.0322714 0.00155572
0 0.021046 1.24254e-08 3.96659e-07 -1.8504e-07 1.52238e-09
-1.0842e-19 -0.020204 0.00608215 0.115391 -0.0293713 0.000508674
1.0842e-19 0.009796 0.01875 0.141892 -0.0285099 0.00206025
0 0.021046 0.00233888 0.0750809 -0.0305934 0.000458424
0 -0.000204 0.02125 0.147292 -0.0269787 0.00186944
0 -0.010204 0.01875 0.144895 -0.0268611 0.00142888
1.0842e-19 0.002296 0.02125 0.146925 -0.0271754 0.00195593
-1.29247e-26 -0.018954 0.00994629 0.128242 -0.0286212 0.000767785
1.0842e-19 -0.002704 0.02125 0.147652 -0.0267794 0.00178642
0 -0.021454 7.94194e-09 2.94422e-07 -1.03289e-07 4.64253e-10
1.27918e-19 -0.021454 0.00233887 0.0842781 -0.0262989 0.00020477
2.06795e-25 0.021046 0.00479858 0.099677 -0.0337371 0.000904994
1.0842e-19 0.019796 0.008656 0.117873 -0.0328594 0.00144056
8.08456e-20 0.008546 0.02 0.144033 -0.0280331 0.00210268
0 0.004796 0.02125 0.14655 -0.0273692 0.00204646
0 -0.005204 0.02125 0.148003 -0.026578 0.00170734
-1.91544e-20 -0.008954 0.02 0.146618 -0.0266198 0.00152888
0 -0.021454 0.00459418 0.106109 -0.0288214 0.000384374
2.01948e-28 0.016046 0.0149988 0.134114 -0.030245 0.00198462
0 0.014796 0.0162494 0.136766 -0.0297137 0.00204986
0 -0.020204 0.008656 0.124931 -0.0288518 0.000675865
-2.58494e-26 -0.021454 0.00479858 0.108088 -0.02905 0.000400652
-3.9443e-29 0.013546 0.017442 0.13902 -0.0292266 0.00210051
0 0.017296 0.0137433 0.131452 -0.0307818 0.00191456
8.08476e-20 0.013546 0.0175 0.139125 -0.0292074 0.0021054
-4.73317e-30 -0.013954 0.0172412 0.142858 -0.0269689 0.00125734
-1.0842e-19 -0.015204 0.0162494 0.141405 -0.0271369 0.00117952
0 -0.016454 0.0149988 0.139229 -0.0273901 0.00108819
-3.79057e-20 0.021046 0.00736572 0.112574 -0.0333838 0.00129844
-1.0842e-19 0.022296 0.00116944 0.0581482 -0.0276423 0.000233775
0 0.018546 0.0124878 0.128334 -0.0313435 0.00183224
5.84013e-20 -0.013954 0.0175 0.143316 -0.0268936 0.001271
0 -0.017704 0.0137433 0.137055 -0.0276387 0.000999645
0 0.012296 0.01875 0.141477 -0.0287061 0.00215696
1.0842e-19 0.007296 0.02125 0.146167 -0.0275608 0.00214154
8.08456e-20 0.001046 0.0225 0.148892 -0.0267282 0.00198645
8.08456e-20 -0.001454 0.0225 0.149248 -0.0265347 0.00189905
0 0.022296 0.00356873 0.0915759 -0.033818 0.000707864
0 -0.007704 0.02125 0.148347 -0.0263748 0.0016318
-1.0842e-19 -0.012704 0.01875 0.145232 -0.0266461 0.00136549
0 -0.021454 0.00736572 0.120337 -0.0289768 0.000578953
0 -0.018954 0.0124878 0.134473 -0.02789 0.000910662
0 -0.022704 0.00116943 0.0683131 -0.0236433 0.000103293
-1.29247e-26 -0.0222244 0.00479858 0.108203 -0.028962 0.000395084
0 0.019796 0.011217 0.125193 -0.0319134 0.00174367
5.84013e-20 0.003546 0.0225 0.148528 -0.0269192 0.00207772
8.08456e-20 -0.003954 0.0225 0.149597 -0.0263387 0.0018154
1.58401e-19 0.011046 0.02 0.14363 -0.0282254 0.00220069
0 -0.022704 0.00356872 0.100903 -0.028724 0.000298209
1.58401e-19 -0.011454 0.02 0.146955 -0.0264096 0.00146122
1.0842e-19 -0.020204 0.011217 0.131885 -0.0281371 0.000824458
0 0.022296 0.00608215 0.107261 -0.0339176 0.00114839
0 0.021046 0.00994629 0.121279 -0.0324978 0.00163095
-1.91544e-20 0.006046 0.0225 0.148156 -0.0271077 0.00217338
-1.0842e-19 0.009796 0.02125 0.145776 -0.02775 0.00224104
-1.91544e-20 -0.006454 0.0225 0.149938 -0.0261406 0.00173553
0 -0.022704 0.00608215 0.115758 -0.0290936 0.000485755
0 0.023546 1.31505e-08 4.14543e-07 -1.97104e-07 1.67782e-09
0 -0.010204 0.02125 0.148683 -0.026169 0.00155956
0 -0.021454 0.00994629 0.128589 -0.0283658 0.00073373
0 0.023546 0.00233888 0.0743663 -0.0308157 0.000479599
1.57772e-30 0.016046 0.0174837 0.13866 -0.0294089 0.00220267
0 0.017296 0.0162494 0.136319 -0.0299132 0.00214644
0 0.016046 0.0175 0.13869 -0.0294035 0.0022041
0 -0.000204 0.02375 0.150852 -0.0262856 0.00201429
4.03897e-28 0.018546 0.0149988 0.133654 -0.0304483 0.00207885
1.0842e-19 0.002296 0.02375 0.150499 -0.0264732 0.00210614
0 0.014796 0.01875 0.141054 -0.0288986 0.00225735
0 -0.002704 0.02375 0.151197 -0.0260952 0.00192606
0 0.022296 0.00865601 0.117329 -0.0330928 0.00151072
-1.65436e-24 -0.023954 9.6474e-09 3.59793e-07 -1.24136e-07 5.3934e-10
-5.83757e-29 -0.016454 0.0174745 0.1436 -0.0266794 0.0012133
0 -0.016454 0.0175 0.143645 -0.0266721 0.00121459
0 0.023546 0.00479858 0.0990375 -0.0339967 0.000949
-1.0842e-19 -0.017704 0.0162494 0.141734 -0.0269104 0.00112698
-1.36562e-19 -0.023954 0.00233887 0.0846716 -0.0260276 0.00019555
8.08456e-20 0.008546 0.0225 0.147777 -0.0272937 0.00227349
-1.0842e-19 0.019796 0.0137433 0.130978 -0.0309889 0.00200625
1.0842e-19 -0.015204 0.01875 0.14556 -0.0264295 0.00130462
-1.91544e-20 0.013546 0.02 0.143219 -0.0284149 0.00230282
0 -0.018954 0.0149988 0.13956 -0.027158 0.00103988
-1.91544e-20 -0.008954 0.0225 0.150271 -0.0259405 0.00165921
0 0.004796 0.02375 0.150139 -0.026659 0.00220236
1.0842e-19 -0.022704 0.008656 0.125282 -0.0285897 0.000645812
-1.0842e-19 -0.005204 0.02375 0.151535 -0.0259024 0.00184177
-1.91544e-20 -0.013954 0.02 0.147284 -0.0261978 0.00139666
5.56351e-20 -0.023954 0.00479858 0.108461 -0.0287645 0.000382583
-2.1684e-19 -0.020204 0.0137433 0.137387 -0.0274014 0.000955458
0 0.021046 0.0124878 0.127843 -0.0315556 0.00191995
-1.0842e-19 0.012296 0.02125 0.145377 -0.0279358 0.00234453
1.03398e-25 0.023546 0.00736572 0.111999 -0.0336262 0.00136179
0 -0.012704 0.02125 0.149012 -0.0259621 0.00149096
1.0842e-19 0.024796 0.00116944 0.057387 -0.0278178 0.000242915
0 -0.021454 0.0124878 0.134806 -0.0276467 0.000870454
0 -0.023954 0.00654325 0.116773 -0.028725 0.000498542
1.0842e-19 0.007296 0.02375 0.149771 -0.026842 0.00230315
1.0842e-19 0.022296 0.011217 0.124684 -0.0321306 0.00182723
-1.0842e-19 -0.007704 0.02375 0.151866 -0.0257074 0.00176123
-1.91544e-20 0.001046 0.025 0.15236 -0.0260442 0.00212802
8.08456e-20 -0.001454 0.025 0.152702 -0.0258595 0.00203555
0 0.024796 0.00356872 0.0908857 -0.0340833 0.000741563
0 -0.023954 0.00736572 0.120691 -0.0287063 0.000553207
1.58401e-19 0.011046 0.0225 0.147391 -0.0274767 0.00237796
2.1684e-19 -0.025204 0.00116944 0.0687086 -0.023392 9.87759e-05
1.58401e-19 -0.011454 0.0225 0.150598 -0.0257383 0.00158639
-1.91544e-20 0.003546 0.025 0.152011 -0.0262266 0.00222472
8.08456e-20 -0.003954 0.025 0.153036 -0.0256724 0.0019471
-2.1684e-19 -0.022704 0.011217 0.132221 -0.0278881 0.000788022
0 -0.025204 0.00356872 0.10128 -0.0284314 0.000284948
3.31322e-29 0.018546 0.0174888 0.138225 -0.0296006 0.00230646
0 0.018546 0.0175 0.138246 -0.0295968 0.00230748
0 0.017296 0.01875 0.140622 -0.0290885 0.0023627
1.0842e-19 0.024796 0.00608215 0.106653 -0.0341693 0.00120466
0 0.023546 0.00994629 0.120747 -0.0327218 0.00170954
1.0842e-19 0.019796 0.0162494 0.135861 -0.0301102 0.00224782
8.08456e-20 0.016046 0.02 0.1428 -0.0286016 0.00240948
-1.0842e-19 0.009796 0.02375 0.149397 -0.027022 0.00240822
-1.91544e-20 0.006046 0.025 0.151655 -0.0264065 0.00232592
9.15079e-29 -0.018954 0.017485 0.14394 -0.0264532 0.00116038
-1.0842e-19 -0.017704 0.01875 0.145881 -0.0262117 0.00124722
8.08456e-20 -0.018954 0.0175 0.143966 -0.026449 0.0011611
8.08456e-20 -0.006454 0.025 0.153364 -0.0254828 0.00186253
0 0.021046 0.0149988 0.133183 -0.0306487 0.00217738
0 -0.010204 0.02375 0.15219 -0.0255106 0.00168428
-1.0842e-19 0.014796 0.02125 0.144969 -0.0281192 0.00245243
8.08456e-20 -0.016454 0.02 0.147605 -0.0259845 0.00133525
0 -0.025204 0.00608215 0.116118 -0.0288144 0.000464049
0 -0.020204 0.0162494 0.142056 -0.0266824 0.00107725
8.92812e-20 -0.023954 0.00994629 0.128928 -0.0281096 0.000701388
1.65436e-24 0.026046 1.21855e-08 3.79096e-07 -1.83771e-07 1.61613e-09
-1.0842e-19 -0.015204 0.02125 0.149333 -0.0257537 0.00142559
7.01011e-20 0.026046 0.00233887 0.0736284 -0.0310332 0.000501399
4.03897e-28 -0.021454 0.0149988 0.139882 -0.026925 0.00099416
0 0.022296 0.0137433 0.130494 -0.0311933 0.00210156
0 -0.000204 0.02625 0.154214 -0.0256193 0.00214727
-1.91544e-20 0.013546 0.0225 0.146996 -0.0276567 0.00248693
0 0.024796 0.008656 0.116772 -0.0333236 0.00158405
0 0.002296 0.02625 0.153876 -0.0257987 0.00224439
1.0842e-19 -0.002704 0.02625 0.154545 -0.025438 0.00205457
-1.91544e-20 0.008546 0.025 0.151292 -0.0265835 0.00243154
0 -0.026454 1.02881e-08 3.85886e-07 -1.30946e-07 5.51459e-10
8.08456e-20 -0.013954 0.0225 0.150917 -0.0255346 0.00151707
1.33585e-19 0.026046 0.00479858 0.0983775 -0.0342541 0.000994936
0 -0.022704 0.0137433 0.13771 -0.0271632 0.000913353
8.08456e-20 -0.008954 0.025 0.153684 -0.025291 0.00178172
-6.2436e-20 -0.026454 0.00233887 0.085051 -0.0257554 0.000187233
2.1684e-19 -0.025204 0.008656 0.125624 -0.0283267 0.000617496
0 0.023546 0.0124878 0.127341 -0.0317652 0.00201135
-1.0842e-19 0.004796 0.02625 0.153531 -0.0259754 0.00234602
0 0.012296 0.02375 0.149015 -0.027199 0.00251805
0 -0.005204 0.02625 0.154868 -0.025254 0.00196599
-9.43353e-20 -0.026454 0.00479858 0.108824 -0.0284786 0.000365974
-1.0842e-19 -0.012704 0.02375 0.152508 -0.0253117 0.00161077
0 -0.023954 0.0124878 0.135132 -0.0274024 0.000832188
0 0.026046 0.00736572 0.111409 -0.0338666 0.00142804
0 0.024796 0.011217 0.124164 -0.032345 0.00191447
-1.0842e-19 0.007296 0.02625 0.153179 -0.0261495 0.00245214
0 0.019796 0.01875 0.14018 -0.0292755 0.00247291
-1.57772e-30 0.018546 0.02 0.142372 -0.0287854 0.00252108
-2.1684e-19 0.027296 0.00116944 0.0566015 -0.027986 0.000252436
-1.91544e-20 0.011046 0.025 0.150922 -0.0267576 0.0025417
1.29247e-26 -0.026454 0.00694427 0.119032 -0.0284421 0.000502275
0 -0.007704 0.02625 0.155185 -0.0250675 0.00188115
0 0.021046 0.0174904 0.137774 -0.0297904 0.00241454
0 0.021046 0.0175 0.137792 -0.0297871 0.00241545
-1.0842e-19 0.017296 0.02125 0.144554 -0.0283002 0.00256545
-1.29247e-26 -0.026454 0.00736572 0.121037 -0.0284349 0.000529046
1.58401e-19 -0.011454 0.025 0.153998 -0.0250972 0.00170455
1.58401e-19 0.001046 0.0275 0.155647 -0.0253875 0.00225816
0 0.027296 0.00356872 0.0901719 -0.0343457 0.000776804
1.58401e-19 -0.001454 0.0275 0.155974 -0.0252112 0.00216094
8.08456e-20 -0.018954 0.02 0.147918 -0.0257695 0.00127704
-1.0842e-19 -0.020204 0.01875 0.146194 -0.0259915 0.00119294
0 -0.025204 0.011217 0.132549 -0.0276376 0.000753493
0 0.022296 0.0162494 0.135395 -0.0303034 0.00235355
8.08456e-20 0.016046 0.0225 0.146594 -0.0278341 0.0026007
0 -0.017704 0.02125 0.149646 -0.025543 0.00136359
1.51461e-28 -0.021454 0.0174873 0.144258 -0.0262283 0.00110994
0 -0.021454 0.0175 0.14428 -0.0262247 0.00111053
1.58401e-19 0.003546 0.0275 0.155313 -0.0255613 0.00235977
-1.0842e-19 -0.027704 0.00116943 0.0690887 -0.0231389 9.48565e-05
-9.67102e-20 -0.003954 0.0275 0.156294 -0.0250326 0.00206818
3.28979e-21 -0.016454 0.0225 0.151229 -0.0253289 0.00145112
0 0.026046 0.00994629 0.120202 -0.0329433 0.00179171
0 0.023546 0.0149988 0.132703 -0.0308463 0.00228002
-1.0842e-19 -0.022704 0.0162494 0.142369 -0.0264538 0.00103041
-2.1684e-19 -0.027704 0.00356872 0.101645 -0.028139 0.000273246
-2.1684e-19 0.027296 0.00608215 0.106027 -0.0344192 0.00126353
0 0.014796 0.02375 0.148625 -0.027373 0.00263272
-1.0842e-19 0.009796 0.02625 0.152821 -0.0263206 0.00256266
-1.91544e-20 0.006046 0.0275 0.154973 -0.0257323 0.00246592
1.0842e-19 -0.010204 0.02625 0.155496 -0.0248787 0.00180025
0 -0.015204 0.02375 0.152818 -0.025111 0.00154098
3.28979e-21 -0.006454 0.0275 0.156607 -0.0248514 0.0019796
-1.29247e-26 -0.026454 0.00994629 0.129259 -0.0278526 0.000670819
0 -0.023954 0.0149988 0.140197 -0.0266907 0.000950743
-1.0842e-19 0.024796 0.0137433 0.129998 -0.0313957 0.00220098
0 -0.027704 0.00608215 0.116466 -0.0285352 0.000444166
1.58401e-19 0.013546 0.025 0.150544 -0.0269286 0.00265672
-1.65436e-24 0.028546 9.91191e-09 3.04141e-07 -1.50362e-07 1.36604e-09
1.58401e-19 -0.013954 0.025 0.154305 -0.0249013 0.00163096
1.0842e-19 0.027296 0.00865601 0.116201 -0.0335528 0.00166062
9.75076e-20 0.028546 0.00233887 0.0728662 -0.0312455 0.000524148
0 -0.025204 0.0137433 0.138025 -0.0269235 0.000873384
0 -0.000204 0.02875 0.157411 -0.0249806 0.00226965
-1.91544e-20 0.008546 0.0275 0.154625 -0.0259003 0.00257664
0 0.002296 0.02875 0.157088 -0.0251515 0.00237131
-1.0842e-19 -0.002704 0.02875 0.157727 -0.0248069 0.00217229
-3.23117e-27 0.026046 0.0124878 0.126827 -0.031972 0.00210692
-1.91544e-20 -0.008954 0.0275 0.156914 -0.0246679 0.00189493
-8.8438e-20 0.028546 0.00479858 0.0976972 -0.0345089 0.00104298
1.65436e-24 -0.028954 9.37348e-09 3.53506e-07 -1.17991e-07 4.8401e-10
0 0.012296 0.02625 0.152455 -0.0264888 0.00267789
0 -0.027704 0.008656 0.125958 -0.0280626 0.000590746
1.58401e-19 0.021046 0.02 0.141936 -0.0289659 0.00263735
1.0842e-19 0.019796 0.02125 0.144132 -0.0284775 0.00268328
-3.26281e-20 -0.028954 0.00233887 0.0854174 -0.0254822 0.00017975
-1.0842e-19 0.022296 0.01875 0.139731 -0.0294592 0.0025875
-1.0842e-19 0.004796 0.02875 0.156759 -0.0253197 0.00247736
-1.91544e-20 0.018546 0.0225 0.146184 -0.0280084 0.00271941
0 -0.012704 0.02625 0.155799 -0.0246877 0.0017229
1.0842e-19 -0.005204 0.02875 0.158036 -0.0246314 0.00207988
3.23117e-27 -0.026454 0.0124878 0.13545 -0.0271572 0.000795963
0 -0.020204 0.02125 0.149953 -0.0253317 0.00130443
8.08456e-20 -0.021454 0.02 0.148224 -0.0255534 0.00122173
1.10441e-29 0.023546 0.0174904 0.137312 -0.0299774 0.00252704
-1.9149e-20 0.023546 0.0175 0.137329 -0.029974 0.00252799
-1.64808e-19 -0.028954 0.00479858 0.109175 -0.0281927 0.000350746
0 0.017296 0.02375 0.148227 -0.0275442 0.00275219
-1.91544e-20 -0.018954 0.0225 0.151534 -0.0251219 0.00138829
0 -0.022704 0.01875 0.146499 -0.0257713 0.00114149
-5.16988e-26 0.028546 0.00736572 0.110802 -0.0341046 0.00149721
0 0.027296 0.011217 0.123632 -0.0325567 0.00200589
1.0842e-19 -0.017704 0.02375 0.153122 -0.024908 0.00147435
5.84013e-20 0.011046 0.0275 0.154271 -0.0260653 0.00269202
-1.0842e-19 0.024796 0.0162494 0.134919 -0.0304941 0.00246365
0 -0.023954 0.0174875 0.144564 -0.0260028 0.00106187
-1.0842e-19 0.007296 0.02875 0.156423 -0.0254847 0.00258817
0 -0.023954 0.0175 0.144586 -0.0259993 0.00106243
-1.29247e-26 -0.028954 0.00659417 0.117706 -0.0281722 0.000459739
1.58401e-19 0.016046 0.025 0.150159 -0.0270965 0.00277675
-1.0842e-19 -0.007704 0.02875 0.158339 -0.0244529 0.00199141
-1.91544e-20 -0.011454 0.0275 0.157214 -0.0244821 0.00181394
2.1684e-19 0.029796 0.00116944 0.0557906 -0.0281467 0.000262151
-1.29247e-26 -0.028954 0.00736572 0.121372 -0.0281633 0.000506572
-1.0842e-19 -0.027704 0.011217 0.132869 -0.0273869 0.00072084
-1.91544e-20 -0.016454 0.025 0.154606 -0.0247037 0.0015608
-1.0842e-19 -0.025204 0.0162494 0.142676 -0.026223 0.000985669
-1.0842e-19 0.029796 0.00356872 0.0894346 -0.0346051 0.000813743
8.08456e-20 0.001046 0.03 0.158769 -0.0247583 0.00237665
8.08456e-20 -0.001454 0.03 0.159081 -0.0245903 0.00227528
0 0.026046 0.0149988 0.132212 -0.0310414 0.00238711
0 0.014796 0.02625 0.152082 -0.0266535 0.00279824
-1.91544e-20 0.003546 0.03 0.15845 -0.0249234 0.00248241
0 -0.030204 0.00116943 0.0694538 -0.0228842 9.14954e-05
1.29247e-26 0.028546 0.00994629 0.119644 -0.0331622 0.00187744