# Probe 0 (-1 0.395 0)
# Probe 1 (1 0.395 0)
#       Probe             0             1
#        Time
  0.000600024        541.81       566.222
   0.00123689       541.773       566.226
   0.00156543       541.863       566.218
   0.00187576       541.857       566.229
   0.00221796       541.837        566.23
   0.00259984       541.828       566.229
   0.00302895       541.824       566.228
   0.00351443       541.823       566.227
   0.00406361       541.824       566.227
   0.00468662       541.827       566.227
   0.00539649       541.832       566.227
   0.00619537        541.84       566.228
   0.00701997       541.859       566.231
   0.00788847       541.873       566.233
   0.00868964       541.904       566.237
   0.00948204       541.908       566.239
    0.0102888       541.908       566.239
    0.0111194       541.918       566.241
    0.0119791       541.929       566.242
    0.0128694       541.941       566.244
     0.013791       541.955       566.246
    0.0147481       541.968       566.249
     0.015756       541.982       566.251
    0.0168235       542.009       566.254
    0.0179336       542.027       566.257
    0.0190955       542.047        566.26
    0.0203275       542.067       566.264
    0.0216372        542.09       566.268
    0.0230267       542.113       566.271
    0.0245005       542.138       566.275
    0.0260626       542.169        566.28
    0.0277284       542.202       566.284
    0.0295157       542.235       566.287
    0.0314415       542.263        566.29
    0.0335256       542.302       566.294
    0.0357944       542.344       566.297
    0.0382803       542.389       566.302
    0.0410291       542.438       566.306
    0.0440511       542.492        566.31
    0.0473817        542.55       566.314
    0.0510694       542.615       566.323
    0.0551662       542.696       566.332
    0.0597194       542.823       566.336
    0.0647864       542.901       566.339
    0.0704266       542.977       566.343
    0.0767144        543.06        566.35
    0.0837577       543.175       566.356
    0.0916237        543.29       566.353
    0.0998592       543.363       566.349
     0.107576       543.416       566.352
     0.114922       543.538       566.358
     0.121851       543.652       566.364
     0.127918       543.716       566.377
     0.134287       543.824       566.392
     0.139912       543.874       566.399
     0.144383       543.905       566.409
     0.147409       543.986       566.416
     0.150215       544.041       566.419
     0.152583       544.058       566.424
      0.15493        544.08       566.427
     0.157118       544.086       566.429
      0.15956       544.098       566.434
     0.162406       544.098       566.438
      0.16582       544.087       566.445
     0.169865       544.102       566.451
     0.174541         544.1       566.454
      0.17985       544.125       566.459
       0.1858       544.137       566.464
     0.192211       544.157       566.472
     0.198673       544.164       566.482
     0.205007       544.156       566.489
     0.211108       544.155       566.498
     0.216843       544.156       566.503
     0.222398       544.153        566.51
      0.22758       544.147       566.514
     0.232551       544.144       566.519
       0.2373       544.137       566.522
     0.242096        544.13       566.524
     0.246724       544.122       566.526
     0.251234       544.115       566.527
     0.255917       544.108        566.53
     0.260783       544.099       566.531
     0.265664        544.09       566.531
     0.270585       544.079       566.532
     0.275401        544.07       566.532
     0.280149       544.065       566.533
     0.284304       544.057        566.53
     0.288264       544.059       566.532
     0.292063       544.053       566.532
     0.295696        544.05       566.531
     0.299383       544.044       566.532
     0.303168       544.037       566.532
     0.307357       544.029       566.533
     0.312045       544.019       566.533
     0.317307       544.009       566.532
     0.323168       543.999        566.53
     0.329297       543.992       566.528
     0.335652       543.986       566.526
      0.34205       543.981       566.524
     0.348666       543.977       566.522
     0.355264       543.973       566.518
     0.362249       543.969       566.516
     0.369473       543.966       566.513
     0.377039       543.962        566.51
     0.384718        543.96       566.507
     0.392901        543.96       566.504
     0.401355       543.962         566.5
     0.410443       543.967       566.496
     0.419867       543.977       566.492
     0.429781       543.992       566.489
     0.440121       544.014       566.485
     0.451003       544.045       566.482
       0.4606       544.094       566.478
     0.471383       544.162       566.477
     0.483395       544.269       566.474
     0.496082       544.441       566.471
     0.508593       544.713       566.467
        0.522        545.17       566.465
     0.535653       545.959       566.461
      0.54978       547.382       566.458
     0.564136       549.993       566.454
     0.581329       556.235       566.449
     0.601977       571.865       566.441
     0.626685       607.208        566.43
     0.656235        673.39       566.415
      0.69155       762.626       566.392
     0.733789       841.189       566.293
     0.782826       889.373       565.695
     0.837595       912.827       564.755
     0.877618       918.806       565.182
     0.923937       920.461       564.789
     0.954584       912.103       566.658
     0.974222       896.509       566.236
     0.997492       900.785       566.967
      1.02435       914.701        567.24
      1.05541       933.618       567.549
      1.09032       953.495       567.544
      1.12756       974.023       567.531
      1.15117       970.977       567.982
      1.17243        962.46       567.668
      1.19129       954.605       568.023
      1.21245        951.16       568.162
      1.23228       944.571       568.647
      1.25444        941.72       569.195
      1.27609       919.338       570.033
      1.29529       889.386       570.921
      1.31622       865.687       572.062
      1.32875       833.816        572.92
      1.34287       825.975       573.857
      1.35395       810.454       574.626
      1.36188       798.902       575.221
      1.36693        783.89       575.614
      1.36919       772.736       575.863
      1.37045       772.413       576.096
      1.37129       806.055       576.264
      1.37205       811.072       576.308
      1.37266       861.984        576.39
      1.37319       904.126       576.432
      1.37377       990.155       576.402
      1.37419       908.543       576.505
      1.37456       919.985       576.548
      1.37498       913.941       576.487
      1.37532       738.334        576.56
      1.37544       545.299       577.196
      1.37558       547.732       576.962
      1.37575       560.536       576.791
      1.37595        580.33        576.67
       1.3762       598.965       576.587
      1.37649       609.225       576.529
      1.37684       615.495       576.495
      1.37726       624.382       576.482
      1.37777       630.435       576.486
      1.37838       639.557       576.505
      1.37911       643.963       576.542
      1.37998       647.646       576.591
      1.38103       652.269       576.659
      1.38229       660.456        576.75
       1.3838       672.731       576.862
      1.38562       679.633           577
      1.38779       686.198       577.165
      1.39035       688.638       577.364
      1.39334       691.874       577.598
      1.39684       687.172       577.874
      1.40087       681.326       578.194
      1.40551       675.442       578.569
      1.41083       672.016       579.003
      1.41687       675.495       579.493
       1.4237       687.751       580.055
      1.43134       708.098       580.696
      1.43918       727.939       581.356
      1.44665       740.002       581.985
      1.45334       748.785       582.548
      1.45938       758.182       583.055
      1.46487       764.126       583.517
      1.46991       767.014       583.927
      1.47457       766.345       584.312
      1.47888       767.275       584.664
      1.48291       767.535        584.99
       1.4867       765.729       585.294
      1.49029       762.494       585.582
      1.49373       757.211       585.854
      1.49704       751.594       586.112
      1.50025       747.023       586.361
      1.50336        742.15       586.596
      1.50639       736.328       586.828
      1.50936       730.275        587.05
      1.51227       722.727       587.267
      1.51514       714.619        587.48
      1.51796       705.008       587.688
      1.52074       696.676       587.891
      1.52349       688.413       588.088
       1.5262       680.078       588.281
      1.52889       672.222       588.467
      1.53155       663.925       588.655
      1.53419       654.931       588.838
      1.53681       647.127       589.019
       1.5394       639.337       589.196
      1.54199       632.407       589.369
      1.54456       626.854       589.544
      1.54711       622.562       589.715
      1.54966       617.634       589.883
      1.55219       613.974        590.05
      1.55471       611.478       590.212
       1.5572       608.395        590.38
      1.55967       606.533       590.544
      1.56212        605.51       590.701
      1.56455        604.84       590.861
      1.56696       604.312       591.017
      1.56936       604.053       591.169
      1.57174       604.876       591.321
       1.5741       603.637        591.47
      1.57644        602.96       591.619
      1.57876       605.611       591.763
      1.58107       607.227       591.902
      1.58336       609.676        592.04
      1.58563       611.274       592.183
       1.5879       612.448       592.317
      1.59015       614.097       592.447
       1.5924       615.139       592.577
      1.59465       616.184       592.711
      1.59689       618.338       592.842
      1.59912       620.845       592.975
      1.60135       623.569       593.106
      1.60358       624.951       593.239
      1.60581       625.643       593.369
      1.60804       626.039       593.497
      1.61028       626.156       593.627
      1.61251       626.507       593.752
      1.61475       627.695       593.877
      1.61698       627.418       594.001
      1.61923       628.276       594.122
      1.62148       628.482       594.246
      1.62373       629.322       594.369
      1.62599       628.509       594.492
      1.62826       626.711       594.618
      1.63053        625.28       594.741
       1.6328       624.242       594.863
      1.63508       622.688       594.986
      1.63737       621.243       595.107
      1.63966       622.102       595.234
      1.64196       620.885       595.358
      1.64427       619.799        595.48
      1.64658       617.976       595.605
      1.64891       615.658       595.727
      1.65125       614.923       595.845
       1.6536       614.409       595.977
      1.65596       613.287       596.108
      1.65833        611.19        596.24
      1.66072       608.957       596.368
      1.66312       606.681       596.498
      1.66553       603.459       596.628
      1.66796       602.493       596.767
      1.67041       601.441       596.902
      1.67287       599.199       597.036
      1.67536       596.821       597.174
      1.67786       595.801       597.312
      1.68037       597.124       597.453
      1.68291       593.358       597.592
      1.68547       589.927       597.742
      1.68805       593.496       597.887
      1.69064       596.782       598.037
      1.69326       596.599       598.186
      1.69589       596.833       598.343
      1.69854       594.581       598.499
      1.70121       596.335        598.66
       1.7039       600.541       598.823
       1.7066        600.12       598.989
      1.70931       599.976       599.154
      1.71203       602.457       599.325
      1.71477        603.58       599.496
      1.71751       604.494       599.671
      1.72026       605.722       599.852
      1.72302       607.734       600.034
      1.72579       608.162       600.219
      1.72855       609.173       600.408
      1.73132       613.817       600.601
       1.7341       618.914       600.793
      1.73687       623.305       600.996
      1.73965       624.237       601.203
      1.74242       626.516       601.408
      1.74519       628.296       601.611
      1.74796       630.417       601.821
      1.75073       634.287       602.036
      1.75349       639.067       602.254
      1.75625       641.909       602.476
        1.759       643.547       602.697
      1.76174       645.673       602.923
       1.7649       648.191       603.188
      1.76846       649.881       603.489
      1.77244       651.576       603.832
      1.77651       652.797       604.198
      1.78056       654.021       604.575
       1.7846       653.714       604.953
      1.78861       653.051       605.347
      1.79261       652.307       605.745
      1.79659        650.39       606.148
      1.80055       646.002       606.557
      1.80448        639.72       606.977
       1.8084       633.393       607.402
      1.81229       625.339       607.829
      1.81616       617.993       608.268
      1.82002       611.233       608.719
      1.82385       604.544        609.18
      1.82767       598.619        609.65
      1.83147       596.981       610.127
      1.83525       592.485       610.611
      1.83902       590.987       611.104
      1.84277        589.88       611.603
      1.84651       590.202        612.11
      1.85024       592.672       612.624
      1.85396        595.97       613.146
      1.85767       597.633       613.676
      1.86137       599.679       614.213
      1.86508       603.262       614.762
      1.86877       608.026       615.316
      1.87247       611.499       615.877
      1.87617       616.476        616.45
      1.87988       622.296       617.033
      1.88359       628.788       617.627
       1.8873       634.151       618.234
      1.89102        640.42       618.853
      1.89475       644.125       619.482
      1.89849       647.979        620.12
      1.90223       652.197        620.77
      1.90598       654.524       621.437
      1.90973       656.165       622.115
      1.91349       656.148       622.807
      1.91725       657.218       623.519
      1.92102        655.95       624.248
      1.92479       654.944       624.992
      1.92856       654.959        625.75
      1.93234       654.435       626.527
      1.93612       655.471        627.32
       1.9399       657.369       628.135
      1.94368       660.704       628.976
      1.94743       664.362       629.842
      1.95119       667.749       630.741
      1.95494       671.671       631.678
       1.9587       675.628       632.658
      1.96245       680.083       633.674
      1.96621       684.276        634.74
      1.96996       688.092       635.862
      1.97372       691.706       637.029
      1.97747        695.38       638.262
      1.98123       699.982       639.565
      1.98498       704.137       640.953
      1.98874       707.658       642.433
      1.99249       710.482       644.008
      1.99625       713.336       645.694
            2       715.817       647.499
      2.00369        717.18       649.393
      2.00737       718.496       651.433
      2.01104       719.924       653.633
       2.0147       721.125       656.029
      2.01835       721.832       658.622
      2.02199       723.374       661.453
      2.02562       724.557       664.522
      2.02924       725.527       667.892
      2.03285       726.384       671.563
      2.03646       727.144       675.547
      2.04005       727.973       679.865
      2.04363       728.516       684.569
       2.0472       728.871       689.667
      2.05077       729.137        695.22
      2.05434       729.297       701.193
       2.0579       729.405        707.63
      2.06145       729.537       714.582
      2.06499       728.829       722.043
      2.06853       728.751       730.078
      2.07206       728.714       738.792
      2.07558       728.619       747.927
       2.0791       728.412       757.585
      2.08261       728.263        767.87
      2.08612       727.967       778.769
      2.08962       727.662        790.33
      2.09311        727.29       802.461
       2.0966       727.013       815.048
      2.10008       726.747       827.825
      2.10355       726.447       841.191
      2.10702       726.129       855.215
      2.11048       725.768       869.517
      2.11394       725.439       884.404
       2.1174       725.056       899.012
      2.12085       724.764       913.339
       2.1243         724.4       928.026
      2.12775       724.072       942.278
      2.13119       723.751       956.012
      2.13463       723.411       970.625
      2.13807        723.08        984.85
      2.14151       722.761       998.644
      2.14496       722.436       1013.25
       2.1484       722.116       1026.14
      2.15185       721.817       1038.64
       2.1553       721.507        1050.9
      2.15875       721.156       1062.01
      2.16221       720.845       1074.14
      2.16566       720.585       1085.23
      2.16912        720.33       1097.39
      2.17259       720.105        1108.8
      2.17605       719.915       1121.15
      2.17951       719.764       1133.93
      2.18298       719.642        1146.1
      2.18645       719.565       1158.42
      2.18992       719.546       1168.26
      2.19338       719.607       1179.14
      2.19685       719.719       1188.15
      2.20034       719.909       1194.55
      2.20383       720.156       1199.39
      2.20733       720.449       1202.77
      2.21083       720.767       1204.78
      2.21433       721.112       1207.14
      2.21783       721.499       1207.38
      2.22133       721.897        1207.3
      2.22484       722.293        1208.5
      2.22834       722.676       1208.19
      2.23186       723.111       1207.74
      2.23537       723.495       1208.01
      2.23889        723.82       1206.96
      2.24241       724.051       1206.66
      2.24593       724.394       1205.69
      2.24946       724.808       1204.48
      2.25298        725.18       1202.84
       2.2565       725.553       1200.57
      2.26003       725.892       1198.98
      2.26356       726.385       1196.39
      2.26709       726.836       1193.82
      2.27062        727.31       1191.19
      2.27415       727.923       1188.33
      2.27768       728.554       1185.65
      2.28121       729.285       1183.31
      2.28474       730.015       1180.54
      2.28826       730.859       1178.14
      2.29178       731.649       1176.06
       2.2953       732.605       1174.13
      2.29882       733.714       1172.52
      2.30234       734.557       1170.98
      2.30585       735.446       1169.67
      2.30937       736.561       1168.71
      2.31288       737.729       1168.09
      2.31638       738.947       1167.83
      2.31988       740.221       1168.23
      2.32338        741.56       1168.87
      2.32688       742.934       1169.64
      2.33037        744.39       1170.63
      2.33386        745.85       1171.68
      2.33734       747.409       1172.95
      2.34082       748.995       1174.26
      2.34429       750.681       1175.71
      2.34776       752.351       1177.19
      2.35123       753.964       1178.35
      2.35468        755.74       1179.59
      2.35813       757.618       1181.12
      2.36158       759.464       1182.61
      2.36502       761.418       1184.01
      2.36846       763.382       1185.61
      2.37189       765.415        1187.1
      2.37532       767.398       1188.48
      2.37875       769.507          1190
      2.38217       771.555       1191.57
      2.38558       773.794       1193.05
      2.38899       775.681       1194.49
      2.39239       777.727        1195.8
      2.39578       779.866       1197.24
      2.39916       781.995       1198.85
      2.40254         784.1       1200.35
      2.40591       786.143       1201.84
      2.40926       788.211       1203.23
      2.41261       790.196       1204.58
      2.41596       792.217       1206.05
      2.41931       794.236       1207.46
      2.42265       796.224       1208.88
      2.42598       798.148       1210.22
       2.4293       800.041       1211.49
       2.4326       801.907       1212.79
       2.4359       803.765       1214.07
      2.43919       805.619       1215.42
      2.44247       807.478       1216.73
      2.44574       809.351       1217.92
        2.449       811.109       1219.11
      2.45225       812.764       1220.31
      2.45549       814.503       1221.47
      2.45916       816.351       1223.36
      2.46325       818.499       1225.18
      2.46752       820.727       1226.71
      2.47177       822.939       1227.96
      2.47599       825.127       1229.23
      2.48019       827.295       1230.43
      2.48435       829.426       1231.55
      2.48849       831.545       1232.71
       2.4926        833.63       1233.76
      2.49668       835.674        1234.8
      2.50074       837.672       1235.87
      2.50477       839.682       1236.81
      2.50876       841.683       1237.72
      2.51273       843.619       1238.59
      2.51668       845.575       1239.41
      2.52059       847.427       1240.16
      2.52447       849.268       1240.87
      2.52833       851.126       1241.56
      2.53216       852.924        1242.2
      2.53596       854.673       1242.77
      2.53973       856.402       1243.31
      2.54349       858.095       1243.78
       2.5472       859.717       1244.18
      2.55089       861.345       1244.54
      2.55455       862.962       1244.88
      2.55818       864.524       1245.14
       2.5618        866.13       1245.37
      2.56538        867.66       1245.53
      2.56894       869.144       1245.66
      2.57248       870.605       1245.75
        2.576       872.098       1245.77
       2.5795       873.568       1245.78
      2.58298       875.083       1245.75
      2.58644       876.622       1245.68
      2.58989       877.998       1245.56
      2.59332       879.324       1245.38
      2.59674       880.779       1245.18
      2.60014       882.278       1244.92
      2.60352       883.841       1244.68
      2.60689       885.399       1244.37
      2.61025       886.934       1244.03
       2.6136       888.527       1243.68
      2.61694       890.113       1243.32
      2.62027       891.767       1242.91
      2.62359       893.382       1242.47
      2.62692       895.039       1242.02
      2.63024        896.75       1241.53
      2.63357       898.471       1241.06
      2.63685       900.189       1240.54
      2.64009        901.89       1239.96
      2.64329       903.609       1239.38
      2.64645       905.337       1238.82
      2.64956       907.008       1238.26
      2.65265        908.67       1237.71
      2.65574       910.368       1237.13
      2.65884        912.11        1236.6
      2.66199        913.84       1236.08
      2.66521       915.589       1235.56
      2.66844       917.398       1234.95
      2.67166       919.187       1234.29
      2.67488       920.955       1233.64
      2.67809       922.643          1233
      2.68129        924.38       1232.35
      2.68448       926.032       1231.69
      2.68767       927.694          1231
      2.69085       929.404       1230.34
      2.69403       931.096       1229.65
      2.69719       932.768       1228.96
      2.70035        934.46       1228.24
      2.70352       936.208       1227.53
       2.7067        937.92        1226.8
      2.70989       939.696       1226.07
      2.71306       941.518       1225.35
      2.71619       943.357       1224.62
      2.71927       945.286       1223.87
      2.72233       946.745       1223.15
      2.72537       948.229       1222.42
      2.72837       950.026       1221.69
      2.73136       951.874       1220.98
      2.73433       953.715       1220.26
      2.73731       955.595       1219.54
      2.74033       957.372       1218.82
      2.74341       959.291       1218.06
      2.74656       961.331       1217.28
       2.7498       963.318       1216.47
      2.75305       965.262       1215.65
      2.75638       967.345       1214.82
      2.75977       969.319       1213.96
      2.76319       971.251       1213.09
       2.7666       973.239       1212.22
         2.77       975.256       1211.34
       2.7734       977.004       1210.48
      2.77676       978.679       1209.61
       2.7801       980.273       1208.77
      2.78346       981.883        1207.9
      2.78684        983.36       1207.04
      2.79021       984.831       1206.17
      2.79362       986.274        1205.3
      2.79704       987.521       1204.43
      2.80037       988.652       1203.58
      2.80369       989.703       1202.73
      2.80702       990.582       1201.91
      2.81034        991.55       1201.06
      2.81368       992.416        1200.2
        2.817       993.225       1199.37
      2.82032       993.815       1198.51
      2.82366       994.455       1197.67
      2.82703       995.007       1196.81
      2.83041       995.503       1195.95
      2.83382       996.054       1195.08
      2.83723       996.634       1194.23
      2.84056        997.02        1193.4
      2.84388       997.533       1192.58
       2.8472       998.052       1191.75
       2.8505       998.424       1190.91
      2.85381       998.907       1190.09
      2.85707       999.434       1189.29
      2.86034       1000.82       1188.47
      2.86364       1001.74       1187.64
      2.86693        1002.8       1186.82
      2.87024       1003.09          1186
       2.8735       1003.81       1185.18
      2.87676        1004.4       1184.38
         2.88       1006.73       1183.59
      2.88329       1009.22       1182.78
      2.88657       1010.93       1181.97
      2.88984       1012.78       1181.17
      2.89308       1014.85       1180.38
      2.89627       1016.86       1179.61
      2.89945       1019.17       1178.83
      2.90263       1021.43       1178.05
      2.90585       1023.81       1177.25
      2.90907       1026.03       1176.47
      2.91227       1028.23       1175.68
      2.91545       1030.31        1174.9
      2.91863       1032.42       1174.13
       2.9218       1034.45       1173.35
      2.92496       1037.42       1172.57
      2.92811       1039.87       1171.79
      2.93128       1042.44       1171.01
      2.93441       1046.02       1170.24
      2.93752        1048.2       1169.47
      2.94062       1050.21        1168.7
      2.94371       1052.12       1167.93
       2.9468       1053.89       1167.16
      2.94992       1055.58       1166.38
      2.95302       1057.11        1165.6
      2.95611       1058.53       1164.83
      2.95915       1059.73       1164.07
      2.96218       1060.82       1163.31
      2.96523       1061.94       1162.55
      2.96829          1063       1161.77
      2.97135       1064.06       1160.99
      2.97441       1065.31       1160.22
      2.97745       1066.22       1159.45
      2.98051       1066.79       1158.67
      2.98355       1066.82        1157.9
      2.98656       1066.82       1157.14
      2.98954       1066.14       1156.38
       2.9925       1065.92       1155.64
      2.99546        1065.6        1154.9
      2.99843       1065.15       1154.15
      3.00139       1064.79       1153.41
      3.00436       1064.49       1152.67
      3.00734       1064.08       1151.92
      3.01031       1063.72       1151.18
      3.01328       1063.34       1150.44
      3.01625       1063.01        1149.7
      3.01922       1062.36       1148.96
      3.02219       1061.73       1148.24
      3.02515       1061.23       1147.51
       3.0281        1060.8        1146.8
      3.03106       1060.38       1146.07
        3.034       1059.98       1145.36
      3.03695       1059.51       1144.65
      3.03989       1059.03       1143.94
      3.04283        1058.6       1143.23
      3.04577       1058.11       1142.53
      3.04869       1057.82       1141.88
      3.05162       1057.51       1141.18
      3.05455       1057.06       1140.52
      3.05747       1056.66       1139.84
      3.06039        1056.3       1139.16
      3.06331       1055.88        1138.5
      3.06623       1055.54       1137.84
      3.06915        1055.2       1137.18
      3.07205       1054.85       1136.55
      3.07496       1054.39       1135.91
      3.07787       1054.19       1135.28
      3.08078       1053.93       1134.65
      3.08369       1053.52       1134.04
       3.0866       1053.32       1133.45
      3.08951       1052.86       1132.85
      3.09241       1052.63       1132.27
      3.09531       1052.46        1131.7
       3.0982       1052.28       1131.14
      3.10109       1051.97       1130.57
      3.10398       1051.71       1130.02
      3.10686       1051.54        1129.5
      3.10975       1051.37       1128.98
       3.1126       1051.26       1128.49
      3.11548       1051.14          1128
      3.11836       1051.02       1127.52
      3.12124       1050.77       1127.06
      3.12411       1050.49       1126.62
      3.12698        1050.3       1126.17
      3.12981       1050.12       1125.76
      3.13265       1049.92       1125.34
       3.1355       1049.74       1124.97
      3.13838       1049.58       1124.59