# Moment      
# CofR        : (0.000000e+00 0.000000e+00 0.000000e+00)
#
# Time        	(total_x total_y total_z)	(pressure_x pressure_y pressure_z)	(viscous_x viscous_y viscous_z)
0.000600024   	(-1.170029e-04 4.414051e-06 -2.233426e-04)	(-1.170108e-04 4.435666e-06 -2.233264e-04)	(7.873099e-09 -2.161503e-08 -1.621797e-08)
0.00132009    	(-1.146551e-04 -2.435470e-05 -2.924668e-04)	(-1.146807e-04 -2.429435e-05 -2.924234e-04)	(2.565246e-08 -6.035356e-08 -4.336117e-08)
0.00218416    	(-1.076983e-04 4.796941e-05 -1.071947e-04)	(-1.077286e-04 4.804413e-05 -1.071404e-04)	(3.028995e-08 -7.471888e-08 -5.424794e-08)
0.00322105    	(-1.022396e-04 5.631092e-05 -1.004749e-04)	(-1.022746e-04 5.639919e-05 -1.004074e-04)	(3.492151e-08 -8.827239e-08 -6.748384e-08)
0.00446527    	(-1.040086e-04 5.365710e-05 -9.891602e-05)	(-1.040493e-04 5.376265e-05 -9.883407e-05)	(4.078386e-08 -1.055541e-07 -8.195534e-08)
0.00595826    	(-1.029211e-04 5.911372e-05 -8.425440e-05)	(-1.029671e-04 5.923586e-05 -8.415814e-05)	(4.597821e-08 -1.221354e-07 -9.625710e-08)
0.00775017    	(-1.012776e-04 6.618432e-05 -6.627772e-05)	(-1.013272e-04 6.632017e-05 -6.616836e-05)	(4.956440e-08 -1.358466e-07 -1.093588e-07)
0.00990014    	(-9.965228e-05 7.351139e-05 -4.752795e-05)	(-9.970277e-05 7.365604e-05 -4.740816e-05)	(5.048578e-08 -1.446519e-07 -1.197894e-07)
0.0124803     	(-9.805076e-05 8.097719e-05 -2.847845e-05)	(-9.809818e-05 8.112329e-05 -2.835228e-05)	(4.741112e-08 -1.460991e-07 -1.261742e-07)
0.0155763     	(-9.684346e-05 8.725819e-05 -1.209991e-05)	(-9.688369e-05 8.739758e-05 -1.197285e-05)	(4.023313e-08 -1.393915e-07 -1.270602e-07)
0.0192904     	(-9.535165e-05 9.415532e-05 4.961308e-06)	(-9.537889e-05 9.427636e-05 5.083406e-06)	(2.723344e-08 -1.210340e-07 -1.220986e-07)
0.0237454     	(-9.448721e-05 9.844873e-05 1.592890e-05)	(-9.449722e-05 9.854353e-05 1.603977e-05)	(1.000590e-08 -9.479297e-08 -1.108712e-07)
0.0290905     	(-9.428434e-05 1.014213e-04 2.241601e-05)	(-9.427261e-05 1.014802e-04 2.250350e-05)	(-1.173064e-08 -5.886757e-08 -8.748690e-08)
0.0355046     	(-9.424983e-05 1.016688e-04 2.258497e-05)	(-9.421338e-05 1.016848e-04 2.265251e-05)	(-3.645031e-08 -1.603380e-08 -6.754067e-08)
0.0432015     	(-9.451545e-05 9.982778e-05 1.670309e-05)	(-9.444983e-05 9.980484e-05 1.676974e-05)	(-6.561318e-08 2.293326e-08 -6.664599e-08)
0.052432      	(-9.568165e-05 9.555816e-05 2.581338e-06)	(-9.559194e-05 9.550281e-05 2.700709e-06)	(-8.971336e-08 5.535004e-08 -1.193710e-07)
0.0603481     	(-9.608715e-05 9.252855e-05 -4.798301e-06)	(-9.603837e-05 9.250458e-05 -4.669697e-06)	(-4.877231e-08 2.396675e-08 -1.286042e-07)
0.0692324     	(-9.715455e-05 8.939727e-05 -1.930742e-05)	(-9.711314e-05 8.939542e-05 -1.918271e-05)	(-4.141670e-08 1.844927e-09 -1.247107e-07)
0.079378      	(-9.664693e-05 8.605927e-05 -2.707660e-05)	(-9.666999e-05 8.610959e-05 -2.716631e-05)	(2.305711e-08 -5.031340e-08 8.971618e-08)
0.0847499     	(-9.436785e-05 8.350506e-05 -1.699308e-05)	(-9.436270e-05 8.357807e-05 -1.708275e-05)	(-5.149785e-09 -7.300722e-08 8.966913e-08)
0.0910273     	(-9.679731e-05 8.911699e-05 -2.163122e-05)	(-9.688119e-05 8.927670e-05 -2.151242e-05)	(8.388748e-08 -1.597090e-07 -1.187997e-07)
0.0982891     	(-9.582683e-05 8.603447e-05 -2.722185e-05)	(-9.589004e-05 8.622247e-05 -2.708290e-05)	(6.321106e-08 -1.880001e-07 -1.389523e-07)
0.104478      	(-9.610888e-05 8.742641e-05 -3.027640e-05)	(-9.603279e-05 8.741310e-05 -3.005031e-05)	(-7.608201e-08 1.331438e-08 -2.260952e-07)
0.11172       	(-1.005162e-04 9.318925e-05 -2.673685e-05)	(-1.006907e-04 9.343087e-05 -2.652656e-05)	(1.745852e-07 -2.416225e-07 -2.102809e-07)
0.120105      	(-9.667744e-05 8.958096e-05 -2.708780e-05)	(-9.688398e-05 8.985723e-05 -2.681647e-05)	(2.065391e-07 -2.762749e-07 -2.713282e-07)
0.129692      	(-9.859086e-05 9.456694e-05 -3.274908e-05)	(-9.875888e-05 9.477526e-05 -3.237331e-05)	(1.680222e-07 -2.083205e-07 -3.757769e-07)
0.137447      	(-9.663076e-05 9.212672e-05 -4.379997e-05)	(-9.692762e-05 9.240402e-05 -4.335842e-05)	(2.968678e-07 -2.772992e-07 -4.415491e-07)
0.144556      	(-9.078331e-05 9.113907e-05 -3.370432e-05)	(-9.095233e-05 9.126034e-05 -3.292336e-05)	(1.690252e-07 -1.212714e-07 -7.809553e-07)
0.151749      	(-8.862292e-05 8.767784e-05 -4.656484e-05)	(-8.867586e-05 8.770567e-05 -4.589793e-05)	(5.293647e-08 -2.782783e-08 -6.669122e-07)
0.15854       	(-9.576721e-05 9.417442e-05 -3.741203e-05)	(-9.582158e-05 9.414420e-05 -3.682603e-05)	(5.437162e-08 3.022636e-08 -5.859941e-07)
0.166529      	(-8.812778e-05 8.711505e-05 -6.182680e-05)	(-8.820263e-05 8.713457e-05 -6.104415e-05)	(7.484791e-08 -1.952538e-08 -7.826556e-07)
0.17482       	(-8.607322e-05 8.735341e-05 -8.346051e-05)	(-8.608292e-05 8.732745e-05 -8.288182e-05)	(9.702360e-09 2.596173e-08 -5.786925e-07)
0.184281      	(-8.511471e-05 8.757114e-05 -7.469101e-05)	(-8.502071e-05 8.743201e-05 -7.389027e-05)	(-9.400167e-08 1.391381e-07 -8.007463e-07)
0.195176      	(-8.377499e-05 9.054038e-05 -9.337580e-05)	(-8.351520e-05 9.023291e-05 -9.254260e-05)	(-2.597917e-07 3.074751e-07 -8.332039e-07)
0.207721      	(-7.177692e-05 8.306660e-05 -1.078830e-04)	(-7.126097e-05 8.252465e-05 -1.066012e-04)	(-5.159451e-07 5.419505e-07 -1.281824e-06)
0.212142      	(-7.229256e-05 8.256222e-05 -9.185646e-05)	(-7.156784e-05 8.186792e-05 -9.048649e-05)	(-7.247143e-07 6.942953e-07 -1.369972e-06)
0.21715       	(-7.897211e-05 9.400917e-05 -1.330303e-04)	(-7.822455e-05 9.323948e-05 -1.315530e-04)	(-7.475635e-07 7.696904e-07 -1.477251e-06)
0.222585      	(-7.095480e-05 8.786385e-05 -1.435032e-04)	(-7.034827e-05 8.728730e-05 -1.421917e-04)	(-6.065241e-07 5.765548e-07 -1.311422e-06)
0.228822      	(-6.826445e-05 9.046245e-05 -1.545958e-04)	(-6.759080e-05 8.979494e-05 -1.535399e-04)	(-6.736497e-07 6.675147e-07 -1.055908e-06)
0.235609      	(-5.939226e-05 7.804352e-05 -1.335966e-04)	(-5.857534e-05 7.722524e-05 -1.324134e-04)	(-8.169212e-07 8.182803e-07 -1.183205e-06)
0.239814      	(-4.565624e-05 6.767766e-05 -1.163593e-04)	(-4.477550e-05 6.680665e-05 -1.151858e-04)	(-8.807351e-07 8.710153e-07 -1.173479e-06)
0.244627      	(-5.094172e-05 7.643395e-05 -1.459766e-04)	(-4.986053e-05 7.538682e-05 -1.448063e-04)	(-1.081187e-06 1.047133e-06 -1.170260e-06)
0.250157      	(-4.681443e-05 7.439729e-05 -1.685789e-04)	(-4.573834e-05 7.330246e-05 -1.674140e-04)	(-1.076090e-06 1.094835e-06 -1.164923e-06)
0.256499      	(-3.971010e-05 7.172145e-05 -1.668766e-04)	(-3.825195e-05 7.030676e-05 -1.655075e-04)	(-1.458147e-06 1.414682e-06 -1.369110e-06)
0.264113      	(-3.318436e-05 6.818715e-05 -1.761658e-04)	(-3.159568e-05 6.660193e-05 -1.746801e-04)	(-1.588677e-06 1.585219e-06 -1.485694e-06)
0.273255      	(-2.511729e-05 6.542817e-05 -1.862049e-04)	(-2.351409e-05 6.377944e-05 -1.846232e-04)	(-1.603201e-06 1.648733e-06 -1.581668e-06)
0.277302      	(-1.881754e-05 6.165745e-05 -1.853952e-04)	(-1.730111e-05 6.005467e-05 -1.837031e-04)	(-1.516421e-06 1.602785e-06 -1.692115e-06)
0.282034      	(-1.677590e-05 6.194827e-05 -2.021963e-04)	(-1.527740e-05 6.035769e-05 -2.002984e-04)	(-1.498498e-06 1.590582e-06 -1.897848e-06)
0.287618      	(-7.985914e-06 5.978101e-05 -2.025556e-04)	(-6.373205e-06 5.806078e-05 -2.004559e-04)	(-1.612709e-06 1.720229e-06 -2.099634e-06)
0.294227      	(1.136852e-07 5.668862e-05 -2.167723e-04)	(1.562127e-06 5.505821e-05 -2.145156e-04)	(-1.448442e-06 1.630407e-06 -2.256636e-06)
0.302122      	(1.030512e-05 5.266226e-05 -2.329286e-04)	(1.171380e-05 5.099259e-05 -2.306023e-04)	(-1.408683e-06 1.669675e-06 -2.326231e-06)
0.311594      	(2.304684e-05 4.871641e-05 -2.464057e-04)	(2.441610e-05 4.704827e-05 -2.438847e-04)	(-1.369257e-06 1.668146e-06 -2.520947e-06)
0.322177      	(3.605274e-05 4.740454e-05 -2.608149e-04)	(3.735858e-05 4.574533e-05 -2.583161e-04)	(-1.305841e-06 1.659207e-06 -2.498803e-06)
0.330298      	(5.741141e-05 3.946898e-05 -2.746631e-04)	(5.853659e-05 3.782546e-05 -2.721876e-04)	(-1.125180e-06 1.643523e-06 -2.475507e-06)
0.331031      	(5.025290e-05 5.588642e-05 -4.452539e-04)	(5.183321e-05 5.398605e-05 -4.437891e-04)	(-1.580309e-06 1.900366e-06 -1.464850e-06)
0.331889      	(1.708209e-04 -3.247725e-05 -4.725273e-04)	(1.726059e-04 -3.462435e-05 -4.700367e-04)	(-1.785072e-06 2.147096e-06 -2.490620e-06)
0.332919      	(6.331579e-05 1.456502e-05 -2.168014e-04)	(6.432713e-05 1.281497e-05 -2.124226e-04)	(-1.011336e-06 1.750052e-06 -4.378778e-06)
0.334155      	(5.955456e-05 2.794773e-05 -2.581384e-04)	(6.093230e-05 2.588215e-05 -2.535101e-04)	(-1.377738e-06 2.065574e-06 -4.628379e-06)
0.335638      	(5.529981e-05 3.338594e-05 -2.478400e-04)	(5.686674e-05 3.113015e-05 -2.430349e-04)	(-1.566933e-06 2.255790e-06 -4.805051e-06)
0.337418      	(6.296773e-05 3.473000e-05 -2.744908e-04)	(6.459716e-05 3.238132e-05 -2.694698e-04)	(-1.629429e-06 2.348683e-06 -5.020922e-06)
0.339554      	(7.482166e-05 3.223025e-05 -3.058370e-04)	(7.664596e-05 2.974361e-05 -3.010343e-04)	(-1.824298e-06 2.486644e-06 -4.802684e-06)
0.342117      	(7.625623e-05 3.245683e-05 -2.984028e-04)	(7.831173e-05 2.980647e-05 -2.937999e-04)	(-2.055498e-06 2.650355e-06 -4.602899e-06)
0.345194      	(7.719638e-05 3.327202e-05 -2.872704e-04)	(7.931317e-05 3.057316e-05 -2.827845e-04)	(-2.116791e-06 2.698860e-06 -4.485988e-06)
0.348885      	(8.421279e-05 3.212292e-05 -2.939812e-04)	(8.639921e-05 2.934685e-05 -2.896551e-04)	(-2.186423e-06 2.776073e-06 -4.326046e-06)
0.353315      	(9.253862e-05 2.954077e-05 -3.008178e-04)	(9.482497e-05 2.666302e-05 -2.965697e-04)	(-2.286344e-06 2.877753e-06 -4.248099e-06)
0.358295      	(9.850773e-05 2.970521e-05 -3.052783e-04)	(1.007822e-04 2.683060e-05 -3.010617e-04)	(-2.274449e-06 2.874608e-06 -4.216681e-06)
0.364208      	(1.113428e-04 2.783227e-05 -2.949337e-04)	(1.135977e-04 2.489822e-05 -2.907296e-04)	(-2.254946e-06 2.934051e-06 -4.204062e-06)
0.370802      	(1.211026e-04 2.945485e-05 -2.913697e-04)	(1.233769e-04 2.639509e-05 -2.870271e-04)	(-2.274324e-06 3.059761e-06 -4.342610e-06)
0.378269      	(1.359893e-04 2.619425e-05 -2.999435e-04)	(1.381909e-04 2.309199e-05 -2.955237e-04)	(-2.201601e-06 3.102262e-06 -4.419831e-06)
0.387106      	(1.519277e-04 2.748860e-05 -2.972055e-04)	(1.539521e-04 2.439689e-05 -2.928624e-04)	(-2.024387e-06 3.091718e-06 -4.343074e-06)
0.396063      	(1.677429e-04 2.542509e-05 -2.985510e-04)	(1.697543e-04 2.219350e-05 -2.942111e-04)	(-2.011362e-06 3.231592e-06 -4.339880e-06)
0.406007      	(1.840190e-04 3.054511e-05 -2.966090e-04)	(1.855784e-04 2.765847e-05 -2.920982e-04)	(-1.559396e-06 2.886644e-06 -4.510856e-06)
0.412116      	(1.904761e-04 3.786102e-05 -2.872093e-04)	(1.919246e-04 3.486167e-05 -2.825685e-04)	(-1.448462e-06 2.999355e-06 -4.640851e-06)
0.419229      	(2.102333e-04 3.660074e-05 -2.680965e-04)	(2.116144e-04 3.345053e-05 -2.638740e-04)	(-1.381146e-06 3.150204e-06 -4.222556e-06)
0.424307      	(2.161677e-04 3.775391e-05 -2.620061e-04)	(2.174616e-04 3.452828e-05 -2.580265e-04)	(-1.293911e-06 3.225631e-06 -3.979669e-06)
0.429495      	(2.286729e-04 4.117481e-05 -2.527426e-04)	(2.302364e-04 3.742644e-05 -2.488152e-04)	(-1.563539e-06 3.748366e-06 -3.927391e-06)
0.435517      	(2.473352e-04 3.425151e-05 -2.370974e-04)	(2.488108e-04 3.044517e-05 -2.332107e-04)	(-1.475655e-06 3.806337e-06 -3.886730e-06)
0.442056      	(2.516383e-04 4.913173e-05 -1.757194e-04)	(2.528943e-04 4.527484e-05 -1.712330e-04)	(-1.255951e-06 3.856891e-06 -4.486346e-06)
0.445848      	(2.657383e-04 4.575979e-05 -1.743142e-04)	(2.671415e-04 4.167783e-05 -1.700694e-04)	(-1.403202e-06 4.081965e-06 -4.244788e-06)
0.450108      	(2.624796e-04 5.967128e-05 -1.659638e-04)	(2.637200e-04 5.567221e-05 -1.619129e-04)	(-1.240480e-06 3.999070e-06 -4.050919e-06)
0.451404      	(2.629623e-04 8.816687e-05 -2.732006e-04)	(2.642726e-04 8.399290e-05 -2.690560e-04)	(-1.310367e-06 4.173973e-06 -4.144544e-06)
0.452953      	(2.723604e-04 6.103107e-05 -1.383420e-04)	(2.736156e-04 5.685073e-05 -1.342277e-04)	(-1.255163e-06 4.180336e-06 -4.114342e-06)
0.454811      	(2.698476e-04 6.701130e-05 -1.302127e-04)	(2.712995e-04 6.249238e-05 -1.260020e-04)	(-1.451962e-06 4.518916e-06 -4.210756e-06)
0.457031      	(2.747088e-04 7.468690e-05 -1.652060e-04)	(2.759340e-04 7.050889e-05 -1.613641e-04)	(-1.225196e-06 4.178014e-06 -3.841952e-06)
0.459696      	(2.800040e-04 7.650376e-05 -1.407141e-04)	(2.809267e-04 7.268884e-05 -1.370558e-04)	(-9.227106e-07 3.814917e-06 -3.658274e-06)
0.462893      	(2.854903e-04 7.745855e-05 -1.133775e-04)	(2.861130e-04 7.391591e-05 -1.097325e-04)	(-6.226204e-07 3.542640e-06 -3.645013e-06)
0.466728      	(2.929520e-04 8.147612e-05 -9.854893e-05)	(2.933855e-04 7.800076e-05 -9.494755e-05)	(-4.334860e-07 3.475357e-06 -3.601384e-06)
0.471331      	(3.000527e-04 8.407252e-05 -5.781485e-05)	(3.003664e-04 8.052323e-05 -5.430964e-05)	(-3.136886e-07 3.549286e-06 -3.505209e-06)
0.476853      	(3.089812e-04 9.208767e-05 -2.800323e-05)	(3.091531e-04 8.840522e-05 -2.441067e-05)	(-1.719135e-07 3.682453e-06 -3.592570e-06)
0.483197      	(3.215548e-04 1.029231e-04 -7.166782e-06)	(3.217210e-04 9.901412e-05 -4.004807e-06)	(-1.662427e-07 3.908976e-06 -3.161975e-06)
0.490578      	(3.347341e-04 1.125833e-04 5.818688e-05)	(3.347142e-04 1.084562e-04 6.101008e-05)	(1.988592e-08 4.127089e-06 -2.823198e-06)
0.499167      	(3.513244e-04 1.233342e-04 1.161612e-04)	(3.512754e-04 1.187562e-04 1.184532e-04)	(4.905594e-08 4.578048e-06 -2.291986e-06)
0.502705      	(3.542126e-04 1.312274e-04 1.750721e-04)	(3.539132e-04 1.266810e-04 1.772940e-04)	(2.994221e-07 4.546410e-06 -2.221872e-06)
0.506668      	(3.589337e-04 1.444461e-04 1.974482e-04)	(3.585476e-04 1.397988e-04 1.997843e-04)	(3.860889e-07 4.647234e-06 -2.336095e-06)
0.510192      	(3.623422e-04 1.470151e-04 2.215247e-04)	(3.617433e-04 1.423034e-04 2.237153e-04)	(5.989442e-07 4.711691e-06 -2.190529e-06)
0.514137      	(3.666278e-04 1.537912e-04 2.448217e-04)	(3.660080e-04 1.489208e-04 2.472570e-04)	(6.197387e-07 4.870407e-06 -2.435323e-06)
0.518696      	(3.746036e-04 1.643915e-04 2.969370e-04)	(3.738170e-04 1.593799e-04 2.991707e-04)	(7.866287e-07 5.011646e-06 -2.233766e-06)
0.524168      	(3.864428e-04 1.743956e-04 3.494496e-04)	(3.855544e-04 1.691102e-04 3.513185e-04)	(8.883543e-07 5.285412e-06 -1.868846e-06)
0.530731      	(3.980357e-04 1.864261e-04 4.183896e-04)	(3.970591e-04 1.807931e-04 4.198958e-04)	(9.765648e-07 5.632968e-06 -1.506195e-06)
0.538599      	(4.115164e-04 1.997611e-04 4.978666e-04)	(4.104014e-04 1.937588e-04 4.989130e-04)	(1.114934e-06 6.002230e-06 -1.046463e-06)
0.548031      	(4.270251e-04 2.173059e-04 5.982347e-04)	(4.257200e-04 2.108417e-04 5.987268e-04)	(1.305029e-06 6.464238e-06 -4.921206e-07)
0.558556      	(4.444981e-04 2.364695e-04 7.195800e-04)	(4.429190e-04 2.295583e-04 7.194332e-04)	(1.579101e-06 6.911203e-06 1.467755e-07)
0.568066      	(4.591518e-04 2.532709e-04 8.204480e-04)	(4.572478e-04 2.460271e-04 8.194306e-04)	(1.904003e-06 7.243776e-06 1.017427e-06)
0.575046      	(4.711125e-04 2.606820e-04 9.113915e-04)	(4.689581e-04 2.531936e-04 9.097900e-04)	(2.154439e-06 7.488452e-06 1.601496e-06)
0.582546      	(4.829109e-04 2.672894e-04 1.001714e-03)	(4.805810e-04 2.594159e-04 9.996928e-04)	(2.329953e-06 7.873485e-06 2.021679e-06)
0.591207      	(5.017094e-04 2.696865e-04 1.095880e-03)	(4.990534e-04 2.615809e-04 1.093097e-03)	(2.656032e-06 8.105656e-06 2.782820e-06)
0.600961      	(5.195366e-04 2.742480e-04 1.203063e-03)	(5.164774e-04 2.658232e-04 1.199415e-03)	(3.059272e-06 8.424848e-06 3.648408e-06)
0.61207       	(5.386481e-04 2.744593e-04 1.314806e-03)	(5.352126e-04 2.656543e-04 1.310089e-03)	(3.435532e-06 8.805071e-06 4.717080e-06)
0.6249        	(5.594572e-04 2.681818e-04 1.437542e-03)	(5.555576e-04 2.588973e-04 1.431452e-03)	(3.899647e-06 9.284481e-06 6.090004e-06)
0.633002      	(5.676309e-04 2.591703e-04 1.495742e-03)	(5.633561e-04 2.496691e-04 1.488780e-03)	(4.274783e-06 9.501283e-06 6.962073e-06)
0.640519      	(5.759916e-04 2.487737e-04 1.550464e-03)	(5.714476e-04 2.389748e-04 1.542498e-03)	(4.543974e-06 9.798966e-06 7.965623e-06)
0.649017      	(5.907995e-04 2.318826e-04 1.602388e-03)	(5.861451e-04 2.216238e-04 1.593583e-03)	(4.654362e-06 1.025882e-05 8.805146e-06)
0.654303      	(5.961541e-04 2.154379e-04 1.627001e-03)	(5.911134e-04 2.052988e-04 1.617765e-03)	(5.040697e-06 1.013908e-05 9.235742e-06)
0.660339      	(5.918935e-04 2.081276e-04 1.646975e-03)	(5.863822e-04 1.980765e-04 1.637060e-03)	(5.511373e-06 1.005113e-05 9.914766e-06)
0.662234      	(5.702017e-04 1.981015e-04 1.634034e-03)	(5.645522e-04 1.880712e-04 1.624068e-03)	(5.649441e-06 1.003032e-05 9.966281e-06)
0.664493      	(6.194335e-04 1.693313e-04 1.600355e-03)	(6.142665e-04 1.588406e-04 1.590319e-03)	(5.166973e-06 1.049063e-05 1.003610e-05)
0.667176      	(6.096857e-04 1.783032e-04 1.628704e-03)	(6.048584e-04 1.674686e-04 1.618039e-03)	(4.827360e-06 1.083457e-05 1.066549e-05)
0.670211      	(6.044915e-04 1.725616e-04 1.651776e-03)	(5.996934e-04 1.615711e-04 1.640912e-03)	(4.798130e-06 1.099051e-05 1.086328e-05)
0.673816      	(5.990931e-04 1.651282e-04 1.671354e-03)	(5.940846e-04 1.541674e-04 1.660120e-03)	(5.008481e-06 1.096073e-05 1.123444e-05)
0.678142      	(5.931533e-04 1.550952e-04 1.680276e-03)	(5.876577e-04 1.443782e-04 1.668526e-03)	(5.495581e-06 1.071699e-05 1.175019e-05)
0.683197      	(5.874916e-04 1.410416e-04 1.682417e-03)	(5.813011e-04 1.307288e-04 1.670138e-03)	(6.190468e-06 1.031278e-05 1.227948e-05)
0.688952      	(5.875013e-04 1.175809e-04 1.667419e-03)	(5.807244e-04 1.075925e-04 1.654678e-03)	(6.776908e-06 9.988333e-06 1.274048e-05)
0.695731      	(5.788973e-04 9.363249e-05 1.648360e-03)	(5.716410e-04 8.390153e-05 1.635002e-03)	(7.256317e-06 9.730965e-06 1.335885e-05)
0.703362      	(5.648049e-04 6.544577e-05 1.612947e-03)	(5.571096e-04 5.600774e-05 1.599007e-03)	(7.695225e-06 9.438032e-06 1.393997e-05)
0.711203      	(5.487897e-04 3.147674e-05 1.559926e-03)	(5.406151e-04 2.242839e-05 1.545435e-03)	(8.174570e-06 9.048356e-06 1.449154e-05)
0.719662      	(5.186801e-04 1.069808e-06 1.513190e-03)	(5.100577e-04 -7.623041e-06 1.498630e-03)	(8.622397e-06 8.692849e-06 1.455994e-05)
0.720626      	(4.512026e-04 2.335993e-05 1.337601e-03)	(4.424300e-04 1.478004e-05 1.323199e-03)	(8.772583e-06 8.579888e-06 1.440171e-05)
0.721749      	(4.317860e-04 1.415001e-05 1.475326e-03)	(4.229048e-04 5.911156e-06 1.460315e-03)	(8.881172e-06 8.238853e-06 1.501106e-05)
0.723022      	(4.961192e-04 -2.113825e-05 1.390897e-03)	(4.872110e-04 -2.925696e-05 1.375562e-03)	(8.908237e-06 8.118714e-06 1.533530e-05)
0.724488      	(4.797150e-04 -1.949122e-05 1.444789e-03)	(4.706835e-04 -2.741929e-05 1.429246e-03)	(9.031435e-06 7.928069e-06 1.554354e-05)
0.726248      	(5.015080e-04 -3.782599e-05 1.381414e-03)	(4.923441e-04 -4.553938e-05 1.365609e-03)	(9.163894e-06 7.713392e-06 1.580463e-05)
0.728359      	(4.931023e-04 -4.295021e-05 1.366587e-03)	(4.838678e-04 -5.059889e-05 1.350723e-03)	(9.234500e-06 7.648678e-06 1.586344e-05)
0.730893      	(4.811830e-04 -4.957926e-05 1.346526e-03)	(4.718521e-04 -5.711727e-05 1.330600e-03)	(9.330835e-06 7.538012e-06 1.592566e-05)
0.733933      	(4.600929e-04 -5.725166e-05 1.334157e-03)	(4.506543e-04 -6.463390e-05 1.318088e-03)	(9.438673e-06 7.382236e-06 1.606915e-05)
0.737583      	(4.421412e-04 -7.038096e-05 1.287327e-03)	(4.325797e-04 -7.756002e-05 1.271122e-03)	(9.561479e-06 7.179060e-06 1.620462e-05)
0.741964      	(4.160534e-04 -8.626616e-05 1.235575e-03)	(4.063681e-04 -9.321739e-05 1.219321e-03)	(9.685251e-06 6.951234e-06 1.625340e-05)
0.74722       	(3.848922e-04 -1.055901e-04 1.162148e-03)	(3.750435e-04 -1.122124e-04 1.145874e-03)	(9.848742e-06 6.622256e-06 1.627413e-05)
0.75353       	(3.428612e-04 -1.271256e-04 1.067672e-03)	(3.328398e-04 -1.333477e-04 1.051406e-03)	(1.002135e-05 6.222074e-06 1.626568e-05)
0.75864       	(3.019356e-04 -1.416418e-04 9.860516e-04)	(2.917295e-04 -1.474458e-04 9.697815e-04)	(1.020612e-05 5.804012e-06 1.627006e-05)
0.764572      	(2.551926e-04 -1.619576e-04 8.679058e-04)	(2.449000e-04 -1.672782e-04 8.518190e-04)	(1.029257e-05 5.320641e-06 1.608681e-05)
0.771515      	(1.941527e-04 -1.830347e-04 7.443948e-04)	(1.836976e-04 -1.877587e-04 7.284737e-04)	(1.045511e-05 4.724055e-06 1.592108e-05)
0.777169      	(1.456463e-04 -1.995272e-04 6.516676e-04)	(1.354058e-04 -2.040283e-04 6.361521e-04)	(1.024055e-05 4.501083e-06 1.551552e-05)
0.783756      	(7.249577e-05 -2.087548e-04 4.957356e-04)	(6.209550e-05 -2.125619e-04 4.806285e-04)	(1.040028e-05 3.807128e-06 1.510714e-05)
0.789686      	(3.911233e-06 -2.161512e-04 3.535319e-04)	(-6.566894e-06 -2.193223e-04 3.385753e-04)	(1.047813e-05 3.171065e-06 1.495662e-05)
0.795098      	(-5.817941e-05 -2.264894e-04 2.512957e-04)	(-6.842535e-05 -2.293740e-04 2.365194e-04)	(1.024594e-05 2.884523e-06 1.477628e-05)
0.80093       	(-1.233825e-04 -2.357506e-04 1.194994e-04)	(-1.335452e-04 -2.380635e-04 1.051217e-04)	(1.016263e-05 2.312846e-06 1.437767e-05)
0.807461      	(-2.099501e-04 -2.384303e-04 -2.832305e-05)	(-2.199624e-04 -2.400848e-04 -4.211102e-05)	(1.001228e-05 1.654511e-06 1.378797e-05)
0.814816      	(-3.010764e-04 -2.422334e-04 -1.794155e-04)	(-3.107700e-04 -2.432945e-04 -1.923610e-04)	(9.693573e-06 1.061157e-06 1.294543e-05)
0.822566      	(-4.032855e-04 -2.479597e-04 -3.542419e-04)	(-4.127998e-04 -2.481933e-04 -3.661954e-04)	(9.514240e-06 2.335686e-07 1.195352e-05)
0.827469      	(-4.818421e-04 -2.363076e-04 -4.581902e-04)	(-4.910332e-04 -2.360658e-04 -4.695394e-04)	(9.191145e-06 -2.418007e-07 1.134922e-05)
0.83075       	(-5.286182e-04 -2.329929e-04 -5.705185e-04)	(-5.375708e-04 -2.325129e-04 -5.816463e-04)	(8.952558e-06 -4.799983e-07 1.112776e-05)
0.834557      	(-5.854372e-04 -2.335391e-04 -6.299979e-04)	(-5.942799e-04 -2.325726e-04 -6.405294e-04)	(8.842706e-06 -9.665140e-07 1.053153e-05)
0.838974      	(-6.466829e-04 -2.303318e-04 -7.476704e-04)	(-6.551007e-04 -2.290989e-04 -7.577503e-04)	(8.417808e-06 -1.232878e-06 1.007987e-05)
0.844215      	(-7.228058e-04 -2.249324e-04 -8.414396e-04)	(-7.308637e-04 -2.231447e-04 -8.507154e-04)	(8.057884e-06 -1.787744e-06 9.275751e-06)
0.850502      	(-8.169267e-04 -2.127932e-04 -9.962888e-04)	(-8.244969e-04 -2.103443e-04 -1.004683e-03)	(7.570279e-06 -2.448863e-06 8.394127e-06)
0.857372      	(-9.243037e-04 -1.931836e-04 -1.142345e-03)	(-9.310690e-04 -1.902407e-04 -1.149959e-03)	(6.765269e-06 -2.942909e-06 7.613653e-06)
0.85902       	(-9.866114e-04 -1.405090e-04 -1.076850e-03)	(-9.932240e-04 -1.374491e-04 -1.084185e-03)	(6.612579e-06 -3.059831e-06 7.335557e-06)
0.860959      	(-9.944487e-04 -1.641160e-04 -1.219497e-03)	(-1.001160e-03 -1.606005e-04 -1.226846e-03)	(6.710982e-06 -3.515518e-06 7.348959e-06)
0.863211      	(-1.025540e-03 -1.705597e-04 -1.251435e-03)	(-1.031957e-03 -1.668839e-04 -1.258478e-03)	(6.416320e-06 -3.675816e-06 7.042390e-06)
0.865851      	(-1.052025e-03 -1.697964e-04 -1.313076e-03)	(-1.058097e-03 -1.659488e-04 -1.319586e-03)	(6.072303e-06 -3.847527e-06 6.509980e-06)
0.869018      	(-1.104775e-03 -1.611500e-04 -1.363442e-03)	(-1.110545e-03 -1.569932e-04 -1.369432e-03)	(5.770660e-06 -4.156752e-06 5.990698e-06)
0.872819      	(-1.167166e-03 -1.476516e-04 -1.421880e-03)	(-1.172532e-03 -1.431414e-04 -1.427275e-03)	(5.365525e-06 -4.510144e-06 5.394310e-06)
0.877379      	(-1.228817e-03 -1.341026e-04 -1.527279e-03)	(-1.233679e-03 -1.291696e-04 -1.531958e-03)	(4.862362e-06 -4.933033e-06 4.679325e-06)
0.882854      	(-1.308221e-03 -1.154247e-04 -1.626876e-03)	(-1.312476e-03 -1.099919e-04 -1.630582e-03)	(4.254844e-06 -5.432778e-06 3.705367e-06)
0.889421      	(-1.405852e-03 -8.877750e-05 -1.730685e-03)	(-1.409298e-03 -8.278963e-05 -1.733288e-03)	(3.445964e-06 -5.987866e-06 2.603422e-06)
0.897295      	(-1.517306e-03 -5.869043e-05 -1.840945e-03)	(-1.519797e-03 -5.202692e-05 -1.842190e-03)	(2.491504e-06 -6.663503e-06 1.244740e-06)
0.906024      	(-1.636053e-03 -1.641954e-05 -1.948958e-03)	(-1.637437e-03 -9.034430e-06 -1.948739e-03)	(1.384481e-06 -7.385113e-06 -2.192016e-07)
0.915842      	(-1.756525e-03 2.474225e-05 -2.046491e-03)	(-1.756291e-03 3.258748e-05 -2.044598e-03)	(-2.338078e-07 -7.845237e-06 -1.892574e-06)
0.920597      	(-1.789229e-03 5.477280e-05 -2.052806e-03)	(-1.788567e-03 6.303098e-05 -2.050362e-03)	(-6.617144e-07 -8.258179e-06 -2.443904e-06)
0.925065      	(-1.850490e-03 7.532384e-05 -2.079957e-03)	(-1.849231e-03 8.388574e-05 -2.076628e-03)	(-1.259144e-06 -8.561905e-06 -3.329744e-06)
0.930152      	(-1.899861e-03 9.827755e-05 -2.137739e-03)	(-1.897843e-03 1.071479e-04 -2.133579e-03)	(-2.018213e-06 -8.870378e-06 -4.159973e-06)
0.935892      	(-1.951256e-03 1.294175e-04 -2.152424e-03)	(-1.948279e-03 1.385388e-04 -2.147293e-03)	(-2.976185e-06 -9.121276e-06 -5.131049e-06)
0.942566      	(-1.997591e-03 1.578764e-04 -2.153734e-03)	(-1.993441e-03 1.671641e-04 -2.147741e-03)	(-4.149858e-06 -9.287688e-06 -5.993312e-06)
0.948976      	(-2.037514e-03 1.965473e-04 -2.126120e-03)	(-2.032307e-03 2.059988e-04 -2.119225e-03)	(-5.206847e-06 -9.451481e-06 -6.895417e-06)
0.952545      	(-2.038095e-03 2.269979e-04 -2.102304e-03)	(-2.032322e-03 2.365333e-04 -2.094866e-03)	(-5.772799e-06 -9.535450e-06 -7.437557e-06)
0.956717      	(-2.060471e-03 2.355723e-04 -2.059389e-03)	(-2.054128e-03 2.451740e-04 -2.051343e-03)	(-6.342558e-06 -9.601735e-06 -8.046492e-06)
0.961554      	(-2.078820e-03 2.657718e-04 -2.024885e-03)	(-2.071864e-03 2.755201e-04 -2.016409e-03)	(-6.956362e-06 -9.748327e-06 -8.475532e-06)
0.967186      	(-2.085656e-03 3.002344e-04 -1.963991e-03)	(-2.078033e-03 3.101517e-04 -1.955043e-03)	(-7.623284e-06 -9.917298e-06 -8.947829e-06)
0.973733      	(-2.083806e-03 3.456855e-04 -1.867989e-03)	(-2.075312e-03 3.556043e-04 -1.858484e-03)	(-8.493194e-06 -9.918838e-06 -9.505364e-06)
0.981582      	(-2.069480e-03 4.029351e-04 -1.722186e-03)	(-2.059963e-03 4.127775e-04 -1.712170e-03)	(-9.516650e-06 -9.842353e-06 -1.001624e-05)
0.990756      	(-2.029625e-03 4.740335e-04 -1.510113e-03)	(-2.019075e-03 4.837201e-04 -1.499738e-03)	(-1.054956e-05 -9.686655e-06 -1.037533e-05)
1.00109       	(-1.952453e-03 5.621575e-04 -1.206837e-03)	(-1.940527e-03 5.710568e-04 -1.196353e-03)	(-1.192600e-05 -8.899287e-06 -1.048344e-05)
1.01292       	(-1.826180e-03 6.769219e-04 -7.734782e-04)	(-1.812711e-03 6.844338e-04 -7.633420e-04)	(-1.346898e-05 -7.511924e-06 -1.013619e-05)
1.02034       	(-1.687783e-03 7.317958e-04 -4.748574e-04)	(-1.673303e-03 7.381812e-04 -4.651272e-04)	(-1.448001e-05 -6.385370e-06 -9.730198e-06)
1.02864       	(-1.557110e-03 8.278866e-04 -9.947514e-05)	(-1.541740e-03 8.328705e-04 -9.054370e-05)	(-1.536951e-05 -4.983928e-06 -8.931441e-06)
1.03471       	(-1.415540e-03 8.841045e-04 2.065253e-04)	(-1.399220e-03 8.877009e-04 2.145491e-04)	(-1.632011e-05 -3.596366e-06 -8.023795e-06)
1.04169       	(-1.269509e-03 9.830543e-04 6.280539e-04)	(-1.252242e-03 9.848632e-04 6.353465e-04)	(-1.726743e-05 -1.808932e-06 -7.292628e-06)
1.04973       	(-1.067289e-03 1.115669e-03 1.178445e-03)	(-1.048835e-03 1.114883e-03 1.184243e-03)	(-1.845337e-05 7.859157e-07 -5.798396e-06)
1.0581        	(-8.101088e-04 1.274993e-03 1.844674e-03)	(-7.903724e-04 1.271000e-03 1.848332e-03)	(-1.973641e-05 3.992526e-06 -3.657944e-06)
1.06758       	(-4.725386e-04 1.475442e-03 2.704831e-03)	(-4.515999e-04 1.467416e-03 2.705342e-03)	(-2.093862e-05 8.025086e-06 -5.105857e-07)
1.07824       	(-1.138879e-05 1.721650e-03 3.814960e-03)	(1.095382e-05 1.708043e-03 3.811005e-03)	(-2.234261e-05 1.360689e-05 3.955104e-06)
1.08614       	(4.125564e-04 1.912641e-03 4.741588e-03)	(4.361587e-04 1.893981e-03 4.733886e-03)	(-2.360229e-05 1.866026e-05 7.702045e-06)
1.095         	(9.525872e-04 2.142611e-03 5.926375e-03)	(9.774242e-04 2.117766e-03 5.913657e-03)	(-2.483704e-05 2.484444e-05 1.271844e-05)
1.09852       	(1.253635e-03 2.212152e-03 6.378664e-03)	(1.278960e-03 2.184481e-03 6.363869e-03)	(-2.532531e-05 2.767128e-05 1.479553e-05)
1.10263       	(1.549680e-03 2.301205e-03 6.990627e-03)	(1.575495e-03 2.270103e-03 6.973629e-03)	(-2.581568e-05 3.110235e-05 1.699819e-05)
1.10734       	(1.915435e-03 2.429620e-03 7.733890e-03)	(1.941842e-03 2.394370e-03 7.713552e-03)	(-2.640657e-05 3.525031e-05 2.033845e-05)
1.11282       	(2.404858e-03 2.578571e-03 8.685671e-03)	(2.431921e-03 2.538160e-03 8.661050e-03)	(-2.706301e-05 4.041119e-05 2.462027e-05)
1.1194        	(3.079779e-03 2.750140e-03 9.903760e-03)	(3.107354e-03 2.703258e-03 9.873551e-03)	(-2.757531e-05 4.688202e-05 3.020953e-05)
1.12729       	(4.026336e-03 2.920390e-03 1.146373e-02)	(4.054010e-03 2.865390e-03 1.142628e-02)	(-2.767409e-05 5.500021e-05 3.744725e-05)
1.13615       	(5.282754e-03 3.043168e-03 1.331867e-02)	(5.310039e-03 2.978445e-03 1.327273e-02)	(-2.728477e-05 6.472339e-05 4.594477e-05)
1.14349       	(6.508386e-03 3.057808e-03 1.481373e-02)	(6.534790e-03 2.984519e-03 1.476000e-02)	(-2.640350e-05 7.328969e-05 5.372540e-05)
1.14993       	(7.694664e-03 3.009238e-03 1.608703e-02)	(7.719872e-03 2.928064e-03 1.602606e-02)	(-2.520808e-05 8.117484e-05 6.096966e-05)
1.15741       	(9.163110e-03 2.947664e-03 1.764983e-02)	(9.186352e-03 2.857194e-03 1.758049e-02)	(-2.324142e-05 9.046959e-05 6.934734e-05)
1.166         	(1.103670e-02 2.813978e-03 1.934584e-02)	(1.105674e-02 2.712866e-03 1.926707e-02)	(-2.003537e-05 1.011122e-04 7.876972e-05)
1.17594       	(1.338768e-02 2.575100e-03 2.111958e-02)	(1.340302e-02 2.461628e-03 2.103047e-02)	(-1.534323e-05 1.134722e-04 8.911163e-05)
1.18785       	(1.643510e-02 2.221385e-03 2.284949e-02)	(1.644352e-02 2.093356e-03 2.274954e-02)	(-8.415113e-06 1.280295e-04 9.994940e-05)
1.20123       	(2.003800e-02 1.740861e-03 2.413456e-02)	(2.003737e-02 1.596688e-03 2.402418e-02)	(6.363792e-07 1.441727e-04 1.103818e-04)
1.21027       	(2.265484e-02 1.224121e-03 2.432270e-02)	(2.264678e-02 1.067445e-03 2.420474e-02)	(8.063278e-06 1.566755e-04 1.179554e-04)
1.21945       	(2.515235e-02 8.495196e-04 2.430261e-02)	(2.513629e-02 6.801486e-04 2.417825e-02)	(1.605807e-05 1.693711e-04 1.243604e-04)
1.22442       	(2.665265e-02 5.287834e-04 2.393089e-02)	(2.663136e-02 3.514600e-04 2.380222e-02)	(2.128728e-05 1.773234e-04 1.286736e-04)