# Moment      
# CofR        : (0.000000e+00 0.000000e+00 0.000000e+00)
#
# Time        	(total_x total_y total_z)	(pressure_x pressure_y pressure_z)	(viscous_x viscous_y viscous_z)
1             	(-1.670179e-01 8.491746e-02 1.954201e-03)	(-1.670267e-01 8.410851e-02 1.949165e-03)	(8.799567e-06 8.089490e-04 5.036511e-06)
2             	(-1.646142e-01 8.102668e-02 -3.356823e-04)	(-1.647028e-01 8.046189e-02 -3.307166e-04)	(8.860833e-05 5.647837e-04 -4.965718e-06)
3             	(-1.205173e-01 5.523104e-02 -1.417398e-02)	(-1.206602e-01 5.481117e-02 -1.415988e-02)	(1.429193e-04 4.198682e-04 -1.409426e-05)
4             	(-6.000892e-02 1.722005e-02 -3.402309e-02)	(-6.018201e-02 1.683744e-02 -3.396015e-02)	(1.730955e-04 3.826050e-04 -6.293416e-05)
5             	(-6.565306e-04 -1.663517e-02 -5.322875e-02)	(-8.197512e-04 -1.701460e-02 -5.320298e-02)	(1.632206e-04 3.794370e-04 -2.576461e-05)
6             	(4.072321e-02 -3.509557e-02 -6.242708e-02)	(4.058831e-02 -3.553366e-02 -6.235491e-02)	(1.348980e-04 4.380880e-04 -7.216132e-05)
7             	(5.782573e-02 -3.862721e-02 -6.084287e-02)	(5.772795e-02 -3.914019e-02 -6.076342e-02)	(9.777938e-05 5.129738e-04 -7.944238e-05)
8             	(5.591051e-02 -3.226076e-02 -5.652312e-02)	(5.585016e-02 -3.281221e-02 -5.640601e-02)	(6.035399e-05 5.514524e-04 -1.171086e-04)
9             	(3.814710e-02 -1.701887e-02 -3.773273e-02)	(3.811905e-02 -1.754451e-02 -3.760464e-02)	(2.804272e-05 5.256414e-04 -1.280952e-04)
10            	(1.425085e-02 -1.081528e-03 -1.824361e-02)	(1.423907e-02 -1.535418e-03 -1.810290e-02)	(1.177159e-05 4.538900e-04 -1.407101e-04)
11            	(-8.193358e-03 1.019929e-02 -3.641535e-03)	(-8.200296e-03 9.827775e-03 -3.513370e-03)	(6.937838e-06 3.715185e-04 -1.281649e-04)
12            	(-2.239832e-02 1.562549e-02 2.057441e-03)	(-2.240810e-02 1.533338e-02 2.161344e-03)	(9.780669e-06 2.921061e-04 -1.039029e-04)
13            	(-2.757193e-02 1.547663e-02 4.404857e-04)	(-2.758874e-02 1.524287e-02 5.248053e-04)	(1.681368e-05 2.337577e-04 -8.431956e-05)
14            	(-2.637178e-02 1.216495e-02 -2.847556e-03)	(-2.639767e-02 1.196450e-02 -2.779510e-03)	(2.589599e-05 2.004484e-04 -6.804641e-05)
15            	(-1.949034e-02 6.006911e-03 -1.470015e-02)	(-1.952318e-02 5.813844e-03 -1.463997e-02)	(3.283195e-05 1.930671e-04 -6.017781e-05)
16            	(-1.090794e-02 3.108031e-04 -2.572612e-02)	(-1.094311e-02 1.058679e-04 -2.566236e-02)	(3.516732e-05 2.049353e-04 -6.375598e-05)
17            	(-4.506887e-03 -3.017180e-03 -3.248816e-02)	(-4.540217e-03 -3.239679e-03 -3.241302e-02)	(3.333058e-05 2.224994e-04 -7.514394e-05)
18            	(-2.397784e-04 -4.643727e-03 -3.483137e-02)	(-2.687362e-04 -4.882861e-03 -3.474311e-02)	(2.895775e-05 2.391333e-04 -8.826608e-05)
19            	(1.893640e-03 -4.632924e-03 -3.260725e-02)	(1.870181e-03 -4.881904e-03 -3.250830e-02)	(2.345902e-05 2.489801e-04 -9.894519e-05)
20            	(1.497250e-03 -3.565714e-03 -3.064986e-02)	(1.479353e-03 -3.815827e-03 -3.054769e-02)	(1.789685e-05 2.501134e-04 -1.021728e-04)
21            	(-7.612981e-04 -1.625157e-03 -2.448829e-02)	(-7.751536e-04 -1.868212e-03 -2.438994e-02)	(1.385555e-05 2.430552e-04 -9.835187e-05)
22            	(-3.348350e-03 -6.070702e-05 -1.891936e-02)	(-3.360115e-03 -2.904641e-04 -1.882719e-02)	(1.176555e-05 2.297571e-04 -9.217433e-05)
23            	(-5.670135e-03 1.114095e-03 -1.586546e-02)	(-5.681331e-03 8.991337e-04 -1.577994e-02)	(1.119600e-05 2.149610e-04 -8.551340e-05)
24            	(-7.394272e-03 1.791139e-03 -1.504720e-02)	(-7.405597e-03 1.589828e-03 -1.496845e-02)	(1.132496e-05 2.013112e-04 -7.874657e-05)
25            	(-8.493504e-03 2.250219e-03 -1.628673e-02)	(-8.505148e-03 2.059897e-03 -1.621343e-02)	(1.164353e-05 1.903223e-04 -7.329788e-05)
26            	(-8.548626e-03 1.946282e-03 -1.773014e-02)	(-8.560435e-03 1.764258e-03 -1.765980e-02)	(1.180894e-05 1.820241e-04 -7.034149e-05)
27            	(-8.303603e-03 1.535645e-03 -1.992277e-02)	(-8.315285e-03 1.359111e-03 -1.985217e-02)	(1.168145e-05 1.765342e-04 -7.059576e-05)
28            	(-7.740146e-03 9.139929e-04 -2.281378e-02)	(-7.751276e-03 7.410359e-04 -2.273962e-02)	(1.113008e-05 1.729569e-04 -7.416364e-05)
29            	(-6.960369e-03 3.856321e-04 -2.570162e-02)	(-6.970609e-03 2.155103e-04 -2.562198e-02)	(1.023960e-05 1.701218e-04 -7.963513e-05)
30            	(-6.202274e-03 6.407519e-06 -2.804332e-02)	(-6.211453e-03 -1.605024e-04 -2.795762e-02)	(9.179064e-06 1.669099e-04 -8.570306e-05)
31            	(-5.601531e-03 -1.714046e-04 -2.961503e-02)	(-5.609622e-03 -3.340685e-04 -2.952330e-02)	(8.090714e-06 1.626639e-04 -9.173839e-05)
32            	(-5.218287e-03 -2.617163e-04 -3.054360e-02)	(-5.225373e-03 -4.189608e-04 -3.044630e-02)	(7.086048e-06 1.572445e-04 -9.729973e-05)
33            	(-5.025965e-03 -3.135825e-04 -3.092917e-02)	(-5.032207e-03 -4.646113e-04 -3.082718e-02)	(6.242317e-06 1.510288e-04 -1.019861e-04)
34            	(-4.971820e-03 -3.348992e-04 -3.096999e-02)	(-4.977408e-03 -4.794802e-04 -3.086416e-02)	(5.587285e-06 1.445810e-04 -1.058309e-04)
35            	(-4.954685e-03 -3.575811e-04 -3.086806e-02)	(-4.959834e-03 -4.960247e-04 -3.075897e-02)	(5.149163e-06 1.384436e-04 -1.090936e-04)
36            	(-4.989292e-03 -3.811983e-04 -3.069726e-02)	(-4.994209e-03 -5.142123e-04 -3.058533e-02)	(4.917226e-06 1.330140e-04 -1.119361e-04)
37            	(-5.059904e-03 -3.969281e-04 -3.052566e-02)	(-5.064754e-03 -5.254832e-04 -3.041120e-02)	(4.850016e-06 1.285551e-04 -1.144553e-04)
38            	(-5.168653e-03 -4.019543e-04 -3.039273e-02)	(-5.173531e-03 -5.270010e-04 -3.027599e-02)	(4.878721e-06 1.250467e-04 -1.167348e-04)
39            	(-5.317727e-03 -3.912966e-04 -3.032629e-02)	(-5.322652e-03 -5.135979e-04 -3.020754e-02)	(4.925764e-06 1.223013e-04 -1.187433e-04)
40            	(-5.504000e-03 -4.283724e-04 -3.038838e-02)	(-5.508916e-03 -5.483974e-04 -3.026799e-02)	(4.916185e-06 1.200250e-04 -1.203881e-04)
41            	(-5.675369e-03 -4.219841e-04 -3.052126e-02)	(-5.680196e-03 -5.399735e-04 -3.039981e-02)	(4.827194e-06 1.179893e-04 -1.214527e-04)
42            	(-5.839250e-03 -3.748964e-04 -3.069511e-02)	(-5.843887e-03 -4.908769e-04 -3.057339e-02)	(4.637254e-06 1.159805e-04 -1.217159e-04)
43            	(-6.002564e-03 -2.644911e-04 -3.081195e-02)	(-6.006944e-03 -3.784917e-04 -3.069074e-02)	(4.380110e-06 1.140006e-04 -1.212095e-04)
44            	(-6.138118e-03 -2.387675e-04 -3.101277e-02)	(-6.142164e-03 -3.507713e-04 -3.089270e-02)	(4.046354e-06 1.120037e-04 -1.200646e-04)
45            	(-6.248396e-03 -2.041434e-04 -3.115154e-02)	(-6.252055e-03 -3.142532e-04 -3.103317e-02)	(3.659595e-06 1.101098e-04 -1.183676e-04)
46            	(-6.315726e-03 -1.667643e-04 -3.122727e-02)	(-6.318974e-03 -2.751590e-04 -3.111102e-02)	(3.248514e-06 1.083947e-04 -1.162591e-04)
47            	(-6.345745e-03 -1.377306e-04 -3.124592e-02)	(-6.348562e-03 -2.446026e-04 -3.113210e-02)	(2.817019e-06 1.068720e-04 -1.138135e-04)
48            	(-6.354963e-03 -1.205782e-04 -3.121219e-02)	(-6.357331e-03 -2.261171e-04 -3.110112e-02)	(2.367184e-06 1.055389e-04 -1.110623e-04)
49            	(-6.358089e-03 -1.111570e-04 -3.113262e-02)	(-6.359996e-03 -2.155336e-04 -3.102459e-02)	(1.907740e-06 1.043766e-04 -1.080357e-04)
50            	(-6.363668e-03 -1.055560e-04 -3.101261e-02)	(-6.365111e-03 -2.088796e-04 -3.090786e-02)	(1.443011e-06 1.033235e-04 -1.047486e-04)
51            	(-6.379411e-03 -9.996986e-05 -3.085534e-02)	(-6.380381e-03 -2.022701e-04 -3.075415e-02)	(9.703477e-07 1.023003e-04 -1.011976e-04)
52            	(-6.401214e-03 -8.076217e-05 -3.066397e-02)	(-6.401703e-03 -1.820035e-04 -3.056653e-02)	(4.891086e-07 1.012413e-04 -9.743880e-05)
53            	(-6.433095e-03 -6.023005e-05 -3.046065e-02)	(-6.433104e-03 -1.603463e-04 -3.036713e-02)	(8.955536e-09 1.001163e-04 -9.352161e-05)
54            	(-6.490557e-03 -4.943211e-05 -3.025450e-02)	(-6.490103e-03 -1.483671e-04 -3.016501e-02)	(-4.543345e-07 9.893502e-05 -8.948598e-05)
55            	(-6.569467e-03 -3.957786e-05 -3.006403e-02)	(-6.568578e-03 -1.372827e-04 -2.997860e-02)	(-8.892396e-07 9.770487e-05 -8.542475e-05)
56            	(-6.659683e-03 -2.266513e-05 -2.991301e-02)	(-6.658398e-03 -1.191096e-04 -2.983152e-02)	(-1.284700e-06 9.644447e-05 -8.148657e-05)
57            	(-6.756942e-03 -1.063028e-05 -2.980911e-02)	(-6.755299e-03 -1.057681e-04 -2.973135e-02)	(-1.642060e-06 9.513780e-05 -7.776246e-05)
58            	(-6.857928e-03 -2.495983e-06 -2.975931e-02)	(-6.855978e-03 -9.632237e-05 -2.968500e-02)	(-1.950042e-06 9.382639e-05 -7.430784e-05)
59            	(-6.956268e-03 2.484451e-06 -2.976795e-02)	(-6.954058e-03 -9.004764e-05 -2.969676e-02)	(-2.209207e-06 9.253209e-05 -7.118439e-05)
60            	(-7.045827e-03 5.452604e-06 -2.983715e-02)	(-7.043401e-03 -8.582885e-05 -2.976869e-02)	(-2.425890e-06 9.128145e-05 -6.845667e-05)
61            	(-7.118022e-03 7.211152e-06 -2.996679e-02)	(-7.115417e-03 -8.288541e-05 -2.990060e-02)	(-2.605553e-06 9.009656e-05 -6.619032e-05)
62            	(-7.174962e-03 8.772932e-06 -3.014908e-02)	(-7.172207e-03 -8.020412e-05 -3.008464e-02)	(-2.755268e-06 8.897705e-05 -6.443319e-05)
63            	(-7.215718e-03 1.050347e-05 -3.037510e-02)	(-7.212841e-03 -7.741734e-05 -3.031189e-02)	(-2.877139e-06 8.792082e-05 -6.321338e-05)
64            	(-7.239867e-03 1.302342e-05 -3.063392e-02)	(-7.236896e-03 -7.390406e-05 -3.057140e-02)	(-2.970492e-06 8.692748e-05 -6.252200e-05)
65            	(-7.238598e-03 1.627245e-05 -3.090317e-02)	(-7.235569e-03 -6.972963e-05 -3.084087e-02)	(-3.029163e-06 8.600209e-05 -6.230187e-05)
66            	(-7.228237e-03 2.205756e-05 -3.118192e-02)	(-7.225198e-03 -6.312318e-05 -3.111943e-02)	(-3.038179e-06 8.518074e-05 -6.248863e-05)
67            	(-7.210025e-03 3.109055e-05 -3.146467e-02)	(-7.207039e-03 -5.340312e-05 -3.140165e-02)	(-2.985842e-06 8.449367e-05 -6.301152e-05)
68            	(-7.184438e-03 4.352665e-05 -3.174454e-02)	(-7.181562e-03 -4.038500e-05 -3.168074e-02)	(-2.876130e-06 8.391164e-05 -6.380047e-05)
69            	(-7.152038e-03 5.929452e-05 -3.201712e-02)	(-7.149323e-03 -2.411633e-05 -3.195233e-02)	(-2.715458e-06 8.341085e-05 -6.479027e-05)
70            	(-7.104123e-03 7.299263e-05 -3.229605e-02)	(-7.101618e-03 -1.001058e-05 -3.223008e-02)	(-2.504882e-06 8.300321e-05 -6.596820e-05)
71            	(-7.045135e-03 6.985317e-05 -3.255156e-02)	(-7.042883e-03 -1.282812e-05 -3.248422e-02)	(-2.251741e-06 8.268130e-05 -6.734106e-05)
72            	(-6.992671e-03 8.548865e-05 -3.279309e-02)	(-6.990706e-03 3.044718e-06 -3.272421e-02)	(-1.964783e-06 8.244393e-05 -6.888540e-05)
73            	(-6.944234e-03 1.005428e-04 -3.301864e-02)	(-6.942574e-03 1.827060e-05 -3.294806e-02)	(-1.660252e-06 8.227221e-05 -7.058316e-05)
74            	(-6.903368e-03 1.138798e-04 -3.323104e-02)	(-6.902008e-03 3.174233e-05 -3.315866e-02)	(-1.360279e-06 8.213745e-05 -7.238171e-05)
75            	(-6.873914e-03 1.242531e-04 -3.343384e-02)	(-6.872825e-03 4.225076e-05 -3.335964e-02)	(-1.089348e-06 8.200230e-05 -7.419226e-05)
76            	(-6.856147e-03 1.302907e-04 -3.362680e-02)	(-6.855286e-03 4.845304e-05 -3.355084e-02)	(-8.610891e-07 8.183763e-05 -7.595479e-05)
77            	(-6.849563e-03 1.305040e-04 -3.381277e-02)	(-6.848887e-03 4.886322e-05 -3.373514e-02)	(-6.761555e-07 8.164074e-05 -7.763008e-05)
78            	(-6.854374e-03 1.249530e-04 -3.398574e-02)	(-6.853853e-03 4.350831e-05 -3.390659e-02)	(-5.205665e-07 8.144464e-05 -7.914870e-05)
79            	(-6.871471e-03 1.128868e-04 -3.414078e-02)	(-6.871086e-03 3.161845e-05 -3.406034e-02)	(-3.845025e-07 8.126837e-05 -8.043948e-05)
80            	(-6.908555e-03 9.630527e-05 -3.427020e-02)	(-6.908276e-03 1.522142e-05 -3.418872e-02)	(-2.785155e-07 8.108385e-05 -8.148236e-05)
81            	(-6.955099e-03 7.626216e-05 -3.436437e-02)	(-6.954877e-03 -4.575145e-06 -3.428207e-02)	(-2.221271e-07 8.083730e-05 -8.230133e-05)
82            	(-7.010120e-03 5.441563e-05 -3.442030e-02)	(-7.009882e-03 -2.605896e-05 -3.433735e-02)	(-2.382711e-07 8.047459e-05 -8.294671e-05)
83            	(-7.069452e-03 3.254578e-05 -3.443516e-02)	(-7.069131e-03 -4.747356e-05 -3.435173e-02)	(-3.203483e-07 8.001934e-05 -8.342974e-05)
84            	(-7.128293e-03 1.198300e-05 -3.440893e-02)	(-7.127835e-03 -6.750295e-05 -3.432520e-02)	(-4.584498e-07 7.948595e-05 -8.372424e-05)
85            	(-7.184411e-03 -5.813511e-06 -3.434505e-02)	(-7.183777e-03 -8.472520e-05 -3.426125e-02)	(-6.347256e-07 7.891168e-05 -8.379534e-05)
86            	(-7.234989e-03 -1.971587e-05 -3.424875e-02)	(-7.234160e-03 -9.804065e-05 -3.416517e-02)	(-8.292240e-07 7.832478e-05 -8.358629e-05)
87            	(-7.279322e-03 -2.878857e-05 -3.412591e-02)	(-7.278298e-03 -1.065334e-04 -3.404286e-02)	(-1.024102e-06 7.774484e-05 -8.304515e-05)
88            	(-7.316871e-03 -3.183119e-05 -3.398370e-02)	(-7.315669e-03 -1.090162e-04 -3.390157e-02)	(-1.201866e-06 7.718502e-05 -8.212622e-05)
89            	(-7.348047e-03 -2.786904e-05 -3.383100e-02)	(-7.346700e-03 -1.045237e-04 -3.375020e-02)	(-1.346352e-06 7.665465e-05 -8.080082e-05)
90            	(-7.375183e-03 -1.623731e-05 -3.367845e-02)	(-7.373737e-03 -9.239338e-05 -3.359938e-02)	(-1.446382e-06 7.615607e-05 -7.907228e-05)
91            	(-7.396073e-03 1.294625e-05 -3.353058e-02)	(-7.394583e-03 -6.277996e-05 -3.345359e-02)	(-1.489644e-06 7.572622e-05 -7.699253e-05)
92            	(-7.411674e-03 3.913528e-05 -3.340221e-02)	(-7.410201e-03 -3.623848e-05 -3.332756e-02)	(-1.473250e-06 7.537376e-05 -7.465615e-05)
93            	(-7.418242e-03 5.970861e-05 -3.330709e-02)	(-7.416841e-03 -1.538229e-05 -3.323490e-02)	(-1.400596e-06 7.509090e-05 -7.218860e-05)
94            	(-7.424364e-03 7.999671e-05 -3.324124e-02)	(-7.423084e-03 5.124589e-06 -3.317153e-02)	(-1.280762e-06 7.487212e-05 -6.971050e-05)
95            	(-7.431403e-03 9.785306e-05 -3.320412e-02)	(-7.430268e-03 2.317437e-05 -3.313679e-02)	(-1.134293e-06 7.467869e-05 -6.733558e-05)
96            	(-7.440144e-03 1.114997e-04 -3.319570e-02)	(-7.439157e-03 3.704090e-05 -3.313055e-02)	(-9.868137e-07 7.445881e-05 -6.514242e-05)
97            	(-7.451968e-03 1.211857e-04 -3.321628e-02)	(-7.451103e-03 4.703990e-05 -3.315310e-02)	(-8.647388e-07 7.414577e-05 -6.317845e-05)
98            	(-7.466967e-03 1.276762e-04 -3.326323e-02)	(-7.466180e-03 5.398787e-05 -3.320178e-02)	(-7.864648e-07 7.368834e-05 -6.145440e-05)
99            	(-7.484861e-03 1.323761e-04 -3.333491e-02)	(-7.484108e-03 5.927832e-05 -3.327496e-02)	(-7.525674e-07 7.309778e-05 -5.995947e-05)
100           	(-7.501700e-03 1.351308e-04 -3.341669e-02)	(-7.500948e-03 6.271474e-05 -3.335801e-02)	(-7.516726e-07 7.241610e-05 -5.867895e-05)
101           	(-7.521198e-03 1.423562e-04 -3.351611e-02)	(-7.520434e-03 7.064381e-05 -3.345851e-02)	(-7.637370e-07 7.171242e-05 -5.759147e-05)
102           	(-7.542270e-03 1.529410e-04 -3.362507e-02)	(-7.541496e-03 8.189615e-05 -3.356838e-02)	(-7.734730e-07 7.104489e-05 -5.669492e-05)
103           	(-7.561911e-03 1.648482e-04 -3.374147e-02)	(-7.561141e-03 9.439682e-05 -3.368550e-02)	(-7.696405e-07 7.045142e-05 -5.596719e-05)
104           	(-7.579773e-03 1.771329e-04 -3.386117e-02)	(-7.579030e-03 1.071795e-04 -3.380578e-02)	(-7.428940e-07 6.995338e-05 -5.539578e-05)
105           	(-7.595771e-03 1.885480e-04 -3.398026e-02)	(-7.595082e-03 1.189896e-04 -3.392528e-02)	(-6.885074e-07 6.955840e-05 -5.497690e-05)
106           	(-7.609908e-03 1.978989e-04 -3.409496e-02)	(-7.609308e-03 1.286239e-04 -3.404027e-02)	(-5.999899e-07 6.927498e-05 -5.469574e-05)
107           	(-7.622483e-03 2.039367e-04 -3.420378e-02)	(-7.622009e-03 1.348399e-04 -3.414926e-02)	(-4.736773e-07 6.909676e-05 -5.452279e-05)
108           	(-7.650269e-03 2.216317e-04 -3.430540e-02)	(-7.649960e-03 1.526189e-04 -3.425097e-02)	(-3.097776e-07 6.901273e-05 -5.443142e-05)
109           	(-7.658169e-03 2.175079e-04 -3.439941e-02)	(-7.658047e-03 1.485511e-04 -3.434497e-02)	(-1.219499e-07 6.895684e-05 -5.443590e-05)
110           	(-7.664642e-03 2.078971e-04 -3.449004e-02)	(-7.664717e-03 1.390093e-04 -3.443550e-02)	(7.492905e-08 6.888786e-05 -5.454405e-05)
111           	(-7.670441e-03 1.931692e-04 -3.458133e-02)	(-7.670705e-03 1.244018e-04 -3.452656e-02)	(2.634183e-07 6.876738e-05 -5.476317e-05)
112           	(-7.676516e-03 1.741644e-04 -3.467646e-02)	(-7.676938e-03 1.056305e-04 -3.462137e-02)	(4.222194e-07 6.853383e-05 -5.509294e-05)
113           	(-7.683692e-03 1.523069e-04 -3.477758e-02)	(-7.684225e-03 8.417376e-05 -3.472205e-02)	(5.337812e-07 6.813316e-05 -5.552586e-05)
114           	(-7.692840e-03 1.291885e-04 -3.488342e-02)	(-7.693431e-03 6.163512e-05 -3.482740e-02)	(5.906556e-07 6.755333e-05 -5.602468e-05)
115           	(-7.706711e-03 1.065265e-04 -3.499083e-02)	(-7.707304e-03 3.971972e-05 -3.493428e-02)	(5.929011e-07 6.680683e-05 -5.654645e-05)
116           	(-7.723150e-03 8.581678e-05 -3.509788e-02)	(-7.723698e-03 1.989770e-05 -3.504083e-02)	(5.486441e-07 6.591908e-05 -5.705088e-05)
117           	(-7.742130e-03 6.815644e-05 -3.520187e-02)	(-7.742598e-03 3.220746e-06 -3.514437e-02)	(4.680481e-07 6.493569e-05 -5.750464e-05)
118           	(-7.762843e-03 5.423487e-05 -3.529773e-02)	(-7.763207e-03 -9.674207e-06 -3.523985e-02)	(3.639936e-07 6.390908e-05 -5.788197e-05)
119           	(-7.784300e-03 4.415011e-05 -3.538052e-02)	(-7.784546e-03 -1.872419e-05 -3.532234e-02)	(2.466327e-07 6.287430e-05 -5.817217e-05)
120           	(-7.805724e-03 3.751417e-05 -3.544649e-02)	(-7.805850e-03 -2.435389e-05 -3.538811e-02)	(1.258813e-07 6.186806e-05 -5.837068e-05)
121           	(-7.826490e-03 3.363461e-05 -3.549324e-02)	(-7.826501e-03 -2.729187e-05 -3.543477e-02)	(1.080598e-08 6.092648e-05 -5.846854e-05)
122           	(-7.846664e-03 3.142071e-05 -3.552095e-02)	(-7.846567e-03 -2.862519e-05 -3.546249e-02)	(-9.755137e-08 6.004590e-05 -5.846102e-05)
123           	(-7.864554e-03 2.956799e-05 -3.553096e-02)	(-7.864353e-03 -2.964389e-05 -3.547261e-02)	(-2.007259e-07 5.921188e-05 -5.834980e-05)
124           	(-7.883355e-03 2.792063e-05 -3.552438e-02)	(-7.883051e-03 -3.048448e-05 -3.546625e-02)	(-3.041161e-07 5.840511e-05 -5.813141e-05)
125           	(-7.903342e-03 2.618962e-05 -3.550464e-02)	(-7.902929e-03 -3.140959e-05 -3.544684e-02)	(-4.127059e-07 5.759921e-05 -5.780338e-05)
126           	(-7.924656e-03 2.403638e-05 -3.547478e-02)	(-7.924124e-03 -3.273068e-05 -3.541741e-02)	(-5.323623e-07 5.676705e-05 -5.736994e-05)
127           	(-7.949558e-03 2.179638e-05 -3.543729e-02)	(-7.948891e-03 -3.409643e-05 -3.538045e-02)	(-6.671490e-07 5.589282e-05 -5.683555e-05)
128           	(-7.975797e-03 1.939004e-05 -3.539590e-02)	(-7.974977e-03 -3.557038e-05 -3.533969e-02)	(-8.194681e-07 5.496043e-05 -5.620834e-05)
129           	(-8.003263e-03 1.730964e-05 -3.535330e-02)	(-8.002274e-03 -3.665473e-05 -3.529781e-02)	(-9.885888e-07 5.396437e-05 -5.549087e-05)
130           	(-8.031802e-03 1.606303e-05 -3.531200e-02)	(-8.030628e-03 -3.684560e-05 -3.525731e-02)	(-1.173252e-06 5.290863e-05 -5.469200e-05)
131           	(-8.061018e-03 1.584032e-05 -3.527440e-02)	(-8.059645e-03 -3.596125e-05 -3.522057e-02)	(-1.373157e-06 5.180157e-05 -5.382672e-05)
132           	(-8.090757e-03 1.665150e-05 -3.524171e-02)	(-8.089169e-03 -3.399994e-05 -3.518881e-02)	(-1.587977e-06 5.065144e-05 -5.290937e-05)
133           	(-8.120144e-03 1.792628e-05 -3.521499e-02)	(-8.118325e-03 -3.152154e-05 -3.516303e-02)	(-1.818629e-06 4.944781e-05 -5.196041e-05)
134           	(-8.148223e-03 1.897401e-05 -3.519466e-02)	(-8.146157e-03 -2.921205e-05 -3.514364e-02)	(-2.065778e-06 4.818606e-05 -5.101290e-05)
135           	(-8.174229e-03 1.911098e-05 -3.518088e-02)	(-8.171901e-03 -2.778011e-05 -3.513079e-02)	(-2.327456e-06 4.689109e-05 -5.008714e-05)
136           	(-8.198885e-03 1.810247e-05 -3.517375e-02)	(-8.196282e-03 -2.746982e-05 -3.512455e-02)	(-2.602828e-06 4.557229e-05 -4.919891e-05)
137           	(-8.219137e-03 1.460968e-05 -3.517337e-02)	(-8.216243e-03 -2.960318e-05 -3.512499e-02)	(-2.893625e-06 4.421286e-05 -4.837933e-05)
138           	(-8.236465e-03 8.660108e-06 -3.518055e-02)	(-8.233265e-03 -3.414488e-05 -3.513289e-02)	(-3.200239e-06 4.280499e-05 -4.765312e-05)
139           	(-8.250985e-03 1.169879e-07 -3.519532e-02)	(-8.247466e-03 -4.125126e-05 -3.514831e-02)	(-3.518707e-06 4.136824e-05 -4.701695e-05)
140           	(-8.257904e-03 -1.179369e-05 -3.520829e-02)	(-8.254056e-03 -5.168548e-05 -3.516180e-02)	(-3.848588e-06 3.989179e-05 -4.648454e-05)
141           	(-8.265563e-03 -2.543610e-05 -3.523742e-02)	(-8.261373e-03 -6.380109e-05 -3.519136e-02)	(-4.190237e-06 3.836499e-05 -4.606602e-05)
142           	(-8.272231e-03 -4.041925e-05 -3.527731e-02)	(-8.267689e-03 -7.721757e-05 -3.523156e-02)	(-4.542051e-06 3.679832e-05 -4.575014e-05)
143           	(-8.277898e-03 -5.620235e-05 -3.532638e-02)	(-8.272995e-03 -9.139469e-05 -3.528085e-02)	(-4.903349e-06 3.519234e-05 -4.552567e-05)
144           	(-8.282561e-03 -7.228343e-05 -3.538216e-02)	(-8.277289e-03 -1.058487e-04 -3.533678e-02)	(-5.272507e-06 3.356522e-05 -4.537900e-05)
145           	(-8.286259e-03 -8.817667e-05 -3.544162e-02)	(-8.280612e-03 -1.201150e-04 -3.539633e-02)	(-5.647335e-06 3.193836e-05 -4.528892e-05)
146           	(-8.289106e-03 -1.034150e-04 -3.550178e-02)	(-8.283080e-03 -1.337372e-04 -3.545654e-02)	(-6.026179e-06 3.032219e-05 -4.523772e-05)
147           	(-8.291312e-03 -1.176329e-04 -3.556002e-02)	(-8.284905e-03 -1.463630e-04 -3.551482e-02)	(-6.406947e-06 2.873012e-05 -4.520469e-05)
148           	(-8.293231e-03 -1.307922e-04 -3.561547e-02)	(-8.286442e-03 -1.579643e-04 -3.557029e-02)	(-6.788768e-06 2.717217e-05 -4.517627e-05)
149           	(-8.295201e-03 -1.429752e-04 -3.566541e-02)	(-8.288029e-03 -1.686317e-04 -3.562026e-02)	(-7.172174e-06 2.565646e-05 -4.515068e-05)
150           	(-8.297654e-03 -1.546558e-04 -3.570923e-02)	(-8.290096e-03 -1.788418e-04 -3.566411e-02)	(-7.557339e-06 2.418597e-05 -4.512311e-05)
151           	(-8.301234e-03 -1.664015e-04 -3.574809e-02)	(-8.293291e-03 -1.891650e-04 -3.570300e-02)	(-7.943364e-06 2.276351e-05 -4.509099e-05)
152           	(-8.308041e-03 -1.791066e-04 -3.578537e-02)	(-8.299710e-03 -2.004946e-04 -3.574031e-02)	(-8.331382e-06 2.138804e-05 -4.506093e-05)
153           	(-8.317303e-03 -1.931328e-04 -3.581709e-02)	(-8.308580e-03 -2.131887e-04 -3.577206e-02)	(-8.722986e-06 2.005596e-05 -4.503498e-05)
154           	(-8.330105e-03 -2.087009e-04 -3.584535e-02)	(-8.320985e-03 -2.274612e-04 -3.580034e-02)	(-9.119891e-06 1.876032e-05 -4.501725e-05)
155           	(-8.346318e-03 -2.261395e-04 -3.587108e-02)	(-8.336795e-03 -2.436373e-04 -3.582607e-02)	(-9.522896e-06 1.749780e-05 -4.500859e-05)
156           	(-8.366793e-03 -2.452686e-04 -3.589621e-02)	(-8.356861e-03 -2.615324e-04 -3.585121e-02)	(-9.931829e-06 1.626382e-05 -4.500259e-05)
157           	(-8.390020e-03 -2.659040e-04 -3.592215e-02)	(-8.379675e-03 -2.809590e-04 -3.587716e-02)	(-1.034507e-05 1.505507e-05 -4.499098e-05)
158           	(-8.414872e-03 -2.875162e-04 -3.595013e-02)	(-8.404111e-03 -3.013862e-04 -3.590516e-02)	(-1.076082e-05 1.387001e-05 -4.496608e-05)
159           	(-8.439360e-03 -3.099509e-04 -3.598004e-02)	(-8.428183e-03 -3.226556e-04 -3.593512e-02)	(-1.117701e-05 1.270472e-05 -4.492132e-05)
160           	(-8.464298e-03 -3.322371e-04 -3.601207e-02)	(-8.452707e-03 -3.437970e-04 -3.596723e-02)	(-1.159112e-05 1.155992e-05 -4.484526e-05)
161           	(-8.488993e-03 -3.540000e-04 -3.604549e-02)	(-8.476992e-03 -3.644335e-04 -3.600076e-02)	(-1.200080e-05 1.043348e-05 -4.472782e-05)
162           	(-8.513627e-03 -3.747143e-04 -3.607967e-02)	(-8.501223e-03 -3.840349e-04 -3.603511e-02)	(-1.240383e-05 9.320535e-06 -4.455710e-05)
163           	(-8.538041e-03 -3.939578e-04 -3.611368e-02)	(-8.525243e-03 -4.021743e-04 -3.606936e-02)	(-1.279807e-05 8.216527e-06 -4.432305e-05)
164           	(-8.562043e-03 -4.113506e-04 -3.614631e-02)	(-8.548863e-03 -4.184737e-04 -3.610229e-02)	(-1.318083e-05 7.123070e-06 -4.402256e-05)
165           	(-8.585445e-03 -4.266455e-04 -3.617623e-02)	(-8.571896e-03 -4.326900e-04 -3.613257e-02)	(-1.354914e-05 6.044427e-06 -4.365595e-05)
166           	(-8.608024e-03 -4.397410e-04 -3.620187e-02)	(-8.594123e-03 -4.447244e-04 -3.615865e-02)	(-1.390109e-05 4.983426e-06 -4.322853e-05)
167           	(-8.629594e-03 -4.507044e-04 -3.622180e-02)	(-8.615359e-03 -4.546515e-04 -3.617905e-02)	(-1.423488e-05 3.947074e-06 -4.275049e-05)
168           	(-8.650025e-03 -4.596911e-04 -3.623475e-02)	(-8.635475e-03 -4.626320e-04 -3.619252e-02)	(-1.454959e-05 2.940829e-06 -4.223437e-05)
169           	(-8.669100e-03 -4.669052e-04 -3.623938e-02)	(-8.654255e-03 -4.688750e-04 -3.619769e-02)	(-1.484500e-05 1.969803e-06 -4.169389e-05)
170           	(-8.687020e-03 -4.725453e-04 -3.623611e-02)	(-8.671899e-03 -4.735844e-04 -3.619497e-02)	(-1.512112e-05 1.039092e-06 -4.113982e-05)
171           	(-8.703513e-03 -4.768549e-04 -3.622507e-02)	(-8.688134e-03 -4.770064e-04 -3.618449e-02)	(-1.537834e-05 1.514582e-07 -4.058229e-05)
172           	(-8.719011e-03 -4.798841e-04 -3.620737e-02)	(-8.703394e-03 -4.791893e-04 -3.616734e-02)	(-1.561750e-05 -6.948008e-07 -4.003282e-05)
173           	(-8.733798e-03 -4.816521e-04 -3.618467e-02)	(-8.717959e-03 -4.801483e-04 -3.614517e-02)	(-1.583935e-05 -1.503851e-06 -3.949997e-05)
174           	(-8.748044e-03 -4.821583e-04 -3.615888e-02)	(-8.731999e-03 -4.798802e-04 -3.611989e-02)	(-1.604443e-05 -2.278040e-06 -3.899229e-05)
175           	(-8.761911e-03 -4.813786e-04 -3.613196e-02)	(-8.745678e-03 -4.783563e-04 -3.609344e-02)	(-1.623331e-05 -3.022295e-06 -3.851658e-05)
176           	(-8.775563e-03 -4.792970e-04 -3.610564e-02)	(-8.759156e-03 -4.755541e-04 -3.606756e-02)	(-1.640642e-05 -3.742861e-06 -3.807931e-05)
177           	(-8.787763e-03 -4.760311e-04 -3.608070e-02)	(-8.771200e-03 -4.715891e-04 -3.604301e-02)	(-1.656340e-05 -4.442001e-06 -3.768312e-05)
178           	(-8.800215e-03 -4.713799e-04 -3.605865e-02)	(-8.783511e-03 -4.662611e-04 -3.602133e-02)	(-1.670402e-05 -5.118809e-06 -3.732955e-05)
179           	(-8.814159e-03 -4.651995e-04 -3.604086e-02)	(-8.797331e-03 -4.594286e-04 -3.600384e-02)	(-1.682790e-05 -5.770926e-06 -3.701808e-05)
180           	(-8.827724e-03 -4.575730e-04 -3.602680e-02)	(-8.810790e-03 -4.511776e-04 -3.599005e-02)	(-1.693464e-05 -6.395382e-06 -3.674754e-05)
181           	(-8.841520e-03 -4.484592e-04 -3.601673e-02)	(-8.824496e-03 -4.414704e-04 -3.598022e-02)	(-1.702410e-05 -6.988824e-06 -3.651452e-05)
182           	(-8.854395e-03 -4.379806e-04 -3.600966e-02)	(-8.837298e-03 -4.304308e-04 -3.597334e-02)	(-1.709654e-05 -7.549765e-06 -3.631693e-05)
183           	(-8.866311e-03 -4.262832e-04 -3.600499e-02)	(-8.849158e-03 -4.182051e-04 -3.596884e-02)	(-1.715246e-05 -8.078100e-06 -3.614902e-05)
184           	(-8.877168e-03 -4.137377e-04 -3.600222e-02)	(-8.859976e-03 -4.051664e-04 -3.596621e-02)	(-1.719267e-05 -8.571318e-06 -3.600602e-05)
185           	(-8.887095e-03 -4.006893e-04 -3.600036e-02)	(-8.869878e-03 -3.916630e-04 -3.596447e-02)	(-1.721796e-05 -9.026259e-06 -3.588060e-05)
186           	(-8.895701e-03 -3.875682e-04 -3.599817e-02)	(-8.878471e-03 -3.781264e-04 -3.596241e-02)	(-1.722946e-05 -9.441787e-06 -3.576448e-05)
187           	(-8.903948e-03 -3.746198e-04 -3.599477e-02)	(-8.886719e-03 -3.648015e-04 -3.595912e-02)	(-1.722863e-05 -9.818266e-06 -3.565013e-05)
188           	(-8.907587e-03 -3.636098e-04 -3.598588e-02)	(-8.890371e-03 -3.534527e-04 -3.595035e-02)	(-1.721622e-05 -1.015711e-05 -3.552940e-05)
189           	(-8.911321e-03 -3.532032e-04 -3.597401e-02)	(-8.894127e-03 -3.427415e-04 -3.593862e-02)	(-1.719392e-05 -1.046162e-05 -3.539274e-05)
190           	(-8.916910e-03 -3.423213e-04 -3.595861e-02)	(-8.899746e-03 -3.315859e-04 -3.592337e-02)	(-1.716343e-05 -1.073540e-05 -3.523274e-05)
191           	(-8.927839e-03 -3.297204e-04 -3.594141e-02)	(-8.910713e-03 -3.187392e-04 -3.590637e-02)	(-1.712676e-05 -1.098120e-05 -3.504281e-05)
192           	(-8.938100e-03 -3.177419e-04 -3.591759e-02)	(-8.921015e-03 -3.065419e-04 -3.588277e-02)	(-1.708509e-05 -1.120005e-05 -3.482302e-05)
193           	(-8.948671e-03 -3.060347e-04 -3.588810e-02)	(-8.931631e-03 -2.946414e-04 -3.585353e-02)	(-1.703965e-05 -1.139326e-05 -3.457338e-05)
194           	(-8.959126e-03 -2.947729e-04 -3.585384e-02)	(-8.942134e-03 -2.832097e-04 -3.581954e-02)	(-1.699208e-05 -1.156319e-05 -3.429776e-05)
195           	(-8.965316e-03 -2.858070e-04 -3.581567e-02)	(-8.948373e-03 -2.740929e-04 -3.578167e-02)	(-1.694325e-05 -1.171417e-05 -3.400166e-05)
196           	(-8.978945e-03 -2.733432e-04 -3.577338e-02)	(-8.962050e-03 -2.614947e-04 -3.573969e-02)	(-1.689477e-05 -1.184848e-05 -3.368320e-05)
197           	(-8.992055e-03 -2.607672e-04 -3.572644e-02)	(-8.975207e-03 -2.487940e-04 -3.569308e-02)	(-1.684779e-05 -1.197314e-05 -3.335310e-05)
198           	(-8.997154e-03 -2.517874e-04 -3.567771e-02)	(-8.980351e-03 -2.396920e-04 -3.564469e-02)	(-1.680254e-05 -1.209541e-05 -3.302535e-05)
199           	(-9.009503e-03 -2.382642e-04 -3.562278e-02)	(-8.992743e-03 -2.260436e-04 -3.559008e-02)	(-1.676009e-05 -1.222054e-05 -3.269529e-05)
200           	(-9.020444e-03 -2.248275e-04 -3.556730e-02)	(-9.003722e-03 -2.124707e-04 -3.553493e-02)	(-1.672146e-05 -1.235680e-05 -3.237541e-05)
201           	(-9.030697e-03 -2.111414e-04 -3.551186e-02)	(-9.014010e-03 -1.986335e-04 -3.547979e-02)	(-1.668702e-05 -1.250787e-05 -3.207442e-05)
202           	(-9.038974e-03 -1.976585e-04 -3.545672e-02)	(-9.022317e-03 -1.849810e-04 -3.542492e-02)	(-1.665726e-05 -1.267757e-05 -3.180156e-05)
203           	(-9.045350e-03 -1.844609e-04 -3.540320e-02)	(-9.028718e-03 -1.715924e-04 -3.537164e-02)	(-1.663253e-05 -1.286850e-05 -3.155997e-05)
204           	(-9.046312e-03 -1.738028e-04 -3.535422e-02)	(-9.029699e-03 -1.607218e-04 -3.532287e-02)	(-1.661290e-05 -1.308106e-05 -3.135332e-05)
205           	(-9.046552e-03 -1.627881e-04 -3.530665e-02)	(-9.029954e-03 -1.494765e-04 -3.527547e-02)	(-1.659829e-05 -1.331161e-05 -3.117426e-05)