# k  POINT_DATA 14056
# x  y  z  k
-3.38813e-21 0.0103526 8.05504e-08 7.54264e-11
3.38813e-21 -0.0103526 8.07755e-08 4.66085e-07
3.38813e-21 -0.0103526 3.76214e-05 4.57908e-07
-3.38813e-21 0.0103526 3.76305e-05 7.38444e-11
3.38813e-21 -0.0103526 0.000631429 6.09882e-07
3.38813e-21 0.0103526 0.000631529 8.57514e-11
3.38813e-21 -0.0103526 0.000667946 6.34848e-07
-3.38813e-21 0.0103526 0.000668067 8.89035e-11
-3.38813e-21 -0.0103526 0.000705987 6.36519e-07
0 0.0103526 0.000706122 8.85861e-11
0 -0.0103777 4.50189e-05 4.56254e-07
0 0.0103777 4.50396e-05 7.33827e-11
3.38813e-21 0.0103798 8.03087e-08 7.32726e-11
-3.38813e-21 -0.0103798 8.04298e-08 4.5586e-07
0 -0.0103769 0.000621356 6.03861e-07
0 0.0103769 0.000621457 8.49568e-11
0 -0.0103728 0.000705935 6.36679e-07
0 0.0103728 0.000706086 8.8519e-11
0 -0.0103526 0.00132431 7.03563e-07
3.38813e-21 0.0103526 0.0013244 9.54132e-11
-3.38813e-21 -0.0103526 0.00136256 7.08665e-07
0 0.0103526 0.00136268 9.67181e-11
3.38813e-21 -0.0103526 0.00140245 6.82523e-07
-3.38813e-21 0.0103526 0.00140259 9.38757e-11
3.38813e-21 -0.0103729 0.00131435 7.02649e-07
0 0.0103729 0.00131444 9.52361e-11
0 -0.0103703 0.00139272 6.79351e-07
0 0.0103703 0.00139287 9.35477e-11
0 -0.0105447 0.00032626 4.48554e-07
0 0.0105447 0.000326369 7.12323e-11
3.38813e-21 -0.0103526 0.00204573 7.51859e-07
-3.38813e-21 0.0103526 0.00204573 1.11111e-10
-3.38813e-21 0.0103526 0.002087 1.16038e-10
3.38813e-21 -0.0103526 0.002087 7.84952e-07
-6.77626e-21 -0.0103709 0.00202634 7.47568e-07
0 0.0103709 0.00202635 1.10522e-10
0 -0.0105347 0.000977469 7.77559e-07
-2.71051e-20 0.0105347 0.000977685 9.90508e-11
0 -0.0103716 0.0020967 7.78065e-07
0 0.0103716 0.00209671 1.14575e-10
0 -0.0103939 0.0020689 7.76685e-07
0 0.0103939 0.00206891 1.1437e-10
3.38813e-21 -0.0105174 0.00130539 5.5722e-07
0 0.0105177 0.00130551 7.56922e-11
-1.35525e-20 -0.0105165 0.00160451 5.82009e-07
0 0.0105165 0.00160468 8.71992e-11
6.77626e-21 0.0106643 8.07563e-08 2.46471e-10
-6.77626e-21 -0.0106644 8.09383e-08 8.91327e-07
0 0.0106643 0.000112715 2.49963e-10
-6.77626e-21 -0.0106644 0.000112638 9.00406e-07
3.38813e-21 -0.0104508 0.00213729 8.85786e-07
-6.77626e-21 0.010451 0.00213734 1.37144e-10
0 0.0107383 7.95475e-08 3.32708e-10
0 -0.0107384 7.92342e-08 1.15597e-06
-5.64689e-22 -0.0107484 0.000677195 7.0991e-07
1.8823e-22 0.0107484 0.000677558 1.69553e-10
0 0.010797 0.000148914 4.08032e-10
-6.77626e-21 -0.010797 0.000148767 1.35987e-06
0 -0.0107396 0.00123189 3.78121e-07
0 0.0107396 0.00123223 5.14912e-11
4.23516e-22 -0.0106812 0.00170017 4.77213e-07
0 0.0106821 0.00169938 6.71353e-11
-6.77626e-21 0.0108192 6.38521e-08 4.18008e-10
6.77626e-21 -0.0108192 6.3635e-08 1.39455e-06
5.50571e-21 -0.0107144 0.00166243 4.50449e-07
-3.51519e-20 0.0107143 0.0016627 6.30223e-11
2.71051e-20 -0.0106712 0.00197829 8.60455e-07
1.35525e-20 0.0106712 0.00197839 1.26148e-10
0 0.0108952 0.000304094 5.42345e-10
0 -0.0108952 0.000303947 1.69608e-06
0 -0.0109109 0.000915282 3.01261e-07
0 0.0109109 0.00091567 4.82515e-11
1.35525e-20 -0.0107157 0.00227289 1.17441e-06
1.35525e-20 0.0107158 0.00227295 1.93172e-10
-1.35525e-20 -0.0107627 0.00222008 1.17504e-06
0 0.0107627 0.00222022 1.93547e-10
-1.35525e-20 -0.0108925 0.00149286 2.09228e-07
1.35525e-20 0.0108925 0.00149316 2.09691e-11
-1.35525e-20 -0.0107724 0.00230193 1.22022e-06
0 0.0107724 0.00230196 2.06122e-10
0 0.0108212 0.00232693 2.11275e-10
0 -0.0108212 0.00232693 1.20932e-06
0 0.0108444 0.00228008 2.11046e-10
0 -0.0108445 0.00228001 1.2088e-06
4.51751e-21 -0.0111112 0.000616145 1.23491e-06
-2.25875e-21 0.0111112 0.00061649 3.44537e-10
0 0.0111535 1.53938e-06 6.72949e-10
-2.11758e-22 -0.0111473 5.47822e-06 2.3253e-06
0 0.011147 5.86234e-06 6.70104e-10
-4.44692e-21 0.0111509 1.29512e-05 6.66321e-10
-5.29396e-21 -0.011151 1.21022e-05 2.30673e-06
-2.25875e-21 -0.011096 0.00121465 2.6574e-07
-6.77626e-21 0.0110959 0.00121503 4.7788e-11
0 -0.0111696 -5.96294e-10 2.38832e-06
-3.17637e-21 0.0111707 -7.22546e-10 6.85778e-10
3.76459e-22 -0.0110352 0.00184535 6.30673e-07
-3.76459e-21 0.0110352 0.00184552 1.03077e-10
0 0.0109407 0.00238813 2.31419e-10
1.35525e-20 -0.0109408 0.00238818 1.32775e-06
-1.35525e-20 -0.0111532 0.00249687 1.6323e-06
-1.35525e-20 0.0111532 0.00249688 3.06007e-10
-5.42101e-20 0.0114315 0.000308606 9.76384e-10
2.71051e-20 -0.0114315 0.000308467 3.53421e-06
0 -0.0114183 0.000918416 4.8248e-07
0 0.0114183 0.000918716 1.20982e-10
0 -0.0113875 0.00154703 2.13477e-07
-2.71051e-20 0.0113875 0.00154727 3.51337e-11
-9.03502e-21 -0.0112598 0.0023139 1.60843e-06
6.77626e-21 0.0112598 0.00231395 3.07817e-10
0 -0.0113392 0.00259198 1.93867e-06
1.35525e-20 0.0113393 0.00259202 3.14941e-10
0 -0.0116793 5.66494e-05 4.18214e-06
0 0.0116793 5.66517e-05 1.05055e-09
0 -0.0116837 2.74733e-09 4.1853e-06
-6.77626e-21 0.0116838 2.70093e-09 1.04997e-09
0 0.0117329 2.82821e-09 1.044e-09
0 -0.0117329 2.87033e-09 4.29788e-06
1.12938e-21 -0.0117325 0.000605076 2.48469e-06
-1.12938e-21 0.0117325 0.000605313 5.98784e-10
1.12938e-21 -0.0117171 0.00123388 4.43123e-07
3.38813e-21 0.0117171 0.00123417 8.81223e-11
0 -0.0114795 0.00266368 2.09338e-06
0 0.0114796 0.0026637 3.16414e-10
-6.77626e-21 0.0117883 2.65853e-09 1.05888e-09
0 -0.0117883 2.69853e-09 4.44161e-06
0 0.0117892 5.42091e-05 1.05882e-09
0 -0.0117892 5.42112e-05 4.44112e-06
-1.35525e-20 -0.0115087 0.00262146 2.11088e-06
-1.35525e-20 0.0115087 0.0026215 3.19241e-10
-2.25875e-21 -0.0116586 0.00190773 7.05836e-07
0 0.0116586 0.0019079 1.12556e-10
-1.35525e-20 -0.0115418 0.00269549 2.46403e-06
0 0.0115418 0.0026955 3.64396e-10
-1.35525e-21 -0.0117157 0.00235642 1.68728e-06
-4.51751e-22 0.0117159 0.0023565 2.48897e-10
2.71051e-20 -0.0116486 0.00275063 2.83337e-06
-2.71051e-20 0.0116486 0.00275064 3.95292e-10
0 -0.0116731 0.00267354 2.77005e-06
0 0.0116731 0.00267357 3.90574e-10
-2.71051e-20 0.0120453 0.000301328 1.13274e-09
0 -0.0120454 0.000301236 5.09526e-06
-2.71051e-20 -0.0120511 0.000915357 7.99666e-07
0 0.0120511 0.00091557 1.57349e-10
0 -0.012033 0.00156459 2.82229e-07
0 0.012033 0.00156477 3.93046e-11
0 -0.01206 0.00216221 6.18742e-07
-2.71051e-20 0.0120601 0.0021623 6.56464e-11
-2.71051e-20 -0.0119656 0.00265564 3.27646e-06
2.71051e-20 0.0119656 0.00265569 4.30034e-10
-6.77626e-21 -0.0122893 7.15655e-10 5.61302e-06
6.77626e-21 0.0122894 7.14789e-10 1.19715e-09
0 -0.0122905 5.31758e-05 5.61323e-06
0 0.0122905 5.31808e-05 1.19717e-09
-6.77626e-21 0.0123436 5.48212e-10 1.20283e-09
6.77626e-21 -0.0123436 5.47007e-10 5.70177e-06
-3.38813e-21 -0.0123659 0.000596094 3.32994e-06
2.25875e-21 0.0123659 0.000596232 6.93536e-10
6.77626e-21 0.0123987 5.15494e-10 1.21395e-09
-6.77626e-21 -0.0123987 5.14349e-10 5.81333e-06
0 0.0124005 5.03406e-05 1.21389e-09
0 -0.0124005 5.03428e-05 5.81252e-06
0 -0.0120574 0.00296139 3.57836e-06
0 0.0120574 0.00296139 5.15054e-10
-1.12938e-21 -0.012372 0.00122747 6.38796e-07
0 0.0123721 0.00122764 1.08621e-10
-1.35525e-20 -0.0121088 0.00291077 3.57923e-06
-1.35525e-20 0.0121089 0.00291076 5.19894e-10
-1.12938e-21 -0.0123745 0.00187604 5.06327e-07
-1.12938e-21 0.0123745 0.00187616 5.5881e-11
0 -0.0121515 0.00300998 3.62387e-06
0 0.0121516 0.00301001 5.42697e-10
-1.35525e-20 -0.0121996 0.00303504 3.46725e-06
1.35525e-20 0.0121997 0.00303509 5.25598e-10
-1.35525e-20 -0.0122191 0.00298806 3.47422e-06
-1.35525e-20 0.0122192 0.00298808 5.26952e-10
-1.03526e-21 -0.0123756 0.00256225 2.20711e-06
-9.41148e-23 0.0123756 0.00256229 3.21447e-10
-2.71051e-20 0.0126709 0.000293136 1.27984e-09
5.42101e-20 -0.012671 0.000293093 6.34046e-06
-2.71051e-20 -0.0123021 0.00308847 3.45031e-06
0 0.0123022 0.00308853 5.28459e-10
0 -0.0126957 0.000898572 9.82566e-07
-2.71051e-20 0.0126958 0.00089868 1.8237e-10
0 -0.012709 0.00153933 4.82455e-07
0 0.012709 0.00153943 5.34479e-11
-2.71051e-20 -0.0126986 0.00221282 6.39041e-07
2.71051e-20 0.0126986 0.00221288 6.45295e-11
0 -0.0129174 7.10976e-11 6.65159e-06
0 0.0129174 7.11602e-11 1.29236e-09
-6.77626e-21 -0.0129197 4.74348e-05 6.6519e-06
0 0.0129197 4.7433e-05 1.2924e-09
-1.35525e-20 -0.012518 0.00320081 3.41459e-06
1.35525e-20 0.0125181 0.00320085 5.86964e-10
0 0.0129692 4.0155e-11 1.28788e-09
0 -0.0129692 4.01508e-11 6.67665e-06
0 -0.0126235 0.00300075 3.40097e-06
-2.25875e-21 0.0126235 0.00300078 6.04673e-10
3.38813e-21 0.0130046 0.000577477 7.53292e-10
1.12938e-21 -0.0130047 0.000577423 3.97587e-06
-6.77626e-21 0.0130214 3.77547e-11 1.2877e-09
0 -0.0130214 3.77506e-11 6.74967e-06
0 0.0130235 4.52047e-05 1.28774e-09
0 -0.0130235 4.52074e-05 6.74949e-06
-1.69407e-21 -0.0130315 0.00119939 9.84416e-07
3.38813e-21 0.0130316 0.00119946 1.35306e-10
-1.12938e-21 -0.0130336 0.0018718 8.07991e-07
-5.64689e-22 0.0130336 0.00187185 6.18729e-11
0 -0.0127497 0.00332057 4.12984e-06
6.77626e-21 0.0127498 0.00332061 5.81652e-10
-1.12938e-21 -0.0129826 0.00259345 1.85935e-06
4.51751e-21 0.0129826 0.00259348 2.3673e-10
0 -0.0128395 0.0033668 4.27141e-06
1.35525e-20 0.0128396 0.00336684 5.74385e-10
0 -0.0128582 0.00333774 4.29279e-06
0 0.0128583 0.00333778 5.77806e-10
0 0.0132994 0.000279159 1.30025e-09
-2.71051e-20 -0.0132995 0.000279137 7.05963e-06
-1.35525e-20 -0.0128782 0.00338673 4.67671e-06
0 0.0128783 0.00338677 6.24041e-10
-5.42101e-20 0.0133387 0.000865034 2.20425e-10
0 -0.0133387 0.000865002 1.37775e-06
4.51751e-22 0.0130334 0.00304019 4.47767e-10
2.25875e-22 -0.0130353 0.00304025 3.41797e-06
6.77626e-21 -0.0129436 0.00342031 5.06572e-06
-6.77626e-21 0.0129437 0.00342035 6.47195e-10
0 -0.0129615 0.00336796 5.00103e-06
1.35525e-20 0.0129616 0.00336799 6.44221e-10
0 -0.0133632 0.00150671 1.08286e-06
2.71051e-20 0.0133632 0.00150676 8.16963e-11
2.71051e-20 -0.0133512 0.00219868 1.03123e-06
0 0.0133512 0.00219872 4.82892e-11
0 -0.0135358 4.47523e-12 7.05263e-06
0 0.0135358 4.47588e-12 1.16532e-09
0 -0.0135385 4.91843e-05 7.05267e-06
0 0.0135385 4.91803e-05 1.16527e-09
0 0.0135929 1.8852e-12 1.17628e-09
6.77626e-21 -0.0135929 1.88467e-12 7.04919e-06
1.12938e-21 0.013636 0.000546304 7.53202e-10
1.12938e-21 -0.0136361 0.000546291 4.63967e-06
-6.77626e-21 0.0136512 1.75111e-12 1.08062e-09
0 -0.0136512 1.75062e-12 7.05732e-06
0 0.0136535 4.92267e-05 1.08146e-09
-6.77626e-21 -0.0136536 4.92359e-05 7.0574e-06
-2.71051e-20 -0.0133731 0.00282535 1.50262e-06
2.71051e-20 0.0133732 0.00282536 1.10734e-10
-2.71051e-20 -0.0132749 0.0033279 5.88977e-06
-2.71051e-20 0.0132749 0.00332792 6.85977e-10
-1.69407e-21 -0.013679 0.00115206 2.22844e-06
-5.64689e-22 0.013679 0.00115208 2.47967e-10
0 -0.0136921 0.00182715 2.18034e-06
1.12938e-21 0.0136921 0.00182717 1.072e-10
6.77626e-21 -0.0133673 0.00363809 6.18148e-06
-6.77626e-21 0.0133673 0.00363812 8.24764e-10
0 -0.013405 0.00359705 6.17088e-06
0 0.013405 0.00359708 8.30259e-10
5.64689e-22 -0.0136837 0.00251747 1.85279e-06
-1.69407e-21 0.0136838 0.00251749 9.18747e-11
0 0.0139138 0.000259106 9.51532e-10
0 -0.0139138 0.000259099 7.05236e-06
-1.35525e-20 -0.0134314 0.00367104 6.17583e-06
0 0.0134314 0.00367107 8.56581e-10
-1.35525e-20 -0.013468 0.00368979 5.97821e-06
0 0.013468 0.00368982 8.34452e-10
0 -0.0134844 0.00365352 5.98557e-06
0 0.0134844 0.00365356 8.36238e-10
2.71051e-20 0.0139705 0.000815055 4.71481e-10
-2.71051e-20 -0.0139705 0.000815048 2.86714e-06
2.50973e-22 -0.013675 0.00322688 4.09759e-06
6.27432e-23 0.013675 0.0032269 5.23918e-10
6.77626e-21 -0.0135481 0.00373065 5.8869e-06
0 0.0135481 0.00373069 8.38514e-10
-2.71051e-20 -0.0140148 0.00144488 3.53566e-06
5.42101e-20 0.0140148 0.00144489 1.99452e-10
6.77626e-21 -0.0141256 1.99131e-13 6.83211e-06
6.77626e-21 0.0141256 1.99166e-13 7.83361e-10
6.77626e-21 -0.0141299 5.79419e-05 6.83143e-06
-1.35525e-20 0.0141299 5.79229e-05 7.83341e-10
-2.71051e-20 -0.01402 0.00213792 3.06848e-06
-2.71051e-20 0.01402 0.00213792 1.00643e-10
0 0.0141962 4.63662e-14 8.68003e-10
-1.35525e-20 -0.0141962 4.63611e-14 6.87113e-06
-1.12938e-21 0.0142449 0.000498317 7.44842e-10
1.12938e-21 -0.0142449 0.000498316 6.12611e-06
0 0.0142626 5.40721e-05 6.96474e-10
-6.77626e-21 -0.0142627 5.40946e-05 6.80336e-06
-6.77626e-21 0.0142685 4.24128e-14 6.94072e-10
6.77626e-21 -0.0142685 4.24077e-14 6.80422e-06
-5.42101e-20 -0.0139913 0.00285486 1.89232e-06
-2.71051e-20 0.0139913 0.00285488 1.07207e-10
6.77626e-21 -0.0137721 0.00385092 5.58254e-06
-6.77626e-21 0.0137722 0.00385096 9.30024e-10
5.64689e-22 -0.0138917 0.00364951 5.57034e-06
0 0.0138917 0.00364954 9.6434e-10
-1.12938e-21 0.0143255 0.00107369 5.37663e-10
0 -0.0143255 0.00107369 6.73558e-06
0 -0.0143513 0.0017511 6.42547e-06
5.64689e-22 0.0143513 0.0017511 2.57199e-10
2.71051e-20 -0.0144732 0.000219186 6.59582e-06
0 0.0144732 0.000219182 5.44269e-10
6.77626e-21 -0.0139827 0.00397686 6.56684e-06
-6.77626e-21 0.0139828 0.00397691 9.35875e-10
2.82344e-21 -0.0143298 0.00248451 3.9942e-06
2.82344e-21 0.0143298 0.00248452 1.37387e-10
-2.71051e-20 0.0145986 0.000742805 9.07377e-10
-2.71051e-20 -0.0145986 0.000742806 7.83577e-06
4.51751e-21 -0.0142572 0.00324559 3.8858e-06
3.38813e-21 0.0142572 0.00324562 3.91706e-10
1.35525e-20 -0.0140601 0.00402775 6.71287e-06
0 0.0140601 0.00402781 9.29571e-10
0 -0.014081 0.00400157 6.74343e-06
0 0.0140811 0.00400163 9.35609e-10
0 -0.0140961 0.00405297 6.9845e-06
0 0.0140962 0.00405303 9.86896e-10
5.27043e-21 -0.0146978 0.000423854 1.10661e-05
7.52918e-22 0.0146978 0.000423853 2.0587e-09
6.77626e-21 -0.014714 5.32172e-05 1.1148e-05
0 0.0147141 5.31873e-05 2.24859e-09
6.77626e-21 -0.0147156 4.07604e-15 1.11088e-05
6.77626e-21 0.0147157 4.07548e-15 2.23193e-09
6.77626e-21 -0.0141531 0.00409437 7.39511e-06
0 0.0141532 0.00409444 1.06244e-09
-1.35525e-20 -0.014186 0.00402833 7.33995e-06
0 0.0141861 0.00402839 1.05193e-09
2.71051e-20 -0.0146871 0.00133462 1.24919e-05
-2.71051e-20 0.0146871 0.00133462 4.92996e-10
-6.35275e-22 -0.0142916 0.00370912 5.52768e-06
7.05861e-22 0.0142916 0.00370916 7.23945e-10
-6.77626e-21 -0.0147878 2.32668e-16 1.27555e-05
6.77626e-21 0.0147879 2.32452e-16 3.13893e-09
5.42101e-20 -0.0146599 0.00209093 6.96593e-06
0 0.0146599 0.00209094 2.46309e-10
0 -0.014843 8.03853e-05 1.45317e-05
0 0.014843 8.03526e-05 2.86547e-09
0 -0.0148561 2.18777e-16 1.45863e-05
0 0.0148561 2.1855e-16 2.86628e-09
-2.71051e-20 -0.0146441 0.00281789 4.12635e-06
0 0.0146441 0.0028179 1.01094e-10
2.71051e-20 -0.0150101 0.000339146 1.86922e-05
2.71051e-20 0.0150101 0.000339154 4.53733e-09
-2.71051e-20 -0.0144832 0.00400474 8.27779e-06
-2.71051e-20 0.0144832 0.0040048 1.11376e-09
-2.71051e-20 -0.0144181 0.00428662 8.1773e-06
0 0.0144182 0.0042867 1.13063e-09
2.71051e-20 -0.0146327 0.00349143 2.8006e-06
-2.71051e-20 0.0146327 0.00349146 1.74521e-10
0 -0.0149972 0.00170299 1.21377e-05
1.8823e-21 0.0149972 0.001703 6.39455e-10
0 -0.0144912 0.00422844 8.20492e-06
0 0.0144913 0.00422852 1.12599e-09
1.35525e-20 -0.0144934 0.00434137 8.06052e-06
1.35525e-20 0.0144936 0.00434146 1.10736e-09
-1.35525e-21 -0.0151529 0.000909675 1.89631e-05
2.03288e-21 0.0151529 0.000909676 4.09409e-09
-2.71051e-20 -0.0145637 0.00439248 8.41006e-06
1.35525e-20 0.0145638 0.00439257 1.14504e-09
-2.71051e-20 -0.014602 0.00431156 8.39732e-06
-1.35525e-20 0.0146021 0.00431164 1.13909e-09
1.12938e-21 -0.0150574 0.00235817 8.48818e-06
-1.12938e-21 0.0150574 0.00235818 4.06974e-10
-5.64689e-22 -0.0149519 0.00315932 4.90259e-06
-2.25875e-21 0.0149519 0.00315933 1.55226e-10
0 -0.0153675 5.06193e-05 2.73835e-05
-6.77626e-21 0.0153677 5.05775e-05 7.88524e-09
0 -0.015373 4.86614e-17 2.73486e-05
0 0.0153731 4.85588e-17 7.85864e-09
4.51751e-22 -0.0148915 0.00388258 5.83437e-06
-4.51751e-22 0.0148915 0.00388263 5.72426e-10
-6.77626e-21 -0.0154159 3.88773e-17 2.84086e-05
0 0.015416 3.87776e-17 8.95768e-09
-2.71051e-20 -0.0148215 0.00426958 8.3391e-06
0 0.0148216 0.00426965 1.13215e-09
0 -0.0154548 3.02596e-05 2.97097e-05
0 0.0154549 3.02264e-05 9.3955e-09
0 -0.0154565 3.72522e-17 2.96796e-05
0 0.0154566 3.71491e-17 9.37917e-09
6.77626e-21 -0.0148109 0.00457227 8.67032e-06
0 0.014811 0.00457238 1.10703e-09
6.77626e-21 -0.0148556 0.00452731 8.6796e-06
0 0.0148557 0.00452741 1.10011e-09
-2.71051e-20 -0.015291 0.00279582 7.82126e-06
-2.71051e-20 0.015291 0.00279583 2.56062e-10
0 -0.0148581 0.00460666 8.64717e-06
0 0.0148583 0.00460678 1.06451e-09
0 -0.0149 0.00463711 9.05731e-06
6.77626e-21 0.0149001 0.00463723 1.07832e-09
6.77626e-21 -0.0149278 0.00460013 9.02573e-06
6.77626e-21 0.0149279 0.00460024 1.07725e-09
2.71051e-20 -0.0152535 0.00349535 4.98872e-06
-2.71051e-20 0.0152535 0.00349537 9.51778e-11
-7.52918e-22 -0.0150945 0.00432053 7.23703e-06
1.50584e-21 0.0150946 0.00432059 7.88545e-10
0 -0.0156481 0.00170282 1.95238e-05
1.0842e-19 0.0156481 0.00170282 1.47225e-09
0 0.0156283 0.00242155 6.10913e-10
-1.8823e-22 -0.0156283 0.00242155 1.46747e-05
-2.71051e-20 -0.0152931 0.00410118 4.00834e-06
0 0.0152932 0.00410122 1.89447e-10
-2.71051e-20 -0.015191 0.0045723 9.23251e-06
0 0.0151911 0.00457238 1.01959e-09
5.42101e-20 0.0158564 0.000503046 1.55685e-08
-5.42101e-20 -0.0158564 0.000503053 4.66067e-05
0 -0.0155955 0.00313147 1.03133e-05
-5.64689e-22 0.0155955 0.00313148 2.37263e-10
-6.77626e-21 -0.0151955 0.0048521 8.51355e-06
-6.77626e-21 0.0151956 0.00485222 1.02709e-09
-6.77626e-21 -0.0152218 0.00482879 8.47966e-06
-6.77626e-21 0.0152219 0.0048289 1.02532e-09
6.77626e-21 -0.0152273 0.00487524 8.33922e-06
6.77626e-21 0.0152274 0.00487536 1.02681e-09
-6.77626e-21 -0.0152573 0.00489706 8.26569e-06
0 0.0152574 0.00489719 1.02914e-09
-6.77626e-21 -0.0152733 0.00486831 8.25896e-06
0 0.0152734 0.00486843 1.02765e-09
-2.82344e-22 -0.0155765 0.00380625 6.3127e-06
5.64689e-22 0.0155765 0.00380628 1.35989e-10
-1.69407e-21 0.0161174 1.48167e-17 1.40364e-08
3.38813e-21 -0.0161182 1.48305e-17 4.75544e-05
2.71051e-20 0.0159438 0.00275754 4.4578e-10
0 -0.0159438 0.00275754 1.8282e-05
9.41148e-23 -0.0155623 0.0044811 6.3153e-06
1.17643e-22 0.0155624 0.00448116 5.44195e-10
2.71051e-20 -0.0155229 0.00482975 7.33469e-06
2.71051e-20 0.015523 0.00482983 1.01345e-09
-2.71051e-20 -0.0159029 0.00345691 1.04063e-05
-5.42101e-20 0.015903 0.00345692 1.58582e-10
-3.38813e-21 -0.0155781 0.00513047 7.71638e-06
-3.38813e-21 0.0155782 0.00513056 1.02792e-09
0 -0.0158776 0.00413216 6.17538e-06
2.71051e-20 0.0158777 0.00413219 9.91081e-11
0 -0.0155898 0.00511599 7.7081e-06
0 0.0155899 0.00511607 1.02707e-09
-7.34095e-22 0.0163695 0.00112646 9.57237e-09
-5.64689e-22 -0.0163695 0.00112648 4.68415e-05
0 -0.0155955 0.00514312 7.72184e-06
6.77626e-21 0.0155956 0.00514321 1.02614e-09
0 -0.0156136 0.00515625 7.76735e-06
0 0.0156137 0.00515634 1.02995e-09
0 -0.0156211 0.00514122 7.75208e-06
0 0.0156212 0.00514131 1.0287e-09
2.11758e-22 0.0163299 0.00225504 1.50029e-09
2.82344e-22 -0.0163314 0.00225388 2.89637e-05
0 0.0165134 1.83628e-05 1.70593e-08
3.38813e-21 -0.0165134 1.83231e-05 5.8637e-05
0 0.016517 2.64107e-18 1.70667e-08
3.38813e-21 -0.016517 2.63768e-18 5.86554e-05
3.38813e-22 -0.0157793 0.00488992 6.7011e-06
-7.34095e-22 0.0157794 0.00488999 7.72811e-10
-2.82344e-22 -0.0162343 0.00309924 1.90591e-05
5.64689e-22 0.0162343 0.00309924 4.15085e-10
0 -0.0165394 -1.52047e-19 5.90539e-05
3.38813e-21 0.0165394 -1.53119e-19 1.78177e-08
3.38813e-21 -0.0165602 2.31403e-05 5.96033e-05
3.38813e-21 0.0165603 2.31905e-05 1.74046e-08
0 -0.0165622 -1.44108e-19 5.96056e-05
3.38813e-21 0.0165623 -1.45159e-19 1.74053e-08
0 -0.0159282 0.00468151 4.45673e-06
2.71051e-20 0.0159283 0.00468157 2.12234e-10
5.64689e-22 -0.0162015 0.00379234 1.27587e-05
0 0.0162016 0.00379236 1.91137e-10
-2.71051e-20 -0.0158863 0.00511953 7.91505e-06
-2.71051e-20 0.0158864 0.0051196 1.02296e-09
0 -0.0165599 0.00274152 2.53051e-05
2.71051e-20 0.0165599 0.00274152 7.24364e-10
-1.12938e-21 -0.016193 0.00443156 7.42982e-06
-8.47033e-22 0.0161931 0.0044316 1.95863e-10
-6.77626e-21 -0.0159115 0.00537295 1.04714e-05
0 0.0159116 0.00537303 1.47655e-09
0 -0.0159381 0.00534058 1.05019e-05
0 0.0159382 0.00534066 1.48478e-09
0 -0.0159556 0.00540506 1.07778e-05
0 0.0159557 0.00540513 1.5752e-09
0 -0.0165346 0.00343545 2.20278e-05
0 0.0165347 0.00343545 3.29014e-10
-5.64689e-22 -0.0161473 0.00497226 8.3509e-06
0 0.0161474 0.00497232 9.39745e-10
0 -0.0160061 0.00544179 1.17389e-05
-6.77626e-21 0.0160062 0.00544186 1.82272e-09
-6.77626e-21 -0.0160434 0.00536957 1.15502e-05
-6.77626e-21 0.0160435 0.00536965 1.77092e-09
2.71051e-20 -0.0165061 0.00411387 1.27434e-05
-2.71051e-20 0.0165061 0.00411389 1.8287e-10
-5.42101e-20 0.0169791 0.00178697 2.48576e-09
-5.42101e-20 -0.0169791 0.00178697 5.35229e-05
5.42101e-20 -0.0170733 0.000575202 7.08944e-05
0 0.0170733 0.000575203 1.90483e-08
-2.11758e-22 -0.0169161 0.00243812 3.46008e-05
-1.05879e-22 0.0169162 0.00243816 1.26508e-09
0 -0.0163051 0.00529232 1.37962e-05
2.71051e-20 0.0163052 0.00529239 2.16859e-09
5.64689e-22 -0.0168686 0.00307981 2.68019e-05
2.82344e-22 0.0168686 0.00307981 7.31472e-10
-2.71051e-20 -0.0164829 0.00475882 6.92952e-06
-2.71051e-20 0.016483 0.00475887 2.89014e-10
0 -0.0162225 0.00559923 1.37388e-05
-1.35525e-20 0.0162226 0.00559931 2.25223e-09
1.35525e-20 -0.0163053 0.00551974 1.37539e-05
-1.35525e-20 0.0163054 0.00551981 2.23959e-09
1.35525e-20 -0.0162978 0.00565404 1.33352e-05
1.35525e-20 0.0162979 0.0056541 2.19599e-09
2.82344e-22 -0.0168399 0.00376458 2.121e-05
2.82344e-22 0.0168399 0.00376458 4.23157e-10
0 -0.0163778 0.00571225 1.39075e-05
0 0.0163779 0.00571231 2.30591e-09
0 -0.0164263 0.00561382 1.38928e-05
1.35525e-20 0.0164264 0.00561388 2.28404e-09
5.64689e-22 -0.0168092 0.00443951 1.40499e-05
1.12938e-21 0.0168092 0.00443953 3.06149e-10
-2.71051e-20 -0.0172154 0.00273637 3.39125e-05
5.42101e-20 0.0172154 0.00273638 1.17342e-09
-5.42101e-20 -0.0171664 0.00341209 2.60207e-05
-2.71051e-20 0.0171664 0.00341209 6.95721e-10
2.25875e-21 -0.0167257 0.0051641 1.15895e-05
2.25875e-21 0.0167257 0.00516414 1.15036e-09
2.71051e-20 -0.0166359 0.00556304 1.38603e-05
0 0.016636 0.00556311 2.30253e-09
0 -0.0165776 0.00585761 1.47339e-05
-2.03288e-20 0.0165777 0.0058577 2.32586e-09
1.35525e-20 -0.016648 0.00578953 1.4833e-05
0 0.0166481 0.00578962 2.30906e-09
0 -0.0171607 0.00407706 2.37339e-05
2.71051e-20 0.0171607 0.00407707 4.81221e-10
0 0.0176484 3.23622e-05 2.05957e-08
0 -0.0176485 3.23255e-05 7.77076e-05
6.77626e-21 0.0176509 -8.03953e-21 2.05957e-08
-6.77626e-21 -0.0176509 -8.02755e-21 7.77053e-05
1.35525e-20 -0.0166431 0.00590528 1.49047e-05
0 0.0166432 0.00590537 2.23254e-09
1.12938e-21 -0.0176285 0.00116335 7.39734e-05
-1.12938e-21 0.0176285 0.00116335 1.19967e-08
0 -0.0176822 2.53433e-21 7.80686e-05
0 0.0176822 2.54066e-21 2.06371e-08
0 -0.0177126 3.15372e-05 7.8492e-05
6.77626e-21 0.0177127 3.15721e-05 2.07193e-08
0 -0.0177142 2.51158e-21 7.84949e-05
6.77626e-21 0.0177142 2.51789e-21 2.07204e-08
0 -0.0167058 0.00595053 1.59947e-05
-2.71051e-20 0.0167058 0.0059506 2.29068e-09
-1.35525e-20 -0.0167518 0.00589235 1.59098e-05
2.71051e-20 -0.0171029 0.00477857 1.33948e-05
-2.71051e-20 0.0171029 0.00477859 2.82968e-10
-1.35525e-20 0.0167519 0.00589242 2.28432e-09
-5.29396e-23 -0.0175088 0.00306384 3.42983e-05
0 0.0175088 0.00306385 1.20485e-09
8.99973e-22 0.0175117 0.00304918 1.22443e-09
0 -0.0175118 0.00304895 3.46763e-05
8.47033e-22 0.0176368 0.00232613 2.17044e-09
-8.47033e-22 -0.0176368 0.00232613 5.2631e-05
3.76459e-21 -0.0169118 0.00560669 1.34893e-05
0 0.0169119 0.00560674 1.69517e-09
4.23516e-22 -0.0175634 0.0036581 3.02333e-05
-2.82344e-22 0.0175634 0.00365811 1.03396e-09
2.71051e-20 -0.0171319 0.00538503 9.49982e-06
2.71051e-20 0.017132 0.00538507 4.4901e-10
5.42101e-20 -0.0169968 0.00585981 1.69102e-05
-2.71051e-20 0.0169969 0.00585986 2.25486e-09
1.69407e-21 -0.0174515 0.00442257 2.41112e-05
0 0.0174515 0.00442258 7.48488e-10
1.35525e-20 -0.0169525 0.00612936 1.6316e-05
1.35525e-20 0.0169526 0.0061294 2.35897e-09
0 -0.0170054 0.00608737 1.62578e-05
0 0.0170054 0.00608742 2.35684e-09
0 -0.0170095 0.00617053 1.59513e-05
0 0.0170095 0.00617057 2.41659e-09
-5.64689e-22 -0.0174299 0.0050817 1.65963e-05
-1.69407e-21 0.0174299 0.00508172 5.30438e-10
1.35525e-20 -0.0170585 0.00621569 1.58834e-05
-1.35525e-20 0.0170585 0.00621572 2.43516e-09
-1.35525e-20 -0.0170957 0.00616015 1.5879e-05
-1.35525e-20 0.0170957 0.00616018 2.42565e-09
2.71051e-20 -0.0177881 0.00407867 3.06133e-05
0 0.0177881 0.00407867 1.30487e-09
-5.42101e-20 -0.0182492 0.000583224 8.55392e-05
-5.42101e-20 0.0182492 0.000583225 2.22796e-08
1.0842e-19 0.0182177 0.0017667 3.53441e-09
1.0842e-19 -0.0182177 0.00176669 8.53887e-05
4.51751e-22 -0.0173923 0.00576036 1.40502e-05
3.61401e-21 0.0173923 0.00576039 1.3056e-09
2.71051e-20 -0.0173272 0.00613648 1.51309e-05
-2.71051e-20 0.0173273 0.00613651 2.49779e-09
2.71051e-20 -0.0177633 0.00473764 2.82785e-05
-5.42101e-20 0.0177633 0.00473765 9.15309e-10
0 0.0181474 0.0030587 2.04963e-09
5.42101e-20 -0.0181474 0.0030587 4.78444e-05
1.35525e-20 -0.0172962 0.00642627 1.64498e-05
1.35525e-20 0.0172963 0.0064263 2.58088e-09
0 -0.0173396 0.0063839 1.6468e-05
6.77626e-21 0.0173396 0.00638392 2.57794e-09
-2.11758e-22 -0.0181239 0.00372575 3.86373e-05
-3.13402e-20 0.0181204 0.00372592 2.38334e-09
0 -0.017341 0.00646754 1.67752e-05
0 0.017341 0.00646756 2.62975e-09
0 -0.0177401 0.00540102 1.59916e-05
0 0.0177401 0.00540103 4.94656e-10
0 -0.0173831 0.00650956 1.72857e-05
1.35525e-20 0.017383 0.00650958 2.63632e-09
0 -0.0174233 0.00646349 1.72138e-05
-6.77626e-21 0.0174233 0.00646351 2.62726e-09
2.82344e-22 -0.0180948 0.00439399 3.31995e-05
0 0.0180948 0.00439399 2.18017e-09
-5.27043e-21 -0.0175914 0.00620021 1.53971e-05
7.52918e-22 0.0175914 0.00620023 1.93374e-09
2.11758e-22 0.0183804 0.00368314 3.48901e-09
0 -0.0183807 0.00368309 4.48702e-05
1.41172e-21 -0.0180744 0.00505373 2.72059e-05
-2.82344e-22 0.0180744 0.00505374 1.57807e-09
0 -0.0177917 0.0059867 1.25153e-05
-5.42101e-20 0.0177917 0.00598672 5.57362e-10
-2.71051e-20 -0.0176705 0.0064614 1.84229e-05
-2.71051e-20 0.0176705 0.00646142 2.67842e-09
0 0.0188284 2.77018e-05 2.50001e-08
0 -0.0188284 2.76802e-05 9.10492e-05
3.38813e-21 0.0188292 1.48229e-23 2.49992e-08
0 -0.0188293 1.48286e-23 9.10462e-05
6.77626e-21 -0.0176058 0.00673268 1.75321e-05
6.77626e-21 0.0176058 0.00673269 2.79003e-09
0 -0.0188572 -5.94296e-24 9.13293e-05
0 0.0188572 -5.97214e-24 2.51155e-08
-5.64689e-22 -0.0188314 0.00116255 9.69581e-05
1.12938e-21 0.0188314 0.00116255 1.4798e-08
0 -0.0184312 0.00404065 4.07318e-05
0 0.0184312 0.00404065 3.57745e-09
6.77626e-21 -0.0176558 0.00669542 1.74697e-05
0 0.0176558 0.00669544 2.78728e-09
0 -0.0188846 2.72799e-05 9.16106e-05
0 0.0188846 2.73009e-05 2.52387e-08
0 -0.0188852 -5.78528e-24 9.16118e-05
3.38813e-21 0.0188852 -5.80297e-24 2.52395e-08
0 -0.0176488 0.0067757 1.70961e-05
0 0.0176488 0.00677571 2.84986e-09
1.69407e-21 -0.0180727 0.00569488 1.925e-05
1.69407e-21 0.0180727 0.00569489 9.62219e-10
-8.47033e-22 -0.0188 0.00239129 8.67488e-05
2.82344e-22 0.0188 0.00239129 4.22573e-09
6.77626e-21 -0.0176919 0.00681868 1.68422e-05
6.77626e-21 0.0176919 0.00681869 2.86694e-09
6.77626e-21 -0.0177277 0.00676628 1.68549e-05
0 0.0177277 0.00676629 2.8555e-09
0 -0.0183972 0.00470952 3.33523e-05
2.71051e-20 0.0183972 0.00470952 2.92636e-09
-1.807e-21 -0.018036 0.00636963 1.59976e-05
-4.51751e-22 0.018036 0.00636963 1.63381e-09
2.71051e-20 -0.0184065 0.00534982 3.08793e-05
2.71051e-20 0.0184065 0.00534983 1.96781e-09
0 0.0188389 0.00360748 5.45128e-09
0 -0.0188389 0.00360748 5.59504e-05
0 0.0188382 0.00361428 5.46555e-09
0 -0.0188382 0.00361428 5.59937e-05
0 -0.0179575 0.00674598 1.57796e-05
0 0.0179575 0.00674599 2.93125e-09
-2.11758e-22 -0.018797 0.00392551 4.95047e-05
0 0.018797 0.00392572 5.32358e-09
1.86347e-20 -0.0187299 0.00435993 4.04852e-05
0 0.0187299 0.00435994 5.10656e-09
8.47033e-22 -0.0187383 0.00436424 4.04597e-05
-5.0822e-21 0.0187295 0.00436908 5.13251e-09
6.77626e-21 -0.0179112 0.0070374 1.70819e-05
0 0.0179112 0.00703741 3.06947e-09
6.77626e-21 -0.0179573 0.0069938 1.71054e-05
0 0.0179573 0.00699381 3.06681e-09
0 -0.0179545 0.00708061 1.74316e-05
0 0.0179545 0.00708062 3.14431e-09
-2.71051e-20 -0.018373 0.00601996 1.86691e-05
2.71051e-20 0.018373 0.00601997 9.02513e-10
-6.77626e-21 -0.0179982 0.00712413 1.79839e-05
6.77626e-21 0.0179982 0.00712414 3.17021e-09
6.77626e-21 -0.0180407 0.00707639 1.79057e-05
-6.77626e-21 0.0180407 0.0070764 3.15608e-09
5.64689e-22 -0.0187993 0.00494162 3.70114e-05
0 0.0187993 0.00494163 4.94044e-09
-5.27043e-21 -0.0182149 0.00681267 1.64864e-05
0 0.0182149 0.00681268 2.34456e-09
0 0.0194433 0.000583039 2.79758e-08
-5.42101e-20 -0.0194433 0.000583038 9.71891e-05
5.42101e-20 -0.0194241 0.00177777 0.000119988
5.42101e-20 0.0194241 0.00177777 4.98549e-09
-8.47033e-22 -0.0187034 0.00568152 3.10974e-05
0 0.0187034 0.00568153 3.25546e-09
0 -0.0184175 0.00660392 1.44935e-05
-2.71051e-20 0.0184175 0.00660393 7.66024e-10
0 -0.0182856 0.0070727 1.91055e-05
2.71051e-20 0.0182856 0.00707271 3.25157e-09
6.77626e-21 -0.0182152 0.00734069 1.8243e-05
6.77626e-21 0.0182152 0.0073407 3.42541e-09
0 0.0194206 0.00301783 6.26386e-09
0 -0.0194206 0.00301783 9.21006e-05
6.77626e-21 -0.0182686 0.00730221 1.81756e-05
6.77626e-21 0.0182686 0.00730222 3.42288e-09
-1.35525e-20 -0.0182601 0.00738542 1.77931e-05
0 0.0182601 0.00738543 3.5183e-09
0 -0.0186945 0.00631878 2.27657e-05
5.64689e-22 0.0186945 0.00631878 1.7919e-09
-6.77626e-21 -0.0183052 0.00743049 1.75365e-05
0 0.0183052 0.0074305 3.55457e-09
-5.42101e-20 -0.0190301 0.00535182 3.84224e-05
5.42101e-20 0.0190301 0.00535182 6.20158e-09
-6.77626e-21 -0.0183432 0.00737621 1.75488e-05
0 0.0183432 0.00737622 3.53725e-09
0 -0.0193729 0.00433863 5.12365e-05
-5.42101e-20 0.019373 0.00433863 1.11864e-08
0 -0.0186551 0.00698434 1.77784e-05
1.807e-21 0.0186551 0.00698435 2.16782e-09
2.71051e-20 -0.019014 0.00599212 3.61675e-05
0 0.019014 0.00599212 3.94721e-09
2.71051e-20 -0.0185715 0.00735757 1.64913e-05
0 0.0185715 0.00735757 3.66415e-09
0 0.0193594 0.0050052 1.19863e-08
3.76459e-22 -0.0193594 0.0050052 4.44725e-05
3.38813e-21 0.0200241 2.32174e-05 3.21162e-08
0 -0.0200241 2.32014e-05 0.000100584
3.38813e-21 0.0200244 -7.11699e-26 3.21153e-08
0 -0.0200244 -6.24703e-26 0.000100583
-6.77626e-21 -0.0185211 0.00764585 1.77944e-05