# omega  POINT_DATA 14056
# x  y  z  omega
-3.38813e-21 0.0103526 8.05504e-08 1504.87
3.38813e-21 -0.0103526 8.07755e-08 1505.17
3.38813e-21 -0.0103526 3.76214e-05 1531.07
-3.38813e-21 0.0103526 3.76305e-05 1530.77
3.38813e-21 -0.0103526 0.000631429 2001.77
3.38813e-21 0.0103526 0.000631529 2001.47
3.38813e-21 -0.0103526 0.000667946 2036.88
-3.38813e-21 0.0103526 0.000668067 2036.6
-3.38813e-21 -0.0103526 0.000705987 2167.27
0 0.0103526 0.000706122 2167.03
0 -0.0103777 4.50189e-05 1536.28
0 0.0103777 4.50396e-05 1535.97
3.38813e-21 0.0103798 8.03087e-08 1537.21
-3.38813e-21 -0.0103798 8.04298e-08 1537.52
0 -0.0103769 0.000621356 1993.15
0 0.0103769 0.000621457 1992.84
0 -0.0103728 0.000705935 2184
0 0.0103728 0.000706086 2183.79
0 -0.0103526 0.00132431 2933.36
3.38813e-21 0.0103526 0.0013244 2933.01
-3.38813e-21 -0.0103526 0.00136256 2900.99
0 0.0103526 0.00136268 2900.6
3.38813e-21 -0.0103526 0.00140245 3032.86
-3.38813e-21 0.0103526 0.00140259 3032.52
3.38813e-21 -0.0103729 0.00131435 2937.91
0 0.0103729 0.00131444 2937.57
0 -0.0103703 0.00139272 3048.06
0 0.0103703 0.00139287 3047.74
0 -0.0105447 0.00032626 1560.52
0 0.0105447 0.000326369 1560.2
3.38813e-21 -0.0103526 0.00204573 2337
-3.38813e-21 0.0103526 0.00204573 2337.17
-3.38813e-21 0.0103526 0.002087 2103.73
3.38813e-21 -0.0103526 0.002087 2103.41
-6.77626e-21 -0.0103709 0.00202634 2362.83
0 0.0103709 0.00202635 2363
0 -0.0105347 0.000977469 2703.69
-2.71051e-20 0.0105347 0.000977685 2703.5
0 -0.0103716 0.0020967 2033.9
0 0.0103716 0.00209671 2034.3
0 -0.0103939 0.0020689 2025.5
0 0.0103939 0.00206891 2025.9
3.38813e-21 -0.0105174 0.00130539 2227.59
0 0.0105177 0.00130551 2216.62
-1.35525e-20 -0.0105165 0.00160451 3384.21
0 0.0105165 0.00160468 3383.74
6.77626e-21 0.0106643 8.07563e-08 1361.41
-6.77626e-21 -0.0106644 8.09383e-08 1361.91
0 0.0106643 0.000112715 1355.04
-6.77626e-21 -0.0106644 0.000112638 1355.54
3.38813e-21 -0.0104508 0.00213729 1929.54
-6.77626e-21 0.010451 0.00213734 1929.75
0 0.0107383 7.95475e-08 1161.83
0 -0.0107384 7.92342e-08 1162.54
-5.64689e-22 -0.0107484 0.000677195 1190.49
1.8823e-22 0.0107484 0.000677558 1179.97
0 0.010797 0.000148914 1029.41
-6.77626e-21 -0.010797 0.000148767 1030.36
0 -0.0107396 0.00123189 1330
0 0.0107396 0.00123223 1308.14
4.23516e-22 -0.0106812 0.00170017 1615
0 0.0106821 0.00169938 1587.93
-6.77626e-21 0.0108192 6.38521e-08 1004.53
6.77626e-21 -0.0108192 6.3635e-08 1005.55
5.50571e-21 -0.0107144 0.00166243 1565.97
-3.51519e-20 0.0107143 0.0016627 1538.03
2.71051e-20 -0.0106712 0.00197829 1413.1
1.35525e-20 0.0106712 0.00197839 1413.98
0 0.0108952 0.000304094 866.766
0 -0.0108952 0.000303947 867.825
0 -0.0109109 0.000915282 447.916
0 0.0109109 0.00091567 462.785
1.35525e-20 -0.0107157 0.00227289 1302.18
1.35525e-20 0.0107158 0.00227295 1302.82
-1.35525e-20 -0.0107627 0.00222008 1304.35
0 0.0107627 0.00222022 1305
-1.35525e-20 -0.0108925 0.00149286 504.355
1.35525e-20 0.0108925 0.00149316 502.513
-1.35525e-20 -0.0107724 0.00230193 1352.54
0 0.0107724 0.00230196 1353.15
0 0.0108212 0.00232693 1429.41
0 -0.0108212 0.00232693 1428.86
0 0.0108444 0.00228008 1427.44
0 -0.0108445 0.00228001 1426.88
4.51751e-21 -0.0111112 0.000616145 596.794
-2.25875e-21 0.0111112 0.00061649 587.626
0 0.0111535 1.53938e-06 862.217
-2.11758e-22 -0.0111473 5.47822e-06 863.381
0 0.011147 5.86234e-06 862.331
-4.44692e-21 0.0111509 1.29512e-05 856.551
-5.29396e-21 -0.011151 1.21022e-05 858.176
-2.25875e-21 -0.011096 0.00121465 395.078
-6.77626e-21 0.0110959 0.00121503 380.606
0 -0.0111696 -5.96294e-10 862.959
-3.17637e-21 0.0111707 -7.22546e-10 861.791
3.76459e-22 -0.0110352 0.00184535 844.064
-3.76459e-21 0.0110352 0.00184552 832.237
0 0.0109407 0.00238813 1575.53
1.35525e-20 -0.0109408 0.00238818 1575.19
-1.35525e-20 -0.0111532 0.00249687 1635.27
-1.35525e-20 0.0111532 0.00249688 1635.56
-5.42101e-20 0.0114315 0.000308606 840.262
2.71051e-20 -0.0114315 0.000308467 841.464
0 -0.0114183 0.000918416 198.913
0 0.0114183 0.000918716 174.663
0 -0.0113875 0.00154703 194.467
-2.71051e-20 0.0113875 0.00154727 168.504
-9.03502e-21 -0.0112598 0.0023139 1455.6
6.77626e-21 0.0112598 0.00231395 1457.1
0 -0.0113392 0.00259198 1771.74
1.35525e-20 0.0113393 0.00259202 1771.93
0 -0.0116793 5.66494e-05 856.43
0 0.0116793 5.66517e-05 855.246
0 -0.0116837 2.74733e-09 856.679
-6.77626e-21 0.0116838 2.70093e-09 855.494
0 0.0117329 2.82821e-09 861.969
0 -0.0117329 2.87033e-09 863.151
1.12938e-21 -0.0117325 0.000605076 522.426
-1.12938e-21 0.0117325 0.000605313 513.041
1.12938e-21 -0.0117171 0.00123388 166.813
3.38813e-21 0.0117171 0.00123417 146.502
0 -0.0114795 0.00266368 1976.1
0 0.0114796 0.0026637 1976.1
-6.77626e-21 0.0117883 2.65853e-09 865.841
0 -0.0117883 2.69853e-09 867.024
0 0.0117892 5.42091e-05 865.829
0 -0.0117892 5.42112e-05 867.012
-1.35525e-20 -0.0115087 0.00262146 1956.88
-1.35525e-20 0.0115087 0.0026215 1956.89
-2.25875e-21 -0.0116586 0.00190773 434.824
0 0.0116586 0.0019079 420.663
-1.35525e-20 -0.0115418 0.00269549 1703.09
0 0.0115418 0.0026955 1703.12
-1.35525e-21 -0.0117157 0.00235642 1192.81
-4.51751e-22 0.0117159 0.0023565 1187.2
2.71051e-20 -0.0116486 0.00275063 1585.95
-2.71051e-20 0.0116486 0.00275064 1585.93
0 -0.0116731 0.00267354 1598.21
0 0.0116731 0.00267357 1598.21
-2.71051e-20 0.0120453 0.000301328 881.115
0 -0.0120454 0.000301236 882.283
-2.71051e-20 -0.0120511 0.000915357 158.922
0 0.0120511 0.00091557 147.877
0 -0.012033 0.00156459 113.175
0 0.012033 0.00156477 93.1532
0 -0.01206 0.00216221 284.721
-2.71051e-20 0.0120601 0.0021623 250.157
-2.71051e-20 -0.0119656 0.00265564 1549.81
2.71051e-20 0.0119656 0.00265569 1549.71
-6.77626e-21 -0.0122893 7.15655e-10 901.835
6.77626e-21 0.0122894 7.14789e-10 900.722
0 -0.0122905 5.31758e-05 901.843
0 0.0122905 5.31808e-05 900.73
-6.77626e-21 0.0123436 5.48212e-10 906.843
6.77626e-21 -0.0123436 5.47007e-10 907.954
-3.38813e-21 -0.0123659 0.000596094 537.413
2.25875e-21 0.0123659 0.000596232 531.526
6.77626e-21 0.0123987 5.15494e-10 911.493
-6.77626e-21 -0.0123987 5.14349e-10 912.601
0 0.0124005 5.03406e-05 911.443
0 -0.0124005 5.03428e-05 912.552
0 -0.0120574 0.00296139 1425.74
0 0.0120574 0.00296139 1425.49
-1.12938e-21 -0.012372 0.00122747 129.127
0 0.0123721 0.00122764 114.884
-1.35525e-20 -0.0121088 0.00291077 1424.39
-1.35525e-20 0.0121089 0.00291076 1424.13
-1.12938e-21 -0.0123745 0.00187604 160.461
-1.12938e-21 0.0123745 0.00187616 136.748
0 -0.0121515 0.00300998 1416.12
0 0.0121516 0.00301001 1415.83
-1.35525e-20 -0.0121996 0.00303504 1501.3
1.35525e-20 0.0121997 0.00303509 1501.08
-1.35525e-20 -0.0122191 0.00298806 1496.25
-1.35525e-20 0.0122192 0.00298808 1496.03
-1.03526e-21 -0.0123756 0.00256225 873.198
-9.41148e-23 0.0123756 0.00256229 864.901
-2.71051e-20 0.0126709 0.000293136 931.31
5.42101e-20 -0.012671 0.000293093 932.364
-2.71051e-20 -0.0123021 0.00308847 1601.05
0 0.0123022 0.00308853 1600.81
0 -0.0126957 0.000898572 159.776
-2.71051e-20 0.0126958 0.00089868 149.316
0 -0.012709 0.00153933 83.6943
0 0.012709 0.00153943 68.0758
-2.71051e-20 -0.0126986 0.00221282 152.831
2.71051e-20 0.0126986 0.00221288 128.469
0 -0.0129174 7.10976e-11 971.164
0 0.0129174 7.11602e-11 970.124
-6.77626e-21 -0.0129197 4.74348e-05 971.193
0 0.0129197 4.7433e-05 970.153
-1.35525e-20 -0.012518 0.00320081 1573.84
1.35525e-20 0.0125181 0.00320085 1573.49
0 0.0129692 4.0155e-11 982.867
0 -0.0129692 4.01508e-11 983.904
0 -0.0126235 0.00300075 1425.25
-2.25875e-21 0.0126235 0.00300078 1425.66
3.38813e-21 0.0130046 0.000577477 572.335
1.12938e-21 -0.0130047 0.000577423 578.678
-6.77626e-21 0.0130214 3.77547e-11 988.996
0 -0.0130214 3.77506e-11 990.038
0 0.0130235 4.52047e-05 988.943
0 -0.0130235 4.52074e-05 989.985
-1.69407e-21 -0.0130315 0.00119939 125.347
3.38813e-21 0.0130316 0.00119946 109.014
-1.12938e-21 -0.0130336 0.0018718 105.097
-5.64689e-22 0.0130336 0.00187185 81.1367
0 -0.0127497 0.00332057 1709.39
6.77626e-21 0.0127498 0.00332061 1708.88
-1.12938e-21 -0.0129826 0.00259345 442.616
4.51751e-21 0.0129826 0.00259348 424.888
0 -0.0128395 0.0033668 1814.8
1.35525e-20 0.0128396 0.00336684 1814.23
0 -0.0128582 0.00333774 1801.4
0 0.0128583 0.00333778 1800.82
0 0.0132994 0.000279159 1027.76
-2.71051e-20 -0.0132995 0.000279137 1028.79
-1.35525e-20 -0.0128782 0.00338673 1633.41
0 0.0128783 0.00338677 1632.8
-5.42101e-20 0.0133387 0.000865034 160.098
0 -0.0133387 0.000865002 173.178
4.51751e-22 0.0130334 0.00304019 1152.52
2.25875e-22 -0.0130353 0.00304025 1160.65
6.77626e-21 -0.0129436 0.00342031 1555.76
-6.77626e-21 0.0129437 0.00342035 1555.11
0 -0.0129615 0.00336796 1563.84
1.35525e-20 0.0129616 0.00336799 1563.19
0 -0.0133632 0.00150671 83.6092
2.71051e-20 0.0133632 0.00150676 57.3949
2.71051e-20 -0.0133512 0.00219868 100.507
0 0.0133512 0.00219872 70.7223
0 -0.0135358 4.47523e-12 1096.58
0 0.0135358 4.47588e-12 1095.6
0 -0.0135385 4.91843e-05 1096.61
0 0.0135385 4.91803e-05 1095.62
0 0.0135929 1.8852e-12 1121.33
6.77626e-21 -0.0135929 1.88467e-12 1122.3
1.12938e-21 0.013636 0.000546304 649.958
1.12938e-21 -0.0136361 0.000546291 666.217
-6.77626e-21 0.0136512 1.75111e-12 1128.99
0 -0.0136512 1.75062e-12 1129.97
0 0.0136535 4.92267e-05 1128.68
-6.77626e-21 -0.0136536 4.92359e-05 1129.66
-2.71051e-20 -0.0133731 0.00282535 287.239
2.71051e-20 0.0133732 0.00282536 240.886
-2.71051e-20 -0.0132749 0.0033279 1494.95
-2.71051e-20 0.0132749 0.00332792 1494.14
-1.69407e-21 -0.013679 0.00115206 144.972
-5.64689e-22 0.013679 0.00115208 114.46
0 -0.0136921 0.00182715 86.9117
1.12938e-21 0.0136921 0.00182717 57.7152
6.77626e-21 -0.0133673 0.00363809 1381.82
-6.77626e-21 0.0133673 0.00363812 1381.05
0 -0.013405 0.00359705 1381.5
0 0.013405 0.00359708 1380.73
5.64689e-22 -0.0136837 0.00251747 157.399
-1.69407e-21 0.0136838 0.00251749 121.804
0 0.0139138 0.000259106 1193.37
0 -0.0139138 0.000259099 1194.3
-1.35525e-20 -0.0134314 0.00367104 1381.81
0 0.0134314 0.00367107 1381.05
-1.35525e-20 -0.013468 0.00368979 1455.31
0 0.013468 0.00368982 1454.57
0 -0.0134844 0.00365352 1450.87
0 0.0134844 0.00365356 1450.13
2.71051e-20 0.0139705 0.000815055 180.776
-2.71051e-20 -0.0139705 0.000815048 231.282
2.50973e-22 -0.013675 0.00322688 852.479
6.27432e-23 0.013675 0.0032269 836.998
6.77626e-21 -0.0135481 0.00373065 1533.91
0 0.0135481 0.00373069 1533.21
-2.71051e-20 -0.0140148 0.00144488 88.7128
5.42101e-20 0.0140148 0.00144489 56.3672
6.77626e-21 -0.0141256 1.99131e-13 1380.39
6.77626e-21 0.0141256 1.99166e-13 1379.54
6.77626e-21 -0.0141299 5.79419e-05 1380.88
-1.35525e-20 0.0141299 5.79229e-05 1380.03
-2.71051e-20 -0.01402 0.00213792 75.8983
-2.71051e-20 0.01402 0.00213792 47.1893
0 0.0141962 4.63662e-14 1454.79
-1.35525e-20 -0.0141962 4.63611e-14 1455.65
-1.12938e-21 0.0142449 0.000498317 844.389
1.12938e-21 -0.0142449 0.000498316 870.297
0 0.0142626 5.40721e-05 1491.48
-6.77626e-21 -0.0142627 5.40946e-05 1492.33
-6.77626e-21 0.0142685 4.24128e-14 1493.43
6.77626e-21 -0.0142685 4.24077e-14 1494.28
-5.42101e-20 -0.0139913 0.00285486 157.887
-2.71051e-20 0.0139913 0.00285488 120.843
6.77626e-21 -0.0137721 0.00385092 1504.38
-6.77626e-21 0.0137722 0.00385096 1503.85
5.64689e-22 -0.0138917 0.00364951 1367.16
0 0.0138917 0.00364954 1366.73
-1.12938e-21 0.0143255 0.00107369 133.928
0 -0.0143255 0.00107369 179.187
0 -0.0143513 0.0017511 84.4192
5.64689e-22 0.0143513 0.0017511 51.2942
2.71051e-20 -0.0144732 0.000219186 1666.86
0 0.0144732 0.000219182 1666.1
6.77626e-21 -0.0139827 0.00397686 1583.86
-6.77626e-21 0.0139828 0.00397691 1583.15
2.82344e-21 -0.0143298 0.00248451 99.3646
2.82344e-21 0.0143298 0.00248452 65.3293
-2.71051e-20 0.0145986 0.000742805 223.55
-2.71051e-20 -0.0145986 0.000742806 277.367
4.51751e-21 -0.0142572 0.00324559 433.162
3.38813e-21 0.0142572 0.00324562 407.661
1.35525e-20 -0.0140601 0.00402775 1674.22
0 0.0140601 0.00402781 1673.5
0 -0.014081 0.00400157 1657.25
0 0.0140811 0.00400163 1656.52
0 -0.0140961 0.00405297 1499.84
0 0.0140962 0.00405303 1499.09
5.27043e-21 -0.0146978 0.000423854 895.475
7.52918e-22 0.0146978 0.000423853 876.796
6.77626e-21 -0.014714 5.32172e-05 1291.38
0 0.0147141 5.31873e-05 1289.91
6.77626e-21 -0.0147156 4.07604e-15 1295.15
6.77626e-21 0.0147157 4.07548e-15 1293.68
6.77626e-21 -0.0141531 0.00409437 1318.82
0 0.0141532 0.00409444 1317.98
-1.35525e-20 -0.014186 0.00402833 1344.69
0 0.0141861 0.00402839 1343.85
2.71051e-20 -0.0146871 0.00133462 109.991
-2.71051e-20 0.0146871 0.00133462 65.7386
-6.35275e-22 -0.0142916 0.00370912 1050.33
7.05861e-22 0.0142916 0.00370916 1038.87
-6.77626e-21 -0.0147878 2.32668e-16 1182
6.77626e-21 0.0147879 2.32452e-16 1180.37
5.42101e-20 -0.0146599 0.00209093 64.6596
0 0.0146599 0.00209094 36.9433
0 -0.014843 8.03853e-05 1050.71
0 0.014843 8.03526e-05 1048.91
0 -0.0148561 2.18777e-16 1047.77
0 0.0148561 2.1855e-16 1045.96
-2.71051e-20 -0.0146441 0.00281789 100.007
0 0.0146441 0.0028179 57.7462
2.71051e-20 -0.0150101 0.000339146 697.945
2.71051e-20 0.0150101 0.000339154 695.602
-2.71051e-20 -0.0144832 0.00400474 1168.11
-2.71051e-20 0.0144832 0.0040048 1167.14
-2.71051e-20 -0.0144181 0.00428662 1186.48
0 0.0144182 0.0042867 1185.49
2.71051e-20 -0.0146327 0.00349143 255.066
-2.71051e-20 0.0146327 0.00349146 208.553
0 -0.0149972 0.00170299 85.0589
1.8823e-21 0.0149972 0.001703 49.1047
0 -0.0144912 0.00422844 1202.27
0 0.0144913 0.00422852 1201.27
1.35525e-20 -0.0144934 0.00434137 1273.58
1.35525e-20 0.0144936 0.00434146 1272.6
-1.35525e-21 -0.0151529 0.000909675 320.94
2.03288e-21 0.0151529 0.000909676 291.956
-2.71051e-20 -0.0145637 0.00439248 1242.06
1.35525e-20 0.0145638 0.00439257 1241.01
-2.71051e-20 -0.014602 0.00431156 1246.48
-1.35525e-20 0.0146021 0.00431164 1245.44
1.12938e-21 -0.0150574 0.00235817 77.4914
-1.12938e-21 0.0150574 0.00235818 43.2599
-5.64689e-22 -0.0149519 0.00315932 143.111
-2.25875e-21 0.0149519 0.00315933 98.0857
0 -0.0153675 5.06193e-05 582.05
-6.77626e-21 0.0153677 5.05775e-05 578.629
0 -0.015373 4.86614e-17 582.72
0 0.0153731 4.85588e-17 579.304
4.51751e-22 -0.0148915 0.00388258 695.969
-4.51751e-22 0.0148915 0.00388263 657.67
-6.77626e-21 -0.0154159 3.88773e-17 566.024
0 0.015416 3.87776e-17 562.496
-2.71051e-20 -0.0148215 0.00426958 1313.47
0 0.0148216 0.00426965 1312.39
0 -0.0154548 3.02596e-05 545.674
0 0.0154549 3.02264e-05 542.01
0 -0.0154565 3.72522e-17 546.041
0 0.0154566 3.71491e-17 542.38
6.77626e-21 -0.0148109 0.00457227 1412.87
0 0.014811 0.00457238 1411.68
6.77626e-21 -0.0148556 0.00452731 1428.07
0 0.0148557 0.00452741 1426.87
-2.71051e-20 -0.015291 0.00279582 72.4165
-2.71051e-20 0.015291 0.00279583 38.6634
0 -0.0148581 0.00460666 1510.19
0 0.0148583 0.00460678 1509
0 -0.0149 0.00463711 1489.75
6.77626e-21 0.0149001 0.00463723 1488.49
6.77626e-21 -0.0149278 0.00460013 1490.78
6.77626e-21 0.0149279 0.00460024 1489.53
2.71051e-20 -0.0152535 0.00349535 142.201
-2.71051e-20 0.0152535 0.00349537 85.4277
-7.52918e-22 -0.0150945 0.00432053 1134.31
1.50584e-21 0.0150946 0.00432059 1102.41
0 -0.0156481 0.00170282 75.6224
1.0842e-19 0.0156481 0.00170282 40.8884
0 0.0156283 0.00242155 34.9347
-1.8823e-22 -0.0156283 0.00242155 70.0917
-2.71051e-20 -0.0152931 0.00410118 383.75
0 0.0152932 0.00410122 285.483
-2.71051e-20 -0.015191 0.0045723 1664.07
0 0.0151911 0.00457238 1662.7
5.42101e-20 0.0158564 0.000503046 316.164
-5.42101e-20 -0.0158564 0.000503053 321.877
0 -0.0155955 0.00313147 92.6266
-5.64689e-22 0.0155955 0.00313148 49.3676
-6.77626e-21 -0.0151955 0.0048521 1729.8
-6.77626e-21 0.0151956 0.00485222 1728.5
-6.77626e-21 -0.0152218 0.00482879 1735.18
-6.77626e-21 0.0152219 0.0048289 1733.89
6.77626e-21 -0.0152273 0.00487524 1751.38
6.77626e-21 0.0152274 0.00487536 1750.11
-6.77626e-21 -0.0152573 0.00489706 1761.58
0 0.0152574 0.00489719 1760.31
-6.77626e-21 -0.0152733 0.00486831 1763.23
0 0.0152734 0.00486843 1761.96
-2.82344e-22 -0.0155765 0.00380625 205.312
5.64689e-22 0.0155765 0.00380628 137.766
-1.69407e-21 0.0161174 1.48167e-17 383.566
3.38813e-21 -0.0161182 1.48305e-17 389.183
2.71051e-20 0.0159438 0.00275754 28.0243
0 -0.0159438 0.00275754 64.7179
9.41148e-23 -0.0155623 0.0044811 997.81
1.17643e-22 0.0155624 0.00448116 953.837
2.71051e-20 -0.0155229 0.00482975 1866.28
2.71051e-20 0.015523 0.00482983 1865.09
-2.71051e-20 -0.0159029 0.00345691 92.25
-5.42101e-20 0.015903 0.00345692 46.0042
-3.38813e-21 -0.0155781 0.00513047 2038.12
-3.38813e-21 0.0155782 0.00513056 2037.02
0 -0.0158776 0.00413216 185.922
2.71051e-20 0.0158777 0.00413219 120.392
0 -0.0155898 0.00511599 2041.3
0 0.0155899 0.00511607 2040.2
-7.34095e-22 0.0163695 0.00112646 167.73
-5.64689e-22 -0.0163695 0.00112648 190.493
0 -0.0155955 0.00514312 2059.56
6.77626e-21 0.0155956 0.00514321 2058.47
0 -0.0156136 0.00515625 2074.25
0 0.0156137 0.00515634 2073.17
0 -0.0156211 0.00514122 2074.54
0 0.0156212 0.00514131 2073.46
2.11758e-22 0.0163299 0.00225504 35.9829
2.82344e-22 -0.0163314 0.00225388 71.5349
0 0.0165134 1.83628e-05 279.24
3.38813e-21 -0.0165134 1.83231e-05 286.396
0 0.016517 2.64107e-18 279.187
3.38813e-21 -0.016517 2.63768e-18 286.345
3.38813e-22 -0.0157793 0.00488992 1546.61
-7.34095e-22 0.0157794 0.00488999 1522.72
-2.82344e-22 -0.0162343 0.00309924 68.6708
5.64689e-22 0.0162343 0.00309924 31.6312
0 -0.0165394 -1.52047e-19 285.216
3.38813e-21 0.0165394 -1.53119e-19 278.008
3.38813e-21 -0.0165602 2.31403e-05 283.644
3.38813e-21 0.0165603 2.31905e-05 276.366
0 -0.0165622 -1.44108e-19 283.638
3.38813e-21 0.0165623 -1.45159e-19 276.359
0 -0.0159282 0.00468151 458.63
2.71051e-20 0.0159283 0.00468157 389.354
5.64689e-22 -0.0162015 0.00379234 114.036
0 0.0162016 0.00379236 63.9051
-2.71051e-20 -0.0158863 0.00511953 2287.43
-2.71051e-20 0.0158864 0.0051196 2286.47
0 -0.0165599 0.00274152 55.8206
2.71051e-20 0.0165599 0.00274152 23.4162
-1.12938e-21 -0.016193 0.00443156 262.958
-8.47033e-22 0.0161931 0.0044316 193.381
-6.77626e-21 -0.0159115 0.00537295 1728.76
0 0.0159116 0.00537303 1727.5
0 -0.0159381 0.00534058 1720.68
0 0.0159382 0.00534066 1719.42
0 -0.0159556 0.00540506 1626.17
0 0.0159557 0.00540513 1624.88
0 -0.0165346 0.00343545 62.7208
0 0.0165347 0.00343545 29.5769
-5.64689e-22 -0.0161473 0.00497226 1048.54
0 0.0161474 0.00497232 1010.43
0 -0.0160061 0.00544179 1378.88
-6.77626e-21 0.0160062 0.00544186 1377.49
-6.77626e-21 -0.0160434 0.00536957 1431.8
-6.77626e-21 0.0160435 0.00536965 1430.43
2.71051e-20 -0.0165061 0.00411387 114.604
-2.71051e-20 0.0165061 0.00411389 59.5257
-5.42101e-20 0.0169791 0.00178697 37.2002
-5.42101e-20 -0.0169791 0.00178697 79.8985
5.42101e-20 -0.0170733 0.000575202 250.457
0 0.0170733 0.000575203 241.826
-2.11758e-22 -0.0169161 0.00243812 60.587
-1.05879e-22 0.0169162 0.00243816 25.3771
0 -0.0163051 0.00529232 944.294
2.71051e-20 0.0163052 0.00529239 942.613
5.64689e-22 -0.0168686 0.00307981 56.5355
2.82344e-22 0.0168686 0.00307981 23.7434
-2.71051e-20 -0.0164829 0.00475882 260.915
-2.71051e-20 0.016483 0.00475887 176.046
0 -0.0162225 0.00559923 966.496
-1.35525e-20 0.0162226 0.00559931 964.825
1.35525e-20 -0.0163053 0.00551974 983.103
-1.35525e-20 0.0163054 0.00551981 981.426
1.35525e-20 -0.0162978 0.00565404 1067.91
1.35525e-20 0.0162979 0.0056541 1066.3
2.82344e-22 -0.0168399 0.00376458 75.3312
2.82344e-22 0.0168399 0.00376458 35.8048
0 -0.0163778 0.00571225 1047.82
0 0.0163779 0.00571231 1046.14
0 -0.0164263 0.00561382 1049.97
1.35525e-20 0.0164264 0.00561388 1048.28
5.64689e-22 -0.0168092 0.00443951 150.415
1.12938e-21 0.0168092 0.00443953 87.2097
-2.71051e-20 -0.0172154 0.00273637 54.4733
5.42101e-20 0.0172154 0.00273638 20.5279
-5.42101e-20 -0.0171664 0.00341209 53.3969
-2.71051e-20 0.0171664 0.00341209 21.6495
2.25875e-21 -0.0167257 0.0051641 598.486
2.25875e-21 0.0167257 0.00516414 547.622
2.71051e-20 -0.0166359 0.00556304 1113.85
0 0.016636 0.00556311 1112.16
0 -0.0165776 0.00585761 1171.62
-2.03288e-20 0.0165777 0.0058577 1169.82
1.35525e-20 -0.016648 0.00578953 1190.34
0 0.0166481 0.00578962 1188.52
0 -0.0171607 0.00407706 71.9552
2.71051e-20 0.0171607 0.00407707 33.2574
0 0.0176484 3.23622e-05 238.851
0 -0.0176485 3.23255e-05 248.292
6.77626e-21 0.0176509 -8.03953e-21 238.853
-6.77626e-21 -0.0176509 -8.02755e-21 248.293
1.35525e-20 -0.0166431 0.00590528 1295.74
0 0.0166432 0.00590537 1293.87
1.12938e-21 -0.0176285 0.00116335 166.549
-1.12938e-21 0.0176285 0.00116335 140.254
0 -0.0176822 2.53433e-21 248.292
0 0.0176822 2.54066e-21 238.809
0 -0.0177126 3.15372e-05 247.867
6.77626e-21 0.0177127 3.15721e-05 238.333
0 -0.0177142 2.51158e-21 247.866
6.77626e-21 0.0177142 2.51789e-21 238.331
0 -0.0167058 0.00595053 1274.7
-2.71051e-20 0.0167058 0.0059506 1272.67
-1.35525e-20 -0.0167518 0.00589235 1274.36
2.71051e-20 -0.0171029 0.00477857 149.392
-2.71051e-20 0.0171029 0.00477859 76.8392
-1.35525e-20 0.0167519 0.00589242 1272.35
-5.29396e-23 -0.0175088 0.00306384 52.6918
0 0.0175088 0.00306385 19.7574
8.99973e-22 0.0175117 0.00304918 19.9073
0 -0.0175118 0.00304895 52.9504
8.47033e-22 0.0176368 0.00232613 27.1624
-8.47033e-22 -0.0176368 0.00232613 65.2688
3.76459e-21 -0.0169118 0.00560669 973.072
0 0.0169119 0.00560674 938.481
4.23516e-22 -0.0175634 0.0036581 57.4676
-2.82344e-22 0.0175634 0.00365811 24.0502
2.71051e-20 -0.0171319 0.00538503 357.728
2.71051e-20 0.017132 0.00538507 250.726
5.42101e-20 -0.0169968 0.00585981 1383.93
-2.71051e-20 0.0169969 0.00585986 1381.77
1.69407e-21 -0.0174515 0.00442257 90.4606
0 0.0174515 0.00442258 43.0716
1.35525e-20 -0.0169525 0.00612936 1405.53
1.35525e-20 0.0169526 0.0061294 1403.48
0 -0.0170054 0.00608737 1411.84
0 0.0170054 0.00608742 1409.8
0 -0.0170095 0.00617053 1418.16
0 0.0170095 0.00617057 1416.16
-5.64689e-22 -0.0174299 0.0050817 195.415
-1.69407e-21 0.0174299 0.00508172 117.999
1.35525e-20 -0.0170585 0.00621569 1425.09
-1.35525e-20 0.0170585 0.00621572 1423.11
-1.35525e-20 -0.0170957 0.00616015 1428.35
-1.35525e-20 0.0170957 0.00616018 1426.37
2.71051e-20 -0.0177881 0.00407867 53.769
0 0.0177881 0.00407867 23.1182
-5.42101e-20 -0.0182492 0.000583224 245.563
-5.42101e-20 0.0182492 0.000583225 235.193
1.0842e-19 0.0182177 0.0017667 38.6411
1.0842e-19 -0.0182177 0.00176669 83.4901
4.51751e-22 -0.0173923 0.00576036 805.167
3.61401e-21 0.0173923 0.00576039 741.902
2.71051e-20 -0.0173272 0.00613648 1474.44
-2.71051e-20 0.0173273 0.00613651 1472.6
2.71051e-20 -0.0177633 0.00473764 88.692
-5.42101e-20 0.0177633 0.00473765 40.2199
0 0.0181474 0.0030587 15.4934
5.42101e-20 -0.0181474 0.0030587 48.5505
1.35525e-20 -0.0172962 0.00642627 1466.81
1.35525e-20 0.0172963 0.0064263 1464.79
0 -0.0173396 0.0063839 1471.42
6.77626e-21 0.0173396 0.00638392 1469.4
-2.11758e-22 -0.0181239 0.00372575 49.5406
-3.13402e-20 0.0181204 0.00372592 18.6544
0 -0.017341 0.00646754 1471.45
0 0.017341 0.00646756 1469.4
0 -0.0177401 0.00540102 173.862
0 0.0177401 0.00540103 95.3053
0 -0.0173831 0.00650956 1463.43
1.35525e-20 0.017383 0.00650958 1461.31
0 -0.0174233 0.00646349 1468.58
-6.77626e-21 0.0174233 0.00646351 1466.47
2.82344e-22 -0.0180948 0.00439399 61.5956
0 0.0180948 0.00439399 26.1483
-5.27043e-21 -0.0175914 0.00620021 1147.86
7.52918e-22 0.0175914 0.00620023 1101.26
2.11758e-22 0.0183804 0.00368314 17.2852
0 -0.0183807 0.00368309 48.3675
1.41172e-21 -0.0180744 0.00505373 102.895
-2.82344e-22 0.0180744 0.00505374 50.7214
0 -0.0177917 0.0059867 428.534
-5.42101e-20 0.0177917 0.00598672 285.632
-2.71051e-20 -0.0176705 0.0064614 1489.07
-2.71051e-20 0.0176705 0.00646142 1486.8
0 0.0188284 2.77018e-05 235.263
0 -0.0188284 2.76802e-05 246.285
3.38813e-21 0.0188292 1.48229e-23 235.263
0 -0.0188293 1.48286e-23 246.285
6.77626e-21 -0.0176058 0.00673268 1462.34
6.77626e-21 0.0176058 0.00673269 1460.17
0 -0.0188572 -5.94296e-24 246.349
0 0.0188572 -5.97214e-24 235.294
-5.64689e-22 -0.0188314 0.00116255 166.155
1.12938e-21 0.0188314 0.00116255 137.887
0 -0.0184312 0.00404065 46.1604
0 0.0184312 0.00404065 16.3463
6.77626e-21 -0.0176558 0.00669542 1467.49
0 0.0176558 0.00669544 1465.33
0 -0.0188846 2.72799e-05 246.362
0 0.0188846 2.73009e-05 235.274
0 -0.0188852 -5.78528e-24 246.363
3.38813e-21 0.0188852 -5.80297e-24 235.274
0 -0.0176488 0.0067757 1467.82
0 0.0176488 0.00677571 1465.7
1.69407e-21 -0.0180727 0.00569488 228.219
1.69407e-21 0.0180727 0.00569489 136.037
-8.47033e-22 -0.0188 0.00239129 66.57
2.82344e-22 0.0188 0.00239129 26.744
6.77626e-21 -0.0176919 0.00681868 1457.44
6.77626e-21 0.0176919 0.00681869 1455.35
6.77626e-21 -0.0177277 0.00676628 1463.3
0 0.0177277 0.00676629 1461.22
0 -0.0183972 0.00470952 58.2941
2.71051e-20 0.0183972 0.00470952 25.1013
-1.807e-21 -0.018036 0.00636963 850.897
-4.51751e-22 0.018036 0.00636963 778.771
2.71051e-20 -0.0184065 0.00534982 92.459
2.71051e-20 0.0184065 0.00534983 43.2605
0 0.0188389 0.00360748 14.8374
0 -0.0188389 0.00360748 46.275
0 0.0188382 0.00361428 14.836
0 -0.0188382 0.00361428 46.2652
0 -0.0179575 0.00674598 1467.57
0 0.0179575 0.00674599 1465.61
-2.11758e-22 -0.018797 0.00392551 47.7052
0 0.018797 0.00392572 16.4354
1.86347e-20 -0.0187299 0.00435993 49.6522
0 0.0187299 0.00435994 18.6233
8.47033e-22 -0.0187383 0.00436424 49.7093
-5.0822e-21 0.0187295 0.00436908 18.6735
6.77626e-21 -0.0179112 0.0070374 1446.81
0 0.0179112 0.00703741 1444.68
6.77626e-21 -0.0179573 0.0069938 1452.3
0 0.0179573 0.00699381 1450.17
0 -0.0179545 0.00708061 1454.44
0 0.0179545 0.00708062 1452.27
-2.71051e-20 -0.018373 0.00601996 194.133
2.71051e-20 0.018373 0.00601997 103.498
-6.77626e-21 -0.0179982 0.00712413 1445.29
6.77626e-21 0.0179982 0.00712414 1443.05
6.77626e-21 -0.0180407 0.00707639 1451.07
-6.77626e-21 0.0180407 0.0070764 1448.84
5.64689e-22 -0.0187993 0.00494162 65.4887
0 0.0187993 0.00494163 28.1645
-5.27043e-21 -0.0182149 0.00681267 1139.95
0 0.0182149 0.00681268 1092.89
0 0.0194433 0.000583039 235.343
-5.42101e-20 -0.0194433 0.000583038 247.091
5.42101e-20 -0.0194241 0.00177777 84.8585
5.42101e-20 0.0194241 0.00177777 37.9676
-8.47033e-22 -0.0187034 0.00568152 112.666
0 0.0187034 0.00568153 54.8714
0 -0.0184175 0.00660392 432.618
-2.71051e-20 0.0184175 0.00660393 287.571
0 -0.0182856 0.0070727 1462.9
2.71051e-20 0.0182856 0.00707271 1460.52
6.77626e-21 -0.0182152 0.00734069 1442.82
6.77626e-21 0.0182152 0.0073407 1440.55
0 0.0194206 0.00301783 14.1361
0 -0.0194206 0.00301783 48.2398
6.77626e-21 -0.0182686 0.00730221 1448.57
6.77626e-21 0.0182686 0.00730222 1446.32
-1.35525e-20 -0.0182601 0.00738542 1450.83
0 0.0182601 0.00738543 1448.62
0 -0.0186945 0.00631878 237.873
5.64689e-22 0.0186945 0.00631878 139.522
-6.77626e-21 -0.0183052 0.00743049 1441.81
0 0.0183052 0.0074305 1439.64
-5.42101e-20 -0.0190301 0.00535182 61.6567
5.42101e-20 0.0190301 0.00535182 26.4724
-6.77626e-21 -0.0183432 0.00737621 1447.76
0 0.0183432 0.00737622 1445.58
0 -0.0193729 0.00433863 42.0356
-5.42101e-20 0.019373 0.00433863 12.4054
0 -0.0186551 0.00698434 844.161
1.807e-21 0.0186551 0.00698435 770.4
2.71051e-20 -0.019014 0.00599212 103.813
0 0.019014 0.00599212 47.0153
2.71051e-20 -0.0185715 0.00735757 1459.82
0 0.0185715 0.00735757 1457.78
0 0.0193594 0.0050052 19.3235
3.76459e-22 -0.0193594 0.0050052 51.2458
3.38813e-21 0.0200241 2.32174e-05 236.078
0 -0.0200241 2.32014e-05 248.225
3.38813e-21 0.0200244 -7.11699e-26 236.078
0 -0.0200244 -6.24703e-26 248.225
-6.77626e-21 -0.0185211 0.00764585 1440.97
-6.77626e-21 0.0185211 0.00764585 1438.78
3.38813e-21 -0.0200482 7.13727e-26 248.265
0 0.0200482 7.23318e-26 236.1
0 -0.0185698 0.00760131 1446.95
-6.77626e-21 0.0185698 0.00760131 1444.75
-3.38813e-21 -0.020072 2.30556e-05 248.301
3.38813e-21 0.020072 2.30714e-05 236.119
0 -0.0200723 6.80958e-26 248.302
-3.38813e-21 0.0200723 6.90154e-26 236.119
-5.64689e-22 -0.0200388 0.00116454 168.225
-5.64689e-22 0.0200388 0.00116454 138.09
-1.35525e-20 -0.0185663 0.00769085 1450.21
-1.35525e-20 0.0185663 0.00769085 1447.97
0 -0.0189943 0.00663938 198.105
-2.71051e-20 0.0189943 0.00663938 104.204
-8.47033e-22 -0.0193404 0.00565864 68.9557
0 0.0193404 0.00565864 29.2665
-2.03288e-20 -0.0186116 0.00773605 1441.58
6.77626e-21 0.0186116 0.00773605 1439.27
-2.82344e-22 -0.0200317 0.00238519 67.676
5.64689e-22 0.0200317 0.00238519 26.0279
6.77626e-21 -0.0186561 0.00768715 1447.52
0 0.0186561 0.00768715 1445.22
2.25875e-21 -0.0188308 0.00742564 1137.79
-7.52918e-22 0.0188308 0.00742564 1089.86
-1.12938e-21 -0.019324 0.00630263 117.118
-2.82344e-21 0.019324 0.00630263 55.7731
1.41172e-22 -0.0200231 0.00366593 44.0837
-1.41172e-22 0.0200231 0.00366593 12.2394
2.71051e-20 -0.0190372 0.00721862 433.652
0 0.0190372 0.00721863 285.889
2.71051e-20 -0.0196735 0.00531471 46.7994
0 0.0196735 0.00531471 16.638
0 -0.0188998 0.00768533 1462.33
0 0.0188998 0.00768533 1459.88
-1.35525e-20 -0.0188271 0.007951 1444.43
0 0.0188271 0.007951 1442.11
-1.35525e-20 -0.0188821 0.00791241 1450.52
0 0.0188821 0.00791241 1448.21
0 -0.018873 0.00799685 1453.7
-1.35525e-20 0.018873 0.00799685 1451.45
-5.64689e-22 -0.0193199 0.00693381 240.931
-1.12938e-21 0.0193199 0.00693381 139.255
0 0.0196436 0.00596991 27.0977
0 -0.0196436 0.00596991 64.0191
-6.77626e-21 -0.018919 0.0080427 1445.45
0 0.018919 0.0080427 1443.24
0 -0.0189579 0.00798817 1451.41
0 0.0189579 0.00798817 1449.19
1.41172e-22 0.0200745 0.00477429 12.8383
7.05861e-23 -0.0200765 0.00477213 42.1322
0 -0.0206493 0.000581176 249.441
5.42101e-20 0.0206493 0.000581176 236.855
0 -0.0192723 0.00760065 848.609
-3.16226e-21 0.0192723 0.00760066 773.146
-5.42101e-20 0.0206483 0.00177116 38.2598
5.42101e-20 -0.0206483 0.00177116 88.292
2.71051e-20 -0.019653 0.00659834 103.884
2.71051e-20 0.019653 0.00659835 45.544
0 -0.0199776 0.00563304 51.7185
0 0.0199776 0.00563304 19.4211
0 -0.0191862 0.00797147 1466.29
-2.71051e-20 0.0191862 0.00797148 1464.23
6.77626e-21 -0.0191351 0.00825832 1451.64
0 0.0191351 0.00825832 1449.41
-5.42101e-20 0.0206479 0.00302107 13.4083
-5.42101e-20 -0.0206479 0.00302107 48.7952
-6.77626e-21 -0.0191841 0.00821459 1457.85
-6.77626e-21 0.0191841 0.00821459 1455.61
0 -0.0191802 0.00830329 1462.51
1.35525e-20 0.0191802 0.00830329 1460.23
2.71051e-20 -0.019615 0.00725971 204.357
0 0.019615 0.00725972 105.089
-6.77626e-21 -0.0192251 0.00834806 1455.43
6.77626e-21 0.0192251 0.00834807 1453.07
6.77626e-21 -0.0192694 0.00830053 1461.12