# omega  POINT_DATA 33912
# x  y  z  omega
0.0386366 6.77626e-21 9.33814e-08 1266.27
-0.0386366 -6.77626e-21 9.33814e-08 1265.99
-0.0386366 0 0.000236766 1211.27
0.0386366 -3.38813e-21 0.000236754 1211.58
-0.0386365 -1.69407e-21 0.000428699 1303.64
0.0386365 1.69407e-21 0.000428676 1303.92
-0.0386365 -3.38813e-21 0.000666556 1712.08
0.0386365 -6.77626e-21 0.000666521 1712.25
-0.0386364 -1.69407e-21 0.000917399 1993.06
0.0386364 -1.69407e-21 0.000917369 1993.19
-0.0386364 -1.69407e-21 0.00111073 2140.87
0.0386364 0 0.00111069 2140.95
-0.0386364 0 0.00136165 2430.52
0.0386364 6.77626e-21 0.00136161 2430.53
-0.0386364 0 0.00162089 2524.37
0.0386364 5.0822e-21 0.00162088 2524.31
-0.0386365 0 0.00182904 2375.7
0.0386365 1.69407e-21 0.00182903 2375.58
0.0386365 6.77626e-21 0.002087 1735.63
-0.0386365 -6.77626e-21 0.002087 1735.9
-0.0387133 -6.77626e-21 0.000334786 1247.54
0.0387133 0 0.000334769 1247.88
0.0387145 -6.77626e-21 0.00100945 2203.61
-0.0387145 3.38813e-21 0.00100948 2203.49
0.0387157 3.38813e-21 0.00170741 2735.41
-0.0387157 3.38813e-21 0.00170743 2735.5
0.0388933 1.35525e-20 9.83892e-05 1440.88
-0.0388934 -2.03288e-20 9.8385e-05 1440.56
0.0388944 -6.77626e-21 8.11405e-08 1445.01
-0.0388944 -6.77626e-21 8.11392e-08 1444.69
0.038896 1.35525e-20 0.000773192 2188.36
-0.038896 6.77626e-21 0.000773227 2188.16
0.0389003 -1.35525e-20 0.000556945 1885.65
-0.0389003 0 0.000556978 1885.42
0.0388961 -1.35525e-20 0.00122361 2868.39
-0.0388961 -6.77626e-21 0.00122365 2868.32
-0.0388903 -1.35525e-20 0.00145595 3040.36
0.0388903 0 0.00145592 3040.35
-0.0388845 0 0.00190647 2365.57
0.0388845 6.77626e-21 0.00190644 2365.35
-0.0389211 -1.35525e-20 0.00212604 1694.16
0.0389211 1.35525e-20 0.00212604 1693.82
-0.03898 0 7.37425e-08 1443.81
0.03898 0 7.3742e-08 1444.13
-0.0389877 0 0.000656511 1922.17
0.0389877 -6.77626e-21 0.000656454 1920.31
-0.0389501 0 0.00204928 1913.51
0.0389501 1.35525e-20 0.00204927 1913.18
0.0389855 6.77626e-21 0.00132191 2719.68
-0.0389855 0 0.00132198 2722.94
0.0389857 -6.77626e-21 0.00196118 1993.74
-0.0389857 6.77626e-21 0.00196122 2000.36
-0.0390408 -6.77626e-21 0.00214247 1939.28
0.0390408 6.77626e-21 0.00214247 1938.98
-0.0390834 6.77626e-21 0.00203104 1897.07
0.0390834 -6.77626e-21 0.00203102 1896.68
-0.0391899 5.0822e-21 7.98183e-08 1762.72
0.0391899 -8.47033e-21 7.98187e-08 1763.09
-0.0392186 1.05879e-22 0.000973966 3494.04
0.039217 0 0.000971787 3494.34
0.0392186 0 0.000993521 3530.04
-0.0392186 0 0.000993748 3530.07
-0.0392339 1.12938e-22 0.000322247 1806.75
0.0392339 -3.38813e-22 0.000322224 1807.1
0.0392124 9.41148e-23 0.00160285 4227.83
-0.0392124 2.82344e-22 0.0016029 4229.84
0.0392589 1.01644e-20 8.17933e-08 1797.57
-0.0392589 -2.37169e-20 8.17941e-08 1797.22
-0.0392358 3.38813e-21 0.00211246 1614.41
0.0392358 -1.01644e-20 0.00211246 1613.92
-0.0392408 1.35525e-20 0.0021699 1590.02
0.0392408 3.38813e-21 0.00216991 1589.55
-0.0393079 0 0.00200293 1799.18
0.0393079 0 0.00200291 1798.75
0.0393994 1.35525e-20 0.00128732 2195.22
-0.0393994 -1.35525e-20 0.00128736 2205.63
0.0394321 1.35525e-20 0.000662255 1660
-0.0394321 -1.35525e-20 0.000662293 1665.5
-0.0393782 2.71051e-20 0.00218876 1811.81
0.0393783 0 0.00218876 1811.51
0.0394171 1.35525e-20 0.00182881 1888.51
-0.0394171 0 0.00182885 1903.09
-0.0394765 0 8.81966e-08 1360.57
0.0394765 -1.35525e-20 8.81971e-08 1360.71
0.039636 -1.35525e-20 8.20127e-08 1311.88
-0.039636 6.77626e-21 8.20112e-08 1311.84
-0.0396081 -4.51751e-21 0.00155275 2068.31
0.0396081 -2.25875e-21 0.00155275 2062.08
-0.0395887 -6.77626e-21 0.00221763 1203.67
0.0395887 -2.03288e-20 0.00221763 1203.48
-0.0396657 -2.25875e-21 0.000926812 1767.4
0.0396657 -4.51751e-21 0.000926845 1762.86
0.0396606 -6.77626e-21 0.00201754 1391.39
-0.0396606 0 0.00201754 1391.54
-0.0396602 -6.77626e-21 0.00213151 1155.96
0.0396602 0 0.00213151 1155.81
-0.0397186 0 0.000328044 1270.46
0.0397186 3.38813e-21 0.000328061 1269.04
-0.0397505 -6.77626e-21 0.00223983 1217.12
0.0397506 6.77626e-21 0.00223983 1217.05
-0.0398326 6.77626e-21 7.79286e-08 1219.16
0.0398326 0 7.79286e-08 1218.98
-0.0399409 5.64689e-21 0.0012628 1490.44
0.0399409 -4.51751e-21 0.00126293 1481.43
-0.0399609 0 7.37241e-08 1078.41
0.0399609 0 7.37245e-08 1078.1
0.0399375 -2.25875e-21 0.0016998 1493.2
-0.0399375 0 0.00169972 1499.6
-0.0399278 0 0.00226415 1386.69
0.0399278 0 0.00226415 1386.7
-0.0400201 6.77626e-21 0.000637232 1138.18
0.0400201 0 0.000637359 1133.19
-0.0400601 0 0.000117456 1054.37
0.0400601 1.35525e-20 0.000117489 1054.01
0.0400609 0 7.18816e-08 1054.44
-0.0400609 0 7.1881e-08 1054.8
0.0400257 -1.35525e-20 0.00227757 1211.72
-0.0400257 0 0.00227757 1211.57
-0.0402355 0 0.000320268 991.618
0.0402356 -1.35525e-20 0.000320378 991.069
-0.0402399 0 0.000958442 1048.86
0.0402399 0 0.000958653 1040.6
0.0402362 0 0.0015669 1170.09
-0.0402362 1.35525e-20 0.00156673 1180.27
0.0402212 -3.38813e-21 0.00200607 1034.58
-0.0402212 0 0.002006 1034.3
-0.0404904 0 5.21452e-08 930.959
0.0404904 0 5.21452e-08 930.284
-0.0404915 -3.38813e-21 3.22757e-05 930.445
0.0404915 0 3.22702e-05 929.77
-0.0405175 3.38813e-21 5.13595e-08 916.559
0.0405175 0 5.13599e-08 915.869
-0.0404556 0 0.00233656 1147.67
0.0404556 1.52466e-20 0.00233656 1148
-0.0404936 -7.52918e-22 0.00172666 962.078
0.0404937 -7.52918e-22 0.00172685 958.633
0.0405368 0 5.18925e-08 912.805
-0.0405368 0 5.18925e-08 913.49
0.0405375 0 2.05856e-05 912.787
-0.0405375 -3.38813e-21 2.05864e-05 913.472
-0.0405369 2.03288e-20 0.000628538 863.284
0.040537 -1.14349e-20 0.000628787 860.906
-0.0405371 -4.23516e-22 0.00063565 863.503
0.0405372 -1.18585e-20 0.000635983 861.12
-0.0404766 -5.2516e-20 0.00233943 1163.1
0.0404766 0 0.00233943 1163.41
-0.040541 1.69407e-21 0.000702547 863.549
0.040541 -1.27055e-21 0.000703745 860.9
-0.0405495 1.14349e-20 0.000632191 860.525
0.0405497 -8.04681e-21 0.000632486 858.146
0.0404906 0 0.00234135 1145.76
-0.0404906 -1.69407e-21 0.00234135 1145.43
-0.0405397 -1.12938e-22 0.00125155 862.827
0.0405397 2.25875e-22 0.00125189 857.939
-0.0405452 0 0.00227937 1101.87
0.0405453 0 0.00227938 1102.19
0.0406158 -3.38813e-21 5.8098e-08 917.651
-0.0406159 0 5.81041e-08 918.396
0.0406084 -5.0822e-21 0.00235751 1137.38
-0.0406084 5.0822e-21 0.00235752 1137.04
-0.0408377 2.71051e-20 0.000322191 851.097
0.0408378 -2.71051e-20 0.000322355 850.245
0.0408178 -1.12938e-21 0.00198965 832.714
-0.0408178 -4.51751e-21 0.0019895 832.825
-0.0410085 -8.13152e-21 0.0010286 572.763
0.0410086 0 0.00102904 577.825
-0.0410119 0 0.00150845 588.938
0.041012 4.51751e-21 0.0015088 592.921
0.0409774 0 0.00240814 1105.84
-0.0409774 0 0.00240814 1105.49
0.0410604 1.35525e-20 8.41089e-08 900.149
-0.0410604 0 8.41151e-08 901.196
0.0410629 0 0.000105931 897.82
-0.0410629 1.35525e-20 0.000105838 898.867
0.0409965 6.77626e-21 0.00237824 1091.64
-0.0409965 6.77626e-21 0.00237826 1091.29
-0.0410275 0 0.00241502 1109.64
0.0410275 0 0.00241502 1109.98
-0.0410347 -2.03288e-20 0.00233955 1012.63
0.0410347 0 0.00233952 1011.8
-0.0410708 6.77626e-21 0.0023814 1078.64
0.0410708 0 0.00238138 1078.96
-0.0411588 -1.35525e-20 8.62142e-08 931.744
0.0411588 -1.35525e-20 8.62085e-08 930.714
-0.0410901 -6.77626e-21 0.0024236 1088.27
0.0410902 0 0.00242361 1088.59
-0.0412374 -2.25875e-21 0.000638695 713.058
0.0412374 4.51751e-21 0.000639091 711.683
-0.0412319 0 0.00177406 871.368
0.041232 0 0.00177433 869.443
-0.0412814 1.35525e-20 7.69686e-08 917.48
0.0412815 0 7.69596e-08 916.349
-0.0412864 0 0.000114574 916.372
0.0412864 -1.35525e-20 0.000114681 915.237
-0.0412719 -2.71051e-20 0.00123079 659.394
0.041272 -2.71051e-20 0.00123128 661.686
-0.0414111 -2.25875e-21 0.00202219 800.95
0.0414112 0 0.00202236 798.053
-0.0414655 -2.71051e-21 0.00100479 449.704
0.0414656 5.42101e-21 0.00100527 439.811
0.0414387 6.77626e-21 0.00247143 1178.95
-0.0414387 0 0.00247142 1178.65
-0.0415231 1.35525e-20 0.000300335 888.263
0.0415231 -1.35525e-20 0.000300526 886.855
0.0414667 0 0.00241974 1179.73
-0.0414667 0 0.00241973 1179.41
-0.0415317 4.51751e-21 0.00151516 437.022
0.0415317 -6.77626e-21 0.0015155 426.467
-0.0415257 0 0.00236274 1079.88
0.0415258 6.77626e-21 0.00236276 1078.25
-0.0415358 2.03288e-20 0.00248474 1283.13
0.0415358 6.77626e-21 0.00248475 1283.48
-0.0417744 -6.77626e-21 8.98208e-05 862.009
0.0417745 0 8.98629e-05 860.754
-0.0417779 -6.77626e-21 6.56267e-09 862.05
0.041778 0 6.55901e-09 860.797
-0.0418022 0 0.000615402 582.208
0.0418022 -2.25875e-21 0.000615762 574.989
-0.0417906 -2.71051e-20 0.00186249 741.661
0.0417906 2.71051e-20 0.00186269 732.877
-0.0417567 6.77626e-21 0.00251504 1473.86
0.0417567 2.03288e-20 0.00251505 1474.27
-0.0417893 7.52918e-22 0.0022836 1396.94
0.0417893 -1.50584e-21 0.00228367 1397.18
-0.0418476 6.77626e-21 0.00117393 334.329
0.0418476 -2.25875e-21 0.00117434 323.149
-0.0418763 1.35525e-20 -1.15002e-09 862.466
0.0418764 0 -1.15404e-09 861.26
-0.0419536 1.35525e-20 8.50389e-05 853.34
0.0419536 0 8.50569e-05 852.163
-0.0419539 0 -1.03272e-09 853.79
0.041954 -1.35525e-20 -1.0365e-09 852.612
0.0419533 0 0.00254202 1854.73
-0.0419533 1.35525e-20 0.00254201 1854.35
-0.0419887 -1.35525e-20 0.0019478 623.398
0.0419887 0 0.00194795 630.143
-0.0420605 -4.51751e-21 0.00226453 1528.16
0.0420605 0 0.00226459 1531.79
-0.042061 0 0.00250113 2123.57
0.042061 1.35525e-20 0.00250114 2124.03
-0.0421378 0 0.000921112 263.855
0.0421378 4.06576e-20 0.000921356 240.773
-0.0420718 6.77626e-21 0.00255827 2216.98
0.0420718 6.77626e-21 0.00255827 2217.47
0.0421546 0 0.000313421 814.659
-0.0421546 -2.71051e-20 0.000313301 815.649
-0.0421336 -4.51751e-21 0.0016375 418.59
0.0421336 -1.35525e-20 0.00163769 396.43
-0.0421793 -6.77626e-21 0.002247 1597.08
0.0421793 6.77626e-21 0.00224705 1602.36
0.0423852 6.77626e-21 6.66393e-05 823.705
-0.0423852 0 6.66078e-05 824.47
-0.0423913 0 1.33679e-09 824.432
0.0423913 0 1.33598e-09 823.672
-0.0423173 0 0.00259195 2311.64
0.0423174 -6.77626e-21 0.00259196 2311.92
-0.0423622 1.35525e-20 0.00253137 2221.92
0.0423623 0 0.00253138 2222.12
0.0424524 0 1.43798e-09 826.836
-0.0424524 -6.77626e-21 1.43857e-09 827.529
-0.0424509 1.12938e-21 0.000611632 535.182
0.0424509 1.12938e-21 0.000611739 526.427
-0.042444 2.25875e-21 0.00122872 233.716
0.0424441 4.51751e-21 0.00122884 214.074
-0.0425171 6.77626e-21 1.31915e-09 830.26
0.0425171 0 1.31866e-09 829.616
-0.0425183 0 6.48504e-05 830.301
0.0425183 0 6.48584e-05 829.657
-0.0424587 -3.38813e-21 0.00227178 1463.14
0.0424587 -3.38813e-21 0.00227182 1459.47
-0.0424457 0 0.00260956 1950.11
0.0424458 -1.35525e-20 0.00260957 1950.14
-0.0424966 -4.51751e-21 0.00189079 551.679
0.0424967 -9.03502e-21 0.00189085 540.976
-0.0425605 -1.35525e-20 0.00254401 2034.07
0.0425605 -1.35525e-20 0.00254402 2034
-0.0426002 -6.77626e-21 0.00263076 2059.98
0.0426003 1.35525e-20 0.00263076 2059.84
0.0427577 2.71051e-20 0.000308577 840.509
-0.0427577 0 0.000308578 840.923
-0.042762 0 0.00092253 207.572
0.042762 2.71051e-20 0.000922525 197.057
-0.042748 1.35525e-20 0.00216861 892.512
0.0427481 0 0.00216862 869.733
-0.0427408 -4.06576e-20 0.00240953 1822.73
0.0427408 0 0.00240953 1822.41
-0.0428416 5.42101e-21 0.00164355 302.45
0.0428416 1.35525e-20 0.00164354 291.055
-0.0428297 0 0.00266224 1961.1
0.0428297 2.71051e-20 0.00266224 1960.74
0.0429615 0 5.93011e-11 839.895
-0.0429615 0 5.79639e-11 840.134
-0.0428847 0 0.00256824 1883.6
0.0428847 -1.35525e-20 0.00256825 1883.24
0.0429621 -1.35525e-20 9.52028e-05 839.929
-0.0429622 1.35525e-20 9.51811e-05 840.17
-0.0429936 5.80823e-21 0.00192518 510.617
0.0429937 -3.87215e-21 0.00192513 487.941
-0.0430551 0 -1.06622e-10 841.252
0.0430551 0 -1.05152e-10 841.083
0.0430752 4.51751e-21 0.000610558 516.965
-0.0430752 -6.77626e-21 0.000610657 520.642
0.0430107 1.35525e-20 0.00268706 1607.14
-0.0430107 -1.35525e-20 0.00268706 1607.55
-0.0430775 2.25875e-21 0.00123361 182.054
0.0430775 0 0.00123349 172.509
-0.0430372 -2.25875e-21 0.00230972 1244.81
0.0430373 2.25875e-21 0.00230971 1233.23
-0.0431637 0 1.5382e-11 845.006
0.0431637 0 1.67288e-11 844.9
-0.0431652 1.35525e-20 0.000103815 844.943
0.0431652 0 0.000103811 844.837
0.0432457 -1.35525e-20 0.00271928 1810.03
-0.0432458 6.77626e-21 0.00271929 1810.5
0.0433794 -2.71051e-20 0.000307824 845.34
-0.0433795 0 0.000307922 845.281
-0.0433141 4.51751e-21 0.00255689 1706.58
0.0433141 9.03502e-21 0.00255689 1706.11
-0.0433486 -2.25875e-20 0.00207031 537.957
0.0433486 -9.03502e-21 0.00207025 516.252
0.0433928 -2.71051e-20 0.000922169 174.418
-0.0433928 -2.71051e-20 0.000922361 178.906
-0.043354 -2.71051e-20 0.00273413 1787.9
0.043354 2.03288e-20 0.00273414 1787.39
-0.0434187 4.51751e-21 0.0016019 247.112
0.0434187 6.77626e-21 0.00160173 233.857
0.0435473 0 9.019e-10 856.657
-0.0435473 -1.35525e-20 9.01633e-10 856.518
0.0435506 0 0.000132384 856.62
-0.0435506 0 0.00013241 856.48
-0.0436835 2.71051e-20 1.03606e-09 859.603
0.0436835 -2.71051e-20 1.03617e-09 859.796
0.0436251 2.11758e-22 0.00235498 1100.36
-0.0436252 2.11758e-22 0.00235502 1110.38
0.0436012 2.71051e-20 0.00276801 1393.44
-0.0436012 0 0.00276801 1393.99
0.0436982 -4.51751e-21 0.000607493 515.654
-0.0436983 0 0.000607717 520.287
0.0436672 0 0.00190306 424.925
-0.0436672 -2.71051e-20 0.0019032 438.58
0.0436479 0 0.00235467 1092.62
-0.0436535 0 0.00235493 1102.58
0.0437002 -9.03502e-21 0.00112951 160.33
-0.0437002 4.51751e-21 0.0011298 170.702
-0.0436555 -2.11758e-22 0.00236095 1113.91
0.0436555 2.11758e-22 0.00236091 1104.17
0.0438316 -2.71051e-20 0.000140387 861.927
-0.0438317 0 0.000140437 861.734
-0.0438324 1.35525e-20 1.26291e-09 861.937
0.0438324 1.35525e-20 1.263e-09 862.129
0.044004 0 0.000302869 872.237
-0.044004 -1.35525e-20 0.000303007 871.965
0.0439928 0 0.00156096 180.879
-0.0439928 2.25875e-21 0.00156117 197.507
-0.0439354 -6.77626e-21 0.00281381 1679.05
0.0439354 -2.5411e-20 0.00281382 1678.57
-0.0439809 -4.51751e-21 0.00211391 442.644
0.0439809 -1.807e-20 0.00211382 424.068
-0.0439531 -1.69407e-21 0.00279275 1695.59
0.0439531 3.38813e-21 0.0027928 1695.08
-0.043961 -1.69407e-21 0.00281732 1684.95
0.043961 0 0.00281732 1684.46
-0.0440043 2.25875e-21 0.0025931 1598.23
0.0440043 0 0.00259309 1597.06
0.0440988 0 0.00101219 152.289
-0.0440988 -8.13152e-21 0.0010125 167.277
0.0441598 2.71051e-20 2.36366e-09 868.112
-0.0441598 0 2.3638e-09 867.918
0.0441637 0 0.000147457 867.984
-0.0441637 0 0.000147511 867.789
-0.0443161 0 2.58835e-09 870.924
0.0443161 -1.35525e-20 2.58819e-09 871.116
0.0443172 -9.03502e-21 0.000604412 515.661
-0.0443172 4.51751e-21 0.000604657 522.766
0.0442814 -5.42101e-20 0.00191676 378.587
-0.0442814 -2.71051e-20 0.00191692 394.464
0.0443137 2.71051e-20 0.00123266 139.804
-0.0443137 0 0.00123298 157.959
-0.0442645 2.71051e-20 0.00285891 1522.26
0.0442646 2.71051e-20 0.00285892 1521.63
0.0443414 -4.51751e-21 0.00231325 813.754
-0.0443414 -4.51751e-21 0.00231331 829.784
-0.0444716 0 0.000150042 868.472
0.0444716 -2.71051e-20 0.000150001 868.595
-0.0444749 -1.35525e-20 2.3549e-09 868.715
0.0444749 1.35525e-20 2.35475e-09 868.831
0.0445335 1.89735e-20 0.00101154 148.872
-0.0445335 1.0842e-20 0.00101185 163.854
-0.0445227 9.03502e-21 0.00155722 184.292
0.0445227 -9.03502e-21 0.00155701 164.783
-0.0445478 -2.71051e-20 0.00210098 345.99
0.0445478 2.71051e-21 0.00210088 319.43
-0.0445257 -1.35525e-20 0.00289471 1438.09
0.0445258 -3.38813e-20 0.00289472 1437.51
0.0446295 0 0.000304347 864.175
-0.0446295 -1.35525e-20 0.000304461 864.123
-0.044594 0 0.00278583 1444.62
0.044594 0 0.00278588 1444.02
-0.0446261 0 0.00264116 1448.44
0.0446261 -2.25875e-21 0.00264114 1446.79
0.0446645 0 0.00291372 1437.84
-0.0446646 -6.77626e-21 0.00291373 1438.42
0.0447808 1.35525e-20 1.63152e-09 868.483
-0.0447808 1.35525e-20 1.63155e-09 868.52
0.0447854 0 0.00015027 868.237
-0.0447855 1.35525e-20 0.000150312 868.273
-0.0449405 0 1.3988e-09 872.502
0.0449405 1.35525e-20 1.39877e-09 872.422
0.044942 2.25875e-21 0.000602417 516.899
-0.044942 -4.51751e-21 0.00060259 522.6
0.0449381 -6.77626e-21 0.00123202 124.937
-0.0449382 -9.03502e-21 0.00123223 139.088
0.0449431 -4.51751e-21 0.00185203 178.598
-0.0449431 0 0.00185217 198.849
0.0449492 -4.51751e-21 0.00232791 763.562
-0.0449492 0 0.00232797 780.707
0.0449214 -1.35525e-20 0.00294893 1553.45
-0.0449214 0 0.00294893 1554.01
-0.0451017 -1.35525e-20 1.29463e-09 871.531
0.0451017 0 1.2946e-09 871.369
-0.0450995 0 0.00297331 1189.34
0.0450995 -2.03288e-20 0.00297331 1188.72
-0.045251 9.03502e-21 0.000202824 875.348
0.045251 9.03502e-21 0.000202783 875.112
0.0452595 0 0.000915145 148.906
-0.0452595 0 0.000915292 157.363
0.045262 0 0.00154673 91.9938
-0.045262 0 0.00154687 102.403
0.0452616 0 0.00214816 226.299
-0.0452617 0 0.00214823 252.391
0.0452367 2.25875e-21 0.00269257 1079.79
-0.0452367 0 0.00269258 1081.5
0.0453935 0 1.00959e-09 879.684
-0.0453935 0 1.00963e-09 879.999
0.0453384 0 0.00300597 1086.15
-0.0453384 0 0.00300597 1086.71
-0.045559 -1.35525e-20 9.03952e-10 890.61
0.045559 -2.71051e-20 9.03906e-10 890.248
0.0455698 2.25875e-21 0.000598369 525.35
-0.0455698 0 0.000598452 530.062
0.045574 -1.35525e-20 0.00122571 119.173
-0.045574 9.03502e-21 0.00122582 130.079
-0.0454949 4.06576e-20 0.00302739 1215.6
0.0454949 0 0.00302739 1215.12
0.045575 0 0.00186033 152.655
-0.045575 -4.51751e-21 0.0018604 172.072
0.0455636 9.03502e-21 0.00235679 618.6
-0.0455636 -9.03502e-21 0.00235682 634.608
-0.0456185 1.35525e-20 0.00304441 1014.57
0.0456185 6.77626e-21 0.00304441 1014.11
-0.0457296 0 8.66649e-10 892.052
0.0457296 0 8.66605e-10 891.618
-0.0458748 0 0.000203876 896.96
0.0458748 9.03502e-21 0.000203862 896.476
0.0458876 -2.71051e-20 0.000909899 148.75
-0.0458876 0 0.000909967 158.784
-0.0458326 -2.71051e-21 0.00274325 917.246
0.0458326 3.16226e-21 0.00274325 915.797
0.0458898 0 0.00154847 84.2719
-0.0458898 0 0.00154853 98.958
0.0458888 0 0.00217764 199.223
-0.0458889 2.71051e-20 0.00217767 224.002
-0.0458626 -6.77626e-21 0.00307837 1083.02
0.0458626 -1.35525e-20 0.00307837 1082.64
0.0460115 -1.35525e-20 7.57524e-10 902.878
-0.0460115 2.71051e-20 7.57548e-10 903.414
-0.0459673 -6.77626e-21 0.0030928 1277.69
0.0459674 1.35525e-20 0.0030928 1277.32
-0.0461847 0 7.198e-10 921.034
0.0461847 0 7.19779e-10 920.48
-0.0461957 6.77626e-21 0.000591487 545.919
0.0461957 2.25875e-21 0.000591455 540.694
0.0462006 -6.77626e-21 0.00122009 116.003
-0.0462006 2.25875e-21 0.00122013 128.768
0.0462019 0 0.00186862 135.188
-0.0462019 -6.77626e-21 0.00186864 157.091
-0.0461655 -6.77626e-21 0.00312126 1513.08
0.0461656 -2.03288e-20 0.00312127 1512.76
-0.0461939 -1.35525e-20 0.00295331 1524.12
0.0461939 0 0.00295328 1523.81
-0.0462707 2.25875e-21 0.00256437 900.719
0.0462707 -4.51751e-21 0.00256437 893.65
-0.0463595 -2.71051e-20 6.73842e-10 925.869
0.0463595 2.71051e-20 6.73822e-10 925.273
-0.0463949 3.38813e-21 0.00315229 2015.58
0.046395 0 0.0031523 2015.27
-0.046506 0 0.000199294 933.054
0.046506 1.807e-20 0.000199294 932.433
0.0465144 0 0.000898641 150.857
-0.0465144 0 0.000898665 161
0.0465158 2.71051e-20 0.00154147 77.1744
-0.0465158 0 0.00154149 93.2467
0.0464366 3.38813e-21 0.00315806 2045.72
-0.0464366 3.38813e-21 0.00315806 2046.06
0.0464514 -6.77626e-21 0.0031144 2037.4
-0.0464514 0 0.00311437 2037.71
0.0465218 2.71051e-20 0.00218627 172.995
-0.0465218 2.71051e-20 0.00218628 203.842
0.0466484 1.35525e-20 5.2382e-10 941.492
-0.0466484 2.71051e-20 5.23805e-10 942.138
-0.0466132 9.03502e-21 0.00290744 1803.78
0.0466132 2.25875e-21 0.00290743 1805.48
-0.0468205 -2.71051e-20 4.77071e-10 973.778
0.0468205 0 4.77088e-10 973.143
-0.0468261 -9.03502e-21 0.00058046 570.544
0.0468261 -2.25875e-21 0.000580448 565.478
0.0467233 0 0.00319817 2103.71
-0.0467234 0 0.00319819 2104.06
0.0468292 -6.77626e-21 0.00120515 114.759
-0.0468292 -6.77626e-21 0.00120516 128.223
0.0468326 -6.77626e-21 0.00185915 115.861
-0.0468326 -9.03502e-21 0.00185916 137.73
-0.0468472 1.0842e-20 0.00253599 748.172
0.0468472 -9.03502e-22 0.00253598 732.161
0.0468396 -1.69407e-21 0.00321454 2157.76
-0.0468396 0 0.00321454 2158.05
0.0468444 0 0.00320755 2148.82
-0.0468444 0 0.00320756 2149.12
0.0468557 0 0.00318854 2076.54
-0.0468557 1.69407e-21 0.00318856 2077.5
0.0468539 -1.69407e-21 0.00321654 2116.15
-0.0468539 0 0.00321653 2116.49
-0.0468678 0 0.00320873 2125.41
0.0468679 0 0.00320873 2125.09
-0.0468728 3.38813e-21 0.00321918 2126.57
0.0468729 1.69407e-21 0.00321918 2126.24
-0.0469903 -1.35525e-20 4.262e-10 976.158
0.0469903 -1.35525e-20 4.26209e-10 975.505
0.0470012 0 0.00293207 1561
-0.0470012 0 0.00293208 1565.18
0.0471425 -9.03502e-21 0.000190384 983.885
-0.0471425 0 0.000190377 984.548
0.0471463 2.71051e-20 0.000881282 156.111
-0.0471463 0 0.000881291 165.387
-0.0471461 5.42101e-20 0.00152023 89.8826
0.0471461 -2.71051e-20 0.00152022 71.6156
-0.047153 -2.71051e-20 0.00216928 158.408
0.047153 0 0.00216927 137.123
-0.0471472 -6.77626e-21 0.00293418 1481.46
0.0471473 6.77626e-21 0.00293418 1467.39
0.0472953 0 2.46098e-10 994.056
-0.0472954 0 2.46072e-10 994.729
-0.0474624 0 1.94602e-10 1039.34
0.0474624 2.71051e-20 1.9462e-10 1038.69
-0.04735 0 0.00328627 1841.02
0.0473501 6.77626e-21 0.00328627 1840.52
-0.0474636 -6.77626e-21 0.000567332 600.854
0.0474636 -4.51751e-21 0.000567326 595.642
-0.0474647 -2.25875e-21 0.00118521 128.993
0.0474647 0 0.0011852 115.056
-0.0473731 -6.77626e-21 0.0032485 1809.73
0.0473732 6.77626e-21 0.0032485 1809.22
0.0474651 6.77626e-21 0.00184525 98.4215
-0.0474651 2.25875e-21 0.00184525 118.638
-0.0474588 2.25875e-21 0.0025184 530.314
0.0474588 4.51751e-21 0.00251839 501.353
-0.047445 9.03502e-21 0.00290027 1241.51
0.047445 -1.35525e-20 0.00290027 1225.4
-0.0474338 -6.77626e-21 0.00316339 1573.78
0.0474339 0 0.00316339 1565.78
-0.0474249 -6.77626e-21 0.00329671 1691.53
0.047425 0 0.00329671 1690.96
-0.0474931 0 0.00325556 1747.26
0.0474932 -6.77626e-21 0.00325557 1746.69
-0.0476306 -1.35525e-20 1.68213e-10 1025.68
0.0476307 0 1.68224e-10 1025.02
-0.0475218 1.35525e-20 0.00331024 1759.59
0.0475219 0 0.00331024 1758.99
-0.0477792 4.51751e-21 0.000187403 1031.78
0.0477792 9.03502e-21 0.000187413 1031.11
-0.0477829 0 0.000865681 172.057
0.0477829 0 0.000865674 161.193
-0.0477845 -2.71051e-20 0.00150006 84.9809
0.0477845 -2.71051e-20 0.00150006 67.58
0.0477786 0 0.00217088 113.232
-0.0477786 -2.71051e-20 0.00217088 136.731
-0.0477468 2.03288e-20 0.00297912 1232.24
0.0477468 0 0.00297912 1220.87
0.0479279 1.35525e-20 8.46695e-11 1039.26
-0.0479279 1.35525e-20 8.46536e-11 1039.94
-0.0478854 -6.77626e-21 0.00336132 1637.23
0.0478855 0 0.00336133 1636.55
-0.0479336 0 0.00329264 1588.24
0.0479336 -1.35525e-20 0.00329266 1587.59
-0.0481015 0 5.87263e-11 1094.13
0.0481015 -2.71051e-20 5.87356e-11 1093.48
-0.0481016 4.51751e-21 0.0005569 627.312
0.0481016 4.51751e-21 0.000556895 620.333
0.0481005 -6.77626e-21 0.00117221 115.34
-0.0481005 -4.51751e-21 0.00117222 131.561
0.0480954 6.77626e-21 0.00184355 87.2428
-0.0480954 6.77626e-21 0.00184355 109.062
0.0480213 1.35525e-20 0.00338025 1425.43
-0.0480213 -1.35525e-20 0.00338025 1426.07
-0.0480779 2.25875e-21 0.00254399 443.248
0.0480779 2.25875e-21 0.00254399 418.341
-0.0480529 6.77626e-21 0.00300489 1119.19
0.048053 7.90564e-21 0.0030049 1107.49
0.0481626 -1.35525e-20 0.00330784 1541.49
-0.0481626 -2.71051e-20 0.00330782 1542.11
-0.0482805 0 5.28162e-11 1057.33
0.0482805 2.71051e-20 5.28235e-11 1056.65
0.048225 0 0.00340842 1582.04
-0.048225 6.77626e-21 0.00340843 1582.69
-0.0484142 1.35525e-20 0.000191539 1058.62
0.0484142 4.51751e-21 0.000191549 1057.92
-0.048417 0 0.000858073 180.606
0.048417 -2.71051e-20 0.000858069 163.722
0.0484147 -2.71051e-20 0.00149607 64.7807
-0.0484147 2.71051e-20 0.00149607 84.8509
0.0484043 2.71051e-20 0.00218437 100.157
-0.0484043 -2.71051e-20 0.00218437 126.544
-0.0483708 -1.35525e-20 0.00290962 751.351
0.0483708 1.35525e-20 0.00290963 733.434
0.0485467 1.35525e-20 3.79329e-11 1063.34
-0.0485467 0 3.79259e-11 1064.05
-0.0484431 -6.77626e-21 0.00343873 1659.55
0.0484431 -2.71051e-20 0.00343873 1658.96
-0.0484639 2.71051e-21 0.00324791 1548.9
0.048464 -2.71051e-21 0.00324792 1548.32
0.0486839 2.25875e-21 0.000595694 572.84
-0.0486839 1.12938e-20 0.000595693 582.467
-0.048731 0 3.20742e-11 1124
0.048731 2.71051e-20 3.20793e-11 1123.31
0.04873 4.51751e-21 0.00116766 115.113
-0.04873 -6.77626e-21 0.00116766 133.589
0.0487228 4.51751e-21 0.00184437 79.5757
-0.0487228 -6.77626e-21 0.00184437 103.666
-0.0486954 2.25875e-21 0.0025583 398.833
0.0486954 -9.03502e-21 0.0025583 374.688
0.0486808 0 0.00347157 1559.82
-0.0486808 -2.71051e-20 0.00347157 1560.39
-0.0487347 1.807e-21 0.00303833 1147.7
0.0487348 -9.03502e-22 0.00303833 1136.56
-0.0489189 1.35525e-20 2.84986e-11 1070.32
0.0489189 1.35525e-20 2.85025e-11 1069.57
-0.0490437 6.77626e-21 0.000282065 975.835
0.0490437 -2.25875e-21 0.000282066 973.438
-0.0490452 2.71051e-20 0.000856189 181.699
0.0490452 -2.71051e-20 0.000856191 164.372
0.0490418 0 0.0014945 62.6939
-0.0490419 0 0.00149449 82.9037
-0.0490331 -2.71051e-20 0.00217903 118.6
0.0490331 0 0.00217904 88.8925
0.0489629 -6.77626e-21 0.00351064 1447.43
-0.048963 3.72694e-20 0.00351064 1448.07
-0.0490668 -2.71051e-20 0.00277894 326.388
0.0490668 -2.71051e-20 0.00277894 306.266
-0.0490412 4.51751e-21 0.00333027 1611.24
0.0490412 4.51751e-21 0.00333029 1610.64
-0.0490309 1.01644e-20 0.00352007 1470.18
0.049031 6.77626e-21 0.00352008 1469.56
0.0491635 -2.71051e-20 1.98058e-11 1071.47
-0.0491635 0 1.98029e-11 1072.24
-0.049353 0 1.62508e-11 1129.64
0.049353 -2.71051e-20 1.62524e-11 1128.87
0.0493564 -4.51751e-21 0.000636932 471.937
-0.0493564 0 0.000636922 484.693
0.0493563 4.51751e-21 0.00116575 114.353
-0.0493563 -6.77626e-21 0.00116574 133.996
0.0493524 4.51751e-21 0.00183764 72.1431
-0.0493524 0 0.00183764 95.7196
-0.0493586 -3.38813e-21 0.0024901 214.991
0.0493586 -1.12938e-21 0.0024901 184.322
-0.0493666 0 0.00305989 1062.45
0.0493666 -1.12938e-21 0.00305989 1045.67
-0.0493403 0 0.00356289 1644.91
0.0493403 1.35525e-20 0.0035629 1644.25
-0.0495418 0 1.40423e-11 1071.44
0.0495418 -1.35525e-20 1.40435e-11 1070.63
-0.0496167 6.77626e-21 0.000238625 1009.02
0.0496167 6.77626e-21 0.000238631 1007.12
-0.0496687 0 0.000855711 184.076
0.0496687 2.71051e-20 0.000855725 164.362
0.0496679 2.71051e-20 0.00149257 60.7354
-0.0496679 -2.71051e-20 0.00149255 82.6666
-0.0496675 0 0.00216349 98.3174
0.0496675 -2.71051e-20 0.0021635 75.8636
-0.0496049 6.77626e-21 0.00359927 1094.85
0.0496049 6.77626e-21 0.00359927 1093.84
-0.0496694 -2.71051e-20 0.00278151 295.566
0.0496694 0 0.00278153 243.808
-0.0496485 -9.03502e-21 0.00336928 1265.58
0.0496486 4.51751e-21 0.0033693 1264.75
-0.0496411 6.77626e-21 0.00354774 1051.27
0.0496412 0 0.0035478 1050.29
0.0497814 -2.71051e-20 8.64185e-12 1071.95
-0.0497814 0 8.64103e-12 1072.8
0.0496784 3.38813e-21 0.00360933 1067.51
-0.0496784 0 0.00360934 1068.51
-0.0499694 0 6.43123e-12 1128.22
0.0499694 -2.71051e-20 6.43156e-12 1127.37
0.0499758 -2.25875e-21 0.000549195 638.606
-0.0499758 0 0.000549187 649.162
-0.0499801 2.25875e-21 0.00116474 135.608
0.0499801 7.90564e-21 0.00116476 113.533
-0.04998 -3.38813e-21 0.00183424 90.4543
0.04998 -1.12938e-21 0.00183425 65.6631
-0.0499303 -3.38813e-21 0.00305445 820.627
0.0499303 -1.12938e-21 0.00305446 797.532
0.0499773 2.25875e-21 0.00249451 153.114
-0.0499773 0 0.00249451 190.466
-0.0499341 0 0.00364445 1287.69
0.0499341 -1.35525e-20 0.00364445 1286.8
-0.0501533 1.35525e-20 5.60885e-12 1073.59
0.0501533 1.35525e-20 5.60909e-12 1072.72
-0.0501266 -2.03288e-20 0.00367073 993.567
0.0501266 -6.77626e-21 0.00367074 992.464
-0.0502798 9.03502e-21 0.000191907 1073.02
0.0502798 4.51751e-21 0.000191915 1072.14
-0.0502885 2.71051e-20 0.000854527 187.095
0.0502885 2.71051e-20 0.000854547 164.62
-0.0502913 -2.71051e-20 0.00149208 84.1834
0.0502913 -2.71051e-20 0.00149211 59.2255
-0.0502885 -2.71051e-20 0.00217028 96.866
0.0502885 0 0.0021703 67.0316
0.0502797 -5.42101e-20 0.00280467 209.409
-0.0502797 2.71051e-20 0.00280466 252.656
-0.0502469 1.35525e-21 0.00336928 946.428
0.0502469 0 0.00336929 942.052
0.0504002 -1.35525e-20 3.47698e-12 1078.78
-0.0504002 0 3.47681e-12 1079.67
0.0503479 6.77626e-21 0.0037006 944.192
-0.0503479 0 0.0037006 945.271
-0.0505812 2.71051e-20 2.65054e-12 1136.9
0.0505812 0 2.6506e-12 1136.02
-0.0505907 -2.25875e-21 0.000546869 658.17
0.0505907 4.51751e-21 0.00054688 645.126
-0.0506005 2.25875e-21 0.00116118 139.625
0.0506005 0 0.0011612 113.63
-0.0506022 -1.12938e-21 0.00183464 89.2399
0.0506022 1.12938e-21 0.00183466 61.1654
-0.0505088 2.71051e-20 0.0037225 1064.46
0.0505088 -1.35525e-20 0.00372251 1063.51
-0.0505989 2.25875e-21 0.00251076 168.883
0.0505989 1.12938e-21 0.00251077 134.072
-0.0505837 -4.51751e-21 0.00304551 620.447
0.0505837 -4.51751e-21 0.00304554 596.072
-0.0507541 0 2.40202e-12 1093.29
0.0507542 0 2.40209e-12 1092.4
-0.0506252 6.77626e-21 0.0037384 909.153
0.0506253 0 0.00373841 908.131
-0.0508918 9.03502e-21 0.000183459 1101.6
0.0508918 4.51751e-21 0.000183466 1100.7
-0.0509045 0 0.000847047 197.1
0.0509045 2.71051e-20 0.000847065 167.484
-0.050913 0 0.00148523 86.4164
0.050913 0 0.00148526 58.2605
-0.0509111 0 0.00217252 89.7218
0.0509111 -2.71051e-20 0.00217254 60.286
-0.0508517 4.51751e-22 0.00342102 833.576
0.0508517 -2.71051e-21 0.00342104 830.703
-0.0509129 0 0.00283861 222.356
0.0509129 -2.71051e-20 0.00283863 186.662
-0.0510241 0 1.63773e-12 1118.49
0.0510241 0 1.63789e-12 1117.59
0.0508884 -1.35525e-20 0.00377376 988.431
-0.0508885 6.77626e-21 0.00377376 989.409
-0.0509725 0 0.00378521 1124.15
0.0509725 -2.03288e-20 0.00378523 1123.31
-0.0511896 -2.71051e-20 1.38781e-12 1188.69
0.0511897 2.71051e-20 1.38797e-12 1187.76
-0.0512014 0 0.000536201 695.471
0.0512015 2.25875e-21 0.00053621 676.751
-0.0512203 0 0.00114403 149.987
0.0512203 -1.12938e-21 0.00114404 117.012
-0.0512272 -2.25875e-21 0.00182037 87.9863
0.0512272 1.12938e-21 0.00182039 57.9453
-0.0512271 3.38813e-21 0.0025134 152.861
0.0512271 -3.38813e-21 0.00251341 116.577
-0.0511772 -3.38813e-20 0.00382205 1357.86
0.0511772 0 0.00382205 1357.16
-0.0513354 1.35525e-20 0.000121831 1167.66
0.0513354 1.35525e-20 0.000121842 1166.7
-0.0512085 0 0.00363814 1366.2
0.0512085 0 0.00363818 1365.5