# p  POINT_DATA 14056
# x  y  z  p
-3.38813e-21 0.0103526 8.05504e-08 0.000843539
3.38813e-21 -0.0103526 8.07755e-08 0.0148997
3.38813e-21 -0.0103526 3.76214e-05 0.0148996
-3.38813e-21 0.0103526 3.76305e-05 0.000843537
3.38813e-21 -0.0103526 0.000631429 0.0148986
3.38813e-21 0.0103526 0.000631529 0.000843535
3.38813e-21 -0.0103526 0.000667946 0.0148986
-3.38813e-21 0.0103526 0.000668067 0.000843536
-3.38813e-21 -0.0103526 0.000705987 0.014898
0 0.0103526 0.000706122 0.000843533
0 -0.0103777 4.50189e-05 0.0148994
0 0.0103777 4.50396e-05 0.000843534
3.38813e-21 0.0103798 8.03087e-08 0.000843533
-3.38813e-21 -0.0103798 8.04298e-08 0.0148993
0 -0.0103769 0.000621356 0.0148984
0 0.0103769 0.000621457 0.000843532
0 -0.0103728 0.000705935 0.0148978
0 0.0103728 0.000706086 0.000843531
0 -0.0103526 0.00132431 0.0148957
3.38813e-21 0.0103526 0.0013244 0.000843524
-3.38813e-21 -0.0103526 0.00136256 0.014896
0 0.0103526 0.00136268 0.000843526
3.38813e-21 -0.0103526 0.00140245 0.0148953
-3.38813e-21 0.0103526 0.00140259 0.000843522
3.38813e-21 -0.0103729 0.00131435 0.0148956
0 0.0103729 0.00131444 0.000843522
0 -0.0103703 0.00139272 0.0148952
0 0.0103703 0.00139287 0.00084352
0 -0.0105447 0.00032626 0.0148983
0 0.0105447 0.000326369 0.000843519
3.38813e-21 -0.0103526 0.00204573 0.0148951
-3.38813e-21 0.0103526 0.00204573 0.00084352
-3.38813e-21 0.0103526 0.002087 0.000843524
3.38813e-21 -0.0103526 0.002087 0.0148957
-6.77626e-21 -0.0103709 0.00202634 0.0148949
0 0.0103709 0.00202635 0.000843519
0 -0.0105347 0.000977469 0.0148959
-2.71051e-20 0.0105347 0.000977685 0.000843518
0 -0.0103716 0.0020967 0.0148954
0 0.0103716 0.00209671 0.000843522
0 -0.0103939 0.0020689 0.0148952
0 0.0103939 0.00206891 0.00084352
3.38813e-21 -0.0105174 0.00130539 0.0148953
0 0.0105177 0.00130551 0.000843518
-1.35525e-20 -0.0105165 0.00160451 0.0148933
0 0.0105165 0.00160468 0.000843507
6.77626e-21 0.0106643 8.07563e-08 0.000843491
-6.77626e-21 -0.0106644 8.09383e-08 0.0148967
0 0.0106643 0.000112715 0.000843492
-6.77626e-21 -0.0106644 0.000112638 0.0148968
3.38813e-21 -0.0104508 0.00213729 0.0148949
-6.77626e-21 0.010451 0.00213734 0.000843511
0 0.0107383 7.95475e-08 0.000843485
0 -0.0107384 7.92342e-08 0.0148965
-5.64689e-22 -0.0107484 0.000677195 0.0148975
1.8823e-22 0.0107484 0.000677558 0.000843513
0 0.010797 0.000148914 0.000843474
-6.77626e-21 -0.010797 0.000148767 0.0148966
0 -0.0107396 0.00123189 0.0148945
0 0.0107396 0.00123223 0.000843508
4.23516e-22 -0.0106812 0.00170017 0.0148937
0 0.0106821 0.00169938 0.000843508
-6.77626e-21 0.0108192 6.38521e-08 0.000843465
6.77626e-21 -0.0108192 6.3635e-08 0.014896
5.50571e-21 -0.0107144 0.00166243 0.0148935
-3.51519e-20 0.0107143 0.0016627 0.000843507
2.71051e-20 -0.0106712 0.00197829 0.014895
1.35525e-20 0.0106712 0.00197839 0.000843512
0 0.0108952 0.000304094 0.000843469
0 -0.0108952 0.000303947 0.0148965
0 -0.0109109 0.000915282 0.0149037
0 0.0109109 0.00091567 0.000843574
1.35525e-20 -0.0107157 0.00227289 0.0148941
1.35525e-20 0.0107158 0.00227295 0.00084349
-1.35525e-20 -0.0107627 0.00222008 0.0148939
0 0.0107627 0.00222022 0.000843487
-1.35525e-20 -0.0108925 0.00149286 0.0149003
1.35525e-20 0.0108925 0.00149316 0.000843576
-1.35525e-20 -0.0107724 0.00230193 0.0148924
0 0.0107724 0.00230196 0.00084347
0 0.0108212 0.00232693 0.000843457
0 -0.0108212 0.00232693 0.0148902
0 0.0108444 0.00228008 0.000843456
0 -0.0108445 0.00228001 0.0148902
4.51751e-21 -0.0111112 0.000616145 0.0148932
-2.25875e-21 0.0111112 0.00061649 0.000843459
0 0.0111535 1.53938e-06 0.000843436
-2.11758e-22 -0.0111473 5.47822e-06 0.0148927
0 0.011147 5.86234e-06 0.000843436
-4.44692e-21 0.0111509 1.29512e-05 0.000843436
-5.29396e-21 -0.011151 1.21022e-05 0.0148927
-2.25875e-21 -0.011096 0.00121465 0.0148915
-6.77626e-21 0.0110959 0.00121503 0.000843468
0 -0.0111696 -5.96294e-10 0.0148925
-3.17637e-21 0.0111707 -7.22546e-10 0.000843435
3.76459e-22 -0.0110352 0.00184535 0.0148906
-3.76459e-21 0.0110352 0.00184552 0.00084346
0 0.0109407 0.00238813 0.000843457
1.35525e-20 -0.0109408 0.00238818 0.0148916
-1.35525e-20 -0.0111532 0.00249687 0.0148952
-1.35525e-20 0.0111532 0.00249688 0.000843466
-5.42101e-20 0.0114315 0.000308606 0.000843425
2.71051e-20 -0.0114315 0.000308467 0.0148908
0 -0.0114183 0.000918416 0.014889
0 0.0114183 0.000918716 0.000843415
0 -0.0113875 0.00154703 0.0148867
-2.71051e-20 0.0113875 0.00154727 0.000843415
-9.03502e-21 -0.0112598 0.0023139 0.0148958
6.77626e-21 0.0112598 0.00231395 0.000843458
0 -0.0113392 0.00259198 0.0148907
1.35525e-20 0.0113393 0.00259202 0.00084343
0 -0.0116793 5.66494e-05 0.0148891
0 0.0116793 5.66517e-05 0.0008434
0 -0.0116837 2.74733e-09 0.014889
-6.77626e-21 0.0116838 2.70093e-09 0.000843398
0 0.0117329 2.82821e-09 0.000843395
0 -0.0117329 2.87033e-09 0.0148887
1.12938e-21 -0.0117325 0.000605076 0.0148882
-1.12938e-21 0.0117325 0.000605313 0.00084339
1.12938e-21 -0.0117171 0.00123388 0.0148865
3.38813e-21 0.0117171 0.00123417 0.000843385
0 -0.0114795 0.00266368 0.0148894
0 0.0114796 0.0026637 0.000843411
-6.77626e-21 0.0117883 2.65853e-09 0.000843389
0 -0.0117883 2.69853e-09 0.0148883
0 0.0117892 5.42091e-05 0.000843389
0 -0.0117892 5.42112e-05 0.0148883
-1.35525e-20 -0.0115087 0.00262146 0.0148892
-1.35525e-20 0.0115087 0.0026215 0.000843407
-2.25875e-21 -0.0116586 0.00190773 0.0148873
0 0.0116586 0.0019079 0.000843395
-1.35525e-20 -0.0115418 0.00269549 0.0148904
0 0.0115418 0.0026955 0.000843413
-1.35525e-21 -0.0117157 0.00235642 0.0148883
-4.51751e-22 0.0117159 0.0023565 0.000843393
2.71051e-20 -0.0116486 0.00275063 0.0148894
-2.71051e-20 0.0116486 0.00275064 0.000843403
0 -0.0116731 0.00267354 0.014889
0 0.0116731 0.00267357 0.000843397
-2.71051e-20 0.0120453 0.000301328 0.000843362
0 -0.0120454 0.000301236 0.0148865
-2.71051e-20 -0.0120511 0.000915357 0.0148859
0 0.0120511 0.00091557 0.000843353
0 -0.012033 0.00156459 0.0148839
0 0.012033 0.00156477 0.000843352
0 -0.01206 0.00216221 0.0148828
-2.71051e-20 0.0120601 0.0021623 0.00084335
-2.71051e-20 -0.0119656 0.00265564 0.0148863
2.71051e-20 0.0119656 0.00265569 0.000843364
-6.77626e-21 -0.0122893 7.15655e-10 0.0148846
6.77626e-21 0.0122894 7.14789e-10 0.000843344
0 -0.0122905 5.31758e-05 0.0148846
0 0.0122905 5.31808e-05 0.000843344
-6.77626e-21 0.0123436 5.48212e-10 0.000843341
6.77626e-21 -0.0123436 5.47007e-10 0.0148842
-3.38813e-21 -0.0123659 0.000596094 0.0148835
2.25875e-21 0.0123659 0.000596232 0.000843332
6.77626e-21 0.0123987 5.15494e-10 0.000843338
-6.77626e-21 -0.0123987 5.14349e-10 0.0148837
0 0.0124005 5.03406e-05 0.000843338
0 -0.0124005 5.03428e-05 0.0148837
0 -0.0120574 0.00296139 0.0148847
0 0.0120574 0.00296139 0.000843355
-1.12938e-21 -0.012372 0.00122747 0.0148828
0 0.0123721 0.00122764 0.000843323
-1.35525e-20 -0.0121088 0.00291077 0.014884
-1.35525e-20 0.0121089 0.00291076 0.000843346
-1.12938e-21 -0.0123745 0.00187604 0.0148815
-1.12938e-21 0.0123745 0.00187616 0.000843322
0 -0.0121515 0.00300998 0.0148834
0 0.0121516 0.00301001 0.000843341
-1.35525e-20 -0.0121996 0.00303504 0.0148806
1.35525e-20 0.0121997 0.00303509 0.000843329
-1.35525e-20 -0.0122191 0.00298806 0.0148806
-1.35525e-20 0.0122192 0.00298808 0.000843327
-1.03526e-21 -0.0123756 0.00256225 0.0148821
-9.41148e-23 0.0123756 0.00256229 0.000843323
-2.71051e-20 0.0126709 0.000293136 0.000843318
5.42101e-20 -0.012671 0.000293093 0.0148817
-2.71051e-20 -0.0123021 0.00308847 0.0148815
0 0.0123022 0.00308853 0.000843325
0 -0.0126957 0.000898572 0.0148798
-2.71051e-20 0.0126958 0.00089868 0.000843293
0 -0.012709 0.00153933 0.0148813
0 0.012709 0.00153943 0.000843292
-2.71051e-20 -0.0126986 0.00221282 0.0148774
2.71051e-20 0.0126986 0.00221288 0.000843293
0 -0.0129174 7.10976e-11 0.0148794
0 0.0129174 7.11602e-11 0.000843299
-6.77626e-21 -0.0129197 4.74348e-05 0.0148794
0 0.0129197 4.7433e-05 0.000843299
-1.35525e-20 -0.012518 0.00320081 0.0148851
1.35525e-20 0.0125181 0.00320085 0.000843324
0 0.0129692 4.0155e-11 0.000843295
0 -0.0129692 4.01508e-11 0.014879
0 -0.0126235 0.00300075 0.014886
-2.25875e-21 0.0126235 0.00300078 0.000843312
3.38813e-21 0.0130046 0.000577477 0.000843276
1.12938e-21 -0.0130047 0.000577423 0.0148775
-6.77626e-21 0.0130214 3.77547e-11 0.000843293
0 -0.0130214 3.77506e-11 0.0148783
0 0.0130235 4.52047e-05 0.000843293
0 -0.0130235 4.52074e-05 0.0148783
-1.69407e-21 -0.0130315 0.00119939 0.0148763
3.38813e-21 0.0130316 0.00119946 0.000843257
-1.12938e-21 -0.0130336 0.0018718 0.0148758
-5.64689e-22 0.0130336 0.00187185 0.000843259
0 -0.0127497 0.00332057 0.0148785
6.77626e-21 0.0127498 0.00332061 0.000843281
-1.12938e-21 -0.0129826 0.00259345 0.0148763
4.51751e-21 0.0129826 0.00259348 0.000843264
0 -0.0128395 0.0033668 0.0148773
1.35525e-20 0.0128396 0.00336684 0.000843268
0 -0.0128582 0.00333774 0.0148772
0 0.0128583 0.00333778 0.000843266
0 0.0132994 0.000279159 0.000843273
-2.71051e-20 -0.0132995 0.000279137 0.014876
-1.35525e-20 -0.0128782 0.00338673 0.0148785
0 0.0128783 0.00338677 0.000843271
-5.42101e-20 0.0133387 0.000865034 0.000843222
0 -0.0133387 0.000865002 0.0148727
4.51751e-22 0.0130334 0.00304019 0.000843259
2.25875e-22 -0.0130353 0.00304025 0.0148769
6.77626e-21 -0.0129436 0.00342031 0.0148774
-6.77626e-21 0.0129437 0.00342035 0.000843266
0 -0.0129615 0.00336796 0.0148771
1.35525e-20 0.0129616 0.00336799 0.000843262
0 -0.0133632 0.00150671 0.0148716
2.71051e-20 0.0133632 0.00150676 0.000843225
2.71051e-20 -0.0133512 0.00219868 0.0148726
0 0.0133512 0.00219872 0.000843228
0 -0.0135358 4.47523e-12 0.0148734
0 0.0135358 4.47588e-12 0.000843236
0 -0.0135385 4.91843e-05 0.0148734
0 0.0135385 4.91803e-05 0.000843236
0 0.0135929 1.8852e-12 0.00084322
6.77626e-21 -0.0135929 1.88467e-12 0.0148732
1.12938e-21 0.013636 0.000546304 0.000843198
1.12938e-21 -0.0136361 0.000546291 0.0148708
-6.77626e-21 0.0136512 1.75111e-12 0.000843217
0 -0.0136512 1.75062e-12 0.014872
0 0.0136535 4.92267e-05 0.000843217
-6.77626e-21 -0.0136536 4.92359e-05 0.014872
-2.71051e-20 -0.0133731 0.00282535 0.0148683
2.71051e-20 0.0133732 0.00282536 0.000843221
-2.71051e-20 -0.0132749 0.0033279 0.0148748
-2.71051e-20 0.0132749 0.00332792 0.000843231
-1.69407e-21 -0.013679 0.00115206 0.0148695
-5.64689e-22 0.013679 0.00115208 0.000843177
0 -0.0136921 0.00182715 0.0148704
1.12938e-21 0.0136921 0.00182717 0.000843189
6.77626e-21 -0.0133673 0.00363809 0.0148725
-6.77626e-21 0.0133673 0.00363812 0.000843222
0 -0.013405 0.00359705 0.014872
0 0.013405 0.00359708 0.000843216
5.64689e-22 -0.0136837 0.00251747 0.0148685
-1.69407e-21 0.0136838 0.00251749 0.000843192
0 0.0139138 0.000259106 0.000843179
0 -0.0139138 0.000259099 0.0148694
-1.35525e-20 -0.0134314 0.00367104 0.0148717
0 0.0134314 0.00367107 0.000843213
-1.35525e-20 -0.013468 0.00368979 0.0148682
0 0.013468 0.00368982 0.000843203
0 -0.0134844 0.00365352 0.0148683
0 0.0134844 0.00365356 0.000843201
2.71051e-20 0.0139705 0.000815055 0.000843123
-2.71051e-20 -0.0139705 0.000815048 0.0148652
2.50973e-22 -0.013675 0.00322688 0.0148701
6.27432e-23 0.013675 0.0032269 0.000843193
6.77626e-21 -0.0135481 0.00373065 0.0148694
0 0.0135481 0.00373069 0.000843199
-2.71051e-20 -0.0140148 0.00144488 0.0148681
5.42101e-20 0.0140148 0.00144489 0.000843144
6.77626e-21 -0.0141256 1.99131e-13 0.014865
6.77626e-21 0.0141256 1.99166e-13 0.00084318
6.77626e-21 -0.0141299 5.79419e-05 0.014865
-1.35525e-20 0.0141299 5.79229e-05 0.00084318
-2.71051e-20 -0.01402 0.00213792 0.0148692
-2.71051e-20 0.01402 0.00213792 0.00084316
0 0.0141962 4.63662e-14 0.000843168
-1.35525e-20 -0.0141962 4.63611e-14 0.0148648
-1.12938e-21 0.0142449 0.000498317 0.000843155
1.12938e-21 -0.0142449 0.000498316 0.0148662
0 0.0142626 5.40721e-05 0.000843178
-6.77626e-21 -0.0142627 5.40946e-05 0.0148624
-6.77626e-21 0.0142685 4.24128e-14 0.000843179
6.77626e-21 -0.0142685 4.24077e-14 0.0148624
-5.42101e-20 -0.0139913 0.00285486 0.0148634
-2.71051e-20 0.0139913 0.00285488 0.00084316
6.77626e-21 -0.0137721 0.00385092 0.0148762
-6.77626e-21 0.0137722 0.00385096 0.000843205
5.64689e-22 -0.0138917 0.00364951 0.0148786
0 0.0138917 0.00364954 0.000843195
-1.12938e-21 0.0143255 0.00107369 0.000843118
0 -0.0143255 0.00107369 0.0148655
0 -0.0143513 0.0017511 0.0148667
5.64689e-22 0.0143513 0.0017511 0.000843118
2.71051e-20 -0.0144732 0.000219186 0.014858
0 0.0144732 0.000219182 0.000843175
6.77626e-21 -0.0139827 0.00397686 0.0148676
-6.77626e-21 0.0139828 0.00397691 0.000843156
2.82344e-21 -0.0143298 0.00248451 0.0148667
2.82344e-21 0.0143298 0.00248452 0.000843134
-2.71051e-20 0.0145986 0.000742805 0.000843148
-2.71051e-20 -0.0145986 0.000742806 0.0148737
4.51751e-21 -0.0142572 0.00324559 0.0148667
3.38813e-21 0.0142572 0.00324562 0.000843142
1.35525e-20 -0.0140601 0.00402775 0.0148662
0 0.0140601 0.00402781 0.00084314
0 -0.014081 0.00400157 0.0148662
0 0.0140811 0.00400163 0.000843138
0 -0.0140961 0.00405297 0.0148683
0 0.0140962 0.00405303 0.000843146
5.27043e-21 -0.0146978 0.000423854 0.0148646
7.52918e-22 0.0146978 0.000423853 0.000843278
6.77626e-21 -0.014714 5.32172e-05 0.0148602
0 0.0147141 5.31873e-05 0.000843316
6.77626e-21 -0.0147156 4.07604e-15 0.0148602
6.77626e-21 0.0147157 4.07548e-15 0.000843315
6.77626e-21 -0.0141531 0.00409437 0.0148649
0 0.0141532 0.00409444 0.00084313
-1.35525e-20 -0.014186 0.00402833 0.0148652
0 0.0141861 0.00402839 0.000843126
2.71051e-20 -0.0146871 0.00133462 0.0148542
-2.71051e-20 0.0146871 0.00133462 0.000843061
-6.35275e-22 -0.0142916 0.00370912 0.0148689
7.05861e-22 0.0142916 0.00370916 0.000843136
-6.77626e-21 -0.0147878 2.32668e-16 0.0148607
6.77626e-21 0.0147879 2.32452e-16 0.000843348
5.42101e-20 -0.0146599 0.00209093 0.0148753
0 0.0146599 0.00209094 0.000843108
0 -0.014843 8.03853e-05 0.0148612
0 0.014843 8.03526e-05 0.000843378
0 -0.0148561 2.18777e-16 0.0148613
0 0.0148561 2.1855e-16 0.000843379
-2.71051e-20 -0.0146441 0.00281789 0.0148592
0 0.0146441 0.0028179 0.00084311
2.71051e-20 -0.0150101 0.000339146 0.014863
2.71051e-20 0.0150101 0.000339154 0.000843509
-2.71051e-20 -0.0144832 0.00400474 0.014865
-2.71051e-20 0.0144832 0.0040048 0.000843107
-2.71051e-20 -0.0144181 0.00428662 0.0148631
0 0.0144182 0.0042867 0.000843106
2.71051e-20 -0.0146327 0.00349143 0.0148635
-2.71051e-20 0.0146327 0.00349146 0.000843105
0 -0.0149972 0.00170299 0.0148655
1.8823e-21 0.0149972 0.001703 0.000843075
0 -0.0144912 0.00422844 0.0148633
0 0.0144913 0.00422852 0.000843098
1.35525e-20 -0.0144934 0.00434137 0.0148673
1.35525e-20 0.0144936 0.00434146 0.000843113
-1.35525e-21 -0.0151529 0.000909675 0.0148634
2.03288e-21 0.0151529 0.000909676 0.000843201
-2.71051e-20 -0.0145637 0.00439248 0.0148655
1.35525e-20 0.0145638 0.00439257 0.000843094
-2.71051e-20 -0.014602 0.00431156 0.0148653
-1.35525e-20 0.0146021 0.00431164 0.00084309
1.12938e-21 -0.0150574 0.00235817 0.0148665
-1.12938e-21 0.0150574 0.00235818 0.000843083
-5.64689e-22 -0.0149519 0.00315932 0.0148645
-2.25875e-21 0.0149519 0.00315933 0.000843083
0 -0.0153675 5.06193e-05 0.0148607
-6.77626e-21 0.0153677 5.05775e-05 0.000843387
0 -0.015373 4.86614e-17 0.0148607
0 0.0153731 4.85588e-17 0.000843388
4.51751e-22 -0.0148915 0.00388258 0.0148655
-4.51751e-22 0.0148915 0.00388263 0.000843079
-6.77626e-21 -0.0154159 3.88773e-17 0.0148598
0 0.015416 3.87776e-17 0.000843379
-2.71051e-20 -0.0148215 0.00426958 0.0148635
0 0.0148216 0.00426965 0.000843062
0 -0.0154548 3.02596e-05 0.0148603
0 0.0154549 3.02264e-05 0.000843376
0 -0.0154565 3.72522e-17 0.0148603
0 0.0154566 3.71491e-17 0.000843376
6.77626e-21 -0.0148109 0.00457227 0.0148671
0 0.014811 0.00457238 0.000843088
6.77626e-21 -0.0148556 0.00452731 0.0148671
0 0.0148557 0.00452741 0.000843085
-2.71051e-20 -0.015291 0.00279582 0.0148615
-2.71051e-20 0.015291 0.00279583 0.00084305
0 -0.0148581 0.00460666 0.0148691
0 0.0148583 0.00460678 0.000843099
0 -0.0149 0.00463711 0.0148711
6.77626e-21 0.0149001 0.00463723 0.000843103
6.77626e-21 -0.0149278 0.00460013 0.0148707
6.77626e-21 0.0149279 0.00460024 0.0008431
2.71051e-20 -0.0152535 0.00349535 0.0148735
-2.71051e-20 0.0152535 0.00349537 0.000843064
-7.52918e-22 -0.0150945 0.00432053 0.0148661
1.50584e-21 0.0150946 0.00432059 0.000843074
0 -0.0156481 0.00170282 0.0148701
1.0842e-19 0.0156481 0.00170282 0.000843051
0 0.0156283 0.00242155 0.000843026
-1.8823e-22 -0.0156283 0.00242155 0.0148567
-2.71051e-20 -0.0152931 0.00410118 0.0148619
0 0.0152932 0.00410122 0.000843056
-2.71051e-20 -0.015191 0.0045723 0.0148722
0 0.0151911 0.00457238 0.000843099
5.42101e-20 0.0158564 0.000503046 0.000843118
-5.42101e-20 -0.0158564 0.000503053 0.0148552
0 -0.0155955 0.00313147 0.0148591
-5.64689e-22 0.0155955 0.00313148 0.000843023
-6.77626e-21 -0.0151955 0.0048521 0.0148623
-6.77626e-21 0.0151956 0.00485222 0.000843071
-6.77626e-21 -0.0152218 0.00482879 0.0148618
-6.77626e-21 0.0152219 0.0048289 0.000843068
6.77626e-21 -0.0152273 0.00487524 0.0148598
6.77626e-21 0.0152274 0.00487536 0.000843062
-6.77626e-21 -0.0152573 0.00489706 0.0148589
0 0.0152574 0.00489719 0.000843057
-6.77626e-21 -0.0152733 0.00486831 0.0148588
0 0.0152734 0.00486843 0.000843055
-2.82344e-22 -0.0155765 0.00380625 0.0148632
5.64689e-22 0.0155765 0.00380628 0.000843029
-1.69407e-21 0.0161174 1.48167e-17 0.000843131
3.38813e-21 -0.0161182 1.48305e-17 0.0148574
2.71051e-20 0.0159438 0.00275754 0.000842986
0 -0.0159438 0.00275754 0.0148442
9.41148e-23 -0.0155623 0.0044811 0.0148606
1.17643e-22 0.0155624 0.00448116 0.000843034
2.71051e-20 -0.0155229 0.00482975 0.014846
2.71051e-20 0.015523 0.00482983 0.000843003
-2.71051e-20 -0.0159029 0.00345691 0.0148571
-5.42101e-20 0.015903 0.00345692 0.000842993
-3.38813e-21 -0.0155781 0.00513047 0.0148504
-3.38813e-21 0.0155782 0.00513056 0.000842999
0 -0.0158776 0.00413216 0.0148601
2.71051e-20 0.0158777 0.00413219 0.000843003
0 -0.0155898 0.00511599 0.0148502
0 0.0155899 0.00511607 0.000842998
-7.34095e-22 0.0163695 0.00112646 0.000842986
-5.64689e-22 -0.0163695 0.00112648 0.0148577
0 -0.0155955 0.00514312 0.0148501
6.77626e-21 0.0155956 0.00514321 0.000842997
0 -0.0156136 0.00515625 0.0148504
0 0.0156137 0.00515634 0.000842996
0 -0.0156211 0.00514122 0.0148502
0 0.0156212 0.00514131 0.000842995
2.11758e-22 0.0163299 0.00225504 0.000842957
2.82344e-22 -0.0163314 0.00225388 0.0148503
0 0.0165134 1.83628e-05 0.000842977
3.38813e-21 -0.0165134 1.83231e-05 0.0148555
0 0.016517 2.64107e-18 0.000842978
3.38813e-21 -0.016517 2.63768e-18 0.0148555
3.38813e-22 -0.0157793 0.00488992 0.0148548
-7.34095e-22 0.0157794 0.00488999 0.000842998
-2.82344e-22 -0.0162343 0.00309924 0.0148502
5.64689e-22 0.0162343 0.00309924 0.000842962
0 -0.0165394 -1.52047e-19 0.0148553
3.38813e-21 0.0165394 -1.53119e-19 0.000842973
3.38813e-21 -0.0165602 2.31403e-05 0.0148557
3.38813e-21 0.0165603 2.31905e-05 0.000842971
0 -0.0165622 -1.44108e-19 0.0148556
3.38813e-21 0.0165623 -1.45159e-19 0.000842971
0 -0.0159282 0.00468151 0.0148683
2.71051e-20 0.0159283 0.00468157 0.000843038
5.64689e-22 -0.0162015 0.00379234 0.014856
0 0.0162016 0.00379236 0.000842966
-2.71051e-20 -0.0158863 0.00511953 0.014852
-2.71051e-20 0.0158864 0.0051196 0.000842968
0 -0.0165599 0.00274152 0.0148448
2.71051e-20 0.0165599 0.00274152 0.000842931
-1.12938e-21 -0.016193 0.00443156 0.0148589
-8.47033e-22 0.0161931 0.0044316 0.000842976
-6.77626e-21 -0.0159115 0.00537295 0.0148563
0 0.0159116 0.00537303 0.000842974
0 -0.0159381 0.00534058 0.0148561
0 0.0159382 0.00534066 0.00084297
0 -0.0159556 0.00540506 0.0148556
0 0.0159557 0.00540513 0.000842969
0 -0.0165346 0.00343545 0.0148547
0 0.0165347 0.00343545 0.000842937
-5.64689e-22 -0.0161473 0.00497226 0.0148578
0 0.0161474 0.00497232 0.000842965
0 -0.0160061 0.00544179 0.0148543
-6.77626e-21 0.0160062 0.00544186 0.000842952
-6.77626e-21 -0.0160434 0.00536957 0.0148542
-6.77626e-21 0.0160435 0.00536965 0.000842949
2.71051e-20 -0.0165061 0.00411387 0.0148524
-2.71051e-20 0.0165061 0.00411389 0.000842931
-5.42101e-20 0.0169791 0.00178697 0.000842884
-5.42101e-20 -0.0169791 0.00178697 0.0148496
5.42101e-20 -0.0170733 0.000575202 0.0148563
0 0.0170733 0.000575203 0.000842851
-2.11758e-22 -0.0169161 0.00243812 0.014841
-1.05879e-22 0.0169162 0.00243816 0.000842882
0 -0.0163051 0.00529232 0.0148562
2.71051e-20 0.0163052 0.00529239 0.000842925
5.64689e-22 -0.0168686 0.00307981 0.014848
2.82344e-22 0.0168686 0.00307981 0.000842893
-2.71051e-20 -0.0164829 0.00475882 0.0148552
-2.71051e-20 0.016483 0.00475887 0.000842932
0 -0.0162225 0.00559923 0.0148566
-1.35525e-20 0.0162226 0.00559931 0.000842925
1.35525e-20 -0.0163053 0.00551974 0.0148567
-1.35525e-20 0.0163054 0.00551981 0.000842916
1.35525e-20 -0.0162978 0.00565404 0.0148604
1.35525e-20 0.0162979 0.0056541 0.000842932
2.82344e-22 -0.0168399 0.00376458 0.0148573
2.82344e-22 0.0168399 0.00376458 0.000842902
0 -0.0163778 0.00571225 0.0148594
0 0.0163779 0.00571231 0.000842901
0 -0.0164263 0.00561382 0.0148591
1.35525e-20 0.0164264 0.00561388 0.000842896
5.64689e-22 -0.0168092 0.00443951 0.0148604
1.12938e-21 0.0168092 0.00443953 0.000842908
-2.71051e-20 -0.0172154 0.00273637 0.0148302
5.42101e-20 0.0172154 0.00273638 0.000842835
-5.42101e-20 -0.0171664 0.00341209 0.0148617
-2.71051e-20 0.0171664 0.00341209 0.000842869
2.25875e-21 -0.0167257 0.0051641 0.0148614
2.25875e-21 0.0167257 0.00516414 0.000842903
2.71051e-20 -0.0166359 0.00556304 0.0148593
0 0.016636 0.00556311 0.000842869
0 -0.0165776 0.00585761 0.0148664
-2.03288e-20 0.0165777 0.0058577 0.000842908
1.35525e-20 -0.016648 0.00578953 0.0148671
0 0.0166481 0.00578962 0.000842905
0 -0.0171607 0.00407706 0.0148604
2.71051e-20 0.0171607 0.00407707 0.000842871
0 0.0176484 3.23622e-05 0.00084281
0 -0.0176485 3.23255e-05 0.0148512
6.77626e-21 0.0176509 -8.03953e-21 0.00084281
-6.77626e-21 -0.0176509 -8.02755e-21 0.0148512
1.35525e-20 -0.0166431 0.00590528 0.0148693
0 0.0166432 0.00590537 0.000842932
1.12938e-21 -0.0176285 0.00116335 0.0148496
-1.12938e-21 0.0176285 0.00116335 0.000842819
0 -0.0176822 2.53433e-21 0.0148508
0 0.0176822 2.54066e-21 0.000842811
0 -0.0177126 3.15372e-05 0.0148505
6.77626e-21 0.0177127 3.15721e-05 0.000842809
0 -0.0177142 2.51158e-21 0.0148504
6.77626e-21 0.0177142 2.51789e-21 0.000842809
0 -0.0167058 0.00595053 0.0148765
-2.71051e-20 0.0167058 0.0059506 0.000842951
-1.35525e-20 -0.0167518 0.00589235 0.0148757
2.71051e-20 -0.0171029 0.00477857 0.0148741
-2.71051e-20 0.0171029 0.00477859 0.000842897
-1.35525e-20 0.0167519 0.00589242 0.000842944
-5.29396e-23 -0.0175088 0.00306384 0.0148469
0 0.0175088 0.00306385 0.000842831
8.99973e-22 0.0175117 0.00304918 0.00084283
0 -0.0175118 0.00304895 0.0148469
8.47033e-22 0.0176368 0.00232613 0.000842816
-8.47033e-22 -0.0176368 0.00232613 0.0148429
3.76459e-21 -0.0169118 0.00560669 0.0148682
0 0.0169119 0.00560674 0.000842907
4.23516e-22 -0.0175634 0.0036581 0.0148566
-2.82344e-22 0.0175634 0.00365811 0.000842833
2.71051e-20 -0.0171319 0.00538503 0.0148615
2.71051e-20 0.017132 0.00538507 0.000842885
5.42101e-20 -0.0169968 0.00585981 0.0148832
-2.71051e-20 0.0169969 0.00585986 0.000842962
1.69407e-21 -0.0174515 0.00442257 0.0148613
0 0.0174515 0.00442258 0.000842848
1.35525e-20 -0.0169525 0.00612936 0.014877
1.35525e-20 0.0169526 0.0061294 0.000842941
0 -0.0170054 0.00608737 0.0148764
0 0.0170054 0.00608742 0.000842935
0 -0.0170095 0.00617053 0.0148705
0 0.0170095 0.00617057 0.000842913
-5.64689e-22 -0.0174299 0.0050817 0.0148675
-1.69407e-21 0.0174299 0.00508172 0.000842863
1.35525e-20 -0.0170585 0.00621569 0.0148722
-1.35525e-20 0.0170585 0.00621572 0.000842911
-1.35525e-20 -0.0170957 0.00616015 0.0148722
-1.35525e-20 0.0170957 0.00616018 0.000842909
2.71051e-20 -0.0177881 0.00407867 0.0148508
0 0.0177881 0.00407867 0.000842804
-5.42101e-20 -0.0182492 0.000583224 0.0148454
-5.42101e-20 0.0182492 0.000583225 0.000842773
1.0842e-19 0.0182177 0.0017667 0.000842771
1.0842e-19 -0.0182177 0.00176669 0.014847
4.51751e-22 -0.0173923 0.00576036 0.0148696
3.61401e-21 0.0173923 0.00576039 0.000842879
2.71051e-20 -0.0173272 0.00613648 0.0148642
-2.71051e-20 0.0173273 0.00613651 0.000842865
2.71051e-20 -0.0177633 0.00473764 0.0148608
-5.42101e-20 0.0177633 0.00473765 0.000842823
0 0.0181474 0.0030587 0.000842767
5.42101e-20 -0.0181474 0.0030587 0.0148524
1.35525e-20 -0.0172962 0.00642627 0.0148737
1.35525e-20 0.0172963 0.0064263 0.0008429
0 -0.0173396 0.0063839 0.0148737
6.77626e-21 0.0173396 0.00638392 0.000842897
-2.11758e-22 -0.0181239 0.00372575 0.014846
-3.13402e-20 0.0181204 0.00372592 0.000842767
0 -0.017341 0.00646754 0.0148731
0 0.017341 0.00646756 0.000842898
0 -0.0177401 0.00540102 0.0148742
0 0.0177401 0.00540103 0.000842848
0 -0.0173831 0.00650956 0.01488
1.35525e-20 0.017383 0.00650958 0.000842919
0 -0.0174233 0.00646349 0.0148794
-6.77626e-21 0.0174233 0.00646351 0.000842914
2.82344e-22 -0.0180948 0.00439399 0.0148523
0 0.0180948 0.00439399 0.000842778
-5.27043e-21 -0.0175914 0.00620021 0.0148724
7.52918e-22 0.0175914 0.00620023 0.000842877
2.11758e-22 0.0183804 0.00368314 0.000842744
0 -0.0183807 0.00368309 0.0148443
1.41172e-21 -0.0180744 0.00505373 0.0148622
-2.82344e-22 0.0180744 0.00505374 0.000842798
0 -0.0177917 0.0059867 0.014866
-5.42101e-20 0.0177917 0.00598672 0.00084284
-2.71051e-20 -0.0176705 0.0064614 0.0148873
-2.71051e-20 0.0176705 0.00646142 0.000842928
0 0.0188284 2.77018e-05 0.000842727
0 -0.0188284 2.76802e-05 0.0148387
3.38813e-21 0.0188292 1.48229e-23 0.000842727
0 -0.0188293 1.48286e-23 0.0148387
6.77626e-21 -0.0176058 0.00673268 0.0148787
6.77626e-21 0.0176058 0.00673269 0.000842902
0 -0.0188572 -5.94296e-24 0.0148383
0 0.0188572 -5.97214e-24 0.000842725
-5.64689e-22 -0.0188314 0.00116255 0.0148391
1.12938e-21 0.0188314 0.00116255 0.000842722
0 -0.0184312 0.00404065 0.0148381
0 0.0184312 0.00404065 0.000842734
6.77626e-21 -0.0176558 0.00669542 0.014878
0 0.0176558 0.00669544 0.000842897
0 -0.0188846 2.72799e-05 0.014838
0 0.0188846 2.73009e-05 0.000842723
0 -0.0188852 -5.78528e-24 0.014838
3.38813e-21 0.0188852 -5.80297e-24 0.000842723
0 -0.0176488 0.0067757 0.0148716
0 0.0176488 0.00677571 0.000842874
1.69407e-21 -0.0180727 0.00569488 0.0148691
1.69407e-21 0.0180727 0.00569489 0.000842816
-8.47033e-22 -0.0188 0.00239129 0.0148416
2.82344e-22 0.0188 0.00239129 0.000842716
6.77626e-21 -0.0176919 0.00681868 0.0148718
6.77626e-21 0.0176919 0.00681869 0.00084287
6.77626e-21 -0.0177277 0.00676628 0.0148718
0 0.0177277 0.00676629 0.000842868
0 -0.0183972 0.00470952 0.0148596
2.71051e-20 0.0183972 0.00470952 0.000842751
-1.807e-21 -0.018036 0.00636963 0.0148713
-4.51751e-22 0.018036 0.00636963 0.000842835
2.71051e-20 -0.0184065 0.00534982 0.0148549
2.71051e-20 0.0184065 0.00534983 0.000842775
0 0.0188389 0.00360748 0.000842703
0 -0.0188389 0.00360748 0.0148412
0 0.0188382 0.00361428 0.000842702
0 -0.0188382 0.00361428 0.0148411
0 -0.0179575 0.00674598 0.0148608
0 0.0179575 0.00674599 0.000842819
-2.11758e-22 -0.018797 0.00392551 0.0148435
0 0.018797 0.00392572 0.000842708
1.86347e-20 -0.0187299 0.00435993 0.0148466
0 0.0187299 0.00435994 0.000842716
8.47033e-22 -0.0187383 0.00436424 0.0148469
-5.0822e-21 0.0187295 0.00436908 0.000842715
6.77626e-21 -0.0179112 0.0070374 0.0148711
0 0.0179112 0.00703741 0.000842857
6.77626e-21 -0.0179573 0.0069938 0.0148711
0 0.0179573 0.00699381 0.000842854
0 -0.0179545 0.00708061 0.0148705
0 0.0179545 0.00708062 0.000842854
-2.71051e-20 -0.018373 0.00601996 0.014881
2.71051e-20 0.018373 0.00601997 0.000842802
-6.77626e-21 -0.0179982 0.00712413 0.0148779
6.77626e-21 0.0179982 0.00712414 0.000842878
6.77626e-21 -0.0180407 0.00707639 0.0148771
-6.77626e-21 0.0180407 0.0070764 0.000842873
5.64689e-22 -0.0187993 0.00494162 0.0148491
0 0.0187993 0.00494163 0.000842719
-5.27043e-21 -0.0182149 0.00681267 0.0148694
0 0.0182149 0.00681268 0.00084283
0 0.0194433 0.000583039 0.00084268
-5.42101e-20 -0.0194433 0.000583038 0.0148314
5.42101e-20 -0.0194241 0.00177777 0.0148327
5.42101e-20 0.0194241 0.00177777 0.000842664
-8.47033e-22 -0.0187034 0.00568152 0.0148573
0 0.0187034 0.00568153 0.000842746
0 -0.0184175 0.00660392 0.0148621
-2.71051e-20 0.0184175 0.00660393 0.000842784
0 -0.0182856 0.0070727 0.0148855
2.71051e-20 0.0182856 0.00707271 0.000842889
6.77626e-21 -0.0182152 0.00734069 0.0148766
6.77626e-21 0.0182152 0.0073407 0.000842858
0 0.0194206 0.00301783 0.000842661
0 -0.0194206 0.00301783 0.0148345
6.77626e-21 -0.0182686 0.00730221 0.0148757
6.77626e-21 0.0182686 0.00730222 0.000842852
-1.35525e-20 -0.0182601 0.00738542 0.0148686
0 0.0182601 0.00738543 0.000842824
0 -0.0186945 0.00631878 0.0148681
5.64689e-22 0.0186945 0.00631878 0.000842764
-6.77626e-21 -0.0183052 0.00743049 0.0148687
0 0.0183052 0.0074305 0.000842821
-5.42101e-20 -0.0190301 0.00535182 0.0148382
5.42101e-20 0.0190301 0.00535182 0.000842689
-6.77626e-21 -0.0183432 0.00737621 0.0148687
0 0.0183432 0.00737622 0.000842818
0 -0.0193729 0.00433863 0.014842
-5.42101e-20 0.019373 0.00433863 0.000842631
0 -0.0186551 0.00698434 0.0148673
1.807e-21 0.0186551 0.00698435 0.000842784
2.71051e-20 -0.019014 0.00599212 0.014856
0 0.019014 0.00599212 0.000842722
2.71051e-20 -0.0185715 0.00735757 0.014857
0 0.0185715 0.00735757 0.000842762
0 0.0193594 0.0050052 0.000842653
3.76459e-22 -0.0193594 0.0050052 0.0148358
3.38813e-21 0.0200241 2.32174e-05 0.000842625
0 -0.0200241 2.32014e-05 0.0148258
3.38813e-21 0.0200244 -7.11699e-26 0.000842625
0 -0.0200244 -6.24703e-26 0.0148258
-6.77626e-21 -0.0185211 0.00764585 0.0148675
-6.77626e-21 0.0185211 0.00764585 0.000842808
3.38813e-21 -0.0200482 7.13727e-26 0.0148255
0 0.0200482 7.23318e-26 0.000842623
0 -0.0185698 0.00760131 0.0148674
-6.77626e-21 0.0185698 0.00760131 0.000842805
-3.38813e-21 -0.020072 2.30556e-05 0.0148253
3.38813e-21 0.020072 2.30714e-05 0.000842621
0 -0.0200723 6.80958e-26 0.0148253
-3.38813e-21 0.0200723 6.90154e-26 0.000842621
-5.64689e-22 -0.0200388 0.00116454 0.0148265
-5.64689e-22 0.0200388 0.00116454 0.000842619
-1.35525e-20 -0.0185663 0.00769085 0.0148667
-1.35525e-20 0.0185663 0.00769085 0.000842804
0 -0.0189943 0.00663938 0.014874
-2.71051e-20 0.0189943 0.00663938 0.000842749
-8.47033e-22 -0.0193404 0.00565864 0.014844
0 0.0193404 0.00565864 0.000842676