# p  POINT_DATA 33912
# x  y  z  p
0.0386366 6.77626e-21 9.33814e-08 0.000856744
-0.0386366 -6.77626e-21 9.33814e-08 0.0160359
-0.0386366 0 0.000236766 0.016036
0.0386366 -3.38813e-21 0.000236754 0.000856738
-0.0386365 -1.69407e-21 0.000428699 0.0160362
0.0386365 1.69407e-21 0.000428676 0.000856735
-0.0386365 -3.38813e-21 0.000666556 0.0160361
0.0386365 -6.77626e-21 0.000666521 0.000856736
-0.0386364 -1.69407e-21 0.000917399 0.0160375
0.0386364 -1.69407e-21 0.000917369 0.000856712
-0.0386364 -1.69407e-21 0.00111073 0.0160378
0.0386364 0 0.00111069 0.00085671
-0.0386364 0 0.00136165 0.0160362
0.0386364 6.77626e-21 0.00136161 0.000856731
-0.0386364 0 0.00162089 0.0160374
0.0386364 5.0822e-21 0.00162088 0.000856716
-0.0386365 0 0.00182904 0.0160374
0.0386365 1.69407e-21 0.00182903 0.000856723
0.0386365 6.77626e-21 0.002087 0.000856752
-0.0386365 -6.77626e-21 0.002087 0.0160356
-0.0387133 -6.77626e-21 0.000334786 0.016038
0.0387133 0 0.000334769 0.00085675
0.0387145 -6.77626e-21 0.00100945 0.000856717
-0.0387145 3.38813e-21 0.00100948 0.0160397
0.0387157 3.38813e-21 0.00170741 0.000856725
-0.0387157 3.38813e-21 0.00170743 0.0160392
0.0388933 1.35525e-20 9.83892e-05 0.000856791
-0.0388934 -2.03288e-20 9.8385e-05 0.0160426
0.0388944 -6.77626e-21 8.11405e-08 0.000856792
-0.0388944 -6.77626e-21 8.11392e-08 0.0160427
0.038896 1.35525e-20 0.000773192 0.000856774
-0.038896 6.77626e-21 0.000773227 0.0160425
0.0389003 -1.35525e-20 0.000556945 0.000856787
-0.0389003 0 0.000556978 0.0160421
0.0388961 -1.35525e-20 0.00122361 0.000856771
-0.0388961 -6.77626e-21 0.00122365 0.0160414
-0.0388903 -1.35525e-20 0.00145595 0.0160411
0.0388903 0 0.00145592 0.000856772
-0.0388845 0 0.00190647 0.0160396
0.0388845 6.77626e-21 0.00190644 0.00085678
-0.0389211 -1.35525e-20 0.00212604 0.0160371
0.0389211 1.35525e-20 0.00212604 0.0008568
-0.03898 0 7.37425e-08 0.0160452
0.03898 0 7.3742e-08 0.000856813
-0.0389877 0 0.000656511 0.0160445
0.0389877 -6.77626e-21 0.000656454 0.00085681
-0.0389501 0 0.00204928 0.0160384
0.0389501 1.35525e-20 0.00204927 0.000856806
0.0389855 6.77626e-21 0.00132191 0.000856807
-0.0389855 0 0.00132198 0.0160431
0.0389857 -6.77626e-21 0.00196118 0.000856818
-0.0389857 6.77626e-21 0.00196122 0.0160406
-0.0390408 -6.77626e-21 0.00214247 0.0160424
0.0390408 6.77626e-21 0.00214247 0.000856827
-0.0390834 6.77626e-21 0.00203104 0.0160434
0.0390834 -6.77626e-21 0.00203102 0.000856841
-0.0391899 5.0822e-21 7.98183e-08 0.0160503
0.0391899 -8.47033e-21 7.98187e-08 0.00085686
-0.0392186 1.05879e-22 0.000973966 0.0160467
0.039217 0 0.000971787 0.00085688
0.0392186 0 0.000993521 0.00085688
-0.0392186 0 0.000993748 0.0160466
-0.0392339 1.12938e-22 0.000322247 0.0160517
0.0392339 -3.38813e-22 0.000322224 0.000856871
0.0392124 9.41148e-23 0.00160285 0.000856877
-0.0392124 2.82344e-22 0.0016029 0.0160437
0.0392589 1.01644e-20 8.17933e-08 0.000856875
-0.0392589 -2.37169e-20 8.17941e-08 0.0160521
-0.0392358 3.38813e-21 0.00211246 0.0160474
0.0392358 -1.01644e-20 0.00211246 0.000856873
-0.0392408 1.35525e-20 0.0021699 0.0160476
0.0392408 3.38813e-21 0.00216991 0.000856872
-0.0393079 0 0.00200293 0.01605
0.0393079 0 0.00200291 0.000856888
0.0393994 1.35525e-20 0.00128732 0.000856911
-0.0393994 -1.35525e-20 0.00128736 0.0160545
0.0394321 1.35525e-20 0.000662255 0.000856915
-0.0394321 -1.35525e-20 0.000662293 0.0160582
-0.0393782 2.71051e-20 0.00218876 0.0160526
0.0393783 0 0.00218876 0.000856894
0.0394171 1.35525e-20 0.00182881 0.000856911
-0.0394171 0 0.00182885 0.0160544
-0.0394765 0 8.81966e-08 0.0160594
0.0394765 -1.35525e-20 8.81971e-08 0.000856918
0.039636 -1.35525e-20 8.20127e-08 0.000856954
-0.039636 6.77626e-21 8.20112e-08 0.016065
-0.0396081 -4.51751e-21 0.00155275 0.0160634
0.0396081 -2.25875e-21 0.00155275 0.000856959
-0.0395887 -6.77626e-21 0.00221763 0.0160629
0.0395887 -2.03288e-20 0.00221763 0.000856945
-0.0396657 -2.25875e-21 0.000926812 0.0160669
0.0396657 -4.51751e-21 0.000926845 0.000856971
0.0396606 -6.77626e-21 0.00201754 0.000856964
-0.0396606 0 0.00201754 0.0160659
-0.0396602 -6.77626e-21 0.00213151 0.0160664
0.0396602 0 0.00213151 0.000856965
-0.0397186 0 0.000328044 0.0160682
0.0397186 3.38813e-21 0.000328061 0.000856974
-0.0397505 -6.77626e-21 0.00223983 0.0160677
0.0397506 6.77626e-21 0.00223983 0.000856977
-0.0398326 6.77626e-21 7.79286e-08 0.0160712
0.0398326 0 7.79286e-08 0.000856992
-0.0399409 5.64689e-21 0.0012628 0.0160735
0.0399409 -4.51751e-21 0.00126293 0.000857013
-0.0399609 0 7.37241e-08 0.0160746
0.0399609 0 7.37245e-08 0.000857012
0.0399375 -2.25875e-21 0.0016998 0.000857013
-0.0399375 0 0.00169972 0.0160739
-0.0399278 0 0.00226415 0.0160715
0.0399278 0 0.00226415 0.000857003
-0.0400201 6.77626e-21 0.000637232 0.0160768
0.0400201 0 0.000637359 0.000857026
-0.0400601 0 0.000117456 0.0160775
0.0400601 1.35525e-20 0.000117489 0.00085703
0.0400609 0 7.18816e-08 0.00085703
-0.0400609 0 7.1881e-08 0.0160776
0.0400257 -1.35525e-20 0.00227757 0.000857021
-0.0400257 0 0.00227757 0.0160757
-0.0402355 0 0.000320268 0.0160824
0.0402356 -1.35525e-20 0.000320378 0.000857059
-0.0402399 0 0.000958442 0.0160834
0.0402399 0 0.000958653 0.000857057
0.0402362 0 0.0015669 0.000857058
-0.0402362 1.35525e-20 0.00156673 0.0160829
0.0402212 -3.38813e-21 0.00200607 0.000857065
-0.0402212 0 0.002006 0.0160865
-0.0404904 0 5.21452e-08 0.0160886
0.0404904 0 5.21452e-08 0.000857099
-0.0404915 -3.38813e-21 3.22757e-05 0.0160887
0.0404915 0 3.22702e-05 0.000857099
-0.0405175 3.38813e-21 5.13595e-08 0.0160893
0.0405175 0 5.13599e-08 0.000857103
-0.0404556 0 0.00233656 0.0160897
0.0404556 1.52466e-20 0.00233656 0.000857093
-0.0404936 -7.52918e-22 0.00172666 0.0160912
0.0404937 -7.52918e-22 0.00172685 0.000857097
0.0405368 0 5.18925e-08 0.000857106
-0.0405368 0 5.18925e-08 0.0160897
0.0405375 0 2.05856e-05 0.000857106
-0.0405375 -3.38813e-21 2.05864e-05 0.0160897
-0.0405369 2.03288e-20 0.000628538 0.0160901
0.040537 -1.14349e-20 0.000628787 0.000857102
-0.0405371 -4.23516e-22 0.00063565 0.0160901
0.0405372 -1.18585e-20 0.000635983 0.000857102
-0.0404766 -5.2516e-20 0.00233943 0.0160902
0.0404766 0 0.00233943 0.000857097
-0.040541 1.69407e-21 0.000702547 0.0160903
0.040541 -1.27055e-21 0.000703745 0.000857102
-0.0405495 1.14349e-20 0.000632191 0.0160904
0.0405497 -8.04681e-21 0.000632486 0.000857104
0.0404906 0 0.00234135 0.000857099
-0.0404906 -1.69407e-21 0.00234135 0.0160907
-0.0405397 -1.12938e-22 0.00125155 0.016091
0.0405397 2.25875e-22 0.00125189 0.0008571
-0.0405452 0 0.00227937 0.0160925
0.0405453 0 0.00227938 0.000857107
0.0406158 -3.38813e-21 5.8098e-08 0.00085712
-0.0406159 0 5.81041e-08 0.0160918
0.0406084 -5.0822e-21 0.00235751 0.000857119
-0.0406084 5.0822e-21 0.00235752 0.0160929
-0.0408377 2.71051e-20 0.000322191 0.0160968
0.0408378 -2.71051e-20 0.000322355 0.000857151
0.0408178 -1.12938e-21 0.00198965 0.00085715
-0.0408178 -4.51751e-21 0.0019895 0.0161016
-0.0410085 -8.13152e-21 0.0010286 0.016103
0.0410086 0 0.00102904 0.000857172
-0.0410119 0 0.00150845 0.0161053
0.041012 4.51751e-21 0.0015088 0.000857181
0.0409774 0 0.00240814 0.000857182
-0.0409774 0 0.00240814 0.0161007
0.0410604 1.35525e-20 8.41089e-08 0.000857195
-0.0410604 0 8.41151e-08 0.0161037
0.0410629 0 0.000105931 0.000857194
-0.0410629 1.35525e-20 0.000105838 0.0161035
0.0409965 6.77626e-21 0.00237824 0.000857186
-0.0409965 6.77626e-21 0.00237826 0.0161011
-0.0410275 0 0.00241502 0.0161017
0.0410275 0 0.00241502 0.000857191
-0.0410347 -2.03288e-20 0.00233955 0.016102
0.0410347 0 0.00233952 0.000857191
-0.0410708 6.77626e-21 0.0023814 0.0161021
0.0410708 0 0.00238138 0.000857198
-0.0411588 -1.35525e-20 8.62142e-08 0.0161059
0.0411588 -1.35525e-20 8.62085e-08 0.00085721
-0.0410901 -6.77626e-21 0.0024236 0.0161023
0.0410902 0 0.00242361 0.000857202
-0.0412374 -2.25875e-21 0.000638695 0.0161075
0.0412374 4.51751e-21 0.000639091 0.000857219
-0.0412319 0 0.00177406 0.0161066
0.041232 0 0.00177433 0.000857217
-0.0412814 1.35525e-20 7.69686e-08 0.0161088
0.0412815 0 7.69596e-08 0.00085723
-0.0412864 0 0.000114574 0.0161089
0.0412864 -1.35525e-20 0.000114681 0.00085723
-0.0412719 -2.71051e-20 0.00123079 0.0161096
0.041272 -2.71051e-20 0.00123128 0.000857223
-0.0414111 -2.25875e-21 0.00202219 0.0161075
0.0414112 0 0.00202236 0.000857242
-0.0414655 -2.71051e-21 0.00100479 0.0161117
0.0414656 5.42101e-21 0.00100527 0.000857252
0.0414387 6.77626e-21 0.00247143 0.000857257
-0.0414387 0 0.00247142 0.0161104
-0.0415231 1.35525e-20 0.000300335 0.0161141
0.0415231 -1.35525e-20 0.000300526 0.000857266
0.0414667 0 0.00241974 0.000857259
-0.0414667 0 0.00241973 0.0161115
-0.0415317 4.51751e-21 0.00151516 0.0161136
0.0415317 -6.77626e-21 0.0015155 0.000857267
-0.0415257 0 0.00236274 0.0161138
0.0415258 6.77626e-21 0.00236276 0.000857269
-0.0415358 2.03288e-20 0.00248474 0.0161141
0.0415358 6.77626e-21 0.00248475 0.000857272
-0.0417744 -6.77626e-21 8.98208e-05 0.016121
0.0417745 0 8.98629e-05 0.000857315
-0.0417779 -6.77626e-21 6.56267e-09 0.0161211
0.041778 0 6.55901e-09 0.000857316
-0.0418022 0 0.000615402 0.0161216
0.0418022 -2.25875e-21 0.000615762 0.000857325
-0.0417906 -2.71051e-20 0.00186249 0.016119
0.0417906 2.71051e-20 0.00186269 0.00085732
-0.0417567 6.77626e-21 0.00251504 0.0161254
0.0417567 2.03288e-20 0.00251505 0.000857305
-0.0417893 7.52918e-22 0.0022836 0.0161253
0.0417893 -1.50584e-21 0.00228367 0.000857307
-0.0418476 6.77626e-21 0.00117393 0.0161209
0.0418476 -2.25875e-21 0.00117434 0.000857333
-0.0418763 1.35525e-20 -1.15002e-09 0.0161238
0.0418764 0 -1.15404e-09 0.000857335
-0.0419536 1.35525e-20 8.50389e-05 0.0161259
0.0419536 0 8.50569e-05 0.00085735
-0.0419539 0 -1.03272e-09 0.0161259
0.041954 -1.35525e-20 -1.0365e-09 0.000857349
0.0419533 0 0.00254202 0.00085735
-0.0419533 1.35525e-20 0.00254201 0.0161243
-0.0419887 -1.35525e-20 0.0019478 0.0161272
0.0419887 0 0.00194795 0.000857354
-0.0420605 -4.51751e-21 0.00226453 0.0161272
0.0420605 0 0.00226459 0.000857369
-0.042061 0 0.00250113 0.0161263
0.042061 1.35525e-20 0.00250114 0.000857369
-0.0421378 0 0.000921112 0.0161296
0.0421378 4.06576e-20 0.000921356 0.000857398
-0.0420718 6.77626e-21 0.00255827 0.0161263
0.0420718 6.77626e-21 0.00255827 0.000857371
0.0421546 0 0.000313421 0.000857396
-0.0421546 -2.71051e-20 0.000313301 0.0161327
-0.0421336 -4.51751e-21 0.0016375 0.0161264
0.0421336 -1.35525e-20 0.00163769 0.00085739
-0.0421793 -6.77626e-21 0.002247 0.0161276
0.0421793 6.77626e-21 0.00224705 0.000857395
0.0423852 6.77626e-21 6.66393e-05 0.000857432
-0.0423852 0 6.66078e-05 0.0161392
-0.0423913 0 1.33679e-09 0.0161394
0.0423913 0 1.33598e-09 0.000857433
-0.0423173 0 0.00259195 0.0161328
0.0423174 -6.77626e-21 0.00259196 0.000857414
-0.0423622 1.35525e-20 0.00253137 0.0161344
0.0423623 0 0.00253138 0.000857422
0.0424524 0 1.43798e-09 0.000857444
-0.0424524 -6.77626e-21 1.43857e-09 0.0161413
-0.0424509 1.12938e-21 0.000611632 0.0161406
0.0424509 1.12938e-21 0.000611739 0.000857444
-0.042444 2.25875e-21 0.00122872 0.0161389
0.0424441 4.51751e-21 0.00122884 0.000857444
-0.0425171 6.77626e-21 1.31915e-09 0.0161431
0.0425171 0 1.31866e-09 0.000857455
-0.0425183 0 6.48504e-05 0.0161431
0.0425183 0 6.48584e-05 0.000857455
-0.0424587 -3.38813e-21 0.00227178 0.0161393
0.0424587 -3.38813e-21 0.00227182 0.00085744
-0.0424457 0 0.00260956 0.0161385
0.0424458 -1.35525e-20 0.00260957 0.000857437
-0.0424966 -4.51751e-21 0.00189079 0.0161421
0.0424967 -9.03502e-21 0.00189085 0.000857447
-0.0425605 -1.35525e-20 0.00254401 0.0161435
0.0425605 -1.35525e-20 0.00254402 0.000857456
-0.0426002 -6.77626e-21 0.00263076 0.0161457
0.0426003 1.35525e-20 0.00263076 0.000857462
0.0427577 2.71051e-20 0.000308577 0.000857492
-0.0427577 0 0.000308578 0.0161499
-0.042762 0 0.00092253 0.0161507
0.042762 2.71051e-20 0.000922525 0.000857491
-0.042748 1.35525e-20 0.00216861 0.0161503
0.0427481 0 0.00216862 0.00085749
-0.0427408 -4.06576e-20 0.00240953 0.0161515
0.0427408 0 0.00240953 0.000857488
-0.0428416 5.42101e-21 0.00164355 0.016154
0.0428416 1.35525e-20 0.00164354 0.000857503
-0.0428297 0 0.00266224 0.0161547
0.0428297 2.71051e-20 0.00266224 0.0008575
0.0429615 0 5.93011e-11 0.000857522
-0.0429615 0 5.79639e-11 0.0161555
-0.0428847 0 0.00256824 0.0161561
0.0428847 -1.35525e-20 0.00256825 0.000857509
0.0429621 -1.35525e-20 9.52028e-05 0.000857522
-0.0429622 1.35525e-20 9.51811e-05 0.0161555
-0.0429936 5.80823e-21 0.00192518 0.0161574
0.0429937 -3.87215e-21 0.00192513 0.000857522
-0.0430551 0 -1.06622e-10 0.0161581
0.0430551 0 -1.05152e-10 0.000857536
0.0430752 4.51751e-21 0.000610558 0.000857537
-0.0430752 -6.77626e-21 0.000610657 0.016159
0.0430107 1.35525e-20 0.00268706 0.000857529
-0.0430107 -1.35525e-20 0.00268706 0.0161597
-0.0430775 2.25875e-21 0.00123361 0.0161605
0.0430775 0 0.00123349 0.000857537
-0.0430372 -2.25875e-21 0.00230972 0.0161593
0.0430373 2.25875e-21 0.00230971 0.000857534
-0.0431637 0 1.5382e-11 0.0161611
0.0431637 0 1.67288e-11 0.000857553
-0.0431652 1.35525e-20 0.000103815 0.0161611
0.0431652 0 0.000103811 0.000857553
0.0432457 -1.35525e-20 0.00271928 0.000857568
-0.0432458 6.77626e-21 0.00271929 0.0161664
0.0433794 -2.71051e-20 0.000307824 0.000857584
-0.0433795 0 0.000307922 0.0161667
-0.0433141 4.51751e-21 0.00255689 0.0161674
0.0433141 9.03502e-21 0.00255689 0.000857578
-0.0433486 -2.25875e-20 0.00207031 0.0161677
0.0433486 -9.03502e-21 0.00207025 0.000857583
0.0433928 -2.71051e-20 0.000922169 0.000857582
-0.0433928 -2.71051e-20 0.000922361 0.016169
-0.043354 -2.71051e-20 0.00273413 0.0161689
0.043354 2.03288e-20 0.00273414 0.000857585
-0.0434187 4.51751e-21 0.0016019 0.0161709
0.0434187 6.77626e-21 0.00160173 0.00085759
0.0435473 0 9.019e-10 0.00085761
-0.0435473 -1.35525e-20 9.01633e-10 0.0161711
0.0435506 0 0.000132384 0.00085761
-0.0435506 0 0.00013241 0.0161712
-0.0436835 2.71051e-20 1.03606e-09 0.0161746
0.0436835 -2.71051e-20 1.03617e-09 0.000857631
0.0436251 2.11758e-22 0.00235498 0.000857626
-0.0436252 2.11758e-22 0.00235502 0.0161731
0.0436012 2.71051e-20 0.00276801 0.000857625
-0.0436012 0 0.00276801 0.0161722
0.0436982 -4.51751e-21 0.000607493 0.000857631
-0.0436983 0 0.000607717 0.0161757
0.0436672 0 0.00190306 0.000857629
-0.0436672 -2.71051e-20 0.0019032 0.0161753
0.0436479 0 0.00235467 0.00085763
-0.0436535 0 0.00235493 0.0161736
0.0437002 -9.03502e-21 0.00112951 0.00085763
-0.0437002 4.51751e-21 0.0011298 0.016177
-0.0436555 -2.11758e-22 0.00236095 0.0161738
0.0436555 2.11758e-22 0.00236091 0.000857631
0.0438316 -2.71051e-20 0.000140387 0.000857654
-0.0438317 0 0.000140437 0.0161786
-0.0438324 1.35525e-20 1.26291e-09 0.0161787
0.0438324 1.35525e-20 1.263e-09 0.000857655
0.044004 0 0.000302869 0.00085768
-0.044004 -1.35525e-20 0.000303007 0.0161829
0.0439928 0 0.00156096 0.00085768
-0.0439928 2.25875e-21 0.00156117 0.0161849
-0.0439354 -6.77626e-21 0.00281381 0.01618
0.0439354 -2.5411e-20 0.00281382 0.000857679
-0.0439809 -4.51751e-21 0.00211391 0.0161822
0.0439809 -1.807e-20 0.00211382 0.000857681
-0.0439531 -1.69407e-21 0.00279275 0.0161804
0.0439531 3.38813e-21 0.0027928 0.000857682
-0.043961 -1.69407e-21 0.00281732 0.0161806
0.043961 0 0.00281732 0.000857684
-0.0440043 2.25875e-21 0.0025931 0.0161818
0.0440043 0 0.00259309 0.000857689
0.0440988 0 0.00101219 0.000857695
-0.0440988 -8.13152e-21 0.0010125 0.0161861
0.0441598 2.71051e-20 2.36366e-09 0.000857707
-0.0441598 0 2.3638e-09 0.0161874
0.0441637 0 0.000147457 0.000857707
-0.0441637 0 0.000147511 0.0161874
-0.0443161 0 2.58835e-09 0.0161915
0.0443161 -1.35525e-20 2.58819e-09 0.000857732
0.0443172 -9.03502e-21 0.000604412 0.000857731
-0.0443172 4.51751e-21 0.000604657 0.0161916
0.0442814 -5.42101e-20 0.00191676 0.000857728
-0.0442814 -2.71051e-20 0.00191692 0.016189
0.0443137 2.71051e-20 0.00123266 0.000857731
-0.0443137 0 0.00123298 0.0161902
-0.0442645 2.71051e-20 0.00285891 0.0161885
0.0442646 2.71051e-20 0.00285892 0.000857731
0.0443414 -4.51751e-21 0.00231325 0.00085774
-0.0443414 -4.51751e-21 0.00231331 0.0161905
-0.0444716 0 0.000150042 0.0161959
0.0444716 -2.71051e-20 0.000150001 0.000857757
-0.0444749 -1.35525e-20 2.3549e-09 0.016196
0.0444749 1.35525e-20 2.35475e-09 0.000857758
0.0445335 1.89735e-20 0.00101154 0.000857766
-0.0445335 1.0842e-20 0.00101185 0.0161962
-0.0445227 9.03502e-21 0.00155722 0.0161924
0.0445227 -9.03502e-21 0.00155701 0.000857765
-0.0445478 -2.71051e-20 0.00210098 0.0161935
0.0445478 2.71051e-21 0.00210088 0.000857773
-0.0445257 -1.35525e-20 0.00289471 0.0161972
0.0445258 -3.38813e-20 0.00289472 0.000857776
0.0446295 0 0.000304347 0.000857784
-0.0446295 -1.35525e-20 0.000304461 0.0162003
-0.044594 0 0.00278583 0.0161993
0.044594 0 0.00278588 0.000857786
-0.0446261 0 0.00264116 0.0162
0.0446261 -2.25875e-21 0.00264114 0.000857788
0.0446645 0 0.00291372 0.000857798
-0.0446646 -6.77626e-21 0.00291373 0.0162013
0.0447808 1.35525e-20 1.63152e-09 0.000857807
-0.0447808 1.35525e-20 1.63155e-09 0.0162046
0.0447854 0 0.00015027 0.000857807
-0.0447855 1.35525e-20 0.000150312 0.0162047
-0.0449405 0 1.3988e-09 0.016209
0.0449405 1.35525e-20 1.39877e-09 0.000857832
0.044942 2.25875e-21 0.000602417 0.000857832
-0.044942 -4.51751e-21 0.00060259 0.0162088
0.0449381 -6.77626e-21 0.00123202 0.000857832
-0.0449382 -9.03502e-21 0.00123223 0.0162073
0.0449431 -4.51751e-21 0.00185203 0.000857834
-0.0449431 0 0.00185217 0.0162074
0.0449492 -4.51751e-21 0.00232791 0.000857835
-0.0449492 0 0.00232797 0.0162088
0.0449214 -1.35525e-20 0.00294893 0.000857836
-0.0449214 0 0.00294893 0.0162087
-0.0451017 -1.35525e-20 1.29463e-09 0.0162135
0.0451017 0 1.2946e-09 0.000857856
-0.0450995 0 0.00297331 0.0162175
0.0450995 -2.03288e-20 0.00297331 0.000857858
-0.045251 9.03502e-21 0.000202824 0.0162176
0.045251 9.03502e-21 0.000202783 0.000857878
0.0452595 0 0.000915145 0.000857879
-0.0452595 0 0.000915292 0.0162181
0.045262 0 0.00154673 0.000857881
-0.045262 0 0.00154687 0.0162193
0.0452616 0 0.00214816 0.000857882
-0.0452617 0 0.00214823 0.0162199
0.0452367 2.25875e-21 0.00269257 0.000857876
-0.0452367 0 0.00269258 0.0162235
0.0453935 0 1.00959e-09 0.000857899
-0.0453935 0 1.00963e-09 0.0162216
0.0453384 0 0.00300597 0.000857896
-0.0453384 0 0.00300597 0.0162233
-0.045559 -1.35525e-20 9.03952e-10 0.0162258
0.045559 -2.71051e-20 9.03906e-10 0.000857924
0.0455698 2.25875e-21 0.000598369 0.000857924
-0.0455698 0 0.000598452 0.0162261
0.045574 -1.35525e-20 0.00122571 0.000857925
-0.045574 9.03502e-21 0.00122582 0.0162271
-0.0454949 4.06576e-20 0.00302739 0.0162236
0.0454949 0 0.00302739 0.000857924
0.045575 0 0.00186033 0.000857927
-0.045575 -4.51751e-21 0.0018604 0.0162277
0.0455636 9.03502e-21 0.00235679 0.000857927
-0.0455636 -9.03502e-21 0.00235682 0.016227
-0.0456185 1.35525e-20 0.00304441 0.0162242
0.0456185 6.77626e-21 0.00304441 0.000857944
-0.0457296 0 8.66649e-10 0.0162303
0.0457296 0 8.66605e-10 0.000857948
-0.0458748 0 0.000203876 0.0162341
0.0458748 9.03502e-21 0.000203862 0.000857968
0.0458876 -2.71051e-20 0.000909899 0.000857971
-0.0458876 0 0.000909967 0.0162344
-0.0458326 -2.71051e-21 0.00274325 0.0162277
0.0458326 3.16226e-21 0.00274325 0.000857971
0.0458898 0 0.00154847 0.000857972
-0.0458898 0 0.00154853 0.016237
0.0458888 0 0.00217764 0.000857974
-0.0458889 2.71051e-20 0.00217767 0.0162348
-0.0458626 -6.77626e-21 0.00307837 0.0162304
0.0458626 -1.35525e-20 0.00307837 0.000857978
0.0460115 -1.35525e-20 7.57524e-10 0.000857987
-0.0460115 2.71051e-20 7.57548e-10 0.0162378
-0.0459673 -6.77626e-21 0.0030928 0.0162346
0.0459674 1.35525e-20 0.0030928 0.000857991
-0.0461847 0 7.198e-10 0.0162423
0.0461847 0 7.19779e-10 0.000858011
-0.0461957 6.77626e-21 0.000591487 0.0162424
0.0461957 2.25875e-21 0.000591455 0.000858012
0.0462006 -6.77626e-21 0.00122009 0.000858014
-0.0462006 2.25875e-21 0.00122013 0.0162434
0.0462019 0 0.00186862 0.000858018
-0.0462019 -6.77626e-21 0.00186864 0.0162429
-0.0461655 -6.77626e-21 0.00312126 0.0162467
0.0461656 -2.03288e-20 0.00312127 0.000858008
-0.0461939 -1.35525e-20 0.00295331 0.0162456
0.0461939 0 0.00295328 0.000858012
-0.0462707 2.25875e-21 0.00256437 0.0162444
0.0462707 -4.51751e-21 0.00256437 0.000858027
-0.0463595 -2.71051e-20 6.73842e-10 0.0162471
0.0463595 2.71051e-20 6.73822e-10 0.000858035
-0.0463949 3.38813e-21 0.00315229 0.0162448
0.046395 0 0.0031523 0.000858054
-0.046506 0 0.000199294 0.0162512
0.046506 1.807e-20 0.000199294 0.000858055
0.0465144 0 0.000898641 0.000858056
-0.0465144 0 0.000898665 0.0162504
0.0465158 2.71051e-20 0.00154147 0.00085806
-0.0465158 0 0.00154149 0.0162524
0.0464366 3.38813e-21 0.00315806 0.000858061
-0.0464366 3.38813e-21 0.00315806 0.0162449
0.0464514 -6.77626e-21 0.0031144 0.000858064
-0.0464514 0 0.00311437 0.0162448
0.0465218 2.71051e-20 0.00218627 0.000858067
-0.0465218 2.71051e-20 0.00218628 0.0162476
0.0466484 1.35525e-20 5.2382e-10 0.000858075
-0.0466484 2.71051e-20 5.23805e-10 0.0162552
-0.0466132 9.03502e-21 0.00290744 0.0162468
0.0466132 2.25875e-21 0.00290743 0.00085808
-0.0468205 -2.71051e-20 4.77071e-10 0.0162603
0.0468205 0 4.77088e-10 0.000858098
-0.0468261 -9.03502e-21 0.00058046 0.0162604
0.0468261 -2.25875e-21 0.000580448 0.000858099
0.0467233 0 0.00319817 0.000858105
-0.0467234 0 0.00319819 0.0162544
0.0468292 -6.77626e-21 0.00120515 0.000858101
-0.0468292 -6.77626e-21 0.00120516 0.0162605
0.0468326 -6.77626e-21 0.00185915 0.000858107
-0.0468326 -9.03502e-21 0.00185916 0.0162603
-0.0468472 1.0842e-20 0.00253599 0.0162615
0.0468472 -9.03502e-22 0.00253598 0.000858113
0.0468396 -1.69407e-21 0.00321454 0.000858123
-0.0468396 0 0.00321454 0.0162576
0.0468444 0 0.00320755 0.000858124
-0.0468444 0 0.00320756 0.0162578
0.0468557 0 0.00318854 0.000858125
-0.0468557 1.69407e-21 0.00318856 0.0162585
0.0468539 -1.69407e-21 0.00321654 0.000858125
-0.0468539 0 0.00321653 0.0162584
-0.0468678 0 0.00320873 0.0162591
0.0468679 0 0.00320873 0.000858127
-0.0468728 3.38813e-21 0.00321918 0.0162594
0.0468729 1.69407e-21 0.00321918 0.000858128
-0.0469903 -1.35525e-20 4.262e-10 0.0162658
0.0469903 -1.35525e-20 4.26209e-10 0.000858122
0.0470012 0 0.00293207 0.000858144
-0.0470012 0 0.00293208 0.0162656
0.0471425 -9.03502e-21 0.000190384 0.000858143
-0.0471425 0 0.000190377 0.0162704
0.0471463 2.71051e-20 0.000881282 0.000858143
-0.0471463 0 0.000881291 0.0162699
-0.0471461 5.42101e-20 0.00152023 0.0162694
0.0471461 -2.71051e-20 0.00152022 0.000858146
-0.047153 -2.71051e-20 0.00216928 0.0162723
0.047153 0 0.00216927 0.000858155
-0.0471472 -6.77626e-21 0.00293418 0.0162716
0.0471473 6.77626e-21 0.00293418 0.000858166
0.0472953 0 2.46098e-10 0.000858164
-0.0472954 0 2.46072e-10 0.0162748
-0.0474624 0 1.94602e-10 0.0162796
0.0474624 2.71051e-20 1.9462e-10 0.000858187
-0.04735 0 0.00328627 0.0162805
0.0473501 6.77626e-21 0.00328627 0.000858194
-0.0474636 -6.77626e-21 0.000567332 0.0162799
0.0474636 -4.51751e-21 0.000567326 0.000858187
-0.0474647 -2.25875e-21 0.00118521 0.0162801
0.0474647 0 0.0011852 0.000858188
-0.0473731 -6.77626e-21 0.0032485 0.016281
0.0473732 6.77626e-21 0.0032485 0.000858197
0.0474651 6.77626e-21 0.00184525 0.000858194
-0.0474651 2.25875e-21 0.00184525 0.0162818
-0.0474588 2.25875e-21 0.0025184 0.0162825
0.0474588 4.51751e-21 0.00251839 0.0008582
-0.047445 9.03502e-21 0.00290027 0.0162813
0.047445 -1.35525e-20 0.00290027 0.000858205
-0.0474338 -6.77626e-21 0.00316339 0.0162821
0.0474339 0 0.00316339 0.000858205
-0.0474249 -6.77626e-21 0.00329671 0.0162828
0.047425 0 0.00329671 0.000858204
-0.0474931 0 0.00325556 0.0162848
0.0474932 -6.77626e-21 0.00325557 0.000858213
-0.0476306 -1.35525e-20 1.68213e-10 0.0162848
0.0476307 0 1.68224e-10 0.000858211
-0.0475218 1.35525e-20 0.00331024 0.016286
0.0475219 0 0.00331024 0.000858217
-0.0477792 4.51751e-21 0.000187403 0.016289
0.0477792 9.03502e-21 0.000187413 0.000858232
-0.0477829 0 0.000865681 0.0162902
0.0477829 0 0.000865674 0.00085823
-0.0477845 -2.71051e-20 0.00150006 0.016291
0.0477845 -2.71051e-20 0.00150006 0.000858234
0.0477786 0 0.00217088 0.000858239
-0.0477786 -2.71051e-20 0.00217088 0.0162951
-0.0477468 2.03288e-20 0.00297912 0.0162907
0.0477468 0 0.00297912 0.000858247
0.0479279 1.35525e-20 8.46695e-11 0.000858253
-0.0479279 1.35525e-20 8.46536e-11 0.016293
-0.0478854 -6.77626e-21 0.00336132 0.0162944
0.0478855 0 0.00336133 0.000858269
-0.0479336 0 0.00329264 0.0162947
0.0479336 -1.35525e-20 0.00329266 0.000858276
-0.0481015 0 5.87263e-11 0.016297
0.0481015 -2.71051e-20 5.87356e-11 0.000858277
-0.0481016 4.51751e-21 0.0005569 0.0162982
0.0481016 4.51751e-21 0.000556895 0.000858275
0.0481005 -6.77626e-21 0.00117221 0.000858275
-0.0481005 -4.51751e-21 0.00117222 0.0162991
0.0480954 6.77626e-21 0.00184355 0.000858278
-0.0480954 6.77626e-21 0.00184355 0.0163007
0.0480213 1.35525e-20 0.00338025 0.00085829
-0.0480213 -1.35525e-20 0.00338025 0.0162952
-0.0480779 2.25875e-21 0.00254399 0.0162984
0.0480779 2.25875e-21 0.00254399 0.000858284
-0.0480529 6.77626e-21 0.00300489 0.0162953
0.048053 7.90564e-21 0.0030049 0.00085829
0.0481626 -1.35525e-20 0.00330784 0.000858308
-0.0481626 -2.71051e-20 0.00330782 0.0162977
-0.0482805 0 5.28162e-11 0.0163021
0.0482805 2.71051e-20 5.28235e-11 0.000858304
0.048225 0 0.00340842 0.000858317
-0.048225 6.77626e-21 0.00340843 0.0162991
-0.0484142 1.35525e-20 0.000191539 0.0163057
0.0484142 4.51751e-21 0.000191549 0.000858323
-0.048417 0 0.000858073 0.0163074
0.048417 -2.71051e-20 0.000858069 0.000858315
0.0484147 -2.71051e-20 0.00149607 0.000858319
-0.0484147 2.71051e-20 0.00149607 0.0163079
0.0484043 2.71051e-20 0.00218437 0.00085832
-0.0484043 -2.71051e-20 0.00218437 0.0163092
-0.0483708 -1.35525e-20 0.00290962 0.0162991
0.0483708 1.35525e-20 0.00290963 0.000858335
0.0485467 1.35525e-20 3.79329e-11 0.000858342
-0.0485467 0 3.79259e-11 0.0163092
-0.0484431 -6.77626e-21 0.00343873 0.0163037
0.0484431 -2.71051e-20 0.00343873 0.000858345
-0.0484639 2.71051e-21 0.00324791 0.0163025
0.048464 -2.71051e-21 0.00324792 0.000858346
0.0486839 2.25875e-21 0.000595694 0.000858356
-0.0486839 1.12938e-20 0.000595693 0.0163141
-0.048731 0 3.20742e-11 0.0163133
0.048731 2.71051e-20 3.20793e-11 0.000858368
0.04873 4.51751e-21 0.00116766 0.000858359
-0.04873 -6.77626e-21 0.00116766 0.0163153
0.0487228 4.51751e-21 0.00184437 0.000858363
-0.0487228 -6.77626e-21 0.00184437 0.0163116
-0.0486954 2.25875e-21 0.0025583 0.0163084
0.0486954 -9.03502e-21 0.0025583 0.000858366
0.0486808 0 0.00347157 0.000858377
-0.0486808 -2.71051e-20 0.00347157 0.0163078
-0.0487347 1.807e-21 0.00303833 0.0163093
0.0487348 -9.03502e-22 0.00303833 0.000858376
-0.0489189 1.35525e-20 2.84986e-11 0.0163195
0.0489189 1.35525e-20 2.85025e-11 0.000858396
-0.0490437 6.77626e-21 0.000282065 0.0163231
0.0490437 -2.25875e-21 0.000282066 0.000858412
-0.0490452 2.71051e-20 0.000856189 0.0163248
0.0490452 -2.71051e-20 0.000856191 0.000858401
0.0490418 0 0.0014945 0.000858404
-0.0490419 0 0.00149449 0.0163211
-0.0490331 -2.71051e-20 0.00217903 0.0163087
0.0490331 0 0.00217904 0.00085841
0.0489629 -6.77626e-21 0.00351064 0.000858417
-0.048963 3.72694e-20 0.00351064 0.0163136
-0.0490668 -2.71051e-20 0.00277894 0.0163161
0.0490668 -2.71051e-20 0.00277894 0.000858415
-0.0490412 4.51751e-21 0.00333027 0.0163163
0.0490412 4.51751e-21 0.00333029 0.000858422
-0.0490309 1.01644e-20 0.00352007 0.0163159
0.049031 6.77626e-21 0.00352008 0.000858425
0.0491635 -2.71051e-20 1.98058e-11 0.000858429
-0.0491635 0 1.98029e-11 0.0163263
-0.049353 0 1.62508e-11 0.0163302
0.049353 -2.71051e-20 1.62524e-11 0.000858453
0.0493564 -4.51751e-21 0.000636932 0.000858445
-0.0493564 0 0.000636922 0.0163329
0.0493563 4.51751e-21 0.00116575 0.000858442
-0.0493563 -6.77626e-21 0.00116574 0.0163319
0.0493524 4.51751e-21 0.00183764 0.000858446
-0.0493524 0 0.00183764 0.0163271
-0.0493586 -3.38813e-21 0.0024901 0.0163259
0.0493586 -1.12938e-21 0.0024901 0.000858452
-0.0493666 0 0.00305989 0.0163292
0.0493666 -1.12938e-21 0.00305989 0.000858458
-0.0493403 0 0.00356289 0.0163271
0.0493403 1.35525e-20 0.0035629 0.000858463
-0.0495418 0 1.40423e-11 0.0163368
0.0495418 -1.35525e-20 1.40435e-11 0.000858479
-0.0496167 6.77626e-21 0.000238625 0.0163391
0.0496167 6.77626e-21 0.000238631 0.000858487
-0.0496687 0 0.000855711 0.0163424
0.0496687 2.71051e-20 0.000855725 0.000858481
0.0496679 2.71051e-20 0.00149257 0.000858483
-0.0496679 -2.71051e-20 0.00149255 0.0163395
-0.0496675 0 0.00216349 0.0163393
0.0496675 -2.71051e-20 0.0021635 0.000858488
-0.0496049 6.77626e-21 0.00359927 0.0163455
0.0496049 6.77626e-21 0.00359927 0.000858488
-0.0496694 -2.71051e-20 0.00278151 0.0163388
0.0496694 0 0.00278153 0.000858496
-0.0496485 -9.03502e-21 0.00336928 0.0163471
0.0496486 4.51751e-21 0.0033693 0.000858492
-0.0496411 6.77626e-21 0.00354774 0.0163483
0.0496412 0 0.0035478 0.000858491
0.0497814 -2.71051e-20 8.64185e-12 0.000858508
-0.0497814 0 8.64103e-12 0.0163433
0.0496784 3.38813e-21 0.00360933 0.000858497
-0.0496784 0 0.00360934 0.0163485
-0.0499694 0 6.43123e-12 0.0163469
0.0499694 -2.71051e-20 6.43156e-12 0.000858529
0.0499758 -2.25875e-21 0.000549195 0.000858524
-0.0499758 0 0.000549187 0.0163497
-0.0499801 2.25875e-21 0.00116474 0.0163497
0.0499801 7.90564e-21 0.00116476 0.00085852
-0.04998 -3.38813e-21 0.00183424 0.0163491
0.04998 -1.12938e-21 0.00183425 0.000858523
-0.0499303 -3.38813e-21 0.00305445 0.016351
0.0499303 -1.12938e-21 0.00305446 0.000858526
0.0499773 2.25875e-21 0.00249451 0.000858529
-0.0499773 0 0.00249451 0.0163493
-0.0499341 0 0.00364445 0.016352
0.0499341 -1.35525e-20 0.00364445 0.000858531
-0.0501533 1.35525e-20 5.60885e-12 0.0163533
0.0501533 1.35525e-20 5.60909e-12 0.000858552
-0.0501266 -2.03288e-20 0.00367073 0.0163595
0.0501266 -6.77626e-21 0.00367074 0.000858552
-0.0502798 9.03502e-21 0.000191907 0.0163564
0.0502798 4.51751e-21 0.000191915 0.000858565
-0.0502885 2.71051e-20 0.000854527 0.0163601
0.0502885 2.71051e-20 0.000854547 0.000858557
-0.0502913 -2.71051e-20 0.00149208 0.0163569
0.0502913 -2.71051e-20 0.00149211 0.000858559
-0.0502885 -2.71051e-20 0.00217028 0.0163609
0.0502885 0 0.0021703 0.000858562
0.0502797 -5.42101e-20 0.00280467 0.000858571
-0.0502797 2.71051e-20 0.00280466 0.016358
-0.0502469 1.35525e-21 0.00336928 0.0163633