# U  POINT_DATA 33912
# x  y  z  U_x  U_y  U_z
0.0386366 6.77626e-21 9.33814e-08 0 0 0
-0.0386366 -6.77626e-21 9.33814e-08 0 0 0
-0.0386366 0 0.000236766 0 0 0
0.0386366 -3.38813e-21 0.000236754 0 0 0
-0.0386365 -1.69407e-21 0.000428699 0 0 0
0.0386365 1.69407e-21 0.000428676 0 0 0
-0.0386365 -3.38813e-21 0.000666556 0 0 0
0.0386365 -6.77626e-21 0.000666521 0 0 0
-0.0386364 -1.69407e-21 0.000917399 0 0 0
0.0386364 -1.69407e-21 0.000917369 0 0 0
-0.0386364 -1.69407e-21 0.00111073 0 0 0
0.0386364 0 0.00111069 0 0 0
-0.0386364 0 0.00136165 0 0 0
0.0386364 6.77626e-21 0.00136161 0 0 0
-0.0386364 0 0.00162089 0 0 0
0.0386364 5.0822e-21 0.00162088 0 0 0
-0.0386365 0 0.00182904 0 0 0
0.0386365 1.69407e-21 0.00182903 0 0 0
0.0386365 6.77626e-21 0.002087 0 0 0
-0.0386365 -6.77626e-21 0.002087 0 0 0
-0.0387133 -6.77626e-21 0.000334786 0.000244864 -6.4751e-05 1.05503e-06
0.0387133 0 0.000334769 -1.00678e-06 2.7451e-07 9.76032e-08
0.0387145 -6.77626e-21 0.00100945 -1.29237e-06 3.60681e-07 8.17036e-08
-0.0387145 3.38813e-21 0.00100948 0.000517466 -0.000151206 3.06173e-06
0.0387157 3.38813e-21 0.00170741 -1.26273e-06 3.3296e-07 -2.38177e-07
-0.0387157 3.38813e-21 0.00170743 0.00049433 -0.00014634 2.61441e-05
0.0388933 1.35525e-20 9.83892e-05 -3.37032e-06 9.1896e-07 3.2674e-07
-0.0388934 -2.03288e-20 9.8385e-05 0.000819775 -0.000216778 3.53212e-06
0.0388944 -6.77626e-21 8.11405e-08 0 0 0
-0.0388944 -6.77626e-21 8.11392e-08 0 0 0
0.038896 1.35525e-20 0.000773192 -4.29574e-06 1.19888e-06 2.71577e-07
-0.038896 6.77626e-21 0.000773227 0.00171996 -0.00050258 1.01766e-05
0.0389003 -1.35525e-20 0.000556945 -3.46061e-06 9.43577e-07 3.35493e-07
-0.0389003 0 0.000556978 0.000841742 -0.000222587 3.62677e-06
0.0388961 -1.35525e-20 0.00122361 -4.29915e-06 1.19983e-06 2.71793e-07
-0.0388961 -6.77626e-21 0.00122365 0.00172135 -0.000502987 1.01848e-05
-0.0388903 -1.35525e-20 0.00145595 0.00158275 -0.000468554 8.37086e-05
0.0388903 0 0.00145592 -4.04324e-06 1.06613e-06 -7.62637e-07
-0.0388845 0 0.00190647 0.00154612 -0.000457709 8.17711e-05
0.0388845 6.77626e-21 0.00190644 -3.94973e-06 1.04147e-06 -7.44999e-07
-0.0389211 -1.35525e-20 0.00212604 0 0 0
0.0389211 1.35525e-20 0.00212604 0 0 0
-0.03898 0 7.37425e-08 0 0 0
0.03898 0 7.3742e-08 0 0 0
-0.0389877 0 0.000656511 0.00163731 -0.000461931 1.71814e-05
0.0389877 -6.77626e-21 0.000656454 -3.09235e-06 8.23786e-07 1.30415e-08
-0.0389501 0 0.00204928 0.00116007 -0.000390151 6.32171e-05
0.0389501 1.35525e-20 0.00204927 -3.69923e-06 1.26886e-06 -3.87342e-08
0.0389855 6.77626e-21 0.00132191 -2.65247e-06 6.06605e-07 -3.84558e-08
-0.0389855 0 0.00132198 0.00232439 -0.000656352 4.10011e-05
0.0389857 -6.77626e-21 0.00196118 -2.98655e-06 8.56921e-07 -3.64103e-08
-0.0389857 6.77626e-21 0.00196122 0.00195804 -0.000567795 5.77199e-05
-0.0390408 -6.77626e-21 0.00214247 0 0 0
0.0390408 6.77626e-21 0.00214247 0 0 0
-0.0390834 6.77626e-21 0.00203104 0.0017172 -0.00047198 3.81084e-05
0.0390834 -6.77626e-21 0.00203102 -5.78169e-06 1.88515e-06 4.79329e-07
-0.0391899 5.0822e-21 7.98183e-08 0 0 0
0.0391899 -8.47033e-21 7.98187e-08 0 0 0
-0.0392186 1.05879e-22 0.000973966 0.00389573 -0.000923269 0.000144874
0.039217 0 0.000971787 -9.53225e-06 2.10995e-06 -3.19016e-07
0.0392186 0 0.000993521 -9.50933e-06 2.11908e-06 -3.04211e-07
-0.0392186 0 0.000993748 0.00388603 -0.000920461 0.000141134
-0.0392339 1.12938e-22 0.000322247 0.00203415 -0.000498037 4.77561e-05
0.0392339 -3.38813e-22 0.000322224 -8.48677e-06 2.42258e-06 -1.45716e-07
0.0392124 9.41148e-23 0.00160285 -8.15301e-06 2.28323e-06 1.74931e-07
-0.0392124 2.82344e-22 0.0016029 0.00346435 -0.000834191 1.46047e-05
0.0392589 1.01644e-20 8.17933e-08 0 0 0
-0.0392589 -2.37169e-20 8.17941e-08 0 0 0
-0.0392358 3.38813e-21 0.00211246 0.000830948 -0.00022839 1.84405e-05
0.0392358 -1.01644e-20 0.00211246 -2.79736e-06 9.12097e-07 2.31914e-07
-0.0392408 1.35525e-20 0.0021699 0 0 0
0.0392408 3.38813e-21 0.00216991 0 0 0
-0.0393079 0 0.00200293 0.00257955 -0.000709002 5.72459e-05
0.0393079 0 0.00200291 -8.68518e-06 2.83186e-06 7.20042e-07
0.0393994 1.35525e-20 0.00128732 -6.71797e-06 1.89103e-06 -1.02119e-08
-0.0393994 -1.35525e-20 0.00128736 0.00449779 -0.00121083 4.59733e-05
0.0394321 1.35525e-20 0.000662255 -7.52303e-06 2.11006e-06 -2.65899e-07
-0.0394321 -1.35525e-20 0.000662293 0.00359741 -0.000928711 5.34103e-05
-0.0393782 2.71051e-20 0.00218876 0 0 0
0.0393783 0 0.00218876 0 0 0
0.0394171 1.35525e-20 0.00182881 -7.31052e-06 2.1993e-06 3.1548e-07
-0.0394171 0 0.00182885 0.00414304 -0.00110281 1.292e-05
-0.0394765 0 8.81966e-08 0 0 0
0.0394765 -1.35525e-20 8.81971e-08 0 0 0
0.039636 -1.35525e-20 8.20127e-08 0 0 0
-0.039636 6.77626e-21 8.20112e-08 0 0 0
-0.0396081 -4.51751e-21 0.00155275 0.00529897 -0.00144177 1.14297e-05
0.0396081 -2.25875e-21 0.00155275 -1.27233e-05 3.07424e-06 3.93853e-07
-0.0395887 -6.77626e-21 0.00221763 0 0 0
0.0395887 -2.03288e-20 0.00221763 0 0 0
-0.0396657 -2.25875e-21 0.000926812 0.00563334 -0.0015075 1.00803e-05
0.0396657 -4.51751e-21 0.000926845 -1.42684e-05 3.35244e-06 -1.74872e-07
0.0396606 -6.77626e-21 0.00201754 -1.1033e-05 2.64119e-06 3.45218e-07
-0.0396606 0 0.00201754 0.00369939 -0.0010738 1.08546e-05
-0.0396602 -6.77626e-21 0.00213151 0.00169017 -0.000490596 4.95924e-06
0.0396602 0 0.00213151 -5.04101e-06 1.20677e-06 1.57731e-07
-0.0397186 0 0.000328044 0.00279781 -0.00074914 -7.18362e-06
0.0397186 3.38813e-21 0.000328061 -9.11479e-06 2.41978e-06 -1.51406e-07
-0.0397505 -6.77626e-21 0.00223983 0 0 0
0.0397506 6.77626e-21 0.00223983 0 0 0
-0.0398326 6.77626e-21 7.79286e-08 0 0 0
0.0398326 0 7.79286e-08 0 0 0
-0.0399409 5.64689e-21 0.0012628 0.00694822 -0.00188223 -3.02472e-05
0.0399409 -4.51751e-21 0.00126293 -1.72688e-05 4.89852e-06 3.42478e-08
-0.0399609 0 7.37241e-08 0 0 0
0.0399609 0 7.37245e-08 0 0 0
0.0399375 -2.25875e-21 0.0016998 -1.55996e-05 4.35397e-06 1.11702e-07
-0.0399375 0 0.00169972 0.00615065 -0.0016854 -1.89982e-05
-0.0399278 0 0.00226415 0 0 0
0.0399278 0 0.00226415 0 0 0
-0.0400201 6.77626e-21 0.000637232 0.00532219 -0.00145319 -3.06489e-05
0.0400201 0 0.000637359 -1.441e-05 4.16299e-06 4.56551e-08
-0.0400601 0 0.000117456 0.00098967 -0.000282798 -1.10271e-05
0.0400601 1.35525e-20 0.000117489 -3.57534e-06 1.01373e-06 1.17603e-07
0.0400609 0 7.18816e-08 0 0 0
-0.0400609 0 7.1881e-08 0 0 0
0.0400257 -1.35525e-20 0.00227757 0 0 0
-0.0400257 0 0.00227757 0 0 0
-0.0402355 0 0.000320268 0.00370695 -0.00103481 -3.64988e-05
0.0402356 -1.35525e-20 0.000320378 -1.1184e-05 3.1729e-06 3.79748e-07
-0.0402399 0 0.000958442 0.00817802 -0.00220719 -8.2116e-05
0.0402399 0 0.000958653 -1.98582e-05 5.91994e-06 1.74952e-07
0.0402362 0 0.0015669 -1.90237e-05 5.75398e-06 -2.24649e-07
-0.0402362 1.35525e-20 0.00156673 0.00822667 -0.0021997 -5.83997e-05
0.0402212 -3.38813e-21 0.00200607 -1.48176e-05 3.91513e-06 -5.11522e-07
-0.0402212 0 0.002006 0.00538914 -0.001495 1.28309e-05
-0.0404904 0 5.21452e-08 0 0 0
0.0404904 0 5.21452e-08 0 0 0
-0.0404915 -3.38813e-21 3.22757e-05 0.000271679 -7.76324e-05 -3.02711e-06
0.0404915 0 3.22702e-05 -9.81038e-07 2.78157e-07 3.22692e-08
-0.0405175 3.38813e-21 5.13595e-08 0 0 0
0.0405175 0 5.13599e-08 0 0 0
-0.0404556 0 0.00233656 0 0 0
0.0404556 1.52466e-20 0.00233656 0 0 0
-0.0404936 -7.52918e-22 0.00172666 0.00810494 -0.00217019 7.28905e-08
0.0404937 -7.52918e-22 0.00172685 -1.88792e-05 4.78531e-06 -7.28903e-07
0.0405368 0 5.18925e-08 0 0 0
-0.0405368 0 5.18925e-08 0 0 0
0.0405375 0 2.05856e-05 -6.37418e-07 2.08077e-07 4.51755e-08
-0.0405375 -3.38813e-21 2.05864e-05 0.000188171 -5.48878e-05 1.19086e-06
-0.0405369 2.03288e-20 0.000628538 0.00671764 -0.00181703 -4.75971e-05
0.040537 -1.14349e-20 0.000628787 -1.65487e-05 4.27093e-06 4.43672e-07
-0.0405371 -4.23516e-22 0.00063565 0.00674474 -0.00182421 -4.77049e-05
0.0405372 -1.18585e-20 0.000635983 -1.65873e-05 4.28346e-06 4.44567e-07
-0.0404766 -5.2516e-20 0.00233943 0 0 0
0.0404766 0 0.00233943 0 0 0
-0.040541 1.69407e-21 0.000702547 0.00705214 -0.00190438 -4.75713e-05
0.040541 -1.27055e-21 0.000703745 -1.71246e-05 4.40698e-06 3.82775e-07
-0.0405495 1.14349e-20 0.000632191 0.00677143 -0.00183325 -4.69892e-05
0.0405497 -8.04681e-21 0.000632486 -1.65702e-05 4.2678e-06 4.50549e-07
0.0404906 0 0.00234135 0 0 0
-0.0404906 -1.69407e-21 0.00234135 0 0 0
-0.0405397 -1.12938e-22 0.00125155 0.00950443 -0.0025449 -4.53092e-05
0.0405397 2.25875e-22 0.00125189 -2.13646e-05 5.37049e-06 -9.59186e-08
-0.0405452 0 0.00227937 0.00132719 -0.000339331 1.84276e-05
0.0405453 0 0.00227938 -3.33742e-06 7.72606e-07 -4.59377e-07
0.0406158 -3.38813e-21 5.8098e-08 0 0 0
-0.0406159 0 5.81041e-08 0 0 0
0.0406084 -5.0822e-21 0.00235751 0 0 0
-0.0406084 5.0822e-21 0.00235752 0 0 0
-0.0408377 2.71051e-20 0.000322191 0.00457629 -0.00122655 -2.55568e-05
0.0408378 -2.71051e-20 0.000322355 -1.19853e-05 2.82426e-06 7.20421e-07
0.0408178 -1.12938e-21 0.00198965 -1.77357e-05 3.98171e-06 -2.05824e-06
-0.0408178 -4.51751e-21 0.0019895 0.00747969 -0.00194108 8.37046e-05
-0.0410085 -8.13152e-21 0.0010286 0.0111854 -0.00303799 -7.69323e-06
0.0410086 0 0.00102904 -2.17692e-05 3.62348e-06 4.11484e-07
-0.0410119 0 0.00150845 0.0116647 -0.00316876 5.61743e-05
0.041012 4.51751e-21 0.0015088 -2.1209e-05 3.21554e-06 -6.97824e-07
0.0409774 0 0.00240814 0 0 0
-0.0409774 0 0.00240814 0 0 0
0.0410604 1.35525e-20 8.41089e-08 0 0 0
-0.0410604 0 8.41151e-08 0 0 0
0.0410629 0 0.000105931 -4.44685e-06 8.13617e-07 2.39524e-07
-0.0410629 1.35525e-20 0.000105838 0.00192115 -0.0004969 -1.97947e-05
0.0409965 6.77626e-21 0.00237824 -1.82587e-06 5.68932e-07 -1.31287e-07
-0.0409965 6.77626e-21 0.00237826 0.000835552 -0.000244193 1.36475e-05
-0.0410275 0 0.00241502 0 0 0
0.0410275 0 0.00241502 0 0 0
-0.0410347 -2.03288e-20 0.00233955 0.00151101 -0.000408276 6.83848e-06
0.0410347 0 0.00233952 -2.57787e-06 5.5874e-07 -1.11675e-07
-0.0410708 6.77626e-21 0.0023814 0.00111343 -0.000318437 2.12219e-05
0.0410708 0 0.00238138 -1.90092e-06 5.75631e-07 -1.35749e-07
-0.0411588 -1.35525e-20 8.62142e-08 0 0 0
0.0411588 -1.35525e-20 8.62085e-08 0 0 0
-0.0410901 -6.77626e-21 0.0024236 0 0 0
0.0410902 0 0.00242361 0 0 0
-0.0412374 -2.25875e-21 0.000638695 0.00861455 -0.00242567 1.56976e-05
0.0412374 4.51751e-21 0.000639091 -1.60397e-05 3.30872e-06 8.25873e-07
-0.0412319 0 0.00177406 0.0103748 -0.00291396 0.000154274
0.041232 0 0.00177433 -1.56996e-05 3.23636e-06 -1.03723e-06
-0.0412814 1.35525e-20 7.69686e-08 0 0 0
0.0412815 0 7.69596e-08 0 0 0
-0.0412864 0 0.000114574 0.00227953 -0.000641365 1.79804e-05
0.0412864 -1.35525e-20 0.000114681 -4.87264e-06 1.17332e-06 2.29752e-07
-0.0412719 -2.71051e-20 0.00123079 0.0122926 -0.00345454 8.12598e-05
0.041272 -2.71051e-20 0.00123128 -1.69346e-05 3.14331e-06 1.43219e-07
-0.0414111 -2.25875e-21 0.00202219 0.00928488 -0.00239589 0.000100732
0.0414112 0 0.00202236 -1.72329e-05 3.96944e-06 -1.90576e-06
-0.0414655 -2.71051e-21 0.00100479 0.0126581 -0.00358645 9.7276e-05
0.0414656 5.42101e-21 0.00100527 -1.95959e-05 4.33698e-06 8.82428e-07
0.0414387 6.77626e-21 0.00247143 0 0 0
-0.0414387 0 0.00247142 0 0 0
-0.0415231 1.35525e-20 0.000300335 0.00524712 -0.00150586 5.25263e-05
0.0415231 -1.35525e-20 0.000300526 -1.18251e-05 3.28332e-06 3.3534e-07
0.0414667 0 0.00241974 -2.66715e-06 8.07659e-07 -1.90467e-07
-0.0414667 0 0.00241973 0.001563 -0.000447011 2.97905e-05
-0.0415317 4.51751e-21 0.00151516 0.0136096 -0.00376648 5.03209e-05
0.0415317 -6.77626e-21 0.0015155 -2.04133e-05 4.10757e-06 9.25457e-08
-0.0415257 0 0.00236274 0.00252186 -0.000680007 3.24423e-06
0.0415258 6.77626e-21 0.00236276 -3.6528e-06 9.20326e-07 -7.95012e-08
-0.0415358 2.03288e-20 0.00248474 0 0 0
0.0415358 6.77626e-21 0.00248475 0 0 0
-0.0417744 -6.77626e-21 8.98208e-05 0.00178811 -0.000503098 1.41041e-05
0.0417745 0 8.98629e-05 -3.82038e-06 9.19942e-07 1.80136e-07
-0.0417779 -6.77626e-21 6.56267e-09 0 0 0
0.041778 0 6.55901e-09 0 0 0
-0.0418022 0 0.000615402 0.00975786 -0.00273184 6.85757e-05
0.0418022 -2.25875e-21 0.000615762 -1.5859e-05 4.74229e-06 3.77738e-07
-0.0417906 -2.71051e-20 0.00186249 0.0117403 -0.00323813 7.95442e-05
0.0417906 2.71051e-20 0.00186269 -1.57311e-05 4.23406e-06 -6.25549e-08
-0.0417567 6.77626e-21 0.00251504 0 0 0
0.0417567 2.03288e-20 0.00251505 0 0 0
-0.0417893 7.52918e-22 0.0022836 0.00648191 -0.00163551 0.000105064
0.0417893 -1.50584e-21 0.00228367 -1.33577e-05 3.17311e-06 -7.84183e-07
-0.0418476 6.77626e-21 0.00117393 0.0142873 -0.00398196 5.58708e-05
0.0418476 -2.25875e-21 0.00117434 -1.94287e-05 6.10477e-06 5.84401e-07
-0.0418763 1.35525e-20 -1.15002e-09 0 0 0
0.0418764 0 -1.15404e-09 0 0 0
-0.0419536 1.35525e-20 8.50389e-05 0.00188223 -0.00054026 1.75227e-05
0.0419536 0 8.50569e-05 -3.42778e-06 1.20284e-06 8.33659e-08
-0.0419539 0 -1.03272e-09 0 0 0
0.041954 -1.35525e-20 -1.0365e-09 0 0 0
0.0419533 0 0.00254202 0 0 0
-0.0419533 1.35525e-20 0.00254201 0 0 0
-0.0419887 -1.35525e-20 0.0019478 0.0119866 -0.00327768 5.54572e-05
0.0419887 0 0.00194795 -1.52512e-05 4.54487e-06 4.29642e-07
-0.0420605 -4.51751e-21 0.00226453 0.00736322 -0.00196846 8.91166e-05
0.0420605 0 0.00226459 -1.18516e-05 3.82982e-06 -5.38676e-08
-0.042061 0 0.00250113 0.00174174 -0.000423519 2.62992e-05
0.042061 1.35525e-20 0.00250114 -2.50231e-06 6.23409e-07 -2.31642e-07
-0.0421378 0 0.000921112 0.0147441 -0.00406567 4.83012e-05
0.0421378 4.06576e-20 0.000921356 -2.61361e-05 1.0142e-05 2.97578e-07
-0.0420718 6.77626e-21 0.00255827 0 0 0
0.0420718 6.77626e-21 0.00255827 0 0 0
0.0421546 0 0.000313421 -1.22217e-05 3.94071e-06 3.4439e-08
-0.0421546 -2.71051e-20 0.000313301 0.00618643 -0.00174046 4.82443e-05
-0.0421336 -4.51751e-21 0.0016375 0.0153123 -0.00421368 -5.20378e-05
0.0421336 -1.35525e-20 0.00163769 -2.34799e-05 8.54561e-06 4.67011e-07
-0.0421793 -6.77626e-21 0.002247 0.00804144 -0.00218944 0.000106762
0.0421793 6.77626e-21 0.00224705 -1.27527e-05 4.80992e-06 1.89787e-07
0.0423852 6.77626e-21 6.66393e-05 -2.68547e-06 9.42354e-07 6.53123e-08
-0.0423852 0 6.66078e-05 0.00147424 -0.000423152 1.37244e-05
-0.0423913 0 1.33679e-09 0 0 0
0.0423913 0 1.33598e-09 0 0 0
-0.0423173 0 0.00259195 0 0 0
0.0423174 -6.77626e-21 0.00259196 0 0 0
-0.0423622 1.35525e-20 0.00253137 0.0020886 -0.000507863 3.15367e-05
0.0423623 0 0.00253138 -3.00038e-06 7.47493e-07 -2.77749e-07
0.0424524 0 1.43798e-09 0 0 0
-0.0424524 -6.77626e-21 1.43857e-09 0 0 0
-0.0424509 1.12938e-21 0.000611632 0.0110056 -0.00301948 -8.70061e-06
0.0424509 1.12938e-21 0.000611739 -1.81361e-05 6.25702e-06 2.97216e-07
-0.042444 2.25875e-21 0.00122872 0.0166703 -0.00452793 -3.59714e-05
0.0424441 4.51751e-21 0.00122884 -2.44061e-05 8.70508e-06 3.6804e-07
-0.0425171 6.77626e-21 1.31915e-09 0 0 0
0.0425171 0 1.31866e-09 0 0 0
-0.0425183 0 6.48504e-05 0.00152801 -0.000427655 -8.36766e-06
0.0425183 0 6.48584e-05 -2.32915e-06 7.48957e-07 1.21256e-07
-0.0424587 -3.38813e-21 0.00227178 0.00852813 -0.00229896 4.91036e-05
0.0424587 -3.38813e-21 0.00227182 -1.17247e-05 3.99314e-06 -2.03171e-09
-0.0424457 0 0.00260956 0 0 0
0.0424458 -1.35525e-20 0.00260957 0 0 0
-0.0424966 -4.51751e-21 0.00189079 0.0144843 -0.00393238 1.0922e-05
0.0424967 -9.03502e-21 0.00189085 -1.86447e-05 6.06289e-06 2.28248e-07
-0.0425605 -1.35525e-20 0.00254401 0.00274018 -0.000664412 -4.26787e-05
0.0425605 -1.35525e-20 0.00254402 -3.262e-06 8.98131e-07 -4.59425e-08
-0.0426002 -6.77626e-21 0.00263076 0 0 0
0.0426003 1.35525e-20 0.00263076 0 0 0
0.0427577 2.71051e-20 0.000308577 -1.08901e-05 3.37689e-06 5.30399e-07
-0.0427577 0 0.000308578 0.00656521 -0.00182404 -4.38669e-05
-0.042762 0 0.00092253 0.0167493 -0.00450823 -9.21526e-05
0.042762 2.71051e-20 0.000922525 -2.36251e-05 7.73277e-06 3.54503e-07
-0.042748 1.35525e-20 0.00216861 0.0120354 -0.00330446 6.07227e-05
0.0427481 0 0.00216862 -1.42864e-05 4.62417e-06 -2.57443e-07
-0.0427408 -4.06576e-20 0.00240953 0.00713923 -0.00185957 -1.60059e-05
0.0427408 0 0.00240953 -9.59203e-06 3.12309e-06 -9.94838e-08
-0.0428416 5.42101e-21 0.00164355 0.0182629 -0.00490521 1.17189e-05
0.0428416 1.35525e-20 0.00164354 -2.11738e-05 6.70819e-06 -7.56847e-08
-0.0428297 0 0.00266224 0 0 0
0.0428297 2.71051e-20 0.00266224 0 0 0
0.0429615 0 5.93011e-11 0 0 0
-0.0429615 0 5.79639e-11 0 0 0
-0.0428847 0 0.00256824 0.00342265 -0.000829891 -5.33083e-05
0.0428847 -1.35525e-20 0.00256825 -4.07462e-06 1.12187e-06 -5.73875e-08
0.0429621 -1.35525e-20 9.52028e-05 -3.41892e-06 1.09938e-06 1.7799e-07
-0.0429622 1.35525e-20 9.51811e-05 0.00224272 -0.000627682 -1.22815e-05
-0.0429936 5.80823e-21 0.00192518 0.0155087 -0.00418623 3.08866e-05
0.0429937 -3.87215e-21 0.00192513 -1.68982e-05 4.50521e-06 -5.57183e-07
-0.0430551 0 -1.06622e-10 0 0 0
0.0430551 0 -1.05152e-10 0 0 0
0.0430752 4.51751e-21 0.000610558 -1.68354e-05 4.34773e-06 4.4278e-07
-0.0430752 -6.77626e-21 0.000610657 0.0121259 -0.00327324 -5.28973e-05
0.0430107 1.35525e-20 0.00268706 0 0 0
-0.0430107 -1.35525e-20 0.00268706 0 0 0
-0.0430775 2.25875e-21 0.00123361 0.0188674 -0.00506449 -2.8954e-05
0.0430775 0 0.00123349 -2.24034e-05 5.73787e-06 -8.49424e-09
-0.0430372 -2.25875e-21 0.00230972 0.010152 -0.00274859 3.78621e-05
0.0430373 2.25875e-21 0.00230971 -1.137e-05 3.27274e-06 -4.51733e-07
-0.0431637 0 1.5382e-11 0 0 0
0.0431637 0 1.67288e-11 0 0 0
-0.0431652 1.35525e-20 0.000103815 0.00254579 -0.000696288 -1.30549e-05
0.0431652 0 0.000103811 -3.45948e-06 8.5052e-07 2.0074e-07
0.0432457 -1.35525e-20 0.00271928 0 0 0
-0.0432458 6.77626e-21 0.00271929 0 0 0
0.0433794 -2.71051e-20 0.000307824 -1.01918e-05 2.24134e-06 6.12504e-07
-0.0433795 0 0.000307922 0.00698378 -0.00188149 -4.5326e-05
-0.0433141 4.51751e-21 0.00255689 0.00539724 -0.00146696 5.276e-06
0.0433141 9.03502e-21 0.00255689 -5.96434e-06 1.55669e-06 -3.73012e-07
-0.0433486 -2.25875e-20 0.00207031 0.0155835 -0.0042107 9.02862e-05
0.0433486 -9.03502e-21 0.00207025 -1.47239e-05 3.35524e-06 -8.03817e-07
0.0433928 -2.71051e-20 0.000922169 -2.28034e-05 4.17519e-06 2.6769e-07
-0.0433928 -2.71051e-20 0.000922361 0.0183213 -0.00491348 -3.07784e-05
-0.043354 -2.71051e-20 0.00273413 0 0 0
0.043354 2.03288e-20 0.00273414 0 0 0
-0.0434187 4.51751e-21 0.0016019 0.0202564 -0.00546836 2.84377e-05
0.0434187 6.77626e-21 0.00160173 -1.96358e-05 4.07606e-06 -6.31067e-07
0.0435473 0 9.019e-10 0 0 0
-0.0435473 -1.35525e-20 9.01633e-10 0 0 0
0.0435506 0 0.000132384 -4.41163e-06 1.08461e-06 2.55989e-07
-0.0435506 0 0.00013241 0.00324702 -0.000888076 -1.66507e-05
-0.0436835 2.71051e-20 1.03606e-09 0 0 0
0.0436835 -2.71051e-20 1.03617e-09 0 0 0
0.0436251 2.11758e-22 0.00235498 -1.0556e-05 2.41521e-06 -8.26335e-07
-0.0436252 2.11758e-22 0.00235502 0.0117519 -0.00323157 7.31255e-05
0.0436012 2.71051e-20 0.00276801 0 0 0
-0.0436012 0 0.00276801 0 0 0
0.0436982 -4.51751e-21 0.000607493 -1.58218e-05 3.06695e-06 4.11611e-07
-0.0436983 0 0.000607717 0.0130615 -0.00351852 -1.6239e-07
0.0436672 0 0.00190306 -1.48048e-05 2.44978e-06 -1.08492e-06
-0.0436672 -2.71051e-20 0.0019032 0.0183955 -0.00494415 5.28096e-05
0.0436479 0 0.00235467 -1.05138e-05 2.37228e-06 -8.39954e-07
-0.0436535 0 0.00235493 0.0118239 -0.00325298 7.45588e-05
0.0437002 -9.03502e-21 0.00112951 -2.09469e-05 3.73075e-06 -4.2802e-08
-0.0437002 4.51751e-21 0.0011298 0.0198666 -0.00533345 1.48176e-05
-0.0436555 -2.11758e-22 0.00236095 0.0117444 -0.00323364 7.43855e-05
0.0436555 2.11758e-22 0.00236091 -1.04549e-05 2.36013e-06 -8.48854e-07
0.0438316 -2.71051e-20 0.000140387 -4.50329e-06 9.22415e-07 1.83186e-07
-0.0438317 0 0.000140437 0.00359623 -0.00097961 -3.36381e-06
-0.0438324 1.35525e-20 1.26291e-09 0 0 0
0.0438324 1.35525e-20 1.263e-09 0 0 0
0.044004 0 0.000302869 -9.78011e-06 2.00859e-06 4.02581e-07
-0.044004 -1.35525e-20 0.000303007 0.00733536 -0.00200767 6.62858e-06
0.0439928 0 0.00156096 -1.75657e-05 3.19076e-06 -9.6334e-07
-0.0439928 2.25875e-21 0.00156117 0.0224518 -0.00603388 2.57715e-05
-0.0439354 -6.77626e-21 0.00281381 0 0 0
0.0439354 -2.5411e-20 0.00281382 0 0 0
-0.0439809 -4.51751e-21 0.00211391 0.017817 -0.004823 5.68637e-05
0.0439809 -1.807e-20 0.00211382 -1.29218e-05 2.05553e-06 -6.91028e-07
-0.0439531 -1.69407e-21 0.00279275 0.000825825 -0.000238683 4.62495e-06
0.0439531 3.38813e-21 0.0027928 -7.22194e-07 1.43034e-07 -1.23779e-07
-0.043961 -1.69407e-21 0.00281732 0 0 0
0.043961 0 0.00281732 0 0 0
-0.0440043 2.25875e-21 0.0025931 0.0077856 -0.00222243 4.56648e-05
0.0440043 0 0.00259309 -6.61086e-06 1.35487e-06 -1.05172e-06
0.0440988 0 0.00101219 -2.01463e-05 4.2078e-06 1.65149e-07
-0.0440988 -8.13152e-21 0.0010125 0.020528 -0.00552394 4.66313e-05
0.0441598 2.71051e-20 2.36366e-09 0 0 0
-0.0441598 0 2.3638e-09 0 0 0
0.0441637 0 0.000147457 -4.73007e-06 9.68866e-07 1.92411e-07
-0.0441637 0 0.000147511 0.00377733 -0.00102894 -3.53321e-06
-0.0443161 0 2.58835e-09 0 0 0
0.0443161 -1.35525e-20 2.58819e-09 0 0 0
0.0443172 -9.03502e-21 0.000604412 -1.45426e-05 3.57287e-06 2.79495e-07
-0.0443172 4.51751e-21 0.000604657 0.0139806 -0.00379728 4.21746e-05
0.0442814 -5.42101e-20 0.00191676 -1.19948e-05 2.05323e-06 -9.28876e-07
-0.0442814 -2.71051e-20 0.00191692 0.0206533 -0.00555142 1.49566e-05
0.0443137 2.71051e-20 0.00123266 -1.74437e-05 4.06499e-06 -2.19973e-07
-0.0443137 0 0.00123298 0.0222987 -0.00601592 2.71122e-05
-0.0442645 2.71051e-20 0.00285891 0 0 0
0.0442646 2.71051e-20 0.00285892 0 0 0
0.0443414 -4.51751e-21 0.00231325 -9.37751e-06 1.5972e-06 -8.91197e-07
-0.0443414 -4.51751e-21 0.00231331 0.0159671 -0.00432637 2.99817e-05
-0.0444716 0 0.000150042 0.00402255 -0.00111141 1.41981e-05
0.0444716 -2.71051e-20 0.000150001 -4.42916e-06 1.12849e-06 1.0695e-07
-0.0444749 -1.35525e-20 2.3549e-09 0 0 0
0.0444749 1.35525e-20 2.35475e-09 0 0 0
0.0445335 1.89735e-20 0.00101154 -1.83803e-05 5.19237e-06 8.90957e-08
-0.0445335 1.0842e-20 0.00101185 0.0215428 -0.00582568 4.6664e-05
-0.0445227 9.03502e-21 0.00155722 0.024241 -0.00654171 9.54876e-06
0.0445227 -9.03502e-21 0.00155701 -1.43327e-05 3.81368e-06 -7.70564e-07
-0.0445478 -2.71051e-20 0.00210098 0.0203771 -0.00551606 -3.29825e-05
0.0445478 2.71051e-21 0.00210088 -1.00682e-05 2.07955e-06 -8.31457e-07
-0.0445257 -1.35525e-20 0.00289471 0 0 0
0.0445258 -3.38813e-20 0.00289472 0 0 0
0.0446295 0 0.000304347 -9.11549e-06 2.5567e-06 1.87192e-07
-0.0446295 -1.35525e-20 0.000304461 0.00780095 -0.00216937 3.77572e-05
-0.044594 0 0.00278583 0.00430371 -0.00125439 3.55215e-06
0.044594 0 0.00278588 -2.498e-06 4.14474e-07 -6.60757e-07
-0.0446261 0 0.00264116 0.00939065 -0.0026941 1.26162e-05
0.0446261 -2.25875e-21 0.00264114 -5.38056e-06 9.22918e-07 -1.27912e-06
0.0446645 0 0.00291372 0 0 0
-0.0446646 -6.77626e-21 0.00291373 0 0 0
0.0447808 1.35525e-20 1.63152e-09 0 0 0
-0.0447808 1.35525e-20 1.63155e-09 0 0 0
0.0447854 0 0.00015027 -4.43712e-06 1.13051e-06 1.07142e-07
-0.0447855 1.35525e-20 0.000150312 0.0040298 -0.00111341 1.42237e-05
-0.0449405 0 1.3988e-09 0 0 0
0.0449405 1.35525e-20 1.39877e-09 0 0 0
0.044942 2.25875e-21 0.000602417 -1.19806e-05 3.21689e-06 2.43788e-07
-0.044942 -4.51751e-21 0.00060259 0.0148613 -0.00405385 9.13968e-06
0.0449381 -6.77626e-21 0.00123202 -1.30307e-05 3.39655e-06 -1.48008e-07
-0.0449382 -9.03502e-21 0.00123223 0.0243612 -0.00659251 -9.78134e-06
0.0449431 -4.51751e-21 0.00185203 -8.18674e-06 1.56152e-06 -6.35548e-07
-0.0449431 0 0.00185217 0.0242053 -0.00652365 -1.99301e-05
0.0449492 -4.51751e-21 0.00232791 -5.34327e-06 3.83046e-07 -9.18756e-07
-0.0449492 0 0.00232797 0.0180828 -0.00486 4.21975e-07
0.0449214 -1.35525e-20 0.00294893 0 0 0
-0.0449214 0 0.00294893 0 0 0
-0.0451017 -1.35525e-20 1.29463e-09 0 0 0
0.0451017 0 1.2946e-09 0 0 0
-0.0450995 0 0.00297331 0 0 0
0.0450995 -2.03288e-20 0.00297331 0 0 0
-0.045251 9.03502e-21 0.000202824 0.0051291 -0.00142068 1.35473e-06
0.045251 9.03502e-21 0.000202783 -4.5384e-06 1.05517e-06 1.99428e-07
0.0452595 0 0.000915145 -1.29036e-05 2.72627e-06 2.67953e-07
-0.0452595 0 0.000915292 0.0227529 -0.00616244 -5.69155e-05
0.045262 0 0.00154673 -6.01079e-06 5.47811e-07 -3.17642e-07
-0.045262 0 0.00154687 0.0279931 -0.00757132 -1.7406e-05
0.0452616 0 0.00214816 -3.31623e-06 -6.69824e-07 -9.20434e-07
-0.0452617 0 0.00214823 0.0231622 -0.00617091 2.05767e-06
0.0452367 2.25875e-21 0.00269257 -3.5592e-06 -3.30663e-07 -1.04017e-06
-0.0452367 0 0.00269258 0.0107516 -0.00297084 8.93766e-05
0.0453935 0 1.00959e-09 0 0 0
-0.0453935 0 1.00963e-09 0 0 0
0.0453384 0 0.00300597 0 0 0
-0.0453384 0 0.00300597 0 0 0
-0.045559 -1.35525e-20 9.03952e-10 0 0 0
0.045559 -2.71051e-20 9.03906e-10 0 0 0
0.0455698 2.25875e-21 0.000598369 -8.6044e-06 1.131e-06 2.14357e-07
-0.0455698 0 0.000598452 0.0156271 -0.00424445 -1.15121e-05
0.045574 -1.35525e-20 0.00122571 -6.77497e-06 -4.35285e-07 -1.7829e-07
-0.045574 9.03502e-21 0.00122582 0.0260787 -0.0070514 -2.04178e-05
-0.0454949 4.06576e-20 0.00302739 0 0 0
0.0454949 0 0.00302739 0 0 0
0.045575 0 0.00186033 -1.73952e-06 -2.14436e-06 -7.01819e-07
-0.045575 -4.51751e-21 0.0018604 0.026526 -0.0071382 1.49619e-06
0.0455636 9.03502e-21 0.00235679 -6.50843e-07 -2.2472e-06 -9.65864e-07
-0.0455636 -9.03502e-21 0.00235682 0.0202815 -0.00544645 4.39082e-05
-0.0456185 1.35525e-20 0.00304441 0 0 0
0.0456185 6.77626e-21 0.00304441 0 0 0
-0.0457296 0 8.66649e-10 0 0 0
0.0457296 0 8.66605e-10 0 0 0
-0.0458748 0 0.000203876 0.00540351 -0.00148077 1.69651e-05
0.0458748 9.03502e-21 0.000203862 -3.74424e-06 5.86568e-07 1.03413e-07
0.0458876 -2.71051e-20 0.000909899 -8.17134e-06 -9.79993e-07 1.75631e-08
-0.0458876 0 0.000909967 0.0239217 -0.00644323 -4.9192e-06
-0.0458326 -2.71051e-21 0.00274325 0.012052 -0.00318624 0.000203041
0.0458326 3.16226e-21 0.00274325 4.52028e-07 -2.18465e-06 -1.70951e-06
0.0458898 0 0.00154847 2.91927e-07 -4.06585e-06 -7.00518e-07
-0.0458898 0 0.00154853 0.0298934 -0.00809688 -1.89997e-06
0.0458888 0 0.00217764 2.19018e-06 -4.44678e-06 -8.4084e-07
-0.0458889 2.71051e-20 0.00217767 0.0254996 -0.00683763 1.9152e-05
-0.0458626 -6.77626e-21 0.00307837 0 0 0
0.0458626 -1.35525e-20 0.00307837 0 0 0
0.0460115 -1.35525e-20 7.57524e-10 0 0 0
-0.0460115 2.71051e-20 7.57548e-10 0 0 0
-0.0459673 -6.77626e-21 0.0030928 0 0 0
0.0459674 1.35525e-20 0.0030928 0 0 0
-0.0461847 0 7.198e-10 0 0 0
0.0461847 0 7.19779e-10 0 0 0
-0.0461957 6.77626e-21 0.000591487 0.0162926 -0.0043655 1.76906e-05
0.0461957 2.25875e-21 0.000591455 -5.83158e-06 -7.48889e-07 3.74278e-09
0.0462006 -6.77626e-21 0.00122009 -1.3138e-06 -4.06687e-06 -5.51083e-07
-0.0462006 2.25875e-21 0.00122013 0.0276046 -0.00741186 4.83865e-06
0.0462019 0 0.00186862 4.56879e-06 -6.08362e-06 -1.14112e-06
-0.0462019 -6.77626e-21 0.00186864 0.0287303 -0.00771243 -1.94121e-05
-0.0461655 -6.77626e-21 0.00312126 0 0 0
0.0461656 -2.03288e-20 0.00312127 0 0 0
-0.0461939 -1.35525e-20 0.00295331 0.00732869 -0.00178903 0.00018236
0.0461939 0 0.00295328 7.55405e-07 -1.40849e-06 -1.42637e-06
-0.0462707 2.25875e-21 0.00256437 0.0181689 -0.00483892 9.93849e-05
0.0462707 -4.51751e-21 0.00256437 4.25902e-06 -4.40119e-06 -1.51029e-06
-0.0463595 -2.71051e-20 6.73842e-10 0 0 0
0.0463595 2.71051e-20 6.73822e-10 0 0 0
-0.0463949 3.38813e-21 0.00315229 0 0 0
0.046395 0 0.0031523 0 0 0
-0.046506 0 0.000199294 0.00552481 -0.00146361 1.82179e-05
0.046506 1.807e-20 0.000199294 -3.14576e-06 2.42214e-07 -5.30644e-09
0.0465144 0 0.000898641 -3.92769e-06 -3.49367e-06 -2.53676e-07
-0.0465144 0 0.000898665 0.0250021 -0.00663432 3.27565e-05
0.0465158 2.71051e-20 0.00154147 7.03492e-06 -7.78269e-06 -1.31406e-06
-0.0465158 0 0.00154149 0.0319009 -0.00855173 -8.27079e-06
0.0464366 3.38813e-21 0.00315806 0 0 0
-0.0464366 3.38813e-21 0.00315806 0 0 0
0.0464514 -6.77626e-21 0.0031144 6.0415e-07 -2.53941e-07 -2.32618e-07
-0.0464514 0 0.00311437 0.00162448 -0.000425917 4.12731e-05
0.0465218 2.71051e-20 0.00218627 9.17153e-06 -8.20253e-06 -1.7075e-06
-0.0465218 2.71051e-20 0.00218628 0.0280933 -0.00749582 -9.09392e-05
0.0466484 1.35525e-20 5.2382e-10 0 0 0
-0.0466484 2.71051e-20 5.23805e-10 0 0 0
-0.0466132 9.03502e-21 0.00290744 0.0100681 -0.00261626 0.000201515
0.0466132 2.25875e-21 0.00290743 4.04095e-06 -2.36951e-06 -1.40798e-06
-0.0468205 -2.71051e-20 4.77071e-10 0 0 0
0.0468205 0 4.77088e-10 0 0 0
-0.0468261 -9.03502e-21 0.00058046 0.0168122 -0.00442732 1.75165e-05
0.0468261 -2.25875e-21 0.000580448 -3.42702e-06 -1.59864e-06 -1.65681e-07
0.0467233 0 0.00319817 0 0 0
-0.0467234 0 0.00319819 0 0 0
0.0468292 -6.77626e-21 0.00120515 4.00622e-06 -6.10383e-06 -9.17245e-07
-0.0468292 -6.77626e-21 0.00120516 0.0290395 -0.00772755 9.31703e-06
0.0468326 -6.77626e-21 0.00185915 1.15297e-05 -8.82659e-06 -1.7812e-06
-0.0468326 -9.03502e-21 0.00185916 0.0311559 -0.00830417 -3.42081e-05
-0.0468472 1.0842e-20 0.00253599 0.0211327 -0.00565357 2.01007e-05
0.0468472 -9.03502e-22 0.00253598 1.00042e-05 -6.84991e-06 -1.77762e-06
0.0468396 -1.69407e-21 0.00321454 0 0 0
-0.0468396 0 0.00321454 0 0 0
0.0468444 0 0.00320755 1.41919e-07 -1.23341e-07 -7.8095e-08
-0.0468444 0 0.00320756 0.000333216 -7.98717e-05 7.78376e-06
0.0468557 0 0.00318854 6.06814e-07 -3.85203e-07 -1.23017e-07
-0.0468557 1.69407e-21 0.00318856 0.0010942 -0.000288593 5.88609e-06
0.0468539 -1.69407e-21 0.00321654 0 0 0
-0.0468539 0 0.00321653 0 0 0
-0.0468678 0 0.00320873 0.000445392 -0.000107784 -1.00708e-05
0.0468679 0 0.00320873 2.32418e-07 -1.57212e-07 -4.25043e-08
-0.0468728 3.38813e-21 0.00321918 0 0 0
0.0468729 1.69407e-21 0.00321918 0 0 0
-0.0469903 -1.35525e-20 4.262e-10 0 0 0
0.0469903 -1.35525e-20 4.26209e-10 0 0 0
0.0470012 0 0.00293207 6.17415e-06 -3.9756e-06 -1.24403e-06
-0.0470012 0 0.00293208 0.0117456 -0.00316381 5.5643e-05
0.0471425 -9.03502e-21 0.000190384 -2.62901e-06 2.16286e-07 -5.91915e-08
-0.0471425 0 0.000190377 0.00538038 -0.00139102 -1.66348e-05
0.0471463 2.71051e-20 0.000881282 7.09593e-09 -3.89295e-06 -3.96013e-07
-0.0471463 0 0.000881291 0.0258337 -0.00677817 3.28984e-05
-0.0471461 5.42101e-20 0.00152023 0.033765 -0.00903452 -2.376e-05
0.0471461 -2.71051e-20 0.00152022 1.3562e-05 -9.38653e-06 -1.78542e-06
-0.047153 -2.71051e-20 0.00216928 0.0312408 -0.00824303 -9.66342e-06
0.047153 0 0.00216927 1.68394e-05 -1.01159e-05 -2.35762e-06
-0.0471472 -6.77626e-21 0.00293418 0.0122945 -0.00332678 -1.44592e-05