# UMean  POINT_DATA 33912
# x  y  z  UMean_x  UMean_y  UMean_z
0.0386366 6.77626e-21 9.33814e-08 0 0 0
-0.0386366 -6.77626e-21 9.33814e-08 0 0 0
-0.0386366 0 0.000236766 0 0 0
0.0386366 -3.38813e-21 0.000236754 0 0 0
-0.0386365 -1.69407e-21 0.000428699 0 0 0
0.0386365 1.69407e-21 0.000428676 0 0 0
-0.0386365 -3.38813e-21 0.000666556 0 0 0
0.0386365 -6.77626e-21 0.000666521 0 0 0
-0.0386364 -1.69407e-21 0.000917399 0 0 0
0.0386364 -1.69407e-21 0.000917369 0 0 0
-0.0386364 -1.69407e-21 0.00111073 0 0 0
0.0386364 0 0.00111069 0 0 0
-0.0386364 0 0.00136165 0 0 0
0.0386364 6.77626e-21 0.00136161 0 0 0
-0.0386364 0 0.00162089 0 0 0
0.0386364 5.0822e-21 0.00162088 0 0 0
-0.0386365 0 0.00182904 0 0 0
0.0386365 1.69407e-21 0.00182903 0 0 0
0.0386365 6.77626e-21 0.002087 0 0 0
-0.0386365 -6.77626e-21 0.002087 0 0 0
-0.0387133 -6.77626e-21 0.000334786 0.000263621 -6.98686e-05 1.26399e-06
0.0387133 0 0.000334769 -6.45423e-06 2.06986e-06 1.68688e-06
0.0387145 -6.77626e-21 0.00100945 -4.65887e-06 3.30024e-06 2.31523e-06
-0.0387145 3.38813e-21 0.00100948 0.0005584 -0.000164151 4.056e-06
0.0387157 3.38813e-21 0.00170741 -3.15183e-06 4.11067e-06 7.89264e-07
-0.0387157 3.38813e-21 0.00170743 0.000532209 -0.000159258 2.84837e-05
0.0388933 1.35525e-20 9.83892e-05 -2.16064e-05 6.92913e-06 5.64706e-06
-0.0388934 -2.03288e-20 9.8385e-05 0.000882571 -0.000233911 4.23167e-06
0.0388944 -6.77626e-21 8.11405e-08 0 0 0
-0.0388944 -6.77626e-21 8.11392e-08 0 0 0
0.038896 1.35525e-20 0.000773192 -1.54858e-05 1.09698e-05 7.69564e-06
-0.038896 6.77626e-21 0.000773227 0.00185601 -0.000545604 1.34814e-05
0.0389003 -1.35525e-20 0.000556945 -2.21852e-05 7.11475e-06 5.79833e-06
-0.0389003 0 0.000556978 0.000906221 -0.000240179 4.34506e-06
0.0388961 -1.35525e-20 0.00122361 -1.54981e-05 1.09785e-05 7.70176e-06
-0.0388961 -6.77626e-21 0.00122365 0.00185752 -0.000546046 1.34923e-05
-0.0388903 -1.35525e-20 0.00145595 0.00170404 -0.000509916 9.11998e-05
0.0388903 0 0.00145592 -1.00921e-05 1.31622e-05 2.5272e-06
-0.0388845 0 0.00190647 0.00166459 -0.000498114 8.90889e-05
0.0388845 6.77626e-21 0.00190644 -9.85868e-06 1.28578e-05 2.46876e-06
-0.0389211 -1.35525e-20 0.00212604 0 0 0
0.0389211 1.35525e-20 0.00212604 0 0 0
-0.03898 0 7.37425e-08 0 0 0
0.03898 0 7.3742e-08 0 0 0
-0.0389877 0 0.000656511 0.00177317 -0.000500301 1.8585e-05
0.0389877 -6.77626e-21 0.000656454 1.28186e-06 -8.83795e-06 1.06467e-05
-0.0389501 0 0.00204928 0.00125758 -0.00041834 6.34898e-05
0.0389501 1.35525e-20 0.00204927 1.0944e-05 -2.59478e-06 -8.87516e-06
0.0389855 6.77626e-21 0.00132191 2.42679e-05 -1.35654e-05 4.04673e-06
-0.0389855 0 0.00132198 0.00249552 -0.00071062 4.15055e-05
0.0389857 -6.77626e-21 0.00196118 2.55074e-05 -1.41689e-05 -1.38548e-05
-0.0389857 6.77626e-21 0.00196122 0.00210802 -0.000612782 5.6525e-05
-0.0390408 -6.77626e-21 0.00214247 0 0 0
0.0390408 6.77626e-21 0.00214247 0 0 0
-0.0390834 6.77626e-21 0.00203104 0.00185876 -0.000509345 3.41417e-05
0.0390834 -6.77626e-21 0.00203102 1.15511e-06 -8.16397e-06 -1.93816e-05
-0.0391899 5.0822e-21 7.98183e-08 0 0 0
0.0391899 -8.47033e-21 7.98187e-08 0 0 0
-0.0392186 1.05879e-22 0.000973966 0.00416832 -0.000998264 0.000153046
0.039217 0 0.000971787 5.62189e-05 -1.63595e-05 2.24927e-05
0.0392186 0 0.000993521 5.6998e-05 -1.6561e-05 2.14395e-05
-0.0392186 0 0.000993748 0.00415779 -0.000995165 0.000149078
-0.0392339 1.12938e-22 0.000322247 0.0022171 -0.000540648 5.18898e-05
0.0392339 -3.38813e-22 0.000322224 -7.5885e-05 1.89819e-05 1.38133e-05
0.0392124 9.41148e-23 0.00160285 7.26338e-05 -2.19754e-05 -1.4675e-05
-0.0392124 2.82344e-22 0.0016029 0.00370597 -0.000899988 1.38819e-05
0.0392589 1.01644e-20 8.17933e-08 0 0 0
-0.0392589 -2.37169e-20 8.17941e-08 0 0 0
-0.0392358 3.38813e-21 0.00211246 0.000899448 -0.00024647 1.65211e-05
0.0392358 -1.01644e-20 0.00211246 5.58878e-07 -3.94999e-06 -9.37744e-06
-0.0392408 1.35525e-20 0.0021699 0 0 0
0.0392408 3.38813e-21 0.00216991 0 0 0
-0.0393079 0 0.00200293 0.0027922 -0.00076513 5.12871e-05
0.0393079 0 0.00200291 1.73519e-06 -1.22638e-05 -2.91149e-05
0.0393994 1.35525e-20 0.00128732 6.57532e-05 -3.34765e-05 5.42462e-06
-0.0393994 -1.35525e-20 0.00128736 0.00481611 -0.00130477 4.36783e-05
0.0394321 1.35525e-20 0.000662255 5.99601e-06 -1.87452e-05 1.59159e-05
-0.0394321 -1.35525e-20 0.000662293 0.00387608 -0.00100368 5.30924e-05
-0.0393782 2.71051e-20 0.00218876 0 0 0
0.0393783 0 0.00218876 0 0 0
0.0394171 1.35525e-20 0.00182881 6.49404e-05 -3.10405e-05 -2.03369e-05
-0.0394171 0 0.00182885 0.00443889 -0.00118725 8.07956e-06
-0.0394765 0 8.81966e-08 0 0 0
0.0394765 -1.35525e-20 8.81971e-08 0 0 0
0.039636 -1.35525e-20 8.20127e-08 0 0 0
-0.039636 6.77626e-21 8.20112e-08 0 0 0
-0.0396081 -4.51751e-21 0.00155275 0.00567659 -0.00155479 1.18006e-05
0.0396081 -2.25875e-21 0.00155275 6.77645e-05 -1.81897e-05 6.33732e-07
-0.0395887 -6.77626e-21 0.00221763 0 0 0
0.0395887 -2.03288e-20 0.00221763 0 0 0
-0.0396657 -2.25875e-21 0.000926812 0.00604693 -0.00162724 1.32079e-06
0.0396657 -4.51751e-21 0.000926845 2.89776e-05 -1.84856e-05 1.26081e-05
0.0396606 -6.77626e-21 0.00201754 -2.5202e-05 1.64434e-05 -5.73171e-06
-0.0396606 0 0.00201754 0.00397608 -0.0011591 1.52644e-05
-0.0396602 -6.77626e-21 0.00213151 0.00181658 -0.000529566 6.97398e-06
0.0396602 0 0.00213151 -1.15148e-05 7.51302e-06 -2.61883e-06
-0.0397186 0 0.000328044 0.0030058 -0.00080466 -1.60091e-05
0.0397186 3.38813e-21 0.000328061 -5.56101e-05 7.15867e-06 4.24903e-06
-0.0397505 -6.77626e-21 0.00223983 0 0 0
0.0397506 6.77626e-21 0.00223983 0 0 0
-0.0398326 6.77626e-21 7.79286e-08 0 0 0
0.0398326 0 7.79286e-08 0 0 0
-0.0399409 5.64689e-21 0.0012628 0.00742242 -0.00201453 -3.81412e-05
0.0399409 -4.51751e-21 0.00126293 7.74402e-05 -3.23163e-05 8.72397e-06
-0.0399609 0 7.37241e-08 0 0 0
0.0399609 0 7.37245e-08 0 0 0
0.0399375 -2.25875e-21 0.0016998 7.52179e-05 -2.49906e-05 4.85315e-06
-0.0399375 0 0.00169972 0.00656387 -0.00180088 -1.84678e-05
-0.0399278 0 0.00226415 0 0 0
0.0399278 0 0.00226415 0 0 0
-0.0400201 6.77626e-21 0.000637232 0.00570465 -0.00155677 -4.16462e-05
0.0400201 0 0.000637359 -2.39411e-05 -7.82746e-06 5.10902e-06
-0.0400601 0 0.000117456 0.00106056 -0.000300818 -1.56194e-05
0.0400601 1.35525e-20 0.000117489 -3.09953e-05 4.62019e-06 3.5276e-07
0.0400609 0 7.18816e-08 0 0 0
-0.0400609 0 7.1881e-08 0 0 0
0.0400257 -1.35525e-20 0.00227757 0 0 0
-0.0400257 0 0.00227757 0 0 0
-0.0402355 0 0.000320268 0.00398499 -0.0011102 -5.01166e-05
0.0402356 -1.35525e-20 0.000320378 -9.21708e-05 1.09666e-05 -2.64162e-06
-0.0402399 0 0.000958442 0.00874078 -0.00235494 -9.66241e-05
0.0402399 0 0.000958653 3.35077e-05 -3.03847e-05 7.53924e-06
0.0402362 0 0.0015669 0.000125891 -5.07188e-05 8.07995e-06
-0.0402362 1.35525e-20 0.00156673 0.00875162 -0.00233685 -6.50541e-05
0.0402212 -3.38813e-21 0.00200607 -1.18729e-05 -5.40135e-06 1.11773e-05
-0.0402212 0 0.002006 0.00575544 -0.0015849 3.26386e-05
-0.0404904 0 5.21452e-08 0 0 0
0.0404904 0 5.21452e-08 0 0 0
-0.0404915 -3.38813e-21 3.22757e-05 0.000291139 -8.25791e-05 -4.28777e-06
0.0404915 0 3.22702e-05 -8.5048e-06 1.26774e-06 9.6794e-08
-0.0405175 3.38813e-21 5.13595e-08 0 0 0
0.0405175 0 5.13599e-08 0 0 0
-0.0404556 0 0.00233656 0 0 0
0.0404556 1.52466e-20 0.00233656 0 0 0
-0.0404936 -7.52918e-22 0.00172666 0.00862276 -0.00230169 6.17776e-06
0.0404937 -7.52918e-22 0.00172685 7.39833e-05 -3.05323e-05 1.31088e-05
0.0405368 0 5.18925e-08 0 0 0
-0.0405368 0 5.18925e-08 0 0 0
0.0405375 0 2.05856e-05 -3.24784e-06 3.5892e-07 -7.36105e-07
-0.0405375 -3.38813e-21 2.05864e-05 0.000201109 -5.76853e-05 7.29805e-07
-0.0405369 2.03288e-20 0.000628538 0.00718592 -0.00194055 -6.04088e-05
0.040537 -1.14349e-20 0.000628787 -2.59425e-05 -7.57942e-06 1.80597e-06
-0.0405371 -4.23516e-22 0.00063565 0.0072149 -0.00194818 -6.04784e-05
0.0405372 -1.18585e-20 0.000635983 -2.49798e-05 -7.85954e-06 1.80715e-06
-0.0404766 -5.2516e-20 0.00233943 0 0 0
0.0404766 0 0.00233943 0 0 0
-0.040541 1.69407e-21 0.000702547 0.00753877 -0.00203256 -5.99887e-05
0.040541 -1.27055e-21 0.000703745 -1.24571e-05 -1.13192e-05 2.8484e-06
-0.0405495 1.14349e-20 0.000632191 0.00724354 -0.001958 -5.96275e-05
0.0405497 -8.04681e-21 0.000632486 -2.4927e-05 -7.86224e-06 2.10164e-06
0.0404906 0 0.00234135 0 0 0
-0.0404906 -1.69407e-21 0.00234135 0 0 0
-0.0405397 -1.12938e-22 0.00125155 0.0101218 -0.00270683 -5.50178e-05
0.0405397 2.25875e-22 0.00125189 8.68095e-05 -3.86826e-05 1.085e-05
-0.0405452 0 0.00227937 0.00141381 -0.000358454 2.54065e-05
0.0405453 0 0.00227938 -9.11302e-06 1.34302e-06 3.93074e-06
0.0406158 -3.38813e-21 5.8098e-08 0 0 0
-0.0406159 0 5.81041e-08 0 0 0
0.0406084 -5.0822e-21 0.00235751 0 0 0
-0.0406084 5.0822e-21 0.00235752 0 0 0
-0.0408377 2.71051e-20 0.000322191 0.00491559 -0.00131583 -3.71584e-05
0.0408378 -2.71051e-20 0.000322355 -8.11556e-05 1.40237e-05 -5.68973e-06
0.0408178 -1.12938e-21 0.00198965 -2.01736e-05 1.83799e-08 1.78803e-05
-0.0408178 -4.51751e-21 0.0019895 0.00795555 -0.00205125 0.000111918
-0.0410085 -8.13152e-21 0.0010286 0.0119203 -0.0032417 -1.85106e-05
0.0410086 0 0.00102904 3.8962e-05 -2.18151e-05 1.32217e-05
-0.0410119 0 0.00150845 0.0123843 -0.00337127 4.88888e-05
0.041012 4.51751e-21 0.0015088 0.00013412 -4.30301e-05 9.12656e-06
0.0409774 0 0.00240814 0 0 0
-0.0409774 0 0.00240814 0 0 0
0.0410604 1.35525e-20 8.41089e-08 0 0 0
-0.0410604 0 8.41151e-08 0 0 0
0.0410629 0 0.000105931 -3.44351e-05 6.76929e-06 -3.5633e-07
-0.0410629 1.35525e-20 0.000105838 0.00206768 -0.000537912 -2.47298e-05
0.0409965 6.77626e-21 0.00237824 1.03423e-05 -2.08861e-06 5.92108e-07
-0.0409965 6.77626e-21 0.00237826 0.000880367 -0.000254808 1.48204e-05
-0.0410275 0 0.00241502 0 0 0
0.0410275 0 0.00241502 0 0 0
-0.0410347 -2.03288e-20 0.00233955 0.00160048 -0.000431519 6.1774e-06
0.0410347 0 0.00233952 7.51052e-06 -3.00165e-06 5.73247e-07
-0.0410708 6.77626e-21 0.0023814 0.00117348 -0.000332297 2.13896e-05
0.0410708 0 0.00238138 1.79289e-05 -6.77132e-06 -5.08424e-07
-0.0411588 -1.35525e-20 8.62142e-08 0 0 0
0.0411588 -1.35525e-20 8.62085e-08 0 0 0
-0.0410901 -6.77626e-21 0.0024236 0 0 0
0.0410902 0 0.00242361 0 0 0
-0.0412374 -2.25875e-21 0.000638695 0.00921167 -0.00259533 1.25125e-05
0.0412374 4.51751e-21 0.000639091 -2.6464e-05 -4.02998e-06 1.92125e-05
-0.0412319 0 0.00177406 0.0110194 -0.00309476 0.000153539
0.041232 0 0.00177433 8.4323e-05 -2.88886e-05 -7.47884e-06
-0.0412814 1.35525e-20 7.69686e-08 0 0 0
0.0412815 0 7.69596e-08 0 0 0
-0.0412864 0 0.000114574 0.00245036 -0.000688722 1.91111e-05
0.0412864 -1.35525e-20 0.000114681 -4.58993e-05 6.3944e-06 4.56249e-06
-0.0412719 -2.71051e-20 0.00123079 0.0130823 -0.00368529 7.50798e-05
0.041272 -2.71051e-20 0.00123128 5.85538e-05 -2.73827e-05 1.28825e-05
-0.0414111 -2.25875e-21 0.00202219 0.00982894 -0.00252856 0.000106865
0.0414112 0 0.00202236 6.26376e-05 -1.79948e-05 -9.10485e-06
-0.0414655 -2.71051e-21 0.00100479 0.0134762 -0.00382276 9.30584e-05
0.0414656 5.42101e-21 0.00100527 4.53608e-05 -1.93712e-05 2.48602e-05
0.0414387 6.77626e-21 0.00247143 0 0 0
-0.0414387 0 0.00247142 0 0 0
-0.0415231 1.35525e-20 0.000300335 0.00564938 -0.00161704 6.17061e-05
0.0415231 -1.35525e-20 0.000300526 -9.97098e-05 1.85384e-05 8.80128e-06
0.0414667 0 0.00241974 2.51557e-05 -9.50073e-06 -7.13362e-07
-0.0414667 0 0.00241973 0.00164729 -0.000466467 3.0026e-05
-0.0415317 4.51751e-21 0.00151516 0.014432 -0.00400028 3.61228e-05
0.0415317 -6.77626e-21 0.0015155 0.000131772 -3.94255e-05 -2.9403e-06
-0.0415257 0 0.00236274 0.0026686 -0.000718912 9.0816e-07
0.0415258 6.77626e-21 0.00236276 8.68835e-06 -3.89957e-06 -7.5846e-08
-0.0415358 2.03288e-20 0.00248474 0 0 0
0.0415358 6.77626e-21 0.00248475 0 0 0
-0.0417744 -6.77626e-21 8.98208e-05 0.00192211 -0.000540246 1.49911e-05
0.0417745 0 8.98629e-05 -3.59873e-05 5.01352e-06 3.57722e-06
-0.0417779 -6.77626e-21 6.56267e-09 0 0 0
0.041778 0 6.55901e-09 0 0 0
-0.0418022 0 0.000615402 0.0104265 -0.00291878 7.04652e-05
0.0418022 -2.25875e-21 0.000615762 -3.27882e-05 -1.41465e-05 2.26186e-05
-0.0417906 -2.71051e-20 0.00186249 0.0124497 -0.00343543 6.99144e-05
0.0417906 2.71051e-20 0.00186269 9.10442e-05 -3.65493e-05 -1.95386e-05
-0.0417567 6.77626e-21 0.00251504 0 0 0
0.0417567 2.03288e-20 0.00251505 0 0 0
-0.0417893 7.52918e-22 0.0022836 0.00683328 -0.0017308 0.000110447
0.0417893 -1.50584e-21 0.00228367 -3.24254e-06 7.30649e-06 -6.12981e-06
-0.0418476 6.77626e-21 0.00117393 0.0151754 -0.00423715 4.58416e-05
0.0418476 -2.25875e-21 0.00117434 7.86694e-05 -3.81428e-05 1.35538e-05
-0.0418763 1.35525e-20 -1.15002e-09 0 0 0
0.0418764 0 -1.15404e-09 0 0 0
-0.0419536 1.35525e-20 8.50389e-05 0.00201956 -0.000578971 1.9179e-05
0.0419536 0 8.50569e-05 -3.88122e-05 5.35982e-06 8.71309e-07
-0.0419539 0 -1.03272e-09 0 0 0
0.041954 -1.35525e-20 -1.0365e-09 0 0 0
0.0419533 0 0.00254202 0 0 0
-0.0419533 1.35525e-20 0.00254201 0 0 0
-0.0419887 -1.35525e-20 0.0019478 0.0126909 -0.00347554 4.41171e-05
0.0419887 0 0.00194795 6.13004e-05 -2.33008e-05 -1.31599e-05
-0.0420605 -4.51751e-21 0.00226453 0.00777081 -0.00207639 9.45691e-05
0.0420605 0 0.00226459 5.52917e-05 -9.11915e-06 -4.59701e-06
-0.042061 0 0.00250113 0.00184197 -0.000446096 2.8814e-05
0.042061 1.35525e-20 0.00250114 1.61233e-05 -9.33871e-06 -5.70572e-06
-0.0421378 0 0.000921112 0.0156731 -0.00432314 4.30248e-05
0.0421378 4.06576e-20 0.000921356 -5.40693e-06 -1.6276e-05 1.33868e-05
-0.0420718 6.77626e-21 0.00255827 0 0 0
0.0420718 6.77626e-21 0.00255827 0 0 0
0.0421546 0 0.000313421 -0.00012485 1.77883e-05 2.63354e-06
-0.0421546 -2.71051e-20 0.000313301 0.00663846 -0.00187014 5.27396e-05
-0.0421336 -4.51751e-21 0.0016375 0.0162114 -0.00446548 -6.92135e-05
0.0421336 -1.35525e-20 0.00163769 0.000117813 -4.00213e-05 4.69212e-06
-0.0421793 -6.77626e-21 0.002247 0.00847875 -0.00230229 0.000117431
0.0421793 6.77626e-21 0.00224705 9.16512e-05 -1.26881e-05 -1.09953e-06
0.0423852 6.77626e-21 6.66393e-05 -3.04071e-05 4.19911e-06 6.8262e-07
-0.0423852 0 6.66078e-05 0.0015818 -0.000453473 1.50218e-05
-0.0423913 0 1.33679e-09 0 0 0
0.0423913 0 1.33598e-09 0 0 0
-0.0423173 0 0.00259195 0 0 0
0.0423174 -6.77626e-21 0.00259196 0 0 0
-0.0423622 1.35525e-20 0.00253137 0.0022088 -0.000534936 3.45524e-05
0.0423623 0 0.00253138 1.93325e-05 -1.11975e-05 -6.84139e-06
0.0424524 0 1.43798e-09 0 0 0
-0.0424524 -6.77626e-21 1.43857e-09 0 0 0
-0.0424509 1.12938e-21 0.000611632 0.0117249 -0.00322016 -1.52856e-05
0.0424509 1.12938e-21 0.000611739 -7.87168e-05 2.26349e-06 3.11792e-06
-0.042444 2.25875e-21 0.00122872 0.0176724 -0.00480505 -5.1172e-05
0.0424441 4.51751e-21 0.00122884 4.42465e-05 -3.10054e-05 1.14365e-05
-0.0425171 6.77626e-21 1.31915e-09 0 0 0
0.0425171 0 1.31866e-09 0 0 0
-0.0425183 0 6.48504e-05 0.001639 -0.000459114 -9.66528e-06
0.0425183 0 6.48584e-05 -3.06735e-05 4.48874e-06 -7.89755e-07
-0.0424587 -3.38813e-21 0.00227178 0.00899221 -0.00242049 5.18773e-05
0.0424587 -3.38813e-21 0.00227182 7.1422e-05 -1.56395e-05 -2.22993e-06
-0.0424457 0 0.00260956 0 0 0
0.0424458 -1.35525e-20 0.00260957 0 0 0
-0.0424966 -4.51751e-21 0.00189079 0.0153107 -0.00415872 2.0281e-06
0.0424967 -9.03502e-21 0.00189085 7.0068e-05 -2.54595e-05 9.95925e-06
-0.0425605 -1.35525e-20 0.00254401 0.00289324 -0.000700959 -4.66918e-05
0.0425605 -1.35525e-20 0.00254402 7.72892e-08 -3.28126e-06 -8.55059e-06
-0.0426002 -6.77626e-21 0.00263076 0 0 0
0.0426003 1.35525e-20 0.00263076 0 0 0
0.0427577 2.71051e-20 0.000308577 -0.000126308 1.62848e-05 -5.51759e-06
-0.0427577 0 0.000308578 0.00704145 -0.00196066 -5.30827e-05
-0.042762 0 0.00092253 0.0177812 -0.00479046 -0.000109054
0.042762 2.71051e-20 0.000922525 -5.99004e-05 -7.92046e-06 1.80942e-06
-0.042748 1.35525e-20 0.00216861 0.0126774 -0.00347727 6.01037e-05
0.0427481 0 0.00216862 0.000101635 -2.62199e-05 5.12708e-06
-0.0427408 -4.06576e-20 0.00240953 0.00751703 -0.00195371 -1.5498e-05
0.0427408 0 0.00240953 4.51776e-05 -8.42968e-06 -1.36044e-05
-0.0428416 5.42101e-21 0.00164355 0.0193148 -0.0051893 -2.04734e-06
0.0428416 1.35525e-20 0.00164354 5.43678e-05 -3.06239e-05 2.08589e-05
-0.0428297 0 0.00266224 0 0 0
0.0428297 2.71051e-20 0.00266224 0 0 0
0.0429615 0 5.93011e-11 0 0 0
-0.0429615 0 5.79639e-11 0 0 0
-0.0428847 0 0.00256824 0.00361382 -0.000875539 -5.83208e-05
0.0428847 -1.35525e-20 0.00256825 9.65432e-08 -4.09868e-06 -1.06807e-05
0.0429621 -1.35525e-20 9.52028e-05 -4.50252e-05 6.58896e-06 -1.15927e-06
-0.0429622 1.35525e-20 9.51811e-05 0.00240561 -0.000673856 -1.4186e-05
-0.0429936 5.80823e-21 0.00192518 0.0163732 -0.0044179 2.28615e-05
0.0429937 -3.87215e-21 0.00192513 8.57109e-05 -3.62559e-05 1.16479e-05
-0.0430551 0 -1.06622e-10 0 0 0
0.0430551 0 -1.05152e-10 0 0 0
0.0430752 4.51751e-21 0.000610558 -0.00010337 9.57696e-06 1.00475e-06
-0.0430752 -6.77626e-21 0.000610657 0.0129047 -0.00348763 -6.49121e-05
0.0430107 1.35525e-20 0.00268706 0 0 0
-0.0430107 -1.35525e-20 0.00268706 0 0 0
-0.0430775 2.25875e-21 0.00123361 0.0199842 -0.00536793 -4.58077e-05
0.0430775 0 0.00123349 -8.2315e-06 -1.78181e-05 1.15868e-05
-0.0430372 -2.25875e-21 0.00230972 0.0106948 -0.00289154 3.62344e-05
0.0430373 2.25875e-21 0.00230971 7.60278e-05 -2.22846e-05 1.17753e-06
-0.0431637 0 1.5382e-11 0 0 0
0.0431637 0 1.67288e-11 0 0 0
-0.0431652 1.35525e-20 0.000103815 0.00272765 -0.000747102 -1.47861e-05
0.0431652 0 0.000103811 -4.97624e-05 8.83634e-06 -8.80897e-08
0.0432457 -1.35525e-20 0.00271928 0 0 0
-0.0432458 6.77626e-21 0.00271929 0 0 0
0.0433794 -2.71051e-20 0.000307824 -0.000131336 2.47609e-05 -3.05278e-07
-0.0433795 0 0.000307922 0.00748247 -0.00202172 -5.32408e-05
-0.0433141 4.51751e-21 0.00255689 0.00568877 -0.00154551 7.54049e-06
0.0433141 9.03502e-21 0.00255689 2.03868e-05 -3.57251e-06 4.29365e-07
-0.0433486 -2.25875e-20 0.00207031 0.0164303 -0.00443773 8.12659e-05
0.0433486 -9.03502e-21 0.00207025 0.000120892 -4.48832e-05 1.11495e-05
0.0433928 -2.71051e-20 0.000922169 -9.3717e-05 3.87208e-06 8.24157e-06
-0.0433928 -2.71051e-20 0.000922361 0.0194352 -0.00521377 -4.49428e-05
-0.043354 -2.71051e-20 0.00273413 0 0 0
0.043354 2.03288e-20 0.00273414 0 0 0
-0.0434187 4.51751e-21 0.0016019 0.0214156 -0.00578217 1.30201e-05
0.0434187 6.77626e-21 0.00160173 2.39075e-05 -2.00284e-05 1.28557e-05
0.0435473 0 9.019e-10 0 0 0
-0.0435473 -1.35525e-20 9.01633e-10 0 0 0
0.0435506 0 0.000132384 -6.34584e-05 1.12683e-05 -1.12334e-07
-0.0435506 0 0.00013241 0.00347897 -0.000952887 -1.88588e-05
-0.0436835 2.71051e-20 1.03606e-09 0 0 0
0.0436835 -2.71051e-20 1.03617e-09 0 0 0
0.0436251 2.11758e-22 0.00235498 9.87666e-05 -3.03065e-05 -5.70603e-07
-0.0436252 2.11758e-22 0.00235502 0.0123755 -0.00339916 6.97599e-05
0.0436012 2.71051e-20 0.00276801 0 0 0
-0.0436012 0 0.00276801 0 0 0
0.0436982 -4.51751e-21 0.000607493 -0.000120965 1.43298e-05 4.95813e-06
-0.0436983 0 0.000607717 0.0138882 -0.00374276 -7.21054e-06
0.0436672 0 0.00190306 7.1051e-05 -3.39254e-05 2.78714e-06
-0.0436672 -2.71051e-20 0.0019032 0.0194171 -0.00521593 4.01394e-05
0.0436479 0 0.00235467 9.96226e-05 -3.06044e-05 -6.03586e-07
-0.0436535 0 0.00235493 0.0124511 -0.00342174 7.10886e-05
0.0437002 -9.03502e-21 0.00112951 -6.12082e-05 -5.84241e-06 7.83886e-06
-0.0437002 4.51751e-21 0.0011298 0.0210429 -0.00565018 1.4626e-06
-0.0436555 -2.11758e-22 0.00236095 0.0123675 -0.00340143 7.11668e-05
0.0436555 2.11758e-22 0.00236091 9.88916e-05 -3.02741e-05 -8.22349e-07
0.0438316 -2.71051e-20 0.000140387 -7.0138e-05 1.18707e-05 -5.32052e-07
-0.0438317 0 0.000140437 0.00384761 -0.00104861 -3.11354e-06
-0.0438324 1.35525e-20 1.26291e-09 0 0 0
0.0438324 1.35525e-20 1.263e-09 0 0 0
0.044004 0 0.000302869 -0.000142915 2.3985e-05 2.38737e-06
-0.044004 -1.35525e-20 0.000303007 0.00784918 -0.00214947 7.87833e-06
0.0439928 0 0.00156096 -7.32509e-06 -2.17195e-05 7.42288e-06
-0.0439928 2.25875e-21 0.00156117 0.0237267 -0.00637832 8.47361e-06
-0.0439354 -6.77626e-21 0.00281381 0 0 0
0.0439354 -2.5411e-20 0.00281382 0 0 0
-0.0439809 -4.51751e-21 0.00211391 0.0187753 -0.00508525 3.90238e-05
0.0439809 -1.807e-20 0.00211382 0.000115071 -3.55271e-05 -2.91027e-06
-0.0439531 -1.69407e-21 0.00279275 0.000871056 -0.000251957 5.36549e-06
0.0439531 3.38813e-21 0.0027928 4.68159e-06 -9.4888e-07 -1.26628e-06
-0.043961 -1.69407e-21 0.00281732 0 0 0
0.043961 0 0.00281732 0 0 0
-0.0440043 2.25875e-21 0.0025931 0.00820706 -0.00234384 5.05295e-05
0.0440043 0 0.00259309 5.06415e-05 -1.23157e-05 -1.02591e-05
0.0440988 0 0.00101219 -9.97059e-05 -5.70562e-08 6.72756e-06
-0.0440988 -8.13152e-21 0.0010125 0.0217474 -0.00585095 3.67356e-05
0.0441598 2.71051e-20 2.36366e-09 0 0 0
-0.0441598 0 2.3638e-09 0 0 0
0.0441637 0 0.000147457 -7.367e-05 1.24685e-05 -5.58845e-07
-0.0441637 0 0.000147511 0.00404137 -0.00110142 -3.27033e-06
-0.0443161 0 2.58835e-09 0 0 0
0.0443161 -1.35525e-20 2.58819e-09 0 0 0
0.0443172 -9.03502e-21 0.000604412 -0.000138784 1.6559e-05 1.81284e-06
-0.0443172 4.51751e-21 0.000604657 0.0148541 -0.00403368 4.11712e-05
0.0442814 -5.42101e-20 0.00191676 6.19519e-05 -3.31896e-05 -4.07629e-06
-0.0442814 -2.71051e-20 0.00191692 0.0217838 -0.0058578 -4.78987e-06
0.0443137 2.71051e-20 0.00123266 -5.99974e-05 -6.70096e-06 2.86668e-06
-0.0443137 0 0.00123298 0.0235901 -0.00636605 1.34533e-05
-0.0442645 2.71051e-20 0.00285891 0 0 0
0.0442646 2.71051e-20 0.00285892 0 0 0
0.0443414 -4.51751e-21 0.00231325 0.000117451 -3.96682e-05 -5.52305e-06
-0.0443414 -4.51751e-21 0.00231331 0.0168166 -0.0045591 1.45533e-05
-0.0444716 0 0.000150042 0.00429891 -0.00118688 1.75301e-05
0.0444716 -2.71051e-20 0.000150001 -7.48826e-05 1.21609e-05 -2.02809e-06
-0.0444749 -1.35525e-20 2.3549e-09 0 0 0
0.0444749 1.35525e-20 2.35475e-09 0 0 0
0.0445335 1.89735e-20 0.00101154 -0.000119723 6.97866e-06 -8.24195e-07
-0.0445335 1.0842e-20 0.00101185 0.0228153 -0.00616912 3.92312e-05
-0.0445227 9.03502e-21 0.00155722 0.0256069 -0.00691394 -9.11753e-06
0.0445227 -9.03502e-21 0.00155701 -1.95417e-05 -1.80151e-05 3.48718e-07
-0.0445478 -2.71051e-20 0.00210098 0.0214684 -0.00581774 -6.04794e-05
0.0445478 2.71051e-21 0.00210088 0.000145829 -5.64666e-05 -1.15174e-06
-0.0445257 -1.35525e-20 0.00289471 0 0 0
0.0445258 -3.38813e-20 0.00289472 0 0 0
0.0446295 0 0.000304347 -0.000147628 2.31199e-05 -2.26606e-06
-0.0446295 -1.35525e-20 0.000304461 0.00833787 -0.00231744 4.45818e-05
-0.044594 0 0.00278583 0.00453742 -0.00131725 2.75307e-06
0.044594 0 0.00278588 3.30083e-05 -8.1885e-06 5.63621e-07
-0.0446261 0 0.00264116 0.00989751 -0.00283075 1.03817e-05
0.0446261 -2.25875e-21 0.00264114 7.11881e-05 -1.93457e-05 8.79452e-08
0.0446645 0 0.00291372 0 0 0
-0.0446646 -6.77626e-21 0.00291373 0 0 0
0.0447808 1.35525e-20 1.63152e-09 0 0 0
-0.0447808 1.35525e-20 1.63155e-09 0 0 0
0.0447854 0 0.00015027 -7.5017e-05 1.21827e-05 -2.03173e-06
-0.0447855 1.35525e-20 0.000150312 0.00430666 -0.00118902 1.75617e-05
-0.0449405 0 1.3988e-09 0 0 0
0.0449405 1.35525e-20 1.39877e-09 0 0 0
0.044942 2.25875e-21 0.000602417 -0.000155711 1.89094e-05 -4.54875e-06
-0.044942 -4.51751e-21 0.00060259 0.0157808 -0.00430477 7.76289e-06
0.0449381 -6.77626e-21 0.00123202 -9.95938e-05 1.41887e-07 -2.78136e-06
-0.0449382 -9.03502e-21 0.00123223 0.0257626 -0.00697519 -2.43559e-05
0.0449431 -4.51751e-21 0.00185203 6.19711e-05 -4.22874e-05 2.51334e-06
-0.0449431 0 0.00185217 0.0255268 -0.00688708 -4.466e-05
0.0449492 -4.51751e-21 0.00232791 0.000130165 -5.58906e-05 2.79079e-07
-0.0449492 0 0.00232797 0.0190414 -0.00512039 -1.88049e-05
0.0449214 -1.35525e-20 0.00294893 0 0 0
-0.0449214 0 0.00294893 0 0 0
-0.0451017 -1.35525e-20 1.29463e-09 0 0 0
0.0451017 0 1.2946e-09 0 0 0
-0.0450995 0 0.00297331 0 0 0
0.0450995 -2.03288e-20 0.00297331 0 0 0
-0.045251 9.03502e-21 0.000202824 0.00547731 -0.00151639 4.28601e-06
0.045251 9.03502e-21 0.000202783 -9.27087e-05 1.25803e-05 -2.72402e-06
0.0452595 0 0.000915145 -0.0001764 1.75899e-05 -9.59477e-06
-0.0452595 0 0.000915292 0.024099 -0.00652958 -6.812e-05
0.045262 0 0.00154673 -6.4814e-05 -9.62604e-06 -8.50088e-07
-0.045262 0 0.00154687 0.0295565 -0.00800129 -3.83196e-05
0.0452616 0 0.00214816 0.000171223 -8.16649e-05 1.00795e-05
-0.0452617 0 0.00214823 0.0243844 -0.0065046 -2.4962e-05
0.0452367 2.25875e-21 0.00269257 3.37687e-05 -2.35727e-05 7.21767e-06
-0.0452367 0 0.00269258 0.0113204 -0.00311685 9.06047e-05
0.0453935 0 1.00959e-09 0 0 0
-0.0453935 0 1.00963e-09 0 0 0
0.0453384 0 0.00300597 0 0 0
-0.0453384 0 0.00300597 0 0 0
-0.045559 -1.35525e-20 9.03952e-10 0 0 0
0.045559 -2.71051e-20 9.03906e-10 0 0 0
0.0455698 2.25875e-21 0.000598369 -0.000169046 1.86889e-05 -4.28397e-06
-0.0455698 0 0.000598452 0.0165856 -0.00450785 -1.40448e-05
0.045574 -1.35525e-20 0.00122571 -0.000128943 3.40251e-06 -4.43233e-06
-0.045574 9.03502e-21 0.00122582 0.0275663 -0.00746079 -3.53312e-05
-0.0454949 4.06576e-20 0.00302739 0 0 0
0.0454949 0 0.00302739 0 0 0
0.045575 0 0.00186033 5.12824e-05 -4.47423e-05 -4.16895e-07
-0.045575 -4.51751e-21 0.0018604 0.0279585 -0.00753405 -2.37514e-05
0.0455636 9.03502e-21 0.00235679 0.000134582 -6.32539e-05 -2.02123e-06
-0.0455636 -9.03502e-21 0.00235682 0.0213425 -0.00573658 2.40084e-05
-0.0456185 1.35525e-20 0.00304441 0 0 0
0.0456185 6.77626e-21 0.00304441 0 0 0
-0.0457296 0 8.66649e-10 0 0 0
0.0457296 0 8.66605e-10 0 0 0
-0.0458748 0 0.000203876 0.00576656 -0.00158069 2.11812e-05
0.0458748 9.03502e-21 0.000203862 -9.77387e-05 1.28983e-05 -2.53036e-07
0.0458876 -2.71051e-20 0.000909899 -0.000196278 1.58262e-05 -3.00108e-06
-0.0458876 0 0.000909967 0.0253261 -0.00682898 -1.17299e-05
-0.0458326 -2.71051e-21 0.00274325 0.0126649 -0.00334078 0.000208258
0.0458326 3.16226e-21 0.00274325 0.000112554 -5.17297e-05 -4.62485e-06
0.0458898 0 0.00154847 -7.37397e-05 -1.19972e-05 -4.49533e-06
-0.0458898 0 0.00154853 0.0315417 -0.00855469 -2.27162e-05
0.0458888 0 0.00217764 0.000163919 -7.4128e-05 -7.63226e-06
-0.0458889 2.71051e-20 0.00217767 0.0268265 -0.00720801 -1.31818e-05
-0.0458626 -6.77626e-21 0.00307837 0 0 0
0.0458626 -1.35525e-20 0.00307837 0 0 0
0.0460115 -1.35525e-20 7.57524e-10 0 0 0
-0.0460115 2.71051e-20 7.57548e-10 0 0 0
-0.0459673 -6.77626e-21 0.0030928 0 0 0
0.0459674 1.35525e-20 0.0030928 0 0 0
-0.0461847 0 7.198e-10 0 0 0
0.0461847 0 7.19779e-10 0 0 0
-0.0461957 6.77626e-21 0.000591487 0.0172838 -0.0046384 1.7339e-05
0.0461957 2.25875e-21 0.000591455 -0.000181386 1.59353e-05 -2.70399e-06
0.0462006 -6.77626e-21 0.00122009 -0.000147132 -2.12319e-06 -5.59947e-06
-0.0462006 2.25875e-21 0.00122013 0.029163 -0.00784253 -8.21934e-06
0.0462019 0 0.00186862 5.11956e-05 -5.11692e-05 -6.28556e-06
-0.0462019 -6.77626e-21 0.00186864 0.0302598 -0.00813794 -4.792e-05
-0.0461655 -6.77626e-21 0.00312126 0 0 0
0.0461656 -2.03288e-20 0.00312127 0 0 0
-0.0461939 -1.35525e-20 0.00295331 0.00768911 -0.00187334 0.000185452
0.0461939 0 0.00295328 3.94209e-05 -1.5921e-05 -5.41055e-06
-0.0462707 2.25875e-21 0.00256437 0.0190929 -0.00508667 8.52295e-05
0.0462707 -4.51751e-21 0.00256437 0.000136381 -5.31444e-05 -7.80338e-06
-0.0463595 -2.71051e-20 6.73842e-10 0 0 0
0.0463595 2.71051e-20 6.73822e-10 0 0 0
-0.0463949 3.38813e-21 0.00315229 0 0 0
0.046395 0 0.0031523 0 0 0
-0.046506 0 0.000199294 0.00589208 -0.00156494 2.17079e-05
0.046506 1.807e-20 0.000199294 -9.94118e-05 1.0755e-05 -2.10768e-06
0.0465144 0 0.000898641 -0.000219489 9.6327e-06 -4.01489e-06
-0.0465144 0 0.000898665 0.0264627 -0.0070351 2.91673e-05
0.0465158 2.71051e-20 0.00154147 -9.33456e-05 -2.45825e-05 -1.13591e-05
-0.0465158 0 0.00154149 0.0336359 -0.00903377 -2.94136e-05
0.0464366 3.38813e-21 0.00315806 0 0 0
-0.0464366 3.38813e-21 0.00315806 0 0 0
0.0464514 -6.77626e-21 0.0031144 3.90497e-05 -5.3311e-06 -1.71497e-06
-0.0464514 0 0.00311437 0.00169952 -0.000441271 4.41512e-05
0.0465218 2.71051e-20 0.00218627 0.000199497 -9.28043e-05 -2.41994e-06
-0.0465218 2.71051e-20 0.00218628 0.0295324 -0.00789638 -0.000130569
0.0466484 1.35525e-20 5.2382e-10 0 0 0
-0.0466484 2.71051e-20 5.23805e-10 0 0 0
-0.0466132 9.03502e-21 0.00290744 0.0105484 -0.00272379 0.000209231
0.0466132 2.25875e-21 0.00290743 0.000171371 -3.25664e-05 -1.09421e-05
-0.0468205 -2.71051e-20 4.77071e-10 0 0 0
0.0468205 0 4.77088e-10 0 0 0
-0.0468261 -9.03502e-21 0.00058046 0.0178283 -0.00470828 1.76303e-05
0.0468261 -2.25875e-21 0.000580448 -0.000196965 1.84701e-05 -4.91648e-06
0.0467233 0 0.00319817 0 0 0
-0.0467234 0 0.00319819 0 0 0
0.0468292 -6.77626e-21 0.00120515 -0.000174257 -5.64317e-07 -9.89887e-06
-0.0468292 -6.77626e-21 0.00120516 0.030663 -0.00817782 -2.79382e-06
0.0468326 -6.77626e-21 0.00185915 4.28668e-05 -5.65828e-05 -7.50426e-06
-0.0468326 -9.03502e-21 0.00185916 0.0327892 -0.00875765 -6.46794e-05
-0.0468472 1.0842e-20 0.00253599 0.0221868 -0.00593557 -3.59687e-06
0.0468472 -9.03502e-22 0.00253598 0.000178415 -6.7556e-05 -6.01923e-06
0.0468396 -1.69407e-21 0.00321454 0 0 0
-0.0468396 0 0.00321454 0 0 0
0.0468444 0 0.00320755 5.53621e-06 -2.01531e-06 -9.15975e-07
-0.0468444 0 0.00320756 0.000350225 -8.34326e-05 8.16383e-06
0.0468557 0 0.00318854 1.39029e-05 -4.01671e-06 -1.47414e-06
-0.0468557 1.69407e-21 0.00318856 0.00114724 -0.000301619 5.05935e-06
0.0468539 -1.69407e-21 0.00321654 0 0 0
-0.0468539 0 0.00321653 0 0 0
-0.0468678 0 0.00320873 0.000467263 -0.000112845 -1.09985e-05
0.0468679 0 0.00320873 4.31433e-06 -1.5612e-06 -1.55588e-06
-0.0468728 3.38813e-21 0.00321918 0 0 0
0.0468729 1.69407e-21 0.00321918 0 0 0
-0.0469903 -1.35525e-20 4.262e-10 0 0 0
0.0469903 -1.35525e-20 4.26209e-10 0 0 0
0.0470012 0 0.00293207 0.000163906 -3.59823e-05 -1.8204e-05
-0.0470012 0 0.00293208 0.0123092 -0.0033012 4.68376e-05
0.0471425 -9.03502e-21 0.000190384 -9.94307e-05 1.86041e-05 -4.31466e-06
-0.0471425 0 0.000190377 0.00573552 -0.0014915 -1.58642e-05
0.0471463 2.71051e-20 0.000881282 -0.000254623 1.92674e-05 -4.99475e-06
-0.0471463 0 0.000881291 0.0273364 -0.00719369 3.11545e-05
-0.0471461 5.42101e-20 0.00152023 0.0355775 -0.00954151 -4.59557e-05
0.0471461 -2.71051e-20 0.00152022 -0.000122988 -9.3428e-06 -1.9754e-05
-0.047153 -2.71051e-20 0.00216928 0.032813 -0.00867433 -4.80624e-05
0.047153 0 0.00216927 0.000180344 -9.79137e-05 3.0668e-06
-0.0471472 -6.77626e-21 0.00293418 0.0128803 -0.00347205 -2.89317e-05