# k  POINT_DATA 26382
# x  y  z  k
0 -0.000876979 6.01824e-09 0.000819727
0 0.000373006 0.00116944 0.000819287
8.27181e-25 0.001623 4.67384e-09 0.000818817
1.03398e-25 -0.000876994 0.00215245 0.000695773
0 -0.00212699 0.00116944 0.000820167
2.06795e-25 0.001623 0.00182382 0.000713331
-1.03398e-25 -0.000876994 0.00233887 0.000685038
2.06795e-25 0.001623 0.00233887 0.000683542
-1.0842e-19 0.00287301 0.00116943 0.000818347
0 -0.00236739 0.00233887 0.000685902
0 -0.00337698 7.72602e-09 0.000820578
-1.0842e-19 0.000373002 0.00356873 0.000547155
0 -0.003377 0.00233887 0.000686487
0 0.00412303 4.87104e-09 0.000817846
1.0842e-19 -0.002127 0.00356872 0.00054923
0 0.00412301 0.00187853 0.000708735
1.0842e-19 0.002873 0.00356872 0.000545046
0 -0.003377 0.00327131 0.000601291
0 0.00412301 0.00233887 0.000681997
1.0842e-19 -0.004627 0.00116943 0.000820989
-1.03398e-25 -0.000876999 0.00479858 0.000459945
0 0.001623 0.00479858 0.000458121
0 0.00537301 0.00116944 0.000817344
-1.0842e-19 -0.004627 0.00356872 0.00055127
-1.03398e-25 -0.003377 0.00479858 0.000461746
0 -0.005877 8.41764e-09 0.000821374
0 0.000373001 0.00608215 0.000369647
1.23491e-20 -0.005877 0.00233887 0.000687892
2.06795e-25 0.004123 0.00479858 0.000456275
-2.1684e-19 -0.002127 0.00608215 0.000371194
2.1684e-19 0.005373 0.00356873 0.000542901
-8.27181e-25 0.00662302 5.69423e-09 0.00081681
-1.0842e-19 0.002873 0.00608215 0.000368091
-5.16988e-25 0.006623 0.00206606 0.000696314
0 -0.005877 0.00373585 0.000560463
0 0.006623 0.00233887 0.000680403
2.1684e-19 -0.00712701 0.00116943 0.000821758
0 -0.000876999 0.00736572 0.000334527
-1.03398e-25 0.001623 0.00736572 0.000333365
0 -0.005877 0.00479858 0.000463525
1.0842e-19 -0.004627 0.00608215 0.00037273
0 0.007873 0.00116944 0.000816276
1.0842e-19 -0.007127 0.00356872 0.000553277
5.16988e-26 -0.003377 0.00736572 0.000335686
1.0842e-19 0.005373 0.00608215 0.000366528
2.06795e-25 0.006623 0.00479858 0.000454409
0 -0.008377 8.14506e-09 0.000822118
0 0.004123 0.00736572 0.000332202
0 0.007873 0.00356873 0.000540723
0 0.000373 0.00865601 0.000298181
-2.57643e-20 -0.008377 0.00233887 0.000689254
-1.0842e-19 -0.002127 0.008656 0.000298955
7.75482e-26 -0.008377 0.00347115 0.000586153
2.1684e-19 0.002873 0.008656 0.000297413
0 0.009123 5.76164e-09 0.000815709
1.03398e-25 0.009123 0.00210367 0.000692531
0 -0.007127 0.00608215 0.000374257
0 0.009123 0.00233887 0.000678759
5.16988e-26 -0.005877 0.00736572 0.000336842
1.03398e-25 -0.008377 0.00479858 0.000465282
1.0842e-19 -0.009627 0.00116944 0.000822478
0 -0.004627 0.00865601 0.000299734
1.03398e-25 0.006623 0.00736572 0.000331039
1.0842e-19 0.007873 0.00608215 0.000364957
2.58494e-26 -0.000877 0.00994629 0.000282473
0 0.001623 0.00994629 0.000282
-3.25261e-19 0.005373 0.008656 0.00029665
1.0842e-19 -0.009627 0.00356873 0.000555251
0 0.009123 0.00479858 0.000452522
-1.0842e-19 0.010373 0.00116944 0.000815141
0 -0.003377 0.00994629 0.000282954
-2.58494e-26 0.004123 0.00994629 0.000281536
0 -0.010877 7.63523e-09 0.000822813
0 0.010373 0.00356873 0.00053851
-8.8696e-21 -0.010877 0.00233887 0.000690575
0 -0.008377 0.00736572 0.000337995
1.0842e-19 -0.007127 0.008656 0.000300515
0 0.000373 0.011217 0.000266371
0 -0.010877 0.00320213 0.000612115
0 -0.009627 0.00608215 0.000375772
-2.1684e-19 -0.002127 0.011217 0.000266553
0 -0.005877 0.00994629 0.000283442
1.0842e-19 0.002873 0.011217 0.0002662
0 0.011623 5.15475e-09 0.000814541
-2.1684e-19 0.007873 0.008656 0.000295895
0 0.009123 0.00736572 0.000329877
-2.06795e-25 0.011623 0.00189818 0.000702968
-2.06795e-25 0.011623 0.00233887 0.000677064
0 -0.010877 0.00479858 0.000467017
2.58494e-26 0.006623 0.00994629 0.00028108
-1.0842e-19 0.010373 0.00608215 0.00036338
-1.0842e-19 -0.004627 0.011217 0.000266745
-1.0842e-19 -0.012127 0.00116943 0.000823148
0 0.005373 0.011217 0.000266041
0 -0.000877 0.0124878 0.000256633
0 0.011623 0.00479858 0.000450615
0 0.001623 0.0124878 0.000256657
-1.0842e-19 -0.012127 0.00356873 0.000557191
-2.1684e-19 0.012873 0.00116944 0.000813941
3.23117e-27 -0.003377 0.0124878 0.000256621
-1.0842e-19 -0.009627 0.008656 0.000301299
0 -0.008377 0.00994629 0.000283936
0 -0.010877 0.00736572 0.000339143
0 0.004123 0.0124878 0.000256694
0 -0.007127 0.011217 0.000266948
1.0842e-19 0.012873 0.00356872 0.000536263
0 -0.013377 7.2543e-09 0.000823461
-2.58494e-26 0.009123 0.00994629 0.000280637
-1.0842e-19 0.010373 0.00865601 0.000295151
2.1684e-19 -0.012127 0.00608215 0.000377276
1.21394e-19 -0.013377 0.00233887 0.000691856
0 0.007873 0.011217 0.000265894
-1.0842e-19 0.000373 0.0137433 0.000246952
0 0.011623 0.00736572 0.000328718
-2.58494e-26 -0.013377 0.0033489 0.000600234
0 -0.005877 0.0124878 0.000256622
1.0842e-19 -0.002127 0.0137433 0.000246735
-1.0842e-19 0.002873 0.0137433 0.000247183
0 0.014123 3.99365e-09 0.000813307
0 0.006623 0.0124878 0.000256745
4.1359e-25 0.014123 0.0013649 0.000732781
0 -0.013377 0.00479858 0.00046873
-1.0842e-19 0.012873 0.00608215 0.000361799
4.1359e-25 0.014123 0.00233887 0.000675319
1.0842e-19 -0.004627 0.0137433 0.000246532
1.0842e-19 -0.014627 0.00116943 0.000823773
0 -0.010877 0.00994629 0.000284437
0 0.005373 0.0137433 0.000247429
0 0.0147711 0 0.000812969
1.0842e-19 -0.009627 0.011217 0.00026716
0 -0.012127 0.008656 0.000302086
-2.06795e-25 0.014123 0.00479858 0.000448689
0 -0.000877 0.0149988 0.00023844
0 -0.008377 0.0124878 0.000256634
0 -0.014627 0.00356872 0.0005591
0 0.001623 0.0149988 0.000238798
5.16988e-26 -0.013377 0.00736572 0.000340286
0 0.010373 0.011217 0.000265763
2.58494e-26 0.011623 0.00994629 0.000280207
0 -0.003377 0.0149988 0.000238096
0 0.015373 0.00116944 0.000812673
-6.46235e-27 0.009123 0.0124878 0.000256812
1.0842e-19 -0.007127 0.0137433 0.000246343
1.0842e-19 0.012873 0.00865601 0.000294418
-4.03897e-28 0.004123 0.0149988 0.00023917
-1.0842e-19 0.015373 0.00356872 0.000533982
1.0842e-19 0.007873 0.0137433 0.000247692
0 -0.014627 0.00608215 0.000378769
8.27181e-25 -0.015877 6.82727e-09 0.000824065
-1.03398e-25 0.014123 0.00736572 0.000327562
-2.85264e-20 -0.015877 0.00233887 0.0006931
-2.01948e-28 -0.005877 0.0149988 0.000237767
2.58494e-26 -0.015877 0.00298249 0.000634832
1.0842e-19 0.000373 0.0162494 0.000230289
-1.0842e-19 -0.002127 0.0162494 0.000229804
0 0.006623 0.0149988 0.000239556
-1.0842e-19 0.002873 0.0162494 0.000230787
1.0842e-19 -0.012127 0.011217 0.000267382
-1.0842e-19 0.015373 0.00608215 0.000360213
0 -0.010877 0.0124878 0.000256657
-1.03398e-25 -0.015877 0.00479858 0.000470422
3.30872e-24 0.016623 1.14127e-08 0.000812005
0 -0.013377 0.00994629 0.000284943
0 -0.009627 0.0137433 0.000246167
0 0.016623 0.00233887 0.000673523
2.1684e-19 -0.004627 0.0162494 0.000229334
-1.0842e-19 -0.014627 0.00865601 0.000302875
0 0.011623 0.0124878 0.000256897
0 0.012873 0.011217 0.000265649
1.0842e-19 0.005373 0.0162494 0.0002313
0 -0.017127 0.00116943 0.000824356
2.01948e-28 -0.008377 0.0149988 0.000237451
1.0842e-19 0.010373 0.0137433 0.000247973
-2.58494e-26 0.014123 0.00994629 0.000279792
0 0.016623 0.00479858 0.000446744
-1.0842e-19 -0.017127 0.00356872 0.000560977
0 -0.015877 0.00736572 0.000341425
-2.47702e-28 -0.000877 0.0174912 0.000221178
0 -0.000877 0.0175 0.000221117
4.03897e-28 0.009123 0.0149988 0.000239955
-2.11415e-28 0.001623 0.0174922 0.000221729
0 0.001623 0.0175 0.000221675
0 0.015373 0.008656 0.000293697
0 -0.007127 0.0162494 0.000228879
-4.10208e-29 -0.003377 0.0174891 0.000220649
-1.91544e-20 -0.003377 0.0175 0.000220572
-1.0842e-19 0.017873 0.00116944 0.000811336
0 0.004123 0.0174928 0.000222295
-1.57772e-30 0.004123 0.0175 0.000222246
-1.0842e-19 0.007873 0.0162494 0.000231823
0 -0.017127 0.00608215 0.00038025
1.03398e-25 0.016623 0.00736572 0.000326411
1.0842e-19 0.017873 0.00356872 0.000531669
0 -0.013377 0.0124878 0.000256691
0 -0.012127 0.0137433 0.000246004
8.27181e-25 -0.018377 6.59756e-09 0.000824626
-1.0842e-19 -0.014627 0.011217 0.000267612
1.00974e-28 -0.005877 0.0174846 0.000220149
-1.57772e-30 -0.005877 0.0175 0.00022004
5.65533e-20 -0.018377 0.00233887 0.000694306
-2.01948e-28 -0.010877 0.0149988 0.000237149
-2.58494e-26 -0.018377 0.00268468 0.000663066
0 0.006623 0.0174931 0.000222874
0 0.006623 0.0175 0.000222828
0 -0.015877 0.00994629 0.000285454
1.0842e-19 0.000373 0.01875 0.000212499
1.0842e-19 0.012873 0.0137433 0.000248272
6.46235e-27 0.014123 0.0124878 0.000257
-1.0842e-19 -0.002127 0.01875 0.00021188
2.1684e-19 0.017873 0.00608215 0.000358623
-1.0842e-19 -0.009627 0.0162494 0.000228438
-1.03398e-25 0.0189411 0 0.000810734
0 0.002873 0.01875 0.000213129
0 0.011623 0.0149988 0.000240367
0 -0.018377 0.00479858 0.000472092
1.0842e-19 0.015373 0.011217 0.000265553
0 0.019123 8.95325e-10 0.000810634
0 0.019123 0.000442258 0.000784358
0 -0.017127 0.008656 0.000303666
0 0.019123 0.00233887 0.000671677
-1.0842e-19 0.010373 0.0162494 0.000232352
0 0.0193054 0 0.000810529
0 -0.004627 0.01875 0.000211273
2.58494e-26 0.016623 0.00994629 0.000279393
-1.10441e-29 -0.008377 0.0174794 0.00021967
-9.67102e-20 -0.008377 0.0175 0.000219522
-1.0842e-19 0.005373 0.01875 0.00021377
-1.0842e-19 -0.019627 0.00116943 0.000824896
0 0.019123 0.00479858 0.00044478
-2.31925e-28 0.009123 0.0174927 0.000223466
8.08529e-20 0.009123 0.0175 0.000223418
0 -0.018377 0.00736572 0.000342558
-1.0842e-19 0.017873 0.008656 0.000292991
-2.1684e-19 -0.019627 0.00356872 0.000562824
-3.54881e-20 -0.000877 0.02 0.000201973
1.0842e-19 -0.007127 0.01875 0.000210678
-9.67102e-20 0.001623 0.02 0.000202621
1.0842e-19 -0.014627 0.0137433 0.000245852
0 -0.013377 0.0149988 0.00023686
0 -0.015877 0.0124878 0.000256734
1.0842e-19 -0.012127 0.0162494 0.00022801
3.28979e-21 -0.003377 0.02 0.000201336
-1.0842e-19 0.007873 0.01875 0.000214421
0 0.020373 0.00116944 0.000809931
8.08456e-20 0.004123 0.02 0.000203278
0 -0.017127 0.011217 0.00026785
-1.03398e-25 0.019123 0.00736572 0.000325265
-1.0842e-19 -0.019627 0.00608215 0.000381719
3.31322e-29 -0.010877 0.0174792 0.000219168
0 0.014123 0.0149988 0.000240796
0 -0.010877 0.0175 0.000219017
0 0.015373 0.0137433 0.000248594
0 0.020373 0.00356872 0.000529321
0 0.012873 0.0162494 0.000232889
0 0.016623 0.0124878 0.000257124
-9.67102e-20 -0.005877 0.02 0.00020071
0 -0.020877 7.4195e-09 0.000825146
0 -0.018377 0.00994629 0.000285971
4.73317e-30 0.011623 0.0174915 0.000224072
-8.6935e-20 -0.020877 0.00233887 0.000695477
-1.91485e-20 0.011623 0.0175 0.000224016
-1.91544e-20 0.006623 0.02 0.000203946
0 -0.009627 0.01875 0.000210096
0 0.017873 0.011217 0.000265477
0 0.000373 0.02125 0.00019209
0 0.020373 0.00608215 0.000357028
0 -0.020877 0.00402827 0.000543182
0 -0.002127 0.02125 0.000191424
-5.16988e-26 -0.020877 0.00479858 0.00047374
1.0842e-19 0.010373 0.01875 0.000215079
1.0842e-19 0.002873 0.02125 0.000192765
0 -0.019627 0.008656 0.000304458
-5.16988e-26 0.019123 0.00994629 0.000279013
1.65436e-24 0.021623 1.13746e-08 0.000809194
-1.91544e-20 -0.008377 0.02 0.000200096
1.0842e-19 -0.004627 0.02125 0.000190768
0 0.021623 0.00233888 0.000669778
-2.01948e-28 -0.015877 0.0149988 0.000236583
1.0842e-19 -0.014627 0.0162494 0.000227595
1.0842e-19 0.005373 0.02125 0.00019345
0 -0.017127 0.0137433 0.000245712
8.08456e-20 0.009123 0.02 0.000204622
-2.05104e-29 -0.013377 0.0174821 0.000218656
-9.67075e-20 -0.013377 0.0175 0.000218525
-1.0842e-19 0.020373 0.00865601 0.000292299
0 -0.020877 0.00736572 0.000343686
0 0.021623 0.00479858 0.000442796
0 -0.022127 0.00116943 0.000825396
3.23117e-27 -0.018377 0.0124878 0.000256788
-1.0842e-19 -0.012127 0.01875 0.000209527
-1.0842e-19 0.015373 0.0162494 0.000233447
0 0.016623 0.0149988 0.000241248
0 -0.022127 0.00356872 0.000564641
-1.0842e-19 -0.007127 0.02125 0.000190122
-1.41995e-28 0.014123 0.0174909 0.000224688
0 0.014123 0.0175 0.000224629
3.28979e-21 -0.000877 0.0225 0.00018004
-2.1684e-19 0.017873 0.0137433 0.000248939
-9.67102e-20 0.001623 0.0225 0.000180702
2.1684e-19 -0.019627 0.011217 0.000268097
0 0.007873 0.02125 0.000194143
-1.0842e-19 0.012873 0.01875 0.000215748
-9.67102e-20 -0.003377 0.0225 0.000179388
-1.91544e-20 -0.010877 0.02 0.000199493
0 0.019123 0.0124878 0.000257271
-1.03398e-25 0.021623 0.00736572 0.000324124
-9.67102e-20 0.004123 0.0225 0.000181372
-2.1684e-19 0.022873 0.00116944 0.000808457
0 -0.022127 0.00608215 0.000383176
0 -0.020877 0.00994629 0.000286491
8.08456e-20 0.011623 0.02 0.000205309
0 0.022873 0.00356872 0.000526938
8.08456e-20 -0.005877 0.0225 0.000178745
0 0.020373 0.011217 0.000265427
-1.0842e-19 -0.009627 0.02125 0.000189487
0 -0.023377 8.82567e-09 0.000825626
3.28979e-21 0.006623 0.0225 0.000182051
6.46421e-20 -0.023377 0.00233887 0.000696612
-1.0842e-19 -0.017127 0.0162494 0.000227194
1.57772e-30 -0.015877 0.017484 0.000218164
0 -0.015877 0.0175 0.000218046
1.0842e-19 0.010373 0.02125 0.000194846
1.0842e-19 0.022873 0.00608215 0.000355429
2.01948e-28 -0.018377 0.0149988 0.000236318
0 0.000373 0.02375 0.000168648
-1.0842e-19 -0.022127 0.008656 0.000305251
0 -0.014627 0.01875 0.00020897
0 0.021623 0.00994629 0.000278654
1.0842e-19 -0.002127 0.02375 0.000168
3.23117e-27 -0.023377 0.00477594 0.000477404
0 -0.023377 0.00479858 0.000475368
-1.0842e-19 0.002873 0.02375 0.000169304
1.0842e-19 -0.019627 0.0137433 0.000245583
8.08456e-20 -0.008377 0.0225 0.000178111
-3.23117e-27 -0.0235629 0.00479858 0.000475487
3.28979e-21 -0.013377 0.02 0.000198902
0 0.024123 1.1328e-08 0.000807684
-5.6798e-29 0.016623 0.0174918 0.000225316
8.08524e-20 0.016623 0.0175 0.000225264
0 0.017873 0.0162494 0.00023403
-1.0842e-19 -0.004627 0.02375 0.00016736
0 0.024123 0.00233888 0.000667825
1.0842e-19 0.015373 0.01875 0.000216435
-9.67102e-20 0.009123 0.0225 0.00018274
-4.03897e-28 0.019123 0.0149988 0.000241724
-3.23117e-27 -0.020877 0.0124878 0.000256851
1.0842e-19 0.005373 0.02375 0.000169969
1.0842e-19 0.022873 0.008656 0.000291622
0 -0.012127 0.02125 0.000188863
-9.67102e-20 0.014123 0.02 0.000206009
0 -0.023377 0.00736572 0.000344809
-1.0842e-19 0.020373 0.0137433 0.000249309
0 0.024123 0.00479858 0.000440792
0 -0.024627 0.00116943 0.000825856
1.0842e-19 -0.007127 0.02375 0.000166729
1.0842e-19 -0.022127 0.011217 0.000268351
-1.0842e-19 0.012873 0.02125 0.000195562
0 -0.024627 0.00356872 0.000566427
0 0.021623 0.0124878 0.000257445
-9.67102e-20 -0.010877 0.0225 0.000177488
3.28979e-21 -0.000877 0.025 0.000155296
-1.0842e-19 0.007873 0.02375 0.000170644
3.28979e-21 0.001623 0.025 0.000155917
0 0.024123 0.00736572 0.000322987
-9.67102e-20 -0.003377 0.025 0.000154683
-9.67102e-20 0.011623 0.0225 0.00018344
3.28979e-21 0.004123 0.025 0.000156546
5.20648e-29 -0.018377 0.0174852 0.00021769
0 -0.024627 0.00608215 0.000384621
1.58405e-19 -0.018377 0.0175 0.000217578
-1.0842e-19 -0.017127 0.01875 0.000208426
0 0.025373 0.00116944 0.00080691
0 -0.023377 0.00994629 0.000287016
1.0842e-19 0.022873 0.011217 0.000265406
1.0842e-19 -0.019627 0.0162494 0.000226804
8.08456e-20 -0.015877 0.02 0.000198323
0 0.025373 0.00356873 0.000524519
0 -0.009627 0.02375 0.000166107
8.08456e-20 -0.005877 0.025 0.000154079
0 -0.020877 0.0149988 0.000236064
-1.0842e-19 -0.014627 0.02125 0.00018825
-9.67102e-20 0.006623 0.025 0.000157184
0 -0.025877 9.27243e-09 0.000826065
1.0842e-19 0.017873 0.01875 0.000217146
1.0842e-19 0.010373 0.02375 0.000171328
-1.57772e-30 0.019123 0.0174929 0.000225967
0 0.019123 0.0175 0.000225922
-3.41419e-21 -0.025877 0.00233887 0.000697712
3.28979e-21 0.016623 0.02 0.000206729
1.0842e-19 -0.022127 0.0137433 0.000245465
0 0.020373 0.0162494 0.000234637
1.0842e-19 0.025373 0.00608215 0.000353826
0 0.024123 0.00994629 0.000278312
0 -0.024627 0.00865601 0.000306045
-9.67102e-20 -0.013377 0.0225 0.000176874
0 0.015373 0.02125 0.000196293
0 0.000373 0.02625 0.000142561
-8.07794e-28 0.021623 0.0149988 0.000242225
0 -0.025877 0.00479858 0.000476974
0 -0.002127 0.02625 0.000141976
8.08456e-20 -0.008377 0.025 0.000153482
0 0.002873 0.02625 0.000143155
0 -0.023377 0.0124878 0.000256924
0 0.014123 0.0225 0.000184154
-9.67102e-20 0.009123 0.025 0.000157831
-1.03398e-25 0.026623 3.76043e-10 0.000806101
1.0842e-19 -0.004627 0.02625 0.000141399
0 -0.012127 0.02375 0.000165494
-1.0842e-19 0.022873 0.0137433 0.000249703
8.27181e-25 0.026623 0.00233887 0.000665819
6.46235e-27 -0.025877 0.00674512 0.000377606
-1.0842e-19 0.005373 0.02625 0.000143756
1.0842e-19 0.025373 0.008656 0.000290957
0 -0.025877 0.00736572 0.000345926
-1.0842e-19 0.012873 0.02375 0.000172026
0 0.026623 0.00479858 0.000438767
0 -0.024627 0.011217 0.000268613
0 -0.019627 0.01875 0.000207893
-1.0842e-19 -0.027127 0.00116943 0.000826275
8.08456e-20 -0.018377 0.02 0.000197756
0 0.024123 0.0124878 0.000257642
1.0842e-19 -0.007127 0.02625 0.000140828
0 -0.020877 0.0174855 0.000217233
0 -0.020877 0.0175 0.000217124
3.28979e-21 -0.010877 0.025 0.000152894
0 -0.017127 0.02125 0.000187648
0 -0.027127 0.00356873 0.000568184
1.0842e-19 0.007873 0.02625 0.000144366
-2.1684e-19 -0.022127 0.0162494 0.000226427
6.45119e-20 -0.000877 0.0275 0.000128762
3.28979e-21 -0.015877 0.0225 0.000176271
4.41762e-29 -0.000877 0.0275314 0.00012843
3.28979e-21 0.001623 0.0275 0.000129307
8.08456e-20 0.011623 0.025 0.000158489
1.57772e-30 0.001623 0.0275281 0.000129008
0 0.026623 0.00736572 0.000321854
-9.67102e-20 0.019123 0.02 0.000207469
0 0.020373 0.01875 0.000217878
3.28979e-21 -0.003377 0.0275 0.000128226
-6.46235e-27 -0.025877 0.00994629 0.000287546
-1.02552e-28 -0.003377 0.0275189 0.000128026
-1.0842e-19 0.025373 0.011217 0.0002654
0 0.017873 0.02125 0.000197043
0 -0.023377 0.0149988 0.000235822
-2.1684e-19 -0.027127 0.00608215 0.000386055
8.08474e-20 0.004123 0.0275 0.000129858
-2.22459e-28 0.021623 0.0174934 0.000226644
-1.57772e-30 0.021623 0.0175 0.000226603
6.94198e-29 0.004123 0.0275277 0.000129563
1.0842e-19 -0.014627 0.02375 0.00016489
1.0842e-19 0.027873 0.00116944 0.000805291
-1.0842e-19 -0.009627 0.02625 0.000140265
-9.67102e-20 0.016623 0.0225 0.000184883
1.0842e-19 0.022873 0.0162494 0.000235268
2.1684e-19 0.027873 0.00356873 0.000522064
-9.67102e-20 -0.005877 0.0275 0.000127696
-2.44547e-28 -0.005877 0.02751 0.000127591
-2.1684e-19 -0.024627 0.0137433 0.000245358
-1.0842e-19 0.010373 0.02625 0.000144987
-1.91544e-20 0.006623 0.0275 0.000130418
0 0.015373 0.02375 0.000172736
5.36425e-29 0.006623 0.0275385 0.000130006
-3.54881e-20 -0.013377 0.025 0.000152314
0 -0.028377 9.16174e-09 0.000826466
8.07794e-28 0.024123 0.0149988 0.000242749
-5.16988e-26 0.026623 0.00994629 0.000277983
-1.82522e-20 -0.028377 0.00233887 0.000698779
1.0842e-19 -0.027127 0.008656 0.00030684
0 0.027873 0.00608215 0.000352216
8.08456e-20 0.014123 0.025 0.00015916
1.61559e-27 -0.025877 0.0124878 0.000257005
8.08456e-20 -0.008377 0.0275 0.000127173
0 0.000373 0.0287506 0.000115502
-1.41995e-29 -0.008377 0.0275072 0.000127097
-1.23021e-20 -0.028377 0.00479858 0.000478561
-2.1684e-19 -0.002127 0.0287506 0.000115006
1.0842e-19 0.025373 0.0137433 0.000250121
1.0842e-19 0.002873 0.0287506 0.000116004
8.08456e-20 -0.020877 0.02 0.0001972
0 -0.012127 0.02625 0.00013971
0 -0.019627 0.02125 0.000187057
8.08456e-20 0.009123 0.0275 0.000130987
0 -0.022127 0.01875 0.000207373
-3.15544e-30 0.009123 0.0275426 0.000130529
8.08456e-20 -0.018377 0.0225 0.000175678
0 -0.004627 0.0287506 0.000114517
-3.30872e-24 0.029123 1.5623e-08 0.000804444
0 0.027873 0.008656 0.000290303
-4.73317e-30 -0.023377 0.0174839 0.000216805
3.29323e-21 -0.023377 0.0175 0.000216682
-8.27181e-25 0.029123 0.00233888 0.000663757
-1.0842e-19 0.012873 0.02625 0.000145618
0 0.005373 0.0287506 0.000116514
0 -0.028377 0.00720803 0.000355117
0 -0.017127 0.02375 0.000164297
-3.23117e-27 -0.028377 0.00736572 0.000347038
0 -0.027127 0.011217 0.000268883
-2.86783e-20 0.026623 0.0124878 0.000257856
1.0842e-19 0.020373 0.02125 0.000197812
-9.67102e-20 0.021623 0.02 0.00020823
1.0842e-19 -0.024627 0.0162494 0.000226062
4.1359e-25 0.029123 0.00479858 0.000436721
8.08456e-20 0.019123 0.0225 0.00018563
-9.67102e-20 -0.010877 0.0275 0.000126657
1.0842e-19 0.022873 0.01875 0.000218632
-1.15174e-28 -0.010877 0.027507 0.000126583
-3.54881e-20 -0.015877 0.025 0.000151743
0 -0.007127 0.0287506 0.000114034
0 -0.029627 0.00116943 0.000826657
0 0.017873 0.02375 0.000173462
-3.97586e-28 0.024123 0.0174941 0.000227313
2.1684e-19 0.007873 0.0287506 0.000117032
1.0842e-19 -0.029627 0.00356872 0.000569912
8.08456e-20 0.011623 0.0275 0.000131565
-2.20881e-29 0.011623 0.0275283 0.00013126
-2.01948e-28 -0.025877 0.0149988 0.000235591
0 -0.000877 0.0300012 0.000102258
8.08456e-20 0.016623 0.025 0.000159843
0 0.029123 0.00736572 0.000320725
1.00974e-28 0.001623 0.0300012 0.000102707
-1.0842e-19 0.027873 0.011217 0.000265404
0 -0.014627 0.02625 0.000139163
3.23117e-27 -0.028377 0.00994629 0.00028808
0 0.025373 0.0162494 0.000235922
2.01948e-28 -0.003377 0.0300012 0.000101815
-2.1684e-19 -0.029627 0.00608215 0.000387477
0 0.004123 0.0300012 0.000103162
1.0842e-19 -0.009627 0.0287506 0.000113558
0 0.030373 0.00116944 0.000803596
0 -0.027127 0.0137433 0.00024526
0 0.015373 0.02625 0.00014626
0 0.026623 0.0149988 0.000243297
0 0.010373 0.0287506 0.000117558
4.03897e-28 -0.005877 0.0300012 0.000101378
3.28979e-21 -0.013377 0.0275 0.000126148
1.0842e-19 0.030373 0.00356873 0.00051957
3.21855e-28 -0.013377 0.0275077 0.000126067
1.0842e-19 -0.022127 0.02125 0.000186479
-9.67102e-20 -0.020877 0.0225 0.000175097
0 0.006623 0.0300012 0.000103624
-3.54881e-20 -0.023377 0.02 0.000196658
-1.05945e-19 0.029123 0.00994629 0.00027767
0 -0.019627 0.02375 0.000163712
0 -0.029627 0.008656 0.000307637
0 -0.030877 9.3525e-09 0.000826829
1.58401e-19 0.014123 0.0275 0.000132154
-2.36658e-29 0.014123 0.0275229 0.000131906
1.0842e-19 -0.024627 0.01875 0.000206868
5.07041e-20 -0.030877 0.00233887 0.000699812
-1.0842e-19 0.030373 0.00608215 0.000350602
-8.07794e-28 -0.028377 0.0124878 0.000257095
8.08456e-20 -0.018377 0.025 0.000151181
1.0842e-19 0.027873 0.0137433 0.000250561
0 -0.008377 0.0300012 0.000100947
0 -0.012127 0.0287506 0.000113088
3.28979e-21 0.021623 0.0225 0.000186393
1.0842e-19 0.022873 0.02125 0.000198599
4.73317e-30 -0.025877 0.0174781 0.000216421
3.28979e-21 -0.025877 0.0175 0.000216252
-3.88346e-21 -0.030877 0.00479858 0.000480127
1.0842e-19 0.000373 0.0312567 8.94421e-05
0 0.020373 0.02375 0.000174202
0 -0.002127 0.0312567 8.90465e-05
-3.54881e-20 0.024123 0.02 0.000209011
1.0842e-19 -0.017127 0.02625 0.000138624
0 0.009123 0.0300012 0.000104093
0 0.002873 0.0312567 8.98434e-05
8.08456e-20 0.019123 0.025 0.00016054
0 0.012873 0.0287506 0.000118094
1.0842e-19 0.025373 0.01875 0.000219408
1.0842e-19 0.030373 0.00865601 0.000289665
-1.0842e-19 -0.004627 0.0312567 8.86559e-05
0 -0.027127 0.0162494 0.00022571
3.30872e-24 0.031623 1.5812e-08 0.00080271
6.46235e-27 -0.030877 0.00690572 0.000371795
0 -0.029627 0.011217 0.00026916
0 0.029123 0.0124878 0.000258092
0 0.031623 0.00233888 0.000661636
0 0.005373 0.0312567 9.02504e-05
6.46235e-27 -0.030877 0.00736572 0.000348145
3.29719e-21 -0.015877 0.0275 0.000125646
1.0842e-19 0.017873 0.02625 0.000146915
1.08863e-28 -0.015877 0.0275076 0.000125567
-3.10811e-28 0.026623 0.017495 0.000228039
0 -0.010877 0.0300012 0.000100521
4.1359e-25 0.031623 0.00479858 0.000434652
2.1684e-19 -0.007127 0.0312567 8.82704e-05
1.00974e-28 -0.028377 0.0149988 0.000235372
-1.91544e-20 0.016623 0.0275 0.000132753
1.0842e-19 -0.032127 0.00116943 0.000827002
1.26218e-29 0.016623 0.0275317 0.000132408
-2.01948e-28 0.011623 0.0300012 0.000104571
-1.0842e-19 0.007873 0.0312567 9.06637e-05
1.0842e-19 -0.014627 0.0287506 0.000112625
0 0.027873 0.0162494 0.000236601
0 -0.032127 0.00356872 0.000571612
2.1684e-19 0.030373 0.011217 0.000265435
0 -0.030877 0.00994629 0.000288618
6.45119e-20 -0.023377 0.0225 0.000174527
0 -0.022127 0.02375 0.000163139
2.06795e-25 0.031623 0.00736572 0.0003196
0 -0.000877 0.0325122 7.7265e-05
0 -0.024627 0.02125 0.000185914
0 0.001623 0.0325122 7.76157e-05
1.58401e-19 -0.020877 0.025 0.000150628
0 0.015373 0.0287506 0.000118639
-1.0842e-19 -0.029627 0.0137433 0.000245172
0 -0.003377 0.0325122 7.69186e-05
-1.0842e-19 -0.032127 0.00608215 0.000388887
-3.54881e-20 -0.025877 0.02 0.000196127
0 -0.009627 0.0312567 8.78899e-05
0 0.029123 0.0149988 0.000243869
0 0.004123 0.0325122 7.79709e-05
1.0842e-19 -0.019627 0.02625 0.000138093
4.03897e-28 -0.013377 0.0300012 0.000100102
1.0842e-19 0.032873 0.00116944 0.000801824
0 0.010373 0.0312567 9.10837e-05
-1.0842e-19 0.022873 0.02375 0.000174959
0 -0.027127 0.01875 0.00020637
3.28979e-21 0.024123 0.0225 0.000187174
6.46235e-27 -0.005877 0.0325122 7.65762e-05
-1.91544e-20 0.021623 0.025 0.000161252
-1.0842e-19 0.032873 0.00356873 0.000517037
8.08456e-20 -0.018377 0.0275 0.000125152
-5.04871e-29 -0.018377 0.0275066 0.000125083
1.0842e-19 0.025373 0.02125 0.000199407
6.46235e-27 -0.0327499 0.00479858 0.000481285
0 0.031623 0.00994629 0.000277378
0 0.014123 0.0300012 0.000105056
0 0.006623 0.0325122 7.83309e-05
0 0.020373 0.02625 0.000147582
0 -0.032127 0.008656 0.000308434
-1.13044e-19 0.026623 0.02 0.000209814
8.07794e-28 -0.030877 0.0124878 0.000257192
-3.15544e-30 -0.028377 0.0174662 0.000216094
-1.0842e-19 0.030373 0.0137433 0.000251027
0 -0.028377 0.0175 0.00021583
0 -0.033377 9.04343e-09 0.000827156
1.0842e-19 0.032873 0.00608215 0.000348981
-8.05953e-20 -0.033377 0.00233887 0.000700813
0 -0.017127 0.0287506 0.000112168
-1.91544e-20 0.019123 0.0275 0.000133364
0 -0.012127 0.0312567 8.75147e-05
-6.46235e-27 -0.008377 0.0325122 7.62378e-05
1.0842e-19 0.027873 0.01875 0.000220208
1.29247e-26 -0.033377 0.00469116 0.000491243
0 -0.033377 0.00479858 0.000481673
0 0.009123 0.0325122 7.86963e-05
2.1684e-19 0.000373 0.0337829 6.53873e-05
1.0842e-19 -0.029627 0.0162494 0.00022537
0 0.012873 0.0312567 9.1511e-05
0 -0.002127 0.0337829 6.50862e-05
-1.0842e-19 0.017873 0.0287506 0.000119194
1.0842e-19 0.002873 0.0337829 6.56916e-05
0 -0.015877 0.0300012 9.96882e-05
-2.20881e-29 0.029123 0.0174956 0.00022879
0 0.032873 0.008656 0.000289042
0 0.031623 0.0124878 0.000258355
2.1684e-19 -0.032127 0.011217 0.000269443
-1.0842e-19 -0.004627 0.033783 6.47881e-05
0 0.034123 1.53068e-08 0.000800897
0 0.019123 0.0282958 0.000124675
0 -0.033377 0.00736572 0.000349246
0 0.034123 0.00233888 0.000659456
-2.1684e-19 0.005373 0.0337829 6.59993e-05
0 -0.024627 0.02375 0.000162576
-1.57772e-30 -0.023377 0.025 0.000150085
0 -0.010877 0.0325122 7.59036e-05
3.28979e-21 -0.025877 0.0225 0.000173967
0 0.016623 0.0300012 0.000105551
0 -0.030877 0.0149988 0.000235163
-1.0842e-19 -0.022127 0.02625 0.000137571
-1.0842e-19 0.030373 0.0162494 0.000237304
4.1359e-25 0.034123 0.00479858 0.00043256
0 -0.027127 0.02125 0.000185356
1.0842e-19 -0.014627 0.0312567 8.7145e-05
0 -0.007127 0.0337829 6.4493e-05
3.9443e-29 -0.020877 0.027506 0.000124656
0 0.011623 0.0325122 7.90674e-05
-1.0842e-19 -0.034627 0.00116943 0.00082731
0 0.007873 0.0337829 6.6311e-05
-1.91544e-20 -0.028377 0.02 0.0001956
-1.0842e-19 0.032873 0.011217 0.000265495
-1.91544e-20 0.024123 0.025 0.000161978
0 0.025373 0.02375 0.000175732
1.0842e-19 -0.034627 0.00356872 0.000573283
0 -0.019627 0.0287506 0.000111719
0 0.022873 0.02625 0.000148263
-6.46235e-27 -0.033377 0.00994629 0.000289158
2.1684e-19 0.015373 0.0312567 9.19457e-05
6.45119e-20 0.026623 0.0225 0.000187974
-2.06795e-25 0.034123 0.00736572 0.000318479
1.0842e-19 -0.032127 0.0137433 0.000245093
1.58401e-19 0.021623 0.0275 0.000133986
-8.07794e-28 0.031623 0.0149988 0.000244467
-1.0842e-19 0.027873 0.02125 0.000200234
0 -0.029627 0.01875 0.000205873
-6.46235e-27 -0.000877 0.0350537 5.43397e-05
0 0.001623 0.0350537 5.46111e-05
-1.0842e-19 -0.009627 0.0337829 6.4201e-05
-6.46235e-27 -0.013377 0.0325122 7.55736e-05
1.0842e-19 -0.034627 0.00608215 0.000390286
0 -0.018377 0.0300012 9.9281e-05
-1.29247e-26 -0.003377 0.0350537 5.40708e-05
1.0842e-19 0.020373 0.0287506 0.00011976
6.46235e-27 0.004123 0.0350537 5.4885e-05
-9.67102e-20 0.029123 0.02 0.000210639
-3.25261e-19 0.010373 0.033783 6.66271e-05
1.0842e-19 0.035373 0.00116944 0.00079997
0 0.014123 0.0325122 7.94445e-05
3.15544e-30 -0.030877 0.0174649 0.000215694
-1.91544e-20 -0.030877 0.0175 0.000215416
0 -0.005877 0.0350537 5.38041e-05
-5.16988e-26 0.034123 0.00994629 0.000277106
0 0.035373 0.00356873 0.000514462
0 0.019123 0.0300012 0.000106054
-3.15544e-30 0.0191872 0.0300012 0.000106067
0 0.032873 0.0137433 0.000251521
0 -0.033377 0.0124878 0.000257297
-1.0842e-19 -0.017127 0.0312567 8.67809e-05
0 0.006623 0.0350537 5.51618e-05
0 -0.034627 0.008656 0.000309231
-1.0842e-19 0.030373 0.01875 0.000221031
-1.65436e-24 -0.035877 8.28686e-09 0.000827446
1.0842e-19 0.035373 0.00608215 0.000347353
0 -0.012127 0.0337829 6.3912e-05
1.3128e-19 -0.035877 0.00233887 0.000701781
-9.67102e-20 -0.025877 0.025 0.000149552
1.0842e-19 -0.024627 0.02625 0.000137057
0 -0.032127 0.0162494 0.000225042
0 0.017873 0.0312567 9.23881e-05
0 -0.008377 0.0350537 5.35398e-05
0 -0.027127 0.02375 0.000162022
-9.67102e-20 -0.023377 0.0275 0.000124187
-1.34106e-28 -0.023377 0.0275062 0.000124123
2.58494e-26 -0.035877 0.00401222 0.000553079
4.41762e-29 0.031623 0.0174955 0.000229566
2.1684e-19 0.012873 0.0337829 6.69476e-05
-6.46235e-27 -0.015877 0.0325122 7.52481e-05
-5.16988e-26 -0.035877 0.00479858 0.000483199
5.84013e-20 -0.028377 0.0225 0.000173413
6.46235e-27 0.009123 0.0350537 5.54418e-05
-1.0842e-19 -0.022127 0.0287506 0.000111276
1.29247e-26 0.034123 0.0124878 0.000258645
1.0842e-19 0.000373 0.036344 4.35048e-05
0 -0.034627 0.011217 0.000269731
0 -0.002127 0.036344 4.32658e-05
0 0.035373 0.008656 0.000288432
-1.0842e-19 0.002873 0.036344 4.37455e-05
-1.0842e-19 -0.029627 0.02125 0.0001848
-1.0842e-19 0.025373 0.02625 0.000148956
-1.61559e-27 0.016623 0.0325122 7.98279e-05
8.08456e-20 0.026623 0.025 0.000162718
-8.07794e-28 -0.020877 0.0300012 9.88802e-05
5.84013e-20 0.024123 0.0275 0.00013462
2.01948e-28 -0.033377 0.0149988 0.000234964
-1.0842e-19 0.027873 0.02375 0.000176522
0 0.036623 1.42897e-08 0.000798999
0 -0.035877 0.00736572 0.000350341
-1.0842e-19 -0.004627 0.036344 4.30284e-05
0 0.032873 0.0162494 0.000238035
-8.27181e-25 0.036623 0.00233888 0.000657211
0 -0.010877 0.0350537 5.32781e-05
-2.1684e-19 0.005373 0.036344 4.3988e-05
-1.0842e-19 0.022873 0.0287506 0.000120336