# kMean  POINT_DATA 26382
# x  y  z  kMean
0 -0.000876979 6.01824e-09 0.000806977
0 0.000373006 0.00116944 0.00080656
8.27181e-25 0.001623 4.67384e-09 0.000806205
1.03398e-25 -0.000876994 0.00215245 0.000677299
0 -0.00212699 0.00116944 0.000807394
2.06795e-25 0.001623 0.00182382 0.000695792
-1.03398e-25 -0.000876994 0.00233887 0.000666068
2.06795e-25 0.001623 0.00233887 0.000664611
-1.0842e-19 0.00287301 0.00116943 0.00080585
0 -0.00236739 0.00233887 0.000666938
0 -0.00337698 7.72602e-09 0.00080777
-1.0842e-19 0.000373002 0.00356873 0.000521836
0 -0.003377 0.00233887 0.000667527
0 0.00412303 4.87104e-09 0.000805369
1.0842e-19 -0.002127 0.00356872 0.00052397
0 0.00412301 0.00187853 0.000691103
1.0842e-19 0.002873 0.00356872 0.000519666
0 -0.003377 0.00327131 0.000579154
0 0.00412301 0.00233887 0.000663101
1.0842e-19 -0.004627 0.00116943 0.000808145
-1.03398e-25 -0.000876999 0.00479858 0.000432559
0 0.001623 0.00479858 0.000430706
0 0.00537301 0.00116944 0.000804887
-1.0842e-19 -0.004627 0.00356872 0.000526109
-1.03398e-25 -0.003377 0.00479858 0.000434407
0 -0.005877 8.41764e-09 0.000808572
0 0.000373001 0.00608215 0.000340131
1.23491e-20 -0.005877 0.00233887 0.00066898
2.06795e-25 0.004123 0.00479858 0.000428831
-2.1684e-19 -0.002127 0.00608215 0.000341687
2.1684e-19 0.005373 0.00356873 0.000517447
-8.27181e-25 0.00662302 5.69423e-09 0.000804347
-1.0842e-19 0.002873 0.00608215 0.000338586
-5.16988e-25 0.006623 0.00206606 0.00067813
0 -0.005877 0.00373585 0.000536796
0 0.006623 0.00233887 0.000661464
2.1684e-19 -0.00712701 0.00116943 0.000809
0 -0.000876999 0.00736572 0.000304129
-1.03398e-25 0.001623 0.00736572 0.000302978
0 -0.005877 0.00479858 0.000436239
1.0842e-19 -0.004627 0.00608215 0.000343241
0 0.007873 0.00116944 0.000803806
1.0842e-19 -0.007127 0.00356872 0.000528198
5.16988e-26 -0.003377 0.00736572 0.000305289
1.0842e-19 0.005373 0.00608215 0.000337032
2.06795e-25 0.006623 0.00479858 0.000426916
0 -0.008377 8.14506e-09 0.000809334
0 0.004123 0.00736572 0.00030184
0 0.007873 0.00356873 0.000515139
0 0.000373 0.00865601 0.000266901
-2.57643e-20 -0.008377 0.00233887 0.000670385
-1.0842e-19 -0.002127 0.008656 0.000267664
7.75482e-26 -0.008377 0.00347115 0.000563429
2.1684e-19 0.002873 0.008656 0.00026616
0 0.009123 5.76164e-09 0.000803192
1.03398e-25 0.009123 0.00210367 0.000674148
0 -0.007127 0.00608215 0.000344781
0 0.009123 0.00233887 0.00065972
5.16988e-26 -0.005877 0.00736572 0.000306449
1.03398e-25 -0.008377 0.00479858 0.000438039
1.0842e-19 -0.009627 0.00116944 0.000809668
0 -0.004627 0.00865601 0.000268429
1.03398e-25 0.006623 0.00736572 0.00030071
1.0842e-19 0.007873 0.00608215 0.00033546
2.58494e-26 -0.000877 0.00994629 0.000251391
0 0.001623 0.00994629 0.000250933
-3.25261e-19 0.005373 0.008656 0.000265449
1.0842e-19 -0.009627 0.00356873 0.000530228
0 0.009123 0.00479858 0.000424959
-1.0842e-19 0.010373 0.00116944 0.000802578
0 -0.003377 0.00994629 0.000251866
-2.58494e-26 0.004123 0.00994629 0.000250498
0 -0.010877 7.63523e-09 0.000809971
0 0.010373 0.00356873 0.000512764
-8.8696e-21 -0.010877 0.00233887 0.000671695
0 -0.008377 0.00736572 0.000307605
1.0842e-19 -0.007127 0.008656 0.00026921
0 0.000373 0.011217 0.000235494
0 -0.010877 0.00320213 0.000590306
0 -0.009627 0.00608215 0.000346313
-2.1684e-19 -0.002127 0.011217 0.000235669
0 -0.005877 0.00994629 0.000252354
1.0842e-19 0.002873 0.011217 0.00023534
0 0.011623 5.15475e-09 0.00080201
-2.1684e-19 0.007873 0.008656 0.000264769
0 0.009123 0.00736572 0.000299592
-2.06795e-25 0.011623 0.00189818 0.000685093
-2.06795e-25 0.011623 0.00233887 0.000657949
0 -0.010877 0.00479858 0.000439793
2.58494e-26 0.006623 0.00994629 0.000250086
-1.0842e-19 0.010373 0.00608215 0.000333898
-1.0842e-19 -0.004627 0.011217 0.00023587
-1.0842e-19 -0.012127 0.00116943 0.000810275
0 0.005373 0.011217 0.000235203
0 -0.000877 0.0124878 0.000226405
0 0.011623 0.00479858 0.000422996
0 0.001623 0.0124878 0.000226424
-1.0842e-19 -0.012127 0.00356873 0.000532184
-2.1684e-19 0.012873 0.00116944 0.000801441
3.23117e-27 -0.003377 0.0124878 0.000226404
-1.0842e-19 -0.009627 0.008656 0.000269978
0 -0.008377 0.00994629 0.000252852
0 -0.010877 0.00736572 0.000308741
0 0.004123 0.0124878 0.00022646
0 -0.007127 0.011217 0.000236079
1.0842e-19 0.012873 0.00356872 0.000510401
0 -0.013377 7.2543e-09 0.0008106
-2.58494e-26 0.009123 0.00994629 0.000249693
-1.0842e-19 0.010373 0.00865601 0.000264113
2.1684e-19 -0.012127 0.00608215 0.000347803
1.21394e-19 -0.013377 0.00233887 0.000672975
0 0.007873 0.011217 0.00023508
-1.0842e-19 0.000373 0.0137433 0.000217361
0 0.011623 0.00736572 0.000298486
-2.58494e-26 -0.013377 0.0033489 0.000577924
0 -0.005877 0.0124878 0.00022642
1.0842e-19 -0.002127 0.0137433 0.000217168
-1.0842e-19 0.002873 0.0137433 0.000217572
0 0.014123 3.99365e-09 0.000800824
0 0.006623 0.0124878 0.000226511
4.1359e-25 0.014123 0.0013649 0.000716409
0 -0.013377 0.00479858 0.000441499
-1.0842e-19 0.012873 0.00608215 0.000332358
4.1359e-25 0.014123 0.00233887 0.000656173
1.0842e-19 -0.004627 0.0137433 0.000216985
1.0842e-19 -0.014627 0.00116943 0.000810926
0 -0.010877 0.00994629 0.000253344
0 0.005373 0.0137433 0.000217796
0 0.0147711 0 0.000800491
1.0842e-19 -0.009627 0.011217 0.000236315
0 -0.012127 0.008656 0.000270731
-2.06795e-25 0.014123 0.00479858 0.000421039
0 -0.000877 0.0149988 0.000209553
0 -0.008377 0.0124878 0.000226454
0 -0.014627 0.00356872 0.00053411
0 0.001623 0.0149988 0.000209872
5.16988e-26 -0.013377 0.00736572 0.000309852
0 0.010373 0.011217 0.000234962
2.58494e-26 0.011623 0.00994629 0.000249309
0 -0.003377 0.0149988 0.000209243
0 0.015373 0.00116944 0.000800205
-6.46235e-27 0.009123 0.0124878 0.000226576
1.0842e-19 -0.007127 0.0137433 0.000216825
1.0842e-19 0.012873 0.00865601 0.00026345
-4.03897e-28 0.004123 0.0149988 0.000210205
-1.0842e-19 0.015373 0.00356872 0.000508011
1.0842e-19 0.007873 0.0137433 0.000218036
0 -0.014627 0.00608215 0.00034925
8.27181e-25 -0.015877 6.82727e-09 0.000811172
-1.03398e-25 0.014123 0.00736572 0.000297395
-2.85264e-20 -0.015877 0.00233887 0.000674222
-2.01948e-28 -0.005877 0.0149988 0.000208946
2.58494e-26 -0.015877 0.00298249 0.000613769
1.0842e-19 0.000373 0.0162494 0.000202069
-1.0842e-19 -0.002127 0.0162494 0.000201634
0 0.006623 0.0149988 0.000210559
-1.0842e-19 0.002873 0.0162494 0.000202506
1.0842e-19 -0.012127 0.011217 0.00023653
-1.0842e-19 0.015373 0.00608215 0.000330837
0 -0.010877 0.0124878 0.000226495
-1.03398e-25 -0.015877 0.00479858 0.000443191
3.30872e-24 0.016623 1.14127e-08 0.000799542
0 -0.013377 0.00994629 0.000253822
0 -0.009627 0.0137433 0.000216676
0 0.016623 0.00233887 0.00065432
2.1684e-19 -0.004627 0.0162494 0.000201205
-1.0842e-19 -0.014627 0.00865601 0.000271481
0 0.011623 0.0124878 0.00022666
0 0.012873 0.011217 0.000234863
1.0842e-19 0.005373 0.0162494 0.000202965
0 -0.017127 0.00116943 0.000811419
2.01948e-28 -0.008377 0.0149988 0.000208665
1.0842e-19 0.010373 0.0137433 0.000218295
-2.58494e-26 0.014123 0.00994629 0.000248948
0 0.016623 0.00479858 0.000419064
-1.0842e-19 -0.017127 0.00356872 0.000536049
0 -0.015877 0.00736572 0.00031095
-2.47702e-28 -0.000877 0.0174912 0.000193789
0 -0.000877 0.0175 0.000193734
4.03897e-28 0.009123 0.0149988 0.000210932
-2.11415e-28 0.001623 0.0174922 0.000194285
0 0.001623 0.0175 0.000194236
0 0.015373 0.008656 0.000262811
0 -0.007127 0.0162494 0.000200791
-4.10208e-29 -0.003377 0.0174891 0.00019331
-1.91544e-20 -0.003377 0.0175 0.00019324
-1.0842e-19 0.017873 0.00116944 0.000798879
0 0.004123 0.0174928 0.000194795
-1.57772e-30 0.004123 0.0175 0.00019475
-1.0842e-19 0.007873 0.0162494 0.000203458
0 -0.017127 0.00608215 0.0003507
1.03398e-25 0.016623 0.00736572 0.000296331
1.0842e-19 0.017873 0.00356872 0.000505535
0 -0.013377 0.0124878 0.000226532
0 -0.012127 0.0137433 0.000216541
8.27181e-25 -0.018377 6.59756e-09 0.000811742
-1.0842e-19 -0.014627 0.011217 0.000236727
1.00974e-28 -0.005877 0.0174846 0.000192861
-1.57772e-30 -0.005877 0.0175 0.000192761
5.65533e-20 -0.018377 0.00233887 0.000675453
-2.01948e-28 -0.010877 0.0149988 0.000208397
-2.58494e-26 -0.018377 0.00268468 0.000643035
0 0.006623 0.0174931 0.00019533
0 0.006623 0.0175 0.000195288
0 -0.015877 0.00994629 0.0002543
1.0842e-19 0.000373 0.01875 0.0001859
1.0842e-19 0.012873 0.0137433 0.000218584
6.46235e-27 0.014123 0.0124878 0.000226779
-1.0842e-19 -0.002127 0.01875 0.000185334
2.1684e-19 0.017873 0.00608215 0.000329338
-1.0842e-19 -0.009627 0.0162494 0.000200389
-1.03398e-25 0.0189411 0 0.000798275
0 0.002873 0.01875 0.000186471
0 0.011623 0.0149988 0.000211321
0 -0.018377 0.00479858 0.000444861
1.0842e-19 0.015373 0.011217 0.000234814
0 0.019123 8.95325e-10 0.000798175
0 0.019123 0.000442258 0.000770614
0 -0.017127 0.008656 0.000272226
0 0.019123 0.00233887 0.000652416
-1.0842e-19 0.010373 0.0162494 0.000203957
0 0.0193054 0 0.000798075
0 -0.004627 0.01875 0.00018479
2.58494e-26 0.016623 0.00994629 0.000248626
-1.10441e-29 -0.008377 0.0174794 0.000192431
-9.67102e-20 -0.008377 0.0175 0.000192296
-1.0842e-19 0.005373 0.01875 0.000187062
-1.0842e-19 -0.019627 0.00116943 0.000812066
0 0.019123 0.00479858 0.000417089
-2.31925e-28 0.009123 0.0174927 0.000195886
8.08529e-20 0.009123 0.0175 0.000195841
0 -0.018377 0.00736572 0.000312037
-1.0842e-19 0.017873 0.008656 0.000262215
-2.1684e-19 -0.019627 0.00356872 0.000537916
-3.54881e-20 -0.000877 0.02 0.000176436
1.0842e-19 -0.007127 0.01875 0.000184261
-9.67102e-20 0.001623 0.02 0.000177019
1.0842e-19 -0.014627 0.0137433 0.000216412
0 -0.013377 0.0149988 0.000208144
0 -0.015877 0.0124878 0.000226574
1.0842e-19 -0.012127 0.0162494 0.000200004
3.28979e-21 -0.003377 0.02 0.000175864
-1.0842e-19 0.007873 0.01875 0.000187669
0 0.020373 0.00116944 0.000797472
8.08456e-20 0.004123 0.02 0.000177618
0 -0.017127 0.011217 0.000236947
-1.03398e-25 0.019123 0.00736572 0.000295299
-1.0842e-19 -0.019627 0.00608215 0.000352116
3.31322e-29 -0.010877 0.0174792 0.000191978
0 0.014123 0.0149988 0.000211738
0 -0.010877 0.0175 0.000191841
0 0.015373 0.0137433 0.000218918
0 0.020373 0.00356872 0.000503113
0 0.012873 0.0162494 0.000204465
0 0.016623 0.0124878 0.000226937
-9.67102e-20 -0.005877 0.02 0.000175303
0 -0.020877 7.4195e-09 0.000812274
0 -0.018377 0.00994629 0.000254779
4.73317e-30 0.011623 0.0174915 0.000196451
-8.6935e-20 -0.020877 0.00233887 0.000676639
-1.91485e-20 0.011623 0.0175 0.0001964
-1.91544e-20 0.006623 0.02 0.000178232
0 -0.009627 0.01875 0.000183744
0 0.017873 0.011217 0.000234808
0 0.000373 0.02125 0.00016755
0 0.020373 0.00608215 0.00032785
0 -0.020877 0.00402827 0.000518568
0 -0.002127 0.02125 0.000166961
-5.16988e-26 -0.020877 0.00479858 0.000446493
1.0842e-19 0.010373 0.01875 0.000188284
1.0842e-19 0.002873 0.02125 0.000168156
0 -0.019627 0.008656 0.000272964
-5.16988e-26 0.019123 0.00994629 0.000248348
1.65436e-24 0.021623 1.13746e-08 0.000796796
-1.91544e-20 -0.008377 0.02 0.000174756
1.0842e-19 -0.004627 0.02125 0.000166372
0 0.021623 0.00233888 0.000650526
-2.01948e-28 -0.015877 0.0149988 0.000207901
1.0842e-19 -0.014627 0.0162494 0.00019964
1.0842e-19 0.005373 0.02125 0.000168784
0 -0.017127 0.0137433 0.000216291
8.08456e-20 0.009123 0.02 0.000178857
-2.05104e-29 -0.013377 0.0174821 0.000191521
-9.67075e-20 -0.013377 0.0175 0.000191401
-1.0842e-19 0.020373 0.00865601 0.00026167
0 -0.020877 0.00736572 0.000313114
0 0.021623 0.00479858 0.000415144
0 -0.022127 0.00116943 0.000812483
3.23117e-27 -0.018377 0.0124878 0.000226623
-1.0842e-19 -0.012127 0.01875 0.000183228
-1.0842e-19 0.015373 0.0162494 0.000205
0 0.016623 0.0149988 0.000212184
0 -0.022127 0.00356872 0.00053975
-1.0842e-19 -0.007127 0.02125 0.000165789
-1.41995e-28 0.014123 0.0174909 0.000197028
0 0.014123 0.0175 0.000196974
3.28979e-21 -0.000877 0.0225 0.000156826
-2.1684e-19 0.017873 0.0137433 0.000219273
-9.67102e-20 0.001623 0.0225 0.000157418
2.1684e-19 -0.019627 0.011217 0.000237164
0 0.007873 0.02125 0.000169415
-1.0842e-19 0.012873 0.01875 0.000188896
-9.67102e-20 -0.003377 0.0225 0.000156244
-1.91544e-20 -0.010877 0.02 0.000174221
0 0.019123 0.0124878 0.000227126
-1.03398e-25 0.021623 0.00736572 0.000294293
-9.67102e-20 0.004123 0.0225 0.00015802
-2.1684e-19 0.022873 0.00116944 0.00079612
0 -0.022127 0.00608215 0.00035352
0 -0.020877 0.00994629 0.000255262
8.08456e-20 0.011623 0.02 0.000179487
0 0.022873 0.00356872 0.000500716
8.08456e-20 -0.005877 0.0225 0.000155672
0 0.020373 0.011217 0.000234839
-1.0842e-19 -0.009627 0.02125 0.000165229
0 -0.023377 8.82567e-09 0.000812696
3.28979e-21 0.006623 0.0225 0.000158632
6.46421e-20 -0.023377 0.00233887 0.000677758
-1.0842e-19 -0.017127 0.0162494 0.00019928
1.57772e-30 -0.015877 0.017484 0.000191085
0 -0.015877 0.0175 0.000190977
1.0842e-19 0.010373 0.02125 0.000170061
1.0842e-19 0.022873 0.00608215 0.00032639
2.01948e-28 -0.018377 0.0149988 0.000207665
0 0.000373 0.02375 0.00014669
-1.0842e-19 -0.022127 0.008656 0.000273711
0 -0.014627 0.01875 0.000182735
0 0.021623 0.00994629 0.000248099
1.0842e-19 -0.002127 0.02375 0.000146105
3.23117e-27 -0.023377 0.00477594 0.00045023
0 -0.023377 0.00479858 0.000448116
-1.0842e-19 0.002873 0.02375 0.000147276
1.0842e-19 -0.019627 0.0137433 0.000216175
8.08456e-20 -0.008377 0.0225 0.000155112
-3.23117e-27 -0.0235629 0.00479858 0.000448237
3.28979e-21 -0.013377 0.02 0.000173697
0 0.024123 1.1328e-08 0.000795348
-5.6798e-29 0.016623 0.0174918 0.000197623
8.08524e-20 0.016623 0.0175 0.000197575
0 0.017873 0.0162494 0.000205562
-1.0842e-19 -0.004627 0.02375 0.000145541
0 0.024123 0.00233888 0.000648608
1.0842e-19 0.015373 0.01875 0.000189538
-9.67102e-20 0.009123 0.0225 0.000159254
-4.03897e-28 0.019123 0.0149988 0.000212651
-3.23117e-27 -0.020877 0.0124878 0.000226678
1.0842e-19 0.005373 0.02375 0.000147865
1.0842e-19 0.022873 0.008656 0.000261141
0 -0.012127 0.02125 0.000164683
-9.67102e-20 0.014123 0.02 0.000180129
0 -0.023377 0.00736572 0.000314201
-1.0842e-19 0.020373 0.0137433 0.000219648
0 0.024123 0.00479858 0.000413224
0 -0.024627 0.00116943 0.000812909
1.0842e-19 -0.007127 0.02375 0.000144987
1.0842e-19 -0.022127 0.011217 0.000237395
-1.0842e-19 0.012873 0.02125 0.00017071
0 -0.024627 0.00356872 0.00054157
0 0.021623 0.0124878 0.000227337
-9.67102e-20 -0.010877 0.0225 0.000154564
3.28979e-21 -0.000877 0.025 0.000134898
-1.0842e-19 0.007873 0.02375 0.000148465
3.28979e-21 0.001623 0.025 0.000135451
0 0.024123 0.00736572 0.000293318
-9.67102e-20 -0.003377 0.025 0.000134357
-9.67102e-20 0.011623 0.0225 0.000159886
3.28979e-21 0.004123 0.025 0.000136007
5.20648e-29 -0.018377 0.0174852 0.000190667
0 -0.024627 0.00608215 0.00035495
1.58405e-19 -0.018377 0.0175 0.000190566
-1.0842e-19 -0.017127 0.01875 0.000182256
0 0.025373 0.00116944 0.000794575
0 -0.023377 0.00994629 0.000255755
1.0842e-19 0.022873 0.011217 0.000234885
1.0842e-19 -0.019627 0.0162494 0.000198937
8.08456e-20 -0.015877 0.02 0.000173183
0 0.025373 0.00356873 0.000498321
0 -0.009627 0.02375 0.000144443
8.08456e-20 -0.005877 0.025 0.000133825
0 -0.020877 0.0149988 0.000207443
-1.0842e-19 -0.014627 0.02125 0.000164143
-9.67102e-20 0.006623 0.025 0.000136569
0 -0.025877 9.27243e-09 0.000813116
1.0842e-19 0.017873 0.01875 0.000190203
1.0842e-19 0.010373 0.02375 0.000149075
-1.57772e-30 0.019123 0.0174929 0.000198235
0 0.019123 0.0175 0.000198194
-3.41419e-21 -0.025877 0.00233887 0.000678872
3.28979e-21 0.016623 0.02 0.000180795
1.0842e-19 -0.022127 0.0137433 0.000216064
0 0.020373 0.0162494 0.000206139
1.0842e-19 0.025373 0.00608215 0.000324975
0 0.024123 0.00994629 0.000247872
0 -0.024627 0.00865601 0.000274476
-9.67102e-20 -0.013377 0.0225 0.000154024
0 0.015373 0.02125 0.000171372
0 0.000373 0.02625 0.000123655
-8.07794e-28 0.021623 0.0149988 0.000213136
0 -0.025877 0.00479858 0.000449737
0 -0.002127 0.02625 0.000123144
8.08456e-20 -0.008377 0.025 0.000133301
0 0.002873 0.02625 0.000124183
0 -0.023377 0.0124878 0.000226739
0 0.014123 0.0225 0.000160534
-9.67102e-20 0.009123 0.025 0.000137144
-1.03398e-25 0.026623 3.76043e-10 0.000793805
1.0842e-19 -0.004627 0.02625 0.000122638
0 -0.012127 0.02375 0.000143902
-1.0842e-19 0.022873 0.0137433 0.000220038
8.27181e-25 0.026623 0.00233887 0.000646638
6.46235e-27 -0.025877 0.00674512 0.000347793
-1.0842e-19 0.005373 0.02625 0.000124705
1.0842e-19 0.025373 0.008656 0.000260646
0 -0.025877 0.00736572 0.000315292
-1.0842e-19 0.012873 0.02375 0.000149701
0 0.026623 0.00479858 0.000411316
0 -0.024627 0.011217 0.00023763
0 -0.019627 0.01875 0.000181793
-1.0842e-19 -0.027127 0.00116943 0.000813323
8.08456e-20 -0.018377 0.02 0.000172683
0 0.024123 0.0124878 0.000227568
1.0842e-19 -0.007127 0.02625 0.000122136
0 -0.020877 0.0174855 0.000190272
0 -0.020877 0.0175 0.000190172
3.28979e-21 -0.010877 0.025 0.000132784
0 -0.017127 0.02125 0.000163601
0 -0.027127 0.00356873 0.000543391
1.0842e-19 0.007873 0.02625 0.000125241
-2.1684e-19 -0.022127 0.0162494 0.000198618
6.45119e-20 -0.000877 0.0275 0.000111567
3.28979e-21 -0.015877 0.0225 0.000153489
4.41762e-29 -0.000877 0.0275314 0.000111277
3.28979e-21 0.001623 0.0275 0.000112045
8.08456e-20 0.011623 0.025 0.000137733
1.57772e-30 0.001623 0.0275281 0.000111784
0 0.026623 0.00736572 0.000292372
-9.67102e-20 0.019123 0.02 0.000181477
0 0.020373 0.01875 0.000190874
3.28979e-21 -0.003377 0.0275 0.0001111
-6.46235e-27 -0.025877 0.00994629 0.000256258
-1.02552e-28 -0.003377 0.0275189 0.000110926
-1.0842e-19 0.025373 0.011217 0.000234951
0 0.017873 0.02125 0.000172066
0 -0.023377 0.0149988 0.000207228
-2.1684e-19 -0.027127 0.00608215 0.000356357
8.08474e-20 0.004123 0.0275 0.000112528
-2.22459e-28 0.021623 0.0174934 0.000198869
-1.57772e-30 0.021623 0.0175 0.000198832
6.94198e-29 0.004123 0.0275277 0.00011227
1.0842e-19 -0.014627 0.02375 0.000143367
1.0842e-19 0.027873 0.00116944 0.000793034
-1.0842e-19 -0.009627 0.02625 0.000121639
-9.67102e-20 0.016623 0.0225 0.000161197
1.0842e-19 0.022873 0.0162494 0.000206734
2.1684e-19 0.027873 0.00356873 0.000495911
-9.67102e-20 -0.005877 0.0275 0.000110638
-2.44547e-28 -0.005877 0.02751 0.000110547
-2.1684e-19 -0.024627 0.0137433 0.000215953
-1.0842e-19 0.010373 0.02625 0.000125794
-1.91544e-20 0.006623 0.0275 0.000113017
0 0.015373 0.02375 0.000150354
5.36425e-29 0.006623 0.0275385 0.000112657
-3.54881e-20 -0.013377 0.025 0.000132275
0 -0.028377 9.16174e-09 0.000813492
8.07794e-28 0.024123 0.0149988 0.000213636
-5.16988e-26 0.026623 0.00994629 0.00024767
-1.82522e-20 -0.028377 0.00233887 0.000679951
1.0842e-19 -0.027127 0.008656 0.000275238
0 0.027873 0.00608215 0.000323575
8.08456e-20 0.014123 0.025 0.000138336
1.61559e-27 -0.025877 0.0124878 0.000226812
8.08456e-20 -0.008377 0.0275 0.000110181
0 0.000373 0.0287506 9.99475e-05
-1.41995e-29 -0.008377 0.0275072 0.000110115
-1.23021e-20 -0.028377 0.00479858 0.000451339
-2.1684e-19 -0.002127 0.0287506 9.95198e-05
1.0842e-19 0.025373 0.0137433 0.000220457
1.0842e-19 0.002873 0.0287506 0.00010039
8.08456e-20 -0.020877 0.02 0.000172197
0 -0.012127 0.02625 0.000121155
0 -0.019627 0.02125 0.000163082
8.08456e-20 0.009123 0.0275 0.000113521
0 -0.022127 0.01875 0.000181341
-3.15544e-30 0.009123 0.0275426 0.00011312
8.08456e-20 -0.018377 0.0225 0.000152964
0 -0.004627 0.0287506 9.90956e-05
-3.30872e-24 0.029123 1.5623e-08 0.000792241
0 0.027873 0.008656 0.000260175
-4.73317e-30 -0.023377 0.0174839 0.000189896
3.29323e-21 -0.023377 0.0175 0.000189783
-8.27181e-25 0.029123 0.00233888 0.000644644
-1.0842e-19 0.012873 0.02625 0.000126361
0 0.005373 0.0287506 0.00010083
0 -0.028377 0.00720803 0.00032467
0 -0.017127 0.02375 0.000142844
-3.23117e-27 -0.028377 0.00736572 0.00031638
0 -0.027127 0.011217 0.000237884
-2.86783e-20 0.026623 0.0124878 0.000227815
1.0842e-19 0.020373 0.02125 0.000172767
-9.67102e-20 0.021623 0.02 0.000182177
1.0842e-19 -0.024627 0.0162494 0.000198298
4.1359e-25 0.029123 0.00479858 0.000409396
8.08456e-20 0.019123 0.0225 0.000161873
-9.67102e-20 -0.010877 0.0275 0.00010973
1.0842e-19 0.022873 0.01875 0.000191582
-1.15174e-28 -0.010877 0.027507 0.000109666
-3.54881e-20 -0.015877 0.025 0.000131775
0 -0.007127 0.0287506 9.86792e-05
0 -0.029627 0.00116943 0.000813661
0 0.017873 0.02375 0.000150998
-3.97586e-28 0.024123 0.0174941 0.000199489
2.1684e-19 0.007873 0.0287506 0.000101286
1.0842e-19 -0.029627 0.00356872 0.000545156
8.08456e-20 0.011623 0.0275 0.000114036
-2.20881e-29 0.011623 0.0275283 0.000113769
-2.01948e-28 -0.025877 0.0149988 0.000207023
0 -0.000877 0.0300012 8.84242e-05
8.08456e-20 0.016623 0.025 0.000138949
0 0.029123 0.00736572 0.000291451
1.00974e-28 0.001623 0.0300012 8.88156e-05
-1.0842e-19 0.027873 0.011217 0.000235041
0 -0.014627 0.02625 0.000120677
3.23117e-27 -0.028377 0.00994629 0.000256772
0 0.025373 0.0162494 0.000207331
2.01948e-28 -0.003377 0.0300012 8.80411e-05
-2.1684e-19 -0.029627 0.00608215 0.000357767
0 0.004123 0.0300012 8.92111e-05
1.0842e-19 -0.009627 0.0287506 9.82651e-05
0 0.030373 0.00116944 0.000791448
0 -0.027127 0.0137433 0.00021587
0 0.015373 0.02625 0.00012693
0 0.026623 0.0149988 0.000214151
0 0.010373 0.0287506 0.000101757
4.03897e-28 -0.005877 0.0300012 8.76634e-05
3.28979e-21 -0.013377 0.0275 0.000109286
1.0842e-19 0.030373 0.00356873 0.000493457
3.21855e-28 -0.013377 0.0275077 0.000109216
1.0842e-19 -0.022127 0.02125 0.000162572
-9.67102e-20 -0.020877 0.0225 0.000152453
0 0.006623 0.0300012 8.96113e-05
-3.54881e-20 -0.023377 0.02 0.000171717
-1.05945e-19 0.029123 0.00994629 0.000247505
0 -0.019627 0.02375 0.000142329
0 -0.029627 0.008656 0.000276009
0 -0.030877 9.3525e-09 0.00081388
1.58401e-19 0.014123 0.0275 0.000114559
-2.36658e-29 0.014123 0.0275229 0.000114342
1.0842e-19 -0.024627 0.01875 0.000180878
5.07041e-20 -0.030877 0.00233887 0.000681019
-1.0842e-19 0.030373 0.00608215 0.000322176
-8.07794e-28 -0.028377 0.0124878 0.000226903
8.08456e-20 -0.018377 0.025 0.000131282
1.0842e-19 0.027873 0.0137433 0.000220869
0 -0.008377 0.0300012 8.72908e-05
0 -0.012127 0.0287506 9.78569e-05
3.28979e-21 0.021623 0.0225 0.000162566
1.0842e-19 0.022873 0.02125 0.000173487
4.73317e-30 -0.025877 0.0174781 0.000189557
3.28979e-21 -0.025877 0.0175 0.000189402
-3.88346e-21 -0.030877 0.00479858 0.00045293
1.0842e-19 0.000373 0.0312567 7.72718e-05
0 0.020373 0.02375 0.000151661
0 -0.002127 0.0312567 7.69282e-05
-3.54881e-20 0.024123 0.02 0.000182896
1.0842e-19 -0.017127 0.02625 0.000120211
0 0.009123 0.0300012 9.00232e-05
0 0.002873 0.0312567 7.76233e-05
8.08456e-20 0.019123 0.025 0.00013957
0 0.012873 0.0287506 0.000102229
1.0842e-19 0.025373 0.01875 0.000192291
1.0842e-19 0.030373 0.00865601 0.000259762
-1.0842e-19 -0.004627 0.0312567 7.65914e-05
0 -0.027127 0.0162494 0.000197992
3.30872e-24 0.031623 1.5812e-08 0.00079048
6.46235e-27 -0.030877 0.00690572 0.000341748
0 -0.029627 0.011217 0.000238152
0 0.029123 0.0124878 0.000228091
0 0.031623 0.00233888 0.000642536
0 0.005373 0.0312567 7.79706e-05
6.46235e-27 -0.030877 0.00736572 0.000317476
3.29719e-21 -0.015877 0.0275 0.000108851
1.0842e-19 0.017873 0.02625 0.000127514
1.08863e-28 -0.015877 0.0275076 0.000108782
-3.10811e-28 0.026623 0.017495 0.000200158
0 -0.010877 0.0300012 8.6924e-05
4.1359e-25 0.031623 0.00479858 0.000407457
2.1684e-19 -0.007127 0.0312567 7.62579e-05
1.00974e-28 -0.028377 0.0149988 0.000206831
-1.91544e-20 0.016623 0.0275 0.000115089
1.0842e-19 -0.032127 0.00116943 0.000814099
1.26218e-29 0.016623 0.0275317 0.000114787
-2.01948e-28 0.011623 0.0300012 9.04455e-05
-1.0842e-19 0.007873 0.0312567 7.83276e-05
1.0842e-19 -0.014627 0.0287506 9.74532e-05
0 0.027873 0.0162494 0.000207964
0 -0.032127 0.00356872 0.000546906
2.1684e-19 0.030373 0.011217 0.000235172
0 -0.030877 0.00994629 0.000257295
6.45119e-20 -0.023377 0.0225 0.000151955
0 -0.022127 0.02375 0.00014183
2.06795e-25 0.031623 0.00736572 0.000290544
0 -0.000877 0.0325122 6.67352e-05
0 -0.024627 0.02125 0.000162076
0 0.001623 0.0325122 6.70396e-05
1.58401e-19 -0.020877 0.025 0.0001308
0 0.015373 0.0287506 0.000102711
-1.0842e-19 -0.029627 0.0137433 0.000215796
0 -0.003377 0.0325122 6.64347e-05
-1.0842e-19 -0.032127 0.00608215 0.000359199
-3.54881e-20 -0.025877 0.02 0.000171247
0 -0.009627 0.0312567 7.59315e-05
0 0.029123 0.0149988 0.000214696
0 0.004123 0.0325122 6.73445e-05
1.0842e-19 -0.019627 0.02625 0.000119744
4.03897e-28 -0.013377 0.0300012 8.65604e-05
1.0842e-19 0.032873 0.00116944 0.000789511
0 0.010373 0.0312567 7.86915e-05
-1.0842e-19 0.022873 0.02375 0.00015235
0 -0.027127 0.01875 0.000180443
3.28979e-21 0.024123 0.0225 0.000163278
6.46235e-27 -0.005877 0.0325122 6.614e-05
-1.91544e-20 0.021623 0.025 0.000140207
-1.0842e-19 0.032873 0.00356873 0.00049099
8.08456e-20 -0.018377 0.0275 0.000108423
-5.04871e-29 -0.018377 0.0275066 0.000108363
1.0842e-19 0.025373 0.02125 0.000174223
6.46235e-27 -0.0327499 0.00479858 0.000454116
0 0.031623 0.00994629 0.00024738
0 0.014123 0.0300012 9.0874e-05
0 0.006623 0.0325122 6.76523e-05
0 0.020373 0.02625 0.000128107
0 -0.032127 0.008656 0.000276779
-1.13044e-19 0.026623 0.02 0.000183631
8.07794e-28 -0.030877 0.0124878 0.000227007
-3.15544e-30 -0.028377 0.0174662 0.000189275
-1.0842e-19 0.030373 0.0137433 0.000221339
0 -0.028377 0.0175 0.000189034
0 -0.033377 9.04343e-09 0.000814246
1.0842e-19 0.032873 0.00608215 0.000320756
-8.05953e-20 -0.033377 0.00233887 0.00068207
0 -0.017127 0.0287506 9.70601e-05
-1.91544e-20 0.019123 0.0275 0.000115628
0 -0.012127 0.0312567 7.56134e-05
-6.46235e-27 -0.008377 0.0325122 6.58517e-05
1.0842e-19 0.027873 0.01875 0.00019303
1.29247e-26 -0.033377 0.00469116 0.000464451
0 -0.033377 0.00479858 0.000454513
0 0.009123 0.0325122 6.79673e-05
2.1684e-19 0.000373 0.0337829 5.64593e-05
1.0842e-19 -0.029627 0.0162494 0.00019769
0 0.012873 0.0312567 7.90738e-05
0 -0.002127 0.0337829 5.61966e-05
-1.0842e-19 0.017873 0.0287506 0.000103196
1.0842e-19 0.002873 0.0337829 5.67189e-05
0 -0.015877 0.0300012 8.62025e-05
-2.20881e-29 0.029123 0.0174956 0.000200856
0 0.032873 0.008656 0.00025937
0 0.031623 0.0124878 0.000228411
2.1684e-19 -0.032127 0.011217 0.000238439
-1.0842e-19 -0.004627 0.033783 5.59379e-05
0 0.034123 1.53068e-08 0.000788482
0 0.019123 0.0282958 0.00010803
0 -0.033377 0.00736572 0.000318571
0 0.034123 0.00233888 0.000640292
-2.1684e-19 0.005373 0.0337829 5.69796e-05
0 -0.024627 0.02375 0.000141342
-1.57772e-30 -0.023377 0.025 0.000130331
0 -0.010877 0.0325122 6.55682e-05
3.28979e-21 -0.025877 0.0225 0.000151468
0 0.016623 0.0300012 9.13069e-05
0 -0.030877 0.0149988 0.000206646
-1.0842e-19 -0.022127 0.02625 0.000119299
-1.0842e-19 0.030373 0.0162494 0.000208629
4.1359e-25 0.034123 0.00479858 0.000405487
0 -0.027127 0.02125 0.000161592
1.0842e-19 -0.014627 0.0312567 7.52889e-05
0 -0.007127 0.0337829 5.56888e-05
3.9443e-29 -0.020877 0.027506 0.000107995
0 0.011623 0.0325122 6.82935e-05
-1.0842e-19 -0.034627 0.00116943 0.000814393
0 0.007873 0.0337829 5.72456e-05
-1.91544e-20 -0.028377 0.02 0.00017079
-1.0842e-19 0.032873 0.011217 0.000235343
-1.91544e-20 0.024123 0.025 0.000140863
0 0.025373 0.02375 0.000153052
1.0842e-19 -0.034627 0.00356872 0.000548652
0 -0.019627 0.0287506 9.66717e-05
0 0.022873 0.02625 0.000128712
-6.46235e-27 -0.033377 0.00994629 0.000257823
2.1684e-19 0.015373 0.0312567 7.94506e-05
6.45119e-20 0.026623 0.0225 0.000164005
-2.06795e-25 0.034123 0.00736572 0.000289627
1.0842e-19 -0.032127 0.0137433 0.000215731
1.58401e-19 0.021623 0.0275 0.000116177
-8.07794e-28 0.031623 0.0149988 0.000215276
-1.0842e-19 0.027873 0.02125 0.00017498
0 -0.029627 0.01875 0.000180016
-6.46235e-27 -0.000877 0.0350537 4.6965e-05
0 0.001623 0.0350537 4.71969e-05
-1.0842e-19 -0.009627 0.0337829 5.54447e-05
-6.46235e-27 -0.013377 0.0325122 6.52831e-05
1.0842e-19 -0.034627 0.00608215 0.0003606
0 -0.018377 0.0300012 8.58524e-05
-1.29247e-26 -0.003377 0.0350537 4.67344e-05
1.0842e-19 0.020373 0.0287506 0.000103693
6.46235e-27 0.004123 0.0350537 4.74291e-05
-9.67102e-20 0.029123 0.02 0.000184389
-3.25261e-19 0.010373 0.033783 5.75183e-05
1.0842e-19 0.035373 0.00116944 0.000787453
0 0.014123 0.0325122 6.86251e-05
3.15544e-30 -0.030877 0.0174649 0.000188923
-1.91544e-20 -0.030877 0.0175 0.000188671
0 -0.005877 0.0350537 4.65075e-05
-5.16988e-26 0.034123 0.00994629 0.000247273
0 0.035373 0.00356873 0.000488468
0 0.019123 0.0300012 9.17465e-05
-3.15544e-30 0.0191872 0.0300012 9.1758e-05
0 0.032873 0.0137433 0.000221847
0 -0.033377 0.0124878 0.000227121
-1.0842e-19 -0.017127 0.0312567 7.4979e-05
0 0.006623 0.0350537 4.76641e-05
0 -0.034627 0.008656 0.000277554
-1.0842e-19 0.030373 0.01875 0.000193788
-1.65436e-24 -0.035877 8.28686e-09 0.000814516
1.0842e-19 0.035373 0.00608215 0.000319297
0 -0.012127 0.0337829 5.51997e-05
1.3128e-19 -0.035877 0.00233887 0.000683061
-9.67102e-20 -0.025877 0.025 0.000129868
1.0842e-19 -0.024627 0.02625 0.000118853
0 -0.032127 0.0162494 0.000197392
0 0.017873 0.0312567 7.98383e-05
0 -0.008377 0.0350537 4.6285e-05
0 -0.027127 0.02375 0.000140864
-9.67102e-20 -0.023377 0.0275 0.000107592
-1.34106e-28 -0.023377 0.0275062 0.000107536
2.58494e-26 -0.035877 0.00401222 0.000528644
4.41762e-29 0.031623 0.0174955 0.000201576
2.1684e-19 0.012873 0.0337829 5.78037e-05
-6.46235e-27 -0.015877 0.0325122 6.50003e-05
-5.16988e-26 -0.035877 0.00479858 0.00045608
5.84013e-20 -0.028377 0.0225 0.000150987
6.46235e-27 0.009123 0.0350537 4.79045e-05
-1.0842e-19 -0.022127 0.0287506 9.62967e-05
1.29247e-26 0.034123 0.0124878 0.000228757
1.0842e-19 0.000373 0.036344 3.76532e-05
0 -0.034627 0.011217 0.000238721
0 -0.002127 0.036344 3.74521e-05
0 0.035373 0.008656 0.000258974
-1.0842e-19 0.002873 0.036344 3.7857e-05
-1.0842e-19 -0.029627 0.02125 0.00016111
-1.0842e-19 0.025373 0.02625 0.000129336
-1.61559e-27 0.016623 0.0325122 6.8958e-05
8.08456e-20 0.026623 0.025 0.000141532
-8.07794e-28 -0.020877 0.0300012 8.55108e-05
5.84013e-20 0.024123 0.0275 0.00011674
2.01948e-28 -0.033377 0.0149988 0.000206476
-1.0842e-19 0.027873 0.02375 0.000153764
0 0.036623 1.42897e-08 0.000786411
0 -0.035877 0.00736572 0.000319664
-1.0842e-19 -0.004627 0.036344 3.72527e-05
0 0.032873 0.0162494 0.000209304
-8.27181e-25 0.036623 0.00233888 0.000637973
0 -0.010877 0.0350537 4.6064e-05
-2.1684e-19 0.005373 0.036344 3.80616e-05
-1.0842e-19 0.022873 0.0287506 0.000104194