# kMean  POINT_DATA 26799
# x  y  z  kMean
-5.92878e-09 0 0 0.000806706
0.000876986 5.42101e-20 0 0.00080987
-0.000876991 -5.42101e-20 0 0.000803499
0.001623 1.0842e-19 0 0.000812606
-0.00162301 -5.42101e-20 0 0.000800818
0.00125 -9.03502e-21 0.00116943 0.000792688
-0.00125 9.03502e-21 0.00116944 0.00078391
8.56612e-10 1.0842e-19 0.00233887 0.000665557
-0.00249999 0 0 0.000797685
0.0025 1.0842e-19 0 0.0008159
-0.00337698 0 0 0.00079455
0.003377 1.0842e-19 0 0.000819135
-0.0025 -1.0842e-19 0.00233887 0.000658835
0.0025 0 0.00233887 0.000672407
-0.00125 1.807e-20 0.00356872 0.000526781
0.00125 9.03502e-21 0.00356872 0.000531334
-0.00375 0 0.00116943 0.000775253
0.00375 -2.71051e-20 0.00116943 0.000801679
-0.004123 -5.42101e-20 0 0.000791837
0.004123 5.42101e-20 0 0.000821941
1.02013e-09 -1.0842e-19 0.00479858 0.000431909
-0.00499999 -1.0842e-19 0 0.00078857
0.00500001 1.0842e-19 0 0.000825329
-0.00375 -1.807e-20 0.00356872 0.000522308
0.00375 -5.42101e-20 0.00356872 0.000535967
0.0025 1.0842e-19 0.00479858 0.000434967
-0.0025 -1.0842e-19 0.00479858 0.000428913
-0.005 1.0842e-19 0.00233887 0.00065211
0.00500001 1.0842e-19 0.00233887 0.000679407
-0.00587699 -1.0842e-19 0 0.000785362
0.00587702 5.42101e-20 0 0.000828638
-0.00125 0 0.00608215 0.00034667
0.00125 0 0.00608215 0.00034839
-0.00625 -3.61401e-20 0.00116943 0.000766384
0.00625001 -3.61401e-20 0.00116944 0.000810885
0.006623 0 0 0.000831479
-0.006623 5.42101e-20 0 0.000782688
0.005 1.0842e-19 0.00479858 0.00043808
-0.005 -1.0842e-19 0.00479858 0.000425983
-0.00375 1.807e-20 0.00608215 0.000344994
0.00375 3.61401e-20 0.00608215 0.000350155
-0.00625 1.807e-20 0.00356872 0.000517917
0.00625 4.51751e-20 0.00356873 0.000540658
5.20266e-10 1.0842e-19 0.00736572 0.000303725
0.00750001 1.0842e-19 0 0.000834865
-0.00750001 1.0842e-19 0 0.000779604
0.0025 1.0842e-19 0.00736572 0.000304777
-0.0025 1.0842e-19 0.00736572 0.000302707
-0.0075 1.0842e-19 0.00233887 0.000645494
0.00750001 1.0842e-19 0.00233887 0.000686503
-0.00837701 0 0 0.000776586
0.00837702 5.42101e-20 0 0.00083819
-0.00625 0 0.00608215 0.000343365
0.00625 -1.807e-20 0.00608215 0.00035196
-0.00125 0 0.008656 0.000269499
0.00125 -1.807e-20 0.008656 0.000270006
-0.00875 9.03502e-21 0.00116944 0.000757954
0.00875 1.807e-20 0.00116944 0.000820134
0.005 1.0842e-19 0.00736572 0.000305862
-0.005 1.0842e-19 0.00736572 0.000301714
0.0075 1.0842e-19 0.00479858 0.000441253
-0.0075 1.0842e-19 0.00479858 0.000423105
0.00912299 -5.42101e-20 0 0.000841068
-0.009123 0 0 0.000773993
-0.00375 0 0.008656 0.000269008
0.00375 1.807e-20 0.008656 0.000270546
-0.00875 -9.03502e-21 0.00356873 0.000513581
0.00875 0 0.00356873 0.000545474
1.71243e-10 1.0842e-19 0.00994629 0.00025123
-0.01 -1.0842e-19 0 0.000770902
0.01 -1.0842e-19 0 0.000844522
0.0025 1.0842e-19 0.00994629 0.000251517
-0.0025 1.0842e-19 0.00994629 0.000250963
-0.01 -1.0842e-19 0.00233887 0.00063903
0.01 1.0842e-19 0.00233887 0.000693686
0.0075 1.0842e-19 0.00736572 0.000306979
-0.0075 1.0842e-19 0.00736572 0.000300748
-0.00875 4.51751e-20 0.00608215 0.00034177
0.00875 0 0.00608215 0.000353794
-0.00625 -1.807e-20 0.008656 0.000268522
0.00625 0 0.008656 0.000271105
0.010877 1.0842e-19 0 0.000847941
-0.010877 1.0842e-19 0 0.000767878
0.01 1.0842e-19 0.00479858 0.000444469
-0.01 1.0842e-19 0.00479858 0.000420264
0.005 1.0842e-19 0.00994629 0.000251823
-0.005 1.0842e-19 0.00994629 0.000250702
-0.00125 -1.807e-20 0.011217 0.000236332
0.00125 0 0.011217 0.000236443
-0.01125 9.03502e-21 0.00116944 0.000749547
0.01125 -3.61401e-20 0.00116944 0.000829584
-0.011623 -1.0842e-19 0 0.000765313
0.011623 1.0842e-19 0 0.000850863
-0.01125 0 0.00356873 0.000509282
0.01125 1.807e-20 0.00356873 0.000550276
0.00375 -1.807e-20 0.011217 0.000236574
-0.00375 1.807e-20 0.011217 0.000236231
-0.00875 0 0.008656 0.000268071
0.00875 3.61401e-20 0.008656 0.000271696
0.01 1.0842e-19 0.00736572 0.000308125
-0.01 1.0842e-19 0.00736572 0.000299812
0.0075 1.0842e-19 0.00994629 0.000252147
-0.0075 1.0842e-19 0.00994629 0.000250454
3.3838e-11 1.0842e-19 0.0124878 0.000226411
-0.0125 -1.0842e-19 0 0.000762294
0.0125 -1.0842e-19 0 0.000854329
-0.0125 0 0.00233887 0.000632646
0.0125 1.0842e-19 0.00233887 0.000700977
0.0025 1.0842e-19 0.0124878 0.000226485
-0.0025 1.0842e-19 0.0124878 0.000226351
-0.01125 0 0.00608215 0.000340203
0.01125 0 0.00608215 0.00035567
0.00625 -1.807e-20 0.011217 0.000236718
-0.00625 0 0.011217 0.000236128
0.013377 1.0842e-19 0 0.000857797
-0.013377 0 0 0.000759322
0.0125 1.0842e-19 0.00479858 0.000447739
-0.0125 1.0842e-19 0.00479858 0.00041747
0.005 1.0842e-19 0.0124878 0.00022657
-0.005 1.0842e-19 0.0124878 0.000226293
-0.01375 1.807e-20 0.00116944 0.000741302
0.01375 -1.807e-20 0.00116944 0.000839135
-0.00125 1.807e-20 0.0137433 0.000217497
0.00125 0 0.0137433 0.000217542
0.01 1.0842e-19 0.00994629 0.000252493
-0.01 1.0842e-19 0.00994629 0.000250229
-0.014123 1.6263e-19 0 0.000756796
0.014123 1.0842e-19 0 0.00086077
0.01125 -1.807e-20 0.008656 0.000272312
-0.01125 -1.807e-20 0.008656 0.000267637
-0.01375 0 0.00356873 0.000505078
0.01375 1.807e-20 0.00356873 0.000555217
0.00875 -1.807e-20 0.011217 0.000236873
-0.00875 -1.807e-20 0.011217 0.000236045
0.00375 -1.807e-20 0.0137433 0.000217608
-0.00375 0 0.0137433 0.000217459
0.0125 1.0842e-19 0.00736572 0.000309305
-0.0125 1.0842e-19 0.00736572 0.000298897
0.0075 1.0842e-19 0.0124878 0.000226665
-0.0075 1.0842e-19 0.0124878 0.00022624
3.02741e-12 1.0842e-19 0.0149988 0.000209665
-0.015 -1.0842e-19 0 0.000753808
0.015 -1.0842e-19 0 0.000864308
0.01375 1.807e-20 0.00608215 0.000357595
-0.01375 -9.03502e-21 0.00608215 0.00033867
-0.00625 3.61401e-20 0.0137433 0.000217415
0.00625 0 0.0137433 0.000217672
0.015 1.0842e-19 0.00233887 0.000708412
-0.015 -1.0842e-19 0.00233887 0.00062637
0.0025 1.0842e-19 0.0149988 0.000209741
-0.0025 1.0842e-19 0.0149988 0.000209599
0.015 1.0842e-19 0.00479858 0.000451085
-0.015 -1.0842e-19 0.00479858 0.000414735
0.005 1.0842e-19 0.0149988 0.000209825
-0.005 1.0842e-19 0.0149988 0.000209531
0.015877 -5.42101e-20 0 0.000867857
-0.015877 1.6263e-19 0 0.000750832
-0.01125 -1.807e-20 0.011217 0.000235974
0.01125 3.61401e-20 0.011217 0.000237045
0.0125 1.0842e-19 0.00994629 0.000252859
-0.0125 1.0842e-19 0.00994629 0.000250013
0.01 1.0842e-19 0.0124878 0.000226773
-0.01 1.0842e-19 0.0124878 0.000226204
0.01375 0 0.008656 0.000272945
-0.01375 1.807e-20 0.00865601 0.000267203
-0.01625 0 0.00116944 0.000733114
0.01625 -9.03502e-21 0.00116944 0.000848886
0.00875 1.807e-20 0.0137433 0.000217749
-0.00875 3.61401e-20 0.0137433 0.000217383
-0.00125 0 0.0162494 0.000201902
0.00125 0 0.0162494 0.000201999
-0.016623 0 0 0.000748341
0.016623 0 0 0.000870874
0.01625 9.03502e-21 0.00356873 0.000560238
-0.01625 -9.03502e-21 0.00356873 0.000500974
-0.00375 0 0.0162494 0.000201801
0.00375 0 0.0162494 0.000202113
0.015 1.0842e-19 0.00736572 0.000310514
-0.015 1.0842e-19 0.00736572 0.000297999
0.0075 1.0842e-19 0.0149988 0.000209917
-0.0075 1.0842e-19 0.0149988 0.000209465
0.01625 -1.807e-20 0.00608215 0.000359537
-0.01625 9.03502e-21 0.00608215 0.000337157
0.00625 3.61401e-20 0.0162494 0.000202227
-0.00625 3.61401e-20 0.0162494 0.000201692
-0.0175 -1.0842e-19 0 0.000745433
0.0175 1.0842e-19 0 0.000874428
-1.02402e-14 1.0842e-19 0.0175 0.00019391
-0.0175 -1.0842e-19 0.00233887 0.0006202
0.0175 1.0842e-19 0.00233887 0.000715956
0.0125 1.0842e-19 0.0124878 0.000226895
-0.0125 1.0842e-19 0.0124878 0.000226179
0.0025 1.0842e-19 0.0175 0.000194058
-0.0025 1.0842e-19 0.0175 0.000193768
-0.01375 0 0.011217 0.000235915
0.01375 3.61401e-20 0.011217 0.000237237
0.01125 -1.807e-20 0.0137433 0.000217834
-0.01125 0 0.0137433 0.000217368
0.015 1.0842e-19 0.00994629 0.000253248
-0.015 1.0842e-19 0.00994629 0.00024981
0.01 1.0842e-19 0.0149988 0.00021002
-0.01 1.0842e-19 0.0149988 0.000209418
0.0175 1.0842e-19 0.00479858 0.000454487
-0.0175 1.0842e-19 0.00479858 0.000412063
0.005 1.0842e-19 0.0175 0.000194217
-0.005 1.0842e-19 0.0175 0.000193621
0.018377 0 0 0.000877995
-0.018377 -5.42101e-20 0 0.000742539
0.01625 0 0.008656 0.00027361
-0.01625 3.61401e-20 0.008656 0.000266794
-0.00875 -1.807e-20 0.0162494 0.000201603
0.00875 3.61401e-20 0.0162494 0.000202359
-0.01875 -9.03502e-21 0.00116944 0.000725129
0.01875 2.71051e-20 0.00116944 0.000858705
0.00125 0 0.01875 0.000185766
-0.00125 3.61401e-20 0.01875 0.000185588
0.0175 1.0842e-19 0.00736572 0.000311755
-0.0175 1.0842e-19 0.00736572 0.000297123
0.0075 1.0842e-19 0.0175 0.000194385
-0.0075 1.0842e-19 0.0175 0.00019348
-0.01875 9.03502e-21 0.00356873 0.000496979
0.01875 9.03502e-21 0.00356872 0.000565365
-0.00375 0 0.01875 0.000185392
0.00375 3.61401e-20 0.01875 0.000185967
-0.019123 5.42101e-20 0 0.000740094
0.019123 0 0 0.000881056
0.01375 0 0.0137433 0.000217934
-0.01375 0 0.0137433 0.000217354
0.015 1.0842e-19 0.0124878 0.000227036
-0.015 1.0842e-19 0.0124878 0.000226164
0.0125 1.0842e-19 0.0149988 0.000210136
-0.0125 1.0842e-19 0.0149988 0.00020938
-0.01875 0 0.00608215 0.000335684
0.01875 9.03502e-21 0.00608215 0.000361547
-0.01625 -1.807e-20 0.011217 0.000235873
0.01625 0 0.011217 0.000237452
0.01125 0 0.0162494 0.000202501
-0.01125 0 0.0162494 0.00020153
0.00625 3.61401e-20 0.01875 0.000186178
-0.00625 3.61401e-20 0.01875 0.000185204
0.02 1.0842e-19 0 0.000884688
-0.02 1.0842e-19 0 0.000737222
-1.024e-14 1.0842e-19 0.02 0.000176641
0.0175 1.0842e-19 0.00994629 0.000253658
-0.0175 1.0842e-19 0.00994629 0.000249618
0.02 0 0.00233887 0.000723612
-0.02 0 0.00233887 0.000614149
0.01 1.0842e-19 0.0175 0.000194564
0.0025 1.0842e-19 0.02 0.000176874
-0.0025 1.0842e-19 0.02 0.000176413
-0.01 1.0842e-19 0.0175 0.000193357
0.02 1.0842e-19 0.00479858 0.000457961
-0.02 1.0842e-19 0.00479858 0.000409447
0.005 1.0842e-19 0.02 0.00017712
-0.005 1.0842e-19 0.02 0.000176182
0.01875 0 0.008656 0.000274302
-0.01875 -1.807e-20 0.008656 0.000266395
-0.00875 3.61401e-20 0.01875 0.000185026
0.00875 -1.807e-20 0.01875 0.000186396
0.020877 1.0842e-19 0 0.000888389
-0.020877 -1.0842e-19 0 0.000734352
0.015 1.0842e-19 0.0149988 0.000210264
-0.015 1.0842e-19 0.0149988 0.00020935
-0.02125 1.807e-20 0.00116944 0.000717244
0.02125 1.807e-20 0.00116943 0.000868782
0.01625 0 0.0137433 0.000218053
-0.01625 -1.807e-20 0.0137433 0.000217363
0.01375 -1.807e-20 0.0162494 0.000202653
-0.01375 1.807e-20 0.0162494 0.000201459
0.00125 0 0.02125 0.000167434
-0.00125 0 0.02125 0.000167165
0.02 1.0842e-19 0.00736572 0.000313039
-0.02 1.0842e-19 0.00736572 0.000296272
0.0075 1.0842e-19 0.02 0.000177373
-0.0075 1.0842e-19 0.02 0.000175955
0.0175 1.0842e-19 0.0124878 0.000227192
-0.0175 1.0842e-19 0.0124878 0.000226157
0.0125 1.0842e-19 0.0175 0.000194752
-0.0125 1.0842e-19 0.0175 0.000193243
-0.02125 -4.51751e-20 0.00356873 0.000493027
0.02125 3.61401e-20 0.00356872 0.000570557
-0.00375 3.61401e-20 0.02125 0.0001669
0.00375 3.61401e-20 0.02125 0.000167717
-0.021623 0 0 0.000731958
0.021623 -5.42101e-20 0 0.000891499
0.01875 0 0.011217 0.000237674
-0.01875 -1.807e-20 0.011217 0.000235821
0.01125 1.807e-20 0.01875 0.000186623
-0.01125 3.61401e-20 0.01875 0.000184871
-0.02125 0 0.00608215 0.000334246
0.02125 1.807e-20 0.00608215 0.000363613
0.00625 3.61401e-20 0.02125 0.000168003
-0.00625 3.61401e-20 0.02125 0.000166627
0.02 1.0842e-19 0.00994629 0.00025409
-0.02 1.0842e-19 0.00994629 0.000249436
0.01 1.0842e-19 0.02 0.000177633
-0.01 1.0842e-19 0.02 0.000175746
0.0225 1.0842e-19 0 0.000895118
-0.0225 -1.0842e-19 0 0.000729175
-1.024e-14 1.0842e-19 0.0225 0.000157034
0.0225 0 0.00233887 0.00073141
-0.0225 1.0842e-19 0.00233887 0.000608213
0.0025 1.0842e-19 0.0225 0.000157343
-0.0025 1.0842e-19 0.0225 0.000156731
-0.02125 -1.807e-20 0.008656 0.000266019
0.02125 9.03502e-21 0.008656 0.000275021
0.01625 0 0.0162494 0.000202813
-0.01625 0 0.0162494 0.000201402
0.00875 0 0.02125 0.000168296
-0.00875 -1.807e-20 0.02125 0.000166364
0.0225 -1.0842e-19 0.00479858 0.000461515
-0.0225 1.0842e-19 0.00479858 0.00040688
0.0175 1.0842e-19 0.0149988 0.000210404
-0.0175 1.0842e-19 0.0149988 0.000209329
0.005 1.0842e-19 0.0225 0.00015766
-0.005 1.0842e-19 0.0225 0.000156427
0.015 1.0842e-19 0.0175 0.000194948
-0.015 1.0842e-19 0.0175 0.000193135
0.01875 -1.807e-20 0.0137433 0.000218178
-0.01875 3.61401e-20 0.0137433 0.000217366
0.01375 0 0.01875 0.00018686
-0.01375 0 0.01875 0.000184708
0.023377 0 0 0.00089882
-0.023377 -1.6263e-19 0 0.000726396
0.02 1.0842e-19 0.0124878 0.00022736
-0.02 1.0842e-19 0.0124878 0.000226155
0.0125 1.0842e-19 0.02 0.000177902
-0.0125 1.0842e-19 0.02 0.000175542
0.0225 1.0842e-19 0.00736572 0.000314365
-0.0225 1.0842e-19 0.00736572 0.000295444
0.0075 1.0842e-19 0.0225 0.000157983
-0.0075 1.0842e-19 0.0225 0.000156122
0.02375 -3.61401e-20 0.00116943 0.000878888
-0.02375 -2.71051e-20 0.00116944 0.000709576
0.00125 3.61401e-20 0.02375 0.000146632
-0.00125 3.61401e-20 0.02375 0.000146294
0.02375 9.03502e-21 0.00356872 0.000575882
-0.02375 -9.03502e-21 0.00356873 0.000489169
-0.02125 0 0.011217 0.000235792
0.02125 3.61401e-20 0.011217 0.000237919
0.01125 3.61401e-20 0.02125 0.000168597
-0.01125 -1.807e-20 0.02125 0.000166124
0.00375 0 0.02375 0.000146974
-0.00375 0 0.02375 0.000145959
-0.024123 1.0842e-19 0 0.000724025
0.024123 -5.42101e-20 0 0.00090197
-0.02375 0 0.00608215 0.000332844
0.02375 1.807e-20 0.00608215 0.000365714
0.00625 3.61401e-20 0.02375 0.000147322
-0.00625 -1.807e-20 0.02375 0.000145617
0.0225 1.0842e-19 0.00994629 0.000254553
-0.0225 1.0842e-19 0.00994629 0.000249261
0.01 1.0842e-19 0.0225 0.000158311
-0.01 1.0842e-19 0.0225 0.000155833
0.0175 1.0842e-19 0.0175 0.000195152
-0.0175 1.0842e-19 0.0175 0.000193033
0.01875 -1.807e-20 0.0162494 0.000202989
-0.01875 1.807e-20 0.0162494 0.000201342
0.01625 3.61401e-20 0.01875 0.000187095
-0.01625 3.61401e-20 0.01875 0.000184562
0.02 1.0842e-19 0.0149988 0.000210555
-0.02 1.0842e-19 0.0149988 0.000209312
0.015 1.0842e-19 0.02 0.000178177
-0.015 1.0842e-19 0.02 0.000175342
0.025 0 0 0.000905701
-0.025 1.0842e-19 0 0.000721219
-1.024e-14 1.0842e-19 0.025 0.000135092
0.025 0 0.00233887 0.000739344
-0.025 1.0842e-19 0.00233887 0.000602358
0.0025 1.0842e-19 0.025 0.000135455
-0.0025 1.0842e-19 0.025 0.000134734
0.02375 -1.807e-20 0.008656 0.000275786
-0.02375 3.61401e-20 0.008656 0.000265652
0.02125 0 0.0137433 0.000218313
-0.02125 0 0.0137433 0.000217383
0.01375 3.61401e-20 0.02125 0.000168906
-0.00875 0 0.02375 0.000145285
-0.01375 3.61401e-20 0.02125 0.000165868
0.00875 0 0.02375 0.000147683
0.025 0 0.00479858 0.000465156
-0.025 1.0842e-19 0.00479858 0.000404362
0.005 1.0842e-19 0.025 0.000135823
-0.005 1.0842e-19 0.025 0.000134373
0.0225 1.0842e-19 0.0124878 0.00022755
-0.0225 1.0842e-19 0.0124878 0.000226154
0.0125 1.0842e-19 0.0225 0.000158646
-0.0125 1.0842e-19 0.0225 0.000155548
0.025877 0 0 0.000909467
-0.025877 1.0842e-19 0 0.000718458
0.025 1.0842e-19 0.00736572 0.000315731
-0.025 1.0842e-19 0.00736572 0.00029464
0.0075 1.0842e-19 0.025 0.000136198
-0.0075 1.0842e-19 0.025 0.000134013
-0.02375 0 0.011217 0.000235743
0.02375 0 0.011217 0.000238189
0.02625 -9.03502e-21 0.00116943 0.000889213
-0.02625 0 0.00116944 0.000701916
0.00125 0 0.02625 0.000123723
-0.01125 -1.807e-20 0.02375 0.00014497
0.01125 3.61401e-20 0.02375 0.000148038
-0.00125 0 0.02625 0.000123348
0.02625 9.03502e-21 0.00356872 0.000581333
-0.02625 9.03502e-21 0.00356873 0.000485359
0.00375 3.61401e-20 0.02625 0.000124109
-0.00375 0 0.02625 0.000122969
0.01875 3.61401e-20 0.01875 0.000187344
-0.01875 0 0.01875 0.000184415
0.02 1.0842e-19 0.0175 0.000195366
0.0175 1.0842e-19 0.02 0.000178458
-0.0175 1.0842e-19 0.02 0.000175149
-0.02 1.0842e-19 0.0175 0.000192935
-0.026623 1.0842e-19 0 0.000716102
0.026623 1.0842e-19 0 0.000912663
0.02125 -1.807e-20 0.0162494 0.000203175
-0.02125 0 0.0162494 0.000201297
-0.01625 0 0.02125 0.000165636
0.01625 3.61401e-20 0.02125 0.000169221
0.025 1.0842e-19 0.00994629 0.000255039
-0.025 1.0842e-19 0.00994629 0.000249098
0.01 1.0842e-19 0.025 0.000136577
-0.01 1.0842e-19 0.025 0.000133665
0.02625 1.807e-20 0.00608215 0.00036789
-0.02625 9.03502e-21 0.00608215 0.000331469
0.00625 0 0.02625 0.000124496
-0.00625 0 0.02625 0.000122589
0.0225 1.0842e-19 0.0149988 0.000210721
-0.0225 1.0842e-19 0.0149988 0.000209299
0.015 1.0842e-19 0.0225 0.000158988
-0.015 1.0842e-19 0.0225 0.000155267
-0.02375 -1.807e-20 0.0137433 0.000217395
0.02375 3.61401e-20 0.0137433 0.00021848
0.01375 3.61401e-20 0.02375 0.000148408
-0.01375 3.61401e-20 0.02375 0.000144648
0.0275 1.0842e-19 0 0.000916434
-0.0275 1.0842e-19 0 0.000713332
-1.02399e-14 1.0842e-19 0.0275 0.000111735
-0.0275 1.0842e-19 0.00233887 0.000596563
0.0275 0 0.00233887 0.000747419
0.0025 1.0842e-19 0.0275 0.00011212
-0.0025 1.0842e-19 0.0275 0.000111353
0.02625 1.807e-20 0.008656 0.000276558
-0.02625 3.61401e-20 0.008656 0.000265304
0.00875 -1.807e-20 0.02625 0.000124893
-0.00875 0 0.02625 0.000122213
0.0275 0 0.00479858 0.000468888
-0.0275 1.0842e-19 0.00479858 0.000401883
0.025 1.0842e-19 0.0124878 0.00022776
-0.025 1.0842e-19 0.0124878 0.000226159
0.005 1.0842e-19 0.0275 0.00011251
-0.005 1.0842e-19 0.0275 0.00011097
0.0125 1.0842e-19 0.025 0.000136961
-0.0125 1.0842e-19 0.025 0.000133321
0.02 1.0842e-19 0.02 0.000178745
-0.02 1.0842e-19 0.02 0.000174959
-0.02125 -1.807e-20 0.01875 0.000184276
0.02125 -1.807e-20 0.01875 0.000187598
-0.01875 3.61401e-20 0.02125 0.000165395
0.01875 1.807e-20 0.02125 0.000169542
0.028377 0 0 0.000920259
-0.028377 1.0842e-19 0 0.00071059
0.0275 1.0842e-19 0.00736572 0.000317137
-0.0275 1.0842e-19 0.00736572 0.000293857
0.0075 1.0842e-19 0.0275 0.000112905
-0.0075 1.0842e-19 0.0275 0.000110589
0.0225 1.0842e-19 0.0175 0.000195593
0.0175 1.0842e-19 0.0225 0.000159338
-0.0175 1.0842e-19 0.0225 0.000154991
-0.0225 1.0842e-19 0.0175 0.000192844
0.02625 0 0.011217 0.000238479
-0.02625 0 0.011217 0.000235724
-0.01125 3.61401e-20 0.02625 0.000121854
0.01125 3.61401e-20 0.02625 0.00012529
0.02875 0 0.00116943 0.000899678
-0.02875 9.03502e-21 0.00116944 0.000694344
-0.02375 0 0.0162494 0.000201248
0.02375 3.61401e-20 0.0162494 0.000203373
0.01625 1.807e-20 0.02375 0.000148779
-0.01625 3.61401e-20 0.02375 0.000144341
0.00125 5.42101e-20 0.0287506 0.000100143
-0.00125 -5.42101e-20 0.0287506 9.97622e-05
0.02875 -1.807e-20 0.00356872 0.000586921
-0.02875 1.807e-20 0.00356873 0.000481593
0.00375 -1.807e-20 0.0287506 0.000100531
-0.00375 0 0.0287506 9.93809e-05
-0.029123 5.42101e-20 0 0.000708285
0.029123 0 0 0.000923495
0.025 1.0842e-19 0.0149988 0.000210903
-0.025 1.0842e-19 0.0149988 0.000209294
0.015 1.0842e-19 0.025 0.000137353
-0.015 1.0842e-19 0.025 0.000132981
0.0275 1.0842e-19 0.00994629 0.00025555
-0.0275 1.0842e-19 0.00994629 0.000248951
0.01 1.0842e-19 0.0275 0.000113305
-0.01 1.0842e-19 0.0275 0.000110217
0.02875 0 0.00608215 0.000370116
-0.02875 -5.42101e-20 0.00608215 0.000330113
0.00625 3.61401e-20 0.0287506 0.000100921
-0.00625 3.61401e-20 0.0287506 9.8999e-05
0.02625 3.61401e-20 0.0137433 0.000218661
-0.02625 3.61401e-20 0.0137433 0.000217422
0.01375 3.61401e-20 0.02625 0.000125696
-0.01375 0 0.02625 0.000121485
0.03 1.0842e-19 0 0.000927297
-0.03 1.0842e-19 0 0.000705585
8.39715e-13 1.0842e-19 0.0300012 8.85615e-05
0.02875 1.807e-20 0.008656 0.000277386
-0.02875 0 0.008656 0.00026497
0.02125 1.807e-20 0.02125 0.000169868
-0.02125 1.807e-20 0.02125 0.000165167
-0.00875 3.61401e-20 0.0287506 9.86214e-05
0.00875 0 0.0287506 0.000101319
0.03 -1.0842e-19 0.00233887 0.00075561
-0.03 1.0842e-19 0.00233887 0.000590877
0.0225 1.0842e-19 0.02 0.000179043
0.02 1.0842e-19 0.0225 0.000159692
-0.02 1.0842e-19 0.0225 0.000154718
-0.0225 1.0842e-19 0.02 0.000174776
0.0025 1.0842e-19 0.0300012 8.89334e-05
-0.0025 1.0842e-19 0.0300012 8.81932e-05
0.0275 1.0842e-19 0.0124878 0.00022799
-0.0275 1.0842e-19 0.0124878 0.000226172
0.0125 1.0842e-19 0.0275 0.00011371
-0.0125 1.0842e-19 0.0275 0.00010985
0.01875 0 0.02375 0.000149165
-0.01875 0 0.02375 0.000144027
-0.02375 0 0.01875 0.000184136
0.02375 3.61401e-20 0.01875 0.000187869
0.03 -1.0842e-19 0.00479858 0.0004727
-0.03 1.0842e-19 0.00479858 0.000399456
0.005 1.0842e-19 0.0300012 8.93089e-05
-0.005 1.0842e-19 0.0300012 8.78246e-05
0.0175 1.0842e-19 0.025 0.00013775
0.025 1.0842e-19 0.0175 0.000195826
-0.0175 1.0842e-19 0.025 0.000132646
-0.025 1.0842e-19 0.0175 0.000192759
-0.02875 -1.807e-20 0.011217 0.000235707
0.02875 0 0.011217 0.000238798
0.02625 3.61401e-20 0.0162494 0.000203581
-0.02625 0 0.0162494 0.000201218
0.01625 0 0.02625 0.000126106
-0.01625 3.61401e-20 0.02625 0.000121133
0.01125 0 0.0287506 0.000101718
-0.01125 0 0.0287506 9.82565e-05
0.030877 0 0 0.000931176
-0.030877 1.0842e-19 0 0.000702867
0.03 1.0842e-19 0.00736572 0.000318589
-0.03 1.0842e-19 0.00736572 0.000293097
0.0075 1.0842e-19 0.0300012 8.9689e-05
-0.0075 1.0842e-19 0.0300012 8.74572e-05
0.03125 -9.03502e-21 0.00116943 0.000910267
-0.03125 -1.807e-20 0.00116944 0.000686909
0.00125 1.807e-20 0.0312567 7.75231e-05
-0.00125 -1.807e-20 0.0312567 7.71689e-05
0.0275 1.0842e-19 0.0149988 0.000211099
-0.0275 1.0842e-19 0.0149988 0.000209291
0.015 1.0842e-19 0.0275 0.00011412
-0.015 1.0842e-19 0.0275 0.000109486
0.03125 1.807e-20 0.00356872 0.000592564
-0.03125 0 0.00356873 0.000477921
0.00375 0 0.0312567 7.788e-05
-0.00375 -1.807e-20 0.0312567 7.68178e-05
0.03 1.0842e-19 0.00994629 0.000256093
-0.03 1.0842e-19 0.00994629 0.000248819
-0.031623 1.0842e-19 0 0.000700608
0.031623 -1.0842e-19 0 0.000934453
0.01 1.0842e-19 0.0300012 9.00735e-05
-0.01 1.0842e-19 0.0300012 8.70985e-05
0.0225 1.0842e-19 0.0225 0.000160054
-0.0225 1.0842e-19 0.0225 0.000154451
0.03125 0 0.00608215 0.000372409
-0.03125 -1.807e-20 0.00608215 0.000328799
0.02875 0 0.0137433 0.000218861
-0.02875 1.807e-20 0.0137433 0.000217439
0.02375 -1.807e-20 0.02125 0.000170205
0.02125 -1.807e-20 0.02375 0.000149546
-0.02125 0 0.02375 0.000143728
-0.02375 0 0.02125 0.000164938
0.01375 0 0.0287506 0.000102124
-0.01375 0 0.0287506 9.7889e-05
0.00625 -1.807e-20 0.0312567 7.82412e-05
-0.00625 3.61401e-20 0.0312567 7.6463e-05
0.02 1.0842e-19 0.025 0.000138153
0.025 1.0842e-19 0.02 0.000179347
-0.02 1.0842e-19 0.025 0.000132313
-0.025 1.0842e-19 0.02 0.000174597
0.02625 3.61401e-20 0.01875 0.000188133
-0.01875 3.61401e-20 0.02625 0.000120775
-0.02625 1.807e-20 0.01875 0.000184013
0.01875 0 0.02625 0.000126523
0.03125 1.807e-20 0.008656 0.000278235
-0.03125 0 0.008656 0.000264663
0.00875 0 0.0312567 7.86063e-05
-0.00875 -1.807e-20 0.0312567 7.61139e-05
0.03 1.0842e-19 0.0124878 0.000228237
-0.03 1.0842e-19 0.0124878 0.000226194
-0.0325 1.0842e-19 0 0.000697989
0.0325 0 0 0.000938304
0.0125 1.0842e-19 0.0300012 9.0462e-05
-0.0125 1.0842e-19 0.0300012 8.6744e-05
8.42745e-12 1.0842e-19 0.0325122 6.6842e-05
-0.0325 1.0842e-19 0.00233887 0.000585303
0.0325 0 0.00233887 0.000763926
0.0175 1.0842e-19 0.0275 0.000114535
0.0275 1.0842e-19 0.0175 0.000196067
-0.0175 1.0842e-19 0.0275 0.000109126
-0.0275 1.0842e-19 0.0175 0.000192679
0.0025 1.0842e-19 0.0325122 6.71764e-05
-0.0025 1.0842e-19 0.0325122 6.65095e-05
0.0325 -1.0842e-19 0.00479858 0.000476595
-0.0325 1.0842e-19 0.00479858 0.000397082
0.005 1.0842e-19 0.0325122 6.75136e-05
-0.005 1.0842e-19 0.0325122 6.61761e-05
0.02875 0 0.0162494 0.000203803
-0.02875 0 0.0162494 0.000201179
0.01625 -1.807e-20 0.0287506 0.000102533
-0.01625 3.61401e-20 0.0287506 9.75316e-05
0.03125 0 0.011217 0.000239141
-0.03125 1.807e-20 0.011217 0.000235708
0.01125 0 0.0312567 7.89752e-05
-0.01125 3.61401e-20 0.0312567 7.57751e-05
0.0325 1.0842e-19 0.00736572 0.000320087
-0.0325 1.0842e-19 0.00736572 0.000292358
0.0075 1.0842e-19 0.0325122 6.78545e-05
-0.0075 1.0842e-19 0.0325122 6.58443e-05
0.033377 -1.0842e-19 0 0.000942249
-0.033377 5.42101e-20 0 0.000695357
0.03 1.0842e-19 0.0149988 0.000211304
-0.03 1.0842e-19 0.0149988 0.000209292
0.015 1.0842e-19 0.0300012 9.08547e-05
-0.015 1.0842e-19 0.0300012 8.63928e-05
-0.02375 -1.807e-20 0.02375 0.000143422
0.02375 -1.807e-20 0.02375 0.000149944
0.0225 1.0842e-19 0.025 0.000138562
0.025 1.0842e-19 0.0225 0.000160425
-0.0225 1.0842e-19 0.025 0.000131986
-0.025 1.0842e-19 0.0225 0.000154187
0.03375 0 0.00116943 0.000921022
-0.03375 9.03502e-21 0.00116944 0.000679676
0.02125 3.61401e-20 0.02625 0.000126943
0.02625 3.61401e-20 0.02125 0.000170549
-0.02125 3.61401e-20 0.02625 0.000120427
-0.02625 3.61401e-20 0.02125 0.000164717
0.00125 -5.42101e-20 0.0337829 5.67124e-05
-0.00125 1.807e-20 0.033783 5.64007e-05
0.03375 -9.03502e-21 0.00356872 0.000598365
-0.03375 0 0.00356872 0.000474316
0.0325 1.0842e-19 0.00994629 0.00025666
-0.0325 1.0842e-19 0.00994629 0.000248697
-0.00375 -1.807e-20 0.0337829 5.60881e-05
0.00375 3.61401e-20 0.0337829 5.70264e-05
0.02 1.0842e-19 0.0275 0.000114956
0.0275 1.0842e-19 0.02 0.000179656
-0.02 1.0842e-19 0.0275 0.000108768
-0.0275 1.0842e-19 0.02 0.000174422
0.01 1.0842e-19 0.0325122 6.81981e-05
-0.01 1.0842e-19 0.0325122 6.55196e-05
-0.034123 0 0 0.000693127
0.034123 -5.42101e-20 0 0.000945608
-0.03125 3.61401e-20 0.0137433 0.000217477
0.03125 3.61401e-20 0.0137433 0.000219058
0.01375 3.61401e-20 0.0312567 7.93474e-05
-0.01375 0 0.0312567 7.54335e-05
0.03375 1.807e-20 0.00608215 0.000374752
-0.03375 1.807e-20 0.00608215 0.000327508
-0.02875 0 0.01875 0.000183881
0.02875 1.807e-20 0.01875 0.00018841
-0.01875 0 0.0287506 9.71688e-05
0.01875 3.61401e-20 0.0287506 0.000102949
-0.00625 -1.807e-20 0.0337829 5.57736e-05
0.00625 3.61401e-20 0.0337829 5.73424e-05
0.03 1.0842e-19 0.0175 0.000196317
-0.03 1.0842e-19 0.0175 0.000192601
0.0175 1.0842e-19 0.0300012 9.12523e-05
-0.0175 1.0842e-19 0.0300012 8.60443e-05
0.0325 1.0842e-19 0.0124878 0.0002285
-0.0325 1.0842e-19 0.0124878 0.000226227
0.0125 1.0842e-19 0.0325122 6.85451e-05
-0.0125 1.0842e-19 0.0325122 6.51975e-05
0.03375 3.61401e-20 0.008656 0.000279128
-0.03375 1.807e-20 0.008656 0.000264359
0.00875 0 0.0337829 5.76621e-05
-0.00875 0 0.0337829 5.54652e-05
-0.035 0 0 0.000690513
0.035 -1.0842e-19 0 0.000949577
3.85541e-11 1.0842e-19 0.0350537 4.70464e-05
-0.035 -1.0842e-19 0.00233887 0.000579822
0.035 0 0.00233887 0.000772421
0.0025 1.0842e-19 0.0350537 4.73418e-05
-0.0025 1.0842e-19 0.0350537 4.67521e-05
0.03125 0 0.0162494 0.000204029
-0.03125 0 0.0162494 0.000201152
0.01625 3.61401e-20 0.0312567 7.97238e-05
-0.01625 3.61401e-20 0.0312567 7.5101e-05
0.035 -1.0842e-19 0.00479858 0.000480564
-0.035 1.0842e-19 0.00479858 0.000394755
0.025 1.0842e-19 0.025 0.00013898
-0.025 1.0842e-19 0.025 0.000131661
0.02625 0 0.02375 0.000150344
-0.02375 0 0.02625 0.00012008
-0.02625 0 0.02375 0.000143125
0.02375 0 0.02625 0.000127372
0.005 1.0842e-19 0.0350537 4.76388e-05
-0.005 1.0842e-19 0.0350537 4.64569e-05
0.0225 1.0842e-19 0.0275 0.000115383
0.0275 1.0842e-19 0.0225 0.000160803
-0.0225 1.0842e-19 0.0275 0.000108415
-0.0275 1.0842e-19 0.0225 0.000153927
0.03375 -1.807e-20 0.011217 0.000239505
-0.03375 -1.807e-20 0.011217 0.000235713
0.01125 0 0.0337829 5.79817e-05
-0.01125 0 0.0337829 5.51617e-05
0.02875 0 0.02125 0.0001709
-0.02875 1.807e-20 0.02125 0.000164496
0.02125 0 0.0287506 0.000103368
-0.02125 0 0.0287506 9.68167e-05
0.035 1.0842e-19 0.00736572 0.000321633
-0.035 1.0842e-19 0.00736572 0.000291642
0.0325 1.0842e-19 0.0149988 0.000211523
-0.0325 1.0842e-19 0.0149988 0.000209303
0.015 1.0842e-19 0.0325122 6.88955e-05
-0.015 1.0842e-19 0.0325122 6.4878e-05
0.0075 1.0842e-19 0.0350537 4.79383e-05
-0.0075 1.0842e-19 0.0350537 4.61626e-05
-0.035877 1.6263e-19 0 0.00068789
0.035877 -5.42101e-20 0 0.000953638
0.03 1.0842e-19 0.02 0.000179972
-0.03 1.0842e-19 0.02 0.000174251
0.02 1.0842e-19 0.0300012 9.16547e-05
-0.02 1.0842e-19 0.0300012 8.56984e-05
0.03625 -9.03502e-21 0.00116944 0.000932087
-0.03625 0 0.00116944 0.000672481
-0.00125 -1.807e-20 0.036344 3.76853e-05
0.00125 3.61401e-20 0.036344 3.7961e-05
0.035 1.0842e-19 0.00994629 0.000257258
-0.035 1.0842e-19 0.00994629 0.000248591
0.03625 -3.61401e-20 0.00356873 0.000604202
-0.03625 0 0.00356872 0.000470783
0.03375 0 0.0137433 0.000219289
-0.03375 0 0.0137433 0.000217517
0.03125 0 0.01875 0.000188693
-0.03125 0 0.01875 0.000183764
0.01875 3.61401e-20 0.0312567 8.01051e-05
-0.01875 3.61401e-20 0.0312567 7.47649e-05
0.01 1.0842e-19 0.0350537 4.82395e-05
-0.01 1.0842e-19 0.0350537 4.5873e-05
0.01375 0 0.0337829 5.83075e-05
-0.01375 -1.807e-20 0.0337829 5.48582e-05
-0.00375 0 0.036344 3.74105e-05
0.00375 1.807e-20 0.036344 3.8239e-05
0.036623 1.0842e-19 0 0.000957072
-0.036623 5.42101e-20 0 0.000685685
0.03625 1.807e-20 0.00608215 0.000377167
-0.03625 -3.61401e-20 0.00608215 0.000326259
-0.00625 -1.807e-20 0.036344 3.71338e-05
0.00625 0 0.036344 3.85175e-05
0.0325 1.0842e-19 0.0175 0.000196583
-0.0325 1.0842e-19 0.0175 0.000192529
0.0175 1.0842e-19 0.0325122 6.92492e-05
-0.0175 1.0842e-19 0.0325122 6.45605e-05
0.02625 3.61401e-20 0.02625 0.000127808
-0.02625 3.61401e-20 0.02625 0.000119739
0.035 1.0842e-19 0.0124878 0.000228789
-0.035 1.0842e-19 0.0124878 0.000226271
0.025 1.0842e-19 0.0275 0.000115815
0.0275 1.0842e-19 0.025 0.000139403
-0.025 1.0842e-19 0.0275 0.000108065
-0.0275 1.0842e-19 0.025 0.00013134
0.0125 1.0842e-19 0.0350537 4.85428e-05
-0.0125 1.0842e-19 0.0350537 4.55851e-05
0.03625 3.61401e-20 0.008656 0.000280052
-0.03625 1.807e-20 0.008656 0.000264082
-0.02875 0 0.02375 0.000142828
0.02875 0 0.02375 0.000150753
-0.02375 3.61401e-20 0.0287506 9.64617e-05
0.02375 3.61401e-20 0.0287506 0.000103798
-0.00875 0 0.036344 3.68591e-05
0.00875 -1.807e-20 0.036344 3.87998e-05
0.03375 0 0.0162494 0.000204284
-0.03375 -1.807e-20 0.0162494 0.000201127
0.01625 0 0.0337829 5.86328e-05
-0.01625 3.61401e-20 0.0337829 5.45581e-05
-0.0375 1.0842e-19 0 0.000683115
0.0375 0 0 0.000961119
0.03 1.0842e-19 0.0225 0.000161186
-0.03 1.0842e-19 0.0225 0.00015367
0.0225 1.0842e-19 0.0300012 9.20628e-05
-0.0225 1.0842e-19 0.0300012 8.53567e-05
-0.0375 0 0.00233887 0.000574423
0.0375 -1.0842e-19 0.00233887 0.000781103
8.7068e-11 1.0842e-19 0.0376343 2.9732e-05
0.0025 1.0842e-19 0.0376343 2.99819e-05
-0.0025 1.0842e-19 0.0376343 2.94839e-05
-0.03125 -1.807e-20 0.02125 0.000164281
0.03125 0 0.02125 0.000171255
0.02125 3.61401e-20 0.0312567 8.04899e-05