# omega  POINT_DATA 26799
# x  y  z  omega
-5.92878e-09 0 0 123.705
0.000876986 5.42101e-20 0 123.896
-0.000876991 -5.42101e-20 0 123.514
0.001623 1.0842e-19 0 124.059
-0.00162301 -5.42101e-20 0 123.353
0.00125 -9.03502e-21 0.00116943 118.873
-0.00125 9.03502e-21 0.00116944 118.351
8.56612e-10 1.0842e-19 0.00233887 84.6861
-0.00249999 0 0 123.164
0.0025 1.0842e-19 0 124.252
-0.00337698 0 0 122.975
0.003377 1.0842e-19 0 124.446
-0.0025 -1.0842e-19 0.00233887 84.3137
0.0025 0 0.00233887 85.0627
-0.00125 1.807e-20 0.00356872 48.5899
0.00125 9.03502e-21 0.00356872 48.8062
-0.00375 0 0.00116943 117.835
0.00375 -2.71051e-20 0.00116943 119.401
-0.004123 -5.42101e-20 0 122.816
0.004123 5.42101e-20 0 124.611
1.02013e-09 -1.0842e-19 0.00479858 33.3992
-0.00499999 -1.0842e-19 0 122.629
0.00500001 1.0842e-19 0 124.805
-0.00375 -1.807e-20 0.00356872 48.376
0.00375 -5.42101e-20 0.00356872 49.0248
0.0025 1.0842e-19 0.00479858 33.5378
-0.0025 -1.0842e-19 0.00479858 33.2622
-0.005 1.0842e-19 0.00233887 83.9453
0.00500001 1.0842e-19 0.00233887 85.4433
-0.00587699 -1.0842e-19 0 122.443
0.00587702 5.42101e-20 0 125.001
-0.00125 0 0.00608215 22.5557
0.00125 0 0.00608215 22.6335
-0.00625 -3.61401e-20 0.00116943 117.325
0.00625001 -3.61401e-20 0.00116944 119.934
0.006623 0 0 125.167
-0.006623 5.42101e-20 0 122.285
0.005 1.0842e-19 0.00479858 33.6783
-0.005 -1.0842e-19 0.00479858 33.1269
-0.00375 1.807e-20 0.00608215 22.4791
0.00375 3.61401e-20 0.00608215 22.7126
-0.00625 1.807e-20 0.00356872 48.1644
0.00625 4.51751e-20 0.00356873 49.2458
5.20266e-10 1.0842e-19 0.00736572 17.4912
0.00750001 1.0842e-19 0 125.363
-0.00750001 1.0842e-19 0 122.099
0.0025 1.0842e-19 0.00736572 17.5403
-0.0025 1.0842e-19 0.00736572 17.443
-0.0075 1.0842e-19 0.00233887 83.5805
0.00750001 1.0842e-19 0.00233887 85.8279
-0.00837701 0 0 121.914
0.00837702 5.42101e-20 0 125.561
-0.00625 0 0.00608215 22.4036
0.00625 -1.807e-20 0.00608215 22.7931
-0.00125 0 0.008656 13.6816
0.00125 -1.807e-20 0.008656 13.7084
-0.00875 9.03502e-21 0.00116944 116.818
0.00875 1.807e-20 0.00116944 120.473
0.005 1.0842e-19 0.00736572 17.5903
-0.005 1.0842e-19 0.00736572 17.3956
0.0075 1.0842e-19 0.00479858 33.8204
-0.0075 1.0842e-19 0.00479858 32.9933
0.00912299 -5.42101e-20 0 125.729
-0.009123 0 0 121.757
-0.00375 0 0.008656 13.6553
0.00375 1.807e-20 0.008656 13.736
-0.00875 -9.03502e-21 0.00356873 47.955
0.00875 0 0.00356873 49.4692
1.71243e-10 1.0842e-19 0.00994629 11.6366
-0.01 -1.0842e-19 0 121.574
0.01 -1.0842e-19 0 125.928
0.0025 1.0842e-19 0.00994629 11.6536
-0.0025 1.0842e-19 0.00994629 11.62
-0.01 -1.0842e-19 0.00233887 83.2194
0.01 1.0842e-19 0.00233887 86.2165
0.0075 1.0842e-19 0.00736572 17.6414
-0.0075 1.0842e-19 0.00736572 17.3491
-0.00875 4.51751e-20 0.00608215 22.3293
0.00875 0 0.00608215 22.875
-0.00625 -1.807e-20 0.008656 13.6296
0.00625 0 0.008656 13.7641
0.010877 1.0842e-19 0 126.128
-0.010877 1.0842e-19 0 121.391
0.01 1.0842e-19 0.00479858 33.9644
-0.01 1.0842e-19 0.00479858 32.8613
0.005 1.0842e-19 0.00994629 11.6712
-0.005 1.0842e-19 0.00994629 11.6039
-0.00125 -1.807e-20 0.011217 10.0006
0.00125 0 0.011217 10.0102
-0.01125 9.03502e-21 0.00116944 116.317
0.01125 -3.61401e-20 0.00116944 121.017
-0.011623 -1.0842e-19 0 121.237
0.011623 1.0842e-19 0 126.298
-0.01125 0 0.00356873 47.7478
0.01125 1.807e-20 0.00356873 49.6949
0.00375 -1.807e-20 0.011217 10.0201
-0.00375 1.807e-20 0.011217 9.99146
-0.00875 0 0.008656 13.6044
0.00875 3.61401e-20 0.008656 13.793
0.01 1.0842e-19 0.00736572 17.6935
-0.01 1.0842e-19 0.00736572 17.3035
0.0075 1.0842e-19 0.00994629 11.6892
-0.0075 1.0842e-19 0.00994629 11.5882
3.3838e-11 1.0842e-19 0.0124878 9.00073
-0.0125 -1.0842e-19 0 121.055
0.0125 -1.0842e-19 0 126.498
-0.0125 0 0.00233887 82.8623
0.0125 1.0842e-19 0.00233887 86.609
0.0025 1.0842e-19 0.0124878 9.00735
-0.0025 1.0842e-19 0.0124878 8.99445
-0.01125 0 0.00608215 22.2561
0.01125 0 0.00608215 22.9583
0.00625 -1.807e-20 0.011217 10.0305
-0.00625 0 0.011217 9.98265
0.013377 1.0842e-19 0 126.701
-0.013377 0 0 120.874
0.0125 1.0842e-19 0.00479858 34.1102
-0.0125 1.0842e-19 0.00479858 32.7308
0.005 1.0842e-19 0.0124878 9.01431
-0.005 1.0842e-19 0.0124878 8.9885
-0.01375 1.807e-20 0.00116944 115.822
0.01375 -1.807e-20 0.00116944 121.568
-0.00125 1.807e-20 0.0137433 8.15495
0.00125 0 0.0137433 8.15929
0.01 1.0842e-19 0.00994629 11.7078
-0.01 1.0842e-19 0.00994629 11.573
-0.014123 1.6263e-19 0 120.721
0.014123 1.0842e-19 0 126.872
0.01125 -1.807e-20 0.008656 13.8225
-0.01125 -1.807e-20 0.008656 13.5799
-0.01375 0 0.00356873 47.5431
0.01375 1.807e-20 0.00356873 49.9229
0.00875 -1.807e-20 0.011217 10.0412
-0.00875 -1.807e-20 0.011217 9.97418
0.00375 -1.807e-20 0.0137433 8.16395
-0.00375 0 0.0137433 8.1509
0.0125 1.0842e-19 0.00736572 17.7468
-0.0125 1.0842e-19 0.00736572 17.2586
0.0075 1.0842e-19 0.0124878 9.02163
-0.0075 1.0842e-19 0.0124878 8.98286
3.02741e-12 1.0842e-19 0.0149988 7.5772
-0.015 -1.0842e-19 0 120.541
0.015 -1.0842e-19 0 127.074
0.01375 1.807e-20 0.00608215 23.0433
-0.01375 -9.03502e-21 0.00608215 22.184
-0.00625 3.61401e-20 0.0137433 8.14715
0.00625 0 0.0137433 8.16892
0.015 1.0842e-19 0.00233887 87.0055
-0.015 -1.0842e-19 0.00233887 82.509
0.0025 1.0842e-19 0.0149988 7.58114
-0.0025 1.0842e-19 0.0149988 7.57356
0.015 1.0842e-19 0.00479858 34.2579
-0.015 -1.0842e-19 0.00479858 32.6019
0.005 1.0842e-19 0.0149988 7.58537
-0.005 1.0842e-19 0.0149988 7.5702
0.015877 -5.42101e-20 0 127.278
-0.015877 1.6263e-19 0 120.362
-0.01125 -1.807e-20 0.011217 9.96607
0.01125 3.61401e-20 0.011217 10.0523
0.0125 1.0842e-19 0.00994629 11.7269
-0.0125 1.0842e-19 0.00994629 11.5583
0.01 1.0842e-19 0.0124878 9.0293
-0.01 1.0842e-19 0.0124878 8.97754
0.01375 0 0.008656 13.8528
-0.01375 1.807e-20 0.00865601 13.5559
-0.01625 0 0.00116944 115.332
0.01625 -9.03502e-21 0.00116944 122.123
0.00875 1.807e-20 0.0137433 8.17423
-0.00875 3.61401e-20 0.0137433 8.14368
-0.00125 0 0.0162494 7.06474
0.00125 0 0.0162494 7.06832
-0.016623 0 0 120.211
0.016623 0 0 127.452
0.01625 9.03502e-21 0.00356873 50.1532
-0.01625 -9.03502e-21 0.00356873 47.3405
-0.00375 0 0.0162494 7.06143
0.00375 0 0.0162494 7.07218
0.015 1.0842e-19 0.00736572 17.8012
-0.015 1.0842e-19 0.00736572 17.2145
0.0075 1.0842e-19 0.0149988 7.5899
-0.0075 1.0842e-19 0.0149988 7.5671
0.01625 -1.807e-20 0.00608215 23.1299
-0.01625 9.03502e-21 0.00608215 22.113
0.00625 3.61401e-20 0.0162494 7.07633
-0.00625 3.61401e-20 0.0162494 7.05838
-0.0175 -1.0842e-19 0 120.033
0.0175 1.0842e-19 0 127.657
-1.02402e-14 1.0842e-19 0.0175 6.68016
-0.0175 -1.0842e-19 0.00233887 82.1595
0.0175 1.0842e-19 0.00233887 87.4061
0.0125 1.0842e-19 0.0124878 9.03735
-0.0125 1.0842e-19 0.0124878 8.97252
0.0025 1.0842e-19 0.0175 6.68416
-0.0025 1.0842e-19 0.0175 6.67641
-0.01375 0 0.011217 9.95829
0.01375 3.61401e-20 0.011217 10.0639
0.01125 -1.807e-20 0.0137433 8.17988
-0.01125 0 0.0137433 8.1405
0.015 1.0842e-19 0.00994629 11.7466
-0.015 1.0842e-19 0.00994629 11.5439
0.01 1.0842e-19 0.0149988 7.59475
-0.01 1.0842e-19 0.0149988 7.56428
0.0175 1.0842e-19 0.00479858 34.4077
-0.0175 1.0842e-19 0.00479858 32.4746
0.005 1.0842e-19 0.0175 6.68843
-0.005 1.0842e-19 0.0175 6.6729
0.018377 0 0 127.863
-0.018377 -5.42101e-20 0 119.856
0.01625 0 0.008656 13.8838
-0.01625 3.61401e-20 0.008656 13.5324
-0.00875 -1.807e-20 0.0162494 7.05558
0.00875 3.61401e-20 0.0162494 7.08076
-0.01875 -9.03502e-21 0.00116944 114.847
0.01875 2.71051e-20 0.00116944 122.684
0.00125 0 0.01875 6.3287
-0.00125 3.61401e-20 0.01875 6.32443
0.0175 1.0842e-19 0.00736572 17.857
-0.0175 1.0842e-19 0.00736572 17.1712
0.0075 1.0842e-19 0.0175 6.69297
-0.0075 1.0842e-19 0.0175 6.66964
-0.01875 9.03502e-21 0.00356873 47.1401
0.01875 9.03502e-21 0.00356872 50.3859
-0.00375 0 0.01875 6.32039
0.00375 3.61401e-20 0.01875 6.33321
-0.019123 5.42101e-20 0 119.706
0.019123 0 0 128.038
0.01375 0 0.0137433 8.18586
-0.01375 0 0.0137433 8.13759
0.015 1.0842e-19 0.0124878 9.04577
-0.015 1.0842e-19 0.0124878 8.96781
0.0125 1.0842e-19 0.0149988 7.59993
-0.0125 1.0842e-19 0.0149988 7.56172
-0.01875 0 0.00608215 22.043
0.01875 9.03502e-21 0.00608215 23.2186
-0.01625 -1.807e-20 0.011217 9.95086
0.01625 0 0.011217 10.0759
0.01125 0 0.0162494 7.0855
-0.01125 0 0.0162494 7.05303
0.00625 3.61401e-20 0.01875 6.33797
-0.00625 3.61401e-20 0.01875 6.31658
0.02 1.0842e-19 0 128.245
-0.02 1.0842e-19 0 119.531
-1.024e-14 1.0842e-19 0.02 6.034
0.0175 1.0842e-19 0.00994629 11.7668
-0.0175 1.0842e-19 0.00994629 11.53
0.02 0 0.00233887 87.8109
-0.02 0 0.00233887 81.8138
0.01 1.0842e-19 0.0175 6.69779
0.0025 1.0842e-19 0.02 6.03884
-0.0025 1.0842e-19 0.02 6.02937
-0.01 1.0842e-19 0.0175 6.66661
0.02 1.0842e-19 0.00479858 34.5594
-0.02 1.0842e-19 0.00479858 32.3488
0.005 1.0842e-19 0.02 6.04391
-0.005 1.0842e-19 0.02 6.02496
0.01875 0 0.008656 13.9157
-0.01875 -1.807e-20 0.008656 13.5094
-0.00875 3.61401e-20 0.01875 6.31299
0.00875 -1.807e-20 0.01875 6.34298
0.020877 1.0842e-19 0 128.453
-0.020877 -1.0842e-19 0 119.356
0.015 1.0842e-19 0.0149988 7.60543
-0.015 1.0842e-19 0.0149988 7.55941
-0.02125 1.807e-20 0.00116944 114.368
0.02125 1.807e-20 0.00116943 123.252
0.01625 0 0.0137433 8.1922
-0.01625 -1.807e-20 0.0137433 8.13496
0.01375 -1.807e-20 0.0162494 7.09055
-0.01375 1.807e-20 0.0162494 7.05072
0.00125 0 0.02125 5.76029
-0.00125 0 0.02125 5.7551
0.02 1.0842e-19 0.00736572 17.9142
-0.02 1.0842e-19 0.00736572 17.1286
0.0075 1.0842e-19 0.02 6.04921
-0.0075 1.0842e-19 0.02 6.02076
0.0175 1.0842e-19 0.0124878 9.05458
-0.0175 1.0842e-19 0.0124878 8.96339
0.0125 1.0842e-19 0.0175 6.7029
-0.0125 1.0842e-19 0.0175 6.66382
-0.02125 -4.51751e-20 0.00356873 46.9418
0.02125 3.61401e-20 0.00356872 50.6211
-0.00375 3.61401e-20 0.02125 5.75011
0.00375 3.61401e-20 0.02125 5.76568
-0.021623 0 0 119.207
0.021623 -5.42101e-20 0 128.63
0.01875 0 0.011217 10.0883
-0.01875 -1.807e-20 0.011217 9.94375
0.01125 1.807e-20 0.01875 6.34826
-0.01125 3.61401e-20 0.01875 6.30962
-0.02125 0 0.00608215 21.974
0.02125 1.807e-20 0.00608215 23.3092
0.00625 3.61401e-20 0.02125 5.77129
-0.00625 3.61401e-20 0.02125 5.74531
0.02 1.0842e-19 0.00994629 11.7877
-0.02 1.0842e-19 0.00994629 11.5164
0.01 1.0842e-19 0.02 6.05475
-0.01 1.0842e-19 0.02 6.01676
0.0225 1.0842e-19 0 128.839
-0.0225 -1.0842e-19 0 119.033
-1.024e-14 1.0842e-19 0.0225 5.51247
0.0225 0 0.00233887 88.2198
-0.0225 1.0842e-19 0.00233887 81.4717
0.0025 1.0842e-19 0.0225 5.51813
-0.0025 1.0842e-19 0.0225 5.507
-0.02125 -1.807e-20 0.008656 13.487
0.02125 9.03502e-21 0.008656 13.9485
0.01625 0 0.0162494 7.0959
-0.01625 0 0.0162494 7.04866
0.00875 0 0.02125 5.77711
-0.00875 -1.807e-20 0.02125 5.7407
0.0225 -1.0842e-19 0.00479858 34.7134
-0.0225 1.0842e-19 0.00479858 32.2245
0.0175 1.0842e-19 0.0149988 7.61127
-0.0175 1.0842e-19 0.0149988 7.55735
0.005 1.0842e-19 0.0225 5.52398
-0.005 1.0842e-19 0.0225 5.50171
0.015 1.0842e-19 0.0175 6.70829
-0.015 1.0842e-19 0.0175 6.66124
0.01875 -1.807e-20 0.0137433 8.1989
-0.01875 3.61401e-20 0.0137433 8.13258
0.01375 0 0.01875 6.3538
-0.01375 0 0.01875 6.30647
0.023377 0 0 129.05
-0.023377 -1.6263e-19 0 118.86
0.02 1.0842e-19 0.0124878 9.0638
-0.02 1.0842e-19 0.0124878 8.95927
0.0125 1.0842e-19 0.02 6.06054
-0.0125 1.0842e-19 0.02 6.01295
0.0225 1.0842e-19 0.00736572 17.9729
-0.0225 1.0842e-19 0.00736572 17.0868
0.0075 1.0842e-19 0.0225 5.53004
-0.0075 1.0842e-19 0.0225 5.4966
0.02375 -3.61401e-20 0.00116943 123.825
-0.02375 -2.71051e-20 0.00116944 113.893
0.00125 3.61401e-20 0.02375 5.27873
-0.00125 3.61401e-20 0.02375 5.27284
0.02375 9.03502e-21 0.00356872 50.8586
-0.02375 -9.03502e-21 0.00356873 46.7458
-0.02125 0 0.011217 9.93699
0.02125 3.61401e-20 0.011217 10.1012
0.01125 3.61401e-20 0.02125 5.78315
-0.01125 -1.807e-20 0.02125 5.73627
0.00375 0 0.02375 5.2848
-0.00375 0 0.02375 5.26712
-0.024123 1.0842e-19 0 118.714
0.024123 -5.42101e-20 0 129.229
-0.02375 0 0.00608215 21.9061
0.02375 1.807e-20 0.00608215 23.402
0.00625 3.61401e-20 0.02375 5.29106
-0.00625 -1.807e-20 0.02375 5.26157
0.0225 1.0842e-19 0.00994629 11.8092
-0.0225 1.0842e-19 0.00994629 11.5033
0.01 1.0842e-19 0.0225 5.5363
-0.01 1.0842e-19 0.0225 5.49166
0.0175 1.0842e-19 0.0175 6.71398
-0.0175 1.0842e-19 0.0175 6.65889
0.01875 -1.807e-20 0.0162494 7.1016
-0.01875 1.807e-20 0.0162494 7.04682
0.01625 3.61401e-20 0.01875 6.35961
-0.01625 3.61401e-20 0.01875 6.30351
0.02 1.0842e-19 0.0149988 7.61746
-0.02 1.0842e-19 0.0149988 7.55554
0.015 1.0842e-19 0.02 6.06657
-0.015 1.0842e-19 0.02 6.00934
0.025 0 0 129.44
-0.025 1.0842e-19 0 118.542
-1.024e-14 1.0842e-19 0.025 5.05649
0.025 0 0.00233887 88.6328
-0.025 1.0842e-19 0.00233887 81.1333
0.0025 1.0842e-19 0.025 5.06263
-0.0025 1.0842e-19 0.025 5.05052
0.02375 -1.807e-20 0.008656 13.9823
-0.02375 3.61401e-20 0.008656 13.4651
0.02125 0 0.0137433 8.20598
-0.02125 0 0.0137433 8.13048
0.01375 3.61401e-20 0.02125 5.78943
-0.00875 0 0.02375 5.25618
-0.01375 3.61401e-20 0.02125 5.73203
0.00875 0 0.02375 5.2975
0.025 0 0.00479858 34.8697
-0.025 1.0842e-19 0.00479858 32.1017
0.005 1.0842e-19 0.025 5.06895
-0.005 1.0842e-19 0.025 5.04471
0.0225 1.0842e-19 0.0124878 9.07343
-0.0225 1.0842e-19 0.0124878 8.95543
0.0125 1.0842e-19 0.0225 5.54277
-0.0125 1.0842e-19 0.0225 5.48689
0.025877 0 0 129.652
-0.025877 1.0842e-19 0 118.371
0.025 1.0842e-19 0.00736572 18.0333
-0.025 1.0842e-19 0.00736572 17.0457
0.0075 1.0842e-19 0.025 5.07544
-0.0075 1.0842e-19 0.025 5.03907
-0.02375 0 0.011217 9.93053
0.02375 0 0.011217 10.1146
0.02625 -9.03502e-21 0.00116943 124.404
-0.02625 0 0.00116944 113.424
0.00125 0 0.02625 4.8468
-0.01125 -1.807e-20 0.02375 5.25096
0.01125 3.61401e-20 0.02375 5.30414
-0.00125 0 0.02625 4.84066
0.02625 9.03502e-21 0.00356872 51.0987
-0.02625 9.03502e-21 0.00356873 46.5519
0.00375 3.61401e-20 0.02625 4.8531
-0.00375 0 0.02625 4.83468
0.01875 3.61401e-20 0.01875 6.36571
-0.01875 0 0.01875 6.30076
0.02 1.0842e-19 0.0175 6.71998
0.0175 1.0842e-19 0.02 6.07287
-0.0175 1.0842e-19 0.02 6.00592
-0.02 1.0842e-19 0.0175 6.65675
-0.026623 1.0842e-19 0 118.226
0.026623 1.0842e-19 0 129.833
0.02125 -1.807e-20 0.0162494 7.10762
-0.02125 0 0.0162494 7.04521
-0.01625 0 0.02125 5.72796
0.01625 3.61401e-20 0.02125 5.79594
0.025 1.0842e-19 0.00994629 11.8314
-0.025 1.0842e-19 0.00994629 11.4906
0.01 1.0842e-19 0.025 5.08212
-0.01 1.0842e-19 0.025 5.03358
0.02625 1.807e-20 0.00608215 23.4974
-0.02625 9.03502e-21 0.00608215 21.8391
0.00625 0 0.02625 4.85958
-0.00625 0 0.02625 4.82886
0.0225 1.0842e-19 0.0149988 7.62401
-0.0225 1.0842e-19 0.0149988 7.55397
0.015 1.0842e-19 0.0225 5.54945
-0.015 1.0842e-19 0.0225 5.48229
-0.02375 -1.807e-20 0.0137433 8.12862
0.02375 3.61401e-20 0.0137433 8.21345
0.01375 3.61401e-20 0.02375 5.31098
-0.01375 3.61401e-20 0.02375 5.24589
0.0275 1.0842e-19 0 130.047
-0.0275 1.0842e-19 0 118.055
-1.02399e-14 1.0842e-19 0.0275 4.65077
-0.0275 1.0842e-19 0.00233887 80.7987
0.0275 0 0.00233887 89.0501
0.0025 1.0842e-19 0.0275 4.65683
-0.0025 1.0842e-19 0.0275 4.64488
0.02625 1.807e-20 0.008656 14.017
-0.02625 3.61401e-20 0.008656 13.4436
0.00875 -1.807e-20 0.02625 4.86623
-0.00875 0 0.02625 4.8232
0.0275 0 0.00479858 35.0284
-0.0275 1.0842e-19 0.00479858 31.9804
0.025 1.0842e-19 0.0124878 9.08348
-0.025 1.0842e-19 0.0124878 8.95188
0.005 1.0842e-19 0.0275 4.66304
-0.005 1.0842e-19 0.0275 4.63914
0.0125 1.0842e-19 0.025 5.08898
-0.0125 1.0842e-19 0.025 5.02825
0.02 1.0842e-19 0.02 6.07943
-0.02 1.0842e-19 0.02 6.00268
-0.02125 -1.807e-20 0.01875 6.29821
0.02125 -1.807e-20 0.01875 6.3721
-0.01875 3.61401e-20 0.02125 5.72406
0.01875 1.807e-20 0.02125 5.80269
0.028377 0 0 130.262
-0.028377 1.0842e-19 0 117.886
0.0275 1.0842e-19 0.00736572 18.0956
-0.0275 1.0842e-19 0.00736572 17.0053
0.0075 1.0842e-19 0.0275 4.66941
-0.0075 1.0842e-19 0.0275 4.63355
0.0225 1.0842e-19 0.0175 6.7263
0.0175 1.0842e-19 0.0225 5.55636
-0.0175 1.0842e-19 0.0225 5.47785
-0.0225 1.0842e-19 0.0175 6.65482
0.02625 0 0.011217 10.1284
-0.02625 0 0.011217 9.9244
-0.01125 3.61401e-20 0.02625 4.81768
0.01125 3.61401e-20 0.02625 4.87306
0.02875 0 0.00116943 124.989
-0.02875 9.03502e-21 0.00116944 112.96
-0.02375 0 0.0162494 7.04382
0.02375 3.61401e-20 0.0162494 7.11398
0.01625 1.807e-20 0.02375 5.31803
-0.01625 3.61401e-20 0.02375 5.24097
0.00125 5.42101e-20 0.0287506 4.46647
-0.00125 -5.42101e-20 0.0287506 4.46071
0.02875 -1.807e-20 0.00356872 51.341
-0.02875 1.807e-20 0.00356873 46.3602
0.00375 -1.807e-20 0.0287506 4.47238
-0.00375 0 0.0287506 4.45511
-0.029123 5.42101e-20 0 117.743
0.029123 0 0 130.444
0.025 1.0842e-19 0.0149988 7.63092
-0.025 1.0842e-19 0.0149988 7.55264
0.015 1.0842e-19 0.025 5.09604
-0.015 1.0842e-19 0.025 5.02307
0.0275 1.0842e-19 0.00994629 11.8544
-0.0275 1.0842e-19 0.00994629 11.4783
0.01 1.0842e-19 0.0275 4.67596
-0.01 1.0842e-19 0.0275 4.6281
0.02875 0 0.00608215 23.5952
-0.02875 -5.42101e-20 0.00608215 21.7732
0.00625 3.61401e-20 0.0287506 4.47844
-0.00625 3.61401e-20 0.0287506 4.44964
0.02625 3.61401e-20 0.0137433 8.22129
-0.02625 3.61401e-20 0.0137433 8.12702
0.01375 3.61401e-20 0.02625 4.88006
-0.01375 0 0.02625 4.81232
0.03 1.0842e-19 0 130.659
-0.03 1.0842e-19 0 117.574
8.39715e-13 1.0842e-19 0.0300012 4.28975
0.02875 1.807e-20 0.008656 14.0528
-0.02875 0 0.008656 13.4227
0.02125 1.807e-20 0.02125 5.80968
-0.02125 1.807e-20 0.02125 5.72033
-0.00875 3.61401e-20 0.0287506 4.44433
0.00875 0 0.0287506 4.48466
0.03 -1.0842e-19 0.00233887 89.4715
-0.03 1.0842e-19 0.00233887 80.4675
0.0225 1.0842e-19 0.02 6.08626
0.02 1.0842e-19 0.0225 5.5635
-0.02 1.0842e-19 0.0225 5.47357
-0.0225 1.0842e-19 0.02 5.99962
0.0025 1.0842e-19 0.0300012 4.29535
-0.0025 1.0842e-19 0.0300012 4.28429
0.0275 1.0842e-19 0.0124878 9.09395
-0.0275 1.0842e-19 0.0124878 8.9486
0.0125 1.0842e-19 0.0275 4.68268
-0.0125 1.0842e-19 0.0275 4.62281
0.01875 0 0.02375 5.32529
-0.01875 0 0.02375 5.23621
-0.02375 0 0.01875 6.29584
0.02375 3.61401e-20 0.01875 6.37878
0.03 -1.0842e-19 0.00479858 35.1896
-0.03 1.0842e-19 0.00479858 31.8605
0.005 1.0842e-19 0.0300012 4.3011
-0.005 1.0842e-19 0.0300012 4.27897
0.0175 1.0842e-19 0.025 5.10331
0.025 1.0842e-19 0.0175 6.73294
-0.0175 1.0842e-19 0.025 5.01804
-0.025 1.0842e-19 0.0175 6.65309
-0.02875 -1.807e-20 0.011217 9.91858
0.02875 0 0.011217 10.1428
0.02625 3.61401e-20 0.0162494 7.12069
-0.02625 0 0.0162494 7.04265
0.01625 0 0.02625 4.88726
-0.01625 3.61401e-20 0.02625 4.8071
0.01125 0 0.0287506 4.49104
-0.01125 0 0.0287506 4.43915
0.030877 0 0 130.876
-0.030877 1.0842e-19 0 117.406
0.03 1.0842e-19 0.00736572 18.1597
-0.03 1.0842e-19 0.00736572 16.9657
0.0075 1.0842e-19 0.0300012 4.307
-0.0075 1.0842e-19 0.0300012 4.27379
0.03125 -9.03502e-21 0.00116943 125.58
-0.03125 -1.807e-20 0.00116944 112.5
0.00125 1.807e-20 0.0312567 4.12061
-0.00125 -1.807e-20 0.0312567 4.11529
0.0275 1.0842e-19 0.0149988 7.63821
-0.0275 1.0842e-19 0.0149988 7.55153
0.015 1.0842e-19 0.0275 4.68957
-0.015 1.0842e-19 0.0275 4.61765
0.03125 1.807e-20 0.00356872 51.586
-0.03125 0 0.00356873 46.1705
0.00375 0 0.0312567 4.12606
-0.00375 -1.807e-20 0.0312567 4.11011
0.03 1.0842e-19 0.00994629 11.878
-0.03 1.0842e-19 0.00994629 11.4663
-0.031623 1.0842e-19 0 117.264
0.031623 -1.0842e-19 0 131.061
0.01 1.0842e-19 0.0300012 4.31305
-0.01 1.0842e-19 0.0300012 4.26874
0.0225 1.0842e-19 0.0225 5.57088
-0.0225 1.0842e-19 0.0225 5.46944
0.03125 0 0.00608215 23.6959
-0.03125 -1.807e-20 0.00608215 21.7083
0.02875 0 0.0137433 8.22955
-0.02875 1.807e-20 0.0137433 8.12567
0.02375 -1.807e-20 0.02125 5.81695
0.02125 -1.807e-20 0.02375 5.33276
-0.02125 0 0.02375 5.23159
-0.02375 0 0.02125 5.71676
0.01375 0 0.0287506 4.49759
-0.01375 0 0.0287506 4.43411
0.00625 -1.807e-20 0.0312567 4.13166
-0.00625 3.61401e-20 0.0312567 4.10506
0.02 1.0842e-19 0.025 5.11077
0.025 1.0842e-19 0.02 6.09337
-0.02 1.0842e-19 0.025 5.01315
-0.025 1.0842e-19 0.02 5.99674
0.02625 3.61401e-20 0.01875 6.38576
-0.01875 3.61401e-20 0.02625 4.80203
-0.02625 1.807e-20 0.01875 6.29367
0.01875 0 0.02625 4.89465
0.03125 1.807e-20 0.008656 14.0898
-0.03125 0 0.008656 13.4023
0.00875 0 0.0312567 4.13739
-0.00875 -1.807e-20 0.0312567 4.10013
0.03 1.0842e-19 0.0124878 9.10486
-0.03 1.0842e-19 0.0124878 8.94561
-0.0325 1.0842e-19 0 117.098
0.0325 0 0 131.279
0.0125 1.0842e-19 0.0300012 4.31925
-0.0125 1.0842e-19 0.0300012 4.26383
8.42745e-12 1.0842e-19 0.0325122 3.94601
-0.0325 1.0842e-19 0.00233887 80.14
0.0325 0 0.00233887 89.8973
0.0175 1.0842e-19 0.0275 4.69664
0.0275 1.0842e-19 0.0175 6.7399
-0.0175 1.0842e-19 0.0275 4.61264
-0.0275 1.0842e-19 0.0175 6.65157
0.0025 1.0842e-19 0.0325122 3.95126
-0.0025 1.0842e-19 0.0325122 3.94088
0.0325 -1.0842e-19 0.00479858 35.3534
-0.0325 1.0842e-19 0.00479858 31.7421
0.005 1.0842e-19 0.0325122 3.95663
-0.005 1.0842e-19 0.0325122 3.93586
0.02875 0 0.0162494 7.12777
-0.02875 0 0.0162494 7.04169
0.01625 -1.807e-20 0.0287506 4.50431
-0.01625 3.61401e-20 0.0287506 4.4292
0.03125 0 0.011217 10.1577
-0.03125 1.807e-20 0.011217 9.91309
0.01125 0 0.0312567 4.14327
-0.01125 3.61401e-20 0.0312567 4.09533
0.0325 1.0842e-19 0.00736572 18.226
-0.0325 1.0842e-19 0.00736572 16.9267
0.0075 1.0842e-19 0.0325122 3.96213
-0.0075 1.0842e-19 0.0325122 3.93096
0.033377 -1.0842e-19 0 131.499
-0.033377 5.42101e-20 0 116.932
0.03 1.0842e-19 0.0149988 7.64587
-0.03 1.0842e-19 0.0149988 7.55066
0.015 1.0842e-19 0.0300012 4.32562
-0.015 1.0842e-19 0.0300012 4.25905
-0.02375 -1.807e-20 0.02375 5.22712
0.02375 -1.807e-20 0.02375 5.34046
0.0225 1.0842e-19 0.025 5.11844
0.025 1.0842e-19 0.0225 5.5785
-0.0225 1.0842e-19 0.025 5.00841
-0.025 1.0842e-19 0.0225 5.46547
0.03375 0 0.00116943 126.178
-0.03375 9.03502e-21 0.00116944 112.046
0.02125 3.61401e-20 0.02625 4.90224
0.02625 3.61401e-20 0.02125 5.82446
-0.02125 3.61401e-20 0.02625 4.79709
-0.02625 3.61401e-20 0.02125 5.71336
0.00125 -5.42101e-20 0.0337829 3.77318
-0.00125 1.807e-20 0.033783 3.76802
0.03375 -9.03502e-21 0.00356872 51.833
-0.03375 0 0.00356872 45.9829
0.0325 1.0842e-19 0.00994629 11.9025
-0.0325 1.0842e-19 0.00994629 11.4548
-0.00375 -1.807e-20 0.0337829 3.76298
0.00375 3.61401e-20 0.0337829 3.77843
0.02 1.0842e-19 0.0275 4.7039
0.0275 1.0842e-19 0.02 6.10076
-0.02 1.0842e-19 0.0275 4.60776
-0.0275 1.0842e-19 0.02 5.99403
0.01 1.0842e-19 0.0325122 3.96776
-0.01 1.0842e-19 0.0325122 3.92617
-0.034123 0 0 116.792
0.034123 -5.42101e-20 0 131.685
-0.03125 3.61401e-20 0.0137433 8.12457
0.03125 3.61401e-20 0.0137433 8.2382
0.01375 3.61401e-20 0.0312567 4.1493
-0.01375 0 0.0312567 4.09067
0.03375 1.807e-20 0.00608215 23.7997
-0.03375 1.807e-20 0.00608215 21.6443
-0.02875 0 0.01875 6.29168
0.02875 1.807e-20 0.01875 6.39306
-0.01875 0 0.0287506 4.42442
0.01875 3.61401e-20 0.0287506 4.5112
-0.00625 -1.807e-20 0.0337829 3.75801
0.00625 3.61401e-20 0.0337829 3.78379
0.03 1.0842e-19 0.0175 6.74721
-0.03 1.0842e-19 0.0175 6.65024
0.0175 1.0842e-19 0.0300012 4.33215
-0.0175 1.0842e-19 0.0300012 4.25439
0.0325 1.0842e-19 0.0124878 9.11622
-0.0325 1.0842e-19 0.0124878 8.94288
0.0125 1.0842e-19 0.0325122 3.97352
-0.0125 1.0842e-19 0.0325122 3.92149
0.03375 3.61401e-20 0.008656 14.1279
-0.03375 1.807e-20 0.008656 13.3824
0.00875 0 0.0337829 3.78926
-0.00875 0 0.0337829 3.75315
-0.035 0 0 116.627
0.035 -1.0842e-19 0 131.905
3.85541e-11 1.0842e-19 0.0350537 3.5802
-0.035 -1.0842e-19 0.00233887 79.8162
0.035 0 0.00233887 90.3273
0.0025 1.0842e-19 0.0350537 3.58576
-0.0025 1.0842e-19 0.0350537 3.5747
0.03125 0 0.0162494 7.13519
-0.03125 0 0.0162494 7.04094
0.01625 3.61401e-20 0.0312567 4.15547
-0.01625 3.61401e-20 0.0312567 4.08612
0.035 -1.0842e-19 0.00479858 35.5199
-0.035 1.0842e-19 0.00479858 31.6252
0.025 1.0842e-19 0.025 5.12633
-0.025 1.0842e-19 0.025 5.0038
0.02625 0 0.02375 5.34839
-0.02375 0 0.02625 4.79231
-0.02625 0 0.02375 5.22278
0.02375 0 0.02625 4.91003
0.005 1.0842e-19 0.0350537 3.5914
-0.005 1.0842e-19 0.0350537 3.56926
0.0225 1.0842e-19 0.0275 4.71135
0.0275 1.0842e-19 0.0225 5.58637
-0.0225 1.0842e-19 0.0275 4.60302
-0.0275 1.0842e-19 0.0225 5.46164
0.03375 -1.807e-20 0.011217 10.1731
-0.03375 -1.807e-20 0.011217 9.90789
0.01125 0 0.0337829 3.79484
-0.01125 0 0.0337829 3.74838
0.02875 0 0.02125 5.83225
-0.02875 1.807e-20 0.02125 5.71011
0.02125 0 0.0287506 4.51827
-0.02125 0 0.0287506 4.41978
0.035 1.0842e-19 0.00736572 18.2945
-0.035 1.0842e-19 0.00736572 16.8885
0.0325 1.0842e-19 0.0149988 7.65393
-0.0325 1.0842e-19 0.0149988 7.55002
0.015 1.0842e-19 0.0325122 3.97941
-0.015 1.0842e-19 0.0325122 3.91692
0.0075 1.0842e-19 0.0350537 3.59711
-0.0075 1.0842e-19 0.0350537 3.56389
-0.035877 1.6263e-19 0 116.463
0.035877 -5.42101e-20 0 132.126
0.03 1.0842e-19 0.02 6.10845
-0.03 1.0842e-19 0.02 5.99149
0.02 1.0842e-19 0.0300012 4.33884
-0.02 1.0842e-19 0.0300012 4.24987
0.03625 -9.03502e-21 0.00116944 126.78
-0.03625 0 0.00116944 111.597
-0.00125 -1.807e-20 0.036344 3.37503
0.00125 3.61401e-20 0.036344 3.38115
0.035 1.0842e-19 0.00994629 11.9278
-0.035 1.0842e-19 0.00994629 11.4437
0.03625 -3.61401e-20 0.00356873 52.083
-0.03625 0 0.00356872 45.7975
0.03375 0 0.0137433 8.2473
-0.03375 0 0.0137433 8.1237
0.03125 0 0.01875 6.40067
-0.03125 0 0.01875 6.28987
0.01875 3.61401e-20 0.0312567 4.16181
-0.01875 3.61401e-20 0.0312567 4.08169
0.01 1.0842e-19 0.0350537 3.6029
-0.01 1.0842e-19 0.0350537 3.55858
0.01375 0 0.0337829 3.80054
-0.01375 -1.807e-20 0.0337829 3.74369
-0.00375 0 0.036344 3.36894
0.00375 1.807e-20 0.036344 3.3873
0.036623 1.0842e-19 0 132.314
-0.036623 5.42101e-20 0 116.324
0.03625 1.807e-20 0.00608215 23.9067
-0.03625 -3.61401e-20 0.00608215 21.5814
-0.00625 -1.807e-20 0.036344 3.36288
0.00625 0 0.036344 3.39349
0.0325 1.0842e-19 0.0175 6.75486
-0.0325 1.0842e-19 0.0175 6.64911
0.0175 1.0842e-19 0.0325122 3.98544
-0.0175 1.0842e-19 0.0325122 3.91246
0.02625 3.61401e-20 0.02625 4.91803
-0.02625 3.61401e-20 0.02625 4.78766
0.035 1.0842e-19 0.0124878 9.12804
-0.035 1.0842e-19 0.0124878 8.94043
0.025 1.0842e-19 0.0275 4.719
0.0275 1.0842e-19 0.025 5.13444
-0.025 1.0842e-19 0.0275 4.59841
-0.0275 1.0842e-19 0.025 4.99934
0.0125 1.0842e-19 0.0350537 3.60877
-0.0125 1.0842e-19 0.0350537 3.55331
0.03625 3.61401e-20 0.008656 14.1674
-0.03625 1.807e-20 0.008656 13.3629
-0.02875 0 0.02375 5.21858
0.02875 0 0.02375 5.35655
-0.02375 3.61401e-20 0.0287506 4.41527
0.02375 3.61401e-20 0.0287506 4.52551
-0.00875 0 0.036344 3.35684
0.00875 -1.807e-20 0.036344 3.39973
0.03375 0 0.0162494 7.14301
-0.03375 -1.807e-20 0.0162494 7.04041
0.01625 0 0.0337829 3.80635
-0.01625 3.61401e-20 0.0337829 3.73909
-0.0375 1.0842e-19 0 116.161
0.0375 0 0 132.537
0.03 1.0842e-19 0.0225 5.59449
-0.03 1.0842e-19 0.0225 5.45795
0.0225 1.0842e-19 0.0300012 4.3457
-0.0225 1.0842e-19 0.0300012 4.24547
-0.0375 0 0.00233887 79.4958
0.0375 -1.0842e-19 0.00233887 90.7615
8.7068e-11 1.0842e-19 0.0376343 3.1311
0.0025 1.0842e-19 0.0376343 3.13857
-0.0025 1.0842e-19 0.0376343 3.12364
-0.03125 -1.807e-20 0.02125 5.70701
0.03125 0 0.02125 5.84032
0.02125 3.61401e-20 0.0312567 4.1683
-0.02125 3.61401e-20 0.0312567 4.07738
0.0375 -1.0842e-19 0.00479858 35.6893
-0.0375 -1.0842e-19 0.00479858 31.5098
0.03625 0 0.011217 10.189
-0.03625 0 0.011217 9.903
0.005 1.0842e-19 0.0376343 3.14605
-0.005 1.0842e-19 0.0376343 3.11619
-0.01125 -1.807e-20 0.036344 3.35083
0.01125 -1.807e-20 0.036344 3.40601
0.035 1.0842e-19 0.0149988 7.66238
-0.035 1.0842e-19 0.0149988 7.54961
0.015 1.0842e-19 0.0350537 3.61473
-0.015 1.0842e-19 0.0350537 3.5481
0.0325 1.0842e-19 0.02 6.11645
-0.0325 1.0842e-19 0.02 5.98912
0.02 1.0842e-19 0.0325122 3.99161
-0.02 1.0842e-19 0.0325122 3.9081
0.0375 1.0842e-19 0.00736572 18.3655
-0.0375 1.0842e-19 0.00736572 16.851
0.0075 1.0842e-19 0.0376343 3.15354
-0.0075 1.0842e-19 0.0376343 3.10874
-0.038377 -1.0842e-19 0 115.999
0.038377 5.42101e-20 0 132.761
0.03375 0 0.01875 6.40862
-0.03375 -1.807e-20 0.01875 6.28824
0.01875 0 0.0337829 3.81228
-0.01875 3.61401e-20 0.0337829 3.73458
0.03875 2.71051e-20 0.00116944 127.39
-0.03875 2.71051e-20 0.00116944 111.152
0.03625 -1.807e-20 0.0137433 8.2568
-0.03625 3.61401e-20 0.0137433 8.12312
0.0375 1.0842e-19 0.00994629 11.9539
-0.0375 1.0842e-19 0.00994629 11.4329
0.01375 -1.807e-20 0.036344 3.41234
-0.01375 0 0.036344 3.34484
0.0275 1.0842e-19 0.0275 4.72684
-0.0275 1.0842e-19 0.0275 4.59394
0.03875 1.807e-20 0.00356873 52.3353
-0.03875 -9.03502e-21 0.00356872 45.6142
0.02875 -1.807e-20 0.02625 4.92624
-0.02875 0 0.02625 4.78314
0.02625 3.61401e-20 0.0287506 4.53296
-0.02625 3.61401e-20 0.0287506 4.41089
0.00125 0 0.0389178 2.87024
-0.00125 2.71051e-20 0.0389178 2.86138
0.01 1.0842e-19 0.0376343 3.16105
-0.01 1.0842e-19 0.0376343 3.1013
0.03 1.0842e-19 0.025 5.14278
-0.03 1.0842e-19 0.025 4.995
0.025 1.0842e-19 0.0300012 4.35274
-0.025 1.0842e-19 0.0300012 4.2412
0.00375 -9.03502e-21 0.0389178 2.87909
-0.00375 -1.807e-20 0.0389178 2.85252
0.039123 0 0 132.951
-0.039123 5.42101e-20 0 115.861
0.035 1.0842e-19 0.0175 6.76286
-0.035 1.0842e-19 0.0175 6.64818
0.0175 1.0842e-19 0.0350537 3.62078
-0.0175 1.0842e-19 0.0350537 3.54294
0.03875 1.807e-20 0.00608215 24.017
-0.03875 0 0.00608215 21.5194
0.03125 -1.807e-20 0.02375 5.36496
-0.03125 0 0.02375 5.21452
0.02375 3.61401e-20 0.0312567 4.17495
-0.02375 -1.807e-20 0.0312567 4.0732
-0.00625 -2.71051e-20 0.0389178 2.84365
0.00625 1.807e-20 0.0389178 2.88793
0.0375 1.0842e-19 0.0124878 9.14032
-0.0375 1.0842e-19 0.0124878 8.93825
0.0325 1.0842e-19 0.0225 5.60289
-0.0325 1.0842e-19 0.0225 5.45441
0.0225 1.0842e-19 0.0325122 3.99793
-0.0225 1.0842e-19 0.0325122 3.90384
0.0125 1.0842e-19 0.0376343 3.16858
-0.0125 1.0842e-19 0.0376343 3.09385
0.03875 1.807e-20 0.008656 14.2082
-0.03875 1.807e-20 0.008656 13.344
-0.03625 0 0.0162494 7.04011
0.03625 3.61401e-20 0.0162494 7.15118
0.01625 3.61401e-20 0.036344 3.41873
-0.01625 0 0.036344 3.33886
0.03375 -1.807e-20 0.02125 5.84868
-0.03375 0 0.02125 5.70407
-0.00875 -1.807e-20 0.0389178 2.83477
0.00875 0 0.0389178 2.89678
-0.02125 -1.807e-20 0.0337829 3.73014
0.02125 3.61401e-20 0.0337829 3.81833
-0.04 -1.0842e-19 0 115.7
0.04 0 0 133.175
-0.04 0 0.00233887 79.179
0.04 -1.0842e-19 0.00233887 91.2001
-6.2372e-11 1.0842e-19 0.0402014 2.53945
0.0025 1.0842e-19 0.0402014 2.54927
-0.0025 1.0842e-19 0.0402014 2.52964