# p  POINT_DATA 26382
# x  y  z  p
0 -0.000876979 6.01824e-09 0.0266625
0 0.000373006 0.00116944 0.0266887
8.27181e-25 0.001623 4.67384e-09 0.0267153
1.03398e-25 -0.000876994 0.00215245 0.0266645
0 -0.00212699 0.00116944 0.0266364
2.06795e-25 0.001623 0.00182382 0.026717
-1.03398e-25 -0.000876994 0.00233887 0.0266646
2.06795e-25 0.001623 0.00233887 0.0267174
-1.0842e-19 0.00287301 0.00116943 0.026742
0 -0.00236739 0.00233887 0.0266337
0 -0.00337698 7.72602e-09 0.0266107
-1.0842e-19 0.000373002 0.00356873 0.0266929
0 -0.003377 0.00233887 0.0266128
0 0.00412303 4.87104e-09 0.0267691
1.0842e-19 -0.002127 0.00356872 0.0266406
0 0.00412301 0.00187853 0.0267708
1.0842e-19 0.002873 0.00356872 0.0267463
0 -0.003377 0.00327131 0.0266135
0 0.00412301 0.00233887 0.0267713
1.0842e-19 -0.004627 0.00116943 0.026585
-1.03398e-25 -0.000876999 0.00479858 0.0266665
0 0.001623 0.00479858 0.0267193
0 0.00537301 0.00116944 0.0267963
-1.0842e-19 -0.004627 0.00356872 0.0265892
-1.03398e-25 -0.003377 0.00479858 0.0266146
0 -0.005877 8.41764e-09 0.0265598
0 0.000373001 0.00608215 0.0266924
1.23491e-20 -0.005877 0.00233887 0.0265618
2.06795e-25 0.004123 0.00479858 0.0267731
-2.1684e-19 -0.002127 0.00608215 0.02664
2.1684e-19 0.005373 0.00356873 0.0268006
-8.27181e-25 0.00662302 5.69423e-09 0.0268239
-1.0842e-19 0.002873 0.00608215 0.0267457
-5.16988e-25 0.006623 0.00206606 0.0268258
0 -0.005877 0.00373585 0.0265629
0 0.006623 0.00233887 0.026826
2.1684e-19 -0.00712701 0.00116943 0.0265345
0 -0.000876999 0.00736572 0.0266666
-1.03398e-25 0.001623 0.00736572 0.0267194
0 -0.005877 0.00479858 0.0265637
1.0842e-19 -0.004627 0.00608215 0.0265887
0 0.007873 0.00116944 0.0268516
1.0842e-19 -0.007127 0.00356872 0.0265387
5.16988e-26 -0.003377 0.00736572 0.0266147
1.0842e-19 0.005373 0.00608215 0.0268
2.06795e-25 0.006623 0.00479858 0.0268279
0 -0.008377 8.14506e-09 0.0265098
0 0.004123 0.00736572 0.0267732
0 0.007873 0.00356873 0.0268559
0 0.000373 0.00865601 0.0266932
-2.57643e-20 -0.008377 0.00233887 0.0265118
-1.0842e-19 -0.002127 0.008656 0.0266408
7.75482e-26 -0.008377 0.00347115 0.0265127
2.1684e-19 0.002873 0.008656 0.0267465
0 0.009123 5.76164e-09 0.0268797
1.03398e-25 0.009123 0.00210367 0.0268816
0 -0.007127 0.00608215 0.0265382
0 0.009123 0.00233887 0.0268818
5.16988e-26 -0.005877 0.00736572 0.0265638
1.03398e-25 -0.008377 0.00479858 0.0265137
1.0842e-19 -0.009627 0.00116944 0.026485
0 -0.004627 0.00865601 0.0265894
1.03398e-25 0.006623 0.00736572 0.026828
1.0842e-19 0.007873 0.00608215 0.0268553
2.58494e-26 -0.000877 0.00994629 0.0266664
0 0.001623 0.00994629 0.0267192
-3.25261e-19 0.005373 0.008656 0.0268008
1.0842e-19 -0.009627 0.00356873 0.0264891
0 0.009123 0.00479858 0.0268837
-1.0842e-19 0.010373 0.00116944 0.0269079
0 -0.003377 0.00994629 0.0266145
-2.58494e-26 0.004123 0.00994629 0.026773
0 -0.010877 7.63523e-09 0.0264608
0 0.010373 0.00356873 0.0269122
-8.8696e-21 -0.010877 0.00233887 0.0264628
0 -0.008377 0.00736572 0.0265138
1.0842e-19 -0.007127 0.008656 0.026539
0 0.000373 0.011217 0.026692
0 -0.010877 0.00320213 0.0264634
0 -0.009627 0.00608215 0.0264887
-2.1684e-19 -0.002127 0.011217 0.0266397
0 -0.005877 0.00994629 0.0265636
1.0842e-19 0.002873 0.011217 0.0267453
0 0.011623 5.15475e-09 0.0269365
-2.1684e-19 0.007873 0.008656 0.0268561
0 0.009123 0.00736572 0.0268839
-2.06795e-25 0.011623 0.00189818 0.0269383
-2.06795e-25 0.011623 0.00233887 0.0269387
0 -0.010877 0.00479858 0.0264646
2.58494e-26 0.006623 0.00994629 0.0268278
-1.0842e-19 0.010373 0.00608215 0.0269116
-1.0842e-19 -0.004627 0.011217 0.0265883
-1.0842e-19 -0.012127 0.00116943 0.0264365
0 0.005373 0.011217 0.0267996
0 -0.000877 0.0124878 0.0266654
0 0.011623 0.00479858 0.0269406
0 0.001623 0.0124878 0.0267182
-1.0842e-19 -0.012127 0.00356873 0.0264406
-2.1684e-19 0.012873 0.00116944 0.0269652
3.23117e-27 -0.003377 0.0124878 0.0266135
-1.0842e-19 -0.009627 0.008656 0.0264894
0 -0.008377 0.00994629 0.0265136
0 -0.010877 0.00736572 0.0264647
0 0.004123 0.0124878 0.026772
0 -0.007127 0.011217 0.0265378
1.0842e-19 0.012873 0.00356872 0.0269696
0 -0.013377 7.2543e-09 0.0264126
-2.58494e-26 0.009123 0.00994629 0.0268837
-1.0842e-19 0.010373 0.00865601 0.0269125
2.1684e-19 -0.012127 0.00608215 0.0264401
1.21394e-19 -0.013377 0.00233887 0.0264147
0 0.007873 0.011217 0.0268549
-1.0842e-19 0.000373 0.0137433 0.0266912
0 0.011623 0.00736572 0.0269407
-2.58494e-26 -0.013377 0.0033489 0.0264154
0 -0.005877 0.0124878 0.0265626
1.0842e-19 -0.002127 0.0137433 0.0266389
-1.0842e-19 0.002873 0.0137433 0.0267445
0 0.014123 3.99365e-09 0.0269943
0 0.006623 0.0124878 0.0268268
4.1359e-25 0.014123 0.0013649 0.0269956
0 -0.013377 0.00479858 0.0264165
-1.0842e-19 0.012873 0.00608215 0.026969
4.1359e-25 0.014123 0.00233887 0.0269965
1.0842e-19 -0.004627 0.0137433 0.0265875
1.0842e-19 -0.014627 0.00116943 0.0263888
0 -0.010877 0.00994629 0.0264645
0 0.005373 0.0137433 0.0267988
0 0.0147711 0 0.0270096
1.0842e-19 -0.009627 0.011217 0.0264883
0 -0.012127 0.008656 0.0264408
-2.06795e-25 0.014123 0.00479858 0.0269984
0 -0.000877 0.0149988 0.0266643
0 -0.008377 0.0124878 0.0265126
0 -0.014627 0.00356872 0.0263929
0 0.001623 0.0149988 0.0267171
5.16988e-26 -0.013377 0.00736572 0.0264166
0 0.010373 0.011217 0.0269112
2.58494e-26 0.011623 0.00994629 0.0269405
0 -0.003377 0.0149988 0.0266124
0 0.015373 0.00116944 0.0270235
-6.46235e-27 0.009123 0.0124878 0.0268826
1.0842e-19 -0.007127 0.0137433 0.026537
1.0842e-19 0.012873 0.00865601 0.0269698
-4.03897e-28 0.004123 0.0149988 0.0267709
-1.0842e-19 0.015373 0.00356872 0.027028
1.0842e-19 0.007873 0.0137433 0.0268541
0 -0.014627 0.00608215 0.0263924
8.27181e-25 -0.015877 6.82727e-09 0.0263654
-1.03398e-25 0.014123 0.00736572 0.0269986
-2.85264e-20 -0.015877 0.00233887 0.0263674
-2.01948e-28 -0.005877 0.0149988 0.0265615
2.58494e-26 -0.015877 0.00298249 0.0263679
1.0842e-19 0.000373 0.0162494 0.0266898
-1.0842e-19 -0.002127 0.0162494 0.0266375
0 0.006623 0.0149988 0.0268257
-1.0842e-19 0.002873 0.0162494 0.0267431
1.0842e-19 -0.012127 0.011217 0.0264397
-1.0842e-19 0.015373 0.00608215 0.0270273
0 -0.010877 0.0124878 0.0264636
-1.03398e-25 -0.015877 0.00479858 0.0263692
3.30872e-24 0.016623 1.14127e-08 0.0270532
0 -0.013377 0.00994629 0.0264164
0 -0.009627 0.0137433 0.0264875
0 0.016623 0.00233887 0.0270554
2.1684e-19 -0.004627 0.0162494 0.0265861
-1.0842e-19 -0.014627 0.00865601 0.0263932
0 0.011623 0.0124878 0.0269395
0 0.012873 0.011217 0.0269686
1.0842e-19 0.005373 0.0162494 0.0267973
0 -0.017127 0.00116943 0.026342
2.01948e-28 -0.008377 0.0149988 0.0265116
1.0842e-19 0.010373 0.0137433 0.0269104
-2.58494e-26 0.014123 0.00994629 0.0269984
0 0.016623 0.00479858 0.0270573
-1.0842e-19 -0.017127 0.00356872 0.0263461
0 -0.015877 0.00736572 0.0263693
-2.47702e-28 -0.000877 0.0174912 0.0266628
0 -0.000877 0.0175 0.0266628
4.03897e-28 0.009123 0.0149988 0.0268815
-2.11415e-28 0.001623 0.0174922 0.0267156
0 0.001623 0.0175 0.0267156
0 0.015373 0.008656 0.0270282
0 -0.007127 0.0162494 0.0265357
-4.10208e-29 -0.003377 0.0174891 0.026611
-1.91544e-20 -0.003377 0.0175 0.026611
-1.0842e-19 0.017873 0.00116944 0.0270829
0 0.004123 0.0174928 0.0267693
-1.57772e-30 0.004123 0.0175 0.0267693
-1.0842e-19 0.007873 0.0162494 0.0268526
0 -0.017127 0.00608215 0.0263456
1.03398e-25 0.016623 0.00736572 0.0270574
1.0842e-19 0.017873 0.00356872 0.0270873
0 -0.013377 0.0124878 0.0264154
0 -0.012127 0.0137433 0.0264389
8.27181e-25 -0.018377 6.59756e-09 0.0263191
-1.0842e-19 -0.014627 0.011217 0.026392
1.00974e-28 -0.005877 0.0174846 0.0265601
-1.57772e-30 -0.005877 0.0175 0.0265601
5.65533e-20 -0.018377 0.00233887 0.0263211
-2.01948e-28 -0.010877 0.0149988 0.0264625
-2.58494e-26 -0.018377 0.00268468 0.0263213
0 0.006623 0.0174931 0.026824
0 0.006623 0.0175 0.026824
0 -0.015877 0.00994629 0.0263691
1.0842e-19 0.000373 0.01875 0.0266881
1.0842e-19 0.012873 0.0137433 0.0269678
6.46235e-27 0.014123 0.0124878 0.0269973
-1.0842e-19 -0.002127 0.01875 0.0266358
2.1684e-19 0.017873 0.00608215 0.0270867
-1.0842e-19 -0.009627 0.0162494 0.0264862
-1.03398e-25 0.0189411 0 0.0271087
0 0.002873 0.01875 0.0267413
0 0.011623 0.0149988 0.0269383
0 -0.018377 0.00479858 0.0263229
1.0842e-19 0.015373 0.011217 0.0270269
0 0.019123 8.95325e-10 0.0271131
0 0.019123 0.000442258 0.0271135
0 -0.017127 0.008656 0.0263463
0 0.019123 0.00233887 0.0271153
-1.0842e-19 0.010373 0.0162494 0.0269088
0 0.0193054 0 0.0271175
0 -0.004627 0.01875 0.0265845
2.58494e-26 0.016623 0.00994629 0.0270572
-1.10441e-29 -0.008377 0.0174794 0.0265102
-9.67102e-20 -0.008377 0.0175 0.0265102
-1.0842e-19 0.005373 0.01875 0.0267955
-1.0842e-19 -0.019627 0.00116943 0.0262962
0 0.019123 0.00479858 0.0271172
-2.31925e-28 0.009123 0.0174927 0.0268798
8.08529e-20 0.009123 0.0175 0.0268797
0 -0.018377 0.00736572 0.026323
-1.0842e-19 0.017873 0.008656 0.0270876
-2.1684e-19 -0.019627 0.00356872 0.0263002
-3.54881e-20 -0.000877 0.02 0.0266609
1.0842e-19 -0.007127 0.01875 0.0265341
-9.67102e-20 0.001623 0.02 0.0267137
1.0842e-19 -0.014627 0.0137433 0.0263913
0 -0.013377 0.0149988 0.0264144
0 -0.015877 0.0124878 0.0263682
1.0842e-19 -0.012127 0.0162494 0.0264376
3.28979e-21 -0.003377 0.02 0.0266092
-1.0842e-19 0.007873 0.01875 0.0268507
0 0.020373 0.00116944 0.0271433
8.08456e-20 0.004123 0.02 0.0267674
0 -0.017127 0.011217 0.0263452
-1.03398e-25 0.019123 0.00736572 0.0271173
-1.0842e-19 -0.019627 0.00608215 0.0262997
3.31322e-29 -0.010877 0.0174792 0.0264612
0 0.014123 0.0149988 0.0269961
0 -0.010877 0.0175 0.0264612
0 0.015373 0.0137433 0.0270261
0 0.020373 0.00356872 0.0271477
0 0.012873 0.0162494 0.0269661
0 0.016623 0.0124878 0.0270562
-9.67102e-20 -0.005877 0.02 0.0265584
0 -0.020877 7.4195e-09 0.0262737
0 -0.018377 0.00994629 0.0263228
4.73317e-30 0.011623 0.0174915 0.0269365
-8.6935e-20 -0.020877 0.00233887 0.0262756
-1.91485e-20 0.011623 0.0175 0.0269365
-1.91544e-20 0.006623 0.02 0.0268221
0 -0.009627 0.01875 0.0264847
0 0.017873 0.011217 0.0270863
0 0.000373 0.02125 0.026686
0 0.020373 0.00608215 0.0271471
0 -0.020877 0.00402827 0.0262768
0 -0.002127 0.02125 0.0266338
-5.16988e-26 -0.020877 0.00479858 0.0262774
1.0842e-19 0.010373 0.01875 0.0269069
1.0842e-19 0.002873 0.02125 0.0267392
0 -0.019627 0.008656 0.0263004
-5.16988e-26 0.019123 0.00994629 0.0271171
1.65436e-24 0.021623 1.13746e-08 0.027174
-1.91544e-20 -0.008377 0.02 0.0265085
1.0842e-19 -0.004627 0.02125 0.0265825
0 0.021623 0.00233888 0.0271762
-2.01948e-28 -0.015877 0.0149988 0.0263672
1.0842e-19 -0.014627 0.0162494 0.02639
1.0842e-19 0.005373 0.02125 0.0267934
0 -0.017127 0.0137433 0.0263445
8.08456e-20 0.009123 0.02 0.0268777
-2.05104e-29 -0.013377 0.0174821 0.0264131
-9.67075e-20 -0.013377 0.0175 0.0264131
-1.0842e-19 0.020373 0.00865601 0.027148
0 -0.020877 0.00736572 0.0262775
0 0.021623 0.00479858 0.0271781
0 -0.022127 0.00116943 0.0262511
3.23117e-27 -0.018377 0.0124878 0.0263219
-1.0842e-19 -0.012127 0.01875 0.0264362
-1.0842e-19 0.015373 0.0162494 0.0270244
0 0.016623 0.0149988 0.0270549
0 -0.022127 0.00356872 0.0262551
-1.0842e-19 -0.007127 0.02125 0.0265322
-1.41995e-28 0.014123 0.0174909 0.0269942
0 0.014123 0.0175 0.0269942
3.28979e-21 -0.000877 0.0225 0.026659
-2.1684e-19 0.017873 0.0137433 0.0270856
-9.67102e-20 0.001623 0.0225 0.0267116
2.1684e-19 -0.019627 0.011217 0.0262993
0 0.007873 0.02125 0.0268485
-1.0842e-19 0.012873 0.01875 0.0269641
-9.67102e-20 -0.003377 0.0225 0.0266072
-1.91544e-20 -0.010877 0.02 0.0264595
0 0.019123 0.0124878 0.0271161
-1.03398e-25 0.021623 0.00736572 0.0271783
-9.67102e-20 0.004123 0.0225 0.0267653
-2.1684e-19 0.022873 0.00116944 0.0272047
0 -0.022127 0.00608215 0.0262547
0 -0.020877 0.00994629 0.0262773
8.08456e-20 0.011623 0.02 0.0269344
0 0.022873 0.00356872 0.0272092
8.08456e-20 -0.005877 0.0225 0.0265565
0 0.020373 0.011217 0.0271467
-1.0842e-19 -0.009627 0.02125 0.0264828
0 -0.023377 8.82567e-09 0.0262291
3.28979e-21 0.006623 0.0225 0.02682
6.46421e-20 -0.023377 0.00233887 0.026231
-1.0842e-19 -0.017127 0.0162494 0.0263433
1.57772e-30 -0.015877 0.017484 0.0263659
0 -0.015877 0.0175 0.0263659
1.0842e-19 0.010373 0.02125 0.0269047
1.0842e-19 0.022873 0.00608215 0.0272086
2.01948e-28 -0.018377 0.0149988 0.0263209
0 0.000373 0.02375 0.0266841
-1.0842e-19 -0.022127 0.008656 0.0262554
0 -0.014627 0.01875 0.0263886
0 0.021623 0.00994629 0.0271781
1.0842e-19 -0.002127 0.02375 0.0266319
3.23117e-27 -0.023377 0.00477594 0.0262328
0 -0.023377 0.00479858 0.0262328
-1.0842e-19 0.002873 0.02375 0.0267372
1.0842e-19 -0.019627 0.0137433 0.0262986
8.08456e-20 -0.008377 0.0225 0.0265066
-3.23117e-27 -0.0235629 0.00479858 0.0262295
3.28979e-21 -0.013377 0.02 0.0264115
0 0.024123 1.1328e-08 0.0272359
-5.6798e-29 0.016623 0.0174918 0.0270531
8.08524e-20 0.016623 0.0175 0.027053
0 0.017873 0.0162494 0.0270838
-1.0842e-19 -0.004627 0.02375 0.0265807
0 0.024123 0.00233888 0.0272381
1.0842e-19 0.015373 0.01875 0.0270223
-9.67102e-20 0.009123 0.0225 0.0268756
-4.03897e-28 0.019123 0.0149988 0.0271148
-3.23117e-27 -0.020877 0.0124878 0.0262764
1.0842e-19 0.005373 0.02375 0.0267914
1.0842e-19 0.022873 0.008656 0.0272095
0 -0.012127 0.02125 0.0264344
-9.67102e-20 0.014123 0.02 0.0269921
0 -0.023377 0.00736572 0.0262329
-1.0842e-19 0.020373 0.0137433 0.0271459
0 0.024123 0.00479858 0.0272401
0 -0.024627 0.00116943 0.026207
1.0842e-19 -0.007127 0.02375 0.0265304
1.0842e-19 -0.022127 0.011217 0.0262543
-1.0842e-19 0.012873 0.02125 0.0269619
0 -0.024627 0.00356872 0.0262109
0 0.021623 0.0124878 0.027177
-9.67102e-20 -0.010877 0.0225 0.0264577
3.28979e-21 -0.000877 0.025 0.0266571
-1.0842e-19 0.007873 0.02375 0.0268465
3.28979e-21 0.001623 0.025 0.0267097
0 0.024123 0.00736572 0.0272403
-9.67102e-20 -0.003377 0.025 0.0266054
-9.67102e-20 0.011623 0.0225 0.0269322
3.28979e-21 0.004123 0.025 0.0267634
5.20648e-29 -0.018377 0.0174852 0.0263196
0 -0.024627 0.00608215 0.0262105
1.58405e-19 -0.018377 0.0175 0.0263196
-1.0842e-19 -0.017127 0.01875 0.0263418
0 0.025373 0.00116944 0.0272672
0 -0.023377 0.00994629 0.0262327
1.0842e-19 0.022873 0.011217 0.0272082
1.0842e-19 -0.019627 0.0162494 0.0262974
8.08456e-20 -0.015877 0.02 0.0263643
0 0.025373 0.00356873 0.0272717
0 -0.009627 0.02375 0.026481
8.08456e-20 -0.005877 0.025 0.0265547
0 -0.020877 0.0149988 0.0262755
-1.0842e-19 -0.014627 0.02125 0.0263868
-9.67102e-20 0.006623 0.025 0.026818
0 -0.025877 9.27243e-09 0.0261853
1.0842e-19 0.017873 0.01875 0.0270817
1.0842e-19 0.010373 0.02375 0.0269026
-1.57772e-30 0.019123 0.0174929 0.0271129
0 0.019123 0.0175 0.0271129
-3.41419e-21 -0.025877 0.00233887 0.0261873
3.28979e-21 0.016623 0.02 0.0270509
1.0842e-19 -0.022127 0.0137433 0.0262536
0 0.020373 0.0162494 0.0271441
1.0842e-19 0.025373 0.00608215 0.0272711
0 0.024123 0.00994629 0.0272401
0 -0.024627 0.00865601 0.0262112
-9.67102e-20 -0.013377 0.0225 0.0264097
0 0.015373 0.02125 0.0270201
0 0.000373 0.02625 0.0266822
-8.07794e-28 0.021623 0.0149988 0.0271757
0 -0.025877 0.00479858 0.026189
0 -0.002127 0.02625 0.0266301
8.08456e-20 -0.008377 0.025 0.0265049
0 0.002873 0.02625 0.0267353
0 -0.023377 0.0124878 0.0262319
0 0.014123 0.0225 0.0269899
-9.67102e-20 0.009123 0.025 0.0268735
-1.03398e-25 0.026623 3.76043e-10 0.0272989
1.0842e-19 -0.004627 0.02625 0.0265789
0 -0.012127 0.02375 0.0264326
-1.0842e-19 0.022873 0.0137433 0.0272074
8.27181e-25 0.026623 0.00233887 0.0273012
6.46235e-27 -0.025877 0.00674512 0.0261891
-1.0842e-19 0.005373 0.02625 0.0267894
1.0842e-19 0.025373 0.008656 0.027272
0 -0.025877 0.00736572 0.0261891
-1.0842e-19 0.012873 0.02375 0.0269597
0 0.026623 0.00479858 0.0273032
0 -0.024627 0.011217 0.0262101
0 -0.019627 0.01875 0.026296
-1.0842e-19 -0.027127 0.00116943 0.0261636
8.08456e-20 -0.018377 0.02 0.0263181
0 0.024123 0.0124878 0.027239
1.0842e-19 -0.007127 0.02625 0.0265287
0 -0.020877 0.0174855 0.0262742
0 -0.020877 0.0175 0.0262742
3.28979e-21 -0.010877 0.025 0.026456
0 -0.017127 0.02125 0.0263401
0 -0.027127 0.00356873 0.0261676
1.0842e-19 0.007873 0.02625 0.0268445
-2.1684e-19 -0.022127 0.0162494 0.0262524
6.45119e-20 -0.000877 0.0275 0.0266553
3.28979e-21 -0.015877 0.0225 0.0263626
4.41762e-29 -0.000877 0.0275314 0.0266553
3.28979e-21 0.001623 0.0275 0.0267079
8.08456e-20 0.011623 0.025 0.0269301
1.57772e-30 0.001623 0.0275281 0.0267079
0 0.026623 0.00736572 0.0273033
-9.67102e-20 0.019123 0.02 0.0271106
0 0.020373 0.01875 0.0271419
3.28979e-21 -0.003377 0.0275 0.0266037
-6.46235e-27 -0.025877 0.00994629 0.026189
-1.02552e-28 -0.003377 0.0275189 0.0266037
-1.0842e-19 0.025373 0.011217 0.0272707
0 0.017873 0.02125 0.0270793
0 -0.023377 0.0149988 0.0262309
-2.1684e-19 -0.027127 0.00608215 0.0261671
8.08474e-20 0.004123 0.0275 0.0267615
-2.22459e-28 0.021623 0.0174934 0.0271737
-1.57772e-30 0.021623 0.0175 0.0271737
6.94198e-29 0.004123 0.0275277 0.0267615
1.0842e-19 -0.014627 0.02375 0.0263851
1.0842e-19 0.027873 0.00116944 0.0273307
-1.0842e-19 -0.009627 0.02625 0.0264793
-9.67102e-20 0.016623 0.0225 0.0270486
1.0842e-19 0.022873 0.0162494 0.0272056
2.1684e-19 0.027873 0.00356873 0.0273353
-9.67102e-20 -0.005877 0.0275 0.026553
-2.44547e-28 -0.005877 0.02751 0.026553
-2.1684e-19 -0.024627 0.0137433 0.0262095
-1.0842e-19 0.010373 0.02625 0.0269006
-1.91544e-20 0.006623 0.0275 0.0268161
0 0.015373 0.02375 0.0270179
5.36425e-29 0.006623 0.0275385 0.026816
-3.54881e-20 -0.013377 0.025 0.026408
0 -0.028377 9.16174e-09 0.0261424
8.07794e-28 0.024123 0.0149988 0.0272377
-5.16988e-26 0.026623 0.00994629 0.0273031
-1.82522e-20 -0.028377 0.00233887 0.0261444
1.0842e-19 -0.027127 0.008656 0.0261679
0 0.027873 0.00608215 0.0273347
8.08456e-20 0.014123 0.025 0.0269878
1.61559e-27 -0.025877 0.0124878 0.0261881
8.08456e-20 -0.008377 0.0275 0.0265032
0 0.000373 0.0287506 0.0266806
-1.41995e-29 -0.008377 0.0275072 0.0265032
-1.23021e-20 -0.028377 0.00479858 0.0261461
-2.1684e-19 -0.002127 0.0287506 0.0266285
1.0842e-19 0.025373 0.0137433 0.0272699
1.0842e-19 0.002873 0.0287506 0.0267336
8.08456e-20 -0.020877 0.02 0.0262727
0 -0.012127 0.02625 0.0264309
0 -0.019627 0.02125 0.0262943
8.08456e-20 0.009123 0.0275 0.0268716
0 -0.022127 0.01875 0.026251
-3.15544e-30 0.009123 0.0275426 0.0268716
8.08456e-20 -0.018377 0.0225 0.0263164
0 -0.004627 0.0287506 0.0265773
-3.30872e-24 0.029123 1.5623e-08 0.027363
0 0.027873 0.008656 0.0273356
-4.73317e-30 -0.023377 0.0174839 0.0262296
3.29323e-21 -0.023377 0.0175 0.0262296
-8.27181e-25 0.029123 0.00233888 0.0273653
-1.0842e-19 0.012873 0.02625 0.0269576
0 0.005373 0.0287506 0.0267877
0 -0.028377 0.00720803 0.0261462
0 -0.017127 0.02375 0.0263384
-3.23117e-27 -0.028377 0.00736572 0.0261462
0 -0.027127 0.011217 0.0261668
-2.86783e-20 0.026623 0.0124878 0.027302
1.0842e-19 0.020373 0.02125 0.0271396
-9.67102e-20 0.021623 0.02 0.0271714
1.0842e-19 -0.024627 0.0162494 0.0262082
4.1359e-25 0.029123 0.00479858 0.0273673
8.08456e-20 0.019123 0.0225 0.0271083
-9.67102e-20 -0.010877 0.0275 0.0264544
1.0842e-19 0.022873 0.01875 0.0272033
-1.15174e-28 -0.010877 0.027507 0.0264544
-3.54881e-20 -0.015877 0.025 0.026361
0 -0.007127 0.0287506 0.0265271
0 -0.029627 0.00116943 0.0261212
0 0.017873 0.02375 0.027077
-3.97586e-28 0.024123 0.0174941 0.0272357
2.1684e-19 0.007873 0.0287506 0.0268427
1.0842e-19 -0.029627 0.00356872 0.0261251
8.08456e-20 0.011623 0.0275 0.0269282
-2.20881e-29 0.011623 0.0275283 0.0269282
-2.01948e-28 -0.025877 0.0149988 0.0261872
0 -0.000877 0.0300012 0.0266537
8.08456e-20 0.016623 0.025 0.0270464
0 0.029123 0.00736572 0.0273674
1.00974e-28 0.001623 0.0300012 0.0267063
-1.0842e-19 0.027873 0.011217 0.0273343
0 -0.014627 0.02625 0.0263835
3.23117e-27 -0.028377 0.00994629 0.0261461
0 0.025373 0.0162494 0.027268
2.01948e-28 -0.003377 0.0300012 0.0266021
-2.1684e-19 -0.029627 0.00608215 0.0261246
0 0.004123 0.0300012 0.0267598
1.0842e-19 -0.009627 0.0287506 0.0264778
0 0.030373 0.00116944 0.0273953
0 -0.027127 0.0137433 0.0261661
0 0.015373 0.02625 0.0270158
0 0.026623 0.0149988 0.0273007
0 0.010373 0.0287506 0.0268987
4.03897e-28 -0.005877 0.0300012 0.0265515
3.28979e-21 -0.013377 0.0275 0.0264065
1.0842e-19 0.030373 0.00356873 0.0273999
3.21855e-28 -0.013377 0.0275077 0.0264065
1.0842e-19 -0.022127 0.02125 0.0262494
-9.67102e-20 -0.020877 0.0225 0.0262711
0 0.006623 0.0300012 0.0268144
-3.54881e-20 -0.023377 0.02 0.0262282
-1.05945e-19 0.029123 0.00994629 0.0273672
0 -0.019627 0.02375 0.0262927
0 -0.029627 0.008656 0.0261254
0 -0.030877 9.3525e-09 0.0261004
1.58401e-19 0.014123 0.0275 0.0269858
-2.36658e-29 0.014123 0.0275229 0.0269857
1.0842e-19 -0.024627 0.01875 0.0262069
5.07041e-20 -0.030877 0.00233887 0.0261023
-1.0842e-19 0.030373 0.00608215 0.0273993
-8.07794e-28 -0.028377 0.0124878 0.0261452
8.08456e-20 -0.018377 0.025 0.0263148
1.0842e-19 0.027873 0.0137433 0.0273335
0 -0.008377 0.0300012 0.0265017
0 -0.012127 0.0287506 0.0264295
3.28979e-21 0.021623 0.0225 0.0271691
1.0842e-19 0.022873 0.02125 0.0272009
4.73317e-30 -0.025877 0.0174781 0.0261859
3.28979e-21 -0.025877 0.0175 0.0261859
-3.88346e-21 -0.030877 0.00479858 0.026104
1.0842e-19 0.000373 0.0312567 0.026679
0 0.020373 0.02375 0.0271373
0 -0.002127 0.0312567 0.026627
-3.54881e-20 0.024123 0.02 0.0272333
1.0842e-19 -0.017127 0.02625 0.0263368
0 0.009123 0.0300012 0.0268699
0 0.002873 0.0312567 0.0267321
8.08456e-20 0.019123 0.025 0.0271061
0 0.012873 0.0287506 0.0269558
1.0842e-19 0.025373 0.01875 0.0272657
1.0842e-19 0.030373 0.00865601 0.0274003
-1.0842e-19 -0.004627 0.0312567 0.0265759
0 -0.027127 0.0162494 0.0261649
3.30872e-24 0.031623 1.5812e-08 0.0274281
6.46235e-27 -0.030877 0.00690572 0.0261041
0 -0.029627 0.011217 0.0261243
0 0.029123 0.0124878 0.0273661
0 0.031623 0.00233888 0.0274304
0 0.005373 0.0312567 0.0267861
6.46235e-27 -0.030877 0.00736572 0.0261042
3.29719e-21 -0.015877 0.0275 0.0263594
1.0842e-19 0.017873 0.02625 0.0270749
1.08863e-28 -0.015877 0.0275076 0.0263594
-3.10811e-28 0.026623 0.017495 0.0272986
0 -0.010877 0.0300012 0.0264529
4.1359e-25 0.031623 0.00479858 0.0274324
2.1684e-19 -0.007127 0.0312567 0.0265257
1.00974e-28 -0.028377 0.0149988 0.0261443
-1.91544e-20 0.016623 0.0275 0.0270444
1.0842e-19 -0.032127 0.00116943 0.0260795
1.26218e-29 0.016623 0.0275317 0.0270444
-2.01948e-28 0.011623 0.0300012 0.0269264
-1.0842e-19 0.007873 0.0312567 0.0268411
1.0842e-19 -0.014627 0.0287506 0.026382
0 0.027873 0.0162494 0.0273316
0 -0.032127 0.00356872 0.0260834
2.1684e-19 0.030373 0.011217 0.0273989
0 -0.030877 0.00994629 0.026104
6.45119e-20 -0.023377 0.0225 0.0262266
0 -0.022127 0.02375 0.0262478
2.06795e-25 0.031623 0.00736572 0.0274326
0 -0.000877 0.0325122 0.0266523
0 -0.024627 0.02125 0.0262053
0 0.001623 0.0325122 0.0267048
1.58401e-19 -0.020877 0.025 0.0262695
0 0.015373 0.0287506 0.0270139
-1.0842e-19 -0.029627 0.0137433 0.0261237
0 -0.003377 0.0325122 0.0266007
-1.0842e-19 -0.032127 0.00608215 0.026083
-3.54881e-20 -0.025877 0.02 0.0261845
0 -0.009627 0.0312567 0.0264764
0 0.029123 0.0149988 0.0273648
0 0.004123 0.0325122 0.0267583
1.0842e-19 -0.019627 0.02625 0.0262911
4.03897e-28 -0.013377 0.0300012 0.026405
1.0842e-19 0.032873 0.00116944 0.0274609
0 0.010373 0.0312567 0.0268971
-1.0842e-19 0.022873 0.02375 0.0271985
0 -0.027127 0.01875 0.0261637
3.28979e-21 0.024123 0.0225 0.0272309
6.46235e-27 -0.005877 0.0325122 0.0265501
-1.91544e-20 0.021623 0.025 0.0271668
-1.0842e-19 0.032873 0.00356873 0.0274656
8.08456e-20 -0.018377 0.0275 0.0263133
-5.04871e-29 -0.018377 0.0275066 0.0263133
1.0842e-19 0.025373 0.02125 0.0272633
6.46235e-27 -0.0327499 0.00479858 0.0260731
0 0.031623 0.00994629 0.0274324
0 0.014123 0.0300012 0.0269839
0 0.006623 0.0325122 0.0268128
0 0.020373 0.02625 0.0271351
0 -0.032127 0.008656 0.0260837
-1.13044e-19 0.026623 0.02 0.0272962
8.07794e-28 -0.030877 0.0124878 0.0261031
-3.15544e-30 -0.028377 0.0174662 0.0261431
-1.0842e-19 0.030373 0.0137433 0.0273981
0 -0.028377 0.0175 0.0261431
0 -0.033377 9.04343e-09 0.0260591
1.0842e-19 0.032873 0.00608215 0.027465
-8.05953e-20 -0.033377 0.00233887 0.026061
0 -0.017127 0.0287506 0.0263354
-1.91544e-20 0.019123 0.0275 0.027104
0 -0.012127 0.0312567 0.0264281
-6.46235e-27 -0.008377 0.0325122 0.0265004
1.0842e-19 0.027873 0.01875 0.0273292
1.29247e-26 -0.033377 0.00469116 0.0260627
0 -0.033377 0.00479858 0.0260628
0 0.009123 0.0325122 0.0268683
2.1684e-19 0.000373 0.0337829 0.0266777
1.0842e-19 -0.029627 0.0162494 0.0261224
0 0.012873 0.0312567 0.0269541
0 -0.002127 0.0337829 0.0266256
-1.0842e-19 0.017873 0.0287506 0.0270729
1.0842e-19 0.002873 0.0337829 0.0267307
0 -0.015877 0.0300012 0.026358
-2.20881e-29 0.029123 0.0174956 0.0273626
0 0.032873 0.008656 0.0274659
0 0.031623 0.0124878 0.0274313
2.1684e-19 -0.032127 0.011217 0.0260826
-1.0842e-19 -0.004627 0.033783 0.0265746
0 0.034123 1.53068e-08 0.0274943
0 0.019123 0.0282958 0.0271034
0 -0.033377 0.00736572 0.0260629
0 0.034123 0.00233888 0.0274966
-2.1684e-19 0.005373 0.0337829 0.0267846
0 -0.024627 0.02375 0.0262038
-1.57772e-30 -0.023377 0.025 0.026225
0 -0.010877 0.0325122 0.0264516
3.28979e-21 -0.025877 0.0225 0.026183
0 0.016623 0.0300012 0.0270425
0 -0.030877 0.0149988 0.0261022
-1.0842e-19 -0.022127 0.02625 0.0262462
-1.0842e-19 0.030373 0.0162494 0.0273961
4.1359e-25 0.034123 0.00479858 0.0274986
0 -0.027127 0.02125 0.0261621
1.0842e-19 -0.014627 0.0312567 0.0263807
0 -0.007127 0.0337829 0.0265244
3.9443e-29 -0.020877 0.027506 0.026268
0 0.011623 0.0325122 0.0269248
-1.0842e-19 -0.034627 0.00116943 0.0260387
0 0.007873 0.0337829 0.0268396
-1.91544e-20 -0.028377 0.02 0.0261417
-1.0842e-19 0.032873 0.011217 0.0274646
-1.91544e-20 0.024123 0.025 0.0272285
0 0.025373 0.02375 0.0272608
1.0842e-19 -0.034627 0.00356872 0.0260425
0 -0.019627 0.0287506 0.0262897
0 0.022873 0.02625 0.0271962
-6.46235e-27 -0.033377 0.00994629 0.0260627
2.1684e-19 0.015373 0.0312567 0.0270121
6.45119e-20 0.026623 0.0225 0.0272937
-2.06795e-25 0.034123 0.00736572 0.0274988
1.0842e-19 -0.032127 0.0137433 0.026082
1.58401e-19 0.021623 0.0275 0.0271646
-8.07794e-28 0.031623 0.0149988 0.0274299
-1.0842e-19 0.027873 0.02125 0.0273267
0 -0.029627 0.01875 0.0261212
-6.46235e-27 -0.000877 0.0350537 0.0266512
0 0.001623 0.0350537 0.0267037
-1.0842e-19 -0.009627 0.0337829 0.0264752
-6.46235e-27 -0.013377 0.0325122 0.0264038
1.0842e-19 -0.034627 0.00608215 0.0260421
0 -0.018377 0.0300012 0.0263119
-1.29247e-26 -0.003377 0.0350537 0.0265997
1.0842e-19 0.020373 0.0287506 0.027133
6.46235e-27 0.004123 0.0350537 0.0267572
-9.67102e-20 0.029123 0.02 0.0273602
-3.25261e-19 0.010373 0.033783 0.0268956
1.0842e-19 0.035373 0.00116944 0.0275277
0 0.014123 0.0325122 0.0269823
3.15544e-30 -0.030877 0.0174649 0.026101
-1.91544e-20 -0.030877 0.0175 0.026101
0 -0.005877 0.0350537 0.0265491
-5.16988e-26 0.034123 0.00994629 0.0274986
0 0.035373 0.00356873 0.0275323
0 0.019123 0.0300012 0.027102
-3.15544e-30 0.0191872 0.0300012 0.0271036
0 0.032873 0.0137433 0.0274638
0 -0.033377 0.0124878 0.0260619
-1.0842e-19 -0.017127 0.0312567 0.0263341
0 0.006623 0.0350537 0.0268116
0 -0.034627 0.008656 0.0260428
-1.0842e-19 0.030373 0.01875 0.0273937
-1.65436e-24 -0.035877 8.28686e-09 0.0260187
1.0842e-19 0.035373 0.00608215 0.0275317
0 -0.012127 0.0337829 0.0264269
1.3128e-19 -0.035877 0.00233887 0.0260206
-9.67102e-20 -0.025877 0.025 0.0261815
1.0842e-19 -0.024627 0.02625 0.0262023
0 -0.032127 0.0162494 0.0260808
0 0.017873 0.0312567 0.0270711
0 -0.008377 0.0350537 0.0264994
0 -0.027127 0.02375 0.0261606
-9.67102e-20 -0.023377 0.0275 0.0262236
-1.34106e-28 -0.023377 0.0275062 0.0262236
2.58494e-26 -0.035877 0.00401222 0.0260217
4.41762e-29 0.031623 0.0174955 0.0274277
2.1684e-19 0.012873 0.0337829 0.0269525
-6.46235e-27 -0.015877 0.0325122 0.0263568
-5.16988e-26 -0.035877 0.00479858 0.0260223
5.84013e-20 -0.028377 0.0225 0.0261402
6.46235e-27 0.009123 0.0350537 0.0268671
-1.0842e-19 -0.022127 0.0287506 0.0262449
1.29247e-26 0.034123 0.0124878 0.0274975
1.0842e-19 0.000373 0.036344 0.0266768
0 -0.034627 0.011217 0.0260418
0 -0.002127 0.036344 0.0266248
0 0.035373 0.008656 0.0275327
-1.0842e-19 0.002873 0.036344 0.0267297
-1.0842e-19 -0.029627 0.02125 0.0261198
-1.0842e-19 0.025373 0.02625 0.0272585
-1.61559e-27 0.016623 0.0325122 0.0270408
8.08456e-20 0.026623 0.025 0.0272913
-8.07794e-28 -0.020877 0.0300012 0.0262667
5.84013e-20 0.024123 0.0275 0.0272263
2.01948e-28 -0.033377 0.0149988 0.0260609
-1.0842e-19 0.027873 0.02375 0.0273241
0 0.036623 1.42897e-08 0.0275615
0 -0.035877 0.00736572 0.0260224
-1.0842e-19 -0.004627 0.036344 0.0265737
0 0.032873 0.0162494 0.0274618
-8.27181e-25 0.036623 0.00233888 0.0275638
0 -0.010877 0.0350537 0.0264506
-2.1684e-19 0.005373 0.036344 0.0267837
-1.0842e-19 0.022873 0.0287506 0.0271941
5.84013e-20 -0.030877 0.02 0.0260998
3.28979e-21 0.029123 0.0225 0.0273576
0 -0.014627 0.0337829 0.0263795
1.0842e-19 -0.019627 0.0312567 0.0262885
0 0.011623 0.0350537 0.0269235
0 0.036623 0.00479858 0.0275659
-8.67886e-20 0.021623 0.0300012 0.0271627
0 -0.007127 0.036344 0.0265236
0 0.030373 0.02125 0.0273911
-1.0842e-19 0.035373 0.011217 0.0275313
0 0.015373 0.0337829 0.0270105
0 -0.037127 0.00116943 0.0259986
0 0.007873 0.036344 0.0268386
-1.0842e-19 -0.032127 0.01875 0.0260796
-1.29247e-26 -0.035877 0.00994629 0.0260222
1.0842e-19 -0.034627 0.0137433 0.0260411
0 0.034123 0.0149988 0.0274961
1.0842e-19 -0.037127 0.00356872 0.0260024
0 0.020373 0.0312567 0.0271311
6.46235e-27 -0.018377 0.0325122 0.0263107
0 0.036623 0.00736572 0.0275661
5.84013e-20 0.031623 0.02 0.0274252
-5.16988e-26 -0.013377 0.0350537 0.0264028
-1.0842e-19 -0.009627 0.036344 0.0264744
-1.0842e-19 -0.037127 0.00608215 0.026002
0 -0.000877 0.0376343 0.0266505
0 0.001623 0.0376343 0.026703
3.15544e-30 -0.033377 0.0174789 0.0260598
-1.91544e-20 -0.033377 0.0175 0.0260598
0 0.019123 0.0325122 0.0271003
0 -0.027127 0.02625 0.0261591
3.28979e-21 -0.025877 0.0275 0.0261801
1.41995e-28 -0.025877 0.027507 0.0261801
-5.16988e-26 -0.003377 0.0376343 0.026599
1.29247e-26 0.014123 0.0350537 0.026981
-1.0842e-19 0.010373 0.036344 0.0268946
5.84013e-20 -0.028377 0.025 0.0261387
1.0842e-19 0.032873 0.01875 0.0274593
0 -0.024627 0.0287506 0.026201
0 0.004123 0.0376343 0.0267565
0 -0.017127 0.0337829 0.026333