# p  POINT_DATA 26799
# x  y  z  p
-5.92878e-09 0 0 0.0266811
0.000876986 5.42101e-20 0 0.026628
-0.000876991 -5.42101e-20 0 0.0267338
0.001623 1.0842e-19 0 0.0265827
-0.00162301 -5.42101e-20 0 0.0267784
0.00125 -9.03502e-21 0.00116943 0.0266057
-0.00125 9.03502e-21 0.00116944 0.0267564
8.56612e-10 1.0842e-19 0.00233887 0.0266832
-0.00249999 0 0 0.0268308
0.0025 1.0842e-19 0 0.0265293
-0.00337698 0 0 0.0268828
0.003377 1.0842e-19 0 0.0264755
-0.0025 -1.0842e-19 0.00233887 0.0268328
0.0025 0 0.00233887 0.0265314
-0.00125 1.807e-20 0.00356872 0.02676
0.00125 9.03502e-21 0.00356872 0.0266093
-0.00375 0 0.00116943 0.026905
0.00375 -2.71051e-20 0.00116943 0.0264528
-0.004123 -5.42101e-20 0 0.0269268
0.004123 5.42101e-20 0 0.0264296
1.02013e-09 -1.0842e-19 0.00479858 0.026685
-0.00499999 -1.0842e-19 0 0.0269784
0.00500001 1.0842e-19 0 0.0263753
-0.00375 -1.807e-20 0.00356872 0.0269086
0.00375 -5.42101e-20 0.00356872 0.0264565
0.0025 1.0842e-19 0.00479858 0.0265333
-0.0025 -1.0842e-19 0.00479858 0.0268347
-0.005 1.0842e-19 0.00233887 0.0269804
0.00500001 1.0842e-19 0.00233887 0.0263775
-0.00587699 -1.0842e-19 0 0.0270297
0.00587702 5.42101e-20 0 0.0263208
-0.00125 0 0.00608215 0.0267598
0.00125 0 0.00608215 0.0266092
-0.00625 -3.61401e-20 0.00116943 0.0270517
0.00625001 -3.61401e-20 0.00116944 0.0262978
0.006623 0 0 0.0262742
-0.006623 5.42101e-20 0 0.0270731
0.005 1.0842e-19 0.00479858 0.0263794
-0.005 -1.0842e-19 0.00479858 0.0269822
-0.00375 1.807e-20 0.00608215 0.0269085
0.00375 3.61401e-20 0.00608215 0.0264563
-0.00625 1.807e-20 0.00356872 0.0270552
0.00625 4.51751e-20 0.00356873 0.0263015
5.20266e-10 1.0842e-19 0.00736572 0.0266851
0.00750001 1.0842e-19 0 0.0262192
-0.00750001 1.0842e-19 0 0.027124
0.0025 1.0842e-19 0.00736572 0.0265334
-0.0025 1.0842e-19 0.00736572 0.0268347
-0.0075 1.0842e-19 0.00233887 0.0271261
0.00750001 1.0842e-19 0.00233887 0.0262214
-0.00837701 0 0 0.0271746
0.00837702 5.42101e-20 0 0.0261639
-0.00625 0 0.00608215 0.027055
0.00625 -1.807e-20 0.00608215 0.0263014
-0.00125 0 0.008656 0.0267604
0.00125 -1.807e-20 0.008656 0.0266097
-0.00875 9.03502e-21 0.00116944 0.0271963
0.00875 1.807e-20 0.00116944 0.0261406
0.005 1.0842e-19 0.00736572 0.0263796
-0.005 1.0842e-19 0.00736572 0.0269823
0.0075 1.0842e-19 0.00479858 0.0262233
-0.0075 1.0842e-19 0.00479858 0.0271278
0.00912299 -5.42101e-20 0 0.0261167
-0.009123 0 0 0.0272175
-0.00375 0 0.008656 0.026909
0.00375 1.807e-20 0.008656 0.026457
-0.00875 -9.03502e-21 0.00356873 0.0271999
0.00875 0 0.00356873 0.0261444
1.71243e-10 1.0842e-19 0.00994629 0.0266849
-0.01 -1.0842e-19 0 0.0272677
0.01 -1.0842e-19 0 0.0260609
0.0025 1.0842e-19 0.00994629 0.0265332
-0.0025 1.0842e-19 0.00994629 0.0268345
-0.01 -1.0842e-19 0.00233887 0.0272697
0.01 1.0842e-19 0.00233887 0.0260631
0.0075 1.0842e-19 0.00736572 0.0262235
-0.0075 1.0842e-19 0.00736572 0.0271279
-0.00875 4.51751e-20 0.00608215 0.0271996
0.00875 0 0.00608215 0.0261443
-0.00625 -1.807e-20 0.008656 0.0270555
0.00625 0 0.008656 0.0263021
0.010877 1.0842e-19 0 0.0260048
-0.010877 1.0842e-19 0 0.0273176
0.01 1.0842e-19 0.00479858 0.0260651
-0.01 1.0842e-19 0.00479858 0.0272714
0.005 1.0842e-19 0.00994629 0.0263794
-0.005 1.0842e-19 0.00994629 0.0269821
-0.00125 -1.807e-20 0.011217 0.0267594
0.00125 0 0.011217 0.0266087
-0.01125 9.03502e-21 0.00116944 0.027339
0.01125 -3.61401e-20 0.00116944 0.0259812
-0.011623 -1.0842e-19 0 0.0273599
0.011623 1.0842e-19 0 0.0259569
-0.01125 0 0.00356873 0.0273424
0.01125 1.807e-20 0.00356873 0.025985
0.00375 -1.807e-20 0.011217 0.026456
-0.00375 1.807e-20 0.011217 0.0269079
-0.00875 0 0.008656 0.0272001
0.00875 3.61401e-20 0.008656 0.0261449
0.01 1.0842e-19 0.00736572 0.0260653
-0.01 1.0842e-19 0.00736572 0.0272715
0.0075 1.0842e-19 0.00994629 0.0262234
-0.0075 1.0842e-19 0.00994629 0.0271276
3.3838e-11 1.0842e-19 0.0124878 0.0266839
-0.0125 -1.0842e-19 0 0.0274094
0.0125 -1.0842e-19 0 0.0259004
-0.0125 0 0.00233887 0.0274114
0.0125 1.0842e-19 0.00233887 0.0259026
0.0025 1.0842e-19 0.0124878 0.0265322
-0.0025 1.0842e-19 0.0124878 0.0268335
-0.01125 0 0.00608215 0.0273422
0.01125 0 0.00608215 0.0259849
0.00625 -1.807e-20 0.011217 0.026301
-0.00625 0 0.011217 0.0270545
0.013377 1.0842e-19 0 0.0258435
-0.013377 0 0 0.0274587
0.0125 1.0842e-19 0.00479858 0.0259046
-0.0125 1.0842e-19 0.00479858 0.0274131
0.005 1.0842e-19 0.0124878 0.0263784
-0.005 1.0842e-19 0.0124878 0.0269811
-0.01375 1.807e-20 0.00116944 0.0274798
0.01375 -1.807e-20 0.00116944 0.0258195
-0.00125 1.807e-20 0.0137433 0.0267585
0.00125 0 0.0137433 0.0266078
0.01 1.0842e-19 0.00994629 0.0260651
-0.01 1.0842e-19 0.00994629 0.0272712
-0.014123 1.6263e-19 0 0.0275004
0.014123 1.0842e-19 0 0.025795
0.01125 -1.807e-20 0.008656 0.0259856
-0.01125 -1.807e-20 0.008656 0.0273427
-0.01375 0 0.00356873 0.0274832
0.01375 1.807e-20 0.00356873 0.0258234
0.00875 -1.807e-20 0.011217 0.0261439
-0.00875 -1.807e-20 0.011217 0.0271991
0.00375 -1.807e-20 0.0137433 0.0264551
-0.00375 0 0.0137433 0.026907
0.0125 1.0842e-19 0.00736572 0.0259048
-0.0125 1.0842e-19 0.00736572 0.0274131
0.0075 1.0842e-19 0.0124878 0.0262223
-0.0075 1.0842e-19 0.0124878 0.0271266
3.02741e-12 1.0842e-19 0.0149988 0.0266828
-0.015 -1.0842e-19 0 0.0275493
0.015 -1.0842e-19 0 0.0257376
0.01375 1.807e-20 0.00608215 0.0258233
-0.01375 -9.03502e-21 0.00608215 0.027483
-0.00625 3.61401e-20 0.0137433 0.0270536
0.00625 0 0.0137433 0.0263002
0.015 1.0842e-19 0.00233887 0.0257398
-0.015 -1.0842e-19 0.00233887 0.0275512
0.0025 1.0842e-19 0.0149988 0.0265311
-0.0025 1.0842e-19 0.0149988 0.0268324
0.015 1.0842e-19 0.00479858 0.0257419
-0.015 -1.0842e-19 0.00479858 0.0275529
0.005 1.0842e-19 0.0149988 0.0263772
-0.005 1.0842e-19 0.0149988 0.02698
0.015877 -5.42101e-20 0 0.0256798
-0.015877 1.6263e-19 0 0.0275979
-0.01125 -1.807e-20 0.011217 0.0273417
0.01125 3.61401e-20 0.011217 0.0259846
0.0125 1.0842e-19 0.00994629 0.0259047
-0.0125 1.0842e-19 0.00994629 0.0274129
0.01 1.0842e-19 0.0124878 0.0260641
-0.01 1.0842e-19 0.0124878 0.0272702
0.01375 0 0.008656 0.025824
-0.01375 1.807e-20 0.00865601 0.0274834
-0.01625 0 0.00116944 0.0276187
0.01625 -9.03502e-21 0.00116944 0.0256555
0.00875 1.807e-20 0.0137433 0.026143
-0.00875 3.61401e-20 0.0137433 0.0271982
-0.00125 0 0.0162494 0.0267571
0.00125 0 0.0162494 0.0266065
-0.016623 0 0 0.027639
0.016623 0 0 0.0256306
0.01625 9.03502e-21 0.00356873 0.0256595
-0.01625 -9.03502e-21 0.00356873 0.027622
-0.00375 0 0.0162494 0.0269058
0.00375 0 0.0162494 0.0264536
0.015 1.0842e-19 0.00736572 0.0257421
-0.015 1.0842e-19 0.00736572 0.0275529
0.0075 1.0842e-19 0.0149988 0.0262212
-0.0075 1.0842e-19 0.0149988 0.0271256
0.01625 -1.807e-20 0.00608215 0.0256595
-0.01625 9.03502e-21 0.00608215 0.0276217
0.00625 3.61401e-20 0.0162494 0.0262987
-0.00625 3.61401e-20 0.0162494 0.0270523
-0.0175 -1.0842e-19 0 0.0276872
0.0175 1.0842e-19 0 0.0255725
-1.02402e-14 1.0842e-19 0.0175 0.0266813
-0.0175 -1.0842e-19 0.00233887 0.0276891
0.0175 1.0842e-19 0.00233887 0.0255747
0.0125 1.0842e-19 0.0124878 0.0259037
-0.0125 1.0842e-19 0.0124878 0.0274119
0.0025 1.0842e-19 0.0175 0.0265296
-0.0025 1.0842e-19 0.0175 0.0268309
-0.01375 0 0.011217 0.0274824
0.01375 3.61401e-20 0.011217 0.025823
0.01125 -1.807e-20 0.0137433 0.0259837
-0.01125 0 0.0137433 0.0273408
0.015 1.0842e-19 0.00994629 0.025742
-0.015 1.0842e-19 0.00994629 0.0275526
0.01 1.0842e-19 0.0149988 0.026063
-0.01 1.0842e-19 0.0149988 0.0272692
0.0175 1.0842e-19 0.00479858 0.0255769
-0.0175 1.0842e-19 0.00479858 0.0276907
0.005 1.0842e-19 0.0175 0.0263757
-0.005 1.0842e-19 0.0175 0.0269785
0.018377 0 0 0.0255139
-0.018377 -5.42101e-20 0 0.0277351
0.01625 0 0.008656 0.0256602
-0.01625 3.61401e-20 0.008656 0.0276222
-0.00875 -1.807e-20 0.0162494 0.0271969
0.00875 3.61401e-20 0.0162494 0.0261416
-0.01875 -9.03502e-21 0.00116944 0.0277557
0.01875 2.71051e-20 0.00116944 0.0254893
0.00125 0 0.01875 0.0266048
-0.00125 3.61401e-20 0.01875 0.0267555
0.0175 1.0842e-19 0.00736572 0.0255771
-0.0175 1.0842e-19 0.00736572 0.0276907
0.0075 1.0842e-19 0.0175 0.0262196
-0.0075 1.0842e-19 0.0175 0.0271241
-0.01875 9.03502e-21 0.00356873 0.027759
0.01875 9.03502e-21 0.00356872 0.0254933
-0.00375 0 0.01875 0.0269041
0.00375 3.61401e-20 0.01875 0.026452
-0.019123 5.42101e-20 0 0.0277757
0.019123 0 0 0.025464
0.01375 0 0.0137433 0.0258221
-0.01375 0 0.0137433 0.0274815
0.015 1.0842e-19 0.0124878 0.0257409
-0.015 1.0842e-19 0.0124878 0.0275516
0.0125 1.0842e-19 0.0149988 0.0259025
-0.0125 1.0842e-19 0.0149988 0.0274108
-0.01875 0 0.00608215 0.0277587
0.01875 9.03502e-21 0.00608215 0.0254933
-0.01625 -1.807e-20 0.011217 0.0276212
0.01625 0 0.011217 0.0256591
0.01125 0 0.0162494 0.0259822
-0.01125 0 0.0162494 0.0273395
0.00625 3.61401e-20 0.01875 0.026297
-0.00625 3.61401e-20 0.01875 0.0270507
0.02 1.0842e-19 0 0.0254051
-0.02 1.0842e-19 0 0.0278233
-1.024e-14 1.0842e-19 0.02 0.0266794
0.0175 1.0842e-19 0.00994629 0.025577
-0.0175 1.0842e-19 0.00994629 0.0276905
0.02 0 0.00233887 0.0254074
-0.02 0 0.00233887 0.0278252
0.01 1.0842e-19 0.0175 0.0260614
0.0025 1.0842e-19 0.02 0.0265277
-0.0025 1.0842e-19 0.02 0.0268291
-0.01 1.0842e-19 0.0175 0.0272677
0.02 1.0842e-19 0.00479858 0.0254095
-0.02 1.0842e-19 0.00479858 0.0278268
0.005 1.0842e-19 0.02 0.0263738
-0.005 1.0842e-19 0.02 0.0269768
0.01875 0 0.008656 0.025494
-0.01875 -1.807e-20 0.008656 0.0277591
-0.00875 3.61401e-20 0.01875 0.0271954
0.00875 -1.807e-20 0.01875 0.0261399
0.020877 1.0842e-19 0 0.0253457
-0.020877 -1.0842e-19 0 0.0278706
0.015 1.0842e-19 0.0149988 0.0257398
-0.015 1.0842e-19 0.0149988 0.0275506
-0.02125 1.807e-20 0.00116944 0.0278908
0.02125 1.807e-20 0.00116943 0.0253207
0.01625 0 0.0137433 0.0256582
-0.01625 -1.807e-20 0.0137433 0.0276203
0.01375 -1.807e-20 0.0162494 0.0258206
-0.01375 1.807e-20 0.0162494 0.0274803
0.00125 0 0.02125 0.0266028
-0.00125 0 0.02125 0.0267535
0.02 1.0842e-19 0.00736572 0.0254097
-0.02 1.0842e-19 0.00736572 0.0278267
0.0075 1.0842e-19 0.02 0.0262177
-0.0075 1.0842e-19 0.02 0.0271224
0.0175 1.0842e-19 0.0124878 0.0255759
-0.0175 1.0842e-19 0.0124878 0.0276895
0.0125 1.0842e-19 0.0175 0.0259009
-0.0125 1.0842e-19 0.0175 0.0274094
-0.02125 -4.51751e-20 0.00356873 0.0278941
0.02125 3.61401e-20 0.00356872 0.0253248
-0.00375 3.61401e-20 0.02125 0.0269022
0.00375 3.61401e-20 0.02125 0.02645
-0.021623 0 0 0.0279106
0.021623 -5.42101e-20 0 0.0252951
0.01875 0 0.011217 0.0254929
-0.01875 -1.807e-20 0.011217 0.0277581
0.01125 1.807e-20 0.01875 0.0259804
-0.01125 3.61401e-20 0.01875 0.027338
-0.02125 0 0.00608215 0.0278938
0.02125 1.807e-20 0.00608215 0.0253247
0.00625 3.61401e-20 0.02125 0.0262949
-0.00625 3.61401e-20 0.02125 0.0270488
0.02 1.0842e-19 0.00994629 0.0254096
-0.02 1.0842e-19 0.00994629 0.0278265
0.01 1.0842e-19 0.02 0.0260594
-0.01 1.0842e-19 0.02 0.0272661
0.0225 1.0842e-19 0 0.0252353
-0.0225 -1.0842e-19 0 0.0279576
-1.024e-14 1.0842e-19 0.0225 0.0266774
0.0225 0 0.00233887 0.0252376
-0.0225 1.0842e-19 0.00233887 0.0279594
0.0025 1.0842e-19 0.0225 0.0265257
-0.0025 1.0842e-19 0.0225 0.0268272
-0.02125 -1.807e-20 0.008656 0.0278942
0.02125 9.03502e-21 0.008656 0.0253255
0.01625 0 0.0162494 0.0256567
-0.01625 0 0.0162494 0.0276191
0.00875 0 0.02125 0.0261377
-0.00875 -1.807e-20 0.02125 0.0271935
0.0225 -1.0842e-19 0.00479858 0.0252397
-0.0225 1.0842e-19 0.00479858 0.027961
0.0175 1.0842e-19 0.0149988 0.0255747
-0.0175 1.0842e-19 0.0149988 0.0276885
0.005 1.0842e-19 0.0225 0.0263717
-0.005 1.0842e-19 0.0225 0.0269749
0.015 1.0842e-19 0.0175 0.0257381
-0.015 1.0842e-19 0.0175 0.0275492
0.01875 -1.807e-20 0.0137433 0.0254921
-0.01875 3.61401e-20 0.0137433 0.0277573
0.01375 0 0.01875 0.0258188
-0.01375 0 0.01875 0.0274788
0.023377 0 0 0.025175
-0.023377 -1.6263e-19 0 0.0280042
0.02 1.0842e-19 0.0124878 0.0254086
-0.02 1.0842e-19 0.0124878 0.0278255
0.0125 1.0842e-19 0.02 0.0258989
-0.0125 1.0842e-19 0.02 0.0274078
0.0225 1.0842e-19 0.00736572 0.02524
-0.0225 1.0842e-19 0.00736572 0.0279609
0.0075 1.0842e-19 0.0225 0.0262156
-0.0075 1.0842e-19 0.0225 0.0271205
0.02375 -3.61401e-20 0.00116943 0.0251497
-0.02375 -2.71051e-20 0.00116944 0.0280242
0.00125 3.61401e-20 0.02375 0.0266008
-0.00125 3.61401e-20 0.02375 0.0267516
0.02375 9.03502e-21 0.00356872 0.0251538
-0.02375 -9.03502e-21 0.00356873 0.0280274
-0.02125 0 0.011217 0.0278932
0.02125 3.61401e-20 0.011217 0.0253244
0.01125 3.61401e-20 0.02125 0.0259783
-0.01125 -1.807e-20 0.02125 0.0273362
0.00375 0 0.02375 0.0264479
-0.00375 0 0.02375 0.0269003
-0.024123 1.0842e-19 0 0.0280437
0.024123 -5.42101e-20 0 0.0251237
-0.02375 0 0.00608215 0.0280271
0.02375 1.807e-20 0.00608215 0.0251538
0.00625 3.61401e-20 0.02375 0.0262929
-0.00625 -1.807e-20 0.02375 0.027047
0.0225 1.0842e-19 0.00994629 0.0252399
-0.0225 1.0842e-19 0.00994629 0.0279606
0.01 1.0842e-19 0.0225 0.0260573
-0.01 1.0842e-19 0.0225 0.0272642
0.0175 1.0842e-19 0.0175 0.025573
-0.0175 1.0842e-19 0.0175 0.0276871
0.01875 -1.807e-20 0.0162494 0.0254905
-0.01875 1.807e-20 0.0162494 0.027756
0.01625 3.61401e-20 0.01875 0.0256549
-0.01625 3.61401e-20 0.01875 0.0276176
0.02 1.0842e-19 0.0149988 0.0254074
-0.02 1.0842e-19 0.0149988 0.0278245
0.015 1.0842e-19 0.02 0.0257361
-0.015 1.0842e-19 0.02 0.0275476
0.025 0 0 0.0250631
-0.025 1.0842e-19 0 0.02809
-1.024e-14 1.0842e-19 0.025 0.0266756
0.025 0 0.00233887 0.0250654
-0.025 1.0842e-19 0.00233887 0.0280918
0.0025 1.0842e-19 0.025 0.0265237
-0.0025 1.0842e-19 0.025 0.0268253
0.02375 -1.807e-20 0.008656 0.0251546
-0.02375 3.61401e-20 0.008656 0.0280274
0.02125 0 0.0137433 0.0253235
-0.02125 0 0.0137433 0.0278923
0.01375 3.61401e-20 0.02125 0.0258166
-0.00875 0 0.02375 0.0271916
-0.01375 3.61401e-20 0.02125 0.0274769
0.00875 0 0.02375 0.0261356
0.025 0 0.00479858 0.0250676
-0.025 1.0842e-19 0.00479858 0.0280934
0.005 1.0842e-19 0.025 0.0263698
-0.005 1.0842e-19 0.025 0.026973
0.0225 1.0842e-19 0.0124878 0.0252389
-0.0225 1.0842e-19 0.0124878 0.0279597
0.0125 1.0842e-19 0.0225 0.0258967
-0.0125 1.0842e-19 0.0225 0.0274059
0.025877 0 0 0.025002
-0.025877 1.0842e-19 0 0.028136
0.025 1.0842e-19 0.00736572 0.0250679
-0.025 1.0842e-19 0.00736572 0.0280933
0.0075 1.0842e-19 0.025 0.0262136
-0.0075 1.0842e-19 0.025 0.0271187
-0.02375 0 0.011217 0.0280265
0.02375 0 0.011217 0.0251535
0.02625 -9.03502e-21 0.00116943 0.0249763
-0.02625 0 0.00116944 0.0281558
0.00125 0 0.02625 0.0265989
-0.01125 -1.807e-20 0.02375 0.0273344
0.01125 3.61401e-20 0.02375 0.0259762
-0.00125 0 0.02625 0.0267498
0.02625 9.03502e-21 0.00356872 0.0249805
-0.02625 9.03502e-21 0.00356873 0.0281589
0.00375 3.61401e-20 0.02625 0.026446
-0.00375 0 0.02625 0.0268985
0.01875 3.61401e-20 0.01875 0.0254886
-0.01875 0 0.01875 0.0277546
0.02 1.0842e-19 0.0175 0.0254056
0.0175 1.0842e-19 0.02 0.025571
-0.0175 1.0842e-19 0.02 0.0276855
-0.02 1.0842e-19 0.0175 0.0278231
-0.026623 1.0842e-19 0 0.028175
0.026623 1.0842e-19 0 0.02495
0.02125 -1.807e-20 0.0162494 0.0253219
-0.02125 0 0.0162494 0.0278911
-0.01625 0 0.02125 0.0276159
0.01625 3.61401e-20 0.02125 0.0256526
0.025 1.0842e-19 0.00994629 0.0250678
-0.025 1.0842e-19 0.00994629 0.028093
0.01 1.0842e-19 0.025 0.0260552
-0.01 1.0842e-19 0.025 0.0272624
0.02625 1.807e-20 0.00608215 0.0249805
-0.02625 9.03502e-21 0.00608215 0.0281586
0.00625 0 0.02625 0.026291
-0.00625 0 0.02625 0.0270452
0.0225 1.0842e-19 0.0149988 0.0252377
-0.0225 1.0842e-19 0.0149988 0.0279586
0.015 1.0842e-19 0.0225 0.0257339
-0.015 1.0842e-19 0.0225 0.0275458
-0.02375 -1.807e-20 0.0137433 0.0280256
0.02375 3.61401e-20 0.0137433 0.0251526
0.01375 3.61401e-20 0.02375 0.0258145
-0.01375 3.61401e-20 0.02375 0.0274752
0.0275 1.0842e-19 0 0.0248884
-0.0275 1.0842e-19 0 0.0282207
-1.02399e-14 1.0842e-19 0.0275 0.0266738
-0.0275 1.0842e-19 0.00233887 0.0282225
0.0275 0 0.00233887 0.0248908
0.0025 1.0842e-19 0.0275 0.0265219
-0.0025 1.0842e-19 0.0275 0.0268236
0.02625 1.807e-20 0.008656 0.0249813
-0.02625 3.61401e-20 0.008656 0.0281589
0.00875 -1.807e-20 0.02625 0.0261337
-0.00875 0 0.02625 0.0271899
0.0275 0 0.00479858 0.0248931
-0.0275 1.0842e-19 0.00479858 0.028224
0.025 1.0842e-19 0.0124878 0.0250668
-0.025 1.0842e-19 0.0124878 0.028092
0.005 1.0842e-19 0.0275 0.0263679
-0.005 1.0842e-19 0.0275 0.0269713
0.0125 1.0842e-19 0.025 0.0258946
-0.0125 1.0842e-19 0.025 0.0274042
0.02 1.0842e-19 0.02 0.0254035
-0.02 1.0842e-19 0.02 0.0278215
-0.02125 -1.807e-20 0.01875 0.0278897
0.02125 -1.807e-20 0.01875 0.02532
-0.01875 3.61401e-20 0.02125 0.0277528
0.01875 1.807e-20 0.02125 0.0254863
0.028377 0 0 0.0248265
-0.028377 1.0842e-19 0 0.0282661
0.0275 1.0842e-19 0.00736572 0.0248934
-0.0275 1.0842e-19 0.00736572 0.0282239
0.0075 1.0842e-19 0.0275 0.0262117
-0.0075 1.0842e-19 0.0275 0.027117
0.0225 1.0842e-19 0.0175 0.0252359
0.0175 1.0842e-19 0.0225 0.0255687
-0.0175 1.0842e-19 0.0225 0.0276837
-0.0225 1.0842e-19 0.0175 0.0279573
0.02625 0 0.011217 0.0249802
-0.02625 0 0.011217 0.0281579
-0.01125 3.61401e-20 0.02625 0.0273327
0.01125 3.61401e-20 0.02625 0.0259742
0.02875 0 0.00116943 0.0248005
-0.02875 9.03502e-21 0.00116944 0.0282855
-0.02375 0 0.0162494 0.0280244
0.02375 3.61401e-20 0.0162494 0.025151
0.01625 1.807e-20 0.02375 0.0256505
-0.01625 3.61401e-20 0.02375 0.0276141
0.00125 5.42101e-20 0.0287506 0.0265972
-0.00125 -5.42101e-20 0.0287506 0.0267481
0.02875 -1.807e-20 0.00356872 0.0248047
-0.02875 1.807e-20 0.00356873 0.0282886
0.00375 -1.807e-20 0.0287506 0.0264443
-0.00375 0 0.0287506 0.0268968
-0.029123 5.42101e-20 0 0.0283045
0.029123 0 0 0.0247737
0.025 1.0842e-19 0.0149988 0.0250655
-0.025 1.0842e-19 0.0149988 0.028091
0.015 1.0842e-19 0.025 0.0257317
-0.015 1.0842e-19 0.025 0.0275441
0.0275 1.0842e-19 0.00994629 0.0248933
-0.0275 1.0842e-19 0.00994629 0.0282235
0.01 1.0842e-19 0.0275 0.0260533
-0.01 1.0842e-19 0.0275 0.0272608
0.02875 0 0.00608215 0.0248047
-0.02875 -5.42101e-20 0.00608215 0.0282883
0.00625 3.61401e-20 0.0287506 0.0262892
-0.00625 3.61401e-20 0.0287506 0.0270436
0.02625 3.61401e-20 0.0137433 0.0249793
-0.02625 3.61401e-20 0.0137433 0.0281571
0.01375 3.61401e-20 0.02625 0.0258124
-0.01375 0 0.02625 0.0274735
0.03 1.0842e-19 0 0.0247113
-0.03 1.0842e-19 0 0.0283495
8.39715e-13 1.0842e-19 0.0300012 0.0266722
0.02875 1.807e-20 0.008656 0.0248055
-0.02875 0 0.008656 0.0282886
0.02125 1.807e-20 0.02125 0.0253176
-0.02125 1.807e-20 0.02125 0.027888
-0.00875 3.61401e-20 0.0287506 0.0271883
0.00875 0 0.0287506 0.0261318
0.03 -1.0842e-19 0.00233887 0.0247138
-0.03 1.0842e-19 0.00233887 0.0283513
0.0225 1.0842e-19 0.02 0.0252337
0.02 1.0842e-19 0.0225 0.0254012
-0.02 1.0842e-19 0.0225 0.0278198
-0.0225 1.0842e-19 0.02 0.0279558
0.0025 1.0842e-19 0.0300012 0.0265203
-0.0025 1.0842e-19 0.0300012 0.026822
0.0275 1.0842e-19 0.0124878 0.0248923
-0.0275 1.0842e-19 0.0124878 0.0282226
0.0125 1.0842e-19 0.0275 0.0258927
-0.0125 1.0842e-19 0.0275 0.0274026
0.01875 0 0.02375 0.0254841
-0.01875 0 0.02375 0.0277511
-0.02375 0 0.01875 0.028023
0.02375 3.61401e-20 0.01875 0.025149
0.03 -1.0842e-19 0.00479858 0.0247161
-0.03 1.0842e-19 0.00479858 0.0283528
0.005 1.0842e-19 0.0300012 0.0263662
-0.005 1.0842e-19 0.0300012 0.0269697
0.0175 1.0842e-19 0.025 0.0255665
0.025 1.0842e-19 0.0175 0.0250637
-0.0175 1.0842e-19 0.025 0.0276821
-0.025 1.0842e-19 0.0175 0.0280897
-0.02875 -1.807e-20 0.011217 0.0282875
0.02875 0 0.011217 0.0248045
0.02625 3.61401e-20 0.0162494 0.0249777
-0.02625 0 0.0162494 0.0281558
0.01625 0 0.02625 0.0256484
-0.01625 3.61401e-20 0.02625 0.0276125
0.01125 0 0.0287506 0.0259723
-0.01125 0 0.0287506 0.0273311
0.030877 0 0 0.0246485
-0.030877 1.0842e-19 0 0.0283943
0.03 1.0842e-19 0.00736572 0.0247164
-0.03 1.0842e-19 0.00736572 0.0283527
0.0075 1.0842e-19 0.0300012 0.02621
-0.0075 1.0842e-19 0.0300012 0.0271155
0.03125 -9.03502e-21 0.00116943 0.0246221
-0.03125 -1.807e-20 0.00116944 0.0284135
0.00125 1.807e-20 0.0312567 0.0265956
-0.00125 -1.807e-20 0.0312567 0.0267466
0.0275 1.0842e-19 0.0149988 0.024891
-0.0275 1.0842e-19 0.0149988 0.0282216
0.015 1.0842e-19 0.0275 0.0257297
-0.015 1.0842e-19 0.0275 0.0275425
0.03125 1.807e-20 0.00356872 0.0246264
-0.03125 0 0.00356873 0.0284166
0.00375 0 0.0312567 0.0264427
-0.00375 -1.807e-20 0.0312567 0.0268953
0.03 1.0842e-19 0.00994629 0.0247163
-0.03 1.0842e-19 0.00994629 0.0283523
-0.031623 1.0842e-19 0 0.0284322
0.031623 -1.0842e-19 0 0.024595
0.01 1.0842e-19 0.0300012 0.0260516
-0.01 1.0842e-19 0.0300012 0.0272593
0.0225 1.0842e-19 0.0225 0.0252313
-0.0225 1.0842e-19 0.0225 0.0279541
0.03125 0 0.00608215 0.0246264
-0.03125 -1.807e-20 0.00608215 0.0284162
0.02875 0 0.0137433 0.0248036
-0.02875 1.807e-20 0.0137433 0.0282868
0.02375 -1.807e-20 0.02125 0.0251466
0.02125 -1.807e-20 0.02375 0.0253154
-0.02125 0 0.02375 0.0278863
-0.02375 0 0.02125 0.0280213
0.01375 0 0.0287506 0.0258105
-0.01375 0 0.0287506 0.0274719
0.00625 -1.807e-20 0.0312567 0.0262876
-0.00625 3.61401e-20 0.0312567 0.0270421
0.02 1.0842e-19 0.025 0.025399
0.025 1.0842e-19 0.02 0.0250615
-0.02 1.0842e-19 0.025 0.0278182
-0.025 1.0842e-19 0.02 0.0280882
0.02625 3.61401e-20 0.01875 0.0249756
-0.01875 3.61401e-20 0.02625 0.0277495
-0.02625 1.807e-20 0.01875 0.0281545
0.01875 0 0.02625 0.025482
0.03125 1.807e-20 0.008656 0.0246272
-0.03125 0 0.008656 0.0284166
0.00875 0 0.0312567 0.0261302
-0.00875 -1.807e-20 0.0312567 0.0271869
0.03 1.0842e-19 0.0124878 0.0247153
-0.03 1.0842e-19 0.0124878 0.0283514
-0.0325 1.0842e-19 0 0.0284767
0.0325 0 0 0.0245317
0.0125 1.0842e-19 0.0300012 0.0258909
-0.0125 1.0842e-19 0.0300012 0.0274011
8.42745e-12 1.0842e-19 0.0325122 0.0266707
-0.0325 1.0842e-19 0.00233887 0.0284784
0.0325 0 0.00233887 0.0245342
0.0175 1.0842e-19 0.0275 0.0255645
0.0275 1.0842e-19 0.0175 0.0248891
-0.0175 1.0842e-19 0.0275 0.0276805
-0.0275 1.0842e-19 0.0175 0.0282203
0.0025 1.0842e-19 0.0325122 0.0265188
-0.0025 1.0842e-19 0.0325122 0.0268206
0.0325 -1.0842e-19 0.00479858 0.0245365
-0.0325 1.0842e-19 0.00479858 0.0284798
0.005 1.0842e-19 0.0325122 0.0263647
-0.005 1.0842e-19 0.0325122 0.0269683
0.02875 0 0.0162494 0.0248018
-0.02875 0 0.0162494 0.0282856
0.01625 -1.807e-20 0.0287506 0.0256464
-0.01625 3.61401e-20 0.0287506 0.0276109
0.03125 0 0.011217 0.0246262
-0.03125 1.807e-20 0.011217 0.0284155
0.01125 0 0.0312567 0.0259707
-0.01125 3.61401e-20 0.0312567 0.0273297
0.0325 1.0842e-19 0.00736572 0.0245368
-0.0325 1.0842e-19 0.00736572 0.0284797
0.0075 1.0842e-19 0.0325122 0.0262085
-0.0075 1.0842e-19 0.0325122 0.0271141
0.033377 -1.0842e-19 0 0.024468
-0.033377 5.42101e-20 0 0.0285208
0.03 1.0842e-19 0.0149988 0.024714
-0.03 1.0842e-19 0.0149988 0.0283504
0.015 1.0842e-19 0.0300012 0.0257279
-0.015 1.0842e-19 0.0300012 0.027541
-0.02375 -1.807e-20 0.02375 0.0280197
0.02375 -1.807e-20 0.02375 0.0251443
0.0225 1.0842e-19 0.025 0.0252291
0.025 1.0842e-19 0.0225 0.0250591
-0.0225 1.0842e-19 0.025 0.0279525
-0.025 1.0842e-19 0.0225 0.0280865
0.03375 0 0.00116943 0.0244412
-0.03375 9.03502e-21 0.00116944 0.0285398
0.02125 3.61401e-20 0.02625 0.0253132
0.02625 3.61401e-20 0.02125 0.0249732
-0.02125 3.61401e-20 0.02625 0.0278847
-0.02625 3.61401e-20 0.02125 0.0281528
0.00125 -5.42101e-20 0.0337829 0.0265944
-0.00125 1.807e-20 0.033783 0.0267452
0.03375 -9.03502e-21 0.00356872 0.0244455
-0.03375 0 0.00356872 0.0285428
0.0325 1.0842e-19 0.00994629 0.0245367
-0.0325 1.0842e-19 0.00994629 0.0284794
-0.00375 -1.807e-20 0.0337829 0.026894
0.00375 3.61401e-20 0.0337829 0.0264413
0.02 1.0842e-19 0.0275 0.0253969
0.0275 1.0842e-19 0.02 0.0248869
-0.02 1.0842e-19 0.0275 0.0278167
-0.0275 1.0842e-19 0.02 0.0282188
0.01 1.0842e-19 0.0325122 0.0260501
-0.01 1.0842e-19 0.0325122 0.0272579
-0.034123 0 0 0.0285582
0.034123 -5.42101e-20 0 0.0244137
-0.03125 3.61401e-20 0.0137433 0.0284147
0.03125 3.61401e-20 0.0137433 0.0246253
0.01375 3.61401e-20 0.0312567 0.0258088
-0.01375 0 0.0312567 0.0274706
0.03375 1.807e-20 0.00608215 0.0244456
-0.03375 1.807e-20 0.00608215 0.0285424
-0.02875 0 0.01875 0.0282842
0.02875 1.807e-20 0.01875 0.0247998
-0.01875 0 0.0287506 0.027748
0.01875 3.61401e-20 0.0287506 0.02548
-0.00625 -1.807e-20 0.0337829 0.0270408
0.00625 3.61401e-20 0.0337829 0.0262862
0.03 1.0842e-19 0.0175 0.0247121
-0.03 1.0842e-19 0.0175 0.0283491
0.0175 1.0842e-19 0.0300012 0.0255626
-0.0175 1.0842e-19 0.0300012 0.0276791
0.0325 1.0842e-19 0.0124878 0.0245357
-0.0325 1.0842e-19 0.0124878 0.0284784
0.0125 1.0842e-19 0.0325122 0.0258893
-0.0125 1.0842e-19 0.0325122 0.0273998
0.03375 3.61401e-20 0.008656 0.0244464
-0.03375 1.807e-20 0.008656 0.0285427
0.00875 0 0.0337829 0.0261289
-0.00875 0 0.0337829 0.0271856
-0.035 0 0 0.0286021
0.035 -1.0842e-19 0 0.0243495
3.85541e-11 1.0842e-19 0.0350537 0.0266696
-0.035 -1.0842e-19 0.00233887 0.0286038
0.035 0 0.00233887 0.024352
0.0025 1.0842e-19 0.0350537 0.0265177
-0.0025 1.0842e-19 0.0350537 0.0268195
0.03125 0 0.0162494 0.0246235
-0.03125 0 0.0162494 0.0284135
0.01625 3.61401e-20 0.0312567 0.0256447
-0.01625 3.61401e-20 0.0312567 0.0276096
0.035 -1.0842e-19 0.00479858 0.0243544
-0.035 1.0842e-19 0.00479858 0.0286052
0.025 1.0842e-19 0.025 0.0250568
-0.025 1.0842e-19 0.025 0.0280849
0.02625 0 0.02375 0.0249709
-0.02375 0 0.02625 0.0280181
-0.02625 0 0.02375 0.0281512
0.02375 0 0.02625 0.0251421
0.005 1.0842e-19 0.0350537 0.0263636
-0.005 1.0842e-19 0.0350537 0.0269673
0.0225 1.0842e-19 0.0275 0.025227
0.0275 1.0842e-19 0.0225 0.0248844
-0.0225 1.0842e-19 0.0275 0.027951
-0.0275 1.0842e-19 0.0225 0.0282172
0.03375 -1.807e-20 0.011217 0.0244454
-0.03375 -1.807e-20 0.011217 0.0285417
0.01125 0 0.0337829 0.0259692
-0.01125 0 0.0337829 0.0273285
0.02875 0 0.02125 0.0247974
-0.02875 1.807e-20 0.02125 0.0282825
0.02125 0 0.0287506 0.0253112
-0.02125 0 0.0287506 0.0278833
0.035 1.0842e-19 0.00736572 0.0243547
-0.035 1.0842e-19 0.00736572 0.0286051
0.0325 1.0842e-19 0.0149988 0.0245344
-0.0325 1.0842e-19 0.0149988 0.0284775
0.015 1.0842e-19 0.0325122 0.0257263
-0.015 1.0842e-19 0.0325122 0.0275398
0.0075 1.0842e-19 0.0350537 0.0262073
-0.0075 1.0842e-19 0.0350537 0.0271131
-0.035877 1.6263e-19 0 0.0286457
0.035877 -5.42101e-20 0 0.0242849
0.03 1.0842e-19 0.02 0.0247098
-0.03 1.0842e-19 0.02 0.0283476
0.02 1.0842e-19 0.0300012 0.025395
-0.02 1.0842e-19 0.0300012 0.0278153
0.03625 -9.03502e-21 0.00116944 0.0242577
-0.03625 0 0.00116944 0.0286644
-0.00125 -1.807e-20 0.036344 0.0267443
0.00125 3.61401e-20 0.036344 0.0265935
0.035 1.0842e-19 0.00994629 0.0243546
-0.035 1.0842e-19 0.00994629 0.0286047
0.03625 -3.61401e-20 0.00356873 0.0242621
-0.03625 0 0.00356872 0.0286673
0.03375 0 0.0137433 0.0244445
-0.03375 0 0.0137433 0.0285409
0.03125 0 0.01875 0.0246215
-0.03125 0 0.01875 0.0284122
0.01875 3.61401e-20 0.0312567 0.0254782
-0.01875 3.61401e-20 0.0312567 0.0277467
0.01 1.0842e-19 0.0350537 0.0260488
-0.01 1.0842e-19 0.0350537 0.0272569
0.01375 0 0.0337829 0.0258073
-0.01375 -1.807e-20 0.0337829 0.0274694
-0.00375 0 0.036344 0.0268932
0.00375 1.807e-20 0.036344 0.0264404
0.036623 1.0842e-19 0 0.0242299
-0.036623 5.42101e-20 0 0.0286826
0.03625 1.807e-20 0.00608215 0.0242622
-0.03625 -3.61401e-20 0.00608215 0.0286669
-0.00625 -1.807e-20 0.036344 0.02704
0.00625 0 0.036344 0.0262852
0.0325 1.0842e-19 0.0175 0.0245325
-0.0325 1.0842e-19 0.0175 0.0284762
0.0175 1.0842e-19 0.0325122 0.025561
-0.0175 1.0842e-19 0.0325122 0.0276778
0.02625 3.61401e-20 0.02625 0.0249686
-0.02625 3.61401e-20 0.02625 0.0281497
0.035 1.0842e-19 0.0124878 0.0243536
-0.035 1.0842e-19 0.0124878 0.0286038
0.025 1.0842e-19 0.0275 0.0250546
0.0275 1.0842e-19 0.025 0.0248821
-0.025 1.0842e-19 0.0275 0.0280834
-0.0275 1.0842e-19 0.025 0.0282156
0.0125 1.0842e-19 0.0350537 0.0258881
-0.0125 1.0842e-19 0.0350537 0.0273988
0.03625 3.61401e-20 0.008656 0.024263
-0.03625 1.807e-20 0.008656 0.0286672
-0.02875 0 0.02375 0.028281
0.02875 0 0.02375 0.0247949
-0.02375 3.61401e-20 0.0287506 0.0280167
0.02375 3.61401e-20 0.0287506 0.0251401
-0.00875 0 0.036344 0.0271848
0.00875 -1.807e-20 0.036344 0.0261279
0.03375 0 0.0162494 0.0244428
-0.03375 -1.807e-20 0.0162494 0.0285397
0.01625 0 0.0337829 0.0256431
-0.01625 3.61401e-20 0.0337829 0.0276084
-0.0375 1.0842e-19 0 0.0287258
0.0375 0 0 0.0241647
0.03 1.0842e-19 0.0225 0.0247073
-0.03 1.0842e-19 0.0225 0.028346
0.0225 1.0842e-19 0.0300012 0.025225
-0.0225 1.0842e-19 0.0300012 0.0279496
-0.0375 0 0.00233887 0.0287275
0.0375 -1.0842e-19 0.00233887 0.0241673
8.7068e-11 1.0842e-19 0.0376343 0.0266689
0.0025 1.0842e-19 0.0376343 0.026517
-0.0025 1.0842e-19 0.0376343 0.0268188
-0.03125 -1.807e-20 0.02125 0.0284106
0.03125 0 0.02125 0.024619
0.02125 3.61401e-20 0.0312567 0.0253094
-0.02125 3.61401e-20 0.0312567 0.027882
0.0375 -1.0842e-19 0.00479858 0.0241697
-0.0375 -1.0842e-19 0.00479858 0.0287289
0.03625 0 0.011217 0.0242619
-0.03625 0 0.011217 0.0286662
0.005 1.0842e-19 0.0376343 0.0263629
-0.005 1.0842e-19 0.0376343 0.0269666
-0.01125 -1.807e-20 0.036344 0.0273277
0.01125 -1.807e-20 0.036344 0.0259682
0.035 1.0842e-19 0.0149988 0.0243523
-0.035 1.0842e-19 0.0149988 0.0286028
0.015 1.0842e-19 0.0350537 0.025725
-0.015 1.0842e-19 0.0350537 0.0275388
0.0325 1.0842e-19 0.02 0.0245301
-0.0325 1.0842e-19 0.02 0.0284747
0.02 1.0842e-19 0.0325122 0.0253933
-0.02 1.0842e-19 0.0325122 0.027814
0.0375 1.0842e-19 0.00736572 0.02417
-0.0375 1.0842e-19 0.00736572 0.0287287
0.0075 1.0842e-19 0.0376343 0.0262066
-0.0075 1.0842e-19 0.0376343 0.0271125
-0.038377 -1.0842e-19 0 0.0287688
0.038377 5.42101e-20 0 0.0240992
0.03375 0 0.01875 0.0244406
-0.03375 -1.807e-20 0.01875 0.0285384
0.01875 0 0.0337829 0.0254766
-0.01875 3.61401e-20 0.0337829 0.0277456
0.03875 2.71051e-20 0.00116944 0.0240716
-0.03875 2.71051e-20 0.00116944 0.0287872
0.03625 -1.807e-20 0.0137433 0.0242611
-0.03625 3.61401e-20 0.0137433 0.0286654
0.0375 1.0842e-19 0.00994629 0.0241699
-0.0375 1.0842e-19 0.00994629 0.0287284
0.01375 -1.807e-20 0.036344 0.0258063
-0.01375 0 0.036344 0.0274686
0.0275 1.0842e-19 0.0275 0.0248799
-0.0275 1.0842e-19 0.0275 0.0282142
0.03875 1.807e-20 0.00356873 0.0240761
-0.03875 -9.03502e-21 0.00356872 0.0287902
0.02875 -1.807e-20 0.02625 0.0247926
-0.02875 0 0.02625 0.0282795
0.02625 3.61401e-20 0.0287506 0.0249665
-0.02625 3.61401e-20 0.0287506 0.0281483
0.00125 0 0.0389178 0.026593