# pMean  POINT_DATA 26382
# x  y  z  pMean
0 -0.000876979 6.01824e-09 0.025564
0 0.000373006 0.00116944 0.0255912
8.27181e-25 0.001623 4.67384e-09 0.0256189
1.03398e-25 -0.000876994 0.00215245 0.0255658
0 -0.00212699 0.00116944 0.0255368
2.06795e-25 0.001623 0.00182382 0.0256204
-1.03398e-25 -0.000876994 0.00233887 0.0255659
2.06795e-25 0.001623 0.00233887 0.0256209
-1.0842e-19 0.00287301 0.00116943 0.0256466
0 -0.00236739 0.00233887 0.0255338
0 -0.00337698 7.72602e-09 0.0255102
-1.0842e-19 0.000373002 0.00356873 0.0255952
0 -0.003377 0.00233887 0.0255121
0 0.00412303 4.87104e-09 0.0256748
1.0842e-19 -0.002127 0.00356872 0.0255407
0 0.00412301 0.00187853 0.0256764
1.0842e-19 0.002873 0.00356872 0.0256507
0 -0.003377 0.00327131 0.0255126
0 0.00412301 0.00233887 0.0256768
1.0842e-19 -0.004627 0.00116943 0.0254835
-1.03398e-25 -0.000876999 0.00479858 0.0255674
0 0.001623 0.00479858 0.0256223
0 0.00537301 0.00116944 0.025703
-1.0842e-19 -0.004627 0.00356872 0.0254873
-1.03398e-25 -0.003377 0.00479858 0.0255135
0 -0.005877 8.41764e-09 0.0254574
0 0.000373001 0.00608215 0.0255941
1.23491e-20 -0.005877 0.00233887 0.0254593
2.06795e-25 0.004123 0.00479858 0.0256782
-2.1684e-19 -0.002127 0.00608215 0.0255397
2.1684e-19 0.005373 0.00356873 0.025707
-8.27181e-25 0.00662302 5.69423e-09 0.0257317
-1.0842e-19 0.002873 0.00608215 0.0256495
-5.16988e-25 0.006623 0.00206606 0.0257334
0 -0.005877 0.00373585 0.0254601
0 0.006623 0.00233887 0.0257337
2.1684e-19 -0.00712701 0.00116943 0.0254312
0 -0.000876999 0.00736572 0.0255671
-1.03398e-25 0.001623 0.00736572 0.0256219
0 -0.005877 0.00479858 0.0254608
1.0842e-19 -0.004627 0.00608215 0.0254865
0 0.007873 0.00116944 0.0257605
1.0842e-19 -0.007127 0.00356872 0.0254351
5.16988e-26 -0.003377 0.00736572 0.0255133
1.0842e-19 0.005373 0.00608215 0.0257057
2.06795e-25 0.006623 0.00479858 0.025735
0 -0.008377 8.14506e-09 0.0254056
0 0.004123 0.00736572 0.0256778
0 0.007873 0.00356873 0.0257643
0 0.000373 0.00865601 0.0255945
-2.57643e-20 -0.008377 0.00233887 0.0254075
-1.0842e-19 -0.002127 0.008656 0.0255403
7.75482e-26 -0.008377 0.00347115 0.0254082
2.1684e-19 0.002873 0.008656 0.0256498
0 0.009123 5.76164e-09 0.0257897
1.03398e-25 0.009123 0.00210367 0.0257915
0 -0.007127 0.00608215 0.0254343
0 0.009123 0.00233887 0.0257917
5.16988e-26 -0.005877 0.00736572 0.0254606
1.03398e-25 -0.008377 0.00479858 0.025409
1.0842e-19 -0.009627 0.00116944 0.0253799
0 -0.004627 0.00865601 0.0254869
1.03398e-25 0.006623 0.00736572 0.0257347
1.0842e-19 0.007873 0.00608215 0.0257631
2.58494e-26 -0.000877 0.00994629 0.0255667
0 0.001623 0.00994629 0.0256215
-3.25261e-19 0.005373 0.008656 0.0257063
1.0842e-19 -0.009627 0.00356873 0.0253837
0 0.009123 0.00479858 0.025793
-1.0842e-19 0.010373 0.00116944 0.0258191
0 -0.003377 0.00994629 0.025513
-2.58494e-26 0.004123 0.00994629 0.0256773
0 -0.010877 7.63523e-09 0.0253548
0 0.010373 0.00356873 0.0258229
-8.8696e-21 -0.010877 0.00233887 0.0253567
0 -0.008377 0.00736572 0.0254088
1.0842e-19 -0.007127 0.008656 0.0254346
0 0.000373 0.011217 0.0255932
0 -0.010877 0.00320213 0.0253572
0 -0.009627 0.00608215 0.025383
-2.1684e-19 -0.002127 0.011217 0.025539
0 -0.005877 0.00994629 0.0254601
1.0842e-19 0.002873 0.011217 0.0256485
0 0.011623 5.15475e-09 0.0258488
-2.1684e-19 0.007873 0.008656 0.0257638
0 0.009123 0.00736572 0.0257927
-2.06795e-25 0.011623 0.00189818 0.0258504
-2.06795e-25 0.011623 0.00233887 0.0258508
0 -0.010877 0.00479858 0.0253583
2.58494e-26 0.006623 0.00994629 0.0257343
-1.0842e-19 0.010373 0.00608215 0.0258217
-1.0842e-19 -0.004627 0.011217 0.0254857
-1.0842e-19 -0.012127 0.00116943 0.0253296
0 0.005373 0.011217 0.0257049
0 -0.000877 0.0124878 0.0255657
0 0.011623 0.00479858 0.0258521
0 0.001623 0.0124878 0.0256205
-1.0842e-19 -0.012127 0.00356873 0.0253335
-2.1684e-19 0.012873 0.00116944 0.0258787
3.23117e-27 -0.003377 0.0124878 0.025512
-1.0842e-19 -0.009627 0.008656 0.0253834
0 -0.008377 0.00994629 0.0254084
0 -0.010877 0.00736572 0.0253581
0 0.004123 0.0124878 0.0256764
0 -0.007127 0.011217 0.0254334
1.0842e-19 0.012873 0.00356872 0.0258827
0 -0.013377 7.2543e-09 0.0253049
-2.58494e-26 0.009123 0.00994629 0.0257923
-1.0842e-19 0.010373 0.00865601 0.0258223
2.1684e-19 -0.012127 0.00608215 0.0253329
1.21394e-19 -0.013377 0.00233887 0.0253069
0 0.007873 0.011217 0.0257623
-1.0842e-19 0.000373 0.0137433 0.0255925
0 0.011623 0.00736572 0.0258517
-2.58494e-26 -0.013377 0.0033489 0.0253075
0 -0.005877 0.0124878 0.0254591
1.0842e-19 -0.002127 0.0137433 0.0255383
-1.0842e-19 0.002873 0.0137433 0.0256479
0 0.014123 3.99365e-09 0.025909
0 0.006623 0.0124878 0.0257334
4.1359e-25 0.014123 0.0013649 0.0259102
0 -0.013377 0.00479858 0.0253085
-1.0842e-19 0.012873 0.00608215 0.0258813
4.1359e-25 0.014123 0.00233887 0.0259111
1.0842e-19 -0.004627 0.0137433 0.0254849
1.0842e-19 -0.014627 0.00116943 0.0252802
0 -0.010877 0.00994629 0.0253577
0 0.005373 0.0137433 0.0257044
0 0.0147711 0 0.0259249
1.0842e-19 -0.009627 0.011217 0.0253821
0 -0.012127 0.008656 0.0253333
-2.06795e-25 0.014123 0.00479858 0.0259124
0 -0.000877 0.0149988 0.0255648
0 -0.008377 0.0124878 0.0254073
0 -0.014627 0.00356872 0.0252842
0 0.001623 0.0149988 0.0256195
5.16988e-26 -0.013377 0.00736572 0.0253084
0 0.010373 0.011217 0.025821
2.58494e-26 0.011623 0.00994629 0.0258514
0 -0.003377 0.0149988 0.025511
0 0.015373 0.00116944 0.0259395
-6.46235e-27 0.009123 0.0124878 0.0257914
1.0842e-19 -0.007127 0.0137433 0.0254325
1.0842e-19 0.012873 0.00865601 0.0258818
-4.03897e-28 0.004123 0.0149988 0.0256754
-1.0842e-19 0.015373 0.00356872 0.0259436
1.0842e-19 0.007873 0.0137433 0.025762
0 -0.014627 0.00608215 0.0252835
8.27181e-25 -0.015877 6.82727e-09 0.025256
-1.03398e-25 0.014123 0.00736572 0.0259119
-2.85264e-20 -0.015877 0.00233887 0.025258
-2.01948e-28 -0.005877 0.0149988 0.0254582
2.58494e-26 -0.015877 0.00298249 0.0252584
1.0842e-19 0.000373 0.0162494 0.0255913
-1.0842e-19 -0.002127 0.0162494 0.0255371
0 0.006623 0.0149988 0.0257325
-1.0842e-19 0.002873 0.0162494 0.0256465
1.0842e-19 -0.012127 0.011217 0.0253322
-1.0842e-19 0.015373 0.00608215 0.025942
0 -0.010877 0.0124878 0.0253567
-1.03398e-25 -0.015877 0.00479858 0.0252596
3.30872e-24 0.016623 1.14127e-08 0.0259703
0 -0.013377 0.00994629 0.025308
0 -0.009627 0.0137433 0.0253814
0 0.016623 0.00233887 0.0259724
2.1684e-19 -0.004627 0.0162494 0.0254838
-1.0842e-19 -0.014627 0.00865601 0.025284
0 0.011623 0.0124878 0.0258506
0 0.012873 0.011217 0.0258807
1.0842e-19 0.005373 0.0162494 0.0257031
0 -0.017127 0.00116943 0.0252318
2.01948e-28 -0.008377 0.0149988 0.0254064
1.0842e-19 0.010373 0.0137433 0.0258205
-2.58494e-26 0.014123 0.00994629 0.0259116
0 0.016623 0.00479858 0.0259737
-1.0842e-19 -0.017127 0.00356872 0.0252357
0 -0.015877 0.00736572 0.0252595
-2.47702e-28 -0.000877 0.0174912 0.0255636
0 -0.000877 0.0175 0.0255636
4.03897e-28 0.009123 0.0149988 0.0257906
-2.11415e-28 0.001623 0.0174922 0.0256183
0 0.001623 0.0175 0.0256183
0 0.015373 0.008656 0.0259425
0 -0.007127 0.0162494 0.0254316
-4.10208e-29 -0.003377 0.0174891 0.0255098
-1.91544e-20 -0.003377 0.0175 0.0255098
-1.0842e-19 0.017873 0.00116944 0.0260012
0 0.004123 0.0174928 0.0256742
-1.57772e-30 0.004123 0.0175 0.0256741
-1.0842e-19 0.007873 0.0162494 0.0257606
0 -0.017127 0.00608215 0.025235
1.03398e-25 0.016623 0.00736572 0.0259731
1.0842e-19 0.017873 0.00356872 0.0260053
0 -0.013377 0.0124878 0.025307
0 -0.012127 0.0137433 0.0253314
8.27181e-25 -0.018377 6.59756e-09 0.025208
-1.0842e-19 -0.014627 0.011217 0.0252827
1.00974e-28 -0.005877 0.0174846 0.0254569
-1.57772e-30 -0.005877 0.0175 0.0254569
5.65533e-20 -0.018377 0.00233887 0.02521
-2.01948e-28 -0.010877 0.0149988 0.0253557
-2.58494e-26 -0.018377 0.00268468 0.0252102
0 0.006623 0.0174931 0.0257312
0 0.006623 0.0175 0.0257312
0 -0.015877 0.00994629 0.0252591
1.0842e-19 0.000373 0.01875 0.0255901
1.0842e-19 0.012873 0.0137433 0.0258803
6.46235e-27 0.014123 0.0124878 0.0259109
-1.0842e-19 -0.002127 0.01875 0.0255359
2.1684e-19 0.017873 0.00608215 0.0260039
-1.0842e-19 -0.009627 0.0162494 0.0253801
-1.03398e-25 0.0189411 0 0.026028
0 0.002873 0.01875 0.0256452
0 0.011623 0.0149988 0.0258498
0 -0.018377 0.00479858 0.0252116
1.0842e-19 0.015373 0.011217 0.0259416
0 0.019123 8.95325e-10 0.0260325
0 0.019123 0.000442258 0.0260329
0 -0.017127 0.008656 0.0252357
0 0.019123 0.00233887 0.0260345
-1.0842e-19 0.010373 0.0162494 0.0258192
0 0.0193054 0 0.0260371
0 -0.004627 0.01875 0.0254823
2.58494e-26 0.016623 0.00994629 0.0259729
-1.10441e-29 -0.008377 0.0174794 0.0254051
-9.67102e-20 -0.008377 0.0175 0.0254051
-1.0842e-19 0.005373 0.01875 0.0257018
-1.0842e-19 -0.019627 0.00116943 0.0251843
0 0.019123 0.00479858 0.0260358
-2.31925e-28 0.009123 0.0174927 0.0257892
8.08529e-20 0.009123 0.0175 0.0257892
0 -0.018377 0.00736572 0.0252115
-1.0842e-19 0.017873 0.008656 0.0260042
-2.1684e-19 -0.019627 0.00356872 0.0251881
-3.54881e-20 -0.000877 0.02 0.0255621
1.0842e-19 -0.007127 0.01875 0.02543
-9.67102e-20 0.001623 0.02 0.0256168
1.0842e-19 -0.014627 0.0137433 0.025282
0 -0.013377 0.0149988 0.0253059
0 -0.015877 0.0124878 0.0252581
1.0842e-19 -0.012127 0.0162494 0.0253298
3.28979e-21 -0.003377 0.02 0.0255083
-1.0842e-19 0.007873 0.01875 0.0257593
0 0.020373 0.00116944 0.0260639
8.08456e-20 0.004123 0.02 0.0256726
0 -0.017127 0.011217 0.0252342
-1.03398e-25 0.019123 0.00736572 0.0260353
-1.0842e-19 -0.019627 0.00608215 0.0251875
3.31322e-29 -0.010877 0.0174792 0.0253544
0 0.014123 0.0149988 0.0259102
0 -0.010877 0.0175 0.0253544
0 0.015373 0.0137433 0.0259413
0 0.020373 0.00356872 0.0260678
0 0.012873 0.0162494 0.0258791
0 0.016623 0.0124878 0.0259723
-9.67102e-20 -0.005877 0.02 0.0254554
0 -0.020877 7.4195e-09 0.025161
0 -0.018377 0.00994629 0.0252112
4.73317e-30 0.011623 0.0174915 0.0258484
-8.6935e-20 -0.020877 0.00233887 0.0251629
-1.91485e-20 0.011623 0.0175 0.0258483
-1.91544e-20 0.006623 0.02 0.0257296
0 -0.009627 0.01875 0.0253788
0 0.017873 0.011217 0.0260034
0 0.000373 0.02125 0.0255882
0 0.020373 0.00608215 0.0260664
0 -0.020877 0.00402827 0.025164
0 -0.002127 0.02125 0.025534
-5.16988e-26 -0.020877 0.00479858 0.0251645
1.0842e-19 0.010373 0.01875 0.0258177
1.0842e-19 0.002873 0.02125 0.0256434
0 -0.019627 0.008656 0.0251881
-5.16988e-26 0.019123 0.00994629 0.026035
1.65436e-24 0.021623 1.13746e-08 0.0260958
-1.91544e-20 -0.008377 0.02 0.0254037
1.0842e-19 -0.004627 0.02125 0.0254807
0 0.021623 0.00233888 0.0260977
-2.01948e-28 -0.015877 0.0149988 0.0252571
1.0842e-19 -0.014627 0.0162494 0.0252806
1.0842e-19 0.005373 0.02125 0.0256999
0 -0.017127 0.0137433 0.0252335
8.08456e-20 0.009123 0.02 0.0257876
-2.05104e-29 -0.013377 0.0174821 0.0253047
-9.67075e-20 -0.013377 0.0175 0.0253047
-1.0842e-19 0.020373 0.00865601 0.0260667
0 -0.020877 0.00736572 0.0251644
0 0.021623 0.00479858 0.0260989
0 -0.022127 0.00116943 0.0251377
3.23117e-27 -0.018377 0.0124878 0.0252101
-1.0842e-19 -0.012127 0.01875 0.0253288
-1.0842e-19 0.015373 0.0162494 0.0259401
0 0.016623 0.0149988 0.0259717
0 -0.022127 0.00356872 0.0251415
-1.0842e-19 -0.007127 0.02125 0.0254286
-1.41995e-28 0.014123 0.0174909 0.0259088
0 0.014123 0.0175 0.0259088
3.28979e-21 -0.000877 0.0225 0.0255604
-2.1684e-19 0.017873 0.0137433 0.0260033
-9.67102e-20 0.001623 0.0225 0.025615
2.1684e-19 -0.019627 0.011217 0.0251868
0 0.007873 0.02125 0.0257574
-1.0842e-19 0.012873 0.01875 0.0258774
-9.67102e-20 -0.003377 0.0225 0.0255066
-1.91544e-20 -0.010877 0.02 0.0253529
0 0.019123 0.0124878 0.0260346
-1.03398e-25 0.021623 0.00736572 0.0260983
-9.67102e-20 0.004123 0.0225 0.0256708
-2.1684e-19 0.022873 0.00116944 0.0261277
0 -0.022127 0.00608215 0.0251408
0 -0.020877 0.00994629 0.0251641
8.08456e-20 0.011623 0.02 0.0258467
0 0.022873 0.00356872 0.0261316
8.08456e-20 -0.005877 0.0225 0.0254538
0 0.020373 0.011217 0.0260659
-1.0842e-19 -0.009627 0.02125 0.0253772
0 -0.023377 8.82567e-09 0.0251148
3.28979e-21 0.006623 0.0225 0.0257278
6.46421e-20 -0.023377 0.00233887 0.0251167
-1.0842e-19 -0.017127 0.0162494 0.0252323
1.57772e-30 -0.015877 0.017484 0.0252558
0 -0.015877 0.0175 0.0252558
1.0842e-19 0.010373 0.02125 0.0258159
1.0842e-19 0.022873 0.00608215 0.02613
2.01948e-28 -0.018377 0.0149988 0.0252091
0 0.000373 0.02375 0.0255866
-1.0842e-19 -0.022127 0.008656 0.0251415
0 -0.014627 0.01875 0.0252794
0 0.021623 0.00994629 0.0260982
1.0842e-19 -0.002127 0.02375 0.0255325
3.23117e-27 -0.023377 0.00477594 0.0251183
0 -0.023377 0.00479858 0.0251183
-1.0842e-19 0.002873 0.02375 0.0256417
1.0842e-19 -0.019627 0.0137433 0.025186
8.08456e-20 -0.008377 0.0225 0.025402
-3.23117e-27 -0.0235629 0.00479858 0.0251149
3.28979e-21 -0.013377 0.02 0.0253032
0 0.024123 1.1328e-08 0.0261601
-5.6798e-29 0.016623 0.0174918 0.0259703
8.08524e-20 0.016623 0.0175 0.0259703
0 0.017873 0.0162494 0.0260022
-1.0842e-19 -0.004627 0.02375 0.0254791
0 0.024123 0.00233888 0.0261621
1.0842e-19 0.015373 0.01875 0.0259384
-9.67102e-20 0.009123 0.0225 0.0257857
-4.03897e-28 0.019123 0.0149988 0.0260341
-3.23117e-27 -0.020877 0.0124878 0.0251631
1.0842e-19 0.005373 0.02375 0.0256982
1.0842e-19 0.022873 0.008656 0.0261304
0 -0.012127 0.02125 0.0253268
-9.67102e-20 0.014123 0.02 0.025907
0 -0.023377 0.00736572 0.0251183
-1.0842e-19 0.020373 0.0137433 0.0260661
0 0.024123 0.00479858 0.0261632
0 -0.024627 0.00116943 0.025092
1.0842e-19 -0.007127 0.02375 0.0254267
1.0842e-19 -0.022127 0.011217 0.0251403
-1.0842e-19 0.012873 0.02125 0.0258756
0 -0.024627 0.00356872 0.0250957
0 0.021623 0.0124878 0.0260979
-9.67102e-20 -0.010877 0.0225 0.0253513
3.28979e-21 -0.000877 0.025 0.0255587
-1.0842e-19 0.007873 0.02375 0.0257555
3.28979e-21 0.001623 0.025 0.0256133
0 0.024123 0.00736572 0.0261625
-9.67102e-20 -0.003377 0.025 0.025505
-9.67102e-20 0.011623 0.0225 0.0258449
3.28979e-21 0.004123 0.025 0.0256691
5.20648e-29 -0.018377 0.0174852 0.0252078
0 -0.024627 0.00608215 0.0250952
1.58405e-19 -0.018377 0.0175 0.0252078
-1.0842e-19 -0.017127 0.01875 0.0252309
0 0.025373 0.00116944 0.0261926
0 -0.023377 0.00994629 0.025118
1.0842e-19 0.022873 0.011217 0.0261297
1.0842e-19 -0.019627 0.0162494 0.0251847
8.08456e-20 -0.015877 0.02 0.0252543
0 0.025373 0.00356873 0.0261966
0 -0.009627 0.02375 0.0253756
8.08456e-20 -0.005877 0.025 0.0254523
0 -0.020877 0.0149988 0.0251621
-1.0842e-19 -0.014627 0.02125 0.0252777
-9.67102e-20 0.006623 0.025 0.025726
0 -0.025877 9.27243e-09 0.0250696
1.0842e-19 0.017873 0.01875 0.0260004
1.0842e-19 0.010373 0.02375 0.0258141
-1.57772e-30 0.019123 0.0174929 0.0260328
0 0.019123 0.0175 0.0260328
-3.41419e-21 -0.025877 0.00233887 0.0250714
3.28979e-21 0.016623 0.02 0.0259684
1.0842e-19 -0.022127 0.0137433 0.0251395
0 0.020373 0.0162494 0.0260651
1.0842e-19 0.025373 0.00608215 0.0261948
0 0.024123 0.00994629 0.0261624
0 -0.024627 0.00865601 0.0250958
-9.67102e-20 -0.013377 0.0225 0.0253016
0 0.015373 0.02125 0.0259364
0 0.000373 0.02625 0.0255849
-8.07794e-28 0.021623 0.0149988 0.0260975
0 -0.025877 0.00479858 0.025073
0 -0.002127 0.02625 0.0255308
8.08456e-20 -0.008377 0.025 0.0254005
0 0.002873 0.02625 0.0256399
0 -0.023377 0.0124878 0.025117
0 0.014123 0.0225 0.0259051
-9.67102e-20 0.009123 0.025 0.0257839
-1.03398e-25 0.026623 3.76043e-10 0.0262256
1.0842e-19 -0.004627 0.02625 0.0254777
0 -0.012127 0.02375 0.0253256
-1.0842e-19 0.022873 0.0137433 0.02613
8.27181e-25 0.026623 0.00233887 0.0262275
6.46235e-27 -0.025877 0.00674512 0.025073
-1.0842e-19 0.005373 0.02625 0.0256964
1.0842e-19 0.025373 0.008656 0.0261951
0 -0.025877 0.00736572 0.025073
-1.0842e-19 0.012873 0.02375 0.0258739
0 0.026623 0.00479858 0.0262286
0 -0.024627 0.011217 0.0250946
0 -0.019627 0.01875 0.0251834
-1.0842e-19 -0.027127 0.00116943 0.0250471
8.08456e-20 -0.018377 0.02 0.0252063
0 0.024123 0.0124878 0.0261622
1.0842e-19 -0.007127 0.02625 0.0254255
0 -0.020877 0.0174855 0.0251608
0 -0.020877 0.0175 0.0251608
3.28979e-21 -0.010877 0.025 0.0253498
0 -0.017127 0.02125 0.0252293
0 -0.027127 0.00356873 0.0250508
1.0842e-19 0.007873 0.02625 0.0257538
-2.1684e-19 -0.022127 0.0162494 0.0251382
6.45119e-20 -0.000877 0.0275 0.0255572
3.28979e-21 -0.015877 0.0225 0.0252527
4.41762e-29 -0.000877 0.0275314 0.0255571
3.28979e-21 0.001623 0.0275 0.0256117
8.08456e-20 0.011623 0.025 0.025843
1.57772e-30 0.001623 0.0275281 0.0256117
0 0.026623 0.00736572 0.0262278
-9.67102e-20 0.019123 0.02 0.0260308
0 0.020373 0.01875 0.0260634
3.28979e-21 -0.003377 0.0275 0.0255036
-6.46235e-27 -0.025877 0.00994629 0.0250726
-1.02552e-28 -0.003377 0.0275189 0.0255035
-1.0842e-19 0.025373 0.011217 0.0261944
0 0.017873 0.02125 0.0259983
0 -0.023377 0.0149988 0.0251159
-2.1684e-19 -0.027127 0.00608215 0.0250503
8.08474e-20 0.004123 0.0275 0.0256675
-2.22459e-28 0.021623 0.0174934 0.0260962
-1.57772e-30 0.021623 0.0175 0.0260962
6.94198e-29 0.004123 0.0275277 0.0256675
1.0842e-19 -0.014627 0.02375 0.0252763
1.0842e-19 0.027873 0.00116944 0.0262586
-1.0842e-19 -0.009627 0.02625 0.0253741
-9.67102e-20 0.016623 0.0225 0.0259663
1.0842e-19 0.022873 0.0162494 0.026129
2.1684e-19 0.027873 0.00356873 0.0262626
-9.67102e-20 -0.005877 0.0275 0.0254508
-2.44547e-28 -0.005877 0.02751 0.0254508
-2.1684e-19 -0.024627 0.0137433 0.0250938
-1.0842e-19 0.010373 0.02625 0.0258123
-1.91544e-20 0.006623 0.0275 0.0257244
0 0.015373 0.02375 0.0259344
5.36425e-29 0.006623 0.0275385 0.0257244
-3.54881e-20 -0.013377 0.025 0.0253001
0 -0.028377 9.16174e-09 0.0250252
8.07794e-28 0.024123 0.0149988 0.0261619
-5.16988e-26 0.026623 0.00994629 0.0262275
-1.82522e-20 -0.028377 0.00233887 0.025027
1.0842e-19 -0.027127 0.008656 0.0250507
0 0.027873 0.00608215 0.0262606
8.08456e-20 0.014123 0.025 0.0259031
1.61559e-27 -0.025877 0.0124878 0.0250717
8.08456e-20 -0.008377 0.0275 0.025399
0 0.000373 0.0287506 0.0255834
-1.41995e-29 -0.008377 0.0275072 0.025399
-1.23021e-20 -0.028377 0.00479858 0.0250286
-2.1684e-19 -0.002127 0.0287506 0.0255295
1.0842e-19 0.025373 0.0137433 0.0261948
1.0842e-19 0.002873 0.0287506 0.0256385
8.08456e-20 -0.020877 0.02 0.0251594
0 -0.012127 0.02625 0.0253239
0 -0.019627 0.02125 0.0251818
8.08456e-20 0.009123 0.0275 0.0257823
0 -0.022127 0.01875 0.0251369
-3.15544e-30 0.009123 0.0275426 0.0257823
8.08456e-20 -0.018377 0.0225 0.0252047
0 -0.004627 0.0287506 0.0254762
-3.30872e-24 0.029123 1.5623e-08 0.0262921
0 0.027873 0.008656 0.0262608
-4.73317e-30 -0.023377 0.0174839 0.0251147
3.29323e-21 -0.023377 0.0175 0.0251147
-8.27181e-25 0.029123 0.00233888 0.0262941
-1.0842e-19 0.012873 0.02625 0.0258718
0 0.005373 0.0287506 0.025695
0 -0.028377 0.00720803 0.0250285
0 -0.017127 0.02375 0.0252276
-3.23117e-27 -0.028377 0.00736572 0.0250285
0 -0.027127 0.011217 0.0250497
-2.86783e-20 0.026623 0.0124878 0.0262274
1.0842e-19 0.020373 0.02125 0.0260611
-9.67102e-20 0.021623 0.02 0.0260942
1.0842e-19 -0.024627 0.0162494 0.0250924
4.1359e-25 0.029123 0.00479858 0.0262951
8.08456e-20 0.019123 0.0225 0.0260286
-9.67102e-20 -0.010877 0.0275 0.0253483
1.0842e-19 0.022873 0.01875 0.0261274
-1.15174e-28 -0.010877 0.027507 0.0253483
-3.54881e-20 -0.015877 0.025 0.0252512
0 -0.007127 0.0287506 0.0254238
0 -0.029627 0.00116943 0.0250032
0 0.017873 0.02375 0.025996
-3.97586e-28 0.024123 0.0174941 0.0261606
2.1684e-19 0.007873 0.0287506 0.0257524
1.0842e-19 -0.029627 0.00356872 0.0250069
8.08456e-20 0.011623 0.0275 0.0258412
-2.20881e-29 0.011623 0.0275283 0.0258412
-2.01948e-28 -0.025877 0.0149988 0.0250706
0 -0.000877 0.0300012 0.0255558
8.08456e-20 0.016623 0.025 0.0259642
0 0.029123 0.00736572 0.0262941
1.00974e-28 0.001623 0.0300012 0.0256103
-1.0842e-19 0.027873 0.011217 0.02626
0 -0.014627 0.02625 0.0252747
3.23117e-27 -0.028377 0.00994629 0.0250282
0 0.025373 0.0162494 0.0261938
2.01948e-28 -0.003377 0.0300012 0.0255022
-2.1684e-19 -0.029627 0.00608215 0.0250063
0 0.004123 0.0300012 0.025666
1.0842e-19 -0.009627 0.0287506 0.0253727
0 0.030373 0.00116944 0.0263257
0 -0.027127 0.0137433 0.0250488
0 0.015373 0.02625 0.0259324
0 0.026623 0.0149988 0.0262272
0 0.010373 0.0287506 0.0258107
4.03897e-28 -0.005877 0.0300012 0.0254494
3.28979e-21 -0.013377 0.0275 0.0252986
1.0842e-19 0.030373 0.00356873 0.0263298
3.21855e-28 -0.013377 0.0275077 0.0252986
1.0842e-19 -0.022127 0.02125 0.0251355
-9.67102e-20 -0.020877 0.0225 0.0251579
0 0.006623 0.0300012 0.0257229
-3.54881e-20 -0.023377 0.02 0.0251134
-1.05945e-19 0.029123 0.00994629 0.0262937
0 -0.019627 0.02375 0.0251802
0 -0.029627 0.008656 0.0250067
0 -0.030877 9.3525e-09 0.0249816
1.58401e-19 0.014123 0.0275 0.0259012
-2.36658e-29 0.014123 0.0275229 0.0259012
1.0842e-19 -0.024627 0.01875 0.0250913
5.07041e-20 -0.030877 0.00233887 0.0249835
-1.0842e-19 0.030373 0.00608215 0.0263276
-8.07794e-28 -0.028377 0.0124878 0.0250272
8.08456e-20 -0.018377 0.025 0.0252033
1.0842e-19 0.027873 0.0137433 0.0262604
0 -0.008377 0.0300012 0.0253977
0 -0.012127 0.0287506 0.0253226
3.28979e-21 0.021623 0.0225 0.0260919
1.0842e-19 0.022873 0.02125 0.0261249
4.73317e-30 -0.025877 0.0174781 0.0250694
3.28979e-21 -0.025877 0.0175 0.0250693
-3.88346e-21 -0.030877 0.00479858 0.0249851
1.0842e-19 0.000373 0.0312567 0.0255821
0 0.020373 0.02375 0.0260589
0 -0.002127 0.0312567 0.0255281
-3.54881e-20 0.024123 0.02 0.0261586
1.0842e-19 -0.017127 0.02625 0.0252263
0 0.009123 0.0300012 0.0257807
0 0.002873 0.0312567 0.0256371
8.08456e-20 0.019123 0.025 0.0260264
0 0.012873 0.0287506 0.0258701
1.0842e-19 0.025373 0.01875 0.0261921
1.0842e-19 0.030373 0.00865601 0.0263275
-1.0842e-19 -0.004627 0.0312567 0.025475
0 -0.027127 0.0162494 0.0250474
3.30872e-24 0.031623 1.5812e-08 0.0263597
6.46235e-27 -0.030877 0.00690572 0.024985
0 -0.029627 0.011217 0.0250057
0 0.029123 0.0124878 0.0262935
0 0.031623 0.00233888 0.0263618
0 0.005373 0.0312567 0.0256935
6.46235e-27 -0.030877 0.00736572 0.024985
3.29719e-21 -0.015877 0.0275 0.0252498
1.0842e-19 0.017873 0.02625 0.0259942
1.08863e-28 -0.015877 0.0275076 0.0252498
-3.10811e-28 0.026623 0.017495 0.0262259
0 -0.010877 0.0300012 0.025347
4.1359e-25 0.031623 0.00479858 0.0263626
2.1684e-19 -0.007127 0.0312567 0.0254228
1.00974e-28 -0.028377 0.0149988 0.0250262
-1.91544e-20 0.016623 0.0275 0.0259622
1.0842e-19 -0.032127 0.00116943 0.02496
1.26218e-29 0.016623 0.0275317 0.0259622
-2.01948e-28 0.011623 0.0300012 0.0258395
-1.0842e-19 0.007873 0.0312567 0.0257507
1.0842e-19 -0.014627 0.0287506 0.0252734
0 0.027873 0.0162494 0.0262598
0 -0.032127 0.00356872 0.0249638
2.1684e-19 0.030373 0.011217 0.0263266
0 -0.030877 0.00994629 0.0249847
6.45119e-20 -0.023377 0.0225 0.0251119
0 -0.022127 0.02375 0.0251339
2.06795e-25 0.031623 0.00736572 0.0263614
0 -0.000877 0.0325122 0.0255545
0 -0.024627 0.02125 0.0250897
0 0.001623 0.0325122 0.025609
1.58401e-19 -0.020877 0.025 0.0251564
0 0.015373 0.0287506 0.0259304
-1.0842e-19 -0.029627 0.0137433 0.0250048
0 -0.003377 0.0325122 0.0255009
-1.0842e-19 -0.032127 0.00608215 0.0249632
-3.54881e-20 -0.025877 0.02 0.0250681
0 -0.009627 0.0312567 0.0253715
0 0.029123 0.0149988 0.0262935
0 0.004123 0.0325122 0.0256647
1.0842e-19 -0.019627 0.02625 0.025179
4.03897e-28 -0.013377 0.0300012 0.0252974
1.0842e-19 0.032873 0.00116944 0.0263938
0 0.010373 0.0312567 0.025809
-1.0842e-19 0.022873 0.02375 0.0261227
0 -0.027127 0.01875 0.0250463
3.28979e-21 0.024123 0.0225 0.0261562
6.46235e-27 -0.005877 0.0325122 0.0254482
-1.91544e-20 0.021623 0.025 0.0260896
-1.0842e-19 0.032873 0.00356873 0.0263979
8.08456e-20 -0.018377 0.0275 0.025202
-5.04871e-29 -0.018377 0.0275066 0.025202
1.0842e-19 0.025373 0.02125 0.0261898
6.46235e-27 -0.0327499 0.00479858 0.024953
0 0.031623 0.00994629 0.0263607
0 0.014123 0.0300012 0.0258994
0 0.006623 0.0325122 0.0257214
0 0.020373 0.02625 0.0260567
0 -0.032127 0.008656 0.0249637
-1.13044e-19 0.026623 0.02 0.0262239
8.07794e-28 -0.030877 0.0124878 0.0249837
-3.15544e-30 -0.028377 0.0174662 0.025025
-1.0842e-19 0.030373 0.0137433 0.0263272
0 -0.028377 0.0175 0.025025
0 -0.033377 9.04343e-09 0.0249389
1.0842e-19 0.032873 0.00608215 0.0263953
-8.05953e-20 -0.033377 0.00233887 0.0249407
0 -0.017127 0.0287506 0.025225
-1.91544e-20 0.019123 0.0275 0.0260243
0 -0.012127 0.0312567 0.0253214
-6.46235e-27 -0.008377 0.0325122 0.0253965
1.0842e-19 0.027873 0.01875 0.0262579
1.29247e-26 -0.033377 0.00469116 0.0249422
0 -0.033377 0.00479858 0.0249423
0 0.009123 0.0325122 0.0257792
2.1684e-19 0.000373 0.0337829 0.025581
1.0842e-19 -0.029627 0.0162494 0.0250037
0 0.012873 0.0312567 0.0258683
0 -0.002127 0.0337829 0.025527
-1.0842e-19 0.017873 0.0287506 0.0259919
1.0842e-19 0.002873 0.0337829 0.025636
0 -0.015877 0.0300012 0.0252486
-2.20881e-29 0.029123 0.0174956 0.0262923
0 0.032873 0.008656 0.0263951
0 0.031623 0.0124878 0.0263605
2.1684e-19 -0.032127 0.011217 0.0249626
-1.0842e-19 -0.004627 0.033783 0.0254738
0 0.034123 1.53068e-08 0.0264284
0 0.019123 0.0282958 0.0260237
0 -0.033377 0.00736572 0.0249423
0 0.034123 0.00233888 0.0264304
-2.1684e-19 0.005373 0.0337829 0.0256922
0 -0.024627 0.02375 0.0250883
-1.57772e-30 -0.023377 0.025 0.0251105
0 -0.010877 0.0325122 0.0253459
3.28979e-21 -0.025877 0.0225 0.0250667
0 0.016623 0.0300012 0.0259603
0 -0.030877 0.0149988 0.0249827
-1.0842e-19 -0.022127 0.02625 0.0251325
-1.0842e-19 0.030373 0.0162494 0.0263266
4.1359e-25 0.034123 0.00479858 0.0264311
0 -0.027127 0.02125 0.025045
1.0842e-19 -0.014627 0.0312567 0.0252722
0 -0.007127 0.0337829 0.0254214
3.9443e-29 -0.020877 0.027506 0.0251551
0 0.011623 0.0325122 0.0258379
-1.0842e-19 -0.034627 0.00116943 0.0249177
0 0.007873 0.0337829 0.0257494
-1.91544e-20 -0.028377 0.02 0.0250238
-1.0842e-19 0.032873 0.011217 0.0263939
-1.91544e-20 0.024123 0.025 0.0261538
0 0.025373 0.02375 0.0261874
1.0842e-19 -0.034627 0.00356872 0.0249214
0 -0.019627 0.0287506 0.0251777
0 0.022873 0.02625 0.0261201
-6.46235e-27 -0.033377 0.00994629 0.024942
2.1684e-19 0.015373 0.0312567 0.0259287
6.45119e-20 0.026623 0.0225 0.0262215
-2.06795e-25 0.034123 0.00736572 0.0264296
1.0842e-19 -0.032127 0.0137433 0.0249618
1.58401e-19 0.021623 0.0275 0.0260874
-8.07794e-28 0.031623 0.0149988 0.0263605
-1.0842e-19 0.027873 0.02125 0.0262557
0 -0.029627 0.01875 0.0250026
-6.46235e-27 -0.000877 0.0350537 0.0255534
0 0.001623 0.0350537 0.0256079
-1.0842e-19 -0.009627 0.0337829 0.0253703
-6.46235e-27 -0.013377 0.0325122 0.0252962
1.0842e-19 -0.034627 0.00608215 0.0249208
0 -0.018377 0.0300012 0.0252008
-1.29247e-26 -0.003377 0.0350537 0.0254999
1.0842e-19 0.020373 0.0287506 0.0260544
6.46235e-27 0.004123 0.0350537 0.0256636
-9.67102e-20 0.029123 0.02 0.0262902
-3.25261e-19 0.010373 0.033783 0.0258076
1.0842e-19 0.035373 0.00116944 0.026463
0 0.014123 0.0325122 0.0258978
3.15544e-30 -0.030877 0.0174649 0.0249817
-1.91544e-20 -0.030877 0.0175 0.0249816
0 -0.005877 0.0350537 0.0254472
-5.16988e-26 0.034123 0.00994629 0.0264286
0 0.035373 0.00356873 0.026467
0 0.019123 0.0300012 0.0260224
-3.15544e-30 0.0191872 0.0300012 0.026024
0 0.032873 0.0137433 0.0263946
0 -0.033377 0.0124878 0.024941
-1.0842e-19 -0.017127 0.0312567 0.0252239
0 0.006623 0.0350537 0.0257203
0 -0.034627 0.008656 0.0249214
-1.0842e-19 0.030373 0.01875 0.0263248
-1.65436e-24 -0.035877 8.28686e-09 0.024897
1.0842e-19 0.035373 0.00608215 0.0264644
0 -0.012127 0.0337829 0.0253203
1.3128e-19 -0.035877 0.00233887 0.0248988
-9.67102e-20 -0.025877 0.025 0.0250653
1.0842e-19 -0.024627 0.02625 0.025087
0 -0.032127 0.0162494 0.0249607
0 0.017873 0.0312567 0.0259903
0 -0.008377 0.0350537 0.0253955
0 -0.027127 0.02375 0.0250436
-9.67102e-20 -0.023377 0.0275 0.0251092
-1.34106e-28 -0.023377 0.0275062 0.0251091
2.58494e-26 -0.035877 0.00401222 0.0248999
4.41762e-29 0.031623 0.0174955 0.0263594
2.1684e-19 0.012873 0.0337829 0.0258669
-6.46235e-27 -0.015877 0.0325122 0.0252475
-5.16988e-26 -0.035877 0.00479858 0.0249004
5.84013e-20 -0.028377 0.0225 0.0250224
6.46235e-27 0.009123 0.0350537 0.025778
-1.0842e-19 -0.022127 0.0287506 0.0251313
1.29247e-26 0.034123 0.0124878 0.0264283
1.0842e-19 0.000373 0.036344 0.0255799
0 -0.034627 0.011217 0.0249202
0 -0.002127 0.036344 0.025526
0 0.035373 0.008656 0.0264635
-1.0842e-19 0.002873 0.036344 0.025635
-1.0842e-19 -0.029627 0.02125 0.0250012
-1.0842e-19 0.025373 0.02625 0.026185
-1.61559e-27 0.016623 0.0325122 0.0259587
8.08456e-20 0.026623 0.025 0.026219
-8.07794e-28 -0.020877 0.0300012 0.0251539
5.84013e-20 0.024123 0.0275 0.0261516
2.01948e-28 -0.033377 0.0149988 0.0249401
-1.0842e-19 0.027873 0.02375 0.026253
0 0.036623 1.42897e-08 0.0264982
0 -0.035877 0.00736572 0.0249004
-1.0842e-19 -0.004627 0.036344 0.025473
0 0.032873 0.0162494 0.0263939
-8.27181e-25 0.036623 0.00233888 0.0265001
0 -0.010877 0.0350537 0.0253449
-2.1684e-19 0.005373 0.036344 0.0256913
-1.0842e-19 0.022873 0.0287506 0.0261181
5.84013e-20 -0.030877 0.02 0.0249804
3.28979e-21 0.029123 0.0225 0.0262877
0 -0.014627 0.0337829 0.0252712
1.0842e-19 -0.019627 0.0312567 0.0251766
0 0.011623 0.0350537 0.0258367
0 0.036623 0.00479858 0.0265008
-8.67886e-20 0.021623 0.0300012 0.0260854
0 -0.007127 0.036344 0.0254208
0 0.030373 0.02125 0.0263224
-1.0842e-19 0.035373 0.011217 0.0264622
0 0.015373 0.0337829 0.0259272
0 -0.037127 0.00116943 0.0248762
0 0.007873 0.036344 0.0257484
-1.0842e-19 -0.032127 0.01875 0.0249596
-1.29247e-26 -0.035877 0.00994629 0.0249001
1.0842e-19 -0.034627 0.0137433 0.0249195
0 0.034123 0.0149988 0.0264282
1.0842e-19 -0.037127 0.00356872 0.0248799
0 0.020373 0.0312567 0.0260528
6.46235e-27 -0.018377 0.0325122 0.0251997
0 0.036623 0.00736572 0.0264989
5.84013e-20 0.031623 0.02 0.0263574
-5.16988e-26 -0.013377 0.0350537 0.0252954
-1.0842e-19 -0.009627 0.036344 0.0253696
-1.0842e-19 -0.037127 0.00608215 0.0248794
0 -0.000877 0.0376343 0.0255527
0 0.001623 0.0376343 0.0256072
3.15544e-30 -0.033377 0.0174789 0.024939
-1.91544e-20 -0.033377 0.0175 0.0249389
0 0.019123 0.0325122 0.0260207
0 -0.027127 0.02625 0.0250422
3.28979e-21 -0.025877 0.0275 0.025064
1.41995e-28 -0.025877 0.027507 0.025064
-5.16988e-26 -0.003377 0.0376343 0.0254993
1.29247e-26 0.014123 0.0350537 0.0258965
-1.0842e-19 0.010373 0.036344 0.0258065
5.84013e-20 -0.028377 0.025 0.025021
1.0842e-19 0.032873 0.01875 0.0263925
0 -0.024627 0.0287506 0.0250858
0 0.004123 0.0376343 0.0256629
0 -0.017127 0.0337829 0.0252229