# pMean  POINT_DATA 26799
# x  y  z  pMean
-5.92878e-09 0 0 0.0255833
0.000876986 5.42101e-20 0 0.025529
-0.000876991 -5.42101e-20 0 0.0256372
0.001623 1.0842e-19 0 0.0254828
-0.00162301 -5.42101e-20 0 0.0256828
0.00125 -9.03502e-21 0.00116943 0.0255061
-0.00125 9.03502e-21 0.00116944 0.0256603
8.56612e-10 1.0842e-19 0.00233887 0.0255852
-0.00249999 0 0 0.0257364
0.0025 1.0842e-19 0 0.0254282
-0.00337698 0 0 0.0257896
0.003377 1.0842e-19 0 0.0253732
-0.0025 -1.0842e-19 0.00233887 0.0257384
0.0025 0 0.00233887 0.0254301
-0.00125 1.807e-20 0.00356872 0.0256637
0.00125 9.03502e-21 0.00356872 0.0255095
-0.00375 0 0.00116943 0.0258124
0.00375 -2.71051e-20 0.00116943 0.02535
-0.004123 -5.42101e-20 0 0.0258347
0.004123 5.42101e-20 0 0.0253263
1.02013e-09 -1.0842e-19 0.00479858 0.0255867
-0.00499999 -1.0842e-19 0 0.0258875
0.00500001 1.0842e-19 0 0.0252709
-0.00375 -1.807e-20 0.00356872 0.0258158
0.00375 -5.42101e-20 0.00356872 0.0253533
0.0025 1.0842e-19 0.00479858 0.0254315
-0.0025 -1.0842e-19 0.00479858 0.0257399
-0.005 1.0842e-19 0.00233887 0.0258895
0.00500001 1.0842e-19 0.00233887 0.0252729
-0.00587699 -1.0842e-19 0 0.0259401
0.00587702 5.42101e-20 0 0.0252152
-0.00125 0 0.00608215 0.025663
0.00125 0 0.00608215 0.0255088
-0.00625 -3.61401e-20 0.00116943 0.0259625
0.00625001 -3.61401e-20 0.00116944 0.0251917
0.006623 0 0 0.0251676
-0.006623 5.42101e-20 0 0.0259845
0.005 1.0842e-19 0.00479858 0.0252743
-0.005 -1.0842e-19 0.00479858 0.025891
-0.00375 1.807e-20 0.00608215 0.0258152
0.00375 3.61401e-20 0.00608215 0.0253526
-0.00625 1.807e-20 0.00356872 0.0259659
0.00625 4.51751e-20 0.00356873 0.025195
5.20266e-10 1.0842e-19 0.00736572 0.0255863
0.00750001 1.0842e-19 0 0.0251114
-0.00750001 1.0842e-19 0 0.0260366
0.0025 1.0842e-19 0.00736572 0.0254311
-0.0025 1.0842e-19 0.00736572 0.0257396
-0.0075 1.0842e-19 0.00233887 0.0260385
0.00750001 1.0842e-19 0.00233887 0.0251134
-0.00837701 0 0 0.0260883
0.00837702 5.42101e-20 0 0.0250549
-0.00625 0 0.00608215 0.0259653
0.00625 -1.807e-20 0.00608215 0.0251943
-0.00125 0 0.008656 0.0256632
0.00125 -1.807e-20 0.008656 0.025509
-0.00875 9.03502e-21 0.00116944 0.0261105
0.00875 1.807e-20 0.00116944 0.025031
0.005 1.0842e-19 0.00736572 0.0252739
-0.005 1.0842e-19 0.00736572 0.0258907
0.0075 1.0842e-19 0.00479858 0.0251148
-0.0075 1.0842e-19 0.00479858 0.02604
0.00912299 -5.42101e-20 0 0.0250066
-0.009123 0 0 0.0261322
-0.00375 0 0.008656 0.0258155
0.00375 1.807e-20 0.008656 0.0253528
-0.00875 -9.03502e-21 0.00356873 0.0261138
0.00875 0 0.00356873 0.0250344
1.71243e-10 1.0842e-19 0.00994629 0.0255859
-0.01 -1.0842e-19 0 0.0261835
0.01 -1.0842e-19 0 0.0249496
0.0025 1.0842e-19 0.00994629 0.0254307
-0.0025 1.0842e-19 0.00994629 0.0257392
-0.01 -1.0842e-19 0.00233887 0.0261854
0.01 1.0842e-19 0.00233887 0.0249516
0.0075 1.0842e-19 0.00736572 0.0251144
-0.0075 1.0842e-19 0.00736572 0.0260397
-0.00875 4.51751e-20 0.00608215 0.0261132
0.00875 0 0.00608215 0.0250336
-0.00625 -1.807e-20 0.008656 0.0259655
0.00625 0 0.008656 0.0251945
0.010877 1.0842e-19 0 0.0248923
-0.010877 1.0842e-19 0 0.0262346
0.01 1.0842e-19 0.00479858 0.024953
-0.01 1.0842e-19 0.00479858 0.0261869
0.005 1.0842e-19 0.00994629 0.0252734
-0.005 1.0842e-19 0.00994629 0.0258903
-0.00125 -1.807e-20 0.011217 0.0256621
0.00125 0 0.011217 0.0255079
-0.01125 9.03502e-21 0.00116944 0.0262565
0.01125 -3.61401e-20 0.00116944 0.0248681
-0.011623 -1.0842e-19 0 0.0262778
0.011623 1.0842e-19 0 0.0248434
-0.01125 0 0.00356873 0.0262597
0.01125 1.807e-20 0.00356873 0.0248716
0.00375 -1.807e-20 0.011217 0.0253517
-0.00375 1.807e-20 0.011217 0.0258143
-0.00875 0 0.008656 0.0261134
0.00875 3.61401e-20 0.008656 0.0250338
0.01 1.0842e-19 0.00736572 0.0249526
-0.01 1.0842e-19 0.00736572 0.0261866
0.0075 1.0842e-19 0.00994629 0.0251139
-0.0075 1.0842e-19 0.00994629 0.0260392
3.3838e-11 1.0842e-19 0.0124878 0.0255849
-0.0125 -1.0842e-19 0 0.0263285
0.0125 -1.0842e-19 0 0.0247855
-0.0125 0 0.00233887 0.0263304
0.0125 1.0842e-19 0.00233887 0.0247876
0.0025 1.0842e-19 0.0124878 0.0254297
-0.0025 1.0842e-19 0.0124878 0.0257382
-0.01125 0 0.00608215 0.0262591
0.01125 0 0.00608215 0.0248707
0.00625 -1.807e-20 0.011217 0.0251934
-0.00625 0 0.011217 0.0259644
0.013377 1.0842e-19 0 0.0247273
-0.013377 0 0 0.0263788
0.0125 1.0842e-19 0.00479858 0.024789
-0.0125 1.0842e-19 0.00479858 0.0263318
0.005 1.0842e-19 0.0124878 0.0252725
-0.005 1.0842e-19 0.0124878 0.0258893
-0.01375 1.807e-20 0.00116944 0.0264004
0.01375 -1.807e-20 0.00116944 0.0247028
-0.00125 1.807e-20 0.0137433 0.0256614
0.00125 0 0.0137433 0.0255071
0.01 1.0842e-19 0.00994629 0.0249521
-0.01 1.0842e-19 0.00994629 0.0261862
-0.014123 1.6263e-19 0 0.0264215
0.014123 1.0842e-19 0 0.0246777
0.01125 -1.807e-20 0.008656 0.0248709
-0.01125 -1.807e-20 0.008656 0.0262594
-0.01375 0 0.00356873 0.0264037
0.01375 1.807e-20 0.00356873 0.0247064
0.00875 -1.807e-20 0.011217 0.0250326
-0.00875 -1.807e-20 0.011217 0.0261123
0.00375 -1.807e-20 0.0137433 0.025351
-0.00375 0 0.0137433 0.0258136
0.0125 1.0842e-19 0.00736572 0.0247885
-0.0125 1.0842e-19 0.00736572 0.0263316
0.0075 1.0842e-19 0.0124878 0.025113
-0.0075 1.0842e-19 0.0124878 0.0260383
3.02741e-12 1.0842e-19 0.0149988 0.025584
-0.015 -1.0842e-19 0 0.0264715
0.015 -1.0842e-19 0 0.0246191
0.01375 1.807e-20 0.00608215 0.0247055
-0.01375 -9.03502e-21 0.00608215 0.0264031
-0.00625 3.61401e-20 0.0137433 0.0259636
0.00625 0 0.0137433 0.0251927
0.015 1.0842e-19 0.00233887 0.0246211
-0.015 -1.0842e-19 0.00233887 0.0264733
0.0025 1.0842e-19 0.0149988 0.0254287
-0.0025 1.0842e-19 0.0149988 0.0257373
0.015 1.0842e-19 0.00479858 0.0246226
-0.015 -1.0842e-19 0.00479858 0.0264748
0.005 1.0842e-19 0.0149988 0.0252715
-0.005 1.0842e-19 0.0149988 0.0258884
0.015877 -5.42101e-20 0 0.0245601
-0.015877 1.6263e-19 0 0.0265212
-0.01125 -1.807e-20 0.011217 0.0262582
0.01125 3.61401e-20 0.011217 0.0248698
0.0125 1.0842e-19 0.00994629 0.0247881
-0.0125 1.0842e-19 0.00994629 0.0263311
0.01 1.0842e-19 0.0124878 0.0249512
-0.01 1.0842e-19 0.0124878 0.0261852
0.01375 0 0.008656 0.0247056
-0.01375 1.807e-20 0.00865601 0.0264034
-0.01625 0 0.00116944 0.0265425
0.01625 -9.03502e-21 0.00116944 0.0245352
0.00875 1.807e-20 0.0137433 0.0250321
-0.00875 3.61401e-20 0.0137433 0.0261115
-0.00125 0 0.0162494 0.0256602
0.00125 0 0.0162494 0.0255059
-0.016623 0 0 0.0265633
0.016623 0 0 0.0245097
0.01625 9.03502e-21 0.00356873 0.0245387
-0.01625 -9.03502e-21 0.00356873 0.0265456
-0.00375 0 0.0162494 0.0258124
0.00375 0 0.0162494 0.0253497
0.015 1.0842e-19 0.00736572 0.0246221
-0.015 1.0842e-19 0.00736572 0.0264745
0.0075 1.0842e-19 0.0149988 0.025112
-0.0075 1.0842e-19 0.0149988 0.0260373
0.01625 -1.807e-20 0.00608215 0.0245379
-0.01625 9.03502e-21 0.00608215 0.0265451
0.00625 3.61401e-20 0.0162494 0.0251913
-0.00625 3.61401e-20 0.0162494 0.0259624
-0.0175 -1.0842e-19 0 0.0266126
0.0175 1.0842e-19 0 0.0244502
-1.02402e-14 1.0842e-19 0.0175 0.0255828
-0.0175 -1.0842e-19 0.00233887 0.0266144
0.0175 1.0842e-19 0.00233887 0.0244523
0.0125 1.0842e-19 0.0124878 0.0247872
-0.0125 1.0842e-19 0.0124878 0.0263301
0.0025 1.0842e-19 0.0175 0.0254275
-0.0025 1.0842e-19 0.0175 0.0257361
-0.01375 0 0.011217 0.0264021
0.01375 3.61401e-20 0.011217 0.0247046
0.01125 -1.807e-20 0.0137433 0.0248692
-0.01125 0 0.0137433 0.0262574
0.015 1.0842e-19 0.00994629 0.0246217
-0.015 1.0842e-19 0.00994629 0.0264741
0.01 1.0842e-19 0.0149988 0.0249503
-0.01 1.0842e-19 0.0149988 0.0261842
0.0175 1.0842e-19 0.00479858 0.0244538
-0.0175 1.0842e-19 0.00479858 0.0266158
0.005 1.0842e-19 0.0175 0.0252702
-0.005 1.0842e-19 0.0175 0.0258872
0.018377 0 0 0.0243903
-0.018377 -5.42101e-20 0 0.0266616
0.01625 0 0.008656 0.0245382
-0.01625 3.61401e-20 0.008656 0.0265454
-0.00875 -1.807e-20 0.0162494 0.0261103
0.00875 3.61401e-20 0.0162494 0.0250308
-0.01875 -9.03502e-21 0.00116944 0.0266826
0.01875 2.71051e-20 0.00116944 0.0243651
0.00125 0 0.01875 0.0255047
-0.00125 3.61401e-20 0.01875 0.025659
0.0175 1.0842e-19 0.00736572 0.0244534
-0.0175 1.0842e-19 0.00736572 0.0266156
0.0075 1.0842e-19 0.0175 0.0251107
-0.0075 1.0842e-19 0.0175 0.0260361
-0.01875 9.03502e-21 0.00356873 0.0266857
0.01875 9.03502e-21 0.00356872 0.0243687
-0.00375 0 0.01875 0.0258112
0.00375 3.61401e-20 0.01875 0.0253485
-0.019123 5.42101e-20 0 0.026703
0.019123 0 0 0.0243393
0.01375 0 0.0137433 0.024704
-0.01375 0 0.0137433 0.0264013
0.015 1.0842e-19 0.0124878 0.0246209
-0.015 1.0842e-19 0.0124878 0.026473
0.0125 1.0842e-19 0.0149988 0.0247863
-0.0125 1.0842e-19 0.0149988 0.026329
-0.01875 0 0.00608215 0.0266852
0.01875 9.03502e-21 0.00608215 0.0243679
-0.01625 -1.807e-20 0.011217 0.0265442
0.01625 0 0.011217 0.0245371
0.01125 0 0.0162494 0.0248679
-0.01125 0 0.0162494 0.0262561
0.00625 3.61401e-20 0.01875 0.02519
-0.00625 3.61401e-20 0.01875 0.0259612
0.02 1.0842e-19 0 0.0242791
-0.02 1.0842e-19 0 0.0267517
-1.024e-14 1.0842e-19 0.02 0.0255813
0.0175 1.0842e-19 0.00994629 0.024453
-0.0175 1.0842e-19 0.00994629 0.0266151
0.02 0 0.00233887 0.0242811
-0.02 0 0.00233887 0.0267535
0.01 1.0842e-19 0.0175 0.024949
0.0025 1.0842e-19 0.02 0.025426
-0.0025 1.0842e-19 0.02 0.0257346
-0.01 1.0842e-19 0.0175 0.0261829
0.02 1.0842e-19 0.00479858 0.0242826
-0.02 1.0842e-19 0.00479858 0.0267549
0.005 1.0842e-19 0.02 0.0252686
-0.005 1.0842e-19 0.02 0.0258857
0.01875 0 0.008656 0.0243681
-0.01875 -1.807e-20 0.008656 0.0266854
-0.00875 3.61401e-20 0.01875 0.0261091
0.00875 -1.807e-20 0.01875 0.0250294
0.020877 1.0842e-19 0 0.0242184
-0.020877 -1.0842e-19 0 0.0268
0.015 1.0842e-19 0.0149988 0.02462
-0.015 1.0842e-19 0.0149988 0.026472
-0.02125 1.807e-20 0.00116944 0.0268207
0.02125 1.807e-20 0.00116943 0.0241928
0.01625 0 0.0137433 0.0245366
-0.01625 -1.807e-20 0.0137433 0.0265432
0.01375 -1.807e-20 0.0162494 0.0247028
-0.01375 1.807e-20 0.0162494 0.0264
0.00125 0 0.02125 0.0255028
-0.00125 0 0.02125 0.0256573
0.02 1.0842e-19 0.00736572 0.0242822
-0.02 1.0842e-19 0.00736572 0.0267547
0.0075 1.0842e-19 0.02 0.0251091
-0.0075 1.0842e-19 0.02 0.0260346
0.0175 1.0842e-19 0.0124878 0.0244522
-0.0175 1.0842e-19 0.0124878 0.026614
0.0125 1.0842e-19 0.0175 0.024785
-0.0125 1.0842e-19 0.0175 0.0263278
-0.02125 -4.51751e-20 0.00356873 0.0268239
0.02125 3.61401e-20 0.00356872 0.0241964
-0.00375 3.61401e-20 0.02125 0.0258094
0.00375 3.61401e-20 0.02125 0.0253466
-0.021623 0 0 0.0268409
0.021623 -5.42101e-20 0 0.0241666
0.01875 0 0.011217 0.0243672
-0.01875 -1.807e-20 0.011217 0.0266842
0.01125 1.807e-20 0.01875 0.0248666
-0.01125 3.61401e-20 0.01875 0.0262549
-0.02125 0 0.00608215 0.0268234
0.02125 1.807e-20 0.00608215 0.0241955
0.00625 3.61401e-20 0.02125 0.0251882
-0.00625 3.61401e-20 0.02125 0.0259595
0.02 1.0842e-19 0.00994629 0.0242818
-0.02 1.0842e-19 0.00994629 0.0267542
0.01 1.0842e-19 0.02 0.0249474
-0.01 1.0842e-19 0.02 0.0261814
0.0225 1.0842e-19 0 0.0241055
-0.0225 -1.0842e-19 0 0.0268889
-1.024e-14 1.0842e-19 0.0225 0.0255795
0.0225 0 0.00233887 0.0241076
-0.0225 1.0842e-19 0.00233887 0.0268907
0.0025 1.0842e-19 0.0225 0.0254242
-0.0025 1.0842e-19 0.0225 0.0257329
-0.02125 -1.807e-20 0.008656 0.0268235
0.02125 9.03502e-21 0.008656 0.0241958
0.01625 0 0.0162494 0.0245353
-0.01625 0 0.0162494 0.0265421
0.00875 0 0.02125 0.0250276
-0.00875 -1.807e-20 0.02125 0.0261073
0.0225 -1.0842e-19 0.00479858 0.024109
-0.0225 1.0842e-19 0.00479858 0.0268921
0.0175 1.0842e-19 0.0149988 0.0244514
-0.0175 1.0842e-19 0.0149988 0.026613
0.005 1.0842e-19 0.0225 0.0252669
-0.005 1.0842e-19 0.0225 0.025884
0.015 1.0842e-19 0.0175 0.0246188
-0.015 1.0842e-19 0.0175 0.0264708
0.01875 -1.807e-20 0.0137433 0.0243667
-0.01875 3.61401e-20 0.0137433 0.0266833
0.01375 0 0.01875 0.0247015
-0.01375 0 0.01875 0.0263989
0.023377 0 0 0.0240439
-0.023377 -1.6263e-19 0 0.0269366
0.02 1.0842e-19 0.0124878 0.0242811
-0.02 1.0842e-19 0.0124878 0.0267531
0.0125 1.0842e-19 0.02 0.0247834
-0.0125 1.0842e-19 0.02 0.0263263
0.0225 1.0842e-19 0.00736572 0.0241086
-0.0225 1.0842e-19 0.00736572 0.0268918
0.0075 1.0842e-19 0.0225 0.0251074
-0.0075 1.0842e-19 0.0225 0.026033
0.02375 -3.61401e-20 0.00116943 0.024018
-0.02375 -2.71051e-20 0.00116944 0.0269571
0.00125 3.61401e-20 0.02375 0.0255012
-0.00125 3.61401e-20 0.02375 0.0256556
0.02375 9.03502e-21 0.00356872 0.0240216
-0.02375 -9.03502e-21 0.00356873 0.0269601
-0.02125 0 0.011217 0.0268223
0.02125 3.61401e-20 0.011217 0.0241948
0.01125 3.61401e-20 0.02125 0.0248646
-0.01125 -1.807e-20 0.02125 0.0262532
0.00375 0 0.02375 0.025345
-0.00375 0 0.02375 0.025808
-0.024123 1.0842e-19 0 0.026977
0.024123 -5.42101e-20 0 0.0239915
-0.02375 0 0.00608215 0.0269596
0.02375 1.807e-20 0.00608215 0.0240207
0.00625 3.61401e-20 0.02375 0.0251866
-0.00625 -1.807e-20 0.02375 0.025958
0.0225 1.0842e-19 0.00994629 0.0241083
-0.0225 1.0842e-19 0.00994629 0.0268913
0.01 1.0842e-19 0.0225 0.0249456
-0.01 1.0842e-19 0.0225 0.0261799
0.0175 1.0842e-19 0.0175 0.0244502
-0.0175 1.0842e-19 0.0175 0.0266118
0.01875 -1.807e-20 0.0162494 0.0243656
-0.01875 1.807e-20 0.0162494 0.0266821
0.01625 3.61401e-20 0.01875 0.024534
-0.01625 3.61401e-20 0.01875 0.0265408
0.02 1.0842e-19 0.0149988 0.0242804
-0.02 1.0842e-19 0.0149988 0.0267521
0.015 1.0842e-19 0.02 0.0246171
-0.015 1.0842e-19 0.02 0.0264693
0.025 0 0 0.0239294
-0.025 1.0842e-19 0 0.0270243
-1.024e-14 1.0842e-19 0.025 0.0255779
0.025 0 0.00233887 0.0239315
-0.025 1.0842e-19 0.00233887 0.0270261
0.0025 1.0842e-19 0.025 0.0254225
-0.0025 1.0842e-19 0.025 0.0257313
0.02375 -1.807e-20 0.008656 0.024021
-0.02375 3.61401e-20 0.008656 0.0269597
0.02125 0 0.0137433 0.0241944
-0.02125 0 0.0137433 0.0268215
0.01375 3.61401e-20 0.02125 0.0246995
-0.00875 0 0.02375 0.026106
-0.01375 3.61401e-20 0.02125 0.0263971
0.00875 0 0.02375 0.0250259
0.025 0 0.00479858 0.023933
-0.025 1.0842e-19 0.00479858 0.0270274
0.005 1.0842e-19 0.025 0.0252652
-0.005 1.0842e-19 0.025 0.0258825
0.0225 1.0842e-19 0.0124878 0.0241076
-0.0225 1.0842e-19 0.0124878 0.0268903
0.0125 1.0842e-19 0.0225 0.0247815
-0.0125 1.0842e-19 0.0225 0.0263248
0.025877 0 0 0.0238669
-0.025877 1.0842e-19 0 0.0270713
0.025 1.0842e-19 0.00736572 0.0239325
-0.025 1.0842e-19 0.00736572 0.0270271
0.0075 1.0842e-19 0.025 0.0251057
-0.0075 1.0842e-19 0.025 0.0260315
-0.02375 0 0.011217 0.0269586
0.02375 0 0.011217 0.02402
0.02625 -9.03502e-21 0.00116943 0.0238406
-0.02625 0 0.00116944 0.0270915
0.00125 0 0.02625 0.0254995
-0.01125 -1.807e-20 0.02375 0.0262518
0.01125 3.61401e-20 0.02375 0.0248629
-0.00125 0 0.02625 0.025654
0.02625 9.03502e-21 0.00356872 0.0238444
-0.02625 9.03502e-21 0.00356873 0.0270945
0.00375 3.61401e-20 0.02625 0.0253433
-0.00375 0 0.02625 0.0258063
0.01875 3.61401e-20 0.01875 0.0243643
-0.01875 0 0.01875 0.0266808
0.02 1.0842e-19 0.0175 0.0242792
0.0175 1.0842e-19 0.02 0.0244485
-0.0175 1.0842e-19 0.02 0.0266103
-0.02 1.0842e-19 0.0175 0.0267508
-0.026623 1.0842e-19 0 0.0271111
0.026623 1.0842e-19 0 0.0238137
0.02125 -1.807e-20 0.0162494 0.0241934
-0.02125 0 0.0162494 0.0268202
-0.01625 0 0.02125 0.0265392
0.01625 3.61401e-20 0.02125 0.0245321
0.025 1.0842e-19 0.00994629 0.0239322
-0.025 1.0842e-19 0.00994629 0.0270266
0.01 1.0842e-19 0.025 0.0249438
-0.01 1.0842e-19 0.025 0.0261784
0.02625 1.807e-20 0.00608215 0.0238434
-0.02625 9.03502e-21 0.00608215 0.0270939
0.00625 0 0.02625 0.0251849
-0.00625 0 0.02625 0.0259564
0.0225 1.0842e-19 0.0149988 0.0241069
-0.0225 1.0842e-19 0.0149988 0.0268893
0.015 1.0842e-19 0.0225 0.0246152
-0.015 1.0842e-19 0.0225 0.0264677
-0.02375 -1.807e-20 0.0137433 0.0269577
0.02375 3.61401e-20 0.0137433 0.0240196
0.01375 3.61401e-20 0.02375 0.0246978
-0.01375 3.61401e-20 0.02375 0.0263956
0.0275 1.0842e-19 0 0.0237508
-0.0275 1.0842e-19 0 0.0271578
-1.02399e-14 1.0842e-19 0.0275 0.0255763
-0.0275 1.0842e-19 0.00233887 0.0271596
0.0275 0 0.00233887 0.0237529
0.0025 1.0842e-19 0.0275 0.0254209
-0.0025 1.0842e-19 0.0275 0.0257297
0.02625 1.807e-20 0.008656 0.0238436
-0.02625 3.61401e-20 0.008656 0.0270941
0.00875 -1.807e-20 0.02625 0.0250241
-0.00875 0 0.02625 0.0261043
0.0275 0 0.00479858 0.0237544
-0.0275 1.0842e-19 0.00479858 0.0271609
0.025 1.0842e-19 0.0124878 0.0239315
-0.025 1.0842e-19 0.0124878 0.0270256
0.005 1.0842e-19 0.0275 0.0252636
-0.005 1.0842e-19 0.0275 0.025881
0.0125 1.0842e-19 0.025 0.0247798
-0.0125 1.0842e-19 0.025 0.0263233
0.02 1.0842e-19 0.02 0.0242775
-0.02 1.0842e-19 0.02 0.0267494
-0.02125 -1.807e-20 0.01875 0.026819
0.02125 -1.807e-20 0.01875 0.024192
-0.01875 3.61401e-20 0.02125 0.0266792
0.01875 1.807e-20 0.02125 0.0243622
0.028377 0 0 0.0236874
-0.028377 1.0842e-19 0 0.0272042
0.0275 1.0842e-19 0.00736572 0.0237539
-0.0275 1.0842e-19 0.00736572 0.0271606
0.0075 1.0842e-19 0.0275 0.0251041
-0.0075 1.0842e-19 0.0275 0.02603
0.0225 1.0842e-19 0.0175 0.0241057
0.0175 1.0842e-19 0.0225 0.0244466
-0.0175 1.0842e-19 0.0225 0.0266087
-0.0225 1.0842e-19 0.0175 0.026888
0.02625 0 0.011217 0.0238427
-0.02625 0 0.011217 0.0270929
-0.01125 3.61401e-20 0.02625 0.0262502
0.01125 3.61401e-20 0.02625 0.0248611
0.02875 0 0.00116943 0.0236608
-0.02875 9.03502e-21 0.00116944 0.0272241
-0.02375 0 0.0162494 0.0269564
0.02375 3.61401e-20 0.0162494 0.0240187
0.01625 1.807e-20 0.02375 0.0245302
-0.01625 3.61401e-20 0.02375 0.0265376
0.00125 5.42101e-20 0.0287506 0.025498
-0.00125 -5.42101e-20 0.0287506 0.0256524
0.02875 -1.807e-20 0.00356872 0.0236644
-0.02875 1.807e-20 0.00356873 0.0272271
0.00375 -1.807e-20 0.0287506 0.0253417
-0.00375 0 0.0287506 0.0258049
-0.029123 5.42101e-20 0 0.0272435
0.029123 0 0 0.0236335
0.025 1.0842e-19 0.0149988 0.0239309
-0.025 1.0842e-19 0.0149988 0.0270245
0.015 1.0842e-19 0.025 0.0246134
-0.015 1.0842e-19 0.025 0.0264662
0.0275 1.0842e-19 0.00994629 0.0237535
-0.0275 1.0842e-19 0.00994629 0.0271601
0.01 1.0842e-19 0.0275 0.0249421
-0.01 1.0842e-19 0.0275 0.0261769
0.02875 0 0.00608215 0.0236635
-0.02875 -5.42101e-20 0.00608215 0.0272265
0.00625 3.61401e-20 0.0287506 0.0251833
-0.00625 3.61401e-20 0.0287506 0.025955
0.02625 3.61401e-20 0.0137433 0.0238424
-0.02625 3.61401e-20 0.0137433 0.0270921
0.01375 3.61401e-20 0.02625 0.024696
-0.01375 0 0.02625 0.0263941
0.03 1.0842e-19 0 0.0235696
-0.03 1.0842e-19 0 0.0272895
8.39715e-13 1.0842e-19 0.0300012 0.0255749
0.02875 1.807e-20 0.008656 0.0236636
-0.02875 0 0.008656 0.0272267
0.02125 1.807e-20 0.02125 0.02419
-0.02125 1.807e-20 0.02125 0.0268173
-0.00875 3.61401e-20 0.0287506 0.0261029
0.00875 0 0.0287506 0.0250226
0.03 -1.0842e-19 0.00233887 0.0235718
-0.03 1.0842e-19 0.00233887 0.0272912
0.0225 1.0842e-19 0.02 0.024104
0.02 1.0842e-19 0.0225 0.0242755
-0.02 1.0842e-19 0.0225 0.0267478
-0.0225 1.0842e-19 0.02 0.0268866
0.0025 1.0842e-19 0.0300012 0.0254195
-0.0025 1.0842e-19 0.0300012 0.0257284
0.0275 1.0842e-19 0.0124878 0.0237529
-0.0275 1.0842e-19 0.0124878 0.027159
0.0125 1.0842e-19 0.0275 0.024778
-0.0125 1.0842e-19 0.0275 0.0263218
0.01875 0 0.02375 0.0243604
-0.01875 0 0.02375 0.0266777
-0.02375 0 0.01875 0.0269551
0.02375 3.61401e-20 0.01875 0.0240173
0.03 -1.0842e-19 0.00479858 0.0235733
-0.03 1.0842e-19 0.00479858 0.0272925
0.005 1.0842e-19 0.0300012 0.0252621
-0.005 1.0842e-19 0.0300012 0.0258796
0.0175 1.0842e-19 0.025 0.0244447
0.025 1.0842e-19 0.0175 0.0239298
-0.0175 1.0842e-19 0.025 0.0266072
-0.025 1.0842e-19 0.0175 0.0270233
-0.02875 -1.807e-20 0.011217 0.0272254
0.02875 0 0.011217 0.0236627
0.02625 3.61401e-20 0.0162494 0.0238414
-0.02625 0 0.0162494 0.0270908
0.01625 0 0.02625 0.0245283
-0.01625 3.61401e-20 0.02625 0.0265362
0.01125 0 0.0287506 0.0248595
-0.01125 0 0.0287506 0.0262489
0.030877 0 0 0.0235054
-0.030877 1.0842e-19 0 0.0273352
0.03 1.0842e-19 0.00736572 0.0235728
-0.03 1.0842e-19 0.00736572 0.0272922
0.0075 1.0842e-19 0.0300012 0.0251025
-0.0075 1.0842e-19 0.0300012 0.0260286
0.03125 -9.03502e-21 0.00116943 0.0234783
-0.03125 -1.807e-20 0.00116944 0.0273548
0.00125 1.807e-20 0.0312567 0.0254967
-0.00125 -1.807e-20 0.0312567 0.0256512
0.0275 1.0842e-19 0.0149988 0.0237524
-0.0275 1.0842e-19 0.0149988 0.0271579
0.015 1.0842e-19 0.0275 0.0246116
-0.015 1.0842e-19 0.0275 0.0264648
0.03125 1.807e-20 0.00356872 0.023482
-0.03125 0 0.00356873 0.0273578
0.00375 0 0.0312567 0.0253404
-0.00375 -1.807e-20 0.0312567 0.0258035
0.03 1.0842e-19 0.00994629 0.0235724
-0.03 1.0842e-19 0.00994629 0.0272917
-0.031623 1.0842e-19 0 0.0273739
0.031623 -1.0842e-19 0 0.0234506
0.01 1.0842e-19 0.0300012 0.0249406
-0.01 1.0842e-19 0.0300012 0.0261755
0.0225 1.0842e-19 0.0225 0.024102
-0.0225 1.0842e-19 0.0225 0.026885
0.03125 0 0.00608215 0.0234812
-0.03125 -1.807e-20 0.00608215 0.0273572
0.02875 0 0.0137433 0.0236624
-0.02875 1.807e-20 0.0137433 0.0272246
0.02375 -1.807e-20 0.02125 0.0240152
0.02125 -1.807e-20 0.02375 0.024188
-0.02125 0 0.02375 0.0268158
-0.02375 0 0.02125 0.0269536
0.01375 0 0.0287506 0.0246942
-0.01375 0 0.0287506 0.0263928
0.00625 -1.807e-20 0.0312567 0.0251818
-0.00625 3.61401e-20 0.0312567 0.0259537
0.02 1.0842e-19 0.025 0.0242736
0.025 1.0842e-19 0.02 0.0239281
-0.02 1.0842e-19 0.025 0.0267463
-0.025 1.0842e-19 0.02 0.0270218
0.02625 3.61401e-20 0.01875 0.0238401
-0.01875 3.61401e-20 0.02625 0.0266762
-0.02625 1.807e-20 0.01875 0.0270895
0.01875 0 0.02625 0.0243584
0.03125 1.807e-20 0.008656 0.0234812
-0.03125 0 0.008656 0.0273574
0.00875 0 0.0312567 0.025021
-0.00875 -1.807e-20 0.0312567 0.0261016
0.03 1.0842e-19 0.0124878 0.0235718
-0.03 1.0842e-19 0.0124878 0.0272906
-0.0325 1.0842e-19 0 0.0274194
0.0325 0 0 0.0233858
0.0125 1.0842e-19 0.0300012 0.0247764
-0.0125 1.0842e-19 0.0300012 0.0263205
8.42745e-12 1.0842e-19 0.0325122 0.0255736
-0.0325 1.0842e-19 0.00233887 0.0274211
0.0325 0 0.00233887 0.023388
0.0175 1.0842e-19 0.0275 0.0244428
0.0275 1.0842e-19 0.0175 0.0237513
-0.0175 1.0842e-19 0.0275 0.0266058
-0.0275 1.0842e-19 0.0175 0.0271567
0.0025 1.0842e-19 0.0325122 0.0254182
-0.0025 1.0842e-19 0.0325122 0.0257271
0.0325 -1.0842e-19 0.00479858 0.0233896
-0.0325 1.0842e-19 0.00479858 0.0274224
0.005 1.0842e-19 0.0325122 0.0252608
-0.005 1.0842e-19 0.0325122 0.0258784
0.02875 0 0.0162494 0.0236617
-0.02875 0 0.0162494 0.0272233
0.01625 -1.807e-20 0.0287506 0.0245265
-0.01625 3.61401e-20 0.0287506 0.0265349
0.03125 0 0.011217 0.0234803
-0.03125 1.807e-20 0.011217 0.0273562
0.01125 0 0.0312567 0.0248579
-0.01125 3.61401e-20 0.0312567 0.0262476
0.0325 1.0842e-19 0.00736572 0.023389
-0.0325 1.0842e-19 0.00736572 0.0274221
0.0075 1.0842e-19 0.0325122 0.0251011
-0.0075 1.0842e-19 0.0325122 0.0260274
0.033377 -1.0842e-19 0 0.0233206
-0.033377 5.42101e-20 0 0.0274645
0.03 1.0842e-19 0.0149988 0.0235714
-0.03 1.0842e-19 0.0149988 0.0272895
0.015 1.0842e-19 0.0300012 0.0246099
-0.015 1.0842e-19 0.0300012 0.0264635
-0.02375 -1.807e-20 0.02375 0.0269521
0.02375 -1.807e-20 0.02375 0.0240132
0.0225 1.0842e-19 0.025 0.0240999
0.025 1.0842e-19 0.0225 0.023926
-0.0225 1.0842e-19 0.025 0.0268835
-0.025 1.0842e-19 0.0225 0.0270203
0.03375 0 0.00116943 0.0232931
-0.03375 9.03502e-21 0.00116944 0.0274839
0.02125 3.61401e-20 0.02625 0.024186
0.02625 3.61401e-20 0.02125 0.0238381
-0.02125 3.61401e-20 0.02625 0.0268143
-0.02625 3.61401e-20 0.02125 0.0270879
0.00125 -5.42101e-20 0.0337829 0.0254955
-0.00125 1.807e-20 0.033783 0.0256501
0.03375 -9.03502e-21 0.00356872 0.023297
-0.03375 0 0.00356872 0.0274868
0.0325 1.0842e-19 0.00994629 0.0233886
-0.0325 1.0842e-19 0.00994629 0.0274216
-0.00375 -1.807e-20 0.0337829 0.0258024
0.00375 3.61401e-20 0.0337829 0.0253392
0.02 1.0842e-19 0.0275 0.0242716
0.0275 1.0842e-19 0.02 0.0237496
-0.02 1.0842e-19 0.0275 0.0267449
-0.0275 1.0842e-19 0.02 0.0271552
0.01 1.0842e-19 0.0325122 0.0249391
-0.01 1.0842e-19 0.0325122 0.0261744
-0.034123 0 0 0.0275027
0.034123 -5.42101e-20 0 0.0232651
-0.03125 3.61401e-20 0.0137433 0.0273553
0.03125 3.61401e-20 0.0137433 0.0234802
0.01375 3.61401e-20 0.0312567 0.0246926
-0.01375 0 0.0312567 0.0263916
0.03375 1.807e-20 0.00608215 0.0232961
-0.03375 1.807e-20 0.00608215 0.0274863
-0.02875 0 0.01875 0.027222
0.02875 1.807e-20 0.01875 0.0236604
-0.01875 0 0.0287506 0.0266748
0.01875 3.61401e-20 0.0287506 0.0243565
-0.00625 -1.807e-20 0.0337829 0.0259525
0.00625 3.61401e-20 0.0337829 0.0251806
0.03 1.0842e-19 0.0175 0.0235704
-0.03 1.0842e-19 0.0175 0.0272883
0.0175 1.0842e-19 0.0300012 0.0244411
-0.0175 1.0842e-19 0.0300012 0.0266046
0.0325 1.0842e-19 0.0124878 0.0233881
-0.0325 1.0842e-19 0.0124878 0.0274205
0.0125 1.0842e-19 0.0325122 0.0247749
-0.0125 1.0842e-19 0.0325122 0.0263193
0.03375 3.61401e-20 0.008656 0.0232961
-0.03375 1.807e-20 0.008656 0.0274865
0.00875 0 0.0337829 0.0250197
-0.00875 0 0.0337829 0.0261005
-0.035 0 0 0.0275475
0.035 -1.0842e-19 0 0.0231994
3.85541e-11 1.0842e-19 0.0350537 0.0255725
-0.035 -1.0842e-19 0.00233887 0.0275492
0.035 0 0.00233887 0.0232016
0.0025 1.0842e-19 0.0350537 0.0254171
-0.0025 1.0842e-19 0.0350537 0.0257261
0.03125 0 0.0162494 0.0234796
-0.03125 0 0.0162494 0.027354
0.01625 3.61401e-20 0.0312567 0.024525
-0.01625 3.61401e-20 0.0312567 0.0265337
0.035 -1.0842e-19 0.00479858 0.0232032
-0.035 1.0842e-19 0.00479858 0.0275505
0.025 1.0842e-19 0.025 0.0239239
-0.025 1.0842e-19 0.025 0.0270188
0.02625 0 0.02375 0.023836
-0.02375 0 0.02625 0.0269506
-0.02625 0 0.02375 0.0270864
0.02375 0 0.02625 0.0240112
0.005 1.0842e-19 0.0350537 0.0252597
-0.005 1.0842e-19 0.0350537 0.0258774
0.0225 1.0842e-19 0.0275 0.024098
0.0275 1.0842e-19 0.0225 0.0237475
-0.0225 1.0842e-19 0.0275 0.0268821
-0.0275 1.0842e-19 0.0225 0.0271537
0.03375 -1.807e-20 0.011217 0.0232952
-0.03375 -1.807e-20 0.011217 0.0274853
0.01125 0 0.0337829 0.0248565
-0.01125 0 0.0337829 0.0262465
0.02875 0 0.02125 0.0236584
-0.02875 1.807e-20 0.02125 0.0272204
0.02125 0 0.0287506 0.0241841
-0.02125 0 0.0287506 0.0268129
0.035 1.0842e-19 0.00736572 0.0232026
-0.035 1.0842e-19 0.00736572 0.0275502
0.0325 1.0842e-19 0.0149988 0.0233878
-0.0325 1.0842e-19 0.0149988 0.0274194
0.015 1.0842e-19 0.0325122 0.0246084
-0.015 1.0842e-19 0.0325122 0.0264624
0.0075 1.0842e-19 0.0350537 0.0250999
-0.0075 1.0842e-19 0.0350537 0.0260265
-0.035877 1.6263e-19 0 0.027592
0.035877 -5.42101e-20 0 0.0231332
0.03 1.0842e-19 0.02 0.0235686
-0.03 1.0842e-19 0.02 0.0272868
0.02 1.0842e-19 0.0300012 0.0242698
-0.02 1.0842e-19 0.0300012 0.0267436
0.03625 -9.03502e-21 0.00116944 0.0231054
-0.03625 0 0.00116944 0.0276111
-0.00125 -1.807e-20 0.036344 0.025649
0.00125 3.61401e-20 0.036344 0.0254944
0.035 1.0842e-19 0.00994629 0.0232022
-0.035 1.0842e-19 0.00994629 0.0275497
0.03625 -3.61401e-20 0.00356873 0.0231093
-0.03625 0 0.00356872 0.027614
0.03375 0 0.0137433 0.0232953
-0.03375 0 0.0137433 0.0274843
0.03125 0 0.01875 0.0234782
-0.03125 0 0.01875 0.0273528
0.01875 3.61401e-20 0.0312567 0.0243548
-0.01875 3.61401e-20 0.0312567 0.0266737
0.01 1.0842e-19 0.0350537 0.0249379
-0.01 1.0842e-19 0.0350537 0.0261734
0.01375 0 0.0337829 0.0246912
-0.01375 -1.807e-20 0.0337829 0.0263905
-0.00375 0 0.036344 0.0258016
0.00375 1.807e-20 0.036344 0.0253381
0.036623 1.0842e-19 0 0.0230769
-0.036623 5.42101e-20 0 0.0276298
0.03625 1.807e-20 0.00608215 0.0231084
-0.03625 -3.61401e-20 0.00608215 0.0276134
-0.00625 -1.807e-20 0.036344 0.0259519
0.00625 0 0.036344 0.0251796
0.0325 1.0842e-19 0.0175 0.0233868
-0.0325 1.0842e-19 0.0175 0.0274182
0.0175 1.0842e-19 0.0325122 0.0244395
-0.0175 1.0842e-19 0.0325122 0.0266034
0.02625 3.61401e-20 0.02625 0.0238339
-0.02625 3.61401e-20 0.02625 0.027085
0.035 1.0842e-19 0.0124878 0.0232017
-0.035 1.0842e-19 0.0124878 0.0275486
0.025 1.0842e-19 0.0275 0.0239219
0.0275 1.0842e-19 0.025 0.0237454
-0.025 1.0842e-19 0.0275 0.0270174
-0.0275 1.0842e-19 0.025 0.0271522
0.0125 1.0842e-19 0.0350537 0.0247737
-0.0125 1.0842e-19 0.0350537 0.0263184
0.03625 3.61401e-20 0.008656 0.0231083
-0.03625 1.807e-20 0.008656 0.0276137
-0.02875 0 0.02375 0.0272189
0.02875 0 0.02375 0.0236562
-0.02375 3.61401e-20 0.0287506 0.0269493
0.02375 3.61401e-20 0.0287506 0.0240093
-0.00875 0 0.036344 0.0260998
0.00875 -1.807e-20 0.036344 0.0250188
0.03375 0 0.0162494 0.0232947
-0.03375 -1.807e-20 0.0162494 0.0274831
0.01625 0 0.0337829 0.0245236
-0.01625 3.61401e-20 0.0337829 0.0265326
-0.0375 1.0842e-19 0 0.027674
0.0375 0 0 0.0230103
0.03 1.0842e-19 0.0225 0.0235665
-0.03 1.0842e-19 0.0225 0.0272853
0.0225 1.0842e-19 0.0300012 0.0240962
-0.0225 1.0842e-19 0.0300012 0.0268809
-0.0375 0 0.00233887 0.0276757
0.0375 -1.0842e-19 0.00233887 0.0230126
8.7068e-11 1.0842e-19 0.0376343 0.0255718
0.0025 1.0842e-19 0.0376343 0.0254163
-0.0025 1.0842e-19 0.0376343 0.0257255
-0.03125 -1.807e-20 0.02125 0.0273511
0.03125 0 0.02125 0.0234761
0.02125 3.61401e-20 0.0312567 0.0241824
-0.02125 3.61401e-20 0.0312567 0.0268118
0.0375 -1.0842e-19 0.00479858 0.0230142
-0.0375 -1.0842e-19 0.00479858 0.0276769
0.03625 0 0.011217 0.0231074
-0.03625 0 0.011217 0.0276124
0.005 1.0842e-19 0.0376343 0.0252589
-0.005 1.0842e-19 0.0376343 0.0258769
-0.01125 -1.807e-20 0.036344 0.0262457
0.01125 -1.807e-20 0.036344 0.0248556
0.035 1.0842e-19 0.0149988 0.0232016
-0.035 1.0842e-19 0.0149988 0.0275475
0.015 1.0842e-19 0.0350537 0.0246072
-0.015 1.0842e-19 0.0350537 0.0264615
0.0325 1.0842e-19 0.02 0.023385
-0.0325 1.0842e-19 0.02 0.0274167
0.02 1.0842e-19 0.0325122 0.0242682
-0.02 1.0842e-19 0.0325122 0.0267425
0.0375 1.0842e-19 0.00736572 0.0230134
-0.0375 1.0842e-19 0.00736572 0.0276766
0.0075 1.0842e-19 0.0376343 0.0250992
-0.0075 1.0842e-19 0.0376343 0.0260259
-0.038377 -1.0842e-19 0 0.0277179
0.038377 5.42101e-20 0 0.0229432
0.03375 0 0.01875 0.0232933
-0.03375 -1.807e-20 0.01875 0.0274818
0.01875 0 0.0337829 0.0243534
-0.01875 3.61401e-20 0.0337829 0.0266726
0.03875 2.71051e-20 0.00116944 0.0229149
-0.03875 2.71051e-20 0.00116944 0.0277367
0.03625 -1.807e-20 0.0137433 0.0231076
-0.03625 3.61401e-20 0.0137433 0.0276114
0.0375 1.0842e-19 0.00994629 0.0230128
-0.0375 1.0842e-19 0.00994629 0.0276761
0.01375 -1.807e-20 0.036344 0.0246902
-0.01375 0 0.036344 0.0263897
0.0275 1.0842e-19 0.0275 0.0237433
-0.0275 1.0842e-19 0.0275 0.0271509
0.03875 1.807e-20 0.00356873 0.0229189
-0.03875 -9.03502e-21 0.00356872 0.0277395
0.02875 -1.807e-20 0.02625 0.0236541
-0.02875 0 0.02625 0.0272176
0.02625 3.61401e-20 0.0287506 0.0238319
-0.02625 3.61401e-20 0.0287506 0.0270837
0.00125 0 0.0389178 0.0254939