# U  POINT_DATA 26382
# x  y  z  U_x  U_y  U_z
0 -0.000876979 6.01824e-09 2.94758e-07 -1.59872e-07 3.01521e-10
0 0.000373006 0.00116944 0.0922577 -0.0503397 9.51388e-05
8.27181e-25 0.001623 4.67384e-09 2.28315e-07 -1.25342e-07 2.35292e-10
1.03398e-25 -0.000876994 0.00215245 0.106068 -0.0569613 0.000151165
0 -0.00212699 0.00116944 0.0924963 -0.0498645 9.46852e-05
2.06795e-25 0.001623 0.00182382 0.0896241 -0.0487051 0.000129005
-1.03398e-25 -0.000876994 0.00233887 0.115255 -0.0618946 0.000164258
2.06795e-25 0.001623 0.00233887 0.114934 -0.0624593 0.000165436
-1.0842e-19 0.00287301 0.00116943 0.092013 -0.0508163 9.55916e-05
0 -0.00236739 0.00233887 0.115441 -0.0615588 0.000163561
0 -0.00337698 7.72602e-09 3.90013e-07 -2.08898e-07 3.9594e-10
-1.0842e-19 0.000373002 0.00356873 0.1383 -0.0742032 0.000235661
0 -0.003377 0.00233887 0.115568 -0.0613313 0.000163089
0 0.00412303 4.87104e-09 2.37308e-07 -1.31867e-07 2.46361e-10
1.0842e-19 -0.002127 0.00356872 0.138696 -0.0735488 0.000233765
0 0.00412301 0.00187853 0.0920485 -0.0506204 0.000133835
1.0842e-19 0.002873 0.00356872 0.137894 -0.0748585 0.000237597
0 -0.003377 0.00327131 0.128134 -0.0670674 0.000226082
0 0.00412301 0.00233887 0.114605 -0.0630251 0.000166632
1.0842e-19 -0.004627 0.00116943 0.092729 -0.0493909 9.4224e-05
-1.03398e-25 -0.000876999 0.00479858 0.148293 -0.0771268 0.000332247
0 0.001623 0.00479858 0.14786 -0.0777915 0.000335268
0 0.00537301 0.00116944 0.0917622 -0.0512942 9.60278e-05
-1.0842e-19 -0.004627 0.00356872 0.139084 -0.0728955 0.000231877
-1.03398e-25 -0.003377 0.00479858 0.148717 -0.0764628 0.00032926
0 -0.005877 8.41764e-09 4.2598e-07 -2.25423e-07 4.29232e-10
0 0.000373001 0.00608215 0.157999 -0.0807618 0.000433249
1.23491e-20 -0.005877 0.00233887 0.115874 -0.0607693 0.000161913
2.06795e-25 0.004123 0.00479858 0.147416 -0.0784567 0.000338347
-2.1684e-19 -0.002127 0.00608215 0.158461 -0.0800873 0.00042913
2.1684e-19 0.005373 0.00356873 0.137478 -0.0755145 0.000239577
-8.27181e-25 0.00662302 5.69423e-09 2.76646e-07 -1.55602e-07 2.89229e-10
-1.0842e-19 0.002873 0.00608215 0.157528 -0.0814367 0.000437414
-5.16988e-25 0.006623 0.00206606 0.10094 -0.0561743 0.000148253
0 -0.005877 0.00373585 0.134762 -0.0693058 0.000255271
0 0.006623 0.00233887 0.114269 -0.0635918 0.000167829
2.1684e-19 -0.00712701 0.00116943 0.0929562 -0.0489191 9.37395e-05
0 -0.000876999 0.00736572 0.164025 -0.0809349 0.000488243
-1.03398e-25 0.001623 0.00736572 0.163544 -0.0815993 0.000493282
0 -0.005877 0.00479858 0.149132 -0.0757997 0.000326291
1.0842e-19 -0.004627 0.00608215 0.158912 -0.0794132 0.000425052
0 0.007873 0.00116944 0.0915051 -0.0517735 9.64261e-05
1.0842e-19 -0.007127 0.00356872 0.139462 -0.0722436 0.000229984
5.16988e-26 -0.003377 0.00736572 0.164496 -0.0802706 0.000483275
1.0842e-19 0.005373 0.00608215 0.157046 -0.0821115 0.000441682
2.06795e-25 0.006623 0.00479858 0.146963 -0.0791221 0.000341504
0 -0.008377 8.14506e-09 4.13179e-07 -2.16027e-07 4.13182e-10
0 0.004123 0.00736572 0.163052 -0.0822636 0.000498421
0 0.007873 0.00356873 0.137053 -0.076171 0.000241578
0 0.000373 0.00865601 0.169584 -0.0817732 0.000548342
-2.57643e-20 -0.008377 0.00233887 0.116172 -0.060209 0.00016073
-1.0842e-19 -0.002127 0.008656 0.170076 -0.081119 0.000542455
7.75482e-26 -0.008377 0.00347115 0.131531 -0.0670811 0.000235584
2.1684e-19 0.002873 0.008656 0.169083 -0.0824272 0.00055433
0 0.009123 5.76164e-09 2.79126e-07 -1.58915e-07 2.93865e-10
1.03398e-25 0.009123 0.00210367 0.102468 -0.0577073 0.000152043
0 -0.007127 0.00608215 0.159353 -0.0787397 0.000421006
0 0.009123 0.00233887 0.113924 -0.0641593 0.000169042
5.16988e-26 -0.005877 0.00736572 0.164958 -0.0796067 0.000478371
1.03398e-25 -0.008377 0.00479858 0.149537 -0.0751376 0.000323339
1.0842e-19 -0.009627 0.00116944 0.0931779 -0.0484491 9.32505e-05
0 -0.004627 0.00865601 0.170557 -0.0804648 0.000536663
1.03398e-25 0.006623 0.00736572 0.16255 -0.0829277 0.000503715
1.0842e-19 0.007873 0.00608215 0.156553 -0.0827861 0.000446095
2.58494e-26 -0.000877 0.00994629 0.173834 -0.0809516 0.000594432
0 0.001623 0.00994629 0.173331 -0.0815925 0.000601247
-3.25261e-19 0.005373 0.008656 0.168571 -0.0830809 0.000560471
1.0842e-19 -0.009627 0.00356873 0.139833 -0.0715931 0.000228097
0 0.009123 0.00479858 0.146499 -0.0797876 0.000344771
-1.0842e-19 0.010373 0.00116944 0.0912414 -0.0522536 9.68297e-05
0 -0.003377 0.00994629 0.174327 -0.0803105 0.000587724
-2.58494e-26 0.004123 0.00994629 0.172818 -0.0822331 0.000608181
0 -0.010877 7.63523e-09 3.88224e-07 -2.00548e-07 3.85274e-10
0 0.010373 0.00356873 0.136618 -0.076828 0.000243654
-8.8696e-21 -0.010877 0.00233887 0.116464 -0.0596503 0.000159538
0 -0.008377 0.00736572 0.16541 -0.0789433 0.000473528
1.0842e-19 -0.007127 0.008656 0.171029 -0.0798109 0.000530961
0 0.000373 0.011217 0.177565 -0.0807736 0.000647025
0 -0.010877 0.00320213 0.128211 -0.0648538 0.000215994
0 -0.009627 0.00608215 0.159786 -0.0780671 0.000416995
-2.1684e-19 -0.002127 0.011217 0.178069 -0.0801456 0.000639392
0 -0.005877 0.00994629 0.17481 -0.0796695 0.000581127
1.0842e-19 0.002873 0.011217 0.17705 -0.0814013 0.000654766
0 0.011623 5.15475e-09 2.48996e-07 -1.43494e-07 2.6403e-10
-2.1684e-19 0.007873 0.008656 0.168049 -0.083734 0.000566828
0 0.009123 0.00736572 0.162037 -0.0835913 0.000509224
-2.06795e-25 0.011623 0.00189818 0.0921721 -0.0525316 0.000138214
-2.06795e-25 0.011623 0.00233887 0.113571 -0.0647275 0.000170303
0 -0.010877 0.00479858 0.149934 -0.0744767 0.000320398
2.58494e-26 0.006623 0.00994629 0.172295 -0.0828733 0.000615279
-1.0842e-19 0.010373 0.00608215 0.15605 -0.0834604 0.00045071
-1.0842e-19 -0.004627 0.011217 0.178564 -0.0795176 0.00063188
-1.0842e-19 -0.012127 0.00116943 0.0933942 -0.0479811 9.27421e-05
0 0.005373 0.011217 0.176526 -0.0820285 0.000662625
0 -0.000877 0.0124878 0.18089 -0.0796198 0.000673165
0 0.011623 0.00479858 0.146025 -0.0804532 0.000348185
0 0.001623 0.0124878 0.180379 -0.0802357 0.00068174
-1.0842e-19 -0.012127 0.00356873 0.140194 -0.0709441 0.000226191
-2.1684e-19 0.012873 0.00116944 0.0909711 -0.0527348 9.72509e-05
3.23117e-27 -0.003377 0.0124878 0.181391 -0.0790037 0.000664783
-1.0842e-19 -0.009627 0.008656 0.171491 -0.0791573 0.000525345
0 -0.008377 0.00994629 0.175284 -0.0790287 0.000574647
0 -0.010877 0.00736572 0.165852 -0.0782805 0.000468741
0 0.004123 0.0124878 0.179858 -0.0808513 0.000690513
0 -0.007127 0.011217 0.179049 -0.0788895 0.000624508
1.0842e-19 0.012873 0.00356872 0.136173 -0.0774853 0.000245821
0 -0.013377 7.2543e-09 3.69697e-07 -1.8869e-07 3.64007e-10
-2.58494e-26 0.009123 0.00994629 0.171761 -0.0835126 0.000622637
-1.0842e-19 0.010373 0.00865601 0.167515 -0.0843862 0.000573483
2.1684e-19 -0.012127 0.00608215 0.160209 -0.0773953 0.000413005
1.21394e-19 -0.013377 0.00233887 0.116749 -0.0590936 0.000158333
0 0.007873 0.011217 0.175991 -0.0826551 0.000670651
-1.0842e-19 0.000373 0.0137433 0.183695 -0.0790855 0.00070766
0 0.011623 0.00736572 0.161513 -0.0842542 0.000515001
-2.58494e-26 -0.013377 0.0033489 0.130535 -0.0651395 0.000223681
0 -0.005877 0.0124878 0.181882 -0.0783875 0.0006566
1.0842e-19 -0.002127 0.0137433 0.184203 -0.0784813 0.000698337
-1.0842e-19 0.002873 0.0137433 0.183178 -0.0796894 0.000717257
0 0.014123 3.99365e-09 1.86435e-07 -1.08706e-07 1.99105e-10
0 0.006623 0.0124878 0.179327 -0.0814663 0.000699506
4.1359e-25 0.014123 0.0013649 0.066066 -0.0381051 0.000100149
0 -0.013377 0.00479858 0.150321 -0.0738172 0.000317475
-1.0842e-19 0.012873 0.00608215 0.155535 -0.0841343 0.000455542
4.1359e-25 0.014123 0.00233887 0.11321 -0.0652964 0.000171615
1.0842e-19 -0.004627 0.0137433 0.184701 -0.0778769 0.000689287
1.0842e-19 -0.014627 0.00116943 0.0936052 -0.0475152 9.22067e-05
0 -0.010877 0.00994629 0.175748 -0.0783881 0.000568286
0 0.005373 0.0137433 0.182651 -0.0802928 0.000727141
0 0.0147711 0 0 0 0
1.0842e-19 -0.009627 0.011217 0.179524 -0.0782616 0.000617286
0 -0.012127 0.008656 0.171944 -0.0785042 0.000519813
-2.06795e-25 0.014123 0.00479858 0.14554 -0.0811186 0.000351748
0 -0.000877 0.0149988 0.186504 -0.0778353 0.000727068
0 -0.008377 0.0124878 0.182365 -0.0777713 0.000648619
0 -0.014627 0.00356872 0.140547 -0.070297 0.000224299
0 0.001623 0.0149988 0.185993 -0.0784287 0.000737274
5.16988e-26 -0.013377 0.00736572 0.166286 -0.0776185 0.000464021
0 0.010373 0.011217 0.175445 -0.0832807 0.000679036
2.58494e-26 0.011623 0.00994629 0.171216 -0.084151 0.000630395
0 -0.003377 0.0149988 0.187005 -0.0772415 0.000717185
0 0.015373 0.00116944 0.0906942 -0.0532169 9.76851e-05
-6.46235e-27 0.009123 0.0124878 0.178785 -0.0820805 0.000708796
1.0842e-19 -0.007127 0.0137433 0.18519 -0.0772726 0.000680494
1.0842e-19 0.012873 0.00865601 0.166971 -0.0850375 0.000580491
-4.03897e-28 0.004123 0.0149988 0.185472 -0.0790216 0.000747787
-1.0842e-19 0.015373 0.00356872 0.135717 -0.0781428 0.000248075
1.0842e-19 0.007873 0.0137433 0.182114 -0.0808957 0.000737336
0 -0.014627 0.00608215 0.160623 -0.0767246 0.000409071
8.27181e-25 -0.015877 6.82727e-09 3.48707e-07 -1.75848e-07 3.40609e-10
-1.03398e-25 0.014123 0.00736572 0.160978 -0.0849164 0.000521061
-2.85264e-20 -0.015877 0.00233887 0.117027 -0.0585387 0.000157131
-2.01948e-28 -0.005877 0.0149988 0.187498 -0.0766475 0.000707617
2.58494e-26 -0.015877 0.00298249 0.125839 -0.0623644 0.000198332
1.0842e-19 0.000373 0.0162494 0.188802 -0.07718 0.000756488
-1.0842e-19 -0.002127 0.0162494 0.189307 -0.0765969 0.000745725
0 0.006623 0.0149988 0.184943 -0.0796138 0.000758585
-1.0842e-19 0.002873 0.0162494 0.188288 -0.0777625 0.000767625
1.0842e-19 -0.012127 0.011217 0.179991 -0.0776339 0.000610221
-1.0842e-19 0.015373 0.00608215 0.15501 -0.0848076 0.000460581
0 -0.010877 0.0124878 0.182838 -0.0771553 0.000640843
-1.03398e-25 -0.015877 0.00479858 0.150701 -0.0731591 0.000314586
3.30872e-24 0.016623 1.14127e-08 5.73366e-07 -3.38726e-07 6.23118e-10
0 -0.013377 0.00994629 0.176203 -0.077748 0.000562058
0 -0.009627 0.0137433 0.18567 -0.0766681 0.00067196
0 0.016623 0.00233887 0.11284 -0.0658658 0.000172979
2.1684e-19 -0.004627 0.0162494 0.189803 -0.0760133 0.00073533
-1.0842e-19 -0.014627 0.00865601 0.172387 -0.0778517 0.000514386
0 0.011623 0.0124878 0.178233 -0.0826938 0.000718529
0 0.012873 0.011217 0.174889 -0.0839053 0.000688012
1.0842e-19 0.005373 0.0162494 0.187765 -0.0783442 0.000779058
0 -0.017127 0.00116943 0.0938109 -0.0470512 9.16766e-05
2.01948e-28 -0.008377 0.0149988 0.187983 -0.0760533 0.00069835
1.0842e-19 0.010373 0.0137433 0.181565 -0.0814977 0.000747885
-2.58494e-26 0.014123 0.00994629 0.17066 -0.0847883 0.000638617
0 0.016623 0.00479858 0.145044 -0.0817839 0.000355457
-1.0842e-19 -0.017127 0.00356872 0.140892 -0.0696517 0.000222429
0 -0.015877 0.00736572 0.16671 -0.0769574 0.000459382
-2.47702e-28 -0.000877 0.0174912 0.191302 -0.0759144 0.000765665
0 -0.000877 0.0175 0.191319 -0.0759076 0.000765801
4.03897e-28 0.009123 0.0149988 0.184403 -0.0802052 0.000769693
-2.11415e-28 0.001623 0.0174922 0.1908 -0.0764858 0.000776927
0 0.001623 0.0175 0.190815 -0.0764797 0.000777051
0 0.015373 0.008656 0.166416 -0.0856878 0.000587856
0 -0.007127 0.0162494 0.190292 -0.0754295 0.000725298
-4.10208e-29 -0.003377 0.0174891 0.191793 -0.0753431 0.000754717
-1.91544e-20 -0.003377 0.0175 0.191814 -0.0753348 0.000754882
-1.0842e-19 0.017873 0.00116944 0.0904106 -0.0536999 9.81407e-05
0 0.004123 0.0174928 0.190289 -0.0770566 0.000788508
-1.57772e-30 0.004123 0.0175 0.190303 -0.077051 0.000788625
-1.0842e-19 0.007873 0.0162494 0.187233 -0.0789251 0.000790734
0 -0.017127 0.00608215 0.161028 -0.0760552 0.000405181
1.03398e-25 0.016623 0.00736572 0.160432 -0.0855778 0.000527392
1.0842e-19 0.017873 0.00356872 0.135251 -0.0788005 0.000250416
0 -0.013377 0.0124878 0.183303 -0.0765394 0.000633276
0 -0.012127 0.0137433 0.186142 -0.0760638 0.000663684
8.27181e-25 -0.018377 6.59756e-09 3.37703e-07 -1.68263e-07 3.27334e-10
-1.0842e-19 -0.014627 0.011217 0.180448 -0.0770066 0.00060334
1.00974e-28 -0.005877 0.0174846 0.192272 -0.0747731 0.000744069
-1.57772e-30 -0.005877 0.0175 0.192302 -0.0747615 0.000744295
5.65533e-20 -0.018377 0.00233887 0.117299 -0.0579858 0.000155961
-2.01948e-28 -0.010877 0.0149988 0.188458 -0.0754591 0.000689371
-2.58494e-26 -0.018377 0.00268468 0.122047 -0.0600267 0.000177862
0 0.006623 0.0174931 0.189769 -0.0776267 0.000800421
0 0.006623 0.0175 0.189783 -0.0776212 0.000800537
0 -0.015877 0.00994629 0.176649 -0.0771084 0.000555978
1.0842e-19 0.000373 0.01875 0.193336 -0.0752079 0.000786195
1.0842e-19 0.012873 0.0137433 0.181006 -0.0820987 0.000758897
6.46235e-27 0.014123 0.0124878 0.177669 -0.083306 0.000728788
-1.0842e-19 -0.002127 0.01875 0.19383 -0.0746459 0.000774791
2.1684e-19 0.017873 0.00608215 0.154474 -0.0854803 0.000465826
-1.0842e-19 -0.009627 0.0162494 0.190771 -0.0748454 0.000715589
-1.03398e-25 0.0189411 0 0 0 0
0 0.002873 0.01875 0.192835 -0.0757688 0.000797892
0 0.011623 0.0149988 0.183853 -0.0807956 0.000781296
0 -0.018377 0.00479858 0.151071 -0.0725027 0.000311743
1.0842e-19 0.015373 0.011217 0.174321 -0.0845287 0.000697537
0 0.019123 8.95325e-10 4.37214e-08 -2.61225e-08 4.74171e-11
0 0.019123 0.000442258 0.0212654 -0.0125623 3.29743e-05
0 -0.017127 0.008656 0.172822 -0.0771999 0.000509076
0 0.019123 0.00233887 0.112462 -0.0664356 0.000174384
-1.0842e-19 0.010373 0.0162494 0.186691 -0.0795048 0.000802745
0 0.0193054 0 0 0 0
0 -0.004627 0.01875 0.194316 -0.0740833 0.000763677
2.58494e-26 0.016623 0.00994629 0.170093 -0.0854246 0.000647249
-1.10441e-29 -0.008377 0.0174794 0.192741 -0.0742032 0.000733739
-9.67102e-20 -0.008377 0.0175 0.192781 -0.0741878 0.000734033
-1.0842e-19 0.005373 0.01875 0.192325 -0.0763286 0.000809922
-1.0842e-19 -0.019627 0.00116943 0.0940115 -0.0465894 9.11972e-05
0 0.019123 0.00479858 0.144538 -0.0824488 0.00035931
-2.31925e-28 0.009123 0.0174927 0.18924 -0.0781963 0.000812743
8.08529e-20 0.009123 0.0175 0.189254 -0.0781904 0.000812869
0 -0.018377 0.00736572 0.167125 -0.0762973 0.00045483
-1.0842e-19 0.017873 0.008656 0.165849 -0.0863369 0.000595537
-2.1684e-19 -0.019627 0.00356872 0.14123 -0.0690083 0.000220605
-3.54881e-20 -0.000877 0.02 0.195686 -0.0739373 0.000786406
1.0842e-19 -0.007127 0.01875 0.194795 -0.0735201 0.000752869
-9.67102e-20 0.001623 0.02 0.195198 -0.0744876 0.000798019
1.0842e-19 -0.014627 0.0137433 0.186604 -0.0754597 0.000655641
0 -0.013377 0.0149988 0.188925 -0.074865 0.000680661
0 -0.015877 0.0124878 0.183758 -0.0759239 0.000625913
1.0842e-19 -0.012127 0.0162494 0.191242 -0.0742614 0.000706195
3.28979e-21 -0.003377 0.02 0.196167 -0.0733861 0.00077505
-1.0842e-19 0.007873 0.01875 0.191808 -0.0768873 0.000822429
0 0.020373 0.00116944 0.0901201 -0.0541837 9.85838e-05
8.08456e-20 0.004123 0.02 0.194702 -0.0750368 0.000809901
0 -0.017127 0.011217 0.180897 -0.0763797 0.000596645
-1.03398e-25 0.019123 0.00736572 0.159875 -0.0862382 0.000533985
-1.0842e-19 -0.019627 0.00608215 0.161424 -0.0753871 0.000401362
3.31322e-29 -0.010877 0.0174792 0.193212 -0.0736293 0.000723794
0 0.014123 0.0149988 0.183293 -0.0813849 0.000793478
0 -0.010877 0.0175 0.193251 -0.073614 0.000724083
0 0.015373 0.0137433 0.180436 -0.0826987 0.00077041
0 0.020373 0.00356872 0.134775 -0.0794581 0.000252829
0 0.012873 0.0162494 0.186141 -0.0800836 0.000815582
0 0.016623 0.0124878 0.177096 -0.0839171 0.000739524
-9.67102e-20 -0.005877 0.02 0.19664 -0.0728342 0.000763964
0 -0.020877 7.4195e-09 3.80573e-07 -1.87358e-07 3.6611e-10
0 -0.018377 0.00994629 0.177087 -0.0764695 0.000550046
4.73317e-30 0.011623 0.0174915 0.1887 -0.0787652 0.000825658
-8.6935e-20 -0.020877 0.00233887 0.117564 -0.057435 0.00015481
-1.91485e-20 0.011623 0.0175 0.188717 -0.0787583 0.00082581
-1.91544e-20 0.006623 0.02 0.194199 -0.0755849 0.00082213
0 -0.009627 0.01875 0.195265 -0.0729566 0.00074237
0 0.017873 0.011217 0.173744 -0.0851509 0.000707485
0 0.000373 0.02125 0.197552 -0.0732177 0.000798103
0 0.020373 0.00608215 0.153925 -0.0861521 0.000471279
0 -0.020877 0.00402827 0.140827 -0.0673342 0.000260677
0 -0.002127 0.02125 0.198027 -0.072678 0.000786535
-5.16988e-26 -0.020877 0.00479858 0.151434 -0.0718479 0.000308948
1.0842e-19 0.010373 0.01875 0.191283 -0.0774447 0.000835564
1.0842e-19 0.002873 0.02125 0.19707 -0.0737563 0.000809885
0 -0.019627 0.008656 0.173248 -0.076549 0.000503884
-5.16988e-26 0.019123 0.00994629 0.169515 -0.0860595 0.000656253
1.65436e-24 0.021623 1.13746e-08 5.40745e-07 -3.27315e-07 5.96782e-10
-1.91544e-20 -0.008377 0.02 0.197105 -0.0722817 0.000753159
1.0842e-19 -0.004627 0.02125 0.198494 -0.0721374 0.0007752
0 0.021623 0.00233888 0.112075 -0.0670057 0.000175817
-2.01948e-28 -0.015877 0.0149988 0.189384 -0.0742711 0.000672201
1.0842e-19 -0.014627 0.0162494 0.191705 -0.0736774 0.00069707
1.0842e-19 0.005373 0.02125 0.19658 -0.0742937 0.000821908
0 -0.017127 0.0137433 0.187058 -0.0748559 0.000647816
8.08456e-20 0.009123 0.02 0.193688 -0.0761316 0.000834852
-2.05104e-29 -0.013377 0.0174821 0.19368 -0.0730531 0.000714181
-9.67075e-20 -0.013377 0.0175 0.193714 -0.07304 0.000714424
-1.0842e-19 0.020373 0.00865601 0.165271 -0.0869848 0.000603535
0 -0.020877 0.00736572 0.167532 -0.0756384 0.000450375
0 0.021623 0.00479858 0.14402 -0.0831132 0.000363296
0 -0.022127 0.00116943 0.0942071 -0.0461298 9.06897e-05
3.23117e-27 -0.018377 0.0124878 0.184206 -0.0753088 0.000618756
-1.0842e-19 -0.012127 0.01875 0.195727 -0.0723928 0.000732172
-1.0842e-19 0.015373 0.0162494 0.185581 -0.080661 0.000828947
0 0.016623 0.0149988 0.182723 -0.0819729 0.000806116
0 -0.022127 0.00356872 0.141559 -0.068367 0.000218791
-1.0842e-19 -0.007127 0.02125 0.198955 -0.0715961 0.00076411
-1.41995e-28 0.014123 0.0174909 0.188153 -0.0793324 0.000839202
0 0.014123 0.0175 0.18817 -0.0793249 0.00083937
3.28979e-21 -0.000877 0.0225 0.19978 -0.0719685 0.000787037
-2.1684e-19 0.017873 0.0137433 0.179857 -0.0832974 0.000782363
-9.67102e-20 0.001623 0.0225 0.199311 -0.0724973 0.000798578
2.1684e-19 -0.019627 0.011217 0.181337 -0.0757534 0.000590121
0 0.007873 0.02125 0.196084 -0.0748299 0.000834261
-1.0842e-19 0.012873 0.01875 0.19075 -0.0780005 0.000849343
-9.67102e-20 -0.003377 0.0225 0.200241 -0.0714388 0.00077572
-1.91544e-20 -0.010877 0.02 0.197563 -0.0717288 0.000742638
0 0.019123 0.0124878 0.176512 -0.0845267 0.000750696
-1.03398e-25 0.021623 0.00736572 0.159306 -0.0868975 0.000540838
-9.67102e-20 0.004123 0.0225 0.198836 -0.0730248 0.000810366
-2.1684e-19 0.022873 0.00116944 0.0898228 -0.0546681 9.90069e-05
0 -0.022127 0.00608215 0.161812 -0.0747204 0.000397615
0 -0.020877 0.00994629 0.177516 -0.0758313 0.000544265
8.08456e-20 0.011623 0.02 0.19317 -0.0766769 0.000848221
0 0.022873 0.00356872 0.134288 -0.0801156 0.000255313
8.08456e-20 -0.005877 0.0225 0.200696 -0.0709082 0.00076463
0 0.020373 0.011217 0.173155 -0.0857715 0.000717862
-1.0842e-19 -0.009627 0.02125 0.199408 -0.0710541 0.000753286
0 -0.023377 8.82567e-09 4.53625e-07 -2.20656e-07 4.33023e-10
3.28979e-21 0.006623 0.0225 0.198353 -0.0735512 0.000822475
6.46421e-20 -0.023377 0.00233887 0.117823 -0.0568864 0.00015366
-1.0842e-19 -0.017127 0.0162494 0.19216 -0.0730936 0.00068822
1.57772e-30 -0.015877 0.017484 0.194138 -0.0724777 0.00070483
0 -0.015877 0.0175 0.194169 -0.0724661 0.00070504
1.0842e-19 0.010373 0.02125 0.195579 -0.0753647 0.000847155
1.0842e-19 0.022873 0.00608215 0.153365 -0.086823 0.00047692
2.01948e-28 -0.018377 0.0149988 0.189834 -0.0736775 0.000663985
0 0.000373 0.02375 0.201543 -0.0712487 0.000787398
-1.0842e-19 -0.022127 0.008656 0.173665 -0.075899 0.000498823
0 -0.014627 0.01875 0.196182 -0.0718288 0.000722254
0 0.021623 0.00994629 0.168927 -0.0866929 0.000665631
1.0842e-19 -0.002127 0.02375 0.201999 -0.0707299 0.000776113
3.23117e-27 -0.023377 0.00477594 0.151476 -0.0710633 0.000304806
0 -0.023377 0.00479858 0.151788 -0.071195 0.00030621
-1.0842e-19 0.002873 0.02375 0.201081 -0.0717665 0.000798926
1.0842e-19 -0.019627 0.0137433 0.187504 -0.0742524 0.000640234
8.08456e-20 -0.008377 0.0225 0.201143 -0.0703768 0.000753785
-3.23117e-27 -0.0235629 0.00479858 0.151814 -0.0711466 0.000306011
3.28979e-21 -0.013377 0.02 0.198013 -0.0711755 0.000732396
0 0.024123 1.1328e-08 5.51809e-07 -3.37949e-07 6.13494e-10
-5.6798e-29 0.016623 0.0174918 0.187599 -0.0798966 0.000853218
8.08524e-20 0.016623 0.0175 0.187615 -0.0798898 0.000853372
0 0.017873 0.0162494 0.185011 -0.081237 0.000842663
-1.0842e-19 -0.004627 0.02375 0.202447 -0.07021 0.000765032
0 0.024123 0.00233888 0.111679 -0.0675761 0.000177276
1.0842e-19 0.015373 0.01875 0.190209 -0.0785546 0.000863601
-9.67102e-20 0.009123 0.0225 0.197863 -0.0740762 0.000835046
-4.03897e-28 0.019123 0.0149988 0.182144 -0.0825594 0.00081916
-3.23117e-27 -0.020877 0.0124878 0.184645 -0.0746943 0.000611808
1.0842e-19 0.005373 0.02375 0.200612 -0.072283 0.000810745
1.0842e-19 0.022873 0.008656 0.164682 -0.0876312 0.000611858
0 -0.012127 0.02125 0.199854 -0.0705117 0.000742726
-9.67102e-20 0.014123 0.02 0.192643 -0.0772204 0.00086223
0 -0.023377 0.00736572 0.16793 -0.0749807 0.000446037
-1.0842e-19 0.020373 0.0137433 0.179267 -0.0838946 0.000794763
0 0.024123 0.00479858 0.143491 -0.0837771 0.000367409
0 -0.024627 0.00116943 0.0943977 -0.0456725 9.01677e-05
1.0842e-19 -0.007127 0.02375 0.202888 -0.0696893 0.00075418
1.0842e-19 -0.022127 0.011217 0.181769 -0.0751277 0.000583783
-1.0842e-19 0.012873 0.02125 0.195067 -0.0758977 0.000860821
0 -0.024627 0.00356872 0.141881 -0.067728 0.000217014
0 0.021623 0.0124878 0.175917 -0.0851347 0.000762308
-9.67102e-20 -0.010877 0.0225 0.201584 -0.0698448 0.00074319
3.28979e-21 -0.000877 0.025 0.20366 -0.0700398 0.000767063
-1.0842e-19 0.007873 0.02375 0.200136 -0.0727982 0.000822989
3.28979e-21 0.001623 0.025 0.203211 -0.0705487 0.000778217
0 0.024123 0.00736572 0.158726 -0.0875555 0.000547947
-9.67102e-20 -0.003377 0.025 0.204102 -0.0695298 0.000756131
-9.67102e-20 0.011623 0.0225 0.197365 -0.0745996 0.000848245
3.28979e-21 0.004123 0.025 0.202755 -0.0710564 0.000789641
5.20648e-29 -0.018377 0.0174852 0.194588 -0.071903 0.000695717
0 -0.024627 0.00608215 0.162191 -0.0740554 0.000393971
1.58405e-19 -0.018377 0.0175 0.194616 -0.0718924 0.000695906
-1.0842e-19 -0.017127 0.01875 0.196629 -0.071265 0.00071261
0 0.025373 0.00116944 0.0895186 -0.0551531 9.94276e-05
0 -0.023377 0.00994629 0.177936 -0.0751939 0.000538657
1.0842e-19 0.022873 0.011217 0.172556 -0.0863905 0.000728662
1.0842e-19 -0.019627 0.0162494 0.192607 -0.0725102 0.000679618
8.08456e-20 -0.015877 0.02 0.198456 -0.0706222 0.000722424
0 0.025373 0.00356873 0.13379 -0.0807729 0.000257856
0 -0.009627 0.02375 0.203323 -0.0691679 0.000743566
8.08456e-20 -0.005877 0.025 0.204538 -0.0690189 0.000745414
0 -0.020877 0.0149988 0.190276 -0.0730843 0.000656009
-1.0842e-19 -0.014627 0.02125 0.200292 -0.069969 0.000732434
-9.67102e-20 0.006623 0.025 0.202292 -0.0715628 0.000801423
0 -0.025877 9.27243e-09 4.77534e-07 -2.29513e-07 4.52363e-10
1.0842e-19 0.017873 0.01875 0.189659 -0.0791068 0.000878269
1.0842e-19 0.010373 0.02375 0.199652 -0.0733119 0.000835779
-1.57772e-30 0.019123 0.0174929 0.187037 -0.0804589 0.000867633
0 0.019123 0.0175 0.187051 -0.0804529 0.000867772
-3.41419e-21 -0.025877 0.00233887 0.118076 -0.05634 0.000152532
3.28979e-21 0.016623 0.02 0.192108 -0.077762 0.000876759
1.0842e-19 -0.022127 0.0137433 0.187942 -0.0736495 0.00063289
0 0.020373 0.0162494 0.184432 -0.0818113 0.000856771
1.0842e-19 0.025373 0.00608215 0.152794 -0.0874929 0.000482748
0 0.024123 0.00994629 0.168327 -0.0873248 0.000675382
0 -0.024627 0.00865601 0.174074 -0.07525 0.000493918
-9.67102e-20 -0.013377 0.0225 0.202017 -0.0693124 0.000732843
0 0.015373 0.02125 0.194547 -0.0764289 0.000875156
0 0.000373 0.02625 0.205331 -0.0693403 0.000757764
-8.07794e-28 0.021623 0.0149988 0.181554 -0.0831443 0.000832646
0 -0.025877 0.00479858 0.152135 -0.0705439 0.000303539
0 -0.002127 0.02625 0.205768 -0.0688403 0.00074698
8.08456e-20 -0.008377 0.025 0.204967 -0.0685071 0.000734927
0 0.002873 0.02625 0.204888 -0.0698392 0.000768783
0 -0.023377 0.0124878 0.185075 -0.0740803 0.000605096
0 0.014123 0.0225 0.19686 -0.0751212 0.000862116
-9.67102e-20 0.009123 0.025 0.201822 -0.0720678 0.000813681
-1.03398e-25 0.026623 3.76043e-10 1.8255e-08 -1.13173e-08 2.04522e-11
1.0842e-19 -0.004627 0.02625 0.206197 -0.0683391 0.000736398
0 -0.012127 0.02375 0.20375 -0.0686458 0.000733182
-1.0842e-19 0.022873 0.0137433 0.178666 -0.08449 0.000807624
8.27181e-25 0.026623 0.00233887 0.111274 -0.0681465 0.000178766
6.46235e-27 -0.025877 0.00674512 0.164407 -0.0734104 0.000408397
-1.0842e-19 0.005373 0.02625 0.204439 -0.0703369 0.000780109
1.0842e-19 0.025373 0.008656 0.164081 -0.0882762 0.000620506
0 -0.025877 0.00736572 0.16832 -0.0743243 0.000441827
-1.0842e-19 0.012873 0.02375 0.199162 -0.073824 0.000849224
0 0.026623 0.00479858 0.142951 -0.0844402 0.000371649
0 -0.024627 0.011217 0.182192 -0.0745028 0.00057766
0 -0.019627 0.01875 0.197068 -0.0707013 0.000703173
-1.0842e-19 -0.027127 0.00116943 0.0945835 -0.0452173 8.96686e-05
8.08456e-20 -0.018377 0.02 0.198892 -0.0700688 0.000712688
0 0.024123 0.0124878 0.175312 -0.085741 0.000774373
1.0842e-19 -0.007127 0.02625 0.20662 -0.0678371 0.000726047
0 -0.020877 0.0174855 0.195027 -0.0713292 0.000686798
0 -0.020877 0.0175 0.195055 -0.071319 0.000686978
3.28979e-21 -0.010877 0.025 0.205389 -0.0679946 0.000724662
0 -0.017127 0.02125 0.200724 -0.069426 0.0007224
0 -0.027127 0.00356873 0.142196 -0.0670911 0.00021528
1.0842e-19 0.007873 0.02625 0.203982 -0.0708332 0.00079185
-2.1684e-19 -0.022127 0.0162494 0.193045 -0.0719271 0.000671241
6.45119e-20 -0.000877 0.0275 0.207322 -0.068193 0.000727955
3.28979e-21 -0.015877 0.0225 0.202443 -0.0687796 0.000722745
4.41762e-29 -0.000877 0.0275314 0.207365 -0.0681715 0.000727227
3.28979e-21 0.001623 0.0275 0.206892 -0.0686841 0.000738485
8.08456e-20 0.011623 0.025 0.201345 -0.0725712 0.000826505
1.57772e-30 0.001623 0.0275281 0.20693 -0.0686647 0.000737825
0 0.026623 0.00736572 0.158134 -0.0882122 0.000555315
-9.67102e-20 0.019123 0.02 0.191565 -0.0783016 0.000891753
0 0.020373 0.01875 0.1891 -0.0796569 0.000893379
3.28979e-21 -0.003377 0.0275 0.207746 -0.0677008 0.000717657
-6.46235e-27 -0.025877 0.00994629 0.178348 -0.0745574 0.000533242
-1.02552e-28 -0.003377 0.0275189 0.207772 -0.067688 0.000717225
-1.0842e-19 0.025373 0.011217 0.171945 -0.0870077 0.00073988
0 0.017873 0.02125 0.194019 -0.076958 0.000890009
0 -0.023377 0.0149988 0.190711 -0.0724916 0.000648289
-2.1684e-19 -0.027127 0.00608215 0.162563 -0.0733919 0.000390415
8.08474e-20 0.004123 0.0275 0.206454 -0.0691739 0.000749293
-2.22459e-28 0.021623 0.0174934 0.186464 -0.0810198 0.000882492
-1.57772e-30 0.021623 0.0175 0.186477 -0.0810141 0.000882624
6.94198e-29 0.004123 0.0275277 0.206492 -0.0691546 0.000748632
1.0842e-19 -0.014627 0.02375 0.204171 -0.0681232 0.000723028
1.0842e-19 0.027873 0.00116944 0.0892073 -0.0556385 9.98471e-05
-1.0842e-19 -0.009627 0.02625 0.207036 -0.0673342 0.000715915
-9.67102e-20 0.016623 0.0225 0.196346 -0.0756408 0.000876563
1.0842e-19 0.022873 0.0162494 0.183842 -0.0823837 0.000871343
2.1684e-19 0.027873 0.00356873 0.133281 -0.0814297 0.000260467
-9.67102e-20 -0.005877 0.0275 0.208164 -0.0672076 0.000707579
-2.44547e-28 -0.005877 0.02751 0.208177 -0.0672009 0.000707355
-2.1684e-19 -0.024627 0.0137433 0.188371 -0.0730471 0.000625852
-1.0842e-19 0.010373 0.02625 0.203518 -0.0713279 0.000804105
-1.91544e-20 0.006623 0.0275 0.20601 -0.0696625 0.000760455
0 0.015373 0.02375 0.198663 -0.0743342 0.000863261
5.36425e-29 0.006623 0.0275385 0.206063 -0.0696355 0.000759524
-3.54881e-20 -0.013377 0.025 0.205804 -0.0674816 0.000714616
0 -0.028377 9.16174e-09 4.72744e-07 -2.24501e-07 4.44503e-10
8.07794e-28 0.024123 0.0149988 0.180953 -0.0837272 0.00084663
-5.16988e-26 0.026623 0.00994629 0.167715 -0.0879549 0.000685516
-1.82522e-20 -0.028377 0.00233887 0.118322 -0.0557959 0.000151435
1.0842e-19 -0.027127 0.008656 0.174474 -0.0746021 0.000489185
0 0.027873 0.00608215 0.152211 -0.0881616 0.000488775
8.08456e-20 0.014123 0.025 0.20086 -0.0730728 0.000839915
1.61559e-27 -0.025877 0.0124878 0.185497 -0.0734671 0.000598664
8.08456e-20 -0.008377 0.0275 0.208575 -0.0667135 0.000697718
0 0.000373 0.0287506 0.208886 -0.0675372 0.00070855
-1.41995e-29 -0.008377 0.0275072 0.208585 -0.0667087 0.000697558
-1.23021e-20 -0.028377 0.00479858 0.152474 -0.0698948 0.000300938
-2.1684e-19 -0.002127 0.0287506 0.209304 -0.067054 0.000698518
1.0842e-19 0.025373 0.0137433 0.178055 -0.0850836 0.000820999
1.0842e-19 0.002873 0.0287506 0.208461 -0.0680193 0.000718835
8.08456e-20 -0.020877 0.02 0.19932 -0.0695154 0.000703137
0 -0.012127 0.02625 0.207446 -0.0668307 0.000705986
0 -0.019627 0.02125 0.201148 -0.0688829 0.000712571
8.08456e-20 0.009123 0.0275 0.205559 -0.0701496 0.000772059
0 -0.022127 0.01875 0.1975 -0.0701378 0.000693875
-3.15544e-30 0.009123 0.0275426 0.205618 -0.0701193 0.000771011
8.08456e-20 -0.018377 0.0225 0.202863 -0.0682465 0.000712877
0 -0.004627 0.0287506 0.209717 -0.0665695 0.000688722
-3.30872e-24 0.029123 1.5623e-08 7.55749e-07 -4.74293e-07 8.53353e-10
0 0.027873 0.008656 0.163469 -0.0889194 0.000629482
-4.73317e-30 -0.023377 0.0174839 0.195456 -0.0707573 0.000678067
3.29323e-21 -0.023377 0.0175 0.195487 -0.070746 0.00067826
-8.27181e-25 0.029123 0.00233888 0.11086 -0.0687169 0.000180294
-1.0842e-19 0.012873 0.02625 0.203047 -0.071821 0.000816913
0 0.005373 0.0287506 0.20803 -0.0685001 0.000729437
0 -0.028377 0.00720803 0.167705 -0.0734375 0.000429341
0 -0.017127 0.02375 0.204586 -0.0676002 0.000713117
-3.23117e-27 -0.028377 0.00736572 0.168702 -0.0736693 0.000437745
0 -0.027127 0.011217 0.182607 -0.0738786 0.000571766
-2.86783e-20 0.026623 0.0124878 0.174695 -0.0863453 0.000786927
1.0842e-19 0.020373 0.02125 0.193483 -0.077485 0.000905357
-9.67102e-20 0.021623 0.02 0.191013 -0.0788391 0.000907246
1.0842e-19 -0.024627 0.0162494 0.193476 -0.0713448 0.000663122
4.1359e-25 0.029123 0.00479858 0.1424 -0.0851025 0.000376023
8.08456e-20 0.019123 0.0225 0.195825 -0.0761582 0.000891527
-9.67102e-20 -0.010877 0.0275 0.20898 -0.0662186 0.000688062
1.0842e-19 0.022873 0.01875 0.188532 -0.0802049 0.000908999
-1.15174e-28 -0.010877 0.027507 0.208989 -0.066214 0.000687909