# U  POINT_DATA 26799
# x  y  z  U_x  U_y  U_z
-5.92878e-09 0 0 0 0 0
0.000876986 5.42101e-20 0 0 0 0
-0.000876991 -5.42101e-20 0 0 0 0
0.001623 1.0842e-19 0 0 0 0
-0.00162301 -5.42101e-20 0 0 0 0
0.00125 -9.03502e-21 0.00116943 0.0833599 -0.0453299 9.1505e-05
-0.00125 9.03502e-21 0.00116944 0.0830803 -0.0452045 9.19613e-05
8.56612e-10 1.0842e-19 0.00233887 0.115142 -0.0620927 0.000164671
-0.00249999 0 0 0 0 0
0.0025 1.0842e-19 0 0 0 0
-0.00337698 0 0 0 0 0
0.003377 1.0842e-19 0 0 0 0
-0.0025 -1.0842e-19 0.00233887 0.114755 -0.0618476 0.000164922
0.0025 0 0.00233887 0.115534 -0.0623353 0.000164417
-0.00125 1.807e-20 0.00356872 0.136372 -0.072788 0.000238795
0.00125 9.03502e-21 0.00356872 0.136835 -0.0731433 0.000239029
-0.00375 0 0.00116943 0.0828049 -0.0450765 9.24465e-05
0.00375 -2.71051e-20 0.00116943 0.0836443 -0.0454527 9.10298e-05
-0.004123 -5.42101e-20 0 0 0 0
0.004123 5.42101e-20 0 0 0 0
1.02013e-09 -1.0842e-19 0.00479858 0.148141 -0.07736 0.000333306
-0.00499999 -1.0842e-19 0 0 0 0
0.00500001 1.0842e-19 0 0 0 0
-0.00375 -1.807e-20 0.00356872 0.135915 -0.072431 0.000238587
0.00375 -5.42101e-20 0.00356872 0.137305 -0.0734965 0.000239204
0.0025 1.0842e-19 0.00479858 0.148643 -0.0777806 0.000334727
-0.0025 -1.0842e-19 0.00479858 0.147646 -0.0769383 0.000331866
-0.005 1.0842e-19 0.00233887 0.114375 -0.0616 0.000165192
0.00500001 1.0842e-19 0.00233887 0.115932 -0.0625752 0.000164129
-0.00587699 -1.0842e-19 0 0 0 0
0.00587702 5.42101e-20 0 0 0 0
-0.00125 0 0.00608215 0.157266 -0.0800597 0.000425762
0.00125 0 0.00608215 0.15779 -0.0805349 0.000428569
-0.00625 -3.61401e-20 0.00116943 0.0825339 -0.044946 9.29497e-05
0.00625001 -3.61401e-20 0.00116944 0.083933 -0.0455727 9.05388e-05
0.006623 0 0 0 0 0
-0.006623 5.42101e-20 0 0 0 0
0.005 1.0842e-19 0.00479858 0.149151 -0.0781999 0.000336116
-0.005 -1.0842e-19 0.00479858 0.147158 -0.0765156 0.000330431
-0.00375 1.807e-20 0.00608215 0.156748 -0.0795843 0.000422963
0.00375 3.61401e-20 0.00608215 0.158321 -0.0810097 0.000431334
-0.00625 1.807e-20 0.00356872 0.135464 -0.0720721 0.000238362
0.00625 4.51751e-20 0.00356873 0.137781 -0.0738476 0.000239364
5.20266e-10 1.0842e-19 0.00736572 0.163856 -0.081168 0.00049001
0.00750001 1.0842e-19 0 0 0 0
-0.00750001 1.0842e-19 0 0 0 0
0.0025 1.0842e-19 0.00736572 0.164396 -0.0816702 0.000494183
-0.0025 1.0842e-19 0.00736572 0.163323 -0.080666 0.000485846
-0.0075 1.0842e-19 0.00233887 0.113999 -0.06135 0.000165441
0.00750001 1.0842e-19 0.00233887 0.116335 -0.0628123 0.000163833
-0.00837701 0 0 0 0 0
0.00837702 5.42101e-20 0 0 0 0
-0.00625 0 0.00608215 0.156237 -0.0791087 0.000420168
0.00625 -1.807e-20 0.00608215 0.158859 -0.0814842 0.000434113
-0.00125 0 0.008656 0.16915 -0.0812834 0.000543644
0.00125 -1.807e-20 0.008656 0.169696 -0.0818054 0.000549167
-0.00875 9.03502e-21 0.00116944 0.0822674 -0.0448133 9.3408e-05
0.00875 1.807e-20 0.00116944 0.0842262 -0.0456898 9.00591e-05
0.005 1.0842e-19 0.00736572 0.164943 -0.0821727 0.000498369
-0.005 1.0842e-19 0.00736572 0.162796 -0.0801645 0.000481704
0.0075 1.0842e-19 0.00479858 0.149666 -0.0786179 0.000337504
-0.0075 1.0842e-19 0.00479858 0.146675 -0.0760919 0.000328988
0.00912299 -5.42101e-20 0 0 0 0
-0.009123 0 0 0 0 0
-0.00375 0 0.008656 0.168612 -0.0807623 0.000538147
0.00375 1.807e-20 0.008656 0.170249 -0.0823281 0.000554737
-0.00875 -9.03502e-21 0.00356873 0.135019 -0.0717113 0.000238121
0.00875 0 0.00356873 0.138264 -0.0741964 0.000239515
1.71243e-10 1.0842e-19 0.00994629 0.173658 -0.0811764 0.000596823
-0.01 -1.0842e-19 0 0 0 0
0.01 -1.0842e-19 0 0 0 0
0.0025 1.0842e-19 0.00994629 0.174211 -0.0817056 0.000603657
-0.0025 1.0842e-19 0.00994629 0.173112 -0.0806484 0.000590053
-0.01 -1.0842e-19 0.00233887 0.113629 -0.0610978 0.000165668
0.01 1.0842e-19 0.00233887 0.116745 -0.0630465 0.000163528
0.0075 1.0842e-19 0.00736572 0.165497 -0.0826753 0.000502588
-0.0075 1.0842e-19 0.00736572 0.162275 -0.0796633 0.000477592
-0.00875 4.51751e-20 0.00608215 0.155731 -0.0786329 0.000417383
0.00875 0 0.00608215 0.159404 -0.081958 0.000436899
-0.00625 -1.807e-20 0.008656 0.168078 -0.080242 0.000532711
0.00625 0 0.008656 0.170809 -0.0828515 0.000560347
0.010877 1.0842e-19 0 0 0 0
-0.010877 1.0842e-19 0 0 0 0
0.01 1.0842e-19 0.00479858 0.150187 -0.0790344 0.000338896
-0.01 1.0842e-19 0.00479858 0.146199 -0.0756673 0.000327539
0.005 1.0842e-19 0.00994629 0.17477 -0.0822358 0.000610562
-0.005 1.0842e-19 0.00994629 0.172573 -0.0801215 0.000583349
-0.00125 -1.807e-20 0.011217 0.177247 -0.0803686 0.000639429
0.00125 0 0.011217 0.177798 -0.0809005 0.000647442
-0.01125 9.03502e-21 0.00116944 0.0820045 -0.0446781 9.38652e-05
0.01125 -3.61401e-20 0.00116944 0.084524 -0.045804 8.95571e-05
-0.011623 -1.0842e-19 0 0 0 0
0.011623 1.0842e-19 0 0 0 0
-0.01125 0 0.00356873 0.13458 -0.0713491 0.000237858
0.01125 1.807e-20 0.00356873 0.138753 -0.0745428 0.000239654
0.00375 -1.807e-20 0.011217 0.178356 -0.0814338 0.000655554
-0.00375 1.807e-20 0.011217 0.176702 -0.0798381 0.000631502
-0.00875 0 0.008656 0.167552 -0.0797228 0.000527321
0.00875 3.61401e-20 0.008656 0.171376 -0.0833757 0.000566025
0.01 1.0842e-19 0.00736572 0.166058 -0.083178 0.000506854
-0.01 1.0842e-19 0.00736572 0.161761 -0.0791627 0.000473513
0.0075 1.0842e-19 0.00994629 0.175337 -0.0827669 0.000617543
-0.0075 1.0842e-19 0.00994629 0.172041 -0.0795957 0.000576721
3.3838e-11 1.0842e-19 0.0124878 0.18071 -0.0798359 0.000676173
-0.0125 -1.0842e-19 0 0 0 0
0.0125 -1.0842e-19 0 0 0 0
-0.0125 0 0.00233887 0.113264 -0.0608433 0.00016589
0.0125 1.0842e-19 0.00233887 0.117161 -0.0632778 0.000163202
0.0025 1.0842e-19 0.0124878 0.181264 -0.0803664 0.00068527
-0.0025 1.0842e-19 0.0124878 0.180164 -0.0793067 0.0006672
-0.01125 0 0.00608215 0.155232 -0.0781572 0.000414607
0.01125 0 0.00608215 0.159955 -0.0824312 0.000439719
0.00625 -1.807e-20 0.011217 0.17892 -0.0819682 0.000663758
-0.00625 0 0.011217 0.176165 -0.0793088 0.000623666
0.013377 1.0842e-19 0 0 0 0
-0.013377 0 0 0 0 0
0.0125 1.0842e-19 0.00479858 0.150715 -0.0794493 0.000340289
-0.0125 1.0842e-19 0.00479858 0.145728 -0.075242 0.000326086
0.005 1.0842e-19 0.0124878 0.181825 -0.0808983 0.000694494
-0.005 1.0842e-19 0.0124878 0.179624 -0.078779 0.000658348
-0.01375 1.807e-20 0.00116944 0.0817456 -0.0445404 9.43298e-05
0.01375 -1.807e-20 0.00116944 0.0848265 -0.045915 8.90392e-05
-0.00125 1.807e-20 0.0137433 0.183431 -0.0787176 0.000700533
0.00125 0 0.0137433 0.18398 -0.0792441 0.00071052
0.01 1.0842e-19 0.00994629 0.175911 -0.0832989 0.000624618
-0.01 1.0842e-19 0.00994629 0.171515 -0.0790712 0.000570176
-0.014123 1.6263e-19 0 0 0 0
0.014123 1.0842e-19 0 0 0 0
0.01125 -1.807e-20 0.008656 0.17195 -0.0839003 0.000571777
-0.01125 -1.807e-20 0.008656 0.167033 -0.0792045 0.000521995
-0.01375 0 0.00356873 0.134146 -0.0709853 0.000237582
0.01375 1.807e-20 0.00356873 0.139248 -0.0748867 0.000239766
0.00875 -1.807e-20 0.011217 0.179493 -0.0825037 0.00067207
-0.00875 -1.807e-20 0.011217 0.175634 -0.078781 0.000615941
0.00375 -1.807e-20 0.0137433 0.184536 -0.0797719 0.000720659
-0.00375 0 0.0137433 0.18289 -0.0781927 0.000690703
0.0125 1.0842e-19 0.00736572 0.166626 -0.0836805 0.000511172
-0.0125 1.0842e-19 0.00736572 0.161253 -0.0786626 0.000469466
0.0075 1.0842e-19 0.0124878 0.182393 -0.0814314 0.000703849
-0.0075 1.0842e-19 0.0124878 0.179091 -0.0782527 0.000649625
3.02741e-12 1.0842e-19 0.0149988 0.186324 -0.0780435 0.000730649
-0.015 -1.0842e-19 0 0 0 0
0.015 -1.0842e-19 0 0 0 0
0.01375 1.807e-20 0.00608215 0.160514 -0.0829036 0.000442554
-0.01375 -9.03502e-21 0.00608215 0.154739 -0.0776815 0.000411838
-0.00625 3.61401e-20 0.0137433 0.182355 -0.0776692 0.000681024
0.00625 0 0.0137433 0.185099 -0.080301 0.000730956
0.015 1.0842e-19 0.00233887 0.117582 -0.0635058 0.00016286
-0.015 -1.0842e-19 0.00233887 0.112903 -0.0605868 0.000166099
0.0025 1.0842e-19 0.0149988 0.186875 -0.0785651 0.000741508
-0.0025 1.0842e-19 0.0149988 0.185781 -0.0775233 0.000719967
0.015 1.0842e-19 0.00479858 0.151251 -0.0798625 0.00034168
-0.015 -1.0842e-19 0.00479858 0.145263 -0.074816 0.000324623
0.005 1.0842e-19 0.0149988 0.187432 -0.0790879 0.000752553
-0.005 1.0842e-19 0.0149988 0.185246 -0.0770046 0.000709466
0.015877 -5.42101e-20 0 0 0 0
-0.015877 1.6263e-19 0 0 0 0
-0.01125 -1.807e-20 0.011217 0.17511 -0.0782545 0.000608323
0.01125 3.61401e-20 0.011217 0.180073 -0.0830404 0.000680507
0.0125 1.0842e-19 0.00994629 0.176492 -0.0838317 0.000631803
-0.0125 1.0842e-19 0.00994629 0.170995 -0.078548 0.000563713
0.01 1.0842e-19 0.0124878 0.182969 -0.0819657 0.000713353
-0.01 1.0842e-19 0.0124878 0.178564 -0.0777279 0.000641035
0.01375 0 0.008656 0.172531 -0.0844253 0.00057762
-0.01375 1.807e-20 0.00865601 0.166519 -0.0786874 0.000516724
-0.01625 0 0.00116944 0.0814904 -0.0444007 9.47676e-05
0.01625 -9.03502e-21 0.00116944 0.0851338 -0.0460229 8.85128e-05
0.00875 1.807e-20 0.0137433 0.18567 -0.0808314 0.000741419
-0.00875 3.61401e-20 0.0137433 0.181827 -0.0771471 0.00067151
-0.00125 0 0.0162494 0.188568 -0.0768313 0.000747935
0.00125 0 0.0162494 0.189113 -0.077346 0.000759416
-0.016623 0 0 0 0 0
0.016623 0 0 0 0 0
0.01625 9.03502e-21 0.00356873 0.13975 -0.0752279 0.000239873
-0.01625 -9.03502e-21 0.00356873 0.133717 -0.0706202 0.000237286
-0.00375 0 0.0162494 0.188031 -0.076318 0.000736648
0.00375 0 0.0162494 0.189664 -0.077862 0.000771108
0.015 1.0842e-19 0.00736572 0.167202 -0.0841828 0.000515541
-0.015 1.0842e-19 0.00736572 0.160751 -0.0781632 0.000465441
0.0075 1.0842e-19 0.0149988 0.187997 -0.0796121 0.000763789
-0.0075 1.0842e-19 0.0149988 0.184717 -0.0764873 0.000699147
0.01625 -1.807e-20 0.00608215 0.16108 -0.0833751 0.000445411
-0.01625 9.03502e-21 0.00608215 0.154252 -0.077206 0.000409062
0.00625 3.61401e-20 0.0162494 0.190222 -0.0783793 0.000783011
-0.00625 3.61401e-20 0.0162494 0.187502 -0.075806 0.000725573
-0.0175 -1.0842e-19 0 0 0 0
0.0175 1.0842e-19 0 0 0 0
-1.02402e-14 1.0842e-19 0.0175 0.191142 -0.0761083 0.000769747
-0.0175 -1.0842e-19 0.00233887 0.112548 -0.0603283 0.00016627
0.0175 1.0842e-19 0.00233887 0.11801 -0.0637306 0.000162519
0.0125 1.0842e-19 0.0124878 0.183552 -0.0825011 0.000723025
-0.0125 1.0842e-19 0.0124878 0.178044 -0.0772046 0.000632579
0.0025 1.0842e-19 0.0175 0.191688 -0.0766163 0.000781812
-0.0025 1.0842e-19 0.0175 0.190604 -0.0756015 0.0007579
-0.01375 0 0.011217 0.174592 -0.0777296 0.000600808
0.01375 3.61401e-20 0.011217 0.18066 -0.0835779 0.000689087
0.01125 -1.807e-20 0.0137433 0.186249 -0.0813631 0.000752078
-0.01125 0 0.0137433 0.181305 -0.0766266 0.000662152
0.015 1.0842e-19 0.00994629 0.177081 -0.0843652 0.000639102
-0.015 1.0842e-19 0.00994629 0.170482 -0.0780262 0.000557321
0.01 1.0842e-19 0.0149988 0.188569 -0.0801375 0.000775227
-0.01 1.0842e-19 0.0149988 0.184194 -0.0759714 0.00068901
0.0175 1.0842e-19 0.00479858 0.151793 -0.0802737 0.000343085
-0.0175 1.0842e-19 0.00479858 0.144804 -0.0743894 0.000323131
0.005 1.0842e-19 0.0175 0.192241 -0.0771255 0.000794099
-0.005 1.0842e-19 0.0175 0.190072 -0.075096 0.00074627
0.018377 0 0 0 0 0
-0.018377 -5.42101e-20 0 0 0 0
0.01625 0 0.008656 0.17312 -0.0849507 0.000583543
-0.01625 3.61401e-20 0.008656 0.166011 -0.0781713 0.000511482
-0.00875 -1.807e-20 0.0162494 0.186978 -0.0752954 0.000714701
0.00875 3.61401e-20 0.0162494 0.190789 -0.0788979 0.000795132
-0.01875 -9.03502e-21 0.00116944 0.0812389 -0.0442587 9.51803e-05
0.01875 2.71051e-20 0.00116944 0.0854457 -0.0461274 8.79944e-05
0.00125 0 0.01875 0.193659 -0.0753728 0.000789537
-0.00125 3.61401e-20 0.01875 0.193119 -0.074873 0.000777187
0.0175 1.0842e-19 0.00736572 0.167785 -0.0846848 0.00051997
-0.0175 1.0842e-19 0.00736572 0.160255 -0.0776645 0.000461423
0.0075 1.0842e-19 0.0175 0.192802 -0.0776359 0.000806618
-0.0075 1.0842e-19 0.0175 0.189548 -0.0745919 0.00073486
-0.01875 9.03502e-21 0.00356873 0.133295 -0.0702537 0.00023693
0.01875 9.03502e-21 0.00356872 0.14026 -0.0755664 0.00023999
-0.00375 0 0.01875 0.192586 -0.0743745 0.000765069
0.00375 3.61401e-20 0.01875 0.194208 -0.0758736 0.000802113
-0.019123 5.42101e-20 0 0 0 0
0.019123 0 0 0 0 0
0.01375 0 0.0137433 0.186834 -0.0818959 0.000762938
-0.01375 0 0.0137433 0.18079 -0.0761077 0.000652951
0.015 1.0842e-19 0.0124878 0.184142 -0.0830375 0.000732876
-0.015 1.0842e-19 0.0124878 0.177531 -0.076683 0.000624249
0.0125 1.0842e-19 0.0149988 0.189149 -0.080664 0.000786886
-0.0125 1.0842e-19 0.0149988 0.183678 -0.0754572 0.000679052
-0.01875 0 0.00608215 0.153771 -0.0767308 0.000406265
0.01875 9.03502e-21 0.00608215 0.161653 -0.0838454 0.000448307
-0.01625 -1.807e-20 0.011217 0.17408 -0.0772064 0.00059339
0.01625 0 0.011217 0.181255 -0.0841164 0.000697812
0.01125 0 0.0162494 0.191363 -0.0794174 0.000807481
-0.01125 0 0.0162494 0.186462 -0.0747863 0.00070403
0.00625 3.61401e-20 0.01875 0.194763 -0.0763755 0.000814932
-0.00625 3.61401e-20 0.01875 0.19206 -0.0738771 0.000753177
0.02 1.0842e-19 0 0 0 0
-0.02 1.0842e-19 0 0 0 0
-1.024e-14 1.0842e-19 0.02 0.195515 -0.0741304 0.000790479
0.0175 1.0842e-19 0.00994629 0.177678 -0.0848992 0.000646521
-0.0175 1.0842e-19 0.00994629 0.169974 -0.0775058 0.000550992
0.02 0 0.00233887 0.118444 -0.0639518 0.000162182
-0.02 0 0.00233887 0.112197 -0.0600679 0.000166415
0.01 1.0842e-19 0.0175 0.19337 -0.0781473 0.000819375
0.0025 1.0842e-19 0.02 0.196058 -0.0746222 0.000803156
-0.0025 1.0842e-19 0.02 0.194979 -0.0736396 0.000778046
-0.01 1.0842e-19 0.0175 0.18903 -0.0740891 0.000723662
0.02 1.0842e-19 0.00479858 0.152343 -0.080683 0.000344516
-0.02 1.0842e-19 0.00479858 0.144351 -0.0739623 0.00032161
0.005 1.0842e-19 0.02 0.196609 -0.0751151 0.000816074
-0.005 1.0842e-19 0.02 0.19445 -0.0731499 0.00076585
0.01875 0 0.008656 0.173717 -0.0854762 0.000589563
-0.01875 -1.807e-20 0.008656 0.16551 -0.0776565 0.000506278
-0.00875 3.61401e-20 0.01875 0.191541 -0.0733811 0.000741514
0.00875 -1.807e-20 0.01875 0.195325 -0.0768785 0.000827994
0.020877 1.0842e-19 0 0 0 0
-0.020877 -1.0842e-19 0 0 0 0
0.015 1.0842e-19 0.0149988 0.189736 -0.0811916 0.000798781
-0.015 1.0842e-19 0.0149988 0.183169 -0.0749445 0.000669267
-0.02125 1.807e-20 0.00116944 0.0809913 -0.0441147 9.55973e-05
0.02125 1.807e-20 0.00116943 0.0857625 -0.0462284 8.74695e-05
0.01625 0 0.0137433 0.187427 -0.0824297 0.00077402
-0.01625 -1.807e-20 0.0137433 0.180281 -0.0755906 0.000643902
0.01375 -1.807e-20 0.0162494 0.191944 -0.0799381 0.000820081
-0.01375 1.807e-20 0.0162494 0.185953 -0.0742788 0.000693552
0.00125 0 0.02125 0.197878 -0.0733799 0.000801276
-0.00125 0 0.02125 0.197339 -0.0728972 0.000788587
0.02 1.0842e-19 0.00736572 0.168375 -0.0851863 0.000524469
-0.02 1.0842e-19 0.00736572 0.159765 -0.0771667 0.000457411
0.0075 1.0842e-19 0.02 0.197167 -0.0756088 0.000829233
-0.0075 1.0842e-19 0.02 0.193929 -0.0726613 0.000753887
0.0175 1.0842e-19 0.0124878 0.18474 -0.0835748 0.000742914
-0.0175 1.0842e-19 0.0124878 0.177024 -0.076163 0.000616039
0.0125 1.0842e-19 0.0175 0.193946 -0.0786598 0.00083239
-0.0125 1.0842e-19 0.0175 0.18852 -0.0735877 0.000712671
-0.02125 -4.51751e-20 0.00356873 0.132877 -0.0698859 0.000236561
0.02125 3.61401e-20 0.00356872 0.140776 -0.0759018 0.000240119
-0.00375 3.61401e-20 0.02125 0.196807 -0.0724154 0.000776147
0.00375 3.61401e-20 0.02125 0.198424 -0.0738635 0.000814217
-0.021623 0 0 0 0 0
0.021623 -5.42101e-20 0 0 0 0
0.01875 0 0.011217 0.181857 -0.0846555 0.000706691
-0.01875 -1.807e-20 0.011217 0.173575 -0.0766847 0.000586055
0.01125 1.807e-20 0.01875 0.195897 -0.0773824 0.000841313
-0.01125 3.61401e-20 0.01875 0.191029 -0.0728863 0.000730066
-0.02125 0 0.00608215 0.153296 -0.0762558 0.000403455
0.02125 1.807e-20 0.00608215 0.162234 -0.0843146 0.000451247
0.00625 3.61401e-20 0.02125 0.198978 -0.074348 0.000827392
-0.00625 3.61401e-20 0.02125 0.196283 -0.0719346 0.000763945
0.02 1.0842e-19 0.00994629 0.178281 -0.0854337 0.000654071
-0.02 1.0842e-19 0.00994629 0.169474 -0.0769868 0.000544716
0.01 1.0842e-19 0.02 0.197733 -0.0761035 0.000842652
-0.01 1.0842e-19 0.02 0.193414 -0.0721739 0.00074215
0.0225 1.0842e-19 0 0 0 0
-0.0225 -1.0842e-19 0 0 0 0
-1.024e-14 1.0842e-19 0.0225 0.199615 -0.072154 0.000791085
0.0225 0 0.00233887 0.118884 -0.0641695 0.00016185
-0.0225 1.0842e-19 0.00233887 0.111851 -0.0598056 0.000166542
0.0025 1.0842e-19 0.0225 0.200158 -0.0726284 0.000803842
-0.0025 1.0842e-19 0.0225 0.199081 -0.0716805 0.000778585
-0.02125 -1.807e-20 0.008656 0.165015 -0.077143 0.00050109
0.02125 9.03502e-21 0.008656 0.174321 -0.0860017 0.000595689
0.01625 0 0.0162494 0.192533 -0.0804597 0.00083295
-0.01625 0 0.0162494 0.185449 -0.0737728 0.000683262
0.00875 0 0.02125 0.19954 -0.0748333 0.000840822
-0.00875 -1.807e-20 0.02125 0.195766 -0.0714549 0.000751978
0.0225 -1.0842e-19 0.00479858 0.1529 -0.08109 0.000345975
-0.0225 1.0842e-19 0.00479858 0.143903 -0.0735348 0.000320068
0.0175 1.0842e-19 0.0149988 0.190331 -0.0817201 0.000810929
-0.0175 1.0842e-19 0.0149988 0.182667 -0.0744336 0.000659651
0.005 1.0842e-19 0.0225 0.200708 -0.0731035 0.000816849
-0.005 1.0842e-19 0.0225 0.198553 -0.0712078 0.000766329
0.015 1.0842e-19 0.0175 0.19453 -0.0791731 0.000845687
-0.015 1.0842e-19 0.0175 0.188016 -0.0730879 0.000701882
0.01875 -1.807e-20 0.0137433 0.188028 -0.0829643 0.000785331
-0.01875 3.61401e-20 0.0137433 0.179779 -0.0750751 0.000634993
0.01375 0 0.01875 0.196475 -0.0778871 0.000854923
-0.01375 0 0.01875 0.190524 -0.0723929 0.00071883
0.023377 0 0 0 0 0
-0.023377 -1.6263e-19 0 0 0 0
0.02 1.0842e-19 0.0124878 0.185346 -0.084113 0.000753148
-0.02 1.0842e-19 0.0124878 0.176523 -0.0756447 0.000607937
0.0125 1.0842e-19 0.02 0.198308 -0.0765989 0.000856355
-0.0125 1.0842e-19 0.02 0.192907 -0.0716878 0.000730631
0.0225 1.0842e-19 0.00736572 0.168973 -0.0856873 0.000529042
-0.0225 1.0842e-19 0.00736572 0.159281 -0.0766697 0.000453397
0.0075 1.0842e-19 0.0225 0.201265 -0.0735793 0.000830107
-0.0075 1.0842e-19 0.0225 0.198033 -0.0707361 0.000754309
0.02375 -3.61401e-20 0.00116943 0.0860843 -0.046326 8.69468e-05
-0.02375 -2.71051e-20 0.00116944 0.0807474 -0.0439687 9.59828e-05
0.00125 3.61401e-20 0.02375 0.201867 -0.0714078 0.000790753
-0.00125 3.61401e-20 0.02375 0.201329 -0.0709427 0.00077825
0.02375 9.03502e-21 0.00356872 0.1413 -0.076234 0.000240264
-0.02375 -9.03502e-21 0.00356873 0.132464 -0.069517 0.000236158
-0.02125 0 0.011217 0.173076 -0.0761646 0.000578798
0.02125 3.61401e-20 0.011217 0.182467 -0.0851954 0.00071573
0.01125 3.61401e-20 0.02125 0.20011 -0.0753193 0.000854526
-0.01125 -1.807e-20 0.02125 0.195256 -0.0709763 0.000740235
0.00375 0 0.02375 0.202413 -0.0718736 0.000803514
-0.00375 0 0.02375 0.200798 -0.0704783 0.000765998
-0.024123 1.0842e-19 0 0 0 0
0.024123 -5.42101e-20 0 0 0 0
-0.02375 0 0.00608215 0.152826 -0.0757812 0.000400636
0.02375 1.807e-20 0.00608215 0.162822 -0.0847824 0.000454235
0.00625 3.61401e-20 0.02375 0.202967 -0.07234 0.000816525
-0.00625 -1.807e-20 0.02375 0.200275 -0.0700147 0.000753985
0.0225 1.0842e-19 0.00994629 0.178893 -0.0859685 0.000661753
-0.0225 1.0842e-19 0.00994629 0.168979 -0.0764694 0.00053848
0.01 1.0842e-19 0.0225 0.201831 -0.0740558 0.000843635
-0.01 1.0842e-19 0.0225 0.19752 -0.0702654 0.000742521
0.0175 1.0842e-19 0.0175 0.195122 -0.0796872 0.000859285
-0.0175 1.0842e-19 0.0175 0.187518 -0.0725895 0.000691292
0.01875 -1.807e-20 0.0162494 0.193131 -0.0809821 0.0008461
-0.01875 1.807e-20 0.0162494 0.184953 -0.0732685 0.000673167
0.01625 3.61401e-20 0.01875 0.197062 -0.0783926 0.000868844
-0.01625 3.61401e-20 0.01875 0.190025 -0.071901 0.000707803
0.02 1.0842e-19 0.0149988 0.190934 -0.0822494 0.000823333
-0.02 1.0842e-19 0.0149988 0.182171 -0.0739242 0.000650193
0.015 1.0842e-19 0.02 0.19889 -0.077095 0.000870365
-0.015 1.0842e-19 0.02 0.192406 -0.071203 0.000719328
0.025 0 0 0 0 0
-0.025 1.0842e-19 0 0 0 0
-1.024e-14 1.0842e-19 0.025 0.203502 -0.0702183 0.000770976
0.025 0 0.00233887 0.11933 -0.0643833 0.000161527
-0.025 1.0842e-19 0.00233887 0.11151 -0.0595416 0.000166649
0.0025 1.0842e-19 0.025 0.204045 -0.0706749 0.000783352
-0.0025 1.0842e-19 0.025 0.202968 -0.0697623 0.000758853
0.02375 -1.807e-20 0.008656 0.174932 -0.0865272 0.000601915
-0.02375 3.61401e-20 0.008656 0.164525 -0.0766308 0.000495918
0.02125 0 0.0137433 0.188637 -0.0834998 0.00079687
-0.02125 0 0.0137433 0.179283 -0.0745613 0.000626213
0.01375 3.61401e-20 0.02125 0.200688 -0.0758059 0.000868529
-0.00875 0 0.02375 0.199758 -0.069552 0.000742202
-0.01375 3.61401e-20 0.02125 0.194752 -0.0704989 0.000728714
0.00875 0 0.02375 0.203529 -0.0728069 0.000829802
0.025 0 0.00479858 0.153464 -0.0814947 0.000347467
-0.025 1.0842e-19 0.00479858 0.14346 -0.073107 0.000318495
0.005 1.0842e-19 0.025 0.204595 -0.071132 0.000795983
-0.005 1.0842e-19 0.025 0.20244 -0.069307 0.000746971
0.0225 1.0842e-19 0.0124878 0.18596 -0.0846518 0.000763579
-0.0225 1.0842e-19 0.0124878 0.176028 -0.075128 0.000599929
0.0125 1.0842e-19 0.0225 0.202405 -0.0745327 0.000857456
-0.0125 1.0842e-19 0.0225 0.197014 -0.0697957 0.000730961
0.025877 0 0 0 0 0
-0.025877 1.0842e-19 0 0 0 0
0.025 1.0842e-19 0.00736572 0.169578 -0.0861875 0.000533694
-0.025 1.0842e-19 0.00736572 0.158803 -0.0761736 0.000449376
0.0075 1.0842e-19 0.025 0.205153 -0.0715896 0.000808871
-0.0075 1.0842e-19 0.025 0.20192 -0.0688524 0.000735322
-0.02375 0 0.011217 0.172583 -0.0756462 0.000571598
0.02375 0 0.011217 0.183085 -0.0857358 0.000724932
0.02625 -9.03502e-21 0.00116943 0.0864111 -0.0464197 8.64321e-05
-0.02625 0 0.00116944 0.0805073 -0.0438207 9.63807e-05
0.00125 0 0.02625 0.205651 -0.0694963 0.00076087
-0.01125 -1.807e-20 0.02375 0.199249 -0.0690902 0.000730651
0.01125 3.61401e-20 0.02375 0.204099 -0.0732743 0.00084336
-0.00125 0 0.02625 0.205112 -0.0690488 0.000748932
0.02625 9.03502e-21 0.00356872 0.14183 -0.0765629 0.000240423
-0.02625 9.03502e-21 0.00356873 0.132057 -0.069147 0.000235729
0.00375 3.61401e-20 0.02625 0.206198 -0.0699442 0.000773063
-0.00375 0 0.02625 0.20458 -0.0686018 0.000737236
0.01875 3.61401e-20 0.01875 0.197656 -0.0788987 0.000883089
-0.01875 0 0.01875 0.189533 -0.0714105 0.000696985
0.02 1.0842e-19 0.0175 0.195722 -0.0802021 0.000873189
0.0175 1.0842e-19 0.02 0.19948 -0.0775917 0.000884699
-0.0175 1.0842e-19 0.02 0.191912 -0.0707195 0.000708238
-0.02 1.0842e-19 0.0175 0.187028 -0.0720928 0.000680894
-0.026623 1.0842e-19 0 0 0 0
0.026623 1.0842e-19 0 0 0 0
0.02125 -1.807e-20 0.0162494 0.193736 -0.0815052 0.000859537
-0.02125 0 0.0162494 0.184463 -0.0727659 0.000663234
-0.01625 0 0.02125 0.194256 -0.0700227 0.000717414
0.01625 3.61401e-20 0.02125 0.201274 -0.0762931 0.00088285
0.025 1.0842e-19 0.00994629 0.179512 -0.0865036 0.000669571
-0.025 1.0842e-19 0.00994629 0.16849 -0.0759535 0.000532283
0.01 1.0842e-19 0.025 0.205718 -0.0720476 0.000822033
-0.01 1.0842e-19 0.025 0.201407 -0.0683986 0.000723905
0.02625 1.807e-20 0.00608215 0.163418 -0.0852489 0.000457277
-0.02625 9.03502e-21 0.00608215 0.152362 -0.0753072 0.000397777
0.00625 0 0.02625 0.206752 -0.0703926 0.000785504
-0.00625 0 0.02625 0.204057 -0.0681555 0.000725768
0.0225 1.0842e-19 0.0149988 0.191545 -0.0827795 0.000835995
-0.0225 1.0842e-19 0.0149988 0.181681 -0.0734166 0.000640878
0.015 1.0842e-19 0.0225 0.202986 -0.0750102 0.000871591
-0.015 1.0842e-19 0.0225 0.196514 -0.0693271 0.000719621
-0.02375 -1.807e-20 0.0137433 0.178794 -0.0740492 0.000617544
0.02375 3.61401e-20 0.0137433 0.189254 -0.0840361 0.000808644
0.01375 3.61401e-20 0.02375 0.204676 -0.0737421 0.000857225
-0.01375 3.61401e-20 0.02375 0.198746 -0.0686293 0.000719331
0.0275 1.0842e-19 0 0 0 0
-0.0275 1.0842e-19 0 0 0 0
-1.02399e-14 1.0842e-19 0.0275 0.207171 -0.0683653 0.000731649
-0.0275 1.0842e-19 0.00233887 0.111174 -0.0592759 0.000166736
0.0275 0 0.00233887 0.119784 -0.0645932 0.000161208
0.0025 1.0842e-19 0.0275 0.207715 -0.0688043 0.000743285
-0.0025 1.0842e-19 0.0275 0.206635 -0.0679267 0.000720255
0.02625 1.807e-20 0.008656 0.175551 -0.0870526 0.000608254
-0.02625 3.61401e-20 0.008656 0.164042 -0.07612 0.000490756
0.00875 -1.807e-20 0.02625 0.207314 -0.0708413 0.000798205
-0.00875 0 0.02625 0.20354 -0.0677098 0.000714528
0.0275 0 0.00479858 0.154036 -0.0818969 0.000348994
-0.0275 1.0842e-19 0.00479858 0.143023 -0.0726789 0.000316891
0.025 1.0842e-19 0.0124878 0.186581 -0.0851913 0.000774212
-0.025 1.0842e-19 0.0124878 0.17554 -0.0746132 0.00059201
0.005 1.0842e-19 0.0275 0.208266 -0.0692436 0.00075517
-0.005 1.0842e-19 0.0275 0.206106 -0.0674886 0.000709095
0.0125 1.0842e-19 0.025 0.206292 -0.0725059 0.000835488
-0.0125 1.0842e-19 0.025 0.200901 -0.0679456 0.000712715
0.02 1.0842e-19 0.02 0.200078 -0.0780889 0.000899369
-0.02 1.0842e-19 0.02 0.191425 -0.0702375 0.000697355
-0.02125 -1.807e-20 0.01875 0.189047 -0.0709215 0.000686362
0.02125 -1.807e-20 0.01875 0.19826 -0.0794055 0.000897665
-0.01875 3.61401e-20 0.02125 0.193767 -0.0695478 0.000706321
0.01875 1.807e-20 0.02125 0.201868 -0.0767806 0.000897505
0.028377 0 0 0 0 0
-0.028377 1.0842e-19 0 0 0 0
0.0275 1.0842e-19 0.00736572 0.170192 -0.086687 0.000538431
-0.0275 1.0842e-19 0.00736572 0.15833 -0.0756785 0.00044535
0.0075 1.0842e-19 0.0275 0.208825 -0.0696832 0.000767307
-0.0075 1.0842e-19 0.0275 0.205585 -0.067051 0.000698163
0.0225 1.0842e-19 0.0175 0.19633 -0.0807175 0.000887404
0.0175 1.0842e-19 0.0225 0.203576 -0.075488 0.000886058
-0.0175 1.0842e-19 0.0225 0.196022 -0.0688597 0.0007085
-0.0225 1.0842e-19 0.0175 0.186543 -0.0715977 0.000670678
0.02625 0 0.011217 0.183711 -0.0862767 0.0007343
-0.02625 0 0.011217 0.172096 -0.0751296 0.000564465
-0.01125 3.61401e-20 0.02625 0.20303 -0.0672647 0.000703519
0.01125 3.61401e-20 0.02625 0.207884 -0.0712902 0.00081119
0.02875 0 0.00116943 0.0867429 -0.0465097 8.59003e-05
-0.02875 9.03502e-21 0.00116944 0.0802709 -0.0436708 9.67625e-05
-0.02375 0 0.0162494 0.183979 -0.0722648 0.000653464
0.02375 3.61401e-20 0.0162494 0.194349 -0.0820291 0.000873243
0.01625 1.807e-20 0.02375 0.205262 -0.0742101 0.000871418
-0.01625 3.61401e-20 0.02375 0.198251 -0.0681696 0.000708227
0.00125 5.42101e-20 0.0287506 0.209199 -0.067691 0.000711396
-0.00125 -5.42101e-20 0.0287506 0.208658 -0.0672609 0.00070035
0.02875 -1.807e-20 0.00356872 0.142369 -0.0768883 0.000240604
-0.02875 1.807e-20 0.00356873 0.131656 -0.068776 0.00023526
0.00375 -1.807e-20 0.0287506 0.209748 -0.0681214 0.000722676
-0.00375 0 0.0287506 0.208125 -0.0668311 0.000689537
-0.029123 5.42101e-20 0 0 0 0
0.029123 0 0 0 0 0
0.025 1.0842e-19 0.0149988 0.192164 -0.0833103 0.000848922
-0.025 1.0842e-19 0.0149988 0.181197 -0.0729108 0.000631702
0.015 1.0842e-19 0.025 0.206874 -0.0729644 0.000849257
-0.015 1.0842e-19 0.025 0.200402 -0.0674935 0.000701742
0.0275 1.0842e-19 0.00994629 0.18014 -0.0870388 0.000677535
-0.0275 1.0842e-19 0.00994629 0.168007 -0.0754392 0.000526127
0.01 1.0842e-19 0.0275 0.209392 -0.0701229 0.000779711
-0.01 1.0842e-19 0.0275 0.205071 -0.066614 0.000687456
0.02875 0 0.00608215 0.164022 -0.0857136 0.000460382
-0.02875 -5.42101e-20 0.00608215 0.151903 -0.0748336 0.000394902
0.00625 3.61401e-20 0.0287506 0.210304 -0.068552 0.000734204
-0.00625 3.61401e-20 0.0287506 0.207598 -0.0664017 0.000678951
0.02625 3.61401e-20 0.0137433 0.189878 -0.084573 0.000820661
-0.02625 3.61401e-20 0.0137433 0.17831 -0.073539 0.000608991
0.01375 3.61401e-20 0.02625 0.208462 -0.0717393 0.000824474
-0.01375 0 0.02625 0.202527 -0.0668205 0.00069273
0.03 1.0842e-19 0 0 0 0
-0.03 1.0842e-19 0 0 0 0
8.39715e-13 1.0842e-19 0.0300012 0.210567 -0.0666475 0.000673354
0.02875 1.807e-20 0.008656 0.176179 -0.0875777 0.000614712
-0.02875 0 0.008656 0.163564 -0.0756106 0.000485616
0.02125 1.807e-20 0.02125 0.20247 -0.0772685 0.000912503
-0.02125 1.807e-20 0.02125 0.193283 -0.0690742 0.000695442
-0.00875 3.61401e-20 0.0287506 0.20708 -0.0659727 0.000668585
0.00875 0 0.0287506 0.210868 -0.0689828 0.000745982
0.03 -1.0842e-19 0.00233887 0.120243 -0.0647989 0.00016089
-0.03 1.0842e-19 0.00233887 0.110843 -0.0590086 0.000166796
0.0225 1.0842e-19 0.02 0.200685 -0.0785865 0.000914385
0.02 1.0842e-19 0.0225 0.204175 -0.075966 0.000900872
-0.02 1.0842e-19 0.0225 0.195536 -0.0683934 0.000697594
-0.0225 1.0842e-19 0.02 0.190944 -0.0697569 0.00068668
0.0025 1.0842e-19 0.0300012 0.211113 -0.0670694 0.000683968
-0.0025 1.0842e-19 0.0300012 0.210028 -0.0662259 0.000662963
0.0275 1.0842e-19 0.0124878 0.187211 -0.0857314 0.000785057
-0.0275 1.0842e-19 0.0124878 0.175057 -0.0741002 0.000584182
0.0125 1.0842e-19 0.0275 0.209968 -0.0705628 0.000792399
-0.0125 1.0842e-19 0.0275 0.204563 -0.0661776 0.000676969
0.01875 0 0.02375 0.205856 -0.0746784 0.000885952
-0.01875 0 0.02375 0.197762 -0.0677109 0.000697339
-0.02375 0 0.01875 0.188569 -0.0704341 0.000675937
0.02375 3.61401e-20 0.01875 0.198871 -0.0799127 0.000912586
0.03 -1.0842e-19 0.00479858 0.154616 -0.0822965 0.000350563
-0.03 1.0842e-19 0.00479858 0.142592 -0.0722506 0.000315263
0.005 1.0842e-19 0.0300012 0.211667 -0.0674914 0.000694809
-0.005 1.0842e-19 0.0300012 0.209496 -0.0658045 0.000652794
0.0175 1.0842e-19 0.025 0.207465 -0.073423 0.000863359
0.025 1.0842e-19 0.0175 0.196946 -0.0812335 0.000901938
-0.0175 1.0842e-19 0.025 0.19991 -0.0670424 0.000690983
-0.025 1.0842e-19 0.0175 0.186065 -0.0711042 0.000660638
-0.02875 -1.807e-20 0.011217 0.171615 -0.0746147 0.000557399
0.02875 0 0.011217 0.184345 -0.0868179 0.000743854
0.02625 3.61401e-20 0.0162494 0.194971 -0.0825535 0.000887242
-0.02625 0 0.0162494 0.183501 -0.0717656 0.000643856
0.01625 0 0.02625 0.209049 -0.0721883 0.000838077
-0.01625 3.61401e-20 0.02625 0.202031 -0.0663771 0.000682142
0.01125 0 0.0287506 0.211441 -0.0694136 0.000758029
-0.01125 0 0.0287506 0.206567 -0.0655443 0.00065844
0.030877 0 0 0 0 0
-0.030877 1.0842e-19 0 0 0 0
0.03 1.0842e-19 0.00736572 0.170813 -0.0871854 0.000543265
-0.03 1.0842e-19 0.00736572 0.157863 -0.0751845 0.000441328
0.0075 1.0842e-19 0.0300012 0.21223 -0.0679135 0.000705891
-0.0075 1.0842e-19 0.0300012 0.208971 -0.0653835 0.00064284
0.03125 -9.03502e-21 0.00116943 0.0870801 -0.0465956 8.53619e-05
-0.03125 -1.807e-20 0.00116944 0.0800382 -0.0435192 9.71208e-05
0.00125 1.807e-20 0.0312567 0.212435 -0.0660506 0.000643212
-0.00125 -1.807e-20 0.0312567 0.21189 -0.0656371 0.000633291
0.0275 1.0842e-19 0.0149988 0.192792 -0.0838416 0.000862126