# UMean  POINT_DATA 26382
# x  y  z  UMean_x  UMean_y  UMean_z
0 -0.000876979 6.01824e-09 2.96547e-07 -1.59585e-07 3.09139e-10
0 0.000373006 0.00116944 0.0928156 -0.0502573 9.76209e-05
8.27181e-25 0.001623 4.67384e-09 2.29719e-07 -1.25154e-07 2.39728e-10
1.03398e-25 -0.000876994 0.00215245 0.10671 -0.0568782 0.000153523
0 -0.00212699 0.00116944 0.0930503 -0.0497682 9.7658e-05
2.06795e-25 0.001623 0.00182382 0.0901729 -0.0486452 0.000129991
-1.03398e-25 -0.000876994 0.00233887 0.115952 -0.0618044 0.000166819
2.06795e-25 0.001623 0.00233887 0.115638 -0.0623825 0.0001667
-1.0842e-19 0.00287301 0.00116943 0.0925772 -0.0507479 9.7554e-05
0 -0.00236739 0.00233887 0.116137 -0.061461 0.00016669
0 -0.00337698 7.72602e-09 3.92359e-07 -2.08459e-07 4.07696e-10
-1.0842e-19 0.000373002 0.00356873 0.139144 -0.0741184 0.000236912
0 -0.003377 0.00233887 0.116263 -0.0612284 0.000166602
0 0.00412303 4.87104e-09 2.38794e-07 -1.31708e-07 2.49611e-10
1.0842e-19 -0.002127 0.00356872 0.139536 -0.073451 0.000237301
0 0.00412301 0.00187853 0.0926207 -0.0505698 0.000133771
1.0842e-19 0.002873 0.00356872 0.138747 -0.0747868 0.000236926
0 -0.003377 0.00327131 0.128912 -0.0669545 0.000229968
0 0.00412301 0.00233887 0.115318 -0.0629621 0.000166552
1.0842e-19 -0.004627 0.00116943 0.0932824 -0.0492821 9.69688e-05
-1.03398e-25 -0.000876999 0.00479858 0.149212 -0.0770064 0.000335062
0 0.001623 0.00479858 0.148786 -0.0776815 0.000335204
0 0.00537301 0.00116944 0.0923353 -0.0512404 9.74306e-05
-1.0842e-19 -0.004627 0.00356872 0.139921 -0.0727869 0.000236699
-1.03398e-25 -0.003377 0.00479858 0.149631 -0.0763335 0.000333756
0 -0.005877 8.41764e-09 4.28533e-07 -2.24889e-07 4.40872e-10
0 0.000373001 0.00608215 0.158998 -0.0806156 0.000435354
1.23491e-20 -0.005877 0.00233887 0.116567 -0.060655 0.000165509
2.06795e-25 0.004123 0.00479858 0.148351 -0.0783561 0.000334135
-2.1684e-19 -0.002127 0.00608215 0.159452 -0.0799337 0.000433513
2.1684e-19 0.005373 0.00356873 0.138342 -0.0754565 0.00023651
-8.27181e-25 0.00662302 5.69423e-09 2.78415e-07 -1.55457e-07 2.89833e-10
-1.0842e-19 0.002873 0.00608215 0.158536 -0.0812987 0.000434466
-5.16988e-25 0.006623 0.00206606 0.101578 -0.0561294 0.000146306
0 -0.005877 0.00373585 0.13558 -0.0691782 0.000259722
0 0.006623 0.00233887 0.114991 -0.063541 0.000165624
2.1684e-19 -0.00712701 0.00116943 0.0935112 -0.0487996 9.58159e-05
0 -0.000876999 0.00736572 0.165057 -0.0807029 0.000486717
-1.03398e-25 0.001623 0.00736572 0.164581 -0.08137 0.000487455
0 -0.005877 0.00479858 0.150043 -0.0756621 0.000331394
1.0842e-19 -0.004627 0.00608215 0.159901 -0.0792552 0.000430309
0 0.007873 0.00116944 0.0920892 -0.0517336 9.66179e-05
1.0842e-19 -0.007127 0.00356872 0.140296 -0.0721232 0.000234763
5.16988e-26 -0.003377 0.00736572 0.165524 -0.0800362 0.000483871
1.0842e-19 0.005373 0.00608215 0.15806 -0.0819757 0.000431455
2.06795e-25 0.006623 0.00479858 0.147904 -0.0790266 0.000332065
0 -0.008377 8.14506e-09 4.15656e-07 -2.15464e-07 4.21499e-10
0 0.004123 0.00736572 0.164095 -0.0820359 0.000485624
0 0.007873 0.00356873 0.137925 -0.0761192 0.000234135
0 0.000373 0.00865601 0.170654 -0.0814576 0.00054048
-2.57643e-20 -0.008377 0.00233887 0.116865 -0.0600842 0.000163763
-1.0842e-19 -0.002127 0.008656 0.171143 -0.0808061 0.00053771
7.75482e-26 -0.008377 0.00347115 0.132323 -0.0669465 0.000239464
2.1684e-19 0.002873 0.008656 0.170156 -0.0821094 0.000539708
0 0.009123 5.76164e-09 2.80952e-07 -1.58805e-07 2.88776e-10
1.03398e-25 0.009123 0.00210367 0.103126 -0.0576701 0.000147167
0 -0.007127 0.00608215 0.16034 -0.0785755 0.000426568
0 0.009123 0.00233887 0.114656 -0.064118 0.000163621
5.16988e-26 -0.005877 0.00736572 0.165983 -0.0793695 0.000480375
1.03398e-25 -0.008377 0.00479858 0.150445 -0.0749915 0.000328213
1.0842e-19 -0.009627 0.00116944 0.0937351 -0.0483207 9.45929e-05
0 -0.004627 0.00865601 0.171621 -0.0801512 0.000534139
1.03398e-25 0.006623 0.00736572 0.163596 -0.0826994 0.000483187
1.0842e-19 0.007873 0.00608215 0.157569 -0.0826486 0.000428955
2.58494e-26 -0.000877 0.00994629 0.174868 -0.0805504 0.00058313
0 0.001623 0.00994629 0.174368 -0.08119 0.000584711
-3.25261e-19 0.005373 0.008656 0.169647 -0.0827613 0.000537057
1.0842e-19 -0.009627 0.00356873 0.140663 -0.0714622 0.000232076
0 0.009123 0.00479858 0.147444 -0.0796941 0.000329707
-1.0842e-19 0.010373 0.00116944 0.091837 -0.0522253 9.5023e-05
0 -0.003377 0.00994629 0.175359 -0.07991 0.000580382
-2.58494e-26 0.004123 0.00994629 0.173857 -0.0818302 0.00058475
0 -0.010877 7.63523e-09 3.90554e-07 -1.99983e-07 3.89999e-10
0 0.010373 0.00356873 0.137497 -0.0767825 0.000230881
-8.8696e-21 -0.010877 0.00233887 0.117156 -0.0595161 0.000161569
0 -0.008377 0.00736572 0.166433 -0.0787029 0.000476583
1.0842e-19 -0.007127 0.008656 0.17209 -0.0794975 0.00053067
0 0.000373 0.011217 0.178566 -0.0802863 0.000628013
0 -0.010877 0.00320213 0.128978 -0.0647126 0.00021867
0 -0.009627 0.00608215 0.160771 -0.0778976 0.000422182
-2.1684e-19 -0.002127 0.011217 0.179068 -0.0796575 0.000625853
0 -0.005877 0.00994629 0.17584 -0.079269 0.00057707
1.0842e-19 0.002873 0.011217 0.178053 -0.0809128 0.000630173
0 0.011623 5.15475e-09 2.50661e-07 -1.4342e-07 2.53869e-10
-2.1684e-19 0.007873 0.008656 0.169127 -0.0834134 0.000535472
0 0.009123 0.00736572 0.163084 -0.0833611 0.000481761
-2.06795e-25 0.011623 0.00189818 0.0927732 -0.052504 0.000131103
-2.06795e-25 0.011623 0.00233887 0.114312 -0.0646935 0.000161541
0 -0.010877 0.00479858 0.150839 -0.0743225 0.000324269
2.58494e-26 0.006623 0.00994629 0.173336 -0.0824708 0.000584211
-1.0842e-19 0.010373 0.00608215 0.157066 -0.0833198 0.000427668
-1.0842e-19 -0.004627 0.011217 0.179562 -0.0790313 0.000623359
-1.0842e-19 -0.012127 0.00116943 0.093953 -0.0478447 9.34722e-05
0 0.005373 0.011217 0.177531 -0.0815434 0.000631573
0 -0.000877 0.0124878 0.181814 -0.0790848 0.000654201
0 0.011623 0.00479858 0.146973 -0.0803607 0.000327933
0 0.001623 0.0124878 0.181306 -0.0797026 0.000657994
-1.0842e-19 -0.012127 0.00356873 0.141021 -0.0708027 0.000228296
-2.1684e-19 0.012873 0.00116944 0.0915775 -0.0527146 9.35208e-05
3.23117e-27 -0.003377 0.0124878 0.182314 -0.078468 0.000650306
-1.0842e-19 -0.009627 0.008656 0.172551 -0.0788426 0.0005271
0 -0.008377 0.00994629 0.176313 -0.078628 0.000573125
0 -0.010877 0.00736572 0.166874 -0.0780369 0.000472313
0 0.004123 0.0124878 0.180788 -0.0803213 0.000661159
0 -0.007127 0.011217 0.180045 -0.0784018 0.000619642
1.0842e-19 0.012873 0.00356872 0.137058 -0.0774427 0.000228893
0 -0.013377 7.2543e-09 3.71916e-07 -1.88123e-07 3.65367e-10
-2.58494e-26 0.009123 0.00994629 0.172802 -0.0831101 0.000584175
-1.0842e-19 0.010373 0.00865601 0.168593 -0.0840639 0.000535144
2.1684e-19 -0.012127 0.00608215 0.161191 -0.0772195 0.000417242
1.21394e-19 -0.013377 0.00233887 0.117441 -0.0589508 0.000159237
0 0.007873 0.011217 0.176997 -0.0821715 0.000632238
-1.0842e-19 0.000373 0.0137433 0.184547 -0.0785043 0.00068414
0 0.011623 0.00736572 0.162559 -0.0840208 0.000481397
-2.58494e-26 -0.013377 0.0033489 0.131313 -0.0649885 0.000225353
0 -0.005877 0.0124878 0.182806 -0.0778523 0.000646001
1.0842e-19 -0.002127 0.0137433 0.185052 -0.077898 0.000678575
-1.0842e-19 0.002873 0.0137433 0.184034 -0.0791143 0.000689412
0 0.014123 3.99365e-09 1.87705e-07 -1.08662e-07 1.88204e-10
0 0.006623 0.0124878 0.180259 -0.0809408 0.000663513
4.1359e-25 0.014123 0.0013649 0.0665029 -0.0380879 9.3441e-05
0 -0.013377 0.00479858 0.151225 -0.0736542 0.000320249
-1.0842e-19 0.012873 0.00608215 0.156552 -0.0839918 0.000427127
4.1359e-25 0.014123 0.00233887 0.113959 -0.0652669 0.000160119
1.0842e-19 -0.004627 0.0137433 0.18555 -0.0772924 0.000673226
1.0842e-19 -0.014627 0.00116943 0.0941644 -0.0473713 9.21667e-05
0 -0.010877 0.00994629 0.176777 -0.0779878 0.00056858
0 0.005373 0.0137433 0.183508 -0.0797218 0.000693232
0 0.0147711 0 0 0 0
1.0842e-19 -0.009627 0.011217 0.180521 -0.0777758 0.000614624
0 -0.012127 0.008656 0.173005 -0.0781896 0.000522918
-2.06795e-25 0.014123 0.00479858 0.146491 -0.0810249 0.000327165
0 -0.000877 0.0149988 0.187278 -0.0772214 0.000704037
0 -0.008377 0.0124878 0.183288 -0.077237 0.00064102
0 -0.014627 0.00356872 0.141373 -0.0701476 0.000225138
0 0.001623 0.0149988 0.186771 -0.0778189 0.000710705
5.16988e-26 -0.013377 0.00736572 0.167307 -0.0773703 0.000467746
0 0.010373 0.011217 0.17645 -0.082798 0.000633335
2.58494e-26 0.011623 0.00994629 0.172255 -0.083747 0.000585254
0 -0.003377 0.0149988 0.187778 -0.0766252 0.000697486
0 0.015373 0.00116944 0.0913103 -0.0532019 9.24493e-05
-6.46235e-27 0.009123 0.0124878 0.179718 -0.0815601 0.000665652
1.0842e-19 -0.007127 0.0137433 0.186041 -0.0766907 0.000667576
1.0842e-19 0.012873 0.00865601 0.168045 -0.0847089 0.000535846
-4.03897e-28 0.004123 0.0149988 0.186253 -0.078416 0.000716618
-1.0842e-19 0.015373 0.00356872 0.136609 -0.0781025 0.000227765
1.0842e-19 0.007873 0.0137433 0.182973 -0.080334 0.000696749
0 -0.014627 0.00608215 0.161602 -0.0765388 0.000413022
8.27181e-25 -0.015877 6.82727e-09 3.50798e-07 -1.75288e-07 3.38632e-10
-1.03398e-25 0.014123 0.00736572 0.162021 -0.0846769 0.000482269
-2.85264e-20 -0.015877 0.00233887 0.117719 -0.0583883 0.000157208
-2.01948e-28 -0.005877 0.0149988 0.188269 -0.0760308 0.000691367
2.58494e-26 -0.015877 0.00298249 0.126585 -0.0622087 0.000198991
1.0842e-19 0.000373 0.0162494 0.189504 -0.0765373 0.000730799
-1.0842e-19 -0.002127 0.0162494 0.190003 -0.0759483 0.000722576
0 0.006623 0.0149988 0.185725 -0.0790142 0.000722149
-1.0842e-19 0.002873 0.0162494 0.188992 -0.0771222 0.000738407
1.0842e-19 -0.012127 0.011217 0.180987 -0.0771488 0.000609222
-1.0842e-19 0.015373 0.00608215 0.156024 -0.0846566 0.000427732
0 -0.010877 0.0124878 0.18376 -0.0766213 0.000635756
-1.03398e-25 -0.015877 0.00479858 0.151603 -0.0729887 0.000316887
3.30872e-24 0.016623 1.14127e-08 5.77247e-07 -3.38669e-07 5.92056e-10
0 -0.013377 0.00994629 0.177231 -0.0773468 0.000563556
0 -0.009627 0.0137433 0.18652 -0.0760865 0.000662043
0 0.016623 0.00233887 0.113596 -0.0658396 0.000159772
2.1684e-19 -0.004627 0.0162494 0.190498 -0.0753645 0.000715511
-1.0842e-19 -0.014627 0.00865601 0.173449 -0.0775349 0.00051799
0 0.011623 0.0124878 0.179164 -0.082178 0.000668399
0 0.012873 0.011217 0.17589 -0.0834236 0.00063617
1.0842e-19 0.005373 0.0162494 0.188471 -0.0777083 0.000745356
0 -0.017127 0.00116943 0.0943711 -0.046901 9.07779e-05
2.01948e-28 -0.008377 0.0149988 0.188751 -0.0754364 0.00068528
1.0842e-19 0.010373 0.0137433 0.182426 -0.0809442 0.000700019
-2.58494e-26 0.014123 0.00994629 0.171693 -0.0843799 0.000588119
0 0.016623 0.00479858 0.145997 -0.0816881 0.00032779
-1.0842e-19 -0.017127 0.00356872 0.141716 -0.0694934 0.000222854
0 -0.015877 0.00736572 0.167731 -0.0767054 0.000463247
-2.47702e-28 -0.000877 0.0174912 0.191925 -0.0752691 0.00073933
0 -0.000877 0.0175 0.191941 -0.0752622 0.000739454
4.03897e-28 0.009123 0.0149988 0.185186 -0.0796129 0.000727806
-2.11415e-28 0.001623 0.0174922 0.191426 -0.0758444 0.000747654
0 0.001623 0.0175 0.191441 -0.0758382 0.00074777
0 0.015373 0.008656 0.167482 -0.0853514 0.000538569
0 -0.007127 0.0162494 0.190981 -0.0747778 0.000709101
-4.10208e-29 -0.003377 0.0174891 0.192412 -0.0746946 0.000730829
-1.91544e-20 -0.003377 0.0175 0.192432 -0.0746861 0.000730976
-1.0842e-19 0.017873 0.00116944 0.0910343 -0.0536872 9.23841e-05
0 0.004123 0.0174928 0.190918 -0.0764186 0.000755572
-1.57772e-30 0.004123 0.0175 0.190931 -0.0764128 0.000755684
-1.0842e-19 0.007873 0.0162494 0.18794 -0.0782953 0.000753188
0 -0.017127 0.00608215 0.162009 -0.0758666 0.000409216
1.03398e-25 0.016623 0.00736572 0.161469 -0.0853304 0.000485078
1.0842e-19 0.017873 0.00356872 0.136149 -0.0787637 0.000228646
0 -0.013377 0.0124878 0.184222 -0.0760043 0.000629964
0 -0.012127 0.0137433 0.186988 -0.0754807 0.000656941
8.27181e-25 -0.018377 6.59756e-09 3.39727e-07 -1.67699e-07 3.23581e-10
-1.0842e-19 -0.014627 0.011217 0.181442 -0.0765192 0.00060364
1.00974e-28 -0.005877 0.0174846 0.192888 -0.0741235 0.000722588
-1.57772e-30 -0.005877 0.0175 0.192916 -0.0741117 0.000722782
5.65533e-20 -0.018377 0.00233887 0.11799 -0.0578281 0.0001555
-2.01948e-28 -0.010877 0.0149988 0.189225 -0.0748427 0.000678988
-2.58494e-26 -0.018377 0.00268468 0.122767 -0.0598663 0.00017772
0 0.006623 0.0174931 0.1904 -0.0769947 0.000763864
0 0.006623 0.0175 0.190413 -0.0769891 0.00076398
0 -0.015877 0.00994629 0.177678 -0.0767068 0.00055822
1.0842e-19 0.000373 0.01875 0.193883 -0.074565 0.000756673
1.0842e-19 0.012873 0.0137433 0.181865 -0.0815537 0.000703799
6.46235e-27 0.014123 0.0124878 0.178596 -0.0827929 0.000672988
-1.0842e-19 -0.002127 0.01875 0.194373 -0.0739986 0.000747765
2.1684e-19 0.017873 0.00608215 0.155484 -0.0853238 0.000429896
-1.0842e-19 -0.009627 0.0162494 0.191456 -0.0741929 0.000702346
-1.03398e-25 0.0189411 0 0 0 0
0 0.002873 0.01875 0.193384 -0.0751285 0.000765196
0 0.011623 0.0149988 0.184636 -0.0802116 0.000733665
0 -0.018377 0.00479858 0.151973 -0.0723257 0.000313548
1.0842e-19 0.015373 0.011217 0.175314 -0.0840423 0.000641356
0 0.019123 8.95325e-10 4.4028e-08 -2.61139e-08 4.44946e-11
0 0.019123 0.000442258 0.0214096 -0.0125577 3.04617e-05
0 -0.017127 0.008656 0.173886 -0.0768828 0.000512946
0 0.019123 0.00233887 0.113224 -0.066411 0.000161096
-1.0842e-19 0.010373 0.0162494 0.187397 -0.0788805 0.00076119
0 0.0193054 0 0 0 0
0 -0.004627 0.01875 0.194855 -0.0734333 0.000738048
2.58494e-26 0.016623 0.00994629 0.171118 -0.0850098 0.000593655
-1.10441e-29 -0.008377 0.0174794 0.193354 -0.0735536 0.000714617
-9.67102e-20 -0.008377 0.0175 0.193392 -0.0735379 0.000714861
-1.0842e-19 0.005373 0.01875 0.192877 -0.0756927 0.000773774
-1.0842e-19 -0.019627 0.00116943 0.0945734 -0.0464338 9.01871e-05
0 0.019123 0.00479858 0.145492 -0.0823509 0.000330925
-2.31925e-28 0.009123 0.0174927 0.189871 -0.077571 0.000773174
8.08529e-20 0.009123 0.0175 0.189885 -0.077565 0.000773307
0 -0.018377 0.00736572 0.168148 -0.076042 0.000458413
-1.0842e-19 0.017873 0.008656 0.166906 -0.0859908 0.00054432
-2.1684e-19 -0.019627 0.00356872 0.142051 -0.0688415 0.000220262
-3.54881e-20 -0.000877 0.02 0.196146 -0.07331 0.000756306
1.0842e-19 -0.007127 0.01875 0.195331 -0.0728715 0.000728465
-9.67102e-20 0.001623 0.02 0.195661 -0.0738637 0.000765808
1.0842e-19 -0.014627 0.0137433 0.187446 -0.074875 0.000649861
0 -0.013377 0.0149988 0.189689 -0.0742494 0.000671885
0 -0.015877 0.0124878 0.184677 -0.0753889 0.000623105
1.0842e-19 -0.012127 0.0162494 0.191927 -0.0736129 0.000694571
3.28979e-21 -0.003377 0.02 0.196624 -0.0727562 0.000746813
-1.0842e-19 0.007873 0.01875 0.192363 -0.0762604 0.000783596
0 0.020373 0.00116944 0.0907492 -0.054172 9.28477e-05
8.08456e-20 0.004123 0.02 0.195167 -0.0744166 0.000775485
0 -0.017127 0.011217 0.181893 -0.0758955 0.000597855
-1.03398e-25 0.019123 0.00736572 0.160904 -0.085983 0.000490716
-1.0842e-19 -0.019627 0.00608215 0.162406 -0.0751924 0.000404516
3.31322e-29 -0.010877 0.0174792 0.193822 -0.0729811 0.000706658
0 0.014123 0.0149988 0.184074 -0.0808105 0.000740922
0 -0.010877 0.0175 0.19386 -0.0729655 0.00070689
0 0.015373 0.0137433 0.181289 -0.0821595 0.000710346
0 0.020373 0.00356872 0.135678 -0.0794207 0.000232698
0 0.012873 0.0162494 0.186847 -0.0794704 0.00076957
0 0.016623 0.0124878 0.178014 -0.0834046 0.000680578
-9.67102e-20 -0.005877 0.02 0.197093 -0.0722029 0.000737212
0 -0.020877 7.4195e-09 3.82857e-07 -1.86704e-07 3.61402e-10
0 -0.018377 0.00994629 0.178118 -0.0760685 0.000552493
4.73317e-30 0.011623 0.0174915 0.189331 -0.0781475 0.00078358
-8.6935e-20 -0.020877 0.00233887 0.118255 -0.0572711 0.000153858
-1.91485e-20 0.011623 0.0175 0.189347 -0.0781404 0.000783751
-1.91544e-20 0.006623 0.02 0.194666 -0.0749707 0.00078555
0 -0.009627 0.01875 0.1958 -0.0723097 0.000719531
0 0.017873 0.011217 0.174727 -0.0846615 0.000649827
0 0.000373 0.02125 0.197929 -0.0726101 0.000765353
0 0.020373 0.00608215 0.154932 -0.0859896 0.000435359
0 -0.020877 0.00402827 0.141662 -0.0671572 0.00026095
0 -0.002127 0.02125 0.198401 -0.0720664 0.000755434
-5.16988e-26 -0.020877 0.00479858 0.152335 -0.0716649 0.00030978
1.0842e-19 0.010373 0.01875 0.191839 -0.0768243 0.00079525
1.0842e-19 0.002873 0.02125 0.197447 -0.0731514 0.000776009
0 -0.019627 0.008656 0.174312 -0.0762279 0.000507158
-5.16988e-26 0.019123 0.00994629 0.170528 -0.0856372 0.000602821
1.65436e-24 0.021623 1.13746e-08 5.44506e-07 -3.27284e-07 5.616e-10
-1.91544e-20 -0.008377 0.02 0.197554 -0.071649 0.000727669
1.0842e-19 -0.004627 0.02125 0.198867 -0.0715264 0.000746006
0 0.021623 0.00233888 0.112841 -0.066981 0.000163548
-2.01948e-28 -0.015877 0.0149988 0.190144 -0.0736563 0.000663679
1.0842e-19 -0.014627 0.0162494 0.192387 -0.0730315 0.000686118
1.0842e-19 0.005373 0.02125 0.196959 -0.0736938 0.000786963
0 -0.017127 0.0137433 0.187899 -0.0742724 0.000640883
8.08456e-20 0.009123 0.02 0.194157 -0.075525 0.000796467
-2.05104e-29 -0.013377 0.0174821 0.194286 -0.0724062 0.000698487
-9.67075e-20 -0.013377 0.0175 0.194319 -0.0723928 0.000698679
-1.0842e-19 0.020373 0.00865601 0.166314 -0.0866289 0.000553499
0 -0.020877 0.00736572 0.168556 -0.0753801 0.00045293
0 0.021623 0.00479858 0.144972 -0.0830107 0.000337055
0 -0.022127 0.00116943 0.0947717 -0.0459699 8.95882e-05
3.23117e-27 -0.018377 0.0124878 0.185124 -0.0747759 0.000615975
-1.0842e-19 -0.012127 0.01875 0.196257 -0.0717468 0.00071111
-1.0842e-19 0.015373 0.0162494 0.186285 -0.0800611 0.000779882
0 0.016623 0.0149988 0.183499 -0.0814085 0.000750893
0 -0.022127 0.00356872 0.142379 -0.0681937 0.00021744
-1.0842e-19 -0.007127 0.02125 0.19932 -0.0709804 0.000736329
-1.41995e-28 0.014123 0.0174909 0.188782 -0.0787252 0.000795564
0 0.014123 0.0175 0.1888 -0.0787176 0.000795765
3.28979e-21 -0.000877 0.0225 0.200064 -0.0714044 0.000753806
-2.1684e-19 0.017873 0.0137433 0.180701 -0.0827629 0.000720495
-9.67102e-20 0.001623 0.0225 0.199598 -0.0719376 0.000764425
2.1684e-19 -0.019627 0.011217 0.182336 -0.0752726 0.000591569
0 0.007873 0.02125 0.196464 -0.0742362 0.000797867
-1.0842e-19 0.012873 0.01875 0.191304 -0.0773869 0.000808988
-9.67102e-20 -0.003377 0.0225 0.200521 -0.0708711 0.00074365
-1.91544e-20 -0.010877 0.02 0.198008 -0.0710959 0.000718384
0 0.019123 0.0124878 0.177418 -0.0840133 0.000692206
-1.03398e-25 0.021623 0.00736572 0.160325 -0.0866331 0.000500432
-9.67102e-20 0.004123 0.0225 0.199123 -0.0724688 0.000775331
-2.1684e-19 0.022873 0.00116944 0.0904566 -0.0546575 9.29922e-05
0 -0.022127 0.00608215 0.162797 -0.074523 0.00039953
0 -0.020877 0.00994629 0.178548 -0.0754306 0.000546115
8.08456e-20 0.011623 0.02 0.193638 -0.0760777 0.000809349
0 0.022873 0.00356872 0.135191 -0.0800761 0.000237913
8.08456e-20 -0.005877 0.0225 0.200972 -0.0703387 0.000733932
0 0.020373 0.011217 0.174123 -0.0852746 0.000663073
-1.0842e-19 -0.009627 0.02125 0.199766 -0.0704343 0.000726353
0 -0.023377 8.82567e-09 4.56353e-07 -2.19858e-07 4.27164e-10
3.28979e-21 0.006623 0.0225 0.198641 -0.0730004 0.000786566
6.46421e-20 -0.023377 0.00233887 0.118515 -0.0567173 0.000152046
-1.0842e-19 -0.017127 0.0162494 0.192837 -0.0724486 0.000677806
1.57772e-30 -0.015877 0.017484 0.194739 -0.0718319 0.000690525
0 -0.015877 0.0175 0.194769 -0.0718201 0.000690698
1.0842e-19 0.010373 0.02125 0.195961 -0.0747791 0.000809156
1.0842e-19 0.022873 0.00608215 0.154362 -0.0866506 0.000445191
2.01948e-28 -0.018377 0.0149988 0.190591 -0.0730623 0.000655406
0 0.000373 0.02375 0.201738 -0.0707334 0.000752675
-1.0842e-19 -0.022127 0.008656 0.174732 -0.075579 0.000500701
0 -0.014627 0.01875 0.196704 -0.0711805 0.000702914
0 0.021623 0.00994629 0.169924 -0.0862611 0.00061689
1.0842e-19 -0.002127 0.02375 0.202187 -0.070208 0.000741761
3.23117e-27 -0.023377 0.00477594 0.152376 -0.0708756 0.00030442
0 -0.023377 0.00479858 0.15269 -0.0710071 0.000305836
-1.0842e-19 0.002873 0.02375 0.201278 -0.0712554 0.000763663
1.0842e-19 -0.019627 0.0137433 0.188343 -0.0736696 0.000633419
8.08456e-20 -0.008377 0.0225 0.201416 -0.0698055 0.000724187
-3.23117e-27 -0.0235629 0.00479858 0.152716 -0.0709583 0.00030559
3.28979e-21 -0.013377 0.02 0.198454 -0.070543 0.000709475
0 0.024123 1.1328e-08 5.55686e-07 -3.37921e-07 5.78114e-10
-5.6798e-29 0.016623 0.0174918 0.188227 -0.079303 0.00080948
8.08524e-20 0.016623 0.0175 0.188243 -0.0792961 0.000809671
0 0.017873 0.0162494 0.185712 -0.0806533 0.000792754
-1.0842e-19 -0.004627 0.02375 0.20263 -0.0696836 0.000731399
0 0.024123 0.00233888 0.112446 -0.0675522 0.000166811
1.0842e-19 0.015373 0.01875 0.190762 -0.0779522 0.000824612
-9.67102e-20 0.009123 0.0225 0.198151 -0.0735313 0.000798341
-4.03897e-28 0.019123 0.0149988 0.18291 -0.0820039 0.000764121
-3.23117e-27 -0.020877 0.0124878 0.185563 -0.074163 0.000609287
1.0842e-19 0.005373 0.02375 0.200808 -0.0717748 0.000774688
1.0842e-19 0.022873 0.008656 0.16571 -0.0872642 0.000567898
0 -0.012127 0.02125 0.20021 -0.0698931 0.000716541
-9.67102e-20 0.014123 0.02 0.193111 -0.0766295 0.000824797
0 -0.023377 0.00736572 0.168956 -0.0747205 0.000447536
-1.0842e-19 0.020373 0.0137433 0.180097 -0.083362 0.000735137
0 0.024123 0.00479858 0.144438 -0.0836712 0.000346024
0 -0.024627 0.00116943 0.0949638 -0.0455089 8.89647e-05
1.0842e-19 -0.007127 0.02375 0.203072 -0.0691642 0.000721996
1.0842e-19 -0.022127 0.011217 0.182769 -0.0746478 0.00058459
-1.0842e-19 0.012873 0.02125 0.195451 -0.0753206 0.000824002
0 -0.024627 0.00356872 0.142701 -0.0675481 0.0002142
0 0.021623 0.0124878 0.176807 -0.0846165 0.000709182
-9.67102e-20 -0.010877 0.0225 0.201853 -0.0692719 0.000714177
3.28979e-21 -0.000877 0.025 0.203748 -0.0695686 0.000731861
-1.0842e-19 0.007873 0.02375 0.200333 -0.0722967 0.000786746
3.28979e-21 0.001623 0.025 0.203301 -0.0700823 0.000742479
0 0.024123 0.00736572 0.159732 -0.0872835 0.00051542
-9.67102e-20 -0.003377 0.025 0.204186 -0.0690536 0.000721075
-9.67102e-20 0.011623 0.0225 0.197654 -0.0740619 0.000811908
3.28979e-21 0.004123 0.025 0.202845 -0.0705932 0.000753053
5.20648e-29 -0.018377 0.0174852 0.195183 -0.0712565 0.000682787
0 -0.024627 0.00608215 0.163177 -0.0738543 0.000394773
1.58405e-19 -0.018377 0.0175 0.19521 -0.0712458 0.00068295
-1.0842e-19 -0.017127 0.01875 0.197147 -0.0706203 0.000695949
0 0.025373 0.00116944 0.0901547 -0.0551432 9.44335e-05
0 -0.023377 0.00994629 0.178969 -0.0747932 0.000539694
1.0842e-19 0.022873 0.011217 0.173505 -0.0858836 0.000682499
1.0842e-19 -0.019627 0.0162494 0.193276 -0.071861 0.000669467
8.08456e-20 -0.015877 0.02 0.198891 -0.0699896 0.000701552
0 0.025373 0.00356873 0.134691 -0.0807367 0.000244246
0 -0.009627 0.02375 0.203507 -0.068643 0.00071207
8.08456e-20 -0.005877 0.025 0.204617 -0.0685391 0.000710993
0 -0.020877 0.0149988 0.191029 -0.072469 0.000648042
-1.0842e-19 -0.014627 0.02125 0.200645 -0.0693516 0.000707337
-9.67102e-20 0.006623 0.025 0.202382 -0.0711043 0.000764484
0 -0.025877 9.27243e-09 4.80401e-07 -2.28656e-07 4.46197e-10
1.0842e-19 0.017873 0.01875 0.19021 -0.0785183 0.00084143
1.0842e-19 0.010373 0.02375 0.199847 -0.0728133 0.000799595
-1.57772e-30 0.019123 0.0174929 0.187659 -0.0798788 0.000825095
0 0.019123 0.0175 0.187673 -0.0798727 0.000825269
-3.41419e-21 -0.025877 0.00233887 0.118768 -0.0561662 0.000150378
3.28979e-21 0.016623 0.02 0.192576 -0.0771815 0.000841842
1.0842e-19 -0.022127 0.0137433 0.188779 -0.0730683 0.000627395
0 0.020373 0.0162494 0.185123 -0.08124 0.000808004
1.0842e-19 0.025373 0.00608215 0.153781 -0.0873157 0.000459778
0 0.024123 0.00994629 0.169308 -0.0868855 0.000636993
0 -0.024627 0.00865601 0.175141 -0.0749275 0.00049532
-9.67102e-20 -0.013377 0.0225 0.20228 -0.0687371 0.000704499
0 0.015373 0.02125 0.19493 -0.0758586 0.000841587
0 0.000373 0.02625 0.205316 -0.0689192 0.00072191
-8.07794e-28 0.021623 0.0149988 0.182306 -0.0825936 0.00078193
0 -0.025877 0.00479858 0.153037 -0.0703508 0.000302536
0 -0.002127 0.02625 0.20575 -0.0684138 0.0007111
8.08456e-20 -0.008377 0.025 0.205043 -0.0680244 0.000701802
0 0.002873 0.02625 0.204873 -0.0694214 0.000731667
0 -0.023377 0.0124878 0.185993 -0.0735497 0.000602932
0 0.014123 0.0225 0.197149 -0.0745915 0.000827933
-9.67102e-20 0.009123 0.025 0.201912 -0.0716146 0.000777272
-1.03398e-25 0.026623 3.76043e-10 1.83839e-08 -1.13164e-08 1.95887e-11
1.0842e-19 -0.004627 0.02625 0.206176 -0.0679089 0.000700041
0 -0.012127 0.02375 0.203929 -0.0681172 0.000701742
-1.0842e-19 0.022873 0.0137433 0.179477 -0.0839536 0.000755722
8.27181e-25 0.026623 0.00233887 0.11204 -0.0681257 0.000171809
6.46235e-27 -0.025877 0.00674512 0.165405 -0.073164 0.000409072
-1.0842e-19 0.005373 0.02625 0.204421 -0.0699213 0.000742193
1.0842e-19 0.025373 0.008656 0.165096 -0.0879044 0.00058904
0 -0.025877 0.00736572 0.169348 -0.0740609 0.000443038
-1.0842e-19 0.012873 0.02375 0.199358 -0.0733347 0.000814882
0 0.026623 0.00479858 0.143892 -0.0843358 0.00035829
0 -0.024627 0.011217 0.183191 -0.0740232 0.000577729
0 -0.019627 0.01875 0.19758 -0.0700535 0.000688577
-1.0842e-19 -0.027127 0.00116943 0.095148 -0.0450493 8.84434e-05
8.08456e-20 -0.018377 0.02 0.199322 -0.0694366 0.000694551
0 0.024123 0.0124878 0.176185 -0.0852181 0.000732177
1.0842e-19 -0.007127 0.02625 0.206591 -0.0673997 0.000690536
0 -0.020877 0.0174855 0.195617 -0.0706816 0.00067468
0 -0.020877 0.0175 0.195643 -0.0706712 0.000674835
3.28979e-21 -0.010877 0.025 0.205462 -0.0675091 0.000692904
0 -0.017127 0.02125 0.201069 -0.0688062 0.000700009
0 -0.027127 0.00356873 0.143017 -0.0669071 0.000211879
1.0842e-19 0.007873 0.02625 0.203966 -0.0704244 0.000754309
-2.1684e-19 -0.022127 0.0162494 0.19371 -0.0712794 0.000661839
6.45119e-20 -0.000877 0.0275 0.207194 -0.0678241 0.000691541
3.28979e-21 -0.015877 0.0225 0.202699 -0.068201 0.00069602
4.41762e-29 -0.000877 0.0275314 0.207234 -0.067804 0.000690811
3.28979e-21 0.001623 0.0275 0.206763 -0.0683192 0.000701661
8.08456e-20 0.011623 0.025 0.201435 -0.0721242 0.000791624
1.57772e-30 0.001623 0.0275281 0.206799 -0.0683011 0.000701003
0 0.026623 0.00736572 0.159129 -0.0879374 0.000535583
-9.67102e-20 0.019123 0.02 0.192029 -0.0777315 0.000859751
0 0.020373 0.01875 0.189645 -0.0790796 0.000858881
3.28979e-21 -0.003377 0.0275 0.207615 -0.0673263 0.00068137
-6.46235e-27 -0.025877 0.00994629 0.179382 -0.0741556 0.000533693
-1.02552e-28 -0.003377 0.0275189 0.207639 -0.0673143 0.000680939
-1.0842e-19 0.025373 0.011217 0.17288 -0.086497 0.00070792
0 0.017873 0.02125 0.194401 -0.0763972 0.000859738
0 -0.023377 0.0149988 0.191459 -0.0718765 0.000641441
-2.1684e-19 -0.027127 0.00608215 0.163548 -0.0731841 0.000391877
8.08474e-20 0.004123 0.0275 0.206325 -0.0688128 0.000712092
-2.22459e-28 0.021623 0.0174934 0.187078 -0.0804519 0.00084347
-1.57772e-30 0.021623 0.0175 0.18709 -0.0804462 0.000843633
6.94198e-29 0.004123 0.0275277 0.20636 -0.0687949 0.000711443
1.0842e-19 -0.014627 0.02375 0.204338 -0.0675866 0.000692376
1.0842e-19 0.027873 0.00116944 0.0898405 -0.0556298 9.75748e-05
-1.0842e-19 -0.009627 0.02625 0.207002 -0.0668908 0.000682606
-9.67102e-20 0.016623 0.0225 0.196635 -0.075118 0.000845181
1.0842e-19 0.022873 0.0162494 0.18452 -0.0818217 0.000828759
2.1684e-19 0.027873 0.00356873 0.134178 -0.0814006 0.000253406
-9.67102e-20 -0.005877 0.0275 0.208027 -0.0668272 0.000671785
-2.44547e-28 -0.005877 0.02751 0.20804 -0.0668209 0.000671562
-2.1684e-19 -0.024627 0.0137433 0.189205 -0.072466 0.000621838
-1.0842e-19 0.010373 0.02625 0.203503 -0.0709239 0.000768438
-1.91544e-20 0.006623 0.0275 0.205882 -0.0693076 0.000723514
0 0.015373 0.02375 0.19886 -0.0738523 0.000831262
5.36425e-29 0.006623 0.0275385 0.205931 -0.0692824 0.000722609
-3.54881e-20 -0.013377 0.025 0.205872 -0.0669912 0.000684116
0 -0.028377 9.16174e-09 4.75568e-07 -2.23631e-07 4.3735e-10
8.07794e-28 0.024123 0.0149988 0.18169 -0.0831787 0.000805477
-5.16988e-26 0.026623 0.00994629 0.168684 -0.0875116 0.000662636
-1.82522e-20 -0.028377 0.00233887 0.119013 -0.0556174 0.000149185
1.0842e-19 -0.027127 0.008656 0.175545 -0.0742796 0.000490362
0 0.027873 0.00608215 0.153188 -0.0879846 0.000478893
8.08456e-20 0.014123 0.025 0.200951 -0.0726323 0.000807132
1.61559e-27 -0.025877 0.0124878 0.186413 -0.0729355 0.000596852
8.08456e-20 -0.008377 0.0275 0.208434 -0.0663278 0.000663141
0 0.000373 0.0287506 0.208646 -0.0672255 0.000671396
-1.41995e-29 -0.008377 0.0275072 0.208443 -0.0663233 0.000662981
-1.23021e-20 -0.028377 0.00479858 0.153376 -0.0696969 0.000300623
-2.1684e-19 -0.002127 0.0287506 0.209064 -0.0667374 0.000661749
1.0842e-19 0.025373 0.0137433 0.178851 -0.0845459 0.000782264
1.0842e-19 0.002873 0.0287506 0.208218 -0.0677104 0.000681663
8.08456e-20 -0.020877 0.02 0.199745 -0.0688836 0.000686862
0 -0.012127 0.02625 0.207411 -0.0663857 0.000675199
0 -0.019627 0.02125 0.201491 -0.0682664 0.000693669
8.08456e-20 0.009123 0.0275 0.205433 -0.0698019 0.000736123
0 -0.022127 0.01875 0.198007 -0.069491 0.000679455
-3.15544e-30 0.009123 0.0275426 0.205488 -0.0697737 0.000735101
8.08456e-20 -0.018377 0.0225 0.203113 -0.0676674 0.000688588
0 -0.004627 0.0287506 0.20947 -0.0662447 0.000652582
-3.30872e-24 0.029123 1.5623e-08 7.61071e-07 -4.7427e-07 8.41344e-10
0 0.027873 0.008656 0.164472 -0.0885459 0.000614861
-4.73317e-30 -0.023377 0.0174839 0.196039 -0.0701088 0.000666399
3.29323e-21 -0.023377 0.0175 0.196068 -0.0700973 0.000666561
-8.27181e-25 0.029123 0.00233888 0.111621 -0.0687016 0.000178727
-1.0842e-19 0.012873 0.02625 0.203034 -0.071425 0.00078358
0 0.005373 0.0287506 0.207788 -0.068198 0.000692836
0 -0.028377 0.00720803 0.168728 -0.0731767 0.000430934
0 -0.017127 0.02375 0.204744 -0.0670596 0.000684359
-3.23117e-27 -0.028377 0.00736572 0.169733 -0.0734044 0.000439462
0 -0.027127 0.011217 0.183606 -0.0733968 0.000570931
-2.86783e-20 0.026623 0.0124878 0.175554 -0.0858185 0.000760776
1.0842e-19 0.020373 0.02125 0.19386 -0.0769309 0.000878954
-9.67102e-20 0.021623 0.02 0.191472 -0.0782793 0.000879221
1.0842e-19 -0.024627 0.0162494 0.194133 -0.0706947 0.000654648
4.1359e-25 0.029123 0.00479858 0.143333 -0.0850043 0.00037392
8.08456e-20 0.019123 0.0225 0.19611 -0.0756414 0.00086342
-9.67102e-20 -0.010877 0.0275 0.208837 -0.0658289 0.000655003
1.0842e-19 0.022873 0.01875 0.189073 -0.0796439 0.000878879
-1.15174e-28 -0.010877 0.027507 0.208846 -0.0658246 0.000654847