# UMean  POINT_DATA 26799
# x  y  z  UMean_x  UMean_y  UMean_z
-5.92878e-09 0 0 0 0 0
0.000876986 5.42101e-20 0 0 0 0
-0.000876991 -5.42101e-20 0 0 0 0
0.001623 1.0842e-19 0 0 0 0
-0.00162301 -5.42101e-20 0 0 0 0
0.00125 -9.03502e-21 0.00116943 0.0838684 -0.0452559 9.33303e-05
-0.00125 9.03502e-21 0.00116944 0.0835784 -0.0451329 9.44873e-05
8.56612e-10 1.0842e-19 0.00233887 0.115842 -0.0620072 0.000166777
-0.00249999 0 0 0 0 0
0.0025 1.0842e-19 0 0 0 0
-0.00337698 0 0 0 0 0
0.003377 1.0842e-19 0 0 0 0
-0.0025 -1.0842e-19 0.00233887 0.115444 -0.0617669 0.000167859
0.0025 0 0.00233887 0.116247 -0.0622458 0.000165655
-0.00125 1.807e-20 0.00356872 0.137201 -0.0727 0.000241023
0.00125 9.03502e-21 0.00356872 0.137677 -0.0730507 0.000240108
-0.00375 0 0.00116943 0.0832936 -0.0450071 9.55139e-05
0.00375 -2.71051e-20 0.00116943 0.0841648 -0.0453754 9.24651e-05
-0.004123 -5.42101e-20 0 0 0 0
0.004123 5.42101e-20 0 0 0 0
1.02013e-09 -1.0842e-19 0.00479858 0.149062 -0.0772433 0.000335112
-0.00499999 -1.0842e-19 0 0 0 0
0.00500001 1.0842e-19 0 0 0 0
-0.00375 -1.807e-20 0.00356872 0.136732 -0.0723518 0.000241872
0.00375 -5.42101e-20 0.00356872 0.13816 -0.0733993 0.000238896
0.0025 1.0842e-19 0.00479858 0.149576 -0.0776582 0.000334571
-0.0025 -1.0842e-19 0.00479858 0.148555 -0.0768291 0.000335229
-0.005 1.0842e-19 0.00233887 0.115052 -0.0615243 0.000168605
0.00500001 1.0842e-19 0.00233887 0.116659 -0.0624818 0.000164493
-0.00587699 -1.0842e-19 0 0 0 0
0.00587702 5.42101e-20 0 0 0 0
-0.00125 0 0.00608215 0.158252 -0.0799085 0.00042864
0.00125 0 0.00608215 0.158789 -0.0803779 0.000429162
-0.00625 -3.61401e-20 0.00116943 0.0830151 -0.0448789 9.58414e-05
0.00625001 -3.61401e-20 0.00116944 0.0844651 -0.0454933 9.16986e-05
0.006623 0 0 0 0 0
-0.006623 5.42101e-20 0 0 0 0
0.005 1.0842e-19 0.00479858 0.150097 -0.0780713 0.0003336
-0.005 -1.0842e-19 0.00479858 0.148055 -0.0764139 0.000334955
-0.00375 1.807e-20 0.00608215 0.157723 -0.079442 0.000427537
0.00375 3.61401e-20 0.00608215 0.159331 -0.0808457 0.000428896
-0.00625 1.807e-20 0.00356872 0.13627 -0.071998 0.000242384
0.00625 4.51751e-20 0.00356873 0.138651 -0.0737455 0.000237556
5.20266e-10 1.0842e-19 0.00736572 0.16489 -0.0809369 0.000486976
0.00750001 1.0842e-19 0 0 0 0
-0.00750001 1.0842e-19 0 0 0 0
0.0025 1.0842e-19 0.00736572 0.16544 -0.0814307 0.000488028
-0.0025 1.0842e-19 0.00736572 0.164347 -0.0804447 0.000485372
-0.0075 1.0842e-19 0.00233887 0.114668 -0.0612777 0.000168904
0.00750001 1.0842e-19 0.00233887 0.117076 -0.0627143 0.00016324
-0.00837701 0 0 0 0 0
0.00837702 5.42101e-20 0 0 0 0
-0.00625 0 0.00608215 0.157202 -0.0789733 0.000425868
0.00625 -1.807e-20 0.00608215 0.159882 -0.0813124 0.000428072
-0.00125 0 0.008656 0.170206 -0.0809727 0.000537848
0.00125 -1.807e-20 0.008656 0.170761 -0.0814846 0.000540053
-0.00875 9.03502e-21 0.00116944 0.0827417 -0.0447485 9.60064e-05
0.00875 1.807e-20 0.00116944 0.0847707 -0.0456078 9.07956e-05
0.005 1.0842e-19 0.00736572 0.165997 -0.0819235 0.000488525
-0.005 1.0842e-19 0.00736572 0.163811 -0.0799525 0.000483196
0.0075 1.0842e-19 0.00479858 0.150625 -0.0784814 0.000332353
-0.0075 1.0842e-19 0.00479858 0.147563 -0.0759952 0.000334182
0.00912299 -5.42101e-20 0 0 0 0
-0.009123 0 0 0 0 0
-0.00375 0 0.008656 0.16966 -0.0804648 0.000535018
0.00375 1.807e-20 0.008656 0.171322 -0.081997 0.000541766
-0.00875 -9.03502e-21 0.00356873 0.135816 -0.0716409 0.000242421
0.00875 0 0.00356873 0.139147 -0.0740865 0.000236078
1.71243e-10 1.0842e-19 0.00994629 0.174693 -0.0807747 0.000583684
-0.01 -1.0842e-19 0 0 0 0
0.01 -1.0842e-19 0 0 0 0
0.0025 1.0842e-19 0.00994629 0.175253 -0.0812934 0.000586689
-0.0025 1.0842e-19 0.00994629 0.174139 -0.0802586 0.000580343
-0.01 -1.0842e-19 0.00233887 0.114289 -0.0610288 0.000168969
0.01 1.0842e-19 0.00233887 0.1175 -0.0629433 0.000161829
0.0075 1.0842e-19 0.00736572 0.166561 -0.0824154 0.000488567
-0.0075 1.0842e-19 0.00736572 0.163282 -0.0794589 0.000480461
-0.00875 4.51751e-20 0.00608215 0.156688 -0.0785025 0.000423694
0.00875 0 0.00608215 0.160438 -0.0817771 0.000426913
-0.00625 -1.807e-20 0.008656 0.16912 -0.0799544 0.00053161
0.00625 0 0.008656 0.171889 -0.0825084 0.00054279
0.010877 1.0842e-19 0 0 0 0
-0.010877 1.0842e-19 0 0 0 0
0.01 1.0842e-19 0.00479858 0.151159 -0.078889 0.000330906
-0.01 1.0842e-19 0.00479858 0.147078 -0.0755751 0.000332926
0.005 1.0842e-19 0.00994629 0.175821 -0.0818125 0.000589281
-0.005 1.0842e-19 0.00994629 0.173593 -0.0797431 0.000576601
-0.00125 -1.807e-20 0.011217 0.178238 -0.0798918 0.000623421
0.00125 0 0.011217 0.178797 -0.0804129 0.000627614
-0.01125 9.03502e-21 0.00116944 0.0824729 -0.0446161 9.62341e-05
0.01125 -3.61401e-20 0.00116944 0.0850805 -0.0457189 8.9668e-05
-0.011623 -1.0842e-19 0 0 0 0
0.011623 1.0842e-19 0 0 0 0
-0.01125 0 0.00356873 0.135368 -0.0712822 0.000241948
0.01125 1.807e-20 0.00356873 0.13965 -0.0744254 0.000234358
0.00375 -1.807e-20 0.011217 0.179362 -0.0809354 0.000631543
-0.00375 1.807e-20 0.011217 0.177687 -0.0793737 0.000619027
-0.00875 0 0.008656 0.168586 -0.0794435 0.000527676
0.00875 3.61401e-20 0.008656 0.172465 -0.0830206 0.000543489
0.01 1.0842e-19 0.00736572 0.167132 -0.082907 0.000488314
-0.01 1.0842e-19 0.00736572 0.16276 -0.078965 0.000477293
0.0075 1.0842e-19 0.00994629 0.176395 -0.0823319 0.000591407
-0.0075 1.0842e-19 0.00994629 0.173054 -0.0792269 0.000572425
3.3838e-11 1.0842e-19 0.0124878 0.181636 -0.0793015 0.000655532
-0.0125 -1.0842e-19 0 0 0 0
0.0125 -1.0842e-19 0 0 0 0
-0.0125 0 0.00233887 0.113917 -0.0607782 0.000168921
0.0125 1.0842e-19 0.00233887 0.11793 -0.063168 0.000160195
0.0025 1.0842e-19 0.0124878 0.182197 -0.079822 0.000660754
-0.0025 1.0842e-19 0.0124878 0.181083 -0.0787841 0.000650124
-0.01125 0 0.00608215 0.156181 -0.0780326 0.00042105
0.01125 0 0.00608215 0.161001 -0.0822383 0.000425641
0.00625 -1.807e-20 0.011217 0.179935 -0.0814588 0.00063503
-0.00625 0 0.011217 0.177143 -0.0788551 0.000614369
0.013377 1.0842e-19 0 0 0 0
-0.013377 0 0 0 0 0
0.0125 1.0842e-19 0.00479858 0.151701 -0.0792933 0.000329323
-0.0125 1.0842e-19 0.00479858 0.146599 -0.0751541 0.000331393
0.005 1.0842e-19 0.0124878 0.182765 -0.0803436 0.00066575
-0.005 1.0842e-19 0.0124878 0.180536 -0.0782681 0.000644495
-0.01375 1.807e-20 0.00116944 0.0822087 -0.0444822 9.64106e-05
0.01375 -1.807e-20 0.00116944 0.0853954 -0.045826 8.83476e-05
-0.00125 1.807e-20 0.0137433 0.184279 -0.0781432 0.000679441
0.00125 0 0.0137433 0.184835 -0.0786599 0.000686001
0.01 1.0842e-19 0.00994629 0.176977 -0.0828521 0.000593222
-0.01 1.0842e-19 0.00994629 0.172522 -0.0787111 0.000567905
-0.014123 1.6263e-19 0 0 0 0
0.014123 1.0842e-19 0 0 0 0
0.01125 -1.807e-20 0.008656 0.173047 -0.0835334 0.000543868
-0.01125 -1.807e-20 0.008656 0.16806 -0.0789323 0.000523553
-0.01375 0 0.00356873 0.134926 -0.0709229 0.000241467
0.01375 1.807e-20 0.00356873 0.140161 -0.0747584 0.00023235
0.00875 -1.807e-20 0.011217 0.180515 -0.0819837 0.000638053
-0.00875 -1.807e-20 0.011217 0.176605 -0.0783363 0.000609403
0.00375 -1.807e-20 0.0137433 0.185399 -0.0791788 0.000692357
-0.00375 0 0.0137433 0.183731 -0.0776311 0.000672781
0.0125 1.0842e-19 0.00736572 0.16771 -0.0833974 0.00048797
-0.0125 1.0842e-19 0.00736572 0.162246 -0.078471 0.000473797
0.0075 1.0842e-19 0.0124878 0.18334 -0.0808666 0.000670388
-0.0075 1.0842e-19 0.0124878 0.179997 -0.0777518 0.000638591
3.02741e-12 1.0842e-19 0.0149988 0.1871 -0.077431 0.000706377
-0.015 -1.0842e-19 0 0 0 0
0.015 -1.0842e-19 0 0 0 0
0.01375 1.807e-20 0.00608215 0.161571 -0.0826982 0.000424368
-0.01375 -9.03502e-21 0.00608215 0.155681 -0.0775611 0.000418262
-0.00625 3.61401e-20 0.0137433 0.18319 -0.0771187 0.000665907
0.00625 0 0.0137433 0.185968 -0.0796974 0.000698614
0.015 1.0842e-19 0.00233887 0.118366 -0.063388 0.000158293
-0.015 -1.0842e-19 0.00233887 0.11355 -0.0605264 0.000168771
0.0025 1.0842e-19 0.0149988 0.187658 -0.0779427 0.00071382
-0.0025 1.0842e-19 0.0149988 0.186551 -0.0769224 0.000698836
0.015 1.0842e-19 0.00479858 0.152249 -0.0796935 0.000327615
-0.015 -1.0842e-19 0.00479858 0.146127 -0.0747327 0.000329704
0.005 1.0842e-19 0.0149988 0.188222 -0.0784559 0.000721266
-0.005 1.0842e-19 0.0149988 0.186008 -0.0764154 0.000691167
0.015877 -5.42101e-20 0 0 0 0
-0.015877 1.6263e-19 0 0 0 0
-0.01125 -1.807e-20 0.011217 0.176075 -0.0778192 0.000604272
0.01125 3.61401e-20 0.011217 0.181102 -0.0825084 0.000640938
0.0125 1.0842e-19 0.00994629 0.177565 -0.0833721 0.000594981
-0.0125 1.0842e-19 0.00994629 0.171996 -0.0781957 0.000562996
0.01 1.0842e-19 0.0124878 0.183923 -0.0813907 0.000674683
-0.01 1.0842e-19 0.0124878 0.179465 -0.0772367 0.000632428
0.01375 0 0.008656 0.173637 -0.0840452 0.000544362
-0.01375 1.807e-20 0.00865601 0.167541 -0.0784227 0.00051896
-0.01625 0 0.00116944 0.0819491 -0.0443464 9.64712e-05
0.01625 -9.03502e-21 0.00116944 0.0857156 -0.045929 8.67345e-05
0.00875 1.807e-20 0.0137433 0.186546 -0.0802198 0.000704407
-0.00875 3.61401e-20 0.0137433 0.182656 -0.0766056 0.000658893
-0.00125 0 0.0162494 0.189265 -0.0761973 0.000724112
0.00125 0 0.0162494 0.189817 -0.0767014 0.000732455
-0.016623 0 0 0 0 0
0.016623 0 0 0 0 0
0.01625 9.03502e-21 0.00356873 0.140678 -0.0750875 0.000230051
-0.01625 -9.03502e-21 0.00356873 0.134491 -0.070564 0.000240774
-0.00375 0 0.0162494 0.188721 -0.075696 0.000715545
0.00375 0 0.0162494 0.190375 -0.0772069 0.000740806
0.015 1.0842e-19 0.00736572 0.168294 -0.0838857 0.000487706
-0.015 1.0842e-19 0.00736572 0.161738 -0.0779773 0.000470039
0.0075 1.0842e-19 0.0149988 0.188793 -0.0789708 0.000728648
-0.0075 1.0842e-19 0.0149988 0.185473 -0.0759084 0.000683375
0.01625 -1.807e-20 0.00608215 0.162147 -0.0831541 0.000423137
-0.01625 9.03502e-21 0.00608215 0.155187 -0.07709 0.000415226
0.00625 3.61401e-20 0.0162494 0.190941 -0.0777146 0.000749486
-0.00625 3.61401e-20 0.0162494 0.188184 -0.0751946 0.000706926
-0.0175 -1.0842e-19 0 0 0 0
0.0175 1.0842e-19 0 0 0 0
-1.02402e-14 1.0842e-19 0.0175 0.191766 -0.0754643 0.000742371
-0.0175 -1.0842e-19 0.00233887 0.113188 -0.0602729 0.000168505
0.0175 1.0842e-19 0.00233887 0.118809 -0.0636039 0.000156254
0.0125 1.0842e-19 0.0124878 0.184513 -0.0819154 0.000678798
-0.0125 1.0842e-19 0.0124878 0.17894 -0.0767226 0.000625977
0.0025 1.0842e-19 0.0175 0.192318 -0.0759608 0.000751583
-0.0025 1.0842e-19 0.0175 0.19122 -0.0749697 0.000733155
-0.01375 0 0.011217 0.175552 -0.0773021 0.00059849
0.01375 3.61401e-20 0.011217 0.181696 -0.0830331 0.000643909
0.01125 -1.807e-20 0.0137433 0.18713 -0.0807415 0.000709815
-0.01125 0 0.0137433 0.18213 -0.0760968 0.000651641
0.015 1.0842e-19 0.00994629 0.178161 -0.0838912 0.000596906
-0.015 1.0842e-19 0.00994629 0.171478 -0.0776814 0.0005577
0.01 1.0842e-19 0.0149988 0.189372 -0.0794874 0.000735792
-0.01 1.0842e-19 0.0149988 0.184945 -0.0754029 0.000675438
0.0175 1.0842e-19 0.00479858 0.152804 -0.0800908 0.000325931
-0.0175 1.0842e-19 0.00479858 0.145661 -0.074311 0.00032791
0.005 1.0842e-19 0.0175 0.192877 -0.0764587 0.00076084
-0.005 1.0842e-19 0.0175 0.190682 -0.0744763 0.000723909
0.018377 0 0 0 0 0
-0.018377 -5.42101e-20 0 0 0 0
0.01625 0 0.008656 0.174233 -0.0845562 0.000544998
-0.01625 3.61401e-20 0.008656 0.167029 -0.0779137 0.000514186
-0.00875 -1.807e-20 0.0162494 0.187654 -0.074694 0.000698282
0.00875 3.61401e-20 0.0162494 0.191513 -0.0782237 0.000758159
-0.01875 -9.03502e-21 0.00116944 0.0816936 -0.0442085 9.631e-05
0.01875 2.71051e-20 0.00116944 0.0860412 -0.0460276 8.52517e-05
0.00125 0 0.01875 0.194208 -0.0747261 0.000759186
-0.00125 3.61401e-20 0.01875 0.193661 -0.0742373 0.000749252
0.0175 1.0842e-19 0.00736572 0.168885 -0.0843716 0.000487689
-0.0175 1.0842e-19 0.00736572 0.161236 -0.077484 0.000466117
0.0075 1.0842e-19 0.0175 0.193444 -0.0769587 0.000770234
-0.0075 1.0842e-19 0.0175 0.190151 -0.0739831 0.000714632
-0.01875 9.03502e-21 0.00356873 0.134061 -0.0702017 0.000240113
0.01875 9.03502e-21 0.00356872 0.141203 -0.075414 0.000227755
-0.00375 0 0.01875 0.193121 -0.0737523 0.000739437
0.00375 3.61401e-20 0.01875 0.194761 -0.0752115 0.00076913
-0.019123 5.42101e-20 0 0 0 0
0.019123 0 0 0 0 0
0.01375 0 0.0137433 0.187723 -0.081266 0.000714763
-0.01375 0 0.0137433 0.181609 -0.0755867 0.000644239
0.015 1.0842e-19 0.0124878 0.185109 -0.0824403 0.000682915
-0.015 1.0842e-19 0.0124878 0.178421 -0.0762096 0.000619268
0.0125 1.0842e-19 0.0149988 0.189958 -0.0800052 0.000742639
-0.0125 1.0842e-19 0.0149988 0.184423 -0.0748986 0.000667387
-0.01875 0 0.00608215 0.1547 -0.0766195 0.000412214
0.01875 9.03502e-21 0.00608215 0.16273 -0.0836075 0.000422259
-0.01625 -1.807e-20 0.011217 0.175035 -0.0767864 0.000592394
0.01625 0 0.011217 0.182296 -0.0835556 0.000647115
0.01125 0 0.0162494 0.192094 -0.0787342 0.000766653
-0.01125 0 0.0162494 0.187132 -0.0741957 0.000689474
0.00625 3.61401e-20 0.01875 0.195322 -0.0757022 0.00077907
-0.00625 3.61401e-20 0.01875 0.192588 -0.0732662 0.000729542
0.02 1.0842e-19 0 0 0 0
-0.02 1.0842e-19 0 0 0 0
-1.024e-14 1.0842e-19 0.02 0.195976 -0.0735042 0.000759639
0.0175 1.0842e-19 0.00994629 0.178762 -0.0844089 0.000599198
-0.0175 1.0842e-19 0.00994629 0.170966 -0.077168 0.00055219
0.02 0 0.00233887 0.119258 -0.0638153 0.000154295
-0.02 0 0.00233887 0.112832 -0.0600171 0.000168205
0.01 1.0842e-19 0.0175 0.194019 -0.0774604 0.000779758
0.0025 1.0842e-19 0.02 0.196525 -0.0739838 0.000770361
-0.0025 1.0842e-19 0.02 0.195434 -0.0730264 0.000749145
-0.01 1.0842e-19 0.0175 0.189627 -0.0734912 0.000705293
0.02 1.0842e-19 0.00479858 0.153366 -0.0804851 0.00032458
-0.02 1.0842e-19 0.00479858 0.145202 -0.0738883 0.000326077
0.005 1.0842e-19 0.02 0.197081 -0.0744642 0.000781085
-0.005 1.0842e-19 0.02 0.194899 -0.0725495 0.000738827
0.01875 0 0.008656 0.174836 -0.085064 0.000545966
-0.01875 -1.807e-20 0.008656 0.166523 -0.0774046 0.000509272
-0.00875 3.61401e-20 0.01875 0.192063 -0.0727813 0.000719652
0.00875 -1.807e-20 0.01875 0.195891 -0.076195 0.000789226
0.020877 1.0842e-19 0 0 0 0
-0.020877 -1.0842e-19 0 0 0 0
0.015 1.0842e-19 0.0149988 0.190551 -0.0805242 0.000749383
-0.015 1.0842e-19 0.0149988 0.183909 -0.0743959 0.000659348
-0.02125 1.807e-20 0.00116944 0.0814421 -0.0440688 9.61277e-05
0.02125 1.807e-20 0.00116943 0.0863717 -0.0461216 8.37722e-05
0.01625 0 0.0137433 0.188323 -0.0817916 0.000719781
-0.01625 -1.807e-20 0.0137433 0.181096 -0.0750797 0.000636792
0.01375 -1.807e-20 0.0162494 0.19268 -0.079246 0.000774906
-0.01375 1.807e-20 0.0162494 0.186616 -0.0736981 0.000680749
0.00125 0 0.02125 0.198256 -0.072769 0.00076815
-0.00125 0 0.02125 0.197711 -0.0722991 0.00075684
0.02 1.0842e-19 0.00736572 0.169483 -0.0848557 0.000488252
-0.02 1.0842e-19 0.00736572 0.160742 -0.0769911 0.00046203
0.0075 1.0842e-19 0.02 0.197645 -0.0749462 0.000791844
-0.0075 1.0842e-19 0.02 0.194371 -0.0720725 0.000728601
0.0175 1.0842e-19 0.0124878 0.185712 -0.0829644 0.000687322
-0.0175 1.0842e-19 0.0124878 0.177908 -0.0756981 0.000612394
0.0125 1.0842e-19 0.0175 0.194601 -0.0779635 0.000789357
-0.0125 1.0842e-19 0.0175 0.189111 -0.0730006 0.000695897
-0.02125 -4.51751e-20 0.00356873 0.133638 -0.0698389 0.000239467
0.02125 3.61401e-20 0.00356872 0.141734 -0.0757366 0.000225652
-0.00375 3.61401e-20 0.02125 0.197174 -0.0718304 0.000746035
0.00375 3.61401e-20 0.02125 0.198809 -0.0732411 0.000779766
-0.021623 0 0 0 0 0
0.021623 -5.42101e-20 0 0 0 0
0.01875 0 0.011217 0.182902 -0.0840785 0.000650811
-0.01875 -1.807e-20 0.011217 0.174524 -0.0762723 0.000586131
0.01125 1.807e-20 0.01875 0.196467 -0.0766879 0.000799664
-0.01125 3.61401e-20 0.01875 0.191545 -0.0722981 0.000709657
-0.02125 0 0.00608215 0.15422 -0.0761491 0.000409016
0.02125 1.807e-20 0.00608215 0.16332 -0.0840598 0.000422036
0.00625 3.61401e-20 0.02125 0.199368 -0.0737134 0.000791116
-0.00625 3.61401e-20 0.02125 0.196643 -0.0713615 0.000735484
0.02 1.0842e-19 0.00994629 0.179371 -0.0849251 0.000602188
-0.02 1.0842e-19 0.00994629 0.17046 -0.0766554 0.0005465
0.01 1.0842e-19 0.02 0.198217 -0.0754298 0.000802954
-0.01 1.0842e-19 0.02 0.193851 -0.0715967 0.00071846
0.0225 1.0842e-19 0 0 0 0
-0.0225 -1.0842e-19 0 0 0 0
-1.024e-14 1.0842e-19 0.0225 0.1999 -0.0715915 0.000757531
0.0225 0 0.00233887 0.119714 -0.064022 0.000152571
-0.0225 1.0842e-19 0.00233887 0.112481 -0.0597593 0.000167942
0.0025 1.0842e-19 0.0225 0.200449 -0.0720543 0.000769006
-0.0025 1.0842e-19 0.0225 0.199359 -0.0711306 0.000746361
-0.02125 -1.807e-20 0.008656 0.166024 -0.0768964 0.000504098
0.02125 9.03502e-21 0.008656 0.175446 -0.0855722 0.000547763
0.01625 0 0.0162494 0.193275 -0.0797584 0.000783387
-0.01625 0 0.0162494 0.186107 -0.0732022 0.000672191
0.00875 0 0.02125 0.199936 -0.0741875 0.000802675
-0.00875 -1.807e-20 0.02125 0.19612 -0.0708932 0.000725184
0.0225 -1.0842e-19 0.00479858 0.153935 -0.0808763 0.000323856
-0.0225 1.0842e-19 0.00479858 0.144749 -0.073465 0.00032419
0.0175 1.0842e-19 0.0149988 0.191151 -0.0810436 0.000756238
-0.0175 1.0842e-19 0.0149988 0.183401 -0.0738947 0.000651235
0.005 1.0842e-19 0.0225 0.201005 -0.0725181 0.00078058
-0.005 1.0842e-19 0.0225 0.198825 -0.0706704 0.000735504
0.015 1.0842e-19 0.0175 0.19519 -0.0784678 0.000799119
-0.015 1.0842e-19 0.0175 0.188601 -0.0725119 0.000686542
0.01875 -1.807e-20 0.0137433 0.188928 -0.0823146 0.000725011
-0.01875 3.61401e-20 0.0137433 0.180588 -0.074573 0.000629259
0.01375 0 0.01875 0.197053 -0.0771832 0.000810462
-0.01375 0 0.01875 0.191035 -0.0718163 0.000699646
0.023377 0 0 0 0 0
-0.023377 -1.6263e-19 0 0 0 0
0.02 1.0842e-19 0.0124878 0.186321 -0.0834872 0.000692446
-0.02 1.0842e-19 0.0124878 0.177402 -0.0751877 0.000605405
0.0125 1.0842e-19 0.02 0.198797 -0.0759146 0.000814499
-0.0125 1.0842e-19 0.02 0.193338 -0.071122 0.000708375
0.0225 1.0842e-19 0.00736572 0.170088 -0.0853379 0.00048982
-0.0225 1.0842e-19 0.00736572 0.160254 -0.0764991 0.000457794
0.0075 1.0842e-19 0.0225 0.201568 -0.0729821 0.000792213
-0.0075 1.0842e-19 0.0225 0.198299 -0.0702099 0.000724902
0.02375 -3.61401e-20 0.00116943 0.0867074 -0.0462107 8.24196e-05
-0.02375 -2.71051e-20 0.00116944 0.0811942 -0.0439269 9.60539e-05
0.00125 3.61401e-20 0.02375 0.202064 -0.0708861 0.000755652
-0.00125 3.61401e-20 0.02375 0.201518 -0.0704324 0.000744181
0.02375 9.03502e-21 0.00356872 0.142272 -0.0760548 0.000224071
-0.02375 -9.03502e-21 0.00356873 0.13322 -0.0694739 0.000238805
-0.02125 0 0.011217 0.174021 -0.075759 0.000579713
0.02125 3.61401e-20 0.011217 0.183513 -0.0845976 0.000655477
0.01125 3.61401e-20 0.02125 0.20051 -0.0746612 0.000814713
-0.01125 -1.807e-20 0.02125 0.195604 -0.0704267 0.000715111
0.00375 0 0.02375 0.202616 -0.0713411 0.000767121
-0.00375 0 0.02375 0.20098 -0.0699808 0.000732999
-0.024123 1.0842e-19 0 0 0 0
0.024123 -5.42101e-20 0 0 0 0
-0.02375 0 0.00608215 0.153747 -0.0756791 0.000405759
0.02375 1.807e-20 0.00608215 0.163918 -0.0845092 0.00042293
0.00625 3.61401e-20 0.02375 0.203175 -0.0717965 0.000778741
-0.00625 -1.807e-20 0.02375 0.20045 -0.0695276 0.000722135
0.0225 1.0842e-19 0.00994629 0.179985 -0.0854399 0.000606419
-0.0225 1.0842e-19 0.00994629 0.169961 -0.0761443 0.000540669
0.01 1.0842e-19 0.0225 0.202138 -0.0734467 0.00080419
-0.01 1.0842e-19 0.0225 0.19778 -0.0697505 0.000714526
0.0175 1.0842e-19 0.0175 0.195787 -0.0789732 0.000809126
-0.0175 1.0842e-19 0.0175 0.188098 -0.0720247 0.000677143
0.01875 -1.807e-20 0.0162494 0.193877 -0.0802729 0.000791822
-0.01875 1.807e-20 0.0162494 0.185605 -0.0727085 0.000663441
0.01625 3.61401e-20 0.01875 0.197646 -0.0776799 0.000821541
-0.01625 3.61401e-20 0.01875 0.19053 -0.0713365 0.000689605
0.02 1.0842e-19 0.0149988 0.191758 -0.0815627 0.000763542
-0.02 1.0842e-19 0.0149988 0.182899 -0.073395 0.00064298
0.015 1.0842e-19 0.02 0.199385 -0.0764007 0.000826397
-0.015 1.0842e-19 0.02 0.192831 -0.0706488 0.000698265
0.025 0 0 0 0 0
-0.025 1.0842e-19 0 0 0 0
-1.024e-14 1.0842e-19 0.025 0.203591 -0.0697488 0.000735586
0.025 0 0.00233887 0.120175 -0.0642235 0.000151229
-0.025 1.0842e-19 0.00233887 0.112135 -0.0594996 0.000167712
0.0025 1.0842e-19 0.025 0.204139 -0.0701944 0.000746972
-0.0025 1.0842e-19 0.025 0.20305 -0.0693048 0.000724383
0.02375 -1.807e-20 0.008656 0.176061 -0.0860754 0.000551028
-0.02375 3.61401e-20 0.008656 0.165531 -0.07639 0.000498822
0.02125 0 0.0137433 0.18954 -0.0828379 0.000731237
-0.02125 0 0.0137433 0.180087 -0.0740678 0.000621646
0.01375 3.61401e-20 0.02125 0.201093 -0.0751369 0.000827083
-0.00875 0 0.02375 0.199927 -0.0690752 0.000711506
-0.01375 3.61401e-20 0.02125 0.195095 -0.0699606 0.000705121
0.00875 0 0.02375 0.20374 -0.0722507 0.000790542
0.025 0 0.00479858 0.154511 -0.0812644 0.000324033
-0.025 1.0842e-19 0.00479858 0.144302 -0.0730416 0.00032225
0.005 1.0842e-19 0.025 0.204695 -0.0706406 0.000758454
-0.005 1.0842e-19 0.025 0.202516 -0.0688608 0.000713475
0.0225 1.0842e-19 0.0124878 0.186935 -0.0840084 0.000698892
-0.0225 1.0842e-19 0.0124878 0.176903 -0.0746789 0.000598309
0.0125 1.0842e-19 0.0225 0.202717 -0.0739124 0.000816641
-0.0125 1.0842e-19 0.0225 0.197268 -0.0692919 0.000704328
0.025877 0 0 0 0 0
-0.025877 1.0842e-19 0 0 0 0
0.025 1.0842e-19 0.00736572 0.1707 -0.0858184 0.000492825
-0.025 1.0842e-19 0.00736572 0.159773 -0.0760085 0.00045346
0.0075 1.0842e-19 0.025 0.205257 -0.0710867 0.000770095
-0.0075 1.0842e-19 0.025 0.201989 -0.0684163 0.000702809
-0.02375 0 0.011217 0.173524 -0.0752476 0.000573216
0.02375 0 0.011217 0.184132 -0.0851178 0.000661962
0.02625 -9.03502e-21 0.00116943 0.087048 -0.0462947 8.13999e-05
-0.02625 0 0.00116944 0.0809499 -0.0437831 9.60416e-05
0.00125 0 0.02625 0.205637 -0.0690695 0.000724633
-0.01125 -1.807e-20 0.02375 0.199411 -0.0686248 0.000701152
0.01125 3.61401e-20 0.02375 0.204315 -0.0727066 0.000802783
-0.00125 0 0.02625 0.205093 -0.0686337 0.000713477
0.02625 9.03502e-21 0.00356872 0.142817 -0.0763674 0.000223152
-0.02625 9.03502e-21 0.00356873 0.132807 -0.0691079 0.000238135
0.00375 3.61401e-20 0.02625 0.206189 -0.069507 0.000735842
-0.00375 0 0.02625 0.204555 -0.0681981 0.000702513
0.01875 3.61401e-20 0.01875 0.198246 -0.0781775 0.000833153
-0.01875 0 0.01875 0.190033 -0.0708571 0.000679504
0.02 1.0842e-19 0.0175 0.196392 -0.0794794 0.000819555
0.0175 1.0842e-19 0.02 0.19998 -0.0768876 0.000838712
-0.0175 1.0842e-19 0.02 0.192332 -0.0701769 0.00068812
-0.02 1.0842e-19 0.0175 0.187602 -0.0715387 0.000667652
-0.026623 1.0842e-19 0 0 0 0
0.026623 1.0842e-19 0 0 0 0
0.02125 -1.807e-20 0.0162494 0.194484 -0.080786 0.000800794
-0.02125 0 0.0162494 0.18511 -0.0722164 0.000654636
-0.01625 0 0.02125 0.194593 -0.0694957 0.000694936
0.01625 3.61401e-20 0.02125 0.201684 -0.0756133 0.000839747
0.025 1.0842e-19 0.00994629 0.180607 -0.0859535 0.000612332
-0.025 1.0842e-19 0.00994629 0.169469 -0.0756348 0.000534702
0.01 1.0842e-19 0.025 0.205828 -0.0715332 0.000782062
-0.01 1.0842e-19 0.025 0.20147 -0.0679724 0.000692312
0.02625 1.807e-20 0.00608215 0.164522 -0.0849572 0.000425318
-0.02625 9.03502e-21 0.00608215 0.15328 -0.0752105 0.000402354
0.00625 0 0.02625 0.206746 -0.0699426 0.000747082
-0.00625 0 0.02625 0.204024 -0.0677615 0.000691831
0.0225 1.0842e-19 0.0149988 0.192371 -0.0820811 0.000771769
-0.0225 1.0842e-19 0.0149988 0.182404 -0.0728969 0.000634603
0.015 1.0842e-19 0.0225 0.203303 -0.0743786 0.000829535
-0.015 1.0842e-19 0.0225 0.196763 -0.0688343 0.000694183
-0.02375 -1.807e-20 0.0137433 0.179593 -0.073565 0.000613819
0.02375 3.61401e-20 0.0137433 0.190156 -0.0833568 0.000738973
0.01375 3.61401e-20 0.02375 0.204898 -0.0731632 0.000815437
-0.01375 3.61401e-20 0.02375 0.198903 -0.0681741 0.000690959
0.0275 1.0842e-19 0 0 0 0
-0.0275 1.0842e-19 0 0 0 0
-1.02399e-14 1.0842e-19 0.0275 0.207043 -0.0679978 0.000695091
-0.0275 1.0842e-19 0.00233887 0.111793 -0.0592384 0.00016739
0.0275 0 0.00233887 0.120644 -0.0644201 0.000150472
0.0025 1.0842e-19 0.0275 0.207592 -0.0684265 0.000705916
-0.0025 1.0842e-19 0.0275 0.206501 -0.0675704 0.000684515
0.02625 1.807e-20 0.008656 0.176685 -0.0865808 0.000556169
-0.02625 3.61401e-20 0.008656 0.165045 -0.0758855 0.000493459
0.00875 -1.807e-20 0.02625 0.207313 -0.0703809 0.000758551
-0.00875 0 0.02625 0.2035 -0.0673249 0.000681267
0.0275 0 0.00479858 0.155095 -0.0816496 0.000325216
-0.0275 1.0842e-19 0.00479858 0.143861 -0.0726182 0.000320154
0.025 1.0842e-19 0.0124878 0.187557 -0.084528 0.000707192
-0.025 1.0842e-19 0.0124878 0.17641 -0.0741715 0.000591039
0.005 1.0842e-19 0.0275 0.208147 -0.0688555 0.00071696
-0.005 1.0842e-19 0.0275 0.205967 -0.0671429 0.000674214
0.0125 1.0842e-19 0.025 0.206407 -0.0719806 0.000794481
-0.0125 1.0842e-19 0.025 0.200958 -0.0675293 0.000681991
0.02 1.0842e-19 0.02 0.200584 -0.077375 0.000851618
-0.02 1.0842e-19 0.02 0.191839 -0.0697058 0.000678056
-0.02125 -1.807e-20 0.01875 0.189543 -0.0703792 0.00066944
0.02125 -1.807e-20 0.01875 0.198855 -0.0786759 0.000845435
-0.01875 3.61401e-20 0.02125 0.194098 -0.0690323 0.000684847
0.01875 1.807e-20 0.02125 0.202284 -0.0760906 0.000852981
0.028377 0 0 0 0 0
-0.028377 1.0842e-19 0 0 0 0
0.0275 1.0842e-19 0.00736572 0.17132 -0.0862982 0.000497484
-0.0275 1.0842e-19 0.00736572 0.159298 -0.0755187 0.000449092
0.0075 1.0842e-19 0.0275 0.208711 -0.0692844 0.00072828
-0.0075 1.0842e-19 0.0275 0.205439 -0.0667142 0.000664092
0.0225 1.0842e-19 0.0175 0.197003 -0.0799866 0.000830619
0.0175 1.0842e-19 0.0225 0.203898 -0.0748451 0.000842941
-0.0175 1.0842e-19 0.0225 0.196265 -0.0683777 0.000684051
-0.0225 1.0842e-19 0.0175 0.187112 -0.0710544 0.000658133
0.02625 0 0.011217 0.184758 -0.0856355 0.000670139
-0.02625 0 0.011217 0.173034 -0.0747383 0.000566428
-0.01125 3.61401e-20 0.02625 0.202984 -0.0668888 0.00067082
0.01125 3.61401e-20 0.02625 0.207889 -0.0708196 0.000770468
0.02875 0 0.00116943 0.0873926 -0.046374 8.09753e-05
-0.02875 9.03502e-21 0.00116944 0.0807089 -0.0436372 9.60267e-05
-0.02375 0 0.0162494 0.184622 -0.0717256 0.00064565
0.02375 3.61401e-20 0.0162494 0.1951 -0.0813021 0.000810325
0.01625 1.807e-20 0.02375 0.205487 -0.0736186 0.000828759
-0.01625 3.61401e-20 0.02375 0.198402 -0.0677248 0.000680921
0.00125 5.42101e-20 0.0287506 0.208962 -0.0673745 0.000673999
-0.00125 -5.42101e-20 0.0287506 0.208415 -0.0669544 0.000663788
0.02875 -1.807e-20 0.00356872 0.14337 -0.0766776 0.000223092
-0.02875 1.807e-20 0.00356873 0.1324 -0.0687413 0.000237101
0.00375 -1.807e-20 0.0287506 0.209514 -0.0677949 0.000684491
-0.00375 0 0.0287506 0.207877 -0.0665357 0.000653882
-0.029123 5.42101e-20 0 0 0 0
0.029123 0 0 0 0 0
0.025 1.0842e-19 0.0149988 0.19299 -0.0825982 0.000781427
-0.025 1.0842e-19 0.0149988 0.181915 -0.0724001 0.000626104
0.015 1.0842e-19 0.025 0.206994 -0.0724278 0.000807452
-0.015 1.0842e-19 0.025 0.200453 -0.067087 0.000671919
0.0275 1.0842e-19 0.00994629 0.181237 -0.0864668 0.000620278
-0.0275 1.0842e-19 0.00994629 0.168983 -0.0751265 0.000528674
0.01 1.0842e-19 0.0275 0.209282 -0.0697138 0.000739928
-0.01 1.0842e-19 0.0275 0.204918 -0.0662855 0.000654097
0.02875 0 0.00608215 0.165135 -0.0854029 0.000428923
-0.02875 -5.42101e-20 0.00608215 0.15282 -0.0747422 0.000398787
0.00625 3.61401e-20 0.0287506 0.210075 -0.0682162 0.000695417
-0.00625 3.61401e-20 0.0287506 0.207345 -0.0661154 0.000644136
0.02625 3.61401e-20 0.0137433 0.190779 -0.0838757 0.000749068
-0.02625 3.61401e-20 0.0137433 0.179105 -0.0730621 0.000605797
0.01375 3.61401e-20 0.02625 0.208473 -0.0712585 0.000782985
-0.01375 0 0.02625 0.202475 -0.0664536 0.000660596
0.03 1.0842e-19 0 0 0 0
-0.03 1.0842e-19 0 0 0 0
8.39715e-13 1.0842e-19 0.0300012 0.210215 -0.0663967 0.000636735
0.02875 1.807e-20 0.008656 0.177318 -0.0870855 0.000563517
-0.02875 0 0.008656 0.164565 -0.0753807 0.000488333
0.02125 1.807e-20 0.02125 0.202891 -0.0765671 0.000866887
-0.02125 1.807e-20 0.02125 0.193609 -0.0685693 0.000674928
-0.00875 3.61401e-20 0.0287506 0.206819 -0.0656942 0.000634523
0.00875 0 0.0287506 0.210643 -0.0686362 0.000706699
0.03 -1.0842e-19 0.00233887 0.121118 -0.064612 0.000150305
-0.03 1.0842e-19 0.00233887 0.111457 -0.0589755 0.000166994
0.0225 1.0842e-19 0.02 0.201196 -0.0778633 0.000865251
0.02 1.0842e-19 0.0225 0.204502 -0.0753118 0.000856981
-0.02 1.0842e-19 0.0225 0.195774 -0.0679225 0.000673984
-0.0225 1.0842e-19 0.02 0.191353 -0.0692361 0.000668032
0.0025 1.0842e-19 0.0300012 0.210766 -0.0668097 0.000646488
-0.0025 1.0842e-19 0.0300012 0.209671 -0.0659848 0.000627204
0.0275 1.0842e-19 0.0124878 0.188185 -0.0850461 0.000717689
-0.0275 1.0842e-19 0.0124878 0.175923 -0.0736653 0.000583592
0.0125 1.0842e-19 0.0275 0.209863 -0.0701437 0.000751996
-0.0125 1.0842e-19 0.0275 0.204405 -0.0658575 0.000644256
0.01875 0 0.02375 0.206086 -0.0740755 0.00084265
-0.01875 0 0.02375 0.197908 -0.0672765 0.000670898
-0.02375 0 0.01875 0.189059 -0.0699032 0.000659463
0.02375 3.61401e-20 0.01875 0.19947 -0.0791749 0.00085849
0.03 -1.0842e-19 0.00479858 0.155687 -0.0820325 0.000327466
-0.03 1.0842e-19 0.00479858 0.143426 -0.0721945 0.000317929
0.005 1.0842e-19 0.0300012 0.211325 -0.0672229 0.000656638
-0.005 1.0842e-19 0.0300012 0.209134 -0.0655727 0.000617821
0.0175 1.0842e-19 0.025 0.207588 -0.072875 0.000821081
0.025 1.0842e-19 0.0175 0.197623 -0.0804941 0.000842447
-0.0175 1.0842e-19 0.025 0.199955 -0.0666458 0.000662043
-0.025 1.0842e-19 0.0175 0.186629 -0.0705716 0.000648647
-0.02875 -1.807e-20 0.011217 0.172548 -0.0742296 0.000559574
0.02875 0 0.011217 0.185392 -0.0861536 0.000680716
0.02625 3.61401e-20 0.0162494 0.195722 -0.0818153 0.000821198
-0.02625 0 0.0162494 0.184139 -0.0712366 0.00063669
0.01625 0 0.02625 0.209063 -0.0716962 0.000796156
-0.01625 3.61401e-20 0.02625 0.201973 -0.0660194 0.00065084
0.01125 0 0.0287506 0.21122 -0.0690575 0.000718314
-0.01125 0 0.0287506 0.206302 -0.0652734 0.000625081
0.030877 0 0 0 0 0
-0.030877 1.0842e-19 0 0 0 0
0.03 1.0842e-19 0.00736572 0.171949 -0.0867774 0.000503957
-0.03 1.0842e-19 0.00736572 0.158829 -0.0750294 0.000444745
0.0075 1.0842e-19 0.0300012 0.211891 -0.0676356 0.000667338
-0.0075 1.0842e-19 0.0300012 0.208604 -0.0651591 0.00060854
0.03125 -9.03502e-21 0.00116943 0.0877412 -0.0464483 8.0807e-05
-0.03125 -1.807e-20 0.00116944 0.0804712 -0.0434896 9.61044e-05
0.00125 1.807e-20 0.0312567 0.211976 -0.0658575 0.000606574
-0.00125 -1.807e-20 0.0312567 0.211426 -0.0654527 0.000597512