# Moment      
# CofR        : (0.000000e+00 0.000000e+00 0.000000e+00)
#
# Time        	(total_x total_y total_z)	(pressure_x pressure_y pressure_z)	(viscous_x viscous_y viscous_z)
5001          	(1.077024e-05 -4.147102e-04 2.330964e-04)	(1.103767e-05 -4.028490e-04 2.339100e-04)	(-2.674380e-07 -1.186116e-05 -8.135702e-07)
5002          	(7.494844e-06 -4.130319e-04 1.959743e-04)	(7.789413e-06 -4.012800e-04 1.968103e-04)	(-2.945692e-07 -1.175198e-05 -8.360246e-07)
5003          	(3.373124e-06 -4.122376e-04 1.497858e-04)	(3.681917e-06 -4.005813e-04 1.505891e-04)	(-3.087938e-07 -1.165624e-05 -8.033512e-07)
5004          	(-1.271373e-06 -4.123690e-04 9.742599e-05)	(-9.609552e-07 -4.007854e-04 9.814574e-05)	(-3.104182e-07 -1.158358e-05 -7.197527e-07)
5005          	(-6.087340e-06 -4.133088e-04 4.223034e-05)	(-5.785994e-06 -4.017757e-04 4.282615e-05)	(-3.013459e-07 -1.153316e-05 -5.958122e-07)
5006          	(-1.073418e-05 -4.147634e-04 -1.247659e-05)	(-1.045060e-05 -4.032611e-04 -1.203938e-05)	(-2.835877e-07 -1.150233e-05 -4.372088e-07)
5007          	(-1.495361e-05 -4.162767e-04 -6.390630e-05)	(-1.469306e-05 -4.047897e-04 -6.364665e-05)	(-2.605498e-07 -1.148700e-05 -2.596542e-07)
5008          	(-1.871024e-05 -4.173643e-04 -1.086265e-04)	(-1.847536e-05 -4.058854e-04 -1.085502e-04)	(-2.348849e-07 -1.147889e-05 -7.630168e-08)
5009          	(-2.172103e-05 -4.176564e-04 -1.473924e-04)	(-2.151313e-05 -4.061844e-04 -1.474951e-04)	(-2.078916e-07 -1.147196e-05 1.027761e-07)
5010          	(-2.398847e-05 -4.170379e-04 -1.791266e-04)	(-2.380843e-05 -4.055766e-04 -1.793969e-04)	(-1.800356e-07 -1.146133e-05 2.702430e-07)
5011          	(-2.536065e-05 -4.156410e-04 -2.048973e-04)	(-2.521056e-05 -4.041975e-04 -2.053202e-04)	(-1.500982e-07 -1.144355e-05 4.229045e-07)
5012          	(-2.560715e-05 -4.137427e-04 -2.246613e-04)	(-2.549115e-05 -4.023275e-04 -2.252198e-04)	(-1.159987e-07 -1.141517e-05 5.585871e-07)
5013          	(-2.456105e-05 -4.117270e-04 -2.376440e-04)	(-2.448407e-05 -4.003390e-04 -2.383190e-04)	(-7.697625e-08 -1.138797e-05 6.749993e-07)
5014          	(-2.217562e-05 -4.100730e-04 -2.415610e-04)	(-2.214250e-05 -3.987056e-04 -2.423314e-04)	(-3.311527e-08 -1.136743e-05 7.703195e-07)
5015          	(-1.883648e-05 -4.091816e-04 -2.364519e-04)	(-1.885106e-05 -3.978290e-04 -2.372950e-04)	(1.458878e-08 -1.135268e-05 8.430446e-07)
5016          	(-1.453187e-05 -4.090584e-04 -2.218120e-04)	(-1.459622e-05 -3.977226e-04 -2.227041e-04)	(6.435253e-08 -1.133576e-05 8.920950e-07)
5017          	(-9.258810e-06 -4.096815e-04 -1.974065e-04)	(-9.371186e-06 -3.983659e-04 -1.983181e-04)	(1.123752e-07 -1.131565e-05 9.115454e-07)
5018          	(-3.068208e-06 -4.109067e-04 -1.634859e-04)	(-3.221679e-06 -3.996151e-04 -1.643756e-04)	(1.534709e-07 -1.129165e-05 8.896613e-07)
5019          	(3.804031e-06 -4.125216e-04 -1.216336e-04)	(3.621605e-06 -4.012549e-04 -1.224496e-04)	(1.824255e-07 -1.126667e-05 8.159661e-07)
5020          	(1.127853e-05 -4.142552e-04 -7.289648e-05)	(1.108244e-05 -4.030053e-04 -7.358524e-05)	(1.960966e-07 -1.124980e-05 6.887601e-07)
5021          	(1.903372e-05 -4.158666e-04 -1.985902e-05)	(1.883983e-05 -4.046253e-04 -2.037284e-05)	(1.938900e-07 -1.124124e-05 5.138259e-07)
5022          	(2.666214e-05 -4.171039e-04 3.426717e-05)	(2.648559e-05 -4.058646e-04 3.396854e-05)	(1.765430e-07 -1.123928e-05 2.986356e-07)
5023          	(3.369445e-05 -4.176748e-04 8.570352e-05)	(3.354728e-05 -4.064347e-04 8.564617e-05)	(1.471753e-07 -1.124006e-05 5.734502e-08)
5024          	(3.951242e-05 -4.175406e-04 1.282881e-04)	(3.940383e-05 -4.063029e-04 1.284893e-04)	(1.085955e-07 -1.123768e-05 -2.011525e-07)
5025          	(4.412326e-05 -4.167211e-04 1.637728e-04)	(4.406047e-05 -4.054979e-04 1.642431e-04)	(6.278854e-08 -1.122319e-05 -4.702266e-07)
5026          	(4.736087e-05 -4.154219e-04 1.910268e-04)	(4.734836e-05 -4.042288e-04 1.917647e-04)	(1.251178e-08 -1.119307e-05 -7.379192e-07)
5027          	(4.895089e-05 -4.138926e-04 2.079129e-04)	(4.898887e-05 -4.027396e-04 2.088997e-04)	(-3.797253e-08 -1.115304e-05 -9.868046e-07)
5028          	(4.864643e-05 -4.124580e-04 2.132142e-04)	(4.873141e-05 -4.013466e-04 2.144101e-04)	(-8.497977e-08 -1.111139e-05 -1.195908e-06)
5029          	(4.600166e-05 -4.114123e-04 2.048885e-04)	(4.612721e-05 -4.003392e-04 2.062376e-04)	(-1.255498e-07 -1.107315e-05 -1.349057e-06)
5030          	(4.143851e-05 -4.109265e-04 1.845155e-04)	(4.159639e-05 -3.998837e-04 1.859508e-04)	(-1.578818e-07 -1.104278e-05 -1.435293e-06)
5031          	(3.510974e-05 -4.111991e-04 1.533266e-04)	(3.529063e-05 -4.001774e-04 1.547775e-04)	(-1.808860e-07 -1.102167e-05 -1.450937e-06)
5032          	(2.727162e-05 -4.123337e-04 1.132817e-04)	(2.746650e-05 -4.013238e-04 1.146790e-04)	(-1.948756e-07 -1.100990e-05 -1.397259e-06)
5033          	(1.830416e-05 -4.143458e-04 6.714447e-05)	(1.850409e-05 -4.033319e-04 6.842060e-05)	(-1.999341e-07 -1.101382e-05 -1.276133e-06)
5034          	(8.692340e-06 -4.170980e-04 1.820248e-05)	(8.889880e-06 -4.060643e-04 1.929927e-05)	(-1.975394e-07 -1.103371e-05 -1.096788e-06)
5035          	(-1.052263e-06 -4.203252e-04 -3.019876e-05)	(-8.628291e-07 -4.092583e-04 -2.933202e-05)	(-1.894342e-07 -1.106694e-05 -8.667311e-07)
5036          	(-1.046628e-05 -4.236278e-04 -7.519160e-05)	(-1.028809e-05 -4.125155e-04 -7.459056e-05)	(-1.781882e-07 -1.111237e-05 -6.010403e-07)
5037          	(-1.889450e-05 -4.265473e-04 -1.138508e-04)	(-1.872884e-05 -4.153822e-04 -1.135373e-04)	(-1.656612e-07 -1.116510e-05 -3.134986e-07)
5038          	(-2.633387e-05 -4.286496e-04 -1.455783e-04)	(-2.618137e-05 -4.174291e-04 -1.455612e-04)	(-1.524996e-07 -1.122049e-05 -1.706540e-08)
5039          	(-3.214500e-05 -4.297089e-04 -1.679095e-04)	(-3.200667e-05 -4.184335e-04 -1.681880e-04)	(-1.383295e-07 -1.127537e-05 2.784436e-07)
5040          	(-3.695474e-05 -4.296690e-04 -1.846719e-04)	(-3.683407e-05 -4.183484e-04 -1.852377e-04)	(-1.206739e-07 -1.132063e-05 5.657453e-07)
5041          	(-4.069076e-05 -4.286605e-04 -1.960493e-04)	(-4.059452e-05 -4.173132e-04 -1.968882e-04)	(-9.623976e-08 -1.134735e-05 8.388764e-07)
5042          	(-4.335737e-05 -4.268638e-04 -2.024458e-04)	(-4.329376e-05 -4.155016e-04 -2.035343e-04)	(-6.360758e-08 -1.136220e-05 1.088504e-06)
5043          	(-4.465855e-05 -4.245758e-04 -2.019787e-04)	(-4.463603e-05 -4.132102e-04 -2.032847e-04)	(-2.252547e-08 -1.136562e-05 1.305964e-06)
5044          	(-4.455517e-05 -4.220283e-04 -1.947609e-04)	(-4.458087e-05 -4.106734e-04 -1.962431e-04)	(2.570600e-08 -1.135490e-05 1.482202e-06)
5045          	(-4.285199e-05 -4.192459e-04 -1.794900e-04)	(-4.293085e-05 -4.079246e-04 -1.811012e-04)	(7.886227e-08 -1.132135e-05 1.611108e-06)
5046          	(-3.932476e-05 -4.162680e-04 -1.542211e-04)	(-3.945743e-05 -4.050048e-04 -1.559068e-04)	(1.326722e-07 -1.126321e-05 1.685729e-06)
5047          	(-3.418539e-05 -4.132024e-04 -1.204846e-04)	(-3.436654e-05 -4.020244e-04 -1.221792e-04)	(1.811469e-07 -1.117795e-05 1.694626e-06)
5048          	(-2.757148e-05 -4.100920e-04 -7.888165e-05)	(-2.778947e-05 -3.990210e-04 -8.050994e-05)	(2.179866e-07 -1.107098e-05 1.628288e-06)
5049          	(-1.987277e-05 -4.070301e-04 -3.179620e-05)	(-2.011141e-05 -3.960769e-04 -3.328507e-05)	(2.386433e-07 -1.095320e-05 1.488869e-06)
5050          	(-1.132983e-05 -4.040615e-04 1.980636e-05)	(-1.157140e-05 -3.932302e-04 1.851734e-05)	(2.415685e-07 -1.083125e-05 1.289019e-06)
5051          	(-2.430173e-06 -4.012235e-04 7.302867e-05)	(-2.656883e-06 -3.905149e-04 7.198415e-05)	(2.267101e-07 -1.070868e-05 1.044520e-06)
5052          	(6.131228e-06 -3.984676e-04 1.239429e-04)	(5.934645e-06 -3.878812e-04 1.231668e-04)	(1.965830e-07 -1.058644e-05 7.760852e-07)
5053          	(1.386676e-05 -3.958742e-04 1.695244e-04)	(1.371228e-05 -3.854091e-04 1.690217e-04)	(1.544813e-07 -1.046513e-05 5.026236e-07)
5054          	(2.012479e-05 -3.934172e-04 2.044551e-04)	(2.002169e-05 -3.830756e-04 2.042212e-04)	(1.031027e-07 -1.034161e-05 2.339847e-07)
5055          	(2.501524e-05 -3.913172e-04 2.319472e-04)	(2.496982e-05 -3.811045e-04 2.319625e-04)	(4.542338e-08 -1.021269e-05 -1.535762e-08)
5056          	(2.819154e-05 -3.897702e-04 2.502638e-04)	(2.820569e-05 -3.796825e-04 2.504933e-04)	(-1.414653e-08 -1.008775e-05 -2.295439e-07)
5057          	(2.936265e-05 -3.890565e-04 2.584153e-04)	(2.943371e-05 -3.790782e-04 2.588056e-04)	(-7.106091e-08 -9.978252e-06 -3.902548e-07)
5058          	(2.822079e-05 -3.894353e-04 2.550266e-04)	(2.834255e-05 -3.795427e-04 2.555127e-04)	(-1.217591e-07 -9.892569e-06 -4.860409e-07)
5059          	(2.457289e-05 -3.910774e-04 2.392277e-04)	(2.473690e-05 -3.812420e-04 2.397397e-04)	(-1.640076e-07 -9.835403e-06 -5.120073e-07)
5060          	(1.884378e-05 -3.940544e-04 2.127543e-04)	(1.904012e-05 -3.842454e-04 2.132234e-04)	(-1.963362e-07 -9.809038e-06 -4.690160e-07)
5061          	(1.130216e-05 -3.983638e-04 1.769503e-04)	(1.152077e-05 -3.885478e-04 1.773150e-04)	(-2.186071e-07 -9.815992e-06 -3.646577e-07)
5062          	(2.374617e-06 -4.038429e-04 1.339110e-04)	(2.605412e-06 -3.939835e-04 1.341171e-04)	(-2.307940e-07 -9.859409e-06 -2.061922e-07)
5063          	(-7.381650e-06 -4.101584e-04 8.636815e-05)	(-7.147691e-06 -4.002179e-04 8.637697e-05)	(-2.339593e-07 -9.940505e-06 -8.811231e-09)
5064          	(-1.733473e-05 -4.168437e-04 3.737074e-05)	(-1.710475e-05 -4.067886e-04 3.715777e-05)	(-2.299824e-07 -1.005509e-05 2.129715e-07)
5065          	(-2.664658e-05 -4.232969e-04 -9.089915e-06)	(-2.642561e-05 -4.131001e-04 -9.532825e-06)	(-2.209692e-07 -1.019680e-05 4.429099e-07)
5066          	(-3.499384e-05 -4.289217e-04 -5.220729e-05)	(-3.478525e-05 -4.185655e-04 -5.287287e-05)	(-2.085894e-07 -1.035616e-05 6.655781e-07)
5067          	(-4.214272e-05 -4.332261e-04 -9.051892e-05)	(-4.194910e-05 -4.227012e-04 -9.138676e-05)	(-1.936231e-07 -1.052490e-05 8.678358e-07)
5068          	(-4.789176e-05 -4.359877e-04 -1.235433e-04)	(-4.771594e-05 -4.252921e-04 -1.245847e-04)	(-1.758212e-07 -1.069560e-05 1.041418e-06)
5069          	(-5.205937e-05 -4.373656e-04 -1.485502e-04)	(-5.190674e-05 -4.265041e-04 -1.497379e-04)	(-1.526323e-07 -1.086141e-05 1.187638e-06)
5070          	(-5.488559e-05 -4.376680e-04 -1.697895e-04)	(-5.476410e-05 -4.266529e-04 -1.710916e-04)	(-1.214889e-07 -1.101503e-05 1.302084e-06)
5071          	(-5.634830e-05 -4.372904e-04 -1.885404e-04)	(-5.626733e-05 -4.261233e-04 -1.899169e-04)	(-8.097716e-08 -1.116705e-05 1.376521e-06)
5072          	(-5.399822e-05 -4.363741e-04 -2.032625e-04)	(-5.396766e-05 -4.250570e-04 -2.046684e-04)	(-3.055612e-08 -1.131715e-05 1.405872e-06)
5073          	(-4.895576e-05 -4.354921e-04 -2.115175e-04)	(-4.898441e-05 -4.240292e-04 -2.129027e-04)	(2.865664e-08 -1.146289e-05 1.385217e-06)
5074          	(-4.117037e-05 -4.347461e-04 -2.123760e-04)	(-4.126498e-05 -4.231496e-04 -2.136895e-04)	(9.460651e-08 -1.159651e-05 1.313508e-06)
5075          	(-3.065138e-05 -4.341412e-04 -2.057585e-04)	(-3.081458e-05 -4.224272e-04 -2.069474e-04)	(1.632049e-07 -1.171403e-05 1.188965e-06)
5076          	(-1.811659e-05 -4.336936e-04 -1.897928e-04)	(-1.834495e-05 -4.218813e-04 -1.907981e-04)	(2.283575e-07 -1.181232e-05 1.005287e-06)
5077          	(-3.961310e-06 -4.333152e-04 -1.653671e-04)	(-4.244653e-06 -4.214246e-04 -1.661263e-04)	(2.833433e-07 -1.189055e-05 7.591575e-07)
5078          	(1.110327e-05 -4.329233e-04 -1.331454e-04)	(1.078051e-05 -4.209674e-04 -1.336001e-04)	(3.227582e-07 -1.195590e-05 4.547628e-07)
5079          	(2.345869e-05 -4.325298e-04 -9.420037e-05)	(2.311500e-05 -4.205195e-04 -9.430960e-05)	(3.436918e-07 -1.201027e-05 1.092294e-07)
5080          	(3.547059e-05 -4.318310e-04 -5.112035e-05)	(3.512554e-05 -4.197755e-04 -5.085634e-05)	(3.450571e-07 -1.205557e-05 -2.640164e-07)
5081          	(4.634040e-05 -4.305816e-04 -8.332541e-06)	(4.601212e-05 -4.184949e-04 -7.687618e-06)	(3.282723e-07 -1.208665e-05 -6.449227e-07)
5082          	(5.599686e-05 -4.287194e-04 3.304440e-05)	(5.570114e-05 -4.166136e-04 3.405918e-05)	(2.957152e-07 -1.210581e-05 -1.014783e-06)
5083          	(6.377192e-05 -4.261601e-04 6.912316e-05)	(6.352277e-05 -4.140587e-04 7.048472e-05)	(2.491426e-07 -1.210140e-05 -1.361555e-06)
5084          	(6.958519e-05 -4.230302e-04 9.934682e-05)	(6.939458e-05 -4.109634e-04 1.010203e-04)	(1.906097e-07 -1.206680e-05 -1.673436e-06)
5085          	(7.342061e-05 -4.195438e-04 1.242736e-04)	(7.329688e-05 -4.075376e-04 1.262076e-04)	(1.237209e-07 -1.200625e-05 -1.934067e-06)
5086          	(7.516873e-05 -4.159890e-04 1.439828e-04)	(7.511558e-05 -4.040597e-04 1.461042e-04)	(5.314745e-08 -1.192931e-05 -2.121426e-06)
5087          	(7.456184e-05 -4.127227e-04 1.570567e-04)	(7.457884e-05 -4.008797e-04 1.592746e-04)	(-1.700019e-08 -1.184294e-05 -2.217890e-06)
5088          	(6.820404e-05 -4.103601e-04 1.620155e-04)	(6.828798e-05 -3.986071e-04 1.642279e-04)	(-8.393622e-08 -1.175297e-05 -2.212339e-06)
5089          	(5.829852e-05 -4.088321e-04 1.582097e-04)	(5.844354e-05 -3.971699e-04 1.603124e-04)	(-1.450196e-07 -1.166216e-05 -2.102726e-06)
5090          	(4.519131e-05 -4.083072e-04 1.462871e-04)	(4.539019e-05 -3.967329e-04 1.481816e-04)	(-1.988730e-07 -1.157425e-05 -1.894465e-06)
5091          	(2.931267e-05 -4.088396e-04 1.293763e-04)	(2.955669e-05 -3.973454e-04 1.309688e-04)	(-2.440221e-07 -1.149419e-05 -1.592528e-06)
5092          	(1.186651e-05 -4.102324e-04 1.081769e-04)	(1.214607e-05 -3.988039e-04 1.093902e-04)	(-2.795566e-07 -1.142854e-05 -1.213376e-06)
5093          	(-6.043224e-06 -4.121665e-04 8.449275e-05)	(-5.737240e-06 -4.007873e-04 8.527098e-05)	(-3.059840e-07 -1.137918e-05 -7.782250e-07)
5094          	(-2.220680e-05 -4.140851e-04 5.750539e-05)	(-2.188302e-05 -4.027396e-04 5.781739e-05)	(-3.237796e-07 -1.134548e-05 -3.120083e-07)
5095          	(-3.689855e-05 -4.155665e-04 3.151419e-05)	(-3.656432e-05 -4.042428e-04 3.135545e-05)	(-3.342283e-07 -1.132375e-05 1.587409e-07)
5096          	(-4.892680e-05 -4.161925e-04 7.491380e-06)	(-4.858863e-05 -4.048840e-04 6.883888e-06)	(-3.381766e-07 -1.130848e-05 6.074922e-07)
5097          	(-5.748221e-05 -4.158684e-04 -1.240402e-05)	(-5.714643e-05 -4.045718e-04 -1.341766e-05)	(-3.357859e-07 -1.129662e-05 1.013637e-06)
5098          	(-6.373503e-05 -4.147339e-04 -2.853361e-05)	(-6.341029e-05 -4.034503e-04 -2.990465e-05)	(-3.247385e-07 -1.128359e-05 1.371041e-06)
5099          	(-6.852161e-05 -4.131539e-04 -4.410848e-05)	(-6.821831e-05 -4.018905e-04 -4.577698e-05)	(-3.032925e-07 -1.126338e-05 1.668499e-06)
5100          	(-7.177224e-05 -4.115396e-04 -5.931955e-05)	(-7.150186e-05 -4.002899e-04 -6.121577e-05)	(-2.703830e-07 -1.124969e-05 1.896220e-06)
5101          	(-7.339446e-05 -4.104066e-04 -7.392087e-05)	(-7.316832e-05 -3.991585e-04 -7.596798e-05)	(-2.261463e-07 -1.124816e-05 2.047107e-06)
5102          	(-7.330358e-05 -4.101184e-04 -8.797893e-05)	(-7.313208e-05 -3.988570e-04 -9.009481e-05)	(-1.714948e-07 -1.126137e-05 2.115877e-06)
5103          	(-6.793560e-05 -4.104236e-04 -9.840736e-05)	(-6.782788e-05 -3.991398e-04 -1.005087e-04)	(-1.077192e-07 -1.128385e-05 2.101290e-06)
5104          	(-5.924270e-05 -4.116056e-04 -1.032368e-04)	(-5.920419e-05 -4.002922e-04 -1.052432e-04)	(-3.850792e-08 -1.131340e-05 2.006395e-06)
5105          	(-4.764029e-05 -4.135400e-04 -1.016350e-04)	(-4.767103e-05 -4.021926e-04 -1.034650e-04)	(3.073753e-08 -1.134739e-05 1.830020e-06)
5106          	(-3.342500e-05 -4.158562e-04 -9.326540e-05)	(-3.351845e-05 -4.044736e-04 -9.483719e-05)	(9.344445e-08 -1.138255e-05 1.571799e-06)
5107          	(-1.716572e-05 -4.181570e-04 -7.846126e-05)	(-1.730987e-05 -4.067355e-04 -7.970068e-05)	(1.441506e-07 -1.142148e-05 1.239426e-06)
5108          	(2.843506e-07 -4.200749e-04 -5.823420e-05)	(1.042189e-07 -4.086133e-04 -5.908475e-05)	(1.801317e-07 -1.146163e-05 8.505499e-07)
5109          	(1.790985e-05 -4.213090e-04 -3.425686e-05)	(1.771024e-05 -4.098099e-04 -3.468059e-05)	(1.996054e-07 -1.149905e-05 4.237322e-07)
5110          	(3.460295e-05 -4.215674e-04 -8.756150e-06)	(3.439996e-05 -4.100413e-04 -8.740162e-06)	(2.029920e-07 -1.152601e-05 -1.598843e-08)
5111          	(4.936295e-05 -4.208256e-04 1.620723e-05)	(4.917102e-05 -4.092835e-04 1.665315e-05)	(1.919307e-07 -1.154202e-05 -4.459189e-07)
5112          	(6.070552e-05 -4.191471e-04 3.872318e-05)	(6.053789e-05 -4.076076e-04 3.957137e-05)	(1.676352e-07 -1.153946e-05 -8.481879e-07)
5113          	(6.740958e-05 -4.169389e-04 5.423773e-05)	(6.727847e-05 -4.054246e-04 5.544876e-05)	(1.311177e-07 -1.151433e-05 -1.211027e-06)
5114          	(7.222400e-05 -4.142424e-04 6.646998e-05)	(7.213859e-05 -4.027709e-04 6.798895e-05)	(8.541261e-08 -1.147148e-05 -1.518974e-06)
5115          	(7.500344e-05 -4.114412e-04 7.482512e-05)	(7.496884e-05 -4.000177e-04 7.657732e-05)	(3.460015e-08 -1.142345e-05 -1.752194e-06)
5116          	(7.575368e-05 -4.088664e-04 7.947152e-05)	(7.577094e-05 -3.974887e-04 8.136733e-05)	(-1.726616e-08 -1.137769e-05 -1.895810e-06)
5117          	(7.399109e-05 -4.068403e-04 7.937811e-05)	(7.405827e-05 -3.955027e-04 8.132165e-05)	(-6.717669e-08 -1.133763e-05 -1.943537e-06)
5118          	(6.664729e-05 -4.058825e-04 7.418892e-05)	(6.676000e-05 -3.945768e-04 7.608350e-05)	(-1.127163e-07 -1.130569e-05 -1.894584e-06)
5119          	(5.584463e-05 -4.060261e-04 6.362829e-05)	(5.599673e-05 -3.947421e-04 6.538488e-05)	(-1.521006e-07 -1.128397e-05 -1.756584e-06)
5120          	(4.211115e-05 -4.073225e-04 4.843251e-05)	(4.229476e-05 -3.960502e-04 4.996892e-05)	(-1.836057e-07 -1.127230e-05 -1.536410e-06)
5121          	(2.625816e-05 -4.096532e-04 2.982050e-05)	(2.646426e-05 -3.983771e-04 3.106778e-05)	(-2.060999e-07 -1.127614e-05 -1.247283e-06)
5122          	(9.310427e-06 -4.128010e-04 9.171845e-06)	(9.530467e-06 -4.015068e-04 1.007901e-05)	(-2.200395e-07 -1.129412e-05 -9.071628e-07)
5123          	(-7.641570e-06 -4.163190e-04 -1.200230e-05)	(-7.415401e-06 -4.049944e-04 -1.146899e-05)	(-2.261685e-07 -1.132457e-05 -5.333162e-07)
5124          	(-2.358785e-05 -4.196761e-04 -3.242833e-05)	(-2.336179e-05 -4.083138e-04 -3.228015e-05)	(-2.260523e-07 -1.136233e-05 -1.481784e-07)
5125          	(-3.779684e-05 -4.223472e-04 -5.116810e-05)	(-3.757575e-05 -4.109462e-04 -5.139480e-05)	(-2.210885e-07 -1.140100e-05 2.267064e-07)
5126          	(-4.977838e-05 -4.239961e-04 -6.787831e-05)	(-4.956686e-05 -4.125592e-04 -6.845477e-05)	(-2.115236e-07 -1.143696e-05 5.764630e-07)
5127          	(-5.818483e-05 -4.244226e-04 -8.134732e-05)	(-5.799001e-05 -4.129632e-04 -8.224547e-05)	(-1.948151e-07 -1.145948e-05 8.981474e-07)
5128          	(-6.361940e-05 -4.238331e-04 -9.108427e-05)	(-6.345052e-05 -4.123764e-04 -9.227018e-05)	(-1.688781e-07 -1.145665e-05 1.185911e-06)
5129          	(-6.781176e-05 -4.225849e-04 -1.002606e-04)	(-6.767921e-05 -4.111505e-04 -1.016943e-04)	(-1.325517e-07 -1.143438e-05 1.433681e-06)
5130          	(-7.041876e-05 -4.209923e-04 -1.081783e-04)	(-7.033241e-05 -4.095953e-04 -1.098092e-04)	(-8.634341e-08 -1.139700e-05 1.630971e-06)
5131          	(-7.129842e-05 -4.193248e-04 -1.142125e-04)	(-7.126693e-05 -4.079753e-04 -1.159813e-04)	(-3.149259e-08 -1.134944e-05 1.768834e-06)
5132          	(-6.822531e-05 -4.177994e-04 -1.182417e-04)	(-6.825560e-05 -4.065122e-04 -1.200829e-04)	(3.029159e-08 -1.128725e-05 1.841201e-06)
5133          	(-6.204236e-05 -4.163265e-04 -1.173717e-04)	(-6.213737e-05 -4.051170e-04 -1.192169e-04)	(9.501510e-08 -1.120952e-05 1.845210e-06)
5134          	(-5.288135e-05 -4.148800e-04 -1.104512e-04)	(-5.303875e-05 -4.037614e-04 -1.122261e-04)	(1.573975e-07 -1.111866e-05 1.774920e-06)
5135          	(-4.101835e-05 -4.133478e-04 -9.658888e-05)	(-4.122943e-05 -4.023334e-04 -9.821452e-05)	(2.110766e-07 -1.101447e-05 1.625640e-06)
5136          	(-2.691465e-05 -4.116077e-04 -7.559299e-05)	(-2.716532e-05 -4.007035e-04 -7.699382e-05)	(2.506752e-07 -1.090419e-05 1.400828e-06)
5137          	(-1.126563e-05 -4.095687e-04 -4.809593e-05)	(-1.153924e-05 -3.987786e-04 -4.920941e-05)	(2.736167e-07 -1.079009e-05 1.113483e-06)
5138          	(5.020758e-06 -4.071290e-04 -1.572109e-05)	(4.742096e-06 -3.964553e-04 -1.649941e-05)	(2.786616e-07 -1.067372e-05 7.783145e-07)
5139          	(2.083672e-05 -4.041541e-04 1.887340e-05)	(2.056958e-05 -3.936031e-04 1.845404e-05)	(2.671364e-07 -1.055100e-05 4.193657e-07)
5140          	(3.511516e-05 -4.007424e-04 5.284381e-05)	(3.487355e-05 -3.903171e-04 5.278575e-05)	(2.416071e-07 -1.042527e-05 5.805964e-08)
5141          	(4.702503e-05 -3.969996e-04 8.359146e-05)	(4.682026e-05 -3.867064e-04 8.387922e-05)	(2.047757e-07 -1.029320e-05 -2.877548e-07)
5142          	(5.416615e-05 -3.935223e-04 1.057349e-04)	(5.400760e-05 -3.833683e-04 1.063410e-04)	(1.585455e-07 -1.015397e-05 -6.060952e-07)
5143          	(5.949355e-05 -3.903007e-04 1.228520e-04)	(5.938714e-05 -3.802896e-04 1.237326e-04)	(1.064126e-07 -1.001110e-05 -8.805895e-07)
5144          	(6.279701e-05 -3.877026e-04 1.344030e-04)	(6.274481e-05 -3.778226e-04 1.354960e-04)	(5.219458e-08 -9.879983e-06 -1.093016e-06)
5145          	(6.393124e-05 -3.860850e-04 1.401418e-04)	(6.393166e-05 -3.763154e-04 1.413692e-04)	(-4.205341e-10 -9.769632e-06 -1.227374e-06)
5146          	(6.256635e-05 -3.856558e-04 1.405103e-04)	(6.261543e-05 -3.759698e-04 1.417847e-04)	(-4.908519e-08 -9.686001e-06 -1.274463e-06)
5147          	(5.563248e-05 -3.864003e-04 1.368787e-04)	(5.572507e-05 -3.767687e-04 1.381093e-04)	(-9.259568e-08 -9.631666e-06 -1.230682e-06)
5148          	(4.506951e-05 -3.887729e-04 1.273402e-04)	(4.519952e-05 -3.791631e-04 1.284396e-04)	(-1.300135e-07 -9.609749e-06 -1.099379e-06)
5149          	(3.135186e-05 -3.927704e-04 1.124779e-04)	(3.151243e-05 -3.831491e-04 1.133644e-04)	(-1.605694e-07 -9.621301e-06 -8.864551e-07)
5150          	(1.542282e-05 -3.981366e-04 9.330893e-05)	(1.560655e-05 -3.884653e-04 9.391192e-05)	(-1.837262e-07 -9.671333e-06 -6.029917e-07)
5151          	(-2.151371e-06 -4.044172e-04 7.148027e-05)	(-1.950955e-06 -3.946593e-04 7.174655e-05)	(-2.004160e-07 -9.757897e-06 -2.662725e-07)
5152          	(-2.001079e-05 -4.109464e-04 4.850858e-05)	(-1.979899e-05 -4.010723e-04 4.840316e-05)	(-2.118029e-07 -9.874155e-06 1.054144e-07)
5153          	(-3.677852e-05 -4.170356e-04 2.550062e-05)	(-3.655919e-05 -4.070240e-04 2.501106e-05)	(-2.193285e-07 -1.001158e-05 4.895536e-07)
5154          	(-5.182048e-05 -4.220321e-04 4.177107e-06)	(-5.159639e-05 -4.118751e-04 3.311543e-06)	(-2.240897e-07 -1.015705e-05 8.655646e-07)
5155          	(-6.458442e-05 -4.255599e-04 -1.472823e-05)	(-6.435833e-05 -4.152566e-04 -1.594593e-05)	(-2.260840e-07 -1.030328e-05 1.217700e-06)
5156          	(-7.773303e-05 -4.277443e-04 -2.984627e-05)	(-7.751019e-05 -4.173049e-04 -3.139045e-05)	(-2.228424e-07 -1.043937e-05 1.544181e-06)
5157          	(-8.681194e-05 -4.285623e-04 -4.142547e-05)	(-8.660035e-05 -4.180059e-04 -4.326127e-05)	(-2.115888e-07 -1.055644e-05 1.835805e-06)
5158          	(-9.057571e-05 -4.282808e-04 -5.152220e-05)	(-9.038576e-05 -4.176211e-04 -5.360567e-05)	(-1.899501e-07 -1.065965e-05 2.083473e-06)
5159          	(-9.267516e-05 -4.276916e-04 -6.083586e-05)	(-9.251720e-05 -4.169343e-04 -6.310760e-05)	(-1.579567e-07 -1.075727e-05 2.271738e-06)
5160          	(-9.274527e-05 -4.272739e-04 -6.978382e-05)	(-9.262983e-05 -4.164211e-04 -7.217454e-05)	(-1.154445e-07 -1.085281e-05 2.390721e-06)
5161          	(-8.802764e-05 -4.274675e-04 -7.954427e-05)	(-8.796433e-05 -4.165236e-04 -8.197573e-05)	(-6.331682e-08 -1.094392e-05 2.431453e-06)
5162          	(-7.921847e-05 -4.281582e-04 -8.635585e-05)	(-7.921387e-05 -4.171269e-04 -8.874503e-05)	(-4.605027e-09 -1.103128e-05 2.389175e-06)
5163          	(-6.629293e-05 -4.292695e-04 -8.878046e-05)	(-6.634944e-05 -4.181570e-04 -9.104029e-05)	(5.651047e-08 -1.111248e-05 2.259822e-06)
5164          	(-4.958482e-05 -4.306314e-04 -8.577672e-05)	(-4.969890e-05 -4.194431e-04 -8.781386e-05)	(1.140861e-07 -1.118829e-05 2.037132e-06)
5165          	(-2.983886e-05 -4.320042e-04 -7.681315e-05)	(-3.000176e-05 -4.207425e-04 -7.853738e-05)	(1.629056e-07 -1.126175e-05 1.724222e-06)
5166          	(-8.222689e-06 -4.331488e-04 -6.216302e-05)	(-8.422390e-06 -4.218169e-04 -6.349498e-05)	(1.997004e-07 -1.133190e-05 1.331961e-06)
5167          	(1.384852e-05 -4.337918e-04 -4.294805e-05)	(1.362604e-05 -4.223950e-04 -4.382346e-05)	(2.224815e-07 -1.139682e-05 8.754125e-07)
5168          	(3.880196e-05 -4.335156e-04 -2.439386e-05)	(3.857008e-05 -4.220662e-04 -2.476705e-05)	(2.318754e-07 -1.144941e-05 3.731911e-07)
5169          	(6.100092e-05 -4.323421e-04 -4.119585e-06)	(6.077209e-05 -4.208544e-04 -3.969770e-06)	(2.288305e-07 -1.148769e-05 -1.498146e-07)
5170          	(7.962800e-05 -4.301731e-04 1.537112e-05)	(7.941324e-05 -4.186688e-04 1.604546e-05)	(2.147554e-07 -1.150423e-05 -6.743411e-07)
5171          	(9.153615e-05 -4.273179e-04 2.938969e-05)	(9.134607e-05 -4.158272e-04 3.057437e-05)	(1.900825e-07 -1.149066e-05 -1.184685e-06)
5172          	(9.716679e-05 -4.237576e-04 4.004797e-05)	(9.701012e-05 -4.123136e-04 4.170926e-05)	(1.566636e-07 -1.144396e-05 -1.661293e-06)
5173          	(1.008109e-04 -4.197711e-04 4.597282e-05)	(1.006932e-04 -4.083944e-04 4.805899e-05)	(1.177297e-07 -1.137668e-05 -2.086175e-06)
5174          	(1.023677e-04 -4.157384e-04 4.683205e-05)	(1.022907e-04 -4.044422e-04 4.926766e-05)	(7.696099e-08 -1.129615e-05 -2.435612e-06)
5175          	(1.015148e-04 -4.119308e-04 4.300497e-05)	(1.014780e-04 -4.007217e-04 4.569671e-05)	(3.675916e-08 -1.120909e-05 -2.691736e-06)
5176          	(9.615535e-05 -4.085167e-04 3.602954e-05)	(9.615680e-05 -3.973973e-04 3.887073e-05)	(-1.449639e-09 -1.111945e-05 -2.841192e-06)
5177          	(8.653095e-05 -4.059603e-04 2.474465e-05)	(8.656752e-05 -3.949267e-04 2.762124e-05)	(-3.657016e-08 -1.103360e-05 -2.876594e-06)
5178          	(7.318449e-05 -4.044948e-04 1.015120e-05)	(7.325219e-05 -3.935390e-04 1.294466e-05)	(-6.769701e-08 -1.095576e-05 -2.793465e-06)
5179          	(5.664362e-05 -4.041266e-04 -6.466523e-06)	(5.673741e-05 -3.932325e-04 -3.872977e-06)	(-9.378852e-08 -1.089408e-05 -2.593546e-06)
5180          	(3.781548e-05 -4.047244e-04 -2.369780e-05)	(3.793078e-05 -3.938697e-04 -2.140731e-05)	(-1.152930e-07 -1.085471e-05 -2.290482e-06)
5181          	(1.793460e-05 -4.059132e-04 -4.011815e-05)	(1.806798e-05 -3.950755e-04 -3.821422e-05)	(-1.333782e-07 -1.083775e-05 -1.903933e-06)
5182          	(-1.417530e-06 -4.072458e-04 -5.452541e-05)	(-1.268332e-06 -3.964058e-04 -5.306609e-05)	(-1.491978e-07 -1.084008e-05 -1.459320e-06)
5183          	(-2.224420e-05 -4.081232e-04 -6.378210e-05)	(-2.208017e-05 -3.972700e-04 -6.280050e-05)	(-1.640336e-07 -1.085317e-05 -9.815971e-07)
5184          	(-4.096315e-05 -4.083804e-04 -7.029132e-05)	(-4.078504e-05 -3.975095e-04 -6.979554e-05)	(-1.781163e-07 -1.087085e-05 -4.957781e-07)
5185          	(-5.680605e-05 -4.079595e-04 -7.443918e-05)	(-5.661692e-05 -3.970785e-04 -7.442623e-05)	(-1.891293e-07 -1.088093e-05 -1.295058e-08)
5186          	(-6.954523e-05 -4.070383e-04 -7.600546e-05)	(-6.935065e-05 -3.961635e-04 -7.645892e-05)	(-1.945835e-07 -1.087471e-05 4.534633e-07)
5187          	(-7.809712e-05 -4.056819e-04 -7.405191e-05)	(-7.790461e-05 -3.948253e-04 -7.494333e-05)	(-1.925029e-07 -1.085661e-05 8.914261e-07)
5188          	(-8.140880e-05 -4.044653e-04 -6.896320e-05)	(-8.122625e-05 -3.936273e-04 -7.024440e-05)	(-1.825519e-07 -1.083796e-05 1.281202e-06)
5189          	(-8.312410e-05 -4.041328e-04 -6.133643e-05)	(-8.295943e-05 -3.933086e-04 -6.294836e-05)	(-1.646685e-07 -1.082423e-05 1.611932e-06)
5190          	(-8.312975e-05 -4.049405e-04 -5.083772e-05)	(-8.299064e-05 -3.941222e-04 -5.271254e-05)	(-1.391057e-07 -1.081834e-05 1.874813e-06)
5191          	(-7.902528e-05 -4.071589e-04 -3.700790e-05)	(-7.891771e-05 -3.963332e-04 -3.906829e-05)	(-1.075640e-07 -1.082570e-05 2.060394e-06)
5192          	(-7.119878e-05 -4.104585e-04 -1.938962e-05)	(-7.112608e-05 -3.996104e-04 -2.155183e-05)	(-7.269961e-08 -1.084812e-05 2.162208e-06)
5193          	(-6.003939e-05 -4.144910e-04 1.972812e-06)	(-6.000022e-05 -4.036023e-04 -1.972402e-07)	(-3.917484e-08 -1.088866e-05 2.170052e-06)
5194          	(-4.584347e-05 -4.187911e-04 2.638152e-05)	(-4.583235e-05 -4.078407e-04 2.429850e-05)	(-1.111649e-08 -1.095043e-05 2.083023e-06)
5195          	(-2.930877e-05 -4.228865e-04 5.255094e-05)	(-2.931766e-05 -4.118549e-04 5.064512e-05)	(8.894009e-09 -1.103156e-05 1.905812e-06)
5196          	(-1.145798e-05 -4.263481e-04 7.867061e-05)	(-1.147752e-05 -4.152219e-04 7.702075e-05)	(1.953776e-08 -1.112616e-05 1.649864e-06)
5197          	(6.455796e-06 -4.287203e-04 1.024556e-04)	(6.434541e-06 -4.174943e-04 1.011219e-04)	(2.125427e-08 -1.122598e-05 1.333723e-06)
5198          	(2.272734e-05 -4.298430e-04 1.222591e-04)	(2.271232e-05 -4.185194e-04 1.212829e-04)	(1.501832e-08 -1.132355e-05 9.761542e-07)
5199          	(3.700853e-05 -4.295777e-04 1.362851e-04)	(3.700605e-05 -4.181662e-04 1.356906e-04)	(2.479762e-09 -1.141151e-05 5.945228e-07)
5200          	(4.886024e-05 -4.281287e-04 1.435203e-04)	(4.887601e-05 -4.166460e-04 1.433210e-04)	(-1.577045e-08 -1.148270e-05 1.992483e-07)
5201          	(5.805595e-05 -4.258237e-04 1.434426e-04)	(5.809424e-05 -4.142922e-04 1.436364e-04)	(-3.829616e-08 -1.153149e-05 -1.938736e-07)
5202          	(6.562759e-05 -4.234160e-04 1.380168e-04)	(6.569070e-05 -4.118461e-04 1.385852e-04)	(-6.310309e-08 -1.156986e-05 -5.684530e-07)
5203          	(6.767852e-05 -4.210690e-04 1.249302e-04)	(6.776588e-05 -4.094673e-04 1.258308e-04)	(-8.735572e-08 -1.160169e-05 -9.005760e-07)
5204          	(6.801728e-05 -4.187730e-04 1.048246e-04)	(6.812590e-05 -4.071443e-04 1.060002e-04)	(-1.086187e-07 -1.162867e-05 -1.175655e-06)
5205          	(6.653961e-05 -4.168385e-04 7.878964e-05)	(6.666536e-05 -4.051906e-04 8.017361e-05)	(-1.257511e-07 -1.164791e-05 -1.383969e-06)
5206          	(6.295119e-05 -4.154134e-04 4.693600e-05)	(6.308931e-05 -4.037524e-04 4.845286e-05)	(-1.381245e-07 -1.166098e-05 -1.516865e-06)