# Moment      
# CofR        : (0.000000e+00 0.000000e+00 0.000000e+00)
#
# Time        	(total_x total_y total_z)	(pressure_x pressure_y pressure_z)	(viscous_x viscous_y viscous_z)
1             	(-1.762228e-01 1.089392e+00 3.590821e-03)	(-1.762289e-01 1.088700e+00 3.585122e-03)	(6.044772e-06 6.921177e-04 5.699367e-06)
2             	(-1.870036e-01 1.147811e+00 -6.645871e-04)	(-1.871469e-01 1.148345e+00 -8.297241e-04)	(1.432440e-04 -5.340767e-04 1.651370e-04)
3             	(-1.402786e-01 9.586638e-01 4.751561e-03)	(-1.405413e-01 9.599814e-01 4.727347e-03)	(2.626699e-04 -1.317582e-03 2.421443e-05)
4             	(-4.678514e-02 4.572051e-01 -2.538730e-02)	(-4.704798e-02 4.585537e-01 -2.519946e-02)	(2.628458e-04 -1.348599e-03 -1.878363e-04)
5             	(1.058920e-02 -8.134136e-02 -7.309516e-02)	(1.040651e-02 -8.031247e-02 -7.278879e-02)	(1.826896e-04 -1.028888e-03 -3.063656e-04)
6             	(4.692701e-02 -4.211101e-01 -8.565223e-02)	(4.681468e-02 -4.206770e-01 -8.545010e-02)	(1.123225e-04 -4.330884e-04 -2.021359e-04)
7             	(5.683445e-02 -5.231303e-01 -8.643734e-02)	(5.678303e-02 -5.234344e-01 -8.638408e-02)	(5.142506e-05 3.041198e-04 -5.326637e-05)
8             	(4.667446e-02 -4.625394e-01 -5.985505e-02)	(4.668513e-02 -4.634287e-01 -5.988043e-02)	(-1.067711e-05 8.893225e-04 2.537684e-05)
9             	(2.755395e-02 -3.183367e-01 -2.366017e-02)	(2.759669e-02 -3.194057e-01 -2.358021e-02)	(-4.273554e-05 1.069050e-03 -7.995594e-05)
10            	(9.778147e-03 -1.281930e-01 1.354748e-02)	(9.813601e-03 -1.291207e-01 1.374422e-02)	(-3.545395e-05 9.277064e-04 -1.967429e-04)
11            	(-6.464938e-03 5.044926e-02 3.225045e-02)	(-6.429503e-03 4.985213e-02 3.245837e-02)	(-3.543535e-05 5.971339e-04 -2.079162e-04)
12            	(-1.805791e-02 1.710697e-01 3.752257e-02)	(-1.802984e-02 1.708651e-01 3.765733e-02)	(-2.807023e-05 2.045531e-04 -1.347552e-04)
13            	(-2.285734e-02 2.220510e-01 2.887329e-02)	(-2.284699e-02 2.221894e-01 2.890999e-02)	(-1.034689e-05 -1.384411e-04 -3.670141e-05)
14            	(-2.362713e-02 2.194091e-01 1.257302e-02)	(-2.363353e-02 2.197495e-01 1.254764e-02)	(6.399981e-06 -3.404517e-04 2.538113e-05)
15            	(-2.029127e-02 1.797013e-01 -4.145017e-03)	(-2.030240e-02 1.800996e-01 -4.178752e-03)	(1.113204e-05 -3.982603e-04 3.373482e-05)
16            	(-1.599917e-02 1.260367e-01 -2.069875e-02)	(-1.600607e-02 1.263825e-01 -2.071376e-02)	(6.901389e-06 -3.458060e-04 1.500907e-05)
17            	(-1.114642e-02 6.567740e-02 -3.492877e-02)	(-1.114556e-02 6.590641e-02 -3.492699e-02)	(-8.573679e-07 -2.290087e-04 -1.788499e-06)
18            	(-7.893245e-03 1.904167e-02 -4.221909e-02)	(-7.886723e-03 1.913458e-02 -4.220004e-02)	(-6.522268e-06 -9.290211e-05 -1.904739e-05)
19            	(-4.659228e-03 -8.056683e-03 -3.859223e-02)	(-4.649452e-03 -8.076509e-03 -3.855571e-02)	(-9.776777e-06 1.982632e-05 -3.652180e-05)
20            	(-3.130932e-03 -1.149352e-02 -3.106495e-02)	(-3.121795e-03 -1.157653e-02 -3.102048e-02)	(-9.137295e-06 8.300693e-05 -4.447353e-05)
21            	(-2.022080e-03 -5.803239e-03 -2.071647e-02)	(-2.016360e-03 -5.898191e-03 -2.067453e-02)	(-5.720344e-06 9.495216e-05 -4.194777e-05)
22            	(-2.618289e-03 6.391809e-03 -1.177553e-02)	(-2.617436e-03 6.321240e-03 -1.174353e-02)	(-8.527304e-07 7.056907e-05 -3.199573e-05)
23            	(-3.539533e-03 2.412146e-02 -3.801150e-03)	(-3.544156e-03 2.409205e-02 -3.784565e-03)	(4.622913e-06 2.941149e-05 -1.658537e-05)
24            	(-5.217344e-03 4.173266e-02 7.131943e-04)	(-5.225943e-03 4.174463e-02 7.117906e-04)	(8.598956e-06 -1.196076e-05 1.403701e-06)
25            	(-7.241921e-03 5.677574e-02 2.149400e-03)	(-7.251062e-03 5.681781e-02 2.130833e-03)	(9.140739e-06 -4.206738e-05 1.856696e-05)
26            	(-9.009369e-03 6.703543e-02 7.955594e-04)	(-9.016167e-03 6.709190e-02 7.626618e-04)	(6.798359e-06 -5.647254e-05 3.289765e-05)
27            	(-1.027430e-02 7.124774e-02 -1.764168e-03)	(-1.027729e-02 7.130475e-02 -1.808958e-03)	(2.991528e-06 -5.700315e-05 4.479079e-05)
28            	(-1.066699e-02 7.199622e-02 -3.064688e-03)	(-1.066616e-02 7.204420e-02 -3.119676e-03)	(-8.331411e-07 -4.798019e-05 5.498797e-05)
29            	(-1.122845e-02 7.137169e-02 -4.747727e-03)	(-1.122443e-02 7.140643e-02 -4.810860e-03)	(-4.022950e-06 -3.474100e-05 6.313369e-05)
30            	(-1.172495e-02 6.950254e-02 -6.843962e-03)	(-1.171854e-02 6.952473e-02 -6.912689e-03)	(-6.403824e-06 -2.218828e-05 6.872691e-05)
31            	(-1.161452e-02 6.538218e-02 -8.319760e-03)	(-1.160624e-02 6.539523e-02 -8.392514e-03)	(-8.272862e-06 -1.304468e-05 7.275398e-05)
32            	(-1.129696e-02 6.123501e-02 -8.726569e-03)	(-1.128730e-02 6.124343e-02 -8.802536e-03)	(-9.657546e-06 -8.418339e-06 7.596706e-05)
33            	(-1.094779e-02 5.816357e-02 -8.391789e-03)	(-1.093662e-02 5.817128e-02 -8.471002e-03)	(-1.116655e-05 -7.711396e-06 7.921353e-05)
34            	(-1.103537e-02 5.722407e-02 -7.935990e-03)	(-1.102231e-02 5.723371e-02 -8.018638e-03)	(-1.306136e-05 -9.640277e-06 8.264886e-05)
35            	(-1.104209e-02 5.718129e-02 -7.349026e-03)	(-1.102632e-02 5.719382e-02 -7.435154e-03)	(-1.576920e-05 -1.253066e-05 8.612797e-05)
36            	(-1.096423e-02 5.702798e-02 -6.743604e-03)	(-1.094515e-02 5.704317e-02 -6.833165e-03)	(-1.907884e-05 -1.518803e-05 8.956087e-05)
37            	(-1.097159e-02 5.767658e-02 -6.289646e-03)	(-1.094865e-02 5.769348e-02 -6.382237e-03)	(-2.293963e-05 -1.690336e-05 9.259150e-05)
38            	(-1.106409e-02 5.891392e-02 -6.121263e-03)	(-1.103668e-02 5.893142e-02 -6.216368e-03)	(-2.740633e-05 -1.749710e-05 9.510531e-05)
39            	(-1.134251e-02 6.101163e-02 -6.515975e-03)	(-1.131026e-02 6.102878e-02 -6.613175e-03)	(-3.225205e-05 -1.714494e-05 9.720025e-05)
40            	(-1.182073e-02 6.384836e-02 -7.560309e-03)	(-1.178350e-02 6.386461e-02 -7.659159e-03)	(-3.723538e-05 -1.625143e-05 9.884946e-05)
41            	(-1.240410e-02 6.689686e-02 -9.284243e-03)	(-1.236233e-02 6.691208e-02 -9.384013e-03)	(-4.176908e-05 -1.521994e-05 9.977013e-05)
42            	(-1.297718e-02 6.949940e-02 -1.142847e-02)	(-1.293181e-02 6.951373e-02 -1.152811e-02)	(-4.537358e-05 -1.432546e-05 9.963703e-05)
43            	(-1.341700e-02 7.131551e-02 -1.331335e-02)	(-1.336931e-02 7.132915e-02 -1.341197e-02)	(-4.768863e-05 -1.364028e-05 9.862501e-05)
44            	(-1.371427e-02 7.232255e-02 -1.447459e-02)	(-1.366569e-02 7.233566e-02 -1.457160e-02)	(-4.858657e-05 -1.311499e-05 9.700971e-05)
45            	(-1.386404e-02 7.290121e-02 -1.550149e-02)	(-1.381595e-02 7.291383e-02 -1.559635e-02)	(-4.809125e-05 -1.262673e-05 9.486221e-05)
46            	(-1.390374e-02 7.318438e-02 -1.645779e-02)	(-1.385763e-02 7.319638e-02 -1.655014e-02)	(-4.611445e-05 -1.199632e-05 9.235504e-05)
47            	(-1.384295e-02 7.296958e-02 -1.728117e-02)	(-1.380028e-02 7.298069e-02 -1.737074e-02)	(-4.267218e-05 -1.111016e-05 8.956358e-05)
48            	(-1.376163e-02 7.268725e-02 -1.821569e-02)	(-1.372389e-02 7.269710e-02 -1.830176e-02)	(-3.773352e-05 -9.851202e-06 8.606992e-05)
49            	(-1.370251e-02 7.259791e-02 -1.933743e-02)	(-1.367089e-02 7.260609e-02 -1.941938e-02)	(-3.162050e-05 -8.184095e-06 8.195443e-05)
50            	(-1.365101e-02 7.224177e-02 -2.035750e-02)	(-1.362617e-02 7.224801e-02 -2.043501e-02)	(-2.483885e-05 -6.236506e-06 7.750524e-05)
51            	(-1.363354e-02 7.189627e-02 -2.132906e-02)	(-1.361540e-02 7.190045e-02 -2.140221e-02)	(-1.814072e-05 -4.187719e-06 7.314076e-05)
52            	(-1.364473e-02 7.158894e-02 -2.216569e-02)	(-1.363249e-02 7.159117e-02 -2.223504e-02)	(-1.223687e-05 -2.233109e-06 6.935510e-05)
53            	(-1.367306e-02 7.138566e-02 -2.279357e-02)	(-1.366524e-02 7.138623e-02 -2.285998e-02)	(-7.816902e-06 -5.695108e-07 6.640862e-05)
54            	(-1.369976e-02 7.119002e-02 -2.315246e-02)	(-1.369463e-02 7.118933e-02 -2.321661e-02)	(-5.130661e-06 6.931849e-07 6.415008e-05)
55            	(-1.367658e-02 6.998323e-02 -2.348187e-02)	(-1.367237e-02 6.998185e-02 -2.354430e-02)	(-4.205250e-06 1.377250e-06 6.242252e-05)
56            	(-1.361307e-02 6.986201e-02 -2.328078e-02)	(-1.360861e-02 6.986022e-02 -2.334133e-02)	(-4.468247e-06 1.791918e-06 6.054942e-05)
57            	(-1.351784e-02 6.976988e-02 -2.290933e-02)	(-1.351246e-02 6.976791e-02 -2.296740e-02)	(-5.389369e-06 1.971393e-06 5.806667e-05)
58            	(-1.343291e-02 6.987024e-02 -2.245830e-02)	(-1.342607e-02 6.986830e-02 -2.251296e-02)	(-6.841583e-06 1.945226e-06 5.466612e-05)
59            	(-1.336671e-02 7.001027e-02 -2.207846e-02)	(-1.335794e-02 7.000858e-02 -2.212880e-02)	(-8.764833e-06 1.681607e-06 5.034058e-05)
60            	(-1.334157e-02 7.017991e-02 -2.185361e-02)	(-1.333039e-02 7.017875e-02 -2.189902e-02)	(-1.117319e-05 1.162571e-06 4.540486e-05)
61            	(-1.337308e-02 7.038941e-02 -2.183057e-02)	(-1.335907e-02 7.038900e-02 -2.187080e-02)	(-1.400944e-05 4.080260e-07 4.023435e-05)
62            	(-1.346917e-02 7.066568e-02 -2.202292e-02)	(-1.345200e-02 7.066620e-02 -2.205827e-02)	(-1.716997e-05 -5.183194e-07 3.535747e-05)
63            	(-1.362468e-02 7.102302e-02 -2.239272e-02)	(-1.360419e-02 7.102458e-02 -2.242391e-02)	(-2.048702e-05 -1.566084e-06 3.118890e-05)
64            	(-1.383120e-02 7.147796e-02 -2.289681e-02)	(-1.380740e-02 7.148064e-02 -2.292491e-02)	(-2.380105e-05 -2.680313e-06 2.809528e-05)
65            	(-1.406557e-02 7.201146e-02 -2.345119e-02)	(-1.403880e-02 7.201524e-02 -2.347740e-02)	(-2.677215e-05 -3.782978e-06 2.621130e-05)
66            	(-1.431814e-02 7.306955e-02 -2.395024e-02)	(-1.428912e-02 7.307428e-02 -2.397569e-02)	(-2.901586e-05 -4.724895e-06 2.544814e-05)
67            	(-1.454320e-02 7.350908e-02 -2.438496e-02)	(-1.451281e-02 7.351468e-02 -2.441076e-02)	(-3.039519e-05 -5.599080e-06 2.579558e-05)
68            	(-1.474025e-02 7.391843e-02 -2.468728e-02)	(-1.470934e-02 7.392481e-02 -2.471433e-02)	(-3.090344e-05 -6.383076e-06 2.704287e-05)
69            	(-1.490785e-02 7.428042e-02 -2.481474e-02)	(-1.487726e-02 7.428752e-02 -2.484372e-02)	(-3.059059e-05 -7.095896e-06 2.897466e-05)
70            	(-1.507622e-02 7.490832e-02 -2.471851e-02)	(-1.504668e-02 7.491604e-02 -2.474980e-02)	(-2.953291e-05 -7.718325e-06 3.128282e-05)
71            	(-1.515472e-02 7.479518e-02 -2.458930e-02)	(-1.512695e-02 7.480353e-02 -2.462322e-02)	(-2.776820e-05 -8.357167e-06 3.391370e-05)
72            	(-1.519076e-02 7.465006e-02 -2.425077e-02)	(-1.516538e-02 7.465904e-02 -2.428770e-02)	(-2.537751e-05 -8.983505e-06 3.692586e-05)
73            	(-1.518256e-02 7.447417e-02 -2.367346e-02)	(-1.516013e-02 7.448376e-02 -2.371366e-02)	(-2.242943e-05 -9.593634e-06 4.020681e-05)
74            	(-1.513735e-02 7.427447e-02 -2.284206e-02)	(-1.511823e-02 7.428465e-02 -2.288557e-02)	(-1.911110e-05 -1.018124e-05 4.351438e-05)
75            	(-1.506355e-02 7.406084e-02 -2.174827e-02)	(-1.504785e-02 7.407156e-02 -2.179477e-02)	(-1.569215e-05 -1.072668e-05 4.649490e-05)
76            	(-1.497957e-02 7.384213e-02 -2.048416e-02)	(-1.496733e-02 7.385334e-02 -2.053343e-02)	(-1.224716e-05 -1.121575e-05 4.926706e-05)
77            	(-1.488086e-02 7.362906e-02 -1.908688e-02)	(-1.487209e-02 7.364070e-02 -1.913892e-02)	(-8.773263e-06 -1.163285e-05 5.203483e-05)
78            	(-1.478997e-02 7.344246e-02 -1.769436e-02)	(-1.478475e-02 7.345440e-02 -1.774913e-02)	(-5.223472e-06 -1.194506e-05 5.477326e-05)
79            	(-1.475816e-02 7.390754e-02 -1.630137e-02)	(-1.475668e-02 7.391957e-02 -1.635869e-02)	(-1.478846e-06 -1.203408e-05 5.731364e-05)
80            	(-1.474157e-02 7.380544e-02 -1.523835e-02)	(-1.474397e-02 7.381748e-02 -1.529792e-02)	(2.398802e-06 -1.203075e-05 5.957366e-05)
81            	(-1.473643e-02 7.373913e-02 -1.432606e-02)	(-1.474268e-02 7.375107e-02 -1.438760e-02)	(6.251543e-06 -1.193714e-05 6.153088e-05)
82            	(-1.473580e-02 7.370650e-02 -1.356533e-02)	(-1.474582e-02 7.371827e-02 -1.362848e-02)	(1.001829e-05 -1.177493e-05 6.314844e-05)
83            	(-1.479434e-02 7.452234e-02 -1.281832e-02)	(-1.480794e-02 7.453381e-02 -1.288266e-02)	(1.359482e-05 -1.146325e-05 6.433597e-05)
84            	(-1.480707e-02 7.452261e-02 -1.234472e-02)	(-1.482398e-02 7.453379e-02 -1.240974e-02)	(1.690592e-05 -1.118323e-05 6.501683e-05)
85            	(-1.484676e-02 7.490960e-02 -1.194071e-02)	(-1.486656e-02 7.492047e-02 -1.200588e-02)	(1.980341e-05 -1.087616e-05 6.517889e-05)
86            	(-1.488544e-02 7.528895e-02 -1.164904e-02)	(-1.490779e-02 7.529951e-02 -1.171385e-02)	(2.235673e-05 -1.056275e-05 6.480806e-05)
87            	(-1.492075e-02 7.564900e-02 -1.147124e-02)	(-1.494528e-02 7.565926e-02 -1.153519e-02)	(2.452803e-05 -1.025934e-05 6.395076e-05)
88            	(-1.495157e-02 7.598656e-02 -1.142427e-02)	(-1.497780e-02 7.599655e-02 -1.148698e-02)	(2.622985e-05 -9.989739e-06 6.270589e-05)
89            	(-1.497545e-02 7.628147e-02 -1.153261e-02)	(-1.500278e-02 7.629127e-02 -1.159380e-02)	(2.732774e-05 -9.795903e-06 6.118444e-05)
90            	(-1.498683e-02 7.655398e-02 -1.178134e-02)	(-1.501453e-02 7.656369e-02 -1.184079e-02)	(2.770247e-05 -9.707451e-06 5.944741e-05)
91            	(-1.496908e-02 7.671608e-02 -1.209384e-02)	(-1.499639e-02 7.672584e-02 -1.215130e-02)	(2.730904e-05 -9.758827e-06 5.746472e-05)
92            	(-1.493723e-02 7.687024e-02 -1.254614e-02)	(-1.496337e-02 7.688019e-02 -1.260133e-02)	(2.613962e-05 -9.951988e-06 5.518886e-05)
93            	(-1.489157e-02 7.700463e-02 -1.312950e-02)	(-1.491582e-02 7.701491e-02 -1.318218e-02)	(2.424863e-05 -1.028485e-05 5.267258e-05)
94            	(-1.483583e-02 7.711173e-02 -1.381849e-02)	(-1.485754e-02 7.712248e-02 -1.386860e-02)	(2.171075e-05 -1.075322e-05 5.011193e-05)
95            	(-1.477515e-02 7.719639e-02 -1.457227e-02)	(-1.479387e-02 7.720772e-02 -1.462002e-02)	(1.871553e-05 -1.132845e-05 4.774885e-05)
96            	(-1.471423e-02 7.725905e-02 -1.532935e-02)	(-1.472972e-02 7.727102e-02 -1.537521e-02)	(1.548942e-05 -1.197071e-05 4.586302e-05)
97            	(-1.466450e-02 7.733528e-02 -1.605769e-02)	(-1.467680e-02 7.734790e-02 -1.610236e-02)	(1.229461e-05 -1.262701e-05 4.467869e-05)
98            	(-1.463446e-02 7.744104e-02 -1.671991e-02)	(-1.464374e-02 7.745429e-02 -1.676423e-02)	(9.274874e-06 -1.325597e-05 4.431729e-05)
99            	(-1.462857e-02 7.758601e-02 -1.728780e-02)	(-1.463501e-02 7.759984e-02 -1.733259e-02)	(6.436377e-06 -1.382730e-05 4.479352e-05)
100           	(-1.464650e-02 7.777066e-02 -1.774310e-02)	(-1.465033e-02 7.778497e-02 -1.778913e-02)	(3.825623e-06 -1.431793e-05 4.603121e-05)
101           	(-1.468291e-02 7.798364e-02 -1.807583e-02)	(-1.468439e-02 7.799835e-02 -1.812368e-02)	(1.477807e-06 -1.470980e-05 4.785017e-05)
102           	(-1.472971e-02 7.820791e-02 -1.828425e-02)	(-1.472916e-02 7.822290e-02 -1.833427e-02)	(-5.561469e-07 -1.499319e-05 5.002177e-05)
103           	(-1.477994e-02 7.843406e-02 -1.837286e-02)	(-1.477770e-02 7.844923e-02 -1.842519e-02)	(-2.242509e-06 -1.517289e-05 5.233169e-05)
104           	(-1.483009e-02 7.866954e-02 -1.837096e-02)	(-1.482656e-02 7.868479e-02 -1.842556e-02)	(-3.533067e-06 -1.525272e-05 5.460782e-05)
105           	(-1.486851e-02 7.886711e-02 -1.825694e-02)	(-1.486418e-02 7.888236e-02 -1.831367e-02)	(-4.334079e-06 -1.524767e-05 5.673461e-05)
106           	(-1.490072e-02 7.904517e-02 -1.809137e-02)	(-1.489614e-02 7.906034e-02 -1.814992e-02)	(-4.579983e-06 -1.516821e-05 5.855602e-05)
107           	(-1.491774e-02 7.915495e-02 -1.786152e-02)	(-1.491344e-02 7.917000e-02 -1.792145e-02)	(-4.302309e-06 -1.504790e-05 5.993708e-05)
108           	(-1.492391e-02 7.921142e-02 -1.761410e-02)	(-1.492034e-02 7.922634e-02 -1.767485e-02)	(-3.566904e-06 -1.491463e-05 6.075390e-05)
109           	(-1.491989e-02 7.920571e-02 -1.736743e-02)	(-1.491738e-02 7.922052e-02 -1.742837e-02)	(-2.513927e-06 -1.480502e-05 6.094563e-05)
110           	(-1.491272e-02 7.916881e-02 -1.713393e-02)	(-1.491140e-02 7.918356e-02 -1.719447e-02)	(-1.318568e-06 -1.474406e-05 6.054678e-05)
111           	(-1.490696e-02 7.911867e-02 -1.691405e-02)	(-1.490684e-02 7.913342e-02 -1.697371e-02)	(-1.236412e-07 -1.474190e-05 5.966291e-05)
112           	(-1.490656e-02 7.907164e-02 -1.670697e-02)	(-1.490754e-02 7.908644e-02 -1.676540e-02)	(9.739543e-07 -1.479474e-05 5.843390e-05)
113           	(-1.491233e-02 7.903618e-02 -1.651636e-02)	(-1.491424e-02 7.905108e-02 -1.657333e-02)	(1.914665e-06 -1.489702e-05 5.696757e-05)
114           	(-1.492369e-02 7.901738e-02 -1.634342e-02)	(-1.492637e-02 7.903242e-02 -1.639883e-02)	(2.681763e-06 -1.503792e-05 5.541459e-05)
115           	(-1.493723e-02 7.901741e-02 -1.618587e-02)	(-1.494051e-02 7.903262e-02 -1.623981e-02)	(3.284702e-06 -1.520427e-05 5.393567e-05)
116           	(-1.494739e-02 7.904602e-02 -1.604072e-02)	(-1.495114e-02 7.906140e-02 -1.609338e-02)	(3.749915e-06 -1.538419e-05 5.265288e-05)
117           	(-1.494827e-02 7.908766e-02 -1.590065e-02)	(-1.495237e-02 7.910322e-02 -1.595231e-02)	(4.104193e-06 -1.556879e-05 5.165930e-05)
118           	(-1.493334e-02 7.913108e-02 -1.576276e-02)	(-1.493775e-02 7.914682e-02 -1.581378e-02)	(4.412196e-06 -1.574665e-05 5.102839e-05)
119           	(-1.489843e-02 7.918082e-02 -1.563134e-02)	(-1.490320e-02 7.919672e-02 -1.568214e-02)	(4.765659e-06 -1.590485e-05 5.080079e-05)
120           	(-1.484004e-02 7.921051e-02 -1.548419e-02)	(-1.484529e-02 7.922654e-02 -1.553516e-02)	(5.257693e-06 -1.603159e-05 5.096528e-05)
121           	(-1.479125e-02 7.932072e-02 -1.547868e-02)	(-1.479721e-02 7.933682e-02 -1.553017e-02)	(5.963222e-06 -1.610047e-05 5.149037e-05)
122           	(-1.468660e-02 7.923803e-02 -1.528135e-02)	(-1.469350e-02 7.925416e-02 -1.533376e-02)	(6.901941e-06 -1.612968e-05 5.240779e-05)
123           	(-1.456911e-02 7.914584e-02 -1.510677e-02)	(-1.457721e-02 7.916192e-02 -1.516041e-02)	(8.100601e-06 -1.608307e-05 5.364354e-05)
124           	(-1.444500e-02 7.906005e-02 -1.498052e-02)	(-1.445454e-02 7.907600e-02 -1.503568e-02)	(9.535697e-06 -1.595305e-05 5.515972e-05)
125           	(-1.432109e-02 7.899265e-02 -1.491806e-02)	(-1.433226e-02 7.900838e-02 -1.497495e-02)	(1.117002e-05 -1.573175e-05 5.688529e-05)
126           	(-1.420312e-02 7.895193e-02 -1.492231e-02)	(-1.421606e-02 7.896735e-02 -1.498105e-02)	(1.294119e-05 -1.542399e-05 5.873708e-05)
127           	(-1.409366e-02 7.894234e-02 -1.498542e-02)	(-1.410847e-02 7.895738e-02 -1.504601e-02)	(1.480595e-05 -1.504238e-05 6.058757e-05)
128           	(-1.399342e-02 7.895967e-02 -1.509362e-02)	(-1.401015e-02 7.897427e-02 -1.515587e-02)	(1.673077e-05 -1.460942e-05 6.224673e-05)
129           	(-1.390128e-02 7.899780e-02 -1.523327e-02)	(-1.391995e-02 7.901195e-02 -1.529679e-02)	(1.867802e-05 -1.415236e-05 6.352172e-05)
130           	(-1.381503e-02 7.905339e-02 -1.538979e-02)	(-1.383563e-02 7.906709e-02 -1.545406e-02)	(2.060003e-05 -1.370036e-05 6.427030e-05)
131           	(-1.373173e-02 7.912159e-02 -1.555325e-02)	(-1.375418e-02 7.913487e-02 -1.561764e-02)	(2.244907e-05 -1.327842e-05 6.439865e-05)
132           	(-1.365011e-02 7.919737e-02 -1.571915e-02)	(-1.367429e-02 7.921028e-02 -1.578304e-02)	(2.417849e-05 -1.290662e-05 6.388487e-05)
133           	(-1.357120e-02 7.927544e-02 -1.588883e-02)	(-1.359694e-02 7.928804e-02 -1.595159e-02)	(2.573689e-05 -1.260021e-05 6.276801e-05)
134           	(-1.349730e-02 7.934950e-02 -1.606724e-02)	(-1.352438e-02 7.936186e-02 -1.612837e-02)	(2.707415e-05 -1.236772e-05 6.113197e-05)
135           	(-1.343273e-02 7.937771e-02 -1.629271e-02)	(-1.346089e-02 7.938992e-02 -1.635180e-02)	(2.815962e-05 -1.221250e-05 5.908548e-05)
136           	(-1.337390e-02 7.940063e-02 -1.651938e-02)	(-1.340289e-02 7.941276e-02 -1.657611e-02)	(2.898470e-05 -1.212555e-05 5.673192e-05)
137           	(-1.332149e-02 7.941769e-02 -1.673893e-02)	(-1.335105e-02 7.942979e-02 -1.679309e-02)	(2.955162e-05 -1.209800e-05 5.416431e-05)
138           	(-1.327710e-02 7.943079e-02 -1.693612e-02)	(-1.330698e-02 7.944290e-02 -1.698763e-02)	(2.987947e-05 -1.211665e-05 5.150550e-05)
139           	(-1.324188e-02 7.944298e-02 -1.709940e-02)	(-1.327189e-02 7.945515e-02 -1.714829e-02)	(3.000226e-05 -1.216529e-05 4.888616e-05)
140           	(-1.321571e-02 7.945736e-02 -1.722513e-02)	(-1.324568e-02 7.946958e-02 -1.727156e-02)	(2.997305e-05 -1.222531e-05 4.643142e-05)
141           	(-1.319847e-02 7.947761e-02 -1.730736e-02)	(-1.322831e-02 7.948989e-02 -1.735162e-02)	(2.984609e-05 -1.227935e-05 4.425845e-05)
142           	(-1.318903e-02 7.950764e-02 -1.733318e-02)	(-1.321871e-02 7.951996e-02 -1.737566e-02)	(2.967521e-05 -1.231319e-05 4.248591e-05)
143           	(-1.318653e-02 7.955176e-02 -1.729454e-02)	(-1.321603e-02 7.956408e-02 -1.733572e-02)	(2.950182e-05 -1.231596e-05 4.118187e-05)
144           	(-1.319026e-02 7.961351e-02 -1.719218e-02)	(-1.321962e-02 7.962580e-02 -1.723254e-02)	(2.935289e-05 -1.228245e-05 4.036731e-05)
145           	(-1.320047e-02 7.969383e-02 -1.703440e-02)	(-1.322971e-02 7.970604e-02 -1.707444e-02)	(2.923843e-05 -1.221447e-05 4.003646e-05)
146           	(-1.321820e-02 7.978717e-02 -1.683516e-02)	(-1.324735e-02 7.979929e-02 -1.687531e-02)	(2.914950e-05 -1.212207e-05 4.014639e-05)
147           	(-1.324408e-02 7.988748e-02 -1.661076e-02)	(-1.327313e-02 7.989950e-02 -1.665138e-02)	(2.905401e-05 -1.202333e-05 4.062096e-05)
148           	(-1.327750e-02 7.998706e-02 -1.637249e-02)	(-1.330641e-02 7.999900e-02 -1.641385e-02)	(2.890758e-05 -1.194010e-05 4.135935e-05)
149           	(-1.331667e-02 8.008031e-02 -1.612644e-02)	(-1.334534e-02 8.009220e-02 -1.616871e-02)	(2.866697e-05 -1.189256e-05 4.227048e-05)
150           	(-1.335937e-02 8.016380e-02 -1.587697e-02)	(-1.338767e-02 8.017569e-02 -1.592024e-02)	(2.830257e-05 -1.189541e-05 4.327053e-05)
151           	(-1.340364e-02 8.023518e-02 -1.562852e-02)	(-1.343143e-02 8.024714e-02 -1.567281e-02)	(2.779072e-05 -1.195780e-05 4.428974e-05)
152           	(-1.344836e-02 8.029300e-02 -1.538619e-02)	(-1.347548e-02 8.030508e-02 -1.543146e-02)	(2.711273e-05 -1.208547e-05 4.526944e-05)
153           	(-1.349317e-02 8.033607e-02 -1.515579e-02)	(-1.351943e-02 8.034835e-02 -1.520196e-02)	(2.626766e-05 -1.227969e-05 4.617309e-05)
154           	(-1.353819e-02 8.036378e-02 -1.494360e-02)	(-1.356345e-02 8.037632e-02 -1.499057e-02)	(2.526360e-05 -1.253693e-05 4.697431e-05)
155           	(-1.358348e-02 8.037658e-02 -1.475224e-02)	(-1.360760e-02 8.038943e-02 -1.479991e-02)	(2.412237e-05 -1.284844e-05 4.766925e-05)
156           	(-1.362868e-02 8.037573e-02 -1.457835e-02)	(-1.365156e-02 8.038893e-02 -1.462662e-02)	(2.287111e-05 -1.320288e-05 4.827083e-05)
157           	(-1.367295e-02 8.036199e-02 -1.441360e-02)	(-1.369450e-02 8.037557e-02 -1.446241e-02)	(2.154658e-05 -1.358697e-05 4.881023e-05)
158           	(-1.371564e-02 8.033550e-02 -1.424799e-02)	(-1.373582e-02 8.034949e-02 -1.429731e-02)	(2.017945e-05 -1.398806e-05 4.932394e-05)
159           	(-1.375581e-02 8.029513e-02 -1.407234e-02)	(-1.377462e-02 8.030952e-02 -1.412220e-02)	(1.880434e-05 -1.439208e-05 4.985679e-05)
160           	(-1.379132e-02 8.023226e-02 -1.388662e-02)	(-1.380878e-02 8.024705e-02 -1.393707e-02)	(1.745651e-05 -1.478536e-05 5.045018e-05)
161           	(-1.382192e-02 8.015757e-02 -1.367693e-02)	(-1.383809e-02 8.017273e-02 -1.372808e-02)	(1.617503e-05 -1.515384e-05 5.114869e-05)
162           	(-1.384731e-02 8.007956e-02 -1.344991e-02)	(-1.386230e-02 8.009504e-02 -1.350189e-02)	(1.499684e-05 -1.548312e-05 5.197824e-05)
163           	(-1.386821e-02 8.000960e-02 -1.321657e-02)	(-1.388216e-02 8.002536e-02 -1.326951e-02)	(1.395361e-05 -1.575952e-05 5.294907e-05)
164           	(-1.388592e-02 7.996599e-02 -1.298324e-02)	(-1.389900e-02 7.998196e-02 -1.303729e-02)	(1.307061e-05 -1.597048e-05 5.404763e-05)
165           	(-1.390000e-02 7.993214e-02 -1.275158e-02)	(-1.391236e-02 7.994825e-02 -1.280684e-02)	(1.236479e-05 -1.611016e-05 5.526350e-05)
166           	(-1.391088e-02 7.990728e-02 -1.252158e-02)	(-1.392273e-02 7.992345e-02 -1.257814e-02)	(1.184429e-05 -1.617551e-05 5.656148e-05)
167           	(-1.391914e-02 7.988939e-02 -1.229381e-02)	(-1.393065e-02 7.990556e-02 -1.235171e-02)	(1.150923e-05 -1.616759e-05 5.790137e-05)
168           	(-1.392559e-02 7.987617e-02 -1.206922e-02)	(-1.393693e-02 7.989227e-02 -1.212845e-02)	(1.134482e-05 -1.609126e-05 5.923280e-05)
169           	(-1.393100e-02 7.986601e-02 -1.184864e-02)	(-1.394233e-02 7.988196e-02 -1.190914e-02)	(1.132430e-05 -1.595476e-05 6.050078e-05)
170           	(-1.393572e-02 7.985813e-02 -1.163211e-02)	(-1.394713e-02 7.987390e-02 -1.169377e-02)	(1.141487e-05 -1.576646e-05 6.165994e-05)
171           	(-1.393986e-02 7.985281e-02 -1.142005e-02)	(-1.395145e-02 7.986834e-02 -1.148273e-02)	(1.158779e-05 -1.553379e-05 6.267680e-05)
172           	(-1.394354e-02 7.985127e-02 -1.121387e-02)	(-1.395535e-02 7.986653e-02 -1.127740e-02)	(1.181089e-05 -1.526475e-05 6.352779e-05)
173           	(-1.394656e-02 7.985468e-02 -1.101459e-02)	(-1.395861e-02 7.986965e-02 -1.107879e-02)	(1.205267e-05 -1.496792e-05 6.419568e-05)
174           	(-1.394816e-02 7.986325e-02 -1.081978e-02)	(-1.396045e-02 7.987790e-02 -1.088446e-02)	(1.228560e-05 -1.465036e-05 6.468154e-05)
175           	(-1.394780e-02 7.987845e-02 -1.063060e-02)	(-1.396029e-02 7.989277e-02 -1.069560e-02)	(1.249144e-05 -1.431648e-05 6.500111e-05)
176           	(-1.394474e-02 7.990213e-02 -1.044979e-02)	(-1.395740e-02 7.991611e-02 -1.051497e-02)	(1.265710e-05 -1.397055e-05 6.517688e-05)
177           	(-1.393875e-02 7.993809e-02 -1.028072e-02)	(-1.395152e-02 7.995171e-02 -1.034596e-02)	(1.277565e-05 -1.361679e-05 6.523563e-05)
178           	(-1.392957e-02 7.997574e-02 -1.013794e-02)	(-1.394242e-02 7.998900e-02 -1.020315e-02)	(1.284288e-05 -1.325879e-05 6.521605e-05)
179           	(-1.391662e-02 8.001328e-02 -1.002372e-02)	(-1.392948e-02 8.002618e-02 -1.008887e-02)	(1.286313e-05 -1.289785e-05 6.514837e-05)
180           	(-1.390008e-02 8.005097e-02 -9.937185e-03)	(-1.391292e-02 8.006350e-02 -1.000224e-02)	(1.284383e-05 -1.253441e-05 6.505342e-05)
181           	(-1.388023e-02 8.008960e-02 -9.875976e-03)	(-1.389302e-02 8.010177e-02 -9.940924e-03)	(1.279408e-05 -1.216910e-05 6.494843e-05)
182           	(-1.385733e-02 8.012914e-02 -9.835964e-03)	(-1.387006e-02 8.014094e-02 -9.900812e-03)	(1.272521e-05 -1.180267e-05 6.484804e-05)
183           	(-1.383187e-02 8.016762e-02 -9.811384e-03)	(-1.384452e-02 8.017905e-02 -9.876138e-03)	(1.264590e-05 -1.143854e-05 6.475387e-05)
184           	(-1.380569e-02 8.020421e-02 -9.795741e-03)	(-1.381825e-02 8.021529e-02 -9.860404e-03)	(1.255857e-05 -1.108182e-05 6.466317e-05)
185           	(-1.377973e-02 8.023465e-02 -9.775613e-03)	(-1.379219e-02 8.024539e-02 -9.840191e-03)	(1.246288e-05 -1.073811e-05 6.457817e-05)
186           	(-1.375658e-02 8.025960e-02 -9.735261e-03)	(-1.376894e-02 8.027001e-02 -9.799764e-03)	(1.235439e-05 -1.041204e-05 6.450296e-05)
187           	(-1.373736e-02 8.028033e-02 -9.663897e-03)	(-1.374959e-02 8.029043e-02 -9.728333e-03)	(1.222857e-05 -1.010792e-05 6.443573e-05)
188           	(-1.372134e-02 8.029737e-02 -9.559474e-03)	(-1.373342e-02 8.030720e-02 -9.623850e-03)	(1.208364e-05 -9.828110e-06 6.437632e-05)
189           	(-1.370732e-02 8.030816e-02 -9.429644e-03)	(-1.371924e-02 8.031773e-02 -9.493964e-03)	(1.192219e-05 -9.574619e-06 6.431995e-05)
190           	(-1.369045e-02 8.029907e-02 -9.280092e-03)	(-1.370219e-02 8.030842e-02 -9.344347e-03)	(1.174618e-05 -9.351221e-06 6.425525e-05)
191           	(-1.362576e-02 7.953929e-02 -9.004041e-03)	(-1.363727e-02 7.954860e-02 -9.068411e-03)	(1.150308e-05 -9.306354e-06 6.437008e-05)
192           	(-1.358803e-02 7.953074e-02 -8.901153e-03)	(-1.359928e-02 7.953992e-02 -8.965485e-03)	(1.125633e-05 -9.187153e-06 6.433164e-05)
193           	(-1.354803e-02 7.951126e-02 -8.809279e-03)	(-1.355910e-02 7.952031e-02 -8.873521e-03)	(1.107032e-05 -9.043812e-06 6.424189e-05)
194           	(-1.351345e-02 7.948811e-02 -8.726055e-03)	(-1.352434e-02 7.949700e-02 -8.790151e-03)	(1.088639e-05 -8.889957e-06 6.409562e-05)
195           	(-1.348527e-02 7.946521e-02 -8.643711e-03)	(-1.349596e-02 7.947396e-02 -8.707626e-03)	(1.069301e-05 -8.741701e-06 6.391540e-05)
196           	(-1.346197e-02 7.944865e-02 -8.550267e-03)	(-1.347245e-02 7.945726e-02 -8.613984e-03)	(1.048092e-05 -8.611710e-06 6.371707e-05)
197           	(-1.344159e-02 7.944525e-02 -8.435404e-03)	(-1.345184e-02 7.945376e-02 -8.498917e-03)	(1.024851e-05 -8.508253e-06 6.351307e-05)
198           	(-1.342141e-02 7.945770e-02 -8.296377e-03)	(-1.343141e-02 7.946614e-02 -8.359684e-03)	(9.994497e-06 -8.438639e-06 6.330649e-05)
199           	(-1.339926e-02 7.948545e-02 -8.136220e-03)	(-1.340897e-02 7.949386e-02 -8.199314e-03)	(9.719029e-06 -8.409770e-06 6.309396e-05)
200           	(-1.338728e-02 7.963406e-02 -8.078976e-03)	(-1.339669e-02 7.964248e-02 -8.141748e-03)	(9.406483e-06 -8.426162e-06 6.277169e-05)
201           	(-1.336000e-02 7.963567e-02 -7.853945e-03)	(-1.336907e-02 7.964418e-02 -7.916475e-03)	(9.070472e-06 -8.506337e-06 6.252960e-05)
202           	(-1.332948e-02 7.963141e-02 -7.634568e-03)	(-1.333819e-02 7.964006e-02 -7.696886e-03)	(8.702394e-06 -8.648191e-06 6.231839e-05)
203           	(-1.329535e-02 7.962100e-02 -7.422809e-03)	(-1.330365e-02 7.962985e-02 -7.484926e-03)	(8.296856e-06 -8.853585e-06 6.211693e-05)
204           	(-1.326275e-02 7.961278e-02 -7.234883e-03)	(-1.327059e-02 7.962190e-02 -7.296797e-03)	(7.846894e-06 -9.121894e-06 6.191415e-05)
205           	(-1.322490e-02 7.959598e-02 -7.042930e-03)	(-1.323225e-02 7.960543e-02 -7.104643e-03)	(7.353093e-06 -9.454296e-06 6.171313e-05)
206           	(-1.311857e-02 7.844933e-02 -6.710986e-03)	(-1.312531e-02 7.845942e-02 -6.772758e-03)	(6.732070e-06 -1.009856e-05 6.177226e-05)
207           	(-1.304728e-02 7.843592e-02 -6.544321e-03)	(-1.305336e-02 7.844656e-02 -6.606020e-03)	(6.085675e-06 -1.064517e-05 6.169897e-05)
208           	(-1.297541e-02 7.842503e-02 -6.357323e-03)	(-1.298088e-02 7.843620e-02 -6.418984e-03)	(5.471927e-06 -1.117241e-05 6.166121e-05)