# Probe 0 (-1 0.395 0)
# Probe 1 (1 0.395 0)
#       Probe             0             1
#        Time
  0.000600024       794.301       781.364
   0.00132009       794.287        781.36
   0.00218416       794.288       781.625
   0.00322105       794.288       781.576
   0.00446527       794.288       781.631
   0.00595826       794.288       781.694
   0.00775017       794.288       781.765
   0.00990014       794.288       781.853
    0.0124803       794.288       781.965
    0.0155104       794.289       782.097
    0.0189839       794.289       782.234
    0.0229944        794.29       782.382
    0.0276809       794.292       782.543
     0.033163       794.294       782.718
    0.0395718       794.297       782.906
    0.0469976       794.302       783.111
    0.0555226       794.308       783.352
    0.0653331       794.315       783.602
    0.0767033       794.327       783.981
    0.0898672       794.336       784.242
    0.0973294       794.328        784.39
     0.105976       794.343       784.699
     0.112928        794.35       784.974
      0.12081       794.363        785.16
     0.129947       794.365       785.303
      0.13801       794.363       785.498
     0.146631       794.368       785.676
     0.152514       794.376       785.893
     0.158016       794.379       785.906
     0.164272       794.378       785.952
     0.169341       794.378       786.083
     0.170998       794.383       786.434
     0.172866       794.375       786.266
     0.174971       794.373       786.236
     0.177359       794.374       786.211
     0.180201       794.374       786.216
     0.183473       794.375       786.199
     0.187097       794.376       786.235
      0.19119       794.376       786.269
     0.196102       794.376       786.292
     0.201996       794.375        786.34
     0.209073       794.373       786.377
     0.216966       794.369        786.38
     0.221866       794.364       786.479
     0.227514       794.362       786.441
     0.232517       794.359       786.476
      0.23822       794.357       786.441
     0.242861       794.354       786.477
     0.245825       794.351       786.515
     0.249211       794.348       786.454
      0.25322       794.346       786.428
     0.257829       794.344       786.422
     0.263187       794.341       786.397
     0.269605       794.336       786.374
      0.27731       794.331       786.347
     0.286552       794.323       786.308
     0.294394       794.316       786.302
     0.303531       794.308       786.252
     0.307133       794.305       786.297
     0.311193       794.298       786.235
     0.315763       794.294       786.216
     0.321122       794.291       786.209
     0.327488       794.287       786.188
     0.334568       794.282       786.172
     0.342598       794.277       786.151
     0.351571       794.272       786.134
     0.358985        794.27       786.112
     0.363372        794.27       786.102
      0.36832       794.268       786.103
     0.373841       794.271       786.108
     0.378908       794.275       786.094
     0.384578       794.281       786.099
      0.39119       794.291       786.097
     0.398923       794.306       786.094
     0.407654        794.33       786.084
     0.416802       794.367       786.082
     0.427147       794.422       786.082
     0.429601       794.504       786.014
     0.432299       794.501       786.098
     0.435408       794.516       786.102
      0.43914       794.539       786.101
     0.443621       794.578       786.096
     0.448734       794.635       786.094
     0.454868       794.717       786.095
     0.462223       794.836       786.094
      0.47072       795.002       786.093
     0.480337       795.236        786.09
     0.491387       795.575       786.084
     0.495773       795.868       786.061
     0.500998       796.047       786.086
     0.507111       796.328       786.086
     0.512923       796.677       786.083
     0.519551       797.106       786.085
     0.526054       797.619       786.081
     0.533389       798.275       786.081
     0.541645        799.16       786.077
     0.550991       800.356       786.071
     0.557439       801.488       786.066
     0.564458       802.734       786.066
     0.568902       803.841        786.06
     0.574209       804.946       786.064
     0.579385       806.285       786.059
     0.585209       808.002       786.056
     0.590465       809.876       786.053
     0.595856       812.011       786.048
     0.601981       814.705       786.046
     0.608995       818.209       786.042
     0.616994       822.853       786.036
     0.625217       828.326       786.028
     0.634545       835.559       786.021
     0.644939       845.482       786.012
     0.653631       854.446       786.004
     0.656242       858.994       785.992
     0.659209        860.85       786.002
     0.662359       862.929       786.006
      0.66586       865.888       786.003
     0.669807       870.881       786.002
     0.674267       878.702           786
      0.67925       889.162       785.998
     0.684768       901.189       785.997
     0.690977        915.95       785.994
     0.696832       930.652       785.992
     0.703432       948.053       785.991
      0.71116       966.693       785.991
     0.715857       974.288       785.985
     0.721465       987.056       785.987
     0.727757       1001.47       785.988
      0.73483       1017.69       785.988
      0.74297       1033.58       785.989
     0.752623       1051.02       785.989
      0.76404       1068.86       785.989
     0.776838       1085.72       785.992
     0.791867       1104.77       785.996
     0.809328       1128.32       786.003
     0.813587       1142.26       785.995
     0.818643       1150.42       786.019
     0.824293       1159.24       786.026
     0.829998        1168.5       786.032
     0.836443       1180.05       786.039
     0.843891       1192.57       786.048
      0.84968       1199.94       786.056
     0.856124       1204.62       786.068
      0.86294        1208.1        786.08
     0.870545       1208.99       786.094
     0.879059       1209.53       786.112
     0.888801       1209.08       786.134
     0.899794        1212.2       786.162
     0.903666       1209.99       786.169
     0.908253       1211.05       786.194
      0.91376        1213.7       786.214
     0.916891       1213.97       786.227
     0.920473       1215.52       786.241
     0.924614       1218.35       786.259
     0.929381       1220.99       786.279
     0.934772       1223.32       786.304
     0.940795       1224.75       786.334
     0.947549        1225.9       786.371
     0.955138       1226.81       786.417
     0.962727       1226.61       786.468
     0.971465       1227.71       786.534
     0.981902       1229.04       786.622
      0.98529       1224.54       786.658
     0.989092       1223.75       786.708
     0.992806       1223.54        786.75
     0.996151       1222.77       786.791
     0.999899       1223.34       786.835
      1.00419       1223.94       786.888
      1.00929       1224.38       786.957
      1.01367       1223.27       787.022
      1.01869       1224.47       787.104
      1.02445       1224.93       787.204
      1.03111       1225.71       787.333
      1.03892       1227.59       787.503
      1.04818        1228.7       787.729
      1.05866       1230.83       788.027
      1.06906       1231.42       788.376
      1.07572       1229.87       788.644
      1.08255       1230.79       788.942
      1.09017       1232.23       789.314
      1.09688       1232.66       789.685
      1.10464       1234.57       790.168
      1.11335        1236.6       790.785
      1.12203       1238.08       791.494
      1.13002       1239.16       792.238
      1.13732       1240.29       792.999
      1.14398       1241.46       793.772
      1.14871       1241.61       794.355
        1.154       1242.97       795.068
      1.15925       1244.07       795.814
      1.16412       1244.88       796.557
      1.16865       1245.71       797.303
      1.17285       1246.49       798.029
      1.17676       1247.21       798.714
      1.18038       1247.89       799.397
      1.18374        1248.5       799.989
      1.18689       1249.05       800.594
      1.18984        1249.6       801.125
      1.19264       1250.07       801.709
      1.19532       1250.54       802.196
       1.1979       1250.91       802.677
      1.20041       1251.24       803.169
      1.20288       1251.61       803.634
      1.20534       1251.97       804.147
      1.20782        1252.4       804.692
      1.21035       1252.84       805.282
      1.21297       1253.24       805.903
      1.21572       1253.62       806.544
      1.21864       1254.01       807.221
      1.22177       1254.46       807.941
      1.22514       1254.84       808.723
      1.22876       1255.26       809.461
      1.23258        1255.6       810.168
      1.23665       1255.92       810.814
      1.24068       1256.11       811.356
      1.24447       1256.24       811.786
      1.24792       1256.27       812.124
      1.25121       1256.27       812.441
      1.25423       1256.25       812.731
      1.25738       1256.21       813.074
      1.26078       1256.08       813.436
      1.26437       1255.93       813.732
      1.26837       1255.72       814.087
      1.27286       1255.37       814.404
      1.27789       1254.94       814.714
      1.28354       1254.45       814.882
      1.28988       1253.77       814.961
      1.29698       1252.89       814.957
      1.29814       1252.88       814.944
      1.29951       1252.55       815.261
      1.30104       1252.31       815.273
      1.30247       1252.14       815.226
      1.30414       1251.88       815.239
      1.30614       1251.59         815.3
      1.30854       1251.25       815.327
      1.31137       1250.85       815.381
      1.31473       1250.39       815.493
      1.31878       1249.81       815.571
       1.3235       1249.13       815.509
      1.32887       1248.33       815.325
      1.33489       1247.43       814.907
      1.34113       1246.49       814.251
      1.34725       1245.58       813.489
      1.35326       1244.73       812.648
      1.35917       1243.92       811.675
        1.365       1243.16       810.615
      1.37078       1242.45       809.382
      1.37652        1241.8        808.06
      1.38143       1241.28       806.799
      1.38692       1240.75       805.419
      1.39256       1240.28       804.032
      1.39741       1239.95       802.917
      1.40282       1239.53       801.825
       1.4084       1239.18       800.865
      1.41396       1238.75       799.982
      1.41949       1238.45       799.172
        1.425       1238.27       798.444
      1.43048       1238.14       797.766
      1.43595       1238.04       797.138
      1.44139       1237.95       796.554
      1.44681       1237.93           796
       1.4522       1237.94       795.494
      1.45757       1237.98       795.022
      1.46292       1238.03       794.567
      1.46826       1238.14       794.148
      1.47358       1238.27       793.764
      1.47871       1238.42       793.422
      1.48364       1238.59       793.126
      1.48838       1238.77       792.856
      1.49298       1238.94       792.608
      1.49746       1239.14       792.381
      1.50184       1239.28        792.21
      1.50613       1239.43       792.068
      1.51035       1239.67       791.959
      1.51452       1239.91        791.89
      1.51864       1240.16       791.823
      1.52273       1240.41       791.801
       1.5268       1240.64       791.807
      1.53086       1240.87        791.85
      1.53492       1241.09       791.925
      1.53898       1241.31       792.026
      1.54306       1241.53       792.159
      1.54715       1241.74       792.324
      1.55128       1241.93        792.53
      1.55545       1242.11       792.773
      1.55967       1242.29       793.055
      1.56394       1242.45       793.375
      1.56829       1242.61       793.739
      1.57271       1242.75       794.148
      1.57722       1242.88        794.61
      1.58177       1242.99       795.107
      1.58584       1243.09       795.551
       1.5886       1243.19       795.821
      1.59185       1243.22       796.268
      1.59561       1243.27       796.808
       1.5999       1243.32        797.46
      1.60473       1243.39       798.236
      1.61013       1243.46       799.152
      1.61503       1243.54       799.941
      1.61769       1243.72       800.242
      1.62075       1243.62        800.83
       1.6243       1243.61       801.528
      1.62847       1243.65       802.387
      1.63313       1243.72       803.365
      1.63625       1243.88       803.875
      1.63945       1243.91       804.569
       1.6431       1243.94       805.403
      1.64512       1244.07       805.709
      1.64738          1244       806.245
      1.64991       1244.03       806.847
      1.65279       1244.12       807.565
      1.65618       1244.23       808.431
      1.66014       1244.39       809.464
      1.66417       1244.57       810.485
      1.66679       1244.74       811.008
      1.66909       1244.85       811.582
      1.66971       1245.39        811.65
      1.67042       1245.25       811.826
      1.67121       1245.17       812.036
       1.6721       1245.13       812.286
      1.67313        1245.1       812.579
      1.67435       1245.11       812.933
      1.67579       1245.14       813.353
      1.67739       1245.21       813.819
      1.67871       1245.33       814.145
      1.68022       1245.38       814.611
      1.68196       1245.46       815.137
      1.68372       1245.57       815.637
      1.68543        1245.7       816.128
      1.68716       1245.81       816.651
       1.6891       1245.93       817.266
      1.69126       1246.06       817.952
      1.69366       1246.22       818.714
      1.69595        1246.4       819.402
      1.69818       1246.57       820.096
      1.70026       1246.74       820.742
      1.70199       1246.91       821.236
      1.70392       1247.04       821.939
      1.70606       1247.19       822.683
      1.70813       1247.36       823.349
      1.71024       1247.53       824.069
      1.71254       1247.71       824.893
      1.71369       1247.95       824.933
      1.71489          1248       825.479
      1.71601       1248.09       825.889
       1.7173       1248.15       826.435
      1.71885       1248.24       827.045
      1.72062       1248.37       827.706
      1.72267       1248.54       828.479
      1.72499       1248.75       829.366
      1.72713       1248.97       830.074
      1.72951       1249.18        831.03
      1.73219       1249.41       832.102
      1.73422       1249.61       832.652
      1.73648       1249.78       833.661
      1.73882       1250.01       834.587
       1.7414       1250.25       835.655
      1.74427       1250.53       836.849
      1.74749       1250.85       838.207
      1.74959       1251.08       838.701
       1.7518        1251.3       839.739
      1.75429       1251.55       840.883
      1.75716       1251.84       842.181
      1.76043       1252.19       843.653
       1.7641       1252.58       845.324
      1.76816       1253.01       847.189
      1.77221       1253.46       849.019
      1.77619        1253.9       850.856
       1.7801       1254.32       852.682
      1.78392       1254.72       854.518
      1.78769       1255.15       856.367
      1.79139       1255.56       858.221
      1.79504       1255.97       860.091
      1.79864       1256.36       861.956
      1.80219       1256.75       863.839
      1.80571       1257.14         865.7
      1.80918       1257.53       867.576
      1.81261        1257.9       869.455
      1.81601       1258.27       871.352
      1.81938       1258.63       873.241
      1.82271       1258.99        875.13
      1.82601       1259.35       877.034
      1.82929        1259.7       878.906
      1.83255       1260.05       880.771
      1.83578       1260.39       882.617
        1.839       1260.73        884.48
       1.8422       1261.07       886.306
      1.84539        1261.4       888.135
      1.84851       1261.73         889.9
      1.85156       1262.03       891.612
      1.85455       1262.34       893.345
      1.85747       1262.63       895.092
      1.86035       1262.92       896.861
       1.8632        1263.2       898.631
      1.86601       1263.48       900.487
      1.86881       1263.75       902.408
      1.87158       1264.02       904.315
      1.87435       1264.28       906.238
      1.87713       1264.58       908.185
       1.8799       1264.85       910.138
      1.88268       1265.13       912.111
      1.88548        1265.4       914.121
      1.88829       1265.68       916.158
      1.89113       1265.95       918.183
      1.89399       1266.23       920.285
      1.89688       1266.51       922.436
      1.89981       1266.81        924.57
      1.90275        1267.1       926.656
      1.90571        1267.4       928.963
      1.90864        1267.7       931.111
      1.91157          1268       933.339
       1.9145       1268.29       935.572
      1.91744       1268.59       937.629
      1.92035       1268.89       939.826
      1.92316       1269.19       942.046
      1.92587       1269.47       944.035
       1.9286       1269.76       946.268
      1.93128       1270.06       948.316
      1.93393       1270.34       950.341
      1.93653       1270.62       952.503
      1.93907        1270.9       954.647
      1.94151       1271.18       956.569
      1.94388       1271.45         958.5
      1.94618        1271.7        960.52
      1.94842       1271.96       962.445
      1.95061       1272.22       964.132
      1.95276       1272.47       965.711
      1.95488       1272.72       967.316
      1.95697       1272.97       968.975
      1.95902       1273.21       970.699
      1.96104       1273.46       972.116
      1.96304        1273.7        973.35
      1.96503       1273.94       974.787
      1.96701       1274.19       976.142
      1.96898       1274.43       977.422
      1.97094       1274.68       978.578
       1.9729       1274.93       979.813
      1.97486       1275.16       981.079
      1.97683       1275.41       982.165
       1.9788       1275.66       983.278
      1.98078       1275.92       984.419
      1.98278       1276.17       985.558
       1.9848       1276.44       986.835
      1.98684        1276.7       988.106
      1.98889       1276.97       989.308
      1.99097       1277.25       990.661
      1.99307       1277.52       992.005
       1.9952       1277.81       993.319
      1.99737        1278.1       994.755
      1.99957       1278.39       996.331
      2.00182       1278.69       997.842
       2.0041          1279       999.471
      2.00642       1279.31       1001.17
      2.00878       1279.64       1002.95
      2.01122       1279.98       1004.86
      2.01377       1280.33       1006.84
      2.01641        1280.7       1008.98
      2.01907       1281.07       1011.21
       2.0219       1281.46        1013.6
      2.02451       1281.82       1015.92
      2.02742       1282.24       1018.51
      2.03031       1282.65       1021.14
      2.03354       1283.11       1024.07
      2.03661       1283.54       1027.03
      2.03988       1284.01       1030.12
      2.04299       1284.44       1033.15
       2.0463       1284.92       1036.34
      2.04933       1285.34       1039.42
      2.05254       1285.81       1042.59
      2.05552       1286.23       1045.69
      2.05883       1286.72       1048.96
      2.06217       1287.21       1052.39
      2.06554        1287.7       1055.89
      2.06893       1288.18       1059.43
      2.07236       1288.68       1063.05
      2.07583       1289.18       1066.72
      2.07928       1289.68       1070.42
      2.08267       1290.17        1074.1
      2.08603       1290.65       1077.77
      2.08935       1291.11       1081.38
      2.09269       1291.59       1085.04
      2.09591       1292.05       1088.68
      2.09914       1292.51       1092.16
      2.10237       1292.97       1095.78
      2.10559       1293.43       1099.34
      2.10812       1293.76       1102.46
      2.11092       1294.17       1105.44
      2.11391       1294.59       1108.69
      2.11683          1295       1111.99
      2.11969        1295.4       1115.23
       2.1225       1295.78       1118.42
      2.12529       1296.16       1121.57
      2.12806       1296.54       1124.71
      2.13082       1296.91       1127.86
      2.13356       1297.28       1130.99
      2.13628       1297.64       1134.12
        2.139       1298.01       1137.25
      2.14172       1298.36       1140.41
      2.14442       1298.72       1143.56
      2.14711       1299.08       1146.71
      2.14972        1299.4       1149.81
       2.1523       1299.73       1152.88
      2.15488       1300.07       1155.93
      2.15744       1300.39       1158.99
      2.15996        1300.7       1162.02
      2.16245       1301.01       1165.04
      2.16491       1301.33       1168.03
      2.16737       1301.61       1171.01
       2.1698       1301.92          1174
      2.17223       1302.21       1176.98
      2.17465       1302.49       1179.98
      2.17707       1302.77          1183
       2.1795       1303.05       1186.03
      2.18195       1303.34       1189.09
      2.18443       1303.61        1192.2
      2.18692       1303.89       1195.38
      2.18941       1304.15       1198.56
      2.19188       1304.42       1201.77
      2.19432       1304.69       1204.93
      2.19675       1304.94        1208.1
       2.1992        1305.2       1211.24
      2.20164       1305.45       1214.41
      2.20404       1305.69       1217.54
      2.20647       1305.94       1220.64
      2.20892       1306.17       1223.79
      2.21137        1306.4       1226.92
       2.2138       1306.64          1230
      2.21622       1306.87       1233.07
      2.21864       1307.09       1236.18
      2.22107       1307.32       1239.27
      2.22352       1307.55       1242.39
      2.22597       1307.76       1245.52
      2.22845       1307.98       1248.63
      2.23093       1308.19       1251.78
      2.23344        1308.4       1254.97
      2.23597       1308.62       1258.18
      2.23852       1308.84       1261.43
      2.24111       1309.05       1264.69
      2.24372       1309.25       1268.02
      2.24636       1309.47       1271.45
      2.24903       1309.68       1274.93
      2.25174       1309.88       1278.38
      2.25448       1310.09       1281.98
      2.25725       1310.32       1285.66
      2.26005       1310.51       1289.35
      2.26286       1310.71       1293.11
      2.26568       1310.91       1297.05
      2.26851       1311.12          1301
      2.27134       1311.32       1304.93
      2.27416       1311.51       1308.93
      2.27698       1311.69        1312.9
      2.27979       1311.87       1316.91
      2.28257       1312.06       1320.89
      2.28535       1312.24        1324.9
      2.28811       1312.41       1329.09
      2.29086       1312.59       1333.05
      2.29359       1312.75       1337.18
       2.2963       1312.91       1340.83
      2.29901       1313.08       1344.62
      2.30173       1313.25       1348.29
      2.30444       1313.42       1351.84
      2.30714       1313.59       1355.58
      2.30986       1313.76       1359.22
      2.31257       1313.91       1362.88
       2.3153       1314.07       1366.31
      2.31804       1314.22        1369.3
       2.3208       1314.36       1372.34
      2.32359       1314.54       1375.23
      2.32639       1314.69        1377.9
      2.32922       1314.84       1380.51
      2.33206       1314.99       1383.13
      2.33494       1315.14       1385.65
      2.33782       1315.29       1387.68
      2.34071       1315.43       1390.21
      2.34359       1315.58       1392.79
      2.34641       1315.72       1394.82
      2.34928       1315.87       1397.41
      2.35224       1316.02       1399.28
      2.35522       1316.16       1401.02
      2.35821        1316.3       1402.57
      2.36123       1316.45       1404.07
      2.36425        1316.6       1405.78
      2.36728       1316.75       1407.32
      2.37032       1316.89       1408.98
      2.37337       1317.04       1410.78
      2.37643       1317.18       1412.81
      2.37948       1317.33       1414.67
      2.38253       1317.48       1416.16
       2.3856       1317.63          1418
      2.38867       1317.79       1419.75
      2.39176       1317.94       1421.46
      2.39487       1318.09       1423.01
      2.39799       1318.24       1424.52
      2.40114        1318.4       1425.99
      2.40431       1318.56       1427.38
      2.40751       1318.71       1428.49
      2.41074       1318.87       1429.78
      2.41401       1319.04       1430.96
      2.41731       1319.22       1431.98
      2.42063        1319.4       1433.16
      2.42397       1319.57        1434.3
      2.42737       1319.74       1435.46
      2.43075       1319.92       1436.78
      2.43408       1320.09       1438.31
      2.43729       1320.25       1439.84
      2.44064       1320.44       1441.21
      2.44411       1320.63        1442.7
      2.44754       1320.81       1444.23
      2.45045       1320.94       1446.07
      2.45341       1321.09       1447.35
      2.45666       1321.27       1448.54
      2.46001       1321.45       1449.97
      2.46328       1321.63       1451.53
      2.46652        1321.8       1453.02
      2.46972       1321.95        1454.5
      2.47271       1322.11       1455.97
      2.47575       1322.29       1457.16
      2.47889       1322.47       1458.27
      2.48203       1322.61       1459.41
      2.48496       1322.72       1460.56
      2.48811       1322.89       1461.32
      2.49135       1323.03       1462.15
      2.49464       1323.19       1462.91
      2.49776       1323.31       1463.62
      2.50088       1323.44       1464.22
      2.50397       1323.58       1464.76
      2.50714       1323.71       1465.08
      2.51031       1323.84        1465.4
       2.5135       1323.96       1465.66
      2.51671       1324.06       1465.81
      2.51987        1324.2       1465.93
      2.52293       1324.33       1465.95
      2.52593       1324.42       1465.89
      2.52903       1324.54       1465.75
      2.53221       1324.64       1465.53
      2.53542       1324.73       1465.27
      2.53871       1324.84       1464.89
      2.54205       1324.93       1464.47
      2.54538       1325.03       1464.03
      2.54878       1325.12       1463.48
      2.55218       1325.21        1462.9
      2.55564       1325.29       1462.24
      2.55905       1325.38       1461.53
      2.56248       1325.46       1460.77
       2.5659       1325.54       1459.96
      2.56935       1325.61       1459.07
      2.57291       1325.69       1458.16
       2.5764       1325.74       1457.17
      2.57985       1325.83       1456.13
      2.58326        1325.9       1455.06
      2.58667       1325.98       1453.97
      2.59005       1326.07       1452.83
      2.59347       1326.15       1451.66
      2.59686       1326.16       1450.45
      2.60022       1326.22       1449.22
       2.6036        1326.3       1447.97
      2.60701       1326.38       1446.72
      2.61043       1326.45       1445.42
      2.61385        1326.5       1444.07
      2.61724       1326.58       1442.72
      2.62063       1326.63       1441.38
      2.62401        1326.7          1440
      2.62738       1326.76       1438.64
      2.63073       1326.76       1437.29
      2.63409        1326.8       1435.94
      2.63745       1326.84       1434.59
       2.6408       1326.89       1433.25
      2.64412       1326.95       1431.92
      2.64741       1326.98       1430.59
      2.65068       1327.04       1429.33
      2.65396       1327.08       1428.09
      2.65724        1327.1       1426.88
      2.66049       1327.15       1425.67
      2.66374       1327.12       1424.52
      2.66699       1327.04        1423.4
      2.67021       1327.03       1422.32
       2.6734       1327.01       1421.26
      2.67659       1326.93       1420.31
      2.67977       1326.96       1419.39
      2.68296       1327.03       1418.53
      2.68613          1327        1417.7
       2.6893       1326.97       1416.93
      2.69245       1326.93       1416.19
      2.69557       1326.92       1415.52
       2.6987       1326.81       1414.93
      2.70181       1326.74       1414.39
      2.70492       1326.68       1413.92
      2.70802       1326.61        1413.5
      2.71112       1326.53       1413.11
       2.7142       1326.45       1412.79
       2.7173       1326.36       1412.53
      2.72039        1326.3       1412.32
      2.72348        1326.2       1412.13
      2.72656       1326.11       1412.03
      2.72963       1326.02       1411.99
       2.7327        1325.9       1411.96
      2.73577       1325.78       1412.02
      2.73882       1325.68       1412.16
      2.74187       1325.56       1412.29
      2.74491       1325.43        1412.5
      2.74795        1325.3       1412.75
      2.75099       1325.18       1413.06
      2.75403       1325.05       1413.39
      2.75707       1324.92       1413.76
      2.76011        1324.8       1414.18
      2.76315       1324.66       1414.64
       2.7662       1324.52        1415.1
      2.76924       1324.37       1415.64
      2.77228       1324.22       1416.19
      2.77533       1324.06       1416.79
      2.77837        1323.9       1417.39
      2.78142       1323.74       1418.06