# Moment      
# CofR        : (0.000000e+00 0.000000e+00 0.000000e+00)
#
# Time        	(total_x total_y total_z)	(pressure_x pressure_y pressure_z)	(viscous_x viscous_y viscous_z)
1             	(-1.328051e+00 2.691143e+00 1.491668e-03)	(-1.327798e+00 2.687902e+00 1.488627e-03)	(-2.527766e-04 3.241711e-03 3.040944e-06)
2             	(-1.105201e+00 2.180817e+00 -2.489912e-02)	(-1.105576e+00 2.179288e+00 -2.491703e-02)	(3.747691e-04 1.529182e-03 1.791342e-05)
3             	(-6.371836e-01 1.268691e+00 -7.321828e-02)	(-6.381242e-01 1.268526e+00 -7.305200e-02)	(9.405603e-04 1.647577e-04 -1.662773e-04)
4             	(-1.226669e-01 1.696190e-01 -1.818965e-01)	(-1.238941e-01 1.701422e-01 -1.816053e-01)	(1.227191e-03 -5.231858e-04 -2.911790e-04)
5             	(3.118944e-01 -7.889797e-01 -2.676817e-01)	(3.106188e-01 -7.881890e-01 -2.670605e-01)	(1.275527e-03 -7.906859e-04 -6.211503e-04)
6             	(4.985437e-01 -1.214563e+00 -2.754666e-01)	(4.976126e-01 -1.214302e+00 -2.744305e-01)	(9.310432e-04 -2.618133e-04 -1.036079e-03)
7             	(5.024618e-01 -1.174207e+00 -2.152180e-01)	(5.021898e-01 -1.175196e+00 -2.140924e-01)	(2.719744e-04 9.883423e-04 -1.125533e-03)
8             	(3.887549e-01 -8.771077e-01 -1.128605e-01)	(3.892599e-01 -8.795806e-01 -1.118373e-01)	(-5.050323e-04 2.472976e-03 -1.023235e-03)
9             	(1.967545e-01 -4.180010e-01 2.485221e-02)	(1.976018e-01 -4.212863e-01 2.597550e-02)	(-8.473864e-04 3.285324e-03 -1.123284e-03)
10            	(-4.637886e-03 4.139720e-02 1.359799e-01)	(-3.778197e-03 3.807179e-02 1.372796e-01)	(-8.596885e-04 3.325411e-03 -1.299682e-03)
11            	(-1.514180e-01 3.658168e-01 1.662105e-01)	(-1.508039e-01 3.628968e-01 1.673377e-01)	(-6.140996e-04 2.920063e-03 -1.127287e-03)
12            	(-2.219130e-01 5.030601e-01 1.410056e-01)	(-2.216350e-01 5.008692e-01 1.418067e-01)	(-2.779799e-04 2.190917e-03 -8.010933e-04)
13            	(-2.188453e-01 4.756616e-01 8.219750e-02)	(-2.189178e-01 4.742942e-01 8.263845e-02)	(7.250506e-05 1.367323e-03 -4.409446e-04)
14            	(-1.712487e-01 3.552249e-01 1.157382e-02)	(-1.715594e-01 3.545457e-01 1.179134e-02)	(3.106460e-04 6.791894e-04 -2.175233e-04)
15            	(-1.020978e-01 1.878247e-01 -5.791017e-02)	(-1.025372e-01 1.876155e-01 -5.774958e-02)	(4.394794e-04 2.092510e-04 -1.605935e-04)
16            	(-3.333554e-02 2.841722e-02 -1.053316e-01)	(-3.380772e-02 2.841286e-02 -1.050666e-01)	(4.721801e-04 4.362673e-06 -2.650713e-04)
17            	(1.846536e-02 -8.630221e-02 -1.241685e-01)	(1.804871e-02 -8.633660e-02 -1.237228e-01)	(4.166523e-04 3.438908e-05 -4.457074e-04)
18            	(4.562900e-02 -1.413251e-01 -1.184308e-01)	(4.533655e-02 -1.415633e-01 -1.178112e-01)	(2.924510e-04 2.381769e-04 -6.195997e-04)
19            	(4.971018e-02 -1.414036e-01 -9.679245e-02)	(4.956782e-02 -1.419069e-01 -9.601017e-02)	(1.423611e-04 5.032883e-04 -7.822792e-04)
20            	(3.782788e-02 -1.064617e-01 -7.039783e-02)	(3.781356e-02 -1.071941e-01 -6.947152e-02)	(1.431931e-05 7.324460e-04 -9.263049e-04)
21            	(1.978679e-02 -5.615408e-02 -4.263880e-02)	(1.986369e-02 -5.703759e-02 -4.164320e-02)	(-7.689994e-05 8.835122e-04 -9.955963e-04)
22            	(5.432387e-04 -2.958677e-03 -2.005841e-02)	(6.642872e-04 -3.896576e-03 -1.907090e-02)	(-1.210485e-04 9.378986e-04 -9.875135e-04)
23            	(-1.459191e-02 3.757155e-02 -9.467350e-03)	(-1.447270e-02 3.666638e-02 -8.545114e-03)	(-1.192076e-04 9.051705e-04 -9.222357e-04)
24            	(-2.358243e-02 6.048375e-02 -9.947183e-03)	(-2.350237e-02 5.966598e-02 -9.109952e-03)	(-8.005956e-05 8.177757e-04 -8.372307e-04)
25            	(-2.548661e-02 6.480664e-02 -1.768877e-02)	(-2.546726e-02 6.410185e-02 -1.692981e-02)	(-1.934859e-05 7.047901e-04 -7.589571e-04)
26            	(-2.277453e-02 5.693581e-02 -2.819142e-02)	(-2.281908e-02 5.634108e-02 -2.748711e-02)	(4.454659e-05 5.947255e-04 -7.043014e-04)
27            	(-1.823281e-02 4.371645e-02 -3.888090e-02)	(-1.832565e-02 4.320700e-02 -3.819679e-02)	(9.283634e-05 5.094551e-04 -6.841140e-04)
28            	(-1.313983e-02 2.878894e-02 -4.762779e-02)	(-1.326086e-02 2.832905e-02 -4.693077e-02)	(1.210307e-04 4.598920e-04 -6.970249e-04)
29            	(-8.655922e-03 1.691938e-02 -5.263945e-02)	(-8.785946e-03 1.647294e-02 -5.190891e-02)	(1.300245e-04 4.464463e-04 -7.305412e-04)
30            	(-5.138689e-03 9.121117e-03 -5.334362e-02)	(-5.265357e-03 8.662723e-03 -5.257342e-02)	(1.266681e-04 4.583933e-04 -7.701992e-04)
31            	(-2.949561e-03 5.824136e-03 -5.117403e-02)	(-3.068886e-03 5.340803e-03 -5.036915e-02)	(1.193246e-04 4.833326e-04 -8.048808e-04)
32            	(-1.682104e-03 5.842767e-03 -4.678330e-02)	(-1.796173e-03 5.334558e-03 -4.595592e-02)	(1.140687e-04 5.082083e-04 -8.273790e-04)
33            	(-1.380375e-03 8.685723e-03 -4.193561e-02)	(-1.494303e-03 8.161124e-03 -4.109982e-02)	(1.139284e-04 5.245993e-04 -8.357837e-04)
34            	(-1.626497e-03 1.228925e-02 -3.794659e-02)	(-1.746634e-03 1.176057e-02 -3.711424e-02)	(1.201369e-04 5.286740e-04 -8.323554e-04)
35            	(-2.086606e-03 1.566059e-02 -3.492724e-02)	(-2.218818e-03 1.513919e-02 -3.410644e-02)	(1.322122e-04 5.213997e-04 -8.208062e-04)
36            	(-2.777859e-03 1.874402e-02 -3.288290e-02)	(-2.925754e-03 1.823716e-02 -3.207793e-02)	(1.478953e-04 5.068681e-04 -8.049763e-04)
37            	(-3.521838e-03 2.070609e-02 -3.201734e-02)	(-3.686272e-03 2.021648e-02 -3.122966e-02)	(1.644345e-04 4.896086e-04 -7.876798e-04)
38            	(-4.314076e-03 2.188343e-02 -3.206172e-02)	(-4.493313e-03 2.140952e-02 -3.129054e-02)	(1.792367e-04 4.739123e-04 -7.711809e-04)
39            	(-5.085525e-03 2.250254e-02 -3.262359e-02)	(-5.276319e-03 2.204019e-02 -3.186573e-02)	(1.907942e-04 4.623506e-04 -7.578577e-04)
40            	(-5.784672e-03 2.291650e-02 -3.330309e-02)	(-5.982879e-03 2.246077e-02 -3.255533e-02)	(1.982063e-04 4.557257e-04 -7.477610e-04)
41            	(-6.319076e-03 2.338073e-02 -3.388400e-02)	(-6.520781e-03 2.292696e-02 -3.314431e-02)	(2.017057e-04 4.537692e-04 -7.396880e-04)
42            	(-6.236902e-03 2.364409e-02 -3.393763e-02)	(-6.440264e-03 2.318914e-02 -3.320488e-02)	(2.033615e-04 4.549503e-04 -7.327470e-04)
43            	(-6.067475e-03 2.430457e-02 -3.378214e-02)	(-6.271444e-03 2.384654e-02 -3.305559e-02)	(2.039684e-04 4.580287e-04 -7.265511e-04)
44            	(-5.536472e-03 2.575776e-02 -3.343114e-02)	(-5.740095e-03 2.529570e-02 -3.271152e-02)	(2.036235e-04 4.620576e-04 -7.196241e-04)
45            	(-5.045652e-03 2.701490e-02 -3.304293e-02)	(-5.249273e-03 2.654996e-02 -3.233134e-02)	(2.036208e-04 4.649392e-04 -7.115949e-04)
46            	(-4.225961e-03 2.871888e-02 -3.249443e-02)	(-4.431254e-03 2.825205e-02 -3.179116e-02)	(2.052924e-04 4.668235e-04 -7.032755e-04)
47            	(-3.099892e-03 3.072717e-02 -3.188970e-02)	(-3.308990e-03 3.025945e-02 -3.119521e-02)	(2.090983e-04 4.677112e-04 -6.944934e-04)
48            	(-1.064895e-03 3.389396e-02 -3.097885e-02)	(-1.280418e-03 3.342417e-02 -3.029390e-02)	(2.155226e-04 4.697913e-04 -6.849545e-04)
49            	(1.810792e-04 3.564412e-02 -3.068642e-02)	(-4.220069e-05 3.517237e-02 -3.001088e-02)	(2.232799e-04 4.717496e-04 -6.755335e-04)
50            	(1.594638e-03 3.744433e-02 -3.045232e-02)	(1.363334e-03 3.696988e-02 -2.978599e-02)	(2.313042e-04 4.744491e-04 -6.663243e-04)
51            	(3.981605e-03 4.067074e-02 -3.001065e-02)	(3.741070e-03 4.019092e-02 -2.935249e-02)	(2.405345e-04 4.798150e-04 -6.581584e-04)
52            	(5.565374e-03 4.270402e-02 -2.981400e-02)	(5.316101e-03 4.221804e-02 -2.916344e-02)	(2.492731e-04 4.859827e-04 -6.505660e-04)
53            	(7.940644e-03 4.634615e-02 -2.922510e-02)	(7.682224e-03 4.585172e-02 -2.858104e-02)	(2.584202e-04 4.944381e-04 -6.440644e-04)
54            	(9.542462e-03 4.860369e-02 -2.892295e-02)	(9.275652e-03 4.810068e-02 -2.828425e-02)	(2.668095e-04 5.030071e-04 -6.387009e-04)
55            	(1.161432e-02 5.267838e-02 -2.814991e-02)	(1.133860e-02 5.216455e-02 -2.751634e-02)	(2.757212e-04 5.138308e-04 -6.335791e-04)
56            	(1.302213e-02 5.499320e-02 -2.776515e-02)	(1.273797e-02 5.446829e-02 -2.713652e-02)	(2.841557e-04 5.249080e-04 -6.286307e-04)
57            	(1.450592e-02 5.921658e-02 -2.707572e-02)	(1.421278e-02 5.867749e-02 -2.645384e-02)	(2.931401e-04 5.390867e-04 -6.218755e-04)
58            	(1.559051e-02 6.288793e-02 -2.672561e-02)	(1.528876e-02 6.233188e-02 -2.611175e-02)	(3.017433e-04 5.560476e-04 -6.138623e-04)
59            	(1.632002e-02 6.572475e-02 -2.682369e-02)	(1.600975e-02 6.515030e-02 -2.621845e-02)	(3.102751e-04 5.744490e-04 -6.052453e-04)
60            	(1.686891e-02 6.668152e-02 -2.699275e-02)	(1.654978e-02 6.608969e-02 -2.639545e-02)	(3.191357e-04 5.918337e-04 -5.973032e-04)
61            	(1.715699e-02 6.805445e-02 -2.792521e-02)	(1.682955e-02 6.744592e-02 -2.733473e-02)	(3.274345e-04 6.085360e-04 -5.904738e-04)
62            	(1.734629e-02 6.897012e-02 -2.917747e-02)	(1.701237e-02 6.834495e-02 -2.859234e-02)	(3.339242e-04 6.251710e-04 -5.851363e-04)
63            	(1.770036e-02 6.935990e-02 -2.985211e-02)	(1.736058e-02 6.871840e-02 -2.927168e-02)	(3.397807e-04 6.415015e-04 -5.804268e-04)
64            	(1.782907e-02 6.957646e-02 -3.149185e-02)	(1.748532e-02 6.891912e-02 -3.091572e-02)	(3.437511e-04 6.573398e-04 -5.761325e-04)
65            	(1.802475e-02 6.950813e-02 -3.312482e-02)	(1.767824e-02 6.883314e-02 -3.255337e-02)	(3.465064e-04 6.749834e-04 -5.714466e-04)
66            	(1.831416e-02 6.916059e-02 -3.467727e-02)	(1.796545e-02 6.846788e-02 -3.411050e-02)	(3.487051e-04 6.927108e-04 -5.667745e-04)
67            	(1.871213e-02 6.851210e-02 -3.611930e-02)	(1.836176e-02 6.780304e-02 -3.555597e-02)	(3.503678e-04 7.090618e-04 -5.633336e-04)
68            	(1.911656e-02 6.789429e-02 -3.690917e-02)	(1.876561e-02 6.717130e-02 -3.634756e-02)	(3.509426e-04 7.229930e-04 -5.616132e-04)
69            	(1.974733e-02 6.648547e-02 -3.859363e-02)	(1.939686e-02 6.575203e-02 -3.803096e-02)	(3.504674e-04 7.334373e-04 -5.626709e-04)
70            	(2.052873e-02 6.485101e-02 -4.029332e-02)	(2.017955e-02 6.411008e-02 -3.972697e-02)	(3.491823e-04 7.409357e-04 -5.663475e-04)
71            	(2.115121e-02 6.373563e-02 -4.124181e-02)	(2.080203e-02 6.299032e-02 -4.067067e-02)	(3.491809e-04 7.453048e-04 -5.711364e-04)
72            	(2.236810e-02 6.188315e-02 -4.307435e-02)	(2.201645e-02 6.113839e-02 -4.249592e-02)	(3.516443e-04 7.447565e-04 -5.784300e-04)
73            	(2.325233e-02 6.081701e-02 -4.403185e-02)	(2.289783e-02 6.007506e-02 -4.344546e-02)	(3.545039e-04 7.419516e-04 -5.863882e-04)
74            	(2.490680e-02 5.933861e-02 -4.562378e-02)	(2.454684e-02 5.860338e-02 -4.502795e-02)	(3.599627e-04 7.352254e-04 -5.958320e-04)
75            	(2.599726e-02 5.867496e-02 -4.629022e-02)	(2.563240e-02 5.794708e-02 -4.568475e-02)	(3.648572e-04 7.278796e-04 -6.054764e-04)
76            	(2.722890e-02 5.823744e-02 -4.682351e-02)	(2.685816e-02 5.751791e-02 -4.620847e-02)	(3.707382e-04 7.195212e-04 -6.150446e-04)
77            	(2.936742e-02 5.807427e-02 -4.750204e-02)	(2.898872e-02 5.736337e-02 -4.687705e-02)	(3.787020e-04 7.108997e-04 -6.249884e-04)
78            	(3.063274e-02 5.824122e-02 -4.757803e-02)	(3.024601e-02 5.753809e-02 -4.694401e-02)	(3.867276e-04 7.031278e-04 -6.340145e-04)
79            	(3.271806e-02 5.919312e-02 -4.740262e-02)	(3.232070e-02 5.849578e-02 -4.676194e-02)	(3.973607e-04 6.973397e-04 -6.406875e-04)
80            	(3.384807e-02 5.996830e-02 -4.703703e-02)	(3.344066e-02 5.927506e-02 -4.639151e-02)	(4.074076e-04 6.932410e-04 -6.455256e-04)
81            	(3.559519e-02 6.202801e-02 -4.615282e-02)	(3.517652e-02 6.133442e-02 -4.550531e-02)	(4.186670e-04 6.935892e-04 -6.475138e-04)
82            	(3.643443e-02 6.319482e-02 -4.564220e-02)	(3.600559e-02 6.249842e-02 -4.499291e-02)	(4.288488e-04 6.964022e-04 -6.492985e-04)
83            	(3.750332e-02 6.561951e-02 -4.489682e-02)	(3.706363e-02 6.491501e-02 -4.424723e-02)	(4.396885e-04 7.045064e-04 -6.495993e-04)
84            	(3.816109e-02 6.755396e-02 -4.467836e-02)	(3.771103e-02 6.683934e-02 -4.402764e-02)	(4.500552e-04 7.146203e-04 -6.507192e-04)
85            	(3.841610e-02 6.818978e-02 -4.493887e-02)	(3.795576e-02 6.746498e-02 -4.428640e-02)	(4.603380e-04 7.248011e-04 -6.524741e-04)
86            	(3.862499e-02 6.895722e-02 -4.600790e-02)	(3.815450e-02 6.822114e-02 -4.535284e-02)	(4.704899e-04 7.360824e-04 -6.550635e-04)
87            	(3.878158e-02 6.917013e-02 -4.758046e-02)	(3.830179e-02 6.842324e-02 -4.692125e-02)	(4.797911e-04 7.468896e-04 -6.592161e-04)
88            	(3.895646e-02 6.893905e-02 -4.958417e-02)	(3.846770e-02 6.818181e-02 -4.891884e-02)	(4.887660e-04 7.572371e-04 -6.653317e-04)
89            	(3.920214e-02 6.830904e-02 -5.198447e-02)	(3.870443e-02 6.754207e-02 -5.131045e-02)	(4.977075e-04 7.669664e-04 -6.740150e-04)
90            	(3.956792e-02 6.727498e-02 -5.470368e-02)	(3.906124e-02 6.649934e-02 -5.401805e-02)	(5.066785e-04 7.756472e-04 -6.856275e-04)
91            	(4.007959e-02 6.590774e-02 -5.750534e-02)	(3.956400e-02 6.512512e-02 -5.680548e-02)	(5.155853e-04 7.826245e-04 -6.998649e-04)
92            	(4.072710e-02 6.436065e-02 -6.006463e-02)	(4.020287e-02 6.357366e-02 -5.934863e-02)	(5.242324e-04 7.869832e-04 -7.160047e-04)
93            	(4.146692e-02 6.283066e-02 -6.209791e-02)	(4.093497e-02 6.204263e-02 -6.136417e-02)	(5.319483e-04 7.880312e-04 -7.337372e-04)
94            	(4.223681e-02 6.148014e-02 -6.345571e-02)	(4.169833e-02 6.069433e-02 -6.270322e-02)	(5.384831e-04 7.858153e-04 -7.524874e-04)
95            	(4.261252e-02 6.084134e-02 -6.385438e-02)	(4.206919e-02 6.005995e-02 -6.308374e-02)	(5.433366e-04 7.813938e-04 -7.706432e-04)
96            	(4.338802e-02 5.990133e-02 -6.407850e-02)	(4.283974e-02 5.912670e-02 -6.329084e-02)	(5.482854e-04 7.746352e-04 -7.876589e-04)
97            	(4.373857e-02 5.950785e-02 -6.389628e-02)	(4.318681e-02 5.874211e-02 -6.309376e-02)	(5.517503e-04 7.657377e-04 -8.025133e-04)
98            	(4.439730e-02 5.904377e-02 -6.335386e-02)	(4.384084e-02 5.828772e-02 -6.254066e-02)	(5.564622e-04 7.560505e-04 -8.132066e-04)
99            	(4.467309e-02 5.894559e-02 -6.279711e-02)	(4.411304e-02 5.819968e-02 -6.197610e-02)	(5.600431e-04 7.459144e-04 -8.210185e-04)
100           	(4.513448e-02 5.899053e-02 -6.181651e-02)	(4.457149e-02 5.825369e-02 -6.099098e-02)	(5.629858e-04 7.368404e-04 -8.255256e-04)
101           	(4.533329e-02 5.918689e-02 -6.109060e-02)	(4.476926e-02 5.845766e-02 -6.026189e-02)	(5.640264e-04 7.292315e-04 -8.287099e-04)
102           	(4.564928e-02 5.968472e-02 -5.994506e-02)	(4.508455e-02 5.896064e-02 -5.911610e-02)	(5.647306e-04 7.240820e-04 -8.289615e-04)
103           	(4.581543e-02 6.014657e-02 -5.924979e-02)	(4.525026e-02 5.942579e-02 -5.842185e-02)	(5.651736e-04 7.207756e-04 -8.279370e-04)
104           	(4.599629e-02 6.074460e-02 -5.856907e-02)	(4.542998e-02 6.002487e-02 -5.774372e-02)	(5.663091e-04 7.197277e-04 -8.253509e-04)
105           	(4.621444e-02 6.187781e-02 -5.746450e-02)	(4.564589e-02 6.115670e-02 -5.664435e-02)	(5.685449e-04 7.211095e-04 -8.201568e-04)
106           	(4.640564e-02 6.259487e-02 -5.701920e-02)	(4.583414e-02 6.187145e-02 -5.620444e-02)	(5.715011e-04 7.234188e-04 -8.147578e-04)
107           	(4.652611e-02 6.383593e-02 -5.629614e-02)	(4.595070e-02 6.310753e-02 -5.548824e-02)	(5.754118e-04 7.283955e-04 -8.078987e-04)
108           	(4.666642e-02 6.449436e-02 -5.615080e-02)	(4.608680e-02 6.376052e-02 -5.534944e-02)	(5.796164e-04 7.338440e-04 -8.013623e-04)
109           	(4.674841e-02 6.512221e-02 -5.612475e-02)	(4.616405e-02 6.438229e-02 -5.532957e-02)	(5.843684e-04 7.399189e-04 -7.951851e-04)
110           	(4.674914e-02 6.570942e-02 -5.622537e-02)	(4.616004e-02 6.496329e-02 -5.543590e-02)	(5.890953e-04 7.461308e-04 -7.894654e-04)
111           	(4.640397e-02 6.657635e-02 -5.649122e-02)	(4.581079e-02 6.582304e-02 -5.570775e-02)	(5.931848e-04 7.533078e-04 -7.834682e-04)
112           	(4.624931e-02 6.696121e-02 -5.688079e-02)	(4.565268e-02 6.620128e-02 -5.610240e-02)	(5.966370e-04 7.599216e-04 -7.783876e-04)
113           	(4.598987e-02 6.723909e-02 -5.741770e-02)	(4.539034e-02 6.647329e-02 -5.664310e-02)	(5.995316e-04 7.657970e-04 -7.745994e-04)
114           	(4.561911e-02 6.740842e-02 -5.809652e-02)	(4.501754e-02 6.663771e-02 -5.732397e-02)	(6.015731e-04 7.707098e-04 -7.725562e-04)
115           	(4.514087e-02 6.746838e-02 -5.889929e-02)	(4.453817e-02 6.669368e-02 -5.812683e-02)	(6.026957e-04 7.747005e-04 -7.724569e-04)
116           	(4.415062e-02 6.739633e-02 -6.020817e-02)	(4.354839e-02 6.661868e-02 -5.943336e-02)	(6.022231e-04 7.776494e-04 -7.748092e-04)
117           	(4.363836e-02 6.727416e-02 -6.101705e-02)	(4.303703e-02 6.649446e-02 -6.023830e-02)	(6.013294e-04 7.797050e-04 -7.787564e-04)
118           	(4.308973e-02 6.705995e-02 -6.179368e-02)	(4.249045e-02 6.627919e-02 -6.100950e-02)	(5.992855e-04 7.807648e-04 -7.841808e-04)
119           	(4.250138e-02 6.675266e-02 -6.250287e-02)	(4.190517e-02 6.597209e-02 -6.171222e-02)	(5.962136e-04 7.805621e-04 -7.906524e-04)
120           	(4.152492e-02 6.611429e-02 -6.338907e-02)	(4.093346e-02 6.533572e-02 -6.259075e-02)	(5.914630e-04 7.785718e-04 -7.983243e-04)
121           	(4.099192e-02 6.570465e-02 -6.377288e-02)	(4.040558e-02 6.492893e-02 -6.296713e-02)	(5.863339e-04 7.757201e-04 -8.057490e-04)
122           	(4.045368e-02 6.522926e-02 -6.397647e-02)	(3.987313e-02 6.445730e-02 -6.316393e-02)	(5.805510e-04 7.719588e-04 -8.125449e-04)
123           	(3.961944e-02 6.430921e-02 -6.397236e-02)	(3.904590e-02 6.354257e-02 -6.315401e-02)	(5.735376e-04 7.666366e-04 -8.183510e-04)
124           	(3.915993e-02 6.380498e-02 -6.383142e-02)	(3.859351e-02 6.304384e-02 -6.300855e-02)	(5.664213e-04 7.611414e-04 -8.228691e-04)
125           	(3.870194e-02 6.326718e-02 -6.353181e-02)	(3.814281e-02 6.251192e-02 -6.270603e-02)	(5.591299e-04 7.552529e-04 -8.257828e-04)
126           	(3.798835e-02 6.226181e-02 -6.274086e-02)	(3.743721e-02 6.151346e-02 -6.191382e-02)	(5.511479e-04 7.483460e-04 -8.270379e-04)
127           	(3.759716e-02 6.178957e-02 -6.231453e-02)	(3.705380e-02 6.104739e-02 -6.148724e-02)	(5.433618e-04 7.421784e-04 -8.272830e-04)
128           	(3.696757e-02 6.095088e-02 -6.139539e-02)	(3.643259e-02 6.021509e-02 -6.057009e-02)	(5.349783e-04 7.357983e-04 -8.253049e-04)
129           	(3.663704e-02 6.059338e-02 -6.100334e-02)	(3.611014e-02 5.986246e-02 -6.018076e-02)	(5.268959e-04 7.309216e-04 -8.225872e-04)
130           	(3.628942e-02 6.026088e-02 -6.060332e-02)	(3.577037e-02 5.953399e-02 -5.978435e-02)	(5.190465e-04 7.268913e-04 -8.189690e-04)
131           	(3.564708e-02 5.967421e-02 -5.976163e-02)	(3.513645e-02 5.895112e-02 -5.894745e-02)	(5.106349e-04 7.230937e-04 -8.141839e-04)
132           	(3.527675e-02 5.942117e-02 -5.942674e-02)	(3.477425e-02 5.870095e-02 -5.861724e-02)	(5.024985e-04 7.202188e-04 -8.094959e-04)
133           	(3.461582e-02 5.899984e-02 -5.875451e-02)	(3.412184e-02 5.828293e-02 -5.795020e-02)	(4.939884e-04 7.169088e-04 -8.043132e-04)
134           	(3.423000e-02 5.883050e-02 -5.851599e-02)	(3.374421e-02 5.811672e-02 -5.771655e-02)	(4.857942e-04 7.137789e-04 -7.994447e-04)
135           	(3.358973e-02 5.859142e-02 -5.805925e-02)	(3.311240e-02 5.788116e-02 -5.726494e-02)	(4.773254e-04 7.102637e-04 -7.943125e-04)
136           	(3.321665e-02 5.850718e-02 -5.793454e-02)	(3.274740e-02 5.780016e-02 -5.714500e-02)	(4.692537e-04 7.070203e-04 -7.895357e-04)
137           	(3.266261e-02 5.844841e-02 -5.772495e-02)	(3.220133e-02 5.774462e-02 -5.693997e-02)	(4.612860e-04 7.037964e-04 -7.849765e-04)
138           	(3.234822e-02 5.844331e-02 -5.771120e-02)	(3.189421e-02 5.774276e-02 -5.693029e-02)	(4.540124e-04 7.005513e-04 -7.809104e-04)
139           	(3.196691e-02 5.851490e-02 -5.770757e-02)	(3.151967e-02 5.781729e-02 -5.693011e-02)	(4.472437e-04 6.976096e-04 -7.774628e-04)
140           	(3.172141e-02 5.862009e-02 -5.775558e-02)	(3.128026e-02 5.792484e-02 -5.698117e-02)	(4.411561e-04 6.952464e-04 -7.744014e-04)
141           	(3.161210e-02 5.866488e-02 -5.779437e-02)	(3.117630e-02 5.797180e-02 -5.702278e-02)	(4.357988e-04 6.930861e-04 -7.715910e-04)
142           	(3.163556e-02 5.877950e-02 -5.785136e-02)	(3.120414e-02 5.808809e-02 -5.708189e-02)	(4.314260e-04 6.914067e-04 -7.694722e-04)
143           	(3.179716e-02 5.888182e-02 -5.784651e-02)	(3.136909e-02 5.819170e-02 -5.707843e-02)	(4.280723e-04 6.901133e-04 -7.680782e-04)
144           	(3.195535e-02 5.892728e-02 -5.775681e-02)	(3.152979e-02 5.823851e-02 -5.698968e-02)	(4.255600e-04 6.887644e-04 -7.671346e-04)
145           	(3.239708e-02 5.897733e-02 -5.758466e-02)	(3.197288e-02 5.829001e-02 -5.681783e-02)	(4.242083e-04 6.873132e-04 -7.668322e-04)
146           	(3.295607e-02 5.897973e-02 -5.732027e-02)	(3.253243e-02 5.829404e-02 -5.655312e-02)	(4.236358e-04 6.856938e-04 -7.671460e-04)
147           	(3.336240e-02 5.898635e-02 -5.704229e-02)	(3.293916e-02 5.830258e-02 -5.627466e-02)	(4.232448e-04 6.837612e-04 -7.676280e-04)
148           	(3.412061e-02 5.887948e-02 -5.658815e-02)	(3.369716e-02 5.819826e-02 -5.581991e-02)	(4.234539e-04 6.812150e-04 -7.682351e-04)
149           	(3.489416e-02 5.874710e-02 -5.608111e-02)	(3.446998e-02 5.806892e-02 -5.531221e-02)	(4.241868e-04 6.781829e-04 -7.689079e-04)
150           	(3.539450e-02 5.871490e-02 -5.569683e-02)	(3.496949e-02 5.804000e-02 -5.492744e-02)	(4.250072e-04 6.749010e-04 -7.693820e-04)
151           	(3.616967e-02 5.854040e-02 -5.508494e-02)	(3.574334e-02 5.786932e-02 -5.431537e-02)	(4.263286e-04 6.710756e-04 -7.695669e-04)
152           	(3.687208e-02 5.838090e-02 -5.449456e-02)	(3.644416e-02 5.771387e-02 -5.372466e-02)	(4.279226e-04 6.670245e-04 -7.699008e-04)
153           	(3.730153e-02 5.834801e-02 -5.412474e-02)	(3.687216e-02 5.768503e-02 -5.335437e-02)	(4.293636e-04 6.629831e-04 -7.703656e-04)
154           	(3.785772e-02 5.821953e-02 -5.354137e-02)	(3.742694e-02 5.756066e-02 -5.277078e-02)	(4.307815e-04 6.588656e-04 -7.705908e-04)
155           	(3.830784e-02 5.810091e-02 -5.302221e-02)	(3.787558e-02 5.744571e-02 -5.225159e-02)	(4.322618e-04 6.552032e-04 -7.706214e-04)
156           	(3.856160e-02 5.806854e-02 -5.273034e-02)	(3.812811e-02 5.741646e-02 -5.195980e-02)	(4.334925e-04 6.520741e-04 -7.705420e-04)
157           	(3.878383e-02 5.794156e-02 -5.227603e-02)	(3.834952e-02 5.729230e-02 -5.150602e-02)	(4.343037e-04 6.492585e-04 -7.700064e-04)
158           	(3.888286e-02 5.781250e-02 -5.190525e-02)	(3.844785e-02 5.716560e-02 -5.113610e-02)	(4.350146e-04 6.469040e-04 -7.691519e-04)
159           	(3.889244e-02 5.774589e-02 -5.172045e-02)	(3.845712e-02 5.710108e-02 -5.095217e-02)	(4.353190e-04 6.448107e-04 -7.682778e-04)
160           	(3.872789e-02 5.758280e-02 -5.144114e-02)	(3.829306e-02 5.694023e-02 -5.067380e-02)	(4.348329e-04 6.425657e-04 -7.673359e-04)
161           	(3.845740e-02 5.740574e-02 -5.124704e-02)	(3.802351e-02 5.676523e-02 -5.048055e-02)	(4.338852e-04 6.405011e-04 -7.664924e-04)
162           	(3.822941e-02 5.728013e-02 -5.115847e-02)	(3.779694e-02 5.664162e-02 -5.039264e-02)	(4.324706e-04 6.385193e-04 -7.658252e-04)
163           	(3.772002e-02 5.704299e-02 -5.107708e-02)	(3.728987e-02 5.640678e-02 -5.031200e-02)	(4.301522e-04 6.362150e-04 -7.650764e-04)
164           	(3.714035e-02 5.678569e-02 -5.107517e-02)	(3.671299e-02 5.615179e-02 -5.031093e-02)	(4.273627e-04 6.339023e-04 -7.642456e-04)
165           	(3.650977e-02 5.650961e-02 -5.114749e-02)	(3.608559e-02 5.587821e-02 -5.038434e-02)	(4.241746e-04 6.313936e-04 -7.631528e-04)
166           	(3.605569e-02 5.629562e-02 -5.118335e-02)	(3.563469e-02 5.566677e-02 -5.042155e-02)	(4.210041e-04 6.288454e-04 -7.618005e-04)
167           	(3.525771e-02 5.594716e-02 -5.137894e-02)	(3.484032e-02 5.532121e-02 -5.061880e-02)	(4.173901e-04 6.259464e-04 -7.601410e-04)
168           	(3.443536e-02 5.558527e-02 -5.163065e-02)	(3.402160e-02 5.496216e-02 -5.087250e-02)	(4.137563e-04 6.231077e-04 -7.581498e-04)
169           	(3.361645e-02 5.521639e-02 -5.192593e-02)	(3.320636e-02 5.459611e-02 -5.117016e-02)	(4.100873e-04 6.202805e-04 -7.557703e-04)
170           	(3.305708e-02 5.494253e-02 -5.204708e-02)	(3.265038e-02 5.432493e-02 -5.129408e-02)	(4.066953e-04 6.175979e-04 -7.529993e-04)
171           	(3.219582e-02 5.452865e-02 -5.246024e-02)	(3.179280e-02 5.391393e-02 -5.170995e-02)	(4.030189e-04 6.147222e-04 -7.502870e-04)
172           	(3.137965e-02 5.412109e-02 -5.289109e-02)	(3.098046e-02 5.350924e-02 -5.214353e-02)	(3.991902e-04 6.118469e-04 -7.475568e-04)
173           	(3.063125e-02 5.373052e-02 -5.331799e-02)	(3.023612e-02 5.312158e-02 -5.257288e-02)	(3.951281e-04 6.089344e-04 -7.451119e-04)
174           	(3.015705e-02 5.347382e-02 -5.345344e-02)	(2.976594e-02 5.286760e-02 -5.271062e-02)	(3.911070e-04 6.062226e-04 -7.428228e-04)
175           	(2.948719e-02 5.308007e-02 -5.394736e-02)	(2.910075e-02 5.247669e-02 -5.320589e-02)	(3.864378e-04 6.033808e-04 -7.414684e-04)
176           	(2.890210e-02 5.270938e-02 -5.442468e-02)	(2.852076e-02 5.210883e-02 -5.368403e-02)	(3.813355e-04 6.005452e-04 -7.406562e-04)
177           	(2.856498e-02 5.248843e-02 -5.455329e-02)	(2.818870e-02 5.189051e-02 -5.381319e-02)	(3.762723e-04 5.979185e-04 -7.401028e-04)
178           	(2.810243e-02 5.212493e-02 -5.508373e-02)	(2.773170e-02 5.152988e-02 -5.434310e-02)	(3.707353e-04 5.950427e-04 -7.406324e-04)
179           	(2.786185e-02 5.192213e-02 -5.524129e-02)	(2.749648e-02 5.132988e-02 -5.450009e-02)	(3.653622e-04 5.922515e-04 -7.411995e-04)
180           	(2.752399e-02 5.156753e-02 -5.583859e-02)	(2.716413e-02 5.097838e-02 -5.509564e-02)	(3.598624e-04 5.891444e-04 -7.429498e-04)
181           	(2.738213e-02 5.138683e-02 -5.605250e-02)	(2.702738e-02 5.080068e-02 -5.530770e-02)	(3.547500e-04 5.861428e-04 -7.447954e-04)
182           	(2.716480e-02 5.105463e-02 -5.669840e-02)	(2.681495e-02 5.047182e-02 -5.595058e-02)	(3.498433e-04 5.828106e-04 -7.478200e-04)
183           	(2.710665e-02 5.089760e-02 -5.697778e-02)	(2.676120e-02 5.031800e-02 -5.622685e-02)	(3.454513e-04 5.795981e-04 -7.509280e-04)
184           	(2.707032e-02 5.073701e-02 -5.731812e-02)	(2.672875e-02 5.016061e-02 -5.656353e-02)	(3.415736e-04 5.763976e-04 -7.545943e-04)
185           	(2.695301e-02 5.039842e-02 -5.804309e-02)	(2.661522e-02 4.982558e-02 -5.728369e-02)	(3.377928e-04 5.728386e-04 -7.593941e-04)
186           	(2.694871e-02 5.025260e-02 -5.840755e-02)	(2.661450e-02 4.968307e-02 -5.764300e-02)	(3.342069e-04 5.695343e-04 -7.645562e-04)
187           	(2.694205e-02 5.010316e-02 -5.878127e-02)	(2.661124e-02 4.953680e-02 -5.801080e-02)	(3.308107e-04 5.663637e-04 -7.704724e-04)
188           	(2.692429e-02 4.994744e-02 -5.915449e-02)	(2.659689e-02 4.938406e-02 -5.837743e-02)	(3.274082e-04 5.633814e-04 -7.770611e-04)
189           	(2.681093e-02 4.962796e-02 -5.970177e-02)	(2.648712e-02 4.906772e-02 -5.891706e-02)	(3.238109e-04 5.602379e-04 -7.847029e-04)
190           	(2.677338e-02 4.948763e-02 -5.999650e-02)	(2.645292e-02 4.893016e-02 -5.920412e-02)	(3.204686e-04 5.574730e-04 -7.923762e-04)
191           	(2.671687e-02 4.934946e-02 -6.024555e-02)	(2.639957e-02 4.879451e-02 -5.944530e-02)	(3.172986e-04 5.549547e-04 -8.002489e-04)
192           	(2.663743e-02 4.921334e-02 -6.044713e-02)	(2.632306e-02 4.866051e-02 -5.963906e-02)	(3.143782e-04 5.528309e-04 -8.080706e-04)
193           	(2.646145e-02 4.899540e-02 -6.061373e-02)	(2.614974e-02 4.844440e-02 -5.979799e-02)	(3.117159e-04 5.510062e-04 -8.157384e-04)
194           	(2.635171e-02 4.888867e-02 -6.071500e-02)	(2.604211e-02 4.833897e-02 -5.989226e-02)	(3.096014e-04 5.497013e-04 -8.227448e-04)
195           	(2.622161e-02 4.879583e-02 -6.076819e-02)	(2.591351e-02 4.824723e-02 -5.993931e-02)	(3.081081e-04 5.485972e-04 -8.288778e-04)
196           	(2.606972e-02 4.871907e-02 -6.077161e-02)	(2.576234e-02 4.817137e-02 -5.993768e-02)	(3.073761e-04 5.477049e-04 -8.339342e-04)
197           	(2.589775e-02 4.866244e-02 -6.072525e-02)	(2.559040e-02 4.811538e-02 -5.988727e-02)	(3.073499e-04 5.470549e-04 -8.379780e-04)
198           	(2.564649e-02 4.866359e-02 -6.046619e-02)	(2.533837e-02 4.811668e-02 -5.962548e-02)	(3.081153e-04 5.469122e-04 -8.407082e-04)
199           	(2.547615e-02 4.865885e-02 -6.036942e-02)	(2.516674e-02 4.811190e-02 -5.952674e-02)	(3.094127e-04 5.469486e-04 -8.426812e-04)
200           	(2.531373e-02 4.868658e-02 -6.024020e-02)	(2.500269e-02 4.813949e-02 -5.939634e-02)	(3.110405e-04 5.470918e-04 -8.438615e-04)
201           	(2.516723e-02 4.874955e-02 -6.007296e-02)	(2.485418e-02 4.820207e-02 -5.922863e-02)	(3.130514e-04 5.474796e-04 -8.443353e-04)
202           	(2.504589e-02 4.884960e-02 -5.986257e-02)	(2.473057e-02 4.830145e-02 -5.901839e-02)	(3.153193e-04 5.481465e-04 -8.441807e-04)
203           	(2.496113e-02 4.898745e-02 -5.960478e-02)	(2.464341e-02 4.843835e-02 -5.876133e-02)	(3.177186e-04 5.491010e-04 -8.434496e-04)
204           	(2.492415e-02 4.916105e-02 -5.929548e-02)	(2.460402e-02 4.861075e-02 -5.845331e-02)	(3.201308e-04 5.502988e-04 -8.421632e-04)
205           	(2.494338e-02 4.936446e-02 -5.892965e-02)	(2.462095e-02 4.881278e-02 -5.808928e-02)	(3.224348e-04 5.516782e-04 -8.403772e-04)
206           	(2.502437e-02 4.958911e-02 -5.850173e-02)	(2.469988e-02 4.903593e-02 -5.766354e-02)	(3.244901e-04 5.531769e-04 -8.381885e-04)
207           	(2.516916e-02 4.982407e-02 -5.800802e-02)	(2.484299e-02 4.926933e-02 -5.717233e-02)	(3.261682e-04 5.547386e-04 -8.356929e-04)
208           	(2.537647e-02 5.005646e-02 -5.744584e-02)	(2.504906e-02 4.950018e-02 -5.661284e-02)	(3.274053e-04 5.562819e-04 -8.330077e-04)
209           	(2.564247e-02 5.027627e-02 -5.681220e-02)	(2.531426e-02 4.971855e-02 -5.598201e-02)	(3.282106e-04 5.577191e-04 -8.301889e-04)
210           	(2.595991e-02 5.047404e-02 -5.610758e-02)	(2.563131e-02 4.991506e-02 -5.528030e-02)	(3.285976e-04 5.589859e-04 -8.272856e-04)