# k  POINT_DATA 27219
# x  y  z  k
-0.0130568 0 4.20224e-06 1.72035e-06
0.0130568 0 4.20467e-06 1.5777e-09
0.0130538 0 6.66496e-06 1.55347e-09
-0.0130538 0 6.66145e-06 1.70923e-06
-0.0130538 0 0.000644966 2.31306e-06
0.0130538 0 0.000645285 1.81733e-09
-0.0130538 0 0.00065941 2.35853e-06
0.0130538 0 0.00065974 1.85301e-09
-0.0130538 0 0.000674665 2.36676e-06
0.0130538 0 0.000675 1.84053e-09
-0.0130603 8.47033e-22 0.000649852 2.32409e-06
0.0130603 0 0.000650175 1.82345e-09
-0.0130603 0 0.000668993 2.36019e-06
0.0130603 0 0.000669326 1.83882e-09
-0.0130709 5.0822e-21 0.000658297 2.36004e-06
0.0130709 -1.43996e-20 0.000658629 1.90528e-09
-0.0130538 0 0.00133823 2.68878e-06
0.0130538 0 0.00133856 2.0639e-09
-0.0130538 -1.69407e-21 0.00135482 2.70169e-06
0.0130538 0 0.00135516 2.08933e-09
-0.0130538 -1.69407e-21 0.00137229 2.65854e-06
0.0130538 1.69407e-21 0.00137264 2.05875e-09
-0.0130609 0 0.00134178 2.68634e-06
0.0130609 0 0.00134211 2.06531e-09
-0.0130605 0 0.00136344 2.66423e-06
0.0130605 0 0.00136379 2.06134e-09
-0.0130744 8.47033e-21 0.00134763 2.617e-06
0.0130744 5.0822e-21 0.00134797 2.01285e-09
-0.0130556 0 0.00208219 3.2634e-06
0.0130566 4.23516e-22 0.0020858 2.59857e-09
-0.0130676 -4.23516e-22 0.00208096 3.30026e-06
0.0130676 -4.23516e-22 0.00208096 2.6163e-09
-0.0133442 0 8.05854e-08 2.28266e-06
0.0133442 -2.03288e-20 8.05851e-08 2.80411e-09
-0.0133452 0 0.000326595 2.24504e-06
0.0133452 4.51751e-21 0.00032676 2.6655e-09
-0.0133372 3.38813e-21 0.000960076 2.79013e-06
0.0133372 -3.38813e-21 0.000960432 2.11503e-09
-0.0132973 -4.51751e-21 0.00155434 2.2659e-06
0.0132973 4.51751e-21 0.00155458 1.91014e-09
-0.0132406 3.38813e-21 0.00216285 4.1449e-06
0.0132406 3.38813e-21 0.00216285 3.20556e-09
-0.0132805 3.38813e-21 0.00206436 4.05771e-06
0.0132806 -3.38813e-21 0.00206428 2.98865e-09
0.0133175 2.71051e-20 0.00219404 4.20007e-09
-0.0133175 2.71051e-20 0.00219405 4.41198e-06
-0.0133831 0 0.00186926 3.6585e-06
0.0133831 0 0.00186938 2.77552e-09
-0.0135632 2.03288e-20 9.24943e-08 4.63542e-06
0.0135632 -1.35525e-20 9.24941e-08 7.77629e-09
-0.0134965 4.51751e-21 0.00146628 1.63609e-06
0.0134965 0 0.00146652 1.18557e-09
-0.0136117 -6.77626e-21 8.70578e-05 5.16585e-06
0.0136117 6.77626e-21 8.70948e-05 8.82029e-09
-0.0136152 0 8.46271e-08 5.14588e-06
0.0136152 -1.35525e-20 8.46272e-08 8.7758e-09
-0.0136416 0 8.06399e-08 5.31658e-06
0.0136416 1.35525e-20 8.06405e-08 9.1334e-09
-0.0136355 4.06576e-21 0.000679005 3.14797e-06
0.0136355 -2.93638e-21 0.00067928 4.33554e-09
0.0134812 0 0.00226051 5.43883e-09
-0.0134812 1.35525e-20 0.00226053 5.45806e-06
-0.0136197 2.07052e-21 0.00119016 1.45879e-06
0.0136197 -1.50584e-21 0.00119046 1.07744e-09
-0.0136061 1.50584e-21 0.00162993 1.94098e-06
0.0136061 -4.51751e-21 0.00163012 1.54556e-09
0.0137235 -6.77626e-21 7.39517e-08 1.07937e-08
-0.0137235 1.35525e-20 7.39504e-08 6.21854e-06
0.0137252 0 9.16503e-05 1.09319e-08
-0.0137252 0 9.16307e-05 6.28917e-06
-0.0137102 2.25875e-22 0.00202489 5.63898e-06
0.0137103 0 0.00202497 5.59616e-09
-0.0136752 -6.77626e-21 0.00233929 5.89733e-06
0.0136753 6.77626e-21 0.00233932 6.46611e-09
-0.0137679 0 0.00237695 5.90655e-06
0.013768 0 0.00237697 6.71757e-09
0.0139849 1.35525e-20 0.000399215 1.33743e-08
-0.0139849 -2.71051e-20 0.000399115 7.49451e-06
-0.0139861 4.51751e-21 0.00091313 2.02176e-06
0.0139861 4.51751e-21 0.000913297 2.6689e-09
-0.0139546 -4.51751e-21 0.00150392 1.28242e-06
0.0139546 -1.35525e-20 0.00150406 1.12819e-09
-0.0140935 -1.35525e-20 0.000126399 9.30805e-06
0.0140935 -1.35525e-20 0.000126419 1.66469e-08
-0.0141016 -2.71051e-20 1.51491e-08 9.29543e-06
0.0141016 -2.71051e-20 1.51471e-08 1.66166e-08
-0.013961 -8.47033e-22 0.00245528 6.30344e-06
0.0139612 -3.38813e-21 0.00245534 7.48839e-09
-0.0141702 0 0.000612168 5.6534e-06
0.0141702 2.71051e-20 0.000612269 9.25144e-09
-0.0139759 0 0.00246133 6.32499e-06
0.0139761 -8.47033e-22 0.00246136 7.52735e-09
-0.0139804 -8.47033e-22 0.00244924 6.32461e-06
0.0139805 -2.5411e-21 0.00244934 7.52694e-09
-0.0141583 0 0.00121281 1.30637e-06
0.0141583 0 0.00121293 1.3423e-09
-0.0142138 0 6.98128e-09 1.0127e-05
0.0142138 1.35525e-20 6.9805e-09 1.77328e-08
-0.0141062 -2.71051e-20 0.00185466 2.89597e-06
0.0141063 0 0.00185473 2.88194e-09
-0.0140936 -2.25875e-21 0.00222221 5.96669e-06
0.0140937 0 0.00222227 7.04671e-09
0.0143442 2.71051e-20 6.46171e-09 2.05111e-08
-0.0143442 -1.35525e-20 6.46231e-09 1.16211e-05
-0.0141439 6.77626e-21 0.00239274 6.24488e-06
0.014144 0 0.0023928 7.46305e-09
0.014345 0 0.000135094 2.06862e-08
-0.014345 1.35525e-20 0.000135094 1.17208e-05
-0.0141783 1.35525e-20 0.00254352 6.20011e-06
0.0141784 0 0.00254356 7.42889e-09
0.0144148 2.71051e-21 0.000393106 2.03177e-08
-0.0144148 -8.13152e-21 0.000393046 1.16378e-05
-0.0142931 -6.77626e-21 0.00252723 6.03997e-06
0.0142932 -6.77626e-21 0.00252727 7.03779e-09
-0.0142857 6.77626e-21 0.00258704 5.99554e-06
0.0142858 0 0.00258706 6.90994e-09
-0.0145008 4.51751e-21 0.000915437 2.9529e-06
0.0145009 -1.12938e-20 0.000915525 4.59315e-09
-0.0143708 1.69407e-21 0.00229753 5.09817e-06
0.0143709 0 0.00229758 5.9912e-09
-0.0144716 -9.03502e-21 0.00154756 1.33967e-06
0.0144716 0 0.00154763 1.3341e-09
-0.0144657 4.51751e-21 0.00205594 2.77555e-06
0.0144658 1.807e-20 0.002056 2.94503e-09
-0.0146705 -2.71051e-20 0.000150455 1.51365e-05
0.0146705 0 0.000150466 2.59929e-08
-0.01468 0 6.30408e-09 1.51336e-05
0.01468 0 6.30387e-09 2.59656e-08
-0.0144708 2.71051e-20 0.00266196 6.03187e-06
0.014471 0 0.00266201 6.85104e-09
-0.0145058 5.42101e-21 0.00250608 6.07979e-06
0.0145059 -1.35525e-20 0.00250612 7.10002e-09
0.0148234 -1.35525e-20 5.71489e-09 2.61265e-08
-0.0148234 -2.71051e-20 5.71495e-09 1.60167e-05
-0.0148746 4.51751e-21 0.000558343 1.04607e-05
0.0148746 2.25875e-21 0.000558392 1.68178e-08
-0.0147687 0 0.00191044 2.46954e-06
0.0147687 -2.71051e-20 0.00191049 2.74205e-09
-0.0146404 0 0.00273067 7.44761e-06
0.0146406 2.71051e-20 0.00273071 1.00902e-08
-0.0148827 1.16165e-20 0.0011685 2.11649e-06
0.0148828 0 0.00116856 2.7685e-09
0.0149747 1.35525e-20 4.96058e-09 2.7097e-08
-0.0149747 0 4.96059e-09 1.72726e-05
0.0149752 -1.35525e-20 0.000142276 2.70773e-08
-0.0149752 1.35525e-20 0.000142271 1.72497e-05
-0.0148162 9.03502e-21 0.00236391 4.67937e-06
0.0148163 2.25875e-21 0.00236395 5.85594e-09
-0.0150223 -4.51751e-21 0.00156468 1.44257e-06
0.0150223 9.03502e-21 0.00156474 1.62624e-09
-0.0151425 -2.71051e-20 0.000304852 1.86415e-05
0.0151425 2.71051e-20 0.000304883 2.87593e-08
-0.014892 -6.77626e-21 0.00283336 7.51805e-06
0.0148921 6.77626e-21 0.0028334 1.13497e-08
-0.0151422 0 0.000920375 2.84687e-06
0.0151422 2.71051e-20 0.000920434 3.97399e-09
-0.015042 1.6263e-20 0.00210477 1.95593e-06
0.0150421 1.0842e-20 0.00210482 2.16308e-09
-0.0150532 9.03502e-21 0.00270351 7.51978e-06
0.0150534 0 0.00270357 1.11029e-08
-0.0150254 -2.03288e-20 0.00288744 7.69933e-06
0.0150256 3.38813e-20 0.00288752 1.18101e-08
-0.0153086 1.35525e-20 2.24178e-09 1.97513e-05
0.0153086 0 2.24177e-09 2.95634e-08
-0.0153122 0 0.000140816 1.97514e-05
0.0153122 -1.35525e-20 0.000140822 2.95665e-08
0.0154577 0 1.48792e-09 3.03448e-08
-0.0154577 0 1.48787e-09 2.04396e-05
-0.0154655 -4.51751e-21 0.00060398 1.21105e-05
0.0154655 -9.03502e-21 0.000604018 1.74852e-08
-0.0154631 2.25875e-21 0.00123926 2.2348e-06
0.0154631 1.35525e-20 0.00123931 2.66667e-09
-0.0152765 0 0.0029899 8.06802e-06
0.0152766 -2.71051e-20 0.00298996 1.2853e-08
-0.0154691 -2.25875e-21 0.00188066 1.28605e-06
0.0154691 -4.51751e-21 0.00188071 1.2563e-09
0.0156043 -1.35525e-20 1.30288e-09 3.12894e-08
-0.0156043 0 1.30283e-09 2.15403e-05
0.0156046 1.35525e-20 0.000132291 3.12613e-08
-0.0156046 -1.35525e-20 0.000132288 2.15051e-05
-0.0153943 1.35525e-20 0.00303866 7.34677e-06
0.0153944 0 0.00303871 1.1485e-08
-0.0154266 -1.35525e-20 0.00293734 7.39529e-06
0.0154267 1.35525e-20 0.00293741 1.14501e-08
-0.0155042 2.63521e-21 0.00256117 4.77274e-06
0.0155043 -3.76459e-21 0.00256122 6.68424e-09
0.0157872 2.71051e-20 0.000299894 3.21161e-08
-0.0157872 2.71051e-20 0.000299869 2.268e-05
-0.0157972 2.71051e-20 0.000914956 3.94556e-06
0.0157972 2.71051e-20 0.000915008 4.50055e-09
-0.015799 0 0.00156064 1.13885e-06
0.015799 -2.71051e-20 0.00156069 1.16138e-09
-0.0156185 -6.77626e-21 0.00313206 7.20351e-06
0.0156185 6.77626e-21 0.00313207 1.11435e-08
-0.0158092 2.71051e-20 0.00221249 1.37078e-06
0.0158093 0 0.00221254 1.14159e-09
-0.0159653 -2.71051e-20 5.84434e-10 2.3534e-05
0.0159653 2.71051e-20 5.84428e-10 3.29998e-08
-0.0159712 0 0.000124936 2.35316e-05
0.0159712 0 0.000124938 3.29997e-08
-0.015693 0 0.00316295 7.29311e-06
0.0156931 0 0.00316301 1.14397e-08
-0.0157206 1.35525e-20 0.0031026 7.3788e-06
0.0157208 0 0.00310257 1.1561e-08
-0.0158002 4.51751e-21 0.00293364 7.1025e-06
0.0158003 -3.01167e-21 0.0029337 1.09632e-08
-0.0157817 0 0.00319963 7.17171e-06
0.015782 0 0.00319974 1.13501e-08
0.0161034 -1.35525e-20 4.04844e-10 3.31547e-08
-0.0161034 -1.35525e-20 4.04848e-10 2.36827e-05
-0.016119 -4.51751e-21 0.000594151 1.42974e-05
0.016119 0 0.000594174 1.92593e-08
-0.01613 4.51751e-21 0.00122518 2.90303e-06
0.01613 2.25875e-21 0.00122521 3.01451e-09
0.0162343 -1.35525e-20 3.59814e-10 3.38626e-08
-0.0162343 -2.71051e-20 3.59814e-10 2.4314e-05
0.0162345 -1.35525e-20 0.000113277 3.38426e-08
-0.0162345 -1.35525e-20 0.000113279 2.42934e-05
-0.0161354 9.03502e-21 0.00188647 1.3436e-06
0.0161355 -4.51751e-21 0.00188651 1.1558e-09
-0.0161281 2.25875e-21 0.00255569 3.11538e-06
0.0161282 0 0.00255574 3.97563e-09
-0.015998 1.35525e-20 0.0032882 6.80517e-06
0.0159982 2.71051e-20 0.00328826 1.06579e-08
-0.0160357 0 0.00323052 6.89141e-06
0.0160358 0 0.00323061 1.08348e-08
-0.016091 -1.35525e-20 0.00332623 7.8379e-06
0.0160912 1.35525e-20 0.00332628 1.32725e-08
0.0164377 -2.71051e-20 0.000292336 3.47459e-08
-0.0164377 -5.42101e-20 0.000292322 2.51585e-05
0.0164553 0 0.000897692 4.92314e-09
-0.0164553 5.42101e-20 0.00089766 4.92591e-06
-0.0162072 3.61401e-21 0.00298944 5.5234e-06
0.0162073 0 0.00298952 8.53012e-09
-0.016466 2.71051e-20 0.00154116 1.53885e-06
0.016466 0 0.00154119 1.40606e-09
-0.016253 -1.35525e-20 0.00328154 8.33784e-06
0.016253 -1.35525e-20 0.00328162 1.41648e-08
-0.0162529 1.35525e-20 0.00339231 8.5621e-06
0.016253 -1.35525e-20 0.00339232 1.47196e-08
-0.0164659 0 0.00220933 1.31862e-06
0.016466 2.71051e-20 0.00220938 9.00747e-10
-0.0166389 0 1.04271e-10 2.55397e-05
0.0166389 1.35525e-20 1.04262e-10 3.47043e-08
-0.0166447 0 0.000100566 2.55381e-05
0.0166447 1.35525e-20 0.000100563 3.4698e-08
-0.0165069 0 0.00278852 2.06859e-06
0.016507 2.71051e-20 0.00278859 2.2643e-09
0.0167551 0 6.18359e-11 3.4715e-08
-0.0167551 0 6.18413e-11 2.53205e-05
-0.0167741 4.51751e-21 0.000577078 1.56158e-05
0.0167741 2.25875e-21 0.000577088 2.00749e-08
-0.0164731 0 0.00325216 8.27176e-06
0.0164733 0 0.00325224 1.4229e-08
-0.0167929 -1.12938e-21 0.00119995 3.61691e-06
0.0167929 2.25875e-21 0.00119996 3.4468e-09
-0.0164937 0 0.00349064 9.34242e-06
0.016494 1.35525e-20 0.00349077 1.72489e-08
0.0168627 -1.35525e-20 5.62475e-11 3.42506e-08
-0.0168627 -1.35525e-20 5.62517e-11 2.5665e-05
0.0168631 1.35525e-20 9.00315e-05 3.42536e-08
-0.0168631 -1.35525e-20 9.00368e-05 2.56621e-05
-0.0167974 1.12938e-21 0.0018671 1.63269e-06
0.0167974 -5.64689e-21 0.00186712 1.34227e-09
-0.016565 1.35525e-20 0.00339846 9.32775e-06
0.0165653 2.71051e-20 0.00339864 1.73884e-08
-0.0168042 -3.38813e-21 0.00251849 1.76421e-06
0.0168043 -1.12938e-21 0.00251854 1.77521e-09
-0.0166661 2.71051e-20 0.00356101 9.59624e-06
0.0166663 2.71051e-20 0.00356109 1.97364e-08
-0.0167843 -5.64689e-21 0.00309016 6.09435e-06
0.0167844 -2.25875e-21 0.00309022 1.13113e-08
0.0170872 2.71051e-20 0.000280474 3.41956e-08
-0.0170872 -2.71051e-20 0.000280467 2.60384e-05
0.0171094 -2.71051e-20 0.000869698 5.41133e-09
-0.0171094 0 0.000869686 5.76409e-06
-0.017124 0 0.00151088 2.14887e-06
0.017124 2.71051e-20 0.0015109 1.93771e-09
-0.016855 -6.77626e-21 0.00363794 1.13729e-05
0.016855 -1.35525e-20 0.00363795 2.5612e-08
-0.0171219 -2.71051e-20 0.00218641 1.52955e-06
0.0171219 -2.71051e-20 0.00218644 1.127e-09
-0.0173128 0 1.50015e-11 2.58888e-05
0.0173128 1.35525e-20 1.49999e-11 3.17936e-08
-0.017316 0 7.61108e-05 2.58878e-05
0.017316 0 7.61049e-05 3.17806e-08
-0.016994 4.51751e-21 0.00347025 1.10725e-05
0.0169942 -9.03502e-21 0.00347044 2.48424e-08
-0.0169523 6.77626e-21 0.00367759 1.16298e-05
0.0169528 1.35525e-20 0.00367779 2.69518e-08
-0.0171196 -2.71051e-20 0.00284364 2.1063e-06
0.0171197 -2.71051e-20 0.00284371 2.7523e-09
0.0174041 1.35525e-20 1.00263e-11 3.18906e-08
-0.0174041 1.35525e-20 1.00267e-11 2.54611e-05
0.0174225 0 0.000552277 1.87188e-08
-0.0174225 0 0.000552274 1.61834e-05
-0.0174465 -2.25875e-21 0.00116234 4.51861e-06
0.0174465 -2.25875e-21 0.00116235 4.65303e-09
0.0174883 0 9.27523e-12 2.81893e-08
-0.0174883 0 9.27554e-12 2.56286e-05
0.0174886 1.35525e-20 6.91564e-05 2.82073e-08
-0.0174886 0 6.91614e-05 2.56299e-05
-0.0174525 2.25875e-21 0.00183359 2.11757e-06
0.0174525 1.12938e-21 0.0018336 2.00477e-09
-0.0171558 -4.06576e-20 0.00376044 1.04613e-05
0.0171561 0 0.00376058 2.53693e-08
-0.0174398 2.25875e-21 0.00252756 1.8134e-06
0.0174399 5.64689e-21 0.0025276 2.0034e-09
-0.0172703 0 0.00381189 9.6409e-06
0.0172706 1.35525e-20 0.003812 2.49843e-08
-0.0173099 -1.35525e-20 0.00368922 9.82766e-06
0.0173101 0 0.00368943 2.50164e-08
-0.0174177 -7.52918e-22 0.0032729 6.73042e-06
0.0174179 -1.12938e-21 0.00327297 1.49564e-08
0.0177262 0 0.000264495 2.58554e-08
-0.0177263 -2.71051e-20 0.000264494 2.54827e-05
0.017753 -2.71051e-20 0.000830849 7.75475e-09
-0.017753 0 0.000830841 6.82543e-06
-0.0177739 0 0.00146634 3.18664e-06
0.0177739 2.71051e-20 0.00146635 3.23152e-09
-0.0174674 0 0.00388874 9.62345e-06
0.0174675 -6.77626e-21 0.0038888 2.37018e-08
-0.0177697 0 0.00215829 1.62994e-06
0.0177697 2.71051e-20 0.0021583 1.73057e-09
-0.0175192 6.77626e-21 0.0039114 9.64437e-06
0.0175194 0 0.00391155 2.3907e-08
-0.0175515 0 0.00385282 9.74919e-06
0.0175519 0 0.00385278 2.41656e-08
-0.0177417 0 0.00287714 1.96422e-06
0.0177418 -2.71051e-20 0.0028772 2.33978e-09
0.017981 -6.77626e-21 1.39444e-12 3.15564e-08
-0.017981 -6.77626e-21 1.3943e-12 2.47621e-05
0.0179821 0 5.25103e-05 3.15761e-08
-0.0179821 -6.77626e-21 5.25107e-05 2.47615e-05
-0.0175795 2.03288e-20 0.00394118 9.53351e-06
0.01758 -1.35525e-20 0.00394143 2.36169e-08
-0.0176602 6.02335e-21 0.00367713 9.54521e-06
0.0176605 0 0.00367727 2.338e-08
0.0180463 0 7.99282e-13 3.4307e-08
-0.0180463 -6.77626e-21 7.99057e-13 2.4546e-05
0.0180587 1.12938e-21 0.000513287 2.52808e-08
-0.0180587 0 0.000513287 1.68889e-05
0.0181036 0 4.49211e-05 3.56864e-08
-0.0181036 0 4.4918e-05 2.46853e-05
0.0181054 0 7.64381e-13 3.56258e-08
-0.0181054 6.77626e-21 7.64199e-13 2.46849e-05
0.0181063 -9.03502e-22 0.00109871 1.23349e-08
-0.0181063 9.03502e-22 0.00109871 6.79954e-06
-0.0181013 0 0.00178214 2.95272e-06
0.0181014 1.69407e-21 0.00178215 3.69777e-09
-0.0180751 0 0.002514 1.82223e-06
0.0180751 -3.38813e-21 0.00251403 2.15438e-09
-0.0177928 1.35525e-20 0.00406344 9.26937e-06
0.0177931 1.35525e-20 0.00406363 2.1709e-08
-0.0178461 1.35525e-20 0.00400264 9.37716e-06
0.0178465 0 0.00400286 2.21824e-08
-0.018018 4.51751e-21 0.00326638 4.34237e-06
0.0180181 2.25875e-21 0.00326648 8.82872e-09
0.0183484 0 0.000235241 4.13281e-08
-0.0183484 0 0.000235238 2.39788e-05
-0.0178962 0 0.00412302 9.97594e-06
0.0178965 0 0.00412318 2.47e-08
0.0183932 -2.71051e-20 0.000764488 2.33846e-08
-0.0183932 0 0.000764489 1.03959e-05
-0.0180569 -2.03288e-21 0.00374603 7.44564e-06
0.0180571 -1.807e-21 0.00374614 1.72933e-08
-0.0184338 -2.71051e-20 0.00138083 5.25932e-06
0.0184338 0 0.00138083 7.23384e-09
-0.0184038 5.42101e-20 0.00212475 1.85683e-06
0.0184038 -2.71051e-20 0.00212477 2.75599e-09
-0.0185327 3.38813e-21 3.11486e-13 2.83507e-05
0.0185329 -3.38813e-21 3.11329e-13 1.15071e-07
-0.0180751 -1.35525e-20 0.00422612 1.10053e-05
0.0180753 -1.35525e-20 0.00422622 2.81209e-08
-0.0183783 -2.71051e-20 0.00286013 1.82886e-06
0.0183783 0 0.00286017 1.78807e-09
0.0186585 3.95282e-21 0.000460868 1.03058e-07
-0.0186585 -3.95282e-21 0.000460863 2.3229e-05
-0.0181758 0 0.00428412 1.12447e-05
0.0181761 0 0.00428433 2.87322e-08
-0.0182334 -4.51751e-21 0.00409678 1.08564e-05
0.0182336 4.51751e-21 0.00409694 2.72701e-08
-0.0183787 0 0.00352164 2.94091e-06
0.0183789 0 0.00352172 4.22623e-09
-0.018738 0 2.24787e-13 2.95646e-05
0.018738 0 2.24588e-13 1.45356e-07
-0.0187383 3.38813e-21 1.8583e-05 2.95875e-05
0.0187383 0 1.85606e-05 1.45711e-07
-0.0187394 0 0.000144294 2.79007e-05
0.0187394 0 0.000144153 1.38042e-07
-0.0187637 0 5.2385e-14 2.98976e-05
0.0187638 0 5.23963e-14 1.49273e-07
0.018782 3.38813e-21 1.5237e-05 1.46942e-07
-0.018782 -3.38813e-21 1.52548e-05 2.95778e-05
0.0187834 -3.38813e-21 4.17921e-14 1.46564e-07
-0.0187835 -6.77626e-21 4.17719e-14 2.95487e-05
0.0187414 5.64689e-23 0.00174786 7.28238e-09
-0.0187414 0 0.00174787 4.33548e-06
0.0188423 3.38813e-21 3.05852e-14 1.56601e-07
-0.0188424 -3.38813e-21 3.05567e-14 3.07951e-05
-0.0188306 4.51751e-21 0.000951028 1.75483e-05
0.0188306 -9.03502e-21 0.000951028 7.04946e-08
-0.0183689 -2.71051e-20 0.00439542 1.09973e-05
0.0183691 -2.71051e-20 0.00439559 2.74614e-08
-0.0187534 -4.03349e-23 0.00244424 2.22952e-06
0.0187534 -3.22679e-22 0.00244427 3.58802e-09
-0.0186869 0 0.00320185 2.29087e-06
0.018687 0 0.00320189 2.81513e-09
-0.0184805 1.35525e-20 0.00445982 1.11257e-05
0.0184807 0 0.00445997 2.71625e-08
-0.0185301 -1.35525e-20 0.00433158 1.11092e-05
0.0185303 1.35525e-20 0.00433174 2.71641e-08
-0.0186603 -3.76459e-22 0.00393311 7.41959e-06
0.0186605 -1.12938e-21 0.0039332 1.65067e-08
0.0191245 0 0.000340867 2.68104e-07
-0.0191245 -1.12938e-21 0.000340856 3.49354e-05
0.0192203 -1.35525e-20 9.46707e-15 2.51042e-07
-0.0192204 1.35525e-20 9.45324e-15 3.4832e-05
-0.0191646 0 0.00146339 7.7963e-06
0.0191646 0 0.00146338 1.19557e-08
-0.0190143 0 0.00283781 1.96767e-06
0.0190144 2.71051e-20 0.00283783 2.38231e-09
-0.0186819 0 0.00457601 1.15991e-05
0.0186821 0 0.00457612 2.63266e-08
-0.0187038 0 0.00458864 1.16253e-05
0.018704 1.69407e-21 0.00458877 2.64706e-08
-0.01916 -2.71051e-20 0.00195783 3.66763e-06
0.01916 -5.42101e-20 0.00195783 8.92108e-09
-0.0187217 0 0.00456119 1.16158e-05
0.0187219 0 0.00456127 2.6607e-08
-0.0187284 1.01644e-20 0.00460285 1.17238e-05
0.0187286 1.01644e-20 0.00460299 2.64241e-08
-0.0189854 2.71051e-20 0.00354614 2.3611e-06
0.0189855 -2.71051e-20 0.00354618 2.72635e-09
-0.0188773 -7.52918e-21 0.00434122 1.08476e-05
0.0188775 4.51751e-21 0.00434132 2.58283e-08
-0.0193797 0 0.000837434 2.9923e-05
0.0193798 0 0.000837383 1.2894e-07
-0.0193834 2.11758e-21 0.00085584 2.97679e-05
0.0193835 2.11758e-21 0.000855835 1.23319e-07
-0.0194038 -1.27055e-21 0.000856716 3.02279e-05
0.0194039 -1.27055e-21 0.000856714 1.23509e-07
0.0194237 0 1.54975e-15 2.30749e-07
-0.0194238 -1.35525e-20 1.53986e-15 4.55183e-05
-0.0193729 0 0.00169001 6.48627e-06
0.0193729 0 0.00169001 1.25758e-08
-0.0193777 -7.05861e-22 0.00244586 3.23831e-06
0.0193778 -1.41172e-22 0.00244587 5.49215e-09
-0.0189667 1.35525e-20 0.0047403 1.25568e-05
0.0189668 -1.35525e-20 0.00474041 2.50739e-08
-0.0193197 -3.38813e-21 0.00318402 2.47524e-06
0.0193198 1.12938e-21 0.00318404 2.74916e-09
-0.0190326 1.35525e-20 0.0046715 1.25854e-05
0.0190327 0 0.00467159 2.56692e-08
-0.0195819 0 0.00142153 9.16741e-06
0.019582 2.71051e-20 0.00142152 2.03253e-08
-0.019255 2.25875e-21 0.00392942 5.49729e-06
0.019255 0 0.00392947 9.74742e-09
-0.019653 0 3.99218e-16 5.81397e-05
0.019653 2.03288e-20 4.03295e-16 3.19461e-07
-0.0195685 0 0.00193727 5.47634e-06
0.0195685 -2.71051e-20 0.00193726 1.05236e-08
-0.0190798 2.71051e-20 0.00480552 1.39618e-05
0.0190799 0 0.00480561 2.89224e-08
-0.0197213 0 0.000269929 6.29222e-05
0.0197213 2.25875e-21 0.000269962 3.07944e-07
-0.0192752 2.25875e-21 0.00441197 1.00654e-05
0.0192754 -1.807e-21 0.00441204 2.02933e-08
0.0198342 0 4.71809e-16 2.99424e-07
-0.0198343 3.38813e-21 4.68214e-16 6.75955e-05
-0.0192473 0 0.00490218 1.65632e-05
0.0192474 -6.77626e-21 0.00490225 3.44565e-08
-0.0196698 -2.71051e-20 0.00278692 2.86413e-06
0.0196698 -2.71051e-20 0.00278693 3.88715e-09
-0.0196163 2.71051e-20 0.00353247 2.71414e-06
0.0196163 2.71051e-20 0.0035325 2.01375e-09
-0.019321 -3.38813e-20 0.00494469 1.67892e-05
0.0193211 -6.77626e-21 0.00494477 3.45044e-08
-0.0194215 -4.51751e-21 0.00475386 1.54861e-05
0.0194216 -1.35525e-20 0.00475393 3.23657e-08
-0.0200351 0 -3.29861e-17 7.88998e-05
0.0200352 0 -3.30812e-17 2.35229e-07
-0.0200397 8.47033e-22 0.000879744 5.12986e-05
0.0200398 -8.47033e-22 0.000879732 1.44647e-07
-0.0196209 0 0.00418606 4.75522e-06
0.0196209 2.71051e-20 0.0041861 5.19496e-09
-0.0200081 0 0.00168408 8.37509e-06
0.0200082 -2.82344e-22 0.00168407 1.69371e-08
-0.0200926 0 6.73549e-05 8.50735e-05
0.0200928 0 6.74599e-05 2.44607e-07
-0.0200965 0 -7.17225e-19 8.50728e-05
0.0200967 0 -7.66423e-19 2.44573e-07
-0.0201334 0 8.63193e-18 8.39945e-05
0.0201336 1.35525e-20 8.60253e-18 2.39819e-07
-0.019508 -1.35525e-20 0.00505259 1.59572e-05
0.0195081 -2.71051e-20 0.00505265 3.11485e-08
-0.0200346 1.12938e-21 0.00229471 5.13209e-06
0.0200346 -2.25875e-21 0.0022947 8.71079e-09
-0.0199605 -2.03288e-21 0.00311687 3.31464e-06
0.0199605 -2.03288e-21 0.00311687 3.66966e-09
-0.0202249 0 6.9338e-05 8.66931e-05
0.0202254 1.35525e-20 6.9446e-05 2.2884e-07
-0.0202304 0 -1.76858e-17 8.66964e-05
0.0202308 0 -1.76992e-17 2.28815e-07
-0.0199313 -1.12938e-21 0.0038555 3.78526e-06
0.0199314 1.12938e-21 0.00385553 2.83958e-09
-0.0196734 -1.35525e-20 0.00514806 1.68735e-05
0.0196735 2.03288e-20 0.00514812 3.29078e-08
-0.0198941 3.61401e-21 0.00456699 9.49186e-06
0.0198942 2.71051e-21 0.00456703 1.54527e-08
-0.0197657 6.77626e-21 0.00520128 1.72674e-05
0.0197658 -1.35525e-20 0.00520135 3.17928e-08
-0.0198217 0 0.00501122 1.62741e-05
0.0198218 0 0.00501128 3.03774e-08
-0.0202896 -2.71051e-20 0.00277321 3.75129e-06
0.0202896 0 0.00277322 4.92972e-09
-0.0202612 -2.71051e-20 0.00349053 3.28556e-06
0.0202612 2.71051e-20 0.00349054 2.01183e-09
-0.0199064 0 0.00528243 1.6594e-05
0.0199065 0 0.0052825 2.47776e-08
-0.020245 0 0.0041794 4.33452e-06
0.0202451 2.71051e-20 0.00417943 2.02726e-09
-0.0206572 0 0.00171988 1.06275e-05
0.0206573 5.42101e-20 0.00171988 2.07843e-08
-0.0201293 -1.50584e-21 0.00498603 1.34715e-05
0.0201293 -1.50584e-21 0.00498607 1.91068e-08
-0.0200531 0 0.00536707 1.84717e-05
0.0200531 -6.77626e-21 0.00536711 2.53485e-08
0.0206314 7.05861e-23 0.00242248 9.29613e-09
-0.0206314 1.41172e-22 0.0024225 5.59638e-06
-0.0207755 -5.42101e-20 0.00051497 0.000109329
0.0207756 0 0.000514975 1.72308e-07
-0.0205987 0 0.00311579 4.08299e-06
0.0205987 5.64689e-22 0.00311579 4.17827e-09
-0.0203104 -2.71051e-20 0.00476269 6.54171e-06
0.0203105 -2.71051e-20 0.00476272 4.59255e-09
-0.0201708 1.35525e-20 0.00543499 1.9771e-05
0.0201709 2.71051e-20 0.00543504 2.51765e-08
-0.0202176 -9.03502e-21 0.00527687 1.87235e-05
0.0202177 -4.51751e-21 0.00527691 2.43667e-08
-0.0205738 -3.38813e-21 0.0038174 4.71816e-06
0.0205738 -1.12938e-21 0.00381741 2.01106e-09
-0.0205818 2.25875e-21 0.00447088 6.46304e-06
0.0205819 -1.12938e-21 0.0044709 2.68538e-09
-0.0203369 2.71051e-20 0.00553082 2.09111e-05
0.020337 1.35525e-20 0.00553084 2.34031e-08
-0.0209426 0 0.00274702 4.55249e-06
0.0209426 0 0.00274701 7.2179e-09
-0.0209032 -2.71051e-20 0.00344945 4.68774e-06
0.0209032 -2.71051e-20 0.00344946 2.53652e-09
-0.0204446 1.35525e-20 0.00559295 2.26753e-05
0.0204447 1.35525e-20 0.00559297 2.30727e-08
-0.0204857 0 0.00548988 2.23116e-05
0.0204858 0 0.0054899 2.31243e-08
-0.0206003 -1.50584e-21 0.00512926 1.5467e-05
0.0206004 2.25875e-21 0.00512929 1.42767e-08
-0.0208994 2.71051e-20 0.00412603 6.51901e-06
0.0208995 2.71051e-20 0.00412604 1.49261e-09
-0.0213129 0 8.97567e-05 0.000117952
0.0213129 2.71051e-20 8.97114e-05 1.90512e-07
-0.0213195 0 -2.89258e-18 0.000117943
0.0213195 2.71051e-20 -2.81088e-18 1.90496e-07
-0.0213562 0 0.00112757 6.79382e-05
0.0213563 -4.51751e-21 0.00112758 1.12564e-07
-0.0206271 0 0.00569824 2.46741e-05
0.0206272 0 0.00569827 2.22945e-08
-0.0208932 0 0.00478634 8.44169e-06
0.0208932 -2.71051e-20 0.00478636 2.43552e-09
-0.0213143 0 0.00228576 8.33668e-06
0.0213143 2.25875e-21 0.00228575 1.43177e-08
-0.0214402 -1.35525e-20 1.08036e-18 0.000120333
0.0214402 0 1.08377e-18 1.95816e-07
-0.0206783 -6.77626e-21 0.00572779 2.49214e-05
0.0206784 0 0.00572782 2.26196e-08
0.0212371 5.64689e-22 0.00307352 5.42646e-09
-0.0212371 0 0.00307353 5.40174e-06
-0.0207149 -6.77626e-21 0.00567146 2.46325e-05
0.0207149 3.38813e-21 0.00567151 2.29392e-08
-0.0207374 -1.35525e-20 0.00576188 2.64474e-05
0.0207375 0 0.0057619 2.23533e-08
-0.0208292 1.05409e-20 0.00551236 2.27369e-05
0.0208293 1.50584e-21 0.0055124 2.24469e-08
0.0215471 1.35525e-20 0.000109109 2.00277e-07
-0.0215472 0 0.000109168 0.000123739
0.0215567 -1.35525e-20 9.64873e-19 2.00301e-07
-0.0215568 -1.35525e-20 9.62153e-19 0.000123773
-0.0212592 -3.5293e-22 0.00373092 6.35204e-06
0.0212592 0 0.00373093 2.54067e-09
-0.0212041 1.12938e-21 0.0044583 8.30973e-06
0.0212042 3.38813e-21 0.00445832 1.78498e-09
-0.0209534 -1.35525e-20 0.00588666 3.07481e-05
0.0209535 0 0.00588668 2.08515e-08
-0.0211675 2.25875e-21 0.00514627 1.51455e-05
0.0211675 2.25875e-21 0.0051463 8.58377e-09
-0.0210047 0 0.00583277 3.08024e-05
0.0210048 0 0.0058328 2.13036e-08
-0.0216644 0 0.00284436 6.9473e-06
0.0216644 0 0.00284436 6.68156e-09
-0.0210554 0 0.00594571 3.30652e-05
0.0210555 0 0.00594574 2.3756e-08
-0.0216615 2.71051e-20 0.00329946 6.45711e-06
0.0216616 2.71051e-20 0.00329946 4.4609e-09
-0.0215296 0 0.00411133 8.08078e-06
0.0215297 2.71051e-20 0.00411133 1.67302e-09
-0.0212153 7.52316e-38 0.0055934 2.56652e-05
0.0212154 1.35525e-21 0.00559344 1.64921e-08
-0.0219545 -5.42101e-20 0.00177021 1.3945e-05
0.0219546 0 0.0017702 2.93552e-08
-0.0220218 0 0.000571119 0.000132498
0.0220218 -5.42101e-20 0.000571112 2.18574e-07
-0.0215067 -2.71051e-20 0.00478713 1.01039e-05
0.0215068 0 0.00478717 1.49457e-09
-0.0219097 1.12938e-21 0.00242093 9.37272e-06
0.0219097 1.12938e-21 0.00242091 1.42378e-08
-0.021227 0 0.00604562 4.01499e-05
0.0212271 0 0.00604568 2.75466e-08
-0.021872 1.35525e-20 0.00306771 7.23669e-06
0.0218721 -1.35525e-20 0.00306771 5.93762e-09
-0.0215266 -2.71051e-20 0.00539884 1.61094e-05
0.0215266 2.71051e-20 0.00539887 3.90289e-09
-0.021392 4.51751e-21 0.0059417 4.0166e-05
0.0213921 -9.03502e-21 0.00594175 2.66514e-08
-0.0218838 1.69407e-21 0.00375446 8.73659e-06
0.0218838 5.64689e-22 0.00375445 3.13673e-09
-0.0213574 -2.03288e-20 0.0061213 4.31002e-05
0.0213575 -1.35525e-20 0.00612135 2.82825e-08
-0.0218345 -2.25875e-21 0.00443966 1.0429e-05
0.0218345 -4.51751e-21 0.00443967 1.8452e-09
-0.0221011 2.71051e-20 0.00283878 8.05806e-06
0.0221011 2.71051e-20 0.00283879 7.95685e-09
-0.0220656 2.71051e-20 0.0032889 7.93204e-06
0.0220656 -2.71051e-20 0.0032889 4.95647e-09
-0.0218182 2.25875e-21 0.00510345 1.4258e-05
0.0218183 3.38813e-21 0.00510348 2.43452e-09
-0.0215448 0 0.00623066 4.30558e-05
0.0215449 0 0.00623073 2.6419e-08
-0.0225383 0 9.17545e-05 0.000134965
0.0225385 -1.35525e-20 9.1676e-05 2.28001e-07
-0.0225403 1.35525e-20 1.77349e-19 0.000134924
0.0225405 0 1.79243e-19 2.27851e-07
-0.0216442 -1.35525e-20 0.00630958 4.30142e-05
-0.0221735 -2.71051e-20 0.00407696 1.07111e-05
0.0221736 0 0.00407697 2.60507e-09
0.0216443 0 0.00630967 2.5933e-08
-0.0216896 -1.35525e-20 0.00619113 4.29977e-05
0.0216897 -1.35525e-20 0.0061912 2.59698e-08
-0.0218102 -1.50584e-21 0.00580095 3.19163e-05
0.0218103 -3.76459e-22 0.00580099 1.56352e-08
-0.0225989 4.51751e-21 0.00115697 7.78267e-05
0.0225989 0 0.00115697 1.33443e-07
-0.0226373 -1.35525e-20 8.07456e-20 0.00013541
0.0226374 0 8.21344e-20 2.30233e-07
-0.0221352 0 0.00476855 1.27643e-05
0.0221353 -2.71051e-20 0.00476855 1.61359e-09
-0.022582 2.25875e-21 0.00236337 1.36825e-05
0.022582 9.03502e-21 0.00236337 1.91625e-08
-0.022501 0 0.00305827 9.74971e-06
0.022501 0 0.00305827 7.07079e-09
-0.0225096 4.23516e-22 0.00305557 9.78892e-06
0.0225095 0 0.00306051 7.0898e-09
-0.0227256 1.35525e-20 8.82314e-05 0.000136566
0.0227256 0 8.81536e-05 2.33708e-07
-0.0227308 0 3.0902e-20 0.000136574
0.0227308 -1.35525e-20 3.15503e-20 2.33731e-07
-0.0218386 1.69407e-21 0.00644697 4.28756e-05
0.0218387 0 0.00644705 2.381e-08
-0.0221178 -2.71051e-20 0.00543871 1.78977e-05
0.0221179 0 0.00543874 2.57979e-09
-0.0218565 0 0.0064596 4.31185e-05
0.0218566 1.69407e-21 0.00645967 2.38714e-08
-0.0218725 0 0.00643778 4.33054e-05
0.0218726 0 0.00643786 2.40238e-08
-0.0218744 8.47033e-21 0.00647346 4.28484e-05
0.0218745 -1.52466e-20 0.00647351 2.34888e-08
-0.0225287 -4.51751e-22 0.00364569 1.17154e-05
0.0225287 0 0.00364569 4.36453e-09
-0.0224649 -5.64689e-22 0.00441819 1.38131e-05
0.022465 -5.64689e-22 0.00441819 2.66243e-09
-0.0220385 1.50584e-21 0.00622588 4.39682e-05
0.0220386 -1.50584e-21 0.00622593 2.39862e-08
-0.0224373 2.25875e-21 0.00510163 1.69771e-05
0.0224374 0 0.00510165 2.21836e-09
-0.022069 1.35525e-20 0.00662862 4.02149e-05
0.0220691 -1.35525e-20 0.00662868 1.93098e-08
-0.0221728 -1.35525e-20 0.00656826 4.07968e-05
0.0221729 0 0.00656832 1.9636e-08
-0.0223901 6.77626e-21 0.00581142 2.86575e-05
0.0223902 4.51751e-21 0.00581146 8.87845e-09
-0.0227864 5.42101e-20 0.00407104 1.45477e-05
0.0227864 2.71051e-20 0.00407104 3.81262e-09
-0.0221653 -1.35525e-20 0.00670524 4.00012e-05
0.0221653 0 0.0067053 1.86517e-08
-0.0232274 -5.42101e-20 0.000581689 0.000139276
0.0232275 5.42101e-20 0.000581683 2.44068e-07
-0.0227665 2.71051e-20 0.00474854 1.70943e-05
0.0227666 2.71051e-20 0.00474855 2.57007e-09
-0.0231993 5.42101e-20 0.00176869 2.11596e-05
0.0231993 0 0.00176868 3.43322e-08
-0.0222608 -1.35525e-20 0.00678083 3.96325e-05
0.0222609 -1.35525e-20 0.0067809 1.7177e-08
-0.0223061 1.35525e-20 0.00667609 4.03317e-05
0.0223061 0 0.00667615 1.80124e-08
-0.0224559 6.45358e-22 0.00637515 3.69627e-05
0.0224559 4.03349e-22 0.00637519 1.42191e-08
-0.023153 -5.42101e-20 0.00306262 1.39248e-05
0.023153 -5.42101e-20 0.00306262 8.48767e-09
-0.0227373 -2.71051e-20 0.00543368 2.00095e-05