# omega  POINT_DATA 15411
# x  y  z  omega
-1.35525e-20 0.015557 5.70113e-08 1596.68
1.35525e-20 -0.015557 5.70113e-08 1597.48
0 -0.015557 0.000135955 1592.74
6.77626e-21 0.015557 0.000135978 1591.91
0 -0.015557 0.000527091 1977.75
-6.77626e-21 0.015557 0.000527192 1976.98
0 -0.015557 0.000659598 2220.2
0 0.015557 0.00065972 2219.46
-6.77626e-21 -0.015557 0.000798595 2450.13
0 0.015557 0.000798713 2449.36
-6.77626e-21 -0.0155569 0.00121618 3071.96
-6.77626e-21 0.0155569 0.00121632 3071.41
0 -0.0155569 0.0013548 3222.6
-6.77626e-21 0.0155569 0.00135493 3222.17
0 -0.0156159 6.66059e-05 1608.84
-6.77626e-21 0.0156159 6.66205e-05 1607.99
6.77626e-21 -0.015617 5.86706e-08 1608.65
6.77626e-21 0.015617 5.86703e-08 1607.81
0 -0.0156133 0.000594009 2124.41
0 0.0156134 0.000594136 2123.65
0 -0.0156101 0.000720993 2357.31
6.77626e-21 0.0156101 0.000721135 2356.54
0 -0.0155569 0.00150202 3343.39
-6.77626e-21 0.0155569 0.00150211 3343.18
6.77626e-21 -0.0156099 0.00127802 3186.68
0 0.0156099 0.00127818 3186.19
6.77626e-21 -0.0156067 0.00140494 3322.91
0 0.0156067 0.00140508 3322.58
6.77626e-21 -0.0156758 6.25745e-08 1527.41
6.77626e-21 0.0156759 6.25738e-08 1526.41
0 -0.0155569 0.00193256 2633.77
-6.77626e-21 0.015557 0.00193259 2634.07
1.35525e-20 -0.0156643 0.000653665 2056.44
2.71051e-20 0.0156643 0.000653856 2047.17
-6.77626e-21 0.015557 0.002087 2022.32
6.77626e-21 -0.015557 0.002087 2021.98
1.35525e-20 -0.0156581 0.00132517 2932.18
0 0.0156581 0.00132537 2914.32
6.77626e-21 0.0156109 0.00197559 2367.52
0 -0.0156109 0.00197556 2367.17
-6.77626e-21 -0.01562 0.00210848 1782.27
-6.77626e-21 0.01562 0.00210848 1782.7
6.77626e-21 0.0156426 0.00205606 1892.93
0 -0.0156426 0.00205603 1892.49
-6.77626e-21 0.0156707 0.00197917 1951.54
0 -0.0156707 0.00197909 1965.67
1.35525e-20 -0.0156949 0.00213398 1856.76
0 0.0156949 0.00213398 1857.17
-3.38813e-20 -0.015885 7.41481e-08 1598.65
-6.77626e-21 0.015885 7.41479e-08 1597.62
-1.12938e-21 -0.01589 0.000347638 1572.47
0 0.01589 0.000347812 1568.86
1.35525e-21 -0.0158834 0.000956224 2644.09
-1.807e-21 0.0158834 0.000956574 2638.35
1.50584e-21 -0.0158471 0.00154369 3308.77
-3.76459e-21 0.0158471 0.00154397 3301.87
5.64689e-22 0.0158414 0.00196399 1788.2
0 -0.0158414 0.00196388 1787.42
2.03288e-20 -0.015839 0.00218308 1344.19
-6.77626e-21 0.015839 0.00218308 1344.9
-1.35525e-20 -0.0159079 0.00220656 1411.38
1.35525e-20 0.0159079 0.00220657 1411.74
-2.25875e-21 -0.0160357 0.0016614 1750.17
3.38813e-21 0.0160357 0.00166177 1738.77
0 -0.0161336 1.64294e-05 1145.21
-4.23516e-22 0.0161337 1.62936e-05 1143.33
0 -0.0161343 5.30972e-08 1144.38
4.23516e-22 0.0161345 5.3091e-08 1142.49
1.35525e-20 -0.0159895 0.00223437 1086.08
-2.71051e-20 0.0159895 0.00223438 1086.52
0 -0.0161453 5.24536e-08 1115.17
4.23516e-22 0.0161478 5.2446e-08 1113.51
-3.38813e-21 -0.0161363 0.000658379 1132.12
-3.38813e-21 0.0161363 0.000658899 1122.41
0 -0.0161079 0.00123674 1291.59
-2.25875e-21 0.0161079 0.00123731 1272.92
7.52918e-22 -0.0162278 0.00195621 953.121
7.52918e-22 0.0162278 0.0019565 951.958
0 -0.0161978 0.00230533 1287.2
0 0.016198 0.00230539 1287.98
0 -0.0162561 0.00232518 1313.95
-6.77626e-21 0.0162561 0.00232519 1314.65
-6.77626e-21 0.016267 0.00230123 1309.28
0 -0.016267 0.00230114 1308.54
-6.77626e-21 0.0162975 0.0022713 1231.08
0 -0.0162976 0.0022711 1233.77
3.38813e-20 0.0162993 0.00233988 1381.47
0 -0.0162994 0.00233991 1380.92
-1.807e-20 0.0164712 0.000318829 826.812
0 -0.0164713 0.000318482 834.32
9.03502e-21 0.0164838 0.000934255 517.755
-4.51751e-21 -0.0164839 0.000933479 550.76
-1.35525e-20 0.0165151 8.91806e-08 847.773
0 -0.0165152 8.91797e-08 850.433
-9.03502e-21 0.0164768 0.00151157 536.623
0 -0.0164769 0.00151091 561.611
2.71051e-20 0.0166394 9.23356e-08 894.994
0 -0.0166395 9.23348e-08 897.729
1.35525e-20 0.0165053 0.00240993 1715.1
-4.06576e-20 -0.0165054 0.00240993 1714.02
2.71051e-20 0.0167038 0.000635453 675.533
-2.71051e-20 -0.0167039 0.000634624 707.111
2.82344e-22 0.0165943 0.00217414 1544.2
-3.10579e-21 -0.0165944 0.00217395 1547.52
0 0.0167298 0.00122683 478.658
-5.42101e-20 -0.0167299 0.00122587 535.402
2.71051e-20 0.0166885 0.00181396 786.012
0 -0.0166886 0.00181342 831.56
0 -0.0166609 0.002463 1987.05
0 0.0166609 0.00246301 1988.49
0 0.0168423 7.09371e-08 873.514
-1.35525e-20 -0.0168424 7.09349e-08 876.864
0 0.0169749 0.000303028 829.218
-2.25875e-21 -0.016975 0.000302617 836.281
0 0.0168731 0.00220951 1610.78
0 -0.0168731 0.0022093 1646.56
0 0.016996 0.000918651 263.12
0 -0.0169961 0.00091773 292.556
-2.03288e-20 0.0168624 0.00253141 2597.87
6.77626e-21 -0.0168624 0.00253143 2596.48
4.51751e-21 0.0169886 0.00152444 261.157
-3.38813e-21 -0.0169887 0.00152368 290.101
-2.71051e-20 0.0170875 2.46042e-08 846.608
-1.35525e-20 -0.0170876 2.4598e-08 850.51
-4.51751e-21 0.0169822 0.0019947 611.376
4.51751e-21 -0.0169822 0.00199432 710.078
-9.03502e-21 -0.0169517 0.00241974 2455.09
4.51751e-21 0.0169517 0.00241984 2456.53
-2.03288e-20 -0.0169618 0.00256517 2619.16
-2.71051e-20 0.0169619 0.0025652 2620.34
-2.71051e-20 0.0172725 0.000609723 524.81
2.71051e-20 -0.0172727 0.000608854 545.097
2.71051e-20 0.017301 3.8681e-09 856.86
2.71051e-20 -0.0173012 3.85985e-09 860.767
2.71051e-20 0.0172756 0.00121852 222.581
2.71051e-20 -0.0172759 0.00121756 255.289
5.42101e-20 0.0172503 0.00183266 447.838
0 -0.0172504 0.00183216 480.573
-2.71051e-20 -0.0171626 0.00263335 1881.65
0 0.0171626 0.00263335 1882.17
0 0.0172628 0.00228364 1393.39
-1.69407e-21 -0.0172628 0.00228347 1421.01
-2.71051e-20 0.0175152 3.90385e-09 846.134
-1.35525e-20 -0.0175152 3.89758e-09 850.128
-2.25875e-21 0.0176167 0.000304206 805.248
-4.51751e-21 -0.0176168 0.0003039 811.077
-1.12938e-21 0.0176138 0.000914405 196.361
7.90564e-21 -0.0176139 0.000913728 228.63
-5.64689e-21 -0.0175987 0.00154607 191.552
-1.12938e-21 0.0175986 0.00154661 150.263
-8.47033e-22 0.0174822 0.00274305 1912.64
-1.52466e-20 -0.0174824 0.00274311 1912.99
2.37169e-20 -0.0174953 0.00274748 1907.47
-1.10114e-20 0.0174954 0.00274754 1906.94
-1.35525e-20 0.0177276 5.30319e-09 845.683
0 -0.0177276 5.30115e-09 849.559
2.25875e-21 -0.0176266 0.0021181 478.906
2.25875e-21 0.0176266 0.00211837 460.722
2.25875e-21 -0.0175734 0.00255388 1793.26
4.51751e-21 0.0175734 0.00255396 1791.66
0 -0.0179395 5.3668e-09 869.352
0 0.0179395 5.36695e-09 865.689
0 0.0179446 0.000602116 514.813
-2.71051e-20 -0.0179448 0.000601729 531.963
0 0.0179404 0.00122928 134.448
2.71051e-20 -0.0179405 0.00122883 167.283
0 -0.0179 0.00190857 365.844
0 0.0179 0.00190883 340.166
-2.71051e-20 -0.0177925 0.00284977 1475.16
-2.71051e-20 0.0177926 0.00284978 1474.47
0 -0.0179476 0.00242616 1033.63
-2.71051e-20 0.0179477 0.00242626 1017.93
-2.71051e-20 -0.0181451 4.40312e-09 880.661
1.35525e-20 0.0181451 4.40323e-09 877.032
0 -0.0180151 0.00292661 1296.1
0 0.0180152 0.00292666 1294.89
4.51751e-21 0.0182715 0.000300951 822.714
4.51751e-21 -0.0182716 0.000300824 828.589
4.51751e-21 0.0182775 0.000913256 208.819
-2.25875e-21 -0.0182775 0.000912982 234.181
1.12938e-20 -0.0182701 0.00156202 152.208
-2.25875e-21 0.0182702 0.00156226 122.349
2.25875e-21 -0.0182365 0.00214905 335.427
2.25875e-21 0.0182365 0.00214918 325.023
0 0.0181446 0.0029715 1339.31
-6.77626e-21 -0.0181446 0.00297151 1340.61
4.51751e-22 -0.018187 0.00270962 1265.3
-9.03502e-22 0.018187 0.00270971 1262.68
-1.35525e-20 0.0183922 2.43152e-09 890.732
1.35525e-20 -0.0183922 2.43142e-09 894.244
0 -0.0185886 1.4653e-09 912.471
0 0.0185886 1.46536e-09 909.1
2.71051e-20 -0.0183436 0.00304025 1506.28
-2.71051e-20 0.0183438 0.00304031 1505.13
2.71051e-20 0.0185996 0.000594964 533.431
0 -0.0185997 0.000594844 550.059
-1.16165e-20 -0.0186737 0.00129279 129.819
0 0.0186737 0.00129292 101.769
-1.35525e-20 -0.0187703 1.23407e-09 922.065
-2.71051e-20 0.0187703 1.23411e-09 918.729
-2.71051e-20 -0.0185172 0.00309968 1576.9
3.38813e-20 0.0185172 0.00309971 1575.55
1.807e-20 0.0187147 0.00187627 130.115
9.03502e-21 -0.0187147 0.00187618 162.984
-1.50584e-21 0.0186673 0.00253576 810.865
1.50584e-21 -0.0186673 0.00253569 841.773
-4.51751e-21 0.018823 0.000903617 215.352
0 -0.018823 0.000903518 243.728
6.77626e-21 0.0188705 0.000248278 880.091
-4.51751e-21 -0.0188706 0.000248244 885.099
1.35525e-20 -0.0186433 0.00294006 1590.95
5.42101e-21 0.0186434 0.00294015 1589.67
0 -0.0189391 0.0015442 97.3344
0 0.018939 0.00154428 71.8728
1.27055e-21 0.01877 0.00318707 1895.21
2.22346e-21 -0.0187697 0.00318691 1896.56
0 -0.0188366 0.00285351 1461.39
6.77626e-21 0.0188366 0.0028535 1436.36
1.35525e-20 0.0190684 6.42266e-10 946.958
0 -0.0190684 6.42229e-10 950.221
2.71051e-20 -0.0189469 0.0022033 179.81
0 0.0189469 0.00220336 146.73
0 -0.0189609 0.002942 1602.29
6.77626e-21 0.018961 0.00294206 1576.4
0 -0.0192376 4.1695e-10 989.241
0 0.0192376 4.16977e-10 986.071
9.03502e-21 0.0192505 0.000578849 571.004
-2.25875e-21 -0.0192506 0.000578823 586.014
6.77626e-21 0.0192653 0.00120345 110.911
-2.25875e-21 -0.0192654 0.00120342 138.639
6.77626e-21 -0.0192727 0.00186892 128.073
-6.77626e-21 0.0192727 0.00186895 95.2402
-1.35525e-20 -0.0190867 0.00329553 2298.97
1.35525e-20 0.0190869 0.00329559 2297.77
1.35525e-20 0.0193938 3.58667e-10 997.919
0 -0.0193938 3.58645e-10 1001.09
1.35525e-20 0.0193936 0.000130558 997.084
1.35525e-20 -0.0193936 0.000130549 1000.26
0 -0.019134 0.00323281 2259.76
0 0.0191342 0.00323291 2258.59
-2.25875e-21 -0.019259 0.0025456 564.841
-4.51751e-21 0.019259 0.00254567 509.896
2.71051e-20 -0.0192049 0.00333603 1961.13
1.35525e-20 0.019205 0.00333606 1960.02
-2.25875e-22 -0.0193216 0.00298789 1478.5
-2.48463e-21 0.0193217 0.00298796 1438.71
-2.71051e-20 0.0195688 0.0002809 1015.79
2.71051e-20 -0.0195688 0.000280889 1018.93
0 0.019589 0.000871785 157.913
2.71051e-20 -0.0195891 0.000871776 180.981
-2.71051e-20 0.019374 0.00328238 1881.41
-2.71051e-20 -0.019374 0.00328231 1882.46
2.71051e-20 0.0196057 0.00151362 62.1435
0 -0.0196057 0.0015136 92.9613
-1.35525e-20 0.0193742 0.00339401 1832.84
2.71051e-20 -0.0193743 0.00339402 1833.83
2.71051e-20 -0.0196062 0.00219166 138.539
2.71051e-20 0.0196062 0.0021917 95.8227
-1.35525e-20 0.0197445 1.18814e-10 1055.11
0 -0.0197445 1.18805e-10 1058.21
-1.35525e-20 0.0197496 0.000118775 1055.23
2.71051e-20 -0.0197497 0.000118768 1058.34
0 -0.0196349 0.00277745 428.222
2.71051e-20 0.0196349 0.00277749 334.631
2.71051e-20 -0.0195953 0.00324393 2121.95
1.35525e-20 0.0195954 0.00324399 2121.15
-1.35525e-20 0.0198868 6.23618e-11 1114.09
1.35525e-20 -0.0198869 6.23578e-11 1117.13
-2.25875e-21 0.0199025 0.000551659 638.938
-2.25875e-21 -0.0199025 0.000551656 659.121
-1.35525e-20 -0.0196374 0.00348418 1746.67
-2.71051e-20 0.0196377 0.00348428 1745.55
0 0.0199263 0.001165 113.964
-1.12938e-21 -0.0199263 0.001165 148.343
1.35525e-20 -0.0197066 0.00339972 1770.79
0 0.0197068 0.00339991 1769.64
-1.35525e-20 0.0200175 0.000104914 1126.9
0 -0.0200175 0.000104929 1129.89
0 0.020018 5.47771e-11 1127.65
0 -0.0200181 5.47715e-11 1130.65
0 -0.0199354 0.00184126 109.327
-1.12938e-21 0.0199354 0.00184128 70.7895
4.51751e-21 -0.0199396 0.00250633 244.022
2.25875e-21 0.0199397 0.00250637 185.063
-1.35525e-20 -0.0198049 0.00354152 1708.46
-1.35525e-20 0.019805 0.00354156 1707.34
1.12938e-21 -0.0199176 0.00307602 1110.3
-4.51751e-21 0.0199177 0.00307606 1077.7
0 -0.0202108 0.000262556 1168.2
2.71051e-20 0.0202108 0.00026255 1165.24
0 0.0202372 0.000828992 174.784
2.71051e-20 -0.0202372 0.000828987 227.553
0 0.0199792 0.00344752 1463.02
-2.71051e-20 -0.0199793 0.00344738 1464.01
-6.77626e-21 0.0199875 0.00360402 1261.35
-1.35525e-20 -0.0199877 0.00360407 1262.06
0 0.0202611 0.00146964 57.9461
-2.71051e-20 -0.0202612 0.00146963 89.2809
-2.71051e-20 -0.0202613 0.00216726 115.593
-5.42101e-20 0.0202614 0.00216729 66.1509
-1.35525e-20 -0.020424 1.48352e-11 1271.84
1.35525e-20 0.0204241 1.48335e-11 1269.01
0 -0.0204263 8.83644e-05 1272.17
1.35525e-20 0.0204264 8.83482e-05 1269.33
6.77626e-21 -0.0201259 0.00365139 1145.35
2.71051e-20 -0.0202574 0.00283427 268.423
-2.71051e-20 0.0202575 0.00283433 223.167
6.77626e-21 0.0201264 0.00365156 1144.12
0 -0.0202301 0.00346725 1263.39
0 0.0202303 0.00346745 1262.1
0 -0.0205367 8.07365e-12 1365.36
0 0.0205367 8.07331e-12 1362.55
4.51751e-21 -0.0205431 0.000507253 797.404
-2.25875e-21 0.0205431 0.000507255 782.731
-2.25875e-21 0.0205806 0.00109812 130.97
0 -0.0205806 0.00109812 163.174
-1.35525e-20 0.0206332 7.23344e-05 1399.24
-1.35525e-20 -0.0206332 7.23369e-05 1401.99
0 0.0206362 7.47662e-12 1394.29
-1.35525e-20 -0.0206362 7.47681e-12 1397.05
1.35525e-20 -0.0203259 0.00371982 1412.88
0 0.0203262 0.0037199 1411.51
1.12938e-21 -0.0205919 0.0017924 98.6786
-2.25875e-21 0.0205919 0.00179242 58.6233
-4.51751e-21 -0.0205776 0.00251315 169.08
-3.38813e-21 0.0205776 0.00251319 123.753
-1.35525e-20 -0.0204397 0.00376151 1493.07
1.35525e-20 0.0204398 0.00376155 1491.58
-1.35525e-20 -0.0204727 0.00364916 1489.42
-1.35525e-20 0.0204728 0.00364933 1487.94
3.76459e-21 -0.0205733 0.00324403 919.48
0 0.0205734 0.00324407 885.541
0 0.0208433 0.000231582 1504.23
2.71051e-20 -0.0208434 0.000231576 1506.88
2.71051e-20 0.0208763 0.000747827 227.215
0 -0.0208763 0.000747825 229.119
-2.71051e-20 0.0209306 0.00137574 59.3167
-2.71051e-20 -0.0209307 0.00137573 100.159
1.35525e-20 0.0206256 0.00382198 1770.27
1.35525e-20 -0.0206258 0.00382201 1772.01
2.71051e-20 -0.0209017 0.00213763 90.5979
-2.71051e-20 0.0209017 0.00213766 51.3537
6.77626e-21 -0.0207137 0.00385275 1791.68
6.77626e-21 0.0207139 0.00385285 1790.05
0 -0.0208885 0.0028589 190.74
0 0.0208886 0.00285896 143.906
-1.35525e-20 -0.02076 0.00376312 1753.2
6.77626e-21 0.0207604 0.00376287 1751.45
1.50584e-21 -0.0211429 0.000434515 885.117
-4.51751e-21 0.0211429 0.000434517 876.262
2.25875e-21 -0.020841 0.00362678 1586.68
-2.25875e-21 0.0208412 0.00362688 1574.02
6.77626e-21 -0.0208385 0.00389815 1917.25
6.77626e-21 0.0208392 0.00389846 1916.18
-2.96462e-21 0.0212597 5.23664e-13 1178.03
-4.23516e-22 -0.0212598 5.24304e-13 1181.32
-8.47033e-22 0.0212767 1.41034e-05 1164.24
4.23516e-22 0.0212812 1.48332e-06 1176.06
8.89385e-21 -0.0212768 1.40587e-05 1167.87
0 -0.0212769 1.7356e-06 1179.38
0 0.0212896 2.69174e-13 1174.38
0 -0.0212896 2.70632e-13 1177.73
-1.69407e-21 0.0212724 0.000879015 295.11
-1.8823e-22 -0.0212724 0.000879006 320.22
6.77626e-22 0.0212426 0.00171822 62.7372
1.35525e-21 -0.0212427 0.00171817 99.6839
-3.38813e-21 -0.0212146 0.00249699 131.271
3.38813e-21 0.0212146 0.00249702 82.6234
1.35525e-20 -0.0210353 0.00398137 2214.07
1.35525e-20 0.0210356 0.00398151 2212.42
-2.25875e-21 -0.021178 0.00323684 629.771
-2.25875e-21 0.0211781 0.00323695 560.955
1.35525e-20 -0.0210737 0.00393718 2178.32
-2.71051e-20 0.0210739 0.00393742 2176.77
1.35525e-20 -0.0211187 0.00402023 1961.7
0 0.0211188 0.00402028 1960.58
9.68038e-22 -0.0212477 0.00368159 1479.52
0 0.0212477 0.00368165 1432.19
2.71051e-20 0.0215747 0.00130741 67.5189
2.71051e-20 -0.0215747 0.0013074 98.5709
0 0.0212487 0.00397497 1818.78
0 -0.0212488 0.00397483 1819.64
6.77626e-21 0.0212528 0.00408536 1714.88
-6.77626e-21 -0.021253 0.00408547 1715.49
-2.25875e-21 0.0216407 0.000331745 790.065
0 -0.0216408 0.000331738 797.119
-2.71051e-20 0.0215441 0.00209933 41.9322
0 -0.0215441 0.00209931 80.0026
2.71051e-20 -0.0215224 0.00284519 159.313
-2.71051e-20 0.0215225 0.00284524 89.4032
0 0.0217961 7.90662e-14 916.143
1.35525e-20 -0.0217961 7.93941e-14 920.8
0 -0.0215506 0.0034709 462.015
-2.71051e-20 0.0215507 0.00347098 337.584
4.06576e-20 -0.021496 0.00395182 2118.73
2.71051e-20 0.0214961 0.00395191 2118.09
0 -0.0214981 0.0042046 1679.54
-6.77626e-21 0.0214986 0.00420483 1678.75
0 0.0218605 0.00170496 53.9029
3.29402e-22 -0.0218606 0.0017049 89.2435
-2.25875e-22 0.0219212 0.000827144 307.929
-2.48463e-21 -0.0219212 0.00082713 345.357
-2.71051e-20 0.0219609 4.00731e-14 946.138
1.35525e-20 -0.021961 4.01624e-14 951.502
5.64689e-22 -0.0218494 0.00247004 110.705
-5.64689e-22 0.0218494 0.00247006 56.49
0 -0.0216144 0.0041396 1778.28
1.35525e-20 0.0216146 0.0041399 1777.31
0 -0.0216502 0.00427848 1860.86
0 0.0216504 0.00427858 1859.82
-5.64689e-22 -0.0218421 0.00317491 258.713
1.12938e-21 0.0218422 0.00317497 176.675
0 -0.0217324 0.0043183 1880
0 0.0217325 0.00431833 1878.92
0 -0.0217584 0.00423542 1904.04
-1.35525e-20 0.0217584 0.00423558 1902.92
0 0.0221732 2.80694e-14 854.612
0 -0.0221734 2.81206e-14 861.36
0 -0.0218663 0.00385214 1270.8
-7.05861e-23 0.0218671 0.00385266 1218.82
-2.71051e-20 0.0222021 0.00129535 69.0181
-2.71051e-20 -0.0222022 0.00129534 100.792
-3.5293e-23 -0.0222511 0.000329013 754.52
0 0.0222517 0.000329756 747
-2.71051e-20 0.0221693 0.00208073 36.71
0 -0.0221694 0.00208072 73.7449
1.35525e-20 0.0218632 0.00438168 2058.9
-1.35525e-20 -0.0218633 0.00438173 2060.29
-6.77626e-21 -0.0223211 1.21337e-14 858.435
-2.03288e-20 0.0223211 1.20993e-14 851.269
2.71051e-20 -0.0221597 0.00282092 128.2
0 0.0221597 0.00282095 57.0748
-2.71051e-20 -0.0221457 0.00350906 262.61
2.71051e-20 0.0221457 0.00350913 203.024
2.03288e-20 -0.0220147 0.00445519 2031.16
-6.77626e-21 0.0220149 0.00445527 2029.72
5.42101e-20 0.0225414 1.2233e-15 947.996
0 -0.0225415 1.22688e-15 955.197
-5.64689e-22 -0.0221394 0.00425953 1900.22
2.25875e-21 0.0221395 0.00425957 1892.26
-8.47033e-22 0.0224964 0.00168457 51.3958
4.23516e-21 -0.0224964 0.00168462 86.1866
1.10114e-20 0.0225019 0.00169156 51.2323
4.23516e-22 -0.0225021 0.00168484 86.0719
-4.23516e-22 -0.0225129 0.001688 86.1067
0 0.0225131 0.001688 51.2519
0 0.022576 0.000874286 295.654
1.807e-21 -0.0225761 0.000874279 346.194
5.64689e-22 0.0225135 0.00242347 46.2895
3.22679e-22 -0.0225135 0.0024234 100.538
1.12938e-21 -0.0224593 0.00318118 176.796
-3.38813e-21 0.0224593 0.00318122 105.764
0 -0.0223014 0.00459401 1877.99
0 0.0223021 0.00459434 1876.21
-2.71051e-21 -0.0224349 0.00390494 779.528
-5.87276e-21 0.0224349 0.00390503 720.362
-9.74088e-21 0.0228058 8.71796e-16 763.431
4.23516e-22 -0.022806 8.73835e-16 771.745
2.5411e-21 0.022811 2.493e-05 756.026
-4.23516e-22 -0.0228111 2.41514e-05 764.612
0 -0.0223411 0.0046132 1890.26
3.38813e-21 0.0223413 0.00461331 1888.33
0 -0.0228141 8.54706e-16 772.357
5.64689e-22 0.0228117 0.000334111 698.289
2.96462e-21 0.0228142 8.52135e-16 764.043
-2.25875e-21 -0.0228118 0.000334123 710.345
0 -0.0223469 0.00460662 1879.58
-3.38813e-21 0.022347 0.00460681 1877.78
0 -0.0223544 0.00461967 1843.07
0 0.0223545 0.00461971 1841.68
0 -0.0223624 0.00458463 1802.16
0 0.0223623 0.00458505 1797.53
-1.69407e-21 0.0223809 0.00461205 1824.67
0 -0.0223811 0.00461193 1825.86
0 0.0223956 0.00463962 1808.18
1.69407e-21 -0.022396 0.00463981 1809.2
1.35525e-20 -0.0225313 0.00433152 1307.51
0 0.0225314 0.00433163 1284.77
0 -0.0227767 0.00282449 106.775
5.42101e-20 0.0227767 0.00282452 43.4834
2.71051e-20 0.0229169 0.00145352 58.0378
2.71051e-20 -0.022917 0.00145354 88.8266
0 0.0229127 0.00195201 36.5748
2.71051e-20 -0.0229127 0.00195199 78.0833
5.42101e-20 -0.0227583 0.00352767 203.103
-2.71051e-20 0.0227583 0.00352773 113.476
6.77626e-21 -0.0226788 0.00436536 1126.2
-1.35525e-20 0.0226788 0.00436543 1115.54
-1.35525e-20 -0.0231146 6.2653e-16 885.507
1.35525e-20 0.0231146 6.24699e-16 875.687
-2.82344e-22 0.0231263 0.00085734 321.669
-8.47033e-22 -0.0231263 0.00085738 382.975
-1.35525e-20 0.0231204 0.00168687 48.6065
-1.35525e-20 -0.0231204 0.00168687 85.1135
0 -0.022691 0.00478261 1562.33
1.35525e-20 0.0226912 0.00478269 1560.64
4.23516e-22 0.0231332 0.00244156 36.7581
-2.82344e-22 -0.0231332 0.00244155 87.9508
1.35525e-20 -0.0227887 0.00466778 1513.42
-1.35525e-20 0.0227888 0.00466792 1511.69
1.12938e-21 -0.0230834 0.00317451 137.816
4.51751e-21 0.0230834 0.00317454 65.7217
0 -0.023319 3.12047e-16 683.558
0 0.0233192 3.1085e-16 671.152
2.25875e-21 -0.0230283 0.00391279 435.523
-2.25875e-21 0.0230283 0.00391288 365.161
-2.71051e-20 -0.0233299 0.00142278 94.7771
0 0.02333 0.00142275 62.2371
5.42101e-20 -0.0233168 0.00194192 77.339
0 0.0233168 0.00194193 35.1141
5.42101e-20 -0.0228965 0.00488208 1383.77
5.42101e-20 0.0228965 0.0048821 1381.73
4.51751e-21 0.0234102 0.000267349 647.306
0 -0.0234102 0.000267197 659.882
-1.50584e-21 -0.0229985 0.00439045 991.997
-2.25875e-21 0.0229986 0.00439055 952.048
-1.35525e-20 0.023516 1.75113e-16 633.699
-6.77626e-21 -0.0235163 1.75792e-16 646.248
2.71051e-20 -0.0234234 0.00278582 85.7142
-2.71051e-20 0.0234234 0.00278584 33.1081
0 -0.023065 0.00496366 1093.46
0 0.0230651 0.00496372 1090.8
2.71051e-20 -0.0233787 0.00352555 152.483
0 0.0233787 0.00352559 69.8208
0 0.023716 -1.12992e-16 688.235
-1.35525e-20 -0.0237161 -1.12641e-16 699.311
-1.35525e-21 -0.0232667 0.00471649 989.887
0 0.0232668 0.00471653 979.936
0 -0.0233857 0.00417623 352.018
0 0.0233857 0.00417629 230.384
0 0.0232203 0.00503884 1023.61
-1.35525e-20 -0.0232204 0.00503886 1026.38
1.12938e-21 0.0237642 0.00087167 333.132
3.10579e-21 -0.0237642 0.000871743 372.501
-2.71051e-20 -0.0237896 9.69124e-05 571.924
0 0.0237897 9.71024e-05 560.481
0 -0.0237941 4.97837e-16 572.95
-1.35525e-20 0.0237941 5.00227e-16 561.535
1.41172e-22 -0.0237453 0.00168599 82.9931
-5.64689e-22 0.0237454 0.00168598 46.8011
1.35525e-20 -0.0238503 -3.62296e-16 548.446
0 0.0238505 -3.64289e-16 536.849
-2.25875e-21 -0.0237771 0.00232528 80.0317
-3.16226e-21 0.0237771 0.00232532 34.6889
0 -0.0233449 0.00509915 1147.14
0 0.023345 0.00509919 1144.47
-2.25875e-21 -0.0237117 0.00315189 104.927
2.25875e-21 0.0237118 0.0031519 44.6501
1.35525e-20 -0.0239753 0.000105662 488.495
1.35525e-20 0.0239757 0.000105887 475.972
0 -0.0240028 2.38539e-16 484.146
1.12938e-21 -0.0236913 0.00385633 214.556
4.51751e-21 0.0236913 0.00385637 121.921
0 0.0240033 2.38657e-16 471.622
-1.69407e-20 -0.0235265 0.00518704 1210.5
2.37169e-20 0.0235265 0.00518705 1207.71
1.50584e-21 0.0237117 0.00456141 702.841
7.52918e-21 -0.0237117 0.00456136 766.042
-1.01644e-20 -0.0235864 0.00521602 1258.67
-3.38813e-21 0.0235866 0.00521614 1256.08
-1.0842e-20 -0.0236568 0.00499178 1236.38
-1.6263e-20 0.0236569 0.00499184 1233.61
-2.71051e-20 -0.0240359 0.00277848 70.9645
2.71051e-20 0.0240359 0.00277849 28.7572
-2.71051e-20 -0.0240146 0.00349442 109.811
0 0.0240146 0.00349445 46.2734
1.35525e-20 -0.0237108 0.00516846 1347.61
-1.35525e-20 0.0237109 0.00516865 1344.95
1.35525e-20 -0.0237216 0.00528148 1452.32
0 0.0237216 0.0052815 1449.54
3.38813e-21 0.0238516 0.00489339 1098.78
-6.77626e-21 -0.0238517 0.00489346 1133.59
0 -0.0239976 0.00419233 225.727
0 0.0239977 0.00419237 127.585
-6.77626e-21 0.0238168 0.00514851 1302.78
0 -0.0238169 0.0051483 1320.03
1.35525e-20 0.0238282 0.00525495 1523.63
-6.77626e-21 -0.0238283 0.00525489 1526.45
0 0.0238429 0.00534021 1618.13
6.77626e-21 -0.023843 0.00534027 1621.04
5.42101e-20 0.0243893 0.00171904 40.6615
5.42101e-20 -0.0243893 0.00171904 75.0531
2.71051e-20 -0.0239789 0.0048986 938.354
0 0.0239789 0.0048987 877.857
1.41172e-22 0.0243696 0.00243126 29.8686
1.41172e-22 -0.0243706 0.00243183 67.3122
5.42101e-20 -0.0244866 0.000512679 320.724
5.42101e-20 0.0244867 0.000512677 306.383
0 -0.0243442 0.00312513 78.9077
2.25875e-21 0.0243442 0.00312514 33.0648
2.71051e-20 -0.0239577 0.00539577 1723.19
-2.03288e-20 0.0239577 0.00539581 1720.45
2.71051e-21 0.0240299 0.00521685 1594.7
-1.35525e-20 -0.0240299 0.00521681 1597.53
1.12938e-21 -0.0243197 0.00383759 140.414
1.12938e-21 0.0243197 0.00383762 70.7149
-4.51751e-21 -0.0242836 0.00455354 479.86
-1.12938e-20 0.0242836 0.00455361 392.983
0 0.0241601 0.00549381 1509.45
-1.35525e-20 -0.0241602 0.00549381 1512.73
-4.51751e-21 -0.0242635 0.00502104 1058.95
-2.25875e-21 0.0242636 0.0050211 1002.53
-2.71051e-20 -0.0246819 0.00275431 58.5643
0 0.0246819 0.00275432 24.3923
0 -0.0246457 0.00346487 76.1472
0 0.0246457 0.00346489 32.7057
0 -0.0243131 0.00556781 1208.7
0 0.0243131 0.00556784 1204.67
2.71051e-20 0.0249637 3.14343e-16 292.83
0 -0.0249638 3.14534e-16 308.235
0 0.0249658 0.000127132 291.523
2.71051e-20 -0.0249658 0.000127056 307.051
-2.71051e-20 -0.0246319 0.00416565 144.339
0 0.0246319 0.00416568 71.9936
-2.25875e-21 0.0250669 0.0011139 165.581
0 -0.0250669 0.0011139 190.366
5.42101e-21 -0.0245277 0.0053337 1044.58
-1.807e-21 0.0245277 0.00533373 1033.09
0 -0.0246411 0.00480615 380.955
-5.42101e-20 0.0246411 0.00480619 240.502
0 -0.0251264 -5.56035e-18 325.038
2.71051e-20 0.0251265 -5.53943e-18 309.052
-6.77626e-21 0.0244891 0.00565307 1095.26
0 -0.0244893 0.00565312 1099.6
3.38813e-21 0.0250457 0.00228488 30.3503
-1.12938e-21 -0.0250457 0.00228488 63.635
-5.64689e-22 -0.0249744 0.00307723 64.1611
-2.82344e-22 0.0249744 0.00307727 27.2138
-2.71051e-20 0.0245965 0.00570506 1205.35
0 -0.0245965 0.00570504 1209.52
-2.71051e-20 -0.0252751 0.000134702 293.783
0 -0.0249933 0.00376618 98.2417
-1.12938e-21 0.0249934 0.00376619 46.1742
0 0.0252752 0.000134769 276.87
0 -0.0252845 -2.39213e-18 293.727
1.35525e-20 0.0252846 -2.39376e-18 276.807
-2.25875e-21 -0.0249434 0.00449171 215.026
-2.25875e-21 0.0249434 0.00449173 126.872
-3.38813e-20 0.0247822 0.00579494 1269.61
-2.37169e-20 -0.0247823 0.00579495 1273.99
0 0.0249666 0.00518174 733.345
-7.52918e-21 -0.0249666 0.0051817 793.264
0 -0.0248294 0.00581779 1315.82
6.77626e-21 0.0248297 0.00581793 1311.75
0 -0.0249104 0.00560263 1298.51
1.89735e-20 0.0249104 0.00560269 1294.17
-2.71051e-20 0.0254015 0.00285468 22.1924
0 -0.0254015 0.00285468 53.8112
-2.71051e-20 -0.0252645 0.00414469 97.3922
2.71051e-20 0.0252645 0.00414472 47.8881
0 0.0254031 0.00331055 25.3798
-8.13152e-20 -0.0254031 0.00331053 61.9643
-6.77626e-21 -0.0249623 0.00577177 1419.49
6.77626e-21 0.0249624 0.00577198 1415.36
0 -0.0249739 0.00588771 1539.9
0 0.0249739 0.00588773 1535.65
-2.71051e-20 -0.0252501 0.00482061 215.32
0 0.0252501 0.00482065 132.32
0 0.0257172 0.000556259 259.219
1.0842e-19 -0.0257173 0.000556256 277.577
0 0.0250722 0.00575404 1370.09
0 -0.0250723 0.00575381 1385.66
-5.42101e-20 0.0256698 0.00175088 39.5627
0 -0.0256699 0.00175088 71.9421
2.82344e-22 -0.0256382 0.00241569 58.5854
-1.69407e-21 0.0256382 0.00241572 27.3311
6.77626e-21 0.0250837 0.00586272 1620.4
1.35525e-20 -0.0250838 0.00586267 1624.63
1.35525e-20 -0.0256079 0.00307874 55.2714
0 0.0256079 0.00307875 22.6156
0 0.0250979 0.00594758 1727.19
0 -0.025098 0.00594766 1731.49
2.25875e-21 -0.0251925 0.0055531 1188.69
0 0.0251926 0.00555306 1155.75
0 0.0252317 0.00551488 911.556
-2.71051e-20 -0.0252317 0.00551479 959.666
2.25875e-21 -0.0255924 0.00379288 72.9235
-3.01167e-21 0.0255924 0.00379288 34.3054
1.35525e-20 -0.0252102 0.00600187 1841.34
-6.77626e-21 0.0252102 0.00600189 1837.31
-2.71051e-21 0.0252817 0.00582896 1695.61
0 -0.0252818 0.00582894 1699.81
0 -0.0255735 0.00447393 129.263
3.38813e-21 0.0255735 0.00447395 73.5945
2.71051e-20 -0.0258318 0.00284479 50.2647
0 0.0258318 0.00284478 20.2845
-2.71051e-20 -0.0257993 0.00329833 53.7293
0 0.0257993 0.00329834 21.4912
2.25875e-21 0.0255336 0.00517881 408.952
-9.03502e-21 -0.0255336 0.00517875 476.719
0 0.025412 0.0060992 1584.62
0 -0.0254121 0.00609922 1589.59
-4.51751e-21 -0.0255488 0.00563572 1082.91
2.25875e-21 0.0255489 0.00563577 1037.13
0 0.0262228 -2.4481e-18 253.293
0 -0.0262229 -2.47071e-18 272.2
-1.35525e-20 0.0262241 0.000110141 253.119
0 -0.0262242 0.000110109 272.04
2.71051e-20 -0.025914 0.0040994 65.208
2.71051e-20 0.025914 0.00409942 33.0419
-1.35525e-20 -0.0255675 0.00617786 1260.48
-1.35525e-20 0.0255676 0.0061779 1254.34
0 0.025876 0.00480446 75.975
0 -0.025876 0.00480443 131.705
4.51751e-21 0.0263175 0.00114406 146.556
-4.51751e-21 -0.0263176 0.00114406 172.186
1.35525e-20 0.0263543 1.29153e-19 252.725
0 -0.0263544 1.25817e-19 271.709
4.51751e-21 0.0263095 0.00235737 28.6038
3.38813e-21 -0.0263095 0.00235736 60.3053
1.05879e-22 -0.0262443 0.00306373 51.5791
0 0.0262443 0.00306373 19.9589
0 -0.0262456 0.00305715 51.6624
0 0.0262456 0.00305727 20.0401
3.17637e-22 0.0262459 0.0030829 20.1404
0 -0.0262459 0.00308328 51.7768
-2.71051e-20 0.0258908 0.00543286 249.625
2.71051e-20 -0.0258909 0.00543282 358.383
-1.807e-21 -0.0257782 0.00595398 1096.86
-4.51751e-22 0.0257782 0.005954 1085.09
-1.35525e-20 0.0264723 0.000113081 247.376
0 -0.0264724 0.000113055 266.734
-1.35525e-20 0.0264809 1.34692e-19 247.336
0 -0.0264809 1.33175e-19 266.697
1.35525e-20 0.0257321 0.00626843 1114.24
0 -0.0257323 0.00626851 1120.72
-4.70574e-22 0.0262544 0.00364383 26.5899
1.31761e-21 -0.0262544 0.0036438 59.3239
2.25875e-21 -0.026205 0.00444576 84.913
1.12938e-21 0.026205 0.00444578 45.8305
0 -0.0258429 0.00632528 1218.31
1.35525e-20 0.0258429 0.00632531 1211.92
3.38813e-21 0.0261907 0.00512143 130.934
2.25875e-21 -0.0261908 0.0051214 196.109
-8.47033e-21 0.0260126 0.00644129 1237.59
8.47033e-21 -0.0260126 0.00644132 1244.34
3.38813e-21 -0.0260425 0.00646009 1255.46
0 0.0260428 0.00646028 1248.79
0 -0.026528 0.00408777 55.6396
-2.71051e-20 0.026528 0.00408778 25.0456
-2.25875e-21 0.0262146 0.00581645 746.215
2.25875e-21 -0.0262146 0.00581641 788.331
0 -0.0261568 0.00624566 1284.44
5.42101e-21 0.0261568 0.00624573 1277.67
0 0.0265114 0.0047731 48.1218
0 -0.0265114 0.00477308 85.2552
0 0.0269561 0.000576396 240.837
1.0842e-19 -0.0269562 0.000576394 260.795
0 -0.0261882 0.00642608 1320.16
0 0.0261882 0.00642628 1313.23
-5.42101e-20 0.0269247 0.00175756 39.3501
0 -0.0269247 0.00175757 71.6238
0 -0.0261874 0.0065534 1374.89
0 0.0261875 0.00655341 1367.8
0 0.0264989 0.00545188 133.802
0 -0.026499 0.00545185 184.983
-1.0842e-19 0.0268811 0.00306204 17.1859
1.0842e-19 -0.0268811 0.00306204 50.1209
-6.77626e-21 0.02635 0.00616023 1091.89
-6.77626e-21 -0.02635 0.00616031 1115.02
0 0.0262995 0.00641296 1244.33
0 -0.0262996 0.00641277 1257.52
6.77626e-21 0.0263015 0.0065255 1406.55
-6.77626e-21 -0.0263016 0.00652546 1413.74
-6.77626e-22 -0.0268577 0.0037317 52.5812
2.25875e-22 0.0268577 0.0037317 21.3403
0 0.0263054 0.00663196 1463.67
-3.38813e-21 -0.0263056 0.00663205 1471
0 0.0264848 0.00617556 910.477
0 -0.0264848 0.00617548 940.948
2.25875e-21 -0.0268382 0.00441889 63.3828
1.12938e-21 0.0268382 0.0044189 31.4388
6.77626e-21 -0.0263806 0.00668205 1526.95
-6.77626e-21 0.0263807 0.00668209 1519.75
-1.35525e-20 0.0265072 0.00650862 1479.29
2.71051e-21 -0.0265072 0.0065086 1486.45