# p  POINT_DATA 27219
# x  y  z  p
-0.0130568 0 4.20224e-06 0.0675902
0.0130568 0 4.20467e-06 -0.010144
0.0130538 0 6.66496e-06 -0.010144
-0.0130538 0 6.66145e-06 0.0675901
-0.0130538 0 0.000644966 0.0675893
0.0130538 0 0.000645285 -0.010144
-0.0130538 0 0.00065941 0.0675894
0.0130538 0 0.00065974 -0.010144
-0.0130538 0 0.000674665 0.0675895
0.0130538 0 0.000675 -0.010144
-0.0130603 8.47033e-22 0.000649852 0.0675895
0.0130603 0 0.000650175 -0.010144
-0.0130603 0 0.000668993 0.0675896
0.0130603 0 0.000669326 -0.010144
-0.0130709 5.0822e-21 0.000658297 0.06759
0.0130709 -1.43996e-20 0.000658629 -0.010144
-0.0130538 0 0.00133823 0.0675892
0.0130538 0 0.00133856 -0.010144
-0.0130538 -1.69407e-21 0.00135482 0.067589
0.0130538 0 0.00135516 -0.010144
-0.0130538 -1.69407e-21 0.00137229 0.0675891
0.0130538 1.69407e-21 0.00137264 -0.010144
-0.0130609 0 0.00134178 0.0675893
0.0130609 0 0.00134211 -0.010144
-0.0130605 0 0.00136344 0.0675892
0.0130605 0 0.00136379 -0.010144
-0.0130744 8.47033e-21 0.00134763 0.0675899
0.0130744 5.0822e-21 0.00134797 -0.0101441
-0.0130556 0 0.00208219 0.0675937
0.0130566 4.23516e-22 0.0020858 -0.0101441
-0.0130676 -4.23516e-22 0.00208096 0.0675944
0.0130676 -4.23516e-22 0.00208096 -0.0101441
-0.0133442 0 8.05854e-08 0.0676012
0.0133442 -2.03288e-20 8.05851e-08 -0.0101443
-0.0133452 0 0.000326595 0.067601
0.0133452 4.51751e-21 0.00032676 -0.0101443
-0.0133372 3.38813e-21 0.000960076 0.0675947
0.0133372 -3.38813e-21 0.000960432 -0.0101443
-0.0132973 -4.51751e-21 0.00155434 0.0675963
0.0132973 4.51751e-21 0.00155458 -0.0101443
-0.0132406 3.38813e-21 0.00216285 0.0676068
0.0132406 3.38813e-21 0.00216285 -0.0101444
-0.0132805 3.38813e-21 0.00206436 0.0676089
0.0132806 -3.38813e-21 0.00206428 -0.0101445
0.0133175 2.71051e-20 0.00219404 -0.0101444
-0.0133175 2.71051e-20 0.00219405 0.0676044
-0.0133831 0 0.00186926 0.0676096
0.0133831 0 0.00186938 -0.0101446
-0.0135632 2.03288e-20 9.24943e-08 0.0676113
0.0135632 -1.35525e-20 9.24941e-08 -0.0101447
-0.0134965 4.51751e-21 0.00146628 0.0676004
0.0134965 0 0.00146652 -0.0101445
-0.0136117 -6.77626e-21 8.70578e-05 0.0676134
0.0136117 6.77626e-21 8.70948e-05 -0.0101447
-0.0136152 0 8.46271e-08 0.0676137
0.0136152 -1.35525e-20 8.46272e-08 -0.0101447
-0.0136416 0 8.06399e-08 0.0676147
0.0136416 1.35525e-20 8.06405e-08 -0.0101448
-0.0136355 4.06576e-21 0.000679005 0.0676159
0.0136355 -2.93638e-21 0.00067928 -0.0101448
0.0134812 0 0.00226051 -0.0101446
-0.0134812 1.35525e-20 0.00226053 0.0676105
-0.0136197 2.07052e-21 0.00119016 0.0676147
0.0136197 -1.50584e-21 0.00119046 -0.0101448
-0.0136061 1.50584e-21 0.00162993 0.0676163
0.0136061 -4.51751e-21 0.00163012 -0.0101448
0.0137235 -6.77626e-21 7.39517e-08 -0.0101449
-0.0137235 1.35525e-20 7.39504e-08 0.0676174
0.0137252 0 9.16503e-05 -0.0101449
-0.0137252 0 9.16307e-05 0.0676173
-0.0137102 2.25875e-22 0.00202489 0.0676196
0.0137103 0 0.00202497 -0.0101449
-0.0136752 -6.77626e-21 0.00233929 0.0676178
0.0136753 6.77626e-21 0.00233932 -0.0101449
-0.0137679 0 0.00237695 0.0676215
0.013768 0 0.00237697 -0.010145
0.0139849 1.35525e-20 0.000399215 -0.0101453
-0.0139849 -2.71051e-20 0.000399115 0.0676274
-0.0139861 4.51751e-21 0.00091313 0.0676211
0.0139861 4.51751e-21 0.000913297 -0.0101452
-0.0139546 -4.51751e-21 0.00150392 0.0676194
0.0139546 -1.35525e-20 0.00150406 -0.0101452
-0.0140935 -1.35525e-20 0.000126399 0.0676316
0.0140935 -1.35525e-20 0.000126419 -0.0101454
-0.0141016 -2.71051e-20 1.51491e-08 0.067632
0.0141016 -2.71051e-20 1.51471e-08 -0.0101454
-0.013961 -8.47033e-22 0.00245528 0.0676529
0.0139612 -3.38813e-21 0.00245534 -0.0101456
-0.0141702 0 0.000612168 0.0676364
0.0141702 2.71051e-20 0.000612269 -0.0101455
-0.0139759 0 0.00246133 0.0676547
0.0139761 -8.47033e-22 0.00246136 -0.0101457
-0.0139804 -8.47033e-22 0.00244924 0.0676552
0.0139805 -2.5411e-21 0.00244934 -0.0101457
-0.0141583 0 0.00121281 0.067635
0.0141583 0 0.00121293 -0.0101455
-0.0142138 0 6.98128e-09 0.0676373
0.0142138 1.35525e-20 6.9805e-09 -0.0101455
-0.0141062 -2.71051e-20 0.00185466 0.0676342
0.0141063 0 0.00185473 -0.0101454
-0.0140936 -2.25875e-21 0.00222221 0.0676515
0.0140937 0 0.00222227 -0.0101457
0.0143442 2.71051e-20 6.46171e-09 -0.0101457
-0.0143442 -1.35525e-20 6.46231e-09 0.067643
-0.0141439 6.77626e-21 0.00239274 0.0676473
0.014144 0 0.0023928 -0.0101457
0.014345 0 0.000135094 -0.0101457
-0.014345 1.35525e-20 0.000135094 0.067643
-0.0141783 1.35525e-20 0.00254352 0.0676352
0.0141784 0 0.00254356 -0.0101455
0.0144148 2.71051e-21 0.000393106 -0.0101458
-0.0144148 -8.13152e-21 0.000393046 0.067646
-0.0142931 -6.77626e-21 0.00252723 0.0676387
0.0142932 -6.77626e-21 0.00252727 -0.0101457
-0.0142857 6.77626e-21 0.00258704 0.0676384
0.0142858 0 0.00258706 -0.0101457
-0.0145008 4.51751e-21 0.000915437 0.0676508
0.0145009 -1.12938e-20 0.000915525 -0.0101459
-0.0143708 1.69407e-21 0.00229753 0.0676398
0.0143709 0 0.00229758 -0.0101457
-0.0144716 -9.03502e-21 0.00154756 0.0676494
0.0144716 0 0.00154763 -0.0101459
-0.0144657 4.51751e-21 0.00205594 0.0676406
0.0144658 1.807e-20 0.002056 -0.0101458
-0.0146705 -2.71051e-20 0.000150455 0.0676563
0.0146705 0 0.000150466 -0.0101461
-0.01468 0 6.30408e-09 0.0676567
0.01468 0 6.30387e-09 -0.0101462
-0.0144708 2.71051e-20 0.00266196 0.0676446
0.014471 0 0.00266201 -0.0101459
-0.0145058 5.42101e-21 0.00250608 0.0676403
0.0145059 -1.35525e-20 0.00250612 -0.0101458
0.0148234 -1.35525e-20 5.71489e-09 -0.0101463
-0.0148234 -2.71051e-20 5.71495e-09 0.0676622
-0.0148746 4.51751e-21 0.000558343 0.0676641
0.0148746 2.25875e-21 0.000558392 -0.0101464
-0.0147687 0 0.00191044 0.0676587
0.0147687 -2.71051e-20 0.00191049 -0.0101463
-0.0146404 0 0.00273067 0.0676517
0.0146406 2.71051e-20 0.00273071 -0.0101461
-0.0148827 1.16165e-20 0.0011685 0.0676661
0.0148828 0 0.00116856 -0.0101465
0.0149747 1.35525e-20 4.96058e-09 -0.0101465
-0.0149747 0 4.96059e-09 0.0676685
0.0149752 -1.35525e-20 0.000142276 -0.0101465
-0.0149752 1.35525e-20 0.000142271 0.0676685
-0.0148162 9.03502e-21 0.00236391 0.067657
0.0148163 2.25875e-21 0.00236395 -0.0101463
-0.0150223 -4.51751e-21 0.00156468 0.0676703
0.0150223 9.03502e-21 0.00156474 -0.0101466
-0.0151425 -2.71051e-20 0.000304852 0.0676755
0.0151425 2.71051e-20 0.000304883 -0.0101468
-0.014892 -6.77626e-21 0.00283336 0.0676526
0.0148921 6.77626e-21 0.0028334 -0.0101463
-0.0151422 0 0.000920375 0.0676765
0.0151422 2.71051e-20 0.000920434 -0.0101468
-0.015042 1.6263e-20 0.00210477 0.0676712
0.0150421 1.0842e-20 0.00210482 -0.0101466
-0.0150532 9.03502e-21 0.00270351 0.0676589
0.0150534 0 0.00270357 -0.0101465
-0.0150254 -2.03288e-20 0.00288744 0.0676568
0.0150256 3.38813e-20 0.00288752 -0.0101464
-0.0153086 1.35525e-20 2.24178e-09 0.067682
0.0153086 0 2.24177e-09 -0.010147
-0.0153122 0 0.000140816 0.0676821
0.0153122 -1.35525e-20 0.000140822 -0.010147
0.0154577 0 1.48792e-09 -0.0101472
-0.0154577 0 1.48787e-09 0.0676875
-0.0154655 -4.51751e-21 0.00060398 0.0676877
0.0154655 -9.03502e-21 0.000604018 -0.0101472
-0.0154631 2.25875e-21 0.00123926 0.0676871
0.0154631 1.35525e-20 0.00123931 -0.0101472
-0.0152765 0 0.0029899 0.0676731
0.0152766 -2.71051e-20 0.00298996 -0.010147
-0.0154691 -2.25875e-21 0.00188066 0.0676853
0.0154691 -4.51751e-21 0.00188071 -0.0101472
0.0156043 -1.35525e-20 1.30288e-09 -0.0101474
-0.0156043 0 1.30283e-09 0.0676931
0.0156046 1.35525e-20 0.000132291 -0.0101474
-0.0156046 -1.35525e-20 0.000132288 0.0676932
-0.0153943 1.35525e-20 0.00303866 0.0676771
0.0153944 0 0.00303871 -0.0101473
-0.0154266 -1.35525e-20 0.00293734 0.0676776
0.0154267 1.35525e-20 0.00293741 -0.0101473
-0.0155042 2.63521e-21 0.00256117 0.0676793
0.0155043 -3.76459e-21 0.00256122 -0.0101472
0.0157872 2.71051e-20 0.000299894 -0.0101476
-0.0157872 2.71051e-20 0.000299869 0.0677002
-0.0157972 2.71051e-20 0.000914956 0.0676992
0.0157972 2.71051e-20 0.000915008 -0.0101477
-0.015799 0 0.00156064 0.067697
0.015799 -2.71051e-20 0.00156069 -0.0101476
-0.0156185 -6.77626e-21 0.00313206 0.0676763
0.0156185 6.77626e-21 0.00313207 -0.0101474
-0.0158092 2.71051e-20 0.00221249 0.0676939
0.0158093 0 0.00221254 -0.0101476
-0.0159653 -2.71051e-20 5.84434e-10 0.0677072
0.0159653 2.71051e-20 5.84428e-10 -0.0101478
-0.0159712 0 0.000124936 0.0677074
0.0159712 0 0.000124938 -0.0101478
-0.015693 0 0.00316295 0.0676744
0.0156931 0 0.00316301 -0.0101474
-0.0157206 1.35525e-20 0.0031026 0.0676741
0.0157208 0 0.00310257 -0.0101474
-0.0158002 4.51751e-21 0.00293364 0.0676731
0.0158003 -3.01167e-21 0.0029337 -0.0101474
-0.0157817 0 0.00319963 0.0676836
0.015782 0 0.00319974 -0.0101476
0.0161034 -1.35525e-20 4.04844e-10 -0.010148
-0.0161034 -1.35525e-20 4.04848e-10 0.0677125
-0.016119 -4.51751e-21 0.000594151 0.0677125
0.016119 0 0.000594174 -0.0101481
-0.01613 4.51751e-21 0.00122518 0.0677107
0.01613 2.25875e-21 0.00122521 -0.0101481
0.0162343 -1.35525e-20 3.59814e-10 -0.0101482
-0.0162343 -2.71051e-20 3.59814e-10 0.0677179
0.0162345 -1.35525e-20 0.000113277 -0.0101482
-0.0162345 -1.35525e-20 0.000113279 0.067718
-0.0161354 9.03502e-21 0.00188647 0.0677077
0.0161355 -4.51751e-21 0.00188651 -0.0101481
-0.0161281 2.25875e-21 0.00255569 0.0677038
0.0161282 0 0.00255574 -0.0101481
-0.015998 1.35525e-20 0.0032882 0.067697
0.0159982 2.71051e-20 0.00328826 -0.010148
-0.0160357 0 0.00323052 0.0676986
0.0160358 0 0.00323061 -0.010148
-0.016091 -1.35525e-20 0.00332623 0.0677021
0.0160912 1.35525e-20 0.00332628 -0.0101481
0.0164377 -2.71051e-20 0.000292336 -0.0101485
-0.0164377 -5.42101e-20 0.000292322 0.067726
0.0164553 0 0.000897692 -0.0101485
-0.0164553 5.42101e-20 0.00089766 0.0677248
-0.0162072 3.61401e-21 0.00298944 0.0677053
0.0162073 0 0.00298952 -0.0101482
-0.016466 2.71051e-20 0.00154116 0.067722
0.016466 0 0.00154119 -0.0101486
-0.016253 -1.35525e-20 0.00328154 0.0677099
0.016253 -1.35525e-20 0.00328162 -0.0101483
-0.0162529 1.35525e-20 0.00339231 0.0677099
0.016253 -1.35525e-20 0.00339232 -0.0101483
-0.0164659 0 0.00220933 0.0677181
0.016466 2.71051e-20 0.00220938 -0.0101486
-0.0166389 0 1.04271e-10 0.0677342
0.0166389 1.35525e-20 1.04262e-10 -0.0101487
-0.0166447 0 0.000100566 0.0677344
0.0166447 1.35525e-20 0.000100563 -0.0101487
-0.0165069 0 0.00278852 0.0677172
0.016507 2.71051e-20 0.00278859 -0.0101486
0.0167551 0 6.18359e-11 -0.0101489
-0.0167551 0 6.18413e-11 0.0677387
-0.0167741 4.51751e-21 0.000577078 0.0677389
0.0167741 2.25875e-21 0.000577088 -0.0101489
-0.0164731 0 0.00325216 0.0677198
0.0164733 0 0.00325224 -0.0101486
-0.0167929 -1.12938e-21 0.00119995 0.0677375
0.0167929 2.25875e-21 0.00119996 -0.010149
-0.0164937 0 0.00349064 0.0677209
0.016494 1.35525e-20 0.00349077 -0.0101486
0.0168627 -1.35525e-20 5.62475e-11 -0.010149
-0.0168627 -1.35525e-20 5.62517e-11 0.0677439
0.0168631 1.35525e-20 9.00315e-05 -0.010149
-0.0168631 -1.35525e-20 9.00368e-05 0.0677439
-0.0167974 1.12938e-21 0.0018671 0.0677353
0.0167974 -5.64689e-21 0.00186712 -0.010149
-0.016565 1.35525e-20 0.00339846 0.0677242
0.0165653 2.71051e-20 0.00339864 -0.0101487
-0.0168042 -3.38813e-21 0.00251849 0.0677333
0.0168043 -1.12938e-21 0.00251854 -0.010149
-0.0166661 2.71051e-20 0.00356101 0.067728
0.0166663 2.71051e-20 0.00356109 -0.0101488
-0.0167843 -5.64689e-21 0.00309016 0.0677327
0.0167844 -2.25875e-21 0.00309022 -0.010149
0.0170872 2.71051e-20 0.000280474 -0.0101493
-0.0170872 -2.71051e-20 0.000280467 0.067753
0.0171094 -2.71051e-20 0.000869698 -0.0101494
-0.0171094 0 0.000869686 0.0677519
-0.017124 0 0.00151088 0.0677511
0.017124 2.71051e-20 0.0015109 -0.0101494
-0.016855 -6.77626e-21 0.00363794 0.0677377
0.016855 -1.35525e-20 0.00363795 -0.0101491
-0.0171219 -2.71051e-20 0.00218641 0.06775
0.0171219 -2.71051e-20 0.00218644 -0.0101494
-0.0173128 0 1.50015e-11 0.0677609
0.0173128 1.35525e-20 1.49999e-11 -0.0101496
-0.017316 0 7.61108e-05 0.067761
0.017316 0 7.61049e-05 -0.0101496
-0.016994 4.51751e-21 0.00347025 0.0677432
0.0169942 -9.03502e-21 0.00347044 -0.0101493
-0.0169523 6.77626e-21 0.00367759 0.0677416
0.0169528 1.35525e-20 0.00367779 -0.0101492
-0.0171196 -2.71051e-20 0.00284364 0.067748
0.0171197 -2.71051e-20 0.00284371 -0.0101494
0.0174041 1.35525e-20 1.00263e-11 -0.0101497
-0.0174041 1.35525e-20 1.00267e-11 0.0677623
0.0174225 0 0.000552277 -0.0101498
-0.0174225 0 0.000552274 0.0677621
-0.0174465 -2.25875e-21 0.00116234 0.0677624
0.0174465 -2.25875e-21 0.00116235 -0.0101498
0.0174883 0 9.27523e-12 -0.0101498
-0.0174883 0 9.27554e-12 0.0677667
0.0174886 1.35525e-20 6.91564e-05 -0.0101498
-0.0174886 0 6.91614e-05 0.0677668
-0.0174525 2.25875e-21 0.00183359 0.0677631
0.0174525 1.12938e-21 0.0018336 -0.0101498
-0.0171558 -4.06576e-20 0.00376044 0.0677467
0.0171561 0 0.00376058 -0.0101495
-0.0174398 2.25875e-21 0.00252756 0.0677626
0.0174399 5.64689e-21 0.0025276 -0.0101498
-0.0172703 0 0.00381189 0.0677631
0.0172706 1.35525e-20 0.003812 -0.01015
-0.0173099 -1.35525e-20 0.00368922 0.067763
0.0173101 0 0.00368943 -0.01015
-0.0174177 -7.52918e-22 0.0032729 0.0677594
0.0174179 -1.12938e-21 0.00327297 -0.0101498
0.0177262 0 0.000264495 -0.0101501
-0.0177263 -2.71051e-20 0.000264494 0.067775
0.017753 -2.71051e-20 0.000830849 -0.0101503
-0.017753 0 0.000830841 0.0677682
-0.0177739 0 0.00146634 0.0677776
0.0177739 2.71051e-20 0.00146635 -0.0101502
-0.0174674 0 0.00388874 0.0677564
0.0174675 -6.77626e-21 0.0038888 -0.0101499
-0.0177697 0 0.00215829 0.0677733
0.0177697 2.71051e-20 0.0021583 -0.0101502
-0.0175192 6.77626e-21 0.0039114 0.0677543
0.0175194 0 0.00391155 -0.0101499
-0.0175515 0 0.00385282 0.0677537
0.0175519 0 0.00385278 -0.0101499
-0.0177417 0 0.00287714 0.0677781
0.0177418 -2.71051e-20 0.0028772 -0.0101503
0.017981 -6.77626e-21 1.39444e-12 -0.0101503
-0.017981 -6.77626e-21 1.3943e-12 0.0677878
0.0179821 0 5.25103e-05 -0.0101503
-0.0179821 -6.77626e-21 5.25107e-05 0.0677878
-0.0175795 2.03288e-20 0.00394118 0.0677609
0.01758 -1.35525e-20 0.00394143 -0.0101501
-0.0176602 6.02335e-21 0.00367713 0.0677506
0.0176605 0 0.00367727 -0.0101499
0.0180463 0 7.99282e-13 -0.0101504
-0.0180463 -6.77626e-21 7.99057e-13 0.0677894
0.0180587 1.12938e-21 0.000513287 -0.0101505
-0.0180587 0 0.000513287 0.0677831
0.0181036 0 4.49211e-05 -0.0101504
-0.0181036 0 4.4918e-05 0.0677956
0.0181054 0 7.64381e-13 -0.0101504
-0.0181054 6.77626e-21 7.64199e-13 0.0677955
0.0181063 -9.03502e-22 0.00109871 -0.0101507
-0.0181063 9.03502e-22 0.00109871 0.0677868
-0.0181013 0 0.00178214 0.0677811
0.0181014 1.69407e-21 0.00178215 -0.0101508
-0.0180751 0 0.002514 0.0677768
0.0180751 -3.38813e-21 0.00251403 -0.0101507
-0.0177928 1.35525e-20 0.00406344 0.0677706
0.0177931 1.35525e-20 0.00406363 -0.0101504
-0.0178461 1.35525e-20 0.00400264 0.0677733
0.0178465 0 0.00400286 -0.0101504
-0.018018 4.51751e-21 0.00326638 0.0677797
0.0180181 2.25875e-21 0.00326648 -0.0101506
0.0183484 0 0.000235241 -0.0101506
-0.0183484 0 0.000235238 0.0678082
-0.0178962 0 0.00412302 0.0677761
0.0178965 0 0.00412318 -0.0101505
0.0183932 -2.71051e-20 0.000764488 -0.0101508
-0.0183932 0 0.000764489 0.0677822
-0.0180569 -2.03288e-21 0.00374603 0.0677801
0.0180571 -1.807e-21 0.00374614 -0.0101507
-0.0184338 -2.71051e-20 0.00138083 0.0678121
0.0184338 0 0.00138083 -0.0101514
-0.0184038 5.42101e-20 0.00212475 0.0677631
0.0184038 -2.71051e-20 0.00212477 -0.0101511
-0.0185327 3.38813e-21 3.11486e-13 0.0678088
0.0185329 -3.38813e-21 3.11329e-13 -0.0101513
-0.0180751 -1.35525e-20 0.00422612 0.0677837
0.0180753 -1.35525e-20 0.00422622 -0.0101507
-0.0183783 -2.71051e-20 0.00286013 0.0677904
0.0183783 0 0.00286017 -0.010151
0.0186585 3.95282e-21 0.000460868 -0.0101514
-0.0186585 -3.95282e-21 0.000460863 0.0678107
-0.0181758 0 0.00428412 0.0677883
0.0181761 0 0.00428433 -0.0101508
-0.0182334 -4.51751e-21 0.00409678 0.0677908
0.0182336 4.51751e-21 0.00409694 -0.0101509
-0.0183787 0 0.00352164 0.0677887
0.0183789 0 0.00352172 -0.010151
-0.018738 0 2.24787e-13 0.0678161
0.018738 0 2.24588e-13 -0.0101516
-0.0187383 3.38813e-21 1.8583e-05 0.0678161
0.0187383 0 1.85606e-05 -0.0101516
-0.0187394 0 0.000144294 0.0678161
0.0187394 0 0.000144153 -0.0101517
-0.0187637 0 5.2385e-14 0.067817
0.0187638 0 5.23963e-14 -0.0101517
0.018782 3.38813e-21 1.5237e-05 -0.0101518
-0.018782 -3.38813e-21 1.52548e-05 0.0678155
0.0187834 -3.38813e-21 4.17921e-14 -0.0101518
-0.0187835 -6.77626e-21 4.17719e-14 0.0678155
0.0187414 5.64689e-23 0.00174786 -0.0101516
-0.0187414 0 0.00174787 0.0678025
0.0188423 3.38813e-21 3.05852e-14 -0.0101519
-0.0188424 -3.38813e-21 3.05567e-14 0.0678185
-0.0188306 4.51751e-21 0.000951028 0.0678129
0.0188306 -9.03502e-21 0.000951028 -0.0101518
-0.0183689 -2.71051e-20 0.00439542 0.0677974
0.0183691 -2.71051e-20 0.00439559 -0.0101511
-0.0187534 -4.03349e-23 0.00244424 0.067806
0.0187534 -3.22679e-22 0.00244427 -0.0101516
-0.0186869 0 0.00320185 0.0678051
0.018687 0 0.00320189 -0.0101515
-0.0184805 1.35525e-20 0.00445982 0.0678293
0.0184807 0 0.00445997 -0.0101517
-0.0185301 -1.35525e-20 0.00433158 0.0678259
0.0185303 1.35525e-20 0.00433174 -0.0101516
-0.0186603 -3.76459e-22 0.00393311 0.0678087
0.0186605 -1.12938e-21 0.0039332 -0.0101515
0.0191245 0 0.000340867 -0.0101544
-0.0191245 -1.12938e-21 0.000340856 0.067859
0.0192203 -1.35525e-20 9.46707e-15 -0.0101544
-0.0192204 1.35525e-20 9.45324e-15 0.0678566
-0.0191646 0 0.00146339 0.0677894
0.0191646 0 0.00146338 -0.0101518
-0.0190143 0 0.00283781 0.0678155
0.0190144 2.71051e-20 0.00283783 -0.010152
-0.0186819 0 0.00457601 0.0678139
0.0186821 0 0.00457612 -0.0101515
-0.0187038 0 0.00458864 0.0678123
0.018704 1.69407e-21 0.00458877 -0.0101515
-0.01916 -2.71051e-20 0.00195783 0.0678499
0.01916 -5.42101e-20 0.00195783 -0.0101522
-0.0187217 0 0.00456119 0.0678112
0.0187219 0 0.00456127 -0.0101515
-0.0187284 1.01644e-20 0.00460285 0.0678153
0.0187286 1.01644e-20 0.00460299 -0.0101516
-0.0189854 2.71051e-20 0.00354614 0.0678252
0.0189855 -2.71051e-20 0.00354618 -0.0101519
-0.0188773 -7.52918e-21 0.00434122 0.0677995
0.0188775 4.51751e-21 0.00434132 -0.0101514
-0.0193797 0 0.000837434 0.0678358
0.0193798 0 0.000837383 -0.0101532
-0.0193834 2.11758e-21 0.00085584 0.0678346
0.0193835 2.11758e-21 0.000855835 -0.0101531
-0.0194038 -1.27055e-21 0.000856716 0.067835
0.0194039 -1.27055e-21 0.000856714 -0.0101531
0.0194237 0 1.54975e-15 -0.0101537
-0.0194238 -1.35525e-20 1.53986e-15 0.0678265
-0.0193729 0 0.00169001 0.0678349
0.0193729 0 0.00169001 -0.0101524
-0.0193777 -7.05861e-22 0.00244586 0.0678449
0.0193778 -1.41172e-22 0.00244587 -0.0101526
-0.0189667 1.35525e-20 0.0047403 0.067822
0.0189668 -1.35525e-20 0.00474041 -0.0101519
-0.0193197 -3.38813e-21 0.00318402 0.0678346
0.0193198 1.12938e-21 0.00318404 -0.0101524
-0.0190326 1.35525e-20 0.0046715 0.0678238
0.0190327 0 0.00467159 -0.010152
-0.0195819 0 0.00142153 0.0678473
0.019582 2.71051e-20 0.00142152 -0.0101527
-0.019255 2.25875e-21 0.00392942 0.0678275
0.019255 0 0.00392947 -0.0101522
-0.019653 0 3.99218e-16 0.0678082
0.019653 2.03288e-20 4.03295e-16 -0.0101539
-0.0195685 0 0.00193727 0.0678478
0.0195685 -2.71051e-20 0.00193726 -0.0101527
-0.0190798 2.71051e-20 0.00480552 0.0678262
0.0190799 0 0.00480561 -0.010152
-0.0197213 0 0.000269929 0.0678103
0.0197213 2.25875e-21 0.000269962 -0.0101538
-0.0192752 2.25875e-21 0.00441197 0.067824
0.0192754 -1.807e-21 0.00441204 -0.0101522
0.0198342 0 4.71809e-16 -0.0101538
-0.0198343 3.38813e-21 4.68214e-16 0.0678157
-0.0192473 0 0.00490218 0.067824
0.0192474 -6.77626e-21 0.00490225 -0.0101522
-0.0196698 -2.71051e-20 0.00278692 0.0678539
0.0196698 -2.71051e-20 0.00278693 -0.0101529
-0.0196163 2.71051e-20 0.00353247 0.0678455
0.0196163 2.71051e-20 0.0035325 -0.0101527
-0.019321 -3.38813e-20 0.00494469 0.0678276
0.0193211 -6.77626e-21 0.00494477 -0.0101523
-0.0194215 -4.51751e-21 0.00475386 0.06783
0.0194216 -1.35525e-20 0.00475393 -0.0101524
-0.0200351 0 -3.29861e-17 0.0678334
0.0200352 0 -3.30812e-17 -0.0101536
-0.0200397 8.47033e-22 0.000879744 0.0678477
0.0200398 -8.47033e-22 0.000879732 -0.0101535
-0.0196209 0 0.00418606 0.0678229
0.0196209 2.71051e-20 0.0041861 -0.0101526
-0.0200081 0 0.00168408 0.0678584
0.0200082 -2.82344e-22 0.00168407 -0.0101532
-0.0200926 0 6.73549e-05 0.067834
0.0200928 0 6.74599e-05 -0.0101535
-0.0200965 0 -7.17225e-19 0.067834
0.0200967 0 -7.66423e-19 -0.0101535
-0.0201334 0 8.63193e-18 0.0678416
0.0201336 1.35525e-20 8.60253e-18 -0.0101536
-0.019508 -1.35525e-20 0.00505259 0.06784
0.0195081 -2.71051e-20 0.00505265 -0.0101526
-0.0200346 1.12938e-21 0.00229471 0.067856
0.0200346 -2.25875e-21 0.0022947 -0.0101533
-0.0199605 -2.03288e-21 0.00311687 0.0678498
0.0199605 -2.03288e-21 0.00311687 -0.0101532
-0.0202249 0 6.9338e-05 0.0678594
0.0202254 1.35525e-20 6.9446e-05 -0.0101539
-0.0202304 0 -1.76858e-17 0.0678594
0.0202308 0 -1.76992e-17 -0.0101539
-0.0199313 -1.12938e-21 0.0038555 0.0678396
0.0199314 1.12938e-21 0.00385553 -0.0101531
-0.0196734 -1.35525e-20 0.00514806 0.0678971
0.0196735 2.03288e-20 0.00514812 -0.0101532
-0.0198941 3.61401e-21 0.00456699 0.0678477
0.0198942 2.71051e-21 0.00456703 -0.0101531
-0.0197657 6.77626e-21 0.00520128 0.0678975
0.0197658 -1.35525e-20 0.00520135 -0.0101533
-0.0198217 0 0.00501122 0.0678896
0.0198218 0 0.00501128 -0.0101533
-0.0202896 -2.71051e-20 0.00277321 0.0678512
0.0202896 0 0.00277322 -0.0101535
-0.0202612 -2.71051e-20 0.00349053 0.0678468
0.0202612 2.71051e-20 0.00349054 -0.0101535
-0.0199064 0 0.00528243 0.0678519
0.0199065 0 0.0052825 -0.0101531
-0.020245 0 0.0041794 0.0678432
0.0202451 2.71051e-20 0.00417943 -0.0101534
-0.0206572 0 0.00171988 0.0678684
0.0206573 5.42101e-20 0.00171988 -0.010154
-0.0201293 -1.50584e-21 0.00498603 0.0678616
0.0201293 -1.50584e-21 0.00498607 -0.0101535
-0.0200531 0 0.00536707 0.0678345
0.0200531 -6.77626e-21 0.00536711 -0.0101532
0.0206314 7.05861e-23 0.00242248 -0.0101541
-0.0206314 1.41172e-22 0.0024225 0.0678678
-0.0207755 -5.42101e-20 0.00051497 0.0679275
0.0207756 0 0.000514975 -0.0101547
-0.0205987 0 0.00311579 0.0678577
0.0205987 5.64689e-22 0.00311579 -0.010154
-0.0203104 -2.71051e-20 0.00476269 0.0678512
0.0203105 -2.71051e-20 0.00476272 -0.0101537
-0.0201708 1.35525e-20 0.00543499 0.0678364
0.0201709 2.71051e-20 0.00543504 -0.0101533
-0.0202176 -9.03502e-21 0.00527687 0.0678448
0.0202177 -4.51751e-21 0.00527691 -0.0101534
-0.0205738 -3.38813e-21 0.0038174 0.0678523
0.0205738 -1.12938e-21 0.00381741 -0.0101539
-0.0205818 2.25875e-21 0.00447088 0.0678629
0.0205819 -1.12938e-21 0.0044709 -0.0101539
-0.0203369 2.71051e-20 0.00553082 0.0678673
0.020337 1.35525e-20 0.00553084 -0.0101536
-0.0209426 0 0.00274702 0.0678843
0.0209426 0 0.00274701 -0.0101546
-0.0209032 -2.71051e-20 0.00344945 0.0678493
0.0209032 -2.71051e-20 0.00344946 -0.0101544
-0.0204446 1.35525e-20 0.00559295 0.0679296
0.0204447 1.35525e-20 0.00559297 -0.0101541
-0.0204857 0 0.00548988 0.0679192
0.0204858 0 0.0054899 -0.0101541
-0.0206003 -1.50584e-21 0.00512926 0.0678761
0.0206004 2.25875e-21 0.00512929 -0.010154
-0.0208994 2.71051e-20 0.00412603 0.0678687
0.0208995 2.71051e-20 0.00412604 -0.0101543
-0.0213129 0 8.97567e-05 0.0679291
0.0213129 2.71051e-20 8.97114e-05 -0.0101553
-0.0213195 0 -2.89258e-18 0.0679292
0.0213195 2.71051e-20 -2.81088e-18 -0.0101553
-0.0213562 0 0.00112757 0.0679055
0.0213563 -4.51751e-21 0.00112758 -0.0101551
-0.0206271 0 0.00569824 0.0678941
0.0206272 0 0.00569827 -0.010154
-0.0208932 0 0.00478634 0.0678885
0.0208932 -2.71051e-20 0.00478636 -0.0101544
-0.0213143 0 0.00228576 0.06789
0.0213143 2.25875e-21 0.00228575 -0.0101549
-0.0214402 -1.35525e-20 1.08036e-18 0.067922
0.0214402 0 1.08377e-18 -0.0101553
-0.0206783 -6.77626e-21 0.00572779 0.0678851
0.0206784 0 0.00572782 -0.010154
0.0212371 5.64689e-22 0.00307352 -0.0101548
-0.0212371 0 0.00307353 0.0678814
-0.0207149 -6.77626e-21 0.00567146 0.067878
0.0207149 3.38813e-21 0.00567151 -0.010154
-0.0207374 -1.35525e-20 0.00576188 0.0679043
0.0207375 0 0.0057619 -0.0101542
-0.0208292 1.05409e-20 0.00551236 0.0678529
0.0208293 1.50584e-21 0.0055124 -0.0101539
0.0215471 1.35525e-20 0.000109109 -0.0101554
-0.0215472 0 0.000109168 0.067921
0.0215567 -1.35525e-20 9.64873e-19 -0.0101554
-0.0215568 -1.35525e-20 9.62153e-19 0.0679212
-0.0212592 -3.5293e-22 0.00373092 0.0678774
0.0212592 0 0.00373093 -0.0101549
-0.0212041 1.12938e-21 0.0044583 0.0678899
0.0212042 3.38813e-21 0.00445832 -0.0101548
-0.0209534 -1.35525e-20 0.00588666 0.0679202
0.0209535 0 0.00588668 -0.0101545
-0.0211675 2.25875e-21 0.00514627 0.0679121
0.0211675 2.25875e-21 0.0051463 -0.0101547
-0.0210047 0 0.00583277 0.0679232
0.0210048 0 0.0058328 -0.0101545
-0.0216644 0 0.00284436 0.0678956
0.0216644 0 0.00284436 -0.0101552
-0.0210554 0 0.00594571 0.0679396
0.0210555 0 0.00594574 -0.0101546
-0.0216615 2.71051e-20 0.00329946 0.0678978
0.0216616 2.71051e-20 0.00329946 -0.0101553
-0.0215296 0 0.00411133 0.0678869
0.0215297 2.71051e-20 0.00411133 -0.0101553
-0.0212153 7.52316e-38 0.0055934 0.067931
0.0212154 1.35525e-21 0.00559344 -0.0101548
-0.0219545 -5.42101e-20 0.00177021 0.0679074
0.0219546 0 0.0017702 -0.0101557
-0.0220218 0 0.000571119 0.0679193
0.0220218 -5.42101e-20 0.000571112 -0.0101559
-0.0215067 -2.71051e-20 0.00478713 0.0679152
0.0215068 0 0.00478717 -0.0101552
-0.0219097 1.12938e-21 0.00242093 0.0679077
0.0219097 1.12938e-21 0.00242091 -0.0101557
-0.021227 0 0.00604562 0.0679564
0.0212271 0 0.00604568 -0.0101548
-0.021872 1.35525e-20 0.00306771 0.0679013
0.0218721 -1.35525e-20 0.00306771 -0.0101557
-0.0215266 -2.71051e-20 0.00539884 0.0679439
0.0215266 2.71051e-20 0.00539887 -0.0101551
-0.021392 4.51751e-21 0.0059417 0.0679665
0.0213921 -9.03502e-21 0.00594175 -0.010155
-0.0218838 1.69407e-21 0.00375446 0.0678945
0.0218838 5.64689e-22 0.00375445 -0.0101557
-0.0213574 -2.03288e-20 0.0061213 0.0679733
0.0213575 -1.35525e-20 0.00612135 -0.010155
-0.0218345 -2.25875e-21 0.00443966 0.0679053
0.0218345 -4.51751e-21 0.00443967 -0.0101556
-0.0221011 2.71051e-20 0.00283878 0.067908
0.0221011 2.71051e-20 0.00283879 -0.0101559
-0.0220656 2.71051e-20 0.0032889 0.0678935
0.0220656 -2.71051e-20 0.0032889 -0.0101559
-0.0218182 2.25875e-21 0.00510345 0.0679435
0.0218183 3.38813e-21 0.00510348 -0.0101556
-0.0215448 0 0.00623066 0.0680097
0.0215449 0 0.00623073 -0.0101552
-0.0225383 0 9.17545e-05 0.0679324
0.0225385 -1.35525e-20 9.1676e-05 -0.0101565
-0.0225403 1.35525e-20 1.77349e-19 0.0679325
0.0225405 0 1.79243e-19 -0.0101565
-0.0216442 -1.35525e-20 0.00630958 0.068104
-0.0221735 -2.71051e-20 0.00407696 0.0678902
0.0221736 0 0.00407697 -0.0101559
0.0216443 0 0.00630967 -0.0101557
-0.0216896 -1.35525e-20 0.00619113 0.0680822
0.0216897 -1.35525e-20 0.0061912 -0.0101557
-0.0218102 -1.50584e-21 0.00580095 0.0679992
0.0218103 -3.76459e-22 0.00580099 -0.0101556
-0.0225989 4.51751e-21 0.00115697 0.0679279
0.0225989 0 0.00115697 -0.0101566
-0.0226373 -1.35525e-20 8.07456e-20 0.0679341
0.0226374 0 8.21344e-20 -0.0101566
-0.0221352 0 0.00476855 0.0679291
0.0221353 -2.71051e-20 0.00476855 -0.0101559
-0.022582 2.25875e-21 0.00236337 0.0679192
0.022582 9.03502e-21 0.00236337 -0.0101566
-0.022501 0 0.00305827 0.0679117
0.022501 0 0.00305827 -0.0101565
-0.0225096 4.23516e-22 0.00305557 0.0679118
0.0225095 0 0.00306051 -0.0101565
-0.0227256 1.35525e-20 8.82314e-05 0.0679358
0.0227256 0 8.81536e-05 -0.0101567
-0.0227308 0 3.0902e-20 0.067936
0.0227308 -1.35525e-20 3.15503e-20 -0.0101567
-0.0218386 1.69407e-21 0.00644697 0.0680486
0.0218387 0 0.00644705 -0.0101556
-0.0221178 -2.71051e-20 0.00543871 0.0679847
0.0221179 0 0.00543874 -0.010156
-0.0218565 0 0.0064596 0.0680449
0.0218566 1.69407e-21 0.00645967 -0.0101556
-0.0218725 0 0.00643778 0.0680404
0.0218726 0 0.00643786 -0.0101556
-0.0218744 8.47033e-21 0.00647346 0.0680538
0.0218745 -1.52466e-20 0.00647351 -0.0101556
-0.0225287 -4.51751e-22 0.00364569 0.0679052
0.0225287 0 0.00364569 -0.0101564
-0.0224649 -5.64689e-22 0.00441819 0.0679186
0.022465 -5.64689e-22 0.00441819 -0.0101563
-0.0220385 1.50584e-21 0.00622588 0.0679893
0.0220386 -1.50584e-21 0.00622593 -0.0101555
-0.0224373 2.25875e-21 0.00510163 0.0679683
0.0224374 0 0.00510165 -0.0101564
-0.022069 1.35525e-20 0.00662862 0.0680663
0.0220691 -1.35525e-20 0.00662868 -0.0101559
-0.0221728 -1.35525e-20 0.00656826 0.0680753
0.0221729 0 0.00656832 -0.010156
-0.0223901 6.77626e-21 0.00581142 0.0680365
0.0223902 4.51751e-21 0.00581146 -0.0101563
-0.0227864 5.42101e-20 0.00407104 0.0679089
0.0227864 2.71051e-20 0.00407104 -0.0101568
-0.0221653 -1.35525e-20 0.00670524 0.0680893
0.0221653 0 0.0067053 -0.010156
-0.0232274 -5.42101e-20 0.000581689 0.0679479
0.0232275 5.42101e-20 0.000581683 -0.0101574
-0.0227665 2.71051e-20 0.00474854 0.0679467
0.0227666 2.71051e-20 0.00474855 -0.0101568
-0.0231993 5.42101e-20 0.00176869 0.0679368
0.0231993 0 0.00176868 -0.0101574
-0.0222608 -1.35525e-20 0.00678083 0.0681744
0.0222609 -1.35525e-20 0.0067809 -0.0101563
-0.0223061 1.35525e-20 0.00667609 0.0681564
0.0223061 0 0.00667615 -0.0101564
-0.0224559 6.45358e-22 0.00637515 0.0680954
0.0224559 4.03349e-22 0.00637519 -0.0101564
-0.023153 -5.42101e-20 0.00306262 0.067922
0.023153 -5.42101e-20 0.00306262 -0.0101573
-0.0227373 -2.71051e-20 0.00543368 0.0680111
0.0227374 0 0.0054337 -0.0101568
-0.0231517 9.41148e-23 0.00371753 0.067934
0.0231516 -2.82344e-22 0.00371939 -0.0101572
-0.0224505 -1.69407e-21 0.00693112 0.068139
0.0224506 0 0.00693119 -0.0101564
-0.0230941 -1.12938e-21 0.00439939 0.0679548
0.0230941 5.64689e-22 0.00439939 -0.0101572
-0.0224718 0 0.00694795 0.0681358
0.0224719 -1.69407e-21 0.00694801 -0.0101564
-0.0224913 1.69407e-21 0.00692543 0.0681313
0.0224914 1.69407e-21 0.00692549 -0.0101564
-0.0227469 2.71051e-20 0.00606425 0.0680822
0.0227469 -2.71051e-20 0.00606427 -0.0101567
-0.0224924 -8.47033e-21 0.0069643 0.0681423
0.0224925 -1.18585e-20 0.00696434 -0.0101565
-0.0230702 -3.38813e-21 0.00507678 0.0679999
0.0230702 -3.38813e-21 0.00507679 -0.0101572
-0.0226501 3.01167e-21 0.00674888 0.0680908
0.0226501 -6.02335e-21 0.0067489 -0.0101565
-0.0230547 0 0.00573921 0.0680594
0.0230547 3.38813e-21 0.00573922 -0.0101571
-0.0237727 1.35525e-20 6.94911e-05 0.0679619
0.0237729 0 6.94154e-05 -0.0101581
-0.0237733 0 3.56784e-20 0.0679619
0.0237735 0 3.62133e-20 -0.0101581