# U  POINT_DATA 15411
# x  y  z  U_x  U_y  U_z
-1.35525e-20 0.015557 5.70113e-08 0 0 0
1.35525e-20 -0.015557 5.70113e-08 0 0 0
0 -0.015557 0.000135955 0 0 0
6.77626e-21 0.015557 0.000135978 0 0 0
0 -0.015557 0.000527091 0 0 0
-6.77626e-21 0.015557 0.000527192 0 0 0
0 -0.015557 0.000659598 0 0 0
0 0.015557 0.00065972 0 0 0
-6.77626e-21 -0.015557 0.000798595 0 0 0
0 0.015557 0.000798713 0 0 0
-6.77626e-21 -0.0155569 0.00121618 0 0 0
-6.77626e-21 0.0155569 0.00121632 0 0 0
0 -0.0155569 0.0013548 0 0 0
-6.77626e-21 0.0155569 0.00135493 0 0 0
0 -0.0156159 6.66059e-05 0.000728364 -0.000917872 -1.34555e-06
-6.77626e-21 0.0156159 6.66205e-05 2.05873e-06 -3.10827e-06 -1.26888e-07
6.77626e-21 -0.015617 5.86706e-08 0 0 0
6.77626e-21 0.015617 5.86703e-08 0 0 0
0 -0.0156133 0.000594009 0.000697455 -0.000878922 -1.28845e-06
0 0.0156134 0.000594136 1.97134e-06 -2.97633e-06 -1.21502e-07
0 -0.0156101 0.000720993 0.00129915 -0.00158553 -7.2763e-07
6.77626e-21 0.0156101 0.000721135 3.1581e-05 -3.67677e-05 -4.02317e-07
0 -0.0155569 0.00150202 0 0 0
-6.77626e-21 0.0155569 0.00150211 0 0 0
6.77626e-21 -0.0156099 0.00127802 0.0012932 -0.00157827 -7.24297e-07
0 0.0156099 0.00127818 3.14353e-05 -3.65981e-05 -4.00461e-07
6.77626e-21 -0.0156067 0.00140494 0.00116183 -0.00142618 -4.40477e-05
0 0.0156067 0.00140508 3.12396e-05 -3.69436e-05 1.08742e-06
6.77626e-21 -0.0156758 6.25745e-08 0 0 0
6.77626e-21 0.0156759 6.25738e-08 0 0 0
0 -0.0155569 0.00193256 0 0 0
-6.77626e-21 0.015557 0.00193259 0 0 0
1.35525e-20 -0.0156643 0.000653665 0.00197912 -0.00227282 3.06957e-05
2.71051e-20 0.0156643 0.000653856 3.12455e-05 -3.6633e-05 -2.77217e-07
-6.77626e-21 0.015557 0.002087 0 0 0
6.77626e-21 -0.015557 0.002087 0 0 0
1.35525e-20 -0.0156581 0.00132517 0.00260473 -0.00302315 -1.28408e-05
0 0.0156581 0.00132537 6.11005e-05 -7.10524e-05 -7.84255e-08
6.77626e-21 0.0156109 0.00197559 3.38833e-05 -4.007e-05 1.17944e-06
0 -0.0156109 0.00197556 0.00126009 -0.0015468 -4.7773e-05
-6.77626e-21 -0.01562 0.00210848 0 0 0
-6.77626e-21 0.01562 0.00210848 0 0 0
6.77626e-21 0.0156426 0.00205606 3.44319e-05 -3.75988e-05 1.34863e-06
0 -0.0156426 0.00205603 0.00142121 -0.00163763 -4.81474e-05
-6.77626e-21 0.0156707 0.00197917 6.18934e-05 -7.22037e-05 8.15787e-07
0 -0.0156707 0.00197909 0.00255026 -0.00295227 -0.000109437
1.35525e-20 -0.0156949 0.00213398 0 0 0
0 0.0156949 0.00213398 0 0 0
-3.38813e-20 -0.015885 7.41481e-08 0 0 0
-6.77626e-21 0.015885 7.41479e-08 0 0 0
-1.12938e-21 -0.01589 0.000347638 0.00426469 -0.00510065 -1.17185e-05
0 0.01589 0.000347812 3.29389e-05 -3.97973e-05 1.73935e-07
1.35525e-21 -0.0158834 0.000956224 0.0075891 -0.00900753 8.18256e-06
-1.807e-21 0.0158834 0.000956574 0.000158413 -0.000193458 1.49595e-08
1.50584e-21 -0.0158471 0.00154369 0.00706179 -0.00835722 -0.000106602
-3.76459e-21 0.0158471 0.00154397 0.000168459 -0.000201413 -2.14647e-06
5.64689e-22 0.0158414 0.00196399 0.000105054 -0.000131657 -1.32923e-06
0 -0.0158414 0.00196388 0.00439172 -0.00525229 -9.66648e-05
2.03288e-20 -0.015839 0.00218308 0 0 0
-6.77626e-21 0.015839 0.00218308 0 0 0
-1.35525e-20 -0.0159079 0.00220656 0 0 0
1.35525e-20 0.0159079 0.00220657 0 0 0
-2.25875e-21 -0.0160357 0.0016614 0.00975807 -0.0116981 -0.000149837
3.38813e-21 0.0160357 0.00166177 0.000241474 -0.00028977 -3.95333e-06
0 -0.0161336 1.64294e-05 0.00016911 -0.000203411 -1.44355e-06
-4.23516e-22 0.0161337 1.62936e-05 5.5102e-07 -6.53573e-07 -5.20175e-09
0 -0.0161343 5.30972e-08 0 0 0
4.23516e-22 0.0161345 5.3091e-08 0 0 0
1.35525e-20 -0.0159895 0.00223437 0 0 0
-2.71051e-20 0.0159895 0.00223438 0 0 0
0 -0.0161453 5.24536e-08 1.81182e-05 -2.09362e-05 -6.06124e-07
4.23516e-22 0.0161478 5.2446e-08 4.47838e-08 -4.58413e-08 7.36458e-10
-3.38813e-21 -0.0161363 0.000658379 0.00935563 -0.0111078 3.97465e-05
-3.38813e-21 0.0161363 0.000658899 0.000154158 -0.000186319 1.70329e-06
0 -0.0161079 0.00123674 0.0119208 -0.0141579 -9.2997e-06
-2.25875e-21 0.0161079 0.00123731 0.000278771 -0.000328083 -1.54798e-06
7.52918e-22 -0.0162278 0.00195621 0.00883213 -0.0106814 2.40612e-06
7.52918e-22 0.0162278 0.0019565 0.000226476 -0.000275392 -3.83996e-06
0 -0.0161978 0.00230533 0 0 0
0 0.016198 0.00230539 0 0 0
0 -0.0162561 0.00232518 0 0 0
-6.77626e-21 0.0162561 0.00232519 0 0 0
-6.77626e-21 0.016267 0.00230123 2.97277e-05 -3.1203e-05 6.64947e-07
0 -0.016267 0.00230114 0.00100254 -0.00119324 -2.94313e-05
-6.77626e-21 0.0162975 0.0022713 4.70017e-05 -5.61668e-05 -9.57328e-08
0 -0.0162976 0.0022711 0.00170429 -0.00205175 5.64541e-06
3.38813e-20 0.0162993 0.00233988 0 0 0
0 -0.0162994 0.00233991 0 0 0
-1.807e-20 0.0164712 0.000318829 3.12474e-05 -3.50624e-05 -3.73724e-10
0 -0.0164713 0.000318482 0.00653395 -0.00770254 -1.07772e-05
9.03502e-21 0.0164838 0.000934255 0.000326615 -0.000379356 -5.78572e-06
-4.51751e-21 -0.0164839 0.000933479 0.0154264 -0.0182686 6.68668e-05
-1.35525e-20 0.0165151 8.91806e-08 0 0 0
0 -0.0165152 8.91797e-08 0 0 0
-9.03502e-21 0.0164768 0.00151157 0.000409945 -0.000478271 -5.99031e-06
0 -0.0164769 0.00151091 0.0165038 -0.0196605 1.38438e-05
2.71051e-20 0.0166394 9.23356e-08 0 0 0
0 -0.0166395 9.23348e-08 0 0 0
1.35525e-20 0.0165053 0.00240993 0 0 0
-4.06576e-20 -0.0165054 0.00240993 0 0 0
2.71051e-20 0.0167038 0.000635453 0.000214636 -0.000247019 -3.70019e-06
-2.71051e-20 -0.0167039 0.000634624 0.0132388 -0.0153319 0.000111028
2.82344e-22 0.0165943 0.00217414 0.00024219 -0.0003134 -9.64193e-07
-3.10579e-21 -0.0165944 0.00217395 0.00810313 -0.010207 4.39669e-05
0 0.0167298 0.00122683 0.000452772 -0.000530504 -1.31307e-06
-5.42101e-20 -0.0167299 0.00122587 0.0189495 -0.0222356 3.39974e-05
2.71051e-20 0.0166885 0.00181396 0.000406467 -0.000474079 3.24242e-06
0 -0.0166886 0.00181342 0.0152653 -0.0179075 -0.000101391
0 -0.0166609 0.002463 0 0 0
0 0.0166609 0.00246301 0 0 0
0 0.0168423 7.09371e-08 0 0 0
-1.35525e-20 -0.0168424 7.09349e-08 0 0 0
0 0.0169749 0.000303028 2.9334e-05 -3.35475e-05 -6.95711e-07
-2.25875e-21 -0.016975 0.000302617 0.00817105 -0.00959012 0.000127517
0 0.0168731 0.00220951 0.000303038 -0.000362894 2.89755e-06
0 -0.0168731 0.0022093 0.0104973 -0.0126413 -0.000120545
0 0.016996 0.000918651 0.000434378 -0.000528873 2.72783e-06
0 -0.0169961 0.00091773 0.0200323 -0.0240917 8.86866e-05
-2.03288e-20 0.0168624 0.00253141 0 0 0
6.77626e-21 -0.0168624 0.00253143 0 0 0
4.51751e-21 0.0169886 0.00152444 0.000572246 -0.000694612 -1.00363e-06
-3.38813e-21 -0.0169887 0.00152368 0.0224589 -0.027168 0.000149788
-2.71051e-20 0.0170875 2.46042e-08 0 0 0
-1.35525e-20 -0.0170876 2.4598e-08 0 0 0
-4.51751e-21 0.0169822 0.0019947 0.000453394 -0.000540029 2.64521e-06
4.51751e-21 -0.0169822 0.00199432 0.0161824 -0.0192689 -5.94628e-05
-9.03502e-21 -0.0169517 0.00241974 0.00521732 -0.00608001 -0.000241817
4.51751e-21 0.0169517 0.00241984 0.00014359 -0.000166446 3.69608e-06
-2.03288e-20 -0.0169618 0.00256517 0 0 0
-2.71051e-20 0.0169619 0.0025652 0 0 0
-2.71051e-20 0.0172725 0.000609723 0.000259516 -0.000308322 -3.63929e-07
2.71051e-20 -0.0172727 0.000608854 0.0162543 -0.0190429 0.000115667
2.71051e-20 0.017301 3.8681e-09 0 0 0
2.71051e-20 -0.0173012 3.85985e-09 0 0 0
2.71051e-20 0.0172756 0.00121852 0.000580442 -0.000692961 -1.43419e-06
2.71051e-20 -0.0172759 0.00121756 0.0240192 -0.0284475 6.54069e-05
5.42101e-20 0.0172503 0.00183266 0.000576329 -0.000684062 -1.48019e-06
0 -0.0172504 0.00183216 0.0212517 -0.0250206 -5.71764e-05
-2.71051e-20 -0.0171626 0.00263335 0 0 0
0 0.0171626 0.00263335 0 0 0
0 0.0172628 0.00228364 0.000387392 -0.000456722 -1.13746e-06
-1.69407e-21 -0.0172628 0.00228347 0.0134832 -0.0159101 -9.19545e-05
-2.71051e-20 0.0175152 3.90385e-09 0 0 0
-1.35525e-20 -0.0175152 3.89758e-09 0 0 0
-2.25875e-21 0.0176167 0.000304206 3.53204e-05 -4.17597e-05 -4.00989e-08
-4.51751e-21 -0.0176168 0.0003039 0.00990601 -0.0116317 5.5375e-05
-1.12938e-21 0.0176138 0.000914405 0.000554076 -0.000657836 -9.01611e-07
7.90564e-21 -0.0176139 0.000913728 0.0249825 -0.0295584 6.30409e-05
-5.64689e-21 -0.0175987 0.00154607 0.0283878 -0.0337509 0.000123773
-1.12938e-21 0.0175986 0.00154661 0.000768245 -0.000913164 -4.05191e-06
-8.47033e-22 0.0174822 0.00274305 0 0 0
-1.52466e-20 -0.0174824 0.00274311 0 0 0
2.37169e-20 -0.0174953 0.00274748 0 0 0
-1.10114e-20 0.0174954 0.00274754 0 0 0
-1.35525e-20 0.0177276 5.30319e-09 0 0 0
0 -0.0177276 5.30115e-09 0 0 0
2.25875e-21 -0.0176266 0.0021181 0.0214752 -0.0254283 7.98832e-06
2.25875e-21 0.0176266 0.00211837 0.000620601 -0.000739503 -5.66542e-06
2.25875e-21 -0.0175734 0.00255388 0.00954224 -0.0111255 7.62507e-05
4.51751e-21 0.0175734 0.00255396 0.000269246 -0.000324315 -7.75496e-06
0 -0.0179395 5.3668e-09 0 0 0
0 0.0179395 5.36695e-09 0 0 0
0 0.0179446 0.000602116 0.000306924 -0.000364739 -7.15944e-08
-2.71051e-20 -0.0179448 0.000601729 0.0190656 -0.0225719 2.2676e-05
0 0.0179404 0.00122928 0.000736699 -0.000878009 -2.20757e-06
2.71051e-20 -0.0179405 0.00122883 0.0295877 -0.0350987 1.43061e-05
0 -0.0179 0.00190857 0.0265975 -0.0315896 -3.14922e-05
0 0.0179 0.00190883 0.00075468 -0.000904584 -3.22484e-06
-2.71051e-20 -0.0177925 0.00284977 0 0 0
-2.71051e-20 0.0177926 0.00284978 0 0 0
0 -0.0179476 0.00242616 0.0173762 -0.0205898 -3.71061e-05
-2.71051e-20 0.0179477 0.00242626 0.000517544 -0.000621773 -2.23648e-06
-2.71051e-20 -0.0181451 4.40312e-09 0 0 0
1.35525e-20 0.0181451 4.40323e-09 0 0 0
0 -0.0180151 0.00292661 0 0 0
0 0.0180152 0.00292666 0 0 0
4.51751e-21 0.0182715 0.000300951 5.74572e-05 -6.83073e-05 5.21971e-08
4.51751e-21 -0.0182716 0.000300824 0.0109399 -0.0129242 -1.87113e-05
4.51751e-21 0.0182775 0.000913256 0.000638766 -0.000760117 -3.38063e-07
-2.25875e-21 -0.0182775 0.000912982 0.0288939 -0.0340737 -3.84329e-05
1.12938e-20 -0.0182701 0.00156202 0.0337661 -0.0398824 -6.52293e-05
-2.25875e-21 0.0182702 0.00156226 0.000924023 -0.00110568 -3.0197e-06
2.25875e-21 -0.0182365 0.00214905 0.0280867 -0.0332212 -7.59544e-05
2.25875e-21 0.0182365 0.00214918 0.000812868 -0.00097964 -6.00588e-08
0 0.0181446 0.0029715 0 0 0
-6.77626e-21 -0.0181446 0.00297151 0 0 0
4.51751e-22 -0.018187 0.00270962 0.012076 -0.0141965 4.25516e-05
-9.03502e-22 0.018187 0.00270971 0.000362055 -0.000428159 -1.03945e-06
-1.35525e-20 0.0183922 2.43152e-09 0 0 0
1.35525e-20 -0.0183922 2.43142e-09 0 0 0
0 -0.0185886 1.4653e-09 0 0 0
0 0.0185886 1.46536e-09 0 0 0
2.71051e-20 -0.0183436 0.00304025 0 0 0
-2.71051e-20 0.0183438 0.00304031 0 0 0
2.71051e-20 0.0185996 0.000594964 0.000352392 -0.000419492 5.97375e-07
0 -0.0185997 0.000594844 0.0216369 -0.0255567 -6.03729e-05
-1.16165e-20 -0.0186737 0.00129279 0.0363734 -0.0429518 -0.000174451
0 0.0186737 0.00129292 0.000949036 -0.00113811 -2.18871e-06
-1.35525e-20 -0.0187703 1.23407e-09 0 0 0
-2.71051e-20 0.0187703 1.23411e-09 0 0 0
-2.71051e-20 -0.0185172 0.00309968 0 0 0
3.38813e-20 0.0185172 0.00309971 0 0 0
1.807e-20 0.0187147 0.00187627 0.00102047 -0.00122937 -3.64702e-06
9.03502e-21 -0.0187147 0.00187618 0.035503 -0.0419877 -0.000172168
-1.50584e-21 0.0186673 0.00253576 0.000675142 -0.000818077 -1.0075e-06
1.50584e-21 -0.0186673 0.00253569 0.021762 -0.02594 -9.20496e-05
-4.51751e-21 0.018823 0.000903617 0.000696672 -0.000830165 8.26554e-07
0 -0.018823 0.000903518 0.031871 -0.0375873 -0.000122474
6.77626e-21 0.0188705 0.000248278 4.77073e-05 -5.67487e-05 -1.11106e-07
-4.51751e-21 -0.0188706 0.000248244 0.010057 -0.0119472 -2.84739e-05
1.35525e-20 -0.0186433 0.00294006 0.00865912 -0.0107346 1.45904e-05
5.42101e-21 0.0186434 0.00294015 0.000307149 -0.000381632 -4.74075e-08
0 -0.0189391 0.0015442 0.0401151 -0.0473844 -0.000248236
0 0.018939 0.00154428 0.00111393 -0.0013409 -3.64407e-06
1.27055e-21 0.01877 0.00318707 9.8416e-07 -1.11234e-06 7.67602e-09
2.22346e-21 -0.0187697 0.00318691 2.53956e-05 -3.07184e-05 -3.99608e-07
0 -0.0188366 0.00285351 0.0141402 -0.0170435 -0.000125256
6.77626e-21 0.0188366 0.0028535 0.0004705 -0.00056179 9.73618e-07
1.35525e-20 0.0190684 6.42266e-10 0 0 0
0 -0.0190684 6.42229e-10 0 0 0
2.71051e-20 -0.0189469 0.0022033 0.0351506 -0.0415806 -0.000164737
0 0.0189469 0.00220336 0.00105541 -0.00127536 -5.1696e-06
0 -0.0189609 0.002942 0.0129961 -0.0156597 -0.000184181
6.77626e-21 0.018961 0.00294206 0.000442339 -0.000517298 2.10821e-06
0 -0.0192376 4.1695e-10 0 0 0
0 0.0192376 4.16977e-10 0 0 0
9.03502e-21 0.0192505 0.000578849 0.000381745 -0.000453859 6.94352e-07
-2.25875e-21 -0.0192506 0.000578823 0.0235015 -0.0277796 -0.000108689
6.77626e-21 0.0192653 0.00120345 0.000972057 -0.00116571 -1.39909e-06
-2.25875e-21 -0.0192654 0.00120342 0.0386541 -0.0456809 -0.000265897
6.77626e-21 -0.0192727 0.00186892 0.0398469 -0.04714 -0.000384275
-6.77626e-21 0.0192727 0.00186895 0.0011692 -0.00141214 -5.28404e-06
-1.35525e-20 -0.0190867 0.00329553 0 0 0
1.35525e-20 0.0190869 0.00329559 0 0 0
1.35525e-20 0.0193938 3.58667e-10 0 0 0
0 -0.0193938 3.58645e-10 0 0 0
1.35525e-20 0.0193936 0.000130558 2.81443e-06 -3.26826e-06 3.64406e-08
1.35525e-20 -0.0193936 0.000130549 0.00564598 -0.00673443 -3.4543e-05
0 -0.019134 0.00323281 0.00355497 -0.00424675 -7.96049e-05
0 0.0191342 0.00323291 0.000119617 -0.000145274 2.30988e-07
-2.25875e-21 -0.019259 0.0025456 0.0276913 -0.0328303 -0.000322804
-4.51751e-21 0.019259 0.00254567 0.000895633 -0.00108448 -3.13797e-06
2.71051e-20 -0.0192049 0.00333603 0 0 0
1.35525e-20 0.019205 0.00333606 0 0 0
-2.25875e-22 -0.0193216 0.00298789 0.0156611 -0.0185567 -0.000242221
-2.48463e-21 0.0193217 0.00298796 0.000539092 -0.000651286 -2.7743e-07
-2.71051e-20 0.0195688 0.0002809 5.83137e-06 -6.84791e-06 -4.43657e-08
2.71051e-20 -0.0195688 0.000280889 0.0119785 -0.014243 -4.62702e-05
0 0.019589 0.000871785 0.00079569 -0.000944444 1.42889e-06
2.71051e-20 -0.0195891 0.000871776 0.0369356 -0.0435963 -0.000198173
-2.71051e-20 0.019374 0.00328238 0.000188769 -0.000225381 -2.03941e-07
-2.71051e-20 -0.019374 0.00328231 0.00543963 -0.00623473 -0.000151155
2.71051e-20 0.0196057 0.00151362 0.00124437 -0.0015028 -5.36908e-06
0 -0.0196057 0.0015136 0.0438988 -0.0520442 -0.000474102
-1.35525e-20 0.0193742 0.00339401 0 0 0
2.71051e-20 -0.0193743 0.00339402 0 0 0
2.71051e-20 -0.0196062 0.00219166 0.040684 -0.0480905 -0.000651926
2.71051e-20 0.0196062 0.0021917 0.00127565 -0.00154444 -7.1289e-06
-1.35525e-20 0.0197445 1.18814e-10 0 0 0
0 -0.0197445 1.18805e-10 0 0 0
-1.35525e-20 0.0197496 0.000118775 2.56042e-06 -2.97329e-06 3.31518e-08
2.71051e-20 -0.0197497 0.000118768 0.0051365 -0.00612673 -3.14259e-05
0 -0.0196349 0.00277745 0.0263336 -0.0308455 -0.000406997
2.71051e-20 0.0196349 0.00277749 0.000909354 -0.00110062 -2.84099e-06
2.71051e-20 -0.0195953 0.00324393 0.0109428 -0.0125128 -0.000338886
1.35525e-20 0.0195954 0.00324399 0.000370997 -0.000441124 5.94392e-07
-1.35525e-20 0.0198868 6.23618e-11 0 0 0
1.35525e-20 -0.0198869 6.23578e-11 0 0 0
-2.25875e-21 0.0199025 0.000551659 0.000387874 -0.000462366 7.6994e-07
-2.25875e-21 -0.0199025 0.000551656 0.0244969 -0.0290277 -0.00010075
-1.35525e-20 -0.0196374 0.00348418 0 0 0
-2.71051e-20 0.0196377 0.00348428 0 0 0
0 0.0199263 0.001165 0.00103712 -0.0012492 -1.5494e-06
-1.12938e-21 -0.0199263 0.001165 0.0416214 -0.0492624 -0.000437727
1.35525e-20 -0.0197066 0.00339972 0.0052711 -0.00604157 -0.000146472
0 0.0197068 0.00339991 0.000182849 -0.000218313 -1.97546e-07
-1.35525e-20 0.0200175 0.000104914 2.44872e-06 -2.68494e-06 -1.82237e-07
0 -0.0200175 0.000104929 0.00471665 -0.00575492 6.87919e-05
0 0.020018 5.47771e-11 0 0 0
0 -0.0200181 5.47715e-11 0 0 0
0 -0.0199354 0.00184126 0.0443418 -0.052451 -0.000775465
-1.12938e-21 0.0199354 0.00184128 0.00133557 -0.00161694 -5.3956e-06
4.51751e-21 -0.0199396 0.00250633 0.0357498 -0.0418967 -0.000806204
2.25875e-21 0.0199397 0.00250637 0.00119151 -0.00144251 -5.35506e-06
-1.35525e-20 -0.0198049 0.00354152 0 0 0
-1.35525e-20 0.019805 0.00354156 0 0 0
1.12938e-21 -0.0199176 0.00307602 0.020149 -0.0232243 -0.000511553
-4.51751e-21 0.0199177 0.00307606 0.000709353 -0.000855429 -3.55602e-06
0 -0.0202108 0.000262556 0.0117024 -0.014132 0.000131174
2.71051e-20 0.0202108 0.00026255 5.89551e-06 -6.70331e-06 -5.7634e-07
0 0.0202372 0.000828992 0.000780936 -0.000934834 2.23015e-06
2.71051e-20 -0.0202372 0.000828987 0.0385572 -0.0455256 -0.000291428
0 0.0199792 0.00344752 0.000272826 -0.000323295 -5.41244e-07
-2.71051e-20 -0.0199793 0.00344738 0.0073845 -0.00826598 -0.000239549
-6.77626e-21 0.0199875 0.00360402 0 0 0
-1.35525e-20 -0.0199877 0.00360407 0 0 0
0 0.0202611 0.00146964 0.00134367 -0.00163284 -5.26693e-06
-2.71051e-20 -0.0202612 0.00146963 0.0474553 -0.0563023 -0.000792425
-2.71051e-20 -0.0202613 0.00216726 0.0455659 -0.0536393 -0.00119192
-5.42101e-20 0.0202614 0.00216729 0.00148595 -0.00179633 -4.06484e-06
-1.35525e-20 -0.020424 1.48352e-11 0 0 0
1.35525e-20 0.0204241 1.48335e-11 0 0 0
0 -0.0204263 8.83644e-05 0.00397207 -0.00484644 5.79323e-05
1.35525e-20 0.0204264 8.83482e-05 2.06207e-06 -2.26099e-06 -1.53462e-07
6.77626e-21 -0.0201259 0.00365139 0 0 0
2.71051e-20 -0.0202574 0.00283427 0.0319601 -0.0368286 -0.00104705
-2.71051e-20 0.0202575 0.00283433 0.00114341 -0.00138719 -7.28747e-06
6.77626e-21 0.0201264 0.00365156 0 0 0
0 -0.0202301 0.00346725 0.0103487 -0.0116254 -0.000286475
0 0.0202303 0.00346745 0.000378953 -0.000450586 -2.07198e-06
0 -0.0205367 8.07365e-12 0 0 0
0 0.0205367 8.07331e-12 0 0 0
4.51751e-21 -0.0205431 0.000507253 0.024094 -0.0283971 -0.000471633
-2.25875e-21 0.0205431 0.000507255 0.000365981 -0.00043264 -1.65086e-06
-2.25875e-21 0.0205806 0.00109812 0.00105288 -0.0012703 -2.94875e-06
0 -0.0205806 0.00109812 0.0429035 -0.0509488 -0.00069249
-1.35525e-20 0.0206332 7.23344e-05 1.20948e-06 -1.91838e-06 -1.11904e-06
-1.35525e-20 -0.0206332 7.23369e-05 0.00342655 -0.00371768 -0.000404991
0 0.0206362 7.47662e-12 0 0 0
-1.35525e-20 -0.0206362 7.47681e-12 0 0 0
1.35525e-20 -0.0203259 0.00371982 0 0 0
0 0.0203262 0.0037199 0 0 0
1.12938e-21 -0.0205919 0.0017924 0.0481557 -0.0569966 -0.00128245
-2.25875e-21 0.0205919 0.00179242 0.0014728 -0.00178894 -3.14227e-06
-4.51751e-21 -0.0205776 0.00251315 0.0411963 -0.0479993 -0.00151454
-3.38813e-21 0.0205776 0.00251319 0.00141698 -0.00171887 -3.78718e-06
-1.35525e-20 -0.0204397 0.00376151 0 0 0
1.35525e-20 0.0204398 0.00376155 0 0 0
-1.35525e-20 -0.0204727 0.00364916 0.00528098 -0.0062129 -0.000169672
-1.35525e-20 0.0204728 0.00364933 0.000226808 -0.000296097 -1.50281e-06
3.76459e-21 -0.0205733 0.00324403 0.0218934 -0.0250307 -0.000877205
0 0.0205734 0.00324407 0.00082337 -0.00100133 -2.95189e-06
0 0.0208433 0.000231582 4.81457e-06 -6.39874e-06 -2.12851e-06
2.71051e-20 -0.0208434 0.000231576 0.0108328 -0.0119616 -0.00101996
2.71051e-20 0.0208763 0.000747827 0.000718338 -0.000838089 -6.2732e-06
0 -0.0208763 0.000747825 0.0368303 -0.0437747 -0.000706199
-2.71051e-20 0.0209306 0.00137574 0.00139322 -0.00170215 -3.04516e-06
-2.71051e-20 -0.0209307 0.00137573 0.0491791 -0.0586885 -0.001002
1.35525e-20 0.0206256 0.00382198 0 0 0
1.35525e-20 -0.0206258 0.00382201 0 0 0
2.71051e-20 -0.0209017 0.00213763 0.0504861 -0.0594569 -0.00213385
-2.71051e-20 0.0209017 0.00213766 0.00166713 -0.00202339 -5.98157e-07
6.77626e-21 -0.0207137 0.00385275 0 0 0
6.77626e-21 0.0207139 0.00385285 0 0 0
0 -0.0208885 0.0028589 0.0379544 -0.0435076 -0.00175911
0 0.0208886 0.00285896 0.00140585 -0.00171082 -2.68974e-06
-1.35525e-20 -0.02076 0.00376312 0.00515726 -0.00585089 -0.000334236
6.77626e-21 0.0207604 0.00376287 0.000206895 -0.000236715 2.56979e-06
1.50584e-21 -0.0211429 0.000434515 0.0213624 -0.0251147 -0.000682082
-4.51751e-21 0.0211429 0.000434517 0.000242904 -0.00029461 1.34562e-07
2.25875e-21 -0.020841 0.00362678 0.0129497 -0.0146843 -0.000826212
-2.25875e-21 0.0208412 0.00362688 0.00052166 -0.000612361 4.41536e-06
6.77626e-21 -0.0208385 0.00389815 0 0 0
6.77626e-21 0.0208392 0.00389846 0 0 0
-2.96462e-21 0.0212597 5.23664e-13 0 0 0
-4.23516e-22 -0.0212598 5.24304e-13 0 0 0
-8.47033e-22 0.0212767 1.41034e-05 8.04285e-06 -9.90633e-06 -2.54187e-08
4.23516e-22 0.0212812 1.48332e-06 2.63455e-08 -2.53014e-08 1.23013e-08
8.89385e-21 -0.0212768 1.40587e-05 0.000692761 -0.000812716 -1.85852e-05
0 -0.0212769 1.7356e-06 4.91532e-05 -5.50604e-05 -1.72654e-07
0 0.0212896 2.69174e-13 0 0 0
0 -0.0212896 2.70632e-13 0 0 0
-1.69407e-21 0.0212724 0.000879015 0.000801515 -0.000983226 1.34019e-06
-1.8823e-22 -0.0212724 0.000879006 0.0368817 -0.0439824 -0.000921998
6.77626e-22 0.0212426 0.00171822 0.00155995 -0.00189831 1.4232e-06
1.35525e-21 -0.0212427 0.00171817 0.0510517 -0.0606239 -0.00180496
-3.38813e-21 -0.0212146 0.00249699 0.0463425 -0.0540497 -0.00233363
3.38813e-21 0.0212146 0.00249702 0.00164939 -0.00200485 -6.82991e-06
1.35525e-20 -0.0210353 0.00398137 0 0 0
1.35525e-20 0.0210356 0.00398151 0 0 0
-2.25875e-21 -0.021178 0.00323684 0.0287966 -0.0326063 -0.00178555
-2.25875e-21 0.0211781 0.00323695 0.00112975 -0.0013754 -5.54414e-06
1.35525e-20 -0.0210737 0.00393718 0.00290747 -0.0032332 -0.000230214
-2.71051e-20 0.0210739 0.00393742 0.000110179 -0.000135391 1.18598e-07
1.35525e-20 -0.0211187 0.00402023 0 0 0
0 0.0211188 0.00402028 0 0 0
9.68038e-22 -0.0212477 0.00368159 0.0168497 -0.0187701 -0.00121773
0 0.0212477 0.00368165 0.000676021 -0.000823598 -2.90361e-06
2.71051e-20 0.0215747 0.00130741 0.00143723 -0.00174796 2.11666e-05
2.71051e-20 -0.0215747 0.0013074 0.0520523 -0.0620811 -0.00156097
0 0.0212487 0.00397497 0.000195553 -0.000238684 -1.25719e-06
0 -0.0212488 0.00397483 0.00488736 -0.00529902 -0.000445078
6.77626e-21 0.0212528 0.00408536 0 0 0
-6.77626e-21 -0.021253 0.00408547 0 0 0
-2.25875e-21 0.0216407 0.000331745 3.9073e-05 -4.45892e-05 -2.13251e-05
0 -0.0216408 0.000331738 0.0159939 -0.0186379 -0.00056934
-2.71051e-20 0.0215441 0.00209933 0.00185015 -0.00225089 -1.08264e-05
0 -0.0215441 0.00209931 0.0546488 -0.0648081 -0.00267335
2.71051e-20 -0.0215224 0.00284519 0.0429595 -0.0492911 -0.00279237
-2.71051e-20 0.0215225 0.00284524 0.0016895 -0.00205301 -1.32217e-05
0 0.0217961 7.90662e-14 0 0 0
1.35525e-20 -0.0217961 7.93941e-14 0 0 0
0 -0.0215506 0.0034709 0.0283594 -0.0309647 -0.00231903
-2.71051e-20 0.0215507 0.00347098 0.00113816 -0.0013845 -1.11448e-05
4.06576e-20 -0.021496 0.00395182 0.0118042 -0.0129548 -0.00100445
2.71051e-20 0.0214961 0.00395191 0.000459853 -0.00055753 -1.75565e-06
0 -0.0214981 0.0042046 0 0 0
-6.77626e-21 0.0214986 0.00420483 0 0 0
0 0.0218605 0.00170496 0.00170855 -0.00208072 6.17181e-07
3.29402e-22 -0.0218606 0.0017049 0.0543953 -0.0649589 -0.00228775
-2.25875e-22 0.0219212 0.000827144 0.000759935 -0.000950166 5.0664e-06
-2.48463e-21 -0.0219212 0.00082713 0.0362859 -0.0433127 -0.00108682
-2.71051e-20 0.0219609 4.00731e-14 0 0 0
1.35525e-20 -0.021961 4.01624e-14 0 0 0
5.64689e-22 -0.0218494 0.00247004 0.0510852 -0.0598504 -0.00306776
-5.64689e-22 0.0218494 0.00247006 0.00188695 -0.00228922 -1.36495e-05
0 -0.0216144 0.0041396 0.00546588 -0.00592626 -0.000497762
1.35525e-20 0.0216146 0.0041399 0.000218873 -0.000267148 -1.40711e-06
0 -0.0216502 0.00427848 0 0 0
0 0.0216504 0.00427858 0 0 0
-5.64689e-22 -0.0218421 0.00317491 0.0386083 -0.0433131 -0.00305113
1.12938e-21 0.0218422 0.00317497 0.00154967 -0.00187869 -1.6288e-05
0 -0.0217324 0.0043183 0 0 0
0 0.0217325 0.00431833 0 0 0
0 -0.0217584 0.00423542 0.00397741 -0.00445386 -0.000363531
-1.35525e-20 0.0217584 0.00423558 0.000173954 -0.000223977 -2.0449e-06
0 0.0221732 2.80694e-14 0 0 0
0 -0.0221734 2.81206e-14 0 0 0
0 -0.0218663 0.00385214 0.0205641 -0.0221251 -0.00191292
-7.05861e-23 0.0218671 0.00385266 0.00082758 -0.00100081 -1.06292e-05
-2.71051e-20 0.0222021 0.00129535 0.00151601 -0.00186125 1.06571e-05
-2.71051e-20 -0.0222022 0.00129534 0.0533989 -0.0646869 -0.00175729
-3.5293e-23 -0.0222511 0.000329013 0.0179375 -0.0200536 -0.000473003
0 0.0222517 0.000329756 -1.4283e-05 -1.43916e-05 -1.36043e-05
-2.71051e-20 0.0221693 0.00208073 0.002038 -0.00247479 -1.66672e-05
0 -0.0221694 0.00208072 0.0587311 -0.0700569 -0.00317534
1.35525e-20 0.0218632 0.00438168 0 0 0
-1.35525e-20 -0.0218633 0.00438173 0 0 0
-6.77626e-21 -0.0223211 1.21337e-14 0 0 0
-2.03288e-20 0.0223211 1.20993e-14 0 0 0
2.71051e-20 -0.0221597 0.00282092 0.048285 -0.0556091 -0.00364386
0 0.0221597 0.00282095 0.00197618 -0.00238603 -1.40055e-05
-2.71051e-20 -0.0221457 0.00350906 0.036317 -0.0392328 -0.0035631
2.71051e-20 0.0221457 0.00350913 0.00145865 -0.00176872 -2.66574e-05
2.03288e-20 -0.0220147 0.00445519 0 0 0
-6.77626e-21 0.0220149 0.00445527 0 0 0
5.42101e-20 0.0225414 1.2233e-15 0 0 0
0 -0.0225415 1.22688e-15 0 0 0
-5.64689e-22 -0.0221394 0.00425953 0.0121068 -0.0122 -0.0015394
2.25875e-21 0.0221395 0.00425957 0.000473617 -0.000536384 -1.43883e-06
-8.47033e-22 0.0224964 0.00168457 0.00184722 -0.00223966 -3.77246e-06
4.23516e-21 -0.0224964 0.00168462 0.0565788 -0.068438 -0.00244198
1.10114e-20 0.0225019 0.00169156 0.00185102 -0.00224403 -3.99735e-06
4.23516e-22 -0.0225021 0.00168484 0.0566085 -0.0684764 -0.00244824
-4.23516e-22 -0.0225129 0.001688 0.0566274 -0.0685239 -0.00244857
0 0.0225131 0.001688 0.00185396 -0.00224698 -3.90049e-06
0 0.022576 0.000874286 0.000877034 -0.00107011 7.9882e-06
1.807e-21 -0.0225761 0.000874279 0.0381818 -0.0459424 -0.00113728
5.64689e-22 0.0225135 0.00242347 0.0020816 -0.00251197 -1.29676e-05
3.22679e-22 -0.0225135 0.0024234 0.054107 -0.063732 -0.00362719
1.12938e-21 -0.0224593 0.00318118 0.0451205 -0.0505483 -0.00429274
-3.38813e-21 0.0224593 0.00318122 0.00185385 -0.00223958 -1.54987e-05
0 -0.0223014 0.00459401 0 0 0
0 0.0223021 0.00459434 0 0 0
-2.71051e-21 -0.0224349 0.00390494 0.0281812 -0.0296303 -0.00325431
-5.87276e-21 0.0224349 0.00390503 0.00112075 -0.00134528 -1.51486e-05
-9.74088e-21 0.0228058 8.71796e-16 0 0 0
4.23516e-22 -0.022806 8.73835e-16 0 0 0
2.5411e-21 0.022811 2.493e-05 2.83088e-07 -7.07973e-07 -1.60798e-06
-4.23516e-22 -0.0228111 2.41514e-05 0.0012363 -0.00143194 -2.53632e-05
0 -0.0223411 0.0046132 0 0 0
3.38813e-21 0.0223413 0.00461331 0 0 0
0 -0.0228141 8.54706e-16 0 0 0
5.64689e-22 0.0228117 0.000334111 8.53853e-05 -0.000105589 -1.53622e-05
2.96462e-21 0.0228142 8.52135e-16 0 0 0
-2.25875e-21 -0.0228118 0.000334123 0.0170382 -0.0199503 -0.000379115
0 -0.0223469 0.00460662 0.000519537 -0.000518907 -7.97648e-05
-3.38813e-21 0.022347 0.00460681 1.76524e-05 -2.10501e-05 8.33303e-08
0 -0.0223544 0.00461967 0 0 0
0 0.0223545 0.00461971 0 0 0
0 -0.0223624 0.00458463 0.00180179 -0.00180939 -0.000239557
0 0.0223623 0.00458505 6.77527e-05 -8.01173e-05 -9.43002e-07
-1.69407e-21 0.0223809 0.00461205 3.93377e-05 -4.56914e-05 -1.07903e-06
0 -0.0223811 0.00461193 0.00098449 -0.000925588 -0.000115332
0 0.0223956 0.00463962 0 0 0
1.69407e-21 -0.022396 0.00463981 0 0 0
1.35525e-20 -0.0225313 0.00433152 0.0182674 -0.0183811 -0.00243982
0 0.0225314 0.00433163 0.000682501 -0.000796296 -7.46648e-06
0 -0.0227767 0.00282449 0.052879 -0.0610667 -0.00480043
5.42101e-20 0.0227767 0.00282452 0.00221483 -0.00266771 -9.99432e-06
2.71051e-20 0.0229169 0.00145352 0.00185005 -0.00222266 -1.52749e-06
2.71051e-20 -0.022917 0.00145354 0.0561236 -0.0691777 -0.00216929
0 0.0229127 0.00195201 0.00218457 -0.00262314 -1.00226e-05
2.71051e-20 -0.0229127 0.00195199 0.0588609 -0.0717836 -0.00276965
5.42101e-20 -0.0227583 0.00352767 0.0437192 -0.0472691 -0.00518508
-2.71051e-20 0.0227583 0.00352773 0.00179887 -0.00217477 -1.08577e-05
6.77626e-21 -0.0226788 0.00436536 0.0197288 -0.0197115 -0.0026244
-1.35525e-20 0.0226788 0.00436543 0.000739409 -0.000863304 -1.26725e-05
-1.35525e-20 -0.0231146 6.2653e-16 0 0 0
1.35525e-20 0.0231146 6.24699e-16 0 0 0
-2.82344e-22 0.0231263 0.00085734 0.000852386 -0.00101094 1.97301e-06
-8.47033e-22 -0.0231263 0.00085738 0.0355812 -0.0434708 -0.00114373
-1.35525e-20 0.0231204 0.00168687 0.00205108 -0.00245277 -2.95115e-06
-1.35525e-20 -0.0231204 0.00168687 0.0576272 -0.0709392 -0.00250095
0 -0.022691 0.00478261 0 0 0
1.35525e-20 0.0226912 0.00478269 0 0 0
4.23516e-22 0.0231332 0.00244156 0.00231979 -0.00278753 -8.33769e-06
-2.82344e-22 -0.0231332 0.00244155 0.0573724 -0.0683316 -0.00422532
1.35525e-20 -0.0227887 0.00466778 0.00772289 -0.00726082 -0.000904732
-1.35525e-20 0.0227888 0.00466792 0.000311903 -0.000362281 -8.55547e-06
1.12938e-21 -0.0230834 0.00317451 0.0512916 -0.0579188 -0.00539113
4.51751e-21 0.0230834 0.00317454 0.0021503 -0.00259384 -1.07545e-05
0 -0.023319 3.12047e-16 0 0 0
0 0.0233192 3.1085e-16 0 0 0
2.25875e-21 -0.0230283 0.00391279 0.0378015 -0.0398518 -0.00487907
-2.25875e-21 0.0230283 0.00391288 0.00150237 -0.00181536 -1.35081e-05
-2.71051e-20 -0.0233299 0.00142278 0.0553614 -0.0691656 -0.00211434
0 0.02333 0.00142275 0.00193704 -0.00229932 -9.67106e-08
5.42101e-20 -0.0233168 0.00194192 0.0601545 -0.0740282 -0.00300255
0 0.0233168 0.00194193 0.00231486 -0.00276445 -1.41237e-06
5.42101e-20 -0.0228965 0.00488208 0 0 0
5.42101e-20 0.0228965 0.0048821 0 0 0
4.51751e-21 0.0234102 0.000267349 1.3039e-05 -1.75767e-05 -1.6265e-05
0 -0.0234102 0.000267197 0.014084 -0.0168583 -0.000181374
-1.50584e-21 -0.0229985 0.00439045 0.0246519 -0.0246363 -0.00347124
-2.25875e-21 0.0229986 0.00439055 0.000916798 -0.00110267 -1.15218e-05
-1.35525e-20 0.023516 1.75113e-16 0 0 0
-6.77626e-21 -0.0235163 1.75792e-16 0 0 0
2.71051e-20 -0.0234234 0.00278582 0.0581083 -0.068525 -0.00524098
-2.71051e-20 0.0234234 0.00278584 0.00247245 -0.00297963 -9.83282e-06
0 -0.023065 0.00496366 0 0 0
0 0.0230651 0.00496372 0 0 0
2.71051e-20 -0.0233787 0.00352555 0.0508109 -0.0553501 -0.00632618
0 0.0233787 0.00352559 0.00212935 -0.00257013 -1.2213e-05
0 0.023716 -1.12992e-16 0 0 0
-1.35525e-20 -0.0237161 -1.12641e-16 0 0 0
-1.35525e-21 -0.0232667 0.00471649 0.0187146 -0.0175269 -0.00307975
0 0.0232668 0.00471653 0.00063294 -0.000761182 -5.28086e-06
0 -0.0233857 0.00417623 0.039757 -0.0405948 -0.00573286
0 0.0233857 0.00417629 0.0014835 -0.00180159 -9.9436e-06
0 0.0232203 0.00503884 0 0 0
-1.35525e-20 -0.0232204 0.00503886 0 0 0
1.12938e-21 0.0237642 0.00087167 0.000969257 -0.00114097 -5.79023e-06
3.10579e-21 -0.0237642 0.000871743 0.0351409 -0.0443632 -0.0012036
-2.71051e-20 -0.0237896 9.69124e-05 0.00510478 -0.00645176 -0.000182521
0 0.0237897 9.71024e-05 4.02669e-06 -3.46606e-06 -6.4275e-06
0 -0.0237941 4.97837e-16 0 0 0