# kMean  POINT_DATA 56683
# x  y  z  kMean
7.00286e-09 0 0 0.000167469
-1.85076e-05 0 0 0.000167484
1.85215e-05 0 0 0.000167454
-1.85075e-05 0 1.73212e-05 0.000167484
1.85214e-05 -3.38813e-21 1.73211e-05 0.000167454
-0.00125 -1.0842e-19 0.00116943 0.00016847
0.00125 0 0.00116944 0.000166467
-2.83561e-10 0 0.00233917 0.000199728
-0.00248149 0 0 0.000169449
0.0024815 0 0 0.000165496
-0.00248149 3.38813e-21 1.73261e-05 0.000169449
0.0024815 3.38813e-21 1.73173e-05 0.000165496
0.00250001 0 0 0.000165482
-0.00250001 0 0 0.000169464
0.00251852 0 0 0.000165467
-0.00251853 -3.38813e-21 0 0.000169479
0.00251852 3.38813e-21 1.73173e-05 0.000165467
-0.00251853 0 1.73262e-05 0.000169479
0.0025 5.64689e-22 0.00233917 0.000198015
-0.0025 5.64689e-22 0.00233917 0.00020138
0.00125 0 0.00356873 0.000231825
-0.00125 -1.0842e-19 0.00356873 0.00023317
0.00375 0 0.00116944 0.000164496
-0.00375001 1.0842e-19 0.00116943 0.000170458
-4.01103e-10 0 0.00479885 0.00023535
0.00498148 3.38813e-21 0 0.0001636
-0.0049815 0 0 0.00017142
0.00498148 0 1.73155e-05 0.0001636
-0.0049815 0 1.73301e-05 0.00017142
0.00499999 0 0 0.000163587
-0.00500002 3.38813e-21 0 0.000171434
0.0050185 3.38813e-21 0 0.000163573
0.0050185 0 1.73154e-05 0.000163573
-0.00501854 -3.38813e-21 0 0.000171449
-0.00501854 -3.38813e-21 1.73301e-05 0.000171449
0.00375 0 0.00356872 0.000230301
-0.00375 1.0842e-19 0.00356872 0.000234431
0.0025 0 0.00479884 0.000234774
-0.0025 1.12938e-21 0.00479885 0.000235876
0.005 -5.64689e-22 0.00233917 0.000196262
-0.00500001 -5.64689e-22 0.00233917 0.000202963
0.00125 0 0.00608215 0.000238385
-0.00125 0 0.00608215 0.000238101
0.00624999 0 0.00116944 0.000162677
-0.00625001 0 0.00116944 0.00017241
0.005 -5.64689e-22 0.00479884 0.000234122
-0.005 -1.69407e-21 0.00479885 0.000236364
-0.00375 0 0.00608215 0.00023786
0.00375 -1.0842e-19 0.00608215 0.00023869
0.00625 0 0.00356872 0.000228605
-0.00625001 1.0842e-19 0.00356873 0.000235547
-1.55287e-10 0 0.00736575 0.000238219
-0.00748147 0 0 0.00017333
0.00748148 0 0 0.000161867
-0.00748147 0 1.73322e-05 0.00017333
0.00748148 -3.38813e-21 1.73147e-05 0.000161867
0.00749999 0 0 0.000161855
-0.0075 -3.38813e-21 0 0.000173344
0.0075185 0 0 0.000161843
0.0075185 0 1.73147e-05 0.000161843
-0.00751853 0 0 0.000173359
-0.00751853 0 1.73322e-05 0.000173359
-0.0025 1.12938e-21 0.00736575 0.000237799
0.0025 2.82344e-21 0.00736575 0.000238679
0.0075 0 0.00233917 0.000194505
-0.00750001 -5.64689e-22 0.00233917 0.000204447
-0.00625 -1.0842e-19 0.00608215 0.000237657
0.00625 1.0842e-19 0.00608215 0.000239024
0.00125 1.0842e-19 0.008656 0.000238496
-0.00125 0 0.00865601 0.000237895
0.00875 0 0.00116943 0.000161033
-0.00875 2.1684e-19 0.00116943 0.000174279
-0.005 5.64689e-22 0.00736575 0.000237417
0.005 -5.64689e-22 0.00736575 0.000239184
0.0075 0 0.00479884 0.000233379
-0.0075 5.64689e-22 0.00479885 0.000236804
-0.00375 0 0.008656 0.00023734
0.00375 1.0842e-19 0.008656 0.000239147
0.00875 1.0842e-19 0.00356873 0.000226738
-0.00875 1.0842e-19 0.00356873 0.000236533
-3.68372e-11 2.82344e-21 0.00994619 0.00023693
-0.00998147 0 0 0.000175163
-0.00998147 0 1.73338e-05 0.000175163
0.00998149 3.38813e-21 0 0.000160361
0.00998149 0 1.73145e-05 0.000160361
0.01 0 0 0.000160353
-0.01 0 0 0.000175177
0.0100185 -3.38813e-21 0 0.000160343
0.0100185 0 1.73145e-05 0.000160343
-0.0100185 3.38813e-21 0 0.000175191
-0.0100185 0 1.73338e-05 0.000175191
-0.0025 5.64689e-22 0.00994619 0.000236257
0.0025 -5.64689e-22 0.00994619 0.00023765
0.01 0 0.00233917 0.000192763
-0.01 -1.12938e-21 0.00233917 0.000205843
-0.0075 -1.69407e-21 0.00736575 0.000237076
0.0075 0 0.00736575 0.000239721
-0.00875 -1.0842e-19 0.00608215 0.000237501
0.00875 2.1684e-19 0.00608215 0.000239311
-0.00625 0 0.008656 0.00023681
0.00625 -2.1684e-19 0.00865601 0.000239878
0.01 5.64689e-22 0.00479884 0.000232511
-0.01 -1.12938e-21 0.00479885 0.000237221
-0.005 -5.64689e-22 0.00994619 0.000235629
0.005 0 0.00994619 0.000238427
0.00125 0 0.011217 0.000236067
-0.00125 1.0842e-19 0.011217 0.000235274
-0.01125 -1.0842e-19 0.00116944 0.000176075
0.01125 -1.0842e-19 0.00116944 0.000159671
-0.01125 1.0842e-19 0.00356872 0.000237454
0.01125 0 0.00356873 0.000224634
-0.00375 0 0.011217 0.000234534
0.00375 -2.1684e-19 0.011217 0.000236901
-0.00875 1.0842e-19 0.008656 0.000236333
0.00875 -1.0842e-19 0.00865601 0.000240673
-0.01 -5.64689e-22 0.00736575 0.000236782
0.01 1.69407e-21 0.00736575 0.00024027
-0.0075 -5.64689e-22 0.00994619 0.000235049
0.0075 0 0.00994619 0.000239269
-0.0124815 -3.38813e-21 0 0.000176909
-0.0124815 0 1.73348e-05 0.000176909
0.0124815 0 0 0.00015936
0.0124815 0 1.73156e-05 0.00015936
-5.67781e-12 -5.64689e-22 0.0124877 0.000233112
0.0125 -3.38813e-21 0 0.000159358
-0.0125 0 0 0.000176922
0.0125185 0 0 0.000159354
0.0125185 0 1.73157e-05 0.000159354
-0.0125185 0 0 0.000176935
-0.0125185 0 1.73348e-05 0.000176935
0.0125 1.12938e-21 0.00233917 0.00019116
-0.0125 -1.69407e-21 0.00233917 0.000207145
-0.0025 -1.12938e-21 0.0124877 0.000232284
0.0025 0 0.0124877 0.000233996
0.01125 0 0.00608215 0.000239556
-0.01125 0 0.00608215 0.0002374
-0.00625 -1.0842e-19 0.011217 0.000233848
0.00625 -1.0842e-19 0.011217 0.000237792
0.0125 -5.64689e-22 0.00479884 0.000231486
-0.0125 -1.12938e-21 0.00479885 0.000237603
-0.005 -1.69407e-21 0.0124877 0.000231513
0.005 0 0.0124877 0.000234936
0.01375 -2.1684e-19 0.00116944 0.000159042
-0.01375 0 0.00116944 0.00017777
0.00125 1.0842e-19 0.0137433 0.000231025
-0.00125 0 0.0137433 0.000230103
-0.01 5.64689e-22 0.00994619 0.000234521
0.01 0 0.00994619 0.000240179
-0.01125 0 0.008656 0.00023589
0.01125 -1.0842e-19 0.008656 0.000241541
0.01375 0 0.00356872 0.000222297
-0.01375 0 0.00356872 0.000238235
-0.00875 2.1684e-19 0.011217 0.000233223
0.00875 -1.0842e-19 0.011217 0.000238742
-0.00375 1.0842e-19 0.0137433 0.000229245
0.00375 -1.0842e-19 0.0137433 0.00023201
-0.0125 1.12938e-21 0.00736575 0.000236525
0.0125 -1.69407e-21 0.00736575 0.000240814
-0.0075 -2.25875e-21 0.0124877 0.000230798
0.0075 0 0.0124877 0.000235937
-0.0149815 -3.38813e-21 0 0.000178561
-0.0149815 0 1.73342e-05 0.000178561
0.0149815 0 0 0.000159051
0.0149815 0 1.73193e-05 0.000159051
-5.06181e-13 0 0.0149988 0.000226887
0.015 0 0 0.000159052
-0.015 0 0 0.000178573
0.0150185 -3.38813e-21 0 0.000159052
0.0150185 0 1.73194e-05 0.000159052
-0.0150185 0 0 0.000178586
-0.0150185 0 1.73342e-05 0.000178586
0.01375 0 0.00608215 0.000239687
-0.01375 -1.0842e-19 0.00608215 0.000237314
-0.00625 -1.0842e-19 0.0137433 0.000228445
0.00625 1.0842e-19 0.0137433 0.000233059
-0.015 5.64689e-22 0.00233917 0.000208358
0.015 1.12938e-21 0.00233917 0.00018982
-0.0025 0 0.0149988 0.000225923
0.0025 0 0.0149988 0.000227914
-0.015 -1.12938e-21 0.00479885 0.000237956
0.015 0 0.00479885 0.000230312
-0.005 0 0.0149988 0.000225017
0.005 0 0.0149988 0.000229005
-0.01125 2.1684e-19 0.011217 0.000232653
0.01125 1.0842e-19 0.011217 0.000239767
-0.0125 5.64689e-22 0.00994619 0.000234039
0.0125 0 0.00994619 0.00024116
-0.01 -1.69407e-21 0.0124877 0.000230139
0.01 0 0.0124877 0.000237006
-0.01375 0 0.008656 0.000235492
0.01375 0 0.008656 0.000242476
0.01625 -1.0842e-19 0.00116944 0.000159061
-0.01625 -1.0842e-19 0.00116944 0.000179378
-0.00875 -1.0842e-19 0.0137433 0.000227698
0.00875 1.0842e-19 0.0137433 0.000234174
0.00125 0 0.0162494 0.00022375
-0.00125 0 0.0162494 0.000222681
-0.01625 1.0842e-19 0.00356872 0.000238992
0.01625 0 0.00356873 0.000219854
-0.00375 1.0842e-19 0.0162494 0.000221671
0.00375 0 0.0162494 0.000224882
-0.015 0 0.00736575 0.000236303
0.015 5.64689e-22 0.00736575 0.000241327
-0.0075 0 0.0149988 0.000224167
0.0075 0 0.0149988 0.00023016
0.01625 0 0.00608215 0.000239675
-0.01625 0 0.00608215 0.000237263
0.00625 0 0.0162494 0.000226078
-0.00625 0 0.0162494 0.000220718
-0.0174815 0 0 0.000180122
0.0174815 0 0 0.000159244
-0.0174815 0 1.73322e-05 0.000180122
0.0174815 0 1.7327e-05 0.000159244
-1.0396e-14 0 0.0175 0.000218332
0.0175 -3.38813e-21 0 0.000159249
-0.0175 -3.38813e-21 0 0.000180134
0.0175185 0 0 0.000159252
-0.0175185 0 0 0.000180146
0.0175185 0 1.73272e-05 0.000159252
-0.0175185 3.38813e-21 1.73322e-05 0.000180146
-0.0175 5.64689e-22 0.00233917 0.000209499
0.0175 1.69407e-21 0.00233917 0.000188433
-0.0125 -1.12938e-21 0.0124877 0.000229532
0.0125 0 0.0124877 0.000238149
0.0025 0 0.0175 0.000219519
-0.0025 0 0.0175 0.000217206
-0.01375 2.1684e-19 0.011217 0.000232138
0.01375 0 0.011217 0.000240867
-0.01125 1.0842e-19 0.0137433 0.000227003
0.01125 -1.0842e-19 0.0137433 0.000235359
-0.015 5.64689e-22 0.00994619 0.000233606
0.015 5.64689e-22 0.00994619 0.000242216
-0.01 0 0.0149988 0.000223369
0.01 0 0.0149988 0.000231383
-0.0175 -1.12938e-21 0.00479885 0.000238287
0.0175 -1.69407e-21 0.00479886 0.000228767
0.005 0 0.0175 0.00022077
-0.005 0 0.0175 0.00021614
-0.01625 2.1684e-19 0.008656 0.00023514
0.01625 0 0.008656 0.000243476
-0.00875 1.0842e-19 0.0162494 0.000219817
0.00875 1.0842e-19 0.0162494 0.000227339
-0.01875 0 0.00116943 0.000180891
0.01875 0 0.00116944 0.000159435
0.00125 0 0.01875 0.000214069
-0.00125 1.0842e-19 0.01875 0.000212828
-0.0175 5.64689e-22 0.00736575 0.000236111
0.0175 5.64689e-22 0.00736575 0.000241802
0.0075 0 0.0175 0.000222088
-0.0075 0 0.0175 0.00021513
-0.01875 0 0.00356872 0.000239661
0.01875 2.1684e-19 0.00356873 0.000216305
0.00375 1.0842e-19 0.01875 0.000215375
-0.00375 0 0.01875 0.000211647
-0.01375 -1.0842e-19 0.0137433 0.000226355
0.01375 -1.0842e-19 0.0137433 0.00023662
-0.015 -1.69407e-21 0.0124877 0.000228973
0.015 -5.64689e-22 0.0124877 0.000239372
-0.0125 0 0.0149988 0.000222621
0.0125 0 0.0149988 0.000232678
-0.01875 0 0.00608215 0.000237203
0.01875 -2.1684e-19 0.00608216 0.000239541
-0.01625 -2.1684e-19 0.011217 0.00023167
0.01625 0 0.011217 0.000242053
-0.01125 2.1684e-19 0.0162494 0.000218969
0.01125 0 0.0162494 0.00022867
0.00625 1.0842e-19 0.01875 0.000216748
-0.00625 0 0.01875 0.000210525
0.0199815 0 0 0.000159974
0.0199815 0 1.73418e-05 0.000159974
-0.0199815 0 0 0.00018159
-0.0199815 3.38813e-21 1.73298e-05 0.00018159
-1.01897e-14 0 0.02 0.000207313
0.02 -3.38813e-21 0 0.000159986
-0.02 0 0 0.000181601
-0.0200185 0 0 0.000181612
-0.0200185 0 1.73298e-05 0.000181612
0.0200185 0 0 0.000159994
0.0200185 0 1.73425e-05 0.000159994
-0.0175 -5.64689e-22 0.00994619 0.000233217
0.0175 5.64689e-22 0.00994619 0.000243341
-0.02 5.64689e-22 0.00233917 0.000210562
0.02 1.12938e-21 0.00233917 0.000186865
0.01 0 0.0175 0.000223474
-0.01 0 0.0175 0.000214174
0.0025 0 0.02 0.000208676
-0.0025 0 0.02 0.000206015
-0.02 -1.12938e-21 0.00479885 0.000238595
0.02 -1.69407e-21 0.00479886 0.00022668
0.005 0 0.02 0.000210107
-0.005 0 0.02 0.000204779
-0.01875 0 0.008656 0.000234836
0.01875 1.0842e-19 0.00865601 0.000244522
0.00875 1.0842e-19 0.01875 0.000218188
-0.00875 1.0842e-19 0.01875 0.000209461
-0.015 0 0.0149988 0.000221921
0.015 0 0.0149988 0.000234049
0.02125 2.1684e-19 0.00116944 0.000160533
-0.02125 -1.0842e-19 0.00116943 0.000182311
-0.01625 1.0842e-19 0.0137433 0.000225752
0.01625 -1.0842e-19 0.0137433 0.000237964
0.01375 0 0.0162494 0.00023007
-0.01375 0 0.0162494 0.000218169
0.00125 1.0842e-19 0.02125 0.000201887
-0.00125 0 0.02125 0.000200468
-0.02 2.25875e-21 0.00736575 0.000235947
0.02 -1.69407e-21 0.00736576 0.000242223
0.0075 0 0.02 0.000211608
-0.0075 0 0.02 0.000203603
-0.0175 -2.25875e-21 0.0124877 0.000228457
0.0175 -1.12938e-21 0.0124877 0.00024068
0.0125 0 0.0175 0.000224931
-0.0125 0 0.0175 0.000213271
0.02125 1.0842e-19 0.00356874 0.000212036
-0.02125 -1.0842e-19 0.00356872 0.000240299
-0.00375 0 0.02125 0.000199116
0.00375 0 0.02125 0.000203374
-0.01875 1.0842e-19 0.011217 0.000231241
0.01875 1.0842e-19 0.011217 0.00024332
0.01125 0 0.01875 0.000219701
-0.01125 0 0.01875 0.000208451
0.02125 0 0.00608216 0.000239196
-0.02125 0 0.00608215 0.000237174
0.00625 0 0.02125 0.000204932
-0.00625 0 0.02125 0.000197827
-0.02 0 0.00994619 0.000232869
0.02 1.69407e-21 0.00994619 0.00024454
0.01 0 0.02 0.00021318
-0.01 0 0.02 0.000202485
0.0224814 0 0 0.000161722
0.0224814 0 1.73745e-05 0.000161722
-0.0224815 0 0 0.000182968
-0.0224815 0 1.73276e-05 0.000182968
0.0225 0 0 0.000161744
-0.0225 0 0 0.000182978
-1.01897e-14 0 0.0225 0.000193801
-0.0225185 -3.38813e-21 0 0.000182988
-0.0225185 0 1.73275e-05 0.000182988
0.0225186 0 0 0.000161764
0.0225186 0 1.73756e-05 0.000161764
-0.0225 -1.12938e-21 0.00233917 0.00021156
0.0225 5.64689e-22 0.00233918 0.000185492
0.0025 0 0.0225 0.00019534
-0.0025 0 0.0225 0.000192332
-0.02125 0 0.008656 0.00023457
0.02125 1.0842e-19 0.00865601 0.000245642
0.01625 0 0.0162494 0.000231549
-0.01625 -1.0842e-19 0.0162494 0.000217417
-0.00875 0 0.02125 0.000196599
0.00875 0 0.02125 0.000206562
-0.0225 1.12938e-21 0.00479885 0.000238893
0.0225 5.64689e-22 0.00479887 0.000224114
-0.0175 0 0.0149988 0.000221265
0.0175 0 0.0149988 0.000235502
0.015 0 0.0175 0.000226462
-0.015 0 0.0175 0.000212417
0.005 0 0.0225 0.000196951
-0.005 0 0.0225 0.00019093
0.01875 0 0.0137433 0.0002394
-0.01875 0 0.0137433 0.000225191
0.01375 1.0842e-19 0.01875 0.000221285
-0.01375 -1.0842e-19 0.01875 0.000207495
-0.02 -1.69407e-21 0.0124877 0.00022798
0.02 -1.12938e-21 0.0124877 0.00024208
0.0125 0 0.02 0.000214828
-0.0125 0 0.02 0.000201423
-0.0225 1.69407e-21 0.00736575 0.000235813
0.0225 -1.69407e-21 0.00736576 0.000242518
0.0075 0 0.0225 0.000198636
-0.0075 0 0.0225 0.000189592
0.0237499 -1.0842e-19 0.00116944 0.000162952
-0.02375 1.0842e-19 0.00116943 0.000183645
0.00125 0 0.02375 0.000187218
-0.00125 1.0842e-19 0.02375 0.00018563
0.0237499 1.0842e-19 0.00356875 0.000207198
-0.02375 -1.0842e-19 0.00356873 0.000240889
0.02125 -1.0842e-19 0.011217 0.000244682
-0.02125 -1.0842e-19 0.011217 0.000230846
-0.00375 1.0842e-19 0.02375 0.000184113
0.01125 1.0842e-19 0.02125 0.00020827
-0.01125 1.0842e-19 0.02125 0.000195429
0.00375 0 0.02375 0.000188879
0.02375 -1.0842e-19 0.00608218 0.000238441
-0.02375 0 0.00608215 0.000237162
0.00625 -1.0842e-19 0.02375 0.000190617
-0.00625 1.0842e-19 0.02375 0.000182663
0.0225 -5.64689e-22 0.00994619 0.00024582
-0.0225 5.64689e-22 0.00994619 0.000232554
0.01 0 0.0225 0.0002004
-0.01 0 0.0225 0.000188315
0.0175 0 0.0175 0.000228069
-0.0175 0 0.0175 0.000211611
0.01875 0 0.0162494 0.000233101
-0.01875 1.0842e-19 0.0162494 0.00021671
0.01625 1.0842e-19 0.01875 0.000222945
-0.01625 0 0.01875 0.000206587
0.0249812 0 0 0.00016464
0.0249812 -3.38813e-21 1.74534e-05 0.00016464
-0.0249815 0 0 0.000184257
-0.0249815 0 1.73255e-05 0.000184257
-0.02 0 0.0149988 0.000220651
0.02 0 0.0149988 0.000237043
0.0249999 0 0 0.000164668
0.015 0 0.02 0.000216552
-0.015 0 0.02 0.000200413
-1.01899e-14 0 0.025 0.000177855
-0.025 0 0 0.000184267
-0.0250185 0 0 0.000184276
-0.0250185 3.38813e-21 1.73255e-05 0.000184276
0.0250186 0 0 0.000164694
0.0250186 0 1.74563e-05 0.000164694
0.0249999 -1.69407e-21 0.00233919 0.000184119
-0.025 0 0.00233917 0.000212492
0.0025 0 0.025 0.000179559
-0.0025 0 0.025 0.000176226
0.02375 0 0.00865602 0.000246805
-0.02375 0 0.008656 0.000234339
-0.02125 0 0.0137433 0.000224669
0.02125 1.0842e-19 0.0137433 0.000240935
0.01375 0 0.02125 0.000210055
-0.00875 1.0842e-19 0.02375 0.000181278
-0.01375 1.0842e-19 0.02125 0.000194315
0.00875 1.0842e-19 0.02375 0.000192435
0.0249999 5.64689e-22 0.00479889 0.000220699
-0.025 5.64689e-22 0.00479885 0.000239176
0.005 0 0.025 0.00018134
-0.005 0 0.025 0.000174667
0.0225 0 0.0124877 0.000243585
-0.0225 -5.64689e-22 0.0124877 0.000227539
0.0125 0 0.0225 0.000202245
-0.0125 0 0.0225 0.000187098
-0.025 -1.69407e-21 0.00736575 0.000235702
0.025 0 0.00736577 0.000242536
0.0075 0 0.025 0.000183202
-0.0075 0 0.025 0.000173178
-0.02375 0 0.011217 0.000230482
0.02375 -1.0842e-19 0.011217 0.000246158
0.0262497 -2.1684e-19 0.00116946 0.000166382
-0.02625 1.0842e-19 0.00116943 0.000184889
0.00125 0 0.02625 0.000170157
0.01125 0 0.02375 0.000194334
-0.01125 0 0.02375 0.000179955
-0.00125 -1.0842e-19 0.02625 0.000168414
0.0262498 -1.0842e-19 0.00356879 0.000200561
-0.02625 1.0842e-19 0.00356872 0.000241436
0.00375 0 0.02625 0.000171979
-0.00375 -1.0842e-19 0.02625 0.000166745
0.01875 1.0842e-19 0.01875 0.000224681
-0.01875 0 0.01875 0.00020573
0.02 0 0.0175 0.000229756
-0.02 0 0.0175 0.00021085
0.0175 0 0.02 0.000218355
-0.0175 0 0.02 0.000199455
0.02125 1.0842e-19 0.0162494 0.000234745
-0.02125 0 0.0162494 0.000216046
-0.01625 1.0842e-19 0.02125 0.000193255
0.01625 1.0842e-19 0.02125 0.000211922
0.025 -5.64689e-22 0.00994619 0.000247118
-0.025 1.12938e-21 0.00994619 0.000232272
0.01 0 0.025 0.000185149
-0.01 0 0.025 0.000171754
0.0262499 0 0.0060822 0.000237075
-0.02625 0 0.00608215 0.000237159
0.00625 1.0842e-19 0.02625 0.000173884
-0.00625 0 0.02625 0.000165149
0.0225 0 0.0149988 0.00023868
-0.0225 0 0.0149988 0.000220078
0.015 0 0.0225 0.000204172
-0.015 0 0.0225 0.000185937
0.02375 1.0842e-19 0.0137433 0.000242582
-0.02375 1.0842e-19 0.0137433 0.000224185
-0.01375 0 0.02375 0.000178693
0.01375 -1.0842e-19 0.02375 0.000196319
0.0274807 0 0 0.000168537
0.0274807 0 1.76436e-05 0.000168537
-0.0274815 -3.38813e-21 0 0.000185461
-0.0274815 -3.38813e-21 1.73236e-05 0.000185461
0.0274996 0 0 0.000168573
-1.01898e-14 0 0.0275 0.000159627
-0.0275 0 0 0.00018547
0.0275185 0 0 0.000168607
0.0275185 0 1.76502e-05 0.000168607
-0.0275185 -3.38813e-21 0 0.000185479
-0.0275185 -3.38813e-21 1.73236e-05 0.000185479
0.0274996 -5.64689e-22 0.00233923 0.000182574
-0.0275 -1.69407e-21 0.00233917 0.000213363
0.0025 0 0.0275 0.000161476
-0.0025 0 0.0275 0.000157857
0.02625 2.1684e-19 0.00865603 0.000247842
-0.02625 0 0.008656 0.000234144
0.00875 1.0842e-19 0.02625 0.000175873
-0.00875 0 0.02625 0.000163622
0.0274998 0 0.00479892 0.000216411
-0.0275 5.64689e-22 0.00479885 0.000239449
0.025 5.64689e-22 0.0124877 0.000245191
-0.025 0 0.0124877 0.000227131
0.005 0 0.0275 0.000163408
-0.005 0 0.0275 0.000156163
0.0125 0 0.025 0.000187182
-0.0125 0 0.025 0.000170392
0.02 0 0.02 0.000220239
-0.02 0 0.02 0.000198545
0.02125 -1.0842e-19 0.01875 0.0002265
0.01875 0 0.02125 0.00021387
-0.01875 1.0842e-19 0.02125 0.000192247
-0.02125 1.0842e-19 0.01875 0.000204917
0.0274999 -1.69407e-21 0.00736579 0.000242368
-0.0275 -1.12938e-21 0.00736575 0.000235617
0.0225 0 0.0175 0.000231527
-0.0225 0 0.0175 0.000210134
0.0075 0 0.0275 0.000165427
-0.0075 0 0.0275 0.000154541
0.0175 0 0.0225 0.000206185
-0.0175 0 0.0225 0.000184831
-0.02625 -1.0842e-19 0.011217 0.000230145
0.02625 0 0.011217 0.000247668
0.01125 1.0842e-19 0.02625 0.000177952
-0.01125 0 0.02625 0.00016216
0.0287493 0 0.00116949 0.000170762
-0.02875 -1.0842e-19 0.00116944 0.000186052
0.02375 1.0842e-19 0.0162494 0.000236467
-0.02375 1.0842e-19 0.0162494 0.000215424
0.00125 0 0.02875 0.000150905
0.01625 1.0842e-19 0.02375 0.000198392
-0.01625 0 0.02375 0.000177486
-0.00125 2.1684e-19 0.02875 0.000149032
0.0287494 1.0842e-19 0.00356886 0.000193033
-0.02875 0 0.00356872 0.000241956
0.00375 0 0.02875 0.000152862
-0.00375 0 0.02875 0.000147238
0.025 0 0.0149988 0.000240429
-0.025 0 0.0149988 0.000219545
0.015 0 0.025 0.000189306
-0.015 0 0.025 0.00016909
-0.0275 -1.69407e-21 0.00994619 0.000232021
0.0275 0 0.0099462 0.000248468
0.01 0 0.0275 0.000167536
-0.01 0 0.0275 0.000152989
0.0287497 0 0.00608226 0.000235538
-0.02875 0 0.00608215 0.00023718
0.00625 1.0842e-19 0.02875 0.000154907
-0.00625 1.0842e-19 0.02875 0.00014552
0.02625 0 0.0137433 0.00024437
-0.02625 0 0.0137433 0.000223738
-0.01375 1.0842e-19 0.02625 0.00016076
0.01375 0 0.02625 0.000180123
0.0299797 0 0 0.000173404
0.0299797 0 1.80772e-05 0.000173404
-0.0299815 0 0 0.000186584
-0.0299815 0 1.73217e-05 0.000186584
0.029999 0 0 0.000173448
-0.03 3.38813e-21 0 0.000186592
-1.01897e-14 0 0.03 0.000139415
0.0300183 0 0 0.00017349
0.0300183 3.38813e-21 1.80909e-05 0.00017349
-0.0300185 -3.38813e-21 0 0.000186601
-0.0300185 0 1.73217e-05 0.000186601
0.0287499 0 0.00865605 0.000249042
-0.02875 -1.0842e-19 0.008656 0.00023398
0.02125 0 0.02125 0.000215904
-0.00875 0 0.02875 0.000143875
0.00875 0 0.02875 0.000157043
-0.02125 0 0.02125 0.000191287
0.029999 -1.12938e-21 0.00233931 0.000181449
-0.03 -5.64689e-22 0.00233917 0.000214176
0.02 0 0.0225 0.000208286
0.0225 0 0.02 0.000222207
0.0025 0 0.03 0.000141368
-0.02 0 0.0225 0.000183776
-0.0225 0 0.02 0.000197683
-0.0025 0 0.03 0.000137548
0.0275 -5.64689e-22 0.0124877 0.000246901
-0.0275 0 0.0124877 0.000226755
0.0125 0 0.0275 0.000169739
-0.0125 0 0.0275 0.000151501
0.01875 1.0842e-19 0.02375 0.000200557
-0.01875 2.1684e-19 0.02375 0.000176335
0.02375 0 0.01875 0.000228398
-0.02375 -1.0842e-19 0.01875 0.00020415
0.0299995 1.12938e-21 0.00479899 0.000211607
-0.03 1.12938e-21 0.00479885 0.000239715
0.005 0 0.03 0.00014341
-0.005 0 0.03 0.000135761
-0.025 0 0.0175 0.00020946
0.025 0 0.0175 0.000233389
0.0175 0 0.025 0.000191524
-0.0175 0 0.025 0.000167845
0.02875 -1.0842e-19 0.0112171 0.000249321
-0.02875 1.0842e-19 0.011217 0.000229838
-0.02625 0 0.0162494 0.000214842
0.02625 -1.0842e-19 0.0162494 0.000238305
0.01625 1.0842e-19 0.02625 0.000182389
0.01125 0 0.02875 0.000159275
-0.01625 0 0.02625 0.000159422
-0.01125 1.0842e-19 0.02875 0.000142298
0.0299998 -1.12938e-21 0.00736582 0.00024172
-0.03 5.64689e-22 0.00736575 0.000235557
0.0075 0 0.03 0.000145545
-0.0075 0 0.03 0.000134052
0.0312483 2.1684e-19 0.00116956 0.000176131
-0.03125 0 0.00116944 0.000187133
0.00125 -1.0842e-19 0.03125 0.000129834
-0.00125 1.0842e-19 0.03125 0.00012789
-0.0275 0 0.0149988 0.000219049
0.0275 -5.64689e-22 0.0149988 0.00024229
0.015 0 0.0275 0.000172041
-0.015 0 0.0275 0.000150077
0.0312487 2.1684e-19 0.00356898 0.000186122
-0.03125 -1.0842e-19 0.00356872 0.000242436
-0.00375 0 0.03125 0.000126032
0.00375 0 0.03125 0.00013187
-0.03 -1.69407e-21 0.00994619 0.000231803
0.03 -5.64689e-22 0.00994621 0.000249867
0.01 0 0.03 0.000147779
-0.01 0 0.03 0.000132416
0.0225 0 0.0225 0.000210478
-0.0225 0 0.0225 0.00018277
0.0312494 2.1684e-19 0.00608236 0.000232368
-0.03125 -1.0842e-19 0.00608215 0.000237216
0.02875 -2.1684e-19 0.0137433 0.000246259
-0.02875 0 0.0137433 0.000223327
-0.00625 1.0842e-19 0.03125 0.000124256
-0.01375 -1.0842e-19 0.02875 0.000140787
0.02125 1.0842e-19 0.02375 0.000202814
0.01375 1.0842e-19 0.02875 0.000161607
0.02375 1.0842e-19 0.02125 0.000218025
0.00625 1.0842e-19 0.03125 0.000134
-0.02375 1.0842e-19 0.02125 0.000190375
-0.02125 -1.0842e-19 0.02375 0.000175234
0.02 0 0.025 0.000193839
0.025 0 0.02 0.000224261
-0.02 0 0.025 0.000166655
-0.025 0 0.02 0.000196865
0.02625 1.0842e-19 0.01875 0.000230388
-0.01875 0 0.02625 0.000158139
-0.02625 0 0.01875 0.000203425
0.01875 1.0842e-19 0.02625 0.000184757
0.0312498 0 0.00865609 0.000249961
-0.03125 -1.0842e-19 0.008656 0.000233846
-0.00875 1.0842e-19 0.03125 0.000122558
0.00875 0 0.03125 0.000136231
0.0324773 0 0 0.000179102
0.0324773 0 1.90019e-05 0.000179102
-0.0324815 3.38813e-21 0 0.000187628
-0.0324815 0 1.73196e-05 0.000187628
0.03 5.64689e-22 0.0124877 0.000248747
-0.03 0 0.0124877 0.000226415
0.0324976 0 0 0.000179152
0.0125 0 0.03 0.000150115
-0.0125 0 0.03 0.000130851
-0.0325 3.38813e-21 0 0.000187635
-1.01897e-14 0 0.0325 0.00011797
0.0325179 0 0 0.000179201
0.0325179 -3.38813e-21 1.90293e-05 0.000179201
-0.0325185 3.38813e-21 0 0.000187643
-0.0325185 0 1.73196e-05 0.000187643
0.0324979 2.25875e-21 0.00233944 0.000181255
-0.0325 1.12938e-21 0.00233917 0.000214934
0.0275 0 0.0175 0.000235347
-0.0275 0 0.0175 0.000208827
0.0175 0 0.0275 0.000174445
-0.0175 0 0.0275 0.000148712
0.0025 0 0.0325 0.000119946
-0.0025 0 0.0325 0.000116085
0.0324988 2.25875e-21 0.00479911 0.00020666
-0.0325 5.64689e-22 0.00479885 0.000239972
0.005 0 0.0325 0.000122017
-0.005 0 0.0325 0.000114288
0.02875 1.0842e-19 0.0162494 0.000240234
-0.02875 0 0.0162494 0.000214299
0.01625 2.1684e-19 0.02875 0.000164043
-0.01625 1.0842e-19 0.02875 0.000139338
0.03125 1.0842e-19 0.0112171 0.000251142
-0.03125 0 0.011217 0.000229569
0.01125 0 0.03125 0.000138566
-0.01125 0 0.03125 0.000120935
0.0324996 -5.64689e-22 0.00736589 0.000240215
-0.0325 2.25875e-21 0.00736575 0.000235519
0.0075 0 0.0325 0.000124189
-0.0075 0 0.0325 0.000112572
0.03 1.69407e-21 0.0149988 0.000244267
-0.03 0 0.0149988 0.00021859
0.015 0 0.03 0.000152558
-0.015 0 0.03 0.000129351
-0.02375 0 0.02375 0.000174183
0.02375 1.0842e-19 0.02375 0.000205168
0.0225 0 0.025 0.000196253
0.025 0 0.0225 0.000212762
-0.0225 0 0.025 0.000165517
-0.025 0 0.0225 0.000181811
0.0337462 0 0.00116968 0.00018217
-0.03375 1.0842e-19 0.00116944 0.000188138
0.00125 0 0.03375 0.000108035
0.02125 1.0842e-19 0.02625 0.000187227
0.02625 1.0842e-19 0.02125 0.000220234
-0.02125 1.0842e-19 0.02625 0.000156912
-0.02625 1.0842e-19 0.02125 0.000189507
-0.00125 1.0842e-19 0.03375 0.000106121
0.0337473 0 0.00356922 0.000180661
-0.03375 -1.0842e-19 0.00356872 0.000242892
0.00375 1.0842e-19 0.03375 0.000110044
-0.00375 1.0842e-19 0.03375 0.0001043
0.0324999 -5.64689e-22 0.00994623 0.000251142
-0.0325 0 0.00994619 0.000231616
0.02 0 0.0275 0.000176955
0.0275 0 0.02 0.000226405
-0.02 0 0.0275 0.000147406
-0.0275 0 0.02 0.000196089
0.01 0 0.0325 0.000126467
-0.01 0 0.0325 0.000110934
-0.03125 2.1684e-19 0.0137433 0.000222951
0.03125 0 0.0137433 0.000248278
-0.01375 1.0842e-19 0.03125 0.000119382
0.01375 0 0.03125 0.000141012
0.0337487 -1.0842e-19 0.00608252 0.000228162
-0.03375 -2.1684e-19 0.00608215 0.000237267
0.02875 1.0842e-19 0.01875 0.000232462
-0.01875 -1.0842e-19 0.02875 0.000137951
0.00625 1.0842e-19 0.03375 0.000112154
-0.00625 1.0842e-19 0.03375 0.000102564
0.01875 -1.0842e-19 0.02875 0.000166589
-0.02875 -1.0842e-19 0.01875 0.000202741
0.03 0 0.0175 0.00023741
-0.03 0 0.0175 0.000208232
0.0175 0 0.03 0.000155114
-0.0175 0 0.03 0.000127916
0.0325 -5.64689e-22 0.0124877 0.000250714
-0.0325 0 0.0124877 0.000226108
0.0125 0 0.0325 0.000128857
-0.0125 0 0.0325 0.000109371
0.0337496 1.0842e-19 0.00865618 0.000250408
-0.03375 0 0.008656 0.00023374
-0.00875 0 0.03375 0.000100911
0.00875 1.0842e-19 0.03375 0.000114371
0.0349723 3.38813e-21 0 0.000185268
0.0349723 -3.38813e-21 2.08395e-05 0.000185268
-0.0349815 0 0 0.000188598
-0.0349815 0 1.7318e-05 0.000188598
0.0349946 3.38813e-21 0 0.000185323
-0.035 0 0 0.000188605
-1.01895e-14 0 0.035 9.64358e-05
0.0350168 3.38813e-21 0 0.00018538
0.0350169 0 2.08939e-05 0.00018538
-0.0350185 3.38813e-21 0 0.000188612
-0.0350185 0 1.7318e-05 0.000188612
0.0349955 -1.69407e-21 0.00233965 0.000181757
-0.035 5.64689e-22 0.00233917 0.000215641
0.0025 0 0.035 9.83365e-05
-0.0025 0 0.035 9.46285e-05
0.03125 0 0.0162494 0.000242304
-0.03125 1.0842e-19 0.0162494 0.000213793
0.01625 -1.0842e-19 0.03125 0.000143572
-0.01625 1.0842e-19 0.03125 0.000117898
0.0349976 -1.12938e-21 0.00479931 0.000201784
-0.035 -5.64689e-22 0.00479884 0.000240224
0.025 0 0.025 0.000198772
0.005 0 0.035 0.000100336
-0.005 0 0.035 9.29095e-05
-0.025 0 0.025 0.000164427
0.02625 1.0842e-19 0.02375 0.000207621
-0.02375 0 0.02625 0.000155737
-0.02625 0 0.02375 0.000173179
0.02375 -1.0842e-19 0.02625 0.000189805
0.0225 0 0.0275 0.000179576
0.0275 0 0.0225 0.000215141
-0.0225 0 0.0275 0.000146154
-0.0275 0 0.0225 0.000180897
0.0337499 1.0842e-19 0.0112171 0.000253048
-0.03375 -1.0842e-19 0.011217 0.000229331
-0.01125 1.0842e-19 0.03375 9.93349e-05
0.01125 0 0.03375 0.000116701
0.02125 0 0.02875 0.000169247
-0.02125 1.0842e-19 0.02875 0.000136621
0.02875 0 0.02125 0.000222535
-0.02875 0 0.02125 0.000188682
0.0349991 5.64689e-22 0.00736599 0.000238087
-0.035 2.82344e-21 0.00736575 0.000235502
0.0325 -5.64689e-22 0.0149988 0.000246368
-0.0325 0 0.0149988 0.000218165
0.015 0 0.0325 0.000131363
-0.015 0 0.0325 0.000107879
0.0075 0 0.035 0.000102439
-0.0075 0 0.035 9.12739e-05
0.02 0 0.03 0.000157787
0.03 0 0.02 0.000228642
-0.02 0 0.03 0.000126542
-0.03 0 0.02 0.000195354
0.0362421 -1.0842e-19 0.00116989 0.000188474
-0.03625 0 0.00116944 0.000189071
0.00125 1.0842e-19 0.03625 8.66896e-05
-0.00125 1.0842e-19 0.03625 8.48977e-05
0.0349998 1.12938e-21 0.00994626 0.000252231
-0.035 0 0.00994619 0.000231458
0.01 0 0.035 0.000104653
-0.01 0 0.035 8.9717e-05
0.0362446 1.0842e-19 0.00356957 0.000175604
-0.03625 -1.0842e-19 0.00356872 0.000243318
-0.03375 0 0.0137433 0.000222609
0.03375 -1.0842e-19 0.0137433 0.000250398
-0.03125 1.0842e-19 0.01875 0.000202096
0.01875 0 0.03125 0.000146252
0.03125 0 0.01875 0.00023464
0.00375 0 0.03625 8.85776e-05
0.01375 0 0.03375 0.000119148
-0.01875 0 0.03125 0.000116478
-0.01375 -1.0842e-19 0.03375 9.78334e-05
-0.00375 0 0.03625 8.31956e-05
0.0362474 0 0.00608279 0.000223399
-0.03625 0 0.00608215 0.000237335
0.00625 0 0.03625 9.05669e-05
-0.00625 1.0842e-19 0.03625 8.15789e-05
0.0325 0 0.0175 0.000239591
-0.0325 0 0.0175 0.000207673
0.0175 0 0.0325 0.000133992
-0.0175 0 0.0325 0.000106453
-0.02625 1.0842e-19 0.02625 0.00015461
0.02625 0 0.02625 0.000192493
0.035 -1.12938e-21 0.0124877 0.000252776
-0.035 0 0.0124877 0.000225834
0.025 0 0.0275 0.000182312
0.0275 0 0.025 0.000201395
0.0125 0 0.035 0.000106983
-0.0125 0 0.035 8.82346e-05
-0.025 0 0.0275 0.000144955
-0.0275 0 0.025 0.000163385
0.0362491 2.1684e-19 0.0086563 0.00025043
-0.03625 0 0.008656 0.000233659
0.02875 0 0.02375 0.000210173
-0.00875 1.0842e-19 0.03625 8.00419e-05
-0.02375 0 0.02875 0.000135347
-0.02875 1.0842e-19 0.02375 0.00017222
0.02375 0 0.02875 0.000172024
0.00875 0 0.03625 9.26638e-05
0.03375 -1.0842e-19 0.0162494 0.000244502
-0.03375 1.0842e-19 0.0162494 0.00021332
-0.01625 1.0842e-19 0.03375 9.64017e-05
0.01625 0 0.03375 0.000121721
0.0374628 -3.38813e-21 0 0.000191425
0.0374628 -3.38813e-21 2.4243e-05 0.000191425
-0.0374815 0 0 0.000189497
-0.0374815 0 1.73176e-05 0.000189497
0.0374886 0 0 0.000191482
-0.0375 0 0 0.000189504
0.0225 0 0.03 0.000160582
0.03 0 0.0225 0.000217618
-0.0225 0 0.03 0.000125225
-0.03 0 0.0225 0.000180026
-1.01894e-14 0 0.0375 7.57466e-05
0.0375145 -3.38813e-21 0 0.000191544
0.0375146 3.38813e-21 2.43505e-05 0.000191544
-0.0375185 -3.38813e-21 0 0.000189511
-0.0375185 0 1.73176e-05 0.000189511
0.037491 5.64689e-22 0.00233999 0.000182267
-0.0375 0 0.00233917 0.000216301
0.0025 0 0.0375 7.74914e-05
-0.0025 0 0.0375 7.40924e-05
0.02125 0 0.03125 0.000149059
-0.03125 0 0.02125 0.000187898