# omega  POINT_DATA 51066
# x  y  z  omega
-1.65436e-24 -1.85074e-05 6.6528e-09 76.4892
-8.27181e-25 0.00119687 0 76.3084
-1.0842e-19 0.00123149 0.00116943 76.3039
1.0842e-19 -0.0012685 0.00116944 76.6745
-5.16988e-25 -1.85053e-05 0.00225641 56.9847
-5.04441e-20 -1.85047e-05 0.00233887 56.2719
-2.58494e-26 -0.000365962 0.00233887 56.288
0 0.0024815 7.03175e-09 76.1174
0 -0.00251848 9.19775e-09 76.8578
-5.29492e-20 0.00248149 0.00233887 56.1464
0 -0.0025185 0.00233887 56.388
0 0.00360311 0 75.9501
1.0842e-19 0.0012315 0.00356873 35.7972
0 -0.0012685 0.00356873 35.6648
0 0.00373149 0.00116943 75.9309
-1.0842e-19 -0.0037685 0.00116944 77.0412
0 0.00345782 0.00233887 56.0947
-2.76993e-20 -1.85014e-05 0.00479858 28.0745
0 0.00498151 8.64144e-09 75.7445
0 -0.00501848 1.11359e-08 77.2217
-2.1684e-19 0.0037315 0.00356872 35.9144
-2.1684e-19 -0.0037685 0.00356872 35.5165
0 -0.00230059 0.00479858 27.9185
5.56899e-20 0.0024815 0.00479858 28.2402
0 -0.0025185 0.00479858 27.9036
4.36179e-20 0.0049815 0.00233887 56.0141
0 -0.0050185 0.00233887 56.4958
0 -0.0025185 0.00562951 24.3212
1.0842e-19 0.0012315 0.00608215 20.4096
-1.0842e-19 -0.0012685 0.00608215 20.2049
-2.58494e-26 0.00405027 0.00479858 28.3417
0 0.0062315 0.00116943 75.5581
-2.1684e-19 -0.0062685 0.00116943 77.4022
-5.57285e-20 0.0049815 0.00479858 28.402
0 -0.0050185 0.00479858 27.7294
0 0.0037315 0.00608215 20.6197
2.1684e-19 -0.0037685 0.00608215 20.0058
0 0.0062315 0.00356872 36.0214
0 -0.0062685 0.00356872 35.36
2.58069e-20 -1.85008e-05 0.00736572 17.0104
0 0.00748152 1.19772e-08 75.3729
0 -0.00751848 1.07684e-08 77.5789
-1.05556e-19 0.0024815 0.00736572 17.1911
0 -0.0025185 0.00736572 16.8358
-4.5064e-20 0.0074815 0.00233887 55.875
0 -0.0075185 0.00233887 56.597
6.46235e-27 0.00374544 0.00736572 17.2854
-2.1684e-19 0.0062315 0.00608215 20.8337
-2.58494e-26 -0.0050185 0.00712053 17.7238
1.0842e-19 -0.0062685 0.00608215 19.8126
1.0842e-19 0.0012315 0.008656 13.7828
0 -0.0012685 0.00865601 13.6324
0 0.0087315 0.00116944 75.1878
0 -0.0087685 0.00116943 77.7557
-4.59695e-20 0.0074815 0.00479858 28.5577
-1.29247e-26 0.0049815 0.00736572 17.3776
6.18484e-20 -0.0050185 0.00736572 16.6672
0 -0.0075185 0.00479858 27.5552
0 0.0037315 0.008656 13.9402
-2.1684e-19 0.0087315 0.00356872 36.1085
-1.0842e-19 -0.0037685 0.008656 13.4883
0 -0.0087685 0.00356872 35.1986
-2.58494e-26 -0.0075185 0.00649949 20.2336
-3.91359e-20 -1.85002e-05 0.00994629 12.0354
-3.30872e-24 0.00998151 1.51405e-08 75.0054
0 -0.0100185 9.42944e-09 77.9284
3.38669e-20 0.0024815 0.00994629 12.1647
0 0.00998151 0.00233888 55.7259
5.27421e-20 -0.0025185 0.00994629 11.9118
0 -0.0100185 0.00233887 56.6918
3.23117e-27 0.00312673 0.00994629 12.1996
-5.16988e-26 0.0074815 0.00736572 17.5691
0 -0.0075185 0.00736572 16.5049
1.29247e-26 -0.00948201 0.00479858 27.4188
0 0.0087315 0.00608215 21.0501
-1.0842e-19 0.0062315 0.008656 14.1047
-1.0842e-19 -0.0087685 0.00608215 19.6262
0 -0.0062685 0.008656 13.3504
-4.52364e-26 -0.0100185 0.00470476 28.4996
0 0.0099815 0.00479858 28.7025
0 -0.0100185 0.00479858 27.3816
0 0.0049815 0.00994629 12.3
1.44227e-22 -0.0050185 0.00994629 11.7934
-1.0842e-19 0.0012315 0.011217 10.4233
1.0842e-19 -0.0012685 0.011217 10.3209
2.1684e-19 0.0112315 0.00116943 74.8231
-1.0842e-19 -0.0112685 0.00116944 78.1011
0 0.0112315 0.00356872 36.167
0 -0.0112685 0.00356873 35.032
0 0.0037315 0.011217 10.5304
0 -0.0037685 0.011217 10.2229
0 0.0087315 0.008656 14.2754
-1.0842e-19 -0.0087685 0.008656 13.2189
1.03398e-25 0.0099815 0.00736572 17.765
2.65238e-20 -0.0100185 0.00736572 16.349
0 0.0074815 0.00994629 12.4412
9.54016e-20 -0.0075185 0.00994629 11.6804
0 0.0124815 1.7225e-08 74.6443
1.22913e-19 -1.85e-05 0.0124878 9.41981
0 -0.0125185 8.84488e-09 78.2696
8.27181e-25 0.0124815 0.00233888 55.5634
2.59272e-20 0.0024815 0.0124878 9.50925
0 -0.0125185 0.00233887 56.7803
-8.62145e-20 -0.0025185 0.0124878 9.33423
1.00974e-28 0.00267227 0.0124878 9.51639
-2.1684e-19 0.0112315 0.00608215 21.2693
0 -0.0112685 0.00608215 19.446
0 0.0062315 0.011217 10.6427
1.0842e-19 -0.0062685 0.011217 10.1292
-4.52364e-26 -0.0125185 0.00470049 28.3883
0 0.0124815 0.00479858 28.8316
-4.03902e-20 -0.0125185 0.00479858 27.2091
-1.61559e-27 0.0049815 0.0124878 9.60282
1.37859e-19 -0.0050185 0.0124878 9.25234
1.0842e-19 0.0137315 0.00116944 74.4654
0 0.0012315 0.0137433 8.50773
0 -0.0012685 0.0137433 8.43517
2.1684e-19 -0.0137685 0.00116944 78.4382
2.58494e-26 -0.0130218 0.00479858 27.1748
0 0.0099815 0.00994629 12.5882
4.78542e-20 -0.0100185 0.00994629 11.5726
0 0.0112315 0.008656 14.4529
0 0.0137315 0.00356872 36.1874
2.1684e-19 -0.0112685 0.008656 13.0934
1.0842e-19 0.0087315 0.011217 10.7601
-2.1684e-19 -0.0137685 0.00356873 34.8621
0 -0.0087685 0.011217 10.0399
-1.0842e-19 0.0037315 0.0137433 8.58349
-1.0842e-19 -0.0037685 0.0137433 8.36568
0 0.0124815 0.00736572 17.9656
-7.44408e-20 -0.0125185 0.00736572 16.1993
0 0.0074815 0.0124878 9.70071
-7.41376e-20 -0.0075185 0.0124878 9.17408
0 0.0149815 1.75063e-08 74.2913
3.4253e-20 -1.85e-05 0.0149988 7.87069
0 0.0137315 0.00608215 21.4901
-1.65436e-24 -0.0150185 9.25945e-09 78.6023
0 -0.0137685 0.00608215 19.2724
-2.1684e-19 0.0062315 0.0137433 8.66271
0 -0.0062685 0.0137433 8.29916
-8.27181e-25 0.0149815 0.00233888 55.386
-1.73461e-19 -0.0150185 0.00233887 56.8637
-1.90033e-20 0.0024815 0.0149988 7.93578
1.0875e-19 -0.0025185 0.0149988 7.80826
1.26218e-29 0.00255892 0.0149988 7.93788
4.1359e-25 0.0149815 0.00479858 28.9409
-1.3895e-19 -0.0150185 0.00479858 27.0391
0 0.0049815 0.0149988 8.00369
7.52796e-20 -0.0050185 0.0149988 7.74839
-1.0842e-19 0.0112315 0.011217 10.8828
0 -0.0112685 0.011217 9.95471
0 0.0124815 0.00994629 12.7416
6.46235e-27 0.0099815 0.0124878 9.80301
-1.09991e-19 -0.0125185 0.00994629 11.4698
2.40675e-20 -0.0100185 0.0124878 9.09932
-1.0842e-19 0.0137315 0.008656 14.6377
1.0842e-19 -0.0137685 0.008656 12.9739
-1.0842e-19 0.0162315 0.00116944 74.1172
2.1684e-19 0.0087315 0.0137433 8.74546
0 0.0012315 0.0162494 7.29817
0 -0.0012685 0.0162494 7.24326
-1.0842e-19 -0.0087685 0.0137433 8.23549
1.0842e-19 -0.0162685 0.00116944 78.7665
-6.46235e-27 -0.0150185 0.00698462 17.6864
1.0842e-19 0.0162315 0.00356873 36.169
1.0842e-19 -0.0162685 0.00356872 34.692
-1.0842e-19 0.0037315 0.0162494 7.35532
0 -0.0037685 0.0162494 7.19048
0 0.0149815 0.00736572 18.1693
9.61667e-20 -0.0150185 0.00736572 16.0559
4.03897e-28 0.0074815 0.0149988 8.07456
1.22701e-19 -0.0075185 0.0149988 7.69098
-1.29247e-26 -0.0156532 0.00736572 16.0211
-1.0842e-19 0.0162315 0.00608215 21.7078
0 -0.0162685 0.00608215 19.1059
1.0842e-19 0.0062315 0.0162494 7.41486
-2.1684e-19 -0.0062685 0.0162494 7.13977
0 0.0174815 1.69306e-08 73.95
8.08445e-20 -1.85e-05 0.0175 6.85695
-1.65436e-24 -0.0175185 1.0366e-08 78.9263
3.77012e-20 0.0174815 0.00233888 55.1974
0 0.0124815 0.0124878 9.91008
8.86415e-20 -0.0175185 0.00233887 56.9426
-1.91549e-20 0.0024815 0.0175 6.90752
8.08441e-20 -0.0025185 0.0175 6.80829
1.21689e-19 -0.0125185 0.0124878 9.02789
0 0.0137315 0.011217 11.0116
1.0842e-19 0.0112315 0.0137433 8.83191
0 -0.0137685 0.011217 9.87348
0 -0.0112685 0.0137433 8.17451
0 0.0149815 0.00994629 12.9014
-4.07164e-20 -0.0150185 0.00994629 11.3718
0 0.0099815 0.0149988 8.1485
-1.91273e-20 -0.0100185 0.0149988 7.63592
4.1359e-25 0.0174815 0.00479858 29.0306
0 -0.0175185 0.00479858 26.8724
-4.73317e-29 0.0049815 0.0174752 6.97046
-1.57772e-30 0.0049815 0.0175 6.96009
8.0843e-20 -0.0050185 0.0175 6.76145
-2.1684e-19 0.0162315 0.008656 14.8291
0 -0.0162685 0.008656 12.86
2.1684e-19 0.0087315 0.0162494 7.47686
-2.1684e-19 -0.0087685 0.0162494 7.09102
1.0842e-19 0.0187315 0.00116944 73.7829
-1.0842e-19 0.0012315 0.01875 6.46541
-1.0842e-19 -0.0012685 0.01875 6.42113
-1.0842e-19 -0.0187685 0.00116943 79.0861
0 0.0174815 0.00736572 18.3736
0 -0.0175185 0.00736572 15.9188
-5.36425e-29 0.0074815 0.0174897 7.01913
5.84013e-20 0.0074815 0.0175 7.01476
4.20638e-20 -0.0075185 0.0175 6.71635
1.0842e-19 0.0187315 0.00356873 36.1205
-2.1684e-19 -0.0187685 0.00356872 34.522
1.0842e-19 0.0037315 0.01875 6.51133
-1.0842e-19 -0.0037685 0.01875 6.37843
-1.0842e-19 0.0137315 0.0137433 8.92242
1.0842e-19 -0.0137685 0.0137433 8.11611
6.46235e-27 0.0149815 0.0124878 10.0222
8.07794e-28 0.0124815 0.0149988 8.22571
-4.09716e-21 -0.0150185 0.0124878 8.95966
7.47107e-20 -0.0125185 0.0149988 7.58309
0 -0.0169621 0.00994629 11.2992
-1.0842e-19 0.0187315 0.00608215 21.9195
2.1684e-19 -0.0187685 0.00608215 18.9462
1.0842e-19 0.0162315 0.011217 11.1464
-1.0842e-19 0.0112315 0.0162494 7.54143
0 0.0062315 0.01875 6.559
1.0842e-19 -0.0162685 0.011217 9.79603
0 -0.0062685 0.01875 6.33724
0 -0.0112685 0.0162494 7.04414
3.30872e-24 0.0199815 1.72996e-08 73.6257
8.08456e-20 -1.85e-05 0.02 6.13626
1.65436e-24 -0.0200185 1.16649e-08 79.2413
0 0.0174815 0.00994629 13.0672
8.27181e-25 0.0199815 0.00233888 55.005
-2.25614e-28 0.0099815 0.0174933 7.07449
-1.35661e-19 -0.0175185 0.00994629 11.2785
-1.91459e-20 0.0099815 0.0175 7.07161
-1.91544e-20 0.0024815 0.02 6.17796
0 -0.0200185 0.00233887 57.0172
8.08456e-20 -0.0025185 0.02 6.09601
4.20638e-20 -0.0100185 0.0175 6.67292
-4.1359e-25 0.0199815 0.00479858 29.1059
0 -0.0200185 0.00479858 26.7094
5.84013e-20 0.0049815 0.02 6.22116
8.08456e-20 -0.0050185 0.02 6.05713
-1.0842e-19 0.0187315 0.008656 15.0256
0 -0.0187685 0.008656 12.7516
0 0.0087315 0.01875 6.60847
1.0842e-19 -0.0087685 0.01875 6.29751
0 0.0149815 0.0149988 8.30641
-5.77715e-20 -0.0150185 0.0149988 7.53239
-1.0842e-19 0.0212315 0.00116944 73.4685
2.1684e-19 0.0162315 0.0137433 9.01717
1.0842e-19 0.0137315 0.0162494 7.60876
0 0.0012315 0.02125 5.84808
0 -0.0012685 0.02125 5.81044
0 0.0199815 0.00736572 18.579
0 -0.0162685 0.0137433 8.06017
0 -0.0137685 0.0162494 6.99906
1.0842e-19 -0.0212685 0.00116943 79.3966
2.58494e-26 -0.0200185 0.00736572 15.7877
1.58401e-19 0.0074815 0.02 6.26594
-3.54881e-20 -0.0075185 0.02 6.01958
6.05845e-28 -0.0175185 0.0122552 9.11264
-6.46235e-27 0.0174815 0.0124878 10.1395
-1.57772e-30 0.0124815 0.0175 7.13116
-2.01948e-28 -0.0175185 0.0124878 8.89447
-9.67102e-20 -0.0125185 0.0175 6.6311
1.0842e-19 0.0212315 0.00356873 36.0522
-1.0842e-19 -0.0212685 0.00356872 34.3527
1.0842e-19 0.0037315 0.02125 5.88702
-1.0842e-19 -0.0037685 0.02125 5.77404
0 0.0187315 0.011217 11.287
-1.0842e-19 0.0112315 0.01875 6.65982
0 -0.0187685 0.011217 9.72217
0 -0.0112685 0.01875 6.25917
-1.00974e-28 -0.018128 0.0124878 8.87928
0 0.0212315 0.00608215 22.1297
1.0842e-19 -0.0212685 0.00608215 18.7932
0 0.0062315 0.02125 5.9273
1.0842e-19 -0.0062685 0.02125 5.73882
0 0.0199815 0.00994629 13.2389
1.58401e-19 0.0099815 0.02 6.31235
0 -0.0200185 0.00994629 11.1896
6.45119e-20 -0.0100185 0.02 5.9833
3.30872e-24 0.0224815 1.82994e-08 73.3244
8.08456e-20 -1.85e-05 0.0225 5.58586
0 -0.0225185 1.24074e-08 79.5473
-8.27181e-25 0.0224815 0.00233888 54.81
8.08456e-20 0.0024815 0.0225 5.62194
8.27181e-25 -0.0225185 0.00233887 57.0879
-9.67102e-20 -0.0025185 0.0225 5.55095
0 0.0212315 0.008656 15.2285
1.0842e-19 -0.0212685 0.008656 12.6486
0 0.0162315 0.0162494 7.67901
-1.0842e-19 0.0087315 0.02125 5.96898
0 0.0224815 0.00479858 29.166
1.0842e-19 -0.0087685 0.02125 5.70475
-1.0842e-19 -0.0162685 0.0162494 6.95569
-2.06795e-25 -0.0225185 0.00479858 26.5504
0 0.0149815 0.0175 7.19277
0 0.0174815 0.0149988 8.39074
-1.91544e-20 0.0049815 0.0225 5.65922
3.28979e-21 -0.0050185 0.0225 5.51714
4.20664e-20 -0.0150185 0.0175 6.59082
-5.04871e-29 -0.0175185 0.0149988 7.48373
0 0.0187315 0.0137433 9.11625
-1.0842e-19 0.0137315 0.01875 6.71316
0 -0.0137685 0.01875 6.22217
1.0842e-19 -0.0187685 0.0137433 8.00654
0 0.0199815 0.0124878 10.2621
1.58401e-19 0.0124815 0.02 6.36047
4.03897e-28 -0.0200185 0.0124878 8.83216
-3.54881e-20 -0.0125185 0.02 5.94825
0 0.0224815 0.00736572 18.7871
0 -0.0225185 0.00736572 15.6627
1.58401e-19 0.0074815 0.0225 5.69775
-3.54881e-20 -0.0075185 0.0225 5.4844
0 0.0237315 0.00116944 73.1804
0 0.0012315 0.02375 5.35913
0 -0.0012685 0.02375 5.32581
1.0842e-19 -0.0237685 0.00116943 79.6981
-1.0842e-19 0.0237315 0.00356873 35.9462
0 0.0212315 0.011217 11.434
1.0842e-19 -0.0237685 0.00356872 34.1854
0 0.0112315 0.02125 6.01213
-1.0842e-19 0.0037315 0.02375 5.39352
-2.1684e-19 -0.0212685 0.011217 9.65173
0 -0.0037685 0.02375 5.29351
0 -0.0112685 0.02125 5.67178
0 0.0237315 0.00608215 22.3382
-2.1684e-19 -0.0237685 0.00608215 18.647
-1.0842e-19 0.0062315 0.02375 5.42904
1.0842e-19 -0.0062685 0.02375 5.2622
0 0.0224815 0.00994629 13.4175
-4.15987e-20 0.0099815 0.0225 5.73759
0 -0.0225185 0.00994629 11.105
-3.54881e-20 -0.0100185 0.0225 5.4527
0 -0.0196373 0.0149988 7.44415
9.30856e-29 0.0174815 0.0174936 7.25942
5.84091e-20 0.0174815 0.0175 7.2565
8.08456e-20 -0.0175185 0.0175 6.55201
0 0.0187315 0.0162494 7.75229
0 0.0162315 0.01875 6.7686
1.0842e-19 -0.0162685 0.01875 6.18648
-1.0842e-19 -0.0187685 0.0162494 6.91398
0 0.0249815 1.76874e-08 73.0501
0 0.0199815 0.0149988 8.47887
1.58401e-19 0.0149815 0.02 6.4104
1.58401e-19 -1.85e-05 0.025 5.138
3.28979e-21 -0.0150185 0.02 5.91439
0 -0.0200185 0.0149988 7.43703
-1.65436e-24 -0.0250185 1.26459e-08 79.844
-8.27181e-25 0.0249815 0.00233888 54.6097
-9.67102e-20 0.0024815 0.025 5.17035
-1.91544e-20 -0.0025185 0.025 5.10664
0 -0.0250185 0.00233887 57.1551
-1.0842e-19 0.0237315 0.008656 15.4392
1.0842e-19 0.0212315 0.0137433 9.21996
0 -0.0237685 0.008656 12.5508
1.0842e-19 0.0137315 0.02125 6.05679
1.0842e-19 0.0087315 0.02375 5.46569
0 -0.0087685 0.02375 5.23184
0 -0.0137685 0.02125 5.63989
1.0842e-19 -0.0212685 0.0137433 7.95515
0 0.0249815 0.00479858 29.2038
0 -0.0250185 0.00479858 26.3958
3.28979e-21 0.0049815 0.025 5.20373
8.08456e-20 -0.0050185 0.025 5.07621
6.46235e-27 0.0224815 0.0124878 10.3904
0 0.0124815 0.0225 5.77878
-3.54881e-20 -0.0125185 0.0225 5.422
0 -0.0225185 0.0124878 8.7726
-1.03398e-25 0.0249815 0.00736572 18.9954
5.16988e-26 -0.0250185 0.00736572 15.5435
8.08456e-20 0.0074815 0.025 5.23816
-9.67102e-20 -0.0075185 0.025 5.0467
2.1684e-19 0.0237315 0.011217 11.5881
0 0.0262315 0.00116943 72.9198
0 0.0112315 0.02375 5.50355
-1.0842e-19 0.0012315 0.02625 4.94873
0 -0.0012685 0.02625 4.91835
0 -0.0237685 0.011217 9.58457
0 -0.0112685 0.02375 5.20243
-1.57772e-30 -0.0200185 0.0170481 6.6813
1.0842e-19 -0.0262685 0.00116943 79.9899
1.0842e-19 0.0262315 0.00356873 35.802
0 0.0187315 0.01875 6.82623
-1.0842e-19 -0.0262685 0.00356872 34.0208
0 0.0037315 0.02625 4.98004
0 -0.0037685 0.02625 4.88888
1.0842e-19 -0.0187685 0.01875 6.15204
8.36193e-29 0.0199815 0.017493 7.32654
-1.57772e-30 0.0199815 0.0175 7.32332
5.84013e-20 0.0174815 0.02 6.46222
8.08456e-20 -0.0175185 0.02 5.88169
-1.57772e-30 -0.0200185 0.0175 6.51464
0 0.0212315 0.0162494 7.82878
-1.0842e-19 0.0162315 0.02125 6.10307
1.0842e-19 -0.0162685 0.02125 5.60904
1.0842e-19 -0.0212685 0.0162494 6.87385
0 0.0249815 0.00994629 13.603
1.58401e-19 0.0099815 0.025 5.27369
0 -0.0250185 0.00994629 11.0246
1.0842e-19 0.0262315 0.00608215 22.5358
-9.67102e-20 -0.0100185 0.025 5.01809
0 -0.0262685 0.00608215 18.5073
1.0842e-19 0.0062315 0.02625 5.01232
0 -0.0062685 0.02625 4.86027
0 0.0224815 0.0149988 8.57111
5.84013e-20 0.0149815 0.0225 5.82139
3.28979e-21 -0.0150185 0.0225 5.39228
0 -0.0225185 0.0149988 7.39218
0 0.0237315 0.0137433 9.32877
0 0.0137315 0.02375 5.54265
1.0842e-19 -0.0137685 0.02375 5.17391
-1.0842e-19 -0.0237685 0.0137433 7.90585
-2.06795e-25 0.0274815 1.36325e-09 72.8008
-1.91544e-20 -1.85e-05 0.0275 4.75351
1.65436e-24 -0.0275185 1.29129e-08 80.1315
-4.1359e-25 0.0274815 0.00233887 54.3965
8.08456e-20 0.0024815 0.0275 4.78326
-1.91544e-20 -0.0025185 0.0275 4.72464
0 -0.0275185 0.00233886 57.2193
-1.0842e-19 0.0262315 0.008656 15.6558
0 -0.0262685 0.008656 12.4579
0 0.0087315 0.02625 5.0456
0 -0.0087685 0.02625 4.83251
0 0.0274815 0.00479858 29.208
0 0.0249815 0.0124878 10.5249
0 -0.0275185 0.00479858 26.2461
5.84013e-20 0.0124815 0.025 5.31035
-1.91544e-20 0.0049815 0.0275 4.81392
1.58401e-19 -0.0050185 0.0275 4.69662
-1.91544e-20 -0.0125185 0.025 4.99034
1.61559e-27 -0.0250185 0.0124878 8.71566
0 0.0278132 0.00479858 29.2033
-1.91544e-20 0.0199815 0.02 6.51601
1.9387e-26 0.0273138 0.00736572 19.1845
1.58401e-19 -0.0200185 0.02 5.8501
0 0.0212315 0.01875 6.88615
-1.0842e-19 0.0187315 0.02125 6.151
1.0842e-19 -0.0187685 0.02125 5.5792
0 -0.0212685 0.01875 6.11882
-3.87741e-26 0.0274815 0.00709019 20.2724
9.46633e-30 -0.0225185 0.0173278 6.54155
0 0.0274815 0.00736572 19.1981
2.8399e-29 0.0224815 0.0174925 7.39658
5.16988e-26 -0.0275185 0.00736572 15.43
-1.91544e-20 0.0224815 0.0175 7.39303
-1.91544e-20 0.0174815 0.0225 5.86548
-1.91544e-20 0.0074815 0.0275 4.84553
8.08456e-20 -0.0075185 0.0275 4.66943
8.08456e-20 -0.0175185 0.0225 5.3635
8.08458e-20 -0.0225185 0.0175 6.47865
-1.0842e-19 0.0262315 0.011217 11.7493
0 0.0112315 0.02625 5.07991
2.1684e-19 -0.0262685 0.011217 9.52048
0 -0.0112685 0.02625 4.80558
0 0.0287315 0.00116943 72.6817
1.0842e-19 0.0237315 0.0162494 7.90878
0 0.0162315 0.02375 5.58306
0 0.0012315 0.02875 4.58759
0 -0.0012685 0.02875 4.55937
0 -0.0162685 0.02375 5.14627
1.0842e-19 -0.0237685 0.0162494 6.83528
-1.0842e-19 -0.0287685 0.00116943 80.2731
-1.0842e-19 0.0287315 0.00356873 35.5934
2.1684e-19 -0.0287685 0.00356872 33.8598
0 0.0037315 0.02875 4.61667
0 -0.0037685 0.02875 4.53197
0 0.0249815 0.0149988 8.66774
0 0.0274815 0.00969561 14.3192
5.84013e-20 0.0149815 0.025 5.3482
-1.91544e-20 -0.0150185 0.025 4.96343
0 -0.0250185 0.0149988 7.34912
8.07794e-28 0.0274815 0.00994629 13.7943
-1.91544e-20 0.0099815 0.0275 4.8781
0 -0.0275185 0.00994629 10.948
-1.91544e-20 -0.0100185 0.0275 4.64305
0 0.0275291 0.00994629 13.798
-1.0842e-19 0.0287315 0.00608215 22.713
1.0842e-19 -0.0287685 0.00608215 18.3741
0 0.0062315 0.02875 4.64665
0 -0.0062685 0.02875 4.50538
1.03398e-25 0.0293436 0.00233887 54.2227
1.0842e-19 0.0262315 0.0137433 9.44283
0 0.0137315 0.02625 5.1153
0 -0.0137685 0.02625 4.77945
0 -0.0262685 0.0137433 7.85854
0 0.0299815 1.10974e-08 72.5723
8.08456e-20 -1.85e-05 0.03 4.40877
0 0.0287315 0.008656 15.8753
0 -0.0300185 1.29523e-08 80.4091
0 0.0212315 0.02125 6.20069
0 -0.0287685 0.008656 12.3697
0 0.0087315 0.02875 4.67754
0 -0.0087685 0.02875 4.47957
9.30578e-25 0.0299815 0.00217867 55.424
1.0842e-19 -0.0212685 0.02125 5.55034
0 0.0299815 0.00233887 54.1631
8.08456e-20 0.0224815 0.02 6.57191
-9.67102e-20 0.0199815 0.0225 5.91112
-9.67102e-20 0.0024815 0.03 4.43641
-1.91544e-20 -0.0025185 0.03 4.38196
8.27181e-25 -0.0300185 0.00233886 57.2803
1.58401e-19 -0.0200185 0.0225 5.33565
5.84013e-20 -0.0225185 0.02 5.8196
0 0.0274815 0.0124878 10.6655
-1.91544e-20 0.0124815 0.0275 4.91168
-1.91544e-20 -0.0125185 0.0275 4.61745
2.5508e-20 -0.0275185 0.0124878 8.66119
0 0.0237315 0.01875 6.94855
0 0.0187315 0.02375 5.62481
0 -0.0187685 0.02375 5.1195
0 -0.0237685 0.01875 6.08678
-7.2466e-20 0.0299815 0.00479858 29.1726
0 -0.0300185 0.00479858 26.1015
-1.91544e-20 0.0049815 0.03 4.46492
-1.91544e-20 -0.0050185 0.03 4.35595
7.57306e-29 0.0249815 0.0174915 7.46991
1.57772e-30 0.0249815 0.0175 7.4658
1.26218e-29 -0.0250185 0.0174511 6.46168
8.08456e-20 0.0174815 0.025 5.38728
8.08456e-20 -0.0175185 0.025 4.93735
-1.91527e-20 -0.0250185 0.0175 6.444
0 0.0287315 0.011217 11.9173
0 0.0262315 0.0162494 7.99245
-1.0842e-19 0.0162315 0.02625 5.15181
0 0.0112315 0.02875 4.70936
-2.25992e-20 0.0299815 0.00736572 19.3941
1.0842e-19 -0.0287685 0.011217 9.45932
-1.0842e-19 -0.0112685 0.02875 4.45454
-1.0842e-19 -0.0162685 0.02625 4.7541
0 -0.0262685 0.0162494 6.79819
0 -0.0300185 0.00736572 15.322
-1.91544e-20 0.0074815 0.03 4.49432
-9.67102e-20 -0.0075185 0.03 4.33074
0 0.0312315 0.00116943 72.463
1.0842e-19 0.0012315 0.03125 4.25717
1.0842e-19 -0.0012685 0.03125 4.23096
1.0842e-19 -0.0312685 0.00116943 80.5452
0 0.0274815 0.0149988 8.76887
8.08456e-20 0.0149815 0.0275 4.94631
-1.91544e-20 -0.0150185 0.0275 4.59262
2.85151e-20 -0.0275185 0.0149988 7.30777
1.61559e-27 0.0287474 0.0124878 10.7399
1.0842e-19 0.0312315 0.00356873 35.3249
0 -0.0312685 0.00356872 33.7026
1.0842e-19 0.0037315 0.03125 4.28421
-1.0842e-19 -0.0037685 0.03125 4.20554
2.86107e-20 0.0299815 0.00994629 13.9906
-1.91544e-20 0.0099815 0.03 4.52463
0 -0.0300185 0.00994629 10.8752
-1.91544e-20 -0.0100185 0.03 4.30629
-9.67102e-20 0.0224815 0.0225 5.95839
0 0.0312315 0.00608215 22.8772
8.08456e-20 -0.0225185 0.0225 5.30869
0 0.0287315 0.0137433 9.5622
0 -0.0312685 0.00608215 18.2473
1.0842e-19 0.0237315 0.02125 6.25225
0 0.0212315 0.02375 5.66797
1.0842e-19 0.0137315 0.02875 4.74217
0 0.0062315 0.03125 4.31213
0 -0.0062685 0.03125 4.18093
0 -0.0137685 0.02875 4.43025
-1.0842e-19 -0.0212685 0.02375 5.09356
0 -0.0237685 0.02125 5.52244
2.1684e-19 -0.0287685 0.0137433 7.81318
1.58401e-19 0.0249815 0.02 6.63004
-9.67102e-20 0.0199815 0.025 5.42764
-1.91544e-20 -0.0200185 0.025 4.91208
5.84013e-20 -0.0250185 0.02 5.79014
-1.0842e-19 0.0262315 0.01875 7.01359
1.0842e-19 0.0187315 0.02625 5.18946
0 -0.0187685 0.02625 4.72954
-1.0842e-19 -0.0262685 0.01875 6.05588
0 0.0312315 0.00865601 16.0985
-1.0842e-19 -0.0312685 0.008656 12.286
0 0.0087315 0.03125 4.34095
-1.0842e-19 -0.0087685 0.03125 4.15708
5.37675e-20 0.0299815 0.0124878 10.8124
-8.27181e-25 0.0324815 6.81883e-09 72.3628
8.08456e-20 0.0124815 0.03 4.55588
8.08456e-20 -1.85e-05 0.0325 4.09464
0 0.0324815 0.00123728 62.6008
3.28979e-21 -0.0125185 0.03 4.28259
0 -0.0300185 0.0124878 8.60916
0 -0.0325185 1.24503e-08 80.6771
-2.27276e-20 0.0324815 0.00233888 53.9094
-1.76705e-28 0.0274815 0.01749 7.54666
-1.57772e-30 0.0274815 0.0175 7.54178
-1.91544e-20 0.0174815 0.0275 4.98202
3.28979e-21 0.0024815 0.0325 4.12014
1.58401e-19 -0.0025185 0.0325 4.06995
0 -0.0275185 0.0174791 6.41816
-8.27181e-25 -0.0325185 0.00233887 57.3387
-1.91544e-20 -0.0175185 0.0275 4.56855
1.57772e-30 -0.0275185 0.0175 6.41065
-9.79125e-20 0.0324815 0.0047986 29.1022
0 -0.0325185 0.00479858 25.9624
3.28979e-21 0.0049815 0.0325 4.14647
5.84013e-20 -0.0050185 0.0325 4.04603
0 0.0287315 0.0162494 8.07989
-1.0842e-19 0.0162315 0.02875 4.77599
0 -0.0162685 0.02875 4.4067
-1.0842e-19 -0.0287685 0.0162494 6.76255
1.0842e-19 0.0312315 0.011217 12.0924
0 0.0112315 0.03125 4.37067
1.0842e-19 -0.0312685 0.011217 9.40103
0 -0.0112685 0.03125 4.13398
-7.91029e-20 0.0324815 0.00736572 19.5877
0 -0.0325185 0.00736572 15.2194
3.28979e-21 0.0074815 0.0325 4.17368
0 0.0299815 0.0146113 9.17378
-1.91544e-20 -0.0075185 0.0325 4.02288
4.03897e-28 0.0299815 0.0149988 8.87476
8.08456e-20 0.0149815 0.03 4.58812
3.28979e-21 -0.0150185 0.03 4.25962
9.27498e-20 -0.0300185 0.0149988 7.26812
0 0.0237315 0.02375 5.71265
0 -0.0237685 0.02375 5.06844
8.08456e-20 0.0249815 0.0225 6.0074
8.08456e-20 0.0224815 0.025 5.46935
-1.91544e-20 -0.0225185 0.025 4.88758
-1.91544e-20 -0.0250185 0.0225 5.28261
0 0.0337315 0.00116943 72.2627
0 0.0262315 0.02125 6.30579
0 0.0212315 0.02625 5.22832
0 0.0012315 0.03375 3.95721
-1.0842e-19 -0.0012685 0.03375 3.93324
-1.0842e-19 -0.0212685 0.02625 4.70571
0 -0.0262685 0.02125 5.49546
0 -0.0337685 0.00116943 80.809
0 0.0337315 0.00356873 34.9961
0 0.0037315 0.03375 3.98197
0 -0.0337685 0.00356872 33.5511
0 -0.0037685 0.03375 3.91005
-1.08828e-19 0.0324815 0.00994629 14.1932
-1.91544e-20 0.0274815 0.02 6.69053
-9.67102e-20 0.0199815 0.0275 5.01885
3.28979e-21 0.0099815 0.0325 4.20177
0 -0.0325185 0.00994629 10.806
1.58401e-19 -0.0100185 0.0325 4.00047
1.58401e-19 -0.0200185 0.0275 4.54521
1.58401e-19 -0.0275185 0.02 5.7617
0 0.0312315 0.0137433 9.68746
-1.0842e-19 0.0137315 0.03125 4.40133
1.0842e-19 -0.0137685 0.03125 4.11161
0 -0.0312685 0.0137433 7.76978
0 0.0337315 0.00608216 23.0355
0 0.0287315 0.01875 7.08134
2.1684e-19 -0.0337685 0.00608215 18.1269
-1.0842e-19 0.0187315 0.02875 4.81084
-1.0842e-19 0.0062315 0.03375 4.00758
0 -0.0062685 0.03375 3.88761
0 -0.0187685 0.02875 4.38387
-1.0842e-19 -0.0287685 0.01875 6.02609
0 0.0346215 0 72.201
-1.89327e-28 0.0299815 0.0174883 7.627
-9.67062e-20 0.0299815 0.0175 7.62113
8.08456e-20 0.0174815 0.03 4.62137
7.88861e-30 -0.0300185 0.0174847 6.384
8.08456e-20 -0.0175185 0.03 4.23737
0 -0.0300185 0.0175 6.37855
-1.53856e-19 0.0324815 0.0124878 10.9662
8.08456e-20 0.0124815 0.0325 4.23077
0 0.0337315 0.00865601 16.3274
8.08456e-20 -0.0125185 0.0325 3.97878
0 -0.0325185 0.0124878 8.5595
0 -0.0337685 0.00865601 12.2066
-1.0842e-19 0.0087315 0.03375 4.03405
0 -0.0087685 0.03375 3.86591
0 0.0349815 1.14719e-09 72.1737
3.28979e-21 -1.85e-05 0.035 3.80618
0 -0.0350185 1.15795e-08 80.9355
1.42397e-19 0.0349815 0.00233889 53.6367
3.28979e-21 0.0024815 0.035 3.82967
-9.67102e-20 -0.0025185 0.035 3.78345
0 -0.0350185 0.00233887 57.3952
0 0.0312315 0.0162494 8.17144
0 0.0162315 0.03125 4.43299
0 -0.0162685 0.03125 4.08995
0 -0.0312685 0.0162494 6.72832
-9.84643e-20 0.0349815 0.00479858 28.9944
-9.67102e-20 0.0249815 0.025 5.5125
2.06795e-25 -0.0350185 0.00479858 25.8292
-1.57772e-30 0.0049815 0.035 3.85396
-1.91544e-20 -0.0050185 0.035 3.76147
-1.91544e-20 -0.0250185 0.025 4.86384
0 0.0262315 0.02375 5.75892
1.0842e-19 0.0237315 0.02625 5.26847
0 -0.0237685 0.02625 4.68261
1.0842e-19 -0.0262685 0.02375 5.0441
8.08456e-20 0.0274815 0.0225 6.05823
6.45119e-20 0.0224815 0.0275 5.05685
1.58401e-19 -0.0225185 0.0275 4.52258
-9.67102e-20 -0.0275185 0.0225 5.25736
-2.1684e-19 0.0337315 0.011217 12.2758
1.0842e-19 0.0112315 0.03375 4.0614
0 -0.0112685 0.03375 3.84491
0 -0.0337685 0.011217 9.34552
-1.0842e-19 0.0287315 0.02125 6.36139
-1.0842e-19 0.0212315 0.02875 4.84677
0 0.0324815 0.0149166 9.05078
-4.63329e-20 0.0349815 0.00736572 19.7756
-1.0842e-19 -0.0212685 0.02875 4.36172
1.0842e-19 -0.0287685 0.02125 5.46938
-2.01948e-28 0.0324815 0.0149988 8.98593
-5.16988e-26 -0.0350185 0.00736572 15.122
8.08456e-20 0.0149815 0.0325 4.26072
6.45119e-20 0.0074815 0.035 3.87907
8.08456e-20 -0.0075185 0.035 3.74021
-1.91544e-20 -0.0150185 0.0325 3.95778
0 -0.0325185 0.0149988 7.23013
-9.67102e-20 0.0299815 0.02 6.75348
-9.67102e-20 0.0199815 0.03 4.65565
1.58401e-19 -0.0200185 0.03 4.21581
-9.67102e-20 -0.0300185 0.02 5.73425
1.0842e-19 0.0362314 0.00116944 72.0848
-1.0842e-19 0.0012315 0.03625 3.67825
1.0842e-19 -0.0012685 0.03625 3.65602
1.0842e-19 -0.0362685 0.00116943 81.062
2.06795e-25 0.0349815 0.00994629 14.402
3.28979e-21 0.0099815 0.035 3.90504
0 -0.0350185 0.00994629 10.7403
8.08456e-20 -0.0100185 0.035 3.71966
-1.0842e-19 0.0362315 0.00356874 34.6097
0 0.0337315 0.0137433 9.81925
0 0.0312315 0.01875 7.152
-1.0842e-19 0.0187315 0.03125 4.46566
1.0842e-19 0.0137315 0.03375 4.08967
0 0.0037315 0.03625 3.70125
1.0842e-19 -0.0362685 0.00356872 33.4051
0 -0.0037685 0.03625 3.63451
-1.0842e-19 -0.0137685 0.03375 3.82461
-1.0842e-19 -0.0187685 0.03125 4.06898
0 -0.0337685 0.0137433 7.7283
1.0842e-19 -0.0312685 0.01875 5.99738
0 0.0362315 0.00608216 23.1683
-1.0842e-19 -0.0362685 0.00608215 18.0127
0 0.0062315 0.03625 3.72503
0 -0.0062685 0.03625 3.61372
1.89327e-29 0.0324815 0.0174854 7.71166
-1.57772e-30 0.0324815 0.0175 7.70417
-9.67102e-20 0.0174815 0.0325 4.29167
1.10441e-28 -0.0325185 0.017482 6.35403
1.58401e-19 -0.0175185 0.0325 3.93747
8.08456e-20 -0.0325185 0.0175 6.34768
1.0842e-19 0.0262315 0.02625 5.30998
0 -0.0262685 0.02625 4.66022
2.7641e-21 0.0349815 0.0124878 11.1274
3.28979e-21 0.0274815 0.025 5.55715
6.45119e-20 0.0249815 0.0275 5.0961
3.28979e-21 0.0124815 0.035 3.93188
-9.67102e-20 -0.0125185 0.035 3.69978
1.58401e-19 -0.0250185 0.0275 4.50064
-1.61559e-27 -0.0350185 0.0124878 8.51217
-1.91544e-20 -0.0275185 0.025 4.84084
1.0842e-19 0.0362315 0.00865601 16.5592
-1.0842e-19 0.0287315 0.02375 5.80684
-1.0842e-19 0.0237315 0.02875 4.88384
0 0.0087315 0.03625 3.74964
0 -0.0362685 0.00865601 12.1312
-1.0842e-19 -0.0087685 0.03625 3.59363
-1.0842e-19 -0.0237685 0.02875 4.34026
1.0842e-19 -0.0287685 0.02375 5.02053
0 0.0337315 0.0162494 8.26757
-1.0842e-19 0.0162315 0.03375 4.1189
0 -0.0162685 0.03375 3.80497
-1.0842e-19 -0.0337685 0.0162494 6.69545
-3.30872e-24 0.0374814 1.67792e-08 72.0124
-9.67102e-20 0.0299815 0.0225 6.11098
6.45119e-20 0.0224815 0.03 4.69102
-3.54881e-20 -1.85e-05 0.0375 3.52518
8.08456e-20 -0.0225185 0.03 4.19492
8.08456e-20 -0.0300185 0.0225 5.23294
-1.65436e-24 -0.0375185 1.06128e-08 81.1844
-3.4907e-20 0.0374814 0.00233891 53.3486
3.28979e-21 0.0024815 0.0375 3.54725
3.28979e-21 -0.0025185 0.0375 3.50386
0 -0.0375185 0.00233887 57.4501
0 0.0312315 0.02125 6.41918
1.0842e-19 0.0212315 0.03125 4.49935
1.83436e-20 0.0374815 0.00479862 28.8402
-1.0842e-19 -0.0212685 0.03125 4.04868
-1.0842e-19 -0.0312685 0.02125 5.44416
0 -0.0375185 0.00479858 25.7025
-9.67102e-20 0.0049815 0.0375 3.57007
8.08456e-20 -0.0050185 0.0375 3.48324
0 0.0362315 0.011217 12.467
-1.0842e-19 0.0112315 0.03625 3.77508
-1.0842e-19 -0.0112685 0.03625 3.57419
0 -0.0362685 0.011217 9.29272
-2.01948e-28 0.0349815 0.0149735 9.1231
0 0.0349815 0.0149988 9.10269
-3.54881e-20 0.0149815 0.035 3.95964
1.58401e-19 -0.0150185 0.035 3.68056
0 -0.0350185 0.0149988 7.19375
-3.54881e-20 0.0324815 0.02 6.81908
-1.91544e-20 0.0199815 0.0325 4.32362
5.84013e-20 -0.0200185 0.0325 3.91782
1.58401e-19 -0.0325185 0.02 5.70776
9.50431e-20 0.0374815 0.00736572 19.947
0 -0.0375185 0.00736572 15.0298
3.28979e-21 0.0074815 0.0375 3.59369
-9.67102e-20 -0.0075185 0.0375 3.46333
0 0.0337315 0.01875 7.22585
1.0842e-19 0.0187315 0.03375 4.14912
-1.0842e-19 -0.0187685 0.03375 3.78599
0 -0.0337685 0.01875 5.9697
1.0842e-19 0.0387314 0.00116944 71.94
2.1684e-19 0.0362315 0.0137433 9.95759
-1.0842e-19 0.0137315 0.03625 3.80139
0 0.0012315 0.0387501 3.3938
-1.0842e-19 -0.0012685 0.0387501 3.37267
-1.0842e-19 -0.0137685 0.03625 3.5554
0 0.0374815 0.00994629 14.6146
0 -0.0362685 0.0137433 7.68869
0 -0.0387685 0.00116943 81.3068
-9.67102e-20 0.0099815 0.0375 3.61814
-6.46235e-27 -0.0375185 0.00994629 10.6778
6.45119e-20 -0.0100185 0.0375 3.44408
6.45119e-20 0.0274815 0.0275 5.13666
-2.1684e-19 0.0387314 0.00356874 34.1622
8.08456e-20 -0.0275185 0.0275 4.47937
0 0.0287315 0.02625 5.35288
0 0.0262315 0.02875 4.92213
0 0.0037315 0.0387501 3.41568
1.0842e-19 -0.0387685 0.00356872 33.2668
0 -0.0037685 0.0387501 3.35223
1.0842e-19 -0.0262685 0.02875 4.31945