# p  POINT_DATA 51066
# x  y  z  p
-1.65436e-24 -1.85074e-05 6.6528e-09 0.00855123
-8.27181e-25 0.00119687 0 0.00859186
-1.0842e-19 0.00123149 0.00116943 0.00859309
1.0842e-19 -0.0012685 0.00116944 0.00850938
-5.16988e-25 -1.85053e-05 0.00225641 0.00855385
-5.04441e-20 -1.85047e-05 0.00233887 0.00855394
-2.58494e-26 -0.000365962 0.00233887 0.00854228
0 0.0024815 7.03175e-09 0.00863481
0 -0.00251848 9.19775e-09 0.00846743
-5.29492e-20 0.00248149 0.00233887 0.00863763
0 -0.0025185 0.00233887 0.00847003
0 0.00360311 0 0.00867215
1.0842e-19 0.0012315 0.00356873 0.00859866
0 -0.0012685 0.00356873 0.00851473
0 0.00373149 0.00116943 0.00867652
-1.0842e-19 -0.0037685 0.00116944 0.00842548
0 0.00345782 0.00233887 0.00867018
-2.76993e-20 -1.85014e-05 0.00479858 0.00855453
0 0.00498151 8.64144e-09 0.00871805
0 -0.00501848 1.11359e-08 0.0083835
-2.1684e-19 0.0037315 0.00356872 0.00868232
-2.1684e-19 -0.0037685 0.00356872 0.00843061
0 -0.00230059 0.00479858 0.00847773
5.56899e-20 0.0024815 0.00479858 0.00863846
0 -0.0025185 0.00479858 0.00847039
4.36179e-20 0.0049815 0.00233887 0.00872098
0 -0.0050185 0.00233887 0.00838599
0 -0.0025185 0.00562951 0.00846794
1.0842e-19 0.0012315 0.00608215 0.00859444
-1.0842e-19 -0.0012685 0.00608215 0.00851025
-2.58494e-26 0.00405027 0.00479858 0.00869092
0 0.0062315 0.00116943 0.00875957
-2.1684e-19 -0.0062685 0.00116943 0.00834152
-5.57285e-20 0.0049815 0.00479858 0.00872207
0 -0.0050185 0.00479858 0.00838615
0 0.0037315 0.00608215 0.00867836
2.1684e-19 -0.0037685 0.00608215 0.00842592
0 0.0062315 0.00356872 0.0087656
0 -0.0062685 0.00356872 0.00834645
2.58069e-20 -1.85008e-05 0.00736572 0.00854695
0 0.00748152 1.19772e-08 0.00880085
0 -0.00751848 1.07684e-08 0.00829956
-1.05556e-19 0.0024815 0.00736572 0.0086309
0 -0.0025185 0.00736572 0.00846283
-4.5064e-20 0.0074815 0.00233887 0.0088039
0 -0.0075185 0.00233887 0.00830195
6.46235e-27 0.00374544 0.00736572 0.00867319
-2.1684e-19 0.0062315 0.00608215 0.00876193
-2.58494e-26 -0.0050185 0.00712053 0.00837937
1.0842e-19 -0.0062685 0.00608215 0.00834158
1.0842e-19 0.0012315 0.008656 0.00858352
0 -0.0012685 0.00865601 0.00849958
0 0.0087315 0.00116944 0.00884213
0 -0.0087685 0.00116943 0.0082576
-4.59695e-20 0.0074815 0.00479858 0.00880526
-1.29247e-26 0.0049815 0.00736572 0.00871455
6.18484e-20 -0.0050185 0.00736572 0.00837865
0 -0.0075185 0.00479858 0.00830195
0 0.0037315 0.008656 0.00866725
-2.1684e-19 0.0087315 0.00356872 0.00884842
-1.0842e-19 -0.0037685 0.008656 0.00841555
0 -0.0087685 0.00356872 0.00826233
-2.58494e-26 -0.0075185 0.00649949 0.00829704
-3.91359e-20 -1.85002e-05 0.00994629 0.0085322
-3.30872e-24 0.00998151 1.51405e-08 0.00888312
0 -0.0100185 9.42944e-09 0.00821574
3.38669e-20 0.0024815 0.00994629 0.0086158
0 0.00998151 0.00233888 0.0088863
5.27421e-20 -0.0025185 0.00994629 0.00844848
0 -0.0100185 0.00233887 0.00821803
3.23117e-27 0.00312673 0.00994629 0.00863732
-5.16988e-26 0.0074815 0.00736572 0.00879781
0 -0.0075185 0.00736572 0.00829454
1.29247e-26 -0.00948201 0.00479858 0.00823593
0 0.0087315 0.00608215 0.00884506
-1.0842e-19 0.0062315 0.008656 0.00875064
-1.0842e-19 -0.0087685 0.00608215 0.00825737
0 -0.0062685 0.008656 0.00833154
-4.52364e-26 -0.0100185 0.00470476 0.0082179
0 0.0099815 0.00479858 0.00888796
0 -0.0100185 0.00479858 0.00821789
0 0.0049815 0.00994629 0.00869917
1.44227e-22 -0.0050185 0.00994629 0.00836473
-1.0842e-19 0.0012315 0.011217 0.00856462
1.0842e-19 -0.0012685 0.011217 0.00848117
2.1684e-19 0.0112315 0.00116943 0.00892411
-1.0842e-19 -0.0112685 0.00116944 0.00817387
0 0.0112315 0.00356872 0.00893066
0 -0.0112685 0.00356873 0.00817839
0 0.0037315 0.011217 0.00864793
0 -0.0037685 0.011217 0.00839769
0 0.0087315 0.008656 0.0088336
-1.0842e-19 -0.0087685 0.008656 0.00824765
1.03398e-25 0.0099815 0.00736572 0.0088806
2.65238e-20 -0.0100185 0.00736572 0.00821061
0 0.0074815 0.00994629 0.0087822
9.54016e-20 -0.0075185 0.00994629 0.00828106
0 0.0124815 1.7225e-08 0.00896477
1.22913e-19 -1.85e-05 0.0124878 0.00851131
0 -0.0125185 8.84488e-09 0.00813215
8.27181e-25 0.0124815 0.00233888 0.00896808
2.59272e-20 0.0024815 0.0124878 0.00859443
0 -0.0125185 0.00233887 0.00813434
-8.62145e-20 -0.0025185 0.0124878 0.0084281
1.00974e-28 0.00267227 0.0124878 0.00860076
-2.1684e-19 0.0112315 0.00608215 0.00892765
0 -0.0112685 0.00608215 0.00817341
0 0.0062315 0.011217 0.00873098
1.0842e-19 -0.0062685 0.011217 0.00831422
-4.52364e-26 -0.0125185 0.00470049 0.00813411
0 0.0124815 0.00479858 0.00897005
-4.03902e-20 -0.0125185 0.00479858 0.0081341
-1.61559e-27 0.0049815 0.0124878 0.00867737
1.37859e-19 -0.0050185 0.0124878 0.00834489
1.0842e-19 0.0137315 0.00116944 0.00900542
0 0.0012315 0.0137433 0.00854124
0 -0.0012685 0.0137433 0.0084583
2.1684e-19 -0.0137685 0.00116944 0.00809043
2.58494e-26 -0.0130218 0.00479858 0.00811731
0 0.0099815 0.00994629 0.0088648
4.78542e-20 -0.0100185 0.00994629 0.00819755
0 0.0112315 0.008656 0.00891607
0 0.0137315 0.00356872 0.00901224
2.1684e-19 -0.0112685 0.008656 0.00816399
1.0842e-19 0.0087315 0.011217 0.00881369
-2.1684e-19 -0.0137685 0.00356873 0.00809474
0 -0.0087685 0.011217 0.00823089
-1.0842e-19 0.0037315 0.0137433 0.00862404
-1.0842e-19 -0.0037685 0.0137433 0.00837533
0 0.0124815 0.00736572 0.00896284
-7.44408e-20 -0.0125185 0.00736572 0.00812697
0 0.0074815 0.0124878 0.00876001
-7.41376e-20 -0.0075185 0.0124878 0.00826178
0 0.0149815 1.75063e-08 0.0090457
3.4253e-20 -1.85e-05 0.0149988 0.008486
0 0.0137315 0.00608215 0.00900963
-1.65436e-24 -0.0150185 9.25945e-09 0.00804892
0 -0.0137685 0.00608215 0.00808979
-2.1684e-19 0.0062315 0.0137433 0.00870661
0 -0.0062685 0.0137433 0.00829242
-8.27181e-25 0.0149815 0.00233888 0.00904914
-1.73461e-19 -0.0150185 0.00233887 0.008051
-1.90033e-20 0.0024815 0.0149988 0.00856854
1.0875e-19 -0.0025185 0.0149988 0.00840338
1.26218e-29 0.00255892 0.0149988 0.00857109
4.1359e-25 0.0149815 0.00479858 0.00905145
-1.3895e-19 -0.0150185 0.00479858 0.00805068
0 0.0049815 0.0149988 0.0086509
7.52796e-20 -0.0050185 0.0149988 0.0083208
-1.0842e-19 0.0112315 0.011217 0.00889596
0 -0.0112685 0.011217 0.00814776
0 0.0124815 0.00994629 0.00894691
6.46235e-27 0.0099815 0.0124878 0.00884227
-1.09991e-19 -0.0125185 0.00994629 0.00811434
2.40675e-20 -0.0100185 0.0124878 0.00817886
-1.0842e-19 0.0137315 0.008656 0.00899799
1.0842e-19 -0.0137685 0.008656 0.00808067
-1.0842e-19 0.0162315 0.00116944 0.00908599
2.1684e-19 0.0087315 0.0137433 0.00878886
0 0.0012315 0.0162494 0.00851337
0 -0.0012685 0.0162494 0.00843111
-1.0842e-19 -0.0087685 0.0137433 0.00820967
1.0842e-19 -0.0162685 0.00116944 0.0080074
-6.46235e-27 -0.0150185 0.00698462 0.00804476
1.0842e-19 0.0162315 0.00356873 0.00909303
1.0842e-19 -0.0162685 0.00356872 0.00801151
-1.0842e-19 0.0037315 0.0162494 0.00859553
0 -0.0037685 0.0162494 0.00834883
0 0.0149815 0.00736572 0.00904445
9.61667e-20 -0.0150185 0.00736572 0.00804373
4.03897e-28 0.0074815 0.0149988 0.008733
1.22701e-19 -0.0075185 0.0149988 0.00823832
-1.29247e-26 -0.0156532 0.00736572 0.00802272
-1.0842e-19 0.0162315 0.00608215 0.00909089
0 -0.0162685 0.00608215 0.00800662
1.0842e-19 0.0062315 0.0162494 0.00867747
-2.1684e-19 -0.0062685 0.0162494 0.00826663
0 0.0174815 1.69306e-08 0.00912586
8.08445e-20 -1.85e-05 0.0175 0.00845653
-1.65436e-24 -0.0175185 1.0366e-08 0.00796616
3.77012e-20 0.0174815 0.00233888 0.0091294
0 0.0124815 0.0124878 0.00892408
8.86415e-20 -0.0175185 0.00233887 0.00796815
-1.91549e-20 0.0024815 0.0175 0.00853834
8.08441e-20 -0.0025185 0.0175 0.00837466
1.21689e-19 -0.0125185 0.0124878 0.00809624
0 0.0137315 0.011217 0.00897772
1.0842e-19 0.0112315 0.0137433 0.0088707
0 -0.0137685 0.011217 0.00806499
0 -0.0112685 0.0137433 0.00812719
0 0.0149815 0.00994629 0.00902844
-4.07164e-20 -0.0150185 0.00994629 0.00803152
0 0.0099815 0.0149988 0.00881475
-1.91273e-20 -0.0100185 0.0149988 0.00815607
4.1359e-25 0.0174815 0.00479858 0.00913206
0 -0.0175185 0.00479858 0.00796776
-4.73317e-29 0.0049815 0.0174752 0.00862031
-1.57772e-30 0.0049815 0.0175 0.00862
8.0843e-20 -0.0050185 0.0175 0.00829283
-2.1684e-19 0.0162315 0.008656 0.00907929
0 -0.0162685 0.008656 0.0079978
2.1684e-19 0.0087315 0.0162494 0.00875912
-2.1684e-19 -0.0087685 0.0162494 0.0081846
1.0842e-19 0.0187315 0.00116944 0.00916573
-1.0842e-19 0.0012315 0.01875 0.00848155
-1.0842e-19 -0.0012685 0.01875 0.00840008
-1.0842e-19 -0.0187685 0.00116943 0.00792492
0 0.0174815 0.00736572 0.00912535
0 -0.0175185 0.00736572 0.00796099
-5.36425e-29 0.0074815 0.0174897 0.00870155
5.84013e-20 0.0074815 0.0175 0.00870142
4.20638e-20 -0.0075185 0.0175 0.00821113
1.0842e-19 0.0187315 0.00356873 0.00917298
-2.1684e-19 -0.0187685 0.00356872 0.00792882
1.0842e-19 0.0037315 0.01875 0.00856292
-1.0842e-19 -0.0037685 0.01875 0.00831861
-1.0842e-19 0.0137315 0.0137433 0.00895205
1.0842e-19 -0.0137685 0.0137433 0.00804507
6.46235e-27 0.0149815 0.0124878 0.00900534
8.07794e-28 0.0124815 0.0149988 0.00889607
-4.09716e-21 -0.0150185 0.0124878 0.00801403
7.47107e-20 -0.0125185 0.0149988 0.00807415
0 -0.0169621 0.00994629 0.00796753
-1.0842e-19 0.0187315 0.00608215 0.00917134
2.1684e-19 -0.0187685 0.00608215 0.00792402
1.0842e-19 0.0162315 0.011217 0.00905888
-1.0842e-19 0.0112315 0.0162494 0.00884038
0 0.0062315 0.01875 0.0086441
1.0842e-19 -0.0162685 0.011217 0.00798268
0 -0.0062685 0.01875 0.00823723
0 -0.0112685 0.0162494 0.00810286
3.30872e-24 0.0199815 1.72996e-08 0.00920515
8.08456e-20 -1.85e-05 0.02 0.00842326
1.65436e-24 -0.0200185 1.16649e-08 0.007884
0 0.0174815 0.00994629 0.00910932
8.27181e-25 0.0199815 0.00233888 0.0092088
-2.25614e-28 0.0099815 0.0174933 0.0087826
-1.35661e-19 -0.0175185 0.00994629 0.00794921
-1.91459e-20 0.0099815 0.0175 0.00878251
-1.91544e-20 0.0024815 0.02 0.00850422
0 -0.0200185 0.00233887 0.00788588
8.08456e-20 -0.0025185 0.02 0.00834226
4.20638e-20 -0.0100185 0.0175 0.00812967
-4.1359e-25 0.0199815 0.00479858 0.00921181
0 -0.0200185 0.00479858 0.00788545
5.84013e-20 0.0049815 0.02 0.00858503
8.08456e-20 -0.0050185 0.02 0.00826131
-1.0842e-19 0.0187315 0.008656 0.00915987
0 -0.0187685 0.008656 0.00791549
0 0.0087315 0.01875 0.008725
1.0842e-19 -0.0087685 0.01875 0.00815605
0 0.0149815 0.0149988 0.00897687
-5.77715e-20 -0.0150185 0.0149988 0.00799265
-1.0842e-19 0.0212315 0.00116944 0.00924458
2.1684e-19 0.0162315 0.0137433 0.00903283
1.0842e-19 0.0137315 0.0162494 0.00892119
0 0.0012315 0.02125 0.00844597
0 -0.0012685 0.02125 0.00836543
0 0.0199815 0.00736572 0.00920544
0 -0.0162685 0.0137433 0.00796345
0 -0.0137685 0.0162494 0.0080215
1.0842e-19 -0.0212685 0.00116943 0.00784308
2.58494e-26 -0.0200185 0.00736572 0.00787887
1.58401e-19 0.0074815 0.02 0.00866563
-3.54881e-20 -0.0075185 0.02 0.0081805
6.05845e-28 -0.0175185 0.0122552 0.00793389
-6.46235e-27 0.0174815 0.0124878 0.00908598
-1.57772e-30 0.0124815 0.0175 0.00886321
-2.01948e-28 -0.0175185 0.0124878 0.00793235
-9.67102e-20 -0.0125185 0.0175 0.00804854
1.0842e-19 0.0212315 0.00356873 0.00925202
-1.0842e-19 -0.0212685 0.00356872 0.00784679
1.0842e-19 0.0037315 0.02125 0.00852642
-1.0842e-19 -0.0037685 0.02125 0.0082849
0 0.0187315 0.011217 0.00913936
-1.0842e-19 0.0112315 0.01875 0.00880555
0 -0.0187685 0.011217 0.00790095
0 -0.0112685 0.01875 0.00807516
-1.00974e-28 -0.018128 0.0124878 0.00791259
0 0.0212315 0.00608215 0.00925091
1.0842e-19 -0.0212685 0.00608215 0.0078421
0 0.0062315 0.02125 0.00860669
1.0842e-19 -0.0062685 0.02125 0.00820447
0 0.0199815 0.00994629 0.00918946
1.58401e-19 0.0099815 0.02 0.00874591
0 -0.0200185 0.00994629 0.00786753
6.45119e-20 -0.0100185 0.02 0.00809994
3.30872e-24 0.0224815 1.82994e-08 0.00928353
8.08456e-20 -1.85e-05 0.0225 0.00838642
0 -0.0225185 1.24074e-08 0.00780254
-8.27181e-25 0.0224815 0.00233888 0.00928726
8.08456e-20 0.0024815 0.0225 0.00846638
8.27181e-25 -0.0225185 0.00233887 0.00780433
-9.67102e-20 -0.0025185 0.0225 0.00830642
0 0.0212315 0.008656 0.00923964
1.0842e-19 -0.0212685 0.008656 0.00783386
0 0.0162315 0.0162494 0.00900147
-1.0842e-19 0.0087315 0.02125 0.0086867
0 0.0224815 0.00479858 0.00929063
1.0842e-19 -0.0087685 0.02125 0.00812424
-1.0842e-19 -0.0162685 0.0162494 0.00794062
-2.06795e-25 -0.0225185 0.00479858 0.00780386
0 0.0149815 0.0175 0.0089434
0 0.0174815 0.0149988 0.00905709
-1.91544e-20 0.0049815 0.0225 0.00854621
3.28979e-21 -0.0050185 0.0225 0.00822647
4.20664e-20 -0.0150185 0.0175 0.00796786
-5.04871e-29 -0.0175185 0.0149988 0.0079117
0 0.0187315 0.0137433 0.00911298
-1.0842e-19 0.0137315 0.01875 0.00888565
0 -0.0137685 0.01875 0.00799466
1.0842e-19 -0.0187685 0.0137433 0.00788241
0 0.0199815 0.0124878 0.00916593
1.58401e-19 0.0124815 0.02 0.0088258
4.03897e-28 -0.0200185 0.0124878 0.0078513
-3.54881e-20 -0.0125185 0.02 0.00801972
0 0.0224815 0.00736572 0.00928465
0 -0.0225185 0.00736572 0.00779748
1.58401e-19 0.0074815 0.0225 0.00862583
-3.54881e-20 -0.0075185 0.0225 0.00814668
0 0.0237315 0.00116944 0.00932248
0 0.0012315 0.02375 0.00840686
0 -0.0012685 0.02375 0.00832739
1.0842e-19 -0.0237685 0.00116943 0.007762
-1.0842e-19 0.0237315 0.00356873 0.00933008
0 0.0212315 0.011217 0.00921909
1.0842e-19 -0.0237685 0.00356872 0.00776552
0 0.0112315 0.02125 0.00876637
-1.0842e-19 0.0037315 0.02375 0.00848625
-2.1684e-19 -0.0212685 0.011217 0.00781989
0 -0.0037685 0.02375 0.00824793
0 -0.0112685 0.02125 0.00804431
0 0.0237315 0.00608215 0.0093295
-2.1684e-19 -0.0237685 0.00608215 0.00776096
-1.0842e-19 0.0062315 0.02375 0.00856548
1.0842e-19 -0.0062685 0.02375 0.00816857
0 0.0224815 0.00994629 0.00926879
-4.15987e-20 0.0099815 0.0225 0.00870514
0 -0.0225185 0.00994629 0.00778657
-3.54881e-20 -0.0100185 0.0225 0.00806713
0 -0.0196373 0.0149988 0.00784362
9.30856e-29 0.0174815 0.0174936 0.0090231
5.84091e-20 0.0174815 0.0175 0.00902302
8.08456e-20 -0.0175185 0.0175 0.00788771
0 0.0187315 0.0162494 0.00908113
0 0.0162315 0.01875 0.00896524
1.0842e-19 -0.0162685 0.01875 0.00791464
-1.0842e-19 -0.0187685 0.0162494 0.00786033
0 0.0249815 1.76874e-08 0.00936093
0 0.0199815 0.0149988 0.00913665
1.58401e-19 0.0149815 0.02 0.00890521
1.58401e-19 -1.85e-05 0.025 0.00834622
3.28979e-21 -0.0150185 0.02 0.00793995
0 -0.0200185 0.0149988 0.00783137
-1.65436e-24 -0.0250185 1.26459e-08 0.0077219
-8.27181e-25 0.0249815 0.00233888 0.00936473
-9.67102e-20 0.0024815 0.025 0.00842505
-1.91544e-20 -0.0025185 0.025 0.00826736
0 -0.0250185 0.00233887 0.0077236
-1.0842e-19 0.0237315 0.008656 0.00931855
1.0842e-19 0.0212315 0.0137433 0.00919242
0 -0.0237685 0.008656 0.00775299
1.0842e-19 0.0137315 0.02125 0.0088456
1.0842e-19 0.0087315 0.02375 0.00864443
0 -0.0087685 0.02375 0.00808941
0 -0.0137685 0.02125 0.00796477
1.0842e-19 -0.0212685 0.0137433 0.00780206
0 0.0249815 0.00479858 0.00936843
0 -0.0250185 0.00479858 0.0077231
3.28979e-21 0.0049815 0.025 0.00850376
8.08456e-20 -0.0050185 0.025 0.00818854
6.46235e-27 0.0224815 0.0124878 0.00924512
0 0.0124815 0.0225 0.00878407
-3.54881e-20 -0.0125185 0.0225 0.00798793
0 -0.0225185 0.0124878 0.007771
-1.03398e-25 0.0249815 0.00736572 0.00936291
5.16988e-26 -0.0250185 0.00736572 0.00771692
8.08456e-20 0.0074815 0.025 0.00858225
-9.67102e-20 -0.0075185 0.025 0.00810988
2.1684e-19 0.0237315 0.011217 0.009298
0 0.0262315 0.00116943 0.00939938
0 0.0112315 0.02375 0.00872306
-1.0842e-19 0.0012315 0.02625 0.00836445
0 -0.0012685 0.02625 0.00828618
0 -0.0237685 0.011217 0.00773961
0 -0.0112685 0.02375 0.00801055
-1.57772e-30 -0.0200185 0.0170481 0.00781238
1.0842e-19 -0.0262685 0.00116943 0.0076818
1.0842e-19 0.0262315 0.00356873 0.0094071
0 0.0187315 0.01875 0.00904424
-1.0842e-19 -0.0262685 0.00356872 0.00768514
0 0.0037315 0.02625 0.00844264
0 -0.0037685 0.02625 0.00820791
1.0842e-19 -0.0187685 0.01875 0.00783522
8.36193e-29 0.0199815 0.017493 0.00910211
-1.57772e-30 0.0199815 0.0175 0.00910202
5.84013e-20 0.0174815 0.02 0.00898408
8.08456e-20 -0.0175185 0.02 0.00786071
-1.57772e-30 -0.0200185 0.0175 0.00780819
0 0.0212315 0.0162494 0.00916012
-1.0842e-19 0.0162315 0.02125 0.00892434
1.0842e-19 -0.0162685 0.02125 0.00788571
1.0842e-19 -0.0212685 0.0162494 0.00778073
0 0.0249815 0.00994629 0.00934725
1.58401e-19 0.0099815 0.025 0.00866043
0 -0.0250185 0.00994629 0.00770644
1.0842e-19 0.0262315 0.00608215 0.00940705
-9.67102e-20 -0.0100185 0.025 0.00803146
0 -0.0262685 0.00608215 0.00768073
1.0842e-19 0.0062315 0.02625 0.00852065
0 -0.0062685 0.02625 0.00812975
0 0.0224815 0.0149988 0.00921548
5.84013e-20 0.0149815 0.0225 0.00886254
3.28979e-21 -0.0150185 0.0225 0.00790917
0 -0.0225185 0.0149988 0.00775179
0 0.0237315 0.0137433 0.00927109
0 0.0137315 0.02375 0.00880126
1.0842e-19 -0.0137685 0.02375 0.00793208
-1.0842e-19 -0.0237685 0.0137433 0.00772251
-2.06795e-25 0.0274815 1.36325e-09 0.00943731
-1.91544e-20 -1.85e-05 0.0275 0.00830286
1.65436e-24 -0.0275185 1.29129e-08 0.00764219
-4.1359e-25 0.0274815 0.00233887 0.00944115
8.08456e-20 0.0024815 0.0275 0.00838042
-1.91544e-20 -0.0025185 0.0275 0.00822526
0 -0.0275185 0.00233886 0.00764381
-1.0842e-19 0.0262315 0.008656 0.00939653
0 -0.0262685 0.008656 0.007673
0 0.0087315 0.02625 0.00859841
0 -0.0087685 0.02625 0.00805178
0 0.0274815 0.00479858 0.00944516
0 0.0249815 0.0124878 0.00932349
0 -0.0275185 0.00479858 0.00764329
5.84013e-20 0.0124815 0.025 0.00873824
-1.91544e-20 0.0049815 0.0275 0.00845785
1.58401e-19 -0.0050185 0.0275 0.0081477
-1.91544e-20 -0.0125185 0.025 0.00795339
1.61559e-27 -0.0250185 0.0124878 0.00769153
0 0.0278132 0.00479858 0.00945519
-1.91544e-20 0.0199815 0.02 0.00906234
1.9387e-26 0.0273138 0.00736572 0.00943497
1.58401e-19 -0.0200185 0.02 0.00778211
0 0.0212315 0.01875 0.00912259
-1.0842e-19 0.0187315 0.02125 0.0090025
1.0842e-19 -0.0187685 0.02125 0.00780725
0 -0.0212685 0.01875 0.00775648
-3.87741e-26 0.0274815 0.00709019 0.00944069
9.46633e-30 -0.0225185 0.0173278 0.00773096
0 0.0274815 0.00736572 0.00944015
2.8399e-29 0.0224815 0.0174925 0.00918043
5.16988e-26 -0.0275185 0.00736572 0.00763731
-1.91544e-20 0.0224815 0.0175 0.00918032
-1.91544e-20 0.0174815 0.0225 0.00894048
-1.91544e-20 0.0074815 0.0275 0.00853506
8.08456e-20 -0.0075185 0.0275 0.00807029
8.08456e-20 -0.0175185 0.0225 0.00783094
8.08458e-20 -0.0225185 0.0175 0.00772941
-1.0842e-19 0.0262315 0.011217 0.00937605
0 0.0112315 0.02625 0.00867583
2.1684e-19 -0.0262685 0.011217 0.00766023
0 -0.0112685 0.02625 0.0079741
0 0.0287315 0.00116943 0.00947525
1.0842e-19 0.0237315 0.0162494 0.00923836
0 0.0162315 0.02375 0.00887896
0 0.0012315 0.02875 0.00831887
0 -0.0012685 0.02875 0.00824193
0 -0.0162685 0.02375 0.00785409
1.0842e-19 -0.0237685 0.0162494 0.00770192
-1.0842e-19 -0.0287685 0.00116943 0.00760259
-1.0842e-19 0.0287315 0.00356873 0.00948301
2.1684e-19 -0.0287685 0.00356872 0.00760575
0 0.0037315 0.02875 0.00839571
0 -0.0037685 0.02875 0.00816499
0 0.0249815 0.0149988 0.00929354
0 0.0274815 0.00969561 0.00942628
5.84013e-20 0.0149815 0.025 0.00881559
-1.91544e-20 -0.0150185 0.025 0.00787574
0 -0.0250185 0.0149988 0.00767306
8.07794e-28 0.0274815 0.00994629 0.00942479
-1.91544e-20 0.0099815 0.0275 0.00861196
0 -0.0275185 0.00994629 0.00762725
-1.91544e-20 -0.0100185 0.0275 0.00799312
0 0.0275291 0.00994629 0.00942625
-1.0842e-19 0.0287315 0.00608215 0.00948348
1.0842e-19 -0.0287685 0.00608215 0.00760149
0 0.0062315 0.02875 0.00847238
0 -0.0062685 0.02875 0.00808815
1.03398e-25 0.0293436 0.00233887 0.00949726
1.0842e-19 0.0262315 0.0137433 0.00934893
0 0.0137315 0.02625 0.00875282
0 -0.0137685 0.02625 0.0078968
0 -0.0262685 0.0137433 0.00764386
0 0.0299815 1.10974e-08 0.00951262
8.08456e-20 -1.85e-05 0.03 0.00825652
0 0.0287315 0.008656 0.00947352
0 -0.0300185 1.29523e-08 0.00756353
0 0.0212315 0.02125 0.00908003
0 -0.0287685 0.008656 0.007594
0 0.0087315 0.02875 0.00854877
0 -0.0087685 0.02875 0.00801148
9.30578e-25 0.0299815 0.00217867 0.00951622
1.0842e-19 -0.0212685 0.02125 0.00772947
0 0.0299815 0.00233887 0.00951648
8.08456e-20 0.0224815 0.02 0.00913993
-9.67102e-20 0.0199815 0.0225 0.00901781
-9.67102e-20 0.0024815 0.03 0.00833267
-1.91544e-20 -0.0025185 0.03 0.00818031
8.27181e-25 -0.0300185 0.00233886 0.00756505
1.58401e-19 -0.0200185 0.0225 0.00775334
5.84013e-20 -0.0225185 0.02 0.00770424
0 0.0274815 0.0124878 0.00940098
-1.91544e-20 0.0124815 0.0275 0.00868847
-1.91544e-20 -0.0125185 0.0275 0.00791627
2.5508e-20 -0.0275185 0.0124878 0.00761301
0 0.0237315 0.01875 0.00920023
0 0.0187315 0.02375 0.0089561
0 -0.0187685 0.02375 0.00777669
0 -0.0237685 0.01875 0.00767853
-7.2466e-20 0.0299815 0.00479858 0.00952076
0 -0.0300185 0.00479858 0.00756452
-1.91544e-20 0.0049815 0.03 0.00840867
-1.91544e-20 -0.0050185 0.03 0.00810414
7.57306e-29 0.0249815 0.0174915 0.009258
1.57772e-30 0.0249815 0.0175 0.00925788
1.26218e-29 -0.0250185 0.0174511 0.00765189
8.08456e-20 0.0174815 0.025 0.00889241
8.08456e-20 -0.0175185 0.025 0.00779863
-1.91527e-20 -0.0250185 0.0175 0.00765147
0 0.0287315 0.011217 0.00945317
0 0.0262315 0.0162494 0.00931582
-1.0842e-19 0.0162315 0.02625 0.00882931
0 0.0112315 0.02875 0.00862481
-2.25992e-20 0.0299815 0.00736572 0.00951632
1.0842e-19 -0.0287685 0.011217 0.00758183
-1.0842e-19 -0.0112685 0.02875 0.0079351
-1.0842e-19 -0.0162685 0.02625 0.00781998
0 -0.0262685 0.0162494 0.00762399
0 -0.0300185 0.00736572 0.00755874
-1.91544e-20 0.0074815 0.03 0.00848445
-9.67102e-20 -0.0075185 0.03 0.0080281
0 0.0312315 0.00116943 0.00955
1.0842e-19 0.0012315 0.03125 0.00827036
1.0842e-19 -0.0012685 0.03125 0.00819489
1.0842e-19 -0.0312685 0.00116943 0.00752447
0 0.0274815 0.0149988 0.00937076
8.08456e-20 0.0149815 0.0275 0.00876452
-1.91544e-20 -0.0150185 0.0275 0.00783985
2.85151e-20 -0.0275185 0.0149988 0.00759526
1.61559e-27 0.0287474 0.0124878 0.00943976
1.0842e-19 0.0312315 0.00356873 0.00955779
0 -0.0312685 0.00356872 0.00752745
1.0842e-19 0.0037315 0.03125 0.00834571
-1.0842e-19 -0.0037685 0.03125 0.00811941
2.86107e-20 0.0299815 0.00994629 0.00950135
-1.91544e-20 0.0099815 0.03 0.0085599
0 -0.0300185 0.00994629 0.0075491
-1.91544e-20 -0.0100185 0.03 0.00795228
-9.67102e-20 0.0224815 0.0225 0.00909448
0 0.0312315 0.00608215 0.00955877
8.08456e-20 -0.0225185 0.0225 0.00767647
0 0.0287315 0.0137433 0.00942591
0 -0.0312685 0.00608215 0.00752334
1.0842e-19 0.0237315 0.02125 0.00915685
0 0.0212315 0.02375 0.00903261
1.0842e-19 0.0137315 0.02875 0.00870042
0 0.0062315 0.03125 0.00842088
0 -0.0062685 0.03125 0.008044
0 -0.0137685 0.02875 0.00785908
-1.0842e-19 -0.0212685 0.02375 0.00769996
0 -0.0237685 0.02125 0.00765246
2.1684e-19 -0.0287685 0.0137433 0.00756618
1.58401e-19 0.0249815 0.02 0.00921678
-9.67102e-20 0.0199815 0.025 0.00896862
-1.91544e-20 -0.0200185 0.025 0.00772213
5.84013e-20 -0.0250185 0.02 0.00762719
-1.0842e-19 0.0262315 0.01875 0.0092771
1.0842e-19 0.0187315 0.02625 0.00890524
0 -0.0187685 0.02625 0.00774373
-1.0842e-19 -0.0262685 0.01875 0.00760145
0 0.0312315 0.00865601 0.00954948
-1.0842e-19 -0.0312685 0.008656 0.00751611
0 0.0087315 0.03125 0.00849576
-1.0842e-19 -0.0087685 0.03125 0.00796876
5.37675e-20 0.0299815 0.0124878 0.00947756
-8.27181e-25 0.0324815 6.81883e-09 0.0095868
8.08456e-20 0.0124815 0.03 0.00863495
8.08456e-20 -1.85e-05 0.0325 0.00820731
0 0.0324815 0.00123728 0.00958884
3.28979e-21 -0.0125185 0.03 0.00787678
0 -0.0300185 0.0124878 0.0075355
0 -0.0325185 1.24503e-08 0.007486
-2.27276e-20 0.0324815 0.00233888 0.00959066
-1.76705e-28 0.0274815 0.01749 0.00933477
-1.57772e-30 0.0274815 0.0175 0.00933463
-1.91544e-20 0.0174815 0.0275 0.00884003
3.28979e-21 0.0024815 0.0325 0.00828191
1.58401e-19 -0.0025185 0.0325 0.00813263
0 -0.0275185 0.0174791 0.00757462
-8.27181e-25 -0.0325185 0.00233887 0.00748743
-1.91544e-20 -0.0175185 0.0275 0.00776395
1.57772e-30 -0.0275185 0.0175 0.00757444
-9.79125e-20 0.0324815 0.0047986 0.00959521
0 -0.0325185 0.00479858 0.00748689
3.28979e-21 0.0049815 0.0325 0.00835634
5.84013e-20 -0.0050185 0.0325 0.00805797
0 0.0287315 0.0162494 0.00939244
-1.0842e-19 0.0162315 0.02875 0.00877552
0 -0.0162685 0.02875 0.00778353
-1.0842e-19 -0.0287685 0.0162494 0.00754702
1.0842e-19 0.0312315 0.011217 0.00952931
0 0.0112315 0.03125 0.00857026
1.0842e-19 -0.0312685 0.011217 0.00750451
0 -0.0112685 0.03125 0.00789378
-7.91029e-20 0.0324815 0.00736572 0.00959139
0 -0.0325185 0.00736572 0.00748131
3.28979e-21 0.0074815 0.0325 0.00843053
0 0.0299815 0.0146113 0.00945181
-1.91544e-20 -0.0075185 0.0325 0.00798342
4.03897e-28 0.0299815 0.0149988 0.00944711
8.08456e-20 0.0149815 0.03 0.00870953
3.28979e-21 -0.0150185 0.03 0.00780169
9.27498e-20 -0.0300185 0.0149988 0.00751845
0 0.0237315 0.02375 0.00910843
0 -0.0237685 0.02375 0.00762399
8.08456e-20 0.0249815 0.0225 0.00917043
8.08456e-20 0.0224815 0.025 0.00904418
-1.91544e-20 -0.0225185 0.025 0.00764635
-1.91544e-20 -0.0250185 0.0225 0.0076004
0 0.0337315 0.00116943 0.0096236
0 0.0262315 0.02125 0.00923294
0 0.0212315 0.02625 0.00898053
0 0.0012315 0.03375 0.00821892
-1.0842e-19 -0.0012685 0.03375 0.00814505
-1.0842e-19 -0.0212685 0.02625 0.00766815
0 -0.0262685 0.02125 0.00757631
0 -0.0337685 0.00116943 0.00744753
0 0.0337315 0.00356873 0.00963137
0 0.0037315 0.03375 0.00829263
0 -0.0337685 0.00356872 0.00745034
0 -0.0037685 0.03375 0.00807116
-1.08828e-19 0.0324815 0.00994629 0.00957688
-1.91544e-20 0.0274815 0.02 0.00929285
-9.67102e-20 0.0199815 0.0275 0.00891494
3.28979e-21 0.0099815 0.0325 0.00850438
0 -0.0325185 0.00994629 0.00747207
1.58401e-19 -0.0100185 0.0325 0.00790908
1.58401e-19 -0.0200185 0.0275 0.00768865
1.58401e-19 -0.0275185 0.02 0.00755104
0 0.0312315 0.0137433 0.00950196
-1.0842e-19 0.0137315 0.03125 0.00864431
1.0842e-19 -0.0137685 0.03125 0.00781916
0 -0.0312685 0.0137433 0.00748953
0 0.0337315 0.00608216 0.00963289
0 0.0287315 0.01875 0.00935315
2.1684e-19 -0.0337685 0.00608215 0.00744637
-1.0842e-19 0.0187315 0.02875 0.00885005
-1.0842e-19 0.0062315 0.03375 0.00836615
0 -0.0062685 0.03375 0.00799731
0 -0.0187685 0.02875 0.00770854
-1.0842e-19 -0.0287685 0.01875 0.00752531
0 0.0346215 0 0.00964929
-1.89327e-28 0.0299815 0.0174883 0.0094107
-9.67062e-20 0.0299815 0.0175 0.00941052
8.08456e-20 0.0174815 0.03 0.00878355
7.88861e-30 -0.0300185 0.0174847 0.00749853
8.08456e-20 -0.0175185 0.03 0.0077271
0 -0.0300185 0.0175 0.00749841
-1.53856e-19 0.0324815 0.0124878 0.00955317
8.08456e-20 0.0124815 0.0325 0.0085778
0 0.0337315 0.00865601 0.00962437
8.08456e-20 -0.0125185 0.0325 0.00783503
0 -0.0325185 0.0124878 0.00745907
0 -0.0337685 0.00865601 0.00743941
-1.0842e-19 0.0087315 0.03375 0.00843934
0 -0.0087685 0.03375 0.00792361
0 0.0349815 1.14719e-09 0.00965981
3.28979e-21 -1.85e-05 0.035 0.0081555
0 -0.0350185 1.15795e-08 0.00740971
1.42397e-19 0.0349815 0.00233889 0.00966365
3.28979e-21 0.0024815 0.035 0.00822841
-9.67102e-20 -0.0025185 0.035 0.00808248
0 -0.0350185 0.00233887 0.00741105
0 0.0312315 0.0162494 0.00946817
0 0.0162315 0.03125 0.00871785
0 -0.0162685 0.03125 0.00774498
0 -0.0312685 0.0162494 0.0074711
-9.84643e-20 0.0349815 0.00479858 0.00966845
-9.67102e-20 0.0249815 0.025 0.00911901
2.06795e-25 -0.0350185 0.00479858 0.00741048
-1.57772e-30 0.0049815 0.035 0.00830114
-1.91544e-20 -0.0050185 0.035 0.00800945
-1.91544e-20 -0.0250185 0.025 0.00757136
0 0.0262315 0.02375 0.0091835
1.0842e-19 0.0237315 0.02625 0.00905513
0 -0.0237685 0.02625 0.0075933
1.0842e-19 -0.0262685 0.02375 0.00754886
8.08456e-20 0.0274815 0.0225 0.00924561
6.45119e-20 0.0224815 0.0275 0.00898917
1.58401e-19 -0.0225185 0.0275 0.00761405
-9.67102e-20 -0.0275185 0.0225 0.00752523
-2.1684e-19 0.0337315 0.011217 0.00960445
1.0842e-19 0.0112315 0.03375 0.00851215
0 -0.0112685 0.03375 0.00785015
0 -0.0337685 0.011217 0.00742832
-1.0842e-19 0.0287315 0.02125 0.00930821
-1.0842e-19 0.0212315 0.02875 0.00892392
0 0.0324815 0.0149166 0.00952354
-4.63329e-20 0.0349815 0.00736572 0.00966531
-1.0842e-19 -0.0212685 0.02875 0.00763418
1.0842e-19 -0.0287685 0.02125 0.0075011
-2.01948e-28 0.0324815 0.0149988 0.00952254
-5.16988e-26 -0.0350185 0.00736572 0.00740511
8.08456e-20 0.0149815 0.0325 0.00865072
6.45119e-20 0.0074815 0.035 0.00837359
8.08456e-20 -0.0075185 0.035 0.00793651
-1.91544e-20 -0.0150185 0.0325 0.00776137
0 -0.0325185 0.0149988 0.00744272
-9.67102e-20 0.0299815 0.02 0.00936809
-9.67102e-20 0.0199815 0.03 0.00885695
1.58401e-19 -0.0200185 0.03 0.00765309
-9.67102e-20 -0.0300185 0.02 0.00747589
1.0842e-19 0.0362314 0.00116944 0.00969601
-1.0842e-19 0.0012315 0.03625 0.00816507
1.0842e-19 -0.0012685 0.03625 0.00809294
1.0842e-19 -0.0362685 0.00116943 0.00737189
2.06795e-25 0.0349815 0.00994629 0.00965135
3.28979e-21 0.0099815 0.035 0.00844567
0 -0.0350185 0.00994629 0.00739625
8.08456e-20 -0.0100185 0.035 0.00786375
-1.0842e-19 0.0362315 0.00356874 0.00970373
0 0.0337315 0.0137433 0.00957707
0 0.0312315 0.01875 0.00942835
-1.0842e-19 0.0187315 0.03125 0.00879077
1.0842e-19 0.0137315 0.03375 0.00858447
0 0.0037315 0.03625 0.00823702
1.0842e-19 -0.0362685 0.00356872 0.00737449
0 -0.0037685 0.03625 0.00802075
-1.0842e-19 -0.0137685 0.03375 0.00777702
-1.0842e-19 -0.0187685 0.03125 0.00767133
0 -0.0337685 0.0137433 0.00741399
1.0842e-19 -0.0312685 0.01875 0.00745022
0 0.0362315 0.00608216 0.00970581
-1.0842e-19 -0.0362685 0.00608215 0.00737067
0 0.0062315 0.03625 0.00830874
0 -0.0062685 0.03625 0.00794858
1.89327e-29 0.0324815 0.0174854 0.00948575
-1.57772e-30 0.0324815 0.0175 0.00948553
-9.67102e-20 0.0174815 0.0325 0.00872307
1.10441e-28 -0.0325185 0.017482 0.0074236
1.58401e-19 -0.0175185 0.0325 0.00768818
8.08456e-20 -0.0325185 0.0175 0.00742346
1.0842e-19 0.0262315 0.02625 0.00912897
0 -0.0262685 0.02625 0.00751929
2.7641e-21 0.0349815 0.0124878 0.00962779
3.28979e-21 0.0274815 0.025 0.00919307
6.45119e-20 0.0249815 0.0275 0.00906267
3.28979e-21 0.0124815 0.035 0.0085173
-9.67102e-20 -0.0125185 0.035 0.00779126
1.58401e-19 -0.0250185 0.0275 0.00754023
-1.61559e-27 -0.0350185 0.0124878 0.00738381
-1.91544e-20 -0.0275185 0.025 0.00749725
1.0842e-19 0.0362315 0.00865601 0.00969814
-1.0842e-19 0.0287315 0.02375 0.00925777
-1.0842e-19 0.0237315 0.02875 0.00899709
0 0.0087315 0.03625 0.00838011
0 -0.0362685 0.00865601 0.00736397
-1.0842e-19 -0.0087685 0.03625 0.00787653
-1.0842e-19 -0.0237685 0.02875 0.00756056
1.0842e-19 -0.0287685 0.02375 0.00747466
0 0.0337315 0.0162494 0.00954299