# pMean  POINT_DATA 56683
# x  y  z  pMean
7.00286e-09 0 0 0.00855185
-1.85076e-05 0 0 0.00855205
1.85215e-05 0 0 0.00855165
-1.85075e-05 0 1.73212e-05 0.00855205
1.85214e-05 -3.38813e-21 1.73211e-05 0.00855165
-0.00125 -1.0842e-19 0.00116943 0.00856577
0.00125 0 0.00116944 0.00853794
-2.83561e-10 0 0.00233917 0.00855456
-0.00248149 0 0 0.00857865
0.0024815 0 0 0.0085233
-0.00248149 3.38813e-21 1.73261e-05 0.00857865
0.0024815 3.38813e-21 1.73173e-05 0.0085233
0.00250001 0 0 0.00852309
-0.00250001 0 0 0.00857884
0.00251852 0 0 0.00852287
-0.00251853 -3.38813e-21 0 0.00857903
0.00251852 3.38813e-21 1.73173e-05 0.00852287
-0.00251853 0 1.73262e-05 0.00857903
0.0025 5.64689e-22 0.00233917 0.00852601
-0.0025 5.64689e-22 0.00233917 0.00858134
0.00125 0 0.00356873 0.00854361
-0.00125 -1.0842e-19 0.00356873 0.00857102
0.00375 0 0.00116944 0.00850824
-0.00375001 1.0842e-19 0.00116943 0.00859191
-4.01103e-10 0 0.00479885 0.00855516
0.00498148 3.38813e-21 0 0.00849261
-0.0049815 0 0 0.00860403
0.00498148 0 1.73155e-05 0.00849261
-0.0049815 0 1.73301e-05 0.00860403
0.00499999 0 0 0.00849238
-0.00500002 3.38813e-21 0 0.00860421
0.0050185 3.38813e-21 0 0.00849215
0.0050185 0 1.73154e-05 0.00849215
-0.00501854 -3.38813e-21 0 0.00860439
-0.00501854 -3.38813e-21 1.73301e-05 0.00860439
0.00375 0 0.00356872 0.00851435
-0.00375 1.0842e-19 0.00356872 0.00859676
0.0025 0 0.00479884 0.00852704
-0.0025 1.12938e-21 0.00479885 0.00858154
0.005 -5.64689e-22 0.00233917 0.00849552
-0.00500001 -5.64689e-22 0.00233917 0.00860652
0.00125 0 0.00608215 0.00853947
-0.00125 0 0.00608215 0.00856647
0.00624999 0 0.00116944 0.00847653
-0.00625001 0 0.00116944 0.00861651
0.005 -5.64689e-22 0.00479884 0.00849703
-0.005 -1.69407e-21 0.00479885 0.00860638
-0.00375 0 0.00608215 0.00859187
0.00375 -1.0842e-19 0.00608215 0.00851068
0.00625 0 0.00356872 0.00848308
-0.00625001 1.0842e-19 0.00356873 0.00862097
-1.55287e-10 0 0.00736575 0.00854758
-0.00748147 0 0 0.00862795
0.00748148 0 0 0.00845982
-0.00748147 0 1.73322e-05 0.00862795
0.00748148 -3.38813e-21 1.73147e-05 0.00845982
0.00749999 0 0 0.00845957
-0.0075 -3.38813e-21 0 0.00862811
0.0075185 0 0 0.00845933
0.0075185 0 1.73147e-05 0.00845933
-0.00751853 0 0 0.00862828
-0.00751853 0 1.73322e-05 0.00862828
-0.0025 1.12938e-21 0.00736575 0.00857392
0.0025 2.82344e-21 0.00736575 0.00851957
0.0075 0 0.00233917 0.00846294
-0.00750001 -5.64689e-22 0.00233917 0.00863024
-0.00625 -1.0842e-19 0.00608215 0.00861586
0.00625 1.0842e-19 0.00608215 0.00847997
0.00125 1.0842e-19 0.008656 0.00852854
-0.00125 0 0.00865601 0.00855581
0.00875 0 0.00116943 0.00844262
-0.00875 2.1684e-19 0.00116943 0.00863972
-0.005 5.64689e-22 0.00736575 0.00859879
0.005 -5.64689e-22 0.00736575 0.00848974
0.0075 0 0.00479884 0.00846496
-0.0075 5.64689e-22 0.00479885 0.00862983
-0.00375 0 0.008656 0.00858154
0.00375 1.0842e-19 0.008656 0.00849957
0.00875 1.0842e-19 0.00356873 0.00844963
-0.00875 1.0842e-19 0.00356873 0.00864382
-3.68372e-11 2.82344e-21 0.00994619 0.00853282
-0.00998147 0 0 0.00865054
-0.00998147 0 1.73338e-05 0.00865054
0.00998149 3.38813e-21 0 0.00842473
0.00998149 0 1.73145e-05 0.00842473
0.01 0 0 0.00842447
-0.01 0 0 0.00865069
0.0100185 -3.38813e-21 0 0.00842421
0.0100185 0 1.73145e-05 0.00842421
-0.0100185 3.38813e-21 0 0.00865085
-0.0100185 0 1.73338e-05 0.00865085
-0.0025 5.64689e-22 0.00994619 0.00855963
0.0025 -5.64689e-22 0.00994619 0.00850442
0.01 0 0.00233917 0.00842806
-0.01 -1.12938e-21 0.00233917 0.00865264
-0.0075 -1.69407e-21 0.00736575 0.00862231
0.0075 0 0.00736575 0.0084579
-0.00875 -1.0842e-19 0.00608215 0.00863859
0.00875 2.1684e-19 0.00608215 0.00844712
-0.00625 0 0.008656 0.00860587
0.00625 -2.1684e-19 0.00865601 0.00846872
0.01 5.64689e-22 0.00479884 0.00843063
-0.01 -1.12938e-21 0.00479885 0.00865202
-0.005 -5.64689e-22 0.00994619 0.00858499
0.005 0 0.00994619 0.00847428
0.00125 0 0.011217 0.00850958
-0.00125 1.0842e-19 0.011217 0.00853745
-0.01125 -1.0842e-19 0.00116944 0.00866167
0.01125 -1.0842e-19 0.00116944 0.00840632
-0.01125 1.0842e-19 0.00356872 0.00866542
0.01125 0 0.00356873 0.0084138
-0.00375 0 0.011217 0.00856383
0.00375 -2.1684e-19 0.011217 0.0084801
-0.00875 1.0842e-19 0.008656 0.00862892
0.00875 -1.0842e-19 0.00865601 0.00843578
-0.01 -5.64689e-22 0.00736575 0.00864463
0.01 1.69407e-21 0.00736575 0.00842386
-0.0075 -5.64689e-22 0.00994619 0.00860901
0.0075 0 0.00994619 0.00844221
-0.0124815 -3.38813e-21 0 0.00867193
-0.0124815 0 1.73348e-05 0.00867193
0.0124815 0 0 0.00838716
0.0124815 0 1.73156e-05 0.00838716
-5.67781e-12 -5.64689e-22 0.0124877 0.00851193
0.0125 -3.38813e-21 0 0.00838688
-0.0125 0 0 0.00867208
0.0125185 0 0 0.0083866
0.0125185 0 1.73157e-05 0.0083866
-0.0125185 0 0 0.00867223
-0.0125185 0 1.73348e-05 0.00867223
0.0125 1.12938e-21 0.00233917 0.00839069
-0.0125 -1.69407e-21 0.00233917 0.00867386
-0.0025 -1.12938e-21 0.0124877 0.00853937
0.0025 0 0.0124877 0.00848294
0.01125 0 0.00608215 0.00841194
-0.01125 0 0.00608215 0.00866017
-0.00625 -1.0842e-19 0.011217 0.00858882
0.00625 -1.0842e-19 0.011217 0.00844884
0.0125 -5.64689e-22 0.00479884 0.0083938
-0.0125 -1.12938e-21 0.00479885 0.00867308
-0.005 -1.69407e-21 0.0124877 0.0085654
0.005 0 0.0124877 0.00845226
0.01375 -2.1684e-19 0.00116944 0.00836744
-0.01375 0 0.00116944 0.00868249
0.00125 1.0842e-19 0.0137433 0.00848613
-0.00125 0 0.0137433 0.00851463
-0.01 5.64689e-22 0.00994619 0.00863181
0.01 0 0.00994619 0.00840802
-0.01125 0 0.008656 0.00865082
0.01125 -1.0842e-19 0.008656 0.00840059
0.01375 0 0.00356872 0.00837531
-0.01375 0 0.00356872 0.00868592
-0.00875 2.1684e-19 0.011217 0.00861252
0.00875 -1.0842e-19 0.011217 0.0084156
-0.00375 1.0842e-19 0.0137433 0.00854167
0.00375 -1.0842e-19 0.0137433 0.00845603
-0.0125 1.12938e-21 0.00736575 0.00866585
0.0125 -1.69407e-21 0.00736575 0.0083874
-0.0075 -2.25875e-21 0.0124877 0.00859011
0.0075 0 0.0124877 0.00841973
-0.0149815 -3.38813e-21 0 0.00869226
-0.0149815 0 1.73342e-05 0.00869226
0.0149815 0 0 0.00834691
0.0149815 0 1.73193e-05 0.00834691
-5.06181e-13 0 0.0149988 0.00848661
0.015 0 0 0.00834661
-0.015 0 0 0.0086924
0.0150185 -3.38813e-21 0 0.0083463
0.0150185 0 1.73194e-05 0.0083463
-0.0150185 0 0 0.00869254
-0.0150185 0 1.73342e-05 0.00869254
0.01375 0 0.00608215 0.00837412
-0.01375 -1.0842e-19 0.00608215 0.00868072
-0.00625 -1.0842e-19 0.0137433 0.00856736
0.00625 1.0842e-19 0.0137433 0.00842417
-0.015 5.64689e-22 0.00233917 0.00869403
0.015 1.12938e-21 0.00233917 0.00835057
-0.0025 0 0.0149988 0.0085148
0.0025 0 0.0149988 0.0084569
-0.015 -1.12938e-21 0.00479885 0.00869312
0.015 0 0.00479885 0.00835416
-0.005 0 0.0149988 0.0085416
0.005 0 0.0149988 0.00842554
-0.01125 2.1684e-19 0.011217 0.00863507
0.01125 1.0842e-19 0.011217 0.00838021
-0.0125 5.64689e-22 0.00994619 0.00865352
0.0125 0 0.00994619 0.00837152
-0.01 -1.69407e-21 0.0124877 0.00861362
0.01 0 0.0124877 0.00838516
-0.01375 0 0.008656 0.00867169
0.01375 0 0.008656 0.00836294
0.01625 -1.0842e-19 0.00116944 0.00832577
-0.01625 -1.0842e-19 0.00116944 0.00870231
-0.00875 -1.0842e-19 0.0137433 0.00859182
0.00875 1.0842e-19 0.0137433 0.0083904
0.00125 0 0.0162494 0.00845818
-0.00125 0 0.0162494 0.00848752
-0.01625 1.0842e-19 0.00356872 0.00870544
0.01625 0 0.00356873 0.00833388
-0.00375 1.0842e-19 0.0162494 0.00851541
0.00375 0 0.0162494 0.00842729
-0.015 0 0.00736575 0.00868609
0.015 5.64689e-22 0.00736575 0.00834825
-0.0075 0 0.0149988 0.00856711
0.0075 0 0.0149988 0.00839237
0.01625 0 0.00608215 0.00833333
-0.01625 0 0.00608215 0.00870032
0.00625 0 0.0162494 0.0083947
-0.00625 0 0.0162494 0.00854197
-0.0174815 0 0 0.00871163
0.0174815 0 0 0.0083037
-0.0174815 0 1.73322e-05 0.00871163
0.0174815 0 1.7327e-05 0.0083037
-1.0396e-14 0 0.0175 0.00845713
0.0175 -3.38813e-21 0 0.00830338
-0.0175 -3.38813e-21 0 0.00871177
0.0175185 0 0 0.00830305
-0.0175185 0 0 0.0087119
0.0175185 0 1.73272e-05 0.00830305
-0.0175185 3.38813e-21 1.73322e-05 0.0087119
-0.0175 5.64689e-22 0.00233917 0.00871325
0.0175 1.69407e-21 0.00233917 0.00830743
-0.0125 -1.12938e-21 0.0124877 0.00863604
0.0125 0 0.0124877 0.00834838
0.0025 0 0.0175 0.00842655
-0.0025 0 0.0175 0.00848623
-0.01375 2.1684e-19 0.011217 0.00865658
0.01375 0 0.011217 0.00834245
-0.01125 1.0842e-19 0.0137433 0.00861515
0.01125 -1.0842e-19 0.0137433 0.00835455
-0.015 5.64689e-22 0.00994619 0.00867424
0.015 5.64689e-22 0.00994619 0.0083325
-0.01 0 0.0149988 0.00859145
0.01 0 0.0149988 0.00835724
-0.0175 -1.12938e-21 0.00479885 0.00871226
0.0175 -1.69407e-21 0.00479886 0.00831143
0.005 0 0.0175 0.00839436
-0.005 0 0.0175 0.00851395
-0.01625 2.1684e-19 0.008656 0.00869162
0.01625 0 0.008656 0.0083226
-0.00875 1.0842e-19 0.0162494 0.00856731
0.00875 1.0842e-19 0.0162494 0.00836025
-0.01875 0 0.00116943 0.00872123
0.01875 0 0.00116944 0.00828098
0.00125 0 0.01875 0.00842627
-0.00125 1.0842e-19 0.01875 0.00845656
-0.0175 5.64689e-22 0.00736575 0.00870544
0.0175 5.64689e-22 0.00736575 0.00830614
0.0075 0 0.0175 0.00836042
-0.0075 0 0.0175 0.00854041
-0.01875 0 0.00356872 0.00872409
0.01875 2.1684e-19 0.00356873 0.00828922
0.00375 1.0842e-19 0.01875 0.00839446
-0.00375 0 0.01875 0.00848544
-0.01375 -1.0842e-19 0.0137433 0.00863745
0.01375 -1.0842e-19 0.0137433 0.00831643
-0.015 -1.69407e-21 0.0124877 0.00865749
0.015 -5.64689e-22 0.0124877 0.00830918
-0.0125 0 0.0149988 0.00861471
0.0125 0 0.0149988 0.00831998
-0.01875 0 0.00608215 0.0087191
0.01875 -2.1684e-19 0.00608216 0.0082893
-0.01625 -2.1684e-19 0.011217 0.00867716
0.01625 0 0.011217 0.00830211
-0.01125 2.1684e-19 0.0162494 0.00859154
0.01125 0 0.0162494 0.0083238
0.00625 1.0842e-19 0.01875 0.00836099
-0.00625 0 0.01875 0.008513
0.0199815 0 0 0.00825718
0.0199815 0 1.73418e-05 0.00825718
-0.0199815 0 0 0.00873017
-0.0199815 3.38813e-21 1.73298e-05 0.00873017
-1.01897e-14 0 0.02 0.00842386
0.02 -3.38813e-21 0 0.00825683
-0.02 0 0 0.00873029
-0.0200185 0 0 0.00873042
-0.0200185 0 1.73298e-05 0.00873042
0.0200185 0 0 0.00825648
0.0200185 0 1.73425e-05 0.00825648
-0.0175 -5.64689e-22 0.00994619 0.00869408
0.0175 5.64689e-22 0.00994619 0.0082907
-0.02 5.64689e-22 0.00233917 0.00873165
0.02 1.12938e-21 0.00233917 0.00826093
0.01 0 0.0175 0.00832458
-0.01 0 0.0175 0.0085657
0.0025 0 0.02 0.00839227
-0.0025 0 0.02 0.00845399
-0.02 -1.12938e-21 0.00479885 0.00873059
0.02 -1.69407e-21 0.00479886 0.00826532
0.005 0 0.02 0.0083591
-0.005 0 0.02 0.00848277
-0.01875 0 0.008656 0.00871071
0.01875 1.0842e-19 0.00865601 0.0082793
0.00875 1.0842e-19 0.01875 0.00832573
-0.00875 1.0842e-19 0.01875 0.00853935
-0.015 0 0.0149988 0.008637
0.015 0 0.0149988 0.0082804
0.02125 2.1684e-19 0.00116944 0.00823267
-0.02125 -1.0842e-19 0.00116943 0.00873936
-0.01625 1.0842e-19 0.0137433 0.00865883
0.01625 -1.0842e-19 0.0137433 0.00827583
0.01375 0 0.0162494 0.00828518
-0.01375 0 0.0162494 0.00861474
0.00125 1.0842e-19 0.02125 0.00839061
-0.00125 0 0.02125 0.00842199
-0.02 2.25875e-21 0.00736575 0.008724
0.02 -1.69407e-21 0.00736576 0.00826078
0.0075 0 0.02 0.00832424
-0.0075 0 0.02 0.00851029
-0.0175 -2.25875e-21 0.0124877 0.00867805
0.0175 -1.12938e-21 0.0124877 0.00826732
0.0125 0 0.0175 0.0082867
-0.0125 0 0.0175 0.00858992
0.02125 1.0842e-19 0.00356874 0.00824099
-0.02125 -1.0842e-19 0.00356872 0.00874196
-0.00375 0 0.02125 0.00845197
0.00375 0 0.02125 0.00835772
-0.01875 1.0842e-19 0.011217 0.0086969
0.01875 1.0842e-19 0.011217 0.00825892
0.01125 0 0.01875 0.00828854
-0.01125 0 0.01875 0.0085646
0.02125 0 0.00608216 0.0082418
-0.02125 0 0.00608215 0.00873713
0.00625 0 0.02125 0.00832323
-0.00625 0 0.02125 0.00848066
-0.02 0 0.00994619 0.00871312
0.02 1.69407e-21 0.00994619 0.00824586
0.01 0 0.02 0.00828755
-0.01 0 0.02 0.00853666
0.0224814 0 0 0.00820698
0.0224814 0 1.73745e-05 0.00820698
-0.0224815 0 0 0.00874795
-0.0224815 0 1.73276e-05 0.00874795
0.0225 0 0 0.0082066
-0.0225 0 0 0.00874808
-1.01897e-14 0 0.0225 0.00838701
-0.0225185 -3.38813e-21 0 0.0087482
-0.0225185 0 1.73275e-05 0.0087482
0.0225186 0 0 0.00820622
0.0225186 0 1.73756e-05 0.00820622
-0.0225 -1.12938e-21 0.00233917 0.00874931
0.0225 5.64689e-22 0.00233918 0.00821072
0.0025 0 0.0225 0.00835427
-0.0025 0 0.0225 0.00841831
-0.02125 0 0.008656 0.00872905
0.02125 1.0842e-19 0.00865601 0.00823271
0.01625 0 0.0162494 0.00824421
-0.01625 -1.0842e-19 0.0162494 0.00863701
-0.00875 0 0.02125 0.00850815
0.00875 0 0.02125 0.00828701
-0.0225 1.12938e-21 0.00479885 0.00874821
0.0225 5.64689e-22 0.00479887 0.00821551
-0.0175 0 0.0149988 0.0086584
0.0175 0 0.0149988 0.0082383
0.015 0 0.0175 0.0082466
-0.015 0 0.0175 0.00861317
0.005 0 0.0225 0.00831999
-0.005 0 0.0225 0.00844827
0.01875 0 0.0137433 0.00823254
-0.01875 0 0.0137433 0.00867938
0.01375 1.0842e-19 0.01875 0.00824927
-0.01375 -1.0842e-19 0.01875 0.00858882
-0.02 -1.69407e-21 0.0124877 0.00869782
0.02 -1.12938e-21 0.0124877 0.00822257
0.0125 0 0.02 0.0082489
-0.0125 0 0.02 0.00856195
-0.0225 1.69407e-21 0.00736575 0.00874185
0.0225 -1.69407e-21 0.00736576 0.00821186
0.0075 0 0.0225 0.00828405
-0.0075 0 0.0225 0.00847699
0.0237499 -1.0842e-19 0.00116944 0.00818053
-0.02375 1.0842e-19 0.00116943 0.00875679
0.00125 0 0.02375 0.00835141
-0.00125 1.0842e-19 0.02375 0.00838402
0.0237499 1.0842e-19 0.00356875 0.00818881
-0.02375 -1.0842e-19 0.00356873 0.00875916
0.02125 -1.0842e-19 0.011217 0.00821261
-0.02125 -1.0842e-19 0.011217 0.00871589
-0.00375 1.0842e-19 0.02375 0.00841526
0.01125 1.0842e-19 0.02125 0.00824892
-0.01125 1.0842e-19 0.02125 0.00853453
0.00375 0 0.02375 0.00831733
0.02375 -1.0842e-19 0.00608218 0.00819045
-0.02375 0 0.00608215 0.0087545
0.00625 -1.0842e-19 0.02375 0.00828166
-0.00625 1.0842e-19 0.02375 0.0084452
0.0225 -5.64689e-22 0.00994619 0.00819765
-0.0225 5.64689e-22 0.00994619 0.00873145
0.01 0 0.0225 0.00824635
-0.01 0 0.0225 0.00850455
0.0175 0 0.0175 0.00820412
-0.0175 0 0.0175 0.00863552
0.01875 0 0.0162494 0.00820068
-0.01875 1.0842e-19 0.0162494 0.00865843
0.01625 1.0842e-19 0.01875 0.00820776
-0.01625 0 0.01875 0.00861211
0.0249812 0 0 0.00815279
0.0249812 -3.38813e-21 1.74534e-05 0.00815279
-0.0249815 0 0 0.00876508
-0.0249815 0 1.73255e-05 0.00876508
-0.02 0 0.0149988 0.00867901
0.02 0 0.0149988 0.00819347
0.0249999 0 0 0.00815237
0.015 0 0.02 0.00820813
-0.015 0 0.02 0.00858627
-1.01899e-14 0 0.025 0.00834681
-0.025 0 0 0.0087652
-0.0250185 0 0 0.00876532
-0.0250185 3.38813e-21 1.73255e-05 0.00876532
0.0250186 0 0 0.00815196
0.0250186 0 1.74563e-05 0.00815196
0.0249999 -1.69407e-21 0.00233919 0.00815645
-0.025 0 0.00233917 0.00876632
0.0025 0 0.025 0.00831278
-0.0025 0 0.025 0.00837941
0.02375 0 0.00865602 0.00818248
-0.02375 0 0.008656 0.00874672
-0.02125 0 0.0137433 0.00869916
0.02125 1.0842e-19 0.0137433 0.00818632
0.01375 0 0.02125 0.00820885
-0.00875 1.0842e-19 0.02375 0.00847394
-0.01375 1.0842e-19 0.02125 0.00855988
0.00875 1.0842e-19 0.02375 0.00824431
0.0249999 5.64689e-22 0.00479889 0.00816162
-0.025 5.64689e-22 0.00479885 0.00876519
0.005 0 0.025 0.00827723
-0.005 0 0.025 0.00841069
0.0225 0 0.0124877 0.00817466
-0.0225 -5.64689e-22 0.0124877 0.00871687
0.0125 0 0.0225 0.00820676
-0.0125 0 0.0225 0.00853103
-0.025 -1.69407e-21 0.00736575 0.00875908
0.025 0 0.00736577 0.00815903
0.0075 0 0.025 0.00824007
-0.0075 0 0.025 0.00844072
-0.02375 0 0.011217 0.00873421
0.02375 -1.0842e-19 0.011217 0.00816289
0.0262497 -2.1684e-19 0.00116946 0.00812421
-0.02625 1.0842e-19 0.00116943 0.00877361
0.00125 0 0.02625 0.00830891
0.01125 0 0.02375 0.00820516
-0.01125 0 0.02375 0.00850157
-0.00125 -1.0842e-19 0.02625 0.00834289
0.0262498 -1.0842e-19 0.00356879 0.00813236
-0.02625 1.0842e-19 0.00356872 0.00877576
0.00375 0 0.02625 0.00827347
-0.00375 -1.0842e-19 0.02625 0.00837549
0.01875 1.0842e-19 0.01875 0.00816384
-0.01875 0 0.01875 0.00863452
0.02 0 0.0175 0.00815906
-0.02 0 0.0175 0.00865705
0.0175 0 0.02 0.00816511
-0.0175 0 0.02 0.00860968
0.02125 1.0842e-19 0.0162494 0.00815439
-0.02125 0 0.0162494 0.00867908
-0.01625 1.0842e-19 0.02125 0.00858427
0.01625 1.0842e-19 0.02125 0.00816665
0.025 -5.64689e-22 0.00994619 0.00814576
-0.025 1.12938e-21 0.00994619 0.00874915
0.01 0 0.025 0.00820119
-0.01 0 0.025 0.00846958
0.0262499 0 0.0060822 0.00813491
-0.02625 0 0.00608215 0.00877129
0.00625 1.0842e-19 0.02625 0.00823648
-0.00625 0 0.02625 0.00840681
0.0225 0 0.0149988 0.00814568
-0.0225 0 0.0149988 0.00869888
0.015 0 0.0225 0.00816516
-0.015 0 0.0225 0.00855652
0.02375 1.0842e-19 0.0137433 0.00813692
-0.02375 1.0842e-19 0.0137433 0.00871828
-0.01375 0 0.02375 0.00852815
0.01375 -1.0842e-19 0.02375 0.00816411
0.0274807 0 0 0.00809423
0.0274807 0 1.76436e-05 0.00809423
-0.0274815 -3.38813e-21 0 0.00878163
-0.0274815 -3.38813e-21 1.73236e-05 0.00878163
0.0274996 0 0 0.00809378
-1.01898e-14 0 0.0275 0.00830344
-0.0275 0 0 0.00878174
0.0275185 0 0 0.00809333
0.0275185 0 1.76502e-05 0.00809333
-0.0275185 -3.38813e-21 0 0.00878186
-0.0275185 -3.38813e-21 1.73236e-05 0.00878186
0.0274996 -5.64689e-22 0.00233923 0.00809779
-0.0275 -1.69407e-21 0.00233917 0.00878276
0.0025 0 0.0275 0.00826797
-0.0025 0 0.0275 0.00833748
0.02625 2.1684e-19 0.00865603 0.00812828
-0.02625 0 0.008656 0.00876378
0.00875 1.0842e-19 0.02625 0.00819783
-0.00875 0 0.02625 0.00843692
0.0274998 0 0.00479892 0.00810339
-0.0275 5.64689e-22 0.00479885 0.00878162
0.025 5.64689e-22 0.0124877 0.00812332
-0.025 0 0.0124877 0.00873529
0.005 0 0.0275 0.00823101
-0.005 0 0.0275 0.00837019
0.0125 0 0.025 0.00816048
-0.0125 0 0.025 0.00849736
0.02 0 0.02 0.00811967
-0.02 0 0.02 0.00863225
0.02125 -1.0842e-19 0.01875 0.00811735
0.01875 0 0.02125 0.00812218
-0.01875 1.0842e-19 0.02125 0.0086078
-0.02125 1.0842e-19 0.01875 0.00865616
0.0274999 -1.69407e-21 0.00736579 0.00810195
-0.0275 -1.12938e-21 0.00736575 0.00877575
0.0225 0 0.0175 0.00811123
-0.0225 0 0.0175 0.00867783
0.0075 0 0.0275 0.00819245
-0.0075 0 0.0275 0.00840165
0.0175 0 0.0225 0.00812142
-0.0175 0 0.0225 0.00858109
-0.02625 -1.0842e-19 0.011217 0.00875194
0.02625 0 0.011217 0.00810949
0.01125 1.0842e-19 0.02625 0.00815745
-0.01125 0 0.02625 0.0084659
0.0287493 0 0.00116949 0.00806334
-0.02875 -1.0842e-19 0.00116944 0.00878988
0.02375 1.0842e-19 0.0162494 0.00810513
-0.02375 1.0842e-19 0.0162494 0.00869903
0.00125 0 0.02875 0.00826323
0.01625 1.0842e-19 0.02375 0.00812103
-0.01625 0 0.02375 0.00855377
-0.00125 2.1684e-19 0.02875 0.00829872
0.0287494 1.0842e-19 0.00356886 0.00807138
-0.02875 0 0.00356872 0.00879184
0.00375 0 0.02875 0.00822629
-0.00375 0 0.02875 0.00833283
0.025 0 0.0149988 0.00809469
-0.025 0 0.0149988 0.00871811
0.015 0 0.025 0.00811785
-0.015 0 0.025 0.00852413
-0.0275 -1.69407e-21 0.00994619 0.00876628
0.0275 0 0.0099462 0.00808984
0.01 0 0.0275 0.00815222
-0.01 0 0.0275 0.00843194
0.0287497 0 0.00608226 0.00807495
-0.02875 0 0.00608215 0.00878755
0.00625 1.0842e-19 0.02875 0.00818781
-0.00625 1.0842e-19 0.02875 0.00836564
0.02625 0 0.0137433 0.00808408
-0.02625 0 0.0137433 0.0087368
-0.01375 1.0842e-19 0.02625 0.00849383
0.01375 0 0.02625 0.00811522
0.0299797 0 0 0.00803094
0.0299797 0 1.80772e-05 0.00803094
-0.0299815 0 0 0.00879766
-0.0299815 0 1.73217e-05 0.00879766
0.029999 0 0 0.00803044
-0.03 3.38813e-21 0 0.00879777
-1.01897e-14 0 0.03 0.00825708
0.0300183 0 0 0.00802994
0.0300183 3.38813e-21 1.80909e-05 0.00802994
-0.0300185 -3.38813e-21 0 0.00879789
-0.0300185 0 1.73217e-05 0.00879789
0.0287499 0 0.00865605 0.00806965
-0.02875 -1.0842e-19 0.008656 0.00878036
0.02125 0 0.02125 0.00807529
-0.00875 0 0.02875 0.00839724
0.00875 0 0.02875 0.0081477
-0.02125 0 0.02125 0.00863052
0.029999 -1.12938e-21 0.00233931 0.0080344
-0.03 -5.64689e-22 0.00233917 0.0087987
0.02 0 0.0225 0.0080754
0.0225 0 0.02 0.00807164
0.0025 0 0.03 0.00822004
-0.02 0 0.0225 0.0086048
-0.0225 0 0.02 0.00865406
-0.0025 0 0.03 0.0082927
0.0275 -5.64689e-22 0.0124877 0.00806825
-0.0275 0 0.0124877 0.00875313
0.0125 0 0.0275 0.00811021
-0.0125 0 0.0275 0.00846112
0.01875 1.0842e-19 0.02375 0.0080758
-0.01875 2.1684e-19 0.02375 0.00857849
0.02375 0 0.01875 0.00806808
-0.02375 -1.0842e-19 0.01875 0.00867708
0.0299995 1.12938e-21 0.00479899 0.00804049
-0.03 1.12938e-21 0.00479885 0.00879757
0.005 0 0.03 0.0081815
-0.005 0 0.03 0.00832698
-0.025 0 0.0175 0.00869795
0.025 0 0.0175 0.00806043
0.0175 0 0.025 0.00807318
-0.0175 0 0.025 0.00854996
0.02875 -1.0842e-19 0.0112171 0.00805203
-0.02875 1.0842e-19 0.011217 0.00876912
-0.02625 0 0.0162494 0.00871835
0.02625 -1.0842e-19 0.0162494 0.00805267
0.01625 1.0842e-19 0.02625 0.00807105
0.01125 0 0.02875 0.00810589
-0.01625 0 0.02625 0.00852077
-0.01125 1.0842e-19 0.02875 0.00842769
0.0299998 -1.12938e-21 0.00736582 0.00804025
-0.03 5.64689e-22 0.00736575 0.00879194
0.0075 0 0.03 0.00814139
-0.0075 0 0.03 0.00835999
0.0312483 2.1684e-19 0.00116956 0.00799754
-0.03125 0 0.00116944 0.00880567
0.00125 -1.0842e-19 0.03125 0.00821462
-0.00125 1.0842e-19 0.03125 0.00825175
-0.0275 0 0.0149988 0.00873673
0.0275 -5.64689e-22 0.0149988 0.00804024
0.015 0 0.0275 0.00806634
-0.015 0 0.0275 0.00848927
0.0312487 2.1684e-19 0.00356898 0.00800549
-0.03125 -1.0842e-19 0.00356872 0.00880746
-0.00375 0 0.03125 0.0082875
0.00375 0 0.03125 0.00817603
-0.03 -1.69407e-21 0.00994619 0.00878293
0.03 -5.64689e-22 0.00994621 0.00802949
0.01 0 0.03 0.00809961
-0.01 0 0.03 0.00839181
0.0225 0 0.0225 0.00802697
-0.0225 0 0.0225 0.00862773
0.0312494 2.1684e-19 0.00608236 0.00801021
-0.03125 -1.0842e-19 0.00608215 0.00880337
0.02875 -2.1684e-19 0.0137433 0.00802751
-0.02875 0 0.0137433 0.00875473
-0.00625 1.0842e-19 0.03125 0.00832194
-0.01375 -1.0842e-19 0.02875 0.00845706
0.02125 1.0842e-19 0.02375 0.00802832
0.01375 1.0842e-19 0.02875 0.00806228
0.02375 1.0842e-19 0.02125 0.00802584
0.00625 1.0842e-19 0.03125 0.00813589
-0.02375 1.0842e-19 0.02125 0.00865249
-0.02125 -1.0842e-19 0.02375 0.00860239
0.02 0 0.025 0.00802637
0.025 0 0.02 0.00802086
-0.02 0 0.025 0.00857491
-0.025 0 0.02 0.00867517
0.02625 1.0842e-19 0.01875 0.00801585
-0.01875 0 0.02625 0.0085468
-0.02625 0 0.01875 0.00869733
0.01875 1.0842e-19 0.02625 0.00802484
0.0312498 0 0.00865609 0.00800619
-0.03125 -1.0842e-19 0.008656 0.00879649
-0.00875 1.0842e-19 0.03125 0.00835514
0.00875 0 0.03125 0.00809415
0.0324773 0 0 0.0079626
0.0324773 0 1.90019e-05 0.0079626
-0.0324815 3.38813e-21 0 0.00881325
-0.0324815 0 1.73196e-05 0.00881325
0.03 5.64689e-22 0.0124877 0.00800913
-0.03 0 0.0124877 0.00877044
0.0324976 0 0 0.00796203
0.0125 0 0.03 0.0080561
-0.0125 0 0.03 0.0084225
-0.0325 3.38813e-21 0 0.00881336
-1.01897e-14 0 0.0325 0.00820786
0.0325179 0 0 0.00796146
0.0325179 -3.38813e-21 1.90293e-05 0.00796146
-0.0325185 3.38813e-21 0 0.00881347
-0.0325185 0 1.73196e-05 0.00881347
0.0324979 2.25875e-21 0.00233944 0.0079659
-0.0325 1.12938e-21 0.00233917 0.00881421
0.0275 0 0.0175 0.00800644
-0.0275 0 0.0175 0.00871743
0.0175 0 0.0275 0.00802051
-0.0175 0 0.0275 0.00851646
0.0025 0 0.0325 0.00816909
-0.0025 0 0.0325 0.00824519
0.0324988 2.25875e-21 0.00479911 0.00797248
-0.0325 5.64689e-22 0.00479885 0.00881309
0.005 0 0.0325 0.00812882
-0.005 0 0.0325 0.00828116
0.02875 1.0842e-19 0.0162494 0.00799676
-0.02875 0 0.0162494 0.00873708
0.01625 2.1684e-19 0.02875 0.00801679
-0.01625 1.0842e-19 0.02875 0.00848542
0.03125 1.0842e-19 0.0112171 0.00799017
-0.03125 0 0.011217 0.00878582
0.01125 0 0.03125 0.00805071
-0.01125 0 0.03125 0.00838716
0.0324996 -5.64689e-22 0.00736589 0.00797353
-0.0325 2.25875e-21 0.00736575 0.00880772
0.0075 0 0.0325 0.00808697
-0.0075 0 0.0325 0.00831585
0.03 1.69407e-21 0.0149988 0.00798207
-0.03 0 0.0149988 0.0087548
0.015 0 0.03 0.00801076
-0.015 0 0.03 0.00845213
-0.02375 0 0.02375 0.00862551
0.02375 1.0842e-19 0.02375 0.00797845
0.0225 0 0.025 0.00797731
0.025 0 0.0225 0.00797602
-0.0225 0 0.025 0.00859904
-0.025 0 0.0225 0.00864993
0.0337462 0 0.00116968 0.00792653
-0.03375 1.0842e-19 0.00116944 0.00882104
0.00125 0 0.03375 0.00816307
0.02125 1.0842e-19 0.02625 0.00797651
0.02625 1.0842e-19 0.02125 0.00797367
-0.02125 1.0842e-19 0.02625 0.00857196
-0.02625 1.0842e-19 0.02125 0.00867378
-0.00125 1.0842e-19 0.03375 0.008202
0.0337473 0 0.00356922 0.0079342
-0.03375 -1.0842e-19 0.00356872 0.00882268
0.00375 1.0842e-19 0.03375 0.00812266
-0.00375 1.0842e-19 0.03375 0.00823952
0.0324999 -5.64689e-22 0.00994623 0.00796436
-0.0325 0 0.00994619 0.00879914
0.02 0 0.0275 0.00797265
0.0275 0 0.02 0.00796716
-0.02 0 0.0275 0.00854274
-0.0275 0 0.02 0.00869563
0.01 0 0.0325 0.00804346
-0.01 0 0.0325 0.00834931
-0.03125 2.1684e-19 0.0137433 0.00877213
0.03125 0 0.0137433 0.0079669
-0.01375 1.0842e-19 0.03125 0.00841808
0.01375 0 0.03125 0.00800551
0.0337487 -1.0842e-19 0.00608252 0.00794013
-0.03375 -2.1684e-19 0.00608215 0.00881878
0.02875 1.0842e-19 0.01875 0.00796048
-0.01875 -1.0842e-19 0.02875 0.00851283
0.00625 1.0842e-19 0.03375 0.0080807
-0.00625 1.0842e-19 0.03375 0.0082757
0.01875 -1.0842e-19 0.02875 0.00796935
-0.02875 -1.0842e-19 0.01875 0.00871698
0.03 0 0.0175 0.00794904
-0.03 0 0.0175 0.00873636
0.0175 0 0.03 0.00796354
-0.0175 0 0.03 0.00848077
0.0325 -5.64689e-22 0.0124877 0.00794562
-0.0325 0 0.0124877 0.00878726
0.0125 0 0.0325 0.00799822
-0.0125 0 0.0325 0.00838161
0.0337496 1.0842e-19 0.00865618 0.00793762
-0.03375 0 0.008656 0.00881222
-0.00875 0 0.03375 0.00831061
0.00875 1.0842e-19 0.03375 0.00803712
0.0349723 3.38813e-21 0 0.00788897
0.0349723 -3.38813e-21 2.08395e-05 0.00788897
-0.0349815 0 0 0.00882844
-0.0349815 0 1.7318e-05 0.00882844
0.0349946 3.38813e-21 0 0.0078883
-0.035 0 0 0.00882855
-1.01895e-14 0 0.035 0.00815604
0.0350168 3.38813e-21 0 0.00788763
0.0350169 0 2.08939e-05 0.00788763
-0.0350185 3.38813e-21 0 0.00882865
-0.0350185 0 1.7318e-05 0.00882865
0.0349955 -1.69407e-21 0.00233965 0.00789196
-0.035 5.64689e-22 0.00233917 0.00882933
0.0025 0 0.035 0.00811539
-0.0025 0 0.035 0.00819522
0.03125 0 0.0162494 0.00793716
-0.03125 1.0842e-19 0.0162494 0.00875529
0.01625 -1.0842e-19 0.03125 0.00795847
-0.01625 1.0842e-19 0.03125 0.00844796
0.0349976 -1.12938e-21 0.00479931 0.00789885
-0.035 -5.64689e-22 0.00479884 0.00882823
0.025 0 0.025 0.0079259
0.005 0 0.035 0.00807322
-0.005 0 0.035 0.00823301
-0.025 0 0.025 0.00862243
0.02625 1.0842e-19 0.02375 0.0079261
-0.02375 0 0.02625 0.00859632
-0.02625 0 0.02375 0.00864793
0.02375 -1.0842e-19 0.02625 0.00792595
0.0225 0 0.0275 0.00792267
0.0275 0 0.0225 0.00792239
-0.0225 0 0.0275 0.00856817
-0.0275 0 0.0225 0.00867145
0.0337499 1.0842e-19 0.0112171 0.00792357
-0.03375 -1.0842e-19 0.011217 0.00880209
-0.01125 1.0842e-19 0.03375 0.00834432
0.01125 0 0.03375 0.00799185
0.02125 0 0.02875 0.00791988
-0.02125 1.0842e-19 0.02875 0.00853936
0.02875 0 0.02125 0.00791865
-0.02875 0 0.02125 0.00869443
0.0349991 5.64689e-22 0.00736599 0.00790134
-0.035 2.82344e-21 0.00736575 0.00882311
0.0325 -5.64689e-22 0.0149988 0.00791989
-0.0325 0 0.0149988 0.00877237
0.015 0 0.0325 0.00795119
-0.015 0 0.0325 0.00841283
0.0075 0 0.035 0.00802945
-0.0075 0 0.035 0.00826948
0.02 0 0.03 0.00791435
0.03 0 0.02 0.00791038
-0.02 0 0.03 0.00850847
-0.03 0 0.02 0.0087155
0.0362421 -1.0842e-19 0.00116989 0.00785009
-0.03625 0 0.00116944 0.00883605
0.00125 1.0842e-19 0.03625 0.00810911
-0.00125 1.0842e-19 0.03625 0.00814997
0.0349998 1.12938e-21 0.00994626 0.00789412
-0.035 0 0.00994619 0.00881495
0.01 0 0.035 0.00798402
-0.01 0 0.035 0.00830469
0.0362446 1.0842e-19 0.00356957 0.00785717
-0.03625 -1.0842e-19 0.00356872 0.00883755
-0.03375 0 0.0137433 0.00878907
0.03375 -1.0842e-19 0.0137433 0.00790192
-0.03125 1.0842e-19 0.01875 0.00873608
0.01875 0 0.03125 0.00790953
0.03125 0 0.01875 0.00790177
0.00375 0 0.03625 0.00806674
0.01375 0 0.03375 0.00794482
-0.01875 0 0.03125 0.00847685
-0.01375 -1.0842e-19 0.03375 0.00837689
-0.00375 0 0.03625 0.00818938
0.0362474 0 0.00608279 0.00786408
-0.03625 0 0.00608215 0.00883385
0.00625 0 0.03625 0.00802279
-0.00625 1.0842e-19 0.03625 0.00822743
0.0325 0 0.0175 0.00788802
-0.0325 0 0.0175 0.00875476
0.0175 0 0.0325 0.00790231
-0.0175 0 0.0325 0.00844301
-0.02625 1.0842e-19 0.02625 0.00861994
0.02625 0 0.02625 0.0078731
0.035 -1.12938e-21 0.0124877 0.00787737
-0.035 0 0.0124877 0.00880367
0.025 0 0.0275 0.0078705
0.0275 0 0.025 0.00787206
0.0125 0 0.035 0.00793685
-0.0125 0 0.035 0.00833872
-0.025 0 0.0275 0.00859282
-0.0275 0 0.025 0.0086451
0.0362491 2.1684e-19 0.0086563 0.00786357
-0.03625 0 0.008656 0.00882759
0.02875 0 0.02375 0.00787115
-0.00875 1.0842e-19 0.03625 0.00826416
-0.02375 0 0.02875 0.00856505
-0.02875 1.0842e-19 0.02375 0.00866968
0.02375 0 0.02875 0.00786832
0.00875 0 0.03625 0.0079772
0.03375 -1.0842e-19 0.0162494 0.00787361
-0.03375 1.0842e-19 0.0162494 0.00877302
-0.01625 1.0842e-19 0.03375 0.00840838
0.01625 0 0.03375 0.00789598
0.0374628 -3.38813e-21 0 0.00780983
0.0374628 -3.38813e-21 2.4243e-05 0.00780983
-0.0374815 0 0 0.00884329
-0.0374815 0 1.73176e-05 0.00884329
0.0374886 0 0 0.007809
-0.0375 0 0 0.0088434
0.0225 0 0.03 0.00786315
0.03 0 0.0225 0.00786599
-0.0225 0 0.03 0.00853529
-0.03 0 0.0225 0.00869236
-1.01894e-14 0 0.0375 0.00810169
0.0375145 -3.38813e-21 0 0.00780816
0.0375146 3.38813e-21 2.43505e-05 0.00780816
-0.0375185 -3.38813e-21 0 0.0088435
-0.0375185 0 1.73176e-05 0.0088435
0.037491 5.64689e-22 0.00233999 0.0078123
-0.0375 0 0.00233917 0.00884411
0.0025 0 0.0375 0.008059
-0.0025 0 0.0375 0.00814288
0.02125 0 0.03125 0.00785864
-0.03125 0 0.02125 0.00871451
-0.02125 0 0.03125 0.00850483
0.03125 0 0.02125 0.00786063
0.0374952 5.64689e-22 0.00479962 0.00781923
-0.0375 5.64689e-22 0.00479884 0.00884304
0.005 0 0.0375 0.00801475
-0.005 0 0.0375 0.00818263
0.0362498 -1.0842e-19 0.0112171 0.00785182
-0.03625 2.1684e-19 0.011217 0.00881796
-0.01125 0 0.03625 0.00829967
0.01125 0 0.03625 0.0079299
0.035 0 0.0149988 0.0078534
-0.035 0 0.0149988 0.00878949
0.015 0 0.035 0.00788788
-0.015 0 0.035 0.00837161
0.0325 0 0.02 0.00785035
0.02 0 0.0325 0.00785151
-0.02 0 0.0325 0.00847222
-0.0325 0 0.02 0.00873482
0.0374982 -1.12938e-21 0.00736614 0.00782323
-0.0375 -5.64689e-22 0.00736575 0.00883817
0.0075 0 0.0375 0.00796888
-0.0075 0 0.0375 0.00822102
0.03375 1.0842e-19 0.01875 0.00783953
0.01875 1.0842e-19 0.03375 0.00784526
-0.01875 0 0.03375 0.00843885
-0.03375 1.0842e-19 0.01875 0.00875466