# UMean  POINT_DATA 51066
# x  y  z  UMean_x  UMean_y  UMean_z
-1.65436e-24 -1.85074e-05 6.6528e-09 1.57786e-07 -1.5658e-07 1.34242e-09
-8.27181e-25 0.00119687 0 0 0 0
-1.0842e-19 0.00123149 0.00116943 0.0413445 -0.0425913 0.000351284
1.0842e-19 -0.0012685 0.00116944 0.0427965 -0.0426641 0.000358688
-5.16988e-25 -1.85053e-05 0.00225641 0.0570882 -0.046926 0.000947516
-5.04441e-20 -1.85047e-05 0.00233887 0.0591744 -0.0486408 0.000982142
-2.58494e-26 -0.000365962 0.00233887 0.0593818 -0.0486343 0.00098021
0 0.0024815 7.03175e-09 1.56797e-07 -1.67415e-07 1.31552e-09
0 -0.00251848 9.19775e-09 2.20468e-07 -2.12222e-07 1.83743e-09
-5.29492e-20 0.00248149 0.00233887 0.0576677 -0.0486662 0.000992986
0 -0.0025185 0.00233887 0.0606671 -0.0485935 0.000968243
0 0.00360311 0 0 0 0
1.0842e-19 0.0012315 0.00356873 0.0757771 -0.0548234 0.00163566
0 -0.0012685 0.00356873 0.0773269 -0.054677 0.00160301
0 0.00373149 0.00116943 0.0398965 -0.0425007 0.000340779
-1.0842e-19 -0.0037685 0.00116944 0.0442471 -0.042716 0.000363446
0 0.00345782 0.00233887 0.057075 -0.0486682 0.000995865
-2.76993e-20 -1.85014e-05 0.00479858 0.085815 -0.0548021 0.00224607
0 0.00498151 8.64144e-09 1.81567e-07 -1.92852e-07 1.58135e-09
0 -0.00501848 1.11359e-08 2.75573e-07 -2.57161e-07 2.23708e-09
-2.1684e-19 0.0037315 0.00356872 0.0741982 -0.0549452 0.00166493
-2.1684e-19 -0.0037685 0.00356872 0.0788468 -0.0545058 0.00156726
0 -0.00230059 0.00479858 0.0871114 -0.0546315 0.00219007
5.56899e-20 0.0024815 0.00479858 0.0843659 -0.0549678 0.00230485
0 -0.0025185 0.00479858 0.0872352 -0.0546152 0.00218472
4.36179e-20 0.0049815 0.00233887 0.0561501 -0.0486713 0.00100036
0 -0.0050185 0.00233887 0.0621428 -0.0485228 0.000951619
0 -0.0025185 0.00562951 0.0921495 -0.0543443 0.00253188
1.0842e-19 0.0012315 0.00608215 0.0945528 -0.0549581 0.00292589
-1.0842e-19 -0.0012685 0.00608215 0.0958709 -0.0547514 0.00283781
-2.58494e-26 0.00405027 0.00479858 0.0834387 -0.0550586 0.00233979
0 0.0062315 0.00116943 0.038458 -0.0423959 0.000326723
-2.1684e-19 -0.0062685 0.00116943 0.0456914 -0.0427446 0.000365906
-5.57285e-20 0.0049815 0.00479858 0.0828884 -0.0551125 0.00236053
0 -0.0050185 0.00479858 0.0886263 -0.0544073 0.00212122
0 0.0037315 0.00608215 0.0932066 -0.0551471 0.00301184
2.1684e-19 -0.0037685 0.00608215 0.0971608 -0.0545272 0.00274813
0 0.0062315 0.00356872 0.0725911 -0.0550427 0.00169033
0 -0.0062685 0.00356872 0.0803358 -0.0543103 0.00152865
2.58069e-20 -1.85008e-05 0.00736572 0.1012 -0.0539879 0.00336697
0 0.00748152 1.19772e-08 2.49771e-07 -2.74065e-07 2.16931e-09
0 -0.00751848 1.07684e-08 2.7478e-07 -2.48743e-07 2.16433e-09
-1.05556e-19 0.0024815 0.00736572 0.0999584 -0.0541817 0.00347612
0 -0.0025185 0.00736572 0.102418 -0.0537782 0.00325726
-4.5064e-20 0.0074815 0.00233887 0.054625 -0.0486584 0.00100379
0 -0.0075185 0.00233887 0.0635987 -0.0484278 0.000932596
6.46235e-27 0.00374544 0.00736572 0.0993188 -0.0542716 0.00353071
-2.1684e-19 0.0062315 0.00608215 0.0918319 -0.0553183 0.00309475
-2.58494e-26 -0.0050185 0.00712053 0.102181 -0.0536341 0.00304934
1.0842e-19 -0.0062685 0.00608215 0.0984232 -0.0542857 0.0026574
1.0842e-19 0.0012315 0.008656 0.106628 -0.053218 0.00391848
0 -0.0012685 0.00865601 0.107769 -0.0530211 0.00378746
0 0.0087315 0.00116944 0.0370349 -0.0422811 0.000308976
0 -0.0087685 0.00116943 0.047125 -0.0427477 0.000366446
-4.59695e-20 0.0074815 0.00479858 0.0813826 -0.0552362 0.00241229
-1.29247e-26 0.0049815 0.00736572 0.0986934 -0.0543595 0.0035841
6.18484e-20 -0.0050185 0.00736572 0.103613 -0.0535524 0.00314734
0 -0.0075185 0.00479858 0.0899882 -0.0541786 0.00205603
0 0.0037315 0.008656 0.105468 -0.0534005 0.00405009
-2.1684e-19 0.0087315 0.00356872 0.0709565 -0.055116 0.00171108
-1.0842e-19 -0.0037685 0.008656 0.108891 -0.0528098 0.00365733
0 -0.0087685 0.00356872 0.0817932 -0.0540904 0.00148751
-2.58494e-26 -0.0075185 0.00649949 0.0997921 -0.0536037 0.00270639
-3.91359e-20 -1.85002e-05 0.00994629 0.111508 -0.0522121 0.00424906
-3.30872e-24 0.00998151 1.51405e-08 3.04118e-07 -3.4543e-07 2.60255e-09
0 -0.0100185 9.42944e-09 2.47809e-07 -2.17741e-07 1.88845e-09
3.38669e-20 0.0024815 0.00994629 0.110415 -0.052393 0.00439607
0 0.00998151 0.00233888 0.0530959 -0.0486294 0.00100295
5.27421e-20 -0.0025185 0.00994629 0.112585 -0.0520174 0.00410339
0 -0.0100185 0.00233887 0.0650324 -0.0483077 0.000911572
3.23117e-27 0.00312673 0.00994629 0.110129 -0.0524361 0.00443424
-5.16988e-26 0.0074815 0.00736572 0.0974046 -0.0545216 0.00369007
0 -0.0075185 0.00736572 0.104785 -0.0533109 0.0030376
1.29247e-26 -0.00948201 0.00479858 0.0910345 -0.053983 0.00200396
0 0.0087315 0.00608215 0.0904286 -0.0554721 0.00317356
-1.0842e-19 0.0062315 0.008656 0.10429 -0.053569 0.00418163
-1.0842e-19 -0.0087685 0.00608215 0.0996585 -0.0540274 0.0025664
0 -0.0062685 0.008656 0.109996 -0.052584 0.00352812
-4.52364e-26 -0.0100185 0.00470476 0.0903177 -0.0537151 0.0019486
0 0.0099815 0.00479858 0.079849 -0.0553392 0.00245934
0 -0.0100185 0.00479858 0.0913205 -0.0539295 0.00198973
0 0.0049815 0.00994629 0.109307 -0.05256 0.00454398
1.44227e-22 -0.0050185 0.00994629 0.113647 -0.0518085 0.0039593
-1.0842e-19 0.0012315 0.011217 0.11528 -0.0513989 0.00472394
1.0842e-19 -0.0012685 0.011217 0.116309 -0.0512202 0.00456221
2.1684e-19 0.0112315 0.00116943 0.0356332 -0.0421602 0.000287962
-1.0842e-19 -0.0112685 0.00116944 0.048544 -0.0427242 0.000365456
0 0.0112315 0.00356872 0.0692955 -0.0551656 0.00172632
0 -0.0112685 0.00356873 0.083218 -0.0538467 0.00144434
0 0.0037315 0.011217 0.114238 -0.0515641 0.00488743
0 -0.0037685 0.011217 0.117326 -0.0510279 0.00440258
0 0.0087315 0.008656 0.103091 -0.0537238 0.00431236
-1.0842e-19 -0.0087685 0.008656 0.111082 -0.0523435 0.00340005
1.03398e-25 0.0099815 0.00736572 0.0960913 -0.0546683 0.00379334
2.65238e-20 -0.0100185 0.00736572 0.105935 -0.0530537 0.00292864
0 0.0074815 0.00994629 0.108182 -0.0527137 0.00469221
9.54016e-20 -0.0075185 0.00994629 0.114694 -0.0515853 0.00381699
0 0.0124815 1.7225e-08 3.32953e-07 -3.91768e-07 2.77112e-09
1.22913e-19 -1.85e-05 0.0124878 0.119187 -0.0504798 0.00496817
0 -0.0125185 8.84488e-09 2.39112e-07 -2.04044e-07 1.759e-09
8.27181e-25 0.0124815 0.00233888 0.0515664 -0.048587 0.000997774
2.59272e-20 0.0024815 0.0124878 0.118189 -0.0506448 0.00514187
0 -0.0125185 0.00233887 0.0664416 -0.0481622 0.000888987
-8.62145e-20 -0.0025185 0.0124878 0.120174 -0.0503015 0.00479689
1.00974e-28 0.00267227 0.0124878 0.118112 -0.0506563 0.00515528
-2.1684e-19 0.0112315 0.00608215 0.0889963 -0.0556086 0.00324779
0 -0.0112685 0.00608215 0.100867 -0.0537524 0.00247581
0 0.0062315 0.011217 0.113185 -0.0517161 0.00505226
1.0842e-19 -0.0062685 0.011217 0.118331 -0.0508217 0.00424534
-4.52364e-26 -0.0125185 0.00470049 0.0915791 -0.0534411 0.00188162
0 0.0124815 0.00479858 0.0782881 -0.0554218 0.0025012
-4.03902e-20 -0.0125185 0.00479858 0.0926231 -0.0536603 0.00192285
-1.61559e-27 0.0049815 0.0124878 0.11718 -0.0507965 0.00531769
1.37859e-19 -0.0050185 0.0124878 0.12115 -0.0501095 0.00462822
1.0842e-19 0.0137315 0.00116944 0.0342587 -0.0420377 0.000264434
0 0.0012315 0.0137433 0.122087 -0.0497358 0.00538361
0 -0.0012685 0.0137433 0.123043 -0.0495713 0.00520028
2.1684e-19 -0.0137685 0.00116944 0.0499455 -0.0426733 0.000363171
2.58494e-26 -0.0130218 0.00479858 0.0928794 -0.0536022 0.00190937
0 0.0099815 0.00994629 0.107042 -0.0528544 0.00484025
4.78542e-20 -0.0100185 0.00994629 0.115725 -0.0513478 0.00367682
0 0.0112315 0.008656 0.101873 -0.0538655 0.00444173
0 0.0137315 0.00356872 0.0676103 -0.0551921 0.00173548
2.1684e-19 -0.0112685 0.008656 0.112151 -0.0520885 0.00327379
1.0842e-19 0.0087315 0.011217 0.112118 -0.0518554 0.00521793
-2.1684e-19 -0.0137685 0.00356873 0.0846094 -0.0535795 0.00139978
0 -0.0087685 0.011217 0.119323 -0.0506014 0.00409076
-1.0842e-19 0.0037315 0.0137433 0.121122 -0.0498871 0.00556974
-1.0842e-19 -0.0037685 0.0137433 0.123989 -0.0493934 0.00501991
0 0.0124815 0.00736572 0.0947533 -0.0548 0.0038935
-7.44408e-20 -0.0125185 0.00736572 0.107062 -0.052781 0.00282103
0 0.0074815 0.0124878 0.116161 -0.0509354 0.00549529
-7.41376e-20 -0.0075185 0.0124878 0.122114 -0.0499037 0.00446238
0 0.0149815 1.75063e-08 3.25382e-07 -3.96901e-07 2.59887e-09
3.4253e-20 -1.85e-05 0.0149988 0.125441 -0.0488879 0.00557438
0 0.0137315 0.00608215 0.0875345 -0.0557279 0.00331745
-1.65436e-24 -0.0150185 9.25945e-09 2.57201e-07 -2.13264e-07 1.82279e-09
0 -0.0137685 0.00608215 0.10205 -0.0534612 0.00238596
-2.1684e-19 0.0062315 0.0137433 0.120148 -0.0500254 0.00575848
0 -0.0062685 0.0137433 0.124925 -0.0492018 0.00484258
-8.27181e-25 0.0149815 0.00233888 0.0500408 -0.0485342 0.000988421
-1.73461e-19 -0.0150185 0.00233887 0.0678246 -0.0479915 0.000865235
-1.90033e-20 0.0024815 0.0149988 0.124508 -0.0490406 0.00576839
1.0875e-19 -0.0025185 0.0149988 0.126365 -0.0487221 0.00538359
1.26218e-29 0.00255892 0.0149988 0.124478 -0.049045 0.00577449
4.1359e-25 0.0149815 0.00479858 0.0767008 -0.0554849 0.00253757
-1.3895e-19 -0.0150185 0.00479858 0.0938961 -0.0533714 0.00185587
0 0.0049815 0.0149988 0.123566 -0.0491805 0.00596545
7.52796e-20 -0.0050185 0.0149988 0.127281 -0.0485429 0.00519613
-1.0842e-19 0.0112315 0.011217 0.111039 -0.0519824 0.00538411
0 -0.0112685 0.011217 0.120301 -0.0503669 0.00393913
0 0.0124815 0.00994629 0.105885 -0.0529826 0.00498766
6.46235e-27 0.0099815 0.0124878 0.11513 -0.0510618 0.00567433
-1.09991e-19 -0.0125185 0.00994629 0.116741 -0.0510959 0.00353925
2.40675e-20 -0.0100185 0.0124878 0.123067 -0.0496839 0.00429961
-1.0842e-19 0.0137315 0.008656 0.100634 -0.0539947 0.00456922
1.0842e-19 -0.0137685 0.008656 0.113201 -0.0518189 0.00314998
-1.0842e-19 0.0162315 0.00116944 0.0329172 -0.0419191 0.000239024
2.1684e-19 0.0087315 0.0137433 0.119164 -0.0501513 0.00594954
0 0.0012315 0.0162494 0.127862 -0.0482003 0.00595721
0 -0.0012685 0.0162494 0.128764 -0.0480464 0.00575568
-1.0842e-19 -0.0087685 0.0137433 0.12585 -0.0489966 0.00466845
1.0842e-19 -0.0162685 0.00116944 0.0513269 -0.042595 0.000359717
-6.46235e-27 -0.0150185 0.00698462 0.106049 -0.0526233 0.00258759
1.0842e-19 0.0162315 0.00356873 0.0659038 -0.0551974 0.00173833
1.0842e-19 -0.0162685 0.00356872 0.085967 -0.0532896 0.0013544
-1.0842e-19 0.0037315 0.0162494 0.126952 -0.0483414 0.00616222
0 -0.0037685 0.0162494 0.129658 -0.0478793 0.00555776
0 0.0149815 0.00736572 0.0933898 -0.0549169 0.00399018
9.61667e-20 -0.0150185 0.00736572 0.108167 -0.0524929 0.00271515
4.03897e-28 0.0074815 0.0149988 0.122615 -0.0493077 0.00616537
1.22701e-19 -0.0075185 0.0149988 0.128186 -0.0483502 0.00501215
-1.29247e-26 -0.0156532 0.00736572 0.108442 -0.0524159 0.00268878
-1.0842e-19 0.0162315 0.00608215 0.0860423 -0.0558303 0.00338216
0 -0.0162685 0.00608215 0.103207 -0.0531536 0.00229718
1.0842e-19 0.0062315 0.0162494 0.126034 -0.0484699 0.00637057
-2.1684e-19 -0.0062685 0.0162494 0.130542 -0.0476991 0.00536359
0 0.0174815 1.69306e-08 3.02389e-07 -3.8265e-07 2.28453e-09
8.08445e-20 -1.85e-05 0.0175 0.130876 -0.0474027 0.00610794
-1.65436e-24 -0.0175185 1.0366e-08 2.95521e-07 -2.38216e-07 2.01381e-09
3.77012e-20 0.0174815 0.00233888 0.0485237 -0.0484747 0.000975093
0 0.0124815 0.0124878 0.114088 -0.0511763 0.00585453
8.86415e-20 -0.0175185 0.00233887 0.0691803 -0.047796 0.000840613
-1.91549e-20 0.0024815 0.0175 0.129992 -0.0475458 0.00631931
8.08441e-20 -0.0025185 0.0175 0.131752 -0.0472467 0.00590042
1.21689e-19 -0.0125185 0.0124878 0.124007 -0.0494501 0.00414017
0 0.0137315 0.011217 0.109946 -0.0520977 0.00555053
1.0842e-19 0.0112315 0.0137433 0.118171 -0.050265 0.00614267
0 -0.0137685 0.011217 0.121266 -0.0501183 0.00379068
0 -0.0112685 0.0137433 0.126765 -0.0487774 0.00449779
0 0.0149815 0.00994629 0.10471 -0.0530989 0.00513404
-4.07164e-20 -0.0150185 0.00994629 0.117739 -0.0508297 0.0034046
0 0.0099815 0.0149988 0.121657 -0.0494227 0.00636794
-1.91273e-20 -0.0100185 0.0149988 0.129081 -0.0481439 0.00483183
4.1359e-25 0.0174815 0.00479858 0.0750886 -0.0555294 0.00256809
0 -0.0175185 0.00479858 0.0951392 -0.0530634 0.00178921
-4.73317e-29 0.0049815 0.0174752 0.129046 -0.0476914 0.00652875
-1.57772e-30 0.0049815 0.0175 0.129101 -0.0476765 0.0065344
8.0843e-20 -0.0050185 0.0175 0.132619 -0.0470778 0.00569686
-2.1684e-19 0.0162315 0.008656 0.099373 -0.0541115 0.00469422
0 -0.0162685 0.008656 0.114232 -0.0515349 0.00302885
2.1684e-19 0.0087315 0.0162494 0.125109 -0.0485861 0.00658208
-2.1684e-19 -0.0087685 0.0162494 0.131417 -0.0475054 0.00517332
1.0842e-19 0.0187315 0.00116944 0.0316146 -0.0418101 0.000212211
-1.0842e-19 0.0012315 0.01875 0.133009 -0.0467547 0.0064681
-1.0842e-19 -0.0012685 0.01875 0.133866 -0.0466096 0.00625069
-1.0842e-19 -0.0187685 0.00116943 0.0526864 -0.0424894 0.00035518
0 0.0174815 0.00736572 0.092 -0.0550193 0.00408278
0 -0.0175185 0.00736572 0.10925 -0.0521897 0.00261129
-5.36425e-29 0.0074815 0.0174897 0.128179 -0.047801 0.00675066
5.84013e-20 0.0074815 0.0175 0.128202 -0.0477948 0.00675308
4.20638e-20 -0.0075185 0.0175 0.133478 -0.0468957 0.0054974
1.0842e-19 0.0187315 0.00356873 0.0641796 -0.0551837 0.0017348
-2.1684e-19 -0.0187685 0.00356872 0.0872908 -0.052978 0.00130862
1.0842e-19 0.0037315 0.01875 0.132144 -0.0468873 0.00668961
-1.0842e-19 -0.0037685 0.01875 0.134717 -0.0464518 0.00603748
-1.0842e-19 0.0137315 0.0137433 0.117169 -0.0503671 0.00633765
1.0842e-19 -0.0137685 0.0137433 0.127669 -0.0485445 0.00433085
6.46235e-27 0.0149815 0.0124878 0.113035 -0.0512794 0.00603566
8.07794e-28 0.0124815 0.0149988 0.120689 -0.049526 0.00657295
-4.09716e-21 -0.0150185 0.0124878 0.124935 -0.0492024 0.00398428
7.47107e-20 -0.0125185 0.0149988 0.129966 -0.047924 0.0046554
0 -0.0169621 0.00994629 0.118503 -0.0506118 0.00330236
-1.0842e-19 0.0187315 0.00608215 0.0845193 -0.0559159 0.00344111
2.1684e-19 -0.0187685 0.00608215 0.104338 -0.0528304 0.00220985
1.0842e-19 0.0162315 0.011217 0.108839 -0.0522017 0.00571694
-1.0842e-19 0.0112315 0.0162494 0.124176 -0.0486904 0.0067966
0 0.0062315 0.01875 0.131271 -0.0470076 0.00691511
1.0842e-19 -0.0162685 0.011217 0.122216 -0.0498556 0.00364562
0 -0.0062685 0.01875 0.135558 -0.0462812 0.00582856
0 -0.0112685 0.0162494 0.132283 -0.0472983 0.00498713
3.30872e-24 0.0199815 1.72996e-08 2.96765e-07 -3.89846e-07 2.08531e-09
8.08456e-20 -1.85e-05 0.02 0.135789 -0.0459959 0.00658632
1.65436e-24 -0.0200185 1.16649e-08 3.40937e-07 -2.67297e-07 2.22992e-09
0 0.0174815 0.00994629 0.103517 -0.0532036 0.00527891
8.27181e-25 0.0199815 0.00233888 0.0470198 -0.0484128 0.000957977
-2.25614e-28 0.0099815 0.0174933 0.127281 -0.0479053 0.00697361
-1.35661e-19 -0.0175185 0.00994629 0.118722 -0.0505495 0.0032731
-1.91459e-20 0.0099815 0.0175 0.127296 -0.0479012 0.00697523
-1.91544e-20 0.0024815 0.02 0.134948 -0.0461306 0.00681313
0 -0.0200185 0.00233887 0.0705076 -0.0475762 0.000815346
8.08456e-20 -0.0025185 0.02 0.136624 -0.0458487 0.00636393
4.20638e-20 -0.0100185 0.0175 0.134327 -0.0467005 0.00530216
-4.1359e-25 0.0199815 0.00479858 0.0734531 -0.0555567 0.00259224
0 -0.0200185 0.00479858 0.0963522 -0.0527369 0.0017232
5.84013e-20 0.0049815 0.02 0.134099 -0.0462532 0.0070443
8.08456e-20 -0.0050185 0.02 0.13745 -0.0456889 0.00614605
-1.0842e-19 0.0187315 0.008656 0.0980898 -0.0542163 0.00481604
0 -0.0187685 0.008656 0.115245 -0.0512369 0.00291056
0 0.0087315 0.01875 0.130392 -0.0471159 0.00714449
1.0842e-19 -0.0087685 0.01875 0.136392 -0.0460976 0.00562406
0 0.0149815 0.0149988 0.119714 -0.0496179 0.00678021
-5.77715e-20 -0.0150185 0.0149988 0.13084 -0.0476906 0.00448303
-1.0842e-19 0.0212315 0.00116944 0.0303569 -0.0417168 0.000184525
2.1684e-19 0.0162315 0.0137433 0.116158 -0.0504581 0.00653424
1.0842e-19 0.0137315 0.0162494 0.123235 -0.0487832 0.00701398
0 0.0012315 0.02125 0.137731 -0.045378 0.00692916
0 -0.0012685 0.02125 0.13855 -0.0452413 0.00669732
0 0.0199815 0.00736572 0.0905831 -0.0551074 0.00417045
0 -0.0162685 0.0137433 0.128561 -0.0482978 0.00416783
0 -0.0137685 0.0162494 0.133139 -0.0470779 0.00480519
1.0842e-19 -0.0212685 0.00116943 0.0540221 -0.0423571 0.000349662
2.58494e-26 -0.0200185 0.00736572 0.110311 -0.0518717 0.00250966
1.58401e-19 0.0074815 0.02 0.133244 -0.0463637 0.00727972
-3.54881e-20 -0.0075185 0.02 0.138269 -0.0455165 0.00593277
6.05845e-28 -0.0175185 0.0122552 0.125197 -0.0490882 0.00378099
-6.46235e-27 0.0174815 0.0124878 0.11197 -0.0513715 0.00621743
-1.57772e-30 0.0124815 0.0175 0.126381 -0.0479966 0.00720049
-2.01948e-28 -0.0175185 0.0124878 0.125849 -0.048941 0.00383215
-9.67102e-20 -0.0125185 0.0175 0.135168 -0.0464921 0.0051113
1.0842e-19 0.0212315 0.00356873 0.0624413 -0.0551534 0.00172469
-1.0842e-19 -0.0212685 0.00356872 0.0885805 -0.0526454 0.00126274
1.0842e-19 0.0037315 0.02125 0.136906 -0.0455026 0.00716567
-1.0842e-19 -0.0037685 0.02125 0.139361 -0.0450922 0.00647023
0 0.0187315 0.011217 0.107718 -0.0522949 0.00588294
-1.0842e-19 0.0112315 0.01875 0.129506 -0.0472126 0.00737766
0 -0.0187685 0.011217 0.123153 -0.0495791 0.00350417
0 -0.0112685 0.01875 0.137216 -0.045901 0.00542408
-1.00974e-28 -0.018128 0.0124878 0.126069 -0.0488739 0.00379603
0 0.0212315 0.00608215 0.0829655 -0.055985 0.00349329
1.0842e-19 -0.0212685 0.00608215 0.105443 -0.0524917 0.00212423
0 0.0062315 0.02125 0.136074 -0.0456152 0.0074068
1.0842e-19 -0.0062685 0.02125 0.140164 -0.0449307 0.00624794
0 0.0199815 0.00994629 0.102306 -0.0532971 0.00542165
1.58401e-19 0.0099815 0.02 0.132381 -0.0464626 0.00751932
0 -0.0200185 0.00994629 0.119687 -0.0502554 0.0031449
6.45119e-20 -0.0100185 0.02 0.139079 -0.0453312 0.00572418
3.30872e-24 0.0224815 1.82994e-08 3.01419e-07 -4.11308e-07 1.93117e-09
8.08456e-20 -1.85e-05 0.0225 0.140338 -0.0446522 0.00701854
0 -0.0225185 1.24074e-08 3.71394e-07 -2.83322e-07 2.32763e-09
-8.27181e-25 0.0224815 0.00233888 0.0455338 -0.0483525 0.000937232
8.08456e-20 0.0024815 0.0225 0.139534 -0.0447787 0.00725949
8.27181e-25 -0.0225185 0.00233887 0.0718057 -0.047333 0.00078963
-9.67102e-20 -0.0025185 0.0225 0.141134 -0.0445135 0.00678256
0 0.0212315 0.008656 0.0967826 -0.0543092 0.00493388
1.0842e-19 -0.0212685 0.008656 0.116238 -0.0509249 0.00279523
0 0.0162315 0.0162494 0.122287 -0.0488651 0.00723407
-1.0842e-19 0.0087315 0.02125 0.135236 -0.0457162 0.00765248
0 0.0224815 0.00479858 0.0717962 -0.0555682 0.00260942
1.0842e-19 -0.0087685 0.02125 0.14096 -0.0447566 0.00603053
-1.0842e-19 -0.0162685 0.0162494 0.133984 -0.0468441 0.00462763
-2.06795e-25 -0.0225185 0.00479858 0.0975356 -0.0523926 0.00165811
0 0.0149815 0.0175 0.125461 -0.0480803 0.00742918
0 0.0174815 0.0149988 0.11873 -0.049699 0.00698953
-1.91544e-20 0.0049815 0.0225 0.138724 -0.0448934 0.00750538
3.28979e-21 -0.0050185 0.0225 0.141924 -0.0443626 0.0065516
4.20664e-20 -0.0150185 0.0175 0.135998 -0.0462706 0.00492493
-5.04871e-29 -0.0175185 0.0149988 0.131703 -0.0474437 0.00431488
0 0.0187315 0.0137433 0.115137 -0.0505385 0.00673217
-1.0842e-19 0.0137315 0.01875 0.128614 -0.0472981 0.00761454
0 -0.0137685 0.01875 0.138031 -0.0456915 0.00522873
1.0842e-19 -0.0187685 0.0137433 0.129441 -0.0480376 0.00400889
0 0.0199815 0.0124878 0.110893 -0.0514533 0.00639946
1.58401e-19 0.0124815 0.02 0.131513 -0.0465502 0.00776303
4.03897e-28 -0.0200185 0.0124878 0.12675 -0.048666 0.00368397
-3.54881e-20 -0.0125185 0.02 0.13988 -0.0451332 0.00552037
0 0.0224815 0.00736572 0.0891383 -0.0551815 0.00425232
0 -0.0225185 0.00736572 0.111349 -0.0515392 0.00241045
1.58401e-19 0.0074815 0.0225 0.137908 -0.0449964 0.00775615
-3.54881e-20 -0.0075185 0.0225 0.142706 -0.0441993 0.00632571
0 0.0237315 0.00116944 0.0291493 -0.0416444 0.000156659
0 0.0012315 0.02375 0.142144 -0.0440589 0.0073464
0 -0.0012685 0.02375 0.142926 -0.0439305 0.00710128
1.0842e-19 -0.0237685 0.00116943 0.0553324 -0.0421985 0.000343273
-1.0842e-19 0.0237315 0.00356873 0.0606931 -0.0551091 0.0017076
0 0.0212315 0.011217 0.106582 -0.052378 0.00604802
1.0842e-19 -0.0237685 0.00356872 0.0898363 -0.0522929 0.00121703
0 0.0112315 0.02125 0.134391 -0.0458058 0.00790265
-1.0842e-19 0.0037315 0.02375 0.141355 -0.0441755 0.00759674
-2.1684e-19 -0.0212685 0.011217 0.124073 -0.0492892 0.00336657
0 -0.0037685 0.02375 0.143701 -0.04379 0.00686141
0 -0.0112685 0.02125 0.141747 -0.0445699 0.00581807
0 0.0237315 0.00608215 0.0813805 -0.0560379 0.0035379
-2.1684e-19 -0.0237685 0.00608215 0.106524 -0.0521381 0.00204054
-1.0842e-19 0.0062315 0.02375 0.14056 -0.0442804 0.00785229
1.0842e-19 -0.0062685 0.02375 0.144469 -0.0436375 0.00662683
0 0.0224815 0.00994629 0.101074 -0.0533799 0.00556159
-4.15987e-20 0.0099815 0.0225 0.137085 -0.045088 0.00801176
0 -0.0225185 0.00994629 0.120635 -0.0499477 0.00302021
-3.54881e-20 -0.0100185 0.0225 0.14348 -0.0440237 0.00610495
0 -0.0196373 0.0149988 0.132424 -0.0472233 0.00417608
9.30856e-29 0.0174815 0.0174936 0.124521 -0.0481568 0.0076595
5.84091e-20 0.0174815 0.0175 0.124536 -0.0481528 0.00766123
8.08456e-20 -0.0175185 0.0175 0.136818 -0.0460361 0.00474317
0 0.0187315 0.0162494 0.121332 -0.0489364 0.00745671
0 0.0162315 0.01875 0.127715 -0.0473729 0.00785502
1.0842e-19 -0.0162685 0.01875 0.138836 -0.0454691 0.00503811
-1.0842e-19 -0.0187685 0.0162494 0.134818 -0.0465973 0.00445459
0 0.0249815 1.76874e-08 2.79724e-07 -3.96713e-07 1.5972e-09
0 0.0199815 0.0149988 0.117737 -0.0497699 0.00720068
1.58401e-19 0.0149815 0.02 0.130639 -0.046627 0.00801078
1.58401e-19 -1.85e-05 0.025 0.144614 -0.0433619 0.00740953
3.28979e-21 -0.0150185 0.02 0.140672 -0.0449225 0.00532144
0 -0.0200185 0.0149988 0.132554 -0.0471837 0.0041511
-1.65436e-24 -0.0250185 1.26459e-08 3.87277e-07 -2.87586e-07 2.32225e-09
-8.27181e-25 0.0249815 0.00233888 0.0440705 -0.0482978 0.000913032
-9.67102e-20 0.0024815 0.025 0.143846 -0.0434802 0.00766353
-1.91544e-20 -0.0025185 0.025 0.145376 -0.0432317 0.00716102
0 -0.0250185 0.00233887 0.0730738 -0.0470672 0.000763646
-1.0842e-19 0.0237315 0.008656 0.0954499 -0.0543908 0.00504686
1.0842e-19 0.0212315 0.0137433 0.114105 -0.0506089 0.00693114
0 -0.0237685 0.008656 0.117211 -0.0505992 0.002683
1.0842e-19 0.0137315 0.02125 0.133541 -0.0458845 0.00815727
1.0842e-19 0.0087315 0.02375 0.139759 -0.0443739 0.00811302
0 -0.0087685 0.02375 0.14523 -0.0434727 0.00639756
0 -0.0137685 0.02125 0.142525 -0.0443707 0.00561063
1.0842e-19 -0.0212685 0.0137433 0.130308 -0.0477641 0.00385419
0 0.0249815 0.00479858 0.07012 -0.0555656 0.00261907
0 -0.0250185 0.00479858 0.0986894 -0.0520312 0.00159415
3.28979e-21 0.0049815 0.025 0.143072 -0.0435869 0.00792302
8.08456e-20 -0.0050185 0.025 0.146131 -0.0430897 0.00691801
6.46235e-27 0.0224815 0.0124878 0.109802 -0.0515253 0.00658132
0 0.0124815 0.0225 0.136256 -0.0451686 0.0082722
-3.54881e-20 -0.0125185 0.0225 0.144245 -0.0438356 0.00588937
0 -0.0225185 0.0124878 0.127636 -0.0483777 0.00353992
-1.03398e-25 0.0249815 0.00736572 0.0876649 -0.0552421 0.00432756
5.16988e-26 -0.0250185 0.00736572 0.112364 -0.0511926 0.00231381
8.08456e-20 0.0074815 0.025 0.142292 -0.0436822 0.00818798
-9.67102e-20 -0.0075185 0.025 0.146878 -0.0429356 0.00668052
2.1684e-19 0.0237315 0.011217 0.105429 -0.0524515 0.00621162
0 0.0262315 0.00116943 0.027996 -0.0415975 0.000129266
0 0.0112315 0.02375 0.138953 -0.0444563 0.00837891
-1.0842e-19 0.0012315 0.02625 0.14632 -0.0427891 0.00772392
0 -0.0012685 0.02625 0.147067 -0.0426691 0.00746653
0 -0.0237685 0.011217 0.124979 -0.048986 0.00323308
0 -0.0112685 0.02375 0.145982 -0.0432956 0.00617365
-1.57772e-30 -0.0200185 0.0170481 0.13671 -0.0460408 0.00449114
1.0842e-19 -0.0262685 0.00116943 0.0566158 -0.0420145 0.000336135
1.0842e-19 0.0262315 0.00356873 0.0589397 -0.0550539 0.00168326
0 0.0187315 0.01875 0.12681 -0.0474372 0.00809901
-1.0842e-19 -0.0262685 0.00356872 0.0910582 -0.0519214 0.00117171
0 0.0037315 0.02625 0.145566 -0.0428974 0.00798707
0 -0.0037685 0.02625 0.147809 -0.0425374 0.00721487
1.0842e-19 -0.0187685 0.01875 0.139631 -0.0452341 0.0048523
8.36193e-29 0.0199815 0.017493 0.123586 -0.04822 0.00789405
-1.57772e-30 0.0199815 0.0175 0.123602 -0.0482157 0.00789599
5.84013e-20 0.0174815 0.02 0.129758 -0.0466933 0.0082625
8.08456e-20 -0.0175185 0.02 0.141454 -0.0446993 0.00512744
-1.57772e-30 -0.0200185 0.0175 0.137627 -0.0457888 0.00456612
0 0.0212315 0.0162494 0.120369 -0.0489977 0.00768172
-1.0842e-19 0.0162315 0.02125 0.132684 -0.0459526 0.0084163
1.0842e-19 -0.0162685 0.02125 0.143294 -0.044159 0.00540828
1.0842e-19 -0.0212685 0.0162494 0.135642 -0.0463375 0.00428615
0 0.0249815 0.00994629 0.0998203 -0.0534524 0.00569797
1.58401e-19 0.0099815 0.025 0.141506 -0.0437664 0.00845842
0 -0.0250185 0.00994629 0.121565 -0.0496267 0.00289918
1.0842e-19 0.0262315 0.00608215 0.0797648 -0.0560754 0.00357423
-9.67102e-20 -0.0100185 0.025 0.147618 -0.0427694 0.00644858
0 -0.0262685 0.00608215 0.107578 -0.0517701 0.00195887
1.0842e-19 0.0062315 0.02625 0.144806 -0.0429944 0.00825597
0 -0.0062685 0.02625 0.148543 -0.0423938 0.00696895
0 0.0224815 0.0149988 0.116736 -0.049831 0.00741339
5.84013e-20 0.0149815 0.0225 0.135422 -0.0452386 0.00853743
3.28979e-21 -0.0150185 0.0225 0.145002 -0.0436353 0.00567902
0 -0.0225185 0.0149988 0.133392 -0.0469106 0.0039918
0 0.0237315 0.0137433 0.113064 -0.0506699 0.00713081
0 0.0137315 0.02375 0.13814 -0.044528 0.00864996
1.0842e-19 -0.0137685 0.02375 0.146726 -0.0431064 0.00595513
-1.0842e-19 -0.0237685 0.0137433 0.131162 -0.0474776 0.00370385
-2.06795e-25 0.0274815 1.36325e-09 2.07037e-08 -3.05301e-08 1.02621e-10
-1.91544e-20 -1.85e-05 0.0275 0.14868 -0.0421177 0.00776213
1.65436e-24 -0.0275185 1.29129e-08 4.04193e-07 -2.92282e-07 2.31586e-09
-4.1359e-25 0.0274815 0.00233887 0.0426341 -0.0482525 0.000885445
8.08456e-20 0.0024815 0.0275 0.147946 -0.0422276 0.0080282
-1.91544e-20 -0.0025185 0.0275 0.149408 -0.0419963 0.00750204
0 -0.0275185 0.00233886 0.0743111 -0.0467794 0.000737583
-1.0842e-19 0.0262315 0.008656 0.0940903 -0.0544614 0.00515403
0 -0.0262685 0.008656 0.118164 -0.0502601 0.00257395
0 0.0087315 0.02625 0.144041 -0.0430802 0.00853065
0 -0.0087685 0.02625 0.14927 -0.0422384 0.00672877
0 0.0274815 0.00479858 0.0684276 -0.055551 0.00262066
0 0.0249815 0.0124878 0.108698 -0.0515881 0.00676254
0 -0.0275185 0.00479858 0.0998133 -0.0516534 0.00153148
5.84013e-20 0.0124815 0.025 0.140714 -0.0438398 0.00873436
-1.91544e-20 0.0049815 0.0275 0.147206 -0.0423261 0.00830028
1.58401e-19 -0.0050185 0.0275 0.150129 -0.0418632 0.00724791
-1.91544e-20 -0.0125185 0.025 0.14835 -0.0425911 0.0062222
1.61559e-27 -0.0250185 0.0124878 0.128509 -0.0480765 0.00340016
0 0.0278132 0.00479858 0.0682014 -0.0555478 0.00261975
-1.91544e-20 0.0199815 0.02 0.128871 -0.0467496 0.00851813
1.9387e-26 0.0273138 0.00736572 0.0862632 -0.0552867 0.00439076
1.58401e-19 -0.0200185 0.02 0.142226 -0.0444636 0.00493846
0 0.0212315 0.01875 0.125898 -0.0474918 0.00834642
-1.0842e-19 0.0187315 0.02125 0.131822 -0.0460106 0.00867968
1.0842e-19 -0.0187685 0.02125 0.144053 -0.0439349 0.00521108
0 -0.0212685 0.01875 0.140415 -0.0449865 0.00467139
-3.87741e-26 0.0274815 0.00709019 0.084259 -0.055318 0.00420484
9.46633e-30 -0.0225185 0.0173278 0.138078 -0.045624 0.00436618
0 0.0274815 0.00736572 0.0861624 -0.0552899 0.00439531
2.8399e-29 0.0224815 0.0174925 0.122643 -0.0482737 0.0081314
5.16988e-26 -0.0275185 0.00736572 0.113357 -0.0508323 0.00221984
-1.91544e-20 0.0224815 0.0175 0.122661 -0.048269 0.00813357
-1.91544e-20 0.0174815 0.0225 0.134582 -0.0452983 0.00880743
-1.91544e-20 0.0074815 0.0275 0.14646 -0.0424134 0.00857839
8.08456e-20 -0.0075185 0.0275 0.150844 -0.0417184 0.00699973
8.08456e-20 -0.0175185 0.0225 0.145749 -0.0434227 0.00547397
8.08458e-20 -0.0225185 0.0175 0.138424 -0.0455289 0.00439387
-1.0842e-19 0.0262315 0.011217 0.104259 -0.052516 0.0063731
0 0.0112315 0.02625 0.14327 -0.0431552 0.00881112
2.1684e-19 -0.0262685 0.011217 0.125868 -0.0486699 0.00310383
0 -0.0112685 0.02625 0.14999 -0.042071 0.00649434
0 0.0287315 0.00116943 0.0269001 -0.0415803 0.000102723
1.0842e-19 0.0237315 0.0162494 0.119398 -0.0490497 0.0079089
0 0.0162315 0.02375 0.137323 -0.0445894 0.00892618
0 0.0012315 0.02875 0.150308 -0.041562 0.00806342
0 -0.0012685 0.02875 0.151022 -0.0414508 0.00779466
0 -0.0162685 0.02375 0.147462 -0.0429051 0.00574206
1.0842e-19 -0.0237685 0.0162494 0.136452 -0.0460651 0.00412242
-1.0842e-19 -0.0287685 0.00116943 0.0578707 -0.0418055 0.000328378
-1.0842e-19 0.0287315 0.00356873 0.0571867 -0.0549914 0.00165116
2.1684e-19 -0.0287685 0.00356872 0.0922463 -0.0515318 0.00112708
0 0.0037315 0.02875 0.149588 -0.0416619 0.00833841
0 -0.0037685 0.02875 0.151731 -0.0413281 0.00753211
0 0.0249815 0.0149988 0.115724 -0.0498831 0.00762741
0 0.0274815 0.00969561 0.0973411 -0.0536876 0.00569059
5.84013e-20 0.0149815 0.025 0.139918 -0.0439027 0.0090158
-1.91544e-20 -0.0150185 0.025 0.149074 -0.0424009 0.00600141
0 -0.0250185 0.0149988 0.134218 -0.0466249 0.00383705
8.07794e-28 0.0274815 0.00994629 0.0985439 -0.0535152 0.00582995
-1.91544e-20 0.0099815 0.0275 0.145709 -0.0424897 0.00886258
0 -0.0275185 0.00994629 0.122478 -0.0492927 0.00278183
-1.91544e-20 -0.0100185 0.0275 0.151551 -0.0415617 0.00675749
0 0.0275291 0.00994629 0.0985191 -0.0535162 0.00583237
-1.0842e-19 0.0287315 0.00608215 0.0781189 -0.0560986 0.00360155
1.0842e-19 -0.0287685 0.00608215 0.108607 -0.0513882 0.0018793
0 0.0062315 0.02875 0.148862 -0.0417506 0.00861967
0 -0.0062685 0.02875 0.152433 -0.0411937 0.00727572
1.03398e-25 0.0293436 0.00233887 0.0415877 -0.048229 0.000862453
1.0842e-19 0.0262315 0.0137433 0.11201 -0.0507222 0.00733081
0 0.0137315 0.02625 0.142494 -0.0432196 0.00909744
0 -0.0137685 0.02625 0.150702 -0.0418916 0.00626567
0 -0.0262685 0.0137433 0.132002 -0.0471785 0.00355798
0 0.0299815 1.10974e-08 1.57742e-07 -2.41571e-07 6.61613e-10
8.08456e-20 -1.85e-05 0.03 0.15257 -0.0409151 0.00807793
0 0.0287315 0.008656 0.0927019 -0.0545215 0.00525435
0 -0.0300185 1.29523e-08 4.13985e-07 -2.91623e-07 2.26432e-09
0 0.0212315 0.02125 0.130953 -0.0460589 0.0089474
0 -0.0287685 0.008656 0.119097 -0.049908 0.0024683
0 0.0087315 0.02875 0.148131 -0.0418283 0.00890728
0 -0.0087685 0.02875 0.153128 -0.0410477 0.00702548
9.30578e-25 0.0299815 0.00217867 0.0384053 -0.044918 0.000796044
1.0842e-19 -0.0212685 0.02125 0.144802 -0.0436988 0.00501908