# UMean  POINT_DATA 56683
# x  y  z  UMean_x  UMean_y  UMean_z
7.00286e-09 0 0 0 0 0
-1.85076e-05 0 0 0 0 0
1.85215e-05 0 0 0 0 0
-1.85075e-05 0 1.73212e-05 0.000620564 -0.000626621 5.33335e-06
1.85214e-05 -3.38813e-21 1.73211e-05 0.00060419 -0.000635064 5.07278e-06
-0.00125 -1.0842e-19 0.00116943 0.0426045 -0.042341 0.00036278
0.00125 0 0.00116944 0.041515 -0.0429133 0.000347082
-2.83561e-10 0 0.00233917 0.059165 -0.0486417 0.000982298
-0.00248149 0 0 0 0 0
0.0024815 0 0 0 0 0
-0.00248149 3.38813e-21 1.73261e-05 0.000620742 -0.000626802 5.33488e-06
0.0024815 3.38813e-21 1.73173e-05 0.000604058 -0.000634926 5.07167e-06
0.00250001 0 0 0 0 0
-0.00250001 0 0 0 0 0
0.00251852 0 0 0 0 0
-0.00251853 -3.38813e-21 0 0 0 0
0.00251852 3.38813e-21 1.73173e-05 0.000587624 -0.00064386 4.71374e-06
-0.00251853 0 1.73262e-05 0.000636866 -0.000618687 5.51499e-06
0.0025 5.64689e-22 0.00233917 0.0580153 -0.049406 0.00098993
-0.0025 5.64689e-22 0.00233917 0.0602708 -0.0479006 0.000968558
0.00125 0 0.00356873 0.075956 -0.0552179 0.0016386
-0.00125 -1.0842e-19 0.00356873 0.0771251 -0.0542847 0.00160056
0.00375 0 0.00116944 0.0404171 -0.0435156 0.000325279
-0.00375001 1.0842e-19 0.00116943 0.0436739 -0.0417891 0.000373372
-4.01103e-10 0 0.00479885 0.0858052 -0.0548034 0.00224657
0.00498148 3.38813e-21 0 0 0 0
-0.0049815 0 0 0 0 0
0.00498148 0 1.73155e-05 0.000587562 -0.000643792 4.71323e-06
-0.0049815 0 1.73301e-05 0.000637008 -0.000618825 5.51622e-06
0.00499999 0 0 0 0 0
-0.00500002 3.38813e-21 0 0 0 0
0.0050185 3.38813e-21 0 0 0 0
0.0050185 0 1.73154e-05 0.000571322 -0.000653439 4.24553e-06
-0.00501854 -3.38813e-21 0 0 0 0
-0.00501854 -3.38813e-21 1.73301e-05 0.000652744 -0.000610935 5.62817e-06
0.00375 0 0.00356872 0.0747116 -0.0561728 0.00166942
-0.00375 1.0842e-19 0.00356872 0.078221 -0.053372 0.00155649
0.0025 0 0.00479884 0.0847403 -0.0557689 0.00232118
-0.0025 1.12938e-21 0.00479885 0.0867988 -0.0538629 0.0021674
0.005 -5.64689e-22 0.00233917 0.0568275 -0.0502001 0.000990299
-0.00500001 -5.64689e-22 0.00233917 0.0613288 -0.0471782 0.000949741
0.00125 0 0.00608215 0.0947594 -0.0553426 0.00294101
-0.00125 0 0.00608215 0.0956448 -0.05437 0.002824
0.00624999 0 0.00116944 0.0393265 -0.0441615 0.000296394
-0.00625001 0 0.00116944 0.044715 -0.0412513 0.000379639
0.005 -5.64689e-22 0.00479884 0.0836004 -0.0567607 0.00238964
-0.005 -1.69407e-21 0.00479885 0.087725 -0.0529467 0.00208503
-0.00375 0 0.00608215 0.0964647 -0.0534261 0.00270533
0.00375 -1.0842e-19 0.00608215 0.0938027 -0.0563445 0.00305473
0.00625 0 0.00356872 0.0733906 -0.0571513 0.00169157
-0.00625001 1.0842e-19 0.00356873 0.0792466 -0.0524793 0.00150757
-1.55287e-10 0 0.00736575 0.101191 -0.0539894 0.00336779
-0.00748147 0 0 0 0 0
0.00748148 0 0 0 0 0
-0.00748147 0 1.73322e-05 0.000652824 -0.000611009 5.62886e-06
0.00748148 -3.38813e-21 1.73147e-05 0.000571297 -0.000653412 4.24535e-06
0.00749999 0 0 0 0 0
-0.0075 -3.38813e-21 0 0 0 0
0.0075185 0 0 0 0 0
0.0075185 0 1.73147e-05 0.000555549 -0.00066405 3.67228e-06
-0.00751853 0 0 0 0 0
-0.00751853 0 1.73322e-05 0.000668065 -0.000603268 5.68372e-06
-0.0025 1.12938e-21 0.00736575 0.101938 -0.0530604 0.00322038
0.0025 2.82344e-21 0.00736575 0.100386 -0.0549475 0.00351562
0.0075 0 0.00233917 0.0556103 -0.051033 0.000982292
-0.00750001 -5.64689e-22 0.00233917 0.0623367 -0.0464718 0.000926834
-0.00625 -1.0842e-19 0.00608215 0.0972244 -0.0525101 0.00258651
0.00625 1.0842e-19 0.00608215 0.0927692 -0.0573769 0.00316308
0.00125 1.0842e-19 0.008656 0.106858 -0.0535779 0.00394339
-0.00125 0 0.00865601 0.107522 -0.052664 0.00376449
0.00875 0 0.00116943 0.0382625 -0.0448688 0.000260246
-0.00875 2.1684e-19 0.00116943 0.0457213 -0.0407232 0.00038232
-0.005 5.64689e-22 0.00736575 0.102631 -0.0521596 0.00307444
0.005 -5.64689e-22 0.00736575 0.0995193 -0.0559358 0.00366236
0.0075 0 0.00479884 0.0823823 -0.0577804 0.00244998
-0.0075 5.64689e-22 0.00479885 0.0885881 -0.0520544 0.00200081
-0.00375 0 0.008656 0.10814 -0.0517787 0.00358932
0.00375 1.0842e-19 0.008656 0.106146 -0.0545217 0.00412521
0.00875 1.0842e-19 0.00356873 0.0719929 -0.0581565 0.0017032
-0.00875 1.0842e-19 0.00356873 0.0802048 -0.0516068 0.00145505
-3.68372e-11 2.82344e-21 0.00994619 0.1115 -0.0522136 0.00425013
-0.00998147 0 0 0 0 0
-0.00998147 0 1.73338e-05 0.000668126 -0.000603322 5.68423e-06
0.00998149 3.38813e-21 0 0 0 0
0.00998149 0 1.73145e-05 0.000555543 -0.000664042 3.67224e-06
0.01 0 0 0 0 0
-0.01 0 0 0 0 0
0.0100185 -3.38813e-21 0 0 0 0
0.0100185 0 1.73145e-05 0.000540628 -0.000676006 3.02483e-06
-0.0100185 3.38813e-21 0 0 0 0
-0.0100185 0 1.73338e-05 0.000682816 -0.000595691 5.69193e-06
-0.0025 5.64689e-22 0.00994619 0.112075 -0.0513441 0.00405196
0.0025 -5.64689e-22 0.00994619 0.110885 -0.0531108 0.00445313
0.01 0 0.00233917 0.0543746 -0.0519166 0.000965422
-0.01 -1.12938e-21 0.00233917 0.0632938 -0.0457796 0.000900836
-0.0075 -1.69407e-21 0.00736575 0.103277 -0.0512859 0.00293096
0.0075 0 0.00736575 0.0985841 -0.0569557 0.00380598
-0.00875 -1.0842e-19 0.00608215 0.0979293 -0.0516217 0.00246893
0.00875 2.1684e-19 0.00608215 0.091653 -0.0584407 0.00326353
-0.00625 0 0.008656 0.108717 -0.0509206 0.00341814
0.00625 -2.1684e-19 0.00865601 0.105381 -0.0554968 0.00430838
0.01 5.64689e-22 0.00479884 0.0810837 -0.0588307 0.00250022
-0.01 -1.12938e-21 0.00479885 0.0893921 -0.0511855 0.001916
-0.005 -5.64689e-22 0.00994619 0.112613 -0.050501 0.00385915
0.005 0 0.00994619 0.110228 -0.0540371 0.00465996
0.00125 0 0.011217 0.115524 -0.051737 0.00475554
-0.00125 1.0842e-19 0.011217 0.11605 -0.0508847 0.00453301
-0.01125 -1.0842e-19 0.00116944 0.0466897 -0.0402024 0.000382022
0.01125 -1.0842e-19 0.00116944 0.0372475 -0.0456586 0.000218249
-0.01125 1.0842e-19 0.00356872 0.0810992 -0.0507542 0.00140034
0.01125 0 0.00356873 0.0705205 -0.0591927 0.00170294
-0.00375 0 0.011217 0.116544 -0.050058 0.00431713
0.00375 -2.1684e-19 0.011217 0.114966 -0.0526162 0.00498405
-0.00875 1.0842e-19 0.008656 0.109257 -0.0500884 0.00325169
0.00875 -1.0842e-19 0.00865601 0.104556 -0.056505 0.00449107
-0.01 -5.64689e-22 0.00736575 0.103878 -0.0504384 0.00279099
0.01 1.69407e-21 0.00736575 0.0975754 -0.0580087 0.00394439
-0.0075 -5.64689e-22 0.00994619 0.113119 -0.049683 0.00367215
0.0075 0 0.00994619 0.109524 -0.0549941 0.00486926
-0.0124815 -3.38813e-21 0 0 0 0
-0.0124815 0 1.73348e-05 0.000682852 -0.000595723 5.69223e-06
0.0124815 0 0 0 0 0
0.0124815 0 1.73156e-05 0.000540663 -0.000676049 3.02502e-06
-5.67781e-12 -5.64689e-22 0.0124877 0.119179 -0.0504811 0.00496944
0.0125 -3.38813e-21 0 0 0 0
-0.0125 0 0 0 0 0
0.0125185 0 0 0 0 0
0.0125185 0 1.73157e-05 0.000526937 -0.000689694 2.35751e-06
-0.0125185 0 0 0 0 0
-0.0125185 0 1.73348e-05 0.00069694 -0.000588175 5.66028e-06
0.0125 1.12938e-21 0.00233917 0.0531338 -0.0528647 0.000940096
-0.0125 -1.69407e-21 0.00233917 0.0642004 -0.0451007 0.000872624
-0.0025 -1.12938e-21 0.0124877 0.119647 -0.0496654 0.00473556
0.0025 0 0.0124877 0.118683 -0.0513217 0.00521058
0.01125 0 0.00608215 0.0904488 -0.0595372 0.00335397
-0.01125 0 0.00608215 0.0985842 -0.0507597 0.00235362
-0.00625 -1.0842e-19 0.011217 0.11701 -0.0492555 0.00410833
0.00625 -1.0842e-19 0.011217 0.114372 -0.0535238 0.00521764
0.0125 -5.64689e-22 0.00479884 0.0797037 -0.0599146 0.00253864
-0.0125 -1.12938e-21 0.00479885 0.090141 -0.0503397 0.00183163
-0.005 -1.69407e-21 0.0124877 0.120089 -0.0488734 0.00450932
0.005 0 0.0124877 0.118157 -0.0521885 0.00545839
0.01375 -2.1684e-19 0.00116944 0.0363055 -0.046555 0.000173554
-0.01375 0 0.00116944 0.0476175 -0.0396875 0.000379226
0.00125 1.0842e-19 0.0137433 0.122339 -0.0500565 0.00541963
-0.00125 0 0.0137433 0.122777 -0.0492531 0.00516697
-0.01 5.64689e-22 0.00994619 0.113593 -0.0488889 0.00349157
0.01 0 0.00994619 0.108768 -0.0559836 0.00507943
-0.01125 0 0.008656 0.109761 -0.049281 0.00309106
0.01125 -1.0842e-19 0.008656 0.103667 -0.0575483 0.00467126
0.01375 0 0.00356872 0.0689786 -0.060266 0.00168916
-0.01375 0 0.00356872 0.0819335 -0.0499216 0.00134445
-0.00875 2.1684e-19 0.011217 0.117448 -0.048476 0.00390694
0.00875 -1.0842e-19 0.011217 0.113739 -0.0544613 0.00545511
-0.00375 1.0842e-19 0.0137433 0.123192 -0.0484725 0.00492264
0.00375 -1.0842e-19 0.0137433 0.121876 -0.0508841 0.00568035
-0.0125 1.12938e-21 0.00736575 0.104438 -0.049616 0.00265529
0.0125 -1.69407e-21 0.00736575 0.0964874 -0.0590963 0.00407544
-0.0075 -2.25875e-21 0.0124877 0.120506 -0.0481038 0.00429099
0.0075 0 0.0124877 0.117599 -0.0530828 0.00571205
-0.0149815 -3.38813e-21 0 0 0 0
-0.0149815 0 1.73342e-05 0.000696918 -0.000588156 5.6601e-06
0.0149815 0 0 0 0 0
0.0149815 0 1.73193e-05 0.000527046 -0.000689837 2.358e-06
-5.06181e-13 0 0.0149988 0.125434 -0.0488891 0.0055758
0.015 0 0 0 0 0
-0.015 0 0 0 0 0
0.0150185 -3.38813e-21 0 0 0 0
0.0150185 0 1.73194e-05 0.000514775 -0.000705443 1.70438e-06
-0.0150185 0 0 0 0 0
-0.0150185 0 1.73342e-05 0.000710389 -0.000580683 5.5963e-06
0.01375 0 0.00608215 0.0891511 -0.0606676 0.00343255
-0.01375 -1.0842e-19 0.00608215 0.0991931 -0.0499234 0.00224121
-0.00625 -1.0842e-19 0.0137433 0.123585 -0.0477138 0.00468678
0.00625 1.0842e-19 0.0137433 0.121387 -0.0517369 0.00594864
-0.015 5.64689e-22 0.00233917 0.0650573 -0.0444346 0.000842883
0.015 1.12938e-21 0.00233917 0.0519033 -0.0538924 0.000906727
-0.0025 0 0.0149988 0.125832 -0.0481163 0.00531541
0.0025 0 0.0149988 0.125014 -0.0496845 0.00584503
-0.015 -1.12938e-21 0.00479885 0.0908386 -0.0495164 0.00174842
0.015 0 0.00479885 0.0782442 -0.0610369 0.00256301
-0.005 0 0.0149988 0.126209 -0.0473651 0.00506405
0.005 0 0.0149988 0.124572 -0.0505037 0.00612274
-0.01125 2.1684e-19 0.011217 0.117862 -0.0477185 0.0037133
0.01125 1.0842e-19 0.011217 0.113062 -0.0554307 0.00569515
-0.0125 5.64689e-22 0.00994619 0.114037 -0.0481178 0.0033179
0.0125 0 0.00994619 0.107956 -0.0570076 0.00528862
-0.01 -1.69407e-21 0.0124877 0.120901 -0.0473556 0.00408086
0.01 0 0.0124877 0.117005 -0.0540065 0.00597052
-0.01375 0 0.008656 0.110233 -0.0484975 0.00293657
0.01375 0 0.008656 0.102707 -0.0586285 0.00484642
0.01625 -1.0842e-19 0.00116944 0.0354569 -0.0475781 0.0001293
-0.01625 -1.0842e-19 0.00116944 0.0485041 -0.0391782 0.000374409
-0.00875 -1.0842e-19 0.0137433 0.123957 -0.0469759 0.00445962
0.00875 1.0842e-19 0.0137433 0.120869 -0.0526167 0.00622378
0.00125 0 0.0162494 0.128117 -0.0485065 0.00599647
-0.00125 0 0.0162494 0.128496 -0.0477424 0.0057194
-0.01625 1.0842e-19 0.00356872 0.082711 -0.049109 0.00128817
0.01625 0 0.00356873 0.0673788 -0.061386 0.00165876
-0.00375 1.0842e-19 0.0162494 0.128855 -0.0469994 0.00545193
0.00375 0 0.0162494 0.127718 -0.049293 0.00628288
-0.015 0 0.00736575 0.10496 -0.0488179 0.00252426
0.015 5.64689e-22 0.00736575 0.0953145 -0.0602203 0.0041966
-0.0075 0 0.0149988 0.126567 -0.0466343 0.00482188
0.0075 0 0.0149988 0.124105 -0.0513479 0.00640842
0.01625 0 0.00608215 0.0877555 -0.0618338 0.00349694
-0.01625 0 0.00608215 0.0997597 -0.0491116 0.00213216
0.00625 0 0.0162494 0.127299 -0.0501028 0.00657828
-0.00625 0 0.0162494 0.129197 -0.0462765 0.00519419
-0.0174815 0 0 0 0 0
0.0174815 0 0 0 0 0
-0.0174815 0 1.73322e-05 0.00071031 -0.000580618 5.59568e-06
0.0174815 0 1.7327e-05 0.000515 -0.00070575 1.70513e-06
-1.0396e-14 0 0.0175 0.130869 -0.0474038 0.00610949
0.0175 -3.38813e-21 0 0 0 0
-0.0175 -3.38813e-21 0 0 0 0
0.0175185 0 0 0 0 0
-0.0175185 0 0 0 0 0
0.0175185 0 1.73272e-05 0.000504474 -0.000723655 1.0635e-06
-0.0175185 3.38813e-21 1.73322e-05 0.000723156 -0.000573217 5.50552e-06
-0.0175 5.64689e-22 0.00233917 0.0658661 -0.0437811 0.000812178
0.0175 1.69407e-21 0.00233917 0.0506999 -0.0550158 0.00086538
-0.0125 -1.12938e-21 0.0124877 0.121273 -0.0466279 0.00387912
0.0125 0 0.0124877 0.116373 -0.0549612 0.00623255
0.0025 0 0.0175 0.130504 -0.0481619 0.00640176
-0.0025 0 0.0175 0.131216 -0.0466667 0.0058272
-0.01375 2.1684e-19 0.011217 0.118252 -0.0469821 0.00352753
0.01375 0 0.011217 0.112339 -0.0564339 0.00593618
-0.01125 1.0842e-19 0.0137433 0.124309 -0.0462579 0.00424139
0.01125 -1.0842e-19 0.0137433 0.120321 -0.0535248 0.00650485
-0.015 5.64689e-22 0.00994619 0.114455 -0.0473686 0.00315127
0.015 5.64689e-22 0.00994619 0.107082 -0.0580678 0.00549443
-0.01 0 0.0149988 0.126906 -0.0459232 0.00458904
0.01 0 0.0149988 0.123611 -0.0522186 0.00670135
-0.0175 -1.12938e-21 0.00479885 0.0914883 -0.0487152 0.00166692
0.0175 -1.69407e-21 0.00479886 0.0767109 -0.0622054 0.00257115
0.005 0 0.0175 0.13012 -0.0489421 0.00670374
-0.005 0 0.0175 0.131546 -0.0459497 0.00555503
-0.01625 2.1684e-19 0.008656 0.110674 -0.0477367 0.0027883
0.01625 0 0.008656 0.101669 -0.0597475 0.00501314
-0.00875 1.0842e-19 0.0162494 0.129521 -0.0455729 0.00494628
0.00875 1.0842e-19 0.0162494 0.126856 -0.0509372 0.00688214
-0.01875 0 0.00116943 0.049349 -0.0386741 0.000367911
0.01875 0 0.00116944 0.034719 -0.0487476 8.5816e-05
0.00125 0 0.01875 0.133265 -0.0470484 0.0065098
-0.00125 1.0842e-19 0.01875 0.133598 -0.046318 0.00621221
-0.0175 5.64689e-22 0.00736575 0.105447 -0.0480431 0.0023981
0.0175 5.64689e-22 0.00736575 0.0940515 -0.0613832 0.00430473
0.0075 0 0.0175 0.129715 -0.0497456 0.00701505
-0.0075 0 0.0175 0.13186 -0.0452519 0.00529307
-0.01875 0 0.00356872 0.0834356 -0.0483164 0.00123215
0.01875 2.1684e-19 0.00356873 0.0657384 -0.0625679 0.00161159
0.00375 1.0842e-19 0.01875 0.132915 -0.0477998 0.00681779
-0.00375 0 0.01875 0.133915 -0.0456074 0.00592516
-0.01375 -1.0842e-19 0.0137433 0.124644 -0.0455589 0.00403216
0.01375 -1.0842e-19 0.0137433 0.11974 -0.0544631 0.00679065
-0.015 -1.69407e-21 0.0124877 0.121625 -0.0459199 0.00368582
0.015 -5.64689e-22 0.0124877 0.115699 -0.0559489 0.00649655
-0.0125 0 0.0149988 0.127228 -0.0452308 0.00436562
0.0125 0 0.0149988 0.123089 -0.0531173 0.00700062
-0.01875 0 0.00608215 0.100287 -0.0483237 0.00202682
0.01875 -2.1684e-19 0.00608216 0.0862607 -0.0630404 0.00354402
-0.01625 -2.1684e-19 0.011217 0.118619 -0.0462658 0.0033497
0.01625 0 0.011217 0.111564 -0.0574731 0.00617614
-0.01125 2.1684e-19 0.0162494 0.12983 -0.0448877 0.00470826
0.01125 0 0.0162494 0.12639 -0.0517978 0.00719378
0.00625 1.0842e-19 0.01875 0.132547 -0.048573 0.00713591
-0.00625 0 0.01875 0.134217 -0.0449159 0.00564874
0.0199815 0 0 0 0 0
0.0199815 0 1.73418e-05 0.000504901 -0.000724267 1.0644e-06
-0.0199815 0 0 0 0 0
-0.0199815 3.38813e-21 1.73298e-05 0.000723056 -0.000573138 5.50475e-06
-1.01897e-14 0 0.02 0.135783 -0.0459969 0.00658798
0.02 -3.38813e-21 0 0 0 0
-0.02 0 0 0 0 0
-0.0200185 0 0 0 0 0
-0.0200185 0 1.73298e-05 0.000735284 -0.000565811 5.39316e-06
0.0200185 0 0 0 0 0
0.0200185 0 1.73425e-05 0.00049663 -0.000745065 4.26371e-07
-0.0175 -5.64689e-22 0.00994619 0.114847 -0.0466405 0.00299172
0.0175 5.64689e-22 0.00994619 0.106141 -0.0591666 0.00569389
-0.02 5.64689e-22 0.00233917 0.0666287 -0.0431402 0.000780954
0.02 1.12938e-21 0.00233917 0.0495448 -0.0562568 0.000816392
0.01 0 0.0175 0.129289 -0.0505737 0.00733515
-0.01 0 0.0175 0.132158 -0.0445723 0.00504134
0.0025 0 0.02 0.135461 -0.0467222 0.00690004
-0.0025 0 0.02 0.13609 -0.0452915 0.00628683
-0.02 -1.12938e-21 0.00479885 0.0920935 -0.0479355 0.00158758
0.02 -1.69407e-21 0.00479886 0.0751131 -0.063431 0.00256149
0.005 0 0.02 0.135122 -0.0474684 0.00722286
-0.005 0 0.02 0.136382 -0.0446051 0.00599668
-0.01875 0 0.008656 0.111088 -0.0469978 0.00264628
0.01875 1.0842e-19 0.00865601 0.100546 -0.0609073 0.00516766
0.00875 1.0842e-19 0.01875 0.132159 -0.0493695 0.00746376
-0.00875 1.0842e-19 0.01875 0.134503 -0.0442425 0.00538297
-0.015 0 0.0149988 0.127533 -0.0445565 0.0041516
0.015 0 0.0149988 0.122537 -0.0540459 0.00730503
0.02125 2.1684e-19 0.00116944 0.0341225 -0.050098 4.29075e-05
-0.02125 -1.0842e-19 0.00116943 0.050153 -0.0381755 0.000360049
-0.01625 1.0842e-19 0.0137433 0.12496 -0.0448784 0.0038319
0.01625 -1.0842e-19 0.0137433 0.119124 -0.0554336 0.00707968
0.01375 0 0.0162494 0.125898 -0.0526859 0.00751229
-0.01375 0 0.0162494 0.130122 -0.0442203 0.00448009
0.00125 1.0842e-19 0.02125 0.137987 -0.0456605 0.00697279
-0.00125 0 0.02125 0.138283 -0.0449608 0.00665712
-0.02 2.25875e-21 0.00736575 0.105902 -0.0472905 0.00227698
0.02 -1.69407e-21 0.00736576 0.0926944 -0.0625887 0.00439596
0.0075 0 0.02 0.134766 -0.0482365 0.00755615
-0.0075 0 0.02 0.136659 -0.0439367 0.00571754
-0.0175 -2.25875e-21 0.0124877 0.121957 -0.0452308 0.00350094
0.0175 -1.12938e-21 0.0124877 0.11498 -0.0569718 0.00676047
0.0125 0 0.0175 0.128841 -0.0514278 0.00766333
-0.0125 0 0.0175 0.132441 -0.0439103 0.00479983
0.02125 1.0842e-19 0.00356874 0.0640774 -0.0638297 0.00154903
-0.02125 -1.0842e-19 0.00356872 0.0841106 -0.0475436 0.00117687
-0.00375 0 0.02125 0.138564 -0.0442799 0.00635284
0.00375 0 0.02125 0.137677 -0.0463801 0.00729979
-0.01875 1.0842e-19 0.011217 0.118965 -0.0455692 0.00317977
0.01875 1.0842e-19 0.011217 0.110731 -0.0585506 0.00641238
0.01125 0 0.01875 0.131752 -0.0501905 0.00780081
-0.01125 0 0.01875 0.134776 -0.0435864 0.00512778
0.02125 0 0.00608216 0.0846671 -0.0642927 0.00356935
-0.02125 0 0.00608215 0.100778 -0.0475585 0.0019254
0.00625 0 0.02125 0.13735 -0.0471206 0.00763795
-0.00625 0 0.02125 0.138831 -0.0436171 0.00605998
-0.02 0 0.00994619 0.115214 -0.0459326 0.00283924
0.02 1.69407e-21 0.00994619 0.105124 -0.0603062 0.00588349
0.01 0 0.02 0.134391 -0.049028 0.00789949
-0.01 0 0.02 0.136924 -0.0432856 0.00544936
0.0224814 0 0 0 0 0
0.0224814 0 1.73745e-05 0.000497548 -0.000746443 4.2716e-07
-0.0224815 0 0 0 0 0
-0.0224815 0 1.73276e-05 0.00073519 -0.000565739 5.39248e-06
0.0225 0 0 0 0 0
-0.0225 0 0 0 0 0
-1.01897e-14 0 0.0225 0.140332 -0.0446531 0.0070203
-0.0225185 -3.38813e-21 0 0 0 0
-0.0225185 0 1.73275e-05 0.000746807 -0.00055849 5.26303e-06
0.0225186 0 0 0 0 0
0.0225186 0 1.73756e-05 0.000491953 -0.000770628 -2.42232e-07
-0.0225 -1.12938e-21 0.00233917 0.067347 -0.0425118 0.000749568
0.0225 5.64689e-22 0.00233918 0.0484652 -0.0576428 0.000758695
0.0025 0 0.0225 0.140046 -0.0453482 0.00734995
-0.0025 0 0.0225 0.140604 -0.043977 0.00670243
-0.02125 0 0.008656 0.111474 -0.0462797 0.00251051
0.02125 1.0842e-19 0.00865601 0.0993299 -0.0621104 0.00530583
0.01625 0 0.0162494 0.125379 -0.0536034 0.00783653
-0.01625 -1.0842e-19 0.0162494 0.130401 -0.04357 0.00426167
-0.00875 0 0.02125 0.139086 -0.0429713 0.00577847
0.00875 0 0.02125 0.137008 -0.047883 0.00798697
-0.0225 1.12938e-21 0.00479885 0.0926575 -0.047177 0.00151069
0.0225 5.64689e-22 0.00479887 0.0734632 -0.064727 0.0025311
-0.0175 0 0.0149988 0.127823 -0.0438995 0.00394685
0.0175 0 0.0149988 0.121953 -0.0550063 0.00761304
0.015 0 0.0175 0.128368 -0.0523096 0.00799866
-0.015 0 0.0175 0.132711 -0.0432652 0.00456842
0.005 0 0.0225 0.139745 -0.0460631 0.0076913
-0.005 0 0.0225 0.140863 -0.0433188 0.00639634
0.01875 0 0.0137433 0.118469 -0.0564384 0.00736994
-0.01875 0 0.0137433 0.125259 -0.0442154 0.00364047
0.01375 1.0842e-19 0.01875 0.131323 -0.0510374 0.00814633
-0.01375 -1.0842e-19 0.01875 0.135036 -0.0429471 0.0048831
-0.02 -1.69407e-21 0.0124877 0.122271 -0.0445599 0.00332438
0.02 -1.12938e-21 0.0124877 0.114209 -0.0580324 0.00702166
0.0125 0 0.02 0.133997 -0.049844 0.00825233
-0.0125 0 0.02 0.137175 -0.0426511 0.00519204
-0.0225 1.69407e-21 0.00736575 0.106327 -0.0465594 0.00216095
0.0225 -1.69407e-21 0.00736576 0.0912407 -0.0638415 0.00446552
0.0075 0 0.0225 0.139429 -0.0467989 0.00804416
-0.0075 0 0.0225 0.14111 -0.0426778 0.00610198
0.0237499 -1.0842e-19 0.00116944 0.033699 -0.0516644 -1.18904e-06
-0.02375 1.0842e-19 0.00116943 0.0509165 -0.0376825 0.000351052
0.00125 0 0.02375 0.142398 -0.0443311 0.00739158
-0.00125 1.0842e-19 0.02375 0.14266 -0.0436601 0.00705972
0.0237499 1.0842e-19 0.00356875 0.0624216 -0.0651927 0.00146736
-0.02375 -1.0842e-19 0.00356873 0.0847393 -0.0467906 0.00112274
0.02125 -1.0842e-19 0.011217 0.109835 -0.059669 0.00664142
-0.02125 -1.0842e-19 0.011217 0.11929 -0.0448911 0.00301772
-0.00375 1.0842e-19 0.02375 0.14291 -0.0430071 0.00674005
0.01125 1.0842e-19 0.02125 0.136646 -0.0486689 0.00834643
-0.01125 1.0842e-19 0.02125 0.139329 -0.0423422 0.00550821
0.00375 0 0.02375 0.142122 -0.045021 0.00773564
0.02375 -1.0842e-19 0.00608218 0.0829785 -0.065599 0.00356788
-0.02375 0 0.00608215 0.101237 -0.0468155 0.00182803
0.00625 -1.0842e-19 0.02375 0.141833 -0.0457307 0.00809182
-0.00625 1.0842e-19 0.02375 0.143149 -0.0423713 0.00643249
0.0225 -5.64689e-22 0.00994619 0.104025 -0.0614895 0.00605887
-0.0225 5.64689e-22 0.00994619 0.11556 -0.0452441 0.00269378
0.01 0 0.0225 0.139097 -0.047557 0.00840825
-0.01 0 0.0225 0.141345 -0.0420532 0.00581922
0.0175 0 0.0175 0.127869 -0.0532207 0.00833993
-0.0175 0 0.0175 0.132967 -0.0426363 0.00434695
0.01875 0 0.0162494 0.124831 -0.0545522 0.00816501
-0.01875 1.0842e-19 0.0162494 0.130665 -0.042936 0.00405281
0.01625 1.0842e-19 0.01875 0.130871 -0.0519119 0.00849937
-0.01625 0 0.01875 0.135283 -0.0423238 0.00464875
0.0249812 0 0 0 0 0
0.0249812 -3.38813e-21 1.74534e-05 0.000494155 -0.000774078 -2.43317e-07
-0.0249815 0 0 0 0 0
-0.0249815 0 1.73255e-05 0.00074672 -0.000558425 5.26242e-06
-0.02 0 0.0149988 0.128098 -0.0432592 0.00375121
0.02 0 0.0149988 0.121333 -0.0560007 0.00792269
0.0249999 0 0 0 0 0
0.015 0 0.02 0.133582 -0.0506862 0.00861391
-0.015 0 0.02 0.137414 -0.0420325 0.00494542
-1.01899e-14 0 0.025 0.144609 -0.0433628 0.00741139
-0.025 0 0 0 0 0
-0.0250185 0 0 0 0 0
-0.0250185 3.38813e-21 1.73255e-05 0.000757739 -0.000551254 5.11877e-06
0.0250186 0 0 0 0 0
0.0250186 0 1.74563e-05 0.000491445 -0.000801837 -1.01633e-06
0.0249999 -1.69407e-21 0.00233919 0.0474867 -0.0591976 0.000689396
-0.025 0 0.00233917 0.0680231 -0.0418961 0.000718299
0.0025 0 0.025 0.144355 -0.0440292 0.00775686
-0.0025 0 0.025 0.14485 -0.0427143 0.00707851
0.02375 0 0.00865602 0.0980139 -0.06336 0.00542227
-0.02375 0 0.008656 0.111836 -0.0455816 0.00238089
-0.02125 0 0.0137433 0.125544 -0.0435694 0.00345772
0.02125 1.0842e-19 0.0137433 0.117771 -0.0574801 0.00765894
0.01375 0 0.02125 0.136267 -0.0494794 0.00871576
-0.00875 1.0842e-19 0.02375 0.143375 -0.0417517 0.00613695
-0.01375 1.0842e-19 0.02125 0.13956 -0.0417287 0.00524904
0.00875 1.0842e-19 0.02375 0.141527 -0.0464615 0.00845992
0.0249999 5.64689e-22 0.00479889 0.0717784 -0.0661106 0.00247639
-0.025 5.64689e-22 0.00479885 0.0931831 -0.0464391 0.00143644
0.005 0 0.025 0.144088 -0.0447146 0.00811494
-0.005 0 0.025 0.14508 -0.042083 0.00675814
0.0225 0 0.0124877 0.113383 -0.0591333 0.00727672
-0.0225 -5.64689e-22 0.0124877 0.122567 -0.0439065 0.00315601
0.0125 0 0.0225 0.138747 -0.0483386 0.00878314
-0.0125 0 0.0225 0.141569 -0.0414444 0.00554792
-0.025 -1.69407e-21 0.00736575 0.106723 -0.0458488 0.00205
0.025 0 0.00736577 0.0896901 -0.0651491 0.00450856
0.0075 0 0.025 0.143807 -0.04542 0.00848552
-0.0075 0 0.025 0.145299 -0.041468 0.00645015
-0.02375 0 0.011217 0.119598 -0.044231 0.00286345
0.02375 -1.0842e-19 0.011217 0.108867 -0.0608315 0.0068588
0.0262497 -2.1684e-19 0.00116946 0.0334654 -0.0534598 -5.06463e-05
-0.02625 1.0842e-19 0.00116943 0.0516405 -0.0371952 0.000341167
0.00125 0 0.02625 0.146572 -0.0430516 0.00777036
0.01125 0 0.02375 0.141206 -0.0472146 0.00883969
-0.01125 0 0.02375 0.14359 -0.0411478 0.00585325
-0.00125 -1.0842e-19 0.02625 0.146805 -0.0424083 0.00742389
0.0262498 -1.0842e-19 0.00356879 0.0608004 -0.0666833 0.0013647
-0.02625 1.0842e-19 0.00356872 0.0853251 -0.046057 0.00106999
0.00375 0 0.02625 0.146327 -0.0437132 0.00812986
-0.00375 -1.0842e-19 0.02625 0.147026 -0.0417819 0.00709036
0.01875 1.0842e-19 0.01875 0.130395 -0.0528157 0.00885871
-0.01875 0 0.01875 0.135517 -0.0417158 0.00442452
0.02 0 0.0175 0.127343 -0.0541634 0.00868562
-0.02 0 0.0175 0.13321 -0.042023 0.00413522
0.0175 0 0.02 0.133145 -0.0515562 0.00898323
-0.0175 0 0.02 0.137642 -0.0414292 0.00470929
0.02125 1.0842e-19 0.0162494 0.124252 -0.0555346 0.00849583
-0.02125 0 0.0162494 0.130916 -0.0423178 0.00385331
-0.01625 1.0842e-19 0.02125 0.13978 -0.0411304 0.00500076
0.01625 1.0842e-19 0.02125 0.135867 -0.0503162 0.00909417
0.025 -5.64689e-22 0.00994619 0.102837 -0.0627202 0.00621496
-0.025 1.12938e-21 0.00994619 0.115884 -0.0445741 0.00255518
0.01 0 0.025 0.143511 -0.0461466 0.00886846
-0.01 0 0.025 0.145507 -0.0408686 0.00615438
0.0262499 0 0.0060822 0.0812035 -0.0669723 0.00353594
-0.02625 0 0.00608215 0.101664 -0.0460937 0.00173468
0.00625 1.0842e-19 0.02625 0.14607 -0.0443936 0.00850241
-0.00625 0 0.02625 0.147236 -0.0411718 0.00676963
0.0225 0 0.0149988 0.120674 -0.0570317 0.00823151
-0.0225 0 0.0149988 0.128358 -0.0426351 0.00356446
0.015 0 0.0225 0.138379 -0.0491451 0.00916821
-0.015 0 0.0225 0.141782 -0.0408505 0.00528788
0.02375 1.0842e-19 0.0137433 0.117026 -0.0585615 0.00794352
-0.02375 1.0842e-19 0.0137433 0.125812 -0.0429399 0.00328343
-0.01375 0 0.02375 0.143796 -0.0405588 0.00558118
0.01375 -1.0842e-19 0.02375 0.140869 -0.0479915 0.00923066
0.0274807 0 0 0 0 0
0.0274807 0 1.76436e-05 0.000496717 -0.000810439 -1.02723e-06
-0.0274815 -3.38813e-21 0 0 0 0
-0.0274815 -3.38813e-21 1.73236e-05 0.000757658 -0.000551196 5.11822e-06
0.0274996 0 0 0 0 0
-1.01898e-14 0 0.0275 0.148674 -0.0421186 0.00776408
-0.0275 0 0 0 0 0
0.0275185 0 0 0 0 0
0.0275185 0 1.76502e-05 0.000496895 -0.000841713 -1.8763e-06
-0.0275185 -3.38813e-21 0 0 0 0
-0.0275185 -3.38813e-21 1.73236e-05 0.000768101 -0.000544111 4.96374e-06
0.0274996 -5.64689e-22 0.00233923 0.0466283 -0.0609328 0.000607514
-0.0275 -1.69407e-21 0.00233917 0.0686589 -0.041293 0.000687384
0.0025 0 0.0275 0.14845 -0.0427574 0.00812388
-0.0025 0 0.0275 0.148887 -0.0414969 0.00741764
0.02625 2.1684e-19 0.00865603 0.0965919 -0.064661 0.00551163
-0.02625 0 0.008656 0.112175 -0.0449025 0.00225735
0.00875 1.0842e-19 0.02625 0.145799 -0.0450942 0.00888793
-0.00875 0 0.02625 0.147437 -0.0405773 0.00646152
0.0274998 0 0.00479892 0.0700779 -0.0676012 0.00239516
-0.0275 5.64689e-22 0.00479885 0.0936728 -0.0457213 0.00136493
0.025 5.64689e-22 0.0124877 0.112493 -0.0602778 0.00752152
-0.025 0 0.0124877 0.122847 -0.04327 0.00299562
0.005 0 0.0275 0.148214 -0.0434143 0.00849715
-0.005 0 0.0275 0.14909 -0.0408915 0.0070844
0.0125 0 0.025 0.1432 -0.0468957 0.00926347
-0.0125 0 0.025 0.145706 -0.0402841 0.00587062
0.02 0 0.02 0.132684 -0.052456 0.00935903
-0.02 0 0.02 0.137859 -0.0408405 0.00448343
0.02125 -1.0842e-19 0.01875 0.129893 -0.0537511 0.0092228
0.01875 0 0.02125 0.135446 -0.0511811 0.00948065
-0.01875 1.0842e-19 0.02125 0.139989 -0.0405467 0.00476313
-0.02125 1.0842e-19 0.01875 0.135741 -0.0411228 0.00421019
0.0274999 -1.69407e-21 0.00736579 0.0880453 -0.0665216 0.00451985
-0.0275 -1.12938e-21 0.00736575 0.107094 -0.0451581 0.00194408
0.0225 0 0.0175 0.126787 -0.0551397 0.00903377
-0.0225 0 0.0175 0.133441 -0.0414248 0.00393297
0.0075 0 0.0275 0.147966 -0.0440903 0.0088839
-0.0075 0 0.0275 0.149283 -0.0403016 0.00676418
0.0175 0 0.0225 0.137991 -0.0499783 0.00956269
-0.0175 0 0.0225 0.141985 -0.0402712 0.00503885
-0.02625 -1.0842e-19 0.011217 0.119886 -0.0435881 0.00271659
0.02625 0 0.011217 0.107819 -0.0620415 0.00705944
0.01125 1.0842e-19 0.02625 0.145514 -0.045816 0.0092863
-0.01125 0 0.02625 0.147628 -0.0399977 0.00616581
0.0287493 0 0.00116949 0.0334239 -0.0554695 -0.000105751
-0.02875 -1.0842e-19 0.00116944 0.0523264 -0.036714 0.000330617
0.02375 1.0842e-19 0.0162494 0.123638 -0.056553 0.00882664
-0.02375 1.0842e-19 0.0162494 0.131154 -0.0417149 0.00366287
0.00125 0 0.02875 0.150558 -0.0418155 0.00811089
0.01625 1.0842e-19 0.02375 0.140513 -0.0487934 0.00963226
-0.01625 0 0.02375 0.143992 -0.0399842 0.00532052
-0.00125 2.1684e-19 0.02875 0.150762 -0.0411989 0.00775117
0.0287494 1.0842e-19 0.00356886 0.0592407 -0.068323 0.00124348
-0.02875 0 0.00356872 0.0858707 -0.0453427 0.00101887
0.00375 0 0.02875 0.150343 -0.0424493 0.00848442
-0.00375 0 0.02875 0.150957 -0.0405985 0.00740512
0.025 0 0.0149988 0.119972 -0.0581021 0.0085364
-0.025 0 0.0149988 0.128605 -0.0420265 0.00338633
0.015 0 0.025 0.142872 -0.0476687 0.0096701
-0.015 0 0.025 0.145895 -0.0397139 0.00559862
-0.0275 -1.69407e-21 0.00994619 0.116188 -0.0439219 0.00242318
0.0275 0 0.0099462 0.101553 -0.064003 0.00634601
0.01 0 0.0275 0.147704 -0.0447866 0.00928411
-0.01 0 0.0275 0.149466 -0.0397265 0.00645674
0.0287497 0 0.00608226 0.0793549 -0.0684287 0.00346778
-0.02875 0 0.00608215 0.102062 -0.0453923 0.00164533
0.00625 1.0842e-19 0.02875 0.150116 -0.0431013 0.00887189
-0.00625 1.0842e-19 0.02875 0.151141 -0.0400137 0.00707249
0.02625 0 0.0137433 0.116227 -0.0596859 0.00821982
-0.02625 0 0.0137433 0.126067 -0.0423262 0.00311736
-0.01375 1.0842e-19 0.02625 0.14781 -0.0394322 0.00588224
0.01375 0 0.02625 0.145213 -0.0465606 0.00969721
0.0299797 0 0 0 0 0
0.0299797 0 1.80772e-05 0.000508916 -0.000862076 -1.92169e-06
-0.0299815 0 0 0 0 0
-0.0299815 0 1.73217e-05 0.000768015 -0.00054405 4.96319e-06
0.029999 0 0 0 0 0
-0.03 3.38813e-21 0 0 0 0
-1.01897e-14 0 0.03 0.152565 -0.0409158 0.00807996
0.0300183 0 0 0 0 0
0.0300183 3.38813e-21 1.80909e-05 0.000511688 -0.000896799 -2.6928e-06
-0.0300185 -3.38813e-21 0 0 0 0
-0.0300185 0 1.73217e-05 0.000777897 -0.000537056 4.80119e-06
0.0287499 0 0.00865605 0.0950592 -0.06602 0.00556776
-0.02875 -1.0842e-19 0.008656 0.112492 -0.044242 0.00213986
0.02125 0 0.02125 0.135003 -0.052076 0.00987394
-0.00875 0 0.02875 0.151317 -0.0394436 0.00675307
0.00875 0 0.02875 0.149877 -0.0437724 0.00927337
-0.02125 0 0.02125 0.140188 -0.039977 0.00453588
0.029999 -1.12938e-21 0.00233931 0.0458962 -0.0628408 0.000516163
-0.03 -5.64689e-22 0.00233917 0.0692566 -0.0407024 0.000657032
0.02 0 0.0225 0.137582 -0.0508399 0.00996553
0.0225 0 0.02 0.132198 -0.0533876 0.00973969
0.0025 0 0.03 0.15237 -0.0415274 0.00845283
-0.02 0 0.0225 0.142178 -0.0397057 0.00480057
-0.0225 0 0.02 0.138064 -0.0402661 0.00426757
-0.0025 0 0.03 0.15275 -0.0403206 0.00772121
0.0275 -5.64689e-22 0.0124877 0.111533 -0.0614695 0.007751
-0.0275 0 0.0124877 0.123111 -0.0426497 0.00284284
0.0125 0 0.0275 0.147427 -0.0455044 0.00969763
-0.0125 0 0.0275 0.149641 -0.0391656 0.00616183
0.01875 1.0842e-19 0.02375 0.140137 -0.0496223 0.0100437
-0.01875 2.1684e-19 0.02375 0.144178 -0.0394234 0.00507098
0.02375 0 0.01875 0.129364 -0.0547202 0.0095897
-0.02375 -1.0842e-19 0.01875 0.135952 -0.040544 0.00400547