# Force       
# CofR        : (0.000000e+00 0.000000e+00 0.000000e+00)
#
# Time        	(total_x total_y total_z)	(pressure_x pressure_y pressure_z)	(viscous_x viscous_y viscous_z)
0.000600024   	(-1.532109e-02 6.622915e-02 8.668076e+02)	(-1.532111e-02 6.622916e-02 8.668076e+02)	(1.634701e-08 -4.555154e-09 -8.746288e-09)
0.00132009    	(-1.533216e-02 6.621659e-02 8.668074e+02)	(-1.533226e-02 6.621661e-02 8.668074e+02)	(9.774958e-08 -1.963436e-08 5.470159e-08)
0.00218416    	(-1.534707e-02 6.620855e-02 8.668075e+02)	(-1.534726e-02 6.620858e-02 8.668075e+02)	(1.941307e-07 -3.758877e-08 1.298155e-07)
0.00322105    	(-1.530721e-02 6.622398e-02 8.668075e+02)	(-1.530752e-02 6.622404e-02 8.668075e+02)	(3.128128e-07 -5.957860e-08 2.213807e-07)
0.00446527    	(-1.526792e-02 6.623904e-02 8.668075e+02)	(-1.526837e-02 6.623913e-02 8.668075e+02)	(4.586515e-07 -8.641924e-08 3.335830e-07)
0.00595826    	(-1.523208e-02 6.625260e-02 8.668075e+02)	(-1.523272e-02 6.625272e-02 8.668075e+02)	(6.372324e-07 -1.190662e-07 4.707285e-07)
0.00775017    	(-1.518591e-02 6.627108e-02 8.668075e+02)	(-1.518677e-02 6.627124e-02 8.668075e+02)	(8.569643e-07 -1.588908e-07 6.393096e-07)
0.00990014    	(-1.512827e-02 6.629441e-02 8.668075e+02)	(-1.512940e-02 6.629462e-02 8.668075e+02)	(1.128582e-06 -2.077266e-07 8.477814e-07)
0.0124803     	(-1.505650e-02 6.632239e-02 8.668075e+02)	(-1.505797e-02 6.632266e-02 8.668075e+02)	(1.466894e-06 -2.680821e-07 1.106332e-06)
0.0155104     	(-1.496085e-02 6.636252e-02 8.668075e+02)	(-1.496273e-02 6.636286e-02 8.668075e+02)	(1.882534e-06 -3.416672e-07 1.423901e-06)
0.0189839     	(-1.487729e-02 6.639430e-02 8.668075e+02)	(-1.487966e-02 6.639472e-02 8.668075e+02)	(2.377400e-06 -4.288800e-07 1.800036e-06)
0.0229944     	(-1.475256e-02 6.644812e-02 8.668075e+02)	(-1.475554e-02 6.644866e-02 8.668075e+02)	(2.978971e-06 -5.341961e-07 2.257806e-06)
0.0276809     	(-1.460400e-02 6.651015e-02 8.668076e+02)	(-1.460772e-02 6.651082e-02 8.668076e+02)	(3.725135e-06 -6.642871e-07 2.824585e-06)
0.033163      	(-1.440674e-02 6.659358e-02 8.668076e+02)	(-1.441141e-02 6.659441e-02 8.668076e+02)	(4.665471e-06 -8.273395e-07 3.536921e-06)
0.0395718     	(-1.412746e-02 6.671628e-02 8.668076e+02)	(-1.413334e-02 6.671732e-02 8.668076e+02)	(5.875048e-06 -1.035393e-06 4.453741e-06)
0.0469976     	(-1.378372e-02 6.686053e-02 8.668076e+02)	(-1.379116e-02 6.686183e-02 8.668076e+02)	(7.438390e-06 -1.302654e-06 5.627479e-06)
0.0555226     	(-1.334069e-02 6.704417e-02 8.668077e+02)	(-1.335016e-02 6.704581e-02 8.668077e+02)	(9.475118e-06 -1.645176e-06 7.137764e-06)
0.0653331     	(-1.271182e-02 6.731067e-02 8.668077e+02)	(-1.272403e-02 6.731278e-02 8.668077e+02)	(1.221212e-05 -2.108338e-06 9.156376e-06)
0.0767033     	(-1.186364e-02 6.766431e-02 8.668077e+02)	(-1.187967e-02 6.766706e-02 8.668077e+02)	(1.603026e-05 -2.744745e-06 1.170922e-05)
0.0898672     	(-1.074321e-02 6.812625e-02 8.668078e+02)	(-1.076467e-02 6.813008e-02 8.668078e+02)	(2.146011e-05 -3.832828e-06 1.553282e-05)
0.0973294     	(-1.049733e-02 6.815214e-02 8.668078e+02)	(-1.052255e-02 6.815701e-02 8.668077e+02)	(2.522013e-05 -4.867218e-06 1.753265e-05)
0.105976      	(-9.197010e-03 6.868309e-02 8.668079e+02)	(-9.226058e-03 6.868917e-02 8.668079e+02)	(2.904772e-05 -6.074939e-06 2.058415e-05)
0.112928      	(-8.602653e-03 6.891818e-02 8.668078e+02)	(-8.635688e-03 6.892404e-02 8.668078e+02)	(3.303476e-05 -5.863910e-06 2.273226e-05)
0.12081       	(-7.387589e-03 6.945258e-02 8.668079e+02)	(-7.425795e-03 6.945912e-02 8.668078e+02)	(3.820654e-05 -6.542763e-06 2.555119e-05)
0.129947      	(-6.062343e-03 6.999401e-02 8.668078e+02)	(-6.107124e-03 7.000168e-02 8.668078e+02)	(4.478071e-05 -7.669906e-06 3.011504e-05)
0.13801       	(-4.659856e-03 7.049621e-02 8.668078e+02)	(-4.710713e-03 7.050520e-02 8.668078e+02)	(5.085689e-05 -8.999678e-06 3.448762e-05)
0.146631      	(-3.087155e-03 7.124211e-02 8.668077e+02)	(-3.145181e-03 7.125307e-02 8.668077e+02)	(5.802528e-05 -1.096128e-05 3.919383e-05)
0.152514      	(-1.954635e-03 7.174444e-02 8.668077e+02)	(-2.018257e-03 7.175626e-02 8.668077e+02)	(6.362209e-05 -1.181950e-05 4.205901e-05)
0.158016      	(-7.716800e-04 7.204947e-02 8.668076e+02)	(-8.413067e-04 7.206217e-02 8.668075e+02)	(6.962670e-05 -1.270008e-05 4.495511e-05)
0.164272      	(6.275185e-04 7.265019e-02 8.668076e+02)	(5.501482e-04 7.266378e-02 8.668076e+02)	(7.737035e-05 -1.358972e-05 4.853801e-05)
0.169341      	(1.862300e-03 7.308977e-02 8.668076e+02)	(1.778585e-03 7.310443e-02 8.668076e+02)	(8.371497e-05 -1.465201e-05 5.131131e-05)
0.170998      	(2.302608e-03 7.272682e-02 8.668080e+02)	(2.217327e-03 7.274149e-02 8.668079e+02)	(8.528072e-05 -1.467537e-05 5.316474e-05)
0.172866      	(3.161974e-03 7.370860e-02 8.668076e+02)	(3.074656e-03 7.372337e-02 8.668075e+02)	(8.731743e-05 -1.476488e-05 5.457955e-05)
0.174971      	(3.833726e-03 7.397597e-02 8.668073e+02)	(3.743958e-03 7.399119e-02 8.668073e+02)	(8.976845e-05 -1.522360e-05 5.651433e-05)
0.177359      	(4.226569e-03 7.416781e-02 8.668073e+02)	(4.134558e-03 7.418368e-02 8.668072e+02)	(9.201104e-05 -1.586985e-05 5.812842e-05)
0.180201      	(4.968128e-03 7.447362e-02 8.668072e+02)	(4.872267e-03 7.448987e-02 8.668072e+02)	(9.586103e-05 -1.625067e-05 6.047513e-05)
0.183473      	(5.871283e-03 7.502282e-02 8.668071e+02)	(5.770233e-03 7.503952e-02 8.668070e+02)	(1.010504e-04 -1.670064e-05 6.306626e-05)
0.187097      	(6.980429e-03 7.544869e-02 8.668069e+02)	(6.873373e-03 7.546599e-02 8.668069e+02)	(1.070561e-04 -1.730391e-05 6.606508e-05)
0.19119       	(8.191203e-03 7.577256e-02 8.668069e+02)	(8.077198e-03 7.579072e-02 8.668068e+02)	(1.140050e-04 -1.816152e-05 6.995772e-05)
0.196102      	(9.737639e-03 7.651435e-02 8.668066e+02)	(9.615082e-03 7.653381e-02 8.668065e+02)	(1.225571e-04 -1.946434e-05 7.442841e-05)
0.201996      	(1.165908e-02 7.733505e-02 8.668064e+02)	(1.152635e-02 7.735694e-02 8.668063e+02)	(1.327249e-04 -2.189237e-05 7.931969e-05)
0.209073      	(1.416526e-02 7.848100e-02 8.668060e+02)	(1.401913e-02 7.850560e-02 8.668059e+02)	(1.461327e-04 -2.460393e-05 8.515444e-05)
0.216966      	(1.705278e-02 7.966620e-02 8.668055e+02)	(1.688895e-02 7.969300e-02 8.668055e+02)	(1.638368e-04 -2.679886e-05 9.299965e-05)
0.221866      	(1.905724e-02 8.071819e-02 8.668051e+02)	(1.888164e-02 8.074688e-02 8.668050e+02)	(1.755987e-04 -2.868935e-05 9.676504e-05)
0.227514      	(2.148836e-02 8.170050e-02 8.668047e+02)	(2.129928e-02 8.173084e-02 8.668046e+02)	(1.890767e-04 -3.033042e-05 1.028829e-04)
0.232517      	(2.365473e-02 8.266932e-02 8.668043e+02)	(2.345275e-02 8.270087e-02 8.668041e+02)	(2.019842e-04 -3.155250e-05 1.089236e-04)
0.23822       	(2.622240e-02 8.385924e-02 8.668036e+02)	(2.600547e-02 8.389262e-02 8.668035e+02)	(2.169294e-04 -3.338077e-05 1.149542e-04)
0.242861      	(2.851306e-02 8.495236e-02 8.668030e+02)	(2.828368e-02 8.498644e-02 8.668029e+02)	(2.293730e-04 -3.408246e-05 1.196250e-04)
0.245825      	(2.998531e-02 8.565287e-02 8.668026e+02)	(2.974770e-02 8.568898e-02 8.668025e+02)	(2.376123e-04 -3.610917e-05 1.222482e-04)
0.249211      	(3.159561e-02 8.639445e-02 8.668022e+02)	(3.134935e-02 8.643295e-02 8.668021e+02)	(2.462598e-04 -3.850140e-05 1.262607e-04)
0.25322       	(3.334190e-02 8.720798e-02 8.668019e+02)	(3.308323e-02 8.724793e-02 8.668018e+02)	(2.586695e-04 -3.994661e-05 1.313255e-04)
0.257829      	(3.555912e-02 8.824316e-02 8.668013e+02)	(3.528553e-02 8.828465e-02 8.668012e+02)	(2.735917e-04 -4.148488e-05 1.371446e-04)
0.263187      	(3.829424e-02 8.952643e-02 8.668005e+02)	(3.800304e-02 8.957026e-02 8.668004e+02)	(2.912013e-04 -4.382997e-05 1.437413e-04)
0.269605      	(4.159020e-02 9.109979e-02 8.667995e+02)	(4.127693e-02 9.114677e-02 8.667994e+02)	(3.132649e-04 -4.697600e-05 1.515545e-04)
0.27731       	(4.576524e-02 9.309368e-02 8.667983e+02)	(4.542407e-02 9.314471e-02 8.667981e+02)	(3.411683e-04 -5.103329e-05 1.613744e-04)
0.286552      	(5.080349e-02 9.552732e-02 8.667965e+02)	(5.042654e-02 9.558347e-02 8.667963e+02)	(3.769539e-04 -5.615047e-05 1.727735e-04)
0.294394      	(5.533828e-02 9.776173e-02 8.667947e+02)	(5.492893e-02 9.782216e-02 8.667945e+02)	(4.093552e-04 -6.042195e-05 1.825691e-04)
0.303531      	(6.078030e-02 1.005132e-01 8.667927e+02)	(6.033066e-02 1.005785e-01 8.667925e+02)	(4.496392e-04 -6.528498e-05 1.947920e-04)
0.307133      	(6.354491e-02 1.020173e-01 8.667914e+02)	(6.307902e-02 1.020859e-01 8.667912e+02)	(4.658915e-04 -6.862253e-05 1.986223e-04)
0.311193      	(6.586794e-02 1.029294e-01 8.667906e+02)	(6.538483e-02 1.029999e-01 8.667904e+02)	(4.831063e-04 -7.054105e-05 2.039732e-04)
0.315763      	(6.850353e-02 1.043099e-01 8.667892e+02)	(6.799881e-02 1.043816e-01 8.667890e+02)	(5.047217e-04 -7.169947e-05 2.103869e-04)
0.321122      	(7.170884e-02 1.060656e-01 8.667876e+02)	(7.117789e-02 1.061398e-01 8.667873e+02)	(5.309461e-04 -7.420951e-05 2.172840e-04)
0.327488      	(7.554906e-02 1.080310e-01 8.667856e+02)	(7.498607e-02 1.081085e-01 8.667854e+02)	(5.629861e-04 -7.750783e-05 2.248267e-04)
0.334568      	(7.997556e-02 1.104698e-01 8.667832e+02)	(7.937615e-02 1.105521e-01 8.667830e+02)	(5.994138e-04 -8.228605e-05 2.331568e-04)
0.342598      	(8.503201e-02 1.130541e-01 8.667804e+02)	(8.439037e-02 1.131415e-01 8.667802e+02)	(6.416399e-04 -8.735544e-05 2.418876e-04)
0.351571      	(9.059963e-02 1.161771e-01 8.667770e+02)	(8.990959e-02 1.162715e-01 8.667768e+02)	(6.900420e-04 -9.441176e-05 2.520212e-04)
0.358985      	(9.539628e-02 1.189842e-01 8.667737e+02)	(9.466489e-02 1.190839e-01 8.667734e+02)	(7.313915e-04 -9.978014e-05 2.603557e-04)
0.363372      	(9.787558e-02 1.201861e-01 8.667717e+02)	(9.711681e-02 1.202883e-01 8.667714e+02)	(7.587712e-04 -1.022488e-04 2.652939e-04)
0.36832       	(1.013106e-01 1.222693e-01 8.667697e+02)	(1.005220e-01 1.223755e-01 8.667694e+02)	(7.886110e-04 -1.061703e-04 2.703641e-04)
0.373841      	(1.048222e-01 1.241248e-01 8.667670e+02)	(1.040014e-01 1.242349e-01 8.667668e+02)	(8.208190e-04 -1.100404e-04 2.757506e-04)
0.378908      	(1.075649e-01 1.258177e-01 8.667646e+02)	(1.067133e-01 1.259317e-01 8.667643e+02)	(8.515821e-04 -1.139374e-04 2.804438e-04)
0.384578      	(1.108530e-01 1.278331e-01 8.667617e+02)	(1.099671e-01 1.279517e-01 8.667615e+02)	(8.858783e-04 -1.186832e-04 2.854594e-04)
0.39119       	(1.145892e-01 1.300706e-01 8.667584e+02)	(1.136629e-01 1.301942e-01 8.667581e+02)	(9.262960e-04 -1.236340e-04 2.907277e-04)
0.398923      	(1.188512e-01 1.326440e-01 8.667543e+02)	(1.178770e-01 1.327738e-01 8.667540e+02)	(9.741262e-04 -1.297318e-04 2.962497e-04)
0.407654      	(1.234461e-01 1.355146e-01 8.667494e+02)	(1.224172e-01 1.356508e-01 8.667491e+02)	(1.028883e-03 -1.361814e-04 3.010847e-04)
0.416802      	(1.278931e-01 1.384030e-01 8.667441e+02)	(1.268058e-01 1.385452e-01 8.667438e+02)	(1.087333e-03 -1.422064e-04 3.052593e-04)
0.427147      	(1.328046e-01 1.417269e-01 8.667378e+02)	(1.316524e-01 1.418763e-01 8.667375e+02)	(1.152186e-03 -1.494332e-04 3.075628e-04)
0.429601      	(1.327923e-01 1.418822e-01 8.667356e+02)	(1.316243e-01 1.420326e-01 8.667353e+02)	(1.167977e-03 -1.504630e-04 3.082938e-04)
0.432299      	(1.343791e-01 1.428922e-01 8.667341e+02)	(1.331935e-01 1.430438e-01 8.667337e+02)	(1.185666e-03 -1.515657e-04 3.091151e-04)
0.435408      	(1.359586e-01 1.441990e-01 8.667320e+02)	(1.347520e-01 1.443525e-01 8.667317e+02)	(1.206622e-03 -1.535292e-04 3.099384e-04)
0.43914       	(1.372974e-01 1.450028e-01 8.667299e+02)	(1.360660e-01 1.451583e-01 8.667295e+02)	(1.231371e-03 -1.555606e-04 3.102351e-04)
0.443621      	(1.390264e-01 1.463526e-01 8.667270e+02)	(1.377661e-01 1.465108e-01 8.667266e+02)	(1.260364e-03 -1.582148e-04 3.095023e-04)
0.448734      	(1.407412e-01 1.476132e-01 8.667237e+02)	(1.394482e-01 1.477745e-01 8.667234e+02)	(1.292959e-03 -1.612967e-04 3.086280e-04)
0.454868      	(1.425742e-01 1.490851e-01 8.667198e+02)	(1.412422e-01 1.492494e-01 8.667195e+02)	(1.332078e-03 -1.643109e-04 3.082619e-04)
0.462223      	(1.446206e-01 1.508336e-01 8.667148e+02)	(1.432421e-01 1.510014e-01 8.667145e+02)	(1.378484e-03 -1.677875e-04 3.068594e-04)
0.47072       	(1.464921e-01 1.527173e-01 8.667090e+02)	(1.450609e-01 1.528892e-01 8.667087e+02)	(1.431168e-03 -1.718994e-04 3.042251e-04)
0.480337      	(1.481868e-01 1.545491e-01 8.667024e+02)	(1.466975e-01 1.547254e-01 8.667021e+02)	(1.489218e-03 -1.763252e-04 2.998972e-04)
0.491387      	(1.492887e-01 1.563281e-01 8.666947e+02)	(1.477343e-01 1.565092e-01 8.666944e+02)	(1.554437e-03 -1.810538e-04 2.934188e-04)
0.495773      	(1.487195e-01 1.562059e-01 8.666918e+02)	(1.471389e-01 1.563888e-01 8.666916e+02)	(1.580623e-03 -1.829115e-04 2.900096e-04)
0.500998      	(1.492716e-01 1.570602e-01 8.666881e+02)	(1.476611e-01 1.572444e-01 8.666878e+02)	(1.610518e-03 -1.842263e-04 2.862953e-04)
0.507111      	(1.492810e-01 1.575579e-01 8.666840e+02)	(1.476363e-01 1.577439e-01 8.666838e+02)	(1.644672e-03 -1.859869e-04 2.816735e-04)
0.512923      	(1.489612e-01 1.580503e-01 8.666803e+02)	(1.472844e-01 1.582389e-01 8.666801e+02)	(1.676741e-03 -1.886838e-04 2.755307e-04)
0.519551      	(1.484918e-01 1.584695e-01 8.666759e+02)	(1.467800e-01 1.586601e-01 8.666756e+02)	(1.711766e-03 -1.905468e-04 2.703266e-04)
0.526054      	(1.475345e-01 1.584654e-01 8.666717e+02)	(1.457894e-01 1.586574e-01 8.666714e+02)	(1.745113e-03 -1.919995e-04 2.647457e-04)
0.533389      	(1.462438e-01 1.585039e-01 8.666669e+02)	(1.444626e-01 1.586967e-01 8.666666e+02)	(1.781170e-03 -1.928144e-04 2.575110e-04)
0.541645      	(1.444471e-01 1.582223e-01 8.666617e+02)	(1.426271e-01 1.584158e-01 8.666615e+02)	(1.819929e-03 -1.935881e-04 2.485757e-04)
0.550991      	(1.419979e-01 1.577472e-01 8.666560e+02)	(1.401377e-01 1.579418e-01 8.666558e+02)	(1.860263e-03 -1.945530e-04 2.383423e-04)
0.557439      	(1.396470e-01 1.566718e-01 8.666526e+02)	(1.377595e-01 1.568669e-01 8.666523e+02)	(1.887521e-03 -1.951265e-04 2.303016e-04)
0.564458      	(1.374097e-01 1.561513e-01 8.666485e+02)	(1.354943e-01 1.563464e-01 8.666482e+02)	(1.915433e-03 -1.950893e-04 2.216435e-04)
0.568902      	(1.350686e-01 1.551584e-01 8.666465e+02)	(1.331356e-01 1.553531e-01 8.666463e+02)	(1.933010e-03 -1.947159e-04 2.157055e-04)
0.574209      	(1.331618e-01 1.544911e-01 8.666435e+02)	(1.312094e-01 1.546856e-01 8.666433e+02)	(1.952410e-03 -1.945378e-04 2.095178e-04)
0.579385      	(1.308905e-01 1.535668e-01 8.666409e+02)	(1.289190e-01 1.537612e-01 8.666407e+02)	(1.971523e-03 -1.944013e-04 2.043784e-04)
0.585209      	(1.283096e-01 1.524214e-01 8.666381e+02)	(1.263184e-01 1.526143e-01 8.666379e+02)	(1.991229e-03 -1.928680e-04 1.981487e-04)
0.590465      	(1.258887e-01 1.512114e-01 8.666359e+02)	(1.238810e-01 1.514036e-01 8.666357e+02)	(2.007677e-03 -1.921766e-04 1.922935e-04)
0.595856      	(1.232899e-01 1.500387e-01 8.666335e+02)	(1.212662e-01 1.502286e-01 8.666333e+02)	(2.023658e-03 -1.898885e-04 1.853770e-04)
0.601981      	(1.201821e-01 1.485953e-01 8.666309e+02)	(1.181424e-01 1.487842e-01 8.666307e+02)	(2.039649e-03 -1.888792e-04 1.787916e-04)
0.608995      	(1.165175e-01 1.467609e-01 8.666281e+02)	(1.144612e-01 1.469476e-01 8.666280e+02)	(2.056262e-03 -1.867025e-04 1.713954e-04)
0.616994      	(1.121732e-01 1.446107e-01 8.666251e+02)	(1.101000e-01 1.447946e-01 8.666249e+02)	(2.073120e-03 -1.838629e-04 1.641357e-04)
0.625217      	(1.074222e-01 1.421023e-01 8.666224e+02)	(1.053336e-01 1.422824e-01 8.666222e+02)	(2.088556e-03 -1.801163e-04 1.568891e-04)
0.634545      	(1.020294e-01 1.392243e-01 8.666195e+02)	(9.992605e-02 1.394003e-01 8.666193e+02)	(2.103330e-03 -1.760098e-04 1.497948e-04)
0.644939      	(9.589373e-02 1.357970e-01 8.666165e+02)	(9.377754e-02 1.359684e-01 8.666164e+02)	(2.116188e-03 -1.713590e-04 1.430650e-04)
0.653631      	(9.048182e-02 1.324812e-01 8.666145e+02)	(8.835790e-02 1.326478e-01 8.666144e+02)	(2.123912e-03 -1.666282e-04 1.385634e-04)
0.656242      	(8.820206e-02 1.304504e-01 8.666147e+02)	(8.607549e-02 1.306150e-01 8.666146e+02)	(2.126572e-03 -1.646313e-04 1.360187e-04)
0.659209      	(8.605968e-02 1.296214e-01 8.666138e+02)	(8.393063e-02 1.297841e-01 8.666136e+02)	(2.129047e-03 -1.627020e-04 1.340064e-04)
0.662359      	(8.424969e-02 1.285119e-01 8.666131e+02)	(8.211894e-02 1.286722e-01 8.666129e+02)	(2.130749e-03 -1.602790e-04 1.333469e-04)
0.66586       	(8.225198e-02 1.274043e-01 8.666122e+02)	(8.012013e-02 1.275624e-01 8.666121e+02)	(2.131845e-03 -1.581049e-04 1.313764e-04)
0.669807      	(7.981759e-02 1.259350e-01 8.666115e+02)	(7.768434e-02 1.260907e-01 8.666113e+02)	(2.133245e-03 -1.556448e-04 1.293692e-04)
0.674267      	(7.707698e-02 1.243126e-01 8.666106e+02)	(7.494210e-02 1.244658e-01 8.666105e+02)	(2.134885e-03 -1.531541e-04 1.279695e-04)
0.67925       	(7.393043e-02 1.223858e-01 8.666098e+02)	(7.179423e-02 1.225360e-01 8.666097e+02)	(2.136200e-03 -1.502045e-04 1.266573e-04)
0.684768      	(7.050973e-02 1.202858e-01 8.666089e+02)	(6.837306e-02 1.204329e-01 8.666088e+02)	(2.136668e-03 -1.471498e-04 1.258965e-04)
0.690977      	(6.660664e-02 1.178219e-01 8.666080e+02)	(6.447065e-02 1.179655e-01 8.666079e+02)	(2.135991e-03 -1.435615e-04 1.251346e-04)
0.696832      	(6.288813e-02 1.154694e-01 8.666073e+02)	(6.075348e-02 1.156093e-01 8.666072e+02)	(2.134653e-03 -1.398344e-04 1.244035e-04)
0.703432      	(5.873987e-02 1.127955e-01 8.666065e+02)	(5.660794e-02 1.129310e-01 8.666064e+02)	(2.131929e-03 -1.354963e-04 1.239019e-04)
0.71116       	(5.376230e-02 1.096625e-01 8.666056e+02)	(5.163465e-02 1.097923e-01 8.666054e+02)	(2.127647e-03 -1.298815e-04 1.247991e-04)
0.715857      	(5.073794e-02 1.076505e-01 8.666054e+02)	(4.861328e-02 1.077772e-01 8.666052e+02)	(2.124659e-03 -1.266947e-04 1.237171e-04)
0.721465      	(4.716023e-02 1.053843e-01 8.666048e+02)	(4.504076e-02 1.055075e-01 8.666047e+02)	(2.119478e-03 -1.231895e-04 1.247660e-04)
0.727757      	(4.317739e-02 1.028406e-01 8.666042e+02)	(4.106388e-02 1.029591e-01 8.666040e+02)	(2.113513e-03 -1.184105e-04 1.266997e-04)
0.73483       	(3.860758e-02 9.997455e-02 8.666035e+02)	(3.650193e-02 1.000877e-01 8.666034e+02)	(2.105652e-03 -1.131610e-04 1.286650e-04)
0.74297       	(3.346628e-02 9.669992e-02 8.666028e+02)	(3.137211e-02 9.680787e-02 8.666027e+02)	(2.094164e-03 -1.079541e-04 1.309049e-04)
0.752623      	(2.734072e-02 9.280633e-02 8.666021e+02)	(2.526224e-02 9.290807e-02 8.666020e+02)	(2.078479e-03 -1.017417e-04 1.336546e-04)
0.76404       	(2.000453e-02 8.822266e-02 8.666013e+02)	(1.794738e-02 8.831712e-02 8.666012e+02)	(2.057147e-03 -9.446239e-05 1.374785e-04)
0.776838      	(1.164847e-02 8.313440e-02 8.666004e+02)	(9.618697e-03 8.322117e-02 8.666002e+02)	(2.029772e-03 -8.676298e-05 1.418398e-04)
0.791867      	(1.665831e-03 7.718107e-02 8.665994e+02)	(-3.267424e-04 7.725879e-02 8.665992e+02)	(1.992573e-03 -7.771981e-05 1.480927e-04)
0.809328      	(-1.008838e-02 7.043064e-02 8.665983e+02)	(-1.203109e-02 7.049850e-02 8.665981e+02)	(1.942711e-03 -6.786087e-05 1.558196e-04)
0.813587      	(-1.281131e-02 6.914555e-02 8.665979e+02)	(-1.473976e-02 6.921077e-02 8.665977e+02)	(1.928450e-03 -6.521743e-05 1.571079e-04)
0.818643      	(-1.631626e-02 6.705851e-02 8.665979e+02)	(-1.822817e-02 6.712010e-02 8.665977e+02)	(1.911909e-03 -6.159082e-05 1.594210e-04)
0.824293      	(-1.990846e-02 6.519353e-02 8.665974e+02)	(-2.179970e-02 6.525211e-02 8.665972e+02)	(1.891241e-03 -5.858043e-05 1.617350e-04)
0.829998      	(-2.364802e-02 6.318233e-02 8.665971e+02)	(-2.551724e-02 6.323787e-02 8.665969e+02)	(1.869219e-03 -5.553993e-05 1.647314e-04)
0.836443      	(-2.796477e-02 6.081344e-02 8.665968e+02)	(-2.980825e-02 6.086518e-02 8.665966e+02)	(1.843476e-03 -5.174522e-05 1.681240e-04)
0.843891      	(-3.289178e-02 5.819575e-02 8.665965e+02)	(-3.470478e-02 5.824285e-02 8.665963e+02)	(1.813000e-03 -4.709932e-05 1.723325e-04)
0.84968       	(-3.648882e-02 5.640898e-02 8.665962e+02)	(-3.827686e-02 5.645337e-02 8.665960e+02)	(1.788034e-03 -4.438773e-05 1.752541e-04)
0.856124      	(-4.069163e-02 5.419208e-02 8.665960e+02)	(-4.245082e-02 5.423310e-02 8.665958e+02)	(1.759191e-03 -4.101602e-05 1.792877e-04)
0.86294       	(-4.498846e-02 5.196730e-02 8.665957e+02)	(-4.671610e-02 5.200411e-02 8.665955e+02)	(1.727635e-03 -3.680931e-05 1.839286e-04)
0.870545      	(-4.979259e-02 4.951568e-02 8.665955e+02)	(-5.148370e-02 4.954812e-02 8.665953e+02)	(1.691109e-03 -3.244737e-05 1.892932e-04)
0.879059      	(-5.509787e-02 4.681006e-02 8.665953e+02)	(-5.674651e-02 4.683838e-02 8.665951e+02)	(1.648644e-03 -2.831545e-05 1.960056e-04)
0.888801      	(-6.090345e-02 4.384033e-02 8.665951e+02)	(-6.250177e-02 4.386395e-02 8.665949e+02)	(1.598328e-03 -2.361906e-05 2.045245e-04)
0.899794      	(-6.713978e-02 4.070413e-02 8.665950e+02)	(-6.867926e-02 4.072195e-02 8.665948e+02)	(1.539478e-03 -1.782398e-05 2.153184e-04)
0.903666      	(-6.857974e-02 4.028837e-02 8.665947e+02)	(-7.009834e-02 4.030402e-02 8.665945e+02)	(1.518603e-03 -1.564243e-05 2.181320e-04)
0.908253      	(-7.125855e-02 3.887231e-02 8.665948e+02)	(-7.275155e-02 3.888557e-02 8.665946e+02)	(1.492998e-03 -1.326045e-05 2.226920e-04)
0.91376       	(-7.386773e-02 3.755462e-02 8.665946e+02)	(-7.532883e-02 3.756526e-02 8.665944e+02)	(1.461101e-03 -1.064164e-05 2.288134e-04)
0.916891      	(-7.514945e-02 3.696720e-02 8.665944e+02)	(-7.659237e-02 3.697630e-02 8.665942e+02)	(1.442919e-03 -9.101395e-06 2.326565e-04)
0.920473      	(-7.714314e-02 3.604558e-02 8.665945e+02)	(-7.856516e-02 3.605277e-02 8.665943e+02)	(1.422014e-03 -7.192092e-06 2.369878e-04)
0.924614      	(-7.853407e-02 3.524564e-02 8.665943e+02)	(-7.993116e-02 3.525096e-02 8.665940e+02)	(1.397092e-03 -5.327444e-06 2.422187e-04)
0.929381      	(-8.054878e-02 3.417471e-02 8.665943e+02)	(-8.191757e-02 3.417758e-02 8.665941e+02)	(1.368783e-03 -2.869780e-06 2.487647e-04)
0.934772      	(-8.244068e-02 3.320903e-02 8.665943e+02)	(-8.377713e-02 3.320954e-02 8.665940e+02)	(1.336453e-03 -5.115899e-07 2.565689e-04)
0.940795      	(-8.405810e-02 3.235979e-02 8.665941e+02)	(-8.535843e-02 3.235769e-02 8.665939e+02)	(1.300330e-03 2.101631e-06 2.657970e-04)
0.947549      	(-8.546256e-02 3.147517e-02 8.665941e+02)	(-8.672257e-02 3.147052e-02 8.665939e+02)	(1.260006e-03 4.651411e-06 2.766786e-04)
0.955138      	(-8.633967e-02 3.088417e-02 8.665940e+02)	(-8.755478e-02 3.087674e-02 8.665937e+02)	(1.215107e-03 7.430943e-06 2.907474e-04)
0.962727      	(-8.654348e-02 3.056286e-02 8.665939e+02)	(-8.771441e-02 3.055259e-02 8.665936e+02)	(1.170932e-03 1.026701e-05 3.062981e-04)
0.971465      	(-8.614960e-02 3.039747e-02 8.665936e+02)	(-8.727109e-02 3.038469e-02 8.665933e+02)	(1.121488e-03 1.277566e-05 3.259836e-04)
0.981902      	(-8.414690e-02 3.088337e-02 8.665934e+02)	(-8.521218e-02 3.086823e-02 8.665930e+02)	(1.065283e-03 1.513562e-05 3.529290e-04)
0.98529       	(-8.212619e-02 3.200026e-02 8.665917e+02)	(-8.317460e-02 3.198370e-02 8.665913e+02)	(1.048410e-03 1.655778e-05 3.608773e-04)
0.989092      	(-8.240942e-02 3.174468e-02 8.665916e+02)	(-8.343742e-02 3.172815e-02 8.665912e+02)	(1.027999e-03 1.653057e-05 3.715205e-04)
0.992806      	(-8.123426e-02 3.208521e-02 8.665911e+02)	(-8.224307e-02 3.206812e-02 8.665907e+02)	(1.008809e-03 1.708630e-05 3.834847e-04)
0.996151      	(-7.972885e-02 3.266604e-02 8.665906e+02)	(-8.072095e-02 3.264795e-02 8.665902e+02)	(9.921012e-04 1.809156e-05 3.939189e-04)
0.999899      	(-7.830598e-02 3.320339e-02 8.665903e+02)	(-7.927991e-02 3.318360e-02 8.665898e+02)	(9.739287e-04 1.978322e-05 4.047576e-04)
1.00419       	(-7.575874e-02 3.417444e-02 8.665897e+02)	(-7.671310e-02 3.415412e-02 8.665893e+02)	(9.543623e-04 2.031956e-05 4.181567e-04)
1.00929       	(-7.109216e-02 3.577484e-02 8.665892e+02)	(-7.202560e-02 3.575431e-02 8.665888e+02)	(9.334413e-04 2.053519e-05 4.353878e-04)
1.01367       	(-6.702163e-02 3.757353e-02 8.665882e+02)	(-6.793885e-02 3.755447e-02 8.665878e+02)	(9.172244e-04 1.905375e-05 4.512686e-04)
1.01869       	(-6.078168e-02 4.005517e-02 8.665875e+02)	(-6.168182e-02 4.003777e-02 8.665871e+02)	(9.001436e-04 1.740234e-05 4.712910e-04)
1.02445       	(-5.129763e-02 4.389236e-02 8.665866e+02)	(-5.218243e-02 4.387608e-02 8.665861e+02)	(8.847988e-04 1.628235e-05 4.958587e-04)
1.03111       	(-3.662919e-02 4.976455e-02 8.665854e+02)	(-3.750308e-02 4.975083e-02 8.665849e+02)	(8.738891e-04 1.372090e-05 5.281556e-04)
1.03892       	(-1.302096e-02 5.970150e-02 8.665837e+02)	(-1.389372e-02 5.969311e-02 8.665831e+02)	(8.727573e-04 8.394268e-06 5.716482e-04)
1.04818       	(2.335711e-02 7.503677e-02 8.665798e+02)	(2.246409e-02 7.503792e-02 8.665792e+02)	(8.930222e-04 -1.153874e-06 6.307997e-04)
1.05866       	(7.879504e-02 9.976352e-02 8.665717e+02)	(7.784398e-02 9.978070e-02 8.665710e+02)	(9.510568e-04 -1.718172e-05 7.072534e-04)
1.06906       	(1.368814e-01 1.269454e-01 8.665574e+02)	(1.358382e-01 1.269822e-01 8.665566e+02)	(1.043270e-03 -3.673169e-05 7.874032e-04)
1.07572       	(1.564618e-01 1.358133e-01 8.665456e+02)	(1.553505e-01 1.358646e-01 8.665447e+02)	(1.111256e-03 -5.130237e-05 8.382593e-04)
1.08255       	(1.853554e-01 1.480110e-01 8.665320e+02)	(1.841649e-01 1.480797e-01 8.665311e+02)	(1.190445e-03 -6.860529e-05 8.893042e-04)
1.09017       	(2.252613e-01 1.678564e-01 8.665119e+02)	(2.239695e-01 1.679469e-01 8.665110e+02)	(1.291760e-03 -9.058079e-05 9.433648e-04)
1.09688       	(2.623557e-01 1.872301e-01 8.664937e+02)	(2.609638e-01 1.873416e-01 8.664927e+02)	(1.391842e-03 -1.115390e-04 9.901845e-04)
1.10464       	(3.287721e-01 2.226881e-01 8.664652e+02)	(3.272420e-01 2.228262e-01 8.664642e+02)	(1.530073e-03 -1.381484e-04 1.046035e-03)
1.11335       	(4.189142e-01 2.702375e-01 8.664288e+02)	(4.171942e-01 2.704090e-01 8.664277e+02)	(1.719999e-03 -1.714545e-04 1.112675e-03)
1.12203       	(5.260805e-01 3.263675e-01 8.663899e+02)	(5.241299e-01 3.265767e-01 8.663887e+02)	(1.950576e-03 -2.091700e-04 1.186735e-03)
1.13002       	(6.502165e-01 3.918584e-01 8.663562e+02)	(6.480074e-01 3.921059e-01 8.663549e+02)	(2.209089e-03 -2.474247e-04 1.270181e-03)
1.13732       	(7.711578e-01 4.528985e-01 8.663331e+02)	(7.686719e-01 4.531839e-01 8.663317e+02)	(2.485833e-03 -2.854317e-04 1.364212e-03)
1.14398       	(8.935756e-01 5.147362e-01 8.663158e+02)	(8.907994e-01 5.150593e-01 8.663143e+02)	(2.776282e-03 -3.230687e-04 1.466783e-03)
1.14871       	(9.722139e-01 5.598640e-01 8.663133e+02)	(9.692074e-01 5.602114e-01 8.663117e+02)	(3.006466e-03 -3.473738e-04 1.550152e-03)
1.154         	(1.126288e+00 6.521005e-01 8.662792e+02)	(1.122992e+00 6.524723e-01 8.662776e+02)	(3.295908e-03 -3.718504e-04 1.647295e-03)
1.15925       	(1.324340e+00 7.665980e-01 8.662376e+02)	(1.320711e+00 7.669945e-01 8.662359e+02)	(3.629619e-03 -3.965050e-04 1.746572e-03)
1.16412       	(1.600692e+00 9.282528e-01 8.661906e+02)	(1.596688e+00 9.286713e-01 8.661888e+02)	(4.004024e-03 -4.185073e-04 1.845667e-03)
1.16865       	(1.939401e+00 1.127414e+00 8.661471e+02)	(1.934980e+00 1.127853e+00 8.661451e+02)	(4.421102e-03 -4.386726e-04 1.947823e-03)
1.17285       	(2.277117e+00 1.324465e+00 8.661215e+02)	(2.272251e+00 1.324923e+00 8.661195e+02)	(4.866320e-03 -4.579024e-04 2.058302e-03)
1.17676       	(2.542797e+00 1.477989e+00 8.661144e+02)	(2.537483e+00 1.478466e+00 8.661122e+02)	(5.313257e-03 -4.775061e-04 2.175950e-03)
1.18038       	(2.726224e+00 1.585042e+00 8.661229e+02)	(2.720484e+00 1.585540e+00 8.661206e+02)	(5.740215e-03 -4.985420e-04 2.299856e-03)
1.18374       	(2.762491e+00 1.610398e+00 8.661445e+02)	(2.756371e+00 1.610919e+00 8.661420e+02)	(6.120268e-03 -5.209797e-04 2.423202e-03)
1.18689       	(2.719313e+00 1.568273e+00 8.661372e+02)	(2.712859e+00 1.568822e+00 8.661347e+02)	(6.454213e-03 -5.491502e-04 2.534989e-03)
1.18984       	(2.657605e+00 1.542474e+00 8.661170e+02)	(2.650858e+00 1.543050e+00 8.661143e+02)	(6.746362e-03 -5.755545e-04 2.632703e-03)
1.19264       	(2.529440e+00 1.476647e+00 8.660903e+02)	(2.522443e+00 1.477249e+00 8.660876e+02)	(6.996973e-03 -6.011557e-04 2.713250e-03)
1.19532       	(2.303610e+00 1.347100e+00 8.660777e+02)	(2.296410e+00 1.347729e+00 8.660749e+02)	(7.200711e-03 -6.290329e-04 2.776602e-03)
1.1979        	(2.010661e+00 1.170250e+00 8.660701e+02)	(2.003307e+00 1.170913e+00 8.660673e+02)	(7.354364e-03 -6.625911e-04 2.823373e-03)
1.20041       	(1.640872e+00 9.492939e-01 8.660921e+02)	(1.633422e+00 9.499962e-01 8.660892e+02)	(7.449773e-03 -7.022561e-04 2.860887e-03)
1.20288       	(1.265782e+00 7.436653e-01 8.660949e+02)	(1.258293e+00 7.444074e-01 8.660920e+02)	(7.489073e-03 -7.421711e-04 2.888781e-03)
1.20534       	(9.470365e-01 5.937579e-01 8.660258e+02)	(9.395542e-01 5.945345e-01 8.660229e+02)	(7.482293e-03 -7.766877e-04 2.898345e-03)
1.20782       	(7.580776e-01 5.293201e-01 8.659151e+02)	(7.506274e-01 5.301221e-01 8.659122e+02)	(7.450129e-03 -8.019204e-04 2.887397e-03)
1.21035       	(6.943410e-01 5.133142e-01 8.657964e+02)	(6.869224e-01 5.141357e-01 8.657935e+02)	(7.418558e-03 -8.214713e-04 2.858513e-03)
1.21297       	(6.154749e-01 4.750073e-01 8.656951e+02)	(6.080890e-01 4.758463e-01 8.656923e+02)	(7.385850e-03 -8.390028e-04 2.810304e-03)
1.21572       	(4.943114e-01 3.732074e-01 8.656327e+02)	(4.869608e-01 3.740704e-01 8.656299e+02)	(7.350584e-03 -8.629917e-04 2.746333e-03)
1.21864       	(4.746640e-01 3.425977e-01 8.656037e+02)	(4.673367e-01 3.434886e-01 8.656011e+02)	(7.327266e-03 -8.909099e-04 2.680523e-03)
1.22177       	(4.033772e-01 2.854979e-01 8.655842e+02)	(3.960618e-01 2.864174e-01 8.655816e+02)	(7.315418e-03 -9.195193e-04 2.611088e-03)
1.22514       	(4.026825e-01 2.967778e-01 8.655331e+02)	(3.953402e-01 2.977101e-01 8.655306e+02)	(7.342303e-03 -9.323344e-04 2.530915e-03)
1.22876       	(3.528640e-01 2.928187e-01 8.654423e+02)	(3.454425e-01 2.937372e-01 8.654399e+02)	(7.421552e-03 -9.184473e-04 2.415268e-03)
1.23258       	(3.431751e-01 3.418120e-01 8.653441e+02)	(3.356105e-01 3.426860e-01 8.653418e+02)	(7.564594e-03 -8.739719e-04 2.262078e-03)
1.23665       	(3.121127e-01 3.748447e-01 8.652502e+02)	(3.043740e-01 3.756577e-01 8.652481e+02)	(7.738658e-03 -8.130040e-04 2.078785e-03)