# y+ ()       
# Time        	patch         	min           	max           	average       
500           	bottom	3.057743e-01	5.758845e+01	1.508652e+01
500           	cylinder	1.640122e-02	3.773701e+00	7.981982e-01
500           	frontAndBack	4.202688e+00	3.427619e+01	2.055805e+01
1000          	bottom	2.901636e-01	5.834050e+01	1.471076e+01
1000          	cylinder	1.786474e-02	3.540893e+00	7.715096e-01
1000          	frontAndBack	4.202099e+00	3.495377e+01	2.082868e+01
