# Force       
# CofR        : (0.000000e+00 0.000000e+00 0.000000e+00)
#
# Time        	(total_x total_y total_z)	(pressure_x pressure_y pressure_z)	(viscous_x viscous_y viscous_z)
2530          	(3.406669e-01 -1.448453e-05 8.722186e-02)	(3.344791e-01 -1.470499e-05 8.655521e-02)	(6.187720e-03 2.204606e-07 6.666504e-04)
2530.01       	(3.405572e-01 -1.427343e-05 8.693047e-02)	(3.343707e-01 -1.449077e-05 8.626429e-02)	(6.186465e-03 2.173386e-07 6.661721e-04)
2530.01       	(3.404996e-01 -1.552682e-05 8.690800e-02)	(3.343142e-01 -1.574196e-05 8.624255e-02)	(6.185413e-03 2.151455e-07 6.654553e-04)
2530.01       	(3.404715e-01 -1.606542e-05 8.687940e-02)	(3.342869e-01 -1.627788e-05 8.621466e-02)	(6.184574e-03 2.124534e-07 6.647319e-04)
2530.01       	(3.404622e-01 -1.621204e-05 8.686780e-02)	(3.342783e-01 -1.642162e-05 8.620372e-02)	(6.183901e-03 2.095794e-07 6.640811e-04)
2530.02       	(3.404482e-01 -1.616567e-05 8.685869e-02)	(3.342649e-01 -1.637245e-05 8.619518e-02)	(6.183350e-03 2.067804e-07 6.635103e-04)
2530.02       	(3.404414e-01 -1.627943e-05 8.685221e-02)	(3.342586e-01 -1.648332e-05 8.618920e-02)	(6.182890e-03 2.038939e-07 6.630120e-04)
2530.02       	(3.404346e-01 -1.624196e-05 8.684821e-02)	(3.342521e-01 -1.644301e-05 8.618563e-02)	(6.182499e-03 2.010593e-07 6.625744e-04)
2530.02       	(3.404299e-01 -1.628876e-05 8.684408e-02)	(3.342478e-01 -1.648692e-05 8.618190e-02)	(6.182163e-03 1.981531e-07 6.621855e-04)
2530.03       	(3.404267e-01 -1.624852e-05 8.684334e-02)	(3.342448e-01 -1.644380e-05 8.618150e-02)	(6.181872e-03 1.952708e-07 6.618375e-04)
2530.03       	(3.404246e-01 -1.627247e-05 8.684176e-02)	(3.342429e-01 -1.646478e-05 8.618024e-02)	(6.181618e-03 1.923111e-07 6.615227e-04)
2530.03       	(3.404233e-01 -1.623092e-05 8.684319e-02)	(3.342419e-01 -1.642029e-05 8.618195e-02)	(6.181396e-03 1.893665e-07 6.612373e-04)
2530.03       	(3.404227e-01 -1.624317e-05 8.684344e-02)	(3.342415e-01 -1.642954e-05 8.618247e-02)	(6.181199e-03 1.863635e-07 6.609767e-04)
2530.04       	(3.404225e-01 -1.620019e-05 8.684616e-02)	(3.342414e-01 -1.638356e-05 8.618542e-02)	(6.181024e-03 1.833677e-07 6.607385e-04)
2530.04       	(3.404231e-01 -1.618902e-05 8.684781e-02)	(3.342422e-01 -1.636935e-05 8.618727e-02)	(6.180873e-03 1.803248e-07 6.605465e-04)
2530.04       	(3.404232e-01 -1.614948e-05 8.685091e-02)	(3.342425e-01 -1.632674e-05 8.619055e-02)	(6.180737e-03 1.772647e-07 6.603646e-04)
2530.04       	(3.404234e-01 -1.614301e-05 8.685254e-02)	(3.342428e-01 -1.631714e-05 8.619235e-02)	(6.180613e-03 1.741321e-07 6.601918e-04)
2530.05       	(3.404240e-01 -1.611575e-05 8.685548e-02)	(3.342435e-01 -1.628673e-05 8.619546e-02)	(6.180499e-03 1.709821e-07 6.600282e-04)
2530.05       	(3.404247e-01 -1.610129e-05 8.685729e-02)	(3.342443e-01 -1.626905e-05 8.619742e-02)	(6.180393e-03 1.677670e-07 6.598728e-04)
2530.05       	(3.404253e-01 -1.605837e-05 8.685994e-02)	(3.342450e-01 -1.622290e-05 8.620021e-02)	(6.180298e-03 1.645301e-07 6.597280e-04)
2530.05       	(3.404265e-01 -1.604973e-05 8.686190e-02)	(3.342463e-01 -1.621096e-05 8.620231e-02)	(6.180207e-03 1.612270e-07 6.595893e-04)
2530.06       	(3.404279e-01 -1.599765e-05 8.686474e-02)	(3.342478e-01 -1.615555e-05 8.620528e-02)	(6.180121e-03 1.578932e-07 6.594577e-04)
2530.06       	(3.404294e-01 -1.600981e-05 8.686673e-02)	(3.342494e-01 -1.616430e-05 8.620740e-02)	(6.180040e-03 1.544874e-07 6.593325e-04)
2530.06       	(3.404309e-01 -1.594404e-05 8.686975e-02)	(3.342510e-01 -1.609510e-05 8.621053e-02)	(6.179963e-03 1.510579e-07 6.592144e-04)
2530.07       	(3.404328e-01 -1.594885e-05 8.687184e-02)	(3.342529e-01 -1.609641e-05 8.621274e-02)	(6.179890e-03 1.475553e-07 6.591030e-04)
2530.07       	(3.404344e-01 -1.590101e-05 8.687523e-02)	(3.342546e-01 -1.604503e-05 8.621624e-02)	(6.179821e-03 1.440232e-07 6.589991e-04)
2530.07       	(3.404365e-01 -1.590435e-05 8.687740e-02)	(3.342567e-01 -1.604477e-05 8.621850e-02)	(6.179756e-03 1.404174e-07 6.589021e-04)
2530.07       	(3.404382e-01 -1.584673e-05 8.688115e-02)	(3.342586e-01 -1.598352e-05 8.622234e-02)	(6.179695e-03 1.367874e-07 6.588131e-04)
2530.08       	(3.404405e-01 -1.585007e-05 8.688340e-02)	(3.342608e-01 -1.598316e-05 8.622467e-02)	(6.179638e-03 1.330921e-07 6.587313e-04)
2530.08       	(3.404423e-01 -1.580826e-05 8.688763e-02)	(3.342627e-01 -1.593763e-05 8.622897e-02)	(6.179584e-03 1.293740e-07 6.586579e-04)
2530.08       	(3.404445e-01 -1.579533e-05 8.688990e-02)	(3.342650e-01 -1.592093e-05 8.623131e-02)	(6.179534e-03 1.256007e-07 6.585919e-04)
2530.08       	(3.404462e-01 -1.574838e-05 8.689447e-02)	(3.342667e-01 -1.587018e-05 8.623593e-02)	(6.179487e-03 1.218017e-07 6.585343e-04)
2530.09       	(3.404485e-01 -1.577510e-05 8.689688e-02)	(3.342690e-01 -1.589305e-05 8.623840e-02)	(6.179443e-03 1.179552e-07 6.584841e-04)
2530.09       	(3.404500e-01 -1.571775e-05 8.690169e-02)	(3.342706e-01 -1.583182e-05 8.624325e-02)	(6.179402e-03 1.140715e-07 6.584421e-04)
2530.09       	(3.404521e-01 -1.569454e-05 8.690427e-02)	(3.342727e-01 -1.580470e-05 8.624586e-02)	(6.179365e-03 1.101625e-07 6.584070e-04)
2530.09       	(3.404535e-01 -1.567636e-05 8.690919e-02)	(3.342742e-01 -1.578258e-05 8.625082e-02)	(6.179330e-03 1.062186e-07 6.583797e-04)
2530.1        	(3.404555e-01 -1.563435e-05 8.691200e-02)	(3.342762e-01 -1.573661e-05 8.625364e-02)	(6.179298e-03 1.022625e-07 6.583588e-04)
2530.1        	(3.404569e-01 -1.562270e-05 8.691701e-02)	(3.342776e-01 -1.572097e-05 8.625866e-02)	(6.179268e-03 9.827295e-08 6.583447e-04)
2530.1        	(3.404586e-01 -1.560550e-05 8.691997e-02)	(3.342793e-01 -1.569976e-05 8.626164e-02)	(6.179241e-03 9.425843e-08 6.583363e-04)
2530.1        	(3.404597e-01 -1.562603e-05 8.692486e-02)	(3.342805e-01 -1.571625e-05 8.626652e-02)	(6.179216e-03 9.021781e-08 6.583339e-04)
2530.11       	(3.404611e-01 -1.560270e-05 8.692797e-02)	(3.342819e-01 -1.568887e-05 8.626963e-02)	(6.179193e-03 8.616833e-08 6.583362e-04)
2530.11       	(3.404619e-01 -1.558821e-05 8.693292e-02)	(3.342827e-01 -1.567031e-05 8.627457e-02)	(6.179171e-03 8.209356e-08 6.583437e-04)
2530.11       	(3.404630e-01 -1.555780e-05 8.693612e-02)	(3.342838e-01 -1.563581e-05 8.627777e-02)	(6.179152e-03 7.801038e-08 6.583550e-04)
2530.11       	(3.404635e-01 -1.554007e-05 8.694090e-02)	(3.342843e-01 -1.561397e-05 8.628253e-02)	(6.179133e-03 7.390602e-08 6.583704e-04)
2530.12       	(3.404643e-01 -1.549408e-05 8.694414e-02)	(3.342851e-01 -1.556387e-05 8.628575e-02)	(6.179117e-03 6.979106e-08 6.583887e-04)
2530.12       	(3.404645e-01 -1.548414e-05 8.694863e-02)	(3.342854e-01 -1.554979e-05 8.629022e-02)	(6.179101e-03 6.565240e-08 6.584103e-04)
2530.12       	(3.404650e-01 -1.545338e-05 8.695202e-02)	(3.342859e-01 -1.551489e-05 8.629359e-02)	(6.179087e-03 6.150862e-08 6.584341e-04)
2530.12       	(3.404649e-01 -1.545206e-05 8.695613e-02)	(3.342858e-01 -1.550940e-05 8.629767e-02)	(6.179074e-03 5.734146e-08 6.584600e-04)
2530.13       	(3.404651e-01 -1.540434e-05 8.695964e-02)	(3.342860e-01 -1.545751e-05 8.630115e-02)	(6.179062e-03 5.316574e-08 6.584876e-04)
2530.13       	(3.404647e-01 -1.540662e-05 8.696329e-02)	(3.342856e-01 -1.545559e-05 8.630477e-02)	(6.179052e-03 4.896578e-08 6.585164e-04)
2530.13       	(3.404646e-01 -1.537685e-05 8.696692e-02)	(3.342856e-01 -1.542161e-05 8.630837e-02)	(6.179042e-03 4.475985e-08 6.585463e-04)
2530.14       	(3.404640e-01 -1.534961e-05 8.697015e-02)	(3.342849e-01 -1.539015e-05 8.631158e-02)	(6.179033e-03 4.053735e-08 6.585766e-04)
2530.14       	(3.404851e-01 -1.484534e-05 8.696717e-02)	(3.343063e-01 -1.488105e-05 8.630871e-02)	(6.178803e-03 3.571663e-08 6.584587e-04)
2530.14       	(3.404865e-01 -1.499977e-05 8.697082e-02)	(3.343080e-01 -1.503000e-05 8.631254e-02)	(6.178445e-03 3.022652e-08 6.582806e-04)
2530.15       	(3.404783e-01 -1.509141e-05 8.696583e-02)	(3.343003e-01 -1.511547e-05 8.630784e-02)	(6.178035e-03 2.405661e-08 6.579902e-04)
2530.15       	(3.404742e-01 -1.502524e-05 8.696478e-02)	(3.342966e-01 -1.504250e-05 8.630709e-02)	(6.177601e-03 1.725897e-08 6.576916e-04)
2530.16       	(3.404700e-01 -1.509434e-05 8.696571e-02)	(3.342929e-01 -1.510411e-05 8.630833e-02)	(6.177161e-03 9.774016e-09 6.573868e-04)
2530.16       	(3.404647e-01 -1.504597e-05 8.697294e-02)	(3.342879e-01 -1.504823e-05 8.631576e-02)	(6.176863e-03 2.253330e-09 6.571809e-04)
2530.17       	(3.404603e-01 -1.501353e-05 8.698032e-02)	(3.342837e-01 -1.500819e-05 8.632325e-02)	(6.176627e-03 -5.339586e-09 6.570641e-04)
2530.17       	(3.404561e-01 -1.497937e-05 8.698770e-02)	(3.342797e-01 -1.496638e-05 8.633072e-02)	(6.176426e-03 -1.298991e-08 6.569881e-04)
2530.18       	(3.404525e-01 -1.495181e-05 8.699409e-02)	(3.342762e-01 -1.493114e-05 8.633715e-02)	(6.176252e-03 -2.066880e-08 6.569397e-04)
2530.18       	(3.404487e-01 -1.491503e-05 8.700041e-02)	(3.342726e-01 -1.488666e-05 8.634349e-02)	(6.176102e-03 -2.837038e-08 6.569134e-04)
2530.19       	(3.404451e-01 -1.486922e-05 8.700594e-02)	(3.342691e-01 -1.483314e-05 8.634904e-02)	(6.175974e-03 -3.607513e-08 6.569044e-04)
2530.19       	(3.404416e-01 -1.481214e-05 8.701118e-02)	(3.342658e-01 -1.476840e-05 8.635427e-02)	(6.175865e-03 -4.374539e-08 6.569078e-04)
2530.2        	(3.404383e-01 -1.479372e-05 8.701598e-02)	(3.342625e-01 -1.474233e-05 8.635906e-02)	(6.175776e-03 -5.139442e-08 6.569192e-04)
2530.2        	(3.404351e-01 -1.477501e-05 8.702071e-02)	(3.342594e-01 -1.471599e-05 8.636378e-02)	(6.175703e-03 -5.902421e-08 6.569353e-04)
2530.21       	(3.404320e-01 -1.472868e-05 8.702527e-02)	(3.342564e-01 -1.466209e-05 8.636831e-02)	(6.175644e-03 -6.659090e-08 6.569534e-04)
2530.21       	(3.404291e-01 -1.465944e-05 8.702989e-02)	(3.342535e-01 -1.458537e-05 8.637292e-02)	(6.175597e-03 -7.407364e-08 6.569716e-04)
2530.22       	(3.404264e-01 -1.462012e-05 8.703446e-02)	(3.342508e-01 -1.453861e-05 8.637747e-02)	(6.175557e-03 -8.150895e-08 6.569880e-04)
2530.22       	(3.404237e-01 -1.458682e-05 8.703918e-02)	(3.342482e-01 -1.449792e-05 8.638218e-02)	(6.175524e-03 -8.889869e-08 6.570020e-04)
2530.23       	(3.404212e-01 -1.453981e-05 8.704389e-02)	(3.342457e-01 -1.444361e-05 8.638687e-02)	(6.175494e-03 -9.620700e-08 6.570126e-04)
2530.23       	(3.404187e-01 -1.449783e-05 8.704876e-02)	(3.342433e-01 -1.439435e-05 8.639174e-02)	(6.175467e-03 -1.034716e-07 6.570198e-04)
2530.24       	(3.404165e-01 -1.447171e-05 8.705374e-02)	(3.342410e-01 -1.436100e-05 8.639672e-02)	(6.175440e-03 -1.107122e-07 6.570236e-04)
2530.24       	(3.404143e-01 -1.442268e-05 8.705894e-02)	(3.342389e-01 -1.430479e-05 8.640192e-02)	(6.175412e-03 -1.178891e-07 6.570243e-04)
2530.25       	(3.404123e-01 -1.436983e-05 8.706424e-02)	(3.342370e-01 -1.424481e-05 8.640722e-02)	(6.175384e-03 -1.250199e-07 6.570223e-04)
2530.25       	(3.404107e-01 -1.433748e-05 8.707004e-02)	(3.342354e-01 -1.420537e-05 8.641302e-02)	(6.175355e-03 -1.321056e-07 6.570183e-04)
2530.26       	(3.404092e-01 -1.427892e-05 8.707585e-02)	(3.342339e-01 -1.413980e-05 8.641884e-02)	(6.175325e-03 -1.391246e-07 6.570128e-04)
2530.26       	(3.404077e-01 -1.423956e-05 8.708185e-02)	(3.342324e-01 -1.409347e-05 8.642485e-02)	(6.175293e-03 -1.460931e-07 6.570058e-04)
2530.27       	(3.404077e-01 -1.419333e-05 8.708746e-02)	(3.342324e-01 -1.404035e-05 8.643046e-02)	(6.175260e-03 -1.529744e-07 6.569997e-04)
2530.28       	(3.404053e-01 -1.419215e-05 8.709415e-02)	(3.342301e-01 -1.403228e-05 8.643716e-02)	(6.175226e-03 -1.598701e-07 6.569941e-04)
2530.28       	(3.404062e-01 -1.413772e-05 8.709985e-02)	(3.342310e-01 -1.397104e-05 8.644286e-02)	(6.175192e-03 -1.666781e-07 6.569913e-04)
2530.29       	(3.404039e-01 -1.406490e-05 8.710718e-02)	(3.342288e-01 -1.389144e-05 8.645019e-02)	(6.175156e-03 -1.734536e-07 6.569915e-04)
2530.29       	(3.404056e-01 -1.402143e-05 8.711296e-02)	(3.342304e-01 -1.384129e-05 8.645596e-02)	(6.175120e-03 -1.801392e-07 6.569958e-04)
2530.3        	(3.404030e-01 -1.400079e-05 8.712044e-02)	(3.342279e-01 -1.381396e-05 8.646343e-02)	(6.175083e-03 -1.868298e-07 6.570049e-04)
2530.3        	(3.404050e-01 -1.395621e-05 8.712580e-02)	(3.342300e-01 -1.376276e-05 8.646878e-02)	(6.175046e-03 -1.934525e-07 6.570181e-04)
2530.31       	(3.404025e-01 -1.391751e-05 8.713363e-02)	(3.342275e-01 -1.371744e-05 8.647659e-02)	(6.175008e-03 -2.000678e-07 6.570380e-04)
2530.31       	(3.404051e-01 -1.388234e-05 8.713868e-02)	(3.342302e-01 -1.367573e-05 8.648161e-02)	(6.174972e-03 -2.066139e-07 6.570618e-04)
2530.32       	(3.404026e-01 -1.385034e-05 8.714665e-02)	(3.342277e-01 -1.363720e-05 8.648955e-02)	(6.174936e-03 -2.131416e-07 6.570931e-04)
2530.32       	(3.404058e-01 -1.379870e-05 8.715123e-02)	(3.342309e-01 -1.357907e-05 8.649411e-02)	(6.174901e-03 -2.196282e-07 6.571277e-04)
2530.33       	(3.404032e-01 -1.377177e-05 8.715923e-02)	(3.342283e-01 -1.354567e-05 8.650206e-02)	(6.174867e-03 -2.261037e-07 6.571703e-04)
2530.33       	(3.404066e-01 -1.372729e-05 8.716312e-02)	(3.342318e-01 -1.349477e-05 8.650591e-02)	(6.174835e-03 -2.325159e-07 6.572149e-04)
2530.34       	(3.404039e-01 -1.365912e-05 8.717069e-02)	(3.342291e-01 -1.342025e-05 8.651343e-02)	(6.174803e-03 -2.388714e-07 6.572671e-04)
2530.34       	(3.404074e-01 -1.363076e-05 8.717355e-02)	(3.342326e-01 -1.338557e-05 8.651623e-02)	(6.174774e-03 -2.451892e-07 6.573195e-04)
2530.35       	(3.404047e-01 -1.363242e-05 8.718060e-02)	(3.342299e-01 -1.338096e-05 8.652322e-02)	(6.174745e-03 -2.514618e-07 6.573790e-04)
2530.35       	(3.404053e-01 -1.357852e-05 8.718465e-02)	(3.342306e-01 -1.332075e-05 8.652721e-02)	(6.174718e-03 -2.577670e-07 6.574408e-04)
2530.36       	(3.404056e-01 -1.351436e-05 8.718847e-02)	(3.342309e-01 -1.325037e-05 8.653097e-02)	(6.174692e-03 -2.639889e-07 6.575042e-04)
2530.36       	(3.404057e-01 -1.347764e-05 8.719138e-02)	(3.342310e-01 -1.320746e-05 8.653381e-02)	(6.174668e-03 -2.701815e-07 6.575683e-04)
2530.37       	(3.404060e-01 -1.349890e-05 8.719420e-02)	(3.342314e-01 -1.322252e-05 8.653657e-02)	(6.174645e-03 -2.763805e-07 6.576329e-04)
2530.37       	(3.404063e-01 -1.343157e-05 8.719620e-02)	(3.342317e-01 -1.314906e-05 8.653851e-02)	(6.174625e-03 -2.825117e-07 6.576970e-04)
2530.38       	(3.404064e-01 -1.338443e-05 8.719781e-02)	(3.342318e-01 -1.309583e-05 8.654005e-02)	(6.174606e-03 -2.885993e-07 6.577601e-04)
2530.38       	(3.404063e-01 -1.336918e-05 8.719856e-02)	(3.342317e-01 -1.307451e-05 8.654074e-02)	(6.174588e-03 -2.946755e-07 6.578213e-04)
2530.39       	(3.404062e-01 -1.332591e-05 8.719913e-02)	(3.342317e-01 -1.302524e-05 8.654124e-02)	(6.174571e-03 -3.006724e-07 6.578805e-04)
2530.39       	(3.404058e-01 -1.330341e-05 8.719875e-02)	(3.342312e-01 -1.299676e-05 8.654081e-02)	(6.174555e-03 -3.066488e-07 6.579367e-04)
2530.4        	(3.404052e-01 -1.317053e-05 8.719780e-02)	(3.342307e-01 -1.285801e-05 8.653981e-02)	(6.174540e-03 -3.125193e-07 6.579895e-04)
2530.4        	(3.404043e-01 -1.321002e-05 8.719616e-02)	(3.342297e-01 -1.289159e-05 8.653812e-02)	(6.174524e-03 -3.184340e-07 6.580383e-04)
2530.41       	(3.404032e-01 -1.316153e-05 8.719418e-02)	(3.342287e-01 -1.283723e-05 8.653610e-02)	(6.174508e-03 -3.242965e-07 6.580830e-04)
2530.41       	(3.404019e-01 -1.312553e-05 8.719150e-02)	(3.342274e-01 -1.279538e-05 8.653337e-02)	(6.174491e-03 -3.301522e-07 6.581232e-04)
2530.42       	(3.404004e-01 -1.313146e-05 8.718860e-02)	(3.342260e-01 -1.279546e-05 8.653044e-02)	(6.174473e-03 -3.359994e-07 6.581589e-04)
2530.43       	(3.403988e-01 -1.307183e-05 8.718502e-02)	(3.342243e-01 -1.273003e-05 8.652683e-02)	(6.174454e-03 -3.417979e-07 6.581897e-04)
2530.43       	(3.403970e-01 -1.302115e-05 8.718118e-02)	(3.342226e-01 -1.267358e-05 8.652296e-02)	(6.174432e-03 -3.475720e-07 6.582157e-04)
2530.44       	(3.403951e-01 -1.298276e-05 8.717688e-02)	(3.342207e-01 -1.262946e-05 8.651864e-02)	(6.174408e-03 -3.533008e-07 6.582366e-04)
2530.44       	(3.403930e-01 -1.294600e-05 8.717241e-02)	(3.342186e-01 -1.258698e-05 8.651416e-02)	(6.174381e-03 -3.590186e-07 6.582526e-04)
2530.45       	(3.403907e-01 -1.293763e-05 8.716764e-02)	(3.342164e-01 -1.257287e-05 8.650938e-02)	(6.174352e-03 -3.647600e-07 6.582638e-04)
2530.45       	(3.403884e-01 -1.291407e-05 8.716269e-02)	(3.342141e-01 -1.254357e-05 8.650442e-02)	(6.174319e-03 -3.705028e-07 6.582704e-04)
2530.46       	(3.403858e-01 -1.286644e-05 8.715749e-02)	(3.342116e-01 -1.249023e-05 8.649921e-02)	(6.174282e-03 -3.762125e-07 6.582723e-04)
2530.46       	(3.403833e-01 -1.284227e-05 8.715210e-02)	(3.342090e-01 -1.246038e-05 8.649383e-02)	(6.174241e-03 -3.818858e-07 6.582696e-04)
2530.47       	(3.403805e-01 -1.281445e-05 8.714653e-02)	(3.342063e-01 -1.242690e-05 8.648827e-02)	(6.174197e-03 -3.875501e-07 6.582625e-04)
2530.47       	(3.403777e-01 -1.279640e-05 8.714100e-02)	(3.342036e-01 -1.240318e-05 8.648275e-02)	(6.174148e-03 -3.932199e-07 6.582514e-04)
2530.48       	(3.403747e-01 -1.277755e-05 8.713527e-02)	(3.342006e-01 -1.237867e-05 8.647703e-02)	(6.174094e-03 -3.988850e-07 6.582363e-04)
2530.48       	(3.403718e-01 -1.272409e-05 8.712960e-02)	(3.341978e-01 -1.231958e-05 8.647138e-02)	(6.174036e-03 -4.045057e-07 6.582176e-04)
2530.49       	(3.403688e-01 -1.267637e-05 8.712379e-02)	(3.341948e-01 -1.226630e-05 8.646559e-02)	(6.173974e-03 -4.100704e-07 6.581955e-04)
2530.49       	(3.403657e-01 -1.266412e-05 8.711796e-02)	(3.341918e-01 -1.224845e-05 8.645979e-02)	(6.173907e-03 -4.156680e-07 6.581700e-04)
2530.5        	(3.403626e-01 -1.264266e-05 8.711214e-02)	(3.341887e-01 -1.222142e-05 8.645400e-02)	(6.173835e-03 -4.212351e-07 6.581415e-04)
2530.5        	(3.403594e-01 -1.260509e-05 8.710632e-02)	(3.341857e-01 -1.217830e-05 8.644820e-02)	(6.173759e-03 -4.267880e-07 6.581103e-04)
2530.51       	(3.403563e-01 -1.255264e-05 8.710070e-02)	(3.341827e-01 -1.212032e-05 8.644263e-02)	(6.173679e-03 -4.323138e-07 6.580768e-04)
2530.51       	(3.403532e-01 -1.257398e-05 8.709512e-02)	(3.341796e-01 -1.213609e-05 8.643708e-02)	(6.173595e-03 -4.378871e-07 6.580412e-04)
2530.52       	(3.403502e-01 -1.252977e-05 8.708968e-02)	(3.341766e-01 -1.208635e-05 8.643168e-02)	(6.173507e-03 -4.434137e-07 6.580038e-04)
2530.52       	(3.403470e-01 -1.254070e-05 8.708424e-02)	(3.341736e-01 -1.209172e-05 8.642627e-02)	(6.173416e-03 -4.489729e-07 6.579647e-04)
2530.53       	(3.403440e-01 -1.250471e-05 8.707910e-02)	(3.341707e-01 -1.205022e-05 8.642118e-02)	(6.173321e-03 -4.544907e-07 6.579245e-04)
2530.53       	(3.403408e-01 -1.251664e-05 8.707387e-02)	(3.341676e-01 -1.205659e-05 8.641598e-02)	(6.173223e-03 -4.600452e-07 6.578830e-04)
2530.54       	(3.403381e-01 -1.245465e-05 8.706911e-02)	(3.341650e-01 -1.198912e-05 8.641127e-02)	(6.173122e-03 -4.655307e-07 6.578409e-04)
2530.54       	(3.403348e-01 -1.249774e-05 8.706399e-02)	(3.341618e-01 -1.202666e-05 8.640619e-02)	(6.173019e-03 -4.710846e-07 6.577980e-04)
2530.55       	(3.403326e-01 -1.238017e-05 8.705975e-02)	(3.341597e-01 -1.190366e-05 8.640200e-02)	(6.172914e-03 -4.765122e-07 6.577550e-04)
2530.55       	(3.403289e-01 -1.248752e-05 8.705462e-02)	(3.341561e-01 -1.200538e-05 8.639691e-02)	(6.172807e-03 -4.821434e-07 6.577113e-04)
2530.56       	(3.403276e-01 -1.231760e-05 8.705125e-02)	(3.341549e-01 -1.183011e-05 8.639358e-02)	(6.172699e-03 -4.874908e-07 6.576683e-04)
2530.57       	(3.403234e-01 -1.252302e-05 8.704585e-02)	(3.341508e-01 -1.202980e-05 8.638823e-02)	(6.172590e-03 -4.932234e-07 6.576245e-04)
2530.57       	(3.403227e-01 -1.224216e-05 8.704335e-02)	(3.341503e-01 -1.174361e-05 8.638577e-02)	(6.172482e-03 -4.985424e-07 6.575823e-04)
2530.58       	(3.403183e-01 -1.250252e-05 8.703808e-02)	(3.341460e-01 -1.199824e-05 8.638054e-02)	(6.172372e-03 -5.042803e-07 6.575394e-04)
2530.58       	(3.403183e-01 -1.220410e-05 8.703598e-02)	(3.341460e-01 -1.169452e-05 8.637848e-02)	(6.172264e-03 -5.095798e-07 6.574983e-04)
2530.59       	(3.403141e-01 -1.246598e-05 8.703111e-02)	(3.341419e-01 -1.195068e-05 8.637365e-02)	(6.172155e-03 -5.153017e-07 6.574568e-04)
2530.59       	(3.403143e-01 -1.219431e-05 8.702945e-02)	(3.341422e-01 -1.167370e-05 8.637203e-02)	(6.172050e-03 -5.206100e-07 6.574175e-04)
2530.6        	(3.403104e-01 -1.246457e-05 8.702492e-02)	(3.341385e-01 -1.193822e-05 8.636754e-02)	(6.171944e-03 -5.263479e-07 6.573781e-04)
2530.6        	(3.403107e-01 -1.218450e-05 8.702368e-02)	(3.341389e-01 -1.165283e-05 8.636634e-02)	(6.171842e-03 -5.316763e-07 6.573411e-04)
2530.61       	(3.403072e-01 -1.243302e-05 8.701958e-02)	(3.341354e-01 -1.189561e-05 8.636228e-02)	(6.171740e-03 -5.374090e-07 6.573042e-04)
2530.61       	(3.403079e-01 -1.216720e-05 8.701870e-02)	(3.341363e-01 -1.162445e-05 8.636144e-02)	(6.171643e-03 -5.427486e-07 6.572699e-04)
2530.62       	(3.403046e-01 -1.242207e-05 8.701489e-02)	(3.341330e-01 -1.187359e-05 8.635765e-02)	(6.171547e-03 -5.484776e-07 6.572358e-04)
2530.62       	(3.403057e-01 -1.215300e-05 8.701429e-02)	(3.341343e-01 -1.159917e-05 8.635708e-02)	(6.171456e-03 -5.538324e-07 6.572043e-04)
2530.63       	(3.403026e-01 -1.238799e-05 8.701082e-02)	(3.341312e-01 -1.182842e-05 8.635365e-02)	(6.171366e-03 -5.595643e-07 6.571732e-04)
2530.63       	(3.403039e-01 -1.211625e-05 8.701055e-02)	(3.341326e-01 -1.155136e-05 8.635340e-02)	(6.171282e-03 -5.648905e-07 6.571447e-04)
2530.64       	(3.403011e-01 -1.238776e-05 8.700742e-02)	(3.341299e-01 -1.181713e-05 8.635030e-02)	(6.171200e-03 -5.706363e-07 6.571168e-04)
2530.64       	(3.403028e-01 -1.211377e-05 8.700743e-02)	(3.341317e-01 -1.153777e-05 8.635034e-02)	(6.171123e-03 -5.759963e-07 6.570917e-04)
2530.65       	(3.403003e-01 -1.239843e-05 8.700471e-02)	(3.341292e-01 -1.181666e-05 8.634764e-02)	(6.171049e-03 -5.817745e-07 6.570672e-04)
2530.65       	(3.403024e-01 -1.213728e-05 8.700503e-02)	(3.341314e-01 -1.155010e-05 8.634799e-02)	(6.170981e-03 -5.871788e-07 6.570456e-04)
2530.66       	(3.403001e-01 -1.237172e-05 8.700264e-02)	(3.341292e-01 -1.177879e-05 8.634562e-02)	(6.170915e-03 -5.929326e-07 6.570246e-04)
2530.66       	(3.403022e-01 -1.210534e-05 8.700316e-02)	(3.341314e-01 -1.150705e-05 8.634615e-02)	(6.170856e-03 -5.982856e-07 6.570064e-04)
2530.67       	(3.403002e-01 -1.232823e-05 8.700138e-02)	(3.341294e-01 -1.172421e-05 8.634439e-02)	(6.170799e-03 -6.040143e-07 6.569892e-04)
2530.67       	(3.403033e-01 -1.209449e-05 8.700173e-02)	(3.341325e-01 -1.148513e-05 8.634476e-02)	(6.170749e-03 -6.093592e-07 6.569743e-04)
2530.68       	(3.403009e-01 -1.231575e-05 8.700075e-02)	(3.341302e-01 -1.170067e-05 8.634379e-02)	(6.170701e-03 -6.150770e-07 6.569608e-04)
2530.68       	(3.403049e-01 -1.210432e-05 8.700064e-02)	(3.341342e-01 -1.148387e-05 8.634369e-02)	(6.170661e-03 -6.204499e-07 6.569491e-04)
2530.69       	(3.403021e-01 -1.228536e-05 8.700056e-02)	(3.341314e-01 -1.165917e-05 8.634362e-02)	(6.170622e-03 -6.261915e-07 6.569393e-04)
2530.69       	(3.403064e-01 -1.210386e-05 8.700056e-02)	(3.341358e-01 -1.147226e-05 8.634363e-02)	(6.170591e-03 -6.315986e-07 6.569311e-04)
2530.7        	(3.403043e-01 -1.226007e-05 8.700010e-02)	(3.341337e-01 -1.162279e-05 8.634318e-02)	(6.170562e-03 -6.372734e-07 6.569241e-04)
2530.7        	(3.403080e-01 -1.211914e-05 8.700117e-02)	(3.341375e-01 -1.147644e-05 8.634425e-02)	(6.170539e-03 -6.427044e-07 6.569195e-04)
2530.71       	(3.403070e-01 -1.223718e-05 8.699989e-02)	(3.341364e-01 -1.158881e-05 8.634297e-02)	(6.170519e-03 -6.483772e-07 6.569151e-04)
2530.72       	(3.403097e-01 -1.215808e-05 8.700219e-02)	(3.341392e-01 -1.150419e-05 8.634528e-02)	(6.170505e-03 -6.538900e-07 6.569139e-04)
2530.72       	(3.403099e-01 -1.219419e-05 8.700002e-02)	(3.341394e-01 -1.153470e-05 8.634311e-02)	(6.170494e-03 -6.594869e-07 6.569120e-04)
2530.73       	(3.403119e-01 -1.217472e-05 8.700336e-02)	(3.341414e-01 -1.150969e-05 8.634645e-02)	(6.170488e-03 -6.650351e-07 6.569139e-04)
2530.73       	(3.403127e-01 -1.214016e-05 8.700060e-02)	(3.341422e-01 -1.146964e-05 8.634369e-02)	(6.170486e-03 -6.705214e-07 6.569143e-04)
2530.74       	(3.403145e-01 -1.224115e-05 8.700470e-02)	(3.341440e-01 -1.156499e-05 8.634778e-02)	(6.170487e-03 -6.761579e-07 6.569191e-04)
2530.74       	(3.403157e-01 -1.205768e-05 8.700127e-02)	(3.341452e-01 -1.137614e-05 8.634435e-02)	(6.170493e-03 -6.815362e-07 6.569215e-04)
2530.75       	(3.403172e-01 -1.229838e-05 8.700639e-02)	(3.341467e-01 -1.161103e-05 8.634947e-02)	(6.170502e-03 -6.873412e-07 6.569289e-04)
2530.75       	(3.403192e-01 -1.194845e-05 8.700195e-02)	(3.341487e-01 -1.125590e-05 8.634502e-02)	(6.170515e-03 -6.925539e-07 6.569329e-04)
2530.76       	(3.403200e-01 -1.242332e-05 8.700851e-02)	(3.341495e-01 -1.172476e-05 8.635157e-02)	(6.170530e-03 -6.985551e-07 6.569431e-04)
2530.76       	(3.403234e-01 -1.177720e-05 8.700241e-02)	(3.341529e-01 -1.107379e-05 8.634546e-02)	(6.170550e-03 -7.034165e-07 6.569481e-04)
2530.77       	(3.403218e-01 -1.263853e-05 8.701106e-02)	(3.341512e-01 -1.192879e-05 8.635410e-02)	(6.170570e-03 -7.097472e-07 6.569610e-04)
2530.77       	(3.403281e-01 -1.160467e-05 8.700267e-02)	(3.341575e-01 -1.089042e-05 8.634570e-02)	(6.170597e-03 -7.142561e-07 6.569663e-04)
2530.78       	(3.403236e-01 -1.280344e-05 8.701360e-02)	(3.341530e-01 -1.208249e-05 8.635661e-02)	(6.170622e-03 -7.209457e-07 6.569816e-04)
2530.78       	(3.403314e-01 -1.147211e-05 8.700346e-02)	(3.341607e-01 -1.074689e-05 8.634647e-02)	(6.170654e-03 -7.252210e-07 6.569876e-04)
2530.79       	(3.403262e-01 -1.283818e-05 8.701518e-02)	(3.341556e-01 -1.210620e-05 8.635818e-02)	(6.170684e-03 -7.319814e-07 6.570040e-04)
2530.79       	(3.403343e-01 -1.146492e-05 8.700457e-02)	(3.341636e-01 -1.072869e-05 8.634756e-02)	(6.170721e-03 -7.362324e-07 6.570105e-04)
2530.8        	(3.403288e-01 -1.285859e-05 8.701665e-02)	(3.341580e-01 -1.211555e-05 8.635962e-02)	(6.170754e-03 -7.430415e-07 6.570277e-04)
2530.8        	(3.403385e-01 -1.082150e-05 8.700544e-02)	(3.341677e-01 -1.007515e-05 8.634841e-02)	(6.170797e-03 -7.463499e-07 6.570351e-04)
2530.81       	(3.403312e-01 -1.292576e-05 8.701794e-02)	(3.341604e-01 -1.217238e-05 8.636089e-02)	(6.170834e-03 -7.533856e-07 6.570526e-04)
2530.81       	(3.403414e-01 -1.079303e-05 8.700620e-02)	(3.341705e-01 -1.003625e-05 8.634914e-02)	(6.170880e-03 -7.567778e-07 6.570598e-04)
2530.82       	(3.403346e-01 -1.237837e-05 8.701911e-02)	(3.341637e-01 -1.161550e-05 8.636204e-02)	(6.170922e-03 -7.628657e-07 6.570781e-04)
2530.82       	(3.403440e-01 -1.080506e-05 8.700694e-02)	(3.341731e-01 -1.003857e-05 8.634986e-02)	(6.170970e-03 -7.664878e-07 6.570848e-04)
2530.83       	(3.403371e-01 -1.237350e-05 8.701984e-02)	(3.341660e-01 -1.160069e-05 8.636274e-02)	(6.171014e-03 -7.728051e-07 6.571025e-04)
2530.83       	(3.403464e-01 -1.082777e-05 8.700749e-02)	(3.341753e-01 -1.005111e-05 8.635038e-02)	(6.171064e-03 -7.766610e-07 6.571083e-04)
2530.84       	(3.403393e-01 -1.238211e-05 8.702023e-02)	(3.341682e-01 -1.159893e-05 8.636311e-02)	(6.171110e-03 -7.831809e-07 6.571249e-04)
2530.84       	(3.403483e-01 -1.083924e-05 8.700784e-02)	(3.341772e-01 -1.005201e-05 8.635071e-02)	(6.171161e-03 -7.872272e-07 6.571294e-04)
2530.85       	(3.403415e-01 -1.238270e-05 8.702030e-02)	(3.341703e-01 -1.158882e-05 8.636316e-02)	(6.171207e-03 -7.938822e-07 6.571445e-04)
2530.86       	(3.403500e-01 -1.083196e-05 8.700773e-02)	(3.341788e-01 -1.003391e-05 8.635058e-02)	(6.171258e-03 -7.980527e-07 6.571473e-04)
2530.86       	(3.403432e-01 -1.237854e-05 8.701999e-02)	(3.341719e-01 -1.157370e-05 8.636283e-02)	(6.171304e-03 -8.048413e-07 6.571604e-04)
2530.87       	(3.403516e-01 -1.084238e-05 8.700722e-02)	(3.341802e-01 -1.003322e-05 8.635006e-02)	(6.171354e-03 -8.091620e-07 6.571612e-04)
2530.87       	(3.403448e-01 -1.237059e-05 8.701930e-02)	(3.341734e-01 -1.155452e-05 8.636212e-02)	(6.171400e-03 -8.160774e-07 6.571721e-04)
2530.88       	(3.403529e-01 -1.083505e-05 8.700628e-02)	(3.341815e-01 -1.001453e-05 8.634911e-02)	(6.171449e-03 -8.205153e-07 6.571703e-04)
2530.88       	(3.403461e-01 -1.234651e-05 8.701820e-02)	(3.341746e-01 -1.151900e-05 8.636102e-02)	(6.171494e-03 -8.275133e-07 6.571787e-04)
2530.89       	(3.403539e-01 -1.081839e-05 8.700497e-02)	(3.341824e-01 -9.986349e-06 8.634779e-02)	(6.171542e-03 -8.320389e-07 6.571743e-04)
2530.89       	(3.403470e-01 -1.234465e-05 8.701678e-02)	(3.341755e-01 -1.150554e-05 8.635960e-02)	(6.171584e-03 -8.391080e-07 6.571799e-04)
2530.9        	(3.403547e-01 -1.084087e-05 8.700329e-02)	(3.341831e-01 -9.997131e-06 8.634611e-02)	(6.171630e-03 -8.437374e-07 6.571726e-04)
2530.9        	(3.403477e-01 -1.233755e-05 8.701504e-02)	(3.341761e-01 -1.148669e-05 8.635786e-02)	(6.171670e-03 -8.508568e-07 6.571753e-04)
2530.91       	(3.403553e-01 -1.086353e-05 8.700122e-02)	(3.341835e-01 -1.000793e-05 8.634406e-02)	(6.171714e-03 -8.555972e-07 6.571650e-04)
2530.91       	(3.403484e-01 -1.232539e-05 8.701299e-02)	(3.341766e-01 -1.146265e-05 8.635582e-02)	(6.171752e-03 -8.627429e-07 6.571649e-04)
2530.92       	(3.403555e-01 -1.088603e-05 8.699881e-02)	(3.341837e-01 -1.001847e-05 8.634166e-02)	(6.171793e-03 -8.675661e-07 6.571515e-04)
2530.92       	(3.403490e-01 -1.230114e-05 8.701063e-02)	(3.341771e-01 -1.142642e-05 8.635349e-02)	(6.171828e-03 -8.747211e-07 6.571483e-04)
2530.93       	(3.403555e-01 -1.092168e-05 8.699600e-02)	(3.341836e-01 -1.004202e-05 8.633887e-02)	(6.171866e-03 -8.796608e-07 6.571316e-04)
2530.93       	(3.403495e-01 -1.226210e-05 8.700802e-02)	(3.341776e-01 -1.137531e-05 8.635090e-02)	(6.171898e-03 -8.867925e-07 6.571255e-04)
2530.94       	(3.403552e-01 -1.096541e-05 8.699283e-02)	(3.341832e-01 -1.007355e-05 8.633573e-02)	(6.171932e-03 -8.918571e-07 6.571055e-04)
2530.94       	(3.403502e-01 -1.222375e-05 8.700520e-02)	(3.341782e-01 -1.132481e-05 8.634810e-02)	(6.171962e-03 -8.989430e-07 6.570965e-04)
2530.95       	(3.403547e-01 -1.101801e-05 8.698939e-02)	(3.341827e-01 -1.011389e-05 8.633232e-02)	(6.171992e-03 -9.041139e-07 6.570732e-04)
2530.95       	(3.403503e-01 -1.220150e-05 8.700205e-02)	(3.341783e-01 -1.129033e-05 8.634499e-02)	(6.172018e-03 -9.111719e-07 6.570612e-04)