# Moment      
# CofR        : (0.000000e+00 0.000000e+00 0.000000e+00)
#
# Time        	(total_x total_y total_z)	(pressure_x pressure_y pressure_z)	(viscous_x viscous_y viscous_z)
2530          	(-9.808856e-06 9.167242e-03 9.338287e-06)	(-9.571602e-06 9.030845e-03 9.247290e-06)	(-2.372538e-07 1.363969e-04 9.099734e-08)
2530.01       	(-1.676398e-05 9.164257e-03 8.918958e-06)	(-1.652617e-05 9.027920e-03 8.827169e-06)	(-2.378091e-07 1.363364e-04 9.178975e-08)
2530.01       	(-1.425873e-05 9.162676e-03 9.294242e-06)	(-1.402086e-05 9.026395e-03 9.202193e-06)	(-2.378742e-07 1.362815e-04 9.204899e-08)
2530.01       	(-1.426788e-05 9.161894e-03 9.586838e-06)	(-1.402996e-05 9.025659e-03 9.494355e-06)	(-2.379219e-07 1.362346e-04 9.248337e-08)
2530.01       	(-1.407568e-05 9.161622e-03 9.521833e-06)	(-1.383777e-05 9.025427e-03 9.428937e-06)	(-2.379095e-07 1.361951e-04 9.289531e-08)
2530.02       	(-1.403014e-05 9.161226e-03 9.566096e-06)	(-1.379222e-05 9.025064e-03 9.472783e-06)	(-2.379271e-07 1.361616e-04 9.331235e-08)
2530.02       	(-1.395035e-05 9.161026e-03 9.605409e-06)	(-1.371241e-05 9.024893e-03 9.511680e-06)	(-2.379332e-07 1.361330e-04 9.372893e-08)
2530.02       	(-1.395805e-05 9.160828e-03 9.602276e-06)	(-1.372009e-05 9.024719e-03 9.508126e-06)	(-2.379562e-07 1.361084e-04 9.415067e-08)
2530.02       	(-1.391455e-05 9.160689e-03 9.627081e-06)	(-1.367659e-05 9.024602e-03 9.532510e-06)	(-2.379596e-07 1.360869e-04 9.457123e-08)
2530.03       	(-1.395167e-05 9.160590e-03 9.614353e-06)	(-1.371369e-05 9.024522e-03 9.519368e-06)	(-2.379816e-07 1.360681e-04 9.498483e-08)
2530.03       	(-1.391993e-05 9.160523e-03 9.634018e-06)	(-1.368194e-05 9.024472e-03 9.538627e-06)	(-2.379822e-07 1.360515e-04 9.539150e-08)
2530.03       	(-1.395837e-05 9.160481e-03 9.625972e-06)	(-1.372037e-05 9.024445e-03 9.530184e-06)	(-2.379982e-07 1.360368e-04 9.578772e-08)
2530.03       	(-1.393898e-05 9.160456e-03 9.641434e-06)	(-1.370098e-05 9.024432e-03 9.545262e-06)	(-2.380014e-07 1.360237e-04 9.617273e-08)
2530.04       	(-1.397860e-05 9.160443e-03 9.633695e-06)	(-1.374058e-05 9.024431e-03 9.537150e-06)	(-2.380211e-07 1.360119e-04 9.654529e-08)
2530.04       	(-1.397638e-05 9.160455e-03 9.672734e-06)	(-1.373836e-05 9.024453e-03 9.575822e-06)	(-2.380221e-07 1.360018e-04 9.691156e-08)
2530.04       	(-1.401976e-05 9.160452e-03 9.658541e-06)	(-1.378172e-05 9.024459e-03 9.561278e-06)	(-2.380397e-07 1.359927e-04 9.726300e-08)
2530.04       	(-1.398782e-05 9.160453e-03 9.676042e-06)	(-1.374979e-05 9.024468e-03 9.578434e-06)	(-2.380355e-07 1.359844e-04 9.760796e-08)
2530.05       	(-1.404656e-05 9.160465e-03 9.661497e-06)	(-1.380850e-05 9.024488e-03 9.563556e-06)	(-2.380590e-07 1.359769e-04 9.794163e-08)
2530.05       	(-1.399866e-05 9.160479e-03 9.683682e-06)	(-1.376061e-05 9.024509e-03 9.585413e-06)	(-2.380590e-07 1.359701e-04 9.826833e-08)
2530.05       	(-1.408484e-05 9.160491e-03 9.664242e-06)	(-1.384674e-05 9.024527e-03 9.565662e-06)	(-2.381009e-07 1.359640e-04 9.857939e-08)
2530.05       	(-1.401459e-05 9.160520e-03 9.693467e-06)	(-1.377648e-05 9.024561e-03 9.594582e-06)	(-2.381108e-07 1.359585e-04 9.888523e-08)
2530.06       	(-1.411710e-05 9.160556e-03 9.672592e-06)	(-1.387893e-05 9.024602e-03 9.573415e-06)	(-2.381679e-07 1.359535e-04 9.917699e-08)
2530.06       	(-1.403824e-05 9.160595e-03 9.702529e-06)	(-1.380005e-05 9.024646e-03 9.603066e-06)	(-2.381879e-07 1.359490e-04 9.946386e-08)
2530.06       	(-1.414174e-05 9.160633e-03 9.680626e-06)	(-1.390348e-05 9.024688e-03 9.580890e-06)	(-2.382534e-07 1.359449e-04 9.973533e-08)
2530.07       	(-1.406500e-05 9.160682e-03 9.710325e-06)	(-1.382673e-05 9.024740e-03 9.610323e-06)	(-2.382782e-07 1.359413e-04 1.000018e-07)
2530.07       	(-1.415963e-05 9.160725e-03 9.689123e-06)	(-1.392129e-05 9.024787e-03 9.588869e-06)	(-2.383403e-07 1.359380e-04 1.002535e-07)
2530.07       	(-1.409122e-05 9.160779e-03 9.716739e-06)	(-1.385285e-05 9.024844e-03 9.616239e-06)	(-2.383664e-07 1.359351e-04 1.005002e-07)
2530.07       	(-1.418065e-05 9.160826e-03 9.696956e-06)	(-1.394222e-05 9.024893e-03 9.596224e-06)	(-2.384294e-07 1.359325e-04 1.007325e-07)
2530.08       	(-1.412932e-05 9.160885e-03 9.720415e-06)	(-1.389086e-05 9.024954e-03 9.619455e-06)	(-2.384639e-07 1.359302e-04 1.009608e-07)
2530.08       	(-1.419473e-05 9.160933e-03 9.708442e-06)	(-1.395620e-05 9.025005e-03 9.607264e-06)	(-2.385239e-07 1.359282e-04 1.011776e-07)
2530.08       	(-1.416910e-05 9.160993e-03 9.725198e-06)	(-1.393054e-05 9.025067e-03 9.623809e-06)	(-2.385666e-07 1.359265e-04 1.013883e-07)
2530.08       	(-1.421633e-05 9.161039e-03 9.714674e-06)	(-1.397771e-05 9.025114e-03 9.613088e-06)	(-2.386255e-07 1.359249e-04 1.015868e-07)
2530.09       	(-1.420183e-05 9.161100e-03 9.734738e-06)	(-1.396316e-05 9.025176e-03 9.632953e-06)	(-2.386742e-07 1.359236e-04 1.017843e-07)
2530.09       	(-1.422888e-05 9.161142e-03 9.725333e-06)	(-1.399016e-05 9.025220e-03 9.623365e-06)	(-2.387282e-07 1.359225e-04 1.019682e-07)
2530.09       	(-1.424267e-05 9.161198e-03 9.735549e-06)	(-1.400389e-05 9.025277e-03 9.633402e-06)	(-2.387850e-07 1.359215e-04 1.021474e-07)
2530.09       	(-1.424237e-05 9.161237e-03 9.736075e-06)	(-1.400354e-05 9.025316e-03 9.633757e-06)	(-2.388360e-07 1.359206e-04 1.023173e-07)
2530.1        	(-1.428375e-05 9.161290e-03 9.738270e-06)	(-1.404485e-05 9.025370e-03 9.635790e-06)	(-2.389021e-07 1.359198e-04 1.024805e-07)
2530.1        	(-1.426625e-05 9.161327e-03 9.745339e-06)	(-1.402730e-05 9.025408e-03 9.642702e-06)	(-2.389535e-07 1.359192e-04 1.026373e-07)
2530.1        	(-1.431627e-05 9.161373e-03 9.747726e-06)	(-1.407724e-05 9.025454e-03 9.644937e-06)	(-2.390262e-07 1.359185e-04 1.027884e-07)
2530.1        	(-1.428495e-05 9.161404e-03 9.763781e-06)	(-1.404587e-05 9.025486e-03 9.660848e-06)	(-2.390777e-07 1.359180e-04 1.029335e-07)
2530.11       	(-1.434195e-05 9.161441e-03 9.767237e-06)	(-1.410280e-05 9.025524e-03 9.664163e-06)	(-2.391527e-07 1.359174e-04 1.030747e-07)
2530.11       	(-1.429828e-05 9.161463e-03 9.774569e-06)	(-1.405908e-05 9.025546e-03 9.671360e-06)	(-2.391986e-07 1.359169e-04 1.032094e-07)
2530.11       	(-1.437299e-05 9.161491e-03 9.773130e-06)	(-1.413372e-05 9.025575e-03 9.669791e-06)	(-2.392764e-07 1.359163e-04 1.033390e-07)
2530.11       	(-1.431515e-05 9.161505e-03 9.787143e-06)	(-1.407583e-05 9.025590e-03 9.683678e-06)	(-2.393200e-07 1.359158e-04 1.034648e-07)
2530.12       	(-1.440691e-05 9.161526e-03 9.777472e-06)	(-1.416751e-05 9.025611e-03 9.673890e-06)	(-2.394023e-07 1.359152e-04 1.035818e-07)
2530.12       	(-1.433482e-05 9.161532e-03 9.795014e-06)	(-1.409538e-05 9.025618e-03 9.691317e-06)	(-2.394425e-07 1.359146e-04 1.036968e-07)
2530.12       	(-1.443643e-05 9.161545e-03 9.785323e-06)	(-1.419691e-05 9.025631e-03 9.681519e-06)	(-2.395267e-07 1.359140e-04 1.038043e-07)
2530.12       	(-1.435413e-05 9.161543e-03 9.805792e-06)	(-1.411457e-05 9.025630e-03 9.701881e-06)	(-2.395641e-07 1.359134e-04 1.039107e-07)
2530.13       	(-1.446853e-05 9.161547e-03 9.790882e-06)	(-1.422887e-05 9.025635e-03 9.686874e-06)	(-2.396526e-07 1.359127e-04 1.040076e-07)
2530.13       	(-1.438510e-05 9.161536e-03 9.812179e-06)	(-1.414541e-05 9.025624e-03 9.708075e-06)	(-2.396936e-07 1.359119e-04 1.041034e-07)
2530.13       	(-1.449523e-05 9.161533e-03 9.798736e-06)	(-1.425544e-05 9.025622e-03 9.694545e-06)	(-2.397831e-07 1.359112e-04 1.041916e-07)
2530.14       	(-1.441656e-05 9.161516e-03 9.817079e-06)	(-1.417674e-05 9.025606e-03 9.712802e-06)	(-2.398274e-07 1.359104e-04 1.042773e-07)
2530.14       	(-1.500925e-05 9.162088e-03 9.685709e-06)	(-1.476924e-05 9.026184e-03 9.581217e-06)	(-2.400118e-07 1.359046e-04 1.044922e-07)
2530.14       	(-1.471200e-05 9.162126e-03 9.715045e-06)	(-1.447186e-05 9.026230e-03 9.610327e-06)	(-2.401327e-07 1.358960e-04 1.047183e-07)
2530.15       	(-1.464161e-05 9.161907e-03 9.669362e-06)	(-1.440133e-05 9.026020e-03 9.564421e-06)	(-2.402780e-07 1.358869e-04 1.049412e-07)
2530.15       	(-1.465308e-05 9.161800e-03 9.668668e-06)	(-1.441263e-05 9.025922e-03 9.563520e-06)	(-2.404500e-07 1.358779e-04 1.051477e-07)
2530.16       	(-1.457366e-05 9.161689e-03 9.705981e-06)	(-1.433303e-05 9.025820e-03 9.600665e-06)	(-2.406280e-07 1.358696e-04 1.053153e-07)
2530.16       	(-1.453746e-05 9.161550e-03 9.713902e-06)	(-1.429665e-05 9.025685e-03 9.608497e-06)	(-2.408103e-07 1.358650e-04 1.054048e-07)
2530.17       	(-1.459570e-05 9.161433e-03 9.722666e-06)	(-1.435468e-05 9.025571e-03 9.617209e-06)	(-2.410165e-07 1.358622e-04 1.054571e-07)
2530.17       	(-1.462217e-05 9.161324e-03 9.733564e-06)	(-1.438096e-05 9.025464e-03 9.628074e-06)	(-2.412140e-07 1.358603e-04 1.054906e-07)
2530.18       	(-1.466696e-05 9.161229e-03 9.769800e-06)	(-1.442555e-05 9.025370e-03 9.664292e-06)	(-2.414092e-07 1.358590e-04 1.055075e-07)
2530.18       	(-1.468653e-05 9.161131e-03 9.781419e-06)	(-1.444494e-05 9.025272e-03 9.675906e-06)	(-2.415909e-07 1.358582e-04 1.055126e-07)
2530.19       	(-1.472338e-05 9.161037e-03 9.787271e-06)	(-1.448160e-05 9.025179e-03 9.681763e-06)	(-2.417755e-07 1.358578e-04 1.055081e-07)
2530.19       	(-1.474339e-05 9.160945e-03 9.801413e-06)	(-1.450144e-05 9.025088e-03 9.695909e-06)	(-2.419526e-07 1.358577e-04 1.055036e-07)
2530.2        	(-1.477019e-05 9.160858e-03 9.807408e-06)	(-1.452806e-05 9.025000e-03 9.701915e-06)	(-2.421312e-07 1.358579e-04 1.054929e-07)
2530.2        	(-1.479249e-05 9.160773e-03 9.822624e-06)	(-1.455018e-05 9.024915e-03 9.717136e-06)	(-2.423116e-07 1.358584e-04 1.054883e-07)
2530.21       	(-1.482394e-05 9.160694e-03 9.830062e-06)	(-1.458144e-05 9.024835e-03 9.724579e-06)	(-2.424991e-07 1.358590e-04 1.054830e-07)
2530.21       	(-1.484434e-05 9.160617e-03 9.842584e-06)	(-1.460165e-05 9.024757e-03 9.737106e-06)	(-2.426854e-07 1.358597e-04 1.054778e-07)
2530.22       	(-1.487487e-05 9.160545e-03 9.850586e-06)	(-1.463199e-05 9.024685e-03 9.745112e-06)	(-2.428780e-07 1.358606e-04 1.054730e-07)
2530.22       	(-1.489462e-05 9.160474e-03 9.864648e-06)	(-1.465154e-05 9.024613e-03 9.759178e-06)	(-2.430733e-07 1.358614e-04 1.054698e-07)
2530.23       	(-1.492325e-05 9.160408e-03 9.873805e-06)	(-1.467998e-05 9.024546e-03 9.768336e-06)	(-2.432704e-07 1.358623e-04 1.054694e-07)
2530.23       	(-1.494687e-05 9.160344e-03 9.887000e-06)	(-1.470340e-05 9.024480e-03 9.781532e-06)	(-2.434710e-07 1.358632e-04 1.054682e-07)
2530.24       	(-1.497106e-05 9.160284e-03 9.900344e-06)	(-1.472739e-05 9.024420e-03 9.794873e-06)	(-2.436718e-07 1.358641e-04 1.054706e-07)
2530.24       	(-1.499602e-05 9.160226e-03 9.913224e-06)	(-1.475214e-05 9.024361e-03 9.807749e-06)	(-2.438783e-07 1.358648e-04 1.054752e-07)
2530.25       	(-1.501902e-05 9.160176e-03 9.924257e-06)	(-1.477493e-05 9.024310e-03 9.818778e-06)	(-2.440822e-07 1.358656e-04 1.054786e-07)
2530.25       	(-1.504029e-05 9.160133e-03 9.932486e-06)	(-1.479600e-05 9.024267e-03 9.827007e-06)	(-2.442860e-07 1.358663e-04 1.054790e-07)
2530.26       	(-1.506543e-05 9.160094e-03 9.949392e-06)	(-1.482095e-05 9.024227e-03 9.843905e-06)	(-2.444878e-07 1.358670e-04 1.054867e-07)
2530.26       	(-1.509491e-05 9.160054e-03 9.961923e-06)	(-1.485021e-05 9.024187e-03 9.856426e-06)	(-2.447011e-07 1.358677e-04 1.054972e-07)
2530.27       	(-1.514991e-05 9.160055e-03 9.993734e-06)	(-1.490501e-05 9.024187e-03 9.888204e-06)	(-2.449032e-07 1.358683e-04 1.055297e-07)
2530.28       	(-1.513484e-05 9.159993e-03 9.984625e-06)	(-1.488972e-05 9.024124e-03 9.879087e-06)	(-2.451161e-07 1.358689e-04 1.055383e-07)
2530.28       	(-1.519435e-05 9.160019e-03 1.001843e-05)	(-1.494903e-05 9.024150e-03 9.912858e-06)	(-2.453148e-07 1.358695e-04 1.055734e-07)
2530.29       	(-1.517853e-05 9.159960e-03 1.000806e-05)	(-1.493300e-05 9.024090e-03 9.902474e-06)	(-2.455248e-07 1.358701e-04 1.055814e-07)
2530.29       	(-1.524217e-05 9.160005e-03 1.004578e-05)	(-1.499644e-05 9.024134e-03 9.940163e-06)	(-2.457232e-07 1.358706e-04 1.056200e-07)
2530.3        	(-1.522584e-05 9.159937e-03 1.003900e-05)	(-1.497991e-05 9.024065e-03 9.933363e-06)	(-2.459360e-07 1.358712e-04 1.056361e-07)
2530.3        	(-1.528489e-05 9.159993e-03 1.007098e-05)	(-1.503876e-05 9.024122e-03 9.965301e-06)	(-2.461330e-07 1.358716e-04 1.056755e-07)
2530.31       	(-1.526716e-05 9.159926e-03 1.006618e-05)	(-1.502082e-05 9.024054e-03 9.960483e-06)	(-2.463433e-07 1.358721e-04 1.056927e-07)
2530.31       	(-1.532733e-05 9.159999e-03 1.009945e-05)	(-1.508080e-05 9.024127e-03 9.993715e-06)	(-2.465360e-07 1.358724e-04 1.057357e-07)
2530.32       	(-1.530588e-05 9.159933e-03 1.009197e-05)	(-1.505915e-05 9.024060e-03 9.986214e-06)	(-2.467375e-07 1.358728e-04 1.057514e-07)
2530.32       	(-1.536971e-05 9.160019e-03 1.012579e-05)	(-1.512278e-05 9.024146e-03 1.001999e-05)	(-2.469249e-07 1.358731e-04 1.057943e-07)
2530.33       	(-1.534413e-05 9.159951e-03 1.012045e-05)	(-1.509701e-05 9.024078e-03 1.001464e-05)	(-2.471225e-07 1.358733e-04 1.058106e-07)
2530.33       	(-1.540879e-05 9.160043e-03 1.015150e-05)	(-1.516148e-05 9.024170e-03 1.004565e-05)	(-2.473045e-07 1.358734e-04 1.058499e-07)
2530.34       	(-1.538846e-05 9.159971e-03 1.014494e-05)	(-1.514096e-05 9.024097e-03 1.003908e-05)	(-2.475030e-07 1.358734e-04 1.058621e-07)
2530.34       	(-1.545374e-05 9.160067e-03 1.017474e-05)	(-1.520606e-05 9.024194e-03 1.006884e-05)	(-2.476862e-07 1.358734e-04 1.058979e-07)
2530.35       	(-1.543342e-05 9.159994e-03 1.016964e-05)	(-1.518553e-05 9.024121e-03 1.006373e-05)	(-2.478887e-07 1.358733e-04 1.059098e-07)
2530.35       	(-1.544864e-05 9.160012e-03 1.018693e-05)	(-1.520057e-05 9.024139e-03 1.008100e-05)	(-2.480708e-07 1.358730e-04 1.059326e-07)
2530.36       	(-1.547468e-05 9.160020e-03 1.019941e-05)	(-1.522641e-05 9.024147e-03 1.009346e-05)	(-2.482677e-07 1.358727e-04 1.059523e-07)
2530.36       	(-1.548105e-05 9.160023e-03 1.021362e-05)	(-1.523260e-05 9.024150e-03 1.010765e-05)	(-2.484490e-07 1.358723e-04 1.059695e-07)
2530.37       	(-1.549951e-05 9.160031e-03 1.023049e-05)	(-1.525088e-05 9.024159e-03 1.012450e-05)	(-2.486263e-07 1.358718e-04 1.059915e-07)
2530.37       	(-1.551272e-05 9.160038e-03 1.023718e-05)	(-1.526392e-05 9.024167e-03 1.013117e-05)	(-2.487997e-07 1.358713e-04 1.060035e-07)
2530.38       	(-1.554671e-05 9.160041e-03 1.025482e-05)	(-1.529772e-05 9.024170e-03 1.014879e-05)	(-2.489919e-07 1.358707e-04 1.060246e-07)
2530.38       	(-1.554895e-05 9.160038e-03 1.027586e-05)	(-1.529979e-05 9.024168e-03 1.016981e-05)	(-2.491661e-07 1.358700e-04 1.060502e-07)
2530.39       	(-1.558298e-05 9.160037e-03 1.028215e-05)	(-1.533363e-05 9.024168e-03 1.017608e-05)	(-2.493575e-07 1.358693e-04 1.060693e-07)
2530.39       	(-1.556979e-05 9.160024e-03 1.029275e-05)	(-1.532028e-05 9.024155e-03 1.018668e-05)	(-2.495136e-07 1.358685e-04 1.060751e-07)
2530.4        	(-1.560795e-05 9.160008e-03 1.031546e-05)	(-1.535825e-05 9.024140e-03 1.020936e-05)	(-2.496980e-07 1.358677e-04 1.060940e-07)
2530.4        	(-1.560075e-05 9.159982e-03 1.032769e-05)	(-1.535089e-05 9.024115e-03 1.022158e-05)	(-2.498564e-07 1.358668e-04 1.061067e-07)
2530.41       	(-1.563113e-05 9.159952e-03 1.034133e-05)	(-1.538110e-05 9.024087e-03 1.023521e-05)	(-2.500271e-07 1.358658e-04 1.061188e-07)
2530.41       	(-1.563427e-05 9.159917e-03 1.035608e-05)	(-1.538409e-05 9.024052e-03 1.024996e-05)	(-2.501815e-07 1.358648e-04 1.061288e-07)
2530.42       	(-1.566316e-05 9.159877e-03 1.036641e-05)	(-1.541282e-05 9.024014e-03 1.026028e-05)	(-2.503463e-07 1.358637e-04 1.061363e-07)
2530.43       	(-1.566737e-05 9.159832e-03 1.038186e-05)	(-1.541686e-05 9.023969e-03 1.027571e-05)	(-2.505030e-07 1.358626e-04 1.061427e-07)
2530.43       	(-1.567853e-05 9.159784e-03 1.039585e-05)	(-1.542788e-05 9.023923e-03 1.028971e-05)	(-2.506470e-07 1.358614e-04 1.061451e-07)
2530.44       	(-1.569072e-05 9.159731e-03 1.040936e-05)	(-1.543993e-05 9.023871e-03 1.030321e-05)	(-2.507916e-07 1.358602e-04 1.061435e-07)
2530.44       	(-1.570992e-05 9.159675e-03 1.042216e-05)	(-1.545897e-05 9.023816e-03 1.031602e-05)	(-2.509420e-07 1.358589e-04 1.061379e-07)
2530.45       	(-1.571614e-05 9.159612e-03 1.043815e-05)	(-1.546506e-05 9.023754e-03 1.033202e-05)	(-2.510819e-07 1.358575e-04 1.061339e-07)
2530.45       	(-1.572740e-05 9.159549e-03 1.044996e-05)	(-1.547618e-05 9.023693e-03 1.034383e-05)	(-2.512173e-07 1.358560e-04 1.061242e-07)
2530.46       	(-1.573376e-05 9.159479e-03 1.046451e-05)	(-1.548241e-05 9.023624e-03 1.035840e-05)	(-2.513423e-07 1.358544e-04 1.061109e-07)
2530.46       	(-1.575036e-05 9.159409e-03 1.047545e-05)	(-1.549889e-05 9.023556e-03 1.036936e-05)	(-2.514735e-07 1.358528e-04 1.060935e-07)
2530.47       	(-1.575374e-05 9.159334e-03 1.048921e-05)	(-1.550215e-05 9.023483e-03 1.038313e-05)	(-2.515921e-07 1.358510e-04 1.060748e-07)
2530.47       	(-1.576526e-05 9.159258e-03 1.050498e-05)	(-1.551355e-05 9.023408e-03 1.039892e-05)	(-2.517091e-07 1.358492e-04 1.060586e-07)
2530.48       	(-1.577381e-05 9.159177e-03 1.051719e-05)	(-1.552199e-05 9.023330e-03 1.041115e-05)	(-2.518231e-07 1.358473e-04 1.060370e-07)
2530.48       	(-1.578821e-05 9.159098e-03 1.052768e-05)	(-1.553627e-05 9.023252e-03 1.042167e-05)	(-2.519406e-07 1.358452e-04 1.060119e-07)
2530.49       	(-1.579583e-05 9.159015e-03 1.054108e-05)	(-1.554378e-05 9.023172e-03 1.043510e-05)	(-2.520559e-07 1.358431e-04 1.059816e-07)
2530.49       	(-1.580473e-05 9.158933e-03 1.055443e-05)	(-1.555257e-05 9.023092e-03 1.044848e-05)	(-2.521616e-07 1.358408e-04 1.059557e-07)
2530.5        	(-1.581208e-05 9.158847e-03 1.056966e-05)	(-1.555982e-05 9.023009e-03 1.046373e-05)	(-2.522614e-07 1.358385e-04 1.059293e-07)
2530.5        	(-1.583058e-05 9.158762e-03 1.058014e-05)	(-1.557822e-05 9.022926e-03 1.047423e-05)	(-2.523659e-07 1.358360e-04 1.059039e-07)
2530.51       	(-1.583095e-05 9.158678e-03 1.059511e-05)	(-1.557849e-05 9.022844e-03 1.048923e-05)	(-2.524589e-07 1.358335e-04 1.058779e-07)
2530.51       	(-1.583350e-05 9.158593e-03 1.059651e-05)	(-1.558096e-05 9.022762e-03 1.049067e-05)	(-2.525421e-07 1.358308e-04 1.058398e-07)
2530.52       	(-1.584721e-05 9.158510e-03 1.061485e-05)	(-1.559458e-05 9.022682e-03 1.050905e-05)	(-2.526270e-07 1.358281e-04 1.058043e-07)
2530.52       	(-1.584370e-05 9.158424e-03 1.061579e-05)	(-1.559099e-05 9.022599e-03 1.051002e-05)	(-2.527011e-07 1.358253e-04 1.057637e-07)
2530.53       	(-1.586942e-05 9.158343e-03 1.064720e-05)	(-1.561662e-05 9.022521e-03 1.054146e-05)	(-2.527926e-07 1.358224e-04 1.057404e-07)
2530.53       	(-1.584934e-05 9.158257e-03 1.063253e-05)	(-1.559648e-05 9.022438e-03 1.052683e-05)	(-2.528594e-07 1.358194e-04 1.056975e-07)
2530.54       	(-1.588644e-05 9.158183e-03 1.068492e-05)	(-1.563350e-05 9.022367e-03 1.057923e-05)	(-2.529437e-07 1.358164e-04 1.056861e-07)
2530.54       	(-1.584173e-05 9.158094e-03 1.063945e-05)	(-1.558874e-05 9.022281e-03 1.053382e-05)	(-2.529850e-07 1.358133e-04 1.056308e-07)
2530.55       	(-1.593080e-05 9.158034e-03 1.072907e-05)	(-1.567771e-05 9.022224e-03 1.062344e-05)	(-2.530917e-07 1.358102e-04 1.056350e-07)
2530.55       	(-1.580968e-05 9.157934e-03 1.062975e-05)	(-1.555660e-05 9.022127e-03 1.052419e-05)	(-2.530839e-07 1.358070e-04 1.055603e-07)
2530.56       	(-1.599071e-05 9.157898e-03 1.079909e-05)	(-1.573749e-05 9.022094e-03 1.069349e-05)	(-2.532208e-07 1.358038e-04 1.056015e-07)
2530.57       	(-1.576404e-05 9.157786e-03 1.060377e-05)	(-1.551088e-05 9.021985e-03 1.049828e-05)	(-2.531606e-07 1.358006e-04 1.054917e-07)
2530.57       	(-1.601717e-05 9.157767e-03 1.084566e-05)	(-1.576388e-05 9.021969e-03 1.074011e-05)	(-2.532928e-07 1.357975e-04 1.055518e-07)
2530.58       	(-1.576318e-05 9.157648e-03 1.061327e-05)	(-1.550995e-05 9.021853e-03 1.050784e-05)	(-2.532225e-07 1.357943e-04 1.054313e-07)
2530.58       	(-1.603666e-05 9.157646e-03 1.087244e-05)	(-1.578330e-05 9.021855e-03 1.076694e-05)	(-2.533627e-07 1.357912e-04 1.055007e-07)
2530.59       	(-1.576571e-05 9.157532e-03 1.063835e-05)	(-1.551242e-05 9.021744e-03 1.053296e-05)	(-2.532856e-07 1.357881e-04 1.053902e-07)
2530.59       	(-1.603972e-05 9.157537e-03 1.089748e-05)	(-1.578631e-05 9.021752e-03 1.079202e-05)	(-2.534185e-07 1.357850e-04 1.054660e-07)
2530.6        	(-1.576771e-05 9.157433e-03 1.065769e-05)	(-1.551438e-05 9.021651e-03 1.055233e-05)	(-2.533313e-07 1.357820e-04 1.053601e-07)
2530.6        	(-1.603581e-05 9.157441e-03 1.092723e-05)	(-1.578236e-05 9.021662e-03 1.082178e-05)	(-2.534480e-07 1.357791e-04 1.054493e-07)
2530.61       	(-1.576100e-05 9.157345e-03 1.068358e-05)	(-1.550766e-05 9.021569e-03 1.057823e-05)	(-2.533405e-07 1.357763e-04 1.053519e-07)
2530.61       	(-1.603458e-05 9.157366e-03 1.095182e-05)	(-1.578114e-05 9.021593e-03 1.084638e-05)	(-2.534455e-07 1.357736e-04 1.054456e-07)
2530.62       	(-1.576020e-05 9.157275e-03 1.068989e-05)	(-1.550687e-05 9.021504e-03 1.058455e-05)	(-2.533311e-07 1.357709e-04 1.053362e-07)
2530.62       	(-1.603133e-05 9.157306e-03 1.097136e-05)	(-1.577791e-05 9.021538e-03 1.086592e-05)	(-2.534243e-07 1.357684e-04 1.054340e-07)
2530.63       	(-1.575940e-05 9.157221e-03 1.071646e-05)	(-1.550610e-05 9.021455e-03 1.061112e-05)	(-2.532983e-07 1.357659e-04 1.053359e-07)
2530.63       	(-1.602705e-05 9.157257e-03 1.099232e-05)	(-1.577367e-05 9.021494e-03 1.088688e-05)	(-2.533812e-07 1.357636e-04 1.054391e-07)
2530.64       	(-1.576336e-05 9.157181e-03 1.072985e-05)	(-1.551010e-05 9.021420e-03 1.062451e-05)	(-2.532551e-07 1.357614e-04 1.053408e-07)
2530.64       	(-1.603265e-05 9.157228e-03 1.101617e-05)	(-1.577931e-05 9.021469e-03 1.091072e-05)	(-2.533367e-07 1.357594e-04 1.054506e-07)
2530.65       	(-1.576040e-05 9.157159e-03 1.075831e-05)	(-1.550720e-05 9.021401e-03 1.065294e-05)	(-2.532009e-07 1.357574e-04 1.053685e-07)
2530.65       	(-1.601949e-05 9.157216e-03 1.104859e-05)	(-1.576623e-05 9.021460e-03 1.094309e-05)	(-2.532651e-07 1.357556e-04 1.054957e-07)
2530.66       	(-1.576087e-05 9.157154e-03 1.077165e-05)	(-1.550774e-05 9.021400e-03 1.066624e-05)	(-2.531246e-07 1.357540e-04 1.054121e-07)
2530.66       	(-1.601249e-05 9.157212e-03 1.108132e-05)	(-1.575930e-05 9.021460e-03 1.097577e-05)	(-2.531834e-07 1.357525e-04 1.055435e-07)
2530.67       	(-1.578295e-05 9.157157e-03 1.081443e-05)	(-1.552989e-05 9.021406e-03 1.070898e-05)	(-2.530518e-07 1.357511e-04 1.054586e-07)
2530.67       	(-1.600925e-05 9.157240e-03 1.110440e-05)	(-1.575615e-05 9.021490e-03 1.099880e-05)	(-2.531016e-07 1.357498e-04 1.055945e-07)
2530.68       	(-1.578502e-05 9.157177e-03 1.083148e-05)	(-1.553205e-05 9.021428e-03 1.072597e-05)	(-2.529677e-07 1.357487e-04 1.055141e-07)
2530.68       	(-1.600427e-05 9.157284e-03 1.112920e-05)	(-1.575126e-05 9.021536e-03 1.102354e-05)	(-2.530081e-07 1.357478e-04 1.056591e-07)
2530.69       	(-1.578881e-05 9.157208e-03 1.084599e-05)	(-1.553594e-05 9.021461e-03 1.074041e-05)	(-2.528706e-07 1.357469e-04 1.055836e-07)
2530.69       	(-1.599028e-05 9.157325e-03 1.116746e-05)	(-1.573739e-05 9.021579e-03 1.106171e-05)	(-2.528945e-07 1.357463e-04 1.057478e-07)
2530.7        	(-1.580597e-05 9.157269e-03 1.084305e-05)	(-1.555320e-05 9.021523e-03 1.073739e-05)	(-2.527733e-07 1.357457e-04 1.056563e-07)
2530.7        	(-1.596723e-05 9.157370e-03 1.121442e-05)	(-1.571445e-05 9.021625e-03 1.110857e-05)	(-2.527775e-07 1.357453e-04 1.058475e-07)
2530.71       	(-1.583215e-05 9.157341e-03 1.084042e-05)	(-1.557948e-05 9.021596e-03 1.073468e-05)	(-2.526778e-07 1.357450e-04 1.057408e-07)
2530.72       	(-1.592743e-05 9.157416e-03 1.127496e-05)	(-1.567478e-05 9.021671e-03 1.116899e-05)	(-2.526421e-07 1.357449e-04 1.059702e-07)
2530.72       	(-1.586255e-05 9.157420e-03 1.082555e-05)	(-1.560999e-05 9.021675e-03 1.071972e-05)	(-2.525657e-07 1.357448e-04 1.058366e-07)
2530.73       	(-1.588082e-05 9.157476e-03 1.132807e-05)	(-1.562834e-05 9.021731e-03 1.122198e-05)	(-2.524805e-07 1.357449e-04 1.060913e-07)
2530.73       	(-1.590958e-05 9.157498e-03 1.079044e-05)	(-1.565713e-05 9.021753e-03 1.068452e-05)	(-2.524505e-07 1.357451e-04 1.059173e-07)
2530.74       	(-1.581476e-05 9.157546e-03 1.140911e-05)	(-1.556245e-05 9.021801e-03 1.130288e-05)	(-2.523049e-07 1.357454e-04 1.062252e-07)
2530.74       	(-1.597345e-05 9.157579e-03 1.072758e-05)	(-1.572112e-05 9.021833e-03 1.062158e-05)	(-2.523352e-07 1.357458e-04 1.059953e-07)
2530.75       	(-1.571782e-05 9.157619e-03 1.151195e-05)	(-1.546573e-05 9.021873e-03 1.140557e-05)	(-2.520904e-07 1.357463e-04 1.063776e-07)
2530.75       	(-1.607109e-05 9.157674e-03 1.063302e-05)	(-1.581888e-05 9.021928e-03 1.052695e-05)	(-2.522117e-07 1.357469e-04 1.060768e-07)
2530.76       	(-1.559074e-05 9.157695e-03 1.166442e-05)	(-1.533889e-05 9.021948e-03 1.155786e-05)	(-2.518493e-07 1.357476e-04 1.065611e-07)
2530.76       	(-1.622180e-05 9.157788e-03 1.048711e-05)	(-1.596968e-05 9.022040e-03 1.038099e-05)	(-2.521147e-07 1.357484e-04 1.061194e-07)
2530.77       	(-1.539165e-05 9.157744e-03 1.188669e-05)	(-1.514009e-05 9.021995e-03 1.177993e-05)	(-2.515618e-07 1.357492e-04 1.067630e-07)
2530.77       	(-1.643068e-05 9.157915e-03 1.030727e-05)	(-1.617864e-05 9.022165e-03 1.020112e-05)	(-2.520317e-07 1.357502e-04 1.061572e-07)
2530.78       	(-1.519249e-05 9.157794e-03 1.209631e-05)	(-1.494120e-05 9.022043e-03 1.198935e-05)	(-2.512881e-07 1.357511e-04 1.069619e-07)
2530.78       	(-1.654637e-05 9.158004e-03 1.020294e-05)	(-1.629450e-05 9.022251e-03 1.009669e-05)	(-2.518678e-07 1.357523e-04 1.062551e-07)
2530.79       	(-1.514470e-05 9.157866e-03 1.215270e-05)	(-1.489362e-05 9.022113e-03 1.204561e-05)	(-2.510804e-07 1.357533e-04 1.070939e-07)
2530.79       	(-1.657263e-05 9.158085e-03 1.018912e-05)	(-1.632095e-05 9.022330e-03 1.008275e-05)	(-2.516840e-07 1.357545e-04 1.063646e-07)
2530.8        	(-1.511507e-05 9.157935e-03 1.220429e-05)	(-1.486420e-05 9.022179e-03 1.209705e-05)	(-2.508698e-07 1.357556e-04 1.072341e-07)
2530.8        	(-1.663580e-05 9.158198e-03 1.008355e-05)	(-1.638426e-05 9.022441e-03 9.977467e-06)	(-2.515411e-07 1.357570e-04 1.060801e-07)
2530.81       	(-1.507559e-05 9.158000e-03 1.226699e-05)	(-1.482490e-05 9.022242e-03 1.215997e-05)	(-2.506886e-07 1.357582e-04 1.070211e-07)
2530.81       	(-1.665428e-05 9.158277e-03 1.006579e-05)	(-1.640291e-05 9.022517e-03 9.959932e-06)	(-2.513696e-07 1.357597e-04 1.058624e-07)
2530.82       	(-1.508473e-05 9.158093e-03 1.222155e-05)	(-1.483420e-05 9.022332e-03 1.211508e-05)	(-2.505294e-07 1.357609e-04 1.064735e-07)
2530.82       	(-1.665572e-05 9.158348e-03 1.008038e-05)	(-1.640451e-05 9.022585e-03 9.975016e-06)	(-2.512086e-07 1.357625e-04 1.053656e-07)
2530.83       	(-1.508142e-05 9.158159e-03 1.224336e-05)	(-1.483106e-05 9.022396e-03 1.213733e-05)	(-2.503618e-07 1.357638e-04 1.060219e-07)
2530.83       	(-1.663721e-05 9.158411e-03 1.010352e-05)	(-1.638619e-05 9.022645e-03 9.998570e-06)	(-2.510185e-07 1.357653e-04 1.049478e-07)
2530.84       	(-1.507289e-05 9.158220e-03 1.224723e-05)	(-1.482273e-05 9.022453e-03 1.214162e-05)	(-2.501561e-07 1.357666e-04 1.056177e-07)
2530.84       	(-1.661444e-05 9.158465e-03 1.012091e-05)	(-1.636365e-05 9.022696e-03 1.001634e-05)	(-2.507870e-07 1.357681e-04 1.045638e-07)
2530.85       	(-1.506694e-05 9.158280e-03 1.225023e-05)	(-1.481702e-05 9.022511e-03 1.214499e-05)	(-2.499181e-07 1.357695e-04 1.052404e-07)
2530.86       	(-1.659969e-05 9.158510e-03 1.013587e-05)	(-1.634915e-05 9.022739e-03 1.003166e-05)	(-2.505351e-07 1.357710e-04 1.042035e-07)
2530.86       	(-1.506488e-05 9.158327e-03 1.226754e-05)	(-1.481521e-05 9.022554e-03 1.216264e-05)	(-2.496624e-07 1.357723e-04 1.049033e-07)
2530.87       	(-1.658638e-05 9.158553e-03 1.016038e-05)	(-1.633612e-05 9.022779e-03 1.005649e-05)	(-2.502655e-07 1.357737e-04 1.038919e-07)
2530.87       	(-1.506678e-05 9.158370e-03 1.228588e-05)	(-1.481739e-05 9.022595e-03 1.218127e-05)	(-2.493933e-07 1.357750e-04 1.046124e-07)
2530.88       	(-1.657178e-05 9.158589e-03 1.017336e-05)	(-1.632180e-05 9.022813e-03 1.006975e-05)	(-2.499821e-07 1.357764e-04 1.036084e-07)
2530.88       	(-1.506517e-05 9.158403e-03 1.230015e-05)	(-1.481606e-05 9.022626e-03 1.219581e-05)	(-2.491054e-07 1.357776e-04 1.043398e-07)
2530.89       	(-1.655802e-05 9.158616e-03 1.018098e-05)	(-1.630834e-05 9.022837e-03 1.007764e-05)	(-2.496813e-07 1.357789e-04 1.033383e-07)
2530.89       	(-1.506988e-05 9.158430e-03 1.232362e-05)	(-1.482107e-05 9.022650e-03 1.221954e-05)	(-2.488072e-07 1.357800e-04 1.040870e-07)
2530.9        	(-1.653595e-05 9.158638e-03 1.018536e-05)	(-1.628659e-05 9.022857e-03 1.008227e-05)	(-2.493625e-07 1.357813e-04 1.030868e-07)
2530.9        	(-1.507840e-05 9.158449e-03 1.233459e-05)	(-1.482991e-05 9.022666e-03 1.223075e-05)	(-2.484972e-07 1.357823e-04 1.038436e-07)
2530.91       	(-1.651073e-05 9.158652e-03 1.018840e-05)	(-1.626170e-05 9.022868e-03 1.008556e-05)	(-2.490315e-07 1.357835e-04 1.028446e-07)
2530.91       	(-1.509306e-05 9.158466e-03 1.235947e-05)	(-1.484488e-05 9.022682e-03 1.225585e-05)	(-2.481798e-07 1.357844e-04 1.036197e-07)
2530.92       	(-1.647596e-05 9.158657e-03 1.017928e-05)	(-1.622728e-05 9.022872e-03 1.007667e-05)	(-2.486839e-07 1.357855e-04 1.026107e-07)
2530.92       	(-1.511606e-05 9.158481e-03 1.239119e-05)	(-1.486820e-05 9.022695e-03 1.228778e-05)	(-2.478532e-07 1.357863e-04 1.034094e-07)
2530.93       	(-1.643278e-05 9.158657e-03 1.016661e-05)	(-1.618446e-05 9.022869e-03 1.006422e-05)	(-2.483213e-07 1.357873e-04 1.023906e-07)
2530.93       	(-1.515550e-05 9.158494e-03 1.243576e-05)	(-1.490797e-05 9.022707e-03 1.233253e-05)	(-2.475271e-07 1.357880e-04 1.032243e-07)
2530.94       	(-1.637876e-05 9.158649e-03 1.013119e-05)	(-1.613081e-05 9.022860e-03 1.002902e-05)	(-2.479508e-07 1.357888e-04 1.021762e-07)
2530.94       	(-1.520464e-05 9.158514e-03 1.249104e-05)	(-1.495744e-05 9.022725e-03 1.238799e-05)	(-2.472005e-07 1.357895e-04 1.030526e-07)
2530.95       	(-1.632766e-05 9.158636e-03 1.009534e-05)	(-1.608008e-05 9.022845e-03 9.993362e-06)	(-2.475806e-07 1.357902e-04 1.019769e-07)
2530.95       	(-1.523710e-05 9.158516e-03 1.252384e-05)	(-1.499025e-05 9.022725e-03 1.242096e-05)	(-2.468578e-07 1.357907e-04 1.028757e-07)