# Force       
# CofR        : (0.000000e+00 0.000000e+00 0.000000e+00)
#
# Time        	(total_x total_y total_z)	(pressure_x pressure_y pressure_z)	(viscous_x viscous_y viscous_z)
2801          	(3.535501e+00 -6.153397e-04 -4.697815e+02)	(3.535815e+00 -6.534090e-04 -4.697799e+02)	(-3.141153e-04 3.806928e-05 -1.664625e-03)
2802          	(3.535492e+00 -5.583952e-04 -4.697818e+02)	(3.535807e+00 -5.971355e-04 -4.697801e+02)	(-3.153294e-04 3.874022e-05 -1.670560e-03)
2803          	(3.535410e+00 -5.142321e-04 -4.697820e+02)	(3.535727e+00 -5.536375e-04 -4.697803e+02)	(-3.167270e-04 3.940542e-05 -1.676730e-03)
2804          	(3.535288e+00 -4.675306e-04 -4.697823e+02)	(3.535606e+00 -5.076130e-04 -4.697806e+02)	(-3.183071e-04 4.008245e-05 -1.683143e-03)
2805          	(3.535088e+00 -4.108429e-04 -4.697825e+02)	(3.535408e+00 -4.517052e-04 -4.697808e+02)	(-3.200429e-04 4.086231e-05 -1.689811e-03)
2806          	(3.534817e+00 -3.485910e-04 -4.697828e+02)	(3.535139e+00 -3.903658e-04 -4.697811e+02)	(-3.218934e-04 4.177481e-05 -1.696720e-03)
2807          	(3.534398e+00 -2.699274e-04 -4.697830e+02)	(3.534722e+00 -3.128257e-04 -4.697813e+02)	(-3.237881e-04 4.289829e-05 -1.703867e-03)
2808          	(3.533815e+00 -1.726762e-04 -4.697833e+02)	(3.534140e+00 -2.170047e-04 -4.697816e+02)	(-3.256804e-04 4.432857e-05 -1.711242e-03)
2809          	(3.533198e+00 -6.775972e-05 -4.697835e+02)	(3.533525e+00 -1.138108e-04 -4.697818e+02)	(-3.275574e-04 4.605103e-05 -1.718822e-03)
2810          	(3.532624e+00 3.696373e-05 -4.697838e+02)	(3.532953e+00 -1.102538e-05 -4.697821e+02)	(-3.293694e-04 4.798911e-05 -1.726591e-03)
2811          	(3.532101e+00 1.462837e-04 -4.697840e+02)	(3.532432e+00 9.616064e-05 -4.697823e+02)	(-3.311198e-04 5.012303e-05 -1.734569e-03)
2812          	(3.531752e+00 2.454618e-04 -4.697843e+02)	(3.532085e+00 1.931189e-04 -4.697825e+02)	(-3.328061e-04 5.234287e-05 -1.742736e-03)
2813          	(3.531545e+00 3.390525e-04 -4.697845e+02)	(3.531880e+00 2.844562e-04 -4.697828e+02)	(-3.344330e-04 5.459629e-05 -1.751070e-03)
2814          	(3.531510e+00 4.276599e-04 -4.697847e+02)	(3.531846e+00 3.707867e-04 -4.697830e+02)	(-3.360314e-04 5.687313e-05 -1.759559e-03)
2815          	(3.531562e+00 5.123615e-04 -4.697850e+02)	(3.531900e+00 4.532080e-04 -4.697832e+02)	(-3.376129e-04 5.915353e-05 -1.768187e-03)
2816          	(3.531639e+00 5.942062e-04 -4.697853e+02)	(3.531978e+00 5.327682e-04 -4.697835e+02)	(-3.391781e-04 6.143797e-05 -1.776972e-03)
2817          	(3.531856e+00 6.912637e-04 -4.697857e+02)	(3.532197e+00 6.274111e-04 -4.697839e+02)	(-3.406908e-04 6.385257e-05 -1.785946e-03)
2818          	(3.532176e+00 7.839900e-04 -4.697861e+02)	(3.532518e+00 7.176130e-04 -4.697843e+02)	(-3.421549e-04 6.637701e-05 -1.795098e-03)
2819          	(3.532582e+00 8.698666e-04 -4.697866e+02)	(3.532926e+00 8.009262e-04 -4.697848e+02)	(-3.435677e-04 6.894033e-05 -1.804401e-03)
2820          	(3.533084e+00 9.330984e-04 -4.697869e+02)	(3.533429e+00 8.616910e-04 -4.697851e+02)	(-3.450343e-04 7.140744e-05 -1.813787e-03)
2821          	(3.533768e+00 9.929597e-04 -4.697873e+02)	(3.534114e+00 9.191794e-04 -4.697854e+02)	(-3.466013e-04 7.378030e-05 -1.823196e-03)
2822          	(3.534564e+00 1.049640e-03 -4.697876e+02)	(3.534913e+00 9.735289e-04 -4.697858e+02)	(-3.483430e-04 7.611071e-05 -1.832608e-03)
2823          	(3.535362e+00 1.106368e-03 -4.697879e+02)	(3.535712e+00 1.027937e-03 -4.697861e+02)	(-3.503151e-04 7.843151e-05 -1.841999e-03)
2824          	(3.536044e+00 1.164182e-03 -4.697883e+02)	(3.536396e+00 1.083415e-03 -4.697864e+02)	(-3.525364e-04 8.076628e-05 -1.851357e-03)
2825          	(3.536522e+00 1.224471e-03 -4.697887e+02)	(3.536877e+00 1.141346e-03 -4.697868e+02)	(-3.549965e-04 8.312536e-05 -1.860677e-03)
2826          	(3.536762e+00 1.287061e-03 -4.697891e+02)	(3.537120e+00 1.201531e-03 -4.697872e+02)	(-3.576467e-04 8.553049e-05 -1.869932e-03)
2827          	(3.536696e+00 1.344367e-03 -4.697895e+02)	(3.537056e+00 1.256438e-03 -4.697876e+02)	(-3.603936e-04 8.792883e-05 -1.879095e-03)
2828          	(3.536460e+00 1.402675e-03 -4.697898e+02)	(3.536824e+00 1.312330e-03 -4.697879e+02)	(-3.631840e-04 9.034508e-05 -1.888143e-03)
2829          	(3.536042e+00 1.462421e-03 -4.697902e+02)	(3.536408e+00 1.369646e-03 -4.697883e+02)	(-3.659620e-04 9.277536e-05 -1.897059e-03)
2830          	(3.535418e+00 1.523761e-03 -4.697906e+02)	(3.535787e+00 1.428519e-03 -4.697887e+02)	(-3.686457e-04 9.524220e-05 -1.905866e-03)
2831          	(3.534604e+00 1.587029e-03 -4.697909e+02)	(3.534975e+00 1.489287e-03 -4.697890e+02)	(-3.711853e-04 9.774135e-05 -1.914574e-03)
2832          	(3.533513e+00 1.657610e-03 -4.697913e+02)	(3.533887e+00 1.557288e-03 -4.697894e+02)	(-3.735538e-04 1.003225e-04 -1.923153e-03)
2833          	(3.532320e+00 1.729957e-03 -4.697916e+02)	(3.532696e+00 1.626971e-03 -4.697896e+02)	(-3.757661e-04 1.029861e-04 -1.931528e-03)
2834          	(3.526279e+00 1.868945e-03 -4.697915e+02)	(3.526658e+00 1.762855e-03 -4.697896e+02)	(-3.787906e-04 1.060904e-04 -1.939638e-03)
2835          	(3.519638e+00 2.003070e-03 -4.697912e+02)	(3.520020e+00 1.893450e-03 -4.697892e+02)	(-3.820048e-04 1.096196e-04 -1.947470e-03)
2836          	(3.512625e+00 2.106330e-03 -4.697906e+02)	(3.513010e+00 1.993115e-03 -4.697886e+02)	(-3.848066e-04 1.132145e-04 -1.954994e-03)
2837          	(3.506171e+00 2.191728e-03 -4.697896e+02)	(3.506558e+00 2.074992e-03 -4.697876e+02)	(-3.866959e-04 1.167365e-04 -1.962180e-03)
2838          	(3.508934e+00 2.211525e-03 -4.697856e+02)	(3.509319e+00 2.091547e-03 -4.697836e+02)	(-3.850299e-04 1.199778e-04 -1.969199e-03)
2839          	(3.505852e+00 2.188347e-03 -4.697835e+02)	(3.506235e+00 2.065918e-03 -4.697815e+02)	(-3.832760e-04 1.224285e-04 -1.975558e-03)
2840          	(3.506749e+00 2.143802e-03 -4.697806e+02)	(3.507130e+00 2.019506e-03 -4.697787e+02)	(-3.804728e-04 1.242958e-04 -1.981126e-03)
2841          	(3.512976e+00 2.083137e-03 -4.697779e+02)	(3.513352e+00 1.957498e-03 -4.697759e+02)	(-3.759896e-04 1.256388e-04 -1.986068e-03)
2842          	(3.514819e+00 2.102692e-03 -4.697778e+02)	(3.515191e+00 1.975660e-03 -4.697758e+02)	(-3.723913e-04 1.270314e-04 -1.990094e-03)
2843          	(3.516892e+00 2.117971e-03 -4.697776e+02)	(3.517261e+00 1.989410e-03 -4.697756e+02)	(-3.693906e-04 1.285614e-04 -1.993020e-03)
2844          	(3.518924e+00 2.120956e-03 -4.697774e+02)	(3.519291e+00 1.990976e-03 -4.697754e+02)	(-3.667719e-04 1.299798e-04 -1.994877e-03)
2845          	(3.521216e+00 2.111622e-03 -4.697772e+02)	(3.521580e+00 1.980371e-03 -4.697752e+02)	(-3.643154e-04 1.312511e-04 -1.995571e-03)
2846          	(3.528684e+00 2.054289e-03 -4.697761e+02)	(3.529045e+00 1.922098e-03 -4.697741e+02)	(-3.605429e-04 1.321911e-04 -1.995165e-03)
2847          	(3.529666e+00 2.052946e-03 -4.697758e+02)	(3.530024e+00 1.919850e-03 -4.697738e+02)	(-3.578657e-04 1.330956e-04 -1.993506e-03)
2848          	(3.530415e+00 2.048015e-03 -4.697754e+02)	(3.530770e+00 1.913905e-03 -4.697734e+02)	(-3.557289e-04 1.341095e-04 -1.990440e-03)
2849          	(3.531023e+00 2.030736e-03 -4.697749e+02)	(3.531377e+00 1.895691e-03 -4.697729e+02)	(-3.538080e-04 1.350447e-04 -1.986050e-03)
2850          	(3.531489e+00 2.000393e-03 -4.697744e+02)	(3.531841e+00 1.864535e-03 -4.697725e+02)	(-3.518681e-04 1.358578e-04 -1.980318e-03)
2851          	(3.531819e+00 1.959608e-03 -4.697739e+02)	(3.532169e+00 1.823088e-03 -4.697719e+02)	(-3.497629e-04 1.365200e-04 -1.973259e-03)
2852          	(3.532028e+00 1.911968e-03 -4.697734e+02)	(3.532376e+00 1.774957e-03 -4.697714e+02)	(-3.474259e-04 1.370112e-04 -1.964937e-03)
2853          	(3.532149e+00 1.861085e-03 -4.697728e+02)	(3.532494e+00 1.723733e-03 -4.697708e+02)	(-3.448799e-04 1.373512e-04 -1.955440e-03)
2854          	(3.532371e+00 1.793960e-03 -4.697721e+02)	(3.532713e+00 1.656497e-03 -4.697702e+02)	(-3.421706e-04 1.374632e-04 -1.944804e-03)
2855          	(3.532517e+00 1.728839e-03 -4.697715e+02)	(3.532857e+00 1.591461e-03 -4.697696e+02)	(-3.393861e-04 1.373780e-04 -1.933092e-03)
2856          	(3.532631e+00 1.664935e-03 -4.697709e+02)	(3.532968e+00 1.527792e-03 -4.697689e+02)	(-3.366006e-04 1.371425e-04 -1.920359e-03)
2857          	(3.532762e+00 1.601009e-03 -4.697702e+02)	(3.533096e+00 1.464236e-03 -4.697683e+02)	(-3.338727e-04 1.367734e-04 -1.906636e-03)
2858          	(3.532950e+00 1.535270e-03 -4.697695e+02)	(3.533281e+00 1.398999e-03 -4.697676e+02)	(-3.312439e-04 1.362711e-04 -1.891981e-03)
2859          	(3.533180e+00 1.467644e-03 -4.697688e+02)	(3.533509e+00 1.332004e-03 -4.697669e+02)	(-3.287370e-04 1.356396e-04 -1.876584e-03)
2860          	(3.533313e+00 1.394494e-03 -4.697681e+02)	(3.533639e+00 1.259628e-03 -4.697663e+02)	(-3.263241e-04 1.348656e-04 -1.860739e-03)
2861          	(3.531570e+00 1.348040e-03 -4.697663e+02)	(3.531895e+00 1.213914e-03 -4.697644e+02)	(-3.244214e-04 1.341259e-04 -1.844589e-03)
2862          	(3.530489e+00 1.276948e-03 -4.697643e+02)	(3.530812e+00 1.143662e-03 -4.697624e+02)	(-3.225790e-04 1.332857e-04 -1.828289e-03)
2863          	(3.531222e+00 1.126863e-03 -4.697617e+02)	(3.531542e+00 9.950846e-04 -4.697599e+02)	(-3.204851e-04 1.317783e-04 -1.811888e-03)
2864          	(3.532925e+00 9.867938e-04 -4.697592e+02)	(3.533243e+00 8.570424e-04 -4.697574e+02)	(-3.180923e-04 1.297514e-04 -1.795519e-03)
2865          	(3.534294e+00 8.580959e-04 -4.697585e+02)	(3.534609e+00 7.305683e-04 -4.697567e+02)	(-3.158497e-04 1.275276e-04 -1.779392e-03)
2866          	(3.535568e+00 7.452064e-04 -4.697579e+02)	(3.535882e+00 6.199642e-04 -4.697561e+02)	(-3.139304e-04 1.252422e-04 -1.763592e-03)
2867          	(3.537941e+00 6.410312e-04 -4.697552e+02)	(3.538253e+00 5.180385e-04 -4.697535e+02)	(-3.119949e-04 1.229927e-04 -1.748183e-03)
2868          	(3.539174e+00 5.418371e-04 -4.697547e+02)	(3.539484e+00 4.211164e-04 -4.697530e+02)	(-3.105248e-04 1.207207e-04 -1.733364e-03)
2869          	(3.540257e+00 4.526093e-04 -4.697542e+02)	(3.540566e+00 3.341594e-04 -4.697525e+02)	(-3.095157e-04 1.184499e-04 -1.719203e-03)
2870          	(3.541235e+00 3.648657e-04 -4.697538e+02)	(3.541544e+00 2.486770e-04 -4.697521e+02)	(-3.089043e-04 1.161887e-04 -1.705693e-03)
2871          	(3.541948e+00 2.991188e-04 -4.697534e+02)	(3.542257e+00 1.850624e-04 -4.697517e+02)	(-3.086554e-04 1.140564e-04 -1.692903e-03)
2872          	(3.542564e+00 2.340750e-04 -4.697531e+02)	(3.542872e+00 1.220605e-04 -4.697514e+02)	(-3.086688e-04 1.120146e-04 -1.680908e-03)
2873          	(3.543092e+00 1.683705e-04 -4.697528e+02)	(3.543401e+00 5.838182e-05 -4.697511e+02)	(-3.089056e-04 1.099887e-04 -1.669754e-03)
2874          	(3.543559e+00 9.724514e-05 -4.697525e+02)	(3.543868e+00 -1.068371e-05 -4.697509e+02)	(-3.093590e-04 1.079289e-04 -1.659436e-03)
2875          	(3.543961e+00 3.864093e-06 -4.697523e+02)	(3.544271e+00 -1.018266e-04 -4.697506e+02)	(-3.100263e-04 1.056907e-04 -1.649919e-03)
2876          	(3.544240e+00 -9.328517e-05 -4.697520e+02)	(3.544551e+00 -1.965603e-04 -4.697504e+02)	(-3.108485e-04 1.032751e-04 -1.641205e-03)
2877          	(3.544402e+00 -1.932956e-04 -4.697518e+02)	(3.544714e+00 -2.940096e-04 -4.697502e+02)	(-3.117549e-04 1.007140e-04 -1.633335e-03)
2878          	(3.544465e+00 -2.863880e-04 -4.697517e+02)	(3.544778e+00 -3.844770e-04 -4.697501e+02)	(-3.126928e-04 9.808900e-05 -1.626322e-03)
2879          	(3.544448e+00 -3.840911e-04 -4.697516e+02)	(3.544762e+00 -4.794802e-04 -4.697500e+02)	(-3.136183e-04 9.538910e-05 -1.620144e-03)
2880          	(3.544369e+00 -4.864064e-04 -4.697516e+02)	(3.544684e+00 -5.789893e-04 -4.697500e+02)	(-3.144831e-04 9.258282e-05 -1.614752e-03)
2881          	(3.544272e+00 -6.043918e-04 -4.697515e+02)	(3.544587e+00 -6.939588e-04 -4.697499e+02)	(-3.152572e-04 8.956702e-05 -1.610091e-03)
2882          	(3.544249e+00 -7.497902e-04 -4.697515e+02)	(3.544565e+00 -8.359665e-04 -4.697499e+02)	(-3.158551e-04 8.617633e-05 -1.606093e-03)
2883          	(3.547212e+00 -8.731273e-04 -4.697515e+02)	(3.547528e+00 -9.557917e-04 -4.697499e+02)	(-3.155349e-04 8.266443e-05 -1.602797e-03)
2884          	(3.550753e+00 -9.905642e-04 -4.697516e+02)	(3.551067e+00 -1.069686e-03 -4.697500e+02)	(-3.146455e-04 7.912209e-05 -1.600093e-03)
2885          	(3.554264e+00 -1.096278e-03 -4.697520e+02)	(3.554578e+00 -1.171852e-03 -4.697504e+02)	(-3.136177e-04 7.557444e-05 -1.597871e-03)
2886          	(3.557853e+00 -1.189317e-03 -4.697526e+02)	(3.558166e+00 -1.261386e-03 -4.697511e+02)	(-3.126841e-04 7.206889e-05 -1.596047e-03)
2887          	(3.561016e+00 -1.262461e-03 -4.697537e+02)	(3.561328e+00 -1.331161e-03 -4.697521e+02)	(-3.121230e-04 6.869967e-05 -1.594557e-03)
2888          	(3.561302e+00 -1.326363e-03 -4.697539e+02)	(3.561615e+00 -1.391823e-03 -4.697523e+02)	(-3.125163e-04 6.546002e-05 -1.593284e-03)
2889          	(3.561482e+00 -1.372741e-03 -4.697541e+02)	(3.561796e+00 -1.435112e-03 -4.697525e+02)	(-3.133688e-04 6.237128e-05 -1.592302e-03)
2890          	(3.561697e+00 -1.403475e-03 -4.697543e+02)	(3.562012e+00 -1.463000e-03 -4.697527e+02)	(-3.143766e-04 5.952474e-05 -1.591645e-03)
2891          	(3.561815e+00 -1.416102e-03 -4.697545e+02)	(3.562130e+00 -1.473070e-03 -4.697529e+02)	(-3.153278e-04 5.696857e-05 -1.591335e-03)
2892          	(3.545586e+00 -1.264157e-03 -4.697612e+02)	(3.545907e+00 -1.319630e-03 -4.697596e+02)	(-3.207747e-04 5.547306e-05 -1.590851e-03)
2893          	(3.547642e+00 -1.286990e-03 -4.697622e+02)	(3.547965e+00 -1.341206e-03 -4.697606e+02)	(-3.227736e-04 5.421611e-05 -1.590779e-03)
2894          	(3.533597e+00 -1.168386e-03 -4.697689e+02)	(3.533924e+00 -1.221703e-03 -4.697673e+02)	(-3.269956e-04 5.331672e-05 -1.590952e-03)
2895          	(3.535394e+00 -1.215086e-03 -4.697698e+02)	(3.535721e+00 -1.267504e-03 -4.697682e+02)	(-3.270803e-04 5.241775e-05 -1.591567e-03)
2896          	(3.536791e+00 -1.259186e-03 -4.697706e+02)	(3.537116e+00 -1.310207e-03 -4.697690e+02)	(-3.247857e-04 5.102138e-05 -1.592989e-03)
2897          	(3.537925e+00 -1.295848e-03 -4.697714e+02)	(3.538246e+00 -1.345376e-03 -4.697698e+02)	(-3.212809e-04 4.952807e-05 -1.594912e-03)
2898          	(3.536755e+00 -1.321470e-03 -4.697716e+02)	(3.537073e+00 -1.369434e-03 -4.697700e+02)	(-3.178020e-04 4.796435e-05 -1.597239e-03)
2899          	(3.536034e+00 -1.339963e-03 -4.697719e+02)	(3.536349e+00 -1.386327e-03 -4.697703e+02)	(-3.147260e-04 4.636428e-05 -1.599908e-03)
2900          	(3.535704e+00 -1.352966e-03 -4.697721e+02)	(3.536017e+00 -1.397712e-03 -4.697705e+02)	(-3.122890e-04 4.474608e-05 -1.602866e-03)
2901          	(3.535784e+00 -1.359889e-03 -4.697724e+02)	(3.536095e+00 -1.403042e-03 -4.697708e+02)	(-3.105985e-04 4.315256e-05 -1.606030e-03)
2902          	(3.536174e+00 -1.360879e-03 -4.697726e+02)	(3.536483e+00 -1.402496e-03 -4.697710e+02)	(-3.096232e-04 4.161711e-05 -1.609311e-03)
2903          	(3.536710e+00 -1.355283e-03 -4.697728e+02)	(3.537019e+00 -1.395455e-03 -4.697712e+02)	(-3.092016e-04 4.017192e-05 -1.612675e-03)
2904          	(3.529786e+00 -1.264248e-03 -4.697782e+02)	(3.530098e+00 -1.303493e-03 -4.697766e+02)	(-3.116665e-04 3.924464e-05 -1.615863e-03)
2905          	(3.531816e+00 -1.245280e-03 -4.697808e+02)	(3.532129e+00 -1.283850e-03 -4.697792e+02)	(-3.127178e-04 3.856974e-05 -1.619132e-03)
2906          	(3.531753e+00 -1.239004e-03 -4.697811e+02)	(3.532066e+00 -1.276746e-03 -4.697795e+02)	(-3.132400e-04 3.774186e-05 -1.622608e-03)
