# Force bins  
# bins        : 20
# start       : -2.495575e-02
# end         : 2.496074e-02
# delta       : 2.495825e-03
# direction   : (1.000000e+00 0.000000e+00 0.000000e+00)
# x co-ords  :	-2.245993e-02	-1.996410e-02	-1.746828e-02	-1.497245e-02	-1.247663e-02	-9.980803e-03	-7.484978e-03	-4.989154e-03	-2.493329e-03	2.495575e-06	2.498320e-03	4.994145e-03	7.489969e-03	9.985794e-03	1.248162e-02	1.497744e-02	1.747327e-02	1.996909e-02	2.246492e-02	2.496074e-02
# y co-ords  :	-0.000000e+00	-0.000000e+00	-0.000000e+00	-0.000000e+00	-0.000000e+00	-0.000000e+00	-0.000000e+00	-0.000000e+00	-0.000000e+00	0.000000e+00	0.000000e+00	0.000000e+00	0.000000e+00	0.000000e+00	0.000000e+00	0.000000e+00	0.000000e+00	0.000000e+00	0.000000e+00	0.000000e+00
# z co-ords  :	-0.000000e+00	-0.000000e+00	-0.000000e+00	-0.000000e+00	-0.000000e+00	-0.000000e+00	-0.000000e+00	-0.000000e+00	-0.000000e+00	0.000000e+00	0.000000e+00	0.000000e+00	0.000000e+00	0.000000e+00	0.000000e+00	0.000000e+00	0.000000e+00	0.000000e+00	0.000000e+00	0.000000e+00
#
# Time        	0:(total_x total_y total_z)	0:(pressure_x pressure_y pressure_z)	0:(viscous_x viscous_y viscous_z)	1:(total_x total_y total_z)	1:(pressure_x pressure_y pressure_z)	1:(viscous_x viscous_y viscous_z)	2:(total_x total_y total_z)	2:(pressure_x pressure_y pressure_z)	2:(viscous_x viscous_y viscous_z)	3:(total_x total_y total_z)	3:(pressure_x pressure_y pressure_z)	3:(viscous_x viscous_y viscous_z)	4:(total_x total_y total_z)	4:(pressure_x pressure_y pressure_z)	4:(viscous_x viscous_y viscous_z)	5:(total_x total_y total_z)	5:(pressure_x pressure_y pressure_z)	5:(viscous_x viscous_y viscous_z)	6:(total_x total_y total_z)	6:(pressure_x pressure_y pressure_z)	6:(viscous_x viscous_y viscous_z)	7:(total_x total_y total_z)	7:(pressure_x pressure_y pressure_z)	7:(viscous_x viscous_y viscous_z)	8:(total_x total_y total_z)	8:(pressure_x pressure_y pressure_z)	8:(viscous_x viscous_y viscous_z)	9:(total_x total_y total_z)	9:(pressure_x pressure_y pressure_z)	9:(viscous_x viscous_y viscous_z)	10:(total_x total_y total_z)	10:(pressure_x pressure_y pressure_z)	10:(viscous_x viscous_y viscous_z)	11:(total_x total_y total_z)	11:(pressure_x pressure_y pressure_z)	11:(viscous_x viscous_y viscous_z)	12:(total_x total_y total_z)	12:(pressure_x pressure_y pressure_z)	12:(viscous_x viscous_y viscous_z)	13:(total_x total_y total_z)	13:(pressure_x pressure_y pressure_z)	13:(viscous_x viscous_y viscous_z)	14:(total_x total_y total_z)	14:(pressure_x pressure_y pressure_z)	14:(viscous_x viscous_y viscous_z)	15:(total_x total_y total_z)	15:(pressure_x pressure_y pressure_z)	15:(viscous_x viscous_y viscous_z)	16:(total_x total_y total_z)	16:(pressure_x pressure_y pressure_z)	16:(viscous_x viscous_y viscous_z)	17:(total_x total_y total_z)	17:(pressure_x pressure_y pressure_z)	17:(viscous_x viscous_y viscous_z)	18:(total_x total_y total_z)	18:(pressure_x pressure_y pressure_z)	18:(viscous_x viscous_y viscous_z)	19:(total_x total_y total_z)	19:(pressure_x pressure_y pressure_z)	19:(viscous_x viscous_y viscous_z)
2801          	(-1.036560e+03 -3.124907e-05 -4.021755e-01)	(-1.036559e+03 -2.809247e-05 -4.005440e-01)	(-1.113829e-04 -3.156595e-06 -1.631556e-03)	(-1.438556e+03 -6.318255e-05 1.322562e-01)	(-1.438555e+03 -5.906733e-05 1.339661e-01)	(-1.185188e-04 -4.115218e-06 -1.709946e-03)	(-1.717859e+03 -2.498538e-03 -2.378925e+00)	(-1.717859e+03 -2.493151e-03 -2.377388e+00)	(-2.307696e-04 -5.386938e-06 -1.537304e-03)	(-1.913822e+03 -1.128486e-02 4.719580e+00)	(-1.913822e+03 -1.127857e-02 4.721098e+00)	(-1.764281e-04 -6.290727e-06 -1.518324e-03)	(-1.997665e+03 -8.065607e-04 -1.217791e+02)	(-1.997665e+03 -8.001972e-04 -1.217775e+02)	(-1.397827e-04 -6.363505e-06 -1.565621e-03)	(-2.157773e+03 -2.064952e-04 -2.347194e+02)	(-2.157773e+03 -1.993237e-04 -2.347178e+02)	(-1.483785e-04 -7.171500e-06 -1.572320e-03)	(-2.157773e+03 -2.389818e-04 -2.347194e+02)	(-2.157773e+03 -2.317990e-04 -2.347178e+02)	(-1.693656e-04 -7.182804e-06 -1.573619e-03)	(-2.157773e+03 -2.816271e-04 -2.347194e+02)	(-2.157773e+03 -2.744584e-04 -2.347178e+02)	(-1.887945e-04 -7.168638e-06 -1.574607e-03)	(-2.157773e+03 -3.255216e-04 -2.347194e+02)	(-2.157773e+03 -3.183553e-04 -2.347178e+02)	(-2.088012e-04 -7.166283e-06 -1.575350e-03)	(-2.157773e+03 -3.720228e-04 -2.347194e+02)	(-2.157773e+03 -3.648046e-04 -2.347178e+02)	(-2.298118e-04 -7.218194e-06 -1.575872e-03)	(-2.157773e+03 -4.199431e-04 -2.347194e+02)	(-2.157773e+03 -4.126105e-04 -2.347178e+02)	(-2.514674e-04 -7.332569e-06 -1.576314e-03)	(-2.157773e+03 -4.625520e-04 -2.347194e+02)	(-2.157773e+03 -4.550931e-04 -2.347178e+02)	(-2.724274e-04 -7.458962e-06 -1.576805e-03)	(-2.157773e+03 -4.781601e-04 -2.347194e+02)	(-2.157773e+03 -4.705593e-04 -2.347178e+02)	(-2.905407e-04 -7.600802e-06 -1.577287e-03)	(-2.157773e+03 -3.807305e-04 -2.347194e+02)	(-2.157773e+03 -3.730516e-04 -2.347178e+02)	(-3.026402e-04 -7.678971e-06 -1.577587e-03)	(-1.997408e+03 4.494171e-05 -3.478413e+02)	(-1.997407e+03 5.402365e-05 -3.478397e+02)	(-3.083886e-04 -9.081931e-06 -1.578277e-03)	(-1.913429e+03 2.885746e-04 -4.745444e+02)	(-1.913429e+03 2.979412e-04 -4.745428e+02)	(-3.069224e-04 -9.366590e-06 -1.579968e-03)	(-1.716969e+03 4.419014e-04 -4.675997e+02)	(-1.716968e+03 4.494506e-04 -4.675982e+02)	(-3.010297e-04 -7.549252e-06 -1.580909e-03)	(-1.437388e+03 3.169412e-05 -4.699346e+02)	(-1.437388e+03 3.317060e-05 -4.699330e+02)	(-2.986850e-04 -1.476479e-06 -1.580020e-03)	(-1.034752e+03 -4.015398e-04 -4.693910e+02)	(-1.034751e+03 -4.083567e-04 -4.693894e+02)	(-3.030005e-04 6.816928e-06 -1.581637e-03)	(3.535501e+00 -6.153397e-04 -4.697815e+02)	(3.535815e+00 -6.534090e-04 -4.697799e+02)	(-3.141153e-04 3.806928e-05 -1.664625e-03)
2802          	(-1.036560e+03 -2.991746e-05 -4.022169e-01)	(-1.036560e+03 -2.677691e-05 -4.005801e-01)	(-1.123510e-04 -3.140550e-06 -1.636783e-03)	(-1.438556e+03 -5.964885e-05 1.321687e-01)	(-1.438555e+03 -5.556146e-05 1.338841e-01)	(-1.193575e-04 -4.087386e-06 -1.715393e-03)	(-1.717859e+03 -2.492249e-03 -2.379061e+00)	(-1.717859e+03 -2.486916e-03 -2.377517e+00)	(-2.312139e-04 -5.333482e-06 -1.543614e-03)	(-1.913822e+03 -1.127546e-02 4.719394e+00)	(-1.913822e+03 -1.126925e-02 4.720918e+00)	(-1.771625e-04 -6.208357e-06 -1.524497e-03)	(-1.997665e+03 -7.938228e-04 -1.217793e+02)	(-1.997665e+03 -7.875558e-04 -1.217777e+02)	(-1.405468e-04 -6.266914e-06 -1.571747e-03)	(-2.157773e+03 -1.903410e-04 -2.347196e+02)	(-2.157773e+03 -1.833002e-04 -2.347181e+02)	(-1.491874e-04 -7.040801e-06 -1.578434e-03)	(-2.157773e+03 -2.193202e-04 -2.347196e+02)	(-2.157773e+03 -2.122677e-04 -2.347181e+02)	(-1.702062e-04 -7.052516e-06 -1.579716e-03)	(-2.157773e+03 -2.585429e-04 -2.347196e+02)	(-2.157773e+03 -2.515038e-04 -2.347181e+02)	(-1.896562e-04 -7.039123e-06 -1.580689e-03)	(-2.157773e+03 -2.990823e-04 -2.347196e+02)	(-2.157773e+03 -2.920448e-04 -2.347181e+02)	(-2.096729e-04 -7.037501e-06 -1.581419e-03)	(-2.157773e+03 -3.422886e-04 -2.347196e+02)	(-2.157773e+03 -3.351992e-04 -2.347181e+02)	(-2.306885e-04 -7.089429e-06 -1.581930e-03)	(-2.157773e+03 -3.869694e-04 -2.347196e+02)	(-2.157773e+03 -3.797661e-04 -2.347181e+02)	(-2.523604e-04 -7.203234e-06 -1.582359e-03)	(-2.157773e+03 -4.263821e-04 -2.347196e+02)	(-2.157773e+03 -4.190526e-04 -2.347181e+02)	(-2.733581e-04 -7.329482e-06 -1.582840e-03)	(-2.157773e+03 -4.388265e-04 -2.347196e+02)	(-2.157773e+03 -4.313554e-04 -2.347181e+02)	(-2.915343e-04 -7.471123e-06 -1.583319e-03)	(-2.157773e+03 -3.382752e-04 -2.347196e+02)	(-2.157773e+03 -3.307253e-04 -2.347181e+02)	(-3.037174e-04 -7.549901e-06 -1.583620e-03)	(-1.997408e+03 9.034794e-05 -3.478416e+02)	(-1.997408e+03 9.922142e-05 -3.478400e+02)	(-3.095575e-04 -8.873488e-06 -1.584305e-03)	(-1.913429e+03 3.368898e-04 -4.745446e+02)	(-1.913429e+03 3.460183e-04 -4.745430e+02)	(-3.081574e-04 -9.128533e-06 -1.585981e-03)	(-1.716969e+03 4.931058e-04 -4.676000e+02)	(-1.716969e+03 5.003747e-04 -4.675984e+02)	(-3.022459e-04 -7.268839e-06 -1.586893e-03)	(-1.437388e+03 8.537672e-05 -4.699348e+02)	(-1.437388e+03 8.650865e-05 -4.699332e+02)	(-2.998492e-04 -1.131925e-06 -1.585976e-03)	(-1.034752e+03 -3.458908e-04 -4.693912e+02)	(-1.034752e+03 -3.531618e-04 -4.693896e+02)	(-3.041979e-04 7.270952e-06 -1.587576e-03)	(3.535492e+00 -5.583952e-04 -4.697818e+02)	(3.535807e+00 -5.971355e-04 -4.697801e+02)	(-3.153294e-04 3.874022e-05 -1.670560e-03)
2803          	(-1.036560e+03 -2.879267e-05 -4.022605e-01)	(-1.036560e+03 -2.566638e-05 -4.006182e-01)	(-1.133529e-04 -3.126297e-06 -1.642288e-03)	(-1.438556e+03 -5.666277e-05 1.320765e-01)	(-1.438556e+03 -5.260011e-05 1.337975e-01)	(-1.202977e-04 -4.062654e-06 -1.721069e-03)	(-1.717859e+03 -2.486956e-03 -2.379204e+00)	(-1.717859e+03 -2.481673e-03 -2.377653e+00)	(-2.317512e-04 -5.283530e-06 -1.550149e-03)	(-1.913822e+03 -1.126762e-02 4.719199e+00)	(-1.913822e+03 -1.126149e-02 4.720730e+00)	(-1.779760e-04 -6.130497e-06 -1.530913e-03)	(-1.997665e+03 -7.832726e-04 -1.217795e+02)	(-1.997665e+03 -7.770972e-04 -1.217779e+02)	(-1.413842e-04 -6.175419e-06 -1.578115e-03)	(-2.157773e+03 -1.770394e-04 -2.347199e+02)	(-2.157773e+03 -1.701231e-04 -2.347183e+02)	(-1.500642e-04 -6.916218e-06 -1.584789e-03)	(-2.157773e+03 -2.032338e-04 -2.347199e+02)	(-2.157773e+03 -1.963055e-04 -2.347183e+02)	(-1.711109e-04 -6.928309e-06 -1.586054e-03)	(-2.157773e+03 -2.397614e-04 -2.347199e+02)	(-2.157773e+03 -2.328460e-04 -2.347183e+02)	(-1.905831e-04 -6.915428e-06 -1.587009e-03)	(-2.157773e+03 -2.776826e-04 -2.347199e+02)	(-2.157773e+03 -2.707681e-04 -2.347183e+02)	(-2.106151e-04 -6.914470e-06 -1.587725e-03)	(-2.157773e+03 -3.183425e-04 -2.347199e+02)	(-2.157773e+03 -3.113762e-04 -2.347183e+02)	(-2.316448e-04 -6.966348e-06 -1.588222e-03)	(-2.157773e+03 -3.605477e-04 -2.347199e+02)	(-2.157773e+03 -3.534682e-04 -2.347183e+02)	(-2.533423e-04 -7.079580e-06 -1.588638e-03)	(-2.157773e+03 -3.975484e-04 -2.347199e+02)	(-2.157773e+03 -3.903427e-04 -2.347183e+02)	(-2.743894e-04 -7.205735e-06 -1.589106e-03)	(-2.157773e+03 -4.076380e-04 -2.347199e+02)	(-2.157773e+03 -4.002912e-04 -2.347183e+02)	(-2.926386e-04 -7.346851e-06 -1.589580e-03)	(-2.157773e+03 -3.047950e-04 -2.347199e+02)	(-2.157773e+03 -2.973691e-04 -2.347183e+02)	(-3.049173e-04 -7.425952e-06 -1.589880e-03)	(-1.997408e+03 1.259746e-04 -3.478418e+02)	(-1.997408e+03 1.346470e-04 -3.478402e+02)	(-3.108622e-04 -8.672457e-06 -1.590559e-03)	(-1.913429e+03 3.746338e-04 -4.745449e+02)	(-1.913429e+03 3.835282e-04 -4.745433e+02)	(-3.095405e-04 -8.894450e-06 -1.592219e-03)	(-1.716969e+03 5.330058e-04 -4.676002e+02)	(-1.716969e+03 5.399957e-04 -4.675986e+02)	(-3.036229e-04 -6.989828e-06 -1.593102e-03)	(-1.437388e+03 1.271068e-04 -4.699351e+02)	(-1.437388e+03 1.278939e-04 -4.699335e+02)	(-3.011869e-04 -7.870858e-07 -1.592153e-03)	(-1.034752e+03 -3.027051e-04 -4.693915e+02)	(-1.034752e+03 -3.104312e-04 -4.693899e+02)	(-3.055773e-04 7.726191e-06 -1.593734e-03)	(3.535410e+00 -5.142321e-04 -4.697820e+02)	(3.535727e+00 -5.536375e-04 -4.697803e+02)	(-3.167270e-04 3.940542e-05 -1.676730e-03)
2804          	(-1.036560e+03 -2.767490e-05 -4.023063e-01)	(-1.036560e+03 -2.456390e-05 -4.006582e-01)	(-1.143890e-04 -3.110993e-06 -1.648079e-03)	(-1.438556e+03 -5.367779e-05 1.319790e-01)	(-1.438556e+03 -4.963759e-05 1.337060e-01)	(-1.213421e-04 -4.040194e-06 -1.726985e-03)	(-1.717859e+03 -2.481622e-03 -2.379354e+00)	(-1.717859e+03 -2.476386e-03 -2.377797e+00)	(-2.323880e-04 -5.236208e-06 -1.556915e-03)	(-1.913822e+03 -1.125966e-02 4.718994e+00)	(-1.913822e+03 -1.125360e-02 4.720532e+00)	(-1.788763e-04 -6.055999e-06 -1.537575e-03)	(-1.997666e+03 -7.724954e-04 -1.217797e+02)	(-1.997665e+03 -7.664075e-04 -1.217781e+02)	(-1.423027e-04 -6.087956e-06 -1.584728e-03)	(-2.157773e+03 -1.633755e-04 -2.347201e+02)	(-2.157773e+03 -1.565758e-04 -2.347185e+02)	(-1.510150e-04 -6.799615e-06 -1.591389e-03)	(-2.157773e+03 -1.866155e-04 -2.347201e+02)	(-2.157773e+03 -1.798034e-04 -2.347185e+02)	(-1.720863e-04 -6.812098e-06 -1.592635e-03)	(-2.157773e+03 -2.202551e-04 -2.347201e+02)	(-2.157773e+03 -2.134554e-04 -2.347185e+02)	(-1.915789e-04 -6.799726e-06 -1.593572e-03)	(-2.157773e+03 -2.553510e-04 -2.347201e+02)	(-2.157773e+03 -2.485516e-04 -2.347185e+02)	(-2.116293e-04 -6.799422e-06 -1.594272e-03)	(-2.157773e+03 -2.932532e-04 -2.347201e+02)	(-2.157773e+03 -2.864018e-04 -2.347185e+02)	(-2.326799e-04 -6.851391e-06 -1.594753e-03)	(-2.157773e+03 -3.327749e-04 -2.347201e+02)	(-2.157773e+03 -3.258109e-04 -2.347185e+02)	(-2.544148e-04 -6.964058e-06 -1.595153e-03)	(-2.157773e+03 -3.671636e-04 -2.347201e+02)	(-2.157773e+03 -3.600735e-04 -2.347185e+02)	(-2.755216e-04 -7.090056e-06 -1.595607e-03)	(-2.157773e+03 -3.747132e-04 -2.347201e+02)	(-2.157773e+03 -3.674823e-04 -2.347185e+02)	(-2.938547e-04 -7.230860e-06 -1.596075e-03)	(-2.157773e+03 -2.694050e-04 -2.347201e+02)	(-2.157773e+03 -2.620950e-04 -2.347185e+02)	(-3.062400e-04 -7.310077e-06 -1.596372e-03)	(-1.997408e+03 1.636624e-04 -3.478420e+02)	(-1.997408e+03 1.721398e-04 -3.478404e+02)	(-3.123007e-04 -8.477457e-06 -1.597045e-03)	(-1.913429e+03 4.145715e-04 -4.745451e+02)	(-1.913429e+03 4.232345e-04 -4.745435e+02)	(-3.110682e-04 -8.662979e-06 -1.598690e-03)	(-1.716969e+03 5.752196e-04 -4.676005e+02)	(-1.716969e+03 5.819290e-04 -4.675989e+02)	(-3.051583e-04 -6.709358e-06 -1.599545e-03)	(-1.437388e+03 1.712521e-04 -4.699353e+02)	(-1.437388e+03 1.716890e-04 -4.699337e+02)	(-3.026972e-04 -4.369250e-07 -1.598563e-03)	(-1.034752e+03 -2.570232e-04 -4.693917e+02)	(-1.034752e+03 -2.652136e-04 -4.693901e+02)	(-3.071370e-04 8.190377e-06 -1.600122e-03)	(3.535288e+00 -4.675306e-04 -4.697823e+02)	(3.535606e+00 -5.076130e-04 -4.697806e+02)	(-3.183071e-04 4.008245e-05 -1.683143e-03)
2805          	(-1.036560e+03 -2.639412e-05 -4.023543e-01)	(-1.036560e+03 -2.330758e-05 -4.007001e-01)	(-1.154539e-04 -3.086534e-06 -1.654162e-03)	(-1.438556e+03 -5.024335e-05 1.318765e-01)	(-1.438556e+03 -4.624035e-05 1.336097e-01)	(-1.224878e-04 -4.003004e-06 -1.733150e-03)	(-1.717859e+03 -2.475453e-03 -2.379511e+00)	(-1.717859e+03 -2.470282e-03 -2.377947e+00)	(-2.331227e-04 -5.170204e-06 -1.563919e-03)	(-1.913822e+03 -1.125042e-02 4.718780e+00)	(-1.913822e+03 -1.124445e-02 4.720325e+00)	(-1.798617e-04 -5.960772e-06 -1.544492e-03)	(-1.997666e+03 -7.599545e-04 -1.217800e+02)	(-1.997665e+03 -7.539759e-04 -1.217784e+02)	(-1.432990e-04 -5.978604e-06 -1.591592e-03)	(-2.157773e+03 -1.474133e-04 -2.347204e+02)	(-2.157773e+03 -1.407532e-04 -2.347188e+02)	(-1.520343e-04 -6.660158e-06 -1.598239e-03)	(-2.157773e+03 -1.671015e-04 -2.347204e+02)	(-2.157773e+03 -1.604286e-04 -2.347188e+02)	(-1.731219e-04 -6.672886e-06 -1.599465e-03)	(-2.157773e+03 -1.972330e-04 -2.347204e+02)	(-2.157773e+03 -1.905722e-04 -2.347188e+02)	(-1.926317e-04 -6.660835e-06 -1.600383e-03)	(-2.157773e+03 -2.288628e-04 -2.347204e+02)	(-2.157773e+03 -2.222019e-04 -2.347188e+02)	(-2.127011e-04 -6.660943e-06 -1.601066e-03)	(-2.157774e+03 -2.633543e-04 -2.347204e+02)	(-2.157773e+03 -2.566416e-04 -2.347188e+02)	(-2.337771e-04 -6.712647e-06 -1.601532e-03)	(-2.157774e+03 -2.995342e-04 -2.347204e+02)	(-2.157773e+03 -2.927094e-04 -2.347188e+02)	(-2.555540e-04 -6.824838e-06 -1.601915e-03)	(-2.157774e+03 -3.306588e-04 -2.347204e+02)	(-2.157773e+03 -3.237082e-04 -2.347188e+02)	(-2.767282e-04 -6.950553e-06 -1.602353e-03)	(-2.157774e+03 -3.350308e-04 -2.347204e+02)	(-2.157773e+03 -3.279393e-04 -2.347188e+02)	(-2.951556e-04 -7.091480e-06 -1.602812e-03)	(-2.157774e+03 -2.266336e-04 -2.347204e+02)	(-2.157773e+03 -2.194626e-04 -2.347188e+02)	(-3.076560e-04 -7.171065e-06 -1.603106e-03)	(-1.997408e+03 2.093068e-04 -3.478423e+02)	(-1.997408e+03 2.175628e-04 -3.478407e+02)	(-3.138413e-04 -8.256021e-06 -1.603773e-03)	(-1.913430e+03 4.630079e-04 -4.745454e+02)	(-1.913429e+03 4.714053e-04 -4.745438e+02)	(-3.127079e-04 -8.397361e-06 -1.605404e-03)	(-1.716969e+03 6.264270e-04 -4.676007e+02)	(-1.716969e+03 6.328103e-04 -4.675991e+02)	(-3.068203e-04 -6.383288e-06 -1.606234e-03)	(-1.437388e+03 2.248218e-04 -4.699356e+02)	(-1.437388e+03 2.248497e-04 -4.699339e+02)	(-3.043507e-04 -2.786872e-08 -1.605220e-03)	(-1.034752e+03 -2.015727e-04 -4.693920e+02)	(-1.034752e+03 -2.103019e-04 -4.693903e+02)	(-3.088476e-04 8.729208e-06 -1.606756e-03)	(3.535088e+00 -4.108429e-04 -4.697825e+02)	(3.535408e+00 -4.517052e-04 -4.697808e+02)	(-3.200429e-04 4.086231e-05 -1.689811e-03)
2806          	(-1.036560e+03 -2.506202e-05 -4.024040e-01)	(-1.036560e+03 -2.201241e-05 -4.007435e-01)	(-1.165447e-04 -3.049617e-06 -1.660530e-03)	(-1.438556e+03 -4.667427e-05 1.317703e-01)	(-1.438556e+03 -4.272510e-05 1.335099e-01)	(-1.237241e-04 -3.949164e-06 -1.739562e-03)	(-1.717859e+03 -2.469004e-03 -2.379673e+00)	(-1.717859e+03 -2.463922e-03 -2.378102e+00)	(-2.339444e-04 -5.081682e-06 -1.571150e-03)	(-1.913822e+03 -1.124069e-02 4.718560e+00)	(-1.913822e+03 -1.123485e-02 4.720112e+00)	(-1.809222e-04 -5.839770e-06 -1.551646e-03)	(-1.997666e+03 -7.466759e-04 -1.217802e+02)	(-1.997666e+03 -7.408338e-04 -1.217786e+02)	(-1.443623e-04 -5.842135e-06 -1.598692e-03)	(-2.157774e+03 -1.304203e-04 -2.347207e+02)	(-2.157773e+03 -1.239263e-04 -2.347191e+02)	(-1.531096e-04 -6.493937e-06 -1.605325e-03)	(-2.157774e+03 -1.462137e-04 -2.347207e+02)	(-2.157773e+03 -1.397068e-04 -2.347191e+02)	(-1.742062e-04 -6.506832e-06 -1.606530e-03)	(-2.157774e+03 -1.724698e-04 -2.347207e+02)	(-2.157773e+03 -1.659746e-04 -2.347191e+02)	(-1.937276e-04 -6.495195e-06 -1.607429e-03)	(-2.157774e+03 -2.002463e-04 -2.347207e+02)	(-2.157773e+03 -1.937508e-04 -2.347191e+02)	(-2.138151e-04 -6.495524e-06 -1.608095e-03)	(-2.157774e+03 -2.309317e-04 -2.347207e+02)	(-2.157773e+03 -2.243848e-04 -2.347191e+02)	(-2.349197e-04 -6.546942e-06 -1.608543e-03)	(-2.157774e+03 -2.633709e-04 -2.347207e+02)	(-2.157773e+03 -2.567122e-04 -2.347191e+02)	(-2.567466e-04 -6.658740e-06 -1.608908e-03)	(-2.157774e+03 -2.908377e-04 -2.347207e+02)	(-2.157773e+03 -2.840536e-04 -2.347191e+02)	(-2.779932e-04 -6.784106e-06 -1.609330e-03)	(-2.157774e+03 -2.916503e-04 -2.347207e+02)	(-2.157773e+03 -2.847253e-04 -2.347191e+02)	(-2.965184e-04 -6.925013e-06 -1.609779e-03)	(-2.157774e+03 -1.797964e-04 -2.347207e+02)	(-2.157773e+03 -1.727916e-04 -2.347191e+02)	(-3.091377e-04 -7.004796e-06 -1.610068e-03)	(-1.997408e+03 2.593579e-04 -3.478426e+02)	(-1.997408e+03 2.673562e-04 -3.478410e+02)	(-3.154537e-04 -7.998238e-06 -1.610728e-03)	(-1.913430e+03 5.161583e-04 -4.745456e+02)	(-1.913429e+03 5.242444e-04 -4.745440e+02)	(-3.144261e-04 -8.086102e-06 -1.612348e-03)	(-1.716969e+03 6.826221e-04 -4.676010e+02)	(-1.716969e+03 6.886193e-04 -4.675994e+02)	(-3.085735e-04 -5.997245e-06 -1.613156e-03)	(-1.437389e+03 2.836185e-04 -4.699358e+02)	(-1.437388e+03 2.831607e-04 -4.699342e+02)	(-3.061102e-04 4.578436e-07 -1.612112e-03)	(-1.034752e+03 -1.406972e-04 -4.693922e+02)	(-1.034752e+03 -1.500620e-04 -4.693906e+02)	(-3.106695e-04 9.364792e-06 -1.613626e-03)	(3.534817e+00 -3.485910e-04 -4.697828e+02)	(3.535139e+00 -3.903658e-04 -4.697811e+02)	(-3.218934e-04 4.177481e-05 -1.696720e-03)
2807          	(-1.036560e+03 -2.345358e-05 -4.024550e-01)	(-1.036560e+03 -2.045736e-05 -4.007878e-01)	(-1.176484e-04 -2.996221e-06 -1.667172e-03)	(-1.438556e+03 -4.236906e-05 1.316615e-01)	(-1.438556e+03 -3.849540e-05 1.334077e-01)	(-1.250266e-04 -3.873656e-06 -1.746214e-03)	(-1.717859e+03 -2.461202e-03 -2.379839e+00)	(-1.717859e+03 -2.456237e-03 -2.378260e+00)	(-2.348233e-04 -4.964579e-06 -1.578595e-03)	(-1.913823e+03 -1.122889e-02 4.718337e+00)	(-1.913822e+03 -1.122321e-02 4.719896e+00)	(-1.820248e-04 -5.685456e-06 -1.559024e-03)	(-1.997666e+03 -7.305129e-04 -1.217805e+02)	(-1.997666e+03 -7.248434e-04 -1.217789e+02)	(-1.454560e-04 -5.669528e-06 -1.606015e-03)	(-2.157774e+03 -1.096608e-04 -2.347209e+02)	(-2.157774e+03 -1.033759e-04 -2.347193e+02)	(-1.542021e-04 -6.284895e-06 -1.612634e-03)	(-2.157774e+03 -1.205873e-04 -2.347209e+02)	(-2.157774e+03 -1.142896e-04 -2.347193e+02)	(-1.752961e-04 -6.297792e-06 -1.613818e-03)	(-2.157774e+03 -1.419703e-04 -2.347209e+02)	(-2.157774e+03 -1.356840e-04 -2.347193e+02)	(-1.948214e-04 -6.286239e-06 -1.614697e-03)	(-2.157774e+03 -1.648709e-04 -2.347209e+02)	(-2.157774e+03 -1.585844e-04 -2.347193e+02)	(-2.149229e-04 -6.286512e-06 -1.615345e-03)	(-2.157774e+03 -1.907085e-04 -2.347209e+02)	(-2.157774e+03 -1.843709e-04 -2.347193e+02)	(-2.360560e-04 -6.337608e-06 -1.615776e-03)	(-2.157774e+03 -2.183546e-04 -2.347209e+02)	(-2.157774e+03 -2.119058e-04 -2.347193e+02)	(-2.579320e-04 -6.448786e-06 -1.616124e-03)	(-2.157774e+03 -2.411092e-04 -2.347209e+02)	(-2.157774e+03 -2.345354e-04 -2.347193e+02)	(-2.792527e-04 -6.573809e-06 -1.616530e-03)	(-2.157774e+03 -2.373166e-04 -2.347209e+02)	(-2.157774e+03 -2.306017e-04 -2.347193e+02)	(-2.978786e-04 -6.714868e-06 -1.616969e-03)	(-2.157774e+03 -1.209699e-04 -2.347209e+02)	(-2.157774e+03 -1.141750e-04 -2.347193e+02)	(-3.106194e-04 -6.794950e-06 -1.617252e-03)	(-1.997408e+03 3.223704e-04 -3.478428e+02)	(-1.997408e+03 3.300548e-04 -3.478412e+02)	(-3.170693e-04 -7.684324e-06 -1.617908e-03)	(-1.913430e+03 5.831866e-04 -4.745459e+02)	(-1.913430e+03 5.908921e-04 -4.745443e+02)	(-3.161523e-04 -7.705491e-06 -1.619519e-03)	(-1.716969e+03 7.535287e-04 -4.676012e+02)	(-1.716969e+03 7.590491e-04 -4.675996e+02)	(-3.103463e-04 -5.520387e-06 -1.620310e-03)	(-1.437389e+03 3.578551e-04 -4.699361e+02)	(-1.437389e+03 3.567943e-04 -4.699344e+02)	(-3.079046e-04 1.060722e-06 -1.619240e-03)	(-1.034753e+03 -6.379789e-05 -4.693925e+02)	(-1.034752e+03 -7.394737e-05 -4.693908e+02)	(-3.125307e-04 1.014948e-05 -1.620732e-03)	(3.534398e+00 -2.699274e-04 -4.697830e+02)	(3.534722e+00 -3.128257e-04 -4.697813e+02)	(-3.237881e-04 4.289829e-05 -1.703867e-03)
2808          	(-1.036560e+03 -2.153693e-05 -4.025072e-01)	(-1.036560e+03 -1.862071e-05 -4.008331e-01)	(-1.187597e-04 -2.916220e-06 -1.674082e-03)	(-1.438556e+03 -3.726428e-05 1.315504e-01)	(-1.438556e+03 -3.350337e-05 1.333035e-01)	(-1.263757e-04 -3.760917e-06 -1.753105e-03)	(-1.717860e+03 -2.451939e-03 -2.380007e+00)	(-1.717859e+03 -2.447139e-03 -2.378421e+00)	(-2.357361e-04 -4.800521e-06 -1.586238e-03)	(-1.913823e+03 -1.121482e-02 4.718112e+00)	(-1.913823e+03 -1.120935e-02 4.719679e+00)	(-1.831462e-04 -5.475908e-06 -1.566605e-03)	(-1.997666e+03 -7.111678e-04 -1.217807e+02)	(-1.997666e+03 -7.057308e-04 -1.217791e+02)	(-1.465550e-04 -5.437072e-06 -1.613542e-03)	(-2.157774e+03 -8.473290e-05 -2.347212e+02)	(-2.157774e+03 -7.872204e-05 -2.347196e+02)	(-1.552868e-04 -6.010857e-06 -1.620148e-03)	(-2.157774e+03 -8.969984e-05 -2.347212e+02)	(-2.157774e+03 -8.367619e-05 -2.347196e+02)	(-1.763699e-04 -6.023644e-06 -1.621311e-03)	(-2.157774e+03 -1.050875e-04 -2.347212e+02)	(-2.157774e+03 -9.907577e-05 -2.347196e+02)	(-1.958912e-04 -6.011743e-06 -1.622172e-03)	(-2.157774e+03 -1.219618e-04 -2.347212e+02)	(-2.157774e+03 -1.159501e-04 -2.347196e+02)	(-2.160015e-04 -6.011730e-06 -1.622803e-03)	(-2.157774e+03 -1.417861e-04 -2.347212e+02)	(-2.157774e+03 -1.357236e-04 -2.347196e+02)	(-2.371602e-04 -6.062517e-06 -1.623218e-03)	(-2.157774e+03 -1.634619e-04 -2.347212e+02)	(-2.157774e+03 -1.572890e-04 -2.347196e+02)	(-2.590841e-04 -6.172984e-06 -1.623549e-03)	(-2.157774e+03 -1.803185e-04 -2.347212e+02)	(-2.157774e+03 -1.740207e-04 -2.347196e+02)	(-2.804777e-04 -6.297781e-06 -1.623941e-03)	(-2.157774e+03 -1.707360e-04 -2.347212e+02)	(-2.157774e+03 -1.642973e-04 -2.347196e+02)	(-2.992021e-04 -6.438735e-06 -1.624369e-03)	(-2.157774e+03 -4.871390e-05 -2.347212e+02)	(-2.157774e+03 -4.219478e-05 -2.347196e+02)	(-3.120619e-04 -6.519119e-06 -1.624646e-03)	(-1.997409e+03 3.999365e-04 -3.478431e+02)	(-1.997408e+03 4.072205e-04 -3.478415e+02)	(-3.186458e-04 -7.283915e-06 -1.625298e-03)	(-1.913430e+03 6.658301e-04 -4.745461e+02)	(-1.913430e+03 6.730504e-04 -4.745445e+02)	(-3.178416e-04 -7.220308e-06 -1.626905e-03)	(-1.716970e+03 8.410190e-04 -4.676015e+02)	(-1.716970e+03 8.459279e-04 -4.675999e+02)	(-3.120923e-04 -4.908960e-06 -1.627683e-03)	(-1.437389e+03 4.495259e-04 -4.699363e+02)	(-1.437389e+03 4.476903e-04 -4.699347e+02)	(-3.096867e-04 1.835573e-06 -1.626592e-03)	(-1.034753e+03 3.122090e-05 -4.693927e+02)	(-1.034753e+03 2.006906e-05 -4.693911e+02)	(-3.143835e-04 1.115184e-05 -1.628065e-03)	(3.533815e+00 -1.726762e-04 -4.697833e+02)	(3.534140e+00 -2.170047e-04 -4.697816e+02)	(-3.256804e-04 4.432857e-05 -1.711242e-03)
2809          	(-1.036561e+03 -1.944000e-05 -4.025605e-01)	(-1.036560e+03 -1.662524e-05 -4.008793e-01)	(-1.198838e-04 -2.814756e-06 -1.681245e-03)	(-1.438556e+03 -3.171735e-05 1.314370e-01)	(-1.438556e+03 -2.810105e-05 1.331972e-01)	(-1.277833e-04 -3.616301e-06 -1.760225e-03)	(-1.717860e+03 -2.441910e-03 -2.380178e+00)	(-1.717860e+03 -2.437314e-03 -2.378584e+00)	(-2.367061e-04 -4.595634e-06 -1.594064e-03)	(-1.913823e+03 -1.119963e-02 4.717885e+00)	(-1.913823e+03 -1.119441e-02 4.719459e+00)	(-1.843133e-04 -5.218633e-06 -1.574369e-03)	(-1.997666e+03 -6.903303e-04 -1.217810e+02)	(-1.997666e+03 -6.851774e-04 -1.217794e+02)	(-1.476914e-04 -5.152973e-06 -1.621252e-03)	(-2.157774e+03 -5.792546e-05 -2.347215e+02)	(-2.157774e+03 -5.224525e-05 -2.347199e+02)	(-1.563990e-04 -5.680213e-06 -1.627844e-03)	(-2.157774e+03 -5.651198e-05 -2.347215e+02)	(-2.157774e+03 -5.081916e-05 -2.347199e+02)	(-1.774610e-04 -5.692818e-06 -1.628988e-03)	(-2.157774e+03 -6.547806e-05 -2.347215e+02)	(-2.157774e+03 -5.979778e-05 -2.347199e+02)	(-1.969705e-04 -5.680283e-06 -1.629830e-03)	(-2.157774e+03 -7.588957e-05 -2.347215e+02)	(-2.157774e+03 -7.020972e-05 -2.347199e+02)	(-2.170831e-04 -5.679856e-06 -1.630444e-03)	(-2.157774e+03 -8.925279e-05 -2.347215e+02)	(-2.157774e+03 -8.352284e-05 -2.347199e+02)	(-2.382626e-04 -5.729953e-06 -1.630844e-03)	(-2.157774e+03 -1.044978e-04 -2.347215e+02)	(-2.157774e+03 -9.865756e-05 -2.347199e+02)	(-2.602320e-04 -5.840246e-06 -1.631161e-03)	(-2.157774e+03 -1.149876e-04 -2.347215e+02)	(-2.157774e+03 -1.090230e-04 -2.347199e+02)	(-2.816943e-04 -5.964596e-06 -1.631540e-03)	(-2.157774e+03 -9.914218e-05 -2.347215e+02)	(-2.157774e+03 -9.303651e-05 -2.347199e+02)	(-3.005115e-04 -6.105676e-06 -1.631958e-03)	(-2.157774e+03 2.903390e-05 -2.347215e+02)	(-2.157774e+03 3.522017e-05 -2.347199e+02)	(-3.134841e-04 -6.186277e-06 -1.632229e-03)	(-1.997409e+03 4.834606e-04 -3.478434e+02)	(-1.997409e+03 4.902703e-04 -3.478418e+02)	(-3.201971e-04 -6.809665e-06 -1.632879e-03)	(-1.913430e+03 7.548639e-04 -4.745464e+02)	(-1.913430e+03 7.615064e-04 -4.745447e+02)	(-3.195025e-04 -6.642510e-06 -1.634483e-03)	(-1.716970e+03 9.352881e-04 -4.676017e+02)	(-1.716970e+03 9.394630e-04 -4.676001e+02)	(-3.138150e-04 -4.174842e-06 -1.635255e-03)	(-1.437390e+03 5.483261e-04 -4.699366e+02)	(-1.437389e+03 5.455554e-04 -4.699349e+02)	(-3.114540e-04 2.770762e-06 -1.634148e-03)	(-1.034754e+03 1.336664e-04 -4.693930e+02)	(-1.034753e+03 1.213061e-04 -4.693913e+02)	(-3.162187e-04 1.236034e-05 -1.635606e-03)	(3.533198e+00 -6.775972e-05 -4.697835e+02)	(3.533525e+00 -1.138108e-04 -4.697818e+02)	(-3.275574e-04 4.605103e-05 -1.718822e-03)
2810          	(-1.036561e+03 -1.729478e-05 -4.026153e-01)	(-1.036561e+03 -1.459920e-05 -4.009267e-01)	(-1.210228e-04 -2.695575e-06 -1.688645e-03)	(-1.438557e+03 -2.609976e-05 1.313200e-01)	(-1.438556e+03 -2.265248e-05 1.330875e-01)	(-1.292461e-04 -3.447276e-06 -1.767557e-03)	(-1.717860e+03 -2.431794e-03 -2.380353e+00)	(-1.717860e+03 -2.427435e-03 -2.378751e+00)	(-2.377308e-04 -4.359216e-06 -1.602057e-03)	(-1.913823e+03 -1.118434e-02 4.717652e+00)	(-1.913823e+03 -1.117941e-02 4.719234e+00)	(-1.855259e-04 -4.924965e-06 -1.582300e-03)	(-1.997666e+03 -6.693904e-04 -1.217813e+02)	(-1.997666e+03 -6.645606e-04 -1.217796e+02)	(-1.488680e-04 -4.829807e-06 -1.629130e-03)	(-2.157774e+03 -3.102994e-05 -2.347218e+02)	(-2.157774e+03 -2.571958e-05 -2.347202e+02)	(-1.575441e-04 -5.310361e-06 -1.635707e-03)	(-2.157774e+03 -2.325189e-05 -2.347218e+02)	(-2.157774e+03 -1.792914e-05 -2.347202e+02)	(-1.785786e-04 -5.322751e-06 -1.636832e-03)	(-2.157775e+03 -2.581650e-05 -2.347218e+02)	(-2.157774e+03 -2.050686e-05 -2.347202e+02)	(-1.980684e-04 -5.309644e-06 -1.637657e-03)	(-2.157775e+03 -2.978777e-05 -2.347218e+02)	(-2.157774e+03 -2.447902e-05 -2.347202e+02)	(-2.181756e-04 -5.308747e-06 -1.638257e-03)	(-2.157775e+03 -3.671625e-05 -2.347218e+02)	(-2.157774e+03 -3.135789e-05 -2.347202e+02)	(-2.393693e-04 -5.358368e-06 -1.638644e-03)	(-2.157775e+03 -4.555640e-05 -2.347218e+02)	(-2.157774e+03 -4.008824e-05 -2.347202e+02)	(-2.613759e-04 -5.468162e-06 -1.638949e-03)	(-2.157775e+03 -4.970287e-05 -2.347218e+02)	(-2.157774e+03 -4.411059e-05 -2.347202e+02)	(-2.828994e-04 -5.592284e-06 -1.639318e-03)	(-2.157775e+03 -2.761620e-05 -2.347218e+02)	(-2.157774e+03 -2.188285e-05 -2.347202e+02)	(-3.018009e-04 -5.733353e-06 -1.639728e-03)	(-2.157775e+03 1.066935e-04 -2.347218e+02)	(-2.157774e+03 1.125076e-04 -2.347202e+02)	(-3.148752e-04 -5.814115e-06 -1.639993e-03)	(-1.997409e+03 5.668882e-04 -3.478437e+02)	(-1.997409e+03 5.731719e-04 -3.478420e+02)	(-3.217070e-04 -6.283696e-06 -1.640641e-03)	(-1.913431e+03 8.437700e-04 -4.745466e+02)	(-1.913430e+03 8.497682e-04 -4.745450e+02)	(-3.211128e-04 -5.998162e-06 -1.642246e-03)	(-1.716970e+03 1.029381e-03 -4.676020e+02)	(-1.716970e+03 1.032731e-03 -4.676004e+02)	(-3.154858e-04 -3.350677e-06 -1.643017e-03)	(-1.437390e+03 6.469123e-04 -4.699368e+02)	(-1.437390e+03 6.430872e-04 -4.699352e+02)	(-3.131701e-04 3.825095e-06 -1.641901e-03)	(-1.034754e+03 2.358839e-04 -4.693932e+02)	(-1.034754e+03 2.221612e-04 -4.693916e+02)	(-3.179924e-04 1.372272e-05 -1.643345e-03)	(3.532624e+00 3.696373e-05 -4.697838e+02)	(3.532953e+00 -1.102538e-05 -4.697821e+02)	(-3.293694e-04 4.798911e-05 -1.726591e-03)