# Moment      
# CofR        : (0.000000e+00 0.000000e+00 0.000000e+00)
#
# Time        	(total_x total_y total_z)	(pressure_x pressure_y pressure_z)	(viscous_x viscous_y viscous_z)
2801          	(-8.914133e-04 8.430399e-02 -9.617466e-05)	(-8.902606e-04 8.434898e-02 -9.521595e-05)	(-1.152712e-06 -4.498777e-05 -9.587152e-07)
2802          	(-8.978395e-04 8.430396e-02 -1.131716e-04)	(-8.966471e-04 8.434913e-02 -1.122194e-04)	(-1.192372e-06 -4.517425e-05 -9.522086e-07)
2803          	(-9.023189e-04 8.430221e-02 -1.270180e-04)	(-9.010880e-04 8.434758e-02 -1.260785e-04)	(-1.230909e-06 -4.537069e-05 -9.395256e-07)
2804          	(-9.069140e-04 8.429949e-02 -1.423175e-04)	(-9.056465e-04 8.434507e-02 -1.413937e-04)	(-1.267510e-06 -4.557718e-05 -9.237719e-07)
2805          	(-9.124878e-04 8.429492e-02 -1.609284e-04)	(-9.111850e-04 8.434072e-02 -1.600235e-04)	(-1.302812e-06 -4.579337e-05 -9.048801e-07)
2806          	(-9.185484e-04 8.428866e-02 -1.818262e-04)	(-9.172109e-04 8.433468e-02 -1.809417e-04)	(-1.337483e-06 -4.601799e-05 -8.845260e-07)
2807          	(-9.265139e-04 8.427886e-02 -2.085266e-04)	(-9.251409e-04 8.432511e-02 -2.076643e-04)	(-1.373013e-06 -4.624908e-05 -8.623021e-07)
2808          	(-9.368083e-04 8.426512e-02 -2.417964e-04)	(-9.353958e-04 8.431160e-02 -2.409573e-04)	(-1.412450e-06 -4.648506e-05 -8.391832e-07)
2809          	(-9.479034e-04 8.425055e-02 -2.804383e-04)	(-9.464478e-04 8.429727e-02 -2.796242e-04)	(-1.455646e-06 -4.672491e-05 -8.140989e-07)
2810          	(-9.587687e-04 8.423701e-02 -3.189329e-04)	(-9.572679e-04 8.428397e-02 -3.181465e-04)	(-1.500811e-06 -4.696739e-05 -7.864599e-07)
2811          	(-9.699606e-04 8.422467e-02 -3.595024e-04)	(-9.684133e-04 8.427188e-02 -3.587477e-04)	(-1.547275e-06 -4.721288e-05 -7.546784e-07)
2812          	(-9.796151e-04 8.421647e-02 -3.958147e-04)	(-9.780214e-04 8.426393e-02 -3.950969e-04)	(-1.593718e-06 -4.746086e-05 -7.178061e-07)
2813          	(-9.885879e-04 8.421164e-02 -4.288982e-04)	(-9.869490e-04 8.425935e-02 -4.282235e-04)	(-1.638882e-06 -4.771089e-05 -6.746012e-07)
2814          	(-9.969902e-04 8.421087e-02 -4.600209e-04)	(-9.953061e-04 8.425884e-02 -4.593915e-04)	(-1.684151e-06 -4.796312e-05 -6.294145e-07)
2815          	(-1.004884e-03 8.421221e-02 -4.882786e-04)	(-1.003155e-03 8.426043e-02 -4.876968e-04)	(-1.728992e-06 -4.821776e-05 -5.817209e-07)
2816          	(-1.012343e-03 8.421414e-02 -5.142430e-04)	(-1.010569e-03 8.426262e-02 -5.137104e-04)	(-1.774135e-06 -4.847566e-05 -5.326677e-07)
2817          	(-1.021498e-03 8.421946e-02 -5.510231e-04)	(-1.019677e-03 8.426819e-02 -5.505350e-04)	(-1.820806e-06 -4.873717e-05 -4.880491e-07)
2818          	(-1.030185e-03 8.422723e-02 -5.841848e-04)	(-1.028315e-03 8.427624e-02 -5.837375e-04)	(-1.870166e-06 -4.900260e-05 -4.473276e-07)
2819          	(-1.038416e-03 8.423705e-02 -6.113917e-04)	(-1.036495e-03 8.428632e-02 -6.109822e-04)	(-1.920752e-06 -4.927188e-05 -4.095035e-07)
2820          	(-1.044388e-03 8.424912e-02 -6.211800e-04)	(-1.042416e-03 8.429866e-02 -6.208067e-04)	(-1.972035e-06 -4.954574e-05 -3.732485e-07)
2821          	(-1.050429e-03 8.426550e-02 -6.303720e-04)	(-1.048405e-03 8.431532e-02 -6.300304e-04)	(-2.024023e-06 -4.982317e-05 -3.415904e-07)
2822          	(-1.056412e-03 8.428453e-02 -6.387108e-04)	(-1.054334e-03 8.433464e-02 -6.383933e-04)	(-2.078248e-06 -5.010488e-05 -3.175037e-07)
2823          	(-1.062360e-03 8.430358e-02 -6.503295e-04)	(-1.060226e-03 8.435397e-02 -6.500299e-04)	(-2.134319e-06 -5.039115e-05 -2.996797e-07)
2824          	(-1.068166e-03 8.431988e-02 -6.663319e-04)	(-1.065974e-03 8.437056e-02 -6.660426e-04)	(-2.191023e-06 -5.068206e-05 -2.892859e-07)
2825          	(-1.073833e-03 8.433133e-02 -6.871048e-04)	(-1.071586e-03 8.438231e-02 -6.868217e-04)	(-2.246530e-06 -5.097743e-05 -2.830987e-07)
2826          	(-1.079441e-03 8.433711e-02 -7.121897e-04)	(-1.077140e-03 8.438839e-02 -7.119085e-04)	(-2.300953e-06 -5.127577e-05 -2.812771e-07)
2827          	(-1.084241e-03 8.433559e-02 -7.361560e-04)	(-1.081889e-03 8.438716e-02 -7.358778e-04)	(-2.351832e-06 -5.157424e-05 -2.782119e-07)
2828          	(-1.089068e-03 8.433003e-02 -7.622679e-04)	(-1.086667e-03 8.438190e-02 -7.619936e-04)	(-2.400551e-06 -5.187094e-05 -2.742833e-07)
2829          	(-1.093922e-03 8.432010e-02 -7.902740e-04)	(-1.091475e-03 8.437227e-02 -7.900064e-04)	(-2.446529e-06 -5.216379e-05 -2.675176e-07)
2830          	(-1.098817e-03 8.430529e-02 -8.202947e-04)	(-1.096327e-03 8.435774e-02 -8.200374e-04)	(-2.490479e-06 -5.245141e-05 -2.572824e-07)
2831          	(-1.103818e-03 8.428593e-02 -8.516967e-04)	(-1.101286e-03 8.433866e-02 -8.514541e-04)	(-2.531769e-06 -5.273228e-05 -2.426013e-07)
2832          	(-1.109797e-03 8.425998e-02 -8.861668e-04)	(-1.107224e-03 8.431299e-02 -8.859417e-04)	(-2.573032e-06 -5.300472e-05 -2.250968e-07)
2833          	(-1.115954e-03 8.423155e-02 -9.219625e-04)	(-1.113340e-03 8.428482e-02 -9.217581e-04)	(-2.614407e-06 -5.326685e-05 -2.043748e-07)
2834          	(-1.128984e-03 8.408741e-02 -9.831771e-04)	(-1.126308e-03 8.414095e-02 -9.830099e-04)	(-2.676131e-06 -5.353934e-05 -1.671509e-07)
2835          	(-1.141289e-03 8.392894e-02 -1.043767e-03)	(-1.138540e-03 8.398275e-02 -1.043650e-03)	(-2.749171e-06 -5.380704e-05 -1.166311e-07)
2836          	(-1.149974e-03 8.376164e-02 -1.087437e-03)	(-1.147156e-03 8.381569e-02 -1.087374e-03)	(-2.817988e-06 -5.405578e-05 -6.216947e-08)
2837          	(-1.156835e-03 8.360767e-02 -1.123801e-03)	(-1.153962e-03 8.366195e-02 -1.123792e-03)	(-2.873053e-06 -5.427183e-05 -9.241108e-09)
2838          	(-1.157629e-03 8.367380e-02 -1.130684e-03)	(-1.154748e-03 8.372819e-02 -1.130707e-03)	(-2.881287e-06 -5.439484e-05 2.282764e-08)
2839          	(-1.151932e-03 8.360010e-02 -1.139045e-03)	(-1.149050e-03 8.365460e-02 -1.139091e-03)	(-2.881483e-06 -5.449750e-05 4.627032e-08)
2840          	(-1.144818e-03 8.362137e-02 -1.130251e-03)	(-1.141951e-03 8.367592e-02 -1.130309e-03)	(-2.867307e-06 -5.455033e-05 5.758058e-08)
2841          	(-1.136928e-03 8.376983e-02 -1.106645e-03)	(-1.134095e-03 8.382438e-02 -1.106708e-03)	(-2.832978e-06 -5.454477e-05 6.250735e-08)
2842          	(-1.138196e-03 8.381346e-02 -1.102306e-03)	(-1.135376e-03 8.386799e-02 -1.102382e-03)	(-2.820038e-06 -5.453555e-05 7.655715e-08)
2843          	(-1.138137e-03 8.386260e-02 -1.101196e-03)	(-1.135313e-03 8.391712e-02 -1.101289e-03)	(-2.823839e-06 -5.451312e-05 9.333155e-08)
2844          	(-1.135801e-03 8.391081e-02 -1.103205e-03)	(-1.132973e-03 8.396528e-02 -1.103316e-03)	(-2.828026e-06 -5.447565e-05 1.108569e-07)
2845          	(-1.131561e-03 8.396519e-02 -1.108207e-03)	(-1.128736e-03 8.401961e-02 -1.108329e-03)	(-2.825140e-06 -5.441686e-05 1.213946e-07)
2846          	(-1.122229e-03 8.414322e-02 -1.111557e-03)	(-1.119437e-03 8.419752e-02 -1.111672e-03)	(-2.791644e-06 -5.430279e-05 1.153977e-07)
2847          	(-1.119140e-03 8.416626e-02 -1.115565e-03)	(-1.116373e-03 8.422044e-02 -1.115684e-03)	(-2.766856e-06 -5.418549e-05 1.189782e-07)
2848          	(-1.115771e-03 8.418371e-02 -1.116693e-03)	(-1.113022e-03 8.423776e-02 -1.116820e-03)	(-2.749096e-06 -5.404702e-05 1.272470e-07)
2849          	(-1.111126e-03 8.419781e-02 -1.113988e-03)	(-1.108398e-03 8.425169e-02 -1.114123e-03)	(-2.728440e-06 -5.388069e-05 1.342156e-07)
2850          	(-1.105184e-03 8.420848e-02 -1.107692e-03)	(-1.102483e-03 8.426216e-02 -1.107829e-03)	(-2.700715e-06 -5.367957e-05 1.372186e-07)
2851          	(-1.098285e-03 8.421591e-02 -1.098399e-03)	(-1.095620e-03 8.426935e-02 -1.098532e-03)	(-2.665335e-06 -5.344008e-05 1.334004e-07)
2852          	(-1.090930e-03 8.422044e-02 -1.087280e-03)	(-1.088308e-03 8.427361e-02 -1.087405e-03)	(-2.622238e-06 -5.316245e-05 1.257004e-07)
2853          	(-1.083540e-03 8.422286e-02 -1.075171e-03)	(-1.080966e-03 8.427571e-02 -1.075283e-03)	(-2.574564e-06 -5.285048e-05 1.129500e-07)
2854          	(-1.074510e-03 8.422767e-02 -1.060739e-03)	(-1.071989e-03 8.428018e-02 -1.060836e-03)	(-2.521079e-06 -5.250732e-05 9.761765e-08)
2855          	(-1.066002e-03 8.423067e-02 -1.047584e-03)	(-1.063538e-03 8.428281e-02 -1.047664e-03)	(-2.464278e-06 -5.213727e-05 8.018055e-08)
2856          	(-1.057937e-03 8.423287e-02 -1.035721e-03)	(-1.055532e-03 8.428461e-02 -1.035787e-03)	(-2.405001e-06 -5.174320e-05 6.615207e-08)
2857          	(-1.050187e-03 8.423545e-02 -1.024420e-03)	(-1.047844e-03 8.428677e-02 -1.024476e-03)	(-2.343450e-06 -5.132673e-05 5.661788e-08)
2858          	(-1.042674e-03 8.423934e-02 -1.012635e-03)	(-1.040395e-03 8.429023e-02 -1.012689e-03)	(-2.279567e-06 -5.088988e-05 5.362033e-08)
2859          	(-1.035401e-03 8.424424e-02 -9.991659e-04)	(-1.033187e-03 8.429468e-02 -9.992258e-04)	(-2.213899e-06 -5.043855e-05 5.991267e-08)
2860          	(-1.028104e-03 8.424692e-02 -9.792216e-04)	(-1.025957e-03 8.429690e-02 -9.792965e-04)	(-2.147294e-06 -4.998051e-05 7.488086e-08)
2861          	(-1.024658e-03 8.420482e-02 -9.656296e-04)	(-1.022567e-03 8.425434e-02 -9.657337e-04)	(-2.090609e-06 -4.952821e-05 1.041141e-07)
2862          	(-1.018282e-03 8.417854e-02 -9.428748e-04)	(-1.016246e-03 8.422761e-02 -9.430197e-04)	(-2.035935e-06 -4.907470e-05 1.448805e-07)
2863          	(-1.002502e-03 8.419553e-02 -8.963755e-04)	(-1.000538e-03 8.424414e-02 -8.965589e-04)	(-1.963659e-06 -4.861426e-05 1.833994e-07)
2864          	(-9.889947e-04 8.423565e-02 -8.516297e-04)	(-9.871164e-04 8.428380e-02 -8.518408e-04)	(-1.878279e-06 -4.814616e-05 2.111611e-07)
2865          	(-9.772754e-04 8.426785e-02 -8.063546e-04)	(-9.754793e-04 8.431554e-02 -8.065886e-04)	(-1.796125e-06 -4.768679e-05 2.340077e-07)
2866          	(-9.682763e-04 8.429779e-02 -7.717551e-04)	(-9.665538e-04 8.434504e-02 -7.720051e-04)	(-1.722530e-06 -4.724128e-05 2.500118e-07)
2867          	(-9.618176e-04 8.435396e-02 -7.341890e-04)	(-9.601593e-04 8.440076e-02 -7.344492e-04)	(-1.658251e-06 -4.680352e-05 2.602645e-07)
2868          	(-9.546517e-04 8.438298e-02 -7.082185e-04)	(-9.530465e-04 8.442937e-02 -7.084846e-04)	(-1.605152e-06 -4.639215e-05 2.661215e-07)
2869          	(-9.487961e-04 8.440847e-02 -6.856336e-04)	(-9.472346e-04 8.445448e-02 -6.859023e-04)	(-1.561597e-06 -4.600865e-05 2.687003e-07)
2870          	(-9.431682e-04 8.443148e-02 -6.621942e-04)	(-9.416406e-04 8.447714e-02 -6.624611e-04)	(-1.527614e-06 -4.565276e-05 2.669622e-07)
2871          	(-9.402200e-04 8.444824e-02 -6.431396e-04)	(-9.387156e-04 8.449356e-02 -6.434007e-04)	(-1.504368e-06 -4.532532e-05 2.610828e-07)
2872          	(-9.369220e-04 8.446273e-02 -6.234377e-04)	(-9.354331e-04 8.450775e-02 -6.236932e-04)	(-1.488866e-06 -4.502624e-05 2.555160e-07)
2873          	(-9.332760e-04 8.447518e-02 -6.023123e-04)	(-9.317983e-04 8.451993e-02 -6.025636e-04)	(-1.477642e-06 -4.475543e-05 2.512215e-07)
2874          	(-9.292609e-04 8.448620e-02 -5.754967e-04)	(-9.277905e-04 8.453071e-02 -5.757437e-04)	(-1.470398e-06 -4.451254e-05 2.470050e-07)
2875          	(-9.226117e-04 8.449568e-02 -5.393869e-04)	(-9.211472e-04 8.453998e-02 -5.396309e-04)	(-1.464492e-06 -4.429652e-05 2.440272e-07)
2876          	(-9.155164e-04 8.450231e-02 -5.002036e-04)	(-9.140572e-04 8.454641e-02 -5.004454e-04)	(-1.459212e-06 -4.410543e-05 2.417656e-07)
2877          	(-9.079369e-04 8.450620e-02 -4.583138e-04)	(-9.064831e-04 8.455014e-02 -4.585512e-04)	(-1.453834e-06 -4.393789e-05 2.374035e-07)
2878          	(-9.012459e-04 8.450782e-02 -4.175692e-04)	(-8.997970e-04 8.455161e-02 -4.177995e-04)	(-1.448853e-06 -4.379226e-05 2.303589e-07)
2879          	(-8.939353e-04 8.450758e-02 -3.740828e-04)	(-8.924915e-04 8.455125e-02 -3.743019e-04)	(-1.443838e-06 -4.366687e-05 2.191378e-07)
2880          	(-8.859725e-04 8.450590e-02 -3.283832e-04)	(-8.845358e-04 8.454946e-02 -3.285854e-04)	(-1.436687e-06 -4.355962e-05 2.022216e-07)
2881          	(-8.758627e-04 8.450383e-02 -2.762915e-04)	(-8.744385e-04 8.454730e-02 -2.764720e-04)	(-1.424114e-06 -4.346862e-05 1.805531e-07)
2882          	(-8.623442e-04 8.450354e-02 -2.099965e-04)	(-8.609431e-04 8.454693e-02 -2.101520e-04)	(-1.401105e-06 -4.339058e-05 1.555348e-07)
2883          	(-8.523195e-04 8.457459e-02 -1.659803e-04)	(-8.509547e-04 8.461790e-02 -1.660934e-04)	(-1.364843e-06 -4.330722e-05 1.131553e-07)
2884          	(-8.426135e-04 8.465940e-02 -1.186470e-04)	(-8.412910e-04 8.470262e-02 -1.187104e-04)	(-1.322504e-06 -4.322472e-05 6.339223e-08)
2885          	(-8.338701e-04 8.474350e-02 -7.672687e-05)	(-8.325913e-04 8.478666e-02 -7.673219e-05)	(-1.278809e-06 -4.315084e-05 5.321060e-09)
2886          	(-8.262863e-04 8.482944e-02 -3.501911e-05)	(-8.250486e-04 8.487253e-02 -3.495737e-05)	(-1.237666e-06 -4.309003e-05 -6.173667e-08)
2887          	(-8.208908e-04 8.490522e-02 2.025528e-06)	(-8.196877e-04 8.494827e-02 2.162328e-06)	(-1.203125e-06 -4.304826e-05 -1.367998e-07)
2888          	(-8.155519e-04 8.491230e-02 2.027677e-05)	(-8.143701e-04 8.495534e-02 2.050075e-05)	(-1.181715e-06 -4.303697e-05 -2.239868e-07)
2889          	(-8.121232e-04 8.491691e-02 2.795393e-05)	(-8.109593e-04 8.495995e-02 2.827510e-05)	(-1.163838e-06 -4.304599e-05 -3.211728e-07)
2890          	(-8.103611e-04 8.492235e-02 2.871746e-05)	(-8.092148e-04 8.496542e-02 2.914028e-05)	(-1.146304e-06 -4.306865e-05 -4.228161e-07)
2891          	(-8.103994e-04 8.492550e-02 2.388200e-05)	(-8.092722e-04 8.496860e-02 2.440379e-05)	(-1.127167e-06 -4.309951e-05 -5.217909e-07)
2892          	(-8.279539e-04 8.453818e-02 -4.107108e-06)	(-8.267801e-04 8.458142e-02 -3.540737e-06)	(-1.173792e-06 -4.323447e-05 -5.663715e-07)
2893          	(-8.259001e-04 8.458778e-02 -1.255542e-05)	(-8.247221e-04 8.463107e-02 -1.192692e-05)	(-1.178015e-06 -4.329380e-05 -6.285000e-07)
2894          	(-8.390981e-04 8.425275e-02 -3.780611e-05)	(-8.378949e-04 8.429616e-02 -3.715808e-05)	(-1.203203e-06 -4.341122e-05 -6.480253e-07)
2895          	(-8.335604e-04 8.429629e-02 -3.893218e-05)	(-8.323846e-04 8.433973e-02 -3.823961e-05)	(-1.175836e-06 -4.343690e-05 -6.925720e-07)
2896          	(-8.287431e-04 8.433019e-02 -3.116190e-05)	(-8.276360e-04 8.437361e-02 -3.042128e-05)	(-1.107063e-06 -4.342260e-05 -7.406136e-07)
2897          	(-8.252136e-04 8.435772e-02 -1.598052e-05)	(-8.241810e-04 8.440111e-02 -1.519585e-05)	(-1.032607e-06 -4.338742e-05 -7.846744e-07)
2898          	(-8.229479e-04 8.433020e-02 3.985332e-07)	(-8.219804e-04 8.437356e-02 1.213309e-06)	(-9.674451e-07 -4.336050e-05 -8.147762e-07)
2899          	(-8.219080e-04 8.431330e-02 2.116501e-05)	(-8.209878e-04 8.435665e-02 2.199465e-05)	(-9.202222e-07 -4.335042e-05 -8.296390e-07)
2900          	(-8.216517e-04 8.430568e-02 4.292892e-05)	(-8.207606e-04 8.434904e-02 4.376129e-05)	(-8.911552e-07 -4.336345e-05 -8.323619e-07)
2901          	(-8.218634e-04 8.430780e-02 6.286550e-05)	(-8.209848e-04 8.435120e-02 6.369413e-05)	(-8.786397e-07 -4.340204e-05 -8.286332e-07)
2902          	(-8.222727e-04 8.431729e-02 7.861262e-05)	(-8.213963e-04 8.436075e-02 7.943583e-05)	(-8.764209e-07 -4.346411e-05 -8.232040e-07)
2903          	(-8.228412e-04 8.433029e-02 8.866367e-05)	(-8.219614e-04 8.437383e-02 8.948498e-05)	(-8.798644e-07 -4.354562e-05 -8.213120e-07)
2904          	(-8.318315e-04 8.416505e-02 7.617199e-05)	(-8.309129e-04 8.420874e-02 7.697398e-05)	(-9.186114e-07 -4.369613e-05 -8.019903e-07)
2905          	(-8.331433e-04 8.421382e-02 8.791747e-05)	(-8.322096e-04 8.425764e-02 8.871186e-05)	(-9.336375e-07 -4.381859e-05 -7.943934e-07)
2906          	(-8.325437e-04 8.421258e-02 8.768276e-05)	(-8.316122e-04 8.425652e-02 8.848216e-05)	(-9.315431e-07 -4.393666e-05 -7.994009e-07)
