# Moment      
# CofR        : (0.000000e+00 0.000000e+00 0.000000e+00)
#
# Time        	(total_x total_y total_z)	(pressure_x pressure_y pressure_z)	(viscous_x viscous_y viscous_z)
2801          	(-8.914133e-04 8.430399e-02 -9.617466e-05)	(-8.902606e-04 8.434898e-02 -9.521595e-05)	(-1.152712e-06 -4.498777e-05 -9.587152e-07)
2802          	(-8.978395e-04 8.430396e-02 -1.131716e-04)	(-8.966471e-04 8.434913e-02 -1.122194e-04)	(-1.192372e-06 -4.517425e-05 -9.522086e-07)
2803          	(-9.023189e-04 8.430221e-02 -1.270180e-04)	(-9.010880e-04 8.434758e-02 -1.260785e-04)	(-1.230909e-06 -4.537069e-05 -9.395256e-07)
2804          	(-9.069140e-04 8.429949e-02 -1.423175e-04)	(-9.056465e-04 8.434507e-02 -1.413937e-04)	(-1.267510e-06 -4.557718e-05 -9.237719e-07)
2805          	(-9.124878e-04 8.429492e-02 -1.609284e-04)	(-9.111850e-04 8.434072e-02 -1.600235e-04)	(-1.302812e-06 -4.579337e-05 -9.048801e-07)
2806          	(-9.185484e-04 8.428866e-02 -1.818262e-04)	(-9.172109e-04 8.433468e-02 -1.809417e-04)	(-1.337483e-06 -4.601799e-05 -8.845260e-07)
2807          	(-9.265139e-04 8.427886e-02 -2.085266e-04)	(-9.251409e-04 8.432511e-02 -2.076643e-04)	(-1.373013e-06 -4.624908e-05 -8.623021e-07)
2808          	(-9.368083e-04 8.426512e-02 -2.417964e-04)	(-9.353958e-04 8.431160e-02 -2.409573e-04)	(-1.412450e-06 -4.648506e-05 -8.391832e-07)
2809          	(-9.479034e-04 8.425055e-02 -2.804383e-04)	(-9.464478e-04 8.429727e-02 -2.796242e-04)	(-1.455646e-06 -4.672491e-05 -8.140989e-07)
2810          	(-9.587687e-04 8.423701e-02 -3.189329e-04)	(-9.572679e-04 8.428397e-02 -3.181465e-04)	(-1.500811e-06 -4.696739e-05 -7.864599e-07)
2811          	(-9.699606e-04 8.422467e-02 -3.595024e-04)	(-9.684133e-04 8.427188e-02 -3.587477e-04)	(-1.547275e-06 -4.721288e-05 -7.546784e-07)
2812          	(-9.796151e-04 8.421647e-02 -3.958147e-04)	(-9.780214e-04 8.426393e-02 -3.950969e-04)	(-1.593718e-06 -4.746086e-05 -7.178061e-07)
2813          	(-9.885879e-04 8.421164e-02 -4.288982e-04)	(-9.869490e-04 8.425935e-02 -4.282235e-04)	(-1.638882e-06 -4.771089e-05 -6.746012e-07)
2814          	(-9.969902e-04 8.421087e-02 -4.600209e-04)	(-9.953061e-04 8.425884e-02 -4.593915e-04)	(-1.684151e-06 -4.796312e-05 -6.294145e-07)
2815          	(-1.004884e-03 8.421221e-02 -4.882786e-04)	(-1.003155e-03 8.426043e-02 -4.876968e-04)	(-1.728992e-06 -4.821776e-05 -5.817209e-07)
2816          	(-1.012343e-03 8.421414e-02 -5.142430e-04)	(-1.010569e-03 8.426262e-02 -5.137104e-04)	(-1.774135e-06 -4.847566e-05 -5.326677e-07)
2817          	(-1.021498e-03 8.421946e-02 -5.510231e-04)	(-1.019677e-03 8.426819e-02 -5.505350e-04)	(-1.820806e-06 -4.873717e-05 -4.880491e-07)
2818          	(-1.030185e-03 8.422723e-02 -5.841848e-04)	(-1.028315e-03 8.427624e-02 -5.837375e-04)	(-1.870166e-06 -4.900260e-05 -4.473276e-07)
2819          	(-1.038416e-03 8.423705e-02 -6.113917e-04)	(-1.036495e-03 8.428632e-02 -6.109822e-04)	(-1.920752e-06 -4.927188e-05 -4.095035e-07)
2820          	(-1.044388e-03 8.424912e-02 -6.211800e-04)	(-1.042416e-03 8.429866e-02 -6.208067e-04)	(-1.972035e-06 -4.954574e-05 -3.732485e-07)
2821          	(-1.050429e-03 8.426550e-02 -6.303720e-04)	(-1.048405e-03 8.431532e-02 -6.300304e-04)	(-2.024023e-06 -4.982317e-05 -3.415904e-07)
2822          	(-1.056412e-03 8.428453e-02 -6.387108e-04)	(-1.054334e-03 8.433464e-02 -6.383933e-04)	(-2.078248e-06 -5.010488e-05 -3.175037e-07)
2823          	(-1.062360e-03 8.430358e-02 -6.503295e-04)	(-1.060226e-03 8.435397e-02 -6.500299e-04)	(-2.134319e-06 -5.039115e-05 -2.996797e-07)
2824          	(-1.068166e-03 8.431988e-02 -6.663319e-04)	(-1.065974e-03 8.437056e-02 -6.660426e-04)	(-2.191023e-06 -5.068206e-05 -2.892859e-07)
2825          	(-1.073833e-03 8.433133e-02 -6.871048e-04)	(-1.071586e-03 8.438231e-02 -6.868217e-04)	(-2.246530e-06 -5.097743e-05 -2.830987e-07)
2826          	(-1.079441e-03 8.433711e-02 -7.121897e-04)	(-1.077140e-03 8.438839e-02 -7.119085e-04)	(-2.300953e-06 -5.127577e-05 -2.812771e-07)
2827          	(-1.084241e-03 8.433559e-02 -7.361560e-04)	(-1.081889e-03 8.438716e-02 -7.358778e-04)	(-2.351832e-06 -5.157424e-05 -2.782119e-07)
2828          	(-1.089068e-03 8.433003e-02 -7.622679e-04)	(-1.086667e-03 8.438190e-02 -7.619936e-04)	(-2.400551e-06 -5.187094e-05 -2.742833e-07)
2829          	(-1.093922e-03 8.432010e-02 -7.902740e-04)	(-1.091475e-03 8.437227e-02 -7.900064e-04)	(-2.446529e-06 -5.216379e-05 -2.675176e-07)
2830          	(-1.098817e-03 8.430529e-02 -8.202947e-04)	(-1.096327e-03 8.435774e-02 -8.200374e-04)	(-2.490479e-06 -5.245141e-05 -2.572824e-07)
2831          	(-1.103818e-03 8.428593e-02 -8.516967e-04)	(-1.101286e-03 8.433866e-02 -8.514541e-04)	(-2.531769e-06 -5.273228e-05 -2.426013e-07)
2832          	(-1.109797e-03 8.425998e-02 -8.861668e-04)	(-1.107224e-03 8.431299e-02 -8.859417e-04)	(-2.573032e-06 -5.300472e-05 -2.250968e-07)
2833          	(-1.115954e-03 8.423155e-02 -9.219625e-04)	(-1.113340e-03 8.428482e-02 -9.217581e-04)	(-2.614407e-06 -5.326685e-05 -2.043748e-07)
2834          	(-1.128984e-03 8.408741e-02 -9.831771e-04)	(-1.126308e-03 8.414095e-02 -9.830099e-04)	(-2.676131e-06 -5.353934e-05 -1.671509e-07)
2835          	(-1.141289e-03 8.392894e-02 -1.043767e-03)	(-1.138540e-03 8.398275e-02 -1.043650e-03)	(-2.749171e-06 -5.380704e-05 -1.166311e-07)
2836          	(-1.149974e-03 8.376164e-02 -1.087437e-03)	(-1.147156e-03 8.381569e-02 -1.087374e-03)	(-2.817988e-06 -5.405578e-05 -6.216947e-08)
2837          	(-1.156835e-03 8.360767e-02 -1.123801e-03)	(-1.153962e-03 8.366195e-02 -1.123792e-03)	(-2.873053e-06 -5.427183e-05 -9.241108e-09)
2838          	(-1.157629e-03 8.367380e-02 -1.130684e-03)	(-1.154748e-03 8.372819e-02 -1.130707e-03)	(-2.881287e-06 -5.439484e-05 2.282764e-08)
2839          	(-1.151932e-03 8.360010e-02 -1.139045e-03)	(-1.149050e-03 8.365460e-02 -1.139091e-03)	(-2.881483e-06 -5.449750e-05 4.627032e-08)
2840          	(-1.144818e-03 8.362137e-02 -1.130251e-03)	(-1.141951e-03 8.367592e-02 -1.130309e-03)	(-2.867307e-06 -5.455033e-05 5.758058e-08)
2841          	(-1.136928e-03 8.376983e-02 -1.106645e-03)	(-1.134095e-03 8.382438e-02 -1.106708e-03)	(-2.832978e-06 -5.454477e-05 6.250735e-08)
2842          	(-1.138196e-03 8.381346e-02 -1.102306e-03)	(-1.135376e-03 8.386799e-02 -1.102382e-03)	(-2.820038e-06 -5.453555e-05 7.655715e-08)
2843          	(-1.138137e-03 8.386260e-02 -1.101196e-03)	(-1.135313e-03 8.391712e-02 -1.101289e-03)	(-2.823839e-06 -5.451312e-05 9.333155e-08)
2844          	(-1.135801e-03 8.391081e-02 -1.103205e-03)	(-1.132973e-03 8.396528e-02 -1.103316e-03)	(-2.828026e-06 -5.447565e-05 1.108569e-07)
2845          	(-1.131561e-03 8.396519e-02 -1.108207e-03)	(-1.128736e-03 8.401961e-02 -1.108329e-03)	(-2.825140e-06 -5.441686e-05 1.213946e-07)
2846          	(-1.122229e-03 8.414322e-02 -1.111557e-03)	(-1.119437e-03 8.419752e-02 -1.111672e-03)	(-2.791644e-06 -5.430279e-05 1.153977e-07)
2847          	(-1.119140e-03 8.416626e-02 -1.115565e-03)	(-1.116373e-03 8.422044e-02 -1.115684e-03)	(-2.766856e-06 -5.418549e-05 1.189782e-07)
2848          	(-1.115771e-03 8.418371e-02 -1.116693e-03)	(-1.113022e-03 8.423776e-02 -1.116820e-03)	(-2.749096e-06 -5.404702e-05 1.272470e-07)
2849          	(-1.111126e-03 8.419781e-02 -1.113988e-03)	(-1.108398e-03 8.425169e-02 -1.114123e-03)	(-2.728440e-06 -5.388069e-05 1.342156e-07)
2850          	(-1.105184e-03 8.420848e-02 -1.107692e-03)	(-1.102483e-03 8.426216e-02 -1.107829e-03)	(-2.700715e-06 -5.367957e-05 1.372186e-07)
2851          	(-1.098285e-03 8.421591e-02 -1.098399e-03)	(-1.095620e-03 8.426935e-02 -1.098532e-03)	(-2.665335e-06 -5.344008e-05 1.334004e-07)
2852          	(-1.090930e-03 8.422044e-02 -1.087280e-03)	(-1.088308e-03 8.427361e-02 -1.087405e-03)	(-2.622238e-06 -5.316245e-05 1.257004e-07)
2853          	(-1.083540e-03 8.422286e-02 -1.075171e-03)	(-1.080966e-03 8.427571e-02 -1.075283e-03)	(-2.574564e-06 -5.285048e-05 1.129500e-07)
2854          	(-1.074510e-03 8.422767e-02 -1.060739e-03)	(-1.071989e-03 8.428018e-02 -1.060836e-03)	(-2.521079e-06 -5.250732e-05 9.761765e-08)
2855          	(-1.066002e-03 8.423067e-02 -1.047584e-03)	(-1.063538e-03 8.428281e-02 -1.047664e-03)	(-2.464278e-06 -5.213727e-05 8.018055e-08)
2856          	(-1.057937e-03 8.423287e-02 -1.035721e-03)	(-1.055532e-03 8.428461e-02 -1.035787e-03)	(-2.405001e-06 -5.174320e-05 6.615207e-08)
2857          	(-1.050187e-03 8.423545e-02 -1.024420e-03)	(-1.047844e-03 8.428677e-02 -1.024476e-03)	(-2.343450e-06 -5.132673e-05 5.661788e-08)
2858          	(-1.042674e-03 8.423934e-02 -1.012635e-03)	(-1.040395e-03 8.429023e-02 -1.012689e-03)	(-2.279567e-06 -5.088988e-05 5.362033e-08)
2859          	(-1.035401e-03 8.424424e-02 -9.991659e-04)	(-1.033187e-03 8.429468e-02 -9.992258e-04)	(-2.213899e-06 -5.043855e-05 5.991267e-08)
2860          	(-1.028104e-03 8.424692e-02 -9.792216e-04)	(-1.025957e-03 8.429690e-02 -9.792965e-04)	(-2.147294e-06 -4.998051e-05 7.488086e-08)
2861          	(-1.024658e-03 8.420482e-02 -9.656296e-04)	(-1.022567e-03 8.425434e-02 -9.657337e-04)	(-2.090609e-06 -4.952821e-05 1.041141e-07)
2862          	(-1.018282e-03 8.417854e-02 -9.428748e-04)	(-1.016246e-03 8.422761e-02 -9.430197e-04)	(-2.035935e-06 -4.907470e-05 1.448805e-07)
2863          	(-1.002502e-03 8.419553e-02 -8.963755e-04)	(-1.000538e-03 8.424414e-02 -8.965589e-04)	(-1.963659e-06 -4.861426e-05 1.833994e-07)
2864          	(-9.889947e-04 8.423565e-02 -8.516297e-04)	(-9.871164e-04 8.428380e-02 -8.518408e-04)	(-1.878279e-06 -4.814616e-05 2.111611e-07)
2865          	(-9.772754e-04 8.426785e-02 -8.063546e-04)	(-9.754793e-04 8.431554e-02 -8.065886e-04)	(-1.796125e-06 -4.768679e-05 2.340077e-07)
2866          	(-9.682763e-04 8.429779e-02 -7.717551e-04)	(-9.665538e-04 8.434504e-02 -7.720051e-04)	(-1.722530e-06 -4.724128e-05 2.500118e-07)
2867          	(-9.618176e-04 8.435396e-02 -7.341890e-04)	(-9.601593e-04 8.440076e-02 -7.344492e-04)	(-1.658251e-06 -4.680352e-05 2.602645e-07)
2868          	(-9.546517e-04 8.438298e-02 -7.082185e-04)	(-9.530465e-04 8.442937e-02 -7.084846e-04)	(-1.605152e-06 -4.639215e-05 2.661215e-07)
2869          	(-9.487961e-04 8.440847e-02 -6.856336e-04)	(-9.472346e-04 8.445448e-02 -6.859023e-04)	(-1.561597e-06 -4.600865e-05 2.687003e-07)
2870          	(-9.431682e-04 8.443148e-02 -6.621942e-04)	(-9.416406e-04 8.447714e-02 -6.624611e-04)	(-1.527614e-06 -4.565276e-05 2.669622e-07)
2871          	(-9.402200e-04 8.444824e-02 -6.431396e-04)	(-9.387156e-04 8.449356e-02 -6.434007e-04)	(-1.504368e-06 -4.532532e-05 2.610828e-07)
2872          	(-9.369220e-04 8.446273e-02 -6.234377e-04)	(-9.354331e-04 8.450775e-02 -6.236932e-04)	(-1.488866e-06 -4.502624e-05 2.555160e-07)
2873          	(-9.332760e-04 8.447518e-02 -6.023123e-04)	(-9.317983e-04 8.451993e-02 -6.025636e-04)	(-1.477642e-06 -4.475543e-05 2.512215e-07)
2874          	(-9.292609e-04 8.448620e-02 -5.754967e-04)	(-9.277905e-04 8.453071e-02 -5.757437e-04)	(-1.470398e-06 -4.451254e-05 2.470050e-07)
2875          	(-9.226117e-04 8.449568e-02 -5.393869e-04)	(-9.211472e-04 8.453998e-02 -5.396309e-04)	(-1.464492e-06 -4.429652e-05 2.440272e-07)
2876          	(-9.155164e-04 8.450231e-02 -5.002036e-04)	(-9.140572e-04 8.454641e-02 -5.004454e-04)	(-1.459212e-06 -4.410543e-05 2.417656e-07)
2877          	(-9.079369e-04 8.450620e-02 -4.583138e-04)	(-9.064831e-04 8.455014e-02 -4.585512e-04)	(-1.453834e-06 -4.393789e-05 2.374035e-07)
2878          	(-9.012459e-04 8.450782e-02 -4.175692e-04)	(-8.997970e-04 8.455161e-02 -4.177995e-04)	(-1.448853e-06 -4.379226e-05 2.303589e-07)
2879          	(-8.939353e-04 8.450758e-02 -3.740828e-04)	(-8.924915e-04 8.455125e-02 -3.743019e-04)	(-1.443838e-06 -4.366687e-05 2.191378e-07)
2880          	(-8.859725e-04 8.450590e-02 -3.283832e-04)	(-8.845358e-04 8.454946e-02 -3.285854e-04)	(-1.436687e-06 -4.355962e-05 2.022216e-07)
2881          	(-8.758627e-04 8.450383e-02 -2.762915e-04)	(-8.744385e-04 8.454730e-02 -2.764720e-04)	(-1.424114e-06 -4.346862e-05 1.805531e-07)
2882          	(-8.623442e-04 8.450354e-02 -2.099965e-04)	(-8.609431e-04 8.454693e-02 -2.101520e-04)	(-1.401105e-06 -4.339058e-05 1.555348e-07)
2883          	(-8.523195e-04 8.457459e-02 -1.659803e-04)	(-8.509547e-04 8.461790e-02 -1.660934e-04)	(-1.364843e-06 -4.330722e-05 1.131553e-07)
2884          	(-8.426135e-04 8.465940e-02 -1.186470e-04)	(-8.412910e-04 8.470262e-02 -1.187104e-04)	(-1.322504e-06 -4.322472e-05 6.339223e-08)
2885          	(-8.338701e-04 8.474350e-02 -7.672687e-05)	(-8.325913e-04 8.478666e-02 -7.673219e-05)	(-1.278809e-06 -4.315084e-05 5.321060e-09)
2886          	(-8.262863e-04 8.482944e-02 -3.501911e-05)	(-8.250486e-04 8.487253e-02 -3.495737e-05)	(-1.237666e-06 -4.309003e-05 -6.173667e-08)
2887          	(-8.208908e-04 8.490522e-02 2.025528e-06)	(-8.196877e-04 8.494827e-02 2.162328e-06)	(-1.203125e-06 -4.304826e-05 -1.367998e-07)
2888          	(-8.155519e-04 8.491230e-02 2.027677e-05)	(-8.143701e-04 8.495534e-02 2.050075e-05)	(-1.181715e-06 -4.303697e-05 -2.239868e-07)
2889          	(-8.121232e-04 8.491691e-02 2.795393e-05)	(-8.109593e-04 8.495995e-02 2.827510e-05)	(-1.163838e-06 -4.304599e-05 -3.211728e-07)
2890          	(-8.103611e-04 8.492235e-02 2.871746e-05)	(-8.092148e-04 8.496542e-02 2.914028e-05)	(-1.146304e-06 -4.306865e-05 -4.228161e-07)
2891          	(-8.103994e-04 8.492550e-02 2.388200e-05)	(-8.092722e-04 8.496860e-02 2.440379e-05)	(-1.127167e-06 -4.309951e-05 -5.217909e-07)
2892          	(-8.279539e-04 8.453818e-02 -4.107108e-06)	(-8.267801e-04 8.458142e-02 -3.540737e-06)	(-1.173792e-06 -4.323447e-05 -5.663715e-07)
2893          	(-8.259001e-04 8.458778e-02 -1.255542e-05)	(-8.247221e-04 8.463107e-02 -1.192692e-05)	(-1.178015e-06 -4.329380e-05 -6.285000e-07)
2894          	(-8.390981e-04 8.425275e-02 -3.780611e-05)	(-8.378949e-04 8.429616e-02 -3.715808e-05)	(-1.203203e-06 -4.341122e-05 -6.480253e-07)
2895          	(-8.335604e-04 8.429629e-02 -3.893218e-05)	(-8.323846e-04 8.433973e-02 -3.823961e-05)	(-1.175836e-06 -4.343690e-05 -6.925720e-07)
2896          	(-8.287431e-04 8.433019e-02 -3.116190e-05)	(-8.276360e-04 8.437361e-02 -3.042128e-05)	(-1.107063e-06 -4.342260e-05 -7.406136e-07)
2897          	(-8.252136e-04 8.435772e-02 -1.598052e-05)	(-8.241810e-04 8.440111e-02 -1.519585e-05)	(-1.032607e-06 -4.338742e-05 -7.846744e-07)
2898          	(-8.229479e-04 8.433020e-02 3.985332e-07)	(-8.219804e-04 8.437356e-02 1.213309e-06)	(-9.674451e-07 -4.336050e-05 -8.147762e-07)
2899          	(-8.219080e-04 8.431330e-02 2.116501e-05)	(-8.209878e-04 8.435665e-02 2.199465e-05)	(-9.202222e-07 -4.335042e-05 -8.296390e-07)
2900          	(-8.216517e-04 8.430568e-02 4.292892e-05)	(-8.207606e-04 8.434904e-02 4.376129e-05)	(-8.911552e-07 -4.336345e-05 -8.323619e-07)
2901          	(-8.218634e-04 8.430780e-02 6.286550e-05)	(-8.209848e-04 8.435120e-02 6.369413e-05)	(-8.786397e-07 -4.340204e-05 -8.286332e-07)
2902          	(-8.222727e-04 8.431729e-02 7.861262e-05)	(-8.213963e-04 8.436075e-02 7.943583e-05)	(-8.764209e-07 -4.346411e-05 -8.232040e-07)
2903          	(-8.228412e-04 8.433029e-02 8.866367e-05)	(-8.219614e-04 8.437383e-02 8.948498e-05)	(-8.798644e-07 -4.354562e-05 -8.213120e-07)
2904          	(-8.318315e-04 8.416505e-02 7.617199e-05)	(-8.309129e-04 8.420874e-02 7.697398e-05)	(-9.186114e-07 -4.369613e-05 -8.019903e-07)
2905          	(-8.331433e-04 8.421382e-02 8.791747e-05)	(-8.322096e-04 8.425764e-02 8.871186e-05)	(-9.336375e-07 -4.381859e-05 -7.943934e-07)
2906          	(-8.325437e-04 8.421258e-02 8.768276e-05)	(-8.316122e-04 8.425652e-02 8.848216e-05)	(-9.315431e-07 -4.393666e-05 -7.994009e-07)
2907          	(-8.322424e-04 8.420039e-02 7.846771e-05)	(-8.313179e-04 8.424444e-02 7.929029e-05)	(-9.244937e-07 -4.405246e-05 -8.225795e-07)
2908          	(-8.324624e-04 8.418337e-02 6.862413e-05)	(-8.315460e-04 8.422754e-02 6.947569e-05)	(-9.163985e-07 -4.416950e-05 -8.515557e-07)
2909          	(-8.342260e-04 8.416984e-02 5.807008e-05)	(-8.333130e-04 8.421413e-02 5.895253e-05)	(-9.129892e-07 -4.429194e-05 -8.824513e-07)
2910          	(-8.374765e-04 8.416082e-02 4.615039e-05)	(-8.365601e-04 8.420525e-02 4.706108e-05)	(-9.164320e-07 -4.442235e-05 -9.106906e-07)
2911          	(-8.420189e-04 8.415635e-02 3.231743e-05)	(-8.410906e-04 8.420091e-02 3.325438e-05)	(-9.283510e-07 -4.456316e-05 -9.369449e-07)
2912          	(-8.475790e-04 8.415569e-02 1.606524e-05)	(-8.466319e-04 8.420041e-02 1.702437e-05)	(-9.471562e-07 -4.471520e-05 -9.591263e-07)
2913          	(-8.538873e-04 8.415785e-02 -2.705991e-06)	(-8.529155e-04 8.420273e-02 -1.727737e-06)	(-9.718132e-07 -4.487840e-05 -9.782540e-07)
2914          	(-8.601681e-04 8.416122e-02 -2.261049e-05)	(-8.591687e-04 8.420627e-02 -2.161734e-05)	(-9.993642e-07 -4.505192e-05 -9.931472e-07)
2915          	(-8.669128e-04 8.416628e-02 -4.412218e-05)	(-8.658836e-04 8.421152e-02 -4.311679e-05)	(-1.029208e-06 -4.523531e-05 -1.005384e-06)
2916          	(-8.740503e-04 8.417243e-02 -6.678360e-05)	(-8.729908e-04 8.421786e-02 -6.577152e-05)	(-1.059470e-06 -4.542785e-05 -1.012083e-06)
2917          	(-8.815392e-04 8.417905e-02 -9.021771e-05)	(-8.804497e-04 8.422468e-02 -8.920267e-05)	(-1.089515e-06 -4.562933e-05 -1.015038e-06)
2918          	(-8.901636e-04 8.418594e-02 -1.160359e-04)	(-8.890439e-04 8.423178e-02 -1.150236e-04)	(-1.119700e-06 -4.583877e-05 -1.012254e-06)
2919          	(-8.991161e-04 8.419225e-02 -1.425433e-04)	(-8.979656e-04 8.423831e-02 -1.415375e-04)	(-1.150547e-06 -4.605559e-05 -1.005803e-06)
2920          	(-9.119214e-04 8.419901e-02 -1.793970e-04)	(-9.107352e-04 8.424528e-02 -1.784010e-04)	(-1.186150e-06 -4.627714e-05 -9.960022e-07)
2921          	(-9.243227e-04 8.425509e-02 -2.134742e-04)	(-9.231026e-04 8.430158e-02 -2.124901e-04)	(-1.220172e-06 -4.649103e-05 -9.841201e-07)
2922          	(-9.367579e-04 8.430617e-02 -2.495696e-04)	(-9.355002e-04 8.435287e-02 -2.486048e-04)	(-1.257727e-06 -4.670657e-05 -9.647875e-07)
2923          	(-9.489537e-04 8.435165e-02 -2.864676e-04)	(-9.476515e-04 8.439858e-02 -2.855276e-04)	(-1.302211e-06 -4.692975e-05 -9.399594e-07)
2924          	(-9.587940e-04 8.436888e-02 -3.193497e-04)	(-9.574388e-04 8.441605e-02 -3.184421e-04)	(-1.355132e-06 -4.717201e-05 -9.075484e-07)
2925          	(-9.671385e-04 8.438758e-02 -3.493826e-04)	(-9.657274e-04 8.443501e-02 -3.485116e-04)	(-1.411102e-06 -4.743023e-05 -8.709616e-07)
2926          	(-9.746806e-04 8.440468e-02 -3.780913e-04)	(-9.732132e-04 8.445238e-02 -3.772629e-04)	(-1.467410e-06 -4.770055e-05 -8.284114e-07)
2927          	(-9.816868e-04 8.441898e-02 -4.054305e-04)	(-9.801635e-04 8.446696e-02 -4.046473e-04)	(-1.523284e-06 -4.797996e-05 -7.832620e-07)
2928          	(-9.883435e-04 8.442892e-02 -4.317306e-04)	(-9.867665e-04 8.447719e-02 -4.309948e-04)	(-1.576971e-06 -4.826533e-05 -7.357580e-07)
2929          	(-9.948992e-04 8.443420e-02 -4.586764e-04)	(-9.932710e-04 8.448276e-02 -4.579869e-04)	(-1.628227e-06 -4.855512e-05 -6.894351e-07)
2930          	(-1.001526e-03 8.443151e-02 -4.854741e-04)	(-9.998500e-04 8.448036e-02 -4.848310e-04)	(-1.676204e-06 -4.884759e-05 -6.431196e-07)
2931          	(-1.008776e-03 8.442009e-02 -5.148324e-04)	(-1.007053e-03 8.446924e-02 -5.142331e-04)	(-1.723023e-06 -4.914212e-05 -5.993145e-07)
2932          	(-1.016512e-03 8.440340e-02 -5.434283e-04)	(-1.014742e-03 8.445283e-02 -5.428676e-04)	(-1.769794e-06 -4.943710e-05 -5.606480e-07)
2933          	(-1.024809e-03 8.438500e-02 -5.708549e-04)	(-1.022991e-03 8.443473e-02 -5.703274e-04)	(-1.818070e-06 -4.973128e-05 -5.275144e-07)
2934          	(-1.033249e-03 8.436865e-02 -5.944845e-04)	(-1.031382e-03 8.441868e-02 -5.939860e-04)	(-1.867832e-06 -5.002344e-05 -4.985964e-07)
2935          	(-1.042263e-03 8.435319e-02 -6.186144e-04)	(-1.040342e-03 8.440350e-02 -6.181386e-04)	(-1.921106e-06 -5.031374e-05 -4.757806e-07)
2936          	(-1.051281e-03 8.433717e-02 -6.442019e-04)	(-1.049305e-03 8.438777e-02 -6.437451e-04)	(-1.976579e-06 -5.060267e-05 -4.567846e-07)
2937          	(-1.060137e-03 8.431941e-02 -6.720346e-04)	(-1.058103e-03 8.437030e-02 -6.715921e-04)	(-2.033994e-06 -5.089127e-05 -4.424755e-07)
2938          	(-1.068437e-03 8.430005e-02 -7.018457e-04)	(-1.066346e-03 8.435123e-02 -7.014174e-04)	(-2.091292e-06 -5.117963e-05 -4.283472e-07)
2939          	(-1.076516e-03 8.427983e-02 -7.329819e-04)	(-1.074367e-03 8.433129e-02 -7.325664e-04)	(-2.148702e-06 -5.146709e-05 -4.155025e-07)
2940          	(-1.084350e-03 8.425947e-02 -7.646439e-04)	(-1.082144e-03 8.431122e-02 -7.642429e-04)	(-2.205713e-06 -5.175182e-05 -4.010258e-07)
2941          	(-1.091544e-03 8.423830e-02 -7.935730e-04)	(-1.089282e-03 8.429034e-02 -7.931867e-04)	(-2.262617e-06 -5.203220e-05 -3.863262e-07)
2942          	(-1.098474e-03 8.421701e-02 -8.234894e-04)	(-1.096155e-03 8.426932e-02 -8.231191e-04)	(-2.318543e-06 -5.230805e-05 -3.703082e-07)
2943          	(-1.105181e-03 8.419512e-02 -8.544370e-04)	(-1.102807e-03 8.424769e-02 -8.540835e-04)	(-2.373866e-06 -5.257834e-05 -3.534496e-07)
2944          	(-1.111878e-03 8.417351e-02 -8.874135e-04)	(-1.109450e-03 8.422635e-02 -8.870791e-04)	(-2.428010e-06 -5.284228e-05 -3.344110e-07)
2945          	(-1.118392e-03 8.415226e-02 -9.200496e-04)	(-1.115910e-03 8.420535e-02 -9.197342e-04)	(-2.481781e-06 -5.309800e-05 -3.153946e-07)
2946          	(-1.130650e-03 8.403103e-02 -9.733722e-04)	(-1.128097e-03 8.408440e-02 -9.730897e-04)	(-2.552638e-06 -5.336635e-05 -2.824843e-07)
2947          	(-1.141646e-03 8.390915e-02 -1.024858e-03)	(-1.139014e-03 8.396278e-02 -1.024616e-03)	(-2.632044e-06 -5.363150e-05 -2.417423e-07)
2948          	(-1.144012e-03 8.388742e-02 -1.049471e-03)	(-1.141323e-03 8.394128e-02 -1.049257e-03)	(-2.689499e-06 -5.386029e-05 -2.136356e-07)
2949          	(-1.145504e-03 8.386226e-02 -1.071432e-03)	(-1.142776e-03 8.391632e-02 -1.071234e-03)	(-2.728460e-06 -5.405915e-05 -1.977727e-07)
2950          	(-1.153841e-03 8.370536e-02 -1.114464e-03)	(-1.151061e-03 8.375962e-02 -1.114294e-03)	(-2.779868e-06 -5.425643e-05 -1.702050e-07)
2951          	(-1.155064e-03 8.356601e-02 -1.130403e-03)	(-1.152235e-03 8.362044e-02 -1.130260e-03)	(-2.829011e-06 -5.442972e-05 -1.427396e-07)
2952          	(-1.155096e-03 8.355419e-02 -1.145094e-03)	(-1.152242e-03 8.360874e-02 -1.144965e-03)	(-2.853934e-06 -5.455125e-05 -1.287757e-07)
2953          	(-1.154510e-03 8.371473e-02 -1.152486e-03)	(-1.151666e-03 8.376931e-02 -1.152359e-03)	(-2.843407e-06 -5.458198e-05 -1.266517e-07)
2954          	(-1.148658e-03 8.377150e-02 -1.171910e-03)	(-1.145828e-03 8.382610e-02 -1.171784e-03)	(-2.829782e-06 -5.459238e-05 -1.266656e-07)
2955          	(-1.142281e-03 8.390698e-02 -1.176244e-03)	(-1.139472e-03 8.396155e-02 -1.176114e-03)	(-2.808973e-06 -5.456616e-05 -1.301441e-07)
2956          	(-1.146435e-03 8.395324e-02 -1.191001e-03)	(-1.143622e-03 8.400778e-02 -1.190883e-03)	(-2.813107e-06 -5.454611e-05 -1.181400e-07)
2957          	(-1.148440e-03 8.399889e-02 -1.203746e-03)	(-1.145606e-03 8.405341e-02 -1.203652e-03)	(-2.833769e-06 -5.451905e-05 -9.410385e-08)
2958          	(-1.148555e-03 8.404281e-02 -1.215598e-03)	(-1.145702e-03 8.409729e-02 -1.215533e-03)	(-2.853231e-06 -5.447835e-05 -6.423617e-08)
2959          	(-1.146949e-03 8.408519e-02 -1.225158e-03)	(-1.144083e-03 8.413961e-02 -1.225122e-03)	(-2.865954e-06 -5.441601e-05 -3.544277e-08)
2960          	(-1.143877e-03 8.412260e-02 -1.230529e-03)	(-1.141009e-03 8.417692e-02 -1.230520e-03)	(-2.868027e-06 -5.432527e-05 -9.191439e-09)
2961          	(-1.139556e-03 8.414976e-02 -1.231987e-03)	(-1.136695e-03 8.420396e-02 -1.231997e-03)	(-2.860447e-06 -5.420085e-05 1.051933e-08)
2962          	(-1.135785e-03 8.415736e-02 -1.231736e-03)	(-1.132941e-03 8.421140e-02 -1.231765e-03)	(-2.844607e-06 -5.403967e-05 2.916118e-08)
2963          	(-1.131048e-03 8.416071e-02 -1.227284e-03)	(-1.128226e-03 8.421455e-02 -1.227325e-03)	(-2.821604e-06 -5.383631e-05 4.151047e-08)
2964          	(-1.125531e-03 8.416086e-02 -1.218881e-03)	(-1.122741e-03 8.421445e-02 -1.218931e-03)	(-2.790629e-06 -5.358994e-05 5.048739e-08)
2965          	(-1.117021e-03 8.416731e-02 -1.201791e-03)	(-1.114270e-03 8.422061e-02 -1.201843e-03)	(-2.750293e-06 -5.330162e-05 5.194139e-08)
2966          	(-1.108583e-03 8.417031e-02 -1.184029e-03)	(-1.105879e-03 8.422328e-02 -1.184077e-03)	(-2.703392e-06 -5.297773e-05 4.863052e-08)
2967          	(-1.099841e-03 8.417287e-02 -1.166497e-03)	(-1.097187e-03 8.422549e-02 -1.166536e-03)	(-2.653921e-06 -5.262364e-05 3.869414e-08)
2968          	(-1.092712e-03 8.417113e-02 -1.155086e-03)	(-1.090108e-03 8.422338e-02 -1.155112e-03)	(-2.603879e-06 -5.224437e-05 2.628941e-08)
2969          	(-1.085544e-03 8.417018e-02 -1.145849e-03)	(-1.082990e-03 8.422202e-02 -1.145860e-03)	(-2.554103e-06 -5.184142e-05 1.138561e-08)
2970          	(-1.078248e-03 8.417118e-02 -1.138244e-03)	(-1.075747e-03 8.422259e-02 -1.138242e-03)	(-2.501022e-06 -5.141547e-05 -2.395105e-09)
2971          	(-1.070953e-03 8.417479e-02 -1.131243e-03)	(-1.068509e-03 8.422576e-02 -1.131229e-03)	(-2.444197e-06 -5.096951e-05 -1.398652e-08)
2972          	(-1.063888e-03 8.418057e-02 -1.124042e-03)	(-1.061504e-03 8.423108e-02 -1.124022e-03)	(-2.384645e-06 -5.050962e-05 -2.007409e-08)
2973          	(-1.059449e-03 8.420518e-02 -1.122931e-03)	(-1.057125e-03 8.425522e-02 -1.122913e-03)	(-2.324589e-06 -5.003199e-05 -1.742394e-08)
2974          	(-1.052137e-03 8.421743e-02 -1.108156e-03)	(-1.049872e-03 8.426698e-02 -1.108153e-03)	(-2.265030e-06 -4.955749e-05 -2.602642e-09)
2975          	(-1.038544e-03 8.427084e-02 -1.067430e-03)	(-1.036351e-03 8.431992e-02 -1.067445e-03)	(-2.192498e-06 -4.907508e-05 1.487488e-08)
2976          	(-1.031751e-03 8.429320e-02 -1.045024e-03)	(-1.029628e-03 8.434180e-02 -1.045063e-03)	(-2.123095e-06 -4.860413e-05 3.899328e-08)
2977          	(-1.024740e-03 8.431847e-02 -1.026447e-03)	(-1.022678e-03 8.436661e-02 -1.026517e-03)	(-2.061892e-06 -4.814413e-05 6.967228e-08)
2978          	(-1.017605e-03 8.434546e-02 -1.003654e-03)	(-1.015600e-03 8.439316e-02 -1.003759e-03)	(-2.004643e-06 -4.769586e-05 1.046265e-07)
2979          	(-1.006503e-03 8.438572e-02 -9.596822e-04)	(-1.004556e-03 8.443297e-02 -9.598217e-04)	(-1.946790e-06 -4.725706e-05 1.394812e-07)
2980          	(-1.001466e-03 8.441068e-02 -9.270262e-04)	(-9.995687e-04 8.445751e-02 -9.272014e-04)	(-1.897279e-06 -4.683650e-05 1.752448e-07)
2981          	(-9.942101e-04 8.443875e-02 -8.996124e-04)	(-9.923554e-04 8.448518e-02 -8.998214e-04)	(-1.854644e-06 -4.643932e-05 2.090916e-07)
2982          	(-9.870483e-04 8.446515e-02 -8.699874e-04)	(-9.852332e-04 8.451122e-02 -8.702260e-04)	(-1.815100e-06 -4.606657e-05 2.386385e-07)
2983          	(-9.830201e-04 8.448427e-02 -8.451026e-04)	(-9.812354e-04 8.452999e-02 -8.453656e-04)	(-1.784704e-06 -4.571971e-05 2.629891e-07)
2984          	(-9.787702e-04 8.450106e-02 -8.192821e-04)	(-9.770066e-04 8.454646e-02 -8.195650e-04)	(-1.763529e-06 -4.539970e-05 2.828744e-07)
2985          	(-9.742149e-04 8.451525e-02 -7.927096e-04)	(-9.724668e-04 8.456036e-02 -7.930101e-04)	(-1.748074e-06 -4.510705e-05 3.005381e-07)
2986          	(-9.693678e-04 8.452725e-02 -7.646064e-04)	(-9.676301e-04 8.457209e-02 -7.649219e-04)	(-1.737710e-06 -4.484187e-05 3.154448e-07)
2987          	(-9.615640e-04 8.453820e-02 -7.238849e-04)	(-9.598359e-04 8.458280e-02 -7.242153e-04)	(-1.728162e-06 -4.460358e-05 3.304459e-07)
2988          	(-9.534751e-04 8.454597e-02 -6.814057e-04)	(-9.517547e-04 8.459036e-02 -6.817451e-04)	(-1.720436e-06 -4.439076e-05 3.394805e-07)
2989          	(-9.451289e-04 8.455027e-02 -6.385357e-04)	(-9.434151e-04 8.459447e-02 -6.388795e-04)	(-1.713849e-06 -4.420186e-05 3.437887e-07)
2990          	(-9.379640e-04 8.455156e-02 -5.995193e-04)	(-9.362551e-04 8.459560e-02 -5.998603e-04)	(-1.708915e-06 -4.403528e-05 3.409680e-07)
2991          	(-9.304401e-04 8.455033e-02 -5.596851e-04)	(-9.287365e-04 8.459422e-02 -5.600160e-04)	(-1.703633e-06 -4.388950e-05 3.309426e-07)
2992          	(-9.225737e-04 8.454691e-02 -5.189588e-04)	(-9.208763e-04 8.459067e-02 -5.192717e-04)	(-1.697417e-06 -4.376264e-05 3.129225e-07)
2993          	(-9.143841e-04 8.454160e-02 -4.778329e-04)	(-9.126952e-04 8.458525e-02 -4.781188e-04)	(-1.688909e-06 -4.365285e-05 2.858839e-07)
2994          	(-9.059349e-04 8.453488e-02 -4.370261e-04)	(-9.042590e-04 8.457844e-02 -4.372785e-04)	(-1.675904e-06 -4.355813e-05 2.523728e-07)
2995          	(-8.960534e-04 8.452754e-02 -3.923140e-04)	(-8.943964e-04 8.457101e-02 -3.925277e-04)	(-1.656982e-06 -4.347683e-05 2.137632e-07)
2996          	(-8.860576e-04 8.452051e-02 -3.469694e-04)	(-8.844255e-04 8.456392e-02 -3.471393e-04)	(-1.632024e-06 -4.340645e-05 1.698136e-07)
2997          	(-8.728023e-04 8.451604e-02 -2.857669e-04)	(-8.712051e-04 8.455938e-02 -2.858897e-04)	(-1.597238e-06 -4.334321e-05 1.228251e-07)
2998          	(-8.656006e-04 8.456661e-02 -2.583132e-04)	(-8.640465e-04 8.460988e-02 -2.583704e-04)	(-1.554132e-06 -4.327447e-05 5.719850e-08)
2999          	(-8.590242e-04 8.463848e-02 -2.233823e-04)	(-8.575161e-04 8.468168e-02 -2.233691e-04)	(-1.508087e-06 -4.320450e-05 -1.321937e-08)
3000          	(-8.541228e-04 8.470686e-02 -1.966701e-04)	(-8.526591e-04 8.475000e-02 -1.965826e-04)	(-1.463691e-06 -4.314245e-05 -8.750966e-08)
3001          	(-8.508169e-04 8.476524e-02 -1.708337e-04)	(-8.493908e-04 8.480834e-02 -1.706665e-04)	(-1.426088e-06 -4.309544e-05 -1.672184e-07)
3002          	(-8.472722e-04 8.476878e-02 -1.577352e-04)	(-8.458715e-04 8.481186e-02 -1.574823e-04)	(-1.400638e-06 -4.307508e-05 -2.529226e-07)
3003          	(-8.448371e-04 8.477356e-02 -1.493915e-04)	(-8.434567e-04 8.481664e-02 -1.490491e-04)	(-1.380449e-06 -4.307481e-05 -3.424045e-07)
3004          	(-8.433026e-04 8.477939e-02 -1.443496e-04)	(-8.419403e-04 8.482248e-02 -1.439201e-04)	(-1.362302e-06 -4.308983e-05 -4.295239e-07)
3005          	(-8.428046e-04 8.478529e-02 -1.418502e-04)	(-8.414606e-04 8.482841e-02 -1.413400e-04)	(-1.343989e-06 -4.311649e-05 -5.102665e-07)
3006          	(-8.430742e-04 8.478972e-02 -1.400770e-04)	(-8.417509e-04 8.483287e-02 -1.394970e-04)	(-1.323264e-06 -4.315106e-05 -5.799425e-07)