# Moment bins 
# bins        : 20
# start       : -2.495575e-02
# end         : 2.496074e-02
# delta       : 2.495825e-03
# direction   : (1.000000e+00 0.000000e+00 0.000000e+00)
# x co-ords  :	-2.245993e-02	-1.996410e-02	-1.746828e-02	-1.497245e-02	-1.247663e-02	-9.980803e-03	-7.484978e-03	-4.989154e-03	-2.493329e-03	2.495575e-06	2.498320e-03	4.994145e-03	7.489969e-03	9.985794e-03	1.248162e-02	1.497744e-02	1.747327e-02	1.996909e-02	2.246492e-02	2.496074e-02
# y co-ords  :	-0.000000e+00	-0.000000e+00	-0.000000e+00	-0.000000e+00	-0.000000e+00	-0.000000e+00	-0.000000e+00	-0.000000e+00	-0.000000e+00	0.000000e+00	0.000000e+00	0.000000e+00	0.000000e+00	0.000000e+00	0.000000e+00	0.000000e+00	0.000000e+00	0.000000e+00	0.000000e+00	0.000000e+00
# z co-ords  :	-0.000000e+00	-0.000000e+00	-0.000000e+00	-0.000000e+00	-0.000000e+00	-0.000000e+00	-0.000000e+00	-0.000000e+00	-0.000000e+00	0.000000e+00	0.000000e+00	0.000000e+00	0.000000e+00	0.000000e+00	0.000000e+00	0.000000e+00	0.000000e+00	0.000000e+00	0.000000e+00	0.000000e+00
#
# Time        	0:(total_x total_y total_z)	0:(pressure_x pressure_y pressure_z)	0:(viscous_x viscous_y viscous_z)	1:(total_x total_y total_z)	1:(pressure_x pressure_y pressure_z)	1:(viscous_x viscous_y viscous_z)	2:(total_x total_y total_z)	2:(pressure_x pressure_y pressure_z)	2:(viscous_x viscous_y viscous_z)	3:(total_x total_y total_z)	3:(pressure_x pressure_y pressure_z)	3:(viscous_x viscous_y viscous_z)	4:(total_x total_y total_z)	4:(pressure_x pressure_y pressure_z)	4:(viscous_x viscous_y viscous_z)	5:(total_x total_y total_z)	5:(pressure_x pressure_y pressure_z)	5:(viscous_x viscous_y viscous_z)	6:(total_x total_y total_z)	6:(pressure_x pressure_y pressure_z)	6:(viscous_x viscous_y viscous_z)	7:(total_x total_y total_z)	7:(pressure_x pressure_y pressure_z)	7:(viscous_x viscous_y viscous_z)	8:(total_x total_y total_z)	8:(pressure_x pressure_y pressure_z)	8:(viscous_x viscous_y viscous_z)	9:(total_x total_y total_z)	9:(pressure_x pressure_y pressure_z)	9:(viscous_x viscous_y viscous_z)	10:(total_x total_y total_z)	10:(pressure_x pressure_y pressure_z)	10:(viscous_x viscous_y viscous_z)	11:(total_x total_y total_z)	11:(pressure_x pressure_y pressure_z)	11:(viscous_x viscous_y viscous_z)	12:(total_x total_y total_z)	12:(pressure_x pressure_y pressure_z)	12:(viscous_x viscous_y viscous_z)	13:(total_x total_y total_z)	13:(pressure_x pressure_y pressure_z)	13:(viscous_x viscous_y viscous_z)	14:(total_x total_y total_z)	14:(pressure_x pressure_y pressure_z)	14:(viscous_x viscous_y viscous_z)	15:(total_x total_y total_z)	15:(pressure_x pressure_y pressure_z)	15:(viscous_x viscous_y viscous_z)	16:(total_x total_y total_z)	16:(pressure_x pressure_y pressure_z)	16:(viscous_x viscous_y viscous_z)	17:(total_x total_y total_z)	17:(pressure_x pressure_y pressure_z)	17:(viscous_x viscous_y viscous_z)	18:(total_x total_y total_z)	18:(pressure_x pressure_y pressure_z)	18:(viscous_x viscous_y viscous_z)	19:(total_x total_y total_z)	19:(pressure_x pressure_y pressure_z)	19:(viscous_x viscous_y viscous_z)
2801          	(-1.081217e-04 -2.592625e+01 -3.176671e-04)	(-1.076630e-04 -2.592621e+01 -3.177932e-04)	(-4.587092e-07 -4.375439e-05 1.260367e-07)	(-1.376452e-05 -3.596172e+01 -4.418472e-05)	(-1.321931e-05 -3.596168e+01 -4.420879e-05)	(-5.452073e-07 -4.555476e-05 2.406367e-08)	(-6.362243e-04 -4.294211e+01 -7.998314e-04)	(-6.355813e-04 -4.294207e+01 -7.998323e-04)	(-6.430473e-07 -4.272368e-05 8.547493e-10)	(3.306565e-03 -4.785832e+01 -2.696148e-03)	(3.307286e-03 -4.785828e+01 -2.696216e-03)	(-7.207256e-07 -4.196531e-05 6.874361e-08)	(1.515612e-02 -4.994135e+01 4.205931e-03)	(1.515693e-02 -4.994131e+01 4.205761e-03)	(-8.045081e-07 -4.277706e-05 1.706722e-07)	(-9.074081e-04 -5.147107e+01 -6.202010e-05)	(-9.066134e-04 -5.147103e+01 -6.231570e-05)	(-7.947121e-07 -4.323497e-05 2.956012e-07)	(-9.067822e-04 -5.147107e+01 -6.166664e-05)	(-9.059982e-04 -5.147103e+01 -6.204258e-05)	(-7.839583e-07 -4.367680e-05 3.759394e-07)	(-9.058517e-04 -5.147107e+01 -6.132892e-05)	(-9.050765e-04 -5.147103e+01 -6.177061e-05)	(-7.751833e-07 -4.413432e-05 4.416843e-07)	(-9.048536e-04 -5.147107e+01 -6.110626e-05)	(-9.040874e-04 -5.147103e+01 -6.159651e-05)	(-7.661673e-07 -4.461888e-05 4.902505e-07)	(-9.037215e-04 -5.147107e+01 -6.104170e-05)	(-9.029643e-04 -5.147103e+01 -6.152929e-05)	(-7.571855e-07 -4.513561e-05 4.875870e-07)	(-9.025852e-04 -5.147107e+01 -6.121127e-05)	(-9.018310e-04 -5.147103e+01 -6.158607e-05)	(-7.541886e-07 -4.567410e-05 3.747926e-07)	(-9.015959e-04 -5.147107e+01 -6.162586e-05)	(-9.008281e-04 -5.147103e+01 -6.174592e-05)	(-7.678410e-07 -4.619887e-05 1.200602e-07)	(-9.006818e-04 -5.147107e+01 -6.209626e-05)	(-8.998941e-04 -5.147103e+01 -6.181015e-05)	(-7.876909e-07 -4.664892e-05 -2.861136e-07)	(-9.005216e-04 -5.147107e+01 -6.156710e-05)	(-8.997219e-04 -5.147103e+01 -6.073384e-05)	(-7.996934e-07 -4.694856e-05 -8.332644e-07)	(1.504197e-02 -4.993890e+01 -4.382900e-03)	(1.504277e-02 -4.993885e+01 -4.381469e-03)	(-7.950421e-07 -4.704174e-05 -1.431774e-06)	(2.751096e-03 -4.785250e+01 2.714518e-03)	(2.751883e-03 -4.785246e+01 2.716380e-03)	(-7.872026e-07 -4.692279e-05 -1.862120e-06)	(1.493560e-02 -4.292398e+01 1.558793e-02)	(1.493644e-02 -4.292393e+01 1.558980e-02)	(-8.340390e-07 -4.673500e-05 -1.872222e-06)	(-1.030345e-03 -3.593659e+01 -2.387342e-04)	(-1.029386e-03 -3.593654e+01 -2.371758e-04)	(-9.585225e-07 -4.671168e-05 -1.558415e-06)	(-9.303918e-04 -2.588512e+01 -1.356978e-04)	(-9.293055e-04 -2.588507e+01 -1.342201e-04)	(-1.086347e-06 -4.679243e-05 -1.477721e-06)	(-8.914133e-04 8.430399e-02 -9.617466e-05)	(-8.902606e-04 8.434898e-02 -9.521595e-05)	(-1.152712e-06 -4.498777e-05 -9.587152e-07)
2802          	(-1.082716e-04 -2.592625e+01 -3.122143e-04)	(-1.078017e-04 -2.592621e+01 -3.123381e-04)	(-4.698596e-07 -4.390930e-05 1.237138e-07)	(-1.406684e-05 -3.596173e+01 -3.660936e-05)	(-1.351588e-05 -3.596168e+01 -3.663441e-05)	(-5.509550e-07 -4.571657e-05 2.504762e-08)	(-6.366748e-04 -4.294211e+01 -7.908466e-04)	(-6.360219e-04 -4.294207e+01 -7.908464e-04)	(-6.529052e-07 -4.289809e-05 -2.317365e-10)	(3.305962e-03 -4.785832e+01 -2.686152e-03)	(3.306695e-03 -4.785828e+01 -2.686221e-03)	(-7.335144e-07 -4.213956e-05 6.966377e-08)	(1.515469e-02 -4.994136e+01 4.216381e-03)	(1.515551e-02 -4.994131e+01 4.216207e-03)	(-8.184888e-07 -4.295152e-05 1.739297e-07)	(-9.095926e-04 -5.147107e+01 -5.065838e-05)	(-9.087826e-04 -5.147103e+01 -5.095958e-05)	(-8.100569e-07 -4.341021e-05 3.012026e-07)	(-9.090455e-04 -5.147107e+01 -5.033302e-05)	(-9.082453e-04 -5.147103e+01 -5.071715e-05)	(-8.001944e-07 -4.385260e-05 3.841315e-07)	(-9.081924e-04 -5.147107e+01 -5.001461e-05)	(-9.074000e-04 -5.147103e+01 -5.046658e-05)	(-7.923642e-07 -4.431050e-05 4.519664e-07)	(-9.072699e-04 -5.147107e+01 -4.980349e-05)	(-9.064856e-04 -5.147103e+01 -5.030508e-05)	(-7.843167e-07 -4.479522e-05 5.015861e-07)	(-9.062122e-04 -5.147107e+01 -4.974286e-05)	(-9.054357e-04 -5.147103e+01 -5.024198e-05)	(-7.765016e-07 -4.531202e-05 4.991209e-07)	(-9.051487e-04 -5.147108e+01 -4.990827e-05)	(-9.043741e-04 -5.147103e+01 -5.029472e-05)	(-7.746127e-07 -4.585077e-05 3.864493e-07)	(-9.042309e-04 -5.147108e+01 -5.031163e-05)	(-9.034416e-04 -5.147103e+01 -5.044260e-05)	(-7.892809e-07 -4.637626e-05 1.309671e-07)	(-9.033870e-04 -5.147108e+01 -5.076353e-05)	(-9.025771e-04 -5.147103e+01 -5.048707e-05)	(-8.099145e-07 -4.682766e-05 -2.764620e-07)	(-9.032951e-04 -5.147108e+01 -5.020817e-05)	(-9.024731e-04 -5.147103e+01 -4.938348e-05)	(-8.219804e-07 -4.712939e-05 -8.246973e-07)	(1.503762e-02 -4.993890e+01 -4.373655e-03)	(1.503843e-02 -4.993885e+01 -4.372231e-03)	(-8.174542e-07 -4.722512e-05 -1.423982e-06)	(2.744977e-03 -4.785251e+01 2.722679e-03)	(2.745787e-03 -4.785246e+01 2.724536e-03)	(-8.103196e-07 -4.710818e-05 -1.857107e-06)	(1.492945e-02 -4.292398e+01 1.559355e-02)	(1.493031e-02 -4.292393e+01 1.559542e-02)	(-8.602035e-07 -4.692047e-05 -1.871279e-06)	(-1.036631e-03 -3.593659e+01 -2.367531e-04)	(-1.035642e-03 -3.593654e+01 -2.351945e-04)	(-9.887481e-07 -4.689642e-05 -1.558571e-06)	(-9.367644e-04 -2.588512e+01 -1.389937e-04)	(-9.356433e-04 -2.588507e+01 -1.375186e-04)	(-1.121080e-06 -4.697838e-05 -1.475132e-06)	(-8.978395e-04 8.430396e-02 -1.131716e-04)	(-8.966471e-04 8.434913e-02 -1.122194e-04)	(-1.192372e-06 -4.517425e-05 -9.522086e-07)
2803          	(-1.083931e-04 -2.592625e+01 -3.089068e-04)	(-1.079124e-04 -2.592621e+01 -3.090286e-04)	(-4.807077e-07 -4.407209e-05 1.218191e-07)	(-1.429370e-05 -3.596173e+01 -3.204449e-05)	(-1.373722e-05 -3.596168e+01 -3.207119e-05)	(-5.564881e-07 -4.588623e-05 2.669922e-08)	(-6.369809e-04 -4.294211e+01 -7.854905e-04)	(-6.363187e-04 -4.294207e+01 -7.854903e-04)	(-6.621929e-07 -4.308025e-05 -1.678335e-10)	(3.305562e-03 -4.785833e+01 -2.680223e-03)	(3.306308e-03 -4.785828e+01 -2.680295e-03)	(-7.454451e-07 -4.232165e-05 7.216278e-08)	(1.515381e-02 -4.994136e+01 4.222550e-03)	(1.515464e-02 -4.994131e+01 4.222371e-03)	(-8.311897e-07 -4.313361e-05 1.791322e-07)	(-9.109083e-04 -5.147107e+01 -4.399493e-05)	(-9.100844e-04 -5.147103e+01 -4.430400e-05)	(-8.239060e-07 -4.359291e-05 3.090719e-07)	(-9.104244e-04 -5.147108e+01 -4.369112e-05)	(-9.096096e-04 -5.147103e+01 -4.408594e-05)	(-8.148341e-07 -4.403577e-05 3.948219e-07)	(-9.096328e-04 -5.147108e+01 -4.338741e-05)	(-9.088250e-04 -5.147103e+01 -4.385222e-05)	(-8.078301e-07 -4.449406e-05 4.648059e-07)	(-9.087698e-04 -5.147108e+01 -4.318487e-05)	(-9.079692e-04 -5.147103e+01 -4.370056e-05)	(-8.006862e-07 -4.497907e-05 5.156823e-07)	(-9.077699e-04 -5.147108e+01 -4.312701e-05)	(-9.069760e-04 -5.147103e+01 -4.364066e-05)	(-7.939480e-07 -4.549615e-05 5.136484e-07)	(-9.067624e-04 -5.147108e+01 -4.328869e-05)	(-9.059693e-04 -5.147103e+01 -4.369032e-05)	(-7.930799e-07 -4.603541e-05 4.016343e-07)	(-9.058987e-04 -5.147108e+01 -4.368321e-05)	(-9.050900e-04 -5.147103e+01 -4.382916e-05)	(-8.086423e-07 -4.656191e-05 1.459577e-07)	(-9.051072e-04 -5.147108e+01 -4.412096e-05)	(-9.042772e-04 -5.147103e+01 -4.385894e-05)	(-8.299904e-07 -4.701493e-05 -2.620216e-07)	(-9.050654e-04 -5.147108e+01 -4.354577e-05)	(-9.042232e-04 -5.147103e+01 -4.273532e-05)	(-8.421940e-07 -4.731902e-05 -8.104467e-07)	(1.503470e-02 -4.993890e+01 -4.368524e-03)	(1.503554e-02 -4.993886e+01 -4.367114e-03)	(-8.376918e-07 -4.741756e-05 -1.410107e-06)	(2.740783e-03 -4.785251e+01 2.727023e-03)	(2.741614e-03 -4.785246e+01 2.728869e-03)	(-8.311115e-07 -4.730288e-05 -1.845802e-06)	(1.492521e-02 -4.292398e+01 1.559606e-02)	(1.492610e-02 -4.292393e+01 1.559792e-02)	(-8.838679e-07 -4.711559e-05 -1.863929e-06)	(-1.040982e-03 -3.593659e+01 -2.368675e-04)	(-1.039965e-03 -3.593654e+01 -2.353154e-04)	(-1.016355e-06 -4.709123e-05 -1.552094e-06)	(-9.411943e-04 -2.588512e+01 -1.429229e-04)	(-9.400409e-04 -2.588507e+01 -1.414570e-04)	(-1.153475e-06 -4.717468e-05 -1.465926e-06)	(-9.023189e-04 8.430221e-02 -1.270180e-04)	(-9.010880e-04 8.434758e-02 -1.260785e-04)	(-1.230909e-06 -4.537069e-05 -9.395256e-07)
2804          	(-1.084948e-04 -2.592626e+01 -3.053855e-04)	(-1.080042e-04 -2.592621e+01 -3.055053e-04)	(-4.906064e-07 -4.424306e-05 1.197613e-07)	(-1.447044e-05 -3.596173e+01 -2.720086e-05)	(-1.390949e-05 -3.596168e+01 -2.722937e-05)	(-5.609462e-07 -4.606423e-05 2.850999e-08)	(-6.372015e-04 -4.294211e+01 -7.798150e-04)	(-6.365314e-04 -4.294207e+01 -7.798151e-04)	(-6.701124e-07 -4.327067e-05 6.729887e-11)	(3.305289e-03 -4.785833e+01 -2.673950e-03)	(3.306045e-03 -4.785828e+01 -2.674025e-03)	(-7.557365e-07 -4.251211e-05 7.500207e-08)	(1.515307e-02 -4.994136e+01 4.229056e-03)	(1.515391e-02 -4.994131e+01 4.228871e-03)	(-8.420940e-07 -4.332386e-05 1.848013e-07)	(-9.120836e-04 -5.147108e+01 -3.701005e-05)	(-9.112479e-04 -5.147103e+01 -3.732745e-05)	(-8.357615e-07 -4.378356e-05 3.173996e-07)	(-9.116674e-04 -5.147108e+01 -3.672928e-05)	(-9.108400e-04 -5.147103e+01 -3.713523e-05)	(-8.273199e-07 -4.422676e-05 4.059556e-07)	(-9.109420e-04 -5.147108e+01 -3.644144e-05)	(-9.101210e-04 -5.147103e+01 -3.691957e-05)	(-8.210603e-07 -4.468540e-05 4.781292e-07)	(-9.101438e-04 -5.147108e+01 -3.624812e-05)	(-9.093290e-04 -5.147103e+01 -3.677852e-05)	(-8.147204e-07 -4.517079e-05 5.303981e-07)	(-9.092068e-04 -5.147108e+01 -3.619290e-05)	(-9.083979e-04 -5.147103e+01 -3.672208e-05)	(-8.089188e-07 -4.568831e-05 5.291767e-07)	(-9.082603e-04 -5.147108e+01 -3.635067e-05)	(-9.074513e-04 -5.147103e+01 -3.676840e-05)	(-8.089888e-07 -4.622832e-05 4.177328e-07)	(-9.074555e-04 -5.147108e+01 -3.673510e-05)	(-9.066302e-04 -5.147103e+01 -3.689746e-05)	(-8.252691e-07 -4.675607e-05 1.623607e-07)	(-9.067211e-04 -5.147108e+01 -3.715701e-05)	(-9.058739e-04 -5.147103e+01 -3.691139e-05)	(-8.471880e-07 -4.721095e-05 -2.456244e-07)	(-9.067338e-04 -5.147108e+01 -3.656016e-05)	(-9.058744e-04 -5.147103e+01 -3.576623e-05)	(-8.593998e-07 -4.751762e-05 -7.939274e-07)	(1.503179e-02 -4.993890e+01 -4.363198e-03)	(1.503264e-02 -4.993886e+01 -4.361805e-03)	(-8.548965e-07 -4.761917e-05 -1.393558e-06)	(2.736485e-03 -4.785251e+01 2.731493e-03)	(2.737334e-03 -4.785246e+01 2.733325e-03)	(-8.488136e-07 -4.750694e-05 -1.831656e-06)	(1.492087e-02 -4.292398e+01 1.559854e-02)	(1.492178e-02 -4.292394e+01 1.560039e-02)	(-9.043213e-07 -4.732038e-05 -1.853568e-06)	(-1.045440e-03 -3.593659e+01 -2.372446e-04)	(-1.044399e-03 -3.593655e+01 -2.357023e-04)	(-1.040664e-06 -4.729611e-05 -1.542334e-06)	(-9.457361e-04 -2.588512e+01 -1.474461e-04)	(-9.445532e-04 -2.588508e+01 -1.459927e-04)	(-1.182818e-06 -4.738128e-05 -1.453459e-06)	(-9.069140e-04 8.429949e-02 -1.423175e-04)	(-9.056465e-04 8.434507e-02 -1.413937e-04)	(-1.267510e-06 -4.557718e-05 -9.237719e-07)
2805          	(-1.085774e-04 -2.592626e+01 -3.007149e-04)	(-1.080777e-04 -2.592621e+01 -3.008326e-04)	(-4.996415e-07 -4.442223e-05 1.176859e-07)	(-1.460591e-05 -3.596173e+01 -2.076575e-05)	(-1.404130e-05 -3.596168e+01 -2.079559e-05)	(-5.646061e-07 -4.625076e-05 2.983870e-08)	(-6.373631e-04 -4.294212e+01 -7.722352e-04)	(-6.366862e-04 -4.294207e+01 -7.722348e-04)	(-6.769202e-07 -4.346956e-05 -3.407086e-10)	(3.305105e-03 -4.785833e+01 -2.665553e-03)	(3.305869e-03 -4.785829e+01 -2.665630e-03)	(-7.646013e-07 -4.271117e-05 7.711305e-08)	(1.515227e-02 -4.994136e+01 4.237762e-03)	(1.515313e-02 -4.994132e+01 4.237572e-03)	(-8.511341e-07 -4.352244e-05 1.895374e-07)	(-9.134346e-04 -5.147108e+01 -2.767087e-05)	(-9.125891e-04 -5.147103e+01 -2.799537e-05)	(-8.455664e-07 -4.398232e-05 3.245041e-07)	(-9.130996e-04 -5.147108e+01 -2.741861e-05)	(-9.122620e-04 -5.147103e+01 -2.783422e-05)	(-8.376252e-07 -4.442568e-05 4.156109e-07)	(-9.124548e-04 -5.147108e+01 -2.715076e-05)	(-9.116229e-04 -5.147103e+01 -2.764048e-05)	(-8.319486e-07 -4.488458e-05 4.897262e-07)	(-9.117358e-04 -5.147108e+01 -2.696916e-05)	(-9.109095e-04 -5.147103e+01 -2.751244e-05)	(-8.263148e-07 -4.537036e-05 5.432755e-07)	(-9.108767e-04 -5.147108e+01 -2.691730e-05)	(-9.100554e-04 -5.147103e+01 -2.746028e-05)	(-8.212932e-07 -4.588845e-05 5.429837e-07)	(-9.100062e-04 -5.147108e+01 -2.706970e-05)	(-9.091842e-04 -5.147103e+01 -2.750244e-05)	(-8.220755e-07 -4.642939e-05 4.327370e-07)	(-9.092753e-04 -5.147108e+01 -2.744109e-05)	(-9.084364e-04 -5.147103e+01 -2.761928e-05)	(-8.388711e-07 -4.695859e-05 1.781873e-07)	(-9.086128e-04 -5.147108e+01 -2.784228e-05)	(-9.077516e-04 -5.147103e+01 -2.761337e-05)	(-8.612580e-07 -4.741551e-05 -2.289150e-07)	(-9.086946e-04 -5.147108e+01 -2.721810e-05)	(-9.078212e-04 -5.147103e+01 -2.644122e-05)	(-8.733143e-07 -4.772493e-05 -7.768762e-07)	(1.502826e-02 -4.993891e+01 -4.355935e-03)	(1.502913e-02 -4.993886e+01 -4.354559e-03)	(-8.687716e-07 -4.782963e-05 -1.376089e-06)	(2.731231e-03 -4.785251e+01 2.737687e-03)	(2.732094e-03 -4.785246e+01 2.739503e-03)	(-8.631436e-07 -4.771997e-05 -1.816204e-06)	(1.491559e-02 -4.292399e+01 1.560222e-02)	(1.491651e-02 -4.292394e+01 1.560406e-02)	(-9.214732e-07 -4.753442e-05 -1.841450e-06)	(-1.050863e-03 -3.593660e+01 -2.371416e-04)	(-1.049801e-03 -3.593655e+01 -2.356113e-04)	(-1.061793e-06 -4.751063e-05 -1.530281e-06)	(-9.512498e-04 -2.588513e+01 -1.525465e-04)	(-9.500404e-04 -2.588508e+01 -1.511080e-04)	(-1.209402e-06 -4.759772e-05 -1.438441e-06)	(-9.124878e-04 8.429492e-02 -1.609284e-04)	(-9.111850e-04 8.434072e-02 -1.600235e-04)	(-1.302812e-06 -4.579337e-05 -9.048801e-07)
2806          	(-1.086438e-04 -2.592626e+01 -2.957069e-04)	(-1.081361e-04 -2.592622e+01 -2.958220e-04)	(-5.077343e-07 -4.460939e-05 1.150475e-07)	(-1.471707e-05 -3.596173e+01 -1.385328e-05)	(-1.414955e-05 -3.596169e+01 -1.388353e-05)	(-5.675163e-07 -4.644551e-05 3.025352e-08)	(-6.375011e-04 -4.294212e+01 -7.640703e-04)	(-6.368183e-04 -4.294207e+01 -7.640680e-04)	(-6.827842e-07 -4.367638e-05 -2.332785e-09)	(3.304944e-03 -4.785833e+01 -2.656494e-03)	(3.305716e-03 -4.785829e+01 -2.656572e-03)	(-7.723594e-07 -4.291828e-05 7.730351e-08)	(1.515145e-02 -4.994136e+01 4.247159e-03)	(1.515231e-02 -4.994132e+01 4.246967e-03)	(-8.589369e-07 -4.372885e-05 1.919057e-07)	(-9.148687e-04 -5.147108e+01 -1.758081e-05)	(-9.140146e-04 -5.147104e+01 -1.790959e-05)	(-8.540503e-07 -4.418866e-05 3.287741e-07)	(-9.146227e-04 -5.147108e+01 -1.736042e-05)	(-9.137762e-04 -5.147104e+01 -1.778249e-05)	(-8.464603e-07 -4.463198e-05 4.220733e-07)	(-9.140668e-04 -5.147108e+01 -1.711502e-05)	(-9.132255e-04 -5.147104e+01 -1.761297e-05)	(-8.412801e-07 -4.509103e-05 4.979527e-07)	(-9.134360e-04 -5.147108e+01 -1.694668e-05)	(-9.125998e-04 -5.147104e+01 -1.749939e-05)	(-8.362206e-07 -4.557716e-05 5.527061e-07)	(-9.126640e-04 -5.147108e+01 -1.689867e-05)	(-9.118322e-04 -5.147104e+01 -1.745200e-05)	(-8.318696e-07 -4.609588e-05 5.533301e-07)	(-9.118788e-04 -5.147108e+01 -1.704526e-05)	(-9.110456e-04 -5.147104e+01 -1.748949e-05)	(-8.331776e-07 -4.663787e-05 4.442315e-07)	(-9.112310e-04 -5.147108e+01 -1.740172e-05)	(-9.103807e-04 -5.147104e+01 -1.759263e-05)	(-8.502763e-07 -4.716866e-05 1.909142e-07)	(-9.106495e-04 -5.147108e+01 -1.777969e-05)	(-9.097766e-04 -5.147104e+01 -1.756451e-05)	(-8.728415e-07 -4.762776e-05 -2.151841e-07)	(-9.108093e-04 -5.147108e+01 -1.712407e-05)	(-9.099245e-04 -5.147104e+01 -1.636216e-05)	(-8.848690e-07 -4.794001e-05 -7.619096e-07)	(1.502442e-02 -4.993891e+01 -4.348139e-03)	(1.502530e-02 -4.993886e+01 -4.346779e-03)	(-8.803466e-07 -4.804790e-05 -1.360151e-06)	(2.725474e-03 -4.785251e+01 2.744303e-03)	(2.726349e-03 -4.785247e+01 2.746105e-03)	(-8.751610e-07 -4.794087e-05 -1.801804e-06)	(1.490981e-02 -4.292399e+01 1.560606e-02)	(1.491074e-02 -4.292394e+01 1.560789e-02)	(-9.364341e-07 -4.775652e-05 -1.829772e-06)	(-1.056776e-03 -3.593660e+01 -2.372872e-04)	(-1.055695e-03 -3.593655e+01 -2.357692e-04)	(-1.080862e-06 -4.773352e-05 -1.518015e-06)	(-9.572504e-04 -2.588513e+01 -1.584649e-04)	(-9.560162e-04 -2.588508e+01 -1.570420e-04)	(-1.234242e-06 -4.782266e-05 -1.422887e-06)	(-9.185484e-04 8.428866e-02 -1.818262e-04)	(-9.172109e-04 8.433468e-02 -1.809417e-04)	(-1.337483e-06 -4.601799e-05 -8.845260e-07)
2807          	(-1.087124e-04 -2.592627e+01 -2.890891e-04)	(-1.081972e-04 -2.592622e+01 -2.892011e-04)	(-5.152365e-07 -4.480389e-05 1.120432e-07)	(-1.485527e-05 -3.596174e+01 -4.671107e-06)	(-1.428476e-05 -3.596169e+01 -4.700758e-06)	(-5.705062e-07 -4.664763e-05 2.965095e-08)	(-6.377122e-04 -4.294212e+01 -7.531570e-04)	(-6.370235e-04 -4.294208e+01 -7.531510e-04)	(-6.886838e-07 -4.388989e-05 -6.025162e-09)	(3.304674e-03 -4.785833e+01 -2.644347e-03)	(3.305454e-03 -4.785829e+01 -2.644422e-03)	(-7.800390e-07 -4.313207e-05 7.510987e-08)	(1.515025e-02 -4.994137e+01 4.259797e-03)	(1.515111e-02 -4.994132e+01 4.259606e-03)	(-8.662908e-07 -4.394170e-05 1.911139e-07)	(-9.169293e-04 -5.147109e+01 -3.938768e-06)	(-9.160673e-04 -5.147104e+01 -4.267829e-06)	(-8.619817e-07 -4.440121e-05 3.290606e-07)	(-9.167939e-04 -5.147109e+01 -3.759330e-06)	(-9.159393e-04 -5.147104e+01 -4.183283e-06)	(-8.546451e-07 -4.484427e-05 4.239534e-07)	(-9.163492e-04 -5.147109e+01 -3.543016e-06)	(-9.154994e-04 -5.147104e+01 -4.044204e-06)	(-8.498696e-07 -4.530330e-05 5.011878e-07)	(-9.158296e-04 -5.147109e+01 -3.391997e-06)	(-9.149844e-04 -5.147104e+01 -3.948908e-06)	(-8.452364e-07 -4.578971e-05 5.569111e-07)	(-9.151681e-04 -5.147109e+01 -3.349318e-06)	(-9.143266e-04 -5.147104e+01 -3.907581e-06)	(-8.414309e-07 -4.630907e-05 5.582627e-07)	(-9.144918e-04 -5.147109e+01 -3.488557e-06)	(-9.136487e-04 -5.147104e+01 -3.939102e-06)	(-8.431054e-07 -4.685219e-05 4.505443e-07)	(-9.139509e-04 -5.147109e+01 -3.825709e-06)	(-9.130906e-04 -5.147104e+01 -4.024592e-06)	(-8.603081e-07 -4.738465e-05 1.988828e-07)	(-9.134742e-04 -5.147109e+01 -4.173221e-06)	(-9.125913e-04 -5.147104e+01 -3.967716e-06)	(-8.829798e-07 -4.784599e-05 -2.055043e-07)	(-9.137359e-04 -5.147109e+01 -3.476896e-06)	(-9.128411e-04 -5.147104e+01 -2.726114e-06)	(-8.948124e-07 -4.816110e-05 -7.507821e-07)	(1.501925e-02 -4.993891e+01 -4.337478e-03)	(1.502014e-02 -4.993887e+01 -4.336131e-03)	(-8.904000e-07 -4.827215e-05 -1.347459e-06)	(2.717813e-03 -4.785252e+01 2.753430e-03)	(2.718698e-03 -4.785247e+01 2.755220e-03)	(-8.857220e-07 -4.816770e-05 -1.789965e-06)	(1.490214e-02 -4.292399e+01 1.561155e-02)	(1.490309e-02 -4.292395e+01 1.561337e-02)	(-9.502714e-07 -4.798469e-05 -1.819752e-06)	(-1.064587e-03 -3.593661e+01 -2.369809e-04)	(-1.063488e-03 -3.593656e+01 -2.354745e-04)	(-1.099175e-06 -4.796276e-05 -1.506366e-06)	(-9.651517e-04 -2.588514e+01 -1.656790e-04)	(-9.638930e-04 -2.588509e+01 -1.642718e-04)	(-1.258768e-06 -4.805401e-05 -1.407255e-06)	(-9.265139e-04 8.427886e-02 -2.085266e-04)	(-9.251409e-04 8.432511e-02 -2.076643e-04)	(-1.373013e-06 -4.624908e-05 -8.623021e-07)
2808          	(-1.088039e-04 -2.592627e+01 -2.805446e-04)	(-1.082808e-04 -2.592623e+01 -2.806523e-04)	(-5.230988e-07 -4.500541e-05 1.077040e-07)	(-1.506909e-05 -3.596174e+01 7.225189e-06)	(-1.449448e-05 -3.596170e+01 7.198464e-06)	(-5.746091e-07 -4.685647e-05 2.672432e-08)	(-6.380755e-04 -4.294213e+01 -7.389614e-04)	(-6.373796e-04 -4.294208e+01 -7.389482e-04)	(-6.958889e-07 -4.410896e-05 -1.320131e-08)	(3.304185e-03 -4.785834e+01 -2.628516e-03)	(3.304974e-03 -4.785830e+01 -2.628584e-03)	(-7.891518e-07 -4.335135e-05 6.832551e-08)	(1.514849e-02 -4.994137e+01 4.276312e-03)	(1.514937e-02 -4.994133e+01 4.276128e-03)	(-8.750902e-07 -4.415989e-05 1.846224e-07)	(-9.198464e-04 -5.147109e+01 1.396826e-05)	(-9.189750e-04 -5.147105e+01 1.364564e-05)	(-8.713680e-07 -4.461890e-05 3.226222e-07)	(-9.198459e-04 -5.147109e+01 1.409645e-05)	(-9.189817e-04 -5.147105e+01 1.367809e-05)	(-8.641989e-07 -4.506153e-05 4.183653e-07)	(-9.195376e-04 -5.147109e+01 1.427597e-05)	(-9.186778e-04 -5.147105e+01 1.377973e-05)	(-8.597137e-07 -4.552038e-05 4.962404e-07)	(-9.191548e-04 -5.147109e+01 1.440499e-05)	(-9.182993e-04 -5.147105e+01 1.385242e-05)	(-8.554724e-07 -4.600697e-05 5.525605e-07)	(-9.186298e-04 -5.147109e+01 1.444097e-05)	(-9.177778e-04 -5.147105e+01 1.388623e-05)	(-8.520202e-07 -4.652694e-05 5.547346e-07)	(-9.180888e-04 -5.147109e+01 1.431096e-05)	(-9.172350e-04 -5.147105e+01 1.386216e-05)	(-8.538003e-07 -4.707120e-05 4.488008e-07)	(-9.176816e-04 -5.147109e+01 1.399785e-05)	(-9.168106e-04 -5.147105e+01 1.379877e-05)	(-8.709507e-07 -4.760534e-05 1.990796e-07)	(-9.173367e-04 -5.147110e+01 1.368833e-05)	(-9.164431e-04 -5.147105e+01 1.389179e-05)	(-8.935435e-07 -4.806893e-05 -2.034610e-07)	(-9.177272e-04 -5.147110e+01 1.443610e-05)	(-9.168220e-04 -5.147105e+01 1.518299e-05)	(-9.051896e-07 -4.838686e-05 -7.468901e-07)	(1.501241e-02 -4.993892e+01 -4.323351e-03)	(1.501332e-02 -4.993887e+01 -4.322010e-03)	(-9.010462e-07 -4.850095e-05 -1.341267e-06)	(2.707821e-03 -4.785253e+01 2.765616e-03)	(2.708718e-03 -4.785248e+01 2.767399e-03)	(-8.970013e-07 -4.839897e-05 -1.783732e-06)	(1.489217e-02 -4.292400e+01 1.561912e-02)	(1.489313e-02 -4.292395e+01 1.562094e-02)	(-9.653802e-07 -4.821739e-05 -1.814093e-06)	(-1.074720e-03 -3.593661e+01 -2.360010e-04)	(-1.073601e-03 -3.593657e+01 -2.345034e-04)	(-1.119389e-06 -4.819673e-05 -1.497670e-06)	(-9.753772e-04 -2.588515e+01 -1.742440e-04)	(-9.740913e-04 -2.588510e+01 -1.728505e-04)	(-1.285819e-06 -4.829012e-05 -1.393423e-06)	(-9.368083e-04 8.426512e-02 -2.417964e-04)	(-9.353958e-04 8.431160e-02 -2.409573e-04)	(-1.412450e-06 -4.648506e-05 -8.391832e-07)
2809          	(-1.089213e-04 -2.592627e+01 -2.722898e-04)	(-1.083895e-04 -2.592623e+01 -2.723928e-04)	(-5.318650e-07 -4.521366e-05 1.029800e-07)	(-1.535996e-05 -3.596175e+01 1.871811e-05)	(-1.477941e-05 -3.596170e+01 1.869569e-05)	(-5.805492e-07 -4.707192e-05 2.241460e-08)	(-6.385741e-04 -4.294213e+01 -7.252454e-04)	(-6.378691e-04 -4.294209e+01 -7.252230e-04)	(-7.050096e-07 -4.433349e-05 -2.245643e-08)	(3.303500e-03 -4.785834e+01 -2.613221e-03)	(3.304300e-03 -4.785830e+01 -2.613279e-03)	(-8.002176e-07 -4.357594e-05 5.862044e-08)	(1.514654e-02 -4.994138e+01 4.292282e-03)	(1.514742e-02 -4.994133e+01 4.292108e-03)	(-8.855641e-07 -4.438325e-05 1.743498e-07)	(-9.229721e-04 -5.147110e+01 3.132191e-05)	(-9.220897e-04 -5.147105e+01 3.101032e-05)	(-8.824273e-07 -4.484159e-05 3.115901e-07)	(-9.231158e-04 -5.147110e+01 3.139456e-05)	(-9.222404e-04 -5.147105e+01 3.098700e-05)	(-8.753748e-07 -4.528363e-05 4.075662e-07)	(-9.229530e-04 -5.147110e+01 3.153406e-05)	(-9.220819e-04 -5.147105e+01 3.104853e-05)	(-8.711374e-07 -4.574216e-05 4.855242e-07)	(-9.227166e-04 -5.147110e+01 3.163920e-05)	(-9.218495e-04 -5.147105e+01 3.109700e-05)	(-8.671693e-07 -4.622882e-05 5.422025e-07)	(-9.223380e-04 -5.147110e+01 3.166784e-05)	(-9.214741e-04 -5.147105e+01 3.112273e-05)	(-8.639282e-07 -4.674933e-05 5.451172e-07)	(-9.219426e-04 -5.147110e+01 3.154742e-05)	(-9.210769e-04 -5.147105e+01 3.110669e-05)	(-8.657494e-07 -4.729468e-05 4.407383e-07)	(-9.216795e-04 -5.147110e+01 3.126022e-05)	(-9.207968e-04 -5.147105e+01 3.106715e-05)	(-8.826991e-07 -4.783046e-05 1.930686e-07)	(-9.214770e-04 -5.147110e+01 3.099203e-05)	(-9.205719e-04 -5.147105e+01 3.119928e-05)	(-9.051051e-07 -4.829621e-05 -2.072528e-07)	(-9.220072e-04 -5.147110e+01 3.179569e-05)	(-9.210906e-04 -5.147105e+01 3.254426e-05)	(-9.165166e-07 -4.861683e-05 -7.485762e-07)	(1.500503e-02 -4.993893e+01 -4.310123e-03)	(1.500594e-02 -4.993888e+01 -4.308782e-03)	(-9.127607e-07 -4.873379e-05 -1.340073e-06)	(2.696995e-03 -4.785253e+01 2.776726e-03)	(2.697904e-03 -4.785248e+01 2.778507e-03)	(-9.094382e-07 -4.863409e-05 -1.781623e-06)	(1.488138e-02 -4.292401e+01 1.562518e-02)	(1.488236e-02 -4.292396e+01 1.562699e-02)	(-9.821939e-07 -4.845390e-05 -1.811361e-06)	(-1.085663e-03 -3.593662e+01 -2.371582e-04)	(-1.084521e-03 -3.593657e+01 -2.356676e-04)	(-1.141883e-06 -4.843458e-05 -1.490627e-06)	(-9.864051e-04 -2.588516e+01 -1.858496e-04)	(-9.850894e-04 -2.588511e+01 -1.844694e-04)	(-1.315638e-06 -4.852996e-05 -1.380185e-06)	(-9.479034e-04 8.425055e-02 -2.804383e-04)	(-9.464478e-04 8.429727e-02 -2.796242e-04)	(-1.455646e-06 -4.672491e-05 -8.140989e-07)
2810          	(-1.090576e-04 -2.592628e+01 -2.645406e-04)	(-1.085162e-04 -2.592623e+01 -2.646383e-04)	(-5.414666e-07 -4.542831e-05 9.773239e-08)	(-1.570028e-05 -3.596175e+01 2.949257e-05)	(-1.511245e-05 -3.596170e+01 2.947547e-05)	(-5.878279e-07 -4.729356e-05 1.709810e-08)	(-6.391486e-04 -4.294214e+01 -7.124018e-04)	(-6.384332e-04 -4.294209e+01 -7.123685e-04)	(-7.154012e-07 -4.456310e-05 -3.324271e-08)	(3.302712e-03 -4.785835e+01 -2.598912e-03)	(3.303525e-03 -4.785830e+01 -2.598959e-03)	(-8.125733e-07 -4.380548e-05 4.693277e-08)	(1.514454e-02 -4.994138e+01 4.307222e-03)	(1.514544e-02 -4.994134e+01 4.307060e-03)	(-8.973002e-07 -4.461150e-05 1.616075e-07)	(-9.260753e-04 -5.147110e+01 4.756083e-05)	(-9.251806e-04 -5.147106e+01 4.726329e-05)	(-8.946691e-07 -4.506905e-05 2.975479e-07)	(-9.263627e-04 -5.147110e+01 4.757767e-05)	(-9.254750e-04 -5.147106e+01 4.718432e-05)	(-8.876536e-07 -4.551038e-05 3.933439e-07)	(-9.263451e-04 -5.147110e+01 4.767706e-05)	(-9.254615e-04 -5.147106e+01 4.720588e-05)	(-8.836140e-07 -4.596845e-05 4.711771e-07)	(-9.262546e-04 -5.147110e+01 4.775826e-05)	(-9.253747e-04 -5.147106e+01 4.723020e-05)	(-8.798613e-07 -4.645503e-05 5.280576e-07)	(-9.260218e-04 -5.147110e+01 4.777952e-05)	(-9.251451e-04 -5.147106e+01 4.724789e-05)	(-8.767601e-07 -4.697597e-05 5.316360e-07)	(-9.257714e-04 -5.147110e+01 4.766851e-05)	(-9.248929e-04 -5.147106e+01 4.723984e-05)	(-8.785372e-07 -4.752230e-05 4.286701e-07)	(-9.256518e-04 -5.147110e+01 4.740747e-05)	(-9.247567e-04 -5.147106e+01 4.722408e-05)	(-8.951858e-07 -4.805959e-05 1.833928e-07)	(-9.255912e-04 -5.147111e+01 4.718064e-05)	(-9.246739e-04 -5.147106e+01 4.739518e-05)	(-9.173137e-07 -4.852736e-05 -2.145364e-07)	(-9.262607e-04 -5.147111e+01 4.804016e-05)	(-9.253322e-04 -5.147106e+01 4.879376e-05)	(-9.284761e-07 -4.885047e-05 -7.536046e-07)	(1.499774e-02 -4.993893e+01 -4.297905e-03)	(1.499867e-02 -4.993888e+01 -4.296563e-03)	(-9.252118e-07 -4.897000e-05 -1.341706e-06)	(2.686351e-03 -4.785254e+01 2.786879e-03)	(2.687274e-03 -4.785249e+01 2.788661e-03)	(-9.227090e-07 -4.887229e-05 -1.781598e-06)	(1.487079e-02 -4.292401e+01 1.563040e-02)	(1.487179e-02 -4.292397e+01 1.563221e-02)	(-1.000247e-06 -4.869334e-05 -1.809657e-06)	(-1.096394e-03 -3.593663e+01 -2.389965e-04)	(-1.095229e-03 -3.593658e+01 -2.375129e-04)	(-1.165967e-06 -4.867526e-05 -1.483634e-06)	(-9.972097e-04 -2.588517e+01 -1.979055e-04)	(-9.958625e-04 -2.588512e+01 -1.965392e-04)	(-1.347196e-06 -4.877233e-05 -1.366296e-06)	(-9.587687e-04 8.423701e-02 -3.189329e-04)	(-9.572679e-04 8.428397e-02 -3.181465e-04)	(-1.500811e-06 -4.696739e-05 -7.864599e-07)