# Force       
# CofR        : (0.000000e+00 0.000000e+00 0.000000e+00)
#
# Time        	(total_x total_y total_z)	(pressure_x pressure_y pressure_z)	(viscous_x viscous_y viscous_z)
91.0082       	(9.634482e+00 -4.050323e-02 3.022157e+02)	(9.601327e+00 -4.026420e-02 3.021938e+02)	(3.315560e-02 -2.390302e-04 2.189248e-02)
91.0164       	(9.638177e+00 -4.064011e-02 3.022160e+02)	(9.605023e+00 -4.040934e-02 3.021941e+02)	(3.315423e-02 -2.307659e-04 2.187703e-02)
91.0246       	(9.643981e+00 -4.064675e-02 3.022178e+02)	(9.610828e+00 -4.042412e-02 3.021959e+02)	(3.315256e-02 -2.226305e-04 2.185986e-02)
91.0328       	(9.648904e+00 -4.071469e-02 3.022193e+02)	(9.615754e+00 -4.049975e-02 3.021975e+02)	(3.315057e-02 -2.149426e-04 2.184095e-02)
91.041        	(9.653203e+00 -4.078538e-02 3.022207e+02)	(9.620054e+00 -4.057742e-02 3.021989e+02)	(3.314861e-02 -2.079590e-04 2.182029e-02)
91.0492       	(9.656876e+00 -4.085065e-02 3.022220e+02)	(9.623730e+00 -4.064920e-02 3.022002e+02)	(3.314667e-02 -2.014538e-04 2.179801e-02)
91.0574       	(9.660517e+00 -4.086602e-02 3.022233e+02)	(9.627372e+00 -4.067079e-02 3.022015e+02)	(3.314482e-02 -1.952348e-04 2.177457e-02)
91.0656       	(9.663682e+00 -4.091116e-02 3.022247e+02)	(9.630539e+00 -4.072159e-02 3.022029e+02)	(3.314303e-02 -1.895665e-04 2.175034e-02)
91.0738       	(9.666894e+00 -4.095808e-02 3.022261e+02)	(9.633753e+00 -4.077376e-02 3.022044e+02)	(3.314138e-02 -1.843205e-04 2.172568e-02)
91.082        	(9.670160e+00 -4.098956e-02 3.022278e+02)	(9.637020e+00 -4.081010e-02 3.022061e+02)	(3.314010e-02 -1.794561e-04 2.170113e-02)
91.0902       	(9.673078e+00 -4.106281e-02 3.022296e+02)	(9.639939e+00 -4.088784e-02 3.022079e+02)	(3.313929e-02 -1.749657e-04 2.167703e-02)
91.0984       	(9.675922e+00 -4.110046e-02 3.022314e+02)	(9.642783e+00 -4.092961e-02 3.022098e+02)	(3.313900e-02 -1.708446e-04 2.165353e-02)
91.1066       	(9.678750e+00 -4.115312e-02 3.022335e+02)	(9.645611e+00 -4.098615e-02 3.022119e+02)	(3.313936e-02 -1.669629e-04 2.163094e-02)
91.1148       	(9.681716e+00 -4.118884e-02 3.022359e+02)	(9.648576e+00 -4.102560e-02 3.022143e+02)	(3.314060e-02 -1.632451e-04 2.160951e-02)
91.123        	(9.684278e+00 -4.129257e-02 3.022383e+02)	(9.651135e+00 -4.113286e-02 3.022167e+02)	(3.314282e-02 -1.597161e-04 2.158927e-02)
91.1311       	(9.686882e+00 -4.140661e-02 3.022409e+02)	(9.653735e+00 -4.125021e-02 3.022193e+02)	(3.314627e-02 -1.563997e-04 2.157021e-02)
91.1393       	(9.689772e+00 -4.151320e-02 3.022436e+02)	(9.656621e+00 -4.136002e-02 3.022221e+02)	(3.315131e-02 -1.531761e-04 2.155255e-02)
91.1475       	(9.692414e+00 -4.171229e-02 3.022465e+02)	(9.659256e+00 -4.156216e-02 3.022250e+02)	(3.315817e-02 -1.501292e-04 2.153640e-02)
91.1557       	(9.695045e+00 -4.185875e-02 3.022496e+02)	(9.661878e+00 -4.171154e-02 3.022281e+02)	(3.316697e-02 -1.472111e-04 2.152184e-02)
91.1639       	(9.697953e+00 -4.204811e-02 3.022528e+02)	(9.664775e+00 -4.190362e-02 3.022313e+02)	(3.317782e-02 -1.444864e-04 2.150910e-02)
91.1721       	(9.701095e+00 -4.222333e-02 3.022561e+02)	(9.667905e+00 -4.208147e-02 3.022346e+02)	(3.319065e-02 -1.418666e-04 2.149834e-02)
91.1803       	(9.704468e+00 -4.237844e-02 3.022596e+02)	(9.671263e+00 -4.223919e-02 3.022381e+02)	(3.320532e-02 -1.392490e-04 2.149000e-02)
91.1884       	(9.707711e+00 -4.255742e-02 3.022632e+02)	(9.674490e+00 -4.242078e-02 3.022418e+02)	(3.322130e-02 -1.366418e-04 2.148434e-02)
91.1966       	(9.711113e+00 -4.269784e-02 3.022670e+02)	(9.677875e+00 -4.256397e-02 3.022455e+02)	(3.323822e-02 -1.338666e-04 2.148180e-02)
91.2047       	(9.714699e+00 -4.283997e-02 3.022709e+02)	(9.681443e+00 -4.270908e-02 3.022494e+02)	(3.325560e-02 -1.308888e-04 2.148265e-02)
91.2128       	(9.717897e+00 -4.302317e-02 3.022749e+02)	(9.684624e+00 -4.289544e-02 3.022534e+02)	(3.327274e-02 -1.277318e-04 2.148688e-02)
91.2209       	(9.721109e+00 -4.312364e-02 3.022789e+02)	(9.687819e+00 -4.299934e-02 3.022574e+02)	(3.328916e-02 -1.242967e-04 2.149442e-02)
91.229        	(9.724119e+00 -4.325236e-02 3.022830e+02)	(9.690815e+00 -4.313180e-02 3.022615e+02)	(3.330433e-02 -1.205606e-04 2.150500e-02)
91.2371       	(9.727099e+00 -4.340466e-02 3.022871e+02)	(9.693781e+00 -4.328807e-02 3.022655e+02)	(3.331794e-02 -1.165859e-04 2.151809e-02)
91.2453       	(9.729885e+00 -4.351327e-02 3.022911e+02)	(9.696555e+00 -4.340090e-02 3.022696e+02)	(3.332982e-02 -1.123632e-04 2.153324e-02)
91.2534       	(9.732088e+00 -4.361365e-02 3.022951e+02)	(9.698748e+00 -4.350581e-02 3.022736e+02)	(3.334004e-02 -1.078458e-04 2.154994e-02)
91.2615       	(9.733832e+00 -4.372506e-02 3.022990e+02)	(9.700483e+00 -4.362202e-02 3.022775e+02)	(3.334860e-02 -1.030378e-04 2.156764e-02)
91.2696       	(9.736040e+00 -4.390838e-02 3.023028e+02)	(9.702684e+00 -4.381036e-02 3.022812e+02)	(3.335579e-02 -9.801958e-05 2.158567e-02)
91.2777       	(9.738228e+00 -4.413340e-02 3.023063e+02)	(9.704866e+00 -4.404055e-02 3.022847e+02)	(3.336190e-02 -9.285454e-05 2.160367e-02)
91.2858       	(9.740077e+00 -4.436585e-02 3.023098e+02)	(9.706710e+00 -4.427831e-02 3.022882e+02)	(3.336738e-02 -8.753836e-05 2.162163e-02)
91.2939       	(9.741527e+00 -4.463921e-02 3.023131e+02)	(9.708155e+00 -4.455713e-02 3.022915e+02)	(3.337237e-02 -8.207989e-05 2.163939e-02)
91.3021       	(9.743271e+00 -4.496684e-02 3.023162e+02)	(9.709894e+00 -4.489022e-02 3.022945e+02)	(3.337704e-02 -7.662349e-05 2.165695e-02)
91.3102       	(9.744883e+00 -4.524775e-02 3.023192e+02)	(9.711501e+00 -4.517665e-02 3.022975e+02)	(3.338163e-02 -7.110642e-05 2.167470e-02)
91.3183       	(9.746154e+00 -4.557064e-02 3.023220e+02)	(9.712768e+00 -4.550500e-02 3.023003e+02)	(3.338594e-02 -6.563646e-05 2.169274e-02)
91.3264       	(9.747959e+00 -4.588489e-02 3.023247e+02)	(9.714569e+00 -4.582457e-02 3.023030e+02)	(3.338995e-02 -6.032571e-05 2.171146e-02)
91.3345       	(9.749756e+00 -4.619462e-02 3.023273e+02)	(9.716363e+00 -4.613940e-02 3.023056e+02)	(3.339358e-02 -5.521999e-05 2.173123e-02)
91.3426       	(9.751319e+00 -4.651263e-02 3.023298e+02)	(9.717922e+00 -4.646225e-02 3.023081e+02)	(3.339654e-02 -5.038779e-05 2.175219e-02)
91.3508       	(9.752676e+00 -4.684260e-02 3.023323e+02)	(9.719278e+00 -4.679662e-02 3.023105e+02)	(3.339857e-02 -4.597718e-05 2.177448e-02)
91.3589       	(9.754275e+00 -4.714272e-02 3.023346e+02)	(9.720876e+00 -4.710061e-02 3.023128e+02)	(3.339937e-02 -4.211068e-05 2.179807e-02)
91.367        	(9.756363e+00 -4.741420e-02 3.023369e+02)	(9.722964e+00 -4.737527e-02 3.023151e+02)	(3.339888e-02 -3.893144e-05 2.182296e-02)
91.3751       	(9.758372e+00 -4.771101e-02 3.023392e+02)	(9.724975e+00 -4.767439e-02 3.023173e+02)	(3.339708e-02 -3.662429e-05 2.184900e-02)
91.3832       	(9.760060e+00 -4.802909e-02 3.023413e+02)	(9.726666e+00 -4.799362e-02 3.023195e+02)	(3.339374e-02 -3.547126e-05 2.187601e-02)
91.3913       	(9.762095e+00 -4.831651e-02 3.023434e+02)	(9.728706e+00 -4.828086e-02 3.023215e+02)	(3.338884e-02 -3.564206e-05 2.190372e-02)
91.3994       	(9.764404e+00 -4.860678e-02 3.023454e+02)	(9.731021e+00 -4.856945e-02 3.023234e+02)	(3.338244e-02 -3.733328e-05 2.193180e-02)
91.4076       	(9.766910e+00 -4.886049e-02 3.023473e+02)	(9.733535e+00 -4.881980e-02 3.023253e+02)	(3.337468e-02 -4.068265e-05 2.196005e-02)
91.4157       	(9.769260e+00 -4.910237e-02 3.023491e+02)	(9.735895e+00 -4.905662e-02 3.023272e+02)	(3.336570e-02 -4.575174e-05 2.198819e-02)
91.4238       	(9.771561e+00 -4.937658e-02 3.023508e+02)	(9.738205e+00 -4.932389e-02 3.023288e+02)	(3.335568e-02 -5.269277e-05 2.201588e-02)
91.4319       	(9.773939e+00 -4.964071e-02 3.023525e+02)	(9.740594e+00 -4.957913e-02 3.023304e+02)	(3.334491e-02 -6.157325e-05 2.204296e-02)
91.44         	(9.776071e+00 -4.991469e-02 3.023540e+02)	(9.742738e+00 -4.984226e-02 3.023319e+02)	(3.333351e-02 -7.243584e-05 2.206910e-02)
91.4481       	(9.778473e+00 -5.018504e-02 3.023554e+02)	(9.745152e+00 -5.009976e-02 3.023333e+02)	(3.332168e-02 -8.528590e-05 2.209409e-02)
91.4563       	(9.780898e+00 -5.043974e-02 3.023567e+02)	(9.747589e+00 -5.033969e-02 3.023346e+02)	(3.330968e-02 -1.000492e-04 2.211788e-02)
91.4644       	(9.783133e+00 -5.069272e-02 3.023580e+02)	(9.749836e+00 -5.057609e-02 3.023358e+02)	(3.329754e-02 -1.166303e-04 2.214047e-02)
91.4725       	(9.785432e+00 -5.096527e-02 3.023592e+02)	(9.752147e+00 -5.083031e-02 3.023370e+02)	(3.328545e-02 -1.349521e-04 2.216186e-02)
91.4806       	(9.787860e+00 -5.120603e-02 3.023603e+02)	(9.754587e+00 -5.105123e-02 3.023382e+02)	(3.327347e-02 -1.548051e-04 2.218206e-02)
91.4887       	(9.790628e+00 -5.140799e-02 3.023616e+02)	(9.757366e+00 -5.123213e-02 3.023394e+02)	(3.326166e-02 -1.758624e-04 2.220117e-02)
91.4968       	(9.793469e+00 -5.163283e-02 3.023628e+02)	(9.760219e+00 -5.143494e-02 3.023406e+02)	(3.325001e-02 -1.978942e-04 2.221924e-02)
91.505        	(9.796305e+00 -5.177599e-02 3.023640e+02)	(9.763066e+00 -5.155545e-02 3.023418e+02)	(3.323857e-02 -2.205483e-04 2.223644e-02)
91.5131       	(9.798927e+00 -5.191992e-02 3.023653e+02)	(9.765699e+00 -5.167647e-02 3.023430e+02)	(3.322724e-02 -2.434412e-04 2.225292e-02)
91.5212       	(9.801304e+00 -5.207853e-02 3.023665e+02)	(9.768088e+00 -5.181226e-02 3.023442e+02)	(3.321586e-02 -2.662723e-04 2.226865e-02)
91.5293       	(9.803990e+00 -5.219781e-02 3.023677e+02)	(9.770786e+00 -5.190921e-02 3.023454e+02)	(3.320455e-02 -2.886013e-04 2.228376e-02)
91.5374       	(9.806534e+00 -5.229430e-02 3.023688e+02)	(9.773341e+00 -5.198412e-02 3.023465e+02)	(3.319322e-02 -3.101779e-04 2.229835e-02)
91.5455       	(9.808888e+00 -5.241023e-02 3.023700e+02)	(9.775706e+00 -5.207952e-02 3.023477e+02)	(3.318178e-02 -3.307069e-04 2.231245e-02)
91.5536       	(9.811293e+00 -5.247903e-02 3.023711e+02)	(9.778123e+00 -5.212907e-02 3.023488e+02)	(3.317027e-02 -3.499598e-04 2.232615e-02)
91.5618       	(9.813768e+00 -5.258394e-02 3.023722e+02)	(9.780609e+00 -5.221621e-02 3.023498e+02)	(3.315863e-02 -3.677316e-04 2.233940e-02)
91.5699       	(9.816652e+00 -5.269371e-02 3.023731e+02)	(9.783505e+00 -5.230975e-02 3.023508e+02)	(3.314694e-02 -3.839562e-04 2.235223e-02)
91.578        	(9.819475e+00 -5.278927e-02 3.023741e+02)	(9.786339e+00 -5.239067e-02 3.023517e+02)	(3.313525e-02 -3.985961e-04 2.236475e-02)
91.5861       	(9.822460e+00 -5.283965e-02 3.023749e+02)	(9.789336e+00 -5.242805e-02 3.023526e+02)	(3.312355e-02 -4.116075e-04 2.237687e-02)
91.5942       	(9.825484e+00 -5.291350e-02 3.023758e+02)	(9.792372e+00 -5.249047e-02 3.023534e+02)	(3.311195e-02 -4.230298e-04 2.238862e-02)
91.6023       	(9.828511e+00 -5.303082e-02 3.023765e+02)	(9.795411e+00 -5.259778e-02 3.023541e+02)	(3.310039e-02 -4.330364e-04 2.239986e-02)
91.6105       	(9.831691e+00 -5.312158e-02 3.023771e+02)	(9.798602e+00 -5.267982e-02 3.023547e+02)	(3.308889e-02 -4.417649e-04 2.241061e-02)
91.6186       	(9.834887e+00 -5.317613e-02 3.023777e+02)	(9.801809e+00 -5.272689e-02 3.023553e+02)	(3.307755e-02 -4.492477e-04 2.242083e-02)
91.6267       	(9.837995e+00 -5.327646e-02 3.023782e+02)	(9.804929e+00 -5.282091e-02 3.023558e+02)	(3.306638e-02 -4.555423e-04 2.243045e-02)
91.6348       	(9.841138e+00 -5.340939e-02 3.023787e+02)	(9.808083e+00 -5.294858e-02 3.023562e+02)	(3.305539e-02 -4.608026e-04 2.243941e-02)
91.6429       	(9.844443e+00 -5.352529e-02 3.023790e+02)	(9.811398e+00 -5.306023e-02 3.023566e+02)	(3.304456e-02 -4.650568e-04 2.244767e-02)
91.651        	(9.847900e+00 -5.363633e-02 3.023795e+02)	(9.814866e+00 -5.316801e-02 3.023571e+02)	(3.303403e-02 -4.683244e-04 2.245540e-02)
91.6591       	(9.850918e+00 -5.380894e-02 3.023799e+02)	(9.817895e+00 -5.333816e-02 3.023575e+02)	(3.302370e-02 -4.707751e-04 2.246257e-02)
91.6673       	(9.854276e+00 -5.395379e-02 3.023803e+02)	(9.821262e+00 -5.348129e-02 3.023578e+02)	(3.301354e-02 -4.724978e-04 2.246915e-02)
91.6754       	(9.857905e+00 -5.404453e-02 3.023807e+02)	(9.824901e+00 -5.357105e-02 3.023582e+02)	(3.300370e-02 -4.734800e-04 2.247528e-02)
91.6835       	(9.861081e+00 -5.418323e-02 3.023811e+02)	(9.828087e+00 -5.370938e-02 3.023586e+02)	(3.299416e-02 -4.738453e-04 2.248105e-02)
91.6916       	(9.864302e+00 -5.432079e-02 3.023814e+02)	(9.831317e+00 -5.384714e-02 3.023590e+02)	(3.298488e-02 -4.736549e-04 2.248646e-02)
91.6997       	(9.867823e+00 -5.440255e-02 3.023818e+02)	(9.834847e+00 -5.392958e-02 3.023593e+02)	(3.297595e-02 -4.729706e-04 2.249168e-02)
91.7078       	(9.871211e+00 -5.448116e-02 3.023822e+02)	(9.838243e+00 -5.400939e-02 3.023597e+02)	(3.296732e-02 -4.717657e-04 2.249683e-02)
91.716        	(9.874427e+00 -5.458345e-02 3.023826e+02)	(9.841468e+00 -5.411331e-02 3.023601e+02)	(3.295894e-02 -4.701386e-04 2.250200e-02)
91.7241       	(9.877674e+00 -5.466729e-02 3.023831e+02)	(9.844723e+00 -5.419917e-02 3.023606e+02)	(3.295080e-02 -4.681232e-04 2.250724e-02)
91.7322       	(9.880967e+00 -5.475718e-02 3.023836e+02)	(9.848024e+00 -5.429139e-02 3.023611e+02)	(3.294297e-02 -4.657841e-04 2.251273e-02)
91.7403       	(9.883903e+00 -5.486248e-02 3.023842e+02)	(9.850968e+00 -5.439937e-02 3.023616e+02)	(3.293541e-02 -4.631016e-04 2.251858e-02)
91.7484       	(9.886688e+00 -5.495974e-02 3.023847e+02)	(9.853760e+00 -5.449968e-02 3.023622e+02)	(3.292801e-02 -4.600643e-04 2.252479e-02)
91.7565       	(9.889591e+00 -5.500164e-02 3.023854e+02)	(9.856670e+00 -5.454502e-02 3.023629e+02)	(3.292082e-02 -4.566235e-04 2.253143e-02)
91.7646       	(9.892218e+00 -5.503974e-02 3.023861e+02)	(9.859304e+00 -5.458701e-02 3.023636e+02)	(3.291383e-02 -4.527291e-04 2.253861e-02)
91.7728       	(9.894601e+00 -5.508250e-02 3.023868e+02)	(9.861694e+00 -5.463413e-02 3.023643e+02)	(3.290698e-02 -4.483719e-04 2.254627e-02)
91.7809       	(9.897400e+00 -5.505268e-02 3.023875e+02)	(9.864500e+00 -5.460918e-02 3.023650e+02)	(3.290023e-02 -4.435073e-04 2.255442e-02)
91.789        	(9.900180e+00 -5.500468e-02 3.023883e+02)	(9.867287e+00 -5.456662e-02 3.023658e+02)	(3.289366e-02 -4.380628e-04 2.256314e-02)
91.7971       	(9.902810e+00 -5.496878e-02 3.023891e+02)	(9.869923e+00 -5.453684e-02 3.023665e+02)	(3.288714e-02 -4.319392e-04 2.257231e-02)
91.8052       	(9.905652e+00 -5.492853e-02 3.023900e+02)	(9.872771e+00 -5.450357e-02 3.023674e+02)	(3.288072e-02 -4.249587e-04 2.258193e-02)
91.8133       	(9.908553e+00 -5.487810e-02 3.023909e+02)	(9.875679e+00 -5.446109e-02 3.023683e+02)	(3.287435e-02 -4.170073e-04 2.259197e-02)
91.8215       	(9.911163e+00 -5.482596e-02 3.023919e+02)	(9.878295e+00 -5.441799e-02 3.023693e+02)	(3.286810e-02 -4.079773e-04 2.260244e-02)
91.8296       	(9.913636e+00 -5.480944e-02 3.023929e+02)	(9.880775e+00 -5.441157e-02 3.023703e+02)	(3.286189e-02 -3.978721e-04 2.261322e-02)
91.8377       	(9.916090e+00 -5.479354e-02 3.023939e+02)	(9.883235e+00 -5.440689e-02 3.023713e+02)	(3.285574e-02 -3.866497e-04 2.262421e-02)
91.8458       	(9.918420e+00 -5.477931e-02 3.023951e+02)	(9.885570e+00 -5.440505e-02 3.023725e+02)	(3.284971e-02 -3.742676e-04 2.263542e-02)
91.8539       	(9.920479e+00 -5.480431e-02 3.023963e+02)	(9.887635e+00 -5.444358e-02 3.023737e+02)	(3.284376e-02 -3.607262e-04 2.264676e-02)
91.862        	(9.922604e+00 -5.483365e-02 3.023976e+02)	(9.889766e+00 -5.448761e-02 3.023750e+02)	(3.283790e-02 -3.460410e-04 2.265812e-02)
91.8702       	(9.924722e+00 -5.483987e-02 3.023990e+02)	(9.891890e+00 -5.450962e-02 3.023763e+02)	(3.283217e-02 -3.302466e-04 2.266949e-02)
91.8783       	(9.926892e+00 -5.481505e-02 3.024003e+02)	(9.894065e+00 -5.450177e-02 3.023777e+02)	(3.282657e-02 -3.132846e-04 2.268081e-02)
91.8864       	(9.929218e+00 -5.481789e-02 3.024018e+02)	(9.896397e+00 -5.452274e-02 3.023791e+02)	(3.282112e-02 -2.951496e-04 2.269207e-02)
91.8945       	(9.931640e+00 -5.484547e-02 3.024033e+02)	(9.898825e+00 -5.456957e-02 3.023806e+02)	(3.281584e-02 -2.758940e-04 2.270320e-02)
91.9026       	(9.933902e+00 -5.484388e-02 3.024050e+02)	(9.901091e+00 -5.458839e-02 3.023823e+02)	(3.281077e-02 -2.554908e-04 2.271429e-02)
91.9107       	(9.935792e+00 -5.485632e-02 3.024067e+02)	(9.902986e+00 -5.462237e-02 3.023840e+02)	(3.280588e-02 -2.339565e-04 2.272531e-02)
91.9188       	(9.937654e+00 -5.488306e-02 3.024084e+02)	(9.904853e+00 -5.467172e-02 3.023857e+02)	(3.280117e-02 -2.113387e-04 2.273617e-02)
91.927        	(9.939411e+00 -5.487849e-02 3.024103e+02)	(9.906614e+00 -5.469088e-02 3.023876e+02)	(3.279665e-02 -1.876087e-04 2.274692e-02)
91.9351       	(9.940833e+00 -5.486883e-02 3.024122e+02)	(9.908041e+00 -5.470602e-02 3.023895e+02)	(3.279225e-02 -1.628174e-04 2.275754e-02)
91.9432       	(9.942153e+00 -5.485271e-02 3.024142e+02)	(9.909365e+00 -5.471564e-02 3.023914e+02)	(3.278799e-02 -1.370734e-04 2.276801e-02)
91.9513       	(9.943429e+00 -5.480419e-02 3.024162e+02)	(9.910645e+00 -5.469376e-02 3.023934e+02)	(3.278386e-02 -1.104288e-04 2.277827e-02)
91.9594       	(9.944645e+00 -5.475190e-02 3.024183e+02)	(9.911865e+00 -5.466893e-02 3.023955e+02)	(3.277989e-02 -8.296761e-05 2.278842e-02)
91.9675       	(9.945842e+00 -5.466387e-02 3.024205e+02)	(9.913066e+00 -5.460908e-02 3.023977e+02)	(3.277607e-02 -5.479300e-05 2.279843e-02)
91.9757       	(9.947176e+00 -5.451122e-02 3.024228e+02)	(9.914404e+00 -5.448532e-02 3.024000e+02)	(3.277237e-02 -2.589934e-05 2.280829e-02)
91.9838       	(9.948812e+00 -5.435375e-02 3.024251e+02)	(9.916043e+00 -5.435740e-02 3.024022e+02)	(3.276890e-02 3.650871e-06 2.281803e-02)
91.9919       	(9.950352e+00 -5.422787e-02 3.024274e+02)	(9.917586e+00 -5.426162e-02 3.024046e+02)	(3.276563e-02 3.375229e-05 2.282770e-02)
92            	(9.951615e+00 -5.413281e-02 3.024299e+02)	(9.918853e+00 -5.419709e-02 3.024071e+02)	(3.276257e-02 6.428043e-05 2.283735e-02)
92.008        	(9.952787e+00 -5.404444e-02 3.024326e+02)	(9.920027e+00 -5.413935e-02 3.024097e+02)	(3.275973e-02 9.491063e-05 2.284670e-02)
92.016        	(9.953831e+00 -5.395887e-02 3.024352e+02)	(9.921074e+00 -5.408469e-02 3.024123e+02)	(3.275722e-02 1.258224e-04 2.285625e-02)
92.024        	(9.954494e+00 -5.389114e-02 3.024379e+02)	(9.921739e+00 -5.404807e-02 3.024150e+02)	(3.275486e-02 1.569296e-04 2.286589e-02)
92.032        	(9.955305e+00 -5.382678e-02 3.024406e+02)	(9.922552e+00 -5.401494e-02 3.024177e+02)	(3.275275e-02 1.881661e-04 2.287561e-02)
92.04         	(9.955967e+00 -5.376865e-02 3.024434e+02)	(9.923216e+00 -5.398814e-02 3.024205e+02)	(3.275085e-02 2.194939e-04 2.288540e-02)
92.048        	(9.956752e+00 -5.371027e-02 3.024462e+02)	(9.924003e+00 -5.396119e-02 3.024233e+02)	(3.274914e-02 2.509240e-04 2.289527e-02)
92.056        	(9.957435e+00 -5.365822e-02 3.024491e+02)	(9.924687e+00 -5.394067e-02 3.024262e+02)	(3.274760e-02 2.824489e-04 2.290524e-02)
92.064        	(9.958080e+00 -5.357333e-02 3.024520e+02)	(9.925334e+00 -5.388745e-02 3.024291e+02)	(3.274617e-02 3.141194e-04 2.291536e-02)
92.072        	(9.958893e+00 -5.345800e-02 3.024550e+02)	(9.926149e+00 -5.380399e-02 3.024321e+02)	(3.274485e-02 3.459878e-04 2.292564e-02)
92.08         	(9.959379e+00 -5.336962e-02 3.024580e+02)	(9.926636e+00 -5.374765e-02 3.024351e+02)	(3.274358e-02 3.780296e-04 2.293611e-02)
92.088        	(9.959804e+00 -5.329147e-02 3.024610e+02)	(9.927061e+00 -5.370159e-02 3.024381e+02)	(3.274232e-02 4.101225e-04 2.294680e-02)
92.096        	(9.960426e+00 -5.321202e-02 3.024640e+02)	(9.927685e+00 -5.365426e-02 3.024411e+02)	(3.274104e-02 4.422478e-04 2.295762e-02)
92.104        	(9.961194e+00 -5.312908e-02 3.024670e+02)	(9.928454e+00 -5.360342e-02 3.024440e+02)	(3.273984e-02 4.743318e-04 2.296863e-02)
92.112        	(9.961486e+00 -5.303782e-02 3.024700e+02)	(9.928747e+00 -5.354402e-02 3.024471e+02)	(3.273865e-02 5.062056e-04 2.297988e-02)
92.12         	(9.961480e+00 -5.295524e-02 3.024730e+02)	(9.928742e+00 -5.349302e-02 3.024500e+02)	(3.273737e-02 5.377830e-04 2.299124e-02)
92.128        	(9.961667e+00 -5.285018e-02 3.024759e+02)	(9.928931e+00 -5.341914e-02 3.024529e+02)	(3.273599e-02 5.689603e-04 2.300270e-02)
92.136        	(9.961796e+00 -5.273440e-02 3.024789e+02)	(9.929062e+00 -5.333403e-02 3.024559e+02)	(3.273456e-02 5.996262e-04 2.301432e-02)
92.144        	(9.961735e+00 -5.263577e-02 3.024817e+02)	(9.929002e+00 -5.326540e-02 3.024587e+02)	(3.273292e-02 6.296296e-04 2.302599e-02)
92.152        	(9.961851e+00 -5.250760e-02 3.024846e+02)	(9.929120e+00 -5.316644e-02 3.024615e+02)	(3.273118e-02 6.588464e-04 2.303769e-02)
92.16         	(9.961917e+00 -5.237671e-02 3.024873e+02)	(9.929188e+00 -5.306382e-02 3.024643e+02)	(3.272929e-02 6.871143e-04 2.304935e-02)
92.168        	(9.962029e+00 -5.224348e-02 3.024900e+02)	(9.929301e+00 -5.295780e-02 3.024669e+02)	(3.272726e-02 7.143169e-04 2.306088e-02)
92.176        	(9.962205e+00 -5.208830e-02 3.024926e+02)	(9.929479e+00 -5.282873e-02 3.024695e+02)	(3.272516e-02 7.404333e-04 2.307230e-02)
92.184        	(9.962255e+00 -5.196055e-02 3.024952e+02)	(9.929532e+00 -5.272589e-02 3.024721e+02)	(3.272292e-02 7.653411e-04 2.308354e-02)
92.192        	(9.962192e+00 -5.188486e-02 3.024975e+02)	(9.929472e+00 -5.267383e-02 3.024745e+02)	(3.272044e-02 7.889776e-04 2.309446e-02)
92.2          	(9.962382e+00 -5.184413e-02 3.024999e+02)	(9.929664e+00 -5.265538e-02 3.024768e+02)	(3.271778e-02 8.112439e-04 2.310509e-02)
92.208        	(9.962350e+00 -5.182952e-02 3.025022e+02)	(9.929635e+00 -5.266154e-02 3.024791e+02)	(3.271493e-02 8.320234e-04 2.311553e-02)
92.216        	(9.962056e+00 -5.179853e-02 3.025043e+02)	(9.929344e+00 -5.264989e-02 3.024812e+02)	(3.271174e-02 8.513524e-04 2.312567e-02)
92.224        	(9.961844e+00 -5.176244e-02 3.025064e+02)	(9.929136e+00 -5.263174e-02 3.024833e+02)	(3.270827e-02 8.692994e-04 2.313558e-02)
92.232        	(9.961536e+00 -5.171673e-02 3.025084e+02)	(9.928832e+00 -5.260254e-02 3.024853e+02)	(3.270453e-02 8.858012e-04 2.314527e-02)
92.24         	(9.961336e+00 -5.161319e-02 3.025102e+02)	(9.928636e+00 -5.251408e-02 3.024870e+02)	(3.270044e-02 9.008937e-04 2.315468e-02)
92.248        	(9.961099e+00 -5.150837e-02 3.025119e+02)	(9.928403e+00 -5.242301e-02 3.024887e+02)	(3.269607e-02 9.146330e-04 2.316391e-02)
92.256        	(9.960853e+00 -5.140632e-02 3.025134e+02)	(9.928161e+00 -5.233330e-02 3.024903e+02)	(3.269136e-02 9.269843e-04 2.317288e-02)
92.264        	(9.960978e+00 -5.122105e-02 3.025149e+02)	(9.928292e+00 -5.215914e-02 3.024917e+02)	(3.268648e-02 9.380959e-04 2.318169e-02)
92.272        	(9.960856e+00 -5.104540e-02 3.025162e+02)	(9.928175e+00 -5.199337e-02 3.024930e+02)	(3.268129e-02 9.479685e-04 2.319033e-02)
92.28         	(9.960649e+00 -5.089695e-02 3.025173e+02)	(9.927974e+00 -5.185352e-02 3.024941e+02)	(3.267570e-02 9.565676e-04 2.319869e-02)
92.288        	(9.960761e+00 -5.074249e-02 3.025183e+02)	(9.928092e+00 -5.170656e-02 3.024951e+02)	(3.266981e-02 9.640639e-04 2.320682e-02)
92.296        	(9.960831e+00 -5.061904e-02 3.025191e+02)	(9.928167e+00 -5.158946e-02 3.024959e+02)	(3.266363e-02 9.704109e-04 2.321470e-02)
92.304        	(9.960674e+00 -5.051801e-02 3.025197e+02)	(9.928017e+00 -5.149362e-02 3.024965e+02)	(3.265716e-02 9.756097e-04 2.322238e-02)
92.312        	(9.960415e+00 -5.040022e-02 3.025201e+02)	(9.927765e+00 -5.137993e-02 3.024969e+02)	(3.265030e-02 9.797149e-04 2.322970e-02)
92.32         	(9.960361e+00 -5.026265e-02 3.025204e+02)	(9.927718e+00 -5.124548e-02 3.024971e+02)	(3.264307e-02 9.828331e-04 2.323663e-02)
92.328        	(9.960416e+00 -5.011338e-02 3.025204e+02)	(9.927781e+00 -5.109833e-02 3.024972e+02)	(3.263544e-02 9.849476e-04 2.324312e-02)
92.336        	(9.960525e+00 -4.994751e-02 3.025203e+02)	(9.927897e+00 -5.093362e-02 3.024970e+02)	(3.262747e-02 9.861088e-04 2.324911e-02)
92.344        	(9.960800e+00 -4.980357e-02 3.025199e+02)	(9.928181e+00 -5.078996e-02 3.024966e+02)	(3.261909e-02 9.863901e-04 2.325453e-02)
92.352        	(9.961197e+00 -4.966342e-02 3.025194e+02)	(9.928587e+00 -5.064931e-02 3.024961e+02)	(3.261036e-02 9.858877e-04 2.325932e-02)
92.36         	(9.961577e+00 -4.955590e-02 3.025187e+02)	(9.928976e+00 -5.054061e-02 3.024954e+02)	(3.260131e-02 9.847025e-04 2.326346e-02)
92.368        	(9.961727e+00 -4.953370e-02 3.025180e+02)	(9.929135e+00 -5.051659e-02 3.024947e+02)	(3.259191e-02 9.828912e-04 2.326698e-02)
92.376        	(9.961830e+00 -4.956413e-02 3.025170e+02)	(9.929248e+00 -5.054465e-02 3.024937e+02)	(3.258202e-02 9.805215e-04 2.326975e-02)
92.384        	(9.962274e+00 -4.961728e-02 3.025159e+02)	(9.929702e+00 -5.059501e-02 3.024926e+02)	(3.257179e-02 9.777327e-04 2.327182e-02)
92.392        	(9.962520e+00 -4.975944e-02 3.025148e+02)	(9.929958e+00 -5.073408e-02 3.024915e+02)	(3.256131e-02 9.746390e-04 2.327329e-02)
92.4          	(9.962405e+00 -4.995492e-02 3.025135e+02)	(9.929854e+00 -5.092614e-02 3.024902e+02)	(3.255050e-02 9.712204e-04 2.327409e-02)
92.408        	(9.962405e+00 -5.007861e-02 3.025120e+02)	(9.929865e+00 -5.104625e-02 3.024888e+02)	(3.253931e-02 9.676326e-04 2.327414e-02)
92.416        	(9.962650e+00 -5.019546e-02 3.025105e+02)	(9.930122e+00 -5.115927e-02 3.024872e+02)	(3.252784e-02 9.638056e-04 2.327347e-02)
92.424        	(9.962970e+00 -5.035251e-02 3.025089e+02)	(9.930453e+00 -5.131236e-02 3.024856e+02)	(3.251611e-02 9.598421e-04 2.327211e-02)
92.432        	(9.963060e+00 -5.049518e-02 3.025071e+02)	(9.930556e+00 -5.145106e-02 3.024838e+02)	(3.250402e-02 9.558758e-04 2.327004e-02)
92.44         	(9.963536e+00 -5.061661e-02 3.025052e+02)	(9.931044e+00 -5.156862e-02 3.024819e+02)	(3.249162e-02 9.520075e-04 2.326730e-02)
92.448        	(9.963887e+00 -5.075657e-02 3.025033e+02)	(9.931408e+00 -5.170489e-02 3.024800e+02)	(3.247897e-02 9.483217e-04 2.326401e-02)
92.456        	(9.964014e+00 -5.090966e-02 3.025013e+02)	(9.931548e+00 -5.185452e-02 3.024780e+02)	(3.246601e-02 9.448574e-04 2.326013e-02)
92.464        	(9.964238e+00 -5.102877e-02 3.024992e+02)	(9.931785e+00 -5.197046e-02 3.024759e+02)	(3.245277e-02 9.416870e-04 2.325571e-02)
92.472        	(9.964514e+00 -5.111874e-02 3.024972e+02)	(9.932075e+00 -5.205771e-02 3.024740e+02)	(3.243942e-02 9.389764e-04 2.325093e-02)
92.48         	(9.964583e+00 -5.124609e-02 3.024951e+02)	(9.932158e+00 -5.218283e-02 3.024718e+02)	(3.242582e-02 9.367425e-04 2.324573e-02)
92.488        	(9.964602e+00 -5.135609e-02 3.024929e+02)	(9.932190e+00 -5.229115e-02 3.024697e+02)	(3.241191e-02 9.350575e-04 2.324010e-02)
92.496        	(9.964882e+00 -5.140349e-02 3.024907e+02)	(9.932484e+00 -5.233744e-02 3.024675e+02)	(3.239779e-02 9.339557e-04 2.323406e-02)
92.504        	(9.965282e+00 -5.147077e-02 3.024885e+02)	(9.932898e+00 -5.240425e-02 3.024652e+02)	(3.238334e-02 9.334771e-04 2.322754e-02)
92.512        	(9.965691e+00 -5.158124e-02 3.024862e+02)	(9.933322e+00 -5.251479e-02 3.024629e+02)	(3.236853e-02 9.335518e-04 2.322057e-02)
92.52         	(9.966326e+00 -5.166052e-02 3.024839e+02)	(9.933972e+00 -5.259476e-02 3.024607e+02)	(3.235349e-02 9.342452e-04 2.321322e-02)
92.528        	(9.966948e+00 -5.174906e-02 3.024817e+02)	(9.934610e+00 -5.268468e-02 3.024585e+02)	(3.233825e-02 9.356153e-04 2.320553e-02)
92.536        	(9.967251e+00 -5.190828e-02 3.024795e+02)	(9.934929e+00 -5.284591e-02 3.024563e+02)	(3.232266e-02 9.376352e-04 2.319738e-02)
92.544        	(9.967615e+00 -5.209532e-02 3.024773e+02)	(9.935309e+00 -5.303565e-02 3.024541e+02)	(3.230668e-02 9.403208e-04 2.318871e-02)
92.552        	(9.968188e+00 -5.226575e-02 3.024752e+02)	(9.935898e+00 -5.320950e-02 3.024520e+02)	(3.229043e-02 9.437580e-04 2.317968e-02)
92.56         	(9.968396e+00 -5.251063e-02 3.024730e+02)	(9.936122e+00 -5.345851e-02 3.024499e+02)	(3.227380e-02 9.478830e-04 2.317022e-02)
92.568        	(9.968507e+00 -5.278297e-02 3.024709e+02)	(9.936251e+00 -5.373564e-02 3.024478e+02)	(3.225678e-02 9.526644e-04 2.316029e-02)
92.576        	(9.968861e+00 -5.305794e-02 3.024689e+02)	(9.936622e+00 -5.401607e-02 3.024457e+02)	(3.223943e-02 9.581328e-04 2.314996e-02)
92.584        	(9.969242e+00 -5.330637e-02 3.024669e+02)	(9.937020e+00 -5.427072e-02 3.024437e+02)	(3.222182e-02 9.643553e-04 2.313926e-02)
92.592        	(9.969349e+00 -5.358105e-02 3.024649e+02)	(9.937145e+00 -5.455232e-02 3.024418e+02)	(3.220399e-02 9.712753e-04 2.312821e-02)
92.6          	(9.969579e+00 -5.383884e-02 3.024629e+02)	(9.937393e+00 -5.481775e-02 3.024398e+02)	(3.218590e-02 9.789045e-04 2.311676e-02)
92.608        	(9.970247e+00 -5.408749e-02 3.024612e+02)	(9.938079e+00 -5.507481e-02 3.024381e+02)	(3.216774e-02 9.873162e-04 2.310501e-02)
92.616        	(9.970688e+00 -5.431990e-02 3.024595e+02)	(9.938538e+00 -5.531640e-02 3.024364e+02)	(3.214964e-02 9.964956e-04 2.309304e-02)
92.624        	(9.970773e+00 -5.451869e-02 3.024578e+02)	(9.938642e+00 -5.552514e-02 3.024348e+02)	(3.213148e-02 1.006445e-03 2.308077e-02)
92.632        	(9.971174e+00 -5.467147e-02 3.024562e+02)	(9.939060e+00 -5.568863e-02 3.024331e+02)	(3.211334e-02 1.017164e-03 2.306828e-02)
92.64         	(9.971449e+00 -5.478423e-02 3.024547e+02)	(9.939354e+00 -5.581293e-02 3.024317e+02)	(3.209533e-02 1.028707e-03 2.305567e-02)
92.648        	(9.971363e+00 -5.489911e-02 3.024532e+02)	(9.939286e+00 -5.594018e-02 3.024302e+02)	(3.207736e-02 1.041063e-03 2.304291e-02)
92.656        	(9.971400e+00 -5.497910e-02 3.024518e+02)	(9.939340e+00 -5.603338e-02 3.024288e+02)	(3.205951e-02 1.054287e-03 2.303002e-02)
92.664        	(9.971568e+00 -5.502938e-02 3.024504e+02)	(9.939526e+00 -5.609778e-02 3.024274e+02)	(3.204185e-02 1.068398e-03 2.301706e-02)
92.672        	(9.971683e+00 -5.507018e-02 3.024491e+02)	(9.939658e+00 -5.615360e-02 3.024261e+02)	(3.202443e-02 1.083416e-03 2.300408e-02)
92.68         	(9.971578e+00 -5.507828e-02 3.024478e+02)	(9.939571e+00 -5.617771e-02 3.024248e+02)	(3.200725e-02 1.099429e-03 2.299111e-02)
92.688        	(9.971527e+00 -5.509660e-02 3.024465e+02)	(9.939537e+00 -5.621301e-02 3.024235e+02)	(3.199022e-02 1.116413e-03 2.297808e-02)
92.696        	(9.971727e+00 -5.509506e-02 3.024453e+02)	(9.939754e+00 -5.622946e-02 3.024224e+02)	(3.197348e-02 1.134409e-03 2.296507e-02)
92.704        	(9.971800e+00 -5.514083e-02 3.024442e+02)	(9.939843e+00 -5.629424e-02 3.024213e+02)	(3.195699e-02 1.153409e-03 2.295207e-02)
92.712        	(9.971905e+00 -5.514295e-02 3.024431e+02)	(9.939965e+00 -5.631640e-02 3.024202e+02)	(3.194074e-02 1.173448e-03 2.293903e-02)