# Moment      
# CofR        : (0.000000e+00 0.000000e+00 0.000000e+00)
#
# Time        	(total_x total_y total_z)	(pressure_x pressure_y pressure_z)	(viscous_x viscous_y viscous_z)
1             	(-1.092884e+00 1.344265e+00 3.321701e-03)	(-1.092599e+00 1.341194e+00 3.313708e-03)	(-2.853508e-04 3.071550e-03 7.992423e-06)
2             	(-9.778417e-01 1.154540e+00 -1.968694e-02)	(-9.779439e-01 1.152255e+00 -1.969380e-02)	(1.022114e-04 2.285604e-03 6.861624e-06)
3             	(-6.302478e-01 7.115483e-01 -7.082816e-02)	(-6.306556e-01 7.098846e-01 -7.077224e-02)	(4.077720e-04 1.663684e-03 -5.591427e-05)
