# k  POINT_DATA 31842
# x  y  z  k
-5.16988e-26 0.000152009 4.07247e-10 0.000207613
-1.0842e-19 -0.00109799 0.00116943 0.000208011
0 0.001402 0.00116944 0.000207214
-1.61559e-27 -0.00227346 0 0.000208372
-4.1359e-25 0.000151997 0.00233887 0.000228023
-1.61559e-27 -0.00234799 1.25136e-11 0.000208395
1.48634e-25 -0.00234799 9.5131e-06 0.000208477
-1.03398e-25 0.00265199 4.41393e-10 0.0002068
0 -0.002348 0.00233887 0.00022859
0 0.002652 0.00233887 0.000227435
-1.0842e-19 -0.001098 0.00356872 0.000248936
1.0842e-19 -0.003598 0.00116943 0.000208779
-1.0842e-19 0.001402 0.00356872 0.000248583
0 0.003902 0.00116944 0.000206385
0 0.000151998 0.00479858 0.000240073
0 -0.00484801 1.53138e-09 0.000209148
-2.06795e-25 -0.00484801 0.000928932 0.000217088
0 -0.003598 0.00356872 0.000249281
1.03398e-25 0.00515199 6.95565e-10 0.000205955
-1.0842e-19 0.003902 0.00356872 0.00024822
0 -0.002348 0.00479858 0.000240298
4.1359e-25 -0.004848 0.00233887 0.000229139
0 0.002652 0.00479858 0.000239843
-4.1359e-25 0.005152 0.00233887 0.000226827
-1.0842e-19 -0.001098 0.00608215 0.000231312
-1.0842e-19 -0.006098 0.00116943 0.000209517
2.1684e-19 0.001402 0.00608215 0.000231212
0 0.006402 0.00116943 0.000205524
0 -0.004848 0.00479858 0.000240519
0 0.005152 0.00479858 0.000239607
0 -0.006098 0.00356872 0.000249618
1.0842e-19 -0.003598 0.00608215 0.000231411
0 0.003902 0.00608215 0.00023111
0 0.006402 0.00356872 0.000247848
0 -0.00734801 1.77292e-09 0.000209872
-2.06795e-25 0.000152001 0.00736572 0.000226121
0 -0.00734801 0.00102221 0.000218524
0 0.00765203 1.40341e-08 0.000205077
0 -0.007348 0.00233887 0.000229669
0 -0.002348 0.00736572 0.000226153
0 0.002652 0.00736572 0.000226088
0 0.00765201 0.00233888 0.000226197
1.0842e-19 -0.006098 0.00608215 0.000231508
1.0842e-19 -0.008598 0.00116944 0.000210227
0 -0.001098 0.00865601 0.000220953
-2.1684e-19 0.001402 0.008656 0.000220989
-4.1359e-25 -0.007348 0.00479858 0.000240735
0 -0.004848 0.00736572 0.000226187
0 0.006402 0.00608215 0.000231006
1.0842e-19 0.008902 0.00116944 0.000204629
0 0.005152 0.00736572 0.000226056
0 0.007652 0.00479858 0.000239364
-1.0842e-19 -0.008598 0.00356872 0.000249947
0 -0.003598 0.008656 0.00022092
1.0842e-19 0.003902 0.008656 0.000221025
-1.0842e-19 0.008902 0.00356872 0.000247465
-2.06795e-25 -0.00984799 9.51438e-10 0.000210568
-2.06795e-25 -0.00984799 0.000657032 0.000216078
0 0.000152 0.00994629 0.00021676
4.1359e-25 -0.009848 0.00233887 0.000230181
0 0.010152 1.3998e-08 0.000204165
5.16988e-26 -0.002348 0.00994629 0.000216683
0 0.002652 0.00994629 0.00021684
0 -0.007348 0.00736572 0.00022622
-8.27181e-25 0.010152 0.00233888 0.000225545
-1.0842e-19 -0.008598 0.00608215 0.000231606
2.1684e-19 -0.006098 0.008656 0.000220889
0 0.007652 0.00736572 0.000226023
-1.0842e-19 0.006402 0.008656 0.000221064
0 0.008902 0.00608215 0.0002309
0 -0.009848 0.00479858 0.000240948
0 -0.004848 0.00994629 0.000216609
1.0842e-19 -0.011098 0.00116943 0.000210909
0 0.005152 0.00994629 0.000216923
-4.1359e-25 0.010152 0.00479858 0.000239116
0 -0.001098 0.011217 0.000212511
1.0842e-19 0.001402 0.011217 0.000212633
1.0842e-19 0.011402 0.00116943 0.0002037
-1.0842e-19 -0.011098 0.00356872 0.00025027
0 -0.003598 0.011217 0.000212393
-1.0842e-19 0.003902 0.011217 0.000212759
2.1684e-19 0.011402 0.00356872 0.000247072
0 -0.008598 0.008656 0.00022086
0 -0.009848 0.00736572 0.000226255
4.1359e-25 -0.012348 2.37611e-09 0.000211238
-1.03398e-25 -0.007348 0.00994629 0.000216538
-2.06795e-25 -0.012348 0.0012946 0.000221998
-1.0842e-19 0.008902 0.008656 0.000221103
1.2137e-19 0.000152 0.0124878 0.000208116
0 0.010152 0.00736572 0.000225989
0 0.007652 0.00994629 0.000217008
4.1359e-25 -0.012348 0.00233887 0.000230677
0 0.012652 1.29331e-08 0.000203217
-1.0842e-19 -0.011098 0.00608215 0.000231703
0 -0.002348 0.0124878 0.000207967
0 0.002652 0.0124878 0.00020827
-1.0842e-19 -0.006098 0.011217 0.00021228
0 0.012652 0.00233888 0.00022487
0 0.006402 0.011217 0.000212888
0 0.011402 0.00608215 0.000230793
0 -0.012348 0.00479858 0.000241157
-1.29247e-26 -0.004848 0.0124878 0.000207822
1.29247e-26 0.005152 0.0124878 0.000208429
4.1359e-25 0.012652 0.00479858 0.000238862
0 -0.013598 0.00116943 0.000211567
1.0842e-19 -0.001098 0.0137433 0.000203588
-1.0842e-19 0.001402 0.0137433 0.000203769
0 0.013902 0.00116943 0.000202734
0 -0.009848 0.00994629 0.000216471
0 -0.013598 0.00356872 0.000250586
0 -0.011098 0.008656 0.000220833
-1.0842e-19 -0.008598 0.011217 0.000212171
1.0842e-19 -0.003598 0.0137433 0.000203412
-5.16988e-26 0.010152 0.00994629 0.000217096
1.0842e-19 0.003902 0.0137433 0.000203956
-1.0842e-19 0.011402 0.008656 0.000221144
1.0842e-19 0.008902 0.011217 0.000213022
-1.0842e-19 0.013902 0.00356872 0.000246669
-1.03398e-25 -0.012348 0.00736572 0.000226292
0 -0.007348 0.0124878 0.000207683
0 0.012652 0.00736572 0.000225956
1.29247e-26 0.007652 0.0124878 0.000208592
0 0.0146603 0 0.000202427
8.27181e-25 -0.014848 5.25259e-09 0.000211883
0 -0.013598 0.00608215 0.000231801
0 -0.014848 0.00198322 0.000228227
0 0.000152 0.0149988 0.000198526
0 -0.014848 0.00233887 0.000231158
0 -0.006098 0.0137433 0.000203242
0 0.015152 3.16639e-09 0.000202233
1.0842e-19 0.006402 0.0137433 0.000204149
0 0.013902 0.00608215 0.000230684
0 -0.002348 0.0149988 0.000198326
0 0.015152 0.00131654 0.000214582
0 0.002652 0.0149988 0.000198733
-4.1359e-25 0.015152 0.00233887 0.000224172
0 -0.014848 0.00479858 0.000241363
-8.07794e-28 -0.004848 0.0149988 0.000198132
0 -0.011098 0.011217 0.000212066
5.16988e-26 -0.012348 0.00994629 0.000216407
0 0.005152 0.0149988 0.000198946
0 0.015152 0.00479858 0.000238602
1.29247e-26 -0.009848 0.0124878 0.000207549
-1.0842e-19 0.011402 0.011217 0.000213159
5.16988e-26 0.012652 0.00994629 0.000217187
0 0.010152 0.0124878 0.000208761
-1.0842e-19 -0.013598 0.00865601 0.00022081
0 -0.016098 0.00116943 0.000212199
1.0842e-19 -0.008598 0.0137433 0.000203078
1.0842e-19 -0.001098 0.0162494 0.000193268
-1.0842e-19 0.001402 0.0162494 0.000193493
0 0.008902 0.0137433 0.000204347
-1.0842e-19 0.013902 0.008656 0.000221188
0 0.016402 0.00116943 0.000201732
2.1684e-19 -0.016098 0.00356872 0.000250896
0 -0.014848 0.00736572 0.000226329
0 -0.003598 0.0162494 0.00019305
-8.07794e-28 -0.007348 0.0149988 0.000197944
0 0.003902 0.0162494 0.000193726
0 0.016402 0.00356872 0.000246254
8.07794e-28 0.007652 0.0149988 0.000199165
0 0.015152 0.00736572 0.000225923
-1.0842e-19 -0.016098 0.00608215 0.000231899
0 -0.017348 7.0521e-09 0.000212503
0 -0.006098 0.0162494 0.000192838
0 0.006402 0.0162494 0.000193966
1.9387e-26 -0.0173323 0.00233887 0.000231619
-2.1684e-19 0.016402 0.00608215 0.000230573
-2.8399e-28 0.000152 0.0174957 0.00018735
-1.15782e-20 -0.017348 0.00233887 0.000231622
-2.98884e-26 -0.017348 0.00236394 0.000231724
0 -0.012348 0.0124878 0.00020742
0 -0.013598 0.011217 0.000211966
0 0.017652 4.74781e-09 0.000201212
-1.91544e-20 -0.002348 0.0175 0.000187111
1.0842e-19 -0.011098 0.0137433 0.00020292
-2.11415e-28 0.002652 0.0174954 0.000187596
0 0.017652 0.00193387 0.000219598
1.29247e-26 0.012652 0.0124878 0.000208935
0 0.017652 0.00233887 0.000223449
0 0.011402 0.0137433 0.000204552
0 0.013902 0.011217 0.000213301
-2.58494e-26 -0.014848 0.00994629 0.000216347
0 -0.009848 0.0149988 0.000197763
0 -0.017348 0.00479858 0.000241566
0 0.010152 0.0149988 0.000199391
0 0.015152 0.00994629 0.000217281
-3.47099e-29 -0.004848 0.0174955 0.00018688
-8.99301e-29 0.005152 0.0174953 0.00018785
2.1684e-19 -0.016098 0.008656 0.000220789
0 0.017652 0.00479858 0.000238335
0 -0.008598 0.0162494 0.000192634
1.0842e-19 0.008902 0.0162494 0.000194213
0 0.016402 0.008656 0.000221232
1.0842e-19 -0.018598 0.00116943 0.000212807
-1.0842e-19 -0.001098 0.01875 0.000181183
0 0.001402 0.01875 0.000181443
-5.16988e-26 -0.017348 0.00736572 0.000226369
-2.1684e-19 -0.018598 0.00356873 0.0002512
2.1684e-19 0.018902 0.00116943 0.000200691
5.83757e-29 -0.007348 0.0174953 0.000186657
-1.0842e-19 -0.003598 0.01875 0.000180932
6.31089e-29 0.007652 0.0174955 0.000188112
0 0.017652 0.00736572 0.000225891
-1.0842e-19 0.003902 0.01875 0.000181711
0 0.018902 0.00356872 0.000245829
1.0842e-19 -0.013598 0.0137433 0.000202768
0 -0.014848 0.0124878 0.000207296
0 -0.012348 0.0149988 0.000197589
-2.1684e-19 0.013902 0.0137433 0.000204763
-2.1684e-19 -0.018598 0.00608215 0.000231997
0 -0.016098 0.011217 0.00021187
8.07794e-28 0.012652 0.0149988 0.000199625
0 0.015152 0.0124878 0.000209114
1.0842e-19 -0.011098 0.0162494 0.000192437
0 -0.006098 0.01875 0.000180689
0 0.006402 0.01875 0.000181987
0 -0.019848 7.87922e-09 0.000213099
0 0.011402 0.0162494 0.000194468
2.1684e-19 0.018902 0.00608215 0.000230461
1.0842e-19 0.016402 0.011217 0.000213447
-3.77454e-20 -0.019848 0.00233887 0.000232072
1.29247e-26 -0.017348 0.00994629 0.00021629
-1.91544e-20 0.000152 0.02 0.000174367
5.04871e-29 -0.009848 0.017495 0.000186441
-1.91544e-20 -0.002348 0.02 0.000174098
4.1359e-25 0.020152 3.12849e-09 0.000200151
-1.91544e-20 0.002652 0.02 0.000174646
2.06795e-25 0.020152 0.00150726 0.000214682
9.6241e-29 0.010152 0.0174956 0.000188383
-2.58494e-26 0.017652 0.00994629 0.000217379
2.06795e-25 0.020152 0.00233887 0.0002227
2.58494e-26 -0.019848 0.00422501 0.000239506
2.58494e-26 -0.019848 0.00479858 0.000241766
1.0842e-19 -0.018598 0.00865601 0.000220771
8.08456e-20 -0.004848 0.02 0.000173837
0 -0.008598 0.01875 0.000180454
-4.1359e-25 0.0206376 0 0.000199937
3.28979e-21 0.005152 0.02 0.000174933
2.06795e-25 0.020152 0.00479858 0.000238062
0 0.008902 0.01875 0.000182273
-1.0842e-19 0.018902 0.00865601 0.000221281
0 -0.014848 0.0149988 0.000197421
0 -0.021098 0.00116943 0.000213391
0 -0.016098 0.0137433 0.000202621
0 -0.019848 0.00736572 0.000226409
1.0842e-19 -0.013598 0.0162494 0.000192246
0 -0.001098 0.02125 0.000167277
0 0.001402 0.02125 0.000167565
8.08456e-20 -0.007348 0.02 0.000173585
-8.07794e-28 0.015152 0.0149988 0.000199866
-9.43849e-20 -0.017348 0.0124878 0.000207178
0 0.013902 0.0162494 0.000194731
2.1684e-19 -0.021098 0.00356872 0.000251498
0 0.016402 0.0137433 0.000204981
-2.22459e-28 -0.012348 0.0174939 0.000186256
-1.91544e-20 0.007652 0.02 0.00017523
-1.91544e-20 -0.012348 0.0175 0.000186229
-2.1684e-19 0.021402 0.00116943 0.00019961
0 0.020152 0.00736572 0.000225859
-1.0842e-19 -0.003598 0.02125 0.000166998
-2.2877e-28 0.012652 0.0174953 0.000188662
1.0842e-19 0.003902 0.02125 0.000167863
0 0.017652 0.0124878 0.000209299
0 0.021402 0.00356872 0.000245391
1.0842e-19 -0.018598 0.011217 0.000211779
-1.0842e-19 -0.011098 0.01875 0.000180226
-1.0842e-19 0.011402 0.01875 0.000182568
0 -0.021098 0.00608215 0.000232094
0 0.018902 0.011217 0.000213599
0 -0.006098 0.02125 0.000166728
1.29247e-26 -0.0216506 0.00479858 0.000241909
0 0.006402 0.02125 0.00016817
0 -0.019848 0.00994629 0.000216237
1.0842e-19 0.021402 0.00608215 0.000230348
-1.91544e-20 -0.009848 0.02 0.000173341
0 -0.022348 8.84091e-09 0.000213672
1.58401e-19 0.010152 0.02 0.000175537
-9.61887e-21 -0.022348 0.00233887 0.000232507
-2.58494e-26 0.020152 0.00994629 0.000217482
8.08456e-20 0.000152 0.0225 0.000159641
-9.67102e-20 -0.002348 0.0225 0.000159344
1.65436e-24 0.022652 1.29787e-08 0.000199049
8.08456e-20 0.002652 0.0225 0.000159949
0 0.022652 0.00233887 0.000221924
1.0842e-19 -0.021098 0.008656 0.000220756
1.17205e-19 -0.022348 0.00479858 0.000241964
1.0842e-19 -0.016098 0.0162494 0.000192063
-1.0842e-19 -0.008598 0.02125 0.000166468
0 -0.017348 0.0149988 0.000197259
1.23062e-28 -0.014848 0.0174901 0.000186072
1.57772e-30 -0.014848 0.0175 0.000186027
-3.54881e-20 -0.004848 0.0225 0.000159055
0 0.008902 0.02125 0.000168488
8.08456e-20 0.005152 0.0225 0.000160267
0 0.021402 0.008656 0.000221331
1.0842e-19 0.016402 0.0162494 0.000195002
-1.0842e-19 -0.018598 0.0137433 0.00020248
-2.55591e-28 0.015152 0.0174946 0.000188952
2.06795e-25 0.022652 0.00479858 0.000237781
-1.0842e-19 -0.013598 0.01875 0.000180007
0 0.017652 0.0149988 0.000200114
-6.46235e-27 -0.022348 0.006317 0.000232788
-1.0842e-19 0.013902 0.01875 0.000182873
1.0842e-19 0.018902 0.0137433 0.000205206
3.36502e-20 -0.019848 0.0124878 0.000207064
-1.91544e-20 -0.012348 0.02 0.000173105
0 -0.022348 0.00736572 0.000226451
-1.0842e-19 -0.023598 0.00116943 0.000213953
-1.91544e-20 0.012652 0.02 0.000175855
-9.67102e-20 -0.007348 0.0225 0.000158777
0 0.020152 0.0124878 0.000209491
-1.91544e-20 0.007652 0.0225 0.000160595
0 -0.001098 0.02375 0.000151703
1.0842e-19 0.001402 0.02375 0.000152021
0 0.022652 0.00736572 0.000225828
-2.1684e-19 -0.023598 0.00356872 0.000251791
0 -0.021098 0.011217 0.000211692
0 0.023902 0.00116944 0.000198488
0 -0.011098 0.02125 0.000166215
1.0842e-19 -0.003598 0.02375 0.000151396
0 0.003902 0.02375 0.000152348
-1.0842e-19 0.011402 0.02125 0.000168819
-1.0842e-19 0.021402 0.011217 0.000213757
0 0.023902 0.00356872 0.00024494
-1.0842e-19 -0.023598 0.00608215 0.000232192
0 -0.022348 0.00994629 0.000216188
1.0842e-19 -0.006098 0.02375 0.0001511
-1.91544e-20 -0.009848 0.0225 0.000158508
0 0.006402 0.02375 0.000152687
-9.93965e-29 -0.017348 0.0174765 0.000185941
-1.91544e-20 -0.017348 0.0175 0.000185833
0 0.023902 0.00608215 0.000230233
-1.91544e-20 0.010152 0.0225 0.000160934
1.0842e-19 -0.018598 0.0162494 0.000191886
-1.0842e-19 -0.016098 0.01875 0.000179795
-5.16988e-26 0.022652 0.00994629 0.000217588
-3.23117e-27 -0.0237055 0.00736572 0.000226475
0 -0.024848 1.04193e-08 0.000214223
7.88861e-30 0.017652 0.0174937 0.000189274
-1.57772e-30 0.017652 0.0175 0.000189247
-1.00974e-28 -0.019848 0.0149988 0.000197103
-1.91544e-20 -0.014848 0.02 0.000172878
-1.0842e-19 0.016402 0.01875 0.000183189
0 0.018902 0.0162494 0.000195283
-4.98612e-20 -0.024848 0.00233887 0.000232929
-3.54881e-20 0.000152 0.025 0.000143317
5.84013e-20 0.015152 0.02 0.000176185
6.45119e-20 -0.002348 0.025 0.000143
0 0.020152 0.0149988 0.000200372
0 -0.023598 0.008656 0.000220743
-9.67102e-20 0.002652 0.025 0.000143644
0 0.025152 1.3801e-08 0.000197906
0 -0.021098 0.0137433 0.000202345
0 -0.013598 0.02125 0.000165971
0 -0.008598 0.02375 0.000150813
0 0.025152 0.00233887 0.000221121
5.32708e-20 -0.024848 0.00479858 0.00024216
0 0.008902 0.02375 0.000153036
0 0.013902 0.02125 0.000169162
1.0842e-19 0.023902 0.00865601 0.000221384
1.0842e-19 0.021402 0.0137433 0.000205439
3.28979e-21 -0.004848 0.025 0.000142694
5.84013e-20 0.005152 0.025 0.000143982
0 -0.022348 0.0124878 0.000206956
0 0.025152 0.00479858 0.000237493
-1.91544e-20 -0.012348 0.0225 0.000158247
-1.91544e-20 0.012652 0.0225 0.000161284
0 0.022652 0.0124878 0.00020969
-6.46235e-27 -0.024848 0.00736572 0.000226496
8.08456e-20 -0.007348 0.025 0.000142398
1.0842e-19 -0.026098 0.00116943 0.000214493
0 -0.023598 0.011217 0.00021161
1.58401e-19 0.007652 0.025 0.000144331
1.03398e-25 0.025152 0.00736572 0.000225797
0 -0.011098 0.02375 0.000150535
0 -0.001098 0.02625 0.000134608
0 0.001402 0.02625 0.000134935
0 -0.026098 0.00356872 0.00025208
-1.0842e-19 0.011402 0.02375 0.000153395
0 0.023902 0.011217 0.00021392
0 -0.018598 0.01875 0.000179591
-2.8399e-29 -0.019848 0.017446 0.000185893
1.0842e-19 0.026402 0.00116944 0.000197324
0 -0.019848 0.0175 0.000185646
-1.91544e-20 -0.017348 0.02 0.000172658
1.0842e-19 -0.003598 0.02625 0.000134293
0 0.003902 0.02625 0.000135272
3.23117e-27 -0.024848 0.00936687 0.000218467
-1.0842e-19 0.018902 0.01875 0.000183515
0 -0.021098 0.0162494 0.000191715
1.0842e-19 0.026402 0.00356872 0.000244475
0 -0.016098 0.02125 0.000165736
-1.91544e-20 0.017652 0.02 0.000176528
-3.81809e-28 0.020152 0.0174939 0.000189581
0 0.020152 0.0175 0.000189555
0 -0.024848 0.00994629 0.000216142
-1.0842e-19 -0.026098 0.00608215 0.000232292
0 0.016402 0.02125 0.000169519
1.58401e-19 -0.009848 0.025 0.000142112
0 0.021402 0.0162494 0.000195574
-1.00974e-28 -0.022348 0.0149988 0.000196953
1.0842e-19 -0.006098 0.02625 0.000133987
1.58401e-19 -0.014848 0.0225 0.000157996
8.08456e-20 0.010152 0.025 0.00014469
-1.0842e-19 0.006402 0.02625 0.000135621
5.16988e-26 0.025152 0.00994629 0.000217699
-1.0842e-19 0.026402 0.00608215 0.000230115
5.84013e-20 0.015152 0.0225 0.000161647
8.07794e-28 0.022652 0.0149988 0.000200638
-1.0842e-19 -0.023598 0.0137433 0.000202215
-1.65436e-24 -0.027348 1.20177e-08 0.000214752
0 -0.013598 0.02375 0.000150267
-8.30845e-20 -0.027348 0.00233887 0.000233338
0 -0.026098 0.008656 0.000220733
3.28979e-21 0.000152 0.0275 0.000125551
0 0.013902 0.02375 0.000153763
1.0842e-19 0.023902 0.0137433 0.00020568
3.28979e-21 -0.002348 0.0275 0.000125237
0 -0.008598 0.02625 0.000133692
8.08456e-20 0.002652 0.0275 0.000125877
0 0.027652 1.24047e-08 0.000196718
1.0842e-19 0.008902 0.02625 0.000135981
0 -0.0258947 0.00994629 0.000216125
0 0.027652 0.00233887 0.000220288
2.4844e-20 -0.027348 0.00479858 0.000242353
-1.0842e-19 0.026402 0.008656 0.00022144
0 -0.024848 0.0124878 0.000206852
-1.91544e-20 -0.012348 0.025 0.000141836
-9.67102e-20 -0.004848 0.0275 0.000124932
-1.91544e-20 0.005152 0.0275 0.000126214
-1.91544e-20 0.012652 0.025 0.000145059
2.06795e-25 0.027652 0.00479858 0.000237196
-9.1014e-20 0.025152 0.0124878 0.000209896
-1.91544e-20 -0.019848 0.02 0.000172447
1.0842e-19 -0.021098 0.01875 0.000179393
0 -0.018598 0.02125 0.00016551
1.19215e-19 -0.027348 0.00736572 0.000226542
1.57772e-30 -0.022348 0.0174609 0.000185645
-1.57772e-30 -0.022348 0.0175 0.000185465
8.08456e-20 0.020152 0.02 0.000176882
0 -0.026098 0.011217 0.000211532
1.58401e-19 -0.017348 0.0225 0.000157755
0 0.018902 0.02125 0.000169889
-1.0842e-19 0.021402 0.01875 0.000183851
-1.91544e-20 -0.007348 0.0275 0.000124638
1.0842e-19 -0.011098 0.02625 0.000133408
8.08456e-20 0.007652 0.0275 0.000126563
-1.91544e-20 0.017652 0.0225 0.000162022
0 0.027652 0.00736572 0.000225766
-1.0842e-19 0.011402 0.02625 0.00013635
1.19907e-28 0.022652 0.0174949 0.000189878
0 -0.028598 0.00116944 0.000215012
2.1684e-19 -0.023598 0.0162494 0.000191551
-1.0842e-19 0.026402 0.011217 0.00021409
0 -0.016098 0.02375 0.00015001
-1.0842e-19 -0.001098 0.02875 0.000116175
-1.0842e-19 0.001402 0.02875 0.000116489
-1.0842e-19 -0.028598 0.00356873 0.000252364
-1.0842e-19 0.016402 0.02375 0.000154144
2.1684e-19 0.023902 0.0162494 0.000195874
-1.0842e-19 0.028902 0.00116944 0.000196113
-1.0842e-19 -0.003598 0.02875 0.000115871
1.0842e-19 0.003902 0.02875 0.000116814
-1.00974e-28 -0.024848 0.0149988 0.000196809
8.08456e-20 -0.014848 0.025 0.00014157
3.66139e-20 -0.027348 0.00994629 0.0002161
0 0.028902 0.00356872 0.000243995
-1.91544e-20 -0.009848 0.0275 0.000124355
-1.91544e-20 0.015152 0.025 0.000145438
1.0842e-19 -0.028598 0.00608215 0.000232392
8.61573e-20 0.025152 0.0149988 0.000200914
8.08456e-20 0.010152 0.0275 0.000126922
0 0.027652 0.00994629 0.000217814
-1.0842e-19 -0.006098 0.02875 0.000115578
-1.0842e-19 0.006402 0.02875 0.000117151
0 -0.026098 0.0137433 0.00020209
1.0842e-19 0.028902 0.00608215 0.000229996
0 -0.013598 0.02625 0.000133133
0 0.013902 0.02625 0.000136727
0 0.026402 0.0137433 0.00020593
0 -0.029848 1.28729e-08 0.000215262
0 -0.028598 0.008656 0.000220727
0 -0.029848 0.00233887 0.000233735
0 -0.021098 0.02125 0.000165291
-2.01948e-28 -0.027348 0.0122643 0.000207575
8.08456e-20 -0.022348 0.02 0.000172242
8.08456e-20 0.000152 0.03 0.000106732
-1.91544e-20 -0.019848 0.0225 0.000157522
0 -0.008598 0.02875 0.000115296
0 -0.027348 0.0124878 0.000206752
-1.91544e-20 -0.002348 0.03 0.000106436
0 0.008902 0.02875 0.000117499
8.08456e-20 0.002652 0.03 0.000107039
0 -0.023598 0.01875 0.000179203
-1.91544e-20 -0.012348 0.0275 0.000124082
1.65436e-24 0.030152 9.37378e-09 0.000195484
0 0.021402 0.02125 0.000170272
-1.0842e-19 -0.018598 0.02375 0.000149762
2.1684e-19 0.028902 0.008656 0.000221499
8.08456e-20 0.020152 0.0225 0.000162411
3.28979e-21 0.022652 0.02 0.000177249
-2.06795e-25 -0.029848 0.00479858 0.000242545
0 0.030152 0.00233887 0.000219424
1.58401e-19 0.012652 0.0275 0.00012729
-1.29247e-26 0.027652 0.0124878 0.00021011
0 0.018902 0.02375 0.000154538
0 -0.024848 0.0174699 0.00018543
-1.0842e-19 0.023902 0.01875 0.000184201
8.08456e-20 -0.004848 0.03 0.000106151
8.08471e-20 -0.024848 0.0175 0.000185291
-1.91544e-20 -0.017348 0.025 0.000141313
8.08456e-20 0.005152 0.03 0.000107356
0 0.030152 0.00479858 0.00023689
-1.91544e-20 0.017652 0.025 0.000145829
-3.20278e-28 0.025152 0.0174955 0.000190209
-2.1684e-19 -0.028598 0.011217 0.000211457
0 -0.026098 0.0162494 0.000191393
-9.45415e-20 -0.029848 0.00736572 0.000226589
1.0842e-19 -0.016098 0.02625 0.000132869
0 -0.011098 0.02875 0.000115024
8.08456e-20 -0.007348 0.03 0.000105876
-2.01948e-28 -0.0282748 0.0124878 0.000206717
-1.0842e-19 0.011402 0.02875 0.000117858
1.0842e-19 0.016402 0.02625 0.000137116
-1.91544e-20 0.007652 0.03 0.000107685
0 0.026402 0.0162494 0.000196186
-1.0842e-19 0.028902 0.011217 0.000214265
0 0.030152 0.00736572 0.000225735
1.0842e-19 -0.031098 0.00116944 0.000215512
0 -0.027348 0.0149988 0.00019667
-9.67102e-20 -0.014848 0.0275 0.000123819
1.0842e-19 -0.001098 0.03125 9.69886e-05
-1.0842e-19 0.001402 0.03125 9.72769e-05
1.0842e-19 -0.031098 0.00356873 0.000252644
-1.91544e-20 0.015152 0.0275 0.00012767
1.0842e-19 0.031402 0.00116944 0.000194856
0 -0.003598 0.03125 9.6711e-05
0 0.027652 0.0149988 0.0002012
-5.20735e-20 -0.029848 0.00994629 0.000216061
-1.0842e-19 0.003902 0.03125 9.75755e-05
-9.67102e-20 -0.009848 0.03 0.000105611
0 0.031402 0.00356872 0.000243499
5.84013e-20 0.010152 0.03 0.000108024
0 -0.031098 0.00608215 0.000232493
3.28979e-21 -0.022348 0.0225 0.000157299
0 -0.028598 0.0137433 0.00020197
0 0.030152 0.00994629 0.000217933
1.0842e-19 -0.023598 0.02125 0.000165081
0 -0.021098 0.02375 0.000149525
0 -0.013598 0.02875 0.000114763
-1.0842e-19 -0.006098 0.03125 9.64436e-05
3.28979e-21 -0.024848 0.02 0.000172045
-1.0842e-19 0.006402 0.03125 9.78849e-05
8.08456e-20 -0.019848 0.025 0.000141066
3.28979e-21 0.022652 0.0225 0.000162815
0 0.013902 0.02875 0.000118228
0 0.021402 0.02375 0.000154946
1.0842e-19 0.023902 0.02125 0.000170671
-1.0842e-19 0.031402 0.00608215 0.000229873
0 0.028902 0.0137433 0.000206189
3.28979e-21 0.020152 0.025 0.000146233
8.08456e-20 0.025152 0.02 0.00017763
0 -0.026098 0.01875 0.000179019
1.0842e-19 -0.018598 0.02625 0.000132613
1.0842e-19 -0.031098 0.008656 0.000220723
-4.1359e-25 -0.0322903 0 0.00021574
0 0.0319665 0.00479858 0.000236661
0 0.018902 0.02625 0.000137517
0 -0.032348 3.04303e-10 0.000215752
5.16988e-26 -0.032348 0.000183352 0.000217192
1.11022e-19 -0.029848 0.0124878 0.000206657
-1.0842e-19 0.026402 0.01875 0.000184564
0 -0.0324067 0 0.000215763
1.0842e-19 -0.008598 0.03125 9.61866e-05
5.03761e-20 -0.032348 0.00233887 0.000234119
-3.54881e-20 -0.012348 0.03 0.000105357
3.15544e-30 -0.027348 0.0174559 0.000185327
8.0847e-20 -0.027348 0.0175 0.000185123
1.0842e-19 0.008902 0.03125 9.82049e-05
8.08456e-20 0.000152 0.0325 8.77503e-05
8.08456e-20 -0.017348 0.0275 0.000123565
-1.91544e-20 0.012652 0.03 0.000108375
0 0.0324869 0.00233887 0.000218588
0 0.031402 0.008656 0.000221559
-9.67102e-20 -0.002348 0.0325 8.74845e-05
-9.67102e-20 0.002652 0.0325 8.80258e-05
-6.46235e-27 0.030152 0.0124878 0.000210331
8.27181e-25 0.032652 5.00742e-09 0.000194204
8.08456e-20 0.017652 0.0275 0.000128061
7.77475e-20 -0.032348 0.00479858 0.000242735
1.2464e-28 0.027652 0.0174953 0.000190553
2.32645e-25 0.032652 0.00227167 0.00021783
2.58494e-26 0.032652 0.00233887 0.000218528
3.28979e-21 -0.004848 0.0325 8.72284e-05
-1.0842e-19 -0.028598 0.0162494 0.00019124
8.08456e-20 0.005152 0.0325 8.83112e-05
0 -0.016098 0.02875 0.000114512
-9.599e-20 0.032652 0.00479858 0.000236574
1.0842e-19 -0.031098 0.011217 0.000211386
-1.0842e-19 0.016402 0.02875 0.000118609
1.29247e-26 0.0323138 0.00736572 0.000225708
0 0.028902 0.0162494 0.000196509
0 -0.011098 0.03125 9.59397e-05
-2.27106e-20 -0.032348 0.00736572 0.000226638
-1.0842e-19 0.011402 0.03125 9.85363e-05
-3.54881e-20 -0.007348 0.0325 8.6982e-05
0 -0.029848 0.0148659 0.000197072
-2.1684e-19 0.031402 0.011217 0.000214447
-1.91544e-20 0.007652 0.0325 8.86065e-05
0 -0.029848 0.0149988 0.000196536
-1.32445e-19 0.032652 0.00736572 0.000225704
3.28979e-21 -0.014848 0.03 0.000105113
-1.0842e-19 -0.023598 0.02375 0.000149298
3.28979e-21 -0.024848 0.0225 0.000157084
8.08456e-20 -0.022348 0.025 0.000140827
5.84013e-20 0.015152 0.03 0.000108738
-1.0842e-19 -0.033598 0.00116944 0.000215992
-1.0842e-19 -0.026098 0.02125 0.000164877
0 0.030152 0.0149988 0.000201496
0 -0.021098 0.02625 0.000132364
0 0.023902 0.02375 0.00015537
3.28979e-21 0.022652 0.025 0.000146653
3.28979e-21 0.025152 0.0225 0.000163234
0 -0.001098 0.03375 7.82412e-05
0 0.001402 0.03375 7.84945e-05
-1.0842e-19 -0.033598 0.00356873 0.000252919
-8.69277e-20 -0.032348 0.00994629 0.000216025
0 0.021402 0.02625 0.000137932
-3.54881e-20 -0.027348 0.02 0.000171855
0 0.026402 0.02125 0.000171085
8.08456e-20 -0.019848 0.0275 0.000123318
0 0.033902 0.00116944 0.000193552
-1.0842e-19 -0.003598 0.03375 7.79972e-05
-3.54881e-20 -0.009848 0.0325 8.6745e-05
1.0842e-19 0.003902 0.03375 7.87565e-05
0 -0.031098 0.0137433 0.000201855
1.58401e-19 0.010152 0.0325 8.89121e-05
0 0.032652 0.00971099 0.000218753
0 -0.013598 0.03125 9.57031e-05
-1.0842e-19 0.033902 0.00356872 0.000242985
8.08456e-20 0.020152 0.0275 0.000128465
-1.91544e-20 0.027652 0.02 0.000178026
-8.07794e-28 0.032652 0.00994629 0.000218056
-2.1684e-19 -0.033598 0.00608215 0.000232593
0 -0.028598 0.01875 0.000178842
1.0842e-19 0.013902 0.03125 9.88792e-05
-8.07794e-28 0.0327553 0.00994629 0.000218061
-1.0842e-19 -0.018598 0.02875 0.000114267
-1.0842e-19 0.031402 0.0137433 0.000206457
0 -0.006098 0.03375 7.7762e-05
1.0842e-19 0.006402 0.03375 7.90279e-05
-1.0842e-19 0.018902 0.02875 0.000119003
2.1684e-19 0.033902 0.00608215 0.000229747
0 0.028902 0.01875 0.000184942
1.73549e-29 -0.029848 0.0173712 0.000185557
-1.91537e-20 -0.029848 0.0175 0.000184961
-1.91544e-20 -0.017348 0.03 0.000104878
0 -0.032348 0.0124878 0.000206567
-1.0842e-19 -0.033598 0.008656 0.000220721
6.45119e-20 -0.012348 0.0325 8.65175e-05
5.84013e-20 0.017652 0.03 0.000109112
-1.0842e-19 -0.008598 0.03375 7.75358e-05
1.65436e-24 -0.034848 1.2653e-08 0.000216223
5.6798e-29 0.030152 0.0174931 0.000190935
8.08502e-20 0.030152 0.0175 0.000190906
-1.91544e-20 0.012652 0.0325 8.92284e-05
1.0842e-19 0.008902 0.03375 7.93083e-05
9.31819e-21 -0.034848 0.00233887 0.000234492
8.07794e-28 0.032652 0.0124878 0.00021056
1.0842e-19 0.033902 0.008656 0.000221621
-9.67102e-20 0.000152 0.035 6.94913e-05
-1.13044e-19 -0.002348 0.035 6.92518e-05
1.0842e-19 -0.031098 0.0162494 0.000191093
3.28979e-21 0.002652 0.035 6.97394e-05
0 0.035152 1.08951e-09 0.000192875
1.0842e-19 -0.016098 0.03125 9.54763e-05
1.03398e-25 0.035152 0.000771161 0.000201027
-7.8457e-20 -0.034848 0.00479858 0.000242922
4.77639e-20 0.035152 0.00233887 0.0002176
8.08456e-20 -0.024848 0.025 0.000140598
0 -0.026098 0.02375 0.00014908
-1.0842e-19 0.016402 0.03125 9.92345e-05
0 -0.023598 0.02625 0.000132123
6.45119e-20 -0.004848 0.035 6.9021e-05
0 0.031402 0.0162494 0.000196844
2.42338e-27 0.0330886 0.0124878 0.000210601
-3.54881e-20 0.005152 0.035 6.99961e-05
-3.54881e-20 -0.027348 0.0225 0.000156877
-1.0842e-19 -0.033598 0.011217 0.000211319
-9.67102e-20 -0.022348 0.0275 0.000123078
3.28979e-21 0.025152 0.025 0.000147089
3.5953e-20 0.035152 0.00479858 0.000236248
1.0842e-19 0.023902 0.02625 0.000138363
0 0.026402 0.02375 0.000155811
1.0842e-19 -0.011098 0.03375 7.73181e-05
0 -0.032348 0.0147157 0.000197552
-2.01948e-28 -0.0333333 0.0124878 0.000206532
-1.55463e-21 -0.034848 0.00736572 0.000226688
0 0.011402 0.03375 7.95988e-05
8.08456e-20 0.022652 0.0275 0.000128885
0 -0.028598 0.02125 0.000164681
8.08456e-20 0.027652 0.0225 0.00016367
0 -0.032348 0.0149988 0.000196407
0 -0.021098 0.02875 0.000114029
1.0842e-19 0.033902 0.011217 0.000214633
-3.54881e-20 -0.014848 0.0325 8.62993e-05
-3.54881e-20 -0.007348 0.035 6.87986e-05
-9.67102e-20 0.007652 0.035 7.02617e-05
0 0.021402 0.02875 0.000119411
1.58401e-19 0.015152 0.0325 8.95563e-05
1.0842e-19 0.028902 0.02125 0.000171515
-6.61893e-20 0.035152 0.00736572 0.000225672
-9.67102e-20 -0.029848 0.02 0.000171671
0 0.032652 0.0149988 0.000201803
8.08456e-20 -0.019848 0.03 0.00010465
-2.1684e-19 -0.036098 0.00116944 0.000216454
5.84013e-20 0.020152 0.03 0.0001095
-1.91544e-20 0.030152 0.02 0.000178437
-6.56846e-20 -0.034848 0.00994629 0.000215992
1.0842e-19 -0.001098 0.03625 6.04974e-05
-1.0842e-19 -0.036098 0.00356873 0.000253189
0 0.001402 0.03625 6.07322e-05
0 -0.033598 0.0137433 0.000201744
0 -0.031098 0.01875 0.00017867
-9.67102e-20 -0.009848 0.035 6.85845e-05
1.0842e-19 -0.018598 0.03125 9.52581e-05
0 -0.013598 0.03375 7.71093e-05
-1.0842e-19 0.036402 0.00116943 0.000192198
1.0842e-19 -0.003598 0.03625 6.02716e-05
-1.91544e-20 0.010152 0.035 7.05365e-05
0 0.003902 0.03625 6.09745e-05
0 0.013902 0.03375 7.98994e-05
1.0842e-19 0.018902 0.03125 9.9603e-05
6.79656e-20 0.035152 0.00994629 0.000218183
0 0.0333198 0.0149988 0.000201888
0 0.031402 0.01875 0.000185333
0 0.036402 0.00356872 0.000242454
0 0.033902 0.0137433 0.000206734
0 -0.036098 0.00608215 0.000232694
-3.15544e-30 -0.032348 0.0174281 0.000185138
0 -0.006098 0.03625 6.00533e-05
1.57772e-30 -0.032348 0.0175 0.000184804
-1.0842e-19 0.006402 0.03625 6.12257e-05
0 0.0368386 0 0.000191945
-9.67102e-20 -0.017348 0.0325 8.60896e-05
0 0.036402 0.00608215 0.000229617
0 -0.034848 0.0121669 0.000207681
5.84013e-20 0.017652 0.0325 8.98971e-05
-1.0842e-19 -0.026098 0.02625 0.000131891
0 -0.034848 0.0124878 0.000206479
-4.73317e-29 0.032652 0.0174693 0.000191405
1.42066e-19 0.032652 0.0175 0.000191276
-1.91544e-20 -0.027348 0.025 0.000140376
5.84013e-20 -0.024848 0.0275 0.000122846
8.08456e-20 -0.012348 0.035 6.83786e-05
2.1684e-19 -0.036098 0.00865601 0.000220721
1.0842e-19 -0.028598 0.02375 0.000148869
-1.0842e-19 -0.023598 0.02875 0.000113797
1.58401e-19 0.012652 0.035 7.08208e-05
-1.0842e-19 0.026402 0.02625 0.000138811
1.0842e-19 -0.008598 0.03625 5.98435e-05
8.08456e-20 0.025152 0.0275 0.000129321
3.28979e-21 0.027652 0.025 0.000147542
0 0.035152 0.0124878 0.000210796
1.0842e-19 -0.033598 0.0162494 0.000190951
0 0.008902 0.03625 6.1485e-05
0 -0.037348 1.10674e-08 0.000216675
-1.91544e-20 -0.029848 0.0225 0.000156677