# k  POINT_DATA 34923
# x  y  z  k
4.08021e-10 0 0 0.000207661
-0.000152009 0 0 0.000207645
0.000152011 0 0 0.000207678
-0.000152008 0 0.000142211 0.000207645
0.00015201 0 0.000142211 0.000207678
-0.00125 0 0.00116944 0.000207527
0.00125001 0 0.00116943 0.000207796
3.54797e-09 4.51751e-21 0.00234132 0.000228075
-0.00234799 0 0 0.000207411
0.00234801 0 0 0.000207915
-0.00234799 0 0.00014221 0.000207411
0.00234801 0 0.000142211 0.000207915
-0.0025 2.71051e-20 0 0.000207393
0.00250002 0 0 0.000207931
-0.00265201 0 0 0.000207378
0.00265203 2.71051e-20 0 0.000207949
-0.00265201 -2.71051e-20 0.000142211 0.000207378
0.00265203 0 0.000142211 0.000207949
-0.0025 0 0.00234132 0.000227969
0.00250001 9.03502e-21 0.00234132 0.000228183
-0.00125 0 0.00356872 0.000248809
0.00125 1.0842e-19 0.00356872 0.000248752
-0.00374999 -1.0842e-19 0.00116944 0.000207261
0.00375001 -1.0842e-19 0.00116944 0.000208068
2.37366e-09 -9.03502e-21 0.00480076 0.00024008
-0.00484797 0 0 0.000207147
0.00484801 0 0 0.000208189
-0.00484797 -2.71051e-20 0.000142211 0.000207147
0.00484801 0 0.000142212 0.000208189
-0.00499998 2.71051e-20 0 0.000207129
0.00500002 2.71051e-20 0 0.000208205
-0.00515199 0 0 0.000207114
0.00515203 0 0 0.000208224
-0.00515199 0 0.00014221 0.000207114
0.00515203 0 0.000142212 0.000208224
-0.00375 1.0842e-19 0.00356873 0.000248865
0.00375 0 0.00356872 0.000248694
-0.0025 0 0.00480076 0.000240207
0.0025 -9.03502e-21 0.00480076 0.000239953
-0.00499999 -4.51751e-21 0.00234132 0.000227863
0.00500001 1.35525e-20 0.00234132 0.000228292
-0.00125 1.0842e-19 0.00608215 0.000231367
0.00125 0 0.00608215 0.000231169
-0.00624999 0 0.00116944 0.000206999
0.00625001 0 0.00116944 0.000208344
-0.005 4.51751e-21 0.00480076 0.000240333
0.005 0 0.00480076 0.000239826
0.00375 1.0842e-19 0.00608215 0.000230972
-0.00375 0 0.00608215 0.000231564
-0.00624999 -2.1684e-19 0.00356872 0.00024892
0.00625 0 0.00356873 0.000248635
-0.00734797 -2.71051e-20 0 0.000206885
0.00734801 0 0 0.000208467
-0.00734797 0 0.000142211 0.000206885
0.00734801 0 0.0001422 0.000208467
1.06232e-09 -4.51751e-21 0.00736599 0.000226122
-0.00749998 0 0 0.000206868
0.00750001 2.71051e-20 0 0.000208483
-0.00765199 0 0 0.000206853
0.00765201 0 0 0.000208502
-0.00765199 2.71051e-20 0.000142211 0.000206853
0.00765201 0 0.0001422 0.000208502
-0.0025 0 0.00736599 0.000226339
0.0025 -4.51751e-21 0.00736599 0.000225907
-0.00749999 0 0.00234132 0.000227759
0.0075 0 0.00234132 0.000228401
-0.00625 -1.0842e-19 0.00608215 0.000231761
0.00625 1.0842e-19 0.00608215 0.000230774
-0.00125 1.0842e-19 0.008656 0.000221086
0.00125 -1.0842e-19 0.00865601 0.000220851
-0.00874999 -1.0842e-19 0.00116944 0.000206739
0.00875 0 0.00116944 0.000208624
0.005 -4.51751e-21 0.00736599 0.000225692
-0.005 0 0.00736599 0.000226557
-0.0075 4.51751e-21 0.00480076 0.000240458
0.0075 -4.51751e-21 0.00480076 0.000239697
-0.00375 0 0.008656 0.000221324
0.00375 0 0.00865601 0.000220619
-0.00875 0 0.00356872 0.000248974
0.00875 0 0.00356873 0.000248573
0.00984798 0 0 0.000208747
-0.00984799 0 0 0.000206627
0.00984798 0 0.000142211 0.000208747
-0.00984799 0 0.000142213 0.000206627
3.33589e-10 0 0.0099455 0.000216757
0.00999999 0 0 0.000208764
-0.01 2.71051e-20 0 0.000206611
0.010152 0 0 0.000208783
-0.010152 0 0 0.000206595
0.010152 0 0.000142211 0.000208783
-0.010152 0 0.000142213 0.000206595
-0.0025 0 0.0099455 0.000216989
0.0025 0 0.0099455 0.000216527
-0.01 1.35525e-20 0.00234132 0.000227655
0.01 -4.51751e-21 0.00234132 0.000228512
0.0075 -4.51751e-21 0.00736599 0.000225479
-0.0075 0 0.00736599 0.000226777
0.00875 1.0842e-19 0.00608215 0.000230576
-0.00875 2.1684e-19 0.00608215 0.000231959
0.00625 0 0.00865601 0.000220388
-0.00625 0 0.00865601 0.000221564
-0.01 -9.03502e-21 0.00480076 0.000240584
0.01 -4.51751e-21 0.00480076 0.000239567
0.005 0 0.0099455 0.000216301
-0.005 0 0.0099455 0.000217225
-0.00125 1.0842e-19 0.011217 0.000212678
0.00125 1.0842e-19 0.011217 0.000212451
0.01125 -1.0842e-19 0.00116943 0.000208906
-0.01125 0 0.00116944 0.000206483
0.01125 1.0842e-19 0.00356872 0.00024851
-0.01125 1.0842e-19 0.00356872 0.000249027
0.00375 0 0.011217 0.000212228
-0.00375 2.1684e-19 0.011217 0.000212909
-0.00875 0 0.008656 0.000221807
0.00875 -1.0842e-19 0.00865601 0.000220159
-0.012348 -2.71051e-20 0 0.000206373
0.012348 0 0 0.000209031
-0.012348 0 0.000142215 0.000206373
0.012348 -2.71051e-20 0.000142198 0.000209031
0.01 -4.51751e-21 0.00736599 0.000225266
-0.01 0 0.00736599 0.000226998
0.0075 0 0.0099455 0.000216078
-0.0075 0 0.0099455 0.000217464
6.54477e-11 0 0.0124872 0.000208108
0.0125 0 0 0.000209048
-0.0125 0 0 0.000206356
0.012652 0 0 0.000209067
-0.012652 2.71051e-20 0 0.000206341
0.012652 -2.71051e-20 0.000142198 0.000209067
-0.012652 2.71051e-20 0.000142215 0.000206341
0.0125 4.51751e-21 0.00234132 0.000228623
-0.0125 9.03502e-21 0.00234132 0.000227554
-0.0025 4.51751e-21 0.0124872 0.000208319
0.0025 4.51751e-21 0.0124872 0.000207901
0.01125 0 0.00608215 0.000230377
-0.01125 -1.0842e-19 0.00608215 0.000232158
-0.00625 0 0.011217 0.000213144
0.00625 0 0.011217 0.00021201
0.0125 0 0.00480076 0.000239435
-0.0125 -4.51751e-21 0.00480076 0.000240709
-0.005 4.51751e-21 0.0124872 0.000208534
0.005 4.51751e-21 0.0124872 0.0002077
0.01375 0 0.00116944 0.000209192
-0.01375 0 0.00116944 0.000206231
-0.00125 0 0.0137433 0.000203763
0.00125 0 0.0137433 0.000203572
0.01 0 0.0099455 0.000215858
-0.01 9.03502e-21 0.0099455 0.000217707
-0.01125 0 0.008656 0.000222052
0.01125 0 0.00865601 0.000219933
0.01375 0 0.00356873 0.000248445
-0.01375 -1.0842e-19 0.00356872 0.00024908
0.00875 2.1684e-19 0.011217 0.000211795
-0.00875 0 0.011217 0.000213383
0.00375 -1.0842e-19 0.0137433 0.000203386
-0.00375 -1.0842e-19 0.0137433 0.000203957
0.0125 -4.51751e-21 0.00736599 0.000225053
-0.0125 0 0.00736599 0.000227221
0.0075 4.51751e-21 0.0124872 0.000207503
-0.0075 0 0.0124872 0.000208754
-0.014848 -2.71051e-20 0 0.000206122
0.014848 0 0 0.000209318
-0.014848 -2.71051e-20 0.000142216 0.000206122
0.014848 2.71051e-20 0.000142196 0.000209318
6.19684e-12 -4.51751e-21 0.0149986 0.000198514
0.015 0 0 0.000209335
-0.015 0 0 0.000206106
-0.01375 -1.0842e-19 0.00608215 0.000232357
0.01375 0 0.00608215 0.000230178
0.00625 1.0842e-19 0.0137433 0.000203206
-0.00625 0 0.0137433 0.000204158
0.015152 0 0 0.000209355
-0.015152 0 0 0.000206091
0.015152 0 0.000142196 0.000209355
-0.015152 0 0.000142217 0.000206091
0.015 -4.51751e-21 0.00234132 0.000228735
-0.015 -4.51751e-21 0.00234132 0.000227454
-0.0025 4.51751e-21 0.0149986 0.000198678
0.0025 0 0.0149986 0.000198355
0.015 4.51751e-21 0.00480076 0.000239303
-0.015 1.35525e-20 0.00480076 0.000240835
0.005 4.51751e-21 0.0149986 0.000198202
-0.005 4.51751e-21 0.0149986 0.000198847
0.01125 -1.0842e-19 0.011217 0.000211585
-0.01125 -1.0842e-19 0.011217 0.000213627
0.0125 4.51751e-21 0.0099455 0.000215641
-0.0125 1.35525e-20 0.0099455 0.000217954
0.01 4.51751e-21 0.0124872 0.00020731
-0.01 4.51751e-21 0.0124872 0.000208978
-0.01375 0 0.00865601 0.000222301
0.01375 0 0.00865601 0.000219709
-0.01625 0 0.00116944 0.000205982
0.01625 -1.0842e-19 0.00116944 0.000209481
-0.00875 0 0.0137433 0.000204363
0.00875 0 0.0137433 0.000203031
-0.00125 -1.0842e-19 0.0162494 0.000193433
0.00125 -1.0842e-19 0.0162494 0.000193301
-0.01625 1.0842e-19 0.00356872 0.000249133
0.01625 0 0.00356873 0.000248377
-0.00375 0 0.0162494 0.00019357
0.00375 0 0.0162494 0.000193174
-0.015 -9.03502e-21 0.00736599 0.000227446
0.015 0 0.00736599 0.000224842
0.0075 4.51751e-21 0.0149986 0.000198053
-0.0075 0 0.0149986 0.00019902
-0.017348 0 0 0.000205874
0.017348 -2.71051e-20 0 0.000209609
-0.017348 0 0.000142217 0.000205874
0.017348 0 0.000142194 0.000209609
0.01625 1.0842e-19 0.00608215 0.000229977
-0.01625 1.0842e-19 0.00608215 0.000232558
0.00625 0 0.0162494 0.000193052
-0.00625 0 0.0162494 0.000193713
5.01941e-14 -4.51751e-21 0.0175 0.000187332
0.0175 0 0 0.000209626
-0.0175 0 0 0.000205858
0.017652 0 0 0.000209646
-0.017652 0 0 0.000205844
0.017652 0 0.000142194 0.000209646
-0.017652 0 0.000142216 0.000205844
-0.0175 -9.03502e-21 0.00234132 0.000227355
0.0175 1.35525e-20 0.00234132 0.000228847
0.0125 4.51751e-21 0.0124872 0.000207122
-0.0125 9.03502e-21 0.0124872 0.000209207
-0.0025 0 0.0175 0.000187429
0.0025 -4.51751e-21 0.0175 0.00018724
0.01375 -1.0842e-19 0.011217 0.000211378
-0.01375 -1.0842e-19 0.011217 0.000213874
-0.01125 1.0842e-19 0.0137433 0.000204573
0.01125 0 0.0137433 0.00020286
0.015 9.03502e-21 0.0099455 0.000215428
-0.015 4.51751e-21 0.0099455 0.000218204
0.01 4.51751e-21 0.0149986 0.00019791
-0.01 0 0.0149986 0.000199199
-0.0175 1.35525e-20 0.00480076 0.000240961
0.0175 1.807e-20 0.00480076 0.000239168
0.005 4.51751e-21 0.0175 0.000187153
-0.005 0 0.0175 0.000187532
0.01625 -1.0842e-19 0.008656 0.000219487
-0.01625 -1.0842e-19 0.008656 0.000222552
-0.00875 1.0842e-19 0.0162494 0.00019386
0.00875 0 0.0162494 0.000192935
0.01875 -1.0842e-19 0.00116944 0.000209774
-0.01875 0 0.00116944 0.000205736
0.00125 2.1684e-19 0.01875 0.000181269
-0.00125 0 0.01875 0.000181326
-0.0175 -9.03502e-21 0.00736599 0.000227673
0.0175 0 0.00736599 0.00022463
0.0075 4.51751e-21 0.0175 0.000187071
-0.0075 0 0.0175 0.000187638
0.01875 0 0.00356873 0.000248307
-0.01875 0 0.00356872 0.000249185
0.00375 1.0842e-19 0.01875 0.000181217
-0.00375 1.0842e-19 0.01875 0.000181389
0.01375 1.0842e-19 0.0137433 0.000202695
-0.01375 0 0.0137433 0.000204787
-0.015 9.03502e-21 0.0124872 0.00020944
0.015 9.03502e-21 0.0124872 0.000206938
0.0125 0 0.0149986 0.000197772
-0.0125 0 0.0149986 0.000199382
-0.01875 1.0842e-19 0.00608215 0.000232758
0.01875 1.0842e-19 0.00608215 0.000229775
0.01625 -1.0842e-19 0.011217 0.000211176
-0.01625 -1.0842e-19 0.011217 0.000214126
0.01125 2.1684e-19 0.0162494 0.000192824
-0.01125 1.0842e-19 0.0162494 0.000194012
-0.00625 1.0842e-19 0.01875 0.000181456
0.00625 -1.0842e-19 0.01875 0.00018117
-0.019848 0 0 0.00020563
0.019848 0 0 0.000209904
-0.019848 0 0.000142216 0.00020563
0.019848 0 0.000142193 0.000209904
0.02 0 0 0.000209921
-0.02 2.71051e-20 0 0.000205614
-9.82524e-15 0 0.02 0.000174351
-0.0175 0 0.0099455 0.000218457
0.0175 9.03502e-21 0.0099455 0.000215216
-0.02 4.51751e-21 0.00234132 0.000227258
0.02 1.35525e-20 0.00234132 0.00022896
0.020152 0 0 0.000209941
-0.020152 0 0 0.0002056
0.020152 0 0.000142194 0.000209941
-0.020152 0 0.000142216 0.0002056
0.01 0 0.0175 0.000186994
-0.01 0 0.0175 0.00018775
0.0025 4.51751e-21 0.02 0.000174339
-0.0025 0 0.02 0.000174367
-0.02 9.03502e-21 0.00480076 0.000241088
0.02 1.35525e-20 0.00480076 0.000239032
0.005 9.03502e-21 0.02 0.000174333
-0.005 0 0.02 0.000174389
-0.01875 1.0842e-19 0.008656 0.000222807
0.01875 2.1684e-19 0.008656 0.000219265
-0.00875 2.1684e-19 0.01875 0.000181527
0.00875 1.0842e-19 0.01875 0.000181127
0.015 0 0.0149986 0.00019764
-0.015 0 0.0149986 0.00019957
-0.02125 0 0.00116944 0.000205494
0.02125 1.0842e-19 0.00116944 0.000210071
0.01625 0 0.0137433 0.000202536
-0.01625 0 0.0137433 0.000205006
-0.01375 1.0842e-19 0.0162494 0.000194169
0.01375 2.1684e-19 0.0162494 0.00019272
0.00125 0 0.02125 0.000167418
-0.00125 0 0.02125 0.000167389
-0.02 -9.03502e-21 0.00736599 0.000227902
0.02 4.51751e-21 0.00736599 0.000224419
0.0075 4.51751e-21 0.02 0.000174331
-0.0075 0 0.02 0.000174414
-0.0175 4.51751e-21 0.0124872 0.000209678
0.0175 9.03502e-21 0.0124872 0.000206759
0.0125 0 0.0175 0.000186924
-0.0125 0 0.0175 0.000187867
-0.02125 0 0.00356872 0.000249238
0.02125 -1.0842e-19 0.00356873 0.000248234
-0.00375 1.0842e-19 0.02125 0.000167365
0.00375 -1.0842e-19 0.02125 0.000167452
0.01875 0 0.011217 0.000210977
-0.01875 -1.0842e-19 0.011217 0.000214382
-0.01125 1.0842e-19 0.01875 0.000181604
0.01125 0 0.01875 0.000181092
-0.02125 -1.0842e-19 0.00608215 0.000232961
0.02125 0 0.00608215 0.000229572
0.00625 0 0.02125 0.000167491
-0.00625 0 0.02125 0.000167345
-0.02 4.51751e-21 0.0099455 0.000218714
0.02 4.51751e-21 0.0099455 0.000215008
-0.022348 0 0 0.000205389
0.022348 0 0 0.000210202
-0.022348 0 0.000142214 0.000205389
0.022348 0 0.000142196 0.000210202
0.01 0 0.02 0.000174335
-0.01 0 0.02 0.000174444
-0.0225 0 0 0.000205374
0.0225 0 0 0.000210219
-9.82515e-15 0 0.0225 0.000159623
-0.0225 9.03502e-21 0.00234132 0.000227163
0.0225 4.51751e-21 0.00234132 0.000229073
0.0025 4.51751e-21 0.0225 0.000159701
-0.0025 4.51751e-21 0.0225 0.00015955
0.022652 0 0 0.000210239
-0.022652 0 0 0.000205359
0.022652 0 0.000142196 0.000210239
-0.022652 2.71051e-20 0.000142214 0.000205359
-0.02125 -2.1684e-19 0.008656 0.000223065
0.02125 0 0.00865601 0.000219046
-0.01625 2.1684e-19 0.0162494 0.00019433
0.01625 2.1684e-19 0.0162494 0.00019262
0.00875 1.0842e-19 0.02125 0.000167535
-0.00875 2.1684e-19 0.02125 0.000167329
-0.0225 -9.03502e-21 0.00480076 0.000241215
0.0225 4.51751e-21 0.00480076 0.000238893
0.0175 0 0.0149986 0.000197513
-0.0175 0 0.0149986 0.000199762
0.015 0 0.0175 0.000186859
-0.015 0 0.0175 0.000187988
0.005 9.03502e-21 0.0225 0.000159784
-0.005 4.51751e-21 0.0225 0.000159481
0.01875 1.0842e-19 0.0137433 0.000202381
-0.01875 -1.0842e-19 0.0137433 0.00020523
-0.01375 1.0842e-19 0.01875 0.000181685
0.01375 0 0.01875 0.000181061
-0.02 0 0.0124872 0.00020992
0.02 4.51751e-21 0.0124872 0.000206585
0.0125 0 0.02 0.000174344
-0.0125 0 0.02 0.000174479
-0.0225 -4.51751e-21 0.00736599 0.000228133
0.0225 4.51751e-21 0.00736599 0.000224208
-0.0075 0 0.0225 0.000159416
0.0075 9.03502e-21 0.0225 0.000159872
-0.02375 0 0.00116944 0.000205255
0.02375 0 0.00116944 0.000210371
0.00125 1.0842e-19 0.02375 0.000151903
-0.00125 1.0842e-19 0.02375 0.000151781
-0.02375 0 0.00356872 0.00024929
0.02375 -2.1684e-19 0.00356872 0.000248158
0.02125 2.1684e-19 0.011217 0.000210783
-0.02125 -1.0842e-19 0.011217 0.000214643
0.01125 0 0.02125 0.000167584
-0.01125 1.0842e-19 0.02125 0.000167318
0.00375 0 0.02375 0.00015203
-0.00375 -1.0842e-19 0.02375 0.000151664
-0.02375 -2.1684e-19 0.00608215 0.000233165
0.02375 0 0.00608215 0.000229367
-0.00625 0 0.02375 0.00015155
0.00625 -1.0842e-19 0.02375 0.000152162
-0.0225 4.51751e-21 0.0099455 0.000218975
0.0225 4.51751e-21 0.0099455 0.000214802
0.01 4.51751e-21 0.0225 0.000159965
-0.01 0 0.0225 0.000159356
0.0175 0 0.0175 0.000186801
-0.0175 0 0.0175 0.000188113
-0.01875 2.1684e-19 0.0162494 0.000194495
0.01875 -1.0842e-19 0.0162494 0.000192527
0.01625 -1.0842e-19 0.01875 0.000181037
-0.01625 0 0.01875 0.000181769
-0.024848 2.71051e-20 0 0.000205151
0.024848 0 0 0.000210503
-0.024848 0 0.000142213 0.000205151
0.024848 -2.71051e-20 0.00014221 0.000210503
0.02 0 0.0149986 0.000197392
-0.02 0 0.0149986 0.000199959
-0.025 2.71051e-20 0 0.000205136
0.015 0 0.02 0.00017436
-9.82486e-15 0 0.025 0.000143297
-0.015 4.51751e-21 0.02 0.000174518
0.025 2.71051e-20 0 0.000210521
-0.025 -1.35525e-20 0.00234132 0.00022707
0.025 0 0.00234132 0.000229187
0.0025 0 0.025 0.000143466
-0.0025 4.51751e-21 0.025 0.000143132
0.025152 0 0 0.000210542
-0.025152 0 0 0.000205122
0.025152 0 0.00014221 0.000210542
-0.025152 0 0.000142213 0.000205122
-0.02375 1.0842e-19 0.008656 0.000223326
0.02375 0 0.008656 0.000218828
-0.02125 2.1684e-19 0.0137433 0.000205458
0.02125 0 0.0137433 0.000202232
-0.01375 2.1684e-19 0.02125 0.00016731
-0.00875 0 0.02375 0.000151441
0.01375 0 0.02125 0.00016764
0.00875 -1.0842e-19 0.02375 0.000152299
-0.025 -4.51751e-21 0.00480076 0.000241344
0.025 0 0.00480076 0.000238752
0.005 4.51751e-21 0.025 0.000143641
-0.005 4.51751e-21 0.025 0.000142971
0.0225 4.51751e-21 0.0124872 0.000206416
-0.0225 0 0.0124872 0.000210167
-0.0125 0 0.0225 0.000159299
0.0125 0 0.0225 0.000160064
-0.025 4.51751e-21 0.00736599 0.000228367
0.025 0 0.00736599 0.000223996
0.0075 9.03502e-21 0.025 0.00014382
-0.0075 0 0.025 0.000142815
0.02375 -1.0842e-19 0.011217 0.000210592
-0.02375 0 0.011217 0.000214908
-0.02625 1.0842e-19 0.00116944 0.000205019
0.02625 -1.0842e-19 0.00116944 0.000210675
0.00125 1.0842e-19 0.02625 0.000134857
-0.01125 2.1684e-19 0.02375 0.000151335
0.01125 -1.0842e-19 0.02375 0.000152441
-0.00125 1.0842e-19 0.02625 0.000134645
-0.02625 2.1684e-19 0.00356872 0.000249343
0.02625 0 0.00356872 0.00024808
0.01875 0 0.01875 0.000181019
0.00375 -1.0842e-19 0.02625 0.000135074
-0.00375 0 0.02625 0.000134437
-0.01875 0 0.01875 0.000181858
-0.02 0 0.0175 0.000188242
0.02 0 0.0175 0.000186748
0.0175 0 0.02 0.000174381
-0.0175 4.51751e-21 0.02 0.00017456
0.02125 0 0.0162494 0.00019244
-0.02125 1.0842e-19 0.0162494 0.000194666
0.01625 0 0.02125 0.000167701
-0.01625 0 0.02125 0.000167306
-0.025 4.51751e-21 0.0099455 0.00021924
0.025 4.51751e-21 0.0099455 0.0002146
0.01 4.51751e-21 0.025 0.000144004
-0.01 0 0.025 0.000142662
-0.02625 -1.0842e-19 0.00608215 0.00023337
0.02625 0 0.00608215 0.000229161
-0.00625 1.0842e-19 0.02625 0.000134234
0.00625 -1.0842e-19 0.02625 0.000135296
0.0225 0 0.0149986 0.000197277
-0.0225 0 0.0149986 0.000200161
0.015 0 0.0225 0.000160168
-0.015 4.51751e-21 0.0225 0.000159246
-0.027348 0 0 0.000204917
0.027348 0 0 0.000210809
-0.027348 -2.71051e-20 0.000142212 0.000204917
0.027348 0 0.000142212 0.000210809
0.02375 -1.0842e-19 0.0137433 0.000202089
-0.02375 -1.0842e-19 0.0137433 0.000205692
0.01375 -1.0842e-19 0.02375 0.000152589
-0.01375 1.0842e-19 0.02375 0.000151233
-9.82495e-15 0 0.0275 0.000125532
0.0275 2.71051e-20 0 0.000210827
-0.0275 2.71051e-20 0 0.000204902
-0.0275 9.03502e-21 0.00234132 0.000226978
0.0275 1.35525e-20 0.00234132 0.000229301
0.0025 0 0.0275 0.000125786
-0.0025 0 0.0275 0.000125282
0.02625 0 0.00865601 0.000218612
-0.02625 -1.0842e-19 0.00865601 0.00022359
-0.027652 0 0 0.000204888
0.027652 0 0 0.000210848
-0.027652 0 0.000142212 0.000204888
0.027652 0 0.000142212 0.000210848
0.00875 0 0.02625 0.000135522
-0.00875 0 0.02625 0.000134034
-0.0275 0 0.00480076 0.000241473
0.0275 -4.51751e-21 0.00480076 0.000238608
0.025 4.51751e-21 0.0124872 0.000206252
-0.025 0 0.0124872 0.000210418
0.005 0 0.0275 0.000126045
-0.005 0 0.0275 0.000125036
0.0125 0 0.025 0.000144194
-0.0125 0 0.025 0.000142512
-0.02 0 0.02 0.000174606
0.02 0 0.02 0.000174409
0.01875 1.0842e-19 0.02125 0.000167769
-0.02125 0 0.01875 0.00018195
0.02125 2.1684e-19 0.01875 0.000181008
-0.01875 0 0.02125 0.000167306
-0.0275 4.51751e-21 0.00736599 0.000228603
0.0275 -4.51751e-21 0.00736599 0.000223785
0.0225 0 0.0175 0.000186702
-0.0225 0 0.0175 0.000188375
0.0075 0 0.0275 0.000126309
-0.0075 0 0.0275 0.000124795
0.0175 0 0.0225 0.000160279
-0.0175 4.51751e-21 0.0225 0.000159196
0.02625 1.0842e-19 0.011217 0.000210405
-0.02625 0 0.011217 0.000215177
0.01125 0 0.02625 0.000135754
-0.01125 -1.0842e-19 0.02625 0.000133837
-0.02875 0 0.00116944 0.000204787
0.02875 0 0.00116944 0.000210982
-0.02375 1.0842e-19 0.0162494 0.00019484
0.02375 0 0.0162494 0.000192359
0.00125 0 0.02875 0.000116458
-0.01625 -1.0842e-19 0.02375 0.000151134
0.01625 0 0.02375 0.000152743
-0.00125 0 0.02875 0.000116167
-0.02875 -2.1684e-19 0.00356873 0.000249396
0.02875 -1.0842e-19 0.00356872 0.000247997
0.00375 0 0.02875 0.000116755
-0.00375 2.1684e-19 0.02875 0.000115879
0.025 0 0.0149986 0.000197168
-0.025 0 0.0149986 0.000200367
0.015 0 0.025 0.000144389
-0.015 0 0.025 0.000142366
0.0275 4.51751e-21 0.0099455 0.0002144
-0.0275 4.51751e-21 0.0099455 0.000219509
0.01 0 0.0275 0.000126578
-0.01 0 0.0275 0.000124557
-0.02875 1.0842e-19 0.00608215 0.000233577
0.02875 2.1684e-19 0.00608215 0.000228952
0.00625 1.0842e-19 0.02875 0.000117056
-0.00625 0 0.02875 0.000115596
-0.02625 2.1684e-19 0.0137433 0.000205929
0.02625 -1.0842e-19 0.0137433 0.000201951
0.01375 0 0.02625 0.000135991
-0.01375 0 0.02625 0.000133644
0.029848 -2.71051e-20 0 0.000211119
-0.029848 2.71051e-20 0 0.000204687
0.029848 -2.71051e-20 0.000142214 0.000211119
-0.029848 0 0.00014221 0.000204687
-0.03 0 0 0.000204672
-9.82515e-15 0 0.03 0.000106714
0.03 0 0 0.000211137
-0.02875 0 0.00865601 0.000223857
0.02875 0 0.00865601 0.000218397
0.00875 1.0842e-19 0.02875 0.000117363
-0.00875 -1.0842e-19 0.02875 0.000115316
0.02125 0 0.02125 0.000167842
-0.02125 0 0.02125 0.000167309
-0.03 -4.51751e-21 0.00234132 0.000226889
0.03 -1.35525e-20 0.00234132 0.000229416
0.0025 0 0.03 0.000107032
-0.02 0 0.0225 0.00015915
0.0225 0 0.02 0.000174444
0.02 0 0.0225 0.000160396
-0.0225 0 0.02 0.000174655
-0.0025 0 0.03 0.0001064
-0.030152 0 0 0.000204658
0.030152 0 0 0.000211158
-0.030152 0 0.000142209 0.000204658
0.030152 0 0.000142214 0.000211158
0.0275 4.51751e-21 0.0124872 0.000206091
-0.0275 0 0.0124872 0.000210673
0.0125 0 0.0275 0.000126853
-0.0125 0 0.0275 0.000124322
-0.01875 2.1684e-19 0.02375 0.000151038
0.01875 0 0.02375 0.000152902
-0.02375 1.0842e-19 0.01875 0.000182046
0.02375 0 0.01875 0.000181002
-0.03 4.51751e-21 0.00480076 0.000241603
0.03 -4.51751e-21 0.00480076 0.000238462
0.005 0 0.03 0.000107355
-0.005 4.51751e-21 0.03 0.000106091
0.025 0 0.0175 0.000186662
-0.025 0 0.0175 0.000188513
0.0175 0 0.025 0.00014459
-0.0175 0 0.025 0.000142223
-0.02875 1.0842e-19 0.011217 0.00021545
0.02875 -1.0842e-19 0.011217 0.000210222
0.02625 1.0842e-19 0.0162494 0.000192284
-0.02625 0 0.0162494 0.000195019
0.01125 1.0842e-19 0.02875 0.000117674
-0.01125 0 0.02875 0.00011504
0.01625 0 0.02625 0.000136234
-0.01625 0 0.02625 0.000133454
-0.03 4.51751e-21 0.00736599 0.000228841
0.03 -4.51751e-21 0.00736599 0.000223573
0.0075 0 0.03 0.000107684
-0.0075 4.51751e-21 0.03 0.000105786
0.03125 0 0.00116944 0.000211295
-0.03125 1.0842e-19 0.00116944 0.000204559
0.00125 -1.0842e-19 0.03125 9.72851e-05
-0.00125 -1.0842e-19 0.03125 9.69453e-05
0.0275 0 0.0149986 0.000197064
-0.0275 0 0.0149986 0.000200577
0.015 0 0.0275 0.000127132
-0.015 0 0.0275 0.000124091
0.03125 0 0.00356873 0.000247911
-0.03125 1.0842e-19 0.00356873 0.000249451
0.00375 -1.0842e-19 0.03125 9.76299e-05
-0.00375 -2.1684e-19 0.03125 9.66102e-05
-0.03 0 0.0099455 0.000219781
0.03 9.03502e-21 0.0099455 0.000214202
0.01 4.51751e-21 0.03 0.000108017
-0.01 0 0.03 0.000105485
-0.0225 0 0.0225 0.000159106
0.0225 0 0.0225 0.000160519
-0.03125 -1.0842e-19 0.00608215 0.000233786
0.03125 1.0842e-19 0.00608215 0.000228741
0.02875 0 0.0137433 0.000201818
-0.02875 0 0.0137433 0.000206171
0.00625 0 0.03125 9.79798e-05
0.01375 2.1684e-19 0.02875 0.000117991
-0.00625 -1.0842e-19 0.03125 9.62796e-05
-0.02125 0 0.02375 0.000150946
-0.02375 1.0842e-19 0.02125 0.000167314
-0.01375 0 0.02875 0.000114768
0.02375 0 0.02125 0.000167923
0.02125 0 0.02375 0.000153069
0.025 0 0.02 0.000174485
-0.02 0 0.025 0.000142084
0.02 0 0.025 0.000144798
-0.025 0 0.02 0.000174708
0.01875 0 0.02625 0.000136483
-0.01875 1.0842e-19 0.02625 0.000133267
-0.02625 1.0842e-19 0.01875 0.000182147
0.02625 0 0.01875 0.000181005
0.032348 0 0 0.000211433
-0.032348 0 0 0.00020446
0.032348 0 0.000142215 0.000211433
-0.032348 2.71051e-20 0.000142207 0.00020446
-0.03125 0 0.00865601 0.000224129
0.03125 0 0.008656 0.000218183
0.00875 2.1684e-19 0.03125 9.83352e-05
-0.00875 1.0842e-19 0.03125 9.59532e-05
0.03 1.35525e-20 0.0124872 0.000205936
-0.03 4.51751e-21 0.0124872 0.000210933
0.0125 4.51751e-21 0.03 0.000108356
-0.0125 0 0.03 0.000105188
0.0325 -2.71051e-20 0 0.000211451
-0.0325 -2.71051e-20 0 0.000204445
-9.82513e-15 0 0.0325 8.77338e-05
-0.0325 -4.51751e-21 0.00234132 0.000226802
0.0325 0 0.00234132 0.00022953
0.0275 0 0.0175 0.000186629
-0.0275 4.51751e-21 0.0175 0.000188654
0.0025 4.51751e-21 0.0325 8.80818e-05
0.0175 0 0.0275 0.000127417
-0.0175 0 0.0275 0.000123863
-0.0025 4.51751e-21 0.0325 8.73905e-05
-0.032652 0 0 0.000204432
0.032652 2.71051e-20 0 0.000211472
-0.032652 2.71051e-20 0.000142207 0.000204432
0.032652 2.71051e-20 0.000142215 0.000211472
-0.0325 9.03502e-21 0.00480076 0.000241735
0.0325 -4.51751e-21 0.00480076 0.000238312
0.005 4.51751e-21 0.0325 8.84346e-05
-0.005 9.03502e-21 0.0325 8.70516e-05
0.02875 2.1684e-19 0.0162494 0.000192216
-0.02875 0 0.0162494 0.000195201
0.01625 0 0.02875 0.000118313
-0.01625 0 0.02875 0.000114499
0.03125 -1.0842e-19 0.011217 0.000210044
-0.03125 2.1684e-19 0.011217 0.000215728
-0.01125 1.0842e-19 0.03125 9.56309e-05
0.01125 -1.0842e-19 0.03125 9.86963e-05
-0.0325 9.03502e-21 0.00736599 0.000229083
0.0325 -4.51751e-21 0.00736599 0.00022336
0.0075 0 0.0325 8.87925e-05
-0.0075 4.51751e-21 0.0325 8.67169e-05
0.03 9.03502e-21 0.0149986 0.000196968
-0.03 9.03502e-21 0.0149986 0.000200791
0.015 0 0.03 0.000108701
-0.015 4.51751e-21 0.03 0.000104895
0.02375 0 0.02375 0.000153242
-0.02375 0 0.02375 0.000150856
0.0225 0 0.025 0.000145012
0.025 0 0.0225 0.000160649
-0.025 0 0.0225 0.000159066
-0.0225 0 0.025 0.000141947
-0.03375 -2.1684e-19 0.00116943 0.000204333
0.03375 1.0842e-19 0.00116944 0.00021161
0.00125 0 0.03375 7.85281e-05
0.02125 2.1684e-19 0.02625 0.000136738
0.02625 -1.0842e-19 0.02125 0.00016801
-0.02625 0 0.02125 0.000167323
-0.02125 -1.0842e-19 0.02625 0.000133083
-0.00125 2.1684e-19 0.03375 7.81767e-05
-0.03375 1.0842e-19 0.00356873 0.000249505
0.03375 1.0842e-19 0.00356873 0.000247822
0.00375 -1.0842e-19 0.03375 7.88839e-05
-0.00375 -1.0842e-19 0.03375 7.78298e-05
-0.0325 9.03502e-21 0.0099455 0.000220058
0.0325 4.51751e-21 0.0099455 0.000214007
0.02 0 0.0275 0.000127709
0.01 4.51751e-21 0.0325 8.91558e-05
0.0275 0 0.02 0.000174533
-0.01 0 0.0325 8.63861e-05
-0.02 0 0.0275 0.000123638
-0.0275 4.51751e-21 0.02 0.000174764
0.03125 -2.1684e-19 0.0137433 0.000201691
-0.03125 -1.0842e-19 0.0137433 0.000206417
-0.01375 1.0842e-19 0.03125 9.53126e-05
0.01375 0 0.03125 9.90632e-05
-0.03375 0 0.00608215 0.000233998
0.03375 1.0842e-19 0.00608215 0.000228528
0.00625 2.1684e-19 0.03375 7.92447e-05
0.01875 1.0842e-19 0.02875 0.00011864
-0.00625 2.1684e-19 0.03375 7.74868e-05
-0.01875 0 0.02875 0.000114233
0.02875 0 0.01875 0.000181013
-0.02875 -1.0842e-19 0.01875 0.00018225
-0.03 9.03502e-21 0.0175 0.000188799
0.03 4.51751e-21 0.0175 0.000186602
0.0175 0 0.03 0.000109051
-0.0175 4.51751e-21 0.03 0.000104604
0.0325 1.807e-20 0.0124872 0.000205786
-0.0325 1.35525e-20 0.0124872 0.000211198
0.0125 4.51751e-21 0.0325 8.95251e-05
-0.0125 0 0.0325 8.60591e-05
-0.03375 -1.0842e-19 0.00865601 0.000224404
0.03375 -1.0842e-19 0.008656 0.000217971
0.034848 -2.71051e-20 0 0.00021175
-0.034848 0 0 0.000204236
0.034848 -2.71051e-20 0.000142217 0.00021175
-0.034848 -2.71051e-20 0.000142206 0.000204236
0.00875 1.0842e-19 0.03375 7.96101e-05
-0.00875 2.1684e-19 0.03375 7.71477e-05
0.035 2.71051e-20 0 0.000211769
-0.035 0 0 0.000204222
-9.825e-15 0 0.035 6.94765e-05
-0.035 -4.51751e-21 0.00234132 0.000226717
0.035 4.51751e-21 0.00234132 0.000229645
0.0025 9.03502e-21 0.035 6.98368e-05
-0.0025 4.51751e-21 0.035 6.91206e-05
-0.035152 0 0 0.000204209
0.035152 0 0 0.000211791
-0.035152 -2.71051e-20 0.000142206 0.000204209
0.035152 0 0.000142217 0.000211791
0.03125 -1.0842e-19 0.0162494 0.000192155
-0.03125 -1.0842e-19 0.0162494 0.000195389
0.01625 0 0.03125 9.94363e-05
-0.01625 -1.0842e-19 0.03125 9.4998e-05
-0.035 0 0.00480076 0.000241868
0.035 9.03502e-21 0.00480076 0.00023816
0.005 9.03502e-21 0.035 7.02016e-05
0.025 0 0.025 0.000145233
-0.005 4.51751e-21 0.035 6.87688e-05
-0.025 0 0.025 0.000141812
0.02375 0 0.02625 0.000137
-0.02625 2.1684e-19 0.02375 0.000150769
-0.02375 1.0842e-19 0.02625 0.000132901
0.02625 0 0.02375 0.000153421
0.0225 0 0.0275 0.000128006
0.0275 0 0.0225 0.000160786
-0.0275 0 0.0225 0.000159028
-0.0225 0 0.0275 0.000123416
-0.03375 -1.0842e-19 0.011217 0.000216011
0.03375 -1.0842e-19 0.011217 0.00020987
0.01125 0 0.03375 7.99816e-05
-0.01125 0 0.03375 7.68123e-05
-0.02875 1.0842e-19 0.02125 0.000167335
-0.02125 0 0.02875 0.000113971
0.02875 0 0.02125 0.000168105
0.02125 0 0.02875 0.000118973
-0.035 4.51751e-21 0.00736599 0.000229328
0.035 0 0.00736599 0.000223147
0.0325 1.35525e-20 0.0149986 0.000196877
-0.0325 1.35525e-20 0.0149986 0.00020101
0.015 0 0.0325 8.99005e-05
-0.015 4.51751e-21 0.0325 8.57356e-05
0.0075 4.51751e-21 0.035 7.05713e-05
-0.0075 0 0.035 6.8421e-05
0.02 0 0.03 0.000109408
0.03 0 0.02 0.000174588
-0.02 0 0.03 0.000104318
-0.03 9.03502e-21 0.02 0.000174823
0.03625 0 0.00116944 0.000211931
-0.03625 -2.1684e-19 0.00116944 0.000204112
0.00125 0 0.03625 6.07829e-05
-0.00125 0 0.03625 6.04181e-05
-0.035 9.03502e-21 0.0099455 0.000220339
0.035 4.51751e-21 0.0099455 0.000213815
0.01 4.51751e-21 0.035 7.09462e-05
-0.01 0 0.035 6.80768e-05
0.03625 0 0.00356873 0.000247729
-0.03625 1.0842e-19 0.00356873 0.000249561
0.03375 -1.0842e-19 0.0137433 0.00020157
-0.03375 -1.0842e-19 0.0137433 0.000206668
0.03125 1.0842e-19 0.01875 0.000181027
0.01875 1.0842e-19 0.03125 9.98156e-05
-0.00375 0 0.03625 6.00576e-05
-0.01875 0 0.03125 9.46869e-05
0.01375 0 0.03375 8.03591e-05
-0.01375 -1.0842e-19 0.03375 7.64803e-05
0.00375 -1.0842e-19 0.03625 6.1152e-05
-0.03125 0 0.01875 0.000182357
-0.03625 2.1684e-19 0.00608215 0.00023421
0.03625 0 0.00608215 0.000228313
-0.00625 0 0.03625 5.9701e-05
0.00625 0 0.03625 6.15259e-05
0.0325 4.51751e-21 0.0175 0.000186583
-0.0325 4.51751e-21 0.0175 0.000188947
0.0175 0 0.0325 9.02827e-05
-0.0175 4.51751e-21 0.0325 8.54155e-05
-0.02625 0 0.02625 0.000132721
0.02625 0 0.02625 0.000137268
0.035 9.03502e-21 0.0124872 0.000205641
-0.035 1.35525e-20 0.0124872 0.000211467
0.0125 4.51751e-21 0.035 7.13267e-05
0.025 0 0.0275 0.00012831
0.0275 0 0.025 0.00014546
-0.0125 0 0.035 6.77361e-05
-0.025 0 0.0275 0.000123196
-0.0275 0 0.025 0.00014168
-0.03625 1.0842e-19 0.00865601 0.000224683
0.03625 -2.1684e-19 0.008656 0.000217759
-0.02375 1.0842e-19 0.02875 0.00011371
-0.02875 1.0842e-19 0.02375 0.000150684
-0.00875 1.0842e-19 0.03625 5.93482e-05
0.02375 0 0.02875 0.000119314
0.02875 -1.0842e-19 0.02375 0.000153609
0.00875 0 0.03625 6.19046e-05
0.037348 0 0 0.000212072
-0.037348 0 0 0.000204016
0.037348 0 0.000142217 0.000212072
-0.037348 0 0.000142193 0.000204016
0.03375 1.0842e-19 0.0162494 0.000192101
-0.03375 0 0.0162494 0.000195579
-0.01625 0 0.03375 7.61515e-05
0.01625 -1.0842e-19 0.03375 8.07433e-05
-0.03 4.51751e-21 0.0225 0.000158993
0.0375 2.71051e-20 0 0.000212091
-0.0375 0 0 0.000204002
0.0225 0 0.03 0.000109771
0.03 0 0.0225 0.000160931
-0.0225 0 0.03 0.000104034
-9.82475e-15 0 0.0375 5.22303e-05
-0.0375 1.35525e-20 0.00234132 0.000226634
0.0375 9.03502e-21 0.00234132 0.00022976