# omega  POINT_DATA 34923
# x  y  z  omega
4.08021e-10 0 0 80.2057
-0.000152009 0 0 80.2042
0.000152011 0 0 80.2073
-0.000152008 0 0.000142211 80.2042
0.00015201 0 0.000142211 80.2073
-0.00125 0 0.00116944 80.1935
0.00125001 0 0.00116943 80.218
3.54797e-09 4.51751e-21 0.00234132 55.2975
-0.00234799 0 0 80.183
0.00234801 0 0 80.2287
-0.00234799 0 0.00014221 80.183
0.00234801 0 0.000142211 80.2287
-0.0025 2.71051e-20 0 80.1814
0.00250002 0 0 80.2302
-0.00265201 0 0 80.18
0.00265203 2.71051e-20 0 80.2318
-0.00265201 -2.71051e-20 0.000142211 80.18
0.00265203 0 0.000142211 80.2318
-0.0025 0 0.00234132 55.2657
0.00250001 9.03502e-21 0.00234132 55.33
-0.00125 0 0.00356872 30.0132
0.00125 1.0842e-19 0.00356872 30.0534
-0.00374999 -1.0842e-19 0.00116944 80.1694
0.00375001 -1.0842e-19 0.00116944 80.2425
2.37366e-09 -9.03502e-21 0.00480076 23.1241
-0.00484797 0 0 80.1591
0.00484801 0 0 80.2534
-0.00484797 -2.71051e-20 0.000142211 80.1591
0.00484801 0 0.000142212 80.2534
-0.00499998 2.71051e-20 0 80.1575
0.00500002 2.71051e-20 0 80.2549
-0.00515199 0 0 80.1561
0.00515203 0 0 80.2565
-0.00515199 0 0.00014221 80.1561
0.00515203 0 0.000142212 80.2565
-0.00375 1.0842e-19 0.00356873 29.9743
0.00375 0 0.00356872 30.0947
-0.0025 0 0.00480076 23.096
0.0025 -9.03502e-21 0.00480076 23.1532
-0.00499999 -4.51751e-21 0.00234132 55.2346
0.00500001 1.35525e-20 0.00234132 55.3633
-0.00125 1.0842e-19 0.00608215 16.1173
0.00125 0 0.00608215 16.1342
-0.00624999 0 0.00116944 80.1458
0.00625001 0 0.00116944 80.2674
-0.005 4.51751e-21 0.00480076 23.0688
0.005 0 0.00480076 23.1832
0.00375 1.0842e-19 0.00608215 16.1518
-0.00375 0 0.00608215 16.1011
-0.00624999 -2.1684e-19 0.00356872 29.9364
0.00625 0 0.00356873 30.1372
-0.00734797 -2.71051e-20 0 80.1355
0.00734801 0 0 80.2784
-0.00734797 0 0.000142211 80.1355
0.00734801 0 0.0001422 80.2784
1.06232e-09 -4.51751e-21 0.00736599 13.5215
-0.00749998 0 0 80.134
0.00750001 2.71051e-20 0 80.2799
-0.00765199 0 0 80.1326
0.00765201 0 0 80.2815
-0.00765199 2.71051e-20 0.000142211 80.1326
0.00765201 0 0.0001422 80.2815
-0.0025 0 0.00736599 13.5099
0.0025 -4.51751e-21 0.00736599 13.5337
-0.00749999 0 0.00234132 55.2042
0.0075 0 0.00234132 55.3973
-0.00625 -1.0842e-19 0.00608215 16.0856
0.00625 1.0842e-19 0.00608215 16.17
-0.00125 1.0842e-19 0.008656 10.9096
0.00125 -1.0842e-19 0.00865601 10.9166
-0.00874999 -1.0842e-19 0.00116944 80.1224
0.00875 0 0.00116944 80.2925
0.005 -4.51751e-21 0.00736599 13.5465
-0.005 0 0.00736599 13.4989
-0.0075 4.51751e-21 0.00480076 23.0424
0.0075 -4.51751e-21 0.00480076 23.2142
-0.00375 0 0.008656 10.9032
0.00375 0 0.00865601 10.924
-0.00875 0 0.00356872 29.8996
0.00875 0 0.00356873 30.181
0.00984798 0 0 80.3038
-0.00984799 0 0 80.1122
0.00984798 0 0.000142211 80.3038
-0.00984799 0 0.000142213 80.1122
3.33589e-10 0 0.0099455 9.66307
0.00999999 0 0 80.3053
-0.01 2.71051e-20 0 80.1107
0.010152 0 0 80.307
-0.010152 0 0 80.1093
0.010152 0 0.000142211 80.307
-0.010152 0 0.000142213 80.1093
-0.0025 0 0.0099455 9.65893
0.0025 0 0.0099455 9.66765
-0.01 1.35525e-20 0.00234132 55.1744
0.01 -4.51751e-21 0.00234132 55.4322
0.0075 -4.51751e-21 0.00736599 13.56
-0.0075 0 0.00736599 13.4884
0.00875 1.0842e-19 0.00608215 16.1891
-0.00875 2.1684e-19 0.00608215 16.0706
0.00625 0 0.00865601 10.9319
-0.00625 0 0.00865601 10.8972
-0.01 -9.03502e-21 0.00480076 23.0169
0.01 -4.51751e-21 0.00480076 23.2462
0.005 0 0.0099455 9.67269
-0.005 0 0.0099455 9.65523
-0.00125 1.0842e-19 0.011217 8.41798
0.00125 1.0842e-19 0.011217 8.41978
0.01125 -1.0842e-19 0.00116943 80.3182
-0.01125 0 0.00116944 80.0992
0.01125 1.0842e-19 0.00356872 30.2261
-0.01125 1.0842e-19 0.00356872 29.8637
0.00375 0 0.011217 8.42198
-0.00375 2.1684e-19 0.011217 8.41657
-0.00875 0 0.008656 10.8917
0.00875 -1.0842e-19 0.00865601 10.9404
-0.012348 -2.71051e-20 0 80.0892
0.012348 0 0 80.3294
-0.012348 0 0.000142215 80.0892
0.012348 -2.71051e-20 0.000142198 80.3294
0.01 -4.51751e-21 0.00736599 13.5741
-0.01 0 0.00736599 13.4784
0.0075 0 0.0099455 9.67821
-0.0075 0 0.0099455 9.65194
6.54477e-11 0 0.0124872 7.71203
0.0125 0 0 80.331
-0.0125 0 0 80.0877
0.012652 0 0 80.3327
-0.012652 2.71051e-20 0 80.0864
0.012652 -2.71051e-20 0.000142198 80.3327
-0.012652 2.71051e-20 0.000142215 80.0864
0.0125 4.51751e-21 0.00234132 55.4678
-0.0125 9.03502e-21 0.00234132 55.1453
-0.0025 4.51751e-21 0.0124872 7.71174
0.0025 4.51751e-21 0.0124872 7.71268
0.01125 0 0.00608215 16.2089
-0.01125 -1.0842e-19 0.00608215 16.0564
-0.00625 0 0.011217 8.41553
0.00625 0 0.011217 8.42459
0.0125 0 0.00480076 23.2793
-0.0125 -4.51751e-21 0.00480076 22.9921
-0.005 4.51751e-21 0.0124872 7.71179
0.005 4.51751e-21 0.0124872 7.7137
0.01375 0 0.00116944 80.3439
-0.01375 0 0.00116944 80.0764
-0.00125 0 0.0137433 7.00819
0.00125 0 0.0137433 7.00732
0.01 0 0.0099455 9.68423
-0.01 9.03502e-21 0.0099455 9.64908
-0.01125 0 0.008656 10.8867
0.01125 0 0.00865601 10.9495
0.01375 0 0.00356873 30.2726
-0.01375 -1.0842e-19 0.00356872 29.8289
0.00875 2.1684e-19 0.011217 8.42763
-0.00875 0 0.011217 8.4149
0.00375 -1.0842e-19 0.0137433 7.0068
-0.00375 -1.0842e-19 0.0137433 7.00935
0.0125 -4.51751e-21 0.00736599 13.5889
-0.0125 0 0.00736599 13.469
0.0075 4.51751e-21 0.0124872 7.7151
-0.0075 0 0.0124872 7.71218
-0.014848 -2.71051e-20 0 80.0665
0.014848 0 0 80.3553
-0.014848 -2.71051e-20 0.000142216 80.0665
0.014848 2.71051e-20 0.000142196 80.3553
6.19684e-12 -4.51751e-21 0.0149986 6.55296
0.015 0 0 80.3568
-0.015 0 0 80.065
-0.01375 -1.0842e-19 0.00608215 16.0425
0.01375 0 0.00608215 16.2296
0.00625 1.0842e-19 0.0137433 7.00659
-0.00625 0 0.0137433 7.01083
0.015152 0 0 80.3586
-0.015152 0 0 80.0637
0.015152 0 0.000142196 80.3586
-0.015152 0 0.000142217 80.0637
0.015 -4.51751e-21 0.00234132 55.5043
-0.015 -4.51751e-21 0.00234132 55.1168
-0.0025 4.51751e-21 0.0149986 6.55455
0.0025 0 0.0149986 6.55165
0.015 4.51751e-21 0.00480076 23.3135
-0.015 1.35525e-20 0.00480076 22.9681
0.005 4.51751e-21 0.0149986 6.55064
-0.005 4.51751e-21 0.0149986 6.55641
0.01125 -1.0842e-19 0.011217 8.4311
-0.01125 -1.0842e-19 0.011217 8.41462
0.0125 4.51751e-21 0.0099455 9.69076
-0.0125 1.35525e-20 0.0099455 9.64658
0.01 4.51751e-21 0.0124872 7.71687
-0.01 4.51751e-21 0.0124872 7.71291
-0.01375 0 0.00865601 10.882
0.01375 0 0.00865601 10.9592
-0.01625 0 0.00116944 80.0538
0.01625 -1.0842e-19 0.00116944 80.37
-0.00875 0 0.0137433 7.01259
0.00875 0 0.0137433 7.00676
-0.00125 -1.0842e-19 0.0162494 6.0997
0.00125 -1.0842e-19 0.0162494 6.09767
-0.01625 1.0842e-19 0.00356872 29.795
0.01625 0 0.00356873 30.3204
-0.00375 0 0.0162494 6.102
0.00375 0 0.0162494 6.09588
-0.015 -9.03502e-21 0.00736599 13.46
0.015 0 0.00736599 13.6045
0.0075 4.51751e-21 0.0149986 6.54994
-0.0075 0 0.0149986 6.55854
-0.017348 0 0 80.0441
0.017348 -2.71051e-20 0 80.3816
-0.017348 0 0.000142217 80.0441
0.017348 0 0.000142194 80.3816
0.01625 1.0842e-19 0.00608215 16.2511
-0.01625 1.0842e-19 0.00608215 16.0293
0.00625 0 0.0162494 6.09437
-0.00625 0 0.0162494 6.10452
5.01941e-14 -4.51751e-21 0.0175 5.77467
0.0175 0 0 80.3831
-0.0175 0 0 80.0426
0.017652 0 0 80.3849
-0.017652 0 0 80.0413
0.017652 0 0.000142194 80.3849
-0.017652 0 0.000142216 80.0413
-0.0175 -9.03502e-21 0.00234132 55.0889
0.0175 1.35525e-20 0.00234132 55.5416
0.0125 4.51751e-21 0.0124872 7.71903
-0.0125 9.03502e-21 0.0124872 7.71392
-0.0025 0 0.0175 5.77694
0.0025 -4.51751e-21 0.0175 5.77263
0.01375 -1.0842e-19 0.011217 8.43503
-0.01375 -1.0842e-19 0.011217 8.41457
-0.01125 1.0842e-19 0.0137433 7.01463
0.01125 0 0.0137433 7.00719
0.015 9.03502e-21 0.0099455 9.69781
-0.015 4.51751e-21 0.0099455 9.64444
0.01 4.51751e-21 0.0149986 6.54954
-0.01 0 0.0149986 6.56092
-0.0175 1.35525e-20 0.00480076 22.9448
0.0175 1.807e-20 0.00480076 23.3488
0.005 4.51751e-21 0.0175 5.77081
-0.005 0 0.0175 5.77943
0.01625 -1.0842e-19 0.008656 10.9694
-0.01625 -1.0842e-19 0.008656 10.8778
-0.00875 1.0842e-19 0.0162494 6.10728
0.00875 0 0.0162494 6.0931
0.01875 -1.0842e-19 0.00116944 80.3964
-0.01875 0 0.00116944 80.0316
0.00125 2.1684e-19 0.01875 5.44956
-0.00125 0 0.01875 5.45184
-0.0175 -9.03502e-21 0.00736599 13.4515
0.0175 0 0.00736599 13.6207
0.0075 4.51751e-21 0.0175 5.76924
-0.0075 0 0.0175 5.78213
0.01875 0 0.00356873 30.3697
-0.01875 0 0.00356872 29.762
0.00375 1.0842e-19 0.01875 5.44748
-0.00375 1.0842e-19 0.01875 5.45432
0.01375 1.0842e-19 0.0137433 7.00799
-0.01375 0 0.0137433 7.01694
-0.015 9.03502e-21 0.0124872 7.71521
0.015 9.03502e-21 0.0124872 7.72162
0.0125 0 0.0149986 6.54943
-0.0125 0 0.0149986 6.56356
-0.01875 1.0842e-19 0.00608215 16.0166
0.01875 1.0842e-19 0.00608215 16.2735
0.01625 -1.0842e-19 0.011217 8.43944
-0.01625 -1.0842e-19 0.011217 8.41489
0.01125 2.1684e-19 0.0162494 6.09216
-0.01125 1.0842e-19 0.0162494 6.11026
-0.00625 1.0842e-19 0.01875 5.45699
0.00625 -1.0842e-19 0.01875 5.44562
-0.019848 0 0 80.0219
0.019848 0 0 80.4081
-0.019848 0 0.000142216 80.0219
0.019848 0 0.000142193 80.4081
0.02 0 0 80.4097
-0.02 2.71051e-20 0 80.0205
-9.82524e-15 0 0.02 5.20108
-0.0175 0 0.0099455 9.64268
0.0175 9.03502e-21 0.0099455 9.70541
-0.02 4.51751e-21 0.00234132 55.0616
0.02 1.35525e-20 0.00234132 55.5799
0.020152 0 0 80.4115
-0.020152 0 0 80.0192
0.020152 0 0.000142194 80.4115
-0.020152 0 0.000142216 80.0192
0.01 0 0.0175 5.76792
-0.01 0 0.0175 5.78504
0.0025 4.51751e-21 0.02 5.19906
-0.0025 0 0.02 5.20328
-0.02 9.03502e-21 0.00480076 22.9223
0.02 1.35525e-20 0.00480076 23.3854
0.005 9.03502e-21 0.02 5.19723
-0.005 0 0.02 5.20565
-0.01875 1.0842e-19 0.008656 10.8739
0.01875 2.1684e-19 0.008656 10.9803
-0.00875 2.1684e-19 0.01875 5.45984
0.00875 1.0842e-19 0.01875 5.44396
0.015 0 0.0149986 6.54968
-0.015 0 0.0149986 6.56644
-0.02125 0 0.00116944 80.0095
0.02125 1.0842e-19 0.00116944 80.4232
0.01625 0 0.0137433 7.00921
-0.01625 0 0.0137433 7.01953
-0.01375 1.0842e-19 0.0162494 6.11347
0.01375 2.1684e-19 0.0162494 6.09145
0.00125 0 0.02125 4.95049
-0.00125 0 0.02125 4.95243
-0.02 -9.03502e-21 0.00736599 13.4435
0.02 4.51751e-21 0.00736599 13.6378
0.0075 4.51751e-21 0.02 5.19559
-0.0075 0 0.02 5.20819
-0.0175 4.51751e-21 0.0124872 7.71682
0.0175 9.03502e-21 0.0124872 7.72464
0.0125 0 0.0175 5.76685
-0.0125 0 0.0175 5.78814
-0.02125 0 0.00356872 29.7298
0.02125 -1.0842e-19 0.00356873 30.4205
-0.00375 1.0842e-19 0.02125 4.95453
0.00375 -1.0842e-19 0.02125 4.94871
0.01875 0 0.011217 8.44432
-0.01875 -1.0842e-19 0.011217 8.41558
-0.01125 1.0842e-19 0.01875 5.46286
0.01125 0 0.01875 5.44254
-0.02125 -1.0842e-19 0.00608215 16.0045
0.02125 0 0.00608215 16.2968
0.00625 0 0.02125 4.9471
-0.00625 0 0.02125 4.95678
-0.02 4.51751e-21 0.0099455 9.64127
0.02 4.51751e-21 0.0099455 9.7136
-0.022348 0 0 80.0001
0.022348 0 0 80.435
-0.022348 0 0.000142214 80.0001
0.022348 0 0.000142196 80.435
0.01 0 0.02 5.19415
-0.01 0 0.02 5.21089
-0.0225 0 0 79.9987
0.0225 0 0 80.4366
-9.82515e-15 0 0.0225 4.74825
-0.0225 9.03502e-21 0.00234132 55.0348
0.0225 4.51751e-21 0.00234132 55.619
0.0025 4.51751e-21 0.0225 4.74673
-0.0025 4.51751e-21 0.0225 4.74992
0.022652 0 0 80.4384
-0.022652 0 0 79.9974
0.022652 0 0.000142196 80.4384
-0.022652 2.71051e-20 0.000142214 79.9974
-0.02125 -2.1684e-19 0.008656 10.8705
0.02125 0 0.00865601 10.9919
-0.01625 2.1684e-19 0.0162494 6.11688
0.01625 2.1684e-19 0.0162494 6.09112
0.00875 1.0842e-19 0.02125 4.94567
-0.00875 2.1684e-19 0.02125 4.95917
-0.0225 -9.03502e-21 0.00480076 22.9004
0.0225 4.51751e-21 0.00480076 23.4231
0.0175 0 0.0149986 6.55029
-0.0175 0 0.0149986 6.56956
0.015 0 0.0175 5.76605
-0.015 0 0.0175 5.79144
0.005 9.03502e-21 0.0225 4.74536
-0.005 4.51751e-21 0.0225 4.75173
0.01875 1.0842e-19 0.0137433 7.01081
-0.01875 -1.0842e-19 0.0137433 7.02237
-0.01375 1.0842e-19 0.01875 5.46607
0.01375 0 0.01875 5.44134
-0.02 0 0.0124872 7.71873
0.02 4.51751e-21 0.0124872 7.72811
0.0125 0 0.02 5.19291
-0.0125 0 0.02 5.21375
-0.0225 -4.51751e-21 0.00736599 13.4359
0.0225 4.51751e-21 0.00736599 13.6556
-0.0075 0 0.0225 4.75367
0.0075 9.03502e-21 0.0225 4.74415
-0.02375 0 0.00116944 79.9879
0.02375 0 0.00116944 80.4502
0.00125 1.0842e-19 0.02375 4.54441
-0.00125 1.0842e-19 0.02375 4.54567
-0.02375 0 0.00356872 29.6985
0.02375 -2.1684e-19 0.00356872 30.4728
0.02125 2.1684e-19 0.011217 8.44972
-0.02125 -1.0842e-19 0.011217 8.41655
0.01125 0 0.02125 4.94441
-0.01125 1.0842e-19 0.02125 4.9617
0.00375 0 0.02375 4.5433
-0.00375 -1.0842e-19 0.02375 4.54705
-0.02375 -2.1684e-19 0.00608215 15.9928
0.02375 0 0.00608215 16.3211
-0.00625 0 0.02375 4.54855
0.00625 -1.0842e-19 0.02375 4.54232
-0.0225 4.51751e-21 0.0099455 9.64022
0.0225 4.51751e-21 0.0099455 9.72237
0.01 4.51751e-21 0.0225 4.74311
-0.01 0 0.0225 4.75574
0.0175 0 0.0175 5.76555
-0.0175 0 0.0175 5.79492
-0.01875 2.1684e-19 0.0162494 6.1205
0.01875 -1.0842e-19 0.0162494 6.09108
0.01625 -1.0842e-19 0.01875 5.4404
-0.01625 0 0.01875 5.46943
-0.024848 2.71051e-20 0 79.9785
0.024848 0 0 80.4622
-0.024848 0 0.000142213 79.9785
0.024848 -2.71051e-20 0.00014221 80.4622
0.02 0 0.0149986 6.55124
-0.02 0 0.0149986 6.5729
-0.025 2.71051e-20 0 79.9771
0.015 0 0.02 5.19189
-9.82486e-15 0 0.025 4.37294
-0.015 4.51751e-21 0.02 5.21676
0.025 2.71051e-20 0 80.4638
-0.025 -1.35525e-20 0.00234132 55.0086
0.025 0 0.00234132 55.6591
0.0025 0 0.025 4.37216
-0.0025 4.51751e-21 0.025 4.37386
0.025152 0 0 80.4656
-0.025152 0 0 79.9759
0.025152 0 0.00014221 80.4656
-0.025152 0 0.000142213 79.9759
-0.02375 1.0842e-19 0.008656 10.8675
0.02375 0 0.008656 11.0041
-0.02125 2.1684e-19 0.0137433 7.02547
0.02125 0 0.0137433 7.01282
-0.01375 2.1684e-19 0.02125 4.96437
-0.00875 0 0.02375 4.55018
0.01375 0 0.02125 4.94335
0.00875 -1.0842e-19 0.02375 4.5415
-0.025 -4.51751e-21 0.00480076 22.8791
0.025 0 0.00480076 23.4621
0.005 4.51751e-21 0.025 4.3715
-0.005 4.51751e-21 0.025 4.37489
0.0225 4.51751e-21 0.0124872 7.73205
-0.0225 0 0.0124872 7.72091
-0.0125 0 0.0225 4.75794
0.0125 0 0.0225 4.74223
-0.025 4.51751e-21 0.00736599 13.4287
0.025 0 0.00736599 13.6743
0.0075 9.03502e-21 0.025 4.37098
-0.0075 0 0.025 4.37604
0.02375 -1.0842e-19 0.011217 8.45564
-0.02375 0 0.011217 8.41785
-0.02625 1.0842e-19 0.00116944 79.9665
0.02625 -1.0842e-19 0.00116944 80.4776
0.00125 1.0842e-19 0.02625 4.20063
-0.01125 2.1684e-19 0.02375 4.55192
0.01125 -1.0842e-19 0.02375 4.54083
-0.00125 1.0842e-19 0.02625 4.20107
-0.02625 2.1684e-19 0.00356872 29.668
0.02625 0 0.00356872 30.5267
0.01875 0 0.01875 5.43969
0.00375 -1.0842e-19 0.02625 4.20028
-0.00375 0 0.02625 4.20164
-0.01875 0 0.01875 5.47297
-0.02 0 0.0175 5.79859
0.02 0 0.0175 5.76532
0.0175 0 0.02 5.1911
-0.0175 4.51751e-21 0.02 5.21991
0.02125 0 0.0162494 6.09132
-0.02125 1.0842e-19 0.0162494 6.12432
0.01625 0 0.02125 4.94248
-0.01625 0 0.02125 4.96717
-0.025 4.51751e-21 0.0099455 9.63951
0.025 4.51751e-21 0.0099455 9.73177
0.01 4.51751e-21 0.025 4.37061
-0.01 0 0.025 4.37729
-0.02625 -1.0842e-19 0.00608215 15.9816
0.02625 0 0.00608215 16.3463
-0.00625 1.0842e-19 0.02625 4.20231
0.00625 -1.0842e-19 0.02625 4.2001
0.0225 0 0.0149986 6.55254
-0.0225 0 0.0149986 6.57648
0.015 0 0.0225 4.74153
-0.015 4.51751e-21 0.0225 4.76026
-0.027348 0 0 79.9573
0.027348 0 0 80.4897
-0.027348 -2.71051e-20 0.000142212 79.9573
0.027348 0 0.000142212 80.4897
0.02375 -1.0842e-19 0.0137433 7.01524
-0.02375 -1.0842e-19 0.0137433 7.02882
0.01375 -1.0842e-19 0.02375 4.54031
-0.01375 1.0842e-19 0.02375 4.55377
-9.82495e-15 0 0.0275 4.05025
0.0275 2.71051e-20 0 80.4913
-0.0275 2.71051e-20 0 79.9559
-0.0275 9.03502e-21 0.00234132 54.983
0.0275 1.35525e-20 0.00234132 55.7001
0.0025 0 0.0275 4.05023
-0.0025 0 0.0275 4.05039
0.02625 0 0.00865601 11.0171
-0.02625 -1.0842e-19 0.00865601 10.8648
-0.027652 0 0 79.9547
0.027652 0 0 80.4932
-0.027652 0 0.000142212 79.9547
0.027652 0 0.000142212 80.4932
0.00875 0 0.02625 4.20001
-0.00875 0 0.02625 4.2031
-0.0275 0 0.00480076 22.8585
0.0275 -4.51751e-21 0.00480076 23.5025
0.025 4.51751e-21 0.0124872 7.73646
-0.025 0 0.0124872 7.72336
0.005 0 0.0275 4.05033
-0.005 0 0.0275 4.05063
0.0125 0 0.025 4.37037
-0.0125 0 0.025 4.37866
-0.02 0 0.02 5.22321
0.02 0 0.02 5.19054
0.01875 1.0842e-19 0.02125 4.94182
-0.02125 0 0.01875 5.47665
0.02125 2.1684e-19 0.01875 5.43927
-0.01875 0 0.02125 4.97009
-0.0275 4.51751e-21 0.00736599 13.422
0.0275 -4.51751e-21 0.00736599 13.6939
0.0225 0 0.0175 5.76537
-0.0225 0 0.0175 5.80243
0.0075 0 0.0275 4.05057
-0.0075 0 0.0275 4.05098
0.0175 0 0.0225 4.74102
-0.0175 4.51751e-21 0.0225 4.76269
0.02625 1.0842e-19 0.011217 8.46211
-0.02625 0 0.011217 8.41944
0.01125 0 0.02625 4.20008
-0.01125 -1.0842e-19 0.02625 4.20398
-0.02875 0 0.00116944 79.9455
0.02875 0 0.00116944 80.5054
-0.02375 1.0842e-19 0.0162494 6.12835
0.02375 0 0.0162494 6.09187
0.00125 0 0.02875 3.8998
-0.01625 -1.0842e-19 0.02375 4.55572
0.01625 0 0.02375 4.53997
-0.00125 0 0.02875 3.89951
-0.02875 -2.1684e-19 0.00356873 29.6382
0.02875 -1.0842e-19 0.00356872 30.5823
0.00375 0 0.02875 3.90022
-0.00375 2.1684e-19 0.02875 3.89933
0.025 0 0.0149986 6.55423
-0.025 0 0.0149986 6.58027
0.015 0 0.025 4.37029
-0.015 0 0.025 4.38012
0.0275 4.51751e-21 0.0099455 9.74181
-0.0275 4.51751e-21 0.0099455 9.63912
0.01 0 0.0275 4.05092
-0.01 0 0.0275 4.05142
-0.02875 1.0842e-19 0.00608215 15.9708
0.02875 2.1684e-19 0.00608215 16.3726
0.00625 1.0842e-19 0.02875 3.90074
-0.00625 0 0.02875 3.89925
-0.02625 2.1684e-19 0.0137433 7.03241
0.02625 -1.0842e-19 0.0137433 7.01809
0.01375 0 0.02625 4.20027
-0.01375 0 0.02625 4.20496
0.029848 -2.71051e-20 0 80.5176
-0.029848 2.71051e-20 0 79.9364
0.029848 -2.71051e-20 0.000142214 80.5176
-0.029848 0 0.00014221 79.9364
-0.03 0 0 79.9351
-9.82515e-15 0 0.03 3.76632
0.03 0 0 80.5192
-0.02875 0 0.00865601 10.8624
0.02875 0 0.00865601 11.0309
0.00875 1.0842e-19 0.02875 3.90141
-0.00875 -1.0842e-19 0.02875 3.89925
0.02125 0 0.02125 4.94138
-0.02125 0 0.02125 4.97313
-0.03 -4.51751e-21 0.00234132 54.9579
0.03 -1.35525e-20 0.00234132 55.7421
0.0025 0 0.03 3.76675
-0.02 0 0.0225 4.76523
0.0225 0 0.02 5.19023
0.02 0 0.0225 4.74071
-0.0225 0 0.02 5.22664
-0.0025 0 0.03 3.766
-0.030152 0 0 79.9338
0.030152 0 0 80.5211
-0.030152 0 0.000142209 79.9338
0.030152 0 0.000142214 80.5211
0.0275 4.51751e-21 0.0124872 7.74137
-0.0275 0 0.0124872 7.72609
0.0125 0 0.0275 4.05139
-0.0125 0 0.0275 4.05196
-0.01875 2.1684e-19 0.02375 4.55778
0.01875 0 0.02375 4.5398
-0.02375 1.0842e-19 0.01875 5.48049
0.02375 0 0.01875 5.43911
-0.03 4.51751e-21 0.00480076 22.8385
0.03 -4.51751e-21 0.00480076 23.5442
0.005 0 0.03 3.76729
-0.005 4.51751e-21 0.03 3.76579
0.025 0 0.0175 5.76573
-0.025 0 0.0175 5.80644
0.0175 0 0.025 4.37036
-0.0175 0 0.025 4.38168
-0.02875 1.0842e-19 0.011217 8.42132
0.02875 -1.0842e-19 0.011217 8.46914
0.02625 1.0842e-19 0.0162494 6.09279
-0.02625 0 0.0162494 6.13256
0.01125 1.0842e-19 0.02875 3.90217
-0.01125 0 0.02875 3.89935
0.01625 0 0.02625 4.20059
-0.01625 0 0.02625 4.20603
-0.03 4.51751e-21 0.00736599 13.4156
0.03 -4.51751e-21 0.00736599 13.7144
0.0075 0 0.03 3.76795
-0.0075 4.51751e-21 0.03 3.76567
0.03125 0 0.00116944 80.5334
-0.03125 1.0842e-19 0.00116944 79.9248
0.00125 -1.0842e-19 0.03125 3.6332
-0.00125 -1.0842e-19 0.03125 3.63275
0.0275 0 0.0149986 6.55632
-0.0275 0 0.0149986 6.58428
0.015 0 0.0275 4.05199
-0.015 0 0.0275 4.05259
0.03125 0 0.00356873 30.6394
-0.03125 1.0842e-19 0.00356873 29.6092
0.00375 -1.0842e-19 0.03125 3.63376
-0.00375 -2.1684e-19 0.03125 3.6324
-0.03 0 0.0099455 9.63905
0.03 9.03502e-21 0.0099455 9.75252
0.01 4.51751e-21 0.03 3.76874
-0.01 0 0.03 3.76564
-0.0225 0 0.0225 4.76789
0.0225 0 0.0225 4.74059
-0.03125 -1.0842e-19 0.00608215 15.9605
0.03125 1.0842e-19 0.00608215 16.4
0.02875 0 0.0137433 7.02138
-0.02875 0 0.0137433 7.03623
0.00625 0 0.03125 3.63444
0.01375 2.1684e-19 0.02875 3.90305
-0.00625 -1.0842e-19 0.03125 3.63216
-0.02125 0 0.02375 4.55994
-0.02375 1.0842e-19 0.02125 4.97629
-0.01375 0 0.02875 3.89955
0.02375 0 0.02125 4.94116
0.02125 0 0.02375 4.53983
0.025 0 0.02 5.19018
-0.02 0 0.025 4.38334
0.02 0 0.025 4.37061
-0.025 0 0.02 5.2302
0.01875 0 0.02625 4.20109
-0.01875 1.0842e-19 0.02625 4.20719
-0.02625 1.0842e-19 0.01875 5.48447
0.02625 0 0.01875 5.43924
0.032348 0 0 80.5458
-0.032348 0 0 79.9159
0.032348 0 0.000142215 80.5458
-0.032348 2.71051e-20 0.000142207 79.9159
-0.03125 0 0.00865601 10.8604
0.03125 0 0.008656 11.0453
0.00875 2.1684e-19 0.03125 3.63523
-0.00875 1.0842e-19 0.03125 3.63202
0.03 1.35525e-20 0.0124872 7.74679
-0.03 4.51751e-21 0.0124872 7.72907
0.0125 4.51751e-21 0.03 3.76965
-0.0125 0 0.03 3.76571
0.0325 -2.71051e-20 0 80.5475
-0.0325 -2.71051e-20 0 79.9145
-9.82513e-15 0 0.0325 3.5161
-0.0325 -4.51751e-21 0.00234132 54.9333
0.0325 0 0.00234132 55.7852
0.0275 0 0.0175 5.76641
-0.0275 4.51751e-21 0.0175 5.81062
0.0025 4.51751e-21 0.0325 3.51666
0.0175 0 0.0275 4.05273
-0.0175 0 0.0275 4.05332
-0.0025 4.51751e-21 0.0325 3.51563
-0.032652 0 0 79.9133
0.032652 2.71051e-20 0 80.5494
-0.032652 2.71051e-20 0.000142207 79.9133
0.032652 2.71051e-20 0.000142215 80.5494
-0.0325 9.03502e-21 0.00480076 22.8191
0.0325 -4.51751e-21 0.00480076 23.5873
0.005 4.51751e-21 0.0325 3.51732
-0.005 9.03502e-21 0.0325 3.51526
0.02875 2.1684e-19 0.0162494 6.09408
-0.02875 0 0.0162494 6.13696
0.01625 0 0.02875 3.90405
-0.01625 0 0.02875 3.89983
0.03125 -1.0842e-19 0.011217 8.47677
-0.03125 2.1684e-19 0.011217 8.42348
-0.01125 1.0842e-19 0.03125 3.63195
0.01125 -1.0842e-19 0.03125 3.63615
-0.0325 9.03502e-21 0.00736599 13.4096
0.0325 -4.51751e-21 0.00736599 13.7358
0.0075 0 0.0325 3.51809
-0.0075 4.51751e-21 0.0325 3.51497
0.03 9.03502e-21 0.0149986 6.55882
-0.03 9.03502e-21 0.0149986 6.58849
0.015 0 0.03 3.77068
-0.015 4.51751e-21 0.03 3.76586
0.02375 0 0.02375 4.54001
-0.02375 0 0.02375 4.56218
0.0225 0 0.025 4.37103
0.025 0 0.0225 4.74068
-0.025 0 0.0225 4.77064
-0.0225 0 0.025 4.38508
-0.03375 -2.1684e-19 0.00116943 79.9044
0.03375 1.0842e-19 0.00116944 80.5619
0.00125 0 0.03375 3.39951
0.02125 2.1684e-19 0.02625 4.20173
0.02625 -1.0842e-19 0.02125 4.94119
-0.02625 0 0.02125 4.97956
-0.02125 -1.0842e-19 0.02625 4.20843
-0.00125 2.1684e-19 0.03375 3.39894
-0.03375 1.0842e-19 0.00356873 29.581
0.03375 1.0842e-19 0.00356873 30.6983
0.00375 -1.0842e-19 0.03375 3.40017
-0.00375 -1.0842e-19 0.03375 3.39845
-0.0325 9.03502e-21 0.0099455 9.6393
0.0325 4.51751e-21 0.0099455 9.76392
0.02 0 0.0275 4.05361
0.01 4.51751e-21 0.0325 3.51896
0.0275 0 0.02 5.19036
-0.01 0 0.0325 3.51476
-0.02 0 0.0275 4.05412
-0.0275 4.51751e-21 0.02 5.23389
0.03125 -2.1684e-19 0.0137433 7.02515
-0.03125 -1.0842e-19 0.0137433 7.04029
-0.01375 1.0842e-19 0.03125 3.63198
0.01375 0 0.03125 3.63721
-0.03375 0 0.00608215 15.9506
0.03375 1.0842e-19 0.00608215 16.4285
0.00625 2.1684e-19 0.03375 3.40092
0.01875 1.0842e-19 0.02875 3.90518
-0.00625 2.1684e-19 0.03375 3.39803
-0.01875 0 0.02875 3.90021
0.02875 0 0.01875 5.4396
-0.02875 -1.0842e-19 0.01875 5.4886
-0.03 9.03502e-21 0.0175 5.81496
0.03 4.51751e-21 0.0175 5.7674
0.0175 0 0.03 3.77185
-0.0175 4.51751e-21 0.03 3.7661
0.0325 1.807e-20 0.0124872 7.75276
-0.0325 1.35525e-20 0.0124872 7.73231
0.0125 4.51751e-21 0.0325 3.51996
-0.0125 0 0.0325 3.51463
-0.03375 -1.0842e-19 0.00865601 10.8588
0.03375 -1.0842e-19 0.008656 11.0606
0.034848 -2.71051e-20 0 80.5744
-0.034848 0 0 79.8956
0.034848 -2.71051e-20 0.000142217 80.5744
-0.034848 -2.71051e-20 0.000142206 79.8956
0.00875 1.0842e-19 0.03375 3.40175
-0.00875 2.1684e-19 0.03375 3.39768
0.035 2.71051e-20 0 80.5761
-0.035 0 0 79.8943
-9.825e-15 0 0.035 3.28608
-0.035 -4.51751e-21 0.00234132 54.9092
0.035 4.51751e-21 0.00234132 55.8293
0.0025 9.03502e-21 0.035 3.28718
-0.0025 4.51751e-21 0.035 3.28505
-0.035152 0 0 79.8931
0.035152 0 0 80.5781
-0.035152 -2.71051e-20 0.000142206 79.8931
0.035152 0 0.000142217 80.5781
0.03125 -1.0842e-19 0.0162494 6.09574
-0.03125 -1.0842e-19 0.0162494 6.14153
0.01625 0 0.03125 3.63841
-0.01625 -1.0842e-19 0.03125 3.63208
-0.035 0 0.00480076 22.8002
0.035 9.03502e-21 0.00480076 23.6318
0.005 9.03502e-21 0.035 3.28835
0.025 0 0.025 4.37161
-0.005 4.51751e-21 0.035 3.28408
-0.025 0 0.025 4.3869
0.02375 0 0.02625 4.20255
-0.02625 2.1684e-19 0.02375 4.56452
-0.02375 1.0842e-19 0.02625 4.20975
0.02625 0 0.02375 4.54037
0.0225 0 0.0275 4.05464
0.0275 0 0.0225 4.74098
-0.0275 0 0.0225 4.77349
-0.0225 0 0.0275 4.05501
-0.03375 -1.0842e-19 0.011217 8.42593
0.03375 -1.0842e-19 0.011217 8.48501
0.01125 0 0.03375 3.4027
-0.01125 0 0.03375 3.3974
-0.02875 1.0842e-19 0.02125 4.98294
-0.02125 0 0.02875 3.90066
0.02875 0 0.02125 4.94141
0.02125 0 0.02875 3.90643
-0.035 4.51751e-21 0.00736599 13.4041
0.035 0 0.00736599 13.7582
0.0325 1.35525e-20 0.0149986 6.56174
-0.0325 1.35525e-20 0.0149986 6.5929
0.015 0 0.0325 3.52109
-0.015 4.51751e-21 0.0325 3.51458
0.0075 4.51751e-21 0.035 3.2896
-0.0075 0 0.035 3.28316
0.02 0 0.03 3.77315
0.03 0 0.02 5.19078
-0.02 0 0.03 3.76643
-0.03 9.03502e-21 0.02 5.2377
0.03625 0 0.00116944 80.5907
-0.03625 -2.1684e-19 0.00116944 79.8843
0.00125 0 0.03625 3.17372
-0.00125 0 0.03625 3.17216
-0.035 9.03502e-21 0.0099455 9.63985
0.035 4.51751e-21 0.0099455 9.77605
0.01 4.51751e-21 0.035 3.29092
-0.01 0 0.035 3.2823
0.03625 0 0.00356873 30.759
-0.03625 1.0842e-19 0.00356873 29.5533
0.03375 -1.0842e-19 0.0137433 7.02939
-0.03375 -1.0842e-19 0.0137433 7.04457
0.03125 1.0842e-19 0.01875 5.44025
0.01875 1.0842e-19 0.03125 3.63975
-0.00375 0 0.03625 3.17066
-0.01875 0 0.03125 3.63229
0.01375 0 0.03375 3.40377
-0.01375 -1.0842e-19 0.03375 3.39719
0.00375 -1.0842e-19 0.03625 3.17533
-0.03125 0 0.01875 5.49285
-0.03625 2.1684e-19 0.00608215 15.9412
0.03625 0 0.00608215 16.4582
-0.00625 0 0.03625 3.16919
0.00625 0 0.03625 3.17699
0.0325 4.51751e-21 0.0175 5.76873
-0.0325 4.51751e-21 0.0175 5.81945
0.0175 0 0.0325 3.52235
-0.0175 4.51751e-21 0.0325 3.51459
-0.02625 0 0.02625 4.21116
0.02625 0 0.02625 4.20353
0.035 9.03502e-21 0.0124872 7.75928
-0.035 1.35525e-20 0.0124872 7.73579
0.0125 4.51751e-21 0.035 3.29233
0.025 0 0.0275 4.05582
0.0275 0 0.025 4.37238
-0.0125 0 0.035 3.28149
-0.025 0 0.0275 4.05598
-0.0275 0 0.025 4.38881
-0.03625 1.0842e-19 0.00865601 10.8574
0.03625 -2.1684e-19 0.008656 11.0768
-0.02375 1.0842e-19 0.02875 3.90119
-0.02875 1.0842e-19 0.02375 4.56694
-0.00875 1.0842e-19 0.03625 3.16776
0.02375 0 0.02875 3.90783
0.02875 -1.0842e-19 0.02375 4.54095
0.00875 0 0.03625 3.17871
0.037348 0 0 80.6034
-0.037348 0 0 79.8756
0.037348 0 0.000142217 80.6034
-0.037348 0 0.000142193 79.8756
0.03375 1.0842e-19 0.0162494 6.09778
-0.03375 0 0.0162494 6.14628
-0.01625 0 0.03375 3.39704
0.01625 -1.0842e-19 0.03375 3.40496
-0.03 4.51751e-21 0.0225 4.77643
0.0375 2.71051e-20 0 80.6051
-0.0375 0 0 79.8743
0.0225 0 0.03 3.7746
0.03 0 0.0225 4.7415
-0.0225 0 0.03 3.76683
-9.82475e-15 0 0.0375 3.04334
-0.0375 1.35525e-20 0.00234132 54.8856
0.0375 9.03502e-21 0.00234132 55.8744
0.0025 9.03502e-21 0.0375 3.04598
-0.0025 0 0.0375 3.04073
-0.037652 0 0 79.8731
0.037652 0 0 80.6071
-0.037652 0 0.000142193 79.8731
0.037652 0 0.000142217 80.6071
-0.02125 2.1684e-19 0.03125 3.63256
-0.03125 -1.0842e-19 0.02125 4.98642
0.02125 1.0842e-19 0.03125 3.64124
0.03125 2.1684e-19 0.02125 4.94187
0.0375 9.03502e-21 0.00480076 23.6778
-0.0375 0 0.00480076 22.7818
0.005 9.03502e-21 0.0375 3.04867
-0.005 4.51751e-21 0.0375 3.03816
0.03625 0 0.011217 8.49389
-0.03625 -1.0842e-19 0.011217 8.42865
-0.01125 2.1684e-19 0.03625 3.16636
0.01125 0 0.03625 3.1805
0.035 4.51751e-21 0.0149986 6.56511
-0.035 1.35525e-20 0.0149986 6.59752
0.015 4.51751e-21 0.035 3.29384
-0.015 4.51751e-21 0.035 3.28072
-0.02 0 0.0325 3.51468
0.02 0 0.0325 3.52377
0.0325 0 0.02 5.1915
-0.0325 4.51751e-21 0.02 5.24163
-0.0375 0 0.00736599 13.3988
0.0375 -4.51751e-21 0.00736599 13.7816
-0.0075 4.51751e-21 0.0375 3.03561
0.0075 4.51751e-21 0.0375 3.05141
0.01875 2.1684e-19 0.03375 3.40629
-0.01875 0 0.03375 3.39696
-0.03375 0 0.01875 5.49725
0.03375 0 0.01875 5.44125
-0.03875 0 0.00116943 79.8645
0.03875 0 0.00116944 80.6198
0.03625 0 0.0137433 7.03413
-0.03625 -1.0842e-19 0.0137433 7.04906
0.01375 -1.0842e-19 0.03625 3.18235
-0.01375 0 0.03625 3.165
0.00125 0 0.0387501 2.91558
-0.00125 -2.1684e-19 0.0387501 2.91189
0.0375 4.51751e-21 0.0099455 9.78893
-0.0375 4.51751e-21 0.0099455 9.64069
-0.01 4.51751e-21 0.0375 3.03309
0.01 9.03502e-21 0.0375 3.05419
0.0275 0 0.0275 4.05716
-0.0275 0 0.0275 4.05702
-0.03875 -1.0842e-19 0.00356873 29.5263
0.03875 1.0842e-19 0.00356873 30.8214
-0.02875 1.0842e-19 0.02625 4.21263
0.02625 0 0.02875 3.90937
0.02875 0 0.02625 4.20468
-0.02625 0 0.02875 3.9018
0.00375 0 0.0387501 2.9193
-0.00375 1.0842e-19 0.0387501 2.90821
0.025 0 0.03 3.77619
0.03 0 0.025 4.37335
-0.025 0 0.03 3.76732
-0.03 0 0.025 4.3908
0.035 0 0.0175 5.77043
-0.035 4.51751e-21 0.0175 5.82411
0.0175 0 0.035 3.29545
-0.0175 9.03502e-21 0.035 3.28
-0.03875 1.0842e-19 0.00608215 15.9321
0.03875 0 0.00608215 16.4891
0.02375 0 0.03125 3.64289
0.03125 1.0842e-19 0.02375 4.54175
-0.02375 -1.0842e-19 0.03125 3.63292
-0.03125 -1.0842e-19 0.02375 4.56944
0.00625 0 0.0387501 2.92306
-0.00625 -1.0842e-19 0.0387501 2.90456
0.0375 0 0.0124872 7.76638
-0.0375 9.03502e-21 0.0124872 7.73952
0.0325 0 0.0225 4.74225
0.0225 0 0.0325 3.52533
-0.0225 0 0.0325 3.51483
-0.0325 4.51751e-21 0.0225 4.77947
0.0125 1.35525e-20 0.0375 3.05702
-0.0125 9.03502e-21 0.0375 3.0306
0.03875 1.0842e-19 0.008656 11.0937
-0.03875 0 0.00865601 10.8564
0.03625 -1.0842e-19 0.0162494 6.10022
-0.03625 -1.0842e-19 0.0162494 6.15121
0.01625 0 0.03625 3.18427
-0.01625 0 0.03625 3.16367
-0.00875 0 0.0387501 2.90093
0.00875 0 0.0387501 2.92685
0.039848 0 0 80.6328
-0.039848 2.71051e-20 0 79.856
0.039848 0 0.000142217 80.6328
-0.039848 2.71051e-20 0.000142205 79.856
0.02125 0 0.03375 3.40777
0.03375 0 0.02125 4.9426
-0.02125 0 0.03375 3.39692
-0.03375 0 0.02125 4.99
0.04 2.71051e-20 0 80.6345
-0.04 2.71051e-20 0 79.8547
-9.82503e-15 0 0.0400002 2.74767
0.04 4.51751e-21 0.00234132 55.9207
-0.04 1.807e-20 0.00234132 54.8625
0.0025 4.51751e-21 0.0400002 2.75291
-0.0025 4.51751e-21 0.0400002 2.74246
-0.040152 0 0 79.8536
0.040152 2.71051e-20 0 80.6365
-0.040152 0 0.000142204 79.8536
0.040152 -2.71051e-20 0.000142217 80.6365
0.04 9.03502e-21 0.00480076 23.7253
-0.04 -4.51751e-21 0.00480076 22.764
0.035 0 0.02 5.19251