# omega  POINT_DATA 31842
# x  y  z  omega
-5.16988e-26 0.000152009 4.07247e-10 80.2014
-1.0842e-19 -0.00109799 0.00116943 80.2375
0 0.001402 0.00116944 80.1652
-1.61559e-27 -0.00227346 0 80.2701
-4.1359e-25 0.000151997 0.00233887 55.3173
-1.61559e-27 -0.00234799 1.25136e-11 80.2722
1.48634e-25 -0.00234799 9.5131e-06 80.1708
-1.03398e-25 0.00265199 4.41393e-10 80.1278
0 -0.002348 0.00233887 55.3407
0 0.002652 0.00233887 55.2935
-1.0842e-19 -0.001098 0.00356872 30.022
1.0842e-19 -0.003598 0.00116943 80.3069
-1.0842e-19 0.001402 0.00356872 30.0477
0 0.003902 0.00116944 80.0903
0 0.000151998 0.00479858 23.1307
0 -0.00484801 1.53138e-09 80.3401
-2.06795e-25 -0.00484801 0.000928932 70.4202
0 -0.003598 0.00356872 29.9984
1.03398e-25 0.00515199 6.95565e-10 80.0515
-1.0842e-19 0.003902 0.00356872 30.0755
0 -0.002348 0.00479858 23.1101
4.1359e-25 -0.004848 0.00233887 55.3637
0 0.002652 0.00479858 23.1531
-4.1359e-25 0.005152 0.00233887 55.2693
-1.0842e-19 -0.001098 0.00608215 16.1182
-1.0842e-19 -0.006098 0.00116943 80.3733
2.1684e-19 0.001402 0.00608215 16.1354
0 0.006402 0.00116943 80.0125
0 -0.004848 0.00479858 23.091
0 0.005152 0.00479858 23.1771
0 -0.006098 0.00356872 29.9766
1.0842e-19 -0.003598 0.00608215 16.1022
0 0.003902 0.00608215 16.1538
0 0.006402 0.00356872 30.1056
0 -0.00734801 1.77292e-09 80.4053
-2.06795e-25 0.000152001 0.00736572 13.5227
0 -0.00734801 0.00102221 69.4707
0 0.00765203 1.40341e-08 79.9719
0 -0.007348 0.00233887 55.3862
0 -0.002348 0.00736572 13.5084
0 0.002652 0.00736572 13.538
0 0.00765201 0.00233888 55.2447
1.0842e-19 -0.006098 0.00608215 16.0874
1.0842e-19 -0.008598 0.00116944 80.4372
0 -0.001098 0.00865601 10.9076
-2.1684e-19 0.001402 0.008656 10.92
-4.1359e-25 -0.007348 0.00479858 23.0734
0 -0.004848 0.00736572 13.495
0 0.006402 0.00608215 16.1736
1.0842e-19 0.008902 0.00116944 79.9312
0 0.005152 0.00736572 13.5544
0 0.007652 0.00479858 23.203
-1.0842e-19 -0.008598 0.00356872 29.9566
0 -0.003598 0.008656 10.896
1.0842e-19 0.003902 0.008656 10.9333
-1.0842e-19 0.008902 0.00356872 30.1381
-2.06795e-25 -0.00984799 9.51438e-10 80.4681
-2.06795e-25 -0.00984799 0.000657032 73.4284
0 0.000152 0.00994629 9.66338
4.1359e-25 -0.009848 0.00233887 55.4084
0 0.010152 1.3998e-08 79.8891
5.16988e-26 -0.002348 0.00994629 9.65274
0 0.002652 0.00994629 9.6747
0 -0.007348 0.00736572 13.4826
-8.27181e-25 0.010152 0.00233888 55.2198
-1.0842e-19 -0.008598 0.00608215 16.0736
2.1684e-19 -0.006098 0.008656 10.8851
0 0.007652 0.00736572 13.5718
-1.0842e-19 0.006402 0.008656 10.9473
0 0.008902 0.00608215 16.1947
0 -0.009848 0.00479858 23.0572
0 -0.004848 0.00994629 9.64273
1.0842e-19 -0.011098 0.00116943 80.499
0 0.005152 0.00994629 9.68671
-4.1359e-25 0.010152 0.00479858 23.2309
0 -0.001098 0.011217 8.41469
1.0842e-19 0.001402 0.011217 8.42423
1.0842e-19 0.011402 0.00116943 79.8469
-1.0842e-19 -0.011098 0.00356872 29.9384
0 -0.003598 0.011217 8.40568
-1.0842e-19 0.003902 0.011217 8.43434
2.1684e-19 0.011402 0.00356872 30.1731
0 -0.008598 0.008656 10.8748
0 -0.009848 0.00736572 13.471
4.1359e-25 -0.012348 2.37611e-09 80.5286
-1.03398e-25 -0.007348 0.00994629 9.63333
-2.06795e-25 -0.012348 0.0012946 66.6362
-1.0842e-19 0.008902 0.008656 10.9622
1.2137e-19 0.000152 0.0124878 7.7124
0 0.010152 0.00736572 13.5905
0 0.007652 0.00994629 9.69943
4.1359e-25 -0.012348 0.00233887 55.4302
0 0.012652 1.29331e-08 79.8031
-1.0842e-19 -0.011098 0.00608215 16.0608
0 -0.002348 0.0124878 7.704
0 0.002652 0.0124878 7.72129
-1.0842e-19 -0.006098 0.011217 8.3972
0 0.012652 0.00233888 55.1944
0 0.006402 0.011217 8.44503
0 0.011402 0.00608215 16.2174
0 -0.012348 0.00479858 23.0423
-1.29247e-26 -0.004848 0.0124878 7.69606
1.29247e-26 0.005152 0.0124878 7.7307
4.1359e-25 0.012652 0.00479858 23.2608
0 -0.013598 0.00116943 80.5581
1.0842e-19 -0.001098 0.0137433 7.00436
-1.0842e-19 0.001402 0.0137433 7.01209
0 0.013902 0.00116943 79.7593
0 -0.009848 0.00994629 9.62449
0 -0.013598 0.00356872 29.9219
0 -0.011098 0.008656 10.8652
-1.0842e-19 -0.008598 0.011217 8.38924
1.0842e-19 -0.003598 0.0137433 6.99703
-5.16988e-26 0.010152 0.00994629 9.71293
1.0842e-19 0.003902 0.0137433 7.02027
-1.0842e-19 0.011402 0.008656 10.9781
1.0842e-19 0.008902 0.011217 8.45633
-1.0842e-19 0.013902 0.00356872 30.2106
-1.03398e-25 -0.012348 0.00736572 13.4602
0 -0.007348 0.0124878 7.68857
0 0.012652 0.00736572 13.6104
1.29247e-26 0.007652 0.0124878 7.74062
0 0.0146603 0 79.7313
8.27181e-25 -0.014848 5.25259e-09 80.5866
0 -0.013598 0.00608215 16.049
0 -0.014848 0.00198322 59.2736
0 0.000152 0.0149988 6.55336
0 -0.014848 0.00233887 55.4516
0 -0.006098 0.0137433 6.99008
0 0.015152 3.16639e-09 79.7137
1.0842e-19 0.006402 0.0137433 7.02893
0 0.013902 0.00608215 16.2417
0 -0.002348 0.0149988 6.54639
0 0.015152 0.00131654 65.8974
0 0.002652 0.0149988 6.56071
-4.1359e-25 0.015152 0.00233887 55.1687
0 -0.014848 0.00479858 23.0287
-8.07794e-28 -0.004848 0.0149988 6.53977
0 -0.011098 0.011217 8.38166
5.16988e-26 -0.012348 0.00994629 9.61616
0 0.005152 0.0149988 6.56847
0 0.015152 0.00479858 23.2929
1.29247e-26 -0.009848 0.0124878 7.68148
-1.0842e-19 0.011402 0.011217 8.46826
5.16988e-26 0.012652 0.00994629 9.72723
0 0.010152 0.0124878 7.75105
-1.0842e-19 -0.013598 0.00865601 10.8562
0 -0.016098 0.00116943 80.615
1.0842e-19 -0.008598 0.0137433 6.98351
1.0842e-19 -0.001098 0.0162494 6.0958
-1.0842e-19 0.001402 0.0162494 6.10238
0 0.008902 0.0137433 7.03796
-1.0842e-19 0.013902 0.008656 10.9949
0 0.016402 0.00116943 79.6681
2.1684e-19 -0.016098 0.00356872 29.9068
0 -0.014848 0.00736572 13.4502
0 -0.003598 0.0162494 6.08955
-8.07794e-28 -0.007348 0.0149988 6.53349
0 0.003902 0.0162494 6.10929
0 0.016402 0.00356872 30.251
8.07794e-28 0.007652 0.0149988 6.57663
0 0.015152 0.00736572 13.6316
-1.0842e-19 -0.016098 0.00608215 16.0381
0 -0.017348 7.0521e-09 80.6423
0 -0.006098 0.0162494 6.08361
0 0.006402 0.0162494 6.11658
1.9387e-26 -0.0173323 0.00233887 55.4725
-2.1684e-19 0.016402 0.00608215 16.2676
-2.8399e-28 0.000152 0.0174957 5.77527
-1.15782e-20 -0.017348 0.00233887 55.4726
-2.98884e-26 -0.017348 0.00236394 55.1418
0 -0.012348 0.0124878 7.67477
0 -0.013598 0.011217 8.37451
0 0.017652 4.74781e-09 79.6207
-1.91544e-20 -0.002348 0.0175 5.76921
1.0842e-19 -0.011098 0.0137433 6.97727
-2.11415e-28 0.002652 0.0174954 5.78164
0 0.017652 0.00193387 59.3813
1.29247e-26 0.012652 0.0124878 7.76206
0 0.017652 0.00233887 55.1426
0 0.011402 0.0137433 7.04745
0 0.013902 0.011217 8.48085
-2.58494e-26 -0.014848 0.00994629 9.60836
0 -0.009848 0.0149988 6.52753
0 -0.017348 0.00479858 23.0163
0 0.010152 0.0149988 6.58518
0 0.015152 0.00994629 9.74236
-3.47099e-29 -0.004848 0.0174955 5.76346
-8.99301e-29 0.005152 0.0174953 5.78833
2.1684e-19 -0.016098 0.008656 10.8479
0 0.017652 0.00479858 23.3273
0 -0.008598 0.0162494 6.07796
1.0842e-19 0.008902 0.0162494 6.12424
0 0.016402 0.008656 11.0127
1.0842e-19 -0.018598 0.00116943 80.6697
-1.0842e-19 -0.001098 0.01875 5.44814
0 0.001402 0.01875 5.45397
-5.16988e-26 -0.017348 0.00736572 13.4409
-2.1684e-19 -0.018598 0.00356873 29.8933
2.1684e-19 0.018902 0.00116943 79.5733
5.83757e-29 -0.007348 0.0174953 5.75798
-1.0842e-19 -0.003598 0.01875 5.44258
6.31089e-29 0.007652 0.0174955 5.79536
0 0.017652 0.00736572 13.6543
-1.0842e-19 0.003902 0.01875 5.46009
0 0.018902 0.00356872 30.2944
1.0842e-19 -0.013598 0.0137433 6.97136
0 -0.014848 0.0124878 7.66843
0 -0.012348 0.0149988 6.52187
-2.1684e-19 0.013902 0.0137433 7.05749
-2.1684e-19 -0.018598 0.00608215 16.0281
0 -0.016098 0.011217 8.36781
8.07794e-28 0.012652 0.0149988 6.59419
0 0.015152 0.0124878 7.77368
1.0842e-19 -0.011098 0.0162494 6.07258
0 -0.006098 0.01875 5.43728
0 0.006402 0.01875 5.46652
0 -0.019848 7.87922e-09 80.6959
0 0.011402 0.0162494 6.13227
2.1684e-19 0.018902 0.00608215 16.2953
1.0842e-19 0.016402 0.011217 8.49416
-3.77454e-20 -0.019848 0.00233887 55.4933
1.29247e-26 -0.017348 0.00994629 9.60107
-1.91544e-20 0.000152 0.02 5.20142
5.04871e-29 -0.009848 0.017495 5.75276
-1.91544e-20 -0.002348 0.02 5.19593
4.1359e-25 0.020152 3.12849e-09 79.524
-1.91544e-20 0.002652 0.02 5.20718
2.06795e-25 0.020152 0.00150726 63.7946
9.6241e-29 0.010152 0.0174956 5.80273
-2.58494e-26 0.017652 0.00994629 9.75842
2.06795e-25 0.020152 0.00233887 55.1161
2.58494e-26 -0.019848 0.00422501 30.581
2.58494e-26 -0.019848 0.00479858 23.0051
1.0842e-19 -0.018598 0.00865601 10.8401
8.08456e-20 -0.004848 0.02 5.19069
0 -0.008598 0.01875 5.43222
-4.1359e-25 0.0206376 0 79.5045
3.28979e-21 0.005152 0.02 5.21321
2.06795e-25 0.020152 0.00479858 23.3641
0 0.008902 0.01875 5.47327
-1.0842e-19 0.018902 0.00865601 11.0318
0 -0.014848 0.0149988 6.51649
0 -0.021098 0.00116943 80.7221
0 -0.016098 0.0137433 6.96575
0 -0.019848 0.00736572 13.4323
1.0842e-19 -0.013598 0.0162494 6.06746
0 -0.001098 0.02125 4.94908
0 0.001402 0.02125 4.95449
8.08456e-20 -0.007348 0.02 5.18568
-8.07794e-28 0.015152 0.0149988 6.60368
-9.43849e-20 -0.017348 0.0124878 7.66244
0 0.013902 0.0162494 6.14074
2.1684e-19 -0.021098 0.00356872 29.8813
0 0.016402 0.0137433 7.06805
-2.22459e-28 -0.012348 0.0174939 5.74941
-1.91544e-20 0.007652 0.02 5.21955
-1.91544e-20 -0.012348 0.0175 5.74752
-2.1684e-19 0.021402 0.00116943 79.4747
0 0.020152 0.00736572 13.6784
-1.0842e-19 -0.003598 0.02125 4.94392
-2.2877e-28 0.012652 0.0174953 5.8105
1.0842e-19 0.003902 0.02125 4.96015
0 0.017652 0.0124878 7.78594
0 0.021402 0.00356872 30.3408
1.0842e-19 -0.018598 0.011217 8.36149
-1.0842e-19 -0.011098 0.01875 5.42739
-1.0842e-19 0.011402 0.01875 5.48036
0 -0.021098 0.00608215 16.0189
0 0.018902 0.011217 8.50821
0 -0.006098 0.02125 4.93897
1.29247e-26 -0.0216506 0.00479858 22.9978
0 0.006402 0.02125 4.96608
0 -0.019848 0.00994629 9.59422
1.0842e-19 0.021402 0.00608215 16.3249
-1.91544e-20 -0.009848 0.02 5.18089
0 -0.022348 8.84091e-09 80.7473
1.58401e-19 0.010152 0.02 5.22621
-9.61887e-21 -0.022348 0.00233887 55.5135
-2.58494e-26 0.020152 0.00994629 9.77544
8.08456e-20 0.000152 0.0225 4.74858
-9.67102e-20 -0.002348 0.0225 4.7433
1.65436e-24 0.022652 1.29787e-08 79.4235
8.08456e-20 0.002652 0.0225 4.75409
0 0.022652 0.00233887 55.0893
1.0842e-19 -0.021098 0.008656 10.8328
1.17205e-19 -0.022348 0.00479858 22.995
1.0842e-19 -0.016098 0.0162494 6.06257
-1.0842e-19 -0.008598 0.02125 4.93424
0 -0.017348 0.0149988 6.51137
1.23062e-28 -0.014848 0.0174901 5.74581
1.57772e-30 -0.014848 0.0175 5.74276
-3.54881e-20 -0.004848 0.0225 4.73825
0 0.008902 0.02125 4.97231
8.08456e-20 0.005152 0.0225 4.75986
0 0.021402 0.008656 11.0519
1.0842e-19 0.016402 0.0162494 6.14965
-1.0842e-19 -0.018598 0.0137433 6.96043
-2.55591e-28 0.015152 0.0174946 5.8187
2.06795e-25 0.022652 0.00479858 23.4035
-1.0842e-19 -0.013598 0.01875 5.42276
0 0.017652 0.0149988 6.61364
-6.46235e-27 -0.022348 0.006317 17.3341
-1.0842e-19 0.013902 0.01875 5.4878
1.0842e-19 0.018902 0.0137433 7.07916
3.36502e-20 -0.019848 0.0124878 7.65677
-1.91544e-20 -0.012348 0.02 5.1763
0 -0.022348 0.00736572 13.4244
-1.0842e-19 -0.023598 0.00116943 80.7725
-1.91544e-20 0.012652 0.02 5.23323
-9.67102e-20 -0.007348 0.0225 4.7334
0 0.020152 0.0124878 7.79887
-1.91544e-20 0.007652 0.0225 4.7659
0 -0.001098 0.02375 4.54268
1.0842e-19 0.001402 0.02375 4.54805
0 0.022652 0.00736572 13.7041
-2.1684e-19 -0.023598 0.00356872 29.8705
0 -0.021098 0.011217 8.35552
0 0.023902 0.00116944 79.3722
0 -0.011098 0.02125 4.9297
1.0842e-19 -0.003598 0.02375 4.53752
0 0.003902 0.02375 4.55367
-1.0842e-19 0.011402 0.02125 4.97889
-1.0842e-19 0.021402 0.011217 8.52306
0 0.023902 0.00356872 30.3904
-1.0842e-19 -0.023598 0.00608215 16.0105
0 -0.022348 0.00994629 9.58781
1.0842e-19 -0.006098 0.02375 4.53257
-1.91544e-20 -0.009848 0.0225 4.72875
0 0.006402 0.02375 4.55953
-9.93965e-29 -0.017348 0.0174765 5.74547
-1.91544e-20 -0.017348 0.0175 5.7382
0 0.023902 0.00608215 16.3566
-1.91544e-20 0.010152 0.0225 4.77225
1.0842e-19 -0.018598 0.0162494 6.05791
-1.0842e-19 -0.016098 0.01875 5.41834
-5.16988e-26 0.022652 0.00994629 9.79348
-3.23117e-27 -0.0237055 0.00736572 13.4204
0 -0.024848 1.04193e-08 80.7968
7.88861e-30 0.017652 0.0174937 5.82894
-1.57772e-30 0.017652 0.0175 5.82697
-1.00974e-28 -0.019848 0.0149988 6.5065
-1.91544e-20 -0.014848 0.02 5.1719
-1.0842e-19 0.016402 0.01875 5.4956
0 0.018902 0.0162494 6.15887
-4.98612e-20 -0.024848 0.00233887 55.5334
-3.54881e-20 0.000152 0.025 4.37327
5.84013e-20 0.015152 0.02 5.24063
6.45119e-20 -0.002348 0.025 4.36799
0 0.020152 0.0149988 6.62407
0 -0.023598 0.008656 10.826
-9.67102e-20 0.002652 0.025 4.37878
0 0.025152 1.3801e-08 79.319
0 -0.021098 0.0137433 6.95538
0 -0.013598 0.02125 4.92534
0 -0.008598 0.02375 4.52781
0 0.025152 0.00233887 55.0621
5.32708e-20 -0.024848 0.00479858 22.9858
0 0.008902 0.02375 4.56567
0 0.013902 0.02125 4.98586
1.0842e-19 0.023902 0.00865601 11.0734
1.0842e-19 0.021402 0.0137433 7.09085
3.28979e-21 -0.004848 0.025 4.36291
5.84013e-20 0.005152 0.025 4.38453
0 -0.022348 0.0124878 7.65142
0 0.025152 0.00479858 23.4456
-1.91544e-20 -0.012348 0.0225 4.72428
-1.91544e-20 0.012652 0.0225 4.77896
0 0.022652 0.0124878 7.8125
-6.46235e-27 -0.024848 0.00736572 13.4171
8.08456e-20 -0.007348 0.025 4.35803
1.0842e-19 -0.026098 0.00116943 80.821
0 -0.023598 0.011217 8.34991
1.58401e-19 0.007652 0.025 4.39052
1.03398e-25 0.025152 0.00736572 13.7316
0 -0.011098 0.02375 4.52324
0 -0.001098 0.02625 4.19847
0 0.001402 0.02625 4.20388
0 -0.026098 0.00356872 29.8609
-1.0842e-19 0.011402 0.02375 4.57212
0 0.023902 0.011217 8.53878
0 -0.018598 0.01875 5.41409
-2.8399e-29 -0.019848 0.017446 5.75053
1.0842e-19 0.026402 0.00116944 79.2658
0 -0.019848 0.0175 5.73384
-1.91544e-20 -0.017348 0.02 5.16767
1.0842e-19 -0.003598 0.02625 4.19327
0 0.003902 0.02625 4.20951
3.23117e-27 -0.024848 0.00936687 10.4429
-1.0842e-19 0.018902 0.01875 5.50384
0 -0.021098 0.0162494 6.05345
1.0842e-19 0.026402 0.00356872 30.4434
0 -0.016098 0.02125 4.92115
-1.91544e-20 0.017652 0.02 5.24843
-3.81809e-28 0.020152 0.0174939 5.83783
0 0.020152 0.0175 5.83591
0 -0.024848 0.00994629 9.58179
-1.0842e-19 -0.026098 0.00608215 16.0028
0 0.016402 0.02125 4.99324
1.58401e-19 -0.009848 0.025 4.35334
0 0.021402 0.0162494 6.16857
-1.00974e-28 -0.022348 0.0149988 6.50185
1.0842e-19 -0.006098 0.02625 4.18828
1.58401e-19 -0.014848 0.0225 4.71998
8.08456e-20 0.010152 0.025 4.39678
-1.0842e-19 0.006402 0.02625 4.2154
5.16988e-26 0.025152 0.00994629 9.81262
-1.0842e-19 0.026402 0.00608215 16.3904
5.84013e-20 0.015152 0.0225 4.78605
8.07794e-28 0.022652 0.0149988 6.63505
-1.0842e-19 -0.023598 0.0137433 6.95058
-1.65436e-24 -0.027348 1.20177e-08 80.8443
0 -0.013598 0.02375 4.51883
-8.30845e-20 -0.027348 0.00233887 55.5529
0 -0.026098 0.008656 10.8197
3.28979e-21 0.000152 0.0275 4.05057
0 0.013902 0.02375 4.57897
1.0842e-19 0.023902 0.0137433 7.10316
3.28979e-21 -0.002348 0.0275 4.04541
0 -0.008598 0.02625 4.18347
8.08456e-20 0.002652 0.0275 4.05595
0 0.027652 1.24047e-08 79.2103
1.0842e-19 0.008902 0.02625 4.2215
0 -0.0258947 0.00994629 9.57944
0 0.027652 0.00233887 55.0345
2.4844e-20 -0.027348 0.00479858 22.9777
-1.0842e-19 0.026402 0.008656 11.0962
0 -0.024848 0.0124878 7.64634
-1.91544e-20 -0.012348 0.025 4.34882
-9.67102e-20 -0.004848 0.0275 4.04045
-1.91544e-20 0.005152 0.0275 4.06156
-1.91544e-20 0.012652 0.025 4.40336
2.06795e-25 0.027652 0.00479858 23.4905
-9.1014e-20 0.025152 0.0124878 7.8269
-1.91544e-20 -0.019848 0.02 5.16361
1.0842e-19 -0.021098 0.01875 5.41
0 -0.018598 0.02125 4.91711
1.19215e-19 -0.027348 0.00736572 13.4103
1.57772e-30 -0.022348 0.0174609 5.74173
-1.57772e-30 -0.022348 0.0175 5.72965
8.08456e-20 0.020152 0.02 5.25663
0 -0.026098 0.011217 8.34461
1.58401e-19 -0.017348 0.0225 4.71584
0 0.018902 0.02125 5.00106
-1.0842e-19 0.021402 0.01875 5.51244
-1.91544e-20 -0.007348 0.0275 4.03567
1.0842e-19 -0.011098 0.02625 4.17883
8.08456e-20 0.007652 0.0275 4.06739
-1.91544e-20 0.017652 0.0225 4.79353
0 0.027652 0.00736572 13.7608
-1.0842e-19 0.011402 0.02625 4.22785
1.19907e-28 0.022652 0.0174949 5.84553
0 -0.028598 0.00116944 80.8675
2.1684e-19 -0.023598 0.0162494 6.04919
-1.0842e-19 0.026402 0.011217 8.5554
0 -0.016098 0.02375 4.51458
-1.0842e-19 -0.001098 0.02875 3.89741
-1.0842e-19 0.001402 0.02875 3.90253
-1.0842e-19 -0.028598 0.00356873 29.8526
-1.0842e-19 0.016402 0.02375 4.58613
2.1684e-19 0.023902 0.0162494 6.1788
-1.0842e-19 0.028902 0.00116944 79.1549
-1.0842e-19 -0.003598 0.02875 3.8925
1.0842e-19 0.003902 0.02875 3.90788
-1.00974e-28 -0.024848 0.0149988 6.49742
8.08456e-20 -0.014848 0.025 4.34446
3.66139e-20 -0.027348 0.00994629 9.57617
0 0.028902 0.00356872 30.4999
-1.91544e-20 -0.009848 0.0275 4.03107
-1.91544e-20 0.015152 0.025 4.41026
1.0842e-19 -0.028598 0.00608215 15.9958
8.61573e-20 0.025152 0.0149988 6.6466
8.08456e-20 0.010152 0.0275 4.07345
0 0.027652 0.00994629 9.83291
-1.0842e-19 -0.006098 0.02875 3.88774
-1.0842e-19 0.006402 0.02875 3.91344
0 -0.026098 0.0137433 6.94601
1.0842e-19 0.028902 0.00608215 16.4264
0 -0.013598 0.02625 4.17437
0 0.013902 0.02625 4.23449
0 0.026402 0.0137433 7.11613
0 -0.029848 1.28729e-08 80.8899
0 -0.028598 0.008656 10.8138
0 -0.029848 0.00233887 55.572
0 -0.021098 0.02125 4.91322
-2.01948e-28 -0.027348 0.0122643 7.81171
8.08456e-20 -0.022348 0.02 5.15969
8.08456e-20 0.000152 0.03 3.76661
-1.91544e-20 -0.019848 0.0225 4.71187
0 -0.008598 0.02875 3.88318
0 -0.027348 0.0124878 7.64155
-1.91544e-20 -0.002348 0.03 3.76185
0 0.008902 0.02875 3.91922
8.08456e-20 0.002652 0.03 3.77158
0 -0.023598 0.01875 5.40607
-1.91544e-20 -0.012348 0.0275 4.02665
1.65436e-24 0.030152 9.37378e-09 79.0973
0 0.021402 0.02125 5.00919
-1.0842e-19 -0.018598 0.02375 4.51051
2.1684e-19 0.028902 0.008656 11.1204
8.08456e-20 0.020152 0.0225 4.80139
3.28979e-21 0.022652 0.02 5.26517
-2.06795e-25 -0.029848 0.00479858 22.9705
0 0.030152 0.00233887 55.0065
1.58401e-19 0.012652 0.0275 4.07978
-1.29247e-26 0.027652 0.0124878 7.84211
0 0.018902 0.02375 4.59368
0 -0.024848 0.0174699 5.73492
-1.0842e-19 0.023902 0.01875 5.52137
8.08456e-20 -0.004848 0.03 3.75728
8.08471e-20 -0.024848 0.0175 5.72564
-1.91544e-20 -0.017348 0.025 4.34027
8.08456e-20 0.005152 0.03 3.77676
0 0.030152 0.00479858 23.5384
-1.91544e-20 0.017652 0.025 4.41749
-3.20278e-28 0.025152 0.0174955 5.85532
-2.1684e-19 -0.028598 0.011217 8.33961
0 -0.026098 0.0162494 6.04511
-9.45415e-20 -0.029848 0.00736572 13.4042
1.0842e-19 -0.016098 0.02625 4.17006
0 -0.011098 0.02875 3.8788
8.08456e-20 -0.007348 0.03 3.75288
-2.01948e-28 -0.0282748 0.0124878 7.63986
-1.0842e-19 0.011402 0.02875 3.92525
1.0842e-19 0.016402 0.02625 4.24144
-1.91544e-20 0.007652 0.03 3.78215
0 0.026402 0.0162494 6.18953
-1.0842e-19 0.028902 0.011217 8.57299
0 0.030152 0.00736572 13.7919
1.0842e-19 -0.031098 0.00116944 80.9123
0 -0.027348 0.0149988 6.4932
-9.67102e-20 -0.014848 0.0275 4.02238
1.0842e-19 -0.001098 0.03125 3.63095
-1.0842e-19 0.001402 0.03125 3.63556
1.0842e-19 -0.031098 0.00356873 29.8453
-1.91544e-20 0.015152 0.0275 4.0864
1.0842e-19 0.031402 0.00116944 79.0397
0 -0.003598 0.03125 3.62655
0 0.027652 0.0149988 6.65877
-5.20735e-20 -0.029848 0.00994629 9.57091
-1.0842e-19 0.003902 0.03125 3.64036
-9.67102e-20 -0.009848 0.03 3.74864
0 0.031402 0.00356872 30.5601
5.84013e-20 0.010152 0.03 3.78776
0 -0.031098 0.00608215 15.9894
3.28979e-21 -0.022348 0.0225 4.70807
0 -0.028598 0.0137433 6.94166
0 0.030152 0.00994629 9.85443
1.0842e-19 -0.023598 0.02125 4.90947
0 -0.021098 0.02375 4.50664
0 -0.013598 0.02875 3.87457
-1.0842e-19 -0.006098 0.03125 3.62233
3.28979e-21 -0.024848 0.02 5.15593
-1.0842e-19 0.006402 0.03125 3.64536
8.08456e-20 -0.019848 0.025 4.33626
3.28979e-21 0.022652 0.0225 4.80964
0 0.013902 0.02875 3.93155
0 0.021402 0.02375 4.60165
1.0842e-19 0.023902 0.02125 5.0177
-1.0842e-19 0.031402 0.00608215 16.4649
0 0.028902 0.0137433 7.12981
3.28979e-21 0.020152 0.025 4.42509
8.08456e-20 0.025152 0.02 5.27412
0 -0.026098 0.01875 5.40229
1.0842e-19 -0.018598 0.02625 4.16592
1.0842e-19 -0.031098 0.008656 10.8083
-4.1359e-25 -0.0322903 0 80.9328
0 0.0319665 0.00479858 23.5754
0 0.018902 0.02625 4.24871
0 -0.032348 3.04303e-10 80.9338
5.16988e-26 -0.032348 0.000183352 78.9471
1.11022e-19 -0.029848 0.0124878 7.63701
-1.0842e-19 0.026402 0.01875 5.53077
0 -0.0324067 0 80.9348
1.0842e-19 -0.008598 0.03125 3.61825
5.03761e-20 -0.032348 0.00233887 55.5908
-3.54881e-20 -0.012348 0.03 3.74458
3.15544e-30 -0.027348 0.0174559 5.73539
8.0847e-20 -0.027348 0.0175 5.72179
1.0842e-19 0.008902 0.03125 3.65057
8.08456e-20 0.000152 0.0325 3.51636
8.08456e-20 -0.017348 0.0275 4.01827
-1.91544e-20 0.012652 0.03 3.79362
0 0.0324869 0.00233887 54.98
0 0.031402 0.008656 11.1461
-9.67102e-20 -0.002348 0.0325 3.51216
-9.67102e-20 0.002652 0.0325 3.52075
-6.46235e-27 0.030152 0.0124878 7.85819
8.27181e-25 0.032652 5.00742e-09 78.9799
8.08456e-20 0.017652 0.0275 4.09331
7.77475e-20 -0.032348 0.00479858 22.9641
1.2464e-28 0.027652 0.0174953 5.86566
2.32645e-25 0.032652 0.00227167 55.6677
2.58494e-26 0.032652 0.00233887 54.9781
3.28979e-21 -0.004848 0.0325 3.50813
-1.0842e-19 -0.028598 0.0162494 6.0412
8.08456e-20 0.005152 0.0325 3.52532
0 -0.016098 0.02875 3.8705
-9.599e-20 0.032652 0.00479858 23.5894
1.0842e-19 -0.031098 0.011217 8.33491
-1.0842e-19 0.016402 0.02875 3.93812
1.29247e-26 0.0323138 0.00736572 13.8205
0 0.028902 0.0162494 6.20082
0 -0.011098 0.03125 3.61434
-2.27106e-20 -0.032348 0.00736572 13.3985
-1.0842e-19 0.011402 0.03125 3.656
-3.54881e-20 -0.007348 0.0325 3.50426
0 -0.029848 0.0148659 6.54991
-2.1684e-19 0.031402 0.011217 8.59161
-1.91544e-20 0.007652 0.0325 3.53008
0 -0.029848 0.0149988 6.48917
-1.32445e-19 0.032652 0.00736572 13.825
3.28979e-21 -0.014848 0.03 3.74066
-1.0842e-19 -0.023598 0.02375 4.50294
3.28979e-21 -0.024848 0.0225 4.70442
8.08456e-20 -0.022348 0.025 4.33243
5.84013e-20 0.015152 0.03 3.79974
-1.0842e-19 -0.033598 0.00116944 80.9553
-1.0842e-19 -0.026098 0.02125 4.90587
0 0.030152 0.0149988 6.67158
0 -0.021098 0.02625 4.16196
0 0.023902 0.02375 4.61001
3.28979e-21 0.022652 0.025 4.43307
3.28979e-21 0.025152 0.0225 4.81827
0 -0.001098 0.03375 3.39748
0 0.001402 0.03375 3.40146
-1.0842e-19 -0.033598 0.00356873 29.8392
-8.69277e-20 -0.032348 0.00994629 9.56598
0 0.021402 0.02625 4.25633
-3.54881e-20 -0.027348 0.02 5.15231
0 0.026402 0.02125 5.02665
8.08456e-20 -0.019848 0.0275 4.0143
0 0.033902 0.00116944 78.9201
-1.0842e-19 -0.003598 0.03375 3.39365
-3.54881e-20 -0.009848 0.0325 3.50054
1.0842e-19 0.003902 0.03375 3.40562
0 -0.031098 0.0137433 6.93753
1.58401e-19 0.010152 0.0325 3.53504
0 0.032652 0.00971099 10.2372
0 -0.013598 0.03125 3.61059
-1.0842e-19 0.033902 0.00356872 30.6243
8.08456e-20 0.020152 0.0275 4.10053
-1.91544e-20 0.027652 0.02 5.28351
-8.07794e-28 0.032652 0.00994629 9.87726
-2.1684e-19 -0.033598 0.00608215 15.9837
0 -0.028598 0.01875 5.39866
1.0842e-19 0.013902 0.03125 3.66168
-8.07794e-28 0.0327553 0.00994629 9.87826
-1.0842e-19 -0.018598 0.02875 3.86657
-1.0842e-19 0.031402 0.0137433 7.14423
0 -0.006098 0.03375 3.38998
1.0842e-19 0.006402 0.03375 3.40995
-1.0842e-19 0.018902 0.02875 3.94497
2.1684e-19 0.033902 0.00608215 16.5059
0 0.028902 0.01875 5.54064
1.73549e-29 -0.029848 0.0173712 5.7578
-1.91537e-20 -0.029848 0.0175 5.7181
-1.91544e-20 -0.017348 0.03 3.73689
0 -0.032348 0.0124878 7.63271
-1.0842e-19 -0.033598 0.008656 10.8032
6.45119e-20 -0.012348 0.0325 3.49696
5.84013e-20 0.017652 0.03 3.80613
-1.0842e-19 -0.008598 0.03375 3.38647
1.65436e-24 -0.034848 1.2653e-08 80.976
5.6798e-29 0.030152 0.0174931 5.87845
8.08502e-20 0.030152 0.0175 5.87626
-1.91544e-20 0.012652 0.0325 3.54022
1.0842e-19 0.008902 0.03375 3.41445
9.31819e-21 -0.034848 0.00233887 55.6093
8.07794e-28 0.032652 0.0124878 7.87517
1.0842e-19 0.033902 0.008656 11.1735
-9.67102e-20 0.000152 0.035 3.28632
-1.13044e-19 -0.002348 0.035 3.28251
1.0842e-19 -0.031098 0.0162494 6.03746
3.28979e-21 0.002652 0.035 3.29028
0 0.035152 1.08951e-09 78.8579
1.0842e-19 -0.016098 0.03125 3.60698
1.03398e-25 0.035152 0.000771161 70.9749
-7.8457e-20 -0.034848 0.00479858 22.9586
4.77639e-20 0.035152 0.00233887 54.9494
8.08456e-20 -0.024848 0.025 4.32876
0 -0.026098 0.02375 4.49939
-1.0842e-19 0.016402 0.03125 3.66762
0 -0.023598 0.02625 4.15817
6.45119e-20 -0.004848 0.035 3.27885
0 0.031402 0.0162494 6.21268
2.42338e-27 0.0330886 0.0124878 7.87831
-3.54881e-20 0.005152 0.035 3.29441
-3.54881e-20 -0.027348 0.0225 4.70092
-1.0842e-19 -0.033598 0.011217 8.33049
-9.67102e-20 -0.022348 0.0275 4.01048
3.28979e-21 0.025152 0.025 4.44142
3.5953e-20 0.035152 0.00479858 23.6437
1.0842e-19 0.023902 0.02625 4.2643
0 0.026402 0.02375 4.61874
1.0842e-19 -0.011098 0.03375 3.38309
0 -0.032348 0.0147157 6.61468
-2.01948e-28 -0.0333333 0.0124878 7.63111
-1.55463e-21 -0.034848 0.00736572 13.3933
0 0.011402 0.03375 3.41916
8.08456e-20 0.022652 0.0275 4.10809
0 -0.028598 0.02125 4.9024
8.08456e-20 0.027652 0.0225 4.82731
0 -0.032348 0.0149988 6.48533
0 -0.021098 0.02875 3.86274
1.0842e-19 0.033902 0.011217 8.61131
-3.54881e-20 -0.014848 0.0325 3.49352
-3.54881e-20 -0.007348 0.035 3.27534
-9.67102e-20 0.007652 0.035 3.29869
0 0.021402 0.02875 3.95213
1.58401e-19 0.015152 0.0325 3.54564
1.0842e-19 0.028902 0.02125 5.036
-6.61893e-20 0.035152 0.00736572 13.8602
-9.67102e-20 -0.029848 0.02 5.14883
0 0.032652 0.0149988 6.68507
8.08456e-20 -0.019848 0.03 3.73324
-2.1684e-19 -0.036098 0.00116944 80.9967
5.84013e-20 0.020152 0.03 3.8128
-1.91544e-20 0.030152 0.02 5.29335
-6.56846e-20 -0.034848 0.00994629 9.5614
1.0842e-19 -0.001098 0.03625 3.17128
-1.0842e-19 -0.036098 0.00356873 29.8341
0 0.001402 0.03625 3.17507
0 -0.033598 0.0137433 6.93362
0 -0.031098 0.01875 5.39518
-9.67102e-20 -0.009848 0.035 3.27195
1.0842e-19 -0.018598 0.03125 3.6035
0 -0.013598 0.03375 3.37983
-1.0842e-19 0.036402 0.00116943 78.7957
1.0842e-19 -0.003598 0.03625 3.16765
-1.91544e-20 0.010152 0.035 3.30315
0 0.003902 0.03625 3.17899
0 0.013902 0.03375 3.42406
1.0842e-19 0.018902 0.03125 3.67383
6.79656e-20 0.035152 0.00994629 9.90147
0 0.0333198 0.0149988 6.68887
0 0.031402 0.01875 5.551
0 0.036402 0.00356872 30.6924
0 0.033902 0.0137433 7.15945
0 -0.036098 0.00608215 15.9786
-3.15544e-30 -0.032348 0.0174281 5.73673
0 -0.006098 0.03625 3.16414
1.57772e-30 -0.032348 0.0175 5.71457
-1.0842e-19 0.006402 0.03625 3.18307
0 0.0368386 0 78.7723
-9.67102e-20 -0.017348 0.0325 3.49022
0 0.036402 0.00608215 16.5495
0 -0.034848 0.0121669 7.8727
5.84013e-20 0.017652 0.0325 3.55132
-1.0842e-19 -0.026098 0.02625 4.15455
0 -0.034848 0.0124878 7.62866
-4.73317e-29 0.032652 0.0174693 5.89743
1.42066e-19 0.032652 0.0175 5.88765
-1.91544e-20 -0.027348 0.025 4.32526
5.84013e-20 -0.024848 0.0275 4.00682
8.08456e-20 -0.012348 0.035 3.26869
2.1684e-19 -0.036098 0.00865601 10.7986
1.0842e-19 -0.028598 0.02375 4.496
-1.0842e-19 -0.023598 0.02875 3.85906
1.58401e-19 0.012652 0.035 3.30779
-1.0842e-19 0.026402 0.02625 4.27263
1.0842e-19 -0.008598 0.03625 3.16076
8.08456e-20 0.025152 0.0275 4.11598
3.28979e-21 0.027652 0.025 4.45014
0 0.035152 0.0124878 7.89312
1.0842e-19 -0.033598 0.0162494 6.03389
0 0.008902 0.03625 3.1873
0 -0.037348 1.10674e-08 81.0165
-1.91544e-20 -0.029848 0.0225 4.69756
-1.0842e-19 0.023902 0.02875 3.9596
0 -0.016098 0.03375 3.3767
0 0.028902 0.02375 4.62785
-3.54881e-20 -0.022348 0.03 3.72971
1.0842e-19 0.036402 0.008656 11.2025
-2.00426e-20 -0.037348 0.00233887 55.6274
6.45119e-20 0.000152 0.0375 3.04359
-1.0842e-19 0.016402 0.03375 3.42922
6.45119e-20 -0.002348 0.0375 3.03962
1.58401e-19 0.022652 0.03 3.81977
-3.54881e-20 0.002652 0.0375 3.0477
-1.0842e-19 0.033902 0.0162494 6.22516
8.08456e-20 0.030152 0.0225 4.83674
1.03398e-25 0.037652 5.25466e-10 78.731
1.21662e-20 -0.037348 0.00479858 22.9538
0 -0.031098 0.02125 4.89907
-1.0842e-19 -0.021098 0.03125 3.60014
-1.30065e-19 0.037652 0.00233887 54.9203
1.0842e-19 -0.036098 0.011217 8.32633
3.28979e-21 -0.004848 0.0375 3.0358
3.28979e-21 0.005152 0.0375 3.05196
-1.0842e-19 0.021402 0.03125 3.6803
-1.0842e-19 -0.011098 0.03625 3.1575
0 0.031402 0.02125 5.04577
0 -0.034848 0.0149988 6.48167
-1.2092e-19 0.037652 0.00479858 23.7014
0 0.011402 0.03625 3.19169
8.08456e-20 -0.014848 0.035 3.26555
-4.15987e-20 -0.032348 0.02 5.1455
-3.19469e-20 -0.037348 0.00736572 13.3887
8.08456e-20 -0.019848 0.0325 3.48703
2.1684e-19 0.036402 0.011217 8.63215
1.58401e-19 0.015152 0.035 3.31264
-9.67102e-20 -0.007348 0.0375 3.03211
-8.07794e-28 -0.036899 0.00994629 9.55791
1.1576e-19 0.035152 0.0149988 6.69929
8.08456e-20 0.020152 0.0325 3.55727
-1.91544e-20 0.007652 0.0375 3.05638
5.84013e-20 0.032652 0.02 5.30366
6.89087e-20 0.037652 0.00736572 13.8977
-1.0842e-19 -0.033598 0.01875 5.39184
0 -0.018598 0.03375 3.37369
0 -0.038598 0.00116943 81.0364
1.0842e-19 -0.036098 0.0137433 6.92989
0 -0.037348 0.00986214 9.68208
0 -0.037348 0.00994629 9.55714
0 0.018902 0.03375 3.43463
0 -0.013598 0.03625 3.15436
0 0.033902 0.01875 5.5619
-1.0842e-19 -0.038598 0.00356872 29.8299
0 -0.001098 0.0387501 2.91184
1.58401e-19 -0.009848 0.0375 3.02855
0 0.001402 0.0387501 2.91615
-4.15987e-20 -0.027348 0.0275 4.00332
0 -0.028598 0.02625 4.15109
0 0.013902 0.03625 3.19625
-1.0842e-19 -0.026098 0.02875 3.85552
5.84013e-20 0.010152 0.0375 3.06095
0 0.036402 0.0137433 7.1755
0 -0.003598 0.0387501 2.90771
0 0.038902 0.00116943 78.6662
1.58401e-19 -0.029848 0.025 4.32191
-2.21853e-20 0.037652 0.00994629 9.92714
0 0.003902 0.0387501 2.92059
-9.67102e-20 -0.024848 0.03 3.72631
-1.73549e-29 -0.034848 0.0174756 5.71871
1.58403e-19 -0.034848 0.0175 5.71119
-9.67102e-20 0.027652 0.0275 4.12423
0 0.026402 0.02875 3.96741
1.0842e-19 0.028902 0.02625 4.28133
0 -0.039048 0 81.043
8.08456e-20 -0.017348 0.035 3.26253
0 0.038902 0.00356872 30.7647
0 -0.038598 0.00608215 15.974
-7.75482e-26 0.0391221 0 78.6534
-1.0842e-19 -0.031098 0.02375 4.49276
-1.91544e-20 0.025152 0.03 3.82705
0 -0.023598 0.03125 3.59689
-9.67102e-20 0.030152 0.025 4.45923
-9.67102e-20 0.017652 0.035 3.31773
0 -0.006098 0.0387501 2.9037
8.08441e-20 0.035152 0.0175 5.89965
0 0.006402 0.0387501 2.92519
1.0842e-19 0.023902 0.03125 3.68707
0 0.031402 0.02375 4.63736
-1.0842e-19 0.038902 0.00608215 16.596
0 -0.037348 0.0124878 7.62482
-1.91544e-20 -0.032348 0.0225 4.69435
8.08456e-20 -0.022348 0.0325 3.48395