# U  POINT_DATA 31842
# x  y  z  U_x  U_y  U_z
-5.16988e-26 0.000152009 4.07247e-10 1.44881e-08 -4.05151e-09 1.55231e-11
-1.0842e-19 -0.00109799 0.00116943 0.0673875 -0.0187841 7.11818e-05
0 0.001402 0.00116944 0.0670945 -0.0189781 7.48434e-05
-1.61559e-27 -0.00227346 0 0 0 0
-4.1359e-25 0.000151997 0.00233887 0.0830717 -0.0209489 0.000139537
-1.61559e-27 -0.00234799 1.25136e-11 4.33735e-10 -1.20569e-10 4.5276e-13
1.48634e-25 -0.00234799 9.5131e-06 0.000339026 -8.43565e-05 5.40091e-07
-1.03398e-25 0.00265199 4.41393e-10 1.6074e-08 -4.5582e-09 1.81471e-11
0 -0.002348 0.00233887 0.0833523 -0.0207397 0.000132786
0 0.002652 0.00233887 0.0827811 -0.0211582 0.000146657
-1.0842e-19 -0.001098 0.00356872 0.0992947 -0.0229373 0.000201999
1.0842e-19 -0.003598 0.00116943 0.0676696 -0.01859 6.77083e-05
-1.0842e-19 0.001402 0.00356872 0.0990169 -0.0231621 0.000212253
0 0.003902 0.00116944 0.0667902 -0.0191717 7.86957e-05
0 0.000151998 0.00479858 0.106396 -0.0232685 0.000270736
0 -0.00484801 1.53138e-09 5.4983e-08 -1.507e-08 5.44727e-11
-2.06795e-25 -0.00484801 0.000928932 0.0332127 -0.00815422 5.01959e-05
0 -0.003598 0.00356872 0.0995638 -0.022713 0.00019228
1.03398e-25 0.00515199 6.95565e-10 2.52143e-08 -7.25523e-09 3.00656e-11
-1.0842e-19 0.003902 0.00356872 0.0987299 -0.0233874 0.000223075
0 -0.002348 0.00479858 0.106664 -0.0230482 0.000257811
4.1359e-25 -0.004848 0.00233887 0.0836232 -0.0205307 0.000126384
0 0.002652 0.00479858 0.106121 -0.0234892 0.000284375
-4.1359e-25 0.005152 0.00233887 0.0824802 -0.0213675 0.00015417
-1.0842e-19 -0.001098 0.00608215 0.113874 -0.0233824 0.000327098
-1.0842e-19 -0.006098 0.00116943 0.0679414 -0.0183959 6.44085e-05
2.1684e-19 0.001402 0.00608215 0.113609 -0.0235985 0.000343432
0 0.006402 0.00116943 0.0664744 -0.0193649 8.27542e-05
0 -0.004848 0.00479858 0.106923 -0.0228283 0.000245563
0 0.005152 0.00479858 0.105837 -0.0237101 0.00029877
0 -0.006098 0.00356872 0.0998243 -0.0224892 0.000183068
1.0842e-19 -0.003598 0.00608215 0.114131 -0.0231666 0.000311621
0 0.003902 0.00608215 0.113337 -0.0238148 0.000360668
0 0.006402 0.00356872 0.0984336 -0.0236131 0.000234504
0 -0.00734801 1.77292e-09 6.39088e-08 -1.72623e-08 5.99845e-11
-2.06795e-25 0.000152001 0.00736572 0.118418 -0.0233415 0.000390557
0 -0.00734801 0.00102221 0.036662 -0.00888179 5.25845e-05
0 0.00765203 1.40341e-08 5.06314e-07 -1.4784e-07 6.37798e-10
0 -0.007348 0.00233887 0.0838848 -0.020322 0.000120316
0 -0.002348 0.00736572 0.118674 -0.0231309 0.000372093
0 0.002652 0.00736572 0.118155 -0.0235524 0.000410035
0 0.00765201 0.00233888 0.0821687 -0.0215768 0.000162092
1.0842e-19 -0.006098 0.00608215 0.114381 -0.022951 0.000296956
1.0842e-19 -0.008598 0.00116944 0.0682031 -0.0182017 6.12792e-05
0 -0.001098 0.00865601 0.12323 -0.0230896 0.000435154
-2.1684e-19 0.001402 0.008656 0.122975 -0.023295 0.000456743
-4.1359e-25 -0.007348 0.00479858 0.107174 -0.0226089 0.000233961
0 -0.004848 0.00736572 0.118923 -0.0229204 0.000354592
0 0.006402 0.00608215 0.113056 -0.0240313 0.000378856
1.0842e-19 0.008902 0.00116944 0.0661467 -0.0195578 8.70231e-05
0 0.005152 0.00736572 0.117884 -0.0237633 0.000430578
0 0.007652 0.00479858 0.105544 -0.0239314 0.000313961
-1.0842e-19 -0.008598 0.00356872 0.100076 -0.022266 0.00017435
0 -0.003598 0.008656 0.123478 -0.0228843 0.000414688
1.0842e-19 0.003902 0.008656 0.122713 -0.0235005 0.000479506
-1.0842e-19 0.008902 0.00356872 0.0981277 -0.0238391 0.000246556
-2.06795e-25 -0.00984799 9.51438e-10 3.44277e-08 -9.16481e-09 3.06228e-11
-2.06795e-25 -0.00984799 0.000657032 0.0236357 -0.00565031 3.21849e-05
0 0.000152 0.00994629 0.126554 -0.0229455 0.000496063
4.1359e-25 -0.009848 0.00233887 0.0841374 -0.0201137 0.00011457
0 0.010152 1.3998e-08 5.02504e-07 -1.48905e-07 6.68884e-10
5.16988e-26 -0.002348 0.00994629 0.126801 -0.0227448 0.00047274
0 0.002652 0.00994629 0.1263 -0.0231462 0.000520652
0 -0.007348 0.00736572 0.119165 -0.0227101 0.000338004
-8.27181e-25 0.010152 0.00233888 0.0818462 -0.0217861 0.000170446
-1.0842e-19 -0.008598 0.00608215 0.114624 -0.0227358 0.000283066
2.1684e-19 -0.006098 0.008656 0.123719 -0.022679 0.000395282
0 0.007652 0.00736572 0.117605 -0.0239742 0.000452245
-1.0842e-19 0.006402 0.008656 0.122445 -0.0237059 0.000503501
0 0.008902 0.00608215 0.112767 -0.0242479 0.000398048
0 -0.009848 0.00479858 0.107418 -0.0223899 0.000222974
0 -0.004848 0.00994629 0.127042 -0.0225441 0.000450621
1.0842e-19 -0.011098 0.00116943 0.0684548 -0.0180077 5.83116e-05
0 0.005152 0.00994629 0.126039 -0.0233468 0.00054657
-4.1359e-25 0.010152 0.00479858 0.105242 -0.0241529 0.000329992
0 -0.001098 0.011217 0.13011 -0.0226019 0.000532773
1.0842e-19 0.001402 0.011217 0.129864 -0.022798 0.000559055
1.0842e-19 0.011402 0.00116943 0.0658066 -0.01975 9.15178e-05
-1.0842e-19 -0.011098 0.00356872 0.100321 -0.0220434 0.000166093
0 -0.003598 0.011217 0.13035 -0.0224058 0.000507841
-1.0842e-19 0.003902 0.011217 0.129611 -0.0229939 0.000586753
2.1684e-19 0.011402 0.00356872 0.0978118 -0.0240656 0.000259287
0 -0.008598 0.008656 0.123953 -0.0224739 0.000376885
0 -0.009848 0.00736572 0.1194 -0.0225001 0.000322287
4.1359e-25 -0.012348 2.37611e-09 8.62939e-08 -2.26411e-08 7.27689e-11
-1.03398e-25 -0.007348 0.00994629 0.127276 -0.0223434 0.000429645
-2.06795e-25 -0.012348 0.0012946 0.0467062 -0.0110181 6.04059e-05
-1.0842e-19 0.008902 0.008656 0.122168 -0.0239112 0.000528805
1.2137e-19 0.000152 0.0124878 0.132753 -0.0224306 0.000591689
0 0.010152 0.00736572 0.117318 -0.0241853 0.000475099
0 0.007652 0.00994629 0.125771 -0.0235473 0.000573885
4.1359e-25 -0.012348 0.00233887 0.0843812 -0.0199057 0.000109131
0 0.012652 1.29331e-08 4.83868e-07 -1.45524e-07 6.80749e-10
-1.0842e-19 -0.011098 0.00608215 0.114859 -0.022521 0.00026991
0 -0.002348 0.0124878 0.132992 -0.0222386 0.000564036
0 0.002652 0.0124878 0.132507 -0.0226225 0.000620828
-1.0842e-19 -0.006098 0.011217 0.130583 -0.0222096 0.000484192
0 0.012652 0.00233888 0.0815124 -0.0219952 0.000179256
0 0.006402 0.011217 0.129351 -0.0231897 0.000615941
0 0.011402 0.00608215 0.11247 -0.0244647 0.000418303
0 -0.012348 0.00479858 0.107654 -0.0221714 0.000212572
-1.29247e-26 -0.004848 0.0124878 0.133225 -0.0220464 0.000537798
1.29247e-26 0.005152 0.0124878 0.132254 -0.0228142 0.000651529
4.1359e-25 0.012652 0.00479858 0.10493 -0.0243747 0.00034691
0 -0.013598 0.00116943 0.0686972 -0.0178139 5.55087e-05
1.0842e-19 -0.001098 0.0137433 0.135626 -0.0220684 0.000622045
-1.0842e-19 0.001402 0.0137433 0.135387 -0.0222563 0.000652511
0 0.013902 0.00116943 0.0654538 -0.0199414 9.62396e-05
0 -0.009848 0.00994629 0.127503 -0.0221429 0.000409758
0 -0.013598 0.00356872 0.100557 -0.0218215 0.000158283
0 -0.011098 0.008656 0.124181 -0.022269 0.000359452
-1.0842e-19 -0.008598 0.011217 0.130811 -0.0220135 0.000461763
1.0842e-19 -0.003598 0.0137433 0.135859 -0.0218803 0.000593128
-5.16988e-26 0.010152 0.00994629 0.125496 -0.0237477 0.00060267
1.0842e-19 0.003902 0.0137433 0.135142 -0.022444 0.000684604
-1.0842e-19 0.011402 0.008656 0.121884 -0.0241165 0.00055548
1.0842e-19 0.008902 0.011217 0.129085 -0.0233852 0.000646687
-1.0842e-19 0.013902 0.00356872 0.0974857 -0.0242924 0.000272714
-1.03398e-25 -0.012348 0.00736572 0.119628 -0.0222903 0.0003074
0 -0.007348 0.0124878 0.133452 -0.0218542 0.000512907
0 0.012652 0.00736572 0.117023 -0.0243963 0.000499202
1.29247e-26 0.007652 0.0124878 0.131995 -0.0230057 0.000683862
0 0.0146603 0 0 0 0
8.27181e-25 -0.014848 5.25259e-09 1.9143e-07 -4.95046e-08 1.53116e-10
0 -0.013598 0.00608215 0.115088 -0.0223066 0.000257457
0 -0.014848 0.00198322 0.0717497 -0.0167029 8.81751e-05
0 0.000152 0.0149988 0.137865 -0.0218919 0.00068071
0 -0.014848 0.00233887 0.0846164 -0.0196982 0.000103987
0 -0.006098 0.0137433 0.136085 -0.021692 0.000565688
0 0.015152 3.16639e-09 1.14843e-07 -3.54717e-08 1.76975e-10
1.0842e-19 0.006402 0.0137433 0.13489 -0.0226315 0.000718407
0 0.013902 0.00608215 0.112164 -0.0246816 0.000439676
0 -0.002348 0.0149988 0.138098 -0.0217075 0.000649148
0 0.015152 0.00131654 0.0456884 -0.0124985 0.000106128
0 0.002652 0.0149988 0.137626 -0.0220761 0.000713957
-4.1359e-25 0.015152 0.00233887 0.0811668 -0.022204 0.000188539
0 -0.014848 0.00479858 0.107883 -0.0219535 0.000202727
-8.07794e-28 -0.004848 0.0149988 0.138325 -0.0215229 0.00061919
0 -0.011098 0.011217 0.131032 -0.0218174 0.000440497
5.16988e-26 -0.012348 0.00994629 0.127725 -0.0219424 0.000390912
0 0.005152 0.0149988 0.137381 -0.02226 0.000748971
0 0.015152 0.00479858 0.104609 -0.0245967 0.00036476
1.29247e-26 -0.009848 0.0124878 0.133674 -0.021662 0.000489299
-1.0842e-19 0.011402 0.011217 0.128811 -0.0235805 0.000679073
5.16988e-26 0.012652 0.00994629 0.125214 -0.0239479 0.000633002
0 0.010152 0.0124878 0.13173 -0.0231969 0.000717904
-1.0842e-19 -0.013598 0.00865601 0.124402 -0.0220642 0.000342938
0 -0.016098 0.00116943 0.0689305 -0.0176204 5.28573e-05
1.0842e-19 -0.008598 0.0137433 0.136307 -0.0215037 0.000539657
1.0842e-19 -0.001098 0.0162494 0.140336 -0.0215315 0.000706935
-1.0842e-19 0.001402 0.0162494 0.140104 -0.0217122 0.000741236
0 0.008902 0.0137433 0.134632 -0.0228187 0.000753986
-1.0842e-19 0.013902 0.008656 0.121592 -0.0243216 0.000583601
0 0.016402 0.00116943 0.0650877 -0.020132 0.0001012
2.1684e-19 -0.016098 0.00356872 0.100786 -0.0216003 0.000150893
0 -0.014848 0.00736572 0.11985 -0.0220809 0.000293302
0 -0.003598 0.0162494 0.140563 -0.0213505 0.000674373
-8.07794e-28 -0.007348 0.0149988 0.138546 -0.0213381 0.000590763
0 0.003902 0.0162494 0.139865 -0.0218926 0.000777359
0 0.016402 0.00356872 0.0971489 -0.0245195 0.000286876
8.07794e-28 0.007652 0.0149988 0.13713 -0.0224436 0.000785825
0 0.015152 0.00736572 0.11672 -0.0246073 0.000524624
-1.0842e-19 -0.016098 0.00608215 0.115309 -0.0220926 0.000245666
0 -0.017348 7.0521e-09 2.65123e-07 -6.75436e-08 2.00844e-10
0 -0.006098 0.0162494 0.140784 -0.0211693 0.000643467
0 0.006402 0.0162494 0.13962 -0.0220726 0.000815387
1.9387e-26 -0.0173323 0.00233887 0.084842 -0.0194925 9.91533e-05
-2.1684e-19 0.016402 0.00608215 0.111849 -0.0248986 0.000462231
-2.8399e-28 0.000152 0.0174957 0.142315 -0.0213571 0.000766036
-1.15782e-20 -0.017348 0.00233887 0.0848434 -0.0194912 9.91227e-05
-2.98884e-26 -0.017348 0.00236394 0.0850806 -0.0195141 0.000100084
0 -0.012348 0.0124878 0.133889 -0.0214698 0.000466917
0 -0.013598 0.011217 0.131247 -0.0216214 0.000420344
0 0.017652 4.74781e-09 1.63047e-07 -5.11396e-08 2.65775e-10
-1.91544e-20 -0.002348 0.0175 0.142541 -0.0211795 0.000730879
1.0842e-19 -0.011098 0.0137433 0.136522 -0.0213153 0.000514968
-2.11415e-28 0.002652 0.0174954 0.142082 -0.0215343 0.000803061
0 0.017652 0.00193387 0.066816 -0.0185316 0.000163975
1.29247e-26 0.012652 0.0124878 0.131457 -0.0233877 0.000753745
0 0.017652 0.00233887 0.0808091 -0.0224126 0.000198316
0 0.011402 0.0137433 0.134367 -0.0230054 0.000791421
0 0.013902 0.011217 0.12853 -0.0237755 0.000713189
-2.58494e-26 -0.014848 0.00994629 0.12794 -0.0217422 0.000373058
0 -0.009848 0.0149988 0.138762 -0.0211533 0.000563796
0 -0.017348 0.00479858 0.108105 -0.0217362 0.000193413
0 0.010152 0.0149988 0.136872 -0.0226268 0.000824596
0 0.015152 0.00994629 0.124923 -0.0241478 0.00066497
-3.47099e-29 -0.004848 0.0174955 0.142763 -0.0210017 0.000697502
-8.99301e-29 0.005152 0.0174953 0.141843 -0.0217111 0.000842039
2.1684e-19 -0.016098 0.008656 0.124618 -0.0218598 0.000327297
0 0.017652 0.00479858 0.104278 -0.0248188 0.000383592
0 -0.008598 0.0162494 0.141 -0.020988 0.000614141
1.0842e-19 0.008902 0.0162494 0.13937 -0.0222523 0.000855389
0 0.016402 0.008656 0.121291 -0.0245266 0.000613253
1.0842e-19 -0.018598 0.00116943 0.069155 -0.0174273 5.03519e-05
-1.0842e-19 -0.001098 0.01875 0.144525 -0.021005 0.000789107
0 0.001402 0.01875 0.144298 -0.0211791 0.000826949
-5.16988e-26 -0.017348 0.00736572 0.120066 -0.0218719 0.000279955
-2.1684e-19 -0.018598 0.00356873 0.101008 -0.0213797 0.000143909
2.1684e-19 0.018902 0.00116943 0.064708 -0.0203218 0.000106404
5.83757e-29 -0.007348 0.0174953 0.142978 -0.0208237 0.000665823
-1.0842e-19 -0.003598 0.01875 0.144746 -0.0208306 0.000753178
6.31089e-29 0.007652 0.0174955 0.141599 -0.0218875 0.000883042
0 0.017652 0.00736572 0.116408 -0.0248182 0.000551439
-1.0842e-19 0.003902 0.01875 0.144065 -0.0213528 0.000866791
0 0.018902 0.00356872 0.0968011 -0.0247469 0.000301808
1.0842e-19 -0.013598 0.0137433 0.136732 -0.021127 0.000491561
0 -0.014848 0.0124878 0.134099 -0.0212776 0.000445705
0 -0.012348 0.0149988 0.138972 -0.0209683 0.000538219
-2.1684e-19 0.013902 0.0137433 0.134095 -0.0231917 0.000830825
-2.1684e-19 -0.018598 0.00608215 0.115525 -0.0218791 0.000234513
0 -0.016098 0.011217 0.131457 -0.0214255 0.000401253
8.07794e-28 0.012652 0.0149988 0.136608 -0.0228095 0.000865385
0 0.015152 0.0124878 0.131177 -0.0235782 0.000791494
1.0842e-19 -0.011098 0.0162494 0.14121 -0.0208065 0.00058632
0 -0.006098 0.01875 0.144961 -0.0206559 0.000719068
0 0.006402 0.01875 0.143827 -0.021526 0.000908716
0 -0.019848 7.87922e-09 2.97173e-07 -7.46285e-08 2.13755e-10
0 0.011402 0.0162494 0.139113 -0.0224314 0.000897452
2.1684e-19 0.018902 0.00608215 0.111525 -0.0251156 0.000486031
1.0842e-19 0.016402 0.011217 0.128242 -0.0239702 0.00074914
-3.77454e-20 -0.019848 0.00233887 0.0850626 -0.0192848 9.45245e-05
1.29247e-26 -0.017348 0.00994629 0.12815 -0.0215422 0.000356147
-1.91544e-20 0.000152 0.02 0.146317 -0.0208357 0.000848972
5.04871e-29 -0.009848 0.017495 0.143189 -0.0206455 0.000635761
-1.91544e-20 -0.002348 0.02 0.146538 -0.0206646 0.000810479
4.1359e-25 0.020152 3.12849e-09 1.03525e-07 -3.29567e-08 1.78138e-10
-1.91544e-20 0.002652 0.02 0.14609 -0.0210065 0.00088951
2.06795e-25 0.020152 0.00150726 0.051838 -0.0145778 0.000134437
9.6241e-29 0.010152 0.0174956 0.141348 -0.0220635 0.000926139
-2.58494e-26 0.017652 0.00994629 0.124625 -0.0243474 0.000698667
2.06795e-25 0.020152 0.00233887 0.0804388 -0.0226208 0.000208611
2.58494e-26 -0.019848 0.00422501 0.102897 -0.0209984 0.000163599
2.58494e-26 -0.019848 0.00479858 0.108321 -0.0215195 0.000184605
1.0842e-19 -0.018598 0.00865601 0.124828 -0.0216557 0.000312487
8.08456e-20 -0.004848 0.02 0.146754 -0.020493 0.00077393
0 -0.008598 0.01875 0.145172 -0.0204809 0.000686694
-4.1359e-25 0.0206376 0 0 0 0
3.28979e-21 0.005152 0.02 0.145857 -0.0211769 0.000932192
2.06795e-25 0.020152 0.00479858 0.103937 -0.0250412 0.000403455
0 0.008902 0.01875 0.143583 -0.0216988 0.000952773
-1.0842e-19 0.018902 0.00865601 0.120984 -0.0247313 0.000644518
0 -0.014848 0.0149988 0.139176 -0.0207834 0.00051397
0 -0.021098 0.00116943 0.069371 -0.0172347 4.79814e-05
0 -0.016098 0.0137433 0.136937 -0.0209386 0.000469375
0 -0.019848 0.00736572 0.120276 -0.0216633 0.000267323
1.0842e-19 -0.013598 0.0162494 0.141415 -0.020625 0.000559935
0 -0.001098 0.02125 0.148333 -0.0204955 0.000869345
0 0.001402 0.02125 0.148112 -0.0206635 0.000910487
8.08456e-20 -0.007348 0.02 0.146965 -0.0203212 0.000739233
-8.07794e-28 0.015152 0.0149988 0.136337 -0.0229917 0.000908319
-9.43849e-20 -0.017348 0.0124878 0.134303 -0.0210856 0.000425607
0 0.013902 0.0162494 0.138849 -0.02261 0.000941699
2.1684e-19 -0.021098 0.00356872 0.101222 -0.0211601 0.000137308
0 0.016402 0.0137433 0.133817 -0.0233775 0.000872328
-2.22459e-28 -0.012348 0.0174939 0.143384 -0.0204681 0.000607096
-1.91544e-20 0.007652 0.02 0.145618 -0.0213468 0.000977101
-1.91544e-20 -0.012348 0.0175 0.143395 -0.0204669 0.000607264
-2.1684e-19 0.021402 0.00116943 0.0643141 -0.0205104 0.000111864
0 0.020152 0.00736572 0.116088 -0.0250291 0.000579721
-1.0842e-19 -0.003598 0.02125 0.14855 -0.0203272 0.000830285
-2.2877e-28 0.012652 0.0174953 0.141091 -0.0222389 0.000971446
1.0842e-19 0.003902 0.02125 0.147884 -0.0208309 0.000953815
0 0.017652 0.0124878 0.13089 -0.0237682 0.000831263
0 0.021402 0.00356872 0.0964419 -0.0249746 0.000317551
1.0842e-19 -0.018598 0.011217 0.131661 -0.0212298 0.00038317
-1.0842e-19 -0.011098 0.01875 0.145377 -0.0203058 0.000655968
-1.0842e-19 0.011402 0.01875 0.143332 -0.021871 0.000999041
0 -0.021098 0.00608215 0.115735 -0.0216661 0.000223963
0 0.018902 0.011217 0.127946 -0.0241645 0.000787025
0 -0.006098 0.02125 0.148761 -0.0201585 0.000793192
1.29247e-26 -0.0216506 0.00479858 0.108471 -0.0213637 0.000178602
0 0.006402 0.02125 0.147652 -0.0209979 0.000999449
0 -0.019848 0.00994629 0.128354 -0.0213424 0.000340133
1.0842e-19 0.021402 0.00608215 0.111191 -0.0253327 0.00051114
-1.91544e-20 -0.009848 0.02 0.147171 -0.020149 0.000706297
0 -0.022348 8.84091e-09 3.34473e-07 -8.28005e-08 2.28561e-10
1.58401e-19 0.010152 0.02 0.145374 -0.0215161 0.0010243
-9.61887e-21 -0.022348 0.00233887 0.085274 -0.0190791 9.01791e-05
-2.58494e-26 0.020152 0.00994629 0.124319 -0.0245468 0.000734186
8.08456e-20 0.000152 0.0225 0.149977 -0.0203338 0.000930118
-9.67102e-20 -0.002348 0.0225 0.150194 -0.0201685 0.000888504
1.65436e-24 0.022652 1.29787e-08 4.40494e-07 -1.40791e-07 7.76269e-10
8.08456e-20 0.002652 0.0225 0.149755 -0.0204986 0.000973944
0 0.022652 0.00233887 0.0800555 -0.0228286 0.000219449
1.0842e-19 -0.021098 0.008656 0.125032 -0.0214518 0.000298467
1.17205e-19 -0.022348 0.00479858 0.108529 -0.0213034 0.000176279
1.0842e-19 -0.016098 0.0162494 0.141614 -0.0204434 0.00053492
-1.0842e-19 -0.008598 0.02125 0.148967 -0.0199894 0.000757981
0 -0.017348 0.0149988 0.139376 -0.0205984 0.000490986
1.23062e-28 -0.014848 0.0174901 0.143578 -0.0202904 0.000579956
1.57772e-30 -0.014848 0.0175 0.143595 -0.0202885 0.000580217
-3.54881e-20 -0.004848 0.0225 0.150406 -0.0200028 0.000848988
0 0.008902 0.02125 0.147413 -0.0211644 0.00104747
8.08456e-20 0.005152 0.0225 0.149527 -0.0206629 0.0010201
0 0.021402 0.008656 0.120667 -0.0249359 0.000677487
1.0842e-19 0.016402 0.0162494 0.138578 -0.022788 0.000988276
-1.0842e-19 -0.018598 0.0137433 0.137136 -0.0207504 0.000448355
-2.55591e-28 0.015152 0.0174946 0.140827 -0.0224137 0.00101912
2.06795e-25 0.022652 0.00479858 0.103585 -0.0252637 0.000424402
-1.0842e-19 -0.013598 0.01875 0.145578 -0.0201305 0.000626822
0 0.017652 0.0149988 0.136059 -0.0231733 0.000953528
-6.46235e-27 -0.022348 0.006317 0.115598 -0.0213932 0.000223062
-1.0842e-19 0.013902 0.01875 0.143075 -0.0220426 0.00104771
1.0842e-19 0.018902 0.0137433 0.133531 -0.0235628 0.000916044
3.36502e-20 -0.019848 0.0124878 0.134502 -0.0208938 0.000406566
-1.91544e-20 -0.012348 0.02 0.147372 -0.0199767 0.000675042
0 -0.022348 0.00736572 0.12048 -0.0214551 0.000255374
-1.0842e-19 -0.023598 0.00116943 0.0695787 -0.0170426 4.57444e-05
-1.91544e-20 0.012652 0.02 0.145123 -0.0216848 0.00107389
-9.67102e-20 -0.007348 0.0225 0.150613 -0.0198367 0.000811463
0 0.020152 0.0124878 0.130595 -0.0239577 0.000873161
-1.91544e-20 0.007652 0.0225 0.149294 -0.0208266 0.00106868
0 -0.001098 0.02375 0.151841 -0.0200071 0.000948197
1.0842e-19 0.001402 0.02375 0.151624 -0.0201693 0.000992444
0 0.022652 0.00736572 0.115758 -0.0252399 0.000609547
-2.1684e-19 -0.023598 0.00356872 0.10143 -0.0209412 0.00013107
0 -0.021098 0.011217 0.13186 -0.0210344 0.000366042
0 0.023902 0.00116944 0.0639056 -0.0206979 0.000117589
0 -0.011098 0.02125 0.149168 -0.0198201 0.000724548
1.0842e-19 -0.003598 0.02375 0.152054 -0.0198444 0.000906191
0 0.003902 0.02375 0.151401 -0.020331 0.00103903
-1.0842e-19 0.011402 0.02125 0.147168 -0.0213303 0.00109791
-1.0842e-19 0.021402 0.011217 0.127643 -0.0243583 0.000826945
0 0.023902 0.00356872 0.096071 -0.0252026 0.000334143
-1.0842e-19 -0.023598 0.00608215 0.115938 -0.0214538 0.000213992
0 -0.022348 0.00994629 0.128553 -0.0211429 0.000324972
1.0842e-19 -0.006098 0.02375 0.152262 -0.0196812 0.000866284
-1.91544e-20 -0.009848 0.0225 0.150815 -0.0196702 0.000775831
0 0.006402 0.02375 0.151172 -0.020492 0.00108812
-9.93965e-29 -0.017348 0.0174765 0.143749 -0.0201146 0.000553977
-1.91544e-20 -0.017348 0.0175 0.14379 -0.02011 0.000554575
0 0.023902 0.00608215 0.110849 -0.0255499 0.000537623
-1.91544e-20 0.010152 0.0225 0.149055 -0.0209897 0.00111971
1.0842e-19 -0.018598 0.0162494 0.141809 -0.0202618 0.00051121
-1.0842e-19 -0.016098 0.01875 0.145773 -0.0199551 0.000599182
-5.16988e-26 0.022652 0.00994629 0.124005 -0.0247458 0.000771621
-3.23117e-27 -0.0237055 0.00736572 0.120587 -0.0213424 0.000249239
0 -0.024848 1.04193e-08 3.95353e-07 -9.64825e-08 2.56809e-10
7.88861e-30 0.017652 0.0174937 0.140547 -0.0225891 0.00106907
-1.57772e-30 0.017652 0.0175 0.140558 -0.0225876 0.00106936
-1.00974e-28 -0.019848 0.0149988 0.13957 -0.0204136 0.000469204
-1.91544e-20 -0.014848 0.02 0.147568 -0.0198043 0.000645396
-1.0842e-19 0.016402 0.01875 0.142812 -0.0222135 0.00109895
0 0.018902 0.0162494 0.138301 -0.0229654 0.00103731
-4.98612e-20 -0.024848 0.00233887 0.0854781 -0.0188741 8.60736e-05
-3.54881e-20 0.000152 0.025 0.153371 -0.0198525 0.00100949
5.84013e-20 0.015152 0.02 0.144865 -0.0218527 0.00112605
6.45119e-20 -0.002348 0.025 0.153583 -0.0196929 0.000964964
0 0.020152 0.0149988 0.135773 -0.0233543 0.00100113
0 -0.023598 0.008656 0.12523 -0.0212484 0.000285204
-9.67102e-20 0.002652 0.025 0.153154 -0.0200115 0.00105635
0 0.025152 1.3801e-08 4.78547e-07 -1.55229e-07 8.90105e-10
0 -0.021098 0.0137433 0.137329 -0.0205623 0.000428435
0 -0.013598 0.02125 0.149364 -0.0196506 0.000692832
0 -0.008598 0.02375 0.152464 -0.0195176 0.000828395
0 0.025152 0.00233887 0.0796589 -0.0230359 0.000230854
5.32708e-20 -0.024848 0.00479858 0.108731 -0.0210881 0.000168411
0 0.008902 0.02375 0.150939 -0.0206523 0.00113969
0 0.013902 0.02125 0.146917 -0.0214953 0.00115091
1.0842e-19 0.023902 0.00865601 0.120342 -0.0251402 0.000712244
1.0842e-19 0.021402 0.0137433 0.133238 -0.0237476 0.000962088
3.28979e-21 -0.004848 0.025 0.15379 -0.0195328 0.000922668
5.84013e-20 0.005152 0.025 0.152931 -0.0201699 0.00110568
0 -0.022348 0.0124878 0.134696 -0.0207021 0.00038853
0 0.025152 0.00479858 0.103223 -0.0254864 0.000446488
-1.91544e-20 -0.012348 0.0225 0.151012 -0.0195035 0.000742005
-1.91544e-20 0.012652 0.0225 0.148809 -0.0211519 0.00117332
0 0.022652 0.0124878 0.130293 -0.0241468 0.000917294
-6.46235e-27 -0.024848 0.00736572 0.120677 -0.0212475 0.000244076
8.08456e-20 -0.007348 0.025 0.153992 -0.0193722 0.000882487
1.0842e-19 -0.026098 0.00116943 0.0697785 -0.0168511 4.36288e-05
0 -0.023598 0.011217 0.132053 -0.0208392 0.000349826
1.58401e-19 0.007652 0.025 0.152704 -0.0203274 0.00115757
1.03398e-25 0.025152 0.00736572 0.115419 -0.0254506 0.00064099
0 -0.011098 0.02375 0.152662 -0.0193538 0.0007924
0 -0.001098 0.02625 0.155115 -0.0195387 0.0010251
0 0.001402 0.02625 0.154903 -0.0196951 0.0010722
0 -0.026098 0.00356872 0.101631 -0.0207231 0.000125177
-1.0842e-19 0.011402 0.02375 0.150699 -0.0208118 0.00119377
0 0.023902 0.011217 0.127331 -0.0245518 0.000869003
0 -0.018598 0.01875 0.145963 -0.0197796 0.000572979
-2.8399e-29 -0.019848 0.017446 0.143885 -0.0199419 0.000528945
1.0842e-19 0.026402 0.00116944 0.0634819 -0.020884 0.000123585
0 -0.019848 0.0175 0.14398 -0.0199315 0.000530264
-1.91544e-20 -0.017348 0.02 0.147758 -0.0196317 0.000617287
1.0842e-19 -0.003598 0.02625 0.155322 -0.0193817 0.000980368
0 0.003902 0.02625 0.154687 -0.0198508 0.00112173
3.23117e-27 -0.024848 0.00936687 0.126934 -0.021012 0.000295684
-1.0842e-19 0.018902 0.01875 0.142541 -0.0223836 0.00115288
0 -0.021098 0.0162494 0.141999 -0.0200803 0.000488734
1.0842e-19 0.026402 0.00356872 0.095688 -0.0254308 0.000351628
0 -0.016098 0.02125 0.149556 -0.019481 0.000662748
-1.91544e-20 0.017652 0.02 0.144601 -0.02202 0.00118092
-3.81809e-28 0.020152 0.0174939 0.14027 -0.0227625 0.0011219
0 0.020152 0.0175 0.140281 -0.022761 0.0011222
0 -0.024848 0.00994629 0.128746 -0.0209438 0.000310627
-1.0842e-19 -0.026098 0.00608215 0.116135 -0.0212419 0.00020457
0 0.016402 0.02125 0.146658 -0.0216596 0.00120663
1.58401e-19 -0.009848 0.025 0.15419 -0.0192112 0.000844318
0 0.021402 0.0162494 0.138016 -0.0231421 0.00108893
-1.00974e-28 -0.022348 0.0149988 0.139759 -0.0202288 0.00044856
1.0842e-19 -0.006098 0.02625 0.155524 -0.0192241 0.00093783
1.58401e-19 -0.014848 0.0225 0.151204 -0.0193366 0.00070991
8.08456e-20 0.010152 0.025 0.152471 -0.0204842 0.00121207
-1.0842e-19 0.006402 0.02625 0.154465 -0.0200058 0.00117386
5.16988e-26 0.025152 0.00994629 0.123682 -0.0249445 0.000811064
-1.0842e-19 0.026402 0.00608215 0.110495 -0.0257671 0.000565549
5.84013e-20 0.015152 0.0225 0.148558 -0.0213134 0.00122972
8.07794e-28 0.022652 0.0149988 0.135481 -0.0235348 0.00105126
-1.0842e-19 -0.023598 0.0137433 0.137519 -0.0203743 0.000409565
-1.65436e-24 -0.027348 1.20177e-08 4.57295e-07 -1.10019e-07 2.82525e-10
0 -0.013598 0.02375 0.152854 -0.0191896 0.000758243
-8.30845e-20 -0.027348 0.00233887 0.0856749 -0.0186697 8.21976e-05
0 -0.026098 0.008656 0.125423 -0.0210455 0.000272665
3.28979e-21 0.000152 0.0275 0.156562 -0.0193896 0.00108607
0 0.013902 0.02375 0.150454 -0.0209705 0.00125072
1.0842e-19 0.023902 0.0137433 0.132937 -0.0239318 0.00101057
3.28979e-21 -0.002348 0.0275 0.156767 -0.0192358 0.00103889
0 -0.008598 0.02625 0.155721 -0.019066 0.000897441
8.08456e-20 0.002652 0.0275 0.156353 -0.0195426 0.0011357
0 0.027652 1.24047e-08 4.27266e-07 -1.40758e-07 8.40677e-10
1.0842e-19 0.008902 0.02625 0.154239 -0.0201598 0.00122862
0 -0.0258947 0.00994629 0.128825 -0.0208606 0.000304945
0 0.027652 0.00233887 0.0792483 -0.0232426 0.000242847
2.4844e-20 -0.027348 0.00479858 0.108927 -0.0208735 0.00016098
-1.0842e-19 0.026402 0.008656 0.120008 -0.0253443 0.000748866
0 -0.024848 0.0124878 0.134885 -0.0205106 0.00037145
-1.91544e-20 -0.012348 0.025 0.154382 -0.0190499 0.000808065
-9.67102e-20 -0.004848 0.0275 0.156967 -0.0190815 0.000994053
-1.91544e-20 0.005152 0.0275 0.156138 -0.0196948 0.00118788
-1.91544e-20 0.012652 0.025 0.152233 -0.0206401 0.00126935
2.06795e-25 0.027652 0.00479858 0.102849 -0.0257092 0.000469764
-9.1014e-20 0.025152 0.0124878 0.129983 -0.0243354 0.000963771
-1.91544e-20 -0.019848 0.02 0.147944 -0.019459 0.000590629
1.0842e-19 -0.021098 0.01875 0.146149 -0.0196042 0.000548122
0 -0.018598 0.02125 0.149742 -0.0193112 0.00063424
1.19215e-19 -0.027348 0.00736572 0.120869 -0.0210403 0.000233398
1.57772e-30 -0.022348 0.0174609 0.144097 -0.0197604 0.000506292
-1.57772e-30 -0.022348 0.0175 0.144166 -0.019753 0.00050721
8.08456e-20 0.020152 0.02 0.14433 -0.0221864 0.00123866
0 -0.026098 0.011217 0.132241 -0.0206443 0.000334479
1.58401e-19 -0.017348 0.0225 0.151391 -0.0191695 0.000679467
0 0.018902 0.02125 0.146394 -0.0218232 0.00126524
-1.0842e-19 0.021402 0.01875 0.142264 -0.0225531 0.00120966
-1.91544e-20 -0.007348 0.0275 0.157162 -0.0189266 0.000951434
1.0842e-19 -0.011098 0.02625 0.155913 -0.0189076 0.000859036
8.08456e-20 0.007652 0.0275 0.155919 -0.0198462 0.00124272
-1.91544e-20 0.017652 0.0225 0.1483 -0.0214741 0.00128903
0 0.027652 0.00736572 0.115071 -0.0256612 0.000674126
-1.0842e-19 0.011402 0.02625 0.154007 -0.020313 0.0012862
1.19907e-28 0.022652 0.0174949 0.139995 -0.0229339 0.00117778
0 -0.028598 0.00116944 0.0699706 -0.0166603 4.16337e-05
2.1684e-19 -0.023598 0.0162494 0.142184 -0.0198989 0.000467426
-1.0842e-19 0.026402 0.011217 0.127011 -0.0247448 0.000913299
0 -0.016098 0.02375 0.153042 -0.0190253 0.000725818
-1.0842e-19 -0.001098 0.02875 0.158217 -0.0190871 0.00109864
-1.0842e-19 0.001402 0.02875 0.158014 -0.0192375 0.00114834
-1.0842e-19 -0.028598 0.00356873 0.101826 -0.0205059 0.000119618
-1.0842e-19 0.016402 0.02375 0.150203 -0.0211284 0.00131064
2.1684e-19 0.023902 0.0162494 0.137725 -0.0233181 0.00114327
-1.0842e-19 0.028902 0.00116944 0.0630426 -0.0210687 0.000129853
-1.0842e-19 -0.003598 0.02875 0.158415 -0.018936 0.00105147
1.0842e-19 0.003902 0.02875 0.157807 -0.019387 0.00120052
-1.00974e-28 -0.024848 0.0149988 0.139944 -0.0200442 0.000428998
8.08456e-20 -0.014848 0.025 0.15457 -0.0188883 0.000773647
3.66139e-20 -0.027348 0.00994629 0.128934 -0.0207451 0.000297057
0 0.028902 0.00356872 0.0952923 -0.0256593 0.00037004
-1.91544e-20 -0.009848 0.0275 0.157353 -0.0187712 0.000910934
-1.91544e-20 0.015152 0.025 0.151989 -0.0207952 0.0013296
1.0842e-19 -0.028598 0.00608215 0.116326 -0.0210307 0.000195672
8.61573e-20 0.025152 0.0149988 0.135181 -0.0237146 0.00110402
8.08456e-20 0.010152 0.0275 0.155695 -0.0199966 0.00130031
0 0.027652 0.00994629 0.123351 -0.0251429 0.000852605
-1.0842e-19 -0.006098 0.02875 0.158609 -0.0187843 0.00100655
-1.0842e-19 0.006402 0.02875 0.157595 -0.0195357 0.00125541
0 -0.026098 0.0137433 0.137703 -0.0201866 0.000391691
1.0842e-19 0.028902 0.00608215 0.110132 -0.0259843 0.000594985
0 -0.013598 0.02625 0.156101 -0.0187488 0.000822583
0 0.013902 0.02625 0.153771 -0.0204653 0.0013467
0 0.026402 0.0137433 0.132629 -0.0241155 0.00106161
0 -0.029848 1.28729e-08 5.14557e-07 -1.22046e-07 3.02581e-10
0 -0.028598 0.008656 0.12561 -0.0208429 0.000260806
0 -0.029848 0.00233887 0.085865 -0.0184663 7.85419e-05
0 -0.021098 0.02125 0.149924 -0.0191413 0.000607176
-2.01948e-28 -0.027348 0.0122643 0.134529 -0.0203569 0.000350162
8.08456e-20 -0.022348 0.02 0.148126 -0.0192864 0.000565333
8.08456e-20 0.000152 0.03 0.159589 -0.0189443 0.00115853
-1.91544e-20 -0.019848 0.0225 0.151574 -0.0190023 0.000650583
0 -0.008598 0.02875 0.158797 -0.018632 0.000963919
0 -0.027348 0.0124878 0.135068 -0.0203195 0.000355283
-1.91544e-20 -0.002348 0.03 0.159785 -0.0187965 0.00110901
0 0.008902 0.02875 0.157378 -0.0196834 0.00131298
8.08456e-20 0.002652 0.03 0.159389 -0.0190912 0.00121061
0 -0.023598 0.01875 0.14633 -0.0194287 0.000524548
-1.91544e-20 -0.012348 0.0275 0.157539 -0.0186153 0.000872455
1.65436e-24 0.030152 9.37378e-09 3.20624e-07 -1.07291e-07 6.67372e-10
0 0.021402 0.02125 0.146123 -0.0219858 0.00132688
-1.0842e-19 -0.018598 0.02375 0.153225 -0.0188607 0.000695064
2.1684e-19 0.028902 0.008656 0.119665 -0.0255482 0.000787445
8.08456e-20 0.020152 0.0225 0.148036 -0.0216339 0.00135138
3.28979e-21 0.022652 0.02 0.144053 -0.022352 0.00129941
-2.06795e-25 -0.029848 0.00479858 0.109117 -0.0206597 0.000153964
0 0.030152 0.00233887 0.0788232 -0.0234487 0.000255452
1.58401e-19 0.012652 0.0275 0.155466 -0.0201461 0.00136081
-1.29247e-26 0.027652 0.0124878 0.129665 -0.0245234 0.00101269
0 0.018902 0.02375 0.149946 -0.0212853 0.00137362
0 -0.024848 0.0174699 0.144293 -0.0195803 0.000484676