# U  POINT_DATA 34923
# x  y  z  U_x  U_y  U_z
4.08021e-10 0 0 0 0 0
-0.000152009 0 0 0 0 0
0.000152011 0 0 0 0 0
-0.000152008 0 0.000142211 0.00819163 -0.00227292 8.52139e-06
0.00015201 0 0.000142211 0.00819794 -0.00229564 8.79099e-06
-0.00125 0 0.00116944 0.0672345 -0.0187747 7.16502e-05
0.00125001 0 0.00116943 0.0672832 -0.0189639 7.39298e-05
3.54797e-09 4.51751e-21 0.00234132 0.0831025 -0.0209379 0.000139172
-0.00234799 0 0 0 0 0
0.00234801 0 0 0 0 0
-0.00234799 0 0.00014221 0.00819158 -0.0022729 8.52134e-06
0.00234801 0 0.000142211 0.00819794 -0.00229564 8.79099e-06
-0.0025 2.71051e-20 0 0 0 0
0.00250002 0 0 0 0 0
-0.00265201 0 0 0 0 0
0.00265203 2.71051e-20 0 0 0 0
-0.00265201 -2.71051e-20 0.000142211 0.00818531 -0.0022505 8.26046e-06
0.00265203 0 0.000142211 0.00820432 -0.0023187 9.06961e-06
-0.0025 0 0.00234132 0.0830342 -0.0207277 0.000134478
0.00250001 9.03502e-21 0.00234132 0.0831715 -0.0211514 0.000144041
-0.00125 0 0.00356872 0.0991283 -0.0229187 0.000202845
0.00125 1.0842e-19 0.00356872 0.0992171 -0.0231535 0.00021016
-0.00374999 -1.0842e-19 0.00116944 0.0671861 -0.0185883 6.94442e-05
0.00375001 -1.0842e-19 0.00116944 0.0673321 -0.0191559 7.62859e-05
2.37366e-09 -9.03502e-21 0.00480076 0.106418 -0.0232553 0.000269979
-0.00484797 0 0 0 0 0
0.00484801 0 0 0 0 0
-0.00484797 -2.71051e-20 0.000142211 0.00818531 -0.0022505 8.26046e-06
0.00484801 0 0.000142212 0.00820436 -0.00231872 9.06966e-06
-0.00499998 2.71051e-20 0 0 0 0
0.00500002 2.71051e-20 0 0 0 0
-0.00515199 0 0 0 0 0
0.00515203 0 0 0 0 0
-0.00515199 0 0.00014221 0.00817908 -0.00222843 8.00985e-06
0.00515203 0 0.000142212 0.00821074 -0.00234211 9.35661e-06
-0.00375 1.0842e-19 0.00356873 0.0990404 -0.0226876 0.000195801
0.00375 0 0.00356872 0.099307 -0.0233921 0.000217757
-0.0025 0 0.00480076 0.106325 -0.0230221 0.000260355
0.0025 -9.03502e-21 0.00480076 0.106513 -0.0234921 0.000279976
-0.00499999 -4.51751e-21 0.00234132 0.0829665 -0.0205207 0.00012996
0.00500001 1.35525e-20 0.00234132 0.083241 -0.0213682 0.000149087
-0.00125 1.0842e-19 0.00608215 0.113708 -0.0233597 0.000328107
0.00125 0 0.00608215 0.113808 -0.0235949 0.000340438
-0.00624999 0 0.00116944 0.067138 -0.0184047 6.73249e-05
0.00625001 0 0.00116944 0.0673813 -0.0193508 7.87128e-05
-0.005 4.51751e-21 0.00480076 0.106232 -0.0227926 0.000251095
0.005 0 0.00480076 0.106609 -0.0237328 0.000290355
0.00375 1.0842e-19 0.00608215 0.113909 -0.0238337 0.000353245
-0.00375 0 0.00608215 0.11361 -0.0231282 0.000316238
-0.00624999 -2.1684e-19 0.00356872 0.0989535 -0.0224601 0.00018903
0.00625 0 0.00356873 0.0993979 -0.0236346 0.000225636
-0.00734797 -2.71051e-20 0 0 0 0
0.00734801 0 0 0 0 0
-0.00734797 0 0.000142211 0.00817913 -0.00222844 8.0099e-06
0.00734801 0 0.0001422 0.00821008 -0.00234192 9.35585e-06
1.06232e-09 -4.51751e-21 0.00736599 0.118434 -0.0233287 0.000389413
-0.00749998 0 0 0 0 0
0.00750001 2.71051e-20 0 0 0 0
-0.00765199 0 0 0 0 0
0.00765201 0 0 0 0 0
-0.00765199 2.71051e-20 0.000142211 0.00817294 -0.00220668 7.76979e-06
0.00765201 0 0.0001422 0.00821654 -0.00236564 9.65228e-06
-0.0025 0 0.00736599 0.118334 -0.0230984 0.000375164
0.0025 -4.51751e-21 0.00736599 0.118536 -0.0235625 0.000404211
-0.00749999 0 0.00234132 0.0828994 -0.0203169 0.000125619
0.0075 0 0.00234132 0.0833112 -0.0215884 0.000154314
-0.00625 -1.0842e-19 0.00608215 0.113512 -0.0229002 0.00030482
0.00625 1.0842e-19 0.00608215 0.11401 -0.0240763 0.000366545
-0.00125 1.0842e-19 0.008656 0.123067 -0.0230654 0.000436281
0.00125 -1.0842e-19 0.00865601 0.12317 -0.0232943 0.000452991
-0.00874999 -1.0842e-19 0.00116944 0.0670901 -0.0182236 6.52907e-05
0.00875 0 0.00116944 0.0674308 -0.0195484 8.12191e-05
0.005 -4.51751e-21 0.00736599 0.118639 -0.0237999 0.000419577
-0.005 0 0.00736599 0.118234 -0.0228716 0.000361447
-0.0075 4.51751e-21 0.00480076 0.106141 -0.0225666 0.000242192
0.0075 -4.51751e-21 0.00480076 0.106706 -0.0239773 0.00030113
-0.00375 0 0.008656 0.122965 -0.0228399 0.000420188
0.00375 0 0.00865601 0.123274 -0.0235266 0.00047034
-0.00875 0 0.00356872 0.0988674 -0.0222363 0.000182526
0.00875 0 0.00356873 0.0994898 -0.0238811 0.000233815
0.00984798 0 0 0 0 0
-0.00984799 0 0 0 0 0
0.00984798 0 0.000142211 0.00821716 -0.00236582 9.653e-06
-0.00984799 0 0.000142213 0.00817304 -0.0022067 7.76988e-06
3.33589e-10 0 0.0099455 0.126568 -0.0229334 0.000494598
0.00999999 0 0 0 0 0
-0.01 2.71051e-20 0 0 0 0
0.010152 0 0 0 0 0
-0.010152 0 0 0 0 0
0.010152 0 0.000142211 0.00822366 -0.00238988 9.9594e-06
-0.010152 0 0.000142213 0.0081669 -0.00218527 7.5375e-06
-0.0025 0 0.0099455 0.126466 -0.0227097 0.000476296
0.0025 0 0.0099455 0.126672 -0.0231603 0.000513599
-0.01 1.35525e-20 0.00234132 0.0828328 -0.0201161 0.000121445
0.01 -4.51751e-21 0.00234132 0.0833821 -0.0218121 0.000159735
0.0075 -4.51751e-21 0.00736599 0.118744 -0.024041 0.000435533
-0.0075 0 0.00736599 0.118136 -0.0226481 0.000348249
0.00875 1.0842e-19 0.00608215 0.114114 -0.0243228 0.000380361
-0.00875 2.1684e-19 0.00608215 0.113417 -0.0226755 0.000293842
0.00625 0 0.00865601 0.12338 -0.0237625 0.000488355
-0.00625 0 0.00865601 0.122865 -0.0226177 0.000404695
-0.01 -9.03502e-21 0.00480076 0.10605 -0.0223441 0.000233631
0.01 -4.51751e-21 0.00480076 0.106804 -0.0242258 0.000312318
0.005 0 0.0099455 0.126776 -0.0233906 0.000533325
-0.005 0 0.0099455 0.126366 -0.0224892 0.00045867
-0.00125 1.0842e-19 0.011217 0.129951 -0.0225772 0.00053403
0.00125 1.0842e-19 0.011217 0.130053 -0.0227989 0.000554602
0.01125 -1.0842e-19 0.00116943 0.0674805 -0.019749 8.381e-05
-0.01125 0 0.00116944 0.0670424 -0.0180453 6.33259e-05
0.01125 1.0842e-19 0.00356872 0.0995829 -0.0241317 0.000242302
-0.01125 1.0842e-19 0.00356872 0.0987821 -0.022016 0.000176268
0.00375 0 0.011217 0.130157 -0.0230239 0.000575956
-0.00375 2.1684e-19 0.011217 0.12985 -0.0223586 0.000514215
-0.00875 0 0.008656 0.122765 -0.0223986 0.000389785
0.00875 -1.0842e-19 0.00865601 0.123487 -0.0240018 0.000507055
-0.012348 -2.71051e-20 0 0 0 0
0.012348 0 0 0 0 0
-0.012348 0 0.000142215 0.00816699 -0.00218529 7.53759e-06
0.012348 -2.71051e-20 0.000142198 0.0082229 -0.00238966 9.95848e-06
0.01 -4.51751e-21 0.00736599 0.11885 -0.0242858 0.000452099
-0.01 0 0.00736599 0.118039 -0.0224279 0.000335552
0.0075 0 0.0099455 0.126883 -0.0236244 0.000553801
-0.0075 0 0.0099455 0.126266 -0.0222719 0.0004417
6.54477e-11 0 0.0124872 0.132767 -0.022419 0.00058996
0.0125 0 0 0 0 0
-0.0125 0 0 0 0 0
0.012652 0 0 0 0 0
-0.012652 2.71051e-20 0 0 0 0
0.012652 -2.71051e-20 0.000142198 0.00822946 -0.00241406 1.02726e-05
-0.012652 2.71051e-20 0.000142215 0.00816091 -0.00216416 7.31321e-06
0.0125 4.51751e-21 0.00234132 0.0834538 -0.0220393 0.000165345
-0.0125 9.03502e-21 0.00234132 0.0827668 -0.0199185 0.000117424
-0.0025 4.51751e-21 0.0124872 0.132666 -0.0222023 0.00056811
0.0025 4.51751e-21 0.0124872 0.132868 -0.0226389 0.000612638
0.01125 0 0.00608215 0.114219 -0.0245731 0.000394705
-0.01125 -1.0842e-19 0.00608215 0.113321 -0.0224543 0.000283283
-0.00625 0 0.011217 0.12975 -0.0221431 0.000495131
0.00625 0 0.011217 0.130263 -0.023252 0.000598121
0.0125 0 0.00480076 0.106904 -0.0244783 0.000323928
-0.0125 -4.51751e-21 0.00480076 0.10596 -0.022125 0.000225396
-0.005 4.51751e-21 0.0124872 0.132568 -0.0219885 0.000547064
0.005 4.51751e-21 0.0124872 0.132972 -0.0228618 0.000636174
0.01375 0 0.00116944 0.0675307 -0.0199525 8.64664e-05
-0.01375 0 0.00116944 0.066995 -0.0178696 6.14302e-05
-0.00125 0 0.0137433 0.135471 -0.0220436 0.000623458
0.00125 0 0.0137433 0.135571 -0.0222584 0.000647393
0.01 0 0.0099455 0.126991 -0.0238615 0.000575053
-0.01 9.03502e-21 0.0099455 0.126168 -0.0220577 0.000425363
-0.01125 0 0.008656 0.122667 -0.0221828 0.000375438
0.01125 0 0.00865601 0.123596 -0.0242448 0.000526467
0.01375 0 0.00356873 0.0996771 -0.0243864 0.000251093
-0.01375 -1.0842e-19 0.00356872 0.0986978 -0.0217991 0.000170246
0.00875 2.1684e-19 0.011217 0.130369 -0.0234835 0.000621125
-0.00875 0 0.011217 0.129652 -0.0219306 0.000476754
0.00375 -1.0842e-19 0.0137433 0.135672 -0.0224762 0.000672232
-0.00375 -1.0842e-19 0.0137433 0.135374 -0.0218317 0.000600397
0.0125 -4.51751e-21 0.00736599 0.118958 -0.0245344 0.000469296
-0.0125 0 0.00736599 0.117943 -0.022211 0.000323336
0.0075 4.51751e-21 0.0124872 0.133077 -0.0230879 0.0006606
-0.0075 0 0.0124872 0.13247 -0.0217777 0.000526793
-0.014848 -2.71051e-20 0 0 0 0
0.014848 0 0 0 0 0
-0.014848 -2.71051e-20 0.000142216 0.008161 -0.00216418 7.3133e-06
0.014848 2.71051e-20 0.000142196 0.00822937 -0.00241403 1.02725e-05
6.19684e-12 -4.51751e-21 0.0149986 0.137879 -0.0218808 0.000678745
0.015 0 0 0 0 0
-0.015 0 0 0 0 0
-0.01375 -1.0842e-19 0.00608215 0.113227 -0.0222364 0.000273127
0.01375 0 0.00608215 0.114325 -0.0248275 0.000409596
0.00625 1.0842e-19 0.0137433 0.135775 -0.0226971 0.000698006
-0.00625 0 0.0137433 0.135276 -0.0216227 0.000578183
0.015152 0 0 0 0 0
-0.015152 0 0 0 0 0
0.015152 0 0.000142196 0.008236 -0.00243878 1.05961e-05
-0.015152 0 0.000142217 0.00815495 -0.00214335 7.09778e-06
0.015 -4.51751e-21 0.00234132 0.0835262 -0.02227 0.000171147
-0.015 -4.51751e-21 0.00234132 0.0827013 -0.0197238 0.000113557
-0.0025 4.51751e-21 0.0149986 0.137782 -0.0216706 0.00065378
0.0025 0 0.0149986 0.137978 -0.0220938 0.000704652
0.015 4.51751e-21 0.00480076 0.107005 -0.0247349 0.000335971
-0.015 1.35525e-20 0.00480076 0.105872 -0.0219093 0.000217477
0.005 4.51751e-21 0.0149986 0.138078 -0.0223098 0.000731535
-0.005 4.51751e-21 0.0149986 0.137687 -0.0214633 0.000629729
0.01125 -1.0842e-19 0.011217 0.130478 -0.0237184 0.000644996
-0.01125 -1.0842e-19 0.011217 0.129555 -0.021721 0.000459059
0.0125 4.51751e-21 0.0099455 0.1271 -0.0241023 0.000597107
-0.0125 1.35525e-20 0.0099455 0.126071 -0.0218465 0.000409639
0.01 4.51751e-21 0.0124872 0.133183 -0.0233173 0.000685945
-0.01 4.51751e-21 0.0124872 0.132374 -0.0215699 0.000507272
-0.01375 0 0.00865601 0.122571 -0.02197 0.000361632
0.01375 0 0.00865601 0.123706 -0.0244916 0.000546613
-0.01625 0 0.00116944 0.0669479 -0.0176964 5.9608e-05
0.01625 -1.0842e-19 0.00116944 0.0675811 -0.0201589 8.9202e-05
-0.00875 0 0.0137433 0.135181 -0.0214165 0.000556788
0.00875 0 0.0137433 0.135879 -0.0229211 0.000724752
-0.00125 -1.0842e-19 0.0162494 0.140187 -0.0215067 0.000708541
0.00125 -1.0842e-19 0.0162494 0.140282 -0.021715 0.00073546
-0.01625 1.0842e-19 0.00356872 0.0986143 -0.0215856 0.000164459
0.01625 0 0.00356873 0.0997725 -0.0246454 0.000260208
-0.00375 0 0.0162494 0.140092 -0.0213012 0.000682604
0.00375 0 0.0162494 0.140379 -0.0219262 0.000763393
-0.015 -9.03502e-21 0.00736599 0.117848 -0.0219972 0.000311585
0.015 0 0.00736599 0.119066 -0.0247869 0.000487142
0.0075 4.51751e-21 0.0149986 0.13818 -0.0225287 0.000759428
-0.0075 0 0.0149986 0.137593 -0.0212588 0.000606562
-0.017348 0 0 0 0 0
0.017348 -2.71051e-20 0 0 0 0
-0.017348 0 0.000142217 0.00815495 -0.00214335 7.09778e-06
0.017348 0 0.000142194 0.0082359 -0.00243875 1.0596e-05
0.01625 1.0842e-19 0.00608215 0.114432 -0.0250859 0.000425051
-0.01625 1.0842e-19 0.00608215 0.113134 -0.0220216 0.000263364
0.00625 0 0.0162494 0.140479 -0.0221402 0.000792374
-0.00625 0 0.0162494 0.14 -0.0210983 0.000657616
5.01941e-14 -4.51751e-21 0.0175 0.14233 -0.0213461 0.000763874
0.0175 0 0 0 0 0
-0.0175 0 0 0 0 0
0.017652 0 0 0 0 0
-0.017652 0 0 0 0 0
0.017652 0 0.000142194 0.00824259 -0.00246385 1.09295e-05
-0.017652 0 0.000142216 0.00814893 -0.00212282 6.89156e-06
-0.0175 -9.03502e-21 0.00234132 0.0826364 -0.019532 0.000109844
0.0175 1.35525e-20 0.00234132 0.0835994 -0.0225043 0.000177152
0.0125 4.51751e-21 0.0124872 0.133292 -0.02355 0.000712236
-0.0125 9.03502e-21 0.0124872 0.132279 -0.0213648 0.000488476
-0.0025 0 0.0175 0.142237 -0.0211422 0.000736136
0.0025 -4.51751e-21 0.0175 0.142424 -0.0215527 0.000792658
0.01375 -1.0842e-19 0.011217 0.130589 -0.0239567 0.000669758
-0.01375 -1.0842e-19 0.011217 0.129459 -0.0215144 0.000442027
-0.01125 1.0842e-19 0.0137433 0.135088 -0.0212132 0.000536183
0.01125 0 0.0137433 0.135986 -0.0231483 0.000752496
0.015 9.03502e-21 0.0099455 0.127212 -0.0243466 0.000619986
-0.015 4.51751e-21 0.0099455 0.125975 -0.0216383 0.000394505
0.01 4.51751e-21 0.0149986 0.138283 -0.0227507 0.000788363
-0.01 0 0.0149986 0.137501 -0.021057 0.000584248
-0.0175 1.35525e-20 0.00480076 0.105784 -0.0216967 0.000209867
0.0175 1.807e-20 0.00480076 0.107107 -0.0249957 0.000348462
0.005 4.51751e-21 0.0175 0.14252 -0.0217621 0.000822524
-0.005 0 0.0175 0.142146 -0.020941 0.000709411
0.01625 -1.0842e-19 0.008656 0.123818 -0.024742 0.000567515
-0.01625 -1.0842e-19 0.008656 0.122475 -0.0217602 0.000348347
-0.00875 1.0842e-19 0.0162494 0.139909 -0.0208982 0.000633548
0.00875 0 0.0162494 0.14058 -0.0223571 0.000822438
0.01875 -1.0842e-19 0.00116944 0.067632 -0.0203682 9.20194e-05
-0.01875 0 0.00116944 0.066901 -0.0175258 5.7864e-05
0.00125 2.1684e-19 0.01875 0.14447 -0.0211825 0.00082052
-0.00125 0 0.01875 0.144379 -0.0209803 0.000790934
-0.0175 -9.03502e-21 0.00736599 0.117754 -0.0217865 0.00030028
0.0175 0 0.00736599 0.119177 -0.0250434 0.000505659
0.0075 4.51751e-21 0.0175 0.142618 -0.0219743 0.000853505
-0.0075 0 0.0175 0.142056 -0.0207425 0.000683667
0.01875 0 0.00356873 0.0998692 -0.0249086 0.000269653
-0.01875 0 0.00356872 0.0985316 -0.0213752 0.000158906
0.00375 1.0842e-19 0.01875 0.144564 -0.0213873 0.000851218
-0.00375 1.0842e-19 0.01875 0.144289 -0.0207809 0.000762426
0.01375 1.0842e-19 0.0137433 0.136094 -0.0233786 0.000781267
-0.01375 0 0.0137433 0.134995 -0.0210126 0.00051634
-0.015 9.03502e-21 0.0124872 0.132186 -0.0211626 0.000470378
0.015 9.03502e-21 0.0124872 0.133402 -0.023786 0.000739503
0.0125 0 0.0149986 0.138389 -0.0229758 0.000818371
-0.0125 0 0.0149986 0.13741 -0.0208579 0.000562759
-0.01875 1.0842e-19 0.00608215 0.113041 -0.0218101 0.000253976
0.01875 1.0842e-19 0.00608215 0.114541 -0.0253486 0.000441084
0.01625 -1.0842e-19 0.011217 0.130701 -0.0241985 0.000695443
-0.01625 -1.0842e-19 0.011217 0.129364 -0.0213106 0.000425629
0.01125 2.1684e-19 0.0162494 0.140683 -0.0225771 0.000853619
-0.01125 1.0842e-19 0.0162494 0.13982 -0.0207007 0.000610366
-0.00625 1.0842e-19 0.01875 0.144201 -0.0205839 0.000734961
0.00625 -1.0842e-19 0.01875 0.144658 -0.0215948 0.000883066
-0.019848 0 0 0 0 0
0.019848 0 0 0 0 0
-0.019848 0 0.000142216 0.00814888 -0.00212281 6.89152e-06
0.019848 0 0.000142193 0.00824254 -0.00246383 1.09294e-05
0.02 0 0 0 0 0
-0.02 2.71051e-20 0 0 0 0
-9.82524e-15 0 0.02 0.14633 -0.0208253 0.000846578
-0.0175 0 0.0099455 0.12588 -0.021433 0.000379936
0.0175 9.03502e-21 0.0099455 0.127325 -0.0245946 0.00064372
-0.02 4.51751e-21 0.00234132 0.082572 -0.0193431 0.00010628
0.02 1.35525e-20 0.00234132 0.0836735 -0.0227422 0.000183362
0.020152 0 0 0 0 0
-0.020152 0 0 0 0 0
0.020152 0 0.000142194 0.00824931 -0.00248928 1.12717e-05
-0.020152 0 0.000142216 0.00814292 -0.00210256 6.69316e-06
0.01 0 0.0175 0.142718 -0.0221893 0.000885637
-0.01 0 0.0175 0.141969 -0.0205465 0.000658871
0.0025 4.51751e-21 0.02 0.14642 -0.0210258 0.000877943
-0.0025 0 0.02 0.146242 -0.0206274 0.000816354
-0.02 9.03502e-21 0.00480076 0.105697 -0.0214874 0.000202553
0.02 1.35525e-20 0.00480076 0.10721 -0.0252608 0.000361412
0.005 9.03502e-21 0.02 0.146512 -0.0212289 0.000910486
-0.005 0 0.02 0.146155 -0.0204321 0.000787233
-0.01875 1.0842e-19 0.008656 0.122379 -0.0215535 0.000335558
0.01875 2.1684e-19 0.008656 0.123931 -0.0249964 0.0005892
-0.00875 2.1684e-19 0.01875 0.144115 -0.0203895 0.000708507
0.00875 1.0842e-19 0.01875 0.144755 -0.0218051 0.000916096
0.015 0 0.0149986 0.138497 -0.0232041 0.000849483
-0.015 0 0.0149986 0.13732 -0.0206615 0.000542065
-0.02125 0 0.00116944 0.0668545 -0.0173576 5.61855e-05
0.02125 1.0842e-19 0.00116944 0.0676833 -0.0205806 9.49109e-05
0.01625 0 0.0137433 0.136205 -0.0236123 0.000811098
-0.01625 0 0.0137433 0.134904 -0.0208146 0.000497232
-0.01375 1.0842e-19 0.0162494 0.139732 -0.0205058 0.000588041
0.01375 2.1684e-19 0.0162494 0.140788 -0.0228 0.000885949
0.00125 0 0.02125 0.148279 -0.0206674 0.000903407
-0.00125 0 0.02125 0.148192 -0.0204712 0.000871422
-0.02 -9.03502e-21 0.00736599 0.117661 -0.0215788 0.000289403
0.02 4.51751e-21 0.00736599 0.119289 -0.0253039 0.000524866
0.0075 4.51751e-21 0.02 0.146606 -0.0214347 0.000944242
-0.0075 0 0.02 0.14607 -0.0202392 0.000759181
-0.0175 4.51751e-21 0.0124872 0.132094 -0.0209631 0.000452952
0.0175 9.03502e-21 0.0124872 0.133515 -0.0240255 0.000767777
0.0125 0 0.0175 0.14282 -0.0224073 0.000918955
-0.0125 0 0.0175 0.141882 -0.0203531 0.000634989
-0.02125 0 0.00356872 0.0984496 -0.0211682 0.000153571
0.02125 -1.0842e-19 0.00356873 0.0999675 -0.0251763 0.000279431
-0.00375 1.0842e-19 0.02125 0.148107 -0.0202774 0.000840604
0.00375 -1.0842e-19 0.02125 0.148368 -0.0208661 0.000936596
0.01875 0 0.011217 0.130816 -0.0244439 0.000722082
-0.01875 -1.0842e-19 0.011217 0.129271 -0.0211096 0.000409843
-0.01125 1.0842e-19 0.01875 0.14403 -0.0201977 0.000683028
0.01125 0 0.01875 0.144854 -0.0220181 0.000950348
-0.02125 -1.0842e-19 0.00608215 0.11295 -0.0216016 0.000244948
0.02125 0 0.00608215 0.114652 -0.0256153 0.000457712
0.00625 0 0.02125 0.148459 -0.0210674 0.000971029
-0.00625 0 0.02125 0.148023 -0.0200861 0.000810914
-0.02 4.51751e-21 0.0099455 0.125787 -0.0212305 0.000365912
0.02 4.51751e-21 0.0099455 0.12744 -0.0248463 0.000668334
-0.022348 0 0 0 0 0
0.022348 0 0 0 0 0
-0.022348 0 0.000142214 0.00814282 -0.00210254 6.69309e-06
0.022348 0 0.000142196 0.00824946 -0.00248933 1.12719e-05
0.01 0 0.02 0.146702 -0.0216431 0.00097925
-0.01 0 0.02 0.145987 -0.0200488 0.000732164
-0.0225 0 0 0 0 0
0.0225 0 0 0 0 0
-9.82515e-15 0 0.0225 0.149991 -0.0203238 0.00092753
-0.0225 9.03502e-21 0.00234132 0.0825081 -0.019157 0.000102854
0.0225 4.51751e-21 0.00234132 0.0837485 -0.0229839 0.000189773
0.0025 4.51751e-21 0.0225 0.150077 -0.0205184 0.000961231
-0.0025 4.51751e-21 0.0225 0.149907 -0.0201316 0.000895056
0.022652 0 0 0 0 0
-0.022652 0 0 0 0 0
0.022652 0 0.000142196 0.00825632 -0.00251512 1.16223e-05
-0.022652 2.71051e-20 0.000142214 0.00813689 -0.00208259 6.50269e-06
-0.02125 -2.1684e-19 0.008656 0.122286 -0.0213495 0.000323248
0.02125 0 0.00865601 0.124048 -0.0252547 0.000611689
-0.01625 2.1684e-19 0.0162494 0.139645 -0.0203135 0.000566543
0.01625 2.1684e-19 0.0162494 0.140895 -0.023026 0.00091946
0.00875 1.0842e-19 0.02125 0.148552 -0.0212714 0.00100674
-0.00875 2.1684e-19 0.02125 0.147941 -0.0198973 0.000782317
-0.0225 -9.03502e-21 0.00480076 0.10561 -0.0212811 0.000195522
0.0225 4.51751e-21 0.00480076 0.107315 -0.0255302 0.000374831
0.0175 0 0.0149986 0.138606 -0.0234355 0.000881735
-0.0175 0 0.0149986 0.137232 -0.0204676 0.000522137
0.015 0 0.0175 0.142924 -0.0226282 0.000953494
-0.015 0 0.0175 0.141798 -0.0201622 0.000611992
0.005 9.03502e-21 0.0225 0.150164 -0.0207155 0.000996197
-0.005 4.51751e-21 0.0225 0.149824 -0.0199419 0.00086377
0.01875 1.0842e-19 0.0137433 0.136317 -0.0238492 0.000842024
-0.01875 -1.0842e-19 0.0137433 0.134815 -0.0206193 0.000478833
-0.01375 1.0842e-19 0.01875 0.143947 -0.0200082 0.00065849
0.01375 0 0.01875 0.144956 -0.0222341 0.000985857
-0.02 0 0.0124872 0.132003 -0.0207663 0.000436175
0.02 4.51751e-21 0.0124872 0.133629 -0.0242684 0.000797091
0.0125 0 0.02 0.1468 -0.0218543 0.00101555
-0.0125 0 0.02 0.145905 -0.0198608 0.000706145
-0.0225 -4.51751e-21 0.00736599 0.117568 -0.0213741 0.000278938
0.0225 4.51751e-21 0.00736599 0.119403 -0.0255685 0.000544782
-0.0075 0 0.0225 0.149743 -0.0197545 0.000833632
0.0075 9.03502e-21 0.0225 0.150254 -0.0209151 0.00103247
-0.02375 0 0.00116944 0.0668081 -0.017192 5.45732e-05
0.02375 0 0.00116944 0.0677351 -0.0207959 9.78693e-05
0.00125 1.0842e-19 0.02375 0.151787 -0.0201736 0.000984715
-0.00125 1.0842e-19 0.02375 0.151704 -0.0199831 0.000950545
-0.02375 0 0.00356872 0.0983684 -0.0209642 0.000148445
0.02375 -2.1684e-19 0.00356872 0.100067 -0.0254484 0.000289548
0.02125 2.1684e-19 0.011217 0.130932 -0.0246929 0.000749702
-0.02125 -1.0842e-19 0.011217 0.129179 -0.0209114 0.000394643
0.01125 0 0.02125 0.148646 -0.0214779 0.00104378
-0.01125 1.0842e-19 0.02125 0.147861 -0.0197108 0.000754778
0.00375 0 0.02375 0.151872 -0.0203665 0.00102017
-0.00375 -1.0842e-19 0.02375 0.151623 -0.0197949 0.000917623
-0.02375 -2.1684e-19 0.00608215 0.112859 -0.0213961 0.000236267
0.02375 0 0.00608215 0.114764 -0.0258865 0.000474955
-0.00625 0 0.02375 0.151543 -0.019609 0.000885908
0.00625 -1.0842e-19 0.02375 0.151958 -0.0205618 0.00105696
-0.0225 4.51751e-21 0.0099455 0.125695 -0.0210308 0.000352411
0.0225 4.51751e-21 0.0099455 0.127557 -0.0251018 0.000693853
0.01 4.51751e-21 0.0225 0.150346 -0.0211172 0.00107008
-0.01 0 0.0225 0.149664 -0.0195694 0.000804608
0.0175 0 0.0175 0.14303 -0.0228521 0.00098929
-0.0175 0 0.0175 0.141714 -0.0199737 0.000589849
-0.01875 2.1684e-19 0.0162494 0.13956 -0.0201236 0.000545842
0.01875 -1.0842e-19 0.0162494 0.141004 -0.0232551 0.000954193
0.01625 -1.0842e-19 0.01875 0.145058 -0.0224529 0.00102266
-0.01625 0 0.01875 0.143865 -0.0198212 0.000634864
-0.024848 2.71051e-20 0 0 0 0
0.024848 0 0 0 0 0
-0.024848 0 0.000142213 0.00813684 -0.00208258 6.50265e-06
0.024848 -2.71051e-20 0.00014221 0.00825713 -0.00251537 1.16234e-05
0.02 0 0.0149986 0.138718 -0.0236701 0.000915162
-0.02 0 0.0149986 0.137146 -0.0202763 0.00050295
-0.025 2.71051e-20 0 0 0 0
0.015 0 0.02 0.1469 -0.0220683 0.00105317
-9.82486e-15 0 0.025 0.153384 -0.0198428 0.00100672
-0.015 4.51751e-21 0.02 0.145825 -0.0196752 0.00068109
0.025 2.71051e-20 0 0 0 0
-0.025 -1.35525e-20 0.00234132 0.0824447 -0.0189737 9.95643e-05
0.025 0 0.00234132 0.0838243 -0.0232292 0.000196389
0.0025 0 0.025 0.153466 -0.0200317 0.00104253
-0.0025 4.51751e-21 0.025 0.153303 -0.0196563 0.000972205
0.025152 0 0 0 0 0
-0.025152 0 0 0 0 0
0.025152 0 0.00014221 0.00826407 -0.00254151 1.19821e-05
-0.025152 0 0.000142213 0.00813096 -0.00206291 6.31996e-06
-0.02375 1.0842e-19 0.008656 0.122194 -0.0211485 0.000311402
0.02375 0 0.008656 0.124165 -0.0255168 0.000635002
-0.02125 2.1684e-19 0.0137433 0.134726 -0.0204265 0.000461119
0.02125 0 0.0137433 0.136431 -0.0240896 0.000874077
-0.01375 2.1684e-19 0.02125 0.147783 -0.0195266 0.000728259
-0.00875 0 0.02375 0.151466 -0.0194255 0.000855361
0.01375 0 0.02125 0.148743 -0.0216871 0.00108217
0.00875 -1.0842e-19 0.02375 0.152048 -0.0207597 0.00109511
-0.025 -4.51751e-21 0.00480076 0.105525 -0.0210779 0.000188763
0.025 0 0.00480076 0.107422 -0.0258041 0.000388732
0.005 4.51751e-21 0.025 0.15355 -0.0202229 0.00107969
-0.005 4.51751e-21 0.025 0.153224 -0.019472 0.000938958
0.0225 4.51751e-21 0.0124872 0.133746 -0.0245148 0.000827474
-0.0225 0 0.0124872 0.131913 -0.0205721 0.000420022
-0.0125 0 0.0225 0.149587 -0.0193867 0.00077666
0.0125 0 0.0225 0.15044 -0.0213219 0.00110908
-0.025 4.51751e-21 0.00736599 0.117477 -0.0211722 0.00026887
0.025 0 0.00736599 0.119519 -0.0258373 0.000565427
0.0075 9.03502e-21 0.025 0.153637 -0.0204165 0.00111822
-0.0075 0 0.025 0.153147 -0.0192899 0.000906932
0.02375 -1.0842e-19 0.011217 0.13105 -0.0249456 0.00077833
-0.02375 0 0.011217 0.129088 -0.0207157 0.00038001
-0.02625 1.0842e-19 0.00116944 0.0667621 -0.0170286 5.30268e-05
0.02625 -1.0842e-19 0.00116944 0.0677874 -0.0210141 0.000100896
0.00125 1.0842e-19 0.02625 0.155062 -0.0196998 0.00106386
-0.01125 2.1684e-19 0.02375 0.151389 -0.0192442 0.000825949
0.01125 -1.0842e-19 0.02375 0.152138 -0.0209599 0.00113467
-0.00125 1.0842e-19 0.02625 0.154982 -0.0195149 0.00102772
-0.02625 2.1684e-19 0.00356872 0.098288 -0.0207632 0.00014352
0.02625 0 0.00356872 0.100167 -0.025725 0.000300014
0.01875 0 0.01875 0.145164 -0.0226746 0.00106079
0.00375 -1.0842e-19 0.02625 0.155144 -0.019887 0.00110135
-0.00375 0 0.02625 0.154904 -0.0193322 0.000992903
-0.01875 0 0.01875 0.143785 -0.0196366 0.000612116
-0.02 0 0.0175 0.141632 -0.0197876 0.000568529
0.02 0 0.0175 0.143139 -0.0230791 0.00102638
0.0175 0 0.02 0.147002 -0.0222851 0.00109216
-0.0175 4.51751e-21 0.02 0.145746 -0.0194919 0.000656969
0.02125 0 0.0162494 0.141115 -0.0234873 0.000990185
-0.02125 1.0842e-19 0.0162494 0.139476 -0.0199362 0.000525911
0.01625 0 0.02125 0.148843 -0.0218991 0.00112196
-0.01625 0 0.02125 0.147705 -0.0193447 0.000702726
-0.025 4.51751e-21 0.0099455 0.125603 -0.0208338 0.000339415
0.025 4.51751e-21 0.0099455 0.127676 -0.0253612 0.000720303
0.01 4.51751e-21 0.025 0.153725 -0.0206125 0.00115819
-0.01 0 0.025 0.153072 -0.0191101 0.000876089
-0.02625 -1.0842e-19 0.00608215 0.11277 -0.0211936 0.000227921
0.02625 0 0.00608215 0.114878 -0.026162 0.000492824
-0.00625 1.0842e-19 0.02625 0.154828 -0.0191517 0.000959365
0.00625 -1.0842e-19 0.02625 0.155227 -0.0200765 0.00114023
0.0225 0 0.0149986 0.138832 -0.0239081 0.000949801
-0.0225 0 0.0149986 0.13706 -0.0200874 0.000484477
0.015 0 0.0225 0.150536 -0.0215292 0.00114951
-0.015 4.51751e-21 0.0225 0.149511 -0.0192062 0.000749751
-0.027348 0 0 0 0 0
0.027348 0 0 0 0 0
-0.027348 -2.71051e-20 0.000142212 0.00813091 -0.0020629 6.31992e-06
0.027348 0 0.000142212 0.00826417 -0.00254154 1.19823e-05
0.02375 -1.0842e-19 0.0137433 0.136548 -0.0243333 0.000907292
-0.02375 -1.0842e-19 0.0137433 0.134639 -0.0202363 0.000444064
0.01375 -1.0842e-19 0.02375 0.152231 -0.0211627 0.00117568
-0.01375 1.0842e-19 0.02375 0.151315 -0.0190651 0.000797628
-9.82495e-15 0 0.0275 0.156575 -0.0193802 0.00108314
0.0275 2.71051e-20 0 0 0 0
-0.0275 2.71051e-20 0 0 0 0
-0.0275 9.03502e-21 0.00234132 0.0823819 -0.018793 9.6408e-05
0.0275 1.35525e-20 0.00234132 0.0839013 -0.0234784 0.000203214
0.0025 0 0.0275 0.156655 -0.0195634 0.00112084
-0.0025 0 0.0275 0.156497 -0.0191992 0.00104681
0.02625 0 0.00865601 0.124285 -0.0257831 0.000659167
-0.02625 -1.0842e-19 0.00865601 0.122101 -0.0209502 0.000300001
-0.027652 0 0 0 0 0
0.027652 0 0 0 0 0
-0.027652 0 0.000142212 0.00812508 -0.00204352 6.14558e-06
0.027652 0 0.000142212 0.0082712 -0.00256802 1.23491e-05
0.00875 0 0.02625 0.155314 -0.0202682 0.00118056
-0.00875 0 0.02625 0.154753 -0.0189734 0.000927062
-0.0275 0 0.00480076 0.10544 -0.0208777 0.000182269
0.0275 -4.51751e-21 0.00480076 0.10753 -0.0260824 0.000403125
0.025 4.51751e-21 0.0124872 0.133864 -0.0247647 0.000858959
-0.025 0 0.0124872 0.131824 -0.0203804 0.00040447
0.005 0 0.0275 0.156737 -0.0197488 0.00115994
-0.005 0 0.0275 0.15642 -0.0190204 0.00101181
0.0125 0 0.025 0.153816 -0.0208109 0.00119962
-0.0125 0 0.025 0.152999 -0.0189324 0.000846392
-0.02 0 0.02 0.145669 -0.0193109 0.000633747
0.02 0 0.02 0.147107 -0.0225047 0.00113256
0.01875 1.0842e-19 0.02125 0.148944 -0.0221137 0.00116319
-0.02125 0 0.01875 0.143706 -0.0194542 0.000590218
0.02125 2.1684e-19 0.01875 0.145271 -0.0228993 0.0011003
-0.01875 0 0.02125 0.147629 -0.0191651 0.000678146
-0.0275 4.51751e-21 0.00736599 0.117387 -0.0209732 0.000259187
0.0275 -4.51751e-21 0.00736599 0.119637 -0.0261103 0.000586824
0.0225 0 0.0175 0.14325 -0.0233091 0.00106481
-0.0225 0 0.0175 0.141551 -0.0196039 0.000548005
0.0075 0 0.0275 0.156821 -0.0199364 0.0012005
-0.0075 0 0.0275 0.156346 -0.0188436 0.000978096
0.0175 0 0.0225 0.150634 -0.0217392 0.0011914
-0.0175 4.51751e-21 0.0225 0.149437 -0.0190279 0.000723847
0.02625 1.0842e-19 0.011217 0.131171 -0.025202 0.000807998
-0.02625 0 0.011217 0.128998 -0.0205227 0.00036592
0.01125 0 0.02625 0.155401 -0.0204622 0.00122237
-0.01125 -1.0842e-19 0.02625 0.15468 -0.0187972 0.000895955
-0.02875 0 0.00116944 0.0667165 -0.0168677 5.155e-05
0.02875 0 0.00116944 0.0678404 -0.0212354 0.000103993
-0.02375 1.0842e-19 0.0162494 0.139394 -0.0197512 0.000506724
0.02375 0 0.0162494 0.141229 -0.0237228 0.00102747
0.00125 0 0.02875 0.158167 -0.0192427 0.00113941
-0.01625 -1.0842e-19 0.02375 0.151242 -0.0188882 0.000770366
0.01625 0 0.02375 0.152327 -0.0213681 0.00121819
-0.00125 0 0.02875 0.158089 -0.0190635 0.00110153
-0.02875 -2.1684e-19 0.00356873 0.0982083 -0.0205653 0.000138796
0.02875 -1.0842e-19 0.00356872 0.10027 -0.0260063 0.000310831
0.00375 0 0.02875 0.158247 -0.0194241 0.00117869
-0.00375 2.1684e-19 0.02875 0.158012 -0.0188863 0.00106504
0.025 0 0.0149986 0.138949 -0.0241493 0.000985681
-0.025 0 0.0149986 0.136976 -0.019901 0.000466693
0.015 0 0.025 0.153908 -0.0210117 0.00124255
-0.015 0 0.025 0.152927 -0.0187569 0.000817801
0.0275 4.51751e-21 0.0099455 0.127797 -0.0256245 0.000747714
-0.0275 4.51751e-21 0.0099455 0.125513 -0.0206394 0.000326906
0.01 0 0.0275 0.156907 -0.0201262 0.00124255
-0.01 0 0.0275 0.156273 -0.018669 0.000945632
-0.02875 1.0842e-19 0.00608215 0.11268 -0.020994 0.000219898
0.02875 2.1684e-19 0.00608215 0.114995 -0.026442 0.000511343
0.00625 1.0842e-19 0.02875 0.158329 -0.0196076 0.00121945
-0.00625 0 0.02875 0.157937 -0.0187112 0.00102989
-0.02625 2.1684e-19 0.0137433 0.134553 -0.0200486 0.000427642
0.02625 -1.0842e-19 0.0137433 0.136667 -0.0245804 0.0009417
0.01375 0 0.02625 0.155492 -0.0206587 0.0012657
-0.01375 0 0.02625 0.154609 -0.0186231 0.000866006
0.029848 -2.71051e-20 0 0 0 0
-0.029848 2.71051e-20 0 0 0 0
0.029848 -2.71051e-20 0.000142214 0.0082713 -0.00256805 1.23493e-05
-0.029848 0 0.00014221 0.00812494 -0.00204348 6.14547e-06
-0.03 0 0 0 0 0
-9.82515e-15 0 0.03 0.159601 -0.0189353 0.00115545
0.03 0 0 0 0 0
-0.02875 0 0.00865601 0.122011 -0.0207546 0.000289032
0.02875 0 0.00865601 0.124406 -0.0260535 0.000684212
0.00875 1.0842e-19 0.02875 0.158414 -0.0197933 0.00126171
-0.00875 -1.0842e-19 0.02875 0.157865 -0.0185382 0.000996037
0.02125 0 0.02125 0.149048 -0.0223313 0.0012059
-0.02125 0 0.02125 0.147556 -0.0189877 0.000654487
-0.03 -4.51751e-21 0.00234132 0.0823196 -0.018615 9.33845e-05
0.03 -1.35525e-20 0.00234132 0.0839795 -0.0237313 0.000210248
0.0025 0 0.03 0.15968 -0.0191127 0.0011948
-0.02 0 0.0225 0.149364 -0.0188517 0.000698913
0.0225 0 0.02 0.147214 -0.0227272 0.0011744
0.02 0 0.0225 0.150735 -0.0219518 0.00123479
-0.0225 0 0.02 0.145593 -0.0191322 0.000611395
-0.0025 0 0.03 0.159524 -0.0187599 0.00111753
-0.030152 0 0 0 0 0
0.030152 0 0 0 0 0
-0.030152 0 0.000142209 0.00811913 -0.00202436 5.97931e-06
0.030152 0 0.000142214 0.00827846 -0.00259489 1.27235e-05
0.0275 4.51751e-21 0.0124872 0.133985 -0.0250184 0.000891576
-0.0275 0 0.0124872 0.131737 -0.0201913 0.000389496
0.0125 0 0.0275 0.156995 -0.0203183 0.00128613