# UMean  POINT_DATA 34923
# x  y  z  UMean_x  UMean_y  UMean_z
4.08021e-10 0 0 0 0 0
-0.000152009 0 0 0 0 0
0.000152011 0 0 0 0 0
-0.000152008 0 0.000142211 0.00810793 -0.00220846 8.7791e-06
0.00015201 0 0.000142211 0.00811341 -0.00223108 9.04924e-06
-0.00125 0 0.00116944 0.0665462 -0.0182437 7.38174e-05
0.00125001 0 0.00116943 0.066588 -0.0184319 7.61147e-05
3.54797e-09 4.51751e-21 0.00234132 0.0825298 -0.0203216 0.000143435
-0.00234799 0 0 0 0 0
0.00234801 0 0 0 0 0
-0.00234799 0 0.00014221 0.00810788 -0.00220845 8.77905e-06
0.00234801 0 0.000142211 0.00811341 -0.00223108 9.04924e-06
-0.0025 2.71051e-20 0 0 0 0
0.00250002 0 0 0 0 0
-0.00265201 0 0 0 0 0
0.00265203 2.71051e-20 0 0 0 0
-0.00265201 -2.71051e-20 0.000142211 0.00810243 -0.00218617 8.5094e-06
0.00265203 0 0.000142211 0.00811896 -0.00225403 9.3218e-06
-0.0025 0 0.00234132 0.0824687 -0.0201126 0.000138561
0.00250001 9.03502e-21 0.00234132 0.0825914 -0.0205339 0.000148406
-0.00125 0 0.00356872 0.0986802 -0.022217 0.000209069
0.00125 1.0842e-19 0.00356872 0.0987613 -0.0224504 0.000216693
-0.00374999 -1.0842e-19 0.00116944 0.0665046 -0.0180583 7.15362e-05
0.00375001 -1.0842e-19 0.00116944 0.0666301 -0.0186231 7.8463e-05
2.37366e-09 -9.03502e-21 0.00480076 0.106055 -0.0225173 0.000277941
-0.00484797 0 0 0 0 0
0.00484801 0 0 0 0 0
-0.00484797 -2.71051e-20 0.000142211 0.00810243 -0.00218617 8.5094e-06
0.00484801 0 0.000142212 0.00811901 -0.00225404 9.32185e-06
-0.00499998 2.71051e-20 0 0 0 0
0.00500002 2.71051e-20 0 0 0 0
-0.00515199 0 0 0 0 0
0.00515203 0 0 0 0 0
-0.00515199 0 0.00014221 0.00809696 -0.00216422 8.2495e-06
0.00515203 0 0.000142212 0.00812453 -0.00227731 9.59965e-06
-0.00375 1.0842e-19 0.00356873 0.0985999 -0.0219874 0.000201703
0.00375 0 0.00356872 0.0988434 -0.0226877 0.000224386
-0.0025 0 0.00480076 0.105969 -0.0222861 0.000267973
0.0025 -9.03502e-21 0.00480076 0.106142 -0.0227523 0.000288218
-0.00499999 -4.51751e-21 0.00234132 0.0824079 -0.0199069 0.000133871
0.00500001 1.35525e-20 0.00234132 0.0826536 -0.0207496 0.000153466
-0.00125 1.0842e-19 0.00608215 0.113437 -0.0225871 0.000337484
0.00125 0 0.00608215 0.11353 -0.0228195 0.000350191
-0.00624999 0 0.00116944 0.0664627 -0.0178756 6.93241e-05
0.00625001 0 0.00116944 0.066672 -0.0188169 8.08541e-05
-0.005 4.51751e-21 0.00480076 0.105883 -0.0220585 0.000258409
0.005 0 0.00480076 0.10623 -0.0229912 0.000298793
0.00375 1.0842e-19 0.00608215 0.113623 -0.0230563 0.000363343
-0.00375 0 0.00608215 0.113346 -0.0223576 0.000325246
-0.00624999 -2.1684e-19 0.00356872 0.0985199 -0.0217616 0.000194733
0.00625 0 0.00356873 0.0989267 -0.0229288 0.000232268
-0.00734797 -2.71051e-20 0 0 0 0
0.00734801 0 0 0 0 0
-0.00734797 0 0.000142211 0.00809701 -0.00216424 8.24955e-06
0.00734801 0 0.0001422 0.00812388 -0.00227713 9.59888e-06
1.06232e-09 -4.51751e-21 0.00736599 0.118214 -0.0225363 0.000400014
-0.00749998 0 0 0 0 0
0.00750001 2.71051e-20 0 0 0 0
-0.00765199 0 0 0 0 0
0.00765201 0 0 0 0 0
-0.00765199 2.71051e-20 0.000142211 0.00809162 -0.00214258 8.00239e-06
0.00765201 0 0.0001422 0.00812955 -0.00230072 9.89898e-06
-0.0025 0 0.00736599 0.118121 -0.0223086 0.000385332
0.0025 -4.51751e-21 0.00736599 0.118309 -0.0227675 0.000415264
-0.00749999 0 0.00234132 0.0823476 -0.0197042 0.000129399
0.0075 0 0.00234132 0.0827165 -0.0209686 0.000158723
-0.00625 -1.0842e-19 0.00608215 0.113256 -0.0221319 0.0003135
0.00625 1.0842e-19 0.00608215 0.113717 -0.0232969 0.000376985
-0.00125 1.0842e-19 0.008656 0.122905 -0.0222559 0.000447666
0.00125 -1.0842e-19 0.00865601 0.123 -0.022482 0.000464884
-0.00874999 -1.0842e-19 0.00116944 0.0664214 -0.0176955 6.72332e-05
0.00875 0 0.00116944 0.0667149 -0.0190135 8.33844e-05
0.005 -4.51751e-21 0.00736599 0.118405 -0.0230025 0.000431103
-0.005 0 0.00736599 0.118028 -0.0220843 0.000371201
-0.0075 4.51751e-21 0.00480076 0.105799 -0.0218343 0.00024925
0.0075 -4.51751e-21 0.00480076 0.106319 -0.0232341 0.000309785
-0.00375 0 0.008656 0.122809 -0.0220332 0.000431092
0.00375 0 0.00865601 0.123098 -0.0227116 0.000482814
-0.00875 0 0.00356872 0.0984412 -0.0215391 0.000188053
0.00875 0 0.00356873 0.0990104 -0.023174 0.000240573
0.00984798 0 0 0 0 0
-0.00984799 0 0 0 0 0
0.00984798 0 0.000142211 0.00813016 -0.00230089 9.89972e-06
-0.00984799 0 0.000142213 0.00809172 -0.0021426 8.00248e-06
3.33589e-10 0 0.0099455 0.126417 -0.0221133 0.000506505
0.00999999 0 0 0 0 0
-0.01 2.71051e-20 0 0 0 0
0.010152 0 0 0 0 0
-0.010152 0 0 0 0 0
0.010152 0 0.000142211 0.00813578 -0.00232485 1.02348e-05
-0.010152 0 0.000142213 0.00808636 -0.00212129 7.77443e-06
-0.0025 0 0.0099455 0.126321 -0.0218928 0.000487648
0.0025 0 0.0099455 0.126514 -0.0223372 0.000526111
-0.01 1.35525e-20 0.00234132 0.0822879 -0.0195046 0.000125147
0.01 -4.51751e-21 0.00234132 0.0827798 -0.0211911 0.000164316
0.0075 -4.51751e-21 0.00736599 0.118502 -0.0232412 0.00044755
-0.0075 0 0.00736599 0.117936 -0.0218633 0.000357601
0.00875 1.0842e-19 0.00608215 0.113813 -0.0235414 0.000391197
-0.00875 2.1684e-19 0.00608215 0.113167 -0.0219093 0.000302201
0.00625 0 0.00865601 0.123197 -0.0229446 0.00050145
-0.00625 0 0.00865601 0.122716 -0.0218139 0.000415119
-0.01 -9.03502e-21 0.00480076 0.105715 -0.0216134 0.000240455
0.01 -4.51751e-21 0.00480076 0.10641 -0.0234809 0.000321309
0.005 0 0.0099455 0.126613 -0.0225644 0.000546501
-0.005 0 0.0099455 0.126226 -0.0216754 0.000469491
-0.00125 1.0842e-19 0.011217 0.129817 -0.0217499 0.000545888
0.00125 1.0842e-19 0.011217 0.129915 -0.021968 0.000567094
0.01125 -1.0842e-19 0.00116943 0.0667572 -0.0192132 8.61909e-05
-0.01125 0 0.00116944 0.0663801 -0.017518 6.52903e-05
0.01125 1.0842e-19 0.00356872 0.0990955 -0.0234232 0.000249385
-0.01125 1.0842e-19 0.00356872 0.0983631 -0.0213201 0.000181692
0.00375 0 0.011217 0.130013 -0.0221896 0.000589144
-0.00375 2.1684e-19 0.011217 0.129722 -0.0215345 0.000525478
-0.00875 0 0.008656 0.122622 -0.0215976 0.00039973
0.00875 -1.0842e-19 0.00865601 0.123297 -0.0231812 0.000520757
-0.012348 -2.71051e-20 0 0 0 0
0.012348 0 0 0 0 0
-0.012348 0 0.000142215 0.00808645 -0.00212131 7.77452e-06
0.012348 -2.71051e-20 0.000142198 0.00813503 -0.00232463 1.02338e-05
0.01 -4.51751e-21 0.00736599 0.1186 -0.0234836 0.000464652
-0.01 0 0.00736599 0.117846 -0.0216454 0.000344488
0.0075 0 0.0099455 0.126713 -0.0227951 0.000567661
-0.0075 0 0.0099455 0.126133 -0.0214612 0.000452002
6.54477e-11 0 0.0124872 0.132613 -0.0215876 0.000601699
0.0125 0 0 0 0 0
-0.0125 0 0 0 0 0
0.012652 0 0 0 0 0
-0.012652 2.71051e-20 0 0 0 0
0.012652 -2.71051e-20 0.000142198 0.00814066 -0.00234892 1.05797e-05
-0.012652 2.71051e-20 0.000142215 0.00808112 -0.00210026 7.55437e-06
0.0125 4.51751e-21 0.00234132 0.0828436 -0.0214172 0.000170198
-0.0125 9.03502e-21 0.00234132 0.0822285 -0.019308 0.000121079
-0.0025 4.51751e-21 0.0124872 0.132518 -0.0213744 0.00057919
0.0025 4.51751e-21 0.0124872 0.132709 -0.0218039 0.000625086
0.01125 0 0.00608215 0.11391 -0.0237897 0.00040604
-0.01125 -1.0842e-19 0.00608215 0.113078 -0.02169 0.000291304
-0.00625 0 0.011217 0.129627 -0.0213225 0.000505824
0.00625 0 0.011217 0.130113 -0.0224144 0.000612066
0.0125 0 0.00480076 0.106501 -0.0237318 0.000333334
-0.0125 -4.51751e-21 0.00480076 0.105632 -0.021396 0.000231988
-0.005 4.51751e-21 0.0124872 0.132424 -0.0211642 0.000557526
0.005 4.51751e-21 0.0124872 0.132808 -0.0220233 0.000649383
0.01375 0 0.00116944 0.0667997 -0.0194158 8.9059e-05
-0.01375 0 0.00116944 0.066339 -0.0173431 6.33931e-05
-0.00125 0 0.0137433 0.135303 -0.0212116 0.000634398
0.00125 0 0.0137433 0.135397 -0.0214229 0.000659062
0.01 0 0.0099455 0.126814 -0.0230293 0.000589596
-0.01 9.03502e-21 0.0099455 0.126041 -0.0212499 0.000435139
-0.01125 0 0.008656 0.122532 -0.0213843 0.000384858
0.01125 0 0.00865601 0.123398 -0.0234214 0.00054081
0.01375 0 0.00356873 0.0991813 -0.0236767 0.000258517
-0.01375 -1.0842e-19 0.00356872 0.0982856 -0.0211044 0.000175561
0.00875 2.1684e-19 0.011217 0.130214 -0.0226427 0.000635818
-0.00875 0 0.011217 0.129534 -0.0211132 0.0004869
0.00375 -1.0842e-19 0.0137433 0.135493 -0.0216372 0.000684677
-0.00375 -1.0842e-19 0.0137433 0.13521 -0.0210034 0.000610658
0.0125 -4.51751e-21 0.00736599 0.1187 -0.0237298 0.00048243
-0.0125 0 0.00736599 0.117756 -0.0214308 0.000331832
0.0075 4.51751e-21 0.0124872 0.132908 -0.0222459 0.000674594
-0.0075 0 0.0124872 0.132331 -0.0209569 0.00053667
-0.014848 -2.71051e-20 0 0 0 0
0.014848 0 0 0 0 0
-0.014848 -2.71051e-20 0.000142216 0.00808121 -0.00210029 7.55445e-06
0.014848 2.71051e-20 0.000142196 0.00814057 -0.0023489 1.05795e-05
6.19684e-12 -4.51751e-21 0.0149986 0.137683 -0.0210485 0.000689711
0.015 0 0 0 0 0
-0.015 0 0 0 0 0
-0.01375 -1.0842e-19 0.00608215 0.11299 -0.0214741 0.000280766
0.01375 0 0.00608215 0.114007 -0.0240421 0.000421431
0.00625 1.0842e-19 0.0137433 0.135593 -0.0218542 0.000711263
-0.00625 0 0.0137433 0.135117 -0.0207982 0.000587816
0.015152 0 0 0 0 0
-0.015152 0 0 0 0 0
0.015152 0 0.000142196 0.00814627 -0.00237354 1.09247e-05
-0.015152 0 0.000142217 0.00807593 -0.00207957 7.33447e-06
0.015 -4.51751e-21 0.00234132 0.082908 -0.0216468 0.000176247
-0.015 -4.51751e-21 0.00234132 0.0821696 -0.0191144 0.000117112
-0.0025 4.51751e-21 0.0149986 0.13759 -0.0208422 0.000664035
0.0025 0 0.0149986 0.137776 -0.0212578 0.000716371
0.015 4.51751e-21 0.00480076 0.106593 -0.0239867 0.000345775
-0.015 1.35525e-20 0.00480076 0.10555 -0.021182 0.000223792
0.005 4.51751e-21 0.0149986 0.137872 -0.0214699 0.000744046
-0.005 4.51751e-21 0.0149986 0.137499 -0.0206387 0.000639315
0.01125 -1.0842e-19 0.011217 0.130316 -0.0228743 0.000660425
-0.01125 -1.0842e-19 0.011217 0.129442 -0.0209067 0.00046865
0.0125 4.51751e-21 0.0099455 0.126917 -0.0232669 0.000612366
-0.0125 1.35525e-20 0.0099455 0.12595 -0.0210415 0.000418875
0.01 4.51751e-21 0.0124872 0.133008 -0.0224719 0.000700725
-0.01 4.51751e-21 0.0124872 0.13224 -0.0207523 0.000516576
-0.01375 0 0.00865601 0.122441 -0.0211742 0.000370534
0.01375 0 0.00865601 0.123501 -0.0236653 0.000561641
-0.01625 0 0.00116944 0.0662982 -0.0171708 6.14903e-05
0.01625 -1.0842e-19 0.00116944 0.0668425 -0.0196213 9.19488e-05
-0.00875 0 0.0137433 0.135026 -0.0205956 0.000565825
0.00875 0 0.0137433 0.135691 -0.0220746 0.000738831
-0.00125 -1.0842e-19 0.0162494 0.139967 -0.020678 0.000718804
0.00125 -1.0842e-19 0.0162494 0.140058 -0.0208822 0.000746451
-0.01625 1.0842e-19 0.00356872 0.0982088 -0.0208924 0.000169566
0.01625 0 0.00356873 0.0992686 -0.0239342 0.000267915
-0.00375 0 0.0162494 0.139877 -0.0204762 0.000692156
0.00375 0 0.0162494 0.14015 -0.0210894 0.000775159
-0.015 -9.03502e-21 0.00736599 0.117668 -0.0212194 0.000319633
0.015 0 0.00736599 0.118801 -0.0239799 0.000500859
0.0075 4.51751e-21 0.0149986 0.137969 -0.0216851 0.00077276
-0.0075 0 0.0149986 0.13741 -0.0204379 0.000615514
-0.017348 0 0 0 0 0
0.017348 -2.71051e-20 0 0 0 0
-0.017348 0 0.000142217 0.00807593 -0.00207957 7.33447e-06
0.017348 0 0.000142194 0.00814618 -0.00237352 1.09246e-05
0.01625 1.0842e-19 0.00608215 0.114106 -0.0242986 0.000437356
-0.01625 1.0842e-19 0.00608215 0.112905 -0.0212616 0.000270592
0.00625 0 0.0162494 0.140245 -0.0212995 0.000804945
-0.00625 0 0.0162494 0.139789 -0.0202774 0.000666512
5.01941e-14 -4.51751e-21 0.0175 0.142081 -0.020519 0.000774118
0.0175 0 0 0 0 0
-0.0175 0 0 0 0 0
0.017652 0 0 0 0 0
-0.017652 0 0 0 0 0
0.017652 0 0.000142194 0.00815192 -0.0023985 1.12611e-05
-0.017652 0 0.000142216 0.00807067 -0.00205913 7.10794e-06
-0.0175 -9.03502e-21 0.00234132 0.0821111 -0.0189238 0.000113229
0.0175 1.35525e-20 0.00234132 0.0829731 -0.0218799 0.00018244
0.0125 4.51751e-21 0.0124872 0.133111 -0.022701 0.000727824
-0.0125 9.03502e-21 0.0124872 0.13215 -0.0205506 0.000497203
-0.0025 0 0.0175 0.141993 -0.0203191 0.000745677
0.0025 -4.51751e-21 0.0175 0.142171 -0.0207216 0.000803636
0.01375 -1.0842e-19 0.011217 0.130421 -0.0231092 0.00068599
-0.01375 -1.0842e-19 0.011217 0.129351 -0.0207032 0.000451056
-0.01125 1.0842e-19 0.0137433 0.134938 -0.0203956 0.000544626
0.01125 0 0.0137433 0.135793 -0.0222982 0.000767413
0.015 9.03502e-21 0.0099455 0.127022 -0.0235081 0.000635992
-0.015 4.51751e-21 0.0099455 0.125859 -0.0208363 0.000403225
0.01 4.51751e-21 0.0149986 0.138067 -0.0219033 0.000802536
-0.01 0 0.0149986 0.137322 -0.0202396 0.000592576
-0.0175 1.35525e-20 0.00480076 0.105469 -0.0209712 0.000215876
0.0175 1.807e-20 0.00480076 0.106687 -0.0242459 0.000358639
0.005 4.51751e-21 0.0175 0.142262 -0.020927 0.000834262
-0.005 0 0.0175 0.141906 -0.0201218 0.00071828
0.01625 -1.0842e-19 0.008656 0.123605 -0.0239131 0.000583217
-0.01625 -1.0842e-19 0.008656 0.12235 -0.0209672 0.000356769
-0.00875 1.0842e-19 0.0162494 0.139703 -0.0200809 0.00064179
0.00875 0 0.0162494 0.140341 -0.0215127 0.000835857
0.01875 -1.0842e-19 0.00116944 0.0668854 -0.0198298 9.48296e-05
-0.01875 0 0.00116944 0.0662576 -0.017001 5.96048e-05
0.00125 2.1684e-19 0.01875 0.144193 -0.020357 0.00083073
-0.00125 0 0.01875 0.144106 -0.0201588 0.000800451
-0.0175 -9.03502e-21 0.00736599 0.11758 -0.0210111 0.000307914
0.0175 0 0.00736599 0.118903 -0.0242341 0.000519944
0.0075 4.51751e-21 0.0175 0.142355 -0.0211352 0.00086604
-0.0075 0 0.0175 0.141822 -0.0199272 0.000691885
0.01875 0 0.00356873 0.0993568 -0.0241961 0.000277613
-0.01875 0 0.00356872 0.0981325 -0.0206835 0.000163762
0.00375 1.0842e-19 0.01875 0.144281 -0.020558 0.000862163
-0.00375 1.0842e-19 0.01875 0.144021 -0.0199632 0.000771262
0.01375 1.0842e-19 0.0137433 0.135896 -0.0225245 0.000797038
-0.01375 0 0.0137433 0.13485 -0.0201985 0.000524188
-0.015 9.03502e-21 0.0124872 0.132062 -0.0203516 0.000478551
0.015 9.03502e-21 0.0124872 0.133216 -0.0229334 0.000755936
0.0125 0 0.0149986 0.138168 -0.0221246 0.000833402
-0.0125 0 0.0149986 0.137236 -0.0200441 0.000570472
-0.01875 1.0842e-19 0.00608215 0.112818 -0.021052 0.000260847
0.01875 1.0842e-19 0.00608215 0.114206 -0.0245592 0.000453875
0.01625 -1.0842e-19 0.011217 0.130527 -0.0233475 0.000712496
-0.01625 -1.0842e-19 0.011217 0.129262 -0.0205026 0.000434156
0.01125 2.1684e-19 0.0162494 0.140439 -0.0217286 0.000867895
-0.01125 1.0842e-19 0.0162494 0.139617 -0.0198871 0.000617954
-0.00625 1.0842e-19 0.01875 0.143938 -0.0197705 0.000743157
0.00625 -1.0842e-19 0.01875 0.144372 -0.0207612 0.000894738
-0.019848 0 0 0 0 0
0.019848 0 0 0 0 0
-0.019848 0 0.000142216 0.00807062 -0.00205912 7.10789e-06
0.019848 0 0.000142193 0.00815187 -0.00239849 1.12611e-05
0.02 0 0 0 0 0
-0.02 2.71051e-20 0 0 0 0
-9.82524e-15 0 0.02 0.146031 -0.0200068 0.000855844
-0.0175 0 0.0099455 0.12577 -0.0206338 0.000388181
0.0175 9.03502e-21 0.0099455 0.127128 -0.023753 0.000660473
-0.02 4.51751e-21 0.00234132 0.082053 -0.0187359 0.000109499
0.02 1.35525e-20 0.00234132 0.0830388 -0.0221168 0.000188791
0.020152 0 0 0 0 0
-0.020152 0 0 0 0 0
0.020152 0 0.000142194 0.00815766 -0.00242382 1.15997e-05
-0.020152 0 0.000142216 0.00806535 -0.00203898 6.90001e-06
0.01 0 0.0175 0.142451 -0.0213463 0.000899017
-0.01 0 0.0175 0.141738 -0.0197349 0.000666432
0.0025 4.51751e-21 0.02 0.146116 -0.0202032 0.000887957
-0.0025 0 0.02 0.145947 -0.0198129 0.000824904
-0.02 9.03502e-21 0.00480076 0.105388 -0.0207635 0.000208273
0.02 1.35525e-20 0.00480076 0.106782 -0.0245092 0.000371965
0.005 9.03502e-21 0.02 0.146203 -0.0204023 0.000921269
-0.005 0 0.02 0.145865 -0.0196216 0.000795108
-0.01875 1.0842e-19 0.008656 0.122262 -0.0207631 0.000343573
0.01875 2.1684e-19 0.008656 0.123711 -0.0241647 0.000605546
-0.00875 2.1684e-19 0.01875 0.143856 -0.0195799 0.000716046
0.00875 1.0842e-19 0.01875 0.144464 -0.0209674 0.000928575
0.015 0 0.0149986 0.13827 -0.0223489 0.000865403
-0.015 0 0.0149986 0.137151 -0.0198511 0.000549189
-0.02125 0 0.00116944 0.0662168 -0.0168337 5.78863e-05
0.02125 1.0842e-19 0.00116944 0.0669285 -0.0200411 9.7695e-05
0.01625 0 0.0137433 0.136001 -0.0227546 0.000827771
-0.01625 0 0.0137433 0.134763 -0.0200039 0.000504525
-0.01375 1.0842e-19 0.0162494 0.139535 -0.0196956 0.000595011
0.01375 2.1684e-19 0.0162494 0.140538 -0.0219476 0.000901107
0.00125 0 0.02125 0.147953 -0.0198516 0.000912453
-0.00125 0 0.02125 0.14787 -0.0196597 0.000879712
-0.02 -9.03502e-21 0.00736599 0.117493 -0.0208057 0.000296682
0.02 4.51751e-21 0.00736599 0.119007 -0.0244922 0.000539707
0.0075 4.51751e-21 0.02 0.146293 -0.0206039 0.000955827
-0.0075 0 0.02 0.145784 -0.0194328 0.000766406
-0.0175 4.51751e-21 0.0124872 0.131974 -0.0201553 0.000460591
0.0175 9.03502e-21 0.0124872 0.133323 -0.0231692 0.000785086
0.0125 0 0.0175 0.142547 -0.0215602 0.000933207
-0.0125 0 0.0175 0.141657 -0.0195451 0.000641913
-0.02125 0 0.00356872 0.0980574 -0.0204776 0.000158196
0.02125 -1.0842e-19 0.00356873 0.0994459 -0.0244624 0.000287669
-0.00375 1.0842e-19 0.02125 0.147789 -0.0194699 0.000848163
0.00375 -1.0842e-19 0.02125 0.148037 -0.0200463 0.000946448
0.01875 0 0.011217 0.130635 -0.0235894 0.000739986
-0.01875 -1.0842e-19 0.011217 0.129174 -0.0203046 0.000417858
-0.01125 1.0842e-19 0.01875 0.143776 -0.0193917 0.000689907
0.01125 0 0.01875 0.144558 -0.0211764 0.00096369
-0.02125 -1.0842e-19 0.00608215 0.112732 -0.0208457 0.000251503
0.02125 0 0.00608215 0.114309 -0.0248239 0.000470997
0.00625 0 0.02125 0.148124 -0.0202435 0.000981693
-0.00625 0 0.02125 0.14771 -0.0192829 0.000817824
-0.02 4.51751e-21 0.0099455 0.125682 -0.0204342 0.000373719
0.02 4.51751e-21 0.0099455 0.127235 -0.0240017 0.000685823
-0.022348 0 0 0 0 0
0.022348 0 0 0 0 0
-0.022348 0 0.000142214 0.00806526 -0.00203896 6.89993e-06
0.022348 0 0.000142196 0.0081578 -0.00242386 1.15999e-05
0.01 0 0.02 0.146384 -0.0208082 0.000991693
-0.01 0 0.02 0.145705 -0.0192462 0.000738739
-0.0225 0 0 0 0 0
0.0225 0 0 0 0 0
-9.82515e-15 0 0.0225 0.149644 -0.0195165 0.000935625
-0.0225 9.03502e-21 0.00234132 0.0819954 -0.0185509 0.000105959
0.0225 4.51751e-21 0.00234132 0.083105 -0.0223573 0.000195321
0.0025 4.51751e-21 0.0225 0.149725 -0.019707 0.00097009
-0.0025 4.51751e-21 0.0225 0.149564 -0.0193285 0.00090242
0.022652 0 0 0 0 0
-0.022652 0 0 0 0 0
0.022652 0 0.000142196 0.00816364 -0.00244955 1.19481e-05
-0.022652 2.71051e-20 0.000142214 0.00806006 -0.0020191 6.70791e-06
-0.02125 -2.1684e-19 0.008656 0.122174 -0.0205617 0.000330926
0.02125 0 0.00865601 0.123818 -0.0244202 0.000628638
-0.01625 2.1684e-19 0.0162494 0.139453 -0.019507 0.000572928
0.01625 2.1684e-19 0.0162494 0.140641 -0.0221695 0.000935532
0.00875 1.0842e-19 0.02125 0.148211 -0.0204433 0.00101827
-0.00875 2.1684e-19 0.02125 0.147633 -0.0190979 0.000788573
-0.0225 -9.03502e-21 0.00480076 0.105308 -0.0205589 0.00020098
0.0225 4.51751e-21 0.00480076 0.106878 -0.024777 0.000385752
0.0175 0 0.0149986 0.138375 -0.0225763 0.000898581
-0.0175 0 0.0149986 0.137068 -0.0196607 0.000528694
0.015 0 0.0175 0.142646 -0.0217771 0.000968647
-0.015 0 0.0175 0.141576 -0.0193578 0.000618306
0.005 9.03502e-21 0.0225 0.149808 -0.0198999 0.00100585
-0.005 4.51751e-21 0.0225 0.149486 -0.0191429 0.000870441
0.01875 1.0842e-19 0.0137433 0.136108 -0.0229874 0.000859627
-0.01875 -1.0842e-19 0.0137433 0.134678 -0.0198119 0.000485555
-0.01375 1.0842e-19 0.01875 0.143697 -0.0192061 0.000664749
0.01375 0 0.01875 0.144653 -0.0213882 0.00100008
-0.02 0 0.0124872 0.131888 -0.0199616 0.000443282
0.02 4.51751e-21 0.0124872 0.133431 -0.0234084 0.000815299
0.0125 0 0.02 0.146477 -0.0210153 0.00102888
-0.0125 0 0.02 0.145628 -0.019062 0.000712093
-0.0225 -4.51751e-21 0.00736599 0.117407 -0.0206033 0.000285897
0.0225 4.51751e-21 0.00736599 0.119112 -0.0247544 0.000560178
-0.0075 0 0.0225 0.14941 -0.0189596 0.000839641
0.0075 9.03502e-21 0.0225 0.149894 -0.0200953 0.00104295
-0.02375 0 0.00116944 0.0661765 -0.0166687 5.62849e-05
0.02375 0 0.00116944 0.0669718 -0.0202555 0.000100649
0.00125 1.0842e-19 0.02375 0.151415 -0.0193706 0.000992598
-0.00125 1.0842e-19 0.02375 0.151336 -0.0191842 0.000957704
-0.02375 0 0.00356872 0.0979827 -0.0202749 0.000152867
0.02375 -2.1684e-19 0.00356872 0.099536 -0.0247333 0.000298018
0.02125 2.1684e-19 0.011217 0.130745 -0.0238351 0.000768449
-0.02125 -1.0842e-19 0.011217 0.129086 -0.0201093 0.000402165
0.01125 0 0.02125 0.148302 -0.0206457 0.0010562
-0.01125 1.0842e-19 0.02125 0.147557 -0.0189153 0.000760406
0.00375 0 0.02375 0.151495 -0.0195594 0.00102883
-0.00375 -1.0842e-19 0.02375 0.15126 -0.0190002 0.000924071
-0.02375 -2.1684e-19 0.00608215 0.112649 -0.0206421 0.000242524
0.02375 0 0.00608215 0.114412 -0.025093 0.000488711
-0.00625 0 0.02375 0.151185 -0.0188185 0.000891677
0.00625 -1.0842e-19 0.02375 0.151577 -0.0197504 0.00106641
-0.0225 4.51751e-21 0.0099455 0.125595 -0.0202372 0.000359813
0.0225 4.51751e-21 0.0099455 0.127344 -0.0242542 0.000712085
0.01 4.51751e-21 0.0225 0.149981 -0.0202932 0.00108144
-0.01 0 0.0225 0.149335 -0.0187784 0.000809965
0.0175 0 0.0175 0.142748 -0.0219968 0.00100538
-0.0175 0 0.0175 0.141497 -0.019173 0.000595575
-0.01875 2.1684e-19 0.0162494 0.139372 -0.0193205 0.000551666
0.01875 -1.0842e-19 0.0162494 0.140745 -0.0223944 0.000971223
0.01625 -1.0842e-19 0.01875 0.144752 -0.021603 0.00103781
-0.01625 0 0.01875 0.14362 -0.0190227 0.000640505
-0.024848 2.71051e-20 0 0 0 0
0.024848 0 0 0 0 0
-0.024848 0 0.000142213 0.00806002 -0.00201909 6.70787e-06
0.024848 -2.71051e-20 0.00014221 0.00816445 -0.00244979 1.19493e-05
0.02 0 0.0149986 0.138481 -0.0228069 0.000932976
-0.02 0 0.0149986 0.136985 -0.0194727 0.000508946
-0.025 2.71051e-20 0 0 0 0
0.015 0 0.02 0.146572 -0.0212251 0.00106742
-9.82486e-15 0 0.025 0.152992 -0.0190487 0.00101369
-0.015 4.51751e-21 0.02 0.145553 -0.0188802 0.000686441
0.025 2.71051e-20 0 0 0 0
-0.025 -1.35525e-20 0.00234132 0.0819382 -0.0183686 0.000102529
0.025 0 0.00234132 0.0831722 -0.0226016 0.000202075
0.0025 0 0.025 0.15307 -0.0192334 0.00105024
-0.0025 4.51751e-21 0.025 0.152916 -0.0188664 0.000978468
0.025152 0 0 0 0 0
-0.025152 0 0 0 0 0
0.025152 0 0.00014221 0.0081704 -0.0024758 1.23166e-05
-0.025152 0 0.000142213 0.00805485 -0.00199952 6.50552e-06
-0.02375 1.0842e-19 0.008656 0.122087 -0.0203634 0.000318752
0.02375 0 0.008656 0.123927 -0.0246797 0.000652601
-0.02125 2.1684e-19 0.0137433 0.134593 -0.0196224 0.000467289
0.02125 0 0.0137433 0.136217 -0.0232239 0.000892649
-0.01375 2.1684e-19 0.02125 0.147483 -0.0187349 0.000733289
-0.00875 0 0.02375 0.151111 -0.018639 0.000860462
0.01375 0 0.02125 0.148393 -0.0208508 0.0010955
0.00875 -1.0842e-19 0.02375 0.151662 -0.0199439 0.00110541
-0.025 -4.51751e-21 0.00480076 0.105229 -0.0203573 0.000193962
0.025 0 0.00480076 0.106975 -0.0250492 0.000400002
0.005 4.51751e-21 0.025 0.15315 -0.0194204 0.00108817
-0.005 4.51751e-21 0.025 0.152841 -0.0186863 0.000944536
0.0225 4.51751e-21 0.0124872 0.133541 -0.0236513 0.000846603
-0.0225 0 0.0124872 0.131803 -0.0197705 0.000426616
-0.0125 0 0.0225 0.149262 -0.0185995 0.000781393
0.0125 0 0.0225 0.15007 -0.0204937 0.00112134
-0.025 4.51751e-21 0.00736599 0.117322 -0.0204039 0.000275508
0.025 0 0.00736599 0.119219 -0.0250208 0.000581394
0.0075 9.03502e-21 0.025 0.153232 -0.0196097 0.00112752
-0.0075 0 0.025 0.152769 -0.0185083 0.000911852
0.02375 -1.0842e-19 0.011217 0.130855 -0.0240845 0.000797951
-0.02375 0 0.011217 0.129 -0.0199166 0.000387068
-0.02625 1.0842e-19 0.00116944 0.0661363 -0.0165062 5.4604e-05
0.02625 -1.0842e-19 0.00116944 0.0670159 -0.0204728 0.000103771
0.00125 1.0842e-19 0.02625 0.154646 -0.0189103 0.00107062
-0.01125 2.1684e-19 0.02375 0.15104 -0.0184615 0.000830392
0.01125 -1.0842e-19 0.02375 0.151748 -0.02014 0.00114585
-0.00125 1.0842e-19 0.02625 0.154571 -0.0187298 0.00103379
-0.02625 2.1684e-19 0.00356872 0.0979083 -0.0200754 0.000147704
0.02625 0 0.00356872 0.0996278 -0.0250085 0.000308715
0.01875 0 0.01875 0.144852 -0.0218204 0.00107691
0.00375 -1.0842e-19 0.02625 0.154723 -0.0190934 0.00110886
-0.00375 0 0.02625 0.154497 -0.0185512 0.00099827
-0.01875 0 0.01875 0.143544 -0.0188417 0.000617174
-0.02 0 0.0175 0.14142 -0.0189904 0.000573683
0.02 0 0.0175 0.142851 -0.0222196 0.00104346
0.0175 0 0.02 0.146669 -0.0214376 0.00110735
-0.0175 4.51751e-21 0.02 0.145478 -0.0187007 0.000661735
0.02125 0 0.0162494 0.140851 -0.0226227 0.00100823
-0.02125 1.0842e-19 0.0162494 0.139293 -0.0191365 0.000531177
0.01625 0 0.02125 0.148488 -0.0210584 0.00113623
-0.01625 0 0.02125 0.14741 -0.0185571 0.000707203
-0.025 4.51751e-21 0.0099455 0.125509 -0.0200431 0.000346417
0.025 4.51751e-21 0.0099455 0.127455 -0.0245105 0.000739331
0.01 4.51751e-21 0.025 0.153316 -0.0198013 0.00116833
-0.01 0 0.025 0.152698 -0.0183325 0.000880364
-0.02625 -1.0842e-19 0.00608215 0.112566 -0.0204417 0.000233878
0.02625 0 0.00608215 0.114517 -0.0253666 0.00050705
-0.00625 1.0842e-19 0.02625 0.154424 -0.018375 0.000964092
0.00625 -1.0842e-19 0.02625 0.154803 -0.0192784 0.00114853
0.0225 0 0.0149986 0.13859 -0.023041 0.000968618
-0.0225 0 0.0149986 0.136904 -0.0192872 0.000489919
0.015 0 0.0225 0.150161 -0.0206967 0.00116267
-0.015 4.51751e-21 0.0225 0.149191 -0.0184229 0.000753897
-0.027348 0 0 0 0 0
0.027348 0 0 0 0 0
-0.027348 -2.71051e-20 0.000142212 0.0080548 -0.00199951 6.50548e-06
0.027348 0 0.000142212 0.00817049 -0.00247583 1.23168e-05
0.02375 -1.0842e-19 0.0137433 0.136328 -0.0234639 0.000926859
-0.02375 -1.0842e-19 0.0137433 0.134511 -0.0194354 0.00044969
0.01375 -1.0842e-19 0.02375 0.151836 -0.0203384 0.00118776
-0.01375 1.0842e-19 0.02375 0.150969 -0.0182863 0.00080146
-9.82495e-15 0 0.0275 0.156137 -0.0186013 0.00108885
0.0275 2.71051e-20 0 0 0 0
-0.0275 2.71051e-20 0 0 0 0
-0.0275 9.03502e-21 0.00234132 0.0818812 -0.0181889 9.91523e-05
0.0275 1.35525e-20 0.00234132 0.0832403 -0.0228495 0.000209052
0.0025 0 0.0275 0.156213 -0.0187803 0.0011273
-0.0025 0 0.0275 0.156063 -0.0184245 0.00105181
0.02625 0 0.00865601 0.124038 -0.0249432 0.00067746
-0.02625 -1.0842e-19 0.00865601 0.122002 -0.0201678 0.000306993
-0.027652 0 0 0 0 0
0.027652 0 0 0 0 0
-0.027652 0 0.000142212 0.00804961 -0.00198021 6.30603e-06
0.027652 0 0.000142212 0.00817648 -0.00250221 1.26868e-05
0.00875 0 0.02625 0.154885 -0.019466 0.00118969
-0.00875 0 0.02625 0.154354 -0.0182007 0.000931144
-0.0275 0 0.00480076 0.105151 -0.0201588 0.000187172
0.0275 -4.51751e-21 0.00480076 0.107074 -0.0253259 0.000414775
0.025 4.51751e-21 0.0124872 0.133653 -0.0238976 0.000879057
-0.025 0 0.0124872 0.131718 -0.019582 0.00041057
0.005 0 0.0275 0.156291 -0.0189614 0.00116718
-0.005 0 0.0275 0.155991 -0.0182499 0.00101615
0.0125 0 0.025 0.153402 -0.0199953 0.00121062
-0.0125 0 0.025 0.152628 -0.0181587 0.00085004
-0.02 0 0.02 0.145405 -0.0185233 0.000637938
0.02 0 0.02 0.146768 -0.0216529 0.00114872
0.01875 1.0842e-19 0.02125 0.148584 -0.0212688 0.00117842
-0.02125 0 0.01875 0.143469 -0.018663 0.000594686
0.02125 2.1684e-19 0.01875 0.144954 -0.0220409 0.00111742
-0.01875 0 0.02125 0.147339 -0.0183811 0.000682042
-0.0275 4.51751e-21 0.00736599 0.117238 -0.0202071 0.000265475
0.0275 -4.51751e-21 0.00736599 0.119328 -0.0252915 0.000603396
0.0225 0 0.0175 0.142956 -0.0224454 0.00108291
-0.0225 0 0.0175 0.141343 -0.0188102 0.000552588
0.0075 0 0.0275 0.156371 -0.0191446 0.00120854
-0.0075 0 0.0275 0.155921 -0.0180772 0.000981814
0.0175 0 0.0225 0.150254 -0.0209023 0.00120548
-0.0175 4.51751e-21 0.0225 0.149121 -0.0182484 0.000727418
0.02625 1.0842e-19 0.011217 0.13097 -0.0243373 0.000828581
-0.02625 0 0.011217 0.128914 -0.0197268 0.000372528
0.01125 0 0.02625 0.154968 -0.0196555 0.00123232
-0.01125 -1.0842e-19 0.02625 0.154285 -0.0180287 0.000899428
-0.02875 0 0.00116944 0.0660961 -0.0163459 5.29158e-05
0.02875 0 0.00116944 0.0670602 -0.0206931 0.000106883
-0.02375 1.0842e-19 0.0162494 0.139214 -0.0189549 0.000511424
0.02375 0 0.0162494 0.140959 -0.022854 0.00104655
0.00125 0 0.02875 0.157704 -0.0184702 0.00114478
-0.01625 -1.0842e-19 0.02375 0.1509 -0.0181132 0.000773611
0.01625 0 0.02375 0.151926 -0.0205393 0.00123115
-0.00125 0 0.02875 0.157629 -0.018295 0.00110615
-0.02875 -2.1684e-19 0.00356873 0.0978349 -0.0198787 0.000142681
0.02875 -1.0842e-19 0.00356872 0.0997206 -0.0252884 0.000319806
0.00375 0 0.02875 0.15778 -0.0186474 0.00118487
-0.00375 2.1684e-19 0.02875 0.157557 -0.0181221 0.00106898
0.025 0 0.0149986 0.138701 -0.0232782 0.00100553
-0.025 0 0.0149986 0.136824 -0.0191041 0.000471591
0.015 0 0.025 0.15349 -0.0201918 0.00125445
-0.015 0 0.025 0.15256 -0.0179871 0.000820846
0.0275 4.51751e-21 0.0099455 0.127569 -0.0247707 0.000767576
-0.0275 4.51751e-21 0.0099455 0.125424 -0.0198516 0.000333487
0.01 0 0.0275 0.156453 -0.0193301 0.00125142
-0.01 0 0.0275 0.155852 -0.0179066 0.000948736
-0.02875 1.0842e-19 0.00608215 0.112483 -0.020244 0.000225507
0.02875 2.1684e-19 0.00608215 0.114623 -0.0256446 0.000526112
0.00625 1.0842e-19 0.02875 0.157858 -0.0188264 0.00122641
-0.00625 0 0.02875 0.157487 -0.0179512 0.00103322
-0.02625 2.1684e-19 0.0137433 0.134429 -0.0192509 0.00043275
0.02625 -1.0842e-19 0.0137433 0.136441 -0.023707 0.000962315
0.01375 0 0.02625 0.155054 -0.0198475 0.00127652
-0.01375 0 0.02625 0.154219 -0.0178584 0.000868849
0.029848 -2.71051e-20 0 0 0 0
-0.029848 2.71051e-20 0 0 0 0
0.029848 -2.71051e-20 0.000142214 0.00817658 -0.00250224 1.2687e-05
-0.029848 0 0.00014221 0.00804947 -0.00198017 6.30592e-06
-0.03 0 0 0 0 0
-9.82515e-15 0 0.03 0.159113 -0.0181739 0.00115978
0.03 0 0 0 0 0
-0.02875 0 0.00865601 0.121916 -0.0199747 0.000295631
0.02875 0 0.00865601 0.12415 -0.0252109 0.000703217
0.00875 1.0842e-19 0.02875 0.157938 -0.0190078 0.00126949
-0.00875 -1.0842e-19 0.02875 0.157417 -0.0177821 0.000998767
0.02125 0 0.02125 0.148682 -0.0214818 0.0012221
-0.02125 0 0.02125 0.147269 -0.0182076 0.000657833
-0.03 -4.51751e-21 0.00234132 0.0818248 -0.0180119 9.58466e-05
0.03 -1.35525e-20 0.00234132 0.0833091 -0.0231013 0.000216217
0.0025 0 0.03 0.159188 -0.0183471 0.00119987
-0.02 0 0.0225 0.149052 -0.0180759 0.000701919
0.0225 0 0.02 0.14687 -0.0218711 0.00119157
0.02 0 0.0225 0.15035 -0.0211105 0.00124982
-0.0225 0 0.02 0.145334 -0.0183482 0.00061502
-0.0025 0 0.03 0.159039 -0.0180027 0.00112116
-0.030152 0 0 0 0 0
0.030152 0 0 0 0 0
-0.030152 0 0.000142209 0.00804431 -0.00196115 6.11251e-06
0.030152 0 0.000142214 0.00818265 -0.00252895 1.30597e-05
0.0275 4.51751e-21 0.0124872 0.133768 -0.0241475 0.000912691
-0.0275 0 0.0124872 0.131635 -0.0193961 0.000395112
0.0125 0 0.0275 0.156537 -0.0195178 0.00129584