# k  POINT_DATA 30177
# x  y  z  k
0 -0.0199996 6.27196e-08 3.00104e-08
0 0.0199996 6.27196e-08 3.18745e-07
6.77626e-21 0.0199996 0.000164428 3.13921e-07
-6.77626e-21 -0.0199996 0.000164406 3.07097e-08
0 0.0199996 0.000494301 3.903e-07
0 -0.0199996 0.00049425 2.64146e-08
6.77626e-21 0.0199996 0.00066126 4.93018e-07
0 -0.0199996 0.000661186 2.11769e-08
0 0.0199996 0.000837191 5.87116e-07
-3.38813e-21 -0.0199996 0.000837103 1.67193e-08
-6.77626e-21 0.0199996 0.00118069 6.41152e-07
-6.77626e-21 -0.0199996 0.00118063 1.2066e-08
0 0.0199996 0.00135639 6.19501e-07
0 -0.0199996 0.0013563 1.16989e-08
-3.38813e-21 0.0199996 0.0015402 5.8748e-07
0 -0.0199996 0.00154013 1.17833e-08
6.77626e-21 0.0200767 6.65771e-05 3.16009e-07
-6.77626e-21 -0.0200767 6.65774e-05 2.99574e-08
0 -0.0200781 6.52655e-08 2.99589e-08
6.77626e-21 0.0200781 6.52653e-08 3.16005e-07
6.77626e-21 -0.0200799 0.000590145 2.30566e-08
-6.77626e-21 0.0200799 0.000590186 4.38261e-07
6.77626e-21 -0.0200759 0.000728686 1.89457e-08
6.77626e-21 0.0200759 0.000728732 5.2222e-07
-6.77626e-21 0.0199996 0.00190617 6.40456e-07
0 -0.0199996 0.00190616 1.32035e-08
-6.77626e-21 0.0199996 0.002087 7.58959e-07
6.77626e-21 -0.0199996 0.002087 1.5215e-08
-6.77626e-21 -0.0200757 0.00127182 1.15869e-08
-6.77626e-21 0.0200757 0.00127186 6.07755e-07
0 -0.0200724 0.00141161 1.14783e-08
0 0.0200724 0.00141166 5.84673e-07
6.77626e-21 0.0201349 6.62416e-08 3.83089e-07
-6.77626e-21 -0.0201349 6.62417e-08 6.81833e-08
0 -0.0201347 0.00065501 3.834e-08
-2.03288e-20 0.0201347 0.000655012 4.7556e-07
0 -0.0200697 0.0019779 1.36683e-08
-6.77626e-21 0.0200697 0.0019779 6.66045e-07
6.77626e-21 -0.0201289 0.00132677 1.03493e-08
0 0.0201289 0.00132677 5.25296e-07
1.35525e-20 -0.0200872 0.00211021 1.49223e-08
0 0.0200872 0.00211021 7.4485e-07
0 0.0201043 0.00206081 7.20961e-07
0 -0.0201043 0.00206081 1.45616e-08
0 0.0201291 0.00199353 6.30545e-07
-6.77626e-21 -0.0201292 0.00199355 1.272e-08
0 0.0201574 0.00212882 7.83187e-07
-6.77626e-21 -0.0201575 0.00212883 1.64031e-08
6.77626e-21 0.020211 0.00203549 6.63159e-07
-6.77626e-21 -0.020211 0.0020355 1.40677e-08
2.03288e-20 -0.0203752 7.14254e-08 4.38956e-08
0 0.0203752 7.14225e-08 3.52743e-07
1.12938e-21 0.0203552 0.000964466 5.51633e-07
-6.77626e-22 -0.0203552 0.000964545 1.44308e-08
-1.12938e-21 0.0203848 0.000318457 3.63532e-07
-1.807e-21 -0.0203849 0.00031848 4.28834e-08
7.52918e-22 0.0203485 0.00158856 4.61769e-07
-7.52918e-22 -0.0203485 0.00158862 9.46155e-09
0 0.0204541 7.18967e-08 4.33783e-07
-1.69407e-21 -0.0204543 7.19036e-08 6.38669e-08
1.01644e-20 0.0203479 0.0020921 6.2927e-07
-1.01644e-20 -0.0203479 0.00209209 1.40938e-08
1.35525e-20 0.0203454 0.00217864 7.10854e-07
-3.38813e-20 -0.0203455 0.00217865 1.58726e-08
0 0.0204014 0.00198907 6.50033e-07
0 -0.0204014 0.00198909 1.46725e-08
2.71051e-20 -0.0204481 0.00220585 2.19394e-08
-2.71051e-20 0.0204481 0.00220585 9.77409e-07
-6.77626e-21 0.0206171 7.35991e-08 6.51587e-07
0 -0.0206171 7.36088e-08 1.37525e-07
-6.77626e-21 0.0206345 0.00124176 4.68024e-07
4.51751e-21 -0.0206345 0.00124188 1.05677e-08
-6.77626e-21 -0.0206728 7.48735e-08 1.3057e-07
0 0.0206729 7.48661e-08 6.32115e-07
1.35525e-20 -0.0206741 6.9881e-05 1.30275e-07
6.77626e-21 0.0206742 7.00029e-05 6.3127e-07
-1.12938e-21 0.0206668 0.000657308 5.57675e-07
-1.12938e-21 -0.0206668 0.000657428 6.31885e-08
2.03288e-21 -0.0206275 0.00169452 1.08466e-08
6.77626e-22 0.0206275 0.00169445 5.12082e-07
0 -0.0205976 0.00224546 2.47615e-08
1.35525e-20 0.0205976 0.00224546 1.0207e-06
6.77626e-21 -0.0208219 8.13377e-08 1.44388e-07
-6.77626e-21 0.0208221 8.134e-08 7.96881e-07
0 -0.0208462 0.000330913 6.62864e-08
0 0.0208462 0.000330886 8.32364e-07
0 0.0208502 0.000953774 6.13321e-07
1.35525e-20 -0.0208502 0.00095382 1.47198e-08
0 0.0208443 0.00153524 5.01142e-07
-1.35525e-20 -0.0208443 0.00153527 1.0594e-08
5.64689e-22 -0.0208065 0.00198302 2.42508e-08
-8.47033e-22 0.0208065 0.00198301 9.59022e-07
0 0.0209013 0.00232596 1.40723e-06
1.35525e-20 -0.0209014 0.00232597 3.35604e-08
0 0.0210643 9.15077e-05 1.07314e-06
-1.35525e-20 -0.0210643 9.14935e-05 1.19162e-07
0 0.021067 7.81657e-08 1.06716e-06
1.35525e-20 -0.021067 7.81689e-08 1.19173e-07
0 0.0209628 0.00234226 1.52039e-06
-6.77626e-21 -0.0209629 0.00234226 3.56502e-08
0 -0.0210006 0.00235227 3.69156e-08
-6.77626e-21 0.0210007 0.00235228 1.58444e-06
0 -0.0211368 7.77048e-08 1.21961e-07
0 0.0211368 7.77005e-08 1.17091e-06
0 -0.021129 0.00122301 9.31779e-09
1.807e-20 0.021129 0.00122301 3.35122e-07
-5.80823e-21 -0.0211316 0.00168768 1.21561e-08
5.80823e-21 0.0211316 0.00168768 5.59602e-07
3.38813e-21 -0.0210927 0.00225836 3.7236e-08
0 0.0210929 0.00225827 1.61639e-06
0 -0.0212074 0.000639288 6.64627e-08
2.25875e-21 0.0212074 0.000639306 7.9692e-07
0 -0.0212432 6.9494e-08 1.24807e-07
0 0.0212432 6.94876e-08 1.27194e-06
6.77626e-21 -0.0212484 0.000106495 1.25021e-07
-6.77626e-21 0.0212484 0.000106533 1.28518e-06
-3.38813e-21 -0.0211906 0.00240261 4.17979e-08
-3.38813e-21 0.0211908 0.00240268 1.79371e-06
1.12938e-21 0.0213439 0.00202515 1.55163e-06
-3.38813e-21 -0.0213439 0.00202511 3.4523e-08
6.77626e-21 -0.021371 0.00245038 4.72505e-08
0 0.021371 0.00245038 2.04188e-06
-6.77626e-21 -0.0213837 0.00242604 4.69406e-08
0 0.0213837 0.00242606 2.02699e-06
-2.25875e-21 -0.0214676 0.00151463 7.74682e-09
-2.25875e-21 0.0214676 0.00151468 3.42395e-07
-9.03502e-21 -0.0215176 0.000962595 2.67609e-08
2.25875e-21 0.0215177 0.000962668 3.94506e-07
1.35525e-20 -0.0215442 0.000394974 1.54041e-07
2.71051e-21 0.0215442 0.000395021 1.41415e-06
6.77626e-21 0.0214146 0.00239572 1.90781e-06
0 -0.0214146 0.00239566 4.40049e-08
0 0.0214165 0.00246241 2.03663e-06
0 -0.0214166 0.00246244 4.66702e-08
1.35525e-20 0.0216582 0.000128728 1.65785e-06
-1.35525e-20 -0.0216582 0.000128716 1.87618e-07
1.35525e-20 0.021662 1.14539e-08 1.65089e-06
1.35525e-20 -0.021662 1.14538e-08 1.88889e-07
0 -0.0217415 0.00061236 1.03117e-07
0 0.0217415 0.000612448 1.07616e-06
0 -0.021737 0.00121888 9.58135e-09
0 0.021737 0.00121897 3.24205e-07
-3.38813e-20 0.0216411 0.00252171 2.022e-06
2.03288e-20 -0.0216411 0.00252171 4.73612e-08
-1.35525e-20 0.02179 2.37922e-09 1.81385e-06
0 -0.02179 2.37986e-09 2.08967e-07
-2.71051e-20 -0.02171 0.00187069 1.66365e-08
0 0.02171 0.00187073 7.70786e-07
-1.12938e-21 0.0216778 0.00229011 1.88416e-06
3.76459e-22 -0.0216778 0.00229006 4.52304e-08
1.35525e-20 -0.0219185 2.30167e-09 1.999e-07
0 0.0219185 2.30112e-09 2.01332e-06
1.35525e-20 -0.0219202 0.000137039 1.98848e-07
0 0.0219202 0.000137059 2.03677e-06
1.35525e-20 -0.0218193 0.00256902 4.25852e-08
0 0.0218193 0.00256904 1.8903e-06
-5.42101e-21 -0.0219845 0.000395978 1.4532e-07
0 0.0219845 0.000396036 2.03477e-06
0 0.0219638 0.00229023 1.40837e-06
-1.12938e-21 -0.0219638 0.00229019 3.19062e-08
0 -0.022074 0.000916584 3.3612e-08
1.12938e-20 0.022074 0.000916678 5.76896e-07
0 0.0219561 0.00252866 1.71845e-06
0 -0.0219561 0.00252862 3.77403e-08
-1.12938e-20 -0.0220578 0.00154554 7.72014e-09
-4.51751e-21 0.0220578 0.00154561 3.69348e-07
-6.77626e-21 0.0219646 0.00260748 1.72095e-06
6.77626e-21 -0.0219646 0.00260749 3.67788e-08
-9.03502e-21 -0.0220661 0.00204937 1.53794e-08
-9.03502e-21 0.0220661 0.00204941 7.50843e-07
0 0.0222375 0.000149296 2.53837e-06
0 -0.0222375 0.000149275 1.54856e-07
0 0.0222467 3.22447e-09 2.53014e-06
1.35525e-20 -0.0222467 3.22463e-09 1.54481e-07
0 -0.0221409 0.00250159 3.81249e-08
-5.42101e-21 0.0221409 0.00250164 1.7589e-06
1.35525e-20 -0.0221239 0.0026495 3.82831e-08
-1.35525e-20 0.022124 0.00264953 1.83657e-06
-7.7443e-21 -0.0223263 0.000544462 1.09832e-07
-7.7443e-21 0.0223263 0.000544533 1.93497e-06
-2.71051e-20 -0.0223861 3.1175e-09 1.48575e-07
1.35525e-20 0.0223861 3.11743e-09 2.71447e-06
-2.71051e-20 -0.0223888 0.00123042 1.2609e-08
-2.71051e-20 0.0223888 0.00123052 4.52285e-07
0 -0.022362 0.00189325 1.71834e-08
-2.71051e-20 0.0223621 0.00189332 7.96522e-07
0 -0.022297 0.00269531 5.46446e-08
0 0.0222971 0.00269532 2.51087e-06
0 0.0223597 0.00232905 1.57506e-06
-1.41172e-22 -0.0223597 0.00232902 3.42984e-08
0 -0.0225373 3.03017e-09 1.45748e-07
-1.35525e-20 0.0225373 3.03008e-09 2.89582e-06
0 -0.0225385 0.000146314 1.45745e-07
-1.35525e-20 0.0225385 0.00014633 2.89353e-06
-2.25875e-21 -0.0227012 0.000916189 3.38677e-08
-9.03502e-21 0.0227012 0.000916249 8.43679e-07
0 -0.0226844 0.00155924 9.17439e-09
4.51751e-21 0.0226844 0.0015593 4.51695e-07
-9.03502e-21 -0.0227492 0.000352729 1.32951e-07
9.03502e-21 0.0227492 0.000352757 2.85627e-06
-1.52466e-20 0.0226133 0.00278009 2.78069e-06
1.56701e-20 -0.0226135 0.00278015 5.64627e-08
1.69407e-21 -0.0226203 0.00278197 5.66049e-08
-1.99053e-20 0.0226205 0.00278201 2.78918e-06
0 -0.0227193 0.00214001 1.92265e-08
9.03502e-21 0.0227194 0.00214006 9.29548e-07
-9.03502e-21 -0.0226787 0.00257543 5.41871e-08
0 0.0226787 0.00257546 2.58158e-06
2.71051e-20 -0.0228459 3.0686e-09 1.55103e-07
-1.35525e-20 0.0228459 3.06837e-09 3.27088e-06
-2.71051e-20 -0.0230054 2.97292e-09 1.67183e-07
2.71051e-20 0.0230055 2.97266e-09 3.44434e-06
0 -0.0230123 0.000602124 9.59954e-08
0 0.0230123 0.000602154 2.1191e-06
0 -0.023008 0.00123188 1.48993e-08
0 0.023008 0.00123192 6.08378e-07
2.71051e-20 -0.0229678 0.00191423 1.65838e-08
2.71051e-20 0.0229679 0.00191427 8.50613e-07
2.71051e-20 -0.0229065 0.00285905 7.26177e-08
0 0.0229066 0.00285905 3.2874e-06
2.71051e-20 -0.0230244 0.00241843 4.26575e-08
0 0.0230245 0.00241845 1.97421e-06
0 -0.0231706 2.61992e-09 1.72809e-07
0 0.0231707 2.61967e-09 3.63444e-06
-6.77626e-21 -0.0232775 0.000961994 3.25988e-08
-6.77626e-21 0.0232775 0.000961998 9.85487e-07
-1.35525e-20 -0.0231293 0.00291865 7.79573e-08
0 0.0231295 0.00291871 3.43685e-06
0 -0.0233249 0.000300658 1.67356e-07
-4.51751e-21 0.023325 0.000300662 3.52197e-06
4.51751e-21 -0.02332 0.00155442 9.91834e-09
-1.12938e-20 0.0233201 0.00155442 5.61219e-07
-2.25875e-21 -0.0233274 0.00215907 1.68859e-08
6.77626e-21 0.0233275 0.00215911 9.15934e-07
-4.51751e-22 -0.023274 0.00268504 7.3674e-08
6.77626e-22 0.023274 0.00268509 3.17632e-06
0 -0.023471 1.49911e-09 1.96763e-07
-1.35525e-20 0.023471 1.49901e-09 3.96358e-06
-6.77626e-21 0.0233567 0.00297983 3.81232e-06
6.77626e-21 -0.0233572 0.00297997 8.86065e-08
0 -0.0236362 1.14284e-09 2.30881e-07
2.71051e-20 0.0236362 1.14275e-09 4.06155e-06
0 -0.0236942 0.000643715 1.26002e-07
9.03502e-21 0.0236943 0.000643673 2.38005e-06
0 -0.0235249 0.00302491 9.69917e-08
-1.35525e-20 0.0235249 0.0030249 4.17476e-06
0 0.0236288 0.00246502 2.19024e-06
0 -0.0236288 0.002465 4.7013e-08
0 -0.0237458 0.00121881 2.18831e-08
0 0.0237458 0.00121876 8.47371e-07
-2.12968e-20 0.0237119 0.001791 6.8076e-07
-1.16165e-20 -0.0237119 0.00179099 9.8558e-09
-1.35525e-20 -0.0238006 1.02424e-09 2.62457e-07
-1.35525e-20 0.0238007 1.02415e-09 4.26923e-06
-1.35525e-20 -0.0236226 0.00305129 1.11131e-07
0 0.0236229 0.00305137 4.776e-06
-1.89735e-20 -0.0238637 0.000205253 2.67384e-07
-8.13152e-21 0.0238637 0.000205233 4.31402e-06
1.35525e-20 0.0238647 0.0021658 1.01732e-06
9.03502e-21 -0.0238647 0.00216579 1.88711e-08
-2.71051e-20 -0.0239679 0.000898007 3.82006e-08
-2.71051e-20 0.0239679 0.000897928 1.15102e-06
-6.35275e-22 -0.0238497 0.00276261 1.23275e-07
0 0.0238551 0.00276337 5.30843e-06
0 -0.0239683 0.00153372 9.55255e-09
0 0.0239683 0.00153368 6.69421e-07
-5.92923e-21 -0.0238695 0.00276832 1.24978e-07
8.36445e-21 0.0238703 0.00276773 5.36447e-06
1.37643e-21 0.0238743 0.0027737 5.36864e-06
4.44692e-21 -0.0238747 0.00277615 1.25113e-07
-2.71051e-20 0.024114 6.40622e-10 4.49939e-06
1.35525e-20 -0.024114 6.40669e-10 2.96497e-07
0 -0.0241188 0.00014417 2.96256e-07
0 0.0241188 0.000144162 4.493e-06
0 0.023916 0.00312978 5.26922e-06
0 -0.0239162 0.00312984 1.2249e-07
-6.77626e-21 -0.0239639 0.00314272 1.20269e-07
-2.71051e-20 0.0239641 0.00314276 5.17999e-06
0 -0.0242749 5.21783e-10 3.31993e-07
0 0.0242749 5.21731e-10 4.37665e-06
9.03502e-21 -0.0242836 0.000581065 1.85972e-07
2.25875e-21 0.0242836 0.000580992 2.88046e-06
9.03502e-21 -0.0242888 0.00120263 2.8152e-08
2.25875e-21 0.0242888 0.00120255 1.03414e-06
4.51751e-21 -0.0242868 0.00186242 1.18493e-08
2.25875e-21 0.0242868 0.00186238 8.43774e-07
-4.23516e-22 -0.0241617 0.00319553 1.16243e-07
-4.23516e-22 0.0241636 0.00319606 5.16808e-06
-1.60936e-20 0.0241859 0.00320201 5.16016e-06
2.03288e-20 -0.0241859 0.00320202 1.15625e-07
-2.96462e-21 0.024188 0.00319341 5.16006e-06
2.5411e-21 -0.0241882 0.00319265 1.15615e-07
0 -0.0244313 0.000134568 3.51123e-07
-1.35525e-20 0.0244313 0.000134562 4.47385e-06
-1.35525e-20 -0.0244331 4.67577e-10 3.52428e-07
-1.35525e-20 0.0244331 4.67521e-10 4.4796e-06
2.25875e-21 0.0243347 0.00249909 2.30226e-06
-1.58113e-20 -0.0243348 0.00249899 4.64521e-08
0 -0.0242968 0.00292754 1.05603e-07
-4.51751e-21 0.0242969 0.00292753 4.70242e-06
-6.77626e-21 -0.0243689 0.00315158 1.05425e-07
6.77626e-21 0.0243692 0.00315214 4.74877e-06
-2.71051e-20 -0.0246008 0.000284734 3.68965e-07
-2.71051e-20 0.0246009 0.000284687 4.54317e-06
0 -0.0243969 0.00325839 1.02317e-07
0 0.0243971 0.00325844 4.62051e-06
0 -0.0246107 0.000878663 5.14759e-08
0 0.0246107 0.000878579 1.3545e-06
-2.71051e-20 0.0246166 0.00151534 9.59862e-07
2.71051e-20 -0.0246166 0.0015154 1.31368e-08
0 0.0244714 0.00314468 4.25254e-06
0 -0.0244716 0.0031441 9.24592e-08
3.38813e-21 0.0245037 0.00290524 3.75603e-06
6.77626e-21 -0.0245038 0.00290534 8.11202e-08
6.77626e-21 0.0244779 0.00323338 4.41064e-06
0 -0.0244781 0.00323321 9.59298e-08
6.77626e-21 0.0244842 0.00328166 4.35024e-06
0 -0.0244845 0.00328173 9.38929e-08
2.71051e-20 -0.0246092 0.00219461 1.07779e-08
0 0.0246092 0.00219461 9.10404e-07
1.35525e-20 -0.0247622 2.53333e-10 3.82505e-07
2.71051e-20 0.0247622 2.53306e-10 4.61319e-06
1.35525e-20 -0.0247664 0.000132515 3.81765e-07
0 0.0247664 0.000132509 4.60995e-06
0 0.0246221 0.00297551 3.7031e-06
-6.77626e-21 -0.0246221 0.00297544 7.94402e-08
0 -0.0249174 1.98984e-10 3.95585e-07
1.35525e-20 0.0249175 1.98951e-10 4.50116e-06
-2.71051e-20 -0.0247046 0.00334037 8.62562e-08
-1.35525e-20 0.0247048 0.00334043 4.05128e-06
2.25875e-21 -0.0249272 0.000565998 2.29562e-07
-4.51751e-21 0.0249272 0.00056594 3.03025e-06
6.77626e-21 0.0249353 0.00118348 1.24326e-06
4.51751e-21 -0.0249353 0.00118355 3.46105e-08
0 -0.0247706 0.00325114 8.81058e-08
-1.35525e-20 0.0247708 0.0032513 4.08051e-06
6.77626e-21 -0.0249331 0.00185459 1.2206e-08
4.51751e-21 0.0249331 0.00185457 1.03838e-06
-9.03502e-21 0.0249123 0.00254806 1.87858e-06
0 -0.0249123 0.00254799 3.23782e-08
0 -0.02507 0.000129703 4.23588e-07
0 0.02507 0.000129703 4.61647e-06
2.71051e-20 -0.0250722 1.7145e-10 4.25679e-07
4.06576e-20 0.0250723 1.7142e-10 4.62095e-06
-2.71051e-20 -0.024868 0.00338391 1.17319e-07
0 0.024868 0.00338392 5.00663e-06
-2.71051e-21 -0.0249657 0.00300265 7.03736e-08
2.25875e-21 0.0249658 0.00300271 3.34647e-06
0 -0.0252401 0.000277386 4.32879e-07
0 0.0252401 0.000277365 4.67032e-06
0 0.0252519 0.000862099 1.43266e-06
-2.71051e-20 -0.0252519 0.00086215 5.8283e-08
-2.71051e-20 0.025258 0.00150133 1.2145e-06
0 -0.0252581 0.00150136 1.54161e-08
1.35525e-20 0.0250939 0.00344404 5.46857e-06
-6.77626e-21 -0.025094 0.00344409 1.24658e-07
2.71051e-20 -0.0252521 0.00218276 9.45766e-09
0 0.0252521 0.00218278 1.06762e-06
0 -0.0253959 6.8222e-11 4.20713e-07
-1.35525e-20 0.0253959 6.82125e-11 4.81225e-06
2.71051e-20 -0.0254017 0.000130131 4.18492e-07
-1.35525e-20 0.0254017 0.000130132 4.81249e-06
2.71051e-20 -0.0252837 0.00277308 1.98896e-08
0 0.0252837 0.00277313 1.48853e-06
0 -0.0252272 0.00330837 1.21475e-07
-9.03502e-21 0.0252273 0.0033085 5.27464e-06
1.35525e-20 -0.0252594 0.00348814 1.33119e-07
1.35525e-20 0.0252598 0.00348825 5.75968e-06
-2.71051e-20 -0.0255539 4.13586e-11 3.84358e-07
0 0.0255539 4.13515e-11 4.86926e-06
-2.25875e-21 -0.0255655 0.000552669 2.29882e-07
0 0.0255655 0.000552643 3.33626e-06
2.25875e-21 0.0255758 0.00116696 1.60584e-06
-9.03502e-21 -0.0255758 0.00116699 3.73259e-08
-1.12938e-21 -0.0255762 0.00184005 1.37348e-08
2.25875e-21 0.0255762 0.00184006 1.39846e-06
2.25875e-21 -0.0255826 0.00249894 1.64146e-08
-4.51751e-21 0.0255826 0.00249898 1.4102e-06
1.35525e-20 -0.0257081 0.000131346 3.86525e-07
-1.35525e-20 0.0257081 0.000131355 5.04592e-06
-1.35525e-20 -0.0257119 3.5178e-11 3.88786e-07
-1.35525e-20 0.0257119 3.51714e-11 5.05562e-06
-2.71051e-20 -0.0254803 0.00354696 1.54443e-07
-2.71051e-20 0.0254805 0.00354701 6.26331e-06
-1.88079e-37 -0.0255731 0.00306885 8.46604e-08
-3.38813e-21 0.0255732 0.00306889 3.83548e-06
1.35525e-20 -0.0258709 0.000270959 3.66907e-07
2.71051e-20 0.0258709 0.000270951 5.17236e-06
0 0.0258866 0.000847023 1.84065e-06
-2.71051e-20 -0.0258866 0.000847041 5.70067e-08
2.71051e-20 -0.0258956 0.00148572 1.85338e-08
2.71051e-20 0.0258956 0.00148572 1.8936e-06
3.38813e-21 0.025711 0.00360842 7.79724e-06
0 -0.0257111 0.00360845 1.94842e-07
0 -0.0258953 0.00216728 1.16746e-08
-2.71051e-20 0.0258953 0.0021673 1.42506e-06
0 0.0260182 1.43804e-11 5.32723e-06
0 -0.0260182 1.43794e-11 3.88223e-07
3.38813e-21 -0.0257706 0.00362429 1.98257e-07
-1.01644e-20 0.0257711 0.00362443 7.8953e-06
1.35525e-20 0.0260277 0.000129341 5.3295e-06
-2.71051e-20 -0.0260277 0.000129326 3.85972e-07
9.03502e-21 -0.0258189 0.00342152 1.77021e-07
-4.51751e-21 0.025819 0.00342167 7.09546e-06
0 -0.0259036 0.00281595 2.40545e-08
0 0.0259037 0.002816 1.66215e-06
-1.35525e-20 -0.0261762 8.33893e-12 4.06262e-07
0 0.0261762 8.34033e-12 5.42308e-06
4.51751e-21 -0.0261907 0.000536281 2.18842e-07
-4.51751e-21 0.0261907 0.000536273 3.79192e-06
2.25875e-21 -0.0262092 0.00114375 4.01923e-08
-1.12938e-21 0.0262092 0.00114374 2.08531e-06
0 -0.0260128 0.00368881 1.76697e-07
0 0.0260131 0.00368888 6.91845e-06
1.12938e-21 -0.0262149 0.00181929 1.7439e-08
-1.12938e-21 0.026215 0.00181931 1.87084e-06
1.35525e-20 -0.0263228 0.000121185 3.51346e-07
0 0.0263228 0.000121207 5.61377e-06
-2.71051e-20 -0.0263263 7.17909e-12 3.5202e-07
-1.35525e-20 0.0263263 7.18003e-12 5.62318e-06
-2.25875e-21 -0.0262139 0.00250557 1.80344e-08
0 0.0262139 0.0025056 1.64372e-06
0 -0.0261379 0.00372349 1.71219e-07
1.35525e-20 0.026138 0.00372353 6.84808e-06
0 -0.0261645 0.00360603 1.68041e-07
1.35525e-20 0.0261645 0.00360614 6.68261e-06
3.76459e-22 -0.0262301 0.00320871 9.72506e-08
-2.63521e-21 0.0262302 0.00320874 4.20572e-06
0 0.0264876 0.000258964 5.76178e-06
0 -0.0264876 0.000258966 3.66828e-07
0 0.0265116 0.000819292 2.09079e-06
0 -0.0265116 0.000819294 6.05735e-08
0 -0.0265313 0.00145489 2.35588e-08
-2.71051e-20 0.0265313 0.00145489 2.45973e-06
1.35525e-20 0.026307 0.00376735 5.9234e-06
-6.77626e-21 -0.0263071 0.00376735 1.54999e-07
2.71051e-20 -0.0265288 0.0021494 1.60725e-08
0 0.0265288 0.00214943 1.72775e-06
0 0.0266623 2.30403e-12 5.38822e-06
0 -0.0266624 2.30216e-12 4.4391e-07
0 0.0266707 0.000106434 5.37199e-06
0 -0.0266707 0.000106397 4.46432e-07
0 -0.0265278 0.00283341 1.99016e-08
0 0.0265278 0.00283345 1.78349e-06
0 -0.0264226 0.00379805 1.52265e-07
6.77626e-21 0.0264228 0.00379811 5.63549e-06
-2.25875e-21 -0.0265365 0.00359663 1.4484e-07
4.51751e-21 0.0265366 0.00359666 5.23708e-06
1.35525e-20 0.0267959 1.18763e-12 5.02721e-06
1.35525e-20 -0.0267959 1.18628e-12 5.50304e-07
6.77626e-21 0.0268045 0.000501528 3.76372e-06
-1.12938e-21 -0.0268045 0.000501531 3.07651e-07
-2.25875e-21 0.0268426 0.00108835 2.70082e-06
-1.12938e-21 -0.0268426 0.00108835 5.30488e-08
-2.71051e-20 -0.0269065 8.39027e-05 5.95972e-07
0 0.0269065 8.3938e-05 4.71472e-06
0 -0.0269105 1.09903e-12 5.92794e-07
1.35525e-20 0.0269105 1.10016e-12 4.72482e-06
5.64689e-22 -0.0268569 0.00177537 2.48324e-08
-3.38813e-21 0.0268569 0.00177538 2.53715e-06
-2.25875e-21 -0.0268455 0.00249655 2.21673e-08
-3.38813e-21 0.0268455 0.00249657 2.01736e-06
0 -0.0268309 0.00322459 8.94713e-08
-7.67977e-21 0.0268309 0.00322463 3.62205e-06
0 0.0267575 0.00386117 5.84771e-06
-8.47033e-22 -0.0267577 0.00386154 1.79827e-07
0 0.0267685 0.00388946 5.88708e-06
0 -0.0267686 0.00388947 1.81787e-07
-1.69407e-21 -0.0267817 0.00389295 1.83733e-07
0 0.0267818 0.00389298 5.92896e-06
1.69407e-21 -0.0267895 0.00389519 1.85229e-07
0 0.0267897 0.00389526 5.95405e-06
8.47033e-22 -0.0267977 0.00388305 1.86361e-07
0 0.026798 0.00388297 5.97529e-06
-6.77626e-21 -0.0268077 0.00390073 1.85561e-07
-1.69407e-21 0.0268081 0.00390087 5.97327e-06
-2.71051e-20 0.0270953 0.000231001 4.29758e-06
0 -0.0270953 0.000231002 6.78571e-07
-2.71051e-20 0.0271307 0.000745292 2.61259e-06
0 -0.0271307 0.000745291 9.08492e-08
-5.42101e-20 0.0271875 0.00136731 3.60461e-06
2.71051e-20 -0.0271875 0.00136731 3.50657e-08
-2.71051e-20 0.0271699 0.00211433 2.43295e-06
0 -0.0271699 0.00211432 2.51711e-08
1.93608e-21 -0.0270374 0.00364693 1.96612e-07
-1.16165e-20 0.0270375 0.00364697 6.00929e-06
0 -0.0271534 0.00283785 2.70841e-08
0 0.0271534 0.00283788 2.14244e-06
0 0.0273865 0.000433223 4.76233e-06
0 -0.0273866 0.000433225 4.34304e-07
-1.35525e-20 -0.0272025 0.00404243 2.21813e-07
0 0.0272026 0.00404247 6.82598e-06
0 0.0275132 1.10792e-13 6.10776e-06
0 -0.0275208 1.06274e-13 6.12141e-07
0 -0.0275278 1.055e-13 6.07685e-07
0 0.027528 1.05214e-13 6.18405e-06
-2.63521e-21 -0.0275176 0.00087612 1.56355e-07
-5.64689e-22 0.0275176 0.000876116 4.85863e-06
-4.23516e-22 -0.0275404 1.84884e-05 6.00028e-07
0 0.027541 1.89916e-05 6.30578e-06
2.71051e-20 -0.0272668 0.00395785 2.23663e-07
1.35525e-20 0.0272669 0.00395792 6.88508e-06
7.05861e-23 0.0275074 0.00171411 3.81321e-06
-2.11758e-22 -0.0275075 0.00171411 3.89502e-08
0 -0.0274756 0.00248008 3.08531e-08
4.51751e-21 0.0274756 0.00248009 2.72423e-06
0 -0.0274313 0.00322718 8.2774e-08
0 0.0274313 0.00322722 3.50736e-06
1.35525e-20 -0.0273528 0.00409794 2.62642e-07
0 0.0273528 0.00409795 7.67243e-06
-9.03502e-22 -0.0274774 0.00369777 1.65019e-07
-4.51751e-22 0.0274774 0.00369779 5.41908e-06
-2.71051e-20 0.0278217 0.00130228 5.13753e-06
0 -0.0278217 0.00130226 5.03805e-08
-2.71051e-20 0.0277987 0.0020884 3.93716e-06
2.71051e-20 -0.0277987 0.0020884 3.8523e-08
-1.50584e-21 0.0278795 0.000330568 8.70126e-06
-1.50584e-21 -0.0278795 0.000330574 4.20017e-07
-1.01644e-20 -0.0275674 0.00417883 2.94948e-07
-6.77626e-21 0.0275674 0.00417882 8.41924e-06
2.71051e-20 -0.0277779 0.00283431 3.22825e-08
-2.71051e-20 0.0277779 0.00283433 2.43582e-06
-6.77626e-21 -0.0276684 0.00421691 2.9712e-07
-2.03288e-20 0.0276685 0.00421694 8.38159e-06
-1.35525e-20 -0.0277109 0.00403361 2.70231e-07
4.51751e-21 0.0277109 0.00403363 7.81852e-06
0 -0.0278037 0.00346795 4.6226e-08
2.71051e-20 0.0278037 0.00346796 2.4453e-06
-2.71051e-20 0.0280306 3.72656e-14 8.7291e-06
1.35525e-20 -0.0280306 3.72776e-14 5.13341e-07
0 0.0281597 0.000826399 8.34791e-06
2.25875e-21 -0.0281598 0.000826407 2.02501e-07
1.12938e-22 0.0281239 0.00170646 5.27611e-06
5.64689e-22 -0.0281239 0.00170647 5.62502e-08
-2.71051e-20 0.0281926 2.34404e-14 9.5982e-06
-1.35525e-20 -0.0281927 2.34062e-14 5.8444e-07
-5.64689e-22 -0.0281037 0.00246055 4.55702e-08
-1.12938e-21 0.0281037 0.00246055 3.43877e-06
1.35525e-20 -0.0278977 0.00430336 2.75358e-07
0 0.0278977 0.00430337 7.61894e-06
1.12938e-21 -0.0280999 0.00316544 4.51381e-08
-5.64689e-22 0.0280999 0.00316545 2.64893e-06
0 -0.0280091 0.00434534 2.71162e-07
0 0.0280092 0.00434534 7.55735e-06
-1.35525e-20 -0.0280389 0.00423702 2.64673e-07
-1.35525e-20 0.028039 0.00423703 7.3881e-06
3.76459e-22 -0.0281246 0.00384685 1.56184e-07
1.03526e-21 0.0281246 0.00384686 4.86585e-06
1.35525e-20 -0.0283974 1.64462e-14 4.2858e-07
6.77626e-21 0.0283974 1.64718e-14 1.07761e-05
-2.71051e-20 0.0284431 0.00129266 8.67897e-06
0 -0.0284432 0.00129266 8.10515e-08
-2.71051e-20 0.0284192 0.00207419 3.94632e-06
2.71051e-20 -0.0284192 0.00207419 5.88136e-08
-2.11758e-22 0.028497 0.000322303 1.18971e-05
0 -0.0284984 0.000322942 3.30971e-07
2.03288e-20 -0.0281711 0.00440642 2.55479e-07
6.77626e-21 0.0281711 0.00440643 6.83928e-06
-2.03288e-20 0.0285521 6.73772e-15 1.10798e-05
1.35525e-20 -0.0285522 6.71077e-15 3.86931e-07
0 0.0284166 0.00281029 3.43584e-06
0 -0.0284166 0.00281029 5.24664e-08
0 -0.0284105 0.00349472 4.97584e-08
2.71051e-20 0.0284105 0.00349472 2.36085e-06
-6.77626e-21 -0.02829 0.00445127 2.52745e-07
6.77626e-21 0.02829 0.00445127 6.49418e-06
0 -0.0284186 0.00424831 2.36419e-07
-5.64689e-22 0.0284186 0.00424832 5.92244e-06
-5.42101e-20 0.0287651 2.99683e-16 1.11742e-05
0 -0.0287651 2.80998e-16 5.05831e-07
-3.38813e-22 0.0287466 0.00168419 7.02356e-06
1.12938e-22 -0.0287466 0.00168419 8.70848e-08
-2.71051e-21 0.0288078 0.000872628 9.9207e-06
-1.807e-21 -0.0288079 0.000872634 2.1621e-07
-6.58803e-22 0.0287473 0.00242277 4.28267e-06
-4.70574e-22 -0.0287474 0.00242278 7.45484e-08
1.12938e-21 0.0287216 0.00316759 2.95086e-06
-1.12938e-21 -0.0287216 0.00316759 6.52614e-08
0 0.028581 0.00456087 6.62873e-06
0 -0.028581 0.00456092 2.92483e-07
-2.71051e-21 -0.0287115 0.00388137 1.54548e-07
2.71051e-21 0.0287115 0.00388136 4.22477e-06
0 -0.0286396 0.00458297 2.96248e-07
0 0.0286396 0.00458296 6.57043e-06
0 -0.0286466 0.00457509 2.9711e-07
-3.38813e-21 0.0286467 0.00457506 6.57384e-06
0 -0.0290134 1.85246e-16 3.53832e-07
-6.77626e-21 0.0290134 1.97032e-16 1.0761e-05
0 -0.0286559 0.00458913 3.02051e-07
0 0.028656 0.00458914 6.61348e-06
6.77626e-21 -0.0286627 0.00455199 2.92166e-07
0 0.0286629 0.00455191 6.45744e-06
-6.77626e-21 0.0290304 8.01652e-05 1.08975e-05
0 -0.0290304 8.05642e-05 3.41826e-07
-2.25875e-21 0.029033 0.000330842 1.12995e-05
-5.64689e-22 -0.0290331 0.000330825 3.42763e-07
3.38813e-21 0.0290394 1.68622e-16 1.0759e-05
1.69407e-21 -0.0290395 1.57579e-16 3.50708e-07
3.38813e-21 -0.0286826 0.00457917 3.01608e-07
0 0.0286827 0.00457915 6.56227e-06
-1.69407e-21 -0.0286987 0.00460523 3.03576e-07
-1.69407e-21 0.0286989 0.00460528 6.54015e-06
-2.71051e-20 0.0290348 0.00281407 3.5072e-06
-2.71051e-20 -0.0290349 0.00281407 9.11049e-08
-2.71051e-20 0.0291549 0.00144558 1.00165e-05
0 -0.029155 0.00144558 1.31705e-07
-2.71051e-20 0.0291572 0.00194765 7.94e-06
2.71051e-20 -0.0291573 0.00194765 1.28057e-07
-5.80823e-21 -0.0289115 0.00431141 3.12214e-07
9.68038e-21 0.0289115 0.00431139 6.54007e-06
2.71051e-20 0.0290289 0.00350524 2.55862e-06
0 -0.0290289 0.00350525 6.83478e-08
0 0.0293191 1.50334e-16 1.15808e-05
-1.35525e-20 -0.0293191 1.46104e-16 4.73236e-07
-1.27055e-21 0.029326 0.000839966 1.02415e-05
-4.23516e-21 -0.0293263 0.000839955 2.3903e-07
5.92923e-21 0.029346 0.000821793 1.02946e-05
8.04681e-21 -0.029346 0.00082205 2.43333e-07
3.34578e-20 -0.0293459 0.000843849 2.4014e-07
-4.23516e-22 0.0293459 0.000843917 1.02609e-05
1.48231e-20 -0.0293597 0.0008398 2.42332e-07
8.04681e-21 0.0293599 0.000839809 1.03089e-05
-1.35525e-20 -0.0290221 0.00472703 3.42809e-07
-2.71051e-20 0.0290221 0.00472702 6.6795e-06
-1.35525e-20 0.0293681 0.00167842 9.7795e-06
-1.35525e-20 -0.0293682 0.00167842 1.3215e-07
0 0.0293492 0.00243751 5.96383e-06
0 -0.0293492 0.00243751 1.19756e-07
-1.35525e-20 -0.029113 0.00461952 3.53743e-07
0 0.029113 0.00461948 6.9245e-06
-1.12938e-21 0.0293461 0.00316209 3.67818e-06
0 -0.0293461 0.00316209 1.03868e-07
3.38813e-21 0.0295421 1.72528e-17 1.22114e-05
-1.69407e-20 -0.0295424 1.48788e-17 4.26917e-07
2.25875e-21 -0.0293068 0.00388267 1.54887e-07
4.51751e-21 0.0293068 0.00388264 3.9928e-06
0 0.0295827 0.00139949 1.22304e-05
0 -0.0295827 0.00139947 1.4888e-07
0 -0.0292241 0.0048031 4.17547e-07
-1.35525e-20 0.0292241 0.00480311 7.53875e-06
-1.12938e-21 -0.0296229 0.000312408 4.31193e-07
0 0.029623 0.000312331 1.24667e-05
-2.71051e-20 0.0295756 0.00193309 1.04823e-05
0 -0.0295757 0.0019331 1.51347e-07
-3.38813e-21 -0.0296592 -6.02731e-17 4.43205e-07
1.35525e-20 0.0296597 -5.83194e-17 1.24246e-05
-1.35525e-21 0.0293409 0.00435962 5.91913e-06
-4.51751e-22 -0.0293409 0.00435962 2.87255e-07
-2.71051e-20 0.0296739 0.0027863 5.72979e-06
0 -0.0296739 0.00278629 1.47492e-07
0 0.0294234 0.00487816 8.73297e-06
-6.77626e-21 -0.0294234 0.00487816 5.28255e-07
0 0.029651 0.00350312 2.95513e-06
0 -0.029651 0.00350313 1.05906e-07
-1.35525e-20 -0.0298815 -1.91512e-16 5.17227e-07
-1.35525e-20 0.0298817 -1.91316e-16 1.25354e-05
6.77626e-21 -0.0295073 0.00479844 5.49386e-07
0 0.0295074 0.00479832 9.06037e-06
0 -0.0295245 0.00491622 5.48196e-07
1.35525e-20 0.0295246 0.00491628 8.93823e-06
-1.35525e-20 -0.0295733 0.00467629 5.01171e-07
-4.51751e-21 0.0295734 0.00467625 8.56654e-06
-2.71051e-20 -0.0296719 0.00412285 9.8425e-08
0 0.0296719 0.00412284 2.86159e-06
-5.27043e-21 0.0299617 0.000815882 1.30029e-05
0 -0.0299617 0.000815846 3.46085e-07
0 0.0299758 0.000107323 1.27102e-05
1.35525e-20 -0.0299758 0.000107555 4.89244e-07
0 0.0299859 2.29405e-16 1.27025e-05
2.71051e-20 -0.0299859 2.25785e-16 4.89124e-07
3.76459e-22 0.0300036 0.00165378 1.23416e-05
-1.8823e-22 -0.0300036 0.00165377 1.88595e-07
1.35525e-20 0.0300697 -5.94543e-16 1.37816e-05
1.35525e-20 -0.0300699 -5.9649e-16 4.9738e-07
4.51751e-21 0.0299914 0.00233931 8.25007e-06
-2.25875e-21 -0.0299915 0.0023393 1.90472e-07
0 -0.0297031 0.00498347 5.09613e-07
-1.35525e-20 0.0297031 0.00498349 8.30236e-06
1.12938e-21 0.0299738 0.00312123 4.6777e-06
-1.35525e-21 -0.0299738 0.00312125 1.74318e-07
1.35525e-20 0.0301809 0.000217208 1.43562e-05
0 -0.0301813 0.000217594 5.02189e-07
1.12938e-21 0.0299673 0.0038261 2.9458e-06
4.51751e-21 -0.0299673 0.00382611 1.28312e-07
0 0.0302277 -3.27878e-16 1.42793e-05
0 -0.0302282 -3.28758e-16 4.99685e-07
-6.77626e-21 -0.0298591 0.00504223 5.06031e-07
-6.77626e-21 0.0298591 0.00504225 8.41096e-06
1.35525e-20 -0.0299002 0.00489111 4.86561e-07
0 0.0299003 0.00489105 8.16954e-06
4.14105e-21 0.029979 0.00451148 5.49886e-06
-1.12938e-21 -0.029979 0.00451149 2.96544e-07
2.71051e-20 0.0302909 0.00277112 5.84186e-06
2.71051e-20 -0.0302909 0.00277112 2.42686e-07
-2.71051e-20 0.0304298 0.0004666 1.62236e-05
0 -0.0304299 0.000466575 5.54112e-07
2.71051e-20 0.0304045 0.00137209 1.62326e-05
-2.71051e-20 -0.0304045 0.00137206 2.58991e-07
-5.42101e-20 0.0304135 0.00193184 1.30428e-05
0 -0.0304135 0.00193183 2.68643e-07
0 0.0302818 0.00348659 3.28158e-06
2.71051e-20 -0.0302818 0.0034866 1.94558e-07
0 -0.0300763 0.00512405 4.71007e-07
1.18585e-20 0.0300764 0.0051241 7.56455e-06
0 0.0300987 0.00513248 7.50476e-06