# p  POINT_DATA 50712
# x  y  z  p
-0.0115468 0 6.39774e-08 0.0146352
0.0115468 0 6.39774e-08 -0.00824219
0.0115468 6.77626e-21 0.00015991 -0.00824094
-0.0115468 0 0.000159974 0.0146354
0.0115468 1.35525e-20 0.000505084 -0.00824042
-0.0115468 1.35525e-20 0.000505284 0.0146354
0.0115468 0 0.000661266 -0.00824116
-0.0115468 1.35525e-20 0.000661528 0.0146352
0.0115468 6.77626e-21 0.000824591 -0.00823511
-0.0115468 1.35525e-20 0.000824855 0.0146353
0.0115468 0 0.00119315 -0.00823433
-0.0115467 -6.77626e-21 0.00119341 0.0146353
0.0116176 0 9.47928e-05 -0.00823953
-0.0116176 -1.35525e-20 9.48608e-05 0.0146355
-0.0116191 0 6.70009e-08 0.0146355
0.0116191 -1.35525e-20 6.69999e-08 -0.00823955
0.0115467 0 0.00135627 -0.00823955
-0.0115467 0 0.00135654 0.0146352
0.0116144 0 0.0005677 -0.00823889
-0.0116144 0 0.000567955 0.0146355
0.0116106 0 0.000748261 -0.00823573
-0.0116106 0 0.00074858 0.0146354
0.0115467 6.77626e-21 0.00152892 -0.00823409
-0.0115467 0 0.00152913 0.0146353
0.0116105 -1.35525e-20 0.00124687 -0.00823467
-0.0116105 0 0.00124719 0.0146354
0.0116054 0 0.00142604 -0.00823451
-0.0116054 0 0.00142632 0.0146354
0.0115467 0 0.00190897 -0.00823487
-0.0115467 -6.77626e-21 0.00190903 0.0146353
0.0117276 1.35525e-20 6.63331e-08 -0.00823905
-0.0117276 0 6.63357e-08 0.0146355
0.0117103 2.71051e-20 0.000650308 -0.00823748
-0.0117103 0 0.000650723 0.0146355
0.0115467 0 0.002087 -0.00824158
-0.0115467 0 0.002087 0.0146351
0.011609 0 0.00193558 -0.00823558
-0.011609 0 0.00193568 0.0146354
0.0117025 1.35525e-20 0.00130847 -0.00823686
-0.0117026 6.77626e-21 0.00130891 0.0146354
0.0116004 0 0.00211165 -0.00824095
-0.0116004 -1.35525e-20 0.00211165 0.0146351
0.0116425 1.35525e-20 0.00204724 -0.00823976
-0.0116425 -1.35525e-20 0.0020473 0.0146352
-0.0116585 -1.35525e-20 0.00213828 0.0146353
0.0116585 1.35525e-20 0.00213829 -0.00823868
0.0117067 0 0.00192887 -0.00823694
-0.0117067 0 0.00192906 0.0146354
0.0118537 0 0.000958822 -0.00823795
-0.0118537 4.51751e-21 0.000959338 0.0146356
0.0119178 -2.25875e-21 0.000318505 -0.00823512
-0.0119179 6.77626e-21 0.000318753 0.0146356
0.011932 -1.35525e-20 7.04545e-08 -0.00823589
-0.011932 1.35525e-20 7.04584e-08 0.0146357
0.0118325 -2.71051e-21 0.00163048 -0.00823577
-0.0118325 8.13152e-21 0.00163082 0.0146356
0.0118724 -1.35525e-20 0.00142154 -0.00823789
-0.0118724 0 0.00142207 0.0146356
-0.0117616 1.35525e-20 0.0021856 0.0146356
0.0117616 -1.35525e-20 0.0021856 -0.00823532
0.0118132 -8.13152e-20 0.00220929 -0.00823611
-0.0118132 -2.71051e-20 0.00220929 0.0146356
0.0118989 -3.76459e-22 0.00195759 -0.0082321
-0.0118989 1.12938e-21 0.00195776 0.0146359
0.0119718 0 0.00153816 -0.0082474
-0.0119719 6.77626e-21 0.00153863 0.0146355
0.0120983 0 7.96199e-08 -0.00823319
-0.0120983 1.35525e-20 7.96227e-08 0.0146359
0.0120694 -6.77626e-21 0.000852289 -0.00824049
-0.0120695 6.77626e-21 0.000852887 0.0146358
0.0122081 0 0.000167029 -0.00823164
-0.0122082 -2.71051e-20 0.000167211 0.0146356
0.012221 0 7.14643e-08 -0.00823168
-0.012221 -1.35525e-20 7.14638e-08 0.0146356
0.0121684 -1.05409e-21 0.0012252 -0.00823145
-0.0121684 3.01167e-22 0.00122579 0.0146361
-0.0120251 0 0.00230653 0.0146362
0.0120251 -2.71051e-20 0.00230654 -0.00823171
0.0122349 5.16287e-21 0.000642094 -0.00822738
-0.0122349 -3.87215e-21 0.00064261 0.0146362
0.0120593 5.0822e-21 0.00232225 -0.00823153
-0.0120595 -1.69407e-21 0.00232234 0.0146362
0.0122855 2.71051e-20 6.71745e-08 -0.00823007
-0.0122856 0 6.71712e-08 0.0146361
0.0122109 4.79985e-21 0.00173612 -0.00822813
-0.012211 4.79985e-21 0.00173646 0.0146363
0.0121468 1.35525e-20 0.00214597 -0.00823025
-0.0121468 -5.42101e-21 0.00214607 0.0146363
0.0122263 6.77626e-21 0.00229069 -0.0082301
-0.0122264 0 0.00229083 0.0146364
0.0124605 1.35525e-20 5.58025e-08 -0.00822619
-0.0124606 -2.71051e-20 5.57974e-08 0.0146363
0.0125121 2.1684e-20 0.000225072 -0.0082249
-0.0125121 1.0842e-20 0.000225226 0.0146365
0.012289 0 0.00242767 -0.00823062
-0.012289 1.35525e-20 0.00242767 0.0146364
0.0125901 0 0.000921608 -0.00822632
-0.0125902 0 0.000921969 0.0146368
-0.0124011 0 0.00241706 0.0146366
0.0124011 1.35525e-20 0.00241705 -0.00822849
-0.0123956 0 0.00247653 0.0146366
0.0123957 0 0.00247657 -0.00822846
0.0124525 1.69407e-21 0.00218684 -0.00822871
-0.0124526 0 0.00218694 0.0146366
0.0125382 -1.35525e-20 0.00209398 -0.0082328
-0.0125382 -2.71051e-20 0.00209412 0.0146365
0.0126447 -1.89735e-20 0.00162104 -0.00822299
-0.0126448 -1.0842e-20 0.00162131 0.014637
-0.012772 1.35525e-20 0.000141313 0.0146371
0.0127721 0 0.000141176 -0.00821892
-0.0127747 0 1.51157e-08 0.0146371
0.0127748 2.71051e-20 1.51099e-08 -0.00821905
0.0126132 2.71051e-21 0.00241893 -0.00822322
-0.0126132 -1.0842e-20 0.00241896 0.014637
0.0125864 1.35525e-20 0.00256393 -0.00822189
-0.0125864 1.35525e-20 0.00256393 0.014637
-0.0129279 -1.35525e-20 4.53136e-09 0.0146375
0.0129279 1.35525e-20 4.53058e-09 -0.00821574
0.0129181 -6.77626e-21 0.000605291 -0.00821645
-0.0129182 -2.25875e-21 0.000605505 0.0146374
0.0129069 2.25875e-21 0.00122264 -0.00821638
-0.012907 4.51751e-21 0.00122289 0.0146375
-0.0127465 0 0.00263727 0.0146373
0.0127465 5.42101e-20 0.0026373 -0.00821619
0.0128746 4.51751e-21 0.00194104 -0.0082191
-0.0128746 4.51751e-21 0.00194116 0.0146374
0.0130688 1.35525e-20 3.79635e-09 -0.00821236
-0.0130689 -1.35525e-20 3.79672e-09 0.0146378
0.0130684 0 0.000129705 -0.00821233
-0.0130685 -1.35525e-20 0.000129767 0.0146378
0.0129106 -4.51751e-21 0.00229685 -0.00821593
-0.0129106 0 0.0022969 0.0146375
0.0131166 2.71051e-21 0.00164045 -0.00820952
-0.0131166 2.71051e-20 0.0016406 0.0146379
0.013248 0 0.000302942 -0.0082081
-0.013248 0 0.000303006 0.0146381
-0.0129825 6.77626e-21 0.00274594 0.0146379
0.0129826 1.35525e-20 0.00274602 -0.00820754
0.0132464 2.71051e-20 0.000911421 -0.00820846
-0.0132464 -2.71051e-20 0.000911568 0.014638
-0.0131305 1.35525e-20 0.00262462 0.0146381
0.0131306 -4.51751e-21 0.0026246 -0.00820487
0.0132416 0 0.00211418 -0.00821281
-0.0132416 0 0.00211424 0.014638
0.0131188 1.35525e-20 0.00280831 -0.00820461
-0.0131188 6.77626e-21 0.00280832 0.0146381
-0.013437 0 2.0837e-09 0.0146384
0.0134371 1.35525e-20 2.08334e-09 -0.00820423
-0.0134397 0 0.000120678 0.0146384
0.0134397 0 0.00012062 -0.00820414
0.0135679 0 1.40568e-09 -0.00820192
-0.0135679 -1.35525e-20 1.40569e-09 0.0146387
0.0135763 4.51751e-21 0.000596651 -0.00820146
-0.0135763 4.51751e-21 0.000596723 0.0146386
0.0135724 4.51751e-21 0.00122409 -0.0082003
-0.0135724 0 0.00122418 0.0146386
-0.0133502 2.71051e-20 0.0029148 0.0146384
0.0133503 2.71051e-20 0.00291486 -0.00820165
0.013478 4.51751e-21 0.00238371 -0.00820154
-0.013478 4.51751e-21 0.00238375 0.0146385
0.0135677 4.51751e-21 0.0018552 -0.00820084
-0.0135677 2.25875e-21 0.00185526 0.0146386
0.0136939 0 1.22236e-09 -0.00819926
-0.013694 -1.35525e-20 1.2223e-09 0.0146389
0.0136952 1.35525e-20 0.000110031 -0.00819923
-0.0136952 1.35525e-20 0.000110068 0.0146389
-0.0135432 -1.69407e-20 0.00300515 0.0146389
0.0135435 2.03288e-20 0.00300527 -0.00819105
-0.0139035 0 0.000294203 0.0146392
0.0139035 0 0.00029418 -0.00819492
0.0135883 1.69407e-20 0.00302624 -0.00818967
-0.0135884 -3.38813e-21 0.00302627 0.014639
0.0139156 0 0.000900725 -0.0081939
-0.0139156 0 0.000900773 0.0146392
-0.01368 -2.25875e-21 0.00276396 0.0146391
0.0136801 4.51751e-21 0.00276395 -0.0081903
0.0139126 0 0.00154323 -0.00819249
-0.0139126 0 0.00154327 0.0146392
0.0138988 0 0.00219575 -0.00819148
-0.0138988 0 0.00219579 0.0146392
-0.0141099 1.35525e-20 3.98814e-10 0.0146395
0.01411 2.71051e-20 3.98707e-10 -0.00819031
-0.0141138 -1.35525e-20 9.87891e-05 0.0146395
0.0141139 0 9.87469e-05 -0.00819023
-0.0138007 -1.35525e-20 0.00312566 0.0146393
0.0138008 1.35525e-20 0.00312569 -0.00819056
0.0142228 -1.35525e-20 2.30663e-10 -0.00818796
-0.0142228 0 2.30703e-10 0.0146397
0.0142415 2.25875e-21 0.000580985 -0.00818698
-0.0142415 0 0.000581003 0.0146397
0.0142522 -1.12938e-21 0.00120638 -0.00818639
-0.0142522 -5.64689e-21 0.0012064 0.0146398
0.0143301 0 2.07129e-10 -0.00818517
-0.0143301 0 2.07152e-10 0.0146398
0.0143313 0 8.886e-05 -0.00818516
-0.0143313 -1.35525e-20 8.88982e-05 0.0146398
-0.0139712 -6.77626e-21 0.00320466 0.0146401
0.0139713 -6.77626e-21 0.00320471 -0.00817513
0.0142441 -4.51751e-21 0.00187483 -0.00818677
-0.0142441 6.77626e-21 0.00187485 0.0146398
-0.0140734 -5.42101e-21 0.00302456 0.0146402
0.0140735 -2.71051e-21 0.00302455 -0.00817451
0.0141851 -4.51751e-21 0.0026086 -0.00818478
-0.0141851 9.03502e-22 0.0026086 0.01464
0.0140971 6.77626e-21 0.00326317 -0.00817489
-0.0140971 -6.77626e-21 0.00326321 0.0146403
0.0142075 1.35525e-20 0.0031652 -0.00817524
-0.0142075 0 0.00316528 0.0146405
-0.0145609 -2.71051e-20 0.00028173 0.0146401
0.0145609 0 0.000281722 -0.0081801
0.0145815 0 0.000874339 -0.00817887
-0.0145815 0 0.000874351 0.0146404
0.0142358 0 0.00332756 -0.00818422
-0.0142358 -1.35525e-20 0.00332756 0.0146403
-0.0145905 -2.71051e-20 0.00151944 0.0146404
0.0145905 -2.71051e-20 0.00151943 -0.00818019
-0.0145715 0 0.00221287 0.0146404
0.0145715 2.71051e-20 0.00221286 -0.00818342
-0.0143572 -1.35525e-20 0.00338359 0.0146405
0.0143573 1.35525e-20 0.00338361 -0.0081841
0.0144402 -7.52918e-21 0.00302844 -0.00818144
-0.0144402 0 0.00302844 0.0146406
-0.0143824 1.35525e-20 0.00330546 0.0146405
0.0143824 1.35525e-20 0.00330544 -0.00818288
-0.0147853 1.35525e-20 4.21902e-11 0.0146405
0.0147853 0 4.21638e-11 -0.00817636
-0.0147878 0 7.9557e-05 0.0146405
0.0147879 0 7.95089e-05 -0.00817632
-0.0148815 1.35525e-20 2.04877e-11 0.0146407
0.0148815 1.35525e-20 2.04793e-11 -0.00817584
0.0146215 5.42101e-20 0.00280141 -0.00818781
-0.0146215 2.71051e-20 0.00280142 0.0146406
0.0149014 -1.12938e-21 0.000554696 -0.00817369
-0.0149014 6.77626e-21 0.000554698 0.0146409
-0.0145855 -2.71051e-20 0.00326148 0.0146408
0.0145855 -2.71051e-20 0.00326148 -0.00818464
0.014922 1.12938e-21 0.00116913 -0.00817263
-0.014922 -1.12938e-21 0.00116914 0.014641
0.0149733 0 1.85822e-11 -0.00817343
-0.0149733 0 1.85877e-11 0.0146408
0.0149737 0 7.37337e-05 -0.00817342
-0.0149737 -1.35525e-20 7.37863e-05 0.0146408
0.0146079 0 0.00349938 -0.00818308
-0.014608 0 0.00349939 0.0146408
0.0149198 -4.51751e-21 0.00184898 -0.00817539
-0.0149198 -1.12938e-21 0.00184898 0.014641
0.0146663 1.35525e-20 0.00343242 -0.00818166
-0.0146663 -1.35525e-20 0.00343246 0.014641
0.0149195 -3.38813e-21 0.0025206 -0.008177
-0.0149195 -1.12938e-21 0.00252061 0.0146412
0.0147322 1.35525e-20 0.00355672 -0.00818031
-0.0147322 -2.71051e-20 0.00355672 0.0146412
0.0148881 -1.12938e-21 0.00309606 -0.00817631
-0.0148881 -2.25875e-21 0.00309607 0.0146413
-0.0152103 0 0.000264569 0.0146412
0.0152103 0 0.000264568 -0.00816946
-0.0152372 0 0.000832799 0.0146416
0.0152372 0 0.000832795 -0.00816648
-0.0148482 2.03288e-20 0.00360995 0.0146415
0.0148482 -6.77626e-21 0.00360996 -0.00817179
-0.0148928 1.35525e-20 0.00347705 0.0146415
0.0148929 1.35525e-20 0.00347703 -0.00817227
-0.0152552 2.71051e-20 0.00147319 0.0146415
0.0152552 -2.71051e-20 0.00147319 -0.00816539
-0.0152472 0 0.00216845 0.0146416
0.0152472 2.71051e-20 0.00216845 -0.00817298
-0.0154527 -6.77626e-21 2.80358e-12 0.0146413
0.0154528 0 2.79985e-12 -0.00816396
-0.015454 6.77626e-21 6.43525e-05 0.0146413
0.0154541 -6.77626e-21 6.42876e-05 -0.00816393
0.0150217 2.71051e-20 0.0036898 -0.00816601
-0.0150218 1.35525e-20 0.00368982 0.0146421
0.0150966 -2.71051e-20 0.00340471 -0.00816778
-0.0150966 0 0.00340473 0.0146419
0.0152385 2.71051e-20 0.00284793 -0.00816416
-0.0152385 0 0.00284795 0.0146421
0.0155345 -1.35525e-20 1.12383e-12 -0.00816366
-0.0155345 0 1.12475e-12 0.0146414
0.015136 1.35525e-20 0.00358109 -0.00816428
-0.0151361 1.35525e-20 0.00358111 0.0146423
-0.0155483 0 0.000512804 0.0146416
0.0155483 1.12938e-21 0.000512807 -0.00816232
0.0156089 -6.77626e-21 5.68089e-05 -0.0081595
-0.015609 -6.77626e-21 5.68715e-05 0.0146414
0.0156116 0 1.05225e-12 -0.00815948
-0.0156117 1.35525e-20 1.05295e-12 0.0146414
0.0151553 0 0.00375104 -0.00816717
-0.0151554 1.35525e-20 0.00375106 0.0146425
0.0156 1.58113e-21 0.00110028 -0.00815987
-0.0156001 1.807e-21 0.00110028 0.0146422
0.0155874 -5.64689e-22 0.0017884 -0.00816677
-0.0155874 0 0.0017884 0.0146422
0.0152737 -1.35525e-20 0.00381165 -0.00815644
-0.0152737 1.35525e-20 0.00381167 0.0146432
0.0153111 1.35525e-20 0.00369351 -0.00815687
-0.0153111 2.71051e-20 0.00369353 0.0146432
0.0155684 -5.64689e-22 0.00250744 -0.00816969
-0.0155684 -1.12938e-21 0.00250745 0.0146424
-0.015842 -2.71051e-20 0.000233949 0.0146415
0.015842 0 0.000233939 -0.00815407
0.0155233 -2.25875e-21 0.00325342 -0.00816417
-0.0155233 3.16226e-21 0.00325344 0.0146429
-0.0158872 2.71051e-20 0.000762439 0.0146423
0.0158872 0 0.000762443 -0.00815865
0.0154852 0 0.00363865 -0.00815265
-0.0154853 0 0.00363867 0.0146437
0.0154926 -6.77626e-21 0.00391521 -0.00815791
-0.0154927 0 0.00391523 0.0146436
-0.0159268 2.71051e-20 0.00138121 0.0146429
0.0159268 0 0.00138121 -0.00815254
0.0155593 0 0.00385211 -0.00815848
-0.0155593 1.35525e-20 0.00385213 0.0146437
-0.0158994 0 0.00212232 0.0146427
0.0158994 5.42101e-20 0.00212231 -0.00817524
0.0155753 0 0.0039559 -0.00816492
-0.0155753 -1.35525e-20 0.00395592 0.0146435
0.0158856 0 0.00284658 -0.00816758
-0.0158856 0 0.00284659 0.014643
0.0156482 0 0.0040035 -0.0081709
-0.0156482 2.03288e-20 0.00400354 0.0146434
-0.0161504 3.38813e-21 0.000464673 0.0146426
0.0161504 2.82344e-21 0.000464663 -0.00814899
0.0156709 1.35525e-20 0.00394832 -0.00816889
-0.015671 1.35525e-20 0.00394834 0.0146435
0.0157655 0 0.00368363 -0.00816393
-0.0157655 -3.01167e-21 0.00368365 0.0146438
0.0162446 4.23516e-22 7.62403e-14 -0.00814765
-0.016245 0 7.5661e-14 0.0146427
-0.0162671 3.38813e-21 1.42354e-05 0.0146427
0.0162671 3.38813e-21 1.44936e-05 -0.00814715
-0.0162672 -4.23516e-22 1.74791e-06 0.0146427
0.0162714 0 1.43204e-06 -0.0081472
0.0159384 0 0.00346447 -0.00816912
-0.0159385 0 0.00346449 0.0146439
-0.0162376 -6.21157e-22 0.00174471 0.0146433
0.0162376 -4.51751e-22 0.00174471 -0.00815683
0.0163345 -4.51751e-21 0.000944398 -0.00814941
-0.0163345 -4.51751e-21 0.000944389 0.0146433
0.015896 5.42101e-20 0.00392571 -0.00817037
-0.015896 0 0.00392573 0.0146438
-0.0162554 -2.42009e-22 0.00244439 0.0146438
0.0162554 2.42009e-22 0.00244439 -0.00815262
0.0159401 0 0.00419454 -0.00817302
-0.0159401 0 0.00419456 0.014644
0.0162141 1.12938e-21 0.00317059 -0.00815577
-0.0162141 -2.82344e-21 0.0031706 0.0146442
0.015999 0 0.0041493 -0.00817085
-0.0159991 0 0.0041493 0.0146441
0.0160259 -1.35525e-20 0.00425061 -0.00816482
-0.016026 1.35525e-20 0.00425065 0.0146446
-0.0166367 4.70574e-22 0.00035282 0.0146459
0.0166368 0 0.000352947 -0.00812135
0.0160815 1.35525e-20 0.00428686 -0.00816511
-0.0160816 2.71051e-20 0.00428691 0.0146449
0.0161049 -1.35525e-20 0.004232 -0.00816457
-0.0161051 0 0.00423202 0.0146449
0.0162263 -1.05879e-22 0.00384235 -0.0081602
-0.0162266 -1.05879e-22 0.00384242 0.0146448
0.0162339 0 0.00382625 -0.00815999
-0.016234 -9.52912e-22 0.00382671 0.0146448
0.0162351 -1.05879e-22 0.00384456 -0.00816012
-0.0162352 0 0.00384458 0.0146448
-0.0167083 6.77626e-21 1.01673e-14 0.0146456
0.0167084 -1.35525e-20 1.01342e-14 -0.0081237
0.0166691 2.71051e-20 0.00146459 -0.00817342
-0.0166691 2.71051e-20 0.0014646 0.0146432
0.0165265 -2.71051e-20 0.00282079 -0.00814517
-0.0165265 0 0.0028208 0.0146446
0.0161983 0 0.00436316 -0.00816635
-0.0161985 -6.77626e-21 0.00436322 0.014645
-0.0166645 -2.71051e-20 0.00194622 0.0146443
0.0166645 2.71051e-20 0.00194622 -0.00812825
0.0165187 5.42101e-20 0.00350445 -0.00814075
-0.0165187 0 0.00350445 0.0146452
0.0169423 -1.35525e-20 1.10804e-15 -0.00814101
-0.0169424 0 1.1016e-15 0.014644
0.0163498 -1.35525e-20 0.00446209 -0.00817339
-0.0163499 -1.35525e-20 0.00446209 0.0146448
0.0169271 0 0.000866322 -0.00813896
-0.0169272 -1.69407e-21 0.000866349 0.0146443
-0.0168736 1.35525e-20 0.00168494 0.0146442
0.0168736 -1.35525e-20 0.00168494 -0.00814357
0.0164548 1.12938e-21 0.00428001 -0.00817464
-0.0164548 0 0.00428001 0.0146447
0.0168849 0 0.00243442 -0.00812859
-0.0168849 -1.69407e-21 0.00243442 0.0146452
-0.0164961 0 0.00455753 0.0146459
0.0164962 -1.35525e-20 0.0045576 -0.00815492
0.0168359 2.25875e-21 0.00316003 -0.00813323
-0.0168359 0 0.00316003 0.0146455
-0.0171339 -6.77626e-21 1.75376e-16 0.014644
0.0171341 -6.77626e-21 1.78371e-16 -0.00814493
-0.0170775 -2.71051e-20 0.00142436 0.0146442
0.0170775 0 0.00142435 -0.00814488
-0.0171372 -4.06576e-21 0.000271957 0.0146438
0.0171373 5.42101e-21 0.000272005 -0.00814697
-0.0170666 -2.71051e-20 0.0019255 0.0146448
0.0170666 0 0.0019255 -0.00813183
0.0167863 2.25875e-21 0.00388663 -0.0081425
-0.0167864 1.12938e-21 0.00388663 0.0146461
-0.0166205 1.35525e-20 0.00463871 0.0146465
0.0166206 0 0.00463876 -0.00814595
-0.0166523 -1.35525e-20 0.00459983 0.0146465
0.0166524 0 0.00459991 -0.00814481
-0.0166794 -1.35525e-20 0.00467709 0.0146464
0.0166794 0 0.00467712 -0.00814546
-0.0168439 -1.41172e-22 0.004335 0.0146466
0.0168452 -4.23516e-22 0.00433529 -0.00814431
-0.0171764 0 0.00277492 0.0146459
0.0171764 2.71051e-20 0.00277493 -0.00812083
0.0174301 0 3.0333e-16 -0.00814105
-0.0174307 -1.35525e-20 3.00572e-16 0.0146439
-0.0168042 0 0.0046435 0.0146469
0.0168042 -1.35525e-20 0.00464355 -0.00813703
-0.0167886 6.77626e-21 0.00474834 0.0146469
0.0167886 -6.77626e-21 0.00474833 -0.0081371
0.0174491 0 0.000139018 -0.00814063
-0.0174496 0 0.000138437 0.0146438
0.0171294 0 0.00350657 -0.00812531
-0.0171294 2.71051e-20 0.00350657 0.0146463
-0.0175669 -6.77626e-21 -2.94671e-17 0.0146437
0.0175669 0 -2.95019e-17 -0.00813766
0.0175583 2.11758e-21 0.000896586 -0.00813267
-0.0175584 2.82344e-22 0.000896625 0.0146444
0.0175189 1.41172e-22 0.00167529 -0.00812948
-0.0175189 1.41172e-22 0.00167528 0.0146451
-0.0176062 0 4.62812e-05 0.0146438
0.0176065 -6.77626e-21 4.65287e-05 -0.00813736
-0.0176089 0 -8.32244e-18 0.0146438
0.0176092 0 -8.282e-18 -0.00813736
-0.0171399 0 0.00413685 0.0146469
0.0171399 0 0.00413685 -0.00814602
-0.0176343 0 -4.65435e-18 0.0146438
0.0176347 0 -4.56016e-18 -0.00813487
-0.0170445 2.71051e-20 0.00462908 0.0146475
0.0170445 -2.71051e-20 0.00462909 -0.00812764
0.0175376 0 0.00228764 -0.00812414
-0.0175376 0 0.00228764 0.0146459
-0.0170023 1.35525e-20 0.00488772 0.0146472
0.0170024 2.71051e-20 0.00488778 -0.00813116
-0.0176972 6.77626e-21 4.73797e-05 0.014644
0.0176979 0 4.76325e-05 -0.00813037
-0.0177006 -6.77626e-21 -1.62135e-17 0.014644
0.0177013 0 -1.6163e-17 -0.0081304
-0.0174646 1.58113e-21 0.00310782 0.0146465
0.0174646 1.58113e-21 0.00310783 -0.00812345
-0.0171112 -1.35525e-20 0.00481655 0.0146474
0.0171113 -1.35525e-20 0.00481662 -0.00812858
-0.0171346 0 0.00497401 0.0146471
0.0171346 -1.35525e-20 0.00497404 -0.0081321
0.0174342 1.12938e-21 0.00383428 -0.00812805
-0.0174342 0 0.00383428 0.014647
-0.0172171 2.71051e-20 0.00502788 0.0146479
0.0172172 0 0.0050279 -0.00811606
-0.0172554 0 0.00493142 0.0146479
0.0172555 -2.71051e-20 0.00493146 -0.00811704
-0.0174076 2.44698e-21 0.00453333 0.0146474
0.0174076 1.69407e-21 0.00453333 -0.00812917
0.0177905 -5.42101e-20 0.00276844 -0.00812539
-0.0177905 -2.71051e-20 0.00276844 0.0146468
-0.0177573 0 0.00348298 0.0146473
0.0177573 2.71051e-20 0.00348298 -0.00812211
0.017378 0 0.0051328 -0.00812769
-0.017378 0 0.00513282 0.0146472
-0.0174497 0 0.0051796 0.0146468
0.0174497 0 0.0051796 -0.00813355
0.0177264 0 0.00417355 -0.00811818
-0.0177264 2.71051e-20 0.00417356 0.0146473
-0.0175028 0 0.00510092 0.0146467
0.0175028 0 0.00510089 -0.00813557
-0.0181612 -5.42101e-20 0.00171797 0.0146457
0.0181612 -5.42101e-20 0.00171797 -0.00812091
-0.0175201 6.77626e-21 0.00522551 0.0146471
0.0175201 6.77626e-21 0.00522552 -0.00812709
-0.0182822 -5.42101e-20 0.00051562 0.0146448
0.0182823 -5.42101e-20 0.000515625 -0.0081011
-0.0181332 0 0.00240535 0.0146463
0.0181321 0 0.00240536 -0.00811483
0.0181317 0 0.00242421 -0.00811487
-0.0181316 -1.37643e-21 0.00242444 0.0146463
0.0176138 3.01167e-21 0.0049468 -0.00814282
-0.0176138 -1.05409e-20 0.0049468 0.0146464
-0.0180947 1.12938e-21 0.00311468 0.0146472
0.0180947 -5.64689e-22 0.00311468 -0.00811653
-0.0180563 2.25875e-21 0.00382342 0.0146474
0.0180563 -1.12938e-21 0.00382342 -0.00811964
0.0177083 -1.35525e-20 0.00534825 -0.00812484
-0.0177083 0 0.00534827 0.0146472
0.0177631 0 0.00528871 -0.00812383
-0.0177632 -1.35525e-20 0.00528871 0.0146472
0.0179883 2.25875e-21 0.00454808 -0.0081218
-0.0179883 -2.25875e-21 0.00454808 0.0146473
0.0178024 -2.71051e-20 0.00540965 -0.0081256
-0.0178024 0 0.00540968 0.0146466
-0.0184402 2.71051e-20 0.00274762 0.0146462
0.0184402 0 0.00274762 -0.00810102
0.0180052 -1.35525e-21 0.00502463 -0.00812292
-0.0180053 -9.03502e-22 0.00502464 0.0146473
0.0183918 2.71051e-20 0.00345433 -0.00811719
-0.0183918 0 0.00345433 0.0146483
0.0179451 6.77626e-21 0.00550275 -0.00811754
-0.0179452 2.71051e-20 0.0055028 0.0146472
0.0183611 -2.71051e-20 0.0041536 -0.00812056
-0.0183611 0 0.0041536 0.0146468
-0.0188422 0 7.03784e-05 0.0146452
0.0188422 0 7.03242e-05 -0.00809471
-0.0188477 0 1.08476e-18 0.0146452
0.0188478 0 1.12113e-18 -0.00809473
0.0188602 -2.25875e-21 0.00112833 -0.00809981
-0.0188602 1.12938e-21 0.00112833 0.0146457
0.0180592 -2.03288e-20 0.00557718 -0.00811422
-0.0180592 0 0.00557719 0.0146469
0.0181347 4.51751e-21 0.00538307 -0.0081154
-0.0181347 0 0.00538308 0.0146471
0.018942 0 6.18177e-19 -0.00809516
-0.018942 0 6.20519e-19 0.0146452
-0.0188166 2.25875e-21 0.00228404 0.0146456
0.0188166 0 0.00228404 -0.00810752
0.0183535 0 0.00480354 -0.00811128
-0.0183535 -2.71051e-20 0.00480354 0.0146476
0.0187311 5.64689e-22 0.00307208 -0.00810743
-0.0187311 4.23516e-22 0.00307209 0.0146466
0.0190249 -1.35525e-20 8.51688e-05 -0.00809474
-0.019025 0 8.52501e-05 0.0146453
0.0190314 0 5.64137e-19 -0.00809463
-0.0190315 0 5.6593e-19 0.0146453
0.0182204 1.35525e-20 0.00568235 -0.00811693
-0.0182205 -2.71051e-20 0.00568237 0.0146453
0.0187398 3.17637e-22 0.00374577 -0.00810752
-0.0187398 1.76465e-22 0.00374577 0.014647
0.0186713 -3.38813e-21 0.00447941 -0.00811133
-0.0186713 -5.64689e-21 0.00447941 0.0146463
0.0183607 2.71051e-20 0.00577387 -0.0080921
-0.0183608 -1.35525e-20 0.00577391 0.0146453
0.018471 5.42101e-21 0.00561102 -0.00809291
-0.018471 -8.13152e-21 0.00561103 0.0146454
0.0186129 2.71051e-21 0.00519726 -0.00810956
-0.0186129 0 0.00519727 0.0146457
-0.0191646 -2.71051e-20 0.00284903 0.0146438
0.0191646 0 0.00284904 -0.00812219
0.0184854 -1.35525e-20 0.00585516 -0.00809044
-0.0184854 0 0.00585517 0.0146449
-0.0191555 2.71051e-20 0.00330159 0.0146463
0.0191555 2.71051e-20 0.00330159 -0.00809381
-0.0190101 -2.71051e-20 0.00412451 0.014646
0.0190101 -2.71051e-20 0.00412451 -0.0081031
0.0185921 0 0.00576697 -0.00809211
-0.0185922 -1.35525e-20 0.00576697 0.0146449
0.0186006 1.35525e-20 0.0059303 -0.00810995
-0.0186006 0 0.00593032 0.0146438
0.0195234 0 0.000571323 -0.0080899
-0.0195235 5.42101e-20 0.000571337 0.0146456
0.0194631 0 0.00176849 -0.00808703
-0.0194631 0 0.0017685 0.0146466
0.0194127 -9.88205e-22 0.00241319 -0.00809825
-0.0194127 4.23516e-22 0.0024132 0.0146441
0.0189749 -2.71051e-20 0.00481042 -0.00811001
-0.0189749 2.71051e-20 0.00481043 0.0146446
-0.0193686 -1.35525e-20 0.00306998 0.0146445
0.0193686 0 0.00306998 -0.00809571
0.0188275 4.51751e-21 0.00563325 -0.00810424
-0.0188275 0 0.00563325 0.0146445
0.0187165 1.35525e-20 0.00600598 -0.00810913
-0.0187166 6.77626e-21 0.006006 0.0146441
0.018758 -2.71051e-20 0.00590202 -0.00810564
-0.0187581 1.35525e-20 0.00590202 0.0146444
-0.0193727 5.64689e-22 0.00376105 0.0146444
0.0193727 -9.88205e-22 0.00376105 -0.00808834
0.0190128 2.71051e-20 0.00540895 -0.00811713
-0.0190128 -5.42101e-20 0.00540896 0.0146438
0.0195979 -2.71051e-20 0.00284199 -0.00809176
-0.0195979 -2.71051e-20 0.00284199 0.0146415
-0.0193152 1.12938e-21 0.00445137 0.0146436
0.0193152 4.51751e-21 0.00445137 -0.0080978
0.0189326 0 0.00587663 -0.00810629
-0.0189326 2.71051e-20 0.00587663 0.0146443
0.0188663 0 0.00610388 -0.00811052
-0.0188663 6.77626e-21 0.00610386 0.0146429
0.0195613 -5.42101e-20 0.00328798 -0.00808208
-0.0195614 -2.71051e-20 0.00328799 0.0146453
0.0189889 0 0.00604039 -0.00810742
-0.018989 -1.35525e-20 0.00604037 0.0146426
-0.0192967 4.51751e-21 0.00511377 0.0146429
0.0192967 4.51751e-21 0.00511377 -0.00810256
0.0190006 0 0.00619147 -0.00810793
-0.0190007 0 0.00619146 0.0146406
-0.0200621 0 6.76619e-05 0.0146463
0.0200622 0 6.75697e-05 -0.00807734
-0.020064 -1.35525e-20 4.17779e-20 0.0146463
0.0200641 0 4.14469e-20 -0.00807731
0.0196641 -2.71051e-20 0.0040803 -0.00808562
-0.0196641 -2.71051e-20 0.0040803 0.0146415
0.0190835 0 0.00626078 -0.00808819
-0.0190836 0 0.00626078 0.0146401
0.0191312 0 0.00616557 -0.00809021
-0.0191313 1.35525e-20 0.00616556 0.0146404
0.0201001 -1.12938e-21 0.00115693 -0.00807554
-0.0201001 -1.12938e-21 0.00115692 0.014646
0.020134 0 -1.74266e-22 -0.00807559
-0.020134 -1.35525e-20 -2.54911e-22 0.0146464
0.0192828 -3.76459e-22 0.00579514 -0.00810524
-0.0192828 -1.50584e-21 0.00579514 0.0146412
0.0196202 0 0.00477317 -0.00809221
-0.0196202 0 0.00477317 0.0146421
0.020199 0 6.46581e-05 -0.00807408
-0.0201991 0 6.47341e-05 0.0146464
0.0202019 0 -1.24442e-21 -0.00807401
-0.020202 1.35525e-20 -1.29908e-21 0.0146464
-0.0200841 -1.12938e-21 0.00236289 0.0146424
0.0200841 -4.51751e-21 0.00236289 -0.00807782
0.0200029 -1.41172e-22 0.00305699 -0.00807767
-0.0200052 -1.41172e-22 0.00305579 0.0146413
0.0192378 0 0.00638365 -0.00811163
-0.0192378 6.77626e-21 0.00638366 0.0146382
-0.0195959 -2.71051e-20 0.00544033 0.0146408
0.0195959 2.71051e-20 0.00544033 -0.0080901
0.019304 6.77626e-21 0.00643682 -0.00811997
-0.019304 6.77626e-21 0.00643682 0.0146369
0.0200275 2.25875e-21 0.00361572 -0.00807735
-0.0200275 -5.64689e-22 0.00361572 0.0146405
-0.0193634 6.77626e-21 0.00636554 0.0146367
0.0193634 0 0.00636554 -0.00812238
-0.0193735 1.35525e-20 0.00649741 0.014637
0.0193735 -6.77626e-21 0.00649743 -0.00811325
0.01996 -1.807e-21 0.00438812 -0.00808283
-0.01996 9.03502e-22 0.00438812 0.0146397
0.0194904 0 0.00622238 -0.00813016
-0.0194904 7.52918e-21 0.00622238 0.0146361
-0.019924 0 0.00509886 0.0146394
0.019924 2.25875e-21 0.00509886 -0.00808824
-0.0195415 0 0.00664815 0.0146365
0.0195416 0 0.00664816 -0.00811825
0.0202851 0 0.004065 -0.00807608
-0.0202851 0 0.004065 0.0146373
-0.0198605 -2.25875e-21 0.00581201 0.0146377
0.0198605 2.25875e-21 0.005812 -0.00809775
-0.0196164 2.71051e-20 0.00659814 0.0146365
0.0196164 0 0.00659815 -0.00811613
0.0207232 -1.0842e-19 0.00058077 -0.00806192
-0.0207232 0 0.000580774 0.0146471
-0.0196178 -2.71051e-20 0.00671647 0.0146357
0.0196178 0 0.00671648 -0.00811088
0.020698 0 0.00176855 -0.00806297
-0.020698 -1.0842e-19 0.00176856 0.0146448
0.020263 2.71051e-20 0.00474092 -0.00807909
-0.020263 0 0.00474092 0.0146378
-0.0196919 -1.35525e-20 0.00678278 0.0146348
0.0196919 -2.71051e-20 0.00678278 -0.00810937
-0.0197373 0 0.00670395 0.014635
0.0197373 2.71051e-20 0.00670395 -0.00810879
0.0206519 5.42101e-20 0.0030578 -0.00806947
-0.0206519 -1.0842e-19 0.0030578 0.014636
-0.0199196 -1.6134e-22 0.00639127 0.0146356
0.0199196 2.42009e-22 0.00639127 -0.00810987
-0.0202264 -2.71051e-20 0.00542437 0.0146368
0.0202264 5.42101e-20 0.00542436 -0.00809078
0.0206219 2.82344e-22 0.00375033 -0.0080748
-0.0206228 0 0.00375114 0.0146323
0.0198641 0 0.00693691 -0.00811993
-0.0198641 0 0.00693695 0.014634
0.0205958 0 0.00438945 -0.00807675
-0.0205958 0 0.00438945 0.0146332
-0.0202261 0 0.00606703 0.0146361
0.0202261 0 0.00606702 -0.0080912
-0.019943 -6.77626e-21 0.00700755 0.0146332
0.019943 0 0.00700753 -0.00812581
-0.0200066 6.77626e-21 0.00693928 0.0146331
0.0200066 -6.77626e-21 0.00693924 -0.00812651
0.0205707 2.25875e-21 0.00506212 -0.00808128
-0.0205707 1.12938e-21 0.00506213 0.0146347
-0.0200223 1.35525e-20 0.00707846 0.0146334
0.0200223 6.77626e-21 0.00707846 -0.00811963
-0.0201294 6.02335e-21 0.0068093 0.0146328
0.0201294 -7.52918e-21 0.00680928 -0.00812874
-0.0212882 0 4.76317e-05 0.0146486
0.0212882 -6.77626e-21 4.75779e-05 -0.00805024
-0.0212888 0 7.04092e-22 0.0146486
0.0212889 -6.77626e-21 7.21822e-22 -0.00805022
-0.0209335 -2.71051e-20 0.00403737 0.0146254
0.0209335 5.42101e-20 0.00403737 -0.00807681
-0.0205488 -2.25875e-21 0.00572803 0.0146347
0.0205489 0 0.00572803 -0.00808733
0.0213388 0 -2.89833e-23 -0.00804909
-0.0213388 0 -2.82201e-23 0.0146487
0.0213183 2.25875e-21 0.00116254 -0.00805004
-0.0213183 -2.25875e-21 0.00116254 0.0146458
0.0213863 -6.77626e-21 4.6423e-05 -0.00804816
-0.0213864 -6.77626e-21 4.64739e-05 0.0146488
0.0213874 0 -2.69e-23 -0.00804814
-0.0213874 0 -2.61667e-23 0.0146488
0.0208978 -2.71051e-20 0.00471075 -0.00807525
-0.0208978 -2.71051e-20 0.00471075 0.0146322
0.0212954 5.64689e-22 0.00239197 -0.0080536
-0.0212954 -5.64689e-22 0.00239197 0.0146367
-0.0201947 0 0.00723276 0.014634
0.0201949 -1.35525e-20 0.00723272 -0.00811671
0.0204968 4.51751e-21 0.00642258 -0.0080962
-0.0204968 0 0.00642259 0.0146344
-0.0202705 0 0.0071837 0.0146339
0.0202706 -2.71051e-20 0.00718367 -0.00811475
-0.0202683 -2.71051e-20 0.00729859 0.0146334
0.0202684 0 0.00729853 -0.00811014
-0.0208996 -2.71051e-20 0.00536219 0.0146321
0.0208996 0 0.00536218 -0.00808013
-0.0203418 -2.71051e-20 0.00736427 0.0146328
0.0203419 0 0.00736419 -0.00810852
-0.0213396 2.25875e-22 0.00363555 0.0146264
0.0213396 5.64689e-22 0.00363554 -0.00806372
-0.0203851 -1.35525e-20 0.00728768 0.0146329
0.0203852 0 0.00728762 -0.00810789
0.0212333 0 0.00436374 -0.0080709
-0.0212333 -3.76459e-22 0.00436374 0.0146267
-0.0208556 2.71051e-20 0.00604666 0.0146336
0.0208556 2.71051e-20 0.00604666 -0.00808612
0.0205628 7.26028e-22 0.0069869 -0.00810856
-0.0205628 4.03349e-22 0.00698694 0.0146333
0.0205131 0 0.00751736 -0.0081208
-0.0205131 0 0.0075175 0.0146324
0.0212965 -1.12938e-21 0.00494792 -0.00806967
-0.0212965 5.64689e-22 0.00494793 0.014629
-0.0208609 2.71051e-20 0.00667565 0.0146339
0.0208609 -5.42101e-20 0.00667563 -0.00809167
-0.0205926 -6.77626e-21 0.00758861 0.0146318
0.0219386 5.42101e-20 0.000582606 -0.00803686
-0.0219386 0 0.000582607 0.0146503
0.0205927 0 0.00758853 -0.00812728
-0.0211971 -3.38813e-21 0.00569346 0.0146312