# U  POINT_DATA 30177
# x  y  z  U_x  U_y  U_z
0 -0.0199996 6.27196e-08 0 0 0
0 0.0199996 6.27196e-08 0 0 0
6.77626e-21 0.0199996 0.000164428 0 0 0
-6.77626e-21 -0.0199996 0.000164406 0 0 0
0 0.0199996 0.000494301 0 0 0
0 -0.0199996 0.00049425 0 0 0
6.77626e-21 0.0199996 0.00066126 0 0 0
0 -0.0199996 0.000661186 0 0 0
0 0.0199996 0.000837191 0 0 0
-3.38813e-21 -0.0199996 0.000837103 0 0 0
-6.77626e-21 0.0199996 0.00118069 0 0 0
-6.77626e-21 -0.0199996 0.00118063 0 0 0
0 0.0199996 0.00135639 0 0 0
0 -0.0199996 0.0013563 0 0 0
-3.38813e-21 0.0199996 0.0015402 0 0 0
0 -0.0199996 0.00154013 0 0 0
6.77626e-21 0.0200767 6.65771e-05 -0.000119082 0.00024697 2.04886e-06
-6.77626e-21 -0.0200767 6.65774e-05 1.2877e-06 -1.94126e-06 3.56485e-07
0 -0.0200781 6.52655e-08 0 0 0
6.77626e-21 0.0200781 6.52653e-08 0 0 0
6.77626e-21 -0.0200799 0.000590145 1.34049e-06 -2.02084e-06 3.71099e-07
-6.77626e-21 0.0200799 0.000590186 -0.000123966 0.000257099 2.1329e-06
6.77626e-21 -0.0200759 0.000728686 7.04137e-05 -0.000120245 -1.22567e-06
6.77626e-21 0.0200759 0.000728732 -0.000462186 0.000824429 1.61211e-05
-6.77626e-21 0.0199996 0.00190617 0 0 0
0 -0.0199996 0.00190616 0 0 0
-6.77626e-21 0.0199996 0.002087 0 0 0
6.77626e-21 -0.0199996 0.002087 0 0 0
-6.77626e-21 -0.0200757 0.00127182 7.0269e-05 -0.000119998 -1.22315e-06
-6.77626e-21 0.0200757 0.00127186 -0.000461264 0.000822783 1.6089e-05
0 -0.0200724 0.00141161 7.10737e-05 -0.000123834 -3.98002e-06
0 0.0200724 0.00141166 -0.000437602 0.000777445 -4.58456e-05
6.77626e-21 0.0201349 6.62416e-08 0 0 0
-6.77626e-21 -0.0201349 6.62417e-08 0 0 0
0 -0.0201347 0.00065501 6.03252e-05 -0.000102205 5.53353e-07
-2.03288e-20 0.0201347 0.000655012 -0.000606628 0.00103409 2.71616e-05
0 -0.0200697 0.0019779 6.84083e-05 -0.00011919 -3.83076e-06
-6.77626e-21 0.0200697 0.0019779 -0.000421157 0.00074823 -4.41228e-05
6.77626e-21 -0.0201289 0.00132677 0.000121486 -0.000207131 -2.29075e-06
0 0.0201289 0.00132677 -0.000958886 0.00162088 -4.57101e-06
1.35525e-20 -0.0200872 0.00211021 0 0 0
0 0.0200872 0.00211021 0 0 0
0 0.0201043 0.00206081 -0.00040825 0.000681579 -1.35965e-05
0 -0.0201043 0.00206081 6.83447e-05 -0.000106046 -3.69582e-06
0 0.0201291 0.00199353 -0.000811173 0.00137537 -5.93873e-05
-6.77626e-21 -0.0201292 0.00199355 0.000111116 -0.000187389 -5.72181e-06
0 0.0201574 0.00212882 0 0 0
-6.77626e-21 -0.0201575 0.00212883 0 0 0
6.77626e-21 0.020211 0.00203549 -0.000676609 0.0012774 1.6203e-06
-6.77626e-21 -0.020211 0.0020355 0.000120038 -0.000217485 -1.22426e-07
2.03288e-20 -0.0203752 7.14254e-08 0 0 0
0 0.0203752 7.14225e-08 0 0 0
1.12938e-21 0.0203552 0.000964466 -0.00207834 0.00380284 -4.50014e-05
-6.77626e-22 -0.0203552 0.000964545 0.000280719 -0.000519364 -1.14512e-06
-1.12938e-21 0.0203848 0.000318457 -0.000414266 0.000800748 1.29908e-05
-1.807e-21 -0.0203849 0.00031848 1.96499e-05 -3.54645e-05 -1.33661e-07
7.52918e-22 0.0203485 0.00158856 -0.00199839 0.00369547 6.00576e-06
-7.52918e-22 -0.0203485 0.00158862 0.000300334 -0.000541242 1.61108e-06
0 0.0204541 7.18967e-08 0 0 0
-1.69407e-21 -0.0204543 7.19036e-08 0 0 0
1.01644e-20 0.0203479 0.0020921 -0.00054871 0.00103593 1.31402e-06
-1.01644e-20 -0.0203479 0.00209209 9.73712e-05 -0.000176418 -9.93084e-08
1.35525e-20 0.0203454 0.00217864 0 0 0
-3.38813e-20 -0.0203455 0.00217865 0 0 0
0 0.0204014 0.00198907 -0.00128639 0.00242864 3.08058e-06
0 -0.0204014 0.00198909 0.000228207 -0.000413466 -2.32747e-07
2.71051e-20 -0.0204481 0.00220585 0 0 0
-2.71051e-20 0.0204481 0.00220585 0 0 0
-6.77626e-21 0.0206171 7.35991e-08 0 0 0
0 -0.0206171 7.36088e-08 0 0 0
-6.77626e-21 0.0206345 0.00124176 -0.00390249 0.00690348 2.6455e-05
4.51751e-21 -0.0206345 0.00124188 0.000519968 -0.000893526 -2.93316e-06
-6.77626e-21 -0.0206728 7.48735e-08 0 0 0
0 0.0206729 7.48661e-08 0 0 0
1.35525e-20 -0.0206741 6.9881e-05 2.16033e-06 -3.07523e-06 -4.24364e-09
6.77626e-21 0.0206742 7.00029e-05 -0.000173731 0.00031596 -1.69612e-05
-1.12938e-21 0.0206668 0.000657308 -0.00265481 0.00478978 1.76913e-05
-1.12938e-21 -0.0206668 0.000657428 0.000282215 -0.000496125 -3.94523e-07
2.03288e-21 -0.0206275 0.00169452 0.000480718 -0.000834867 -3.23496e-06
6.77626e-22 0.0206275 0.00169445 -0.0033562 0.0060591 -2.34918e-05
0 -0.0205976 0.00224546 0 0 0
1.35525e-20 0.0205976 0.00224546 0 0 0
6.77626e-21 -0.0208219 8.13377e-08 0 0 0
-6.77626e-21 0.0208221 8.134e-08 0 0 0
0 -0.0208462 0.000330913 7.50369e-06 -1.04485e-05 -1.59314e-06
0 0.0208462 0.000330886 -0.00135568 0.00252427 -5.20724e-05
0 0.0208502 0.000953774 -0.00422041 0.00757009 -3.52849e-05
1.35525e-20 -0.0208502 0.00095382 0.000555868 -0.000942492 9.66408e-06
0 0.0208443 0.00153524 -0.00472744 0.00844625 0.000190118
-1.35525e-20 -0.0208443 0.00153527 0.0006621 -0.00111638 6.28502e-06
5.64689e-22 -0.0208065 0.00198302 0.000422064 -0.000730606 1.90669e-05
-8.47033e-22 0.0208065 0.00198301 -0.00238346 0.00441225 0.000135268
0 0.0209013 0.00232596 0 0 0
1.35525e-20 -0.0209014 0.00232597 0 0 0
0 0.0210643 9.15077e-05 -0.000548328 0.00103256 -5.22601e-06
-1.35525e-20 -0.0210643 9.14935e-05 1.18364e-06 -1.54477e-06 -9.51781e-07
0 0.021067 7.81657e-08 0 0 0
1.35525e-20 -0.021067 7.81689e-08 0 0 0
0 0.0209628 0.00234226 0 0 0
-6.77626e-21 -0.0209629 0.00234226 0 0 0
0 -0.0210006 0.00235227 0 0 0
-6.77626e-21 0.0210007 0.00235228 0 0 0
0 -0.0211368 7.77048e-08 0 0 0
0 0.0211368 7.77005e-08 0 0 0
0 -0.021129 0.00122301 0.000772875 -0.00129452 -4.3689e-06
1.807e-20 0.021129 0.00122301 -0.00583455 0.010143 4.58022e-05
-5.80823e-21 -0.0211316 0.00168768 0.000764698 -0.00126542 -2.40145e-05
5.80823e-21 0.0211316 0.00168768 -0.00535898 0.00932842 -6.27654e-05
3.38813e-21 -0.0210927 0.00225836 0.000200319 -0.000344282 -9.58764e-06
0 0.0210929 0.00225827 -0.0011483 0.00222227 -2.66228e-05
0 -0.0212074 0.000639288 0.000399732 -0.000666875 2.71463e-06
2.25875e-21 0.0212074 0.000639306 -0.00387654 0.00679932 8.95999e-05
0 -0.0212432 6.9494e-08 0 0 0
0 0.0212432 6.94876e-08 0 0 0
6.77626e-21 -0.0212484 0.000106495 1.44161e-06 -2.03597e-06 1.07879e-06
-6.77626e-21 0.0212484 0.000106533 -0.000800463 0.00146602 2.8528e-05
-3.38813e-21 -0.0211906 0.00240261 0 0 0
-3.38813e-21 0.0211908 0.00240268 0 0 0
1.12938e-21 0.0213439 0.00202515 -0.0041339 0.00787013 -3.69074e-05
-3.38813e-21 -0.0213439 0.00202511 0.000677274 -0.00115604 -2.81386e-05
6.77626e-21 -0.021371 0.00245038 0 0 0
0 0.021371 0.00245038 0 0 0
-6.77626e-21 -0.0213837 0.00242604 7.1842e-05 -0.000110792 -3.35353e-06
0 0.0213837 0.00242606 -0.000399922 0.000753851 -4.64149e-06
-2.25875e-21 -0.0214676 0.00151463 0.00100335 -0.00171375 -2.8371e-05
-2.25875e-21 0.0214676 0.00151468 -0.00723764 0.0130636 6.29593e-05
-9.03502e-21 -0.0215176 0.000962595 0.000805352 -0.00138414 -1.80583e-05
2.25875e-21 0.0215177 0.000962668 -0.00634009 0.0114033 8.0061e-05
1.35525e-20 -0.0215442 0.000394974 0.00013678 -0.000226883 3.87933e-06
2.71051e-21 0.0215442 0.000395021 -0.00276949 0.00492445 7.50084e-05
6.77626e-21 0.0214146 0.00239572 -0.000737066 0.00135892 1.19514e-05
0 -0.0214146 0.00239566 0.000106187 -0.000178264 -3.31587e-06
0 0.0214165 0.00246241 0 0 0
0 -0.0214166 0.00246244 0 0 0
1.35525e-20 0.0216582 0.000128728 -0.000967767 0.00177243 3.44906e-05
-1.35525e-20 -0.0216582 0.000128716 1.74336e-06 -2.46214e-06 1.30461e-06
1.35525e-20 0.021662 1.14539e-08 0 0 0
1.35525e-20 -0.021662 1.14538e-08 0 0 0
0 -0.0217415 0.00061236 0.000475976 -0.000800851 1.50319e-06
0 0.0217415 0.000612448 -0.00480138 0.00848625 0.000127723
0 -0.021737 0.00121888 0.00104404 -0.00175831 -1.70314e-05
0 0.021737 0.00121897 -0.00791142 0.0140433 8.09319e-05
-3.38813e-20 0.0216411 0.00252171 0 0 0
2.03288e-20 -0.0216411 0.00252171 0 0 0
-1.35525e-20 0.02179 2.37922e-09 0 0 0
0 -0.02179 2.37986e-09 0 0 0
-2.71051e-20 -0.02171 0.00187069 0.00094848 -0.00158697 -3.32284e-05
0 0.02171 0.00187073 -0.00645381 0.0116224 -5.26459e-05
-1.12938e-21 0.0216778 0.00229011 -0.0026434 0.00528674 -4.59893e-05
3.76459e-22 -0.0216778 0.00229006 0.000502098 -0.000917376 -2.23364e-05
1.35525e-20 -0.0219185 2.30167e-09 0 0 0
0 0.0219185 2.30112e-09 0 0 0
1.35525e-20 -0.0219202 0.000137039 2.19644e-06 -3.08135e-06 7.12831e-08
0 0.0219202 0.000137059 -0.00123062 0.00226683 7.54661e-06
1.35525e-20 -0.0218193 0.00256902 0 0 0
0 0.0218193 0.00256904 0 0 0
-5.42101e-21 -0.0219845 0.000395978 0.000130375 -0.000216931 1.10545e-06
0 0.0219845 0.000396036 -0.00311733 0.00560762 5.79086e-05
0 0.0219638 0.00229023 -0.00389707 0.00740596 2.47368e-05
-1.12938e-21 -0.0219638 0.00229019 0.00067326 -0.001139 -2.27609e-05
0 -0.022074 0.000916584 0.000978189 -0.00165464 -7.6652e-06
1.12938e-20 0.022074 0.000916678 -0.00768308 0.014023 6.42454e-05
0 0.0219561 0.00252866 -0.00114825 0.00213223 5.5452e-07
0 -0.0219561 0.00252862 0.000190693 -0.000318997 -9.14012e-06
-1.12938e-20 -0.0220578 0.00154554 0.00133023 -0.00224075 -1.47528e-05
-4.51751e-21 0.0220578 0.00154561 -0.009501 0.0173796 0.000227633
-6.77626e-21 0.0219646 0.00260748 0 0 0
6.77626e-21 -0.0219646 0.00260749 0 0 0
-9.03502e-21 -0.0220661 0.00204937 0.00102471 -0.00172366 -2.87322e-05
-9.03502e-21 0.0220661 0.00204941 -0.00652872 0.0120711 0.000105969
0 0.0222375 0.000149296 -0.00134049 0.00246921 8.22038e-06
0 -0.0222375 0.000149275 2.39254e-06 -3.35645e-06 7.76472e-08
0 0.0222467 3.22447e-09 0 0 0
1.35525e-20 -0.0222467 3.22463e-09 0 0 0
0 -0.0221409 0.00250159 0.000387143 -0.000634269 -1.56526e-05
-5.42101e-21 0.0221409 0.00250164 -0.00218254 0.0041186 -1.67317e-06
1.35525e-20 -0.0221239 0.0026495 0 0 0
-1.35525e-20 0.022124 0.00264953 0 0 0
-7.7443e-21 -0.0223263 0.000544462 0.000368444 -0.000628991 -2.34388e-06
-7.7443e-21 0.0223263 0.000544533 -0.00462543 0.00849986 4.19186e-05
-2.71051e-20 -0.0223861 3.1175e-09 0 0 0
1.35525e-20 0.0223861 3.11743e-09 0 0 0
-2.71051e-20 -0.0223888 0.00123042 0.00131893 -0.00223803 -1.62402e-05
-2.71051e-20 0.0223888 0.00123052 -0.00994133 0.0181396 0.000167102
0 -0.022362 0.00189325 0.00128913 -0.00215377 -3.27855e-05
-2.71051e-20 0.0223621 0.00189332 -0.00884988 0.0162522 0.000173646
0 -0.022297 0.00269531 0 0 0
0 0.0222971 0.00269532 0 0 0
0 0.0223597 0.00232905 -0.00521232 0.00981835 8.56545e-05
-1.41172e-22 -0.0223597 0.00232902 0.000862031 -0.00142542 -2.73276e-05
0 -0.0225373 3.03017e-09 0 0 0
-1.35525e-20 0.0225373 3.03008e-09 0 0 0
0 -0.0225385 0.000146314 2.12162e-06 -3.37824e-06 5.28622e-07
-1.35525e-20 0.0225385 0.00014633 -0.0014924 0.00278138 1.59123e-05
-2.25875e-21 -0.0227012 0.000916189 0.00115052 -0.00194994 -1.0781e-05
-9.03502e-21 0.0227012 0.000916249 -0.00929521 0.0169616 0.000124647
0 -0.0226844 0.00155924 0.00161786 -0.00271648 -3.13499e-05
4.51751e-21 0.0226844 0.0015593 -0.0116641 0.0213101 0.00029682
-9.03502e-21 -0.0227492 0.000352729 0.000157328 -0.000268261 -8.82289e-07
9.03502e-21 0.0227492 0.000352757 -0.00334762 0.00620294 3.59817e-05
-1.52466e-20 0.0226133 0.00278009 0 0 0
1.56701e-20 -0.0226135 0.00278015 0 0 0
1.69407e-21 -0.0226203 0.00278197 0 0 0
-1.99053e-20 0.0226205 0.00278201 0 0 0
0 -0.0227193 0.00214001 0.0013251 -0.00222069 -4.30468e-05
9.03502e-21 0.0227194 0.00214006 -0.00872576 0.0161995 0.000170514
-9.03502e-21 -0.0226787 0.00257543 0.00060244 -0.00101994 -9.01915e-06
0 0.0226787 0.00257546 -0.00354464 0.00687391 0.000129274
2.71051e-20 -0.0228459 3.0686e-09 0 0 0
-1.35525e-20 0.0228459 3.06837e-09 0 0 0
-2.71051e-20 -0.0230054 2.97292e-09 0 0 0
2.71051e-20 0.0230055 2.97266e-09 0 0 0
0 -0.0230123 0.000602124 0.000648169 -0.00110383 -8.60976e-06
0 0.0230123 0.000602154 -0.00667152 0.0122987 4.88296e-05
0 -0.023008 0.00123188 0.0015631 -0.00264829 -3.28486e-05
0 0.023008 0.00123192 -0.011892 0.0217041 0.000176118
2.71051e-20 -0.0229678 0.00191423 0.00160352 -0.00268765 -5.65398e-05
2.71051e-20 0.0229679 0.00191427 -0.0112491 0.0206357 0.000207004
2.71051e-20 -0.0229065 0.00285905 0 0 0
0 0.0229066 0.00285905 0 0 0
2.71051e-20 -0.0230244 0.00241843 0.00111724 -0.0018425 -4.80043e-05
0 0.0230245 0.00241845 -0.00706039 0.0131567 0.000151814
0 -0.0231706 2.61992e-09 0 0 0
0 0.0231707 2.61967e-09 0 0 0
-6.77626e-21 -0.0232775 0.000961994 0.00137591 -0.0023313 -2.37492e-05
-6.77626e-21 0.0232775 0.000961998 -0.0111262 0.020301 9.37911e-05
-1.35525e-20 -0.0231293 0.00291865 0 0 0
0 0.0231295 0.00291871 0 0 0
0 -0.0233249 0.000300658 0.000142954 -0.000242015 -6.95624e-07
-4.51751e-21 0.023325 0.000300662 -0.00330361 0.00623777 -6.60681e-06
4.51751e-21 -0.02332 0.00155442 0.00191187 -0.00321355 -5.78102e-05
-1.12938e-20 0.0233201 0.00155442 -0.0140724 0.0256111 0.000211324
-2.25875e-21 -0.0233274 0.00215907 0.00170746 -0.00282265 -7.06746e-05
6.77626e-21 0.0233275 0.00215911 -0.0117749 0.0215708 0.000300079
-4.51751e-22 -0.023274 0.00268504 0.000817371 -0.00124552 -3.06798e-05
6.77626e-22 0.023274 0.00268509 -0.00474469 0.00842453 0.000201038
0 -0.023471 1.49911e-09 0 0 0
-1.35525e-20 0.023471 1.49901e-09 0 0 0
-6.77626e-21 0.0233567 0.00297983 0 0 0
6.77626e-21 -0.0233572 0.00297997 0 0 0
0 -0.0236362 1.14284e-09 0 0 0
2.71051e-20 0.0236362 1.14275e-09 0 0 0
0 -0.0236942 0.000643715 0.000838816 -0.00142272 -1.24815e-05
9.03502e-21 0.0236943 0.000643673 -0.00821761 0.0151814 1.82892e-05
0 -0.0235249 0.00302491 0 0 0
-1.35525e-20 0.0235249 0.0030249 0 0 0
0 0.0236288 0.00246502 -0.00924328 0.0170593 0.000205919
0 -0.0236288 0.002465 0.00142433 -0.00230813 -7.39171e-05
0 -0.0237458 0.00121881 0.00183812 -0.00311161 -4.60717e-05
0 0.0237458 0.00121876 -0.0142299 0.0259193 0.000147933
-2.12968e-20 0.0237119 0.001791 -0.0152954 0.0278727 0.000270504
-1.16165e-20 -0.0237119 0.00179099 0.00209768 -0.00352351 -7.6772e-05
-1.35525e-20 -0.0238006 1.02424e-09 0 0 0
-1.35525e-20 0.0238007 1.02415e-09 0 0 0
-1.35525e-20 -0.0236226 0.00305129 0 0 0
0 0.0236229 0.00305137 0 0 0
-1.89735e-20 -0.0238637 0.000205253 3.33427e-06 -4.49386e-06 1.90712e-06
-8.13152e-21 0.0238637 0.000205233 -0.00232954 0.00456976 -2.71786e-05
1.35525e-20 0.0238647 0.0021658 -0.0140956 0.0259181 0.000342134
9.03502e-21 -0.0238647 0.00216579 0.00202653 -0.00334373 -9.69161e-05
-2.71051e-20 -0.0239679 0.000898007 0.00155219 -0.00263668 -2.50627e-05
-2.71051e-20 0.0239679 0.000897928 -0.0126879 0.0232129 4.07073e-05
-6.35275e-22 -0.0238497 0.00276261 0.00111515 -0.00174311 -5.88056e-05
0 0.0238551 0.00276337 -0.0065344 0.0121461 0.000169646
0 -0.0239683 0.00153372 0.00227453 -0.00384566 -7.39678e-05
0 0.0239683 0.00153368 -0.017084 0.0309909 0.00024684
-5.92923e-21 -0.0238695 0.00276832 0.00112514 -0.00176068 -5.99222e-05
8.36445e-21 0.0238703 0.00276773 -0.00658291 0.0122502 0.000168133
1.37643e-21 0.0238743 0.0027737 -0.00644464 0.0119923 0.000164675
4.44692e-21 -0.0238747 0.00277615 0.00109461 -0.00171256 -5.82371e-05
-2.71051e-20 0.024114 6.40622e-10 0 0 0
1.35525e-20 -0.024114 6.40669e-10 0 0 0
0 -0.0241188 0.00014417 2.47094e-06 -3.2125e-06 1.50499e-06
0 0.0241188 0.000144162 -0.00172837 0.00339556 -2.31252e-05
0 0.023916 0.00312978 0 0 0
0 -0.0239162 0.00312984 0 0 0
-6.77626e-21 -0.0239639 0.00314272 0 0 0
-2.71051e-20 0.0239641 0.00314276 0 0 0
0 -0.0242749 5.21783e-10 0 0 0
0 0.0242749 5.21731e-10 0 0 0
9.03502e-21 -0.0242836 0.000581065 0.000796658 -0.00134922 -6.88031e-06
2.25875e-21 0.0242836 0.000580992 -0.00815043 0.0152453 2.39541e-05
9.03502e-21 -0.0242888 0.00120263 0.00200397 -0.00338886 -5.04962e-05
2.25875e-21 0.0242888 0.00120255 -0.0155147 0.0283428 0.000132832
4.51751e-21 -0.0242868 0.00186242 0.0023774 -0.00395528 -0.000106714
2.25875e-21 0.0242868 0.00186238 -0.0171666 0.0313558 0.000304357
-4.23516e-22 -0.0241617 0.00319553 0 0 0
-4.23516e-22 0.0241636 0.00319606 0 0 0
-1.60936e-20 0.0241859 0.00320201 0 0 0
2.03288e-20 -0.0241859 0.00320202 0 0 0
-2.96462e-21 0.024188 0.00319341 -0.00016082 0.000324122 3.28339e-06
2.5411e-21 -0.0241882 0.00319265 3.39054e-05 -5.63382e-05 -2.58813e-06
0 -0.0244313 0.000134568 2.38463e-06 -3.38706e-06 -3.81269e-07
-1.35525e-20 0.0244313 0.000134562 -0.00162238 0.00335182 2.19296e-05
-1.35525e-20 -0.0244331 4.67577e-10 0 0 0
-1.35525e-20 0.0244331 4.67521e-10 0 0 0
2.25875e-21 0.0243347 0.00249909 -0.0120681 0.0223744 0.000252122
-1.58113e-20 -0.0243348 0.00249899 0.0018414 -0.00297633 -0.000115843
0 -0.0242968 0.00292754 0.000974467 -0.0015881 -7.35316e-05
-4.51751e-21 0.0242969 0.00292753 -0.00524156 0.0104175 9.317e-05
-6.77626e-21 -0.0243689 0.00315158 0.000337422 -0.000560671 -2.57567e-05
6.77626e-21 0.0243692 0.00315214 -0.00173476 0.00349629 3.54178e-05
-2.71051e-20 -0.0246008 0.000284734 4.67815e-06 -7.14999e-06 -8.8036e-07
-2.71051e-20 0.0246009 0.000284687 -0.00329794 0.00676243 3.72616e-05
0 -0.0243969 0.00325839 0 0 0
0 0.0243971 0.00325844 0 0 0
0 -0.0246107 0.000878663 0.00168189 -0.00284177 -2.57592e-06
0 0.0246107 0.000878579 -0.0136472 0.0251233 5.87126e-05
-2.71051e-20 0.0246166 0.00151534 -0.0188646 0.0344485 0.000186773
2.71051e-20 -0.0246166 0.0015154 0.00253478 -0.0042763 -0.000100154
0 0.0244714 0.00314468 -0.00251227 0.00494186 4.11318e-05
0 -0.0244716 0.0031441 0.000453417 -0.000715045 -4.02489e-05
3.38813e-21 0.0245037 0.00290524 -0.00677363 0.0132777 0.000101546
6.77626e-21 -0.0245038 0.00290534 0.00120374 -0.00189217 -0.000100852
6.77626e-21 0.0244779 0.00323338 -0.000937713 0.00188677 8.5379e-06
0 -0.0244781 0.00323321 0.000173073 -0.000267367 -1.73225e-05
6.77626e-21 0.0244842 0.00328166 0 0 0
0 -0.0244845 0.00328173 0 0 0
2.71051e-20 -0.0246092 0.00219461 0.00258237 -0.00421513 -0.000145814
0 0.0246092 0.00219461 -0.0181346 0.0331299 0.000408987
1.35525e-20 -0.0247622 2.53333e-10 0 0 0
2.71051e-20 0.0247622 2.53306e-10 0 0 0
1.35525e-20 -0.0247664 0.000132515 2.34826e-06 -3.3354e-06 -3.75454e-07
0 0.0247664 0.000132509 -0.00159763 0.0033007 2.15951e-05
0 0.0246221 0.00297551 -0.00633358 0.0126209 7.81313e-05
-6.77626e-21 -0.0246221 0.00297544 0.0011608 -0.00178521 -0.00010747
0 -0.0249174 1.98984e-10 0 0 0
1.35525e-20 0.0249175 1.98951e-10 0 0 0
-2.71051e-20 -0.0247046 0.00334037 0 0 0
-1.35525e-20 0.0247048 0.00334043 0 0 0
2.25875e-21 -0.0249272 0.000565998 0.000845311 -0.00144336 3.50288e-06
-4.51751e-21 0.0249272 0.00056594 -0.00861316 0.0161585 6.02008e-05
6.77626e-21 0.0249353 0.00118348 -0.0168436 0.0308231 9.34506e-05
4.51751e-21 -0.0249353 0.00118355 0.00219918 -0.00370513 -4.98805e-05
0 -0.0247706 0.00325114 0.000394925 -0.000610089 -3.95272e-05
-1.35525e-20 0.0247708 0.0032513 -0.00214784 0.00432167 1.95562e-05
6.77626e-21 -0.0249331 0.00185459 0.00273499 -0.00450906 -0.000133836
4.51751e-21 0.0249331 0.00185457 -0.0195713 0.0356985 0.000298432
-9.03502e-21 0.0249123 0.00254806 -0.0144212 0.0267008 0.00030081
0 -0.0249123 0.00254799 0.0022099 -0.00353631 -0.000151578
0 -0.02507 0.000129703 1.05456e-06 -4.08394e-06 -4.0181e-06
0 0.02507 0.000129703 -0.00170105 0.00329509 9.0139e-05
2.71051e-20 -0.0250722 1.7145e-10 0 0 0
4.06576e-20 0.0250723 1.7142e-10 0 0 0
-2.71051e-20 -0.024868 0.00338391 0 0 0
0 0.024868 0.00338392 0 0 0
-2.71051e-21 -0.0249657 0.00300265 0.00136932 -0.0021214 -0.00012643
2.25875e-21 0.0249658 0.00300271 -0.00785708 0.0149527 8.69901e-05
0 -0.0252401 0.000277386 2.53594e-06 -8.20866e-06 -6.97048e-06
0 0.0252401 0.000277365 -0.00349706 0.00681864 0.000140142
0 0.0252519 0.000862099 -0.0145257 0.0268501 1.30103e-05
-2.71051e-20 -0.0252519 0.00086215 0.0017733 -0.00305404 2.63411e-05
-2.71051e-20 0.025258 0.00150133 -0.0205876 0.037318 0.000117264
0 -0.0252581 0.00150136 0.00283956 -0.00470207 -0.000124444
1.35525e-20 0.0250939 0.00344404 0 0 0
-6.77626e-21 -0.025094 0.00344409 0 0 0
2.71051e-20 -0.0252521 0.00218276 0.00300848 -0.00488531 -0.000166231
0 0.0252521 0.00218278 -0.0209332 0.0383245 0.000480952
0 -0.0253959 6.8222e-11 0 0 0
-1.35525e-20 0.0253959 6.82125e-11 0 0 0
2.71051e-20 -0.0254017 0.000130131 1.05804e-06 -4.09742e-06 -4.03137e-06
-1.35525e-20 0.0254017 0.000130132 -0.00170668 0.00330601 9.04378e-05
2.71051e-20 -0.0252837 0.00277308 0.00226827 -0.00353132 -0.000189206
0 0.0252837 0.00277313 -0.013934 0.0259081 0.000305506
0 -0.0252272 0.00330837 0.000688327 -0.00100335 -7.86863e-05
-9.03502e-21 0.0252273 0.0033085 -0.00369173 0.0068316 -4.30933e-05
1.35525e-20 -0.0252594 0.00348814 0 0 0
1.35525e-20 0.0252598 0.00348825 0 0 0
-2.71051e-20 -0.0255539 4.13586e-11 0 0 0
0 0.0255539 4.13515e-11 0 0 0
-2.25875e-21 -0.0255655 0.000552669 0.00087954 -0.00152824 1.70023e-05
0 0.0255655 0.000552643 -0.00911734 0.0168624 6.48267e-05
2.25875e-21 0.0255758 0.00116696 -0.0180649 0.0328728 8.0551e-05
-9.03502e-21 -0.0255758 0.00116699 0.00238664 -0.0040146 -3.76886e-05
-1.12938e-21 -0.0255762 0.00184005 0.00310681 -0.00506309 -0.000143562
2.25875e-21 0.0255762 0.00184006 -0.0218504 0.0395917 0.000321099
2.25875e-21 -0.0255826 0.00249894 0.00286726 -0.00453304 -0.000183203
-4.51751e-21 0.0255826 0.00249898 -0.0188065 0.0343945 0.000408456
1.35525e-20 -0.0257081 0.000131346 9.34259e-07 -4.13476e-06 -6.41861e-06
-1.35525e-20 0.0257081 0.000131355 -0.00200929 0.00357457 7.26859e-05
-1.35525e-20 -0.0257119 3.5178e-11 0 0 0
-1.35525e-20 0.0257119 3.51714e-11 0 0 0
-2.71051e-20 -0.0254803 0.00354696 0 0 0
-2.71051e-20 0.0254805 0.00354701 0 0 0
-1.88079e-37 -0.0255731 0.00306885 0.00179798 -0.00271728 -0.000155804
-3.38813e-21 0.0255732 0.00306889 -0.0105278 0.0194751 0.000157238
1.35525e-20 -0.0258709 0.000270959 2.28456e-06 -8.00009e-06 -9.97834e-06
2.71051e-20 0.0258709 0.000270951 -0.00395752 0.00715811 0.000105355
0 0.0258866 0.000847023 -0.0152156 0.0279396 5.5304e-06
-2.71051e-20 -0.0258866 0.000847041 0.00185676 -0.0032423 5.96864e-05
2.71051e-20 -0.0258956 0.00148572 0.00312116 -0.00512988 -0.000115728
2.71051e-20 0.0258956 0.00148572 -0.0222258 0.0398917 0.000190509
3.38813e-21 0.025711 0.00360842 0 0 0
0 -0.0257111 0.00360845 0 0 0
0 -0.0258953 0.00216728 0.00347105 -0.00555549 -0.00017033
-2.71051e-20 0.0258953 0.0021673 -0.0237583 0.0430047 0.000492157
0 0.0260182 1.43804e-11 0 0 0
0 -0.0260182 1.43794e-11 0 0 0
3.38813e-21 -0.0257706 0.00362429 0 0 0
-1.01644e-20 0.0257711 0.00362443 0 0 0
1.35525e-20 0.0260277 0.000129341 -0.00197847 0.00351974 7.15711e-05
-2.71051e-20 -0.0260277 0.000129326 9.19888e-07 -4.07115e-06 -6.31988e-06
9.03502e-21 -0.0258189 0.00342152 0.000977642 -0.00138723 -9.96381e-05
-4.51751e-21 0.025819 0.00342167 -0.0050321 0.00950015 6.4348e-05
0 -0.0259036 0.00281595 0.00282995 -0.00434043 -0.000210316
0 0.0259037 0.002816 -0.0175099 0.0319257 0.000366889
-1.35525e-20 -0.0261762 8.33893e-12 0 0 0
0 0.0261762 8.34033e-12 0 0 0
4.51751e-21 -0.0261907 0.000536281 0.000899202 -0.00158438 3.53073e-06
-4.51751e-21 0.0261907 0.000536273 -0.00933979 0.0174026 -5.56904e-06
2.25875e-21 -0.0262092 0.00114375 0.00253232 -0.00428493 -5.62473e-05
-1.12938e-21 0.0262092 0.00114374 -0.0189625 0.0344378 0.000103161
0 -0.0260128 0.00368881 0 0 0
0 0.0260131 0.00368888 0 0 0
1.12938e-21 -0.0262149 0.00181929 0.00344801 -0.0056161 -0.000143182
-1.12938e-21 0.026215 0.00181931 -0.0239393 0.0432436 0.000374712
1.35525e-20 -0.0263228 0.000121185 -1.66787e-06 9.24967e-07 4.63191e-06
0 0.0263228 0.000121207 -0.00178477 0.00378531 -1.77456e-05
-2.71051e-20 -0.0263263 7.17909e-12 0 0 0
-1.35525e-20 0.0263263 7.18003e-12 0 0 0
-2.25875e-21 -0.0262139 0.00250557 0.00339254 -0.00533265 -0.00018607
0 0.0262139 0.0025056 -0.0221349 0.040204 0.000493314
0 -0.0261379 0.00372349 0 0 0
1.35525e-20 0.026138 0.00372353 0 0 0
0 -0.0261645 0.00360603 0.000615066 -0.000951322 -5.9678e-05
1.35525e-20 0.0261645 0.00360614 -0.00266735 0.00564999 5.45069e-05
3.76459e-22 -0.0262301 0.00320871 0.00208531 -0.00313005 -0.000150998
-2.63521e-21 0.0262302 0.00320874 -0.01169 0.0218334 0.000328531
0 0.0264876 0.000258964 -0.00372057 0.00778566 -5.51796e-05
0 -0.0264876 0.000258966 -1.60206e-06 2.36449e-07 8.81566e-06
0 0.0265116 0.000819292 -0.0153664 0.0283428 -7.42135e-05
0 -0.0265116 0.000819294 0.00188229 -0.00333374 -4.72338e-05
0 -0.0265313 0.00145489 0.00332665 -0.00552295 -0.000127882
-2.71051e-20 0.0265313 0.00145489 -0.0233936 0.0421675 0.000298212
1.35525e-20 0.026307 0.00376735 0 0 0
-6.77626e-21 -0.0263071 0.00376735 0 0 0
2.71051e-20 -0.0265288 0.0021494 0.00387447 -0.00625784 -0.000161897
0 0.0265288 0.00214943 -0.0263842 0.0479122 0.000516119
0 0.0266623 2.30403e-12 0 0 0
0 -0.0266624 2.30216e-12 0 0 0
0 0.0266707 0.000106434 -0.00156724 0.00332394 -1.55827e-05
0 -0.0266707 0.000106397 -1.46434e-06 8.12096e-07 4.06669e-06
0 -0.0265278 0.00283341 0.00347612 -0.00532121 -0.000201708
0 0.0265278 0.00283345 -0.0216006 0.0392358 0.000602923
0 -0.0264226 0.00379805 0 0 0
6.77626e-21 0.0264228 0.00379811 0 0 0
-2.25875e-21 -0.0265365 0.00359663 0.00119139 -0.0016985 -0.000107291
4.51751e-21 0.0265366 0.00359666 -0.00525551 0.0107912 0.000147263
1.35525e-20 0.0267959 1.18763e-12 0 0 0
1.35525e-20 -0.0267959 1.18628e-12 0 0 0
6.77626e-21 0.0268045 0.000501528 -0.00868194 0.0167806 -0.000229979
-1.12938e-21 -0.0268045 0.000501531 0.000876488 -0.00158755 -7.27549e-05
-2.25875e-21 0.0268426 0.00108835 -0.0187887 0.0345346 7.85973e-05
-1.12938e-21 -0.0268426 0.00108835 0.00256651 -0.00439474 -0.000154474
-2.71051e-20 -0.0269065 8.39027e-05 -5.38979e-07 -2.99378e-05 3.58464e-05
0 0.0269065 8.3938e-05 -0.00106152 0.00227058 -0.000261182
0 -0.0269105 1.09903e-12 0 0 0
1.35525e-20 0.0269105 1.10016e-12 0 0 0
5.64689e-22 -0.0268569 0.00177537 0.00370164 -0.00606835 -0.000134396
-3.38813e-21 0.0268569 0.00177538 -0.025361 0.0460215 0.000402386
-2.25875e-21 -0.0268455 0.00249655 0.00389311 -0.00613094 -0.000160867
-3.38813e-21 0.0268455 0.00249657 -0.025148 0.0457062 0.000538996
0 -0.0268309 0.00322459 0.0027024 -0.00404146 -0.000141985
-7.67977e-21 0.0268309 0.00322463 -0.0150604 0.0278842 0.000470387
0 0.0267575 0.00386117 -0.000560247 0.00117078 1.50384e-05
-8.47033e-22 -0.0267577 0.00386154 0.000129596 -0.000181695 -1.25375e-05
0 0.0267685 0.00388946 0 0 0
0 -0.0267686 0.00388947 0 0 0
-1.69407e-21 -0.0267817 0.00389295 0 0 0
0 0.0267818 0.00389298 0 0 0
1.69407e-21 -0.0267895 0.00389519 0 0 0
0 0.0267897 0.00389526 0 0 0
8.47033e-22 -0.0267977 0.00388305 8.73691e-05 -0.000117741 -8.26922e-06
0 0.026798 0.00388297 -0.000384415 0.000755377 5.81728e-06
-6.77626e-21 -0.0268077 0.00390073 0 0 0
-1.69407e-21 0.0268081 0.00390087 0 0 0
-2.71051e-20 0.0270953 0.000231001 -0.00282056 0.0062288 -0.00050625
0 -0.0270953 0.000231002 3.38295e-06 -6.01461e-05 6.65798e-05
-2.71051e-20 0.0271307 0.000745292 -0.0137495 0.0264054 -0.000276314
0 -0.0271307 0.000745291 0.00176778 -0.00320794 -0.000322285
-5.42101e-20 0.0271875 0.00136731 -0.0230763 0.0419907 0.000372256
2.71051e-20 -0.0271875 0.00136731 0.00336467 -0.0056398 -0.000138092
-2.71051e-20 0.0271699 0.00211433 -0.0285027 0.05187 0.000426731
0 -0.0271699 0.00211432 0.00422986 -0.00683996 -0.000114401
1.93608e-21 -0.0270374 0.00364693 0.00183296 -0.00259229 -0.000129097
-1.16165e-20 0.0270375 0.00364697 -0.00846278 0.0163691 0.000213963
0 -0.0271534 0.00283785 0.00403974 -0.00619897 -0.000164513
0 0.0271534 0.00283788 -0.0245582 0.0446344 0.000604949
0 0.0273865 0.000433223 -0.00711501 0.0144266 -0.000280104
0 -0.0273866 0.000433225 0.000721812 -0.00135869 -8.37772e-05
-1.35525e-20 -0.0272025 0.00404243 0 0 0
0 0.0272026 0.00404247 0 0 0
0 0.0275132 1.10792e-13 -2.10266e-05 4.61318e-05 -3.42069e-06
0 -0.0275208 1.06274e-13 9.38018e-07 -2.23481e-06 1.08214e-07
0 -0.0275278 1.055e-13 0 0 0
0 0.027528 1.05214e-13 0 0 0
-2.63521e-21 -0.0275176 0.00087612 0.00206476 -0.00358913 -0.000130371
-5.64689e-22 0.0275176 0.000876116 -0.0151386 0.0285598 -2.47219e-05
-4.23516e-22 -0.0275404 1.84884e-05 1.90533e-05 -4.47521e-05 5.50929e-07
0 0.027541 1.89916e-05 -0.000256955 0.000597921 -5.95809e-06
2.71051e-20 -0.0272668 0.00395785 0.000569841 -0.000866078 -2.70772e-05
1.35525e-20 0.0272669 0.00395792 -0.00260211 0.00502496 0.000104259
7.05861e-23 0.0275074 0.00171411 -0.026261 0.0476008 0.000362462
-2.11758e-22 -0.0275075 0.00171411 0.0038993 -0.006353 -9.8942e-05
0 -0.0274756 0.00248008 0.00437738 -0.00684497 -7.40766e-05
4.51751e-21 0.0274756 0.00248009 -0.0276871 0.0501414 0.000529521
0 -0.0274313 0.00322718 0.00341273 -0.00516206 -7.14439e-05
0 0.0274313 0.00322722 -0.0189615 0.0347471 0.000557301
1.35525e-20 -0.0273528 0.00409794 0 0 0
0 0.0273528 0.00409795 0 0 0
-9.03502e-22 -0.0274774 0.00369777 0.00217325 -0.00325892 -8.51232e-05
-4.51751e-22 0.0274774 0.00369779 -0.0106333 0.0200737 0.000369445
-2.71051e-20 0.0278217 0.00130228 -0.0237238 0.0428325 0.000225635
0 -0.0278217 0.00130226 0.00346909 -0.00575958 -0.000155618
-2.71051e-20 0.0277987 0.0020884 -0.0301449 0.0543971 0.000451148
2.71051e-20 -0.0277987 0.0020884 0.00458795 -0.00726308 -1.35064e-07
-1.50584e-21 0.0278795 0.000330568 -0.00461044 0.0103735 -9.31204e-05
-1.50584e-21 -0.0278795 0.000330574 0.000382371 -0.000842484 4.06423e-06
-1.01644e-20 -0.0275674 0.00417883 0 0 0
-6.77626e-21 0.0275674 0.00417882 0 0 0
2.71051e-20 -0.0277779 0.00283431 0.00467689 -0.00712824 -1.64268e-05
-2.71051e-20 0.0277779 0.00283433 -0.0278051 0.0501361 0.000629622
-6.77626e-21 -0.0276684 0.00421691 0 0 0
-2.03288e-20 0.0276685 0.00421694 0 0 0
-1.35525e-20 -0.0277109 0.00403361 0.0010324 -0.00157944 -5.88411e-05
4.51751e-21 0.0277109 0.00403363 -0.00462947 0.00901928 0.000220634
0 -0.0278037 0.00346795 0.00349522 -0.00531971 -2.59338e-05
2.71051e-20 0.0278037 0.00346796 -0.0182262 0.0334827 0.000708856
-2.71051e-20 0.0280306 3.72656e-14 0 0 0
1.35525e-20 -0.0280306 3.72776e-14 0 0 0
0 0.0281597 0.000826399 -0.0144023 0.0272273 -1.31251e-05
2.25875e-21 -0.0281598 0.000826407 0.00201216 -0.00354821 -2.47867e-05
1.12938e-22 0.0281239 0.00170646 -0.0275611 0.0497236 0.000317001
5.64689e-22 -0.0281239 0.00170647 0.00418308 -0.00670921 -2.70357e-06
-2.71051e-20 0.0281926 2.34404e-14 0 0 0
-1.35525e-20 -0.0281927 2.34062e-14 0 0 0
-5.64689e-22 -0.0281037 0.00246055 0.00488533 -0.00752683 0.00011249
-1.12938e-21 0.0281037 0.00246055 -0.0301378 0.0541516 0.000599412
1.35525e-20 -0.0278977 0.00430336 0 0 0
0 0.0278977 0.00430337 0 0 0
1.12938e-21 -0.0280999 0.00316544 0.00440736 -0.00672862 0.00011441
-5.64689e-22 0.0280999 0.00316545 -0.0245736 0.0445265 0.000817558
0 -0.0280091 0.00434534 0 0 0