# Force       
# CofR        : (0.000000e+00 0.000000e+00 0.000000e+00)
#
# Time        	(total_x total_y total_z)	(pressure_x pressure_y pressure_z)	(viscous_x viscous_y viscous_z)
1             	(4.707580e+01 -5.685984e-04 1.003619e-03)	(4.699685e+01 -5.683424e-04 9.979568e-04)	(7.895047e-02 -2.559626e-07 5.662202e-06)
2             	(3.736600e+01 2.032313e-04 3.623367e-02)	(3.739974e+01 1.994648e-04 3.501918e-02)	(-3.374009e-02 3.766490e-06 1.214493e-03)
3             	(1.378860e+01 8.063703e-04 7.225521e-02)	(1.387141e+01 8.131721e-04 6.920036e-02)	(-8.281103e-02 -6.801851e-06 3.054852e-03)
4             	(-2.554445e+01 2.090479e-03 1.089246e-01)	(-2.544760e+01 2.076279e-03 1.067837e-01)	(-9.685346e-02 1.420016e-05 2.140979e-03)
5             	(-4.726778e+01 2.522409e-03 1.595191e-01)	(-4.720709e+01 2.522624e-03 1.582910e-01)	(-6.069032e-02 -2.154954e-07 1.228109e-03)
6             	(-4.711788e+01 1.864749e-03 6.737369e-02)	(-4.711530e+01 1.862582e-03 6.675148e-02)	(-2.580585e-03 2.166367e-06 6.222165e-04)
7             	(-3.541393e+01 1.621265e-03 6.774801e-03)	(-3.548256e+01 1.581193e-03 5.486129e-03)	(6.862715e-02 4.007193e-05 1.288671e-03)
8             	(-1.717297e+01 6.524550e-04 -1.069534e-01)	(-1.727523e+01 6.158794e-04 -1.078302e-01)	(1.022590e-01 3.657561e-05 8.767839e-04)
9             	(3.502021e+00 -8.682871e-04 -1.749292e-01)	(3.389148e+00 -9.111096e-04 -1.769569e-01)	(1.128730e-01 4.282250e-05 2.027729e-03)
10            	(1.650110e+01 -2.634003e-03 -1.527324e-01)	(1.640420e+01 -2.761210e-03 -1.554118e-01)	(9.690209e-02 1.272071e-04 2.679441e-03)
11            	(2.054277e+01 -3.194982e-03 -1.167630e-01)	(2.048523e+01 -3.354046e-03 -1.194616e-01)	(5.754615e-02 1.590633e-04 2.698602e-03)
12            	(1.787845e+01 -3.478086e-03 -7.691065e-02)	(1.787281e+01 -3.677851e-03 -7.991515e-02)	(5.647395e-03 1.997650e-04 3.004502e-03)
13            	(1.210841e+01 -2.846754e-03 -4.636871e-02)	(1.214576e+01 -3.047487e-03 -4.843466e-02)	(-3.734994e-02 2.007326e-04 2.065946e-03)
14            	(4.945600e+00 -1.514437e-03 -8.732787e-03)	(5.002789e+00 -1.698523e-03 -1.000579e-02)	(-5.718917e-02 1.840857e-04 1.273005e-03)
15            	(-1.695439e+00 -2.209707e-04 2.339443e-02)	(-1.641832e+00 -4.013759e-04 2.272401e-02)	(-5.360715e-02 1.804052e-04 6.704241e-04)
16            	(-5.357059e+00 6.244868e-04 1.357305e-02)	(-5.323498e+00 4.508612e-04 1.385598e-02)	(-3.356105e-02 1.736257e-04 -2.829360e-04)
17            	(-6.233466e+00 8.884499e-04 -3.549574e-02)	(-6.228534e+00 7.393661e-04 -3.414302e-02)	(-4.932706e-03 1.490838e-04 -1.352717e-03)
18            	(-5.207877e+00 7.507735e-04 -1.032122e-01)	(-5.231721e+00 5.911453e-04 -1.014972e-01)	(2.384427e-02 1.596282e-04 -1.714935e-03)
19            	(-3.160961e+00 2.853352e-04 -1.754291e-01)	(-3.203647e+00 1.033708e-04 -1.738695e-01)	(4.268659e-02 1.819644e-04 -1.559636e-03)
20            	(-9.087757e-01 -9.261368e-04 -2.363481e-01)	(-9.563632e-01 -1.080938e-03 -2.351012e-01)	(4.758746e-02 1.548007e-04 -1.246963e-03)
21            	(8.455650e-01 -2.461762e-03 -2.637259e-01)	(8.047620e-01 -2.619471e-03 -2.627676e-01)	(4.080299e-02 1.577088e-04 -9.583396e-04)
22            	(1.831845e+00 -3.715226e-03 -2.709901e-01)	(1.803137e+00 -3.844079e-03 -2.701918e-01)	(2.870880e-02 1.288535e-04 -7.982770e-04)
23            	(2.050112e+00 -4.496274e-03 -2.603258e-01)	(2.033952e+00 -4.624017e-03 -2.596732e-01)	(1.615968e-02 1.277439e-04 -6.526378e-04)
24            	(1.760335e+00 -5.060353e-03 -2.424194e-01)	(1.754221e+00 -5.203720e-03 -2.418395e-01)	(6.114129e-03 1.433668e-04 -5.799565e-04)
25            	(1.209265e+00 -5.078758e-03 -2.213324e-01)	(1.209471e+00 -5.228457e-03 -2.207183e-01)	(-2.066430e-04 1.496988e-04 -6.140803e-04)
26            	(6.514241e-01 -4.828750e-03 -2.018517e-01)	(6.541262e-01 -5.007297e-03 -2.011077e-01)	(-2.702031e-03 1.785474e-04 -7.440126e-04)
27            	(2.389713e-01 -4.340481e-03 -1.895722e-01)	(2.410023e-01 -4.546414e-03 -1.886764e-01)	(-2.030966e-03 2.059333e-04 -8.958133e-04)
28            	(1.730332e-02 -3.463462e-03 -1.898006e-01)	(1.651349e-02 -3.691175e-03 -1.887145e-01)	(7.898307e-04 2.277134e-04 -1.086097e-03)
29            	(-2.439010e-02 -2.393529e-03 -2.022591e-01)	(-2.883998e-02 -2.627200e-03 -2.009975e-01)	(4.449876e-03 2.336707e-04 -1.261598e-03)
30            	(7.378909e-02 -2.233922e-03 -2.213959e-01)	(6.596771e-02 -2.456486e-03 -2.199952e-01)	(7.821383e-03 2.225641e-04 -1.400687e-03)
31            	(2.143952e-01 -1.819623e-03 -2.441297e-01)	(2.043243e-01 -2.018945e-03 -2.426254e-01)	(1.007086e-02 1.993228e-04 -1.504313e-03)
32            	(3.648272e-01 -1.872993e-03 -2.660758e-01)	(3.538621e-01 -2.050802e-03 -2.644617e-01)	(1.096506e-02 1.778090e-04 -1.614134e-03)
33            	(4.698618e-01 -1.871987e-03 -2.863706e-01)	(4.591785e-01 -2.028732e-03 -2.846248e-01)	(1.068327e-02 1.567452e-04 -1.745884e-03)
34            	(5.173416e-01 -1.715804e-03 -3.017900e-01)	(5.077002e-01 -1.845489e-03 -2.998926e-01)	(9.641418e-03 1.296851e-04 -1.897349e-03)
35            	(5.170454e-01 -1.364030e-03 -3.099359e-01)	(5.087428e-01 -1.462017e-03 -3.078818e-01)	(8.302641e-03 9.798772e-05 -2.054110e-03)
36            	(4.871608e-01 -8.568071e-04 -3.099503e-01)	(4.800991e-01 -9.220283e-04 -3.077423e-01)	(7.061712e-03 6.522121e-05 -2.208060e-03)
37            	(4.506441e-01 -6.197394e-04 -3.032339e-01)	(4.444786e-01 -6.551903e-04 -3.008804e-01)	(6.165508e-03 3.545089e-05 -2.353517e-03)
38            	(4.364010e-01 -3.474474e-04 -2.921641e-01)	(4.306606e-01 -3.555119e-04 -2.896798e-01)	(5.740412e-03 8.064582e-06 -2.484298e-03)
39            	(4.513063e-01 5.990899e-05 -2.767330e-01)	(4.454956e-01 7.534108e-05 -2.741470e-01)	(5.810709e-03 -1.543210e-05 -2.586066e-03)
40            	(4.585601e-01 3.941815e-04 -2.650801e-01)	(4.523897e-01 4.314177e-04 -2.624165e-01)	(6.170355e-03 -3.723626e-05 -2.663514e-03)
41            	(5.093170e-01 9.237501e-04 -2.490481e-01)	(5.025904e-01 9.789293e-04 -2.463385e-01)	(6.726606e-03 -5.517925e-05 -2.709642e-03)
42            	(5.453580e-01 1.224112e-03 -2.398893e-01)	(5.380471e-01 1.293684e-03 -2.371574e-01)	(7.310907e-03 -6.957219e-05 -2.731865e-03)
43            	(6.147502e-01 1.674977e-03 -2.274128e-01)	(6.068595e-01 1.750918e-03 -2.246826e-01)	(7.890699e-03 -7.594143e-05 -2.730152e-03)
44            	(6.491289e-01 1.933180e-03 -2.206880e-01)	(6.407690e-01 2.014428e-03 -2.179680e-01)	(8.359901e-03 -8.124737e-05 -2.719996e-03)
45            	(6.995311e-01 2.294962e-03 -2.072894e-01)	(6.907824e-01 2.376043e-03 -2.045775e-01)	(8.748717e-03 -8.108096e-05 -2.711906e-03)
46            	(7.118713e-01 2.457225e-03 -1.996223e-01)	(7.028357e-01 2.537422e-03 -1.969108e-01)	(9.035548e-03 -8.019671e-05 -2.711489e-03)
47            	(7.158419e-01 2.597565e-03 -1.888900e-01)	(7.065804e-01 2.669603e-03 -1.861816e-01)	(9.261484e-03 -7.203793e-05 -2.708321e-03)
48            	(7.174904e-01 3.052016e-03 -1.610932e-01)	(7.079870e-01 3.107781e-03 -1.584180e-01)	(9.503378e-03 -5.576562e-05 -2.675203e-03)
49            	(7.079721e-01 3.145691e-03 -1.476405e-01)	(6.982043e-01 3.177632e-03 -1.449937e-01)	(9.767809e-03 -3.194100e-05 -2.646869e-03)
50            	(6.878307e-01 3.445095e-03 -1.156071e-01)	(6.778430e-01 3.450928e-03 -1.130099e-01)	(9.987704e-03 -5.832887e-06 -2.597264e-03)
51            	(6.715410e-01 3.517132e-03 -1.018024e-01)	(6.613054e-01 3.494331e-03 -9.924523e-02)	(1.023558e-02 2.280107e-05 -2.557184e-03)
52            	(6.411872e-01 3.686717e-03 -7.360148e-02)	(6.307817e-01 3.636040e-03 -7.110203e-02)	(1.040546e-02 5.067699e-05 -2.499457e-03)
53            	(6.217732e-01 3.732436e-03 -6.042205e-02)	(6.111982e-01 3.654450e-03 -5.797829e-02)	(1.057509e-02 7.798578e-05 -2.443757e-03)
54            	(5.867394e-01 3.677232e-03 -3.503595e-02)	(5.761040e-01 3.576753e-03 -3.267572e-02)	(1.063535e-02 1.004792e-04 -2.360226e-03)
55            	(5.550734e-01 3.508787e-03 -1.407486e-02)	(5.444249e-01 3.388372e-03 -1.183485e-02)	(1.064843e-02 1.204144e-04 -2.240007e-03)
56            	(5.368200e-01 3.442627e-03 -4.677049e-03)	(5.262253e-01 3.305381e-03 -2.570883e-03)	(1.059469e-02 1.372467e-04 -2.106166e-03)
57            	(5.075888e-01 3.108232e-03 1.322036e-02)	(4.971377e-01 2.960018e-03 1.516650e-02)	(1.045106e-02 1.482148e-04 -1.946143e-03)
58            	(4.918467e-01 2.962990e-03 2.202252e-02)	(4.815580e-01 2.806302e-03 2.378779e-02)	(1.028864e-02 1.566880e-04 -1.765272e-03)
59            	(4.773284e-01 2.777319e-03 3.199231e-02)	(4.672572e-01 2.616923e-03 3.356976e-02)	(1.007116e-02 1.603969e-04 -1.577451e-03)
60            	(4.645554e-01 2.559307e-03 4.343151e-02)	(4.547217e-01 2.398496e-03 4.481095e-02)	(9.833632e-03 1.608105e-04 -1.379441e-03)
61            	(4.494010e-01 2.085018e-03 6.499189e-02)	(4.398325e-01 1.929260e-03 6.615161e-02)	(9.568499e-03 1.557582e-04 -1.159723e-03)
62            	(4.442193e-01 1.882779e-03 7.680468e-02)	(4.348992e-01 1.736493e-03 7.774767e-02)	(9.320041e-03 1.462852e-04 -9.429870e-04)
63            	(4.425065e-01 1.691984e-03 8.912416e-02)	(4.334429e-01 1.558583e-03 8.986687e-02)	(9.063625e-03 1.334002e-04 -7.427046e-04)
64            	(4.444153e-01 1.537318e-03 1.020445e-01)	(4.355871e-01 1.418102e-03 1.025997e-01)	(8.828207e-03 1.192165e-04 -5.552305e-04)
65            	(4.548462e-01 1.344345e-03 1.251193e-01)	(4.462199e-01 1.239884e-03 1.254778e-01)	(8.626294e-03 1.044612e-04 -3.585782e-04)
66            	(4.619841e-01 1.295270e-03 1.364155e-01)	(4.535259e-01 1.208027e-03 1.365988e-01)	(8.458230e-03 8.724317e-05 -1.833336e-04)
67            	(4.713594e-01 1.300904e-03 1.475073e-01)	(4.630469e-01 1.229846e-03 1.475303e-01)	(8.312500e-03 7.105857e-05 -2.292228e-05)
68            	(4.942022e-01 1.531073e-03 1.656379e-01)	(4.859752e-01 1.475579e-03 1.654999e-01)	(8.227002e-03 5.549359e-05 1.380194e-04)
69            	(5.051609e-01 1.607497e-03 1.748669e-01)	(4.969888e-01 1.570236e-03 1.745846e-01)	(8.172096e-03 3.726145e-05 2.823904e-04)
70            	(5.170309e-01 1.710092e-03 1.837948e-01)	(5.088950e-01 1.690106e-03 1.833730e-01)	(8.135831e-03 1.998634e-05 4.217787e-04)
71            	(5.417174e-01 1.986254e-03 1.970108e-01)	(5.335655e-01 1.981314e-03 1.964439e-01)	(8.151910e-03 4.939798e-06 5.668423e-04)
72            	(5.525940e-01 2.099364e-03 2.042056e-01)	(5.444092e-01 2.109658e-03 2.034982e-01)	(8.184826e-03 -1.029331e-05 7.073948e-04)
73            	(5.722533e-01 2.268384e-03 2.138775e-01)	(5.640006e-01 2.291526e-03 2.130172e-01)	(8.252718e-03 -2.314217e-05 8.602913e-04)
74            	(5.805849e-01 2.338388e-03 2.192461e-01)	(5.722546e-01 2.373977e-03 2.182390e-01)	(8.330394e-03 -3.558940e-05 1.007032e-03)
75            	(5.941808e-01 2.420226e-03 2.258852e-01)	(5.857564e-01 2.466150e-03 2.247248e-01)	(8.424427e-03 -4.592392e-05 1.160469e-03)
76            	(5.996124e-01 2.458766e-03 2.296003e-01)	(5.910961e-01 2.513952e-03 2.282965e-01)	(8.516318e-03 -5.518600e-05 1.303832e-03)
77            	(6.072737e-01 2.516731e-03 2.339423e-01)	(5.986729e-01 2.579031e-03 2.324902e-01)	(8.600787e-03 -6.230029e-05 1.452131e-03)
78            	(6.112910e-01 2.577568e-03 2.368787e-01)	(6.026173e-01 2.645206e-03 2.352836e-01)	(8.673701e-03 -6.763826e-05 1.595062e-03)
79            	(6.121213e-01 2.665303e-03 2.383156e-01)	(6.033946e-01 2.736959e-03 2.365817e-01)	(8.726714e-03 -7.165647e-05 1.733893e-03)
80            	(6.113264e-01 2.748207e-03 2.382207e-01)	(6.025627e-01 2.821864e-03 2.363555e-01)	(8.763662e-03 -7.365676e-05 1.865282e-03)
81            	(6.078837e-01 2.888822e-03 2.364751e-01)	(5.991050e-01 2.963391e-03 2.344819e-01)	(8.778676e-03 -7.456977e-05 1.993150e-03)
82            	(6.036009e-01 3.025587e-03 2.333499e-01)	(5.948177e-01 3.099182e-03 2.312437e-01)	(8.783141e-03 -7.359558e-05 2.106140e-03)
83            	(5.991199e-01 3.136415e-03 2.288500e-01)	(5.903465e-01 3.208145e-03 2.266448e-01)	(8.773362e-03 -7.172982e-05 2.205209e-03)
84            	(5.949618e-01 3.210222e-03 2.229758e-01)	(5.862100e-01 3.277968e-03 2.206882e-01)	(8.751761e-03 -6.774552e-05 2.287636e-03)
85            	(5.915609e-01 3.220915e-03 2.157893e-01)	(5.828385e-01 3.283601e-03 2.134384e-01)	(8.722393e-03 -6.268617e-05 2.350957e-03)
86            	(5.889415e-01 3.153613e-03 2.071025e-01)	(5.802522e-01 3.211852e-03 2.047093e-01)	(8.689335e-03 -5.823899e-05 2.393207e-03)
87            	(5.873475e-01 3.014788e-03 1.969851e-01)	(5.786923e-01 3.070048e-03 1.945710e-01)	(8.655267e-03 -5.526036e-05 2.414157e-03)
88            	(5.868913e-01 2.791904e-03 1.855379e-01)	(5.782681e-01 2.845499e-03 1.831250e-01)	(8.623253e-03 -5.359537e-05 2.412901e-03)
89            	(5.875842e-01 2.518420e-03 1.729142e-01)	(5.789858e-01 2.571038e-03 1.705252e-01)	(8.598427e-03 -5.261840e-05 2.388977e-03)
90            	(5.893712e-01 2.221002e-03 1.592921e-01)	(5.807876e-01 2.272681e-03 1.569477e-01)	(8.583540e-03 -5.167875e-05 2.344450e-03)
91            	(5.920625e-01 1.930251e-03 1.448539e-01)	(5.834821e-01 1.980244e-03 1.425728e-01)	(8.580388e-03 -4.999287e-05 2.281058e-03)
92            	(5.953759e-01 1.671933e-03 1.297878e-01)	(5.867867e-01 1.719895e-03 1.275880e-01)	(8.589196e-03 -4.796227e-05 2.199842e-03)
93            	(5.989590e-01 1.461450e-03 1.142621e-01)	(5.903507e-01 1.507439e-03 1.121595e-01)	(8.608292e-03 -4.598882e-05 2.102570e-03)
94            	(6.024538e-01 1.304460e-03 9.838085e-02)	(5.938186e-01 1.348569e-03 9.638812e-02)	(8.635285e-03 -4.410941e-05 1.992727e-03)
95            	(6.055542e-01 1.197786e-03 8.221264e-02)	(5.968893e-01 1.240004e-03 8.034072e-02)	(8.664939e-03 -4.221838e-05 1.871926e-03)
96            	(6.086103e-01 1.125503e-03 6.540502e-02)	(5.999148e-01 1.164945e-03 6.366367e-02)	(8.695412e-03 -3.944192e-05 1.741344e-03)
97            	(6.106879e-01 1.073876e-03 4.856384e-02)	(6.019626e-01 1.109388e-03 4.696240e-02)	(8.725364e-03 -3.551147e-05 1.601441e-03)
98            	(6.115161e-01 1.059893e-03 3.171554e-02)	(6.027646e-01 1.090126e-03 3.026377e-02)	(8.751473e-03 -3.023280e-05 1.451774e-03)
99            	(6.110883e-01 1.053724e-03 1.494659e-02)	(6.023158e-01 1.077089e-03 1.365266e-02)	(8.772483e-03 -2.336544e-05 1.293932e-03)
100           	(6.095933e-01 1.048826e-03 -1.389754e-03)	(6.008055e-01 1.063067e-03 -2.520597e-03)	(8.787749e-03 -1.424019e-05 1.130843e-03)
101           	(6.073583e-01 1.048692e-03 -1.783771e-02)	(5.985635e-01 1.051677e-03 -1.880334e-02)	(8.794869e-03 -2.984783e-06 9.656230e-04)
102           	(6.045559e-01 1.055689e-03 -3.432090e-02)	(5.957627e-01 1.045480e-03 -3.511983e-02)	(8.793196e-03 1.020838e-05 7.989339e-04)
103           	(6.013894e-01 1.073706e-03 -5.070385e-02)	(5.926073e-01 1.048319e-03 -5.133524e-02)	(8.782176e-03 2.538705e-05 6.313961e-04)
104           	(5.980509e-01 1.106969e-03 -6.681681e-02)	(5.892898e-01 1.065016e-03 -6.728050e-02)	(8.761133e-03 4.195257e-05 4.636834e-04)
105           	(5.947144e-01 1.156532e-03 -8.247529e-02)	(5.859826e-01 1.097259e-03 -8.277208e-02)	(8.731865e-03 5.927239e-05 2.967901e-04)
106           	(5.915160e-01 1.214608e-03 -9.752306e-02)	(5.828195e-01 1.137831e-03 -9.765495e-02)	(8.696532e-03 7.677685e-05 1.318888e-04)
107           	(5.885663e-01 1.274629e-03 -1.118558e-01)	(5.799095e-01 1.181077e-03 -1.118261e-01)	(8.656785e-03 9.355281e-05 -2.974100e-05)
108           	(5.859419e-01 1.327782e-03 -1.254040e-01)	(5.773288e-01 1.219498e-03 -1.252171e-01)	(8.613051e-03 1.082838e-04 -1.868327e-04)
109           	(5.836885e-01 1.366247e-03 -1.381475e-01)	(5.751233e-01 1.245879e-03 -1.378083e-01)	(8.565204e-03 1.203682e-04 -3.391849e-04)
110           	(5.818297e-01 1.381099e-03 -1.501155e-01)	(5.733145e-01 1.251614e-03 -1.496276e-01)	(8.515228e-03 1.294852e-04 -4.879630e-04)
111           	(5.803677e-01 1.366827e-03 -1.613773e-01)	(5.719035e-01 1.231703e-03 -1.607437e-01)	(8.464155e-03 1.351238e-04 -6.336046e-04)
112           	(5.793289e-01 1.320997e-03 -1.721018e-01)	(5.709163e-01 1.183994e-03 -1.713252e-01)	(8.412580e-03 1.370034e-04 -7.766169e-04)
113           	(5.784989e-01 1.231275e-03 -1.822850e-01)	(5.701387e-01 1.096081e-03 -1.813683e-01)	(8.360134e-03 1.351935e-04 -9.166328e-04)
114           	(5.780547e-01 1.114842e-03 -1.918725e-01)	(5.697480e-01 9.846374e-04 -1.908191e-01)	(8.306701e-03 1.302041e-04 -1.053449e-03)
115           	(5.781759e-01 9.771748e-04 -2.007833e-01)	(5.699221e-01 8.550725e-04 -1.995969e-01)	(8.253803e-03 1.221023e-04 -1.186399e-03)
116           	(5.784140e-01 8.427665e-04 -2.091900e-01)	(5.702115e-01 7.313162e-04 -2.078739e-01)	(8.202466e-03 1.114503e-04 -1.316133e-03)
117           	(5.791800e-01 7.082697e-04 -2.168468e-01)	(5.710257e-01 6.092305e-04 -2.154035e-01)	(8.154358e-03 9.903925e-05 -1.443355e-03)
118           	(5.802211e-01 5.988965e-04 -2.238532e-01)	(5.721118e-01 5.132217e-04 -2.222853e-01)	(8.109236e-03 8.567475e-05 -1.567931e-03)
119           	(5.815132e-01 5.222417e-04 -2.301532e-01)	(5.734457e-01 4.497924e-04 -2.284643e-01)	(8.067525e-03 7.244926e-05 -1.688886e-03)
120           	(5.830387e-01 4.774821e-04 -2.356784e-01)	(5.750073e-01 4.177681e-04 -2.338754e-01)	(8.031391e-03 5.971407e-05 -1.803009e-03)
121           	(5.846654e-01 4.546979e-04 -2.402940e-01)	(5.766647e-01 4.073609e-04 -2.383852e-01)	(8.000712e-03 4.733699e-05 -1.908750e-03)
122           	(5.865206e-01 4.512654e-04 -2.439926e-01)	(5.785451e-01 4.162122e-04 -2.419872e-01)	(7.975536e-03 3.505320e-05 -2.005420e-03)
123           	(5.885429e-01 4.577615e-04 -2.466861e-01)	(5.805872e-01 4.349479e-04 -2.445930e-01)	(7.955655e-03 2.281361e-05 -2.093152e-03)
124           	(5.906895e-01 4.688158e-04 -2.483241e-01)	(5.827492e-01 4.580483e-04 -2.461525e-01)	(7.940309e-03 1.076751e-05 -2.171585e-03)
125           	(5.929027e-01 4.814671e-04 -2.488831e-01)	(5.849748e-01 4.828025e-04 -2.466415e-01)	(7.927949e-03 -1.335463e-06 -2.241603e-03)
126           	(5.951177e-01 4.940192e-04 -2.483608e-01)	(5.872000e-01 5.073440e-04 -2.460573e-01)	(7.917717e-03 -1.332480e-05 -2.303492e-03)
127           	(5.971089e-01 5.125483e-04 -2.467663e-01)	(5.892001e-01 5.376874e-04 -2.444095e-01)	(7.908762e-03 -2.513905e-05 -2.356734e-03)
128           	(5.991267e-01 5.315860e-04 -2.441843e-01)	(5.912241e-01 5.684209e-04 -2.417837e-01)	(7.902551e-03 -3.683492e-05 -2.400609e-03)
129           	(6.009745e-01 5.549414e-04 -2.406595e-01)	(5.930743e-01 6.035631e-04 -2.382255e-01)	(7.900232e-03 -4.862171e-05 -2.434001e-03)
130           	(6.026318e-01 5.853937e-04 -2.362741e-01)	(5.947307e-01 6.461674e-04 -2.338176e-01)	(7.901068e-03 -6.077373e-05 -2.456515e-03)
131           	(6.040897e-01 6.248754e-04 -2.311314e-01)	(5.961873e-01 6.976156e-04 -2.286631e-01)	(7.902368e-03 -7.274020e-05 -2.468391e-03)
132           	(6.053546e-01 6.762992e-04 -2.253316e-01)	(5.974521e-01 7.599011e-04 -2.228611e-01)	(7.902515e-03 -8.360184e-05 -2.470500e-03)
133           	(6.064489e-01 7.390312e-04 -2.189585e-01)	(5.985476e-01 8.315005e-04 -2.164947e-01)	(7.901355e-03 -9.246924e-05 -2.463836e-03)
134           	(6.073972e-01 8.116005e-04 -2.120982e-01)	(5.994965e-01 9.104092e-04 -2.096506e-01)	(7.900679e-03 -9.880868e-05 -2.447607e-03)
135           	(6.082173e-01 8.907722e-04 -2.048305e-01)	(6.003173e-01 9.932387e-04 -2.024084e-01)	(7.900094e-03 -1.024665e-04 -2.422152e-03)
136           	(6.089372e-01 9.739401e-04 -1.971992e-01)	(6.010384e-01 1.077832e-03 -1.948105e-01)	(7.898853e-03 -1.038920e-04 -2.388680e-03)
137           	(6.095872e-01 1.057677e-03 -1.892376e-01)	(6.016903e-01 1.160457e-03 -1.868899e-01)	(7.896849e-03 -1.027799e-04 -2.347700e-03)
138           	(6.102059e-01 1.139602e-03 -1.809846e-01)	(6.023114e-01 1.238374e-03 -1.786848e-01)	(7.894534e-03 -9.877234e-05 -2.299847e-03)
139           	(6.107958e-01 1.213339e-03 -1.724626e-01)	(6.029037e-01 1.305114e-03 -1.702173e-01)	(7.892151e-03 -9.177507e-05 -2.245236e-03)
140           	(6.113888e-01 1.277661e-03 -1.636880e-01)	(6.034987e-01 1.359734e-03 -1.615033e-01)	(7.890077e-03 -8.207269e-05 -2.184750e-03)
141           	(6.120228e-01 1.333527e-03 -1.546885e-01)	(6.041350e-01 1.403654e-03 -1.525696e-01)	(7.887753e-03 -7.012712e-05 -2.118934e-03)
142           	(6.127246e-01 1.385383e-03 -1.454948e-01)	(6.048396e-01 1.442161e-03 -1.434466e-01)	(7.885058e-03 -5.677752e-05 -2.048190e-03)
143           	(6.135176e-01 1.439305e-03 -1.361322e-01)	(6.056344e-01 1.482198e-03 -1.341583e-01)	(7.883250e-03 -4.289274e-05 -1.973888e-03)
144           	(6.144223e-01 1.500002e-03 -1.266292e-01)	(6.065391e-01 1.529079e-03 -1.247315e-01)	(7.883247e-03 -2.907754e-05 -1.897692e-03)
145           	(6.154398e-01 1.569509e-03 -1.170184e-01)	(6.075548e-01 1.585313e-03 -1.151975e-01)	(7.885006e-03 -1.580424e-05 -1.820952e-03)
146           	(6.166029e-01 1.647833e-03 -1.073401e-01)	(6.087139e-01 1.651450e-03 -1.055960e-01)	(7.888954e-03 -3.616008e-06 -1.744113e-03)
147           	(6.179054e-01 1.733577e-03 -9.763307e-02)	(6.100115e-01 1.726586e-03 -9.596523e-02)	(7.893839e-03 6.990241e-06 -1.667844e-03)
148           	(6.193378e-01 1.824921e-03 -8.792884e-02)	(6.114376e-01 1.808905e-03 -8.633589e-02)	(7.900160e-03 1.601613e-05 -1.592953e-03)
149           	(6.208825e-01 1.919442e-03 -7.825534e-02)	(6.129739e-01 1.895609e-03 -7.673563e-02)	(7.908598e-03 2.383315e-05 -1.519705e-03)
150           	(6.225030e-01 2.013293e-03 -6.863523e-02)	(6.145841e-01 1.982603e-03 -6.718771e-02)	(7.918818e-03 3.069055e-05 -1.447520e-03)
151           	(6.241667e-01 2.104075e-03 -5.908428e-02)	(6.162365e-01 2.066984e-03 -5.770909e-02)	(7.930230e-03 3.709156e-05 -1.375190e-03)
152           	(6.258321e-01 2.188723e-03 -4.961677e-02)	(6.178893e-01 2.145980e-03 -4.831439e-02)	(7.942798e-03 4.274218e-05 -1.302378e-03)
153           	(6.274607e-01 2.264908e-03 -4.025153e-02)	(6.195047e-01 2.217506e-03 -3.902276e-02)	(7.956058e-03 4.740218e-05 -1.228761e-03)
154           	(6.290046e-01 2.332038e-03 -3.101915e-02)	(6.210347e-01 2.281244e-03 -2.986524e-02)	(7.969946e-03 5.079351e-05 -1.153916e-03)
155           	(6.304172e-01 2.391843e-03 -2.194917e-02)	(6.224329e-01 2.338659e-03 -2.087166e-02)	(7.984345e-03 5.318380e-05 -1.077510e-03)
156           	(6.316417e-01 2.446953e-03 -1.307023e-02)	(6.236425e-01 2.391963e-03 -1.207092e-02)	(7.999219e-03 5.499019e-05 -9.993138e-04)
157           	(6.326551e-01 2.499795e-03 -4.413339e-03)	(6.246410e-01 2.443128e-03 -3.493666e-03)	(8.014088e-03 5.666701e-05 -9.196738e-04)
158           	(6.334378e-01 2.553264e-03 3.992625e-03)	(6.254107e-01 2.494955e-03 4.832454e-03)	(8.027131e-03 5.830925e-05 -8.398290e-04)
159           	(6.339818e-01 2.609677e-03 1.211645e-02)	(6.259449e-01 2.549770e-03 1.287694e-02)	(8.036887e-03 5.990713e-05 -7.604950e-04)
160           	(6.342929e-01 2.670722e-03 1.993251e-02)	(6.262495e-01 2.609320e-03 2.061506e-02)	(8.043339e-03 6.140213e-05 -6.825490e-04)
161           	(6.343917e-01 2.738915e-03 2.741493e-02)	(6.263447e-01 2.676126e-03 2.802131e-02)	(8.046967e-03 6.278914e-05 -6.063805e-04)
162           	(6.343160e-01 2.816079e-03 3.454045e-02)	(6.262676e-01 2.752072e-03 3.507272e-02)	(8.048354e-03 6.400773e-05 -5.322736e-04)
163           	(6.341252e-01 2.902620e-03 4.130045e-02)	(6.260772e-01 2.837605e-03 4.176094e-02)	(8.048048e-03 6.501577e-05 -4.604897e-04)
164           	(6.338824e-01 2.999463e-03 4.769466e-02)	(6.258359e-01 2.933898e-03 4.808593e-02)	(8.046493e-03 6.556555e-05 -3.912737e-04)
165           	(6.333890e-01 3.107733e-03 5.387648e-02)	(6.253462e-01 3.042066e-03 5.420063e-02)	(8.042827e-03 6.566682e-05 -3.241519e-04)
166           	(6.332315e-01 3.220159e-03 5.945327e-02)	(6.251933e-01 3.154786e-03 5.971282e-02)	(8.038237e-03 6.537271e-05 -2.595578e-04)
167           	(6.330237e-01 3.339414e-03 6.477225e-02)	(6.249914e-01 3.274550e-03 6.496908e-02)	(8.032360e-03 6.486312e-05 -1.968300e-04)
168           	(6.330689e-01 3.458459e-03 6.961772e-02)	(6.250430e-01 3.394097e-03 6.975341e-02)	(8.025861e-03 6.436169e-05 -1.356963e-04)
169           	(6.334994e-01 3.567868e-03 7.395353e-02)	(6.254798e-01 3.503846e-03 7.402933e-02)	(8.019629e-03 6.402143e-05 -7.579272e-05)
170           	(6.341576e-01 3.666705e-03 7.788641e-02)	(6.261441e-01 3.602789e-03 7.790320e-02)	(8.013494e-03 6.391682e-05 -1.679048e-05)
171           	(6.350390e-01 3.751056e-03 8.142081e-02)	(6.270316e-01 3.686905e-03 8.137949e-02)	(8.007358e-03 6.415081e-05 4.131187e-05)
172           	(6.361289e-01 3.818040e-03 8.456252e-02)	(6.281276e-01 3.753187e-03 8.446403e-02)	(8.001334e-03 6.485291e-05 9.848133e-05)
173           	(6.374053e-01 3.866476e-03 8.731936e-02)	(6.294096e-01 3.800419e-03 8.716478e-02)	(7.995691e-03 6.605678e-05 1.545805e-04)
174           	(6.388338e-01 3.896585e-03 8.969728e-02)	(6.308431e-01 3.828865e-03 8.948786e-02)	(7.990750e-03 6.772056e-05 2.094241e-04)
175           	(6.402342e-01 3.907080e-03 9.168754e-02)	(6.322478e-01 3.837356e-03 9.142473e-02)	(7.986363e-03 6.972375e-05 2.628141e-04)
176           	(6.418828e-01 3.901627e-03 9.330678e-02)	(6.338996e-01 3.829653e-03 9.299192e-02)	(7.983248e-03 7.197471e-05 3.148567e-04)
177           	(6.434125e-01 3.876565e-03 9.453088e-02)	(6.354313e-01 3.802522e-03 9.416543e-02)	(7.981199e-03 7.404323e-05 3.654548e-04)
178           	(6.450212e-01 3.837505e-03 9.535860e-02)	(6.370407e-01 3.761928e-03 9.494423e-02)	(7.980518e-03 7.557668e-05 4.143638e-04)
179           	(6.465587e-01 3.787468e-03 9.577093e-02)	(6.385774e-01 3.710987e-03 9.530965e-02)	(7.981278e-03 7.648124e-05 4.612741e-04)
180           	(6.479569e-01 3.728838e-03 9.575548e-02)	(6.399735e-01 3.652002e-03 9.524981e-02)	(7.983410e-03 7.683552e-05 5.056673e-04)
181           	(6.491918e-01 3.666328e-03 9.530766e-02)	(6.412050e-01 3.589455e-03 9.476070e-02)	(7.986781e-03 7.687261e-05 5.469594e-04)
182           	(6.502273e-01 3.603281e-03 9.443104e-02)	(6.422362e-01 3.526650e-03 9.384649e-02)	(7.991052e-03 7.663040e-05 5.845524e-04)
183           	(6.510370e-01 3.542383e-03 9.314160e-02)	(6.430413e-01 3.466383e-03 9.252379e-02)	(7.995748e-03 7.600030e-05 6.178062e-04)
184           	(6.516156e-01 3.486603e-03 9.146018e-02)	(6.436152e-01 3.411628e-03 9.081394e-02)	(8.000439e-03 7.497500e-05 6.462383e-04)
185           	(6.519542e-01 3.434673e-03 8.941454e-02)	(6.439494e-01 3.361010e-03 8.874509e-02)	(8.004802e-03 7.366293e-05 6.694514e-04)
186           	(6.520555e-01 3.384299e-03 8.703251e-02)	(6.440471e-01 3.312149e-03 8.634536e-02)	(8.008469e-03 7.215036e-05 6.871418e-04)
187           	(6.519397e-01 3.333370e-03 8.434259e-02)	(6.439286e-01 3.262953e-03 8.364333e-02)	(8.011053e-03 7.041647e-05 6.992633e-04)
188           	(6.517614e-01 3.280726e-03 8.135661e-02)	(6.437488e-01 3.212250e-03 8.065069e-02)	(8.012544e-03 6.847565e-05 7.059201e-04)
189           	(6.513030e-01 3.218055e-03 7.811294e-02)	(6.432908e-01 3.151712e-03 7.740560e-02)	(8.012211e-03 6.634331e-05 7.073370e-04)
190           	(6.507118e-01 3.137893e-03 7.461213e-02)	(6.427020e-01 3.073925e-03 7.390840e-02)	(8.009838e-03 6.396792e-05 7.037285e-04)
191           	(6.500840e-01 3.046116e-03 7.086075e-02)	(6.420783e-01 2.984711e-03 7.016540e-02)	(8.005694e-03 6.140571e-05 6.953537e-04)
192           	(6.494711e-01 2.940081e-03 6.687585e-02)	(6.414709e-01 2.881369e-03 6.619315e-02)	(8.000124e-03 5.871169e-05 6.827016e-04)
193           	(6.489403e-01 2.819565e-03 6.267236e-02)	(6.409467e-01 2.763687e-03 6.200615e-02)	(7.993615e-03 5.587738e-05 6.662110e-04)
194           	(6.485451e-01 2.680777e-03 5.826106e-02)	(6.405584e-01 2.627819e-03 5.761466e-02)	(7.986711e-03 5.295785e-05 6.464010e-04)
195           	(6.482722e-01 2.531130e-03 5.365531e-02)	(6.402924e-01 2.481158e-03 5.303158e-02)	(7.979808e-03 4.997254e-05 6.237277e-04)
196           	(6.481395e-01 2.374744e-03 4.885938e-02)	(6.401662e-01 2.328070e-03 4.826096e-02)	(7.973328e-03 4.667367e-05 5.984145e-04)
197           	(6.481554e-01 2.215506e-03 4.388173e-02)	(6.401878e-01 2.172765e-03 4.331113e-02)	(7.967592e-03 4.274129e-05 5.706028e-04)
198           	(6.483177e-01 2.057110e-03 3.873401e-02)	(6.403550e-01 2.019339e-03 3.819360e-02)	(7.962703e-03 3.777099e-05 5.404157e-04)
199           	(6.486151e-01 1.903460e-03 3.343197e-02)	(6.406564e-01 1.871837e-03 3.292387e-02)	(7.958778e-03 3.162265e-05 5.080994e-04)
200           	(6.490281e-01 1.758885e-03 2.799254e-02)	(6.410722e-01 1.734638e-03 2.751877e-02)	(7.955866e-03 2.424663e-05 4.737705e-04)
201           	(6.494940e-01 1.633941e-03 2.244203e-02)	(6.415403e-01 1.618240e-03 2.200441e-02)	(7.953686e-03 1.570116e-05 4.376226e-04)
202           	(6.500259e-01 1.523616e-03 1.678732e-02)	(6.420736e-01 1.517385e-03 1.638775e-02)	(7.952255e-03 6.231551e-06 3.995644e-04)
203           	(6.507527e-01 1.423884e-03 1.100284e-02)	(6.428004e-01 1.427674e-03 1.064360e-02)	(7.952224e-03 -3.790511e-06 3.592445e-04)
204           	(6.513020e-01 1.353640e-03 5.181408e-03)	(6.433489e-01 1.367673e-03 4.864817e-03)	(7.953052e-03 -1.403293e-05 3.165904e-04)
205           	(6.520146e-01 1.309392e-03 -7.732598e-04)	(6.440592e-01 1.333518e-03 -1.044661e-03)	(7.955340e-03 -2.412666e-05 2.714007e-04)
206           	(6.524850e-01 1.279856e-03 -6.741306e-03)	(6.445266e-01 1.313694e-03 -6.965175e-03)	(7.958442e-03 -3.383785e-05 2.238691e-04)
207           	(6.530682e-01 1.277290e-03 -1.285861e-02)	(6.451055e-01 1.320189e-03 -1.303239e-02)	(7.962677e-03 -4.289858e-05 1.737744e-04)
208           	(6.535571e-01 1.284208e-03 -1.903250e-02)	(6.455892e-01 1.335489e-03 -1.915352e-02)	(7.967819e-03 -5.128139e-05 1.210175e-04)
209           	(6.538002e-01 1.286867e-03 -2.520773e-02)	(6.458273e-01 1.345958e-03 -2.527342e-02)	(7.972902e-03 -5.909110e-05 6.568184e-05)
210           	(6.539541e-01 1.292763e-03 -3.143067e-02)	(6.459763e-01 1.359124e-03 -3.143836e-02)	(7.977788e-03 -6.636074e-05 7.684941e-06)
211           	(6.540181e-01 1.300468e-03 -3.768344e-02)	(6.460356e-01 1.373650e-03 -3.763055e-02)	(7.982520e-03 -7.318188e-05 -5.288455e-05)
212           	(6.541716e-01 1.306582e-03 -4.398614e-02)	(6.461842e-01 1.386277e-03 -4.387012e-02)	(7.987369e-03 -7.969488e-05 -1.160195e-04)