# Moment      
# CofR        : (0.000000e+00 0.000000e+00 0.000000e+00)
#
# Time        	(total_x total_y total_z)	(pressure_x pressure_y pressure_z)	(viscous_x viscous_y viscous_z)
1             	(-8.590385e-04 5.884477e+00 6.246954e-04)	(-8.578908e-04 5.874608e+00 6.248445e-04)	(-1.147711e-06 9.868719e-03 -1.490347e-07)
2             	(1.841637e-03 4.670733e+00 -2.240065e-03)	(1.848778e-03 4.674969e+00 -2.207070e-03)	(-7.140337e-06 -4.235605e-03 -3.299494e-05)
3             	(4.977703e-03 1.723544e+00 3.241640e-03)	(5.003723e-03 1.733926e+00 3.370775e-03)	(-2.602070e-05 -1.038184e-02 -1.291354e-04)
4             	(5.939677e-03 -3.193088e+00 -1.715843e-02)	(5.969655e-03 -3.180951e+00 -1.710376e-02)	(-2.997791e-05 -1.213727e-02 -5.467620e-05)
5             	(2.701094e-03 -5.908537e+00 -1.322173e-02)	(2.707930e-03 -5.900891e+00 -1.311406e-02)	(-6.835732e-06 -7.646485e-03 -1.076630e-04)
6             	(-3.296762e-03 -5.889708e+00 -1.657187e-02)	(-3.297956e-03 -5.889415e+00 -1.641413e-02)	(1.194111e-06 -2.930427e-04 -1.577391e-04)
7             	(-6.917862e-03 -4.426763e+00 -1.520230e-02)	(-6.940108e-03 -4.435321e+00 -1.498621e-02)	(2.224571e-05 8.558550e-03 -2.160869e-04)
8             	(-9.822901e-03 -2.146619e+00 -3.687391e-02)	(-9.806207e-03 -2.159404e+00 -3.671349e-02)	(-1.669385e-05 1.278497e-02 -1.604124e-04)
9             	(-8.746812e-03 4.377644e-01 -5.928552e-02)	(-8.729900e-03 4.236451e-01 -5.922451e-02)	(-1.691200e-05 1.411933e-02 -6.101436e-05)
10            	(-4.477288e-03 2.062621e+00 -4.662766e-02)	(-4.398129e-03 2.050526e+00 -4.658951e-02)	(-7.915894e-05 1.209480e-02 -3.814729e-05)
11            	(-4.221666e-04 2.567823e+00 -2.504437e-02)	(-3.239252e-04 2.560655e+00 -2.508847e-02)	(-9.824137e-05 7.168565e-03 4.410120e-05)
12            	(8.430628e-04 2.234781e+00 -7.548954e-03)	(9.465351e-04 2.234102e+00 -7.580204e-03)	(-1.034723e-04 6.790635e-04 3.125025e-05)
13            	(1.482741e-03 1.513521e+00 5.805016e-04)	(1.590633e-03 1.518220e+00 5.787997e-04)	(-1.078924e-04 -4.699699e-03 1.701869e-06)
14            	(6.189187e-04 6.181753e-01 1.288032e-02)	(7.184511e-04 6.253477e-01 1.292624e-02)	(-9.953242e-05 -7.172440e-03 -4.592173e-05)
15            	(-1.592743e-03 -2.119591e-01 2.882171e-02)	(-1.509798e-03 -2.052306e-01 2.889641e-02)	(-8.294481e-05 -6.728520e-03 -7.469588e-05)
16            	(-2.744274e-03 -6.696680e-01 2.864568e-02)	(-2.682862e-03 -6.654388e-01 2.881686e-02)	(-6.141194e-05 -4.229153e-03 -1.711869e-04)
17            	(-3.117174e-03 -7.792206e-01 2.064010e-02)	(-3.079928e-03 -7.785679e-01 2.094768e-02)	(-3.724611e-05 -6.527221e-04 -3.075886e-04)
18            	(-2.685356e-03 -6.510254e-01 1.100396e-02)	(-2.667604e-03 -6.539658e-01 1.145160e-02)	(-1.775254e-05 2.940335e-03 -4.476458e-04)
19            	(-2.005150e-03 -3.951562e-01 -6.143498e-04)	(-1.988894e-03 -4.004560e-01 -2.180394e-04)	(-1.625650e-05 5.299855e-03 -3.963103e-04)
20            	(-1.212980e-03 -1.136341e-01 -1.236353e-02)	(-1.206613e-03 -1.195451e-01 -1.216137e-02)	(-6.367106e-06 5.910972e-03 -2.021641e-04)
21            	(-3.654084e-04 1.056599e-01 -1.973237e-02)	(-3.484387e-04 1.005959e-01 -1.969584e-02)	(-1.696971e-05 5.064033e-03 -3.652475e-05)
22            	(-7.901379e-05 2.289495e-01 -1.879324e-02)	(-6.096999e-05 2.253928e-01 -1.884577e-02)	(-1.804380e-05 3.556683e-03 5.252456e-05)
23            	(-1.575082e-04 2.562353e-01 -1.267483e-02)	(-1.359291e-04 2.542446e-01 -1.276117e-02)	(-2.157906e-05 1.990637e-03 8.633882e-05)
24            	(-4.349745e-04 2.200164e-01 -5.410210e-03)	(-4.162038e-04 2.192781e-01 -5.500187e-03)	(-1.877060e-05 7.382371e-04 8.997700e-05)
25            	(-7.056665e-04 1.511351e-01 5.507602e-04)	(-6.933836e-04 1.511844e-01 4.730882e-04)	(-1.228294e-05 -4.931138e-05 7.767203e-05)
26            	(-7.011185e-04 8.140827e-02 4.660367e-03)	(-6.892378e-04 8.176618e-02 4.615425e-03)	(-1.188074e-05 -3.579128e-04 4.494251e-05)
27            	(-4.264755e-04 2.985474e-02 6.607288e-03)	(-4.176888e-04 3.012565e-02 6.605789e-03)	(-8.786729e-06 -2.709055e-04 1.499414e-06)
28            	(1.118932e-05 2.149971e-03 6.331133e-03)	(1.386402e-05 2.064522e-03 6.372938e-03)	(-2.674694e-06 8.544839e-05 -4.180504e-05)
29            	(4.632896e-04 -3.058721e-03 4.547087e-03)	(4.597713e-04 -3.604671e-03 4.619635e-03)	(3.518357e-06 5.459502e-04 -7.254806e-05)
30            	(8.572077e-04 9.214938e-03 2.159314e-03)	(8.509306e-04 8.246286e-03 2.242864e-03)	(6.277119e-06 9.686522e-04 -8.354952e-05)
31            	(9.725689e-04 2.679055e-02 -1.403046e-04)	(9.669907e-04 2.554086e-02 -6.492003e-05)	(5.578272e-06 1.249691e-03 -7.538453e-05)
32            	(8.681073e-04 4.559434e-02 -1.716516e-03)	(8.661003e-04 4.423307e-02 -1.662624e-03)	(2.007020e-06 1.361264e-03 -5.389165e-05)
33            	(4.944159e-04 5.872416e-02 -2.477110e-03)	(4.967707e-04 5.739760e-02 -2.450865e-03)	(-2.354816e-06 1.326560e-03 -2.624476e-05)
34            	(-9.333238e-05 6.466010e-02 -2.505034e-03)	(-8.825184e-05 6.346278e-02 -2.504764e-03)	(-5.080543e-06 1.197323e-03 -2.694265e-07)
35            	(-8.018892e-04 6.462411e-02 -2.035873e-03)	(-7.958100e-04 6.359308e-02 -2.054288e-03)	(-6.079224e-06 1.031028e-03 1.841447e-05)
36            	(-1.512541e-03 6.088949e-02 -1.419138e-03)	(-1.507715e-03 6.001259e-02 -1.445874e-03)	(-4.825737e-06 8.769016e-04 2.673657e-05)
37            	(-1.962966e-03 5.632597e-02 -9.268202e-04)	(-1.960281e-03 5.556001e-02 -9.532282e-04)	(-2.684598e-06 7.659667e-04 2.640799e-05)
38            	(-2.379204e-03 5.454710e-02 -5.955145e-04)	(-2.379293e-03 5.383274e-02 -6.161563e-04)	(8.969561e-08 7.143557e-04 2.064177e-05)
39            	(-2.620358e-03 5.641173e-02 -7.336913e-04)	(-2.623879e-03 5.568710e-02 -7.438374e-04)	(3.520736e-06 7.246281e-04 1.014612e-05)
40            	(-2.708596e-03 5.731982e-02 -1.047320e-03)	(-2.715187e-03 5.654885e-02 -1.046755e-03)	(6.591103e-06 7.709693e-04 -5.642498e-07)
41            	(-2.698704e-03 6.366574e-02 -1.640962e-03)	(-2.707862e-03 6.282393e-02 -1.631430e-03)	(9.157627e-06 8.418045e-04 -9.531643e-06)
42            	(-2.693391e-03 6.817231e-02 -2.135368e-03)	(-2.704358e-03 6.725601e-02 -2.121108e-03)	(1.096717e-05 9.162962e-04 -1.425984e-05)
43            	(-2.644043e-03 7.684755e-02 -2.630873e-03)	(-2.655665e-03 7.585756e-02 -2.615593e-03)	(1.162263e-05 9.899952e-04 -1.527931e-05)
44            	(-2.672608e-03 8.114627e-02 -2.843065e-03)	(-2.684205e-03 8.009624e-02 -2.829321e-03)	(1.159699e-05 1.050029e-03 -1.374407e-05)
45            	(-2.656827e-03 8.744848e-02 -2.839826e-03)	(-2.667087e-03 8.634792e-02 -2.828980e-03)	(1.025964e-05 1.100562e-03 -1.084543e-05)
46            	(-2.674081e-03 8.899310e-02 -2.653960e-03)	(-2.682024e-03 8.785458e-02 -2.646304e-03)	(7.942640e-06 1.138523e-03 -7.656146e-06)
47            	(-2.637134e-03 8.949170e-02 -2.326532e-03)	(-2.641646e-03 8.832266e-02 -2.321456e-03)	(4.511761e-06 1.169037e-03 -5.075244e-06)
48            	(-2.495510e-03 8.969987e-02 -1.797941e-03)	(-2.495525e-03 8.849849e-02 -1.794260e-03)	(1.480509e-08 1.201380e-03 -3.680782e-06)
49            	(-2.360251e-03 8.851213e-02 -1.408900e-03)	(-2.355339e-03 8.727565e-02 -1.405932e-03)	(-4.912384e-06 1.236479e-03 -2.968372e-06)
50            	(-2.148174e-03 8.599659e-02 -1.012821e-03)	(-2.138989e-03 8.473049e-02 -1.010800e-03)	(-9.184214e-06 1.266097e-03 -2.021024e-06)
51            	(-1.972932e-03 8.396225e-02 -7.534275e-04)	(-1.959893e-03 8.266329e-02 -7.518871e-04)	(-1.303919e-05 1.298962e-03 -1.540399e-06)
52            	(-1.821946e-03 8.016946e-02 -5.881202e-04)	(-1.804984e-03 7.884783e-02 -5.877308e-04)	(-1.696162e-05 1.321635e-03 -3.893679e-07)
53            	(-1.715660e-03 7.774375e-02 -4.889737e-04)	(-1.694173e-03 7.639987e-02 -4.900530e-04)	(-2.148737e-05 1.343877e-03 1.079297e-06)
54            	(-1.673477e-03 7.336481e-02 -4.892947e-04)	(-1.647981e-03 7.201310e-02 -4.930491e-04)	(-2.549592e-05 1.351717e-03 3.754318e-06)
55            	(-1.641089e-03 6.940620e-02 -4.977759e-04)	(-1.612146e-03 6.805320e-02 -5.052886e-04)	(-2.894345e-05 1.352998e-03 7.512605e-06)
56            	(-1.597080e-03 6.712393e-02 -4.712189e-04)	(-1.565692e-03 6.577823e-02 -4.837638e-04)	(-3.138819e-05 1.345701e-03 1.254490e-05)
57            	(-1.476747e-03 6.346916e-02 -4.881055e-04)	(-1.444243e-03 6.214227e-02 -5.066797e-04)	(-3.250392e-05 1.326888e-03 1.857420e-05)
58            	(-1.329401e-03 6.150029e-02 -4.975158e-04)	(-1.297045e-03 6.019480e-02 -5.226448e-04)	(-3.235596e-05 1.305490e-03 2.512901e-05)
59            	(-1.128141e-03 5.968434e-02 -5.341372e-04)	(-1.096966e-03 5.840719e-02 -5.654894e-04)	(-3.117475e-05 1.277149e-03 3.135219e-05)
60            	(-8.770313e-04 5.808641e-02 -6.007676e-04)	(-8.471383e-04 5.684025e-02 -6.371016e-04)	(-2.989296e-05 1.246157e-03 3.633406e-05)
61            	(-3.962745e-04 5.619054e-02 -7.910696e-04)	(-3.684545e-04 5.497910e-02 -8.306244e-04)	(-2.782005e-05 1.211441e-03 3.955478e-05)
62            	(-1.094644e-04 5.554114e-02 -9.011010e-04)	(-8.407983e-05 5.436243e-02 -9.418591e-04)	(-2.538455e-05 1.178710e-03 4.075815e-05)
63            	(1.876279e-04 5.532555e-02 -1.040182e-03)	(2.099343e-04 5.418039e-02 -1.080346e-03)	(-2.230644e-05 1.145161e-03 4.016380e-05)
64            	(4.909891e-04 5.556284e-02 -1.214178e-03)	(5.101324e-04 5.444841e-02 -1.252234e-03)	(-1.914326e-05 1.114425e-03 3.805528e-05)
65            	(1.090384e-03 5.686528e-02 -1.628291e-03)	(1.105639e-03 5.577751e-02 -1.662794e-03)	(-1.525580e-05 1.087762e-03 3.450333e-05)
66            	(1.318910e-03 5.775642e-02 -1.819291e-03)	(1.329930e-03 5.669077e-02 -1.850142e-03)	(-1.101999e-05 1.065649e-03 3.085116e-05)
67            	(1.524528e-03 5.892735e-02 -2.028439e-03)	(1.530982e-03 5.788090e-02 -2.055790e-03)	(-6.454177e-06 1.046454e-03 2.735104e-05)
68            	(1.861412e-03 6.178159e-02 -2.468022e-03)	(1.862781e-03 6.074693e-02 -2.491470e-03)	(-1.368715e-06 1.034655e-03 2.344816e-05)
69            	(1.960514e-03 6.315035e-02 -2.657162e-03)	(1.956597e-03 6.212364e-02 -2.676654e-03)	(3.917142e-06 1.026710e-03 1.949132e-05)
70            	(2.016521e-03 6.463286e-02 -2.834514e-03)	(2.007373e-03 6.361193e-02 -2.849777e-03)	(9.147727e-06 1.020934e-03 1.526301e-05)
71            	(2.023227e-03 6.771706e-02 -3.138258e-03)	(2.009455e-03 6.669574e-02 -3.148851e-03)	(1.377189e-05 1.021328e-03 1.059250e-05)
72            	(1.991395e-03 6.907475e-02 -3.249567e-03)	(1.973232e-03 6.805121e-02 -3.255385e-03)	(1.816207e-05 1.023550e-03 5.818457e-06)
73            	(1.837855e-03 7.152975e-02 -3.401497e-03)	(1.815843e-03 7.050014e-02 -3.402227e-03)	(2.201178e-05 1.029608e-03 7.303419e-07)
74            	(1.742014e-03 7.256853e-02 -3.437466e-03)	(1.716486e-03 7.153189e-02 -3.433673e-03)	(2.552867e-05 1.036640e-03 -3.793818e-06)
75            	(1.511072e-03 7.426506e-02 -3.463126e-03)	(1.482919e-03 7.321962e-02 -3.454820e-03)	(2.815283e-05 1.045443e-03 -8.305873e-06)
76            	(1.386040e-03 7.494103e-02 -3.442514e-03)	(1.355777e-03 7.388709e-02 -3.429460e-03)	(3.026302e-05 1.053941e-03 -1.305377e-05)
77            	(1.145369e-03 7.589573e-02 -3.368563e-03)	(1.114034e-03 7.483420e-02 -3.350365e-03)	(3.133541e-05 1.061536e-03 -1.819839e-05)
78            	(9.567578e-04 7.639495e-02 -3.252713e-03)	(9.252156e-04 7.532724e-02 -3.229279e-03)	(3.154226e-05 1.067712e-03 -2.343453e-05)
79            	(8.359047e-04 7.649597e-02 -3.098227e-03)	(8.046704e-04 7.542441e-02 -3.069724e-03)	(3.123423e-05 1.071559e-03 -2.850259e-05)
80            	(7.963335e-04 7.639391e-02 -2.978735e-03)	(7.655365e-04 7.532042e-02 -2.945406e-03)	(3.079697e-05 1.073494e-03 -3.332843e-05)
81            	(8.124158e-04 7.596109e-02 -2.739112e-03)	(7.820110e-04 7.488820e-02 -2.701330e-03)	(3.040480e-05 1.072886e-03 -3.778249e-05)
82            	(8.997008e-04 7.542340e-02 -2.476490e-03)	(8.697591e-04 7.435229e-02 -2.434853e-03)	(2.994169e-05 1.071105e-03 -4.163651e-05)
83            	(1.042838e-03 7.486124e-02 -2.203095e-03)	(1.013444e-03 7.379338e-02 -2.158452e-03)	(2.939462e-05 1.067860e-03 -4.464294e-05)
84            	(1.221937e-03 7.433980e-02 -1.930026e-03)	(1.193090e-03 7.327632e-02 -1.883498e-03)	(2.884775e-05 1.063488e-03 -4.652744e-05)
85            	(1.412362e-03 7.391339e-02 -1.665070e-03)	(1.383742e-03 7.285488e-02 -1.617952e-03)	(2.861960e-05 1.058519e-03 -4.711848e-05)
86            	(1.595956e-03 7.358506e-02 -1.408190e-03)	(1.566969e-03 7.253158e-02 -1.361429e-03)	(2.898679e-05 1.053482e-03 -4.676092e-05)
87            	(1.744092e-03 7.338524e-02 -1.177449e-03)	(1.714096e-03 7.233659e-02 -1.131786e-03)	(2.999596e-05 1.048654e-03 -4.566289e-05)
88            	(1.836440e-03 7.332796e-02 -9.884380e-04)	(1.805042e-03 7.228357e-02 -9.444798e-04)	(3.139834e-05 1.044389e-03 -4.395819e-05)
89            	(1.856586e-03 7.341459e-02 -8.647114e-04)	(1.823531e-03 7.237328e-02 -8.228289e-04)	(3.305513e-05 1.041308e-03 -4.188249e-05)
90            	(1.800752e-03 7.363818e-02 -8.237800e-04)	(1.765907e-03 7.259851e-02 -7.843479e-04)	(3.484547e-05 1.039670e-03 -3.943212e-05)
91            	(1.676732e-03 7.397500e-02 -8.739754e-04)	(1.640309e-03 7.293532e-02 -8.370912e-04)	(3.642270e-05 1.039681e-03 -3.688422e-05)
92            	(1.503275e-03 7.438980e-02 -1.015248e-03)	(1.465833e-03 7.334840e-02 -9.805071e-04)	(3.744136e-05 1.041398e-03 -3.474045e-05)
93            	(1.302808e-03 7.483847e-02 -1.236513e-03)	(1.264833e-03 7.379391e-02 -1.203251e-03)	(3.797415e-05 1.044565e-03 -3.326244e-05)
94            	(1.095395e-03 7.527618e-02 -1.518794e-03)	(1.057056e-03 7.422739e-02 -1.486344e-03)	(3.833930e-05 1.048786e-03 -3.244970e-05)
95            	(8.968641e-04 7.566465e-02 -1.838110e-03)	(8.581190e-04 7.461124e-02 -1.805793e-03)	(3.874516e-05 1.053409e-03 -3.231695e-05)
96            	(7.062819e-04 7.604761e-02 -2.173712e-03)	(6.670579e-04 7.498944e-02 -2.140859e-03)	(3.922407e-05 1.058174e-03 -3.285325e-05)
97            	(5.355506e-04 7.630838e-02 -2.493947e-03)	(4.958394e-04 7.524541e-02 -2.460012e-03)	(3.971125e-05 1.062971e-03 -3.393500e-05)
98            	(3.733835e-04 7.641308e-02 -2.784336e-03)	(3.332449e-04 7.534567e-02 -2.749039e-03)	(4.013861e-05 1.067416e-03 -3.529725e-05)
99            	(2.147525e-04 7.636089e-02 -3.031050e-03)	(1.744880e-04 7.528957e-02 -2.994528e-03)	(4.026457e-05 1.071316e-03 -3.652248e-05)
100           	(5.437786e-05 7.617535e-02 -3.231331e-03)	(1.480258e-05 7.510079e-02 -3.193663e-03)	(3.957527e-05 1.074557e-03 -3.766722e-05)
101           	(-1.159785e-04 7.589729e-02 -3.387827e-03)	(-1.537293e-04 7.482054e-02 -3.349149e-03)	(3.775084e-05 1.076758e-03 -3.867816e-05)
102           	(-2.949583e-04 7.554830e-02 -3.499964e-03)	(-3.296073e-04 7.447045e-02 -3.460414e-03)	(3.464904e-05 1.077852e-03 -3.954999e-05)
103           	(-4.789339e-04 7.515379e-02 -3.567949e-03)	(-5.094116e-04 7.407602e-02 -3.527744e-03)	(3.047772e-05 1.077777e-03 -4.020485e-05)
104           	(-6.640739e-04 7.473779e-02 -3.590934e-03)	(-6.897617e-04 7.366134e-02 -3.550323e-03)	(2.568778e-05 1.076452e-03 -4.061120e-05)
105           	(-8.480259e-04 7.432207e-02 -3.570344e-03)	(-8.684625e-04 7.324793e-02 -3.529456e-03)	(2.043659e-05 1.074141e-03 -4.088799e-05)
106           	(-1.028899e-03 7.392369e-02 -3.506295e-03)	(-1.043748e-03 7.285254e-02 -3.465256e-03)	(1.484899e-05 1.071152e-03 -4.103893e-05)
107           	(-1.206521e-03 7.355648e-02 -3.400418e-03)	(-1.215630e-03 7.248879e-02 -3.359473e-03)	(9.108724e-06 1.067689e-03 -4.094466e-05)
108           	(-1.381888e-03 7.322995e-02 -3.254191e-03)	(-1.385438e-03 7.216621e-02 -3.213740e-03)	(3.549483e-06 1.063744e-03 -4.045170e-05)
109           	(-1.554975e-03 7.294976e-02 -3.069588e-03)	(-1.553395e-03 7.189050e-02 -3.029950e-03)	(-1.580101e-06 1.059261e-03 -3.963771e-05)
110           	(-1.725054e-03 7.271890e-02 -2.850838e-03)	(-1.719014e-03 7.166441e-02 -2.812397e-03)	(-6.039928e-06 1.054498e-03 -3.844086e-05)
111           	(-1.892787e-03 7.253759e-02 -2.606797e-03)	(-1.883085e-03 7.148803e-02 -2.569891e-03)	(-9.702355e-06 1.049563e-03 -3.690553e-05)
112           	(-2.060821e-03 7.240916e-02 -2.349181e-03)	(-2.048173e-03 7.136463e-02 -2.314003e-03)	(-1.264804e-05 1.044521e-03 -3.517842e-05)
113           	(-2.229902e-03 7.230674e-02 -2.091678e-03)	(-2.214865e-03 7.126743e-02 -2.058239e-03)	(-1.503678e-05 1.039304e-03 -3.343849e-05)
114           	(-2.404950e-03 7.225250e-02 -1.851700e-03)	(-2.387902e-03 7.121860e-02 -1.819986e-03)	(-1.704837e-05 1.033907e-03 -3.171427e-05)
115           	(-2.587745e-03 7.226887e-02 -1.643635e-03)	(-2.568917e-03 7.124035e-02 -1.613788e-03)	(-1.882826e-05 1.028518e-03 -2.984643e-05)
116           	(-2.783456e-03 7.229981e-02 -1.475421e-03)	(-2.762867e-03 7.127653e-02 -1.447743e-03)	(-2.058853e-05 1.023280e-03 -2.767845e-05)
117           	(-2.990230e-03 7.239673e-02 -1.356016e-03)	(-2.967691e-03 7.137830e-02 -1.330839e-03)	(-2.253882e-05 1.018425e-03 -2.517722e-05)
118           	(-3.211948e-03 7.252797e-02 -1.284712e-03)	(-3.187194e-03 7.151407e-02 -1.262381e-03)	(-2.475413e-05 1.013901e-03 -2.233097e-05)
119           	(-3.448011e-03 7.269054e-02 -1.256932e-03)	(-3.420769e-03 7.168081e-02 -1.237627e-03)	(-2.724194e-05 1.009737e-03 -1.930465e-05)
120           	(-3.695851e-03 7.288215e-02 -1.264506e-03)	(-3.666145e-03 7.187601e-02 -1.247967e-03)	(-2.970610e-05 1.006142e-03 -1.653853e-05)
121           	(-3.947173e-03 7.308628e-02 -1.298170e-03)	(-3.915121e-03 7.208319e-02 -1.284227e-03)	(-3.205221e-05 1.003099e-03 -1.394240e-05)
122           	(-4.196930e-03 7.331888e-02 -1.349391e-03)	(-4.162865e-03 7.231823e-02 -1.337593e-03)	(-3.406524e-05 1.000651e-03 -1.179762e-05)
123           	(-4.437975e-03 7.357231e-02 -1.410142e-03)	(-4.402357e-03 7.257350e-02 -1.399672e-03)	(-3.561744e-05 9.988064e-04 -1.046972e-05)
124           	(-4.665836e-03 7.384117e-02 -1.475367e-03)	(-4.629168e-03 7.284374e-02 -1.465444e-03)	(-3.666760e-05 9.974279e-04 -9.922728e-06)
125           	(-4.877595e-03 7.411832e-02 -1.539197e-03)	(-4.840139e-03 7.312194e-02 -1.529611e-03)	(-3.745570e-05 9.963728e-04 -9.586179e-06)
126           	(-5.070473e-03 7.439569e-02 -1.594212e-03)	(-5.032235e-03 7.340010e-02 -1.585059e-03)	(-3.823803e-05 9.955967e-04 -9.152483e-06)
127           	(-5.245193e-03 7.464511e-02 -1.635488e-03)	(-5.206137e-03 7.365011e-02 -1.626714e-03)	(-3.905596e-05 9.950051e-04 -8.773806e-06)
128           	(-5.397612e-03 7.489785e-02 -1.651606e-03)	(-5.357712e-03 7.390311e-02 -1.643026e-03)	(-3.989934e-05 9.947409e-04 -8.579519e-06)
129           	(-5.532995e-03 7.512928e-02 -1.638581e-03)	(-5.492280e-03 7.413438e-02 -1.629878e-03)	(-4.071500e-05 9.948960e-04 -8.703401e-06)
130           	(-5.655823e-03 7.533678e-02 -1.595036e-03)	(-5.614303e-03 7.434143e-02 -1.586054e-03)	(-4.152016e-05 9.953584e-04 -8.982032e-06)
131           	(-5.771883e-03 7.551929e-02 -1.522849e-03)	(-5.729375e-03 7.452350e-02 -1.513744e-03)	(-4.250845e-05 9.957914e-04 -9.104769e-06)
132           	(-5.887739e-03 7.567760e-02 -1.426905e-03)	(-5.843836e-03 7.468160e-02 -1.417881e-03)	(-4.390307e-05 9.960059e-04 -9.023238e-06)
133           	(-6.008562e-03 7.581453e-02 -1.312165e-03)	(-5.962965e-03 7.481853e-02 -1.303110e-03)	(-4.559706e-05 9.960012e-04 -9.054429e-06)
134           	(-6.136897e-03 7.593310e-02 -1.183840e-03)	(-6.089355e-03 7.493715e-02 -1.174610e-03)	(-4.754125e-05 9.959485e-04 -9.230247e-06)
135           	(-6.273012e-03 7.603553e-02 -1.047353e-03)	(-6.223252e-03 7.503974e-02 -1.037967e-03)	(-4.976028e-05 9.957911e-04 -9.385600e-06)
136           	(-6.416780e-03 7.612534e-02 -9.083954e-04)	(-6.364550e-03 7.512987e-02 -8.990490e-04)	(-5.222944e-05 9.954618e-04 -9.346431e-06)
137           	(-6.565162e-03 7.620632e-02 -7.732260e-04)	(-6.510232e-03 7.521137e-02 -7.642214e-04)	(-5.492976e-05 9.949506e-04 -9.004637e-06)
138           	(-6.712514e-03 7.628331e-02 -6.487924e-04)	(-6.654786e-03 7.528899e-02 -6.405352e-04)	(-5.772837e-05 9.943142e-04 -8.257212e-06)
139           	(-6.851214e-03 7.635661e-02 -5.406647e-04)	(-6.790721e-03 7.536303e-02 -5.336116e-04)	(-6.049333e-05 9.935819e-04 -7.053143e-06)
140           	(-6.975146e-03 7.643021e-02 -4.548160e-04)	(-6.912052e-03 7.543740e-02 -4.493812e-04)	(-6.309400e-05 9.928092e-04 -5.434747e-06)
141           	(-7.079460e-03 7.650887e-02 -3.977011e-04)	(-7.014004e-03 7.551695e-02 -3.943399e-04)	(-6.545695e-05 9.919214e-04 -3.361252e-06)
142           	(-7.161144e-03 7.659592e-02 -3.742248e-04)	(-7.093658e-03 7.560501e-02 -3.733191e-04)	(-6.748567e-05 9.909059e-04 -9.056665e-07)
143           	(-7.219129e-03 7.669431e-02 -3.876282e-04)	(-7.149976e-03 7.570436e-02 -3.893558e-04)	(-6.915319e-05 9.899568e-04 1.727599e-06)
144           	(-7.253761e-03 7.680668e-02 -4.386154e-04)	(-7.183291e-03 7.581745e-02 -4.429891e-04)	(-7.047009e-05 9.892281e-04 4.373688e-06)
145           	(-7.266025e-03 7.693317e-02 -5.256399e-04)	(-7.194564e-03 7.594442e-02 -5.326296e-04)	(-7.146027e-05 9.887492e-04 6.989726e-06)
146           	(-7.257470e-03 7.707789e-02 -6.474126e-04)	(-7.185425e-03 7.608930e-02 -6.568789e-04)	(-7.204558e-05 9.885864e-04 9.466286e-06)
147           	(-7.229834e-03 7.724013e-02 -7.996398e-04)	(-7.157506e-03 7.625151e-02 -8.115147e-04)	(-7.232768e-05 9.886242e-04 1.187484e-05)
148           	(-7.184153e-03 7.741871e-02 -9.772907e-04)	(-7.111704e-03 7.642977e-02 -9.914004e-04)	(-7.244927e-05 9.889384e-04 1.410977e-05)
149           	(-7.120445e-03 7.761141e-02 -1.174276e-03)	(-7.047970e-03 7.662180e-02 -1.190325e-03)	(-7.247555e-05 9.896065e-04 1.604904e-05)
150           	(-7.038111e-03 7.781364e-02 -1.384120e-03)	(-6.965732e-03 7.682308e-02 -1.401738e-03)	(-7.237905e-05 9.905507e-04 1.761807e-05)
151           	(-6.936678e-03 7.802127e-02 -1.599534e-03)	(-6.864551e-03 7.702962e-02 -1.618368e-03)	(-7.212776e-05 9.916474e-04 1.883388e-05)
152           	(-6.817056e-03 7.822912e-02 -1.813229e-03)	(-6.745360e-03 7.723623e-02 -1.833039e-03)	(-7.169609e-05 9.928845e-04 1.981061e-05)
153           	(-6.681312e-03 7.843234e-02 -2.017351e-03)	(-6.610247e-03 7.743815e-02 -2.038002e-03)	(-7.106516e-05 9.941859e-04 2.065093e-05)
154           	(-6.532090e-03 7.862492e-02 -2.203885e-03)	(-6.462022e-03 7.762940e-02 -2.225117e-03)	(-7.006829e-05 9.955158e-04 2.123220e-05)
155           	(-6.372320e-03 7.880103e-02 -2.365279e-03)	(-6.303684e-03 7.780417e-02 -2.386783e-03)	(-6.863575e-05 9.968535e-04 2.150370e-05)
156           	(-6.205607e-03 7.895357e-02 -2.495037e-03)	(-6.138838e-03 7.795538e-02 -2.516521e-03)	(-6.676852e-05 9.981932e-04 2.148462e-05)
157           	(-6.036079e-03 7.907968e-02 -2.590038e-03)	(-5.971519e-03 7.808019e-02 -2.611335e-03)	(-6.455990e-05 9.994884e-04 2.129692e-05)
158           	(-5.867968e-03 7.917693e-02 -2.650905e-03)	(-5.805846e-03 7.817640e-02 -2.672059e-03)	(-6.212170e-05 1.000538e-03 2.115429e-05)
159           	(-5.706130e-03 7.924434e-02 -2.680539e-03)	(-5.646626e-03 7.824317e-02 -2.701626e-03)	(-5.950391e-05 1.001169e-03 2.108712e-05)
160           	(-5.554370e-03 7.928264e-02 -2.683898e-03)	(-5.497655e-03 7.828125e-02 -2.704947e-03)	(-5.671461e-05 1.001389e-03 2.104926e-05)
161           	(-5.415203e-03 7.929441e-02 -2.666908e-03)	(-5.361475e-03 7.829315e-02 -2.687907e-03)	(-5.372813e-05 1.001261e-03 2.099899e-05)
162           	(-5.289826e-03 7.928438e-02 -2.636350e-03)	(-5.239323e-03 7.828351e-02 -2.657245e-03)	(-5.050273e-05 1.000863e-03 2.089563e-05)
163           	(-5.177967e-03 7.925998e-02 -2.599337e-03)	(-5.130954e-03 7.825971e-02 -2.620030e-03)	(-4.701302e-05 1.000271e-03 2.069295e-05)
164           	(-5.078436e-03 7.922910e-02 -2.562749e-03)	(-5.035205e-03 7.822954e-02 -2.583127e-03)	(-4.323041e-05 9.995532e-04 2.037848e-05)
165           	(-4.988030e-03 7.916694e-02 -2.530322e-03)	(-4.948812e-03 7.816833e-02 -2.550255e-03)	(-3.921787e-05 9.986043e-04 1.993307e-05)
166           	(-4.911130e-03 7.914679e-02 -2.509874e-03)	(-4.876090e-03 7.814922e-02 -2.529185e-03)	(-3.504071e-05 9.975755e-04 1.931083e-05)
167           	(-4.843472e-03 7.912039e-02 -2.504050e-03)	(-4.812718e-03 7.812398e-02 -2.522514e-03)	(-3.075434e-05 9.964116e-04 1.846435e-05)
168           	(-4.787221e-03 7.912562e-02 -2.511509e-03)	(-4.760781e-03 7.813044e-02 -2.528861e-03)	(-2.643965e-05 9.951835e-04 1.735181e-05)
169           	(-4.741567e-03 7.917902e-02 -2.531921e-03)	(-4.719409e-03 7.818504e-02 -2.547892e-03)	(-2.215744e-05 9.939869e-04 1.597080e-05)
170           	(-4.704809e-03 7.926087e-02 -2.563251e-03)	(-4.686834e-03 7.826807e-02 -2.577629e-03)	(-1.797553e-05 9.927942e-04 1.437791e-05)
171           	(-4.675531e-03 7.937061e-02 -2.601526e-03)	(-4.661541e-03 7.837902e-02 -2.614132e-03)	(-1.399032e-05 9.915896e-04 1.260581e-05)
172           	(-4.651984e-03 7.950640e-02 -2.641833e-03)	(-4.641717e-03 7.851602e-02 -2.652508e-03)	(-1.026700e-05 9.903815e-04 1.067423e-05)
173           	(-4.632398e-03 7.966546e-02 -2.679048e-03)	(-4.625540e-03 7.867626e-02 -2.687638e-03)	(-6.858360e-06 9.891972e-04 8.590128e-06)
174           	(-4.615046e-03 7.984352e-02 -2.708405e-03)	(-4.611253e-03 7.885545e-02 -2.714771e-03)	(-3.793607e-06 9.880691e-04 6.365942e-06)
175           	(-4.598111e-03 8.001802e-02 -2.723195e-03)	(-4.597049e-03 7.903104e-02 -2.727257e-03)	(-1.061694e-06 9.869753e-04 4.061441e-06)
176           	(-4.581367e-03 8.022351e-02 -2.722272e-03)	(-4.582781e-03 7.923751e-02 -2.723998e-03)	(1.413913e-06 9.859969e-04 1.725450e-06)
177           	(-4.563368e-03 8.041409e-02 -2.699205e-03)	(-4.567097e-03 7.942898e-02 -2.698615e-03)	(3.729043e-06 9.851069e-04 -5.907383e-07)
178           	(-4.545170e-03 8.061450e-02 -2.655547e-03)	(-4.551100e-03 7.963015e-02 -2.652699e-03)	(5.929491e-06 9.843470e-04 -2.847927e-06)
179           	(-4.527882e-03 8.080598e-02 -2.591315e-03)	(-4.535926e-03 7.982224e-02 -2.586351e-03)	(8.043824e-06 9.837435e-04 -4.964094e-06)
180           	(-4.512813e-03 8.098006e-02 -2.508287e-03)	(-4.522893e-03 7.999674e-02 -2.501412e-03)	(1.007931e-05 9.833129e-04 -6.874884e-06)
181           	(-4.501221e-03 8.113375e-02 -2.410454e-03)	(-4.513242e-03 8.015069e-02 -2.401912e-03)	(1.202090e-05 9.830632e-04 -8.541661e-06)
182           	(-4.493385e-03 8.126257e-02 -2.301699e-03)	(-4.507225e-03 8.027959e-02 -2.291743e-03)	(1.384038e-05 9.829729e-04 -9.955632e-06)
183           	(-4.488897e-03 8.136322e-02 -2.186426e-03)	(-4.504394e-03 8.038022e-02 -2.175310e-03)	(1.549709e-05 9.830032e-04 -1.111623e-05)
184           	(-4.486302e-03 8.143507e-02 -2.069416e-03)	(-4.503223e-03 8.045196e-02 -2.057344e-03)	(1.692122e-05 9.831152e-04 -1.207258e-05)
185           	(-4.482901e-03 8.147702e-02 -1.953873e-03)	(-4.500960e-03 8.049374e-02 -1.941016e-03)	(1.805895e-05 9.832813e-04 -1.285713e-05)
186           	(-4.475722e-03 8.148941e-02 -1.842361e-03)	(-4.494610e-03 8.050595e-02 -1.828865e-03)	(1.888830e-05 9.834648e-04 -1.349672e-05)
187           	(-4.462385e-03 8.147476e-02 -1.737245e-03)	(-4.481815e-03 8.049115e-02 -1.723225e-03)	(1.942987e-05 9.836154e-04 -1.402031e-05)
188           	(-4.441791e-03 8.145240e-02 -1.639656e-03)	(-4.461517e-03 8.046867e-02 -1.625234e-03)	(1.972659e-05 9.837241e-04 -1.442175e-05)
189           	(-4.413574e-03 8.139511e-02 -1.551517e-03)	(-4.433391e-03 8.041142e-02 -1.536830e-03)	(1.981669e-05 9.836931e-04 -1.468661e-05)
190           	(-4.377677e-03 8.132131e-02 -1.472867e-03)	(-4.397448e-03 8.033782e-02 -1.458079e-03)	(1.977019e-05 9.834883e-04 -1.478827e-05)
191           	(-4.336225e-03 8.124299e-02 -1.405572e-03)	(-4.355863e-03 8.025986e-02 -1.390867e-03)	(1.963868e-05 9.831351e-04 -1.470431e-05)
192           	(-4.291067e-03 8.116660e-02 -1.350936e-03)	(-4.310498e-03 8.018394e-02 -1.336506e-03)	(1.943098e-05 9.826631e-04 -1.442998e-05)
193           	(-4.244497e-03 8.110053e-02 -1.309233e-03)	(-4.263699e-03 8.011841e-02 -1.295265e-03)	(1.920217e-05 9.821197e-04 -1.396763e-05)
194           	(-4.198077e-03 8.105144e-02 -1.280264e-03)	(-4.217054e-03 8.006988e-02 -1.266931e-03)	(1.897713e-05 9.815595e-04 -1.333330e-05)
195           	(-4.154979e-03 8.101763e-02 -1.265500e-03)	(-4.173789e-03 8.003662e-02 -1.252946e-03)	(1.881027e-05 9.810149e-04 -1.255379e-05)
196           	(-4.117546e-03 8.100138e-02 -1.263856e-03)	(-4.136332e-03 8.002085e-02 -1.252231e-03)	(1.878610e-05 9.805317e-04 -1.162526e-05)
197           	(-4.087431e-03 8.100370e-02 -1.273539e-03)	(-4.106421e-03 8.002355e-02 -1.262998e-03)	(1.899037e-05 9.801456e-04 -1.054079e-05)
198           	(-4.065609e-03 8.102431e-02 -1.292538e-03)	(-4.085086e-03 8.004445e-02 -1.283231e-03)	(1.947720e-05 9.798667e-04 -9.306904e-06)
199           	(-4.052671e-03 8.106183e-02 -1.319184e-03)	(-4.072913e-03 8.008212e-02 -1.311263e-03)	(2.024214e-05 9.797053e-04 -7.920335e-06)
200           	(-4.049399e-03 8.111377e-02 -1.352025e-03)	(-4.070670e-03 8.013410e-02 -1.345661e-03)	(2.127090e-05 9.796667e-04 -6.364059e-06)
201           	(-4.058308e-03 8.117233e-02 -1.389600e-03)	(-4.080819e-03 8.019261e-02 -1.384908e-03)	(2.251161e-05 9.797148e-04 -4.691905e-06)
202           	(-4.079230e-03 8.123914e-02 -1.430139e-03)	(-4.103120e-03 8.025928e-02 -1.427207e-03)	(2.389071e-05 9.798586e-04 -2.932559e-06)
203           	(-4.111415e-03 8.133032e-02 -1.474533e-03)	(-4.136730e-03 8.035013e-02 -1.473392e-03)	(2.531563e-05 9.801919e-04 -1.141413e-06)
204           	(-4.156340e-03 8.139935e-02 -1.518603e-03)	(-4.183066e-03 8.041869e-02 -1.519234e-03)	(2.672517e-05 9.806540e-04 6.309752e-07)
205           	(-4.213819e-03 8.148881e-02 -1.566261e-03)	(-4.241889e-03 8.050748e-02 -1.568605e-03)	(2.806951e-05 9.813292e-04 2.343983e-06)
206           	(-4.282174e-03 8.154804e-02 -1.612957e-03)	(-4.311465e-03 8.056590e-02 -1.616878e-03)	(2.929188e-05 9.821383e-04 3.921461e-06)
207           	(-4.365008e-03 8.162139e-02 -1.661265e-03)	(-4.395355e-03 8.063827e-02 -1.666567e-03)	(3.034693e-05 9.831270e-04 5.301801e-06)
208           	(-4.460807e-03 8.168300e-02 -1.709023e-03)	(-4.492020e-03 8.069873e-02 -1.715467e-03)	(3.121328e-05 9.842699e-04 6.443495e-06)