# y+ ()       
# Time        	patch         	min           	max           	average       
500           	bottom	2.850377e-01	1.601685e+02	3.348674e+01
500           	cylinder	1.504115e-02	1.057438e+01	2.297690e+00
500           	frontAndBack	8.218572e+00	6.611928e+01	4.131678e+01
1000          	bottom	3.446905e-01	1.612309e+02	3.354843e+01
1000          	cylinder	9.040744e-03	1.074300e+01	2.279814e+00
1000          	frontAndBack	8.219123e+00	6.191237e+01	4.183384e+01
