# k  POINT_DATA 24316
# x  y  z  k
0 -0.000880994 1.49366e-08 0.000553562
0 0.000368999 0.00116943 0.000553508
0 0.00161903 1.55962e-08 0.000553452
1.0842e-19 -0.00213101 0.00116943 0.000553616
0 -0.000881008 0.00233888 0.000500153
0 0.00161899 0.00233888 0.000499625
2.1684e-19 0.002869 0.00116943 0.000553395
0 -0.00338099 1.48198e-08 0.000553664
-1.0842e-19 0.000368999 0.00356872 0.000445418
-8.27181e-25 -0.00338101 0.00233888 0.000500671
-3.30872e-24 0.00411903 1.63095e-08 0.000553329
-1.0842e-19 -0.002131 0.00356872 0.000446358
1.0842e-19 0.002869 0.00356872 0.000444456
0 0.00411899 0.00233888 0.000499085
0 -0.004631 0.00116943 0.000553712
0 -0.000881004 0.00479858 0.000390636
0 0.001619 0.00479858 0.000389732
1.0842e-19 0.005369 0.00116944 0.000553262
-1.0842e-19 -0.004631 0.00356872 0.000447301
-4.1359e-25 -0.003381 0.00479858 0.000391532
3.30872e-24 -0.00588099 1.48843e-08 0.000553762
0 0.000369 0.00608215 0.000334159
0 0.004119 0.00479858 0.000388819
-8.27181e-25 -0.00588101 0.00233888 0.000501181
1.0842e-19 -0.002131 0.00608215 0.000335011
-1.0842e-19 0.005369 0.00356873 0.000443489
3.30872e-24 0.00661901 1.59072e-08 0.000553197
0 0.002869 0.00608215 0.000333298
0 0.00661899 0.00233888 0.000498534
1.0842e-19 -0.007131 0.00116944 0.000553812
0 -0.000881001 0.00736572 0.000307518
0 0.001619 0.00736572 0.00030681
4.1359e-25 -0.005881 0.00479858 0.000392416
0 -0.004631 0.00608215 0.000335859
-1.0842e-19 0.00786899 0.00116944 0.000553132
-1.0842e-19 -0.007131 0.00356872 0.000448215
-2.06795e-25 -0.003381 0.00736572 0.000308223
1.0842e-19 0.005369 0.00608215 0.000332438
0 0.006619 0.00479858 0.000387896
0 -0.00838099 1.15109e-09 0.000553855
-1.03398e-25 0.004119 0.00736572 0.000306099
1.0842e-19 0.007869 0.00356873 0.000442501
0 0.000369 0.00865601 0.000280122
0 -0.008381 0.00233887 0.000501681
1.0842e-19 -0.002131 0.008656 0.000280683
0 0.009119 1.27743e-08 0.000553061
0 0.002869 0.008656 0.000279561
0 -0.007131 0.00608215 0.000336687
0 0.009119 0.00233887 0.000497974
1.03398e-25 -0.005881 0.00736572 0.00030892
0 -0.008381 0.00479858 0.000393289
1.0842e-19 -0.009631 0.00116943 0.000553898
1.0842e-19 -0.004631 0.00865601 0.00028124
0 0.006619 0.00736572 0.000305382
0 0.007869 0.00608215 0.000331561
2.58494e-26 -0.000881 0.00994629 0.000265227
0 0.001619 0.00994629 0.000264802
0 0.005369 0.00865601 0.000279
1.0842e-19 -0.009631 0.00356872 0.000449129
0 0.009119 0.00479858 0.000386962
0 0.010369 0.00116943 0.00055299
5.16988e-26 -0.003381 0.00994629 0.000265651
0 0.004119 0.00994629 0.000264378
-1.65436e-24 -0.010881 1.38009e-08 0.000553938
0 0.010369 0.00356872 0.000441509
0 -0.010881 0.00233886 0.000502173
0 -0.008381 0.00736572 0.000309613
2.1684e-19 -0.007131 0.00865601 0.000281793
0 0.000369 0.011217 0.000249987
1.0842e-19 -0.009631 0.00608215 0.000337524
-1.0842e-19 -0.002131 0.011217 0.000250274
0 -0.005881 0.00994629 0.000266073
1.0842e-19 0.002869 0.011217 0.000249695
0 0.011619 7.04485e-09 0.000552916
2.1684e-19 0.007869 0.008656 0.000278432
0 0.009119 0.00736572 0.000304662
0 0.011619 0.00233887 0.000497404
0 -0.010881 0.00479858 0.000394158
-2.58494e-26 0.006619 0.00994629 0.000263955
0 0.010369 0.00608215 0.000330687
1.0842e-19 -0.004631 0.011217 0.000250568
-1.0842e-19 -0.012131 0.00116943 0.000553978
-1.03398e-25 0.0119734 0.00233887 0.000497321
1.0842e-19 0.005369 0.011217 0.000249411
-1.03398e-25 0.0115493 0.00479858 0.000386046
5.16988e-26 0.011619 0.00465936 0.000392325
0 -0.000881 0.0124878 0.000239334
2.48154e-24 0.0125411 0 0.000552859
-2.8774e-21 0.011619 0.00479858 0.00038602
-3.23117e-27 0.001619 0.0124878 0.00023915
0 -0.012131 0.00356872 0.00045003
1.0842e-19 0.012869 0.00116944 0.000552843
-6.46235e-27 -0.003381 0.0124878 0.000239521
-2.1684e-19 -0.009631 0.00865601 0.000282347
-2.58494e-26 -0.008381 0.00994629 0.000266494
0 -0.010881 0.00736572 0.000310304
-3.23117e-27 0.004119 0.0124878 0.000238967
0 -0.007131 0.011217 0.000250854
1.0842e-19 0.012869 0.00356873 0.000440495
-3.30872e-24 -0.013381 1.32649e-08 0.000554014
0 0.0111883 0.00736572 0.000304065
0 0.009119 0.00994629 0.000263533
-1.0842e-19 0.010369 0.008656 0.000277873
1.0842e-19 -0.012131 0.00608215 0.000338345
0 -0.013381 0.00233886 0.000502656
0 0.007869 0.011217 0.000249129
-1.0842e-19 0.000369 0.0137433 0.000228542
-5.61059e-21 0.011619 0.00736572 0.00030394
0 -0.005881 0.0124878 0.000239708
0 -0.002131 0.0137433 0.000228623
1.0842e-19 0.002869 0.0137433 0.000228462
0 0.014119 1.20546e-08 0.00055276
0 0.006619 0.0124878 0.00023879
0 -0.013381 0.00479858 0.000395015
0 0.012869 0.00608215 0.0003298
3.82579e-20 0.014119 0.00233887 0.000496824
2.1684e-19 -0.004631 0.0137433 0.000228708
-2.1684e-19 -0.014631 0.00116943 0.00055405
0 -0.010881 0.00994629 0.000266916
-1.0842e-19 0.005369 0.0137433 0.000228387
-2.1684e-19 -0.009631 0.011217 0.000251145
-3.23117e-27 0.0109403 0.00994629 0.000263227
-1.0842e-19 -0.012131 0.008656 0.000282898
-6.61207e-20 0.014119 0.00479858 0.000385073
-4.03897e-28 -0.000881 0.0149988 0.000219056
0 -0.008381 0.0124878 0.000239895
-1.0842e-19 -0.014631 0.00356872 0.00045092
0 0.001619 0.0149988 0.000219051
0 -0.013381 0.00736572 0.000310989
1.0842e-19 0.010369 0.011217 0.000248849
-9.48666e-21 0.011619 0.00994629 0.000263113
0 -0.003381 0.0149988 0.000219063
-1.0842e-19 0.015369 0.00116944 0.000552677
0 0.009119 0.0124878 0.000238617
0 -0.007131 0.0137433 0.000228792
1.0842e-19 0.012869 0.008656 0.000277306
0 0.004119 0.0149988 0.00021905
1.0842e-19 0.015369 0.00356873 0.000439491
0 0.007869 0.0137433 0.000228319
-1.0842e-19 -0.014631 0.00608215 0.000339163
-1.65436e-24 -0.015881 1.31767e-08 0.000554086
-1.47912e-19 0.014119 0.00736572 0.000303216
8.27181e-25 -0.015881 0.00233887 0.000503129
0 -0.005881 0.0149988 0.000219074
1.0842e-19 0.000369 0.0162494 0.000209577
0 -0.002131 0.0162494 0.000209507
0 0.006619 0.0149988 0.000219056
-8.07794e-28 0.0107664 0.0124878 0.000238505
1.0842e-19 0.002869 0.0162494 0.000209647
0 -0.012131 0.011217 0.000251436
0 0.015369 0.00608215 0.000328918
3.23117e-27 -0.010881 0.0124878 0.000240085
-4.1359e-25 -0.015881 0.00479858 0.000395863
0 0.016619 1.58648e-08 0.000552592
-2.58494e-26 -0.013381 0.00994629 0.000267337
0 -0.009631 0.0137433 0.00022888
1.26893e-19 0.016619 0.00233888 0.000496235
0 -0.004631 0.0162494 0.000209442
1.0842e-19 -0.014631 0.008656 0.000283448
-7.31564e-20 0.011619 0.0124878 0.000238447
0 0.012869 0.011217 0.000248573
-1.0842e-19 0.005369 0.0162494 0.000209729
0 -0.017131 0.00116943 0.000554122
-4.03897e-28 -0.008381 0.0149988 0.000219086
0 0.010369 0.0137433 0.000228256
0 0.014119 0.00994629 0.000262694
-4.8371e-20 0.016619 0.00479858 0.000384119
1.0842e-19 -0.017131 0.00356872 0.000451794
0 -0.015881 0.00736572 0.00031167
-1.95638e-28 -0.000881 0.0174897 0.000200058
-1.91544e-20 -0.000881 0.0175 0.00019998
0 0.009119 0.0149988 0.000219066
0 0.001619 0.0174862 0.000200208
1.58401e-19 0.001619 0.0175 0.000200103
0 0.015369 0.008656 0.000276746
-1.0842e-19 -0.007131 0.0162494 0.00020938
1.57772e-30 -0.003381 0.0174919 0.000199922
-1.57772e-30 -0.003381 0.0175 0.00019986
0 0.017869 0.00116944 0.000552506
-7.88861e-29 0.004119 0.0174841 0.000200352
-1.91509e-20 0.004119 0.0175 0.000200232
1.0842e-19 0.007869 0.0162494 0.000209813
0 0.016619 0.00736572 0.000302489
0 -0.017131 0.00608215 0.000339972
1.0842e-19 0.017869 0.00356873 0.00043846
0 -0.013381 0.0124878 0.000240278
1.0842e-19 -0.012131 0.0137433 0.000228971
1.51461e-28 0.0106082 0.0149988 0.000219076
0 -0.018381 1.33764e-08 0.000554153
2.1684e-19 -0.014631 0.011217 0.00025173
1.02552e-28 -0.005881 0.0174922 0.000199804
0 -0.005881 0.0175 0.000199744
0 -0.018381 0.00233887 0.000503595
0 -0.010881 0.0149988 0.000219102
2.52435e-29 0.006619 0.0174831 0.000200495
5.84013e-20 0.006619 0.0175 0.000200368
-2.58494e-26 -0.015881 0.00994629 0.000267757
1.0842e-19 0.000369 0.01875 0.000190507
0 0.012869 0.0137433 0.000228195
1.55259e-19 0.014119 0.0124878 0.000238283
0 -0.002131 0.01875 0.000190331
-1.0842e-19 0.017869 0.00608215 0.000328021
0 -0.009631 0.0162494 0.00020932
0 0.002869 0.01875 0.000190685
-1.84089e-20 0.011619 0.0149988 0.000219082
4.1359e-25 -0.018381 0.00479858 0.000396704
1.0842e-19 0.015369 0.011217 0.000248302
0 0.019119 3.74342e-09 0.000552414
0 -0.017131 0.008656 0.000283994
-4.20555e-20 0.019119 0.00233888 0.000495628
-1.0842e-19 0.010369 0.0162494 0.000209902
0 -0.004631 0.01875 0.000190162
-4.97158e-20 0.016619 0.00994629 0.000262278
-2.05104e-28 -0.008381 0.017491 0.000199701
-1.91544e-20 -0.008381 0.0175 0.000199631
0 0.005369 0.01875 0.00019087
0 -0.019631 0.00116943 0.000554184
-5.36425e-29 0.009119 0.0174725 0.000200713
-7.01648e-20 0.019119 0.00479858 0.000383147
0 0.009119 0.0175 0.000200509
-1.03398e-25 -0.018381 0.00736572 0.000312348
-1.0842e-19 0.017869 0.008656 0.00027618
-1.0842e-19 -0.019631 0.00356872 0.00045266
-9.67102e-20 -0.000881 0.02 0.000180315
0 -0.007131 0.01875 0.000189994
-1.91544e-20 0.001619 0.02 0.000180527
0 -0.014631 0.0137433 0.000229067
0 -0.013381 0.0149988 0.000219123
0 -0.015881 0.0124878 0.000240473
0 -0.012131 0.0162494 0.000209264
8.08456e-20 -0.003381 0.02 0.000180107
0 0.007869 0.01875 0.000191062
1.0842e-19 0.020369 0.00116944 0.000552321
-1.91544e-20 0.004119 0.02 0.000180745
-1.0842e-19 -0.017131 0.011217 0.000252023
9.56159e-21 0.019119 0.00736572 0.000301757
0 -0.019631 0.00608215 0.000340782
-8.04638e-29 -0.010881 0.0174886 0.000199611
9.1454e-21 0.014119 0.0149988 0.000219104
-1.57772e-30 -0.010881 0.0175 0.000199522
0 0.015369 0.0137433 0.000228144
2.1684e-19 0.020369 0.00356873 0.000437408
0 0.012869 0.0162494 0.000209999
-2.4999e-20 0.016619 0.0124878 0.000238122
-9.67102e-20 -0.005881 0.02 0.000179903
0 -0.020881 1.38596e-08 0.000554214
0 -0.018381 0.00994629 0.000268178
5.84013e-20 0.011619 0.0175 0.000200656
0 -0.020881 0.00233887 0.000504053
-1.91544e-20 0.006619 0.02 0.000180969
0 -0.009631 0.01875 0.000189832
0 0.017869 0.011217 0.000248031
1.0842e-19 0.000369 0.02125 0.000170333
0 0.020369 0.00608215 0.000327118
1.0842e-19 -0.002131 0.02125 0.000170087
0 -0.020881 0.00479858 0.000397536
0 0.010369 0.01875 0.000191261
1.0842e-19 0.002869 0.02125 0.000170582
-1.0842e-19 -0.019631 0.00865601 0.000284541
9.52931e-20 0.019119 0.00994629 0.000261862
0 0.021619 1.55331e-08 0.000552225
-9.67102e-20 -0.008381 0.02 0.000179705
3.71297e-20 0.021619 0.00233888 0.000495009
0 -0.004631 0.02125 0.000169846
-4.03897e-28 -0.015881 0.0149988 0.000219147
2.1684e-19 -0.014631 0.0162494 0.000209216
-1.0842e-19 0.005369 0.02125 0.000170841
-1.0842e-19 -0.017131 0.0137433 0.000229164
-1.91544e-20 0.009119 0.02 0.000181199
-9.30856e-29 -0.013381 0.0174867 0.000199524
8.08456e-20 -0.013381 0.0175 0.000199419
0 0.020369 0.008656 0.000275617
-1.03398e-25 -0.020881 0.00736572 0.000313021
9.2789e-21 0.021619 0.00479858 0.000382163
0 -0.022131 0.00116943 0.000554244
-3.23117e-27 -0.018381 0.0124878 0.00024067
0 -0.012131 0.01875 0.000189675
-2.1684e-19 0.015369 0.0162494 0.0002101
-3.59904e-20 0.016619 0.0149988 0.000219131
-1.0842e-19 -0.007131 0.02125 0.000169611
0 -0.022131 0.00356872 0.000453517
1.58394e-19 0.014119 0.0175 0.00020081
3.28979e-21 -0.000881 0.0225 0.000159452
0 0.017869 0.0137433 0.000228093
3.28979e-21 0.001619 0.0225 0.000159722
0 -0.019631 0.011217 0.000252322
0 0.007869 0.02125 0.000171102
0 0.012869 0.01875 0.000191465
-9.67102e-20 -0.003381 0.0225 0.000159186
-9.67102e-20 -0.010881 0.02 0.000179512
1.36284e-19 0.019119 0.0124878 0.000237965
1.87088e-20 0.021619 0.00736572 0.000301018
8.08456e-20 0.004119 0.0225 0.000159998
-1.0842e-19 0.022869 0.00116944 0.000552128
0 -0.022131 0.00608215 0.000341576
0 -0.020881 0.00994629 0.000268599
1.58401e-19 0.011619 0.02 0.000181437
1.0842e-19 0.022869 0.00356873 0.000436348
1.0842e-19 0.020369 0.011217 0.000247765
-3.54881e-20 -0.005881 0.0225 0.000158926
1.0842e-19 -0.009631 0.02125 0.000169382
0 -0.023381 1.46374e-08 0.000554268
-1.91544e-20 0.006619 0.0225 0.00016028
0 -0.023381 0.00233887 0.000504503
-1.0842e-19 -0.017131 0.0162494 0.00020917
-4.41762e-29 -0.015881 0.0174862 0.000199432
-1.57772e-30 -0.015881 0.0175 0.000199322
1.0842e-19 0.010369 0.02125 0.000171372
2.1684e-19 0.022869 0.00608215 0.0003262
1.27227e-19 -0.018381 0.0149988 0.000219175
-1.0842e-19 0.000369 0.02375 0.00014884
0 -0.022131 0.008656 0.000285082
0 -0.014631 0.01875 0.000189526
-9.43109e-20 0.021619 0.00994629 0.000261444
0 -0.002131 0.02375 0.000148548
0 -0.023381 0.00479858 0.000398359
-1.65436e-24 0.0239179 0 0.000552042
0 0.002869 0.02375 0.000149134
0 -0.019631 0.0137433 0.000229265
3.28979e-21 -0.008381 0.0225 0.000158671
3.28979e-21 -0.013381 0.02 0.000179325
0 0.024119 1.35896e-09 0.000552026
0 0.024119 0.000600548 0.000537224
-1.9162e-20 0.016619 0.0175 0.00020097
2.1684e-19 0.017869 0.0162494 0.00021021
0 -0.004631 0.02375 0.000148263
5.27096e-20 0.024119 0.00233887 0.000494378
-1.0842e-19 0.015369 0.01875 0.000191677
-1.91544e-20 0.009119 0.0225 0.000160567
-1.09662e-20 0.019119 0.0149988 0.000219163
-3.23117e-27 -0.020881 0.0124878 0.00024087
0 0.005369 0.02375 0.000149437
0 0.022869 0.00865601 0.000275044
1.0842e-19 -0.012131 0.02125 0.000169157
5.84013e-20 0.014119 0.02 0.000181681
-1.03398e-25 -0.023381 0.00736572 0.00031369
2.1684e-19 0.020369 0.0137433 0.000228049
-1.02533e-20 0.024119 0.00479858 0.000381169
1.0842e-19 -0.024631 0.00116943 0.000554292
1.0842e-19 -0.007131 0.02375 0.000147983
0 -0.022131 0.011217 0.000252618
-1.0842e-19 0.012869 0.02125 0.000171649
0 -0.024631 0.00356872 0.000454365
-1.95256e-20 0.021619 0.0124878 0.00023781
-9.67102e-20 -0.010881 0.0225 0.000158424
-3.54881e-20 -0.000881 0.025 0.000137336
0 0.007869 0.02375 0.000149741
6.45119e-20 0.001619 0.025 0.000137627
5.89066e-21 0.024119 0.00736572 0.000300273
-3.54881e-20 -0.003381 0.025 0.000137049
8.08456e-20 0.011619 0.0225 0.000160862
3.28979e-21 0.004119 0.025 0.000137923
7.88861e-30 -0.018381 0.0174859 0.000199341
-1.0842e-19 -0.024631 0.00608215 0.000342369
-1.57772e-30 -0.018381 0.0175 0.000199229
0 0.025369 0.00116944 0.000551924
1.0842e-19 -0.017131 0.01875 0.000189379
0 -0.023381 0.00994629 0.000269019
0 0.022869 0.011217 0.000247497
0 -0.019631 0.0162494 0.000209129
-3.54881e-20 -0.015881 0.02 0.000179143
1.0842e-19 0.025369 0.00356872 0.000435269
1.0842e-19 -0.009631 0.02375 0.000147711
-9.67102e-20 -0.005881 0.025 0.000136768
0 -0.020881 0.0149988 0.000219207
0 -0.014631 0.02125 0.00016894
8.08456e-20 0.006619 0.025 0.000138223
0 -0.025881 1.52949e-08 0.000554315
-1.0842e-19 0.017869 0.01875 0.000191894
-1.0842e-19 0.010369 0.02375 0.000150054
-1.91647e-20 0.019119 0.0175 0.000201136
-8.27181e-25 -0.025881 0.00233887 0.000504945
-1.91544e-20 0.016619 0.02 0.000181932
-1.0842e-19 -0.022131 0.0137433 0.000229369
-1.0842e-19 0.020369 0.0162494 0.000210323
0 0.025369 0.00608215 0.000325282
-8.6221e-20 0.024119 0.00994629 0.000261027
0 -0.024631 0.008656 0.000285628
6.45119e-20 -0.013381 0.0225 0.000158183
0 0.015369 0.02125 0.000171932
0 0.000369 0.02625 0.000126123
-7.65609e-20 0.021619 0.0149988 0.0002192
-4.1359e-25 -0.025881 0.00479858 0.000399174
0 -0.002131 0.02625 0.000125835
-1.91544e-20 -0.008381 0.025 0.000136492
-1.0842e-19 0.002869 0.02625 0.000126412
3.23117e-27 -0.023381 0.0124878 0.000241072
5.84013e-20 0.014119 0.0225 0.000161163
8.08456e-20 0.009119 0.025 0.000138528
0 0.026619 5.14573e-09 0.00055182
1.0842e-19 -0.004631 0.02625 0.000125551
0 -0.012131 0.02375 0.000147445
-2.1684e-19 0.022869 0.0137433 0.000228008
4.1359e-25 0.026619 0.00201023 0.000501899
-6.27304e-20 0.026619 0.00233887 0.000493738
-1.0842e-19 0.005369 0.02625 0.00012671
1.0842e-19 0.025369 0.008656 0.000274475
0 -0.025881 0.00736572 0.000314352
-1.0842e-19 0.012869 0.02375 0.000150374
2.58949e-20 0.026619 0.00479858 0.000380166
-1.0842e-19 -0.024631 0.011217 0.000252917
1.0842e-19 -0.019631 0.01875 0.000189239
-1.0842e-19 -0.027131 0.00116943 0.000554339
4.82422e-21 0.024119 0.0124878 0.00023766
3.28979e-21 -0.018381 0.02 0.000178967
0 -0.007131 0.02625 0.000125274
1.89327e-29 -0.020881 0.0174848 0.000199262
-1.57772e-30 -0.020881 0.0175 0.00019914
-1.91544e-20 -0.010881 0.025 0.000136221
-1.0842e-19 -0.017131 0.02125 0.000168727
0 -0.027131 0.00356872 0.000455203
-1.0842e-19 0.007869 0.02625 0.000127007
1.0842e-19 -0.022131 0.0162494 0.000209092
3.28979e-21 -0.000881 0.0275 0.000114316
9.78188e-29 -0.000881 0.0275113 0.000114212
-3.54881e-20 -0.015881 0.0225 0.000157948
-3.54838e-20 0.001619 0.0275 0.000114582
2.52435e-29 0.001619 0.0275132 0.000114461
-1.91544e-20 0.011619 0.025 0.000138839
3.84592e-20 0.026619 0.00736572 0.000299526
-1.91544e-20 0.019119 0.02 0.00018219
-1.0842e-19 0.020369 0.01875 0.000192119
-9.67102e-20 -0.003381 0.0275 0.000114053
-8.99301e-29 -0.003381 0.0275133 0.000113931
0 -0.025881 0.00994629 0.000269437
0 0.025369 0.011217 0.000247237
0 0.0276607 0.00233887 0.000493469
0 0.017869 0.02125 0.000172223
0 -0.023381 0.0149988 0.000219243
-2.1684e-19 -0.027131 0.00608215 0.00034315
3.28979e-21 0.004119 0.0275 0.000114852
8.08353e-20 0.021619 0.0175 0.000201308
-1.13596e-28 0.004119 0.0275183 0.000114684
1.0842e-19 0.027869 0.00116944 0.000551716
1.0842e-19 -0.014631 0.02375 0.000147188
0 -0.009631 0.02625 0.000125
1.58401e-19 0.016619 0.0225 0.000161471
0 0.022869 0.0162494 0.000210443
-1.0842e-19 0.027869 0.00356872 0.000434182
-1.91544e-20 -0.005881 0.0275 0.000113794
3.15544e-30 -0.005881 0.0275304 0.000113515
2.1684e-19 -0.024631 0.0137433 0.000229478
0 0.010369 0.02625 0.000127311
-1.91519e-20 0.006619 0.0275 0.000115126
-1.0842e-19 0.015369 0.02375 0.000150699
-8.36193e-29 0.006619 0.0275228 0.000114916
3.28979e-21 -0.013381 0.025 0.000135955
0 -0.028381 1.56584e-08 0.000554358
8.93301e-20 0.024119 0.0149988 0.000219244
1.20342e-20 0.026619 0.00994629 0.000260611
-8.27181e-25 -0.028381 0.00233888 0.000505379
0 -0.027131 0.008656 0.000286159
0 0.027869 0.00608215 0.000324355
-1.91544e-20 0.014119 0.025 0.000139156
0 -0.025881 0.0124878 0.000241275
5.84013e-20 -0.008381 0.0275 0.000113539
0 0.000369 0.0287506 0.000102773
2.06795e-25 -0.028381 0.00479858 0.00039998
1.0842e-19 -0.002131 0.0287506 0.000102531
-1.0842e-19 0.025369 0.0137433 0.000227975
-1.0842e-19 0.002869 0.0287506 0.000103017
-9.67102e-20 -0.020881 0.02 0.000178797
-1.0842e-19 -0.012131 0.02625 0.000124728
1.0842e-19 -0.019631 0.02125 0.000168523
5.84013e-20 0.009119 0.0275 0.000115404
1.02552e-28 0.009119 0.027519 0.000115228
1.0842e-19 -0.022131 0.01875 0.000189104
3.28979e-21 -0.018381 0.0225 0.000157719
0 0.029119 8.18434e-09 0.000551607
1.0842e-19 -0.004631 0.0287506 0.000102292
1.0842e-19 0.027869 0.008656 0.000273902
7.88861e-30 -0.023381 0.017482 0.000199202
8.08456e-20 -0.023381 0.0175 0.000199057
0 0.029119 0.00233887 0.000493093
-1.0842e-19 0.012869 0.02625 0.000127618
-2.1684e-19 0.005369 0.0287506 0.000103267
0 -0.017131 0.02375 0.000146936
0 -0.028381 0.00736572 0.000315011
-1.0842e-19 -0.027131 0.011217 0.000253214
-1.57842e-20 0.026619 0.0124878 0.000237513
-1.0842e-19 0.020369 0.02125 0.000172522
-1.91544e-20 0.021619 0.02 0.000182454
0 0.0290936 0.00479858 0.000379171
2.1684e-19 -0.024631 0.0162494 0.000209061
-1.61559e-27 0.029119 0.00479858 0.000379161
5.84013e-20 0.019119 0.0225 0.000161784
0 0.029119 0.00500016 0.000372849
0 0.022869 0.01875 0.000192348
1.58401e-19 -0.010881 0.0275 0.000113285
3.28979e-21 -0.015881 0.025 0.000135694
1.0842e-19 -0.007131 0.0287506 0.000102056
0 -0.029631 0.00116943 0.000554377
1.0842e-19 0.017869 0.02375 0.000151028
4.20614e-20 0.024119 0.0175 0.000201487
1.0842e-19 0.007869 0.0287506 0.000103518
-2.1684e-19 -0.029631 0.00356872 0.000456028
1.58405e-19 0.011619 0.0275 0.000115685
9.78188e-29 0.011619 0.0275129 0.000115566
0 -0.025881 0.0149988 0.000219282
0 -0.000881 0.0300012 9.13119e-05
-1.91544e-20 0.016619 0.025 0.000139477
0 0.029119 0.00736572 0.000298779
-1.0842e-19 0.027869 0.011217 0.000246974
0 0.001619 0.0300012 9.15374e-05
1.0842e-19 -0.014631 0.02625 0.000124459
0 -0.028381 0.00994629 0.000269854
0 0.025369 0.0162494 0.000210571
0 -0.003381 0.0300012 9.10886e-05
1.0842e-19 -0.029631 0.00608215 0.00034393
0 0.004119 0.0300012 9.17655e-05
0 -0.009631 0.0287506 0.000101822
0 0.030369 0.00116944 0.000551498
1.0842e-19 -0.027131 0.0137433 0.000229587
-2.1684e-19 0.015369 0.02625 0.000127932
-1.39188e-19 0.026619 0.0149988 0.000219292
-1.0842e-19 0.010369 0.0287506 0.000103775
-1.00974e-28 -0.005881 0.0300012 9.08679e-05
0 0.030369 0.00356872 0.000433101
8.08369e-20 -0.013381 0.0275 0.000113033
0 -0.022131 0.02125 0.000168321
-3.54881e-20 -0.020881 0.0225 0.000157497
0 0.006619 0.0300012 9.19966e-05
-9.67102e-20 -0.023381 0.02 0.000178631
0 0.029119 0.00994629 0.000260198
1.0842e-19 -0.019631 0.02375 0.000146692
-5.04871e-29 -0.00714811 0.0300012 9.07572e-05
-1.0842e-19 -0.029631 0.008656 0.000286699
0 -0.030881 1.59506e-08 0.000554395
-1.91544e-20 0.014119 0.0275 0.000115971
-9.46633e-30 0.014119 0.0275094 0.000115883
1.0842e-19 -0.024631 0.01875 0.000188975
-8.27181e-25 -0.030881 0.00233888 0.000505805
0 0.030369 0.00608215 0.000323432
1.61559e-27 -0.028381 0.0124878 0.00024148
8.08456e-20 -0.018381 0.025 0.00013544
-1.0842e-19 0.027869 0.0137433 0.000227943
-6.0863e-20 -0.008381 0.0300012 9.06495e-05
-4.15987e-20 0.021619 0.0225 0.000162104
2.1684e-19 -0.012131 0.0287506 0.000101587
-1.0842e-19 0.022869 0.02125 0.000172826
-1.13596e-28 -0.025881 0.0174762 0.000199171
0 -0.025881 0.0175 0.000198978
0 -0.030881 0.00479858 0.000400779
2.1684e-19 0.000369 0.0312567 8.00603e-05
0 0.020369 0.02375 0.000151365
1.0842e-19 -0.002131 0.0312567 7.98529e-05
-1.91544e-20 0.024119 0.02 0.000182726
-1.29247e-26 0.0304635 0.00736572 0.000298377
1.0842e-19 -0.017131 0.02625 0.000124195
2.01948e-28 0.009119 0.0300012 9.22301e-05
1.0842e-19 0.002869 0.0312567 8.02684e-05
-1.91544e-20 0.019119 0.025 0.000139802
-1.0842e-19 0.012869 0.0287506 0.000104034
0 0.025369 0.01875 0.000192589
-1.0842e-19 0.030369 0.008656 0.000273336
0 -0.004631 0.0312567 7.96488e-05
0 0.031619 9.52459e-09 0.000551389
1.0842e-19 -0.027131 0.0162494 0.000209031
-1.0842e-19 -0.029631 0.011217 0.000253516
6.30968e-20 0.029119 0.0124878 0.00023737
-3.0262e-20 0.031619 0.00233887 0.000492442
1.0842e-19 0.005369 0.0312567 8.04793e-05
0 -0.030881 0.00736572 0.000315667
1.0842e-19 0.017869 0.02625 0.000128248
8.08456e-20 -0.015881 0.0275 0.000112783
1.42061e-19 0.026619 0.0175 0.000201673
5.93746e-20 -0.010881 0.0300012 9.04323e-05
1.15346e-19 0.031619 0.00479858 0.000378152
0 -0.007131 0.0312567 7.94454e-05
0 -0.028381 0.0149988 0.000219325
8.08517e-20 0.016619 0.0275 0.00011626
-1.87749e-28 0.016619 0.0275078 0.000116187
1.0842e-19 -0.032131 0.00116943 0.000554413
4.03897e-28 0.011619 0.0300012 9.24654e-05
-2.1684e-19 0.007869 0.0312567 8.06917e-05
-1.0842e-19 -0.014631 0.0287506 0.000101354
0 0.027869 0.0162494 0.000210702
-2.1684e-19 -0.032131 0.00356873 0.000456845
-1.0842e-19 0.030369 0.011217 0.000246721
0 -0.030881 0.00994629 0.000270273
3.28979e-21 -0.023381 0.0225 0.00015728
0 -0.022131 0.02375 0.000146453
1.29247e-26 0.031619 0.00736572 0.000298032
0 -0.000881 0.0325122 6.9136e-05
0 -0.024631 0.02125 0.000168126
0 0.001619 0.0325122 6.93307e-05
-9.67102e-20 -0.020881 0.025 0.000135192
1.0842e-19 0.015369 0.0287506 0.000104295
1.0842e-19 -0.029631 0.0137433 0.000229702
-3.23117e-27 -0.003381 0.0325122 6.89431e-05
1.61559e-27 0.0311463 0.00994629 0.000259867
2.1684e-19 -0.032131 0.00608215 0.000344702
0 -0.009631 0.0312567 7.92454e-05
8.08456e-20 -0.025881 0.02 0.00017847
-1.01806e-19 0.029119 0.0149988 0.000219347
9.60722e-20 0.004119 0.0325122 6.95274e-05
0 -0.019631 0.02625 0.000123938
6.34921e-20 -0.013381 0.0300012 9.02157e-05
1.0842e-19 0.032869 0.00116944 0.00055128
1.0842e-19 0.010369 0.0312567 8.09051e-05
0 0.022869 0.02375 0.000151704
0 -0.027131 0.01875 0.000188848
5.84013e-20 0.024119 0.0225 0.00016243
0 -0.005881 0.0325122 6.87519e-05
5.84013e-20 0.021619 0.025 0.00014013
1.0842e-19 0.032869 0.00356872 0.000432003
-1.91544e-20 -0.018381 0.0275 0.000112536
0 0.025369 0.02125 0.000173141
-1.61559e-27 0.031619 0.00994629 0.000259789
0 0.014119 0.0300012 9.27028e-05
-3.23117e-27 0.006619 0.0325122 6.97255e-05
0 0.020369 0.02625 0.000128566
0 -0.032131 0.008656 0.000287234
-1.91544e-20 0.026619 0.02 0.000183006
8.07794e-28 -0.00720349 0.0325122 6.86517e-05
0 -0.030881 0.0124878 0.000241689
8.99301e-29 -0.028381 0.0174649 0.000199189
-1.0842e-19 0.030369 0.0137433 0.00022792
5.84013e-20 -0.028381 0.0175 0.000198903
0 -0.033381 1.52622e-08 0.000554429
-1.0842e-19 0.032869 0.00608215 0.000322499
0 -0.033381 0.00233888 0.000506224
-1.0842e-19 -0.017131 0.0287506 0.000101121
8.08456e-20 0.019119 0.0275 0.000116553
-2.12992e-28 0.019119 0.0275072 0.000116486
-2.1684e-19 -0.012131 0.0312567 7.90458e-05
4.93633e-20 -0.008381 0.0325122 6.85625e-05
-1.0842e-19 0.027869 0.01875 0.000192832
0 -0.033381 0.00479858 0.000401568
0 0.009119 0.0325122 6.99244e-05
0 0.000369 0.0337829 5.83617e-05
-1.0842e-19 -0.029631 0.0162494 0.000209009
1.0842e-19 0.012869 0.0312567 8.11176e-05
0 -0.002131 0.033783 5.81805e-05
1.0842e-19 0.017869 0.0287506 0.000104562
0 0.002869 0.033783 5.85439e-05
0 0.0315579 0.0124878 0.000237238
1.94366e-20 -0.015881 0.0300012 8.99995e-05
-1.91558e-20 0.029119 0.0175 0.000201866
-2.1684e-19 0.032869 0.008656 0.000272769
0 0.031619 0.0124878 0.000237235
0 -0.032131 0.011217 0.000253818
0 -0.004631 0.0337829 5.80016e-05
0 0.034119 8.73562e-09 0.000551165
9.41463e-20 -0.033381 0.00736572 0.00031632
2.06795e-25 0.034119 0.00233887 0.000491786
0 0.005369 0.033783 5.87291e-05
1.0842e-19 -0.024631 0.02375 0.00014622
-9.67102e-20 -0.023381 0.025 0.00013495
7.66421e-20 -0.010881 0.0325122 6.83746e-05
3.28979e-21 -0.025881 0.0225 0.000157068
0 0.016619 0.0300012 9.29431e-05
0 -0.030881 0.0149988 0.000219372
0 -0.022131 0.02625 0.000123687
1.0842e-19 0.030369 0.0162494 0.000210844
-1.03398e-25 0.034119 0.00479858 0.000377139
1.0842e-19 -0.027131 0.02125 0.000167934
1.0842e-19 -0.014631 0.0312567 7.88467e-05
3.23117e-27 0.011619 0.0325122 7.01233e-05
-1.0842e-19 -0.007131 0.0337829 5.78235e-05
-1.91544e-20 -0.020881 0.0275 0.000112292
0 -0.034631 0.00116944 0.000554445
-2.1684e-19 0.007869 0.0337829 5.89132e-05
2.52435e-29 0.031619 0.014295 0.000224405
1.58401e-19 -0.028381 0.02 0.000178315
-1.0842e-19 0.032869 0.011217 0.00024647
5.84013e-20 0.024119 0.025 0.000140463
0 0.025369 0.02375 0.000152051
-1.0842e-19 -0.019631 0.0287506 0.000100887
-2.1684e-19 -0.034631 0.00356872 0.000457648
0 0.022869 0.02625 0.000128886
1.0842e-19 0.015369 0.0312567 8.13341e-05
6.46235e-27 -0.033381 0.00994629 0.000270692
-1.91544e-20 0.026619 0.0225 0.000162764
2.58494e-26 0.034119 0.00736572 0.000297286
1.0842e-19 -0.032131 0.0137433 0.000229818
5.84013e-20 0.021619 0.0275 0.000116846
-1.37262e-28 0.021619 0.0275071 0.00011678
0 0.031619 0.0149988 0.000219409
0 0.027869 0.02125 0.000173463
-2.58494e-26 -0.000881 0.0350537 4.81412e-05
0 -0.029631 0.01875 0.000188727
2.58494e-26 0.001619 0.0350537 4.83047e-05
1.0842e-19 -0.009631 0.0337829 5.76475e-05
2.36524e-20 -0.013381 0.0325122 6.81874e-05
-1.0842e-19 -0.034631 0.00608215 0.000345467
2.52435e-29 -0.0318113 0.0149988 0.00021939
1.39746e-19 -0.018381 0.0300012 8.97823e-05
0 -0.003381 0.0350537 4.7979e-05
-1.0842e-19 0.020369 0.0287506 0.00010483
0 0.004119 0.0350537 4.84699e-05
3.28979e-21 0.029119 0.02 0.000183295
2.1684e-19 0.010369 0.0337829 5.90986e-05
-1.26218e-29 0.0320435 0.0149988 0.000219421
-2.1684e-19 0.035369 0.00116944 0.00055105
0 0.014119 0.0325122 7.03231e-05
-1.57772e-30 -0.030881 0.0174151 0.00019953
0 -0.030881 0.0175 0.000198832
0 0.034119 0.00994629 0.000259385
0 -0.005881 0.0350537 4.78185e-05
0 0.035369 0.00356872 0.000430909
8.27181e-25 0.0355721 0 0.000551029
0 0.019119 0.0300012 9.31857e-05
0 0.032869 0.0137433 0.000227904
0 -0.033381 0.0124878 0.000241899
0 -0.017131 0.0312567 7.86473e-05
0 0.006619 0.0350537 4.86364e-05
0 0.030369 0.01875 0.000193088
-1.0842e-19 -0.034631 0.008656 0.000287771
-6.46235e-27 -0.00724127 0.0350537 4.7732e-05
-1.65436e-24 -0.035881 1.26949e-08 0.000554458
0 0.035369 0.00608215 0.000321575
2.01948e-28 -0.0336477 0.0124878 0.000241921
1.0842e-19 -0.012131 0.0337829 5.74718e-05
0 -0.035881 0.00233887 0.000506633
3.28979e-21 -0.025881 0.025 0.000134713
-1.0842e-19 -0.024631 0.02625 0.000123441
2.1684e-19 0.017869 0.0312567 8.15503e-05
0 -0.032131 0.0162494 0.000208986
-5.60719e-20 -0.008381 0.0350537 4.76594e-05
0 -0.027131 0.02375 0.000145992
-1.91544e-20 -0.023381 0.0275 0.00011205
-1.91558e-20 0.031619 0.0175 0.000202067
1.0842e-19 0.012869 0.033783 5.92826e-05
1.71129e-20 -0.015881 0.0325122 6.80005e-05
2.06795e-25 -0.035881 0.00479858 0.000402346
3.28979e-21 -0.028381 0.0225 0.000156861
0 0.009119 0.0350537 4.88035e-05
1.0842e-19 -0.022131 0.0287506 0.000100652
5.04871e-29 -0.033381 0.0142204 0.000226389
8.07794e-28 0.034119 0.0124878 0.000237105
0 0.000369 0.036344 3.80304e-05
2.1684e-19 -0.034631 0.011217 0.00025412
2.1684e-19 -0.002131 0.036344 3.78852e-05
-1.0842e-19 0.035369 0.00865601 0.000272209
-1.0842e-19 0.002869 0.036344 3.81757e-05
0 -0.029631 0.02125 0.00016775
0 0.025369 0.02625 0.000129213
0 0.016619 0.0325122 7.05239e-05
0 0.026619 0.025 0.0001408
1.29247e-26 0.0364712 0.00233887 0.00049116
-1.46111e-19 -0.020881 0.0300012 8.95629e-05
-1.91544e-20 0.024119 0.0275 0.000117144
-1.54617e-28 0.024119 0.0275076 0.000117073
0 -0.033381 0.0149988 0.000219421
0 0.027869 0.02375 0.0001524
-8.27181e-25 0.036619 6.2941e-09 0.00055093
-3.13663e-20 -0.035881 0.00736572 0.000316966
0 -0.004631 0.036344 3.77422e-05
-1.0842e-19 0.032869 0.0162494 0.000210991
1.04722e-19 0.036619 0.00233887 0.00049112
-1.24232e-20 -0.010881 0.0350537 4.75015e-05
0 0.022869 0.0287506 0.0001051
0 0.005369 0.036344 3.83237e-05
1.29247e-26 0.036619 0.00320007 0.000450857
-9.67102e-20 -0.030881 0.02 0.000178164
8.08456e-20 0.029119 0.0225 0.000163105
1.0842e-19 -0.014631 0.0337829 5.72976e-05
-1.0842e-19 -0.019631 0.0312567 7.84451e-05
2.58494e-26 0.011619 0.0350537 4.89715e-05
0 0.036619 0.00479858 0.000376122