# k  POINT_DATA 26303
# x  y  z  k
1.62142e-08 -1.0842e-19 0 0.000553523
-0.000880991 -5.42101e-20 0 0.000552055
0.000881021 1.0842e-19 0 0.000554994
-0.00161899 1.0842e-19 0 0.000550834
0.00161902 0 0 0.000556233
-0.00124999 -1.807e-20 0.00116943 0.000544604
0.00125001 -9.03502e-21 0.00116943 0.000548656
6.61554e-09 0 0.00233887 0.000499967
-0.0025 -1.0842e-19 0 0.000549378
0.00250002 -1.0842e-19 0 0.00055773
-0.003381 0 0 0.000547925
0.00338102 0 0 0.00055923
-0.0025 -1.0842e-19 0.00233887 0.000496729
0.00250001 1.0842e-19 0.00233887 0.000503255
-0.00125 1.807e-20 0.00356872 0.000444246
0.00125 3.61401e-20 0.00356872 0.000446618
-0.00375 0 0.00116943 0.000540599
0.00375001 0 0.00116944 0.00055278
-0.004119 -5.42101e-20 0 0.000546721
0.00411901 0 0 0.00056048
2.5969e-09 -1.0842e-19 0.00479858 0.000390317
0.00500001 -1.0842e-19 0 0.000561974
-0.00500001 1.0842e-19 0 0.00054529
-0.00375 9.03502e-21 0.00356873 0.000441922
0.00375 3.61401e-20 0.00356873 0.000449026
0.0025 -1.0842e-19 0.00479858 0.000391997
-0.0025 0 0.00479858 0.000388671
-0.005 0 0.00233887 0.000493541
0.00500001 1.0842e-19 0.00233887 0.000506585
-0.00588101 5.42101e-20 0 0.000543862
0.00588101 -1.0842e-19 0 0.00056347
-0.00125 -1.807e-20 0.00608215 0.000337516
0.00125 0 0.00608215 0.000338544
-0.00625 0 0.00116944 0.00053666
0.00625 0 0.00116943 0.000556905
-0.006619 -5.42101e-20 0 0.000542675
0.006619 -5.42101e-20 0 0.000564724
0.005 -1.0842e-19 0.00479858 0.000393714
-0.005 0 0.00479858 0.000387058
-0.00375 -1.807e-20 0.00608215 0.000336521
0.00375 -1.807e-20 0.00608215 0.000339593
-0.00625 9.03502e-21 0.00356873 0.000439632
0.00625 9.03502e-21 0.00356873 0.000451482
8.48585e-10 0 0.00736572 0.000307269
-0.0075 1.0842e-19 0 0.000541261
0.0075 -1.0842e-19 0 0.000566231
0.0025 0 0.00736572 0.000307921
-0.0025 0 0.00736572 0.000306637
-0.0075 -1.0842e-19 0.00233887 0.000490401
0.0075 0 0.00233887 0.000509942
-0.008381 5.42101e-20 0 0.000539849
0.008381 5.42101e-20 0 0.000567741
-0.00625 -1.807e-20 0.00608215 0.000335546
0.00625 4.51751e-20 0.00608215 0.000340676
-0.00125 0 0.008656 0.000281584
0.00125 0 0.00865601 0.000281912
-0.00874999 -1.807e-20 0.00116944 0.000532766
0.00875 -9.03502e-21 0.00116944 0.000561065
0.005 0 0.00736572 0.000308596
-0.005 0 0.00736572 0.000306026
0.0075 0 0.00479858 0.000395464
-0.0075 0 0.00479858 0.000385474
-0.00911899 -5.42101e-20 0 0.000538672
0.00911899 0 0 0.000569004
-0.00375 -1.807e-20 0.008656 0.000281276
0.00375 0 0.008656 0.000282254
-0.00875 9.03502e-21 0.00356873 0.000437384
0.00875 0 0.00356873 0.000453963
2.04885e-10 0 0.00994629 0.000265077
-0.00999999 0 0 0.000537265
0.00999999 -1.0842e-19 0 0.000570523
0.0025 0 0.00994629 0.000265239
-0.0025 0 0.00994629 0.000264927
-0.00999999 0 0.00233887 0.000487293
0.01 0 0.00233887 0.000513333
0.0075 0 0.00736572 0.000309292
-0.0075 0 0.00736572 0.000305431
0.00875 1.807e-20 0.00608215 0.000341775
-0.00875 -3.61401e-20 0.00608215 0.000334589
-0.00625 -1.807e-20 0.008656 0.000280973
0.00625 0 0.008656 0.000282618
0.010881 -5.42101e-20 0 0.000572045
-0.010881 -5.42101e-20 0 0.00053586
0.01 0 0.00479858 0.000397241
-0.01 0 0.00479858 0.000383917
0.005 0 0.00994629 0.000265416
-0.005 0 0.00994629 0.000264789
-0.00125 -3.61401e-20 0.011217 0.000250574
0.00125 -3.61401e-20 0.011217 0.000250597
-0.01125 2.71051e-20 0.00116944 0.0005289
0.01125 1.807e-20 0.00116943 0.000565257
-0.011619 5.42101e-20 0 0.000534702
0.011619 1.0842e-19 0 0.000573314
-0.01125 -1.807e-20 0.00356872 0.000435156
0.01125 0 0.00356873 0.000456483
0.00375 1.807e-20 0.011217 0.000250628
-0.00375 1.807e-20 0.011217 0.000250558
-0.00875 -1.807e-20 0.008656 0.000280693
0.00875 1.807e-20 0.00865601 0.00028299
0.01 0 0.00736572 0.000310004
-0.01 0 0.00736572 0.000304855
0.0075 0 0.00994629 0.000265604
-0.0075 0 0.00994629 0.00026466
3.14938e-11 0 0.0124878 0.000239269
0.0125 -1.0842e-19 0 0.000574831
-0.0125 1.0842e-19 0 0.000533334
0.0125 1.0842e-19 0.00233887 0.00051675
-0.0125 1.0842e-19 0.00233887 0.000484235
0.0025 0 0.0124878 0.000239236
-0.0025 0 0.0124878 0.000239309
-0.01125 -2.71051e-20 0.00608215 0.000333661
0.01125 -9.03502e-21 0.00608215 0.000342906
-0.00625 -3.61401e-20 0.011217 0.000250552
0.00625 -3.61401e-20 0.011217 0.000250673
0.013381 0 0 0.000576353
-0.013381 0 0 0.000531969
0.0125 -1.0842e-19 0.00479858 0.000399049
-0.0125 -1.0842e-19 0.00479858 0.000382387
0.005 0 0.0124878 0.000239212
-0.005 0 0.0124878 0.000239357
0.01375 0 0.00116943 0.000569453
-0.01375 2.71051e-20 0.00116944 0.000525126
-0.00125 -3.61401e-20 0.0137433 0.000228751
0.00125 -3.61401e-20 0.0137433 0.000228674
0.01 0 0.00994629 0.000265803
-0.01 0 0.00994629 0.000264543
-0.014119 -1.0842e-19 0 0.000530819
0.014119 -5.42101e-20 0 0.000577626
0.01125 -1.807e-20 0.008656 0.000283377
-0.01125 -1.807e-20 0.008656 0.000280422
-0.01375 1.807e-20 0.00356873 0.000432977
0.01375 9.03502e-21 0.00356872 0.000459037
0.00875 -1.807e-20 0.011217 0.000250725
-0.00875 -1.807e-20 0.011217 0.000250554
0.00375 3.61401e-20 0.0137433 0.000228601
-0.00375 0 0.0137433 0.000228836
0.0125 0 0.00736572 0.000310735
-0.0125 0 0.00736572 0.000304293
0.0075 0 0.0124878 0.000239195
-0.0075 0 0.0124878 0.00023941
2.25352e-12 0 0.0149988 0.000219054
-0.015 0 0 0.000529428
0.015 -1.0842e-19 0 0.000579156
0.01375 -1.807e-20 0.00608215 0.000344053
-0.01375 1.807e-20 0.00608215 0.000332746
0.00625 -1.807e-20 0.0137433 0.000228537
-0.00625 -1.807e-20 0.0137433 0.000228923
0.015 -1.0842e-19 0.00233887 0.000520191
-0.015 1.0842e-19 0.00233887 0.000481202
0.0025 0 0.0149988 0.000218974
-0.0025 0 0.0149988 0.000219139
0.015 -1.0842e-19 0.00479858 0.000400882
-0.015 -1.0842e-19 0.00479858 0.000380878
0.005 0 0.0149988 0.000218899
-0.005 0 0.0149988 0.000219228
-0.015881 1.0842e-19 0 0.000528042
0.015881 -5.42101e-20 0 0.000580688
0.01125 0 0.011217 0.000250787
-0.01125 -3.61401e-20 0.011217 0.00025056
0.0125 0 0.00994629 0.000266013
-0.0125 0 0.00994629 0.000264432
0.01 0 0.0124878 0.000239185
-0.01 0 0.0124878 0.000239468
0.01375 -1.807e-20 0.008656 0.000283778
-0.01375 -1.807e-20 0.008656 0.000280156
0.01625 1.807e-20 0.00116943 0.000573677
-0.01625 9.03502e-21 0.00116943 0.000521316
-0.00875 -1.807e-20 0.0137433 0.000229015
0.00875 -1.807e-20 0.0137433 0.000228476
-0.00125 0 0.0162494 0.000209599
0.00125 0 0.0162494 0.000209522
0.016619 -1.0842e-19 0 0.000581967
-0.016619 0 0 0.000526905
0.01625 0 0.00356872 0.000461619
-0.01625 1.807e-20 0.00356873 0.000430801
-0.00375 -3.61401e-20 0.0162494 0.00020968
0.00375 0 0.0162494 0.000209448
0.015 0 0.00736572 0.000311481
-0.015 0 0.00736572 0.000303745
0.0075 0 0.0149988 0.00021883
-0.0075 0 0.0149988 0.00021932
0.01625 -1.807e-20 0.00608215 0.000345223
-0.01625 9.03502e-21 0.00608215 0.000331849
-0.00625 0 0.0162494 0.000209764
0.00625 -1.807e-20 0.0162494 0.000209379
-0.0175 -1.0842e-19 0 0.000525569
0.0175 0 0 0.000583501
-1.02403e-14 0 0.0175 0.000200023
-0.0175 0 0.00233887 0.000478209
0.0175 -1.0842e-19 0.00233887 0.000523658
0.0125 0 0.0124878 0.000239181
-0.0125 0 0.0124878 0.000239532
0.0025 0 0.0175 0.000199971
-0.0025 0 0.0175 0.000200079
0.01375 -1.807e-20 0.011217 0.000250854
-0.01375 0 0.011217 0.000250576
-0.01125 0 0.0137433 0.000229112
0.01125 0 0.0137433 0.000228422
0.015 0 0.00994629 0.000266231
-0.015 0 0.00994629 0.000264331
0.01 0 0.0149988 0.000218763
-0.01 0 0.0149988 0.000219415
0.0175 -1.0842e-19 0.00479858 0.000402742
-0.0175 0 0.00479858 0.000379396
0.005 0 0.0175 0.000199922
-0.005 0 0.0175 0.000200136
-0.018381 -1.0842e-19 0 0.000524235
0.018381 0 0 0.000585036
0.01625 -1.807e-20 0.008656 0.00028419
-0.01625 -3.61401e-20 0.008656 0.000279909
0.00875 -1.807e-20 0.0162494 0.000209312
-0.00875 0 0.0162494 0.000209849
-0.01875 -9.03502e-21 0.00116943 0.000517628
0.01875 -9.03502e-21 0.00116944 0.000577917
0.00125 -1.807e-20 0.01875 0.000190398
-0.00125 -1.807e-20 0.01875 0.000190424
0.0175 0 0.00736572 0.000312244
-0.0175 0 0.00736572 0.000303213
0.0075 0 0.0175 0.000199875
-0.0075 0 0.0175 0.000200195
0.01875 4.51751e-20 0.00356873 0.000464232
-0.01875 1.807e-20 0.00356873 0.000428684
0.019119 1.0842e-19 0 0.000586325
-0.019119 5.42101e-20 0 0.000523109
0.00375 0 0.01875 0.000190373
-0.00375 0 0.01875 0.000190451
0.01375 -1.807e-20 0.0137433 0.00022837
-0.01375 0 0.0137433 0.000229212
0.015 0 0.0124878 0.000239182
-0.015 0 0.0124878 0.0002396
0.0125 0 0.0149988 0.0002187
-0.0125 0 0.0149988 0.000219513
0.01875 1.807e-20 0.00608215 0.000346414
-0.01875 3.61401e-20 0.00608215 0.000330976
0.01625 -1.807e-20 0.011217 0.000250929
-0.01625 -1.807e-20 0.011217 0.000250596
0.01125 -1.807e-20 0.0162494 0.000209248
-0.01125 0 0.0162494 0.000209938
0.00625 0 0.01875 0.000190353
-0.00625 0 0.01875 0.00019048
-0.02 -1.0842e-19 0 0.000521746
0.02 0 0 0.000587878
-1.02402e-14 0 0.02 0.000180389
0.0175 0 0.00994629 0.000266458
-0.0175 0 0.00994629 0.000264239
-0.02 0 0.00233887 0.00047525
0.02 -1.0842e-19 0.00233887 0.000527156
0.01 0 0.0175 0.00019983
0.0025 0 0.02 0.000180401
-0.0025 0 0.02 0.000180378
-0.01 0 0.0175 0.000200256
0.02 0 0.00479858 0.000404628
-0.02 0 0.00479858 0.000377939
0.005 0 0.02 0.000180415
-0.005 0 0.02 0.000180368
0.01875 1.807e-20 0.008656 0.000284614
-0.01875 -1.807e-20 0.008656 0.000279668
0.00875 -3.61401e-20 0.01875 0.000190332
-0.00875 0 0.01875 0.000190509
-0.020881 5.42101e-20 0 0.000520387
0.020881 0 0 0.000589433
0.015 0 0.0149988 0.00021864
-0.015 0 0.0149988 0.000219613
0.02125 0 0.00116944 0.000582207
-0.02125 -2.71051e-20 0.00116943 0.000513893
-0.01625 -1.807e-20 0.0137433 0.000229314
0.01625 -1.807e-20 0.0137433 0.000228322
-0.01375 0 0.0162494 0.000210027
0.01375 0 0.0162494 0.000209185
0.00125 -3.61401e-20 0.02125 0.000170238
-0.00125 0 0.02125 0.000170186
0.02 0 0.00736572 0.000313025
-0.02 0 0.00736572 0.000302697
0.0075 0 0.02 0.00018043
-0.0075 0 0.02 0.000180359
0.0175 0 0.0124878 0.000239187
-0.0175 0 0.0124878 0.000239674
0.0125 0 0.0175 0.000199787
-0.0125 0 0.0175 0.000200317
-0.02125 0 0.00356873 0.000426574
0.02125 9.03502e-21 0.00356873 0.000466874
0.00375 -1.807e-20 0.02125 0.000170288
-0.00375 -1.807e-20 0.02125 0.000170138
0.021619 0 0 0.000590733
-0.021619 5.42101e-20 0 0.000519271
0.01875 -1.807e-20 0.011217 0.00025101
-0.01875 -1.807e-20 0.011217 0.000250622
0.01125 -3.61401e-20 0.01875 0.000190314
-0.01125 -1.807e-20 0.01875 0.000190538
-0.02125 -2.71051e-20 0.00608215 0.000330119
0.02125 1.807e-20 0.00608215 0.000347629
0.00625 1.807e-20 0.02125 0.000170341
-0.00625 0 0.02125 0.000170087
0.02 0 0.00994629 0.000266695
-0.02 0 0.00994629 0.000264156
0.01 0 0.02 0.000180446
-0.01 0 0.02 0.00018035
-0.0225 -1.0842e-19 0 0.000517958
0.0225 0 0 0.000592294
-1.024e-14 0 0.0225 0.000159547
-0.0225 1.0842e-19 0.00233887 0.000472324
0.0225 -1.0842e-19 0.00233887 0.000530689
0.0025 0 0.0225 0.000159638
-0.0025 0 0.0225 0.000159455
0.02125 -1.807e-20 0.008656 0.000285051
-0.02125 -1.807e-20 0.008656 0.000279443
0.01625 -1.807e-20 0.0162494 0.000209125
-0.01625 0 0.0162494 0.000210118
-0.00875 1.807e-20 0.02125 0.000170038
0.00875 -1.807e-20 0.02125 0.000170393
0.0225 -1.0842e-19 0.00479858 0.000406542
-0.0225 -1.0842e-19 0.00479858 0.000376508
0.0175 0 0.0149988 0.000218581
-0.0175 0 0.0149988 0.000219717
0.005 0 0.0225 0.00015973
-0.005 0 0.0225 0.000159364
0.015 0 0.0175 0.000199744
-0.015 0 0.0175 0.00020038
0.01875 -3.61401e-20 0.0137433 0.000228278
-0.01875 -1.807e-20 0.0137433 0.000229423
0.01375 -1.807e-20 0.01875 0.000190295
-0.01375 -3.61401e-20 0.01875 0.000190568
-0.023381 -5.42101e-20 0 0.000516648
0.023381 0 0 0.000593855
0.02 0 0.0124878 0.000239198
-0.02 0 0.0124878 0.000239753
0.0125 0 0.02 0.000180462
-0.0125 0 0.02 0.00018034
0.0225 0 0.00736572 0.000313824
-0.0225 0 0.00736572 0.000302196
0.0075 0 0.0225 0.000159823
-0.0075 0 0.0225 0.000159273
-0.02375 -9.03502e-21 0.00116943 0.000510273
0.02375 2.71051e-20 0.00116944 0.00058652
0.00125 -1.807e-20 0.02375 0.000148785
-0.00125 -1.807e-20 0.02375 0.000148653
-0.02375 1.807e-20 0.00356873 0.000424517
0.02375 9.03502e-21 0.00356873 0.000469551
0.02125 -1.807e-20 0.011217 0.000251098
-0.02125 -1.807e-20 0.011217 0.000250659
0.01125 -1.807e-20 0.02125 0.000170446
0.00375 0 0.02375 0.000148917
-0.00375 -1.807e-20 0.02375 0.00014852
-0.01125 3.61401e-20 0.02125 0.000169988
0.024119 1.0842e-19 0 0.000595165
-0.024119 5.42101e-20 0 0.000515546
0.02375 -1.807e-20 0.00608215 0.000348865
-0.02375 -1.807e-20 0.00608215 0.000329286
0.00625 -1.807e-20 0.02375 0.00014905
-0.00625 -1.807e-20 0.02375 0.000148387
0.0225 0 0.00994629 0.000266942
-0.0225 0 0.00994629 0.000264082
0.01 0 0.0225 0.000159914
-0.01 0 0.0225 0.000159181
0.0175 0 0.0175 0.000199703
-0.0175 0 0.0175 0.000200443
0.01875 -1.807e-20 0.0162494 0.000209065
-0.01875 -1.807e-20 0.0162494 0.000210211
-0.01625 -1.807e-20 0.01875 0.000190599
0.01625 -1.807e-20 0.01875 0.000190277
0.02 0 0.0149988 0.000218525
-0.02 0 0.0149988 0.000219823
-0.025 -1.0842e-19 0 0.000514216
0.015 0 0.02 0.000180477
-0.015 0 0.02 0.00018033
0.025 -1.0842e-19 0 0.000596744
-1.02399e-14 0 0.025 0.000137439
-0.025 1.0842e-19 0.00233887 0.000469438
0.025 -1.0842e-19 0.00233887 0.000534258
0.0025 0 0.025 0.00013761
-0.0025 0 0.025 0.000137267
0.02375 -1.807e-20 0.008656 0.000285504
-0.02375 -1.807e-20 0.008656 0.000279226
0.02125 -1.807e-20 0.0137433 0.000228238
-0.02125 -3.61401e-20 0.0137433 0.000229534
0.01375 0 0.02125 0.000170496
-0.00875 0 0.02375 0.000148254
-0.01375 -3.61401e-20 0.02125 0.000169936
0.00875 3.61401e-20 0.02375 0.000149181
0.025 -1.0842e-19 0.00479858 0.000408485
-0.025 -1.0842e-19 0.00479858 0.000375103
0.005 0 0.025 0.00013778
-0.005 0 0.025 0.000137095
0.0225 0 0.0124878 0.000239214
-0.0225 0 0.0124878 0.000239837
0.0125 0 0.0225 0.000160005
-0.0125 0 0.0225 0.000159087
-0.025881 0 0 0.000512891
0.025881 0 0 0.000598324
0.025 0 0.00736572 0.000314641
-0.025 0 0.00736572 0.00030171
0.0075 0 0.025 0.000137951
-0.0075 0 0.025 0.000136923
0.02375 -1.807e-20 0.011217 0.000251195
-0.02375 0 0.011217 0.000250698
-0.02625 -9.03502e-21 0.00116943 0.00050663
0.02625 1.807e-20 0.00116943 0.000590882
0.00125 -1.807e-20 0.02625 0.000126145
0.01125 3.61401e-20 0.02375 0.000149312
-0.01125 3.61401e-20 0.02375 0.000148118
-0.00125 -1.807e-20 0.02625 0.000125936
-0.02625 -3.61401e-20 0.00356873 0.000422476
0.02625 0 0.00356873 0.000472261
0.01875 0 0.01875 0.000190259
0.00375 -1.807e-20 0.02625 0.000126352
-0.01875 3.61401e-20 0.01875 0.00019063
-0.00375 0 0.02625 0.000125729
0.02 0 0.0175 0.000199662
0.0175 0 0.02 0.000180492
-0.0175 0 0.02 0.000180321
-0.02 0 0.0175 0.000200508
0.026619 5.42101e-20 0 0.000599647
-0.026619 -5.42101e-20 0 0.000511799
0.02125 3.61401e-20 0.0162494 0.000209007
-0.02125 0 0.0162494 0.000210306
0.01625 -1.807e-20 0.02125 0.000170548
-0.01625 -3.61401e-20 0.02125 0.000169886
0.025 0 0.00994629 0.0002672
-0.025 0 0.00994629 0.000264017
0.01 0 0.025 0.000138121
-0.01 0 0.025 0.00013675
0.02625 0 0.00608215 0.000350126
-0.02625 1.807e-20 0.00608215 0.000328467
0.00625 1.807e-20 0.02625 0.000126558
-0.00625 0 0.02625 0.00012552
0.0225 0 0.0149988 0.000218473
-0.0225 0 0.0149988 0.000219932
0.015 0 0.0225 0.000160095
-0.015 0 0.0225 0.000158994
-0.02375 -1.807e-20 0.0137433 0.000229649
0.02375 -1.807e-20 0.0137433 0.000228202
0.01375 5.42101e-20 0.02375 0.00014944
-0.01375 0 0.02375 0.000147983
-1.024e-14 0 0.0275 0.00011441
0.0275 -1.0842e-19 0 0.000601238
-0.0275 -1.0842e-19 0 0.00051051
0.0275 1.0842e-19 0.00233887 0.000537865
-0.0275 -1.0842e-19 0.00233887 0.000466585
0.0025 0 0.0275 0.000114643
-0.0025 0 0.0275 0.000114177
0.02625 -3.61401e-20 0.008656 0.000285968
-0.02625 -1.807e-20 0.008656 0.000279023
0.00875 0 0.02625 0.000126766
-0.00875 0 0.02625 0.000125311
0.0275 -1.0842e-19 0.00479858 0.000410456
-0.0275 -1.0842e-19 0.00479858 0.000373724
0.025 0 0.0124878 0.000239237
-0.025 0 0.0124878 0.000239927
0.005 0 0.0275 0.000114875
-0.005 0 0.0275 0.000113945
0.0125 0 0.025 0.000138289
-0.0125 0 0.025 0.000136575
0.02 0 0.02 0.000180507
-0.02 0 0.02 0.000180311
-0.01875 -1.807e-20 0.02125 0.000169832
0.02125 0 0.01875 0.000190242
0.01875 0 0.02125 0.000170598
-0.02125 -1.807e-20 0.01875 0.000190661
0.028381 5.42101e-20 0 0.000602831
-0.028381 -5.42101e-20 0 0.000509225
0.0275 0 0.00736572 0.000315477
-0.0275 0 0.00736572 0.000301241
0.0075 0 0.0275 0.000115106
-0.0075 0 0.0275 0.000113712
0.0225 0 0.0175 0.000199622
0.0175 0 0.0225 0.000160184
-0.0175 0 0.0225 0.000158899
-0.0225 0 0.0175 0.000200574
-0.02625 1.807e-20 0.011217 0.000250748
0.02625 -1.807e-20 0.011217 0.000251299
0.01125 -1.807e-20 0.02625 0.00012697
-0.01125 0 0.02625 0.0001251
-0.02875 -4.51751e-20 0.00116943 0.000503081
0.02875 1.807e-20 0.00116943 0.000595281
0.02375 0 0.0162494 0.000208953
-0.02375 -1.807e-20 0.0162494 0.000210403
0.01625 -1.807e-20 0.02375 0.000149568
-0.01625 -3.61401e-20 0.02375 0.000147846
0.00125 0 0.0287506 0.000102906
-0.00125 1.807e-20 0.0287506 0.000102653
-0.02875 -1.807e-20 0.00356873 0.000420478
0.02875 0 0.00356873 0.000475006
0.00375 1.807e-20 0.0287506 0.000103161
-0.00375 -3.61401e-20 0.0287506 0.000102399
-0.029119 0 0 0.000508146
0.029119 -5.42101e-20 0 0.000604166
0.025 0 0.0149988 0.000218424
-0.025 0 0.0149988 0.000220044
0.015 0 0.025 0.000138455
-0.015 0 0.025 0.000136399
0.0275 0 0.00994629 0.000267469
-0.0275 0 0.00994629 0.000263962
0.01 0 0.0275 0.000115337
-0.01 0 0.0275 0.000113478
-0.02875 -1.807e-20 0.00608215 0.000327676
0.02875 9.03502e-21 0.00608215 0.00035141
-0.00625 -1.807e-20 0.0287506 0.000102146
0.00625 1.807e-20 0.0287506 0.000103411
0.02625 -1.807e-20 0.0137433 0.000228172
-0.02625 1.807e-20 0.0137433 0.000229768
-0.01375 -1.807e-20 0.02625 0.000124888
0.01375 3.61401e-20 0.02625 0.000127175
-0.03 -1.0842e-19 0 0.000506849
0.03 -1.0842e-19 0 0.000605774
2.13692e-12 0 0.0300012 9.13913e-05
-0.02875 -3.61401e-20 0.008656 0.000278833
0.02875 -3.61401e-20 0.008656 0.000286449
-0.02125 -1.807e-20 0.02125 0.000169781
0.02125 5.42101e-20 0.02125 0.000170648
-0.00875 -1.807e-20 0.0287506 0.000101892
0.00875 -1.807e-20 0.0287506 0.000103666
-0.03 -1.0842e-19 0.00233887 0.000463771
0.03 0 0.00233887 0.000541511
0.02 0 0.0225 0.000160272
0.0225 0 0.02 0.000180522
-0.02 0 0.0225 0.000158803
-0.0225 0 0.02 0.000180301
0.0025 0 0.0300012 9.16565e-05
-0.0025 0 0.0300012 9.11264e-05
0.0275 0 0.0124878 0.000239266
-0.0275 0 0.0124878 0.000240023
0.0125 0 0.0275 0.000115567
-0.0125 0 0.0275 0.000113242
0.02375 0 0.01875 0.000190225
0.01875 -1.807e-20 0.02375 0.000149695
-0.01875 3.61401e-20 0.02375 0.000147707
-0.02375 5.42101e-20 0.01875 0.000190693
0.03 0 0.00479858 0.000412458
-0.03 -1.0842e-19 0.00479858 0.000372372
0.005 0 0.0300012 9.19213e-05
-0.005 0 0.0300012 9.08616e-05
0.025 0 0.0175 0.000199584
0.0175 0 0.025 0.000138621
-0.0175 0 0.025 0.000136222
-0.025 0 0.0175 0.000200641
0.02875 -1.807e-20 0.011217 0.000251412
-0.02875 -1.807e-20 0.011217 0.000250804
0.02625 0 0.0162494 0.000208899
-0.02625 -1.807e-20 0.0162494 0.000210502
0.01625 0 0.02625 0.000127376
-0.01625 -1.807e-20 0.02625 0.000124675
0.01125 -1.807e-20 0.0287506 0.000103916
-0.01125 -1.807e-20 0.0287506 0.000101637
0.030881 -5.42101e-20 0 0.000607383
-0.030881 0 0 0.000505556
0.03 0 0.00736572 0.000316333
-0.03 0 0.00736572 0.000300787
0.0075 0 0.0300012 9.2186e-05
-0.0075 0 0.0300012 9.05962e-05
0.03125 0 0.00116943 0.000599725
-0.03125 0 0.00116943 0.000499526
0.00125 1.807e-20 0.0312567 8.02356e-05
-0.00125 0 0.0312567 7.99619e-05
0.0275 0 0.0149988 0.000218378
-0.0275 0 0.0149988 0.000220159
0.015 0 0.0275 0.000115796
-0.015 0 0.0275 0.000113005
-0.03125 -1.807e-20 0.00356873 0.000418504
0.03125 0 0.00356872 0.000477786
0.00375 -1.807e-20 0.0312567 8.05107e-05
-0.00375 -1.807e-20 0.0312567 7.96873e-05
0.03 0 0.00994629 0.00026775
-0.03 0 0.00994629 0.000263915
-0.031619 0 0 0.000504489
0.031619 0 0 0.000608731
0.01 0 0.0300012 9.24502e-05
-0.01 0 0.0300012 9.03303e-05
0.0225 0 0.0225 0.000160359
-0.0225 0 0.0225 0.000158706
0.03125 1.807e-20 0.00608215 0.000352719
-0.03125 -1.807e-20 0.00608215 0.000326898
0.02875 -1.807e-20 0.0137433 0.000228145
-0.02875 -3.61401e-20 0.0137433 0.000229892
0.02375 -1.807e-20 0.02125 0.000170697
-0.02125 -1.807e-20 0.02375 0.000147567
-0.02375 -1.807e-20 0.02125 0.000169726
0.02125 0 0.02375 0.00014982
-0.01375 -1.807e-20 0.0287506 0.000101379
0.01375 0 0.0287506 0.000104168
0.00625 1.807e-20 0.0312567 8.07835e-05
-0.00625 1.807e-20 0.0312567 7.94135e-05
0.025 0 0.02 0.000180537
0.02 0 0.025 0.000138785
-0.02 0 0.025 0.000136043
-0.025 0 0.02 0.00018029
-0.01875 5.42101e-20 0.02625 0.00012446
0.02625 -1.807e-20 0.01875 0.000190209
-0.02625 0 0.01875 0.000190725
0.01875 3.61401e-20 0.02625 0.000127577
0.03125 -1.807e-20 0.008656 0.000286942
-0.03125 -1.807e-20 0.008656 0.000278652
0.00875 -1.807e-20 0.0312567 8.10583e-05
-0.00875 -1.807e-20 0.0312567 7.91383e-05
0.03 0 0.0124878 0.000239302
-0.03 0 0.0124878 0.000240124
-0.0325 -1.0842e-19 0 0.000503227
0.0325 -1.0842e-19 0 0.000610355
0.0125 0 0.0300012 9.27132e-05
-0.0125 0 0.0300012 9.00631e-05
2.84343e-11 0 0.0325122 6.92046e-05
0.0325 0 0.00233886 0.000545197
-0.0325 1.0842e-19 0.00233887 0.000460993
0.0275 0 0.0175 0.000199548
0.0175 0 0.0275 0.000116023
-0.0175 0 0.0275 0.000112767
-0.0275 0 0.0175 0.00020071
0.0025 0 0.0325122 6.94844e-05
-0.0025 0 0.0325122 6.8925e-05
0.0325 0 0.00479858 0.00041449
-0.0325 -1.0842e-19 0.00479858 0.000371044
0.005 0 0.0325122 6.97641e-05
-0.005 0 0.0325122 6.86454e-05
0.02875 -1.807e-20 0.0162494 0.000208849
-0.02875 0 0.0162494 0.000210603
0.01625 -1.807e-20 0.0287506 0.000104418
-0.01625 0 0.0287506 0.000101123
0.03125 -1.807e-20 0.011217 0.000251533
-0.03125 -1.807e-20 0.011217 0.000250866
0.01125 -1.807e-20 0.0312567 8.13308e-05
-0.01125 -1.807e-20 0.0312567 7.88635e-05
0.0325 0 0.00736572 0.000317207
-0.0325 0 0.00736572 0.000300348
0.0075 0 0.0325122 7.00438e-05
-0.0075 0 0.0325122 6.83656e-05
0.033381 -5.42101e-20 0 0.000611979
-0.033381 0 0 0.000501969
0.03 0 0.0149988 0.000218336
-0.03 0 0.0149988 0.000220277
0.015 0 0.0300012 9.29756e-05
-0.015 0 0.0300012 8.9795e-05
-0.02375 0 0.02375 0.000147427
0.02375 0 0.02375 0.000149945
0.025 0 0.0225 0.000160445
0.0225 0 0.025 0.000138947
-0.0225 0 0.025 0.000135864
-0.025 0 0.0225 0.000158608
-0.03375 -1.807e-20 0.00116943 0.000496055
0.03375 0 0.00116943 0.000604212
0.02125 -1.807e-20 0.02625 0.000127776
0.02625 -1.807e-20 0.02125 0.000170747
-0.02125 -1.807e-20 0.02625 0.000124244
-0.02625 3.61401e-20 0.02125 0.000169673
0.00125 1.807e-20 0.0337829 5.85707e-05
-0.00125 0 0.033783 5.82892e-05
0.03375 0 0.00356872 0.000480604
-0.03375 -1.807e-20 0.00356873 0.000416567
0.0325 0 0.00994629 0.000268041
-0.0325 0 0.00994629 0.000263878
-0.00375 -1.807e-20 0.0337829 5.80059e-05
0.00375 0 0.033783 5.88548e-05
0.02 0 0.0275 0.000116248
0.0275 0 0.02 0.000180553
-0.02 0 0.0275 0.000112528
-0.0275 0 0.02 0.00018028
0.01 0 0.0325122 7.03232e-05
-0.01 0 0.0325122 6.80853e-05
-0.034119 0 0 0.000500916
0.034119 -5.42101e-20 0 0.00061334
0.03125 -1.807e-20 0.0137433 0.000228124
-0.03125 0 0.0137433 0.000230019
0.01375 0 0.0312567 8.16032e-05
-0.01375 0 0.0312567 7.85863e-05
0.03375 -1.807e-20 0.00608215 0.000354052
-0.03375 -1.807e-20 0.00608215 0.000326144
0.02875 -1.807e-20 0.01875 0.000190194
-0.02875 -1.807e-20 0.01875 0.000190758
-0.01875 -1.807e-20 0.0287506 0.000100863
0.01875 -1.807e-20 0.0287506 0.000104666
0.00625 -1.807e-20 0.0337829 5.91362e-05
-0.00625 -1.807e-20 0.0337829 5.77242e-05
0.03 0 0.0175 0.000199514
-0.03 0 0.0175 0.000200779
0.0175 0 0.0300012 9.32367e-05
-0.0175 0 0.0300012 8.95261e-05
0.0325 0 0.0124878 0.000239344
-0.0325 0 0.0124878 0.00024023
0.0125 0 0.0325122 7.06017e-05
-0.0125 0 0.0325122 6.78044e-05
0.03375 -1.807e-20 0.008656 0.000287453
-0.03375 -1.807e-20 0.008656 0.000278484
0.00875 -1.807e-20 0.0337829 5.94201e-05
-0.00875 -1.807e-20 0.0337829 5.74414e-05
-0.035 -1.0842e-19 0 0.000499655
0.035 -1.0842e-19 0 0.000614976
1.81357e-10 0 0.0350537 4.81988e-05
-0.035 -1.0842e-19 0.00233887 0.000458255
0.035 0 0.00233887 0.000548923
0.0025 0 0.0350537 4.84731e-05
-0.0025 0 0.0350537 4.79249e-05
0.03125 -1.807e-20 0.0162494 0.000208802
-0.03125 -1.807e-20 0.0162494 0.000210706
0.01625 0 0.0312567 8.18745e-05
-0.01625 -1.807e-20 0.0312567 7.83099e-05
0.035 0 0.00479858 0.000416553
-0.035 -1.0842e-19 0.00479858 0.000369741
0.025 0 0.025 0.000139109
-0.025 0 0.025 0.000135682
0.02375 0 0.02625 0.000127974
-0.02375 0 0.02625 0.000124027
-0.02625 -1.807e-20 0.02375 0.000147284
0.02625 0 0.02375 0.000150069
0.005 0 0.0350537 4.87479e-05
-0.005 0 0.0350537 4.76515e-05
0.0225 0 0.0275 0.000116473
0.0275 0 0.0225 0.000160531
-0.0225 0 0.0275 0.000112288
-0.0275 0 0.0225 0.000158509
-0.03375 -1.807e-20 0.011217 0.000250936
0.03375 -1.807e-20 0.011217 0.000251662
0.01125 1.807e-20 0.0337829 5.97016e-05
-0.01125 0 0.0337829 5.71584e-05
0.02875 -1.807e-20 0.02125 0.000170796
-0.02875 5.42101e-20 0.02125 0.000169617
0.02125 -1.807e-20 0.0287506 0.000104914
-0.02125 -1.807e-20 0.0287506 0.000100604
0.035 0 0.00736572 0.000318102
-0.035 0 0.00736572 0.000299925
0.0325 0 0.0149988 0.000218298
-0.0325 0 0.0149988 0.000220398
0.015 0 0.0325122 7.08794e-05
-0.015 0 0.0325122 6.75229e-05
0.0075 0 0.0350537 4.90231e-05
-0.0075 0 0.0350537 4.73783e-05
0.035881 1.0842e-19 0 0.000616612
-0.035881 0 0 0.000498397
0.03 0 0.02 0.00018057
-0.03 0 0.02 0.00018027
0.02 0 0.0300012 9.34967e-05
-0.02 0 0.0300012 8.92563e-05
0.03625 -9.03502e-21 0.00116943 0.000608735
-0.03625 -1.807e-20 0.00116943 0.000492595
0.00125 0 0.036344 3.83717e-05
-0.00125 0 0.036344 3.8112e-05
0.035 0 0.00994629 0.000268344
-0.035 0 0.00994629 0.00026385
0.03625 -9.03502e-21 0.00356873 0.000483455
-0.03625 0 0.00356873 0.000414655
-0.03375 -1.807e-20 0.0137433 0.000230151
0.03375 -1.807e-20 0.0137433 0.000228106
-0.03125 0 0.01875 0.000190791
0.03125 0 0.01875 0.000190181
-0.01875 -1.807e-20 0.0312567 7.80314e-05
0.01875 -1.807e-20 0.0312567 8.21443e-05
0.01 0 0.0350537 4.92985e-05
-0.01 0 0.0350537 4.71054e-05
0.01375 0 0.0337829 5.99837e-05
-0.01375 0 0.0337829 5.6875e-05
-0.00375 3.61401e-20 0.036344 3.78518e-05
0.00375 1.807e-20 0.036344 3.86338e-05
-0.036619 0 0 0.000497355
0.036619 -5.42101e-20 0 0.000617984
0.03625 -9.03502e-21 0.00608215 0.00035541
-0.03625 -1.807e-20 0.00608215 0.000325405
0.00625 1.807e-20 0.036344 3.8895e-05
-0.00625 -1.807e-20 0.036344 3.75934e-05
0.0325 0 0.0175 0.000199481
-0.0325 0 0.0175 0.000200849
0.0175 0 0.0325122 7.11562e-05
-0.0175 0 0.0325122 6.7241e-05
0.02625 3.61401e-20 0.02625 0.000128171
-0.02625 -1.807e-20 0.02625 0.000123809
0.035 0 0.0124878 0.000239392
-0.035 0 0.0124878 0.000240341
0.025 0 0.0275 0.000116697
0.0275 0 0.025 0.00013927
-0.025 0 0.0275 0.000112047
-0.0275 0 0.025 0.0001355
0.0125 0 0.0350537 4.95736e-05
-0.0125 0 0.0350537 4.68325e-05
-0.03625 -1.807e-20 0.008656 0.000278327
0.03625 -1.807e-20 0.008656 0.000287975
0.02875 5.42101e-20 0.02375 0.000150192
-0.02875 -3.61401e-20 0.02375 0.000147141
0.02375 0 0.0287506 0.000105161
-0.02375 -1.807e-20 0.0287506 0.000100344
0.00875 3.61401e-20 0.036344 3.91586e-05
-0.00875 -9.03502e-21 0.036344 3.73344e-05
0.03375 -1.807e-20 0.0162494 0.000208757
-0.03375 -1.807e-20 0.0162494 0.000210811
0.01625 0 0.0337829 6.02649e-05
-0.01625 -1.807e-20 0.0337829 5.65919e-05
-0.0375 -1.0842e-19 0 0.000496117
0.0375 -1.0842e-19 0 0.000619637
0.03 0 0.0225 0.000160617
-0.03 0 0.0225 0.000158409
0.0225 0 0.0300012 9.37556e-05
-0.0225 0 0.0300012 8.8986e-05
0.0375 1.0842e-19 0.00233887 0.000552687
-0.0375 -1.0842e-19 0.00233887 0.000455548
7.35431e-10 0 0.0376343 2.96195e-05
0.0025 0 0.0376343 2.9849e-05
-0.0025 0 0.0376343 2.93913e-05
0.03125 -1.807e-20 0.02125 0.000170845
-0.03125 0 0.02125 0.000169563
0.02125 -1.807e-20 0.0312567 8.24133e-05
-0.02125 0 0.0312567 7.77535e-05
0.0375 -1.0842e-19 0.00479858 0.000418647
-0.0375 -1.0842e-19 0.00479858 0.000368463
0.03625 -1.807e-20 0.011217 0.0002518
-0.03625 -3.61401e-20 0.011217 0.000251012
0.005 0 0.0376343 3.00797e-05
-0.005 0 0.0376343 2.91642e-05
0.01125 -1.807e-20 0.036344 3.94213e-05
-0.01125 -1.807e-20 0.036344 3.70774e-05
0.035 0 0.0149988 0.000218263
-0.035 0 0.0149988 0.000220521
0.015 0 0.0350537 4.98487e-05
-0.015 0 0.0350537 4.65598e-05
0.0325 0 0.02 0.000180587
-0.0325 0 0.02 0.000180259
0.02 0 0.0325122 7.14319e-05
-0.02 0 0.0325122 6.69586e-05
0.0375 0 0.00736572 0.000319016
-0.0375 0 0.00736572 0.000299516
0.0075 0 0.0376343 3.03115e-05
-0.0075 0 0.0376343 2.89383e-05
-0.038381 -5.42101e-20 0 0.000494881
0.038381 -5.42101e-20 0 0.000621291
0.03375 -1.807e-20 0.01875 0.000190168
-0.03375 -1.807e-20 0.01875 0.000190824
0.01875 1.807e-20 0.0337829 6.05451e-05
-0.01875 1.807e-20 0.0337829 5.63079e-05
-0.03875 -9.03502e-21 0.00116943 0.000489192
0.03875 -9.03502e-21 0.00116943 0.000613305
0.03625 3.61401e-20 0.0137433 0.000228094
-0.03625 0 0.0137433 0.000230285
0.0375 0 0.00994629 0.000268659
-0.0375 0 0.00994629 0.000263831
0.01375 0 0.036344 3.96851e-05
-0.01375 0 0.036344 3.68197e-05
0.0275 0 0.0275 0.00011692
-0.0275 0 0.0275 0.000111804
-0.03875 0 0.00356873 0.000412778
0.03875 9.03502e-21 0.00356873 0.000486349
0.02875 -1.807e-20 0.02625 0.000128366
-0.02875 0 0.02625 0.000123588
0.02625 -1.807e-20 0.0287506 0.000105407
-0.02625 0 0.0287506 0.000100082
0.00125 0 0.0389178 2.1741e-05
-0.00125 -1.807e-20 0.0389179 2.15491e-05
0.01 0 0.0376343 3.05444e-05
-0.01 0 0.0376343 2.87135e-05
0.03 0 0.025 0.00013943
-0.03 0 0.025 0.000135316
0.025 0 0.0300012 9.40137e-05
-0.025 0 0.0300012 8.87144e-05
-0.00375 0 0.0389179 2.13572e-05
0.00375 0 0.0389179 2.19363e-05
-0.039119 0 0 0.000493852
0.039119 0 0 0.000622676
0.035 0 0.0175 0.000199451
-0.035 0 0.0175 0.000200921
0.0175 0 0.0350537 5.01233e-05
-0.0175 0 0.0350537 4.62873e-05
-0.03875 0 0.00608215 0.000324686
0.03875 1.807e-20 0.00608215 0.000356795
-0.03125 0 0.02375 0.000146997
0.03125 -1.807e-20 0.02375 0.000150315
0.02375 -1.807e-20 0.0312567 8.26811e-05
-0.02375 -1.807e-20 0.0312567 7.74738e-05
0.00625 0 0.0389179 2.21311e-05
-0.00625 1.807e-20 0.0389179 2.11681e-05