# kMean  POINT_DATA 24316
# x  y  z  kMean
0 -0.000880994 1.49366e-08 0.000545982
0 0.000368999 0.00116943 0.000545904
0 0.00161903 1.55962e-08 0.000545846
1.0842e-19 -0.00213101 0.00116943 0.000546061
0 -0.000881008 0.00233888 0.000488552
0 0.00161899 0.00233888 0.00048799
2.1684e-19 0.002869 0.00116943 0.000545789
0 -0.00338099 1.48198e-08 0.000546133
-1.0842e-19 0.000368999 0.00356872 0.000429706
-8.27181e-25 -0.00338101 0.00233888 0.000489113
-3.30872e-24 0.00411903 1.63095e-08 0.000545638
-1.0842e-19 -0.002131 0.00356872 0.0004307
1.0842e-19 0.002869 0.00356872 0.000428708
0 0.00411899 0.00233888 0.000487387
0 -0.004631 0.00116943 0.000546204
0 -0.000881004 0.00479858 0.00037274
0 0.001619 0.00479858 0.000371813
1.0842e-19 0.005369 0.00116944 0.000545488
-1.0842e-19 -0.004631 0.00356872 0.00043166
-4.1359e-25 -0.003381 0.00479858 0.000373658
3.30872e-24 -0.00588099 1.48843e-08 0.000546244
0 0.000369 0.00608215 0.000314024
0 0.004119 0.00479858 0.000370878
-8.27181e-25 -0.00588101 0.00233888 0.000489651
1.0842e-19 -0.002131 0.00608215 0.000314867
-1.0842e-19 0.005369 0.00356873 0.000427697
3.30872e-24 0.00661901 1.59072e-08 0.000545405
0 0.002869 0.00608215 0.000313154
0 0.00661899 0.00233888 0.000486774
1.0842e-19 -0.007131 0.00116944 0.000546284
0 -0.000881001 0.00736572 0.000286179
0 0.001619 0.00736572 0.00028547
4.1359e-25 -0.005881 0.00479858 0.000374587
0 -0.004631 0.00608215 0.000315742
-1.0842e-19 0.00786899 0.00116944 0.000545321
-1.0842e-19 -0.007131 0.00356872 0.000432643
-2.06795e-25 -0.003381 0.00736572 0.000286892
1.0842e-19 0.005369 0.00608215 0.000312297
0 0.006619 0.00479858 0.000369947
0 -0.00838099 1.15109e-09 0.000546337
-1.03398e-25 0.004119 0.00736572 0.000284757
1.0842e-19 0.007869 0.00356873 0.000426712
0 0.000369 0.00865601 0.00025758
0 -0.008381 0.00233887 0.000490179
1.0842e-19 -0.002131 0.008656 0.000258143
0 0.009119 1.27743e-08 0.00054523
0 0.002869 0.008656 0.000257019
0 -0.007131 0.00608215 0.000316639
0 0.009119 0.00233887 0.000486191
1.03398e-25 -0.005881 0.00736572 0.000287621
0 -0.008381 0.00479858 0.000375511
1.0842e-19 -0.009631 0.00116943 0.00054639
1.0842e-19 -0.004631 0.00865601 0.000258712
0 0.006619 0.00736572 0.000284045
0 0.007869 0.00608215 0.000311425
2.58494e-26 -0.000881 0.00994629 0.000242621
0 0.001619 0.00994629 0.000242196
0 0.005369 0.00865601 0.000256458
1.0842e-19 -0.009631 0.00356872 0.0004336
0 0.009119 0.00479858 0.000369008
0 0.010369 0.00116943 0.000545138
5.16988e-26 -0.003381 0.00994629 0.000243051
0 0.004119 0.00994629 0.000241774
-1.65436e-24 -0.010881 1.38009e-08 0.000546428
0 0.010369 0.00356872 0.0004257
0 -0.010881 0.00233886 0.00049069
0 -0.008381 0.00736572 0.000288347
2.1684e-19 -0.007131 0.00865601 0.000259285
0 0.000369 0.011217 0.000227314
1.0842e-19 -0.009631 0.00608215 0.000317496
-1.0842e-19 -0.002131 0.011217 0.000227607
0 -0.005881 0.00994629 0.000243484
1.0842e-19 0.002869 0.011217 0.00022703
0 0.011619 7.04485e-09 0.000545027
2.1684e-19 0.007869 0.008656 0.000255898
0 0.009119 0.00736572 0.000283328
0 0.011619 0.00233887 0.000485582
0 -0.010881 0.00479858 0.000376416
-2.58494e-26 0.006619 0.00994629 0.000241354
0 0.010369 0.00608215 0.000310541
1.0842e-19 -0.004631 0.011217 0.000227904
-1.0842e-19 -0.012131 0.00116943 0.000546466
-1.03398e-25 0.0119734 0.00233887 0.000485493
1.0842e-19 0.005369 0.011217 0.000226747
-1.03398e-25 0.0115493 0.00479858 0.000368081
5.16988e-26 0.011619 0.00465936 0.000374706
0 -0.000881 0.0124878 0.000217105
2.48154e-24 0.0125411 0 0.00054495
-2.8774e-21 0.011619 0.00479858 0.000368054
-3.23117e-27 0.001619 0.0124878 0.000216919
0 -0.012131 0.00356872 0.000434517
1.0842e-19 0.012869 0.00116944 0.000544917
-6.46235e-27 -0.003381 0.0124878 0.000217297
-2.1684e-19 -0.009631 0.00865601 0.000259863
-2.58494e-26 -0.008381 0.00994629 0.000243918
0 -0.010881 0.00736572 0.000289074
-3.23117e-27 0.004119 0.0124878 0.000216739
0 -0.007131 0.011217 0.000228199
1.0842e-19 0.012869 0.00356873 0.000424668
-3.30872e-24 -0.013381 1.32649e-08 0.000546557
0 0.0111883 0.00736572 0.000282733
0 0.009119 0.00994629 0.000240936
-1.0842e-19 0.010369 0.008656 0.000255346
1.0842e-19 -0.012131 0.00608215 0.000318385
0 -0.013381 0.00233886 0.000491204
0 0.007869 0.011217 0.000226467
-1.0842e-19 0.000369 0.0137433 0.000206748
-5.61059e-21 0.011619 0.00736572 0.000282609
0 -0.005881 0.0124878 0.00021749
0 -0.002131 0.0137433 0.000206838
1.0842e-19 0.002869 0.0137433 0.000206668
0 0.014119 1.20546e-08 0.000544818
0 0.006619 0.0124878 0.00021656
0 -0.013381 0.00479858 0.000377308
0 0.012869 0.00608215 0.000309656
3.82579e-20 0.014119 0.00233887 0.000484954
2.1684e-19 -0.004631 0.0137433 0.000206925
-2.1684e-19 -0.014631 0.00116943 0.000546647
0 -0.010881 0.00994629 0.000244355
-1.0842e-19 0.005369 0.0137433 0.000206593
-2.1684e-19 -0.009631 0.011217 0.00022849
-3.23117e-27 0.0109403 0.00994629 0.000240635
-1.0842e-19 -0.012131 0.008656 0.000260446
-6.61207e-20 0.014119 0.00479858 0.000367078
-4.03897e-28 -0.000881 0.0149988 0.000197854
0 -0.008381 0.0124878 0.000217682
-1.0842e-19 -0.014631 0.00356872 0.000435413
0 0.001619 0.0149988 0.000197841
0 -0.013381 0.00736572 0.0002898
1.0842e-19 0.010369 0.011217 0.000226187
-9.48666e-21 0.011619 0.00994629 0.000240523
0 -0.003381 0.0149988 0.000197871
-1.0842e-19 0.015369 0.00116944 0.00054472
0 0.009119 0.0124878 0.000216381
0 -0.007131 0.0137433 0.00020702
1.0842e-19 0.012869 0.008656 0.000254795
0 0.004119 0.0149988 0.000197835
1.0842e-19 0.015369 0.00356873 0.000423594
0 0.007869 0.0137433 0.000206515
-1.0842e-19 -0.014631 0.00608215 0.000319251
-1.65436e-24 -0.015881 1.31767e-08 0.000546677
-1.47912e-19 0.014119 0.00736572 0.000281881
8.27181e-25 -0.015881 0.00233887 0.000491716
0 -0.005881 0.0149988 0.000197893
1.0842e-19 0.000369 0.0162494 0.000188955
0 -0.002131 0.0162494 0.000188899
0 0.006619 0.0149988 0.000197829
-8.07794e-28 0.0107664 0.0124878 0.000216267
1.0842e-19 0.002869 0.0162494 0.000189018
0 -0.012131 0.011217 0.000228788
0 0.015369 0.00608215 0.000308747
3.23117e-27 -0.010881 0.0124878 0.000217875
-4.1359e-25 -0.015881 0.00479858 0.000378188
0 0.016619 1.58648e-08 0.000544639
-2.58494e-26 -0.013381 0.00994629 0.000244791
0 -0.009631 0.0137433 0.000207107
1.26893e-19 0.016619 0.00233888 0.000484327
0 -0.004631 0.0162494 0.000188847
1.0842e-19 -0.014631 0.008656 0.000261014
-7.31564e-20 0.011619 0.0124878 0.000216207
0 0.012869 0.011217 0.000225919
-1.0842e-19 0.005369 0.0162494 0.000189084
0 -0.017131 0.00116943 0.000546706
-4.03897e-28 -0.008381 0.0149988 0.000197916
0 0.010369 0.0137433 0.000206438
0 0.014119 0.00994629 0.000240112
-4.8371e-20 0.016619 0.00479858 0.000366076
1.0842e-19 -0.017131 0.00356872 0.000436338
0 -0.015881 0.00736572 0.000290507
-1.95638e-28 -0.000881 0.0174897 0.000180139
-1.91544e-20 -0.000881 0.0175 0.000180066
0 0.009119 0.0149988 0.000197825
0 0.001619 0.0174862 0.00018027
1.58401e-19 0.001619 0.0175 0.000180173
0 0.015369 0.008656 0.000254229
-1.0842e-19 -0.007131 0.0162494 0.000188804
1.57772e-30 -0.003381 0.0174919 0.00018002
-1.57772e-30 -0.003381 0.0175 0.000179962
0 0.017869 0.00116944 0.000544558
-7.88861e-29 0.004119 0.0174841 0.000180397
-1.91509e-20 0.004119 0.0175 0.000180285
1.0842e-19 0.007869 0.0162494 0.000189149
0 0.016619 0.00736572 0.000281138
0 -0.017131 0.00608215 0.000320083
1.0842e-19 0.017869 0.00356873 0.000422508
0 -0.013381 0.0124878 0.000218074
1.0842e-19 -0.012131 0.0137433 0.000207204
1.51461e-28 0.0106082 0.0149988 0.000197825
0 -0.018381 1.33764e-08 0.000546786
2.1684e-19 -0.014631 0.011217 0.000229084
1.02552e-28 -0.005881 0.0174922 0.000179921
0 -0.005881 0.0175 0.000179865
0 -0.018381 0.00233887 0.000492232
0 -0.010881 0.0149988 0.000197942
2.52435e-29 0.006619 0.0174831 0.000180519
5.84013e-20 0.006619 0.0175 0.000180401
-2.58494e-26 -0.015881 0.00994629 0.000245221
1.0842e-19 0.000369 0.01875 0.000171284
0 0.012869 0.0137433 0.000206367
1.55259e-19 0.014119 0.0124878 0.000216042
0 -0.002131 0.01875 0.000171127
-1.0842e-19 0.017869 0.00608215 0.000307812
0 -0.009631 0.0162494 0.000188759
0 0.002869 0.01875 0.000171437
-1.84089e-20 0.011619 0.0149988 0.000197826
4.1359e-25 -0.018381 0.00479858 0.000379067
1.0842e-19 0.015369 0.011217 0.000225655
0 0.019119 3.74342e-09 0.000544448
0 -0.017131 0.008656 0.000261573
-4.20555e-20 0.019119 0.00233888 0.000483693
-1.0842e-19 0.010369 0.0162494 0.000189223
0 -0.004631 0.01875 0.000170978
-4.97158e-20 0.016619 0.00994629 0.000239701
-2.05104e-28 -0.008381 0.017491 0.000179839
-1.91544e-20 -0.008381 0.0175 0.000179774
0 0.005369 0.01875 0.000171605
0 -0.019631 0.00116943 0.000546866
-5.36425e-29 0.009119 0.0174725 0.000180711
-7.01648e-20 0.019119 0.00479858 0.000365066
0 0.009119 0.0175 0.000180521
-1.03398e-25 -0.018381 0.00736572 0.000291198
-1.0842e-19 0.017869 0.008656 0.000253666
-1.0842e-19 -0.019631 0.00356872 0.000437271
-9.67102e-20 -0.000881 0.02 0.000161926
0 -0.007131 0.01875 0.000170836
-1.91544e-20 0.001619 0.02 0.000162114
0 -0.014631 0.0137433 0.000207309
0 -0.013381 0.0149988 0.000197973
0 -0.015881 0.0124878 0.000218275
0 -0.012131 0.0162494 0.000188722
8.08456e-20 -0.003381 0.02 0.000161742
0 0.007869 0.01875 0.00017177
1.0842e-19 0.020369 0.00116944 0.000544337
-1.91544e-20 0.004119 0.02 0.000162306
-1.0842e-19 -0.017131 0.011217 0.000229383
9.56159e-21 0.019119 0.00736572 0.000280383
0 -0.019631 0.00608215 0.000320907
-8.04638e-29 -0.010881 0.0174886 0.000179768
9.1454e-21 0.014119 0.0149988 0.000197834
-1.57772e-30 -0.010881 0.0175 0.000179684
0 0.015369 0.0137433 0.000206307
2.1684e-19 0.020369 0.00356873 0.000421425
0 0.012869 0.0162494 0.000189297
-2.4999e-20 0.016619 0.0124878 0.000215885
-9.67102e-20 -0.005881 0.02 0.000161566
0 -0.020881 1.38596e-08 0.000546897
0 -0.018381 0.00994629 0.000245647
5.84013e-20 0.011619 0.0175 0.000180647
0 -0.020881 0.00233887 0.000492753
-1.91544e-20 0.006619 0.02 0.000162503
0 -0.009631 0.01875 0.000170699
0 0.017869 0.011217 0.000225403
1.0842e-19 0.000369 0.02125 0.000152757
0 0.020369 0.00608215 0.000306874
1.0842e-19 -0.002131 0.02125 0.000152536
0 -0.020881 0.00479858 0.000379952
0 0.010369 0.01875 0.000171943
1.0842e-19 0.002869 0.02125 0.000152977
-1.0842e-19 -0.019631 0.00865601 0.000262121
9.52931e-20 0.019119 0.00994629 0.000239284
0 0.021619 1.55331e-08 0.000544258
-9.67102e-20 -0.008381 0.02 0.000161394
3.71297e-20 0.021619 0.00233888 0.000483055
0 -0.004631 0.02125 0.000152326
-4.03897e-28 -0.015881 0.0149988 0.000198009
2.1684e-19 -0.014631 0.0162494 0.000188683
-1.0842e-19 0.005369 0.02125 0.000153203
-1.0842e-19 -0.017131 0.0137433 0.000207413
-1.91544e-20 0.009119 0.02 0.000162705
-9.30856e-29 -0.013381 0.0174867 0.000179697
8.08456e-20 -0.013381 0.0175 0.000179599
0 0.020369 0.008656 0.000253083
-1.03398e-25 -0.020881 0.00736572 0.000291889
9.2789e-21 0.021619 0.00479858 0.000364046
0 -0.022131 0.00116943 0.000546928
-3.23117e-27 -0.018381 0.0124878 0.000218478
0 -0.012131 0.01875 0.00017056
-2.1684e-19 0.015369 0.0162494 0.000189385
-3.59904e-20 0.016619 0.0149988 0.00019785
-1.0842e-19 -0.007131 0.02125 0.000152122
0 -0.022131 0.00356872 0.000438215
1.58394e-19 0.014119 0.0175 0.000180779
3.28979e-21 -0.000881 0.0225 0.000142841
0 0.017869 0.0137433 0.000206253
3.28979e-21 0.001619 0.0225 0.000143081
0 -0.019631 0.011217 0.000229682
0 0.007869 0.02125 0.000153433
0 0.012869 0.01875 0.000172127
-9.67102e-20 -0.003381 0.0225 0.000142606
-9.67102e-20 -0.010881 0.02 0.000161225
1.36284e-19 0.019119 0.0124878 0.000215732
1.87088e-20 0.021619 0.00736572 0.00027962
8.08456e-20 0.004119 0.0225 0.000143326
-1.0842e-19 0.022869 0.00116944 0.000544178
0 -0.022131 0.00608215 0.000321743
0 -0.020881 0.00994629 0.000246075
1.58401e-19 0.011619 0.02 0.000162916
1.0842e-19 0.022869 0.00356873 0.00042032
1.0842e-19 0.020369 0.011217 0.000225132
-3.54881e-20 -0.005881 0.0225 0.000142377
1.0842e-19 -0.009631 0.02125 0.000151917
0 -0.023381 1.46374e-08 0.000546968
-1.91544e-20 0.006619 0.0225 0.000143574
0 -0.023381 0.00233887 0.000493248
-1.0842e-19 -0.017131 0.0162494 0.000188655
-4.41762e-29 -0.015881 0.0174862 0.000179622
-1.57772e-30 -0.015881 0.0175 0.00017952
1.0842e-19 0.010369 0.02125 0.000153673
2.1684e-19 0.022869 0.00608215 0.000305924
1.27227e-19 -0.018381 0.0149988 0.00019805
-1.0842e-19 0.000369 0.02375 0.000133164
0 -0.022131 0.008656 0.000262678
0 -0.014631 0.01875 0.000170434
-9.43109e-20 0.021619 0.00994629 0.00023886
0 -0.002131 0.02375 0.000132907
0 -0.023381 0.00479858 0.000380836
-1.65436e-24 0.0239179 0 0.000544078
0 0.002869 0.02375 0.000133426
0 -0.019631 0.0137433 0.000207525
3.28979e-21 -0.008381 0.0225 0.000142153
3.28979e-21 -0.013381 0.02 0.000161062
0 0.024119 1.35896e-09 0.000544063
0 0.024119 0.000600548 0.00052823
-1.9162e-20 0.016619 0.0175 0.000180917
2.1684e-19 0.017869 0.0162494 0.000189475
0 -0.004631 0.02375 0.000132654
5.27096e-20 0.024119 0.00233887 0.000482401
-1.0842e-19 0.015369 0.01875 0.000172308
-1.91544e-20 0.009119 0.0225 0.000143828
-1.09662e-20 0.019119 0.0149988 0.000197875
-3.23117e-27 -0.020881 0.0124878 0.000218686
0 0.005369 0.02375 0.000133696
0 0.022869 0.00865601 0.000252504
1.0842e-19 -0.012131 0.02125 0.000151723
5.84013e-20 0.014119 0.02 0.000163131
-1.03398e-25 -0.023381 0.00736572 0.00029259
2.1684e-19 0.020369 0.0137433 0.000206219
-1.02533e-20 0.024119 0.00479858 0.000363016
1.0842e-19 -0.024631 0.00116943 0.000547008
1.0842e-19 -0.007131 0.02375 0.000132407
0 -0.022131 0.011217 0.000229989
-1.0842e-19 0.012869 0.02125 0.000153919
0 -0.024631 0.00356872 0.000439122
-1.95256e-20 0.021619 0.0124878 0.000215579
-9.67102e-20 -0.010881 0.0225 0.000141935
-3.54881e-20 -0.000881 0.025 0.000122746
0 0.007869 0.02375 0.000133964
6.45119e-20 0.001619 0.025 0.000123002
5.89066e-21 0.024119 0.00736572 0.000278863
-3.54881e-20 -0.003381 0.025 0.000122492
8.08456e-20 0.011619 0.0225 0.000144088
3.28979e-21 0.004119 0.025 0.000123263
7.88861e-30 -0.018381 0.0174859 0.000179553
-1.0842e-19 -0.024631 0.00608215 0.000322593
-1.57772e-30 -0.018381 0.0175 0.000179448
0 0.025369 0.00116944 0.000543947
1.0842e-19 -0.017131 0.01875 0.000170312
0 -0.023381 0.00994629 0.000246506
0 0.022869 0.011217 0.000224865
0 -0.019631 0.0162494 0.000188633
-3.54881e-20 -0.015881 0.02 0.000160906
1.0842e-19 0.025369 0.00356872 0.000419187
1.0842e-19 -0.009631 0.02375 0.000132167
-9.67102e-20 -0.005881 0.025 0.000122244
0 -0.020881 0.0149988 0.000198096
0 -0.014631 0.02125 0.000151532
8.08456e-20 0.006619 0.025 0.000123529
0 -0.025881 1.52949e-08 0.000547032
-1.0842e-19 0.017869 0.01875 0.0001725
-1.0842e-19 0.010369 0.02375 0.00013424
-1.91647e-20 0.019119 0.0175 0.000181063
-8.27181e-25 -0.025881 0.00233887 0.000493729
-1.91544e-20 0.016619 0.02 0.000163351
-1.0842e-19 -0.022131 0.0137433 0.000207639
-1.0842e-19 0.020369 0.0162494 0.000189575
0 0.025369 0.00608215 0.000304996
-8.6221e-20 0.024119 0.00994629 0.000238441
0 -0.024631 0.008656 0.00026324
6.45119e-20 -0.013381 0.0225 0.000141724
0 0.015369 0.02125 0.000154168
0 0.000369 0.02625 0.000112585
-7.65609e-20 0.021619 0.0149988 0.000197907
-4.1359e-25 -0.025881 0.00479858 0.000381706
0 -0.002131 0.02625 0.000112328
-1.91544e-20 -0.008381 0.025 0.000122
-1.0842e-19 0.002869 0.02625 0.000112835
3.23117e-27 -0.023381 0.0124878 0.000218895
5.84013e-20 0.014119 0.0225 0.000144354
8.08456e-20 0.009119 0.025 0.000123799
0 0.026619 5.14573e-09 0.000543816
1.0842e-19 -0.004631 0.02625 0.00011208
0 -0.012131 0.02375 0.000131934
-2.1684e-19 0.022869 0.0137433 0.000206175
4.1359e-25 0.026619 0.00201023 0.000490436
-6.27304e-20 0.026619 0.00233887 0.00048171
-1.0842e-19 0.005369 0.02625 0.000113094
1.0842e-19 0.025369 0.008656 0.000251932
0 -0.025881 0.00736572 0.000293288
-1.0842e-19 0.012869 0.02375 0.000134521
2.58949e-20 0.026619 0.00479858 0.000361971
-1.0842e-19 -0.024631 0.011217 0.00023029
1.0842e-19 -0.019631 0.01875 0.000170195
-1.0842e-19 -0.027131 0.00116943 0.000547056
4.82422e-21 0.024119 0.0124878 0.000215426
3.28979e-21 -0.018381 0.02 0.000160756
0 -0.007131 0.02625 0.000111835
1.89327e-29 -0.020881 0.0174848 0.000179493
-1.57772e-30 -0.020881 0.0175 0.000179379
-1.91544e-20 -0.010881 0.025 0.000121761
-1.0842e-19 -0.017131 0.02125 0.000151348
0 -0.027131 0.00356872 0.00044002
-1.0842e-19 0.007869 0.02625 0.000113363
1.0842e-19 -0.022131 0.0162494 0.000188613
3.28979e-21 -0.000881 0.0275 0.000101955
9.78188e-29 -0.000881 0.0275113 0.000101862
-3.54881e-20 -0.015881 0.0225 0.000141517
-3.54838e-20 0.001619 0.0275 0.000102189
2.52435e-29 0.001619 0.0275132 0.00010208
-1.91544e-20 0.011619 0.025 0.000124073
3.84592e-20 0.026619 0.00736572 0.000278105
-1.91544e-20 0.019119 0.02 0.000163582
-1.0842e-19 0.020369 0.01875 0.000172704
-9.67102e-20 -0.003381 0.0275 0.000101724
-8.99301e-29 -0.003381 0.0275133 0.000101614
0 -0.025881 0.00994629 0.000246936
0 0.025369 0.011217 0.000224606
0 0.0276607 0.00233887 0.000481403
0 0.017869 0.02125 0.000154429
0 -0.023381 0.0149988 0.000198142
-2.1684e-19 -0.027131 0.00608215 0.000323415
3.28979e-21 0.004119 0.0275 0.000102424
8.08353e-20 0.021619 0.0175 0.000181216
-1.13596e-28 0.004119 0.0275183 0.000102273
1.0842e-19 0.027869 0.00116944 0.000543686
1.0842e-19 -0.014631 0.02375 0.000131706
0 -0.009631 0.02625 0.000111592
1.58401e-19 0.016619 0.0225 0.000144625
0 0.022869 0.0162494 0.000189681
-1.0842e-19 0.027869 0.00356872 0.000418031
-1.91544e-20 -0.005881 0.0275 0.000101496
3.15544e-30 -0.005881 0.0275304 0.000101246
2.1684e-19 -0.024631 0.0137433 0.000207754
0 0.010369 0.02625 0.000113629
-1.91519e-20 0.006619 0.0275 0.000102667
-1.0842e-19 0.015369 0.02375 0.000134807
-8.36193e-29 0.006619 0.0275228 0.000102478
3.28979e-21 -0.013381 0.025 0.000121528
0 -0.028381 1.56584e-08 0.000547082
8.93301e-20 0.024119 0.0149988 0.000197941
1.20342e-20 0.026619 0.00994629 0.000238029
-8.27181e-25 -0.028381 0.00233888 0.000494202
0 -0.027131 0.008656 0.000263795
0 0.027869 0.00608215 0.000304035
-1.91544e-20 0.014119 0.025 0.000124351
0 -0.025881 0.0124878 0.000219106
5.84013e-20 -0.008381 0.0275 0.000101271
0 0.000369 0.0287506 9.15597e-05
2.06795e-25 -0.028381 0.00479858 0.000382566
1.0842e-19 -0.002131 0.0287506 9.13468e-05
-1.0842e-19 0.025369 0.0137433 0.000206132
-1.0842e-19 0.002869 0.0287506 9.17728e-05
-9.67102e-20 -0.020881 0.02 0.000160609
-1.0842e-19 -0.012131 0.02625 0.000111354
1.0842e-19 -0.019631 0.02125 0.000151168
5.84013e-20 0.009119 0.0275 0.000102913
1.02552e-28 0.009119 0.027519 0.000102755
1.0842e-19 -0.022131 0.01875 0.000170079
3.28979e-21 -0.018381 0.0225 0.000141316
0 0.029119 8.18434e-09 0.000543511
1.0842e-19 -0.004631 0.0287506 9.11365e-05
1.0842e-19 0.027869 0.008656 0.000251361
7.88861e-30 -0.023381 0.017482 0.000179446
8.08456e-20 -0.023381 0.0175 0.000179311
0 0.029119 0.00233887 0.000480974
-1.0842e-19 0.012869 0.02625 0.0001139
-2.1684e-19 0.005369 0.0287506 9.19915e-05
0 -0.017131 0.02375 0.000131482
0 -0.028381 0.00736572 0.000293971
-1.0842e-19 -0.027131 0.011217 0.000230595
-1.57842e-20 0.026619 0.0124878 0.00021528
-1.0842e-19 0.020369 0.02125 0.000154696
-1.91544e-20 0.021619 0.02 0.000163818
0 0.0290936 0.00479858 0.000360915
2.1684e-19 -0.024631 0.0162494 0.000188587
-1.61559e-27 0.029119 0.00479858 0.000360904
5.84013e-20 0.019119 0.0225 0.000144904
0 0.029119 0.00500016 0.000354343
0 0.022869 0.01875 0.000172905
1.58401e-19 -0.010881 0.0275 0.000101048
3.28979e-21 -0.015881 0.025 0.000121297
1.0842e-19 -0.007131 0.0287506 9.09309e-05
0 -0.029631 0.00116943 0.000547107
1.0842e-19 0.017869 0.02375 0.000135096
4.20614e-20 0.024119 0.0175 0.000181375
1.0842e-19 0.007869 0.0287506 9.22162e-05
-2.1684e-19 -0.029631 0.00356872 0.000440929
1.58405e-19 0.011619 0.0275 0.00010316
9.78188e-29 0.011619 0.0275129 0.000103053
0 -0.025881 0.0149988 0.000198191
0 -0.000881 0.0300012 8.12988e-05
-1.91544e-20 0.016619 0.025 0.000124632
0 0.029119 0.00736572 0.000277344
-1.0842e-19 0.027869 0.011217 0.000224358
0 0.001619 0.0300012 8.14955e-05
1.0842e-19 -0.014631 0.02625 0.000111118
0 -0.028381 0.00994629 0.000247365
0 0.025369 0.0162494 0.000189798
0 -0.003381 0.0300012 8.1103e-05
1.0842e-19 -0.029631 0.00608215 0.000324226
0 0.004119 0.0300012 8.16951e-05
0 -0.009631 0.0287506 9.07229e-05
0 0.030369 0.00116944 0.000543337
1.0842e-19 -0.027131 0.0137433 0.000207878
-2.1684e-19 0.015369 0.02625 0.000114175
-1.39188e-19 0.026619 0.0149988 0.00019798
-1.0842e-19 0.010369 0.0287506 9.24393e-05
-1.00974e-28 -0.005881 0.0300012 8.09097e-05
0 0.030369 0.00356872 0.00041684
8.08369e-20 -0.013381 0.0275 0.000100827
0 -0.022131 0.02125 0.000150993
-3.54881e-20 -0.020881 0.0225 0.000141122
0 0.006619 0.0300012 8.18986e-05
-9.67102e-20 -0.023381 0.02 0.000160466
0 0.029119 0.00994629 0.000237624
1.0842e-19 -0.019631 0.02375 0.000131268
-5.04871e-29 -0.00714811 0.0300012 8.0813e-05
-1.0842e-19 -0.029631 0.008656 0.000264338
0 -0.030881 1.59506e-08 0.000547123
-1.91544e-20 0.014119 0.0275 0.000103414
-9.46633e-30 0.014119 0.0275094 0.000103335
1.0842e-19 -0.024631 0.01875 0.000169968
-8.27181e-25 -0.030881 0.00233888 0.000494656
0 0.030369 0.00608215 0.000303077
1.61559e-27 -0.028381 0.0124878 0.000219323
8.08456e-20 -0.018381 0.025 0.000121074
-1.0842e-19 0.027869 0.0137433 0.000206097
-6.0863e-20 -0.008381 0.0300012 8.0719e-05
-4.15987e-20 0.021619 0.0225 0.000145189
2.1684e-19 -0.012131 0.0287506 9.052e-05
-1.0842e-19 0.022869 0.02125 0.000154967
-1.13596e-28 -0.025881 0.0174762 0.000179427
0 -0.025881 0.0175 0.000179247
0 -0.030881 0.00479858 0.000383403
2.1684e-19 0.000369 0.0312567 7.12207e-05
0 0.020369 0.02375 0.000135397
1.0842e-19 -0.002131 0.0312567 7.10413e-05
-1.91544e-20 0.024119 0.02 0.000164059
-1.29247e-26 0.0304635 0.00736572 0.000276937
1.0842e-19 -0.017131 0.02625 0.000110885
2.01948e-28 0.009119 0.0300012 8.21052e-05
1.0842e-19 0.002869 0.0312567 7.14021e-05
-1.91544e-20 0.019119 0.025 0.000124921
-1.0842e-19 0.012869 0.0287506 9.26702e-05
0 0.025369 0.01875 0.000173117
-1.0842e-19 0.030369 0.008656 0.000250807
0 -0.004631 0.0312567 7.08606e-05
0 0.031619 9.52459e-09 0.000543184
1.0842e-19 -0.027131 0.0162494 0.000188573
-1.0842e-19 -0.029631 0.011217 0.000230908
6.30968e-20 0.029119 0.0124878 0.000215141
-3.0262e-20 0.031619 0.00233887 0.000480225
1.0842e-19 0.005369 0.0312567 7.15871e-05
0 -0.030881 0.00736572 0.000294641
1.0842e-19 0.017869 0.02625 0.000114452
8.08456e-20 -0.015881 0.0275 0.000100608
1.42061e-19 0.026619 0.0175 0.000181542
5.93746e-20 -0.010881 0.0300012 8.05291e-05
1.15346e-19 0.031619 0.00479858 0.000359835
0 -0.007131 0.0312567 7.06843e-05
0 -0.028381 0.0149988 0.000198248
8.08517e-20 0.016619 0.0275 0.000103669
-1.87749e-28 0.016619 0.0275078 0.000103604
1.0842e-19 -0.032131 0.00116943 0.000547139
4.03897e-28 0.011619 0.0300012 8.23138e-05
-2.1684e-19 0.007869 0.0312567 7.17728e-05
-1.0842e-19 -0.014631 0.0287506 9.03142e-05
0 0.027869 0.0162494 0.000189915
-2.1684e-19 -0.032131 0.00356873 0.000441769
-1.0842e-19 0.030369 0.011217 0.000224109
0 -0.030881 0.00994629 0.000247789
3.28979e-21 -0.023381 0.0225 0.000140934
0 -0.022131 0.02375 0.000131059
1.29247e-26 0.031619 0.00736572 0.000276587
0 -0.000881 0.0325122 6.14937e-05
0 -0.024631 0.02125 0.000150822
0 0.001619 0.0325122 6.16623e-05
-9.67102e-20 -0.020881 0.025 0.000120858
1.0842e-19 0.015369 0.0287506 9.2906e-05
1.0842e-19 -0.029631 0.0137433 0.000208006
-3.23117e-27 -0.003381 0.0325122 6.13256e-05
1.61559e-27 0.0311463 0.00994629 0.000237299
2.1684e-19 -0.032131 0.00608215 0.000325011
0 -0.009631 0.0312567 7.05113e-05
8.08456e-20 -0.025881 0.02 0.000160328
-1.01806e-19 0.029119 0.0149988 0.000198026
9.60722e-20 0.004119 0.0325122 6.18341e-05
0 -0.019631 0.02625 0.000110663
6.34921e-20 -0.013381 0.0300012 8.03402e-05
1.0842e-19 0.032869 0.00116944 0.000543032
1.0842e-19 0.010369 0.0312567 7.19657e-05
0 0.022869 0.02375 0.000135696
0 -0.027131 0.01875 0.000169863
5.84013e-20 0.024119 0.0225 0.000145479
0 -0.005881 0.0325122 6.11578e-05
5.84013e-20 0.021619 0.025 0.000125214
1.0842e-19 0.032869 0.00356872 0.000415676
-1.91544e-20 -0.018381 0.0275 0.000100394
0 0.025369 0.02125 0.000155247
-1.61559e-27 0.031619 0.00994629 0.000237224
0 0.014119 0.0300012 8.25252e-05
-3.23117e-27 0.006619 0.0325122 6.20076e-05
0 0.020369 0.02625 0.00011474
0 -0.032131 0.008656 0.00026488
-1.91544e-20 0.026619 0.02 0.000164308
8.07794e-28 -0.00720349 0.0325122 6.10708e-05
0 -0.030881 0.0124878 0.000219538
8.99301e-29 -0.028381 0.0174649 0.000179456
-1.0842e-19 0.030369 0.0137433 0.000206074
5.84013e-20 -0.028381 0.0175 0.000179189
0 -0.033381 1.52622e-08 0.000547185
-1.0842e-19 0.032869 0.00608215 0.000302114
0 -0.033381 0.00233888 0.000495102
-1.0842e-19 -0.017131 0.0287506 9.01121e-05
8.08456e-20 0.019119 0.0275 0.000103928
-2.12992e-28 0.019119 0.0275072 0.000103868
-2.1684e-19 -0.012131 0.0312567 7.03359e-05
4.93633e-20 -0.008381 0.0325122 6.09933e-05
-1.0842e-19 0.027869 0.01875 0.00017334
0 -0.033381 0.00479858 0.000384212
0 0.009119 0.0325122 6.21838e-05
0 0.000369 0.0337829 5.18943e-05
-1.0842e-19 -0.029631 0.0162494 0.000188562
1.0842e-19 0.012869 0.0312567 7.21532e-05
0 -0.002131 0.033783 5.17395e-05
1.0842e-19 0.017869 0.0287506 9.31398e-05
0 0.002869 0.033783 5.20532e-05
0 0.0315579 0.0124878 0.000215014
1.94366e-20 -0.015881 0.0300012 8.01522e-05
-1.91558e-20 0.029119 0.0175 0.000181716
-2.1684e-19 0.032869 0.008656 0.000250254
0 0.031619 0.0124878 0.00021501
0 -0.032131 0.011217 0.000231206
0 -0.004631 0.0337829 5.1582e-05
0 0.034119 8.73562e-09 0.000542922
9.41463e-20 -0.033381 0.00736572 0.0002953
2.06795e-25 0.034119 0.00233887 0.000479526
0 0.005369 0.033783 5.22151e-05
1.0842e-19 -0.024631 0.02375 0.000130861
-9.67102e-20 -0.023381 0.025 0.000120648
7.66421e-20 -0.010881 0.0325122 6.08308e-05
3.28979e-21 -0.025881 0.0225 0.00014075
0 0.016619 0.0300012 8.27383e-05
0 -0.030881 0.0149988 0.000198306
0 -0.022131 0.02625 0.000110445
1.0842e-19 0.030369 0.0162494 0.000190039
-1.03398e-25 0.034119 0.00479858 0.000358786
1.0842e-19 -0.027131 0.02125 0.000150657
1.0842e-19 -0.014631 0.0312567 7.01645e-05
3.23117e-27 0.011619 0.0325122 6.23606e-05
-1.0842e-19 -0.007131 0.0337829 5.14255e-05
-1.91544e-20 -0.020881 0.0275 0.000100182
0 -0.034631 0.00116944 0.00054723
-2.1684e-19 0.007869 0.0337829 5.23763e-05
2.52435e-29 0.031619 0.014295 0.000202828
1.58401e-19 -0.028381 0.02 0.000160196
-1.0842e-19 0.032869 0.011217 0.000223864
5.84013e-20 0.024119 0.025 0.000125509
0 0.025369 0.02375 0.000136008
-1.0842e-19 -0.019631 0.0287506 8.99134e-05
-2.1684e-19 -0.034631 0.00356872 0.000442603
0 0.022869 0.02625 0.000115022
1.0842e-19 0.015369 0.0312567 7.23445e-05
6.46235e-27 -0.033381 0.00994629 0.00024821
-1.91544e-20 0.026619 0.0225 0.000145775
2.58494e-26 0.034119 0.00736572 0.000275832
1.0842e-19 -0.032131 0.0137433 0.000208128
5.84013e-20 0.021619 0.0275 0.00010419
-1.37262e-28 0.021619 0.0275071 0.000104131
0 0.031619 0.0149988 0.000198084
0 0.027869 0.02125 0.000155529
-2.58494e-26 -0.000881 0.0350537 4.28539e-05
0 -0.029631 0.01875 0.000169761
2.58494e-26 0.001619 0.0350537 4.29955e-05
1.0842e-19 -0.009631 0.0337829 5.12734e-05
2.36524e-20 -0.013381 0.0325122 6.06687e-05
-1.0842e-19 -0.034631 0.00608215 0.000325789
2.52435e-29 -0.0318113 0.0149988 0.000198329
1.39746e-19 -0.018381 0.0300012 7.99656e-05
0 -0.003381 0.0350537 4.27138e-05
-1.0842e-19 0.020369 0.0287506 9.33783e-05
0 0.004119 0.0350537 4.314e-05
3.28979e-21 0.029119 0.02 0.000164565
2.1684e-19 0.010369 0.0337829 5.2541e-05
-1.26218e-29 0.0320435 0.0149988 0.000198095
-2.1684e-19 0.035369 0.00116944 0.000542812
0 0.014119 0.0325122 6.25366e-05
-1.57772e-30 -0.030881 0.0174151 0.000179786
0 -0.030881 0.0175 0.000179135
0 0.034119 0.00994629 0.000236826
0 -0.005881 0.0350537 4.25736e-05
0 0.035369 0.00356872 0.000414554
8.27181e-25 0.0355721 0 0.000542775
0 0.019119 0.0300012 8.29529e-05
0 0.032869 0.0137433 0.000206067
0 -0.033381 0.0124878 0.000219753
0 -0.017131 0.0312567 6.99915e-05
0 0.006619 0.0350537 4.32863e-05
0 0.030369 0.01875 0.000173572
-1.0842e-19 -0.034631 0.008656 0.000265412
-6.46235e-27 -0.00724127 0.0350537 4.24982e-05
-1.65436e-24 -0.035881 1.26949e-08 0.000547295
0 0.035369 0.00608215 0.000301172
2.01948e-28 -0.0336477 0.0124878 0.000219777
1.0842e-19 -0.012131 0.0337829 5.11243e-05
0 -0.035881 0.00233887 0.000495565
3.28979e-21 -0.025881 0.025 0.000120441
-1.0842e-19 -0.024631 0.02625 0.000110229
2.1684e-19 0.017869 0.0312567 7.25357e-05
0 -0.032131 0.0162494 0.000188556
-5.60719e-20 -0.008381 0.0350537 4.2435e-05
0 -0.027131 0.02375 0.000130662
-1.91544e-20 -0.023381 0.0275 9.99718e-05
-1.91558e-20 0.031619 0.0175 0.000181896
1.0842e-19 0.012869 0.033783 5.2703e-05
1.71129e-20 -0.015881 0.0325122 6.0507e-05
2.06795e-25 -0.035881 0.00479858 0.000385007
3.28979e-21 -0.028381 0.0225 0.000140571
0 0.009119 0.0350537 4.3433e-05
1.0842e-19 -0.022131 0.0287506 8.97053e-05
5.04871e-29 -0.033381 0.0142204 0.000204996
8.07794e-28 0.034119 0.0124878 0.000214887
0 0.000369 0.036344 3.39063e-05
2.1684e-19 -0.034631 0.011217 0.00023152
2.1684e-19 -0.002131 0.036344 3.3781e-05
-1.0842e-19 0.035369 0.00865601 0.000249693
-1.0842e-19 0.002869 0.036344 3.40335e-05
0 -0.029631 0.02125 0.000150501
0 0.025369 0.02625 0.000115312
0 0.016619 0.0325122 6.27141e-05
0 0.026619 0.025 0.000125809
1.29247e-26 0.0364712 0.00233887 0.000478875
-1.46111e-19 -0.020881 0.0300012 7.97752e-05
-1.91544e-20 0.024119 0.0275 0.000104454
-1.54617e-28 0.024119 0.0275076 0.00010439
0 -0.033381 0.0149988 0.000198366
0 0.027869 0.02375 0.000136316
-8.27181e-25 0.036619 6.2941e-09 0.00054267
-3.13663e-20 -0.035881 0.00736572 0.000295953
0 -0.004631 0.036344 3.36583e-05
-1.0842e-19 0.032869 0.0162494 0.000190175
1.04722e-19 0.036619 0.00233887 0.000478834
-1.24232e-20 -0.010881 0.0350537 4.22994e-05
0 0.022869 0.0287506 9.36178e-05
0 0.005369 0.036344 3.41635e-05
1.29247e-26 0.036619 0.00320007 0.000436438
-9.67102e-20 -0.030881 0.02 0.000160066
8.08456e-20 0.029119 0.0225 0.000146075
1.0842e-19 -0.014631 0.0337829 5.0972e-05
-1.0842e-19 -0.019631 0.0312567 6.9819e-05
2.58494e-26 0.011619 0.0350537 4.35797e-05
0 0.036619 0.00479858 0.000357745