# kMean  POINT_DATA 26303
# x  y  z  kMean
1.62142e-08 -1.0842e-19 0 0.000545935
-0.000880991 -5.42101e-20 0 0.000544432
0.000881021 1.0842e-19 0 0.000547422
-0.00161899 1.0842e-19 0 0.000543227
0.00161902 0 0 0.000548644
-0.00124999 -1.807e-20 0.00116943 0.00053647
0.00125001 -9.03502e-21 0.00116943 0.000540557
6.61554e-09 0 0.00233887 0.000488354
-0.0025 -1.0842e-19 0 0.000541841
0.00250002 -1.0842e-19 0 0.000550079
-0.003381 0 0 0.000540446
0.00338102 0 0 0.000551514
-0.0025 -1.0842e-19 0.00233887 0.000485186
0.00250001 1.0842e-19 0.00233887 0.000491557
-0.00125 1.807e-20 0.00356872 0.000428839
0.00125 3.61401e-20 0.00356872 0.0004311
-0.00375 0 0.00116943 0.000532618
0.00375001 0 0.00116944 0.000544521
-0.004119 -5.42101e-20 0 0.000539275
0.00411901 0 0 0.000552722
2.5969e-09 -1.0842e-19 0.00479858 0.000372413
0.00500001 -1.0842e-19 0 0.000554166
-0.00500001 1.0842e-19 0 0.000537871
-0.00375 9.03502e-21 0.00356873 0.000426575
0.00375 3.61401e-20 0.00356873 0.000433408
0.0025 -1.0842e-19 0.00479858 0.000374001
-0.0025 0 0.00479858 0.000370843
-0.005 0 0.00233887 0.000482088
0.00500001 1.0842e-19 0.00233887 0.000494757
-0.00588101 5.42101e-20 0 0.000536463
0.00588101 -1.0842e-19 0 0.000555602
-0.00125 -1.807e-20 0.00608215 0.000317551
0.00125 0 0.00608215 0.000318504
-0.00625 0 0.00116944 0.000528749
0.00625 0 0.00116943 0.0005485
-0.006619 -5.42101e-20 0 0.000535293
0.006619 -5.42101e-20 0 0.000556821
0.005 -1.0842e-19 0.00479858 0.000375627
-0.005 0 0.00479858 0.000369292
-0.00375 -1.807e-20 0.00608215 0.000316611
0.00375 -1.807e-20 0.00608215 0.000319477
-0.00625 9.03502e-21 0.00356873 0.000424357
0.00625 9.03502e-21 0.00356873 0.000435756
8.48585e-10 0 0.00736572 0.000285929
-0.0075 1.0842e-19 0 0.000533898
0.0075 -1.0842e-19 0 0.000558307
0.0025 0 0.00736572 0.000286504
-0.0025 0 0.00736572 0.000285367
-0.0075 -1.0842e-19 0.00233887 0.000479011
0.0075 0 0.00233887 0.000498
-0.008381 5.42101e-20 0 0.000532489
0.008381 5.42101e-20 0 0.000559763
-0.00625 -1.807e-20 0.00608215 0.000315701
0.00625 4.51751e-20 0.00608215 0.000320475
-0.00125 0 0.008656 0.000259226
0.00125 0 0.00865601 0.000259479
-0.00874999 -1.807e-20 0.00116944 0.000524896
0.00875 -9.03502e-21 0.00116944 0.000552552
0.005 0 0.00736572 0.000287095
-0.005 0 0.00736572 0.000284827
0.0075 0 0.00479858 0.00037728
-0.0075 0 0.00479858 0.000367772
-0.00911899 -5.42101e-20 0 0.000531332
0.00911899 0 0 0.000560998
-0.00375 -1.807e-20 0.008656 0.000258988
0.00375 0 0.008656 0.000259733
-0.00875 9.03502e-21 0.00356873 0.000422168
0.00875 0 0.00356873 0.000438131
2.04885e-10 0 0.00994629 0.000242471
-0.00999999 0 0 0.000529966
0.00999999 -1.0842e-19 0 0.000562504
0.0025 0 0.00994629 0.000242548
-0.0025 0 0.00994629 0.000242399
-0.00999999 0 0.00233887 0.000475973
0.01 0 0.00233887 0.000501293
0.0075 0 0.00736572 0.0002877
-0.0075 0 0.00736572 0.000284303
0.00875 1.807e-20 0.00608215 0.00032149
-0.00875 -3.61401e-20 0.00608215 0.000314805
-0.00625 -1.807e-20 0.008656 0.00025878
0.00625 0 0.008656 0.000260005
0.010881 -5.42101e-20 0 0.000564018
-0.010881 -5.42101e-20 0 0.000528593
0.01 0 0.00479858 0.000378966
-0.01 0 0.00479858 0.000366281
0.005 0 0.00994629 0.000242629
-0.005 0 0.00994629 0.000242347
-0.00125 -3.61401e-20 0.011217 0.000228008
0.00125 -3.61401e-20 0.011217 0.000227949
-0.01125 2.71051e-20 0.00116944 0.000521126
0.01125 1.807e-20 0.00116943 0.000556697
-0.011619 5.42101e-20 0 0.00052746
0.011619 1.0842e-19 0 0.000565262
-0.01125 -1.807e-20 0.00356872 0.000420033
0.01125 0 0.00356873 0.000440559
0.00375 1.807e-20 0.011217 0.000227884
-0.00375 1.807e-20 0.011217 0.000228076
-0.00875 -1.807e-20 0.008656 0.000258567
0.00875 1.807e-20 0.00865601 0.000260282
0.01 0 0.00736572 0.000288324
-0.01 0 0.00736572 0.000283792
0.0075 0 0.00994629 0.000242719
-0.0075 0 0.00994629 0.000242305
3.14938e-11 0 0.0124878 0.00021704
0.0125 -1.0842e-19 0 0.000566713
-0.0125 1.0842e-19 0 0.000526111
0.0125 1.0842e-19 0.00233887 0.000504603
-0.0125 1.0842e-19 0.00233887 0.000472987
0.0025 0 0.0124878 0.00021692
-0.0025 0 0.0124878 0.00021716
-0.01125 -2.71051e-20 0.00608215 0.000313933
0.01125 -9.03502e-21 0.00608215 0.000322541
-0.00625 -3.61401e-20 0.011217 0.000228165
0.00625 -3.61401e-20 0.011217 0.00022783
0.013381 0 0 0.000568205
-0.013381 0 0 0.00052476
0.0125 -1.0842e-19 0.00479858 0.000380676
-0.0125 -1.0842e-19 0.00479858 0.000364814
0.005 0 0.0124878 0.000216799
-0.005 0 0.0124878 0.000217295
0.01375 0 0.00116943 0.000560767
-0.01375 2.71051e-20 0.00116944 0.000517404
-0.00125 -3.61401e-20 0.0137433 0.000207015
0.00125 -3.61401e-20 0.0137433 0.000206862
0.01 0 0.00994629 0.000242818
-0.01 0 0.00994629 0.000242266
-0.014119 -1.0842e-19 0 0.000523619
0.014119 -5.42101e-20 0 0.000569446
0.01125 -1.807e-20 0.008656 0.000260574
-0.01125 -1.807e-20 0.008656 0.000258371
-0.01375 1.807e-20 0.00356873 0.000417893
0.01375 9.03502e-21 0.00356872 0.000442979
0.00875 -1.807e-20 0.011217 0.000227782
-0.00875 -1.807e-20 0.011217 0.000228251
0.00375 3.61401e-20 0.0137433 0.000206698
-0.00375 0 0.0137433 0.00020718
0.0125 0 0.00736572 0.000288966
-0.0125 0 0.00736572 0.000283299
0.0075 0 0.0124878 0.000216683
-0.0075 0 0.0124878 0.000217436
2.25352e-12 0 0.0149988 0.000197849
-0.015 0 0 0.000522234
0.015 -1.0842e-19 0 0.000570931
0.01375 -1.807e-20 0.00608215 0.00032359
-0.01375 1.807e-20 0.00608215 0.000313078
0.00625 -1.807e-20 0.0137433 0.000206537
-0.00625 -1.807e-20 0.0137433 0.000207356
0.015 -1.0842e-19 0.00233887 0.000507935
-0.015 1.0842e-19 0.00233887 0.000470003
0.0025 0 0.0149988 0.000197688
-0.0025 0 0.0149988 0.00019801
0.015 -1.0842e-19 0.00479858 0.000382411
-0.015 -1.0842e-19 0.00479858 0.000363369
0.005 0 0.0149988 0.000197523
-0.005 0 0.0149988 0.000198181
-0.015881 1.0842e-19 0 0.000520825
0.015881 -5.42101e-20 0 0.000572413
0.01125 0 0.011217 0.000227743
-0.01125 -3.61401e-20 0.011217 0.000228339
0.0125 0 0.00994629 0.000242929
-0.0125 0 0.00994629 0.000242241
0.01 0 0.0124878 0.000216572
-0.01 0 0.0124878 0.000217578
0.01375 -1.807e-20 0.008656 0.000260878
-0.01375 -1.807e-20 0.008656 0.000258187
0.01625 1.807e-20 0.00116943 0.000564871
-0.01625 9.03502e-21 0.00116943 0.000513583
-0.00875 -1.807e-20 0.0137433 0.000207532
0.00875 -1.807e-20 0.0137433 0.000206381
-0.00125 0 0.0162494 0.000189032
0.00125 0 0.0162494 0.000188878
0.016619 -1.0842e-19 0 0.000573679
-0.016619 0 0 0.000519686
0.01625 0 0.00356872 0.000445478
-0.01625 1.807e-20 0.00356873 0.000415806
-0.00375 -3.61401e-20 0.0162494 0.000189187
0.00375 0 0.0162494 0.00018872
0.015 0 0.00736572 0.000289625
-0.015 0 0.00736572 0.000282821
0.0075 0 0.0149988 0.00019736
-0.0075 0 0.0149988 0.000198356
0.01625 -1.807e-20 0.00608215 0.00032468
-0.01625 9.03502e-21 0.00608215 0.000312249
-0.00625 0 0.0162494 0.000189355
0.00625 -1.807e-20 0.0162494 0.000188566
-0.0175 -1.0842e-19 0 0.000518369
0.0175 0 0 0.000575247
-1.02403e-14 0 0.0175 0.000180103
-0.0175 0 0.00233887 0.000467047
0.0175 -1.0842e-19 0.00233887 0.000511341
0.0125 0 0.0124878 0.000216468
-0.0125 0 0.0124878 0.000217729
0.0025 0 0.0175 0.000179973
-0.0025 0 0.0175 0.000180232
0.01375 -1.807e-20 0.011217 0.000227709
-0.01375 0 0.011217 0.000228447
-0.01125 0 0.0137433 0.000207715
0.01125 0 0.0137433 0.000206226
0.015 0 0.00994629 0.00024305
-0.015 0 0.00994629 0.000242227
0.01 0 0.0149988 0.000197199
-0.01 0 0.0149988 0.000198534
0.0175 -1.0842e-19 0.00479858 0.000384182
-0.0175 0 0.00479858 0.000361958
0.005 0 0.0175 0.000179837
-0.005 0 0.0175 0.000180369
-0.018381 -1.0842e-19 0 0.000517035
0.018381 0 0 0.000576794
0.01625 -1.807e-20 0.008656 0.000261202
-0.01625 -3.61401e-20 0.008656 0.000258019
0.00875 -1.807e-20 0.0162494 0.000188407
-0.00875 0 0.0162494 0.000189517
-0.01875 -9.03502e-21 0.00116943 0.000509925
0.01875 -9.03502e-21 0.00116944 0.00056915
0.00125 -1.807e-20 0.01875 0.000171159
-0.00125 -1.807e-20 0.01875 0.000171255
0.0175 0 0.00736572 0.000290301
-0.0175 0 0.00736572 0.00028236
0.0075 0 0.0175 0.000179702
-0.0075 0 0.0175 0.000180508
0.01875 4.51751e-20 0.00356873 0.000447995
-0.01875 1.807e-20 0.00356873 0.000413755
0.019119 1.0842e-19 0 0.000578092
-0.019119 5.42101e-20 0 0.00051593
0.00375 0 0.01875 0.000171049
-0.00375 0 0.01875 0.000171358
0.01375 -1.807e-20 0.0137433 0.000206078
-0.01375 0 0.0137433 0.000207898
0.015 0 0.0124878 0.00021637
-0.015 0 0.0124878 0.000217887
0.0125 0 0.0149988 0.000197041
-0.0125 0 0.0149988 0.000198716
0.01875 1.807e-20 0.00608215 0.000325779
-0.01875 3.61401e-20 0.00608215 0.000311431
0.01625 -1.807e-20 0.011217 0.000227683
-0.01625 -1.807e-20 0.011217 0.000228562
0.01125 -1.807e-20 0.0162494 0.000188253
-0.01125 0 0.0162494 0.000189692
0.00625 0 0.01875 0.000170942
-0.00625 0 0.01875 0.000171469
-0.02 -1.0842e-19 0 0.000514613
0.02 0 0 0.000579659
-1.02402e-14 0 0.02 0.000161992
0.0175 0 0.00994629 0.000243181
-0.0175 0 0.00994629 0.000242223
-0.02 0 0.00233887 0.000464161
0.02 -1.0842e-19 0.00233887 0.000514807
0.01 0 0.0175 0.000179568
0.0025 0 0.02 0.000161927
-0.0025 0 0.02 0.000162054
-0.01 0 0.0175 0.00018065
0.02 0 0.00479858 0.000385977
-0.02 0 0.00479858 0.000360573
0.005 0 0.02 0.000161856
-0.005 0 0.02 0.000162123
0.01875 1.807e-20 0.008656 0.00026153
-0.01875 -1.807e-20 0.008656 0.000257861
0.00875 -3.61401e-20 0.01875 0.000170832
-0.00875 0 0.01875 0.000171575
-0.020881 5.42101e-20 0 0.000513303
0.020881 0 0 0.000581229
0.015 0 0.0149988 0.000196887
-0.015 0 0.0149988 0.0001989
0.02125 0 0.00116944 0.000573467
-0.02125 -2.71051e-20 0.00116943 0.000506308
-0.01625 -1.807e-20 0.0137433 0.000208089
0.01625 -1.807e-20 0.0137433 0.000205938
-0.01375 0 0.0162494 0.000189861
0.01375 0 0.0162494 0.000188098
0.00125 -3.61401e-20 0.02125 0.000152644
-0.00125 0 0.02125 0.000152668
0.02 0 0.00736572 0.000290994
-0.02 0 0.00736572 0.000281919
0.0075 0 0.02 0.000161784
-0.0075 0 0.02 0.000162192
0.0175 0 0.0124878 0.000216278
-0.0175 0 0.0124878 0.000218051
0.0125 0 0.0175 0.000179436
-0.0125 0 0.0175 0.000180793
-0.02125 0 0.00356873 0.000411734
0.02125 9.03502e-21 0.00356873 0.000450549
0.00375 -1.807e-20 0.02125 0.000152612
-0.00375 -1.807e-20 0.02125 0.000152692
0.021619 0 0 0.000582531
-0.021619 5.42101e-20 0 0.000512202
0.01875 -1.807e-20 0.011217 0.000227665
-0.01875 -1.807e-20 0.011217 0.000228682
0.01125 -3.61401e-20 0.01875 0.000170728
-0.01125 -1.807e-20 0.01875 0.000171688
-0.02125 -2.71051e-20 0.00608215 0.000310645
0.02125 1.807e-20 0.00608215 0.000326917
0.00625 1.807e-20 0.02125 0.000152581
-0.00625 0 0.02125 0.000152725
0.02 0 0.00994629 0.000243322
-0.02 0 0.00994629 0.000242229
0.01 0 0.02 0.000161714
-0.01 0 0.02 0.000162262
-0.0225 -1.0842e-19 0 0.000510877
0.0225 0 0 0.000584077
-1.024e-14 0 0.0225 0.000142925
-0.0225 1.0842e-19 0.00233887 0.000461298
0.0225 -1.0842e-19 0.00233887 0.000518294
0.0025 0 0.0225 0.00014294
-0.0025 0 0.0225 0.000142906
0.02125 -1.807e-20 0.008656 0.000261877
-0.02125 -1.807e-20 0.008656 0.000257726
0.01625 -1.807e-20 0.0162494 0.000187946
-0.01625 0 0.0162494 0.000190038
-0.00875 1.807e-20 0.02125 0.000152749
0.00875 -1.807e-20 0.02125 0.000152548
0.0225 -1.0842e-19 0.00479858 0.0003878
-0.0225 -1.0842e-19 0.00479858 0.000359214
0.0175 0 0.0149988 0.000196738
-0.0175 0 0.0149988 0.000199089
0.005 0 0.0225 0.00014295
-0.005 0 0.0225 0.000142892
0.015 0 0.0175 0.000179304
-0.015 0 0.0175 0.000180936
0.01875 -3.61401e-20 0.0137433 0.000205799
-0.01875 -1.807e-20 0.0137433 0.000208282
0.01375 -1.807e-20 0.01875 0.00017062
-0.01375 -3.61401e-20 0.01875 0.000171795
-0.023381 -5.42101e-20 0 0.00050954
0.023381 0 0 0.000585632
0.02 0 0.0124878 0.000216191
-0.02 0 0.0124878 0.00021822
0.0125 0 0.02 0.000161643
-0.0125 0 0.02 0.000162333
0.0225 0 0.00736572 0.000291704
-0.0225 0 0.00736572 0.000281497
0.0075 0 0.0225 0.000142958
-0.0075 0 0.0225 0.000142878
-0.02375 -9.03502e-21 0.00116943 0.000502658
0.02375 2.71051e-20 0.00116944 0.00057775
0.00125 -1.807e-20 0.02375 0.000133094
-0.00125 -1.807e-20 0.02375 0.000133031
-0.02375 1.807e-20 0.00356873 0.000409737
0.02375 9.03502e-21 0.00356873 0.000453138
0.02125 -1.807e-20 0.011217 0.000227653
-0.02125 -1.807e-20 0.011217 0.000228807
0.01125 -1.807e-20 0.02125 0.000152516
0.00375 0 0.02375 0.000133144
-0.00375 -1.807e-20 0.02375 0.000132973
-0.01125 3.61401e-20 0.02125 0.000152781
0.024119 1.0842e-19 0 0.000586933
-0.024119 5.42101e-20 0 0.00050844
0.02375 -1.807e-20 0.00608215 0.000328058
-0.02375 -1.807e-20 0.00608215 0.000309883
0.00625 -1.807e-20 0.02375 0.000133196
-0.00625 -1.807e-20 0.02375 0.000132918
0.0225 0 0.00994629 0.000243473
-0.0225 0 0.00994629 0.000242245
0.01 0 0.0225 0.000142965
-0.01 0 0.0225 0.000142864
0.0175 0 0.0175 0.000179175
-0.0175 0 0.0175 0.000181081
0.01875 -1.807e-20 0.0162494 0.000187799
-0.01875 -1.807e-20 0.0162494 0.000190214
-0.01625 -1.807e-20 0.01875 0.000171907
0.01625 -1.807e-20 0.01875 0.000170516
0.02 0 0.0149988 0.000196592
-0.02 0 0.0149988 0.000199282
-0.025 -1.0842e-19 0 0.000507148
0.015 0 0.02 0.000161573
-0.015 0 0.02 0.000162402
0.025 -1.0842e-19 0 0.000588493
-1.02399e-14 0 0.025 0.000122836
-0.025 1.0842e-19 0.00233887 0.000458455
0.025 -1.0842e-19 0.00233887 0.000521798
0.0025 0 0.025 0.000122931
-0.0025 0 0.025 0.000122736
0.02375 -1.807e-20 0.008656 0.000262237
-0.02375 -1.807e-20 0.008656 0.000257594
0.02125 -1.807e-20 0.0137433 0.000205666
-0.02125 -3.61401e-20 0.0137433 0.000208482
0.01375 0 0.02125 0.000152483
-0.00875 0 0.02375 0.00013286
-0.01375 -3.61401e-20 0.02125 0.000152806
0.00875 3.61401e-20 0.02375 0.000133243
0.025 -1.0842e-19 0.00479858 0.000389651
-0.025 -1.0842e-19 0.00479858 0.000357881
0.005 0 0.025 0.000123021
-0.005 0 0.025 0.00012264
0.0225 0 0.0124878 0.000216111
-0.0225 0 0.0124878 0.000218395
0.0125 0 0.0225 0.000142972
-0.0125 0 0.0225 0.00014285
-0.025881 0 0 0.000505834
0.025881 0 0 0.000590056
0.025 0 0.00736572 0.000292434
-0.025 0 0.00736572 0.000281089
0.0075 0 0.025 0.000123109
-0.0075 0 0.025 0.000122544
0.02375 -1.807e-20 0.011217 0.000227646
-0.02375 0 0.011217 0.00022894
-0.02625 -9.03502e-21 0.00116943 0.000499071
0.02625 1.807e-20 0.00116943 0.00058206
0.00125 -1.807e-20 0.02625 0.000112587
0.01125 3.61401e-20 0.02375 0.000133292
-0.01125 3.61401e-20 0.02375 0.000132804
-0.00125 -1.807e-20 0.02625 0.000112451
-0.02625 -3.61401e-20 0.00356873 0.000407769
0.02625 0 0.00356873 0.000455756
0.01875 0 0.01875 0.000170411
0.00375 -1.807e-20 0.02625 0.000112713
-0.01875 3.61401e-20 0.01875 0.000172015
-0.00375 0 0.02625 0.000112315
0.02 0 0.0175 0.000179048
0.0175 0 0.02 0.000161503
-0.0175 0 0.02 0.000162473
-0.02 0 0.0175 0.000181229
0.026619 5.42101e-20 0 0.000591367
-0.026619 -5.42101e-20 0 0.000504744
0.02125 3.61401e-20 0.0162494 0.000187654
-0.02125 0 0.0162494 0.000190396
0.01625 -1.807e-20 0.02125 0.000152451
-0.01625 -3.61401e-20 0.02125 0.000152837
0.025 0 0.00994629 0.000243638
-0.025 0 0.00994629 0.000242269
0.01 0 0.025 0.000123197
-0.01 0 0.025 0.000122448
0.02625 0 0.00608215 0.000329235
-0.02625 1.807e-20 0.00608215 0.000309144
0.00625 1.807e-20 0.02625 0.00011284
-0.00625 0 0.02625 0.000112185
0.0225 0 0.0149988 0.000196448
-0.0225 0 0.0149988 0.000199479
0.015 0 0.0225 0.000142979
-0.015 0 0.0225 0.000142835
-0.02375 -1.807e-20 0.0137433 0.000208688
0.02375 -1.807e-20 0.0137433 0.000205535
0.01375 5.42101e-20 0.02375 0.000133337
-0.01375 0 0.02375 0.000132747
-1.024e-14 0 0.0275 0.000102038
0.0275 -1.0842e-19 0 0.000592944
-0.0275 -1.0842e-19 0 0.000503449
0.0275 1.0842e-19 0.00233887 0.000525334
-0.0275 -1.0842e-19 0.00233887 0.000455641
0.0025 0 0.0275 0.000102197
-0.0025 0 0.0275 0.000101875
0.02625 -3.61401e-20 0.008656 0.000262619
-0.02625 -1.807e-20 0.008656 0.000257477
0.00875 0 0.02625 0.000112965
-0.00875 0 0.02625 0.000112048
0.0275 -1.0842e-19 0.00479858 0.000391529
-0.0275 -1.0842e-19 0.00479858 0.000356575
0.025 0 0.0124878 0.000216038
-0.025 0 0.0124878 0.000218578
0.005 0 0.0275 0.000102351
-0.005 0 0.0275 0.000101716
0.0125 0 0.025 0.000123283
-0.0125 0 0.025 0.000122351
0.02 0 0.02 0.000161434
-0.02 0 0.02 0.000162544
-0.01875 -1.807e-20 0.02125 0.000152863
0.02125 0 0.01875 0.000170312
0.01875 0 0.02125 0.000152416
-0.02125 -1.807e-20 0.01875 0.000172132
0.028381 5.42101e-20 0 0.000594489
-0.028381 -5.42101e-20 0 0.000502159
0.0275 0 0.00736572 0.000293183
-0.0275 0 0.00736572 0.0002807
0.0075 0 0.0275 0.000102504
-0.0075 0 0.0275 0.000101556
0.0225 0 0.0175 0.000178923
0.0175 0 0.0225 0.000142985
-0.0175 0 0.0225 0.00014282
-0.0225 0 0.0175 0.000181379
-0.02625 1.807e-20 0.011217 0.000229082
0.02625 -1.807e-20 0.011217 0.000227659
0.01125 -1.807e-20 0.02625 0.000113091
-0.01125 0 0.02625 0.000111916
-0.02875 -4.51751e-20 0.00116943 0.000495517
0.02875 1.807e-20 0.00116943 0.000586382
0.02375 0 0.0162494 0.000187508
-0.02375 -1.807e-20 0.0162494 0.000190578
0.01625 -1.807e-20 0.02375 0.000133385
-0.01625 -3.61401e-20 0.02375 0.000132689
0.00125 0 0.0287506 9.16674e-05
-0.00125 1.807e-20 0.0287506 9.14786e-05
-0.02875 -1.807e-20 0.00356873 0.000405832
0.02875 0 0.00356873 0.000458404
0.00375 1.807e-20 0.0287506 9.18449e-05
-0.00375 -3.61401e-20 0.0287506 9.12964e-05
-0.029119 0 0 0.000501087
0.029119 -5.42101e-20 0 0.00059581
0.025 0 0.0149988 0.000196308
-0.025 0 0.0149988 0.000199679
0.015 0 0.025 0.000123368
-0.015 0 0.025 0.000122252
0.0275 0 0.00994629 0.000243815
-0.0275 0 0.00994629 0.000242305
0.01 0 0.0275 0.000102656
-0.01 0 0.0275 0.000101396
-0.02875 -1.807e-20 0.00608215 0.000308422
0.02875 9.03502e-21 0.00608215 0.000330429
-0.00625 -1.807e-20 0.0287506 9.11148e-05
0.00625 1.807e-20 0.0287506 9.20236e-05
0.02625 -1.807e-20 0.0137433 0.000205414
-0.02625 1.807e-20 0.0137433 0.000208902
-0.01375 -1.807e-20 0.02625 0.000111778
0.01375 3.61401e-20 0.02625 0.000113212
-0.03 -1.0842e-19 0 0.000499811
0.03 -1.0842e-19 0 0.00059743
2.13692e-12 0 0.0300012 8.13681e-05
-0.02875 -3.61401e-20 0.008656 0.000257372
0.02875 -3.61401e-20 0.008656 0.000263007
-0.02125 -1.807e-20 0.02125 0.000152893
0.02125 5.42101e-20 0.02125 0.000152383
-0.00875 -1.807e-20 0.0287506 9.09308e-05
0.00875 -1.807e-20 0.0287506 9.21995e-05
-0.03 -1.0842e-19 0.00233887 0.000452872
0.03 0 0.00233887 0.000528911
0.02 0 0.0225 0.000142991
0.0225 0 0.02 0.000161367
-0.02 0 0.0225 0.000142804
-0.0225 0 0.02 0.000162615
0.0025 0 0.0300012 8.15658e-05
-0.0025 0 0.0300012 8.11679e-05
0.0275 0 0.0124878 0.000215971
-0.0275 0 0.0124878 0.000218768
0.0125 0 0.0275 0.000102808
-0.0125 0 0.0275 0.000101234
0.02375 0 0.01875 0.000170211
0.01875 -1.807e-20 0.02375 0.000133429
-0.01875 3.61401e-20 0.02375 0.000132629
-0.02375 5.42101e-20 0.01875 0.000172243
0.03 0 0.00479858 0.000393443
-0.03 -1.0842e-19 0.00479858 0.000355291
0.005 0 0.0300012 8.17591e-05
-0.005 0 0.0300012 8.09716e-05
0.025 0 0.0175 0.0001788
0.0175 0 0.025 0.000123453
-0.0175 0 0.025 0.000122153
-0.025 0 0.0175 0.000181529
0.02875 -1.807e-20 0.011217 0.000227668
-0.02875 -1.807e-20 0.011217 0.000229233
0.02625 0 0.0162494 0.00018737
-0.02625 -1.807e-20 0.0162494 0.000190761
0.01625 0 0.02625 0.000113333
-0.01625 -1.807e-20 0.02625 0.000111643
0.01125 -1.807e-20 0.0287506 9.23759e-05
-0.01125 -1.807e-20 0.0287506 9.0747e-05
0.030881 -5.42101e-20 0 0.000599021
-0.030881 0 0 0.000498517
0.03 0 0.00736572 0.000293952
-0.03 0 0.00736572 0.000280324
0.0075 0 0.0300012 8.19515e-05
-0.0075 0 0.0300012 8.07739e-05
0.03125 0 0.00116943 0.000590805
-0.03125 0 0.00116943 0.000491998
0.00125 1.807e-20 0.0312567 7.13692e-05
-0.00125 0 0.0312567 7.11561e-05
0.0275 0 0.0149988 0.000196172
-0.0275 0 0.0149988 0.000199883
0.015 0 0.0275 0.000102958
-0.015 0 0.0275 0.000101072
-0.03125 -1.807e-20 0.00356873 0.00040393
0.03125 0 0.00356872 0.000461109
0.00375 -1.807e-20 0.0312567 7.15759e-05
-0.00375 -1.807e-20 0.0312567 7.09454e-05
0.03 0 0.00994629 0.000244001
-0.03 0 0.00994629 0.000242349
-0.031619 0 0 0.000497467
0.031619 0 0 0.000600362
0.01 0 0.0300012 8.21432e-05
-0.01 0 0.0300012 8.05756e-05
0.0225 0 0.0225 0.000142997
-0.0225 0 0.0225 0.000142787
0.03125 1.807e-20 0.00608215 0.000331657
-0.03125 -1.807e-20 0.00608215 0.000307715
0.02875 -1.807e-20 0.0137433 0.000205294
-0.02875 -3.61401e-20 0.0137433 0.00020912
0.02375 -1.807e-20 0.02125 0.000152351
-0.02125 -1.807e-20 0.02375 0.000132569
-0.02375 -1.807e-20 0.02125 0.000152917
0.02125 0 0.02375 0.000133476
-0.01375 -1.807e-20 0.0287506 9.05616e-05
0.01375 0 0.0287506 9.25509e-05
0.00625 1.807e-20 0.0312567 7.17827e-05
-0.00625 1.807e-20 0.0312567 7.07371e-05
0.025 0 0.02 0.000161301
0.02 0 0.025 0.000123536
-0.02 0 0.025 0.000122052
-0.025 0 0.02 0.000162685
-0.01875 5.42101e-20 0.02625 0.000111503
0.02625 -1.807e-20 0.01875 0.000170114
-0.02625 0 0.01875 0.000172358
0.01875 3.61401e-20 0.02625 0.000113453
0.03125 -1.807e-20 0.008656 0.000263418
-0.03125 -1.807e-20 0.008656 0.000257275
0.00875 -1.807e-20 0.0312567 7.19867e-05
-0.00875 -1.807e-20 0.0312567 7.05245e-05
0.03 0 0.0124878 0.000215909
-0.03 0 0.0124878 0.000218965
-0.0325 -1.0842e-19 0 0.000496239
0.0325 -1.0842e-19 0 0.000601991
0.0125 0 0.0300012 8.2334e-05
-0.0125 0 0.0300012 8.03768e-05
2.84343e-11 0 0.0325122 6.15531e-05
0.0325 0 0.00233886 0.000532543
-0.0325 1.0842e-19 0.00233887 0.000450153
0.0275 0 0.0175 0.000178678
0.0175 0 0.0275 0.000103106
-0.0175 0 0.0275 0.000100908
-0.0275 0 0.0175 0.00018168
0.0025 0 0.0325122 6.17727e-05
-0.0025 0 0.0325122 6.13319e-05
0.0325 0 0.00479858 0.000395385
-0.0325 -1.0842e-19 0.00479858 0.000354034
0.005 0 0.0325122 6.19887e-05
-0.005 0 0.0325122 6.11136e-05
0.02875 -1.807e-20 0.0162494 0.000187228
-0.02875 0 0.0162494 0.000190946
0.01625 -1.807e-20 0.0287506 9.27246e-05
-0.01625 0 0.0287506 9.03763e-05
0.03125 -1.807e-20 0.011217 0.000227691
-0.03125 -1.807e-20 0.011217 0.000229394
0.01125 -1.807e-20 0.0312567 7.21923e-05
-0.01125 -1.807e-20 0.0312567 7.03155e-05
0.0325 0 0.00736572 0.000294739
-0.0325 0 0.00736572 0.000279963
0.0075 0 0.0325122 6.22038e-05
-0.0075 0 0.0325122 6.08944e-05
0.033381 -5.42101e-20 0 0.000603611
-0.033381 0 0 0.000494974
0.03 0 0.0149988 0.00019604
-0.03 0 0.0149988 0.000200092
0.015 0 0.0300012 8.25242e-05
-0.015 0 0.0300012 8.0177e-05
-0.02375 0 0.02375 0.000132505
0.02375 0 0.02375 0.00013352
0.025 0 0.0225 0.000143003
0.0225 0 0.025 0.00012362
-0.0225 0 0.025 0.00012195
-0.025 0 0.0225 0.000142768
-0.03375 -1.807e-20 0.00116943 0.000488568
0.03375 0 0.00116943 0.00059528
0.02125 -1.807e-20 0.02625 0.000113574
0.02625 -1.807e-20 0.02125 0.000152322
-0.02125 -1.807e-20 0.02625 0.000111366
-0.02625 3.61401e-20 0.02125 0.000152945
0.00125 1.807e-20 0.0337829 5.20779e-05
-0.00125 0 0.033783 5.18492e-05
0.03375 0 0.00356872 0.000463832
-0.03375 -1.807e-20 0.00356873 0.000402059
0.0325 0 0.00994629 0.000244198
-0.0325 0 0.00994629 0.000242401
-0.00375 -1.807e-20 0.0337829 5.16244e-05
0.00375 0 0.033783 5.23017e-05
0.02 0 0.0275 0.000103255
0.0275 0 0.02 0.000161234
-0.02 0 0.0275 0.000100744
-0.0275 0 0.02 0.000162755
0.01 0 0.0325122 6.24184e-05
-0.01 0 0.0325122 6.06749e-05
-0.034119 0 0 0.00049393
0.034119 -5.42101e-20 0 0.000604955
0.03125 -1.807e-20 0.0137433 0.000205176
-0.03125 0 0.0137433 0.000209345
0.01375 0 0.0312567 7.2395e-05
-0.01375 0 0.0312567 7.01014e-05
0.03375 -1.807e-20 0.00608215 0.000332897
-0.03375 -1.807e-20 0.00608215 0.000307039
0.02875 -1.807e-20 0.01875 0.000170014
-0.02875 -1.807e-20 0.01875 0.000172469
-0.01875 -1.807e-20 0.0287506 9.01902e-05
0.01875 -1.807e-20 0.0287506 9.28976e-05
0.00625 -1.807e-20 0.0337829 5.25249e-05
-0.00625 -1.807e-20 0.0337829 5.13987e-05
0.03 0 0.0175 0.000178559
-0.03 0 0.0175 0.000181832
0.0175 0 0.0300012 8.27132e-05
-0.0175 0 0.0300012 7.99765e-05
0.0325 0 0.0124878 0.000215852
-0.0325 0 0.0124878 0.000219166
0.0125 0 0.0325122 6.26324e-05
-0.0125 0 0.0325122 6.04549e-05
0.03375 -1.807e-20 0.008656 0.000263835
-0.03375 -1.807e-20 0.008656 0.000257195
0.00875 -1.807e-20 0.0337829 5.27467e-05
-0.00875 -1.807e-20 0.0337829 5.11738e-05
-0.035 -1.0842e-19 0 0.000492693
0.035 -1.0842e-19 0 0.000606566
1.81357e-10 0 0.0350537 4.29038e-05
-0.035 -1.0842e-19 0.00233887 0.000447467
0.035 0 0.00233887 0.000536198
0.0025 0 0.0350537 4.31268e-05
-0.0025 0 0.0350537 4.26804e-05
0.03125 -1.807e-20 0.0162494 0.000187098
-0.03125 -1.807e-20 0.0162494 0.000191136
0.01625 0 0.0312567 7.25994e-05
-0.01625 -1.807e-20 0.0312567 6.98908e-05
0.035 0 0.00479858 0.000397356
-0.035 -1.0842e-19 0.00479858 0.000352805
0.025 0 0.025 0.000123703
-0.025 0 0.025 0.000121846
0.02375 0 0.02625 0.000113693
-0.02375 0 0.02625 0.000111223
-0.02625 -1.807e-20 0.02375 0.000132443
0.02625 0 0.02375 0.000133567
0.005 0 0.0350537 4.33473e-05
-0.005 0 0.0350537 4.24594e-05
0.0225 0 0.0275 0.000103403
0.0275 0 0.0225 0.000143009
-0.0225 0 0.0275 0.000100577
-0.0275 0 0.0225 0.000142748
-0.03375 -1.807e-20 0.011217 0.000229556
0.03375 -1.807e-20 0.011217 0.000227716
0.01125 1.807e-20 0.0337829 5.29697e-05
-0.01125 0 0.0337829 5.09476e-05
0.02875 -1.807e-20 0.02125 0.000152286
-0.02875 5.42101e-20 0.02125 0.000152967
0.02125 -1.807e-20 0.0287506 9.30702e-05
-0.02125 -1.807e-20 0.0287506 9.00015e-05
0.035 0 0.00736572 0.000295543
-0.035 0 0.00736572 0.000279618
0.0325 0 0.0149988 0.000195911
-0.0325 0 0.0149988 0.000200302
0.015 0 0.0325122 6.28456e-05
-0.015 0 0.0325122 6.02342e-05
0.0075 0 0.0350537 4.35674e-05
-0.0075 0 0.0350537 4.22384e-05
0.035881 1.0842e-19 0 0.000608147
-0.035881 0 0 0.000491437
0.03 0 0.02 0.000161168
-0.03 0 0.02 0.000162825
0.02 0 0.0300012 8.29012e-05
-0.02 0 0.0300012 7.97747e-05
0.03625 -9.03502e-21 0.00116943 0.000599698
-0.03625 -1.807e-20 0.00116943 0.000485142
0.00125 0 0.036344 3.42101e-05
-0.00125 0 0.036344 3.39944e-05
0.035 0 0.00994629 0.000244406
-0.035 0 0.00994629 0.000242466
0.03625 -9.03502e-21 0.00356873 0.000466596
-0.03625 0 0.00356873 0.000400245
-0.03375 -1.807e-20 0.0137433 0.000209567
0.03375 -1.807e-20 0.0137433 0.000205059
-0.03125 0 0.01875 0.000172586
0.03125 0 0.01875 0.00016992
-0.01875 -1.807e-20 0.0312567 6.96756e-05
0.01875 -1.807e-20 0.0312567 7.27999e-05
0.01 0 0.0350537 4.37873e-05
-0.01 0 0.0350537 4.20173e-05
0.01375 0 0.0337829 5.31909e-05
-0.01375 0 0.0337829 5.07215e-05
-0.00375 3.61401e-20 0.036344 3.37811e-05
0.00375 1.807e-20 0.036344 3.44238e-05
-0.036619 0 0 0.000490393
0.036619 -5.42101e-20 0 0.000609494
0.03625 -9.03502e-21 0.00608215 0.000334167
-0.03625 -1.807e-20 0.00608215 0.000306364
0.00625 1.807e-20 0.036344 3.46367e-05
-0.00625 -1.807e-20 0.036344 3.35697e-05
0.0325 0 0.0175 0.000178441
-0.0325 0 0.0175 0.000181987
0.0175 0 0.0325122 6.30577e-05
-0.0175 0 0.0325122 6.0013e-05
0.02625 3.61401e-20 0.02625 0.000113813
-0.02625 -1.807e-20 0.02625 0.000111083
0.035 0 0.0124878 0.000215803
-0.035 0 0.0124878 0.000219372
0.025 0 0.0275 0.00010355
0.0275 0 0.025 0.000123785
-0.025 0 0.0275 0.00010041
-0.0275 0 0.025 0.000121742
0.0125 0 0.0350537 4.40073e-05
-0.0125 0 0.0350537 4.1796e-05
-0.03625 -1.807e-20 0.008656 0.000257125
0.03625 -1.807e-20 0.008656 0.000264269
0.02875 5.42101e-20 0.02375 0.000133607
-0.02875 -3.61401e-20 0.02375 0.000132376
0.02375 0 0.0287506 9.32426e-05
-0.02375 -1.807e-20 0.0287506 8.98101e-05
0.00875 3.61401e-20 0.036344 3.485e-05
-0.00875 -9.03502e-21 0.036344 3.33575e-05
0.03375 -1.807e-20 0.0162494 0.000186962
-0.03375 -1.807e-20 0.0162494 0.000191323
0.01625 0 0.0337829 5.34112e-05
-0.01625 -1.807e-20 0.0337829 5.04947e-05
-0.0375 -1.0842e-19 0 0.000489151
0.0375 -1.0842e-19 0 0.000611148
0.03 0 0.0225 0.000143014
-0.03 0 0.0225 0.000142726
0.0225 0 0.0300012 8.3089e-05
-0.0225 0 0.0300012 7.95715e-05
0.0375 1.0842e-19 0.00233887 0.000539873
-0.0375 -1.0842e-19 0.00233887 0.000444799
7.35431e-10 0 0.0376343 2.65302e-05
0.0025 0 0.0376343 2.67202e-05
-0.0025 0 0.0376343 2.63405e-05
0.03125 -1.807e-20 0.02125 0.000152258
-0.03125 0 0.02125 0.000152994
0.02125 -1.807e-20 0.0312567 7.30017e-05
-0.02125 0 0.0312567 6.94629e-05
0.0375 -1.0842e-19 0.00479858 0.000399354
-0.0375 -1.0842e-19 0.00479858 0.000351604
0.03625 -1.807e-20 0.011217 0.000227762
-0.03625 -3.61401e-20 0.011217 0.000229733
0.005 0 0.0376343 2.69097e-05
-0.005 0 0.0376343 2.6153e-05
0.01125 -1.807e-20 0.036344 3.50633e-05
-0.01125 -1.807e-20 0.036344 3.31463e-05
0.035 0 0.0149988 0.000195785
-0.035 0 0.0149988 0.000200515
0.015 0 0.0350537 4.42268e-05
-0.015 0 0.0350537 4.15748e-05
0.0325 0 0.02 0.000161103
-0.0325 0 0.02 0.000162896
0.02 0 0.0325122 6.32688e-05
-0.02 0 0.0325122 5.97909e-05
0.0375 0 0.00736572 0.000296362
-0.0375 0 0.00736572 0.000279292
0.0075 0 0.0376343 2.70997e-05
-0.0075 0 0.0376343 2.59661e-05
-0.038381 -5.42101e-20 0 0.000487897
0.038381 -5.42101e-20 0 0.000612769
0.03375 -1.807e-20 0.01875 0.00016982
-0.03375 -1.807e-20 0.01875 0.000172701
0.01875 1.807e-20 0.0337829 5.36304e-05
-0.01875 1.807e-20 0.0337829 5.02683e-05
-0.03875 -9.03502e-21 0.00116943 0.000481722
0.03875 -9.03502e-21 0.00116943 0.000604212
0.03625 3.61401e-20 0.0137433 0.000204956
-0.03625 0 0.0137433 0.000209796
0.0375 0 0.00994629 0.000244623
-0.0375 0 0.00994629 0.000242543
0.01375 0 0.036344 3.52773e-05
-0.01375 0 0.036344 3.29343e-05
0.0275 0 0.0275 0.000103697
-0.0275 0 0.0275 0.000100242
-0.03875 0 0.00356873 0.00039842
0.03875 9.03502e-21 0.00356873 0.00046939
0.02875 -1.807e-20 0.02625 0.00011393
-0.02875 0 0.02625 0.000110938
0.02625 -1.807e-20 0.0287506 9.34151e-05
-0.02625 0 0.0287506 8.96218e-05
0.00125 0 0.0389178 1.96217e-05
-0.00125 -1.807e-20 0.0389179 1.94604e-05
0.01 0 0.0376343 2.72903e-05
-0.01 0 0.0376343 2.578e-05
0.03 0 0.025 0.000123866
-0.03 0 0.025 0.000121635
0.025 0 0.0300012 8.32763e-05
-0.025 0 0.0300012 7.93679e-05
-0.00375 0 0.0389179 1.93003e-05
0.00375 0 0.0389179 1.9783e-05
-0.039119 0 0 0.00048687
0.039119 0 0 0.00061413
0.035 0 0.0175 0.000178326
-0.035 0 0.0175 0.000182142
0.0175 0 0.0350537 4.44455e-05
-0.0175 0 0.0350537 4.13537e-05
-0.03875 0 0.00608215 0.000305733
0.03875 1.807e-20 0.00608215 0.000335451
-0.03125 0 0.02375 0.00013231
0.03125 -1.807e-20 0.02375 0.000133654
0.02375 -1.807e-20 0.0312567 7.32011e-05
-0.02375 -1.807e-20 0.0312567 6.92464e-05
0.00625 0 0.0389179 1.99454e-05
-0.00625 1.807e-20 0.0389179 1.91426e-05