# p  POINT_DATA 24316
# x  y  z  p
0 -0.000880994 1.49366e-08 0.0171287
0 0.000368999 0.00116943 0.0171394
0 0.00161903 1.55962e-08 0.0171503
1.0842e-19 -0.00213101 0.00116943 0.017118
0 -0.000881008 0.00233888 0.0171297
0 0.00161899 0.00233888 0.0171513
2.1684e-19 0.002869 0.00116943 0.0171612
0 -0.00338099 1.48198e-08 0.0171074
-1.0842e-19 0.000368999 0.00356872 0.0171415
-8.27181e-25 -0.00338101 0.00233888 0.0171085
-3.30872e-24 0.00411903 1.63095e-08 0.0171723
-1.0842e-19 -0.002131 0.00356872 0.0171201
1.0842e-19 0.002869 0.00356872 0.0171634
0 0.00411899 0.00233888 0.0171733
0 -0.004631 0.00116943 0.0170969
0 -0.000881004 0.00479858 0.0171306
0 0.001619 0.00479858 0.0171522
1.0842e-19 0.005369 0.00116944 0.0171834
-1.0842e-19 -0.004631 0.00356872 0.017099
-4.1359e-25 -0.003381 0.00479858 0.0171094
3.30872e-24 -0.00588099 1.48843e-08 0.0170865
0 0.000369 0.00608215 0.0171411
0 0.004119 0.00479858 0.0171742
-8.27181e-25 -0.00588101 0.00233888 0.0170876
1.0842e-19 -0.002131 0.00608215 0.0171197
-1.0842e-19 0.005369 0.00356873 0.0171855
3.30872e-24 0.00661901 1.59072e-08 0.0171946
0 0.002869 0.00608215 0.0171629
0 0.00661899 0.00233888 0.0171957
1.0842e-19 -0.007131 0.00116944 0.0170762
0 -0.000881001 0.00736572 0.0171306
0 0.001619 0.00736572 0.0171521
4.1359e-25 -0.005881 0.00479858 0.0170885
0 -0.004631 0.00608215 0.0170986
-1.0842e-19 0.00786899 0.00116944 0.0172059
-1.0842e-19 -0.007131 0.00356872 0.0170783
-2.06795e-25 -0.003381 0.00736572 0.0171093
1.0842e-19 0.005369 0.00608215 0.0171851
0 0.006619 0.00479858 0.0171965
0 -0.00838099 1.15109e-09 0.017066
-1.03398e-25 0.004119 0.00736572 0.0171741
1.0842e-19 0.007869 0.00356873 0.017208
0 0.000369 0.00865601 0.0171415
0 -0.008381 0.00233887 0.017067
1.0842e-19 -0.002131 0.008656 0.0171201
0 0.009119 1.27743e-08 0.0172173
0 0.002869 0.008656 0.0171632
0 -0.007131 0.00608215 0.017078
0 0.009119 0.00233887 0.0172184
1.03398e-25 -0.005881 0.00736572 0.0170885
0 -0.008381 0.00479858 0.0170679
1.0842e-19 -0.009631 0.00116943 0.0170558
1.0842e-19 -0.004631 0.00865601 0.017099
0 0.006619 0.00736572 0.0171964
0 0.007869 0.00608215 0.0172076
2.58494e-26 -0.000881 0.00994629 0.0171305
0 0.001619 0.00994629 0.017152
0 0.005369 0.00865601 0.0171853
1.0842e-19 -0.009631 0.00356872 0.0170579
0 0.009119 0.00479858 0.0172192
0 0.010369 0.00116943 0.0172288
5.16988e-26 -0.003381 0.00994629 0.0171093
0 0.004119 0.00994629 0.0171739
-1.65436e-24 -0.010881 1.38009e-08 0.0170458
0 0.010369 0.00356872 0.0172309
0 -0.010881 0.00233886 0.0170468
0 -0.008381 0.00736572 0.0170679
2.1684e-19 -0.007131 0.00865601 0.0170783
0 0.000369 0.011217 0.0171408
1.0842e-19 -0.009631 0.00608215 0.0170575
-1.0842e-19 -0.002131 0.011217 0.0171195
0 -0.005881 0.00994629 0.0170884
1.0842e-19 0.002869 0.011217 0.0171625
0 0.011619 7.04485e-09 0.0172404
2.1684e-19 0.007869 0.008656 0.0172078
0 0.009119 0.00736572 0.0172191
0 0.011619 0.00233887 0.0172415
0 -0.010881 0.00479858 0.0170477
-2.58494e-26 0.006619 0.00994629 0.0171962
0 0.010369 0.00608215 0.0172305
1.0842e-19 -0.004631 0.011217 0.0170985
-1.0842e-19 -0.012131 0.00116943 0.0170358
-1.03398e-25 0.0119734 0.00233887 0.0172448
1.0842e-19 0.005369 0.011217 0.0171846
-1.03398e-25 0.0115493 0.00479858 0.0172417
5.16988e-26 0.011619 0.00465936 0.0172423
0 -0.000881 0.0124878 0.01713
2.48154e-24 0.0125411 0 0.0172491
-2.8774e-21 0.011619 0.00479858 0.0172423
-3.23117e-27 0.001619 0.0124878 0.0171514
0 -0.012131 0.00356872 0.0170379
1.0842e-19 0.012869 0.00116944 0.017252
-6.46235e-27 -0.003381 0.0124878 0.0171088
-2.1684e-19 -0.009631 0.00865601 0.0170578
-2.58494e-26 -0.008381 0.00994629 0.0170677
0 -0.010881 0.00736572 0.0170476
-3.23117e-27 0.004119 0.0124878 0.0171733
0 -0.007131 0.011217 0.0170778
1.0842e-19 0.012869 0.00356873 0.0172542
-3.30872e-24 -0.013381 1.32649e-08 0.017026
0 0.0111883 0.00736572 0.0172382
0 0.009119 0.00994629 0.0172188
-1.0842e-19 0.010369 0.008656 0.0172306
1.0842e-19 -0.012131 0.00608215 0.0170375
0 -0.013381 0.00233886 0.017027
0 0.007869 0.011217 0.0172071
-1.0842e-19 0.000369 0.0137433 0.0171405
-5.61059e-21 0.011619 0.00736572 0.0172422
0 -0.005881 0.0124878 0.017088
0 -0.002131 0.0137433 0.0171192
1.0842e-19 0.002869 0.0137433 0.017162
0 0.014119 1.20546e-08 0.0172639
0 0.006619 0.0124878 0.0171956
0 -0.013381 0.00479858 0.0170278
0 0.012869 0.00608215 0.0172537
3.82579e-20 0.014119 0.00233887 0.017265
2.1684e-19 -0.004631 0.0137433 0.0170982
-2.1684e-19 -0.014631 0.00116943 0.0170161
0 -0.010881 0.00994629 0.0170475
-1.0842e-19 0.005369 0.0137433 0.0171842
-2.1684e-19 -0.009631 0.011217 0.0170572
-3.23117e-27 0.0109403 0.00994629 0.0172357
-1.0842e-19 -0.012131 0.008656 0.0170378
-6.61207e-20 0.014119 0.00479858 0.0172658
-4.03897e-28 -0.000881 0.0149988 0.0171295
0 -0.008381 0.0124878 0.0170673
-1.0842e-19 -0.014631 0.00356872 0.0170182
0 0.001619 0.0149988 0.0171509
0 -0.013381 0.00736572 0.0170277
1.0842e-19 0.010369 0.011217 0.01723
-9.48666e-21 0.011619 0.00994629 0.0172419
0 -0.003381 0.0149988 0.0171084
-1.0842e-19 0.015369 0.00116944 0.0172757
0 0.009119 0.0124878 0.0172183
0 -0.007131 0.0137433 0.0170775
1.0842e-19 0.012869 0.008656 0.017254
0 0.004119 0.0149988 0.0171727
1.0842e-19 0.015369 0.00356873 0.0172778
0 0.007869 0.0137433 0.0172066
-1.0842e-19 -0.014631 0.00608215 0.0170178
-1.65436e-24 -0.015881 1.31767e-08 0.0170064
-1.47912e-19 0.014119 0.00736572 0.0172657
8.27181e-25 -0.015881 0.00233887 0.0170074
0 -0.005881 0.0149988 0.0170875
1.0842e-19 0.000369 0.0162494 0.0171397
0 -0.002131 0.0162494 0.0171186
0 0.006619 0.0149988 0.017195
-8.07794e-28 0.0107664 0.0124878 0.0172335
1.0842e-19 0.002869 0.0162494 0.0171614
0 -0.012131 0.011217 0.0170372
0 0.015369 0.00608215 0.0172773
3.23117e-27 -0.010881 0.0124878 0.017047
-4.1359e-25 -0.015881 0.00479858 0.0170083
0 0.016619 1.58648e-08 0.0172878
-2.58494e-26 -0.013381 0.00994629 0.0170276
0 -0.009631 0.0137433 0.0170569
1.26893e-19 0.016619 0.00233888 0.0172888
0 -0.004631 0.0162494 0.0170976
1.0842e-19 -0.014631 0.008656 0.017018
-7.31564e-20 0.011619 0.0124878 0.0172414
0 0.012869 0.011217 0.0172532
-1.0842e-19 0.005369 0.0162494 0.0171835
0 -0.017131 0.00116943 0.0169968
-4.03897e-28 -0.008381 0.0149988 0.0170668
0 0.010369 0.0137433 0.0172295
0 0.014119 0.00994629 0.0172654
-4.8371e-20 0.016619 0.00479858 0.0172896
1.0842e-19 -0.017131 0.00356872 0.0169987
0 -0.015881 0.00736572 0.0170082
-1.95638e-28 -0.000881 0.0174897 0.0171289
-1.91544e-20 -0.000881 0.0175 0.0171289
0 0.009119 0.0149988 0.0172177
0 0.001619 0.0174862 0.0171503
1.58401e-19 0.001619 0.0175 0.0171502
0 0.015369 0.008656 0.0172776
-1.0842e-19 -0.007131 0.0162494 0.0170768
1.57772e-30 -0.003381 0.0174919 0.0171078
-1.57772e-30 -0.003381 0.0175 0.0171078
0 0.017869 0.00116944 0.0172998
-7.88861e-29 0.004119 0.0174841 0.0171721
-1.91509e-20 0.004119 0.0175 0.0171721
1.0842e-19 0.007869 0.0162494 0.017206
0 0.016619 0.00736572 0.0172895
0 -0.017131 0.00608215 0.0169984
1.0842e-19 0.017869 0.00356873 0.0173019
0 -0.013381 0.0124878 0.0170271
1.0842e-19 -0.012131 0.0137433 0.0170368
1.51461e-28 0.0106082 0.0149988 0.0172315
0 -0.018381 1.33764e-08 0.0169873
2.1684e-19 -0.014631 0.011217 0.0170174
1.02552e-28 -0.005881 0.0174922 0.0170869
0 -0.005881 0.0175 0.0170869
0 -0.018381 0.00233887 0.0169882
0 -0.010881 0.0149988 0.0170465
2.52435e-29 0.006619 0.0174831 0.0171944
5.84013e-20 0.006619 0.0175 0.0171944
-2.58494e-26 -0.015881 0.00994629 0.017008
1.0842e-19 0.000369 0.01875 0.0171392
0 0.012869 0.0137433 0.0172528
1.55259e-19 0.014119 0.0124878 0.0172648
0 -0.002131 0.01875 0.017118
-1.0842e-19 0.017869 0.00608215 0.0173014
0 -0.009631 0.0162494 0.0170563
0 0.002869 0.01875 0.0171607
-1.84089e-20 0.011619 0.0149988 0.0172408
4.1359e-25 -0.018381 0.00479858 0.016989
1.0842e-19 0.015369 0.011217 0.0172769
0 0.019119 3.74342e-09 0.017312
0 -0.017131 0.008656 0.0169987
-4.20555e-20 0.019119 0.00233888 0.0173131
-1.0842e-19 0.010369 0.0162494 0.0172289
0 -0.004631 0.01875 0.0170969
-4.97158e-20 0.016619 0.00994629 0.0172893
-2.05104e-28 -0.008381 0.017491 0.0170662
-1.91544e-20 -0.008381 0.0175 0.0170662
0 0.005369 0.01875 0.0171828
0 -0.019631 0.00116943 0.0169778
-5.36425e-29 0.009119 0.0174725 0.0172171
-7.01648e-20 0.019119 0.00479858 0.0173139
0 0.009119 0.0175 0.0172171
-1.03398e-25 -0.018381 0.00736572 0.016989
-1.0842e-19 0.017869 0.008656 0.0173017
-1.0842e-19 -0.019631 0.00356872 0.0169797
-9.67102e-20 -0.000881 0.02 0.0171282
0 -0.007131 0.01875 0.0170762
-1.91544e-20 0.001619 0.02 0.0171496
0 -0.014631 0.0137433 0.017017
0 -0.013381 0.0149988 0.0170266
0 -0.015881 0.0124878 0.0170075
0 -0.012131 0.0162494 0.0170362
8.08456e-20 -0.003381 0.02 0.0171071
0 0.007869 0.01875 0.0172053
1.0842e-19 0.020369 0.00116944 0.0173242
-1.91544e-20 0.004119 0.02 0.0171714
-1.0842e-19 -0.017131 0.011217 0.0169981
9.56159e-21 0.019119 0.00736572 0.0173138
0 -0.019631 0.00608215 0.0169794
-8.04638e-29 -0.010881 0.0174886 0.0170459
9.1454e-21 0.014119 0.0149988 0.0172643
-1.57772e-30 -0.010881 0.0175 0.0170459
0 0.015369 0.0137433 0.0172764
2.1684e-19 0.020369 0.00356873 0.0173264
0 0.012869 0.0162494 0.017252
-2.4999e-20 0.016619 0.0124878 0.0172887
-9.67102e-20 -0.005881 0.02 0.0170862
0 -0.020881 1.38596e-08 0.0169684
0 -0.018381 0.00994629 0.0169888
5.84013e-20 0.011619 0.0175 0.0172401
0 -0.020881 0.00233887 0.0169693
-1.91544e-20 0.006619 0.02 0.0171937
0 -0.009631 0.01875 0.0170557
0 0.017869 0.011217 0.017301
1.0842e-19 0.000369 0.02125 0.0171385
0 0.020369 0.00608215 0.0173259
1.0842e-19 -0.002131 0.02125 0.0171173
0 -0.020881 0.00479858 0.0169702
0 0.010369 0.01875 0.0172282
1.0842e-19 0.002869 0.02125 0.0171601
-1.0842e-19 -0.019631 0.00865601 0.0169796
9.52931e-20 0.019119 0.00994629 0.0173136
0 0.021619 1.55331e-08 0.0173366
-9.67102e-20 -0.008381 0.02 0.0170656
3.71297e-20 0.021619 0.00233888 0.0173377
0 -0.004631 0.02125 0.0170962
-4.03897e-28 -0.015881 0.0149988 0.0170071
2.1684e-19 -0.014631 0.0162494 0.0170165
-1.0842e-19 0.005369 0.02125 0.0171821
-1.0842e-19 -0.017131 0.0137433 0.0169977
-1.91544e-20 0.009119 0.02 0.0172164
-9.30856e-29 -0.013381 0.0174867 0.0170261
8.08456e-20 -0.013381 0.0175 0.017026
0 0.020369 0.008656 0.0173262
-1.03398e-25 -0.020881 0.00736572 0.0169701
9.2789e-21 0.021619 0.00479858 0.0173386
0 -0.022131 0.00116943 0.016959
-3.23117e-27 -0.018381 0.0124878 0.0169883
0 -0.012131 0.01875 0.0170356
-2.1684e-19 0.015369 0.0162494 0.0172758
-3.59904e-20 0.016619 0.0149988 0.0172881
-1.0842e-19 -0.007131 0.02125 0.0170756
0 -0.022131 0.00356872 0.016961
1.58394e-19 0.014119 0.0175 0.0172636
3.28979e-21 -0.000881 0.0225 0.0171276
0 0.017869 0.0137433 0.0173005
3.28979e-21 0.001619 0.0225 0.017149
0 -0.019631 0.011217 0.016979
0 0.007869 0.02125 0.0172046
0 0.012869 0.01875 0.0172514
-9.67102e-20 -0.003381 0.0225 0.0171065
-9.67102e-20 -0.010881 0.02 0.0170454
1.36284e-19 0.019119 0.0124878 0.017313
1.87088e-20 0.021619 0.00736572 0.0173385
8.08456e-20 0.004119 0.0225 0.0171709
-1.0842e-19 0.022869 0.00116944 0.0173489
0 -0.022131 0.00608215 0.0169606
0 -0.020881 0.00994629 0.0169699
1.58401e-19 0.011619 0.02 0.0172395
1.0842e-19 0.022869 0.00356873 0.0173512
1.0842e-19 0.020369 0.011217 0.0173254
-3.54881e-20 -0.005881 0.0225 0.0170856
1.0842e-19 -0.009631 0.02125 0.0170551
0 -0.023381 1.46374e-08 0.0169498
-1.91544e-20 0.006619 0.0225 0.0171931
0 -0.023381 0.00233887 0.0169508
-1.0842e-19 -0.017131 0.0162494 0.0169971
-4.41762e-29 -0.015881 0.0174862 0.0170065
-1.57772e-30 -0.015881 0.0175 0.0170065
1.0842e-19 0.010369 0.02125 0.0172275
2.1684e-19 0.022869 0.00608215 0.0173507
1.27227e-19 -0.018381 0.0149988 0.0169879
-1.0842e-19 0.000369 0.02375 0.0171378
0 -0.022131 0.008656 0.0169609
0 -0.014631 0.01875 0.0170159
-9.43109e-20 0.021619 0.00994629 0.0173382
0 -0.002131 0.02375 0.0171167
0 -0.023381 0.00479858 0.0169516
-1.65436e-24 0.0239179 0 0.0173596
0 0.002869 0.02375 0.0171595
0 -0.019631 0.0137433 0.0169787
3.28979e-21 -0.008381 0.0225 0.0170651
3.28979e-21 -0.013381 0.02 0.0170255
0 0.024119 1.35896e-09 0.0173616
0 0.024119 0.000600548 0.0173619
-1.9162e-20 0.016619 0.0175 0.0172875
2.1684e-19 0.017869 0.0162494 0.0172998
0 -0.004631 0.02375 0.0170956
5.27096e-20 0.024119 0.00233887 0.0173627
-1.0842e-19 0.015369 0.01875 0.0172751
-1.91544e-20 0.009119 0.0225 0.0172158
-1.09662e-20 0.019119 0.0149988 0.0173124
-3.23117e-27 -0.020881 0.0124878 0.0169694
0 0.005369 0.02375 0.0171816
0 0.022869 0.00865601 0.0173509
1.0842e-19 -0.012131 0.02125 0.017035
5.84013e-20 0.014119 0.02 0.0172629
-1.03398e-25 -0.023381 0.00736572 0.0169515
2.1684e-19 0.020369 0.0137433 0.0173249
-1.02533e-20 0.024119 0.00479858 0.0173636
1.0842e-19 -0.024631 0.00116943 0.0169407
1.0842e-19 -0.007131 0.02375 0.017075
0 -0.022131 0.011217 0.0169603
-1.0842e-19 0.012869 0.02125 0.0172508
0 -0.024631 0.00356872 0.0169426
-1.95256e-20 0.021619 0.0124878 0.0173376
-9.67102e-20 -0.010881 0.0225 0.0170448
-3.54881e-20 -0.000881 0.025 0.017127
0 0.007869 0.02375 0.017204
6.45119e-20 0.001619 0.025 0.0171484
5.89066e-21 0.024119 0.00736572 0.0173634
-3.54881e-20 -0.003381 0.025 0.0171059
8.08456e-20 0.011619 0.0225 0.0172388
3.28979e-21 0.004119 0.025 0.0171703
7.88861e-30 -0.018381 0.0174859 0.0169873
-1.0842e-19 -0.024631 0.00608215 0.0169421
-1.57772e-30 -0.018381 0.0175 0.0169873
0 0.025369 0.00116944 0.0173742
1.0842e-19 -0.017131 0.01875 0.0169966
0 -0.023381 0.00994629 0.0169513
0 0.022869 0.011217 0.0173502
0 -0.019631 0.0162494 0.0169781
-3.54881e-20 -0.015881 0.02 0.017006
1.0842e-19 0.025369 0.00356872 0.0173764
1.0842e-19 -0.009631 0.02375 0.0170545
-9.67102e-20 -0.005881 0.025 0.017085
0 -0.020881 0.0149988 0.016969
0 -0.014631 0.02125 0.0170154
8.08456e-20 0.006619 0.025 0.0171926
0 -0.025881 1.52949e-08 0.0169316
-1.0842e-19 0.017869 0.01875 0.0172991
-1.0842e-19 0.010369 0.02375 0.0172269
-1.91647e-20 0.019119 0.0175 0.0173117
-8.27181e-25 -0.025881 0.00233887 0.0169325
-1.91544e-20 0.016619 0.02 0.0172868
-1.0842e-19 -0.022131 0.0137433 0.0169599
-1.0842e-19 0.020369 0.0162494 0.0173242
0 0.025369 0.00608215 0.0173759
-8.6221e-20 0.024119 0.00994629 0.0173631
0 -0.024631 0.008656 0.0169424
6.45119e-20 -0.013381 0.0225 0.017025
0 0.015369 0.02125 0.0172744
0 0.000369 0.02625 0.0171373
-7.65609e-20 0.021619 0.0149988 0.017337
-4.1359e-25 -0.025881 0.00479858 0.0169333
0 -0.002131 0.02625 0.0171161
-1.91544e-20 -0.008381 0.025 0.0170645
-1.0842e-19 0.002869 0.02625 0.017159
3.23117e-27 -0.023381 0.0124878 0.0169508
5.84013e-20 0.014119 0.0225 0.0172623
8.08456e-20 0.009119 0.025 0.0172152
0 0.026619 5.14573e-09 0.017387
1.0842e-19 -0.004631 0.02625 0.0170951
0 -0.012131 0.02375 0.0170346
-2.1684e-19 0.022869 0.0137433 0.0173497
4.1359e-25 0.026619 0.00201023 0.0173879
-6.27304e-20 0.026619 0.00233887 0.0173881
-1.0842e-19 0.005369 0.02625 0.0171811
1.0842e-19 0.025369 0.008656 0.0173761
0 -0.025881 0.00736572 0.0169331
-1.0842e-19 0.012869 0.02375 0.0172501
2.58949e-20 0.026619 0.00479858 0.017389
-1.0842e-19 -0.024631 0.011217 0.0169418
1.0842e-19 -0.019631 0.01875 0.0169775
-1.0842e-19 -0.027131 0.00116943 0.0169225
4.82422e-21 0.024119 0.0124878 0.0173625
3.28979e-21 -0.018381 0.02 0.0169868
0 -0.007131 0.02625 0.0170744
1.89327e-29 -0.020881 0.0174848 0.0169684
-1.57772e-30 -0.020881 0.0175 0.0169684
-1.91544e-20 -0.010881 0.025 0.0170444
-1.0842e-19 -0.017131 0.02125 0.016996
0 -0.027131 0.00356872 0.0169244
-1.0842e-19 0.007869 0.02625 0.0172035
1.0842e-19 -0.022131 0.0162494 0.0169593
3.28979e-21 -0.000881 0.0275 0.0171265
9.78188e-29 -0.000881 0.0275113 0.0171265
-3.54881e-20 -0.015881 0.0225 0.0170055
-3.54838e-20 0.001619 0.0275 0.017148
2.52435e-29 0.001619 0.0275132 0.017148
-1.91544e-20 0.011619 0.025 0.0172383
3.84592e-20 0.026619 0.00736572 0.0173888
-1.91544e-20 0.019119 0.02 0.017311
-1.0842e-19 0.020369 0.01875 0.0173236
-9.67102e-20 -0.003381 0.0275 0.0171054
-8.99301e-29 -0.003381 0.0275133 0.0171054
0 -0.025881 0.00994629 0.0169329
0 0.025369 0.011217 0.0173753
0 0.0276607 0.00233887 0.0173989
0 0.017869 0.02125 0.0172985
0 -0.023381 0.0149988 0.0169504
-2.1684e-19 -0.027131 0.00608215 0.016924
3.28979e-21 0.004119 0.0275 0.0171698
8.08353e-20 0.021619 0.0175 0.0173363
-1.13596e-28 0.004119 0.0275183 0.0171698
1.0842e-19 0.027869 0.00116944 0.0173998
1.0842e-19 -0.014631 0.02375 0.0170149
0 -0.009631 0.02625 0.0170541
1.58401e-19 0.016619 0.0225 0.0172862
0 0.022869 0.0162494 0.017349
-1.0842e-19 0.027869 0.00356872 0.017402
-1.91544e-20 -0.005881 0.0275 0.0170845
3.15544e-30 -0.005881 0.0275304 0.0170845
2.1684e-19 -0.024631 0.0137433 0.0169415
0 0.010369 0.02625 0.0172263
-1.91519e-20 0.006619 0.0275 0.0171921
-1.0842e-19 0.015369 0.02375 0.0172738
-8.36193e-29 0.006619 0.0275228 0.0171921
3.28979e-21 -0.013381 0.025 0.0170245
0 -0.028381 1.56584e-08 0.0169136
8.93301e-20 0.024119 0.0149988 0.0173619
1.20342e-20 0.026619 0.00994629 0.0173885
-8.27181e-25 -0.028381 0.00233888 0.0169145
0 -0.027131 0.008656 0.0169242
0 0.027869 0.00608215 0.0174015
-1.91544e-20 0.014119 0.025 0.0172617
0 -0.025881 0.0124878 0.0169325
5.84013e-20 -0.008381 0.0275 0.017064
0 0.000369 0.0287506 0.0171369
2.06795e-25 -0.028381 0.00479858 0.0169153
1.0842e-19 -0.002131 0.0287506 0.0171156
-1.0842e-19 0.025369 0.0137433 0.0173749
-1.0842e-19 0.002869 0.0287506 0.0171586
-9.67102e-20 -0.020881 0.02 0.0169679
-1.0842e-19 -0.012131 0.02625 0.0170341
1.0842e-19 -0.019631 0.02125 0.016977
5.84013e-20 0.009119 0.0275 0.0172147
1.02552e-28 0.009119 0.027519 0.0172147
1.0842e-19 -0.022131 0.01875 0.0169587
3.28979e-21 -0.018381 0.0225 0.0169863
0 0.029119 8.18434e-09 0.0174128
1.0842e-19 -0.004631 0.0287506 0.0170946
1.0842e-19 0.027869 0.008656 0.0174017
7.88861e-30 -0.023381 0.017482 0.0169498
8.08456e-20 -0.023381 0.0175 0.0169498
0 0.029119 0.00233887 0.0174139
-1.0842e-19 0.012869 0.02625 0.0172497
-2.1684e-19 0.005369 0.0287506 0.0171806
0 -0.017131 0.02375 0.0169955
0 -0.028381 0.00736572 0.0169151
-1.0842e-19 -0.027131 0.011217 0.0169236
-1.57842e-20 0.026619 0.0124878 0.0173879
-1.0842e-19 0.020369 0.02125 0.0173228
-1.91544e-20 0.021619 0.02 0.0173356
0 0.0290936 0.00479858 0.0174146
2.1684e-19 -0.024631 0.0162494 0.0169408
-1.61559e-27 0.029119 0.00479858 0.0174148
5.84013e-20 0.019119 0.0225 0.0173104
0 0.029119 0.00500016 0.0174148
0 0.022869 0.01875 0.0173483
1.58401e-19 -0.010881 0.0275 0.0170439
3.28979e-21 -0.015881 0.025 0.017005
1.0842e-19 -0.007131 0.0287506 0.017074
0 -0.029631 0.00116943 0.0169047
1.0842e-19 0.017869 0.02375 0.0172979
4.20614e-20 0.024119 0.0175 0.0173612
1.0842e-19 0.007869 0.0287506 0.0172031
-2.1684e-19 -0.029631 0.00356872 0.0169066
1.58405e-19 0.011619 0.0275 0.0172378
9.78188e-29 0.011619 0.0275129 0.0172377
0 -0.025881 0.0149988 0.0169321
0 -0.000881 0.0300012 0.017126
-1.91544e-20 0.016619 0.025 0.0172855
0 0.029119 0.00736572 0.0174147
-1.0842e-19 0.027869 0.011217 0.0174009
0 0.001619 0.0300012 0.0171475
1.0842e-19 -0.014631 0.02625 0.0170144
0 -0.028381 0.00994629 0.0169149
0 0.025369 0.0162494 0.0173741
0 -0.003381 0.0300012 0.0171049
1.0842e-19 -0.029631 0.00608215 0.0169062
0 0.004119 0.0300012 0.0171694
0 -0.009631 0.0287506 0.0170536
0 0.030369 0.00116944 0.0174258
1.0842e-19 -0.027131 0.0137433 0.0169233
-2.1684e-19 0.015369 0.02625 0.0172732
-1.39188e-19 0.026619 0.0149988 0.0173873
-1.0842e-19 0.010369 0.0287506 0.0172259
-1.00974e-28 -0.005881 0.0300012 0.0170841
0 0.030369 0.00356872 0.0174282
8.08369e-20 -0.013381 0.0275 0.0170241
0 -0.022131 0.02125 0.0169582
-3.54881e-20 -0.020881 0.0225 0.0169674
0 0.006619 0.0300012 0.0171916
-9.67102e-20 -0.023381 0.02 0.0169493
0 0.029119 0.00994629 0.0174144
1.0842e-19 -0.019631 0.02375 0.0169765
-5.04871e-29 -0.00714811 0.0300012 0.0170737
-1.0842e-19 -0.029631 0.008656 0.0169063
0 -0.030881 1.59506e-08 0.0168959
-1.91544e-20 0.014119 0.0275 0.0172612
-9.46633e-30 0.014119 0.0275094 0.0172612
1.0842e-19 -0.024631 0.01875 0.0169403
-8.27181e-25 -0.030881 0.00233888 0.0168968
0 0.030369 0.00608215 0.0174276
1.61559e-27 -0.028381 0.0124878 0.0169145
8.08456e-20 -0.018381 0.025 0.0169858
-1.0842e-19 0.027869 0.0137433 0.0174004
-6.0863e-20 -0.008381 0.0300012 0.0170636
-4.15987e-20 0.021619 0.0225 0.0173349
2.1684e-19 -0.012131 0.0287506 0.0170336
-1.0842e-19 0.022869 0.02125 0.0173476
-1.13596e-28 -0.025881 0.0174762 0.0169315
0 -0.025881 0.0175 0.0169315
0 -0.030881 0.00479858 0.0168975
2.1684e-19 0.000369 0.0312567 0.0171365
0 0.020369 0.02375 0.0173222
1.0842e-19 -0.002131 0.0312567 0.0171152
-1.91544e-20 0.024119 0.02 0.0173605
-1.29247e-26 0.0304635 0.00736572 0.0174288
1.0842e-19 -0.017131 0.02625 0.0169951
2.01948e-28 0.009119 0.0300012 0.0172143
1.0842e-19 0.002869 0.0312567 0.0171582
-1.91544e-20 0.019119 0.025 0.0173097
-1.0842e-19 0.012869 0.0287506 0.0172491
0 0.025369 0.01875 0.0173735
-1.0842e-19 0.030369 0.008656 0.0174278
0 -0.004631 0.0312567 0.0170942
0 0.031619 9.52459e-09 0.017439
1.0842e-19 -0.027131 0.0162494 0.0169228
-1.0842e-19 -0.029631 0.011217 0.0169057
6.30968e-20 0.029119 0.0124878 0.0174137
-3.0262e-20 0.031619 0.00233887 0.0174402
1.0842e-19 0.005369 0.0312567 0.0171802
0 -0.030881 0.00736572 0.0168974
1.0842e-19 0.017869 0.02625 0.0172972
8.08456e-20 -0.015881 0.0275 0.0170046
1.42061e-19 0.026619 0.0175 0.0173866
5.93746e-20 -0.010881 0.0300012 0.0170435
1.15346e-19 0.031619 0.00479858 0.0174411
0 -0.007131 0.0312567 0.0170736
0 -0.028381 0.0149988 0.0169141
8.08517e-20 0.016619 0.0275 0.017285
-1.87749e-28 0.016619 0.0275078 0.017285
1.0842e-19 -0.032131 0.00116943 0.0168871
4.03897e-28 0.011619 0.0300012 0.0172372
-2.1684e-19 0.007869 0.0312567 0.0172026
-1.0842e-19 -0.014631 0.0287506 0.017014
0 0.027869 0.0162494 0.0173996
-2.1684e-19 -0.032131 0.00356873 0.0168889
-1.0842e-19 0.030369 0.011217 0.017427
0 -0.030881 0.00994629 0.0168972
3.28979e-21 -0.023381 0.0225 0.0169488
0 -0.022131 0.02375 0.0169577
1.29247e-26 0.031619 0.00736572 0.0174409
0 -0.000881 0.0325122 0.0171257
0 -0.024631 0.02125 0.0169398
0 0.001619 0.0325122 0.0171472
-9.67102e-20 -0.020881 0.025 0.0169669
1.0842e-19 0.015369 0.0287506 0.0172728
1.0842e-19 -0.029631 0.0137433 0.0169054
-3.23117e-27 -0.003381 0.0325122 0.0171046
1.61559e-27 0.0311463 0.00994629 0.0174357
2.1684e-19 -0.032131 0.00608215 0.0168885
0 -0.009631 0.0312567 0.0170533
8.08456e-20 -0.025881 0.02 0.016931
-1.01806e-19 0.029119 0.0149988 0.0174131
9.60722e-20 0.004119 0.0325122 0.017169
0 -0.019631 0.02625 0.016976
6.34921e-20 -0.013381 0.0300012 0.0170237
1.0842e-19 0.032869 0.00116944 0.0174523
1.0842e-19 0.010369 0.0312567 0.0172255
0 0.022869 0.02375 0.0173469
0 -0.027131 0.01875 0.0169222
5.84013e-20 0.024119 0.0225 0.0173598
0 -0.005881 0.0325122 0.0170838
5.84013e-20 0.021619 0.025 0.0173342
1.0842e-19 0.032869 0.00356872 0.0174546
-1.91544e-20 -0.018381 0.0275 0.0169854
0 0.025369 0.02125 0.0173727
-1.61559e-27 0.031619 0.00994629 0.0174406
0 0.014119 0.0300012 0.0172606
-3.23117e-27 0.006619 0.0325122 0.0171912
0 0.020369 0.02625 0.0173215
0 -0.032131 0.008656 0.0168887
-1.91544e-20 0.026619 0.02 0.0173859
8.07794e-28 -0.00720349 0.0325122 0.017073
0 -0.030881 0.0124878 0.0168967
8.99301e-29 -0.028381 0.0174649 0.0169135
-1.0842e-19 0.030369 0.0137433 0.0174265
5.84013e-20 -0.028381 0.0175 0.0169135
0 -0.033381 1.52622e-08 0.0168784
-1.0842e-19 0.032869 0.00608215 0.0174541
0 -0.033381 0.00233888 0.0168793
-1.0842e-19 -0.017131 0.0287506 0.0169947
8.08456e-20 0.019119 0.0275 0.0173092
-2.12992e-28 0.019119 0.0275072 0.0173091
-2.1684e-19 -0.012131 0.0312567 0.0170333
4.93633e-20 -0.008381 0.0325122 0.0170634
-1.0842e-19 0.027869 0.01875 0.017399
0 -0.033381 0.00479858 0.01688
0 0.009119 0.0325122 0.0172139
0 0.000369 0.0337829 0.0171362
-1.0842e-19 -0.029631 0.0162494 0.0169049
1.0842e-19 0.012869 0.0312567 0.0172486
0 -0.002131 0.033783 0.017115
1.0842e-19 0.017869 0.0287506 0.0172967
0 0.002869 0.033783 0.0171579
0 0.0315579 0.0124878 0.0174393
1.94366e-20 -0.015881 0.0300012 0.0170042
-1.91558e-20 0.029119 0.0175 0.0174123
-2.1684e-19 0.032869 0.008656 0.0174543
0 0.031619 0.0124878 0.01744
0 -0.032131 0.011217 0.0168881
0 -0.004631 0.0337829 0.017094
0 0.034119 8.73562e-09 0.0174657
9.41463e-20 -0.033381 0.00736572 0.0168799
2.06795e-25 0.034119 0.00233887 0.0174669
0 0.005369 0.033783 0.0171799
1.0842e-19 -0.024631 0.02375 0.0169393
-9.67102e-20 -0.023381 0.025 0.0169483
7.66421e-20 -0.010881 0.0325122 0.0170432
3.28979e-21 -0.025881 0.0225 0.0169305
0 0.016619 0.0300012 0.0172844
0 -0.030881 0.0149988 0.0168963
0 -0.022131 0.02625 0.0169573
1.0842e-19 0.030369 0.0162494 0.0174257
-1.03398e-25 0.034119 0.00479858 0.0174678
1.0842e-19 -0.027131 0.02125 0.0169217
1.0842e-19 -0.014631 0.0312567 0.0170137
3.23117e-27 0.011619 0.0325122 0.0172369
-1.0842e-19 -0.007131 0.0337829 0.0170734
-1.91544e-20 -0.020881 0.0275 0.0169665
0 -0.034631 0.00116944 0.0168697
-2.1684e-19 0.007869 0.0337829 0.0172024
2.52435e-29 0.031619 0.014295 0.0174395
1.58401e-19 -0.028381 0.02 0.016913
-1.0842e-19 0.032869 0.011217 0.0174535
5.84013e-20 0.024119 0.025 0.0173591
0 0.025369 0.02375 0.0173721
-1.0842e-19 -0.019631 0.0287506 0.0169757
-2.1684e-19 -0.034631 0.00356872 0.0168716
0 0.022869 0.02625 0.0173462
1.0842e-19 0.015369 0.0312567 0.0172722
6.46235e-27 -0.033381 0.00994629 0.0168797
-1.91544e-20 0.026619 0.0225 0.0173852
2.58494e-26 0.034119 0.00736572 0.0174676
1.0842e-19 -0.032131 0.0137433 0.0168878
5.84013e-20 0.021619 0.0275 0.0173336
-1.37262e-28 0.021619 0.0275071 0.0173336
0 0.031619 0.0149988 0.0174393
0 0.027869 0.02125 0.0173982
-2.58494e-26 -0.000881 0.0350537 0.0171255
0 -0.029631 0.01875 0.0169043
2.58494e-26 0.001619 0.0350537 0.0171469
1.0842e-19 -0.009631 0.0337829 0.0170531
2.36524e-20 -0.013381 0.0325122 0.0170234
-1.0842e-19 -0.034631 0.00608215 0.0168712
2.52435e-29 -0.0318113 0.0149988 0.0168898
1.39746e-19 -0.018381 0.0300012 0.0169851
0 -0.003381 0.0350537 0.0171043
-1.0842e-19 0.020369 0.0287506 0.0173211
0 0.004119 0.0350537 0.0171688
3.28979e-21 0.029119 0.02 0.0174116
2.1684e-19 0.010369 0.0337829 0.0172252
-1.26218e-29 0.0320435 0.0149988 0.0174439
-2.1684e-19 0.035369 0.00116944 0.0174792
0 0.014119 0.0325122 0.0172602
-1.57772e-30 -0.030881 0.0174151 0.0168958
0 -0.030881 0.0175 0.0168958
0 0.034119 0.00994629 0.0174673
0 -0.005881 0.0350537 0.0170836
0 0.035369 0.00356872 0.0174815
8.27181e-25 0.0355721 0 0.0174815
0 0.019119 0.0300012 0.0173086
0 0.032869 0.0137433 0.0174529
0 -0.033381 0.0124878 0.0168792
0 -0.017131 0.0312567 0.0169944
0 0.006619 0.0350537 0.017191
0 0.030369 0.01875 0.017425
-1.0842e-19 -0.034631 0.008656 0.0168714
-6.46235e-27 -0.00724127 0.0350537 0.0170724
-1.65436e-24 -0.035881 1.26949e-08 0.0168612
0 0.035369 0.00608215 0.0174809
2.01948e-28 -0.0336477 0.0124878 0.0168774
1.0842e-19 -0.012131 0.0337829 0.0170331
0 -0.035881 0.00233887 0.0168621
3.28979e-21 -0.025881 0.025 0.01693
-1.0842e-19 -0.024631 0.02625 0.0169389
2.1684e-19 0.017869 0.0312567 0.0172961
0 -0.032131 0.0162494 0.0168872
-5.60719e-20 -0.008381 0.0350537 0.0170631
0 -0.027131 0.02375 0.0169212
-1.91544e-20 -0.023381 0.0275 0.0169479
-1.91558e-20 0.031619 0.0175 0.0174386
1.0842e-19 0.012869 0.033783 0.0172483
1.71129e-20 -0.015881 0.0325122 0.017004
2.06795e-25 -0.035881 0.00479858 0.0168628
3.28979e-21 -0.028381 0.0225 0.0169125
0 0.009119 0.0350537 0.0172136
1.0842e-19 -0.022131 0.0287506 0.0169569
5.04871e-29 -0.033381 0.0142204 0.016879
8.07794e-28 0.034119 0.0124878 0.0174666
0 0.000369 0.036344 0.017136
2.1684e-19 -0.034631 0.011217 0.0168708
2.1684e-19 -0.002131 0.036344 0.0171147
-1.0842e-19 0.035369 0.00865601 0.0174812
-1.0842e-19 0.002869 0.036344 0.0171577
0 -0.029631 0.02125 0.0169038
0 0.025369 0.02625 0.0173713
0 0.016619 0.0325122 0.017284
0 0.026619 0.025 0.0173845
1.29247e-26 0.0364712 0.00233887 0.0174924
-1.46111e-19 -0.020881 0.0300012 0.0169662
-1.91544e-20 0.024119 0.0275 0.0173585
-1.54617e-28 0.024119 0.0275076 0.0173585
0 -0.033381 0.0149988 0.0168788
0 0.027869 0.02375 0.0173976
-8.27181e-25 0.036619 6.2941e-09 0.0174929
-3.13663e-20 -0.035881 0.00736572 0.0168627
0 -0.004631 0.036344 0.0170938
-1.0842e-19 0.032869 0.0162494 0.0174522
1.04722e-19 0.036619 0.00233887 0.017494
-1.24232e-20 -0.010881 0.0350537 0.017043
0 0.022869 0.0287506 0.0173457
0 0.005369 0.036344 0.0171796
1.29247e-26 0.036619 0.00320007 0.0174943
-9.67102e-20 -0.030881 0.02 0.0168952
8.08456e-20 0.029119 0.0225 0.0174109
1.0842e-19 -0.014631 0.0337829 0.0170135
-1.0842e-19 -0.019631 0.0312567 0.0169754
2.58494e-26 0.011619 0.0350537 0.0172366
0 0.036619 0.00479858 0.0174949
0 0.021619 0.0300012 0.0173331
1.0842e-19 -0.007131 0.036344 0.0170732
0 0.030369 0.02125 0.0174243
1.0842e-19 0.035369 0.011217 0.0174803
0 0.015369 0.033783 0.0172719
1.0842e-19 -0.037131 0.00116943 0.0168527
-2.1684e-19 0.007869 0.036344 0.0172021
1.0842e-19 -0.032131 0.01875 0.0168867
0 -0.035881 0.00994629 0.0168625
0 -0.034631 0.0137433 0.0168704
0 0.034119 0.0149988 0.017466
1.0842e-19 -0.037131 0.00356872 0.0168545
0 0.020369 0.0312567 0.0173205
1.09443e-20 -0.018381 0.0325122 0.0169848
0 0.036619 0.00736572 0.0174947
-9.67102e-20 0.031619 0.02 0.0174379
8.07794e-28 -0.035881 0.0106692 0.0168624
8.77237e-20 -0.013381 0.0350537 0.0170232
-1.0842e-19 -0.009631 0.036344 0.0170528
0 -0.037131 0.00608215 0.0168541
1.03398e-25 -0.000881 0.0376343 0.0171252
-4.03897e-28 -0.0363271 0.00994629 0.0168595
0 0.001619 0.0376343 0.0171467
-3.54883e-20 -0.033381 0.0175 0.0168783
6.46235e-27 0.019119 0.0325122 0.0173081
-1.0842e-19 -0.027131 0.02625 0.0169207
8.08456e-20 -0.025881 0.0275 0.0169297
0 -0.003381 0.0376343 0.0171041
0 0.014119 0.0350537 0.0172599
-2.1684e-19 0.010369 0.036344 0.0172249
0 -0.0378049 0 0.0168481
-1.13044e-19 -0.028381 0.025 0.016912
1.0842e-19 0.032869 0.01875 0.0174515
0 -0.024631 0.0287506 0.0169386
0 0.004119 0.0376343 0.0171685
-1.0842e-19 -0.017131 0.0337829 0.0169941
-1.0842e-19 0.037869 0.00116944 0.0175065
1.0842e-19 0.035369 0.0137433 0.0174799
6.46235e-27 0.036619 0.00994629 0.0174945
0 -0.029631 0.02375 0.0169032
0 -0.035881 0.0124878 0.016862
-1.47147e-19 -0.023381 0.0300012 0.0169476