# p  POINT_DATA 26303
# x  y  z  p
1.62142e-08 -1.0842e-19 0 0.0171363
-0.000880991 -5.42101e-20 0 0.0171653
0.000881021 1.0842e-19 0 0.0171072
-0.00161899 1.0842e-19 0 0.0171895
0.00161902 0 0 0.0170829
-0.00124999 -1.807e-20 0.00116943 0.0171775
0.00125001 -9.03502e-21 0.00116943 0.0170952
6.61554e-09 0 0.00233887 0.0171373
-0.0025 -1.0842e-19 0 0.0172186
0.00250002 -1.0842e-19 0 0.0170539
-0.003381 0 0 0.0172475
0.00338102 0 0 0.0170248
-0.0025 -1.0842e-19 0.00233887 0.0172195
0.00250001 1.0842e-19 0.00233887 0.017055
-0.00125 1.807e-20 0.00356872 0.0171793
0.00125 3.61401e-20 0.00356872 0.017097
-0.00375 0 0.00116943 0.0172597
0.00375001 0 0.00116944 0.0170128
-0.004119 -5.42101e-20 0 0.0172716
0.00411901 0 0 0.0170005
2.5969e-09 -1.0842e-19 0.00479858 0.0171382
0.00500001 -1.0842e-19 0 0.0169714
-0.00500001 1.0842e-19 0 0.0173005
-0.00375 9.03502e-21 0.00356873 0.0172613
0.00375 3.61401e-20 0.00356873 0.0170146
0.0025 -1.0842e-19 0.00479858 0.0170559
-0.0025 0 0.00479858 0.0172204
-0.005 0 0.00233887 0.0173014
0.00500001 1.0842e-19 0.00233887 0.0169724
-0.00588101 5.42101e-20 0 0.0173293
0.00588101 -1.0842e-19 0 0.0169422
-0.00125 -1.807e-20 0.00608215 0.0171791
0.00125 0 0.00608215 0.0170968
-0.00625 0 0.00116944 0.0173414
0.00625 0 0.00116943 0.01693
-0.006619 -5.42101e-20 0 0.0173532
0.006619 -5.42101e-20 0 0.0169176
0.005 -1.0842e-19 0.00479858 0.0169733
-0.005 0 0.00479858 0.0173022
-0.00375 -1.807e-20 0.00608215 0.0172612
0.00375 -1.807e-20 0.00608215 0.0170145
-0.00625 9.03502e-21 0.00356873 0.0173429
0.00625 9.03502e-21 0.00356873 0.0169318
8.48585e-10 0 0.00736572 0.0171382
-0.0075 1.0842e-19 0 0.0173817
0.0075 -1.0842e-19 0 0.0168882
0.0025 0 0.00736572 0.0170558
-0.0025 0 0.00736572 0.0172204
-0.0075 -1.0842e-19 0.00233887 0.0173827
0.0075 0 0.00233887 0.0168892
-0.008381 5.42101e-20 0 0.0174102
0.008381 5.42101e-20 0 0.0168586
-0.00625 -1.807e-20 0.00608215 0.0173427
0.00625 4.51751e-20 0.00608215 0.0169316
-0.00125 0 0.008656 0.0171794
0.00125 0 0.00865601 0.017097
-0.00874999 -1.807e-20 0.00116944 0.0174222
0.00875 -9.03502e-21 0.00116944 0.0168463
0.005 0 0.00736572 0.0169732
-0.005 0 0.00736572 0.0173021
0.0075 0 0.00479858 0.0168901
-0.0075 0 0.00479858 0.0173834
-0.00911899 -5.42101e-20 0 0.0174339
0.00911899 0 0 0.0168338
-0.00375 -1.807e-20 0.008656 0.0172613
0.00375 0 0.008656 0.0170145
-0.00875 9.03502e-21 0.00356873 0.0174238
0.00875 0 0.00356873 0.0168484
2.04885e-10 0 0.00994629 0.017138
-0.00999999 0 0 0.0174624
0.00999999 -1.0842e-19 0 0.0168041
0.0025 0 0.00994629 0.0170556
-0.0025 0 0.00994629 0.0172202
-0.00999999 0 0.00233887 0.0174633
0.01 0 0.00233887 0.0168052
0.0075 0 0.00736572 0.0168901
-0.0075 0 0.00736572 0.0173834
0.00875 1.807e-20 0.00608215 0.0168482
-0.00875 -3.61401e-20 0.00608215 0.0174237
-0.00625 -1.807e-20 0.008656 0.0173428
0.00625 0 0.008656 0.0169317
0.010881 -5.42101e-20 0 0.0167742
-0.010881 -5.42101e-20 0 0.0174907
0.01 0 0.00479858 0.0168062
-0.01 0 0.00479858 0.0174641
0.005 0 0.00994629 0.0169729
-0.005 0 0.00994629 0.017302
-0.00125 -3.61401e-20 0.011217 0.0171788
0.00125 -3.61401e-20 0.011217 0.0170965
-0.01125 2.71051e-20 0.00116944 0.0175026
0.01125 1.807e-20 0.00116943 0.0167619
-0.011619 5.42101e-20 0 0.0175143
0.011619 1.0842e-19 0 0.0167492
-0.01125 -1.807e-20 0.00356872 0.0175041
0.01125 0 0.00356873 0.0167638
0.00375 1.807e-20 0.011217 0.017014
-0.00375 1.807e-20 0.011217 0.0172608
-0.00875 -1.807e-20 0.008656 0.0174238
0.00875 1.807e-20 0.00865601 0.0168485
0.01 0 0.00736572 0.0168062
-0.01 0 0.00736572 0.017464
0.0075 0 0.00994629 0.0168899
-0.0075 0 0.00994629 0.0173832
3.14938e-11 0 0.0124878 0.0171376
0.0125 -1.0842e-19 0 0.0167192
-0.0125 1.0842e-19 0 0.0175422
0.0125 1.0842e-19 0.00233887 0.0167203
-0.0125 1.0842e-19 0.00233887 0.0175431
0.0025 0 0.0124878 0.0170551
-0.0025 0 0.0124878 0.0172197
-0.01125 -2.71051e-20 0.00608215 0.0175039
0.01125 -9.03502e-21 0.00608215 0.0167638
-0.00625 -3.61401e-20 0.011217 0.0173424
0.00625 -3.61401e-20 0.011217 0.0169311
0.013381 0 0 0.0166891
-0.013381 0 0 0.0175701
0.0125 -1.0842e-19 0.00479858 0.0167213
-0.0125 -1.0842e-19 0.00479858 0.0175439
0.005 0 0.0124878 0.0169723
-0.005 0 0.0124878 0.0173015
0.01375 0 0.00116943 0.0166766
-0.01375 2.71051e-20 0.00116944 0.0175819
-0.00125 -3.61401e-20 0.0137433 0.0171785
0.00125 -3.61401e-20 0.0137433 0.0170961
0.01 0 0.00994629 0.0168061
-0.01 0 0.00994629 0.0174638
-0.014119 -1.0842e-19 0 0.0175934
0.014119 -5.42101e-20 0 0.0166638
0.01125 -1.807e-20 0.008656 0.0167641
-0.01125 -1.807e-20 0.008656 0.0175039
-0.01375 1.807e-20 0.00356873 0.0175834
0.01375 9.03502e-21 0.00356872 0.0166784
0.00875 -1.807e-20 0.011217 0.0168478
-0.00875 -1.807e-20 0.011217 0.0174232
0.00375 3.61401e-20 0.0137433 0.0170136
-0.00375 0 0.0137433 0.0172604
0.0125 0 0.00736572 0.0167214
-0.0125 0 0.00736572 0.0175438
0.0075 0 0.0124878 0.0168893
-0.0075 0 0.0124878 0.0173827
2.25352e-12 0 0.0149988 0.017137
-0.015 0 0 0.0176212
0.015 -1.0842e-19 0 0.0166334
0.01375 -1.807e-20 0.00608215 0.0166785
-0.01375 1.807e-20 0.00608215 0.0175833
0.00625 -1.807e-20 0.0137433 0.0169306
-0.00625 -1.807e-20 0.0137433 0.0173419
0.015 -1.0842e-19 0.00233887 0.0166344
-0.015 1.0842e-19 0.00233887 0.0176221
0.0025 0 0.0149988 0.0170546
-0.0025 0 0.0149988 0.0172192
0.015 -1.0842e-19 0.00479858 0.0166354
-0.015 -1.0842e-19 0.00479858 0.0176228
0.005 0 0.0149988 0.0169718
-0.005 0 0.0149988 0.017301
-0.015881 1.0842e-19 0 0.0176489
0.015881 -5.42101e-20 0 0.0166028
0.01125 0 0.011217 0.0167636
-0.01125 -3.61401e-20 0.011217 0.0175035
0.0125 0 0.00994629 0.0167213
-0.0125 0 0.00994629 0.0175435
0.01 0 0.0124878 0.0168056
-0.01 0 0.0124878 0.0174632
0.01375 -1.807e-20 0.008656 0.0166788
-0.01375 -1.807e-20 0.008656 0.0175834
0.01625 1.807e-20 0.00116943 0.0165902
-0.01625 9.03502e-21 0.00116943 0.0176606
-0.00875 -1.807e-20 0.0137433 0.0174228
0.00875 -1.807e-20 0.0137433 0.0168475
-0.00125 0 0.0162494 0.0171777
0.00125 0 0.0162494 0.0170954
0.016619 -1.0842e-19 0 0.0165772
-0.016619 0 0 0.017672
0.01625 0 0.00356872 0.0165921
-0.01625 1.807e-20 0.00356873 0.017662
-0.00375 -3.61401e-20 0.0162494 0.0172598
0.00375 0 0.0162494 0.0170129
0.015 0 0.00736572 0.0166355
-0.015 0 0.00736572 0.0176227
0.0075 0 0.0149988 0.0168888
-0.0075 0 0.0149988 0.0173823
0.01625 -1.807e-20 0.00608215 0.0165921
-0.01625 9.03502e-21 0.00608215 0.0176618
-0.00625 0 0.0162494 0.0173414
0.00625 -1.807e-20 0.0162494 0.01693
-0.0175 -1.0842e-19 0 0.0176995
0.0175 0 0 0.0165465
-1.02403e-14 0 0.0175 0.0171364
-0.0175 0 0.00233887 0.0177003
0.0175 -1.0842e-19 0.00233887 0.0165475
0.0125 0 0.0124878 0.0167208
-0.0125 0 0.0124878 0.017543
0.0025 0 0.0175 0.017054
-0.0025 0 0.0175 0.0172186
0.01375 -1.807e-20 0.011217 0.0166783
-0.01375 0 0.011217 0.0175827
-0.01125 0 0.0137433 0.017503
0.01125 0 0.0137433 0.0167632
0.015 0 0.00994629 0.0166355
-0.015 0 0.00994629 0.0176225
0.01 0 0.0149988 0.0168052
-0.01 0 0.0149988 0.0174628
0.0175 -1.0842e-19 0.00479858 0.0165485
-0.0175 0 0.00479858 0.017701
0.005 0 0.0175 0.0169712
-0.005 0 0.0175 0.0173004
-0.018381 -1.0842e-19 0 0.0177268
0.018381 0 0 0.0165156
0.01625 -1.807e-20 0.008656 0.0165924
-0.01625 -3.61401e-20 0.008656 0.0176619
0.00875 -1.807e-20 0.0162494 0.0168469
-0.00875 0 0.0162494 0.0174224
-0.01875 -9.03502e-21 0.00116943 0.0177383
0.01875 -9.03502e-21 0.00116944 0.0165028
0.00125 -1.807e-20 0.01875 0.0170949
-0.00125 -1.807e-20 0.01875 0.0171771
0.0175 0 0.00736572 0.0165486
-0.0175 0 0.00736572 0.0177009
0.0075 0 0.0175 0.0168883
-0.0075 0 0.0175 0.0173817
0.01875 4.51751e-20 0.00356873 0.0165047
-0.01875 1.807e-20 0.00356873 0.0177398
0.019119 1.0842e-19 0 0.0164898
-0.019119 5.42101e-20 0 0.0177496
0.00375 0 0.01875 0.0170124
-0.00375 0 0.01875 0.0172592
0.01375 -1.807e-20 0.0137433 0.0166779
-0.01375 0 0.0137433 0.0175823
0.015 0 0.0124878 0.016635
-0.015 0 0.0124878 0.0176219
0.0125 0 0.0149988 0.0167204
-0.0125 0 0.0149988 0.0175425
0.01875 1.807e-20 0.00608215 0.0165047
-0.01875 3.61401e-20 0.00608215 0.0177396
0.01625 -1.807e-20 0.011217 0.0165919
-0.01625 -1.807e-20 0.011217 0.0176612
0.01125 -1.807e-20 0.0162494 0.0167626
-0.01125 0 0.0162494 0.0175025
0.00625 0 0.01875 0.0169295
-0.00625 0 0.01875 0.0173408
-0.02 -1.0842e-19 0 0.0177768
0.02 0 0 0.0164587
-1.02402e-14 0 0.02 0.0171358
0.0175 0 0.00994629 0.0165486
-0.0175 0 0.00994629 0.0177006
-0.02 0 0.00233887 0.0177777
0.02 -1.0842e-19 0.00233887 0.0164598
0.01 0 0.0175 0.0168046
0.0025 0 0.02 0.0170534
-0.0025 0 0.02 0.0172179
-0.01 0 0.0175 0.0174622
0.02 0 0.00479858 0.0164608
-0.02 0 0.00479858 0.0177784
0.005 0 0.02 0.0169707
-0.005 0 0.02 0.0172998
0.01875 1.807e-20 0.008656 0.016505
-0.01875 -1.807e-20 0.008656 0.0177397
0.00875 -3.61401e-20 0.01875 0.0168464
-0.00875 0 0.01875 0.0174217
-0.020881 5.42101e-20 0 0.0178039
0.020881 0 0 0.0164275
0.015 0 0.0149988 0.0166346
-0.015 0 0.0149988 0.0176214
0.02125 0 0.00116944 0.0164146
-0.02125 -2.71051e-20 0.00116943 0.0178153
-0.01625 -1.807e-20 0.0137433 0.0176608
0.01625 -1.807e-20 0.0137433 0.0165915
-0.01375 0 0.0162494 0.0175817
0.01375 0 0.0162494 0.0166774
0.00125 -3.61401e-20 0.02125 0.0170942
-0.00125 0 0.02125 0.0171765
0.02 0 0.00736572 0.0164609
-0.02 0 0.00736572 0.0177783
0.0075 0 0.02 0.0168877
-0.0075 0 0.02 0.0173812
0.0175 0 0.0124878 0.0165481
-0.0175 0 0.0124878 0.0177001
0.0125 0 0.0175 0.0167199
-0.0125 0 0.0175 0.0175419
-0.02125 0 0.00356873 0.0178168
0.02125 9.03502e-21 0.00356873 0.0164165
0.00375 -1.807e-20 0.02125 0.0170118
-0.00375 -1.807e-20 0.02125 0.0172586
0.021619 0 0 0.0164014
-0.021619 5.42101e-20 0 0.0178265
0.01875 -1.807e-20 0.011217 0.0165045
-0.01875 -1.807e-20 0.011217 0.0177391
0.01125 -3.61401e-20 0.01875 0.0167621
-0.01125 -1.807e-20 0.01875 0.0175018
-0.02125 -2.71051e-20 0.00608215 0.0178166
0.02125 1.807e-20 0.00608215 0.0164165
0.00625 1.807e-20 0.02125 0.0169289
-0.00625 0 0.02125 0.0173403
0.02 0 0.00994629 0.0164608
-0.02 0 0.00994629 0.017778
0.01 0 0.02 0.016804
-0.01 0 0.02 0.0174617
-0.0225 -1.0842e-19 0 0.0178534
0.0225 0 0 0.0163702
-1.024e-14 0 0.0225 0.0171351
-0.0225 1.0842e-19 0.00233887 0.0178543
0.0225 -1.0842e-19 0.00233887 0.0163712
0.0025 0 0.0225 0.0170528
-0.0025 0 0.0225 0.0172173
0.02125 -1.807e-20 0.008656 0.0164168
-0.02125 -1.807e-20 0.008656 0.0178167
0.01625 -1.807e-20 0.0162494 0.016591
-0.01625 0 0.0162494 0.0176603
-0.00875 1.807e-20 0.02125 0.0174213
0.00875 -1.807e-20 0.02125 0.0168458
0.0225 -1.0842e-19 0.00479858 0.0163723
-0.0225 -1.0842e-19 0.00479858 0.017855
0.0175 0 0.0149988 0.0165477
-0.0175 0 0.0149988 0.0176996
0.005 0 0.0225 0.0169701
-0.005 0 0.0225 0.0172993
0.015 0 0.0175 0.0166341
-0.015 0 0.0175 0.0176209
0.01875 -3.61401e-20 0.0137433 0.0165042
-0.01875 -1.807e-20 0.0137433 0.0177386
0.01375 -1.807e-20 0.01875 0.0166769
-0.01375 -3.61401e-20 0.01875 0.0175812
-0.023381 -5.42101e-20 0 0.0178803
0.023381 0 0 0.0163388
0.02 0 0.0124878 0.0164604
-0.02 0 0.0124878 0.0177775
0.0125 0 0.02 0.0167193
-0.0125 0 0.02 0.0175414
0.0225 0 0.00736572 0.0163724
-0.0225 0 0.00736572 0.0178549
0.0075 0 0.0225 0.0168872
-0.0075 0 0.0225 0.0173807
-0.02375 -9.03502e-21 0.00116943 0.0178916
0.02375 2.71051e-20 0.00116944 0.0163258
0.00125 -1.807e-20 0.02375 0.0170936
-0.00125 -1.807e-20 0.02375 0.0171759
-0.02375 1.807e-20 0.00356873 0.017893
0.02375 9.03502e-21 0.00356873 0.0163277
0.02125 -1.807e-20 0.011217 0.0164164
-0.02125 -1.807e-20 0.011217 0.017816
0.01125 -1.807e-20 0.02125 0.0167616
0.00375 0 0.02375 0.0170112
-0.00375 -1.807e-20 0.02375 0.017258
-0.01125 3.61401e-20 0.02125 0.0175014
0.024119 1.0842e-19 0 0.0163125
-0.024119 5.42101e-20 0 0.0179026
0.02375 -1.807e-20 0.00608215 0.0163277
-0.02375 -1.807e-20 0.00608215 0.0178928
0.00625 -1.807e-20 0.02375 0.0169285
-0.00625 -1.807e-20 0.02375 0.0173398
0.0225 0 0.00994629 0.0163723
-0.0225 0 0.00994629 0.0178546
0.01 0 0.0225 0.0168035
-0.01 0 0.0225 0.0174612
0.0175 0 0.0175 0.0165472
-0.0175 0 0.0175 0.017699
0.01875 -1.807e-20 0.0162494 0.0165037
-0.01875 -1.807e-20 0.0162494 0.0177381
-0.01625 -1.807e-20 0.01875 0.0176598
0.01625 -1.807e-20 0.01875 0.0165904
0.02 0 0.0149988 0.0164599
-0.02 0 0.0149988 0.017777
-0.025 -1.0842e-19 0 0.0179293
0.015 0 0.02 0.0166335
-0.015 0 0.02 0.0176204
0.025 -1.0842e-19 0 0.0162809
-1.02399e-14 0 0.025 0.0171346
-0.025 1.0842e-19 0.00233887 0.0179302
0.025 -1.0842e-19 0.00233887 0.016282
0.0025 0 0.025 0.0170523
-0.0025 0 0.025 0.0172168
0.02375 -1.807e-20 0.008656 0.016328
-0.02375 -1.807e-20 0.008656 0.0178928
0.02125 -1.807e-20 0.0137433 0.016416
-0.02125 -3.61401e-20 0.0137433 0.0178156
0.01375 0 0.02125 0.0166764
-0.00875 0 0.02375 0.0174207
-0.01375 -3.61401e-20 0.02125 0.0175808
0.00875 3.61401e-20 0.02375 0.0168453
0.025 -1.0842e-19 0.00479858 0.016283
-0.025 -1.0842e-19 0.00479858 0.0179309
0.005 0 0.025 0.0169697
-0.005 0 0.025 0.0172988
0.0225 0 0.0124878 0.0163718
-0.0225 0 0.0124878 0.0178541
0.0125 0 0.0225 0.0167188
-0.0125 0 0.0225 0.017541
-0.025881 0 0 0.0179559
0.025881 0 0 0.0162492
0.025 0 0.00736572 0.0162831
-0.025 0 0.00736572 0.0179307
0.0075 0 0.025 0.0168867
-0.0075 0 0.025 0.0173802
0.02375 -1.807e-20 0.011217 0.0163275
-0.02375 0 0.011217 0.0178923
-0.02625 -9.03502e-21 0.00116943 0.0179671
0.02625 1.807e-20 0.00116943 0.0162361
0.00125 -1.807e-20 0.02625 0.0170931
0.01125 3.61401e-20 0.02375 0.0167611
-0.01125 3.61401e-20 0.02375 0.0175009
-0.00125 -1.807e-20 0.02625 0.0171753
-0.02625 -3.61401e-20 0.00356873 0.0179686
0.02625 0 0.00356873 0.016238
0.01875 0 0.01875 0.0165032
0.00375 -1.807e-20 0.02625 0.0170108
-0.01875 3.61401e-20 0.01875 0.0177376
-0.00375 0 0.02625 0.0172575
0.02 0 0.0175 0.0164594
0.0175 0 0.02 0.0165467
-0.0175 0 0.02 0.0176986
-0.02 0 0.0175 0.0177764
0.026619 5.42101e-20 0 0.0162227
-0.026619 -5.42101e-20 0 0.0179781
0.02125 3.61401e-20 0.0162494 0.0164155
-0.02125 0 0.0162494 0.017815
0.01625 -1.807e-20 0.02125 0.0165899
-0.01625 -3.61401e-20 0.02125 0.0176592
0.025 0 0.00994629 0.0162831
-0.025 0 0.00994629 0.0179305
0.01 0 0.025 0.0168031
-0.01 0 0.025 0.0174607
0.02625 0 0.00608215 0.016238
-0.02625 1.807e-20 0.00608215 0.0179684
0.00625 1.807e-20 0.02625 0.0169279
-0.00625 0 0.02625 0.0173393
0.0225 0 0.0149988 0.0163714
-0.0225 0 0.0149988 0.0178536
0.015 0 0.0225 0.016633
-0.015 0 0.0225 0.0176199
-0.02375 -1.807e-20 0.0137433 0.0178919
0.02375 -1.807e-20 0.0137433 0.0163271
0.01375 5.42101e-20 0.02375 0.0166759
-0.01375 0 0.02375 0.0175802
-1.024e-14 0 0.0275 0.0171341
0.0275 -1.0842e-19 0 0.0161909
-0.0275 -1.0842e-19 0 0.0180045
0.0275 1.0842e-19 0.00233887 0.016192
-0.0275 -1.0842e-19 0.00233887 0.0180054
0.0025 0 0.0275 0.0170518
-0.0025 0 0.0275 0.0172163
0.02625 -3.61401e-20 0.008656 0.0162384
-0.02625 -1.807e-20 0.008656 0.0179684
0.00875 0 0.02625 0.0168447
-0.00875 0 0.02625 0.0174203
0.0275 -1.0842e-19 0.00479858 0.016193
-0.0275 -1.0842e-19 0.00479858 0.0180061
0.025 0 0.0124878 0.0162826
-0.025 0 0.0124878 0.01793
0.005 0 0.0275 0.0169692
-0.005 0 0.0275 0.0172982
0.0125 0 0.025 0.0167184
-0.0125 0 0.025 0.0175405
0.02 0 0.02 0.0164589
-0.02 0 0.02 0.017776
-0.01875 -1.807e-20 0.02125 0.0177371
0.02125 0 0.01875 0.016415
0.01875 0 0.02125 0.0165027
-0.02125 -1.807e-20 0.01875 0.0178145
0.028381 5.42101e-20 0 0.016159
-0.028381 -5.42101e-20 0 0.0180308
0.0275 0 0.00736572 0.0161932
-0.0275 0 0.00736572 0.0180059
0.0075 0 0.0275 0.0168862
-0.0075 0 0.0275 0.0173797
0.0225 0 0.0175 0.0163709
0.0175 0 0.0225 0.0165462
-0.0175 0 0.0225 0.0176981
-0.0225 0 0.0175 0.0178531
-0.02625 1.807e-20 0.011217 0.0179679
0.02625 -1.807e-20 0.011217 0.0162379
0.01125 -1.807e-20 0.02625 0.0167608
-0.01125 0 0.02625 0.0175005
-0.02875 -4.51751e-20 0.00116943 0.0180419
0.02875 1.807e-20 0.00116943 0.0161458
0.02375 0 0.0162494 0.0163266
-0.02375 -1.807e-20 0.0162494 0.0178914
0.01625 -1.807e-20 0.02375 0.0165895
-0.01625 -3.61401e-20 0.02375 0.0176588
0.00125 0 0.0287506 0.0170927
-0.00125 1.807e-20 0.0287506 0.0171748
-0.02875 -1.807e-20 0.00356873 0.0180435
0.02875 0 0.00356873 0.0161477
0.00375 1.807e-20 0.0287506 0.0170104
-0.00375 -3.61401e-20 0.0287506 0.017257
-0.029119 0 0 0.0180528
0.029119 -5.42101e-20 0 0.0161323
0.025 0 0.0149988 0.0162822
-0.025 0 0.0149988 0.0179295
0.015 0 0.025 0.0166326
-0.015 0 0.025 0.0176195
0.0275 0 0.00994629 0.0161931
-0.0275 0 0.00994629 0.0180057
0.01 0 0.0275 0.0168027
-0.01 0 0.0275 0.0174604
-0.02875 -1.807e-20 0.00608215 0.0180432
0.02875 9.03502e-21 0.00608215 0.0161477
-0.00625 -1.807e-20 0.0287506 0.0173387
0.00625 1.807e-20 0.0287506 0.0169275
0.02625 -1.807e-20 0.0137433 0.0162376
-0.02625 1.807e-20 0.0137433 0.0179674
-0.01375 -1.807e-20 0.02625 0.0175799
0.01375 3.61401e-20 0.02625 0.0166754
-0.03 -1.0842e-19 0 0.018079
0.03 -1.0842e-19 0 0.0161002
2.13692e-12 0 0.0300012 0.0171336
-0.02875 -3.61401e-20 0.008656 0.0180433
0.02875 -3.61401e-20 0.008656 0.0161481
-0.02125 -1.807e-20 0.02125 0.0178141
0.02125 5.42101e-20 0.02125 0.0164145
-0.00875 -1.807e-20 0.0287506 0.0174199
0.00875 -1.807e-20 0.0287506 0.0168443
-0.03 -1.0842e-19 0.00233887 0.0180799
0.03 0 0.00233887 0.0161013
0.02 0 0.0225 0.0164585
0.0225 0 0.02 0.0163704
-0.02 0 0.0225 0.0177755
-0.0225 0 0.02 0.0178526
0.0025 0 0.0300012 0.0170513
-0.0025 0 0.0300012 0.0172158
0.0275 0 0.0124878 0.0161927
-0.0275 0 0.0124878 0.0180052
0.0125 0 0.0275 0.016718
-0.0125 0 0.0275 0.0175401
0.02375 0 0.01875 0.0163261
0.01875 -1.807e-20 0.02375 0.0165022
-0.01875 3.61401e-20 0.02375 0.0177367
-0.02375 5.42101e-20 0.01875 0.0178909
0.03 0 0.00479858 0.0161023
-0.03 -1.0842e-19 0.00479858 0.0180806
0.005 0 0.0300012 0.0169688
-0.005 0 0.0300012 0.0172978
0.025 0 0.0175 0.0162817
0.0175 0 0.025 0.0165458
-0.0175 0 0.025 0.0176977
-0.025 0 0.0175 0.017929
0.02875 -1.807e-20 0.011217 0.0161476
-0.02875 -1.807e-20 0.011217 0.0180427
0.02625 0 0.0162494 0.016237
-0.02625 -1.807e-20 0.0162494 0.0179669
0.01625 0 0.02625 0.0165892
-0.01625 -1.807e-20 0.02625 0.0176585
0.01125 -1.807e-20 0.0287506 0.0167604
-0.01125 -1.807e-20 0.0287506 0.0175001
0.030881 -5.42101e-20 0 0.016068
-0.030881 0 0 0.0181052
0.03 0 0.00736572 0.0161025
-0.03 0 0.00736572 0.0180804
0.0075 0 0.0300012 0.0168858
-0.0075 0 0.0300012 0.0173793
0.03125 0 0.00116943 0.0160547
-0.03125 0 0.00116943 0.0181162
0.00125 1.807e-20 0.0312567 0.0170922
-0.00125 0 0.0312567 0.0171745
0.0275 0 0.0149988 0.0161922
-0.0275 0 0.0149988 0.0180047
0.015 0 0.0275 0.0166323
-0.015 0 0.0275 0.0176191
-0.03125 -1.807e-20 0.00356873 0.0181176
0.03125 0 0.00356872 0.0160566
0.00375 -1.807e-20 0.0312567 0.0170099
-0.00375 -1.807e-20 0.0312567 0.0172567
0.03 0 0.00994629 0.0161024
-0.03 0 0.00994629 0.0180802
-0.031619 0 0 0.018127
0.031619 0 0 0.0160411
0.01 0 0.0300012 0.0168023
-0.01 0 0.0300012 0.01746
0.0225 0 0.0225 0.0163699
-0.0225 0 0.0225 0.0178521
0.03125 1.807e-20 0.00608215 0.0160567
-0.03125 -1.807e-20 0.00608215 0.0181174
0.02875 -1.807e-20 0.0137433 0.0161472
-0.02875 -3.61401e-20 0.0137433 0.0180423
0.02375 -1.807e-20 0.02125 0.0163256
-0.02125 -1.807e-20 0.02375 0.0178136
-0.02375 -1.807e-20 0.02125 0.0178904
0.02125 0 0.02375 0.0164141
-0.01375 -1.807e-20 0.0287506 0.0175795
0.01375 0 0.0287506 0.0166751
0.00625 1.807e-20 0.0312567 0.0169272
-0.00625 1.807e-20 0.0312567 0.0173383
0.025 0 0.02 0.0162811
0.02 0 0.025 0.016458
-0.02 0 0.025 0.0177751
-0.025 0 0.02 0.0179285
-0.01875 5.42101e-20 0.02625 0.0177363
0.02625 -1.807e-20 0.01875 0.0162365
-0.02625 0 0.01875 0.0179664
0.01875 3.61401e-20 0.02625 0.0165018
0.03125 -1.807e-20 0.008656 0.016057
-0.03125 -1.807e-20 0.008656 0.0181174
0.00875 -1.807e-20 0.0312567 0.0168439
-0.00875 -1.807e-20 0.0312567 0.0174196
0.03 0 0.0124878 0.016102
-0.03 0 0.0124878 0.0180797
-0.0325 -1.0842e-19 0 0.018153
0.0325 -1.0842e-19 0 0.0160087
0.0125 0 0.0300012 0.0167177
-0.0125 0 0.0300012 0.0175398
2.84343e-11 0 0.0325122 0.0171333
0.0325 0 0.00233886 0.0160098
-0.0325 1.0842e-19 0.00233887 0.0181538
0.0275 0 0.0175 0.0161917
0.0175 0 0.0275 0.0165455
-0.0175 0 0.0275 0.0176973
-0.0275 0 0.0175 0.0180042
0.0025 0 0.0325122 0.017051
-0.0025 0 0.0325122 0.0172155
0.0325 0 0.00479858 0.0160109
-0.0325 -1.0842e-19 0.00479858 0.0181545
0.005 0 0.0325122 0.0169684
-0.005 0 0.0325122 0.0172975
0.02875 -1.807e-20 0.0162494 0.0161467
-0.02875 0 0.0162494 0.0180418
0.01625 -1.807e-20 0.0287506 0.0165888
-0.01625 0 0.0287506 0.017658
0.03125 -1.807e-20 0.011217 0.0160565
-0.03125 -1.807e-20 0.011217 0.0181169
0.01125 -1.807e-20 0.0312567 0.0167601
-0.01125 -1.807e-20 0.0312567 0.0174998
0.0325 0 0.00736572 0.016011
-0.0325 0 0.00736572 0.0181543
0.0075 0 0.0325122 0.0168855
-0.0075 0 0.0325122 0.017379
0.033381 -5.42101e-20 0 0.0159763
-0.033381 0 0 0.0181789
0.03 0 0.0149988 0.0161015
-0.03 0 0.0149988 0.0180792
0.015 0 0.0300012 0.016632
-0.015 0 0.0300012 0.0176188
-0.02375 0 0.02375 0.01789
0.02375 0 0.02375 0.0163251
0.025 0 0.0225 0.0162806
0.0225 0 0.025 0.0163695
-0.0225 0 0.025 0.0178518
-0.025 0 0.0225 0.0179281
-0.03375 -1.807e-20 0.00116943 0.0181898
0.03375 0 0.00116943 0.0159628
0.02125 -1.807e-20 0.02625 0.0164137
0.02625 -1.807e-20 0.02125 0.0162359
-0.02125 -1.807e-20 0.02625 0.0178133
-0.02625 3.61401e-20 0.02125 0.0179659
0.00125 1.807e-20 0.0337829 0.017092
-0.00125 0 0.033783 0.0171742
0.03375 0 0.00356872 0.0159648
-0.03375 -1.807e-20 0.00356873 0.0181912
0.0325 0 0.00994629 0.016011
-0.0325 0 0.00994629 0.018154
-0.00375 -1.807e-20 0.0337829 0.0172564
0.00375 0 0.033783 0.0170095
0.02 0 0.0275 0.0164577
0.0275 0 0.02 0.0161911
-0.02 0 0.0275 0.0177747
-0.0275 0 0.02 0.0180037
0.01 0 0.0325122 0.016802
-0.01 0 0.0325122 0.0174597
-0.034119 0 0 0.0182005
0.034119 -5.42101e-20 0 0.0159491
0.03125 -1.807e-20 0.0137433 0.0160561
-0.03125 0 0.0137433 0.0181165
0.01375 0 0.0312567 0.0166748
-0.01375 0 0.0312567 0.0175792
0.03375 -1.807e-20 0.00608215 0.0159648
-0.03375 -1.807e-20 0.00608215 0.018191
0.02875 -1.807e-20 0.01875 0.0161461
-0.02875 -1.807e-20 0.01875 0.0180413
-0.01875 -1.807e-20 0.0287506 0.017736
0.01875 -1.807e-20 0.0287506 0.0165015
0.00625 -1.807e-20 0.0337829 0.0169269
-0.00625 -1.807e-20 0.0337829 0.0173382
0.03 0 0.0175 0.0161009
-0.03 0 0.0175 0.0180787
0.0175 0 0.0300012 0.0165452
-0.0175 0 0.0300012 0.017697
0.0325 0 0.0124878 0.0160105
-0.0325 0 0.0124878 0.0181535
0.0125 0 0.0325122 0.0167175
-0.0125 0 0.0325122 0.0175396
0.03375 -1.807e-20 0.008656 0.0159652
-0.03375 -1.807e-20 0.008656 0.018191
0.00875 -1.807e-20 0.0337829 0.0168437
-0.00875 -1.807e-20 0.0337829 0.0174193
-0.035 -1.0842e-19 0 0.0182263
0.035 -1.0842e-19 0 0.0159165
1.81357e-10 0 0.0350537 0.017133
-0.035 -1.0842e-19 0.00233887 0.0182271
0.035 0 0.00233887 0.0159176
0.0025 0 0.0350537 0.0170507
-0.0025 0 0.0350537 0.0172153
0.03125 -1.807e-20 0.0162494 0.0160555
-0.03125 -1.807e-20 0.0162494 0.0181159
0.01625 0 0.0312567 0.0165886
-0.01625 -1.807e-20 0.0312567 0.0176578
0.035 0 0.00479858 0.0159187
-0.035 -1.0842e-19 0.00479858 0.0182277
0.025 0 0.025 0.0162802
-0.025 0 0.025 0.0179277
0.02375 0 0.02625 0.0163247
-0.02375 0 0.02625 0.0178897
-0.02625 -1.807e-20 0.02375 0.0179655
0.02625 0 0.02375 0.0162355
0.005 0 0.0350537 0.0169682
-0.005 0 0.0350537 0.0172973
0.0225 0 0.0275 0.0163691
0.0275 0 0.0225 0.0161906
-0.0225 0 0.0275 0.0178514
-0.0275 0 0.0225 0.0180033
-0.03375 -1.807e-20 0.011217 0.0181904
0.03375 -1.807e-20 0.011217 0.0159647
0.01125 1.807e-20 0.0337829 0.0167599
-0.01125 0 0.0337829 0.0174996
0.02875 -1.807e-20 0.02125 0.0161456
-0.02875 5.42101e-20 0.02125 0.0180408
0.02125 -1.807e-20 0.0287506 0.0164133
-0.02125 -1.807e-20 0.0287506 0.0178129
0.035 0 0.00736572 0.0159188
-0.035 0 0.00736572 0.0182275
0.0325 0 0.0149988 0.01601
-0.0325 0 0.0149988 0.018153
0.015 0 0.0325122 0.0166318
-0.015 0 0.0325122 0.0176186
0.0075 0 0.0350537 0.0168853
-0.0075 0 0.0350537 0.0173788
0.035881 1.0842e-19 0 0.0158839
-0.035881 0 0 0.0182519
0.03 0 0.02 0.0161004
-0.03 0 0.02 0.0180782
0.02 0 0.0300012 0.0164574
-0.02 0 0.0300012 0.0177744
0.03625 -9.03502e-21 0.00116943 0.0158703
-0.03625 -1.807e-20 0.00116943 0.0182627
0.00125 0 0.036344 0.0170917
-0.00125 0 0.036344 0.017174
0.035 0 0.00994629 0.0159188
-0.035 0 0.00994629 0.0182273
0.03625 -9.03502e-21 0.00356873 0.0158722
-0.03625 0 0.00356873 0.0182642
-0.03375 -1.807e-20 0.0137433 0.0181899
0.03375 -1.807e-20 0.0137433 0.0159644
-0.03125 0 0.01875 0.0181155
0.03125 0 0.01875 0.016055
-0.01875 -1.807e-20 0.0312567 0.0177357
0.01875 -1.807e-20 0.0312567 0.0165013
0.01 0 0.0350537 0.0168018
-0.01 0 0.0350537 0.0174596
0.01375 0 0.0337829 0.0166747
-0.01375 0 0.0337829 0.0175791
-0.00375 3.61401e-20 0.036344 0.0172562
0.00375 1.807e-20 0.036344 0.0170092
-0.036619 0 0 0.0182733
0.036619 -5.42101e-20 0 0.0158565
0.03625 -9.03502e-21 0.00608215 0.0158722
-0.03625 -1.807e-20 0.00608215 0.0182638
0.00625 1.807e-20 0.036344 0.0169267
-0.00625 -1.807e-20 0.036344 0.0173379
0.0325 0 0.0175 0.0160095
-0.0325 0 0.0175 0.0181525
0.0175 0 0.0325122 0.016545
-0.0175 0 0.0325122 0.0176968
0.02625 3.61401e-20 0.02625 0.016235
-0.02625 -1.807e-20 0.02625 0.0179652
0.035 0 0.0124878 0.0159184
-0.035 0 0.0124878 0.0182267
0.025 0 0.0275 0.0162798
0.0275 0 0.025 0.0161902
-0.025 0 0.0275 0.0179274
-0.0275 0 0.025 0.0180029
0.0125 0 0.0350537 0.0167174
-0.0125 0 0.0350537 0.0175394
-0.03625 -1.807e-20 0.008656 0.0182638
0.03625 -1.807e-20 0.008656 0.0158726
0.02875 5.42101e-20 0.02375 0.0161451
-0.02875 -3.61401e-20 0.02375 0.0180404
0.02375 0 0.0287506 0.0163244
-0.02375 -1.807e-20 0.0287506 0.0178894
0.00875 3.61401e-20 0.036344 0.0168435
-0.00875 -9.03502e-21 0.036344 0.0174192
0.03375 -1.807e-20 0.0162494 0.0159637
-0.03375 -1.807e-20 0.0162494 0.0181894
0.01625 0 0.0337829 0.0165885
-0.01625 -1.807e-20 0.0337829 0.0176576
-0.0375 -1.0842e-19 0 0.0182988
0.0375 -1.0842e-19 0 0.0158236
0.03 0 0.0225 0.0160998
-0.03 0 0.0225 0.0180778
0.0225 0 0.0300012 0.0163688
-0.0225 0 0.0300012 0.0178512
0.0375 1.0842e-19 0.00233887 0.0158247
-0.0375 -1.0842e-19 0.00233887 0.0182997
7.35431e-10 0 0.0376343 0.0171328
0.0025 0 0.0376343 0.0170505
-0.0025 0 0.0376343 0.0172151
0.03125 -1.807e-20 0.02125 0.0160544
-0.03125 0 0.02125 0.018115
0.02125 -1.807e-20 0.0312567 0.016413
-0.02125 0 0.0312567 0.0178127
0.0375 -1.0842e-19 0.00479858 0.0158258
-0.0375 -1.0842e-19 0.00479858 0.0183003
0.03625 -1.807e-20 0.011217 0.0158721
-0.03625 -3.61401e-20 0.011217 0.0182633
0.005 0 0.0376343 0.016968
-0.005 0 0.0376343 0.0172971
0.01125 -1.807e-20 0.036344 0.0167598
-0.01125 -1.807e-20 0.036344 0.0174995
0.035 0 0.0149988 0.0159179
-0.035 0 0.0149988 0.0182262
0.015 0 0.0350537 0.0166317
-0.015 0 0.0350537 0.0176185
0.0325 0 0.02 0.0160089
-0.0325 0 0.02 0.0181521
0.02 0 0.0325122 0.0164572
-0.02 0 0.0325122 0.0177743
0.0375 0 0.00736572 0.0158259
-0.0375 0 0.00736572 0.0183001
0.0075 0 0.0376343 0.0168852
-0.0075 0 0.0376343 0.0173787
-0.038381 -5.42101e-20 0 0.0183243
0.038381 -5.42101e-20 0 0.0157906
0.03375 -1.807e-20 0.01875 0.0159632
-0.03375 -1.807e-20 0.01875 0.0181889
0.01875 1.807e-20 0.0337829 0.0165012
-0.01875 1.807e-20 0.0337829 0.0177356
-0.03875 -9.03502e-21 0.00116943 0.018335
0.03875 -9.03502e-21 0.00116943 0.015777
0.03625 3.61401e-20 0.0137433 0.0158718
-0.03625 0 0.0137433 0.0182628
0.0375 0 0.00994629 0.0158259
-0.0375 0 0.00994629 0.0182998
0.01375 0 0.036344 0.0166746
-0.01375 0 0.036344 0.017579
0.0275 0 0.0275 0.0161897
-0.0275 0 0.0275 0.0180026
-0.03875 0 0.00356873 0.0183363
0.03875 9.03502e-21 0.00356873 0.0157789
0.02875 -1.807e-20 0.02625 0.0161447
-0.02875 0 0.02625 0.01804
0.02625 -1.807e-20 0.0287506 0.0162347
-0.02625 0 0.0287506 0.0179649
0.00125 0 0.0389178 0.0170915
-0.00125 -1.807e-20 0.0389179 0.0171738
0.01 0 0.0376343 0.0168017
-0.01 0 0.0376343 0.0174594
0.03 0 0.025 0.0160994
-0.03 0 0.025 0.0180774
0.025 0 0.0300012 0.0162795
-0.025 0 0.0300012 0.0179271
-0.00375 0 0.0389179 0.0172561
0.00375 0 0.0389179 0.0170091
-0.039119 0 0 0.0183454
0.039119 0 0 0.0157631
0.035 0 0.0175 0.0159173
-0.035 0 0.0175 0.0182257
0.0175 0 0.0350537 0.016545
-0.0175 0 0.0350537 0.0176967
-0.03875 0 0.00608215 0.0183361
0.03875 1.807e-20 0.00608215 0.015779
-0.03125 0 0.02375 0.0181146
0.03125 -1.807e-20 0.02375 0.0160539
0.02375 -1.807e-20 0.0312567 0.0163241
-0.02375 -1.807e-20 0.0312567 0.0178891
0.00625 0 0.0389179 0.0169266
-0.00625 1.807e-20 0.0389179 0.0173378
0.0375 0 0.0124878 0.0158254
-0.0375 0 0.0124878 0.0182992
0.0325 0 0.0225 0.0160084
-0.0325 0 0.0225 0.0181516
0.0225 0 0.0325122 0.0163686
-0.0225 0 0.0325122 0.017851
0.0125 0 0.0376343 0.0167173
-0.0125 0 0.0376343 0.0175394
0.03875 -1.807e-20 0.008656 0.0157793
-0.03875 -1.807e-20 0.008656 0.018336
0.03625 0 0.0162494 0.0158712
-0.03625 -3.61401e-20 0.0162494 0.0182622
-0.01625 -1.807e-20 0.036344 0.0176576
0.01625 -1.807e-20 0.036344 0.0165886
0.03375 -3.61401e-20 0.02125 0.0159626
-0.03375 -1.807e-20 0.02125 0.0181884
0.00875 0 0.0389179 0.0168434
-0.00875 1.807e-20 0.0389179 0.017419
0.02125 1.807e-20 0.0337829 0.016413
-0.02125 -3.61401e-20 0.0337829 0.0178126
-0.04 -1.0842e-19 0 0.0183707
0.04 -1.0842e-19 0 0.01573
-0.04 -1.0842e-19 0.00233887 0.0183715
0.04 -1.0842e-19 0.00233887 0.0157311
2.12989e-09 1.0842e-19 0.0402014 0.0171327
-0.0025 1.0842e-19 0.0402014 0.0172149
0.0025 1.0842e-19 0.0402014 0.0170503
0.04 -1.0842e-19 0.00479858 0.0157321
-0.04 -1.0842e-19 0.00479858 0.018372
0.035 0 0.02 0.0159167
-0.035 0 0.02 0.0182252
0.03875 1.807e-20 0.011217 0.0157789
-0.03875 -1.807e-20 0.011217 0.0183355
0.02 0 0.0350537 0.0164572
-0.02 0 0.0350537 0.0177742
0.0375 0 0.0149988 0.015825
-0.0375 0 0.0149988 0.0182987
-0.005 1.0842e-19 0.0402014 0.017297
0.005 1.0842e-19 0.0402014 0.0169679
0.01125 -1.807e-20 0.0389179 0.0167597
-0.01125 -1.807e-20 0.0389179 0.0174994
0.015 0 0.0376343 0.0166318
-0.015 0 0.0376343 0.0176184
-0.02875 -1.807e-20 0.0287506 0.0180397
0.02875 0 0.0287506 0.0161443
0.04 0 0.00736572 0.0157323
-0.04 0 0.00736572 0.0183718
0.03 0 0.0275 0.016099
-0.03 0 0.0275 0.0180771
0.0275 0 0.0300012 0.0161894
-0.0275 0 0.0300012 0.0180023
-0.03125 0 0.02625 0.0181142
-0.03625 -3.61401e-20 0.01875 0.0182618