# pMean  POINT_DATA 24316
# x  y  z  pMean
0 -0.000880994 1.49366e-08 0.016697
0 0.000368999 0.00116943 0.0167083
0 0.00161903 1.55962e-08 0.0167197
1.0842e-19 -0.00213101 0.00116943 0.0166858
0 -0.000881008 0.00233888 0.016698
0 0.00161899 0.00233888 0.0167207
2.1684e-19 0.002869 0.00116943 0.0167312
0 -0.00338099 1.48198e-08 0.0166748
-1.0842e-19 0.000368999 0.00356872 0.0167102
-8.27181e-25 -0.00338101 0.00233888 0.0166757
-3.30872e-24 0.00411903 1.63095e-08 0.0167428
-1.0842e-19 -0.002131 0.00356872 0.0166878
1.0842e-19 0.002869 0.00356872 0.0167331
0 0.00411899 0.00233888 0.0167437
0 -0.004631 0.00116943 0.0166637
0 -0.000881004 0.00479858 0.0166988
0 0.001619 0.00479858 0.0167215
1.0842e-19 0.005369 0.00116944 0.0167544
-1.0842e-19 -0.004631 0.00356872 0.0166656
-4.1359e-25 -0.003381 0.00479858 0.0166765
3.30872e-24 -0.00588099 1.48843e-08 0.0166528
0 0.000369 0.00608215 0.0167099
0 0.004119 0.00479858 0.0167445
-8.27181e-25 -0.00588101 0.00233888 0.0166537
1.0842e-19 -0.002131 0.00608215 0.0166874
-1.0842e-19 0.005369 0.00356873 0.0167564
3.30872e-24 0.00661901 1.59072e-08 0.0167662
0 0.002869 0.00608215 0.0167328
0 0.00661899 0.00233888 0.0167672
1.0842e-19 -0.007131 0.00116944 0.0166419
0 -0.000881001 0.00736572 0.0166987
0 0.001619 0.00736572 0.0167214
4.1359e-25 -0.005881 0.00479858 0.0166545
0 -0.004631 0.00608215 0.0166652
-1.0842e-19 0.00786899 0.00116944 0.016778
-1.0842e-19 -0.007131 0.00356872 0.0166438
-2.06795e-25 -0.003381 0.00736572 0.0166764
1.0842e-19 0.005369 0.00608215 0.016756
0 0.006619 0.00479858 0.016768
0 -0.00838099 1.15109e-09 0.0166312
-1.03398e-25 0.004119 0.00736572 0.0167444
1.0842e-19 0.007869 0.00356873 0.01678
0 0.000369 0.00865601 0.0167101
0 -0.008381 0.00233887 0.0166321
1.0842e-19 -0.002131 0.008656 0.0166876
0 0.009119 1.27743e-08 0.01679
0 0.002869 0.008656 0.016733
0 -0.007131 0.00608215 0.0166434
0 0.009119 0.00233887 0.016791
1.03398e-25 -0.005881 0.00736572 0.0166544
0 -0.008381 0.00479858 0.0166329
1.0842e-19 -0.009631 0.00116943 0.0166205
1.0842e-19 -0.004631 0.00865601 0.0166654
0 0.006619 0.00736572 0.0167679
0 0.007869 0.00608215 0.0167796
2.58494e-26 -0.000881 0.00994629 0.0166985
0 0.001619 0.00994629 0.0167212
0 0.005369 0.00865601 0.0167562
1.0842e-19 -0.009631 0.00356872 0.0166224
0 0.009119 0.00479858 0.0167918
0 0.010369 0.00116943 0.016802
5.16988e-26 -0.003381 0.00994629 0.0166761
0 0.004119 0.00994629 0.0167442
-1.65436e-24 -0.010881 1.38009e-08 0.0166099
0 0.010369 0.00356872 0.016804
0 -0.010881 0.00233886 0.0166109
0 -0.008381 0.00736572 0.0166328
2.1684e-19 -0.007131 0.00865601 0.0166436
0 0.000369 0.011217 0.0167094
1.0842e-19 -0.009631 0.00608215 0.016622
-1.0842e-19 -0.002131 0.011217 0.0166869
0 -0.005881 0.00994629 0.0166541
1.0842e-19 0.002869 0.011217 0.0167323
0 0.011619 7.04485e-09 0.0168142
2.1684e-19 0.007869 0.008656 0.0167799
0 0.009119 0.00736572 0.0167917
0 0.011619 0.00233887 0.0168152
0 -0.010881 0.00479858 0.0166117
-2.58494e-26 0.006619 0.00994629 0.0167676
0 0.010369 0.00608215 0.0168036
1.0842e-19 -0.004631 0.011217 0.0166647
-1.0842e-19 -0.012131 0.00116943 0.0165994
-1.03398e-25 0.0119734 0.00233887 0.0168187
1.0842e-19 0.005369 0.011217 0.0167554
-1.03398e-25 0.0115493 0.00479858 0.0168153
5.16988e-26 0.011619 0.00465936 0.016816
0 -0.000881 0.0124878 0.0166979
2.48154e-24 0.0125411 0 0.0168233
-2.8774e-21 0.011619 0.00479858 0.016816
-3.23117e-27 0.001619 0.0124878 0.0167206
0 -0.012131 0.00356872 0.0166013
1.0842e-19 0.012869 0.00116944 0.0168264
-6.46235e-27 -0.003381 0.0124878 0.0166756
-2.1684e-19 -0.009631 0.00865601 0.0166222
-2.58494e-26 -0.008381 0.00994629 0.0166326
0 -0.010881 0.00736572 0.0166115
-3.23117e-27 0.004119 0.0124878 0.0167436
0 -0.007131 0.011217 0.0166429
1.0842e-19 0.012869 0.00356873 0.0168284
-3.30872e-24 -0.013381 1.32649e-08 0.016589
0 0.0111883 0.00736572 0.0168118
0 0.009119 0.00994629 0.0167915
-1.0842e-19 0.010369 0.008656 0.0168039
1.0842e-19 -0.012131 0.00608215 0.016601
0 -0.013381 0.00233886 0.0165899
0 0.007869 0.011217 0.0167791
-1.0842e-19 0.000369 0.0137433 0.016709
-5.61059e-21 0.011619 0.00736572 0.016816
0 -0.005881 0.0124878 0.0166536
0 -0.002131 0.0137433 0.0166865
1.0842e-19 0.002869 0.0137433 0.0167319
0 0.014119 1.20546e-08 0.0168388
0 0.006619 0.0124878 0.016767
0 -0.013381 0.00479858 0.0165907
0 0.012869 0.00608215 0.0168281
3.82579e-20 0.014119 0.00233887 0.0168398
2.1684e-19 -0.004631 0.0137433 0.0166643
-2.1684e-19 -0.014631 0.00116943 0.0165786
0 -0.010881 0.00994629 0.0166113
-1.0842e-19 0.005369 0.0137433 0.0167551
-2.1684e-19 -0.009631 0.011217 0.0166216
-3.23117e-27 0.0109403 0.00994629 0.0168091
-1.0842e-19 -0.012131 0.008656 0.0166011
-6.61207e-20 0.014119 0.00479858 0.0168407
-4.03897e-28 -0.000881 0.0149988 0.0166974
0 -0.008381 0.0124878 0.016632
-1.0842e-19 -0.014631 0.00356872 0.0165805
0 0.001619 0.0149988 0.0167201
0 -0.013381 0.00736572 0.0165906
1.0842e-19 0.010369 0.011217 0.0168032
-9.48666e-21 0.011619 0.00994629 0.0168157
0 -0.003381 0.0149988 0.016675
-1.0842e-19 0.015369 0.00116944 0.0168512
0 0.009119 0.0124878 0.0167909
0 -0.007131 0.0137433 0.0166425
1.0842e-19 0.012869 0.008656 0.0168283
0 0.004119 0.0149988 0.0167431
1.0842e-19 0.015369 0.00356873 0.0168532
0 0.007869 0.0137433 0.0167786
-1.0842e-19 -0.014631 0.00608215 0.0165802
-1.65436e-24 -0.015881 1.31767e-08 0.0165684
-1.47912e-19 0.014119 0.00736572 0.0168406
8.27181e-25 -0.015881 0.00233887 0.0165693
0 -0.005881 0.0149988 0.0166531
1.0842e-19 0.000369 0.0162494 0.0167084
0 -0.002131 0.0162494 0.0166858
0 0.006619 0.0149988 0.0167665
-8.07794e-28 0.0107664 0.0124878 0.0168068
1.0842e-19 0.002869 0.0162494 0.0167312
0 -0.012131 0.011217 0.0166004
0 0.015369 0.00608215 0.0168529
3.23117e-27 -0.010881 0.0124878 0.0166108
-4.1359e-25 -0.015881 0.00479858 0.0165701
0 0.016619 1.58648e-08 0.0168639
-2.58494e-26 -0.013381 0.00994629 0.0165903
0 -0.009631 0.0137433 0.0166211
1.26893e-19 0.016619 0.00233888 0.0168649
0 -0.004631 0.0162494 0.0166637
1.0842e-19 -0.014631 0.008656 0.0165803
-7.31564e-20 0.011619 0.0124878 0.0168151
0 0.012869 0.011217 0.0168275
-1.0842e-19 0.005369 0.0162494 0.0167544
0 -0.017131 0.00116943 0.0165582
-4.03897e-28 -0.008381 0.0149988 0.0166315
0 0.010369 0.0137433 0.0168027
0 0.014119 0.00994629 0.0168403
-4.8371e-20 0.016619 0.00479858 0.0168657
1.0842e-19 -0.017131 0.00356872 0.01656
0 -0.015881 0.00736572 0.01657
-1.95638e-28 -0.000881 0.0174897 0.0166969
-1.91544e-20 -0.000881 0.0175 0.0166968
0 0.009119 0.0149988 0.0167903
0 0.001619 0.0174862 0.0167195
1.58401e-19 0.001619 0.0175 0.0167195
0 0.015369 0.008656 0.0168531
-1.0842e-19 -0.007131 0.0162494 0.0166419
1.57772e-30 -0.003381 0.0174919 0.0166745
-1.57772e-30 -0.003381 0.0175 0.0166745
0 0.017869 0.00116944 0.0168765
-7.88861e-29 0.004119 0.0174841 0.0167425
-1.91509e-20 0.004119 0.0175 0.0167425
1.0842e-19 0.007869 0.0162494 0.016778
0 0.016619 0.00736572 0.0168656
0 -0.017131 0.00608215 0.0165598
1.0842e-19 0.017869 0.00356873 0.0168785
0 -0.013381 0.0124878 0.0165898
1.0842e-19 -0.012131 0.0137433 0.0166
1.51461e-28 0.0106082 0.0149988 0.0168048
0 -0.018381 1.33764e-08 0.0165482
2.1684e-19 -0.014631 0.011217 0.0165797
1.02552e-28 -0.005881 0.0174922 0.0166525
0 -0.005881 0.0175 0.0166525
0 -0.018381 0.00233887 0.016549
0 -0.010881 0.0149988 0.0166103
2.52435e-29 0.006619 0.0174831 0.0167659
5.84013e-20 0.006619 0.0175 0.0167659
-2.58494e-26 -0.015881 0.00994629 0.0165698
1.0842e-19 0.000369 0.01875 0.0167079
0 0.012869 0.0137433 0.016827
1.55259e-19 0.014119 0.0124878 0.0168397
0 -0.002131 0.01875 0.0166853
-1.0842e-19 0.017869 0.00608215 0.0168781
0 -0.009631 0.0162494 0.0166205
0 0.002869 0.01875 0.0167307
-1.84089e-20 0.011619 0.0149988 0.0168145
4.1359e-25 -0.018381 0.00479858 0.0165498
1.0842e-19 0.015369 0.011217 0.0168523
0 0.019119 3.74342e-09 0.0168893
0 -0.017131 0.008656 0.01656
-4.20555e-20 0.019119 0.00233888 0.0168903
-1.0842e-19 0.010369 0.0162494 0.0168021
0 -0.004631 0.01875 0.0166631
-4.97158e-20 0.016619 0.00994629 0.0168654
-2.05104e-28 -0.008381 0.017491 0.0166309
-1.91544e-20 -0.008381 0.0175 0.0166309
0 0.005369 0.01875 0.0167538
0 -0.019631 0.00116943 0.0165381
-5.36425e-29 0.009119 0.0174725 0.0167898
-7.01648e-20 0.019119 0.00479858 0.0168912
0 0.009119 0.0175 0.0167897
-1.03398e-25 -0.018381 0.00736572 0.0165498
-1.0842e-19 0.017869 0.008656 0.0168783
-1.0842e-19 -0.019631 0.00356872 0.0165399
-9.67102e-20 -0.000881 0.02 0.0166963
0 -0.007131 0.01875 0.0166413
-1.91544e-20 0.001619 0.02 0.016719
0 -0.014631 0.0137433 0.0165793
0 -0.013381 0.0149988 0.0165894
0 -0.015881 0.0124878 0.0165693
0 -0.012131 0.0162494 0.0165995
8.08456e-20 -0.003381 0.02 0.0166739
0 0.007869 0.01875 0.0167774
1.0842e-19 0.020369 0.00116944 0.0169021
-1.91544e-20 0.004119 0.02 0.016742
-1.0842e-19 -0.017131 0.011217 0.0165594
9.56159e-21 0.019119 0.00736572 0.0168911
0 -0.019631 0.00608215 0.0165396
-8.04638e-29 -0.010881 0.0174886 0.0166097
9.1454e-21 0.014119 0.0149988 0.0168392
-1.57772e-30 -0.010881 0.0175 0.0166097
0 0.015369 0.0137433 0.0168519
2.1684e-19 0.020369 0.00356873 0.0169042
0 0.012869 0.0162494 0.0168264
-2.4999e-20 0.016619 0.0124878 0.0168648
-9.67102e-20 -0.005881 0.02 0.016652
0 -0.020881 1.38596e-08 0.0165283
0 -0.018381 0.00994629 0.0165496
5.84013e-20 0.011619 0.0175 0.016814
0 -0.020881 0.00233887 0.0165291
-1.91544e-20 0.006619 0.02 0.0167654
0 -0.009631 0.01875 0.01662
0 0.017869 0.011217 0.0168776
1.0842e-19 0.000369 0.02125 0.0167073
0 0.020369 0.00608215 0.0169038
1.0842e-19 -0.002131 0.02125 0.0166847
0 -0.020881 0.00479858 0.0165299
0 0.010369 0.01875 0.0168015
1.0842e-19 0.002869 0.02125 0.0167301
-1.0842e-19 -0.019631 0.00865601 0.0165399
9.52931e-20 0.019119 0.00994629 0.0168908
0 0.021619 1.55331e-08 0.0169151
-9.67102e-20 -0.008381 0.02 0.0166304
3.71297e-20 0.021619 0.00233888 0.0169162
0 -0.004631 0.02125 0.0166625
-4.03897e-28 -0.015881 0.0149988 0.0165688
2.1684e-19 -0.014631 0.0162494 0.0165788
-1.0842e-19 0.005369 0.02125 0.0167533
-1.0842e-19 -0.017131 0.0137433 0.016559
-1.91544e-20 0.009119 0.02 0.0167892
-9.30856e-29 -0.013381 0.0174867 0.0165888
8.08456e-20 -0.013381 0.0175 0.0165888
0 0.020369 0.008656 0.016904
-1.03398e-25 -0.020881 0.00736572 0.0165299
9.2789e-21 0.021619 0.00479858 0.016917
0 -0.022131 0.00116943 0.0165184
-3.23117e-27 -0.018381 0.0124878 0.0165491
0 -0.012131 0.01875 0.0165989
-2.1684e-19 0.015369 0.0162494 0.0168512
-3.59904e-20 0.016619 0.0149988 0.0168642
-1.0842e-19 -0.007131 0.02125 0.0166408
0 -0.022131 0.00356872 0.0165202
1.58394e-19 0.014119 0.0175 0.0168385
3.28979e-21 -0.000881 0.0225 0.0166958
0 0.017869 0.0137433 0.0168772
3.28979e-21 0.001619 0.0225 0.0167185
0 -0.019631 0.011217 0.0165393
0 0.007869 0.02125 0.0167769
0 0.012869 0.01875 0.0168259
-9.67102e-20 -0.003381 0.0225 0.0166734
-9.67102e-20 -0.010881 0.02 0.0166092
1.36284e-19 0.019119 0.0124878 0.0168902
1.87088e-20 0.021619 0.00736572 0.0169169
8.08456e-20 0.004119 0.0225 0.0167415
-1.0842e-19 0.022869 0.00116944 0.0169281
0 -0.022131 0.00608215 0.0165199
0 -0.020881 0.00994629 0.0165297
1.58401e-19 0.011619 0.02 0.0168134
1.0842e-19 0.022869 0.00356873 0.0169302
1.0842e-19 0.020369 0.011217 0.0169032
-3.54881e-20 -0.005881 0.0225 0.0166515
1.0842e-19 -0.009631 0.02125 0.0166195
0 -0.023381 1.46374e-08 0.0165087
-1.91544e-20 0.006619 0.0225 0.0167649
0 -0.023381 0.00233887 0.0165096
-1.0842e-19 -0.017131 0.0162494 0.0165584
-4.41762e-29 -0.015881 0.0174862 0.0165683
-1.57772e-30 -0.015881 0.0175 0.0165683
1.0842e-19 0.010369 0.02125 0.0168009
2.1684e-19 0.022869 0.00608215 0.0169298
1.27227e-19 -0.018381 0.0149988 0.0165486
-1.0842e-19 0.000369 0.02375 0.0167068
0 -0.022131 0.008656 0.0165202
0 -0.014631 0.01875 0.0165782
-9.43109e-20 0.021619 0.00994629 0.0169166
0 -0.002131 0.02375 0.0166842
0 -0.023381 0.00479858 0.0165103
-1.65436e-24 0.0239179 0 0.0169393
0 0.002869 0.02375 0.0167297
0 -0.019631 0.0137433 0.0165389
3.28979e-21 -0.008381 0.0225 0.0166299
3.28979e-21 -0.013381 0.02 0.0165883
0 0.024119 1.35896e-09 0.0169414
0 0.024119 0.000600548 0.0169416
-1.9162e-20 0.016619 0.0175 0.0168635
2.1684e-19 0.017869 0.0162494 0.0168765
0 -0.004631 0.02375 0.0166621
5.27096e-20 0.024119 0.00233887 0.0169424
-1.0842e-19 0.015369 0.01875 0.0168506
-1.91544e-20 0.009119 0.0225 0.0167886
-1.09662e-20 0.019119 0.0149988 0.0168896
-3.23117e-27 -0.020881 0.0124878 0.0165292
0 0.005369 0.02375 0.0167528
0 0.022869 0.00865601 0.01693
1.0842e-19 -0.012131 0.02125 0.0165984
5.84013e-20 0.014119 0.02 0.016838
-1.03398e-25 -0.023381 0.00736572 0.0165103
2.1684e-19 0.020369 0.0137433 0.0169028
-1.02533e-20 0.024119 0.00479858 0.0169432
1.0842e-19 -0.024631 0.00116943 0.016499
1.0842e-19 -0.007131 0.02375 0.0166404
0 -0.022131 0.011217 0.0165195
-1.0842e-19 0.012869 0.02125 0.0168253
0 -0.024631 0.00356872 0.0165008
-1.95256e-20 0.021619 0.0124878 0.016916
-9.67102e-20 -0.010881 0.0225 0.0166088
-3.54881e-20 -0.000881 0.025 0.0166953
0 0.007869 0.02375 0.0167764
6.45119e-20 0.001619 0.025 0.016718
5.89066e-21 0.024119 0.00736572 0.0169431
-3.54881e-20 -0.003381 0.025 0.016673
8.08456e-20 0.011619 0.0225 0.0168128
3.28979e-21 0.004119 0.025 0.016741
7.88861e-30 -0.018381 0.0174859 0.0165481
-1.0842e-19 -0.024631 0.00608215 0.0165005
-1.57772e-30 -0.018381 0.0175 0.016548
0 0.025369 0.00116944 0.0169546
1.0842e-19 -0.017131 0.01875 0.0165578
0 -0.023381 0.00994629 0.0165101
0 0.022869 0.011217 0.0169292
0 -0.019631 0.0162494 0.0165383
-3.54881e-20 -0.015881 0.02 0.0165677
1.0842e-19 0.025369 0.00356872 0.0169566
1.0842e-19 -0.009631 0.02375 0.016619
-9.67102e-20 -0.005881 0.025 0.016651
0 -0.020881 0.0149988 0.0165287
0 -0.014631 0.02125 0.0165776
8.08456e-20 0.006619 0.025 0.0167644
0 -0.025881 1.52949e-08 0.0164894
-1.0842e-19 0.017869 0.01875 0.0168758
-1.0842e-19 0.010369 0.02375 0.0168003
-1.91647e-20 0.019119 0.0175 0.016889
-8.27181e-25 -0.025881 0.00233887 0.0164903
-1.91544e-20 0.016619 0.02 0.016863
-1.0842e-19 -0.022131 0.0137433 0.0165192
-1.0842e-19 0.020369 0.0162494 0.0169021
0 0.025369 0.00608215 0.0169562
-8.6221e-20 0.024119 0.00994629 0.0169429
0 -0.024631 0.008656 0.0165008
6.45119e-20 -0.013381 0.0225 0.0165879
0 0.015369 0.02125 0.01685
0 0.000369 0.02625 0.0167064
-7.65609e-20 0.021619 0.0149988 0.0169154
-4.1359e-25 -0.025881 0.00479858 0.0164911
0 -0.002131 0.02625 0.0166838
-1.91544e-20 -0.008381 0.025 0.0166295
-1.0842e-19 0.002869 0.02625 0.0167292
3.23117e-27 -0.023381 0.0124878 0.0165096
5.84013e-20 0.014119 0.0225 0.0168374
8.08456e-20 0.009119 0.025 0.0167881
0 0.026619 5.14573e-09 0.0169681
1.0842e-19 -0.004631 0.02625 0.0166617
0 -0.012131 0.02375 0.016598
-2.1684e-19 0.022869 0.0137433 0.0169287
4.1359e-25 0.026619 0.00201023 0.0169689
-6.27304e-20 0.026619 0.00233887 0.0169691
-1.0842e-19 0.005369 0.02625 0.0167524
1.0842e-19 0.025369 0.008656 0.0169565
0 -0.025881 0.00736572 0.0164911
-1.0842e-19 0.012869 0.02375 0.0168247
2.58949e-20 0.026619 0.00479858 0.0169699
-1.0842e-19 -0.024631 0.011217 0.0165001
1.0842e-19 -0.019631 0.01875 0.0165378
-1.0842e-19 -0.027131 0.00116943 0.0164799
4.82422e-21 0.024119 0.0124878 0.0169422
3.28979e-21 -0.018381 0.02 0.0165476
0 -0.007131 0.02625 0.0166399
1.89327e-29 -0.020881 0.0174848 0.0165282
-1.57772e-30 -0.020881 0.0175 0.0165282
-1.91544e-20 -0.010881 0.025 0.0166083
-1.0842e-19 -0.017131 0.02125 0.0165573
0 -0.027131 0.00356872 0.0164817
-1.0842e-19 0.007869 0.02625 0.0167759
1.0842e-19 -0.022131 0.0162494 0.0165186
3.28979e-21 -0.000881 0.0275 0.0166949
9.78188e-29 -0.000881 0.0275113 0.0166949
-3.54881e-20 -0.015881 0.0225 0.0165673
-3.54838e-20 0.001619 0.0275 0.0167176
2.52435e-29 0.001619 0.0275132 0.0167175
-1.91544e-20 0.011619 0.025 0.0168123
3.84592e-20 0.026619 0.00736572 0.0169699
-1.91544e-20 0.019119 0.02 0.0168884
-1.0842e-19 0.020369 0.01875 0.0169014
-9.67102e-20 -0.003381 0.0275 0.0166726
-8.99301e-29 -0.003381 0.0275133 0.0166725
0 -0.025881 0.00994629 0.0164909
0 0.025369 0.011217 0.0169557
0 0.0276607 0.00233887 0.0169804
0 0.017869 0.02125 0.0168753
0 -0.023381 0.0149988 0.0165092
-2.1684e-19 -0.027131 0.00608215 0.0164814
3.28979e-21 0.004119 0.0275 0.0167406
8.08353e-20 0.021619 0.0175 0.0169148
-1.13596e-28 0.004119 0.0275183 0.0167406
1.0842e-19 0.027869 0.00116944 0.0169815
1.0842e-19 -0.014631 0.02375 0.0165773
0 -0.009631 0.02625 0.0166186
1.58401e-19 0.016619 0.0225 0.0168624
0 0.022869 0.0162494 0.016928
-1.0842e-19 0.027869 0.00356872 0.0169835
-1.91544e-20 -0.005881 0.0275 0.0166506
3.15544e-30 -0.005881 0.0275304 0.0166506
2.1684e-19 -0.024631 0.0137433 0.0164997
0 0.010369 0.02625 0.0167999
-1.91519e-20 0.006619 0.0275 0.0167639
-1.0842e-19 0.015369 0.02375 0.0168495
-8.36193e-29 0.006619 0.0275228 0.0167639
3.28979e-21 -0.013381 0.025 0.0165874
0 -0.028381 1.56584e-08 0.0164705
8.93301e-20 0.024119 0.0149988 0.0169416
1.20342e-20 0.026619 0.00994629 0.0169696
-8.27181e-25 -0.028381 0.00233888 0.0164714
0 -0.027131 0.008656 0.0164817
0 0.027869 0.00608215 0.0169832
-1.91544e-20 0.014119 0.025 0.0168368
0 -0.025881 0.0124878 0.0164903
5.84013e-20 -0.008381 0.0275 0.0166291
0 0.000369 0.0287506 0.0167059
2.06795e-25 -0.028381 0.00479858 0.0164721
1.0842e-19 -0.002131 0.0287506 0.0166834
-1.0842e-19 0.025369 0.0137433 0.0169552
-1.0842e-19 0.002869 0.0287506 0.0167287
-9.67102e-20 -0.020881 0.02 0.0165277
-1.0842e-19 -0.012131 0.02625 0.0165975
1.0842e-19 -0.019631 0.02125 0.0165373
5.84013e-20 0.009119 0.0275 0.0167877
1.02552e-28 0.009119 0.027519 0.0167877
1.0842e-19 -0.022131 0.01875 0.016518
3.28979e-21 -0.018381 0.0225 0.0165472
0 0.029119 8.18434e-09 0.0169952
1.0842e-19 -0.004631 0.0287506 0.0166613
1.0842e-19 0.027869 0.008656 0.0169834
7.88861e-30 -0.023381 0.017482 0.0165086
8.08456e-20 -0.023381 0.0175 0.0165086
0 0.029119 0.00233887 0.0169962
-1.0842e-19 0.012869 0.02625 0.0168242
-2.1684e-19 0.005369 0.0287506 0.0167519
0 -0.017131 0.02375 0.016557
0 -0.028381 0.00736572 0.0164721
-1.0842e-19 -0.027131 0.011217 0.0164811
-1.57842e-20 0.026619 0.0124878 0.016969
-1.0842e-19 0.020369 0.02125 0.0169009
-1.91544e-20 0.021619 0.02 0.0169142
0 0.0290936 0.00479858 0.0169968
2.1684e-19 -0.024631 0.0162494 0.0164992
-1.61559e-27 0.029119 0.00479858 0.016997
5.84013e-20 0.019119 0.0225 0.0168878
0 0.029119 0.00500016 0.016997
0 0.022869 0.01875 0.0169275
1.58401e-19 -0.010881 0.0275 0.0166079
3.28979e-21 -0.015881 0.025 0.0165669
1.0842e-19 -0.007131 0.0287506 0.0166396
0 -0.029631 0.00116943 0.0164611
1.0842e-19 0.017869 0.02375 0.0168746
4.20614e-20 0.024119 0.0175 0.016941
1.0842e-19 0.007869 0.0287506 0.0167755
-2.1684e-19 -0.029631 0.00356872 0.0164629
1.58405e-19 0.011619 0.0275 0.0168119
9.78188e-29 0.011619 0.0275129 0.0168119
0 -0.025881 0.0149988 0.0164899
0 -0.000881 0.0300012 0.0166945
-1.91544e-20 0.016619 0.025 0.0168618
0 0.029119 0.00736572 0.016997
-1.0842e-19 0.027869 0.011217 0.0169827
0 0.001619 0.0300012 0.0167172
1.0842e-19 -0.014631 0.02625 0.0165768
0 -0.028381 0.00994629 0.0164719
0 0.025369 0.0162494 0.0169545
0 -0.003381 0.0300012 0.0166722
1.0842e-19 -0.029631 0.00608215 0.0164626
0 0.004119 0.0300012 0.0167401
0 -0.009631 0.0287506 0.0166183
0 0.030369 0.00116944 0.0170089
1.0842e-19 -0.027131 0.0137433 0.0164806
-2.1684e-19 0.015369 0.02625 0.016849
-1.39188e-19 0.026619 0.0149988 0.0169684
-1.0842e-19 0.010369 0.0287506 0.0167995
-1.00974e-28 -0.005881 0.0300012 0.0166503
0 0.030369 0.00356872 0.017011
8.08369e-20 -0.013381 0.0275 0.016587
0 -0.022131 0.02125 0.0165175
-3.54881e-20 -0.020881 0.0225 0.0165273
0 0.006619 0.0300012 0.0167635
-9.67102e-20 -0.023381 0.02 0.0165081
0 0.029119 0.00994629 0.0169967
1.0842e-19 -0.019631 0.02375 0.016537
-5.04871e-29 -0.00714811 0.0300012 0.0166394
-1.0842e-19 -0.029631 0.008656 0.0164629
0 -0.030881 1.59506e-08 0.0164519
-1.91544e-20 0.014119 0.0275 0.0168364
-9.46633e-30 0.014119 0.0275094 0.0168364
1.0842e-19 -0.024631 0.01875 0.0164986
-8.27181e-25 -0.030881 0.00233888 0.0164527
0 0.030369 0.00608215 0.0170105
1.61559e-27 -0.028381 0.0124878 0.0164714
8.08456e-20 -0.018381 0.025 0.0165468
-1.0842e-19 0.027869 0.0137433 0.0169822
-6.0863e-20 -0.008381 0.0300012 0.0166288
-4.15987e-20 0.021619 0.0225 0.0169136
2.1684e-19 -0.012131 0.0287506 0.0165972
-1.0842e-19 0.022869 0.02125 0.0169268
-1.13596e-28 -0.025881 0.0174762 0.0164894
0 -0.025881 0.0175 0.0164894
0 -0.030881 0.00479858 0.0164535
2.1684e-19 0.000369 0.0312567 0.0167056
0 0.020369 0.02375 0.0169003
1.0842e-19 -0.002131 0.0312567 0.0166831
-1.91544e-20 0.024119 0.02 0.0169404
-1.29247e-26 0.0304635 0.00736572 0.0170118
1.0842e-19 -0.017131 0.02625 0.0165565
2.01948e-28 0.009119 0.0300012 0.0167873
1.0842e-19 0.002869 0.0312567 0.0167285
-1.91544e-20 0.019119 0.025 0.0168873
-1.0842e-19 0.012869 0.0287506 0.0168239
0 0.025369 0.01875 0.0169539
-1.0842e-19 0.030369 0.008656 0.0170107
0 -0.004631 0.0312567 0.016661
0 0.031619 9.52459e-09 0.0170228
1.0842e-19 -0.027131 0.0162494 0.0164801
-1.0842e-19 -0.029631 0.011217 0.0164623
6.30968e-20 0.029119 0.0124878 0.0169961
-3.0262e-20 0.031619 0.00233887 0.0170238
1.0842e-19 0.005369 0.0312567 0.0167515
0 -0.030881 0.00736572 0.0164535
1.0842e-19 0.017869 0.02625 0.0168742
8.08456e-20 -0.015881 0.0275 0.0165665
1.42061e-19 0.026619 0.0175 0.0169677
5.93746e-20 -0.010881 0.0300012 0.0166076
1.15346e-19 0.031619 0.00479858 0.0170246
0 -0.007131 0.0312567 0.0166393
0 -0.028381 0.0149988 0.0164709
8.08517e-20 0.016619 0.0275 0.0168614
-1.87749e-28 0.016619 0.0275078 0.0168614
1.0842e-19 -0.032131 0.00116943 0.0164426
4.03897e-28 0.011619 0.0300012 0.0168115
-2.1684e-19 0.007869 0.0312567 0.0167751
-1.0842e-19 -0.014631 0.0287506 0.0165765
0 0.027869 0.0162494 0.0169814
-2.1684e-19 -0.032131 0.00356873 0.0164444
-1.0842e-19 0.030369 0.011217 0.0170099
0 -0.030881 0.00994629 0.0164533
3.28979e-21 -0.023381 0.0225 0.0165077
0 -0.022131 0.02375 0.0165172
1.29247e-26 0.031619 0.00736572 0.0170245
0 -0.000881 0.0325122 0.0166942
0 -0.024631 0.02125 0.0164981
0 0.001619 0.0325122 0.0167169
-9.67102e-20 -0.020881 0.025 0.0165269
1.0842e-19 0.015369 0.0287506 0.0168486
1.0842e-19 -0.029631 0.0137433 0.0164619
-3.23117e-27 -0.003381 0.0325122 0.016672
1.61559e-27 0.0311463 0.00994629 0.017019
2.1684e-19 -0.032131 0.00608215 0.0164442
0 -0.009631 0.0312567 0.016618
8.08456e-20 -0.025881 0.02 0.0164889
-1.01806e-19 0.029119 0.0149988 0.0169955
9.60722e-20 0.004119 0.0325122 0.0167399
0 -0.019631 0.02625 0.0165365
6.34921e-20 -0.013381 0.0300012 0.0165867
1.0842e-19 0.032869 0.00116944 0.0170367
1.0842e-19 0.010369 0.0312567 0.0167992
0 0.022869 0.02375 0.0169263
0 -0.027131 0.01875 0.0164796
5.84013e-20 0.024119 0.0225 0.0169398
0 -0.005881 0.0325122 0.0166501
5.84013e-20 0.021619 0.025 0.0169131
1.0842e-19 0.032869 0.00356872 0.0170388
-1.91544e-20 -0.018381 0.0275 0.0165463
0 0.025369 0.02125 0.0169533
-1.61559e-27 0.031619 0.00994629 0.0170242
0 0.014119 0.0300012 0.016836
-3.23117e-27 0.006619 0.0325122 0.0167632
0 0.020369 0.02625 0.0168999
0 -0.032131 0.008656 0.0164444
-1.91544e-20 0.026619 0.02 0.0169671
8.07794e-28 -0.00720349 0.0325122 0.0166387
0 -0.030881 0.0124878 0.0164528
8.99301e-29 -0.028381 0.0174649 0.0164705
-1.0842e-19 0.030369 0.0137433 0.0170095
5.84013e-20 -0.028381 0.0175 0.0164704
0 -0.033381 1.52622e-08 0.0164335
-1.0842e-19 0.032869 0.00608215 0.0170383
0 -0.033381 0.00233888 0.0164344
-1.0842e-19 -0.017131 0.0287506 0.0165561
8.08456e-20 0.019119 0.0275 0.0168868
-2.12992e-28 0.019119 0.0275072 0.0168868
-2.1684e-19 -0.012131 0.0312567 0.0165969
4.93633e-20 -0.008381 0.0325122 0.0166286
-1.0842e-19 0.027869 0.01875 0.0169809
0 -0.033381 0.00479858 0.0164352
0 0.009119 0.0325122 0.016787
0 0.000369 0.0337829 0.0167054
-1.0842e-19 -0.029631 0.0162494 0.0164613
1.0842e-19 0.012869 0.0312567 0.0168235
0 -0.002131 0.033783 0.0166829
1.0842e-19 0.017869 0.0287506 0.0168738
0 0.002869 0.033783 0.0167282
0 0.0315579 0.0124878 0.0170229
1.94366e-20 -0.015881 0.0300012 0.0165662
-1.91558e-20 0.029119 0.0175 0.0169948
-2.1684e-19 0.032869 0.008656 0.0170386
0 0.031619 0.0124878 0.0170236
0 -0.032131 0.011217 0.0164438
0 -0.004631 0.0337829 0.0166609
0 0.034119 8.73562e-09 0.0170508
9.41463e-20 -0.033381 0.00736572 0.0164351
2.06795e-25 0.034119 0.00233887 0.0170518
0 0.005369 0.033783 0.0167514
1.0842e-19 -0.024631 0.02375 0.0164978
-9.67102e-20 -0.023381 0.025 0.0165073
7.66421e-20 -0.010881 0.0325122 0.0166074
3.28979e-21 -0.025881 0.0225 0.0164885
0 0.016619 0.0300012 0.016861
0 -0.030881 0.0149988 0.0164523
0 -0.022131 0.02625 0.0165168
1.0842e-19 0.030369 0.0162494 0.0170087
-1.03398e-25 0.034119 0.00479858 0.0170527
1.0842e-19 -0.027131 0.02125 0.0164791
1.0842e-19 -0.014631 0.0312567 0.0165762
3.23117e-27 0.011619 0.0325122 0.0168112
-1.0842e-19 -0.007131 0.0337829 0.0166391
-1.91544e-20 -0.020881 0.0275 0.0165265
0 -0.034631 0.00116944 0.0164245
-2.1684e-19 0.007869 0.0337829 0.0167749
2.52435e-29 0.031619 0.014295 0.0170232
1.58401e-19 -0.028381 0.02 0.01647
-1.0842e-19 0.032869 0.011217 0.0170378
5.84013e-20 0.024119 0.025 0.0169393
0 0.025369 0.02375 0.0169527
-1.0842e-19 -0.019631 0.0287506 0.0165361
-2.1684e-19 -0.034631 0.00356872 0.0164262
0 0.022869 0.02625 0.0169258
1.0842e-19 0.015369 0.0312567 0.0168481
6.46235e-27 -0.033381 0.00994629 0.0164349
-1.91544e-20 0.026619 0.0225 0.0169664
2.58494e-26 0.034119 0.00736572 0.0170525
1.0842e-19 -0.032131 0.0137433 0.0164434
5.84013e-20 0.021619 0.0275 0.0169126
-1.37262e-28 0.021619 0.0275071 0.0169126
0 0.031619 0.0149988 0.017023
0 0.027869 0.02125 0.0169801
-2.58494e-26 -0.000881 0.0350537 0.016694
0 -0.029631 0.01875 0.0164608
2.58494e-26 0.001619 0.0350537 0.0167167
1.0842e-19 -0.009631 0.0337829 0.0166178
2.36524e-20 -0.013381 0.0325122 0.0165865
-1.0842e-19 -0.034631 0.00608215 0.0164259
2.52435e-29 -0.0318113 0.0149988 0.0164455
1.39746e-19 -0.018381 0.0300012 0.016546
0 -0.003381 0.0350537 0.0166718
-1.0842e-19 0.020369 0.0287506 0.0168994
0 0.004119 0.0350537 0.0167397
3.28979e-21 0.029119 0.02 0.0169942
2.1684e-19 0.010369 0.0337829 0.0167989
-1.26218e-29 0.0320435 0.0149988 0.0170278
-2.1684e-19 0.035369 0.00116944 0.0170649
0 0.014119 0.0325122 0.0168357
-1.57772e-30 -0.030881 0.0174151 0.0164519
0 -0.030881 0.0175 0.0164518
0 0.034119 0.00994629 0.0170523
0 -0.005881 0.0350537 0.0166499
0 0.035369 0.00356872 0.017067
8.27181e-25 0.0355721 0 0.0170673
0 0.019119 0.0300012 0.0168864
0 0.032869 0.0137433 0.0170373
0 -0.033381 0.0124878 0.0164344
0 -0.017131 0.0312567 0.0165559
0 0.006619 0.0350537 0.0167631
0 0.030369 0.01875 0.0170082
-1.0842e-19 -0.034631 0.008656 0.0164261
-6.46235e-27 -0.00724127 0.0350537 0.0166382
-1.65436e-24 -0.035881 1.26949e-08 0.0164155
0 0.035369 0.00608215 0.0170666
2.01948e-28 -0.0336477 0.0124878 0.0164325
1.0842e-19 -0.012131 0.0337829 0.0165967
0 -0.035881 0.00233887 0.0164164
3.28979e-21 -0.025881 0.025 0.0164881
-1.0842e-19 -0.024631 0.02625 0.0164974
2.1684e-19 0.017869 0.0312567 0.0168734
0 -0.032131 0.0162494 0.0164428
-5.60719e-20 -0.008381 0.0350537 0.0166284
0 -0.027131 0.02375 0.0164788
-1.91544e-20 -0.023381 0.0275 0.016507
-1.91558e-20 0.031619 0.0175 0.0170223
1.0842e-19 0.012869 0.033783 0.0168233
1.71129e-20 -0.015881 0.0325122 0.016566
2.06795e-25 -0.035881 0.00479858 0.0164171
3.28979e-21 -0.028381 0.0225 0.0164696
0 0.009119 0.0350537 0.0167868
1.0842e-19 -0.022131 0.0287506 0.0165165
5.04871e-29 -0.033381 0.0142204 0.0164342
8.07794e-28 0.034119 0.0124878 0.0170516
0 0.000369 0.036344 0.0167052
2.1684e-19 -0.034631 0.011217 0.0164255
2.1684e-19 -0.002131 0.036344 0.0166827
-1.0842e-19 0.035369 0.00865601 0.0170668
-1.0842e-19 0.002869 0.036344 0.0167281
0 -0.029631 0.02125 0.0164603
0 0.025369 0.02625 0.0169522
0 0.016619 0.0325122 0.0168606
0 0.026619 0.025 0.0169659
1.29247e-26 0.0364712 0.00233887 0.0170786
-1.46111e-19 -0.020881 0.0300012 0.0165262
-1.91544e-20 0.024119 0.0275 0.0169388
-1.54617e-28 0.024119 0.0275076 0.0169388
0 -0.033381 0.0149988 0.016434
0 0.027869 0.02375 0.0169795
-8.27181e-25 0.036619 6.2941e-09 0.0170792
-3.13663e-20 -0.035881 0.00736572 0.0164171
0 -0.004631 0.036344 0.0166608
-1.0842e-19 0.032869 0.0162494 0.0170365
1.04722e-19 0.036619 0.00233887 0.0170803
-1.24232e-20 -0.010881 0.0350537 0.0166072
0 0.022869 0.0287506 0.0169253
0 0.005369 0.036344 0.0167513
1.29247e-26 0.036619 0.00320007 0.0170806
-9.67102e-20 -0.030881 0.02 0.0164514
8.08456e-20 0.029119 0.0225 0.0169935
1.0842e-19 -0.014631 0.0337829 0.016576
-1.0842e-19 -0.019631 0.0312567 0.0165359
2.58494e-26 0.011619 0.0350537 0.016811
0 0.036619 0.00479858 0.0170811
0 0.021619 0.0300012 0.0169121
1.0842e-19 -0.007131 0.036344 0.0166391
0 0.030369 0.02125 0.0170075
1.0842e-19 0.035369 0.011217 0.0170661
0 0.015369 0.033783 0.016848
1.0842e-19 -0.037131 0.00116943 0.0164066
-2.1684e-19 0.007869 0.036344 0.0167748
1.0842e-19 -0.032131 0.01875 0.0164424
0 -0.035881 0.00994629 0.0164169
0 -0.034631 0.0137433 0.0164252
0 0.034119 0.0149988 0.017051
1.0842e-19 -0.037131 0.00356872 0.0164083
0 0.020369 0.0312567 0.016899
1.09443e-20 -0.018381 0.0325122 0.0165459
0 0.036619 0.00736572 0.017081
-9.67102e-20 0.031619 0.02 0.0170217
8.07794e-28 -0.035881 0.0106692 0.0164168
8.77237e-20 -0.013381 0.0350537 0.0165864
-1.0842e-19 -0.009631 0.036344 0.0166177
0 -0.037131 0.00608215 0.0164081
1.03398e-25 -0.000881 0.0376343 0.0166939
-4.03897e-28 -0.0363271 0.00994629 0.0164137
0 0.001619 0.0376343 0.0167165
-3.54883e-20 -0.033381 0.0175 0.0164335
6.46235e-27 0.019119 0.0325122 0.016886
-1.0842e-19 -0.027131 0.02625 0.0164784
8.08456e-20 -0.025881 0.0275 0.0164877
0 -0.003381 0.0376343 0.0166717
0 0.014119 0.0350537 0.0168356
-2.1684e-19 0.010369 0.036344 0.0167987
0 -0.0378049 0 0.0164019
-1.13044e-19 -0.028381 0.025 0.0164692
1.0842e-19 0.032869 0.01875 0.0170359
0 -0.024631 0.0287506 0.0164971
0 0.004119 0.0376343 0.0167396
-1.0842e-19 -0.017131 0.0337829 0.0165558
-1.0842e-19 0.037869 0.00116944 0.0170935
1.0842e-19 0.035369 0.0137433 0.0170655
6.46235e-27 0.036619 0.00994629 0.0170808
0 -0.029631 0.02375 0.01646
0 -0.035881 0.0124878 0.0164164
-1.47147e-19 -0.023381 0.0300012 0.0165067