# U  POINT_DATA 26303
# x  y  z  U_x  U_y  U_z
1.62142e-08 -1.0842e-19 0 0 0 0
-0.000880991 -5.42101e-20 0 0 0 0
0.000881021 1.0842e-19 0 0 0 0
-0.00161899 1.0842e-19 0 0 0 0
0.00161902 0 0 0 0 0
-0.00124999 -1.807e-20 0.00116943 0.0791982 -0.0272482 6.98639e-05
0.00125001 -9.03502e-21 0.00116943 0.0793593 -0.0272725 6.90932e-05
6.61554e-09 0 0.00233887 0.109441 -0.0368796 0.00011439
-0.0025 -1.0842e-19 0 0 0 0
0.00250002 -1.0842e-19 0 0 0 0
-0.003381 0 0 0 0 0
0.00338102 0 0 0 0 0
-0.0025 -1.0842e-19 0.00233887 0.1092 -0.0368073 0.000114864
0.00250001 1.0842e-19 0.00233887 0.109679 -0.0369493 0.000113768
-0.00125 1.807e-20 0.00356872 0.129616 -0.0428607 0.000156563
0.00125 3.61401e-20 0.00356872 0.129916 -0.04298 0.000156433
-0.00375 0 0.00116943 0.0790337 -0.0272216 7.0312e-05
0.00375001 0 0.00116944 0.0795167 -0.0272947 6.82182e-05
-0.004119 -5.42101e-20 0 0 0 0
0.00411901 0 0 0 0 0
2.5969e-09 -1.0842e-19 0.00479858 0.140744 -0.0453543 0.000202718
0.00500001 -1.0842e-19 0 0 0 0
-0.00500001 1.0842e-19 0 0 0 0
-0.00375 9.03502e-21 0.00356873 0.129316 -0.0427389 0.000156678
0.00375 3.61401e-20 0.00356873 0.130214 -0.0430966 0.000156293
0.0025 -1.0842e-19 0.00479858 0.141073 -0.0455018 0.000203373
-0.0025 0 0.00479858 0.140414 -0.0452044 0.000202213
-0.005 0 0.00233887 0.108957 -0.0367324 0.000115007
0.00500001 1.0842e-19 0.00233887 0.109915 -0.0370166 0.000113658
-0.00588101 5.42101e-20 0 0 0 0
0.00588101 -1.0842e-19 0 0 0 0
-0.00125 -1.807e-20 0.00608215 0.149553 -0.0469115 0.000246327
0.00125 0 0.00608215 0.149906 -0.0470849 0.000247537
-0.00625 0 0.00116944 0.0788685 -0.0271929 7.0352e-05
0.00625 0 0.00116943 0.0796734 -0.0273146 6.80535e-05
-0.006619 -5.42101e-20 0 0 0 0
0.006619 -5.42101e-20 0 0 0 0
0.005 -1.0842e-19 0.00479858 0.141402 -0.0456472 0.000204434
-0.005 0 0.00479858 0.140084 -0.0450523 0.000201599
-0.00375 -1.807e-20 0.00608215 0.1492 -0.0467363 0.000245312
0.00375 -1.807e-20 0.00608215 0.150258 -0.0472563 0.000249178
-0.00625 9.03502e-21 0.00356873 0.129014 -0.0426145 0.000156526
0.00625 9.03502e-21 0.00356873 0.130512 -0.0432107 0.000157002
8.48585e-10 0 0.00736572 0.155845 -0.0475483 0.000272009
-0.0075 1.0842e-19 0 0 0 0
0.0075 -1.0842e-19 0 0 0 0
0.0025 0 0.00736572 0.156209 -0.0477347 0.000273866
-0.0025 0 0.00736572 0.155481 -0.0473603 0.00027049
-0.0075 -1.0842e-19 0.00233887 0.108715 -0.036655 0.000114864
0.0075 0 0.00233887 0.110153 -0.0370813 0.000113498
-0.008381 5.42101e-20 0 0 0 0
0.008381 5.42101e-20 0 0 0 0
-0.00625 -1.807e-20 0.00608215 0.148848 -0.0465586 0.000243925
0.00625 4.51751e-20 0.00608215 0.150611 -0.0474262 0.000250996
-0.00125 0 0.008656 0.161065 -0.0477378 0.000292153
0.00125 0 0.00865601 0.161438 -0.0479357 0.0002941
-0.00874999 -1.807e-20 0.00116944 0.0787042 -0.0271619 7.05093e-05
0.00875 -9.03502e-21 0.00116944 0.0798326 -0.0273325 6.69566e-05
0.005 0 0.00736572 0.156573 -0.0479194 0.000276002
-0.005 0 0.00736572 0.155118 -0.0471704 0.000268979
0.0075 0 0.00479858 0.141731 -0.0457902 0.000205346
-0.0075 0 0.00479858 0.139755 -0.0448977 0.000200745
-0.00911899 -5.42101e-20 0 0 0 0
0.00911899 0 0 0 0 0
-0.00375 -1.807e-20 0.008656 0.160693 -0.0475382 0.000290279
0.00375 0 0.008656 0.16181 -0.0481324 0.000296464
-0.00875 9.03502e-21 0.00356873 0.128715 -0.0424876 0.000156038
0.00875 0 0.00356873 0.130812 -0.0433222 0.00015688
2.04885e-10 0 0.00994629 0.16539 -0.0477138 0.000309771
-0.00999999 0 0 0 0 0
0.00999999 -1.0842e-19 0 0 0 0
0.0025 0 0.00994629 0.165766 -0.0479166 0.000312331
-0.0025 0 0.00994629 0.165015 -0.0475099 0.000307469
-0.00999999 0 0.00233887 0.108475 -0.0365749 0.000114944
0.01 0 0.00233887 0.110392 -0.0371435 0.000112804
0.0075 0 0.00736572 0.156938 -0.0481023 0.000277956
-0.0075 0 0.00736572 0.154756 -0.0469785 0.00026741
0.00875 1.807e-20 0.00608215 0.150966 -0.0475929 0.000252185
-0.00875 -3.61401e-20 0.00608215 0.148498 -0.0463787 0.00024262
-0.00625 -1.807e-20 0.008656 0.160322 -0.0473368 0.000288337
0.00625 0 0.008656 0.162183 -0.0483276 0.000299015
0.010881 -5.42101e-20 0 0 0 0
-0.010881 -5.42101e-20 0 0 0 0
0.01 0 0.00479858 0.142064 -0.0459307 0.000205699
-0.01 0 0.00479858 0.139428 -0.0447408 0.000200122
0.005 0 0.00994629 0.166141 -0.0481182 0.000315207
-0.005 0 0.00994629 0.164641 -0.0473042 0.000305276
-0.00125 -3.61401e-20 0.011217 0.168986 -0.0473879 0.000323181
0.00125 -3.61401e-20 0.011217 0.169363 -0.0475952 0.00032591
-0.01125 2.71051e-20 0.00116944 0.0785405 -0.0271288 7.07161e-05
0.01125 1.807e-20 0.00116943 0.0799935 -0.0273483 6.611e-05
-0.011619 5.42101e-20 0 0 0 0
0.011619 1.0842e-19 0 0 0 0
-0.01125 -1.807e-20 0.00356872 0.128418 -0.0423583 0.000156182
0.01125 0 0.00356873 0.131115 -0.0434314 0.000156699
0.00375 1.807e-20 0.011217 0.169741 -0.0478011 0.000328872
-0.00375 1.807e-20 0.011217 0.16861 -0.0471796 0.000320509
-0.00875 -1.807e-20 0.008656 0.159954 -0.0471338 0.000286573
0.00875 1.807e-20 0.00865601 0.162558 -0.0485212 0.000301207
0.01 0 0.00736572 0.157307 -0.0482832 0.00027946
-0.01 0 0.00736572 0.154396 -0.0467848 0.000265859
0.0075 0 0.00994629 0.166519 -0.0483184 0.000318031
-0.0075 0 0.00994629 0.164268 -0.0470967 0.000303085
3.14938e-11 0 0.0124878 0.172303 -0.0471087 0.000332094
0.0125 -1.0842e-19 0 0 0 0
-0.0125 1.0842e-19 0 0 0 0
0.0125 1.0842e-19 0.00233887 0.110635 -0.0372032 0.000112137
-0.0125 1.0842e-19 0.00233887 0.108236 -0.0364924 0.000114925
0.0025 0 0.0124878 0.172679 -0.0473166 0.000335288
-0.0025 0 0.0124878 0.171927 -0.0468998 0.000329018
-0.01125 -2.71051e-20 0.00608215 0.14815 -0.0461973 0.000241765
0.01125 -9.03502e-21 0.00608215 0.151324 -0.0477582 0.000252843
-0.00625 -3.61401e-20 0.011217 0.168235 -0.0469691 0.000318088
0.00625 -3.61401e-20 0.011217 0.170118 -0.0480066 0.000332087
0.013381 0 0 0 0 0
-0.013381 0 0 0 0 0
0.0125 -1.0842e-19 0.00479858 0.1424 -0.0460689 0.000205803
-0.0125 -1.0842e-19 0.00479858 0.139103 -0.0445816 0.000199422
0.005 0 0.0124878 0.173056 -0.0475238 0.000338707
-0.005 0 0.0124878 0.171553 -0.0466892 0.000326019
0.01375 0 0.00116943 0.0801574 -0.0273618 6.54893e-05
-0.01375 2.71051e-20 0.00116944 0.0783793 -0.0270934 7.05745e-05
-0.00125 -3.61401e-20 0.0137433 0.175054 -0.0465832 0.000336319
0.00125 -3.61401e-20 0.0137433 0.175428 -0.0467919 0.000339778
0.01 0 0.00994629 0.166899 -0.0485171 0.000320516
-0.01 0 0.00994629 0.163899 -0.0468877 0.000300669
-0.014119 -1.0842e-19 0 0 0 0
0.014119 -5.42101e-20 0 0 0 0
0.01125 -1.807e-20 0.008656 0.162937 -0.0487131 0.000303006
-0.01125 -1.807e-20 0.008656 0.159588 -0.0469287 0.000284343
-0.01375 1.807e-20 0.00356873 0.128124 -0.0422261 0.000155621
0.01375 9.03502e-21 0.00356872 0.131421 -0.0435375 0.000156261
0.00875 -1.807e-20 0.011217 0.170499 -0.0482101 0.000335184
-0.00875 -1.807e-20 0.011217 0.167863 -0.0467571 0.000315286
0.00375 3.61401e-20 0.0137433 0.175803 -0.0470001 0.000343402
-0.00375 0 0.0137433 0.17468 -0.0463731 0.000332885
0.0125 0 0.00736572 0.157679 -0.0484621 0.000280661
-0.0125 0 0.00736572 0.15404 -0.0465892 0.000264029
0.0075 0 0.0124878 0.173434 -0.0477298 0.000342056
-0.0075 0 0.0124878 0.171181 -0.0464769 0.000323107
2.25352e-12 0 0.0149988 0.177808 -0.0462032 0.00034159
-0.015 0 0 0 0 0
0.015 -1.0842e-19 0 0 0 0
0.01375 -1.807e-20 0.00608215 0.151686 -0.047921 0.000253358
-0.01375 1.807e-20 0.00608215 0.147806 -0.0460134 0.000240084
0.00625 -1.807e-20 0.0137433 0.176179 -0.0472077 0.000346879
-0.00625 -1.807e-20 0.0137433 0.174309 -0.0461614 0.000329635
0.015 -1.0842e-19 0.00233887 0.110882 -0.0372601 0.000111543
-0.015 1.0842e-19 0.00233887 0.108 -0.0364074 0.000114722
0.0025 0 0.0149988 0.17818 -0.0464111 0.000345257
-0.0025 0 0.0149988 0.177437 -0.0459945 0.00033792
0.015 -1.0842e-19 0.00479858 0.142739 -0.0462043 0.000205825
-0.015 -1.0842e-19 0.00479858 0.138782 -0.0444203 0.000198532
0.005 0 0.0149988 0.178553 -0.0466184 0.000348917
-0.005 0 0.0149988 0.177067 -0.0457843 0.000334273
-0.015881 1.0842e-19 0 0 0 0
0.015881 -5.42101e-20 0 0 0 0
0.01125 0 0.011217 0.170883 -0.0484123 0.000338042
-0.01125 -3.61401e-20 0.011217 0.167494 -0.0465438 0.000312361
0.0125 0 0.00994629 0.167283 -0.048714 0.000322744
-0.0125 0 0.00994629 0.163533 -0.0466772 0.000298072
0.01 0 0.0124878 0.173816 -0.0479344 0.000345145
-0.01 0 0.0124878 0.170811 -0.0462633 0.000320117
0.01375 -1.807e-20 0.008656 0.16332 -0.048903 0.000304637
-0.01375 -1.807e-20 0.008656 0.159227 -0.0467222 0.000282032
0.01625 1.807e-20 0.00116943 0.0803254 -0.0273732 6.48718e-05
-0.01625 9.03502e-21 0.00116943 0.0782205 -0.0270561 7.0559e-05
-0.00875 -1.807e-20 0.0137433 0.17394 -0.0459479 0.000326409
0.00875 -1.807e-20 0.0137433 0.176557 -0.0474138 0.000350244
-0.00125 0 0.0162494 0.180083 -0.0456002 0.000342386
0.00125 0 0.0162494 0.180452 -0.0458073 0.000346209
0.016619 -1.0842e-19 0 0 0 0
-0.016619 0 0 0 0 0
0.01625 0 0.00356872 0.131731 -0.043641 0.000155959
-0.01625 1.807e-20 0.00356873 0.127832 -0.0420921 0.000155376
-0.00375 -3.61401e-20 0.0162494 0.179715 -0.0453921 0.00033835
0.00375 0 0.0162494 0.180822 -0.0460137 0.000349931
0.015 0 0.00736572 0.158055 -0.0486388 0.000281699
-0.015 0 0.00736572 0.153687 -0.046392 0.000262102
0.0075 0 0.0149988 0.178927 -0.0468247 0.000352484
-0.0075 0 0.0149988 0.1767 -0.0455724 0.00033091
0.01625 -1.807e-20 0.00608215 0.152051 -0.0480816 0.000253835
-0.01625 9.03502e-21 0.00608215 0.147465 -0.0458281 0.000238879
-0.00625 0 0.0162494 0.17935 -0.0451821 0.000334691
0.00625 -1.807e-20 0.0162494 0.181192 -0.04622 0.000353595
-0.0175 -1.0842e-19 0 0 0 0
0.0175 0 0 0 0 0
-1.02403e-14 0 0.0175 0.182493 -0.0451821 0.000344211
-0.0175 0 0.00233887 0.107767 -0.0363203 0.000114452
0.0175 -1.0842e-19 0.00233887 0.111132 -0.0373143 0.00011104
0.0125 0 0.0124878 0.174201 -0.0481374 0.000348031
-0.0125 0 0.0124878 0.170446 -0.0460485 0.000317104
0.0025 0 0.0175 0.182859 -0.0453873 0.000348116
-0.0025 0 0.0175 0.182128 -0.0449761 0.000340193
0.01375 -1.807e-20 0.011217 0.171271 -0.0486129 0.000340543
-0.01375 0 0.011217 0.167129 -0.0463296 0.000309625
-0.01125 0 0.0137433 0.173574 -0.0457333 0.000323391
0.01125 0 0.0137433 0.176939 -0.0476186 0.000353421
0.015 0 0.00994629 0.167672 -0.048909 0.000324835
-0.015 0 0.00994629 0.16317 -0.0464655 0.000295432
0.01 0 0.0149988 0.179304 -0.0470296 0.000355916
-0.01 0 0.0149988 0.176335 -0.0453591 0.000327684
0.0175 -1.0842e-19 0.00479858 0.143082 -0.0463371 0.000205873
-0.0175 0 0.00479858 0.138464 -0.0442572 0.000197679
0.005 0 0.0175 0.183225 -0.045592 0.000351901
-0.005 0 0.0175 0.181765 -0.0447685 0.000336258
-0.018381 -1.0842e-19 0 0 0 0
0.018381 0 0 0 0 0
0.01625 -1.807e-20 0.008656 0.163708 -0.0490909 0.000306262
-0.01625 -3.61401e-20 0.008656 0.158868 -0.0465145 0.00027977
0.00875 -1.807e-20 0.0162494 0.181563 -0.0464244 0.000357234
-0.00875 0 0.0162494 0.178987 -0.0449703 0.000331439
-0.01875 -9.03502e-21 0.00116943 0.0780637 -0.0270168 7.0208e-05
0.01875 -9.03502e-21 0.00116944 0.0804968 -0.0273821 6.43378e-05
0.00125 -1.807e-20 0.01875 0.184831 -0.0447572 0.000345439
-0.00125 -1.807e-20 0.01875 0.184469 -0.0445536 0.000341403
0.0175 0 0.00736572 0.158435 -0.0488133 0.000282719
-0.0175 0 0.00736572 0.153337 -0.0461935 0.00026026
0.0075 0 0.0175 0.183593 -0.0457958 0.000355604
-0.0075 0 0.0175 0.181404 -0.0445593 0.000332668
0.01875 4.51751e-20 0.00356873 0.132045 -0.0437415 0.000155655
-0.01875 1.807e-20 0.00356873 0.127544 -0.0419558 0.000154721
0.019119 1.0842e-19 0 0 0 0
-0.019119 5.42101e-20 0 0 0 0
0.00375 0 0.01875 0.185193 -0.0449602 0.000349362
-0.00375 0 0.01875 0.184109 -0.044349 0.00033734
0.01375 -1.807e-20 0.0137433 0.177326 -0.0478216 0.000356581
-0.01375 0 0.0137433 0.173213 -0.0455175 0.000320062
0.015 0 0.0124878 0.174591 -0.0483387 0.00035089
-0.015 0 0.0124878 0.170084 -0.0458326 0.000313999
0.0125 0 0.0149988 0.179685 -0.047233 0.000359217
-0.0125 0 0.0149988 0.175975 -0.0451448 0.000324317
0.01875 1.807e-20 0.00608215 0.152421 -0.0482394 0.000254358
-0.01875 3.61401e-20 0.00608215 0.147127 -0.0456412 0.000237475
0.01625 -1.807e-20 0.011217 0.171665 -0.0488116 0.000343074
-0.01625 -1.807e-20 0.011217 0.166767 -0.0461139 0.000306571
0.01125 -1.807e-20 0.0162494 0.18194 -0.0466278 0.000360758
-0.01125 0 0.0162494 0.178627 -0.0447575 0.000327934
0.00625 0 0.01875 0.185557 -0.045163 0.000353171
-0.00625 0 0.01875 0.18375 -0.0441423 0.000333452
-0.02 -1.0842e-19 0 0 0 0
0.02 0 0 0 0 0
-1.02402e-14 0 0.02 0.186643 -0.0441271 0.000341282
0.0175 0 0.00994629 0.168066 -0.0491021 0.000326886
-0.0175 0 0.00994629 0.162811 -0.0462528 0.000292755
-0.02 0 0.00233887 0.107537 -0.0362309 0.000114099
0.02 -1.0842e-19 0.00233887 0.111386 -0.0373655 0.000110532
0.01 0 0.0175 0.183964 -0.0459982 0.000359271
0.0025 0 0.02 0.187002 -0.0443284 0.000345293
-0.0025 0 0.02 0.186286 -0.043925 0.00033713
-0.01 0 0.0175 0.181046 -0.0443489 0.000329229
0.02 0 0.00479858 0.143429 -0.0464671 0.000205981
-0.02 0 0.00479858 0.13815 -0.0440922 0.00019676
0.005 0 0.02 0.187361 -0.0445292 0.000349134
-0.005 0 0.02 0.185929 -0.0437214 0.000333085
0.01875 1.807e-20 0.008656 0.1641 -0.0492767 0.000307912
-0.01875 -1.807e-20 0.008656 0.158512 -0.0463058 0.000277338
0.00875 -3.61401e-20 0.01875 0.185923 -0.0453643 0.000356852
-0.00875 0 0.01875 0.183394 -0.0439343 0.000329877
-0.020881 5.42101e-20 0 0 0 0
0.020881 0 0 0 0 0
0.015 0 0.0149988 0.180072 -0.0474348 0.000362534
-0.015 0 0.0149988 0.175617 -0.0449296 0.000320917
0.02125 0 0.00116944 0.0806702 -0.0273886 6.37576e-05
-0.02125 -2.71051e-20 0.00116943 0.0779093 -0.0269755 7.01838e-05
-0.01625 -1.807e-20 0.0137433 0.172854 -0.0453011 0.000316658
0.01625 -1.807e-20 0.0137433 0.177717 -0.048023 0.000359673
-0.01375 0 0.0162494 0.178272 -0.044544 0.000324331
0.01375 0 0.0162494 0.182321 -0.0468297 0.000364219
0.00125 -3.61401e-20 0.02125 0.188765 -0.0436988 0.000340669
-0.00125 0 0.02125 0.18841 -0.0434997 0.000336487
0.02 0 0.00736572 0.158819 -0.0489854 0.000283846
-0.02 0 0.00736572 0.152991 -0.0459936 0.000258444
0.0075 0 0.02 0.187722 -0.0447291 0.000352832
-0.0075 0 0.02 0.185575 -0.0435162 0.000329362
0.0175 0 0.0124878 0.174986 -0.0485383 0.000353697
-0.0175 0 0.0124878 0.169725 -0.0456158 0.000310848
0.0125 0 0.0175 0.184339 -0.0461993 0.000362854
-0.0125 0 0.0175 0.180692 -0.0441375 0.000325687
-0.02125 0 0.00356873 0.127258 -0.0418175 0.000154334
0.02125 9.03502e-21 0.00356873 0.132361 -0.043839 0.000155386
0.00375 -1.807e-20 0.02125 0.189121 -0.0438976 0.000344709
-0.00375 -1.807e-20 0.02125 0.188056 -0.0432992 0.000332317
0.021619 0 0 0 0 0
-0.021619 5.42101e-20 0 0 0 0
0.01875 -1.807e-20 0.011217 0.172063 -0.0490085 0.000345531
-0.01875 -1.807e-20 0.011217 0.166409 -0.0458976 0.00030358
0.01125 -3.61401e-20 0.01875 0.186292 -0.0455644 0.000360517
-0.01125 -1.807e-20 0.01875 0.183041 -0.0437252 0.000326373
-0.02125 -2.71051e-20 0.00608215 0.146792 -0.0454527 0.000236186
0.02125 1.807e-20 0.00608215 0.152794 -0.0483947 0.000255049
0.00625 1.807e-20 0.02125 0.189477 -0.0440961 0.000348356
-0.00625 0 0.02125 0.187704 -0.0430971 0.000328367
0.02 0 0.00994629 0.168462 -0.0492932 0.000328963
-0.02 0 0.00994629 0.162455 -0.0460389 0.000290112
0.01 0 0.02 0.188087 -0.0449277 0.000356483
-0.01 0 0.02 0.185224 -0.0433099 0.000325841
-0.0225 -1.0842e-19 0 0 0 0
0.0225 0 0 0 0 0
-1.024e-14 0 0.0225 0.190407 -0.0430804 0.000334344
-0.0225 1.0842e-19 0.00233887 0.107309 -0.0361394 0.000113934
0.0225 -1.0842e-19 0.00233887 0.111642 -0.037414 0.000110125
0.0025 0 0.0225 0.190759 -0.0432771 0.000338273
-0.0025 0 0.0225 0.190056 -0.0428829 0.00033023
0.02125 -1.807e-20 0.008656 0.164494 -0.0494602 0.000309605
-0.02125 -1.807e-20 0.008656 0.15816 -0.0460957 0.000275131
0.01625 -1.807e-20 0.0162494 0.182707 -0.0470298 0.000367752
-0.01625 0 0.0162494 0.17792 -0.0443296 0.00032096
-0.00875 1.807e-20 0.02125 0.187355 -0.0428934 0.000324801
0.00875 -1.807e-20 0.02125 0.189836 -0.0442929 0.000352035
0.0225 -1.0842e-19 0.00479858 0.143778 -0.0465943 0.000206184
-0.0225 -1.0842e-19 0.00479858 0.137837 -0.0439254 0.000195933
0.0175 0 0.0149988 0.180463 -0.047635 0.000365843
-0.0175 0 0.0149988 0.175264 -0.0447136 0.000317564
0.005 0 0.0225 0.191112 -0.0434733 0.000341956
-0.005 0 0.0225 0.189706 -0.0426839 0.000326246
0.015 0 0.0175 0.184719 -0.0463987 0.000366409
-0.015 0 0.0175 0.180342 -0.0439253 0.000322226
0.01875 -3.61401e-20 0.0137433 0.178113 -0.0482227 0.00036268
-0.01875 -1.807e-20 0.0137433 0.172499 -0.0450837 0.00031352
0.01375 -1.807e-20 0.01875 0.186667 -0.0457628 0.000364138
-0.01375 -3.61401e-20 0.01875 0.182693 -0.0435152 0.00032283
-0.023381 -5.42101e-20 0 0 0 0
0.023381 0 0 0 0 0
0.02 0 0.0124878 0.175385 -0.0487361 0.000356466
-0.02 0 0.0124878 0.16937 -0.0453982 0.00030773
0.0125 0 0.02 0.188455 -0.0451249 0.000360131
-0.0125 0 0.02 0.184877 -0.0431026 0.000322384
0.0225 0 0.00736572 0.159205 -0.0491552 0.000285052
-0.0225 0 0.00736572 0.152648 -0.0457922 0.000256671
0.0075 0 0.0225 0.191467 -0.0436686 0.000345648
-0.0075 0 0.0225 0.189358 -0.0424834 0.000322524
-0.02375 -9.03502e-21 0.00116943 0.0777562 -0.0269324 7.01028e-05
0.02375 2.71051e-20 0.00116944 0.0808451 -0.0273929 6.34329e-05
0.00125 -1.807e-20 0.02375 0.192364 -0.0426622 0.000331571
-0.00125 -1.807e-20 0.02375 0.192016 -0.0424676 0.000327567
-0.02375 1.807e-20 0.00356873 0.126975 -0.0416771 0.000153898
0.02375 9.03502e-21 0.00356873 0.13268 -0.0439335 0.00015522
0.02125 -1.807e-20 0.011217 0.172463 -0.0492036 0.000348031
-0.02125 -1.807e-20 0.011217 0.166053 -0.0456802 0.000300633
0.01125 -1.807e-20 0.02125 0.190199 -0.0444888 0.000355548
0.00375 0 0.02375 0.192714 -0.0428561 0.000335198
-0.00375 -1.807e-20 0.02375 0.191668 -0.0422721 0.000323521
-0.01125 3.61401e-20 0.02125 0.187009 -0.0426888 0.000321352
0.024119 1.0842e-19 0 0 0 0
-0.024119 5.42101e-20 0 0 0 0
0.02375 -1.807e-20 0.00608215 0.153169 -0.0485475 0.000255743
-0.02375 -1.807e-20 0.00608215 0.14646 -0.0452624 0.000234832
0.00625 -1.807e-20 0.02375 0.193064 -0.0430494 0.000338796
-0.00625 -1.807e-20 0.02375 0.191322 -0.0420746 0.000319824
0.0225 0 0.00994629 0.168862 -0.0494824 0.000331098
-0.0225 0 0.00994629 0.162103 -0.045824 0.000287523
0.01 0 0.0225 0.191824 -0.0438626 0.000349264
-0.01 0 0.0225 0.189014 -0.0422819 0.000319003
0.0175 0 0.0175 0.185104 -0.0465966 0.000369979
-0.0175 0 0.0175 0.179995 -0.0437122 0.000318833
0.01875 -1.807e-20 0.0162494 0.183097 -0.0472284 0.000371197
-0.01875 -1.807e-20 0.0162494 0.177572 -0.0441143 0.000317595
-0.01625 -1.807e-20 0.01875 0.182348 -0.0433046 0.000319576
0.01625 -1.807e-20 0.01875 0.187046 -0.0459598 0.000367818
0.02 0 0.0149988 0.180857 -0.0478335 0.000369081
-0.02 0 0.0149988 0.174914 -0.0444967 0.000314241
-0.025 -1.0842e-19 0 0 0 0
0.015 0 0.02 0.188829 -0.0453205 0.000363767
-0.015 0 0.02 0.184534 -0.0428945 0.000318986
0.025 -1.0842e-19 0 0 0 0
-1.02399e-14 0 0.025 0.193878 -0.0420627 0.000323377
-0.025 1.0842e-19 0.00233887 0.107083 -0.0360458 0.000113773
0.025 -1.0842e-19 0.00233887 0.111899 -0.0374594 0.000109797
0.0025 0 0.025 0.194224 -0.0422546 0.000327049
-0.0025 0 0.025 0.193532 -0.0418701 0.000319518
0.02375 -1.807e-20 0.008656 0.164891 -0.0496417 0.000311401
-0.02375 -1.807e-20 0.008656 0.157812 -0.0458844 0.000272904
0.02125 -1.807e-20 0.0137433 0.178511 -0.0484209 0.000365756
-0.02125 -3.61401e-20 0.0137433 0.172148 -0.0448655 0.000310268
0.01375 0 0.02125 0.190567 -0.0446829 0.000359157
-0.00875 0 0.02375 0.190979 -0.0418759 0.000316226
-0.01375 -3.61401e-20 0.02125 0.186667 -0.0424833 0.000318037
0.00875 3.61401e-20 0.02375 0.193417 -0.0432416 0.000342771
0.025 -1.0842e-19 0.00479858 0.144129 -0.0467186 0.000206386
-0.025 -1.0842e-19 0.00479858 0.137528 -0.0437567 0.000195067
0.005 0 0.025 0.194571 -0.0424457 0.000330522
-0.005 0 0.025 0.193188 -0.041676 0.000315802
0.0225 0 0.0124878 0.175786 -0.0489322 0.000359281
-0.0225 0 0.0124878 0.169018 -0.0451795 0.000304639
0.0125 0 0.0225 0.192187 -0.0440552 0.000352809
-0.0125 0 0.0225 0.188673 -0.0420793 0.000315655
-0.025881 0 0 0 0 0
0.025881 0 0 0 0 0
0.025 0 0.00736572 0.159594 -0.0493226 0.000286254
-0.025 0 0.00736572 0.152308 -0.0455895 0.000254866
0.0075 0 0.025 0.19492 -0.0426359 0.000334182
-0.0075 0 0.025 0.192846 -0.0414805 0.000312137
0.02375 -1.807e-20 0.011217 0.172867 -0.0493967 0.000350558
-0.02375 0 0.011217 0.165702 -0.0454617 0.000297774
-0.02625 -9.03502e-21 0.00116943 0.0776045 -0.0268874 7.01714e-05
0.02625 1.807e-20 0.00116943 0.0810216 -0.0273946 6.30624e-05
0.00125 -1.807e-20 0.02625 0.195708 -0.0416599 0.000318357
0.01125 3.61401e-20 0.02375 0.193774 -0.0434326 0.000346061
-0.01125 3.61401e-20 0.02375 0.190639 -0.0416764 0.000312795
-0.00125 -1.807e-20 0.02625 0.195366 -0.0414703 0.000314695
-0.02625 -3.61401e-20 0.00356873 0.126694 -0.0415348 0.000153478
0.02625 0 0.00356873 0.133 -0.0440249 0.000155018
0.01875 0 0.01875 0.18743 -0.0461552 0.000371377
0.00375 -1.807e-20 0.02625 0.196052 -0.0418487 0.000321638
-0.01875 3.61401e-20 0.01875 0.182006 -0.043093 0.000316068
-0.00375 0 0.02625 0.195023 -0.0412796 0.00031108
0.02 0 0.0175 0.185493 -0.0467929 0.000373454
0.0175 0 0.02 0.189207 -0.0455146 0.000367356
-0.0175 0 0.02 0.184194 -0.0426856 0.000315631
-0.02 0 0.0175 0.179652 -0.0434983 0.000315442
0.026619 5.42101e-20 0 0 0 0
-0.026619 -5.42101e-20 0 0 0 0
0.02125 3.61401e-20 0.0162494 0.183491 -0.0474254 0.000374539
-0.02125 0 0.0162494 0.177227 -0.0438982 0.000314208
0.01625 -1.807e-20 0.02125 0.19094 -0.0448756 0.000362713
-0.01625 -3.61401e-20 0.02125 0.186329 -0.042277 0.000314675
0.025 0 0.00994629 0.169265 -0.0496695 0.000333287
-0.025 0 0.00994629 0.161754 -0.045608 0.000284978
0.01 0 0.025 0.195271 -0.042825 0.00033772
-0.01 0 0.025 0.192507 -0.041284 0.000308709
0.02625 0 0.00608215 0.153547 -0.0486977 0.000256343
-0.02625 1.807e-20 0.00608215 0.146131 -0.0450709 0.00023341
0.00625 1.807e-20 0.02625 0.196398 -0.0420369 0.000325061
-0.00625 0 0.02625 0.194682 -0.0410874 0.00030751
0.0225 0 0.0149988 0.181255 -0.0480304 0.000372317
-0.0225 0 0.0149988 0.174567 -0.0442789 0.000310937
0.015 0 0.0225 0.192554 -0.0442462 0.000356313
-0.015 0 0.0225 0.188336 -0.0418759 0.000312395
-0.02375 -1.807e-20 0.0137433 0.1718 -0.0446462 0.000307051
0.02375 -1.807e-20 0.0137433 0.178914 -0.0486173 0.000368823
0.01375 5.42101e-20 0.02375 0.194136 -0.043622 0.00034959
-0.01375 0 0.02375 0.190304 -0.0414758 0.00030961
-1.024e-14 0 0.0275 0.19712 -0.0410833 0.0003078
0.0275 -1.0842e-19 0 0 0 0
-0.0275 -1.0842e-19 0 0 0 0
0.0275 1.0842e-19 0.00233887 0.112159 -0.0375019 0.000109411
-0.0275 -1.0842e-19 0.00233887 0.106859 -0.0359502 0.000113657
0.0025 0 0.0275 0.197461 -0.0412701 0.00031123
-0.0025 0 0.0275 0.196779 -0.0408957 0.000304338
0.02625 -3.61401e-20 0.008656 0.165292 -0.049821 0.000313128
-0.02625 -1.807e-20 0.008656 0.157466 -0.0456721 0.000270708
0.00875 0 0.02625 0.196745 -0.0422241 0.000328868
-0.00875 0 0.02625 0.194344 -0.0408939 0.000303923
0.0275 -1.0842e-19 0.00479858 0.144483 -0.04684 0.000206554
-0.0275 -1.0842e-19 0.00479858 0.137221 -0.0435864 0.000194231
0.025 0 0.0124878 0.176191 -0.0491265 0.000362155
-0.025 0 0.0124878 0.16867 -0.04496 0.000301615
0.005 0 0.0275 0.197803 -0.0414561 0.000314558
-0.005 0 0.0275 0.196439 -0.0407068 0.000300948
0.0125 0 0.025 0.195628 -0.0430126 0.000341037
-0.0125 0 0.025 0.192172 -0.0410864 0.000305604
0.02 0 0.02 0.189589 -0.0457071 0.000370874
-0.02 0 0.02 0.183858 -0.0424758 0.000312315
-0.01875 -1.807e-20 0.02125 0.185994 -0.0420701 0.0003114
0.02125 0 0.01875 0.187817 -0.0463491 0.000374852
0.01875 0 0.02125 0.191316 -0.0450667 0.000366216
-0.02125 -1.807e-20 0.01875 0.181669 -0.0428806 0.000312759
0.028381 5.42101e-20 0 0 0 0
-0.028381 -5.42101e-20 0 0 0 0
0.0275 0 0.00736572 0.159986 -0.0494875 0.000287453
-0.0275 0 0.00736572 0.15197 -0.0453856 0.000253088
0.0075 0 0.0275 0.198147 -0.041641 0.000317922
-0.0075 0 0.0275 0.196102 -0.0405167 0.000297522
0.0225 0 0.0175 0.185885 -0.0469876 0.000376885
0.0175 0 0.0225 0.192926 -0.0444357 0.00035972
-0.0175 0 0.0225 0.188003 -0.0416717 0.000309196
-0.0225 0 0.0175 0.179312 -0.0432836 0.0003121
-0.02625 1.807e-20 0.011217 0.165353 -0.0452424 0.000294952
0.02625 -1.807e-20 0.011217 0.173274 -0.0495881 0.000353211
0.01125 -1.807e-20 0.02625 0.197096 -0.04241 0.000332004
-0.01125 0 0.02625 0.19401 -0.0406994 0.00030099
-0.02875 -4.51751e-20 0.00116943 0.0774544 -0.0268406 7.01966e-05
0.02875 1.807e-20 0.00116943 0.0811995 -0.0273938 6.26671e-05
0.02375 0 0.0162494 0.183888 -0.0476208 0.000377929
-0.02375 -1.807e-20 0.0162494 0.176885 -0.0436813 0.000310857
0.01625 -1.807e-20 0.02375 0.194502 -0.0438098 0.000352755
-0.01625 -3.61401e-20 0.02375 0.189971 -0.0412744 0.000306435
0.00125 0 0.0287506 0.198845 -0.0407001 0.000299846
-0.00125 1.807e-20 0.0287506 0.198507 -0.0405156 0.000296625
-0.02875 -1.807e-20 0.00356873 0.126416 -0.0413906 0.000153194
0.02875 0 0.00356873 0.133323 -0.0441131 0.000154762
0.00375 1.807e-20 0.0287506 0.199185 -0.0408838 0.000303176
-0.00375 -3.61401e-20 0.0287506 0.198168 -0.0403301 0.00029337
-0.029119 0 0 0 0 0
0.029119 -5.42101e-20 0 0 0 0
0.025 0 0.0149988 0.181657 -0.0482258 0.000375593
-0.025 0 0.0149988 0.174224 -0.0440603 0.000307682
0.015 0 0.025 0.195989 -0.0431987 0.00034426
-0.015 0 0.025 0.191841 -0.040888 0.000302573
0.0275 0 0.00994629 0.169671 -0.0498547 0.000335499
-0.0275 0 0.00994629 0.161407 -0.045391 0.000282471
0.01 0 0.0275 0.198494 -0.0418249 0.000321175
-0.01 0 0.0275 0.195768 -0.0403254 0.000294403
-0.02875 -1.807e-20 0.00608215 0.145805 -0.0448778 0.000232147
0.02875 9.03502e-21 0.00608215 0.153927 -0.048845 0.000257007
-0.00625 -1.807e-20 0.0287506 0.197831 -0.0401434 0.000290127
0.00625 1.807e-20 0.0287506 0.199526 -0.0410668 0.000306287
0.02625 -1.807e-20 0.0137433 0.179319 -0.048812 0.000371969
-0.02625 1.807e-20 0.0137433 0.171455 -0.0444263 0.000303931
-0.01375 -1.807e-20 0.02625 0.193679 -0.0405037 0.000297995
0.01375 3.61401e-20 0.02625 0.197452 -0.0425944 0.000335299
-0.03 -1.0842e-19 0 0 0 0
0.03 -1.0842e-19 0 0 0 0
2.13692e-12 0 0.0300012 0.200148 -0.040156 0.000286409
-0.02875 -3.61401e-20 0.008656 0.157123 -0.0454586 0.000268546
0.02875 -3.61401e-20 0.008656 0.165695 -0.049998 0.00031489
-0.02125 -1.807e-20 0.02125 0.185663 -0.0418622 0.000308178
0.02125 5.42101e-20 0.02125 0.191697 -0.0452563 0.000369705
-0.00875 -1.807e-20 0.0287506 0.197497 -0.0399554 0.000286999
0.00875 -1.807e-20 0.0287506 0.199869 -0.0412483 0.000309411
-0.03 -1.0842e-19 0.00233887 0.106636 -0.0358526 0.00011364
0.03 0 0.00233887 0.112421 -0.0375414 0.000108991
0.02 0 0.0225 0.193301 -0.0446237 0.000363147
0.0225 0 0.02 0.189975 -0.0458981 0.000374375
-0.02 0 0.0225 0.187673 -0.0414666 0.000306048
-0.0225 0 0.02 0.183525 -0.0422652 0.00030905
0.0025 0 0.0300012 0.200486 -0.0403375 0.000289587
-0.0025 0 0.0300012 0.199811 -0.0399737 0.000283353
0.0275 0 0.0124878 0.176599 -0.0493191 0.000365083
-0.0275 0 0.0124878 0.168324 -0.0447397 0.000298621
0.0125 0 0.0275 0.198845 -0.0420073 0.000324208
-0.0125 0 0.0275 0.195437 -0.040133 0.000291649
0.02375 0 0.01875 0.188208 -0.0465414 0.000378335
0.01875 -1.807e-20 0.02375 0.194872 -0.043996 0.000356046
-0.01875 3.61401e-20 0.02375 0.189643 -0.0410723 0.000303438
-0.02375 5.42101e-20 0.01875 0.181334 -0.0426674 0.000309464
0.03 0 0.00479858 0.144839 -0.0469585 0.000206706
-0.03 -1.0842e-19 0.00479858 0.136916 -0.0434144 0.000193482
0.005 0 0.0300012 0.200825 -0.0405181 0.000292738
-0.005 0 0.0300012 0.199474 -0.0397903 0.000280366
0.025 0 0.0175 0.18628 -0.0471808 0.000380376
0.0175 0 0.025 0.196355 -0.0433832 0.000347383
-0.0175 0 0.025 0.191513 -0.0406888 0.000299605
-0.025 0 0.0175 0.178976 -0.0430681 0.000308794
0.02875 -1.807e-20 0.011217 0.173683 -0.0497776 0.000355825
-0.02875 -1.807e-20 0.011217 0.165008 -0.0450221 0.000292161
0.02625 0 0.0162494 0.184288 -0.0478147 0.00038138
-0.02625 -1.807e-20 0.0162494 0.176547 -0.0434637 0.000307596
0.01625 0 0.02625 0.197812 -0.042777 0.000338245
-0.01625 -1.807e-20 0.02625 0.193352 -0.0403076 0.000295213
0.01125 -1.807e-20 0.0287506 0.200216 -0.0414289 0.000312448
-0.01125 -1.807e-20 0.0287506 0.197167 -0.039766 0.000284356
0.030881 -5.42101e-20 0 0 0 0
-0.030881 0 0 0 0 0
0.03 0 0.00736572 0.160381 -0.04965 0.000288673
-0.03 0 0.00736572 0.151635 -0.0451803 0.000251358
0.0075 0 0.0300012 0.201165 -0.0406976 0.000295721
-0.0075 0 0.0300012 0.19914 -0.0396056 0.000277498
0.03125 0 0.00116943 0.0813785 -0.0273905 6.2226e-05
-0.03125 0 0.00116943 0.0773052 -0.026792 7.03988e-05
0.00125 1.807e-20 0.0312567 0.20176 -0.0398022 0.000275241
-0.00125 0 0.0312567 0.201424 -0.039623 0.00027234
0.0275 0 0.0149988 0.182061 -0.0484194 0.000378952
-0.0275 0 0.0149988 0.173884 -0.043841 0.000304449
0.015 0 0.0275 0.199201 -0.0421882 0.000327153
-0.015 0 0.0275 0.195111 -0.0399398 0.000288924
-0.03125 -1.807e-20 0.00356873 0.126139 -0.0412443 0.000153012
0.03125 0 0.00356872 0.133647 -0.0441981 0.000154441
0.00375 -1.807e-20 0.0312567 0.202097 -0.0399804 0.00027848
-0.00375 -1.807e-20 0.0312567 0.201088 -0.0394428 0.00026953
0.03 0 0.00994629 0.170079 -0.0500377 0.000337732
-0.03 0 0.00994629 0.161064 -0.045173 0.000279986
-0.031619 0 0 0 0 0
0.031619 0 0 0 0 0
0.01 0 0.0300012 0.201509 -0.040876 0.000298603
-0.01 0 0.0300012 0.198809 -0.0394196 0.000274803
0.0225 0 0.0225 0.19368 -0.0448101 0.000366589
-0.0225 0 0.0225 0.187347 -0.0412607 0.000302951
0.03125 1.807e-20 0.00608215 0.15431 -0.0489897 0.000257682
-0.03125 -1.807e-20 0.00608215 0.145481 -0.0446833 0.000230856
0.02875 -1.807e-20 0.0137433 0.179727 -0.049005 0.00037518
-0.02875 -3.61401e-20 0.0137433 0.171114 -0.0442055 0.000300758
0.02375 -1.807e-20 0.02125 0.192081 -0.0454444 0.000373206
-0.02125 -1.807e-20 0.02375 0.189318 -0.0408692 0.000300385
-0.02375 -1.807e-20 0.02125 0.185336 -0.0416534 0.000305005
0.02125 0 0.02375 0.195247 -0.0441808 0.000359365
-0.01375 -1.807e-20 0.0287506 0.19684 -0.0395758 0.000281753
0.01375 0 0.0287506 0.200567 -0.0416078 0.00031529
0.00625 1.807e-20 0.0312567 0.202436 -0.0401577 0.000281358
-0.00625 1.807e-20 0.0312567 0.200753 -0.0392616 0.000266864
0.025 0 0.02 0.190363 -0.0460876 0.000377939
0.02 0 0.025 0.196725 -0.0435662 0.000350583