# UMean  POINT_DATA 24316
# x  y  z  UMean_x  UMean_y  UMean_z
0 -0.000880994 1.49366e-08 7.15835e-07 -2.45287e-07 5.81312e-10
0 0.000368999 0.00116943 0.0881235 -0.0303332 7.18437e-05
0 0.00161903 1.55962e-08 7.46819e-07 -2.5861e-07 6.11863e-10
1.0842e-19 -0.00213101 0.00116943 0.088196 -0.0300403 7.11382e-05
0 -0.000881008 0.00233888 0.109896 -0.0367249 0.000112291
0 0.00161899 0.00233888 0.109797 -0.0370742 0.00011347
2.1684e-19 0.002869 0.00116943 0.0880495 -0.0306287 7.2236e-05
0 -0.00338099 1.48198e-08 7.10806e-07 -2.41017e-07 5.70897e-10
-1.0842e-19 0.000368999 0.00356872 0.131919 -0.0435695 0.000154619
-8.27181e-25 -0.00338101 0.00233888 0.109992 -0.0363777 0.000111272
-3.30872e-24 0.00411903 1.63095e-08 7.80308e-07 -2.73064e-07 6.42796e-10
-1.0842e-19 -0.002131 0.00356872 0.132042 -0.0431656 0.000152868
1.0842e-19 0.002869 0.00356872 0.131792 -0.0439761 0.000156509
0 0.00411899 0.00233888 0.109696 -0.037426 0.000114446
0 -0.004631 0.00116943 0.0882647 -0.0297491 7.04004e-05
0 -0.000881004 0.00479858 0.141409 -0.0451556 0.000201524
0 0.001619 0.00479858 0.141269 -0.0455693 0.000203743
1.0842e-19 0.005369 0.00116944 0.0879746 -0.0309264 7.24844e-05
-1.0842e-19 -0.004631 0.00356872 0.132162 -0.0427633 0.00015198
-4.1359e-25 -0.003381 0.00479858 0.141544 -0.0447438 0.000199833
3.30872e-24 -0.00588099 1.48843e-08 7.14444e-07 -2.39718e-07 5.67527e-10
0 0.000369 0.00608215 0.150897 -0.0471804 0.00025118
0 0.004119 0.00479858 0.141126 -0.0459848 0.000205983
-8.27181e-25 -0.00588101 0.00233888 0.110084 -0.0360323 0.000110539
1.0842e-19 -0.002131 0.00608215 0.151048 -0.0467585 0.000248811
-1.0842e-19 0.005369 0.00356873 0.131661 -0.0443853 0.000157901
3.30872e-24 0.00661901 1.59072e-08 7.60391e-07 -2.68907e-07 6.31663e-10
0 0.002869 0.00608215 0.15074 -0.0476028 0.000254055
0 0.00661899 0.00233888 0.109592 -0.0377804 0.000115345
1.0842e-19 -0.007131 0.00116944 0.0883295 -0.0294592 6.96465e-05
0 -0.000881001 0.00736572 0.156629 -0.0472928 0.000272505
0 0.001619 0.00736572 0.156466 -0.0477104 0.000274956
4.1359e-25 -0.005881 0.00479858 0.141676 -0.0443344 0.000198635
0 -0.004631 0.00608215 0.151195 -0.0463392 0.000247042
-1.0842e-19 0.00786899 0.00116944 0.0878968 -0.0312263 7.33687e-05
-1.0842e-19 -0.007131 0.00356872 0.132278 -0.0423634 0.000151426
-2.06795e-25 -0.003381 0.00736572 0.156788 -0.0468766 0.000270312
1.0842e-19 0.005369 0.00608215 0.15058 -0.0480271 0.000256876
0 0.006619 0.00479858 0.140979 -0.0464031 0.000207799
0 -0.00838099 1.15109e-09 5.52921e-08 -1.83579e-08 4.33682e-11
-1.03398e-25 0.004119 0.00736572 0.156297 -0.0481292 0.000277768
1.0842e-19 0.007869 0.00356873 0.131529 -0.044798 0.000158984
0 0.000369 0.00865601 0.16221 -0.0478228 0.000296077
0 -0.008381 0.00233887 0.110173 -0.0356886 0.000109785
1.0842e-19 -0.002131 0.008656 0.16238 -0.0474104 0.000294032
0 0.009119 1.27743e-08 6.10082e-07 -2.18034e-07 5.13115e-10
0 0.002869 0.008656 0.162034 -0.0482367 0.000298594
0 -0.007131 0.00608215 0.15134 -0.0459226 0.000245448
0 0.009119 0.00233887 0.109486 -0.0381371 0.000116141
1.03398e-25 -0.005881 0.00736572 0.156943 -0.0464626 0.000268185
0 -0.008381 0.00479858 0.141804 -0.0439269 0.000197581
1.0842e-19 -0.009631 0.00116943 0.0883918 -0.0291708 6.86548e-05
1.0842e-19 -0.004631 0.00865601 0.162547 -0.0469992 0.000291444
0 0.006619 0.00736572 0.156126 -0.0485502 0.000280385
0 0.007869 0.00608215 0.150416 -0.0484542 0.000258862
2.58494e-26 -0.000881 0.00994629 0.166184 -0.0473786 0.000310804
0 0.001619 0.00994629 0.166005 -0.0477841 0.00031313
0 0.005369 0.00865601 0.161854 -0.0486513 0.000301627
1.0842e-19 -0.009631 0.00356872 0.13239 -0.0419649 0.000150712
0 0.009119 0.00479858 0.140829 -0.0468236 0.000209123
0 0.010369 0.00116943 0.087817 -0.0315284 7.41829e-05
5.16988e-26 -0.003381 0.00994629 0.166359 -0.0469746 0.000308484
0 0.004119 0.00994629 0.165821 -0.048191 0.000315981
-1.65436e-24 -0.010881 1.38009e-08 6.63399e-07 -2.1795e-07 5.14324e-10
0 0.010369 0.00356872 0.131393 -0.0452121 0.000159385
0 -0.010881 0.00233886 0.110259 -0.0353464 0.000108919
0 -0.008381 0.00736572 0.157095 -0.0460506 0.000266166
2.1684e-19 -0.007131 0.00865601 0.16271 -0.0465905 0.000288884
0 0.000369 0.011217 0.16996 -0.0473401 0.000327616
1.0842e-19 -0.009631 0.00608215 0.151481 -0.0455073 0.000244081
-1.0842e-19 -0.002131 0.011217 0.170144 -0.0469436 0.000325326
0 -0.005881 0.00994629 0.166531 -0.0465721 0.000305963
1.0842e-19 0.002869 0.011217 0.169773 -0.0477392 0.000330068
0 0.011619 7.04485e-09 3.52147e-07 -1.27183e-07 2.98966e-10
2.1684e-19 0.007869 0.008656 0.161672 -0.0490692 0.000304258
0 0.009119 0.00736572 0.155951 -0.0489733 0.000282777
0 0.011619 0.00233887 0.109377 -0.0384959 0.000116783
0 -0.010881 0.00479858 0.141929 -0.0435214 0.000196487
-2.58494e-26 0.006619 0.00994629 0.165634 -0.0485996 0.000319102
0 0.010369 0.00608215 0.150248 -0.0488827 0.000260703
1.0842e-19 -0.004631 0.011217 0.170324 -0.0465474 0.000322969
-1.0842e-19 -0.012131 0.00116943 0.0884546 -0.028885 6.80586e-05
-1.03398e-25 0.0119734 0.00233887 0.109361 -0.0385471 0.000116901
1.0842e-19 0.005369 0.011217 0.169582 -0.0481395 0.000333467
-1.03398e-25 0.0115493 0.00479858 0.14068 -0.0472351 0.000210457
5.16988e-26 0.011619 0.00465936 0.138905 -0.0467516 0.000205191
0 -0.000881 0.0124878 0.172998 -0.0467059 0.00033067
2.48154e-24 0.0125411 0 0 0 0
-2.8774e-21 0.011619 0.00479858 0.140676 -0.0472469 0.000210495
-3.23117e-27 0.001619 0.0124878 0.172809 -0.0470963 0.000333284
0 -0.012131 0.00356872 0.132499 -0.0415673 0.000149548
1.0842e-19 0.012869 0.00116944 0.0877353 -0.0318326 7.46111e-05
-6.46235e-27 -0.003381 0.0124878 0.173184 -0.046317 0.000328141
-2.1684e-19 -0.009631 0.00865601 0.16287 -0.0461832 0.000286328
-2.58494e-26 -0.008381 0.00994629 0.166699 -0.0461716 0.000303397
0 -0.010881 0.00736572 0.157245 -0.045641 0.000264434
-3.23117e-27 0.004119 0.0124878 0.172617 -0.0474888 0.000336339
0 -0.007131 0.011217 0.170501 -0.0461537 0.00032039
1.0842e-19 0.012869 0.00356873 0.131255 -0.0456288 0.000160309
-3.30872e-24 -0.013381 1.32649e-08 6.38094e-07 -2.07436e-07 4.91685e-10
0 0.0111883 0.00736572 0.155803 -0.0493256 0.000284941
0 0.009119 0.00994629 0.165444 -0.0490101 0.000321978
-1.0842e-19 0.010369 0.008656 0.161486 -0.0494881 0.000307366
1.0842e-19 -0.012131 0.00608215 0.151621 -0.0450968 0.000242947
0 -0.013381 0.00233886 0.110344 -0.0350066 0.000108005
0 0.007869 0.011217 0.169387 -0.0485408 0.000336887
-1.0842e-19 0.000369 0.0137433 0.175837 -0.046463 0.000336207
-5.61059e-21 0.011619 0.00736572 0.155772 -0.0493989 0.000285391
0 -0.005881 0.0124878 0.173367 -0.0459299 0.000325396
0 -0.002131 0.0137433 0.176027 -0.0460802 0.000333494
1.0842e-19 0.002869 0.0137433 0.175642 -0.0468464 0.000339209
0 0.014119 1.20546e-08 6.03268e-07 -2.19893e-07 5.12565e-10
0 0.006619 0.0124878 0.172422 -0.0478828 0.000339776
0 -0.013381 0.00479858 0.142051 -0.043118 0.000195158
0 0.012869 0.00608215 0.150079 -0.0493167 0.000263046
3.82579e-20 0.014119 0.00233887 0.109266 -0.0388569 0.000117614
2.1684e-19 -0.004631 0.0137433 0.176215 -0.0457001 0.00033074
-2.1684e-19 -0.014631 0.00116943 0.0885173 -0.0286017 6.78969e-05
0 -0.010881 0.00994629 0.166865 -0.0457728 0.000300954
-1.0842e-19 0.005369 0.0137433 0.175446 -0.0472339 0.000342573
-2.1684e-19 -0.009631 0.011217 0.170675 -0.0457612 0.000317819
-3.23117e-27 0.0109403 0.00994629 0.165303 -0.0493106 0.000323985
-1.0842e-19 -0.012131 0.008656 0.163026 -0.0457779 0.000284453
-6.61207e-20 0.014119 0.00479858 0.14052 -0.0476728 0.00021236
-4.03897e-28 -0.000881 0.0149988 0.178365 -0.0457655 0.000336726
0 -0.008381 0.0124878 0.173546 -0.0455445 0.000322442
-1.0842e-19 -0.014631 0.00356872 0.132605 -0.0411729 0.000147798
0 0.001619 0.0149988 0.178171 -0.046142 0.000339792
0 -0.013381 0.00736572 0.157391 -0.0452337 0.000262979
1.0842e-19 0.010369 0.011217 0.16919 -0.048945 0.000339231
-9.48666e-21 0.011619 0.00994629 0.16525 -0.0494225 0.000324734
0 -0.003381 0.0149988 0.178556 -0.0453904 0.000333846
-1.0842e-19 0.015369 0.00116944 0.0876509 -0.0321384 7.4663e-05
0 0.009119 0.0124878 0.172222 -0.0482779 0.000342987
0 -0.007131 0.0137433 0.176401 -0.0453218 0.000327453
1.0842e-19 0.012869 0.008656 0.161296 -0.0499091 0.000310534
0 0.004119 0.0149988 0.177974 -0.0465204 0.000343257
1.0842e-19 0.015369 0.00356873 0.131113 -0.0460479 0.000162248
0 0.007869 0.0137433 0.175246 -0.0476208 0.000346138
-1.0842e-19 -0.014631 0.00608215 0.151755 -0.0446853 0.000241681
-1.65436e-24 -0.015881 1.31767e-08 6.34295e-07 -2.04036e-07 4.87728e-10
-1.47912e-19 0.014119 0.00736572 0.15559 -0.0498266 0.000287817
8.27181e-25 -0.015881 0.00233887 0.110428 -0.0346694 0.000107146
0 -0.005881 0.0149988 0.178744 -0.0450169 0.000330635
1.0842e-19 0.000369 0.0162494 0.180698 -0.0454445 0.000339995
0 -0.002131 0.0162494 0.180891 -0.0450755 0.000337202
0 0.006619 0.0149988 0.177774 -0.0469001 0.000346653
-8.07794e-28 0.0107664 0.0124878 0.172088 -0.0485397 0.000344842
1.0842e-19 0.002869 0.0162494 0.180501 -0.0458152 0.000343752
0 -0.012131 0.011217 0.170845 -0.0453709 0.000315054
0 0.015369 0.00608215 0.149906 -0.0497511 0.000265314
3.23117e-27 -0.010881 0.0124878 0.173722 -0.0451607 0.000319408
-4.1359e-25 -0.015881 0.00479858 0.142171 -0.0427165 0.000193411
0 0.016619 1.58648e-08 7.57129e-07 -2.78898e-07 6.44617e-10
-2.58494e-26 -0.013381 0.00994629 0.167027 -0.0453767 0.000298506
0 -0.009631 0.0137433 0.176582 -0.0449445 0.000324078
1.26893e-19 0.016619 0.00233888 0.109151 -0.03922 0.000118688
0 -0.004631 0.0162494 0.181082 -0.044707 0.000333943
1.0842e-19 -0.014631 0.008656 0.163182 -0.045376 0.000282907
-7.31564e-20 0.011619 0.0124878 0.172019 -0.0486752 0.000345802
0 0.012869 0.011217 0.168989 -0.0493507 0.000341638
-1.0842e-19 0.005369 0.0162494 0.1803 -0.0461873 0.000347488
0 -0.017131 0.00116943 0.0885784 -0.0283206 6.79252e-05
-4.03897e-28 -0.008381 0.0149988 0.178928 -0.0446451 0.000327219
0 0.010369 0.0137433 0.17504 -0.0480085 0.000349652
0 0.014119 0.00994629 0.165052 -0.0498357 0.000327412
-4.8371e-20 0.016619 0.00479858 0.140361 -0.0481006 0.000214518
1.0842e-19 -0.017131 0.00356872 0.13271 -0.0407811 0.000146219
0 -0.015881 0.00736572 0.157535 -0.0448286 0.000260882
-1.95638e-28 -0.000881 0.0174897 0.182893 -0.0447393 0.000337064
-1.91544e-20 -0.000881 0.0175 0.182912 -0.044735 0.000337065
0 0.009119 0.0149988 0.177569 -0.0472807 0.00035007
0 0.001619 0.0174862 0.182691 -0.045105 0.000340088
1.58401e-19 0.001619 0.0175 0.182716 -0.0450992 0.00034009
0 0.015369 0.008656 0.161101 -0.0503306 0.000312459
-1.0842e-19 -0.007131 0.0162494 0.181269 -0.0443401 0.000330401
1.57772e-30 -0.003381 0.0174919 0.18309 -0.0443754 0.00033393
-1.57772e-30 -0.003381 0.0175 0.183104 -0.0443721 0.00033393
0 0.017869 0.00116944 0.087565 -0.0324463 7.47481e-05
-7.88861e-29 0.004119 0.0174841 0.182488 -0.0454715 0.000343456
-1.91509e-20 0.004119 0.0175 0.182517 -0.0454648 0.000343458
1.0842e-19 0.007869 0.0162494 0.180096 -0.0465598 0.000350407
0 0.016619 0.00736572 0.155404 -0.0502559 0.000289844
0 -0.017131 0.00608215 0.151888 -0.0442767 0.000239288
1.0842e-19 0.017869 0.00356873 0.130967 -0.0464692 0.000164502
0 -0.013381 0.0124878 0.173895 -0.0447792 0.000316076
1.0842e-19 -0.012131 0.0137433 0.17676 -0.0445695 0.000320657
1.51461e-28 0.0106082 0.0149988 0.177446 -0.0475085 0.000352178
0 -0.018381 1.33764e-08 6.44348e-07 -2.05092e-07 4.95115e-10
2.1684e-19 -0.014631 0.011217 0.171014 -0.044984 0.000311455
1.02552e-28 -0.005881 0.0174922 0.18328 -0.0440136 0.000330278
0 -0.005881 0.0175 0.183294 -0.0440105 0.000330277
0 -0.018381 0.00233887 0.11051 -0.0343348 0.000106449
0 -0.010881 0.0149988 0.179109 -0.0442748 0.000323778
2.52435e-29 0.006619 0.0174831 0.182284 -0.0458385 0.000346785
5.84013e-20 0.006619 0.0175 0.182315 -0.0458313 0.000346786
-2.58494e-26 -0.015881 0.00994629 0.167188 -0.0449837 0.000295568
1.0842e-19 0.000369 0.01875 0.184931 -0.0443891 0.000336911
0 0.012869 0.0137433 0.174834 -0.0484004 0.000352643
1.55259e-19 0.014119 0.0124878 0.171813 -0.0490736 0.000348755
0 -0.002131 0.01875 0.185126 -0.0440311 0.000334154
-1.0842e-19 0.017869 0.00608215 0.149728 -0.0501875 0.000267485
0 -0.009631 0.0162494 0.181453 -0.043975 0.000326941
0 0.002869 0.01875 0.184735 -0.0447483 0.000339704
-1.84089e-20 0.011619 0.0149988 0.177362 -0.0476631 0.000353609
4.1359e-25 -0.018381 0.00479858 0.142289 -0.0423183 0.000191408
1.0842e-19 0.015369 0.011217 0.168783 -0.0497556 0.00034485
0 0.019119 3.74342e-09 1.78477e-07 -6.644e-08 1.52298e-10
0 -0.017131 0.008656 0.163335 -0.0449776 0.000279726
-4.20555e-20 0.019119 0.00233888 0.109034 -0.0395853 0.000119792
-1.0842e-19 0.010369 0.0162494 0.179889 -0.0469349 0.000354077
0 -0.004631 0.01875 0.185318 -0.0436749 0.000330423
-4.97158e-20 0.016619 0.00994629 0.16485 -0.050251 0.000330096
-2.05104e-28 -0.008381 0.017491 0.183463 -0.0436541 0.000326632
-1.91544e-20 -0.008381 0.0175 0.183479 -0.0436505 0.00032663
0 0.005369 0.01875 0.184533 -0.0451084 0.000342887
0 -0.019631 0.00116943 0.0886366 -0.028041 6.79645e-05
-5.36425e-29 0.009119 0.0174725 0.182059 -0.0462113 0.000350305
-7.01648e-20 0.019119 0.00479858 0.140197 -0.0485299 0.000216746
0 0.009119 0.0175 0.182109 -0.0461994 0.000350308
-1.03398e-25 -0.018381 0.00736572 0.157677 -0.0444264 0.000257905
-1.0842e-19 0.017869 0.008656 0.160903 -0.0507555 0.000314204
-1.0842e-19 -0.019631 0.00356872 0.132815 -0.0403936 0.000144919
-9.67102e-20 -0.000881 0.02 0.186925 -0.0436899 0.000331883
0 -0.007131 0.01875 0.185505 -0.0433203 0.000326343
-1.91544e-20 0.001619 0.02 0.186729 -0.0440427 0.00033501
0 -0.014631 0.0137433 0.176934 -0.0441957 0.000317114
0 -0.013381 0.0149988 0.179286 -0.0439058 0.000320446
0 -0.015881 0.0124878 0.174064 -0.0443994 0.000312893
0 -0.012131 0.0162494 0.181633 -0.0436112 0.000323431
8.08456e-20 -0.003381 0.02 0.187119 -0.0433389 0.000328492
0 0.007869 0.01875 0.184329 -0.0454698 0.000346361
1.0842e-19 0.020369 0.00116944 0.0874787 -0.032757 7.48733e-05
-1.91544e-20 0.004119 0.02 0.186531 -0.0443973 0.000338333
-1.0842e-19 -0.017131 0.011217 0.171179 -0.0445992 0.000308033
9.56159e-21 0.019119 0.00736572 0.155215 -0.050687 0.000292127
0 -0.019631 0.00608215 0.15202 -0.0438718 0.000236532
-8.04638e-29 -0.010881 0.0174886 0.183641 -0.0432965 0.000323117
9.1454e-21 0.014119 0.0149988 0.177151 -0.0480474 0.000357166
-1.57772e-30 -0.010881 0.0175 0.183662 -0.043292 0.000323114
0 0.015369 0.0137433 0.174623 -0.0487918 0.000355845
2.1684e-19 0.020369 0.00356873 0.130816 -0.0468924 0.000166484
0 0.012869 0.0162494 0.179677 -0.0473101 0.000358056
-2.4999e-20 0.016619 0.0124878 0.171603 -0.0494738 0.000352182
-9.67102e-20 -0.005881 0.02 0.187308 -0.0429889 0.000324721
0 -0.020881 1.38596e-08 6.68056e-07 -2.10401e-07 5.1176e-10
0 -0.018381 0.00994629 0.167345 -0.0445922 0.000292208
5.84013e-20 0.011619 0.0175 0.1819 -0.0465689 0.000354277
0 -0.020881 0.00233887 0.11059 -0.0340027 0.000105902
-1.91544e-20 0.006619 0.02 0.18633 -0.0447532 0.000341931
0 -0.009631 0.01875 0.185689 -0.0429668 0.000322835
0 0.017869 0.011217 0.168574 -0.0501656 0.000348694
1.0842e-19 0.000369 0.02125 0.188724 -0.0433424 0.000329937
0 0.020369 0.00608215 0.149546 -0.0506242 0.000269993
1.0842e-19 -0.002131 0.02125 0.18892 -0.0429971 0.000326531
0 -0.020881 0.00479858 0.142407 -0.0419236 0.000189646
0 0.010369 0.01875 0.184122 -0.0458331 0.000350388
1.0842e-19 0.002869 0.02125 0.188528 -0.0436911 0.000333489
-1.0842e-19 -0.019631 0.00865601 0.163486 -0.0445807 0.000276145
9.52931e-20 0.019119 0.00994629 0.164645 -0.0506691 0.000333048
0 0.021619 1.55331e-08 7.19749e-07 -2.70659e-07 6.16174e-10
-9.67102e-20 -0.008381 0.02 0.187493 -0.0426395 0.00032107
3.71297e-20 0.021619 0.00233888 0.108915 -0.0399532 0.000120681
0 -0.004631 0.02125 0.189112 -0.0426528 0.000322859
-4.03897e-28 -0.015881 0.0149988 0.179459 -0.0435378 0.000317689
2.1684e-19 -0.014631 0.0162494 0.181809 -0.0432481 0.000320579
-1.0842e-19 0.005369 0.02125 0.18833 -0.0440415 0.000337252
-1.0842e-19 -0.017131 0.0137433 0.177104 -0.0438217 0.000314942
-1.91544e-20 0.009119 0.02 0.186125 -0.0451104 0.000345779
-9.30856e-29 -0.013381 0.0174867 0.183815 -0.0429394 0.000319934
8.08456e-20 -0.013381 0.0175 0.183839 -0.0429342 0.000319931
0 0.020369 0.008656 0.160702 -0.0511818 0.000316909
-1.03398e-25 -0.020881 0.00736572 0.157818 -0.044027 0.000255092
9.2789e-21 0.021619 0.00479858 0.140028 -0.0489612 0.000218876
0 -0.022131 0.00116943 0.0886919 -0.027763 6.76298e-05
-3.23117e-27 -0.018381 0.0124878 0.174229 -0.0440203 0.000310185
0 -0.012131 0.01875 0.18587 -0.0426151 0.000319249
-2.1684e-19 0.015369 0.0162494 0.179464 -0.0476888 0.000362114
-3.59904e-20 0.016619 0.0149988 0.176937 -0.0484334 0.000360672
-1.0842e-19 -0.007131 0.02125 0.189298 -0.0423077 0.000319259
0 -0.022131 0.00356872 0.132918 -0.0400085 0.000144314
1.58394e-19 0.014119 0.0175 0.181687 -0.0469396 0.000358389
3.28979e-21 -0.000881 0.0225 0.190552 -0.0426717 0.000322546
0 0.017869 0.0137433 0.174408 -0.0491861 0.000359294
3.28979e-21 0.001619 0.0225 0.190358 -0.0430141 0.00032633
0 -0.019631 0.011217 0.171338 -0.0442132 0.000304778
0 0.007869 0.02125 0.188127 -0.0443931 0.000341225
0 0.012869 0.01875 0.183911 -0.0461976 0.000354586
-9.67102e-20 -0.003381 0.0225 0.190744 -0.0423307 0.000318928
-9.67102e-20 -0.010881 0.02 0.187674 -0.0422917 0.000317657
1.36284e-19 0.019119 0.0124878 0.171389 -0.049876 0.000355607
1.87088e-20 0.021619 0.00736572 0.15502 -0.0511194 0.000294863
8.08456e-20 0.004119 0.0225 0.190162 -0.0433581 0.000330112
-1.0842e-19 0.022869 0.00116944 0.0873917 -0.0330702 7.51322e-05
0 -0.022131 0.00608215 0.152149 -0.0434701 0.000234122
0 -0.020881 0.00994629 0.167499 -0.0442022 0.000289052
1.58401e-19 0.011619 0.02 0.185917 -0.0454686 0.000349606
1.0842e-19 0.022869 0.00356873 0.130662 -0.0473188 0.000167696
1.0842e-19 0.020369 0.011217 0.168362 -0.0505767 0.000352201
-3.54881e-20 -0.005881 0.0225 0.190932 -0.0419901 0.000315488
1.0842e-19 -0.009631 0.02125 0.189479 -0.0419632 0.000315843
0 -0.023381 1.46374e-08 7.05979e-07 -2.20002e-07 5.38376e-10
-1.91544e-20 0.006619 0.0225 0.189961 -0.043703 0.000333761
0 -0.023381 0.00233887 0.110668 -0.0336727 0.000105507
-1.0842e-19 -0.017131 0.0162494 0.181981 -0.0428867 0.000318115
-4.41762e-29 -0.015881 0.0174862 0.183988 -0.0425828 0.000317412
-1.57772e-30 -0.015881 0.0175 0.184013 -0.0425775 0.000317411
1.0842e-19 0.010369 0.02125 0.187922 -0.0447457 0.000345143
2.1684e-19 0.022869 0.00608215 0.149359 -0.051063 0.000272829
1.27227e-19 -0.018381 0.0149988 0.179628 -0.0431708 0.000315272
-1.0842e-19 0.000369 0.02375 0.192188 -0.0423423 0.000318835
0 -0.022131 0.008656 0.163635 -0.0441866 0.000273642
0 -0.014631 0.01875 0.186045 -0.0422626 0.000316468
-9.43109e-20 0.021619 0.00994629 0.164435 -0.0510881 0.000336076
0 -0.002131 0.02375 0.192378 -0.042005 0.000314879
0 -0.023381 0.00479858 0.142522 -0.0415315 0.000188085
-1.65436e-24 0.0239179 0 0 0 0
0 0.002869 0.02375 0.191994 -0.0426808 0.000323059
0 -0.019631 0.0137433 0.177271 -0.04345 0.000312953
3.28979e-21 -0.008381 0.0225 0.191115 -0.0416501 0.000312211
3.28979e-21 -0.013381 0.02 0.187851 -0.0419445 0.000314598
0 0.024119 1.35896e-09 6.08354e-08 -2.31565e-08 5.25903e-11
0 0.024119 0.000600548 0.0279348 -0.0103539 3.11781e-05
-1.9162e-20 0.016619 0.0175 0.181471 -0.0473116 0.000362163
2.1684e-19 0.017869 0.0162494 0.179247 -0.0480685 0.000365427
0 -0.004631 0.02375 0.192566 -0.0416679 0.000311443
5.27096e-20 0.024119 0.00233887 0.108794 -0.0403238 0.000121425
-1.0842e-19 0.015369 0.01875 0.183696 -0.0465619 0.000358799
-1.91544e-20 0.009119 0.0225 0.189758 -0.0440492 0.000337362
-1.09662e-20 0.019119 0.0149988 0.176718 -0.0488205 0.00036378
-3.23117e-27 -0.020881 0.0124878 0.174391 -0.0436424 0.000307287
0 0.005369 0.02375 0.191796 -0.0430191 0.00032665
0 0.022869 0.00865601 0.160496 -0.0516099 0.000319807
1.0842e-19 -0.012131 0.02125 0.189659 -0.0416216 0.000312703
5.84013e-20 0.014119 0.02 0.185704 -0.0458273 0.000353307
-1.03398e-25 -0.023381 0.00736572 0.157956 -0.0436297 0.000252605
2.1684e-19 0.020369 0.0137433 0.174188 -0.0495799 0.000362197
-1.02533e-20 0.024119 0.00479858 0.139856 -0.0493949 0.000220752
1.0842e-19 -0.024631 0.00116943 0.0887442 -0.0274861 6.73653e-05
1.0842e-19 -0.007131 0.02375 0.192751 -0.0413321 0.000308392
0 -0.022131 0.011217 0.171495 -0.0438301 0.000301495
-1.0842e-19 0.012869 0.02125 0.187712 -0.0450982 0.000348308
0 -0.024631 0.00356872 0.133021 -0.0396266 0.000143937
-1.95256e-20 0.021619 0.0124878 0.17117 -0.0502788 0.000358776
-9.67102e-20 -0.010881 0.0225 0.191295 -0.0413116 0.0003091
-3.54881e-20 -0.000881 0.025 0.19388 -0.0416924 0.000310063
0 0.007869 0.02375 0.191594 -0.0433586 0.000329917
6.45119e-20 0.001619 0.025 0.19369 -0.0420256 0.000313468
5.89066e-21 0.024119 0.00736572 0.154822 -0.0515536 0.000297521
-3.54881e-20 -0.003381 0.025 0.194068 -0.0413597 0.000306795
8.08456e-20 0.011619 0.0225 0.189551 -0.0443959 0.000340745
3.28979e-21 0.004119 0.025 0.193497 -0.0423591 0.000316818
7.88861e-30 -0.018381 0.0174859 0.184159 -0.0422276 0.000314832
-1.0842e-19 -0.024631 0.00608215 0.152277 -0.0430702 0.000231238
-1.57772e-30 -0.018381 0.0175 0.184184 -0.0422222 0.000314829
0 0.025369 0.00116944 0.0873031 -0.0333852 7.57096e-05
1.0842e-19 -0.017131 0.01875 0.186218 -0.0419129 0.000314482
0 -0.023381 0.00994629 0.167651 -0.0438141 0.000286408
0 0.022869 0.011217 0.168142 -0.0509872 0.000355203
0 -0.019631 0.0162494 0.182149 -0.0425261 0.000315073
-3.54881e-20 -0.015881 0.02 0.188024 -0.041598 0.000311993
1.0842e-19 0.025369 0.00356872 0.130506 -0.0477482 0.000168635
1.0842e-19 -0.009631 0.02375 0.192932 -0.0409974 0.000305352
-9.67102e-20 -0.005881 0.025 0.194251 -0.0410276 0.000303562
0 -0.020881 0.0149988 0.179794 -0.0428053 0.00031259
0 -0.014631 0.02125 0.189832 -0.0412787 0.000309974
8.08456e-20 0.006619 0.025 0.1933 -0.0426932 0.000320055
0 -0.025881 1.52949e-08 7.38137e-07 -2.27594e-07 5.59765e-10
-1.0842e-19 0.017869 0.01875 0.183476 -0.0469274 0.000362312
-1.0842e-19 0.010369 0.02375 0.191389 -0.0436994 0.000333163
-1.91647e-20 0.019119 0.0175 0.18125 -0.0476847 0.000365364
-8.27181e-25 -0.025881 0.00233887 0.110745 -0.0333451 0.000105
-1.91544e-20 0.016619 0.02 0.185487 -0.0461863 0.000356871
-1.0842e-19 -0.022131 0.0137433 0.177434 -0.0430792 0.000309887
-1.0842e-19 0.020369 0.0162494 0.179024 -0.0484491 0.000368197
0 0.025369 0.00608215 0.149168 -0.0515037 0.00027537
-8.6221e-20 0.024119 0.00994629 0.16422 -0.051508 0.000338837
0 -0.024631 0.008656 0.163781 -0.0437932 0.000271491
6.45119e-20 -0.013381 0.0225 0.191471 -0.0409741 0.000306257
0 0.015369 0.02125 0.187498 -0.0454514 0.000351535
0 0.000369 0.02625 0.195385 -0.0413754 0.000304616
-7.65609e-20 0.021619 0.0149988 0.176495 -0.0492085 0.000366834
-4.1359e-25 -0.025881 0.00479858 0.142637 -0.0411424 0.000186347
0 -0.002131 0.02625 0.195571 -0.0410468 0.000301922
-1.91544e-20 -0.008381 0.025 0.194432 -0.0406969 0.000300279
-1.0842e-19 0.002869 0.02625 0.195196 -0.0417039 0.000307361
3.23117e-27 -0.023381 0.0124878 0.17455 -0.0432661 0.000304224
5.84013e-20 0.014119 0.0225 0.18934 -0.0447435 0.000343965
8.08456e-20 0.009119 0.025 0.1931 -0.0430284 0.000323369
0 0.026619 5.14573e-09 2.37429e-07 -9.12913e-08 2.07284e-10
1.0842e-19 -0.004631 0.02625 0.195755 -0.0407192 0.000298935
0 -0.012131 0.02375 0.19311 -0.0406643 0.000302504
-2.1684e-19 0.022869 0.0137433 0.173963 -0.0499755 0.000365463
4.1359e-25 0.026619 0.00201023 0.0934008 -0.0349783 0.000105224
-6.27304e-20 0.026619 0.00233887 0.10867 -0.0406967 0.000122427
-1.0842e-19 0.005369 0.02625 0.195003 -0.0420327 0.000310201
1.0842e-19 0.025369 0.008656 0.160285 -0.0520388 0.000322164
0 -0.025881 0.00736572 0.158091 -0.0432344 0.000250118
-1.0842e-19 0.012869 0.02375 0.191181 -0.0440405 0.000336368
2.58949e-20 0.026619 0.00479858 0.139682 -0.0498314 0.000222677
-1.0842e-19 -0.024631 0.011217 0.171652 -0.0434481 0.000298856
1.0842e-19 -0.019631 0.01875 0.186388 -0.0415634 0.000311648
-1.0842e-19 -0.027131 0.00116943 0.0887974 -0.0272115 6.69777e-05
4.82422e-21 0.024119 0.0124878 0.170945 -0.0506824 0.000362005
3.28979e-21 -0.018381 0.02 0.188196 -0.0412533 0.000309317
0 -0.007131 0.02625 0.195934 -0.0403914 0.000295477
1.89327e-29 -0.020881 0.0174848 0.184324 -0.0418738 0.000311939
-1.57772e-30 -0.020881 0.0175 0.184352 -0.0418681 0.000311935
-1.91544e-20 -0.010881 0.025 0.194609 -0.040368 0.000297049
-1.0842e-19 -0.017131 0.02125 0.190004 -0.0409378 0.000307048
0 -0.027131 0.00356872 0.133121 -0.0392481 0.00014293
-1.0842e-19 0.007869 0.02625 0.194808 -0.0423627 0.000313451
1.0842e-19 -0.022131 0.0162494 0.182315 -0.0421671 0.000312442
3.28979e-21 -0.000881 0.0275 0.196968 -0.0407536 0.000293849
9.78188e-29 -0.000881 0.0275113 0.196981 -0.0407496 0.000293749
-3.54881e-20 -0.015881 0.0225 0.191644 -0.0406377 0.000303348
-3.54838e-20 0.001619 0.0275 0.196784 -0.0410775 0.000296417
2.52435e-29 0.001619 0.0275132 0.196799 -0.0410728 0.000296302
-1.91544e-20 0.011619 0.025 0.192896 -0.0433644 0.000326774
3.84592e-20 0.026619 0.00736572 0.154619 -0.0519898 0.00030018
-1.91544e-20 0.019119 0.02 0.185267 -0.0465466 0.000360209
-1.0842e-19 0.020369 0.01875 0.183254 -0.047294 0.00036552
-9.67102e-20 -0.003381 0.0275 0.197149 -0.0404306 0.000291132
-8.99301e-29 -0.003381 0.0275133 0.197165 -0.040426 0.000291015
0 -0.025881 0.00994629 0.1678 -0.0434277 0.000284194
0 0.025369 0.011217 0.167918 -0.0513993 0.000357989
0 0.0276607 0.00233887 0.108618 -0.040853 0.000122922
0 0.017869 0.02125 0.187279 -0.0458046 0.000354839
0 -0.023381 0.0149988 0.179958 -0.0424411 0.000309801
-2.1684e-19 -0.027131 0.00608215 0.152404 -0.0426739 0.000228523
3.28979e-21 0.004119 0.0275 0.196598 -0.0414022 0.000299294
8.08353e-20 0.021619 0.0175 0.181026 -0.0480591 0.000368556
-1.13596e-28 0.004119 0.0275183 0.196619 -0.0413957 0.000299139
1.0842e-19 0.027869 0.00116944 0.0872115 -0.0337021 7.65537e-05
1.0842e-19 -0.014631 0.02375 0.193283 -0.0403319 0.000299848
0 -0.009631 0.02625 0.196111 -0.0400669 0.000291896
1.58401e-19 0.016619 0.0225 0.189126 -0.045092 0.000347289
0 0.022869 0.0162494 0.178798 -0.0488309 0.000371474
-1.0842e-19 0.027869 0.00356872 0.130347 -0.0481801 0.000170292
-1.91544e-20 -0.005881 0.0275 0.197328 -0.0401084 0.000287715
3.15544e-30 -0.005881 0.0275304 0.197363 -0.040098 0.000287445
2.1684e-19 -0.024631 0.0137433 0.177595 -0.04271 0.000306623
0 0.010369 0.02625 0.194609 -0.042693 0.000316945
-1.91519e-20 0.006619 0.0275 0.196409 -0.0417279 0.000302234
-1.0842e-19 0.015369 0.02375 0.19097 -0.044384 0.00033965
-8.36193e-29 0.006619 0.0275228 0.196435 -0.0417197 0.000302041
3.28979e-21 -0.013381 0.025 0.194783 -0.0400399 0.000294027
0 -0.028381 1.56584e-08 7.56141e-07 -2.30677e-07 5.67666e-10
8.93301e-20 0.024119 0.0149988 0.176267 -0.0495975 0.000370324
1.20342e-20 0.026619 0.00994629 0.164002 -0.05193 0.000341633
-8.27181e-25 -0.028381 0.00233888 0.110821 -0.03302 0.000104051
0 -0.027131 0.008656 0.163922 -0.0434016 0.000269292
0 0.027869 0.00608215 0.148974 -0.0519477 0.000277949
-1.91544e-20 0.014119 0.025 0.19269 -0.0437019 0.000330246
0 -0.025881 0.0124878 0.174707 -0.0428915 0.000301723
5.84013e-20 -0.008381 0.0275 0.197503 -0.0397877 0.000283858
0 0.000369 0.0287506 0.198368 -0.0404551 0.00028548
2.06795e-25 -0.028381 0.00479858 0.142748 -0.0407558 0.000184471
1.0842e-19 -0.002131 0.0287506 0.198547 -0.0401368 0.000283374
-1.0842e-19 0.025369 0.0137433 0.173734 -0.050372 0.000369322
-1.0842e-19 0.002869 0.0287506 0.198188 -0.0407753 0.000288206
-9.67102e-20 -0.020881 0.02 0.188364 -0.0409101 0.000306349
-1.0842e-19 -0.012131 0.02625 0.196285 -0.0397435 0.000288447
1.0842e-19 -0.019631 0.02125 0.190173 -0.0405991 0.000304092
5.84013e-20 0.009119 0.0275 0.196217 -0.0420544 0.00030525
1.02552e-28 0.009119 0.027519 0.196239 -0.0420475 0.000305084
1.0842e-19 -0.022131 0.01875 0.186555 -0.0412158 0.00030858
3.28979e-21 -0.018381 0.0225 0.191815 -0.0403032 0.000300328
0 0.029119 8.18434e-09 3.87766e-07 -1.50728e-07 3.42286e-10
1.0842e-19 -0.004631 0.0287506 0.198724 -0.0398194 0.000280295
1.0842e-19 0.027869 0.008656 0.16007 -0.0524699 0.000325323
7.88861e-30 -0.023381 0.017482 0.184485 -0.0415221 0.000309279
8.08456e-20 -0.023381 0.0175 0.184518 -0.0415154 0.000309275
0 0.029119 0.00233887 0.108544 -0.0410719 0.000123615
-1.0842e-19 0.012869 0.02625 0.194407 -0.0430246 0.000320623
-2.1684e-19 0.005369 0.0287506 0.198005 -0.0410968 0.000291404
0 -0.017131 0.02375 0.193457 -0.0400024 0.00029652
0 -0.028381 0.00736572 0.158223 -0.0428409 0.000247848
-1.0842e-19 -0.027131 0.011217 0.171805 -0.0430693 0.00029699
-1.57842e-20 0.026619 0.0124878 0.170718 -0.0510881 0.000365166
-1.0842e-19 0.020369 0.02125 0.187058 -0.0461605 0.000358166
-1.91544e-20 0.021619 0.02 0.185043 -0.0469087 0.000363664
0 0.0290936 0.00479858 0.139505 -0.0502658 0.000224852
2.1684e-19 -0.024631 0.0162494 0.182479 -0.0418092 0.000310248
-1.61559e-27 0.029119 0.00479858 0.139503 -0.0502702 0.000224874
5.84013e-20 0.019119 0.0225 0.188907 -0.0454414 0.000350766
0 0.029119 0.00500016 0.140674 -0.0504396 0.000231026
0 0.022869 0.01875 0.183027 -0.0476628 0.000369035
1.58401e-19 -0.010881 0.0275 0.197676 -0.0394685 0.000280353
3.28979e-21 -0.015881 0.025 0.194955 -0.0397134 0.000291006
1.0842e-19 -0.007131 0.0287506 0.198899 -0.0395035 0.000276151
0 -0.029631 0.00116943 0.0888513 -0.0269393 6.62205e-05
1.0842e-19 0.017869 0.02375 0.190755 -0.0447279 0.000343133
4.20614e-20 0.024119 0.0175 0.180797 -0.0484345 0.000372145
1.0842e-19 0.007869 0.0287506 0.197819 -0.0414193 0.000293878
-2.1684e-19 -0.029631 0.00356872 0.133218 -0.0388715 0.000141273
1.58405e-19 0.011619 0.0275 0.196021 -0.0423813 0.000308689
9.78188e-29 0.011619 0.0275129 0.196036 -0.0423766 0.000308572
0 -0.025881 0.0149988 0.180119 -0.0420786 0.000307287
0 -0.000881 0.0300012 0.199834 -0.0398755 0.000271879
-1.91544e-20 0.016619 0.025 0.19248 -0.0440409 0.000333772
0 0.029119 0.00736572 0.154412 -0.0524277 0.000303222
-1.0842e-19 0.027869 0.011217 0.167694 -0.0518154 0.000360869
0 0.001619 0.0300012 0.199658 -0.0401908 0.000274743