# UMean  POINT_DATA 26303
# x  y  z  UMean_x  UMean_y  UMean_z
1.62142e-08 -1.0842e-19 0 0 0 0
-0.000880991 -5.42101e-20 0 0 0 0
0.000881021 1.0842e-19 0 0 0 0
-0.00161899 1.0842e-19 0 0 0 0
0.00161902 0 0 0 0 0
-0.00124999 -1.807e-20 0.00116943 0.0794738 -0.0272247 6.78017e-05
0.00125001 -9.03502e-21 0.00116943 0.0796379 -0.0272467 6.77427e-05
6.61554e-09 0 0.00233887 0.109862 -0.036848 0.000112706
-0.0025 -1.0842e-19 0 0 0 0
0.00250002 -1.0842e-19 0 0 0 0
-0.003381 0 0 0 0 0
0.00338102 0 0 0 0 0
-0.0025 -1.0842e-19 0.00233887 0.10962 -0.0367782 0.00011265
0.00250001 1.0842e-19 0.00233887 0.110105 -0.0369147 0.000112644
-0.00125 1.807e-20 0.00356872 0.130152 -0.0428244 0.000155095
0.00125 3.61401e-20 0.00356872 0.130454 -0.0429411 0.000155244
-0.00375 0 0.00116943 0.0793107 -0.0272005 6.7832e-05
0.00375001 0 0.00116944 0.0798038 -0.027266 6.74893e-05
-0.004119 -5.42101e-20 0 0 0 0
0.00411901 0 0 0 0 0
2.5969e-09 -1.0842e-19 0.00479858 0.14136 -0.0453014 0.000202306
0.00500001 -1.0842e-19 0 0 0 0
-0.00500001 1.0842e-19 0 0 0 0
-0.00375 9.03502e-21 0.00356873 0.129853 -0.0427052 0.000154744
0.00375 3.61401e-20 0.00356873 0.130758 -0.0430542 0.000155449
0.0025 -1.0842e-19 0.00479858 0.141692 -0.0454458 0.000202865
-0.0025 0 0.00479858 0.14103 -0.0451538 0.000201615
-0.005 0 0.00233887 0.10938 -0.036706 0.000112547
0.00500001 1.0842e-19 0.00233887 0.11035 -0.0369786 0.000112578
-0.00588101 5.42101e-20 0 0 0 0
0.00588101 -1.0842e-19 0 0 0 0
-0.00125 -1.807e-20 0.00608215 0.150239 -0.0468399 0.000246906
0.00125 0 0.00608215 0.150592 -0.0470111 0.000248032
-0.00625 0 0.00116944 0.0791493 -0.0271743 6.79674e-05
0.00625 0 0.00116943 0.0799705 -0.0272833 6.72452e-05
-0.006619 -5.42101e-20 0 0 0 0
0.006619 -5.42101e-20 0 0 0 0
0.005 -1.0842e-19 0.00479858 0.142026 -0.0455875 0.000203492
-0.005 0 0.00479858 0.140703 -0.0450038 0.000200789
-0.00375 -1.807e-20 0.00608215 0.149888 -0.0466663 0.000245613
0.00375 -1.807e-20 0.00608215 0.150948 -0.0471789 0.000249053
-0.00625 9.03502e-21 0.00356873 0.129556 -0.0425834 0.000154357
0.00625 9.03502e-21 0.00356873 0.131063 -0.0431649 0.000155774
8.48585e-10 0 0.00736572 0.156571 -0.04744 0.000273369
-0.0075 1.0842e-19 0 0 0 0
0.0075 -1.0842e-19 0 0 0 0
0.0025 0 0.00736572 0.156937 -0.0476233 0.000274994
-0.0025 0 0.00736572 0.156208 -0.0472538 0.000271631
-0.0075 -1.0842e-19 0.00233887 0.109142 -0.0366315 0.000112556
0.0075 0 0.00233887 0.110597 -0.0370401 0.000112561
-0.008381 5.42101e-20 0 0 0 0
0.008381 5.42101e-20 0 0 0 0
-0.00625 -1.807e-20 0.00608215 0.149539 -0.0464907 0.000244249
0.00625 4.51751e-20 0.00608215 0.151307 -0.047345 0.000250239
-0.00125 0 0.008656 0.161819 -0.0475911 0.000293804
0.00125 0 0.00865601 0.162192 -0.0477874 0.00029598
-0.00874999 -1.807e-20 0.00116944 0.0789879 -0.0271464 6.81976e-05
0.00875 -9.03502e-21 0.00116944 0.0801388 -0.0272984 6.70131e-05
0.005 0 0.00736572 0.157306 -0.0478046 0.000276607
-0.005 0 0.00736572 0.155848 -0.0470657 0.000269828
0.0075 0 0.00479858 0.142364 -0.0457273 0.000204213
-0.0075 0 0.00479858 0.140378 -0.0448515 0.000199994
-0.00911899 -5.42101e-20 0 0 0 0
0.00911899 0 0 0 0 0
-0.00375 -1.807e-20 0.008656 0.161449 -0.0473933 0.000291586
0.00375 0 0.008656 0.162568 -0.0479806 0.000298045
-0.00875 9.03502e-21 0.00356873 0.129261 -0.0424592 0.000154128
0.00875 0 0.00356873 0.131372 -0.0432728 0.000156105
2.04885e-10 0 0.00994629 0.166121 -0.0475215 0.000311624
-0.00999999 0 0 0 0 0
0.00999999 -1.0842e-19 0 0 0 0
0.0025 0 0.00994629 0.166499 -0.0477215 0.000314105
-0.0025 0 0.00994629 0.165746 -0.0473193 0.000309105
-0.00999999 0 0.00233887 0.108906 -0.0365545 0.000112719
0.01 0 0.00233887 0.110846 -0.0370988 0.000112475
0.0075 0 0.00736572 0.157678 -0.0479847 0.000278241
-0.0075 0 0.00736572 0.15549 -0.0468756 0.000268011
0.00875 1.807e-20 0.00608215 0.151669 -0.0475094 0.000251431
-0.00875 -3.61401e-20 0.00608215 0.149193 -0.0463129 0.000242945
-0.00625 -1.807e-20 0.008656 0.161082 -0.0471939 0.000289338
0.00625 0 0.008656 0.162947 -0.0481731 0.000300096
0.010881 -5.42101e-20 0 0 0 0
-0.010881 -5.42101e-20 0 0 0 0
0.01 0 0.00479858 0.142703 -0.0458644 0.00020493
-0.01 0 0.00479858 0.140055 -0.0446969 0.000199299
0.005 0 0.00994629 0.16688 -0.0479196 0.000316619
-0.005 0 0.00994629 0.165374 -0.0471157 0.000306553
-0.00125 -3.61401e-20 0.011217 0.169679 -0.0471533 0.000324434
0.00125 -3.61401e-20 0.011217 0.170058 -0.0473582 0.000327157
-0.01125 2.71051e-20 0.00116944 0.0788286 -0.0271159 6.85593e-05
0.01125 1.807e-20 0.00116943 0.0803084 -0.0273111 6.66608e-05
-0.011619 5.42101e-20 0 0 0 0
0.011619 1.0842e-19 0 0 0 0
-0.01125 -1.807e-20 0.00356872 0.128968 -0.0423326 0.000154045
0.01125 0 0.00356873 0.131681 -0.0433781 0.000156232
0.00375 1.807e-20 0.011217 0.17044 -0.0475607 0.000329979
-0.00375 1.807e-20 0.011217 0.169304 -0.0469469 0.000321677
-0.00875 -1.807e-20 0.008656 0.160717 -0.0469926 0.00028708
0.00875 1.807e-20 0.00865601 0.163329 -0.048364 0.000302147
0.01 0 0.00736572 0.158052 -0.0481625 0.000279874
-0.01 0 0.00736572 0.155134 -0.0466837 0.000266217
0.0075 0 0.00994629 0.167264 -0.0481166 0.000319195
-0.0075 0 0.00994629 0.165005 -0.0469106 0.000303974
3.14938e-11 0 0.0124878 0.172932 -0.0468435 0.000331591
0.0125 -1.0842e-19 0 0 0 0
-0.0125 1.0842e-19 0 0 0 0
0.0125 1.0842e-19 0.00233887 0.111096 -0.0371547 0.000112281
-0.0125 1.0842e-19 0.00233887 0.108671 -0.0364748 0.000112981
0.0025 0 0.0124878 0.173311 -0.0470477 0.000334575
-0.0025 0 0.0124878 0.172556 -0.0466371 0.000328598
-0.01125 -2.71051e-20 0.00608215 0.14885 -0.0461333 0.000241641
0.01125 -9.03502e-21 0.00608215 0.152032 -0.04767 0.000252686
-0.00625 -3.61401e-20 0.011217 0.168932 -0.0467394 0.000318901
0.00625 -3.61401e-20 0.011217 0.170824 -0.0477615 0.000332914
0.013381 0 0 0 0 0
-0.013381 0 0 0 0 0
0.0125 -1.0842e-19 0.00479858 0.143044 -0.0459987 0.000205621
-0.0125 -1.0842e-19 0.00479858 0.139735 -0.0445401 0.00019868
0.005 0 0.0124878 0.173693 -0.0472502 0.0003377
-0.005 0 0.0124878 0.172183 -0.0464295 0.000325533
0.01375 0 0.00116943 0.0804791 -0.0273216 6.62448e-05
-0.01375 2.71051e-20 0.00116944 0.0786701 -0.0270832 6.89684e-05
-0.00125 -3.61401e-20 0.0137433 0.175613 -0.0462944 0.000333952
0.00125 -3.61401e-20 0.0137433 0.175988 -0.0464998 0.000337072
0.01 0 0.00994629 0.167651 -0.0483117 0.000321733
-0.01 0 0.00994629 0.164638 -0.0467041 0.000301392
-0.014119 -1.0842e-19 0 0 0 0
0.014119 -5.42101e-20 0 0 0 0
0.01125 -1.807e-20 0.008656 0.163714 -0.048553 0.000304187
-0.01125 -1.807e-20 0.008656 0.160355 -0.0467898 0.000284841
-0.01375 1.807e-20 0.00356873 0.128677 -0.0422035 0.000154035
0.01375 9.03502e-21 0.00356872 0.131993 -0.0434805 0.000156247
0.00875 -1.807e-20 0.011217 0.171213 -0.0479619 0.000335953
-0.00875 -1.807e-20 0.011217 0.168563 -0.0465306 0.000316013
0.00375 3.61401e-20 0.0137433 0.176368 -0.046703 0.00034022
-0.00375 0 0.0137433 0.17524 -0.0460876 0.000330731
0.0125 0 0.00736572 0.158429 -0.0483383 0.000281549
-0.0125 0 0.00736572 0.154781 -0.0464901 0.000264486
0.0075 0 0.0124878 0.174079 -0.047452 0.000340984
-0.0075 0 0.0124878 0.171814 -0.046221 0.000322423
2.25352e-12 0 0.0149988 0.178297 -0.0458982 0.000337807
-0.015 0 0 0 0 0
0.015 -1.0842e-19 0 0 0 0
0.01375 -1.807e-20 0.00608215 0.152398 -0.0478299 0.000253984
-0.01375 1.807e-20 0.00608215 0.148509 -0.0459518 0.000240423
0.00625 -1.807e-20 0.0137433 0.17675 -0.0469054 0.000343661
-0.00625 -1.807e-20 0.0137433 0.174871 -0.0458796 0.000327453
0.015 -1.0842e-19 0.00233887 0.111348 -0.0372079 0.000112054
-0.015 1.0842e-19 0.00233887 0.108438 -0.0363928 0.000113215
0.0025 0 0.0149988 0.178671 -0.046101 0.000341201
-0.0025 0 0.0149988 0.177925 -0.0456929 0.000334478
0.015 -1.0842e-19 0.00479858 0.143387 -0.0461305 0.000206248
-0.015 -1.0842e-19 0.00479858 0.139416 -0.0443814 0.000198087
0.005 0 0.0149988 0.179049 -0.0463024 0.00034476
-0.005 0 0.0149988 0.177557 -0.0454864 0.000331125
-0.015881 1.0842e-19 0 0 0 0
0.015881 -5.42101e-20 0 0 0 0
0.01125 0 0.011217 0.171603 -0.0481594 0.000338824
-0.01125 -3.61401e-20 0.011217 0.168195 -0.0463202 0.000313132
0.0125 0 0.00994629 0.168041 -0.0485053 0.000324157
-0.0125 0 0.00994629 0.164275 -0.0464962 0.000298822
0.01 0 0.0124878 0.174468 -0.0476523 0.000344227
-0.01 0 0.0124878 0.171447 -0.0460112 0.000319291
0.01375 -1.807e-20 0.008656 0.164101 -0.0487401 0.000306249
-0.01375 -1.807e-20 0.008656 0.159995 -0.0465855 0.00028272
0.01625 1.807e-20 0.00116943 0.0806514 -0.0273298 6.58804e-05
-0.01625 9.03502e-21 0.00116943 0.0785131 -0.0270481 6.92139e-05
-0.00875 -1.807e-20 0.0137433 0.174505 -0.0456707 0.000324152
0.00875 -1.807e-20 0.0137433 0.177136 -0.0471067 0.000347178
-0.00125 0 0.0162494 0.180501 -0.0452858 0.000337403
0.00125 0 0.0162494 0.180871 -0.045489 0.000340896
0.016619 -1.0842e-19 0 0 0 0
-0.016619 0 0 0 0 0
0.01625 0 0.00356872 0.132306 -0.04358 0.000156209
-0.01625 1.807e-20 0.00356873 0.128388 -0.0420722 0.00015399
-0.00375 -3.61401e-20 0.0162494 0.180135 -0.0450811 0.000334051
0.00375 0 0.0162494 0.181243 -0.0456886 0.000344541
0.015 0 0.00736572 0.158808 -0.0485122 0.000283201
-0.015 0 0.00736572 0.154431 -0.046295 0.00026279
0.0075 0 0.0149988 0.17943 -0.0465037 0.000348441
-0.0075 0 0.0149988 0.177193 -0.045279 0.000327726
0.01625 -1.807e-20 0.00608215 0.152765 -0.0479862 0.000255224
-0.01625 9.03502e-21 0.00608215 0.14817 -0.0457683 0.000239187
-0.00625 0 0.0162494 0.179772 -0.0448755 0.000330599
0.00625 -1.807e-20 0.0162494 0.18162 -0.0458889 0.000348375
-0.0175 -1.0842e-19 0 0 0 0
0.0175 0 0 0 0 0
-1.02403e-14 0 0.0175 0.182843 -0.0448634 0.000338131
-0.0175 0 0.00233887 0.108206 -0.0363084 0.000113345
0.0175 -1.0842e-19 0.00233887 0.111602 -0.0372581 0.000111842
0.0125 0 0.0124878 0.17486 -0.0478511 0.0003473
-0.0125 0 0.0124878 0.171083 -0.0458002 0.00031611
0.0025 0 0.0175 0.183211 -0.0450632 0.000341691
-0.0025 0 0.0175 0.182478 -0.0446612 0.000334676
0.01375 -1.807e-20 0.011217 0.171997 -0.0483568 0.000341498
-0.01375 0 0.011217 0.167831 -0.046109 0.000310125
-0.01125 0 0.0137433 0.174142 -0.0454607 0.000320816
0.01125 0 0.0137433 0.177525 -0.0473067 0.000350604
0.015 0 0.00994629 0.168434 -0.0486974 0.000326507
-0.015 0 0.00994629 0.163914 -0.0462871 0.000296257
0.01 0 0.0149988 0.179815 -0.0467036 0.000352073
-0.01 0 0.0149988 0.176831 -0.0450704 0.000324338
0.0175 -1.0842e-19 0.00479858 0.143732 -0.0462597 0.000206767
-0.0175 0 0.00479858 0.1391 -0.0442206 0.000197455
0.005 0 0.0175 0.183582 -0.0452615 0.000345383
-0.005 0 0.0175 0.182117 -0.0444579 0.000331234
-0.018381 -1.0842e-19 0 0 0 0
0.018381 0 0 0 0 0
0.01625 -1.807e-20 0.008656 0.164491 -0.0489255 0.000308286
-0.01625 -3.61401e-20 0.008656 0.159639 -0.0463794 0.000280627
0.00875 -1.807e-20 0.0162494 0.182 -0.0460887 0.000352219
-0.00875 0 0.0162494 0.179411 -0.0446689 0.000327202
-0.01875 -9.03502e-21 0.00116943 0.0783573 -0.0270111 6.93935e-05
0.01875 -9.03502e-21 0.00116944 0.0808248 -0.0273355 6.56974e-05
0.00125 -1.807e-20 0.01875 0.185113 -0.0444366 0.000337976
-0.00125 -1.807e-20 0.01875 0.18475 -0.0442368 0.000334494
0.0175 0 0.00736572 0.15919 -0.0486837 0.000284785
-0.0175 0 0.00736572 0.154083 -0.0460983 0.000261115
0.0075 0 0.0175 0.183957 -0.0454597 0.000349156
-0.0075 0 0.0175 0.181758 -0.0442533 0.00032774
0.01875 4.51751e-20 0.00356873 0.132622 -0.0436767 0.000156099
-0.01875 1.807e-20 0.00356873 0.1281 -0.0419384 0.000153876
0.019119 1.0842e-19 0 0 0 0
-0.019119 5.42101e-20 0 0 0 0
0.00375 0 0.01875 0.185479 -0.0446331 0.000341539
-0.00375 0 0.01875 0.184391 -0.0440364 0.000331061
0.01375 -1.807e-20 0.0137433 0.177917 -0.0475054 0.000353945
-0.01375 0 0.0137433 0.173781 -0.0452491 0.000317404
0.015 0 0.0124878 0.175254 -0.0480486 0.00035029
-0.015 0 0.0124878 0.170722 -0.045588 0.000312907
0.0125 0 0.0149988 0.180203 -0.046902 0.000355596
-0.0125 0 0.0149988 0.176472 -0.0448607 0.000320948
0.01875 1.807e-20 0.00608215 0.153135 -0.0481413 0.000256331
-0.01875 3.61401e-20 0.00608215 0.147834 -0.0455832 0.000237959
0.01625 -1.807e-20 0.011217 0.172393 -0.0485516 0.000344143
-0.01625 -1.807e-20 0.011217 0.167471 -0.045897 0.000307187
0.01125 -1.807e-20 0.0162494 0.182383 -0.046286 0.000355964
-0.01125 0 0.0162494 0.179054 -0.044461 0.000323879
0.00625 0 0.01875 0.18585 -0.0448296 0.000345249
-0.00625 0 0.01875 0.184035 -0.0438344 0.000327571
-0.02 -1.0842e-19 0 0 0 0
0.02 0 0 0 0 0
-1.02402e-14 0 0.02 0.186856 -0.0438142 0.000332985
0.0175 0 0.00994629 0.168829 -0.0488875 0.00032884
-0.0175 0 0.00994629 0.163556 -0.0460765 0.000293729
-0.02 0 0.00233887 0.107977 -0.0362215 0.000113455
0.02 -1.0842e-19 0.00233887 0.111857 -0.0373056 0.000111621
0.01 0 0.0175 0.184336 -0.0456566 0.000352899
0.0025 0 0.02 0.187217 -0.0440099 0.000336569
-0.0025 0 0.02 0.186498 -0.0436162 0.000329435
-0.01 0 0.0175 0.181403 -0.0440478 0.000324278
0.02 0 0.00479858 0.14408 -0.0463861 0.000207188
-0.02 0 0.00479858 0.138786 -0.0440578 0.00019677
0.005 0 0.02 0.187582 -0.0442042 0.000340245
-0.005 0 0.02 0.186144 -0.0434171 0.000325888
0.01875 1.807e-20 0.008656 0.164884 -0.0491081 0.000310341
-0.01875 -1.807e-20 0.008656 0.159285 -0.0461722 0.00027867
0.00875 -3.61401e-20 0.01875 0.186223 -0.0450252 0.000348952
-0.00875 0 0.01875 0.183682 -0.0436313 0.000324059
-0.020881 5.42101e-20 0 0 0 0
0.020881 0 0 0 0 0
0.015 0 0.0149988 0.180594 -0.0470993 0.000359057
-0.015 0 0.0149988 0.176116 -0.0446499 0.000317512
0.02125 0 0.00116944 0.0809992 -0.0273388 6.54911e-05
-0.02125 -2.71051e-20 0.00116943 0.0782029 -0.026972 6.96835e-05
-0.01625 -1.807e-20 0.0137433 0.173424 -0.0450367 0.000313965
0.01625 -1.807e-20 0.0137433 0.178312 -0.0477027 0.000357285
-0.01375 0 0.0162494 0.1787 -0.0442522 0.000320545
0.01375 0 0.0162494 0.18277 -0.0464828 0.000359603
0.00125 -3.61401e-20 0.02125 0.18891 -0.0433915 0.000330982
-0.00125 0 0.02125 0.188554 -0.0431967 0.000327365
0.02 0 0.00736572 0.159574 -0.0488529 0.000286328
-0.02 0 0.00736572 0.153738 -0.0459 0.000259451
0.0075 0 0.02 0.18795 -0.0443984 0.000344002
-0.0075 0 0.02 0.185793 -0.0432169 0.000322308
0.0175 0 0.0124878 0.175652 -0.0482445 0.000353253
-0.0175 0 0.0124878 0.170364 -0.0453745 0.000309702
0.0125 0 0.0175 0.184717 -0.0458521 0.00035657
-0.0125 0 0.0175 0.181051 -0.0438412 0.000320841
-0.02125 0 0.00356873 0.127815 -0.0418025 0.000153723
0.02125 9.03502e-21 0.00356873 0.132939 -0.0437704 0.000155902
0.00375 -1.807e-20 0.02125 0.189269 -0.0435833 0.000334635
-0.00375 -1.807e-20 0.02125 0.188201 -0.0430001 0.000323753
0.021619 0 0 0 0 0
-0.021619 5.42101e-20 0 0 0 0
0.01875 -1.807e-20 0.011217 0.172793 -0.0487457 0.000346776
-0.01875 -1.807e-20 0.011217 0.167112 -0.0456828 0.00030422
0.01125 -3.61401e-20 0.01875 0.186599 -0.0452197 0.000352631
-0.01125 -1.807e-20 0.01875 0.183331 -0.0434274 0.000320607
-0.02125 -2.71051e-20 0.00608215 0.1475 -0.0453965 0.000236693
0.02125 1.807e-20 0.00608215 0.153508 -0.0482928 0.000257356
0.00625 1.807e-20 0.02125 0.189632 -0.0437756 0.000338423
-0.00625 0 0.02125 0.187852 -0.0428029 0.000320183
0.02 0 0.00994629 0.169228 -0.0490758 0.000331169
-0.02 0 0.00994629 0.1632 -0.0458647 0.000291244
0.01 0 0.02 0.188322 -0.0445913 0.000347747
-0.01 0 0.02 0.185445 -0.0430159 0.000318727
-0.0225 -1.0842e-19 0 0 0 0
0.0225 0 0 0 0 0
-1.024e-14 0 0.0225 0.190484 -0.0427924 0.000323879
-0.0225 1.0842e-19 0.00233887 0.107748 -0.0361324 0.000113521
0.0225 -1.0842e-19 0.00233887 0.112114 -0.0373499 0.000111345
0.0025 0 0.0225 0.190838 -0.0429833 0.000327476
-0.0025 0 0.0225 0.190133 -0.042599 0.000320332
0.02125 -1.807e-20 0.008656 0.165279 -0.0492889 0.000312449
-0.02125 -1.807e-20 0.008656 0.158933 -0.0459635 0.000276683
0.01625 -1.807e-20 0.0162494 0.18316 -0.0466782 0.000363157
-0.01625 0 0.0162494 0.178348 -0.044042 0.000317057
-0.00875 1.807e-20 0.02125 0.187506 -0.0426048 0.000316563
0.00875 -1.807e-20 0.02125 0.189999 -0.0439674 0.000342234
0.0225 -1.0842e-19 0.00479858 0.14443 -0.0465094 0.000207552
-0.0225 -1.0842e-19 0.00479858 0.138474 -0.0438932 0.000196008
0.0175 0 0.0149988 0.180988 -0.047295 0.000362517
-0.0175 0 0.0149988 0.175763 -0.044438 0.000314038
0.005 0 0.0225 0.191197 -0.0431728 0.00033119
-0.005 0 0.0225 0.189784 -0.0424045 0.000316816
0.015 0 0.0175 0.185101 -0.0460463 0.000360179
-0.015 0 0.0175 0.180702 -0.0436337 0.000317313
0.01875 -3.61401e-20 0.0137433 0.17871 -0.0478985 0.000360546
-0.01875 -1.807e-20 0.0137433 0.173069 -0.0448226 0.000310465
0.01375 -1.807e-20 0.01875 0.186979 -0.045413 0.000356261
-0.01375 -3.61401e-20 0.01875 0.182984 -0.0432222 0.000317095
-0.023381 -5.42101e-20 0 0 0 0
0.023381 0 0 0 0 0
0.02 0 0.0124878 0.176053 -0.0484388 0.000356173
-0.02 0 0.0124878 0.170009 -0.0451599 0.000306501
0.0125 0 0.02 0.188696 -0.0447828 0.000351464
-0.0125 0 0.02 0.1851 -0.0428138 0.000315176
0.0225 0 0.00736572 0.159961 -0.0490196 0.000287825
-0.0225 0 0.00736572 0.153395 -0.0457005 0.00025773
0.0075 0 0.0225 0.191559 -0.0433623 0.000334969
-0.0075 0 0.0225 0.18944 -0.0422089 0.000313335
-0.02375 -9.03502e-21 0.00116943 0.0780496 -0.0269309 6.98287e-05
0.02375 2.71051e-20 0.00116944 0.0811751 -0.0273394 6.51296e-05
0.00125 -1.807e-20 0.02375 0.192374 -0.0423897 0.000319867
-0.00125 -1.807e-20 0.02375 0.192023 -0.0421994 0.000316354
-0.02375 1.807e-20 0.00356873 0.127531 -0.0416643 0.000153424
0.02375 9.03502e-21 0.00356873 0.13326 -0.0438601 0.000155739
0.02125 -1.807e-20 0.011217 0.173196 -0.048938 0.000349367
-0.02125 -1.807e-20 0.011217 0.166758 -0.045468 0.000301298
0.01125 -1.807e-20 0.02125 0.190368 -0.0441568 0.000345997
0.00375 0 0.02375 0.192727 -0.0425769 0.000323538
-0.00375 -1.807e-20 0.02375 0.191676 -0.0420082 0.000312872
-0.01125 3.61401e-20 0.02125 0.187164 -0.042406 0.00031296
0.024119 1.0842e-19 0 0 0 0
-0.024119 5.42101e-20 0 0 0 0
0.02375 -1.807e-20 0.00608215 0.153884 -0.0484427 0.000258282
-0.02375 -1.807e-20 0.00608215 0.147168 -0.045209 0.000235366
0.00625 -1.807e-20 0.02375 0.193084 -0.042764 0.000327295
-0.00625 -1.807e-20 0.02375 0.191333 -0.0418153 0.000309472
0.0225 0 0.00994629 0.169629 -0.0492623 0.000333536
-0.0225 0 0.00994629 0.162848 -0.045652 0.000288734
0.01 0 0.0225 0.191924 -0.0435504 0.000338703
-0.01 0 0.0225 0.189098 -0.0420124 0.000309843
0.0175 0 0.0175 0.185489 -0.0462389 0.000363838
-0.0175 0 0.0175 0.180356 -0.0434251 0.00031372
0.01875 -1.807e-20 0.0162494 0.183553 -0.0468721 0.000366847
-0.01875 -1.807e-20 0.0162494 0.178 -0.0438312 0.000313588
-0.01625 -1.807e-20 0.01875 0.18264 -0.0430162 0.000313404
0.01625 -1.807e-20 0.01875 0.187361 -0.0456038 0.000359847
0.02 0 0.0149988 0.181385 -0.0474888 0.00036601
-0.02 0 0.0149988 0.175413 -0.044225 0.000310553
-0.025 -1.0842e-19 0 0 0 0
0.015 0 0.02 0.189074 -0.0449726 0.000355194
-0.015 0 0.02 0.184758 -0.0426105 0.000311603
0.025 -1.0842e-19 0 0 0 0
-1.02399e-14 0 0.025 0.193813 -0.0418098 0.000311263
-0.025 1.0842e-19 0.00233887 0.107522 -0.036041 0.000113455
0.025 -1.0842e-19 0.00233887 0.112373 -0.037391 0.000111006
0.0025 0 0.025 0.194162 -0.0419958 0.000314671
-0.0025 0 0.025 0.193467 -0.0416213 0.000307885
0.02375 -1.807e-20 0.008656 0.165677 -0.0494678 0.000314574
-0.02375 -1.807e-20 0.008656 0.158585 -0.0457542 0.000274602
0.02125 -1.807e-20 0.0137433 0.179111 -0.0480918 0.00036378
-0.02125 -3.61401e-20 0.0137433 0.172717 -0.0446079 0.00030704
0.01375 0 0.02125 0.190741 -0.0443457 0.000349801
-0.00875 0 0.02375 0.190993 -0.0416215 0.000306142
-0.01375 -3.61401e-20 0.02125 0.186824 -0.0422058 0.000309422
0.00875 3.61401e-20 0.02375 0.193445 -0.0429502 0.000331007
0.025 -1.0842e-19 0.00479858 0.144782 -0.04663 0.000207885
-0.025 -1.0842e-19 0.00479858 0.138165 -0.0437267 0.000195156
0.005 0 0.025 0.194514 -0.0421803 0.000318113
-0.005 0 0.025 0.193125 -0.0414315 0.0003046
0.0225 0 0.0124878 0.176457 -0.0486311 0.00035913
-0.0225 0 0.0124878 0.169657 -0.0449445 0.000303334
0.0125 0 0.0225 0.192292 -0.0437372 0.000342389
-0.0125 0 0.0225 0.188759 -0.0418148 0.00030636
-0.025881 0 0 0 0 0
0.025881 0 0 0 0 0
0.025 0 0.00736572 0.160351 -0.049184 0.000289258
-0.025 0 0.00736572 0.153055 -0.0454996 0.000255908
0.0075 0 0.025 0.19487 -0.0423647 0.000321559
-0.0075 0 0.025 0.192785 -0.0412406 0.000301423
0.02375 -1.807e-20 0.011217 0.173603 -0.0491283 0.000352144
-0.02375 0 0.011217 0.166406 -0.0452527 0.000298362
-0.02625 -9.03502e-21 0.00116943 0.0778974 -0.0268878 6.98374e-05
0.02625 1.807e-20 0.00116943 0.0813526 -0.0273372 6.4653e-05
0.00125 -1.807e-20 0.02625 0.195571 -0.0414222 0.000305528
0.01125 3.61401e-20 0.02375 0.193808 -0.0431352 0.000334636
-0.01125 3.61401e-20 0.02375 0.190655 -0.0414265 0.000302763
-0.00125 -1.807e-20 0.02625 0.195226 -0.0412373 0.000302229
-0.02625 -3.61401e-20 0.00356873 0.12725 -0.041524 0.000153042
0.02625 0 0.00356873 0.133581 -0.0439475 0.000155615
0.01875 0 0.01875 0.187747 -0.0457939 0.000363563
0.00375 -1.807e-20 0.02625 0.195918 -0.0416042 0.000308736
-0.01875 3.61401e-20 0.01875 0.1823 -0.042809 0.000309762
-0.00375 0 0.02625 0.194884 -0.0410503 0.000298972
0.02 0 0.0175 0.18588 -0.0464299 0.000367602
0.0175 0 0.02 0.189454 -0.0451608 0.000358982
-0.0175 0 0.02 0.184419 -0.0424063 0.000307998
-0.02 0 0.0175 0.180013 -0.0432156 0.000310139
0.026619 5.42101e-20 0 0 0 0
-0.026619 -5.42101e-20 0 0 0 0
0.02125 3.61401e-20 0.0162494 0.183948 -0.0470635 0.000370623
-0.02125 0 0.0162494 0.177656 -0.0436195 0.000310092
0.01625 -1.807e-20 0.02125 0.191117 -0.0445318 0.000353683
-0.01625 -3.61401e-20 0.02125 0.186486 -0.0420043 0.000305917
0.025 0 0.00994629 0.170033 -0.0494463 0.000335944
-0.025 0 0.00994629 0.162499 -0.0454382 0.000286147
0.01 0 0.025 0.19523 -0.0425479 0.000324945
-0.01 0 0.025 0.192449 -0.0410487 0.000298203
0.02625 0 0.00608215 0.154262 -0.0485898 0.00025913
-0.02625 1.807e-20 0.00608215 0.146839 -0.0450186 0.000233965
0.00625 1.807e-20 0.02625 0.19627 -0.0417864 0.000311901
-0.00625 0 0.02625 0.194546 -0.0408622 0.000295951
0.0225 0 0.0149988 0.181785 -0.0476807 0.000369497
-0.0225 0 0.0149988 0.175066 -0.0440111 0.00030709
0.015 0 0.0225 0.192663 -0.0439224 0.000346082
-0.015 0 0.0225 0.188423 -0.0416161 0.000302956
-0.02375 -1.807e-20 0.0137433 0.17237 -0.0443926 0.000303709
0.02375 -1.807e-20 0.0137433 0.179516 -0.0482841 0.000367008
0.01375 5.42101e-20 0.02375 0.194175 -0.0433189 0.000338155
-0.01375 0 0.02375 0.19032 -0.0412305 0.000299404
-1.024e-14 0 0.0275 0.196903 -0.0408677 0.000294754
0.0275 -1.0842e-19 0 0 0 0
-0.0275 -1.0842e-19 0 0 0 0
0.0275 1.0842e-19 0.00233887 0.112634 -0.0374287 0.000110634
-0.0275 -1.0842e-19 0.00233887 0.107297 -0.0359474 0.000113294
0.0025 0 0.0275 0.197247 -0.0410489 0.000297768
-0.0025 0 0.0275 0.196562 -0.0406841 0.000291719
0.02625 -3.61401e-20 0.008656 0.166078 -0.0496434 0.000316541
-0.02625 -1.807e-20 0.008656 0.158239 -0.0455431 0.000272366
0.00875 0 0.02625 0.196625 -0.0419677 0.000315059
-0.00875 0 0.02625 0.19421 -0.0406732 0.000292963
0.0275 -1.0842e-19 0.00479858 0.145137 -0.0467473 0.000208258
-0.0275 -1.0842e-19 0.00479858 0.137858 -0.0435582 0.000194221
0.025 0 0.0124878 0.176864 -0.0488217 0.000362176
-0.025 0 0.0124878 0.169308 -0.0447282 0.000300178
0.005 0 0.0275 0.197595 -0.0412287 0.000300722
-0.005 0 0.0275 0.196224 -0.0404993 0.000288803
0.0125 0 0.025 0.195592 -0.0427296 0.000328262
-0.0125 0 0.025 0.192116 -0.0408557 0.000294963
0.02 0 0.02 0.189838 -0.0453477 0.000362802
-0.02 0 0.02 0.184083 -0.0422012 0.000304412
-0.01875 -1.807e-20 0.02125 0.186153 -0.0418022 0.000302403
0.02125 0 0.01875 0.188136 -0.0459825 0.000367332
0.01875 0 0.02125 0.191497 -0.0447177 0.000357572
-0.02125 -1.807e-20 0.01875 0.181962 -0.0426009 0.000306122
0.028381 5.42101e-20 0 0 0 0
-0.028381 -5.42101e-20 0 0 0 0
0.0275 0 0.00736572 0.160744 -0.0493458 0.000290674
-0.0275 0 0.00736572 0.152718 -0.0452971 0.000253993
0.0075 0 0.0275 0.197946 -0.0414082 0.000303682
-0.0075 0 0.0275 0.195889 -0.0403135 0.000285992
0.0225 0 0.0175 0.186274 -0.0466192 0.00037135
0.0175 0 0.0225 0.193038 -0.0441061 0.000349833
-0.0175 0 0.0225 0.18809 -0.0414165 0.000299582
-0.0225 0 0.0175 0.179673 -0.0430051 0.000306571
-0.02625 1.807e-20 0.011217 0.166057 -0.0450361 0.000295428
0.02625 -1.807e-20 0.011217 0.174012 -0.0493165 0.000355015
0.01125 -1.807e-20 0.02625 0.196983 -0.0421481 0.000318146
-0.01125 0 0.02625 0.193879 -0.0404837 0.000289828
-0.02875 -4.51751e-20 0.00116943 0.0777466 -0.026843 6.98465e-05
0.02875 1.807e-20 0.00116943 0.0815314 -0.0273323 6.41377e-05
0.02375 0 0.0162494 0.184347 -0.0472535 0.0003743
-0.02375 -1.807e-20 0.0162494 0.177313 -0.0434064 0.000306574
0.01625 -1.807e-20 0.02375 0.194545 -0.043501 0.0003417
-0.01625 -3.61401e-20 0.02375 0.189988 -0.0410334 0.000296263
0.00125 0 0.0287506 0.198551 -0.040503 0.00028617
-0.00125 1.807e-20 0.0287506 0.198209 -0.0403226 0.000283358
-0.02875 -1.807e-20 0.00356873 0.126971 -0.0413816 0.000152582
0.02875 0 0.00356873 0.133905 -0.0440299 0.00015556
0.00375 1.807e-20 0.0287506 0.198895 -0.0406809 0.000288942
-0.00375 -3.61401e-20 0.0287506 0.197872 -0.040141 0.000280649
-0.029119 0 0 0 0 0
0.029119 -5.42101e-20 0 0 0 0
0.025 0 0.0149988 0.182188 -0.047871 0.000372941
-0.025 0 0.0149988 0.174723 -0.0437963 0.000303632
0.015 0 0.025 0.195957 -0.0429097 0.000331531
-0.015 0 0.025 0.191785 -0.0406615 0.000291921
0.0275 0 0.00994629 0.17044 -0.0496281 0.000338287
-0.0275 0 0.00994629 0.162152 -0.0452233 0.000283516
0.01 0 0.0275 0.198301 -0.0415865 0.000306648
-0.01 0 0.0275 0.195557 -0.0401266 0.000283135
-0.02875 -1.807e-20 0.00608215 0.146512 -0.0448269 0.000232461
0.02875 9.03502e-21 0.00608215 0.154644 -0.0487339 0.000260107
-0.00625 -1.807e-20 0.0287506 0.197538 -0.0399585 0.000278092
0.00625 1.807e-20 0.0287506 0.199243 -0.0408581 0.000291725
0.02625 -1.807e-20 0.0137433 0.179923 -0.0484745 0.000370361
-0.02625 1.807e-20 0.0137433 0.172024 -0.044176 0.000300369
-0.01375 -1.807e-20 0.02625 0.193549 -0.0402923 0.000286838
0.01375 3.61401e-20 0.02625 0.197343 -0.0423257 0.000321193
-0.03 -1.0842e-19 0 0 0 0
0.03 -1.0842e-19 0 0 0 0
2.13692e-12 0 0.0300012 0.199772 -0.0399866 0.000272888
-0.02875 -3.61401e-20 0.008656 0.157896 -0.0453311 0.000270001
0.02875 -3.61401e-20 0.008656 0.166481 -0.049817 0.000318442
-0.02125 -1.807e-20 0.02125 0.185822 -0.0415994 0.000298914
0.02125 5.42101e-20 0.02125 0.191878 -0.044901 0.000361422
-0.00875 -1.807e-20 0.0287506 0.197206 -0.0397746 0.000275566
0.00875 -1.807e-20 0.0287506 0.199594 -0.0410346 0.000294548
-0.03 -1.0842e-19 0.00233887 0.107074 -0.0358518 0.00011321
0.03 0 0.00233887 0.112897 -0.0374631 0.000110244
0.02 0 0.0225 0.193415 -0.0442882 0.000353639
0.0225 0 0.02 0.190226 -0.0455331 0.000366606
-0.02 0 0.0225 0.187761 -0.0412161 0.000296177
-0.0225 0 0.02 0.183751 -0.0419952 0.000300881
0.0025 0 0.0300012 0.200113 -0.0401628 0.00027551
-0.0025 0 0.0300012 0.199434 -0.0398082 0.000270264
0.0275 0 0.0124878 0.177274 -0.0490104 0.000365221
-0.0275 0 0.0124878 0.168962 -0.0445108 0.000297032
0.0125 0 0.0275 0.198658 -0.0417631 0.000309618
-0.0125 0 0.0275 0.195229 -0.0399387 0.000280262
0.02375 0 0.01875 0.188529 -0.0461693 0.000371041
0.01875 -1.807e-20 0.02375 0.194918 -0.0436817 0.000345295
-0.01875 3.61401e-20 0.02375 0.189659 -0.0408355 0.000293043
-0.02375 5.42101e-20 0.01875 0.181627 -0.0423919 0.000302539
0.03 0 0.00479858 0.145494 -0.0468613 0.000208619
-0.03 -1.0842e-19 0.00479858 0.137553 -0.043388 0.000193291
0.005 0 0.0300012 0.200457 -0.0403377 0.000278123
-0.005 0 0.0300012 0.1991 -0.0396287 0.000267695
0.025 0 0.0175 0.186671 -0.0468068 0.000374994
0.0175 0 0.025 0.196326 -0.0430884 0.000334851
-0.0175 0 0.025 0.191458 -0.0404664 0.000289005
-0.025 0 0.0175 0.179336 -0.0427937 0.000303003
0.02875 -1.807e-20 0.011217 0.174424 -0.0495025 0.000357713
-0.02875 -1.807e-20 0.011217 0.165711 -0.0448188 0.00029253
0.02625 0 0.0162494 0.184749 -0.0474421 0.000377885
-0.02625 -1.807e-20 0.0162494 0.176975 -0.0431926 0.000303
0.01625 0 0.02625 0.197707 -0.0425029 0.000324198
-0.01625 -1.807e-20 0.02625 0.193222 -0.0401001 0.000284242
0.01125 -1.807e-20 0.0287506 0.199948 -0.04121 0.000297426
-0.01125 -1.807e-20 0.0287506 0.196878 -0.0395897 0.000273017
0.030881 -5.42101e-20 0 0 0 0
-0.030881 0 0 0 0 0
0.03 0 0.00736572 0.161139 -0.0495049 0.000292067
-0.03 0 0.00736572 0.152383 -0.0450934 0.000252039
0.0075 0 0.0300012 0.200806 -0.0405122 0.00028077
-0.0075 0 0.0300012 0.198768 -0.0394481 0.000265194
0.03125 0 0.00116943 0.0817111 -0.0273249 6.36569e-05
-0.03125 0 0.00116943 0.0775959 -0.0267964 7.00675e-05
0.00125 1.807e-20 0.0312567 0.201303 -0.039657 0.000261282
-0.00125 0 0.0312567 0.200965 -0.0394822 0.000258801
0.0275 0 0.0149988 0.182595 -0.0480597 0.000376406
-0.0275 0 0.0149988 0.174382 -0.0435806 0.000300133
0.015 0 0.0275 0.199018 -0.0419382 0.000312602
-0.015 0 0.0275 0.194903 -0.03975 0.000277557
-0.03125 -1.807e-20 0.00356873 0.126694 -0.0412374 0.000152292
0.03125 0 0.00356872 0.134231 -0.0441103 0.000155378
0.00375 -1.807e-20 0.0312567 0.201644 -0.0398294 0.000263758
-0.00375 -1.807e-20 0.0312567 0.20063 -0.0393053 0.000256363
0.03 0 0.00994629 0.17085 -0.0498078 0.000340545
-0.03 0 0.00994629 0.161808 -0.0450073 0.000280853
-0.031619 0 0 0 0 0
0.031619 0 0 0 0 0
0.01 0 0.0300012 0.201157 -0.0406856 0.000283445
-0.01 0 0.0300012 0.19844 -0.0392665 0.000262781
0.0225 0 0.0225 0.193796 -0.0444688 0.000357468
-0.0225 0 0.0225 0.187435 -0.0410148 0.000292795
0.03125 1.807e-20 0.00608215 0.155027 -0.0488751 0.000260956
-0.03125 -1.807e-20 0.00608215 0.146188 -0.0446344 0.00023097
0.02875 -1.807e-20 0.0137433 0.180334 -0.048663 0.000373654
-0.02875 -3.61401e-20 0.0137433 0.171681 -0.0439586 0.000297064
0.02375 -1.807e-20 0.02125 0.192264 -0.0450839 0.000365258
-0.02125 -1.807e-20 0.02375 0.189334 -0.0406368 0.000289777
-0.02375 -1.807e-20 0.02125 0.185494 -0.0413951 0.000295525
0.02125 0 0.02375 0.195294 -0.0438607 0.00034908
-0.01375 -1.807e-20 0.0287506 0.196553 -0.0394038 0.000270436
0.01375 0 0.0287506 0.200304 -0.041383 0.000300342
0.00625 1.807e-20 0.0312567 0.20199 -0.0400019 0.000266289
-0.00625 1.807e-20 0.0312567 0.200299 -0.0391282 0.000253932
0.025 0 0.02 0.190616 -0.0457167 0.000370382