# Moment bins 
# bins        : 20
# start       : -2.311529e-01
# end         : 2.311991e-01
# delta       : 2.311760e-02
# direction   : (1.000000e+00 0.000000e+00 0.000000e+00)
# x co-ords  :	-2.080353e-01	-1.849177e-01	-1.618001e-01	-1.386825e-01	-1.155649e-01	-9.244727e-02	-6.932968e-02	-4.621208e-02	-2.309448e-02	2.311651e-05	2.314071e-02	4.625831e-02	6.937591e-02	9.249351e-02	1.156111e-01	1.387287e-01	1.618463e-01	1.849639e-01	2.080815e-01	2.311991e-01
# y co-ords  :	-0.000000e+00	-0.000000e+00	-0.000000e+00	-0.000000e+00	-0.000000e+00	-0.000000e+00	-0.000000e+00	-0.000000e+00	-0.000000e+00	0.000000e+00	0.000000e+00	0.000000e+00	0.000000e+00	0.000000e+00	0.000000e+00	0.000000e+00	0.000000e+00	0.000000e+00	0.000000e+00	0.000000e+00
# z co-ords  :	-0.000000e+00	-0.000000e+00	-0.000000e+00	-0.000000e+00	-0.000000e+00	-0.000000e+00	-0.000000e+00	-0.000000e+00	-0.000000e+00	0.000000e+00	0.000000e+00	0.000000e+00	0.000000e+00	0.000000e+00	0.000000e+00	0.000000e+00	0.000000e+00	0.000000e+00	0.000000e+00	0.000000e+00
#
# Time        	0:(total_x total_y total_z)	0:(pressure_x pressure_y pressure_z)	0:(viscous_x viscous_y viscous_z)	1:(total_x total_y total_z)	1:(pressure_x pressure_y pressure_z)	1:(viscous_x viscous_y viscous_z)	2:(total_x total_y total_z)	2:(pressure_x pressure_y pressure_z)	2:(viscous_x viscous_y viscous_z)	3:(total_x total_y total_z)	3:(pressure_x pressure_y pressure_z)	3:(viscous_x viscous_y viscous_z)	4:(total_x total_y total_z)	4:(pressure_x pressure_y pressure_z)	4:(viscous_x viscous_y viscous_z)	5:(total_x total_y total_z)	5:(pressure_x pressure_y pressure_z)	5:(viscous_x viscous_y viscous_z)	6:(total_x total_y total_z)	6:(pressure_x pressure_y pressure_z)	6:(viscous_x viscous_y viscous_z)	7:(total_x total_y total_z)	7:(pressure_x pressure_y pressure_z)	7:(viscous_x viscous_y viscous_z)	8:(total_x total_y total_z)	8:(pressure_x pressure_y pressure_z)	8:(viscous_x viscous_y viscous_z)	9:(total_x total_y total_z)	9:(pressure_x pressure_y pressure_z)	9:(viscous_x viscous_y viscous_z)	10:(total_x total_y total_z)	10:(pressure_x pressure_y pressure_z)	10:(viscous_x viscous_y viscous_z)	11:(total_x total_y total_z)	11:(pressure_x pressure_y pressure_z)	11:(viscous_x viscous_y viscous_z)	12:(total_x total_y total_z)	12:(pressure_x pressure_y pressure_z)	12:(viscous_x viscous_y viscous_z)	13:(total_x total_y total_z)	13:(pressure_x pressure_y pressure_z)	13:(viscous_x viscous_y viscous_z)	14:(total_x total_y total_z)	14:(pressure_x pressure_y pressure_z)	14:(viscous_x viscous_y viscous_z)	15:(total_x total_y total_z)	15:(pressure_x pressure_y pressure_z)	15:(viscous_x viscous_y viscous_z)	16:(total_x total_y total_z)	16:(pressure_x pressure_y pressure_z)	16:(viscous_x viscous_y viscous_z)	17:(total_x total_y total_z)	17:(pressure_x pressure_y pressure_z)	17:(viscous_x viscous_y viscous_z)	18:(total_x total_y total_z)	18:(pressure_x pressure_y pressure_z)	18:(viscous_x viscous_y viscous_z)	19:(total_x total_y total_z)	19:(pressure_x pressure_y pressure_z)	19:(viscous_x viscous_y viscous_z)
3701          	(-1.135085e+00 -8.106872e+00 1.541713e+01)	(-1.135058e+00 -8.106830e+00 1.541724e+01)	(-2.699789e-05 -4.177321e-05 -1.101508e-04)	(-2.906070e+00 -1.295121e+01 1.366111e+01)	(-2.906043e+00 -1.295117e+01 1.366121e+01)	(-2.668231e-05 -4.132496e-05 -1.061426e-04)	(-4.456551e+00 -1.721445e+01 1.196512e+01)	(-4.456525e+00 -1.721441e+01 1.196522e+01)	(-2.597237e-05 -3.950409e-05 -1.031517e-04)	(-5.793164e+00 -2.087736e+01 1.023621e+01)	(-5.793139e+00 -2.087732e+01 1.023631e+01)	(-2.518186e-05 -3.737837e-05 -1.005666e-04)	(-6.915980e+00 -2.397527e+01 8.548598e+00)	(-6.915956e+00 -2.397523e+01 8.548696e+00)	(-2.438523e-05 -3.519420e-05 -9.819549e-05)	(-7.837983e+00 -2.649987e+01 6.821867e+00)	(-7.837959e+00 -2.649984e+01 6.821963e+00)	(-2.359740e-05 -3.300194e-05 -9.592982e-05)	(-8.556925e+00 -2.846900e+01 5.102393e+00)	(-8.556902e+00 -2.846897e+01 5.102487e+00)	(-2.281707e-05 -3.080297e-05 -9.370697e-05)	(-9.068197e+00 -2.987681e+01 3.392559e+00)	(-9.068175e+00 -2.987679e+01 3.392650e+00)	(-2.202843e-05 -2.857055e-05 -9.145953e-05)	(-9.383586e+00 -3.072199e+01 1.672870e+00)	(-9.383565e+00 -3.072196e+01 1.672959e+00)	(-2.122147e-05 -2.627576e-05 -8.916969e-05)	(-9.478498e+00 -3.100656e+01 -3.472758e-02)	(-9.478478e+00 -3.100653e+01 -3.464078e-02)	(-2.037675e-05 -2.387203e-05 -8.680049e-05)	(-9.385312e+00 -3.072306e+01 -1.740622e+00)	(-9.385292e+00 -3.072304e+01 -1.740538e+00)	(-1.949591e-05 -2.134668e-05 -8.434829e-05)	(-9.070172e+00 -2.987965e+01 -3.461750e+00)	(-9.070153e+00 -2.987963e+01 -3.461669e+00)	(-1.855888e-05 -1.867072e-05 -8.174014e-05)	(-8.562429e+00 -2.846892e+01 -5.160545e+00)	(-8.562412e+00 -2.846891e+01 -5.160466e+00)	(-1.756378e-05 -1.585707e-05 -7.893825e-05)	(-7.841327e+00 -2.650031e+01 -6.886900e+00)	(-7.841310e+00 -2.650029e+01 -6.886824e+00)	(-1.648852e-05 -1.282033e-05 -7.591441e-05)	(-6.922876e+00 -2.396808e+01 -8.587254e+00)	(-6.922860e+00 -2.396807e+01 -8.587181e+00)	(-1.532226e-05 -9.460411e-06 -7.254288e-05)	(-5.798985e+00 -2.088717e+01 -1.031250e+01)	(-5.798971e+00 -2.088716e+01 -1.031243e+01)	(-1.406373e-05 -5.869037e-06 -6.863226e-05)	(-4.458838e+00 -1.721627e+01 -1.204929e+01)	(-4.458825e+00 -1.721627e+01 -1.204922e+01)	(-1.269353e-05 -2.128684e-06 -6.409084e-05)	(-2.918039e+00 -1.297005e+01 -1.372486e+01)	(-2.918028e+00 -1.297005e+01 -1.372480e+01)	(-1.109891e-05 2.201474e-06 -5.863258e-05)	(-1.149760e+00 -8.125180e+00 -1.548352e+01)	(-1.149751e+00 -8.125188e+00 -1.548347e+01)	(-9.137515e-06 7.809751e-06 -5.096499e-05)	(-8.151410e-03 7.185223e-03 -1.839735e-02)	(-8.144501e-03 7.171701e-03 -1.834785e-02)	(-6.909121e-06 1.352192e-05 -4.949805e-05)
3702          	(-1.135085e+00 -8.106872e+00 1.541713e+01)	(-1.135058e+00 -8.106830e+00 1.541724e+01)	(-2.699695e-05 -4.177556e-05 -1.101327e-04)	(-2.906070e+00 -1.295121e+01 1.366111e+01)	(-2.906044e+00 -1.295117e+01 1.366121e+01)	(-2.668192e-05 -4.132841e-05 -1.061255e-04)	(-4.456551e+00 -1.721445e+01 1.196512e+01)	(-4.456525e+00 -1.721441e+01 1.196522e+01)	(-2.597231e-05 -3.950855e-05 -1.031356e-04)	(-5.793165e+00 -2.087736e+01 1.023621e+01)	(-5.793140e+00 -2.087732e+01 1.023631e+01)	(-2.518220e-05 -3.738413e-05 -1.005507e-04)	(-6.915981e+00 -2.397527e+01 8.548590e+00)	(-6.915957e+00 -2.397523e+01 8.548689e+00)	(-2.438620e-05 -3.520153e-05 -9.817954e-05)	(-7.837984e+00 -2.649987e+01 6.821858e+00)	(-7.837960e+00 -2.649984e+01 6.821954e+00)	(-2.359919e-05 -3.301119e-05 -9.591321e-05)	(-8.556926e+00 -2.846900e+01 5.102383e+00)	(-8.556904e+00 -2.846897e+01 5.102477e+00)	(-2.281923e-05 -3.081362e-05 -9.368908e-05)	(-9.068199e+00 -2.987681e+01 3.392548e+00)	(-9.068177e+00 -2.987678e+01 3.392639e+00)	(-2.203096e-05 -2.858236e-05 -9.144091e-05)	(-9.383588e+00 -3.072199e+01 1.672859e+00)	(-9.383566e+00 -3.072196e+01 1.672949e+00)	(-2.122458e-05 -2.628934e-05 -8.914989e-05)	(-9.478500e+00 -3.100656e+01 -3.473843e-02)	(-9.478480e+00 -3.100653e+01 -3.465165e-02)	(-2.038024e-05 -2.388714e-05 -8.677979e-05)	(-9.385314e+00 -3.072306e+01 -1.740633e+00)	(-9.385295e+00 -3.072304e+01 -1.740548e+00)	(-1.949953e-05 -2.136279e-05 -8.432765e-05)	(-9.070174e+00 -2.987965e+01 -3.461761e+00)	(-9.070156e+00 -2.987963e+01 -3.461679e+00)	(-1.856237e-05 -1.868706e-05 -8.172089e-05)	(-8.562432e+00 -2.846892e+01 -5.160554e+00)	(-8.562415e+00 -2.846891e+01 -5.160475e+00)	(-1.756671e-05 -1.587150e-05 -7.892210e-05)	(-7.841330e+00 -2.650031e+01 -6.886908e+00)	(-7.841314e+00 -2.650029e+01 -6.886832e+00)	(-1.649058e-05 -1.282877e-05 -7.590178e-05)	(-6.922879e+00 -2.396808e+01 -8.587260e+00)	(-6.922864e+00 -2.396807e+01 -8.587188e+00)	(-1.532447e-05 -9.465554e-06 -7.252884e-05)	(-5.798989e+00 -2.088717e+01 -1.031250e+01)	(-5.798975e+00 -2.088716e+01 -1.031244e+01)	(-1.406941e-05 -5.887662e-06 -6.861368e-05)	(-4.458842e+00 -1.721627e+01 -1.204929e+01)	(-4.458830e+00 -1.721627e+01 -1.204923e+01)	(-1.270054e-05 -2.158742e-06 -6.408001e-05)	(-2.918044e+00 -1.297005e+01 -1.372486e+01)	(-2.918033e+00 -1.297005e+01 -1.372480e+01)	(-1.110588e-05 2.173047e-06 -5.862233e-05)	(-1.149765e+00 -8.125180e+00 -1.548352e+01)	(-1.149756e+00 -8.125188e+00 -1.548346e+01)	(-9.144329e-06 7.784438e-06 -5.095467e-05)	(-8.157348e-03 7.185497e-03 -1.838833e-02)	(-8.150441e-03 7.171936e-03 -1.833895e-02)	(-6.907167e-06 1.356090e-05 -4.938104e-05)
3703          	(-1.135085e+00 -8.106872e+00 1.541713e+01)	(-1.135058e+00 -8.106830e+00 1.541724e+01)	(-2.699627e-05 -4.177795e-05 -1.101167e-04)	(-2.906070e+00 -1.295121e+01 1.366110e+01)	(-2.906044e+00 -1.295117e+01 1.366121e+01)	(-2.668183e-05 -4.133206e-05 -1.061104e-04)	(-4.456552e+00 -1.721445e+01 1.196511e+01)	(-4.456526e+00 -1.721441e+01 1.196521e+01)	(-2.597258e-05 -3.951330e-05 -1.031215e-04)	(-5.793166e+00 -2.087736e+01 1.023620e+01)	(-5.793141e+00 -2.087732e+01 1.023630e+01)	(-2.518288e-05 -3.739021e-05 -1.005366e-04)	(-6.915982e+00 -2.397527e+01 8.548583e+00)	(-6.915958e+00 -2.397523e+01 8.548681e+00)	(-2.438748e-05 -3.520913e-05 -9.816540e-05)	(-7.837985e+00 -2.649987e+01 6.821849e+00)	(-7.837962e+00 -2.649984e+01 6.821945e+00)	(-2.360128e-05 -3.302073e-05 -9.589837e-05)	(-8.556928e+00 -2.846900e+01 5.102373e+00)	(-8.556905e+00 -2.846897e+01 5.102467e+00)	(-2.282175e-05 -3.082466e-05 -9.367280e-05)	(-9.068201e+00 -2.987681e+01 3.392537e+00)	(-9.068179e+00 -2.987678e+01 3.392629e+00)	(-2.203384e-05 -2.859455e-05 -9.142388e-05)	(-9.383590e+00 -3.072199e+01 1.672848e+00)	(-9.383568e+00 -3.072196e+01 1.672937e+00)	(-2.122806e-05 -2.630328e-05 -8.913164e-05)	(-9.478502e+00 -3.100656e+01 -3.474962e-02)	(-9.478482e+00 -3.100653e+01 -3.466286e-02)	(-2.038414e-05 -2.390269e-05 -8.676047e-05)	(-9.385317e+00 -3.072306e+01 -1.740644e+00)	(-9.385297e+00 -3.072304e+01 -1.740559e+00)	(-1.950357e-05 -2.137938e-05 -8.430828e-05)	(-9.070177e+00 -2.987965e+01 -3.461771e+00)	(-9.070158e+00 -2.987963e+01 -3.461689e+00)	(-1.856629e-05 -1.870384e-05 -8.170285e-05)	(-8.562435e+00 -2.846892e+01 -5.160563e+00)	(-8.562418e+00 -2.846890e+01 -5.160484e+00)	(-1.757004e-05 -1.588613e-05 -7.890716e-05)	(-7.841334e+00 -2.650030e+01 -6.886916e+00)	(-7.841317e+00 -2.650029e+01 -6.886840e+00)	(-1.649302e-05 -1.283706e-05 -7.589023e-05)	(-6.922883e+00 -2.396808e+01 -8.587266e+00)	(-6.922868e+00 -2.396807e+01 -8.587194e+00)	(-1.532713e-05 -9.470646e-06 -7.251543e-05)	(-5.798993e+00 -2.088717e+01 -1.031251e+01)	(-5.798979e+00 -2.088716e+01 -1.031244e+01)	(-1.407550e-05 -5.906474e-06 -6.859623e-05)	(-4.458847e+00 -1.721627e+01 -1.204929e+01)	(-4.458835e+00 -1.721627e+01 -1.204923e+01)	(-1.270759e-05 -2.187578e-06 -6.407069e-05)	(-2.918050e+00 -1.297005e+01 -1.372486e+01)	(-2.918039e+00 -1.297005e+01 -1.372480e+01)	(-1.111278e-05 2.146260e-06 -5.861337e-05)	(-1.149771e+00 -8.125179e+00 -1.548351e+01)	(-1.149762e+00 -8.125187e+00 -1.548346e+01)	(-9.150779e-06 7.761614e-06 -5.094573e-05)	(-8.163560e-03 7.186438e-03 -1.837816e-02)	(-8.156656e-03 7.172835e-03 -1.832889e-02)	(-6.904504e-06 1.360292e-05 -4.926754e-05)
3704          	(-1.135085e+00 -8.106871e+00 1.541713e+01)	(-1.135058e+00 -8.106829e+00 1.541724e+01)	(-2.699610e-05 -4.178046e-05 -1.101054e-04)	(-2.906071e+00 -1.295121e+01 1.366110e+01)	(-2.906044e+00 -1.295117e+01 1.366120e+01)	(-2.668236e-05 -4.133607e-05 -1.061004e-04)	(-4.456552e+00 -1.721445e+01 1.196510e+01)	(-4.456526e+00 -1.721441e+01 1.196520e+01)	(-2.597357e-05 -3.951856e-05 -1.031128e-04)	(-5.793167e+00 -2.087736e+01 1.023618e+01)	(-5.793142e+00 -2.087732e+01 1.023629e+01)	(-2.518436e-05 -3.739692e-05 -1.005286e-04)	(-6.915984e+00 -2.397527e+01 8.548562e+00)	(-6.915960e+00 -2.397523e+01 8.548660e+00)	(-2.438957e-05 -3.521740e-05 -9.815752e-05)	(-7.837988e+00 -2.649987e+01 6.821824e+00)	(-7.837964e+00 -2.649984e+01 6.821920e+00)	(-2.360421e-05 -3.303087e-05 -9.589025e-05)	(-8.556931e+00 -2.846900e+01 5.102346e+00)	(-8.556909e+00 -2.846897e+01 5.102439e+00)	(-2.282519e-05 -3.083639e-05 -9.366371e-05)	(-9.068205e+00 -2.987681e+01 3.392507e+00)	(-9.068183e+00 -2.987678e+01 3.392599e+00)	(-2.203767e-05 -2.860747e-05 -9.141436e-05)	(-9.383595e+00 -3.072198e+01 1.672817e+00)	(-9.383574e+00 -3.072196e+01 1.672906e+00)	(-2.123251e-05 -2.631801e-05 -8.912118e-05)	(-9.478509e+00 -3.100655e+01 -3.478123e-02)	(-9.478488e+00 -3.100653e+01 -3.469448e-02)	(-2.038908e-05 -2.391926e-05 -8.674914e-05)	(-9.385324e+00 -3.072305e+01 -1.740674e+00)	(-9.385305e+00 -3.072303e+01 -1.740590e+00)	(-1.950869e-05 -2.139715e-05 -8.429703e-05)	(-9.070186e+00 -2.987964e+01 -3.461799e+00)	(-9.070167e+00 -2.987962e+01 -3.461718e+00)	(-1.857133e-05 -1.872194e-05 -8.169297e-05)	(-8.562445e+00 -2.846891e+01 -5.160588e+00)	(-8.562428e+00 -2.846890e+01 -5.160509e+00)	(-1.757457e-05 -1.590216e-05 -7.890048e-05)	(-7.841345e+00 -2.650030e+01 -6.886936e+00)	(-7.841329e+00 -2.650029e+01 -6.886860e+00)	(-1.649672e-05 -1.284672e-05 -7.588682e-05)	(-6.922896e+00 -2.396808e+01 -8.587279e+00)	(-6.922881e+00 -2.396807e+01 -8.587207e+00)	(-1.533121e-05 -9.477580e-06 -7.250959e-05)	(-5.799008e+00 -2.088716e+01 -1.031251e+01)	(-5.798994e+00 -2.088716e+01 -1.031244e+01)	(-1.408302e-05 -5.927618e-06 -6.858653e-05)	(-4.458863e+00 -1.721626e+01 -1.204929e+01)	(-4.458851e+00 -1.721626e+01 -1.204922e+01)	(-1.271573e-05 -2.217498e-06 -6.406893e-05)	(-2.918067e+00 -1.297004e+01 -1.372485e+01)	(-2.918056e+00 -1.297004e+01 -1.372479e+01)	(-1.112061e-05 2.118762e-06 -5.861129e-05)	(-1.149790e+00 -8.125175e+00 -1.548349e+01)	(-1.149781e+00 -8.125182e+00 -1.548344e+01)	(-9.157744e-06 7.739236e-06 -5.094245e-05)	(-8.182776e-03 7.190213e-03 -1.835351e-02)	(-8.175874e-03 7.176566e-03 -1.830436e-02)	(-6.902640e-06 1.364714e-05 -4.915086e-05)
3705          	(-1.135085e+00 -8.106871e+00 1.541713e+01)	(-1.135058e+00 -8.106829e+00 1.541724e+01)	(-2.699606e-05 -4.178283e-05 -1.100956e-04)	(-2.906071e+00 -1.295121e+01 1.366109e+01)	(-2.906044e+00 -1.295117e+01 1.366120e+01)	(-2.668308e-05 -4.134005e-05 -1.060918e-04)	(-4.456553e+00 -1.721445e+01 1.196509e+01)	(-4.456527e+00 -1.721441e+01 1.196520e+01)	(-2.597477e-05 -3.952382e-05 -1.031055e-04)	(-5.793168e+00 -2.087736e+01 1.023618e+01)	(-5.793143e+00 -2.087732e+01 1.023628e+01)	(-2.518608e-05 -3.740362e-05 -1.005219e-04)	(-6.915985e+00 -2.397526e+01 8.548554e+00)	(-6.915960e+00 -2.397523e+01 8.548652e+00)	(-2.439185e-05 -3.522556e-05 -9.815087e-05)	(-7.837989e+00 -2.649987e+01 6.821815e+00)	(-7.837965e+00 -2.649983e+01 6.821911e+00)	(-2.360727e-05 -3.304077e-05 -9.588335e-05)	(-8.556933e+00 -2.846900e+01 5.102336e+00)	(-8.556910e+00 -2.846897e+01 5.102429e+00)	(-2.282874e-05 -3.084776e-05 -9.365577e-05)	(-9.068207e+00 -2.987681e+01 3.392497e+00)	(-9.068185e+00 -2.987678e+01 3.392588e+00)	(-2.204156e-05 -2.861997e-05 -9.140583e-05)	(-9.383597e+00 -3.072198e+01 1.672806e+00)	(-9.383576e+00 -3.072195e+01 1.672895e+00)	(-2.123696e-05 -2.633217e-05 -8.911162e-05)	(-9.478511e+00 -3.100655e+01 -3.479226e-02)	(-9.478490e+00 -3.100652e+01 -3.470552e-02)	(-2.039399e-05 -2.393524e-05 -8.673851e-05)	(-9.385327e+00 -3.072305e+01 -1.740685e+00)	(-9.385307e+00 -3.072303e+01 -1.740601e+00)	(-1.951376e-05 -2.141430e-05 -8.428639e-05)	(-9.070188e+00 -2.987964e+01 -3.461810e+00)	(-9.070170e+00 -2.987962e+01 -3.461728e+00)	(-1.857627e-05 -1.873935e-05 -8.168369e-05)	(-8.562448e+00 -2.846891e+01 -5.160598e+00)	(-8.562430e+00 -2.846890e+01 -5.160519e+00)	(-1.757893e-05 -1.591728e-05 -7.889445e-05)	(-7.841348e+00 -2.650030e+01 -6.886944e+00)	(-7.841332e+00 -2.650028e+01 -6.886868e+00)	(-1.650027e-05 -1.285527e-05 -7.588394e-05)	(-6.922900e+00 -2.396807e+01 -8.587286e+00)	(-6.922884e+00 -2.396806e+01 -8.587213e+00)	(-1.533526e-05 -9.483803e-06 -7.250392e-05)	(-5.799012e+00 -2.088716e+01 -1.031252e+01)	(-5.798998e+00 -2.088715e+01 -1.031245e+01)	(-1.409051e-05 -5.948487e-06 -6.857773e-05)	(-4.458868e+00 -1.721626e+01 -1.204929e+01)	(-4.458855e+00 -1.721626e+01 -1.204923e+01)	(-1.272359e-05 -2.246047e-06 -6.406830e-05)	(-2.918072e+00 -1.297004e+01 -1.372484e+01)	(-2.918061e+00 -1.297004e+01 -1.372479e+01)	(-1.112822e-05 2.092602e-06 -5.861031e-05)	(-1.149795e+00 -8.125173e+00 -1.548348e+01)	(-1.149786e+00 -8.125181e+00 -1.548343e+01)	(-9.164364e-06 7.718536e-06 -5.094080e-05)	(-8.188338e-03 7.191931e-03 -1.834444e-02)	(-8.181438e-03 7.178238e-03 -1.829540e-02)	(-6.899825e-06 1.369283e-05 -4.904309e-05)
3706          	(-1.135084e+00 -8.106855e+00 1.541709e+01)	(-1.135057e+00 -8.106814e+00 1.541720e+01)	(-2.699769e-05 -4.178529e-05 -1.101028e-04)	(-2.906068e+00 -1.295118e+01 1.366105e+01)	(-2.906042e+00 -1.295114e+01 1.366115e+01)	(-2.668545e-05 -4.134391e-05 -1.061013e-04)	(-4.456549e+00 -1.721442e+01 1.196504e+01)	(-4.456523e+00 -1.721438e+01 1.196514e+01)	(-2.597772e-05 -3.952875e-05 -1.031175e-04)	(-5.793164e+00 -2.087732e+01 1.023611e+01)	(-5.793138e+00 -2.087728e+01 1.023621e+01)	(-2.518927e-05 -3.740903e-05 -1.005358e-04)	(-6.915981e+00 -2.397522e+01 8.548476e+00)	(-6.915956e+00 -2.397518e+01 8.548574e+00)	(-2.439525e-05 -3.523150e-05 -9.816546e-05)	(-7.837986e+00 -2.649982e+01 6.821730e+00)	(-7.837962e+00 -2.649979e+01 6.821826e+00)	(-2.361112e-05 -3.304747e-05 -9.589840e-05)	(-8.556930e+00 -2.846894e+01 5.102244e+00)	(-8.556908e+00 -2.846891e+01 5.102338e+00)	(-2.283256e-05 -3.085447e-05 -9.367063e-05)	(-9.068206e+00 -2.987675e+01 3.392402e+00)	(-9.068184e+00 -2.987672e+01 3.392493e+00)	(-2.204529e-05 -2.862674e-05 -9.142033e-05)	(-9.383598e+00 -3.072192e+01 1.672710e+00)	(-9.383576e+00 -3.072190e+01 1.672799e+00)	(-2.124079e-05 -2.633948e-05 -8.912534e-05)	(-9.478514e+00 -3.100649e+01 -3.488679e-02)	(-9.478493e+00 -3.100647e+01 -3.480004e-02)	(-2.039773e-05 -2.394297e-05 -8.675128e-05)	(-9.385332e+00 -3.072299e+01 -1.740776e+00)	(-9.385312e+00 -3.072297e+01 -1.740692e+00)	(-1.951722e-05 -2.142220e-05 -8.429920e-05)	(-9.070196e+00 -2.987958e+01 -3.461894e+00)	(-9.070178e+00 -2.987956e+01 -3.461813e+00)	(-1.857913e-05 -1.874643e-05 -8.169793e-05)	(-8.562459e+00 -2.846885e+01 -5.160674e+00)	(-8.562441e+00 -2.846884e+01 -5.160595e+00)	(-1.758051e-05 -1.592034e-05 -7.891192e-05)	(-7.841362e+00 -2.650024e+01 -6.887011e+00)	(-7.841345e+00 -2.650023e+01 -6.886935e+00)	(-1.650053e-05 -1.285032e-05 -7.590440e-05)	(-6.922917e+00 -2.396802e+01 -8.587340e+00)	(-6.922901e+00 -2.396801e+01 -8.587268e+00)	(-1.533562e-05 -9.475769e-06 -7.252099e-05)	(-5.799032e+00 -2.088711e+01 -1.031256e+01)	(-5.799018e+00 -2.088710e+01 -1.031249e+01)	(-1.409364e-05 -5.953923e-06 -6.859178e-05)	(-4.458891e+00 -1.721622e+01 -1.204932e+01)	(-4.458878e+00 -1.721621e+01 -1.204925e+01)	(-1.272630e-05 -2.256763e-06 -6.409011e-05)	(-2.918099e+00 -1.297000e+01 -1.372486e+01)	(-2.918088e+00 -1.297000e+01 -1.372480e+01)	(-1.112990e-05 2.086133e-06 -5.863102e-05)	(-1.149825e+00 -8.125136e+00 -1.548348e+01)	(-1.149816e+00 -8.125143e+00 -1.548343e+01)	(-9.163909e-06 7.720534e-06 -5.095925e-05)	(-8.219321e-03 7.222666e-03 -1.835569e-02)	(-8.212431e-03 7.208902e-03 -1.830674e-02)	(-6.890023e-06 1.376434e-05 -4.894331e-05)
3707          	(-1.135084e+00 -8.106855e+00 1.541709e+01)	(-1.135057e+00 -8.106814e+00 1.541720e+01)	(-2.699968e-05 -4.178799e-05 -1.101106e-04)	(-2.906069e+00 -1.295118e+01 1.366104e+01)	(-2.906042e+00 -1.295114e+01 1.366115e+01)	(-2.668831e-05 -4.134816e-05 -1.061118e-04)	(-4.456550e+00 -1.721442e+01 1.196503e+01)	(-4.456524e+00 -1.721438e+01 1.196513e+01)	(-2.598122e-05 -3.953413e-05 -1.031307e-04)	(-5.793164e+00 -2.087732e+01 1.023610e+01)	(-5.793139e+00 -2.087728e+01 1.023620e+01)	(-2.519331e-05 -3.741540e-05 -1.005511e-04)	(-6.915982e+00 -2.397522e+01 8.548469e+00)	(-6.915957e+00 -2.397518e+01 8.548567e+00)	(-2.439966e-05 -3.523862e-05 -9.818167e-05)	(-7.837987e+00 -2.649982e+01 6.821721e+00)	(-7.837963e+00 -2.649978e+01 6.821817e+00)	(-2.361599e-05 -3.305532e-05 -9.591536e-05)	(-8.556932e+00 -2.846894e+01 5.102235e+00)	(-8.556909e+00 -2.846891e+01 5.102329e+00)	(-2.283767e-05 -3.086271e-05 -9.368767e-05)	(-9.068207e+00 -2.987675e+01 3.392392e+00)	(-9.068185e+00 -2.987672e+01 3.392484e+00)	(-2.205045e-05 -2.863525e-05 -9.143714e-05)	(-9.383599e+00 -3.072192e+01 1.672701e+00)	(-9.383578e+00 -3.072190e+01 1.672790e+00)	(-2.124615e-05 -2.634860e-05 -8.914157e-05)	(-9.478515e+00 -3.100649e+01 -3.489631e-02)	(-9.478495e+00 -3.100646e+01 -3.480954e-02)	(-2.040318e-05 -2.395284e-05 -8.676668e-05)	(-9.385334e+00 -3.072299e+01 -1.740785e+00)	(-9.385314e+00 -3.072297e+01 -1.740701e+00)	(-1.952244e-05 -2.143228e-05 -8.431470e-05)	(-9.070198e+00 -2.987958e+01 -3.461903e+00)	(-9.070180e+00 -2.987956e+01 -3.461822e+00)	(-1.858383e-05 -1.875579e-05 -8.171488e-05)	(-8.562461e+00 -2.846885e+01 -5.160683e+00)	(-8.562443e+00 -2.846884e+01 -5.160604e+00)	(-1.758422e-05 -1.592608e-05 -7.893232e-05)	(-7.841364e+00 -2.650024e+01 -6.887018e+00)	(-7.841348e+00 -2.650023e+01 -6.886942e+00)	(-1.650310e-05 -1.284828e-05 -7.592763e-05)	(-6.922920e+00 -2.396802e+01 -8.587346e+00)	(-6.922904e+00 -2.396801e+01 -8.587274e+00)	(-1.533865e-05 -9.471454e-06 -7.254041e-05)	(-5.799035e+00 -2.088711e+01 -1.031256e+01)	(-5.799021e+00 -2.088710e+01 -1.031250e+01)	(-1.409971e-05 -5.964003e-06 -6.860898e-05)	(-4.458895e+00 -1.721622e+01 -1.204932e+01)	(-4.458882e+00 -1.721621e+01 -1.204926e+01)	(-1.273194e-05 -2.271548e-06 -6.411505e-05)	(-2.918103e+00 -1.297000e+01 -1.372486e+01)	(-2.918092e+00 -1.297000e+01 -1.372480e+01)	(-1.113491e-05 2.074866e-06 -5.865462e-05)	(-1.149829e+00 -8.125136e+00 -1.548348e+01)	(-1.149820e+00 -8.125143e+00 -1.548343e+01)	(-9.167118e-06 7.717155e-06 -5.098099e-05)	(-8.224035e-03 7.223324e-03 -1.834719e-02)	(-8.217152e-03 7.209495e-03 -1.829833e-02)	(-6.883080e-06 1.382916e-05 -4.885967e-05)
3708          	(-1.135084e+00 -8.106855e+00 1.541709e+01)	(-1.135057e+00 -8.106814e+00 1.541720e+01)	(-2.700070e-05 -4.179020e-05 -1.101118e-04)	(-2.906069e+00 -1.295118e+01 1.366104e+01)	(-2.906042e+00 -1.295114e+01 1.366114e+01)	(-2.669016e-05 -4.135210e-05 -1.061147e-04)	(-4.456550e+00 -1.721442e+01 1.196503e+01)	(-4.456524e+00 -1.721438e+01 1.196513e+01)	(-2.598364e-05 -3.953939e-05 -1.031351e-04)	(-5.793165e+00 -2.087732e+01 1.023610e+01)	(-5.793140e+00 -2.087728e+01 1.023620e+01)	(-2.519639e-05 -3.742217e-05 -1.005564e-04)	(-6.915983e+00 -2.397522e+01 8.548461e+00)	(-6.915958e+00 -2.397518e+01 8.548559e+00)	(-2.440319e-05 -3.524642e-05 -9.818755e-05)	(-7.837988e+00 -2.649982e+01 6.821713e+00)	(-7.837964e+00 -2.649978e+01 6.821809e+00)	(-2.361995e-05 -3.306389e-05 -9.592154e-05)	(-8.556933e+00 -2.846894e+01 5.102227e+00)	(-8.556910e+00 -2.846891e+01 5.102320e+00)	(-2.284198e-05 -3.087207e-05 -9.369342e-05)	(-9.068208e+00 -2.987675e+01 3.392383e+00)	(-9.068186e+00 -2.987672e+01 3.392475e+00)	(-2.205493e-05 -2.864518e-05 -9.144242e-05)	(-9.383601e+00 -3.072192e+01 1.672691e+00)	(-9.383579e+00 -3.072189e+01 1.672780e+00)	(-2.125086e-05 -2.635932e-05 -8.914612e-05)	(-9.478517e+00 -3.100649e+01 -3.490566e-02)	(-9.478497e+00 -3.100646e+01 -3.481889e-02)	(-2.040810e-05 -2.396471e-05 -8.677031e-05)	(-9.385335e+00 -3.072299e+01 -1.740794e+00)	(-9.385316e+00 -3.072297e+01 -1.740710e+00)	(-1.952718e-05 -2.144454e-05 -8.431840e-05)	(-9.070200e+00 -2.987958e+01 -3.461912e+00)	(-9.070182e+00 -2.987956e+01 -3.461831e+00)	(-1.858808e-05 -1.876745e-05 -8.171997e-05)	(-8.562463e+00 -2.846885e+01 -5.160691e+00)	(-8.562446e+00 -2.846884e+01 -5.160612e+00)	(-1.758764e-05 -1.593447e-05 -7.894094e-05)	(-7.841367e+00 -2.650024e+01 -6.887025e+00)	(-7.841350e+00 -2.650023e+01 -6.886949e+00)	(-1.650558e-05 -1.284919e-05 -7.593890e-05)	(-6.922922e+00 -2.396802e+01 -8.587351e+00)	(-6.922907e+00 -2.396801e+01 -8.587279e+00)	(-1.534182e-05 -9.470831e-06 -7.254745e-05)	(-5.799039e+00 -2.088711e+01 -1.031257e+01)	(-5.799025e+00 -2.088710e+01 -1.031250e+01)	(-1.410602e-05 -5.978413e-06 -6.861480e-05)	(-4.458898e+00 -1.721622e+01 -1.204932e+01)	(-4.458886e+00 -1.721621e+01 -1.204926e+01)	(-1.273770e-05 -2.289935e-06 -6.412865e-05)	(-2.918107e+00 -1.297000e+01 -1.372486e+01)	(-2.918096e+00 -1.297000e+01 -1.372480e+01)	(-1.114013e-05 2.059727e-06 -5.866685e-05)	(-1.149834e+00 -8.125135e+00 -1.548347e+01)	(-1.149825e+00 -8.125143e+00 -1.548342e+01)	(-9.170568e-06 7.709884e-06 -5.099188e-05)	(-8.229030e-03 7.223909e-03 -1.833756e-02)	(-8.222154e-03 7.210020e-03 -1.828878e-02)	(-6.875850e-06 1.388890e-05 -4.877565e-05)
3709          	(-1.135084e+00 -8.106855e+00 1.541709e+01)	(-1.135057e+00 -8.106814e+00 1.541720e+01)	(-2.700200e-05 -4.179258e-05 -1.101151e-04)	(-2.906069e+00 -1.295118e+01 1.366103e+01)	(-2.906043e+00 -1.295114e+01 1.366114e+01)	(-2.669229e-05 -4.135644e-05 -1.061190e-04)	(-4.456551e+00 -1.721442e+01 1.196502e+01)	(-4.456525e+00 -1.721438e+01 1.196512e+01)	(-2.598632e-05 -3.954516e-05 -1.031401e-04)	(-5.793166e+00 -2.087732e+01 1.023609e+01)	(-5.793141e+00 -2.087728e+01 1.023619e+01)	(-2.519981e-05 -3.742975e-05 -1.005619e-04)	(-6.915984e+00 -2.397522e+01 8.548454e+00)	(-6.915959e+00 -2.397518e+01 8.548552e+00)	(-2.440715e-05 -3.525525e-05 -9.819341e-05)	(-7.837989e+00 -2.649982e+01 6.821705e+00)	(-7.837965e+00 -2.649978e+01 6.821801e+00)	(-2.362433e-05 -3.307356e-05 -9.592753e-05)	(-8.556934e+00 -2.846894e+01 5.102218e+00)	(-8.556911e+00 -2.846891e+01 5.102312e+00)	(-2.284679e-05 -3.088272e-05 -9.369891e-05)	(-9.068210e+00 -2.987675e+01 3.392374e+00)	(-9.068188e+00 -2.987672e+01 3.392466e+00)	(-2.206000e-05 -2.865664e-05 -9.144734e-05)	(-9.383602e+00 -3.072192e+01 1.672682e+00)	(-9.383581e+00 -3.072189e+01 1.672771e+00)	(-2.125621e-05 -2.637168e-05 -8.915029e-05)	(-9.478519e+00 -3.100649e+01 -3.491511e-02)	(-9.478498e+00 -3.100646e+01 -3.482834e-02)	(-2.041371e-05 -2.397838e-05 -8.677356e-05)	(-9.385337e+00 -3.072299e+01 -1.740804e+00)	(-9.385318e+00 -3.072296e+01 -1.740719e+00)	(-1.953265e-05 -2.145873e-05 -8.432171e-05)	(-9.070202e+00 -2.987958e+01 -3.461921e+00)	(-9.070184e+00 -2.987956e+01 -3.461839e+00)	(-1.859311e-05 -1.878115e-05 -8.172467e-05)	(-8.562466e+00 -2.846885e+01 -5.160699e+00)	(-8.562448e+00 -2.846884e+01 -5.160620e+00)	(-1.759190e-05 -1.594504e-05 -7.894926e-05)	(-7.841370e+00 -2.650024e+01 -6.887031e+00)	(-7.841353e+00 -2.650022e+01 -6.886955e+00)	(-1.650901e-05 -1.285246e-05 -7.594966e-05)	(-6.922926e+00 -2.396802e+01 -8.587356e+00)	(-6.922910e+00 -2.396801e+01 -8.587283e+00)	(-1.534614e-05 -9.473295e-06 -7.255365e-05)	(-5.799042e+00 -2.088711e+01 -1.031257e+01)	(-5.799028e+00 -2.088710e+01 -1.031250e+01)	(-1.411342e-05 -5.996156e-06 -6.862061e-05)	(-4.458903e+00 -1.721621e+01 -1.204932e+01)	(-4.458890e+00 -1.721621e+01 -1.204926e+01)	(-1.274441e-05 -2.310826e-06 -6.414220e-05)	(-2.918112e+00 -1.297000e+01 -1.372485e+01)	(-2.918101e+00 -1.297000e+01 -1.372479e+01)	(-1.114635e-05 2.041906e-06 -5.867906e-05)	(-1.149840e+00 -8.125135e+00 -1.548346e+01)	(-1.149830e+00 -8.125143e+00 -1.548341e+01)	(-9.174889e-06 7.700235e-06 -5.100311e-05)	(-8.234493e-03 7.224592e-03 -1.832666e-02)	(-8.227624e-03 7.210646e-03 -1.827796e-02)	(-6.869064e-06 1.394559e-05 -4.869872e-05)
3710          	(-1.135084e+00 -8.106855e+00 1.541709e+01)	(-1.135057e+00 -8.106814e+00 1.541720e+01)	(-2.700346e-05 -4.179518e-05 -1.101188e-04)	(-2.906070e+00 -1.295118e+01 1.366103e+01)	(-2.906043e+00 -1.295114e+01 1.366114e+01)	(-2.669459e-05 -4.136115e-05 -1.061232e-04)	(-4.456552e+00 -1.721442e+01 1.196502e+01)	(-4.456526e+00 -1.721438e+01 1.196512e+01)	(-2.598918e-05 -3.955142e-05 -1.031447e-04)	(-5.793167e+00 -2.087732e+01 1.023608e+01)	(-5.793142e+00 -2.087728e+01 1.023618e+01)	(-2.520343e-05 -3.743796e-05 -1.005668e-04)	(-6.915985e+00 -2.397522e+01 8.548446e+00)	(-6.915960e+00 -2.397518e+01 8.548544e+00)	(-2.441134e-05 -3.526486e-05 -9.819859e-05)	(-7.837990e+00 -2.649982e+01 6.821696e+00)	(-7.837966e+00 -2.649978e+01 6.821792e+00)	(-2.362897e-05 -3.308408e-05 -9.593280e-05)	(-8.556935e+00 -2.846894e+01 5.102209e+00)	(-8.556912e+00 -2.846891e+01 5.102302e+00)	(-2.285190e-05 -3.089429e-05 -9.370382e-05)	(-9.068211e+00 -2.987675e+01 3.392364e+00)	(-9.068189e+00 -2.987672e+01 3.392456e+00)	(-2.206547e-05 -2.866919e-05 -9.145166e-05)	(-9.383604e+00 -3.072192e+01 1.672672e+00)	(-9.383583e+00 -3.072189e+01 1.672761e+00)	(-2.126199e-05 -2.638523e-05 -8.915392e-05)	(-9.478521e+00 -3.100649e+01 -3.492536e-02)	(-9.478500e+00 -3.100646e+01 -3.483859e-02)	(-2.041979e-05 -2.399328e-05 -8.677638e-05)	(-9.385340e+00 -3.072299e+01 -1.740814e+00)	(-9.385320e+00 -3.072296e+01 -1.740729e+00)	(-1.953862e-05 -2.147425e-05 -8.432460e-05)	(-9.070205e+00 -2.987958e+01 -3.461930e+00)	(-9.070186e+00 -2.987956e+01 -3.461849e+00)	(-1.859866e-05 -1.879630e-05 -8.172899e-05)	(-8.562469e+00 -2.846885e+01 -5.160707e+00)	(-8.562451e+00 -2.846883e+01 -5.160628e+00)	(-1.759672e-05 -1.595707e-05 -7.895724e-05)	(-7.841373e+00 -2.650024e+01 -6.887038e+00)	(-7.841357e+00 -2.650022e+01 -6.886962e+00)	(-1.651308e-05 -1.285733e-05 -7.595987e-05)	(-6.922930e+00 -2.396802e+01 -8.587360e+00)	(-6.922915e+00 -2.396801e+01 -8.587287e+00)	(-1.535131e-05 -9.478099e-06 -7.255903e-05)	(-5.799047e+00 -2.088711e+01 -1.031257e+01)	(-5.799033e+00 -2.088710e+01 -1.031250e+01)	(-1.412154e-05 -6.016224e-06 -6.862626e-05)	(-4.458908e+00 -1.721621e+01 -1.204932e+01)	(-4.458895e+00 -1.721621e+01 -1.204925e+01)	(-1.275170e-05 -2.333169e-06 -6.415536e-05)	(-2.918118e+00 -1.297000e+01 -1.372485e+01)	(-2.918107e+00 -1.297000e+01 -1.372479e+01)	(-1.115316e-05 2.022549e-06 -5.869074e-05)	(-1.149846e+00 -8.125135e+00 -1.548345e+01)	(-1.149837e+00 -8.125143e+00 -1.548340e+01)	(-9.179625e-06 7.689487e-06 -5.101381e-05)	(-8.240985e-03 7.225484e-03 -1.831356e-02)	(-8.234123e-03 7.211483e-03 -1.826493e-02)	(-6.862398e-06 1.400080e-05 -4.862613e-05)