# Force       
# CofR        : (0.000000e+00 0.000000e+00 0.000000e+00)
#
# Time        	(total_x total_y total_z)	(pressure_x pressure_y pressure_z)	(viscous_x viscous_y viscous_z)
45.5028       	(1.208910e+02 6.460570e-03 1.439260e+04)	(1.207517e+02 -3.067063e-05 1.439266e+04)	(1.392806e-01 6.491241e-03 -5.819920e-02)
45.5055       	(2.283811e+02 6.507266e-03 1.438532e+04)	(2.282420e+02 -2.736812e-05 1.438538e+04)	(1.391346e-01 6.534634e-03 -5.809572e-02)
45.5083       	(2.285295e+02 6.550240e-03 1.438529e+04)	(2.283905e+02 -2.708776e-05 1.438535e+04)	(1.389706e-01 6.577328e-03 -5.799438e-02)
45.511        	(2.286106e+02 6.591821e-03 1.438527e+04)	(2.284718e+02 -2.692403e-05 1.438532e+04)	(1.387924e-01 6.618745e-03 -5.789579e-02)
45.5138       	(2.286515e+02 6.631690e-03 1.438525e+04)	(2.285129e+02 -2.683070e-05 1.438531e+04)	(1.386031e-01 6.658521e-03 -5.780014e-02)
45.5165       	(2.286266e+02 6.670146e-03 1.438524e+04)	(2.284882e+02 -2.665078e-05 1.438529e+04)	(1.384047e-01 6.696797e-03 -5.770711e-02)
45.5193       	(2.285923e+02 6.706219e-03 1.438523e+04)	(2.284541e+02 -2.654589e-05 1.438528e+04)	(1.381985e-01 6.732765e-03 -5.761685e-02)
45.522        	(2.285426e+02 6.739717e-03 1.438522e+04)	(2.284046e+02 -2.644291e-05 1.438527e+04)	(1.379856e-01 6.766160e-03 -5.752932e-02)
45.5247       	(2.284773e+02 6.770741e-03 1.438521e+04)	(2.283395e+02 -2.637332e-05 1.438527e+04)	(1.377666e-01 6.797115e-03 -5.744487e-02)
45.5274       	(2.284139e+02 6.799333e-03 1.438520e+04)	(2.282764e+02 -2.628307e-05 1.438526e+04)	(1.375416e-01 6.825616e-03 -5.736282e-02)
45.5302       	(2.283404e+02 6.824642e-03 1.438520e+04)	(2.282031e+02 -2.632904e-05 1.438526e+04)	(1.373108e-01 6.850971e-03 -5.728310e-02)
45.5329       	(2.282628e+02 6.846640e-03 1.438519e+04)	(2.281257e+02 -2.633551e-05 1.438525e+04)	(1.370747e-01 6.872975e-03 -5.720558e-02)
45.5356       	(2.281818e+02 6.864721e-03 1.438519e+04)	(2.280450e+02 -2.637246e-05 1.438525e+04)	(1.368335e-01 6.891094e-03 -5.713062e-02)
45.5383       	(2.280975e+02 6.879069e-03 1.438518e+04)	(2.279609e+02 -2.635840e-05 1.438524e+04)	(1.365879e-01 6.905428e-03 -5.705841e-02)
45.541        	(2.280102e+02 6.889022e-03 1.438518e+04)	(2.278738e+02 -2.641753e-05 1.438524e+04)	(1.363379e-01 6.915439e-03 -5.698878e-02)
45.5437       	(2.279215e+02 6.894611e-03 1.438518e+04)	(2.277854e+02 -2.651539e-05 1.438523e+04)	(1.360845e-01 6.921127e-03 -5.692192e-02)
45.5464       	(2.278317e+02 6.895613e-03 1.438518e+04)	(2.276959e+02 -2.660272e-05 1.438523e+04)	(1.358278e-01 6.922215e-03 -5.685790e-02)
45.549        	(2.277397e+02 6.892555e-03 1.438517e+04)	(2.276041e+02 -2.664463e-05 1.438523e+04)	(1.355687e-01 6.919199e-03 -5.679630e-02)
45.5517       	(2.276463e+02 6.885030e-03 1.438517e+04)	(2.275110e+02 -2.675226e-05 1.438523e+04)	(1.353078e-01 6.911782e-03 -5.673749e-02)
45.5544       	(2.275520e+02 6.872910e-03 1.438517e+04)	(2.274170e+02 -2.690228e-05 1.438523e+04)	(1.350458e-01 6.899812e-03 -5.668156e-02)
45.5571       	(2.274632e+02 6.856455e-03 1.438517e+04)	(2.273284e+02 -2.701504e-05 1.438522e+04)	(1.347830e-01 6.883470e-03 -5.662828e-02)
45.5598       	(2.273614e+02 6.835937e-03 1.438517e+04)	(2.272268e+02 -2.716140e-05 1.438522e+04)	(1.345204e-01 6.863099e-03 -5.657813e-02)
45.5624       	(2.272726e+02 6.811668e-03 1.438517e+04)	(2.271383e+02 -2.727460e-05 1.438522e+04)	(1.342584e-01 6.838943e-03 -5.653108e-02)
45.5651       	(2.271682e+02 6.783850e-03 1.438517e+04)	(2.270342e+02 -2.740373e-05 1.438522e+04)	(1.339970e-01 6.811253e-03 -5.648752e-02)
45.5678       	(2.270691e+02 6.752375e-03 1.438517e+04)	(2.269354e+02 -2.756597e-05 1.438522e+04)	(1.337372e-01 6.779941e-03 -5.644742e-02)
45.5705       	(2.269705e+02 6.717906e-03 1.438517e+04)	(2.268371e+02 -2.771513e-05 1.438522e+04)	(1.334792e-01 6.745621e-03 -5.641117e-02)
45.5731       	(2.268714e+02 6.680434e-03 1.438517e+04)	(2.267382e+02 -2.793132e-05 1.438523e+04)	(1.332237e-01 6.708365e-03 -5.637913e-02)
45.5758       	(2.267665e+02 6.640398e-03 1.438517e+04)	(2.266335e+02 -2.819508e-05 1.438523e+04)	(1.329709e-01 6.668593e-03 -5.635126e-02)
45.5785       	(2.266637e+02 6.597953e-03 1.438517e+04)	(2.265310e+02 -2.842254e-05 1.438523e+04)	(1.327213e-01 6.626375e-03 -5.632795e-02)
45.5811       	(2.265664e+02 6.554074e-03 1.438518e+04)	(2.264340e+02 -2.864140e-05 1.438523e+04)	(1.324757e-01 6.582716e-03 -5.630964e-02)
45.5838       	(2.264703e+02 6.509025e-03 1.438518e+04)	(2.263381e+02 -2.891921e-05 1.438524e+04)	(1.322344e-01 6.537944e-03 -5.629612e-02)
45.5865       	(2.263601e+02 6.462914e-03 1.438519e+04)	(2.262281e+02 -2.920329e-05 1.438524e+04)	(1.319975e-01 6.492117e-03 -5.628740e-02)
45.5891       	(2.262559e+02 6.415919e-03 1.438519e+04)	(2.261241e+02 -2.952056e-05 1.438525e+04)	(1.317652e-01 6.445439e-03 -5.628379e-02)
45.5918       	(2.261500e+02 6.368181e-03 1.438520e+04)	(2.260184e+02 -2.985334e-05 1.438525e+04)	(1.315380e-01 6.398034e-03 -5.628540e-02)
45.5945       	(2.260441e+02 6.319965e-03 1.438520e+04)	(2.259128e+02 -3.019933e-05 1.438526e+04)	(1.313163e-01 6.350164e-03 -5.629271e-02)
45.5971       	(2.259383e+02 6.271221e-03 1.438521e+04)	(2.258072e+02 -3.060647e-05 1.438527e+04)	(1.311002e-01 6.301828e-03 -5.630538e-02)
45.5998       	(2.258318e+02 6.222429e-03 1.438522e+04)	(2.257009e+02 -3.100761e-05 1.438527e+04)	(1.308897e-01 6.253437e-03 -5.632393e-02)
45.6025       	(2.257162e+02 6.173924e-03 1.438523e+04)	(2.255855e+02 -3.137223e-05 1.438528e+04)	(1.306851e-01 6.205296e-03 -5.634824e-02)
45.6051       	(2.256093e+02 6.125248e-03 1.438523e+04)	(2.254788e+02 -3.174052e-05 1.438529e+04)	(1.304865e-01 6.156989e-03 -5.637815e-02)
45.6078       	(2.254981e+02 6.076528e-03 1.438524e+04)	(2.253678e+02 -3.214017e-05 1.438530e+04)	(1.302940e-01 6.108669e-03 -5.641413e-02)
45.6104       	(2.253878e+02 6.027662e-03 1.438525e+04)	(2.252577e+02 -3.255580e-05 1.438531e+04)	(1.301078e-01 6.060218e-03 -5.645603e-02)
45.6131       	(2.252755e+02 5.977983e-03 1.438526e+04)	(2.251456e+02 -3.299122e-05 1.438531e+04)	(1.299278e-01 6.010974e-03 -5.650418e-02)
45.6158       	(2.251611e+02 5.927147e-03 1.438527e+04)	(2.250314e+02 -3.342425e-05 1.438532e+04)	(1.297541e-01 5.960571e-03 -5.655849e-02)
45.6184       	(2.250425e+02 5.874475e-03 1.438528e+04)	(2.249130e+02 -3.386074e-05 1.438533e+04)	(1.295870e-01 5.908336e-03 -5.661888e-02)
45.6211       	(2.249308e+02 5.819499e-03 1.438528e+04)	(2.248014e+02 -3.432830e-05 1.438534e+04)	(1.294264e-01 5.853828e-03 -5.668510e-02)
45.6238       	(2.248155e+02 5.761766e-03 1.438529e+04)	(2.246862e+02 -3.477935e-05 1.438535e+04)	(1.292720e-01 5.796546e-03 -5.675672e-02)
45.6264       	(2.247014e+02 5.700797e-03 1.438530e+04)	(2.245722e+02 -3.525597e-05 1.438536e+04)	(1.291235e-01 5.736053e-03 -5.683409e-02)
45.6291       	(2.245841e+02 5.636339e-03 1.438531e+04)	(2.244551e+02 -3.575376e-05 1.438537e+04)	(1.289805e-01 5.672093e-03 -5.691713e-02)
45.6317       	(2.244654e+02 5.568096e-03 1.438532e+04)	(2.243366e+02 -3.623284e-05 1.438538e+04)	(1.288430e-01 5.604329e-03 -5.700567e-02)
45.6344       	(2.243467e+02 5.495331e-03 1.438533e+04)	(2.242180e+02 -3.672647e-05 1.438539e+04)	(1.287104e-01 5.532058e-03 -5.709995e-02)
45.6371       	(2.242281e+02 5.417520e-03 1.438534e+04)	(2.240995e+02 -3.724739e-05 1.438540e+04)	(1.285818e-01 5.454768e-03 -5.720005e-02)
45.6397       	(2.241085e+02 5.334326e-03 1.438535e+04)	(2.239801e+02 -3.777003e-05 1.438541e+04)	(1.284568e-01 5.372096e-03 -5.730630e-02)
45.6424       	(2.239885e+02 5.245483e-03 1.438536e+04)	(2.238602e+02 -3.829374e-05 1.438542e+04)	(1.283347e-01 5.283776e-03 -5.741884e-02)
45.6451       	(2.238680e+02 5.150629e-03 1.438537e+04)	(2.237398e+02 -3.878411e-05 1.438543e+04)	(1.282153e-01 5.189413e-03 -5.753760e-02)
45.6477       	(2.237474e+02 5.049674e-03 1.438538e+04)	(2.236193e+02 -3.925639e-05 1.438544e+04)	(1.280986e-01 5.088930e-03 -5.766264e-02)
45.6504       	(2.236261e+02 4.942502e-03 1.438539e+04)	(2.234981e+02 -3.972066e-05 1.438544e+04)	(1.279846e-01 4.982222e-03 -5.779397e-02)
45.6531       	(2.235032e+02 4.828282e-03 1.438539e+04)	(2.233753e+02 -4.019716e-05 1.438545e+04)	(1.278727e-01 4.868480e-03 -5.793133e-02)
45.6558       	(2.233807e+02 4.706330e-03 1.438540e+04)	(2.232529e+02 -4.066713e-05 1.438546e+04)	(1.277632e-01 4.746997e-03 -5.807465e-02)
45.6585       	(2.232571e+02 4.576374e-03 1.438541e+04)	(2.231294e+02 -4.112590e-05 1.438547e+04)	(1.276560e-01 4.617500e-03 -5.822351e-02)
45.6611       	(2.231326e+02 4.438224e-03 1.438542e+04)	(2.230050e+02 -4.155856e-05 1.438548e+04)	(1.275513e-01 4.479783e-03 -5.837774e-02)
45.6638       	(2.230071e+02 4.291537e-03 1.438543e+04)	(2.228797e+02 -4.196170e-05 1.438549e+04)	(1.274491e-01 4.333498e-03 -5.853718e-02)
45.6665       	(2.228810e+02 4.135928e-03 1.438544e+04)	(2.227536e+02 -4.233655e-05 1.438550e+04)	(1.273493e-01 4.178265e-03 -5.870173e-02)
45.6692       	(2.227516e+02 3.970884e-03 1.438545e+04)	(2.226244e+02 -4.266669e-05 1.438551e+04)	(1.272520e-01 4.013551e-03 -5.887060e-02)
45.6719       	(2.226260e+02 3.795662e-03 1.438546e+04)	(2.224989e+02 -4.300034e-05 1.438552e+04)	(1.271569e-01 3.838663e-03 -5.904321e-02)
45.6746       	(2.224973e+02 3.609675e-03 1.438547e+04)	(2.223703e+02 -4.328966e-05 1.438553e+04)	(1.270638e-01 3.652965e-03 -5.921946e-02)
45.6773       	(2.223697e+02 3.412577e-03 1.438548e+04)	(2.222427e+02 -4.353108e-05 1.438554e+04)	(1.269729e-01 3.456108e-03 -5.939904e-02)
45.68         	(2.222357e+02 3.204020e-03 1.438549e+04)	(2.221088e+02 -4.372469e-05 1.438555e+04)	(1.268845e-01 3.247745e-03 -5.958137e-02)
45.6828       	(2.220991e+02 2.983595e-03 1.438550e+04)	(2.219723e+02 -4.385232e-05 1.438556e+04)	(1.267987e-01 3.027447e-03 -5.976626e-02)
45.6855       	(2.219716e+02 2.750956e-03 1.438551e+04)	(2.218449e+02 -4.395147e-05 1.438557e+04)	(1.267155e-01 2.794907e-03 -5.995344e-02)
45.6882       	(2.218295e+02 2.505052e-03 1.438553e+04)	(2.217029e+02 -4.401924e-05 1.438559e+04)	(1.266351e-01 2.549071e-03 -6.014220e-02)
45.691        	(2.216955e+02 2.244943e-03 1.438554e+04)	(2.215689e+02 -4.402644e-05 1.438560e+04)	(1.265578e-01 2.288970e-03 -6.033188e-02)
45.6937       	(2.215584e+02 1.970255e-03 1.438556e+04)	(2.214319e+02 -4.399380e-05 1.438562e+04)	(1.264839e-01 2.014249e-03 -6.052187e-02)
45.6965       	(2.214170e+02 1.680767e-03 1.438557e+04)	(2.212905e+02 -4.392342e-05 1.438563e+04)	(1.264135e-01 1.724690e-03 -6.071177e-02)
45.6993       	(2.212751e+02 1.376285e-03 1.438559e+04)	(2.211487e+02 -4.379660e-05 1.438565e+04)	(1.263469e-01 1.420082e-03 -6.090072e-02)
45.7021       	(2.211320e+02 1.056794e-03 1.438560e+04)	(2.210057e+02 -4.361872e-05 1.438566e+04)	(1.262844e-01 1.100413e-03 -6.108803e-02)
45.7049       	(2.209873e+02 7.222509e-04 1.438562e+04)	(2.208610e+02 -4.340556e-05 1.438568e+04)	(1.262263e-01 7.656564e-04 -6.127316e-02)
45.7077       	(2.208413e+02 3.731907e-04 1.438564e+04)	(2.207151e+02 -4.317609e-05 1.438570e+04)	(1.261728e-01 4.163667e-04 -6.145547e-02)
45.7106       	(2.206932e+02 1.014025e-05 1.438566e+04)	(2.205671e+02 -4.287381e-05 1.438572e+04)	(1.261241e-01 5.301406e-05 -6.163455e-02)
45.7135       	(2.205445e+02 -3.660100e-04 1.438568e+04)	(2.204184e+02 -4.254096e-05 1.438574e+04)	(1.260808e-01 -3.234690e-04 -6.181000e-02)
45.7164       	(2.203935e+02 -7.540253e-04 1.438570e+04)	(2.202675e+02 -4.215493e-05 1.438576e+04)	(1.260432e-01 -7.118704e-04 -6.198163e-02)
45.7193       	(2.202405e+02 -1.152747e-03 1.438572e+04)	(2.201145e+02 -4.173468e-05 1.438578e+04)	(1.260116e-01 -1.111012e-03 -6.214898e-02)
45.7222       	(2.200870e+02 -1.559982e-03 1.438574e+04)	(2.199610e+02 -4.127458e-05 1.438580e+04)	(1.259864e-01 -1.518707e-03 -6.231193e-02)
45.7252       	(2.199310e+02 -1.974891e-03 1.438576e+04)	(2.198050e+02 -4.075957e-05 1.438582e+04)	(1.259674e-01 -1.934132e-03 -6.247031e-02)
45.7282       	(2.197749e+02 -2.394912e-03 1.438578e+04)	(2.196489e+02 -4.023146e-05 1.438584e+04)	(1.259552e-01 -2.354681e-03 -6.262354e-02)
45.7313       	(2.196157e+02 -2.817553e-03 1.438580e+04)	(2.194898e+02 -3.966386e-05 1.438586e+04)	(1.259487e-01 -2.777889e-03 -6.277166e-02)
45.7343       	(2.194633e+02 -3.235719e-03 1.438582e+04)	(2.193374e+02 -3.904772e-05 1.438588e+04)	(1.259486e-01 -3.196672e-03 -6.291409e-02)
45.7373       	(2.193102e+02 -3.646397e-03 1.438584e+04)	(2.191842e+02 -3.841548e-05 1.438590e+04)	(1.259526e-01 -3.607982e-03 -6.305098e-02)
45.7404       	(2.191614e+02 -4.045259e-03 1.438585e+04)	(2.190354e+02 -3.774144e-05 1.438592e+04)	(1.259596e-01 -4.007518e-03 -6.318293e-02)
45.7434       	(2.190126e+02 -4.428651e-03 1.438587e+04)	(2.188866e+02 -3.704595e-05 1.438593e+04)	(1.259682e-01 -4.391605e-03 -6.331021e-02)
45.7464       	(2.188650e+02 -4.794710e-03 1.438588e+04)	(2.187390e+02 -3.638043e-05 1.438594e+04)	(1.259772e-01 -4.758330e-03 -6.343314e-02)
45.7494       	(2.187205e+02 -5.141864e-03 1.438589e+04)	(2.185945e+02 -3.568926e-05 1.438595e+04)	(1.259860e-01 -5.106175e-03 -6.355248e-02)
45.7524       	(2.185724e+02 -5.469521e-03 1.438590e+04)	(2.184464e+02 -3.499422e-05 1.438596e+04)	(1.259947e-01 -5.434526e-03 -6.366922e-02)
45.7554       	(2.184283e+02 -5.777493e-03 1.438591e+04)	(2.183023e+02 -3.432270e-05 1.438597e+04)	(1.260027e-01 -5.743170e-03 -6.378350e-02)
45.7585       	(2.182855e+02 -6.065091e-03 1.438591e+04)	(2.181595e+02 -3.365282e-05 1.438598e+04)	(1.260097e-01 -6.031438e-03 -6.389553e-02)
45.7615       	(2.181429e+02 -6.331974e-03 1.438592e+04)	(2.180169e+02 -3.299280e-05 1.438598e+04)	(1.260152e-01 -6.298981e-03 -6.400525e-02)
45.7645       	(2.180003e+02 -6.578415e-03 1.438592e+04)	(2.178743e+02 -3.236429e-05 1.438599e+04)	(1.260189e-01 -6.546051e-03 -6.411304e-02)
45.7675       	(2.178585e+02 -6.804060e-03 1.438593e+04)	(2.177325e+02 -3.174960e-05 1.438599e+04)	(1.260211e-01 -6.772311e-03 -6.421907e-02)
45.7705       	(2.177172e+02 -7.009021e-03 1.438593e+04)	(2.175912e+02 -3.119335e-05 1.438599e+04)	(1.260212e-01 -6.977828e-03 -6.432347e-02)
45.7735       	(2.175764e+02 -7.192867e-03 1.438593e+04)	(2.174504e+02 -3.068448e-05 1.438600e+04)	(1.260192e-01 -7.162183e-03 -6.442594e-02)
45.7765       	(2.174355e+02 -7.355998e-03 1.438593e+04)	(2.173095e+02 -3.021743e-05 1.438600e+04)	(1.260149e-01 -7.325780e-03 -6.452645e-02)
45.7795       	(2.172943e+02 -7.498040e-03 1.438593e+04)	(2.171683e+02 -2.982098e-05 1.438600e+04)	(1.260078e-01 -7.468219e-03 -6.462525e-02)
45.7825       	(2.171534e+02 -7.619407e-03 1.438593e+04)	(2.170274e+02 -2.946508e-05 1.438600e+04)	(1.259979e-01 -7.589942e-03 -6.472260e-02)
45.7855       	(2.170109e+02 -7.720985e-03 1.438593e+04)	(2.168849e+02 -2.919167e-05 1.438600e+04)	(1.259855e-01 -7.691793e-03 -6.481884e-02)
45.7885       	(2.168692e+02 -7.802593e-03 1.438593e+04)	(2.167432e+02 -2.902887e-05 1.438600e+04)	(1.259712e-01 -7.773564e-03 -6.491401e-02)
45.7915       	(2.167278e+02 -7.864293e-03 1.438593e+04)	(2.166019e+02 -2.891422e-05 1.438600e+04)	(1.259550e-01 -7.835379e-03 -6.500838e-02)
45.7945       	(2.165859e+02 -7.906348e-03 1.438593e+04)	(2.164600e+02 -2.886637e-05 1.438600e+04)	(1.259377e-01 -7.877481e-03 -6.510249e-02)
45.7976       	(2.164436e+02 -7.928591e-03 1.438593e+04)	(2.163176e+02 -2.892869e-05 1.438600e+04)	(1.259193e-01 -7.899663e-03 -6.519630e-02)
45.8006       	(2.163021e+02 -7.930080e-03 1.438593e+04)	(2.161762e+02 -2.905867e-05 1.438600e+04)	(1.259004e-01 -7.901021e-03 -6.529051e-02)
45.8036       	(2.161605e+02 -7.910410e-03 1.438593e+04)	(2.160346e+02 -2.924429e-05 1.438600e+04)	(1.258807e-01 -7.881165e-03 -6.538507e-02)
45.8066       	(2.160186e+02 -7.869501e-03 1.438594e+04)	(2.158928e+02 -2.949618e-05 1.438600e+04)	(1.258606e-01 -7.840005e-03 -6.548076e-02)
45.8097       	(2.158774e+02 -7.807154e-03 1.438594e+04)	(2.157516e+02 -2.984135e-05 1.438600e+04)	(1.258406e-01 -7.777313e-03 -6.557841e-02)
45.8127       	(2.157368e+02 -7.723099e-03 1.438594e+04)	(2.156110e+02 -3.026677e-05 1.438601e+04)	(1.258209e-01 -7.692832e-03 -6.567818e-02)
45.8158       	(2.155982e+02 -7.618238e-03 1.438594e+04)	(2.154724e+02 -3.080359e-05 1.438601e+04)	(1.258015e-01 -7.587434e-03 -6.578032e-02)
45.8188       	(2.154539e+02 -7.493733e-03 1.438595e+04)	(2.153281e+02 -3.140180e-05 1.438601e+04)	(1.257821e-01 -7.462332e-03 -6.588517e-02)
45.8219       	(2.153172e+02 -7.348753e-03 1.438595e+04)	(2.151914e+02 -3.210508e-05 1.438602e+04)	(1.257642e-01 -7.316648e-03 -6.599309e-02)
45.8249       	(2.151771e+02 -7.183549e-03 1.438595e+04)	(2.150513e+02 -3.288540e-05 1.438602e+04)	(1.257474e-01 -7.150664e-03 -6.610530e-02)
45.828        	(2.150378e+02 -6.999007e-03 1.438596e+04)	(2.149121e+02 -3.376334e-05 1.438602e+04)	(1.257316e-01 -6.965244e-03 -6.622317e-02)
45.8311       	(2.148968e+02 -6.795119e-03 1.438596e+04)	(2.147710e+02 -3.469119e-05 1.438603e+04)	(1.257168e-01 -6.760427e-03 -6.634748e-02)
45.8342       	(2.147614e+02 -6.571539e-03 1.438597e+04)	(2.146357e+02 -3.568936e-05 1.438604e+04)	(1.257031e-01 -6.535850e-03 -6.647886e-02)
45.8373       	(2.146206e+02 -6.329577e-03 1.438597e+04)	(2.144949e+02 -3.674053e-05 1.438604e+04)	(1.256900e-01 -6.292837e-03 -6.661795e-02)
45.8404       	(2.144831e+02 -6.070340e-03 1.438598e+04)	(2.143575e+02 -3.785391e-05 1.438605e+04)	(1.256769e-01 -6.032486e-03 -6.676565e-02)
45.8435       	(2.143439e+02 -5.794374e-03 1.438599e+04)	(2.142182e+02 -3.904306e-05 1.438606e+04)	(1.256641e-01 -5.755330e-03 -6.692302e-02)
45.8466       	(2.142051e+02 -5.500954e-03 1.438600e+04)	(2.140795e+02 -4.023840e-05 1.438607e+04)	(1.256515e-01 -5.460716e-03 -6.709068e-02)
45.8497       	(2.140659e+02 -5.191456e-03 1.438601e+04)	(2.139403e+02 -4.151258e-05 1.438608e+04)	(1.256395e-01 -5.149944e-03 -6.726905e-02)
45.8529       	(2.139305e+02 -4.867571e-03 1.438602e+04)	(2.138048e+02 -4.278074e-05 1.438609e+04)	(1.256268e-01 -4.824790e-03 -6.745889e-02)
45.856        	(2.137887e+02 -4.530002e-03 1.438603e+04)	(2.136631e+02 -4.412046e-05 1.438610e+04)	(1.256137e-01 -4.485882e-03 -6.766015e-02)
45.8592       	(2.136506e+02 -4.179799e-03 1.438604e+04)	(2.135250e+02 -4.547011e-05 1.438611e+04)	(1.256002e-01 -4.134329e-03 -6.787262e-02)
45.8624       	(2.135109e+02 -3.818699e-03 1.438606e+04)	(2.133853e+02 -4.681247e-05 1.438612e+04)	(1.255858e-01 -3.771887e-03 -6.809662e-02)
45.8655       	(2.133712e+02 -3.448740e-03 1.438607e+04)	(2.132456e+02 -4.815459e-05 1.438614e+04)	(1.255699e-01 -3.400585e-03 -6.833281e-02)
45.8687       	(2.132310e+02 -3.070978e-03 1.438609e+04)	(2.131055e+02 -4.946288e-05 1.438616e+04)	(1.255524e-01 -3.021515e-03 -6.858129e-02)
45.8719       	(2.130911e+02 -2.686654e-03 1.438610e+04)	(2.129656e+02 -5.073385e-05 1.438617e+04)	(1.255339e-01 -2.635920e-03 -6.884224e-02)
45.8751       	(2.129509e+02 -2.296924e-03 1.438612e+04)	(2.128254e+02 -5.195567e-05 1.438619e+04)	(1.255142e-01 -2.244969e-03 -6.911636e-02)
45.8783       	(2.128120e+02 -1.904170e-03 1.438614e+04)	(2.126865e+02 -5.312087e-05 1.438621e+04)	(1.254931e-01 -1.851049e-03 -6.940339e-02)
45.8816       	(2.126711e+02 -1.510996e-03 1.438616e+04)	(2.125456e+02 -5.420244e-05 1.438623e+04)	(1.254703e-01 -1.456793e-03 -6.970381e-02)
45.8848       	(2.125260e+02 -1.118104e-03 1.438619e+04)	(2.124006e+02 -5.522225e-05 1.438626e+04)	(1.254470e-01 -1.062881e-03 -7.001694e-02)
45.888        	(2.123908e+02 -7.264247e-04 1.438621e+04)	(2.122654e+02 -5.616905e-05 1.438628e+04)	(1.254235e-01 -6.702557e-04 -7.034288e-02)
45.8913       	(2.122467e+02 -3.362819e-04 1.438624e+04)	(2.121213e+02 -5.702718e-05 1.438631e+04)	(1.254001e-01 -2.792548e-04 -7.068106e-02)
45.8945       	(2.120987e+02 5.158847e-05 1.438627e+04)	(2.119733e+02 -5.778954e-05 1.438635e+04)	(1.253765e-01 1.093780e-04 -7.103069e-02)
45.8978       	(2.119560e+02 4.364920e-04 1.438631e+04)	(2.118307e+02 -5.847695e-05 1.438638e+04)	(1.253538e-01 4.949689e-04 -7.139151e-02)
45.9011       	(2.118124e+02 8.186008e-04 1.438635e+04)	(2.116871e+02 -5.901786e-05 1.438642e+04)	(1.253319e-01 8.776187e-04 -7.176229e-02)
45.9043       	(2.116661e+02 1.195800e-03 1.438639e+04)	(2.115408e+02 -5.941675e-05 1.438646e+04)	(1.253120e-01 1.255217e-03 -7.214070e-02)
45.9076       	(2.115224e+02 1.568249e-03 1.438643e+04)	(2.113971e+02 -5.969578e-05 1.438650e+04)	(1.252937e-01 1.627944e-03 -7.252496e-02)
45.9108       	(2.113799e+02 1.936945e-03 1.438647e+04)	(2.112546e+02 -5.984545e-05 1.438654e+04)	(1.252774e-01 1.996791e-03 -7.291455e-02)
45.9141       	(2.112376e+02 2.300945e-03 1.438652e+04)	(2.111123e+02 -5.985035e-05 1.438659e+04)	(1.252626e-01 2.360795e-03 -7.330880e-02)
45.9173       	(2.110963e+02 2.660812e-03 1.438657e+04)	(2.109711e+02 -5.972496e-05 1.438664e+04)	(1.252502e-01 2.720537e-03 -7.370724e-02)
45.9206       	(2.109538e+02 3.014329e-03 1.438662e+04)	(2.108285e+02 -5.944328e-05 1.438669e+04)	(1.252398e-01 3.073772e-03 -7.410983e-02)
45.9238       	(2.108089e+02 3.360935e-03 1.438667e+04)	(2.106836e+02 -5.908714e-05 1.438675e+04)	(1.252312e-01 3.420022e-03 -7.451663e-02)
45.927        	(2.106641e+02 3.701753e-03 1.438673e+04)	(2.105389e+02 -5.865044e-05 1.438680e+04)	(1.252249e-01 3.760403e-03 -7.492675e-02)
45.9303       	(2.105195e+02 4.036706e-03 1.438678e+04)	(2.103943e+02 -5.812750e-05 1.438686e+04)	(1.252217e-01 4.094834e-03 -7.533915e-02)
45.9335       	(2.103734e+02 4.366732e-03 1.438685e+04)	(2.102482e+02 -5.750418e-05 1.438692e+04)	(1.252201e-01 4.424236e-03 -7.575465e-02)
45.9368       	(2.102275e+02 4.690384e-03 1.438691e+04)	(2.101023e+02 -5.682671e-05 1.438698e+04)	(1.252211e-01 4.747210e-03 -7.617281e-02)
45.9401       	(2.100815e+02 5.006908e-03 1.438697e+04)	(2.099563e+02 -5.613882e-05 1.438705e+04)	(1.252247e-01 5.063047e-03 -7.659257e-02)
45.9433       	(2.099358e+02 5.316463e-03 1.438704e+04)	(2.098106e+02 -5.543169e-05 1.438712e+04)	(1.252305e-01 5.371895e-03 -7.701383e-02)
45.9466       	(2.097898e+02 5.619229e-03 1.438711e+04)	(2.096646e+02 -5.471850e-05 1.438719e+04)	(1.252365e-01 5.673947e-03 -7.743692e-02)
45.9499       	(2.096435e+02 5.915563e-03 1.438719e+04)	(2.095182e+02 -5.396805e-05 1.438727e+04)	(1.252429e-01 5.969531e-03 -7.786143e-02)
45.9533       	(2.094964e+02 6.204316e-03 1.438727e+04)	(2.093712e+02 -5.326030e-05 1.438735e+04)	(1.252496e-01 6.257576e-03 -7.828738e-02)
45.9566       	(2.093509e+02 6.486280e-03 1.438736e+04)	(2.092256e+02 -5.261898e-05 1.438743e+04)	(1.252562e-01 6.538899e-03 -7.871513e-02)
45.96         	(2.092024e+02 6.761117e-03 1.438745e+04)	(2.090771e+02 -5.199693e-05 1.438753e+04)	(1.252615e-01 6.813114e-03 -7.914582e-02)
45.9634       	(2.090554e+02 7.030076e-03 1.438754e+04)	(2.089301e+02 -5.141148e-05 1.438762e+04)	(1.252660e-01 7.081487e-03 -7.957835e-02)
45.9668       	(2.089068e+02 7.292971e-03 1.438764e+04)	(2.087815e+02 -5.086760e-05 1.438772e+04)	(1.252691e-01 7.343838e-03 -8.001297e-02)
45.9702       	(2.087580e+02 7.549633e-03 1.438774e+04)	(2.086327e+02 -5.044932e-05 1.438782e+04)	(1.252697e-01 7.600083e-03 -8.044939e-02)
45.9736       	(2.086092e+02 7.799767e-03 1.438785e+04)	(2.084839e+02 -5.005725e-05 1.438793e+04)	(1.252670e-01 7.849824e-03 -8.088860e-02)
45.9771       	(2.084598e+02 8.043678e-03 1.438797e+04)	(2.083345e+02 -4.972325e-05 1.438805e+04)	(1.252605e-01 8.093402e-03 -8.133045e-02)
45.9806       	(2.083100e+02 8.281578e-03 1.438809e+04)	(2.081848e+02 -4.941632e-05 1.438817e+04)	(1.252502e-01 8.330995e-03 -8.177438e-02)
45.9841       	(2.081654e+02 8.509836e-03 1.438821e+04)	(2.080402e+02 -4.919034e-05 1.438830e+04)	(1.252370e-01 8.559026e-03 -8.221798e-02)
45.9876       	(2.080144e+02 8.729141e-03 1.438834e+04)	(2.078892e+02 -4.905141e-05 1.438843e+04)	(1.252190e-01 8.778193e-03 -8.266205e-02)
45.9911       	(2.078669e+02 8.938747e-03 1.438848e+04)	(2.077417e+02 -4.894432e-05 1.438857e+04)	(1.251961e-01 8.987691e-03 -8.310704e-02)
45.9947       	(2.077189e+02 9.138159e-03 1.438863e+04)	(2.075937e+02 -4.889574e-05 1.438871e+04)	(1.251688e-01 9.187055e-03 -8.355208e-02)
45.9982       	(2.075703e+02 9.325733e-03 1.438877e+04)	(2.074452e+02 -4.887621e-05 1.438886e+04)	(1.251371e-01 9.374609e-03 -8.399690e-02)
46.0019       	(2.074221e+02 9.500484e-03 1.438893e+04)	(2.072970e+02 -4.889191e-05 1.438901e+04)	(1.251000e-01 9.549376e-03 -8.444098e-02)
46.0055       	(2.072791e+02 9.661574e-03 1.438909e+04)	(2.071540e+02 -4.894529e-05 1.438917e+04)	(1.250579e-01 9.710520e-03 -8.488228e-02)
46.0091       	(2.071383e+02 9.807523e-03 1.438925e+04)	(2.070133e+02 -4.900528e-05 1.438934e+04)	(1.250106e-01 9.856528e-03 -8.532021e-02)
46.0127       	(2.070002e+02 9.938861e-03 1.438941e+04)	(2.068753e+02 -4.909836e-05 1.438950e+04)	(1.249578e-01 9.987960e-03 -8.575410e-02)
46.0163       	(2.068621e+02 1.005404e-02 1.438958e+04)	(2.067372e+02 -4.919596e-05 1.438967e+04)	(1.248997e-01 1.010324e-02 -8.618324e-02)
46.0199       	(2.067287e+02 1.015345e-02 1.438975e+04)	(2.066039e+02 -4.930573e-05 1.438984e+04)	(1.248363e-01 1.020276e-02 -8.660684e-02)
46.0235       	(2.065994e+02 1.023728e-02 1.438993e+04)	(2.064747e+02 -4.939839e-05 1.439001e+04)	(1.247674e-01 1.028668e-02 -8.702472e-02)
46.0271       	(2.064738e+02 1.030474e-02 1.439010e+04)	(2.063491e+02 -4.943174e-05 1.439019e+04)	(1.246939e-01 1.035418e-02 -8.743707e-02)
46.0307       	(2.063515e+02 1.035606e-02 1.439028e+04)	(2.062268e+02 -4.945896e-05 1.439037e+04)	(1.246171e-01 1.040552e-02 -8.784347e-02)
46.0343       	(2.062326e+02 1.039153e-02 1.439046e+04)	(2.061081e+02 -4.943908e-05 1.439055e+04)	(1.245371e-01 1.044097e-02 -8.824366e-02)
46.038        	(2.061184e+02 1.041156e-02 1.439064e+04)	(2.059939e+02 -4.939958e-05 1.439073e+04)	(1.244535e-01 1.046096e-02 -8.863761e-02)
46.0416       	(2.060089e+02 1.041622e-02 1.439082e+04)	(2.058845e+02 -4.928337e-05 1.439091e+04)	(1.243665e-01 1.046550e-02 -8.902522e-02)
46.0452       	(2.059043e+02 1.040520e-02 1.439101e+04)	(2.057801e+02 -4.911064e-05 1.439110e+04)	(1.242761e-01 1.045431e-02 -8.940735e-02)
46.0488       	(2.058046e+02 1.037916e-02 1.439120e+04)	(2.056804e+02 -4.894540e-05 1.439129e+04)	(1.241828e-01 1.042810e-02 -8.978385e-02)
46.0524       	(2.057088e+02 1.033944e-02 1.439138e+04)	(2.055847e+02 -4.871092e-05 1.439148e+04)	(1.240863e-01 1.038815e-02 -9.015553e-02)
46.056        	(2.056189e+02 1.028716e-02 1.439157e+04)	(2.054949e+02 -4.841727e-05 1.439166e+04)	(1.239872e-01 1.033558e-02 -9.052380e-02)
46.0596       	(2.055347e+02 1.022285e-02 1.439176e+04)	(2.054108e+02 -4.807778e-05 1.439185e+04)	(1.238862e-01 1.027093e-02 -9.088955e-02)
46.0632       	(2.054534e+02 1.014614e-02 1.439195e+04)	(2.053296e+02 -4.773886e-05 1.439204e+04)	(1.237835e-01 1.019388e-02 -9.125369e-02)
46.0668       	(2.053750e+02 1.005803e-02 1.439215e+04)	(2.052513e+02 -4.737280e-05 1.439224e+04)	(1.236796e-01 1.010540e-02 -9.161774e-02)
46.0704       	(2.053017e+02 9.958839e-03 1.439234e+04)	(2.051781e+02 -4.699384e-05 1.439243e+04)	(1.235751e-01 1.000583e-02 -9.198305e-02)
46.074        	(2.052314e+02 9.848743e-03 1.439253e+04)	(2.051079e+02 -4.659909e-05 1.439263e+04)	(1.234699e-01 9.895342e-03 -9.235150e-02)
46.0777       	(2.051634e+02 9.728108e-03 1.439273e+04)	(2.050401e+02 -4.619886e-05 1.439283e+04)	(1.233642e-01 9.774307e-03 -9.272428e-02)
46.0813       	(2.051000e+02 9.596900e-03 1.439293e+04)	(2.049768e+02 -4.582438e-05 1.439303e+04)	(1.232576e-01 9.642725e-03 -9.310280e-02)
46.0849       	(2.050396e+02 9.455285e-03 1.439314e+04)	(2.049164e+02 -4.546968e-05 1.439323e+04)	(1.231505e-01 9.500755e-03 -9.348824e-02)
46.0885       	(2.049759e+02 9.302344e-03 1.439335e+04)	(2.048528e+02 -4.513663e-05 1.439345e+04)	(1.230424e-01 9.347480e-03 -9.388387e-02)
46.0922       	(2.049190e+02 9.138285e-03 1.439357e+04)	(2.047961e+02 -4.480970e-05 1.439366e+04)	(1.229353e-01 9.183095e-03 -9.428956e-02)
46.0958       	(2.048637e+02 8.963288e-03 1.439379e+04)	(2.047409e+02 -4.451097e-05 1.439389e+04)	(1.228294e-01 9.007799e-03 -9.470637e-02)
46.0994       	(2.048084e+02 8.777491e-03 1.439402e+04)	(2.046857e+02 -4.427701e-05 1.439412e+04)	(1.227242e-01 8.821768e-03 -9.513569e-02)
46.1031       	(2.047539e+02 8.581179e-03 1.439426e+04)	(2.046313e+02 -4.408643e-05 1.439435e+04)	(1.226198e-01 8.625266e-03 -9.557802e-02)
46.1068       	(2.046954e+02 8.373553e-03 1.439450e+04)	(2.045728e+02 -4.394747e-05 1.439460e+04)	(1.225162e-01 8.417501e-03 -9.603570e-02)
46.1104       	(2.046417e+02 8.156578e-03 1.439475e+04)	(2.045193e+02 -4.385225e-05 1.439485e+04)	(1.224160e-01 8.200430e-03 -9.650651e-02)
46.1141       	(2.045859e+02 7.931127e-03 1.439500e+04)	(2.044636e+02 -4.380684e-05 1.439510e+04)	(1.223201e-01 7.974934e-03 -9.699031e-02)
46.1178       	(2.045269e+02 7.697061e-03 1.439527e+04)	(2.044047e+02 -4.383808e-05 1.439536e+04)	(1.222272e-01 7.740899e-03 -9.748966e-02)
46.1215       	(2.044757e+02 7.456512e-03 1.439554e+04)	(2.043535e+02 -4.391577e-05 1.439563e+04)	(1.221392e-01 7.500428e-03 -9.800218e-02)
46.1252       	(2.044203e+02 7.210503e-03 1.439581e+04)	(2.042982e+02 -4.404545e-05 1.439591e+04)	(1.220560e-01 7.254548e-03 -9.852781e-02)
46.129        	(2.043712e+02 6.960303e-03 1.439609e+04)	(2.042492e+02 -4.424311e-05 1.439619e+04)	(1.219779e-01 7.004546e-03 -9.906627e-02)
46.1327       	(2.043226e+02 6.706203e-03 1.439637e+04)	(2.042007e+02 -4.445841e-05 1.439647e+04)	(1.219040e-01 6.750662e-03 -9.962028e-02)
46.1364       	(2.042748e+02 6.451261e-03 1.439666e+04)	(2.041530e+02 -4.474141e-05 1.439676e+04)	(1.218369e-01 6.496003e-03 -1.001860e-01)
46.1402       	(2.042320e+02 6.195808e-03 1.439695e+04)	(2.041103e+02 -4.506283e-05 1.439705e+04)	(1.217763e-01 6.240870e-03 -1.007624e-01)
46.1439       	(2.041921e+02 5.940941e-03 1.439725e+04)	(2.040703e+02 -4.541791e-05 1.439735e+04)	(1.217217e-01 5.986359e-03 -1.013487e-01)
46.1477       	(2.041561e+02 5.685803e-03 1.439756e+04)	(2.040344e+02 -4.582777e-05 1.439766e+04)	(1.216725e-01 5.731631e-03 -1.019475e-01)
46.1515       	(2.041217e+02 5.432132e-03 1.439787e+04)	(2.040000e+02 -4.623064e-05 1.439797e+04)	(1.216308e-01 5.478363e-03 -1.025536e-01)
46.1553       	(2.040928e+02 5.180899e-03 1.439818e+04)	(2.039712e+02 -4.670055e-05 1.439829e+04)	(1.215968e-01 5.227599e-03 -1.031655e-01)