# Moment      
# CofR        : (0.000000e+00 0.000000e+00 0.000000e+00)
#
# Time        	(total_x total_y total_z)	(pressure_x pressure_y pressure_z)	(viscous_x viscous_y viscous_z)
1             	(-4.980946e-01 6.716436e-01 2.500436e-03)	(-4.981067e-01 6.708612e-01 2.484533e-03)	(1.210077e-05 7.823339e-04 1.590258e-05)
2             	(-5.120208e-01 6.830470e-01 -1.469991e-02)	(-5.123263e-01 6.828707e-01 -1.469459e-02)	(3.054742e-04 1.762859e-04 -5.327823e-06)
3             	(-3.961870e-01 5.222276e-01 -5.198907e-02)	(-3.967060e-01 5.224769e-01 -5.199438e-02)	(5.189225e-04 -2.492605e-04 5.306524e-06)
4             	(-2.020028e-01 2.624026e-01 -1.053511e-01)	(-2.026137e-01 2.628054e-01 -1.053283e-01)	(6.108822e-04 -4.027730e-04 -2.273824e-05)
