# k  POINT_DATA 52043
# x  y  z  k
0.014142 -1.35525e-20 8.40343e-08 4.25869e-08
-0.014142 1.35525e-20 8.40343e-08 1.05423e-07
-0.014142 -6.77626e-21 0.000246014 9.98552e-08
0.014142 0 0.000246007 4.40035e-08
-0.014142 6.77626e-21 0.000413822 1.01903e-07
0.014142 -6.77626e-21 0.000413834 4.59437e-08
-0.014142 -1.35525e-20 0.000659755 1.15198e-07
0.014142 0 0.000659755 5.02292e-08
-0.014142 3.38813e-21 0.000918791 1.21777e-07
0.014142 6.77626e-21 0.000918788 5.75042e-08
0.014142 0 0.00109554 6.0827e-08
-0.014142 1.01644e-20 0.00109555 1.25197e-07
0.014142 1.35525e-20 0.00135458 6.3447e-08
-0.014142 1.35525e-20 0.00135458 1.306e-07
0.014142 -1.01644e-20 0.00162764 6.94816e-08
-0.014142 3.38813e-21 0.00162762 1.33347e-07
-0.014252 0 0.000123103 1.03368e-07
0.014252 -1.35525e-20 0.00012308 4.34019e-08
-0.0142534 0 8.87869e-08 1.03359e-07
0.0142534 -1.35525e-20 8.87839e-08 4.34032e-08
0.014142 3.38813e-21 0.00181395 7.68826e-08
-0.014142 0 0.00181396 1.46747e-07
-0.014252 0 0.000530071 1.08335e-07
0.014252 0 0.000530089 4.8107e-08
-0.0142482 0 0.00077532 1.18616e-07
0.0142482 1.35525e-20 0.00077531 5.41214e-08
0.014142 -1.35525e-20 0.002087 9.92434e-08
-0.014142 1.35525e-20 0.002087 1.94121e-07
-0.0142482 0 0.00119849 1.26803e-07
0.0142482 0 0.00119848 6.20764e-08
0.0142438 0 0.00144431 6.67108e-08
-0.0142438 1.35525e-20 0.00144431 1.31153e-07
0.0142438 1.35525e-20 0.00188165 8.40838e-08
-0.0142438 0 0.00188166 1.62605e-07
0.014376 -1.35525e-20 9.02284e-08 1.65548e-07
-0.014376 0 9.023e-08 1.76228e-07
0.0143755 1.35525e-20 0.000639268 9.90814e-08
-0.0143755 0 0.000639267 1.34033e-07
-0.0142629 6.77626e-21 0.00213232 2.00263e-07
0.0142629 6.77626e-21 0.00213231 9.8593e-08
-0.0143002 -1.35525e-20 0.00203592 1.93795e-07
0.0143002 0 0.00203591 9.65368e-08
-0.0144129 -1.35525e-20 0.000955929 1.23427e-07
0.0144129 0 0.000955927 5.81081e-08
0.0143941 1.35525e-20 0.00157783 6.86467e-08
-0.0143941 1.35525e-20 0.00157784 1.33788e-07
-0.0143749 6.77626e-21 0.00187281 1.46929e-07
0.0143749 6.77626e-21 0.0018728 7.60521e-08
-0.0144696 -4.51751e-21 0.00124267 9.57367e-08
0.0144696 4.51751e-21 0.00124266 4.83582e-08
-0.014375 0 0.00217431 2.33357e-07
0.014375 0 0.00217432 1.23981e-07
-0.0145418 0 0.000318554 1.67564e-07
0.0145418 -6.77626e-21 0.000318551 1.49891e-07
-0.0145497 1.35525e-20 9.54658e-08 1.86311e-07
0.0145497 -1.35525e-20 9.54632e-08 1.73135e-07
-0.0145347 -1.35525e-20 0.000782523 1.40009e-07
0.0145347 1.35525e-20 0.000782537 1.07687e-07
-0.0145148 1.35525e-20 0.00222669 2.41737e-07
0.0145148 -1.35525e-20 0.00222669 1.32271e-07
0.0146121 1.93608e-21 0.00162981 6.10257e-08
-0.0146121 7.7443e-21 0.00162982 1.15729e-07
-0.0145852 1.05879e-22 0.00194555 1.97198e-07
0.0145837 -4.87044e-21 0.00194477 1.06988e-07
-0.0147196 0 1.04732e-07 2.78394e-07
0.0147196 0 1.0473e-07 3.65783e-07
0.0146004 -1.27055e-21 0.00194655 1.10261e-07
-0.0146005 2.0117e-21 0.00194659 2.03051e-07
-0.0147092 0 0.000900995 7.63021e-08
0.0147092 4.51751e-21 0.000900993 5.55795e-08
-0.0145873 -8.13152e-20 0.00225387 2.87764e-07
0.0145873 0 0.00225387 1.571e-07
-0.0146975 -2.25875e-21 0.00143127 6.50541e-08
0.0146975 2.25875e-21 0.00143126 3.73548e-08
-0.0148082 0 0.000136903 3.25309e-07
0.0148083 -1.35525e-20 0.000136875 4.66728e-07
-0.0148167 2.71051e-20 9.37179e-08 3.23262e-07
0.0148167 0 9.37183e-08 4.6298e-07
-0.0148641 -1.35525e-20 8.83354e-08 3.25135e-07
0.0148641 -1.35525e-20 8.83376e-08 4.48795e-07
-0.0148598 -1.29072e-21 0.000624026 1.70902e-07
0.0148598 -2.58143e-21 0.000624027 2.33271e-07
-0.0148447 3.26265e-21 0.00116603 5.68214e-08
0.0148447 -2.25875e-21 0.00116603 3.95692e-08
0.0147327 4.06576e-20 0.00230835 1.89013e-07
-0.0147327 0 0.00230836 3.42431e-07
0.0148335 7.52918e-21 0.0015921 5.51109e-08
-0.0148335 -3.01167e-21 0.00159211 9.50213e-08
0.015 1.35525e-20 7.4908e-08 6.49529e-07
-0.015 -1.35525e-20 7.49029e-08 3.51635e-07
-0.0149884 1.50584e-21 0.00205342 3.47953e-07
0.0149884 1.22349e-21 0.00205341 1.93731e-07
-0.015176 2.25875e-21 0.000230687 3.93663e-07
0.015176 6.77626e-21 0.000230679 7.42416e-07
0.015 -3.38813e-21 0.00240854 2.23e-07
-0.015 0 0.00240855 3.9549e-07
-0.0152021 -4.51751e-21 0.000843378 8.4356e-08
0.0152021 4.51751e-21 0.000843372 1.05314e-07
-0.0150379 0 0.00242273 3.97217e-07
0.0150379 -3.38813e-21 0.00242272 2.24317e-07
-0.0152016 4.51751e-21 0.0014348 6.30828e-08
0.0152016 -4.51751e-21 0.00143479 4.6422e-08
-0.0152989 0 2.20825e-08 4.50987e-07
0.015299 0 2.20806e-08 8.12331e-07
0.0151247 0 0.00245524 2.34401e-07
-0.0151247 -3.38813e-21 0.00245526 4.05684e-07
0.0153962 -2.71051e-20 0.000531794 4.17795e-07
-0.0153962 -2.71051e-20 0.000531794 2.91303e-07
-0.0154492 -1.35525e-20 8.76993e-09 5.18176e-07
0.0154492 -2.71051e-20 8.76964e-09 7.8474e-07
0.0154139 0 0.00109981 6.49484e-08
-0.0154139 -2.71051e-20 0.00109982 6.64091e-08
-0.0152781 0 0.00251266 4.15162e-07
0.0152781 6.77626e-21 0.00251265 2.59187e-07
0.015387 -2.71051e-20 0.00178913 1.1077e-07
-0.015387 2.71051e-20 0.00178913 1.66487e-07
-0.0153098 0 0.00239462 4.10216e-07
0.0153098 3.38813e-21 0.00239458 2.44381e-07
-0.015387 -2.25875e-21 0.00225338 3.95082e-07
0.015387 0 0.00225337 2.35126e-07
0.0156089 -1.35525e-20 7.21547e-09 8.27315e-07
-0.0156089 0 7.21529e-09 5.87798e-07
0.0154678 0 0.00258382 2.89184e-07
-0.0154678 -1.35525e-20 0.00258382 4.17116e-07
-0.0156827 6.77626e-21 0.00072818 1.54462e-07
0.0156827 -6.77626e-21 0.000728171 1.6994e-07
0.0157226 -1.12938e-21 0.000233621 8.10725e-07
-0.0157226 -3.38813e-21 0.000233615 6.13883e-07
0.0157188 4.51751e-21 0.00143117 7.19339e-08
-0.0157188 1.12938e-20 0.00143117 7.85976e-08
-0.0156648 -1.69407e-21 0.00226708 3.33646e-07
0.0156648 0 0.00226708 2.22921e-07
-0.015625 1.35525e-20 0.00254192 3.94986e-07
0.0156251 0 0.00254193 2.80577e-07
-0.015625 -2.03288e-20 0.00264258 3.91416e-07
0.015625 1.35525e-20 0.00264259 2.90108e-07
-0.015761 -9.03502e-21 0.00197935 1.62302e-07
0.0157611 0 0.00197935 1.20086e-07
0.0159582 0 4.57718e-09 7.5799e-07
-0.0159583 -1.35525e-20 4.57567e-09 6.64065e-07
-0.0157606 0 0.00269322 3.93152e-07
0.0157606 -4.06576e-20 0.00269323 3.24256e-07
-0.0158055 -2.71051e-21 0.0025037 3.97616e-07
0.0158056 2.71051e-21 0.00250371 3.06625e-07
-0.0160275 -4.06576e-20 0.000416984 5.28109e-07
0.0160275 6.77626e-21 0.000416987 4.44794e-07
0.0160955 -1.35525e-20 3.28682e-09 6.53509e-07
-0.0160956 0 3.28517e-09 6.65165e-07
0.0161395 -1.35525e-20 0.000104149 5.3166e-07
-0.0161396 0 0.000104133 6.45067e-07
0.0160615 0 0.00176843 1.5664e-07
-0.0160615 0 0.00176842 1.57226e-07
-0.0161376 1.50584e-21 0.000847369 3.36875e-07
0.0161376 -9.78794e-21 0.000847386 2.43156e-07
0.01616 -1.35525e-20 3.02629e-09 5.40283e-07
-0.01616 -1.35525e-20 3.02459e-09 6.45245e-07
-0.0159592 2.71051e-20 0.00276747 5.41042e-07
0.0159593 -2.71051e-20 0.00276748 6.01122e-07
-0.0160632 -1.35525e-20 0.00225586 2.75642e-07
0.0160632 -1.35525e-20 0.00225589 2.63926e-07
0.0162499 0 2.49196e-09 5.71691e-07
-0.01625 -1.35525e-20 2.49049e-09 7.16669e-07
0.0163213 8.13152e-21 0.00143843 1.49044e-07
-0.0163214 -1.0842e-20 0.0014384 1.31987e-07
-0.0163246 0 0.0019752 1.2512e-07
0.0163246 8.13152e-21 0.00197521 1.67946e-07
-0.01625 1.69407e-20 0.00287738 6.40452e-07
0.0162501 -3.38813e-20 0.00287742 7.92144e-07
0.0165397 2.37169e-20 1.49551e-09 3.5187e-07
-0.0165398 1.01644e-20 1.49503e-09 6.95654e-07
0.0165485 0 0.000259443 4.21931e-07
-0.0165486 0 0.00025939 7.69648e-07
-0.0162993 2.03288e-20 0.00289583 6.55894e-07
0.0162996 -3.04932e-20 0.00289591 8.27907e-07
-0.0163628 -2.25875e-21 0.0026102 5.76629e-07
0.0163629 4.51751e-21 0.00261026 7.0548e-07
0.016602 2.03288e-20 1.39857e-09 3.92145e-07
-0.0166022 -1.01644e-20 1.39777e-09 7.48695e-07
0.0167779 1.17455e-20 0.000788065 4.71019e-07
-0.0167779 -1.807e-21 0.000788044 6.4811e-07
0.0168224 0 8.07643e-10 7.16842e-07
-0.0168225 -1.35525e-20 8.07608e-10 1.01388e-06
-0.016756 6.77626e-21 0.00167756 1.39999e-07
0.016756 4.51751e-21 0.00167758 2.30848e-07
-0.0165907 0 0.00300593 7.15022e-07
0.0165909 -2.71051e-20 0.00300602 1.01611e-06
-0.0167321 -4.51751e-21 0.00229258 2.90023e-07
0.0167321 -4.51751e-21 0.00229264 4.53452e-07
0.0169397 -1.35525e-20 0.000139012 6.04848e-07
-0.0169397 0 0.000138902 1.00836e-06
-0.0169619 -1.35525e-20 4.50845e-10 9.90538e-07
0.0169619 0 4.50833e-10 5.88536e-07
0.017069 -1.35525e-20 0.00034548 7.51744e-07
-0.017069 1.35525e-20 0.000345515 1.18653e-06
-0.0168154 2.71051e-20 0.00309174 8.89532e-07
0.0168157 2.03288e-20 0.00309186 1.37518e-06
-0.0170882 0 0.00125548 2.48032e-07
0.0170883 -2.71051e-20 0.00125549 3.09612e-07
-0.016875 -1.01644e-20 0.00299682 8.97969e-07
0.0168752 -1.01644e-20 0.00299705 1.38929e-06
-0.016875 0 0.00311456 8.80116e-07
0.0168752 -3.38813e-21 0.00311463 1.36162e-06
-0.0169715 -3.38813e-21 0.0027608 7.9439e-07
0.0169716 -3.38813e-21 0.00276088 1.21878e-06
-0.0170765 0 0.00207965 1.13134e-07
0.0170765 2.71051e-20 0.00207967 3.14651e-07
-0.017311 -2.03288e-20 7.14894e-11 1.29217e-06
0.0173114 0 7.13597e-11 8.99382e-07
-0.0170892 -4.06576e-20 0.00319641 7.95954e-07
0.0170896 0 0.00319653 1.21923e-06
-0.0174107 -6.77626e-21 5.81532e-05 1.39807e-06
0.0174108 0 5.80005e-05 9.94799e-07
-0.0173964 4.51751e-21 0.000777676 9.06753e-07
0.0173964 2.25875e-21 0.000777666 7.68172e-07
-0.0174228 0 5.17295e-11 1.39055e-06
0.0174229 0 5.16506e-11 9.89703e-07
0.0174572 6.77626e-21 4.88994e-11 1.02246e-06
-0.0174572 -6.77626e-21 4.89702e-11 1.40663e-06
-0.0174069 2.25875e-21 0.00167765 1.94845e-07
0.017407 2.25875e-21 0.00167766 4.25006e-07
0.0175 0 4.74701e-11 1.04541e-06
0.0175 0 5.73648e-05 1.05242e-06
-0.0175001 0 4.75352e-11 1.44087e-06
-0.0175001 6.77626e-21 5.75034e-05 1.44862e-06
-0.0172483 0 0.00325639 7.79867e-07
0.0172486 1.35525e-20 0.00325649 1.16342e-06
-0.0172998 -2.71051e-20 0.00306964 7.78892e-07
0.0173001 0 0.00306981 1.16372e-06
-0.0174323 1.69407e-21 0.00258936 4.39666e-07
0.0174324 -1.12938e-21 0.0025894 7.70159e-07
-0.0174579 0 0.00333599 6.88104e-07
0.0174583 1.69407e-21 0.00333616 1.0823e-06
-0.0177431 0 0.00123883 3.16855e-07
0.0177432 -5.42101e-20 0.00123884 5.82556e-07
-0.0174808 1.69407e-21 0.00332482 6.80165e-07
0.017481 0 0.00332506 1.07545e-06
-0.0174846 1.69407e-21 0.00334611 6.72925e-07
0.0174848 0 0.00334621 1.07067e-06
-0.0178054 0 0.000414179 1.81289e-06
0.0178055 0 0.000414187 1.40843e-06
-0.0175001 0 0.00332274 6.64521e-07
0.0175002 0 0.00332299 1.05731e-06
-0.0175001 1.69407e-21 0.00334231 6.66654e-07
0.0175002 3.38813e-21 0.00334243 1.06242e-06
-0.0175001 0 0.00335193 6.6349e-07
0.0175002 0 0.00335199 1.05906e-06
0.0178186 3.38813e-21 2.6307e-11 1.33017e-06
-0.0178194 3.38813e-21 2.62871e-11 1.7378e-06
-0.0177187 2.71051e-20 0.00210757 1.10885e-07
0.0177188 -2.71051e-20 0.0021076 4.99789e-07
-0.0176383 9.03502e-21 0.00303865 6.3455e-07
0.0176385 0 0.00303873 1.01787e-06
-0.0176486 0 0.00304387 6.27995e-07
0.0176488 0 0.00304395 1.01051e-06
-0.0177861 1.35525e-20 0.00345972 5.54398e-07
0.0177863 -1.35525e-20 0.00345982 9.51786e-07
0.0181318 0 5.25144e-05 1.62698e-06
-0.0181318 -6.77626e-21 5.23832e-05 2.04389e-06
0.0181327 0 7.40306e-12 1.61609e-06
-0.0181328 0 7.40812e-12 2.03142e-06
-0.0180579 -1.12938e-21 0.00168517 2.40487e-07
0.018058 3.38813e-21 0.00168519 7.10707e-07
-0.0181177 -1.8823e-22 0.000826258 1.27811e-06
0.0181178 -4.70574e-22 0.000826333 1.24702e-06
-0.0178474 -2.71051e-20 0.00337592 5.66171e-07
0.0178475 -1.35525e-20 0.00337606 9.66293e-07
-0.0181788 0 1.20998e-12 2.07378e-06
0.0181789 -6.77626e-21 1.20234e-12 1.65041e-06
-0.0180132 -9.03502e-21 0.0025453 2.54173e-07
0.0180133 4.51751e-21 0.00254538 6.59721e-07
-0.018224 6.77626e-21 6.67961e-05 2.12702e-06
0.0182242 0 6.69571e-05 1.6993e-06
-0.0182303 0 9.60874e-13 2.1275e-06
0.0182306 0 9.55329e-13 1.6997e-06
-0.0179205 -2.71051e-20 0.00351035 5.99019e-07
0.0179207 0 0.00351043 1.0282e-06
-0.0180629 4.06576e-21 0.00308315 4.43848e-07
0.0180631 9.03502e-22 0.00308322 7.96158e-07
-0.0184105 -2.71051e-20 0.00127258 4.42227e-07
0.0184105 -5.42101e-20 0.00127259 9.59247e-07
-0.018125 -6.77626e-21 0.00358731 6.17791e-07
0.0181251 6.77626e-21 0.00358737 1.12955e-06
-0.0183578 5.42101e-20 0.0021071 9.39285e-08
0.0183579 0 0.00210715 7.89141e-07
-0.018476 -2.71051e-20 0.000447745 2.39272e-06
0.0184761 2.71051e-20 0.000447774 1.9446e-06
-0.0182327 -3.38813e-20 0.00362784 6.04706e-07
0.0182331 -2.03288e-20 0.00362801 1.11442e-06
-0.0182772 -9.03502e-21 0.0034369 5.96606e-07
0.0182774 1.807e-20 0.00343704 1.07423e-06
-0.018396 2.71051e-20 0.00281574 1.21697e-07
0.0183961 0 0.00281581 3.73192e-07
0.01875 0 4.62891e-13 2.09765e-06
-0.0187501 0 4.6467e-13 2.49143e-06
0.01875 0 9.91689e-05 2.10429e-06
-0.0187501 6.77626e-21 9.90278e-05 2.49731e-06
-0.0187024 3.10579e-21 0.00167427 3.53362e-07
0.0187024 -1.97641e-21 0.00167431 1.04685e-06
-0.0184518 -1.35525e-20 0.00371033 5.47891e-07
0.0184522 1.35525e-20 0.00371046 9.59963e-07
0.0188247 0 9.24778e-14 2.13604e-06
-0.0188248 -1.35525e-20 9.05194e-14 2.51645e-06
-0.0188281 -4.51751e-21 0.000901811 1.49426e-06
0.0188281 0 0.000901813 1.63235e-06
-0.0188891 0 9.99751e-05 2.55037e-06
0.0188891 0 0.000100089 2.19735e-06
-0.0187325 -2.82344e-22 0.00243398 1.21927e-07
0.0187326 5.64689e-22 0.00243401 6.69692e-07
-0.0188926 0 7.49551e-14 2.55021e-06
0.0188926 -1.35525e-20 7.69428e-14 2.19729e-06
-0.0185639 1.35525e-20 0.00375412 5.353e-07
0.0185642 2.71051e-20 0.00375424 9.08577e-07
-0.0185985 0 0.00364208 5.36973e-07
0.0185987 -2.71051e-20 0.00364225 9.15872e-07
-0.0187022 0 0.00323478 3.42206e-07
0.0187024 -1.12938e-21 0.00323486 6.86306e-07
-0.01875 0 0.00382122 4.83866e-07
0.0187502 0 0.00382131 8.02326e-07
0.0191944 6.77626e-21 6.30458e-14 2.39097e-06
-0.0191946 -6.77626e-21 6.21199e-14 2.77791e-06
-0.0192061 -2.71051e-20 0.000471782 2.73262e-06
0.0192062 0 0.000471778 2.44907e-06
-0.0191595 -2.71051e-20 0.00145141 4.03737e-07
0.0191595 -2.71051e-20 0.00145142 1.30138e-06
-0.0188263 0 0.00385065 4.77391e-07
0.0188267 6.77626e-21 0.00385081 7.82063e-07
-0.0190077 -2.71051e-20 0.00284643 8.26388e-08
0.0190078 5.42101e-20 0.0028465 4.48905e-07
-0.019139 0 0.00196722 2.13745e-07
0.019139 5.42101e-20 0.00196726 1.23621e-06
-0.0188699 0 0.00376892 4.82751e-07
0.0188703 0 0.0037689 7.92291e-07
-0.0189588 0 0.00362259 4.65751e-07
0.0189592 -6.02335e-21 0.00362275 7.72709e-07
-0.0189237 1.35525e-20 0.00389016 4.60817e-07
0.0189243 -1.35525e-20 0.00389043 7.38317e-07
-0.0193514 0 0.0017103 3.38329e-07
0.0193515 2.71051e-20 0.00171031 1.40174e-06
-0.0194092 0 0.000938181 1.73366e-06
0.0194092 1.31761e-21 0.000938235 2.00142e-06
-0.0194666 0 1.03845e-13 2.96753e-06
0.0194668 0 1.03775e-13 2.57895e-06
-0.0194676 0 3.86909e-05 2.9667e-06
0.0194678 0 3.88215e-05 2.57808e-06
-0.0193306 2.25875e-21 0.00249036 1.30846e-07
0.0193307 -7.52918e-22 0.00249038 8.81301e-07
-0.019126 0 0.00398495 4.06832e-07
0.0191265 0 0.00398518 6.20384e-07
-0.0192996 4.51751e-21 0.00322408 2.01237e-07
0.0192998 2.25875e-21 0.00322419 5.55808e-07
-0.0191703 -1.35525e-20 0.00393445 4.13374e-07
0.0191707 0 0.00393471 6.29953e-07
-0.0195792 2.71051e-20 0.00146063 5.12832e-07
0.0195792 5.42101e-20 0.00146063 1.59667e-06
-0.0192183 1.35525e-20 0.00403232 4.4015e-07
0.0192187 0 0.00403252 6.39308e-07
-0.0195391 2.71051e-20 0.00196502 2.34687e-07
0.0195391 0 0.00196506 1.51749e-06
-0.0196412 0 8.2824e-14 3.05211e-06
0.0196418 0 8.26879e-14 2.64456e-06
-0.019692 -2.71051e-20 0.0005066 3.18014e-06
0.019692 -2.71051e-20 0.000506622 2.69804e-06
-0.0193632 2.25875e-22 0.00368353 3.17919e-07
0.0193636 1.12938e-22 0.00368367 5.17367e-07
-0.0193748 -1.35525e-20 0.00398025 4.57754e-07
0.0193751 1.35525e-20 0.00398046 6.52038e-07
-0.0193749 -6.77626e-21 0.00411562 4.65246e-07
0.0193752 -1.35525e-20 0.00411575 6.40364e-07
-0.0196516 0 0.00282164 9.47036e-08
0.0196518 2.71051e-20 0.0028217 7.76808e-07
-0.0196713 -2.71051e-20 0.00346867 8.64681e-08
0.0196715 -5.42101e-20 0.00346879 2.39903e-07
-0.0195416 1.35525e-20 0.00420424 4.60118e-07
0.0195422 2.03288e-20 0.00420454 5.92705e-07
-0.02 1.35525e-20 7.5021e-14 3.2841e-06
0.0200001 1.35525e-20 7.4999e-14 2.79646e-06
-0.02 -2.71051e-20 0.000219861 3.2883e-06
0.0200001 -1.35525e-20 0.000219807 2.80123e-06
-0.0196486 2.71051e-21 0.00405876 4.39807e-07
0.019649 -1.0842e-20 0.00405903 5.71254e-07
0.019997 1.41172e-22 0.00175126 1.74723e-06
-0.019997 0 0.00175132 3.91117e-07
0.0201205 0 2.66712e-14 2.83679e-06
-0.0201205 0 2.67431e-14 3.3013e-06
-0.0201124 0 0.00105022 1.96199e-06
0.0201124 -2.25875e-21 0.00105024 2.3835e-06
-0.0200024 -3.76459e-22 0.00235173 1.8038e-07
0.0200025 -9.41148e-23 0.0023518 1.32916e-06
-0.0197167 0 0.00429743 4.2818e-07
0.0197172 1.35525e-20 0.00429767 4.98034e-07
-0.0199625 1.12938e-21 0.00315688 8.73006e-08
0.0199626 1.12938e-21 0.00315696 6.60577e-07
-0.0198179 1.35525e-20 0.00435132 4.19725e-07
0.0198183 0 0.00435153 4.55766e-07
-0.0198553 -2.71051e-20 0.00424327 4.19349e-07
0.0198557 1.35525e-20 0.00424354 4.67021e-07
0.0203123 -2.71051e-20 6.21449e-15 2.92566e-06
-0.0203124 -2.71051e-20 6.14666e-15 3.38435e-06
0.0203177 0 0.000130802 2.92409e-06
-0.0203178 0 0.000130833 3.38276e-06
-0.01997 -5.64689e-22 0.00385617 2.63864e-07
0.0199702 9.41148e-22 0.00385631 3.87685e-07
-0.0202712 2.71051e-20 0.00281169 9.8912e-08
0.0202713 2.71051e-20 0.00281174 1.35409e-06
-0.0199999 0 0.00444833 3.90099e-07
0.0200001 0 0.00444847 3.84987e-07
-0.0200605 0 0.00448064 3.88691e-07
0.0200609 0 0.00448086 3.70016e-07
-0.0202705 0 0.00349446 6.94363e-08
0.0202706 -2.71051e-20 0.00349456 3.10018e-07
-0.0201021 0 0.00441229 3.91866e-07
0.0201026 0 0.00441233 3.7804e-07
-0.0201274 1.35525e-20 0.00451629 3.83117e-07
0.020128 -6.77626e-21 0.00451661 3.47866e-07
-0.0202112 -3.76459e-21 0.00425016 3.77593e-07
0.0202116 0 0.00425037 3.82471e-07
-0.0206399 -5.42101e-20 0.00178222 4.22513e-07
0.0206399 -5.42101e-20 0.00178223 2.20852e-06
0.0207253 -5.42101e-20 0.000539941 3.15301e-06
-0.0207253 -5.42101e-20 0.000539939 3.61342e-06
-0.0206015 0 0.00245364 2.10633e-07
0.0206016 -3.38813e-22 0.00245367 1.77535e-06
-0.0205843 1.12938e-21 0.00315111 1.05542e-07
0.0205844 1.12938e-21 0.00315116 1.03432e-06
-0.0203417 1.35525e-20 0.00463048 3.5e-07
0.0203423 1.35525e-20 0.00463076 2.66888e-07
-0.0203949 -1.35525e-20 0.00457254 3.55751e-07
0.0203954 0 0.00457285 2.75026e-07
-0.0205502 0 0.00386547 1.66977e-07
0.0205503 -2.25875e-21 0.00386562 3.58426e-07
-0.0204458 0 0.00468592 3.88723e-07
0.0204463 0 0.00468616 2.73882e-07
-0.0206078 -5.64689e-22 0.0043176 2.76378e-07
0.0206081 1.12938e-22 0.00431777 2.543e-07
-0.0209209 5.42101e-20 0.00278889 1.82327e-07
0.020921 0 0.00278892 1.93263e-06
-0.0206248 6.77626e-21 0.0047813 4.31752e-07
0.0206252 6.77626e-21 0.00478146 2.53917e-07
-0.0208848 -2.71051e-20 0.00349061 7.21895e-08
0.0208849 -2.71051e-20 0.0034907 5.7645e-07
0.0212501 -1.35525e-20 5.88478e-15 3.21024e-06
-0.0212501 0 5.83891e-15 3.72794e-06
0.0212501 0 9.46703e-05 3.20791e-06
-0.0212501 0 9.4684e-05 3.72534e-06
-0.0207397 -6.77626e-21 0.00484247 4.3658e-07
0.0207403 0 0.00484278 2.31119e-07
-0.0207851 4.51751e-21 0.00466127 4.14173e-07
0.0207854 -4.51751e-21 0.00466152 2.44996e-07
-0.0209257 -2.71051e-20 0.00410294 8.3407e-08
0.020926 0 0.00410307 1.66274e-07
-0.0213163 -1.12938e-21 0.001158 2.1942e-06
0.0213163 3.38813e-21 0.00115801 2.97645e-06
0.0213763 1.35525e-20 3.47593e-16 3.26273e-06
-0.0213764 0 3.5283e-16 3.76905e-06
-0.0212885 1.12938e-21 0.00232627 3.28847e-07
0.0212886 1.12938e-21 0.00232629 2.44332e-06
-0.021208 -2.82344e-22 0.00309796 1.66509e-07
0.021208 1.69407e-21 0.00309802 1.6365e-06
0.0214867 0 0.000108836 3.28931e-06
-0.0214868 1.35525e-20 0.000108849 3.82875e-06
0.021494 1.35525e-20 4.39192e-16 3.28798e-06
-0.0214941 0 4.44401e-16 3.82765e-06
-0.0209343 1.35525e-20 0.00494614 4.08726e-07
0.0209347 0 0.00494637 1.8587e-07
-0.0212499 0 0.00376412 9.76625e-08
0.021247 -2.75286e-21 0.00376429 5.74704e-07
-0.0210472 -1.35525e-20 0.00500632 4.02602e-07
0.0210476 -1.35525e-20 0.00500653 1.64153e-07
-0.0210903 0 0.00488625 4.00511e-07
0.0210906 -2.71051e-20 0.0048865 1.72719e-07
-0.0212089 4.51751e-21 0.00450243 2.53309e-07
0.0212092 -1.12938e-21 0.00450256 2.0491e-07
-0.0216448 0 0.00289595 2.26486e-07
0.0216449 2.71051e-20 0.00289597 2.73643e-06
-0.0212498 3.38813e-21 0.00511424 3.77523e-07
0.0212501 3.38813e-21 0.00511439 1.27108e-07
-0.0212808 0 0.00513076 3.78112e-07
0.0212812 0 0.00513096 1.22658e-07
-0.0216428 0 0.00333678 1.83898e-07
0.0216429 0 0.00333683 1.59923e-06
-0.0213035 0 0.00509474 3.79669e-07
0.0213039 3.38813e-21 0.00509481 1.24919e-07
-0.0215146 2.71051e-20 0.00414914 8.40434e-08
0.0215148 0 0.00414925 3.20194e-07
-0.0213152 -6.77626e-21 0.00514909 3.75289e-07
0.0213157 0 0.00514937 1.17571e-07
0.0219709 0 0.000580194 3.34484e-06
-0.021971 5.42101e-20 0.000580199 3.93835e-06
-0.0214405 -9.03502e-21 0.00489685 3.63679e-07
0.0214409 -3.01167e-21 0.00489705 1.35643e-07
-0.0219196 0 0.00179911 6.15266e-07
0.0219197 0 0.00179912 3.12015e-06
-0.0218787 -2.82344e-22 0.00244234 3.60365e-07
0.0218787 7.05861e-23 0.00244237 2.98997e-06
-0.0218432 -2.71051e-20 0.00311325 2.19184e-07
0.0218433 0 0.00311327 2.41277e-06
-0.0218301 1.50584e-21 0.00382172 1.37794e-07
0.0218302 -7.52918e-22 0.00382177 1.01847e-06
-0.0215576 1.35525e-20 0.00527824 3.41766e-07
0.0215581 1.35525e-20 0.00527848 7.76054e-08
-0.0216181 1.35525e-20 0.00521384 3.47241e-07
0.0216185 -1.35525e-20 0.0052141 8.23036e-08
-0.022064 0 0.00288701 2.77405e-07
0.022064 2.71051e-20 0.00288702 3.15687e-06
-0.0217938 2.25875e-21 0.00451147 1.79464e-07
0.021794 -2.25875e-21 0.00451161 3.25973e-07
-0.0220345 -2.71051e-20 0.00332361 2.20983e-07
0.0220346 -2.71051e-20 0.00332366 2.31817e-06
-0.0216748 2.71051e-20 0.00534064 3.8434e-07
0.0216752 2.71051e-20 0.00534085 8.51001e-08
-0.0218358 -2.25875e-22 0.00496865 2.73679e-07
0.0218361 1.35525e-21 0.0049688 1.0851e-07
0.0225 -1.35525e-20 -1.57376e-17 3.08265e-06
-0.0225 0 -1.52709e-17 3.82865e-06
0.0225 -1.35525e-20 8.44889e-05 3.08253e-06
-0.0225 0 8.44943e-05 3.8295e-06
-0.0221466 0 0.00413228 1.41136e-07
0.0221467 0 0.00413235 8.31267e-07
-0.0218748 -6.77626e-21 0.00544721 4.33535e-07
0.0218751 1.01644e-20 0.00544736 6.05447e-08
0.0225909 -1.35525e-20 4.65091e-17 3.06424e-06
-0.0225909 0 4.69172e-17 3.80702e-06
-0.0225623 0 0.00117125 2.28787e-06
0.0225623 5.64689e-21 0.00117125 3.29815e-06
-0.0219453 1.69407e-20 0.00548473 4.36868e-07
0.0219458 1.69407e-20 0.00548498 5.3854e-08
-0.0220186 4.51751e-21 0.0053065 4.12104e-07
0.0220189 -1.35525e-20 0.00530671 6.27848e-08
-0.0221547 2.71051e-20 0.00476009 9.60585e-08
0.0221549 2.71051e-20 0.00476021 1.48204e-07
0.0226735 0 8.15118e-05 3.0558e-06
-0.0226735 0 8.15168e-05 3.82072e-06
0.0226781 0 2.50124e-17 3.05519e-06
-0.0226781 0 2.52005e-17 3.81979e-06
-0.0225519 -1.12938e-21 0.00239247 4.89552e-07
0.0225519 4.51751e-21 0.00239248 3.61703e-06
-0.0224875 -5.64689e-22 0.00303827 3.03585e-07
0.0224875 5.64689e-22 0.00303832 3.30355e-06
-0.0224955 -7.05861e-23 0.00364649 2.2119e-07
0.0224956 7.05861e-23 0.00364646 2.15082e-06
-0.0221583 1.35525e-20 0.00559821 4.0645e-07
0.0221587 -1.35525e-20 0.00559841 4.75811e-08
-0.0224493 -2.25875e-21 0.00445911 1.4256e-07
0.0224494 0 0.00445919 8.05657e-07
-0.0222812 1.35525e-20 0.00566371 3.99661e-07
0.0222816 -2.71051e-20 0.00566387 4.05738e-08
-0.0223282 1.35525e-20 0.00553377 3.96568e-07
0.0223285 2.71051e-20 0.00553397 4.32584e-08
-0.022442 2.25875e-21 0.00515525 2.60123e-07
0.0224423 7.52918e-22 0.00515537 1.37367e-07
-0.0227594 0 0.00412234 2.17758e-07
0.0227595 -2.71051e-20 0.00412239 1.88812e-06
0.0231924 5.42101e-20 0.000587087 2.79093e-06
-0.0231924 5.42101e-20 0.000587089 3.71823e-06
-0.0224999 8.47033e-22 0.00578016 3.73071e-07
0.0225001 0 0.00578025 4.58293e-08
-0.0231698 0 0.00178811 7.56343e-07
0.0231698 1.0842e-19 0.00178811 3.93209e-06
-0.022509 0 0.00578499 3.73201e-07
0.0225093 0 0.00578515 4.54877e-08
-0.0225157 8.47033e-22 0.0057743 3.73558e-07
0.0225162 0 0.00577431 4.53725e-08
-0.0227516 0 0.00479269 1.17727e-07
0.0227518 0 0.00479279 4.08517e-07
-0.0225192 -2.5411e-21 0.00579044 3.72564e-07
0.0225196 -1.01644e-20 0.00579066 4.66861e-08
-0.0231209 0 0.00309539 3.84927e-07
0.023121 0 0.00309541 4.46626e-06
-0.0226735 -1.05409e-20 0.00554731 3.5451e-07
0.0226737 1.50584e-21 0.00554747 4.74573e-08
-0.0230931 0 0.00378166 3.13501e-07
0.0230932 -7.52918e-22 0.00378167 3.0074e-06
-0.023068 5.64689e-21 0.00445632 2.21986e-07
0.0230681 1.12938e-21 0.00445637 1.65212e-06
-0.0227839 1.35525e-20 0.00593173 3.39349e-07
0.0227842 0 0.00593191 7.04589e-08
-0.0228493 1.35525e-20 0.00586199 3.44933e-07
0.0228496 0 0.00586218 7.20489e-08
-0.0230298 4.51751e-21 0.00515583 1.99419e-07
0.02303 0 0.00515594 4.02885e-07
-0.0229106 0 0.00599952 3.86851e-07
0.0229109 2.71051e-20 0.00599968 1.29574e-07
-0.023072 -9.03502e-22 0.00561884 2.7935e-07
0.0230722 9.03502e-22 0.00561896 1.11142e-07
-0.0237501 0 1.53747e-17 3.39266e-06
0.0237501 6.77626e-21 1.52208e-17 2.26392e-06
-0.0237501 6.77626e-21 6.33397e-05 3.39196e-06
0.0237501 6.77626e-21 6.33363e-05 2.26176e-06
-0.0234048 0 0.0040956 3.61643e-07
0.0234049 -2.71051e-20 0.00409564 3.22017e-06
0.0238177 0 -7.65578e-19 2.20966e-06
-0.0238177 -1.35525e-20 -7.74602e-19 3.35179e-06
0.0237988 -2.25875e-21 0.00117061 3.18215e-06
-0.0237988 0 0.00117061 2.07217e-06
-0.0233657 -2.71051e-20 0.00479029 1.8985e-07
0.0233658 2.71051e-20 0.00479035 1.1632e-06
0.0238811 6.77626e-21 6.14693e-05 2.16419e-06
-0.0238811 -1.35525e-20 6.14724e-05 3.33906e-06
0.023883 6.77626e-21 -9.01493e-19 2.16391e-06
-0.023883 0 -9.09844e-19 3.33866e-06
-0.0237728 0 0.00241911 5.9282e-07
0.0237728 5.64689e-22 0.00241911 4.92253e-06
-0.0231249 0 0.00611529 4.44223e-07
0.0231251 -6.77626e-21 0.00611542 1.63789e-07
-0.0231675 2.71051e-20 0.00613811 4.46573e-07
0.0231678 -1.01644e-20 0.00613829 1.71713e-07
-0.023258 1.35525e-20 0.00596026 4.19323e-07
0.0232582 -4.51751e-21 0.00596041 1.5181e-07
-0.0234008 2.71051e-20 0.00540243 1.16746e-07
0.0234009 -2.71051e-20 0.00540252 1.91251e-07
-0.0237509 -2.82344e-22 0.00364541 4.06906e-07
0.0237508 -1.03526e-21 0.00364544 4.67834e-06
-0.0236805 -5.27043e-21 0.00443726 3.28144e-07
0.0236806 -1.50584e-21 0.00443729 3.00179e-06
-0.0233932 1.35525e-20 0.00626089 4.11416e-07
0.0233933 0 0.00626103 2.07508e-07
-0.0237267 -5.64689e-22 0.00506483 1.97755e-07
0.0237268 -5.64689e-22 0.00506488 1.13979e-06
-0.0235126 0 0.00635102 4.07875e-07
0.0235127 0 0.00635113 2.24987e-07
-0.0235681 0 0.00620595 4.02913e-07
0.0235683 -1.35525e-20 0.00620608 2.1288e-07
-0.0236824 0 0.00581853 2.73959e-07
0.0236825 7.52918e-22 0.00581861 2.50318e-07
0.024425 0 0.00058604 1.62404e-06
-0.0244251 -1.0842e-19 0.000586045 3.01158e-06
0.0244106 5.42101e-20 0.00178889 4.42039e-06
-0.0244106 5.42101e-20 0.00178889 7.38506e-07
-0.0241349 0 0.00419973 4.9508e-07
0.0241349 0 0.00419974 5.67451e-06
-0.0236696 3.38813e-21 0.00645563 3.78574e-07
0.0236698 0 0.00645575 2.68906e-07
-0.0237096 -3.38813e-21 0.00644188 3.72318e-07
0.0237098 0 0.00644198 2.73945e-07
-0.0241326 0 0.00462567 4.22943e-07
0.0241326 5.42101e-20 0.00462571 3.54506e-06
-0.0237098 0 0.00648356 3.64493e-07
0.02371 0 0.00648366 2.90242e-07
-0.0243927 5.42101e-20 0.00306991 4.79107e-07
0.0243927 5.42101e-20 0.00306991 6.89742e-06
-0.0239945 2.71051e-20 0.00544746 1.51714e-07
0.0239946 0 0.00544753 4.89187e-07
-0.0237499 1.35525e-20 0.00643537 3.56761e-07
0.0237501 0 0.00643548 2.76997e-07
-0.0237499 0 0.00647613 3.59106e-07
0.0237501 0 0.00647623 2.88578e-07
-0.0237499 0 0.006513 3.50748e-07
0.0237501 0 0.00651309 2.99826e-07
-0.0243523 5.64689e-22 0.00372353 4.94319e-07
0.0243524 5.64689e-22 0.00372355 6.36262e-06
-0.0239089 0 0.00623589 3.51382e-07
0.023909 -1.35525e-20 0.00623598 2.46211e-07
-0.0243287 0 0.00441255 4.90174e-07
0.0243287 0 0.00441257 5.19941e-06
-0.0239122 6.77626e-21 0.00663214 3.03553e-07
0.0239123 2.71051e-20 0.00663222 3.53141e-07
-0.0243138 -2.25875e-21 0.00512037 3.10221e-07
0.0243139 2.25875e-21 0.00512041 2.08686e-06
-0.0245437 0 0.00418671 5.94371e-07
0.0245437 0 0.00418672 6.68169e-06
-0.0240424 0 0.00656018 3.03661e-07
0.0240425 1.35525e-20 0.00656027 3.44795e-07
-0.0245161 2.71051e-20 0.00461184 5.24037e-07
0.0245161 0 0.00461186 5.1898e-06
-0.0240313 0 0.00671945 2.86421e-07
0.0240314 -1.35525e-20 0.00671952 3.84095e-07
-0.0242758 -4.51751e-21 0.0058092 2.42076e-07
0.0242758 4.51751e-21 0.00580927 5.69622e-07
-0.025 0 4.25541e-20 2.55168e-06
0.025 -6.77626e-21 4.32721e-20 1.33371e-06
-0.025 0 4.32458e-05 2.55101e-06
0.025 0 4.32338e-05 1.33291e-06
0.025046 0 -4.76797e-20 1.31383e-06
-0.025046 6.77626e-21 -4.79508e-20 2.51065e-06
0.0250354 -1.12938e-21 0.00116998 2.77802e-06
-0.0250355 -1.12938e-21 0.00116998 1.6083e-06
-0.0241475 2.71051e-20 0.00680428 2.63617e-07
0.0241476 1.35525e-20 0.00680434 3.93963e-07
0.0250898 -6.77626e-21 4.20265e-05 1.28132e-06
-0.0250898 0 4.20372e-05 2.48628e-06
0.0250906 0 -2.73305e-20 1.28134e-06
-0.0250906 6.77626e-21 -2.74441e-20 2.4861e-06
-0.024199 -1.35525e-20 0.00668127 2.74183e-07
0.0241991 0 0.00668133 3.75494e-07
-0.0250241 5.64689e-22 0.00240547 5.87323e-07
0.0250241 5.64689e-22 0.00240547 6.06098e-06
-0.0243358 1.29072e-21 0.00637905 2.32094e-07
0.0243359 1.12938e-21 0.00637911 3.42413e-07
-0.0246314 -2.71051e-20 0.0054211 3.3363e-07
0.0246315 -2.71051e-20 0.00542114 1.42936e-06
-0.0250347 0 0.00367576 5.71124e-07
0.0250347 -4.51751e-21 0.00367577 7.99708e-06
-0.0243359 0 0.00694205 2.33336e-07
0.024336 -1.69407e-21 0.00694207 4.41944e-07
-0.0243561 0 0.00693965 2.32104e-07
0.0243562 0 0.00693966 4.43715e-07
-0.0243565 1.69407e-21 0.00695709 2.31937e-07
0.0243566 1.69407e-21 0.00695714 4.60876e-07
-0.0243749 -1.69407e-21 0.00693984 2.27808e-07
0.024375 0 0.00693986 4.44725e-07
-0.0249795 -1.12938e-21 0.00428502 5.89773e-07
0.0249795 2.25875e-21 0.00428505 7.36864e-06
-0.0243749 0 0.00695738 2.29945e-07
0.024375 1.69407e-21 0.00695742 4.52967e-07
-0.0243749 0 0.00697053 2.29217e-07
0.024375 0 0.0069706 4.5805e-07
-0.0246321 0 0.00606147 1.35037e-07
0.0246322 0 0.00606153 3.96489e-07
-0.0245423 -3.01167e-21 0.00675073 2.14366e-07
0.0245424 7.52918e-21 0.00675076 3.87645e-07