# kMean  POINT_DATA 29002
# x  y  z  kMean
-1.35525e-20 0.014142 8.40343e-08 4.08424e-07
1.35525e-20 -0.014142 8.40343e-08 5.13105e-08
-6.77626e-21 0.014142 0.000246012 4.01626e-07
6.77626e-21 -0.014142 0.000246012 5.14747e-08
3.38813e-21 0.014142 0.000413825 4.2297e-07
-6.77626e-21 -0.014142 0.000413826 4.9971e-08
0 0.014142 0.000659755 4.93555e-07
-1.35525e-20 -0.014142 0.000659755 4.56145e-08
1.01644e-20 0.014142 0.000918785 5.44104e-07
3.38813e-21 -0.014142 0.000918783 4.15618e-08
6.77626e-21 0.014142 0.00109556 5.57509e-07
3.38813e-21 -0.014142 0.00109556 4.03959e-08
1.35525e-20 0.014142 0.00135458 5.47437e-07
0 -0.014142 0.00135458 4.12852e-08
3.38813e-21 0.014142 0.00162762 5.08135e-07
-6.77626e-21 -0.014142 0.00162761 4.28346e-08
-1.35525e-20 -0.014252 0.000123092 5.09111e-08
0 0.014252 0.000123069 4.03467e-07
-1.35525e-20 -0.0142534 8.87871e-08 5.09124e-08
0 0.0142534 8.87841e-08 4.03463e-07
-3.38813e-21 0.014142 0.00181396 5.44101e-07
-6.77626e-21 -0.014142 0.00181396 4.64919e-08
0 -0.014252 0.000530042 4.72644e-08
0 0.014252 0.000530052 4.5523e-07
1.35525e-20 0.0142482 0.000775283 5.1805e-07
0 -0.0142482 0.000775286 4.29134e-08
-1.35525e-20 0.014142 0.002087 7.09307e-07
1.35525e-20 -0.014142 0.002087 5.91736e-08
0 -0.0142482 0.00119841 4.01225e-08
0 0.0142482 0.00119841 5.50139e-07
0 0.0142437 0.00144425 5.23699e-07
0 -0.0142438 0.00144425 4.145e-08
0 0.0142437 0.00188148 6.08091e-07
-1.35525e-20 -0.0142437 0.00188149 5.00315e-08
-1.35525e-20 0.014376 9.02294e-08 5.67666e-07
0 -0.014376 9.02309e-08 1.37336e-07
0 0.0143755 0.000639191 5.02122e-07
0 -0.0143755 0.000639192 8.22088e-08
-6.77626e-21 0.0142627 0.00213224 7.6882e-07
-6.77626e-21 -0.0142627 0.00213225 5.85362e-08
-1.35525e-20 0.0143001 0.00203568 7.39722e-07
-1.35525e-20 -0.0143001 0.00203569 5.70583e-08
0 -0.0144128 0.000955786 3.80015e-08
1.35525e-20 0.0144128 0.000955783 5.77914e-07
0 0.0143938 0.00157761 5.06928e-07
1.35525e-20 -0.0143938 0.00157762 4.12875e-08
0 -0.0143748 0.00187233 4.39571e-08
6.77626e-21 0.0143748 0.00187232 5.60731e-07
0 0.0144696 0.00124239 4.14843e-07
2.25875e-21 -0.0144696 0.00124239 2.94657e-08
0 0.014375 0.00217431 7.98195e-07
-1.35525e-20 -0.014375 0.00217431 6.83371e-08
-4.51751e-21 -0.0145417 0.000318493 1.24561e-07
-2.25875e-21 0.0145417 0.000318489 5.42233e-07
-1.35525e-20 -0.0145497 9.54667e-08 1.42511e-07
0 0.0145497 9.54641e-08 5.81671e-07
0 -0.0145346 0.00078231 8.23597e-08
1.35525e-20 0.0145346 0.000782317 5.5291e-07
2.71051e-20 0.0145143 0.00222654 8.15444e-07
0 -0.0145144 0.00222654 7.15769e-08
1.16165e-20 0.0146115 0.0016294 4.46008e-07
0 -0.0146115 0.00162941 3.39189e-08
0 -0.0145852 0.00194437 5.99471e-08
0 0.0145842 0.00194387 7.16472e-07
1.35525e-20 -0.0147196 1.04733e-07 2.46537e-07
-2.71051e-20 0.0147196 1.0473e-07 8.22316e-07
-2.11758e-22 0.0145943 0.00194493 7.24863e-07
-1.05879e-22 -0.0145945 0.00194498 6.0726e-08
0 -0.014709 0.000900688 3.81312e-08
2.25875e-21 0.014709 0.000900686 3.27352e-07
-2.71051e-20 0.0145865 0.0022536 9.1504e-07
0 -0.0145866 0.00225361 8.16901e-08
4.51751e-21 0.014697 0.00143077 2.57155e-07
0 -0.014697 0.00143078 1.94453e-08
-1.35525e-20 -0.0148082 0.000136863 3.15084e-07
0 0.0148082 0.000136848 9.43794e-07
1.35525e-20 -0.0148167 9.37199e-08 3.11217e-07
-1.35525e-20 0.0148167 9.37185e-08 9.39022e-07
0 -0.0148641 8.83388e-08 2.85777e-07
0 0.0148641 8.83383e-08 9.54129e-07
-5.16287e-21 -0.0148597 0.000623839 1.33884e-07
-6.45358e-21 0.0148597 0.000623837 5.66014e-07
-1.50584e-21 -0.0148445 0.00116564 2.11532e-08
-3.76459e-21 0.0148445 0.00116563 2.46342e-07
0 0.0147312 0.00230781 1.0499e-06
-2.71051e-20 -0.0147313 0.00230783 9.36187e-08
0 0.014833 0.00159147 3.51906e-07
-5.01544e-37 -0.014833 0.00159148 2.6727e-08
0 -0.015 7.49105e-08 2.67501e-07
1.35525e-20 0.015 7.49089e-08 1.13257e-06
3.76459e-22 0.014988 0.00205398 1.05568e-06
9.41148e-23 -0.014988 0.00205397 9.19459e-08
-6.77626e-21 -0.0151759 0.000230596 3.08553e-07
6.77626e-21 0.015176 0.000230601 1.24427e-06
0 -0.015 0.00240853 1.04414e-07
3.38813e-21 0.015 0.00240854 1.13154e-06
0 -0.0152018 0.000843053 6.18221e-08
4.51751e-21 0.0152018 0.000843049 3.17162e-07
2.37169e-20 0.0150362 0.00242211 1.13044e-06
1.69407e-20 -0.0150362 0.00242211 1.04536e-07
4.51751e-21 -0.015201 0.00143422 1.8614e-08
-4.51751e-21 0.015201 0.00143421 2.22144e-07
1.35525e-20 -0.0152989 2.20785e-08 3.74001e-07
-1.35525e-20 0.015299 2.20802e-08 1.36078e-06
-3.38813e-21 0.015119 0.00245307 1.1444e-06
-3.38813e-21 -0.015119 0.0024531 1.06803e-07
2.71051e-20 -0.015396 0.000531605 2.64387e-07
-2.71051e-20 0.015396 0.000531602 8.31599e-07
1.35525e-20 -0.0154492 8.76997e-09 4.91327e-07
-1.35525e-20 0.0154492 8.76943e-09 1.38045e-06
-2.71051e-20 -0.0154135 0.00109937 3.34471e-08
0 0.0154136 0.00109937 2.55208e-07
-1.35525e-20 0.0152769 0.00251208 1.16176e-06
0 -0.0152769 0.0025121 1.07664e-07
-2.71051e-20 0.0153864 0.00178851 5.33907e-07
0 -0.0153864 0.00178851 4.22279e-08
-1.01644e-20 0.0153097 0.00239045 1.15178e-06
-1.01644e-20 -0.0153097 0.00239045 1.07779e-07
0 -0.0153854 0.00225223 1.02042e-07
1.12938e-21 0.0153854 0.00225223 1.11603e-06
0 -0.0156088 7.21589e-09 5.54658e-07
1.35525e-20 0.0156089 7.21525e-09 1.45798e-06
-2.71051e-20 -0.0154657 0.00258282 9.77328e-08
0 0.0154657 0.00258282 1.16185e-06
0 -0.0156825 0.000727925 1.25377e-07
-2.25875e-21 0.0156825 0.000727916 4.60758e-07
1.12938e-21 -0.0157225 0.000233524 5.58713e-07
7.90564e-21 0.0157226 0.000233532 1.53035e-06
2.25875e-21 -0.0157184 0.00143038 2.15789e-08
6.77626e-21 0.0157184 0.00143039 2.79707e-07
-8.47033e-22 -0.0156634 0.00226597 7.69465e-08
1.69407e-21 0.0156634 0.00226598 9.52559e-07
-1.35525e-20 0.0156249 0.00254054 1.11943e-06
0 -0.0156249 0.00254053 8.84311e-08
6.77626e-21 0.0156249 0.0026425 1.11342e-06
6.77626e-21 -0.0156249 0.00264251 8.5878e-08
9.03502e-21 0.0157603 0.00197874 5.04109e-07
0 -0.0157603 0.00197874 3.59428e-08
1.35525e-20 0.0159582 4.57725e-09 1.77022e-06
0 -0.0159583 4.5756e-09 5.56612e-07
-1.35525e-20 -0.0157578 0.00269219 8.08851e-08
2.71051e-20 0.0157578 0.00269219 1.1215e-06
1.35525e-20 -0.0158038 0.0025027 8.33119e-08
5.42101e-21 0.0158038 0.00250271 1.12718e-06
6.77626e-21 -0.0160273 0.000416841 3.49141e-07
6.77626e-21 0.0160274 0.00041683 1.59994e-06
-1.35525e-20 -0.0160956 3.28585e-09 4.95171e-07
0 0.0160956 3.28679e-09 1.9219e-06
-1.35525e-20 -0.0161395 0.000104077 4.37351e-07
1.35525e-20 0.0161396 0.000104165 1.94147e-06
0 0.0160608 0.0017677 4.86148e-07
0 -0.0160608 0.00176769 3.5193e-08
7.52918e-22 -0.0161372 0.0008471 1.25622e-07
3.76459e-21 0.0161373 0.000847085 1.05487e-06
0 -0.0161599 3.02539e-09 4.43997e-07
1.35525e-20 0.0161601 3.0262e-09 1.93375e-06
0 -0.0159573 0.00276704 1.00246e-07
0 0.0159573 0.00276704 1.41726e-06
-2.25875e-21 -0.0160615 0.00225482 5.53016e-08
-6.77626e-21 0.0160615 0.00225485 8.04282e-07
1.35525e-20 -0.0162498 2.49159e-09 4.24183e-07
-1.35525e-20 0.0162501 2.49177e-09 2.1722e-06
1.6263e-20 -0.0163211 0.00143744 3.13043e-08
-2.71051e-20 0.0163211 0.00143746 3.99164e-07
1.6263e-20 0.0163242 0.00197494 3.85612e-07
0 -0.0163242 0.00197494 2.44152e-08
-1.35525e-20 0.0162498 0.00287804 1.63908e-06
2.37169e-20 -0.0162499 0.00287808 1.04651e-07
-2.37169e-20 -0.0165397 1.49574e-09 3.27206e-07
3.04932e-20 0.0165398 1.49534e-09 2.69018e-06
6.77626e-21 -0.016295 0.00289505 1.05036e-07
9.03502e-21 -0.0165484 0.000259337 3.19005e-07
-1.01644e-20 0.0162953 0.00289514 1.66724e-06
-4.51751e-21 0.0165485 0.000259312 2.8013e-06
2.25875e-21 -0.0163611 0.00261002 9.4294e-08
2.25875e-21 0.0163611 0.00261004 1.49036e-06
-2.37169e-20 -0.0166019 1.3988e-09 3.25511e-07
3.38813e-21 0.0166021 1.39827e-09 2.83365e-06
-1.807e-21 -0.0167776 0.000787901 1.54775e-07
9.03502e-22 0.0167777 0.000787893 1.99942e-06
-1.35525e-20 -0.0168222 8.08296e-10 3.24161e-07
1.35525e-20 0.0168225 8.07382e-10 3.20522e-06
-6.77626e-21 -0.0167552 0.00167721 2.49087e-08
-4.51751e-21 0.0167552 0.00167721 4.20405e-07
2.71051e-20 -0.0165883 0.00300631 1.02343e-07
2.71051e-20 0.0165884 0.00300634 1.74286e-06
9.03502e-21 -0.0167309 0.00229146 4.49391e-08
4.51751e-21 0.0167309 0.00229155 7.71028e-07
1.35525e-20 -0.0169395 0.000138934 3.38757e-07
1.35525e-20 0.0169397 0.000138909 3.52795e-06
0 -0.0169618 4.51221e-10 3.4479e-07
0 0.016962 4.50664e-10 3.51626e-06
0 -0.0170688 0.000345436 3.32311e-07
-1.35525e-20 0.0170689 0.000345447 3.94867e-06
-6.77626e-21 -0.0168116 0.00309149 1.14972e-07
6.77626e-21 0.0168118 0.00309158 2.0494e-06
0 -0.0170877 0.00125519 3.50685e-08
0 0.0170878 0.0012552 7.1324e-07
3.38813e-21 0.0168748 0.00299168 2.06603e-06
0 -0.016875 0.00299095 1.14988e-07
6.77626e-21 0.0168748 0.00311544 2.02728e-06
3.38813e-21 -0.0168751 0.00311552 1.11588e-07
-2.25875e-21 -0.0169694 0.00276077 1.02375e-07
-2.25875e-21 0.0169696 0.0027608 1.86081e-06
-5.42101e-20 -0.0170755 0.00207925 2.12415e-08
0 0.0170755 0.00207928 3.41703e-07
6.77626e-21 -0.0173112 7.14994e-11 3.01425e-07
0 0.0173113 7.13385e-11 3.97492e-06
0 -0.0170862 0.00319594 9.49649e-08
2.71051e-20 0.0170864 0.00319602 1.86779e-06
-6.77626e-21 -0.0174106 5.80413e-05 2.9388e-07
0 0.0174107 5.80305e-05 4.19363e-06
1.12938e-20 -0.017396 0.000777646 1.70286e-07
9.03502e-21 0.0173961 0.000777647 2.67733e-06
-6.77626e-21 -0.0174228 5.17378e-11 2.95088e-07
-6.77626e-21 0.0174229 5.16473e-11 4.17932e-06
6.77626e-21 -0.0174571 4.89779e-11 2.9985e-07
0 0.0174572 4.88992e-11 4.21272e-06
-2.25875e-21 -0.0174062 0.00167743 3.59952e-08
2.25875e-21 0.0174063 0.00167744 5.92461e-07
6.77626e-21 -0.0174999 4.75457e-11 2.9545e-07
-6.77626e-21 0.0175 4.74696e-11 4.31073e-06
6.77626e-21 -0.0174999 5.74012e-05 2.9489e-07
0 0.0175 5.73934e-05 4.32844e-06
1.35525e-20 -0.0172465 0.00325641 8.44424e-08
2.03288e-20 0.0172466 0.00325643 1.90302e-06
0 -0.0172985 0.00306859 8.51631e-08
0 0.0172985 0.00306881 1.8911e-06
9.03502e-21 -0.0174314 0.00258926 5.50119e-08
-5.64689e-22 0.0174315 0.00258926 1.10192e-06
1.69407e-21 -0.0174509 0.00333352 7.019e-08
1.69407e-21 0.0174516 0.00333379 1.69896e-06
2.71051e-20 -0.0177427 0.00123867 5.54308e-08
0 0.0177428 0.0012387 9.44011e-07
0 -0.0174775 0.0033206 6.8812e-08
0 0.0174778 0.00332108 1.67724e-06
0 -0.0174819 0.00334524 6.76807e-08
0 0.0174821 0.0033453 1.65881e-06
0 -0.0178052 0.000414147 2.3505e-07
5.42101e-20 0.0178053 0.000414151 5.08473e-06
0 0.0174998 0.00331875 1.63716e-06
0 -0.0174999 0.00331824 6.67379e-08
0 0.0174997 0.00334099 1.6475e-06
1.69407e-21 -0.0174999 0.00334085 6.64634e-08
0 0.0174997 0.00335193 1.64208e-06
0 -0.0174999 0.00335198 6.5909e-08
-6.77626e-21 0.0178185 2.63056e-11 4.88143e-06
-6.77626e-21 -0.0178186 2.63406e-11 2.60997e-07
0 -0.0177179 0.00210726 3.27804e-08
2.71051e-20 0.017718 0.0021073 3.9515e-07
4.51751e-21 -0.0176365 0.00303796 6.56346e-08
-4.51751e-21 0.0176366 0.00303803 1.51782e-06
0 -0.017647 0.00304321 6.48443e-08
0 0.0176471 0.00304328 1.50241e-06
-2.71051e-20 -0.0177836 0.00345876 4.50771e-08
-1.35525e-20 0.0177837 0.00345884 1.48477e-06
0 0.0181317 5.24975e-05 5.48491e-06
0 -0.0181317 5.24752e-05 2.2046e-07
0 0.0181326 7.40766e-12 5.4574e-06
-6.77626e-21 -0.0181326 7.41305e-12 2.2044e-07
-2.25875e-21 -0.0180574 0.00168505 6.52586e-08
6.77626e-21 0.0180574 0.00168508 7.64958e-07
2.82344e-22 0.0181176 0.000826155 3.46487e-06
3.76459e-22 -0.0181176 0.000826124 1.50364e-07
-1.35525e-20 -0.0178454 0.00337451 4.58926e-08
2.71051e-20 0.0178455 0.00337466 1.50374e-06
0 -0.0181788 1.20855e-12 2.1903e-07
6.77626e-21 0.0181788 1.20217e-12 5.55907e-06
4.51751e-21 -0.0180124 0.00254465 4.96818e-08
0 0.0180125 0.00254474 7.40378e-07
6.77626e-21 -0.018224 6.69062e-05 2.17284e-07
0 0.0182241 6.69481e-05 5.67914e-06
6.77626e-21 -0.0182304 9.59096e-13 2.17059e-07
0 0.0182305 9.55143e-13 5.68097e-06
0 -0.0179191 0.00350977 4.58582e-08
0 0.0179192 0.00350979 1.57566e-06
-4.51751e-22 -0.0180614 0.00308264 4.07657e-08
2.25875e-21 0.0180616 0.0030827 1.1986e-06
0 -0.0184102 0.00127251 9.36406e-08
-2.71051e-20 0.0184102 0.00127252 1.29916e-06
1.35525e-20 0.0181249 0.00358718 1.62594e-06
-6.77626e-21 -0.018125 0.00358724 3.84269e-08
2.71051e-20 -0.0183572 0.0021069 7.73118e-08
-2.71051e-20 0.0183573 0.00210693 4.23111e-07
0 -0.0184759 0.00044774 2.06003e-07
0 0.0184759 0.000447749 6.17558e-06
-1.35525e-20 -0.0182298 0.00362666 3.45309e-08
6.77626e-21 0.0182303 0.00362685 1.61184e-06
-4.51751e-21 -0.0182763 0.00343588 3.63054e-08
9.03502e-21 0.0182764 0.00343606 1.58684e-06
2.71051e-20 -0.0183952 0.00281538 2.7406e-08
-2.71051e-20 0.0183953 0.00281544 4.64202e-07
0 -0.0187499 4.64953e-13 1.97055e-07
0 0.01875 4.62741e-13 6.33893e-06
-6.77626e-21 -0.0187499 9.91369e-05 1.97024e-07
0 0.01875 9.91108e-05 6.34822e-06
0 -0.0187019 0.00167404 1.35905e-07
2.82344e-22 0.018702 0.00167409 1.15346e-06
-2.71051e-20 -0.0184505 0.00370969 2.79155e-08
2.71051e-20 0.0184507 0.00370979 1.52365e-06
0 -0.0188246 9.05506e-14 1.97295e-07
0 0.0188247 9.24758e-14 6.38789e-06
-4.51751e-21 0.0188279 0.000901801 3.95268e-06
2.25875e-21 -0.0188279 0.000901792 1.70604e-07
0 -0.018889 0.000100088 1.94427e-07
0 0.0188891 0.000100053 6.47339e-06
5.64689e-22 -0.0187319 0.00243381 9.25731e-08
2.82344e-22 0.0187319 0.00243385 5.32182e-07
0 -0.0188925 7.49718e-14 1.94418e-07
6.77626e-21 0.0188926 7.69407e-14 6.47329e-06
-1.35525e-20 -0.0185631 0.00375372 2.5222e-08
0 0.0185633 0.00375376 1.5183e-06
1.35525e-20 -0.0185979 0.00364125 2.54395e-08
2.71051e-20 0.018598 0.00364145 1.51582e-06
7.52918e-22 -0.0187015 0.0032345 3.52343e-08
-2.63521e-21 0.0187015 0.00323454 1.01336e-06
-6.77626e-21 0.0187498 0.00382104 1.43649e-06
0 -0.0187499 0.00382109 1.97013e-08
6.77626e-21 -0.0191944 6.21354e-14 1.82953e-07
6.77626e-21 0.0191945 6.31148e-14 6.79808e-06
-2.71051e-20 0.019206 0.000471802 6.76303e-06
0 -0.0192061 0.000471779 1.83372e-07
0 -0.0191593 0.00145147 2.42267e-07
2.71051e-20 0.0191594 0.00145147 1.48296e-06
0 -0.0188253 0.00385016 1.82202e-08
0 0.0188256 0.00385027 1.42482e-06
2.71051e-20 -0.0190073 0.00284619 7.36726e-08
0 0.0190073 0.00284625 4.01475e-07
2.71051e-20 -0.0191388 0.00196705 2.46178e-07
2.71051e-20 0.0191388 0.0019671 9.79276e-07
0 -0.0188685 0.00376942 1.83831e-08
-6.77626e-21 0.018869 0.0037691 1.42874e-06
-3.01167e-21 -0.0189582 0.00362216 1.92173e-08
6.02335e-21 0.0189583 0.00362229 1.36007e-06
0 -0.0189216 0.00388925 1.65083e-08
-6.77626e-21 0.0189225 0.00388962 1.41935e-06
0 -0.0193512 0.00171027 2.54004e-07
2.71051e-20 0.0193513 0.00171028 1.32671e-06
-1.8823e-22 0.0194091 0.000938214 4.38728e-06
-9.41148e-22 -0.0194091 0.000938238 1.94221e-07
0 0.0194665 1.03809e-13 7.07636e-06
6.77626e-21 -0.0194667 1.03982e-13 1.72918e-07
-6.77626e-21 0.0194675 3.87291e-05 7.07549e-06
-6.77626e-21 -0.0194677 3.87998e-05 1.72917e-07
0 -0.0193303 0.00249034 1.93198e-07
2.25875e-21 0.0193304 0.00249034 6.84779e-07
0 -0.0191251 0.00398458 1.13001e-08
0 0.0191255 0.00398476 1.35887e-06
4.51751e-21 -0.0192993 0.00322371 9.00388e-08
2.25875e-21 0.0192993 0.00322385 7.35926e-07
1.35525e-20 -0.0191697 0.00393391 1.15646e-08
2.71051e-20 0.0191699 0.0039342 1.37048e-06
-2.71051e-20 -0.0195789 0.00146067 2.78799e-07
-2.71051e-20 0.019579 0.00146066 1.80105e-06
0 -0.0192179 0.00403218 1.27278e-08
0 0.019218 0.00403225 1.4597e-06
0 -0.0195388 0.00196492 2.99523e-07
0 0.0195389 0.00196497 1.14289e-06
0 0.0196412 8.27607e-14 7.16163e-06
0 -0.0196416 8.29008e-14 1.6931e-07
0 0.0196919 0.000506616 7.359e-06
0 -0.019692 0.000506602 1.63628e-07
4.51751e-22 -0.0193628 0.00368329 2.35364e-08
-3.38813e-22 0.019363 0.00368341 1.06965e-06
0 0.0193747 0.00398015 1.5207e-06
0 -0.019375 0.00397997 1.24525e-08
1.35525e-20 0.0193748 0.00411568 1.57173e-06
-6.77626e-21 -0.0193751 0.00411583 1.22771e-08
0 -0.0196515 0.00282152 2.51317e-07
2.71051e-20 0.0196515 0.00282158 6.3189e-07
-2.71051e-20 -0.0196711 0.00346851 5.18496e-08
5.42101e-20 0.0196711 0.0034686 4.20143e-07
0 -0.0195407 0.00420391 1.16576e-08
-6.77626e-21 0.0195414 0.00420428 1.60943e-06
-1.35525e-20 0.0199999 7.50372e-14 7.43564e-06
-1.35525e-20 -0.02 7.50292e-14 1.59212e-07
-1.35525e-20 -0.02 0.000219893 1.59193e-07
1.35525e-20 0.02 0.000219865 7.43918e-06
2.71051e-21 -0.0196482 0.00405846 1.07707e-08
5.42101e-21 0.0196485 0.0040588 1.54917e-06
7.05861e-23 -0.0199968 0.00175177 4.98986e-07
-6.35275e-22 0.0199969 0.00175158 1.68367e-06
-2.71051e-20 0.0201205 2.66818e-14 7.43679e-06
2.71051e-20 -0.0201205 2.6706e-14 1.59339e-07
4.51751e-21 0.0201123 0.00105023 4.79986e-06
-4.51751e-21 -0.0201123 0.00105023 3.3882e-07
1.8823e-22 0.0200024 0.00235162 1.06254e-06
9.41148e-23 -0.0200024 0.00235148 4.79957e-07
-1.35525e-20 -0.0197164 0.0042974 1.13823e-08
-2.71051e-20 0.0197167 0.00429758 1.56841e-06
-1.12938e-21 -0.0199624 0.00315678 2.8589e-07
1.12938e-21 0.0199624 0.00315685 5.9941e-07
-1.35525e-20 -0.0198178 0.00435143 1.2104e-08
-1.35525e-20 0.0198179 0.00435149 1.5708e-06
0 -0.0198553 0.00424317 1.17623e-08
1.35525e-20 0.0198553 0.00424344 1.55999e-06
0 0.0203123 6.21673e-15 7.5718e-06
0 -0.0203123 6.15453e-15 1.53286e-07
0 0.0203177 0.000130837 7.57137e-06
0 -0.0203178 0.000130887 1.53198e-07
-9.41148e-22 -0.0199698 0.00385615 5.92967e-08
5.64689e-22 0.0199699 0.00385623 1.03652e-06
0 -0.0202712 0.00281164 6.56607e-07
0 0.0202712 0.00281169 8.85132e-07
6.77626e-21 0.0199999 0.00444852 1.53876e-06
0 -0.0200001 0.00444866 1.1834e-08
0 -0.0200603 0.00448072 1.19957e-08
0 0.0200605 0.00448086 1.54895e-06
-2.71051e-20 -0.0202704 0.00349441 2.0948e-07
0 0.0202704 0.00349451 4.82998e-07
0 -0.0201016 0.00441287 1.19203e-08
-3.38813e-21 0.0201022 0.00441245 1.5532e-06
-1.35525e-20 -0.0201267 0.00451611 1.34164e-08
6.77626e-21 0.0201275 0.00451657 1.55085e-06
0 -0.0202111 0.00425017 1.54075e-08
7.52918e-22 0.0202112 0.00425035 1.48465e-06
-5.42101e-20 -0.0206398 0.00178223 9.85936e-07
0 0.0206398 0.00178224 2.22252e-06
5.42101e-20 0.0207252 0.000539947 7.7374e-06
0 -0.0207252 0.000539947 1.47271e-07
-5.64689e-23 -0.0206014 0.00245361 1.02101e-06
-1.12938e-22 0.0206014 0.00245364 1.45811e-06
0 -0.0205843 0.00315109 7.07961e-07
3.38813e-21 0.0205843 0.00315114 9.07897e-07
1.35525e-20 -0.0203415 0.00463057 1.53926e-08
-1.35525e-20 0.0203419 0.00463079 1.51558e-06
2.71051e-20 -0.0203948 0.00457252 1.59861e-08
1.35525e-20 0.0203951 0.00457287 1.52842e-06
-4.51751e-21 -0.0205501 0.00386543 2.10157e-07
0 0.0205501 0.0038656 8.41743e-07
-2.71051e-20 -0.0204458 0.00468612 2.31515e-08
0 0.020446 0.00468621 1.65039e-06
-4.51751e-22 -0.0206078 0.00431767 5.25298e-08
-1.12938e-22 0.0206079 0.0043178 1.21634e-06
0 -0.0209209 0.00278889 1.40134e-06
0 0.0209209 0.00278892 1.53512e-06
1.35525e-20 0.0206249 0.00478151 1.8159e-06
0 -0.0206251 0.00478166 3.56391e-08
0 -0.0208847 0.00349062 5.69476e-07
2.71051e-20 0.0208848 0.00349071 7.37082e-07
0 0.0212499 5.88891e-15 7.9037e-06
0 -0.02125 5.846e-15 2.10604e-07
-1.35525e-20 0.0212499 9.47421e-05 7.90199e-06
-1.35525e-20 -0.02125 9.47488e-05 2.103e-07
-3.38813e-20 -0.0207393 0.0048425 4.03208e-08
2.71051e-20 0.0207401 0.00484287 1.86365e-06
0 -0.0207851 0.00466132 3.41781e-08
0 0.0207852 0.0046616 1.77229e-06
2.71051e-20 -0.0209257 0.00410299 1.37227e-07
0 0.0209258 0.00410311 5.45681e-07
-4.51751e-21 0.0213163 0.00115801 5.47874e-06
2.25875e-21 -0.0213163 0.00115801 9.07793e-07
-1.35525e-20 0.0213762 3.47416e-16 7.93007e-06
0 -0.0213763 3.52781e-16 2.19083e-07
-2.25875e-21 0.0212885 0.0023263 2.26237e-06
-1.12938e-21 -0.0212885 0.00232628 1.86626e-06
-2.25875e-21 -0.021208 0.00309795 1.54529e-06
2.82344e-21 0.021208 0.00309804 1.49654e-06
0 0.0214867 0.000108918 7.98028e-06
0 -0.0214868 0.000108929 2.20734e-07
0 0.021494 4.39082e-16 7.97987e-06
1.35525e-20 -0.0214941 4.44414e-16 2.20553e-07
0 -0.0209342 0.00494631 4.17883e-08
-1.35525e-20 0.0209345 0.00494647 1.84516e-06
0 -0.0212468 0.00376747 7.35237e-07
-2.77403e-20 0.0212469 0.00376434 8.72167e-07
2.71051e-20 -0.0210473 0.00500657 4.37748e-08
1.35525e-20 0.0210475 0.00500662 1.86114e-06
1.35525e-20 -0.0210904 0.00488635 4.28383e-08
1.35525e-20 0.0210904 0.00488661 1.84296e-06
-2.25875e-21 -0.021209 0.00450257 1.38683e-07
1.8823e-21 0.021209 0.00450263 1.25555e-06
0 -0.0216448 0.00289598 2.91348e-06
0 0.0216448 0.00289599 2.24837e-06
0 0.0212499 0.0051145 1.84042e-06
-1.69407e-20 -0.0212502 0.00511463 4.81235e-08
3.38813e-21 -0.0212808 0.00513096 4.92674e-08
0 0.0212811 0.00513109 1.85194e-06
5.42101e-20 -0.0216428 0.0033368 2.40514e-06
-2.71051e-20 0.0216428 0.00333687 1.87989e-06
0 -0.0213032 0.00509534 4.94612e-08
0 0.0213038 0.00509491 1.85572e-06
2.71051e-20 -0.0215146 0.00414921 4.20925e-07
0 0.0215147 0.00414931 6.97024e-07
-3.38813e-21 -0.0213149 0.00514909 5.11111e-08
0 0.0213156 0.0051495 1.85069e-06
-5.42101e-20 0.0219709 0.000580197 8.13906e-06
0 -0.0219709 0.000580199 2.81766e-07
-4.51751e-21 -0.0214405 0.004897 5.85135e-08
1.50584e-21 0.0214407 0.00489715 1.77348e-06
0 -0.0219196 0.00179912 2.2771e-06
0 0.0219196 0.00179913 3.57996e-06
1.41172e-22 -0.0218787 0.00244236 2.78679e-06
7.05861e-23 0.0218787 0.00244239 2.77799e-06
-2.71051e-20 -0.0218432 0.00311327 2.84206e-06
0 0.0218433 0.0031133 2.26707e-06
7.52918e-22 -0.0218301 0.0038218 1.4922e-06
-1.50584e-21 0.0218301 0.00382182 1.38903e-06
0 -0.0215576 0.00527841 5.91793e-08
0 0.021558 0.0052786 1.8014e-06
-2.71051e-20 -0.0216182 0.00521393 6.11523e-08
-1.35525e-20 0.0216184 0.00521423 1.81766e-06
2.71051e-20 -0.0220639 0.00288704 3.59692e-06
0 0.022064 0.00288704 2.80435e-06
-2.25875e-21 -0.0217938 0.00451153 5.26691e-07
3.76158e-37 0.0217939 0.00451169 1.16369e-06
-2.71051e-20 -0.0220345 0.00332363 2.9148e-06
-2.71051e-20 0.0220345 0.0033237 2.41712e-06
2.71051e-20 -0.0216749 0.00534089 8.40755e-08
-2.71051e-20 0.021675 0.00534096 1.97816e-06
2.25875e-22 -0.0218357 0.0049688 1.37273e-07
-1.35525e-21 0.0218359 0.0049689 1.49084e-06
1.35525e-20 -0.0225 -1.52821e-17 4.69639e-07
0 0.0225 -1.57465e-17 8.63687e-06
0 -0.0225 8.45373e-05 4.71186e-07
0 0.0225 8.45231e-05 8.6409e-06
0 -0.0221466 0.00413235 1.54338e-06
0 0.0221467 0.00413241 1.41358e-06
6.77626e-21 0.0218749 0.00544743 2.15991e-06
-1.35525e-20 -0.0218752 0.00544758 1.23114e-07
1.35525e-20 0.0225909 4.65266e-17 8.69586e-06
0 -0.0225909 4.69287e-17 5.0367e-07
1.12938e-21 0.0225622 0.00117125 6.71145e-06
-5.64689e-21 -0.0225622 0.00117125 1.94325e-06
-3.38813e-21 -0.0219451 0.00548483 1.30572e-07
1.01644e-20 0.0219457 0.00548514 2.19511e-06
-4.51751e-21 -0.0220187 0.00530662 1.14822e-07
-4.51751e-21 0.0220188 0.00530685 2.10397e-06
-2.71051e-20 -0.0221547 0.00476019 3.11942e-07
-2.71051e-20 0.0221548 0.0047603 7.84003e-07
0 0.0226735 8.15432e-05 8.71336e-06
0 -0.0226735 8.15576e-05 5.26625e-07
0 0.0226781 2.50202e-17 8.71201e-06
1.35525e-20 -0.0226781 2.52055e-17 5.26835e-07
3.38813e-21 -0.0225519 0.00239249 4.29297e-06
1.12938e-21 0.0225519 0.00239251 4.12326e-06
-5.64689e-22 -0.0224875 0.00303825 4.42967e-06
0 0.0224874 0.00303838 3.39072e-06
1.27055e-21 -0.0224629 0.00366675 3.22421e-06
0 -0.0225 0.00357657 3.49151e-06
3.5293e-22 0.0224954 0.00364647 2.51779e-06
4.23516e-22 -0.0225054 0.00366219 3.32964e-06
1.69407e-21 -0.0225 0.00370544 3.22642e-06
-1.35525e-20 -0.0221583 0.00559842 1.33056e-07
1.35525e-20 0.0221586 0.00559854 2.22968e-06
8.47033e-22 -0.0225595 0.00366878 3.54065e-06
-4.51751e-21 -0.0224493 0.00445918 1.52829e-06
3.38813e-21 0.0224493 0.00445926 1.3817e-06
0 -0.0222813 0.00566396 1.33797e-07
2.71051e-20 0.0222814 0.00566399 2.26303e-06
0 -0.0223283 0.0055339 1.31649e-07
0 0.0223283 0.00553411 2.23388e-06
2.25875e-21 -0.022442 0.0051554 3.55692e-07
-5.64689e-21 0.0224422 0.00515546 1.58772e-06
0 -0.0227594 0.00412239 3.32644e-06
-2.71051e-20 0.0227594 0.00412245 2.31613e-06
5.42101e-20 0.0231923 0.000587091 9.2497e-06
0 -0.0231923 0.000587093 7.2619e-07
0 0.0225 0.00578038 2.27154e-06
6.77626e-21 -0.0225001 0.00578047 1.46355e-07
-5.42101e-20 -0.0231697 0.00178812 4.59774e-06
-5.42101e-20 0.0231697 0.00178812 5.72663e-06
8.47033e-22 -0.022509 0.0057852 1.47236e-07
0 0.0225092 0.00578529 2.27708e-06
0 -0.0225156 0.00577475 1.47434e-07
0 0.0225161 0.00577442 2.2783e-06
0 -0.0227517 0.00479277 1.07126e-06
-2.71051e-20 0.0227517 0.00479285 1.09108e-06
6.77626e-21 -0.022519 0.00579052 1.48375e-07
-8.47033e-22 0.0225196 0.00579082 2.2771e-06
-5.42101e-20 -0.0231209 0.00309542 7.34897e-06
5.42101e-20 0.0231209 0.00309543 5.01071e-06
6.02335e-21 -0.0226735 0.00554744 1.71225e-07
-6.02335e-21 0.0226736 0.00554757 2.16922e-06
1.12938e-21 -0.0230931 0.0037817 5.56097e-06
-1.8823e-21 0.0230931 0.00378171 3.53164e-06
4.51751e-21 -0.023068 0.00445638 3.41182e-06
0 0.023068 0.00445642 2.25845e-06
1.35525e-20 -0.0227839 0.00593188 1.67903e-07
0 0.0227842 0.005932 2.23813e-06
-1.35525e-20 -0.0228494 0.00586207 1.72928e-07
-1.35525e-20 0.0228495 0.00586228 2.25593e-06
0 -0.0230299 0.00515588 1.09577e-06
4.51751e-21 0.0230299 0.00515601 1.51e-06
0 -0.0229107 0.00599969 2.30767e-07
0 0.0229108 0.00599972 2.47004e-06
1.807e-21 -0.023072 0.00561895 3.6927e-07
3.61401e-21 0.0230721 0.00561903 1.87555e-06
0 -0.0237499 1.53806e-17 9.80789e-07
0 0.0237499 1.52288e-17 1.04916e-05
0 -0.0237499 6.33779e-05 9.8214e-07
0 0.0237499 6.33677e-05 1.04985e-05
-2.71051e-20 -0.0234048 0.00409564 6.66747e-06
2.71051e-20 0.0234048 0.00409567 3.84792e-06
0 0.0238176 -7.65452e-19 1.06423e-05
-1.35525e-20 -0.0238176 -7.74447e-19 1.0149e-06
0 0.0237988 0.00117061 9.06481e-06
2.25875e-21 -0.0237988 0.00117061 3.45771e-06
0 -0.0233657 0.00479034 2.64158e-06
0 0.0233657 0.00479041 1.82014e-06
1.35525e-20 0.023881 6.14989e-05 1.07268e-05
0 -0.023881 6.15082e-05 1.04927e-06
0 0.0238829 -9.01429e-19 1.07264e-05
0 -0.0238829 -9.09767e-19 1.04953e-06
-5.64689e-22 -0.0237728 0.00241912 7.90077e-06
1.69407e-21 0.0237728 0.00241912 7.16123e-06
3.38813e-21 0.0231249 0.00611537 2.69979e-06
0 -0.0231251 0.00611547 3.33444e-07
-3.38813e-21 -0.0231675 0.00613814 3.43567e-07
2.03288e-20 0.0231678 0.00613837 2.7271e-06
0 -0.0232581 0.00596031 3.0655e-07
0 0.0232581 0.00596047 2.62009e-06
0 -0.0234009 0.00540249 8.30273e-07
0 0.0234009 0.00540257 1.0491e-06
-1.31761e-21 0.0237508 0.00364547 5.16437e-06
1.41172e-21 -0.0237509 0.00364542 8.57706e-06
-3.01167e-21 -0.0236805 0.0044373 6.19631e-06
-2.25875e-21 0.0236805 0.00443733 3.39356e-06
1.35525e-20 -0.0233932 0.00626093 3.39388e-07
-2.71051e-20 0.0233933 0.00626104 2.7998e-06
5.64689e-22 -0.0237268 0.00506487 3.04597e-06
-2.82344e-21 0.0237268 0.00506492 1.88627e-06
6.77626e-21 -0.0235127 0.00635105 3.34056e-07
6.77626e-21 0.0235127 0.00635107 2.858e-06
-2.71051e-20 0.0235682 0.00620609 2.80594e-06
0 -0.0235683 0.00620596 3.29862e-07
-3.76459e-22 -0.0236825 0.00581857 8.22008e-07
-1.8823e-21 0.0236825 0.00581861 2.00684e-06
5.42101e-20 0.024425 0.000586041 1.20205e-05
5.42101e-20 -0.024425 0.000586042 1.31163e-06
0 -0.0244106 0.0017889 7.32081e-06
5.42101e-20 0.0244106 0.0017889 9.1832e-06
0 -0.0241349 0.00419976 1.0671e-05
0 0.0241349 0.00419977 5.19431e-06
0 -0.0236698 0.00645559 3.42239e-07
-3.38813e-21 0.0236701 0.00645581 2.86637e-06
0 -0.0237098 0.00644182 3.4275e-07
-3.38813e-21 0.0237098 0.0064421 2.85633e-06
2.71051e-20 -0.0241326 0.00462568 8.55869e-06
0 0.0241326 0.00462574 4.04462e-06
3.38813e-21 -0.02371 0.00648353 3.4115e-07
3.38813e-21 0.02371 0.00648359 2.84275e-06
5.42101e-20 -0.0243927 0.00306992 1.23669e-05
-5.42101e-20 0.0243927 0.00306993 8.61334e-06
0 -0.0239945 0.00544749 2.19909e-06
-2.71051e-20 0.0239946 0.00544754 1.41408e-06
-3.38813e-21 0.02375 0.00643561 2.7815e-06
-6.77626e-21 -0.0237501 0.00643531 3.63632e-07
0 0.02375 0.00647619 2.83145e-06
0 -0.0237501 0.0064761 3.37948e-07
0 0.02375 0.00651289 2.81389e-06
-3.38813e-21 -0.0237501 0.00651298 3.31976e-07
1.12938e-21 -0.0243523 0.00372354 1.16129e-05
-2.82344e-22 0.0243523 0.00372357 6.64023e-06
-9.03502e-21 -0.023909 0.00623587 4.25521e-07
-1.35525e-20 0.0239121 0.00623353 2.70319e-06
-2.71051e-20 -0.0243287 0.00441257 1.03735e-05
2.71051e-20 0.0243287 0.00441259 5.06896e-06
0 -0.0239124 0.00663207 3.058e-07
3.38813e-20 0.0239125 0.00663216 2.69966e-06
2.25875e-21 -0.0243138 0.00512039 6.13437e-06
0 0.0243139 0.00512041 2.86165e-06
-2.71051e-20 -0.0245437 0.00418673 1.29399e-05
2.71051e-20 0.0245437 0.00418673 6.31967e-06
0 -0.0240426 0.00656012 3.11918e-07
-4.06576e-20 0.0240426 0.00656023 2.68833e-06
2.71051e-20 -0.0245161 0.00461185 1.06306e-05
0 0.0245161 0.00461189 5.13318e-06
0 -0.0240315 0.00671934 3.06375e-07
0 0.0240316 0.00671938 2.63213e-06
4.51751e-21 -0.0242758 0.00580919 2.69834e-06
-4.51751e-21 0.0242758 0.00580927 1.98308e-06
0 -0.025 4.25728e-20 1.52716e-06
-6.77626e-21 0.025 4.33043e-20 1.39785e-05
0 0.025 4.32622e-05 1.39827e-05
6.77626e-21 -0.025 4.32621e-05 1.52755e-06
0 -0.025046 -4.79639e-20 1.54557e-06
0 0.025046 -4.77043e-20 1.41338e-05
-2.25875e-21 0.0250354 0.00116998 1.28031e-05
2.25875e-21 -0.0250354 0.00116998 4.92671e-06
-4.06576e-20 -0.0241476 0.00680413 2.8443e-07
0 0.0241477 0.00680414 2.53087e-06
0 0.0250898 4.20523e-05 1.42473e-05
0 -0.0250898 4.20523e-05 1.57047e-06
0 0.0250906 -2.73423e-20 1.42472e-05
0 -0.0250906 -2.74503e-20 1.57062e-06
-1.35525e-20 -0.0241992 0.00668118 2.95724e-07
0 0.0241992 0.00668122 2.56454e-06
-5.64689e-22 0.0250241 0.00240547 1.10638e-05
-1.12938e-21 -0.0250241 0.00240547 1.1803e-05
6.45358e-22 -0.0243359 0.00637899 7.05596e-07
-6.45358e-22 0.0243359 0.00637903 2.13113e-06
0 -0.0246314 0.00542109 7.07644e-06
0 0.0246314 0.00542114 2.6927e-06
0 -0.0250347 0.00367577 1.53964e-05
3.38813e-21 0.0250347 0.00367578 8.82534e-06
1.69407e-21 -0.0243362 0.00694196 2.87133e-07
0 0.0243364 0.00694208 2.43943e-06
0 -0.0243563 0.00693957 2.88544e-07
0 0.0243564 0.0069397 2.43595e-06
0 -0.0243567 0.00695693 2.90972e-07
0 0.0243568 0.00695694 2.43759e-06
0 0.024375 0.00693989 2.40458e-06
0 -0.024375 0.00693977 2.98118e-07
0 -0.0249795 0.00428499 1.4167e-05
0 0.0249795 0.00428507 6.94811e-06
1.69407e-21 0.0243749 0.00695723 2.42753e-06
0 -0.024375 0.00695722 2.89125e-07
0 0.024375 0.00697023 2.42395e-06
1.69407e-21 -0.024375 0.0069703 2.88718e-07
0 -0.0246322 0.00606144 1.9867e-06
0 0.0246322 0.00606149 1.38524e-06
4.51751e-21 -0.0245424 0.00675061 3.50457e-07
3.01167e-21 0.0245425 0.00675063 2.30339e-06