# kMean  POINT_DATA 52043
# x  y  z  kMean
0.014142 -1.35525e-20 8.40343e-08 2.83486e-07
-0.014142 1.35525e-20 8.40343e-08 1.25293e-07
-0.014142 -6.77626e-21 0.000246014 1.21948e-07
0.014142 0 0.000246007 2.86319e-07
-0.014142 6.77626e-21 0.000413822 1.22414e-07
0.014142 -6.77626e-21 0.000413834 3.00986e-07
-0.014142 -1.35525e-20 0.000659755 1.29285e-07
0.014142 0 0.000659755 3.42159e-07
-0.014142 3.38813e-21 0.000918791 1.31334e-07
0.014142 6.77626e-21 0.000918788 3.99037e-07
0.014142 0 0.00109554 4.10775e-07
-0.014142 1.01644e-20 0.00109555 1.3291e-07
0.014142 1.35525e-20 0.00135458 3.89389e-07
-0.014142 1.35525e-20 0.00135458 1.37842e-07
0.014142 -1.01644e-20 0.00162764 3.88773e-07
-0.014142 3.38813e-21 0.00162762 1.39627e-07
-0.014252 0 0.000123103 1.24866e-07
0.014252 -1.35525e-20 0.00012308 2.86083e-07
-0.0142534 0 8.87869e-08 1.24859e-07
0.0142534 -1.35525e-20 8.87839e-08 2.86083e-07
0.014142 3.38813e-21 0.00181395 4.19164e-07
-0.014142 0 0.00181396 1.53081e-07
-0.014252 0 0.000530071 1.25998e-07
0.014252 0 0.000530089 3.21653e-07
-0.0142482 0 0.00077532 1.30597e-07
0.0142482 1.35525e-20 0.00077531 3.72613e-07
0.014142 -1.35525e-20 0.002087 5.28693e-07
-0.014142 1.35525e-20 0.002087 2.0172e-07
-0.0142482 0 0.00119849 1.34369e-07
0.0142482 0 0.00119848 4.00715e-07
0.0142438 0 0.00144431 3.89164e-07
-0.0142438 1.35525e-20 0.00144431 1.3795e-07
0.0142438 1.35525e-20 0.00188165 4.60504e-07
-0.0142438 0 0.00188166 1.69527e-07
0.014376 -1.35525e-20 9.02284e-08 4.29498e-07
-0.014376 0 9.023e-08 1.978e-07
0.0143755 1.35525e-20 0.000639268 3.65996e-07
-0.0143755 0 0.000639267 1.46746e-07
-0.0142629 6.77626e-21 0.00213232 2.08163e-07
0.0142629 6.77626e-21 0.00213231 5.25907e-07
-0.0143002 -1.35525e-20 0.00203592 2.01598e-07
0.0143002 0 0.00203591 5.20189e-07
-0.0144129 -1.35525e-20 0.000955929 1.31675e-07
0.0144129 0 0.000955927 4.01549e-07
0.0143941 1.35525e-20 0.00157783 3.74674e-07
-0.0143941 1.35525e-20 0.00157784 1.40402e-07
-0.0143749 6.77626e-21 0.00187281 1.53279e-07
0.0143749 6.77626e-21 0.0018728 4.16727e-07
-0.0144696 -4.51751e-21 0.00124267 1.01446e-07
0.0144696 4.51751e-21 0.00124266 2.91131e-07
-0.014375 0 0.00217431 2.42049e-07
0.014375 0 0.00217432 6.17179e-07
-0.0145418 0 0.000318554 1.8857e-07
0.0145418 -6.77626e-21 0.000318551 4.11964e-07
-0.0145497 1.35525e-20 9.54658e-08 2.07036e-07
0.0145497 -1.35525e-20 9.54632e-08 4.39081e-07
-0.0145347 -1.35525e-20 0.000782523 1.49526e-07
0.0145347 1.35525e-20 0.000782537 3.9067e-07
-0.0145148 1.35525e-20 0.00222669 2.50781e-07
0.0145148 -1.35525e-20 0.00222669 6.88581e-07
0.0146121 1.93608e-21 0.00162981 3.30577e-07
-0.0146121 7.7443e-21 0.00162982 1.21351e-07
-0.0145852 1.05879e-22 0.00194555 2.05406e-07
0.0145837 -4.87044e-21 0.00194477 6.22239e-07
-0.0147196 0 1.04732e-07 3.01195e-07
0.0147196 0 1.0473e-07 6.48134e-07
0.0146004 -1.27055e-21 0.00194655 6.33224e-07
-0.0146005 2.0117e-21 0.00194659 2.11474e-07
-0.0147092 0 0.000900995 8.12756e-08
0.0147092 4.51751e-21 0.000900993 2.4396e-07
-0.0145873 -8.13152e-20 0.00225387 2.98027e-07
0.0145873 0 0.00225387 7.35332e-07
-0.0146975 -2.25875e-21 0.00143127 6.86936e-08
0.0146975 2.25875e-21 0.00143126 2.10057e-07
-0.0148082 0 0.000136903 3.54966e-07
0.0148083 -1.35525e-20 0.000136875 7.80521e-07
-0.0148167 2.71051e-20 9.37179e-08 3.52584e-07
0.0148167 0 9.37183e-08 7.74765e-07
-0.0148641 -1.35525e-20 8.83354e-08 3.45089e-07
0.0148641 -1.35525e-20 8.83376e-08 7.46767e-07
-0.0148598 -1.29072e-21 0.000624026 1.83653e-07
0.0148598 -2.58143e-21 0.000624027 4.4066e-07
-0.0148447 3.26265e-21 0.00116603 6.00965e-08
0.0148447 -2.25875e-21 0.00116603 1.84897e-07
0.0147327 4.06576e-20 0.00230835 8.6598e-07
-0.0147327 0 0.00230836 3.5498e-07
0.0148335 7.52918e-21 0.0015921 2.81904e-07
-0.0148335 -3.01167e-21 0.00159211 9.95287e-08
0.015 1.35525e-20 7.4908e-08 8.82084e-07
-0.015 -1.35525e-20 7.49029e-08 3.82302e-07
-0.0149884 1.50584e-21 0.00205342 3.61416e-07
0.0149884 1.22349e-21 0.00205341 8.8764e-07
-0.015176 2.25875e-21 0.000230687 4.2033e-07
0.015176 6.77626e-21 0.000230679 9.74561e-07
0.015 -3.38813e-21 0.00240854 9.66884e-07
-0.015 0 0.00240855 4.0916e-07
-0.0152021 -4.51751e-21 0.000843378 8.76483e-08
0.0152021 4.51751e-21 0.000843372 2.4045e-07
-0.0150379 0 0.00242273 4.10853e-07
0.0150379 -3.38813e-21 0.00242272 9.68828e-07
-0.0152016 4.51751e-21 0.0014348 6.58676e-08
0.0152016 -4.51751e-21 0.00143479 1.99164e-07
-0.0152989 0 2.20825e-08 4.73498e-07
0.015299 0 2.20806e-08 1.08063e-06
0.0151247 0 0.00245524 9.97352e-07
-0.0151247 -3.38813e-21 0.00245526 4.19531e-07
0.0153962 -2.71051e-20 0.000531794 6.63348e-07
-0.0153962 -2.71051e-20 0.000531794 3.01284e-07
-0.0154492 -1.35525e-20 8.76993e-09 5.30441e-07
0.0154492 -2.71051e-20 8.76964e-09 1.11461e-06
0.0154139 0 0.00109981 2.17844e-07
-0.0154139 -2.71051e-20 0.00109982 6.87837e-08
-0.0152781 0 0.00251266 4.28988e-07
0.0152781 6.77626e-21 0.00251265 1.03656e-06
0.015387 -2.71051e-20 0.00178913 4.68151e-07
-0.015387 2.71051e-20 0.00178913 1.73163e-07
-0.0153098 0 0.00239462 4.24384e-07
0.0153098 3.38813e-21 0.00239458 1.02683e-06
-0.015387 -2.25875e-21 0.00225338 4.09023e-07
0.015387 0 0.00225337 9.91702e-07
0.0156089 -1.35525e-20 7.21547e-09 1.24088e-06
-0.0156089 0 7.21529e-09 5.57817e-07
0.0154678 0 0.00258382 1.03988e-06
-0.0154678 -1.35525e-20 0.00258382 4.30392e-07
-0.0156827 6.77626e-21 0.00072818 1.53576e-07
0.0156827 -6.77626e-21 0.000728171 4.82076e-07
0.0157226 -1.12938e-21 0.000233621 1.31498e-06
-0.0157226 -3.38813e-21 0.000233615 5.72582e-07
0.0157188 4.51751e-21 0.00143117 2.69751e-07
-0.0157188 1.12938e-20 0.00143117 8.14825e-08
-0.0156648 -1.69407e-21 0.00226708 3.45271e-07
0.0156648 0 0.00226708 8.56658e-07
-0.015625 1.35525e-20 0.00254192 4.07651e-07
0.0156251 0 0.00254193 1.01008e-06
-0.015625 -2.03288e-20 0.00264258 4.03511e-07
0.015625 1.35525e-20 0.00264259 1.00873e-06
-0.015761 -9.03502e-21 0.00197935 1.68551e-07
0.0157611 0 0.00197935 4.66131e-07
0.0159582 0 4.57718e-09 1.50168e-06
-0.0159583 -1.35525e-20 4.57567e-09 6.30502e-07
-0.0157606 0 0.00269322 4.04763e-07
0.0157606 -4.06576e-20 0.00269323 1.03222e-06
-0.0158055 -2.71051e-21 0.0025037 4.10201e-07
0.0158056 2.71051e-21 0.00250371 1.02905e-06
-0.0160275 -4.06576e-20 0.000416984 5.37854e-07
0.0160275 6.77626e-21 0.000416987 1.50028e-06
0.0160955 -1.35525e-20 3.28682e-09 1.63459e-06
-0.0160956 0 3.28517e-09 6.62822e-07
0.0161395 -1.35525e-20 0.000104149 1.76487e-06
-0.0161396 0 0.000104133 6.49113e-07
0.0160615 0 0.00176843 4.98524e-07
-0.0160615 0 0.00176842 1.63448e-07
-0.0161376 1.50584e-21 0.000847369 3.52709e-07
0.0161376 -9.78794e-21 0.000847386 9.46978e-07
0.01616 -1.35525e-20 3.02629e-09 1.73709e-06
-0.01616 -1.35525e-20 3.02459e-09 6.47123e-07
-0.0159592 2.71051e-20 0.00276747 5.54082e-07
0.0159593 -2.71051e-20 0.00276748 1.3736e-06
-0.0160632 -1.35525e-20 0.00225586 2.84477e-07
0.0160632 -1.35525e-20 0.00225589 7.58853e-07
0.0162499 0 2.49196e-09 1.79948e-06
-0.01625 -1.35525e-20 2.49049e-09 7.24956e-07
0.0163213 8.13152e-21 0.00143843 4.63786e-07
-0.0163214 -1.0842e-20 0.0014384 1.3743e-07
-0.0163246 0 0.0019752 1.29495e-07
0.0163246 8.13152e-21 0.00197521 4.13318e-07
-0.01625 1.69407e-20 0.00287738 6.55225e-07
0.0162501 -3.38813e-20 0.00287742 1.6356e-06
0.0165397 2.37169e-20 1.49551e-09 1.78935e-06
-0.0165398 1.01644e-20 1.49503e-09 7.47892e-07
0.0165485 0 0.000259443 1.97255e-06
-0.0165486 0 0.00025939 8.2147e-07
-0.0162993 2.03288e-20 0.00289583 6.70802e-07
0.0162996 -3.04932e-20 0.00289591 1.67603e-06
-0.0163628 -2.25875e-21 0.0026102 5.90764e-07
0.0163629 4.51751e-21 0.00261026 1.48919e-06
0.016602 2.03288e-20 1.39857e-09 1.87708e-06
-0.0166022 -1.01644e-20 1.39777e-09 8.01991e-07
0.0167779 1.17455e-20 0.000788065 1.59624e-06
-0.0167779 -1.807e-21 0.000788044 6.77902e-07
0.0168224 0 8.07643e-10 2.33255e-06
-0.0168225 -1.35525e-20 8.07608e-10 1.05371e-06
-0.016756 6.77626e-21 0.00167756 1.45237e-07
0.016756 4.51751e-21 0.00167758 5.03071e-07
-0.0165907 0 0.00300593 7.28578e-07
0.0165909 -2.71051e-20 0.00300602 1.84263e-06
-0.0167321 -4.51751e-21 0.00229258 2.97656e-07
0.0167321 -4.51751e-21 0.00229264 8.44433e-07
0.0169397 -1.35525e-20 0.000139012 2.45964e-06
-0.0169397 0 0.000138902 1.06323e-06
-0.0169619 -1.35525e-20 4.50845e-10 1.04519e-06
0.0169619 0 4.50833e-10 2.43129e-06
0.017069 -1.35525e-20 0.00034548 2.80108e-06
-0.017069 1.35525e-20 0.000345515 1.2435e-06
-0.0168154 2.71051e-20 0.00309174 9.05629e-07
0.0168157 2.03288e-20 0.00309186 2.23013e-06
-0.0170882 0 0.00125548 2.58666e-07
0.0170883 -2.71051e-20 0.00125549 8.02019e-07
-0.016875 -1.01644e-20 0.00299682 9.14748e-07
0.0168752 -1.01644e-20 0.00299705 2.24789e-06
-0.016875 0 0.00311456 8.9575e-07
0.0168752 -3.38813e-21 0.00311463 2.21894e-06
-0.0169715 -3.38813e-21 0.0027608 8.10223e-07
0.0169716 -3.38813e-21 0.00276088 2.02291e-06
-0.0170765 0 0.00207965 1.16455e-07
0.0170765 2.71051e-20 0.00207967 4.55763e-07
-0.017311 -2.03288e-20 7.14894e-11 1.35044e-06
0.0173114 0 7.13597e-11 3.33059e-06
-0.0170892 -4.06576e-20 0.00319641 8.09033e-07
0.0170896 0 0.00319653 2.08535e-06
-0.0174107 -6.77626e-21 5.81532e-05 1.45759e-06
0.0174108 0 5.80005e-05 3.57803e-06
-0.0173964 4.51751e-21 0.000777676 9.42738e-07
0.0173964 2.25875e-21 0.000777666 2.46892e-06
-0.0174228 0 5.17295e-11 1.44999e-06
0.0174229 0 5.16506e-11 3.574e-06
0.0174572 6.77626e-21 4.88994e-11 3.66965e-06
-0.0174572 -6.77626e-21 4.89702e-11 1.46473e-06
-0.0174069 2.25875e-21 0.00167765 2.02169e-07
0.017407 2.25875e-21 0.00167766 7.87804e-07
0.0175 0 4.74701e-11 3.76642e-06
0.0175 0 5.73648e-05 3.78402e-06
-0.0175001 0 4.75352e-11 1.50009e-06
-0.0175001 6.77626e-21 5.75034e-05 1.50787e-06
-0.0172483 0 0.00325639 7.92732e-07
0.0172486 1.35525e-20 0.00325649 1.94733e-06
-0.0172998 -2.71051e-20 0.00306964 7.92685e-07
0.0173001 0 0.00306981 1.97096e-06
-0.0174323 1.69407e-21 0.00258936 4.48812e-07
0.0174324 -1.12938e-21 0.0025894 1.27076e-06
-0.0174579 0 0.00333599 6.96939e-07
0.0174583 1.69407e-21 0.00333616 1.91071e-06
-0.0177431 0 0.00123883 3.29559e-07
0.0177432 -5.42101e-20 0.00123884 1.38244e-06
-0.0174808 1.69407e-21 0.00332482 6.88745e-07
0.017481 0 0.00332506 1.90987e-06
-0.0174846 1.69407e-21 0.00334611 6.8109e-07
0.0174848 0 0.00334621 1.90784e-06
-0.0178054 0 0.000414179 1.87851e-06
0.0178055 0 0.000414187 4.73198e-06
-0.0175001 0 0.00332274 6.7276e-07
0.0175002 0 0.00332299 1.88771e-06
-0.0175001 1.69407e-21 0.00334231 6.74679e-07
0.0175002 3.38813e-21 0.00334243 1.89741e-06
-0.0175001 0 0.00335193 6.71359e-07
0.0175002 0 0.00335199 1.89207e-06
0.0178186 3.38813e-21 2.6307e-11 4.50737e-06
-0.0178194 3.38813e-21 2.62871e-11 1.80109e-06
-0.0177187 2.71051e-20 0.00210757 1.14093e-07
0.0177188 -2.71051e-20 0.0021076 5.43769e-07
-0.0176383 9.03502e-21 0.00303865 6.43986e-07
0.0176385 0 0.00303873 1.87566e-06
-0.0176486 0 0.00304387 6.37285e-07
0.0176488 0 0.00304395 1.86783e-06
-0.0177861 1.35525e-20 0.00345972 5.57224e-07
0.0177863 -1.35525e-20 0.00345982 1.72175e-06
0.0181318 0 5.25144e-05 5.28584e-06
-0.0181318 -6.77626e-21 5.23832e-05 2.11178e-06
0.0181327 0 7.40306e-12 5.25979e-06
-0.0181328 0 7.40812e-12 2.09937e-06
-0.0180579 -1.12938e-21 0.00168517 2.48378e-07
0.018058 3.38813e-21 0.00168519 1.08084e-06
-0.0181177 -1.8823e-22 0.000826258 1.31924e-06
0.0181178 -4.70574e-22 0.000826333 3.55953e-06
-0.0178474 -2.71051e-20 0.00337592 5.6965e-07
0.0178475 -1.35525e-20 0.00337606 1.745e-06
-0.0181788 0 1.20998e-12 2.14235e-06
0.0181789 -6.77626e-21 1.20234e-12 5.3411e-06
-0.0180132 -9.03502e-21 0.0025453 2.59896e-07
0.0180133 4.51751e-21 0.00254538 9.39097e-07
-0.018224 6.77626e-21 6.67961e-05 2.19667e-06
0.0182242 0 6.69571e-05 5.47425e-06
-0.0182303 0 9.60874e-13 2.19729e-06
0.0182306 0 9.55329e-13 5.47627e-06
-0.0179205 -2.71051e-20 0.00351035 6.00167e-07
0.0179207 0 0.00351043 1.81668e-06
-0.0180629 4.06576e-21 0.00308315 4.47684e-07
0.0180631 9.03502e-22 0.00308322 1.40715e-06
-0.0184105 -2.71051e-20 0.00127258 4.55519e-07
0.0184105 -5.42101e-20 0.00127259 1.70798e-06
-0.018125 -6.77626e-21 0.00358731 6.13705e-07
0.0181251 6.77626e-21 0.00358737 1.87596e-06
-0.0183578 5.42101e-20 0.0021071 9.67008e-08
0.0183579 0 0.00210715 7.04052e-07
-0.018476 -2.71051e-20 0.000447745 2.46363e-06
0.0184761 2.71051e-20 0.000447774 6.08452e-06
-0.0182327 -3.38813e-20 0.00362784 5.98778e-07
0.0182331 -2.03288e-20 0.00362801 1.85575e-06
-0.0182772 -9.03502e-21 0.0034369 5.9355e-07
0.0182774 1.807e-20 0.00343704 1.8331e-06
-0.018396 2.71051e-20 0.00281574 1.23033e-07
0.0183961 0 0.00281581 5.94003e-07
0.01875 0 4.62891e-13 6.46694e-06
-0.0187501 0 4.6467e-13 2.56309e-06
0.01875 0 9.91689e-05 6.48197e-06
-0.0187501 6.77626e-21 9.90278e-05 2.56879e-06
-0.0187024 3.10579e-21 0.00167427 3.63543e-07
0.0187024 -1.97641e-21 0.00167431 1.49238e-06
-0.0184518 -1.35525e-20 0.00371033 5.4074e-07
0.0184522 1.35525e-20 0.00371046 1.73975e-06
0.0188247 0 9.24778e-14 6.56856e-06
-0.0188248 -1.35525e-20 9.05194e-14 2.58782e-06
-0.0188281 -4.51751e-21 0.000901811 1.53688e-06
0.0188281 0 0.000901813 4.25373e-06
-0.0188891 0 9.99751e-05 2.62311e-06
0.0188891 0 0.000100089 6.73404e-06
-0.0187325 -2.82344e-22 0.00243398 1.24082e-07
0.0187326 5.64689e-22 0.00243401 7.24349e-07
-0.0188926 0 7.49551e-14 2.62297e-06
0.0188926 -1.35525e-20 7.69428e-14 6.73407e-06
-0.0185639 1.35525e-20 0.00375412 5.2767e-07
0.0185642 2.71051e-20 0.00375424 1.67019e-06
-0.0185985 0 0.00364208 5.30025e-07
0.0185987 -2.71051e-20 0.00364225 1.68299e-06
-0.0187022 0 0.00323478 3.39671e-07
0.0187024 -1.12938e-21 0.00323486 1.19732e-06
-0.01875 0 0.00382122 4.741e-07
0.0187502 0 0.00382131 1.59657e-06
0.0191944 6.77626e-21 6.30458e-14 7.2556e-06
-0.0191946 -6.77626e-21 6.21199e-14 2.85127e-06
-0.0192061 -2.71051e-20 0.000471782 2.80401e-06
0.0192062 0 0.000471778 7.3415e-06
-0.0191595 -2.71051e-20 0.00145141 4.16447e-07
0.0191595 -2.71051e-20 0.00145142 1.92857e-06
-0.0188263 0 0.00385065 4.66629e-07
0.0188267 6.77626e-21 0.00385081 1.60053e-06
-0.0190077 -2.71051e-20 0.00284643 8.30758e-08
0.0190078 5.42101e-20 0.0028465 5.63733e-07
-0.019139 0 0.00196722 2.18206e-07
0.019139 5.42101e-20 0.00196726 1.18337e-06
-0.0188699 0 0.00376892 4.72268e-07
0.0188703 0 0.0037689 1.623e-06
-0.0189588 0 0.00362259 4.5653e-07
0.0189592 -6.02335e-21 0.00362275 1.58942e-06
-0.0189237 1.35525e-20 0.00389016 4.49183e-07
0.0189243 -1.35525e-20 0.00389043 1.54813e-06
-0.0193514 0 0.0017103 3.47387e-07
0.0193515 2.71051e-20 0.00171031 1.66749e-06
-0.0194092 0 0.000938181 1.77835e-06
0.0194092 1.31761e-21 0.000938235 4.93744e-06
-0.0194666 0 1.03845e-13 3.04085e-06
0.0194668 0 1.03775e-13 7.74199e-06
-0.0194676 0 3.86909e-05 3.04008e-06
0.0194678 0 3.88215e-05 7.74054e-06
-0.0193306 2.25875e-21 0.00249036 1.33124e-07
0.0193307 -7.52918e-22 0.00249038 8.78188e-07
-0.019126 0 0.00398495 3.93217e-07
0.0191265 0 0.00398518 1.42848e-06
-0.0192996 4.51751e-21 0.00322408 1.9988e-07
0.0192998 2.25875e-21 0.00322419 8.78923e-07
-0.0191703 -1.35525e-20 0.00393445 3.99946e-07
0.0191707 0 0.00393471 1.44484e-06
-0.0195792 2.71051e-20 0.00146063 5.26933e-07
0.0195792 5.42101e-20 0.00146063 2.17028e-06
-0.0192183 1.35525e-20 0.00403232 4.24592e-07
0.0192187 0 0.00403252 1.51603e-06
-0.0195391 2.71051e-20 0.00196502 2.39077e-07
0.0195391 0 0.00196506 1.45331e-06
-0.0196412 0 8.2824e-14 3.12579e-06
0.0196418 0 8.26879e-14 7.92045e-06
-0.019692 -2.71051e-20 0.0005066 3.25492e-06
0.019692 -2.71051e-20 0.000506622 8.10408e-06
-0.0193632 2.25875e-22 0.00368353 3.09064e-07
0.0193636 1.12938e-22 0.00368367 1.15855e-06
-0.0193748 -1.35525e-20 0.00398025 4.40087e-07
0.0193751 1.35525e-20 0.00398046 1.56598e-06
-0.0193749 -6.77626e-21 0.00411562 4.44882e-07
0.0193752 -1.35525e-20 0.00411575 1.59007e-06
-0.0196516 0 0.00282164 9.648e-08
0.0196518 2.71051e-20 0.0028217 7.7841e-07
-0.0196713 -2.71051e-20 0.00346867 8.51064e-08
0.0196715 -5.42101e-20 0.00346879 5.00267e-07
-0.0195416 1.35525e-20 0.00420424 4.37638e-07
0.0195422 2.03288e-20 0.00420454 1.58869e-06
-0.02 1.35525e-20 7.5021e-14 3.35923e-06
0.0200001 1.35525e-20 7.4999e-14 8.35838e-06
-0.02 -2.71051e-20 0.000219861 3.36317e-06
0.0200001 -1.35525e-20 0.000219807 8.36697e-06
-0.0196486 2.71051e-21 0.00405876 4.1936e-07
0.019649 -1.0842e-20 0.00405903 1.53757e-06
0.019997 1.41172e-22 0.00175126 2.017e-06
-0.019997 0 0.00175132 4.00682e-07
0.0201205 0 2.66712e-14 8.44116e-06
-0.0201205 0 2.67431e-14 3.3755e-06
-0.0201124 0 0.00105022 2.00556e-06
0.0201124 -2.25875e-21 0.00105024 5.52164e-06
-0.0200024 -3.76459e-22 0.00235173 1.84921e-07
0.0200025 -9.41148e-23 0.0023518 1.32932e-06
-0.0197167 0 0.00429743 4.07276e-07
0.0197172 1.35525e-20 0.00429767 1.51319e-06
-0.0199625 1.12938e-21 0.00315688 8.90362e-08
0.0199626 1.12938e-21 0.00315696 7.60847e-07
-0.0198179 1.35525e-20 0.00435132 3.99096e-07
0.0198183 0 0.00435153 1.47756e-06
-0.0198553 -2.71051e-20 0.00424327 3.99262e-07
0.0198557 1.35525e-20 0.00424354 1.4815e-06
0.0203123 -2.71051e-20 6.21449e-15 8.6983e-06
-0.0203124 -2.71051e-20 6.14666e-15 3.46168e-06
0.0203177 0 0.000130802 8.69733e-06
-0.0203178 0 0.000130833 3.46032e-06
-0.01997 -5.64689e-22 0.00385617 2.53514e-07
0.0199702 9.41148e-22 0.00385631 1.04857e-06
-0.0202712 2.71051e-20 0.00281169 1.04339e-07
0.0202713 2.71051e-20 0.00281174 1.22601e-06
-0.0199999 0 0.00444833 3.70644e-07
0.0200001 0 0.00444847 1.42835e-06
-0.0200605 0 0.00448064 3.69275e-07
0.0200609 0 0.00448086 1.43617e-06
-0.0202705 0 0.00349446 7.07494e-08
0.0202706 -2.71051e-20 0.00349456 5.61699e-07
-0.0201021 0 0.00441229 3.72654e-07
0.0201026 0 0.00441233 1.45097e-06
-0.0201274 1.35525e-20 0.00451629 3.63796e-07
0.020128 -6.77626e-21 0.00451661 1.41515e-06
-0.0202112 -3.76459e-21 0.00425016 3.60213e-07
0.0202116 0 0.00425037 1.41903e-06
-0.0206399 -5.42101e-20 0.00178222 4.31954e-07
0.0206399 -5.42101e-20 0.00178223 2.50099e-06
0.0207253 -5.42101e-20 0.000539941 9.20541e-06
-0.0207253 -5.42101e-20 0.000539939 3.68553e-06
-0.0206015 0 0.00245364 2.19125e-07
0.0206016 -3.38813e-22 0.00245367 1.66897e-06
-0.0205843 1.12938e-21 0.00315111 1.11413e-07
0.0205844 1.12938e-21 0.00315116 1.04167e-06
-0.0203417 1.35525e-20 0.00463048 3.31872e-07
0.0203423 1.35525e-20 0.00463076 1.33143e-06
-0.0203949 -1.35525e-20 0.00457254 3.37699e-07
0.0203954 0 0.00457285 1.34859e-06
-0.0205502 0 0.00386547 1.63967e-07
0.0205503 -2.25875e-21 0.00386562 8.44051e-07
-0.0204458 0 0.00468592 3.69137e-07
0.0204463 0 0.00468616 1.43775e-06
-0.0206078 -5.64689e-22 0.0043176 2.64591e-07
0.0206081 1.12938e-22 0.00431777 1.09187e-06
-0.0209209 5.42101e-20 0.00278889 1.93527e-07
0.020921 0 0.00278892 1.57938e-06
-0.0206248 6.77626e-21 0.0047813 4.09849e-07
0.0206252 6.77626e-21 0.00478146 1.54675e-06
-0.0208848 -2.71051e-20 0.00349061 7.76521e-08
0.0208849 -2.71051e-20 0.0034907 8.17057e-07
0.0212501 -1.35525e-20 5.88478e-15 9.59219e-06
-0.0212501 0 5.83891e-15 3.81606e-06
0.0212501 0 9.46703e-05 9.58774e-06
-0.0212501 0 9.4684e-05 3.81359e-06
-0.0207397 -6.77626e-21 0.00484247 4.14844e-07
0.0207403 0 0.00484278 1.56348e-06
-0.0207851 4.51751e-21 0.00466127 3.94112e-07
0.0207854 -4.51751e-21 0.00466152 1.50831e-06
-0.0209257 -2.71051e-20 0.00410294 8.38627e-08
0.020926 0 0.00410307 4.88208e-07
-0.0213163 -1.12938e-21 0.001158 2.24203e-06
0.0213163 3.38813e-21 0.00115801 6.46519e-06
0.0213763 1.35525e-20 3.47593e-16 9.68404e-06
-0.0213764 0 3.5283e-16 3.858e-06
-0.0212885 1.12938e-21 0.00232627 3.42257e-07
0.0212886 1.12938e-21 0.00232629 2.34967e-06
-0.021208 -2.82344e-22 0.00309796 1.80632e-07
0.021208 1.69407e-21 0.00309802 1.51246e-06
0.0214867 0 0.000108836 9.81494e-06
-0.0214868 1.35525e-20 0.000108849 3.92318e-06
0.021494 1.35525e-20 4.39192e-16 9.81461e-06
-0.0214941 0 4.44401e-16 3.92248e-06
-0.0209343 1.35525e-20 0.00494614 3.90324e-07
0.0209347 0 0.00494637 1.50924e-06
-0.0212499 0 0.00376412 1.05817e-07
0.021247 -2.75286e-21 0.00376429 8.10526e-07
-0.0210472 -1.35525e-20 0.00500632 3.85293e-07
0.0210476 -1.35525e-20 0.00500653 1.49186e-06
-0.0210903 0 0.00488625 3.83569e-07
0.0210906 -2.71051e-20 0.0048865 1.48943e-06
-0.0212089 4.51751e-21 0.00450243 2.46326e-07
0.0212092 -1.12938e-21 0.00450256 1.0559e-06
-0.0216448 0 0.00289595 2.5512e-07
0.0216449 2.71051e-20 0.00289597 2.21508e-06
-0.0212498 3.38813e-21 0.00511424 3.63743e-07
0.0212501 3.38813e-21 0.00511439 1.4467e-06
-0.0212808 0 0.00513076 3.64744e-07
0.0212812 0 0.00513096 1.4526e-06
-0.0216428 0 0.00333678 2.09594e-07
0.0216429 0 0.00333683 1.60286e-06
-0.0213035 0 0.00509474 3.66443e-07
0.0213039 3.38813e-21 0.00509481 1.45914e-06
-0.0215146 2.71051e-20 0.00414914 9.17568e-08
0.0215148 0 0.00414925 6.16506e-07
-0.0213152 -6.77626e-21 0.00514909 3.62253e-07
0.0213157 0 0.00514937 1.44484e-06
0.0219709 0 0.000580194 1.01817e-05
-0.021971 5.42101e-20 0.000580199 4.04723e-06
-0.0214405 -9.03502e-21 0.00489685 3.52786e-07
0.0214409 -3.01167e-21 0.00489705 1.41888e-06
-0.0219196 0 0.00179911 6.18159e-07
0.0219197 0 0.00179912 3.62782e-06
-0.0218787 -2.82344e-22 0.00244234 3.82873e-07
0.0218787 7.05861e-23 0.00244237 2.68928e-06
-0.0218432 -2.71051e-20 0.00311325 2.50057e-07
0.0218433 0 0.00311327 2.01843e-06
-0.0218301 1.50584e-21 0.00382172 1.60025e-07
0.0218302 -7.52918e-22 0.00382177 1.15688e-06
-0.0215576 1.35525e-20 0.00527824 3.32178e-07
0.0215581 1.35525e-20 0.00527848 1.36471e-06
-0.0216181 1.35525e-20 0.00521384 3.3788e-07
0.0216185 -1.35525e-20 0.0052141 1.38285e-06
-0.022064 0 0.00288701 3.18207e-07
0.022064 2.71051e-20 0.00288702 2.3888e-06
-0.0217938 2.25875e-21 0.00451147 1.8767e-07
0.021794 -2.25875e-21 0.00451161 9.45261e-07
-0.0220345 -2.71051e-20 0.00332361 2.5465e-07
0.0220346 -2.71051e-20 0.00332366 2.03233e-06
-0.0216748 2.71051e-20 0.00534064 3.75284e-07
0.0216752 2.71051e-20 0.00534085 1.49666e-06
-0.0218358 -2.25875e-22 0.00496865 2.70572e-07
0.0218361 1.35525e-21 0.0049688 1.15934e-06
0.0225 -1.35525e-20 -1.57376e-17 1.04053e-05
-0.0225 0 -1.52709e-17 3.9548e-06
0.0225 -1.35525e-20 8.44889e-05 1.04089e-05
-0.0225 0 8.44943e-05 3.95553e-06
-0.0221466 0 0.00413228 1.72787e-07
0.0221467 0 0.00413235 1.08682e-06
-0.0218748 -6.77626e-21 0.00544721 4.2615e-07
0.0218751 1.01644e-20 0.00544736 1.62992e-06
0.0225909 -1.35525e-20 4.65091e-17 1.04444e-05
-0.0225909 0 4.69172e-17 3.93384e-06
-0.0225623 0 0.00117125 2.35461e-06
0.0225623 5.64689e-21 0.00117125 7.36607e-06
-0.0219453 1.69407e-20 0.00548473 4.30301e-07
0.0219458 1.69407e-20 0.00548498 1.64759e-06
-0.0220186 4.51751e-21 0.0053065 4.05827e-07
0.0220189 -1.35525e-20 0.00530671 1.5855e-06
-0.0221547 2.71051e-20 0.00476009 1.04817e-07
0.0221549 2.71051e-20 0.00476021 6.38743e-07
0.0226735 0 8.15118e-05 1.05031e-05
-0.0226735 0 8.15168e-05 3.94989e-06
0.0226781 0 2.50124e-17 1.05026e-05
-0.0226781 0 2.52005e-17 3.94915e-06
-0.0225519 -1.12938e-21 0.00239247 5.17185e-07
0.0225519 4.51751e-21 0.00239248 3.48607e-06
-0.0224875 -5.64689e-22 0.00303827 3.44625e-07
0.0224875 5.64689e-22 0.00303832 2.72698e-06
-0.0224955 -7.05861e-23 0.00364649 2.66058e-07
0.0224956 7.05861e-23 0.00364646 2.02162e-06
-0.0221583 1.35525e-20 0.00559821 4.03052e-07
0.0221587 -1.35525e-20 0.00559841 1.61906e-06
-0.0224493 -2.25875e-21 0.00445911 1.74364e-07
0.0224494 0 0.00445919 1.16407e-06
-0.0222812 1.35525e-20 0.00566371 3.97568e-07
0.0222816 -2.71051e-20 0.00566387 1.61991e-06
-0.0223282 1.35525e-20 0.00553377 3.94646e-07
0.0223285 2.71051e-20 0.00553397 1.61048e-06
-0.022442 2.25875e-21 0.00515525 2.66248e-07
0.0224423 7.52918e-22 0.00515537 1.22575e-06
-0.0227594 0 0.00412234 2.82285e-07
0.0227595 -2.71051e-20 0.00412239 1.97729e-06
0.0231924 5.42101e-20 0.000587087 1.0754e-05
-0.0231924 5.42101e-20 0.000587089 3.86336e-06
-0.0224999 8.47033e-22 0.00578016 3.74719e-07
0.0225001 0 0.00578025 1.58814e-06
-0.0231698 0 0.00178811 7.64107e-07
0.0231698 1.0842e-19 0.00178811 4.66515e-06
-0.022509 0 0.00578499 3.74993e-07
0.0225093 0 0.00578515 1.59105e-06
-0.0225157 8.47033e-22 0.0057743 3.75392e-07
0.0225162 0 0.00577431 1.59293e-06
-0.0227516 0 0.00479269 1.41832e-07
0.0227518 0 0.00479279 9.90451e-07
-0.0225192 -2.5411e-21 0.00579044 3.7446e-07
0.0225196 -1.01644e-20 0.00579066 1.59022e-06
-0.0231209 0 0.00309539 4.42794e-07
0.023121 0 0.00309541 3.70263e-06
-0.0226735 -1.05409e-20 0.00554731 3.58269e-07
0.0226737 1.50584e-21 0.00554747 1.55118e-06
-0.0230931 0 0.00378166 3.90165e-07
0.0230932 -7.52918e-22 0.00378167 2.79224e-06
-0.023068 5.64689e-21 0.00445632 2.82759e-07
0.0230681 1.12938e-21 0.00445637 1.9475e-06
-0.0227839 1.35525e-20 0.00593173 3.44813e-07
0.0227842 0 0.00593191 1.52766e-06
-0.0228493 1.35525e-20 0.00586199 3.50699e-07
0.0228496 0 0.00586218 1.55059e-06
-0.0230298 4.51751e-21 0.00515583 2.2376e-07
0.02303 0 0.00515594 1.30993e-06
-0.0229106 0 0.00599952 3.94378e-07
0.0229109 2.71051e-20 0.00599968 1.72054e-06
-0.023072 -9.03502e-22 0.00561884 2.89658e-07
0.0230722 9.03502e-22 0.00561896 1.38436e-06
-0.0237501 0 1.53747e-17 3.56492e-06
0.0237501 6.77626e-21 1.52208e-17 1.09407e-05
-0.0237501 6.77626e-21 6.33397e-05 3.56422e-06
0.0237501 6.77626e-21 6.33363e-05 1.09425e-05
-0.0234048 0 0.0040956 4.6066e-07
0.0234049 -2.71051e-20 0.00409564 3.03233e-06
0.0238177 0 -7.65578e-19 1.09646e-05
-0.0238177 -1.35525e-20 -7.74602e-19 3.52663e-06
0.0237988 -2.25875e-21 0.00117061 8.1206e-06
-0.0237988 0 0.00117061 2.16624e-06
-0.0233657 -2.71051e-20 0.00479029 2.46407e-07
0.0233658 2.71051e-20 0.00479035 1.81075e-06
0.0238811 6.77626e-21 6.14693e-05 1.09982e-05
-0.0238811 -1.35525e-20 6.14724e-05 3.51609e-06
0.023883 6.77626e-21 -9.01493e-19 1.09981e-05
-0.023883 0 -9.09844e-19 3.51577e-06
-0.0237728 0 0.00241911 6.26172e-07
0.0237728 5.64689e-22 0.00241911 5.00998e-06
-0.0231249 0 0.00611529 4.55594e-07
0.0231251 -6.77626e-21 0.00611542 1.92919e-06
-0.0231675 2.71051e-20 0.00613811 4.58499e-07
0.0231678 -1.01644e-20 0.00613829 1.94886e-06
-0.023258 1.35525e-20 0.00596026 4.30555e-07
0.0232582 -4.51751e-21 0.00596041 1.86442e-06
-0.0234008 2.71051e-20 0.00540243 1.35258e-07
0.0234009 -2.71051e-20 0.00540252 9.63624e-07
-0.0237509 -2.82344e-22 0.00364541 4.87376e-07
0.0237508 -1.03526e-21 0.00364544 4.00202e-06
-0.0236805 -5.27043e-21 0.00443726 4.08795e-07
0.0236806 -1.50584e-21 0.00443729 2.97143e-06
-0.0233932 1.35525e-20 0.00626089 4.25402e-07
0.0233933 0 0.00626103 1.94563e-06
-0.0237267 -5.64689e-22 0.00506483 2.40545e-07
0.0237268 -5.64689e-22 0.00506488 1.8672e-06
-0.0235126 0 0.00635102 4.23355e-07
0.0235127 0 0.00635113 1.97303e-06
-0.0235681 0 0.00620595 4.18106e-07
0.0235683 -1.35525e-20 0.00620608 1.94937e-06
-0.0236824 0 0.00581853 2.93458e-07
0.0236825 7.52918e-22 0.00581861 1.62207e-06
0.024425 0 0.00058604 1.11988e-05
-0.0244251 -1.0842e-19 0.000586045 3.21517e-06
0.0244106 5.42101e-20 0.00178889 5.72809e-06
-0.0244106 5.42101e-20 0.00178889 7.55264e-07
-0.0241349 0 0.00419973 5.96571e-07
0.0241349 0 0.00419974 4.62826e-06
-0.0236696 3.38813e-21 0.00645563 3.94187e-07
0.0236698 0 0.00645575 1.95013e-06
-0.0237096 -3.38813e-21 0.00644188 3.87891e-07
0.0237098 0 0.00644198 1.94086e-06
-0.0241326 0 0.00462567 4.98599e-07
0.0241326 5.42101e-20 0.00462571 3.70415e-06
-0.0237098 0 0.00648356 3.79869e-07
0.02371 0 0.00648366 1.92117e-06
-0.0243927 5.42101e-20 0.00306991 5.32294e-07
0.0243927 5.42101e-20 0.00306991 5.88653e-06
-0.0239945 2.71051e-20 0.00544746 1.87096e-07
0.0239946 0 0.00544753 1.70434e-06
-0.0237499 1.35525e-20 0.00643537 3.7244e-07
0.0237501 0 0.00643548 1.90057e-06
-0.0237499 0 0.00647613 3.74398e-07
0.0237501 0 0.00647623 1.91319e-06
-0.0237499 0 0.006513 3.65764e-07
0.0237501 0 0.00651309 1.89166e-06
-0.0243523 5.64689e-22 0.00372353 5.79781e-07
0.0243524 5.64689e-22 0.00372355 5.14677e-06
-0.0239089 0 0.00623589 3.683e-07
0.023909 -1.35525e-20 0.00623598 1.9006e-06
-0.0243287 0 0.00441255 5.82605e-07
0.0243287 0 0.00441257 4.45109e-06
-0.0239122 6.77626e-21 0.00663214 3.17746e-07
0.0239123 2.71051e-20 0.00663222 1.77203e-06
-0.0243138 -2.25875e-21 0.00512037 3.74335e-07
0.0243139 2.25875e-21 0.00512041 2.97542e-06
-0.0245437 0 0.00418671 6.99834e-07
0.0245437 0 0.00418672 5.2719e-06
-0.0240424 0 0.00656018 3.18445e-07
0.0240425 1.35525e-20 0.00656027 1.77389e-06
-0.0245161 2.71051e-20 0.00461184 6.15397e-07
0.0245161 0 0.00461186 4.62578e-06
-0.0240313 0 0.00671945 3.01436e-07
0.0240314 -1.35525e-20 0.00671952 1.68672e-06
-0.0242758 -4.51751e-21 0.0058092 2.79111e-07
0.0242758 4.51751e-21 0.00580927 2.01441e-06
-0.025 0 4.25541e-20 2.75564e-06
0.025 -6.77626e-21 4.32721e-20 1.13955e-05
-0.025 0 4.32458e-05 2.75496e-06
0.025 0 4.32338e-05 1.13961e-05
0.025046 0 -4.76797e-20 1.14089e-05
-0.025046 6.77626e-21 -4.79508e-20 2.71468e-06
0.0250354 -1.12938e-21 0.00116998 8.91362e-06
-0.0250355 -1.12938e-21 0.00116998 1.72218e-06
-0.0241475 2.71051e-20 0.00680428 2.78736e-07
0.0241476 1.35525e-20 0.00680434 1.57571e-06
0.0250898 -6.77626e-21 4.20265e-05 1.14291e-05
-0.0250898 0 4.20372e-05 2.69022e-06
0.0250906 0 -2.73305e-20 1.14291e-05
-0.0250906 6.77626e-21 -2.74441e-20 2.69005e-06
-0.024199 -1.35525e-20 0.00668127 2.89608e-07
0.0241991 0 0.00668133 1.62889e-06
-0.0250241 5.64689e-22 0.00240547 6.23897e-07
0.0250241 5.64689e-22 0.00240547 6.8196e-06
-0.0243358 1.29072e-21 0.00637905 2.49682e-07
0.0243359 1.12938e-21 0.00637911 1.57591e-06
-0.0246314 -2.71051e-20 0.0054211 4.08699e-07
0.0246315 -2.71051e-20 0.00542114 3.20713e-06
-0.0250347 0 0.00367576 6.51581e-07
0.0250347 -4.51751e-21 0.00367577 6.72788e-06
-0.0243359 0 0.00694205 2.47855e-07
0.024336 -1.69407e-21 0.00694207 1.47816e-06
-0.0243561 0 0.00693965 2.46609e-07
0.0243562 0 0.00693966 1.47623e-06
-0.0243565 1.69407e-21 0.00695709 2.46437e-07
0.0243566 1.69407e-21 0.00695714 1.47685e-06
-0.0243749 -1.69407e-21 0.00693984 2.42221e-07
0.024375 0 0.00693986 1.46234e-06
-0.0249795 -1.12938e-21 0.00428502 6.86681e-07
0.0249795 2.25875e-21 0.00428505 5.91249e-06
-0.0243749 0 0.00695738 2.44386e-07
0.024375 1.69407e-21 0.00695742 1.46862e-06
-0.0243749 0 0.00697053 2.43622e-07
0.024375 0 0.0069706 1.4647e-06
-0.0246321 0 0.00606147 1.61138e-07
0.0246322 0 0.00606153 1.52689e-06
-0.0245423 -3.01167e-21 0.00675073 2.28798e-07