# omega  POINT_DATA 29002
# x  y  z  omega
-1.35525e-20 0.014142 8.40343e-08 1362.67
1.35525e-20 -0.014142 8.40343e-08 1362.87
-6.77626e-21 0.014142 0.000246012 1360.41
6.77626e-21 -0.014142 0.000246012 1360.65
3.38813e-21 0.014142 0.000413825 1462.27
-6.77626e-21 -0.014142 0.000413826 1462.5
0 0.014142 0.000659755 1762.13
-1.35525e-20 -0.014142 0.000659755 1762.27
1.01644e-20 0.014142 0.000918785 2066.51
3.38813e-21 -0.014142 0.000918783 2066.6
6.77626e-21 0.014142 0.00109556 2214.83
3.38813e-21 -0.014142 0.00109556 2214.89
1.35525e-20 0.014142 0.00135458 2343.97
0 -0.014142 0.00135458 2344
3.38813e-21 0.014142 0.00162762 2469.22
-6.77626e-21 -0.014142 0.00162761 2469.22
-1.35525e-20 -0.014252 0.000123092 1362.83
0 0.014252 0.000123069 1362.62
-1.35525e-20 -0.0142534 8.87871e-08 1362.82
0 0.0142534 8.87841e-08 1362.62
-3.38813e-21 0.014142 0.00181396 2272.57
-6.77626e-21 -0.014142 0.00181396 2272.6
0 -0.014252 0.000530042 1609.81
0 0.014252 0.000530052 1609.66
1.35525e-20 0.0142482 0.000775283 1923.31
0 -0.0142482 0.000775286 1923.42
-1.35525e-20 0.014142 0.002087 1557.83
1.35525e-20 -0.014142 0.002087 1557.94
0 -0.0142482 0.00119841 2278.38
0 0.0142482 0.00119841 2278.33
0 0.0142437 0.00144425 2413.69
0 -0.0142438 0.00144425 2413.71
0 0.0142437 0.00188148 1952.27
-1.35525e-20 -0.0142437 0.00188149 1952.35
-1.35525e-20 0.014376 9.02294e-08 1260.1
0 -0.014376 9.02309e-08 1260.19
0 0.0143755 0.000639191 1437.07
0 -0.0143755 0.000639192 1436.93
-6.77626e-21 0.0142627 0.00213224 1296.95
-6.77626e-21 -0.0142627 0.00213225 1297.12
-1.35525e-20 0.0143001 0.00203568 1391.79
-1.35525e-20 -0.0143001 0.00203569 1391.93
0 -0.0144128 0.000955786 2182.04
1.35525e-20 0.0144128 0.000955783 2181.97
0 0.0143938 0.00157761 2523.3
1.35525e-20 -0.0143938 0.00157762 2523.28
0 -0.0143748 0.00187233 1388.91
6.77626e-21 0.0143748 0.00187232 1389.39
0 0.0144696 0.00124239 1723.87
2.25875e-21 -0.0144696 0.00124239 1723.13
0 0.014375 0.00217431 1356.28
-1.35525e-20 -0.014375 0.00217431 1356.43
-4.51751e-21 -0.0145417 0.000318493 1248.63
-2.25875e-21 0.0145417 0.000318489 1248.64
-1.35525e-20 -0.0145497 9.54667e-08 1256.2
0 0.0145497 9.54641e-08 1256.18
0 -0.0145346 0.00078231 1608.85
1.35525e-20 0.0145346 0.000782317 1609.07
2.71051e-20 0.0145143 0.00222654 1024.35
0 -0.0145144 0.00222654 1024.48
1.16165e-20 0.0146115 0.0016294 1452.03
0 -0.0146115 0.00162941 1451.21
0 -0.0145852 0.00194437 1066.27
0 0.0145842 0.00194387 1066.11
1.35525e-20 -0.0147196 1.04733e-07 1127.91
-2.71051e-20 0.0147196 1.0473e-07 1127.9
-2.11758e-22 0.0145943 0.00194493 1057.48
-1.05879e-22 -0.0145945 0.00194498 1057.51
0 -0.014709 0.000900688 1016.75
2.25875e-21 0.014709 0.000900686 1000.02
-2.71051e-20 0.0145865 0.0022536 1145.66
0 -0.0145866 0.00225361 1145.76
4.51751e-21 0.014697 0.00143077 1062.38
0 -0.014697 0.00143078 1086.25
-1.35525e-20 -0.0148082 0.000136863 1041.62
0 0.0148082 0.000136848 1041.63
1.35525e-20 -0.0148167 9.37199e-08 1046.44
-1.35525e-20 0.0148167 9.37185e-08 1046.45
0 -0.0148641 8.83388e-08 1123.38
0 0.0148641 8.83383e-08 1123.37
-5.16287e-21 -0.0148597 0.000623839 853.559
-6.45358e-21 0.0148597 0.000623837 854.865
-1.50584e-21 -0.0148445 0.00116564 774.974
-3.76459e-21 0.0148445 0.00116563 777.664
0 0.0147312 0.00230781 831.896
-2.71051e-20 -0.0147313 0.00230783 831.911
0 0.014833 0.00159147 801.327
-5.01544e-37 -0.014833 0.00159148 798.807
0 -0.015 7.49105e-08 1094.19
1.35525e-20 0.015 7.49089e-08 1094.22
3.76459e-22 0.014988 0.00205398 760.391
9.41148e-23 -0.014988 0.00205397 760.307
-6.77626e-21 -0.0151759 0.000230596 1018.63
6.77626e-21 0.015176 0.000230601 1018.46
0 -0.015 0.00240853 900.78
3.38813e-21 0.015 0.00240854 900.82
0 -0.0152018 0.000843053 332.944
4.51751e-21 0.0152018 0.000843049 331.48
2.37169e-20 0.0150362 0.00242211 924.951
1.69407e-20 -0.0150362 0.00242211 924.931
4.51751e-21 -0.015201 0.00143422 298.454
-4.51751e-21 0.015201 0.00143421 298.481
1.35525e-20 -0.0152989 2.20785e-08 1060.58
-1.35525e-20 0.015299 2.20802e-08 1060.6
-3.38813e-21 0.015119 0.00245307 952.865
-3.38813e-21 -0.015119 0.0024531 952.862
2.71051e-20 -0.015396 0.000531605 749.873
-2.71051e-20 0.015396 0.000531602 748.653
1.35525e-20 -0.0154492 8.76997e-09 1188.94
-1.35525e-20 0.0154492 8.76943e-09 1188.95
-2.71051e-20 -0.0154135 0.00109937 305.329
0 0.0154136 0.00109937 304.402
-1.35525e-20 0.0152769 0.00251208 1030.41
0 -0.0152769 0.0025121 1030.37
-2.71051e-20 0.0153864 0.00178851 537.55
0 -0.0153864 0.00178851 536.553
-1.01644e-20 0.0153097 0.00239045 999.701
-1.01644e-20 -0.0153097 0.00239045 999.676
0 -0.0153854 0.00225223 996.617
1.12938e-21 0.0153854 0.00225223 996.641
0 -0.0156088 7.21589e-09 1251.72
1.35525e-20 0.0156089 7.21525e-09 1251.82
-2.71051e-20 -0.0154657 0.00258282 1219.23
0 0.0154657 0.00258282 1219.3
0 -0.0156825 0.000727925 356.653
-2.25875e-21 0.0156825 0.000727916 342.063
1.12938e-21 -0.0157225 0.000233524 1245.43
7.90564e-21 0.0157226 0.000233532 1245.43
2.25875e-21 -0.0157184 0.00143038 215.338
6.77626e-21 0.0157184 0.00143039 218.664
-8.47033e-22 -0.0156634 0.00226597 991.096
1.69407e-21 0.0156634 0.00226598 992.775
-1.35525e-20 0.0156249 0.00254054 1395.9
0 -0.0156249 0.00254053 1395.84
6.77626e-21 0.0156249 0.0026425 1476.87
6.77626e-21 -0.0156249 0.00264251 1476.82
9.03502e-21 0.0157603 0.00197874 437.569
0 -0.0157603 0.00197874 432.62
1.35525e-20 0.0159582 4.57725e-09 1224.46
0 -0.0159583 4.5756e-09 1224.25
-1.35525e-20 -0.0157578 0.00269219 1591.62
2.71051e-20 0.0157578 0.00269219 1591.74
1.35525e-20 -0.0158038 0.0025027 1481.7
5.42101e-21 0.0158038 0.00250271 1481.79
6.77626e-21 -0.0160273 0.000416841 795.89
6.77626e-21 0.0160274 0.00041683 795.81
-1.35525e-20 -0.0160956 3.28585e-09 1112.86
0 0.0160956 3.28679e-09 1112.96
-1.35525e-20 -0.0161395 0.000104077 971.445
1.35525e-20 0.0161396 0.000104165 971.43
0 0.0160608 0.0017677 323.715
0 -0.0160608 0.00176769 320.846
7.52918e-22 -0.0161372 0.0008471 308.302
3.76459e-21 0.0161373 0.000847085 307.743
0 -0.0161599 3.02539e-09 985.918
1.35525e-20 0.0161601 3.0262e-09 985.902
0 -0.0159573 0.00276704 1211.26
0 0.0159573 0.00276704 1211.37
-2.25875e-21 -0.0160615 0.00225482 844.187
-6.77626e-21 0.0160615 0.00225485 847.194
1.35525e-20 -0.0162498 2.49159e-09 928.79
-1.35525e-20 0.0162501 2.49177e-09 928.747
1.6263e-20 -0.0163211 0.00143744 182.238
-2.71051e-20 0.0163211 0.00143746 183.997
1.6263e-20 0.0163242 0.00197494 252.755
0 -0.0163242 0.00197494 248.248
-1.35525e-20 0.0162498 0.00287804 1106.14
2.37169e-20 -0.0162499 0.00287808 1105.97
-2.37169e-20 -0.0165397 1.49574e-09 736.089
3.04932e-20 0.0165398 1.49534e-09 736.145
6.77626e-21 -0.016295 0.00289505 1096.42
9.03502e-21 -0.0165484 0.000259337 703.103
-1.01644e-20 0.0162953 0.00289514 1096.52
-4.51751e-21 0.0165485 0.000259312 703.165
2.25875e-21 -0.0163611 0.00261002 1066.87
2.25875e-21 0.0163611 0.00261004 1067.35
-2.37169e-20 -0.0166019 1.3988e-09 728.296
3.38813e-21 0.0166021 1.39827e-09 728.332
-1.807e-21 -0.0167776 0.000787901 334.835
9.03502e-22 0.0167777 0.000787893 338.646
-1.35525e-20 -0.0168222 8.08296e-10 826.386
1.35525e-20 0.0168225 8.07382e-10 826.371
-6.77626e-21 -0.0167552 0.00167721 126.99
-4.51751e-21 0.0167552 0.00167721 130.608
2.71051e-20 -0.0165883 0.00300631 1020.88
2.71051e-20 0.0165884 0.00300634 1020.99
9.03502e-21 -0.0167309 0.00229146 490.769
4.51751e-21 0.0167309 0.00229155 493.57
1.35525e-20 -0.0169395 0.000138934 734.098
1.35525e-20 0.0169397 0.000138909 734.066
0 -0.0169618 4.51221e-10 751.634
0 0.016962 4.50664e-10 751.588
0 -0.0170688 0.000345436 718.379
-1.35525e-20 0.0170689 0.000345447 718.354
-6.77626e-21 -0.0168116 0.00309149 711.271
6.77626e-21 0.0168118 0.00309158 711.091
0 -0.0170877 0.00125519 81.9485
0 0.0170878 0.0012552 86.7558
3.38813e-21 0.0168748 0.00299168 691.821
0 -0.016875 0.00299095 691.854
6.77626e-21 0.0168748 0.00311544 731.783
3.38813e-21 -0.0168751 0.00311552 732.103
-2.25875e-21 -0.0169694 0.00276077 715.103
-2.25875e-21 0.0169696 0.0027608 715.494
-5.42101e-20 -0.0170755 0.00207925 126.352
0 0.0170755 0.00207928 129.378
6.77626e-21 -0.0173112 7.14994e-11 636.554
0 0.0173113 7.13385e-11 636.595
0 -0.0170862 0.00319594 885.922
2.71051e-20 0.0170864 0.00319602 885.822
-6.77626e-21 -0.0174106 5.80413e-05 617.259
0 0.0174107 5.80305e-05 617.305
1.12938e-20 -0.017396 0.000777646 353.645
9.03502e-21 0.0173961 0.000777647 355.513
-6.77626e-21 -0.0174228 5.17378e-11 620.897
-6.77626e-21 0.0174229 5.16473e-11 620.942
6.77626e-21 -0.0174571 4.89779e-11 628.337
0 0.0174572 4.88992e-11 628.38
-2.25875e-21 -0.0174062 0.00167743 96.0483
2.25875e-21 0.0174063 0.00167744 98.5831
6.77626e-21 -0.0174999 4.75457e-11 620.718
-6.77626e-21 0.0175 4.74696e-11 620.766
6.77626e-21 -0.0174999 5.74012e-05 618.926
0 0.0175 5.73934e-05 618.975
1.35525e-20 -0.0172465 0.00325641 955.501
2.03288e-20 0.0172466 0.00325643 955.282
0 -0.0172985 0.00306859 940.718
0 0.0172985 0.00306881 940.538
9.03502e-21 -0.0174314 0.00258926 524.035
-5.64689e-22 0.0174315 0.00258926 526.163
1.69407e-21 -0.0174509 0.00333352 1175.75
1.69407e-21 0.0174516 0.00333379 1176.29
2.71051e-20 -0.0177427 0.00123867 84.2214
0 0.0177428 0.0012387 83.7689
0 -0.0174775 0.0033206 1196.64
0 0.0174778 0.00332108 1196.8
0 -0.0174819 0.00334524 1216.14
0 0.0174821 0.0033453 1215.97
0 -0.0178052 0.000414147 466.521
5.42101e-20 0.0178053 0.000414151 466.605
0 0.0174998 0.00331875 1196.64
0 -0.0174999 0.00331824 1196.32
0 0.0174997 0.00334099 1239.22
1.69407e-21 -0.0174999 0.00334085 1239.79
0 0.0174997 0.00335193 1250.85
0 -0.0174999 0.00335198 1251.62
-6.77626e-21 0.0178185 2.63056e-11 536.01
-6.77626e-21 -0.0178186 2.63406e-11 535.898
0 -0.0177179 0.00210726 88.1068
2.71051e-20 0.017718 0.0021073 90.739
4.51751e-21 -0.0176365 0.00303796 989.877
-4.51751e-21 0.0176366 0.00303803 990.678
0 -0.017647 0.00304321 991.171
0 0.0176471 0.00304328 992.029
-2.71051e-20 -0.0177836 0.00345876 1558.69
-1.35525e-20 0.0177837 0.00345884 1558.34
0 0.0181317 5.24975e-05 435.177
0 -0.0181317 5.24752e-05 435.06
0 0.0181326 7.40766e-12 435.766
-6.77626e-21 -0.0181326 7.41305e-12 435.65
-2.25875e-21 -0.0180574 0.00168505 79.425
6.77626e-21 0.0180574 0.00168508 80.8786
2.82344e-22 0.0181176 0.000826155 262.48
3.76459e-22 -0.0181176 0.000826124 262.344
-1.35525e-20 -0.0178454 0.00337451 1511.28
2.71051e-20 0.0178455 0.00337466 1511
0 -0.0181788 1.20855e-12 430.753
6.77626e-21 0.0181788 1.20217e-12 430.872
4.51751e-21 -0.0180124 0.00254465 305.118
0 0.0180125 0.00254474 307.834
6.77626e-21 -0.018224 6.69062e-05 428.123
0 0.0182241 6.69481e-05 428.24
6.77626e-21 -0.0182304 9.59096e-13 427.895
0 0.0182305 9.55143e-13 428.011
0 -0.0179191 0.00350977 1337.49
0 0.0179192 0.00350979 1337.42
-4.51751e-22 -0.0180614 0.00308264 929.684
2.25875e-21 0.0180616 0.0030827 931.312
0 -0.0184102 0.00127251 77.4411
-2.71051e-20 0.0184102 0.00127252 78.453
1.35525e-20 0.0181249 0.00358718 1163.35
-6.77626e-21 -0.018125 0.00358724 1163.07
2.71051e-20 -0.0183572 0.0021069 66.9682
-2.71051e-20 0.0183573 0.00210693 69.5468
0 -0.0184759 0.00044774 399.341
0 0.0184759 0.000447749 399.485
-1.35525e-20 -0.0182298 0.00362666 1184.08
6.77626e-21 0.0182303 0.00362685 1184.55
-4.51751e-21 -0.0182763 0.00343588 1253.27
9.03502e-21 0.0182764 0.00343606 1253.57
2.71051e-20 -0.0183952 0.00281538 216.551
-2.71051e-20 0.0183953 0.00281544 219.526
0 -0.0187499 4.64953e-13 387.209
0 0.01875 4.62741e-13 387.366
-6.77626e-21 -0.0187499 9.91369e-05 386.805
0 0.01875 9.91108e-05 386.963
0 -0.0187019 0.00167404 77.4021
2.82344e-22 0.018702 0.00167409 79.238
-2.71051e-20 -0.0184505 0.00370969 1402.92
2.71051e-20 0.0184507 0.00370979 1403.12
0 -0.0188246 9.05506e-14 386.455
0 0.0188247 9.24758e-14 386.621
-4.51751e-21 0.0188279 0.000901801 231.835
2.25875e-21 -0.0188279 0.000901792 231.754
0 -0.018889 0.000100088 381.591
0 0.0188891 0.000100053 381.761
5.64689e-22 -0.0187319 0.00243381 125.891
2.82344e-22 0.0187319 0.00243385 130.431
0 -0.0188925 7.49718e-14 381.596
6.77626e-21 0.0188926 7.69407e-14 381.766
-1.35525e-20 -0.0185631 0.00375372 1462.25
0 0.0185633 0.00375376 1462.44
1.35525e-20 -0.0185979 0.00364125 1454.07
2.71051e-20 0.018598 0.00364145 1454.26
7.52918e-22 -0.0187015 0.0032345 863.214
-2.63521e-21 0.0187015 0.00323454 865.255
-6.77626e-21 0.0187498 0.00382104 1711.2
0 -0.0187499 0.00382109 1711.45
6.77626e-21 -0.0191944 6.21354e-14 356.46
6.77626e-21 0.0191945 6.31148e-14 356.654
-2.71051e-20 0.019206 0.000471802 362.891
0 -0.0192061 0.000471779 362.695
0 -0.0191593 0.00145147 65.8322
2.71051e-20 0.0191594 0.00145147 64.9347
0 -0.0188253 0.00385016 1717.24
0 0.0188256 0.00385027 1717
2.71051e-20 -0.0190073 0.00284619 141.14
0 0.0190073 0.00284625 147.864
2.71051e-20 -0.0191388 0.00196705 53.1019
2.71051e-20 0.0191388 0.0019671 57.9009
0 -0.0188685 0.00376942 1678.08
-6.77626e-21 0.018869 0.0037691 1677.65
-3.01167e-21 -0.0189582 0.00362216 1482.49
6.02335e-21 0.0189583 0.00362229 1482.77
0 -0.0189216 0.00388925 1795.56
-6.77626e-21 0.0189225 0.00388962 1795.76
0 -0.0193512 0.00171027 58.3877
2.71051e-20 0.0193513 0.00171028 60.0476
-1.8823e-22 0.0194091 0.000938214 204.971
-9.41148e-22 -0.0194091 0.000938238 205.709
0 0.0194665 1.03809e-13 336.109
6.77626e-21 -0.0194667 1.03982e-13 335.866
-6.77626e-21 0.0194675 3.87291e-05 336.153
-6.77626e-21 -0.0194677 3.87998e-05 335.911
0 -0.0193303 0.00249034 90.9067
2.25875e-21 0.0193304 0.00249034 97.8181
0 -0.0191251 0.00398458 2073.76
0 0.0191255 0.00398476 2073.23
4.51751e-21 -0.0192993 0.00322371 508.297
2.25875e-21 0.0192993 0.00322385 513.052
1.35525e-20 -0.0191697 0.00393391 2026.92
2.71051e-20 0.0191699 0.0039342 2026.53
-2.71051e-20 -0.0195789 0.00146067 64.4441
-2.71051e-20 0.019579 0.00146066 62.8749
0 -0.0192179 0.00403218 1776.06
0 0.019218 0.00403225 1776.24
0 -0.0195388 0.00196492 47.2771
0 0.0195389 0.00196497 51.5288
0 0.0196412 8.27607e-14 327.612
0 -0.0196416 8.29008e-14 327.346
0 0.0196919 0.000506616 312.082
0 -0.019692 0.000506602 311.818
4.51751e-22 -0.0193628 0.00368329 1293.04
-3.38813e-22 0.019363 0.00368341 1294.7
0 0.0193747 0.00398015 1608.06
0 -0.019375 0.00397997 1607.5
1.35525e-20 0.0193748 0.00411568 1500.87
-6.77626e-21 -0.0193751 0.00411583 1499.99
0 -0.0196515 0.00282152 86.4255
2.71051e-20 0.0196515 0.00282158 95.8573
-2.71051e-20 -0.0196711 0.00346851 312.919
5.42101e-20 0.0196711 0.0034686 318.551
0 -0.0195407 0.00420391 1441.71
-6.77626e-21 0.0195414 0.00420428 1442.25
-1.35525e-20 0.0199999 7.50372e-14 302.654
-1.35525e-20 -0.02 7.50292e-14 302.364
-1.35525e-20 -0.02 0.000219893 302.141
1.35525e-20 0.02 0.000219865 302.431
2.71051e-21 -0.0196482 0.00405846 1603.47
5.42101e-21 0.0196485 0.0040588 1603.97
7.05861e-23 -0.0199968 0.00175177 54.1333
-6.35275e-22 0.0199969 0.00175158 56.2199
-2.71051e-20 0.0201205 2.66818e-14 304.294
2.71051e-20 -0.0201205 2.6706e-14 303.99
4.51751e-21 0.0201123 0.00105023 179.864
-4.51751e-21 -0.0201123 0.00105023 179.679
1.8823e-22 0.0200024 0.00235162 75.6367
9.41148e-23 -0.0200024 0.00235148 67.8083
-1.35525e-20 -0.0197164 0.0042974 1594.17
-2.71051e-20 0.0197167 0.00429758 1594.38
-1.12938e-21 -0.0199624 0.00315678 162.054
1.12938e-21 0.0199624 0.00315685 171.613
-1.35525e-20 -0.0198178 0.00435143 1607.78
-1.35525e-20 0.0198179 0.00435149 1607.96
0 -0.0198553 0.00424317 1624.22
1.35525e-20 0.0198553 0.00424344 1624.36
0 0.0203123 6.21673e-15 294.936
0 -0.0203123 6.15453e-15 294.613
0 0.0203177 0.000130837 294.979
0 -0.0203178 0.000130887 294.655
-9.41148e-22 -0.0199698 0.00385615 1027.02
5.64689e-22 0.0199699 0.00385623 1031.36
0 -0.0202712 0.00281164 62.0602
0 0.0202712 0.00281169 73.5967
6.77626e-21 0.0199999 0.00444852 1759.76
0 -0.0200001 0.00444866 1759.87
0 -0.0200603 0.00448072 1735
0 0.0200605 0.00448086 1734.67
-2.71051e-20 -0.0202704 0.00349441 173.807
0 0.0202704 0.00349451 185.7
0 -0.0201016 0.00441287 1707.49
-3.38813e-21 0.0201022 0.00441245 1706.94
-1.35525e-20 -0.0201267 0.00451611 1772.86
6.77626e-21 0.0201275 0.00451657 1772.89
0 -0.0202111 0.00425017 1525.24
7.52918e-22 0.0202112 0.00425035 1526.11
-5.42101e-20 -0.0206398 0.00178223 41.8775
0 0.0206398 0.00178224 44.4692
5.42101e-20 0.0207252 0.000539947 277.226
0 -0.0207252 0.000539947 276.858
-5.64689e-23 -0.0206014 0.00245361 51.5913
-1.12938e-22 0.0206014 0.00245364 59.8259
0 -0.0205843 0.00315109 96.803
3.38813e-21 0.0205843 0.00315114 108.65
1.35525e-20 -0.0203415 0.00463057 1992.22
-1.35525e-20 0.0203419 0.00463079 1991.84
2.71051e-20 -0.0203948 0.00457252 1947.42
1.35525e-20 0.0203951 0.00457287 1947.17
-4.51751e-21 -0.0205501 0.00386543 549.944
0 0.0205501 0.0038656 560.658
-2.71051e-20 -0.0204458 0.00468612 1709.46
0 0.020446 0.00468621 1709.71
-4.51751e-22 -0.0206078 0.00431767 1253.09
-1.12938e-22 0.0206079 0.0043178 1258.59
0 -0.0209209 0.00278889 45.5358
0 0.0209209 0.00278892 54.3201
1.35525e-20 0.0206249 0.00478151 1395.13
0 -0.0206251 0.00478166 1394.16
0 -0.0208847 0.00349062 102.345
2.71051e-20 0.0208848 0.00349071 117.526
0 0.0212499 5.88891e-15 262.659
0 -0.02125 5.846e-15 262.274
-1.35525e-20 0.0212499 9.47421e-05 262.826
-1.35525e-20 -0.02125 9.47488e-05 262.44
-3.38813e-20 -0.0207393 0.0048425 1349.09
2.71051e-20 0.0207401 0.00484287 1349.64
0 -0.0207851 0.00466132 1506.91
0 0.0207852 0.0046616 1507.49
2.71051e-20 -0.0209257 0.00410299 304.538
0 0.0209258 0.00410311 322.019
-4.51751e-21 0.0213163 0.00115801 152.169
2.25875e-21 -0.0213163 0.00115801 151.062
-1.35525e-20 0.0213762 3.47416e-16 257.819
0 -0.0213763 3.52781e-16 257.428
-2.25875e-21 0.0212885 0.0023263 48.0108
-1.12938e-21 -0.0212885 0.00232628 42.3224
-2.25875e-21 -0.021208 0.00309795 64.0308
2.82344e-21 0.021208 0.00309804 74.6314
0 0.0214867 0.000108918 251.767
0 -0.0214868 0.000108929 251.369
0 0.021494 4.39082e-16 251.7
1.35525e-20 -0.0214941 4.44414e-16 251.303
0 -0.0209342 0.00494631 1524.09
-1.35525e-20 0.0209345 0.00494647 1524.31
0 -0.0212468 0.00376747 172.742
-2.77403e-20 0.0212469 0.00376434 188.788
2.71051e-20 -0.0210473 0.00500657 1548.16
1.35525e-20 0.0210475 0.00500662 1548.38
1.35525e-20 -0.0210904 0.00488635 1560.31
1.35525e-20 0.0210904 0.00488661 1560.49
-2.25875e-21 -0.021209 0.00450257 975.802
1.8823e-21 0.021209 0.00450263 984.226
0 -0.0216448 0.00289598 39.46
0 0.0216448 0.00289599 46.847
0 0.0212499 0.0051145 1733.76
-1.69407e-20 -0.0212502 0.00511463 1733.95
3.38813e-21 -0.0212808 0.00513096 1725.34
0 0.0212811 0.00513109 1725
5.42101e-20 -0.0216428 0.0033368 63.3245
-2.71051e-20 0.0216428 0.00333687 73.7916
0 -0.0213032 0.00509534 1709.97
0 0.0213038 0.00509491 1709.39
2.71051e-20 -0.0215146 0.00414921 177.467
0 0.0215147 0.00414931 196.173
-3.38813e-21 -0.0213149 0.00514909 1746.59
0 0.0213156 0.0051495 1746.6
-5.42101e-20 0.0219709 0.000580197 238.174
0 -0.0219709 0.000580199 237.761
-4.51751e-21 -0.0214405 0.004897 1489.98
1.50584e-21 0.0214407 0.00489715 1491.5
0 -0.0219196 0.00179912 40.1724
0 0.0219196 0.00179913 41.2535
1.41172e-22 -0.0218787 0.00244236 38.7327
7.05861e-23 0.0218787 0.00244239 43.5616
-2.71051e-20 -0.0218432 0.00311327 48.067
0 0.0218433 0.0031133 55.8792
7.52918e-22 -0.0218301 0.0038218 110.081
-1.50584e-21 0.0218301 0.00382182 123.853
0 -0.0215576 0.00527841 2005.92
0 0.021558 0.0052786 2005.45
-2.71051e-20 -0.0216182 0.00521393 1954.68
-1.35525e-20 0.0216184 0.00521423 1954.32
2.71051e-20 -0.0220639 0.00288704 35.5094
0 0.022064 0.00288704 40.5903
-2.25875e-21 -0.0217938 0.00451153 528.137
3.76158e-37 0.0217939 0.00451169 541.524
-2.71051e-20 -0.0220345 0.00332363 50.7466
-2.71051e-20 0.0220345 0.0033237 58.0845
2.71051e-20 -0.0216749 0.00534089 1686.9
-2.71051e-20 0.021675 0.00534096 1687.03
2.25875e-22 -0.0218357 0.0049688 1238.15
-1.35525e-21 0.0218359 0.0049689 1245.43
1.35525e-20 -0.0225 -1.52821e-17 235.838
0 0.0225 -1.57465e-17 236.236
0 -0.0225 8.45373e-05 235.802
0 0.0225 8.45231e-05 236.201
0 -0.0221466 0.00413235 99.5219
0 0.0221467 0.00413241 113.035
6.77626e-21 0.0218749 0.00544743 1346.42
-1.35525e-20 -0.0218752 0.00544758 1345.63
1.35525e-20 0.0225909 4.65266e-17 236.474
0 -0.0225909 4.69287e-17 236.075
1.12938e-21 0.0225622 0.00117125 140.064
-5.64689e-21 -0.0225622 0.00117125 139.05
-3.38813e-21 -0.0219451 0.00548483 1319.44
1.01644e-20 0.0219457 0.00548514 1319.92
-4.51751e-21 -0.0220187 0.00530662 1474.78
-4.51751e-21 0.0220188 0.00530685 1475.23
-2.71051e-20 -0.0221547 0.00476019 313.064
-2.71051e-20 0.0221548 0.0047603 335.548
0 0.0226735 8.15432e-05 234.699
0 -0.0226735 8.15576e-05 234.301
0 0.0226781 2.50202e-17 234.689
1.35525e-20 -0.0226781 2.52055e-17 234.29
3.38813e-21 -0.0225519 0.00239249 36.3135
1.12938e-21 0.0225519 0.00239251 39.4862
-5.64689e-22 -0.0224875 0.00303825 39.3966
0 0.0224874 0.00303838 44.76
1.27055e-21 -0.0224629 0.00366675 70.3214
0 -0.0225 0.00357657 63.5989
3.5293e-22 0.0224954 0.00364647 76.179
4.23516e-22 -0.0225054 0.00366219 67.7505
1.69407e-21 -0.0225 0.00370544 74.0095
-1.35525e-20 -0.0221583 0.00559842 1501.66
1.35525e-20 0.0221586 0.00559854 1501.89
8.47033e-22 -0.0225595 0.00366878 66.1451
-4.51751e-21 -0.0224493 0.00445918 168.165
3.38813e-21 0.0224493 0.00445926 182.011
0 -0.0222813 0.00566396 1526.21
2.71051e-20 0.0222814 0.00566399 1526.44
0 -0.0223283 0.0055339 1540.59
0 0.0223283 0.00553411 1540.79
2.25875e-21 -0.022442 0.0051554 965.885
-5.64689e-21 0.0224422 0.00515546 972.933
0 -0.0227594 0.00412239 69.6652
-2.71051e-20 0.0227594 0.00412245 74.7519
5.42101e-20 0.0231923 0.000587091 232.557
0 -0.0231923 0.000587093 232.174
0 0.0225 0.00578038 1717.26
6.77626e-21 -0.0225001 0.00578047 1717.18
-5.42101e-20 -0.0231697 0.00178812 38.8162
-5.42101e-20 0.0231697 0.00178812 41.0221
8.47033e-22 -0.022509 0.0057852 1714.48
0 0.0225092 0.00578529 1714.46
0 -0.0225156 0.00577475 1710.06
0 0.0225161 0.00577442 1709.87
0 -0.0227517 0.00479277 176.098
-2.71051e-20 0.0227517 0.00479285 189.392
6.77626e-21 -0.022519 0.00579052 1720.45
-8.47033e-22 0.0225196 0.00579082 1720.65
-5.42101e-20 -0.0231209 0.00309542 30.3372
5.42101e-20 0.0231209 0.00309543 33.9469
6.02335e-21 -0.0226735 0.00554744 1466.52
-6.02335e-21 0.0226736 0.00554757 1467.37
1.12938e-21 -0.0230931 0.0037817 51.55
-1.8823e-21 0.0230931 0.00378171 55.3358
4.51751e-21 -0.023068 0.00445638 100.341
0 0.023068 0.00445642 105.981
1.35525e-20 -0.0227839 0.00593188 1993.43
0 0.0227842 0.005932 1993.26
-1.35525e-20 -0.0228494 0.00586207 1939.16
-1.35525e-20 0.0228495 0.00586228 1939.07
0 -0.0230299 0.00515588 509.481
4.51751e-21 0.0230299 0.00515601 514.019
0 -0.0229107 0.00599969 1647.19
0 0.0229108 0.00599972 1647.43
1.807e-21 -0.023072 0.00561895 1216.1
3.61401e-21 0.0230721 0.00561903 1218.06
0 -0.0237499 1.53806e-17 232.565
0 0.0237499 1.52288e-17 232.902
0 -0.0237499 6.33779e-05 232.568
0 0.0237499 6.33677e-05 232.904
-2.71051e-20 -0.0234048 0.00409564 45.9996
2.71051e-20 0.0234048 0.00409567 48.5397
0 0.0238176 -7.65452e-19 233.106
-1.35525e-20 -0.0238176 -7.74447e-19 232.774
0 0.0237988 0.00117061 139.584
2.25875e-21 -0.0237988 0.00117061 136.541
0 -0.0233657 0.00479034 105.329
0 0.0233657 0.00479041 106.649
1.35525e-20 0.023881 6.14989e-05 232.989
0 -0.023881 6.15082e-05 232.662
0 0.0238829 -9.01429e-19 232.989
0 -0.0238829 -9.09767e-19 232.662
-5.64689e-22 -0.0237728 0.00241912 32.9451
1.69407e-21 0.0237728 0.00241912 39.1876
3.38813e-21 0.0231249 0.00611537 1308.63
0 -0.0231251 0.00611547 1308.07
-3.38813e-21 -0.0231675 0.00613814 1290.65
2.03288e-20 0.0231678 0.00613837 1290.95
0 -0.0232581 0.00596031 1436.7
0 0.0232581 0.00596047 1437.03
0 -0.0234009 0.00540249 301.099
0 0.0234009 0.00540257 306.424
-1.31761e-21 0.0237508 0.00364547 43.8069
1.41172e-21 -0.0237509 0.00364542 39.5471
-3.01167e-21 -0.0236805 0.0044373 67.3497
-2.25875e-21 0.0236805 0.00443733 70.123
1.35525e-20 -0.0233932 0.00626093 1430.1
-2.71051e-20 0.0233933 0.00626104 1430.17
5.64689e-22 -0.0237268 0.00506487 171.324
-2.82344e-21 0.0237268 0.00506492 173.572
6.77626e-21 -0.0235127 0.00635105 1427.6
6.77626e-21 0.0235127 0.00635107 1427.59
-2.71051e-20 0.0235682 0.00620609 1453.8
0 -0.0235683 0.00620596 1453.8
-3.76459e-22 -0.0236825 0.00581857 914.212
-1.8823e-21 0.0236825 0.00581861 912.594
5.42101e-20 0.024425 0.000586041 233.35
5.42101e-20 -0.024425 0.000586042 233.071
0 -0.0244106 0.0017889 37.4739
5.42101e-20 0.0244106 0.0017889 46.8999
0 -0.0241349 0.00419976 39.9823
0 0.0241349 0.00419977 42.7238
0 -0.0236698 0.00645559 1469.73
-3.38813e-21 0.0236701 0.00645581 1469.88
0 -0.0237098 0.00644182 1482.96
-3.38813e-21 0.0237098 0.0064421 1483.06
2.71051e-20 -0.0241326 0.00462568 61.6555
0 0.0241326 0.00462574 67.1705
3.38813e-21 -0.02371 0.00648353 1505.54
3.38813e-21 0.02371 0.00648359 1505.54
5.42101e-20 -0.0243927 0.00306992 24.8529
-5.42101e-20 0.0243927 0.00306993 34.445
0 -0.0239945 0.00544749 171.406
-2.71051e-20 0.0239946 0.00544754 166.549
-3.38813e-21 0.02375 0.00643561 1446.51
-6.77626e-21 -0.0237501 0.00643531 1446.8
0 0.02375 0.00647619 1516.44
0 -0.0237501 0.0064761 1516.49
0 0.02375 0.00651289 1540.32
-3.38813e-21 -0.0237501 0.00651298 1540.47
1.12938e-21 -0.0243523 0.00372354 33.3215
-2.82344e-22 0.0243523 0.00372357 38.5853
-9.03502e-21 -0.023909 0.00623587 1312.52
-1.35525e-20 0.0239121 0.00623353 1311.04
-2.71051e-20 -0.0243287 0.00441257 46.1205
2.71051e-20 0.0243287 0.00441259 49.7012
0 -0.0239124 0.00663207 1670.61
3.38813e-20 0.0239125 0.00663216 1670.74
2.25875e-21 -0.0243138 0.00512039 103.235
0 0.0243139 0.00512041 103.087
-2.71051e-20 -0.0245437 0.00418673 33.3724
2.71051e-20 0.0245437 0.00418673 36.2342
0 -0.0240426 0.00656012 1666.12
-4.06576e-20 0.0240426 0.00656023 1666.23
2.71051e-20 -0.0245161 0.00461185 45.9117
0 0.0245161 0.00461189 49.3535
0 -0.0240315 0.00671934 1742.03
0 0.0240316 0.00671938 1742.13
4.51751e-21 -0.0242758 0.00580919 454.04
-4.51751e-21 0.0242758 0.00580927 449.014
0 -0.025 4.25728e-20 233.712
-6.77626e-21 0.025 4.33043e-20 233.897
0 0.025 4.32622e-05 233.899
6.77626e-21 -0.025 4.32621e-05 233.714
0 -0.025046 -4.79639e-20 233.757
0 0.025046 -4.77043e-20 233.936
-2.25875e-21 0.0250354 0.00116998 148.051
2.25875e-21 -0.0250354 0.00116998 136.766
-4.06576e-20 -0.0241476 0.00680413 1828.08
0 0.0241477 0.00680414 1828.14
0 0.0250898 4.20523e-05 233.953
0 -0.0250898 4.20523e-05 233.783
0 0.0250906 -2.73423e-20 233.953
0 -0.0250906 -2.74503e-20 233.783
-1.35525e-20 -0.0241992 0.00668118 1782.65
0 0.0241992 0.00668122 1782.71
-5.64689e-22 0.0250241 0.00240547 50.5269
-1.12938e-21 -0.0250241 0.00240547 30.9106
6.45358e-22 -0.0243359 0.00637899 1164.33
-6.45358e-22 0.0243359 0.00637903 1163.09
0 -0.0246314 0.00542109 86.7639
0 0.0246314 0.00542114 85.4098
0 -0.0250347 0.00367577 27.735
3.38813e-21 0.0250347 0.00367578 38.8791
1.69407e-21 -0.0243362 0.00694196 1997.8
0 0.0243364 0.00694208 1998.07
0 -0.0243563 0.00693957 2006.13
0 0.0243564 0.0069397 2006.34
0 -0.0243567 0.00695693 2009.68
0 0.0243568 0.00695694 2009.87
0 0.024375 0.00693989 1982.47
0 -0.024375 0.00693977 1981.94
0 -0.0249795 0.00428499 35.0813
0 0.0249795 0.00428507 41.7103
1.69407e-21 0.0243749 0.00695723 2027.05
0 -0.024375 0.00695722 2026.97
0 0.024375 0.00697023 2036.02
1.69407e-21 -0.024375 0.0069703 2036
0 -0.0246322 0.00606144 241.1
0 0.0246322 0.00606149 236.696
4.51751e-21 -0.0245424 0.00675061 1788.29
3.01167e-21 0.0245425 0.00675063 1789.34
2.82344e-22 -0.0249911 0.00494763 58.2902
8.47033e-22 0.0249911 0.00494764 62.6287
-1.12938e-21 -0.0249356 0.00573781 127.283
-3.38813e-21 0.0249356 0.00573785 127.211
-2.71051e-20 -0.0246075 0.00714003 2146.88
-1.35525e-20 0.0246076 0.00714004 2147
5.42101e-20 0.0256596 0.000584403 234.513
5.42101e-20 -0.0256596 0.000584399 234.438
-2.71051e-20 -0.0246898 0.00706692 2094.24
0 0.0246898 0.00706694 2094.37
0 0.0256513 0.00178375 73.8282
-5.42101e-20 -0.0256513 0.00178375 38.0094
-2.25875e-21 -0.0249064 0.00639899 643.765
-4.51751e-21 0.0249064 0.00639903 642.369
2.71051e-20 0.0247468 0.00724165 1699.29
0 -0.0247468 0.00724167 1699.09
2.71051e-20 -0.0252513 0.00539781 55.6506
-2.71051e-20 0.0252513 0.00539784 61.0243
1.0842e-19 0.0256477 0.00303996 46.4527
0 -0.0256477 0.00303996 22.9946
4.51751e-22 -0.0249285 0.00685564 1313.96
0 0.0249285 0.00685565 1314.34
0 -0.0252422 0.00605447 120.119
0 0.0252422 0.0060545 119.884
0 -0.0256136 0.00437241 27.59
5.42101e-20 0.0256136 0.00437242 39.2273
0 -0.0249514 0.00739106 1185.63
0 0.0249514 0.00739106 1185.86
0 0.025 0.00734698 1166.96
-3.38813e-21 -0.025 0.00734695 1166.72
-1.01644e-20 0.025 0.00742651 1169.96
0 -0.025 0.00742654 1169.71
0 -0.025588 0.00505815 41.5212
1.50584e-21 0.025588 0.00505815 50.0945
0 0.0251003 0.00720442 1341.37
9.03502e-21 -0.0251003 0.00720441 1341.1
0 -0.02526 0.00665811 323.01
-2.71051e-20 0.02526 0.00665814 320.84
1.12938e-21 -0.0255647 0.0057142 70.1996
1.12938e-21 0.0255647 0.00571422 74.4719
0 0.0262499 -1.17333e-20 236.222
0 0.0262499 2.68782e-05 236.223
0 -0.02625 -1.18191e-20 236.161
3.38813e-21 -0.02625 2.68839e-05 236.162
0 0.0262784 8.82353e-22 236.292
0 -0.0262785 8.93139e-22 236.232
-2.71051e-20 -0.0251837 0.0075606 1249.21
1.35525e-20 0.0251837 0.0075606 1249.47
5.64689e-22 0.0262748 0.00116563 160.292
-5.64689e-22 -0.0262748 0.00116563 138.413
0 0.026306 2.61551e-05 236.321
3.38813e-21 -0.0263061 2.61606e-05 236.265
0 0.0263062 9.74042e-22 236.321
-3.38813e-21 -0.0263063 9.84463e-22 236.265
0 -0.0255555 0.00636327 171.577
0 0.0255555 0.00636329 170.061
0 0.0262714 0.00239141 65.5339
-5.64689e-22 -0.0262715 0.00239141 30.8314
-2.71051e-20 -0.0259044 0.00536018 35.8272
-2.71051e-20 0.0259044 0.00536019 45.5911
-1.35525e-20 0.0253355 0.00767149 1207.77
-6.77626e-21 -0.0253355 0.0076715 1207.5
0 -0.0255298 0.00708812 842.235
1.50584e-21 0.0255298 0.00708813 841.586
5.64689e-22 0.0262615 0.00368784 43.5804
5.64689e-22 -0.0262615 0.00368784 23.8065
0 -0.0253883 0.00771 1212.49
3.38813e-21 0.0253883 0.00771 1212.76
-2.71051e-21 0.0254866 0.00748704 1232.78
-5.42101e-21 -0.0254866 0.00748704 1232.51
2.71051e-20 -0.0258703 0.00603066 67.8103
-2.71051e-20 0.0258703 0.00603068 69.8485
6.77626e-21 -0.0255128 0.00767403 1250.94
0 0.0255128 0.00767405 1251.23
0 -0.025508 0.00779742 1304.21
0 0.025508 0.00779742 1304.5