# omega  POINT_DATA 52043
# x  y  z  omega
0.014142 -1.35525e-20 8.40343e-08 1362.18
-0.014142 1.35525e-20 8.40343e-08 1362.5
-0.014142 -6.77626e-21 0.000246014 1360.26
0.014142 0 0.000246007 1359.9
-0.014142 6.77626e-21 0.000413822 1461.91
0.014142 -6.77626e-21 0.000413834 1461.57
-0.014142 -1.35525e-20 0.000659755 1761.11
0.014142 0 0.000659755 1760.83
-0.014142 3.38813e-21 0.000918791 2064.88
0.014142 6.77626e-21 0.000918788 2064.63
0.014142 0 0.00109554 2212.36
-0.014142 1.01644e-20 0.00109555 2212.6
0.014142 1.35525e-20 0.00135458 2340.46
-0.014142 1.35525e-20 0.00135458 2340.62
0.014142 -1.01644e-20 0.00162764 2464.74
-0.014142 3.38813e-21 0.00162762 2464.84
-0.014252 0 0.000123103 1362.41
0.014252 -1.35525e-20 0.00012308 1362.12
-0.0142534 0 8.87869e-08 1362.41
0.0142534 -1.35525e-20 8.87839e-08 1362.12
0.014142 3.38813e-21 0.00181395 2269.01
-0.014142 0 0.00181396 2269.08
-0.014252 0 0.000530071 1608.93
0.014252 0 0.000530089 1608.68
-0.0142482 0 0.00077532 1921.91
0.0142482 1.35525e-20 0.00077531 1921.67
0.014142 -1.35525e-20 0.002087 1557.71
-0.014142 1.35525e-20 0.002087 1557.8
-0.0142482 0 0.00119849 2275.54
0.0142482 0 0.00119848 2275.36
0.0142438 0 0.00144431 2409.61
-0.0142438 1.35525e-20 0.00144431 2409.72
0.0142438 1.35525e-20 0.00188165 1950.17
-0.0142438 0 0.00188166 1950.26
0.014376 -1.35525e-20 9.02284e-08 1259.57
-0.014376 0 9.023e-08 1259.73
0.0143755 1.35525e-20 0.000639268 1436.49
-0.0143755 0 0.000639267 1436.4
-0.0142629 6.77626e-21 0.00213232 1298.4
0.0142629 6.77626e-21 0.00213231 1298.29
-0.0143002 -1.35525e-20 0.00203592 1392.64
0.0143002 0 0.00203591 1392.55
-0.0144129 -1.35525e-20 0.000955929 2180
0.0144129 0 0.000955927 2179.84
0.0143941 1.35525e-20 0.00157783 2518.26
-0.0143941 1.35525e-20 0.00157784 2518.35
-0.0143749 6.77626e-21 0.00187281 1392.32
0.0143749 6.77626e-21 0.0018728 1391.32
-0.0144696 -4.51751e-21 0.00124267 1724.4
0.0144696 4.51751e-21 0.00124266 1723.24
-0.014375 0 0.00217431 1357.32
0.014375 0 0.00217432 1357.2
-0.0145418 0 0.000318554 1248.24
0.0145418 -6.77626e-21 0.000318551 1248.21
-0.0145497 1.35525e-20 9.54658e-08 1255.71
0.0145497 -1.35525e-20 9.54632e-08 1255.65
-0.0145347 -1.35525e-20 0.000782523 1608.09
0.0145347 1.35525e-20 0.000782537 1608.28
-0.0145148 1.35525e-20 0.00222669 1025.99
0.0145148 -1.35525e-20 0.00222669 1025.91
0.0146121 1.93608e-21 0.00162981 1454.35
-0.0146121 7.7443e-21 0.00162982 1455.13
-0.0145852 1.05879e-22 0.00194555 1068.87
0.0145837 -4.87044e-21 0.00194477 1068.77
-0.0147196 0 1.04732e-07 1127.37
0.0147196 0 1.0473e-07 1127.31
0.0146004 -1.27055e-21 0.00194655 1054.55
-0.0146005 2.0117e-21 0.00194659 1054.5
-0.0147092 0 0.000900995 990.58
0.0147092 4.51751e-21 0.000900993 1019.34
-0.0145873 -8.13152e-20 0.00225387 1146.73
0.0145873 0 0.00225387 1146.64
-0.0146975 -2.25875e-21 0.00143127 1063.95
0.0146975 2.25875e-21 0.00143126 1095.57
-0.0148082 0 0.000136903 1041.05
0.0148083 -1.35525e-20 0.000136875 1041.04
-0.0148167 2.71051e-20 9.37179e-08 1045.86
0.0148167 0 9.37183e-08 1045.85
-0.0148641 -1.35525e-20 8.83354e-08 1122.78
0.0148641 -1.35525e-20 8.83376e-08 1122.74
-0.0148598 -1.29072e-21 0.000624026 857.411
0.0148598 -2.58143e-21 0.000624027 856.148
-0.0148447 3.26265e-21 0.00116603 780.828
0.0148447 -2.25875e-21 0.00116603 779.545
0.0147327 4.06576e-20 0.00230835 832.21
-0.0147327 0 0.00230836 832.229
0.0148335 7.52918e-21 0.0015921 812.396
-0.0148335 -3.01167e-21 0.00159211 812.075
0.015 1.35525e-20 7.4908e-08 1093.53
-0.015 -1.35525e-20 7.49029e-08 1093.54
-0.0149884 1.50584e-21 0.00205342 762.22
0.0149884 1.22349e-21 0.00205341 762.283
-0.015176 2.25875e-21 0.000230687 1017.86
0.015176 6.77626e-21 0.000230679 1018.17
0.015 -3.38813e-21 0.00240854 900.208
-0.015 0 0.00240855 900.263
-0.0152021 -4.51751e-21 0.000843378 336.624
0.0152021 4.51751e-21 0.000843372 336.976
-0.0150379 0 0.00242273 925.404
0.0150379 -3.38813e-21 0.00242272 925.352
-0.0152016 4.51751e-21 0.0014348 304.676
0.0152016 -4.51751e-21 0.00143479 310.868
-0.0152989 0 2.20825e-08 1059.84
0.015299 0 2.20806e-08 1059.85
0.0151247 0 0.00245524 954.458
-0.0151247 -3.38813e-21 0.00245526 954.52
0.0153962 -2.71051e-20 0.000531794 751.907
-0.0153962 -2.71051e-20 0.000531794 750.002
-0.0154492 -1.35525e-20 8.76993e-09 1188.15
0.0154492 -2.71051e-20 8.76964e-09 1188.14
0.0154139 0 0.00109981 312.525
-0.0154139 -2.71051e-20 0.00109982 308.41
-0.0152781 0 0.00251266 1029.55
0.0152781 6.77626e-21 0.00251265 1029.5
0.015387 -2.71051e-20 0.00178913 544.305
-0.015387 2.71051e-20 0.00178913 541.802
-0.0153098 0 0.00239462 999.8
0.0153098 3.38813e-21 0.00239458 999.73
-0.015387 -2.25875e-21 0.00225338 996.94
0.015387 0 0.00225337 997.071
0.0156089 -1.35525e-20 7.21547e-09 1250.95
-0.0156089 0 7.21529e-09 1250.94
0.0154678 0 0.00258382 1219.11
-0.0154678 -1.35525e-20 0.00258382 1219.12
-0.0156827 6.77626e-21 0.00072818 342.365
0.0156827 -6.77626e-21 0.000728171 364.893
0.0157226 -1.12938e-21 0.000233621 1244.86
-0.0157226 -3.38813e-21 0.000233615 1244.62
0.0157188 4.51751e-21 0.00143117 222.971
-0.0157188 1.12938e-20 0.00143117 224.956
-0.0156648 -1.69407e-21 0.00226708 994.248
0.0156648 0 0.00226708 993.592
-0.015625 1.35525e-20 0.00254192 1393.39
0.0156251 0 0.00254193 1393.4
-0.015625 -2.03288e-20 0.00264258 1473.04
0.015625 1.35525e-20 0.00264259 1473.06
-0.015761 -9.03502e-21 0.00197935 444.611
0.0157611 0 0.00197935 443.078
0.0159582 0 4.57718e-09 1223.62
-0.0159583 -1.35525e-20 4.57567e-09 1223.54
-0.0157606 0 0.00269322 1590.15
0.0157606 -4.06576e-20 0.00269323 1590.2
-0.0158055 -2.71051e-21 0.0025037 1480.24
0.0158056 2.71051e-21 0.00250371 1480.28
-0.0160275 -4.06576e-20 0.000416984 795.877
0.0160275 6.77626e-21 0.000416987 796.608
0.0160955 -1.35525e-20 3.28682e-09 1112.23
-0.0160956 0 3.28517e-09 1112.2
0.0161395 -1.35525e-20 0.000104149 970.843
-0.0161396 0 0.000104133 970.826
0.0160615 0 0.00176843 328.864
-0.0160615 0 0.00176842 327.793
-0.0161376 1.50584e-21 0.000847369 307.308
0.0161376 -9.78794e-21 0.000847386 310.381
0.01616 -1.35525e-20 3.02629e-09 985.274
-0.01616 -1.35525e-20 3.02459e-09 985.263
-0.0159592 2.71051e-20 0.00276747 1212.45
0.0159593 -2.71051e-20 0.00276748 1212.55
-0.0160632 -1.35525e-20 0.00225586 823.782
0.0160632 -1.35525e-20 0.00225589 823.989
0.0162499 0 2.49196e-09 928.187
-0.01625 -1.35525e-20 2.49049e-09 928.16
0.0163213 8.13152e-21 0.00143843 189.904
-0.0163214 -1.0842e-20 0.0014384 187.93
-0.0163246 0 0.0019752 255.648
0.0163246 8.13152e-21 0.00197521 258.73
-0.01625 1.69407e-20 0.00287738 1108.85
0.0162501 -3.38813e-20 0.00287742 1109.07
0.0165397 2.37169e-20 1.49551e-09 735.708
-0.0165398 1.01644e-20 1.49503e-09 735.676
0.0165485 0 0.000259443 703.443
-0.0165486 0 0.00025939 703.402
-0.0162993 2.03288e-20 0.00289583 1098.48
0.0162996 -3.04932e-20 0.00289591 1098.69
-0.0163628 -2.25875e-21 0.0026102 1068.67
0.0163629 4.51751e-21 0.00261026 1068.98
0.016602 2.03288e-20 1.39857e-09 727.924
-0.0166022 -1.01644e-20 1.39777e-09 727.875
0.0167779 1.17455e-20 0.000788065 339.841
-0.0167779 -1.807e-21 0.000788044 341.534
0.0168224 0 8.07643e-10 826.037
-0.0168225 -1.35525e-20 8.07608e-10 825.886
-0.016756 6.77626e-21 0.00167756 133.814
0.016756 4.51751e-21 0.00167758 136.322
-0.0165907 0 0.00300593 1022.94
0.0165909 -2.71051e-20 0.00300602 1023.09
-0.0167321 -4.51751e-21 0.00229258 496.484
0.0167321 -4.51751e-21 0.00229264 499.482
0.0169397 -1.35525e-20 0.000139012 733.83
-0.0169397 0 0.000138902 733.74
-0.0169619 -1.35525e-20 4.50845e-10 751.213
0.0169619 0 4.50833e-10 751.319
0.017069 -1.35525e-20 0.00034548 718.219
-0.017069 1.35525e-20 0.000345515 718.134
-0.0168154 2.71051e-20 0.00309174 711.464
0.0168157 2.03288e-20 0.00309186 711.557
-0.0170882 0 0.00125548 91.9242
0.0170883 -2.71051e-20 0.00125549 89.9094
-0.016875 -1.01644e-20 0.00299682 693.239
0.0168752 -1.01644e-20 0.00299705 693.37
-0.016875 0 0.00311456 731.062
0.0168752 -3.38813e-21 0.00311463 731.103
-0.0169715 -3.38813e-21 0.0027608 715.812
0.0169716 -3.38813e-21 0.00276088 716.356
-0.0170765 0 0.00207965 130.242
0.0170765 2.71051e-20 0.00207967 135.567
-0.017311 -2.03288e-20 7.14894e-11 636.413
0.0173114 0 7.13597e-11 636.396
-0.0170892 -4.06576e-20 0.00319641 886.925
0.0170896 0 0.00319653 886.909
-0.0174107 -6.77626e-21 5.81532e-05 617.125
0.0174108 0 5.80005e-05 617.153
-0.0173964 4.51751e-21 0.000777676 357.684
0.0173964 2.25875e-21 0.000777666 358.571
-0.0174228 0 5.17295e-11 620.757
0.0174229 0 5.16506e-11 620.777
0.0174572 6.77626e-21 4.88994e-11 628.218
-0.0174572 -6.77626e-21 4.89702e-11 628.221
-0.0174069 2.25875e-21 0.00167765 101.664
0.017407 2.25875e-21 0.00167766 106.081
0.0175 0 4.74701e-11 620.616
0.0175 0 5.73648e-05 618.835
-0.0175001 0 4.75352e-11 620.603
-0.0175001 6.77626e-21 5.75034e-05 618.82
-0.0172483 0 0.00325639 955.813
0.0172486 1.35525e-20 0.00325649 955.755
-0.0172998 -2.71051e-20 0.00306964 941.231
0.0173001 0 0.00306981 941.19
-0.0174323 1.69407e-21 0.00258936 536.617
0.0174324 -1.12938e-21 0.0025894 539.821
-0.0174579 0 0.00333599 1181.3
0.0174583 1.69407e-21 0.00333616 1181.47
-0.0177431 0 0.00123883 87.7248
0.0177432 -5.42101e-20 0.00123884 94.3591
-0.0174808 1.69407e-21 0.00332482 1199.18
0.017481 0 0.00332506 1199.21
-0.0174846 1.69407e-21 0.00334611 1215.96
0.0174848 0 0.00334621 1215.88
-0.0178054 0 0.000414179 466.638
0.0178055 0 0.000414187 466.578
-0.0175001 0 0.00332274 1199.3
0.0175002 0 0.00332299 1199.43
-0.0175001 1.69407e-21 0.00334231 1236.34
0.0175002 3.38813e-21 0.00334243 1236.14
-0.0175001 0 0.00335193 1246.53
0.0175002 0 0.00335199 1246.26
0.0178186 3.38813e-21 2.6307e-11 535.92
-0.0178194 3.38813e-21 2.62871e-11 535.721
-0.0177187 2.71051e-20 0.00210757 93.2191
0.0177188 -2.71051e-20 0.0021076 100.794
-0.0176383 9.03502e-21 0.00303865 993.242
0.0176385 0 0.00303873 993.813
-0.0176486 0 0.00304387 994.656
0.0176488 0 0.00304395 995.26
-0.0177861 1.35525e-20 0.00345972 1555.83
0.0177863 -1.35525e-20 0.00345982 1555.75
0.0181318 0 5.25144e-05 435.157
-0.0181318 -6.77626e-21 5.23832e-05 435.229
0.0181327 0 7.40306e-12 435.745
-0.0181328 0 7.40812e-12 435.814
-0.0180579 -1.12938e-21 0.00168517 83.9632
0.018058 3.38813e-21 0.00168519 91.4507
-0.0181177 -1.8823e-22 0.000826258 264.306
0.0181178 -4.70574e-22 0.000826333 267.06
-0.0178474 -2.71051e-20 0.00337592 1508.95
0.0178475 -1.35525e-20 0.00337606 1508.89
-0.0181788 0 1.20998e-12 430.937
0.0181789 -6.77626e-21 1.20234e-12 430.854
-0.0180132 -9.03502e-21 0.0025453 312.794
0.0180133 4.51751e-21 0.00254538 322.142
-0.018224 6.77626e-21 6.67961e-05 428.324
0.0182242 0 6.69571e-05 428.228
-0.0182303 0 9.60874e-13 428.098
0.0182306 0 9.55329e-13 428
-0.0179205 -2.71051e-20 0.00351035 1336.75
0.0179207 0 0.00351043 1336.73
-0.0180629 4.06576e-21 0.00308315 928.077
0.0180631 9.03502e-22 0.00308322 932.993
-0.0184105 -2.71051e-20 0.00127258 83.6629
0.0184105 -5.42101e-20 0.00127259 88.3151
-0.018125 -6.77626e-21 0.00358731 1163.34
0.0181251 6.77626e-21 0.00358737 1163.49
-0.0183578 5.42101e-20 0.0021071 70.369
0.0183579 0 0.00210715 81.4813
-0.018476 -2.71051e-20 0.000447745 399.594
0.0184761 2.71051e-20 0.000447774 399.492
-0.0182327 -3.38813e-20 0.00362784 1184.86
0.0182331 -2.03288e-20 0.00362801 1185.08
-0.0182772 -9.03502e-21 0.0034369 1253.46
0.0182774 1.807e-20 0.00343704 1253.6
-0.018396 2.71051e-20 0.00281574 223.599
0.0183961 0 0.00281581 241.847
0.01875 0 4.62891e-13 387.397
-0.0187501 0 4.6467e-13 387.465
0.01875 0 9.91689e-05 386.996
-0.0187501 6.77626e-21 9.90278e-05 387.065
-0.0187024 3.10579e-21 0.00167427 82.223
0.0187024 -1.97641e-21 0.00167431 89.705
-0.0184518 -1.35525e-20 0.00371033 1402.48
0.0184522 1.35525e-20 0.00371046 1402.55
0.0188247 0 9.24778e-14 386.656
-0.0188248 -1.35525e-20 9.05194e-14 386.714
-0.0188281 -4.51751e-21 0.000901811 231.912
0.0188281 0 0.000901813 234.91
-0.0188891 0 9.99751e-05 381.863
0.0188891 0 0.000100089 381.807
-0.0187325 -2.82344e-22 0.00243398 131.24
0.0187326 5.64689e-22 0.00243401 144.012
-0.0188926 0 7.49551e-14 381.868
0.0188926 -1.35525e-20 7.69428e-14 381.812
-0.0185639 1.35525e-20 0.00375412 1461.69
0.0185642 2.71051e-20 0.00375424 1461.67
-0.0185985 0 0.00364208 1453.51
0.0185987 -2.71051e-20 0.00364225 1453.51
-0.0187022 0 0.00323478 870.077
0.0187024 -1.12938e-21 0.00323486 874.71
-0.01875 0 0.00382122 1710.15
0.0187502 0 0.00382131 1710.01
0.0191944 6.77626e-21 6.30458e-14 356.713
-0.0191946 -6.77626e-21 6.21199e-14 356.754
-0.0192061 -2.71051e-20 0.000471782 362.998
0.0192062 0 0.000471778 362.974
-0.0191595 -2.71051e-20 0.00145141 70.6602
0.0191595 -2.71051e-20 0.00145142 78.6658
-0.0188263 0 0.00385065 1716.1
0.0188267 6.77626e-21 0.00385081 1715.98
-0.0190077 -2.71051e-20 0.00284643 144.629
0.0190078 5.42101e-20 0.0028465 159.017
-0.019139 0 0.00196722 58.8184
0.019139 5.42101e-20 0.00196726 66.8995
-0.0188699 0 0.00376892 1676.47
0.0188703 0 0.0037689 1676.29
-0.0189588 0 0.00362259 1483.34
0.0189592 -6.02335e-21 0.00362275 1482.51
-0.0189237 1.35525e-20 0.00389016 1795.41
0.0189243 -1.35525e-20 0.00389043 1795.51
-0.0193514 0 0.0017103 63.187
0.0193515 2.71051e-20 0.00171031 71.5632
-0.0194092 0 0.000938181 208.357
0.0194092 1.31761e-21 0.000938235 211.711
-0.0194666 0 1.03845e-13 336.211
0.0194668 0 1.03775e-13 336.143
-0.0194676 0 3.86909e-05 336.256
0.0194678 0 3.88215e-05 336.188
-0.0193306 2.25875e-21 0.00249036 93.9712
0.0193307 -7.52918e-22 0.00249038 107.988
-0.019126 0 0.00398495 2072.4
0.0191265 0 0.00398518 2072.4
-0.0192996 4.51751e-21 0.00322408 511.436
0.0192998 2.25875e-21 0.00322419 518.601
-0.0191703 -1.35525e-20 0.00393445 2025.78
0.0191707 0 0.00393471 2025.83
-0.0195792 2.71051e-20 0.00146063 69.2109
0.0195792 5.42101e-20 0.00146063 76.0697
-0.0192183 1.35525e-20 0.00403232 1776
0.0192187 0 0.00403252 1776.17
-0.0195391 2.71051e-20 0.00196502 51.1987
0.0195391 0 0.00196506 61.9927
-0.0196412 0 8.2824e-14 327.717
0.0196418 0 8.26879e-14 327.624
-0.019692 -2.71051e-20 0.0005066 312.187
0.019692 -2.71051e-20 0.000506622 312.101
-0.0193632 2.25875e-22 0.00368353 1293.57
0.0193636 1.12938e-22 0.00368367 1294.1
-0.0193748 -1.35525e-20 0.00398025 1608.06
0.0193751 1.35525e-20 0.00398046 1608.35
-0.0193749 -6.77626e-21 0.00411562 1501.06
0.0193752 -1.35525e-20 0.00411575 1501.39
-0.0196516 0 0.00282164 87.0109
0.0196518 2.71051e-20 0.0028217 106.106
-0.0196713 -2.71051e-20 0.00346867 315.239
0.0196715 -5.42101e-20 0.00346879 322.319
-0.0195416 1.35525e-20 0.00420424 1442.47
0.0195422 2.03288e-20 0.00420454 1442.63
-0.02 1.35525e-20 7.5021e-14 302.748
0.0200001 1.35525e-20 7.4999e-14 302.665
-0.02 -2.71051e-20 0.000219861 302.525
0.0200001 -1.35525e-20 0.000219807 302.444
-0.0196486 2.71051e-21 0.00405876 1604.15
0.019649 -1.0842e-20 0.00405903 1604.36
0.019997 1.41172e-22 0.00175126 67.3482
-0.019997 0 0.00175132 57.9657
0.0201205 0 2.66712e-14 304.303
-0.0201205 0 2.67431e-14 304.379
-0.0201124 0 0.00105022 182.2
0.0201124 -2.25875e-21 0.00105024 186.116
-0.0200024 -3.76459e-22 0.00235173 70.116
0.0200025 -9.41148e-23 0.0023518 83.5782
-0.0197167 0 0.00429743 1594.61
0.0197172 1.35525e-20 0.00429767 1594.63
-0.0199625 1.12938e-21 0.00315688 162.054
0.0199626 1.12938e-21 0.00315696 175.725
-0.0198179 1.35525e-20 0.00435132 1608.23
0.0198183 0 0.00435153 1608.23
-0.0198553 -2.71051e-20 0.00424327 1624.62
0.0198557 1.35525e-20 0.00424354 1624.63
0.0203123 -2.71051e-20 6.21449e-15 294.951
-0.0203124 -2.71051e-20 6.14666e-15 295.015
0.0203177 0 0.000130802 294.994
-0.0203178 0 0.000130833 295.058
-0.01997 -5.64689e-22 0.00385617 1030.44
0.0199702 9.41148e-22 0.00385631 1031.35
-0.0202712 2.71051e-20 0.00281169 63.5818
0.0202713 2.71051e-20 0.00281174 76.3332
-0.0199999 0 0.00444833 1760.15
0.0200001 0 0.00444847 1760.06
-0.0200605 0 0.00448064 1735.12
0.0200609 0 0.00448086 1734.95
-0.0202705 0 0.00349446 169.425
0.0202706 -2.71051e-20 0.00349456 185.762
-0.0201021 0 0.00441229 1707.41
0.0201026 0 0.00441233 1707.18
-0.0201274 1.35525e-20 0.00451629 1773.29
0.020128 -6.77626e-21 0.00451661 1773.22
-0.0202112 -3.76459e-21 0.00425016 1526.6
0.0202116 0 0.00425037 1523.95
-0.0206399 -5.42101e-20 0.00178222 45.2735
0.0206399 -5.42101e-20 0.00178223 55.3869
0.0207253 -5.42101e-20 0.000539941 277.241
-0.0207253 -5.42101e-20 0.000539939 277.295
-0.0206015 0 0.00245364 52.7588
0.0206016 -3.38813e-22 0.00245367 66.0373
-0.0205843 1.12938e-21 0.00315111 95.0734
0.0205844 1.12938e-21 0.00315116 110.171
-0.0203417 1.35525e-20 0.00463048 1992.32
0.0203423 1.35525e-20 0.00463076 1992.15
-0.0203949 -1.35525e-20 0.00457254 1947.61
0.0203954 0 0.00457285 1947.47
-0.0205502 0 0.00386547 548.807
0.0205503 -2.25875e-21 0.00386562 549.277
-0.0204458 0 0.00468592 1709.98
0.0204463 0 0.00468616 1709.95
-0.0206078 -5.64689e-22 0.0043176 1251.46
0.0206081 1.12938e-22 0.00431777 1245.4
-0.0209209 5.42101e-20 0.00278889 44.9009
0.020921 0 0.00278892 60.6754
-0.0206248 6.77626e-21 0.0047813 1395.11
0.0206252 6.77626e-21 0.00478146 1395.26
-0.0208848 -2.71051e-20 0.00349061 99.1513
0.0208849 -2.71051e-20 0.0034907 114.494
0.0212501 -1.35525e-20 5.88478e-15 262.659
-0.0212501 0 5.83891e-15 262.712
0.0212501 0 9.46703e-05 262.825
-0.0212501 0 9.4684e-05 262.878
-0.0207397 -6.77626e-21 0.00484247 1349.73
0.0207403 0 0.00484278 1349.75
-0.0207851 4.51751e-21 0.00466127 1507.62
0.0207854 -4.51751e-21 0.00466152 1507.63
-0.0209257 -2.71051e-20 0.00410294 300.376
0.020926 0 0.00410307 291.035
-0.0213163 -1.12938e-21 0.001158 152.829
0.0213163 3.38813e-21 0.00115801 157.467
0.0213763 1.35525e-20 3.47593e-16 257.823
-0.0213764 0 3.5283e-16 257.872
-0.0212885 1.12938e-21 0.00232627 43.1907
0.0212886 1.12938e-21 0.00232629 55.5554
-0.021208 -2.82344e-22 0.00309796 62.4766
0.021208 1.69407e-21 0.00309802 77.4294
0.0214867 0 0.000108836 251.774
-0.0214868 1.35525e-20 0.000108849 251.824
0.021494 1.35525e-20 4.39192e-16 251.708
-0.0214941 0 4.44401e-16 251.758
-0.0209343 1.35525e-20 0.00494614 1524.47
0.0209347 0 0.00494637 1524.41
-0.0212499 0 0.00376412 168.362
0.021247 -2.75286e-21 0.00376429 173.392
-0.0210472 -1.35525e-20 0.00500632 1548.52
0.0210476 -1.35525e-20 0.00500653 1548.41
-0.0210903 0 0.00488625 1560.65
0.0210906 -2.71051e-20 0.0048865 1560.55
-0.0212089 4.51751e-21 0.00450243 977.216
0.0212092 -1.12938e-21 0.00450256 973.043
-0.0216448 0 0.00289595 38.5594
0.0216449 2.71051e-20 0.00289597 51.5423
-0.0212498 3.38813e-21 0.00511424 1734
0.0212501 3.38813e-21 0.00511439 1733.8
-0.0212808 0 0.00513076 1725.27
0.0212812 0 0.00513096 1725.05
-0.0216428 0 0.00333678 60.436
0.0216429 0 0.00333683 77.0426
-0.0213035 0 0.00509474 1709.73
0.0213039 3.38813e-21 0.00509481 1709.46
-0.0215146 2.71051e-20 0.00414914 169.168
0.0215148 0 0.00414925 171.062
-0.0213152 -6.77626e-21 0.00514909 1746.77
0.0213157 0 0.00514937 1746.63
0.0219709 0 0.000580194 238.171
-0.021971 5.42101e-20 0.000580199 238.22
-0.0214405 -9.03502e-21 0.00489685 1490.36
0.0214409 -3.01167e-21 0.00489705 1487.63
-0.0219196 0 0.00179911 42.9897
0.0219197 0 0.00179912 51.9375
-0.0218787 -2.82344e-22 0.00244234 38.9284
0.0218787 7.05861e-23 0.00244237 50.964
-0.0218432 -2.71051e-20 0.00311325 45.6781
0.0218433 0 0.00311327 60.624
-0.0218301 1.50584e-21 0.00382172 102.488
0.0218302 -7.52918e-22 0.00382177 113.742
-0.0215576 1.35525e-20 0.00527824 2005.76
0.0215581 1.35525e-20 0.00527848 2005.52
-0.0216181 1.35525e-20 0.00521384 1954.6
0.0216185 -1.35525e-20 0.0052141 1954.4
-0.022064 0 0.00288701 34.0599
0.022064 2.71051e-20 0.00288702 48.6955
-0.0217938 2.25875e-21 0.00451147 521.356
0.021794 -2.25875e-21 0.00451161 518.48
-0.0220345 -2.71051e-20 0.00332361 46.5773
0.0220346 -2.71051e-20 0.00332366 62.3783
-0.0216748 2.71051e-20 0.00534064 1687.14
0.0216752 2.71051e-20 0.00534085 1687.12
-0.0218358 -2.25875e-22 0.00496865 1230.3
0.0218361 1.35525e-21 0.0049688 1223.59
0.0225 -1.35525e-20 -1.57376e-17 236.204
-0.0225 0 -1.52709e-17 236.265
0.0225 -1.35525e-20 8.44889e-05 236.168
-0.0225 0 8.44943e-05 236.229
-0.0221466 0 0.00413228 88.2149
0.0221467 0 0.00413235 102.934
-0.0218748 -6.77626e-21 0.00544721 1346.24
0.0218751 1.01644e-20 0.00544736 1346.39
0.0225909 -1.35525e-20 4.65091e-17 236.437
-0.0225909 0 4.69172e-17 236.497
-0.0225623 0 0.00117125 141.698
0.0225623 5.64689e-21 0.00117125 145.404
-0.0219453 1.69407e-20 0.00548473 1319.87
0.0219458 1.69407e-20 0.00548498 1319.95
-0.0220186 4.51751e-21 0.0053065 1475.21
0.0220189 -1.35525e-20 0.00530671 1475.3
-0.0221547 2.71051e-20 0.00476009 299.729
0.0221549 2.71051e-20 0.00476021 285.943
0.0226735 0 8.15118e-05 234.662
-0.0226735 0 8.15168e-05 234.723
0.0226781 0 2.50124e-17 234.652
-0.0226781 0 2.52005e-17 234.712
-0.0225519 -1.12938e-21 0.00239247 38.1058
0.0225519 4.51751e-21 0.00239248 49.163
-0.0224875 -5.64689e-22 0.00303827 37.7099
0.0224875 5.64689e-22 0.00303832 51.9085
-0.0224955 -7.05861e-23 0.00364649 61.0028
0.0224956 7.05861e-23 0.00364646 74.9816
-0.0221583 1.35525e-20 0.00559821 1501.99
0.0221587 -1.35525e-20 0.00559841 1502.04
-0.0224493 -2.25875e-21 0.00445911 155.128
0.0224494 0 0.00445919 158.843
-0.0222812 1.35525e-20 0.00566371 1526.56
0.0222816 -2.71051e-20 0.00566387 1526.61
-0.0223282 1.35525e-20 0.00553377 1540.93
0.0223285 2.71051e-20 0.00553397 1540.97
-0.022442 2.25875e-21 0.00515525 964.294
0.0224423 7.52918e-22 0.00515537 961.53
-0.0227594 0 0.00412234 59.4509
0.0227595 -2.71051e-20 0.00412239 73.3608
0.0231924 5.42101e-20 0.000587087 232.491
-0.0231924 5.42101e-20 0.000587089 232.563
-0.0224999 8.47033e-22 0.00578016 1717.54
0.0225001 0 0.00578025 1717.41
-0.0231698 0 0.00178811 45.8839
0.0231698 1.0842e-19 0.00178811 52.1459
-0.022509 0 0.00578499 1714.78
0.0225093 0 0.00578515 1714.61
-0.0225157 8.47033e-22 0.0057743 1710.25
0.0225162 0 0.00577431 1710.03
-0.0227516 0 0.00479269 159.009
0.0227518 0 0.00479279 160.832
-0.0225192 -2.5411e-21 0.00579044 1720.88
0.0225196 -1.01644e-20 0.00579066 1720.79
-0.0231209 0 0.00309539 30.0294
0.023121 0 0.00309541 43.3354
-0.0226735 -1.05409e-20 0.00554731 1466.25
0.0226737 1.50584e-21 0.00554747 1465.28
-0.0230931 0 0.00378166 44.1026
0.0230932 -7.52918e-22 0.00378167 60.9171
-0.023068 5.64689e-21 0.00445632 87.45
0.0230681 1.12938e-21 0.00445637 99.9243
-0.0227839 1.35525e-20 0.00593173 1993.71
0.0227842 0 0.00593191 1993.4
-0.0228493 1.35525e-20 0.00586199 1939.47
0.0228496 0 0.00586218 1939.19
-0.0230298 4.51751e-21 0.00515583 497.659
0.02303 0 0.00515594 500.099
-0.0229106 0 0.00599952 1647.58
0.0229109 2.71051e-20 0.00599968 1647.44
-0.023072 -9.03502e-22 0.00561884 1204.27
0.0230722 9.03502e-22 0.00561896 1202.72
-0.0237501 0 1.53747e-17 232.884
0.0237501 6.77626e-21 1.52208e-17 232.794
-0.0237501 6.77626e-21 6.33397e-05 232.887
0.0237501 6.77626e-21 6.33363e-05 232.796
-0.0234048 0 0.0040956 37.2944
0.0234049 -2.71051e-20 0.00409564 59.0675
0.0238177 0 -7.65578e-19 232.993
-0.0238177 -1.35525e-20 -7.74602e-19 233.084
0.0237988 -2.25875e-21 0.00117061 144.683
-0.0237988 0 0.00117061 141.779
-0.0233657 -2.71051e-20 0.00479029 90.0734
0.0233658 2.71051e-20 0.00479035 102.852
0.0238811 6.77626e-21 6.14693e-05 232.872
-0.0238811 -1.35525e-20 6.14724e-05 232.967
0.023883 6.77626e-21 -9.01493e-19 232.872
-0.023883 0 -9.09844e-19 232.967
-0.0237728 0 0.00241911 38.5127
0.0237728 5.64689e-22 0.00241911 47.5175
-0.0231249 0 0.00611529 1308.49
0.0231251 -6.77626e-21 0.00611542 1308.37
-0.0231675 2.71051e-20 0.00613811 1290.93
0.0231678 -1.01644e-20 0.00613829 1290.76
-0.023258 1.35525e-20 0.00596026 1437.05
0.0232582 -4.51751e-21 0.00596041 1436.92
-0.0234008 2.71051e-20 0.00540243 282.123
0.0234009 -2.71051e-20 0.00540252 279.244
-0.0237509 -2.82344e-22 0.00364541 34.7022
0.0237508 -1.03526e-21 0.00364544 50.8093
-0.0236805 -5.27043e-21 0.00443726 57.0203
0.0236806 -1.50584e-21 0.00443729 73.6861
-0.0233932 1.35525e-20 0.00626089 1430.2
0.0233933 0 0.00626103 1430.07
-0.0237267 -5.64689e-22 0.00506483 156.215
0.0237268 -5.64689e-22 0.00506488 163.132
-0.0235126 0 0.00635102 1427.59
0.0235127 0 0.00635113 1427.54
-0.0235681 0 0.00620595 1453.83
0.0235683 -1.35525e-20 0.00620608 1453.75
-0.0236824 0 0.00581853 914.404
0.0236825 7.52918e-22 0.00581861 920.039
0.024425 0 0.00058604 233.191
-0.0244251 -1.0842e-19 0.000586045 233.305
0.0244106 5.42101e-20 0.00178889 56.6242
-0.0244106 5.42101e-20 0.00178889 50.9741
-0.0241349 0 0.00419973 33.1438
0.0241349 0 0.00419974 49.377
-0.0236696 3.38813e-21 0.00645563 1469.6
0.0236698 0 0.00645575 1469.53
-0.0237096 -3.38813e-21 0.00644188 1482.81
0.0237098 0 0.00644198 1482.72
-0.0241326 0 0.00462567 53.3363
0.0241326 5.42101e-20 0.00462571 70.7661
-0.0237098 0 0.00648356 1505.34
0.02371 0 0.00648366 1505.25
-0.0243927 5.42101e-20 0.00306991 26.4324
0.0243927 5.42101e-20 0.00306991 37.6162
-0.0239945 2.71051e-20 0.00544746 154.76
0.0239946 0 0.00544753 162.488
-0.0237499 1.35525e-20 0.00643537 1447.21
0.0237501 0 0.00643548 1448.8
-0.0237499 0 0.00647613 1516.26
0.0237501 0 0.00647623 1516.17
-0.0237499 0 0.006513 1540.2
0.0237501 0 0.00651309 1540.11
-0.0243523 5.64689e-22 0.00372353 29.5766
0.0243524 5.64689e-22 0.00372355 44.523
-0.0239089 0 0.00623589 1313.96
0.023909 -1.35525e-20 0.00623598 1318.39
-0.0243287 0 0.00441255 39.2356
0.0243287 0 0.00441257 56.4806
-0.0239122 6.77626e-21 0.00663214 1670.2
0.0239123 2.71051e-20 0.00663222 1670.13
-0.0243138 -2.25875e-21 0.00512037 92.8765
0.0243139 2.25875e-21 0.00512041 107.009
-0.0245437 0 0.00418671 27.4666
0.0245437 0 0.00418672 46.6263
-0.0240424 0 0.00656018 1665.72
0.0240425 1.35525e-20 0.00656027 1665.64
-0.0245161 2.71051e-20 0.00461184 39.7594
0.0245161 0 0.00461186 57.8497
-0.0240313 0 0.00671945 1741.61
0.0240314 -1.35525e-20 0.00671952 1741.53
-0.0242758 -4.51751e-21 0.0058092 451.244
0.0242758 4.51751e-21 0.00580927 466.264
-0.025 0 4.25541e-20 233.869
0.025 -6.77626e-21 4.32721e-20 233.767
-0.025 0 4.32458e-05 233.87
0.025 0 4.32338e-05 233.769
0.025046 0 -4.76797e-20 233.808
-0.025046 6.77626e-21 -4.79508e-20 233.907
0.0250354 -1.12938e-21 0.00116998 149.16
-0.0250355 -1.12938e-21 0.00116998 144.679
-0.0241475 2.71051e-20 0.00680428 1827.52
0.0241476 1.35525e-20 0.00680434 1827.47
0.0250898 -6.77626e-21 4.20265e-05 233.826
-0.0250898 0 4.20372e-05 233.927
0.0250906 0 -2.73305e-20 233.826
-0.0250906 6.77626e-21 -2.74441e-20 233.927
-0.024199 -1.35525e-20 0.00668127 1782.12
0.0241991 0 0.00668133 1782.06
-0.0250241 5.64689e-22 0.00240547 40.169
0.0250241 5.64689e-22 0.00240547 50.3039
-0.0243358 1.29072e-21 0.00637905 1166.3
0.0243359 1.12938e-21 0.00637911 1181.98
-0.0246314 -2.71051e-20 0.0054211 79.3573
0.0246315 -2.71051e-20 0.00542114 97.1551
-0.0250347 0 0.00367576 26.3914
0.0250347 -4.51751e-21 0.00367577 41.2917
-0.0243359 0 0.00694205 1997.03
0.024336 -1.69407e-21 0.00694207 1996.96
-0.0243561 0 0.00693965 2005.39
0.0243562 0 0.00693966 2005.34
-0.0243565 1.69407e-21 0.00695709 2008.96
0.0243566 1.69407e-21 0.00695714 2008.92
-0.0243749 -1.69407e-21 0.00693984 1981.13
0.024375 0 0.00693986 1983.11
-0.0249795 -1.12938e-21 0.00428502 30.5767
0.0249795 2.25875e-21 0.00428505 47.6313
-0.0243749 0 0.00695738 2026.33
0.024375 1.69407e-21 0.00695742 2026.32
-0.0243749 0 0.00697053 2035.41
0.024375 0 0.0069706 2035.41
-0.0246321 0 0.00606147 243.393
0.0246322 0 0.00606153 254.375
-0.0245423 -3.01167e-21 0.00675073 1787.8
0.0245424 7.52918e-21 0.00675076 1798.69
-0.0249911 0 0.00494763 53.2049
0.0249911 1.12938e-21 0.00494764 71.7598
-0.0249356 -3.38813e-21 0.00573783 124.609
0.0249356 0 0.00573787 142.97
-0.0246074 1.35525e-20 0.0071402 2146.21
0.0246074 -1.35525e-20 0.00714023 2146.25
0.0256596 1.0842e-19 0.000584401 234.415
-0.0256597 0 0.000584393 234.504
-0.0246896 1.35525e-20 0.00706705 2093.57
0.0246896 0 0.00706707 2093.61
0.0256513 0 0.00178375 68.8379
-0.0256513 -5.42101e-20 0.00178376 56.2051
-0.0249063 -4.51751e-21 0.00639906 641.604
0.0249064 4.51751e-21 0.00639909 674.151
-0.0247466 2.71051e-20 0.00724188 1698.45
0.0247466 2.71051e-20 0.0072419 1698.57
-0.0252513 0 0.00539782 51.6663
0.0252513 0 0.00539784 75.6979
-0.0256477 0 0.00303995 26.407
0.0256477 -5.42101e-20 0.00303996 37.6285
-0.0249284 -9.03502e-22 0.00685577 1302.75
0.0249284 2.25875e-21 0.00685579 1327.97
-0.0252422 -2.71051e-20 0.00605452 117.89
0.0252422 -5.42101e-20 0.00605455 139.557
-0.0256136 0 0.00437242 24.6315
0.0256136 -5.42101e-20 0.00437242 41.7008
-0.0249512 3.38813e-21 0.00739124 1185.42
0.0249512 -6.77626e-21 0.00739125 1185.5
-0.025 -6.77626e-21 0.00734697 1166.45
0.025 -1.01644e-20 0.00734698 1166.52
-0.025 3.38813e-21 0.00742684 1169.46
0.025 3.38813e-21 0.00742686 1169.55
-0.025588 1.50584e-21 0.00505816 37.9604
0.025588 1.50584e-21 0.00505816 62.9926
-0.0251002 0 0.00720455 1330.9
0.0251003 -1.807e-20 0.00720456 1330.96
-0.0252599 2.71051e-20 0.00665821 315.433
0.0252599 2.71051e-20 0.00665824 365.848
-0.0255647 4.51751e-21 0.00571423 66.7781
0.0255647 3.38813e-21 0.00571425 93.4999
-0.02625 0 -1.1814e-20 236.15
0.02625 3.38813e-21 -1.17258e-20 236.113
-0.02625 0 2.68729e-05 236.151
0.02625 0 2.68622e-05 236.114
0.0262785 0 8.82496e-22 236.184
-0.0262785 -3.38813e-21 8.93652e-22 236.218
0.0251835 1.35525e-20 0.00756081 1249.02
-0.0251835 0 0.0075608 1248.85
0.0262748 -1.69407e-21 0.00116563 155.201
-0.0262748 1.12938e-21 0.00116563 148.366
0.0263061 3.38813e-21 2.61394e-05 236.212
-0.0263061 3.38813e-21 2.61504e-05 236.247
0.0263063 3.38813e-21 9.7413e-22 236.212
-0.0263063 0 9.84928e-22 236.247
-0.0255554 0 0.00636334 166.745
0.0255554 -3.38813e-21 0.00636336 201.586
0.0262715 2.25875e-21 0.00239141 56.3267
-0.0262715 1.12938e-21 0.00239141 43.1952
-0.0259044 -2.71051e-20 0.00536021 32.2726
0.0259044 -2.71051e-20 0.00536022 63.0162
-0.0253354 1.01644e-20 0.00767174 1207.18
0.0253354 2.37169e-20 0.00767175 1207.34
-0.0255297 7.52918e-22 0.00708828 846.658
0.0255298 3.38813e-21 0.00708829 873.109
-0.0262615 2.82344e-22 0.00368784 25.1989
0.0262615 -8.47033e-22 0.00368784 39.2694
0.025388 0 0.00771009 1212.31
-0.025388 -6.77626e-21 0.0077101 1212.15
-0.0254865 -1.0842e-20 0.00748719 1232.18
0.0254865 -5.42101e-21 0.00748719 1232.34
-0.0258702 0 0.0060307 63.6372
0.0258702 -5.42101e-20 0.00603071 94.6388
0.0255127 0 0.00767408 1250.81