# p  POINT_DATA 29002
# x  y  z  p
-1.35525e-20 0.014142 8.40343e-08 -0.00498935
1.35525e-20 -0.014142 8.40343e-08 0.011044
-6.77626e-21 0.014142 0.000246012 -0.00498976
6.77626e-21 -0.014142 0.000246012 0.0110453
3.38813e-21 0.014142 0.000413825 -0.00498988
-6.77626e-21 -0.014142 0.000413826 0.0110453
0 0.014142 0.000659755 -0.0049898
-1.35525e-20 -0.014142 0.000659755 0.0110438
1.01644e-20 0.014142 0.000918785 -0.00499014
3.38813e-21 -0.014142 0.000918783 0.0110443
6.77626e-21 0.014142 0.00109556 -0.00499017
3.38813e-21 -0.014142 0.00109556 0.0110443
1.35525e-20 0.014142 0.00135458 -0.00498987
0 -0.014142 0.00135458 0.0110439
3.38813e-21 0.014142 0.00162762 -0.00498951
-6.77626e-21 -0.014142 0.00162761 0.0110446
-1.35525e-20 -0.014252 0.000123092 0.0110453
0 0.014252 0.000123069 -0.00499045
-1.35525e-20 -0.0142534 8.87871e-08 0.0110453
0 0.0142534 8.87841e-08 -0.00499045
-3.38813e-21 0.014142 0.00181396 -0.00498947
-6.77626e-21 -0.014142 0.00181396 0.0110446
0 -0.014252 0.000530042 0.0110453
0 0.014252 0.000530052 -0.00499076
1.35525e-20 0.0142482 0.000775283 -0.00499087
0 -0.0142482 0.000775286 0.0110447
-1.35525e-20 0.014142 0.002087 -0.00498969
1.35525e-20 -0.014142 0.002087 0.0110439
0 -0.0142482 0.00119841 0.0110448
0 0.0142482 0.00119841 -0.00499093
0 0.0142437 0.00144425 -0.00499055
0 -0.0142438 0.00144425 0.0110449
0 0.0142437 0.00188148 -0.00499046
-1.35525e-20 -0.0142437 0.00188149 0.0110449
-1.35525e-20 0.014376 9.02294e-08 -0.00499092
0 -0.014376 9.02309e-08 0.0110452
0 0.0143755 0.000639191 -0.00499151
0 -0.0143755 0.000639192 0.0110452
-6.77626e-21 0.0142627 0.00213224 -0.00499036
-6.77626e-21 -0.0142627 0.00213225 0.0110443
-1.35525e-20 0.0143001 0.00203568 -0.00499079
-1.35525e-20 -0.0143001 0.00203569 0.0110446
0 -0.0144128 0.000955786 0.0110453
1.35525e-20 0.0144128 0.000955783 -0.0049925
0 0.0143938 0.00157761 -0.00499149
1.35525e-20 -0.0143938 0.00157762 0.0110456
0 -0.0143748 0.00187233 0.0110455
6.77626e-21 0.0143748 0.00187232 -0.00499148
0 0.0144696 0.00124239 -0.00499235
2.25875e-21 -0.0144696 0.00124239 0.0110458
0 0.014375 0.00217431 -0.00499163
-1.35525e-20 -0.014375 0.00217431 0.0110453
-4.51751e-21 -0.0145417 0.000318493 0.0110448
-2.25875e-21 0.0145417 0.000318489 -0.00499178
-1.35525e-20 -0.0145497 9.54667e-08 0.0110452
0 0.0145497 9.54641e-08 -0.00499195
0 -0.0145346 0.00078231 0.0110457
1.35525e-20 0.0145346 0.000782317 -0.00499301
2.71051e-20 0.0145143 0.00222654 -0.00499343
0 -0.0145144 0.00222654 0.0110466
1.16165e-20 0.0146115 0.0016294 -0.00499321
0 -0.0146115 0.00162941 0.0110467
0 -0.0145852 0.00194437 0.0110473
0 0.0145842 0.00194387 -0.00499432
1.35525e-20 -0.0147196 1.04733e-07 0.0110472
-2.71051e-20 0.0147196 1.0473e-07 -0.00499381
-2.11758e-22 0.0145943 0.00194493 -0.00499438
-1.05879e-22 -0.0145945 0.00194498 0.0110473
0 -0.014709 0.000900688 0.011047
2.25875e-21 0.014709 0.000900686 -0.00499481
-2.71051e-20 0.0145865 0.0022536 -0.00499346
0 -0.0145866 0.00225361 0.0110466
4.51751e-21 0.014697 0.00143077 -0.00499411
0 -0.014697 0.00143078 0.0110472
-1.35525e-20 -0.0148082 0.000136863 0.0110456
0 0.0148082 0.000136848 -0.00499332
1.35525e-20 -0.0148167 9.37199e-08 0.0110458
-1.35525e-20 0.0148167 9.37185e-08 -0.00499348
0 -0.0148641 8.83388e-08 0.0110479
0 0.0148641 8.83383e-08 -0.00499506
-5.16287e-21 -0.0148597 0.000623839 0.011048
-6.45358e-21 0.0148597 0.000623837 -0.00499565
-1.50584e-21 -0.0148445 0.00116564 0.0110484
-3.76459e-21 0.0148445 0.00116563 -0.0049957
0 0.0147312 0.00230781 -0.00499464
-2.71051e-20 -0.0147313 0.00230783 0.0110475
0 0.014833 0.00159147 -0.00499561
-5.01544e-37 -0.014833 0.00159148 0.0110488
0 -0.015 7.49105e-08 0.0110489
1.35525e-20 0.015 7.49089e-08 -0.00499627
3.76459e-22 0.014988 0.00205398 -0.00499692
9.41148e-23 -0.014988 0.00205397 0.0110492
-6.77626e-21 -0.0151759 0.000230596 0.0110504
6.77626e-21 0.015176 0.000230601 -0.00499797
0 -0.015 0.00240853 0.011049
3.38813e-21 0.015 0.00240854 -0.00499704
0 -0.0152018 0.000843053 0.01105
4.51751e-21 0.0152018 0.000843049 -0.00499909
2.37169e-20 0.0150362 0.00242211 -0.00499739
1.69407e-20 -0.0150362 0.00242211 0.0110492
4.51751e-21 -0.015201 0.00143422 0.0110503
-4.51751e-21 0.015201 0.00143421 -0.00499839
1.35525e-20 -0.0152989 2.20785e-08 0.0110514
-1.35525e-20 0.015299 2.20802e-08 -0.0049992
-3.38813e-21 0.015119 0.00245307 -0.00499847
-3.38813e-21 -0.015119 0.0024531 0.0110503
2.71051e-20 -0.015396 0.000531605 0.0110516
-2.71051e-20 0.015396 0.000531602 -0.00500068
1.35525e-20 -0.0154492 8.76997e-09 0.0110528
-1.35525e-20 0.0154492 8.76943e-09 -0.00500086
-2.71051e-20 -0.0154135 0.00109937 0.0110515
0 0.0154136 0.00109937 -0.00500078
-1.35525e-20 0.0152769 0.00251208 -0.0050003
0 -0.0152769 0.0025121 0.0110519
-2.71051e-20 0.0153864 0.00178851 -0.00500025
0 -0.0153864 0.00178851 0.0110514
-1.01644e-20 0.0153097 0.00239045 -0.00500073
-1.01644e-20 -0.0153097 0.00239045 0.0110523
0 -0.0153854 0.00225223 0.0110524
1.12938e-21 0.0153854 0.00225223 -0.0050012
0 -0.0156088 7.21589e-09 0.0110561
1.35525e-20 0.0156089 7.21525e-09 -0.00500386
-2.71051e-20 -0.0154657 0.00258282 0.0110517
0 0.0154657 0.00258282 -0.00500113
0 -0.0156825 0.000727925 0.0110525
-2.25875e-21 0.0156825 0.000727916 -0.00500367
1.12938e-21 -0.0157225 0.000233524 0.0110571
7.90564e-21 0.0157226 0.000233532 -0.0050052
2.25875e-21 -0.0157184 0.00143038 0.0110536
6.77626e-21 0.0157184 0.00143039 -0.00500346
-8.47033e-22 -0.0156634 0.00226597 0.0110528
1.69407e-21 0.0156634 0.00226598 -0.00500278
-1.35525e-20 0.0156249 0.00254054 -0.00500252
0 -0.0156249 0.00254053 0.0110526
6.77626e-21 0.0156249 0.0026425 -0.00500248
6.77626e-21 -0.0156249 0.00264251 0.0110526
9.03502e-21 0.0157603 0.00197874 -0.0050033
0 -0.0157603 0.00197874 0.0110534
1.35525e-20 0.0159582 4.57725e-09 -0.00500649
0 -0.0159583 4.5756e-09 0.0110573
-1.35525e-20 -0.0157578 0.00269219 0.0110533
2.71051e-20 0.0157578 0.00269219 -0.00500365
1.35525e-20 -0.0158038 0.0025027 0.0110533
5.42101e-21 0.0158038 0.00250271 -0.0050039
6.77626e-21 -0.0160273 0.000416841 0.0110556
6.77626e-21 0.0160274 0.00041683 -0.00500704
-1.35525e-20 -0.0160956 3.28585e-09 0.0110561
0 0.0160956 3.28679e-09 -0.00500667
-1.35525e-20 -0.0161395 0.000104077 0.0110563
1.35525e-20 0.0161396 0.000104165 -0.00500733
0 0.0160608 0.0017677 -0.00500635
0 -0.0160608 0.00176769 0.0110551
7.52918e-22 -0.0161372 0.0008471 0.0110556
3.76459e-21 0.0161373 0.000847085 -0.0050075
0 -0.0161599 3.02539e-09 0.0110563
1.35525e-20 0.0161601 3.0262e-09 -0.00500739
0 -0.0159573 0.00276704 0.0110543
0 0.0159573 0.00276704 -0.0050053
-2.25875e-21 -0.0160615 0.00225482 0.0110551
-6.77626e-21 0.0160615 0.00225485 -0.00500639
1.35525e-20 -0.0162498 2.49159e-09 0.0110567
-1.35525e-20 0.0162501 2.49177e-09 -0.00500785
1.6263e-20 -0.0163211 0.00143744 0.0110565
-2.71051e-20 0.0163211 0.00143746 -0.00500888
1.6263e-20 0.0163242 0.00197494 -0.00500862
0 -0.0163242 0.00197494 0.0110565
-1.35525e-20 0.0162498 0.00287804 -0.00500767
2.37169e-20 -0.0162499 0.00287808 0.0110559
-2.37169e-20 -0.0165397 1.49574e-09 0.0110573
3.04932e-20 0.0165398 1.49534e-09 -0.00501046
6.77626e-21 -0.016295 0.00289505 0.0110561
9.03502e-21 -0.0165484 0.000259337 0.0110573
-1.01644e-20 0.0162953 0.00289514 -0.00500807
-4.51751e-21 0.0165485 0.000259312 -0.00501017
2.25875e-21 -0.0163611 0.00261002 0.0110565
2.25875e-21 0.0163611 0.00261004 -0.0050088
-2.37169e-20 -0.0166019 1.3988e-09 0.0110576
3.38813e-21 0.0166021 1.39827e-09 -0.00501096
-1.807e-21 -0.0167776 0.000787901 0.011059
9.03502e-22 0.0167777 0.000787893 -0.00501322
-1.35525e-20 -0.0168222 8.08296e-10 0.0110586
1.35525e-20 0.0168225 8.07382e-10 -0.00501261
-6.77626e-21 -0.0167552 0.00167721 0.0110589
-4.51751e-21 0.0167552 0.00167721 -0.00501288
2.71051e-20 -0.0165883 0.00300631 0.0110574
2.71051e-20 0.0165884 0.00300634 -0.00501065
9.03502e-21 -0.0167309 0.00229146 0.0110585
4.51751e-21 0.0167309 0.00229155 -0.00501235
1.35525e-20 -0.0169395 0.000138934 0.0110589
1.35525e-20 0.0169397 0.000138909 -0.00501443
0 -0.0169618 4.51221e-10 0.011059
0 0.016962 4.50664e-10 -0.00501481
0 -0.0170688 0.000345436 0.0110595
-1.35525e-20 0.0170689 0.000345447 -0.00501549
-6.77626e-21 -0.0168116 0.00309149 0.0110586
6.77626e-21 0.0168118 0.00309158 -0.00501297
0 -0.0170877 0.00125519 0.011061
0 0.0170878 0.0012552 -0.00501649
3.38813e-21 0.0168748 0.00299168 -0.00501365
0 -0.016875 0.00299095 0.011059
6.77626e-21 0.0168748 0.00311544 -0.00501346
3.38813e-21 -0.0168751 0.00311552 0.0110589
-2.25875e-21 -0.0169694 0.00276077 0.0110595
-2.25875e-21 0.0169696 0.0027608 -0.00501458
-5.42101e-20 -0.0170755 0.00207925 0.0110605
0 0.0170755 0.00207928 -0.00501562
6.77626e-21 -0.0173112 7.14994e-11 0.0110617
0 0.0173113 7.13385e-11 -0.00501863
0 -0.0170862 0.00319594 0.0110598
2.71051e-20 0.0170864 0.00319602 -0.00501505
-6.77626e-21 -0.0174106 5.80413e-05 0.0110623
0 0.0174107 5.80305e-05 -0.0050196
1.12938e-20 -0.017396 0.000777646 0.0110623
9.03502e-21 0.0173961 0.000777647 -0.00501937
-6.77626e-21 -0.0174228 5.17378e-11 0.0110623
-6.77626e-21 0.0174229 5.16473e-11 -0.00501977
6.77626e-21 -0.0174571 4.89779e-11 0.0110626
0 0.0174572 4.88992e-11 -0.00502029
-2.25875e-21 -0.0174062 0.00167743 0.0110622
2.25875e-21 0.0174063 0.00167744 -0.00501897
6.77626e-21 -0.0174999 4.75457e-11 0.0110629
-6.77626e-21 0.0175 4.74696e-11 -0.00502069
6.77626e-21 -0.0174999 5.74012e-05 0.0110629
0 0.0175 5.73934e-05 -0.00502068
1.35525e-20 -0.0172465 0.00325641 0.0110607
2.03288e-20 0.0172466 0.00325643 -0.00501655
0 -0.0172985 0.00306859 0.011061
0 0.0172985 0.00306881 -0.0050172
9.03502e-21 -0.0174314 0.00258926 0.0110618
-5.64689e-22 0.0174315 0.00258926 -0.00501837
1.69407e-21 -0.0174509 0.00333352 0.0110614
1.69407e-21 0.0174516 0.00333379 -0.00501835
2.71051e-20 -0.0177427 0.00123867 0.0110641
0 0.0177428 0.0012387 -0.00502228
0 -0.0174775 0.0033206 0.0110616
0 0.0174778 0.00332108 -0.0050186
0 -0.0174819 0.00334524 0.0110615
0 0.0174821 0.0033453 -0.00501862
0 -0.0178052 0.000414147 0.0110654
5.42101e-20 0.0178053 0.000414151 -0.00502344
0 0.0174998 0.00331875 -0.00501877
0 -0.0174999 0.00331824 0.0110617
0 0.0174997 0.00334099 -0.00501881
1.69407e-21 -0.0174999 0.00334085 0.0110616
0 0.0174997 0.00335193 -0.00501882
0 -0.0174999 0.00335198 0.0110616
-6.77626e-21 0.0178185 2.63056e-11 -0.0050231
-6.77626e-21 -0.0178186 2.63406e-11 0.0110648
0 -0.0177179 0.00210726 0.0110634
2.71051e-20 0.017718 0.0021073 -0.00502153
4.51751e-21 -0.0176365 0.00303796 0.0110624
-4.51751e-21 0.0176366 0.00303803 -0.00501982
0 -0.017647 0.00304321 0.0110624
0 0.0176471 0.00304328 -0.0050199
-2.71051e-20 -0.0177836 0.00345876 0.0110627
-1.35525e-20 0.0177837 0.00345884 -0.00502216
0 0.0181317 5.24975e-05 -0.00502559
0 -0.0181317 5.24752e-05 0.0110669
0 0.0181326 7.40766e-12 -0.00502563
-6.77626e-21 -0.0181326 7.41305e-12 0.0110669
-2.25875e-21 -0.0180574 0.00168505 0.0110653
6.77626e-21 0.0180574 0.00168508 -0.00502462
2.82344e-22 0.0181176 0.000826155 -0.00502503
3.76459e-22 -0.0181176 0.000826124 0.0110664
-1.35525e-20 -0.0178454 0.00337451 0.011063
2.71051e-20 0.0178455 0.00337466 -0.00502286
0 -0.0181788 1.20855e-12 0.0110669
6.77626e-21 0.0181788 1.20217e-12 -0.00502584
4.51751e-21 -0.0180124 0.00254465 0.0110645
0 0.0180125 0.00254474 -0.00502403
6.77626e-21 -0.018224 6.69062e-05 0.0110671
0 0.0182241 6.69481e-05 -0.00502619
6.77626e-21 -0.0182304 9.59096e-13 0.0110672
0 0.0182305 9.55143e-13 -0.00502624
0 -0.0179191 0.00350977 0.0110632
0 0.0179192 0.00350979 -0.00502332
-4.51751e-22 -0.0180614 0.00308264 0.0110642
2.25875e-21 0.0180616 0.0030827 -0.0050246
0 -0.0184102 0.00127251 0.0110675
-2.71051e-20 0.0184102 0.00127252 -0.0050262
1.35525e-20 0.0181249 0.00358718 -0.00502601
-6.77626e-21 -0.018125 0.00358724 0.011064
2.71051e-20 -0.0183572 0.0021069 0.011066
-2.71051e-20 0.0183573 0.00210693 -0.00502855
0 -0.0184759 0.00044774 0.0110682
0 0.0184759 0.000447749 -0.00502759
-1.35525e-20 -0.0182298 0.00362666 0.0110644
6.77626e-21 0.0182303 0.00362685 -0.00502719
-4.51751e-21 -0.0182763 0.00343588 0.0110647
9.03502e-21 0.0182764 0.00343606 -0.00502771
2.71051e-20 -0.0183952 0.00281538 0.011066
-2.71051e-20 0.0183953 0.00281544 -0.00502718
0 -0.0187499 4.64953e-13 0.0110696
0 0.01875 4.62741e-13 -0.00503025
-6.77626e-21 -0.0187499 9.91369e-05 0.0110696
0 0.01875 9.91108e-05 -0.00503024
0 -0.0187019 0.00167404 0.0110685
2.82344e-22 0.018702 0.00167409 -0.00503036
-2.71051e-20 -0.0184505 0.00370969 0.0110653
2.71051e-20 0.0184507 0.00370979 -0.00502908
0 -0.0188246 9.05506e-14 0.0110699
0 0.0188247 9.24758e-14 -0.00503095
-4.51751e-21 0.0188279 0.000901801 -0.0050306
2.25875e-21 -0.0188279 0.000901792 0.0110699
0 -0.018889 0.000100088 0.0110704
0 0.0188891 0.000100053 -0.00503154
5.64689e-22 -0.0187319 0.00243381 0.0110677
2.82344e-22 0.0187319 0.00243385 -0.00503152
0 -0.0188925 7.49718e-14 0.0110704
6.77626e-21 0.0188926 7.69407e-14 -0.00503154
-1.35525e-20 -0.0185631 0.00375372 0.0110655
0 0.0185633 0.00375376 -0.0050304
1.35525e-20 -0.0185979 0.00364125 0.0110657
2.71051e-20 0.018598 0.00364145 -0.00503094
7.52918e-22 -0.0187015 0.0032345 0.0110667
-2.63521e-21 0.0187015 0.00323454 -0.00503164
-6.77626e-21 0.0187498 0.00382104 -0.00503267
0 -0.0187499 0.00382109 0.0110664
6.77626e-21 -0.0191944 6.21354e-14 0.0110718
6.77626e-21 0.0191945 6.31148e-14 -0.00503432
-2.71051e-20 0.019206 0.000471802 -0.0050345
0 -0.0192061 0.000471779 0.0110721
0 -0.0191593 0.00145147 0.0110715
2.71051e-20 0.0191594 0.00145147 -0.00503273
0 -0.0188253 0.00385016 0.0110668
0 0.0188256 0.00385027 -0.00503322
2.71051e-20 -0.0190073 0.00284619 0.0110684
0 0.0190073 0.00284625 -0.00503389
2.71051e-20 -0.0191388 0.00196705 0.0110703
2.71051e-20 0.0191388 0.0019671 -0.0050356
0 -0.0188685 0.00376942 0.011067
-6.77626e-21 0.018869 0.0037691 -0.00503357
-3.01167e-21 -0.0189582 0.00362216 0.0110676
6.02335e-21 0.0189583 0.00362229 -0.00503423
0 -0.0189216 0.00388925 0.0110669
-6.77626e-21 0.0189225 0.00388962 -0.00503507
0 -0.0193512 0.00171027 0.0110717
2.71051e-20 0.0193513 0.00171028 -0.00503662
-1.8823e-22 0.0194091 0.000938214 -0.00503628
-9.41148e-22 -0.0194091 0.000938238 0.0110729
0 0.0194665 1.03809e-13 -0.00503681
6.77626e-21 -0.0194667 1.03982e-13 0.0110731
-6.77626e-21 0.0194675 3.87291e-05 -0.00503682
-6.77626e-21 -0.0194677 3.87998e-05 0.0110731
0 -0.0193303 0.00249034 0.0110702
2.25875e-21 0.0193304 0.00249034 -0.00503818
0 -0.0191251 0.00398458 0.0110675
0 0.0191255 0.00398476 -0.00503859
4.51751e-21 -0.0192993 0.00322371 0.0110691
2.25875e-21 0.0192993 0.00322385 -0.0050384
1.35525e-20 -0.0191697 0.00393391 0.0110677
2.71051e-20 0.0191699 0.0039342 -0.00503913
-2.71051e-20 -0.0195789 0.00146067 0.0110729
-2.71051e-20 0.019579 0.00146066 -0.00503559
0 -0.0192179 0.00403218 0.0110678
0 0.019218 0.00403225 -0.00503927
0 -0.0195388 0.00196492 0.0110715
0 0.0195389 0.00196497 -0.00504009
0 0.0196412 8.27607e-14 -0.00503886
0 -0.0196416 8.29008e-14 0.0110739
0 0.0196919 0.000506616 -0.00503882
0 -0.019692 0.000506602 0.011074
4.51751e-22 -0.0193628 0.00368329 0.0110687
-3.38813e-22 0.019363 0.00368341 -0.0050409
0 0.0193747 0.00398015 -0.00504201
0 -0.019375 0.00397997 0.0110683
1.35525e-20 0.0193748 0.00411568 -0.00504222
-6.77626e-21 -0.0193751 0.00411583 0.0110681
0 -0.0196515 0.00282152 0.011071
2.71051e-20 0.0196515 0.00282158 -0.00504097
-2.71051e-20 -0.0196711 0.00346851 0.0110701
5.42101e-20 0.0196711 0.0034686 -0.00504402
0 -0.0195407 0.00420391 0.0110686
-6.77626e-21 0.0195414 0.00420428 -0.00504456
-1.35525e-20 0.0199999 7.50372e-14 -0.0050427
-1.35525e-20 -0.02 7.50292e-14 0.0110755
-1.35525e-20 -0.02 0.000219893 0.0110755
1.35525e-20 0.02 0.000219865 -0.00504271
2.71051e-21 -0.0196482 0.00405846 0.0110691
5.42101e-21 0.0196485 0.0040588 -0.00504607
7.05861e-23 -0.0199968 0.00175177 0.011074
-6.35275e-22 0.0199969 0.00175158 -0.00504408
-2.71051e-20 0.0201205 2.66818e-14 -0.00504446
2.71051e-20 -0.0201205 2.6706e-14 0.011076
4.51751e-21 0.0201123 0.00105023 -0.00504404
-4.51751e-21 -0.0201123 0.00105023 0.0110755
1.8823e-22 0.0200024 0.00235162 -0.00504585
9.41148e-23 -0.0200024 0.00235148 0.0110728
-1.35525e-20 -0.0197164 0.0042974 0.0110695
-2.71051e-20 0.0197167 0.00429758 -0.00504574
-1.12938e-21 -0.0199624 0.00315678 0.0110717
1.12938e-21 0.0199624 0.00315685 -0.00504674
-1.35525e-20 -0.0198178 0.00435143 0.0110694
-1.35525e-20 0.0198179 0.00435149 -0.00504736
0 -0.0198553 0.00424317 0.0110697
1.35525e-20 0.0198553 0.00424344 -0.00504802
0 0.0203123 6.21673e-15 -0.0050469
0 -0.0203123 6.15453e-15 0.0110769
0 0.0203177 0.000130837 -0.00504697
0 -0.0203178 0.000130887 0.0110769
-9.41148e-22 -0.0199698 0.00385615 0.0110707
5.64689e-22 0.0199699 0.00385623 -0.00504912
0 -0.0202712 0.00281164 0.0110732
0 0.0202712 0.00281169 -0.00505013
6.77626e-21 0.0199999 0.00444852 -0.00504995
0 -0.0200001 0.00444866 0.0110703
0 -0.0200603 0.00448072 0.0110708
0 0.0200605 0.00448086 -0.00505025
-2.71051e-20 -0.0202704 0.00349441 0.0110724
0 0.0202704 0.00349451 -0.00505195
0 -0.0201016 0.00441287 0.0110711
-3.38813e-21 0.0201022 0.00441245 -0.00505048
-1.35525e-20 -0.0201267 0.00451611 0.0110706
6.77626e-21 0.0201275 0.00451657 -0.00505202
0 -0.0202111 0.00425017 0.011072
7.52918e-22 0.0202112 0.00425035 -0.00505106
-5.42101e-20 -0.0206398 0.00178223 0.0110769
0 0.0206398 0.00178224 -0.00505307
5.42101e-20 0.0207252 0.000539947 -0.00505226
0 -0.0207252 0.000539947 0.011079
-5.64689e-23 -0.0206014 0.00245361 0.011075
-1.12938e-22 0.0206014 0.00245364 -0.00505382
0 -0.0205843 0.00315109 0.0110738
3.38813e-21 0.0205843 0.00315114 -0.00505533
1.35525e-20 -0.0203415 0.00463057 0.0110707
-1.35525e-20 0.0203419 0.00463079 -0.005057
2.71051e-20 -0.0203948 0.00457252 0.011071
1.35525e-20 0.0203951 0.00457287 -0.00505763
-4.51751e-21 -0.0205501 0.00386543 0.0110728
0 0.0205501 0.0038656 -0.00505714
-2.71051e-20 -0.0204458 0.00468612 0.0110712
0 0.020446 0.00468621 -0.00505755
-4.51751e-22 -0.0206078 0.00431767 0.0110723
-1.12938e-22 0.0206079 0.0043178 -0.0050596
0 -0.0209209 0.00278889 0.0110758
0 0.0209209 0.00278892 -0.0050582
1.35525e-20 0.0206249 0.00478151 -0.00506168
0 -0.0206251 0.00478166 0.0110712
0 -0.0208847 0.00349062 0.011074
2.71051e-20 0.0208848 0.00349071 -0.00506112
0 0.0212499 5.88891e-15 -0.00506077
0 -0.02125 5.846e-15 0.0110809
-1.35525e-20 0.0212499 9.47421e-05 -0.00506076
-1.35525e-20 -0.02125 9.47488e-05 0.0110809
-3.38813e-20 -0.0207393 0.0048425 0.0110715
2.71051e-20 0.0207401 0.00484287 -0.0050634
0 -0.0207851 0.00466132 0.0110718
0 0.0207852 0.0046616 -0.00506367
2.71051e-20 -0.0209257 0.00410299 0.0110741
0 0.0209258 0.00410311 -0.00506357
-4.51751e-21 0.0213163 0.00115801 -0.00506362
2.25875e-21 -0.0213163 0.00115801 0.0110801
-1.35525e-20 0.0213762 3.47416e-16 -0.00506306
0 -0.0213763 3.52781e-16 0.0110813
-2.25875e-21 0.0212885 0.0023263 -0.00506556
-1.12938e-21 -0.0212885 0.00232628 0.011078
-2.25875e-21 -0.021208 0.00309795 0.0110762
2.82344e-21 0.021208 0.00309804 -0.00506572
0 0.0214867 0.000108918 -0.00506469
0 -0.0214868 0.000108929 0.0110818
0 0.021494 4.39082e-16 -0.00506479
1.35525e-20 -0.0214941 4.44414e-16 0.0110819
0 -0.0209342 0.00494631 0.0110726
-1.35525e-20 0.0209345 0.00494647 -0.00506393
0 -0.0212468 0.00376747 0.0110749
-2.77403e-20 0.0212469 0.00376434 -0.00506796
2.71051e-20 -0.0210473 0.00500657 0.0110721
1.35525e-20 0.0210475 0.00500662 -0.00506592
1.35525e-20 -0.0210904 0.00488635 0.0110724
1.35525e-20 0.0210904 0.00488661 -0.00506672
-2.25875e-21 -0.021209 0.00450257 0.0110738
1.8823e-21 0.021209 0.00450263 -0.00506792
0 -0.0216448 0.00289598 0.0110786
0 0.0216448 0.00289599 -0.00507422
0 0.0212499 0.0051145 -0.00506773
-1.69407e-20 -0.0212502 0.00511463 0.0110735
3.38813e-21 -0.0212808 0.00513096 0.0110738
0 0.0212811 0.00513109 -0.0050677
5.42101e-20 -0.0216428 0.0033368 0.0110764
-2.71051e-20 0.0216428 0.00333687 -0.00507627
0 -0.0213032 0.00509534 0.011074
0 0.0213038 0.00509491 -0.00506779
2.71051e-20 -0.0215146 0.00414921 0.0110751
0 0.0215147 0.00414931 -0.00507092
-3.38813e-21 -0.0213149 0.00514909 0.0110736
0 0.0213156 0.0051495 -0.00506862
-5.42101e-20 0.0219709 0.000580197 -0.00507257
0 -0.0219709 0.000580199 0.0110836
-4.51751e-21 -0.0214405 0.004897 0.0110755
1.50584e-21 0.0214407 0.00489715 -0.00506828
0 -0.0219196 0.00179912 0.0110808
0 0.0219196 0.00179913 -0.00507642
1.41172e-22 -0.0218787 0.00244236 0.0110799
7.05861e-23 0.0218787 0.00244239 -0.00507754
-2.71051e-20 -0.0218432 0.00311327 0.0110778
0 0.0218433 0.0031133 -0.00507846
7.52918e-22 -0.0218301 0.0038218 0.0110764
-1.50584e-21 0.0218301 0.00382182 -0.0050775
0 -0.0215576 0.00527841 0.0110734
0 0.021558 0.0052786 -0.00507374
-2.71051e-20 -0.0216182 0.00521393 0.0110737
-1.35525e-20 0.0216184 0.00521423 -0.00507448
2.71051e-20 -0.0220639 0.00288704 0.0110791
0 0.022064 0.00288704 -0.00507991
-2.25875e-21 -0.0217938 0.00451153 0.0110756
3.76158e-37 0.0217939 0.00451169 -0.00507546
-2.71051e-20 -0.0220345 0.00332363 0.0110764
-2.71051e-20 0.0220345 0.0033237 -0.00508161
2.71051e-20 -0.0216749 0.00534089 0.0110741
-2.71051e-20 0.021675 0.00534096 -0.00507369
2.25875e-22 -0.0218357 0.0049688 0.0110748
-1.35525e-21 0.0218359 0.0049689 -0.00507652
1.35525e-20 -0.0225 -1.52821e-17 0.0110843
0 0.0225 -1.57465e-17 -0.00508175
0 -0.0225 8.45373e-05 0.0110843
0 0.0225 8.45231e-05 -0.00508177
0 -0.0221466 0.00413235 0.0110774
0 0.0221467 0.00413241 -0.00508093
6.77626e-21 0.0218749 0.00544743 -0.00507778
-1.35525e-20 -0.0218752 0.00544758 0.0110739
1.35525e-20 0.0225909 4.65266e-17 -0.0050836
0 -0.0225909 4.69287e-17 0.0110844
1.12938e-21 0.0225622 0.00117125 -0.00508523
-5.64689e-21 -0.0225622 0.00117125 0.011083
-3.38813e-21 -0.0219451 0.00548483 0.0110741
1.01644e-20 0.0219457 0.00548514 -0.0050786
-4.51751e-21 -0.0220187 0.00530662 0.0110745
-4.51751e-21 0.0220188 0.00530685 -0.00507959
-2.71051e-20 -0.0221547 0.00476019 0.011076
-2.71051e-20 0.0221548 0.0047603 -0.0050805
0 0.0226735 8.15432e-05 -0.00508501
0 -0.0226735 8.15576e-05 0.0110846
0 0.0226781 2.50202e-17 -0.00508509
1.35525e-20 -0.0226781 2.52055e-17 0.0110846
3.38813e-21 -0.0225519 0.00239249 0.0110804
1.12938e-21 0.0225519 0.00239251 -0.00508797
-5.64689e-22 -0.0224875 0.00303825 0.0110786
0 0.0224874 0.00303838 -0.00508775
1.27055e-21 -0.0224629 0.00366675 0.0110776
0 -0.0225 0.00357657 0.0110778
3.5293e-22 0.0224954 0.00364647 -0.00508753
4.23516e-22 -0.0225054 0.00366219 0.0110777
1.69407e-21 -0.0225 0.00370544 0.0110776
-1.35525e-20 -0.0221583 0.00559842 0.0110755
1.35525e-20 0.0221586 0.00559854 -0.00507808
8.47033e-22 -0.0225595 0.00366878 0.0110778
-4.51751e-21 -0.0224493 0.00445918 0.0110772
3.38813e-21 0.0224493 0.00445926 -0.00508505
0 -0.0222813 0.00566396 0.0110743
2.71051e-20 0.0222814 0.00566399 -0.00508106
0 -0.0223283 0.0055339 0.0110747
0 0.0223283 0.00553411 -0.00508195
2.25875e-21 -0.022442 0.0051554 0.0110762
-5.64689e-21 0.0224422 0.00515546 -0.00508372
0 -0.0227594 0.00412239 0.0110779
-2.71051e-20 0.0227594 0.00412245 -0.0050902
5.42101e-20 0.0231923 0.000587091 -0.00509414
0 -0.0231923 0.000587093 0.0110852
0 0.0225 0.00578038 -0.00508137
6.77626e-21 -0.0225001 0.00578047 0.0110763
-5.42101e-20 -0.0231697 0.00178812 0.0110824
-5.42101e-20 0.0231697 0.00178812 -0.00509796
8.47033e-22 -0.022509 0.0057852 0.0110764
0 0.0225092 0.00578529 -0.00508128
0 -0.0225156 0.00577475 0.0110765
0 0.0225161 0.00577442 -0.00508129
0 -0.0227517 0.00479277 0.0110777
-2.71051e-20 0.0227517 0.00479285 -0.00508875
6.77626e-21 -0.022519 0.00579052 0.0110763
-8.47033e-22 0.0225196 0.00579082 -0.0050816
-5.42101e-20 -0.0231209 0.00309542 0.011079
5.42101e-20 0.0231209 0.00309543 -0.00509941
6.02335e-21 -0.0226735 0.00554744 0.0110785
-6.02335e-21 0.0226736 0.00554757 -0.00508138
1.12938e-21 -0.0230931 0.0037817 0.0110789
-1.8823e-21 0.0230931 0.00378171 -0.00509708
4.51751e-21 -0.023068 0.00445638 0.0110785
0 0.023068 0.00445642 -0.00509432
1.35525e-20 -0.0227839 0.00593188 0.0110759
0 0.0227842 0.005932 -0.00508693
-1.35525e-20 -0.0228494 0.00586207 0.0110761
-1.35525e-20 0.0228495 0.00586228 -0.00508787
0 -0.0230299 0.00515588 0.011078
4.51751e-21 0.0230299 0.00515601 -0.00509091
0 -0.0229107 0.00599969 0.011077
0 0.0229108 0.00599972 -0.00508621
1.807e-21 -0.023072 0.00561895 0.0110774
3.61401e-21 0.0230721 0.00561903 -0.00509054
0 -0.0237499 1.53806e-17 0.0110848
0 0.0237499 1.52288e-17 -0.00510256
0 -0.0237499 6.33779e-05 0.0110848
0 0.0237499 6.33677e-05 -0.00510256
-2.71051e-20 -0.0234048 0.00409564 0.0110797
2.71051e-20 0.0234048 0.00409567 -0.00510235
0 0.0238176 -7.65452e-19 -0.00510374
-1.35525e-20 -0.0238176 -7.74447e-19 0.0110847
0 0.0237988 0.00117061 -0.00510431
2.25875e-21 -0.0237988 0.00117061 0.0110833
0 -0.0233657 0.00479034 0.0110787
0 0.0233657 0.00479041 -0.00509616
1.35525e-20 0.023881 6.14989e-05 -0.00510475
0 -0.023881 6.15082e-05 0.0110847
0 0.0238829 -9.01429e-19 -0.00510478
0 -0.0238829 -9.09767e-19 0.0110847
-5.64689e-22 -0.0237728 0.00241912 0.0110803
1.69407e-21 0.0237728 0.00241912 -0.00510648
3.38813e-21 0.0231249 0.00611537 -0.00509118
0 -0.0231251 0.00611547 0.0110766
-3.38813e-21 -0.0231675 0.00613814 0.0110768
2.03288e-20 0.0231678 0.00613837 -0.00509163
0 -0.0232581 0.00596031 0.0110771
0 0.0232581 0.00596047 -0.00509307
0 -0.0234009 0.00540249 0.0110793
0 0.0234009 0.00540257 -0.00509569
-1.31761e-21 0.0237508 0.00364547 -0.00510641
1.41172e-21 -0.0237509 0.00364542 0.0110794
-3.01167e-21 -0.0236805 0.0044373 0.0110794
-2.25875e-21 0.0236805 0.00443733 -0.00510378
1.35525e-20 -0.0233932 0.00626093 0.0110792
-2.71051e-20 0.0233933 0.00626104 -0.0050897
5.64689e-22 -0.0237268 0.00506487 0.011079
-2.82344e-21 0.0237268 0.00506492 -0.00510132
6.77626e-21 -0.0235127 0.00635105 0.0110774
6.77626e-21 0.0235127 0.00635107 -0.00509445
-2.71051e-20 0.0235682 0.00620609 -0.00509554
0 -0.0235683 0.00620596 0.0110779
-3.76459e-22 -0.0236825 0.00581857 0.0110792
-1.8823e-21 0.0236825 0.00581861 -0.00509767
5.42101e-20 0.024425 0.000586041 -0.00511295
5.42101e-20 -0.024425 0.000586042 0.0110842
0 -0.0244106 0.0017889 0.0110815
5.42101e-20 0.0244106 0.0017889 -0.00511225
0 -0.0241349 0.00419976 0.01108
0 0.0241349 0.00419977 -0.00511033
0 -0.0236698 0.00645559 0.0110795
-3.38813e-21 0.0236701 0.00645581 -0.00509443
0 -0.0237098 0.00644182 0.0110799
-3.38813e-21 0.0237098 0.0064421 -0.00509467
2.71051e-20 -0.0241326 0.00462568 0.0110785
0 0.0241326 0.00462574 -0.00511022
3.38813e-21 -0.02371 0.00648353 0.0110803
3.38813e-21 0.02371 0.00648359 -0.00509399
5.42101e-20 -0.0243927 0.00306992 0.0110782
-5.42101e-20 0.0243927 0.00306993 -0.00511652
0 -0.0239945 0.00544749 0.0110794
-2.71051e-20 0.0239946 0.00544754 -0.00510324
-3.38813e-21 0.02375 0.00643561 -0.00509483
-6.77626e-21 -0.0237501 0.00643531 0.0110804
0 0.02375 0.00647619 -0.00509533
0 -0.0237501 0.0064761 0.0110801
0 0.02375 0.00651289 -0.00509583
-3.38813e-21 -0.0237501 0.00651298 0.0110799
1.12938e-21 -0.0243523 0.00372354 0.0110792
-2.82344e-22 0.0243523 0.00372357 -0.00511466
-9.03502e-21 -0.023909 0.00623587 0.0110832
-1.35525e-20 0.0239121 0.00623353 -0.00509352
-2.71051e-20 -0.0243287 0.00441257 0.0110789
2.71051e-20 0.0243287 0.00441259 -0.00511149
0 -0.0239124 0.00663207 0.0110793
3.38813e-20 0.0239125 0.00663216 -0.00510071
2.25875e-21 -0.0243138 0.00512039 0.0110797
0 0.0243139 0.00512041 -0.00510998
-2.71051e-20 -0.0245437 0.00418673 0.0110787
2.71051e-20 0.0245437 0.00418673 -0.00511397
0 -0.0240426 0.00656012 0.0110799
-4.06576e-20 0.0240426 0.00656023 -0.00510233
2.71051e-20 -0.0245161 0.00461185 0.011078
0 0.0245161 0.00461189 -0.00510926
0 -0.0240315 0.00671934 0.0110812
0 0.0240316 0.00671938 -0.00509905
4.51751e-21 -0.0242758 0.00580919 0.0110811
-4.51751e-21 0.0242758 0.00580927 -0.00510678
0 -0.025 4.25728e-20 0.0110827
-6.77626e-21 0.025 4.33043e-20 -0.00512054
0 0.025 4.32622e-05 -0.00512054
6.77626e-21 -0.025 4.32621e-05 0.0110827
0 -0.025046 -4.79639e-20 0.0110826
0 0.025046 -4.77043e-20 -0.00512122
-2.25875e-21 0.0250354 0.00116998 -0.00512039
2.25875e-21 -0.0250354 0.00116998 0.0110813
-4.06576e-20 -0.0241476 0.00680413 0.0110796
0 0.0241477 0.00680414 -0.00510503
0 0.0250898 4.20523e-05 -0.00512176
0 -0.0250898 4.20523e-05 0.0110825
0 0.0250906 -2.73423e-20 -0.00512177
0 -0.0250906 -2.74503e-20 0.0110825
-1.35525e-20 -0.0241992 0.00668118 0.0110802
0 0.0241992 0.00668122 -0.00510541
-5.64689e-22 0.0250241 0.00240547 -0.00512325
-1.12938e-21 -0.0250241 0.00240547 0.0110785
6.45358e-22 -0.0243359 0.00637899 0.0110818
-6.45358e-22 0.0243359 0.00637903 -0.00510576
0 -0.0246314 0.00542109 0.0110816
0 0.0246314 0.00542114 -0.00511553
0 -0.0250347 0.00367577 0.0110778
3.38813e-21 0.0250347 0.00367578 -0.00512476
1.69407e-21 -0.0243362 0.00694196 0.0110825
0 0.0243364 0.00694208 -0.00510485
0 -0.0243563 0.00693957 0.0110827
0 0.0243564 0.0069397 -0.00510487
0 -0.0243567 0.00695693 0.0110829
0 0.0243568 0.00695694 -0.00510451
0 0.024375 0.00693989 -0.0051049
0 -0.024375 0.00693977 0.011083
0 -0.0249795 0.00428499 0.0110782
0 0.0249795 0.00428507 -0.00512038
1.69407e-21 0.0243749 0.00695723 -0.00510502
0 -0.024375 0.00695722 0.0110829
0 0.024375 0.00697023 -0.0051051
1.69407e-21 -0.024375 0.0069703 0.0110829
0 -0.0246322 0.00606144 0.0110822
0 0.0246322 0.00606149 -0.00511222
4.51751e-21 -0.0245424 0.00675061 0.0110855
3.01167e-21 0.0245425 0.00675063 -0.005104
2.82344e-22 -0.0249911 0.00494763 0.0110797
8.47033e-22 0.0249911 0.00494764 -0.00511996
-1.12938e-21 -0.0249356 0.00573781 0.0110818
-3.38813e-21 0.0249356 0.00573785 -0.00512007
-2.71051e-20 -0.0246075 0.00714003 0.0110826
-1.35525e-20 0.0246076 0.00714004 -0.0051117
5.42101e-20 0.0256596 0.000584403 -0.00512923
5.42101e-20 -0.0256596 0.000584399 0.011081
-2.71051e-20 -0.0246898 0.00706692 0.0110828
0 0.0246898 0.00706694 -0.0051132
0 0.0256513 0.00178375 -0.00512716
-5.42101e-20 -0.0256513 0.00178375 0.0110784
-2.25875e-21 -0.0249064 0.00639899 0.0110828
-4.51751e-21 0.0249064 0.00639903 -0.00511829
2.71051e-20 0.0247468 0.00724165 -0.00511267
0 -0.0247468 0.00724167 0.0110836