# pMean  POINT_DATA 52043
# x  y  z  pMean
0.014142 -1.35525e-20 8.40343e-08 -0.00468499
-0.014142 1.35525e-20 8.40343e-08 0.0108182
-0.014142 -6.77626e-21 0.000246014 0.010816
0.014142 0 0.000246007 -0.00468445
-0.014142 6.77626e-21 0.000413822 0.0108161
0.014142 -6.77626e-21 0.000413834 -0.00468438
-0.014142 -1.35525e-20 0.000659755 0.0108184
0.014142 0 0.000659755 -0.00468472
-0.014142 3.38813e-21 0.000918791 0.0108174
0.014142 6.77626e-21 0.000918788 -0.00468324
0.014142 0 0.00109554 -0.00468308
-0.014142 1.01644e-20 0.00109555 0.0108175
0.014142 1.35525e-20 0.00135458 -0.0046841
-0.014142 1.35525e-20 0.00135458 0.0108186
0.014142 -1.01644e-20 0.00162764 -0.00468271
-0.014142 3.38813e-21 0.00162762 0.0108176
-0.014252 0 0.000123103 0.0108159
0.014252 -1.35525e-20 0.00012308 -0.00468403
-0.0142534 0 8.87869e-08 0.0108159
0.0142534 -1.35525e-20 8.87839e-08 -0.00468403
0.014142 3.38813e-21 0.00181395 -0.00468267
-0.014142 0 0.00181396 0.0108176
-0.014252 0 0.000530071 0.0108162
0.014252 0 0.000530089 -0.00468386
-0.0142482 0 0.00077532 0.0108168
0.0142482 1.35525e-20 0.00077531 -0.00468328
0.014142 -1.35525e-20 0.002087 -0.004684
-0.014142 1.35525e-20 0.002087 0.0108187
-0.0142482 0 0.00119849 0.010817
0.0142482 0 0.00119848 -0.00468291
0.0142438 0 0.00144431 -0.00468271
-0.0142438 1.35525e-20 0.00144431 0.0108171
0.0142438 1.35525e-20 0.00188165 -0.00468262
-0.0142438 0 0.00188166 0.0108171
0.014376 -1.35525e-20 9.02284e-08 -0.00468363
-0.014376 0 9.023e-08 0.0108155
0.0143755 1.35525e-20 0.000639268 -0.00468307
-0.0143755 0 0.000639267 0.0108161
-0.0142629 6.77626e-21 0.00213232 0.0108183
0.0142629 6.77626e-21 0.00213231 -0.00468378
-0.0143002 -1.35525e-20 0.00203592 0.0108177
0.0143002 0 0.00203591 -0.00468337
-0.0144129 -1.35525e-20 0.000955929 0.0108164
0.0144129 0 0.000955927 -0.00468303
0.0143941 1.35525e-20 0.00157783 -0.00468236
-0.0143941 1.35525e-20 0.00157784 0.0108164
-0.0143749 6.77626e-21 0.00187281 0.0108166
0.0143749 6.77626e-21 0.0018728 -0.00468225
-0.0144696 -4.51751e-21 0.00124267 0.0108162
0.0144696 4.51751e-21 0.00124266 -0.00468242
-0.014375 0 0.00217431 0.0108165
0.014375 0 0.00217432 -0.00468273
-0.0145418 0 0.000318554 0.0108153
0.0145418 -6.77626e-21 0.000318551 -0.00468286
-0.0145497 1.35525e-20 9.54658e-08 0.0108153
0.0145497 -1.35525e-20 9.54632e-08 -0.00468301
-0.0145347 -1.35525e-20 0.000782523 0.0108156
0.0145347 1.35525e-20 0.000782537 -0.00468282
-0.0145148 1.35525e-20 0.00222669 0.0108145
0.0145148 -1.35525e-20 0.00222669 -0.00468132
0.0146121 1.93608e-21 0.00162981 -0.00468112
-0.0146121 7.7443e-21 0.00162982 0.010815
-0.0145852 1.05879e-22 0.00194555 0.0108136
0.0145837 -4.87044e-21 0.00194477 -0.00468047
-0.0147196 0 1.04732e-07 0.0108129
0.0147196 0 1.0473e-07 -0.00468187
0.0146004 -1.27055e-21 0.00194655 -0.00468044
-0.0146005 2.0117e-21 0.00194659 0.0108135
-0.0147092 0 0.000900995 0.010814
0.0147092 4.51751e-21 0.000900993 -0.00468183
-0.0145873 -8.13152e-20 0.00225387 0.0108147
0.0145873 0 0.00225387 -0.00468167
-0.0146975 -2.25875e-21 0.00143127 0.0108147
0.0146975 2.25875e-21 0.00143126 -0.0046814
-0.0148082 0 0.000136903 0.0108119
0.0148083 -1.35525e-20 0.000136875 -0.00468132
-0.0148167 2.71051e-20 9.37179e-08 0.0108119
0.0148167 0 9.37183e-08 -0.00468127
-0.0148641 -1.35525e-20 8.83354e-08 0.0108123
0.0148641 -1.35525e-20 8.83376e-08 -0.00468128
-0.0148598 -1.29072e-21 0.000624026 0.0108117
0.0148598 -2.58143e-21 0.000624027 -0.0046803
-0.0148447 3.26265e-21 0.00116603 0.0108121
0.0148447 -2.25875e-21 0.00116603 -0.00467959
0.0147327 4.06576e-20 0.00230835 -0.00468107
-0.0147327 0 0.00230836 0.0108134
0.0148335 7.52918e-21 0.0015921 -0.00467869
-0.0148335 -3.01167e-21 0.00159211 0.0108118
0.015 1.35525e-20 7.4908e-08 -0.00468066
-0.015 -1.35525e-20 7.49029e-08 0.0108111
-0.0149884 1.50584e-21 0.00205342 0.0108109
0.0149884 1.22349e-21 0.00205341 -0.00467942
-0.015176 2.25875e-21 0.000230687 0.01081
0.015176 6.77626e-21 0.000230679 -0.00467976
0.015 -3.38813e-21 0.00240854 -0.00467951
-0.015 0 0.00240855 0.0108109
-0.0152021 -4.51751e-21 0.000843378 0.0108093
0.0152021 4.51751e-21 0.000843372 -0.00467981
-0.0150379 0 0.00242273 0.0108105
0.0150379 -3.38813e-21 0.00242272 -0.00467926
-0.0152016 4.51751e-21 0.0014348 0.0108098
0.0152016 -4.51751e-21 0.00143479 -0.0046782
-0.0152989 0 2.20825e-08 0.0108088
0.015299 0 2.20806e-08 -0.00467895
0.0151247 0 0.00245524 -0.00467713
-0.0151247 -3.38813e-21 0.00245526 0.0108081
0.0153962 -2.71051e-20 0.000531794 -0.00467834
-0.0153962 -2.71051e-20 0.000531794 0.0108079
-0.0154492 -1.35525e-20 8.76993e-09 0.0108075
0.0154492 -2.71051e-20 8.76964e-09 -0.00467827
0.0154139 0 0.00109981 -0.00467745
-0.0154139 -2.71051e-20 0.00109982 0.0108076
-0.0152781 0 0.00251266 0.0108047
0.0152781 6.77626e-21 0.00251265 -0.00467441
0.015387 -2.71051e-20 0.00178913 -0.004677
-0.015387 2.71051e-20 0.00178913 0.0108077
-0.0153098 0 0.00239462 0.010804
0.0153098 3.38813e-21 0.00239458 -0.0046736
-0.015387 -2.25875e-21 0.00225338 0.0108044
0.015387 0 0.00225337 -0.00467418
0.0156089 -1.35525e-20 7.21547e-09 -0.00467681
-0.0156089 0 7.21529e-09 0.0108033
0.0154678 0 0.00258382 -0.00467777
-0.0154678 -1.35525e-20 0.00258382 0.0108064
-0.0156827 6.77626e-21 0.00072818 0.0108064
0.0156827 -6.77626e-21 0.000728171 -0.00467803
0.0157226 -1.12938e-21 0.000233621 -0.00467612
-0.0157226 -3.38813e-21 0.000233615 0.0108015
0.0157188 4.51751e-21 0.00143117 -0.0046748
-0.0157188 1.12938e-20 0.00143117 0.0108043
-0.0156648 -1.69407e-21 0.00226708 0.0108048
0.0156648 0 0.00226708 -0.00467655
-0.015625 1.35525e-20 0.00254192 0.0108049
0.0156251 0 0.00254193 -0.00467742
-0.015625 -2.03288e-20 0.00264258 0.0108048
0.015625 1.35525e-20 0.00264259 -0.00467775
-0.015761 -9.03502e-21 0.00197935 0.0108042
0.0157611 0 0.00197935 -0.00467604
0.0159582 0 4.57718e-09 -0.00467504
-0.0159583 -1.35525e-20 4.57567e-09 0.0108006
-0.0157606 0 0.00269322 0.0108035
0.0157606 -4.06576e-20 0.00269323 -0.00467757
-0.0158055 -2.71051e-21 0.0025037 0.010804
0.0158056 2.71051e-21 0.00250371 -0.00467757
-0.0160275 -4.06576e-20 0.000416984 0.0108015
0.0160275 6.77626e-21 0.000416987 -0.00467472
0.0160955 -1.35525e-20 3.28682e-09 -0.00467479
-0.0160956 0 3.28517e-09 0.0108013
0.0161395 -1.35525e-20 0.000104149 -0.00467413
-0.0161396 0 0.000104133 0.010801
0.0160615 0 0.00176843 -0.0046744
-0.0160615 0 0.00176842 0.0108016
-0.0161376 1.50584e-21 0.000847369 0.0108015
0.0161376 -9.78794e-21 0.000847386 -0.00467419
0.01616 -1.35525e-20 3.02629e-09 -0.00467405
-0.01616 -1.35525e-20 3.02459e-09 0.0108009
-0.0159592 2.71051e-20 0.00276747 0.010802
0.0159593 -2.71051e-20 0.00276748 -0.00467684
-0.0160632 -1.35525e-20 0.00225586 0.010801
0.0160632 -1.35525e-20 0.00225589 -0.00467505
0.0162499 0 2.49196e-09 -0.00467376
-0.01625 -1.35525e-20 2.49049e-09 0.0108006
0.0163213 8.13152e-21 0.00143843 -0.00467318
-0.0163214 -1.0842e-20 0.0014384 0.0107998
-0.0163246 0 0.0019752 0.0107991
0.0163246 8.13152e-21 0.00197521 -0.00467353
-0.01625 1.69407e-20 0.00287738 0.0107993
0.0162501 -3.38813e-20 0.00287742 -0.00467599
0.0165397 2.37169e-20 1.49551e-09 -0.00467234
-0.0165398 1.01644e-20 1.49503e-09 0.0107999
0.0165485 0 0.000259443 -0.00467293
-0.0165486 0 0.00025939 0.0107998
-0.0162993 2.03288e-20 0.00289583 0.0107989
0.0162996 -3.04932e-20 0.00289591 -0.00467591
-0.0163628 -2.25875e-21 0.0026102 0.0107985
0.0163629 4.51751e-21 0.00261026 -0.00467509
0.016602 2.03288e-20 1.39857e-09 -0.00467248
-0.0166022 -1.01644e-20 1.39777e-09 0.0107994
0.0167779 1.17455e-20 0.000788065 -0.00467235
-0.0167779 -1.807e-21 0.000788044 0.010796
0.0168224 0 8.07643e-10 -0.00467333
-0.0168225 -1.35525e-20 8.07608e-10 0.0107969
-0.016756 6.77626e-21 0.00167756 0.0107955
0.016756 4.51751e-21 0.00167758 -0.00467171
-0.0165907 0 0.00300593 0.0107961
0.0165909 -2.71051e-20 0.00300602 -0.00467653
-0.0167321 -4.51751e-21 0.00229258 0.0107954
0.0167321 -4.51751e-21 0.00229264 -0.00467313
0.0169397 -1.35525e-20 0.000139012 -0.00467396
-0.0169397 0 0.000138902 0.0107957
-0.0169619 -1.35525e-20 4.50845e-10 0.0107954
0.0169619 0 4.50833e-10 -0.00467389
0.017069 -1.35525e-20 0.00034548 -0.00467485
-0.017069 1.35525e-20 0.000345515 0.0107947
-0.0168154 2.71051e-20 0.00309174 0.0107943
0.0168157 2.03288e-20 0.00309186 -0.00467599
-0.0170882 0 0.00125548 0.010792
0.0170883 -2.71051e-20 0.00125549 -0.00466979
-0.016875 -1.01644e-20 0.00299682 0.0107939
0.0168752 -1.01644e-20 0.00299705 -0.00467548
-0.016875 0 0.00311456 0.0107937
0.0168752 -3.38813e-21 0.00311463 -0.00467616
-0.0169715 -3.38813e-21 0.0027608 0.0107931
0.0169716 -3.38813e-21 0.00276088 -0.00467465
-0.0170765 0 0.00207965 0.0107924
0.0170765 2.71051e-20 0.00207967 -0.00467127
-0.017311 -2.03288e-20 7.14894e-11 0.0107911
0.0173114 0 7.13597e-11 -0.00467171
-0.0170892 -4.06576e-20 0.00319641 0.0107913
0.0170896 0 0.00319653 -0.00467709
-0.0174107 -6.77626e-21 5.81532e-05 0.01079
0.0174108 0 5.80005e-05 -0.00467173
-0.0173964 4.51751e-21 0.000777676 0.01079
0.0173964 2.25875e-21 0.000777666 -0.00467145
-0.0174228 0 5.17295e-11 0.0107899
0.0174229 0 5.16506e-11 -0.0046716
0.0174572 6.77626e-21 4.88994e-11 -0.00467131
-0.0174572 -6.77626e-21 4.89702e-11 0.0107893
-0.0174069 2.25875e-21 0.00167765 0.0107898
0.017407 2.25875e-21 0.00167766 -0.00467142
0.0175 0 4.74701e-11 -0.00467124
0.0175 0 5.73648e-05 -0.00467127
-0.0175001 0 4.75352e-11 0.0107888
-0.0175001 6.77626e-21 5.75034e-05 0.0107888
-0.0172483 0 0.00325639 0.0107872
0.0172486 1.35525e-20 0.00325649 -0.00467496
-0.0172998 -2.71051e-20 0.00306964 0.0107874
0.0173001 0 0.00306981 -0.00467464
-0.0174323 1.69407e-21 0.00258936 0.0107885
0.0174324 -1.12938e-21 0.0025894 -0.00467451
-0.0174579 0 0.00333599 0.0107869
0.0174583 1.69407e-21 0.00333616 -0.00467818
-0.0177431 0 0.00123883 0.0107878
0.0177432 -5.42101e-20 0.00123884 -0.0046716
-0.0174808 1.69407e-21 0.00332482 0.0107869
0.017481 0 0.00332506 -0.00467843
-0.0174846 1.69407e-21 0.00334611 0.0107871
0.0174848 0 0.00334621 -0.00467878
-0.0178054 0 0.000414179 0.0107852
0.0178055 0 0.000414187 -0.00466885
-0.0175001 0 0.00332274 0.0107869
0.0175002 0 0.00332299 -0.00467868
-0.0175001 1.69407e-21 0.00334231 0.0107869
0.0175002 3.38813e-21 0.00334243 -0.00467881
-0.0175001 0 0.00335193 0.0107869
0.0175002 0 0.00335199 -0.00467889
0.0178186 3.38813e-21 2.6307e-11 -0.00466953
-0.0178194 3.38813e-21 2.62871e-11 0.0107862
-0.0177187 2.71051e-20 0.00210757 0.010787
0.0177188 -2.71051e-20 0.0021076 -0.00467315
-0.0176383 9.03502e-21 0.00303865 0.0107872
0.0176385 0 0.00303873 -0.00467865
-0.0176486 0 0.00304387 0.0107872
0.0176488 0 0.00304395 -0.00467877
-0.0177861 1.35525e-20 0.00345972 0.0107841
0.0177863 -1.35525e-20 0.00345982 -0.0046804
0.0181318 0 5.25144e-05 -0.00466762
-0.0181318 -6.77626e-21 5.23832e-05 0.0107834
0.0181327 0 7.40306e-12 -0.00466752
-0.0181328 0 7.40812e-12 0.0107834
-0.0180579 -1.12938e-21 0.00168517 0.0107847
0.018058 3.38813e-21 0.00168519 -0.00467314
-0.0181177 -1.8823e-22 0.000826258 0.010784
0.0181178 -4.70574e-22 0.000826333 -0.00466946
-0.0178474 -2.71051e-20 0.00337592 0.0107837
0.0178475 -1.35525e-20 0.00337606 -0.00467982
-0.0181788 0 1.20998e-12 0.0107833
0.0181789 -6.77626e-21 1.20234e-12 -0.00466772
-0.0180132 -9.03502e-21 0.0025453 0.0107836
0.0180133 4.51751e-21 0.00254538 -0.00467677
-0.018224 6.77626e-21 6.67961e-05 0.0107831
0.0182242 0 6.69571e-05 -0.00466752
-0.0182303 0 9.60874e-13 0.010783
0.0182306 0 9.55329e-13 -0.00466747
-0.0179205 -2.71051e-20 0.00351035 0.0107829
0.0179207 0 0.00351043 -0.00468097
-0.0180629 4.06576e-21 0.00308315 0.0107821
0.0180631 9.03502e-22 0.00308322 -0.00467873
-0.0184105 -2.71051e-20 0.00127258 0.0107817
0.0184105 -5.42101e-20 0.00127259 -0.00467038
-0.018125 -6.77626e-21 0.00358731 0.0107812
0.0181251 6.77626e-21 0.00358737 -0.00468179
-0.0183578 5.42101e-20 0.0021071 0.010782
0.0183579 0 0.00210715 -0.00467738
-0.018476 -2.71051e-20 0.000447745 0.0107819
0.0184761 2.71051e-20 0.000447774 -0.00466727
-0.0182327 -3.38813e-20 0.00362784 0.0107802
0.0182331 -2.03288e-20 0.00362801 -0.00468238
-0.0182772 -9.03502e-21 0.0034369 0.01078
0.0182774 1.807e-20 0.00343704 -0.00468095
-0.018396 2.71051e-20 0.00281574 0.0107798
0.0183961 0 0.00281581 -0.00467898
0.01875 0 4.62891e-13 -0.00466637
-0.0187501 0 4.6467e-13 0.0107791
0.01875 0 9.91689e-05 -0.00466642
-0.0187501 6.77626e-21 9.90278e-05 0.010779
-0.0187024 3.10579e-21 0.00167427 0.0107785
0.0187024 -1.97641e-21 0.00167431 -0.00467276
-0.0184518 -1.35525e-20 0.00371033 0.0107776
0.0184522 1.35525e-20 0.00371046 -0.00468376
0.0188247 0 9.24778e-14 -0.00466655
-0.0188248 -1.35525e-20 9.05194e-14 0.0107783
-0.0188281 -4.51751e-21 0.000901811 0.010778
0.0188281 0 0.000901813 -0.00466826
-0.0188891 0 9.99751e-05 0.0107774
0.0188891 0 0.000100089 -0.00466628
-0.0187325 -2.82344e-22 0.00243398 0.0107768
0.0187326 5.64689e-22 0.00243401 -0.00467688
-0.0188926 0 7.49551e-14 0.0107774
0.0188926 -1.35525e-20 7.69428e-14 -0.00466627
-0.0185639 1.35525e-20 0.00375412 0.0107748
0.0185642 2.71051e-20 0.00375424 -0.00468233
-0.0185985 0 0.00364208 0.0107749
0.0185987 -2.71051e-20 0.00364225 -0.00468199
-0.0187022 0 0.00323478 0.0107757
0.0187024 -1.12938e-21 0.00323486 -0.00468122
-0.01875 0 0.00382122 0.0107742
0.0187502 0 0.00382131 -0.0046859
0.0191944 6.77626e-21 6.30458e-14 -0.00466624
-0.0191946 -6.77626e-21 6.21199e-14 0.0107748
-0.0192061 -2.71051e-20 0.000471782 0.0107739
0.0192062 0 0.000471778 -0.00466581
-0.0191595 -2.71051e-20 0.00145141 0.0107744
0.0191595 -2.71051e-20 0.00145142 -0.00467225
-0.0188263 0 0.00385065 0.0107741
0.0188267 6.77626e-21 0.00385081 -0.00468709
-0.0190077 -2.71051e-20 0.00284643 0.0107729
0.0190078 5.42101e-20 0.0028465 -0.00467861
-0.019139 0 0.00196722 0.0107727
0.019139 5.42101e-20 0.00196726 -0.00467407
-0.0188699 0 0.00376892 0.0107741
0.0188703 0 0.0037689 -0.00468696
-0.0189588 0 0.00362259 0.0107743
0.0189592 -6.02335e-21 0.00362275 -0.00468689
-0.0189237 1.35525e-20 0.00389016 0.0107725
0.0189243 -1.35525e-20 0.00389043 -0.00468697
-0.0193514 0 0.0017103 0.0107721
0.0193515 2.71051e-20 0.00171031 -0.00467396
-0.0194092 0 0.000938181 0.0107723
0.0194092 1.31761e-21 0.000938235 -0.00466821
-0.0194666 0 1.03845e-13 0.0107722
0.0194668 0 1.03775e-13 -0.0046661
-0.0194676 0 3.86909e-05 0.0107722
0.0194678 0 3.88215e-05 -0.00466609
-0.0193306 2.25875e-21 0.00249036 0.0107708
0.0193307 -7.52918e-22 0.00249038 -0.00467809
-0.019126 0 0.00398495 0.0107703
0.0191265 0 0.00398518 -0.00468875
-0.0192996 4.51751e-21 0.00322408 0.0107701
0.0192998 2.25875e-21 0.00322419 -0.00468274
-0.0191703 -1.35525e-20 0.00393445 0.0107701
0.0191707 0 0.00393471 -0.00468826
-0.0195792 2.71051e-20 0.00146063 0.0107714
0.0195792 5.42101e-20 0.00146063 -0.00467301
-0.0192183 1.35525e-20 0.00403232 0.0107696
0.0192187 0 0.00403252 -0.00468913
-0.0195391 2.71051e-20 0.00196502 0.0107706
0.0195391 0 0.00196506 -0.00467849
-0.0196412 0 8.2824e-14 0.0107708
0.0196418 0 8.26879e-14 -0.00466555
-0.019692 -2.71051e-20 0.0005066 0.0107707
0.019692 -2.71051e-20 0.000506622 -0.0046664
-0.0193632 2.25875e-22 0.00368353 0.0107686
0.0193636 1.12938e-22 0.00368367 -0.00468666
-0.0193748 -1.35525e-20 0.00398025 0.0107683
0.0193751 1.35525e-20 0.00398046 -0.00468872
-0.0193749 -6.77626e-21 0.00411562 0.010768
0.0193752 -1.35525e-20 0.00411575 -0.00469015
-0.0196516 0 0.00282164 0.0107685
0.0196518 2.71051e-20 0.0028217 -0.00468084
-0.0196713 -2.71051e-20 0.00346867 0.0107661
0.0196715 -5.42101e-20 0.00346879 -0.00468599
-0.0195416 1.35525e-20 0.00420424 0.0107664
0.0195422 2.03288e-20 0.00420454 -0.00469151
-0.02 1.35525e-20 7.5021e-14 0.010768
0.0200001 1.35525e-20 7.4999e-14 -0.004665
-0.02 -2.71051e-20 0.000219861 0.010768
0.0200001 -1.35525e-20 0.000219807 -0.00466501
-0.0196486 2.71051e-21 0.00405876 0.0107657
0.019649 -1.0842e-20 0.00405903 -0.00469043
0.019997 1.41172e-22 0.00175126 -0.00467488
-0.019997 0 0.00175132 0.010767
0.0201205 0 2.66712e-14 -0.00466417
-0.0201205 0 2.67431e-14 0.010767
-0.0201124 0 0.00105022 0.0107667
0.0201124 -2.25875e-21 0.00105024 -0.00466849
-0.0200024 -3.76459e-22 0.00235173 0.0107658
0.0200025 -9.41148e-23 0.0023518 -0.00467936
-0.0197167 0 0.00429743 0.0107648
0.0197172 1.35525e-20 0.00429767 -0.00469294
-0.0199625 1.12938e-21 0.00315688 0.0107646
0.0199626 1.12938e-21 0.00315696 -0.00468377
-0.0198179 1.35525e-20 0.00435132 0.0107622
0.0198183 0 0.00435153 -0.00469135
-0.0198553 -2.71051e-20 0.00424327 0.0107624
0.0198557 1.35525e-20 0.00424354 -0.00469102
0.0203123 -2.71051e-20 6.21449e-15 -0.00466346
-0.0203124 -2.71051e-20 6.14666e-15 0.0107654
0.0203177 0 0.000130802 -0.00466342
-0.0203178 0 0.000130833 0.0107653
-0.01997 -5.64689e-22 0.00385617 0.0107631
0.0199702 9.41148e-22 0.00385631 -0.00468943
-0.0202712 2.71051e-20 0.00281169 0.0107623
0.0202713 2.71051e-20 0.00281174 -0.00468215
-0.0199999 0 0.00444833 0.0107619
0.0200001 0 0.00444847 -0.00469507
-0.0200605 0 0.00448064 0.0107619
0.0200609 0 0.00448086 -0.00469618
-0.0202705 0 0.00349446 0.0107614
0.0202706 -2.71051e-20 0.00349456 -0.00468594
-0.0201021 0 0.00441229 0.010762
0.0201026 0 0.00441233 -0.00469613
-0.0201274 1.35525e-20 0.00451629 0.0107607
0.020128 -6.77626e-21 0.00451661 -0.0046959
-0.0202112 -3.76459e-21 0.00425016 0.0107623
0.0202116 0 0.00425037 -0.00469619
-0.0206399 -5.42101e-20 0.00178222 0.0107606
0.0206399 -5.42101e-20 0.00178223 -0.00467459
0.0207253 -5.42101e-20 0.000539941 -0.004662
-0.0207253 -5.42101e-20 0.000539939 0.0107614
-0.0206015 0 0.00245364 0.0107604
0.0206016 -3.38813e-22 0.00245367 -0.00468105
-0.0205843 1.12938e-21 0.00315111 0.0107594
0.0205844 1.12938e-21 0.00315116 -0.00468524
-0.0203417 1.35525e-20 0.00463048 0.0107585
0.0203423 1.35525e-20 0.00463076 -0.00469746
-0.0203949 -1.35525e-20 0.00457254 0.0107582
0.0203954 0 0.00457285 -0.00469691
-0.0205502 0 0.00386547 0.0107583
0.0205503 -2.25875e-21 0.00386562 -0.00469084
-0.0204458 0 0.00468592 0.0107578
0.0204463 0 0.00468616 -0.00469811
-0.0206078 -5.64689e-22 0.0043176 0.0107569
0.0206081 1.12938e-22 0.00431777 -0.00469516
-0.0209209 5.42101e-20 0.00278889 0.0107579
0.020921 0 0.00278892 -0.0046841
-0.0206248 6.77626e-21 0.0047813 0.0107562
0.0206252 6.77626e-21 0.00478146 -0.00469926
-0.0208848 -2.71051e-20 0.00349061 0.0107561
0.0208849 -2.71051e-20 0.0034907 -0.00468851
0.0212501 -1.35525e-20 5.88478e-15 -0.00466064
-0.0212501 0 5.83891e-15 0.0107566
0.0212501 0 9.46703e-05 -0.00466062
-0.0212501 0 9.4684e-05 0.0107566
-0.0207397 -6.77626e-21 0.00484247 0.0107552
0.0207403 0 0.00484278 -0.00470018
-0.0207851 4.51751e-21 0.00466127 0.0107551
0.0207854 -4.51751e-21 0.00466152 -0.00469842
-0.0209257 -2.71051e-20 0.00410294 0.010755
0.020926 0 0.00410307 -0.00469431
-0.0213163 -1.12938e-21 0.001158 0.0107551
0.0213163 3.38813e-21 0.00115801 -0.00466722
0.0213763 1.35525e-20 3.47593e-16 -0.00466028
-0.0213764 0 3.5283e-16 0.0107556
-0.0212885 1.12938e-21 0.00232627 0.010754
0.0212886 1.12938e-21 0.00232629 -0.00468072
-0.021208 -2.82344e-22 0.00309796 0.0107539
0.021208 1.69407e-21 0.00309802 -0.00468562
0.0214867 0 0.000108836 -0.00465982
-0.0214868 1.35525e-20 0.000108849 0.0107545
0.021494 1.35525e-20 4.39192e-16 -0.00465976
-0.0214941 0 4.44401e-16 0.0107545
-0.0209343 1.35525e-20 0.00494614 0.0107536
0.0209347 0 0.00494637 -0.00470183
-0.0212499 0 0.00376412 0.0107523
0.021247 -2.75286e-21 0.00376429 -0.00469042
-0.0210472 -1.35525e-20 0.00500632 0.0107507
0.0210476 -1.35525e-20 0.00500653 -0.00470006
-0.0210903 0 0.00488625 0.0107509
0.0210906 -2.71051e-20 0.0048865 -0.00469965
-0.0212089 4.51751e-21 0.00450243 0.0107517
0.0212092 -1.12938e-21 0.00450256 -0.00469788
-0.0216448 0 0.00289595 0.0107492
0.0216449 2.71051e-20 0.00289597 -0.00468767
-0.0212498 3.38813e-21 0.00511424 0.0107506
0.0212501 3.38813e-21 0.00511439 -0.00470474
-0.0212808 0 0.00513076 0.0107507
0.0212812 0 0.00513096 -0.00470535
-0.0216428 0 0.00333678 0.0107483
0.0216429 0 0.00333683 -0.00468718
-0.0213035 0 0.00509474 0.0107508
0.0213039 3.38813e-21 0.00509481 -0.00470531
-0.0215146 2.71051e-20 0.00414914 0.0107493
0.0215148 0 0.00414925 -0.00469314
-0.0213152 -6.77626e-21 0.00514909 0.0107501
0.0213157 0 0.00514937 -0.00470528
0.0219709 0 0.000580194 -0.00465864
-0.021971 5.42101e-20 0.000580199 0.01075
-0.0214405 -9.03502e-21 0.00489685 0.0107513
0.0214409 -3.01167e-21 0.00489705 -0.00470529
-0.0219196 0 0.00179911 0.0107485
0.0219197 0 0.00179912 -0.00467408
-0.0218787 -2.82344e-22 0.00244234 0.0107476
0.0218787 7.05861e-23 0.00244237 -0.00468277
-0.0218432 -2.71051e-20 0.00311325 0.010747
0.0218433 0 0.00311327 -0.00468837
-0.0218301 1.50584e-21 0.00382172 0.010747
0.0218302 -7.52918e-22 0.00382177 -0.00469227
-0.0215576 1.35525e-20 0.00527824 0.0107477
0.0215581 1.35525e-20 0.00527848 -0.00470769
-0.0216181 1.35525e-20 0.00521384 0.0107473
0.0216185 -1.35525e-20 0.0052141 -0.00470701
-0.022064 0 0.00288701 0.0107456
0.022064 2.71051e-20 0.00288702 -0.00468935
-0.0217938 2.25875e-21 0.00451147 0.010747
0.021794 -2.25875e-21 0.00451161 -0.00469943
-0.0220345 -2.71051e-20 0.00332361 0.0107453
0.0220346 -2.71051e-20 0.00332366 -0.0046917
-0.0216748 2.71051e-20 0.00534064 0.010747
0.0216752 2.71051e-20 0.00534085 -0.0047085
-0.0218358 -2.25875e-22 0.00496865 0.0107461
0.0218361 1.35525e-21 0.0049688 -0.00470505
0.0225 -1.35525e-20 -1.57376e-17 -0.00465804
-0.0225 0 -1.52709e-17 0.0107452
0.0225 -1.35525e-20 8.44889e-05 -0.00465807
-0.0225 0 8.44943e-05 0.0107452
-0.0221466 0 0.00413228 0.0107452
0.0221467 0 0.00413235 -0.00469629
-0.0218748 -6.77626e-21 0.00544721 0.0107451
0.0218751 1.01644e-20 0.00544736 -0.00471032
0.0225909 -1.35525e-20 4.65091e-17 -0.00465803
-0.0225909 0 4.69172e-17 0.0107445
-0.0225623 0 0.00117125 0.0107435
0.0225623 5.64689e-21 0.00117125 -0.00466612
-0.0219453 1.69407e-20 0.00548473 0.0107445
0.0219458 1.69407e-20 0.00548498 -0.004711
-0.0220186 4.51751e-21 0.0053065 0.0107443
0.0220189 -1.35525e-20 0.00530671 -0.00470909
-0.0221547 2.71051e-20 0.00476009 0.0107438
0.0221549 2.71051e-20 0.00476021 -0.00470387
0.0226735 0 8.15118e-05 -0.00465786
-0.0226735 0 8.15168e-05 0.0107438
0.0226781 0 2.50124e-17 -0.00465782
-0.0226781 0 2.52005e-17 0.0107437
-0.0225519 -1.12938e-21 0.00239247 0.0107417
0.0225519 4.51751e-21 0.00239248 -0.00468255
-0.0224875 -5.64689e-22 0.00303827 0.0107417
0.0224875 5.64689e-22 0.00303832 -0.00468945
-0.0224955 -7.05861e-23 0.00364649 0.0107415
0.0224956 7.05861e-23 0.00364646 -0.00469418
-0.0221583 1.35525e-20 0.00559821 0.0107429
0.0221587 -1.35525e-20 0.00559841 -0.00471278
-0.0224493 -2.25875e-21 0.00445911 0.0107418
0.0224494 0 0.00445919 -0.00470047
-0.0222812 1.35525e-20 0.00566371 0.0107397
0.0222816 -2.71051e-20 0.00566387 -0.0047107
-0.0223282 1.35525e-20 0.00553377 0.01074
0.0223285 2.71051e-20 0.00553397 -0.00471026
-0.022442 2.25875e-21 0.00515525 0.010741
0.0224423 7.52918e-22 0.00515537 -0.00470865
-0.0227594 0 0.00412234 0.0107392
0.0227595 -2.71051e-20 0.00412239 -0.00469714
0.0231924 5.42101e-20 0.000587087 -0.00465758
-0.0231924 5.42101e-20 0.000587089 0.0107389
-0.0224999 8.47033e-22 0.00578016 0.0107398
0.0225001 0 0.00578025 -0.00471643
-0.0231698 0 0.00178811 0.0107366
0.0231698 1.0842e-19 0.00178811 -0.0046747
-0.022509 0 0.00578499 0.0107399
0.0225093 0 0.00578515 -0.00471662
-0.0225157 8.47033e-22 0.0057743 0.0107399
0.0225162 0 0.00577431 -0.00471659
-0.0227516 0 0.00479269 0.0107392
0.0227518 0 0.00479279 -0.00470433
-0.0225192 -2.5411e-21 0.00579044 0.0107397
0.0225196 -1.01644e-20 0.00579066 -0.00471662
-0.0231209 0 0.00309539 0.010735
0.023121 0 0.00309541 -0.00469197
-0.0226735 -1.05409e-20 0.00554731 0.0107407
0.0226737 1.50584e-21 0.00554747 -0.00471637
-0.0230931 0 0.00378166 0.0107364
0.0230932 -7.52918e-22 0.00378167 -0.00469817
-0.023068 5.64689e-21 0.00445632 0.010737
0.0230681 1.12938e-21 0.00445637 -0.00470334
-0.0227839 1.35525e-20 0.00593173 0.0107372
0.0227842 0 0.00593191 -0.00472014
-0.0228493 1.35525e-20 0.00586199 0.0107369
0.0228496 0 0.00586218 -0.0047193
-0.0230298 4.51751e-21 0.00515583 0.0107367
0.02303 0 0.00515594 -0.00471109
-0.0229106 0 0.00599952 0.0107363
0.0229109 2.71051e-20 0.00599968 -0.00472078
-0.023072 -9.03502e-22 0.00561884 0.0107357
0.0230722 9.03502e-22 0.00561896 -0.00471701
-0.0237501 0 1.53747e-17 0.010734
0.0237501 6.77626e-21 1.52208e-17 -0.00465758
-0.0237501 6.77626e-21 6.33397e-05 0.010734
0.0237501 6.77626e-21 6.33363e-05 -0.0046576
-0.0234048 0 0.0040956 0.0107346
0.0234049 -2.71051e-20 0.00409564 -0.00470253
0.0238177 0 -7.65578e-19 -0.00465763
-0.0238177 -1.35525e-20 -7.74602e-19 0.0107334
0.0237988 -2.25875e-21 0.00117061 -0.00466642
-0.0237988 0 0.00117061 0.0107322
-0.0233657 -2.71051e-20 0.00479029 0.0107348
0.0233658 2.71051e-20 0.00479035 -0.00470905
0.0238811 6.77626e-21 6.14693e-05 -0.00465764
-0.0238811 -1.35525e-20 6.14724e-05 0.0107329
0.023883 6.77626e-21 -9.01493e-19 -0.00465763
-0.023883 0 -9.09844e-19 0.0107329
-0.0237728 0 0.00241911 0.0107299
0.0237728 5.64689e-22 0.00241911 -0.00468455
-0.0231249 0 0.00611529 0.0107347
0.0231251 -6.77626e-21 0.00611542 -0.00472341
-0.0231675 2.71051e-20 0.00613811 0.0107343
0.0231678 -1.01644e-20 0.00613829 -0.00472388
-0.023258 1.35525e-20 0.00596026 0.0107339
0.0232582 -4.51751e-21 0.00596041 -0.00472178
-0.0234008 2.71051e-20 0.00540243 0.0107336
0.0234009 -2.71051e-20 0.00540252 -0.0047159
-0.0237509 -2.82344e-22 0.00364541 0.01073
0.0237508 -1.03526e-21 0.00364544 -0.00469965
-0.0236805 -5.27043e-21 0.00443726 0.0107313
0.0236806 -1.50584e-21 0.00443729 -0.00470577
-0.0233932 1.35525e-20 0.00626089 0.0107322
0.0233933 0 0.00626103 -0.00472546
-0.0237267 -5.64689e-22 0.00506483 0.010731
0.0237268 -5.64689e-22 0.00506488 -0.004712
-0.0235126 0 0.00635102 0.0107284
0.0235127 0 0.00635113 -0.00472215
-0.0235681 0 0.00620595 0.0107289
0.0235683 -1.35525e-20 0.00620608 -0.00472191
-0.0236824 0 0.00581853 0.0107305
0.0236825 7.52918e-22 0.00581861 -0.0047208
0.024425 0 0.00058604 -0.0046579
-0.0244251 -1.0842e-19 0.000586045 0.0107279
0.0244106 5.42101e-20 0.00178889 -0.00467591
-0.0244106 5.42101e-20 0.00178889 0.0107251
-0.0241349 0 0.00419973 0.0107247
0.0241349 0 0.00419974 -0.00470625
-0.0236696 3.38813e-21 0.00645563 0.0107286
0.0236698 0 0.00645575 -0.00472721
-0.0237096 -3.38813e-21 0.00644188 0.0107288
0.0237098 0 0.00644198 -0.00472805
-0.0241326 0 0.00462567 0.0107262
0.0241326 5.42101e-20 0.00462571 -0.00470912
-0.0237098 0 0.00648356 0.0107291
0.02371 0 0.00648366 -0.00472934
-0.0243927 5.42101e-20 0.00306991 0.010723
0.0243927 5.42101e-20 0.00306991 -0.00469594
-0.0239945 2.71051e-20 0.00544746 0.0107286
0.0239946 0 0.00544753 -0.00471567
-0.0237499 1.35525e-20 0.00643537 0.0107289
0.0237501 0 0.00643548 -0.00472891
-0.0237499 0 0.00647613 0.0107288
0.0237501 0 0.00647623 -0.00472942
-0.0237499 0 0.006513 0.0107287
0.0237501 0 0.00651309 -0.00473008
-0.0243523 5.64689e-22 0.00372353 0.0107234
0.0243524 5.64689e-22 0.00372355 -0.00470205
-0.0239089 0 0.00623589 0.0107297
0.023909 -1.35525e-20 0.00623598 -0.00472938
-0.0243287 0 0.00441255 0.0107242
0.0243287 0 0.00441257 -0.0047084
-0.0239122 6.77626e-21 0.00663214 0.0107273
0.0239123 2.71051e-20 0.00663222 -0.00473228
-0.0243138 -2.25875e-21 0.00512037 0.0107259
0.0243139 2.25875e-21 0.00512041 -0.00471442
-0.0245437 0 0.00418671 0.0107222
0.0245437 0 0.00418672 -0.00470855
-0.0240424 0 0.00656018 0.0107266
0.0240425 1.35525e-20 0.00656027 -0.00473102
-0.0245161 2.71051e-20 0.00461184 0.0107239
0.0245161 0 0.00461186 -0.00471279
-0.0240313 0 0.00671945 0.0107261
0.0240314 -1.35525e-20 0.00671952 -0.00473235
-0.0242758 -4.51751e-21 0.0058092 0.010726
0.0242758 4.51751e-21 0.00580927 -0.00472235
-0.025 0 4.25541e-20 0.0107235
0.025 -6.77626e-21 4.32721e-20 -0.00465811
-0.025 0 4.32458e-05 0.0107235
0.025 0 4.32338e-05 -0.00465812
0.025046 0 -4.76797e-20 -0.00465815
-0.025046 6.77626e-21 -4.79508e-20 0.0107232
0.0250354 -1.12938e-21 0.00116998 -0.00466708
-0.0250355 -1.12938e-21 0.00116998 0.0107217
-0.0241475 2.71051e-20 0.00680428 0.0107231
0.0241476 1.35525e-20 0.00680434 -0.00473029
0.0250898 -6.77626e-21 4.20265e-05 -0.00465819
-0.0250898 0 4.20372e-05 0.0107228
0.0250906 0 -2.73305e-20 -0.00465818
-0.0250906 6.77626e-21 -2.74441e-20 0.0107228
-0.024199 -1.35525e-20 0.00668127 0.0107235
0.0241991 0 0.00668133 -0.00472963
-0.0250241 5.64689e-22 0.00240547 0.010719
0.0250241 5.64689e-22 0.00240547 -0.00468665
-0.0243358 1.29072e-21 0.00637905 0.0107246
0.0243359 1.12938e-21 0.00637911 -0.00472929
-0.0246314 -2.71051e-20 0.0054211 0.0107241
0.0246315 -2.71051e-20 0.00542114 -0.00471888
-0.0250347 0 0.00367576 0.0107184
0.0250347 -4.51751e-21 0.00367577 -0.00470425
-0.0243359 0 0.00694205 0.010723
0.024336 -1.69407e-21 0.00694207 -0.00473475
-0.0243561 0 0.00693965 0.010723
0.0243562 0 0.00693966 -0.00473503
-0.0243565 1.69407e-21 0.00695709 0.0107232
0.0243566 1.69407e-21 0.00695714 -0.00473548
-0.0243749 -1.69407e-21 0.00693984 0.0107231
0.024375 0 0.00693986 -0.00473535
-0.0249795 -1.12938e-21 0.00428502 0.0107199
0.0249795 2.25875e-21 0.00428505 -0.00470978
-0.0243749 0 0.00695738 0.010723
0.024375 1.69407e-21 0.00695742 -0.00473555
-0.0243749 0 0.00697053 0.010723
0.024375 0 0.0069706 -0.00473574
-0.0246321 0 0.00606147 0.010723
0.0246322 0 0.00606153 -0.00472668
-0.0245423 -3.01167e-21 0.00675073 0.0107236
0.0245424 7.52918e-21 0.00675076 -0.00473526
-0.0249911 0 0.00494763 0.0107209
0.0249911 1.12938e-21 0.00494764 -0.00471692
-0.0249356 -3.38813e-21 0.00573783 0.0107214
0.0249356 0 0.00573787 -0.00472374
-0.0246074 1.35525e-20 0.0071402 0.0107214
0.0246074 -1.35525e-20 0.00714023 -0.00473823
0.0256596 1.0842e-19 0.000584401 -0.00465853
-0.0256597 0 0.000584393 0.0107184
-0.0246896 1.35525e-20 0.00706705 0.010721
0.0246896 0 0.00706707 -0.00473721
0.0256513 0 0.00178375 -0.00467634
-0.0256513 -5.42101e-20 0.00178376 0.0107152
-0.0249063 -4.51751e-21 0.00639906 0.0107206
0.0249064 4.51751e-21 0.00639909 -0.00473062
-0.0247466 2.71051e-20 0.00724188 0.0107204
0.0247466 2.71051e-20 0.0072419 -0.00473757
-0.0252513 0 0.00539782 0.0107194