# U  POINT_DATA 29002
# x  y  z  U_x  U_y  U_z
-1.35525e-20 0.014142 8.40343e-08 0 0 0
1.35525e-20 -0.014142 8.40343e-08 0 0 0
-6.77626e-21 0.014142 0.000246012 0 0 0
6.77626e-21 -0.014142 0.000246012 0 0 0
3.38813e-21 0.014142 0.000413825 0 0 0
-6.77626e-21 -0.014142 0.000413826 0 0 0
0 0.014142 0.000659755 0 0 0
-1.35525e-20 -0.014142 0.000659755 0 0 0
1.01644e-20 0.014142 0.000918785 0 0 0
3.38813e-21 -0.014142 0.000918783 0 0 0
6.77626e-21 0.014142 0.00109556 0 0 0
3.38813e-21 -0.014142 0.00109556 0 0 0
1.35525e-20 0.014142 0.00135458 0 0 0
0 -0.014142 0.00135458 0 0 0
3.38813e-21 0.014142 0.00162762 0 0 0
-6.77626e-21 -0.014142 0.00162761 0 0 0
-1.35525e-20 -0.014252 0.000123092 -4.77806e-06 3.60774e-06 -1.18631e-06
0 0.014252 0.000123069 -6.04946e-06 3.01104e-06 1.06241e-06
-1.35525e-20 -0.0142534 8.87871e-08 0 0 0
0 0.0142534 8.87841e-08 0 0 0
-3.38813e-21 0.014142 0.00181396 0 0 0
-6.77626e-21 -0.014142 0.00181396 0 0 0
0 -0.014252 0.000530042 -4.77813e-06 3.60779e-06 -1.18633e-06
0 0.014252 0.000530052 -6.04956e-06 3.01108e-06 1.06243e-06
1.35525e-20 0.0142482 0.000775283 -0.000321909 0.000304238 -1.22424e-05
0 -0.0142482 0.000775286 -0.000345888 0.0003429 -2.34617e-06
-1.35525e-20 0.014142 0.002087 0 0 0
1.35525e-20 -0.014142 0.002087 0 0 0
0 -0.0142482 0.00119841 -0.000345868 0.00034288 -2.34604e-06
0 0.0142482 0.00119841 -0.000321892 0.000304222 -1.22418e-05
0 0.0142437 0.00144425 -0.000342583 0.000327226 -7.9372e-06
0 -0.0142438 0.00144425 -0.000359297 0.000362594 8.22514e-06
0 0.0142437 0.00188148 -0.000342596 0.000327238 -7.93749e-06
-1.35525e-20 -0.0142437 0.00188149 -0.000359312 0.000362609 8.22547e-06
-1.35525e-20 0.014376 9.02294e-08 0 0 0
0 -0.014376 9.02309e-08 0 0 0
0 0.0143755 0.000639191 -0.000316383 0.000310941 -3.87511e-06
0 -0.0143755 0.000639192 -0.000325792 0.000339064 -5.87269e-06
-6.77626e-21 0.0142627 0.00213224 0 0 0
-6.77626e-21 -0.0142627 0.00213225 0 0 0
-1.35525e-20 0.0143001 0.00203568 -0.000393796 0.000351783 -8.42596e-06
-1.35525e-20 -0.0143001 0.00203569 -0.000354414 0.000340926 1.00691e-05
0 -0.0144128 0.000955786 -0.000838619 0.00086504 -1.40658e-05
1.35525e-20 0.0144128 0.000955783 -0.000853663 0.000819129 -2.03423e-05
0 0.0143938 0.00157761 -0.000876647 0.000841805 -1.89013e-05
1.35525e-20 -0.0143938 0.00157762 -0.000851187 0.000883165 -1.46653e-06
0 -0.0143748 0.00187233 -0.000652704 0.00069036 -3.32227e-06
6.77626e-21 0.0143748 0.00187232 -0.000654213 0.000619888 -1.86933e-05
0 0.0144696 0.00124239 -0.000980829 0.000935029 -3.98941e-05
2.25875e-21 -0.0144696 0.00124239 -0.000995356 0.00105264 -1.95797e-05
0 0.014375 0.00217431 0 0 0
-1.35525e-20 -0.014375 0.00217431 0 0 0
-4.51751e-21 -0.0145417 0.000318493 -9.42183e-05 0.000100802 1.559e-06
-2.25875e-21 0.0145417 0.000318489 -9.46625e-05 9.60128e-05 -5.07834e-06
-1.35525e-20 -0.0145497 9.54667e-08 0 0 0
0 0.0145497 9.54641e-08 0 0 0
0 -0.0145346 0.00078231 -0.000756419 0.000797379 -1.65704e-05
1.35525e-20 0.0145346 0.000782317 -0.000782974 0.000764106 -1.0041e-05
2.71051e-20 0.0145143 0.00222654 0 0 0
0 -0.0145144 0.00222654 0 0 0
1.16165e-20 0.0146115 0.0016294 -0.00131765 0.00124623 -3.95221e-05
0 -0.0146115 0.00162941 -0.00124446 0.00132361 -1.00492e-05
0 -0.0145852 0.00194437 -0.000923372 0.00101654 -6.45726e-06
0 0.0145842 0.00194387 -0.00104376 0.00106233 1.46069e-05
1.35525e-20 -0.0147196 1.04733e-07 0 0 0
-2.71051e-20 0.0147196 1.0473e-07 0 0 0
-2.11758e-22 0.0145943 0.00194493 -0.0010603 0.0010753 1.36883e-05
-1.05879e-22 -0.0145945 0.00194498 -0.000934512 0.0010276 -6.21128e-06
0 -0.014709 0.000900688 -0.00117946 0.00129764 -2.24495e-06
2.25875e-21 0.014709 0.000900686 -0.00122047 0.00118988 -4.86979e-05
-2.71051e-20 0.0145865 0.0022536 0 0 0
0 -0.0145866 0.00225361 0 0 0
4.51751e-21 0.014697 0.00143077 -0.00151486 0.00141242 -6.0897e-05
0 -0.014697 0.00143078 -0.0014628 0.00163982 -4.64636e-05
-1.35525e-20 -0.0148082 0.000136863 -3.39073e-06 5.61649e-06 6.3572e-06
0 0.0148082 0.000136848 -9.75727e-06 1.10882e-05 -9.61936e-06
1.35525e-20 -0.0148167 9.37199e-08 0 0 0
-1.35525e-20 0.0148167 9.37185e-08 0 0 0
0 -0.0148641 8.83388e-08 0 0 0
0 0.0148641 8.83383e-08 0 0 0
-5.16287e-21 -0.0148597 0.000623839 -0.000831102 0.000891645 1.15155e-06
-6.45358e-21 0.0148597 0.000623837 -0.000913683 0.00090564 -1.85144e-05
-1.50584e-21 -0.0148445 0.00116564 -0.00159281 0.00172293 -1.61702e-05
-3.76459e-21 0.0148445 0.00116563 -0.00173523 0.00165444 -8.08137e-05
0 0.0147312 0.00230781 0 0 0
-2.71051e-20 -0.0147313 0.00230783 0 0 0
0 0.014833 0.00159147 -0.001851 0.00174198 -7.75819e-05
-5.01544e-37 -0.014833 0.00159148 -0.00163691 0.00179985 -2.12597e-05
0 -0.015 7.49105e-08 0 0 0
1.35525e-20 0.015 7.49089e-08 0 0 0
3.76459e-22 0.014988 0.00205398 -0.00161749 0.00147824 -3.54051e-05
9.41148e-23 -0.014988 0.00205397 -0.00126944 0.00135675 2.79347e-06
-6.77626e-21 -0.0151759 0.000230596 -7.80234e-05 8.43554e-05 -2.53016e-06
6.77626e-21 0.015176 0.000230601 -0.000106222 0.000104557 7.84448e-07
0 -0.015 0.00240853 0 0 0
3.38813e-21 0.015 0.00240854 0 0 0
0 -0.0152018 0.000843053 -0.00156431 0.00169382 2.02218e-05
4.51751e-21 0.0152018 0.000843049 -0.00196944 0.00188494 -5.16707e-05
2.37169e-20 0.0150362 0.00242211 0 0 0
1.69407e-20 -0.0150362 0.00242211 0 0 0
4.51751e-21 -0.015201 0.00143422 -0.00211087 0.00233736 -1.3233e-05
-4.51751e-21 0.015201 0.00143421 -0.00269497 0.00248994 -0.000166163
1.35525e-20 -0.0152989 2.20785e-08 0 0 0
-1.35525e-20 0.015299 2.20802e-08 0 0 0
-3.38813e-21 0.015119 0.00245307 0 0 0
-3.38813e-21 -0.015119 0.0024531 0 0 0
2.71051e-20 -0.015396 0.000531605 -0.000832917 0.000924501 1.74104e-05
-2.71051e-20 0.015396 0.000531602 -0.00111674 0.00107466 -4.37905e-05
1.35525e-20 -0.0154492 8.76997e-09 0 0 0
-1.35525e-20 0.0154492 8.76943e-09 0 0 0
-2.71051e-20 -0.0154135 0.00109937 -0.00195066 0.00221817 2.8392e-06
0 0.0154136 0.00109937 -0.00263406 0.00243427 -0.000155749
-1.35525e-20 0.0152769 0.00251208 0 0 0
0 -0.0152769 0.0025121 0 0 0
-2.71051e-20 0.0153864 0.00178851 -0.00261907 0.0023511 -0.000124082
0 -0.0153864 0.00178851 -0.00187809 0.00213734 -9.24519e-06
-1.01644e-20 0.0153097 0.00239045 -0.000795425 0.000766615 -1.89764e-05
-1.01644e-20 -0.0153097 0.00239045 -0.000584748 0.000682379 -2.90478e-06
0 -0.0153854 0.00225223 -0.00124742 0.00144274 -5.43044e-06
1.12938e-21 0.0153854 0.00225223 -0.00171416 0.00163232 -4.40004e-05
0 -0.0156088 7.21589e-09 0 0 0
1.35525e-20 0.0156089 7.21525e-09 0 0 0
-2.71051e-20 -0.0154657 0.00258282 0 0 0
0 0.0154657 0.00258282 0 0 0
0 -0.0156825 0.000727925 -0.0015273 0.00176064 0.00018512
-2.25875e-21 0.0156825 0.000727916 -0.0023543 0.00219506 -0.000234654
1.12938e-21 -0.0157225 0.000233524 -0.000120358 0.000150125 -3.93201e-05
7.90564e-21 0.0157226 0.000233532 -0.000204644 0.000224634 4.71703e-05
2.25875e-21 -0.0157184 0.00143038 -0.0024448 0.00293139 -2.11808e-05
6.77626e-21 0.0157184 0.00143039 -0.00373734 0.00335098 -0.000268229
-8.47033e-22 -0.0156634 0.00226597 -0.00145529 0.00164603 4.66035e-06
1.69407e-21 0.0156634 0.00226598 -0.00225781 0.0019555 -9.44742e-05
-1.35525e-20 0.0156249 0.00254054 -0.000730638 0.000614236 -3.4465e-05
0 -0.0156249 0.00254053 -0.000460358 0.000511552 2.32397e-06
6.77626e-21 0.0156249 0.0026425 0 0 0
6.77626e-21 -0.0156249 0.00264251 0 0 0
9.03502e-21 0.0157603 0.00197874 -0.00326098 0.0028221 -0.000161577
0 -0.0157603 0.00197874 -0.00205745 0.00240317 6.91641e-06
1.35525e-20 0.0159582 4.57725e-09 0 0 0
0 -0.0159583 4.5756e-09 0 0 0
-1.35525e-20 -0.0157578 0.00269219 0 0 0
2.71051e-20 0.0157578 0.00269219 0 0 0
1.35525e-20 -0.0158038 0.0025027 -0.000951197 0.00103777 5.03274e-06
5.42101e-21 0.0158038 0.00250271 -0.00152175 0.00126797 -6.87143e-05
6.77626e-21 -0.0160273 0.000416841 -0.000685764 0.000825765 1.49502e-05
6.77626e-21 0.0160274 0.00041683 -0.00135608 0.00126993 -6.27774e-05
-1.35525e-20 -0.0160956 3.28585e-09 0 0 0
0 0.0160956 3.28679e-09 0 0 0
-1.35525e-20 -0.0161395 0.000104077 -0.000190739 0.000242906 8.26096e-06
1.35525e-20 0.0161396 0.000104165 -0.000435658 0.000423434 -2.92821e-05
0 0.0160608 0.0017677 -0.00396192 0.00341611 -0.000223366
0 -0.0160608 0.00176769 -0.00228275 0.00283126 -2.74438e-05
7.52918e-22 -0.0161372 0.0008471 -0.00171606 0.00212144 8.35086e-06
3.76459e-21 0.0161373 0.000847085 -0.00306233 0.00271133 -0.000191141
0 -0.0161599 3.02539e-09 0 0 0
1.35525e-20 0.0161601 3.0262e-09 0 0 0
0 -0.0159573 0.00276704 0 0 0
0 0.0159573 0.00276704 0 0 0
-2.25875e-21 -0.0160615 0.00225482 -0.00176306 0.00210131 -8.75172e-06
-6.77626e-21 0.0160615 0.00225485 -0.003062 0.0026074 -0.000141329
1.35525e-20 -0.0162498 2.49159e-09 0 0 0
-1.35525e-20 0.0162501 2.49177e-09 0 0 0
1.6263e-20 -0.0163211 0.00143744 -0.00251793 0.00327413 -3.62811e-05
-2.71051e-20 0.0163211 0.00143746 -0.00470164 0.00400778 -0.00029829
1.6263e-20 0.0163242 0.00197494 -0.00443075 0.00377009 -0.000217994
0 -0.0163242 0.00197494 -0.00239762 0.00300283 -3.34116e-05
-1.35525e-20 0.0162498 0.00287804 0 0 0
2.37169e-20 -0.0162499 0.00287808 0 0 0
-2.37169e-20 -0.0165397 1.49574e-09 0 0 0
3.04932e-20 0.0165398 1.49534e-09 0 0 0
6.77626e-21 -0.016295 0.00289505 0 0 0
9.03502e-21 -0.0165484 0.000259337 -0.000506737 0.000628371 -2.49964e-05
-1.01644e-20 0.0162953 0.00289514 0 0 0
-4.51751e-21 0.0165485 0.000259312 -0.00134351 0.00110542 -2.27565e-05
2.25875e-21 -0.0163611 0.00261002 -0.00125112 0.00145196 -1.51663e-05
2.25875e-21 0.0163611 0.00261004 -0.00230649 0.00191888 -0.000124769
-2.37169e-20 -0.0166019 1.3988e-09 0 0 0
3.38813e-21 0.0166021 1.39827e-09 0 0 0
-1.807e-21 -0.0167776 0.000787901 -0.00155472 0.0021563 -4.94674e-05
9.03502e-22 0.0167777 0.000787893 -0.00356892 0.00291888 -0.000155532
-1.35525e-20 -0.0168222 8.08296e-10 0 0 0
1.35525e-20 0.0168225 8.07382e-10 0 0 0
-6.77626e-21 -0.0167552 0.00167721 -0.00247677 0.00339648 -6.56725e-05
-4.51751e-21 0.0167552 0.00167721 -0.00534305 0.00439627 -0.000302615
2.71051e-20 -0.0165883 0.00300631 0 0 0
2.71051e-20 0.0165884 0.00300634 0 0 0
9.03502e-21 -0.0167309 0.00229146 -0.00205651 0.00268251 -5.00261e-05
4.51751e-21 0.0167309 0.00229155 -0.0043538 0.00358752 -0.00021972
1.35525e-20 -0.0169395 0.000138934 -0.000261465 0.000300675 8.27932e-07
1.35525e-20 0.0169397 0.000138909 -0.000942645 0.000711461 6.2354e-06
0 -0.0169618 4.51221e-10 0 0 0
0 0.016962 4.50664e-10 0 0 0
0 -0.0170688 0.000345436 -0.000759637 0.00102107 -9.16203e-06
-1.35525e-20 0.0170689 0.000345447 -0.00235014 0.00183958 -1.83081e-05
-6.77626e-21 -0.0168116 0.00309149 0 0 0
6.77626e-21 0.0168118 0.00309158 0 0 0
0 -0.0170877 0.00125519 -0.00238701 0.00363736 -9.4794e-05
0 0.0170878 0.0012552 -0.00593638 0.00468511 -0.000363267
3.38813e-21 0.0168748 0.00299168 -0.00102888 0.000794694 -6.16432e-05
0 -0.016875 0.00299095 -0.000474121 0.000568631 -9.70698e-06
6.77626e-21 0.0168748 0.00311544 0 0 0
3.38813e-21 -0.0168751 0.00311552 0 0 0
-2.25875e-21 -0.0169694 0.00276077 -0.00136746 0.00167805 -3.25877e-05
-2.25875e-21 0.0169696 0.0027608 -0.0030619 0.00238515 -0.000179752
-5.42101e-20 -0.0170755 0.00207925 -0.00242184 0.00340304 -8.52265e-05
0 0.0170755 0.00207928 -0.00578001 0.00469377 -0.000302084
6.77626e-21 -0.0173112 7.14994e-11 0 0 0
0 0.0173113 7.13385e-11 0 0 0
0 -0.0170862 0.00319594 0 0 0
2.71051e-20 0.0170864 0.00319602 0 0 0
-6.77626e-21 -0.0174106 5.80413e-05 -0.000150162 0.0002278 -3.8466e-06
0 0.0174107 5.80305e-05 -0.000396009 0.000323471 -1.00274e-05
1.12938e-20 -0.017396 0.000777646 -0.00141706 0.00229632 -5.90754e-05
9.03502e-21 0.0173961 0.000777647 -0.00433359 0.00336278 -0.000214204
-6.77626e-21 -0.0174228 5.17378e-11 0 0 0
-6.77626e-21 0.0174229 5.16473e-11 0 0 0
6.77626e-21 -0.0174571 4.89779e-11 0 0 0
0 0.0174572 4.88992e-11 0 0 0
-2.25875e-21 -0.0174062 0.00167743 -0.00216265 0.0034626 -0.000135872
2.25875e-21 0.0174063 0.00167744 -0.0063282 0.00490981 -0.000404763
6.77626e-21 -0.0174999 4.75457e-11 0 0 0
-6.77626e-21 0.0175 4.74696e-11 0 0 0
6.77626e-21 -0.0174999 5.74012e-05 -0.000149103 0.000246239 -1.84408e-06
0 0.0175 5.73934e-05 -0.000452868 0.000363619 -1.21654e-05
1.35525e-20 -0.0172465 0.00325641 0 0 0
2.03288e-20 0.0172466 0.00325643 0 0 0
0 -0.0172985 0.00306859 -0.000734048 0.000987934 -4.57425e-05
0 0.0172985 0.00306881 -0.0018235 0.00147735 -7.24449e-05
9.03502e-21 -0.0174314 0.00258926 -0.00163149 0.00235139 -0.000102379
-5.64689e-22 0.0174315 0.00258926 -0.00459999 0.00357604 -0.00027745
1.69407e-21 -0.0174509 0.00333352 0 0 0
1.69407e-21 0.0174516 0.00333379 0 0 0
2.71051e-20 -0.0177427 0.00123867 -0.00185389 0.00346291 -0.000152058
0 0.0177428 0.0012387 -0.00679302 0.00500229 -0.000472723
0 -0.0174775 0.0033206 -8.13169e-05 0.000109442 -5.0673e-06
0 0.0174778 0.00332108 -0.000198795 0.000161058 -7.89783e-06
0 -0.0174819 0.00334524 0 0 0
0 0.0174821 0.0033453 0 0 0
0 -0.0178052 0.000414147 -0.000968732 0.00162446 -2.16033e-05
5.42101e-20 0.0178053 0.000414151 -0.0032242 0.00249037 -9.50176e-05
0 0.0174998 0.00331875 -0.000283517 0.000211874 -1.60473e-05
0 -0.0174999 0.00331824 -9.70056e-05 0.000132205 -5.79301e-06
0 0.0174997 0.00334099 -0.000107584 8.04804e-05 -4.69707e-06
1.69407e-21 -0.0174999 0.00334085 -3.60895e-05 4.63011e-05 -8.44479e-07
0 0.0174997 0.00335193 0 0 0
0 -0.0174999 0.00335198 0 0 0
-6.77626e-21 0.0178185 2.63056e-11 0 0 0
-6.77626e-21 -0.0178186 2.63406e-11 0 0 0
0 -0.0177179 0.00210726 -0.00198799 0.00337699 -0.000210054
2.71051e-20 0.017718 0.0021073 -0.0068535 0.00527296 -0.000490711
4.51751e-21 -0.0176365 0.00303796 -0.00115174 0.00147223 -4.55347e-05
-4.51751e-21 0.0176366 0.00303803 -0.0033372 0.00243306 -0.00019207
0 -0.017647 0.00304321 -0.00115145 0.00147186 -4.52851e-05
0 0.0176471 0.00304328 -0.00335304 0.00243902 -0.000194459
-2.71051e-20 -0.0177836 0.00345876 0 0 0
-1.35525e-20 0.0177837 0.00345884 0 0 0
0 0.0181317 5.24975e-05 -0.000402676 0.000297286 -1.30406e-05
0 -0.0181317 5.24752e-05 -0.000108004 0.000184878 -3.88005e-06
0 0.0181326 7.40766e-12 0 0 0
-6.77626e-21 -0.0181326 7.41305e-12 0 0 0
-2.25875e-21 -0.0180574 0.00168505 -0.00157008 0.00326259 -0.00028454
6.77626e-21 0.0180574 0.00168508 -0.00726783 0.00536336 -0.000643203
2.82344e-22 0.0181176 0.000826155 -0.00522297 0.00391546 -0.000350067
3.76459e-22 -0.0181176 0.000826124 -0.00117233 0.00238821 -0.00012823
-1.35525e-20 -0.0178454 0.00337451 -0.000348718 0.000447388 -8.15985e-06
2.71051e-20 0.0178455 0.00337466 -0.00105628 0.000790171 -4.61167e-05
0 -0.0181788 1.20855e-12 0 0 0
6.77626e-21 0.0181788 1.20217e-12 0 0 0
4.51751e-21 -0.0180124 0.00254465 -0.00138078 0.00250961 -0.000253724
0 0.0180125 0.00254474 -0.0059361 0.00435079 -0.000555994
6.77626e-21 -0.018224 6.69062e-05 -0.000122641 0.000238185 -2.06926e-06
0 0.0182241 6.69481e-05 -0.000590483 0.000447016 -1.38765e-05
6.77626e-21 -0.0182304 9.59096e-13 0 0 0
0 0.0182305 9.55143e-13 0 0 0
0 -0.0179191 0.00350977 0 0 0
0 0.0179192 0.00350979 0 0 0
-4.51751e-22 -0.0180614 0.00308264 -0.0010013 0.00154811 -0.000128295
2.25875e-21 0.0180616 0.0030827 -0.00394052 0.0028287 -0.000339569
0 -0.0184102 0.00127251 -0.00119095 0.003142 -0.000340098
-2.71051e-20 0.0184102 0.00127252 -0.00761222 0.00553889 -0.000719179
1.35525e-20 0.0181249 0.00358718 0 0 0
-6.77626e-21 -0.018125 0.00358724 0 0 0
2.71051e-20 -0.0183572 0.0021069 -0.00125514 0.00308856 -0.000428721
-2.71051e-20 0.0183573 0.00210693 -0.00782534 0.0056226 -0.000889522
0 -0.0184759 0.00044774 -0.000848456 0.0016593 -1.5857e-05
0 0.0184759 0.000447749 -0.00389545 0.00308494 -0.00013872
-1.35525e-20 -0.0182298 0.00362666 0 0 0
6.77626e-21 0.0182303 0.00362685 0 0 0
-4.51751e-21 -0.0182763 0.00343588 -0.000466843 0.000697373 -5.84204e-05
9.03502e-21 0.0182764 0.00343606 -0.00201542 0.00136307 -0.000197645
2.71051e-20 -0.0183952 0.00281538 -0.00113481 0.00223593 -0.000324435
-2.71051e-20 0.0183953 0.00281544 -0.00621769 0.00429627 -0.000776327
0 -0.0187499 4.64953e-13 0 0 0
0 0.01875 4.62741e-13 0 0 0
-6.77626e-21 -0.0187499 9.91369e-05 -0.000181721 0.000352926 -3.06608e-06
0 0.01875 9.91108e-05 -0.000874159 0.000661768 -2.0543e-05
0 -0.0187019 0.00167404 -0.000802196 0.00280884 -0.000494676
2.82344e-22 0.018702 0.00167409 -0.00791953 0.00582723 -0.0010007
-2.71051e-20 -0.0184505 0.00370969 0 0 0
2.71051e-20 0.0184507 0.00370979 0 0 0
0 -0.0188246 9.05506e-14 0 0 0
0 0.0188247 9.24758e-14 0 0 0
-4.51751e-21 0.0188279 0.000901801 -0.00601462 0.00465854 -0.000541033
2.25875e-21 -0.0188279 0.000901792 -0.000726844 0.00219129 -0.000254815
0 -0.018889 0.000100088 -0.000138962 0.0003386 -1.10614e-05
0 0.0188891 0.000100053 -0.000953065 0.000771341 -3.33835e-05
5.64689e-22 -0.0187319 0.00243381 -0.000758808 0.00241067 -0.000510034
2.82344e-22 0.0187319 0.00243385 -0.00740268 0.00511541 -0.00115987
0 -0.0188925 7.49718e-14 0 0 0
6.77626e-21 0.0188926 7.69407e-14 0 0 0
-1.35525e-20 -0.0185631 0.00375372 0 0 0
0 0.0185633 0.00375376 0 0 0
1.35525e-20 -0.0185979 0.00364125 -0.000214464 0.000441834 -8.99399e-05
2.71051e-20 0.018598 0.00364145 -0.00133922 0.00098437 -0.000141871
7.52918e-22 -0.0187015 0.0032345 -0.000585514 0.00137789 -0.000275409
-2.63521e-21 0.0187015 0.00323454 -0.0045648 0.00299071 -0.000700329
-6.77626e-21 0.0187498 0.00382104 0 0 0
0 -0.0187499 0.00382109 0 0 0
6.77626e-21 -0.0191944 6.21354e-14 0 0 0
6.77626e-21 0.0191945 6.31148e-14 0 0 0
-2.71051e-20 0.019206 0.000471802 -0.00439143 0.00383922 -0.000179346
0 -0.0192061 0.000471779 -0.000608568 0.00153719 -6.445e-05
0 -0.0191593 0.00145147 -1.83798e-05 0.00236607 -0.000748524
2.71051e-20 0.0191594 0.00145147 -0.00843936 0.00654674 -0.00127343
0 -0.0188253 0.00385016 0 0 0
0 0.0188256 0.00385027 0 0 0
2.71051e-20 -0.0190073 0.00284619 -0.000374115 0.00196897 -0.000600372
0 0.0190073 0.00284625 -0.00725902 0.00446313 -0.00153322
2.71051e-20 -0.0191388 0.00196705 8.98787e-06 0.0023181 -0.000832824
2.71051e-20 0.0191388 0.0019671 -0.00866991 0.00649009 -0.00157748
0 -0.0188685 0.00376942 -0.000177045 0.000298352 -4.1205e-05
-6.77626e-21 0.018869 0.0037691 -0.00119716 0.000722811 -0.00018418
-3.01167e-21 -0.0189582 0.00362216 -0.000426615 0.000829939 -0.000149291
6.02335e-21 0.0189583 0.00362229 -0.00326221 0.00201114 -0.000507746
0 -0.0189216 0.00388925 0 0 0
-6.77626e-21 0.0189225 0.00388962 0 0 0
0 -0.0193512 0.00171027 0.000213647 0.00217955 -0.000844919
2.71051e-20 0.0193513 0.00171028 -0.00868682 0.00664114 -0.00159584
-1.8823e-22 0.0194091 0.000938214 -0.00634148 0.00526907 -0.000778832
-9.41148e-22 -0.0194091 0.000938238 -0.000239899 0.00181745 -0.000374464
0 0.0194665 1.03809e-13 0 0 0
6.77626e-21 -0.0194667 1.03982e-13 0 0 0
-6.77626e-21 0.0194675 3.87291e-05 -0.000341227 0.000352987 -1.88298e-05
-6.77626e-21 -0.0194677 3.87998e-05 -4.13323e-05 0.000115377 -7.61091e-06
0 -0.0193303 0.00249034 0.000232557 0.00187372 -0.000862116
2.25875e-21 0.0193304 0.00249034 -0.00814414 0.00522373 -0.0019677
0 -0.0191251 0.00398458 0 0 0
0 0.0191255 0.00398476 0 0 0
4.51751e-21 -0.0192993 0.00322371 8.40105e-05 0.00125901 -0.000612737
2.25875e-21 0.0192993 0.00322385 -0.00594173 0.00348092 -0.00148054
1.35525e-20 -0.0191697 0.00393391 -7.00595e-05 0.000181864 -4.17154e-05
2.71051e-20 0.0191699 0.0039342 -0.000773016 0.000488246 -0.00011074
-2.71051e-20 -0.0195789 0.00146067 0.000418985 0.00198974 -0.000879654
-2.71051e-20 0.019579 0.00146066 -0.00858543 0.00704598 -0.00153474
0 -0.0192179 0.00403218 0 0 0
0 0.019218 0.00403225 0 0 0
0 -0.0195388 0.00196492 0.000592372 0.00196865 -0.00102969
0 0.0195389 0.00196497 -0.00901612 0.0066575 -0.00200197
0 0.0196412 8.27607e-14 0 0 0
0 -0.0196416 8.29008e-14 0 0 0
0 0.0196919 0.000506616 -0.00488249 0.00468189 -0.000312739
0 -0.019692 0.000506602 -0.000535768 0.00151656 -5.67859e-05
4.51751e-22 -0.0193628 0.00368329 -6.13548e-05 0.000787928 -0.000331549
-3.38813e-22 0.019363 0.00368341 -0.00394136 0.0023041 -0.000865777
0 0.0193747 0.00398015 -0.00143934 0.000743239 -0.000351232
0 -0.019375 0.00397997 1.24258e-05 0.000241414 -0.00012103
1.35525e-20 0.0193748 0.00411568 0 0 0
-6.77626e-21 -0.0193751 0.00411583 0 0 0
0 -0.0196515 0.00282152 0.000864077 0.00141301 -0.00111544
2.71051e-20 0.0196515 0.00282158 -0.00818211 0.00453875 -0.00260112
-2.71051e-20 -0.0196711 0.00346851 0.000405388 0.000983327 -0.000701025
5.42101e-20 0.0196711 0.0034686 -0.0061951 0.00332885 -0.00178295
0 -0.0195407 0.00420391 0 0 0
-6.77626e-21 0.0195414 0.00420428 0 0 0
-1.35525e-20 0.0199999 7.50372e-14 0 0 0
-1.35525e-20 -0.02 7.50292e-14 0 0 0
-1.35525e-20 -0.02 0.000219893 -0.000231988 0.000659734 -1.84738e-05
1.35525e-20 0.02 0.000219865 -0.00217964 0.00204122 -0.000145351
2.71051e-21 -0.0196482 0.00405846 7.4788e-07 0.000359098 -0.00016663
5.42101e-21 0.0196485 0.0040588 -0.00211473 0.00112403 -0.000490552
7.05861e-23 -0.0199968 0.00175177 0.00116091 0.00136949 -0.00117526
-6.35275e-22 0.0199969 0.00175158 -0.00875871 0.00691999 -0.00214887
-2.71051e-20 0.0201205 2.66818e-14 0 0 0
2.71051e-20 -0.0201205 2.6706e-14 0 0 0
4.51751e-21 0.0201123 0.00105023 -0.00677745 0.00616643 -0.00115786
-4.51751e-21 -0.0201123 0.00105023 0.000440072 0.00125589 -0.000625837
1.8823e-22 0.0200024 0.00235162 -0.00849759 0.00544675 -0.00279377
9.41148e-23 -0.0200024 0.00235148 0.00143105 0.00110151 -0.00129191
-1.35525e-20 -0.0197164 0.0042974 0 0 0
-2.71051e-20 0.0197167 0.00429758 0 0 0
-1.12938e-21 -0.0199624 0.00315678 0.0012841 0.000852629 -0.00114451
1.12938e-21 0.0199624 0.00315685 -0.00753201 0.00387363 -0.00280144
-1.35525e-20 -0.0198178 0.00435143 0 0 0
-1.35525e-20 0.0198179 0.00435149 0 0 0
0 -0.0198553 0.00424317 9.38977e-05 0.000200227 -0.000156425
1.35525e-20 0.0198553 0.00424344 -0.0013545 0.000813822 -0.000338478
0 0.0203123 6.21673e-15 0 0 0
0 -0.0203123 6.15453e-15 0 0 0
0 0.0203177 0.000130837 -0.00135282 0.00138811 -9.27338e-05
0 -0.0203178 0.000130887 -1.81569e-05 0.000263654 -1.67176e-05
-9.41148e-22 -0.0199698 0.00385615 0.000560287 0.000526478 -0.000578035
5.64689e-22 0.0199699 0.00385623 -0.00468526 0.00233099 -0.00152504
0 -0.0202712 0.00281164 0.00230397 0.000529846 -0.00158467
0 0.0202712 0.00281169 -0.00841888 0.00434542 -0.00380287
6.77626e-21 0.0199999 0.00444852 0 0 0
0 -0.0200001 0.00444866 0 0 0
0 -0.0200603 0.00448072 0 0 0
0 0.0200605 0.00448086 0 0 0
-2.71051e-20 -0.0202704 0.00349441 0.00165916 0.00046325 -0.00122521
0 0.0202704 0.00349451 -0.00744576 0.00332767 -0.00312387
0 -0.0201016 0.00441287 6.55794e-05 0.000109216 -8.38412e-05
-3.38813e-21 0.0201022 0.00441245 -0.00106501 0.000500306 -0.000320528
-1.35525e-20 -0.0201267 0.00451611 0 0 0
6.77626e-21 0.0201275 0.00451657 0 0 0
0 -0.0202111 0.00425017 0.000301064 0.000341744 -0.000320468
7.52918e-22 0.0202112 0.00425035 -0.0034355 0.0016304 -0.00105588
-5.42101e-20 -0.0206398 0.00178223 0.00256074 0.000149258 -0.00172453
0 0.0206398 0.00178224 -0.00871044 0.00753676 -0.00277986
5.42101e-20 0.0207252 0.000539947 -0.00510347 0.00584825 -0.000358987
0 -0.0207252 0.000539947 -1.24479e-05 0.000841734 -0.000169964
-5.64689e-23 -0.0206014 0.00245361 0.002966 -2.5057e-05 -0.0018506
-1.12938e-22 0.0206014 0.00245364 -0.00845761 0.00513157 -0.00359273
0 -0.0205843 0.00315109 0.00281598 -5.52651e-05 -0.00172615
3.38813e-21 0.0205843 0.00315114 -0.0081216 0.00376554 -0.00377817
1.35525e-20 -0.0203415 0.00463057 0 0 0
-1.35525e-20 0.0203419 0.00463079 0 0 0
2.71051e-20 -0.0203948 0.00457252 0.000110631 7.73973e-05 -8.43769e-05
1.35525e-20 0.0203951 0.00457287 -0.000946668 0.000452437 -0.000250546
-4.51751e-21 -0.0205501 0.00386543 0.00174797 8.74834e-05 -0.0011107
0 0.0205501 0.0038656 -0.00621253 0.00255397 -0.00269125
-2.71051e-20 -0.0204458 0.00468612 0 0 0
0 0.020446 0.00468621 0 0 0
-4.51751e-22 -0.0206078 0.00431767 0.000942432 0.000143843 -0.000608566
-1.12938e-22 0.0206079 0.0043178 -0.00428224 0.00177913 -0.00161933
0 -0.0209209 0.00278889 0.00402149 -0.000764288 -0.00225125
0 0.0209209 0.00278892 -0.00836713 0.00430447 -0.00406799
1.35525e-20 0.0206249 0.00478151 0 0 0
0 -0.0206251 0.00478166 0 0 0
0 -0.0208847 0.00349062 0.00329566 -0.000448884 -0.0018517
2.71051e-20 0.0208848 0.00349071 -0.00828377 0.00310737 -0.00413726
0 0.0212499 5.88891e-15 0 0 0
0 -0.02125 5.846e-15 0 0 0
-1.35525e-20 0.0212499 9.47421e-05 -0.000979605 0.00100516 -6.71505e-05
-1.35525e-20 -0.02125 9.47488e-05 -1.31437e-05 0.000190858 -1.21018e-05
-3.38813e-20 -0.0207393 0.0048425 0 0 0
2.71051e-20 0.0207401 0.00484287 0 0 0
0 -0.0207851 0.00466132 0.000460885 7.22593e-05 -0.000269399
0 0.0207852 0.0046616 -0.00225238 0.000790702 -0.000815811
2.71051e-20 -0.0209257 0.00410299 0.00220762 -0.000135093 -0.00127013
0 0.0209258 0.00410311 -0.00677711 0.00241325 -0.00312931
-4.51751e-21 0.0213163 0.00115801 -0.00658694 0.00707223 -0.00143657
2.25875e-21 -0.0213163 0.00115801 0.00187711 -0.000348662 -0.0011149
-1.35525e-20 0.0213762 3.47416e-16 0 0 0
0 -0.0213763 3.52781e-16 0 0 0
-2.25875e-21 0.0212885 0.0023263 -0.00825303 0.00573061 -0.0035205
-1.12938e-21 -0.0212885 0.00232628 0.00433543 -0.00122349 -0.00228348
-2.25875e-21 -0.021208 0.00309795 0.00438901 -0.00112063 -0.00226416
2.82344e-21 0.021208 0.00309804 -0.00830299 0.00399063 -0.00409272
0 0.0214867 0.000108918 -0.00102736 0.00129633 -5.43372e-05
0 -0.0214868 0.000108929 0.000108548 7.15697e-06 -4.73575e-05
0 0.021494 4.39082e-16 0 0 0
1.35525e-20 -0.0214941 4.44414e-16 0 0 0
0 -0.0209342 0.00494631 0 0 0
-1.35525e-20 0.0209345 0.00494647 0 0 0
0 -0.0212468 0.00376747 0.00356643 -0.000767259 -0.00181697
-2.77403e-20 0.0212469 0.00376434 -0.00783798 0.00285436 -0.00390727
2.71051e-20 -0.0210473 0.00500657 0 0 0
1.35525e-20 0.0210475 0.00500662 0 0 0
1.35525e-20 -0.0210904 0.00488635 0.000436566 1.98942e-05 -0.000256877
1.35525e-20 0.0210904 0.00488661 -0.00175277 0.000712067 -0.000667411
-2.25875e-21 -0.021209 0.00450257 0.00183084 -0.000237079 -0.000936608
1.8823e-21 0.021209 0.00450263 -0.00531272 0.00176136 -0.00241027
0 -0.0216448 0.00289598 0.00603221 -0.00220343 -0.0027952
0 0.0216448 0.00289599 -0.00816418 0.00434466 -0.00415859
0 0.0212499 0.0051145 0 0 0
-1.69407e-20 -0.0212502 0.00511463 0 0 0
3.38813e-21 -0.0212808 0.00513096 0 0 0
0 0.0212811 0.00513109 0 0 0
5.42101e-20 -0.0216428 0.0033368 0.00575815 -0.00207332 -0.00264232
-2.71051e-20 0.0216428 0.00333687 -0.00830183 0.00367892 -0.00415648
0 -0.0213032 0.00509534 0.000156578 -9.35548e-06 -7.53928e-05
0 0.0213038 0.00509491 -0.000662551 0.000208008 -0.000267297
2.71051e-20 -0.0215146 0.00414921 0.00390527 -0.000902635 -0.00187349
0 0.0215147 0.00414931 -0.00822989 0.00243206 -0.00441125
-3.38813e-21 -0.0213149 0.00514909 0 0 0
0 0.0213156 0.0051495 0 0 0
-5.42101e-20 0.0219709 0.000580197 -0.0050062 0.00695891 -0.000173446
0 -0.0219709 0.000580199 0.000514919 -0.000235827 -0.00032089
-4.51751e-21 -0.0214405 0.004897 0.00111045 -0.000102002 -0.00053499
1.50584e-21 0.0214407 0.00489715 -0.00409611 0.00128927 -0.00169648
0 -0.0219196 0.00179912 0.00458813 -0.00216954 -0.00232639
0 0.0219196 0.00179913 -0.00768188 0.0079791 -0.00255696
1.41172e-22 -0.0218787 0.00244236 0.00578062 -0.00240432 -0.00268516
7.05861e-23 0.0218787 0.00244239 -0.00794845 0.00560495 -0.00350952
-2.71051e-20 -0.0218432 0.00311327 0.00636189 -0.00247819 -0.00285384
0 0.0218433 0.0031133 -0.00823595 0.00404407 -0.00407923
7.52918e-22 -0.0218301 0.0038218 0.00549266 -0.00183915 -0.00245822
-1.50584e-21 0.0218301 0.00382182 -0.00852572 0.00290388 -0.00444979
0 -0.0215576 0.00527841 0 0 0
0 0.021558 0.0052786 0 0 0
-2.71051e-20 -0.0216182 0.00521393 0.000361803 -4.54004e-05 -0.00015285
-1.35525e-20 0.0216184 0.00521423 -0.00131048 0.000387598 -0.00051123
2.71051e-20 -0.0220639 0.00288704 0.00709216 -0.00309292 -0.00309311
0 0.022064 0.00288704 -0.00793691 0.0045256 -0.00368689
-2.25875e-21 -0.0217938 0.00451153 0.0036517 -0.001044 -0.00162635
3.76158e-37 0.0217939 0.00451169 -0.00714595 0.00208328 -0.00357199
-2.71051e-20 -0.0220345 0.00332363 0.006943 -0.00280874 -0.00304128
-2.71051e-20 0.0220345 0.0033237 -0.00842977 0.00369106 -0.00418274
2.71051e-20 -0.0216749 0.00534089 0 0 0
-2.71051e-20 0.021675 0.00534096 0 0 0
2.25875e-22 -0.0218357 0.0049688 0.00201298 -0.000476555 -0.000881437
-1.35525e-21 0.0218359 0.0049689 -0.00522454 0.00153856 -0.00233688
1.35525e-20 -0.0225 -1.52821e-17 0 0 0
0 0.0225 -1.57465e-17 0 0 0
0 -0.0225 8.45373e-05 8.42418e-05 5.55437e-06 -3.67531e-05
0 0.0225 8.45231e-05 -0.000797261 0.00100599 -4.21671e-05
0 -0.0221466 0.00413235 0.00637795 -0.00227445 -0.00272047
0 0.0221467 0.00413241 -0.00893812 0.00256292 -0.00473918
6.77626e-21 0.0218749 0.00544743 0 0 0
-1.35525e-20 -0.0218752 0.00544758 0 0 0
1.35525e-20 0.0225909 4.65266e-17 0 0 0
0 -0.0225909 4.69287e-17 0 0 0
1.12938e-21 0.0225622 0.00117125 -0.00616059 0.00766357 -0.000914654
-5.64689e-21 -0.0225622 0.00117125 0.00296647 -0.00201656 -0.00137855
-3.38813e-21 -0.0219451 0.00548483 0 0 0
1.01644e-20 0.0219457 0.00548514 0 0 0
-4.51751e-21 -0.0220187 0.00530662 0.0010351 -0.000204478 -0.000446244
-4.51751e-21 0.0220188 0.00530685 -0.00309161 0.000793078 -0.00132271
-2.71051e-20 -0.0221547 0.00476019 0.00404924 -0.00125229 -0.00171257
-2.71051e-20 0.0221548 0.0047603 -0.00820355 0.00226133 -0.00403794
0 0.0226735 8.15432e-05 -0.000732703 0.00101516 7.1426e-06
0 -0.0226735 8.15576e-05 0.000138611 -0.000162128 -4.82051e-05
0 0.0226781 2.50202e-17 0 0 0
1.35525e-20 -0.0226781 2.52055e-17 0 0 0
3.38813e-21 -0.0225519 0.00239249 0.00685385 -0.00364683 -0.00288011
1.12938e-21 0.0225519 0.00239251 -0.00754802 0.00627564 -0.0023179
-5.64689e-22 -0.0224875 0.00303825 0.00774597 -0.00367607 -0.00315237
0 0.0224874 0.00303838 -0.00782468 0.00441119 -0.00302604
1.27055e-21 -0.0224629 0.00366675 0.00756975 -0.00323833 -0.00304852
0 -0.0225 0.00357657 0.00772399 -0.0033782 -0.00310096
3.5293e-22 0.0224954 0.00364647 -0.00839907 0.00320724 -0.00388904
4.23516e-22 -0.0225054 0.00366219 0.00770158 -0.00332615 -0.00308646
1.69407e-21 -0.0225 0.00370544 0.00761769 -0.00327156 -0.00305302
-1.35525e-20 -0.0221583 0.00559842 0 0 0
1.35525e-20 0.0221586 0.00559854 0 0 0
8.47033e-22 -0.0225595 0.00366878 0.00790923 -0.00347294 -0.00313017
-4.51751e-21 -0.0224493 0.00445918 0.00632556 -0.00240432 -0.00254141