# U  POINT_DATA 52043
# x  y  z  U_x  U_y  U_z
0.014142 -1.35525e-20 8.40343e-08 0 0 0
-0.014142 1.35525e-20 8.40343e-08 0 0 0
-0.014142 -6.77626e-21 0.000246014 0 0 0
0.014142 0 0.000246007 0 0 0
-0.014142 6.77626e-21 0.000413822 0 0 0
0.014142 -6.77626e-21 0.000413834 0 0 0
-0.014142 -1.35525e-20 0.000659755 0 0 0
0.014142 0 0.000659755 0 0 0
-0.014142 3.38813e-21 0.000918791 0 0 0
0.014142 6.77626e-21 0.000918788 0 0 0
0.014142 0 0.00109554 0 0 0
-0.014142 1.01644e-20 0.00109555 0 0 0
0.014142 1.35525e-20 0.00135458 0 0 0
-0.014142 1.35525e-20 0.00135458 0 0 0
0.014142 -1.01644e-20 0.00162764 0 0 0
-0.014142 3.38813e-21 0.00162762 0 0 0
-0.014252 0 0.000123103 -4.52375e-06 6.09141e-06 1.13591e-06
0.014252 -1.35525e-20 0.00012308 -1.9988e-06 3.85777e-06 -8.07519e-07
-0.0142534 0 8.87869e-08 0 0 0
0.0142534 -1.35525e-20 8.87839e-08 0 0 0
0.014142 3.38813e-21 0.00181395 0 0 0
-0.014142 0 0.00181396 0 0 0
-0.014252 0 0.000530071 -4.52389e-06 6.09161e-06 1.13595e-06
0.014252 0 0.000530089 -1.99877e-06 3.85771e-06 -8.07506e-07
-0.0142482 0 0.00077532 -0.000536214 0.000550305 -1.92225e-06
0.0142482 1.35525e-20 0.00077531 -0.000337021 0.000377562 -7.46231e-06
0.014142 -1.35525e-20 0.002087 0 0 0
-0.014142 1.35525e-20 0.002087 0 0 0
-0.0142482 0 0.00119849 -0.000536189 0.000550279 -1.92216e-06
0.0142482 0 0.00119848 -0.00033704 0.000377584 -7.46274e-06
0.0142438 0 0.00144431 -0.000373266 0.000414822 1.76951e-05
-0.0142438 1.35525e-20 0.00144431 -0.000560024 0.000568693 -1.16587e-05
0.0142438 1.35525e-20 0.00188165 -0.000373251 0.000414805 1.76943e-05
-0.0142438 0 0.00188166 -0.000560032 0.000568702 -1.16588e-05
0.014376 -1.35525e-20 9.02284e-08 0 0 0
-0.014376 0 9.023e-08 0 0 0
0.0143755 1.35525e-20 0.000639268 -0.000385496 0.000382816 -2.5984e-08
-0.0143755 0 0.000639267 -0.000595703 0.000588011 -4.99625e-06
-0.0142629 6.77626e-21 0.00213232 0 0 0
0.0142629 6.77626e-21 0.00213231 0 0 0
-0.0143002 -1.35525e-20 0.00203592 -0.000573641 0.000591577 8.01834e-07
0.0143002 0 0.00203591 -0.000350133 0.000388924 2.96601e-06
-0.0144129 -1.35525e-20 0.000955929 -0.00140543 0.00137669 -1.58241e-05
0.0144129 0 0.000955927 -0.000878402 0.00090363 -4.22924e-06
0.0143941 1.35525e-20 0.00157783 -0.000934561 0.000958523 -1.61119e-06
-0.0143941 1.35525e-20 0.00157784 -0.0014196 0.00139016 7.87856e-06
-0.0143749 6.77626e-21 0.00187281 -0.00113015 0.00111692 -1.06307e-06
0.0143749 6.77626e-21 0.0018728 -0.000827606 0.000823999 -4.33405e-06
-0.0144696 -4.51751e-21 0.00124267 -0.00174736 0.00170776 2.35841e-06
0.0144696 4.51751e-21 0.00124266 -0.00123034 0.00121957 -4.71914e-06
-0.014375 0 0.00217431 0 0 0
0.014375 0 0.00217432 0 0 0
-0.0145418 0 0.000318554 -0.000183415 0.0001831 8.71074e-07
0.0145418 -6.77626e-21 0.000318551 -0.00011019 0.000108725 3.93369e-06
-0.0145497 1.35525e-20 9.54658e-08 0 0 0
0.0145497 -1.35525e-20 9.54632e-08 0 0 0
-0.0145347 -1.35525e-20 0.000782523 -0.00136618 0.00131839 -1.75598e-05
0.0145347 1.35525e-20 0.000782537 -0.000866709 0.000845667 3.65882e-06
-0.0145148 1.35525e-20 0.00222669 0 0 0
0.0145148 -1.35525e-20 0.00222669 0 0 0
0.0146121 1.93608e-21 0.00162981 -0.00157708 0.00156023 -1.20491e-05
-0.0146121 7.7443e-21 0.00162982 -0.00220098 0.00215737 1.21682e-05
-0.0145852 1.05879e-22 0.00194555 -0.00163339 0.0014953 3.68996e-05
0.0145837 -4.87044e-21 0.00194477 -0.0010839 0.001015 2.67618e-05
-0.0147196 0 1.04732e-07 0 0 0
0.0147196 0 1.0473e-07 0 0 0
0.0146004 -1.27055e-21 0.00194655 -0.0011072 0.00104206 2.62284e-05
-0.0146005 2.0117e-21 0.00194659 -0.00166939 0.00153033 3.77918e-05
-0.0147092 0 0.000900995 -0.0022624 0.00210477 -4.99801e-05
0.0147092 4.51751e-21 0.000900993 -0.00156784 0.00138175 5.07695e-05
-0.0145873 -8.13152e-20 0.00225387 0 0 0
0.0145873 0 0.00225387 0 0 0
-0.0146975 -2.25875e-21 0.00143127 -0.00273309 0.00255851 5.23528e-05
0.0146975 2.25875e-21 0.00143126 -0.00210732 0.00182216 -5.60727e-05
-0.0148082 0 0.000136903 -8.19303e-05 4.41254e-05 1.586e-05
0.0148083 -1.35525e-20 0.000136875 -3.37016e-06 1.47421e-06 9.47213e-06
-0.0148167 2.71051e-20 9.37179e-08 0 0 0
0.0148167 0 9.37183e-08 0 0 0
-0.0148641 -1.35525e-20 8.83354e-08 0 0 0
0.0148641 -1.35525e-20 8.83376e-08 0 0 0
-0.0148598 -1.29072e-21 0.000624026 -0.00164311 0.00156606 1.47492e-05
0.0148598 -2.58143e-21 0.000624027 -0.0010334 0.000972853 2.34309e-05
-0.0148447 3.26265e-21 0.00116603 -0.00297889 0.00288992 2.78377e-05
0.0148447 -2.25875e-21 0.00116603 -0.00211981 0.00205781 2.99123e-05
0.0147327 4.06576e-20 0.00230835 0 0 0
-0.0147327 0 0.00230836 0 0 0
0.0148335 7.52918e-21 0.0015921 -0.00224061 0.0021445 -1.88839e-06
-0.0148335 -3.01167e-21 0.00159211 -0.00305227 0.00293925 3.35996e-05
0.015 1.35525e-20 7.4908e-08 0 0 0
-0.015 -1.35525e-20 7.49029e-08 0 0 0
-0.0149884 1.50584e-21 0.00205342 -0.00234761 0.00220617 5.37907e-05
0.0149884 1.22349e-21 0.00205341 -0.0015679 0.00159958 7.49497e-06
-0.015176 2.25875e-21 0.000230687 -0.000473855 0.000429241 7.68988e-06
0.015176 6.77626e-21 0.000230679 -0.0001036 9.36018e-05 -4.70113e-07
0.015 -3.38813e-21 0.00240854 0 0 0
-0.015 0 0.00240855 0 0 0
-0.0152021 -4.51751e-21 0.000843378 -0.00314931 0.00302706 8.92708e-05
0.0152021 4.51751e-21 0.000843372 -0.00201168 0.00190305 6.89031e-05
-0.0150379 0 0.00242273 0 0 0
0.0150379 -3.38813e-21 0.00242272 0 0 0
-0.0152016 4.51751e-21 0.0014348 -0.00420966 0.00406746 6.05935e-05
0.0152016 -4.51751e-21 0.00143479 -0.00296588 0.00291934 8.41639e-05
-0.0152989 0 2.20825e-08 0 0 0
0.015299 0 2.20806e-08 0 0 0
0.0151247 0 0.00245524 0 0 0
-0.0151247 -3.38813e-21 0.00245526 0 0 0
0.0153962 -2.71051e-20 0.000531794 -0.0011758 0.00109653 4.41808e-05
-0.0153962 -2.71051e-20 0.000531794 -0.00186311 0.00178364 3.33191e-05
-0.0154492 -1.35525e-20 8.76993e-09 0 0 0
0.0154492 -2.71051e-20 8.76964e-09 0 0 0
0.0154139 0 0.00109981 -0.00301522 0.00292101 9.53704e-05
-0.0154139 -2.71051e-20 0.00109982 -0.00411961 0.00397084 5.46853e-05
-0.0152781 0 0.00251266 0 0 0
0.0152781 6.77626e-21 0.00251265 0 0 0
0.015387 -2.71051e-20 0.00178913 -0.00298746 0.00297062 1.94693e-05
-0.015387 2.71051e-20 0.00178913 -0.00392451 0.00375518 6.8953e-05
-0.0153098 0 0.00239462 -0.00110071 0.000970375 3.3249e-05
0.0153098 3.38813e-21 0.00239458 -0.000762769 0.00074002 -6.94698e-06
-0.015387 -2.25875e-21 0.00225338 -0.00242215 0.00215793 6.98096e-05
0.015387 0 0.00225337 -0.00166795 0.00162923 -1.52766e-05
0.0156089 -1.35525e-20 7.21547e-09 0 0 0
-0.0156089 0 7.21529e-09 0 0 0
0.0154678 0 0.00258382 0 0 0
-0.0154678 -1.35525e-20 0.00258382 0 0 0
-0.0156827 6.77626e-21 0.00072818 -0.00352607 0.0033333 -0.000130066
0.0156827 -6.77626e-21 0.000728171 -0.00234599 0.00210798 0.00031285
0.0157226 -1.12938e-21 0.000233621 -0.000205653 0.000162893 -6.31422e-05
-0.0157226 -3.38813e-21 0.000233615 -0.000479692 0.000446507 2.95499e-05
0.0157188 4.51751e-21 0.00143117 -0.00437707 0.00427766 0.000106259
-0.0157188 1.12938e-20 0.00143117 -0.00556142 0.00532751 9.12828e-05
-0.0156648 -1.69407e-21 0.00226708 -0.00307373 0.00285088 8.09317e-05
0.0156648 0 0.00226708 -0.0022403 0.00222267 -2.56537e-05
-0.015625 1.35525e-20 0.00254192 -0.000970945 0.000882818 3.34412e-05
0.0156251 0 0.00254193 -0.000759225 0.000709966 -3.01804e-05
-0.015625 -2.03288e-20 0.00264258 0 0 0
0.015625 1.35525e-20 0.00264259 0 0 0
-0.015761 -9.03502e-21 0.00197935 -0.00463951 0.00436126 0.000101609
0.0157611 0 0.00197935 -0.00360104 0.00358873 1.96523e-05
0.0159582 0 4.57718e-09 0 0 0
-0.0159583 -1.35525e-20 4.57567e-09 0 0 0
-0.0157606 0 0.00269322 0 0 0
0.0157606 -4.06576e-20 0.00269323 0 0 0
-0.0158055 -2.71051e-21 0.0025037 -0.00199292 0.00184003 6.31652e-05
0.0158056 2.71051e-21 0.00250371 -0.00146536 0.00141095 -5.44392e-05
-0.0160275 -4.06576e-20 0.000416984 -0.00200738 0.00183494 -3.3841e-05
0.0160275 6.77626e-21 0.000416987 -0.00124471 0.00109302 3.22034e-05
0.0160955 -1.35525e-20 3.28682e-09 0 0 0
-0.0160956 0 3.28517e-09 0 0 0
0.0161395 -1.35525e-20 0.000104149 -0.00041298 0.00035001 1.72952e-05
-0.0161396 0 0.000104133 -0.000674884 0.00059188 -2.86877e-05
0.0160615 0 0.00176843 -0.00504119 0.00498906 1.33099e-05
-0.0160615 0 0.00176842 -0.00574107 0.00542728 0.000117321
-0.0161376 1.50584e-21 0.000847369 -0.00440887 0.00416305 1.82869e-05
0.0161376 -9.78794e-21 0.000847386 -0.00337397 0.00321207 0.0001006
0.01616 -1.35525e-20 3.02629e-09 0 0 0
-0.01616 -1.35525e-20 3.02459e-09 0 0 0
-0.0159592 2.71051e-20 0.00276747 0 0 0
0.0159593 -2.71051e-20 0.00276748 0 0 0
-0.0160632 -1.35525e-20 0.00225586 -0.00432107 0.00400912 0.00012247
0.0160632 -1.35525e-20 0.00225589 -0.00378313 0.00368973 -7.28049e-05
0.0162499 0 2.49196e-09 0 0 0
-0.01625 -1.35525e-20 2.49049e-09 0 0 0
0.0163213 8.13152e-21 0.00143843 -0.00609379 0.00605922 9.68474e-05
-0.0163214 -1.0842e-20 0.0014384 -0.00687264 0.00653722 0.000112022
-0.0163246 0 0.0019752 -0.00639386 0.00599869 0.000163513
0.0163246 8.13152e-21 0.00197521 -0.0061213 0.00603425 -7.03398e-05
-0.01625 1.69407e-20 0.00287738 0 0 0
0.0162501 -3.38813e-20 0.00287742 0 0 0
0.0165397 2.37169e-20 1.49551e-09 0 0 0
-0.0165398 1.01644e-20 1.49503e-09 0 0 0
0.0165485 0 0.000259443 -0.00105807 0.000889907 -4.75719e-05
-0.0165486 0 0.00025939 -0.00169348 0.00155342 6.46374e-06
-0.0162993 2.03288e-20 0.00289583 0 0 0
0.0162996 -3.04932e-20 0.00289591 0 0 0
-0.0163628 -2.25875e-21 0.0026102 -0.00308779 0.00281364 0.000117139
0.0163629 4.51751e-21 0.00261026 -0.00299616 0.00276739 -0.000157101
0.016602 2.03288e-20 1.39857e-09 0 0 0
-0.0166022 -1.01644e-20 1.39777e-09 0 0 0
0.0167779 1.17455e-20 0.000788065 -0.00427518 0.00413192 -3.41467e-06
-0.0167779 -1.807e-21 0.000788044 -0.00485879 0.00457817 8.07746e-05
0.0168224 0 8.07643e-10 0 0 0
-0.0168225 -1.35525e-20 8.07608e-10 0 0 0
-0.016756 6.77626e-21 0.00167756 -0.0077076 0.00725464 0.000155282
0.016756 4.51751e-21 0.00167758 -0.00784033 0.00781188 -3.24306e-05
-0.0165907 0 0.00300593 0 0 0
0.0165909 -2.71051e-20 0.00300602 0 0 0
-0.0167321 -4.51751e-21 0.00229258 -0.00621047 0.00575547 0.000170775
0.0167321 -4.51751e-21 0.00229264 -0.006749 0.00659278 -0.000156354
0.0169397 -1.35525e-20 0.000139012 -0.000698332 0.000617147 -2.00689e-05
-0.0169397 0 0.000138902 -0.00100513 0.000996107 2.15483e-05
-0.0169619 -1.35525e-20 4.50845e-10 0 0 0
0.0169619 0 4.50833e-10 0 0 0
0.017069 -1.35525e-20 0.00034548 -0.00208093 0.00179973 -6.76903e-05
-0.017069 1.35525e-20 0.000345515 -0.00272868 0.00258863 4.34075e-05
-0.0168154 2.71051e-20 0.00309174 0 0 0
0.0168157 2.03288e-20 0.00309186 0 0 0
-0.0170882 0 0.00125548 -0.00843343 0.0079635 0.000129885
0.0170883 -2.71051e-20 0.00125549 -0.00853437 0.00859395 4.62685e-06
-0.016875 -1.01644e-20 0.00299682 -0.00129148 0.00113994 5.4964e-05
0.0168752 -1.01644e-20 0.00299705 -0.00145057 0.0013231 -7.2793e-05
-0.016875 0 0.00311456 0 0 0
0.0168752 -3.38813e-21 0.00311463 0 0 0
-0.0169715 -3.38813e-21 0.0027608 -0.00405196 0.00360266 0.0001619
0.0169716 -3.38813e-21 0.00276088 -0.00455099 0.00419786 -0.000218146
-0.0170765 0 0.00207965 -0.00843957 0.00786083 0.000191098
0.0170765 2.71051e-20 0.00207967 -0.00991585 0.00988907 -0.000150736
-0.017311 -2.03288e-20 7.14894e-11 0 0 0
0.0173114 0 7.13597e-11 0 0 0
-0.0170892 -4.06576e-20 0.00319641 0 0 0
0.0170896 0 0.00319653 0 0 0
-0.0174107 -6.77626e-21 5.81532e-05 -0.000506325 0.000458524 5.20577e-06
0.0174108 0 5.80005e-05 -0.000420403 0.000356855 -1.50284e-05
-0.0173964 4.51751e-21 0.000777676 -0.00568448 0.00527845 5.45425e-05
0.0173964 2.25875e-21 0.000777666 -0.00552015 0.00535753 -4.44145e-05
-0.0174228 0 5.17295e-11 0 0 0
0.0174229 0 5.16506e-11 0 0 0
0.0174572 6.77626e-21 4.88994e-11 0 0 0
-0.0174572 -6.77626e-21 4.89702e-11 0 0 0
-0.0174069 2.25875e-21 0.00167765 -0.00895178 0.00834673 0.000156436
0.017407 2.25875e-21 0.00167766 -0.0103451 0.010474 -0.000142523
0.0175 0 4.74701e-11 0 0 0
0.0175 0 5.73648e-05 -0.000480923 0.000398966 -1.45759e-05
-0.0175001 0 4.75352e-11 0 0 0
-0.0175001 6.77626e-21 5.75034e-05 -0.000552138 0.00049133 5.28848e-07
-0.0172483 0 0.00325639 0 0 0
0.0172486 1.35525e-20 0.00325649 0 0 0
-0.0172998 -2.71051e-20 0.00306964 -0.00233298 0.0019209 0.000112917
0.0173001 0 0.00306981 -0.00277253 0.00237765 -0.000234356
-0.0174323 1.69407e-21 0.00258936 -0.00620708 0.00559735 0.000179529
0.0174324 -1.12938e-21 0.0025894 -0.0076158 0.00725436 -0.000335512
-0.0174579 0 0.00333599 0 0 0
0.0174583 1.69407e-21 0.00333616 0 0 0
-0.0177431 0 0.00123883 -0.00921107 0.00857744 0.000100008
0.0177432 -5.42101e-20 0.00123884 -0.0100561 0.0103582 -0.000102755
-0.0174808 1.69407e-21 0.00332482 -0.000224544 0.000184882 1.0868e-05
0.017481 0 0.00332506 -0.000265188 0.000227418 -2.24158e-05
-0.0174846 1.69407e-21 0.00334611 0 0 0
0.0174848 0 0.00334621 0 0 0
-0.0178054 0 0.000414179 -0.00374618 0.00334626 -2.5492e-05
0.0178055 0 0.000414187 -0.00317723 0.00264489 -2.63145e-05
-0.0175001 0 0.00332274 -0.000308035 0.00026557 1.13659e-05
0.0175002 0 0.00332299 -0.000371385 0.000317676 -3.27833e-05
-0.0175001 1.69407e-21 0.00334231 -0.000113415 9.52395e-05 5.36947e-06
0.0175002 3.38813e-21 0.00334243 -0.000138194 0.000105232 -1.84e-05
-0.0175001 0 0.00335193 0 0 0
0.0175002 0 0.00335199 0 0 0
0.0178186 3.38813e-21 2.6307e-11 0 0 0
-0.0178194 3.38813e-21 2.62871e-11 0 0 0
-0.0177187 2.71051e-20 0.00210757 -0.00981834 0.00907407 0.000202615
0.0177188 -2.71051e-20 0.0021076 -0.0129962 0.0131887 -0.000307911
-0.0176383 9.03502e-21 0.00303865 -0.00394579 0.00341898 0.000149671
0.0176385 0 0.00303873 -0.00449721 0.00387556 -0.000381024
-0.0176486 0 0.00304387 -0.00395966 0.00343533 0.000148933
0.0176488 0 0.00304395 -0.0045152 0.00389071 -0.000383072
-0.0177861 1.35525e-20 0.00345972 0 0 0
0.0177863 -1.35525e-20 0.00345982 0 0 0
0.0181318 0 5.25144e-05 -0.000362201 0.000302885 7.5303e-06
-0.0181318 -6.77626e-21 5.23832e-05 -0.000442089 0.000396741 -7.25114e-06
0.0181327 0 7.40306e-12 0 0 0
-0.0181328 0 7.40812e-12 0 0 0
-0.0180579 -1.12938e-21 0.00168517 -0.00992218 0.00915891 0.000121795
0.018058 3.38813e-21 0.00168519 -0.0124516 0.0129052 -0.000340618
-0.0181177 -1.8823e-22 0.000826258 -0.00658222 0.00599153 2.56703e-05
0.0181178 -4.70574e-22 0.000826333 -0.00691787 0.00695359 -0.000178711
-0.0178474 -2.71051e-20 0.00337592 -0.00125991 0.00105801 5.9649e-05
0.0178475 -1.35525e-20 0.00337606 -0.00154457 0.00117616 -0.000205653
-0.0181788 0 1.20998e-12 0 0 0
0.0181789 -6.77626e-21 1.20234e-12 0 0 0
-0.0180132 -9.03502e-21 0.0025453 -0.00792426 0.00716915 0.000168756
0.0180133 4.51751e-21 0.00254538 -0.0106254 0.0102498 -0.00054871
-0.018224 6.77626e-21 6.67961e-05 -0.00062555 0.000544981 -2.94495e-06
0.0182242 0 6.69571e-05 -0.000530639 0.000485977 -1.61901e-05
-0.0182303 0 9.60874e-13 0 0 0
0.0182306 0 9.55329e-13 0 0 0
-0.0179205 -2.71051e-20 0.00351035 0 0 0
0.0179207 0 0.00351043 0 0 0
-0.0180629 4.06576e-21 0.00308315 -0.00480424 0.00416776 0.000177263
0.0180631 9.03502e-22 0.00308322 -0.00620165 0.00528036 -0.00057437
-0.0184105 -2.71051e-20 0.00127258 -0.00983611 0.00902073 5.29564e-05
0.0184105 -5.42101e-20 0.00127259 -0.0116102 0.0123519 -0.000425111
-0.018125 -6.77626e-21 0.00358731 0 0 0
0.0181251 6.77626e-21 0.00358737 0 0 0
-0.0183578 5.42101e-20 0.0021071 -0.0108316 0.00997418 0.000130331
0.0183579 0 0.00210715 -0.0150969 0.0156761 -0.00051498
-0.018476 -2.71051e-20 0.000447745 -0.00435832 0.00378724 -1.87388e-05
0.0184761 2.71051e-20 0.000447774 -0.0037441 0.00336113 -0.000163861
-0.0182327 -3.38813e-20 0.00362784 0 0 0
0.0182331 -2.03288e-20 0.00362801 0 0 0
-0.0182772 -9.03502e-21 0.0034369 -0.00226155 0.0019019 0.000141072
0.0182774 1.807e-20 0.00343704 -0.00292864 0.00216981 -0.000400886
-0.018396 2.71051e-20 0.00281574 -0.00787099 0.00701939 0.000189943
0.0183961 0 0.00281581 -0.0108756 0.00976022 -0.000822438
0.01875 0 4.62891e-13 0 0 0
-0.0187501 0 4.6467e-13 0 0 0
0.01875 0 9.91689e-05 -0.000785919 0.000719771 -2.39788e-05
-0.0187501 6.77626e-21 9.90278e-05 -0.000927401 0.000807955 -4.366e-06
-0.0187024 3.10579e-21 0.00167427 -0.0103689 0.00944643 6.40097e-05
0.0187024 -1.97641e-21 0.00167431 -0.0133095 0.0142335 -0.00063554
-0.0184518 -1.35525e-20 0.00371033 0 0 0
0.0184522 1.35525e-20 0.00371046 0 0 0
0.0188247 0 9.24778e-14 0 0 0
-0.0188248 -1.35525e-20 9.05194e-14 0 0 0
-0.0188281 -4.51751e-21 0.000901811 -0.00727569 0.00647497 1.58305e-05
0.0188281 0 0.000901813 -0.00792381 0.008375 -0.000453765
-0.0188891 0 9.99751e-05 -0.000953633 0.000798177 -2.50481e-06
0.0188891 0 0.000100089 -0.000843367 0.000842595 -6.42601e-05
-0.0187325 -2.82344e-22 0.00243398 -0.00962315 0.00871183 0.00011447
0.0187326 5.64689e-22 0.00243401 -0.013461 0.0133277 -0.000811329
-0.0188926 0 7.49551e-14 0 0 0
0.0188926 -1.35525e-20 7.69428e-14 0 0 0
-0.0185639 1.35525e-20 0.00375412 0 0 0
0.0185642 2.71051e-20 0.00375424 0 0 0
-0.0185985 0 0.00364208 -0.00147937 0.00117134 9.06619e-05
0.0185987 -2.71051e-20 0.00364225 -0.00197327 0.00131905 -0.000312854
-0.0187022 0 0.00323478 -0.00534241 0.00466845 0.000149574
0.0187024 -1.12938e-21 0.00323486 -0.00733879 0.0060571 -0.000761313
-0.01875 0 0.00382122 0 0 0
0.0187502 0 0.00382131 0 0 0
0.0191944 6.77626e-21 6.30458e-14 0 0 0
-0.0191946 -6.77626e-21 6.21199e-14 0 0 0
-0.0192061 -2.71051e-20 0.000471782 -0.00463104 0.00384056 9.26817e-08
0.0192062 0 0.000471778 -0.00408443 0.00413237 -0.000360606
-0.0191595 -2.71051e-20 0.00145141 -0.0106319 0.00956947 -1.09418e-05
0.0191595 -2.71051e-20 0.00145142 -0.012955 0.0144725 -0.00100785
-0.0188263 0 0.00385065 0 0 0
0.0188267 6.77626e-21 0.00385081 0 0 0
-0.0190077 -2.71051e-20 0.00284643 -0.00903407 0.00816443 7.6237e-05
0.0190078 5.42101e-20 0.0028465 -0.0132496 0.0121793 -0.00102697
-0.019139 0 0.00196722 -0.0113498 0.0102573 1.24728e-06
0.019139 5.42101e-20 0.00196726 -0.0154088 0.016827 -0.00100476
-0.0188699 0 0.00376892 -0.00115882 0.000997562 4.13096e-05
0.0188703 0 0.0037689 -0.0014014 0.000930688 -0.000198298
-0.0189588 0 0.00362259 -0.00324273 0.00278303 0.000112495
0.0189592 -6.02335e-21 0.00362275 -0.00404188 0.00270056 -0.000594138
-0.0189237 1.35525e-20 0.00389016 0 0 0
0.0189243 -1.35525e-20 0.00389043 0 0 0
-0.0193514 0 0.0017103 -0.0111308 0.0100031 -2.32603e-05
0.0193515 2.71051e-20 0.00171031 -0.0143379 0.0160575 -0.00106452
-0.0194092 0 0.000938181 -0.00749009 0.00653265 1.44353e-06
0.0194092 1.31761e-21 0.000938235 -0.00824859 0.00923217 -0.000677629
-0.0194666 0 1.03845e-13 0 0 0
0.0194668 0 1.03775e-13 0 0 0
-0.0194676 0 3.86909e-05 -0.000404283 0.00032881 2.23737e-06
0.0194678 0 3.88215e-05 -0.000356595 0.000370228 -4.05123e-05
-0.0193306 2.25875e-21 0.00249036 -0.0103463 0.00935313 6.59284e-06
0.0193307 -7.52918e-22 0.00249038 -0.0146162 0.0147214 -0.00118621
-0.019126 0 0.00398495 0 0 0
0.0191265 0 0.00398518 0 0 0
-0.0192996 4.51751e-21 0.00322408 -0.00690822 0.00617104 5.0735e-05
0.0192998 2.25875e-21 0.00322419 -0.00968394 0.00817603 -0.00112336
-0.0191703 -1.35525e-20 0.00393445 -0.000779664 0.000665058 3.73154e-05
0.0191707 0 0.00393471 -0.000968806 0.000589999 -0.000198892
-0.0195792 2.71051e-20 0.00146063 -0.0108861 0.00969948 -5.7651e-05
0.0195792 5.42101e-20 0.00146063 -0.0134026 0.0154488 -0.00112117
-0.0192183 1.35525e-20 0.00403232 0 0 0
0.0192187 0 0.00403252 0 0 0
-0.0195391 2.71051e-20 0.00196502 -0.0117346 0.0105726 -7.03973e-05
0.0195391 0 0.00196506 -0.0156879 0.0176039 -0.00123675
-0.0196412 0 8.2824e-14 0 0 0
0.0196418 0 8.26879e-14 0 0 0
-0.019692 -2.71051e-20 0.0005066 -0.00514491 0.004212 -2.59196e-06
0.019692 -2.71051e-20 0.000506622 -0.00421085 0.00464635 -0.000524241
-0.0193632 2.25875e-22 0.00368353 -0.00406702 0.00353213 0.000105644
0.0193636 1.12938e-22 0.00368367 -0.00529156 0.00358093 -0.000893994
-0.0193748 -1.35525e-20 0.00398025 -0.00132604 0.00117423 5.68593e-05
0.0193751 1.35525e-20 0.00398046 -0.00156855 0.000913781 -0.000326691
-0.0193749 -6.77626e-21 0.00411562 0 0 0
0.0193752 -1.35525e-20 0.00411575 0 0 0
-0.0196516 0 0.00282164 -0.0102962 0.00933679 -4.50823e-05
0.0196518 2.71051e-20 0.0028217 -0.0148315 0.0143402 -0.0014895
-0.0196713 -2.71051e-20 0.00346867 -0.00659803 0.00590545 3.28656e-05
0.0196715 -5.42101e-20 0.00346879 -0.00885274 0.00640046 -0.00138349
-0.0195416 1.35525e-20 0.00420424 0 0 0
0.0195422 2.03288e-20 0.00420454 0 0 0
-0.02 1.35525e-20 7.5021e-14 0 0 0
0.0200001 1.35525e-20 7.4999e-14 0 0 0
-0.02 -2.71051e-20 0.000219861 -0.00221133 0.00181446 -5.74575e-06
0.0200001 -1.35525e-20 0.000219807 -0.00176279 0.00198907 -0.000226807
-0.0196486 2.71051e-21 0.00405876 -0.00196934 0.00172208 9.29077e-05
0.019649 -1.0842e-20 0.00405903 -0.00234218 0.00135713 -0.000504584
0.019997 1.41172e-22 0.00175126 -0.0145712 0.0169239 -0.00135808
-0.019997 0 0.00175132 -0.0114525 0.0101372 -7.48823e-05
0.0201205 0 2.66712e-14 0 0 0
-0.0201205 0 2.67431e-14 0 0 0
-0.0201124 0 0.00105022 -0.0082291 0.00697103 -2.22448e-05
0.0201124 -2.25875e-21 0.00105024 -0.00888425 0.0105329 -0.000964766
-0.0200024 -3.76459e-22 0.00235173 -0.0109801 0.00984571 -0.00010438
0.0200025 -9.41148e-23 0.0023518 -0.0151027 0.0160646 -0.00156397
-0.0197167 0 0.00429743 0 0 0
0.0197172 1.35525e-20 0.00429767 0 0 0
-0.0199625 1.12938e-21 0.00315688 -0.00887573 0.00804724 -8.44631e-05
0.0199626 1.12938e-21 0.00315696 -0.0123188 0.0110899 -0.00162284
-0.0198179 1.35525e-20 0.00435132 0 0 0
0.0198183 0 0.00435153 0 0 0
-0.0198553 -2.71051e-20 0.00424327 -0.00122291 0.00104033 5.32012e-05
0.0198557 1.35525e-20 0.00424354 -0.00135887 0.000700805 -0.000281798
0.0203123 -2.71051e-20 6.21449e-15 0 0 0
-0.0203124 -2.71051e-20 6.14666e-15 0 0 0
0.0203177 0 0.000130802 -0.000919327 0.00119348 -0.000140458
-0.0203178 0 0.000130833 -0.00130088 0.000977895 8.41827e-06
-0.01997 -5.64689e-22 0.00385617 -0.00462586 0.00415134 4.85944e-05
0.0199702 9.41148e-22 0.00385631 -0.00572496 0.00379748 -0.00104808
-0.0202712 2.71051e-20 0.00281169 -0.0108688 0.00984432 -0.00022901
0.0202713 2.71051e-20 0.00281174 -0.0156506 0.0161487 -0.0018821
-0.0199999 0 0.00444833 0 0 0
0.0200001 0 0.00444847 0 0 0
-0.0200605 0 0.00448064 0 0 0
0.0200609 0 0.00448086 0 0 0
-0.0202705 0 0.00349446 -0.00794859 0.00729847 -0.000109719
0.0202706 -2.71051e-20 0.00349456 -0.0102676 0.00790304 -0.00175839
-0.0201021 0 0.00441229 -0.000859425 0.00078045 1.8027e-05
0.0201026 0 0.00441233 -0.000917469 0.000449547 -0.000184035
-0.0201274 1.35525e-20 0.00451629 0 0 0
0.020128 -6.77626e-21 0.00451661 0 0 0
-0.0202112 -3.76459e-21 0.00425016 -0.00285062 0.00258963 5.13896e-05
0.0202116 0 0.00425037 -0.0030366 0.00151646 -0.000594544
-0.0206399 -5.42101e-20 0.00178222 -0.0119795 0.0103639 -0.000137584
0.0206399 -5.42101e-20 0.00178223 -0.0147612 0.0181145 -0.00180454
0.0207253 -5.42101e-20 0.000539941 -0.00404024 0.00525291 -0.000709462
-0.0207253 -5.42101e-20 0.000539939 -0.00556723 0.00413463 6.66931e-05
-0.0206015 0 0.00245364 -0.0114218 0.0101876 -0.000206681
0.0206016 -3.38813e-22 0.00245367 -0.0154807 0.017085 -0.00198665
-0.0205843 1.12938e-21 0.00315111 -0.00986274 0.00899394 -0.000200642
0.0205844 1.12938e-21 0.00315116 -0.0132436 0.0127714 -0.00196987
-0.0203417 1.35525e-20 0.00463048 0 0 0
0.0203423 1.35525e-20 0.00463076 0 0 0
-0.0203949 -1.35525e-20 0.00457254 -0.000801495 0.000726572 2.36402e-05
0.0203954 0 0.00457285 -0.000718689 0.000398121 -0.000114454
-0.0205502 0 0.00386547 -0.00617127 0.00571236 -6.36476e-05
0.0205503 -2.25875e-21 0.00386562 -0.00730654 0.0051278 -0.00133077
-0.0204458 0 0.00468592 0 0 0
0.0204463 0 0.00468616 0 0 0
-0.0206078 -5.64689e-22 0.0043176 -0.00373525 0.00342259 4.16463e-05
0.0206081 1.12938e-22 0.00431777 -0.0038299 0.00200454 -0.00072342
-0.0209209 5.42101e-20 0.00278889 -0.0116446 0.0104481 -0.000260478
0.020921 0 0.00278892 -0.0158486 0.0174117 -0.00226381
-0.0206248 6.77626e-21 0.0047813 0 0 0
0.0206252 6.77626e-21 0.00478146 0 0 0
-0.0208848 -2.71051e-20 0.00349061 -0.00908506 0.00845993 -0.000205111
0.0208849 -2.71051e-20 0.0034907 -0.0113758 0.00988621 -0.00197575
0.0212501 -1.35525e-20 5.88478e-15 0 0 0
-0.0212501 0 5.83891e-15 0 0 0
0.0212501 0 9.46703e-05 -0.000665378 0.000863804 -0.000101659
-0.0212501 0 9.4684e-05 -0.000941446 0.000707701 6.09229e-06
-0.0207397 -6.77626e-21 0.00484247 0 0 0
0.0207403 0 0.00484278 0 0 0
-0.0207851 4.51751e-21 0.00466127 -0.001751 0.00161114 6.43978e-05
0.0207854 -4.51751e-21 0.00466152 -0.00143245 0.000757709 -0.000263061
-0.0209257 -2.71051e-20 0.00410294 -0.00620656 0.00583295 -6.75583e-05
0.020926 0 0.00410307 -0.00654461 0.00356418 -0.00118606
-0.0213163 -1.12938e-21 0.001158 -0.00896119 0.00712836 3.01829e-05
0.0213163 3.38813e-21 0.00115801 -0.0089533 0.0119137 -0.00133097
0.0213763 1.35525e-20 3.47593e-16 0 0 0
-0.0213764 0 3.5283e-16 0 0 0
-0.0212885 1.12938e-21 0.00232627 -0.0118865 0.0103912 -0.000142255
0.0212886 1.12938e-21 0.00232629 -0.0151105 0.0181761 -0.00215659
-0.021208 -2.82344e-22 0.00309796 -0.0107296 0.00970616 -0.000186134
0.021208 1.69407e-21 0.00309802 -0.0138621 0.0148109 -0.00218156
0.0214867 0 0.000108836 -0.000613898 0.00103263 -0.000148353
-0.0214868 1.35525e-20 0.000108849 -0.00110558 0.000734454 2.20368e-05
0.021494 1.35525e-20 4.39192e-16 0 0 0
-0.0214941 0 4.44401e-16 0 0 0
-0.0209343 1.35525e-20 0.00494614 0 0 0
0.0209347 0 0.00494637 0 0 0
-0.0212499 0 0.00376412 -0.00810953 0.00756149 -0.000117593
0.021247 -2.75286e-21 0.00376429 -0.0092445 0.00752169 -0.00158574
-0.0210472 -1.35525e-20 0.00500632 0 0 0
0.0210476 -1.35525e-20 0.00500653 0 0 0
-0.0210903 0 0.00488625 -0.00131939 0.00114845 5.87748e-05
0.0210906 -2.71051e-20 0.0048865 -0.000901163 0.000499983 -4.31032e-05
-0.0212089 4.51751e-21 0.00450243 -0.00442628 0.00412661 2.14782e-05
0.0212092 -1.12938e-21 0.00450256 -0.00396021 0.00226067 -0.000556059
-0.0216448 0 0.00289595 -0.0116732 0.0104986 -0.000137244
0.0216449 2.71051e-20 0.00289597 -0.015222 0.0182993 -0.00246612
-0.0212498 3.38813e-21 0.00511424 0 0 0
0.0212501 3.38813e-21 0.00511439 0 0 0
-0.0212808 0 0.00513076 0 0 0
0.0212812 0 0.00513096 0 0 0
-0.0216428 0 0.00333678 -0.010432 0.00955155 -8.46052e-05
0.0216429 0 0.00333683 -0.0126097 0.0135654 -0.00224075
-0.0213035 0 0.00509474 -0.000442876 0.000409541 1.10439e-05
0.0213039 3.38813e-21 0.00509481 -0.000304698 0.000152958 -8.02038e-06
-0.0215146 2.71051e-20 0.00414914 -0.00749654 0.00717483 -0.000137859
0.0215148 0 0.00414925 -0.00739957 0.00478461 -0.0011531
-0.0213152 -6.77626e-21 0.00514909 0 0 0
0.0213157 0 0.00514937 0 0 0
0.0219709 0 0.000580194 -0.00338094 0.00565501 -0.000848991
-0.021971 5.42101e-20 0.000580199 -0.00607508 0.00401946 0.000156161
-0.0214405 -9.03502e-21 0.00489685 -0.00283795 0.0026174 6.93308e-05
0.0214409 -3.01167e-21 0.00489705 -0.00186767 0.000997674 4.23611e-06
-0.0219196 0 0.00179911 -0.0124628 0.0102575 1.41619e-05
0.0219197 0 0.00179912 -0.0140762 0.0191509 -0.00202354
-0.0218787 -2.82344e-22 0.00244234 -0.0120545 0.0104566 -6.80327e-05
0.0218787 7.05861e-23 0.00244237 -0.014885 0.0188775 -0.0022751
-0.0218432 -2.71051e-20 0.00311325 -0.0112431 0.0101683 -9.27226e-05
0.0218433 0 0.00311327 -0.0140486 0.01652 -0.00233136
-0.0218301 1.50584e-21 0.00382172 -0.00909768 0.00851941 -7.52767e-05
0.0218302 -7.52918e-22 0.00382177 -0.00971482 0.00897154 -0.00158674
-0.0215576 1.35525e-20 0.00527824 0 0 0
0.0215581 1.35525e-20 0.00527848 0 0 0
-0.0216181 1.35525e-20 0.00521384 -0.000899611 0.000806119 4.44224e-05
0.0216185 -1.35525e-20 0.0052141 -0.000381994 0.000345067 0.000143194
-0.022064 0 0.00288701 -0.011909 0.0106504 -5.46155e-05
0.022064 2.71051e-20 0.00288702 -0.0149513 0.0187201 -0.00244402
-0.0217938 2.25875e-21 0.00451147 -0.00606152 0.00572446 1.97341e-05
0.021794 -2.25875e-21 0.00451161 -0.00494308 0.00339889 -0.000455183
-0.0220345 -2.71051e-20 0.00332361 -0.0109877 0.0100964 -7.36109e-05
0.0220346 -2.71051e-20 0.00332366 -0.0133495 0.0155952 -0.00229589
-0.0216748 2.71051e-20 0.00534064 0 0 0
0.0216752 2.71051e-20 0.00534085 0 0 0
-0.0218358 -2.25875e-22 0.00496865 -0.00371076 0.00339477 0.000109331
0.0218361 1.35525e-21 0.0049688 -0.00216208 0.00137364 0.000229962
0.0225 -1.35525e-20 -1.57376e-17 0 0 0
-0.0225 0 -1.52709e-17 0 0 0
0.0225 -1.35525e-20 8.44889e-05 -0.000476565 0.000801619 -0.000115165
-0.0225 0 8.44943e-05 -0.00085821 0.000570121 1.71061e-05
-0.0221466 0 0.00413228 -0.00896802 0.00852253 -8.65914e-07
0.0221467 0 0.00413235 -0.00844528 0.00713282 -0.00132894
-0.0218748 -6.77626e-21 0.00544721 0 0 0
0.0218751 1.01644e-20 0.00544736 0 0 0
0.0225909 -1.35525e-20 4.65091e-17 0 0 0
-0.0225909 0 4.69172e-17 0 0 0
-0.0225623 0 0.00117125 -0.00919333 0.0068097 0.000210603
0.0225623 5.64689e-21 0.00117125 -0.00799921 0.0120793 -0.00124223
-0.0219453 1.69407e-20 0.00548473 0 0 0
0.0219458 1.69407e-20 0.00548498 0 0 0
-0.0220186 4.51751e-21 0.0053065 -0.00188549 0.00167376 0.000109055
0.0220189 -1.35525e-20 0.00530671 -0.000572108 0.000653807 0.000374213
-0.0221547 2.71051e-20 0.00476009 -0.00612335 0.00573133 0.000104021
0.0221549 2.71051e-20 0.00476021 -0.00382147 0.00241127 0.000330899
0.0226735 0 8.15118e-05 -0.00030709 0.000699786 -8.98046e-05
-0.0226735 0 8.15168e-05 -0.0008267 0.000483317 2.83077e-05
0.0226781 0 2.50124e-17 0 0 0
-0.0226781 0 2.52005e-17 0 0 0
-0.0225519 -1.12938e-21 0.00239247 -0.0121787 0.0103064 0.000193112
0.0225519 4.51751e-21 0.00239248 -0.014188 0.019263 -0.00198747
-0.0224875 -5.64689e-22 0.00303827 -0.0116669 0.0103932 0.000121678
0.0224875 5.64689e-22 0.00303832 -0.0143291 0.0182836 -0.00215404
-0.0224955 -7.05861e-23 0.00364649 -0.0102196 0.00943247 0.000106759
0.0224956 7.05861e-23 0.00364646 -0.0111384 0.0125469 -0.00169735
-0.0221583 1.35525e-20 0.00559821 0 0 0
0.0221587 -1.35525e-20 0.00559841 0 0 0
-0.0224493 -2.25875e-21 0.00445911 -0.00808486 0.00758981 0.000111081
0.0224494 0 0.00445919 -0.00643259 0.00581692 -0.000432885
-0.0222812 1.35525e-20 0.00566371 0 0 0
0.0222816 -2.71051e-20 0.00566387 0 0 0
-0.0223282 1.35525e-20 0.00553377 -0.00144078 0.00118638 0.000111464
0.0223285 2.71051e-20 0.00553397 -0.00010742 0.000481681 0.000278368
-0.022442 2.25875e-21 0.00515525 -0.00445149 0.0040149 0.000186759
0.0224423 7.52918e-22 0.00515537 -0.00180761 0.001725 0.000534966