# Force       
# CofR        : (0.000000e+00 0.000000e+00 0.000000e+00)
#
# Time        	(total_x total_y total_z)	(pressure_x pressure_y pressure_z)	(viscous_x viscous_y viscous_z)
1             	(4.157262e+01 1.458892e+01 -4.681795e+02)	(4.153898e+01 1.458906e+01 -4.681798e+02)	(3.364482e-02 -1.456148e-04 3.171628e-04)
2             	(4.367068e+01 1.518158e+01 -4.676252e+02)	(4.367542e+01 1.519237e+01 -4.676258e+02)	(-4.735769e-03 -1.078585e-02 5.643088e-04)
3             	(3.592300e+01 1.236556e+01 -4.676008e+02)	(3.595679e+01 1.238480e+01 -4.676017e+02)	(-3.378696e-02 -1.923935e-02 9.716187e-04)
4             	(1.772275e+01 5.941860e+00 -4.684467e+02)	(1.776344e+01 5.963623e+00 -4.684473e+02)	(-4.068100e-02 -2.176303e-02 6.153393e-04)
5             	(-2.308839e+00 -1.079377e+00 -4.694881e+02)	(-2.275257e+00 -1.060927e+00 -4.694882e+02)	(-3.358159e-02 -1.845001e-02 7.441796e-05)
6             	(-1.516928e+01 -5.543769e+00 -4.703464e+02)	(-1.515195e+01 -5.531509e+00 -4.703468e+02)	(-1.732975e-02 -1.226013e-02 4.413822e-04)
7             	(-1.927878e+01 -6.894495e+00 -4.708631e+02)	(-1.928327e+01 -6.890759e+00 -4.708639e+02)	(4.489081e-03 -3.735689e-03 8.181228e-04)
8             	(-1.735375e+01 -6.104188e+00 -4.710235e+02)	(-1.737746e+01 -6.108078e+00 -4.710245e+02)	(2.371442e-02 3.889517e-03 9.980754e-04)
9             	(-1.198878e+01 -4.116971e+00 -4.709798e+02)	(-1.202164e+01 -4.124892e+00 -4.709808e+02)	(3.286065e-02 7.921409e-03 1.041720e-03)
10            	(-4.889497e+00 -1.578268e+00 -4.707288e+02)	(-4.921527e+00 -1.586759e+00 -4.707297e+02)	(3.203079e-02 8.491635e-03 9.284762e-04)
11            	(1.871449e+00 7.816103e-01 -4.703311e+02)	(1.846810e+00 7.751843e-01 -4.703320e+02)	(2.463853e-02 6.425978e-03 8.855349e-04)
12            	(6.540108e+00 2.373705e+00 -4.700224e+02)	(6.526009e+00 2.370625e+00 -4.700234e+02)	(1.409831e-02 3.079852e-03 9.605703e-04)
13            	(8.691305e+00 3.067805e+00 -4.697518e+02)	(8.687675e+00 3.068233e+00 -4.697528e+02)	(3.630585e-03 -4.282227e-04 1.031891e-03)
14            	(8.279614e+00 2.877420e+00 -4.696548e+02)	(8.283674e+00 2.880515e+00 -4.696557e+02)	(-4.059217e-03 -3.094950e-03 8.980942e-04)
15            	(6.534827e+00 2.232062e+00 -4.696562e+02)	(6.542747e+00 2.236532e+00 -4.696568e+02)	(-7.919765e-03 -4.469451e-03 6.444185e-04)
16            	(4.148043e+00 1.384255e+00 -4.696597e+02)	(4.156166e+00 1.388789e+00 -4.696600e+02)	(-8.123018e-03 -4.534006e-03 3.862878e-04)
17            	(1.829637e+00 5.890361e-01 -4.696969e+02)	(1.835517e+00 5.927013e-01 -4.696972e+02)	(-5.879482e-03 -3.665219e-03 2.103774e-04)
18            	(9.621830e-02 1.784144e-02 -4.698747e+02)	(9.878657e-02 2.016963e-02 -4.698748e+02)	(-2.568277e-03 -2.328189e-03 1.163853e-04)
19            	(-6.985255e-01 -2.373893e-01 -4.699869e+02)	(-6.991069e-01 -2.363630e-01 -4.699869e+02)	(5.813971e-04 -1.026259e-03 5.394137e-05)
20            	(-7.268086e-01 -2.348685e-01 -4.700624e+02)	(-7.294710e-01 -2.347666e-01 -4.700624e+02)	(2.662375e-03 -1.019006e-04 -3.707584e-06)
21            	(-2.763828e-01 -6.577884e-02 -4.700592e+02)	(-2.797931e-01 -6.612824e-02 -4.700592e+02)	(3.410315e-03 3.494005e-04 -4.830852e-05)
22            	(3.572192e-01 1.589217e-01 -4.700591e+02)	(3.541809e-01 1.585583e-01 -4.700590e+02)	(3.038283e-03 3.633849e-04 -7.188769e-05)
23            	(1.127568e+00 4.256089e-01 -4.700215e+02)	(1.125555e+00 4.255289e-01 -4.700214e+02)	(2.013209e-03 7.994623e-05 -9.170294e-05)
24            	(1.877817e+00 6.830588e-01 -4.700071e+02)	(1.877007e+00 6.833788e-01 -4.700069e+02)	(8.101184e-04 -3.200561e-04 -1.170611e-04)
25            	(2.327135e+00 8.370924e-01 -4.699597e+02)	(2.327341e+00 8.377815e-01 -4.699595e+02)	(-2.056343e-04 -6.891207e-04 -1.639749e-04)
26            	(2.546186e+00 9.153796e-01 -4.699450e+02)	(2.547022e+00 9.163114e-01 -4.699448e+02)	(-8.360769e-04 -9.318232e-04 -2.337761e-04)
27            	(2.617032e+00 9.449358e-01 -4.699115e+02)	(2.618075e+00 9.459596e-01 -4.699111e+02)	(-1.042691e-03 -1.023774e-03 -3.094728e-04)
28            	(2.521519e+00 9.161967e-01 -4.699108e+02)	(2.522431e+00 9.171980e-01 -4.699104e+02)	(-9.112348e-04 -1.001275e-03 -3.786990e-04)
29            	(2.417017e+00 8.886122e-01 -4.699078e+02)	(2.417592e+00 8.895006e-01 -4.699074e+02)	(-5.747199e-04 -8.883817e-04 -4.255889e-04)
30            	(2.224074e+00 8.258409e-01 -4.698911e+02)	(2.224255e+00 8.265881e-01 -4.698906e+02)	(-1.813506e-04 -7.471346e-04 -4.487489e-04)
31            	(2.095485e+00 7.897156e-01 -4.698877e+02)	(2.095334e+00 7.903308e-01 -4.698873e+02)	(1.507652e-04 -6.151574e-04 -4.543253e-04)
32            	(2.014602e+00 7.693345e-01 -4.698854e+02)	(2.014241e+00 7.698505e-01 -4.698850e+02)	(3.605643e-04 -5.160349e-04 -4.474448e-04)
33            	(2.006832e+00 7.784346e-01 -4.698831e+02)	(2.006405e+00 7.788827e-01 -4.698827e+02)	(4.266382e-04 -4.480800e-04 -4.334609e-04)
34            	(2.018844e+00 7.887039e-01 -4.698825e+02)	(2.018463e+00 7.891254e-01 -4.698821e+02)	(3.808688e-04 -4.214910e-04 -4.198056e-04)
35            	(2.021027e+00 7.906437e-01 -4.698825e+02)	(2.020757e+00 7.910704e-01 -4.698821e+02)	(2.703478e-04 -4.267470e-04 -4.122971e-04)
36            	(2.012353e+00 7.866163e-01 -4.698822e+02)	(2.012214e+00 7.870634e-01 -4.698818e+02)	(1.394919e-04 -4.471139e-04 -4.108161e-04)
37            	(2.026084e+00 7.886017e-01 -4.698815e+02)	(2.026056e+00 7.890711e-01 -4.698811e+02)	(2.760470e-05 -4.693583e-04 -4.144585e-04)
38            	(2.054771e+00 7.947809e-01 -4.698810e+02)	(2.054814e+00 7.952654e-01 -4.698806e+02)	(-4.271383e-05 -4.845344e-04 -4.202470e-04)
39            	(2.104381e+00 8.080271e-01 -4.698812e+02)	(2.104445e+00 8.085130e-01 -4.698808e+02)	(-6.386942e-05 -4.858406e-04 -4.252181e-04)
40            	(2.175334e+00 8.290700e-01 -4.698821e+02)	(2.175376e+00 8.295422e-01 -4.698817e+02)	(-4.134627e-05 -4.722264e-04 -4.257277e-04)
41            	(2.261328e+00 8.568012e-01 -4.698844e+02)	(2.261319e+00 8.572466e-01 -4.698839e+02)	(8.916883e-06 -4.453456e-04 -4.192715e-04)
42            	(2.339628e+00 8.838466e-01 -4.698870e+02)	(2.339563e+00 8.842558e-01 -4.698866e+02)	(6.423851e-05 -4.091625e-04 -4.044659e-04)
43            	(2.398770e+00 9.049307e-01 -4.698906e+02)	(2.398661e+00 9.053027e-01 -4.698902e+02)	(1.085632e-04 -3.720176e-04 -3.826988e-04)
44            	(2.436426e+00 9.186513e-01 -4.698939e+02)	(2.436293e+00 9.189928e-01 -4.698935e+02)	(1.336108e-04 -3.415357e-04 -3.574169e-04)
45            	(2.458299e+00 9.268650e-01 -4.698965e+02)	(2.458162e+00 9.271858e-01 -4.698962e+02)	(1.374017e-04 -3.208582e-04 -3.317790e-04)
46            	(2.439294e+00 9.220170e-01 -4.699077e+02)	(2.439176e+00 9.223235e-01 -4.699074e+02)	(1.182068e-04 -3.064472e-04 -3.069913e-04)
47            	(2.442849e+00 9.236446e-01 -4.699095e+02)	(2.442759e+00 9.239432e-01 -4.699092e+02)	(9.065176e-05 -2.986373e-04 -2.841146e-04)
48            	(2.441870e+00 9.238832e-01 -4.699115e+02)	(2.441809e+00 9.241793e-01 -4.699112e+02)	(6.144318e-05 -2.960468e-04 -2.636949e-04)
49            	(2.413932e+00 9.158971e-01 -4.699190e+02)	(2.413900e+00 9.161876e-01 -4.699188e+02)	(3.260420e-05 -2.904898e-04 -2.465861e-04)
50            	(2.405091e+00 9.137679e-01 -4.699181e+02)	(2.405078e+00 9.140500e-01 -4.699179e+02)	(1.306841e-05 -2.820862e-04 -2.338625e-04)
51            	(2.394018e+00 9.110200e-01 -4.699172e+02)	(2.394014e+00 9.112900e-01 -4.699170e+02)	(4.111608e-06 -2.700319e-04 -2.264648e-04)
52            	(2.382684e+00 9.083175e-01 -4.699165e+02)	(2.382680e+00 9.085691e-01 -4.699162e+02)	(4.134651e-06 -2.515772e-04 -2.238690e-04)
53            	(2.371601e+00 9.056945e-01 -4.699159e+02)	(2.371591e+00 9.059214e-01 -4.699157e+02)	(9.625716e-06 -2.268863e-04 -2.257418e-04)
54            	(2.361285e+00 9.031758e-01 -4.699157e+02)	(2.361269e+00 9.033737e-01 -4.699155e+02)	(1.627690e-05 -1.979156e-04 -2.314225e-04)
55            	(2.351979e+00 9.007623e-01 -4.699157e+02)	(2.351958e+00 9.009298e-01 -4.699154e+02)	(2.021542e-05 -1.674647e-04 -2.395739e-04)
56            	(2.343546e+00 8.983886e-01 -4.699158e+02)	(2.343528e+00 8.985262e-01 -4.699155e+02)	(1.825224e-05 -1.376129e-04 -2.496498e-04)
57            	(2.335604e+00 8.959282e-01 -4.699159e+02)	(2.335595e+00 8.960380e-01 -4.699157e+02)	(9.050212e-06 -1.097977e-04 -2.616036e-04)
58            	(2.328073e+00 8.933851e-01 -4.699160e+02)	(2.328081e+00 8.934693e-01 -4.699158e+02)	(-7.570129e-06 -8.422882e-05 -2.754326e-04)
59            	(2.321109e+00 8.908687e-01 -4.699160e+02)	(2.321138e+00 8.909287e-01 -4.699157e+02)	(-2.917527e-05 -5.990968e-05 -2.904145e-04)
60            	(2.314987e+00 8.885279e-01 -4.699158e+02)	(2.315040e+00 8.885635e-01 -4.699155e+02)	(-5.287884e-05 -3.564467e-05 -3.058765e-04)
61            	(2.310831e+00 8.867481e-01 -4.699154e+02)	(2.310908e+00 8.867588e-01 -4.699151e+02)	(-7.741080e-05 -1.070474e-05 -3.215912e-04)
62            	(2.329655e+00 8.922158e-01 -4.699121e+02)	(2.329753e+00 8.922017e-01 -4.699118e+02)	(-9.772553e-05 1.403224e-05 -3.365839e-04)
63            	(2.362386e+00 9.021883e-01 -4.699040e+02)	(2.362499e+00 9.021499e-01 -4.699037e+02)	(-1.128848e-04 3.833631e-05 -3.499643e-04)
64            	(2.387702e+00 9.099010e-01 -4.699013e+02)	(2.387828e+00 9.098365e-01 -4.699009e+02)	(-1.256909e-04 6.449830e-05 -3.612141e-04)
65            	(2.413821e+00 9.178026e-01 -4.698985e+02)	(2.413958e+00 9.177096e-01 -4.698981e+02)	(-1.365699e-04 9.301765e-05 -3.698335e-04)
66            	(2.448471e+00 9.282741e-01 -4.698912e+02)	(2.448614e+00 9.281512e-01 -4.698908e+02)	(-1.436895e-04 1.228755e-04 -3.749321e-04)
67            	(2.468084e+00 9.336369e-01 -4.698892e+02)	(2.468233e+00 9.334832e-01 -4.698888e+02)	(-1.489767e-04 1.537145e-04 -3.758913e-04)
68            	(2.485293e+00 9.378654e-01 -4.698874e+02)	(2.485445e+00 9.376811e-01 -4.698871e+02)	(-1.519103e-04 1.842731e-04 -3.728153e-04)
69            	(2.500610e+00 9.411859e-01 -4.698859e+02)	(2.500762e+00 9.409730e-01 -4.698855e+02)	(-1.520082e-04 2.128652e-04 -3.657666e-04)
70            	(2.514503e+00 9.438972e-01 -4.698845e+02)	(2.514653e+00 9.436588e-01 -4.698841e+02)	(-1.498079e-04 2.383873e-04 -3.549222e-04)
71            	(2.527272e+00 9.463752e-01 -4.698832e+02)	(2.527419e+00 9.461147e-01 -4.698829e+02)	(-1.466975e-04 2.605398e-04 -3.408634e-04)
72            	(2.538662e+00 9.488070e-01 -4.698821e+02)	(2.538806e+00 9.485277e-01 -4.698818e+02)	(-1.442268e-04 2.792834e-04 -3.245710e-04)
73            	(2.548350e+00 9.512210e-01 -4.698811e+02)	(2.548494e+00 9.509264e-01 -4.698808e+02)	(-1.432596e-04 2.946702e-04 -3.066959e-04)
74            	(2.555386e+00 9.534990e-01 -4.698802e+02)	(2.555530e+00 9.531932e-01 -4.698799e+02)	(-1.442998e-04 3.057370e-04 -2.874822e-04)
75            	(2.559086e+00 9.555333e-01 -4.698794e+02)	(2.559234e+00 9.552208e-01 -4.698792e+02)	(-1.474752e-04 3.124964e-04 -2.673360e-04)
76            	(2.555011e+00 9.560946e-01 -4.698786e+02)	(2.555166e+00 9.557770e-01 -4.698784e+02)	(-1.546548e-04 3.175478e-04 -2.470504e-04)
77            	(2.555988e+00 9.590183e-01 -4.698780e+02)	(2.556152e+00 9.586970e-01 -4.698778e+02)	(-1.642473e-04 3.213012e-04 -2.271108e-04)
78            	(2.555919e+00 9.624256e-01 -4.698775e+02)	(2.556096e+00 9.621008e-01 -4.698773e+02)	(-1.764584e-04 3.248008e-04 -2.080709e-04)
79            	(2.550177e+00 9.646943e-01 -4.698769e+02)	(2.550369e+00 9.643631e-01 -4.698767e+02)	(-1.921465e-04 3.312090e-04 -1.905577e-04)
80            	(2.550651e+00 9.692729e-01 -4.698768e+02)	(2.550859e+00 9.689315e-01 -4.698766e+02)	(-2.087701e-04 3.413639e-04 -1.754394e-04)
81            	(2.551327e+00 9.739424e-01 -4.698767e+02)	(2.551553e+00 9.735869e-01 -4.698766e+02)	(-2.258058e-04 3.554655e-04 -1.632515e-04)
82            	(2.552205e+00 9.784372e-01 -4.698768e+02)	(2.552449e+00 9.780638e-01 -4.698767e+02)	(-2.435864e-04 3.733822e-04 -1.541852e-04)
83            	(2.553269e+00 9.825407e-01 -4.698770e+02)	(2.553532e+00 9.821464e-01 -4.698769e+02)	(-2.622918e-04 3.942204e-04 -1.482822e-04)
84            	(2.553632e+00 9.857395e-01 -4.698770e+02)	(2.553914e+00 9.853226e-01 -4.698769e+02)	(-2.819174e-04 4.168879e-04 -1.456405e-04)
85            	(2.555160e+00 9.887234e-01 -4.698772e+02)	(2.555461e+00 9.882832e-01 -4.698771e+02)	(-3.010542e-04 4.402199e-04 -1.463767e-04)
86            	(2.557925e+00 9.915300e-01 -4.698776e+02)	(2.558243e+00 9.910667e-01 -4.698774e+02)	(-3.180607e-04 4.633280e-04 -1.503935e-04)
87            	(2.562163e+00 9.943118e-01 -4.698780e+02)	(2.562494e+00 9.938260e-01 -4.698779e+02)	(-3.315830e-04 4.857723e-04 -1.573691e-04)
88            	(2.567925e+00 9.971895e-01 -4.698786e+02)	(2.568266e+00 9.966824e-01 -4.698784e+02)	(-3.411348e-04 5.071237e-04 -1.669380e-04)
89            	(2.575031e+00 1.000237e+00 -4.698792e+02)	(2.575378e+00 9.997095e-01 -4.698791e+02)	(-3.470509e-04 5.271544e-04 -1.786334e-04)
90            	(2.582843e+00 1.003415e+00 -4.698799e+02)	(2.583193e+00 1.002869e+00 -4.698797e+02)	(-3.502360e-04 5.457719e-04 -1.916854e-04)
91            	(2.590599e+00 1.006597e+00 -4.698804e+02)	(2.590950e+00 1.006034e+00 -4.698802e+02)	(-3.510947e-04 5.628418e-04 -2.052987e-04)
92            	(2.597831e+00 1.009691e+00 -4.698808e+02)	(2.598180e+00 1.009112e+00 -4.698806e+02)	(-3.496633e-04 5.780221e-04 -2.187412e-04)
93            	(2.604401e+00 1.012654e+00 -4.698810e+02)	(2.604747e+00 1.012063e+00 -4.698808e+02)	(-3.460010e-04 5.912121e-04 -2.316654e-04)
94            	(2.610522e+00 1.015503e+00 -4.698811e+02)	(2.610862e+00 1.014900e+00 -4.698808e+02)	(-3.396298e-04 6.025571e-04 -2.436896e-04)
95            	(2.616593e+00 1.018292e+00 -4.698810e+02)	(2.616923e+00 1.017679e+00 -4.698807e+02)	(-3.299856e-04 6.124077e-04 -2.545118e-04)
96            	(2.623149e+00 1.021131e+00 -4.698808e+02)	(2.623465e+00 1.020510e+00 -4.698805e+02)	(-3.169076e-04 6.212141e-04 -2.638738e-04)
97            	(2.630648e+00 1.024125e+00 -4.698805e+02)	(2.630949e+00 1.023496e+00 -4.698802e+02)	(-3.005478e-04 6.292188e-04 -2.715419e-04)
98            	(2.639376e+00 1.027355e+00 -4.698801e+02)	(2.639657e+00 1.026718e+00 -4.698798e+02)	(-2.811409e-04 6.368536e-04 -2.773230e-04)
99            	(2.649276e+00 1.030827e+00 -4.698797e+02)	(2.649535e+00 1.030182e+00 -4.698794e+02)	(-2.594647e-04 6.445468e-04 -2.812304e-04)
100           	(2.651426e+00 1.031691e+00 -4.698792e+02)	(2.651665e+00 1.031038e+00 -4.698789e+02)	(-2.382838e-04 6.530411e-04 -2.833790e-04)
101           	(2.664974e+00 1.035994e+00 -4.698785e+02)	(2.665190e+00 1.035332e+00 -4.698782e+02)	(-2.159397e-04 6.616533e-04 -2.838880e-04)
102           	(2.678687e+00 1.040179e+00 -4.698775e+02)	(2.678881e+00 1.039509e+00 -4.698772e+02)	(-1.941638e-04 6.695027e-04 -2.828573e-04)
103           	(2.691933e+00 1.044054e+00 -4.698763e+02)	(2.692107e+00 1.043377e+00 -4.698760e+02)	(-1.743476e-04 6.768482e-04 -2.801451e-04)
104           	(2.704961e+00 1.047682e+00 -4.698750e+02)	(2.705118e+00 1.046999e+00 -4.698747e+02)	(-1.570587e-04 6.834088e-04 -2.756842e-04)
105           	(2.718702e+00 1.051341e+00 -4.698737e+02)	(2.718844e+00 1.050653e+00 -4.698734e+02)	(-1.421898e-04 6.887301e-04 -2.693767e-04)
106           	(2.722215e+00 1.051738e+00 -4.698733e+02)	(2.722347e+00 1.051045e+00 -4.698730e+02)	(-1.318083e-04 6.937124e-04 -2.611992e-04)
107           	(2.739400e+00 1.055956e+00 -4.698719e+02)	(2.739522e+00 1.055260e+00 -4.698717e+02)	(-1.216145e-04 6.963418e-04 -2.512743e-04)
108           	(2.743259e+00 1.056073e+00 -4.698715e+02)	(2.743374e+00 1.055375e+00 -4.698713e+02)	(-1.147781e-04 6.978092e-04 -2.399337e-04)
109           	(2.771855e+00 1.063308e+00 -4.698652e+02)	(2.771959e+00 1.062613e+00 -4.698650e+02)	(-1.039426e-04 6.949948e-04 -2.276886e-04)
110           	(2.775916e+00 1.063469e+00 -4.698648e+02)	(2.776013e+00 1.062777e+00 -4.698645e+02)	(-9.686229e-05 6.916070e-04 -2.147911e-04)
111           	(2.779350e+00 1.063379e+00 -4.698643e+02)	(2.779442e+00 1.062690e+00 -4.698641e+02)	(-9.221717e-05 6.883810e-04 -2.014971e-04)
112           	(2.781823e+00 1.062934e+00 -4.698637e+02)	(2.781912e+00 1.062251e+00 -4.698635e+02)	(-8.871679e-05 6.834808e-04 -1.879097e-04)
113           	(2.783281e+00 1.062120e+00 -4.698630e+02)	(2.783366e+00 1.061444e+00 -4.698628e+02)	(-8.543583e-05 6.763869e-04 -1.741288e-04)
114           	(2.789198e+00 1.062455e+00 -4.698620e+02)	(2.789279e+00 1.061790e+00 -4.698618e+02)	(-8.042555e-05 6.656069e-04 -1.601654e-04)
115           	(2.789407e+00 1.061503e+00 -4.698613e+02)	(2.789483e+00 1.060850e+00 -4.698611e+02)	(-7.586568e-05 6.532859e-04 -1.460224e-04)
116           	(2.791524e+00 1.061040e+00 -4.698604e+02)	(2.791595e+00 1.060401e+00 -4.698603e+02)	(-7.079186e-05 6.393786e-04 -1.318153e-04)
117           	(2.793269e+00 1.060840e+00 -4.698598e+02)	(2.793335e+00 1.060215e+00 -4.698596e+02)	(-6.570617e-05 6.245742e-04 -1.175773e-04)
118           	(2.794751e+00 1.060937e+00 -4.698592e+02)	(2.794813e+00 1.060327e+00 -4.698591e+02)	(-6.124986e-05 6.100856e-04 -1.034930e-04)
119           	(2.795895e+00 1.061252e+00 -4.698588e+02)	(2.795953e+00 1.060655e+00 -4.698588e+02)	(-5.777431e-05 5.964156e-04 -8.982276e-05)
120           	(2.796605e+00 1.061673e+00 -4.698586e+02)	(2.796661e+00 1.061089e+00 -4.698585e+02)	(-5.541565e-05 5.837745e-04 -7.684950e-05)
121           	(2.796764e+00 1.062076e+00 -4.698584e+02)	(2.796818e+00 1.061503e+00 -4.698584e+02)	(-5.422710e-05 5.723715e-04 -6.472821e-05)
122           	(2.796347e+00 1.062364e+00 -4.698584e+02)	(2.796401e+00 1.061802e+00 -4.698584e+02)	(-5.400756e-05 5.621953e-04 -5.352718e-05)
123           	(2.795929e+00 1.062625e+00 -4.698588e+02)	(2.795983e+00 1.062072e+00 -4.698587e+02)	(-5.436900e-05 5.530162e-04 -4.328008e-05)
124           	(2.795696e+00 1.062864e+00 -4.698597e+02)	(2.795751e+00 1.062320e+00 -4.698596e+02)	(-5.489139e-05 5.444988e-04 -3.388947e-05)
125           	(2.795578e+00 1.063027e+00 -4.698610e+02)	(2.795634e+00 1.062490e+00 -4.698610e+02)	(-5.530351e-05 5.365061e-04 -2.540282e-05)
126           	(2.795796e+00 1.063176e+00 -4.698630e+02)	(2.795851e+00 1.062647e+00 -4.698629e+02)	(-5.533458e-05 5.288779e-04 -1.797876e-05)
127           	(2.775819e+00 1.057164e+00 -4.698725e+02)	(2.775879e+00 1.056640e+00 -4.698725e+02)	(-5.994543e-05 5.239365e-04 -1.162108e-05)
128           	(2.776604e+00 1.057074e+00 -4.698734e+02)	(2.776666e+00 1.056555e+00 -4.698734e+02)	(-6.126622e-05 5.184182e-04 -6.787075e-06)
129           	(2.778102e+00 1.057095e+00 -4.698742e+02)	(2.778163e+00 1.056584e+00 -4.698742e+02)	(-6.017889e-05 5.112250e-04 -3.826177e-06)
130           	(2.780445e+00 1.057287e+00 -4.698748e+02)	(2.780503e+00 1.056783e+00 -4.698748e+02)	(-5.742409e-05 5.033171e-04 -2.783190e-06)
131           	(2.783307e+00 1.057554e+00 -4.698752e+02)	(2.783361e+00 1.057059e+00 -4.698752e+02)	(-5.362838e-05 4.948235e-04 -3.656350e-06)
132           	(2.787007e+00 1.057969e+00 -4.698755e+02)	(2.787056e+00 1.057483e+00 -4.698755e+02)	(-4.919888e-05 4.857364e-04 -6.340368e-06)
133           	(2.791262e+00 1.058454e+00 -4.698758e+02)	(2.791306e+00 1.057978e+00 -4.698757e+02)	(-4.438050e-05 4.761961e-04 -1.064861e-05)
134           	(2.795762e+00 1.058929e+00 -4.698759e+02)	(2.795801e+00 1.058463e+00 -4.698759e+02)	(-3.940858e-05 4.662319e-04 -1.632122e-05)
135           	(2.798442e+00 1.058815e+00 -4.698758e+02)	(2.798477e+00 1.058359e+00 -4.698758e+02)	(-3.486743e-05 4.560819e-04 -2.304711e-05)
136           	(2.803112e+00 1.059199e+00 -4.698758e+02)	(2.803142e+00 1.058754e+00 -4.698758e+02)	(-3.004751e-05 4.455125e-04 -3.046617e-05)
137           	(2.807826e+00 1.059537e+00 -4.698757e+02)	(2.807851e+00 1.059102e+00 -4.698757e+02)	(-2.495390e-05 4.343860e-04 -3.812924e-05)
138           	(2.812679e+00 1.059875e+00 -4.698756e+02)	(2.812698e+00 1.059452e+00 -4.698755e+02)	(-1.932009e-05 4.225680e-04 -4.557694e-05)
139           	(2.817680e+00 1.060248e+00 -4.698754e+02)	(2.817693e+00 1.059838e+00 -4.698753e+02)	(-1.297820e-05 4.098491e-04 -5.238054e-05)
140           	(2.822711e+00 1.060666e+00 -4.698752e+02)	(2.822717e+00 1.060270e+00 -4.698751e+02)	(-5.905525e-06 3.962608e-04 -5.790915e-05)
141           	(2.827625e+00 1.061128e+00 -4.698749e+02)	(2.827623e+00 1.060746e+00 -4.698749e+02)	(1.885112e-06 3.818769e-04 -6.194162e-05)
142           	(2.830792e+00 1.061252e+00 -4.698749e+02)	(2.830782e+00 1.060885e+00 -4.698748e+02)	(9.604573e-06 3.671648e-04 -6.451409e-05)
143           	(2.834633e+00 1.061542e+00 -4.698745e+02)	(2.834615e+00 1.061190e+00 -4.698744e+02)	(1.799006e-05 3.517372e-04 -6.578681e-05)
144           	(2.838108e+00 1.061834e+00 -4.698741e+02)	(2.838081e+00 1.061499e+00 -4.698740e+02)	(2.709564e-05 3.354335e-04 -6.610699e-05)
145           	(2.841333e+00 1.062178e+00 -4.698736e+02)	(2.841296e+00 1.061859e+00 -4.698736e+02)	(3.679079e-05 3.186435e-04 -6.579892e-05)
146           	(2.844386e+00 1.062603e+00 -4.698732e+02)	(2.844339e+00 1.062301e+00 -4.698732e+02)	(4.699968e-05 3.014320e-04 -6.515436e-05)
147           	(2.846651e+00 1.062934e+00 -4.698729e+02)	(2.846594e+00 1.062650e+00 -4.698728e+02)	(5.761592e-05 2.839277e-04 -6.440952e-05)
148           	(2.848840e+00 1.063378e+00 -4.698726e+02)	(2.848772e+00 1.063112e+00 -4.698726e+02)	(6.857342e-05 2.661340e-04 -6.373592e-05)
149           	(2.850420e+00 1.063783e+00 -4.698725e+02)	(2.850340e+00 1.063535e+00 -4.698724e+02)	(7.974944e-05 2.480535e-04 -6.314665e-05)
150           	(2.851735e+00 1.064226e+00 -4.698723e+02)	(2.851644e+00 1.063996e+00 -4.698723e+02)	(9.108105e-05 2.296794e-04 -6.267907e-05)
151           	(2.852540e+00 1.064613e+00 -4.698722e+02)	(2.852438e+00 1.064403e+00 -4.698722e+02)	(1.024230e-04 2.108970e-04 -6.232652e-05)
152           	(2.852604e+00 1.064845e+00 -4.698722e+02)	(2.852491e+00 1.064653e+00 -4.698721e+02)	(1.131833e-04 1.917656e-04 -6.211360e-05)
153           	(2.851772e+00 1.064835e+00 -4.698721e+02)	(2.851649e+00 1.064663e+00 -4.698720e+02)	(1.230972e-04 1.723774e-04 -6.195341e-05)
154           	(2.849993e+00 1.064534e+00 -4.698720e+02)	(2.849861e+00 1.064381e+00 -4.698720e+02)	(1.321481e-04 1.529850e-04 -6.179287e-05)
155           	(2.847267e+00 1.063905e+00 -4.698720e+02)	(2.847126e+00 1.063772e+00 -4.698720e+02)	(1.404579e-04 1.338462e-04 -6.160197e-05)
156           	(2.843652e+00 1.062934e+00 -4.698721e+02)	(2.843503e+00 1.062818e+00 -4.698720e+02)	(1.482607e-04 1.150395e-04 -6.134047e-05)
157           	(2.839365e+00 1.061657e+00 -4.698722e+02)	(2.839209e+00 1.061561e+00 -4.698722e+02)	(1.558283e-04 9.655292e-05 -6.100990e-05)
158           	(2.834524e+00 1.060068e+00 -4.698725e+02)	(2.834361e+00 1.059990e+00 -4.698725e+02)	(1.633326e-04 7.835465e-05 -6.060691e-05)
159           	(2.813560e+00 1.053718e+00 -4.698826e+02)	(2.813394e+00 1.053655e+00 -4.698825e+02)	(1.657835e-04 6.308172e-05 -5.990823e-05)
160           	(2.808177e+00 1.051508e+00 -4.698828e+02)	(2.808006e+00 1.051461e+00 -4.698827e+02)	(1.706753e-04 4.756959e-05 -5.934884e-05)
161           	(2.803066e+00 1.049233e+00 -4.698830e+02)	(2.802888e+00 1.049202e+00 -4.698829e+02)	(1.773390e-04 3.116262e-05 -5.902817e-05)
162           	(2.798445e+00 1.047004e+00 -4.698832e+02)	(2.798260e+00 1.046989e+00 -4.698832e+02)	(1.848207e-04 1.493080e-05 -5.894437e-05)
163           	(2.794385e+00 1.044858e+00 -4.698835e+02)	(2.794193e+00 1.044859e+00 -4.698834e+02)	(1.926016e-04 -9.736861e-07 -5.914275e-05)
164           	(2.794461e+00 1.044182e+00 -4.698835e+02)	(2.794261e+00 1.044198e+00 -4.698835e+02)	(2.006356e-04 -1.595272e-05 -5.970039e-05)
165           	(2.794423e+00 1.043333e+00 -4.698836e+02)	(2.794215e+00 1.043363e+00 -4.698836e+02)	(2.081511e-04 -3.047504e-05 -6.060492e-05)
166           	(2.789457e+00 1.040399e+00 -4.698837e+02)	(2.789242e+00 1.040446e+00 -4.698836e+02)	(2.146845e-04 -4.624885e-05 -6.171900e-05)
167           	(2.785123e+00 1.037601e+00 -4.698838e+02)	(2.784902e+00 1.037664e+00 -4.698838e+02)	(2.206501e-04 -6.352184e-05 -6.291711e-05)
168           	(2.785707e+00 1.036773e+00 -4.698840e+02)	(2.785481e+00 1.036854e+00 -4.698839e+02)	(2.259845e-04 -8.099848e-05 -6.403886e-05)
169           	(2.782128e+00 1.034091e+00 -4.698842e+02)	(2.781897e+00 1.034192e+00 -4.698841e+02)	(2.303913e-04 -1.005775e-04 -6.486717e-05)
170           	(2.782173e+00 1.032944e+00 -4.698844e+02)	(2.781939e+00 1.033066e+00 -4.698844e+02)	(2.343799e-04 -1.215385e-04 -6.533129e-05)
171           	(2.782106e+00 1.031760e+00 -4.698846e+02)	(2.781869e+00 1.031904e+00 -4.698846e+02)	(2.375151e-04 -1.437404e-04 -6.522267e-05)
172           	(2.779737e+00 1.029580e+00 -4.698849e+02)	(2.779496e+00 1.029749e+00 -4.698848e+02)	(2.402738e-04 -1.685201e-04 -6.445519e-05)
173           	(2.778035e+00 1.027763e+00 -4.698852e+02)	(2.777792e+00 1.027958e+00 -4.698852e+02)	(2.430398e-04 -1.954393e-04 -6.298308e-05)
174           	(2.776871e+00 1.026274e+00 -4.698856e+02)	(2.776625e+00 1.026498e+00 -4.698855e+02)	(2.460035e-04 -2.237701e-04 -6.079939e-05)
175           	(2.775565e+00 1.024827e+00 -4.698860e+02)	(2.775316e+00 1.025080e+00 -4.698860e+02)	(2.494932e-04 -2.533287e-04 -5.797574e-05)
176           	(2.774406e+00 1.023544e+00 -4.698865e+02)	(2.774152e+00 1.023828e+00 -4.698865e+02)	(2.536967e-04 -2.838123e-04 -5.462772e-05)
177           	(2.777634e+00 1.024066e+00 -4.698935e+02)	(2.777375e+00 1.024380e+00 -4.698935e+02)	(2.586090e-04 -3.140403e-04 -5.089462e-05)
178           	(2.773375e+00 1.021997e+00 -4.698939e+02)	(2.773112e+00 1.022342e+00 -4.698938e+02)	(2.633749e-04 -3.443705e-04 -4.705606e-05)
179           	(2.768415e+00 1.019815e+00 -4.698942e+02)	(2.768146e+00 1.020190e+00 -4.698942e+02)	(2.685945e-04 -3.746271e-04 -4.329308e-05)
180           	(2.763346e+00 1.017716e+00 -4.698946e+02)	(2.763071e+00 1.018120e+00 -4.698946e+02)	(2.743935e-04 -4.043482e-04 -3.976397e-05)
181           	(2.744145e+00 1.011716e+00 -4.699053e+02)	(2.743869e+00 1.012147e+00 -4.699053e+02)	(2.756985e-04 -4.307874e-04 -3.646232e-05)
182           	(2.739045e+00 1.009697e+00 -4.699056e+02)	(2.738765e+00 1.010154e+00 -4.699056e+02)	(2.795277e-04 -4.568231e-04 -3.415307e-05)
183           	(2.734514e+00 1.007942e+00 -4.699059e+02)	(2.734229e+00 1.008425e+00 -4.699058e+02)	(2.857041e-04 -4.832775e-04 -3.290364e-05)
184           	(2.730083e+00 1.006249e+00 -4.699062e+02)	(2.729789e+00 1.006758e+00 -4.699062e+02)	(2.934698e-04 -5.091173e-04 -3.313588e-05)
185           	(2.725758e+00 1.004611e+00 -4.699065e+02)	(2.725455e+00 1.005146e+00 -4.699065e+02)	(3.025145e-04 -5.343093e-04 -3.496508e-05)
186           	(2.721486e+00 1.002980e+00 -4.699069e+02)	(2.721174e+00 1.003539e+00 -4.699069e+02)	(3.123936e-04 -5.589135e-04 -3.836046e-05)
187           	(2.717066e+00 1.001248e+00 -4.699073e+02)	(2.716743e+00 1.001831e+00 -4.699073e+02)	(3.227141e-04 -5.831151e-04 -4.323141e-05)
188           	(2.712211e+00 9.992700e-01 -4.699077e+02)	(2.711878e+00 9.998772e-01 -4.699077e+02)	(3.332045e-04 -6.071248e-04 -4.949446e-05)
189           	(2.703804e+00 9.958294e-01 -4.699082e+02)	(2.703461e+00 9.964612e-01 -4.699081e+02)	(3.434538e-04 -6.318103e-04 -5.706176e-05)
190           	(2.684902e+00 9.892674e-01 -4.699090e+02)	(2.684552e+00 9.899226e-01 -4.699090e+02)	(3.502575e-04 -6.551752e-04 -6.573631e-05)
191           	(2.678381e+00 9.860454e-01 -4.699097e+02)	(2.678022e+00 9.867252e-01 -4.699096e+02)	(3.588661e-04 -6.797358e-04 -7.572286e-05)
192           	(2.672763e+00 9.829430e-01 -4.699104e+02)	(2.672394e+00 9.836491e-01 -4.699103e+02)	(3.685129e-04 -7.060568e-04 -8.685977e-05)
193           	(2.667900e+00 9.799286e-01 -4.699112e+02)	(2.667522e+00 9.806620e-01 -4.699111e+02)	(3.786856e-04 -7.333663e-04 -9.918037e-05)
194           	(2.667269e+00 9.785397e-01 -4.699120e+02)	(2.666880e+00 9.792998e-01 -4.699119e+02)	(3.889541e-04 -7.601453e-04 -1.126663e-04)
195           	(2.666603e+00 9.769555e-01 -4.699127e+02)	(2.666205e+00 9.777424e-01 -4.699126e+02)	(3.986271e-04 -7.868431e-04 -1.273330e-04)
196           	(2.665781e+00 9.751593e-01 -4.699136e+02)	(2.665373e+00 9.759733e-01 -4.699134e+02)	(4.076567e-04 -8.140278e-04 -1.432187e-04)
197           	(2.664855e+00 9.732208e-01 -4.699145e+02)	(2.664439e+00 9.740625e-01 -4.699143e+02)	(4.158508e-04 -8.417632e-04 -1.603421e-04)
198           	(2.663827e+00 9.711697e-01 -4.699154e+02)	(2.663404e+00 9.720398e-01 -4.699152e+02)	(4.230937e-04 -8.700316e-04 -1.786593e-04)
199           	(2.630733e+00 9.590508e-01 -4.699277e+02)	(2.630312e+00 9.599465e-01 -4.699275e+02)	(4.210131e-04 -8.956234e-04 -1.980429e-04)
200           	(2.628032e+00 9.560106e-01 -4.699289e+02)	(2.627610e+00 9.569338e-01 -4.699287e+02)	(4.227478e-04 -9.231248e-04 -2.184097e-04)
201           	(2.626890e+00 9.535738e-01 -4.699302e+02)	(2.626463e+00 9.545278e-01 -4.699299e+02)	(4.269834e-04 -9.539239e-04 -2.395534e-04)
202           	(2.627807e+00 9.519495e-01 -4.699317e+02)	(2.627375e+00 9.529352e-01 -4.699315e+02)	(4.327654e-04 -9.857230e-04 -2.614530e-04)
203           	(2.631148e+00 9.514209e-01 -4.699334e+02)	(2.630709e+00 9.524387e-01 -4.699331e+02)	(4.390620e-04 -1.017745e-03 -2.840266e-04)
204           	(2.636481e+00 9.518833e-01 -4.699352e+02)	(2.636036e+00 9.529328e-01 -4.699349e+02)	(4.448789e-04 -1.049467e-03 -3.072211e-04)
205           	(2.643356e+00 9.531205e-01 -4.699371e+02)	(2.642906e+00 9.542015e-01 -4.699368e+02)	(4.497593e-04 -1.080995e-03 -3.310436e-04)
206           	(2.648294e+00 9.542312e-01 -4.699384e+02)	(2.647841e+00 9.553426e-01 -4.699380e+02)	(4.524801e-04 -1.111439e-03 -3.553252e-04)
207           	(2.652419e+00 9.552480e-01 -4.699396e+02)	(2.651965e+00 9.563894e-01 -4.699392e+02)	(4.533950e-04 -1.141353e-03 -3.800285e-04)
208           	(2.655630e+00 9.561231e-01 -4.699408e+02)	(2.655177e+00 9.572946e-01 -4.699404e+02)	(4.530157e-04 -1.171438e-03 -4.051132e-04)
209           	(2.657856e+00 9.568064e-01 -4.699420e+02)	(2.657404e+00 9.580085e-01 -4.699416e+02)	(4.517726e-04 -1.202110e-03 -4.305776e-04)