# Force       
# CofR        : (0.000000e+00 0.000000e+00 0.000000e+00)
#
# Time        	(total_x total_y total_z)	(pressure_x pressure_y pressure_z)	(viscous_x viscous_y viscous_z)
1             	(4.157262e+01 1.458892e+01 -4.681795e+02)	(4.153898e+01 1.458906e+01 -4.681798e+02)	(3.364482e-02 -1.456148e-04 3.171628e-04)
2             	(4.367068e+01 1.518158e+01 -4.676252e+02)	(4.367542e+01 1.519237e+01 -4.676258e+02)	(-4.735769e-03 -1.078585e-02 5.643088e-04)
3             	(3.592300e+01 1.236556e+01 -4.676008e+02)	(3.595679e+01 1.238480e+01 -4.676017e+02)	(-3.378696e-02 -1.923935e-02 9.716187e-04)
4             	(1.772275e+01 5.941860e+00 -4.684467e+02)	(1.776344e+01 5.963623e+00 -4.684473e+02)	(-4.068100e-02 -2.176303e-02 6.153393e-04)
5             	(-2.308839e+00 -1.079377e+00 -4.694881e+02)	(-2.275257e+00 -1.060927e+00 -4.694882e+02)	(-3.358159e-02 -1.845001e-02 7.441796e-05)
6             	(-1.516928e+01 -5.543769e+00 -4.703464e+02)	(-1.515195e+01 -5.531509e+00 -4.703468e+02)	(-1.732975e-02 -1.226013e-02 4.413822e-04)
7             	(-1.927878e+01 -6.894495e+00 -4.708631e+02)	(-1.928327e+01 -6.890759e+00 -4.708639e+02)	(4.489081e-03 -3.735689e-03 8.181228e-04)
8             	(-1.735375e+01 -6.104188e+00 -4.710235e+02)	(-1.737746e+01 -6.108078e+00 -4.710245e+02)	(2.371442e-02 3.889517e-03 9.980754e-04)
9             	(-1.198878e+01 -4.116971e+00 -4.709798e+02)	(-1.202164e+01 -4.124892e+00 -4.709808e+02)	(3.286065e-02 7.921409e-03 1.041720e-03)
