# Moment      
# CofR        : (0.000000e+00 0.000000e+00 0.000000e+00)
#
# Time        	(total_x total_y total_z)	(pressure_x pressure_y pressure_z)	(viscous_x viscous_y viscous_z)
1             	(-3.295368e-01 9.946963e-01 -1.385495e-03)	(-3.295408e-01 9.939738e-01 -1.396754e-03)	(3.994851e-06 7.225585e-04 1.125911e-05)
2             	(-3.494359e-01 1.042397e+00 -1.289497e-02)	(-3.496651e-01 1.042658e+00 -1.295286e-02)	(2.291180e-04 -2.608565e-04 5.788163e-05)
3             	(-2.808438e-01 8.587498e-01 -3.232809e-02)	(-2.812759e-01 8.597525e-01 -3.237284e-02)	(4.320559e-04 -1.002780e-03 4.475041e-05)
4             	(-1.179218e-01 4.291139e-01 -6.896745e-02)	(-1.184599e-01 4.302117e-01 -6.886678e-02)	(5.381118e-04 -1.097806e-03 -1.006680e-04)
5             	(2.782507e-02 -5.505384e-02 -1.245201e-01)	(2.737288e-02 -5.418673e-02 -1.242410e-01)	(4.521908e-04 -8.671137e-04 -2.790481e-04)
6             	(1.161561e-01 -3.667752e-01 -1.424287e-01)	(1.158207e-01 -3.663677e-01 -1.421248e-01)	(3.354234e-04 -4.074989e-04 -3.039795e-04)
7             	(1.433944e-01 -4.658309e-01 -1.332427e-01)	(1.431964e-01 -4.660484e-01 -1.329554e-01)	(1.980179e-04 2.175220e-04 -2.873314e-04)
8             	(1.240235e-01 -4.200238e-01 -9.412371e-02)	(1.239747e-01 -4.207666e-01 -9.391489e-02)	(4.875960e-05 7.427990e-04 -2.088177e-04)
9             	(7.967515e-02 -2.912610e-01 -4.175798e-02)	(7.973020e-02 -2.922148e-01 -4.149977e-02)	(-5.505314e-05 9.537664e-04 -2.582082e-04)
