# p  POINT_DATA 53293
# x  y  z  p
-2.04806e-10 0 1.71421e-09 -0.00545706
0.000208122 -2.06795e-25 0 -0.00597069
0.00031259 -2.71051e-20 0.000268959 -0.00615574
-0.000312591 0 0.000268959 -0.00475838
1.09391e-09 1.03398e-25 0.000537326 -0.00573369
0.000221767 0 0.000537756 -0.00626081
0.000624999 0 3.4485e-09 -0.00699949
-0.000624992 0 3.74434e-09 -0.00421101
-0.000624898 0 0.000538541 -0.00449448
0.000624896 0 0.00053854 -0.00721902
-0.000312141 0 0.000800934 -0.0053404
0.000312143 0 0.000800934 -0.00667735
-0.000937614 -2.71051e-20 0.000270127 -0.00366365
0.000937614 5.42101e-20 0.000270127 -0.00784322
2.66464e-09 1.03398e-25 0.00106275 -0.00629492
0.00062321 0 0.00100817 -0.00758823
-0.000623002 2.06795e-25 0.00106565 -0.00507489
0.000623003 2.58494e-26 0.00106565 -0.00763342
-0.00093593 -2.71051e-20 0.000804977 -0.00421173
0.000935931 0 0.000804977 -0.00819839
-0.00124996 8.27181e-25 5.23454e-09 -0.0032075
0.00124998 0 4.87633e-09 -0.00862316
0.000753719 0 0.00106747 -0.0079034
-0.000310612 0 0.00130939 -0.00594922
0.000310617 -2.71051e-20 0.00130939 -0.00720322
-0.0012492 0 0.000542159 -0.00346326
0.0012492 -1.35153e-20 0.000542159 -0.00874531
2.39286e-09 2.06795e-25 0.00155263 -0.00686572
-0.00156214 2.71051e-20 0.000272432 -0.00275139
0.00156214 2.71051e-20 0.000272433 -0.00940304
-0.000930906 -2.71051e-20 0.00131726 -0.00478783
0.000930908 0 0.00131726 -0.00844839
-0.00124464 -2.06795e-25 0.00107429 -0.00398881
0.00124464 0 0.00107429 -0.00891733
-0.000618525 0 0.00155769 -0.00564857
0.000618528 0 0.0015577 -0.00810299
-0.00155821 0 0.000812977 -0.00322236
0.00155821 0 0.000812979 -0.00953672
0.00124013 5.16988e-26 0.00130049 -0.00905367
-0.000308049 5.42101e-20 0.00177921 -0.00651652
0.000308058 0 0.00177922 -0.00778307
-0.00187486 8.27181e-25 6.09624e-09 -0.00231538
0.00187488 0 5.65929e-09 -0.00983978
-0.00187226 -4.1359e-25 0.000548096 -0.00252957
0.00187226 8.2685e-21 0.000548097 -0.00988102
-0.00123471 2.06795e-25 0.00157278 -0.00451663
0.00123471 0 0.00157279 -0.0092178
6.08126e-09 0 0.002 -0.00714979
-0.000922483 2.71051e-20 0.00179168 -0.00532916
0.000922482 2.71051e-20 0.00179169 -0.00896739
-0.00154837 -2.71051e-20 0.00133283 -0.00372348
0.00154837 2.71051e-20 0.00133284 -0.00948425
-0.000612281 -2.06795e-25 0.00200803 -0.00592213
0.000612288 -2.06795e-25 0.00200806 -0.00837594
-0.00186351 2.06795e-25 0.00108849 -0.00297994
0.00186351 5.52453e-21 0.0010885 -0.00985152
0.0021858 2.71051e-20 0.000275834 -0.0102764
-0.0021858 -2.71051e-20 0.000275834 -0.00187945
-0.00217796 0 0.000824778 -0.00226147
0.00217796 2.71051e-20 0.00082478 -0.0103085
0.00122124 2.06795e-25 0.00202988 -0.00946609
-0.00122124 0 0.00202988 -0.00477034
-0.00153279 0 0.00181633 -0.00421424
0.0015328 2.71051e-20 0.00181633 -0.00996239
0.00184877 0 0.0015216 -0.00998788
-0.00184617 0 0.00159757 -0.00345277
0.00184618 0 0.00159757 -0.0100118
0.00249958 8.27181e-25 6.22817e-09 -0.010384
-0.00249957 -4.1359e-25 3.01309e-09 -0.00145321
-0.00216116 0 0.00135579 -0.00270372
0.00216116 0 0.00135579 -0.0100792
0.00249342 5.03505e-21 0.000556252 -0.0103978
-0.00249342 -4.1359e-25 0.000556252 -0.00161775
0.00216384 0 0.00161543 -0.0101897
-0.00247827 0 0.00110799 -0.00197706
0.00247827 6.73387e-21 0.00110799 -0.0102764
-0.00182336 1.03398e-25 0.00206706 -0.00368395
0.00182337 -2.06795e-25 0.00206706 -0.0102385
-0.00280829 -2.71051e-20 0.000280371 -0.00102715
0.00280829 -8.13152e-20 0.000280371 -0.0104916
-0.00213569 0 0.00185263 -0.00315752
0.0021357 -5.42101e-20 0.00185263 -0.0105126
0.00279458 0 0.00084032 -0.010515
-0.00279458 2.71051e-20 0.00084032 -0.00129994
-0.0024507 2.06795e-25 0.00163155 -0.00236806
0.0024507 -2.58494e-26 0.00163155 -0.0103503
0.00243733 1.29247e-26 0.00181526 -0.0104269
-0.00276808 -2.71051e-20 0.00138577 -0.0016358
0.00276808 -2.71051e-20 0.00138577 -0.0102079
0.00312376 0 6.65008e-09 -0.0104069
-0.00312375 -4.1359e-25 2.43695e-09 -0.000624628
0.00311251 1.46531e-20 0.00056669 -0.0104203
-0.00311251 4.1359e-25 0.00056669 -0.000737132
0.00241539 5.16988e-26 0.00211691 -0.0105527
-0.00241539 0 0.00211691 -0.0025575
-0.00308874 4.1359e-25 0.00113266 -0.000984131
0.00308874 -3.74417e-20 0.00113266 -0.0102646
-0.00272918 -2.71051e-20 0.0018998 -0.00196311
0.00272919 0 0.0018998 -0.0105924
0.00262594 0 0.00213994 -0.0104902
-0.00342966 2.71051e-20 0.000286253 -0.000222487
0.00342966 -2.71051e-20 0.000286253 -0.0103222
-0.0030473 -2.06795e-25 0.0016742 -0.00124424
0.00304731 -1.21651e-21 0.0016742 -0.0102424
-0.00340944 0 0.000860037 -0.00039623
0.00340944 -2.71051e-20 0.000860038 -0.0103517
0.00320707 1.29247e-26 0.00168803 -0.0101253
-0.00337082 0 0.00142282 -0.000598753
0.00337082 -2.71051e-20 0.00142281 -0.00998934
-0.00299422 0 0.00218021 -0.00136251
0.00299422 -5.16988e-26 0.00218021 -0.010381
0.00374676 -8.27181e-25 6.66595e-09 -0.010176
-0.00374674 0 5.1417e-09 0.000162564
0.00373093 -1.00329e-20 0.000579595 -0.0101837
-0.00373093 0 0.000579595 8.12208e-05
0.0031239 5.16988e-26 0.00219745 -0.0102532
-0.0033125 2.71051e-20 0.00195714 -0.000768399
0.00331251 -5.42101e-20 0.00195714 -0.0101719
-0.00369909 -4.1359e-25 0.00116323 -0.000116872
0.0036991 -2.88645e-21 0.00116323 -0.00998866
0.00365434 0 0.0015875 -0.00985257
-0.00363978 -3.44566e-20 0.00172549 -0.000355727
0.00363978 0 0.00172549 -0.00980831
-0.00405004 0 0.000292937 0.000546885
0.00405004 0 0.000292938 -0.01003
-0.00402785 0 0.000884477 0.00040072
0.00402786 8.13152e-20 0.000884475 -0.0100294
-0.0035579 0 0.00225514 -0.000470977
0.00355791 0 0.00225514 -0.00982546
-0.00397967 0 0.00146909 0.0001349
0.00397967 -5.42101e-20 0.00146909 -0.00958762
0.00436739 -8.27181e-25 6.20931e-09 -0.00989588
-0.00436737 0 5.20252e-09 0.000955503
-0.00373725 -1.29247e-26 0.00228281 -0.000383544
-0.003891 0 0.00202365 -0.000176881
0.00389101 0 0.00202366 -0.00948294
-0.0043506 0 0.000592303 0.000877133
0.00435061 -6.46897e-21 0.000592304 -0.00988389
-0.00432225 0 0.00120092 0.000589662
0.00432225 -4.3305e-21 0.00120092 -0.00966505
0.00427812 0 0.00154744 -0.00939698
-0.00424725 -1.16374e-20 0.0017898 8.01317e-05
0.00424726 0 0.0017898 -0.00920949
-0.00466882 -2.71051e-20 0.000298016 0.00136273
0.00466883 -2.71051e-20 0.000298016 -0.00976222
-0.00414971 2.58494e-26 0.0021693 -0.000115831
-0.00410592 -5.16988e-26 0.0023397 -0.00020382
0.00410593 4.1359e-25 0.00233971 -0.00897774
-0.00465179 2.71051e-20 0.00090439 0.00120162
0.00465179 0 0.000904395 -0.00971227
-0.00462671 -2.71051e-20 0.0015349 0.000630839
0.00462672 2.71051e-20 0.00153491 -0.00932132
-0.00449178 2.71051e-20 0.00210468 -0.000230476
0.00449179 0 0.00210469 -0.00847785
0.00498376 0 5.69215e-09 -0.00965576
-0.00498375 -4.1359e-25 2.23777e-09 0.00178916
0.00497155 7.07818e-21 0.000598245 -0.00962701
-0.00497155 0 0.000598242 0.00171965
-0.00495824 2.06795e-25 0.00122094 0.00141939
0.00495825 -1.55125e-20 0.00122095 -0.00938839
0.00495296 5.16988e-26 0.00170248 -0.00923515
-0.00463864 -2.06795e-25 0.00243509 0.000261734
0.00463866 6.46235e-27 0.0024351 -0.00885088
0.0052847 0 0.000299156 -0.00954988
-0.0052847 0 0.000299155 0.00221329
-0.00493837 6.46235e-26 0.00192306 0.000973412
-0.00495075 -6.46235e-27 0.00190192 0.0010028
0.00495077 0 0.00190193 -0.00917168
-0.0049654 0 0.00191796 0.00102878
-0.00527814 -2.71051e-20 0.00090657 0.00209812
0.00527814 0 0.000906575 -0.00948316
-0.00497873 2.71051e-20 0.00227402 0.000749484
0.00497876 2.71051e-20 0.00227403 -0.00922054
-0.00527502 2.71051e-20 0.00153141 0.00173773
0.00527504 -2.71051e-20 0.00153142 -0.00903478
0.00498345 0 0.00250435 -0.00898051
0.00559337 0 5.60294e-09 -0.00945707
-0.00559336 0 1.43761e-09 0.00261726
0.00559126 8.91701e-22 0.000595126 -0.00943256
-0.00559126 2.06795e-25 0.000595123 0.00257507
-0.0055954 2.06795e-25 0.00120624 0.00241772
0.00559541 1.17859e-20 0.00120625 -0.0091829
-0.0052714 -3.13088e-22 0.00225305 0.0015715
0.00527143 1.66676e-20 0.00225307 -0.00928256
0.00516556 3.23117e-27 0.00252027 -0.00906191
-0.00515795 -4.1359e-25 0.00253939 0.00128754
0.00515798 0 0.0025394 -0.00904612
-0.00538498 0 0.0020263 0.00209415
0.00538501 0 0.00202632 -0.00974867
0.00551808 1.29247e-26 0.00179871 -0.00911635
-0.00589515 0 0.000297025 0.00301818
0.00589515 0 0.000297025 -0.00936497
-0.00563197 -5.16988e-26 0.00177797 0.00239724
0.00563198 0 0.00177799 -0.00910524
0.00564259 0 0.00188206 -0.00907231
-0.00564423 0 0.00189822 0.00241672
-0.00590236 2.71051e-20 0.000896383 0.00296338
0.00590236 0 0.000896388 -0.0093324
-0.00545327 0 0.00243355 0.00182166
0.00545331 2.71051e-20 0.00243359 -0.00887298
-0.00592144 -2.71051e-20 0.00148671 0.00284706
0.00592145 -2.71051e-20 0.00148673 -0.00887973
-0.00568071 0 0.00225606 0.00247469
0.00568074 0 0.00225611 -0.00895395
0.00567655 0 0.00236942 -0.0088817
0.00619352 8.27181e-25 5.71237e-09 -0.00926611
-0.00619351 0 6.4706e-10 0.00336468
0.00620461 -2.01617e-20 0.000588662 -0.00924243
-0.00620461 0 0.000588659 0.00335948
-0.00566608 4.1359e-25 0.0026515 0.00247863
0.00566612 -1.03398e-25 0.00265157 -0.0087018
-0.00594555 0 0.00202545 0.00290824
0.00594557 0 0.00202548 -0.00869847
-0.00622084 1.03398e-25 0.00119147 0.0033008
0.00622085 -1.33304e-20 0.00119148 -0.00900892
0.00580255 1.03398e-25 0.00268482 -0.00862299
-0.00594024 -2.71051e-20 0.0024957 0.00313184
0.00594027 5.42101e-20 0.00249581 -0.00853161
-0.00623228 5.16988e-26 0.00177936 0.00325722
0.00623229 0 0.00177938 -0.00864151
0.00649621 0 0.000293435 -0.00916815
-0.00649621 5.42101e-20 0.000293436 0.00370801
0.00622646 2.58494e-26 0.00199879 -0.00856179
-0.00622471 -2.58494e-26 0.0020643 0.00330593
-0.00651674 2.71051e-20 0.000887854 0.0037433
0.00651674 0 0.000887853 -0.00910473
-0.00621827 2.84626e-20 0.00230652 0.00334734
0.00621829 -5.16988e-26 0.00230657 -0.00844997
-0.00653419 2.71051e-20 0.0014917 0.00365196
0.0065342 0 0.0014917 -0.00872014
-0.00616457 1.03398e-25 0.00277282 0.00342788
0.00616457 0 0.00277305 -0.00841385
0.00678216 4.1359e-25 3.11434e-09 -0.00908444
-0.00678216 -5.16988e-26 3.07423e-10 0.00393985
0.00680719 4.16734e-21 0.000580427 -0.00904655
-0.00680719 0 0.000580427 0.00400557
-0.00652449 0 0.00206819 0.00363378
0.0065245 -2.71051e-20 0.00206819 -0.00827123
0.00683264 2.4158e-20 0.00118786 -0.00884431
-0.00683264 1.03398e-25 0.00118787 0.00403577
-0.00646322 2.71051e-20 0.00258806 0.00372256
0.00646323 0 0.00258814 -0.00829663
-0.00642641 0 0.00284235 0.0035986
-0.00683966 0 0.00180948 0.00393186
0.00683967 6.82269e-21 0.00180947 -0.00856303
0.00708484 -2.71051e-20 0.000285956 -0.00900153
-0.00708484 5.42101e-20 0.000285958 0.0041695
0.00680466 2.58494e-26 0.00220307 -0.00845153
-0.00712024 0 0.000873555 0.00440024
0.00712024 -2.71051e-20 0.00087355 -0.00891189
-0.00679579 -6.46235e-27 0.00230258 0.00382386
-0.00678834 6.46235e-27 0.00238631 0.00380552
0.00678836 -2.88301e-21 0.00238629 -0.00839963
-0.00677443 -2.58494e-26 0.00244012 0.00379948
-0.00665477 0 0.00290299 0.0037475
0.00665482 -4.1359e-25 0.00290304 -0.00835237
-0.00714798 -2.71051e-20 0.0014934 0.00434957
0.00714799 2.71051e-20 0.00149338 -0.00864027
0.00735889 0 2.29144e-09 -0.00893145
-0.00735889 0 1.5929e-10 0.00434761
-0.00676467 0 0.00293444 0.0038314
0.00739835 7.95748e-22 0.000558166 -0.00886976
-0.00739835 0 0.000558169 0.00448034
-0.00714876 2.71051e-20 0.00213576 0.00411036
0.00714878 5.42101e-20 0.00213571 -0.0086366
0.0071035 0 0.00244745 -0.00840503
0.0070198 0 0.00270005 -0.00840789
-0.00701976 -2.71051e-20 0.00270017 0.00377235
-0.00744365 -1.03398e-25 0.00116097 0.00463995
0.00744366 2.50694e-20 0.00116096 -0.00863581
0.0069788 -1.03398e-25 0.00299547 -0.00843968
-0.00765796 0 0.000265484 0.00452432
0.00765796 -5.42101e-20 0.000265481 -0.00886192
-0.00746677 0 0.00181019 0.00457694
0.00746679 -4.26319e-21 0.00181015 -0.00838194
-0.00771623 1.29247e-26 0 0.004669
-0.00746358 0 0.00210093 0.00454759
-0.0071376 2.06795e-25 0.00304116 0.00411611
0.00713776 0 0.00304082 -0.00848252
-0.0077169 0 0.000826802 0.00482579
0.0077169 2.71051e-20 0.000826792 -0.00870396
-0.00745902 3.57068e-21 0.00251657 0.00450564
0.00745908 -7.00534e-21 0.00251645 -0.00841111
-0.00777417 0 0.00144607 0.00498056
0.00777419 2.71051e-20 0.00144605 -0.00828508
-0.00792571 -1.29247e-26 8.66929e-11 0.0048574
0.00792572 0 3.47661e-09 -0.00890484
-0.00793011 1.29247e-26 5.044e-05 0.00486165
0.00796936 2.9776e-20 0.000500004 -0.00877956
-0.00796936 4.86879e-21 0.000500008 0.00489953
-0.00746683 0 0.00290066 0.00445864
0.00746695 2.71051e-20 0.00290041 -0.00855689
-0.00779099 -2.71051e-20 0.00211485 0.00487718
0.00779103 -5.42101e-20 0.00211478 -0.00796699
-0.00806314 3.23428e-22 0.00107 0.00508201
0.00806315 2.15253e-21 0.00106998 -0.00860261
-0.00818633 0 0.000216761 0.00518909
0.00818634 0 0.00021676 -0.00894758
-0.00761259 2.06795e-25 0.0031895 0.00483841
0.00761275 -2.06795e-25 0.00318916 -0.00836863
-0.00774741 -1.02668e-20 0.00289685 0.00499218
0.00774751 8.28701e-21 0.00289668 -0.00839017
-0.0081166 5.16988e-26 0.00173383 0.00524316
0.00811662 8.78104e-21 0.00173379 -0.00828244
-0.00787673 -2.71051e-20 0.00265552 0.00528847
0.00787681 -2.71051e-20 0.00265541 -0.00844071
-0.0083001 -2.71051e-20 0.000713301 0.00504166
0.00830011 2.71051e-20 0.00071329 -0.00859206
-0.00840084 1.91957e-20 0.000404248 0.00536221
0.00840085 6.33041e-21 0.000404247 -0.00864403
-0.00813041 -1.29247e-26 0.00216435 0.00533874
-0.00845725 -5.16988e-26 0.000140484 0.00546924
-0.00813753 2.58494e-26 0.00238637 0.00538803
0.00813758 -1.73602e-20 0.00238631 -0.00814344
0.00797243 0 0.00290798 -0.0082576
-0.00848729 0 3.25033e-10 0.00552625
0.0084873 0 1.33804e-09 -0.00866108
-0.0079062 2.71051e-20 0.00309611 0.00521686
0.00790631 2.71051e-20 0.00309597 -0.00818103
-0.00844166 0 0.00129779 0.00548343
0.00844167 0 0.00129777 -0.00881162
0.00814089 0 0.00259624 -0.00814815
0.00791998 -1.03398e-25 0.00329076 -0.00817708
-0.00814587 -1.76955e-20 0.00291677 0.0055348
0.00814594 -5.16988e-26 0.0029167 -0.00815534
-0.00845096 -2.71051e-20 0.00203002 0.00563452
0.00845099 2.71051e-20 0.00202998 -0.00811106
-0.00870374 -2.71051e-20 0.000299105 0.00586379
0.00870375 0 0.000299102 -0.00837423
-0.00808094 0 0.00334398 0.00556369
0.00808097 0 0.00334399 -0.0080767
-0.00876084 8.19798e-21 0.000780772 0.00584036
0.00876085 -7.87021e-21 0.000780763 -0.00835768
-0.00843811 -2.71051e-20 0.00266307 0.00575658
0.00843816 5.42101e-20 0.00266302 -0.00802748
-0.00877299 -5.16988e-26 0.00164021 0.00589235
0.00877301 -1.68081e-20 0.00164019 -0.00813375
-0.00860548 0 0.00237918 0.00580603
-0.00837329 -2.71051e-20 0.00318779 0.00590933
0.00837333 -2.71051e-20 0.00318777 -0.00797273
-0.00902617 1.29247e-26 6.52125e-05 0.00623857
-0.00905035 0 9.32147e-11 0.00627486
0.00905036 0 6.26966e-09 -0.00825121
-0.00875208 6.46235e-27 0.00237693 0.00593699
0.00875211 1.57927e-20 0.0023769 -0.00788658
0.00873942 5.16988e-26 0.00249428 -0.00788619
-0.00873202 -6.46235e-27 0.00256258 0.0059416
-0.00845392 1.03398e-25 0.00347505 0.00588103
-0.00868542 1.29247e-26 0.00299375 0.0059523
0.00868545 -1.03398e-25 0.00299373 -0.00788453
-0.0091091 5.42101e-20 0.00119679 0.00624446
0.00910912 0 0.00119678 -0.00787633
-0.00865998 0 0.00308463 0.00595296
-0.00854202 0 0.00350601 0.005956
0.00854205 0 0.00350602 -0.00790761
-0.0092294 2.71051e-20 0.000411816 0.00668911
0.00922941 0 0.000411812 -0.00812723
-0.00908302 2.71051e-20 0.00199954 0.00623309
0.00908304 -2.71051e-20 0.00199952 -0.00770866
-0.00904468 -2.71051e-20 0.00273192 0.0061515
0.0090447 -2.71051e-20 0.00273191 -0.00768064
-0.00889798 5.42101e-20 0.00332075 0.00600251
0.00889801 0 0.00332075 -0.00784273
-0.0094966 1.03398e-25 0.000799126 0.00667303
0.00949662 3.08493e-20 0.000799124 -0.00777134
-0.00942025 0 0.00160321 0.00651211
0.00942027 1.09105e-21 0.0016032 -0.00757929
-0.00909311 0 0.00309478 0.00627175
-0.00960563 5.16988e-26 0.000110373 0.00678291
-0.0096231 0 1.81071e-10 0.00680052
0.00962312 0 5.96157e-09 -0.00786518
-0.00937321 0 0.00238767 0.00644804
0.00937322 8.24125e-21 0.00238767 -0.00747386
-0.00968118 0 0 0.00683434
-0.00899578 0 0.0036751 0.00622628
0.00899579 -4.1359e-25 0.00367511 -0.00769874
0.00935885 -5.16988e-26 0.00261667 -0.00748735
-0.00932521 0 0.00315229 0.00645361
0.00932523 0 0.00315229 -0.0075189
-0.00977641 0 0.00119942 0.0068233
0.00977642 0 0.00119941 -0.00746982
-0.00986513 2.71051e-20 0.000404006 0.00691332
0.00986514 -2.71051e-20 0.000404004 -0.00759981
-0.0093639 0 0.00321295 0.00650176
-0.00917258 -1.03398e-25 0.00374559 0.00640678
-0.00971279 0 0.00199164 0.00674686
0.0097128 5.42101e-20 0.00199164 -0.00727141
-0.00931626 -5.42101e-20 0.00354791 0.00644925
0.00931627 -2.71051e-20 0.00354791 -0.00755527
-0.00951253 6.46235e-27 0.00312602 0.0066192
-0.00966465 0 0.00274807 0.00667289
0.00966466 2.71051e-20 0.00274807 -0.00722928
0.0101325 2.93173e-20 0.000796454 -0.00744377
-0.0101325 4.38406e-21 0.000796453 0.00709893
0.0100568 9.37072e-21 0.00159867 -0.00727455
-0.0100568 0 0.00159868 0.0070175
-0.00944132 0 0.00385273 0.00668114
0.00944133 -4.1359e-25 0.00385273 -0.00742588
0.0102116 0 6.4051e-09 -0.00752805
-0.0102116 0 1.62242e-09 0.00714325
-0.0095853 -2.36983e-20 0.00356006 0.00677728
0.00958531 -3.21498e-20 0.00356006 -0.00737627
-0.0097205 0 0.00331939 0.00696948
0.00972051 -5.42101e-20 0.0033194 -0.00727727
0.0100014 8.62336e-22 0.00238052 -0.00720491
-0.0100014 -2.58494e-26 0.00238052 0.00696234
-0.00999167 1.29247e-26 0.00275932 0.00700336
0.00998727 -2.58494e-26 0.00293055 -0.00722428
-0.00972751 0 0.00377237 0.00691219
0.00972752 -2.71051e-20 0.00377238 -0.00729696
0.00998395 0 0.00305989 -0.00722884
-0.00998395 2.64937e-20 0.00305989 0.00703591
-0.0104064 0 0.00120352 0.00728115
0.0104064 5.42101e-20 0.00120351 -0.00724947
-0.010485 0 0.000404034 0.00737866
0.0104851 0 0.000404033 -0.00745456
-0.0103405 2.71051e-20 0.0019901 0.00721893
0.0103405 0 0.00199009 -0.00710703
-0.00996853 1.16951e-20 0.00360023 0.00713616
0.00996854 1.45664e-20 0.00360024 -0.00725151
-0.0105942 0 0.000810557 0.00741107
-0.0103028 2.71051e-20 0.00272296 0.00720627
0.0103028 -2.71051e-20 0.00272296 -0.00720777
-0.00987912 -4.1359e-25 0.0040369 0.00715332
0.00987913 8.27181e-25 0.00403691 -0.00726312
0.0102665 -2.58494e-26 0.00307217 -0.00720343
-0.0107048 0 0.00135482 0.007461
-0.0107599 -5.16988e-26 0.000815619 0.00752308
0.01076 9.88067e-21 0.00081562 -0.00715132
-0.0107706 5.16988e-26 0.000702933 0.0075323
-0.0106792 0 0.001606 0.00743209
0.0106793 -2.81448e-21 0.001606 -0.0070513
-0.0102655 0 0.00335679 0.00729278
0.0102655 2.71051e-20 0.00335679 -0.00719631
-0.0108373 0 2.89784e-09 0.00758982
0.0108374 -8.27181e-25 1.11381e-08 -0.00730093
0.0106285 -2.28798e-21 0.00237367 -0.00713178
-0.0106285 0 0.00237367 0.00739639
-0.0108905 -4.1359e-25 0 0.00761915
-0.0101728 -2.71051e-20 0.00388886 0.00739357
0.0101729 0 0.00388888 -0.0072294
-0.0106184 0 0.00254673 0.00739794
-0.0109065 1.29247e-26 0.00162299 0.00753602
-0.0105871 5.16988e-26 0.00308611 0.0074028
0.0105871 -2.58494e-26 0.00308611 -0.00717461
0.0105647 5.16988e-26 0.00323249 -0.00718142
-0.0110291 -5.42101e-20 0.00123903 0.00763743
0.0110292 0 0.00123902 -0.00674953
-0.0108497 0 0.00235499 0.00749984
-0.0104928 1.1594e-20 0.0037021 0.00743636
0.0104928 1.03398e-25 0.0037021 -0.00720324
-0.0109536 0 0.00200603 0.00758625
0.0109537 2.71051e-20 0.00200604 -0.00709475
-0.0111271 2.71051e-20 0.000454366 0.00778957
0.0111272 2.71051e-20 0.000454356 -0.00715561
-0.0103093 -4.1359e-25 0.00422672 0.00745278
0.0103094 0 0.00422673 -0.0072199
-0.0109325 2.71051e-20 0.00273144 0.00757308
0.0109325 0 0.00273145 -0.00711724
-0.0108654 -2.71051e-20 0.00345535 0.00755368
0.0108654 -2.71051e-20 0.00345535 -0.00717328
0.0112927 1.45315e-20 0.00165185 -0.00690122
-0.0112927 2.36783e-20 0.00165185 0.00771258
-0.0106818 2.71051e-20 0.00404663 0.00751178
0.0106818 0 0.00404664 -0.00721044
0.0115148 -6.61744e-24 2.994e-08 -0.00703506
-0.0115148 3.30872e-24 3.99642e-08 0.0079632
0.0113303 -1.41225e-20 0.00231441 -0.0071146
-0.0113303 1.05124e-20 0.00231441 0.00772461
0.0115254 1.62127e-21 0.000977027 -0.0068975
-0.0115254 2.26143e-20 0.000977024 0.00788567
-0.0107322 -4.1359e-25 0.00442178 0.00762788
0.0107323 0 0.00442178 -0.00719775
-0.0112061 1.06363e-20 0.003125 0.00769339
0.0112061 -5.16988e-26 0.00312501 -0.00718948
0.0111602 -2.58494e-26 0.0036172 -0.0071855
-0.0111351 3.32165e-21 0.0038862 0.00771848
0.0111351 0 0.00388621 -0.00718332
-0.0115435 -5.42101e-20 0.00277564 0.00783484
0.0115435 2.71051e-20 0.00277564 -0.00729205
-0.0110833 2.71051e-20 0.00429822 0.00774362
0.0110834 -5.42101e-20 0.00429823 -0.00718511
-0.0115007 0 0.00348515 0.00781182
0.0115007 -2.71051e-20 0.00348516 -0.00717662
-0.011905 0 0.00173652 0.00801932
0.011905 0 0.00173651 -0.00683896
-0.0111314 1.29247e-25 0.00461569 0.00778422
-0.0120485 -5.42101e-20 0.00052176 0.0082553
0.0120486 -5.42101e-20 0.00052177 -0.00683222
-0.0111474 0 0.00462349 0.0077905
0.0111475 -4.1359e-25 0.0046235 -0.00718569
-0.0112044 1.29247e-26 0.00454863 0.00780499
0.011877 -1.40526e-20 0.00242017 -0.00710115
-0.011877 -2.17157e-20 0.00242017 0.0079782
-0.0113781 3.67454e-21 0.0043207 0.00784909
0.0113782 -1.25738e-20 0.00432072 -0.00718065
-0.0118464 5.4246e-21 0.00312012 0.00796203
0.0118464 -2.79231e-20 0.00312013 -0.00716009
-0.0115694 0 0.00408297 0.00796884
0.0115694 0 0.00408298 -0.00717011
-0.0114967 0 0.0045541 0.00783726
0.0114967 2.71051e-20 0.00455413 -0.00718628
0.0118457 0 0.00364086 -0.00714937
-0.0118455 2.55717e-20 0.00378396 0.00800672
0.0118455 0 0.00378398 -0.00714643
-0.0121911 0 0.00275451 0.00809034
0.0121911 -2.71051e-20 0.00275452 -0.00707461
-0.0117067 0 0.00439043 0.00799364
-0.0115551 0 0.00483259 0.00797539
0.0115551 0 0.00483261 -0.00717657
-0.0118539 0 0.00409747 0.00803394
-0.0121654 2.71051e-20 0.0034364 0.00810705
0.0121654 2.71051e-20 0.00343642 -0.00709388
-0.01259 3.5826e-20 0.00114671 0.00837871
0.0125901 2.20816e-20 0.00114672 -0.00681752
-0.0126534 -3.30872e-24 1.47588e-08 0.00847219
0.0126535 0 1.8193e-08 -0.00672637
-0.0118627 -2.58494e-26 0.00442352 0.00806225
0.0118627 1.03398e-25 0.00442357 -0.0071649
0.0125201 -4.7584e-20 0.00224746 -0.00701827
-0.0125201 1.94509e-20 0.00224746 0.00824026
-0.0118548 2.71051e-20 0.0047628 0.00811323
0.0118548 2.71051e-20 0.00476289 -0.00716689
-0.0121699 -2.71051e-20 0.00408084 0.00814109
0.0121699 0 0.00408088 -0.00714212
-0.0124876 -2.12067e-20 0.00308795 0.00822217
0.0124876 0 0.00308796 -0.00708454
0.0119571 0 0.00504674 -0.00716842
-0.0119572 0 0.00504659 0.00817261
0.0124822 5.16988e-26 0.00363965 -0.00710226
-0.0121099 0 0.0047907 0.00820072
0.0121099 -2.67008e-20 0.00479084 -0.00716449
-0.0124811 -1.65031e-20 0.00375556 0.00825155
0.0124811 -1.29247e-26 0.00375559 -0.00710598
-0.0122492 2.71051e-20 0.00458706 0.00825563
0.0122492 -2.71051e-20 0.00458715 -0.00715665
0.0128032 2.71051e-20 0.00273735 -0.00710149
-0.0128032 2.71051e-20 0.00273734 0.00832986
-0.0124941 0 0.00411044 0.00828053
-0.0122377 -5.42101e-20 0.00500049 0.0082319
0.0122376 2.71051e-20 0.00500074 -0.00716996
-0.013224 0 0.000582651 0.00868473
0.0132241 0 0.00058266 -0.00662263
-0.0125031 -6.46235e-27 0.00435743 0.00830071
0.0125031 1.03398e-25 0.00435749 -0.00714298
-0.0128001 -2.71051e-20 0.00341093 0.00836181
0.0128001 2.71051e-20 0.00341094 -0.00706906
-0.0122015 0 0.00518166 0.00825956
-0.0131889 0 0.0017923 0.00854683
0.0131889 0 0.0017923 -0.00698081
-0.0124963 3.23117e-27 0.00462452 0.00831171
0.0131464 -7.94342e-21 0.00241143 -0.00696678
-0.0131464 1.1735e-20 0.00241143 0.00847296
-0.0124553 4.52364e-26 0.00485434 0.00831034
0.0124902 -1.96073e-20 0.00486094 -0.0071622
-0.0124903 0 0.00486079 0.00832144
0.0123538 4.1359e-25 0.00526645 -0.00716869
-0.012354 0 0.005266 0.00831385
-0.0128061 -5.42101e-20 0.0040526 0.00839745
0.0128061 2.71051e-20 0.00405264 -0.00711767
0.013118 2.88912e-20 0.00306774 -0.00703171
-0.013118 0 0.00306774 0.00845669
0.0136221 2.48154e-24 0 -0.0065849
-0.0128095 -2.71051e-20 0.00466071 0.00841471
0.0128094 0 0.00466081 -0.00715352
0.013115 0 0.00371833 -0.00710584
-0.0131149 8.36444e-21 0.00373123 0.00847515
0.0131149 0 0.00373125 -0.00710731
0.0126812 0 0.00516054 -0.00716743
-0.0126813 0 0.00516037 0.00839571
-0.0136734 -5.16988e-26 0.00116497 0.00876091
-0.0134499 0 0.00272906 0.00856362
0.0134499 0 0.00272907 -0.00683115
-0.0135417 2.58494e-26 0.00236138 0.00860392
0.0132433 0 0.00371388 -0.00710808
-0.0131123 0 0.00421803 0.00848018
-0.0131114 0 0.004375 0.00848181
0.0131114 5.16988e-26 0.00437505 -0.0071369
0.0138295 0 3.90442e-09 -0.00655461
-0.0138295 0 5.31701e-10 0.00886852
-0.0138211 -2.58494e-26 0.00077029 0.00883088
-0.0134226 2.71051e-20 0.00339171 0.00856977
0.0134226 2.71051e-20 0.00339172 -0.0071208
0.0138205 2.06795e-25 0.000826209 -0.00670271
-0.0138167 -5.16988e-26 0.00116738 0.00881148
0.0138168 1.53771e-20 0.00116738 -0.00676387
-0.0127445 0 0.0054936 0.00847385
0.0127445 -8.27181e-25 0.00549371 -0.00716048
-0.0129836 0 0.00501627 0.00848225
-0.013484 -6.46235e-27 0.00368132 0.0085752
-0.0140035 0 0 0.00891916
-0.0130754 3.98365e-21 0.0050452 0.00851214
0.0130754 0 0.00504528 -0.0071576
-0.0134398 0 0.00403799 0.00857173
0.0134398 0 0.00403802 -0.00712164
-0.0138584 0 0.00232127 0.00870887
0.0138584 3.9889e-20 0.00232128 -0.00693417
-0.0137461 4.54644e-21 0.00305221 0.00863443
0.0137461 3.31884e-20 0.00305222 -0.00698156
-0.0130473 0 0.00541737 0.00855191
0.0130473 -5.42101e-20 0.00541743 -0.00715355
-0.0129645 -1.03398e-25 0.00562726 0.00853863
-0.0134065 2.71051e-20 0.00470455 0.00854908
0.0134065 2.71051e-20 0.0047046 -0.00715349
-0.0138193 0 0.00363599 0.00866609
0.0138193 6.46235e-27 0.003636 -0.0071115
0.0138011 -1.29247e-26 0.00379111 -0.00711867
-0.0131296 0 0.00572761 0.00858727
0.0131296 0 0.00572763 -0.00715876
-0.0133014 3.96271e-21 0.00545221 0.00860641
0.0133014 1.97365e-20 0.00545226 -0.00715904
-0.0137315 0 0.00438416 0.00865242
0.0137315 0 0.00438419 -0.00714608
0.0143791 2.06795e-25 0.00116589 -0.00675538
-0.0134534 2.71051e-20 0.0052371 0.00864512
0.0134534 0 0.00523715 -0.0071596
-0.0144279 5.42101e-20 0.000584037 0.00905429
0.0144279 -1.0842e-19 0.00058403 -0.00648586
-0.0144318 -5.42101e-20 0.00176658 0.00895464
0.0144318 0 0.00176658 -0.00697638
-0.0134146 0 0.00568017 0.00862259
0.0134146 5.42101e-20 0.0056802 -0.00716397
-0.0137241 5.16988e-26 0.00500431 0.008672
0.0137241 0 0.00500435 -0.00715801
-0.0140514 2.71051e-20 0.0040582 0.00874442
0.0140514 0 0.00405821 -0.00714779
0.0144534 -5.16988e-26 0.00236092 -0.00698342
-0.0143672 5.42101e-20 0.00304439 0.00885465
0.0143672 5.42101e-20 0.00304439 -0.00701333
-0.0136806 -1.19838e-20 0.00553459 0.00868845
0.0136806 0 0.00553463 -0.00715692
-0.0135099 0 0.00596676 0.00868146
0.0135099 0 0.00596679 -0.00715501
-0.0140393 0 0.00470048 0.00874292
0.0140393 0 0.00470051 -0.00716137
-0.0143688 0 0.003713 0.00882172
0.0143688 0 0.00371301 -0.00709115
0.0148473 -1.03398e-25 0 -0.00652557
0.0144845 0 0.00368089 -0.007097
0.0143621 0 0.00413347 -0.007121
-0.0140165 -2.71051e-20 0.0053317 0.00875485
0.0140165 0 0.00533174 -0.00715738
-0.0143582 0 0.00438143 0.00880349
0.0143582 -3.23117e-27 0.00438144 -0.00713861
-0.0150324 -4.1359e-25 3.1517e-09 0.0092186
0.0150325 1.03398e-25 7.09757e-10 -0.00652028
0.0150329 0 0.000319443 -0.00658208
-0.0138546 0 0.00585554 0.00874026
0.0138546 2.71051e-20 0.00585557 -0.00714607
-0.015034 8.27181e-25 0.00116415 0.00916818
0.0150341 -2.05112e-20 0.00116415 -0.0067455
0.0151086 0 0 -0.00652554
-0.0138286 -5.16988e-26 0.00617399 0.00877058
-0.0143315 0 0.00503804 0.00879215
0.0143315 -2.58494e-26 0.00503807 -0.00716052
-0.0138853 0 0.00621084 0.00878642
0.0138853 0 0.00621086 -0.00712904
-0.0150231 -2.06795e-25 0.00239888 0.0090681
0.0150231 0 0.00239888 -0.00703058
-0.0146888 0 0.00403473 0.00887722
0.0146888 0 0.00403473 -0.00708244
-0.0141261 2.58494e-26 0.00591877 0.00879739
-0.0142746 0 0.00573873 0.00880415
0.0142746 0 0.00573877 -0.00714026
-0.0146591 2.71051e-20 0.00470743 0.00885188
0.0146591 2.71051e-20 0.00470745 -0.00716079
-0.015001 9.42035e-21 0.00353752 0.00897587
0.015001 2.58494e-26 0.00353753 -0.00712308
-0.0142144 2.71051e-20 0.00613331 0.00883252
0.0142144 0 0.00613334 -0.00711205
-0.0143894 1.29247e-26 0.00597141 0.00882405
-0.0146265 -2.71051e-20 0.00537669 0.00882167
0.0146265 -2.71051e-20 0.00537672 -0.00716265
-0.0149821 3.78088e-20 0.00437019 0.00893769
0.0149821 0 0.00437019 -0.00717151
-0.0142534 0 0.00646278 0.00882767
0.0142535 4.1359e-25 0.0064628 -0.00711506
-0.0156394 5.42101e-20 0.000583611 0.00938322
0.0156395 1.0842e-19 0.000583611 -0.00655477
-0.015643 -5.42101e-20 0.00178357 0.00928099
0.015643 -5.42101e-20 0.00178358 -0.00697235
-0.0144913 2.45673e-20 0.00617807 0.00884173
0.0144913 -2.83113e-20 0.00617815 -0.00711918
-0.0149613 6.46235e-27 0.00503789 0.00890942
0.0149613 -1.29247e-26 0.00503791 -0.00719199
-0.015293 -2.71051e-20 0.00402498 0.00902163
0.015293 2.71051e-20 0.00402498 -0.00720656
-0.0146836 5.42101e-20 0.00595637 0.00887089
0.0146836 2.71051e-20 0.00595645 -0.00712761
-0.0145883 2.71051e-20 0.00642508 0.00882283
0.0145883 2.71051e-20 0.00642521 -0.00711808
0.015656 5.42101e-20 0.00305483 -0.00716373
-0.015656 0 0.00305482 0.00917852
-0.0152886 -2.71051e-20 0.00469604 0.00899966
0.0152886 2.71051e-20 0.00469605 -0.00723779
-0.0149599 0 0.00567319 0.00889679
0.0149599 0 0.00567325 -0.00715688
-0.0149577 0 0.00578436 0.00889766
-0.0156306 2.74413e-20 0.00369863 0.00911647
0.0156306 -3.41062e-21 0.00369863 -0.00719584
-0.014616 -2.06795e-25 0.00671977 0.00887603
0.0146159 0 0.00672001 -0.00707696
-0.0152799 2.71051e-20 0.00534522 0.00896377
0.0152799 5.42101e-20 0.00534525 -0.00720709
-0.0156111 8.96198e-21 0.00435793 0.00907959
0.0156111 -3.80318e-20 0.00435793 -0.00724646
-0.014947 0 0.0063163 0.00890183
0.014947 0 0.00631644 -0.00708836
-0.01624 0 1.57459e-08 0.00952033
0.01624 0 1.0552e-08 -0.0066036
-0.0147803 -1.03398e-25 0.00683986 0.00890294
-0.0162502 1.65436e-24 0.00116755 0.00947
0.0162502 4.68904e-20 0.00116754 -0.00680152
-0.0149088 2.71051e-20 0.00667202 0.00892916