# U  POINT_DATA 46570
# x  y  z  U_x  U_y  U_z
-4.1359e-25 4.18816e-09 1.89042e-09 3.36142e-07 4.55497e-11 3.59921e-08
-4.1359e-25 0.000325494 0 0 0 0
-2.71051e-20 -0.000312499 0.000268959 0.086102 9.92058e-06 0.00826443
-2.71051e-20 0.0003125 0.000268959 0.0860989 1.63959e-05 0.008264
-5.16988e-26 8.68036e-10 0.000443666 0.107468 2.00438e-05 0.00824483
0 1.66476e-10 0.000537325 0.130154 2.42751e-05 0.00998533
0 -0.000624994 2.25514e-09 4.25277e-07 -1.0751e-10 4.55375e-08
-4.1359e-25 0.000625 1.7395e-09 3.70323e-07 2.34911e-10 3.20047e-08
4.52364e-26 -0.000613167 0.000537324 0.130152 -4.2656e-05 0.00998579
0 0.000625001 0.000537325 0.130156 9.23953e-05 0.00998544
6.30079e-26 -0.000624999 0.000540154 0.130195 -4.39695e-05 0.00998506
0 -0.000312499 0.000800934 0.173976 2.52402e-05 0.0116974
-2.71051e-20 0.000312501 0.000800934 0.173975 4.54266e-05 0.0116974
-2.71051e-20 -0.000937499 0.000268959 0.0860918 -5.47477e-05 0.00826429
-2.71051e-20 0.0009375 0.000268959 0.0861059 8.12495e-05 0.00826466
1.72488e-20 -9.30037e-10 0.00106275 0.17864 3.47483e-05 0.00916648
0 -0.000624997 0.00106275 0.178639 -6.85124e-05 0.00916699
0 0.000624999 0.00106275 0.178641 0.000137771 0.00916632
-2.71051e-20 -0.000937499 0.000800933 0.173973 -0.000155976 0.011699
0 0.0009375 0.000800933 0.173978 0.00022605 0.0116975
0 -0.00125 2.58916e-09 4.88229e-07 -3.13773e-10 5.22793e-08
0 0.00125 2.46548e-09 5.39573e-07 5.52588e-10 4.66311e-08
0 -0.000312499 0.00130939 0.183226 7.16849e-06 0.00667733
2.71051e-20 0.000312501 0.00130939 0.183226 6.11774e-05 0.00667775
0 0.00125 0.000537325 0.130158 0.000160448 0.00998575
-1.26221e-20 -0.00125 0.000537324 0.130149 -0.000112821 0.00998642
1.55096e-25 -0.00125 0.000613749 0.137202 -0.000121505 0.0098674
2.21899e-20 -2.40737e-09 0.00155263 0.16079 2.5953e-05 0.0029553
-2.71051e-20 0.0015625 0.000268959 0.0861049 8.57467e-05 0.00826448
-2.71051e-20 -0.0015625 0.000268959 0.0860914 -6.22202e-05 0.00826436
5.42101e-20 -0.000937499 0.00130939 0.183226 -0.000150378 0.00667823
2.71051e-20 0.0009375 0.00130939 0.183228 0.00021836 0.00667648
-4.1359e-25 0.00125 0.00106275 0.178643 0.000241766 0.00916651
0 -0.00125 0.00106275 0.17864 -0.000172523 0.00916816
2.54887e-20 -0.000625002 0.00155263 0.16079 -5.56861e-05 0.00295548
0 0.000625005 0.00155263 0.16079 0.000107449 0.00295515
-2.71051e-20 0.0015625 0.000800933 0.173979 0.000247934 0.0116982
-5.42101e-20 -0.0015625 0.000800933 0.173974 -0.000177769 0.0116999
5.42101e-20 -0.000312498 0.00177922 0.138774 -1.07247e-06 -0.000697211
0 0.000312501 0.00177922 0.138774 3.68468e-05 -0.000697072
0 0.001875 3.03573e-09 6.64353e-07 9.55608e-10 5.74206e-08
-4.1359e-25 -0.001875 2.87008e-09 5.41221e-07 -5.568e-10 5.79571e-08
-4.1359e-25 0.001875 0.000537326 0.130157 0.000227313 0.00998615
1.5868e-20 -0.001875 0.000537324 0.130152 -0.000180876 0.00998711
-5.16988e-26 -0.001875 0.000643949 0.139992 -0.000200111 0.00982099
8.27181e-25 0.00125 0.00155263 0.160792 0.000189329 0.00295539
0 -0.00125 0.00155263 0.160792 -0.000137851 0.0029563
8.27181e-25 6.16903e-09 0.002 1.44979e-06 1.89819e-10 -2.39344e-08
5.42101e-20 -0.000937497 0.00177922 0.138775 -7.90596e-05 -0.000696831
0 0.000937501 0.00177922 0.138773 0.000114624 -0.000696985
-5.42101e-20 0.0015625 0.00130939 0.183231 0.000274563 0.00667778
-2.71051e-20 -0.0015625 0.00130939 0.183229 -0.000205782 0.00667947
8.27181e-25 -0.00062499 0.002 1.47949e-06 -4.27917e-10 -2.44232e-08
0 0.000625006 0.002 1.42055e-06 7.81151e-10 -2.34503e-08
0 0.001875 0.00106275 0.178645 0.000344408 0.00916706
-2.06795e-25 -0.001875 0.00106275 0.178643 -0.000275661 0.0091685
2.71051e-20 -0.0021875 0.000268959 0.0860972 -0.000126113 0.00826572
2.71051e-20 0.0021875 0.000268959 0.0860985 0.00014949 0.00826502
5.42101e-20 0.0021875 0.000800933 0.17398 0.000424926 0.0116988
-2.71051e-20 -0.0021875 0.000800933 0.173979 -0.000356488 0.0117003
0 -0.00124998 0.002 1.49493e-06 -1.06426e-09 -2.46705e-08
8.27181e-25 0.00125001 0.002 1.41681e-06 1.36914e-09 -2.33839e-08
0 -0.0015625 0.00177922 0.138778 -0.000117692 -0.000696084
5.42101e-20 0.0015625 0.00177922 0.138777 0.00015191 -0.000696161
0 0.001875 0.00155263 0.160795 0.00027074 0.0029559
0 -0.001875 0.00155263 0.160794 -0.00021979 0.00295654
0 0.0025 3.12706e-09 6.84325e-07 1.28416e-09 5.91531e-08
0 -0.0025 3.03695e-09 5.72703e-07 -8.0919e-10 6.13327e-08
0 0.0021875 0.00130939 0.183233 0.000429943 0.00667742
0 -0.0021875 0.00130939 0.183232 -0.000362321 0.00667826
0 0.0025 0.000537326 0.130156 0.000296221 0.00998676
-7.68089e-21 -0.0025 0.000537324 0.130155 -0.000249368 0.0099879
5.16988e-26 -0.0025 0.000644518 0.140048 -0.00027602 0.00982085
-4.1359e-25 0.0025 0.00106275 0.178647 0.000448652 0.00916781
0 -0.0025 0.00106275 0.178646 -0.000380006 0.00916907
0 -0.00187498 0.002 1.50174e-06 -1.70397e-09 -2.47777e-08
0 0.00187501 0.002 1.44537e-06 1.9983e-09 -2.3849e-08
0 -0.0021875 0.00177922 0.138778 -0.000195772 -0.000695894
0 0.0021875 0.00177922 0.138778 0.0002296 -0.000695875
-2.71051e-20 0.0028125 0.000268959 0.0860992 0.000157592 0.00826505
-2.71051e-20 -0.0028125 0.000268959 0.0860958 -0.000132317 0.00826596
0 -0.0028125 0.000800933 0.173982 -0.000381288 0.0117015
0 0.0028125 0.000800933 0.173984 0.000451375 0.0117
8.27181e-25 0.0025 0.00155263 0.160798 0.000352808 0.00295648
8.27181e-25 -0.0025 0.00155263 0.160798 -0.000301876 0.00295699
2.71051e-20 0.0028125 0.00130939 0.183237 0.000488016 0.00667894
-2.71051e-20 -0.0028125 0.00130939 0.183237 -0.000419558 0.00668017
0 -0.003125 3.07351e-09 6.07135e-07 -1.09008e-09 6.50253e-08
-4.1359e-25 0.003125 2.74456e-09 6.29198e-07 1.4494e-09 5.43954e-08
-2.06795e-25 0.003125 0.000537325 0.130156 0.000363681 0.00998775
2.58494e-26 -0.003125 0.000537325 0.130152 -0.000316739 0.00998901
5.16988e-26 -0.003125 0.000584455 0.134502 -0.000331624 0.00991561
0 -0.00249999 0.002 1.50488e-06 -2.33718e-09 -2.4822e-08
8.27181e-25 0.00250001 0.002 1.48644e-06 2.6779e-09 -2.45197e-08
4.1359e-25 0.003125 0.00106275 0.178651 0.000551318 0.00916913
0 -0.003125 0.00106275 0.178649 -0.000482676 0.00917066
0 -0.0028125 0.00177922 0.138783 -0.000233192 -0.000694988
-2.71051e-20 0.0028125 0.00177922 0.138784 0.000267652 -0.000694994
2.71051e-20 0.0034375 0.000268959 0.086091 0.000219564 0.0082657
2.71051e-20 -0.0034375 0.000268959 0.086084 -0.000195618 0.00826666
0 -0.00343926 0.000537325 0.130151 -0.000351703 0.00998967
0 0.003125 0.00155263 0.160803 0.000434123 0.00295726
-8.27181e-25 -0.003125 0.00155263 0.160802 -0.000383072 0.00295807
2.71051e-20 0.0034375 0.000800933 0.173985 0.000624347 0.0117021
0 -0.0034375 0.000800934 0.173982 -0.000556123 0.0117038
-2.06795e-25 0.0035933 0 0 0 0
-2.71051e-20 0.0034375 0.00130939 0.183242 0.000641089 0.0066794
2.71051e-20 -0.0034375 0.00130939 0.18324 -0.000573272 0.00668115
-2.06795e-25 -0.00370588 0 0 0 0
0 -0.00312499 0.002 1.47925e-06 -2.91256e-09 -2.43895e-08
0 0.00312502 0.002 1.50633e-06 3.34068e-09 -2.48403e-08
0 0.00375 9.18407e-10 1.76886e-07 4.33541e-10 1.8943e-08
-5.16988e-26 -0.00375 2.33417e-10 5.2168e-08 -1.27635e-10 4.5119e-09
-1.03398e-25 0.00375 0.000283348 0.0686348 0.000228044 0.00526744
0 0.00375 0.000537325 0.130155 0.000432449 0.00998885
0 -0.00375 0.000537325 0.130149 -0.000386275 0.00999031
1.03398e-25 -0.00380584 0 0 0 0
2.71051e-20 -0.0034375 0.00177922 0.138788 -0.000310515 -0.000694471
-5.42101e-20 0.0034375 0.00177922 0.138789 0.000344627 -0.000694745
4.1359e-25 0.00375 0.00106275 0.178655 0.000655836 0.00917063
0 -0.00375 0.00106275 0.178653 -0.000587337 0.00917254
0 0.00375 0.00155263 0.160809 0.000516699 0.00295821
0 -0.00375 0.00155263 0.160808 -0.000465661 0.00295929
2.71051e-20 -0.0040625 0.000268959 0.0860807 -0.00020564 0.00826682
0 0.0040625 0.000268959 0.0860894 0.000228756 0.00826583
2.71051e-20 0.0040625 0.000800933 0.17399 0.000654932 0.0117036
2.71051e-20 -0.0040625 0.000800933 0.173986 -0.00058576 0.0117058
8.27181e-25 -0.00375 0.002 1.38096e-06 -3.30591e-09 -2.27598e-08
0 0.00375002 0.002 1.49969e-06 3.95954e-09 -2.47224e-08
0 0.0040625 0.00130939 0.183249 0.000702439 0.00668138
2.71051e-20 -0.0040625 0.00130939 0.183248 -0.000633649 0.00668338
0 -0.004375 2.37906e-09 4.45164e-07 -1.1496e-09 4.76857e-08
0 0.004375 1.49138e-09 2.73559e-07 7.79278e-10 2.92979e-08
-5.16988e-26 0.004375 0.000427572 0.103572 0.000397595 0.00794945
-5.16988e-26 -0.004375 0.000475979 0.115293 -0.000402651 0.00885092
0 0.004375 0.000537324 0.130157 0.000499653 0.00998995
-5.16988e-26 -0.004375 0.000537324 0.130152 -0.000454545 0.00999164
-2.71051e-20 -0.0040625 0.00177922 0.138797 -0.000350375 -0.00069327
-2.71051e-20 0.0040625 0.00177922 0.138797 0.000384455 -0.00069361
0 0.004375 0.00106275 0.178662 0.000758385 0.0091718
-2.06795e-25 -0.004375 0.00106275 0.178659 -0.00069033 0.00917388
-3.53206e-22 0.004375 0.00155263 0.160816 0.000598229 0.00295895
4.1359e-25 -0.004375 0.00155263 0.160815 -0.000547459 0.0029601
2.71051e-20 -0.0046875 0.000268959 0.086083 -0.000267934 0.00826845
0 0.0046875 0.000268959 0.0860893 0.000289147 0.00826723
-2.71051e-20 0.0046875 0.000800933 0.173996 0.000823239 0.011705
2.71051e-20 -0.0046875 0.000800933 0.173992 -0.000756551 0.0117073
2.06795e-25 -0.00480157 0 0 0 0
8.27181e-25 -0.004375 0.002 1.25887e-06 -3.54612e-09 -2.07411e-08
-8.27181e-25 0.00437502 0.002 1.48941e-06 4.55659e-09 -2.45448e-08
-2.71051e-20 -0.0046875 0.00130939 0.183254 -0.000784725 0.00668301
0 0.0046875 0.00130939 0.183256 0.00085229 0.00668119
0 0.005 1.88411e-09 3.45575e-07 1.11263e-09 3.70137e-08
-2.06795e-25 -0.005 1.10669e-09 2.47347e-07 -8.24309e-10 2.13984e-08
0 -0.0046875 0.00177922 0.1388 -0.000427151 -0.000693117
5.42101e-20 0.0046875 0.00177922 0.138803 0.000460447 -0.000693569
-5.16988e-26 0.005 0.000475216 0.115114 0.000502571 0.00883639
0 -0.005 0.000537324 0.130156 -0.00052372 0.009993
3.35846e-20 0.005 0.000537324 0.130159 0.000568255 0.00999126
1.48756e-20 0.005 0.00106275 0.178668 0.000862519 0.00917325
2.06795e-25 -0.005 0.00106275 0.178666 -0.000795008 0.00917499
1.32928e-21 0.005 0.00155263 0.160824 0.000680422 0.00295978
-4.1359e-25 -0.005 0.00155263 0.160821 -0.000629945 0.00296068
1.03398e-25 -0.00523738 0 0 0 0
0 -0.0053125 0.000268959 0.0860836 -0.000277558 0.00826893
2.71051e-20 0.0053125 0.000268959 0.0860827 0.000299827 0.00826736
0 -0.0053125 0.000800933 0.174 -0.000790192 0.0117091
0 0.0053125 0.000800933 0.174002 0.000857923 0.0117073
0 -0.005 0.002 2.47092e-07 -8.00592e-10 -4.06988e-09
8.27181e-25 0.00500002 0.002 1.45415e-06 5.06064e-09 -2.3955e-08
5.42101e-20 0.0053125 0.00130939 0.183264 0.000915897 0.00668351
0 -0.0053125 0.00130939 0.183263 -0.000847846 0.00668449
0 -0.0053125 0.00177922 0.138808 -0.000467046 -0.000692031
0 0.0053125 0.00177922 0.138812 0.00050069 -0.000692419
0 0.005625 1.97865e-09 3.51724e-07 1.26572e-09 3.76754e-08
0 -0.005625 1.80716e-09 3.21226e-07 -1.07841e-09 3.44161e-08
5.16988e-26 0.005625 0.000452325 0.10957 0.000535187 0.00841212
5.16988e-26 -0.005625 0.00045956 0.11132 -0.00050579 0.00854816
0 0.005625 0.000537324 0.13016 0.000635758 0.0099929
0 -0.005625 0.000537324 0.130157 -0.000591376 0.00999462
2.06795e-25 0.005625 0.00106275 0.178676 0.000965034 0.00917522
0 -0.005625 0.00106275 0.178673 -0.000898031 0.00917685
0 0.005625 0.00155263 0.160833 0.000761486 0.00296085
-4.1359e-25 -0.005625 0.00155263 0.16083 -0.000711247 0.00296178
-5.42101e-20 -0.0059375 0.000268959 0.0860739 -0.00033769 0.00827008
0 0.0059375 0.000268959 0.08608 0.000359345 0.00826881
0 0.005625 0.002 1.35964e-06 5.2955e-09 -2.239e-08
0 -0.005625 0.002 1.30998e-06 -4.78871e-09 -2.1569e-08
0 -0.0059375 0.000800933 0.174003 -0.000957074 0.0117121
2.71051e-20 0.0059375 0.000800933 0.174009 0.00102271 0.0117099
-2.06795e-25 0.00603562 0 0 0 0
5.42101e-20 -0.0059375 0.00130939 0.18327 -0.000996202 0.00668563
5.42101e-20 0.0059375 0.00130939 0.183274 0.00106278 0.00668413
0 -0.0059375 0.00177922 0.138817 -0.000541797 -0.000691339
2.71051e-20 0.0059375 0.00177922 0.138821 0.000575114 -0.000692194
0 -0.00625 1.73536e-09 3.18219e-07 -1.19044e-09 3.40978e-08
0 0.00625 1.03302e-09 2.30866e-07 1.0304e-09 1.99785e-08
0 -0.00625 0.000481817 0.11671 -0.000592403 0.00896387
0 0.00625 0.000537324 0.13016 0.000704414 0.00999474
0 -0.00625 0.000537324 0.130155 -0.000660651 0.00999655
0 0.00625 0.00106275 0.178685 0.00106936 0.00917753
2.06795e-25 -0.00625 0.00106275 0.17868 -0.00100309 0.00917942
0 0.00643483 0 0 0 0
0 0.00625 0.00155263 0.160843 0.000843688 0.00296215
0 -0.00625 0.00155263 0.160839 -0.000794029 0.00296331
0 -0.00624999 0.002 1.39092e-06 -5.67443e-09 -2.28926e-08
0 0.00625001 0.002 1.28592e-06 5.54767e-09 -2.11677e-08
2.71051e-20 -0.0065625 0.000268959 0.0860681 -0.000349218 0.00827063
0 0.0065625 0.000268959 0.0860725 0.000370571 0.00826913
0 0.0065625 0.000800933 0.174015 0.00106146 0.0117129
-5.42101e-20 -0.0065625 0.000800933 0.17401 -0.00099528 0.0117152
2.71051e-20 0.0065625 0.00130939 0.183285 0.00112957 0.0066872
0 -0.0065625 0.00130939 0.18328 -0.00106292 0.0066888
-2.71051e-20 -0.0065625 0.00177922 0.13883 -0.000584027 -0.00069021
2.71051e-20 0.0065625 0.00177922 0.138834 0.000616744 -0.000690912
-4.1359e-25 0.006875 2.46002e-09 4.73641e-07 2.0789e-09 5.07448e-08
-2.06795e-25 -0.006875 1.56665e-09 3.01604e-07 -1.23976e-09 3.23214e-08
0 -0.006875 0.00044432 0.107625 -0.000602962 0.0082679
0 0.006875 0.000496296 0.120222 0.000712779 0.00923333
0 -0.006875 0.000537324 0.130153 -0.000729173 0.00999852
5.16988e-26 0.006875 0.000537324 0.130161 0.000771703 0.00999664
0 0.006875 0.00106275 0.178694 0.00117193 0.00917995
2.06795e-25 -0.006875 0.00106275 0.178687 -0.00110703 0.00918203
0 -0.006875 0.00155263 0.160849 -0.000876622 0.00296477
-1.55816e-20 0.006875 0.00155263 0.160855 0.000924975 0.00296353
0 -0.00687498 0.002 1.44095e-06 -6.49353e-09 -2.37064e-08
0 0.00687501 0.002 1.32207e-06 6.25402e-09 -2.1754e-08
-2.06795e-25 -0.00718784 0 0 0 0
0 0.0071875 0.000268959 0.0860668 0.000428796 0.00827067
-2.71051e-20 -0.0071875 0.000268959 0.0860552 -0.000409408 0.00827172
0 0.00719922 0.000537324 0.130161 0.000807397 0.00999768
2.71051e-20 -0.0071875 0.000800933 0.174014 -0.0011591 0.0117183
2.71051e-20 0.0071875 0.000800933 0.174024 0.00122207 0.0117157
0 -0.0071875 0.00130939 0.183289 -0.00120984 0.00668986
0 0.0071875 0.00130939 0.183296 0.0012736 0.00668808
-2.71051e-20 -0.0071875 0.00177922 0.138839 -0.000659437 -0.000689693
0 0.0071875 0.00177922 0.138845 0.000690349 -0.000690594
-4.1359e-25 0.0075 3.01477e-09 5.68205e-07 2.70333e-09 6.08825e-08
0 -0.0075 1.56321e-09 3.58248e-07 -1.83377e-09 3.10259e-08
-1.03398e-25 -0.0075 0.000537325 0.130152 -0.000800238 0.0100003
-2.58494e-26 0.0075 0.000537324 0.130161 0.00084051 0.00999865
-2.58494e-26 0.0075 0.000601631 0.136103 0.000893812 0.00989876
-2.06795e-25 -0.0075 0.00106275 0.178695 -0.00121349 0.00918414
0 0.0075 0.00106275 0.178705 0.00127602 0.00918245
0 -0.0075 0.00155263 0.16086 -0.000960634 0.0029659
3.57268e-20 0.0075 0.00155263 0.160868 0.00100708 0.00296486
0 -0.00749998 0.002 1.48054e-06 -7.31443e-09 -2.43499e-08
0 0.00750002 0.002 1.40966e-06 7.2604e-09 -2.3186e-08
5.42101e-20 -0.0078125 0.000268959 0.0860504 -0.000424891 0.00827218
0 0.0078125 0.000268959 0.0860565 0.000442266 0.00827105
0 0.0078125 0.000800933 0.174033 0.00126464 0.011719
5.42101e-20 -0.0078125 0.000800933 0.174022 -0.00120352 0.0117206
0 -0.0078125 0.00130939 0.183301 -0.00128043 0.00669186
2.71051e-20 0.0078125 0.00130939 0.183309 0.00134268 0.00669109
0 -0.0078125 0.00177922 0.13885 -0.00070349 -0.000688745
-5.42101e-20 0.0078125 0.00177922 0.13886 0.000732965 -0.000689444
0 0.008125 3.31891e-09 6.2545e-07 3.22003e-09 6.70229e-08
2.06795e-25 -0.008125 1.18008e-09 2.51127e-07 -1.40133e-09 2.17502e-08
2.50714e-20 0.008125 0.000537324 0.130162 0.000908565 0.0100008
1.03398e-25 -0.008125 0.000537324 0.130156 -0.000871367 0.0100015
5.16988e-26 0.008125 0.000675356 0.142918 0.00103207 0.0097865
0 -0.008125 0.00106275 0.178705 -0.0013192 0.00918543
0 0.008125 0.00106275 0.178716 0.0013787 0.00918513
0 -0.008125 0.00155263 0.16087 -0.00104411 0.00296665
0 0.008125 0.00155263 0.160882 0.00108822 0.00296626
-4.1359e-25 -0.00831693 0 0 0 0
8.27181e-25 -0.00812498 0.002 1.51778e-06 -8.15429e-09 -2.49571e-08
0 0.00812501 0.002 1.46415e-06 8.14954e-09 -2.40719e-08
2.71051e-20 -0.0084375 0.000268959 0.086055 -0.000486704 0.0082737
-5.42101e-20 0.0084375 0.000268959 0.0860514 0.00050038 0.00827251
2.71051e-20 -0.0084375 0.000800933 0.17403 -0.00136598 0.0117214
2.71051e-20 0.0084375 0.000800933 0.174043 0.00142237 0.0117223
2.71051e-20 -0.0084375 0.00130939 0.18331 -0.00142574 0.00669194
2.71051e-20 0.0084375 0.00130939 0.183323 0.00148395 0.00669219
0 -0.0084375 0.00177922 0.13886 -0.000778367 -0.000688744
5.42101e-20 0.0084375 0.00177922 0.138874 0.000805456 -0.000689105
-1.61559e-26 -0.00872447 0.000537324 0.130168 -0.000941443 0.0100018
8.27181e-25 0.00875 3.4154e-09 6.43569e-07 3.56927e-09 6.89702e-08
0 -0.00875 2.66276e-09 4.88248e-07 -2.61468e-09 5.23503e-08
-8.82933e-21 0.00875 0.000537325 0.130165 0.000977908 0.0100029
0 -0.00875 0.000537324 0.130168 -0.000944427 0.0100019
3.23117e-26 -0.00875 0.000544029 0.130788 -0.000950582 0.00999144
0 0.00875 0.000721296 0.147169 0.00115474 0.00971742
0 -0.00875 0.00106275 0.178715 -0.0014267 0.00918525
0 0.00875 0.00106275 0.178729 0.00148295 0.00918763
0 -0.00875 0.00155263 0.160881 -0.00112873 0.00296674
8.27181e-25 0.00875 0.00155263 0.160897 0.00117023 0.00296754
0 -0.00874999 0.002 1.53374e-06 -8.91298e-09 -2.52194e-08
0 0.00875001 0.002 1.48311e-06 8.8763e-09 -2.43743e-08
-8.13152e-20 0.0090625 0.000268959 0.0860442 0.000515209 0.0082729
-2.71051e-20 -0.0090625 0.000268959 0.0860796 -0.000505374 0.00827458
0 -0.0090625 0.000800933 0.174043 -0.00141493 0.0117195
0 0.0090625 0.000800933 0.174055 0.00146873 0.0117255
2.71051e-20 -0.0090625 0.00130939 0.18332 -0.00149895 0.00669218
0 0.0090625 0.00130939 0.183339 0.0015555 0.00669461
-2.71051e-20 -0.0090625 0.00177922 0.138873 -0.000824375 -0.000688723
-2.71051e-20 0.0090625 0.00177922 0.138891 0.000849121 -0.000687818
0 -0.009375 3.41999e-09 6.44866e-07 -3.71737e-09 6.91506e-08
0 0.009375 3.38892e-09 6.38491e-07 3.79091e-09 6.84289e-08
4.53481e-21 0.009375 0.000537325 0.130166 0.00104585 0.0100046
-2.58216e-20 -0.009375 0.000537325 0.130187 -0.00101592 0.0100008
5.16988e-26 -0.009375 0.000657758 0.141313 -0.0011343 0.00981341
-1.03398e-25 0.009375 0.000733189 0.148274 0.00124706 0.00970092
0 -0.009375 0.00106275 0.178727 -0.00153242 0.00918328
-2.06795e-25 0.009375 0.00106275 0.178743 0.0015856 0.00918996
0 -0.009375 0.00155263 0.160891 -0.00121248 0.00296592
2.40801e-20 0.009375 0.00155263 0.160913 0.00125115 0.00296877
0 -0.00937499 0.002 1.52059e-06 -9.49827e-09 -2.50079e-08
8.27181e-25 0.00937502 0.002 1.48417e-06 9.49312e-09 -2.43826e-08
-2.71051e-20 -0.0096875 0.000268959 0.0861026 -0.000565357 0.00827498
-2.71051e-20 0.0096875 0.000268959 0.0860328 0.000571663 0.00827333
0 0.0096875 0.000800933 0.174066 0.00162252 0.0117284
-2.71051e-20 -0.0096875 0.000800933 0.174057 -0.00157295 0.0117159
2.71051e-20 -0.0096875 0.00130939 0.183331 -0.00164157 0.00668959
2.71051e-20 0.0096875 0.00130939 0.183357 0.00169432 0.00669545
2.71051e-20 -0.0096875 0.00177922 0.138881 -0.000898437 -0.000689687
2.71051e-20 0.0096875 0.00177922 0.138906 0.000919678 -0.000687423
0 -0.01 3.8459e-09 7.25436e-07 -4.48979e-09 7.77863e-08
4.1359e-25 0.01 3.10988e-09 5.85793e-07 3.70592e-09 6.27794e-08
-2.69368e-20 0.01 0.000537325 0.130164 0.00111407 0.0100057
1.13406e-20 -0.01 0.000537325 0.130205 -0.00108769 0.0099983
0 -0.01 0.000705326 0.145724 -0.00126391 0.00973664
-1.03398e-25 0.01 0.000715197 0.146614 0.00130873 0.00973039
2.06795e-25 -0.01 0.00106275 0.17874 -0.00163883 0.00917997
0 0.01 0.00106275 0.178758 0.00168907 0.00919237
8.27181e-25 -0.01 0.00155263 0.160902 -0.00129636 0.00296444
-5.70217e-21 0.01 0.00155263 0.160931 0.00133241 0.00297008
-8.27181e-25 -0.00999999 0.002 1.48485e-06 -9.91811e-09 -2.44275e-08
0 0.01 0.002 1.47549e-06 1.00431e-08 -2.42306e-08
2.71051e-20 -0.0103125 0.000268959 0.0861219 -0.000583387 0.00827335
5.42101e-20 0.0103125 0.000268959 0.0860138 0.000585899 0.0082718
0 -0.0103125 0.000800933 0.174074 -0.00162365 0.0117108
0 0.0103125 0.000800933 0.174076 0.00167055 0.0117312
2.71051e-20 0.0103125 0.00130939 0.183375 0.00176749 0.00669859
0 -0.0103125 0.00130939 0.183342 -0.00171579 0.00668761
2.71051e-20 0.0103125 0.00177922 0.138926 0.000963084 -0.000686551
2.71051e-20 -0.0103125 0.00177922 0.138893 -0.000943983 -0.000690103
0 -0.010625 3.859e-09 7.28118e-07 -4.8073e-09 7.80592e-08
0 0.010625 2.71477e-09 4.97298e-07 3.31831e-09 5.32911e-08
-2.388e-20 -0.010625 0.000537325 0.130221 -0.00115752 0.00999483
3.2301e-20 0.010625 0.000537324 0.130156 0.00117993 0.0100065
5.16988e-26 0.010625 0.00064136 0.139782 0.00130083 0.00984583
1.03398e-25 -0.010625 0.00071329 0.146475 -0.00135358 0.0097206
0 0.010625 0.00106275 0.178771 0.00179052 0.00919512
0 -0.010625 0.00106275 0.178754 -0.00174293 0.00917598
0 0.010625 0.00155263 0.16095 0.00141261 0.00297172
0 -0.010625 0.00155263 0.160913 -0.0013785 0.00296264
0 0.010625 0.002 1.46677e-06 1.0579e-08 -2.40761e-08
0 -0.010625 0.002 1.44997e-06 -1.02981e-08 -2.38627e-08
2.71051e-20 0.0109375 0.000268959 0.0859855 0.000638113 0.00827045
2.71051e-20 -0.0109375 0.000268959 0.0861339 -0.000640547 0.00827155
0 -0.0109375 0.000800933 0.174089 -0.00177676 0.0117054
2.71051e-20 0.0109375 0.000800933 0.174084 0.00181919 0.0117342
2.71051e-20 -0.0109375 0.00130939 0.183355 -0.00185412 0.00668402
2.71051e-20 0.0109375 0.00130939 0.183393 0.00190333 0.00670063
0 0.0109375 0.00177922 0.138945 0.00103238 -0.000685999
0 -0.0109375 0.00177922 0.138903 -0.00101534 -0.000691337
-2.58494e-25 0.0111652 0 0 0 0
0 -0.01125 5.75757e-10 1.08659e-07 -7.61509e-10 1.16459e-08
0 0.01125 4.26441e-10 9.25162e-08 7.29406e-10 8.02593e-09
0 0.01125 0.000518313 0.125542 0.00120177 0.00965338
2.15444e-20 -0.01125 0.000537325 0.130234 -0.00122732 0.00999075
-3.23117e-27 0.01125 0.000537324 0.130147 0.00124585 0.0100075
-9.37041e-26 0.01125 0.000543682 0.130735 0.00125367 0.00999767
1.03398e-25 -0.01125 0.000708604 0.146055 -0.0014295 0.00972376
0 0.01125 0.00106275 0.178785 0.0018925 0.0091983
0 -0.01125 0.00106275 0.178768 -0.00184753 0.00917173
-2.06795e-25 0.0113285 0 0 0 0
8.27181e-25 0.01125 0.00155263 0.16097 0.0014933 0.00297363
0 -0.01125 0.00155263 0.160926 -0.00146079 0.0029607
0 0.01125 0.002 1.46428e-06 1.11606e-08 -2.40223e-08
0 -0.01125 0.002 1.43695e-06 -1.08111e-08 -2.36586e-08
0 0.0115625 0.000268959 0.0859569 0.000651393 0.00826887
0 -0.0115625 0.000268959 0.086143 -0.000657333 0.00826831
-2.71051e-20 0.0115625 0.000800933 0.174094 0.00186836 0.011738
0 -0.0115625 0.000800933 0.174104 -0.00182854 0.0116996
0 0.0115625 0.00130939 0.183414 0.0019775 0.00670451
-2.71051e-20 -0.0115625 0.00130939 0.183368 -0.0019292 0.00668184
0 0.0115625 0.00177922 0.138969 0.00107675 -0.000684782
5.42101e-20 -0.0115625 0.00177922 0.138916 -0.00106064 -0.000692121
0 0.0118072 0.000537324 0.130138 0.00130304 0.0100089
0 -0.011875 3.61703e-09 6.82729e-07 -5.05335e-09 7.3152e-08
0 0.011875 2.96792e-09 5.70351e-07 4.23318e-09 6.11132e-08
0 0.011875 0.000537324 0.130123 0.00130986 0.0100079
-3.657e-20 -0.011875 0.000537325 0.130245 -0.00129517 0.00998622
1.55096e-25 -0.011875 0.000741106 0.14907 -0.00154914 0.00966857
4.03897e-27 0.0118891 0.000537324 0.130137 0.00131147 0.0100091
2.06795e-25 0.011875 0.00106275 0.178801 0.00199243 0.00920201
-2.06795e-25 -0.011875 0.00106275 0.178783 -0.00195 0.00916718
-3.27564e-21 0.011875 0.00155263 0.160992 0.00157296 0.00297578
0 -0.011875 0.00155263 0.160939 -0.00154179 0.00295865
0 0.011875 0.002 1.47008e-06 1.18016e-08 -2.41028e-08
0 -0.011875 0.002 1.44362e-06 -1.14599e-08 -2.37798e-08
5.42101e-20 -0.0121875 0.000268959 0.086147 -0.000711762 0.00826545
0 0.0121875 0.000268959 0.0859262 0.000701663 0.00826847
-2.71051e-20 0.0121875 0.000800933 0.174104 0.00201194 0.0117425
0 -0.0121875 0.000800933 0.17412 -0.0019766 0.0116935
0 0.0121875 0.00130939 0.183434 0.00211021 0.00670718
0 -0.0121875 0.00130939 0.183383 -0.0020641 0.00667774
0 -0.0121875 0.00177922 0.13893 -0.00113028 -0.000693301
0 0.0121875 0.00177922 0.13899 0.00114503 -0.000683903
0 -0.0125 3.63617e-09 6.86391e-07 -5.34943e-09 7.352e-08
2.58494e-26 0.0125 1.91769e-10 3.60625e-08 2.79683e-10 3.86421e-09
2.98276e-20 -0.0125 0.000537325 0.130253 -0.00136321 0.00998156
0 0.0125 0.000537325 0.130127 0.00137486 0.0100115
5.16988e-26 0.0125 0.000568104 0.132979 0.00141693 0.0099643
0 -0.0125 0.000751917 0.15008 -0.00164485 0.00964709
2.06795e-25 0.0125 0.00106275 0.178817 0.00209306 0.00920646
0 -0.0125 0.00106275 0.178799 -0.00205279 0.00916261
-1.35658e-22 0.0125 0.00155263 0.161014 0.00165289 0.00297817
4.1359e-25 -0.0125 0.00155263 0.160954 -0.00162258 0.00295654
0 0.0125 0.002 1.48034e-06 1.24861e-08 -2.42549e-08
8.27181e-25 -0.0125 0.002 1.45931e-06 -1.21844e-08 -2.40492e-08
-5.42101e-20 0.0128125 0.000268959 0.0858942 0.000715883 0.00826799
-5.42101e-20 -0.0128125 0.000268959 0.0861443 -0.000728198 0.00826142
-5.42101e-20 -0.0128125 0.000800933 0.174137 -0.00202953 0.0116878
2.71051e-20 0.0128125 0.000800934 0.174115 0.00206293 0.0117485
2.71051e-20 0.0128125 0.00130939 0.183457 0.00218531 0.00671183
-2.71051e-20 -0.0128125 0.00130939 0.1834 -0.0021393 0.00667529
0 -0.0128125 0.00177922 0.138945 -0.00117458 -0.000694076
2.71051e-20 0.0128125 0.00177922 0.139015 0.00118958 -0.000682494
-8.27181e-25 0.013125 3.40077e-09 6.39194e-07 5.18024e-09 6.84978e-08
-4.1359e-25 -0.013125 3.11849e-09 5.88665e-07 -4.81092e-09 6.30303e-08
-3.72395e-20 -0.013125 0.000537324 0.130259 -0.00142959 0.009977
1.07052e-20 0.013125 0.000537325 0.130117 0.00143897 0.0100148
0 0.013125 0.00064427 0.140033 0.00159237 0.00985131
5.16988e-26 -0.013125 0.000689854 0.144355 -0.00163974 0.00973941
0 0.013125 0.00106275 0.178834 0.00219261 0.00921174
2.06795e-25 -0.013125 0.00106275 0.178815 -0.0021535 0.00915857
0 0.013125 0.00155263 0.161038 0.00173186 0.00298094
0 -0.013125 0.00155263 0.16097 -0.0017017 0.00295463
0 0.013125 0.002 1.48811e-06 1.31482e-08 -2.43633e-08
-8.27181e-25 -0.013125 0.002 1.48321e-06 -1.29791e-08 -2.44521e-08
0 0.0134375 0.000268959 0.0858631 0.00076513 0.00826893
0 -0.0134375 0.000268959 0.0861375 -0.000780445 0.0082578
2.71051e-20 -0.0134375 0.000800933 0.174151 -0.00217308 0.0116829
0 0.0134375 0.000800933 0.174127 0.00220457 0.0117552
-5.42101e-20 -0.0134375 0.00130939 0.183417 -0.00227035 0.00667208
0 0.0134375 0.00130939 0.183481 0.00231569 0.00671564
0 -0.0134375 0.00177922 0.138959 -0.00124144 -0.000695322
0 0.0134375 0.00177922 0.139038 0.0012563 -0.000681243
8.27181e-25 0.01375 3.54584e-09 6.6608e-07 5.63339e-09 7.13891e-08
0 -0.01375 2.12326e-09 4.00781e-07 -3.42604e-09 4.28976e-08
3.62485e-20 0.01375 0.000537325 0.130105 0.00150408 0.0100188
0 -0.01375 0.000537324 0.130262 -0.00149621 0.00997274
0 -0.01375 0.000549744 0.131411 -0.00151414 0.00995341
5.16988e-26 0.01375 0.000717791 0.146848 0.00177521 0.00974375
-2.06795e-25 -0.01375 0.00106275 0.178832 -0.00225473 0.00915518
-2.06795e-25 0.01375 0.00106275 0.178852 0.00229349 0.009218
0 -0.0138031 0.000537324 0.130263 -0.00150174 0.00997238
0 -0.01375 0.00155263 0.160987 -0.00178105 0.00295296
0 0.01375 0.00155263 0.161063 0.0018115 0.00298422
8.27181e-25 -0.01375 0.002 1.51559e-06 -1.38699e-08 -2.49938e-08
-8.27181e-25 0.01375 0.002 1.4906e-06 1.37712e-08 -2.43821e-08
-2.71051e-20 -0.0140625 0.000268959 0.0861298 -0.000796683 0.0082534
0 0.0140625 0.000268959 0.0858253 0.000780103 0.00826926
0 -0.0140625 0.000800933 0.174166 -0.00222717 0.0116787
-2.71051e-20 0.0140625 0.000800933 0.174138 0.0022588 0.0117633
-2.71051e-20 -0.0140625 0.00130939 0.183436 -0.0023465 0.00667075
2.71051e-20 0.0140625 0.00130939 0.183506 0.00239284 0.00672207
0 -0.0140625 0.00177922 0.138976 -0.00128567 -0.000696231
0 0.0140625 0.00177922 0.139066 0.0013015 -0.000679551
0 0.014375 3.7675e-09 7.07276e-07 6.23188e-09 7.5818e-08
-2.06795e-25 -0.014375 1.49756e-09 2.74957e-07 -2.44523e-09 2.94198e-08
0 -0.014375 0.000430035 0.104254 -0.00124958 0.00797805
2.24612e-20 0.014375 0.000537325 0.130093 0.00156838 0.0100234
5.16988e-26 -0.014375 0.000537324 0.130264 -0.00156133 0.00996848
1.03398e-25 0.014375 0.000755837 0.150378 0.00191136 0.0096914
0 -0.014375 0.00106275 0.178848 -0.00235446 0.00915194
0 0.014375 0.00106275 0.178871 0.00239309 0.00922503
0 -0.014375 0.00155263 0.161005 -0.00185957 0.00295137
-1.77596e-21 0.014375 0.00155263 0.161089 0.00189061 0.00298797
0 -0.014375 0.002 1.5377e-06 -1.46817e-08 -2.53673e-08
0 0.014375 0.002 1.4918e-06 1.43823e-08 -2.43783e-08
0 0.0146875 0.000268959 0.0857893 0.00082936 0.00827082
0 -0.0146875 0.000268959 0.0861153 -0.000846887 0.00824936
-2.71051e-20 0.0146875 0.000800933 0.17415 0.00239723 0.0117718
-2.71051e-20 -0.0146875 0.000800933 0.17418 -0.0023668 0.0116743
2.71051e-20 -0.0146875 0.00130939 0.183455 -0.00247545 0.00666769
0 0.0146875 0.00130939 0.183532 0.00252132 0.00672715
0 0.0146875 0.00177922 0.139092 0.00136801 -0.000677679
-2.71051e-20 -0.0146875 0.00177922 0.138993 -0.00135134 -0.000697298
0 0.015 3.93871e-09 7.38929e-07 6.77919e-09 7.92289e-08
0 -0.015 1.62471e-09 2.98259e-07 -2.76465e-09 3.19012e-08
0 -0.015 0.000411769 0.0998265 -0.00124677 0.0076357
1.90446e-20 0.015 0.000537325 0.13008 0.00163393 0.0100288
1.03398e-25 -0.015 0.000537324 0.130265 -0.00162693 0.00996394
-1.03398e-25 0.015 0.000777991 0.152437 0.00202787 0.00966422
0 -0.015 0.00106275 0.178866 -0.00245455 0.00914855
2.06795e-25 0.015 0.00106275 0.17889 0.00249399 0.0092328
0 -0.015 0.00155263 0.161024 -0.00193795 0.00294981
8.94596e-21 0.015 0.00155263 0.161116 0.00197051 0.00299202
-8.27181e-25 -0.015 0.002 1.52974e-06 -1.52081e-08 -2.52451e-08
0 0.015 0.002 1.49607e-06 1.5031e-08 -2.44231e-08
0 0.0153125 0.000268959 0.08575 0.000846162 0.00827209
0 -0.0153125 0.000268959 0.0861018 -0.000863734 0.00824439
2.71051e-20 0.0153125 0.000800933 0.174161 0.00245458 0.011782