# U  POINT_DATA 53293
# x  y  z  U_x  U_y  U_z
-2.04806e-10 0 1.71421e-09 3.41657e-07 4.03029e-11 3.25253e-08
0.000208122 -2.06795e-25 0 0 0 0
0.00031259 -2.71051e-20 0.000268959 0.0797073 1.0801e-05 0.0085346
-0.000312591 0 0.000268959 0.0924936 1.55155e-05 0.00799384
1.09391e-09 1.03398e-25 0.000537326 0.130154 2.42751e-05 0.00998534
0.000221767 0 0.000537756 0.127754 2.29507e-05 0.0103838
0.000624999 0 3.4485e-09 5.63259e-07 1.05585e-10 5.74598e-08
-0.000624992 0 3.74434e-09 8.64885e-07 1.55174e-10 6.27619e-08
-0.000624898 0 0.000538541 0.134501 2.70632e-05 0.00733945
0.000624896 0 0.00053854 0.123391 2.05432e-05 0.0111081
-0.000312141 0 0.000800934 0.172957 3.63839e-05 0.00970767
0.000312143 0 0.000800934 0.174995 3.42828e-05 0.0136871
-0.000937614 -2.71051e-20 0.000270127 0.102756 1.87314e-05 0.00617469
0.000937614 5.42101e-20 0.000270127 0.0640453 5.75092e-06 0.00618785
2.66464e-09 1.03398e-25 0.00106275 0.17864 3.47483e-05 0.00916649
0.00062321 0 0.00100817 0.175838 3.20095e-05 0.0125362
-0.000623002 2.06795e-25 0.00106565 0.173902 3.55112e-05 0.00494032
0.000623003 2.58494e-26 0.00106565 0.182257 3.34128e-05 0.012711
-0.00093593 -2.71051e-20 0.000804977 0.169402 3.75171e-05 0.00547526
0.000935931 0 0.000804977 0.174276 3.1207e-05 0.0159864
-0.00124996 8.27181e-25 5.23454e-09 1.30161e-06 3.05602e-10 6.16469e-08
0.00124998 0 4.87633e-09 6.65139e-07 1.15673e-10 5.10602e-08
0.000753719 0 0.00106747 0.182616 3.30492e-05 0.0131377
-0.000310612 0 0.00130939 0.17982 3.41539e-05 0.00448707
0.000310617 -2.71051e-20 0.00130939 0.186632 3.41918e-05 0.00886804
-0.0012492 0 0.000542159 0.136413 2.87824e-05 0.00427764
0.0012492 -1.35153e-20 0.000542159 0.115694 1.69936e-05 0.0102605
2.39286e-09 2.06795e-25 0.00155263 0.16079 2.59529e-05 0.00295533
-0.00156214 2.71051e-20 0.000272432 0.108347 2.06593e-05 0.00382338
0.00156214 2.71051e-20 0.000272433 0.0527453 2.82298e-06 0.00277781
-0.000930906 -2.71051e-20 0.00131726 0.173335 3.40369e-05 0.000178353
0.000930908 0 0.00131726 0.19288 3.39495e-05 0.0123756
-0.00124464 -2.06795e-25 0.00107429 0.168745 3.59e-05 0.000864838
0.00124464 0 0.00107429 0.183964 3.16835e-05 0.0147402
-0.000618525 0 0.00155769 0.154957 2.58633e-05 -0.000719029
0.000618528 0 0.0015577 0.166515 2.59422e-05 0.00641737
-0.00155821 0 0.000812977 0.164808 3.8125e-05 0.00163997
0.00155821 0 0.000812979 0.171095 2.80538e-05 0.0160297
0.00124013 5.16988e-26 0.00130049 0.178139 2.89967e-05 0.0122344
-0.000308049 5.42101e-20 0.00177921 0.136225 1.78357e-05 -0.00224892
0.000308058 0 0.00177922 0.141324 1.79385e-05 0.000854683
-0.00187486 8.27181e-25 6.09624e-09 1.56097e-06 4.53542e-10 3.99048e-08
0.00187488 0 5.65929e-09 6.31521e-07 1.1134e-10 1.82663e-08
-0.00187226 -4.1359e-25 0.000548096 0.136015 2.98561e-05 0.00143177
0.00187226 8.2685e-21 0.000548097 0.108554 1.45723e-05 0.00838524
-0.00123471 2.06795e-25 0.00157278 0.149506 2.57918e-05 -0.00418017
0.00123471 0 0.00157279 0.171126 2.57624e-05 0.00921798
6.08126e-09 0 0.002 2.66414e-07 -2.0589e-12 -1.33843e-09
-0.000922483 2.71051e-20 0.00179168 0.131273 1.77422e-05 -0.00517625
0.000922482 2.71051e-20 0.00179169 0.146119 1.80009e-05 0.00373361
-0.00154837 -2.71051e-20 0.00133283 0.167375 3.39858e-05 -0.00374447
0.00154837 2.71051e-20 0.00133284 0.197231 3.34566e-05 0.0146157
-0.000612281 -2.06795e-25 0.00200803 3.26824e-07 -2.29924e-13 -9.07211e-09
0.000612288 -2.06795e-25 0.00200806 3.82935e-07 -5.61132e-12 6.11245e-09
-0.00186351 2.06795e-25 0.00108849 0.163409 3.61597e-05 -0.0026948
0.00186351 5.52453e-21 0.0010885 0.183349 2.98731e-05 0.0152529
0.0021858 2.71051e-20 0.000275834 0.0439934 1.95387e-06 2.02146e-05
-0.0021858 -2.71051e-20 0.000275834 0.110891 2.19966e-05 0.00178097
-0.00217796 0 0.000824778 0.159726 3.85528e-05 -0.00150655
0.00217796 2.71051e-20 0.00082478 0.165726 2.53239e-05 0.0146358
0.00122124 2.06795e-25 0.00202988 4.55135e-07 -9.90382e-12 1.54936e-08
-0.00122124 0 0.00202988 3.09261e-07 2.07512e-12 -1.5648e-08
-0.00153279 0 0.00181633 0.126863 1.77284e-05 -0.00788476
0.0015328 2.71051e-20 0.00181633 0.149226 1.79581e-05 0.00632048
0.00184877 0 0.0015216 0.17498 2.60293e-05 0.0118432
-0.00184617 0 0.00159757 0.144356 2.58019e-05 -0.00723616
0.00184618 0 0.00159757 0.173512 2.53551e-05 0.0112451
0.00249958 8.27181e-25 6.22817e-09 5.79225e-07 1.2751e-10 -1.22963e-08
-0.00249957 -4.1359e-25 3.01309e-09 7.69271e-07 2.71482e-10 6.5929e-09
-0.00216116 0 0.00135579 0.161687 3.40517e-05 -0.00707284
0.00216116 0 0.00135579 0.198828 3.25473e-05 0.0157353
0.00249342 5.03505e-21 0.000556252 0.101905 1.32431e-05 0.00643748
-0.00249342 -4.1359e-25 0.000556252 0.133908 3.05951e-05 -0.000896932
0.00216384 0 0.00161543 0.173288 2.50429e-05 0.0119543
-0.00247827 0 0.00110799 0.157913 3.6412e-05 -0.00561056
0.00247827 6.73387e-21 0.00110799 0.180585 2.82477e-05 0.0148362
-0.00182336 1.03398e-25 0.00206706 1.68245e-07 2.50558e-12 -1.21877e-08
0.00182337 -2.06795e-25 0.00206706 3.25264e-07 -9.52193e-12 1.61001e-08
-0.00280829 -2.71051e-20 0.000280371 0.11044 2.28513e-05 0.000115544
0.00280829 -8.13152e-20 0.000280371 0.037956 2.21565e-06 -0.00176008
-0.00213569 0 0.00185263 0.122349 1.77912e-05 -0.010168
0.0021357 -5.42101e-20 0.00185263 0.149805 1.77836e-05 0.00848101
0.00279458 0 0.00084032 0.159319 2.33668e-05 0.0127773
-0.00279458 2.71051e-20 0.00084032 0.154341 3.88989e-05 -0.00396153
-0.0024507 2.06795e-25 0.00163155 0.139044 2.58953e-05 -0.00975551
0.0024507 -2.58494e-26 0.00163155 0.173086 2.47611e-05 0.0125947
0.00243733 1.29247e-26 0.00181526 0.107572 1.53888e-05 0.00782755
-0.00276808 -2.71051e-20 0.00138577 0.155864 3.42275e-05 -0.0097996
0.00276808 -2.71051e-20 0.00138577 0.197816 3.1612e-05 0.0161536
0.00312376 0 6.65008e-09 5.29764e-07 1.65999e-10 -3.07625e-08
-0.00312375 -4.1359e-25 2.43695e-09 6.05119e-07 2.57702e-10 -2.40559e-09
0.00311251 1.46531e-20 0.00056669 0.0960755 1.26416e-05 0.00489062
-0.00311251 4.1359e-25 0.00056669 0.130588 3.11314e-05 -0.0025948
0.00241539 5.16988e-26 0.00211691 8.0606e-08 -2.98341e-12 5.02451e-09
-0.00241539 0 0.00211691 4.39234e-08 1.08482e-12 -4.05189e-09
-0.00308874 4.1359e-25 0.00113266 0.15233 3.66879e-05 -0.00772506
0.00308874 -3.74417e-20 0.00113266 0.176394 2.69599e-05 0.0138846
-0.00272918 -2.71051e-20 0.0018998 0.117167 1.78892e-05 -0.0119269
0.00272919 0 0.0018998 0.147047 1.74352e-05 0.0101656
0.00262594 0 0.00213994 0 0 0
-0.00342966 2.71051e-20 0.000286253 0.108363 2.34718e-05 -0.000985803
0.00342966 -2.71051e-20 0.000286253 0.0337134 2.90784e-06 -0.00240178
-0.0030473 -2.06795e-25 0.0016742 0.133471 2.60508e-05 -0.011511
0.00304731 -1.21651e-21 0.0016742 0.170003 2.40565e-05 0.0131786
-0.00340944 0 0.000860037 0.149071 3.92541e-05 -0.00553562
0.00340944 -2.71051e-20 0.000860038 0.152915 2.20155e-05 0.010902
0.00320707 1.29247e-26 0.00168803 0.168491 2.38136e-05 0.0130448
-0.00337082 0 0.00142282 0.150018 3.44542e-05 -0.0115038
0.00337082 -2.71051e-20 0.00142281 0.19481 3.06954e-05 0.0156282
-0.00299422 0 0.00218021 5.75934e-07 2.14003e-11 -6.21439e-08
0.00299422 -5.16988e-26 0.00218021 1.37225e-07 3.89079e-11 9.97119e-09
0.00374676 -8.27181e-25 6.66595e-09 4.63859e-07 2.09811e-10 -3.42747e-08
-0.00374674 0 5.1417e-09 1.21984e-06 6.2588e-10 -1.52098e-08
0.00373093 -1.00329e-20 0.000579595 0.0911106 1.24078e-05 0.00375407
-0.00373093 0 0.000579595 0.126612 3.15708e-05 -0.00367076
0.0031239 5.16988e-26 0.00219745 0 0 0
-0.0033125 2.71051e-20 0.00195714 0.111803 1.80575e-05 -0.0127791
0.00331251 -5.42101e-20 0.00195714 0.141677 1.68419e-05 0.0109012
-0.00369909 -4.1359e-25 0.00116323 0.147096 3.7019e-05 -0.00907673
0.0036991 -2.88645e-21 0.00116323 0.171966 2.58596e-05 0.0124952
0.00365434 0 0.0015875 0.166254 2.38192e-05 0.0126366
-0.00363978 -3.44566e-20 0.00172549 0.128577 2.62516e-05 -0.0125594
0.00363978 0 0.00172549 0.164397 2.31556e-05 0.0126826
-0.00405004 0 0.000292937 0.105075 2.39118e-05 -0.00167594
0.00405004 0 0.000292938 0.0303539 3.74488e-06 -0.00233209
-0.00402785 0 0.000884477 0.144008 3.96821e-05 -0.00649939
0.00402786 8.13152e-20 0.000884475 0.147695 2.1008e-05 0.00887631
-0.0035579 0 0.00225514 3.19138e-08 1.62527e-12 -3.76289e-09
0.00355791 0 0.00225514 4.11318e-07 -2.40976e-11 3.1259e-08
-0.00397967 0 0.00146909 0.145243 3.47509e-05 -0.0126957
0.00397967 -5.42101e-20 0.00146909 0.191854 2.96028e-05 0.0144933
0.00436739 -8.27181e-25 6.20931e-09 3.85447e-07 2.36772e-10 -3.07035e-08
-0.00436737 0 5.20252e-09 1.16232e-06 7.22199e-10 -2.25337e-08
-0.00373725 -1.29247e-26 0.00228281 0 0 0
-0.003891 0 0.00202365 0.10835 1.82511e-05 -0.0132458
0.00389101 0 0.00202366 0.131039 1.5896e-05 0.00984276
-0.0043506 0 0.000592303 0.121945 3.19088e-05 -0.00456524
0.00435061 -6.46897e-21 0.000592304 0.0869478 1.22447e-05 0.00276847
-0.00432225 0 0.00120092 0.14218 3.74055e-05 -0.0105782
0.00432225 -4.3305e-21 0.00120092 0.167309 2.46026e-05 0.0101539
0.00427812 0 0.00154744 0.161969 2.30107e-05 0.0102514
-0.00424725 -1.16374e-20 0.0017898 0.12438 2.63123e-05 -0.0139989
0.00424726 0 0.0017898 0.158234 2.18973e-05 0.0103196
-0.00466882 -2.71051e-20 0.000298016 0.100615 2.41718e-05 -0.00231214
0.00466883 -2.71051e-20 0.000298016 0.0277907 4.2989e-06 -0.00229921
-0.00414971 2.58494e-26 0.0021693 0.038542 8.15347e-06 -0.00433788
-0.00410592 -5.16988e-26 0.0023397 6.13389e-08 1.66875e-11 -8.06232e-09
0.00410593 4.1359e-25 0.00233971 4.78924e-07 -3.47142e-11 3.09936e-08
-0.00465179 2.71051e-20 0.00090439 0.138393 4.00091e-05 -0.0078214
0.00465179 0 0.000904395 0.142953 2.00762e-05 0.00692058
-0.00462671 -2.71051e-20 0.0015349 0.140992 3.51458e-05 -0.015401
0.00462672 2.71051e-20 0.00153491 0.187014 2.77622e-05 0.0102943
-0.00449178 2.71051e-20 0.00210468 0.104291 1.7764e-05 -0.0147037
0.00449179 0 0.00210469 0.125326 1.4802e-05 0.00674685
0.00498376 0 5.69215e-09 3.25616e-07 2.50127e-10 -2.82829e-08
-0.00498375 -4.1359e-25 2.23777e-09 4.66257e-07 3.55206e-10 -1.26362e-08
0.00497155 7.07818e-21 0.000598245 0.0831049 1.18839e-05 0.00172132
-0.00497155 0 0.000598242 0.116098 3.20609e-05 -0.00564809
-0.00495824 2.06795e-25 0.00122094 0.136068 3.77255e-05 -0.0129695
0.00495825 -1.55125e-20 0.00122095 0.163739 2.34022e-05 0.00811746
0.00495296 5.16988e-26 0.00170248 0.149149 2.01056e-05 0.0078908
-0.00463864 -2.06795e-25 0.00243509 2.30918e-07 5.90551e-11 -3.56152e-08
0.00463866 6.46235e-27 0.0024351 1.08614e-08 -9.42743e-13 5.91111e-10
0.0052847 0 0.000299156 0.0259967 4.50894e-06 -0.00237227
-0.0052847 0 0.000299155 0.0945383 2.40669e-05 -0.00297716
-0.00493837 6.46235e-26 0.00192306 0.111377 2.46775e-05 -0.016377
-0.00495075 -6.46235e-27 0.00190192 0.115976 2.56965e-05 -0.0170533
0.00495077 0 0.00190193 0.143106 1.87402e-05 0.00779692
-0.0049654 0 0.00191796 0.114893 2.53267e-05 -0.0170731
-0.00527814 -2.71051e-20 0.00090657 0.13137 4.02142e-05 -0.00955784
0.00527814 0 0.000906575 0.137259 1.88667e-05 0.00476088
-0.00497873 2.71051e-20 0.00227402 0.08469 1.44951e-05 -0.0146739
0.00497876 2.71051e-20 0.00227403 0.0835015 8.96817e-06 0.00461724
-0.00527502 2.71051e-20 0.00153141 0.133568 3.54915e-05 -0.0191425
0.00527504 -2.71051e-20 0.00153142 0.188076 2.69692e-05 0.0105166
0.00498345 0 0.00250435 0 0 0
0.00559337 0 5.60294e-09 3.02269e-07 2.71539e-10 -2.53526e-08
-0.00559336 0 1.43761e-09 2.78524e-07 2.6373e-10 -9.72241e-09
0.00559126 8.91701e-22 0.000595126 0.0791434 1.12657e-05 0.00074708
-0.00559126 2.06795e-25 0.000595123 0.109296 3.20697e-05 -0.00639049
-0.0055954 2.06795e-25 0.00120624 0.128517 3.84151e-05 -0.0137366
0.00559541 1.17859e-20 0.00120625 0.15967 2.21399e-05 0.0066179
-0.0052714 -3.13088e-22 0.00225305 0.0922724 1.75993e-05 -0.0174876
0.00527143 1.66676e-20 0.00225307 0.0929884 1.0432e-05 0.00318286
0.00516556 3.23117e-27 0.00252027 0.00621123 6.96813e-07 0.000212601
-0.00515795 -4.1359e-25 0.00253939 3.72025e-07 8.5307e-11 -7.41618e-08
0.00515798 0 0.0025394 3.40727e-09 1.09298e-12 4.18652e-11
-0.00538498 0 0.0020263 0.121914 2.75468e-05 -0.0215162
0.00538501 0 0.00202632 0.143016 1.7145e-05 0.00743764
0.00551808 1.29247e-26 0.00179871 0.160851 2.10598e-05 0.00823859
-0.00589515 0 0.000297025 0.0876185 2.36276e-05 -0.00338176
0.00589515 0 0.000297025 0.024368 4.34992e-06 -0.00185149
-0.00563197 -5.16988e-26 0.00177797 0.12407 3.24779e-05 -0.0203458
0.00563198 0 0.00177799 0.164413 2.15255e-05 0.00832727
0.00564259 0 0.00188206 0.148888 1.91105e-05 0.00690626
-0.00564423 0 0.00189822 0.11687 2.94404e-05 -0.0202902
-0.00590236 2.71051e-20 0.000896383 0.124343 4.06556e-05 -0.0097563
0.00590236 0 0.000896388 0.130883 1.75851e-05 0.00256546
-0.00545327 0 0.00243355 0.0696564 1.05372e-05 -0.0160949
0.00545331 2.71051e-20 0.00243359 0.0516968 5.07104e-06 -0.0024419
-0.00592144 -2.71051e-20 0.00148671 0.124976 3.72232e-05 -0.0166241
0.00592145 -2.71051e-20 0.00148673 0.18309 2.52537e-05 0.00872566
-0.00568071 0 0.00225606 0.0954442 2.04011e-05 -0.0201247
0.00568074 0 0.00225611 0.0930883 1.04303e-05 0.00179896
0.00567655 0 0.00236942 0.0664152 7.44169e-06 0.00128349
0.00619352 8.27181e-25 5.71237e-09 2.99664e-07 2.97841e-10 -2.24592e-08
-0.00619351 0 6.4706e-10 1.1672e-07 1.38021e-10 -4.78692e-09
0.00620461 -2.01617e-20 0.000588662 0.0759018 1.05221e-05 -0.000121138
-0.00620461 0 0.000588659 0.102483 3.1934e-05 -0.00654289
-0.00566608 4.1359e-25 0.0026515 4.91446e-07 1.11804e-10 -1.18949e-07
0.00566612 -1.03398e-25 0.00265157 5.81733e-08 2.05155e-11 -4.22404e-09
-0.00594555 0 0.00202545 0.116501 3.02835e-05 -0.0238808
0.00594557 0 0.00202548 0.14673 1.74305e-05 0.00682008
-0.00622084 1.03398e-25 0.00119147 0.121305 3.91226e-05 -0.0130325
0.00622085 -1.33304e-20 0.00119148 0.15508 2.07e-05 0.00447651
0.00580255 1.03398e-25 0.00268482 0 0 0
-0.00594024 -2.71051e-20 0.0024957 0.0773192 1.4515e-05 -0.0194793
0.00594027 5.42101e-20 0.00249581 0.0368908 2.85714e-06 -0.00398839
-0.00623228 5.16988e-26 0.00177936 0.117931 3.42036e-05 -0.019734
0.00623229 0 0.00177938 0.162844 2.05908e-05 0.00663512
0.00649621 0 0.000293435 0.0240136 4.26694e-06 -0.00177397
-0.00649621 5.42101e-20 0.000293436 0.0807736 2.29494e-05 -0.00352481
0.00622646 2.58494e-26 0.00199879 0.130877 1.58206e-05 0.00442146
-0.00622471 -2.58494e-26 0.0020643 0.105796 2.81656e-05 -0.0205138
-0.00651674 2.71051e-20 0.000887854 0.117913 4.08232e-05 -0.00961964
0.00651674 0 0.000887853 0.126219 1.61114e-05 0.00063473
-0.00621827 2.84626e-20 0.00230652 0.0954806 2.3033e-05 -0.0211768
0.00621829 -5.16988e-26 0.00230657 0.0860351 9.1292e-06 0.00131628
-0.00653419 2.71051e-20 0.0014917 0.117966 3.78025e-05 -0.0161068
0.0065342 0 0.0014917 0.17998 2.38248e-05 0.0059503
-0.00616457 1.03398e-25 0.00277282 8.64126e-08 2.09006e-11 -2.17613e-08
0.00616457 0 0.00277305 1.06645e-07 -3.22116e-11 -1.06494e-08
0.00678216 4.1359e-25 3.11434e-09 1.64382e-07 1.74682e-10 -1.26637e-08
-0.00678216 -5.16988e-26 3.07423e-10 5.17182e-08 7.58662e-11 -2.19168e-09
0.00680719 4.16734e-21 0.000580427 0.0733185 9.67345e-06 -0.00095364
-0.00680719 0 0.000580427 0.0960568 3.15217e-05 -0.0062459
-0.00652449 0 0.00206819 0.112528 3.18193e-05 -0.0219957
0.0065245 -2.71051e-20 0.00206819 0.143082 1.61649e-05 0.00507911
0.00683264 2.4158e-20 0.00118786 0.150884 1.92836e-05 0.00263641
-0.00683264 1.03398e-25 0.00118787 0.114823 3.94293e-05 -0.012584
-0.00646322 2.71051e-20 0.00258806 0.077661 1.64368e-05 -0.0195496
0.00646323 0 0.00258814 0.0234455 8.41304e-07 -0.00208225
-0.00642641 0 0.00284235 0 0 0
-0.00683966 0 0.00180948 0.112615 3.52387e-05 -0.0190176
0.00683967 6.82269e-21 0.00180947 0.156586 1.90363e-05 0.00474897
0.00708484 -2.71051e-20 0.000285956 0.0234229 3.76954e-06 -0.00187998
-0.00708484 5.42101e-20 0.000285958 0.0743762 2.19365e-05 -0.00305057
0.00680466 2.58494e-26 0.00220307 0.0996559 1.10202e-05 0.00229869
-0.00712024 0 0.000873555 0.111919 4.07302e-05 -0.00890233
0.00712024 -2.71051e-20 0.00087355 0.121452 1.47576e-05 -0.000767633
-0.00679579 -6.46235e-27 0.00230258 0.0964118 2.59963e-05 -0.0205394
-0.00678834 6.46235e-27 0.00238631 0.0936604 2.4427e-05 -0.0207978
0.00678836 -2.88301e-21 0.00238629 0.0731547 7.28867e-06 0.00115807
-0.00677443 -2.58494e-26 0.00244012 0.0839063 2.18831e-05 -0.0186319
-0.00665477 0 0.00290299 7.16827e-08 1.39544e-11 -1.80698e-08
0.00665482 -4.1359e-25 0.00290304 6.41848e-08 -4.73565e-11 -7.34261e-09
-0.00714798 -2.71051e-20 0.0014934 0.111474 3.83612e-05 -0.0157249
0.00714799 2.71051e-20 0.00149338 0.176015 2.2456e-05 0.0047397
0.00735889 0 2.29144e-09 1.32678e-07 1.35039e-10 -1.4019e-08
-0.00735889 0 1.5929e-10 2.62743e-08 4.76227e-11 -8.24967e-10
-0.00676467 0 0.00293444 0 0 0
0.00739835 7.95748e-22 0.000558166 0.0703939 8.3564e-06 -0.00226384
-0.00739835 0 0.000558169 0.0896167 3.06241e-05 -0.0049882
-0.00714876 2.71051e-20 0.00213576 0.108441 3.31251e-05 -0.0221251
0.00714878 5.42101e-20 0.00213571 0.127612 1.37843e-05 0.00318953
0.0071035 0 0.00244745 0.0653604 6.70441e-06 0.000894887
0.0070198 0 0.00270005 0.00549194 -7.74254e-07 -0.00123003
-0.00701976 -2.71051e-20 0.00270017 0.0779395 1.73129e-05 -0.0196741
-0.00744365 -1.03398e-25 0.00116097 0.108565 3.95199e-05 -0.0115765
0.00744366 2.50694e-20 0.00116096 0.146178 1.77771e-05 0.000751627
0.0069788 -1.03398e-25 0.00299547 0 0 0
-0.00765796 0 0.000265484 0.0671303 2.02608e-05 -0.00139309
0.00765796 -5.42101e-20 0.000265481 0.0248852 2.21481e-06 -0.00322457
-0.00746677 0 0.00181019 0.106993 3.61542e-05 -0.0190615
0.00746679 -4.26319e-21 0.00181015 0.153103 1.79017e-05 0.00362189
-0.00771623 1.29247e-26 0 0 0 0
-0.00746358 0 0.00210093 0.0991447 3.15637e-05 -0.0199945
-0.0071376 2.06795e-25 0.00304116 2.14899e-07 4.90391e-11 -5.63501e-08
0.00713776 0 0.00304082 -6.77138e-09 3.34758e-11 -5.32182e-09
-0.0077169 0 0.000826802 0.106111 4.00649e-05 -0.00677863
0.0077169 2.71051e-20 0.000826792 0.114051 1.29784e-05 -0.00313675
-0.00745902 3.57068e-21 0.00251657 0.0879248 2.50014e-05 -0.0213283
0.00745908 -7.00534e-21 0.00251645 0.0565661 6.04519e-06 0.00059794
-0.00777417 0 0.00144607 0.104792 3.88979e-05 -0.0150032
0.00777419 2.71051e-20 0.00144605 0.173953 2.10281e-05 0.00225888
-0.00792571 -1.29247e-26 8.66929e-11 1.31266e-08 -2.26067e-11 -1.18434e-10
0.00792572 0 3.47661e-09 1.95631e-07 2.15333e-10 -4.77661e-08
-0.00793011 1.29247e-26 5.044e-05 0.00820623 2.89116e-06 -0.000275919
0.00796936 2.9776e-20 0.000500004 0.0611534 6.10433e-06 -0.00431039
-0.00796936 4.86879e-21 0.000500008 0.0813476 2.86601e-05 -0.00273516
-0.00746683 0 0.00290066 0.063432 1.50272e-05 -0.0172871
0.00746695 2.71051e-20 0.00290041 -0.0117089 -1.28799e-07 -0.00366166
-0.00779099 -2.71051e-20 0.00211485 0.103217 3.43276e-05 -0.0232304
0.00779103 -5.42101e-20 0.00211478 0.135556 1.44503e-05 0.00423785
-0.00806314 3.23428e-22 0.00107 0.101578 3.90034e-05 -0.00896263
0.00806315 2.15253e-21 0.00106998 0.134937 1.5166e-05 -0.00162941
-0.00818633 0 0.000216761 0.057308 1.82894e-05 0.000158588
0.00818634 0 0.00021676 0.0134451 2.54429e-07 -0.00613597
-0.00761259 2.06795e-25 0.0031895 1.88451e-07 5.27404e-11 -5.6527e-08
0.00761275 -2.06795e-25 0.00318916 -5.5743e-08 1.02612e-10 -1.94894e-08
-0.00774741 -1.02668e-20 0.00289685 0.0687751 1.81324e-05 -0.0198034
0.00774751 8.28701e-21 0.00289668 0.00319613 2.0977e-06 -0.00349096
-0.0081166 5.16988e-26 0.00173383 0.100856 3.73519e-05 -0.0171973
0.00811662 8.78104e-21 0.00173379 0.151927 1.67511e-05 0.0019468
-0.00787673 -2.71051e-20 0.00265552 0.0914801 2.73443e-05 -0.0248732
0.00787681 -2.71051e-20 0.00265541 0.0433582 4.59666e-06 0.00133791
-0.0083001 -2.71051e-20 0.000713301 0.097088 3.70296e-05 -0.0032273
0.00830011 2.71051e-20 0.00071329 0.0968493 9.54395e-06 -0.0046072
-0.00840084 1.91957e-20 0.000404248 0.0722372 2.60013e-05 -0.0011631
0.00840085 6.33041e-21 0.000404247 0.0504176 4.32553e-06 -0.00514007
-0.00813041 -1.29247e-26 0.00216435 0.0969511 3.37491e-05 -0.0211126
-0.00845725 -5.16988e-26 0.000140484 0.0251038 9.03579e-06 -0.000404199
-0.00813753 2.58494e-26 0.00238637 0.094937 3.18911e-05 -0.0231318
0.00813758 -1.73602e-20 0.00238631 0.0889446 9.06651e-06 0.00194803
0.00797243 0 0.00290798 0.00696548 3.23208e-06 -0.0030341
-0.00848729 0 3.25033e-10 5.62285e-08 -1.48166e-10 -1.89217e-10
0.0084873 0 1.33804e-09 1.11768e-07 8.87831e-11 -2.11144e-08
-0.0079062 2.71051e-20 0.00309611 0.05187 1.21737e-05 -0.0172989
0.00790631 2.71051e-20 0.00309597 -0.0214759 1.80983e-06 -0.0080141
-0.00844166 0 0.00129779 0.0984368 4.00272e-05 -0.0113085
0.00844167 0 0.00129777 0.158129 1.757e-05 -0.000743735
0.00814089 0 0.00259624 0.0576475 7.10355e-06 0.000115556
0.00791998 -1.03398e-25 0.00329076 0 0 0
-0.00814587 -1.76955e-20 0.00291677 0.0721133 2.11536e-05 -0.0216077
0.00814594 -5.16988e-26 0.0029167 0.00987315 4.10712e-06 -0.00268168
-0.00845096 -2.71051e-20 0.00203002 0.096848 3.62738e-05 -0.0189389
0.00845099 2.71051e-20 0.00202998 0.139639 1.38898e-05 0.0018587
-0.00870374 -2.71051e-20 0.000299105 0.0633683 2.32161e-05 -0.000512818
0.00870375 0 0.000299102 0.0434583 3.45421e-06 -0.00461477
-0.00808094 0 0.00334398 2.68548e-07 9.28927e-11 -8.97931e-08
0.00808097 0 0.00334399 -4.03987e-08 -8.0534e-11 -1.03093e-08
-0.00876084 8.19798e-21 0.000780772 0.0847114 3.42987e-05 -0.00447127
0.00876085 -7.87021e-21 0.000780763 0.100093 9.97367e-06 -0.00387898
-0.00843811 -2.71051e-20 0.00266307 0.088962 3.03951e-05 -0.0249979
0.00843816 5.42101e-20 0.00266302 0.0467003 4.28287e-06 0.000490497
-0.00877299 -5.16988e-26 0.00164021 0.094157 3.84524e-05 -0.0134855
0.00877301 -1.68081e-20 0.00164019 0.147293 1.5004e-05 -5.89021e-05
-0.00860548 0 0.00237918 0.0916291 3.34735e-05 -0.0215771
-0.00837329 -2.71051e-20 0.00318779 0.0594804 1.61937e-05 -0.0199334
0.00837333 -2.71051e-20 0.00318777 -0.023253 5.97335e-06 -0.00376113
-0.00902617 1.29247e-26 6.52125e-05 0.00707536 2.8647e-06 -0.000373454
-0.00905035 0 9.32147e-11 9.76044e-09 -3.41839e-11 -1.37408e-10
0.00905036 0 6.26966e-09 4.82531e-07 2.9924e-10 -5.62226e-08
-0.00875208 6.46235e-27 0.00237693 0.0905928 3.39693e-05 -0.02109
0.00875211 1.57927e-20 0.0023769 0.0892742 8.15485e-06 0.00102922
0.00873942 5.16988e-26 0.00249428 0.0738238 7.77935e-06 0.000614699
-0.00873202 -6.46235e-27 0.00256258 0.0852835 3.0892e-05 -0.0213295
-0.00845392 1.03398e-25 0.00347505 0 0 0
-0.00868542 1.29247e-26 0.00299375 0.0729529 2.37453e-05 -0.0218858
0.00868545 -1.03398e-25 0.00299373 0.00808578 6.18162e-06 -0.00114899
-0.0091091 5.42101e-20 0.00119679 0.090468 4.02376e-05 -0.00676635
0.00910912 0 0.00119678 0.15285 1.58884e-05 -0.00224636
-0.00865998 0 0.00308463 0.0600099 1.95325e-05 -0.0180029
-0.00854202 0 0.00350601 6.6043e-08 1.52668e-11 -2.18331e-08
0.00854205 0 0.00350602 -7.19929e-08 -1.64791e-10 -8.94761e-09
-0.0092294 2.71051e-20 0.000411816 0.0750414 3.19213e-05 -0.00137828
0.00922941 0 0.000411812 0.0561529 4.25095e-06 -0.00699132
-0.00908302 2.71051e-20 0.00199954 0.0906013 3.73752e-05 -0.0164262
0.00908304 -2.71051e-20 0.00199952 0.138856 1.27227e-05 0.000738592
-0.00904468 -2.71051e-20 0.00273192 0.0860433 3.22281e-05 -0.0235089
0.0090447 -2.71051e-20 0.00273191 0.0371209 2.2011e-06 0.00104041
-0.00889798 5.42101e-20 0.00332075 0.0594203 1.7349e-05 -0.0194121
0.00889801 0 0.00332075 -0.0234192 1.18909e-05 -0.00203882
-0.0094966 1.03398e-25 0.000799126 0.0783797 3.56995e-05 -0.00435784
0.00949662 3.08493e-20 0.000799124 0.103393 9.38048e-06 -0.00530029
-0.00942025 0 0.00160321 0.0873393 3.91677e-05 -0.011717
0.00942027 1.09105e-21 0.0016032 0.14425 1.3495e-05 -0.00127338
-0.00909311 0 0.00309478 0.0699646 2.41861e-05 -0.0215931
-0.00960563 5.16988e-26 0.000110373 0.0108256 4.93064e-06 -0.000601892
-0.0096231 0 1.81071e-10 1.83767e-08 -8.32831e-11 -3.33188e-10
0.00962312 0 5.96157e-09 5.36027e-07 3.01951e-10 -7.24037e-08
-0.00937321 0 0.00238767 0.0856212 3.53316e-05 -0.0198357
0.00937322 8.24125e-21 0.00238767 0.0852902 6.30852e-06 0.000689284
-0.00968118 0 0 0 0 0
-0.00899578 0 0.0036751 1.12135e-07 2.98193e-11 -3.73312e-08
0.00899579 -4.1359e-25 0.00367511 -1.06281e-07 -2.61905e-10 -9.55617e-09
0.00935885 -5.16988e-26 0.00261667 0.0604522 8.77145e-06 0.000551997
-0.00932521 0 0.00315229 0.0682634 2.4437e-05 -0.0214265
0.00932523 0 0.00315229 0.00235888 1.45319e-05 0.000230897
-0.00977641 0 0.00119942 0.0839148 4.06792e-05 -0.00821169
0.00977642 0 0.00119941 0.149031 1.39664e-05 -0.00343705
-0.00986513 2.71051e-20 0.000404006 0.0642678 3.00684e-05 -0.00114212
0.00986514 -2.71051e-20 0.000404004 0.0580126 3.73643e-06 -0.00842922
-0.0093639 0 0.00321295 0.0658576 2.33716e-05 -0.0210474
-0.00917258 -1.03398e-25 0.00374559 0 0 0
-0.00971279 0 0.00199164 0.0843973 3.84402e-05 -0.0152591
0.0097128 5.42101e-20 0.00199164 0.136657 1.14861e-05 -0.000242531
-0.00931626 -5.42101e-20 0.00354791 0.048334 1.47533e-05 -0.016522
0.00931627 -2.71051e-20 0.00354791 -0.0175787 1.70377e-05 -0.00164722
-0.00951253 6.46235e-27 0.00312602 0.0699368 2.62277e-05 -0.0220262
-0.00966465 0 0.00274807 0.0815041 3.35405e-05 -0.023741
0.00966466 2.71051e-20 0.00274807 0.0334443 -6.3555e-07 0.00115324
0.0101325 2.93173e-20 0.000796454 0.102574 8.19537e-06 -0.00634924
-0.0101325 4.38406e-21 0.000796453 0.0721043 3.53794e-05 -0.00433368
0.0100568 9.37072e-21 0.00159867 0.141659 1.19285e-05 -0.00228196
-0.0100568 0 0.00159868 0.081438 3.97892e-05 -0.0112428
-0.00944132 0 0.00385273 1.34389e-07 5.09173e-11 -5.02862e-08
0.00944133 -4.1359e-25 0.00385273 -1.0487e-07 -2.91248e-10 -1.85712e-08
0.0102116 0 6.4051e-09 5.91156e-07 5.9853e-10 -8.71662e-08
-0.0102116 0 1.62242e-09 1.57171e-07 1.1178e-09 -2.28663e-09
-0.0095853 -2.36983e-20 0.00356006 0.0520909 1.7275e-05 -0.0188777
0.00958531 -3.21498e-20 0.00356006 -0.013353 2.56535e-05 -0.00085647
-0.0097205 0 0.00331939 0.0703524 2.6567e-05 -0.024652
0.00972051 -5.42101e-20 0.0033194 -0.00997452 3.85613e-05 0.00285593
0.0100014 8.62336e-22 0.00238052 0.084164 5.51391e-06 0.000345066
-0.0100014 -2.58494e-26 0.00238052 0.0803598 3.64989e-05 -0.0184535
-0.00999167 1.29247e-26 0.00275932 0.0768964 3.32845e-05 -0.021287
0.00998727 -2.58494e-26 0.00293055 0.025017 2.44213e-05 0.000596787
-0.00972751 0 0.00377237 0.0380872 1.07464e-05 -0.0155925
0.00972752 -2.71051e-20 0.00377238 -0.0124888 2.15878e-05 -0.00367689
0.00998395 0 0.00305989 0.0111084 2.88674e-05 0.00065598
-0.00998395 2.64937e-20 0.00305989 0.0741482 3.07341e-05 -0.0235353
-0.0104064 0 0.00120352 0.0784437 4.05748e-05 -0.00738867
0.0104064 5.42101e-20 0.00120351 0.145819 1.24004e-05 -0.00455752
-0.010485 0 0.000404034 0.062236 3.04103e-05 -0.000734569
0.0104851 0 0.000404033 0.0592755 2.88566e-06 -0.00886418
-0.0103405 2.71051e-20 0.0019901 0.0789895 3.94436e-05 -0.0140736
0.0103405 0 0.00199009 0.135161 9.87911e-06 -0.000927183
-0.00996853 1.16951e-20 0.00360023 0.0545606 1.97139e-05 -0.0206846
0.00996854 1.45664e-20 0.00360024 -0.0104064 4.09823e-05 -0.00158838
-0.0105942 0 0.000810557 0.0694736 3.5621e-05 -0.00412116
-0.0103028 2.71051e-20 0.00272296 0.0766649 3.4722e-05 -0.020557
0.0103028 -2.71051e-20 0.00272296 0.0348008 1.56902e-06 0.00131352
-0.00987912 -4.1359e-25 0.0040369 1.71349e-07 7.40668e-11 -7.12842e-08
0.00987913 8.27181e-25 0.00403691 -8.8998e-08 -3.26095e-10 -2.49182e-08
0.0102665 -2.58494e-26 0.00307217 0.0123768 3.73426e-05 -0.000250791
-0.0107048 0 0.00135482 0.07386 3.84928e-05 -0.00842497
-0.0107599 -5.16988e-26 0.000815619 0.0685296 3.57076e-05 -0.0040449
0.01076 9.88067e-21 0.00081562 0.106436 7.32252e-06 -0.00716558
-0.0107706 5.16988e-26 0.000702933 0.0590616 3.07746e-05 -0.00348606
-0.0106792 0 0.001606 0.0763431 3.97902e-05 -0.0104654
0.0106793 -2.81448e-21 0.001606 0.139709 1.03138e-05 -0.0026299
-0.0102655 0 0.00335679 0.068917 2.88425e-05 -0.0248951
0.0102655 2.71051e-20 0.00335679 -0.00938728 7.15662e-05 -0.00275861
-0.0108373 0 2.89784e-09 2.91143e-07 2.29334e-09 -3.41982e-09
0.0108374 -8.27181e-25 1.11381e-08 1.02571e-06 -1.16287e-09 -1.42743e-07
0.0106285 -2.28798e-21 0.00237367 0.0855148 6.24094e-06 0.000644888
-0.0106285 0 0.00237367 0.0754353 3.72071e-05 -0.0167384
-0.0108905 -4.1359e-25 0 0 0 0
-0.0101728 -2.71051e-20 0.00388886 0.0436566 1.42125e-05 -0.0184148
0.0101729 0 0.00388888 -0.00951299 3.54279e-05 -0.0024825
-0.0106184 0 0.00254673 0.0743905 3.60465e-05 -0.0180612
-0.0109065 1.29247e-26 0.00162299 0.0748637 3.96722e-05 -0.0103896
-0.0105871 5.16988e-26 0.00308611 0.0711342 3.24294e-05 -0.0221843
0.0105871 -2.58494e-26 0.00308611 0.0138157 4.69578e-05 -0.00127953
0.0105647 5.16988e-26 0.00323249 0.00827181 5.11018e-05 -0.0017519
-0.0110291 -5.42101e-20 0.00123903 0.0737269 3.98767e-05 -0.0074348
0.0110292 0 0.00123902 0.146998 1.07331e-05 -0.00535491
-0.0108497 0 0.00235499 0.0739185 3.72374e-05 -0.0163968
-0.0104928 1.1594e-20 0.0037021 0.0555118 2.21193e-05 -0.0211885
0.0104928 1.03398e-25 0.0037021 -0.00951408 6.43967e-05 -0.00326734
-0.0109536 0 0.00200603 0.074269 3.92582e-05 -0.0130174
0.0109537 2.71051e-20 0.00200604 0.130901 8.24881e-06 0.00030692
-0.0111271 2.71051e-20 0.000454366 0.0599867 3.21133e-05 -0.000707755
0.0111272 2.71051e-20 0.000454356 0.0747978 3.41994e-06 -0.00982003
-0.0103093 -4.1359e-25 0.00422672 2.54879e-07 1.07553e-10 -1.06105e-07
0.0103094 0 0.00422673 -7.47987e-08 -3.23749e-10 -2.09566e-08
-0.0109325 2.71051e-20 0.00273144 0.0718765 3.54719e-05 -0.0191998
0.0109325 0 0.00273145 0.0427674 5.32285e-06 0.00185485
-0.0108654 -2.71051e-20 0.00345535 0.0672444 3.10382e-05 -0.023787
0.0108654 -2.71051e-20 0.00345535 -0.0102364 0.000106116 -0.0053057
0.0112927 1.45315e-20 0.00165185 0.138426 9.16452e-06 -0.00213456
-0.0112927 2.36783e-20 0.00165185 0.0723507 3.94719e-05 -0.0102607
-0.0106818 2.71051e-20 0.00404663 0.0440033 1.55849e-05 -0.0180783
0.0106818 0 0.00404664 -0.00897293 4.90481e-05 -0.00269646
0.0115148 -6.61744e-24 2.994e-08 4.44034e-06 -7.52167e-09 -5.26752e-07
-0.0115148 3.30872e-24 3.99642e-08 2.57136e-06 -1.04049e-08 -4.74648e-08
0.0113303 -1.41225e-20 0.00231441 0.0808163 1.07752e-05 0.00105451
-0.0113303 1.05124e-20 0.00231441 0.0706228 3.73031e-05 -0.0156547
0.0115254 1.62127e-21 0.000977027 0.111926 6.35587e-06 -0.00638493
-0.0115254 2.26143e-20 0.000977024 0.0653017 3.65487e-05 -0.00493315
-0.0107322 -4.1359e-25 0.00442178 2.81141e-07 1.1693e-10 -1.1578e-07