# k  POINT_DATA 43176
# x  y  z  k
6.77626e-21 0.000951594 0 0.0022811
0 0.000952378 6.05115e-05 0.00228101
1.35525e-20 0.00101666 0 0.00228225
6.77626e-21 0.00108259 0 0.00228994
1.35525e-20 0.00108205 6.12824e-05 0.00228973
1.0842e-19 -0.000230001 0.00117134 0.00216491
6.77626e-21 -0.00142666 0 0.00201016
6.77626e-21 -0.001427 4.90487e-05 0.00200998
6.77626e-21 -0.00147935 0 0.00200223
0 -0.00153146 0 0.00199977
0 -0.00153095 4.85233e-05 0.0019997
0 0.00226609 0.00117164 0.00240261
2.25875e-21 0.00102252 0.00234126 0.00180144
2.25875e-21 -0.00147475 0.00234099 0.00171804
0 -0.00272686 0.00117106 0.00184152
0 0.00343106 0 0.00247621
1.35525e-20 0.00343226 7.48638e-05 0.0024761
1.35525e-20 0.00351169 0 0.00247528
1.0842e-19 -0.000223755 0.00357153 0.00139457
-1.35525e-20 0.00359276 7.59703e-05 0.00248097
-1.35525e-20 0.00359358 0 0.00248118
-6.77626e-21 -0.00393441 0 0.00169173
0 -0.00393462 3.89347e-05 0.0016916
0 -0.00397618 0 0.00168451
-6.77626e-21 -0.00401725 3.85806e-05 0.00167918
-6.77626e-21 -0.00401757 0 0.00167921
4.51751e-21 0.00351914 0.00234148 0.00182674
0 0.00227377 0.00357189 0.00123056
0 -0.00272176 0.00357118 0.00146537
-5.64689e-22 -0.00397255 0.00234072 0.00158717
-2.1684e-19 0.00476133 0.00117192 0.00255159
0 0.00102955 0.00480054 0.000940014
-5.64689e-22 -0.00146894 0.00480032 0.00103545
-1.0842e-19 -0.00522433 0.0011708 0.00152671
0 0.00590658 0 0.00258861
1.35525e-20 0.0059084 9.18337e-05 0.00258849
5.64689e-22 0.00352769 0.00480072 0.000841475
0 0.0047708 0.00357214 0.00110182
-1.35525e-20 0.00600567 0 0.00258575
-1.0842e-19 -0.000217791 0.00608418 0.000587022
-1.35525e-20 0.00610537 9.33789e-05 0.00259033
1.35525e-20 0.00610661 0 0.00259051
0 -0.00396773 0.00480011 0.00111815
0 -0.00522013 0.00357084 0.00151512
0 -0.00644084 0 0.00141788
0 -0.00644097 3.05957e-05 0.00141781
0 0.00601513 0.00234156 0.00180963
-6.77626e-21 -0.00647363 0 0.00141443
0 0.00228097 0.00608442 0.000534345
0 -0.00650597 3.03603e-05 0.00140772
0 -0.00650617 0 0.00140773
0 -0.00271679 0.00608392 0.000681596
-1.12938e-21 -0.00647075 0.00234045 0.00145712
0 0.00725575 0.00117208 0.00262496
8.47033e-22 0.00103463 0.00736665 0.000521712
8.47033e-22 -0.00146474 0.00736653 0.000562828
0 0.00602547 0.00480075 0.000748012
-2.1684e-19 0.0047795 0.00608458 0.00048627
0 -0.00772224 0.00117057 0.00129748
1.0842e-19 -0.00521598 0.00608368 0.000799169
-2.82344e-22 -0.00646674 0.0047999 0.0011875
0 0.00726737 0.00357211 0.000933312
-5.64689e-22 0.00353384 0.00736675 0.000494926
0 -0.00396424 0.00736643 0.00062427
0 0.0083778 0 0.00262987
0 0.00838051 0.000111807 0.00262973
-1.35525e-20 0.00849876 0 0.00262316
0 -0.00771879 0.00357053 0.00149222
0 0.00862057 0.000113948 0.00262578
1.35525e-20 0.00862241 0 0.00262588
0 -0.000214113 0.00865697 0.00048446
2.25875e-21 0.00851059 0.00234127 0.00176086
-3.38813e-21 -0.0089461 0 0.00125292
-3.38813e-21 -0.00894617 2.37524e-05 0.0012529
-2.1684e-19 0.00228541 0.0086571 0.000480318
-3.38813e-21 -0.00897154 0 0.0012532
0 -0.00899669 2.35989e-05 0.0012487
0 -0.00899681 0 0.0012487
-2.1684e-19 -0.00271373 0.00865684 0.000497323
2.25875e-21 -0.00896926 0.00234021 0.00135912
-1.0842e-19 0.00727782 0.00608447 0.000459124
2.82344e-22 0.00603292 0.00736677 0.000476069
2.25875e-21 0.00852298 0.0048004 0.000665566
-1.41172e-22 -0.00646384 0.00736632 0.000703922
-2.1684e-19 0.00974959 0.00117197 0.00262905
-1.0842e-19 -0.00771532 0.00608345 0.000934331
0 0.00478485 0.00865718 0.000478257
7.75035e-20 0.00103451 0.00994923 0.000506705
-7.41154e-20 -0.00146477 0.00994448 0.000505505
-2.1684e-19 -0.00521343 0.00865671 0.000517753
-2.82344e-22 -0.00896592 0.00479971 0.00123645
0 -0.0102205 0.00117037 0.00120369
0 0.00976367 0.00357144 0.000823684
7.24213e-20 0.0035336 0.00994335 0.000512106
0 0.00354007 0.00994334 0.00051224
5.14573e-20 -0.00396419 0.00994489 0.000510772
1.0842e-19 -0.0102177 0.00357025 0.00144684
0 0.0108441 0 0.00260878
0 0.0108481 0.000135646 0.00260861
0 0.0109914 0 0.00259773
0 0.01114 0.000138658 0.00259607
-2.71051e-20 0.0111428 0 0.00259595
0 -0.000212546 0.0112174 0.000524116
-9.03502e-21 0.0110059 0.00234034 0.00168884
5.64689e-22 0.00853188 0.00736656 0.000464668
0 0.00728421 0.00865713 0.000480272
1.0842e-19 0.00228732 0.0112174 0.000537672
0 -0.0114503 0 0.00122299
0 -0.0114503 1.81853e-05 0.00122299
0 -0.0114698 0 0.00122431
3.38813e-21 -0.011489 1.80881e-05 0.00122279
0 -0.0114891 0 0.00122279
1.0842e-19 0.00977602 0.00608381 0.000435929
1.0842e-19 -0.00271244 0.0112173 0.000515949
-1.0842e-19 -0.00771318 0.0086566 0.000563035
4.23516e-22 -0.00895974 0.00736235 0.000796026
4.23516e-22 -0.00896729 0.00736236 0.000795651
9.31736e-21 0.00603252 0.00994255 0.000519096
0 0.00604059 0.00994254 0.000519294
2.82344e-22 -0.011468 0.00234 0.00131545
7.05155e-20 -0.00646371 0.00994772 0.00052686
2.1684e-19 -0.0102148 0.00608326 0.00106585
-1.12938e-21 0.0110204 0.0047994 0.000594992
2.1684e-19 0.00478716 0.0112174 0.000552271
0 0.0122435 0.00117144 0.00257542
0 -0.00521236 0.0112172 0.000511981
5.64689e-22 -0.0114652 0.00479955 0.00125883
-2.37169e-20 0.00103742 0.0124875 0.000575756
9.53971e-20 -0.00146246 0.0124882 0.000559243
0 0.01226 0.00356989 0.000689308
0 -0.012719 0.0011702 0.00124207
8.35386e-20 0.00353726 0.0124884 0.000591922
-1.0842e-19 0.00978349 0.0086568 0.000483127
1.20596e-19 -0.00396235 0.0124875 0.000544668
1.41172e-22 0.00853624 0.00994662 0.000526509
0 -0.0127167 0.00357001 0.00137203
5.64689e-22 0.0110308 0.00736595 0.000457468
0 0.0133043 0 0.00253331
0 0.0133101 0.00016476 0.0025332
1.0842e-19 0.00728695 0.0112174 0.000565828
-1.05879e-22 -0.00896334 0.00994548 0.000554517
1.0842e-19 -0.010213 0.0086565 0.000618367
2.71051e-20 0.0134843 0 0.00251971
0 -0.00771229 0.0112172 0.000514734
4.23516e-20 -0.0114661 0.00736317 0.000888355
-2.71051e-20 0.0136661 0.000169324 0.00251461
-2.71051e-20 0.0136704 0 0.00251415
-1.0842e-19 0.0122743 0.00608241 0.000422349
0 0.0135014 0.00233865 0.00159817
-1.0842e-19 -0.000212091 0.0137434 0.000610753
8.49151e-20 0.00603705 0.0124872 0.000606466
0 0.00228788 0.0137434 0.000630147
0 -0.0139536 0 0.001303
-1.69407e-21 -0.0139536 1.37177e-05 0.001303
0 -0.0139682 0 0.00130396
0 -0.0139828 1.36577e-05 0.00130352
0 -0.0139828 0 0.00130352
0 -0.00271207 0.0137433 0.000585851
8.63709e-20 -0.00646227 0.0124876 0.000534148
0 -0.0127143 0.00608309 0.00114659
-2.82344e-22 -0.0139669 0.00233981 0.00131482
6.77626e-21 0.0135179 0.00479763 0.000535683
0 0.00478783 0.0137434 0.000647254
2.1684e-19 -0.00521206 0.0137433 0.000564652
0 -0.0139646 0.0047994 0.00124631
-1.0842e-19 0.0147376 0.00117073 0.00247384
8.47033e-22 0.0110359 0.00994643 0.000533023
1.0842e-19 0.00978668 0.0112174 0.000576417
0 0.0122827 0.00865616 0.000488372
3.23725e-20 0.00103796 0.0149988 0.000664108
1.40363e-19 -0.00146203 0.0149988 0.00064201
1.05879e-22 0.00853678 0.012487 0.000618278
1.0842e-19 -0.0102122 0.0112172 0.000522207
-1.25255e-19 -0.011463 0.00994715 0.000601903
0 0.0147565 0.00356775 0.000610597
-1.0842e-19 -0.0152176 0.00117005 0.00136459
-1.24937e-20 -0.0089622 0.0124877 0.0005298
-1.0842e-19 -0.0127128 0.00865642 0.000721466
5.64689e-22 0.0135297 0.00736494 0.000453981
1.54206e-19 0.00353794 0.0149988 0.000682408
3.20185e-20 -0.00396203 0.0149988 0.000617394
-1.0842e-19 0.00728776 0.0137434 0.000660166
0 -0.0152158 0.00356979 0.00128062
0 0.0157567 0 0.0024182
2.1684e-19 -0.00771205 0.0137433 0.000545061
0 0.0157653 0.000200597 0.00241811
-1.25784e-19 -0.0139652 0.00736838 0.000969118
1.0842e-19 0.0147725 0.00608051 0.000413108
-2.71051e-20 0.0159775 0 0.00240014
-4.51751e-21 0.0159972 0.00233633 0.001497
6.61744e-24 0.00603803 0.0149987 0.000697199
-2.71051e-20 0.0162004 0.000207421 0.00239025
-2.71051e-20 0.0162074 0 0.00238921
1.0842e-19 -0.000212011 0.0162494 0.000697603
3.1466e-20 -0.00646202 0.0149988 0.000592232
0 -0.0152138 0.00608293 0.00118404
1.0842e-19 0.00228798 0.0162494 0.000717823
-1.69407e-21 -0.016456 0 0.00147791
-1.69407e-21 -0.016456 1.01993e-05 0.00147791
-1.69407e-21 -0.0164669 0 0.00147905
-1.0842e-19 -0.00271201 0.0162494 0.000673726
0 -0.0164778 1.01638e-05 0.00147905
-1.69407e-21 -0.0164778 0 0.00147905
-2.82344e-22 -0.0164659 0.00233964 0.00135738
-2.1684e-19 0.0122863 0.0112172 0.000583779
2.13876e-20 0.0110365 0.0124868 0.000626948
4.51751e-21 0.0160154 0.00479528 0.000488121
1.41172e-22 0.0135355 0.00994611 0.000538246
-1.0842e-19 0.00978761 0.0137434 0.000670359
0 0.00478796 0.0162494 0.0007343
9.40604e-20 -0.0114622 0.0124877 0.000535164
-1.0842e-19 -0.0127122 0.0112171 0.000546167
0 -0.005212 0.0162494 0.000645241
1.0842e-19 -0.010212 0.0137433 0.000537105
1.0842e-19 0.0147819 0.00865531 0.000492126
1.35525e-19 -0.0139628 0.00994585 0.000667951
0 -0.0164641 0.00479927 0.0012052
0 0.00853784 0.0149987 0.000708366
-1.0842e-19 0.0172319 0.0011701 0.00233779
2.5861e-20 -0.00896199 0.0149988 0.000570679
0 -0.0152126 0.00865635 0.000823542
7.78528e-20 0.001038 0.0175 0.00074398
1.20623e-19 -0.001462 0.0175 0.000722191
1.0842e-19 0.017253 0.0035653 0.000516121
0 0.0160286 0.00736361 0.000451665
0 -0.0177165 0.00116993 0.00159261
1.0842e-19 0.0072879 0.0162494 0.00074697
-7.22278e-20 0.003538 0.0175 0.000761581
1.11741e-19 -0.003962 0.0175 0.00069627
1.0842e-19 -0.007712 0.0162494 0.000613881
1.3129e-19 -0.0164645 0.0073643 0.00102708
-1.0842e-19 -0.0177151 0.00356961 0.00118725
-2.71051e-20 0.0182028 0 0.00227828
-2.71051e-20 0.0182155 0.000241221 0.00227833
0 0.0172707 0.00607818 0.00040678
-1.14138e-19 0.013536 0.0124864 0.00063253
1.0842e-19 0.0122874 0.0137434 0.000676889
2.71051e-20 0.0184707 0 0.00225785
5.42854e-20 0.00603798 0.0175 0.000775142
-2.1684e-19 0.0147859 0.011217 0.000588301
0 0.0110381 0.0149986 0.000716146
0 0.0184934 0.00233259 0.00139301
7.03336e-20 -0.006462 0.0175 0.0006662
1.0842e-19 -0.012712 0.0137433 0.000535164
1.0842e-19 -0.0177135 0.0060828 0.00116831
-1.85818e-20 -0.0139621 0.0124877 0.000550904
-2.71051e-20 0.0187394 0.000249081 0.00224668
2.71051e-20 0.0187499 0 0.00224501
0 -0.000212006 0.01875 0.000770965
-5.64689e-22 0.016035 0.00994571 0.000541558
-5.58926e-21 -0.011462 0.0149988 0.000556493
1.0842e-19 0.00228798 0.01875 0.000789518
1.0842e-19 -0.0152122 0.0112171 0.000581592
1.0842e-19 -0.002712 0.01875 0.000746458
0 -0.0189578 0 0.00174196
0 -0.0189578 7.48767e-06 0.00174197
0 -0.0189658 0 0.0017432
2.1684e-19 0.00978778 0.0162494 0.000755863
0 -0.0189738 7.46722e-06 0.00174367
-1.69407e-21 -0.0189738 0 0.00174367
-4.23516e-22 -0.0189651 0.0023395 0.00144777
-9.03502e-21 0.0185135 0.0047916 0.000450139
-1.0842e-19 -0.010212 0.0162494 0.000586595
2.60463e-20 -0.0164626 0.00994597 0.000747916
0 0.0172808 0.0086543 0.000494802
0 0.00478797 0.01875 0.000804673
1.0842e-19 -0.005212 0.01875 0.000719644
0 0.00853794 0.0175 0.000784611
1.69407e-20 -0.0189602 0.00479567 0.00114564
-4.23516e-22 -0.0189672 0.00479567 0.00114539
1.58078e-19 -0.008962 0.0175 0.000634735
1.0842e-19 -0.0177125 0.00865629 0.000931885
-1.0842e-19 0.0197268 0.0011683 0.00219206
-3.38813e-21 0.0185276 0.00736167 0.00044989
0 0.001038 0.02 0.000803662
1.47606e-20 -0.001462 0.02 0.0007829
0 0.0197514 0.00356002 0.000469517
0 0.00728791 0.01875 0.000814614
-2.1684e-19 0.0147871 0.0137433 0.000680806
2.64698e-23 0.013538 0.0149986 0.000720789
-2.1684e-19 -0.0202155 0.00116983 0.00189326
1.0842e-19 -0.007712 0.01875 0.000686023
-1.57772e-30 0.003538 0.02 0.000818905
-1.86347e-20 0.016039 0.0124859 0.000635493
7.26331e-20 -0.0189639 0.00736469 0.00104986
1.0842e-19 0.0122876 0.0162494 0.00076137
3.28979e-21 -0.003962 0.02 0.000756911
-2.81134e-20 -0.013962 0.0149988 0.000550618
0 -0.015212 0.0137433 0.000540788
-1.0842e-19 -0.0202144 0.00356944 0.00110784
-1.0842e-19 0.0172851 0.0112168 0.000590584
1.0842e-19 -0.012712 0.0162494 0.000567055
2.71051e-20 0.0206492 0 0.00212571
-1.4792e-19 -0.0164621 0.0124879 0.000583839
0 0.0206673 0.000280665 0.00212571
0 0.0197697 0.00607424 0.000403506
5.9557e-22 0.0110378 0.0174999 0.00079054
0 0.006038 0.02 0.00082939
-6.1939e-20 -0.011462 0.0175 0.000607049
-5.42101e-20 0.0209637 0 0.00210214
-2.1684e-19 -0.0177121 0.0112171 0.000655911
3.28979e-21 -0.006462 0.02 0.000725484
-2.82344e-22 0.0185343 0.00994519 0.000542551
0 -0.0202132 0.00608269 0.00111848
-9.03502e-21 0.0209903 0.00232545 0.00129173
0 0.00978779 0.01875 0.000820985
0 -0.000212006 0.02125 0.000819152
2.71051e-20 0.0212775 0.000287875 0.00208136
-2.71051e-20 0.0212916 0 0.00207872
0 -0.010212 0.01875 0.000652433
-1.0842e-19 0.00228798 0.02125 0.000835016
5.41042e-20 -0.0189619 0.00994606 0.000822894
-1.0842e-19 -0.002712 0.02125 0.000795025
8.47033e-22 -0.0214591 5.43834e-06 0.00206329
8.47033e-22 -0.0214707 0 0.00206476
0 0.0210123 0.00478532 0.000424068
0 0.0197796 0.008653 0.000494704
-1.41172e-22 -0.0214644 0.00233938 0.00157431
6.61744e-24 0.00853794 0.02 0.000835428
0 0.00478797 0.02125 0.000846412
1.0842e-19 -0.005212 0.02125 0.000766517
-9.67102e-20 -0.008962 0.02 0.000690793
-5.29396e-23 0.016038 0.0149984 0.000722585
1.0842e-19 0.0147873 0.0162494 0.000763988
-1.0842e-19 -0.0202124 0.00865623 0.00098049
5.12455e-20 -0.0214607 0.00479643 0.00107601
-1.0842e-19 0.0172864 0.0137433 0.000681931
-5.2119e-20 0.0135377 0.0174999 0.000793381
0 0.0222219 0.00116339 0.0020211
1.0842e-19 -0.015212 0.0162494 0.000559432
-3.67355e-20 -0.016462 0.0149988 0.000554521
-1.12938e-21 0.0210266 0.00735887 0.000447304
-1.28749e-19 0.0185339 0.012485 0.000635511
0 -0.013962 0.0175 0.000587599
-1.0842e-19 0.0122876 0.01875 0.00082393
1.0842e-19 -0.017712 0.0137433 0.000557338
0 0.00728791 0.02125 0.000851862
-5.3507e-20 0.001038 0.0225 0.000827772
-2.1684e-19 0.0222501 0.00355028 0.000420987
1.47606e-20 -0.001462 0.0225 0.000809258
0 -0.007712 0.02125 0.000729753
0 -0.012712 0.01875 0.000622106
7.7927e-20 -0.0214634 0.00736691 0.00102991
-3.63298e-21 -0.018962 0.0124878 0.00063223
-1.0842e-19 0.0197839 0.0112166 0.000589677
1.0842e-19 -0.0227147 0.00116974 0.00223473
-5.80944e-20 0.003538 0.0225 0.000839752
-4.37413e-20 0.011038 0.0199999 0.000838309
-3.54881e-20 -0.003962 0.0225 0.000784636
-1.0842e-19 -0.0227139 0.00356931 0.00104519
3.28979e-21 -0.011462 0.02 0.00065839
-2.1684e-19 0.0222687 0.00606848 0.000399124
0 0.0230907 0 0.00196125
1.0842e-19 -0.0202121 0.0112171 0.000724638
0 0.0231152 0.000321554 0.00196156
1.12938e-21 0.0210335 0.00994459 0.000540774
-7.02516e-20 0.00603798 0.0225 0.000846638
-1.0842e-19 0.00978779 0.02125 0.000854251
3.28979e-21 -0.006462 0.0225 0.000755666
-5.42101e-20 0.0234563 0 0.00194948
1.0842e-19 -0.0227129 0.00608259 0.00103258
0 -0.010212 0.02125 0.000694963
4.51751e-21 0.0234867 0.00231572 0.00119557
-1.58183e-19 -0.0214623 0.00994613 0.000872929
1.0842e-19 0.0172867 0.0162494 0.000763514
1.11491e-19 0.0160373 0.0175003 0.000793248
1.0842e-19 -0.000212006 0.02375 0.000821978
0 0.0238222 0.000334698 0.00191993
1.25043e-19 0.0185361 0.0149979 0.000721171
2.71051e-20 0.0238446 0 0.00191623
-1.0842e-19 0.00228798 0.02375 0.000834942
1.0842e-19 0.0147874 0.01875 0.000824225
0 0.0222784 0.00865156 0.000492148
-1.0842e-19 -0.002712 0.02375 0.000800877
0 -0.02396 3.91345e-06 0.0023899
-4.51751e-21 0.0235099 0.00477762 0.000404353
-9.67102e-20 -0.016462 0.0175 0.000578658
2.1684e-19 -0.017712 0.0162494 0.000560512
6.61744e-24 0.00853794 0.0225 0.000849385
0 -0.0239602 0.00233583 0.00171512
3.38813e-20 -0.0239674 0.00234276 0.00171366
-1.0842e-19 0.0197854 0.0137433 0.000679503
0 -0.015212 0.01875 0.000601795
-3.35372e-20 0.0135377 0.0199999 0.00083845
-1.74279e-20 -0.018962 0.0149988 0.000570192
8.08456e-20 -0.008962 0.0225 0.000726134
0 0.00478797 0.02375 0.000842638
1.0842e-19 -0.0227123 0.00865619 0.000987997
-1.0842e-19 -0.005212 0.02375 0.000776127
-1.91544e-20 -0.013962 0.02 0.0006334
1.39337e-19 -0.0239649 0.00479702 0.000999698
2.1684e-19 -0.020212 0.0137433 0.000591494
3.854e-20 0.0210324 0.0124842 0.000632211
-6.77626e-21 0.0210325 0.0124911 0.000632349
1.0842e-19 0.0122876 0.02125 0.000854068
2.25875e-21 0.0235251 0.00735571 0.000443514
2.1684e-19 0.0247144 0.00115991 0.00186799
0 -0.012712 0.02125 0.000664058
2.65062e-20 -0.021462 0.0124878 0.00068719
0 0.00728791 0.02375 0.000845639
-1.0842e-19 0.0222828 0.0112165 0.000586097
0 -0.007712 0.02375 0.000750267
0 0.024745 0.00354107 0.000399861
5.82295e-20 0.001038 0.025 0.000820109
5.35381e-20 -0.001462 0.025 0.000809958
-2.4339e-20 0.0110378 0.0224999 0.000849485
-6.52215e-20 -0.0239631 0.00736519 0.000968292
0 -0.025214 0.00116967 0.00254514
-4.17705e-20 0.003538 0.025 0.000826078
-1.91544e-20 -0.011462 0.0225 0.000700979
3.28979e-21 -0.003962 0.025 0.000796289
0 -0.0227121 0.0112171 0.000799744
1.0842e-19 -0.0252134 0.00356919 0.00100879
1.11173e-19 0.0185364 0.0174993 0.000789583
0 0.0247657 0.00606274 0.000395888
0 0.0172867 0.01875 0.000821255
0 0.0255124 0 0.00180855
1.12938e-21 0.0235324 0.00994397 0.000536109
5.42101e-20 0.0255491 0.000373423 0.0018087
-1.0842e-19 0.0197856 0.0162494 0.000759635
1.11491e-19 0.0160373 0.0199997 0.000835628
0 0.00978779 0.02375 0.000845787
-7.02541e-20 0.00603798 0.025 0.000828312
0 -0.017712 0.01875 0.000592888
-4.93547e-20 -0.018962 0.0175 0.000579385
3.28979e-21 -0.006462 0.025 0.000781886
3.55754e-20 0.0210351 0.0149975 0.000715866
1.0842e-19 -0.010212 0.02375 0.000729553
2.1684e-19 0.0147874 0.02125 0.000851578
-1.91544e-20 -0.016462 0.02 0.000619764
0 -0.020212 0.0162494 0.000571435
0 -0.0252127 0.0060825 0.000911453
7.12566e-20 -0.0239623 0.00994618 0.000888618
0 0.0259495 0 0.00178902
-2.71051e-20 0.0259804 0.00230532 0.00110584
0 -0.015212 0.02125 0.00064564
-1.0842e-19 0.0222843 0.0137433 0.000673638
5.68163e-20 -0.021462 0.0149988 0.000597063
0 0.0247764 0.00865012 0.000487158
-1.0842e-19 -0.000212006 0.02625 0.000810164
-3.35372e-20 0.0135377 0.0224999 0.000847146
1.0842e-19 0.00228798 0.02625 0.000813352
5.42101e-20 0.0263739 0.000391789 0.00175086
-1.0842e-19 -0.002712 0.02625 0.000806816
5.42101e-20 0.0264109 0 0.00174456
8.2321e-21 0.00853794 0.025 0.000827681
0 0.0260059 0.00476911 0.000389428
0 -0.0264606 2.79231e-06 0.0027044
5.84013e-20 -0.013962 0.0225 0.000683976
0 -0.022712 0.0137433 0.000633488
3.28979e-21 -0.008962 0.025 0.000770041
5.59042e-20 -0.0264607 0.00234175 0.00185586
-2.20229e-20 0.0235308 0.0124833 0.00062518
2.5411e-21 0.0235308 0.0124918 0.000625332
1.0842e-19 -0.0252122 0.00865616 0.000941205
0 0.00478797 0.02625 0.000813379
0 0.0122876 0.02375 0.000843833
1.0842e-19 -0.005212 0.02625 0.000801336
-9.21148e-20 -0.0264613 0.00479744 0.000913721
0 -0.012712 0.02375 0.000715345
-2.75848e-20 -0.023962 0.0124878 0.000735302
1.12938e-21 0.0260223 0.00735219 0.000438231
-2.1684e-19 0.0247812 0.0112164 0.000578523
0 0.0272032 0.00115759 0.00170086
0 0.00728791 0.02625 0.000811592
1.0842e-19 0.0197857 0.01875 0.000813918
-1.43996e-20 0.0185378 0.0199993 0.000828785
-4.37413e-20 0.011038 0.0249999 0.000824576
1.0842e-19 -0.007712 0.02625 0.000799815
-6.35275e-21 0.0210376 0.0174989 0.000781094
-1.0842e-19 0.0172867 0.02125 0.000845451
1.0842e-19 0.0272397 0.00352904 0.000371357
8.34327e-20 -0.0264628 0.00736639 0.000860326
-9.67102e-20 -0.011462 0.025 0.000763283
-3.71772e-20 0.001038 0.0275 0.000793892
1.47606e-20 -0.001462 0.0275 0.000796389
8.08456e-20 -0.018962 0.02 0.000615689
0 -0.020212 0.01875 0.000592701
-1.0842e-19 0.0222846 0.0162494 0.000750583
-1.0842e-19 -0.025212 0.0112171 0.000826329
3.12343e-20 0.0160379 0.0224997 0.000841689
-1.0842e-19 -0.017712 0.02125 0.000638734
1.39773e-19 -0.021462 0.0175 0.000589955
3.57788e-20 0.003538 0.0275 0.000790289
1.0842e-19 -0.0277135 0.00116961 0.00286371
-3.54881e-20 -0.003962 0.0275 0.000798349
-5.64689e-22 0.0260298 0.00994338 0.000528655
5.84013e-20 -0.016462 0.0225 0.0006768
1.49925e-19 0.0235338 0.014997 0.000705788
0 0.0272619 0.0060552 0.000390172
0 -0.022712 0.0162494 0.000591876
0 0.0279286 0 0.00165774
1.0842e-19 -0.0277131 0.00356909 0.0009783
0 0.0147874 0.02375 0.000839103
5.42101e-20 0.0279823 0.000421403 0.00165916
0 0.00978779 0.02625 0.000807705
-7.02533e-20 0.00603798 0.0275 0.000784902
0 -0.010212 0.02625 0.000800528
0 -0.015212 0.02375 0.000710863
-6.35958e-21 -0.006462 0.0275 0.000801729
1.47595e-20 -0.023962 0.0149988 0.000633163
1.08354e-19 -0.0264622 0.00994621 0.000855354
1.0842e-19 0.0247828 0.0137434 0.000662558
0 -0.0277125 0.00608242 0.000754001
5.42101e-20 0.0284251 0 0.00164325
-3.35372e-20 0.0135377 0.0249999 0.000818691
1.35525e-20 0.0284741 0.00227875 0.00102933
1.0842e-19 0.0272718 0.00864862 0.000479909
-1.91544e-20 -0.013962 0.025 0.000764421
0 -0.025212 0.0137433 0.000682275
1.0842e-19 -0.000212016 0.0287506 0.000780088
6.61744e-24 0.00853794 0.0275 0.000777986
0 0.00228797 0.0287506 0.000771961
5.64689e-22 0.0260327 0.0124876 0.000614631
0 -0.00271201 0.0287506 0.000788485
4.51751e-21 0.0285046 0.00475129 0.000377061
-5.42101e-20 0.0288977 0.000401716 0.00163434
-3.54881e-20 -0.008962 0.0275 0.00080835
0 0.0289345 0 0.00163091
0 -0.0289611 1.97592e-06 0.00299723
-1.0842e-19 0.0122876 0.02625 0.000800979
8.99973e-20 0.0210354 0.0199989 0.000816593
-1.0842e-19 -0.0277122 0.00865612 0.000834826
1.0842e-19 0.0197857 0.02125 0.000834514
1.82112e-20 -0.0289611 0.00234099 0.00198553
1.0842e-19 0.0222847 0.01875 0.000800225
2.1684e-19 0.00478795 0.0287506 0.000762459
-1.47172e-20 0.0185378 0.0224993 0.000831838
-1.0842e-19 -0.012712 0.02625 0.000807704
0 -0.00521201 0.0287506 0.000796756
-1.02157e-19 -0.026462 0.0124878 0.000758106
-9.06325e-20 0.0235342 0.0174985 0.000767182
0 -0.020212 0.02125 0.000638433
-1.91544e-20 -0.021462 0.02 0.000620965
-1.71524e-20 -0.0289615 0.00479776 0.000819366
-1.0842e-19 0.0172867 0.02375 0.000830625
1.58401e-19 -0.018962 0.0225 0.000678471
6.77626e-21 0.0285183 0.00734773 0.000431477
0 -0.022712 0.01875 0.000603805
-1.0842e-19 0.0272766 0.0112163 0.000568491
1.0842e-19 -0.017712 0.02375 0.000711962
-4.37413e-20 0.011038 0.0274999 0.000769083
2.1684e-19 0.0247831 0.0162494 0.000736248
1.0842e-19 0.0072879 0.0287506 0.000752168
3.97735e-20 -0.023962 0.0175 0.000612876
1.11544e-19 0.0160373 0.0249997 0.000809483
1.0842e-19 0.0297038 0.00111931 0.00159799
0 -0.007712 0.0287506 0.000809011
-1.57772e-30 -0.011462 0.0275 0.000819298
4.61633e-20 -0.0289626 0.00736544 0.000723479
0 -0.027712 0.0112171 0.000819414
-1.91544e-20 -0.016462 0.025 0.000774481
1.0842e-19 0.0297515 0.00348068 0.000361603
-1.0842e-19 -0.025212 0.0162494 0.000625077
5.43028e-20 0.00103803 0.0300012 0.000745183
3.21806e-20 -0.00146206 0.0300012 0.000757166
-5.75982e-20 0.0260294 0.0149949 0.000691238
0 0.0260372 0.0149948 0.000691338
-1.0842e-19 0.0147874 0.02625 0.000790847
-5.64689e-22 0.0285254 0.00994287 0.000518933
6.41363e-20 0.00353804 0.0300011 0.0007328
-1.0842e-19 -0.0302131 0.00116957 0.00313077
5.05937e-20 -0.00396204 0.0300012 0.000768983
0 -0.015212 0.02625 0.000823773
-1.0842e-19 0.0297582 0.00604461 0.000384922
-1.0842e-19 0.00978777 0.0287506 0.000740469
0 0.0304053 0 0.00157908
-6.73505e-20 -0.026462 0.0149988 0.000667315
1.0842e-19 -0.0302128 0.00356901 0.000936692
0 0.0304496 0.000427148 0.00157979
0 -0.010212 0.0287506 0.000824049
-1.0842e-19 0.0272782 0.0137434 0.000648565
-1.2454e-20 0.00603789 0.0300011 0.000719568
-1.43069e-20 -0.0289621 0.00994623 0.000779514
-2.65492e-20 0.0135379 0.0274999 0.000757901
5.91434e-20 -0.00646203 0.0300012 0.000781431
1.0842e-19 0.0222847 0.02125 0.000817704
-3.1552e-20 0.0210376 0.0224989 0.000816936
1.0842e-19 -0.0302124 0.00608237 0.000604449
8.08456e-20 -0.013962 0.0275 0.000835316
-3.00697e-20 0.0235342 0.0199985 0.0007991
-2.1684e-19 0.0197857 0.02375 0.000816762
0 0.0309265 0 0.00160296
0 -0.027712 0.0137433 0.000704933
0 0.0297661 0.00864739 0.000471002
-1.35525e-20 0.0309769 0.0022233 0.000989514
-1.0842e-19 0.0247832 0.01875 0.000781638
-1.91544e-20 -0.021462 0.0225 0.0006924
-1.0842e-19 -0.022712 0.02125 0.000648922
2.74227e-20 0.0185364 0.0249993 0.000796386
-2.82344e-22 0.0285283 0.0124876 0.000601132
1.0842e-19 -0.020212 0.02375 0.000724755
0 0.00853781 0.0300011 0.000705435
-9.67102e-20 -0.023962 0.02 0.000639867
0 -0.000212128 0.0312566 0.000722241
1.0842e-19 0.0122876 0.0287506 0.000727168
5.56296e-20 -0.00896202 0.0300012 0.000794839
0 0.00228784 0.0312566 0.000706362
-4.51751e-21 0.0310004 0.00472577 0.000367269
-2.66815e-20 0.0260298 0.0174964 0.000748565
7.6233e-20 0.026037 0.0174963 0.000748597
0 -0.0027121 0.0312566 0.000737779
8.08456e-20 -0.018962 0.025 0.000793326
0 -0.025212 0.01875 0.000630743
0 -0.0302121 0.00865609 0.000700862
0 0.0172867 0.02625 0.000777355
0 -0.012712 0.0287506 0.000844916
5.42101e-20 0.0314366 0.000417556 0.00158381
0 -0.0314613 1.38619e-06 0.00325908
-1.0842e-19 0.0314756 0 0.00158334
-4.73379e-20 -0.028962 0.0124878 0.000750054
2.11758e-20 -0.0314642 0.00234041 0.00208541
0 0.0047878 0.0312566 0.00069033
0 -0.017712 0.02625 0.000851324
-1.0842e-19 -0.00521208 0.0312567 0.000752851
1.41236e-19 -0.026462 0.0175 0.00064527
0 0.0272786 0.0162494 0.000717767
-1.0842e-19 0.0297706 0.0112165 0.000555761
2.5411e-20 -0.0314632 0.00479798 0.000720068
1.11544e-19 0.0160373 0.0274997 0.000744306
-9.03502e-21 0.0310128 0.00734326 0.000423434
1.36743e-19 0.0110377 0.030001 0.000690216
-9.67102e-20 -0.016462 0.0275 0.000856526
0 0.00728772 0.0312566 0.000673215
0 -0.011462 0.0300012 0.000809449
-1.0842e-19 -0.027712 0.0162494 0.000657042
0 -0.00771206 0.0312567 0.000767051
0 0.0322011 0.00107821 0.00156744
1.0842e-19 -0.030212 0.0112171 0.000762855
0 0.0285291 0.0149988 0.000673512
-2.60992e-20 -0.0314619 0.00736553 0.000588867
-2.1684e-19 0.0147873 0.0287506 0.000712594
0 0.0322344 0.0034326 0.000345316
-1.0842e-19 -0.015212 0.0287506 0.000864874
4.9022e-20 0.00103719 0.0325115 0.00064587
-1.0302e-19 -0.00146264 0.0325126 0.000658996
-3.00697e-20 0.0235342 0.0224985 0.000797506
-1.0842e-19 0.0222847 0.02375 0.000798753
-5.64689e-22 0.0310198 0.00994264 0.000507364
-3.75049e-20 -0.028962 0.0149988 0.000691149
0 0.0247832 0.02125 0.000796803
8.97855e-20 0.0210354 0.0250011 0.000779493
-6.28922e-20 0.00353699 0.0325114 0.000631508
-1.0842e-19 -0.0327128 0.00116953 0.00338742
-1.0535e-20 -0.0039625 0.0325118 0.000670938
-1.0842e-19 0.00978757 0.0312566 0.000655779
-5.42101e-20 0.0327897 0 0.00151259
0 0.0297723 0.0137435 0.000631301
0 0.0322502 0.00603529 0.000377197
-4.48927e-20 0.0260298 0.0199964 0.000777327
-1.09691e-19 0.026037 0.0199963 0.000777305
0 -0.022712 0.02375 0.00075749
-5.42101e-20 0.0328638 0.000481289 0.00150672
0 -0.023962 0.0225 0.00072391
1.0842e-19 0.0197857 0.02625 0.000760799
0 -0.010212 0.0312567 0.000779188
0 -0.0327126 0.00356894 0.000848972
5.35219e-20 0.0135375 0.0300009 0.00067398
-9.67102e-20 -0.021462 0.025 0.000822863
1.0842e-19 -0.025212 0.02125 0.000675998
-5.60498e-20 -0.0314621 0.00994625 0.000678451
-8.47033e-21 0.00603673 0.0325111 0.000615931
1.58469e-19 -0.013962 0.0300012 0.000824009
0 0.0272786 0.01875 0.000758675
1.0842e-19 -0.020212 0.02625 0.000885263
-7.46448e-20 -0.00646237 0.0325125 0.000681059
1.05879e-22 0.0185364 0.0274993 0.000728419
6.45119e-20 -0.026462 0.02 0.000675763
2.1684e-19 -0.030212 0.0137433 0.000713349
0 -0.0327123 0.00608232 0.000485152
-1.0842e-19 0.0322592 0.00864664 0.0004606
3.28979e-21 -0.018962 0.0275 0.000880894
-8.47033e-22 0.0310227 0.0124877 0.000585377
0 0.0334483 0 0.00149823
-1.0842e-19 -0.027712 0.01875 0.000668217
-5.64689e-22 0.0285291 0.0175 0.000726576
-9.03502e-21 0.033468 0.00219424 0.000912271
0 0.0172867 0.0287506 0.000696412
0 0.0122874 0.0312566 0.000637328
0 0.00853641 0.0325109 0.000599195
-7.95946e-20 -0.00896229 0.032512 0.000688086
1.0842e-19 -0.012712 0.0312567 0.000789577
1.0842e-19 -0.017712 0.0287506 0.000886138
0 -0.000212753 0.0337826 0.000583362
-4.51751e-21 0.0334864 0.00470655 0.000354611
-1.0842e-19 -0.0327121 0.00865608 0.000565197
-1.96303e-20 -0.028962 0.0175 0.000682564
-3.45083e-20 -0.031462 0.0124878 0.000713372
0 0.00228711 0.0337826 0.000570981
0 -0.00271261 0.0337826 0.000592048
0 0.0297727 0.0162494 0.00069626
0 -0.0339616 9.62831e-07 0.00348134
-3.44107e-20 0.0160371 0.0300007 0.000656826
1.64113e-19 -0.0339616 0.00233999 0.0021543
-1.0842e-19 0.00478694 0.0337826 0.000557836
-1.0842e-19 0.0322633 0.0112172 0.000541461
-5.42101e-20 0.0341686 0 0.00134358
1.0842e-19 -0.00521249 0.0337827 0.000600491
-9.47726e-20 -0.016462 0.0300012 0.000836582
-2.25875e-21 0.0334994 0.00733869 0.000414273
-1.32349e-20 -0.0339617 0.00479816 0.000631303
0 -0.030212 0.0162494 0.00068932
0 0.0247832 0.02375 0.000776732
-8.87267e-20 0.011036 0.0325107 0.000581638
-3.02814e-20 0.0235342 0.0249985 0.000759419
-1.82112e-20 0.0260298 0.0224964 0.000774562
-3.854e-20 0.026037 0.0224963 0.000774478
1.0842e-19 0.0222847 0.02625 0.000741644
-2.82344e-22 0.0310234 0.0149988 0.000653326
0 -0.0114622 0.0325121 0.000690779
-1.0842e-19 0.00728676 0.0337827 0.000541819
-1.0842e-19 0.0147871 0.0312566 0.000618702
0 0.0272786 0.02125 0.000772099
-1.0842e-19 -0.032712 0.0112171 0.00068443
8.97855e-20 0.0210354 0.0274989 0.000710467
8.08456e-20 -0.023962 0.025 0.000861846
0 -0.025212 0.02375 0.00081323
1.0842e-19 -0.00771239 0.0337827 0.000603226
5.42101e-20 0.0346563 0.00073045 0.00132068
1.0842e-19 -0.022712 0.02625 0.000923945
-9.67102e-20 -0.026462 0.0225 0.000775383
-1.25096e-19 -0.0339619 0.00736558 0.000487968
0 -0.015212 0.0312567 0.000796588
-2.82344e-22 0.0285291 0.02 0.000752613
-2.6792e-20 -0.031462 0.0149988 0.000701417
1.0842e-19 0.0347093 0.003417 0.000325994
1.27816e-19 -0.021462 0.0275 0.000906283
0 0.0197856 0.0287506 0.000679093
-1.0842e-19 -0.027712 0.02125 0.000728095
1.12938e-21 0.033505 0.0099433 0.000494347
1.18585e-20 0.00103325 0.0350498 0.000471304
-1.02915e-19 0.00104014 0.0350498 0.000470913
0 0.0322649 0.0137437 0.000612518
8.89385e-21 -0.00146578 0.0350506 0.000476768
-1.0842e-19 0.0351003 0 0.00128479
1.0842e-19 -0.020212 0.0287506 0.000900853
1.0842e-19 0.00978651 0.0337828 0.000525442
0 0.0297727 0.01875 0.000733532
3.28979e-21 -0.028962 0.02 0.000728885
-6.14099e-20 0.0135356 0.0325104 0.000563541
1.41172e-22 0.00353645 0.0350534 0.000462812
-2.1684e-19 -0.0352126 0.0011695 0.00357527