# k  POINT_DATA 37667
# x  y  z  k
-5.90671e-05 2.1684e-19 0 0.00215722
0.000934805 0 0 0.00241752
-0.00106911 0 0 0.00192864
0.00140088 2.71051e-20 0 0.00249393
-0.00151888 -2.71051e-20 0 0.00181755
0.00117901 -9.03502e-21 0.00117113 0.0024052
-0.00128849 2.25875e-20 0.00117062 0.00185062
-4.31765e-05 1.0842e-19 0.00234072 0.00176399
0.00239261 0 0 0.00261983
-0.00253032 0 0 0.00154849
0.00336229 8.13152e-20 0 0.0027711
0.00242341 0 0.00234108 0.00188401
-0.00252293 0 0.00234014 0.00149591
-0.00355263 -5.42101e-20 0 0.00126184
0.00120442 1.35525e-20 0.0035713 0.00130111
-0.00127507 -9.03502e-21 0.00357065 0.00147451
0.00362707 -4.51751e-21 0.00117131 0.00271143
0.00385067 -5.42101e-20 0 0.00280222
-0.00376956 -4.51751e-21 0.00117017 0.00121476
-0.00399133 0 0 0.00117231
-2.29192e-05 -1.0842e-19 0.00480025 0.000980775
0.00481724 0 0 0.00282761
-0.00501448 0 0 0.0011197
0.00367197 -1.35525e-20 0.00357105 0.00104911
-0.00376301 4.51751e-21 0.00356998 0.00140549
0.00245907 -1.0842e-19 0.00480044 0.000816286
0.00487218 1.0842e-19 0.00233996 0.00185924
-0.00251212 0 0.00479977 0.00110201
-0.00501145 0 0.00233967 0.0012426
0.00575627 -5.42101e-20 0 0.00288545
-0.00604431 0 0 0.0010231
0.00605007 -1.807e-20 0.00116989 0.00278569
0.00122797 -4.51751e-21 0.006084 0.000553484
-0.001262 -9.03502e-21 0.00608355 0.000665144
0.00627263 5.42101e-20 0 0.0028689
-0.00625929 -4.51751e-21 0.00116985 0.00101639
-0.00647612 1.35525e-19 0 0.000995193
0.00493143 -2.1684e-19 0.00479869 0.000654326
-0.00500606 0 0.00479935 0.0011603
0.00612525 -9.03502e-21 0.00356686 0.000813719
0.00371201 -1.35525e-20 0.00608361 0.000477325
-0.00375618 0 0.00608307 0.000874719
-0.00625636 0 0.00356948 0.00128902
0.00720746 0 0 0.00279753
-8.80336e-06 0 0.00736662 0.000538959
-0.00750642 -1.0842e-19 0 0.00102756
0.00730091 1.0842e-19 0.00233311 0.00173378
0.00248389 -1.0842e-19 0.00736673 0.000485638
-0.00250453 1.0842e-19 0.00736633 0.000635614
-0.00750536 1.0842e-19 0.00233933 0.00111938
0.00810899 2.71051e-20 0 0.00276399
0.00844495 -4.51751e-21 0.00116271 0.00264359
-0.00854047 8.13152e-20 0 0.0010308
0.00866226 5.42101e-20 0 0.00272633
0.0061894 1.35525e-20 0.00607973 0.000430017
-0.00625302 -1.35525e-20 0.00608271 0.00104391
0.00124214 1.807e-20 0.00865691 0.00048215
-0.00125418 4.51751e-21 0.00865666 0.000497594
0.00739431 0 0.00479014 0.000525495
-0.0087541 0 0.00116965 0.00104268
0.00497255 0 0.00736563 0.000456882
-0.00500221 -1.0842e-19 0.00736611 0.000767186
-0.00750287 -1.0842e-19 0.00479904 0.00113509
-0.00896833 0 0 0.00104945
0.00856709 0 0.00355042 0.000626748
0.00373618 9.03502e-21 0.00865671 0.000477081
-0.00375209 0 0.00865641 0.000542016
-0.00875292 0 0.00356915 0.00110729
0.00955779 0 0 0.00266084
-2.33168e-06 -1.0842e-19 0.00994661 0.000506204
0.00971438 0 0.00230723 0.00159552
-0.0100026 1.0842e-19 0 0.00118687
0.00249558 0 0.00994668 0.000513202
-0.00250115 0 0.00994648 0.000514795
-0.0100023 0 0.00233912 0.00110611
0.0103892 -8.13152e-20 0 0.00260653
0.00745704 0 0.00736086 0.000443974
-0.00750103 1.0842e-19 0.00736595 0.000884059
0.00866276 -4.51751e-21 0.00606706 0.000405069
-0.0087514 1.35525e-20 0.00608247 0.00106488
0.00622747 9.03502e-21 0.00865489 0.000481755
-0.006251 9.03502e-21 0.00865624 0.000633401
0.0107996 -2.25875e-20 0.00114301 0.00247164
0.00985495 0 0.00476418 0.000444682
0.010977 8.13152e-20 0 0.00253718
-0.0110388 -2.71051e-20 0 0.00129944
-0.0100013 0 0.00479884 0.00102683
0.00499216 0 0.00994634 0.000523943
-0.00500053 -1.0842e-19 0.0099464 0.000551388
0.00124803 -9.03502e-21 0.0112174 0.000536841
-0.001251 4.51751e-21 0.0112172 0.000517171
-0.0112517 1.35525e-20 0.00116954 0.00131362
-0.0114646 5.42101e-20 0 0.00135031
0.0110102 -1.807e-20 0.0035042 0.000537195
0.0118003 1.0842e-19 0 0.00242433
-0.0112513 9.03502e-21 0.00356894 0.000938031
0.00374639 4.51751e-21 0.0112173 0.000562332
-0.00375048 0 0.0112171 0.000514796
0.00871575 4.51751e-21 0.0086503 0.000484752
-0.00875046 9.03502e-21 0.00865614 0.00080337
0.012129 -1.0842e-19 0.00223333 0.00144599
0.0099385 0 0.00735088 0.000436347
-0.0100005 1.0842e-19 0.00736585 0.000933655
0.0074867 0 0.00994503 0.000531313
-0.00750024 0 0.00994635 0.000629598
-3.82247e-07 -2.1684e-19 0.0124879 0.000568897
-0.012501 0 0 0.00150877
0.0126142 0 0 0.00226582
0.0111384 -4.51751e-21 0.00604172 0.000391345
-0.012501 0 0.00233899 0.00119013
0.00249923 1.0842e-19 0.0124879 0.000596493
-0.00250018 -1.0842e-19 0.0124878 0.000543363
-0.0112506 0 0.00608232 0.000983281
0.00624356 -4.51751e-21 0.0112169 0.000577703
-0.00625022 -1.35525e-20 0.0112171 0.000526951
0.0131915 -2.71051e-20 0 0.00231363
0.0123278 -1.0842e-19 0.00471106 0.000403323
0.0132267 9.03502e-21 0.00104247 0.0022193
-0.0125005 1.0842e-19 0.00479871 0.000883669
0.00499843 -1.0842e-19 0.0124878 0.000617134
-0.00500008 0 0.0124878 0.000530877
-0.0135382 2.71051e-20 0 0.00166661
0.00124969 -4.51751e-21 0.0137434 0.000630718
-0.00125016 0 0.0137433 0.000593481
-0.0137506 1.807e-20 0.00116948 0.00166933
0.0135067 9.03502e-21 0.00337591 0.000490787
-0.013963 8.13152e-20 0 0.00172678
0.00997739 -1.0842e-19 0.00994339 0.000531213
-0.0100001 0 0.00994633 0.000728948
0.014125 -5.42101e-20 0 0.00262616
0.0111994 -1.807e-20 0.00864583 0.000480355
-0.0112502 -4.51751e-21 0.00865607 0.000886938
-0.0137505 -4.51751e-21 0.00356883 0.000829655
0.00873818 -1.35525e-20 0.0112161 0.000582063
-0.00875009 -9.03502e-21 0.0112171 0.000574456
0.00374931 -4.51751e-21 0.0137434 0.000656908
-0.00375007 4.51751e-21 0.0137433 0.000551475
0.0143989 0 0 0.00274582
0.0124168 -1.0842e-19 0.00734439 0.00042541
0.0144673 2.71051e-20 0.000330796 0.00274237
-0.0125002 0 0.00736579 0.000880342
0.00749644 -1.0842e-19 0.0124877 0.000626666
-0.00750003 -1.0842e-19 0.0124878 0.000542101
0.014749 0 0.000698994 0.00280517
0.0148911 0 0 0.00308694
0.0136237 4.51751e-21 0.0060267 0.000375662
0.0148703 -1.807e-20 0.00154753 0.00172081
0.0149756 -5.42101e-20 0.000309223 0.00309799
-2.93175e-08 0 0.0149988 0.000654933
-0.0150003 1.0842e-19 0 0.00185097
-0.0137503 -9.03502e-21 0.00608223 0.000814628
0.00624827 0 0.0137433 0.000671617
-0.00625003 9.03502e-21 0.0137433 0.000534762
0.0151457 2.71051e-20 0 0.00331215
-0.0150004 1.0842e-19 0.00233892 0.0013134
0.00249992 -1.0842e-19 0.0149988 0.000687112
-0.00250001 -1.0842e-19 0.0149988 0.000613123
0.0153731 3.01167e-21 0.000848982 0.00260674
0.0154079 0 0 0.00359089
0.0154333 2.71051e-20 0.000196582 0.00358735
0.0148306 0 0.004694 0.000372875
0.0155974 0 0.00145938 0.00104155
-0.0150002 -1.0842e-19 0.00479864 0.000736435
0.0157765 -2.71051e-20 0.000438014 0.00386967
0.00499965 1.0842e-19 0.0149988 0.000706943
-0.00500001 0 0.0149988 0.000573438
0.0112268 -1.35525e-20 0.0112162 0.000577419
-0.01125 -9.03502e-21 0.0112171 0.00067943
0.0124603 -1.0842e-19 0.0099452 0.000520522
-0.0125 -1.0842e-19 0.00994631 0.000780512
0.00999097 -1.0842e-19 0.0124877 0.000625366
-0.01 0 0.0124878 0.000586296
-0.016038 -5.42101e-20 0 0.00198793
0.0160421 2.71051e-20 0 0.00391281
0.0160727 2.71051e-20 0.000187423 0.00391271
0.0136832 -4.51751e-21 0.0086521 0.00046543
-0.0137501 9.03502e-21 0.00865604 0.000834574
0.0161756 0 0.00179843 0.000871047
0.0162555 -9.03502e-21 0.000985774 0.00246756
0.00874511 1.35525e-20 0.0137433 0.000674245
0.0162903 2.71051e-20 0 0.00388764
-0.0162502 0 0.00116945 0.00196912
-0.00875001 0 0.0137433 0.000539061
0.00124997 0 0.0162494 0.000717406
-0.00125001 1.807e-20 0.0162494 0.000679228
-0.0164624 -2.71051e-20 0 0.00203444
0.0161381 -8.13152e-21 0.00328259 0.000421043
0.0165248 0 0 0.00389931
0.0165235 2.71051e-20 0.000214492 0.00389937
0.0149084 0 0.00736477 0.000408624
-0.0162502 9.03502e-21 0.00356877 0.000774073
0.00374983 -4.51751e-21 0.0162494 0.00074298
-0.00375 0 0.0162494 0.000629288
-0.0150001 -2.1684e-19 0.00736576 0.000730215
0.00749843 0 0.0149988 0.000714678
-0.0075 0 0.0149988 0.000552084
0.0168483 5.42101e-20 0.000518488 0.00394542
0.0168009 0 0.00159734 0.000823561
0.0171763 2.71051e-20 0 0.00372917
0.0171798 0 0.000213918 0.00372797
0.0162492 7.7443e-21 0.00607578 0.000355249
-0.0162501 1.35525e-20 0.00608218 0.00060001
0.017409 0 0 0.00354461
0.00624914 -9.03502e-21 0.0162494 0.000755168
-0.00625 0 0.0162494 0.000577419
0.0174064 0 0.00108106 0.002167
-1.02401e-14 0 0.0175 0.000734933
-0.0175001 0 0 0.00209989
0.0174597 -4.51751e-21 0.00218801 0.000571578
0.017634 2.71051e-20 0 0.00337994
0.0176441 0 0.000226518 0.00338293
0.0124768 0 0.0124885 0.000610775
-0.0175001 -1.0842e-19 0.00233889 0.00139296
-0.0125 0 0.0124878 0.000645835
0.00249998 -1.0842e-19 0.0175 0.00076549
-0.0025 0 0.0175 0.000691027
0.013712 1.35525e-20 0.0112202 0.000558171
-0.01375 4.51751e-21 0.0112171 0.000739736
0.011236 9.03502e-21 0.0137435 0.000666348
-0.01125 0 0.0137433 0.000565508
0.0149484 0 0.00995676 0.000498747
0.0179798 0 0.000551805 0.0031682
-0.015 0 0.0099463 0.000734702
0.00999396 0 0.0149988 0.000710654
-0.01 0 0.0149988 0.000555936
0.0177172 -9.03502e-21 0.00353836 0.000303761
0.0179881 -5.42101e-20 0.00171051 0.000615025
-0.0175001 -1.0842e-19 0.00479861 0.000585639
0.0175164 0 0.00482374 0.000314704
0.00499976 0 0.0175 0.000782155
-0.005 0 0.0175 0.000638557
0.0182698 -2.71051e-20 0 0.00292808
0.0180402 0 0.00291708 0.000304228
0.0182858 0 0.000227338 0.00292698
-0.01625 -4.51751e-21 0.00865603 0.000677801
0.00874647 -9.03502e-21 0.0162494 0.00075575
-0.00875 -9.03502e-21 0.0162494 0.000557521
0.0162929 -6.45358e-21 0.00868413 0.000440181
0.018496 -2.71051e-20 0 0.00275155
0.0180113 0 0.00422619 0.000291209
-0.018538 -2.71051e-20 0 0.00217847
0.0185987 9.03502e-21 0.00110122 0.00168455
0.0187236 0 0 0.00254481
0.0187582 0 0.000214893 0.0025491
0.0177321 -2.71051e-20 0.00614951 0.000340847
-0.01875 0 0.00116944 0.00213758
0.00124999 0 0.01875 0.000789227
-0.00125 1.807e-20 0.01875 0.000752804
0.0186544 -4.51751e-21 0.00230765 0.000437055
0.0180198 0 0.00548223 0.000321737
-0.0189621 -5.42101e-20 0 0.00220358
-0.0175 0 0.00736574 0.000533187
0.0186737 9.03502e-21 0.00359745 0.000285001
0.00749863 0 0.0175 0.00078651
-0.0075 0 0.0175 0.000595539
0.0175523 -1.807e-20 0.00743048 0.000381774
-0.01875 9.03502e-21 0.00356874 0.000667287
0.00374987 -9.03502e-21 0.01875 0.000810668
-0.00375 1.807e-20 0.01875 0.000702466
0.0191417 0 0.000523466 0.00230664
0.0180335 0 0.00682266 0.000357249
0.0186794 -1.807e-20 0.00489465 0.000300308
0.0193409 0 0 0.00231582
0.019272 5.42101e-20 0.00165716 0.000561493
0.0193788 -2.71051e-20 0.000199 0.00231763
0.0137222 2.25875e-20 0.0137444 0.000639838
-0.01375 9.03502e-21 0.0137433 0.000619244
0.0149636 0 0.0124914 0.000582349
0.0124806 -2.1684e-19 0.0149989 0.000690597
0.0192887 -5.42101e-20 0.00296028 0.000267976
-0.015 0 0.0124878 0.000668309
-0.0125 0 0.0149988 0.000583194
0.0195825 0 0 0.00233048
0.0186882 4.51751e-21 0.00618728 0.000334493
-0.01875 -9.03502e-21 0.00608217 0.000402259
-0.01625 0 0.011217 0.00069526
0.0112379 9.03502e-21 0.0162494 0.000744163
0.0180425 0 0.00805496 0.000399144
-0.01125 9.03502e-21 0.0162494 0.000563012
0.00624921 -1.807e-20 0.01875 0.000817203
-0.00625 1.807e-20 0.01875 0.000641615
0.0193156 1.0842e-19 0.00426883 0.000277095
0.0177574 0 0.0087192 0.000421169
0.0197848 0 0 0.00233491
0.0163125 1.41979e-20 0.0112323 0.000524023
0.0197851 -2.71051e-20 0.00105651 0.00142001
0.0199433 2.25875e-21 0.000343781 0.0022071
0.0199517 -2.03288e-20 0 0.00215911
-0.02 0 0 0.00222224
-1.024e-14 0 0.02 0.000795042
0.0199137 -1.35525e-20 0.002322 0.000405807
0.0193276 5.42101e-20 0.00556506 0.000311161
0.0186907 0 0.007459 0.000371992
-0.0175 -1.0842e-19 0.00994629 0.000601481
-0.02 -1.0842e-19 0.00233888 0.0013957
0.0198262 -4.51751e-21 0.00353876 0.00026671
0.0201482 0 0 0.00172426
0.00999425 1.0842e-19 0.0175 0.000778597
0.00249998 -1.0842e-19 0.02 0.000821327
-0.0025 0 0.02 0.000751667
-0.01 0 0.0175 0.000578258
0.017571 9.03502e-21 0.00998358 0.00046332
0.0202492 0 0.000417568 0.00160165
0.0197197 0 0.00492314 0.000290885
0.0198624 -1.35525e-20 0.00431664 0.000273415
0.0203337 0 0 0.00125961
0.0180485 5.42101e-20 0.00938017 0.000438522
0.0203539 -1.12938e-21 0.000720236 0.00133612
0.0204602 -4.51751e-21 0.00021777 0.00114859
0.0193297 0 0.00683974 0.000347665
0.0205466 1.35525e-20 0 0.00110854
-0.02 -1.0842e-19 0.00479859 0.000458967
0.0205431 0 0.00166059 0.000532188
0.00499976 0 0.02 0.000831882
-0.005 0 0.02 0.000695081
0.018691 1.807e-20 0.00873215 0.000410695
0.0206055 -1.35525e-20 0.00113383 0.00103298
0.020248 4.51751e-21 0.00398707 0.000263062
0.0198777 1.35525e-20 0.00559885 0.000306309
-0.01875 0 0.00865601 0.000460484
0.0197161 9.03502e-21 0.00622263 0.000324924
0.00874659 0 0.01875 0.000814426
-0.00875 1.807e-20 0.01875 0.000600943
0.0206918 0 0.000485439 0.00136272
0.0207292 0 0 0.00135057
0.0202493 0 0.00468188 0.000280212
0.020562 0 0.00303088 0.000257491
0.0205791 -1.35525e-20 0.0036086 0.000259009
0.0209125 -1.35525e-20 0 0.00149752
0.0180516 0 0.0105934 0.000478848
0.0202818 -2.25875e-21 0.00528131 0.000294508
0.0193324 5.42101e-20 0.00810405 0.000383754
0.0209518 -2.25875e-21 0.000794603 0.00132894
0.0210055 0 0.000255445 0.00155314
0.0177662 9.03502e-21 0.0112451 0.000499483
0.0198824 0 0.0068589 0.000340873
-0.021038 -1.35525e-19 0 0.0022475
0.0205908 -4.51751e-21 0.00435357 0.000268085
0.020941 9.03502e-21 0.00237638 0.000335457
0.0197229 0 0.00748077 0.000359719
0.0210741 1.54886e-20 0.00124456 0.000926155
0.0211253 0 0 0.00162552
0.02028 9.03502e-21 0.00593584 0.000310723
0.0211074 1.35525e-20 0.00172891 0.000472166
0.0149672 0 0.0149992 0.00065475
0.0186932 4.51751e-21 0.00999396 0.000449068
0.0206045 0 0.00499039 0.000285087
-0.015 0 0.0149988 0.00061482
0.0137244 -1.35525e-20 0.0162495 0.000709909
-0.02125 -4.51751e-21 0.00116944 0.00218896
-0.01625 9.03502e-21 0.0137433 0.000635695
0.0212778 0 0.000537366 0.00157809
-0.01375 -1.807e-20 0.0162494 0.000591194
0.00124999 1.807e-20 0.02125 0.000834957
-0.00125 -2.71051e-20 0.02125 0.000801298
0.0209137 2.25875e-21 0.00401727 0.000256431
0.0202812 1.12938e-21 0.00654348 0.00032891
0.021312 0 0 0.00173371
-0.02 0 0.00736573 0.000389309
0.0163191 -2.58143e-21 0.0137469 0.0005982
0.0210372 -1.16165e-20 0.00357854 0.000252728
0.0211194 0 0.00306084 0.000248009
0.00749863 0 0.02 0.000831162
-0.0075 0 0.02 0.000644571
0.0206095 2.71051e-20 0.0056213 0.000299738
0.0209335 -2.25875e-21 0.00469187 0.000275362
-0.021462 -1.35525e-19 0 0.00225184
0.0198906 -1.35525e-20 0.00811521 0.000375645
0.019334 5.42101e-20 0.00936858 0.000420862
0.012481 -1.0842e-19 0.0175 0.000752429
-0.0175 0 0.0124878 0.000623115
-0.0125 0 0.0175 0.000586976
0.0215095 1.35525e-20 0 0.00180424
0.0202822 -1.12938e-21 0.00718905 0.000344393
0.0206114 0 0.00624672 0.000315876
-0.02125 -4.51751e-21 0.00356873 0.00054807
0.0175768 2.71051e-20 0.0124975 0.000537988
0.0215533 -6.77626e-21 0.00086045 0.00141415
0.00374987 -9.03502e-21 0.02125 0.00084767
-0.00375 1.807e-20 0.02125 0.000749356
0.0197282 1.807e-20 0.00874265 0.00039514
0.0209184 4.51751e-21 0.00530361 0.000288475
0.0215457 0 0.00146101 0.000594761
0.0215987 4.51751e-21 0.000276646 0.00181038
0.0215159 4.51751e-21 0.00210555 0.00031625
0.0180546 0 0.0118959 0.000513686
0.021231 0 0.0043614 0.000262716
0.0215157 -1.12938e-21 0.00273879 0.000248758
0.0217116 1.35525e-20 0 0.00186907
0.0206127 0 0.00687123 0.000332007
0.0202827 2.25875e-21 0.00779649 0.000362315
0.0209271 -6.77626e-21 0.00593526 0.000304747
0.0212132 2.71051e-20 0.00496926 0.000278342
0.0215326 -3.38813e-21 0.00340415 0.000242502
0.0186946 9.03502e-21 0.011248 0.000485502
-0.01875 9.03502e-21 0.011217 0.00056153
0.0112381 0 0.01875 0.000797024
-0.01125 1.807e-20 0.01875 0.000590057
0.0218884 0 0.00056802 0.00171461
0.0215249 -1.12938e-21 0.00403417 0.00025362
0.0218693 -2.71051e-20 0.00116661 0.00102039
0.0219118 0 0 0.00193217
0.021857 0 0.00180024 0.000412787
0.020929 -2.25875e-21 0.0065602 0.000319692
0.0206135 2.71051e-20 0.00749641 0.000348216
0.0202832 -2.25875e-21 0.00844256 0.000378787
0.0212419 0 0.00562259 0.000293313
0.0218488 0 0.00244594 0.000257214
0.0198921 -1.35525e-20 0.00937253 0.00041034
0.0215471 4.51751e-21 0.00467385 0.000267669
0.0193355 -5.42101e-20 0.0106231 0.000457318
0.0218549 2.71051e-20 0.00309251 0.000237247
-0.02125 1.807e-20 0.00608216 0.000332624
0.0197292 -9.03502e-21 0.00999813 0.000430579
0.0221193 -1.35525e-20 0 0.00199252
0.0209299 0 0.00718499 0.000336222
0.0212453 0 0.0062492 0.000308479
0.00624921 -1.807e-20 0.02125 0.000847829
-0.00625 1.807e-20 0.02125 0.000682421
0.0206142 0 0.00812214 0.0003648
0.0218602 0 0.0037332 0.0002442
0.0215479 -4.51751e-21 0.00530169 0.000282287
0.0221931 2.25875e-21 0.000875308 0.00146568
0.0222091 9.03502e-21 0.000287223 0.00198174
0.0202837 -1.58113e-20 0.00905069 0.000396735
0.0221806 -2.25875e-21 0.001495 0.000574834
0.0221729 -2.25875e-21 0.00213628 0.000277618
0.0218648 2.71051e-20 0.0043649 0.000257711
0.0180554 -5.42101e-20 0.0131005 0.000550558
0.0223146 1.35525e-20 0 0.00203552
0.0212462 -2.71051e-20 0.00687392 0.000323747
-0.02 0 0.00994629 0.000468853
0.0209305 4.51751e-21 0.00781023 0.000351672
0.0221717 -4.51751e-21 0.00278024 0.000234111
0.00999425 1.0842e-19 0.02 0.000818201
0.0215574 6.77626e-21 0.00593597 0.000297593
-0.01 0 0.02 0.000620036
0.0206151 -2.71051e-20 0.00874856 0.000381432
0.021869 0 0.00499521 0.000272002
0.0221756 2.25875e-21 0.0034203 0.000235827
0.0177686 9.03502e-21 0.0137495 0.000568619
0.020284 0 0.00969614 0.000412496
0.0186955 9.03502e-21 0.0124995 0.000520339
-0.0225 0 0 0.00221628
-1.02401e-14 0 0.0225 0.000820085
0.0225117 0 0.000578583 0.00178514
0.0225229 2.71051e-20 0 0.00206132
0.0212467 2.71051e-20 0.00749879 0.000339198
0.0225008 -5.42101e-20 0.00118742 0.00101172
0.0215594 -2.25875e-21 0.00656172 0.000312127
0.0221795 0 0.00405365 0.000248122
0.0198927 0 0.0106245 0.00044583
0.0209311 0 0.00843592 0.000368331
0.0224935 0 0.00182613 0.000385514
0.02187 2.71051e-20 0.00562207 0.000286329
-0.0225 0 0.00233887 0.0013524
0.0224908 0 0.0024723 0.000243128
0.00249998 -1.0842e-19 0.0225 0.000840949
-0.0025 0 0.0225 0.000780263
0.0206154 2.71051e-20 0.00937446 0.00039784
0.0221823 2.25875e-21 0.00468259 0.000261783
0.0193362 0 0.0118745 0.000491702
0.0224923 -2.71051e-20 0.0031118 0.000230553
0.0197298 9.03502e-21 0.0112496 0.000464991
0.02156 2.25875e-21 0.00718659 0.00032722
0.0227337 0 0 0.00208767
0.021247 -2.71051e-20 0.00812398 0.000354876
0.0218727 -2.71051e-20 0.00624927 0.00030076
0.0202841 -6.77626e-21 0.0103026 0.000431264
0.0224952 2.71051e-20 0.00374415 0.000238943
0.0209317 0 0.00906182 0.000384341
0.0221841 -6.77626e-21 0.00531005 0.000275896
0.0228272 4.51751e-21 0.000290736 0.00205882
0.0228187 0 0.000886665 0.00146279
0.0228117 -4.51751e-21 0.00151191 0.00054893
0.0228077 -2.25875e-21 0.00215451 0.000268206
0.0206155 0 0.00999985 0.000414695
0.0224972 -2.71051e-20 0.00437224 0.000252022
0.0218735 0 0.00687445 0.00031531
0.0229286 2.71051e-20 0 0.00210978
0.0215604 -2.25875e-21 0.0078116 0.000342171
-0.02125 1.35525e-20 0.00865601 0.000370143
0.022185 2.25875e-21 0.00593627 0.000290009
0.022807 2.25875e-21 0.00279629 0.000228299
0.0212475 2.71051e-20 0.00874944 0.000370665
0.00874659 9.03502e-21 0.02125 0.000840566
-0.01625 9.03502e-21 0.0162494 0.000626301
-0.00875 0 0.02125 0.000648099
-0.0225 0 0.00479859 0.000397694
0.0149676 0 0.0175 0.000709949
0.0163205 -7.7443e-21 0.0162497 0.000660079
0.0224981 -2.71051e-20 0.00499856 0.000265583
-0.0175 0 0.0149988 0.000623247
0.00499976 0 0.0225 0.000846128
-0.005 0 0.0225 0.000731695
-0.015 0 0.0175 0.000616265
0.0202842 -4.51751e-21 0.0109469 0.000446629
0.0209319 2.25875e-21 0.00968728 0.000400873
0.0228084 -2.25875e-21 0.0034307 0.000230677
0.018056 -5.42101e-20 0.0143983 0.000578588
0.0175779 0 0.0149998 0.000601683
0.0218739 -2.71051e-20 0.00749941 0.000330052
0.0221861 6.77626e-21 0.00656201 0.000304132
0.0231393 2.71051e-20 0 0.00212821
0.0231335 2.71051e-20 0.000583267 0.00181006
0.0215608 -2.25875e-21 0.00843687 0.000357794
0.0231277 -2.71051e-20 0.00119646 0.000991803
0.0198929 0 0.0118749 0.000478474
0.0228102 -2.25875e-21 0.00405972 0.000242473
0.0224985 0 0.00562421 0.000279252
0.0206155 5.42101e-20 0.010625 0.000431165
0.0231238 0 0.00183721 0.000370395
0.0186957 -4.51751e-21 0.0137498 0.000551897
0.0212477 0 0.00937484 0.00038652
0.0137246 -9.03502e-21 0.01875 0.000755543
-0.01875 1.807e-20 0.0137433 0.000599641
-0.01375 -1.807e-20 0.01875 0.000603865
0.0231223 2.71051e-20 0.00248253 0.000236796
0.0228112 -4.51751e-21 0.00468621 0.000255658
0.0221866 6.77626e-21 0.00718706 0.000318367
0.0231227 2.71051e-20 0.00311907 0.000225443
0.0218741 0 0.00812449 0.00034494
0.0209319 -4.51751e-21 0.0103125 0.000416994
0.0202842 -6.77626e-21 0.0115529 0.00046381
0.0233506 -1.35525e-20 0 0.00214602
0.022499 0 0.00624956 0.000292986
0.01973 9.03502e-21 0.0124999 0.000497643
0.0193365 0 0.0131249 0.000524488
0.0215611 0 0.00906223 0.00037311
0.0228116 2.25875e-21 0.00531183 0.000268982
0.0231237 2.71051e-20 0.00374822 0.000233586
0.0234469 -6.77626e-21 0.000292113 0.00210796
0.0234425 2.25875e-21 0.00089102 0.00145118
0.0212478 2.71051e-20 0.00999997 0.000402424
0.0206155 0 0.01125 0.000447297
0.0234387 0 0.00151844 0.000532382
0.0221868 -6.77626e-21 0.00781209 0.000332758
0.0224994 -2.71051e-20 0.00687472 0.000306828
0.0231244 -2.71051e-20 0.0043744 0.000246035
0.0234365 0 0.0021615 0.000261666
-0.023538 -5.42101e-20 0 0.0021896
0.0235476 0 0 0.0021615
0.0218744 0 0.00874973 0.000359957
0.0228118 2.25875e-21 0.00593712 0.000282402
0.012481 -1.0842e-19 0.02 0.000786641
-0.02 0 0.0124878 0.000548768
-0.0125 0 0.02 0.000622623
0.0234359 2.25875e-21 0.00280208 0.000223196
0.020932 6.77626e-21 0.0109375 0.000432983
0.0215613 2.25875e-21 0.00968744 0.000388748
0.0231246 0 0.00499972 0.000258935
0.0202842 -4.51751e-21 0.012197 0.000478397
-0.0225 0 0.00736572 0.000340051
0.0234363 2.25875e-21 0.00343443 0.000225554
0.0224996 0 0.00749974 0.000320828
0.00749863 0 0.0225 0.00084159
-0.0075 0 0.0225 0.000695887
0.022187 6.77626e-21 0.00843721 0.000347444
0.022812 -2.25875e-21 0.00656227 0.000295843
0.0212478 0 0.010625 0.000418142
0.0237586 0 0 0.00217518
0.0237556 5.42101e-20 0.000584582 0.00182531
-0.02375 4.51751e-21 0.00116943 0.00211909
0.0237524 0 0.00119912 0.000974831
0.00124999 0 0.02375 0.000835577
-0.00125 -1.807e-20 0.02375 0.000808062
0.0234369 0 0.0040617 0.00023676
0.0206155 0 0.011875 0.000462889
0.0218746 0 0.00937493 0.000375053
0.0231247 2.71051e-20 0.00562484 0.000271932
0.0237503 2.71051e-20 0.00184058 0.000358539
0.019893 1.35525e-20 0.013125 0.000510481
0.0180561 0 0.0156015 0.000610548
0.0237494 -2.71051e-20 0.00248567 0.000231195
0.0215613 0 0.0103125 0.000404089
0.0234373 -6.77626e-21 0.00468725 0.000249209
0.020932 -4.51751e-21 0.0115625 0.000448611
0.0228122 2.25875e-21 0.00718734 0.000309393
0.0224997 -2.71051e-20 0.00812478 0.000334973
0.0237494 2.71051e-20 0.00312126 0.000220399
0.0231248 0 0.00624989 0.000284984
-0.023962 5.42101e-20 0 0.00217091
0.0221872 -4.51751e-21 0.00906238 0.000362071
0.0186958 -9.03502e-21 0.015 0.000581067
0.0239698 -1.35525e-20 0 0.00218833
0.0202842 -2.25875e-21 0.012803 0.000495439
-0.02375 1.35525e-20 0.00356873 0.000513905
-0.02125 -9.03502e-21 0.011217 0.000467355
0.0234374 0 0.00531237 0.000261869
0.0112381 0 0.02125 0.000817899
0.0212478 -2.71051e-20 0.01125 0.000433609
0.0237497 2.71051e-20 0.00374935 0.000228033
0.00374987 0 0.02375 0.000843179
-0.01125 -9.03502e-21 0.02125 0.000640823
-0.00375 0 0.02375 0.0007623
0.01973 0 0.01375 0.000527806
0.0218746 -2.71051e-20 0.00999999 0.000390155
0.0240682 -4.51751e-21 0.000292422 0.00214417
0.0177688 0 0.01625 0.000625372
0.0240659 4.51751e-21 0.000892125 0.00144324
0.0193366 1.0842e-19 0.014375 0.000553436
0.0206155 0 0.0125 0.000478461
0.0240638 4.51751e-21 0.00152022 0.000519451
0.0228123 4.51751e-21 0.00781235 0.000323082
0.0231248 2.71051e-20 0.00687493 0.000298133
0.0224998 0 0.00874988 0.000349234
0.0237499 0 0.00437489 0.000239821
0.0240626 -4.51751e-21 0.00216353 0.000255127
0.0241688 0 0 0.00220083
0.0215613 6.77626e-21 0.0109375 0.000419416
0.0234374 6.77626e-21 0.00593743 0.000274606
0.0221873 -9.03502e-21 0.00968747 0.000376841
0.020932 -9.03502e-21 0.0121875 0.000463943
0.0240622 2.25875e-21 0.0028038 0.00021811
0.02375 2.71051e-20 0.00499997 0.000252042
0.0240622 2.25875e-21 0.00343551 0.000220187
0.0231249 0 0.00749994 0.000311412
0.0218746 0 0.010625 0.000405144
0.0228124 6.77626e-21 0.0084374 0.000336959
0.0202842 2.25875e-21 0.013447 0.00050879
0.0234374 4.51751e-21 0.00656245 0.000287353
0.0212478 -2.71051e-20 0.011875 0.000448779
0.0224999 2.71051e-20 0.00937497 0.000363564
0.0243798 0 0 0.00221331
0.0243784 0 0.000584785 0.00183804
0.0240624 -2.25875e-21 0.00406221 0.000230791
0.0243767 2.71051e-20 0.00119964 0.000961301
0.02375 0 0.00562498 0.000264373
0.0206155 -2.71051e-20 0.013125 0.000493165
0.0243755 0 0.00184134 0.000348504
0.0215613 4.51751e-21 0.0115625 0.000434345
0.0221873 -4.51751e-21 0.0103125 0.000391475
0.024375 -2.71051e-20 0.00248644 0.000225763
0.0231249 0 0.00812495 0.000324826
0.0234375 -4.51751e-21 0.00718746 0.000300211
0.0240625 0 0.00468745 0.000242542
-0.02375 9.03502e-21 0.00608215 0.000320807
0.020932 -4.51751e-21 0.0128125 0.000478847
0.019893 1.35525e-20 0.014375 0.000538443
0.0228124 -4.51751e-21 0.00906245 0.00035087
0.00624921 9.03502e-21 0.02375 0.000841447
0.02375 0 0.00624999 0.000276752
-0.00625 0 0.02375 0.000730143
0.0243749 2.71051e-20 0.00312184 0.000215192
0.0245911 0 0 0.0022244
0.0218746 0 0.01125 0.000419929
-0.0225 0 0.00994629 0.000410627
0.00999425 1.0842e-19 0.0225 0.000825318
0.0224999 0 0.01 0.000377895
-0.01 0 0.0225 0.000685528
0.0240625 2.25875e-21 0.00531249 0.000254527
0.0212478 -2.71051e-20 0.0125 0.000463578
0.0243749 0 0.00374963 0.000222264
0.0202842 2.25875e-21 0.014053 0.000523627
0.0246907 6.77626e-21 0.000292434 0.00217581
0.0234375 -2.25875e-21 0.00781247 0.00031318
0.0246895 2.25875e-21 0.000892278 0.00143381
0.0231249 -2.71051e-20 0.00874997 0.000338345
0.02375 2.71051e-20 0.00687499 0.000289211
0.0180561 0 0.0168985 0.00063033
0.0246884 -4.51751e-21 0.00152058 0.000506488
0.0221873 -4.51751e-21 0.0109375 0.000406032
-0.0175 0 0.0175 0.000653259
0.024375 0 0.00437498 0.000233372
0.0215613 0 0.0121875 0.000449087
0.0186958 0 0.01625 0.000606162
0.0206155 0 0.01375 0.000507258
0.0246878 -6.77626e-21 0.00216396 0.000248707
0.0228125 2.25875e-21 0.00968749 0.000364852
0.0240625 0 0.00593749 0.000266575
0.01973 -9.03502e-21 0.015 0.000555197
0.0247913 2.71051e-20 0 0.0022356
0.017578 0 0.0175 0.000650519
-0.01875 -3.61401e-20 0.0162494 0.00064082
-0.01625 -9.03502e-21 0.01875 0.000648593
0.0246875 -1.12938e-20 0.0028042 0.000212962
0.0163206 -1.67793e-20 0.01875 0.000701425
0.0193366 5.42101e-20 0.015625 0.000580653
0.020932 -2.25875e-21 0.0134375 0.000492794
0.0225 0 0.010625 0.000392139
0.024375 -5.42101e-20 0.005 0.000244908
0.0218746 0 0.011875 0.000434442
0.02375 0 0.00749999 0.000301783
0.0234375 -1.12938e-20 0.00843748 0.000326299
0.0246875 -4.51751e-21 0.00343578 0.000214628
0.0240625 -2.25875e-21 0.0065625 0.000278648
0.023125 0 0.00937499 0.000351927
0.0212478 -2.71051e-20 0.013125 0.000477773
0.0149676 0 0.02 0.000740654
-0.02 0 0.0149988 0.000612253
-0.015 0 0.02 0.000656994
-0.025 0 0 0.00208715
-1.02403e-14 0 0.025 0.000815894
0.0250025 0 0 0.00224785
0.0250019 2.71051e-20 0.00058479 0.00184881
0.024375 2.71051e-20 0.005625 0.000256577
0.0221873 -4.51751e-21 0.0115625 0.000420304
0.0246875 9.03502e-21 0.00406232 0.000224586
0.0250009 2.71051e-20 0.0011997 0.000947777
0.0228125 9.03502e-21 0.0103125 0.000378764
0.0202842 -2.25875e-21 0.014697 0.000535803
0.0250004 0 0.00184145 0.000338653
0.0215613 0 0.0128125 0.000463297
0.02375 2.71051e-20 0.00812499 0.000314476
-0.025 0 0.00233887 0.00127764
0.0240625 4.51751e-21 0.0071875 0.000290813
0.0250001 0 0.00248657 0.000220233
0.00249998 -1.0842e-19 0.025 0.000826312
-0.0025 0 0.025 0.000794718
0.0234375 2.25875e-21 0.00906249 0.000339483
0.0246875 -2.25875e-21 0.00468749 0.00023564
0.0206155 -2.71051e-20 0.014375 0.00052054
0.0225 0 0.01125 0.000406215
0.024375 -2.71051e-20 0.00625 0.000268292
0.025 2.71051e-20 0.00312194 0.000209821
0.0218746 0 0.0125 0.000448599
0.023125 2.71051e-20 0.01 0.00036551
0.025214 0 0 0.00225856
0.020932 2.25875e-21 0.0140625 0.000506486
0.0246875 2.25875e-21 0.0053125 0.000246941
-0.02375 -9.03502e-21 0.00865601 0.000354302
0.025 0 0.00374969 0.000216287
0.019893 2.71051e-20 0.015625 0.000564678
0.0137246 0 0.02125 0.000773431
0.0228125 -1.807e-20 0.0109375 0.000392576
0.0240625 2.25875e-21 0.0078125 0.000303078
-0.02125 -9.03502e-21 0.0137433 0.000557197
0.0212478 -2.71051e-20 0.01375 0.000491379
0.00874659 0 0.02375 0.000831877
-0.00875 1.807e-20 0.02375 0.000721299
-0.01375 -1.807e-20 0.02125 0.000656559
0.02375 0 0.00875 0.000327268
0.0221873 -4.51751e-21 0.0121875 0.000434337
0.0253141 0 0.000292407 0.00220634
0.024375 -2.71051e-20 0.006875 0.00028007
0.0253136 -2.25875e-21 0.000892266 0.00142364
0.025313 -6.77626e-21 0.00152059 0.000493704
0.0234375 2.25875e-21 0.0096875 0.000352717
0.025 2.71051e-20 0.004375 0.000226693
0.0246875 -2.25875e-21 0.0059375 0.000258315
0.0253127 0 0.00216402 0.000242301
0.0215613 4.51751e-21 0.0134375 0.000476967
0.0202842 -2.25875e-21 0.015303 0.000549808
0.0254148 -1.35525e-20 0 0.00226943
0.0225 0 0.011875 0.000420044
0.023125 -2.71051e-20 0.010625 0.00037902
-0.025 0 0.00479858 0.000390721
0.0253125 9.03502e-21 0.00280427 0.000207679
0.00499976 0 0.025 0.000826162
0.0206155 0 0.015 0.000533489
0.025 2.71051e-20 0.005 0.000237536
-0.005 0 0.025 0.000774721
0.0240625 1.58113e-20 0.0084375 0.000315467
0.024375 -2.71051e-20 0.0075 0.000291946
0.0218746 0 0.013125 0.000462272
0.02375 2.71051e-20 0.009375 0.000340119
0.0253125 0 0.00343582 0.000208883
0.0246875 4.51751e-21 0.0065625 0.000269726
0.01973 0 0.01625 0.000579186
0.0180561 -5.42101e-20 0.0181015 0.000654739
0.020932 -1.35525e-20 0.0146875 0.000519171
0.0228125 9.03502e-21 0.0115625 0.000406172
0.0234375 -9.03502e-21 0.0103125 0.000365905