# kMean  POINT_DATA 43176
# x  y  z  kMean
6.77626e-21 0.000951594 0 0.00217667
0 0.000952378 6.05115e-05 0.0021766
1.35525e-20 0.00101666 0 0.00217781
6.77626e-21 0.00108259 0 0.00218314
1.35525e-20 0.00108205 6.12824e-05 0.00218298
1.0842e-19 -0.000230001 0.00117134 0.00209688
6.77626e-21 -0.00142666 0 0.00199313
6.77626e-21 -0.001427 4.90487e-05 0.00199299
6.77626e-21 -0.00147935 0 0.00198785
0 -0.00153146 0 0.00198559
0 -0.00153095 4.85233e-05 0.00198555
0 0.00226609 0.00117164 0.00226026
2.25875e-21 0.00102252 0.00234126 0.00165924
2.25875e-21 -0.00147475 0.00234099 0.00160806
0 -0.00272686 0.00117106 0.00187936
0 0.00343106 0 0.00231462
1.35525e-20 0.00343226 7.48638e-05 0.00231453
1.35525e-20 0.00351169 0 0.00231405
1.0842e-19 -0.000223755 0.00357153 0.0011896
-1.35525e-20 0.00359276 7.59703e-05 0.00231862
-1.35525e-20 0.00359358 0 0.00231879
-6.77626e-21 -0.00393441 0 0.00177622
0 -0.00393462 3.89347e-05 0.00177613
0 -0.00397618 0 0.00177171
-6.77626e-21 -0.00401725 3.85806e-05 0.00176828
-6.77626e-21 -0.00401757 0 0.00176831
4.51751e-21 0.00351914 0.00234148 0.00167388
0 0.00227377 0.00357189 0.00107455
0 -0.00272176 0.00357118 0.0012559
-5.64689e-22 -0.00397255 0.00234072 0.00152528
-2.1684e-19 0.00476133 0.00117192 0.00237054
0 0.00102955 0.00480054 0.000824346
-5.64689e-22 -0.00146894 0.00480032 0.00089969
-1.0842e-19 -0.00522433 0.0011708 0.00166323
0 0.00590658 0 0.00239825
1.35525e-20 0.0059084 9.18337e-05 0.00239814
5.64689e-22 0.00352769 0.00480072 0.0007469
0 0.0047708 0.00357214 0.000969271
-1.35525e-20 0.00600567 0 0.00239545
-1.0842e-19 -0.000217791 0.00608418 0.000535197
-1.35525e-20 0.00610537 9.33789e-05 0.0023992
1.35525e-20 0.00610661 0 0.00239936
0 -0.00396773 0.00480011 0.000965633
0 -0.00522013 0.00357084 0.00129642
0 -0.00644084 0 0.00158353
0 -0.00644097 3.05957e-05 0.00158348
0 0.00601513 0.00234156 0.00165949
-6.77626e-21 -0.00647363 0 0.00158094
0 0.00228097 0.00608442 0.000487024
0 -0.00650597 3.03603e-05 0.00157661
0 -0.00650617 0 0.00157662
0 -0.00271679 0.00608392 0.000607273
-1.12938e-21 -0.00647075 0.00234045 0.00143706
0 0.00725575 0.00117208 0.0024248
8.47033e-22 0.00103463 0.00736665 0.000470652
8.47033e-22 -0.00146474 0.00736653 0.000505917
0 0.00602547 0.00480075 0.000673132
-2.1684e-19 0.0047795 0.00608458 0.000446127
0 -0.00772224 0.00117057 0.00149579
1.0842e-19 -0.00521598 0.00608368 0.000693346
-2.82344e-22 -0.00646674 0.0047999 0.00101948
0 0.00726737 0.00357211 0.000847513
-5.64689e-22 0.00353384 0.00736675 0.000445744
0 -0.00396424 0.00736643 0.000554441
0 0.0083778 0 0.00242616
0 0.00838051 0.000111807 0.00242602
-1.35525e-20 0.00849876 0 0.00242
0 -0.00771879 0.00357053 0.00128915
0 0.00862057 0.000113948 0.0024215
1.35525e-20 0.00862241 0 0.00242158
0 -0.000214113 0.00865697 0.00043338
2.25875e-21 0.00851059 0.00234127 0.00161869
-3.38813e-21 -0.0089461 0 0.00146255
-3.38813e-21 -0.00894617 2.37524e-05 0.00146253
-2.1684e-19 0.00228541 0.0086571 0.000426354
-3.38813e-21 -0.00897154 0 0.00146244
0 -0.00899669 2.35989e-05 0.00145916
0 -0.00899681 0 0.00145916
-2.1684e-19 -0.00271373 0.00865684 0.000447039
2.25875e-21 -0.00896926 0.00234021 0.00136775
-1.0842e-19 0.00727782 0.00608447 0.000419786
2.82344e-22 0.00603292 0.00736677 0.000428074
2.25875e-21 0.00852298 0.0048004 0.000606742
-1.41172e-22 -0.00646384 0.00736632 0.000615198
-2.1684e-19 0.00974959 0.00117197 0.0024214
-1.0842e-19 -0.00771532 0.00608345 0.000791015
0 0.00478485 0.00865718 0.000422964
7.75035e-20 0.00103451 0.00994923 0.000446098
-7.41154e-20 -0.00146477 0.00994448 0.000447799
-2.1684e-19 -0.00521343 0.00865671 0.000469161
-2.82344e-22 -0.00896592 0.00479971 0.00105723
0 -0.0102205 0.00117037 0.00142551
0 0.00976367 0.00357144 0.000750554
7.24213e-20 0.0035336 0.00994335 0.000448102
0 0.00354007 0.00994334 0.000448198
5.14573e-20 -0.00396419 0.00994489 0.000455298
1.0842e-19 -0.0102177 0.00357025 0.00125759
0 0.0108441 0 0.00240289
0 0.0108481 0.000135646 0.00240275
0 0.0109914 0 0.00239385
0 0.01114 0.000138658 0.0023925
-2.71051e-20 0.0111428 0 0.00239241
0 -0.000212546 0.0112174 0.000457887
-9.03502e-21 0.0110059 0.00234034 0.00155772
5.64689e-22 0.00853188 0.00736656 0.00041698
0 0.00728421 0.00865713 0.000423056
1.0842e-19 0.00228732 0.0112174 0.000466589
0 -0.0114503 0 0.00144057
0 -0.0114503 1.81853e-05 0.00144057
0 -0.0114698 0 0.00144156
3.38813e-21 -0.011489 1.80881e-05 0.00144018
0 -0.0114891 0 0.00144018
1.0842e-19 0.00977602 0.00608381 0.000400215
1.0842e-19 -0.00271244 0.0112173 0.000452778
-1.0842e-19 -0.00771318 0.0086566 0.000506236
4.23516e-22 -0.00895974 0.00736235 0.000684083
4.23516e-22 -0.00896729 0.00736236 0.000683772
9.31736e-21 0.00603252 0.00994255 0.000452034
0 0.00604059 0.00994254 0.000452177
2.82344e-22 -0.011468 0.00234 0.00133703
7.05155e-20 -0.00646371 0.00994772 0.000471335
2.1684e-19 -0.0102148 0.00608326 0.000885001
-1.12938e-21 0.0110204 0.0047994 0.00054915
2.1684e-19 0.00478716 0.0112174 0.000476562
0 0.0122435 0.00117144 0.00237358
0 -0.00521236 0.0112172 0.000452192
5.64689e-22 -0.0114652 0.00479955 0.00107586
-2.37169e-20 0.00103742 0.0124875 0.000495657
9.53971e-20 -0.00146246 0.0124882 0.000484531
0 0.01226 0.00356989 0.000650256
0 -0.012719 0.0011702 0.00145521
8.35386e-20 0.00353726 0.0124884 0.000507098
-1.0842e-19 0.00978349 0.0086568 0.00042462
1.20596e-19 -0.00396235 0.0124875 0.00047527
1.41172e-22 0.00853624 0.00994662 0.000456762
0 -0.0127167 0.00357001 0.00120615
5.64689e-22 0.0110308 0.00736595 0.000410116
0 0.0133043 0 0.00233505
0 0.0133101 0.00016476 0.00233492
1.0842e-19 0.00728695 0.0112174 0.000485724
-1.05879e-22 -0.00896334 0.00994548 0.000496301
1.0842e-19 -0.010213 0.0086565 0.000552108
2.71051e-20 0.0134843 0 0.00232278
0 -0.00771229 0.0112172 0.00045785
4.23516e-20 -0.0114661 0.00736317 0.000752416
-2.71051e-20 0.0136661 0.000169324 0.00231804
-2.71051e-20 0.0136704 0 0.00231766
-1.0842e-19 0.0122743 0.00608241 0.000387772
0 0.0135014 0.00233865 0.00148037
-1.0842e-19 -0.000212091 0.0137434 0.000521789
8.49151e-20 0.00603705 0.0124872 0.000517651
0 0.00228788 0.0137434 0.000536109
0 -0.0139536 0 0.00150752
-1.69407e-21 -0.0139536 1.37177e-05 0.00150752
0 -0.0139682 0 0.00150845
0 -0.0139828 1.36577e-05 0.00150816
0 -0.0139828 0 0.00150816
0 -0.00271207 0.0137433 0.000505442
8.63709e-20 -0.00646227 0.0124876 0.000469683
0 -0.0127143 0.00608309 0.000950391
-2.82344e-22 -0.0139669 0.00233981 0.0013427
6.77626e-21 0.0135179 0.00479763 0.000500462
0 0.00478783 0.0137434 0.000548867
2.1684e-19 -0.00521206 0.0137433 0.000490488
0 -0.0139646 0.0047994 0.00107048
-1.0842e-19 0.0147376 0.00117073 0.00228044
8.47033e-22 0.0110359 0.00994643 0.000461223
1.0842e-19 0.00978668 0.0112174 0.000493355
0 0.0122827 0.00865616 0.000427724
3.23725e-20 0.00103796 0.0149988 0.000562767
1.40363e-19 -0.00146203 0.0149988 0.000546622
1.05879e-22 0.00853678 0.012487 0.000526429
1.0842e-19 -0.0102122 0.0112172 0.000469272
-1.25255e-19 -0.011463 0.00994715 0.000533055
0 0.0147565 0.00356775 0.000577497
-1.0842e-19 -0.0152176 0.00117005 0.00156058
-1.24937e-20 -0.0089622 0.0124877 0.000469477
-1.0842e-19 -0.0127128 0.00865642 0.000621296
5.64689e-22 0.0135297 0.00736494 0.000406371
1.54206e-19 0.00353794 0.0149988 0.000576825
3.20185e-20 -0.00396203 0.0149988 0.000529327
-1.0842e-19 0.00728776 0.0137434 0.000559182
0 -0.0152158 0.00356979 0.0011431
0 0.0157567 0 0.00223311
2.1684e-19 -0.00771205 0.0137433 0.000478081
0 0.0157653 0.000200597 0.002233
-1.25784e-19 -0.0139652 0.00736838 0.000811403
1.0842e-19 0.0147725 0.00608051 0.000379602
-2.71051e-20 0.0159775 0 0.00221738
-4.51751e-21 0.0159972 0.00233633 0.00139371
6.61744e-24 0.00603803 0.0149987 0.000588473
-2.71051e-20 0.0162004 0.000207421 0.00220918
-2.71051e-20 0.0162074 0 0.00220835
1.0842e-19 -0.000212011 0.0162494 0.000588598
3.1466e-20 -0.00646202 0.0149988 0.000512231
0 -0.0152138 0.00608293 0.00097948
1.0842e-19 0.00228798 0.0162494 0.000604487
-1.69407e-21 -0.016456 0 0.00164868
-1.69407e-21 -0.016456 1.01993e-05 0.00164868
-1.69407e-21 -0.0164669 0 0.00164958
-1.0842e-19 -0.00271201 0.0162494 0.000570578
0 -0.0164778 1.01638e-05 0.00164969
-1.69407e-21 -0.0164778 0 0.00164968
-2.82344e-22 -0.0164659 0.00233964 0.00138165
-2.1684e-19 0.0122863 0.0112172 0.000498889
2.13876e-20 0.0110365 0.0124868 0.000533102
4.51751e-21 0.0160154 0.00479528 0.000461084
1.41172e-22 0.0135355 0.00994611 0.000464996
-1.0842e-19 0.00978761 0.0137434 0.000567182
0 0.00478796 0.0162494 0.000617753
9.40604e-20 -0.0114622 0.0124877 0.000476503
-1.0842e-19 -0.0127122 0.0112171 0.000490022
0 -0.005212 0.0162494 0.000550722
1.0842e-19 -0.010212 0.0137433 0.000472655
1.0842e-19 0.0147819 0.00865531 0.000430355
1.35525e-19 -0.0139628 0.00994585 0.000580866
0 -0.0164641 0.00479927 0.00104277
0 0.00853784 0.0149987 0.000597423
-1.0842e-19 0.0172319 0.0011701 0.00216429
2.5861e-20 -0.00896199 0.0149988 0.000497802
0 -0.0152126 0.00865635 0.000693779
7.78528e-20 0.001038 0.0175 0.000625208
1.20623e-19 -0.001462 0.0175 0.000608291
1.0842e-19 0.017253 0.0035653 0.00050748
0 0.0160286 0.00736361 0.000404045
0 -0.0177165 0.00116993 0.00173796
1.0842e-19 0.0072879 0.0162494 0.000628006
-7.22278e-20 0.003538 0.0175 0.000639309
1.11741e-19 -0.003962 0.0175 0.000589084
1.0842e-19 -0.007712 0.0162494 0.000529562
1.3129e-19 -0.0164645 0.0073643 0.00085224
-1.0842e-19 -0.0177151 0.00356961 0.00107584
-2.71051e-20 0.0182028 0 0.00211098
-2.71051e-20 0.0182155 0.000241221 0.00211094
0 0.0172707 0.00607818 0.000374132
-1.14138e-19 0.013536 0.0124864 0.000537648
1.0842e-19 0.0122874 0.0137434 0.000572707
2.71051e-20 0.0184707 0 0.00209186
5.42854e-20 0.00603798 0.0175 0.000650288
-2.1684e-19 0.0147859 0.011217 0.000502709
0 0.0110381 0.0149986 0.000603791
0 0.0184934 0.00233259 0.00130425
7.03336e-20 -0.006462 0.0175 0.000568003
1.0842e-19 -0.012712 0.0137433 0.000474083
1.0842e-19 -0.0177135 0.0060828 0.000970893
-1.85818e-20 -0.0139621 0.0124877 0.00049114
-2.71051e-20 0.0187394 0.000249081 0.00208166
2.71051e-20 0.0187499 0 0.00208023
0 -0.000212006 0.01875 0.000646286
-5.64689e-22 0.016035 0.00994571 0.000467553
-5.58926e-21 -0.011462 0.0149988 0.000488763
1.0842e-19 0.00228798 0.01875 0.000661454
1.0842e-19 -0.0152122 0.0112171 0.000519084
1.0842e-19 -0.002712 0.01875 0.000627692
0 -0.0189578 0 0.00185541
0 -0.0189578 7.48767e-06 0.00185541
0 -0.0189658 0 0.00185633
2.1684e-19 0.00978778 0.0162494 0.000635237
0 -0.0189738 7.46722e-06 0.00185669
-1.69407e-21 -0.0189738 0 0.00185669
-4.23516e-22 -0.0189651 0.0023395 0.00145465
-9.03502e-21 0.0185135 0.0047916 0.000429658
-1.0842e-19 -0.010212 0.0162494 0.000510851
2.60463e-20 -0.0164626 0.00994597 0.000635571
0 0.0172808 0.0086543 0.000432159
0 0.00478797 0.01875 0.000673533
1.0842e-19 -0.005212 0.01875 0.000607337
0 0.00853794 0.0175 0.000658108
1.69407e-20 -0.0189602 0.00479567 0.000999537
-4.23516e-22 -0.0189672 0.00479567 0.000999195
1.58078e-19 -0.008962 0.0175 0.000546528
1.0842e-19 -0.0177125 0.00865629 0.000764348
-1.0842e-19 0.0197268 0.0011683 0.00203229
-3.38813e-21 0.0185276 0.00736167 0.000402301
0 0.001038 0.02 0.000671871
1.47606e-20 -0.001462 0.02 0.000655812
0 0.0197514 0.00356002 0.000461696
0 0.00728791 0.01875 0.000681854
-2.1684e-19 0.0147871 0.0137433 0.000576012
2.64698e-23 0.013538 0.0149986 0.000607751
-2.1684e-19 -0.0202155 0.00116983 0.00197432
1.0842e-19 -0.007712 0.01875 0.000584384
-1.57772e-30 0.003538 0.02 0.000684261
-1.86347e-20 0.016039 0.0124859 0.000540196
7.26331e-20 -0.0189639 0.00736469 0.000867594
1.0842e-19 0.0122876 0.0162494 0.000639956
3.28979e-21 -0.003962 0.02 0.000636554
-2.81134e-20 -0.013962 0.0149988 0.00048636
0 -0.015212 0.0137433 0.000481474
-1.0842e-19 -0.0202144 0.00356944 0.00101704
-1.0842e-19 0.0172851 0.0112168 0.000504674
1.0842e-19 -0.012712 0.0162494 0.000497423
2.71051e-20 0.0206492 0 0.00197517
-1.4792e-19 -0.0164621 0.0124879 0.000515607
0 0.0206673 0.000280665 0.00197513
0 0.0197697 0.00607424 0.000370708
5.9557e-22 0.0110378 0.0174999 0.000663163
0 0.006038 0.02 0.000693101
-6.1939e-20 -0.011462 0.0175 0.000527583
-5.42101e-20 0.0209637 0 0.0019534
-2.1684e-19 -0.0177121 0.0112171 0.000565987
3.28979e-21 -0.006462 0.02 0.000614468
-2.82344e-22 0.0185343 0.00994519 0.000468475
0 -0.0202132 0.00608269 0.000932038
-9.03502e-21 0.0209903 0.00232545 0.00121538
0 0.00978779 0.01875 0.000687329
0 -0.000212006 0.02125 0.000683437
2.71051e-20 0.0212775 0.000287875 0.00193687
-2.71051e-20 0.0212916 0 0.00193464
0 -0.010212 0.01875 0.000561307
-1.0842e-19 0.00228798 0.02125 0.000696309
5.41042e-20 -0.0189619 0.00994606 0.000686343
-1.0842e-19 -0.002712 0.02125 0.000665832
8.47033e-22 -0.0214591 5.43834e-06 0.00210846
8.47033e-22 -0.0214707 0 0.00210957
0 0.0210123 0.00478532 0.00040715
0 0.0197796 0.008653 0.000432338
-1.41172e-22 -0.0214644 0.00233938 0.00155541
6.61744e-24 0.00853794 0.02 0.000698654
0 0.00478797 0.02125 0.000705747
1.0842e-19 -0.005212 0.02125 0.000645354
-9.67102e-20 -0.008962 0.02 0.000590719
-5.29396e-23 0.016038 0.0149984 0.000609392
1.0842e-19 0.0147873 0.0162494 0.000642247
-1.0842e-19 -0.0202124 0.00865623 0.000802825
5.12455e-20 -0.0214607 0.00479643 0.000946831
-1.0842e-19 0.0172864 0.0137433 0.00057711
-5.2119e-20 0.0135377 0.0174999 0.000665707
0 0.0222219 0.00116339 0.00188481
1.0842e-19 -0.015212 0.0162494 0.000492436
-3.67355e-20 -0.016462 0.0149988 0.000491364
-1.12938e-21 0.0210266 0.00735887 0.000400236
-1.28749e-19 0.0185339 0.012485 0.000540511
0 -0.013962 0.0175 0.000514408
-1.0842e-19 0.0122876 0.01875 0.000690123
1.0842e-19 -0.017712 0.0137433 0.000496095
0 0.00728791 0.02125 0.000711271
-5.3507e-20 0.001038 0.0225 0.000691375
-2.1684e-19 0.0222501 0.00355028 0.000425443
1.47606e-20 -0.001462 0.0225 0.000678045
0 -0.007712 0.02125 0.000620796
0 -0.012712 0.01875 0.000540746
7.7927e-20 -0.0214634 0.00736691 0.000852791
-3.63298e-21 -0.018962 0.0124878 0.00054839
-1.0842e-19 0.0197839 0.0112166 0.0005044
1.0842e-19 -0.0227147 0.00116974 0.00224366
-5.80944e-20 0.003538 0.0225 0.00070085
-4.37413e-20 0.011038 0.0199999 0.000701583
-3.54881e-20 -0.003962 0.0225 0.00066108
-1.0842e-19 -0.0227139 0.00356931 0.000968375
3.28979e-21 -0.011462 0.02 0.000568431
-2.1684e-19 0.0222687 0.00606848 0.000367292
0 0.0230907 0 0.00183136
1.0842e-19 -0.0202121 0.0112171 0.000613192
0 0.0231152 0.000321554 0.00183155
1.12938e-21 0.0210335 0.00994459 0.000467487
-7.02516e-20 0.00603798 0.0225 0.000707006
-1.0842e-19 0.00978779 0.02125 0.000714162
3.28979e-21 -0.006462 0.0225 0.000641546
-5.42101e-20 0.0234563 0 0.00181689
1.0842e-19 -0.0227129 0.00608259 0.000868585
0 -0.010212 0.02125 0.00059639
4.51751e-21 0.0234867 0.00231572 0.00113105
-1.58183e-19 -0.0214623 0.00994613 0.000720746
1.0842e-19 0.0172867 0.0162494 0.000642118
1.11491e-19 0.0160373 0.0175003 0.000665734
1.0842e-19 -0.000212006 0.02375 0.000688176
0 0.0238222 0.000334698 0.00179314
1.25043e-19 0.0185361 0.0149979 0.000608501
2.71051e-20 0.0238446 0 0.00178987
-1.0842e-19 0.00228798 0.02375 0.000697581
1.0842e-19 0.0147874 0.01875 0.000690493
0 0.0222784 0.00865156 0.000430771
-1.0842e-19 -0.002712 0.02375 0.000674734
0 -0.02396 3.91345e-06 0.00237345
-4.51751e-21 0.0235099 0.00477762 0.000390314
-9.67102e-20 -0.016462 0.0175 0.000509253
2.1684e-19 -0.017712 0.0162494 0.000495443
6.61744e-24 0.00853794 0.0225 0.000710285
0 -0.0239602 0.00233583 0.00166962
3.38813e-20 -0.0239674 0.00234276 0.00166787
-1.0842e-19 0.0197854 0.0137433 0.000575582
0 -0.015212 0.01875 0.000527021
-3.35372e-20 0.0135377 0.0199999 0.000702078
-1.74279e-20 -0.018962 0.0149988 0.000503903
8.08456e-20 -0.008962 0.0225 0.000621717
0 0.00478797 0.02375 0.000703764
1.0842e-19 -0.0227123 0.00865619 0.000807596
-1.0842e-19 -0.005212 0.02375 0.000658401
-1.91544e-20 -0.013962 0.02 0.000551429
1.39337e-19 -0.0239649 0.00479702 0.000889336
2.1684e-19 -0.020212 0.0137433 0.000518613
3.854e-20 0.0210324 0.0124842 0.000538351
-6.77626e-21 0.0210325 0.0124911 0.000538461
1.0842e-19 0.0122876 0.02125 0.000714717
2.25875e-21 0.0235251 0.00735571 0.000397344
2.1684e-19 0.0247144 0.00115991 0.00174641
0 -0.012712 0.02125 0.00057528
2.65062e-20 -0.021462 0.0124878 0.000584965
0 0.00728791 0.02375 0.000707242
-1.0842e-19 0.0222828 0.0112165 0.000502084
0 -0.007712 0.02375 0.000641632
0 0.024745 0.00354107 0.000402174
5.82295e-20 0.001038 0.025 0.000688837
5.35381e-20 -0.001462 0.025 0.000682744
-2.4339e-20 0.0110378 0.0224999 0.000711175
-6.52215e-20 -0.0239631 0.00736519 0.000808952
0 -0.025214 0.00116967 0.00250328
-4.17705e-20 0.003538 0.025 0.000692806
-1.91544e-20 -0.011462 0.0225 0.000605051
3.28979e-21 -0.003962 0.025 0.000674958
0 -0.0227121 0.0112171 0.000660246
1.0842e-19 -0.0252134 0.00356919 0.000934709
1.11173e-19 0.0185364 0.0174993 0.000662861
0 0.0247657 0.00606274 0.000364069
0 0.0172867 0.01875 0.000688069
0 0.0255124 0 0.00169414
1.12938e-21 0.0235324 0.00994397 0.000464417
5.42101e-20 0.0255491 0.000373423 0.00169425
-1.0842e-19 0.0197856 0.0162494 0.00063911
1.11491e-19 0.0160373 0.0199997 0.000699895
0 0.00978779 0.02375 0.000708465
-7.02541e-20 0.00603798 0.025 0.000694678
0 -0.017712 0.01875 0.000522107
-4.93547e-20 -0.018962 0.0175 0.000512143
3.28979e-21 -0.006462 0.025 0.0006671
3.55754e-20 0.0210351 0.0149975 0.000604677
1.0842e-19 -0.010212 0.02375 0.000628052
2.1684e-19 0.0147874 0.02125 0.000712978
-1.91544e-20 -0.016462 0.02 0.000543
0 -0.020212 0.0162494 0.000505468
0 -0.0252127 0.0060825 0.000783876
7.12566e-20 -0.0239623 0.00994618 0.000731267
0 0.0259495 0 0.00167255
-2.71051e-20 0.0259804 0.00230532 0.00105102
0 -0.015212 0.02125 0.00056267
-1.0842e-19 0.0222843 0.0137433 0.000571394
5.68163e-20 -0.021462 0.0149988 0.000523625
0 0.0247764 0.00865012 0.000427415
-1.0842e-19 -0.000212006 0.02625 0.000684394
-3.35372e-20 0.0135377 0.0224999 0.000709673
1.0842e-19 0.00228798 0.02625 0.000685198
5.42101e-20 0.0263739 0.000391789 0.00164356
-1.0842e-19 -0.002712 0.02625 0.000683672
5.42101e-20 0.0264109 0 0.00163807
8.2321e-21 0.00853794 0.025 0.000694629
0 0.0260059 0.00476911 0.000377003
0 -0.0264606 2.79231e-06 0.00262975
5.84013e-20 -0.013962 0.0225 0.00059489
0 -0.022712 0.0137433 0.000548225
3.28979e-21 -0.008962 0.025 0.000661423
5.59042e-20 -0.0264607 0.00234175 0.00178252
-2.20229e-20 0.0235308 0.0124833 0.000533565
2.5411e-21 0.0235308 0.0124918 0.000533689
1.0842e-19 -0.0252122 0.00865616 0.000775743
0 0.00478797 0.02625 0.00068468
0 0.0122876 0.02375 0.000707357
1.0842e-19 -0.005212 0.02625 0.000683025
-9.21148e-20 -0.0264613 0.00479744 0.000826714
0 -0.012712 0.02375 0.000620484
-2.75848e-20 -0.023962 0.0124878 0.000617097
1.12938e-21 0.0260223 0.00735219 0.000393387
-2.1684e-19 0.0247812 0.0112164 0.000497014
0 0.0272032 0.00115759 0.00159949
0 0.00728791 0.02625 0.000683024
1.0842e-19 0.0197857 0.01875 0.000682138
-1.43996e-20 0.0185378 0.0199993 0.000694438
-4.37413e-20 0.011038 0.0249999 0.000692507
1.0842e-19 -0.007712 0.02625 0.000685344
-6.35275e-21 0.0210376 0.0174989 0.000656467
-1.0842e-19 0.0172867 0.02125 0.000708039
1.0842e-19 0.0272397 0.00352904 0.000380584
8.34327e-20 -0.0264628 0.00736639 0.000736309
-9.67102e-20 -0.011462 0.025 0.000660072
-3.71772e-20 0.001038 0.0275 0.0006755
1.47606e-20 -0.001462 0.0275 0.000679911
8.08456e-20 -0.018962 0.02 0.000543517
0 -0.020212 0.01875 0.000525551
-1.0842e-19 0.0222846 0.0162494 0.000632534
-1.0842e-19 -0.025212 0.0112171 0.000682117
3.12343e-20 0.0160379 0.0224997 0.000705388
-1.0842e-19 -0.017712 0.02125 0.000560204
1.39773e-19 -0.021462 0.0175 0.000522717
3.57788e-20 0.003538 0.0275 0.000670843
1.0842e-19 -0.0277135 0.00116961 0.00275626
-3.54881e-20 -0.003962 0.0275 0.000684521
-5.64689e-22 0.0260298 0.00994338 0.000459239
5.84013e-20 -0.016462 0.0225 0.000593262
1.49925e-19 0.0235338 0.014997 0.000597565
0 0.0272619 0.0060552 0.000359861
0 -0.022712 0.0162494 0.000522219
0 0.0279286 0 0.00156043
1.0842e-19 -0.0277131 0.00356909 0.000908414
0 0.0147874 0.02375 0.00070364
5.42101e-20 0.0279823 0.000421403 0.00156155
0 0.00978779 0.02625 0.000679786
-7.02533e-20 0.00603798 0.0275 0.000665505
0 -0.010212 0.02625 0.000690665
0 -0.015212 0.02375 0.000621125
-6.35958e-21 -0.006462 0.0275 0.000690431
1.47595e-20 -0.023962 0.0149988 0.000548691
1.08354e-19 -0.0264622 0.00994621 0.000711399
1.0842e-19 0.0247828 0.0137434 0.000563855
0 -0.0277125 0.00608242 0.000677087
5.42101e-20 0.0284251 0 0.00154034
-3.35372e-20 0.0135377 0.0249999 0.000688032
1.35525e-20 0.0284741 0.00227875 0.000982223
1.0842e-19 0.0272718 0.00864862 0.000422343
-1.91544e-20 -0.013962 0.025 0.00066491
0 -0.025212 0.0137433 0.000578236
1.0842e-19 -0.000212016 0.0287506 0.000670895
6.61744e-24 0.00853794 0.0275 0.000659359
0 0.00228797 0.0287506 0.000661509
5.64689e-22 0.0260327 0.0124876 0.000526147
0 -0.00271201 0.0287506 0.000680683
4.51751e-21 0.0285046 0.00475129 0.000366417
-5.42101e-20 0.0288977 0.000401716 0.00153457
-3.54881e-20 -0.008962 0.0275 0.000698579
0 0.0289345 0 0.00153122
0 -0.0289611 1.97592e-06 0.00286745
-1.0842e-19 0.0122876 0.02625 0.000674418
8.99973e-20 0.0210354 0.0199989 0.000685225
-1.0842e-19 -0.0277122 0.00865612 0.000708601
1.0842e-19 0.0197857 0.02125 0.000699502
1.82112e-20 -0.0289611 0.00234099 0.00188865
1.0842e-19 0.0222847 0.01875 0.000672071
2.1684e-19 0.00478795 0.0287506 0.000651981
-1.47172e-20 0.0185378 0.0224993 0.000697728
-1.0842e-19 -0.012712 0.02625 0.000701087
0 -0.00521201 0.0287506 0.000690704
-1.02157e-19 -0.026462 0.0124878 0.000634671
-9.06325e-20 0.0235342 0.0174985 0.000646376
0 -0.020212 0.02125 0.000566207
-1.91544e-20 -0.021462 0.02 0.00055251
-1.71524e-20 -0.0289615 0.00479776 0.00075978
-1.0842e-19 0.0172867 0.02375 0.000696892
1.58401e-19 -0.018962 0.0225 0.000600195
6.77626e-21 0.0285183 0.00734773 0.000388307
0 -0.022712 0.01875 0.000537627
-1.0842e-19 0.0272766 0.0112163 0.000489782
1.0842e-19 -0.017712 0.02375 0.00062905
-4.37413e-20 0.011038 0.0274999 0.000652008
2.1684e-19 0.0247831 0.0162494 0.000622377
1.0842e-19 0.0072879 0.0287506 0.000642327
3.97735e-20 -0.023962 0.0175 0.000541353
1.11544e-19 0.0160373 0.0249997 0.000680991
1.0842e-19 0.0297038 0.00111931 0.0015016
0 -0.007712 0.0287506 0.000702655
-1.57772e-30 -0.011462 0.0275 0.000709628
4.61633e-20 -0.0289626 0.00736544 0.000643454
0 -0.027712 0.0112171 0.000679467
-1.91544e-20 -0.016462 0.025 0.000676446
1.0842e-19 0.0297515 0.00348068 0.000369185
-1.0842e-19 -0.025212 0.0162494 0.00054612
5.43028e-20 0.00103803 0.0300012 0.000644511
3.21806e-20 -0.00146206 0.0300012 0.000656195
-5.75982e-20 0.0260294 0.0149949 0.000587129
0 0.0260372 0.0149948 0.000587211
-1.0842e-19 0.0147874 0.02625 0.000666713
-5.64689e-22 0.0285254 0.00994287 0.000452223
6.41363e-20 0.00353804 0.0300011 0.000632698
-1.0842e-19 -0.0302131 0.00116957 0.00297866
5.05937e-20 -0.00396204 0.0300012 0.00066769
0 -0.015212 0.02625 0.000716945
-1.0842e-19 0.0297582 0.00604461 0.000355249
-1.0842e-19 0.00978777 0.0287506 0.00063229
0 0.0304053 0 0.0014798
-6.73505e-20 -0.026462 0.0149988 0.000573761
1.0842e-19 -0.0302128 0.00356901 0.000879694
0 0.0304496 0.000427148 0.00148045
0 -0.010212 0.0287506 0.000715657
-1.0842e-19 0.0272782 0.0137434 0.000553635
-1.2454e-20 0.00603789 0.0300011 0.00062066
-1.43069e-20 -0.0289621 0.00994623 0.000663637
-2.65492e-20 0.0135379 0.0274999 0.00064319
5.91434e-20 -0.00646203 0.0300012 0.000679164
1.0842e-19 0.0222847 0.02125 0.000687179
-3.1552e-20 0.0210376 0.0224989 0.000686558
1.0842e-19 -0.0302124 0.00608237 0.000570015
8.08456e-20 -0.013962 0.0275 0.000723777
-3.00697e-20 0.0235342 0.0199985 0.000672376
-2.1684e-19 0.0197857 0.02375 0.000686476
0 0.0309265 0 0.00149217
0 -0.027712 0.0137433 0.000599238
0 0.0297661 0.00864739 0.000415844
-1.35525e-20 0.0309769 0.0022233 0.000941515
-1.0842e-19 0.0247832 0.01875 0.000658493
-1.91544e-20 -0.021462 0.0225 0.000616097
-1.0842e-19 -0.022712 0.02125 0.000580655
2.74227e-20 0.0185364 0.0249993 0.000671193
-2.82344e-22 0.0285283 0.0124876 0.000516296
1.0842e-19 -0.020212 0.02375 0.000645317
0 0.00853781 0.0300011 0.000608397
-9.67102e-20 -0.023962 0.02 0.000570696
0 -0.000212128 0.0312566 0.000629818
1.0842e-19 0.0122876 0.0287506 0.000621528
5.56296e-20 -0.00896202 0.0300012 0.000690523
0 0.00228784 0.0312566 0.000615764
-4.51751e-21 0.0310004 0.00472577 0.000358104
-2.66815e-20 0.0260298 0.0174964 0.000632842
7.6233e-20 0.026037 0.0174963 0.000632871
0 -0.0027121 0.0312566 0.000643332
8.08456e-20 -0.018962 0.025 0.000694187
0 -0.025212 0.01875 0.00055944
0 -0.0302121 0.00865609 0.000618224
0 0.0172867 0.02625 0.000656714
0 -0.012712 0.0287506 0.000731106
5.42101e-20 0.0314366 0.000417556 0.00147577
0 -0.0314613 1.38619e-06 0.00308183
-1.0842e-19 0.0314756 0 0.00147443
-4.73379e-20 -0.028962 0.0124878 0.000633529
2.11758e-20 -0.0314642 0.00234041 0.00197687
0 0.0047878 0.0312566 0.000601472
0 -0.017712 0.02625 0.000738665
-1.0842e-19 -0.00521208 0.0312567 0.000655993
1.41236e-19 -0.026462 0.0175 0.000566588
0 0.0272786 0.0162494 0.000608804
-1.0842e-19 0.0297706 0.0112165 0.000480495
2.5411e-20 -0.0314632 0.00479798 0.00069062
1.11544e-19 0.0160373 0.0274997 0.000632826
-9.03502e-21 0.0310128 0.00734326 0.000382111
1.36743e-19 0.0110377 0.030001 0.000595786
-9.67102e-20 -0.016462 0.0275 0.000740502
0 0.00728772 0.0312566 0.000586788
0 -0.011462 0.0300012 0.000701557
-1.0842e-19 -0.027712 0.0162494 0.000571489
0 -0.00771206 0.0312567 0.000667258
0 0.0322011 0.00107821 0.00145735
1.0842e-19 -0.030212 0.0112171 0.000648268
0 0.0285291 0.0149988 0.000574096
-2.60992e-20 -0.0314619 0.00736553 0.000547922
-2.1684e-19 0.0147873 0.0287506 0.00061009
0 0.0322344 0.0034326 0.000358365
-1.0842e-19 -0.015212 0.0287506 0.000745974
4.9022e-20 0.00103719 0.0325115 0.000568101
-1.0302e-19 -0.00146264 0.0325126 0.000578864
-3.00697e-20 0.0235342 0.0224985 0.000672249
-1.0842e-19 0.0222847 0.02375 0.000673064
-5.64689e-22 0.0310198 0.00994264 0.00044362
-3.75049e-20 -0.028962 0.0149988 0.000593861
0 0.0247832 0.02125 0.000671737
8.97855e-20 0.0210354 0.0250011 0.000658769
-6.28922e-20 0.00353699 0.0325114 0.000556174
-1.0842e-19 -0.0327128 0.00116953 0.00318502
-1.0535e-20 -0.0039625 0.0325118 0.000588286
-1.0842e-19 0.00978757 0.0312566 0.000572104
-5.42101e-20 0.0327897 0 0.00140776
0 0.0297723 0.0137435 0.000540947
0 0.0322502 0.00603529 0.000349345
-4.48927e-20 0.0260298 0.0199964 0.000656441
-1.09691e-19 0.026037 0.0199963 0.000656428
0 -0.022712 0.02375 0.00067221
-5.42101e-20 0.0328638 0.000481289 0.00140328
0 -0.023962 0.0225 0.000642421
1.0842e-19 0.0197857 0.02625 0.000644687
0 -0.010212 0.0312567 0.000676472
0 -0.0327126 0.00356894 0.000828536
5.35219e-20 0.0135375 0.0300009 0.000582773
-9.67102e-20 -0.021462 0.025 0.000717623
1.0842e-19 -0.025212 0.02125 0.00060506
-5.60498e-20 -0.0314621 0.00994625 0.000597112
-8.47033e-21 0.00603673 0.0325111 0.000543321
1.58469e-19 -0.013962 0.0300012 0.000711475
0 0.0272786 0.01875 0.000641758
1.0842e-19 -0.020212 0.02625 0.000763714
-7.46448e-20 -0.00646237 0.0325125 0.000595634
1.05879e-22 0.0185364 0.0274993 0.000620994
6.45119e-20 -0.026462 0.02 0.000599158
2.1684e-19 -0.030212 0.0137433 0.000607392
0 -0.0327123 0.00608232 0.000479489
-1.0842e-19 0.0322592 0.00864664 0.000407992
3.28979e-21 -0.018962 0.0275 0.000758132
-8.47033e-22 0.0310227 0.0124877 0.000504522
0 0.0334483 0 0.00138992
-1.0842e-19 -0.027712 0.01875 0.000589297
-5.64689e-22 0.0285291 0.0175 0.000616674
-9.03502e-21 0.033468 0.00219424 0.000869855
0 0.0172867 0.0287506 0.000597777
0 0.0122874 0.0312566 0.000557136
0 0.00853641 0.0325109 0.000529703
-7.95946e-20 -0.00896229 0.032512 0.000599876
1.0842e-19 -0.012712 0.0312567 0.000682936
1.0842e-19 -0.017712 0.0287506 0.000760426
0 -0.000212753 0.0337826 0.000517752
-4.51751e-21 0.0334864 0.00470655 0.000346748
-1.0842e-19 -0.0327121 0.00865608 0.000524067
-1.96303e-20 -0.028962 0.0175 0.000595772
-3.45083e-20 -0.031462 0.0124878 0.000613437
0 0.00228711 0.0337826 0.000508643
0 -0.00271261 0.0337826 0.000524105
0 0.0297727 0.0162494 0.000592876
0 -0.0339616 9.62831e-07 0.00326323
-3.44107e-20 0.0160371 0.0300007 0.000569373
1.64113e-19 -0.0339616 0.00233999 0.00204165
-1.0842e-19 0.00478694 0.0337826 0.000498404
-1.0842e-19 0.0322633 0.0112172 0.000469671
-5.42101e-20 0.0341686 0 0.00126266
1.0842e-19 -0.00521249 0.0337827 0.000529233
-9.47726e-20 -0.016462 0.0300012 0.000718698
-2.25875e-21 0.0334994 0.00733869 0.000374926
-1.32349e-20 -0.0339617 0.00479816 0.00062754
0 -0.030212 0.0162494 0.000597351
0 0.0247832 0.02375 0.000656991
-8.87267e-20 0.011036 0.0325107 0.000515613
-3.02814e-20 0.0235342 0.0249985 0.000644064
-1.82112e-20 0.0260298 0.0224964 0.000655436
-3.854e-20 0.026037 0.0224963 0.000655374
1.0842e-19 0.0222847 0.02625 0.000630838
-2.82344e-22 0.0310234 0.0149988 0.000558967
0 -0.0114622 0.0325121 0.000599988
-1.0842e-19 0.00728676 0.0337827 0.000486215
-1.0842e-19 0.0147871 0.0312566 0.000542247
0 0.0272786 0.02125 0.000653716
-1.0842e-19 -0.032712 0.0112171 0.000597627
8.97855e-20 0.0210354 0.0274989 0.000607803
8.08456e-20 -0.023962 0.025 0.000745376
0 -0.025212 0.02375 0.000711757
1.0842e-19 -0.00771239 0.0337827 0.000529536
5.42101e-20 0.0346563 0.00073045 0.00124211
1.0842e-19 -0.022712 0.02625 0.000789249
-9.67102e-20 -0.026462 0.0225 0.000679518
-1.25096e-19 -0.0339619 0.00736558 0.000470397
0 -0.015212 0.0312567 0.000685815
-2.82344e-22 0.0285291 0.02 0.000638265
-2.6792e-20 -0.031462 0.0149988 0.000605517
1.0842e-19 0.0347093 0.003417 0.000336052
1.27816e-19 -0.021462 0.0275 0.00077451
0 0.0197856 0.0287506 0.000584784
-1.0842e-19 -0.027712 0.02125 0.000642834
1.12938e-21 0.033505 0.0099433 0.000433683
1.18585e-20 0.00103325 0.0350498 0.000427142
-1.02915e-19 0.00104014 0.0350498 0.000426828
0 0.0322649 0.0137437 0.000526605
8.89385e-21 -0.00146578 0.0350506 0.00043018
-1.0842e-19 0.0351003 0 0.00120835
1.0842e-19 -0.020212 0.0287506 0.000769723
1.0842e-19 0.00978651 0.0337828 0.000473303
0 0.0297727 0.01875 0.000623204
3.28979e-21 -0.028962 0.02 0.000637673
-6.14099e-20 0.0135356 0.0325104 0.00050127
1.41172e-22 0.00353645 0.0350534 0.000421457