# kMean  POINT_DATA 37667
# x  y  z  kMean
-5.90671e-05 2.1684e-19 0 0.00209186
0.000934805 0 0 0.00228318
-0.00106911 0 0 0.00192016
0.00140088 2.71051e-20 0 0.00234464
-0.00151888 -2.71051e-20 0 0.00183835
0.00117901 -9.03502e-21 0.00117113 0.00226258
-0.00128849 2.25875e-20 0.00117062 0.00184969
-4.31765e-05 1.0842e-19 0.00234072 0.00163577
0.00239261 0 0 0.0024523
-0.00253032 0 0 0.00164151
0.00336229 8.13152e-20 0 0.0025802
0.00242341 0 0.00234108 0.00173406
-0.00252293 0 0.00234014 0.0014396
-0.00355263 -5.42101e-20 0 0.00143126
0.00120442 1.35525e-20 0.0035713 0.0011357
-0.00127507 -9.03502e-21 0.00357065 0.00125595
0.00362707 -4.51751e-21 0.00117131 0.00252299
0.00385067 -5.42101e-20 0 0.00260805
-0.00376956 -4.51751e-21 0.00117017 0.00138362
-0.00399133 0 0 0.00136298
-2.29192e-05 -1.0842e-19 0.00480025 0.0008565
0.00481724 0 0 0.0026325
-0.00501448 0 0 0.00130673
0.00367197 -1.35525e-20 0.00357105 0.00095351
-0.00376301 4.51751e-21 0.00356998 0.00122158
0.00245907 -1.0842e-19 0.00480044 0.000729346
0.00487218 1.0842e-19 0.00233996 0.00172606
-0.00251212 0 0.00479977 0.000949621
-0.00501145 0 0.00233967 0.00124436
0.00575627 -5.42101e-20 0 0.00268004
-0.00604431 0 0 0.00121515
0.00605007 -1.807e-20 0.00116989 0.00258876
0.00122797 -4.51751e-21 0.006084 0.000503601
-0.001262 -9.03502e-21 0.00608355 0.000601518
0.00627263 5.42101e-20 0 0.0026676
-0.00625929 -4.51751e-21 0.00116985 0.00119657
-0.00647612 1.35525e-19 0 0.00119015
0.00493143 -2.1684e-19 0.00479869 0.000602499
-0.00500606 0 0.00479935 0.000990868
0.00612525 -9.03502e-21 0.00356686 0.000769574
0.00371201 -1.35525e-20 0.00608361 0.00043677
-0.00375618 0 0.00608307 0.000745403
-0.00625636 0 0.00356948 0.00112715
0.00720746 0 0 0.00261567
-8.80336e-06 0 0.00736662 0.000485452
-0.00750642 -1.0842e-19 0 0.00121698
0.00730091 1.0842e-19 0.00233311 0.0016302
0.00248389 -1.0842e-19 0.00736673 0.000437705
-0.00250453 1.0842e-19 0.00736633 0.000562633
-0.00750536 1.0842e-19 0.00233933 0.0011408
0.00810899 2.71051e-20 0 0.00258778
0.00844495 -4.51751e-21 0.00116271 0.00247765
-0.00854047 8.13152e-20 0 0.00121871
0.00866226 5.42101e-20 0 0.00255388
0.0061894 1.35525e-20 0.00607973 0.000397512
-0.00625302 -1.35525e-20 0.00608271 0.000867059
0.00124214 1.807e-20 0.00865691 0.000428333
-0.00125418 4.51751e-21 0.00865666 0.000447329
0.00739431 0 0.00479014 0.00049951
-0.0087541 0 0.00116965 0.00121594
0.00497255 0 0.00736563 0.000411568
-0.00500221 -1.0842e-19 0.00736611 0.000660793
-0.00750287 -1.0842e-19 0.00479904 0.000970336
-0.00896833 0 0 0.00123039
0.00856709 0 0.00355042 0.000619273
0.00373618 9.03502e-21 0.00865671 0.000421307
-0.00375209 0 0.00865641 0.000491258
-0.00875292 0 0.00356915 0.0009953
0.00955779 0 0 0.00249356
-2.33168e-06 -1.0842e-19 0.00994661 0.000446805
0.00971438 0 0.00230723 0.00151529
-0.0100026 1.0842e-19 0 0.00132268
0.00249558 0 0.00994668 0.000448305
-0.00250115 0 0.00994648 0.000459245
-0.0100023 0 0.00233912 0.00112407
0.0103892 -8.13152e-20 0 0.00244198
0.00745704 0 0.00736086 0.000400073
-0.00750103 1.0842e-19 0.00736595 0.00074408
0.00866276 -4.51751e-21 0.00606706 0.000377982
-0.0087514 1.35525e-20 0.00608247 0.000888067
0.00622747 9.03502e-21 0.00865489 0.000423261
-0.006251 9.03502e-21 0.00865624 0.00056553
0.0107996 -2.25875e-20 0.00114301 0.00231722
0.00985495 0 0.00476418 0.000437126
0.010977 8.13152e-20 0 0.00237471
-0.0110388 -2.71051e-20 0 0.00139531
-0.0100013 0 0.00479884 0.000888833
0.00499216 0 0.00994634 0.000454402
-0.00500053 -1.0842e-19 0.0099464 0.000493724
0.00124803 -9.03502e-21 0.0112174 0.000466399
-0.001251 4.51751e-21 0.0112172 0.000453864
-0.0112517 1.35525e-20 0.00116954 0.00139451
-0.0114646 5.42101e-20 0 0.0014307
0.0110102 -1.807e-20 0.0035042 0.000551811
0.0118003 1.0842e-19 0 0.00226437
-0.0112513 9.03502e-21 0.00356894 0.000865172
0.00374639 4.51751e-21 0.0112173 0.000482901
-0.00375048 0 0.0112171 0.000456273
0.00871575 4.51751e-21 0.0086503 0.000425215
-0.00875046 9.03502e-21 0.00865614 0.000669831
0.012129 -1.0842e-19 0.00223333 0.00137841
0.0099385 0 0.00735088 0.000394279
-0.0100005 1.0842e-19 0.00736585 0.000774425
0.0074867 0 0.00994503 0.000459203
-0.00750024 0 0.00994635 0.000552097
-3.82247e-07 -2.1684e-19 0.0124879 0.000491035
-0.012501 0 0 0.00154925
0.0126142 0 0 0.00211867
0.0111384 -4.51751e-21 0.00604172 0.000368887
-0.012501 0 0.00233899 0.00117604
0.00249923 1.0842e-19 0.0124879 0.000509991
-0.00250018 -1.0842e-19 0.0124878 0.000475059
-0.0112506 0 0.00608232 0.000819123
0.00624356 -4.51751e-21 0.0112169 0.00049348
-0.00625022 -1.35525e-20 0.0112171 0.000475772
0.0131915 -2.71051e-20 0 0.00214309
0.0123278 -1.0842e-19 0.00471106 0.000407277
0.0132267 9.03502e-21 0.00104247 0.00206447
-0.0125005 1.0842e-19 0.00479871 0.000777203
0.00499843 -1.0842e-19 0.0124878 0.000524735
-0.00500008 0 0.0124878 0.00047081
-0.0135382 2.71051e-20 0 0.00166275
0.00124969 -4.51751e-21 0.0137434 0.000535819
-0.00125016 0 0.0137433 0.00051006
-0.0137506 1.807e-20 0.00116948 0.00165404
0.0135067 9.03502e-21 0.00337591 0.000514091
-0.013963 8.13152e-20 0 0.00170621
0.00997739 -1.0842e-19 0.00994339 0.000458814
-0.0100001 0 0.00994633 0.000617207
0.014125 -5.42101e-20 0 0.00237464
0.0111994 -1.807e-20 0.00864583 0.000422065
-0.0112502 -4.51751e-21 0.00865607 0.000727501
-0.0137505 -4.51751e-21 0.00356883 0.000771059
0.00873818 -1.35525e-20 0.0112161 0.000496712
-0.00875009 -9.03502e-21 0.0112171 0.000514143
0.00374931 -4.51751e-21 0.0137434 0.000555962
-0.00375007 4.51751e-21 0.0137433 0.000482725
0.0143989 0 0 0.00246384
0.0124168 -1.0842e-19 0.00734439 0.000386814
0.0144673 2.71051e-20 0.000330796 0.00246155
-0.0125002 0 0.00736579 0.000731934
0.00749644 -1.0842e-19 0.0124877 0.000531653
-0.00750003 -1.0842e-19 0.0124878 0.000484374
0.014749 0 0.000698994 0.0025083
0.0148911 0 0 0.002732
0.0136237 4.51751e-21 0.0060267 0.000357483
0.0148703 -1.807e-20 0.00154753 0.00160494
0.0149756 -5.42101e-20 0.000309223 0.00274108
-2.93175e-08 0 0.0149988 0.000556063
-0.0150003 1.0842e-19 0 0.00179837
-0.0137503 -9.03502e-21 0.00608223 0.000695296
0.00624827 0 0.0137433 0.00056707
-0.00625003 9.03502e-21 0.0137433 0.000472638
0.0151457 2.71051e-20 0 0.002915
-0.0150004 1.0842e-19 0.00233892 0.00125815
0.00249992 -1.0842e-19 0.0149988 0.000580034
-0.00250001 -1.0842e-19 0.0149988 0.000526904
0.0153731 3.01167e-21 0.000848982 0.00233688
0.0154079 0 0 0.00313853
0.0154333 2.71051e-20 0.000196582 0.00313572
0.0148306 0 0.004694 0.000379204
0.0155974 0 0.00145938 0.00105787
-0.0150002 -1.0842e-19 0.00479864 0.000663698
0.0157765 -2.71051e-20 0.000438014 0.00336003
0.00499965 1.0842e-19 0.0149988 0.000595407
-0.00500001 0 0.0149988 0.000500507
0.0112268 -1.35525e-20 0.0112162 0.000492296
-0.01125 -9.03502e-21 0.0112171 0.000575556
0.0124603 -1.0842e-19 0.0099452 0.000450764
-0.0125 -1.0842e-19 0.00994631 0.000647887
0.00999097 -1.0842e-19 0.0124877 0.000529948
-0.01 0 0.0124878 0.0005158
-0.016038 -5.42101e-20 0 0.00189676
0.0160421 2.71051e-20 0 0.00340421
0.0160727 2.71051e-20 0.000187423 0.00340423
0.0136832 -4.51751e-21 0.0086521 0.000411797
-0.0137501 9.03502e-21 0.00865604 0.000687791
0.0161756 0 0.00179843 0.000888465
0.0162555 -9.03502e-21 0.000985774 0.00221824
0.00874511 1.35525e-20 0.0137433 0.000569112
0.0162903 2.71051e-20 0 0.00339399
-0.0162502 0 0.00116945 0.00187235
-0.00875001 0 0.0137433 0.000481573
0.00124997 0 0.0162494 0.000603836
-0.00125001 1.807e-20 0.0162494 0.000574724
-0.0164624 -2.71051e-20 0 0.00193105
0.0161381 -8.13152e-21 0.00328259 0.000440704
0.0165248 0 0 0.00341179
0.0165235 2.71051e-20 0.000214492 0.00341173
0.0149084 0 0.00736477 0.000375218
-0.0162502 9.03502e-21 0.00356877 0.000715171
0.00374983 -4.51751e-21 0.0162494 0.000624127
-0.00375 0 0.0162494 0.000540413
-0.0150001 -2.1684e-19 0.00736576 0.000626677
0.00749843 0 0.0149988 0.000601326
-0.0075 0 0.0149988 0.000487967
0.0168483 5.42101e-20 0.000518488 0.00345837
0.0168009 0 0.00159734 0.000840334
0.0171763 2.71051e-20 0 0.00330232
0.0171798 0 0.000213918 0.00330145
0.0162492 7.7443e-21 0.00607578 0.000340886
-0.0162501 1.35525e-20 0.00608218 0.000546677
0.017409 0 0 0.003165
0.00624914 -9.03502e-21 0.0162494 0.000633642
-0.00625 0 0.0162494 0.000505914
0.0174064 0 0.00108106 0.00198747
-1.02401e-14 0 0.0175 0.000618184
-0.0175001 0 0 0.00198073
0.0174597 -4.51751e-21 0.00218801 0.000602346
0.017634 2.71051e-20 0 0.00304418
0.0176441 0 0.000226518 0.00304641
0.0124768 0 0.0124885 0.000517943
-0.0175001 -1.0842e-19 0.00233889 0.00131403
-0.0125 0 0.0124878 0.000552488
0.00249998 -1.0842e-19 0.0175 0.000641915
-0.0025 0 0.0175 0.000586099
0.013712 1.35525e-20 0.0112202 0.000477416
-0.01375 4.51751e-21 0.0112171 0.000612014
0.011236 9.03502e-21 0.0137435 0.000561355
-0.01125 0 0.0137433 0.000501867
0.0149484 0 0.00995676 0.000435441
0.0179798 0 0.000551805 0.00289166
-0.015 0 0.0099463 0.00061645
0.00999396 0 0.0149988 0.000597249
-0.01 0 0.0149988 0.000493349
0.0177172 -9.03502e-21 0.00353836 0.000326573
0.0179881 -5.42101e-20 0.00171051 0.000660976
-0.0175001 -1.0842e-19 0.00479861 0.000553371
0.0175164 0 0.00482374 0.000319049
0.00499976 0 0.0175 0.000655195
-0.005 0 0.0175 0.000550151
0.0182698 -2.71051e-20 0 0.00269745
0.0180402 0 0.00291708 0.000334931
0.0182858 0 0.000227338 0.00269653
-0.01625 -4.51751e-21 0.00865603 0.000584336
0.00874647 -9.03502e-21 0.0162494 0.000634046
-0.00875 -9.03502e-21 0.0162494 0.000492659
0.0162929 -6.45358e-21 0.00868413 0.000395152
0.018496 -2.71051e-20 0 0.00254977
0.0180113 0 0.00422619 0.000305401
-0.018538 -2.71051e-20 0 0.00203858
0.0185987 9.03502e-21 0.00110122 0.00160647
0.0187236 0 0 0.00238289
0.0187582 0 0.000214893 0.0023864
0.0177321 -2.71051e-20 0.00614951 0.000329217
-0.01875 0 0.00116944 0.00199758
0.00124999 0 0.01875 0.000660653
-0.00125 1.807e-20 0.01875 0.000632145
0.0186544 -4.51751e-21 0.00230765 0.000473727
0.0180198 0 0.00548223 0.000316051
-0.0189621 -5.42101e-20 0 0.00205624
-0.0175 0 0.00736574 0.000490867
0.0186737 9.03502e-21 0.00359745 0.000304597
0.00749863 0 0.0175 0.000658565
-0.0075 0 0.0175 0.000521366
0.0175523 -1.807e-20 0.00743048 0.000356775
-0.01875 9.03502e-21 0.00356874 0.000644716
0.00374987 -9.03502e-21 0.01875 0.000677601
-0.00375 1.807e-20 0.01875 0.000596058
0.0191417 0 0.000523466 0.00219053
0.0180335 0 0.00682266 0.000340219
0.0186794 -1.807e-20 0.00489465 0.000303127
0.0193409 0 0 0.00217975
0.019272 5.42101e-20 0.00165716 0.000606823
0.0193788 -2.71051e-20 0.000199 0.00218109
0.0137222 2.25875e-20 0.0137444 0.000540225
-0.01375 9.03502e-21 0.0137433 0.000533618
0.0149636 0 0.0124914 0.000496495
0.0124806 -2.1684e-19 0.0149989 0.000580542
0.0192887 -5.42101e-20 0.00296028 0.000292966
-0.015 0 0.0124878 0.000566782
-0.0125 0 0.0149988 0.000512765
0.0195825 0 0 0.00217365
0.0186882 4.51751e-21 0.00618728 0.000323419
-0.01875 -9.03502e-21 0.00608217 0.000402081
-0.01625 0 0.011217 0.000585893
0.0112379 9.03502e-21 0.0162494 0.000623146
0.0180425 0 0.00805496 0.000368503
-0.01125 9.03502e-21 0.0162494 0.000500001
0.00624921 -1.807e-20 0.01875 0.000683286
-0.00625 1.807e-20 0.01875 0.00055598
0.0193156 1.0842e-19 0.00426883 0.000285529
0.0177574 0 0.0087192 0.000383249
0.0197848 0 0 0.00217938
0.0163125 1.41979e-20 0.0112323 0.000453203
0.0197851 -2.71051e-20 0.00105651 0.00135618
0.0199433 2.25875e-21 0.000343781 0.0020606
0.0199517 -2.03288e-20 0 0.00201332
-0.02 0 0 0.00206429
-1.024e-14 0 0.02 0.000665203
0.0199137 -1.35525e-20 0.002322 0.000426355
0.0193276 5.42101e-20 0.00556506 0.000305646
0.0186907 0 0.007459 0.00034963
-0.0175 -1.0842e-19 0.00994629 0.000530227
-0.02 -1.0842e-19 0.00233888 0.00131481
0.0198262 -4.51751e-21 0.00353876 0.000279811
0.0201482 0 0 0.00160605
0.00999425 1.0842e-19 0.0175 0.000651188
0.00249998 -1.0842e-19 0.02 0.000685763
-0.0025 0 0.02 0.000633638
-0.01 0 0.0175 0.000511474
0.017571 9.03502e-21 0.00998358 0.000411535
0.0202492 0 0.000417568 0.00149544
0.0197197 0 0.00492314 0.000290872
0.0198624 -1.35525e-20 0.00431664 0.000279305
0.0203337 0 0 0.00120115
0.0180485 5.42101e-20 0.00938017 0.000395147
0.0203539 -1.12938e-21 0.000720236 0.00127069
0.0204602 -4.51751e-21 0.00021777 0.00109362
0.0193297 0 0.00683974 0.000331723
0.0205466 1.35525e-20 0 0.00104488
-0.02 -1.0842e-19 0.00479859 0.000460214
0.0205431 0 0.00166059 0.000531336
0.00499976 0 0.02 0.000694821
-0.005 0 0.02 0.000595025
0.018691 1.807e-20 0.00873215 0.000376389
0.0206055 -1.35525e-20 0.00113383 0.000964448
0.020248 4.51751e-21 0.00398707 0.000270402
0.0198777 1.35525e-20 0.00559885 0.000300001
-0.01875 0 0.00865601 0.000439095
0.0197161 9.03502e-21 0.00622263 0.000314014
0.00874659 0 0.01875 0.000680604
-0.00875 1.807e-20 0.01875 0.000527869
0.0206918 0 0.000485439 0.00123699
0.0207292 0 0 0.00121463
0.0202493 0 0.00468188 0.000281228
0.020562 0 0.00303088 0.000269929
0.0205791 -1.35525e-20 0.0036086 0.00026692
0.0209125 -1.35525e-20 0 0.00131505
0.0180516 0 0.0105934 0.000421721
0.0202818 -2.25875e-21 0.00528131 0.000290052
0.0193324 5.42101e-20 0.00810405 0.000357999
0.0209518 -2.25875e-21 0.000794603 0.00119004
0.0210055 0 0.000255445 0.0013574
0.0177662 9.03502e-21 0.0112451 0.000436098
0.0198824 0 0.0068589 0.000325425
-0.021038 -1.35525e-19 0 0.00207754
0.0205908 -4.51751e-21 0.00435357 0.000270131
0.020941 9.03502e-21 0.00237638 0.000343872
0.0197229 0 0.00748077 0.000339792
0.0210741 1.54886e-20 0.00124456 0.000846601
0.0211253 0 0 0.00141277
0.02028 9.03502e-21 0.00593584 0.000301933
0.0211074 1.35525e-20 0.00172891 0.000468213
0.0149672 0 0.0149992 0.000552892
0.0186932 4.51751e-21 0.00999396 0.000402191
0.0206045 0 0.00499039 0.000281484
-0.015 0 0.0149988 0.000535173
0.0137244 -1.35525e-20 0.0162495 0.000595891
-0.02125 -4.51751e-21 0.00116944 0.00202357
-0.01625 9.03502e-21 0.0137433 0.000545859
0.0212778 0 0.000537366 0.00138129
-0.01375 -1.807e-20 0.0162494 0.000521117
0.00124999 1.807e-20 0.02125 0.000695562
-0.00125 -2.71051e-20 0.02125 0.000670182
0.0209137 2.25875e-21 0.00401727 0.000259463
0.0202812 1.12938e-21 0.00654348 0.000315545
0.021312 0 0 0.00150859
-0.02 0 0.00736573 0.000383774
0.0163191 -2.58143e-21 0.0137469 0.000508844
0.0210372 -1.16165e-20 0.00357854 0.000257771
0.0211194 0 0.00306084 0.000256055
0.00749863 0 0.02 0.000694323
-0.0075 0 0.02 0.000561155
0.0206095 2.71051e-20 0.0056213 0.000292035
0.0209335 -2.25875e-21 0.00469187 0.000271873
-0.021462 -1.35525e-19 0 0.00207954
0.0198906 -1.35525e-20 0.00811521 0.00035152
0.019334 5.42101e-20 0.00936858 0.000383579
0.012481 -1.0842e-19 0.0175 0.000629682
-0.0175 0 0.0124878 0.000541662
-0.0125 0 0.0175 0.000521313
0.0215095 1.35525e-20 0 0.00156994
0.0202822 -1.12938e-21 0.00718905 0.000327405
0.0206114 0 0.00624672 0.000304312
-0.02125 -4.51751e-21 0.00356873 0.000556517
0.0175768 2.71051e-20 0.0124975 0.000463794
0.0215533 -6.77626e-21 0.00086045 0.00123936
0.00374987 -9.03502e-21 0.02125 0.000706724
-0.00375 1.807e-20 0.02125 0.000634275
0.0197282 1.807e-20 0.00874265 0.000365543
0.0209184 4.51751e-21 0.00530361 0.000282203
0.0215457 0 0.00146101 0.000563676
0.0215987 4.51751e-21 0.000276646 0.00157727
0.0215159 4.51751e-21 0.00210555 0.000328589
0.0180546 0 0.0118959 0.000446019
0.021231 0 0.0043614 0.000260468
0.0215157 -1.12938e-21 0.00273879 0.000256197
0.0217116 1.35525e-20 0 0.0016304
0.0206127 0 0.00687123 0.000316816
0.0202827 2.25875e-21 0.00779649 0.000341234
0.0209271 -6.77626e-21 0.00593526 0.000294405
0.0212132 2.71051e-20 0.00496926 0.000272276
0.0215326 -3.38813e-21 0.00340415 0.000245586
0.0186946 9.03502e-21 0.011248 0.000426755
-0.01875 9.03502e-21 0.011217 0.000506788
0.0112381 0 0.01875 0.000664718
-0.01125 1.807e-20 0.01875 0.000524617
0.0218884 0 0.00056802 0.00149754
0.0215249 -1.12938e-21 0.00403417 0.000252068
0.0218693 -2.71051e-20 0.00116661 0.000908462
0.0219118 0 0 0.00169397
0.021857 0 0.00180024 0.000404168
0.020929 -2.25875e-21 0.0065602 0.000306224
0.0206135 2.71051e-20 0.00749641 0.000329565
0.0202832 -2.25875e-21 0.00844256 0.000353458
0.0212419 0 0.00562259 0.000283862
0.0218488 0 0.00244594 0.000265038
0.0198921 -1.35525e-20 0.00937253 0.000376216
0.0215471 4.51751e-21 0.00467385 0.000262078
0.0193355 -5.42101e-20 0.0106231 0.00040784
0.0218549 2.71051e-20 0.00309251 0.000239437
-0.02125 1.807e-20 0.00608216 0.000341358
0.0197292 -9.03502e-21 0.00999813 0.000389958
0.0221193 -1.35525e-20 0 0.0017534
0.0209299 0 0.00718499 0.00031931
0.0212453 0 0.0062492 0.000295905
0.00624921 -1.807e-20 0.02125 0.000708357
-0.00625 1.807e-20 0.02125 0.000590824
0.0206142 0 0.00812214 0.000342442
0.0218602 0 0.0037332 0.000242036
0.0215479 -4.51751e-21 0.00530169 0.000273555
0.0221931 2.25875e-21 0.000875308 0.00127633
0.0222091 9.03502e-21 0.000287223 0.00174504
0.0202837 -1.58113e-20 0.00905069 0.00036654
0.0221806 -2.25875e-21 0.001495 0.000536632
0.0221729 -2.25875e-21 0.00213628 0.000281575
0.0218648 2.71051e-20 0.0043649 0.00025176
0.0180554 -5.42101e-20 0.0131005 0.000472888
0.0223146 1.35525e-20 0 0.00179604
0.0212462 -2.71051e-20 0.00687392 0.000308288
-0.02 0 0.00994629 0.000437959
0.0209305 4.51751e-21 0.00781023 0.000331745
0.0221717 -4.51751e-21 0.00278024 0.00023626
0.00999425 1.0842e-19 0.02 0.000682858
0.0215574 6.77626e-21 0.00593597 0.000285704
-0.01 0 0.02 0.000547173
0.0206151 -2.71051e-20 0.00874856 0.000355025
0.021869 0 0.00499521 0.000262997
0.0221756 2.25875e-21 0.0034203 0.000233251
0.0177686 9.03502e-21 0.0137495 0.000486686
0.020284 0 0.00969614 0.000377629
0.0186955 9.03502e-21 0.0124995 0.000451235
-0.0225 0 0 0.00205591
-1.02401e-14 0 0.0225 0.00068584
0.0225117 0 0.000578583 0.00156414
0.0225229 2.71051e-20 0 0.0018221
0.0212467 2.71051e-20 0.00749879 0.000320868
0.0225008 -5.42101e-20 0.00118742 0.000894097
0.0215594 -2.25875e-21 0.00656172 0.000297701
0.0221795 0 0.00405365 0.000241876
0.0198927 0 0.0106245 0.000400154
0.0209311 0 0.00843592 0.000344714
0.0224935 0 0.00182613 0.000370918
0.02187 2.71051e-20 0.00562207 0.000274719
-0.0225 0 0.00233887 0.00128066
0.0224908 0 0.0024723 0.000243765
0.00249998 -1.0842e-19 0.0225 0.000701476
-0.0025 0 0.0225 0.000658921
0.0206154 2.71051e-20 0.00937446 0.000367046
0.0221823 2.25875e-21 0.00468259 0.000252616
0.0193362 0 0.0118745 0.000431127
0.0224923 -2.71051e-20 0.0031118 0.000227293
0.0197298 9.03502e-21 0.0112496 0.000413036
0.02156 2.25875e-21 0.00718659 0.000310197
0.0227337 0 0 0.00184834
0.021247 -2.71051e-20 0.00812398 0.000333529
0.0218727 -2.71051e-20 0.00624927 0.000286775
0.0202841 -6.77626e-21 0.0103026 0.000390325
0.0224952 2.71051e-20 0.00374415 0.000232067
0.0209317 0 0.00906182 0.000356962
0.0221841 -6.77626e-21 0.00531005 0.000264244
0.0228272 4.51751e-21 0.000290736 0.0018215
0.0228187 0 0.000886665 0.00127094
0.0228117 -4.51751e-21 0.00151191 0.000506477
0.0228077 -2.25875e-21 0.00215451 0.000263887
0.0206155 0 0.00999985 0.000378851
0.0224972 -2.71051e-20 0.00437224 0.000242181
0.0218735 0 0.00687445 0.000299106
0.0229286 2.71051e-20 0 0.00186921
0.0215604 -2.25875e-21 0.0078116 0.000322613
-0.02125 1.35525e-20 0.00865601 0.000361502
0.022185 2.25875e-21 0.00593627 0.000276189
0.022807 2.25875e-21 0.00279629 0.000224179
0.0212475 2.71051e-20 0.00874944 0.000346019
0.00874659 9.03502e-21 0.02125 0.000701721
-0.01625 9.03502e-21 0.0162494 0.000548461
-0.00875 0 0.02125 0.000566384
-0.0225 0 0.00479859 0.000411978
0.0149676 0 0.0175 0.000597165
0.0163205 -7.7443e-21 0.0162497 0.000558221
0.0224981 -2.71051e-20 0.00499856 0.000253385
-0.0175 0 0.0149988 0.000546149
0.00499976 0 0.0225 0.000706614
-0.005 0 0.0225 0.000627156
-0.015 0 0.0175 0.000545878
0.0202842 -4.51751e-21 0.0109469 0.000400617
0.0209319 2.25875e-21 0.00968728 0.000368978
0.0228084 -2.25875e-21 0.0034307 0.000223238
0.018056 -5.42101e-20 0.0143983 0.000494438
0.0175779 0 0.0149998 0.000512591
0.0218739 -2.71051e-20 0.00749941 0.000311599
0.0221861 6.77626e-21 0.00656201 0.000288344
0.0231393 2.71051e-20 0 0.00188417
0.0231335 2.71051e-20 0.000583267 0.00158705
0.0215608 -2.25875e-21 0.00843687 0.000335315
0.0231277 -2.71051e-20 0.00119646 0.000872431
0.0198929 0 0.0118749 0.000422162
0.0228102 -2.25875e-21 0.00405972 0.000232121
0.0224985 0 0.00562421 0.000265111
0.0206155 5.42101e-20 0.010625 0.000389994
0.0231238 0 0.00183721 0.000349917
0.0186957 -4.51751e-21 0.0137498 0.000474444
0.0212477 0 0.00937484 0.000358149
0.0137246 -9.03502e-21 0.01875 0.000632549
-0.01875 1.807e-20 0.0137433 0.000530277
-0.01375 -1.807e-20 0.01875 0.000540614
0.0231223 2.71051e-20 0.00248253 0.000231016
0.0228112 -4.51751e-21 0.00468621 0.000242892
0.0221866 6.77626e-21 0.00718706 0.000300685
0.0231227 2.71051e-20 0.00311907 0.000217396
0.0218741 0 0.00812449 0.000324096
0.0209319 -4.51751e-21 0.0103125 0.000380217
0.0202842 -6.77626e-21 0.0115529 0.000412131
0.0233506 -1.35525e-20 0 0.00189939
0.022499 0 0.00624956 0.000277138
0.01973 9.03502e-21 0.0124999 0.000435497
0.0193365 0 0.0131249 0.000454249
0.0215611 0 0.00906223 0.000347579
0.0228116 2.25875e-21 0.00531183 0.000254334
0.0231237 2.71051e-20 0.00374822 0.00022272
0.0234469 -6.77626e-21 0.000292113 0.0018625
0.0234425 2.25875e-21 0.00089102 0.00125876
0.0212478 2.71051e-20 0.00999997 0.000369704
0.0206155 0 0.01125 0.000400813
0.0234387 0 0.00151844 0.000485656
0.0221868 -6.77626e-21 0.00781209 0.000313093
0.0224994 -2.71051e-20 0.00687472 0.000289392
0.0231244 -2.71051e-20 0.0043744 0.000232685
0.0234365 0 0.0021615 0.000251717
-0.023538 -5.42101e-20 0 0.00203988
0.0235476 0 0 0.00191049
0.0218744 0 0.00874973 0.0003365
0.0228118 2.25875e-21 0.00593712 0.000266222
0.012481 -1.0842e-19 0.02 0.000657631
-0.02 0 0.0124878 0.000495603
-0.0125 0 0.02 0.000556426
0.0234359 2.25875e-21 0.00280208 0.000214382
0.020932 6.77626e-21 0.0109375 0.00039093
0.0215613 2.25875e-21 0.00968744 0.000359527
0.0231246 0 0.00499972 0.000243677
0.0202842 -4.51751e-21 0.012197 0.000422185
-0.0225 0 0.00736572 0.000341144
0.0234363 2.25875e-21 0.00343443 0.000214308
0.0224996 0 0.00749974 0.000301778
0.00749863 0 0.0225 0.00070313
-0.0075 0 0.0225 0.000605288
0.022187 6.77626e-21 0.00843721 0.000325552
0.022812 -2.25875e-21 0.00656227 0.000278297
0.0212478 0 0.010625 0.000380552
0.0237586 0 0 0.00191641
0.0237556 5.42101e-20 0.000584582 0.00159472
-0.02375 4.51751e-21 0.00116943 0.00197813
0.0237524 0 0.00119912 0.00085365
0.00124999 0 0.02375 0.000697157
-0.00125 -1.807e-20 0.02375 0.000679306
0.0234369 0 0.0040617 0.000222965
0.0206155 0 0.011875 0.000411419
0.0218746 0 0.00937493 0.000348612
0.0231247 2.71051e-20 0.00562484 0.000255202
0.0237503 2.71051e-20 0.00184058 0.000333972
0.019893 1.35525e-20 0.013125 0.000444557
0.0180561 0 0.0156015 0.00051994
0.0237494 -2.71051e-20 0.00248567 0.000221003
0.0215613 0 0.0103125 0.000370569
0.0234373 -6.77626e-21 0.00468725 0.000233396
0.020932 -4.51751e-21 0.0115625 0.000401532
0.0228122 2.25875e-21 0.00718734 0.000290577
0.0224997 -2.71051e-20 0.00812478 0.000314151
0.0237494 2.71051e-20 0.00312126 0.00020879
0.0231248 0 0.00624989 0.000267067
-0.023962 5.42101e-20 0 0.00202707
0.0221872 -4.51751e-21 0.00906238 0.000337806
0.0186958 -9.03502e-21 0.015 0.000496993
0.0239698 -1.35525e-20 0 0.00192314
0.0202842 -2.25875e-21 0.012803 0.000434039
-0.02375 1.35525e-20 0.00356873 0.000528593
-0.02125 -9.03502e-21 0.011217 0.000435994
0.0234374 0 0.00531237 0.000244536
0.0112381 0 0.02125 0.000682021
0.0212478 -2.71051e-20 0.01125 0.000391009
0.0237497 2.71051e-20 0.00374935 0.000214065
0.00374987 0 0.02375 0.000704225
-0.01125 -9.03502e-21 0.02125 0.000569279
-0.00375 0 0.02375 0.000651287
0.01973 0 0.01375 0.000457095
0.0218746 -2.71051e-20 0.00999999 0.000360117
0.0240682 -4.51751e-21 0.000292422 0.00187984
0.0177688 0 0.01625 0.000531748
0.0240659 4.51751e-21 0.000892125 0.00124713
0.0193366 1.0842e-19 0.014375 0.00047581
0.0206155 0 0.0125 0.000422195
0.0240638 4.51751e-21 0.00152022 0.000469646
0.0228123 4.51751e-21 0.00781235 0.000302901
0.0231248 2.71051e-20 0.00687493 0.000279179
0.0224998 0 0.00874988 0.000326449
0.0237499 0 0.00437489 0.000223657
0.0240626 -4.51751e-21 0.00216353 0.000241478
0.0241688 0 0 0.00192834
0.0215613 6.77626e-21 0.0109375 0.00038103
0.0234374 6.77626e-21 0.00593743 0.000256117
0.0221873 -9.03502e-21 0.00968747 0.000349677
0.020932 -9.03502e-21 0.0121875 0.00041207
0.0240622 2.25875e-21 0.0028038 0.000206038
0.02375 2.71051e-20 0.00499997 0.000234262
0.0240622 2.25875e-21 0.00343551 0.000206197
0.0231249 0 0.00749994 0.000291419
0.0218746 0 0.010625 0.000370812
0.0228124 6.77626e-21 0.0084374 0.000315214
0.0202842 2.25875e-21 0.013447 0.00044352
0.0234374 4.51751e-21 0.00656245 0.000268009
0.0212478 -2.71051e-20 0.011875 0.000401401
0.0224999 2.71051e-20 0.00937497 0.0003385
0.0243798 0 0 0.00193142
0.0243784 0 0.000584785 0.00159414
0.0240624 -2.25875e-21 0.00406221 0.000214448
0.0243767 2.71051e-20 0.00119964 0.000837355
0.02375 0 0.00562498 0.000245414
0.0206155 -2.71051e-20 0.013125 0.000432488
0.0243755 0 0.00184134 0.000321276
0.0215613 4.51751e-21 0.0115625 0.000391191
0.0221873 -4.51751e-21 0.0103125 0.000360794
0.024375 -2.71051e-20 0.00248644 0.00021266
0.0231249 0 0.00812495 0.000303659
0.0234375 -4.51751e-21 0.00718746 0.000280092
0.0240625 0 0.00468745 0.000224409
-0.02375 9.03502e-21 0.00608215 0.000331934
0.020932 -4.51751e-21 0.0128125 0.000422466
0.019893 1.35525e-20 0.014375 0.000465005
0.0228124 -4.51751e-21 0.00906245 0.00032736
0.00624921 9.03502e-21 0.02375 0.000703894
0.02375 0 0.00624999 0.000256957
-0.00625 0 0.02375 0.000630851
0.0243749 2.71051e-20 0.00312184 0.000201107
0.0245911 0 0 0.00193402
0.0218746 0 0.01125 0.000380937
-0.0225 0 0.00994629 0.000390941
0.00999425 1.0842e-19 0.0225 0.000689341
0.0224999 0 0.01 0.000350029
-0.01 0 0.0225 0.00060522
0.0240625 2.25875e-21 0.00531249 0.000235108
0.0212478 -2.71051e-20 0.0125 0.000411687
0.0243749 0 0.00374963 0.000206097
0.0202842 2.25875e-21 0.014053 0.000454239
0.0246907 6.77626e-21 0.000292434 0.00188725
0.0234375 -2.25875e-21 0.00781247 0.00029224
0.0246895 2.25875e-21 0.000892278 0.0012322
0.0231249 -2.71051e-20 0.00874997 0.000315824
0.02375 2.71051e-20 0.00687499 0.000268787
0.0180561 0 0.0168985 0.000536043
0.0246884 -4.51751e-21 0.00152058 0.000454967
0.0221873 -4.51751e-21 0.0109375 0.000370999
-0.0175 0 0.0175 0.000576839
0.024375 0 0.00437498 0.000215178
0.0215613 0 0.0121875 0.000401434
0.0186958 0 0.01625 0.000517065
0.0206155 0 0.01375 0.000442515
0.0246878 -6.77626e-21 0.00216396 0.000232639
0.0228125 2.25875e-21 0.00968749 0.00033919
0.0240625 0 0.00593749 0.000246265
0.01973 -9.03502e-21 0.015 0.000477697
0.0247913 2.71051e-20 0 0.00193716
0.017578 0 0.0175 0.000552329
-0.01875 -3.61401e-20 0.0162494 0.000566593
-0.01625 -9.03502e-21 0.01875 0.00057668
0.0246875 -1.12938e-20 0.0028042 0.000198694
0.0163206 -1.67793e-20 0.01875 0.000592074
0.0193366 5.42101e-20 0.015625 0.000496989
0.020932 -2.25875e-21 0.0134375 0.000432248
0.0225 0 0.010625 0.00036072
0.024375 -5.42101e-20 0.005 0.00022529
0.0218746 0 0.011875 0.000390948
0.02375 0 0.00749999 0.00028076
0.0234375 -1.12938e-20 0.00843748 0.000304377
0.0246875 -4.51751e-21 0.00343578 0.000198752
0.0240625 -2.25875e-21 0.0065625 0.000257773
0.023125 0 0.00937499 0.00032778
0.0212478 -2.71051e-20 0.013125 0.000421637
0.0149676 0 0.02 0.000623132
-0.02 0 0.0149988 0.000544907
-0.015 0 0.02 0.000587085
-0.025 0 0 0.00196649
-1.02403e-14 0 0.025 0.000686307
0.0250025 0 0 0.00194134
0.0250019 2.71051e-20 0.00058479 0.00159025
0.024375 2.71051e-20 0.005625 0.000235985
0.0221873 -4.51751e-21 0.0115625 0.000380779
0.0246875 9.03502e-21 0.00406232 0.000206496
0.0250009 2.71051e-20 0.0011997 0.0008211
0.0228125 9.03502e-21 0.0103125 0.000350406
0.0202842 -2.25875e-21 0.014697 0.000463304
0.0250004 0 0.00184145 0.000310039
0.0215613 0 0.0128125 0.000411392
0.02375 2.71051e-20 0.00812499 0.000292781
-0.025 0 0.00233887 0.0012279
0.0240625 4.51751e-21 0.0071875 0.000269509
0.0250001 0 0.00248657 0.000205284
0.00249998 -1.0842e-19 0.025 0.000692519
-0.0025 0 0.025 0.000674915
0.0234375 2.25875e-21 0.00906249 0.000316398
0.0246875 -2.25875e-21 0.00468749 0.000215908
0.0206155 -2.71051e-20 0.014375 0.00045218
0.0225 0 0.01125 0.0003706
0.024375 -2.71051e-20 0.00625 0.000247073
0.025 2.71051e-20 0.00312194 0.000194064
0.0218746 0 0.0125 0.000400881
0.023125 2.71051e-20 0.01 0.000339304
0.025214 0 0 0.00194426
0.020932 2.25875e-21 0.0140625 0.00044206
0.0246875 2.25875e-21 0.0053125 0.000226115
-0.02375 -9.03502e-21 0.00865601 0.000346151
0.025 0 0.00374969 0.000198636
0.019893 2.71051e-20 0.015625 0.000485152
0.0137246 0 0.02125 0.000648916
0.0228125 -1.807e-20 0.0109375 0.000360643
0.0240625 2.25875e-21 0.0078125 0.000281331
-0.02125 -9.03502e-21 0.0137433 0.000505087
0.0212478 -2.71051e-20 0.01375 0.000431285
0.00874659 0 0.02375 0.000695423
-0.00875 1.807e-20 0.02375 0.000631889
-0.01375 -1.807e-20 0.02125 0.000593011
0.02375 0 0.00875 0.000304761
0.0221873 -4.51751e-21 0.0121875 0.00039061
0.0253141 0 0.000292407 0.00189562
0.024375 -2.71051e-20 0.006875 0.000258455
0.0253136 -2.25875e-21 0.000892266 0.00121624
0.025313 -6.77626e-21 0.00152059 0.000441426
0.0234375 2.25875e-21 0.0096875 0.000328135
0.025 2.71051e-20 0.004375 0.00020716
0.0246875 -2.25875e-21 0.0059375 0.000236768
0.0253127 0 0.00216402 0.000224891
0.0215613 4.51751e-21 0.0134375 0.000421035
0.0202842 -2.25875e-21 0.015303 0.000473996
0.0254148 -1.35525e-20 0 0.0019479
0.0225 0 0.011875 0.000380206
0.023125 -2.71051e-20 0.010625 0.000350066
-0.025 0 0.00479858 0.00040541
0.0253125 9.03502e-21 0.00280427 0.000191965
0.00499976 0 0.025 0.000692334
0.0206155 0 0.015 0.00046188
0.025 2.71051e-20 0.005 0.000216742
-0.005 0 0.025 0.000665998
0.0240625 1.58113e-20 0.0084375 0.000293237
0.024375 -2.71051e-20 0.0075 0.000270015
0.0218746 0 0.013125 0.00041055
0.02375 2.71051e-20 0.009375 0.000316567
0.0253125 0 0.00343582 0.000191726
0.0246875 4.51751e-21 0.0065625 0.000247759
0.01973 0 0.01625 0.00049659
0.0180561 -5.42101e-20 0.0181015 0.000556612
0.020932 -1.35525e-20 0.0146875 0.000451366
0.0228125 9.03502e-21 0.0115625 0.000370077
0.0234375 -9.03502e-21 0.0103125 0.000339353