# omega  POINT_DATA 37667
# x  y  z  omega
-5.90671e-05 2.1684e-19 0 185.39
0.000934805 0 0 195.668
-0.00106911 0 0 176.709
0.00140088 2.71051e-20 0 198.49
-0.00151888 -2.71051e-20 0 172.13
0.00117901 -9.03502e-21 0.00117113 193.47
-0.00128849 2.25875e-20 0.00117062 172.11
-4.31765e-05 1.0842e-19 0.00234072 150.903
0.00239261 0 0 202.881
-0.00253032 0 0 159.776
0.00336229 8.13152e-20 0 208.285
0.00242341 0 0.00234108 153.986
-0.00252293 0 0.00234014 140.93
-0.00355263 -5.42101e-20 0 146.817
0.00120442 1.35525e-20 0.0035713 111.448
-0.00127507 -9.03502e-21 0.00357065 120.926
0.00362707 -4.51751e-21 0.00117131 204.077
0.00385067 -5.42101e-20 0 209.396
-0.00376956 -4.51751e-21 0.00117017 143.432
-0.00399133 0 0 142.714
-2.29192e-05 -1.0842e-19 0.00480025 80.8396
0.00481724 0 0 210.285
-0.00501448 0 0 139.879
0.00367197 -1.35525e-20 0.00357105 99.742
-0.00376301 4.51751e-21 0.00356998 121.586
0.00245907 -1.0842e-19 0.00480044 69.2101
0.00487218 1.0842e-19 0.00233996 151.165
-0.00251212 0 0.00479977 90.4936
-0.00501145 0 0.00233967 129.506
0.00575627 -5.42101e-20 0 212.304
-0.00604431 0 0 134.945
0.00605007 -1.807e-20 0.00116989 206.395
0.00122797 -4.51751e-21 0.006084 40.9916
-0.001262 -9.03502e-21 0.00608355 53.5395
0.00627263 5.42101e-20 0 211.92
-0.00625929 -4.51751e-21 0.00116985 133.323
-0.00647612 1.35525e-19 0 133.539
0.00493143 -2.1684e-19 0.00479869 58.0524
-0.00500606 0 0.00479935 95.6041
0.00612525 -9.03502e-21 0.00356686 86.9681
0.00371201 -1.35525e-20 0.00608361 30.6973
-0.00375618 0 0.00608307 66.4917
-0.00625636 0 0.00356948 115.077
0.00720746 0 0 209.938
-8.80336e-06 0 0.00736662 32.4236
-0.00750642 -1.0842e-19 0 135.249
0.00730091 1.0842e-19 0.00233311 144.451
0.00248389 -1.0842e-19 0.00736673 24.7651
-0.00250453 1.0842e-19 0.00736633 42.3655
-0.00750536 1.0842e-19 0.00233933 121.434
0.00810899 2.71051e-20 0 209.089
0.00844495 -4.51751e-21 0.00116271 202.294
-0.00854047 8.13152e-20 0 135.484
0.00866226 5.42101e-20 0 208.804
0.0061894 1.35525e-20 0.00607973 23.1179
-0.00625302 -1.35525e-20 0.00608271 78.3694
0.00124214 1.807e-20 0.00865691 17.6063
-0.00125418 4.51751e-21 0.00865666 22.4037
0.00739431 0 0.00479014 48.4891
-0.0087541 0 0.00116965 134.643
0.00497255 0 0.00736563 19.3757
-0.00500221 -1.0842e-19 0.00736611 53.8179
-0.00750287 -1.0842e-19 0.00479904 93.6328
-0.00896833 0 0 136.447
0.00856709 0 0.00355042 74.8298
0.00373618 9.03502e-21 0.00865671 14.9639
-0.00375209 0 0.00865641 30.5132
-0.00875292 0 0.00356915 99.911
0.00955779 0 0 208.535
-2.33168e-06 -1.0842e-19 0.00994661 16.7819
0.00971438 0 0.00230723 139.021
-0.0100026 1.0842e-19 0 143.269
0.00249558 0 0.00994668 14.571
-0.00250115 0 0.00994648 20.9856
-0.0100023 0 0.00233912 117.405
0.0103892 -8.13152e-20 0 206.559
0.00745704 0 0.00736086 16.1821
-0.00750103 1.0842e-19 0.00736595 63.6551
0.00866276 -4.51751e-21 0.00606706 19.0464
-0.0087514 1.35525e-20 0.00608247 81.1251
0.00622747 9.03502e-21 0.00865489 13.6575
-0.006251 9.03502e-21 0.00865624 41.8706
0.0107996 -2.25875e-20 0.00114301 199.383
0.00985495 0 0.00476418 42.1425
0.010977 8.13152e-20 0 207.291
-0.0110388 -2.71051e-20 0 149.09
-0.0100013 0 0.00479884 84.988
0.00499216 0 0.00994634 13.5675
-0.00500053 -1.0842e-19 0.0099464 27.8976
0.00124803 -9.03502e-21 0.0112174 13.5938
-0.001251 4.51751e-21 0.0112172 14.7583
-0.0112517 1.35525e-20 0.00116954 148.124
-0.0114646 5.42101e-20 0 151.575
0.0110102 -1.807e-20 0.0035042 68.3787
0.0118003 1.0842e-19 0 211.788
-0.0112513 9.03502e-21 0.00356894 84.28
0.00374639 4.51751e-21 0.0112173 13.243
-0.00375048 0 0.0112171 17.545
0.00871575 4.51751e-21 0.0086503 13.2337
-0.00875046 9.03502e-21 0.00865614 54.4817
0.012129 -1.0842e-19 0.00223333 139.507
0.0099385 0 0.00735088 14.7645
-0.0100005 1.0842e-19 0.00736585 68.0703
0.0074867 0 0.00994503 13.2343
-0.00750024 0 0.00994635 37.3823
-3.82247e-07 -2.1684e-19 0.0124879 13.8171
-0.012501 0 0 158.603
0.0126142 0 0 209.491
0.0111384 -4.51751e-21 0.00604172 17.6179
-0.012501 0 0.00233899 119.66
0.00249923 1.0842e-19 0.0124879 13.4354
-0.00250018 -1.0842e-19 0.0124878 15.0039
-0.0112506 0 0.00608232 76.1202
0.00624356 -4.51751e-21 0.0112169 13.198
-0.00625022 -1.35525e-20 0.0112171 23.1488
0.0131915 -2.71051e-20 0 237.497
0.0123278 -1.0842e-19 0.00471106 39.9015
0.0132267 9.03502e-21 0.00104247 223.355
-0.0125005 1.0842e-19 0.00479871 75.5271
0.00499843 -1.0842e-19 0.0124878 13.4281
-0.00500008 0 0.0124878 17.7502
-0.0135382 2.71051e-20 0 165.934
0.00124969 -4.51751e-21 0.0137434 13.4865
-0.00125016 0 0.0137433 13.6409
-0.0137506 1.807e-20 0.00116948 164.254
0.0135067 9.03502e-21 0.00337591 72.0483
-0.013963 8.13152e-20 0 168.651
0.00997739 -1.0842e-19 0.00994339 13.2045
-0.0100001 0 0.00994633 47.0368
0.014125 -5.42101e-20 0 330.898
0.0111994 -1.807e-20 0.00864583 13.1751
-0.0112502 -4.51751e-21 0.00865607 61.253
-0.0137505 -4.51751e-21 0.00356883 80.0211
0.00873818 -1.35525e-20 0.0112161 13.3037
-0.00875009 -9.03502e-21 0.0112171 31.9688
0.00374931 -4.51751e-21 0.0137434 13.5668
-0.00375007 4.51751e-21 0.0137433 14.3987
0.0143989 0 0 357.048
0.0124168 -1.0842e-19 0.00734439 14.2952
0.0144673 2.71051e-20 0.000330796 356.212
-0.0125002 0 0.00736579 65.585
0.00749644 -1.0842e-19 0.0124877 13.5405
-0.00750003 -1.0842e-19 0.0124878 22.9252
0.014749 0 0.000698994 375.257
0.0148911 0 0 478.603
0.0136237 4.51751e-21 0.0060267 17.0657
0.0148703 -1.807e-20 0.00154753 270.464
0.0149756 -5.42101e-20 0.000309223 482.908
-2.93175e-08 0 0.0149988 13.732
-0.0150003 1.0842e-19 0 173.692
-0.0137503 -9.03502e-21 0.00608223 65.6514
0.00624827 0 0.0137433 13.7999
-0.00625003 9.03502e-21 0.0137433 16.6045
0.0151457 2.71051e-20 0 564.435
-0.0150004 1.0842e-19 0.00233892 125.662
0.00249992 -1.0842e-19 0.0149988 13.8266
-0.00250001 -1.0842e-19 0.0149988 13.9649
0.0153731 3.01167e-21 0.000848982 471.623
0.0154079 0 0 654.165
0.0154333 2.71051e-20 0.000196582 653.054
0.0148306 0 0.004694 37.1793
0.0155974 0 0.00145938 261.001
-0.0150002 -1.0842e-19 0.00479864 68.006
0.0157765 -2.71051e-20 0.000438014 757.484
0.00499965 1.0842e-19 0.0149988 14.046
-0.00500001 0 0.0149988 14.9145
0.0112268 -1.35525e-20 0.0112162 13.4092
-0.01125 -9.03502e-21 0.0112171 42.6633
0.0124603 -1.0842e-19 0.0099452 13.2455
-0.0125 -1.0842e-19 0.00994631 52.535
0.00999097 -1.0842e-19 0.0124877 13.6344
-0.01 0 0.0124878 30.6349
-0.016038 -5.42101e-20 0 179.478
0.0160421 2.71051e-20 0 718.397
0.0160727 2.71051e-20 0.000187423 717.991
0.0136832 -4.51751e-21 0.0086521 13.1677
-0.0137501 9.03502e-21 0.00865604 59.6194
0.0161756 0 0.00179843 218.855
0.0162555 -9.03502e-21 0.000985774 470.507
0.00874511 1.35525e-20 0.0137433 13.9201
0.0162903 2.71051e-20 0 685.994
-0.0162502 0 0.00116945 176.82
-0.00875001 0 0.0137433 21.1041
0.00124997 0 0.0162494 13.9731
-0.00125001 1.807e-20 0.0162494 13.8643
-0.0164624 -2.71051e-20 0 181.421
0.0161381 -8.13152e-21 0.00328259 70.0532
0.0165248 0 0 655.768
0.0165235 2.71051e-20 0.000214492 656.102
0.0149084 0 0.00736477 13.8284
-0.0162502 9.03502e-21 0.00356877 79.1762
0.00374983 -4.51751e-21 0.0162494 14.3126
-0.00375 0 0.0162494 14.0471
-0.0150001 -2.1684e-19 0.00736576 57.5046
0.00749843 0 0.0149988 14.2127
-0.0075 0 0.0149988 17.2972
0.0168483 5.42101e-20 0.000518488 616.106
0.0168009 0 0.00159734 215.724
0.0171763 2.71051e-20 0 589.97
0.0171798 0 0.000213918 589.816
0.0162492 7.7443e-21 0.00607578 14.5496
-0.0162501 1.35525e-20 0.00608218 53.1561
0.017409 0 0 571.861
0.00624914 -9.03502e-21 0.0162494 14.5425
-0.00625 0 0.0162494 14.8683
0.0174064 0 0.00108106 388.157
-1.02401e-14 0 0.0175 14.2798
-0.0175001 0 0 183.935
0.0174597 -4.51751e-21 0.00218801 143.891
0.017634 2.71051e-20 0 550.432
0.0176441 0 0.000226518 550.748
0.0124768 0 0.0124885 13.6719
-0.0175001 -1.0842e-19 0.00233889 130.196
-0.0125 0 0.0124878 38.4073
0.00249998 -1.0842e-19 0.0175 14.5281
-0.0025 0 0.0175 14.2236
0.013712 1.35525e-20 0.0112202 13.464
-0.01375 4.51751e-21 0.0112171 47.8421
0.011236 9.03502e-21 0.0137435 13.9384
-0.01125 0 0.0137433 28.3528
0.0149484 0 0.00995676 13.2394
0.0179798 0 0.000551805 524.666
-0.015 0 0.0099463 51.8533
0.00999396 0 0.0149988 14.2589
-0.01 0 0.0149988 21.8612
0.0177172 -9.03502e-21 0.00353836 35.0058
0.0179881 -5.42101e-20 0.00171051 180.572
-0.0175001 -1.0842e-19 0.00479861 60.7242
0.0175164 0 0.00482374 18.4592
0.00499976 0 0.0175 14.7761
-0.005 0 0.0175 14.5705
0.0182698 -2.71051e-20 0 519.57
0.0180402 0 0.00291708 47.5639
0.0182858 0 0.000227338 519.607
-0.01625 -4.51751e-21 0.00865603 52.1405
0.00874647 -9.03502e-21 0.0162494 14.6116
-0.00875 -9.03502e-21 0.0162494 17.0677
0.0162929 -6.45358e-21 0.00868413 13.0348
0.018496 -2.71051e-20 0 518.237
0.0180113 0 0.00422619 17.2775
-0.018538 -2.71051e-20 0 187.07
0.0185987 9.03502e-21 0.00110122 349.092
0.0187236 0 0 506.246
0.0187582 0 0.000214893 506.48
0.0177321 -2.71051e-20 0.00614951 13.2868
-0.01875 0 0.00116944 183.545
0.00124999 0 0.01875 14.7708
-0.00125 1.807e-20 0.01875 14.5238
0.0186544 -4.51751e-21 0.00230765 109.328
0.0180198 0 0.00548223 13.4752
-0.0189621 -5.42101e-20 0 188.071
-0.0175 0 0.00736574 46.292
0.0186737 9.03502e-21 0.00359745 28.8717
0.00749863 0 0.0175 14.892
-0.0075 0 0.0175 15.7831
0.0175523 -1.807e-20 0.00743048 12.987
-0.01875 9.03502e-21 0.00356874 77.928
0.00374987 -9.03502e-21 0.01875 15.066
-0.00375 1.807e-20 0.01875 14.491
0.0191417 0 0.000523466 502.101
0.0180335 0 0.00682266 12.9317
0.0186794 -1.807e-20 0.00489465 14.8763
0.0193409 0 0 666.23
0.019272 5.42101e-20 0.00165716 174.439
0.0193788 -2.71051e-20 0.000199 667.953
0.0137222 2.25875e-20 0.0137444 13.9
-0.01375 9.03502e-21 0.0137433 36.2003
0.0149636 0 0.0124914 13.6374
0.0124806 -2.1684e-19 0.0149989 14.2025
0.0192887 -5.42101e-20 0.00296028 35.1374
-0.015 0 0.0124878 42.6462
-0.0125 0 0.0149988 28.2646
0.0195825 0 0 787.671
0.0186882 4.51751e-21 0.00618728 13.12
-0.01875 -9.03502e-21 0.00608217 39.9933
-0.01625 0 0.011217 47.7763
0.0112379 9.03502e-21 0.0162494 14.5759
0.0180425 0 0.00805496 12.8355
-0.01125 9.03502e-21 0.0162494 21.4817
0.00624921 -1.807e-20 0.01875 15.1988
-0.00625 1.807e-20 0.01875 14.9117
0.0193156 1.0842e-19 0.00426883 15.4481
0.0177574 0 0.0087192 12.9198
0.0197848 0 0 877.406
0.0163125 1.41979e-20 0.0112323 13.3943
0.0197851 -2.71051e-20 0.00105651 456.788
0.0199433 2.25875e-21 0.000343781 926.783
0.0199517 -2.03288e-20 0 1049.4
-0.02 0 0 188.766
-1.024e-14 0 0.02 15.0559
0.0199137 -1.35525e-20 0.002322 104.193
0.0193276 5.42101e-20 0.00556506 13.2879
0.0186907 0 0.007459 12.8218
-0.0175 -1.0842e-19 0.00994629 46.1463
-0.02 -1.0842e-19 0.00233888 130.435
0.0198262 -4.51751e-21 0.00353876 24.497
0.0201482 0 0 1376.74
0.00999425 1.0842e-19 0.0175 14.8811
0.00249998 -1.0842e-19 0.02 15.2544
-0.0025 0 0.02 14.9511
-0.01 0 0.0175 18.5051
0.017571 9.03502e-21 0.00998358 13.0789
0.0202492 0 0.000417568 1121.92
0.0197197 0 0.00492314 14.1155
0.0198624 -1.35525e-20 0.00431664 15.2705
0.0203337 0 0 1659.71
0.0180485 5.42101e-20 0.00938017 12.9821
0.0203539 -1.12938e-21 0.000720236 596.816
0.0204602 -4.51751e-21 0.00021777 1662.74
0.0193297 0 0.00683974 12.7929
0.0205466 1.35525e-20 0 1756.89
-0.02 -1.0842e-19 0.00479859 52.3796
0.0205431 0 0.00166059 175.164
0.00499976 0 0.02 15.394
-0.005 0 0.02 15.1169
0.018691 1.807e-20 0.00873215 12.8366
0.0206055 -1.35525e-20 0.00113383 386.368
0.020248 4.51751e-21 0.00398707 17.277
0.0198777 1.35525e-20 0.00559885 13.2573
-0.01875 0 0.00865601 41.4884
0.0197161 9.03502e-21 0.00622263 12.9938
0.00874659 0 0.01875 15.2048
-0.00875 1.807e-20 0.01875 16.3831
0.0206918 0 0.000485439 1104
0.0207292 0 0 1637.06
0.0202493 0 0.00468188 14.0587
0.020562 0 0.00303088 30.4126
0.0205791 -1.35525e-20 0.0036086 22.4328
0.0209125 -1.35525e-20 0 1489.03
0.0180516 0 0.0105934 13.1151
0.0202818 -2.25875e-21 0.00528131 13.4308
0.0193324 5.42101e-20 0.00810405 12.7241
0.0209518 -2.25875e-21 0.000794603 547.02
0.0210055 0 0.000255445 1352.23
0.0177662 9.03502e-21 0.0112451 13.2658
0.0198824 0 0.0068589 12.7629
-0.021038 -1.35525e-19 0 189.752
0.0205908 -4.51751e-21 0.00435357 15.1237
0.020941 9.03502e-21 0.00237638 80.6308
0.0197229 0 0.00748077 12.7114
0.0210741 1.54886e-20 0.00124456 320.846
0.0211253 0 0 1375.33
0.02028 9.03502e-21 0.00593584 13.0937
0.0211074 1.35525e-20 0.00172891 156.631
0.0149672 0 0.0149992 14.0723
0.0186932 4.51751e-21 0.00999396 12.971
0.0206045 0 0.00499039 13.6726
-0.015 0 0.0149988 33.844
0.0137244 -1.35525e-20 0.0162495 14.4103
-0.02125 -4.51751e-21 0.00116944 185.455
-0.01625 9.03502e-21 0.0137433 39.329
0.0212778 0 0.000537366 920.618
-0.01375 -1.807e-20 0.0162494 28.009
0.00124999 1.807e-20 0.02125 15.528
-0.00125 -2.71051e-20 0.02125 15.4086
0.0209137 2.25875e-21 0.00401727 16.7583
0.0202812 1.12938e-21 0.00654348 12.8034
0.021312 0 0 1339.86
-0.02 0 0.00736573 34.9164
0.0163191 -2.58143e-21 0.0137469 13.7703
0.0210372 -1.16165e-20 0.00357854 21.0499
0.0211194 0 0.00306084 26.1927
0.00749863 0 0.02 15.4203
-0.0075 0 0.02 15.9507
0.0206095 2.71051e-20 0.0056213 13.231
0.0209335 -2.25875e-21 0.00469187 13.8497
-0.021462 -1.35525e-19 0 189.923
0.0198906 -1.35525e-20 0.00811521 12.6587
0.019334 5.42101e-20 0.00936858 12.8027
0.012481 -1.0842e-19 0.0175 14.7378
-0.0175 0 0.0124878 42.3224
-0.0125 0 0.0175 23.0738
0.0215095 1.35525e-20 0 1280.66
0.0202822 -1.12938e-21 0.00718905 12.701
0.0206114 0 0.00624672 12.9259
-0.02125 -4.51751e-21 0.00356873 70.9769
0.0175768 2.71051e-20 0.0124975 13.4839
0.0215533 -6.77626e-21 0.00086045 506.185
0.00374987 -9.03502e-21 0.02125 15.6485
-0.00375 1.807e-20 0.02125 15.4002
0.0197282 1.807e-20 0.00874265 12.6913
0.0209184 4.51751e-21 0.00530361 13.4366
0.0215457 0 0.00146101 213.101
0.0215987 4.51751e-21 0.000276646 1200.74
0.0215159 4.51751e-21 0.00210555 89.0638
0.0180546 0 0.0118959 13.3843
0.021231 0 0.0043614 14.6312
0.0215157 -1.12938e-21 0.00273879 32.444
0.0217116 1.35525e-20 0 1239.81
0.0206127 0 0.00687123 12.7222
0.0202827 2.25875e-21 0.00779649 12.6269
0.0209271 -6.77626e-21 0.00593526 13.0568
0.0212132 2.71051e-20 0.00496926 13.6996
0.0215326 -3.38813e-21 0.00340415 18.7511
0.0186946 9.03502e-21 0.011248 13.173
-0.01875 9.03502e-21 0.011217 42.7712
0.0112381 0 0.01875 15.1183
-0.01125 1.807e-20 0.01875 19.3167
0.0218884 0 0.00056802 857.988
0.0215249 -1.12938e-21 0.00403417 15.235
0.0218693 -2.71051e-20 0.00116661 340.368
0.0219118 0 0 1227.92
0.021857 0 0.00180024 139.191
0.020929 -2.25875e-21 0.0065602 12.7952
0.0206135 2.71051e-20 0.00749641 12.621
0.0202832 -2.25875e-21 0.00844256 12.6203
0.0212419 0 0.00562259 13.2378
0.0218488 0 0.00244594 51.3134
0.0198921 -1.35525e-20 0.00937253 12.7073
0.0215471 4.51751e-21 0.00467385 14.0079
0.0193355 -5.42101e-20 0.0106231 12.9805
0.0218549 2.71051e-20 0.00309251 22.4279
-0.02125 1.807e-20 0.00608216 29.1789
0.0197292 -9.03502e-21 0.00999813 12.8136
0.0221193 -1.35525e-20 0 1204.5
0.0209299 0 0.00718499 12.6355
0.0212453 0 0.0062492 12.9153
0.00624921 -1.807e-20 0.02125 15.6537
-0.00625 1.807e-20 0.02125 15.6604
0.0206142 0 0.00812214 12.5726
0.0218602 0 0.0037332 16.0775
0.0215479 -4.51751e-21 0.00530169 13.4593
0.0221931 2.25875e-21 0.000875308 503.547
0.0222091 9.03502e-21 0.000287223 1145.8
0.0202837 -1.58113e-20 0.00905069 12.625
0.0221806 -2.25875e-21 0.001495 208.767
0.0221729 -2.25875e-21 0.00213628 74.2156
0.0218648 2.71051e-20 0.0043649 14.4234
0.0180554 -5.42101e-20 0.0131005 13.5327
0.0223146 1.35525e-20 0 1189.46
0.0212462 -2.71051e-20 0.00687392 12.6944
-0.02 0 0.00994629 37.9841
0.0209305 4.51751e-21 0.00781023 12.5546
0.0221717 -4.51751e-21 0.00278024 28.7603
0.00999425 1.0842e-19 0.02 15.3424
0.0215574 6.77626e-21 0.00593597 13.0582
-0.01 0 0.02 18.0475
0.0206151 -2.71051e-20 0.00874856 12.5645
0.021869 0 0.00499521 13.7077
0.0221756 2.25875e-21 0.0034203 17.4769
0.0177686 9.03502e-21 0.0137495 13.6616
0.020284 0 0.00969614 12.6949
0.0186955 9.03502e-21 0.0124995 13.3829
-0.0225 0 0 188.551
-1.02401e-14 0 0.0225 15.8281
0.0225117 0 0.000578583 832.484
0.0225229 2.71051e-20 0 1187.29
0.0212467 2.71051e-20 0.00749879 12.5655
0.0225008 -5.42101e-20 0.00118742 334.361
0.0215594 -2.25875e-21 0.00656172 12.7842
0.0221795 0 0.00405365 14.918
0.0198927 0 0.0106245 12.8849
0.0209311 0 0.00843592 12.5271
0.0224935 0 0.00182613 131.116
0.02187 2.71051e-20 0.00562207 13.2495
-0.0225 0 0.00233887 125.526
0.0224908 0 0.0024723 46.1211
0.00249998 -1.0842e-19 0.0225 15.8488
-0.0025 0 0.0225 15.874
0.0206154 2.71051e-20 0.00937446 12.5959
0.0221823 2.25875e-21 0.00468259 14.0125
0.0193362 0 0.0118745 13.2092
0.0224923 -2.71051e-20 0.0031118 21.24
0.0197298 9.03502e-21 0.0112496 13.0121
0.02156 2.25875e-21 0.00718659 12.6006
0.0227337 0 0 1181.06
0.021247 -2.71051e-20 0.00812398 12.503
0.0218727 -2.71051e-20 0.00624927 12.9102
0.0202841 -6.77626e-21 0.0103026 12.7752
0.0224952 2.71051e-20 0.00374415 15.8302
0.0209317 0 0.00906182 12.5277
0.0221841 -6.77626e-21 0.00531005 13.4634
0.0228272 4.51751e-21 0.000290736 1129.77
0.0228187 0 0.000886665 497.51
0.0228117 -4.51751e-21 0.00151191 201.723
0.0228077 -2.25875e-21 0.00215451 70.3344
0.0206155 0 0.00999985 12.6649
0.0224972 -2.71051e-20 0.00437224 14.3947
0.0218735 0 0.00687445 12.6713
0.0229286 2.71051e-20 0 1176.41
0.0215604 -2.25875e-21 0.0078116 12.4993
-0.02125 1.35525e-20 0.00865601 31.3498
0.022185 2.25875e-21 0.00593627 13.061
0.022807 2.25875e-21 0.00279629 27.353
0.0212475 2.71051e-20 0.00874944 12.4842
0.00874659 9.03502e-21 0.02125 15.6002
-0.01625 9.03502e-21 0.0162494 32.7656
-0.00875 0 0.02125 16.8728
-0.0225 0 0.00479859 43.6671
0.0149676 0 0.0175 14.5094
0.0163205 -7.7443e-21 0.0162497 14.1757
0.0224981 -2.71051e-20 0.00499856 13.7223
-0.0175 0 0.0149988 36.2929
0.00499976 0 0.0225 15.831
-0.005 0 0.0225 16.164
-0.015 0 0.0175 28.2452
0.0202842 -4.51751e-21 0.0109469 12.8771
0.0209319 2.25875e-21 0.00968728 12.5804
0.0228084 -2.25875e-21 0.0034307 17.2395
0.018056 -5.42101e-20 0.0143983 13.764
0.0175779 0 0.0149998 13.872
0.0218739 -2.71051e-20 0.00749941 12.52
0.0221861 6.77626e-21 0.00656201 12.7676
0.0231393 2.71051e-20 0 1176.14
0.0231335 2.71051e-20 0.000583267 824.023
0.0215608 -2.25875e-21 0.00843687 12.4569
0.0231277 -2.71051e-20 0.00119646 328.688
0.0198929 0 0.0118749 13.0935
0.0228102 -2.25875e-21 0.00405972 14.8777
0.0224985 0 0.00562421 13.2522
0.0206155 5.42101e-20 0.010625 12.7508
0.0231238 0 0.00183721 126.464
0.0186957 -4.51751e-21 0.0137498 13.5804
0.0212477 0 0.00937484 12.5025
0.0137246 -9.03502e-21 0.01875 14.8455
-0.01875 1.807e-20 0.0137433 39.3332
-0.01375 -1.807e-20 0.01875 23.9899
0.0231223 2.71051e-20 0.00248253 43.9648
0.0228112 -4.51751e-21 0.00468621 14.0139
0.0221866 6.77626e-21 0.00718706 12.5669
0.0231227 2.71051e-20 0.00311907 20.7102
0.0218741 0 0.00812449 12.4413
0.0209319 -4.51751e-21 0.0103125 12.6469
0.0202842 -6.77626e-21 0.0115529 12.9749
0.0233506 -1.35525e-20 0 1174.94
0.022499 0 0.00624956 12.901
0.01973 9.03502e-21 0.0124999 13.2235
0.0193365 0 0.0131249 13.4003
0.0215611 0 0.00906223 12.4483
0.0228116 2.25875e-21 0.00531183 13.4662
0.0231237 2.71051e-20 0.00374822 15.7564
0.0234469 -6.77626e-21 0.000292113 1125.59
0.0234425 2.25875e-21 0.00089102 494.514
0.0212478 2.71051e-20 0.00999997 12.5554
0.0206155 0 0.01125 12.8479
0.0234387 0 0.00151844 197.28
0.0221868 -6.77626e-21 0.00781209 12.4458
0.0224994 -2.71051e-20 0.00687472 12.6471
0.0231244 -2.71051e-20 0.0043744 14.3904
0.0234365 0 0.0021615 68.2537
-0.023538 -5.42101e-20 0 187.534
0.0235476 0 0 1174.26
0.0218744 0 0.00874973 12.4118
0.0228118 2.25875e-21 0.00593712 13.0556
0.012481 -1.0842e-19 0.02 15.1293
-0.02 0 0.0124878 38.594
-0.0125 0 0.02 21.7656
0.0234359 2.25875e-21 0.00280208 26.5109
0.020932 6.77626e-21 0.0109375 12.7413
0.0215613 2.25875e-21 0.00968744 12.4784
0.0231246 0 0.00499972 13.7265
0.0202842 -4.51751e-21 0.012197 13.0845
-0.0225 0 0.00736572 26.9161
0.0234363 2.25875e-21 0.00343443 17.0906
0.0224996 0 0.00749974 12.4775
0.00749863 0 0.0225 15.7489
-0.0075 0 0.0225 17.0781
0.022187 6.77626e-21 0.00843721 12.3894
0.022812 -2.25875e-21 0.00656227 12.7488
0.0212478 0 0.010625 12.6312
0.0237586 0 0 1175.17
0.0237556 5.42101e-20 0.000584582 822.339
-0.02375 4.51751e-21 0.00116943 182.503
0.0237524 0 0.00119912 325.434
0.00124999 0 0.02375 16.1518
-0.00125 -1.807e-20 0.02375 16.2378
0.0234369 0 0.0040617 14.8597
0.0206155 0 0.011875 12.9503
0.0218746 0 0.00937493 12.4157
0.0231247 2.71051e-20 0.00562484 13.2482
0.0237503 2.71051e-20 0.00184058 123.269
0.019893 1.35525e-20 0.013125 13.3054
0.0180561 0 0.0156015 13.9286
0.0237494 -2.71051e-20 0.00248567 42.5705
0.0215613 0 0.0103125 12.5369
0.0234373 -6.77626e-21 0.00468725 14.0182
0.020932 -4.51751e-21 0.0115625 12.8339
0.0228122 2.25875e-21 0.00718734 12.5328
0.0224997 -2.71051e-20 0.00812478 12.3816
0.0237494 2.71051e-20 0.00312126 20.3691
0.0231248 0 0.00624989 12.8866
-0.023962 5.42101e-20 0 186.799
0.0221872 -4.51751e-21 0.00906238 12.3727
0.0186958 -9.03502e-21 0.015 13.7773
0.0239698 -1.35525e-20 0 1175.93
0.0202842 -2.25875e-21 0.012803 13.1936
-0.02375 1.35525e-20 0.00356873 58.6752
-0.02125 -9.03502e-21 0.011217 35.7611
0.0234374 0 0.00531237 13.4633
0.0112381 0 0.02125 15.4323
0.0212478 -2.71051e-20 0.01125 12.7209
0.0237497 2.71051e-20 0.00374935 15.6997
0.00374987 0 0.02375 16.0712
-0.01125 -9.03502e-21 0.02125 19.7199
-0.00375 0 0.02375 16.4773
0.01973 0 0.01375 13.434
0.0218746 -2.71051e-20 0.00999999 12.4535
0.0240682 -4.51751e-21 0.000292422 1126.86
0.0177688 0 0.01625 14.0443
0.0240659 4.51751e-21 0.000892125 493.842
0.0193366 1.0842e-19 0.014375 13.6221
0.0206155 0 0.0125 13.0601
0.0240638 4.51751e-21 0.00152022 194.517
0.0228123 4.51751e-21 0.00781235 12.393
0.0231248 2.71051e-20 0.00687493 12.6196
0.0224998 0 0.00874988 12.3406
0.0237499 0 0.00437489 14.3867
0.0240626 -4.51751e-21 0.00216353 66.2508
0.0241688 0 0 1176.82
0.0215613 6.77626e-21 0.0109375 12.6191
0.0234374 6.77626e-21 0.00593743 13.0428
0.0221873 -9.03502e-21 0.00968747 12.3849
0.020932 -9.03502e-21 0.0121875 12.9467
0.0240622 2.25875e-21 0.0028038 25.9281
0.02375 2.71051e-20 0.00499997 13.7241
0.0240622 2.25875e-21 0.00343551 16.9777
0.0231249 0 0.00749994 12.4346
0.0218746 0 0.010625 12.5194
0.0228124 6.77626e-21 0.0084374 12.3219
0.0202842 2.25875e-21 0.013447 13.2985
0.0234374 4.51751e-21 0.00656245 12.7261
0.0212478 -2.71051e-20 0.011875 12.8217
0.0224999 2.71051e-20 0.00937497 12.3327
0.0243798 0 0 1178.11
0.0243784 0 0.000584785 823.39
0.0240624 -2.25875e-21 0.00406221 14.8434
0.0243767 2.71051e-20 0.00119964 323.535
0.02375 0 0.00562498 13.2368
0.0206155 -2.71051e-20 0.013125 13.167
0.0243755 0 0.00184134 120.851
0.0215613 4.51751e-21 0.0115625 12.7088
0.0221873 -4.51751e-21 0.0103125 12.4331
0.024375 -2.71051e-20 0.00248644 41.4573
0.0231249 0 0.00812495 12.3224
0.0234375 -4.51751e-21 0.00718746 12.4965
0.0240625 0 0.00468745 14.016
-0.02375 9.03502e-21 0.00608215 24.6758
0.020932 -4.51751e-21 0.0128125 13.0488
0.019893 1.35525e-20 0.014375 13.5156
0.0228124 -4.51751e-21 0.00906245 12.2954
0.00624921 9.03502e-21 0.02375 15.9477
0.02375 0 0.00624999 12.8663
-0.00625 0 0.02375 17.1473
0.0243749 2.71051e-20 0.00312184 20.0972
0.0245911 0 0 1179.22
0.0218746 0 0.01125 12.6019
-0.0225 0 0.00994629 30.6377
0.00999425 1.0842e-19 0.0225 15.5923
0.0224999 0 0.01 12.3566
-0.01 0 0.0225 19.2208
0.0240625 2.25875e-21 0.00531249 13.4506
0.0212478 -2.71051e-20 0.0125 12.9276
0.0243749 0 0.00374963 15.6538
0.0202842 2.25875e-21 0.014053 13.4049
0.0246907 6.77626e-21 0.000292434 1129.78
0.0234375 -2.25875e-21 0.00781247 12.3415
0.0246895 2.25875e-21 0.000892278 493.578
0.0231249 -2.71051e-20 0.00874997 12.2685
0.02375 2.71051e-20 0.00687499 12.5884
0.0180561 0 0.0168985 14.1254
0.0246884 -4.51751e-21 0.00152058 191.921
0.0221873 -4.51751e-21 0.0109375 12.5051
-0.0175 0 0.0175 31.5709
0.024375 0 0.00437498 14.3781
0.0215613 0 0.0121875 12.8138
0.0186958 0 0.01625 13.961
0.0206155 0 0.01375 13.2744
0.0246878 -6.77626e-21 0.00216396 64.5893
0.0228125 2.25875e-21 0.00968749 12.2956
0.0240625 0 0.00593749 13.024
0.01973 -9.03502e-21 0.015 13.6327
0.0247913 2.71051e-20 0 1180.35
0.017578 0 0.0175 14.2554
-0.01875 -3.61401e-20 0.0162494 34.1282
-0.01625 -9.03502e-21 0.01875 29.0075
0.0246875 -1.12938e-20 0.0028042 25.4487
0.0163206 -1.67793e-20 0.01875 14.5618
0.0193366 5.42101e-20 0.015625 13.7895
0.020932 -2.25875e-21 0.0134375 13.1613
0.0225 0 0.010625 12.412
0.024375 -5.42101e-20 0.005 13.7125
0.0218746 0 0.011875 12.6969
0.02375 0 0.00749999 12.3906
0.0234375 -1.12938e-20 0.00843748 12.2549
0.0246875 -4.51751e-21 0.00343578 16.885
0.0240625 -2.25875e-21 0.0065625 12.6984
0.023125 0 0.00937499 12.2508
0.0212478 -2.71051e-20 0.013125 13.0344
0.0149676 0 0.02 14.8546
-0.02 0 0.0149988 35.7642
-0.015 0 0.02 26.2782
-0.025 0 0 183.494
-1.02403e-14 0 0.025 16.6885
0.0250025 0 0 1181.63
0.0250019 2.71051e-20 0.00058479 824.848
0.024375 2.71051e-20 0.005625 13.2168
0.0221873 -4.51751e-21 0.0115625 12.5899
0.0246875 9.03502e-21 0.00406232 14.8256
0.0250009 2.71051e-20 0.0011997 321.815
0.0228125 9.03502e-21 0.0103125 12.3308
0.0202842 -2.25875e-21 0.014697 13.5046
0.0250004 0 0.00184145 118.563
0.0215613 0 0.0128125 12.9168
0.02375 2.71051e-20 0.00812499 12.2634
-0.025 0 0.00233887 118.316
0.0240625 4.51751e-21 0.0071875 12.4577
0.0250001 0 0.00248657 40.4196
0.00249998 -1.0842e-19 0.025 16.4178
-0.0025 0 0.025 17.1083
0.0234375 2.25875e-21 0.00906249 12.2174
0.0246875 -2.25875e-21 0.00468749 14.0042
0.0206155 -2.71051e-20 0.014375 13.3781
0.0225 0 0.01125 12.487
0.024375 -2.71051e-20 0.00625 12.84
0.025 2.71051e-20 0.00312194 19.8636
0.0218746 0 0.0125 12.7992
0.023125 2.71051e-20 0.01 12.2627
0.025214 0 0 1182.76
0.020932 2.25875e-21 0.0140625 13.2631
0.0246875 2.25875e-21 0.0053125 13.4275
-0.02375 -9.03502e-21 0.00865601 25.0755
0.025 0 0.00374969 15.6151
0.019893 2.71051e-20 0.015625 13.7056
0.0137246 0 0.02125 15.1146
0.0228125 -1.807e-20 0.0109375 12.3938
0.0240625 2.25875e-21 0.0078125 12.2901
-0.02125 -9.03502e-21 0.0137433 36.1162
0.0212478 -2.71051e-20 0.01375 13.1418
0.00874659 0 0.02375 15.7842
-0.00875 1.807e-20 0.02375 18.6311
-0.01375 -1.807e-20 0.02125 24.1834
0.02375 0 0.00875 12.1962
0.0221873 -4.51751e-21 0.0121875 12.6876
0.0253141 0 0.000292407 1132.96
0.024375 -2.71051e-20 0.006875 12.5533
0.0253136 -2.25875e-21 0.000892266 493.212
0.025313 -6.77626e-21 0.00152059 189.334
0.0234375 2.25875e-21 0.0096875 12.2092
0.025 2.71051e-20 0.004375 14.3631
0.0246875 -2.25875e-21 0.0059375 12.9979
0.0253127 0 0.00216402 62.9672
0.0215613 4.51751e-21 0.0134375 13.0262
0.0202842 -2.25875e-21 0.015303 13.608
0.0254148 -1.35525e-20 0 1183.89
0.0225 0 0.011875 12.5757
0.023125 -2.71051e-20 0.010625 12.3068
-0.025 0 0.00479858 37.3826
0.0253125 9.03502e-21 0.00280427 24.9957
0.00499976 0 0.025 16.1913
0.0206155 0 0.015 13.483
0.025 2.71051e-20 0.005 13.6905
-0.005 0 0.025 17.8716
0.0240625 1.58113e-20 0.0084375 12.1879
0.024375 -2.71051e-20 0.0075 12.345
0.0218746 0 0.013125 12.9048
0.02375 2.71051e-20 0.009375 12.1698
0.0253125 0 0.00343582 16.8077
0.0246875 4.51751e-21 0.0065625 12.6653
0.01973 0 0.01625 13.8269
0.0180561 -5.42101e-20 0.0181015 14.3274
0.020932 -1.35525e-20 0.0146875 13.3742
0.0228125 9.03502e-21 0.0115625 12.4721
0.0234375 -9.03502e-21 0.0103125 12.2306
0.0186958 -4.51751e-21 0.0175 14.1575
0.0221873 -4.51751e-21 0.0128125 12.7897
0.025 -2.71051e-20 0.005625 13.1874
0.0256262 -2.71051e-20 0 1185.11
0.0256259 -2.71051e-20 0.00058477 826.268
0.0253125 -4.51751e-21 0.00406234 14.8068
0.0256255 0 0.0011997 320.031
0.0212478 -2.71051e-20 0.014375 13.2498
0.0193366 0 0.016875 13.9968
0.0256252 0 0.00184145 116.27
0.024375 -2.71051e-20 0.008125 12.2047
0.0246875 1.35525e-20 0.0071875 12.4158
0.0240625 -6.77626e-21 0.0090625 12.14
0.023125 -2.71051e-20 0.01125 12.3742
0.012481 -1.0842e-19 0.0225 15.3418
-0.0225 0 0.0124878 33.4973
0.0225 0 0.0125 12.6738
-0.0125 0 0.0225 22.7702
0.0215613 0 0.0140625 13.1319
0.0253125 -1.12938e-20 0.0046875 13.9819
0.025625 0 0.00248658 39.4204
0.02375 -2.71051e-20 0.01 12.1713
0.025 -2.71051e-20 0.00625 12.8068
0.0202842 2.25875e-21 0.015947 13.7016
0.025625 -2.71051e-20 0.00312195 19.6581
0.0177688 -9.03502e-21 0.01875 14.4137
0.0218746 0 0.01375 13.0127
0.0258379 2.71051e-20 0 1186.22
0.0228125 4.51751e-21 0.0121875 12.5638
0.0234375 4.51751e-21 0.0109375 12.2848
0.0253125 0 0.0053125 13.3951
0.0206155 -2.71051e-20 0.015625 13.5842
0.0246875 1.35525e-20 0.0078125 12.2382
0.025625 -2.71051e-20 0.00374969 15.5841
0.024375 -2.71051e-20 0.00875 12.1247
0.025 -2.71051e-20 0.006875 12.5138
0.020932 0 0.0153125 13.4749
0.0221873 -9.03502e-21 0.0134375 12.8969
0.0240625 0 0.0096875 12.1248
0.0259383 6.77626e-21 0.000292389 1136.12
0.025938 4.51751e-21 0.000892236 492.686
0.0259377 -2.25875e-21 0.00152057 186.65
0.023125 -2.71051e-20 0.011875 12.4563
0.025625 -2.71051e-20 0.004375 14.3434
0.0253125 -4.51751e-21 0.0059375 12.9629
0.0212478 -2.71051e-20 0.015 13.3571
0.02375 -2.71051e-20 0.010625 12.2041
0.0259376 0 0.00216402 61.3417
-0.026038 0 0 180.082
0.0260389 -1.35525e-20 0 1187.34
0.0225 0 0.013125 12.7777
-0.025 0 0.00736572 22.9507
0.019893 1.35525e-20 0.016875 13.9079
0.0215613 -4.51751e-21 0.0146875 13.2432
0.0259375 4.51751e-21 0.00280426 24.5782
0.0246875 -1.35525e-20 0.0084375 12.1227
0.00749863 0 0.025 15.9688
0.025 -2.71051e-20 0.0075 12.2973
-0.0075 0 0.025 19.2352
0.025625 -2.71051e-20 0.005 13.6591
0.024375 -2.71051e-20 0.009375 12.0898
0.0234375 4.51751e-21 0.0115625 12.3561
0.0253125 -9.03502e-21 0.0065625 12.6262
0.0259375 -9.03502e-21 0.00343582 16.7482
0.0228125 -4.51751e-21 0.0128125 12.6633
0.0218746 0 0.014375 13.1223
0.0240625 9.03502e-21 0.0103125 12.1338
0.0202842 2.25875e-21 0.016553 13.8127
0.025625 -2.71051e-20 0.005625 13.1486
0.0206155 0 0.01625 13.6895
0.0262505 0 0 1188.59
0.0259375 -9.03502e-21 0.00406235 14.7895
0.0262505 0 0.00058475 827.641
-0.02375 0 0.011217 29.9162
0.0221873 -9.03502e-21 0.0140625 13.005
0.0112381 -9.03502e-21 0.02375 15.5513
-0.02625 2.71051e-20 0.00116943 174.748
0.0262503 0 0.00119968 318.173
0.00124999 0 0.02625 16.9189
0.02375 -2.71051e-20 0.01125 12.2635
-0.01125 1.807e-20 0.02375 21.6073