# p  POINT_DATA 43176
# x  y  z  p
6.77626e-21 0.000951594 0 0.087417
0 0.000952378 6.05115e-05 0.0874173
1.35525e-20 0.00101666 0 0.0874309
6.77626e-21 0.00108259 0 0.0874452
1.35525e-20 0.00108205 6.12824e-05 0.0874452
1.0842e-19 -0.000230001 0.00117134 0.0871651
6.77626e-21 -0.00142666 0 0.0868956
6.77626e-21 -0.001427 4.90487e-05 0.0868957
6.77626e-21 -0.00147935 0 0.0868837
0 -0.00153146 0 0.0868726
0 -0.00153095 4.85233e-05 0.0868728
0 0.00226609 0.00117164 0.0876998
2.25875e-21 0.00102252 0.00234126 0.0873369
2.25875e-21 -0.00147475 0.00234099 0.0868231
0 -0.00272686 0.00117106 0.086605
0 0.00343106 0 0.0879397
1.35525e-20 0.00343226 7.48638e-05 0.0879401
1.35525e-20 0.00351169 0 0.0879568
1.0842e-19 -0.000223755 0.00357153 0.0870059
-1.35525e-20 0.00359276 7.59703e-05 0.0879741
-1.35525e-20 0.00359358 0 0.0879741
-6.77626e-21 -0.00393441 0 0.0863142
0 -0.00393462 3.89347e-05 0.0863142
0 -0.00397618 0 0.0863039
-6.77626e-21 -0.00401725 3.85806e-05 0.086295
-6.77626e-21 -0.00401757 0 0.0862949
4.51751e-21 0.00351914 0.00234148 0.0878274
0 0.00227377 0.00357189 0.0874711
0 -0.00272176 0.00357118 0.0865123
-5.64689e-22 -0.00397255 0.00234072 0.0862787
-2.1684e-19 0.00476133 0.00117192 0.0882176
0 0.00102955 0.00480054 0.0866584
-5.64689e-22 -0.00146894 0.00480032 0.0862357
-1.0842e-19 -0.00522433 0.0011708 0.0860052
0 0.00590658 0 0.088444
1.35525e-20 0.0059084 9.18337e-05 0.0884446
5.64689e-22 0.00352769 0.00480072 0.0870805
0 0.0047708 0.00357214 0.0879139
-1.35525e-20 0.00600567 0 0.0884644
-1.0842e-19 -0.000217791 0.00608418 0.0858799
-1.35525e-20 0.00610537 9.33789e-05 0.0884847
1.35525e-20 0.00610661 0 0.0884847
0 -0.00396773 0.00480011 0.0858046
0 -0.00522013 0.00357084 0.0859902
0 -0.00644084 0 0.0856949
0 -0.00644097 3.05957e-05 0.0856949
0 0.00601513 0.00234156 0.0882981
-6.77626e-21 -0.00647363 0 0.085686
0 0.00228097 0.00608442 0.0862541
0 -0.00650597 3.03603e-05 0.0856785
0 -0.00650617 0 0.0856784
0 -0.00271679 0.00608392 0.0855251
-1.12938e-21 -0.00647075 0.00234045 0.0857012
0 0.00725575 0.00117208 0.0887157
8.47033e-22 0.00103463 0.00736665 0.0854545
8.47033e-22 -0.00146474 0.00736653 0.085074
0 0.00602547 0.00480075 0.0875074
-2.1684e-19 0.0047795 0.00608458 0.0866577
0 -0.00772224 0.00117057 0.0853687
1.0842e-19 -0.00521598 0.00608368 0.0851745
-2.82344e-22 -0.00646674 0.0047999 0.0853559
0 0.00726737 0.00357211 0.0883364
-5.64689e-22 0.00353384 0.00736675 0.085868
0 -0.00396424 0.00736643 0.0847192
0 0.0083778 0 0.0889249
0 0.00838051 0.000111807 0.0889258
-1.35525e-20 0.00849876 0 0.0889491
0 -0.00771879 0.00357053 0.08544
0 0.00862057 0.000113948 0.0889714
1.35525e-20 0.00862241 0 0.0889713
0 -0.000214113 0.00865697 0.0846297
2.25875e-21 0.00851059 0.00234127 0.0887485
-3.38813e-21 -0.0089461 0 0.085047
-3.38813e-21 -0.00894617 2.37524e-05 0.085047
-2.1684e-19 0.00228541 0.0086571 0.0850469
-3.38813e-21 -0.00897154 0 0.0850399
0 -0.00899669 2.35989e-05 0.0850334
0 -0.00899681 0 0.0850333
-2.1684e-19 -0.00271373 0.00865684 0.0842543
2.25875e-21 -0.00896926 0.00234021 0.0850964
-1.0842e-19 0.00727782 0.00608447 0.0870946
2.82344e-22 0.00603292 0.00736677 0.0863172
2.25875e-21 0.00852298 0.0048004 0.0879427
-1.41172e-22 -0.00646384 0.00736632 0.0843772
-2.1684e-19 0.00974959 0.00117197 0.0891864
-1.0842e-19 -0.00771532 0.00608345 0.0848059
0 0.00478485 0.00865718 0.0855055
7.75035e-20 0.00103451 0.00994923 0.084287
-7.41154e-20 -0.00146477 0.00994448 0.083878
-2.1684e-19 -0.00521343 0.00865671 0.0839167
-2.82344e-22 -0.00896592 0.00479971 0.0848802
0 -0.0102205 0.00117037 0.084712
0 0.00976367 0.00357144 0.0887441
7.24213e-20 0.0035336 0.00994335 0.08474
0 0.00354007 0.00994334 0.0847391
5.14573e-20 -0.00396419 0.00994489 0.0835115
1.0842e-19 -0.0102177 0.00357025 0.0848657
0 0.0108441 0 0.0893895
0 0.0108481 0.000135646 0.0893907
0 0.0109914 0 0.0894207
0 0.01114 0.000138658 0.0894463
-2.71051e-20 0.0111428 0 0.0894462
0 -0.000212546 0.0112174 0.0835152
-9.03502e-21 0.0110059 0.00234034 0.0891916
5.64689e-22 0.00853188 0.00736656 0.0868029
0 0.00728421 0.00865713 0.0860028
1.0842e-19 0.00228732 0.0112174 0.0839596
0 -0.0114503 0 0.0843873
0 -0.0114503 1.81853e-05 0.0843873
0 -0.0114698 0 0.084382
3.38813e-21 -0.011489 1.80881e-05 0.0843766
0 -0.0114891 0 0.0843766
1.0842e-19 0.00977602 0.00608381 0.0875679
1.0842e-19 -0.00271244 0.0112173 0.0831164
-1.0842e-19 -0.00771318 0.0086566 0.0836064
4.23516e-22 -0.00895974 0.00736235 0.0840331
4.23516e-22 -0.00896729 0.00736236 0.0840299
9.31736e-21 0.00603252 0.00994255 0.0852342
0 0.00604059 0.00994254 0.0852332
2.82344e-22 -0.011468 0.00234 0.0844731
7.05155e-20 -0.00646371 0.00994772 0.0831836
2.1684e-19 -0.0102148 0.00608326 0.0843994
-1.12938e-21 0.0110204 0.0047994 0.088398
2.1684e-19 0.00478716 0.0112174 0.0844483
0 0.0122435 0.00117144 0.0896565
0 -0.00521236 0.0112172 0.0827628
5.64689e-22 -0.0114652 0.00479955 0.0843688
-2.37169e-20 0.00103742 0.0124875 0.0832756
9.53971e-20 -0.00146246 0.0124882 0.0828527
0 0.01226 0.00356989 0.0891651
0 -0.012719 0.0011702 0.0840521
8.35386e-20 0.00353726 0.0124884 0.0837461
-1.0842e-19 0.00978349 0.0086568 0.086538
1.20596e-19 -0.00396235 0.0124875 0.082478
1.41172e-22 0.00853624 0.00994662 0.085768
0 -0.0127167 0.00357001 0.0842647
5.64689e-22 0.0110308 0.00736595 0.0873286
0 0.0133043 0 0.0898717
0 0.0133101 0.00016476 0.0898736
1.0842e-19 0.00728695 0.0112174 0.0849799
-1.05879e-22 -0.00896334 0.00994548 0.0828857
1.0842e-19 -0.010213 0.0086565 0.0833063
2.71051e-20 0.0134843 0 0.0899177
0 -0.00771229 0.0112172 0.082453
4.23516e-20 -0.0114661 0.00736317 0.0836598
-2.71051e-20 0.0136661 0.000169324 0.0899524
-2.71051e-20 0.0136704 0 0.0899525
-1.0842e-19 0.0122743 0.00608241 0.0880865
0 0.0135014 0.00233865 0.0896597
-1.0842e-19 -0.000212091 0.0137434 0.0825905
8.49151e-20 0.00603705 0.0124872 0.0842632
0 0.00228788 0.0137434 0.0830401
0 -0.0139536 0 0.083726
-1.69407e-21 -0.0139536 1.37177e-05 0.083726
0 -0.0139682 0 0.0837221
0 -0.0139828 1.36577e-05 0.0837181
0 -0.0139828 0 0.0837181
0 -0.00271207 0.0137433 0.0821917
8.63709e-20 -0.00646227 0.0124876 0.0821513
0 -0.0127143 0.00608309 0.083938
-2.82344e-22 -0.0139669 0.00233981 0.0838336
6.77626e-21 0.0135179 0.00479763 0.0888881
0 0.00478783 0.0137434 0.0835395
2.1684e-19 -0.00521206 0.0137433 0.0818442
0 -0.0139646 0.0047994 0.0838115
-1.0842e-19 0.0147376 0.00117073 0.0901759
8.47033e-22 0.0110359 0.00994643 0.086343
1.0842e-19 0.00978668 0.0112174 0.0855536
0 0.0122827 0.00865616 0.0871138
3.23725e-20 0.00103796 0.0149988 0.0824715
1.40363e-19 -0.00146203 0.0149988 0.0820521
1.05879e-22 0.00853678 0.012487 0.0848258
1.0842e-19 -0.0102122 0.0112172 0.0821815
-1.25255e-19 -0.011463 0.00994715 0.0826029
0 0.0147565 0.00356775 0.0896231
-1.0842e-19 -0.0152176 0.00117005 0.0833921
-1.24937e-20 -0.0089622 0.0124877 0.0818708
-1.0842e-19 -0.0127128 0.00865642 0.0829917
5.64689e-22 0.0135297 0.00736494 0.0878964
1.54206e-19 0.00353794 0.0149988 0.0829441
3.20185e-20 -0.00396203 0.0149988 0.0816864
-1.0842e-19 0.00728776 0.0137434 0.084088
0 -0.0152158 0.00356979 0.0836284
0 0.0157567 0 0.0903849
2.1684e-19 -0.00771205 0.0137433 0.0815484
0 0.0157653 0.000200597 0.0903876
-1.25784e-19 -0.0139652 0.00736838 0.0832437
1.0842e-19 0.0147725 0.00608051 0.0886487
-2.71051e-20 0.0159775 0 0.0904464
-4.51751e-21 0.0159972 0.00233633 0.0901593
6.61744e-24 0.00603803 0.0149987 0.0834693
-2.71051e-20 0.0162004 0.000207421 0.0904879
-2.71051e-20 0.0162074 0 0.0904886
1.0842e-19 -0.000212011 0.0162494 0.0819067
3.1466e-20 -0.00646202 0.0149988 0.0813753
0 -0.0152138 0.00608293 0.0834097
1.0842e-19 0.00228798 0.0162494 0.0823494
-1.69407e-21 -0.016456 0 0.0830599
-1.69407e-21 -0.016456 1.01993e-05 0.0830599
-1.69407e-21 -0.0164669 0 0.083057
-1.0842e-19 -0.00271201 0.0162494 0.0815201
0 -0.0164778 1.01638e-05 0.083054
-1.69407e-21 -0.0164778 0 0.083054
-2.82344e-22 -0.0164659 0.00233964 0.0831722
-2.1684e-19 0.0122863 0.0112172 0.0861691
2.13876e-20 0.0110365 0.0124868 0.0854326
4.51751e-21 0.0160154 0.00479528 0.0894134
1.41172e-22 0.0135355 0.00994611 0.0869585
-1.0842e-19 0.00978761 0.0137434 0.0846842
0 0.00478796 0.0162494 0.0828481
9.40604e-20 -0.0114622 0.0124877 0.0816308
-1.0842e-19 -0.0127122 0.0112171 0.0819366
0 -0.005212 0.0162494 0.0811905
1.0842e-19 -0.010212 0.0137433 0.0813034
1.0842e-19 0.0147819 0.00865531 0.0877283
1.35525e-19 -0.0139628 0.00994585 0.082313
0 -0.0164641 0.00479927 0.0831994
0 0.00853784 0.0149987 0.084046
-1.0842e-19 0.0172319 0.0011701 0.0907055
2.5861e-20 -0.00896199 0.0149988 0.0811191
0 -0.0152126 0.00865635 0.0826324
7.78528e-20 0.001038 0.0175 0.0819262
1.20623e-19 -0.001462 0.0175 0.0815168
1.0842e-19 0.017253 0.0035653 0.0901099
0 0.0160286 0.00736361 0.0885011
0 -0.0177165 0.00116993 0.0827218
1.0842e-19 0.0072879 0.0162494 0.0834021
-7.22278e-20 0.003538 0.0175 0.0823943
1.11741e-19 -0.003962 0.0175 0.0811668
1.0842e-19 -0.007712 0.0162494 0.0809186
1.3129e-19 -0.0164645 0.0073643 0.0827627
-1.0842e-19 -0.0177151 0.00356961 0.0829497
-2.71051e-20 0.0182028 0 0.0908939
-2.71051e-20 0.0182155 0.000241221 0.0908974
0 0.0172707 0.00607818 0.0892433
-1.14138e-19 0.013536 0.0124864 0.0860826
1.0842e-19 0.0122874 0.0137434 0.0853263
2.71051e-20 0.0184707 0 0.0909623
5.42854e-20 0.00603798 0.0175 0.0829205
-2.1684e-19 0.0147859 0.011217 0.086825
0 0.0110381 0.0149986 0.0846725
0 0.0184934 0.00233259 0.0906738
7.03336e-20 -0.006462 0.0175 0.0808772
1.0842e-19 -0.012712 0.0137433 0.0811047
1.0842e-19 -0.0177135 0.0060828 0.0828064
-1.85818e-20 -0.0139621 0.0124877 0.0814193
-2.71051e-20 0.0187394 0.000249081 0.0910071
2.71051e-20 0.0187499 0 0.0910082
0 -0.000212006 0.01875 0.0815068
-5.64689e-22 0.016035 0.00994571 0.0876113
-5.58926e-21 -0.011462 0.0149988 0.0809171
1.0842e-19 0.00228798 0.01875 0.0819418
1.0842e-19 -0.0152122 0.0112171 0.081696
1.0842e-19 -0.002712 0.01875 0.0811336
0 -0.0189578 0 0.0823779
0 -0.0189578 7.48767e-06 0.0823779
0 -0.0189658 0 0.0823757
2.1684e-19 0.00978778 0.0162494 0.0840103
0 -0.0189738 7.46722e-06 0.0823736
-1.69407e-21 -0.0189738 0 0.0823735
-4.23516e-22 -0.0189651 0.0023395 0.0824811
-9.03502e-21 0.0185135 0.0047916 0.0899781
-1.0842e-19 -0.010212 0.0162494 0.0807067
2.60463e-20 -0.0164626 0.00994597 0.0819886
0 0.0172808 0.0086543 0.088376
0 0.00478797 0.01875 0.0824378
1.0842e-19 -0.005212 0.01875 0.0808231
0 0.00853794 0.0175 0.0835037
1.69407e-20 -0.0189602 0.00479567 0.0825287
-4.23516e-22 -0.0189672 0.00479567 0.0825271
1.58078e-19 -0.008962 0.0175 0.0806496
1.0842e-19 -0.0177125 0.00865629 0.0822004
-1.0842e-19 0.0197268 0.0011683 0.0912045
-3.38813e-21 0.0185276 0.00736167 0.0891423
0 0.001038 0.02 0.0816826
1.47606e-20 -0.001462 0.02 0.0812813
0 0.0197514 0.00356002 0.090649
0 0.00728791 0.01875 0.082994
-2.1684e-19 0.0147871 0.0137433 0.0860123
2.64698e-23 0.013538 0.0149986 0.0853465
-2.1684e-19 -0.0202155 0.00116983 0.0820296
1.0842e-19 -0.007712 0.01875 0.0805767
-1.57772e-30 0.003538 0.02 0.0821478
-1.86347e-20 0.016039 0.0124859 0.0867727
7.26331e-20 -0.0189639 0.00736469 0.0822021
1.0842e-19 0.0122876 0.0162494 0.0846697
3.28979e-21 -0.003962 0.02 0.080945
-2.81134e-20 -0.013962 0.0149988 0.080765
0 -0.015212 0.0137433 0.0809429
-1.0842e-19 -0.0202144 0.00356944 0.0822264
-1.0842e-19 0.0172851 0.0112168 0.0875178
1.0842e-19 -0.012712 0.0162494 0.0805542
2.71051e-20 0.0206492 0 0.0914267
-1.4792e-19 -0.0164621 0.0124879 0.0812163
0 0.0206673 0.000280665 0.091432
0 0.0197697 0.00607424 0.0898834
5.9557e-22 0.0110378 0.0174999 0.0841418
0 0.006038 0.02 0.0826758
-6.1939e-20 -0.011462 0.0175 0.0804849
-5.42101e-20 0.0209637 0 0.09151
-2.1684e-19 -0.0177121 0.0112171 0.0814297
3.28979e-21 -0.006462 0.02 0.0806748
-2.82344e-22 0.0185343 0.00994519 0.0882988
0 -0.0202132 0.00608269 0.0821248
-9.03502e-21 0.0209903 0.00232545 0.091247
0 0.00978779 0.01875 0.0836085
0 -0.000212006 0.02125 0.0814248
2.71051e-20 0.0212775 0.000287875 0.0915964
-2.71051e-20 0.0212916 0 0.0915996
0 -0.010212 0.01875 0.0803961
-1.0842e-19 0.00228798 0.02125 0.0818568
5.41042e-20 -0.0189619 0.00994606 0.0816012
-1.0842e-19 -0.002712 0.02125 0.0810599
8.47033e-22 -0.0214591 5.43834e-06 0.0816705
8.47033e-22 -0.0214707 0 0.0816677
0 0.0210123 0.00478532 0.090601
0 0.0197796 0.008653 0.0890593
-1.41172e-22 -0.0214644 0.00233938 0.0817558
6.61744e-24 0.00853794 0.02 0.0832649
0 0.00478797 0.02125 0.0823547
1.0842e-19 -0.005212 0.02125 0.0807633
-9.67102e-20 -0.008962 0.02 0.0804717
-5.29396e-23 0.016038 0.0149984 0.0860644
1.0842e-19 0.0147873 0.0162494 0.085378
-1.0842e-19 -0.0202124 0.00865623 0.0816752
5.12455e-20 -0.0214607 0.00479643 0.081796
-1.0842e-19 0.0172864 0.0137433 0.0867379
-5.2119e-20 0.0135377 0.0174999 0.084832
0 0.0222219 0.00116339 0.0918274
1.0842e-19 -0.015212 0.0162494 0.080459
-3.67355e-20 -0.016462 0.0149988 0.0806526
-1.12938e-21 0.0210266 0.00735887 0.0898229
-1.28749e-19 0.0185339 0.012485 0.0874987
0 -0.013962 0.0175 0.0803827
-1.0842e-19 0.0122876 0.01875 0.0842786
1.0842e-19 -0.017712 0.0137433 0.0807993
0 0.00728791 0.02125 0.0829167
-5.3507e-20 0.001038 0.0225 0.0817769
-2.1684e-19 0.0222501 0.00355028 0.09128
1.47606e-20 -0.001462 0.0225 0.0813755
0 -0.007712 0.02125 0.0805359
0 -0.012712 0.01875 0.0802824
7.7927e-20 -0.0214634 0.00736691 0.081556
-3.63298e-21 -0.018962 0.0124878 0.0809938
-1.0842e-19 0.0197839 0.0112166 0.088244
1.0842e-19 -0.0227147 0.00116974 0.0813089
-5.80944e-20 0.003538 0.0225 0.0822453
-4.37413e-20 0.011038 0.0199999 0.0839123
-3.54881e-20 -0.003962 0.0225 0.0810425
-1.0842e-19 -0.0227139 0.00356931 0.0814608
3.28979e-21 -0.011462 0.02 0.0803366
-2.1684e-19 0.0222687 0.00606848 0.0905682
0 0.0230907 0 0.0920589
1.0842e-19 -0.0202121 0.0112171 0.0811028
0 0.0231152 0.000321554 0.0920656
1.12938e-21 0.0210335 0.00994459 0.0890191
-7.02516e-20 0.00603798 0.0225 0.082779
-1.0842e-19 0.00978779 0.02125 0.0835402
3.28979e-21 -0.006462 0.0225 0.0807786
-5.42101e-20 0.0234563 0 0.0921506
1.0842e-19 -0.0227129 0.00608259 0.0813701
0 -0.010212 0.02125 0.0803781
4.51751e-21 0.0234867 0.00231572 0.0918924
-1.58183e-19 -0.0214623 0.00994613 0.0811298
1.0842e-19 0.0172867 0.0162494 0.0861296
1.11491e-19 0.0160373 0.0175003 0.0855703
1.0842e-19 -0.000212006 0.02375 0.0816936
0 0.0238222 0.000334698 0.0922798
1.25043e-19 0.0185361 0.0149979 0.0868207
2.71051e-20 0.0238446 0 0.0922874
-1.0842e-19 0.00228798 0.02375 0.0821322
1.0842e-19 0.0147874 0.01875 0.0850015
0 0.0222784 0.00865156 0.0897751
-1.0842e-19 -0.002712 0.02375 0.0813236
0 -0.02396 3.91345e-06 0.0809354
-4.51751e-21 0.0235099 0.00477762 0.09126
-9.67102e-20 -0.016462 0.0175 0.0803378
2.1684e-19 -0.017712 0.0162494 0.0804095
6.61744e-24 0.00853794 0.0225 0.0833755
0 -0.0239602 0.00233583 0.080999
3.38813e-20 -0.0239674 0.00234276 0.0809979
-1.0842e-19 0.0197854 0.0137433 0.0874972
0 -0.015212 0.01875 0.0802352
-3.35372e-20 0.0135377 0.0199999 0.0846149
-1.74279e-20 -0.018962 0.0149988 0.0805599
8.08456e-20 -0.008962 0.0225 0.0805838
0 0.00478797 0.02375 0.0826375
1.0842e-19 -0.0227123 0.00865619 0.0810528
-1.0842e-19 -0.005212 0.02375 0.0810231
-1.91544e-20 -0.013962 0.02 0.0802688
1.39337e-19 -0.0239649 0.00479702 0.0810131
2.1684e-19 -0.020212 0.0137433 0.0806455
3.854e-20 0.0210324 0.0124842 0.0882565
-6.77626e-21 0.0210325 0.0124911 0.0882567
1.0842e-19 0.0122876 0.02125 0.0842219
2.25875e-21 0.0235251 0.00735571 0.0905268
2.1684e-19 0.0247144 0.00115991 0.0925145
0 -0.012712 0.02125 0.0802897
2.65062e-20 -0.021462 0.0124878 0.0807214
0 0.00728791 0.02375 0.0832072
-1.0842e-19 0.0222828 0.0112165 0.0890004
0 -0.007712 0.02375 0.0807921
0 0.024745 0.00354107 0.0919189
5.82295e-20 0.001038 0.025 0.0821987
5.35381e-20 -0.001462 0.025 0.0817875
-2.4339e-20 0.0110378 0.0224999 0.0840314
-6.52215e-20 -0.0239631 0.00736519 0.0808315
0 -0.025214 0.00116967 0.0805618
-4.17705e-20 0.003538 0.025 0.0826756
-1.91544e-20 -0.011462 0.0225 0.0804573
3.28979e-21 -0.003962 0.025 0.0814429
0 -0.0227121 0.0112171 0.0806905
1.0842e-19 -0.0252134 0.00356919 0.0806627
1.11173e-19 0.0185364 0.0174993 0.0863507
0 0.0247657 0.00606274 0.0912531
0 0.0172867 0.01875 0.0857718
0 0.0255124 0 0.0926718
1.12938e-21 0.0235324 0.00994397 0.0897646
5.42101e-20 0.0255491 0.000373423 0.0926775
-1.0842e-19 0.0197856 0.0162494 0.0869182
1.11491e-19 0.0160373 0.0199997 0.0853679
0 0.00978779 0.02375 0.0838378
-7.02541e-20 0.00603798 0.025 0.0832163
0 -0.017712 0.01875 0.0802473
-4.93547e-20 -0.018962 0.0175 0.0803364
3.28979e-21 -0.006462 0.025 0.0811647
3.55754e-20 0.0210351 0.0149975 0.0876106
1.0842e-19 -0.010212 0.02375 0.0806292
2.1684e-19 0.0147874 0.02125 0.0849573
-1.91544e-20 -0.016462 0.02 0.0802641
0 -0.020212 0.0162494 0.0803857
0 -0.0252127 0.0060825 0.0805571
7.12566e-20 -0.0239623 0.00994618 0.0805675
0 0.0259495 0 0.0927326
-2.71051e-20 0.0259804 0.00230532 0.0925033
0 -0.015212 0.02125 0.080268
-1.0842e-19 0.0222843 0.0137433 0.0882872
5.68163e-20 -0.021462 0.0149988 0.0804586
0 0.0247764 0.00865012 0.0905064
-1.0842e-19 -0.000212006 0.02625 0.0822594
-3.35372e-20 0.0135377 0.0224999 0.0847425
1.0842e-19 0.00228798 0.02625 0.0827096
5.42101e-20 0.0263739 0.000391789 0.0928292
-1.0842e-19 -0.002712 0.02625 0.0818734
5.42101e-20 0.0264109 0 0.0928371
8.2321e-21 0.00853794 0.025 0.0838177
0 0.0260059 0.00476911 0.0919267
0 -0.0264606 2.79231e-06 0.0801808
5.84013e-20 -0.013962 0.0225 0.0803959
0 -0.022712 0.0137433 0.0804482
3.28979e-21 -0.008962 0.025 0.0809516
5.59042e-20 -0.0264607 0.00234175 0.0802168
-2.20229e-20 0.0235308 0.0124833 0.0890415
2.5411e-21 0.0235308 0.0124918 0.0890418
1.0842e-19 -0.0252122 0.00865616 0.0803454
0 0.00478797 0.02625 0.0832231
0 0.0122876 0.02375 0.0845257
1.0842e-19 -0.005212 0.02625 0.0815514
-9.21148e-20 -0.0264613 0.00479744 0.0801937
0 -0.012712 0.02375 0.080532
-2.75848e-20 -0.023962 0.0124878 0.0803746
1.12938e-21 0.0260223 0.00735219 0.0912431
-2.1684e-19 0.0247812 0.0112164 0.0897791
0 0.0272032 0.00115759 0.0929867
0 0.00728791 0.02625 0.0837972
1.0842e-19 0.0197857 0.01875 0.0865829
-1.43996e-20 0.0185378 0.0199993 0.0861654
-4.37413e-20 0.011038 0.0249999 0.0844763
1.0842e-19 -0.007712 0.02625 0.0812922
-6.35275e-21 0.0210376 0.0174989 0.0871676
-1.0842e-19 0.0172867 0.02125 0.0857408
1.0842e-19 0.0272397 0.00352904 0.0925612
8.34327e-20 -0.0264628 0.00736639 0.0800478
-9.67102e-20 -0.011462 0.025 0.0808006
-3.71772e-20 0.001038 0.0275 0.0828618
1.47606e-20 -0.001462 0.0275 0.0824318
8.08456e-20 -0.018962 0.02 0.0803101
0 -0.020212 0.01875 0.0803031
-1.0842e-19 0.0222846 0.0162494 0.0877397
-1.0842e-19 -0.025212 0.0112171 0.0801826
3.12343e-20 0.0160379 0.0224997 0.0855034
-1.0842e-19 -0.017712 0.02125 0.0803057
1.39773e-19 -0.021462 0.0175 0.0803541
3.57788e-20 0.003538 0.0275 0.0833518
1.0842e-19 -0.0277135 0.00116961 0.0797997
-3.54881e-20 -0.003962 0.0275 0.0820614
-5.64689e-22 0.0260298 0.00994338 0.0905275
5.84013e-20 -0.016462 0.0225 0.0803929
1.49925e-19 0.0235338 0.014997 0.0884293
0 0.0272619 0.0060552 0.091956
0 -0.022712 0.0162494 0.0803551
0 0.0279286 0 0.0931337
1.0842e-19 -0.0277131 0.00356909 0.0798437
0 0.0147874 0.02375 0.085265
5.42101e-20 0.0279823 0.000421403 0.0931435
0 0.00978779 0.02625 0.0844286
-7.02533e-20 0.00603798 0.0275 0.0839004
0 -0.010212 0.02625 0.0810928
0 -0.015212 0.02375 0.0804939
-6.35958e-21 -0.006462 0.0275 0.0817492
1.47595e-20 -0.023962 0.0149988 0.0803152
1.08354e-19 -0.0264622 0.00994621 0.0799241
1.0842e-19 0.0247828 0.0137434 0.0891024
0 -0.0277125 0.00608242 0.0797092
5.42101e-20 0.0284251 0 0.0931489
-3.35372e-20 0.0135377 0.0249999 0.0851872
1.35525e-20 0.0284741 0.00227875 0.0930736
1.0842e-19 0.0272718 0.00864862 0.091253
-1.91544e-20 -0.013962 0.025 0.0807062
0 -0.025212 0.0137433 0.0801774
1.0842e-19 -0.000212016 0.0287506 0.0830042
6.61744e-24 0.00853794 0.0275 0.0845048
0 0.00228797 0.0287506 0.0834741
5.64689e-22 0.0260327 0.0124876 0.0898472
0 -0.00271201 0.0287506 0.0825901
4.51751e-21 0.0285046 0.00475129 0.0926297
-5.42101e-20 0.0288977 0.000401716 0.0932723
-3.54881e-20 -0.008962 0.0275 0.0814927
0 0.0289345 0 0.0932751
0 -0.0289611 1.97592e-06 0.0794206
-1.0842e-19 0.0122876 0.02625 0.085113
8.99973e-20 0.0210354 0.0199989 0.0870009
-1.0842e-19 -0.0277122 0.00865612 0.0795789
1.0842e-19 0.0197857 0.02125 0.0865658
1.82112e-20 -0.0289611 0.00234099 0.0794272
1.0842e-19 0.0222847 0.01875 0.087429
2.1684e-19 0.00478795 0.0287506 0.0840004
-1.47172e-20 0.0185378 0.0224993 0.0863082
-1.0842e-19 -0.012712 0.02625 0.0809483
0 -0.00521201 0.0287506 0.0822306
-1.02157e-19 -0.026462 0.0124878 0.0799417
-9.06325e-20 0.0235342 0.0174985 0.0880151
0 -0.020212 0.02125 0.0803842
-1.91544e-20 -0.021462 0.02 0.0803838
-1.71524e-20 -0.0289615 0.00479776 0.0793589
-1.0842e-19 0.0172867 0.02375 0.0860503
1.58401e-19 -0.018962 0.0225 0.0804341
6.77626e-21 0.0285183 0.00734773 0.0919849
0 -0.022712 0.01875 0.0803723
-1.0842e-19 0.0272766 0.0112163 0.090574
1.0842e-19 -0.017712 0.02375 0.0805039
-4.37413e-20 0.011038 0.0274999 0.0851614
2.1684e-19 0.0247831 0.0162494 0.0885881
1.0842e-19 0.0072879 0.0287506 0.0845808
3.97735e-20 -0.023962 0.0175 0.0803555
1.11544e-19 0.0160373 0.0249997 0.0859453
1.0842e-19 0.0297038 0.00111931 0.0934393
0 -0.007712 0.0287506 0.0819228
-1.57772e-30 -0.011462 0.0275 0.0812872
4.61633e-20 -0.0289626 0.00736544 0.0792325
0 -0.027712 0.0112171 0.0795896
-1.91544e-20 -0.016462 0.025 0.0806587
1.0842e-19 0.0297515 0.00348068 0.0932873
-1.0842e-19 -0.025212 0.0162494 0.0802799
5.43028e-20 0.00103803 0.0300012 0.0836376
3.21806e-20 -0.00146206 0.0300012 0.0831785
-5.75982e-20 0.0260294 0.0149949 0.0892694
0 0.0260372 0.0149948 0.0892702
-1.0842e-19 0.0147874 0.02625 0.0858451
-5.64689e-22 0.0285254 0.00994287 0.0913066
6.41363e-20 0.00353804 0.0300011 0.0841478
-1.0842e-19 -0.0302131 0.00116957 0.0790415
5.05937e-20 -0.00396204 0.0300012 0.0827694
0 -0.015212 0.02625 0.0808505
-1.0842e-19 0.0297582 0.00604461 0.0927081
-1.0842e-19 0.00978777 0.0287506 0.0852125
0 0.0304053 0 0.0936612
-6.73505e-20 -0.026462 0.0149988 0.0800994
1.0842e-19 -0.0302128 0.00356901 0.0790241
0 0.0304496 0.000427148 0.0936801
0 -0.010212 0.0287506 0.081663
-1.0842e-19 0.0272782 0.0137434 0.0899347
-1.2454e-20 0.00603789 0.0300011 0.0847087
-1.43069e-20 -0.0289621 0.00994623 0.0792226
-2.65492e-20 0.0135379 0.0274999 0.0858655
5.91434e-20 -0.00646203 0.0300012 0.0824082
1.0842e-19 0.0222847 0.02125 0.0874252
-3.1552e-20 0.0210376 0.0224989 0.08715
1.0842e-19 -0.0302124 0.00608237 0.0788561
8.08456e-20 -0.013962 0.0275 0.0811256
-3.00697e-20 0.0235342 0.0199985 0.0878673
-2.1684e-19 0.0197857 0.02375 0.0868756
0 0.0309265 0 0.0938511
0 -0.027712 0.0137433 0.0798165
0 0.0297661 0.00864739 0.0920205
-1.35525e-20 0.0309769 0.0022233 0.0937414
-1.0842e-19 0.0247832 0.01875 0.088303
-1.91544e-20 -0.021462 0.0225 0.0804969
-1.0842e-19 -0.022712 0.02125 0.0804754
2.74227e-20 0.0185364 0.0249993 0.0867453
-2.82344e-22 0.0285283 0.0124876 0.0906671
1.0842e-19 -0.020212 0.02375 0.0805426
0 0.00853781 0.0300011 0.0853183
-9.67102e-20 -0.023962 0.02 0.080451
0 -0.000212128 0.0312566 0.0837868
1.0842e-19 0.0122876 0.0287506 0.0858915
5.56296e-20 -0.00896202 0.0300012 0.0820913
0 0.00228784 0.0312566 0.084286
-4.51751e-21 0.0310004 0.00472577 0.0933331
-2.66815e-20 0.0260298 0.0174964 0.0888845
7.6233e-20 0.026037 0.0174963 0.0888858
0 -0.0027121 0.0312566 0.0833336
8.08456e-20 -0.018962 0.025 0.0806432
0 -0.025212 0.01875 0.0804145
0 -0.0302121 0.00865609 0.0787856
0 0.0172867 0.02625 0.0866204
0 -0.012712 0.0287506 0.0814445
5.42101e-20 0.0314366 0.000417556 0.0940219
0 -0.0314613 1.38619e-06 0.0786731
-1.0842e-19 0.0314756 0 0.0940347
-4.73379e-20 -0.028962 0.0124878 0.0794272
2.11758e-20 -0.0314642 0.00234041 0.0786506
0 0.0047878 0.0312566 0.0848317
0 -0.017712 0.02625 0.0807865
-1.0842e-19 -0.00521208 0.0312567 0.0829242
1.41236e-19 -0.026462 0.0175 0.0803009
0 0.0272786 0.0162494 0.0894543
-1.0842e-19 0.0297706 0.0112165 0.0913817
2.5411e-20 -0.0314632 0.00479798 0.0785368
1.11544e-19 0.0160373 0.0274997 0.0866122
-9.03502e-21 0.0310128 0.00734326 0.0927349
1.36743e-19 0.0110377 0.030001 0.0859737
-9.67102e-20 -0.016462 0.0275 0.080998
0 0.00728772 0.0312566 0.085423
0 -0.011462 0.0300012 0.0818136
-1.0842e-19 -0.027712 0.0162494 0.0801233
0 -0.00771206 0.0312567 0.0825559
0 0.0322011 0.00107821 0.0942737
1.0842e-19 -0.030212 0.0112171 0.0789358
0 0.0285291 0.0149988 0.0901253
-2.60992e-20 -0.0314619 0.00736553 0.078419
-2.1684e-19 0.0147873 0.0287506 0.0866122
0 0.0322344 0.0034326 0.0939044
-1.0842e-19 -0.015212 0.0287506 0.0812591
4.9022e-20 0.00103719 0.0325115 0.0844006
-1.0302e-19 -0.00146264 0.0325126 0.0839062
-3.00697e-20 0.0235342 0.0224985 0.0880213
-1.0842e-19 0.0222847 0.02375 0.087733
-5.64689e-22 0.0310198 0.00994264 0.0920928
-3.75049e-20 -0.028962 0.0149988 0.0797924
0 0.0247832 0.02125 0.0883113
8.97855e-20 0.0210354 0.0250011 0.0875805
-6.28922e-20 0.00353699 0.0325114 0.0849367
-1.0842e-19 -0.0327128 0.00116953 0.0783046
-1.0535e-20 -0.0039625 0.0325118 0.0834521
-1.0842e-19 0.00978757 0.0312566 0.0860579
-5.42101e-20 0.0327897 0 0.0943976
0 0.0297723 0.0137435 0.0907794
0 0.0322502 0.00603529 0.0934262
-4.48927e-20 0.0260298 0.0199964 0.0887554
-1.09691e-19 0.026037 0.0199963 0.0887572
0 -0.022712 0.02375 0.0805853
-5.42101e-20 0.0328638 0.000481289 0.0944156
0 -0.023962 0.0225 0.080551
1.0842e-19 0.0197857 0.02625 0.0874342
0 -0.010212 0.0312567 0.0822241
0 -0.0327126 0.00356894 0.0782315
5.35219e-20 0.0135375 0.0300009 0.0866706
-9.67102e-20 -0.021462 0.025 0.0806393
1.0842e-19 -0.025212 0.02125 0.0805415
-5.60498e-20 -0.0314621 0.00994625 0.0784946
-8.47033e-21 0.00603673 0.0325111 0.0855145
1.58469e-19 -0.013962 0.0300012 0.081568
0 0.0272786 0.01875 0.0891954
1.0842e-19 -0.020212 0.02625 0.0807399
-7.46448e-20 -0.00646237 0.0325125 0.083036
1.05879e-22 0.0185364 0.0274993 0.0873976
6.45119e-20 -0.026462 0.02 0.0804716
2.1684e-19 -0.030212 0.0137433 0.0793657
0 -0.0327123 0.00608232 0.0780327
-1.0842e-19 0.0322592 0.00864664 0.0927844
3.28979e-21 -0.018962 0.0275 0.0808909
-8.47033e-22 0.0310227 0.0124877 0.0914927
0 0.0334483 0 0.0946185
-1.0842e-19 -0.027712 0.01875 0.0803858
-5.64689e-22 0.0285291 0.0175 0.0897705
-9.03502e-21 0.033468 0.00219424 0.0944078
0 0.0172867 0.0287506 0.0873709
0 0.0122874 0.0312566 0.0867338
0 0.00853641 0.0325109 0.0861328
-7.95946e-20 -0.00896229 0.032512 0.0826545
1.0842e-19 -0.012712 0.0312567 0.0819232
1.0842e-19 -0.017712 0.0287506 0.0810958
0 -0.000212753 0.0337826 0.0845003
-4.51751e-21 0.0334864 0.00470655 0.0940048
-1.0842e-19 -0.0327121 0.00865608 0.0780013
-1.96303e-20 -0.028962 0.0175 0.080156
-3.45083e-20 -0.031462 0.0124878 0.0788497
0 0.00228711 0.0337826 0.0850315
0 -0.00271261 0.0337826 0.0840061
0 0.0297727 0.0162494 0.0903325
0 -0.0339616 9.62831e-07 0.0779595
-3.44107e-20 0.0160371 0.0300007 0.0874043
1.64113e-19 -0.0339616 0.00233999 0.0779115
-1.0842e-19 0.00478694 0.0337826 0.0856
-1.0842e-19 0.0322633 0.0112172 0.0921883
-5.42101e-20 0.0341686 0 0.0946855
1.0842e-19 -0.00521249 0.0337827 0.0835466
-9.47726e-20 -0.016462 0.0300012 0.0813457
-2.25875e-21 0.0334994 0.00733869 0.093462
-1.32349e-20 -0.0339617 0.00479816 0.0777581
0 -0.030212 0.0162494 0.0798633
0 0.0247832 0.02375 0.0886154
-8.87267e-20 0.011036 0.0325107 0.0867898
-3.02814e-20 0.0235342 0.0249985 0.0884436
-1.82112e-20 0.0260298 0.0224964 0.0889133
-3.854e-20 0.026037 0.0224963 0.0889157
1.0842e-19 0.0222847 0.02625 0.0882787
-2.82344e-22 0.0310234 0.0149988 0.0909864
0 -0.0114622 0.0325121 0.0823026
-1.0842e-19 0.00728676 0.0337827 0.0862056
-1.0842e-19 0.0147871 0.0312566 0.0874455
0 0.0272786 0.02125 0.0892164
-1.0842e-19 -0.032712 0.0112171 0.0782547
8.97855e-20 0.0210354 0.0274989 0.0882157
8.08456e-20 -0.023962 0.025 0.0806221
0 -0.025212 0.02375 0.0806017
1.0842e-19 -0.00771239 0.0337827 0.0831194
5.42101e-20 0.0346563 0.00073045 0.0947376
1.0842e-19 -0.022712 0.02625 0.0806895
-9.67102e-20 -0.026462 0.0225 0.0805621
-1.25096e-19 -0.0339619 0.00736558 0.0776408
0 -0.015212 0.0312567 0.0816457
-2.82344e-22 0.0285291 0.02 0.0896605
-2.6792e-20 -0.031462 0.0149988 0.0793908
1.0842e-19 0.0347093 0.003417 0.0945495
1.27816e-19 -0.021462 0.0275 0.0807877
0 0.0197856 0.0287506 0.0881643
-1.0842e-19 -0.027712 0.02125 0.0805443
1.12938e-21 0.033505 0.0099433 0.092867
1.18585e-20 0.00103325 0.0350498 0.0850707
-1.02915e-19 0.00104014 0.0350498 0.0850729
0 0.0322649 0.0137437 0.0916239
8.89385e-21 -0.00146578 0.0350506 0.0845439
-1.0842e-19 0.0351003 0 0.0947561
1.0842e-19 -0.020212 0.0287506 0.0809415
1.0842e-19 0.00978651 0.0337828 0.0868472
0 0.0297727 0.01875 0.0900987
3.28979e-21 -0.028962 0.02 0.0804074
-6.14099e-20 0.0135356 0.0325104 0.087482
1.41172e-22 0.00353645 0.0350534 0.0856346
-2.1684e-19 -0.0352126 0.0011695 0.0776143
0 0.0347305 0.00602051 0.0941154
-1.05879e-22 0.018536 0.0300002 0.0881717
-1.90582e-20 -0.00396498 0.0350512 0.0840476
1.0842e-19 -0.0102123 0.0337828 0.0827202
-2.70256e-20 -0.0139622 0.0325121 0.0819743
-4.83603e-20 -0.033962 0.00994627 0.0777737
0 -0.0352125 0.00356889 0.0774938
0 -0.032712 0.0137433 0.0788404
-8.89835e-20 -0.018962 0.0300012 0.0811356
1.0842e-19 -0.030212 0.01875 0.0802515
-2.82344e-22 0.0060362 0.0350534 0.0862304
8.47033e-22 0.0310234 0.0175 0.0906605
1.33408e-19 -0.00646434 0.0350551 0.0835813
-2.1684e-19 0.0172864 0.0312566 0.0881894
1.0842e-19 -0.0352122 0.00608228 0.0772712
1.12938e-21 0.0335076 0.0124881 0.0923098
1.0842e-19 0.0347335 0.00864855 0.0935184
0 0.0358561 0 0.094813
1.0842e-19 -0.017712 0.0312567 0.0813824
0 0.0122862 0.0337829 0.0875228
9.03502e-21 0.035929 0.00216007 0.094753
1.41804e-19 -0.031462 0.0175 0.0799001
-2.82344e-22 0.00853596 0.0350537 0.0868596
-1.82112e-20 0.0260298 0.0249964 0.089326
-3.7693e-20 0.026037 0.0249963 0.0893288
-1.0842e-19 -0.0127122 0.0337828 0.0823443
0 0.0247832 0.02625 0.0891467
-1.0842e-19 0.0322653 0.0162495 0.0912102
0 0.0272786 0.02375 0.0895163
-1.27055e-21 -0.0089638 0.0350522 0.0831419
2.92987e-21 -0.033962 0.0124878 0.0782356
-3.02814e-20 0.0235342 0.0274985 0.0890596