# p  POINT_DATA 37667
# x  y  z  p
-5.90671e-05 2.1684e-19 0 0.087223
0.000934805 0 0 0.0869776
-0.00106911 0 0 0.0874818
0.00140088 2.71051e-20 0 0.0868597
-0.00151888 -2.71051e-20 0 0.087588
0.00117901 -9.03502e-21 0.00117113 0.0869073
-0.00128849 2.25875e-20 0.00117062 0.0875297
-4.31765e-05 1.0842e-19 0.00234072 0.0871383
0.00239261 0 0 0.0866013
-0.00253032 0 0 0.0877967
0.00336229 8.13152e-20 0 0.0863493
0.00242341 0 0.00234108 0.0864497
-0.00252293 0 0.00234014 0.0877762
-0.00355263 -5.42101e-20 0 0.0880215
0.00120442 1.35525e-20 0.0035713 0.0866504
-0.00127507 -9.03502e-21 0.00357065 0.0873894
0.00362707 -4.51751e-21 0.00117131 0.0862682
0.00385067 -5.42101e-20 0 0.0862237
-0.00376956 -4.51751e-21 0.00117017 0.0880665
-0.00399133 0 0 0.0881113
-2.29192e-05 -1.0842e-19 0.00480025 0.086492
0.00481724 0 0 0.0859688
-0.00501448 0 0 0.088303
0.00367197 -1.35525e-20 0.00357105 0.0858759
-0.00376301 4.51751e-21 0.00356998 0.088064
0.00245907 -1.0842e-19 0.00480044 0.0856629
0.00487218 1.0842e-19 0.00233996 0.0857463
-0.00251212 0 0.00479977 0.0873324
-0.00501145 0 0.00233967 0.0883493
0.00575627 -5.42101e-20 0 0.085709
-0.00604431 0 0 0.0884997
0.00605007 -1.807e-20 0.00116989 0.0856233
0.00122797 -4.51751e-21 0.006084 0.0854415
-0.001262 -9.03502e-21 0.00608355 0.0863995
0.00627263 5.42101e-20 0 0.085592
-0.00625929 -4.51751e-21 0.00116985 0.0885454
-0.00647612 1.35525e-19 0 0.0885827
0.00493143 -2.1684e-19 0.00479869 0.0848954
-0.00500606 0 0.00479935 0.0881287
0.00612525 -9.03502e-21 0.00356686 0.0851111
0.00371201 -1.35525e-20 0.00608361 0.0846033
-0.00375618 0 0.00608307 0.0873904
-0.00625636 0 0.00356948 0.0886839
0.00720746 0 0 0.085401
-8.80336e-06 0 0.00736662 0.0853003
-0.00750642 -1.0842e-19 0 0.0887938
0.00730091 1.0842e-19 0.00233311 0.0851123
0.00248389 -1.0842e-19 0.00736673 0.0844203
-0.00250453 1.0842e-19 0.00736633 0.0862928
-0.00750536 1.0842e-19 0.00233933 0.0888861
0.00810899 2.71051e-20 0 0.0851833
0.00844495 -4.51751e-21 0.00116271 0.0850973
-0.00854047 8.13152e-20 0 0.0890066
0.00866226 5.42101e-20 0 0.0850726
0.0061894 1.35525e-20 0.00607973 0.0839259
-0.00625302 -1.35525e-20 0.00608271 0.0882994
0.00124214 1.807e-20 0.00865691 0.0842079
-0.00125418 4.51751e-21 0.00865666 0.0851483
0.00739431 0 0.00479014 0.0842611
-0.0087541 0 0.00116965 0.0890556
0.00497255 0 0.00736563 0.0836975
-0.00500221 -1.0842e-19 0.00736611 0.087316
-0.00750287 -1.0842e-19 0.00479904 0.0888344
-0.00896833 0 0 0.0890908
0.00856709 0 0.00355042 0.0844807
0.00373618 9.03502e-21 0.00865671 0.083433
-0.00375209 0 0.00865641 0.0862189
-0.00875292 0 0.00356915 0.0892456
0.00955779 0 0 0.0849381
-2.33168e-06 -1.0842e-19 0.00994661 0.0841182
0.00971438 0 0.00230723 0.0846344
-0.0100026 1.0842e-19 0 0.089289
0.00249558 0 0.00994668 0.0832679
-0.00250115 0 0.00994648 0.0851254
-0.0100023 0 0.00233912 0.0893858
0.0103892 -8.13152e-20 0 0.0848239
0.00745704 0 0.00736086 0.0831658
-0.00750103 1.0842e-19 0.00736595 0.0882675
0.00866276 -4.51751e-21 0.00606706 0.0834612
-0.0087514 1.35525e-20 0.00608247 0.089049
0.00622747 9.03502e-21 0.00865489 0.0828347
-0.006251 9.03502e-21 0.00865624 0.0873348
0.0107996 -2.25875e-20 0.00114301 0.0847024
0.00985495 0 0.00476418 0.0838345
0.010977 8.13152e-20 0 0.0846061
-0.0110388 -2.71051e-20 0 0.089497
-0.0100013 0 0.00479884 0.0894089
0.00499216 0 0.00994634 0.0825964
-0.00500053 -1.0842e-19 0.0099464 0.086243
0.00124803 -9.03502e-21 0.0112174 0.0830997
-0.001251 4.51751e-21 0.0112172 0.0840334
-0.0112517 1.35525e-20 0.00116954 0.0895432
-0.0114646 5.42101e-20 0 0.0895753
0.0110102 -1.807e-20 0.0035042 0.0840903
0.0118003 1.0842e-19 0 0.0842331
-0.0112513 9.03502e-21 0.00356894 0.0897036
0.00374639 4.51751e-21 0.0112173 0.0823452
-0.00375048 0 0.0112171 0.0851206
0.00871575 4.51751e-21 0.0086503 0.0824384
-0.00875046 9.03502e-21 0.00865614 0.0883682
0.012129 -1.0842e-19 0.00223333 0.0840492
0.0099385 0 0.00735088 0.0828359
-0.0100005 1.0842e-19 0.00736585 0.0890516
0.0074867 0 0.00994503 0.0821218
-0.00750024 0 0.00994635 0.0873877
-3.82247e-07 -2.1684e-19 0.0124879 0.0831002
-0.012501 0 0 0.0897424
0.0126142 0 0 0.0841358
0.0111384 -4.51751e-21 0.00604172 0.0831954
-0.012501 0 0.00233899 0.0898139
0.00249923 1.0842e-19 0.0124879 0.0822467
-0.00250018 -1.0842e-19 0.0124878 0.0841294
-0.0112506 0 0.00608232 0.0895979
0.00624356 -4.51751e-21 0.0112169 0.0817856
-0.00625022 -1.35525e-20 0.0112171 0.0863214
0.0131915 -2.71051e-20 0 0.0840621
0.0123278 -1.0842e-19 0.00471106 0.0835043
0.0132267 9.03502e-21 0.00104247 0.0840698
-0.0125005 1.0842e-19 0.00479871 0.0898337
0.00499843 -1.0842e-19 0.0124878 0.0815904
-0.00500008 0 0.0124878 0.0853042
-0.0135382 2.71051e-20 0 0.0899207
0.00124969 -4.51751e-21 0.0137434 0.0821631
-0.00125016 0 0.0137433 0.0831258
-0.0137506 1.807e-20 0.00116948 0.0899594
0.0135067 9.03502e-21 0.00337591 0.0836047
-0.013963 8.13152e-20 0 0.0899884
0.00997739 -1.0842e-19 0.00994339 0.0818505
-0.0100001 0 0.00994633 0.0884378
0.014125 -5.42101e-20 0 0.0840407
0.0111994 -1.807e-20 0.00864583 0.0822334
-0.0112502 -4.51751e-21 0.00865607 0.0891826
-0.0137505 -4.51751e-21 0.00356883 0.0900559
0.00873818 -1.35525e-20 0.0112161 0.0814399
-0.00875009 -9.03502e-21 0.0112171 0.087557
0.00374931 -4.51751e-21 0.0137434 0.0813993
-0.00375007 4.51751e-21 0.0137433 0.084261
0.0143989 0 0 0.0839981
0.0124168 -1.0842e-19 0.00734439 0.082665
0.0144673 2.71051e-20 0.000330796 0.0839995
-0.0125002 0 0.00736579 0.0896155
0.00749644 -1.0842e-19 0.0124877 0.0811477
-0.00750003 -1.0842e-19 0.0124878 0.0865756
0.014749 0 0.000698994 0.0839965
0.0148911 0 0 0.0839797
0.0136237 4.51751e-21 0.0060267 0.0830454
0.0148703 -1.807e-20 0.00154753 0.0839056
0.0149756 -5.42101e-20 0.000309223 0.0839802
-2.93175e-08 0 0.0149988 0.0822974
-0.0150003 1.0842e-19 0 0.090138
-0.0137503 -9.03502e-21 0.00608223 0.0899528
0.00624827 0 0.0137433 0.0808529
-0.00625003 9.03502e-21 0.0137433 0.0855404
0.0151457 2.71051e-20 0 0.084075
-0.0150004 1.0842e-19 0.00233892 0.0901703
0.00249992 -1.0842e-19 0.0149988 0.0814172
-0.00250001 -1.0842e-19 0.0149988 0.0833726
0.0153731 3.01167e-21 0.000848982 0.0839667
0.0154079 0 0 0.0840453
0.0154333 2.71051e-20 0.000196582 0.0840446
0.0148306 0 0.004694 0.0833664
0.0155974 0 0.00145938 0.0838428
-0.0150002 -1.0842e-19 0.00479864 0.0901393
0.0157765 -2.71051e-20 0.000438014 0.0840247
0.00499965 1.0842e-19 0.0149988 0.0807563
-0.00500001 0 0.0149988 0.0846155
0.0112268 -1.35525e-20 0.0112162 0.0813068
-0.01125 -9.03502e-21 0.0112171 0.088682
0.0124603 -1.0842e-19 0.0099452 0.0817495
-0.0125 -1.0842e-19 0.00994631 0.0892794
0.00999097 -1.0842e-19 0.0124877 0.0809241
-0.01 0 0.0124878 0.0878525
-0.016038 -5.42101e-20 0 0.0902929
0.0160421 2.71051e-20 0 0.0840922
0.0160727 2.71051e-20 0.000187423 0.084092
0.0136832 -4.51751e-21 0.0086521 0.0821633
-0.0137501 9.03502e-21 0.00865604 0.0897307
0.0161756 0 0.00179843 0.0839896
0.0162555 -9.03502e-21 0.000985774 0.0840871
0.00874511 1.35525e-20 0.0137433 0.0805355
0.0162903 2.71051e-20 0 0.0841855
-0.0162502 0 0.00116945 0.0903254
-0.00875001 0 0.0137433 0.0869182
0.00124997 0 0.0162494 0.0814595
-0.00125001 1.807e-20 0.0162494 0.0824656
-0.0164624 -2.71051e-20 0 0.0903551
0.0161381 -8.13152e-21 0.00328259 0.083765
0.0165248 0 0 0.0842192
0.0165235 2.71051e-20 0.000214492 0.0842177
0.0149084 0 0.00736477 0.082653
-0.0162502 9.03502e-21 0.00356877 0.0903384
0.00374983 -4.51751e-21 0.0162494 0.0806728
-0.00375 0 0.0162494 0.0836609
-0.0150001 -2.1684e-19 0.00736576 0.0899905
0.00749843 0 0.0149988 0.0803304
-0.0075 0 0.0149988 0.085994
0.0168483 5.42101e-20 0.000518488 0.0842844
0.0168009 0 0.00159734 0.0841607
0.0171763 2.71051e-20 0 0.0843722
0.0171798 0 0.000213918 0.0843719
0.0162492 7.7443e-21 0.00607578 0.0831335
-0.0162501 1.35525e-20 0.00608218 0.0901941
0.017409 0 0 0.0844407
0.00624914 -9.03502e-21 0.0162494 0.0801294
-0.00625 0 0.0162494 0.0850214
0.0174064 0 0.00108106 0.0843433
-1.02401e-14 0 0.0175 0.0817562
-0.0175001 0 0 0.0905157
0.0174597 -4.51751e-21 0.00218801 0.0841428
0.017634 2.71051e-20 0 0.0845107
0.0176441 0 0.000226518 0.0845085
0.0124768 0 0.0124885 0.0808902
-0.0175001 -1.0842e-19 0.00233889 0.0905008
-0.0125 0 0.0124878 0.0890066
0.00249998 -1.0842e-19 0.0175 0.0808459
-0.0025 0 0.0175 0.08288
0.013712 1.35525e-20 0.0112202 0.0813308
-0.01375 4.51751e-21 0.0112171 0.0895626
0.011236 9.03502e-21 0.0137435 0.0804433
-0.01125 0 0.0137433 0.0882983
0.0149484 0 0.00995676 0.0818021
0.0179798 0 0.000551805 0.084593
-0.015 0 0.0099463 0.0898875
0.00999396 0 0.0149988 0.0801402
-0.01 0 0.0149988 0.0874488
0.0177172 -9.03502e-21 0.00353836 0.0838298
0.0179881 -5.42101e-20 0.00171051 0.0843179
-0.0175001 -1.0842e-19 0.00479861 0.0904002
0.0175164 0 0.00482374 0.0835541
0.00499976 0 0.0175 0.0801759
-0.005 0 0.0175 0.0841897
0.0182698 -2.71051e-20 0 0.0845671
0.0180402 0 0.00291708 0.0839984
0.0182858 0 0.000227338 0.0845655
-0.01625 -4.51751e-21 0.00865603 0.090095
0.00874647 -9.03502e-21 0.0162494 0.0798378
-0.00875 -9.03502e-21 0.0162494 0.0865197
0.0162929 -6.45358e-21 0.00868413 0.0822946
0.018496 -2.71051e-20 0 0.0845009
0.0180113 0 0.00422619 0.083662
-0.018538 -2.71051e-20 0 0.0906729
0.0185987 9.03502e-21 0.00110122 0.0844192
0.0187236 0 0 0.0845584
0.0187582 0 0.000214893 0.0845567
0.0177321 -2.71051e-20 0.00614951 0.0832515
-0.01875 0 0.00116944 0.0907043
0.00124999 0 0.01875 0.0810437
-0.00125 1.807e-20 0.01875 0.0820845
0.0186544 -4.51751e-21 0.00230765 0.0841499
0.0180198 0 0.00548223 0.0834994
-0.0189621 -5.42101e-20 0 0.0907404
-0.0175 0 0.00736574 0.0902808
0.0186737 9.03502e-21 0.00359745 0.0838606
0.00749863 0 0.0175 0.0797629
-0.0075 0 0.0175 0.0856588
0.0175523 -1.807e-20 0.00743048 0.082851
-0.01875 9.03502e-21 0.00356874 0.0906187
0.00374987 -9.03502e-21 0.01875 0.0802403
-0.00375 1.807e-20 0.01875 0.0833329
0.0191417 0 0.000523466 0.0845187
0.0180335 0 0.00682266 0.0830227
0.0186794 -1.807e-20 0.00489465 0.0835913
0.0193409 0 0 0.0845499
0.019272 5.42101e-20 0.00165716 0.084247
0.0193788 -2.71051e-20 0.000199 0.0845482
0.0137222 2.25875e-20 0.0137444 0.080527
-0.01375 9.03502e-21 0.0137433 0.0895333
0.0149636 0 0.0124914 0.081009
0.0124806 -2.1684e-19 0.0149989 0.0801546
0.0192887 -5.42101e-20 0.00296028 0.0840327
-0.015 0 0.0124878 0.0899424
-0.0125 0 0.0149988 0.08887
0.0195825 0 0 0.0845697
0.0186882 4.51751e-21 0.00618728 0.083276
-0.01875 -9.03502e-21 0.00608217 0.0904347
-0.01625 0 0.011217 0.0901982
0.0112379 9.03502e-21 0.0162494 0.0797875
0.0180425 0 0.00805496 0.082745
-0.01125 9.03502e-21 0.0162494 0.0880894
0.00624921 -1.807e-20 0.01875 0.0796991
-0.00625 1.807e-20 0.01875 0.0847627
0.0193156 1.0842e-19 0.00426883 0.0837472
0.0177574 0 0.0087192 0.0824712
0.0197848 0 0 0.0847537
0.0163125 1.41979e-20 0.0112323 0.0815114
0.0197851 -2.71051e-20 0.00105651 0.084421
0.0199433 2.25875e-21 0.000343781 0.0847445
0.0199517 -2.03288e-20 0 0.0847354
-0.02 0 0 0.0909399
-1.024e-14 0 0.02 0.081516
0.0199137 -1.35525e-20 0.002322 0.0841704
0.0193276 5.42101e-20 0.00556506 0.0834597
0.0186907 0 0.007459 0.0829123
-0.0175 -1.0842e-19 0.00994629 0.0903441
-0.02 -1.0842e-19 0.00233888 0.090882
0.0198262 -4.51751e-21 0.00353876 0.0839797
0.0201482 0 0 0.0845294
0.00999425 1.0842e-19 0.0175 0.0796051
0.00249998 -1.0842e-19 0.02 0.0805897
-0.0025 0 0.02 0.0826737
-0.01 0 0.0175 0.0872428
0.017571 9.03502e-21 0.00998358 0.0820773
0.0202492 0 0.000417568 0.0845086
0.0197197 0 0.00492314 0.083673
0.0198624 -1.35525e-20 0.00431664 0.0838419
0.0203337 0 0 0.0845663
0.0180485 5.42101e-20 0.00938017 0.0822352
0.0203539 -1.12938e-21 0.000720236 0.0847234
0.0204602 -4.51751e-21 0.00021777 0.0845574
0.0193297 0 0.00683974 0.0831309
0.0205466 1.35525e-20 0 0.0845524
-0.02 -1.0842e-19 0.00479859 0.0907215
0.0205431 0 0.00166059 0.0842517
0.00499976 0 0.02 0.0799211
-0.005 0 0.02 0.0840335
0.018691 1.807e-20 0.00873215 0.0825304
0.0206055 -1.35525e-20 0.00113383 0.0844181
0.020248 4.51751e-21 0.00398707 0.0839815
0.0198777 1.35525e-20 0.00559885 0.0835344
-0.01875 0 0.00865601 0.0904156
0.0197161 9.03502e-21 0.00622263 0.083358
0.00874659 0 0.01875 0.0794298
-0.00875 1.807e-20 0.01875 0.0863475
0.0206918 0 0.000485439 0.0844919
0.0207292 0 0 0.084495
0.0202493 0 0.00468188 0.0838046
0.020562 0 0.00303088 0.0841592
0.0205791 -1.35525e-20 0.0036086 0.0840757
0.0209125 -1.35525e-20 0 0.0845557
0.0180516 0 0.0105934 0.0820041
0.0202818 -2.25875e-21 0.00528131 0.0836923
0.0193324 5.42101e-20 0.00810405 0.08275
0.0209518 -2.25875e-21 0.000794603 0.0846866
0.0210055 0 0.000255445 0.0845686
0.0177662 9.03502e-21 0.0112451 0.081716
0.0198824 0 0.0068589 0.0832125
-0.021038 -1.35525e-19 0 0.0911265
0.0205908 -4.51751e-21 0.00435357 0.0839213
0.020941 9.03502e-21 0.00237638 0.0842844
0.0197229 0 0.00748077 0.0830133
0.0210741 1.54886e-20 0.00124456 0.084442
0.0211253 0 0 0.0845824
0.02028 9.03502e-21 0.00593584 0.0834982
0.0211074 1.35525e-20 0.00172891 0.0843598
0.0149672 0 0.0149992 0.0803326
0.0186932 4.51751e-21 0.00999396 0.0821644
0.0206045 0 0.00499039 0.0837648
-0.015 0 0.0149988 0.0901236
0.0137244 -1.35525e-20 0.0162495 0.0799224
-0.02125 -4.51751e-21 0.00116944 0.0911629
-0.01625 9.03502e-21 0.0137433 0.090518
0.0212778 0 0.000537366 0.0845419
-0.01375 -1.807e-20 0.0162494 0.0895964
0.00124999 1.807e-20 0.02125 0.0809562
-0.00125 -2.71051e-20 0.02125 0.082011
0.0209137 2.25875e-21 0.00401727 0.0840001
0.0202812 1.12938e-21 0.00654348 0.0833759
0.021312 0 0 0.0845612
-0.02 0 0.00736573 0.0906142
0.0163191 -2.58143e-21 0.0137469 0.0807794
0.0210372 -1.16165e-20 0.00357854 0.0841237
0.0211194 0 0.00306084 0.0842374
0.00749863 0 0.02 0.0795257
-0.0075 0 0.02 0.0855643
0.0206095 2.71051e-20 0.0056213 0.0836088
0.0209335 -2.25875e-21 0.00469187 0.0838588
-0.021462 -1.35525e-19 0 0.0912102
0.0198906 -1.35525e-20 0.00811521 0.0828493
0.019334 5.42101e-20 0.00936858 0.0823929
0.012481 -1.0842e-19 0.0175 0.0796661
-0.0175 0 0.0124878 0.0906647
-0.0125 0 0.0175 0.0888473
0.0215095 1.35525e-20 0 0.0846084
0.0202822 -1.12938e-21 0.00718905 0.0831678
0.0206114 0 0.00624672 0.0834574
-0.02125 -4.51751e-21 0.00356873 0.0910125
0.0175768 2.71051e-20 0.0124975 0.0813392
0.0215533 -6.77626e-21 0.00086045 0.0846427
0.00374987 -9.03502e-21 0.02125 0.0801562
-0.00375 1.807e-20 0.02125 0.0832912
0.0197282 1.807e-20 0.00874265 0.0826506
0.0209184 4.51751e-21 0.00530361 0.0837009
0.0215457 0 0.00146101 0.0845737
0.0215987 4.51751e-21 0.000276646 0.0846174
0.0215159 4.51751e-21 0.00210555 0.08429
0.0180546 0 0.0118959 0.0814709
0.021231 0 0.0043614 0.0839868
0.0215157 -1.12938e-21 0.00273879 0.0843803
0.0217116 1.35525e-20 0 0.0846322
0.0206127 0 0.00687123 0.0832945
0.0202827 2.25875e-21 0.00779649 0.0830323
0.0209271 -6.77626e-21 0.00593526 0.0835643
0.0212132 2.71051e-20 0.00496926 0.0838315
0.0215326 -3.38813e-21 0.00340415 0.0841965
0.0186946 9.03502e-21 0.011248 0.0817947
-0.01875 9.03502e-21 0.011217 0.0907016
0.0112381 0 0.01875 0.0794202
-0.01125 1.807e-20 0.01875 0.0880324
0.0218884 0 0.00056802 0.0845965
0.0215249 -1.12938e-21 0.00403417 0.084093
0.0218693 -2.71051e-20 0.00116661 0.0845368
0.0219118 0 0 0.0846241
0.021857 0 0.00180024 0.0844499
0.020929 -2.25875e-21 0.0065602 0.0833999
0.0206135 2.71051e-20 0.00749641 0.0831253
0.0202832 -2.25875e-21 0.00844256 0.0828093
0.0212419 0 0.00562259 0.083675
0.0218488 0 0.00244594 0.084392
0.0198921 -1.35525e-20 0.00937253 0.0824943
0.0215471 4.51751e-21 0.00467385 0.0839568
0.0193355 -5.42101e-20 0.0106231 0.0820257
0.0218549 2.71051e-20 0.00309251 0.0843041
-0.02125 1.807e-20 0.00608216 0.090806
0.0197292 -9.03502e-21 0.00999813 0.0822898
0.0221193 -1.35525e-20 0 0.0846517
0.0209299 0 0.00718499 0.0832383
0.0212453 0 0.0062492 0.0835219
0.00624921 -1.807e-20 0.02125 0.0796331
-0.00625 1.807e-20 0.02125 0.0847646
0.0206142 0 0.00812214 0.0829477
0.0218602 0 0.0037332 0.0841729
0.0215479 -4.51751e-21 0.00530169 0.0837951
0.0221931 2.25875e-21 0.000875308 0.0846301
0.0222091 9.03502e-21 0.000287223 0.0846561
0.0202837 -1.58113e-20 0.00905069 0.0826823
0.0221806 -2.25875e-21 0.001495 0.0845426
0.0221729 -2.25875e-21 0.00213628 0.0844652
0.0218648 2.71051e-20 0.0043649 0.084051
0.0180554 -5.42101e-20 0.0131005 0.0813052
0.0223146 1.35525e-20 0 0.0846683
0.0212462 -2.71051e-20 0.00687392 0.083359
-0.02 0 0.00994629 0.0907761
0.0209305 4.51751e-21 0.00781023 0.0830654
0.0221717 -4.51751e-21 0.00278024 0.0843823
0.00999425 1.0842e-19 0.02 0.0793995
0.0215574 6.77626e-21 0.00593597 0.0836441
-0.01 0 0.02 0.0872194
0.0206151 -2.71051e-20 0.00874856 0.0827733
0.021869 0 0.00499521 0.0839053
0.0221756 2.25875e-21 0.0034203 0.0842636
0.0177686 9.03502e-21 0.0137495 0.0810205
0.020284 0 0.00969614 0.0824501
0.0186955 9.03502e-21 0.0124995 0.0814514
-0.0225 0 0 0.0914685
-1.02401e-14 0 0.0225 0.0816102
0.0225117 0 0.000578583 0.0846552
0.0225229 2.71051e-20 0 0.0846758
0.0212467 2.71051e-20 0.00749879 0.0831911
0.0225008 -5.42101e-20 0.00118742 0.0846102
0.0215594 -2.25875e-21 0.00656172 0.08348
0.0221795 0 0.00405365 0.0841489
0.0198927 0 0.0106245 0.0821323
0.0209311 0 0.00843592 0.0828919
0.0224935 0 0.00182613 0.0845502
0.02187 2.71051e-20 0.00562207 0.0837567
-0.0225 0 0.00233887 0.0913852
0.0224908 0 0.0024723 0.0844664
0.00249998 -1.0842e-19 0.0225 0.0806921
-0.0025 0 0.0225 0.0827714
0.0206154 2.71051e-20 0.00937446 0.0825957
0.0221823 2.25875e-21 0.00468259 0.0840151
0.0193362 0 0.0118745 0.0816762
0.0224923 -2.71051e-20 0.0031118 0.0843592
0.0197298 9.03502e-21 0.0112496 0.0819369
0.02156 2.25875e-21 0.00718659 0.0833164
0.0227337 0 0 0.0846998
0.021247 -2.71051e-20 0.00812398 0.0830173
0.0218727 -2.71051e-20 0.00624927 0.0836
0.0202841 -6.77626e-21 0.0103026 0.0823224
0.0224952 2.71051e-20 0.00374415 0.084243
0.0209317 0 0.00906182 0.0827166
0.0221841 -6.77626e-21 0.00531005 0.0838684
0.0228272 4.51751e-21 0.000290736 0.0847075
0.0228187 0 0.000886665 0.08468
0.0228117 -4.51751e-21 0.00151191 0.0846347
0.0228077 -2.25875e-21 0.00215451 0.0845557
0.0206155 0 0.00999985 0.0824185
0.0224972 -2.71051e-20 0.00437224 0.0841183
0.0218735 0 0.00687445 0.0834365
0.0229286 2.71051e-20 0 0.0847208
0.0215604 -2.25875e-21 0.0078116 0.0831431
-0.02125 1.35525e-20 0.00865601 0.0908211
0.022185 2.25875e-21 0.00593627 0.0837176
0.022807 2.25875e-21 0.00279629 0.0844541
0.0212475 2.71051e-20 0.00874944 0.0828434
0.00874659 9.03502e-21 0.02125 0.079393
-0.01625 9.03502e-21 0.0162494 0.0908801
-0.00875 0 0.02125 0.0863932
-0.0225 0 0.00479859 0.0911917
0.0149676 0 0.0175 0.079899
0.0163205 -7.7443e-21 0.0162497 0.080239
0.0224981 -2.71051e-20 0.00499856 0.0839787
-0.0175 0 0.0149988 0.0911287
0.00499976 0 0.0225 0.0800419
-0.005 0 0.0225 0.0841427
-0.015 0 0.0175 0.0903256
0.0202842 -4.51751e-21 0.0109469 0.082093
0.0209319 2.25875e-21 0.00968728 0.0825397
0.0228084 -2.25875e-21 0.0034307 0.0843404
0.018056 -5.42101e-20 0.0143983 0.0807917
0.0175779 0 0.0149998 0.0807202
0.0218739 -2.71051e-20 0.00749941 0.0832681
0.0221861 6.77626e-21 0.00656201 0.0835569
0.0231393 2.71051e-20 0 0.0847405
0.0231335 2.71051e-20 0.000583267 0.0847264
0.0215608 -2.25875e-21 0.00843687 0.0829708
0.0231277 -2.71051e-20 0.00119646 0.0846957
0.0198929 0 0.0118749 0.0817891
0.0228102 -2.25875e-21 0.00405972 0.0842216
0.0224985 0 0.00562421 0.0838304
0.0206155 5.42101e-20 0.010625 0.0822431
0.0231238 0 0.00183721 0.0846369
0.0186957 -4.51751e-21 0.0137498 0.0811271
0.0212477 0 0.00937484 0.0826681
0.0137246 -9.03502e-21 0.01875 0.0796053
-0.01875 1.807e-20 0.0137433 0.0912714
-0.01375 -1.807e-20 0.01875 0.0896951
0.0231223 2.71051e-20 0.00248253 0.0845433
0.0228112 -4.51751e-21 0.00468621 0.0840883
0.0221866 6.77626e-21 0.00718706 0.0833915
0.0231227 2.71051e-20 0.00311907 0.0844357
0.0218741 0 0.00812449 0.0830956
0.0209319 -4.51751e-21 0.0103125 0.0823681
0.0202842 -6.77626e-21 0.0115529 0.0819828
0.0233506 -1.35525e-20 0 0.0847667
0.022499 0 0.00624956 0.0836742
0.01973 9.03502e-21 0.0124999 0.0816021
0.0193365 0 0.0131249 0.0813547
0.0215611 0 0.00906223 0.0827953
0.0228116 2.25875e-21 0.00531183 0.0839437
0.0231237 2.71051e-20 0.00374822 0.0843202
0.0234469 -6.77626e-21 0.000292113 0.0847773
0.0234425 2.25875e-21 0.00089102 0.0847563
0.0212478 2.71051e-20 0.00999997 0.0824944
0.0206155 0 0.01125 0.0820735
0.0234387 0 0.00151844 0.0847187
0.0221868 -6.77626e-21 0.00781209 0.083221
0.0224994 -2.71051e-20 0.00687472 0.0835112
0.0231244 -2.71051e-20 0.0043744 0.084194
0.0234365 0 0.0021615 0.0846334
-0.023538 -5.42101e-20 0 0.0917118
0.0235476 0 0 0.0847915
0.0218744 0 0.00874973 0.0829222
0.0228118 2.25875e-21 0.00593712 0.0837914
0.012481 -1.0842e-19 0.02 0.079503
-0.02 0 0.0124878 0.0912577
-0.0125 0 0.02 0.0889068
0.0234359 2.25875e-21 0.00280208 0.0845322
0.020932 6.77626e-21 0.0109375 0.0821941
0.0215613 2.25875e-21 0.00968744 0.0826224
0.0231246 0 0.00499972 0.0840544
0.0202842 -4.51751e-21 0.012197 0.0817517
-0.0225 0 0.00736572 0.091087
0.0234363 2.25875e-21 0.00343443 0.0844192
0.0224996 0 0.00749974 0.0833433
0.00749863 0 0.0225 0.0796714
-0.0075 0 0.0225 0.0856835
0.022187 6.77626e-21 0.00843721 0.0830483
0.022812 -2.25875e-21 0.00656227 0.083631
0.0212478 0 0.010625 0.0823225
0.0237586 0 0 0.0848171
0.0237556 5.42101e-20 0.000584582 0.0848075
-0.02375 4.51751e-21 0.00116943 0.0917569
0.0237524 0 0.00119912 0.084781
0.00124999 0 0.02375 0.0812331
-0.00125 -1.807e-20 0.02375 0.0822691
0.0234369 0 0.0040617 0.0842996
0.0206155 0 0.011875 0.0819059
0.0218746 0 0.00937493 0.0827485
0.0231247 2.71051e-20 0.00562484 0.0839054
0.0237503 2.71051e-20 0.00184058 0.0847197
0.019893 1.35525e-20 0.013125 0.0814685
0.0180561 0 0.0156015 0.0807617
0.0237494 -2.71051e-20 0.00248567 0.0846234
0.0215613 0 0.0103125 0.0824494
0.0234373 -6.77626e-21 0.00468725 0.0841651
0.020932 -4.51751e-21 0.0115625 0.0820284
0.0228122 2.25875e-21 0.00718734 0.0834656
0.0224997 -2.71051e-20 0.00812478 0.0831721
0.0237494 2.71051e-20 0.00312126 0.0845153
0.0231248 0 0.00624989 0.0837486
-0.023962 5.42101e-20 0 0.0918159
0.0221872 -4.51751e-21 0.00906238 0.0828752
0.0186958 -9.03502e-21 0.015 0.0808616
0.0239698 -1.35525e-20 0 0.084846
0.0202842 -2.25875e-21 0.012803 0.081656
-0.02375 1.35525e-20 0.00356873 0.0915769
-0.02125 -9.03502e-21 0.011217 0.0911994
0.0234374 0 0.00531237 0.08402
0.0112381 0 0.02125 0.079418
0.0212478 -2.71051e-20 0.01125 0.0821543
0.0237497 2.71051e-20 0.00374935 0.0843991
0.00374987 0 0.02375 0.0804577
-0.01125 -9.03502e-21 0.02125 0.0881138
-0.00375 0 0.02375 0.0835355
0.01973 0 0.01375 0.0812983
0.0218746 -2.71051e-20 0.00999999 0.0825762
0.0240682 -4.51751e-21 0.000292422 0.0848581
0.0177688 0 0.01625 0.0805047
0.0240659 4.51751e-21 0.000892125 0.0848406
0.0193366 1.0842e-19 0.014375 0.0810555
0.0206155 0 0.0125 0.0817457
0.0240638 4.51751e-21 0.00152022 0.0848034
0.0228123 4.51751e-21 0.00781235 0.0832959
0.0231248 2.71051e-20 0.00687493 0.0835854
0.0224998 0 0.00874988 0.0829997
0.0237499 0 0.00437489 0.0842713
0.0240626 -4.51751e-21 0.00216353 0.0847167
0.0241688 0 0 0.0848728
0.0215613 6.77626e-21 0.0109375 0.0822812
0.0234374 6.77626e-21 0.00593743 0.0838664
0.0221873 -9.03502e-21 0.00968747 0.0827026
0.020932 -9.03502e-21 0.0121875 0.0818634
0.0240622 2.25875e-21 0.0028038 0.0846119
0.02375 2.71051e-20 0.00499997 0.0841306
0.0240622 2.25875e-21 0.00343551 0.0844992
0.0231249 0 0.00749994 0.0834177
0.0218746 0 0.010625 0.0824066
0.0228124 6.77626e-21 0.0084374 0.0831244
0.0202842 2.25875e-21 0.013447 0.081438
0.0234374 4.51751e-21 0.00656245 0.0837055
0.0212478 -2.71051e-20 0.011875 0.0819908
0.0224999 2.71051e-20 0.00937497 0.0828275
0.0243798 0 0 0.0849007
0.0243784 0 0.000584785 0.0848923
0.0240624 -2.25875e-21 0.00406221 0.0843775
0.0243767 2.71051e-20 0.00119964 0.0848668
0.02375 0 0.00562498 0.0839806
0.0206155 -2.71051e-20 0.013125 0.0815928
0.0243755 0 0.00184134 0.0848044
0.0215613 4.51751e-21 0.0115625 0.0821161
0.0221873 -4.51751e-21 0.0103125 0.0825326
0.024375 -2.71051e-20 0.00248644 0.0847058
0.0231249 0 0.00812495 0.0832472
0.0234375 -4.51751e-21 0.00718746 0.0835398
0.0240625 0 0.00468745 0.0842413
-0.02375 9.03502e-21 0.00608215 0.0913653
0.020932 -4.51751e-21 0.0128125 0.0817147
0.019893 1.35525e-20 0.014375 0.0811814
0.0228124 -4.51751e-21 0.00906245 0.0829524
0.00624921 9.03502e-21 0.02375 0.0799618
0.02375 0 0.00624999 0.0838227
-0.00625 0 0.02375 0.0849926
0.0243749 2.71051e-20 0.00312184 0.0845959
0.0245911 0 0 0.0849306
0.0218746 0 0.01125 0.0822412
-0.0225 0 0.00994629 0.0912854
0.00999425 1.0842e-19 0.0225 0.079572
0.0224999 0 0.01 0.0826569
-0.01 0 0.0225 0.0873353
0.0240625 2.25875e-21 0.00531249 0.0840951
0.0212478 -2.71051e-20 0.0125 0.0818353
0.0243749 0 0.00374963 0.0844781
0.0202842 2.25875e-21 0.014053 0.0813718
0.0246907 6.77626e-21 0.000292434 0.0849434
0.0234375 -2.25875e-21 0.00781247 0.0833704
0.0246895 2.25875e-21 0.000892278 0.0849269
0.0231249 -2.71051e-20 0.00874997 0.0830757
0.02375 2.71051e-20 0.00687499 0.083659
0.0180561 0 0.0168985 0.0803141
0.0246884 -4.51751e-21 0.00152058 0.0848894
0.0221873 -4.51751e-21 0.0109375 0.0823657
-0.0175 0 0.0175 0.0915431
0.024375 0 0.00437498 0.084348
0.0215613 0 0.0121875 0.0819586
0.0186958 0 0.01625 0.0806391
0.0206155 0 0.01375 0.081452
0.0246878 -6.77626e-21 0.00216396 0.0848005
0.0228125 2.25875e-21 0.00968749 0.0827816
0.0240625 0 0.00593749 0.0839402
0.01973 -9.03502e-21 0.015 0.0810392
0.0247913 2.71051e-20 0 0.0849585
0.017578 0 0.0175 0.0803282
-0.01875 -3.61401e-20 0.0162494 0.0918633
-0.01625 -9.03502e-21 0.01875 0.0911552
0.0246875 -1.12938e-20 0.0028042 0.0846936
0.0163206 -1.67793e-20 0.01875 0.079984
0.0193366 5.42101e-20 0.015625 0.0808411
0.020932 -2.25875e-21 0.0134375 0.081564
0.0225 0 0.010625 0.0824895
0.024375 -5.42101e-20 0.005 0.0842056
0.0218746 0 0.011875 0.0820812
0.02375 0 0.00749999 0.0834912
0.0234375 -1.12938e-20 0.00843748 0.0831994
0.0246875 -4.51751e-21 0.00343578 0.0845795
0.0240625 -2.25875e-21 0.0065625 0.0837786
0.023125 0 0.00937499 0.0829048
0.0212478 -2.71051e-20 0.013125 0.0816871
0.0149676 0 0.02 0.0797854
-0.02 0 0.0149988 0.091897
-0.015 0 0.02 0.0904804
-0.025 0 0 0.0921101
-1.02403e-14 0 0.025 0.082028
0.0250025 0 0 0.0849874
0.0250019 2.71051e-20 0.00058479 0.0849794
0.024375 2.71051e-20 0.005625 0.084054
0.0221873 -4.51751e-21 0.0115625 0.0822046
0.0246875 9.03502e-21 0.00406232 0.084455
0.0250009 2.71051e-20 0.0011997 0.0849536
0.0228125 9.03502e-21 0.0103125 0.0826133
0.0202842 -2.25875e-21 0.014697 0.0811593
0.0250004 0 0.00184145 0.0848894
0.0215613 0 0.0128125 0.081808
0.02375 2.71051e-20 0.00812499 0.083321
-0.025 0 0.00233887 0.0920197
0.0240625 4.51751e-21 0.0071875 0.0836123
0.0250001 0 0.00248657 0.0847886
0.00249998 -1.0842e-19 0.025 0.0811414
-0.0025 0 0.025 0.0831543
0.0234375 2.25875e-21 0.00906249 0.0830284
0.0246875 -2.25875e-21 0.00468749 0.0843165
0.0206155 -2.71051e-20 0.014375 0.0813173
0.0225 0 0.01125 0.0823266
0.024375 -2.71051e-20 0.00625 0.0838949
0.025 2.71051e-20 0.00312194 0.0846769
0.0218746 0 0.0125 0.0819286
0.023125 2.71051e-20 0.01 0.082736
0.025214 0 0 0.085018
0.020932 2.25875e-21 0.0140625 0.0814333
0.0246875 2.25875e-21 0.0053125 0.0841683
-0.02375 -9.03502e-21 0.00865601 0.0913849
0.025 0 0.00374969 0.0845565
0.019893 2.71051e-20 0.015625 0.0809576
0.0137246 0 0.02125 0.0796421
0.0228125 -1.807e-20 0.0109375 0.0824489
0.0240625 2.25875e-21 0.0078125 0.0834429
-0.02125 -9.03502e-21 0.0137433 0.0918794
0.0212478 -2.71051e-20 0.01375 0.0815485
0.00874659 0 0.02375 0.0797464
-0.00875 1.807e-20 0.02375 0.0865895
-0.01375 -1.807e-20 0.02125 0.0897994
0.02375 0 0.00875 0.0831502
0.0221873 -4.51751e-21 0.0121875 0.0820492
0.0253141 0 0.000292407 0.085031
0.024375 -2.71051e-20 0.006875 0.0837304
0.0253136 -2.25875e-21 0.000892266 0.0850144
0.025313 -6.77626e-21 0.00152059 0.0849755
0.0234375 2.25875e-21 0.0096875 0.082859
0.025 2.71051e-20 0.004375 0.0844234
0.0246875 -2.25875e-21 0.0059375 0.0840117
0.0253127 0 0.00216402 0.0848841
0.0215613 4.51751e-21 0.0134375 0.0816662
0.0202842 -2.25875e-21 0.015303 0.0811256
0.0254148 -1.35525e-20 0 0.0850463
0.0225 0 0.011875 0.0821696
0.023125 -2.71051e-20 0.010625 0.0825706
-0.025 0 0.00479858 0.0918185
0.0253125 9.03502e-21 0.00280427 0.0847754
0.00499976 0 0.025 0.0805193
0.0206155 0 0.015 0.0811983
0.025 2.71051e-20 0.005 0.0842785
-0.005 0 0.025 0.0844831
0.0240625 1.58113e-20 0.0084375 0.0832723
0.024375 -2.71051e-20 0.0075 0.0835621
0.0218746 0 0.013125 0.0817839
0.02375 2.71051e-20 0.009375 0.0829804
0.0253125 0 0.00343582 0.084659
0.0246875 4.51751e-21 0.0065625 0.083849
0.01973 0 0.01625 0.080837
0.0180561 -5.42101e-20 0.0181015 0.0804661
0.020932 -1.35525e-20 0.0146875 0.0813021
0.0228125 9.03502e-21 0.0115625 0.0822902
0.0234375 -9.03502e-21 0.0103125 0.0826926
0.0186958 -4.51751e-21 0.0175 0.0804997
0.0221873 -4.51751e-21 0.0128125 0.0819024
0.025 -2.71051e-20 0.005625 0.0841249
0.0256262 -2.71051e-20 0 0.0850757
0.0256259 -2.71051e-20 0.00058477 0.0850675
0.0253125 -4.51751e-21 0.00406234 0.0845307
0.0256255 0 0.0011997 0.0850407
0.0212478 -2.71051e-20 0.014375 0.08142
0.0193366 0 0.016875 0.08064
0.0256252 0 0.00184145 0.0849741
0.024375 -2.71051e-20 0.008125 0.0833921
0.0246875 1.35525e-20 0.0071875 0.0836818
0.0240625 -6.77626e-21 0.0090625 0.0831022
0.023125 -2.71051e-20 0.01125 0.0824102
0.012481 -1.0842e-19 0.0225 0.0797049
-0.0225 0 0.0124878 0.0918163
0.0225 0 0.0125 0.08202
-0.0125 0 0.0225 0.0890012
0.0215613 0 0.0140625 0.0815348
0.0253125 -1.12938e-20 0.0046875 0.0843894
0.025625 0 0.00248658 0.0848708
0.02375 -2.71051e-20 0.01 0.0828131
0.025 -2.71051e-20 0.00625 0.0839642
0.0202842 2.25875e-21 0.015947 0.0809421
0.025625 -2.71051e-20 0.00312195 0.0847568
0.0177688 -9.03502e-21 0.01875 0.0802632
0.0218746 0 0.01375 0.0816491
0.0258379 2.71051e-20 0 0.0851064
0.0228125 4.51751e-21 0.0121875 0.0821381
0.0234375 4.51751e-21 0.0109375 0.0825305
0.0253125 0 0.0053125 0.0842387
0.0206155 -2.71051e-20 0.015625 0.0810937
0.0246875 1.35525e-20 0.0078125 0.0835122
0.025625 -2.71051e-20 0.00374969 0.0846329
0.024375 -2.71051e-20 0.00875 0.0832219
0.025 -2.71051e-20 0.006875 0.0837985