# pMean  POINT_DATA 37667
# x  y  z  pMean
-5.90671e-05 2.1684e-19 0 0.089694
0.000934805 0 0 0.0894752
-0.00106911 0 0 0.0899229
0.00140088 2.71051e-20 0 0.0893717
-0.00151888 -2.71051e-20 0 0.0900183
0.00117901 -9.03502e-21 0.00117113 0.0894136
-0.00128849 2.25875e-20 0.00117062 0.0899658
-4.31765e-05 1.0842e-19 0.00234072 0.0896212
0.00239261 0 0 0.0891445
-0.00253032 0 0 0.0902165
0.00336229 8.13152e-20 0 0.0889226
0.00242341 0 0.00234108 0.0890156
-0.00252293 0 0.00234014 0.0901947
-0.00355263 -5.42101e-20 0 0.0904275
0.00120442 1.35525e-20 0.0035713 0.0891948
-0.00127507 -9.03502e-21 0.00357065 0.0898477
0.00362707 -4.51751e-21 0.00117131 0.088852
0.00385067 -5.42101e-20 0 0.0888127
-0.00376956 -4.51751e-21 0.00117017 0.0904691
-0.00399133 0 0 0.0905118
-2.29192e-05 -1.0842e-19 0.00480025 0.0890893
0.00481724 0 0 0.0885894
-0.00501448 0 0 0.090693
0.00367197 -1.35525e-20 0.00357105 0.0885222
-0.00376301 4.51751e-21 0.00356998 0.0904516
0.00245907 -1.0842e-19 0.00480044 0.0883686
0.00487218 1.0842e-19 0.00233996 0.0884032
-0.00251212 0 0.00479977 0.0898183
-0.00501145 0 0.00233967 0.0907195
0.00575627 -5.42101e-20 0 0.0883618
-0.00604431 0 0 0.0908814
0.00605007 -1.807e-20 0.00116989 0.0882868
0.00122797 -4.51751e-21 0.006084 0.0882114
-0.001262 -9.03502e-21 0.00608355 0.0890326
0.00627263 5.42101e-20 0 0.0882574
-0.00625929 -4.51751e-21 0.00116985 0.0909228
-0.00647612 1.35525e-19 0 0.0909589
0.00493143 -2.1684e-19 0.00479869 0.0876989
-0.00500606 0 0.00479935 0.090509
0.00612525 -9.03502e-21 0.00356686 0.0878628
0.00371201 -1.35525e-20 0.00608361 0.0874792
-0.00375618 0 0.00608307 0.0898722
-0.00625636 0 0.00356948 0.0910046
0.00720746 0 0 0.0880844
-8.80336e-06 0 0.00736662 0.088104
-0.00750642 -1.0842e-19 0 0.0911476
0.00730091 1.0842e-19 0.00233311 0.0878466
0.00248389 -1.0842e-19 0.00736673 0.0873345
-0.00250453 1.0842e-19 0.00736633 0.0889555
-0.00750536 1.0842e-19 0.00233933 0.0912078
0.00810899 2.71051e-20 0 0.0878876
0.00844495 -4.51751e-21 0.00116271 0.0878118
-0.00854047 8.13152e-20 0 0.0913398
0.00866226 5.42101e-20 0 0.0877876
0.0061894 1.35525e-20 0.00607973 0.0868759
-0.00625302 -1.35525e-20 0.00608271 0.0906457
0.00124214 1.807e-20 0.00865691 0.0871725
-0.00125418 4.51751e-21 0.00865666 0.0879963
0.00739431 0 0.00479014 0.0871372
-0.0087541 0 0.00116965 0.0913825
0.00497255 0 0.00736563 0.086689
-0.00500221 -1.0842e-19 0.00736611 0.0898218
-0.00750287 -1.0842e-19 0.00479904 0.0911253
-0.00896833 0 0 0.0914161
0.00856709 0 0.00355042 0.0873096
0.00373618 9.03502e-21 0.00865671 0.0864778
-0.00375209 0 0.00865641 0.0889106
-0.00875292 0 0.00356915 0.0915074
0.00955779 0 0 0.087667
-2.33168e-06 -1.0842e-19 0.00994661 0.0871051
0.00971438 0 0.00230723 0.0874172
-0.0100026 1.0842e-19 0 0.091598
0.00249558 0 0.00994668 0.0863481
-0.00250115 0 0.00994648 0.0879822
-0.0100023 0 0.00233912 0.0916632
0.0103892 -8.13152e-20 0 0.0875619
0.00745704 0 0.00736086 0.0861993
-0.00750103 1.0842e-19 0.00736595 0.0906263
0.00866276 -4.51751e-21 0.00606706 0.0864443
-0.0087514 1.35525e-20 0.00608247 0.0912949
0.00622747 9.03502e-21 0.00865489 0.0859278
-0.006251 9.03502e-21 0.00865624 0.0898443
0.0107996 -2.25875e-20 0.00114301 0.087458
0.00985495 0 0.00476418 0.0867439
0.010977 8.13152e-20 0 0.0873775
-0.0110388 -2.71051e-20 0 0.0917871
-0.0100013 0 0.00479884 0.0916412
0.00499216 0 0.00994634 0.0857356
-0.00500053 -1.0842e-19 0.0099464 0.0889345
0.00124803 -9.03502e-21 0.0112174 0.0862202
-0.001251 4.51751e-21 0.0112172 0.0870478
-0.0112517 1.35525e-20 0.00116954 0.091828
-0.0114646 5.42101e-20 0 0.0918595
0.0110102 -1.807e-20 0.0035042 0.0869499
0.0118003 1.0842e-19 0 0.0870718
-0.0112513 9.03502e-21 0.00356894 0.0919342
0.00374639 4.51751e-21 0.0112173 0.0855369
-0.00375048 0 0.0112171 0.0879927
0.00871575 4.51751e-21 0.0086503 0.0855469
-0.00875046 9.03502e-21 0.00865614 0.0907074
0.012129 -1.0842e-19 0.00223333 0.0869065
0.0099385 0 0.00735088 0.0858771
-0.0100005 1.0842e-19 0.00736585 0.0913035
0.0074867 0 0.00994503 0.0852867
-0.00750024 0 0.00994635 0.0898944
-3.82247e-07 -2.1684e-19 0.0124879 0.0862348
-0.012501 0 0 0.092022
0.0126142 0 0 0.0870198
0.0111384 -4.51751e-21 0.00604172 0.0861763
-0.012501 0 0.00233899 0.0920683
0.00249923 1.0842e-19 0.0124879 0.0854702
-0.00250018 -1.0842e-19 0.0124878 0.0871393
-0.0112506 0 0.00608232 0.0917945
0.00624356 -4.51751e-21 0.0112169 0.0850143
-0.00625022 -1.35525e-20 0.0112171 0.0890124
0.0131915 -2.71051e-20 0 0.0869513
0.0123278 -1.0842e-19 0.00471106 0.0864248
0.0132267 9.03502e-21 0.00104247 0.0869524
-0.0125005 1.0842e-19 0.00479871 0.0920471
0.00499843 -1.0842e-19 0.0124878 0.0848666
-0.00500008 0 0.0124878 0.0881527
-0.0135382 2.71051e-20 0 0.0921926
0.00124969 -4.51751e-21 0.0137434 0.0854193
-0.00125016 0 0.0137433 0.0862741
-0.0137506 1.807e-20 0.00116948 0.0922284
0.0135067 9.03502e-21 0.00337591 0.0864956
-0.013963 8.13152e-20 0 0.0922583
0.00997739 -1.0842e-19 0.00994339 0.0850096
-0.0100001 0 0.00994633 0.090777
0.014125 -5.42101e-20 0 0.0868793
0.0111994 -1.807e-20 0.00864583 0.0853282
-0.0112502 -4.51751e-21 0.00865607 0.0914113
-0.0137505 -4.51751e-21 0.00356883 0.0922838
0.00873818 -1.35525e-20 0.0112161 0.0846713
-0.00875009 -9.03502e-21 0.0112171 0.0900405
0.00374931 -4.51751e-21 0.0137434 0.0847263
-0.00375007 4.51751e-21 0.0137433 0.0872663
0.0143989 0 0 0.086819
0.0124168 -1.0842e-19 0.00734439 0.0856867
0.0144673 2.71051e-20 0.000330796 0.0868204
-0.0125002 0 0.00736579 0.0918205
0.00749644 -1.0842e-19 0.0124877 0.0844408
-0.00750003 -1.0842e-19 0.0124878 0.0892283
0.014749 0 0.000698994 0.0868068
0.0148911 0 0 0.0867903
0.0136237 4.51751e-21 0.0060267 0.0860001
0.0148703 -1.807e-20 0.00154753 0.086695
0.0149756 -5.42101e-20 0.000309223 0.0867904
-2.93175e-08 0 0.0149988 0.0855535
-0.0150003 1.0842e-19 0 0.0924106
-0.0137503 -9.03502e-21 0.00608223 0.0921537
0.00624827 0 0.0137433 0.0842123
-0.00625003 9.03502e-21 0.0137433 0.088366
0.0151457 2.71051e-20 0 0.0868813
-0.0150004 1.0842e-19 0.00233892 0.0924263
0.00249992 -1.0842e-19 0.0149988 0.0847656
-0.00250001 -1.0842e-19 0.0149988 0.0865
0.0153731 3.01167e-21 0.000848982 0.0867419
0.0154079 0 0 0.0868449
0.0154333 2.71051e-20 0.000196582 0.0868442
0.0148306 0 0.004694 0.0862577
0.0155974 0 0.00145938 0.0865551
-0.0150002 -1.0842e-19 0.00479864 0.0923687
0.0157765 -2.71051e-20 0.000438014 0.0868246
0.00499965 1.0842e-19 0.0149988 0.0841575
-0.00500001 0 0.0149988 0.0875786
0.0112268 -1.35525e-20 0.0112162 0.0845105
-0.01125 -9.03502e-21 0.0112171 0.0909808
0.0124603 -1.0842e-19 0.0099452 0.0848781
-0.0125 -1.0842e-19 0.00994631 0.091508
0.00999097 -1.0842e-19 0.0124877 0.0842009
-0.01 0 0.0124878 0.0902949
-0.016038 -5.42101e-20 0 0.0925666
0.0160421 2.71051e-20 0 0.0868627
0.0160727 2.71051e-20 0.000187423 0.0868622
0.0136832 -4.51751e-21 0.0086521 0.0852234
-0.0137501 9.03502e-21 0.00865604 0.0919251
0.0161756 0 0.00179843 0.0867228
0.0162555 -9.03502e-21 0.000985774 0.0868214
0.00874511 1.35525e-20 0.0137433 0.0838901
0.0162903 2.71051e-20 0 0.0869324
-0.0162502 0 0.00116945 0.0925983
-0.00875001 0 0.0137433 0.089526
0.00124997 0 0.0162494 0.0848275
-0.00125001 1.807e-20 0.0162494 0.0857187
-0.0164624 -2.71051e-20 0 0.0926294
0.0161381 -8.13152e-21 0.00328259 0.0865857
0.0165248 0 0 0.0869403
0.0165235 2.71051e-20 0.000214492 0.0869391
0.0149084 0 0.00736477 0.0856231
-0.0162502 9.03502e-21 0.00356877 0.0925894
0.00374983 -4.51751e-21 0.0162494 0.0841165
-0.00375 0 0.0162494 0.0867647
-0.0150001 -2.1684e-19 0.00736576 0.0922018
0.00749843 0 0.0149988 0.0837442
-0.0075 0 0.0149988 0.0887548
0.0168483 5.42101e-20 0.000518488 0.0869758
0.0168009 0 0.00159734 0.086891
0.0171763 2.71051e-20 0 0.0870433
0.0171798 0 0.000213918 0.0870429
0.0162492 7.7443e-21 0.00607578 0.0860056
-0.0162501 1.35525e-20 0.00608218 0.0924329
0.017409 0 0 0.0871004
0.00624914 -9.03502e-21 0.0162494 0.0836053
-0.00625 0 0.0162494 0.0879406
0.0174064 0 0.00108106 0.087021
-1.02401e-14 0 0.0175 0.0851057
-0.0175001 0 0 0.0927917
0.0174597 -4.51751e-21 0.00218801 0.0868586
0.017634 2.71051e-20 0 0.0871529
0.0176441 0 0.000226518 0.087151
0.0124768 0 0.0124885 0.0841246
-0.0175001 -1.0842e-19 0.00233889 0.0927717
-0.0125 0 0.0124878 0.0912658
0.00249998 -1.0842e-19 0.0175 0.0842935
-0.0025 0 0.0175 0.0860935
0.013712 1.35525e-20 0.0112202 0.0844855
-0.01375 4.51751e-21 0.0112171 0.0917484
0.011236 9.03502e-21 0.0137435 0.0837616
-0.01125 0 0.0137433 0.0906704
0.0149484 0 0.00995676 0.0848769
0.0179798 0 0.000551805 0.0872153
-0.015 0 0.0099463 0.0920721
0.00999396 0 0.0149988 0.0835302
-0.01 0 0.0149988 0.0899735
0.0177172 -9.03502e-21 0.00353836 0.0865727
0.0179881 -5.42101e-20 0.00171051 0.0869845
-0.0175001 -1.0842e-19 0.00479861 0.092663
0.0175164 0 0.00482374 0.0863247
0.00499976 0 0.0175 0.0836789
-0.005 0 0.0175 0.0872317
0.0182698 -2.71051e-20 0 0.0871947
0.0180402 0 0.00291708 0.086724
0.0182858 0 0.000227338 0.0871932
-0.01625 -4.51751e-21 0.00865603 0.0923051
0.00874647 -9.03502e-21 0.0162494 0.0833034
-0.00875 -9.03502e-21 0.0162494 0.0892115
0.0162929 -6.45358e-21 0.00868413 0.0852816
0.018496 -2.71051e-20 0 0.087142
0.0180113 0 0.00422619 0.0864004
-0.018538 -2.71051e-20 0 0.0929517
0.0185987 9.03502e-21 0.00110122 0.0870564
0.0187236 0 0 0.0872015
0.0187582 0 0.000214893 0.0871997
0.0177321 -2.71051e-20 0.00614951 0.0860596
-0.01875 0 0.00116944 0.0929828
0.00124999 0 0.01875 0.0844932
-0.00125 1.807e-20 0.01875 0.0854124
0.0186544 -4.51751e-21 0.00230765 0.0868142
0.0180198 0 0.00548223 0.0862639
-0.0189621 -5.42101e-20 0 0.0930189
-0.0175 0 0.00736574 0.092523
0.0186737 9.03502e-21 0.00359745 0.0865607
0.00749863 0 0.0175 0.0832766
-0.0075 0 0.0175 0.0884901
0.0175523 -1.807e-20 0.00743048 0.0857262
-0.01875 9.03502e-21 0.00356874 0.0929014
0.00374987 -9.03502e-21 0.01875 0.0837696
-0.00375 1.807e-20 0.01875 0.0865032
0.0191417 0 0.000523466 0.0871673
0.0180335 0 0.00682266 0.0858596
0.0186794 -1.807e-20 0.00489465 0.0863181
0.0193409 0 0 0.0871661
0.019272 5.42101e-20 0.00165716 0.0868572
0.0193788 -2.71051e-20 0.000199 0.0871641
0.0137222 2.25875e-20 0.0137444 0.0837858
-0.01375 9.03502e-21 0.0137433 0.0917043
0.0149636 0 0.0124914 0.0841819
0.0124806 -2.1684e-19 0.0149989 0.0834922
0.0192887 -5.42101e-20 0.00296028 0.0866872
-0.015 0 0.0124878 0.0920798
-0.0125 0 0.0149988 0.0911531
0.0195825 0 0 0.0871596
0.0186882 4.51751e-21 0.00618728 0.0860504
-0.01875 -9.03502e-21 0.00608217 0.0927155
-0.01625 0 0.011217 0.0923416
0.0112379 9.03502e-21 0.0162494 0.0832074
0.0180425 0 0.00805496 0.0856324
-0.01125 9.03502e-21 0.0162494 0.0905144
0.00624921 -1.807e-20 0.01875 0.0832617
-0.00625 1.807e-20 0.01875 0.0877399
0.0193156 1.0842e-19 0.00426883 0.086431
0.0177574 0 0.0087192 0.0853988
0.0197848 0 0 0.0873142
0.0163125 1.41979e-20 0.0112323 0.0845966
0.0197851 -2.71051e-20 0.00105651 0.087011
0.0199433 2.25875e-21 0.000343781 0.0873042
0.0199517 -2.03288e-20 0 0.087304
-0.02 0 0 0.0932089
-1.024e-14 0 0.02 0.0849262
0.0199137 -1.35525e-20 0.002322 0.0867795
0.0193276 5.42101e-20 0.00556506 0.0861815
0.0186907 0 0.007459 0.0857472
-0.0175 -1.0842e-19 0.00994629 0.0925265
-0.02 -1.0842e-19 0.00233888 0.0931565
0.0198262 -4.51751e-21 0.00353876 0.086607
0.0201482 0 0 0.0871362
0.00999425 1.0842e-19 0.0175 0.0830878
0.00249998 -1.0842e-19 0.02 0.0841019
-0.0025 0 0.02 0.0859411
-0.01 0 0.0175 0.0898205
0.017571 9.03502e-21 0.00998358 0.0850634
0.0202492 0 0.000417568 0.0870873
0.0197197 0 0.00492314 0.0863443
0.0198624 -1.35525e-20 0.00431664 0.0864842
0.0203337 0 0 0.0871773
0.0180485 5.42101e-20 0.00938017 0.0851886
0.0203539 -1.12938e-21 0.000720236 0.087236
0.0204602 -4.51751e-21 0.00021777 0.0871648
0.0193297 0 0.00683974 0.0859064
0.0205466 1.35525e-20 0 0.08716
-0.02 -1.0842e-19 0.00479859 0.0930026
0.0205431 0 0.00166059 0.0868527
0.00499976 0 0.02 0.0834897
-0.005 0 0.02 0.0871204
0.018691 1.807e-20 0.00873215 0.0854259
0.0206055 -1.35525e-20 0.00113383 0.0869805
0.020248 4.51751e-21 0.00398707 0.086577
0.0198777 1.35525e-20 0.00559885 0.0862175
-0.01875 0 0.00865601 0.0926531
0.0197161 9.03502e-21 0.00622263 0.0860777
0.00874659 0 0.01875 0.0829788
-0.00875 1.807e-20 0.01875 0.0890881
0.0206918 0 0.000485439 0.0870596
0.0207292 0 0 0.0870902
0.0202493 0 0.00468188 0.0864294
0.020562 0 0.00303088 0.0867282
0.0205791 -1.35525e-20 0.0036086 0.0866489
0.0209125 -1.35525e-20 0 0.0871136
0.0180516 0 0.0105934 0.0849988
0.0202818 -2.25875e-21 0.00528131 0.086332
0.0193324 5.42101e-20 0.00810405 0.0855904
0.0209518 -2.25875e-21 0.000794603 0.0872285
0.0210055 0 0.000255445 0.0871075
0.0177662 9.03502e-21 0.0112451 0.0847472
0.0198824 0 0.0068589 0.0859535
-0.021038 -1.35525e-19 0 0.0933909
0.0205908 -4.51751e-21 0.00435357 0.0865101
0.020941 9.03502e-21 0.00237638 0.0868274
0.0197229 0 0.00748077 0.0857949
0.0210741 1.54886e-20 0.00124456 0.086996
0.0211253 0 0 0.0871093
0.02028 9.03502e-21 0.00593584 0.0861691
0.0211074 1.35525e-20 0.00172891 0.0869054
0.0149672 0 0.0149992 0.0835968
0.0186932 4.51751e-21 0.00999396 0.0851177
0.0206045 0 0.00499039 0.0863811
-0.015 0 0.0149988 0.0922052
0.0137244 -1.35525e-20 0.0162495 0.0832706
-0.02125 -4.51751e-21 0.00116944 0.0934254
-0.01625 9.03502e-21 0.0137433 0.0925604
0.0212778 0 0.000537366 0.0870698
-0.01375 -1.807e-20 0.0162494 0.0917544
0.00124999 1.807e-20 0.02125 0.0844503
-0.00125 -2.71051e-20 0.02125 0.0853797
0.0209137 2.25875e-21 0.00401727 0.0865534
0.0202812 1.12938e-21 0.00654348 0.0860756
0.021312 0 0 0.0870822
-0.02 0 0.00736573 0.0928748
0.0163191 -2.58143e-21 0.0137469 0.0839578
0.0210372 -1.16165e-20 0.00357854 0.0866673
0.0211194 0 0.00306084 0.0867665
0.00749863 0 0.02 0.0831024
-0.0075 0 0.02 0.0884305
0.0206095 2.71051e-20 0.0056213 0.0862494
0.0209335 -2.25875e-21 0.00469187 0.0864444
-0.021462 -1.35525e-19 0 0.0934694
0.0198906 -1.35525e-20 0.00811521 0.0856576
0.019334 5.42101e-20 0.00936858 0.0852945
0.012481 -1.0842e-19 0.0175 0.0830847
-0.0175 0 0.0124878 0.0927396
-0.0125 0 0.0175 0.0911456
0.0215095 1.35525e-20 0 0.0871172
0.0202822 -1.12938e-21 0.00718905 0.0859027
0.0206114 0 0.00624672 0.086129
-0.02125 -4.51751e-21 0.00356873 0.0932927
0.0175768 2.71051e-20 0.0124975 0.0844205
0.0215533 -6.77626e-21 0.00086045 0.0871471
0.00374987 -9.03502e-21 0.02125 0.0837309
-0.00375 1.807e-20 0.02125 0.0864943
0.0197282 1.807e-20 0.00874265 0.085499
0.0209184 4.51751e-21 0.00530361 0.0863149
0.0215457 0 0.00146101 0.0870845
0.0215987 4.51751e-21 0.000276646 0.0871213
0.0215159 4.51751e-21 0.00210555 0.0867889
0.0180546 0 0.0118959 0.0845261
0.021231 0 0.0043614 0.0865382
0.0215157 -1.12938e-21 0.00273879 0.0868756
0.0217116 1.35525e-20 0 0.0871301
0.0206127 0 0.00687123 0.085999
0.0202827 2.25875e-21 0.00779649 0.0857995
0.0209271 -6.77626e-21 0.00593526 0.0862045
0.0212132 2.71051e-20 0.00496926 0.0864116
0.0215326 -3.38813e-21 0.00340415 0.0867017
0.0186946 9.03502e-21 0.011248 0.0848011
-0.01875 9.03502e-21 0.011217 0.0928363
0.0112381 0 0.01875 0.0829129
-0.01125 1.807e-20 0.01875 0.0904881
0.0218884 0 0.00056802 0.0870879
0.0215249 -1.12938e-21 0.00403417 0.0866173
0.0218693 -2.71051e-20 0.00116661 0.0870313
0.0219118 0 0 0.0871141
0.021857 0 0.00180024 0.0869405
0.020929 -2.25875e-21 0.0065602 0.0860757
0.0206135 2.71051e-20 0.00749641 0.085865
0.0202832 -2.25875e-21 0.00844256 0.0856148
0.0212419 0 0.00562259 0.0862829
0.0218488 0 0.00244594 0.086879
0.0198921 -1.35525e-20 0.00937253 0.0853693
0.0215471 4.51751e-21 0.00467385 0.0865034
0.0193355 -5.42101e-20 0.0106231 0.0849896
0.0218549 2.71051e-20 0.00309251 0.0867974
-0.02125 1.807e-20 0.00608216 0.0930899
0.0197292 -9.03502e-21 0.00999813 0.0852031
0.0221193 -1.35525e-20 0 0.0871306
0.0209299 0 0.00718499 0.0859475
0.0212453 0 0.0062492 0.0861624
0.00624921 -1.807e-20 0.02125 0.0832387
-0.00625 1.807e-20 0.02125 0.087764
0.0206142 0 0.00812214 0.0857239
0.0218602 0 0.0037332 0.0866779
0.0215479 -4.51751e-21 0.00530169 0.0863703
0.0221931 2.25875e-21 0.000875308 0.0871005
0.0222091 9.03502e-21 0.000287223 0.0871295
0.0202837 -1.58113e-20 0.00905069 0.0855207
0.0221806 -2.25875e-21 0.001495 0.0870133
0.0221729 -2.25875e-21 0.00213628 0.0869423
0.0218648 2.71051e-20 0.0043649 0.086573
0.0180554 -5.42101e-20 0.0131005 0.0843879
0.0223146 1.35525e-20 0 0.0871359
0.0212462 -2.71051e-20 0.00687392 0.0860346
-0.02 0 0.00994629 0.0929599
0.0209305 4.51751e-21 0.00781023 0.0858131
0.0221717 -4.51751e-21 0.00278024 0.0868628
0.00999425 1.0842e-19 0.02 0.0829377
0.0215574 6.77626e-21 0.00593597 0.0862501
-0.01 0 0.02 0.0898206
0.0206151 -2.71051e-20 0.00874856 0.0855859
0.021869 0 0.00499521 0.0864512
0.0221756 2.25875e-21 0.0034203 0.0867518
0.0177686 9.03502e-21 0.0137495 0.0841399
0.020284 0 0.00969614 0.0853249
0.0186955 9.03502e-21 0.0124995 0.0845035
-0.0225 0 0 0.0936977
-1.02401e-14 0 0.0225 0.0850386
0.0225117 0 0.000578583 0.0871107
0.0225229 2.71051e-20 0 0.0871311
0.0212467 2.71051e-20 0.00749879 0.0859041
0.0225008 -5.42101e-20 0.00118742 0.0870638
0.0215594 -2.25875e-21 0.00656172 0.0861215
0.0221795 0 0.00405365 0.0866499
0.0198927 0 0.0106245 0.0850705
0.0209311 0 0.00843592 0.0856757
0.0224935 0 0.00182613 0.0870053
0.02187 2.71051e-20 0.00562207 0.0863314
-0.0225 0 0.00233887 0.0936256
0.0224908 0 0.0024723 0.0869269
0.00249998 -1.0842e-19 0.0225 0.0842225
-0.0025 0 0.0225 0.0860541
0.0206154 2.71051e-20 0.00937446 0.0854435
0.0221823 2.25875e-21 0.00468259 0.0865338
0.0193362 0 0.0118745 0.0846891
0.0224923 -2.71051e-20 0.0031118 0.0868264
0.0197298 9.03502e-21 0.0112496 0.0849062
0.02156 2.25875e-21 0.00718659 0.0859943
0.0227337 0 0 0.0871422
0.021247 -2.71051e-20 0.00812398 0.0857692
0.0218727 -2.71051e-20 0.00624927 0.0862076
0.0202841 -6.77626e-21 0.0103026 0.0852278
0.0224952 2.71051e-20 0.00374415 0.0867213
0.0209317 0 0.00906182 0.0855381
0.0221841 -6.77626e-21 0.00531005 0.0864132
0.0228272 4.51751e-21 0.000290736 0.0871439
0.0228187 0 0.000886665 0.0871165
0.0228117 -4.51751e-21 0.00151191 0.0870671
0.0228077 -2.25875e-21 0.00215451 0.0869967
0.0206155 0 0.00999985 0.0853001
0.0224972 -2.71051e-20 0.00437224 0.0866123
0.0218735 0 0.00687445 0.0860804
0.0229286 2.71051e-20 0 0.087151
0.0215604 -2.25875e-21 0.0078116 0.0858619
-0.02125 1.35525e-20 0.00865601 0.0930601
0.022185 2.25875e-21 0.00593627 0.0862925
0.022807 2.25875e-21 0.00279629 0.0868987
0.0212475 2.71051e-20 0.00874944 0.0856331
0.00874659 9.03502e-21 0.02125 0.0829789
-0.01625 9.03502e-21 0.0162494 0.0928288
-0.00875 0 0.02125 0.0891454
-0.0225 0 0.00479859 0.0934459
0.0149676 0 0.0175 0.0832291
0.0163205 -7.7443e-21 0.0162497 0.0834907
0.0224981 -2.71051e-20 0.00499856 0.0864951
-0.0175 0 0.0149988 0.0930762
0.00499976 0 0.0225 0.0836264
-0.005 0 0.0225 0.0872388
-0.015 0 0.0175 0.0923649
0.0202842 -4.51751e-21 0.0109469 0.0850281
0.0209319 2.25875e-21 0.00968728 0.0853952
0.0228084 -2.25875e-21 0.0034307 0.086796
0.018056 -5.42101e-20 0.0143983 0.0839335
0.0175779 0 0.0149998 0.0838783
0.0218739 -2.71051e-20 0.00749941 0.0859513
0.0221861 6.77626e-21 0.00656201 0.086167
0.0231393 2.71051e-20 0 0.0871576
0.0231335 2.71051e-20 0.000583267 0.0871444
0.0215608 -2.25875e-21 0.00843687 0.0857285
0.0231277 -2.71051e-20 0.00119646 0.087112
0.0198929 0 0.0118749 0.0847781
0.0228102 -2.25875e-21 0.00405972 0.0866906
0.0224985 0 0.00562421 0.0863748
0.0206155 5.42101e-20 0.010625 0.0851552
0.0231238 0 0.00183721 0.0870543
0.0186957 -4.51751e-21 0.0137498 0.0842204
0.0212477 0 0.00937484 0.0854943
0.0137246 -9.03502e-21 0.01875 0.0830116
-0.01875 1.807e-20 0.0137433 0.093247
-0.01375 -1.807e-20 0.01875 0.0918471
0.0231223 2.71051e-20 0.00248253 0.0869669
0.0228112 -4.51751e-21 0.00468621 0.0865769
0.0221866 6.77626e-21 0.00718706 0.0860395
0.0231227 2.71051e-20 0.00311907 0.0868676
0.0218741 0 0.00812449 0.0858193
0.0209319 -4.51751e-21 0.0103125 0.0852572
0.0202842 -6.77626e-21 0.0115529 0.0849418
0.0233506 -1.35525e-20 0 0.0871706
0.022499 0 0.00624956 0.0862513
0.01973 9.03502e-21 0.0124999 0.0846191
0.0193365 0 0.0131249 0.0844124
0.0215611 0 0.00906223 0.0855916
0.0228116 2.25875e-21 0.00531183 0.0864581
0.0231237 2.71051e-20 0.00374822 0.0867649
0.0234469 -6.77626e-21 0.000292113 0.0871753
0.0234425 2.25875e-21 0.00089102 0.0871555
0.0212478 2.71051e-20 0.00999997 0.0853552
0.0206155 0 0.01125 0.085013
0.0234387 0 0.00151844 0.087115
0.0221868 -6.77626e-21 0.00781209 0.0859103
0.0224994 -2.71051e-20 0.00687472 0.0861251
0.0231244 -2.71051e-20 0.0043744 0.0866559
0.0234365 0 0.0021615 0.0870355
-0.023538 -5.42101e-20 0 0.0939173
0.0235476 0 0 0.0871832
0.0218744 0 0.00874973 0.0856855
0.0228118 2.25875e-21 0.00593712 0.086336
0.012481 -1.0842e-19 0.02 0.082965
-0.02 0 0.0124878 0.0933011
-0.0125 0 0.02 0.0912123
0.0234359 2.25875e-21 0.00280208 0.0869411
0.020932 6.77626e-21 0.0109375 0.0851119
0.0215613 2.25875e-21 0.00968744 0.0854543
0.0231246 0 0.00499972 0.0865397
0.0202842 -4.51751e-21 0.012197 0.0847373
-0.0225 0 0.00736572 0.0933229
0.0234363 2.25875e-21 0.00343443 0.0868396
0.0224996 0 0.00749974 0.0859973
0.00749863 0 0.0225 0.0832596
-0.0075 0 0.0225 0.0885523
0.022187 6.77626e-21 0.00843721 0.0857782
0.022812 -2.25875e-21 0.00656227 0.0862111
0.0212478 0 0.010625 0.085215
0.0237586 0 0 0.0871958
0.0237556 5.42101e-20 0.000584582 0.087187
-0.02375 4.51751e-21 0.00116943 0.0939574
0.0237524 0 0.00119912 0.0871597
0.00124999 0 0.02375 0.08472
-0.00125 -1.807e-20 0.02375 0.085632
0.0234369 0 0.0040617 0.0867349
0.0206155 0 0.011875 0.0848708
0.0218746 0 0.00937493 0.0855498
0.0231247 2.71051e-20 0.00562484 0.086419
0.0237503 2.71051e-20 0.00184058 0.0871001
0.019893 1.35525e-20 0.013125 0.0845013
0.0180561 0 0.0156015 0.083907
0.0237494 -2.71051e-20 0.00248567 0.0870112
0.0215613 0 0.0103125 0.0853158
0.0234373 -6.77626e-21 0.00468725 0.0866218
0.020932 -4.51751e-21 0.0115625 0.0849738
0.0228122 2.25875e-21 0.00718734 0.0860844
0.0224997 -2.71051e-20 0.00812478 0.0858675
0.0237494 2.71051e-20 0.00312126 0.0869131
0.0231248 0 0.00624989 0.0862953
-0.023962 5.42101e-20 0 0.0940093
0.0221872 -4.51751e-21 0.00906238 0.0856452
0.0186958 -9.03502e-21 0.015 0.0839854
0.0239698 -1.35525e-20 0 0.0872113
0.0202842 -2.25875e-21 0.012803 0.0846607
-0.02375 1.35525e-20 0.00356873 0.0938019
-0.02125 -9.03502e-21 0.011217 0.0933201
0.0234374 0 0.00531237 0.0865028
0.0112381 0 0.02125 0.0829385
0.0212478 -2.71051e-20 0.01125 0.0850753
0.0237497 2.71051e-20 0.00374935 0.0868103
0.00374987 0 0.02375 0.0840219
-0.01125 -9.03502e-21 0.02125 0.090574
-0.00375 0 0.02375 0.0867315
0.01973 0 0.01375 0.084353
0.0218746 -2.71051e-20 0.00999999 0.0854133
0.0240682 -4.51751e-21 0.000292422 0.0872173
0.0177688 0 0.01625 0.0836881
0.0240659 4.51751e-21 0.000892125 0.0872011
0.0193366 1.0842e-19 0.014375 0.0841474
0.0206155 0 0.0125 0.0847334
0.0240638 4.51751e-21 0.00152022 0.0871625
0.0228123 4.51751e-21 0.00781235 0.0859562
0.0231248 2.71051e-20 0.00687493 0.0861694
0.0224998 0 0.00874988 0.0857361
0.0237499 0 0.00437489 0.0867009
0.0240626 -4.51751e-21 0.00216353 0.0870827
0.0241688 0 0 0.0872255
0.0215613 6.77626e-21 0.0109375 0.0851776
0.0234374 6.77626e-21 0.00593743 0.0863802
0.0221873 -9.03502e-21 0.00968747 0.0855098
0.020932 -9.03502e-21 0.0121875 0.0848322
0.0240622 2.25875e-21 0.0028038 0.0869873
0.02375 2.71051e-20 0.00499997 0.0865843
0.0240622 2.25875e-21 0.00343551 0.0868865
0.0231249 0 0.00749994 0.0860422
0.0218746 0 0.010625 0.0852763
0.0228124 6.77626e-21 0.0084374 0.0858264
0.0202842 2.25875e-21 0.013447 0.0844638
0.0234374 4.51751e-21 0.00656245 0.086255
0.0212478 -2.71051e-20 0.011875 0.0849375
0.0224999 2.71051e-20 0.00937497 0.0856033
0.0243798 0 0 0.0872399
0.0243784 0 0.000584785 0.0872325
0.0240624 -2.25875e-21 0.00406221 0.0867805
0.0243767 2.71051e-20 0.00119964 0.0872072
0.02375 0 0.00562498 0.0864631
0.0206155 -2.71051e-20 0.013125 0.0846004
0.0243755 0 0.00184134 0.0871482
0.0215613 4.51751e-21 0.0115625 0.0850405
0.0221873 -4.51751e-21 0.0103125 0.0853751
0.024375 -2.71051e-20 0.00248644 0.0870588
0.0231249 0 0.00812495 0.0859137
0.0234375 -4.51751e-21 0.00718746 0.0861284
0.0240625 0 0.00468745 0.0866664
-0.02375 9.03502e-21 0.00608215 0.0935945
0.020932 -4.51751e-21 0.0128125 0.0847052
0.019893 1.35525e-20 0.014375 0.0842468
0.0228124 -4.51751e-21 0.00906245 0.0856956
0.00624921 9.03502e-21 0.02375 0.0835528
0.02375 0 0.00624999 0.0863387
-0.00625 0 0.02375 0.0879808
0.0243749 2.71051e-20 0.00312184 0.0869601
0.0245911 0 0 0.0872561
0.0218746 0 0.01125 0.0851403
-0.0225 0 0.00994629 0.0934421
0.00999425 1.0842e-19 0.0225 0.0831158
0.0224999 0 0.01 0.0854696
-0.01 0 0.0225 0.0899369
0.0240625 2.25875e-21 0.00531249 0.0865467
0.0212478 -2.71051e-20 0.0125 0.0848047
0.0243749 0 0.00374963 0.0868567
0.0202842 2.25875e-21 0.014053 0.0844085
0.0246907 6.77626e-21 0.000292434 0.0872625
0.0234375 -2.25875e-21 0.00781247 0.0860008
0.0246895 2.25875e-21 0.000892278 0.0872479
0.0231249 -2.71051e-20 0.00874997 0.0857842
0.02375 2.71051e-20 0.00687499 0.0862126
0.0180561 0 0.0168985 0.0835185
0.0246884 -4.51751e-21 0.00152058 0.0872106
0.0221873 -4.51751e-21 0.0109375 0.0852393
-0.0175 0 0.0175 0.0933906
0.024375 0 0.00437498 0.0867459
0.0215613 0 0.0121875 0.0849068
0.0186958 0 0.01625 0.0837895
0.0206155 0 0.01375 0.0844758
0.0246878 -6.77626e-21 0.00216396 0.0871305
0.0228125 2.25875e-21 0.00968749 0.0855635
0.0240625 0 0.00593749 0.0864232
0.01973 -9.03502e-21 0.015 0.0841228
0.0247913 2.71051e-20 0 0.087271
0.017578 0 0.0175 0.0835349
-0.01875 -3.61401e-20 0.0162494 0.0936851
-0.01625 -9.03502e-21 0.01875 0.0930486
0.0246875 -1.12938e-20 0.0028042 0.0870344
0.0163206 -1.67793e-20 0.01875 0.083274
0.0193366 5.42101e-20 0.015625 0.0839576
0.020932 -2.25875e-21 0.0134375 0.0845722
0.0225 0 0.010625 0.0853359
0.024375 -5.42101e-20 0.005 0.086628
0.0218746 0 0.011875 0.0850066
0.02375 0 0.00749999 0.0860854
0.0234375 -1.12938e-20 0.00843748 0.0858725
0.0246875 -4.51751e-21 0.00343578 0.0869334
0.0240625 -2.25875e-21 0.0065625 0.0862974
0.023125 0 0.00937499 0.085654
0.0212478 -2.71051e-20 0.013125 0.0846762
0.0149676 0 0.02 0.0831424
-0.02 0 0.0149988 0.0937721
-0.015 0 0.02 0.0925028
-0.025 0 0 0.0942612
-1.02403e-14 0 0.025 0.0854258
0.0250025 0 0 0.0872863
0.0250019 2.71051e-20 0.00058479 0.0872795
0.024375 2.71051e-20 0.005625 0.0865057
0.0221873 -4.51751e-21 0.0115625 0.0851066
0.0246875 9.03502e-21 0.00406232 0.0868261
0.0250009 2.71051e-20 0.0011997 0.0872551
0.0228125 9.03502e-21 0.0103125 0.0854314
0.0202842 -2.25875e-21 0.014697 0.0842167
0.0250004 0 0.00184145 0.087196
0.0215613 0 0.0128125 0.0847778
0.02375 2.71051e-20 0.00812499 0.0859577
-0.025 0 0.00233887 0.0941831
0.0240625 4.51751e-21 0.0071875 0.0861705
0.0250001 0 0.00248657 0.0871058
0.00249998 -1.0842e-19 0.025 0.0846384
-0.0025 0 0.025 0.0864081
0.0234375 2.25875e-21 0.00906249 0.0857436
0.0246875 -2.25875e-21 0.00468749 0.0867101
0.0206155 -2.71051e-20 0.014375 0.0843563
0.0225 0 0.01125 0.0852032
0.024375 -2.71051e-20 0.00625 0.0863804
0.025 2.71051e-20 0.00312194 0.0870068
0.0218746 0 0.0125 0.0848767
0.023125 2.71051e-20 0.01 0.0855232
0.025214 0 0 0.087303
0.020932 2.25875e-21 0.0140625 0.0844574
0.0246875 2.25875e-21 0.0053125 0.0865891
-0.02375 -9.03502e-21 0.00865601 0.093573
0.025 0 0.00374969 0.0869021
0.019893 2.71051e-20 0.015625 0.0840464
0.0137246 0 0.02125 0.0830631
0.0228125 -1.807e-20 0.0109375 0.0852993
0.0240625 2.25875e-21 0.0078125 0.0860431
-0.02125 -9.03502e-21 0.0137433 0.0938208
0.0212478 -2.71051e-20 0.01375 0.0845543
0.00874659 0 0.02375 0.0833136
-0.00875 1.807e-20 0.02375 0.0893291
-0.01375 -1.807e-20 0.02125 0.0919536
0.02375 0 0.00875 0.0858297
0.0221873 -4.51751e-21 0.0121875 0.0849755
0.0253141 0 0.000292407 0.0873098
0.024375 -2.71051e-20 0.006875 0.0862536
0.0253136 -2.25875e-21 0.000892266 0.0872957
0.025313 -6.77626e-21 0.00152059 0.0872588
0.0234375 2.25875e-21 0.0096875 0.0856142
0.025 2.71051e-20 0.004375 0.0867895
0.0246875 -2.25875e-21 0.0059375 0.0864644
0.0253127 0 0.00216402 0.0871773
0.0215613 4.51751e-21 0.0134375 0.0846538
0.0202842 -2.25875e-21 0.015303 0.0841875
0.0254148 -1.35525e-20 0 0.0873184
0.0225 0 0.011875 0.0850729
0.023125 -2.71051e-20 0.010625 0.0853925
-0.025 0 0.00479858 0.0939974
0.0253125 9.03502e-21 0.00280427 0.0870809
0.00499976 0 0.025 0.0840673
0.0206155 0 0.015 0.0842493
0.025 2.71051e-20 0.005 0.0866699
-0.005 0 0.025 0.0875516
0.0240625 1.58113e-20 0.0084375 0.0859156
0.024375 -2.71051e-20 0.0075 0.0861262
0.0218746 0 0.013125 0.0847517
0.02375 2.71051e-20 0.009375 0.0857015
0.0253125 0 0.00343582 0.0869789
0.0246875 4.51751e-21 0.0065625 0.0863375
0.01973 0 0.01625 0.08394
0.0180561 -5.42101e-20 0.0181015 0.0836409
0.020932 -1.35525e-20 0.0146875 0.0843396
0.0228125 9.03502e-21 0.0115625 0.0851695
0.0234375 -9.03502e-21 0.0103125 0.0854848
0.0186958 -4.51751e-21 0.0175 0.0836623
0.0221873 -4.51751e-21 0.0128125 0.0848504
0.025 -2.71051e-20 0.005625 0.086546
0.0256262 -2.71051e-20 0 0.0873342
0.0256259 -2.71051e-20 0.00058477 0.0873276
0.0253125 -4.51751e-21 0.00406234 0.0868695
0.0256255 0 0.0011997 0.0873034
0.0212478 -2.71051e-20 0.014375 0.0844401
0.0193366 0 0.016875 0.0837763
0.0256252 0 0.00184145 0.0872432
0.024375 -2.71051e-20 0.008125 0.0859989
0.0246875 1.35525e-20 0.0071875 0.0862099
0.0240625 -6.77626e-21 0.0090625 0.0857883
0.023125 -2.71051e-20 0.01125 0.0852631
0.012481 -1.0842e-19 0.0225 0.0831635
-0.0225 0 0.0124878 0.0938277
0.0225 0 0.0125 0.0849463
-0.0125 0 0.0225 0.0913124
0.0215613 0 0.0140625 0.084538
0.0253125 -1.12938e-20 0.0046875 0.0867516
0.025625 0 0.00248658 0.0871519
0.02375 -2.71051e-20 0.01 0.0855734
0.025 -2.71051e-20 0.00625 0.0864194
0.0202842 2.25875e-21 0.015947 0.08402
0.025625 -2.71051e-20 0.00312195 0.0870519
0.0177688 -9.03502e-21 0.01875 0.0834744
0.0218746 0 0.01375 0.0846334
0.0258379 2.71051e-20 0 0.0873512
0.0228125 4.51751e-21 0.0121875 0.0850422
0.0234375 4.51751e-21 0.0109375 0.0853559
0.0253125 0 0.0053125 0.0866288
0.0206155 -2.71051e-20 0.015625 0.0841541
0.0246875 1.35525e-20 0.0078125 0.0860824
0.025625 -2.71051e-20 0.00374969 0.0869453
0.024375 -2.71051e-20 0.00875 0.0858719