# pMean  POINT_DATA 43176
# x  y  z  pMean
6.77626e-21 0.000951594 0 0.0899031
0 0.000952378 6.05115e-05 0.0899033
1.35525e-20 0.00101666 0 0.0899181
6.77626e-21 0.00108259 0 0.0899335
1.35525e-20 0.00108205 6.12824e-05 0.0899335
1.0842e-19 -0.000230001 0.00117134 0.0896324
6.77626e-21 -0.00142666 0 0.0893481
6.77626e-21 -0.001427 4.90487e-05 0.0893481
6.77626e-21 -0.00147935 0 0.0893354
0 -0.00153146 0 0.0893233
0 -0.00153095 4.85233e-05 0.0893235
0 0.00226609 0.00117164 0.0902064
2.25875e-21 0.00102252 0.00234126 0.0898379
2.25875e-21 -0.00147475 0.00234099 0.0892831
0 -0.00272686 0.00117106 0.0890405
0 0.00343106 0 0.0904662
1.35525e-20 0.00343226 7.48638e-05 0.0904666
1.35525e-20 0.00351169 0 0.0904846
1.0842e-19 -0.000223755 0.00357153 0.0894965
-1.35525e-20 0.00359276 7.59703e-05 0.0905033
-1.35525e-20 0.00359358 0 0.0905033
-6.77626e-21 -0.00393441 0 0.0887402
0 -0.00393462 3.89347e-05 0.0887402
0 -0.00397618 0 0.0887296
-6.77626e-21 -0.00401725 3.85806e-05 0.0887199
-6.77626e-21 -0.00401757 0 0.0887198
4.51751e-21 0.00351914 0.00234148 0.0903748
0 0.00227377 0.00357189 0.0900113
0 -0.00272176 0.00357118 0.0889595
-5.64689e-22 -0.00397255 0.00234072 0.0887051
-2.1684e-19 0.00476133 0.00117192 0.090766
0 0.00102955 0.00480054 0.0892817
-5.64689e-22 -0.00146894 0.00480032 0.0887985
-1.0842e-19 -0.00522433 0.0011708 0.0884204
0 0.00590658 0 0.0910124
1.35525e-20 0.0059084 9.18337e-05 0.091013
5.64689e-22 0.00352769 0.00480072 0.0897623
0 0.0047708 0.00357214 0.0905091
-1.35525e-20 0.00600567 0 0.0910345
-1.0842e-19 -0.000217791 0.00608418 0.0885778
-1.35525e-20 0.00610537 9.33789e-05 0.0910566
1.35525e-20 0.00610661 0 0.0910566
0 -0.00396773 0.00480011 0.0883057
0 -0.00522013 0.00357084 0.0883974
0 -0.00644084 0 0.0881037
0 -0.00644097 3.05957e-05 0.0881037
0 0.00601513 0.00234156 0.090895
-6.77626e-21 -0.00647363 0 0.0880948
0 0.00228097 0.00608442 0.0890223
0 -0.00650597 3.03603e-05 0.0880869
0 -0.00650617 0 0.0880868
0 -0.00271679 0.00608392 0.0881438
-1.12938e-21 -0.00647075 0.00234045 0.0880998
0 0.00725575 0.00117208 0.0913067
8.47033e-22 0.00103463 0.00736665 0.0882865
8.47033e-22 -0.00146474 0.00736653 0.0878386
0 0.00602547 0.00480075 0.0902449
-2.1684e-19 0.0047795 0.00608458 0.0894857
0 -0.00772224 0.00117057 0.0877706
1.0842e-19 -0.00521598 0.00608368 0.0877083
-2.82344e-22 -0.00646674 0.0047999 0.0877956
0 0.00726737 0.00357211 0.0909904
-5.64689e-22 0.00353384 0.00736675 0.0887561
0 -0.00396424 0.00736643 0.0874058
0 0.0083778 0 0.0915365
0 0.00838051 0.000111807 0.0915374
-1.35525e-20 0.00849876 0 0.0915626
0 -0.00771879 0.00357053 0.0878096
0 0.00862057 0.000113948 0.0915873
1.35525e-20 0.00862241 0 0.0915874
0 -0.000214113 0.00865697 0.0875347
2.25875e-21 0.00851059 0.00234127 0.0913966
-3.38813e-21 -0.0089461 0 0.087442
-3.38813e-21 -0.00894617 2.37524e-05 0.087442
-2.1684e-19 0.00228541 0.0086571 0.088005
-3.38813e-21 -0.00897154 0 0.0874348
0 -0.00899669 2.35989e-05 0.0874282
0 -0.00899681 0 0.0874282
-2.1684e-19 -0.00271373 0.00865684 0.0870924
2.25875e-21 -0.00896926 0.00234021 0.0874695
-1.0842e-19 0.00727782 0.00608447 0.0899721
2.82344e-22 0.00603292 0.00736677 0.0892506
2.25875e-21 0.00852298 0.0048004 0.0907319
-1.41172e-22 -0.00646384 0.00736632 0.0869777
-2.1684e-19 0.00974959 0.00117197 0.0918219
-1.0842e-19 -0.00771532 0.00608345 0.0872558
0 0.00478485 0.00865718 0.0885046
7.75035e-20 0.00103451 0.00994923 0.0872968
-7.41154e-20 -0.00146477 0.00994448 0.0868329
-2.1684e-19 -0.00521343 0.00865671 0.0866733
-2.82344e-22 -0.00896592 0.00479971 0.087261
0 -0.0102205 0.00117037 0.0870998
0 0.00976367 0.00357144 0.0914577
7.24213e-20 0.0035336 0.00994335 0.0877921
0 0.00354007 0.00994334 0.0877915
5.14573e-20 -0.00396419 0.00994489 0.0863979
1.0842e-19 -0.0102177 0.00357025 0.0871979
0 0.0108441 0 0.0920443
0 0.0108481 0.000135646 0.0920455
0 0.0109914 0 0.0920771
0 0.01114 0.000138658 0.0921059
-2.71051e-20 0.0111428 0 0.092106
0 -0.000212546 0.0112174 0.0865813
-9.03502e-21 0.0110059 0.00234034 0.0918901
5.64689e-22 0.00853188 0.00736656 0.0897717
0 0.00728421 0.00865713 0.0890328
1.0842e-19 0.00228732 0.0112174 0.0870693
0 -0.0114503 0 0.0867648
0 -0.0114503 1.81853e-05 0.0867648
0 -0.0114698 0 0.0867594
3.38813e-21 -0.011489 1.80881e-05 0.086754
0 -0.0114891 0 0.086754
1.0842e-19 0.00977602 0.00608381 0.0904844
1.0842e-19 -0.00271244 0.0112173 0.0861263
-1.0842e-19 -0.00771318 0.0086566 0.0862689
4.23516e-22 -0.00895974 0.00736235 0.0865439
4.23516e-22 -0.00896729 0.00736236 0.086541
9.31736e-21 0.00603252 0.00994255 0.0883178
0 0.00604059 0.00994254 0.0883172
2.82344e-22 -0.011468 0.00234 0.0868194
7.05155e-20 -0.00646371 0.00994772 0.0859875
2.1684e-19 -0.0102148 0.00608326 0.0867719
-1.12938e-21 0.0110204 0.0047994 0.0912329
2.1684e-19 0.00478716 0.0112174 0.0875903
0 0.0122435 0.00117144 0.0923342
0 -0.00521236 0.0112172 0.085703
5.64689e-22 -0.0114652 0.00479955 0.0866955
-2.37169e-20 0.00103742 0.0124875 0.0864304
9.53971e-20 -0.00146246 0.0124882 0.0859589
0 0.01226 0.00356989 0.0919342
0 -0.012719 0.0011702 0.0864191
8.35386e-20 0.00353726 0.0124884 0.0869374
-1.0842e-19 0.00978349 0.0086568 0.08959
1.20596e-19 -0.00396235 0.0124875 0.0855227
1.41172e-22 0.00853624 0.00994662 0.0888737
0 -0.0127167 0.00357001 0.0865617
5.64689e-22 0.0110308 0.00736595 0.0903232
0 0.0133043 0 0.092566
0 0.0133101 0.00016476 0.0925678
1.0842e-19 0.00728695 0.0112174 0.0881439
-1.05879e-22 -0.00896334 0.00994548 0.0855941
1.0842e-19 -0.010213 0.0086565 0.0858659
2.71051e-20 0.0134843 0 0.0926128
0 -0.00771229 0.0112172 0.0853084
4.23516e-20 -0.0114661 0.00736317 0.086083
-2.71051e-20 0.0136661 0.000169324 0.092651
-2.71051e-20 0.0136704 0 0.0926514
-1.0842e-19 0.0122743 0.00608241 0.0910316
0 0.0135014 0.00233865 0.0924031
-1.0842e-19 -0.000212091 0.0137434 0.0857916
8.49151e-20 0.00603705 0.0124872 0.0874796
0 0.00228788 0.0137434 0.086282
0 -0.0139536 0 0.08608
-1.69407e-21 -0.0139536 1.37177e-05 0.08608
0 -0.0139682 0 0.0860758
0 -0.0139828 1.36577e-05 0.0860717
0 -0.0139828 0 0.0860717
0 -0.00271207 0.0137433 0.0853392
8.63709e-20 -0.00646227 0.0124876 0.0851204
0 -0.0127143 0.00608309 0.0862437
-2.82344e-22 -0.0139669 0.00233981 0.0861519
6.77626e-21 0.0135179 0.00479763 0.0917604
0 0.00478783 0.0137434 0.0868104
2.1684e-19 -0.00521206 0.0137433 0.0849249
0 -0.0139646 0.0047994 0.0860922
-1.0842e-19 0.0147376 0.00117073 0.0928896
8.47033e-22 0.0110359 0.00994643 0.0894618
1.0842e-19 0.00978668 0.0112174 0.0887302
0 0.0122827 0.00865616 0.0901794
3.23725e-20 0.00103796 0.0149988 0.0857475
1.40363e-19 -0.00146203 0.0149988 0.0852803
1.05879e-22 0.00853678 0.012487 0.0880567
1.0842e-19 -0.0102122 0.0112172 0.0849369
-1.25255e-19 -0.011463 0.00994715 0.0852062
0 0.0147565 0.00356775 0.092439
-1.0842e-19 -0.0152176 0.00117005 0.0857326
-1.24937e-20 -0.0089622 0.0124877 0.0847491
-1.0842e-19 -0.0127128 0.00865642 0.0854472
5.64689e-22 0.0135297 0.00736494 0.0909077
1.54206e-19 0.00353794 0.0149988 0.0862551
3.20185e-20 -0.00396203 0.0149988 0.0848539
-1.0842e-19 0.00728776 0.0137434 0.0873761
0 -0.0152158 0.00356979 0.0858961
0 0.0157567 0 0.093113
2.1684e-19 -0.00771205 0.0137433 0.0845479
0 0.0157653 0.000200597 0.0931156
-1.25784e-19 -0.0139652 0.00736838 0.0855871
1.0842e-19 0.0147725 0.00608051 0.0916125
-2.71051e-20 0.0159775 0 0.0931749
-4.51751e-21 0.0159972 0.00233633 0.0929406
6.61744e-24 0.00603803 0.0149987 0.0868029
-2.71051e-20 0.0162004 0.000207421 0.0932202
-2.71051e-20 0.0162074 0 0.0932212
1.0842e-19 -0.000212011 0.0162494 0.0852162
3.1466e-20 -0.00646202 0.0149988 0.0844682
0 -0.0152138 0.00608293 0.0856622
1.0842e-19 0.00228798 0.0162494 0.0857006
-1.69407e-21 -0.016456 0 0.0853876
-1.69407e-21 -0.016456 1.01993e-05 0.0853876
-1.69407e-21 -0.0164669 0 0.0853845
-1.0842e-19 -0.00271201 0.0162494 0.084775
0 -0.0164778 1.01638e-05 0.0853815
-1.69407e-21 -0.0164778 0 0.0853815
-2.82344e-22 -0.0164659 0.00233964 0.085465
-2.1684e-19 0.0122863 0.0112172 0.0893496
2.13876e-20 0.0110365 0.0124868 0.0886685
4.51751e-21 0.0160154 0.00479528 0.0923142
1.41172e-22 0.0135355 0.00994611 0.0900822
-1.0842e-19 0.00978761 0.0137434 0.0879788
0 0.00478796 0.0162494 0.0862279
9.40604e-20 -0.0114622 0.0124877 0.0844035
-1.0842e-19 -0.0127122 0.0112171 0.0845787
0 -0.005212 0.0162494 0.0843773
1.0842e-19 -0.010212 0.0137433 0.084206
1.0842e-19 0.0147819 0.00865531 0.0907999
1.35525e-19 -0.0139628 0.00994585 0.0848083
0 -0.0164641 0.00479927 0.0854452
0 0.00853784 0.0149987 0.0873904
-1.0842e-19 0.0172319 0.0011701 0.0934506
2.5861e-20 -0.00896199 0.0149988 0.0841227
0 -0.0152126 0.00865635 0.0849926
7.78528e-20 0.001038 0.0175 0.085296
1.20623e-19 -0.001462 0.0175 0.0848377
1.0842e-19 0.017253 0.0035653 0.0929639
0 0.0160286 0.00736361 0.0915209
0 -0.0177165 0.00116993 0.0850364
1.0842e-19 0.0072879 0.0162494 0.0867979
-7.22278e-20 0.003538 0.0175 0.0857997
1.11741e-19 -0.003962 0.0175 0.0844253
1.0842e-19 -0.007712 0.0162494 0.0840235
1.3129e-19 -0.0164645 0.0073643 0.0850405
-1.0842e-19 -0.0177151 0.00356961 0.0851967
-2.71051e-20 0.0182028 0 0.0936506
-2.71051e-20 0.0182155 0.000241221 0.093654
0 0.0172707 0.00607818 0.0922172
-1.14138e-19 0.013536 0.0124864 0.0893147
1.0842e-19 0.0122874 0.0137434 0.0886176
2.71051e-20 0.0184707 0 0.0937198
5.42854e-20 0.00603798 0.0175 0.0863483
-2.1684e-19 0.0147859 0.011217 0.0900016
0 0.0110381 0.0149986 0.0880167
0 0.0184934 0.00233259 0.0934849
7.03336e-20 -0.006462 0.0175 0.0840593
1.0842e-19 -0.012712 0.0137433 0.0838948
1.0842e-19 -0.0177135 0.0060828 0.085022
-1.85818e-20 -0.0139621 0.0124877 0.0840737
-2.71051e-20 0.0187394 0.000249081 0.0937678
2.71051e-20 0.0187499 0 0.0937692
0 -0.000212006 0.01875 0.0848947
-5.64689e-22 0.016035 0.00994571 0.0907326
-5.58926e-21 -0.011462 0.0149988 0.0838152
1.0842e-19 0.00228798 0.01875 0.0853725
1.0842e-19 -0.0152122 0.0112171 0.0842183
1.0842e-19 -0.002712 0.01875 0.0844649
0 -0.0189578 0 0.0846827
0 -0.0189578 7.48767e-06 0.0846827
0 -0.0189658 0 0.0846804
2.1684e-19 0.00978778 0.0162494 0.0874095
0 -0.0189738 7.46722e-06 0.0846782
-1.69407e-21 -0.0189738 0 0.0846782
-4.23516e-22 -0.0189651 0.0023395 0.0847545
-9.03502e-21 0.0185135 0.0047916 0.0928974
-1.0842e-19 -0.010212 0.0162494 0.083714
2.60463e-20 -0.0164626 0.00994597 0.0843817
0 0.0172808 0.0086543 0.0914468
0 0.00478797 0.01875 0.0858978
1.0842e-19 -0.005212 0.01875 0.084084
0 0.00853794 0.0175 0.0869407
1.69407e-20 -0.0189602 0.00479567 0.0847528
-4.23516e-22 -0.0189672 0.00479567 0.0847512
1.58078e-19 -0.008962 0.0175 0.0837401
1.0842e-19 -0.0177125 0.00865629 0.0844833
-1.0842e-19 0.0197268 0.0011683 0.0939755
-3.38813e-21 0.0185276 0.00736167 0.0921625
0 0.001038 0.02 0.0851137
1.47606e-20 -0.001462 0.02 0.0846621
0 0.0197514 0.00356002 0.0935273
0 0.00728791 0.01875 0.0864694
-2.1684e-19 0.0147871 0.0137433 0.0892921
2.64698e-23 0.013538 0.0149986 0.0886807
-2.1684e-19 -0.0202155 0.00116983 0.0843243
1.0842e-19 -0.007712 0.01875 0.0837524
-1.57772e-30 0.003538 0.02 0.085615
-1.86347e-20 0.016039 0.0124859 0.0899936
7.26331e-20 -0.0189639 0.00736469 0.0844335
1.0842e-19 0.0122876 0.0162494 0.0880613
3.28979e-21 -0.003962 0.02 0.084261
-2.81134e-20 -0.013962 0.0149988 0.0835409
0 -0.015212 0.0137433 0.0836054
-1.0842e-19 -0.0202144 0.00356944 0.0844623
-1.0842e-19 0.0172851 0.0112168 0.0906837
1.0842e-19 -0.012712 0.0162494 0.0834467
2.71051e-20 0.0206492 0 0.094203
-1.4792e-19 -0.0164621 0.0124879 0.0837453
0 0.0206673 0.000280665 0.0942082
0 0.0197697 0.00607424 0.0928579
5.9557e-22 0.0110378 0.0174999 0.0875758
0 0.006038 0.02 0.0861649
-6.1939e-20 -0.011462 0.0175 0.0834672
-5.42101e-20 0.0209637 0 0.0942875
-2.1684e-19 -0.0177121 0.0112171 0.0838357
3.28979e-21 -0.006462 0.02 0.0839112
-2.82344e-22 0.0185343 0.00994519 0.0914108
0 -0.0202132 0.00608269 0.0843221
-9.03502e-21 0.0209903 0.00232545 0.0940737
0 0.00978779 0.01875 0.087086
0 -0.000212006 0.02125 0.0848559
2.71051e-20 0.0212775 0.000287875 0.0943734
-2.71051e-20 0.0212916 0 0.0943768
0 -0.010212 0.01875 0.0834705
-1.0842e-19 0.00228798 0.02125 0.0853314
5.41042e-20 -0.0189619 0.00994606 0.0839074
-1.0842e-19 -0.002712 0.02125 0.0844327
8.47033e-22 -0.0214591 5.43834e-06 0.0839596
8.47033e-22 -0.0214707 0 0.0839567
0 0.0210123 0.00478532 0.0935248
0 0.0197796 0.008653 0.0921217
-1.41172e-22 -0.0214644 0.00233938 0.0840183
6.61744e-24 0.00853794 0.02 0.0867621
0 0.00478797 0.02125 0.085858
1.0842e-19 -0.005212 0.02125 0.0840625
-9.67102e-20 -0.008962 0.02 0.0836125
-5.29396e-23 0.016038 0.0149984 0.0893804
1.0842e-19 0.0147873 0.0162494 0.0887522
-1.0842e-19 -0.0202124 0.00865623 0.0839051
5.12455e-20 -0.0214607 0.00479643 0.0840124
-1.0842e-19 0.0172864 0.0137433 0.0899988
-5.2119e-20 0.0135377 0.0174999 0.088252
0 0.0222219 0.00116339 0.0946088
1.0842e-19 -0.015212 0.0162494 0.0832172
-3.67355e-20 -0.016462 0.0149988 0.0832904
-1.12938e-21 0.0210266 0.00735887 0.092835
-1.28749e-19 0.0185339 0.012485 0.0907017
0 -0.013962 0.0175 0.0832379
-1.0842e-19 0.0122876 0.01875 0.0877463
1.0842e-19 -0.017712 0.0137433 0.0833237
0 0.00728791 0.02125 0.0864344
-5.3507e-20 0.001038 0.0225 0.0852262
-2.1684e-19 0.0222501 0.00355028 0.0941606
1.47606e-20 -0.001462 0.0225 0.0847744
0 -0.007712 0.02125 0.0837458
0 -0.012712 0.01875 0.0832375
7.7927e-20 -0.0214634 0.00736691 0.0837626
-3.63298e-21 -0.018962 0.0124878 0.0833992
-1.0842e-19 0.0197839 0.0112166 0.0913926
1.0842e-19 -0.0227147 0.00116974 0.0835922
-5.80944e-20 0.003538 0.0225 0.0857301
-4.37413e-20 0.011038 0.0199999 0.0874044
-3.54881e-20 -0.003962 0.0225 0.0843754
-1.0842e-19 -0.0227139 0.00356931 0.0836957
3.28979e-21 -0.011462 0.02 0.0833642
-2.1684e-19 0.0222687 0.00606848 0.0935334
0 0.0230907 0 0.0948434
1.0842e-19 -0.0202121 0.0112171 0.0834083
0 0.0231152 0.000321554 0.09485
1.12938e-21 0.0210335 0.00994459 0.0921151
-7.02516e-20 0.00603798 0.0225 0.0862845
-1.0842e-19 0.00978779 0.02125 0.0870583
3.28979e-21 -0.006462 0.0225 0.0840294
-5.42101e-20 0.0234563 0 0.0949387
1.0842e-19 -0.0227129 0.00608259 0.0835669
0 -0.010212 0.02125 0.0834814
4.51751e-21 0.0234867 0.00231572 0.0947225
-1.58183e-19 -0.0214623 0.00994613 0.0833715
1.0842e-19 0.0172867 0.0162494 0.0894786
1.11491e-19 0.0160373 0.0175003 0.0889669
1.0842e-19 -0.000212006 0.02375 0.0851184
0 0.0238222 0.000334698 0.0950642
1.25043e-19 0.0185361 0.0149979 0.0901115
2.71051e-20 0.0238446 0 0.0950719
-1.0842e-19 0.00228798 0.02375 0.0855992
1.0842e-19 0.0147874 0.01875 0.0884483
0 0.0222784 0.00865156 0.0928221
-1.0842e-19 -0.002712 0.02375 0.0846905
0 -0.02396 3.91345e-06 0.0832169
-4.51751e-21 0.0235099 0.00477762 0.0941778
-9.67102e-20 -0.016462 0.0175 0.0830457
2.1684e-19 -0.017712 0.0162494 0.0830156
6.61744e-24 0.00853794 0.0225 0.0868874
0 -0.0239602 0.00233583 0.0832592
3.38813e-20 -0.0239674 0.00234276 0.083258
-1.0842e-19 0.0197854 0.0137433 0.0907335
0 -0.015212 0.01875 0.0830499
-3.35372e-20 0.0135377 0.0199999 0.0880899
-1.74279e-20 -0.018962 0.0149988 0.083049
8.08456e-20 -0.008962 0.0225 0.0837355
0 0.00478797 0.02375 0.0861317
1.0842e-19 -0.0227123 0.00865619 0.0832553
-1.0842e-19 -0.005212 0.02375 0.0843159
-1.91544e-20 -0.013962 0.02 0.0831635
1.39337e-19 -0.0239649 0.00479702 0.0832344
2.1684e-19 -0.020212 0.0137433 0.0830306
3.854e-20 0.0210324 0.0124842 0.091436
-6.77626e-21 0.0210325 0.0124911 0.0914362
1.0842e-19 0.0122876 0.02125 0.087727
2.25875e-21 0.0235251 0.00735571 0.0935246
2.1684e-19 0.0247144 0.00115991 0.0953015
0 -0.012712 0.02125 0.0832674
2.65062e-20 -0.021462 0.0124878 0.0830153
0 0.00728791 0.02375 0.0867139
-1.0842e-19 0.0222828 0.0112165 0.0921261
0 -0.007712 0.02375 0.0839934
0 0.024745 0.00354107 0.0947945
5.82295e-20 0.001038 0.025 0.0856172
5.35381e-20 -0.001462 0.025 0.0851561
-2.4339e-20 0.0110378 0.0224999 0.0875362
-6.52215e-20 -0.0239631 0.00736519 0.0830332
0 -0.025214 0.00116967 0.0828415
-4.17705e-20 0.003538 0.025 0.0861287
-1.91544e-20 -0.011462 0.0225 0.0834915
3.28979e-21 -0.003962 0.025 0.0847459
0 -0.0227121 0.0112171 0.0829191
1.0842e-19 -0.0252134 0.00356919 0.0829046
1.11173e-19 0.0185364 0.0174993 0.0897159
0 0.0247657 0.00606274 0.094205
0 0.0172867 0.01875 0.0891882
0 0.0255124 0 0.0954648
1.12938e-21 0.0235324 0.00994397 0.0928393
5.42101e-20 0.0255491 0.000373423 0.0954707
-1.0842e-19 0.0197856 0.0162494 0.0902353
1.11491e-19 0.0160373 0.0199997 0.0888153
0 0.00978779 0.02375 0.087343
-7.02541e-20 0.00603798 0.025 0.0866892
0 -0.017712 0.01875 0.0828999
-4.93547e-20 -0.018962 0.0175 0.0828789
3.28979e-21 -0.006462 0.025 0.0843855
3.55754e-20 0.0210351 0.0149975 0.0908706
1.0842e-19 -0.010212 0.02375 0.0837213
2.1684e-19 0.0147874 0.02125 0.0884378
-1.91544e-20 -0.016462 0.02 0.0830043
0 -0.020212 0.0162494 0.0828261
0 -0.0252127 0.0060825 0.0827682
7.12566e-20 -0.0239623 0.00994618 0.0827688
0 0.0259495 0 0.0955342
-2.71051e-20 0.0259804 0.00230532 0.0953363
0 -0.015212 0.02125 0.0830991
-1.0842e-19 0.0222843 0.0137433 0.0914942
5.68163e-20 -0.021462 0.0149988 0.0827969
0 0.0247764 0.00865012 0.0935338
-1.0842e-19 -0.000212006 0.02625 0.0856295
-3.35372e-20 0.0135377 0.0224999 0.0882277
1.0842e-19 0.00228798 0.02625 0.0861217
5.42101e-20 0.0263739 0.000391789 0.0956286
-1.0842e-19 -0.002712 0.02625 0.0851861
5.42101e-20 0.0264109 0 0.0956368
8.2321e-21 0.00853794 0.025 0.0872962
0 0.0260059 0.00476911 0.0948339
0 -0.0264606 2.79231e-06 0.0824612
5.84013e-20 -0.013962 0.0225 0.0832931
0 -0.022712 0.0137433 0.0827043
3.28979e-21 -0.008962 0.025 0.0840731
5.59042e-20 -0.0264607 0.00234175 0.0824816
-2.20229e-20 0.0235308 0.0124833 0.0921926
2.5411e-21 0.0235308 0.0124918 0.092193
1.0842e-19 -0.0252122 0.00865616 0.0825415
0 0.00478797 0.02625 0.0866622
0 0.0122876 0.02375 0.0880163
1.0842e-19 -0.005212 0.02625 0.0847908
-9.21148e-20 -0.0264613 0.00479744 0.0824297
0 -0.012712 0.02375 0.0834957
-2.75848e-20 -0.023962 0.0124878 0.082577
1.12938e-21 0.0260223 0.00735219 0.0942221
-2.1684e-19 0.0247812 0.0112164 0.0928775
0 0.0272032 0.00115759 0.0957919
0 0.00728791 0.02625 0.0872489
1.0842e-19 0.0197857 0.01875 0.089961
-1.43996e-20 0.0185378 0.0199993 0.0895763
-4.37413e-20 0.011038 0.0249999 0.087947
1.0842e-19 -0.007712 0.02625 0.0844418
-6.35275e-21 0.0210376 0.0174989 0.0904946
-1.0842e-19 0.0172867 0.02125 0.0891867
1.0842e-19 0.0272397 0.00352904 0.0954298
8.34327e-20 -0.0264628 0.00736639 0.0822592
-9.67102e-20 -0.011462 0.025 0.0838051
-3.71772e-20 0.001038 0.0275 0.0862084
1.47606e-20 -0.001462 0.0275 0.0857289
8.08456e-20 -0.018962 0.02 0.0828756
0 -0.020212 0.01875 0.0827739
-1.0842e-19 0.0222846 0.0162494 0.0910194
-1.0842e-19 -0.025212 0.0112171 0.0823604
3.12343e-20 0.0160379 0.0224997 0.0889584
-1.0842e-19 -0.017712 0.02125 0.0829683
1.39773e-19 -0.021462 0.0175 0.0827194
3.57788e-20 0.003538 0.0275 0.086733
1.0842e-19 -0.0277135 0.00116961 0.0820809
-3.54881e-20 -0.003962 0.0275 0.0852941
-5.64689e-22 0.0260298 0.00994338 0.0935763
5.84013e-20 -0.016462 0.0225 0.0831331
1.49925e-19 0.0235338 0.014997 0.0916538
0 0.0272619 0.0060552 0.0948904
0 -0.022712 0.0162494 0.0826267
0 0.0279286 0 0.0959435
1.0842e-19 -0.0277131 0.00356909 0.0820999
0 0.0147874 0.02375 0.0887296
5.42101e-20 0.0279823 0.000421403 0.0959535
0 0.00978779 0.02625 0.087879
-7.02533e-20 0.00603798 0.0275 0.0873017
0 -0.010212 0.02625 0.0841358
0 -0.015212 0.02375 0.0833102
-6.35958e-21 -0.006462 0.0275 0.0849022
1.47595e-20 -0.023962 0.0149988 0.082512
1.08354e-19 -0.0264622 0.00994621 0.0821059
1.0842e-19 0.0247828 0.0137434 0.0922756
0 -0.0277125 0.00608242 0.0819437
5.42101e-20 0.0284251 0 0.0959756
-3.35372e-20 0.0135377 0.0249999 0.0886381
1.35525e-20 0.0284741 0.00227875 0.0959093
1.0842e-19 0.0272718 0.00864862 0.0942555
-1.91544e-20 -0.013962 0.025 0.083576
0 -0.025212 0.0137433 0.0823245
1.0842e-19 -0.000212016 0.0287506 0.0862853
6.61744e-24 0.00853794 0.0275 0.0879123
0 0.00228797 0.0287506 0.0867971
5.64689e-22 0.0260327 0.0124876 0.0929655
0 -0.00271201 0.0287506 0.0858149
4.51751e-21 0.0285046 0.00475129 0.0955181
-5.42101e-20 0.0288977 0.000401716 0.0960958
-3.54881e-20 -0.008962 0.0275 0.0845504
0 0.0289345 0 0.0960996
0 -0.0289611 1.97592e-06 0.0817024
-1.0842e-19 0.0122876 0.02625 0.0885495
8.99973e-20 0.0210354 0.0199989 0.0903676
-1.0842e-19 -0.0277122 0.00865612 0.0817829
1.0842e-19 0.0197857 0.02125 0.0899687
1.82112e-20 -0.0289611 0.00234099 0.0817005
1.0842e-19 0.0222847 0.01875 0.0907622
2.1684e-19 0.00478795 0.0287506 0.0873508
-1.47172e-20 0.0185378 0.0224993 0.0897237
-1.0842e-19 -0.012712 0.02625 0.0838678
0 -0.00521201 0.0287506 0.0853847
-1.02157e-19 -0.026462 0.0124878 0.0820762
-9.06325e-20 0.0235342 0.0174985 0.0912985
0 -0.020212 0.02125 0.0828602
-1.91544e-20 -0.021462 0.02 0.0827598
-1.71524e-20 -0.0289615 0.00479776 0.0816149
-1.0842e-19 0.0172867 0.02375 0.089479
1.58401e-19 -0.018962 0.0225 0.0829994
6.77626e-21 0.0285183 0.00734773 0.0949383
0 -0.022712 0.01875 0.0826509
-1.0842e-19 0.0272766 0.0112163 0.0936404
1.0842e-19 -0.017712 0.02375 0.0831546
-4.37413e-20 0.011038 0.0274999 0.0885623
2.1684e-19 0.0247831 0.0162494 0.0918258
1.0842e-19 0.0072879 0.0287506 0.0879448
3.97735e-20 -0.023962 0.0175 0.0825436
1.11544e-19 0.0160373 0.0249997 0.089366
1.0842e-19 0.0297038 0.00111931 0.0962666
0 -0.007712 0.0287506 0.0849916
-1.57772e-30 -0.011462 0.0275 0.0842342
4.61633e-20 -0.0289626 0.00736544 0.0814618
0 -0.027712 0.0112171 0.0817394
-1.91544e-20 -0.016462 0.025 0.0833773
1.0842e-19 0.0297515 0.00348068 0.0961324
-1.0842e-19 -0.025212 0.0162494 0.0823925
5.43028e-20 0.00103803 0.0300012 0.0868872
3.21806e-20 -0.00146206 0.0300012 0.0863804
-5.75982e-20 0.0260294 0.0149949 0.0924537
0 0.0260372 0.0149948 0.0924545
-1.0842e-19 0.0147874 0.02625 0.0892568
-5.64689e-22 0.0285254 0.00994287 0.0943237
6.41363e-20 0.00353804 0.0300011 0.0874315
-1.0842e-19 -0.0302131 0.00116957 0.0813237
5.05937e-20 -0.00396204 0.0300012 0.0859101
0 -0.015212 0.02625 0.0836305
-1.0842e-19 0.0297582 0.00604461 0.0956146
-1.0842e-19 0.00978777 0.0287506 0.0885767
0 0.0304053 0 0.0964852
-6.73505e-20 -0.026462 0.0149988 0.0821743
1.0842e-19 -0.0302128 0.00356901 0.0812971
0 0.0304496 0.000427148 0.096503
0 -0.010212 0.0287506 0.0846323
-1.0842e-19 0.0272782 0.0137434 0.0930694
-1.2454e-20 0.00603789 0.0300011 0.0880131
-1.43069e-20 -0.0289621 0.00994623 0.0813999
-2.65492e-20 0.0135379 0.0274999 0.0892482
5.91434e-20 -0.00646203 0.0300012 0.0854741
1.0842e-19 0.0222847 0.02125 0.0907779
-3.1552e-20 0.0210376 0.0224989 0.0905183
1.0842e-19 -0.0302124 0.00608237 0.0811161
8.08456e-20 -0.013962 0.0275 0.0839476
-3.00697e-20 0.0235342 0.0199985 0.0911836
-2.1684e-19 0.0197857 0.02375 0.09026
0 0.0309265 0 0.0966623
0 -0.027712 0.0137433 0.0818801
0 0.0297661 0.00864739 0.094991
-1.35525e-20 0.0309769 0.0022233 0.0965634
-1.0842e-19 0.0247832 0.01875 0.0915859
-1.91544e-20 -0.021462 0.0225 0.082875
-1.0842e-19 -0.022712 0.02125 0.0827542
2.74227e-20 0.0185364 0.0249993 0.0901267
-2.82344e-22 0.0285283 0.0124876 0.0937472
1.0842e-19 -0.020212 0.02375 0.0830145
0 0.00853781 0.0300011 0.0886304
-9.67102e-20 -0.023962 0.02 0.0826336
0 -0.000212128 0.0312566 0.086964
1.0842e-19 0.0122876 0.0287506 0.0892439
5.56296e-20 -0.00896202 0.0300012 0.0850695
0 0.00228784 0.0312566 0.0875031
-4.51751e-21 0.0310004 0.00472577 0.0961935
-2.66815e-20 0.0260298 0.0174964 0.0921195
7.6233e-20 0.026037 0.0174963 0.0921207
0 -0.0027121 0.0312566 0.086458
8.08456e-20 -0.018962 0.025 0.0831969
0 -0.025212 0.01875 0.0825041
0 -0.0302121 0.00865609 0.0810042
0 0.0172867 0.02625 0.089998
0 -0.012712 0.0287506 0.0843011
5.42101e-20 0.0314366 0.000417556 0.0968381
0 -0.0314613 1.38619e-06 0.0809542
-1.0842e-19 0.0314756 0 0.0968516
-4.73379e-20 -0.028962 0.0124878 0.081516
2.11758e-20 -0.0314642 0.00234041 0.0809304
0 0.0047878 0.0312566 0.0880758
0 -0.017712 0.02625 0.0834138
-1.0842e-19 -0.00521208 0.0312567 0.0859833
1.41236e-19 -0.026462 0.0175 0.0823254
0 0.0272786 0.0162494 0.0926457
-1.0842e-19 0.0297706 0.0112165 0.09441
2.5411e-20 -0.0314632 0.00479798 0.0808105
1.11544e-19 0.0160373 0.0274997 0.0899669
-9.03502e-21 0.0310128 0.00734326 0.0956564
1.36743e-19 0.0110377 0.030001 0.0892812
-9.67102e-20 -0.016462 0.0275 0.0836823
0 0.00728772 0.0312566 0.0886817
0 -0.011462 0.0300012 0.0846918
-1.0842e-19 -0.027712 0.0162494 0.0820999
0 -0.00771206 0.0312567 0.0855375
0 0.0322011 0.00107821 0.0970831
1.0842e-19 -0.030212 0.0112171 0.0810731
0 0.0285291 0.0149988 0.0932647
-2.60992e-20 -0.0314619 0.00736553 0.0806658
-2.1684e-19 0.0147873 0.0287506 0.0899424
0 0.0322344 0.0034326 0.0967207
-1.0842e-19 -0.015212 0.0287506 0.0839911
4.9022e-20 0.00103719 0.0325115 0.0875463
-1.0302e-19 -0.00146264 0.0325126 0.0870075
-3.00697e-20 0.0235342 0.0224985 0.0913359
-1.0842e-19 0.0222847 0.02375 0.0910662
-5.64689e-22 0.0310198 0.00994264 0.0950728
-3.75049e-20 -0.028962 0.0149988 0.0817711
0 0.0247832 0.02125 0.0916079
8.97855e-20 0.0210354 0.0250011 0.090915
-6.28922e-20 0.00353699 0.0325114 0.0881149
-1.0842e-19 -0.0327128 0.00116953 0.0805845
-1.0535e-20 -0.0039625 0.0325118 0.0864975
-1.0842e-19 0.00978757 0.0312566 0.089319
-5.42101e-20 0.0327897 0 0.0972126
0 0.0297723 0.0137435 0.0938703
0 0.0322502 0.00603529 0.0963006
-4.48927e-20 0.0260298 0.0199964 0.092016
-1.09691e-19 0.026037 0.0199963 0.0920177
0 -0.022712 0.02375 0.0828711
-5.42101e-20 0.0328638 0.000481289 0.0972297
0 -0.023962 0.0225 0.0827385
1.0842e-19 0.0197857 0.02625 0.0907693
0 -0.010212 0.0312567 0.0851171
0 -0.0327126 0.00356894 0.0805153
5.35219e-20 0.0135375 0.0300009 0.0899624
-9.67102e-20 -0.021462 0.025 0.0830197
1.0842e-19 -0.025212 0.02125 0.0826253
-5.60498e-20 -0.0314621 0.00994625 0.0806739
-8.47033e-21 0.00603673 0.0325111 0.0887133
1.58469e-19 -0.013962 0.0300012 0.0843352
0 0.0272786 0.01875 0.0924232
1.0842e-19 -0.020212 0.02625 0.0832048
-7.46448e-20 -0.00646237 0.0325125 0.0860142
1.05879e-22 0.0185364 0.0274993 0.0907155
6.45119e-20 -0.026462 0.02 0.0824706
2.1684e-19 -0.030212 0.0137433 0.0813705
0 -0.0327123 0.00608232 0.0803104
-1.0842e-19 0.0322592 0.00864664 0.095719
3.28979e-21 -0.018962 0.0275 0.0834279
-8.47033e-22 0.0310227 0.0124877 0.0945298
0 0.0334483 0 0.0974076
-1.0842e-19 -0.027712 0.01875 0.0823051
-5.64689e-22 0.0285291 0.0175 0.0929523
-9.03502e-21 0.033468 0.00219424 0.0972181
0 0.0172867 0.0287506 0.09067
0 0.0122874 0.0312566 0.0899857
0 0.00853641 0.0325109 0.0893406
-7.95946e-20 -0.00896229 0.032512 0.0855547
1.0842e-19 -0.012712 0.0312567 0.0847171
1.0842e-19 -0.017712 0.0287506 0.0836937
0 -0.000212753 0.0337826 0.087576
-4.51751e-21 0.0334864 0.00470655 0.0968391
-1.0842e-19 -0.0327121 0.00865608 0.0802321
-1.96303e-20 -0.028962 0.0175 0.0820422
-3.45083e-20 -0.031462 0.0124878 0.0809093
0 0.00228711 0.0337826 0.088144
0 -0.00271261 0.0337826 0.0870341
0 0.0297727 0.0162494 0.0934728
0 -0.0339616 9.62831e-07 0.0802319
-3.44107e-20 0.0160371 0.0300007 0.0906711
1.64113e-19 -0.0339616 0.00233999 0.0801888
-1.0842e-19 0.00478694 0.0337826 0.0887386
-1.0842e-19 0.0322633 0.0112172 0.0951742
-5.42101e-20 0.0341686 0 0.0975155
1.0842e-19 -0.00521249 0.0337827 0.0865165
-9.47726e-20 -0.016462 0.0300012 0.0839928
-2.25875e-21 0.0334994 0.00733869 0.0963496
-1.32349e-20 -0.0339617 0.00479816 0.0800386
0 -0.030212 0.0162494 0.0817334
0 0.0247832 0.02375 0.0918908
-8.87267e-20 0.011036 0.0325107 0.0899952
-3.02814e-20 0.0235342 0.0249985 0.0917244
-1.82112e-20 0.0260298 0.0224964 0.0921678
-3.854e-20 0.026037 0.0224963 0.09217
1.0842e-19 0.0222847 0.02625 0.0915641
-2.82344e-22 0.0310234 0.0149988 0.0940762
0 -0.0114622 0.0325121 0.0851153
-1.0842e-19 0.00728676 0.0337827 0.089359
-1.0842e-19 0.0147871 0.0312566 0.0906782
0 0.0272786 0.02125 0.0924509
-1.0842e-19 -0.032712 0.0112171 0.0803856
8.97855e-20 0.0210354 0.0274989 0.0914896
8.08456e-20 -0.023962 0.025 0.0828278
0 -0.025212 0.02375 0.0827035
1.0842e-19 -0.00771239 0.0337827 0.0860211
5.42101e-20 0.0346563 0.00073045 0.0975728
1.0842e-19 -0.022712 0.02625 0.0829883
-9.67102e-20 -0.026462 0.0225 0.082567
-1.25096e-19 -0.0339619 0.00736558 0.0798962
0 -0.015212 0.0312567 0.0843318
-2.82344e-22 0.0285291 0.02 0.0928598
-2.6792e-20 -0.031462 0.0149988 0.0812997
1.0842e-19 0.0347093 0.003417 0.0973539
1.27816e-19 -0.021462 0.0275 0.0831723
0 0.0197856 0.0287506 0.0914245
-1.0842e-19 -0.027712 0.02125 0.0824477
1.12938e-21 0.033505 0.0099433 0.0958067
1.18585e-20 0.00103325 0.0350498 0.0881199
-1.02915e-19 0.00104014 0.0350498 0.088122
0 0.0322649 0.0137437 0.0946665
8.89385e-21 -0.00146578 0.0350506 0.0875529
-1.0842e-19 0.0351003 0 0.0976056
1.0842e-19 -0.020212 0.0287506 0.0833992
1.0842e-19 0.00978651 0.0337828 0.0900045
0 0.0297727 0.01875 0.0932664
3.28979e-21 -0.028962 0.02 0.0822454
-6.14099e-20 0.0135356 0.0325104 0.0906746
1.41172e-22 0.00353645 0.0350534 0.0887137
-2.1684e-19 -0.0352126 0.0011695 0.0798792
0 0.0347305 0.00602051 0.0969593
-1.05879e-22 0.018536 0.0300002 0.0914052
-1.90582e-20 -0.00396498 0.0350512 0.0870067
1.0842e-19 -0.0102123 0.0337828 0.0855448
-2.70256e-20 -0.0139622 0.0325121 0.0846913
-4.83603e-20 -0.033962 0.00994627 0.0799528
0 -0.0352125 0.00356889 0.0797746
0 -0.032712 0.0137433 0.0808065
-8.89835e-20 -0.018962 0.0300012 0.0836566
1.0842e-19 -0.030212 0.01875 0.0820304
-2.82344e-22 0.0060362 0.0350534 0.0893294
8.47033e-22 0.0310234 0.0175 0.0937849
1.33408e-19 -0.00646434 0.0350551 0.0864812
-2.1684e-19 0.0172864 0.0312566 0.0913942
1.0842e-19 -0.0352122 0.00608228 0.079551
1.12938e-21 0.0335076 0.0124881 0.0952998
1.0842e-19 0.0347335 0.00864855 0.096416
0 0.0358561 0 0.0976502
1.0842e-19 -0.017712 0.0312567 0.0839549
0 0.0122862 0.0337829 0.0906735
9.03502e-21 0.035929 0.00216007 0.0975937
1.41804e-19 -0.031462 0.0175 0.0816795
-2.82344e-22 0.00853596 0.0350537 0.0899681
-1.82112e-20 0.0260298 0.0249964 0.0925464
-3.7693e-20 0.026037 0.0249963 0.0925489
-1.0842e-19 -0.0127122 0.0337828 0.0850837
0 0.0247832 0.02625 0.0923758
-1.0842e-19 0.0322653 0.0162495 0.0942952
0 0.0272786 0.02375 0.0927271
-1.27055e-21 -0.0089638 0.0350522 0.0859739
2.92987e-21 -0.033962 0.0124878 0.0802752
-3.02814e-20 0.0235342 0.0274985 0.092283