# U  POINT_DATA 43176
# x  y  z  U_x  U_y  U_z
6.77626e-21 0.000951594 0 0 0 0
0 0.000952378 6.05115e-05 0.000883008 -0.00625523 0.000461978
1.35525e-20 0.00101666 0 0 0 0
6.77626e-21 0.00108259 0 0 0 0
1.35525e-20 0.00108205 6.12824e-05 0.000708179 -0.00699468 0.000498002
1.0842e-19 -0.000230001 0.00117134 0.0191719 -0.109251 0.00781967
6.77626e-21 -0.00142666 0 0 0 0
6.77626e-21 -0.001427 4.90487e-05 0.000715739 -0.0050703 0.000374465
6.77626e-21 -0.00147935 0 0 0 0
0 -0.00153146 0 0 0 0
0 -0.00153095 4.85233e-05 0.000855204 -0.00447808 0.00032259
0 0.00226609 0.00117164 0.0155109 -0.121851 0.00889181
2.25875e-21 0.00102252 0.00234126 0.0177337 -0.176723 0.0165055
2.25875e-21 -0.00147475 0.00234099 0.0217317 -0.16555 0.0163697
0 -0.00272686 0.00117106 0.0233158 -0.0977148 0.00620822
0 0.00343106 0 0 0 0
1.35525e-20 0.00343226 7.48638e-05 0.000865126 -0.00854484 0.000608369
1.35525e-20 0.00351169 0 0 0 0
1.0842e-19 -0.000223755 0.00357153 0.0200822 -0.234428 0.0255898
-1.35525e-20 0.00359276 7.59703e-05 0.000652133 -0.00942952 0.000620374
-1.35525e-20 0.00359358 0 0 0 0
-6.77626e-21 -0.00393441 0 0 0 0
0 -0.00393462 3.89347e-05 0.000686209 -0.00359318 0.000258843
0 -0.00397618 0 0 0 0
-6.77626e-21 -0.00401725 3.85806e-05 0.000808939 -0.00316828 0.000199093
-6.77626e-21 -0.00401757 0 0 0 0
4.51751e-21 0.00351914 0.00234148 0.0140557 -0.187057 0.0159684
0 0.00227377 0.00357189 0.0161732 -0.243724 0.0240551
0 -0.00272176 0.00357118 0.0243626 -0.223093 0.0262244
-5.64689e-22 -0.00397255 0.00234072 0.0264384 -0.154545 0.0155103
-2.1684e-19 0.00476133 0.00117192 0.011965 -0.134294 0.00940343
0 0.00102955 0.00480054 0.0198118 -0.255801 0.0285131
-5.64689e-22 -0.00146894 0.00480032 0.0235023 -0.249948 0.0310821
-1.0842e-19 -0.00522433 0.0011708 0.0287777 -0.0892576 0.00420935
0 0.00590658 0 0 0 0
1.35525e-20 0.0059084 9.18337e-05 0.000788306 -0.0113985 0.000749915
5.64689e-22 0.00352769 0.00480072 0.0164836 -0.25977 0.0253335
0 0.0047708 0.00357214 0.0125716 -0.25075 0.021822
-1.35525e-20 0.00600567 0 0 0 0
-1.0842e-19 -0.000217791 0.00608418 0.0230591 -0.272677 0.0344473
-1.35525e-20 0.00610537 9.33789e-05 0.000535775 -0.0124322 0.000728213
1.35525e-20 0.00610661 0 0 0 0
0 -0.00396773 0.00480011 0.0276396 -0.242164 0.0328003
0 -0.00522013 0.00357084 0.0292929 -0.210273 0.0257812
0 -0.00644084 0 0 0 0
0 -0.00644097 3.05957e-05 0.000641516 -0.00251255 0.000157887
0 0.00601513 0.00234156 0.0105838 -0.196056 0.0148685
-6.77626e-21 -0.00647363 0 0 0 0
0 0.00228097 0.00608442 0.019972 -0.273068 0.0300924
0 -0.00650597 3.03603e-05 0.000777238 -0.00227109 0.0001007
0 -0.00650617 0 0 0 0
0 -0.00271679 0.00608392 0.0265315 -0.270412 0.0382498
-1.12938e-21 -0.00647075 0.00234045 0.0324489 -0.145066 0.0139435
0 0.00725575 0.00117208 0.00850252 -0.145893 0.0093923
8.47033e-22 0.00103463 0.00736665 0.0260543 -0.272408 0.0319354
8.47033e-22 -0.00146474 0.00736653 0.0289156 -0.272867 0.0367889
0 0.00602547 0.00480075 0.0135014 -0.26209 0.0217695
-2.1684e-19 0.0047795 0.00608458 0.0172709 -0.272108 0.025449
0 -0.00772224 0.00117057 0.0363665 -0.0856594 0.00205348
1.0842e-19 -0.00521598 0.00608368 0.030381 -0.2658 0.0411805
-2.82344e-22 -0.00646674 0.0047999 0.0324191 -0.232674 0.0334234
0 0.00726737 0.00357211 0.00929072 -0.255684 0.0191161
-5.64689e-22 0.00353384 0.00736675 0.0235248 -0.271019 0.0269189
0 -0.00396424 0.00736643 0.0321126 -0.271963 0.0412382
0 0.0083778 0 0 0 0
0 0.00838051 0.000111807 0.000641508 -0.0148856 0.000871922
-1.35525e-20 0.00849876 0 0 0 0
0 -0.00771879 0.00357053 0.035327 -0.197037 0.024115
0 0.00862057 0.000113948 0.000344713 -0.016085 0.000808954
1.35525e-20 0.00862241 0 0 0 0
0 -0.000214113 0.00865697 0.0317519 -0.27318 0.0344019
2.25875e-21 0.00851059 0.00234127 0.00732618 -0.203594 0.0133417
-3.38813e-21 -0.0089461 0 0 0 0
-3.38813e-21 -0.00894617 2.37524e-05 0.000608073 -0.00177679 7.87828e-05
-2.1684e-19 0.00228541 0.0086571 0.0294553 -0.270733 0.0287782
-3.38813e-21 -0.00897154 0 0 0 0
0 -0.00899669 2.35989e-05 0.000768762 -0.00170899 3.25783e-05
0 -0.00899681 0 0 0 0
-2.1684e-19 -0.00271373 0.00865684 0.034337 -0.275241 0.0400467
2.25875e-21 -0.00896926 0.00234021 0.0402016 -0.138277 0.0117919
-1.0842e-19 0.00727782 0.00608447 0.0149422 -0.270267 0.0207318
2.82344e-22 0.00603292 0.00736677 0.0213112 -0.269051 0.021917
2.25875e-21 0.00852298 0.0048004 0.0108663 -0.263071 0.0180288
-1.41172e-22 -0.00646384 0.00736632 0.0356517 -0.269251 0.0449751
-2.1684e-19 0.00974959 0.00117197 0.00514499 -0.156446 0.00892871
-1.0842e-19 -0.00771532 0.00608345 0.0346599 -0.25858 0.0429016
0 0.00478485 0.00865718 0.0274271 -0.268175 0.0233232
7.75035e-20 0.00103451 0.00994923 0.03723 -0.268734 0.0306603
-7.41154e-20 -0.00146477 0.00994448 0.0394838 -0.271017 0.036387
-2.1684e-19 -0.00521343 0.00865671 0.0372142 -0.276463 0.0454784
-2.82344e-22 -0.00896592 0.00479971 0.0381382 -0.222057 0.0327689
0 -0.0102205 0.00117037 0.0460849 -0.0873861 9.10726e-05
0 0.00976367 0.00357144 0.00636112 -0.258748 0.0161496
7.24213e-20 0.0035336 0.00994335 0.035178 -0.266389 0.025084
0 0.00354007 0.00994334 0.0351975 -0.266376 0.0250719
5.14573e-20 -0.00396419 0.00994489 0.0419621 -0.273025 0.0421407
1.0842e-19 -0.0102177 0.00357025 0.0429636 -0.184737 0.0212774
0 0.0108441 0 0 0 0
0 0.0108481 0.000135646 0.000410355 -0.019148 0.000962999
0 0.0109914 0 0 0 0
0 0.01114 0.000138658 6.6134e-05 -0.0205209 0.000851122
-2.71051e-20 0.0111428 0 0 0 0
0 -0.000212546 0.0112174 0.0448193 -0.266658 0.0325924
-9.03502e-21 0.0110059 0.00234034 0.00430437 -0.209677 0.0115286
5.64689e-22 0.00853188 0.00736656 0.0193912 -0.26676 0.017059
0 0.00728421 0.00865713 0.0256364 -0.26565 0.0181209
1.0842e-19 0.00228732 0.0112174 0.0428312 -0.264398 0.0268622
0 -0.0114503 0 0 0 0
0 -0.0114503 1.81853e-05 0.000592408 -0.00131695 2.51048e-05
0 -0.0114698 0 0 0 0
3.38813e-21 -0.011489 1.80881e-05 0.00075571 -0.00136263 -6.64715e-06
0 -0.0114891 0 0 0 0
1.0842e-19 0.00977602 0.00608381 0.0129591 -0.267921 0.0161191
1.0842e-19 -0.00271244 0.0112173 0.0469649 -0.269023 0.0385026
-1.0842e-19 -0.00771318 0.0086566 0.0403612 -0.276241 0.0503549
4.23516e-22 -0.00895974 0.00736235 0.0395669 -0.264377 0.0476344
4.23516e-22 -0.00896729 0.00736236 0.0395874 -0.26439 0.0476489
9.31736e-21 0.00603252 0.00994255 0.0333413 -0.264053 0.0197022
0 0.00604059 0.00994254 0.0333662 -0.264037 0.0196873
2.82344e-22 -0.011468 0.00234 0.0496164 -0.134655 0.00932507
7.05155e-20 -0.00646371 0.00994772 0.0446583 -0.274413 0.0477253
2.1684e-19 -0.0102148 0.00608326 0.0395489 -0.248894 0.0431112
-1.12938e-21 0.0110204 0.0047994 0.00857449 -0.263009 0.0142937
2.1684e-19 0.00478716 0.0112174 0.0409973 -0.262238 0.0213251
0 0.0122435 0.00117144 0.00192006 -0.165615 0.00808839
0 -0.00521236 0.0112172 0.0492714 -0.271407 0.0445317
5.64689e-22 -0.0114652 0.00479955 0.0451357 -0.211231 0.0308147
-2.37169e-20 0.00103742 0.0124875 0.0520037 -0.261924 0.0288778
9.53971e-20 -0.00146246 0.0124882 0.054 -0.264055 0.034673
0 0.01226 0.00356989 0.00378995 -0.260293 0.0131285
0 -0.012719 0.0011702 0.0568123 -0.0931228 -0.00131575
8.35386e-20 0.00353726 0.0124884 0.0501378 -0.259866 0.023221
-1.0842e-19 0.00978349 0.0086568 0.0240637 -0.263195 0.0132125
1.20596e-19 -0.00396235 0.0124875 0.056122 -0.266266 0.0405905
1.41172e-22 0.00853624 0.00994662 0.0317237 -0.26174 0.01454
0 -0.0127167 0.00357001 0.0525212 -0.174814 0.0175806
5.64689e-22 0.0110308 0.00736595 0.0177437 -0.264309 0.0124371
0 0.0133043 0 0 0 0
0 0.0133101 0.00016476 7.85835e-05 -0.0243838 0.00101134
1.0842e-19 0.00728695 0.0112174 0.0393212 -0.260129 0.0159809
-1.05879e-22 -0.00896334 0.00994548 0.0475541 -0.274695 0.05284
1.0842e-19 -0.010213 0.0086565 0.0437671 -0.273928 0.0542423
2.71051e-20 0.0134843 0 0 0 0
0 -0.00771229 0.0112172 0.0517278 -0.273565 0.0505317
4.23516e-20 -0.0114661 0.00736317 0.0440546 -0.257312 0.0489073
-2.71051e-20 0.0136661 0.000169324 -0.000311777 -0.0259706 0.000846881
-2.71051e-20 0.0136704 0 0 0 0
-1.0842e-19 0.0122743 0.00608241 0.0112951 -0.265318 0.0117454
0 0.0135014 0.00233865 0.00156369 -0.214319 0.00954905
-1.0842e-19 -0.000212091 0.0137434 0.0610883 -0.259291 0.0308912
8.49151e-20 0.00603705 0.0124872 0.0484096 -0.257837 0.0177061
0 0.00228788 0.0137434 0.0592121 -0.257379 0.0251667
0 -0.0139536 0 0 0 0
-1.69407e-21 -0.0139536 1.37177e-05 0.000573117 -0.0010334 -5.04108e-06
0 -0.0139682 0 0 0 0
0 -0.0139828 1.36577e-05 0.000706446 -0.00111433 -2.1609e-05
0 -0.0139828 0 0 0 0
0 -0.00271207 0.0137433 0.0630636 -0.261278 0.0367083
8.63709e-20 -0.00646227 0.0124876 0.0583613 -0.268485 0.0465718
0 -0.0127143 0.00608309 0.0454059 -0.237468 0.0416524
-2.82344e-22 -0.0139669 0.00233981 0.0600912 -0.133906 0.00692143
6.77626e-21 0.0135179 0.00479763 0.0066353 -0.262161 0.0106981
0 0.00478783 0.0137434 0.0574473 -0.255477 0.0195305
2.1684e-19 -0.00521206 0.0137433 0.0651255 -0.263389 0.0426234
0 -0.0139646 0.0047994 0.0537159 -0.201382 0.0277768
-1.0842e-19 0.0147376 0.00117073 -0.00108673 -0.173211 0.00694901
8.47033e-22 0.0110359 0.00994643 0.0302809 -0.259453 0.00963913
1.0842e-19 0.00978668 0.0112174 0.0378132 -0.258013 0.0108315
0 0.0122827 0.00865616 0.0226984 -0.260791 0.00861276
3.23725e-20 0.00103796 0.0149988 0.0696413 -0.254073 0.0271635
1.40363e-19 -0.00146203 0.0149988 0.0715207 -0.255943 0.0329239
1.05879e-22 0.00853678 0.012487 0.0468308 -0.255788 0.0123398
1.0842e-19 -0.0102122 0.0112172 0.0543046 -0.275056 0.056222
-1.25255e-19 -0.011463 0.00994715 0.0506451 -0.27333 0.0570768
0 0.0147565 0.00356775 0.00164257 -0.260582 0.010176
-1.0842e-19 -0.0152176 0.00117005 0.0669353 -0.100381 -0.00193261
-1.24937e-20 -0.0089622 0.0124877 0.0606955 -0.270508 0.0524768
-1.0842e-19 -0.0127128 0.00865642 0.0474967 -0.269059 0.0566604
5.64689e-22 0.0135297 0.00736494 0.0163604 -0.261784 0.00810327
1.54206e-19 0.00353794 0.0149988 0.0678547 -0.252213 0.0214475
3.20185e-20 -0.00396203 0.0149988 0.0734808 -0.257877 0.0387307
-1.0842e-19 0.00728776 0.0137434 0.0558098 -0.253532 0.0139877
0 -0.0152158 0.00356979 0.0640265 -0.168507 0.0136336
0 0.0157567 0 0 0 0
2.1684e-19 -0.00771205 0.0137433 0.0672584 -0.265613 0.0486056
0 0.0157653 0.000200597 -0.00036936 -0.0307671 0.00100329
-1.25784e-19 -0.0139652 0.00736838 0.0493577 -0.248435 0.048519
1.0842e-19 0.0147725 0.00608051 0.00994396 -0.262617 0.00768277
-2.71051e-20 0.0159775 0 0 0 0
-4.51751e-21 0.0159972 0.00233633 -0.000763318 -0.217618 0.00746607
6.61744e-24 0.00603803 0.0149987 0.0661735 -0.250315 0.015783
-2.71051e-20 0.0162004 0.000207421 -0.000753263 -0.0326318 0.000764511
-2.71051e-20 0.0162074 0 0 0 0
1.0842e-19 -0.000212011 0.0162494 0.0800184 -0.250712 0.0291748
3.1466e-20 -0.00646202 0.0149988 0.0755068 -0.259907 0.0445787
0 -0.0152138 0.00608293 0.05275 -0.225648 0.0386183
1.0842e-19 0.00228798 0.0162494 0.0782226 -0.248922 0.0234225
-1.69407e-21 -0.016456 0 0 0 0
-1.69407e-21 -0.016456 1.01993e-05 0.000527563 -0.000832167 -1.61372e-05
-1.69407e-21 -0.0164669 0 0 0 0
-1.0842e-19 -0.00271201 0.0162494 0.0818887 -0.252503 0.0349225
0 -0.0164778 1.01638e-05 0.000615973 -0.000899322 -1.99491e-05
-1.69407e-21 -0.0164778 0 0 0 0
-2.82344e-22 -0.0164659 0.00233964 0.0708674 -0.135324 0.00497786
-2.1684e-19 0.0122863 0.0112172 0.0364885 -0.255842 0.00588332
2.13876e-20 0.0110365 0.0124868 0.0454152 -0.253679 0.00713644
4.51751e-21 0.0160154 0.00479528 0.00508288 -0.260756 0.00730673
1.41172e-22 0.0135355 0.00994611 0.0290397 -0.257144 0.00499213
-1.0842e-19 0.00978761 0.0137434 0.0543161 -0.251507 0.00855815
0 0.00478796 0.0162494 0.076513 -0.247087 0.0176713
9.40604e-20 -0.0114622 0.0124877 0.0630857 -0.271967 0.0580394
-1.0842e-19 -0.0127122 0.0112171 0.056961 -0.275268 0.0611649
0 -0.005212 0.0162494 0.0838217 -0.254348 0.0406704
1.0842e-19 -0.010212 0.0137433 0.0694301 -0.267829 0.0545531
1.0842e-19 0.0147819 0.00865531 0.021551 -0.258394 0.00430868
1.35525e-19 -0.0139628 0.00994585 0.0539944 -0.269906 0.0599603
0 -0.0164641 0.00479927 0.06407 -0.193775 0.0241186
0 0.00853784 0.0149987 0.0646109 -0.248345 0.0101909
-1.0842e-19 0.0172319 0.0011701 -0.00356974 -0.1792 0.0055275
2.5861e-20 -0.00896199 0.0149988 0.077574 -0.262014 0.0504247
0 -0.0152126 0.00865635 0.0517716 -0.261666 0.0571899
7.78528e-20 0.001038 0.0175 0.0898822 -0.244655 0.0253258
1.20623e-19 -0.001462 0.0175 0.0916673 -0.24643 0.0310662
1.0842e-19 0.017253 0.0035653 -5.90747e-07 -0.259999 0.0073263
0 0.0160286 0.00736361 0.0152455 -0.25923 0.00407741
0 -0.0177165 0.00116993 0.0753173 -0.106937 -0.00174825
1.0842e-19 0.0072879 0.0162494 0.0749 -0.245177 0.0119433
-7.22278e-20 0.003538 0.0175 0.0881646 -0.242846 0.0195566
1.11741e-19 -0.003962 0.0175 0.0935129 -0.248212 0.0367702
1.0842e-19 -0.007712 0.0162494 0.0857976 -0.256292 0.0464176
1.3129e-19 -0.0164645 0.0073643 0.0559154 -0.238735 0.0464469
-1.0842e-19 -0.0177151 0.00356961 0.0771812 -0.166497 0.0101787
-2.71051e-20 0.0182028 0 0 0 0
-2.71051e-20 0.0182155 0.000241221 -0.000876009 -0.0379492 0.00088909
0 0.0172707 0.00607818 0.008905 -0.259923 0.00395914
-1.14138e-19 0.013536 0.0124864 0.044176 -0.251479 0.00211522
1.0842e-19 0.0122874 0.0137434 0.0529804 -0.24938 0.00327097
2.71051e-20 0.0184707 0 0 0 0
5.42854e-20 0.00603798 0.0175 0.0865207 -0.240975 0.0137797
-2.1684e-19 0.0147859 0.011217 0.0353622 -0.253579 0.0011456
0 0.0110381 0.0149986 0.0631795 -0.246281 0.00470379
0 0.0184934 0.00233259 -0.00260395 -0.219747 0.00535126
7.03336e-20 -0.006462 0.0175 0.0954064 -0.250041 0.042435
1.0842e-19 -0.012712 0.0137433 0.0715876 -0.269741 0.0602217
1.0842e-19 -0.0177135 0.0060828 0.0621075 -0.215233 0.0344147
-1.85818e-20 -0.0139621 0.0124877 0.0654944 -0.27237 0.0628449
-2.71051e-20 0.0187394 0.000249081 -0.00122803 -0.0399201 0.000573031
2.71051e-20 0.0187499 0 0 0 0
0 -0.000212006 0.01875 0.101498 -0.240382 0.0272351
-5.64689e-22 0.016035 0.00994571 0.0280135 -0.254782 0.000600641
-5.58926e-21 -0.011462 0.0149988 0.0796397 -0.264069 0.0561419
1.0842e-19 0.00228798 0.01875 0.0997869 -0.238606 0.0214711
1.0842e-19 -0.0152122 0.0112171 0.0597032 -0.273593 0.0647958
1.0842e-19 -0.002712 0.01875 0.103262 -0.242127 0.0329326
0 -0.0189578 0 0 0 0
0 -0.0189578 7.48767e-06 0.000453789 -0.000662533 -1.46966e-05
0 -0.0189658 0 0 0 0
2.1684e-19 0.00978778 0.0162494 0.0733942 -0.243175 0.00627465
0 -0.0189738 7.46722e-06 0.000503819 -0.000702216 -1.17503e-05
-1.69407e-21 -0.0189738 0 0 0 0
-4.23516e-22 -0.0189651 0.0023395 0.0814323 -0.138243 0.00376684
-9.03502e-21 0.0185135 0.0047916 0.00389945 -0.25898 0.00416644
-1.0842e-19 -0.010212 0.0162494 0.087786 -0.258334 0.0521254
2.60463e-20 -0.0164626 0.00994597 0.057799 -0.264376 0.0610392
0 0.0172808 0.0086543 0.0206354 -0.255971 0.000293517
0 0.00478797 0.01875 0.0981326 -0.236772 0.0156617
1.0842e-19 -0.005212 0.01875 0.105077 -0.243873 0.0385555
0 0.00853794 0.0175 0.0849559 -0.239026 0.00803006
1.69407e-20 -0.0189602 0.00479567 0.0761885 -0.189366 0.0203938
-4.23516e-22 -0.0189672 0.00479567 0.0761884 -0.189459 0.0204326
1.58078e-19 -0.008962 0.0175 0.0973242 -0.251942 0.0480423
1.0842e-19 -0.0177125 0.00865629 0.0570173 -0.25249 0.0556141
-1.0842e-19 0.0197268 0.0011683 -0.00553571 -0.183689 0.00396138
-3.38813e-21 0.0185276 0.00736167 0.0143858 -0.25666 0.00037284
0 0.001038 0.02 0.112539 -0.233369 0.0232415
1.47606e-20 -0.001462 0.02 0.114249 -0.235131 0.0289473
0 0.0197514 0.00356002 -0.00122747 -0.258782 0.00467152
0 0.00728791 0.01875 0.096534 -0.234868 0.00984227
-2.1684e-19 0.0147871 0.0137433 0.0518112 -0.247142 -0.00184215
2.64698e-23 0.013538 0.0149986 0.0618876 -0.244116 -0.000638986
-2.1684e-19 -0.0202155 0.00116983 0.0818852 -0.111792 -0.000982411
1.0842e-19 -0.007712 0.01875 0.106927 -0.245655 0.0440969
-1.57772e-30 0.003538 0.02 0.110863 -0.231567 0.0174734
-1.86347e-20 0.016039 0.0124859 0.0431251 -0.249176 -0.00270046
7.26331e-20 -0.0189639 0.00736469 0.0641718 -0.22964 0.0429129
1.0842e-19 0.0122876 0.0162494 0.0720038 -0.241074 0.000711255
3.28979e-21 -0.003962 0.02 0.115994 -0.236872 0.0345677
-2.81134e-20 -0.013962 0.0149988 0.081642 -0.26581 0.06147
0 -0.015212 0.0137433 0.0736683 -0.270896 0.0651979
-1.0842e-19 -0.0202144 0.00356944 0.0914411 -0.168684 0.00778355
-1.0842e-19 0.0172851 0.0112168 0.0344483 -0.251213 -0.00336402
1.0842e-19 -0.012712 0.0162494 0.0897315 -0.260385 0.0576703
2.71051e-20 0.0206492 0 0 0 0
-1.4792e-19 -0.0164621 0.0124879 0.0679363 -0.271234 0.0663484
0 0.0206673 0.000280665 -0.00138375 -0.044982 0.000645693
0 0.0197697 0.00607424 0.00811244 -0.257259 0.000601873
5.9557e-22 0.0110378 0.0174999 0.0834746 -0.236991 0.00235372
0 0.006038 0.02 0.109216 -0.229711 0.0116774
-6.1939e-20 -0.011462 0.0175 0.0992234 -0.253892 0.0535228
-5.42101e-20 0.0209637 0 0 0 0
-2.1684e-19 -0.0177121 0.0112171 0.062668 -0.269688 0.0665114
3.28979e-21 -0.006462 0.02 0.117769 -0.238615 0.0400847
-2.82344e-22 0.0185343 0.00994519 0.0272101 -0.252343 -0.00352558
0 -0.0202132 0.00608269 0.0737675 -0.207981 0.029661
-9.03502e-21 0.0209903 0.00232545 -0.00409958 -0.220771 0.00333626
0 0.00978779 0.01875 0.0949922 -0.232887 0.00405981
0 -0.000212006 0.02125 0.125272 -0.228135 0.0249919
2.71051e-20 0.0212775 0.000287875 -0.00182147 -0.0467076 0.000298527
-2.71051e-20 0.0212916 0 0 0 0
0 -0.010212 0.01875 0.108784 -0.247492 0.0495295
-1.0842e-19 0.00228798 0.02125 0.123599 -0.226356 0.0192678
5.41042e-20 -0.0189619 0.00994606 0.0624126 -0.257247 0.0600106
-1.0842e-19 -0.002712 0.02125 0.126964 -0.229882 0.0306296
8.47033e-22 -0.0214591 5.43834e-06 0.000214042 -0.000298328 -4.99199e-06
8.47033e-22 -0.0214707 0 0.000275709 -0.000371043 -2.90944e-06
0 0.0210123 0.00478532 0.00303899 -0.256962 0.0013245
0 0.0197796 0.008653 0.0199492 -0.253478 -0.00343073
-1.41172e-22 -0.0214644 0.00233938 0.0916495 -0.142207 0.00332284
6.61744e-24 0.00853794 0.02 0.107592 -0.227798 0.00589889
0 0.00478797 0.02125 0.121933 -0.224535 0.0134927
1.0842e-19 -0.005212 0.02125 0.128676 -0.231607 0.036153
-9.67102e-20 -0.008962 0.02 0.11955 -0.240376 0.0454708
-5.29396e-23 0.016038 0.0149984 0.0607419 -0.241849 -0.0057956
1.0842e-19 0.0147873 0.0162494 0.0707318 -0.238878 -0.00469707
-1.0842e-19 -0.0202124 0.00865623 0.0637705 -0.242938 0.052012
5.12455e-20 -0.0214607 0.00479643 0.0897625 -0.188814 0.0171718
-1.0842e-19 0.0172864 0.0137433 0.0508179 -0.244797 -0.00674489
-5.2119e-20 0.0135377 0.0174999 0.0820785 -0.234873 -0.00319741
0 0.0222219 0.00116339 -0.00741948 -0.186272 0.00243735
1.0842e-19 -0.015212 0.0162494 0.0915571 -0.262232 0.0627929
-3.67355e-20 -0.016462 0.0149988 0.0835214 -0.266856 0.0659809
-1.12938e-21 0.0210266 0.00735887 0.0137639 -0.254058 -0.00301706
-1.28749e-19 0.0185339 0.012485 0.0422703 -0.246769 -0.00728133
0 -0.013962 0.0175 0.101035 -0.255785 0.0587121
-1.0842e-19 0.0122876 0.01875 0.0935052 -0.230832 -0.00163159
1.0842e-19 -0.017712 0.0137433 0.0756515 -0.270764 0.0688828
0 0.00728791 0.02125 0.120264 -0.222671 0.00771266
-5.3507e-20 0.001038 0.0225 0.136742 -0.220399 0.021019
-2.1684e-19 0.0222501 0.00355028 -0.00206879 -0.257207 0.00231811
1.47606e-20 -0.001462 0.0225 0.138459 -0.222121 0.0266087
0 -0.007712 0.02125 0.130397 -0.233324 0.0415333
0 -0.012712 0.01875 0.11059 -0.249359 0.0547664
7.7927e-20 -0.0214634 0.00736691 0.0743765 -0.222621 0.0383328
-3.63298e-21 -0.018962 0.0124878 0.0705435 -0.268303 0.0679644
-1.0842e-19 0.0197839 0.0112166 0.0337522 -0.248739 -0.00762045
1.0842e-19 -0.0227147 0.00116974 0.087429 -0.115146 3.29499e-05
-5.80944e-20 0.003538 0.0225 0.134998 -0.218653 0.0153677
-4.37413e-20 0.011038 0.0199999 0.105987 -0.225829 0.000190855
-3.54881e-20 -0.003962 0.0225 0.140151 -0.22382 0.0320958
-1.0842e-19 -0.0227139 0.00356931 0.106074 -0.174143 0.00657849
3.28979e-21 -0.011462 0.02 0.12129 -0.242153 0.0506625
-2.1684e-19 0.0222687 0.00606848 0.00756466 -0.254598 -0.00242422
0 0.0230907 0 0 0 0
1.0842e-19 -0.0202121 0.0112171 0.0661726 -0.263779 0.0658435
0 0.0231152 0.000321554 -0.00203457 -0.0521721 0.000333453
1.12938e-21 0.0210335 0.00994459 0.026629 -0.249808 -0.00738231
-7.02516e-20 0.00603798 0.0225 0.133219 -0.216881 0.00970009
-1.0842e-19 0.00978779 0.02125 0.11858 -0.220767 0.0019805
3.28979e-21 -0.006462 0.0225 0.141808 -0.225501 0.0374376
-5.42101e-20 0.0234563 0 0 0 0
1.0842e-19 -0.0227129 0.00608259 0.0874916 -0.204953 0.0249585
0 -0.010212 0.02125 0.132093 -0.235035 0.0467234
4.51751e-21 0.0234867 0.00231572 -0.00533932 -0.220746 0.00143347
-1.58183e-19 -0.0214623 0.00994613 0.0682647 -0.249553 0.0568169
1.0842e-19 0.0172867 0.0162494 0.0695841 -0.236591 -0.00989957
1.11491e-19 0.0160373 0.0175003 0.0807685 -0.232678 -0.00856958
1.0842e-19 -0.000212006 0.02375 0.149941 -0.214398 0.0226774
0 0.0238222 0.000334698 -0.00261407 -0.0543913 -6.58823e-05
1.25043e-19 0.0185361 0.0149979 0.0597475 -0.239489 -0.0107223
2.71051e-20 0.0238446 0 0 0 0
-1.0842e-19 0.00228798 0.02375 0.148157 -0.21271 0.0171388
1.0842e-19 0.0147874 0.01875 0.0920701 -0.228711 -0.00717384
0 0.0222784 0.00865156 0.0194917 -0.250887 -0.00688522
-1.0842e-19 -0.002712 0.02375 0.151661 -0.216069 0.028136
0 -0.02396 3.91345e-06 0.00018606 -0.000245949 -7.15322e-07
-4.51751e-21 0.0235099 0.00477762 0.00250721 -0.254811 -0.00126902
-9.67102e-20 -0.016462 0.0175 0.102674 -0.257419 0.0633044
2.1684e-19 -0.017712 0.0162494 0.0931856 -0.263541 0.0670525
6.61744e-24 0.00853794 0.0225 0.131396 -0.215087 0.00406618
0 -0.0239602 0.00233583 0.101591 -0.146841 0.00343256
3.38813e-20 -0.0239674 0.00234276 0.10163 -0.146954 0.00344755
-1.0842e-19 0.0197854 0.0137433 0.0500039 -0.242355 -0.0114004
0 -0.015212 0.01875 0.112259 -0.251165 0.0596191
-3.35372e-20 0.0135377 0.0199999 0.104394 -0.223812 -0.00538984
-1.74279e-20 -0.018962 0.0149988 0.0852691 -0.2668 0.0690977
8.08456e-20 -0.008962 0.0225 0.143397 -0.227164 0.0425784
0 0.00478797 0.02375 0.146304 -0.211012 0.0115712
1.0842e-19 -0.0227123 0.00865619 0.0724433 -0.234678 0.0467474
-1.0842e-19 -0.005212 0.02375 0.153305 -0.217722 0.0334644
-1.91544e-20 -0.013962 0.02 0.122911 -0.2439 0.0555243
1.39337e-19 -0.0239649 0.00479702 0.10414 -0.191541 0.0145269
2.1684e-19 -0.020212 0.0137433 0.0776327 -0.268969 0.0706057
3.854e-20 0.0210324 0.0124842 0.0415902 -0.244272 -0.0115897
-6.77626e-21 0.0210325 0.0124911 0.0416179 -0.244256 -0.011604
1.0842e-19 0.0122876 0.02125 0.116871 -0.218831 -0.00364618
2.25875e-21 0.0235251 0.00735571 0.013387 -0.25141 -0.00613543
2.1684e-19 0.0247144 0.00115991 -0.00911454 -0.187208 0.000885913
0 -0.012712 0.02125 0.133694 -0.236726 0.0516307
2.65062e-20 -0.021462 0.0124878 0.0735944 -0.263744 0.0672083
0 0.00728791 0.02375 0.144376 -0.209307 0.00602366
-1.0842e-19 0.0222828 0.0112165 0.0332702 -0.246156 -0.0116136
0 -0.007712 0.02375 0.154853 -0.21935 0.0385995
0 0.024745 0.00354107 -0.00249211 -0.255473 9.25444e-05
5.82295e-20 0.001038 0.025 0.160049 -0.206785 0.0189209
5.35381e-20 -0.001462 0.025 0.161817 -0.208374 0.0242223
-2.4339e-20 0.0110378 0.0224999 0.129519 -0.213279 -0.00148102
-6.52215e-20 -0.0239631 0.00736519 0.0863514 -0.218644 0.0331378
0 -0.025214 0.00116967 0.0930534 -0.117956 0.00105863
-4.17705e-20 0.003538 0.025 0.158162 -0.205197 0.0135595
-1.91544e-20 -0.011462 0.0225 0.144862 -0.228802 0.0474295
3.28979e-21 -0.003962 0.025 0.163452 -0.209962 0.0294016
0 -0.0227121 0.0112171 0.0706691 -0.256708 0.0625899
1.0842e-19 -0.0252134 0.00356919 0.1203 -0.181457 0.00619972
1.11173e-19 0.0185364 0.0174993 0.079546 -0.230416 -0.0137084
0 0.0247657 0.00606274 0.0072869 -0.251941 -0.00521277
0 0.0172867 0.01875 0.0906852 -0.226534 -0.0125096
0 0.0255124 0 0 0 0
1.12938e-21 0.0235324 0.00994397 0.0262703 -0.247174 -0.0109733
5.42101e-20 0.0255491 0.000373423 -0.00291652 -0.0606844 -7.3505e-05
-1.0842e-19 0.0197856 0.0162494 0.0685627 -0.234227 -0.0148468
1.11491e-19 0.0160373 0.0199997 0.102811 -0.221756 -0.0107864
0 0.00978779 0.02375 0.142364 -0.207605 0.000547602
-7.02541e-20 0.00603798 0.025 0.15616 -0.203617 0.00819515
0 -0.017712 0.01875 0.11369 -0.25274 0.0637534
-4.93547e-20 -0.018962 0.0175 0.104064 -0.258518 0.0668353
3.28979e-21 -0.006462 0.025 0.164928 -0.211544 0.0343875
3.55754e-20 0.0210351 0.0149975 0.0589031 -0.237046 -0.0153775
1.0842e-19 -0.010212 0.02375 0.156247 -0.220947 0.0434575
2.1684e-19 0.0147874 0.02125 0.115131 -0.216873 -0.00910945
-1.91544e-20 -0.016462 0.02 0.124311 -0.245521 0.0598103
0 -0.020212 0.0162494 0.0945842 -0.263936 0.0698515
0 -0.0252127 0.0060825 0.10242 -0.206009 0.0206089
7.12566e-20 -0.0239623 0.00994618 0.0756641 -0.242545 0.051642
0 0.0259495 0 0 0 0
-2.71051e-20 0.0259804 0.00230532 -0.0061653 -0.21977 -0.000399935
0 -0.015212 0.02125 0.135102 -0.238349 0.0560807
-1.0842e-19 0.0222843 0.0137433 0.049364 -0.239819 -0.0157762
5.68163e-20 -0.021462 0.0149988 0.0869848 -0.265385 0.070189
0 0.0247764 0.00865012 0.0192705 -0.24821 -0.0100897
-1.0842e-19 -0.000212006 0.02625 0.171988 -0.200763 0.0205109
-3.35372e-20 0.0135377 0.0224999 0.127583 -0.211465 -0.00688796
1.0842e-19 0.00228798 0.02625 0.170113 -0.19927 0.0153564
5.42101e-20 0.0263739 0.000391789 -0.00323629 -0.0629775 -0.000554328
-1.0842e-19 -0.002712 0.02625 0.173681 -0.202269 0.025565
5.42101e-20 0.0264109 0 0 0 0
8.2321e-21 0.00853794 0.025 0.154044 -0.202048 0.00287985
0 0.0260059 0.00476911 0.00221749 -0.25261 -0.00366631
0 -0.0264606 2.79231e-06 0.000140904 -0.000179424 1.13918e-06
5.84013e-20 -0.013962 0.0225 0.146115 -0.230394 0.0518429
0 -0.022712 0.0137433 0.0798615 -0.265494 0.0697702
3.28979e-21 -0.008962 0.025 0.166201 -0.213119 0.0390915
5.59042e-20 -0.0264607 0.00234175 0.111449 -0.15218 0.00375367
-2.20229e-20 0.0235308 0.0124833 0.0411183 -0.241669 -0.0156222
2.5411e-21 0.0235308 0.0124918 0.0411522 -0.24165 -0.0156398
1.0842e-19 -0.0252122 0.00865616 0.0830104 -0.228988 0.0402794
0 0.00478797 0.02625 0.168074 -0.197799 0.0101716
0 0.0122876 0.02375 0.140261 -0.205914 -0.00480685
1.0842e-19 -0.005212 0.02625 0.175163 -0.203788 0.0304409
-9.21148e-20 -0.0264613 0.00479744 0.118409 -0.19656 0.0122694
0 -0.012712 0.02375 0.157413 -0.222501 0.0479065
-2.75848e-20 -0.023962 0.0124878 0.07746 -0.258188 0.0638264
1.12938e-21 0.0260223 0.00735219 0.0132349 -0.248723 -0.00899616
-2.1684e-19 0.0247812 0.0112164 0.0329995 -0.243473 -0.0153253
0 0.0272032 0.00115759 -0.00982632 -0.186337 -0.000650983
0 0.00728791 0.02625 0.165884 -0.19635 0.00501402
1.0842e-19 0.0197857 0.01875 0.0893499 -0.224315 -0.0175802
-1.43996e-20 0.0185378 0.0199993 0.101238 -0.219673 -0.0159426
-4.37413e-20 0.011038 0.0249999 0.151815 -0.200499 -0.00233711
1.0842e-19 -0.007712 0.02625 0.176391 -0.205318 0.0350453
-6.35275e-21 0.0210376 0.0174989 0.0784092 -0.2281 -0.0185613
-1.0842e-19 0.0172867 0.02125 0.113359 -0.214906 -0.0143545
1.0842e-19 0.0272397 0.00352904 -0.00282047 -0.253712 -0.00197173
8.34327e-20 -0.0264628 0.00736639 0.0994045 -0.217779 0.0275794
-9.67102e-20 -0.011462 0.025 0.167211 -0.214687 0.0433939
-3.71772e-20 0.001038 0.0275 0.179659 -0.194109 0.0169557
1.47606e-20 -0.001462 0.0275 0.181354 -0.19556 0.0217218
8.08456e-20 -0.018962 0.02 0.125387 -0.246874 0.0631426
0 -0.020212 0.01875 0.114792 -0.253859 0.0666843
-1.0842e-19 0.0222846 0.0162494 0.0676615 -0.231794 -0.0194919
-1.0842e-19 -0.025212 0.0112171 0.0765533 -0.249698 0.0568691
3.12343e-20 0.0160379 0.0224997 0.125587 -0.209654 -0.0121034
-1.0842e-19 -0.017712 0.02125 0.136194 -0.23983 0.0597878
1.39773e-19 -0.021462 0.0175 0.105196 -0.258811 0.0687235
3.57788e-20 0.003538 0.0275 0.177742 -0.192702 0.0120994
1.0842e-19 -0.0277135 0.00116961 0.0995206 -0.121157 0.00187059
-3.54881e-20 -0.003962 0.0275 0.182801 -0.197056 0.02632
-5.64689e-22 0.0260298 0.00994338 0.0261282 -0.244456 -0.0142836
5.84013e-20 -0.016462 0.0225 0.147053 -0.231903 0.055588
1.49925e-19 0.0235338 0.014997 0.058203 -0.234525 -0.0197237
0 0.0272619 0.0060552 0.00718262 -0.249276 -0.00774529
0 -0.022712 0.0162494 0.0958396 -0.263147 0.0705285
0 0.0279286 0 0 0 0
1.0842e-19 -0.0277131 0.00356909 0.133413 -0.189206 0.00595917
0 0.0147874 0.02375 0.138068 -0.204241 -0.00999101
5.42101e-20 0.0279823 0.000421403 -0.00348091 -0.0677377 -0.000596228
0 0.00978779 0.02625 0.163551 -0.194931 -6.61738e-05
-7.02533e-20 0.00603798 0.0275 0.175623 -0.191341 0.00722038
0 -0.010212 0.02625 0.177313 -0.206864 0.0392636
0 -0.015212 0.02375 0.158251 -0.224001 0.0517535
-6.35958e-21 -0.006462 0.0275 0.183968 -0.198603 0.0306613
1.47595e-20 -0.023962 0.0149988 0.0889068 -0.262655 0.0687155
1.08354e-19 -0.0264622 0.00994621 0.0845876 -0.237227 0.0448062
1.0842e-19 0.0247828 0.0137434 0.048892 -0.237197 -0.0198384
0 -0.0277125 0.00608242 0.11725 -0.209896 0.0164903
5.42101e-20 0.0284251 0 0 0 0
-3.35372e-20 0.0135377 0.0249999 0.149476 -0.198976 -0.00740907
1.35525e-20 0.0284741 0.00227875 -0.00687339 -0.217852 -0.00185722
1.0842e-19 0.0272718 0.00864862 0.0192631 -0.245461 -0.0130044
-1.91544e-20 -0.013962 0.025 0.167889 -0.216249 0.0471328
0 -0.025212 0.0137433 0.0827248 -0.260814 0.0660434
1.0842e-19 -0.000212016 0.0287506 0.189144 -0.188883 0.0182297
6.61744e-24 0.00853794 0.0275 0.173319 -0.190026 0.00237639
0 0.00228797 0.0287506 0.187395 -0.187518 0.0137254
5.64689e-22 0.0260327 0.0124876 0.0408648 -0.238964 -0.019363
0 -0.00271201 0.0287506 0.190607 -0.190323 0.0225812
4.51751e-21 0.0285046 0.00475129 0.00205141 -0.250333 -0.00574555
-5.42101e-20 0.0288977 0.000401716 -0.00401986 -0.0660709 -0.000773982
-3.54881e-20 -0.008962 0.0275 0.184821 -0.200208 0.0346412
0 0.0289345 0 0 0 0
0 -0.0289611 1.97592e-06 0.000106355 -0.000129982 1.82017e-06
-1.0842e-19 0.0122876 0.02625 0.161083 -0.193547 -0.00502382
8.99973e-20 0.0210354 0.0199989 0.0996759 -0.217575 -0.0208047
-1.0842e-19 -0.0277122 0.00865612 0.0948929 -0.226261 0.0329755
1.0842e-19 0.0197857 0.02125 0.111558 -0.21294 -0.0193285
1.82112e-20 -0.0289611 0.00234099 0.121081 -0.157762 0.00382299
1.0842e-19 0.0222847 0.01875 0.0880608 -0.222066 -0.022332
2.1684e-19 0.00478795 0.0287506 0.185389 -0.186222 0.00914387
-1.47172e-20 0.0185378 0.0224993 0.123537 -0.207856 -0.0170782
-1.0842e-19 -0.012712 0.02625 0.177872 -0.208436 0.0429481
0 -0.00521201 0.0287506 0.191757 -0.191845 0.0266924