# U  POINT_DATA 37667
# x  y  z  U_x  U_y  U_z
-5.90671e-05 2.1684e-19 0 0 0 0
0.000934805 0 0 0 0 0
-0.00106911 0 0 0 0 0
0.00140088 2.71051e-20 0 0 0 0
-0.00151888 -2.71051e-20 0 0 0 0
0.00117901 -9.03502e-21 0.00117113 0.0155544 -0.116696 0.00877536
-0.00128849 2.25875e-20 0.00117062 0.0196064 -0.0941949 0.00684054
-4.31765e-05 1.0842e-19 0.00234072 0.0194441 -0.171741 0.0164525
0.00239261 0 0 0 0 0
-0.00253032 0 0 0 0 0
0.00336229 8.13152e-20 0 0 0 0
0.00242341 0 0.00234108 0.0155287 -0.193886 0.0154541
-0.00252293 0 0.00234014 0.0250125 -0.148842 0.0151919
-0.00355263 -5.42101e-20 0 0 0 0
0.00120442 1.35525e-20 0.0035713 0.0179607 -0.242511 0.02393
-0.00127507 -9.03502e-21 0.00357065 0.0219032 -0.219873 0.0261294
0.00362707 -4.51751e-21 0.00117131 0.0119029 -0.138473 0.00892373
0.00385067 -5.42101e-20 0 0 0 0
-0.00376956 -4.51751e-21 0.00117017 0.0266853 -0.0784631 0.00354713
-0.00399133 0 0 0 0 0
-2.29192e-05 -1.0842e-19 0.00480025 0.0213624 -0.253251 0.0296177
0.00481724 0 0 0 0 0
-0.00501448 0 0 0 0 0
0.00367197 -1.35525e-20 0.00357105 0.014856 -0.258977 0.0193747
-0.00376301 4.51751e-21 0.00356998 0.027601 -0.192686 0.0249588
0.00245907 -1.0842e-19 0.00480044 0.0185055 -0.266082 0.0239087
0.00487218 1.0842e-19 0.00233996 0.01247 -0.212068 0.0127155
-0.00251212 0 0.00479977 0.0253637 -0.234812 0.0328085
-0.00501145 0 0.00233967 0.034349 -0.13121 0.0118776
0.00575627 -5.42101e-20 0 0 0 0
-0.00604431 0 0 0 0 0
0.00605007 -1.807e-20 0.00116989 0.00904302 -0.156198 0.00750495
0.00122797 -4.51751e-21 0.006084 0.0217513 -0.275147 0.0300334
-0.001262 -9.03502e-21 0.00608355 0.0243637 -0.267157 0.037455
0.00627263 5.42101e-20 0 0 0 0
-0.00625929 -4.51751e-21 0.00116985 0.0399066 -0.0781159 0.000235803
-0.00647612 1.35525e-19 0 0 0 0
0.00493143 -2.1684e-19 0.00479869 0.0166156 -0.274368 0.0170291
-0.00500606 0 0.00479935 0.0313882 -0.212069 0.0324046
0.00612525 -9.03502e-21 0.00356686 0.0128365 -0.269928 0.0138522
0.00371201 -1.35525e-20 0.00608361 0.020059 -0.278899 0.0213435
-0.00375618 0 0.00608307 0.0279319 -0.252235 0.042017
-0.00625636 0 0.00356948 0.0372331 -0.167369 0.0201902
0.00720746 0 0 0 0 0
-8.80336e-06 0 0.00736662 0.0272454 -0.272582 0.033976
-0.00750642 -1.0842e-19 0 0 0 0
0.00730091 1.0842e-19 0.00233311 0.0105667 -0.22615 0.00888537
0.00248389 -1.0842e-19 0.00736673 0.0257136 -0.276151 0.0248382
-0.00250453 1.0842e-19 0.00736633 0.0295466 -0.265455 0.0418221
-0.00750536 1.0842e-19 0.00233933 0.0477359 -0.122855 0.00770685
0.00810899 2.71051e-20 0 0 0 0
0.00844495 -4.51751e-21 0.00116271 0.00742373 -0.170919 0.00460816
-0.00854047 8.13152e-20 0 0 0 0
0.00866226 5.42101e-20 0 0 0 0
0.0061894 1.35525e-20 0.00607973 0.0193358 -0.280715 0.0126216
-0.00625302 -1.35525e-20 0.00608271 0.0328577 -0.230252 0.0421978
0.00124214 1.807e-20 0.00865691 0.0311094 -0.273636 0.0288015
-0.00125418 4.51751e-21 0.00865666 0.032362 -0.271756 0.0389599
0.00739431 0 0.00479014 0.0158903 -0.279526 0.0100546
-0.0087541 0 0.00116965 0.0540769 -0.0869631 -0.00129484
0.00497255 0 0.00736563 0.0249655 -0.278107 0.0155275
-0.00500221 -1.0842e-19 0.00736611 0.0327088 -0.252798 0.0468612
-0.00750287 -1.0842e-19 0.00479904 0.040797 -0.189434 0.0283104
-0.00896833 0 0 0 0 0
0.00856709 0 0.00355042 0.0121274 -0.276811 0.00832812
0.00373618 9.03502e-21 0.00865671 0.0304789 -0.275042 0.0186955
-0.00375209 0 0.00865641 0.0342196 -0.267441 0.0480836
-0.00875292 0 0.00356915 0.0520474 -0.150919 0.0134366
0.00955779 0 0 0 0 0
-2.33168e-06 -1.0842e-19 0.00994661 0.0381659 -0.269679 0.0330457
0.00971438 0 0.00230723 0.00977802 -0.23433 0.00439428
-0.0100026 1.0842e-19 0 0 0 0
0.00249558 0 0.00994668 0.0374846 -0.271449 0.0227198
-0.00250115 0 0.00994648 0.0392757 -0.267314 0.0431179
-0.0100023 0 0.00233912 0.0624683 -0.122289 0.00458518
0.0103892 -8.13152e-20 0 0 0 0
0.00745704 0 0.00736086 0.0251298 -0.279412 0.0066497
-0.00750103 1.0842e-19 0.00736595 0.0372954 -0.234346 0.0476367
0.00866276 -4.51751e-21 0.00606706 0.0198138 -0.281681 0.00446042
-0.0087514 1.35525e-20 0.00608247 0.0407359 -0.205066 0.0375397
0.00622747 9.03502e-21 0.00865489 0.0304772 -0.276571 0.00911611
-0.006251 9.03502e-21 0.00865624 0.0365893 -0.25775 0.0543656
0.0107996 -2.25875e-20 0.00114301 0.00656385 -0.174485 0.000925324
0.00985495 0 0.00476418 0.0163505 -0.282515 0.00335959
0.010977 8.13152e-20 0 0 0 0
-0.0110388 -2.71051e-20 0 0 0 0
-0.0100013 0 0.00479884 0.0546596 -0.172914 0.0221971
0.00499216 0 0.00994634 0.0372922 -0.273223 0.0125993
-0.00500053 -1.0842e-19 0.0099464 0.0407386 -0.262697 0.0519113
0.00124803 -9.03502e-21 0.0112174 0.0444806 -0.267359 0.0268527
-0.001251 4.51751e-21 0.0112172 0.0450792 -0.265507 0.0373741
-0.0112517 1.35525e-20 0.00116954 0.0631474 -0.094021 -0.000530282
-0.0114646 5.42101e-20 0 0 0 0
0.0110102 -1.807e-20 0.0035042 0.0125389 -0.279768 0.00270233
0.0118003 1.0842e-19 0 0 0 0
-0.0112513 9.03502e-21 0.00356894 0.0709589 -0.147648 0.00844123
0.00374639 4.51751e-21 0.0112173 0.0441827 -0.269505 0.0164087
-0.00375048 0 0.0112171 0.0459031 -0.263777 0.0477534
0.00871575 4.51751e-21 0.0086503 0.0312894 -0.278012 0.000171138
-0.00875046 9.03502e-21 0.00865614 0.0397523 -0.240781 0.0557059
0.012129 -1.0842e-19 0.00223333 0.00775857 -0.235764 0.000145065
0.0099385 0 0.00735088 0.0262227 -0.280415 -0.0016225
-0.0100005 1.0842e-19 0.00736585 0.044756 -0.213414 0.0436831
0.0074867 0 0.00994503 0.0377319 -0.274902 0.0028532
-0.00750024 0 0.00994635 0.04253 -0.253527 0.0576949
-3.82247e-07 -2.1684e-19 0.0124879 0.0528325 -0.262808 0.0312852
-0.012501 0 0 0 0 0
0.0126142 0 0 0 0 0
0.0111384 -4.51751e-21 0.00604172 0.0212903 -0.282585 -0.00301731
-0.012501 0 0.00233899 0.076335 -0.126415 0.00367193
0.00249923 1.0842e-19 0.0124879 0.0525194 -0.265053 0.0207011
-0.00250018 -1.0842e-19 0.0124878 0.0533235 -0.260793 0.0416987
-0.0112506 0 0.00608232 0.0539211 -0.185094 0.0297983
0.00624356 -4.51751e-21 0.0112169 0.0443034 -0.271595 0.0060796
-0.00625022 -1.35525e-20 0.0112171 0.0468367 -0.260667 0.0570489
0.0131915 -2.71051e-20 0 0 0 0
0.0123278 -1.0842e-19 0.00471106 0.0175451 -0.284632 -0.00246675
0.0132267 9.03502e-21 0.00104247 -0.000160437 -0.171251 -0.0020981
-0.0125005 1.0842e-19 0.00479871 0.0725303 -0.167044 0.0167332
0.00499843 -1.0842e-19 0.0124878 0.052506 -0.267292 0.0100273
-0.00500008 0 0.0124878 0.053866 -0.258641 0.0515941
-0.0135382 2.71051e-20 0 0 0 0
0.00124969 -4.51751e-21 0.0137434 0.0608979 -0.26032 0.0251348
-0.00125016 0 0.0137433 0.0611705 -0.257849 0.0356531
-0.0137506 1.807e-20 0.00116948 0.069144 -0.0974297 0.00111986
0.0135067 9.03502e-21 0.00337591 0.0125244 -0.282038 -0.0010223
-0.013963 8.13152e-20 0 0 0 0
0.00997739 -1.0842e-19 0.00994339 0.0388823 -0.276209 -0.00646397
-0.0100001 0 0.00994633 0.0451629 -0.238858 0.0584949
0.014125 -5.42101e-20 0 0 0 0
0.0111994 -1.807e-20 0.00864583 0.0328219 -0.279076 -0.00821709
-0.0112502 -4.51751e-21 0.00865607 0.0453016 -0.21945 0.051002
-0.0137505 -4.51751e-21 0.00356883 0.0908259 -0.155063 0.00713888
0.00873818 -1.35525e-20 0.0112161 0.0450775 -0.273257 -0.00405304
-0.00875009 -9.03502e-21 0.0112171 0.0476536 -0.25327 0.063189
0.00374931 -4.51751e-21 0.0137434 0.060796 -0.262835 0.0142919
-0.00375007 4.51751e-21 0.0137433 0.0614787 -0.255811 0.0458768
0.0143989 0 0 0 0 0
0.0124168 -1.0842e-19 0.00734439 0.0282267 -0.281297 -0.00915594
0.0144673 2.71051e-20 0.000330796 -0.00234628 -0.0665031 3.07224e-05
-0.0125002 0 0.00736579 0.0566474 -0.196727 0.0363283
0.00749644 -1.0842e-19 0.0124877 0.0529625 -0.2692 -0.000623556
-0.00750003 -1.0842e-19 0.0124878 0.0542618 -0.254857 0.0598585
0.014749 0 0.000698994 -0.00438747 -0.141046 -4.09128e-06
0.0148911 0 0 0 0 0
0.0136237 4.51751e-21 0.0060267 0.0238255 -0.283617 -0.00951735
0.0148703 -1.807e-20 0.00154753 0.00257682 -0.203951 0.000361023
0.0149756 -5.42101e-20 0.000309223 -0.00219327 -0.062166 2.87188e-05
-2.93175e-08 0 0.0149988 0.0704217 -0.25485 0.0295553
-0.0150003 1.0842e-19 0 0 0 0
-0.0137503 -9.03502e-21 0.00608223 0.0726329 -0.178132 0.0223708
0.00624827 0 0.0137433 0.0610069 -0.265025 0.00321596
-0.00625003 9.03502e-21 0.0137433 0.0616679 -0.254031 0.0555746
0.0151457 2.71051e-20 0 0 0 0
-0.0150004 1.0842e-19 0.00233892 0.089143 -0.133011 0.0041921
0.00249992 -1.0842e-19 0.0149988 0.0703563 -0.257396 0.0187602
-0.00250001 -1.0842e-19 0.0149988 0.0705466 -0.252447 0.039868
0.0153731 3.01167e-21 0.000848982 -0.00127549 -0.155252 0.00130057
0.0154079 0 0 0 0 0
0.0154333 2.71051e-20 0.000196582 -0.00243847 -0.0416061 0.000888269
0.0148306 0 0.004694 0.0203006 -0.285306 -0.00691103
0.0155974 0 0.00145938 0.00566183 -0.238453 0.00247562
-0.0150002 -1.0842e-19 0.00479864 0.0913824 -0.170562 0.01292
0.0157765 -2.71051e-20 0.000438014 -0.00482422 -0.0918181 0.00152438
0.00499965 1.0842e-19 0.0149988 0.0704678 -0.259752 0.00754341
-0.00500001 0 0.0149988 0.0705902 -0.250381 0.049641
0.0112268 -1.35525e-20 0.0112162 0.0465541 -0.274303 -0.0138565
-0.01125 -9.03502e-21 0.0112171 0.0487225 -0.239698 0.0634998
0.0124603 -1.0842e-19 0.0099452 0.0407795 -0.277067 -0.0151975
-0.0125 -1.0842e-19 0.00994631 0.0500878 -0.221597 0.0534017
0.00999097 -1.0842e-19 0.0124877 0.0539944 -0.270565 -0.0110702
-0.01 0 0.0124878 0.0544352 -0.247307 0.064392
-0.016038 -5.42101e-20 0 0 0 0
0.0160421 2.71051e-20 0 0 0 0
0.0160727 2.71051e-20 0.000187423 -0.00232485 -0.0396675 0.000846881
0.0136832 -4.51751e-21 0.0086521 0.0352321 -0.279781 -0.015842
-0.0137501 9.03502e-21 0.00865604 0.0555177 -0.201931 0.0417108
0.0161756 0 0.00179843 0.00864545 -0.250127 0.0013692
0.0162555 -9.03502e-21 0.000985774 0.00248094 -0.174834 0.0018492
0.00874511 1.35525e-20 0.0137433 0.0616976 -0.266696 -0.0078374
0.0162903 2.71051e-20 0 0 0 0
-0.0162502 0 0.00116945 0.0767089 -0.101432 0.0024844
-0.00875001 0 0.0137433 0.0614304 -0.251028 0.0635542
0.00124997 0 0.0162494 0.0799705 -0.251824 0.0233686
-0.00125001 1.807e-20 0.0162494 0.0799545 -0.249163 0.0339439
-0.0164624 -2.71051e-20 0 0 0 0
0.0161381 -8.13152e-21 0.00328259 0.0163676 -0.28229 -0.0038315
0.0165248 0 0 0 0 0
0.0165235 2.71051e-20 0.000214492 0.000106131 -0.0526706 0.000911034
0.0149084 0 0.00736477 0.031571 -0.281573 -0.0156102
-0.0162502 9.03502e-21 0.00356877 0.107622 -0.165172 0.00711229
0.00374983 -4.51751e-21 0.0162494 0.0800544 -0.25436 0.012132
-0.00375 0 0.0162494 0.0799055 -0.246733 0.0438799
-0.0150001 -2.1684e-19 0.00736576 0.0721615 -0.189082 0.0276057
0.00749843 0 0.0149988 0.0708824 -0.261695 -0.00386297
-0.0075 0 0.0149988 0.07032 -0.248181 0.0583502
0.0168483 5.42101e-20 0.000518488 -7.00777e-05 -0.1256 0.00204917
0.0168009 0 0.00159734 0.00980329 -0.253324 0.00147447
0.0171763 2.71051e-20 0 0 0 0
0.0171798 0 0.000213918 0.000105847 -0.0525298 0.000908599
0.0162492 7.7443e-21 0.00607578 0.0286278 -0.283105 -0.0147348
-0.0162501 1.35525e-20 0.00608218 0.0919202 -0.181691 0.0162062
0.017409 0 0 0 0 0
0.00624914 -9.03502e-21 0.0162494 0.0802905 -0.25654 0.0004248
-0.00625 0 0.0162494 0.0796736 -0.24476 0.0531629
0.0174064 0 0.00108106 0.00744634 -0.194829 0.000951279
-1.02401e-14 0 0.0175 0.0906234 -0.245392 0.0277092
-0.0175001 0 0 0 0 0
0.0174597 -4.51751e-21 0.00218801 0.0150809 -0.268486 -0.00141162
0.017634 2.71051e-20 0 0 0 0
0.0176441 0 0.000226518 0.00212872 -0.0581926 0.000181351
0.0124768 0 0.0124885 0.055599 -0.271407 -0.0210347
-0.0175001 -1.0842e-19 0.00233889 0.100723 -0.140431 0.00419779
-0.0125 0 0.0124878 0.0550466 -0.23542 0.0629342
0.00249998 -1.0842e-19 0.0175 0.0907953 -0.247948 0.0167319
-0.0025 0 0.0175 0.0904213 -0.242849 0.0379243
0.013712 1.35525e-20 0.0112202 0.048771 -0.274867 -0.022947
-0.01375 4.51751e-21 0.0112171 0.0517938 -0.222885 0.0567303
0.011236 9.03502e-21 0.0137435 0.0628762 -0.267767 -0.0185946
-0.01125 0 0.0137433 0.0605584 -0.244362 0.0672821
0.0149484 0 0.00995676 0.0437433 -0.27736 -0.0231234
0.0179798 0 0.000551805 0.00500841 -0.140846 0.000889951
-0.015 0 0.0099463 0.0584499 -0.207328 0.0433449
0.00999396 0 0.0149988 0.0716615 -0.263113 -0.0151239
-0.01 0 0.0149988 0.0694454 -0.244415 0.064464
0.0177172 -9.03502e-21 0.00353836 0.0217349 -0.285416 -0.00737491
0.0179881 -5.42101e-20 0.00171051 0.0155267 -0.264981 -0.00065082
-0.0175001 -1.0842e-19 0.00479861 0.106758 -0.17712 0.00909138
0.0175164 0 0.00482374 0.0263478 -0.284742 -0.0126943
0.00499976 0 0.0175 0.090989 -0.250278 0.00511624
-0.005 0 0.0175 0.0900912 -0.240571 0.047355
0.0182698 -2.71051e-20 0 0 0 0
0.0180402 0 0.00291708 0.0199184 -0.284427 -0.00481944
0.0182858 0 0.000227338 0.00213643 -0.0584034 0.000182008
-0.01625 -4.51751e-21 0.00865603 0.0695733 -0.193771 0.0302712
0.00874647 -9.03502e-21 0.0162494 0.0807796 -0.258266 -0.0113609
-0.00875 -9.03502e-21 0.0162494 0.0789523 -0.242771 0.0611758
0.0162929 -6.45358e-21 0.00868413 0.0394936 -0.279578 -0.0233318
0.018496 -2.71051e-20 0 0 0 0
0.0180113 0 0.00422619 0.0249538 -0.285983 -0.0110332
-0.018538 -2.71051e-20 0 0 0 0
0.0185987 9.03502e-21 0.00110122 0.0100573 -0.202772 -0.00090209
0.0187236 0 0 0 0 0
0.0187582 0 0.000214893 0.000998298 -0.0594135 -0.00106655
0.0177321 -2.71051e-20 0.00614951 0.031838 -0.282513 -0.0180123
-0.01875 0 0.00116944 0.0865211 -0.108491 0.00272825
0.00124999 0 0.01875 0.101593 -0.241452 0.0213947
-0.00125 1.807e-20 0.01875 0.101274 -0.238864 0.0320171
0.0186544 -4.51751e-21 0.00230765 0.0191471 -0.275056 -0.00378323
0.0180198 0 0.00548223 0.0295315 -0.283167 -0.0160452
-0.0189621 -5.42101e-20 0 0 0 0
-0.0175 0 0.00736574 0.0872291 -0.188451 0.0180719
0.0186737 9.03502e-21 0.00359745 0.0241757 -0.284668 -0.00925338
0.00749863 0 0.0175 0.0912568 -0.252258 -0.00681375
-0.0075 0 0.0175 0.0894153 -0.238515 0.0557274
0.0175523 -1.807e-20 0.00743048 0.0367055 -0.280974 -0.0223576
-0.01875 9.03502e-21 0.00356874 0.118901 -0.172439 0.00503878
0.00374987 -9.03502e-21 0.01875 0.101843 -0.243897 0.00993126
-0.00375 1.807e-20 0.01875 0.100865 -0.23637 0.0417427
0.0191417 0 0.000523466 0.00287273 -0.143688 -0.0019149
0.0180335 0 0.00682266 0.0351758 -0.281655 -0.0210265
0.0186794 -1.807e-20 0.00489465 0.0288887 -0.283986 -0.0148411
0.0193409 0 0 0 0 0
0.019272 5.42101e-20 0.00165716 0.0172904 -0.266774 -0.00195337
0.0193788 -2.71051e-20 0.000199 0.000924465 -0.0550193 -0.00098767
0.0137222 2.25875e-20 0.0137444 0.0644634 -0.268412 -0.0287287
-0.01375 9.03502e-21 0.0137433 0.0598152 -0.233235 0.0640729
0.0149636 0 0.0124914 0.0579428 -0.271793 -0.0301359
0.0124806 -2.1684e-19 0.0149989 0.0727378 -0.264062 -0.0259051
0.0192887 -5.42101e-20 0.00296028 0.0238295 -0.284059 -0.0077137
-0.015 0 0.0124878 0.0574905 -0.221892 0.0546483
-0.0125 0 0.0149988 0.0680512 -0.237578 0.0655933
0.0195825 0 0 0 0 0
0.0186882 4.51751e-21 0.00618728 0.033946 -0.282115 -0.0199866
-0.01875 -9.03502e-21 0.00608217 0.105517 -0.186408 0.00910591
-0.01625 0 0.011217 0.0583974 -0.209074 0.0441848
0.0112379 9.03502e-21 0.0162494 0.0815193 -0.259469 -0.0227933
0.0180425 0 0.00805496 0.0396665 -0.280063 -0.0254699
-0.01125 9.03502e-21 0.0162494 0.0773481 -0.23928 0.0660932
0.00624921 -1.807e-20 0.01875 0.102024 -0.246061 -0.00211089
-0.00625 1.807e-20 0.01875 0.100263 -0.234186 0.0505659
0.0193156 1.0842e-19 0.00426883 0.0279686 -0.284219 -0.0134655
0.0177574 0 0.0087192 0.0423238 -0.279158 -0.0274086
0.0197848 0 0 0 0 0
0.0163125 1.41979e-20 0.0112323 0.0523227 -0.274855 -0.0316743
0.0197851 -2.71051e-20 0.00105651 0.0102217 -0.192634 -0.00150504
0.0199433 2.25875e-21 0.000343781 0.0019488 -0.0929146 -0.000767215
0.0199517 -2.03288e-20 0 0 0 0
-0.02 0 0 0 0 0
-1.024e-14 0 0.02 0.113249 -0.234101 0.0256105
0.0199137 -1.35525e-20 0.002322 0.0220537 -0.275312 -0.00549747
0.0193276 5.42101e-20 0.00556506 0.0330375 -0.282593 -0.0187838
0.0186907 0 0.007459 0.0389116 -0.280582 -0.0247922
-0.0175 -1.0842e-19 0.00994629 0.0690486 -0.199127 0.0299519
-0.02 -1.0842e-19 0.00233888 0.109696 -0.14745 0.00232848
0.0198262 -4.51751e-21 0.00353876 0.0272412 -0.284132 -0.0110289
0.0201482 0 0 0 0 0
0.00999425 1.0842e-19 0.0175 0.091619 -0.253826 -0.0186055
0.00249998 -1.0842e-19 0.02 0.113605 -0.236551 0.0145742
-0.0025 0 0.02 0.112737 -0.231634 0.0357389
-0.01 0 0.0175 0.0880338 -0.235996 0.0619914
0.017571 9.03502e-21 0.00998358 0.0480852 -0.277049 -0.0315566
0.0202492 0 0.000417568 0.00353432 -0.109505 -0.000267169
0.0197197 0 0.00492314 0.0316729 -0.283124 -0.0169259
0.0198624 -1.35525e-20 0.00431664 0.0295411 -0.283811 -0.0143216
0.0203337 0 0 0 0 0
0.0180485 5.42101e-20 0.00938017 0.0459056 -0.278082 -0.0306075
0.0203539 -1.12938e-21 0.000720236 0.00854 -0.178011 -0.000600437
0.0204602 -4.51751e-21 0.00021777 0.0012987 -0.0547248 -0.000605919
0.0193297 0 0.00683974 0.0378667 -0.281068 -0.0239586
0.0205466 1.35525e-20 0 0 0 0
-0.02 -1.0842e-19 0.00479859 0.115798 -0.181513 0.00325871
0.0205431 0 0.00166059 0.0197041 -0.26624 -0.00293004
0.00499976 0 0.02 0.113772 -0.238847 0.00282734
-0.005 0 0.02 0.11203 -0.229313 0.0448696
0.018691 1.807e-20 0.00873215 0.0442597 -0.278807 -0.0296537
0.0206055 -1.35525e-20 0.00113383 0.0134004 -0.218638 -0.0013815
0.020248 4.51751e-21 0.00398707 0.0293971 -0.284075 -0.0130918
0.0198777 1.35525e-20 0.00559885 0.0345341 -0.28231 -0.019935
-0.01875 0 0.00865601 0.0827944 -0.192042 0.0173366
0.0197161 9.03502e-21 0.00622263 0.036579 -0.281616 -0.0223149
0.00874659 0 0.01875 0.10215 -0.247909 -0.0142803
-0.00875 1.807e-20 0.01875 0.0991642 -0.232194 0.0580765
0.0206918 0 0.000485439 0.00411102 -0.119272 -0.000287523
0.0207292 0 0 0 0 0
0.0202493 0 0.00468188 0.0321485 -0.283072 -0.0167581
0.020562 0 0.00303088 0.0275486 -0.284348 -0.009532
0.0205791 -1.35525e-20 0.0036086 0.0293055 -0.284026 -0.0119605
0.0209125 -1.35525e-20 0 0 0 0
0.0180516 0 0.0105934 0.0515105 -0.275859 -0.0346477
0.0202818 -2.25875e-21 0.00528131 0.0343691 -0.282467 -0.0192664
0.0193324 5.42101e-20 0.00810405 0.0429383 -0.279535 -0.0287375
0.0209518 -2.25875e-21 0.000794603 0.00939974 -0.186805 -0.000979824
0.0210055 0 0.000255445 0.000199843 -0.0597798 -0.000676139
0.0177662 9.03502e-21 0.0112451 0.054554 -0.274632 -0.0362088
0.0198824 0 0.0068589 0.0392667 -0.280795 -0.025172
-0.021038 -1.35525e-19 0 0 0 0
0.0205908 -4.51751e-21 0.00435357 0.0317943 -0.283359 -0.0154895
0.020941 9.03502e-21 0.00237638 0.0256259 -0.278458 -0.00685857
0.0197229 0 0.00748077 0.0414446 -0.280076 -0.0273796
0.0210741 1.54886e-20 0.00124456 0.0158361 -0.233312 -0.00191474
0.0211253 0 0 0 0 0
0.02028 9.03502e-21 0.00593584 0.0368538 -0.281717 -0.0221024
0.0211074 1.35525e-20 0.00172891 0.0221491 -0.268697 -0.00370504
0.0149672 0 0.0149992 0.0742051 -0.264672 -0.0358434
0.0186932 4.51751e-21 0.00999396 0.0500235 -0.276732 -0.0342838
0.0206045 0 0.00499039 0.0342726 -0.282503 -0.0187119
-0.015 0 0.0149988 0.0670659 -0.227933 0.059835
0.0137244 -1.35525e-20 0.0162495 0.0823587 -0.260319 -0.0335303
-0.02125 -4.51751e-21 0.00116944 0.0952239 -0.117116 0.00157338
-0.01625 9.03502e-21 0.0137433 0.0609341 -0.220631 0.0533146
0.0212778 0 0.000537366 0.00467542 -0.12697 -0.000422514
-0.01375 -1.807e-20 0.0162494 0.0749837 -0.232806 0.0652314
0.00124999 1.807e-20 0.02125 0.125422 -0.229142 0.0191808
-0.00125 -2.71051e-20 0.02125 0.124879 -0.226717 0.0297673
0.0209137 2.25875e-21 0.00401727 0.0316282 -0.283684 -0.0141905
0.0202812 1.12938e-21 0.00654348 0.0390115 -0.280969 -0.0246604
0.021312 0 0 0 0 0
-0.02 0 0.00736573 0.097788 -0.189441 0.00701252
0.0163191 -2.58143e-21 0.0137469 0.0669261 -0.268697 -0.038583
0.0210372 -1.16165e-20 0.00357854 0.0305746 -0.283743 -0.0123408
0.0211194 0 0.00306084 0.0292306 -0.283788 -0.0101802
0.00749863 0 0.02 0.113715 -0.240933 -0.0092557
-0.0075 0 0.02 0.110918 -0.227167 0.0527492
0.0206095 2.71051e-20 0.0056213 0.0364925 -0.281882 -0.0213542
0.0209335 -2.25875e-21 0.00469187 0.0341939 -0.282571 -0.0179784
-0.021462 -1.35525e-19 0 0 0 0
0.0198906 -1.35525e-20 0.00811521 0.0442972 -0.279188 -0.0302049
0.019334 5.42101e-20 0.00936858 0.048443 -0.277568 -0.0337547
0.012481 -1.0842e-19 0.0175 0.0919876 -0.255032 -0.0298424
-0.0175 0 0.0124878 0.062517 -0.210698 0.0406096
-0.0125 0 0.0175 0.0857317 -0.231875 0.0641589
0.0215095 1.35525e-20 0 0 0 0
0.0202822 -1.12938e-21 0.00718905 0.0415316 -0.280192 -0.0273046
0.0206114 0 0.00624672 0.0387717 -0.281151 -0.024047
-0.02125 -4.51751e-21 0.00356873 0.123962 -0.176152 3.0805e-05
0.0175768 2.71051e-20 0.0124975 0.0611596 -0.271843 -0.0396498
0.0215533 -6.77626e-21 0.00086045 0.0115523 -0.194517 -0.00101295
0.00374987 -9.03502e-21 0.02125 0.125703 -0.231502 0.00772509
-0.00375 1.807e-20 0.02125 0.124128 -0.224343 0.0393371
0.0197282 1.807e-20 0.00874265 0.0467006 -0.278309 -0.0324035
0.0209184 4.51751e-21 0.00530361 0.036169 -0.282053 -0.0204077
0.0215457 0 0.00146101 0.0210999 -0.257023 -0.00246835
0.0215987 4.51751e-21 0.000276646 0.00067755 -0.0626842 -0.00020211
0.0215159 4.51751e-21 0.00210555 0.0265737 -0.279553 -0.00567552
0.0180546 0 0.0118959 0.0583753 -0.273275 -0.0391327
0.021231 0 0.0043614 0.0337928 -0.282773 -0.016555
0.0215157 -1.12938e-21 0.00273879 0.0291933 -0.282732 -0.00919545
0.0217116 1.35525e-20 0 0 0 0
0.0206127 0 0.00687123 0.0411065 -0.28039 -0.0266952
0.0202827 2.25875e-21 0.00779649 0.0438815 -0.279361 -0.0298154
0.0209271 -6.77626e-21 0.00593526 0.0384673 -0.281305 -0.023341
0.0212132 2.71051e-20 0.00496926 0.0359422 -0.28211 -0.019565
0.0215326 -3.38813e-21 0.00340415 0.0315911 -0.283634 -0.0121199
0.0186946 9.03502e-21 0.011248 0.0561319 -0.274357 -0.0386382
-0.01875 9.03502e-21 0.011217 0.0672997 -0.201155 0.0279439
0.0112381 0 0.01875 0.102205 -0.249407 -0.0260417
-0.01125 1.807e-20 0.01875 0.0970961 -0.229652 0.0629221
0.0218884 0 0.00056802 0.00610773 -0.130835 -0.000317192
0.0215249 -1.12938e-21 0.00403417 0.0334997 -0.282859 -0.0153167
0.0218693 -2.71051e-20 0.00116661 0.017539 -0.231281 -0.00173602
0.0219118 0 0 0 0 0
0.021857 0 0.00180024 0.0253667 -0.271189 -0.00444744
0.020929 -2.25875e-21 0.0065602 0.0407726 -0.280591 -0.0259767
0.0206135 2.71051e-20 0.00749641 0.0434929 -0.27959 -0.0293098
0.0202832 -2.25875e-21 0.00844256 0.0465871 -0.278496 -0.0324571
0.0212419 0 0.00562259 0.0381869 -0.28146 -0.0224463
0.0218488 0 0.00244594 0.0291466 -0.281705 -0.00788243
0.0198921 -1.35525e-20 0.00937253 0.0496785 -0.277267 -0.0351824
0.0215471 4.51751e-21 0.00467385 0.0357379 -0.282233 -0.0185313
0.0193355 -5.42101e-20 0.0106231 0.0542395 -0.275421 -0.0381765
0.0218549 2.71051e-20 0.00309251 0.0315143 -0.283027 -0.0111073
-0.02125 1.807e-20 0.00608216 0.111567 -0.18762 -0.000423138
0.0197292 -9.03502e-21 0.00999813 0.0522418 -0.276282 -0.0371549
0.0221193 -1.35525e-20 0 0 0 0
0.0209299 0 0.00718499 0.0431005 -0.279794 -0.0287244
0.0212453 0 0.0062492 0.0404559 -0.280745 -0.025263
0.00624921 -1.807e-20 0.02125 0.125626 -0.233731 -0.0042812
-0.00625 1.807e-20 0.02125 0.123086 -0.222123 0.0477696
0.0206142 0 0.00812214 0.0459975 -0.278736 -0.0319297
0.0218602 0 0.0037332 0.0335712 -0.282919 -0.014219
0.0215479 -4.51751e-21 0.00530169 0.0379082 -0.281603 -0.0214542
0.0221931 2.25875e-21 0.000875308 0.0132405 -0.197366 -0.000745612
0.0222091 9.03502e-21 0.000287223 0.00129731 -0.0645757 1.69877e-05
0.0202837 -1.58113e-20 0.00905069 0.0491283 -0.277515 -0.0348536
0.0221806 -2.25875e-21 0.001495 0.0240946 -0.260556 -0.00303943
0.0221729 -2.25875e-21 0.00213628 0.0288693 -0.279583 -0.00651878
0.0218648 2.71051e-20 0.0043649 0.0356647 -0.28231 -0.0174301
0.0180554 -5.42101e-20 0.0131005 0.0649074 -0.270351 -0.0425438
0.0223146 1.35525e-20 0 0 0 0
0.0212462 -2.71051e-20 0.00687392 0.0427516 -0.279998 -0.0280055
-0.02 0 0.00994629 0.0789961 -0.195596 0.0143495
0.0209305 4.51751e-21 0.00781023 0.0455238 -0.27898 -0.0313215
0.0221717 -4.51751e-21 0.00278024 0.0315536 -0.282498 -0.00986684
0.00999425 1.0842e-19 0.02 0.113414 -0.242791 -0.0211768
0.0215574 6.77626e-21 0.00593597 0.0401692 -0.280899 -0.0244427
-0.01 0 0.02 0.108998 -0.224887 0.0585406
0.0206151 -2.71051e-20 0.00874856 0.0485771 -0.277823 -0.0344553
0.021869 0 0.00499521 0.0378108 -0.281706 -0.0205167
0.0221756 2.25875e-21 0.0034203 0.0335656 -0.282797 -0.0130654
0.0177686 9.03502e-21 0.0137495 0.0684406 -0.268733 -0.0436772
0.020284 0 0.00969614 0.051925 -0.276549 -0.0373283
0.0186955 9.03502e-21 0.0124995 0.0626545 -0.271647 -0.0426544
-0.0225 0 0 0 0 0
-1.02401e-14 0 0.0225 0.137455 -0.221114 0.0233398
0.0225117 0 0.000578583 0.00740081 -0.133358 -0.000243288
0.0225229 2.71051e-20 0 0 0 0
0.0212467 2.71051e-20 0.00749879 0.0451033 -0.279201 -0.0307149
0.0225008 -5.42101e-20 0.00118742 0.0199726 -0.233927 -0.00197634
0.0215594 -2.25875e-21 0.00656172 0.0424249 -0.280187 -0.0272536
0.0221795 0 0.00405365 0.0356377 -0.282362 -0.0163054
0.0198927 0 0.0106245 0.0553658 -0.275126 -0.0397636
0.0209311 0 0.00843592 0.0480192 -0.278094 -0.0339719
0.0224935 0 0.00182613 0.0279758 -0.272369 -0.00503978
0.02187 2.71051e-20 0.00562207 0.0399762 -0.281046 -0.0235107
-0.0225 0 0.00233887 0.114302 -0.153394 -0.0013075
0.0224908 0 0.0024723 0.031451 -0.281323 -0.00851616
0.00249998 -1.0842e-19 0.0225 0.137813 -0.223502 0.0124824
-0.0025 0 0.0225 0.136711 -0.218755 0.0332653
0.0206154 2.71051e-20 0.00937446 0.0512208 -0.276855 -0.0369144
0.0221823 2.25875e-21 0.00468259 0.0377519 -0.281802 -0.019461
0.0193362 0 0.0118745 0.0603689 -0.272879 -0.0425996
0.0224923 -2.71051e-20 0.0031118 0.0336651 -0.282502 -0.0118436
0.0197298 9.03502e-21 0.0112496 0.058122 -0.273963 -0.041642
0.02156 2.25875e-21 0.00718659 0.0447222 -0.279414 -0.0300399
0.0227337 0 0 0 0 0
0.021247 -2.71051e-20 0.00812398 0.0475345 -0.278358 -0.0333693
0.0218727 -2.71051e-20 0.00624927 0.0421808 -0.280351 -0.0264368
0.0202841 -6.77626e-21 0.0103026 0.0546526 -0.275458 -0.0395873
0.0224952 2.71051e-20 0.00374415 0.0356737 -0.282363 -0.0151076
0.0209317 0 0.00906182 0.0506162 -0.277167 -0.0364214
0.0221841 -6.77626e-21 0.00531005 0.0398425 -0.28118 -0.0225427
0.0228272 4.51751e-21 0.000290736 0.00173384 -0.0652805 9.37699e-05
0.0228187 0 0.000886665 0.015209 -0.199448 -0.000878925
0.0228117 -4.51751e-21 0.00151191 0.026494 -0.262107 -0.00358964
0.0228077 -2.25875e-21 0.00215451 0.0313024 -0.279157 -0.00704687
0.0206155 0 0.00999985 0.0539343 -0.275833 -0.0392987
0.0224972 -2.71051e-20 0.00437224 0.0377393 -0.281867 -0.0183493
0.0218735 0 0.00687445 0.0444238 -0.279615 -0.0292792
0.0229286 2.71051e-20 0 0 0 0
0.0215604 -2.25875e-21 0.0078116 0.0470866 -0.278607 -0.0327423
-0.02125 1.35525e-20 0.00865601 0.091693 -0.191678 0.00271997
0.022185 2.25875e-21 0.00593627 0.0419905 -0.280507 -0.025553
0.022807 2.25875e-21 0.00279629 0.0337379 -0.282074 -0.0105119
0.0212475 2.71051e-20 0.00874944 0.0500461 -0.277457 -0.0359441
0.00874659 9.03502e-21 0.02125 0.125123 -0.235841 -0.0163721
-0.01625 9.03502e-21 0.0162494 0.0730563 -0.223901 0.0568723
-0.00875 0 0.02125 0.121409 -0.219994 0.0546306
-0.0225 0 0.00479859 0.118705 -0.183355 -0.00458681
0.0149676 0 0.0175 0.0924178 -0.256011 -0.0401992
0.0163205 -7.7443e-21 0.0162497 0.0835993 -0.260992 -0.0440656
0.0224981 -2.71051e-20 0.00499856 0.0398006 -0.28128 -0.021507
-0.0175 0 0.0149988 0.0678131 -0.217943 0.0471723
0.00499976 0 0.0225 0.137716 -0.22587 0.000963852
-0.005 0 0.0225 0.135545 -0.216485 0.0420401
-0.015 0 0.0175 0.0829767 -0.225637 0.0601577
0.0202842 -4.51751e-21 0.0109469 0.0576381 -0.274337 -0.041949
0.0209319 2.25875e-21 0.00968728 0.0532387 -0.276169 -0.0389212
0.0228084 -2.25875e-21 0.0034307 0.0357263 -0.282299 -0.0138449
0.018056 -5.42101e-20 0.0143983 0.0725722 -0.267042 -0.0463104
0.0175779 0 0.0149998 0.0761123 -0.265166 -0.0463268
0.0218739 -2.71051e-20 0.00749941 0.0467226 -0.278832 -0.0320584
0.0221861 6.77626e-21 0.00656201 0.0441691 -0.279801 -0.0284785
0.0231393 2.71051e-20 0 0 0 0
0.0231335 2.71051e-20 0.000583267 0.00866459 -0.134632 -0.000318002
0.0215608 -2.25875e-21 0.00843687 0.0495211 -0.277738 -0.0353959
0.0231277 -2.71051e-20 0.00119646 0.0222929 -0.2354 -0.00229814
0.0198929 0 0.0118749 0.0613783 -0.272649 -0.0441689
0.0228102 -2.25875e-21 0.00405972 0.0377582 -0.281916 -0.0171787
0.0224985 0 0.00562421 0.0418801 -0.28064 -0.0245914
0.0206155 5.42101e-20 0.010625 0.0567596 -0.274731 -0.0416377
0.0231238 0 0.00183721 0.030453 -0.272692 -0.00553105
0.0186957 -4.51751e-21 0.0137498 0.0696095 -0.268578 -0.0463439
0.0212477 0 0.00937484 0.0526233 -0.276501 -0.038443
0.0137246 -9.03502e-21 0.01875 0.102055 -0.250677 -0.0369974
-0.01875 1.807e-20 0.0137433 0.0648286 -0.210629 0.0367273
-0.01375 -1.807e-20 0.01875 0.0938676 -0.225536 0.0628645
0.0231223 2.71051e-20 0.00248253 0.0337854 -0.280924 -0.00907407
0.0228112 -4.51751e-21 0.00468621 0.0397944 -0.281366 -0.020411
0.0221866 6.77626e-21 0.00718706 0.0464085 -0.279046 -0.0313279
0.0231227 2.71051e-20 0.00311907 0.0358711 -0.282057 -0.012532
0.0218741 0 0.00812449 0.0490879 -0.278001 -0.0347669
0.0209319 -4.51751e-21 0.0103125 0.0559904 -0.27512 -0.0412565
0.0202842 -6.77626e-21 0.0115529 0.0605134 -0.27309 -0.0440726
0.0233506 -1.35525e-20 0 0 0 0
0.022499 0 0.00624956 0.0440029 -0.279957 -0.0275995
0.01973 9.03502e-21 0.0124999 0.0643803 -0.271336 -0.045807
0.0193365 0 0.0131249 0.0669753 -0.270084 -0.0464123
0.0215611 0 0.00906223 0.0520377 -0.276819 -0.0379479
0.0228116 2.25875e-21 0.00531183 0.0418205 -0.280755 -0.0235806
0.0231237 2.71051e-20 0.00374822 0.0378438 -0.281899 -0.0159162
0.0234469 -6.77626e-21 0.000292113 0.00218959 -0.0656672 8.90124e-05
0.0234425 2.25875e-21 0.00089102 0.0172368 -0.20057 -0.00107389
0.0212478 2.71051e-20 0.00999997 0.0552783 -0.275482 -0.0408812
0.0206155 0 0.01125 0.0596526 -0.273562 -0.0438791
0.0234387 0 0.00151844 0.0289843 -0.262624 -0.00399779
0.0221868 -6.77626e-21 0.00781209 0.0487004 -0.278247 -0.0341042
0.0224994 -2.71051e-20 0.00687472 0.0461734 -0.279234 -0.0305256
0.0231244 -2.71051e-20 0.0043744 0.0398454 -0.281418 -0.0192476
0.0234365 0 0.0021615 0.0337534 -0.278847 -0.00754369
-0.023538 -5.42101e-20 0 0 0 0
0.0235476 0 0 0 0 0
0.0218744 0 0.00874973 0.0515278 -0.277113 -0.0373965
0.0228118 2.25875e-21 0.00593712 0.043885 -0.280099 -0.0266689
0.012481 -1.0842e-19 0.02 0.112814 -0.244456 -0.032477
-0.02 0 0.0124878 0.0693315 -0.203726 0.0228447
-0.0125 0 0.02 0.105935 -0.221861 0.0606415