# UMean  POINT_DATA 37667
# x  y  z  UMean_x  UMean_y  UMean_z
-5.90671e-05 2.1684e-19 0 0 0 0
0.000934805 0 0 0 0 0
-0.00106911 0 0 0 0 0
0.00140088 2.71051e-20 0 0 0 0
-0.00151888 -2.71051e-20 0 0 0 0
0.00117901 -9.03502e-21 0.00117113 0.022867 -0.120569 0.00686582
-0.00128849 2.25875e-20 0.00117062 0.0267309 -0.103448 0.00535812
-4.31765e-05 1.0842e-19 0.00234072 0.0298512 -0.171756 0.0128437
0.00239261 0 0 0 0 0
-0.00253032 0 0 0 0 0
0.00336229 8.13152e-20 0 0 0 0
0.00242341 0 0.00234108 0.0265619 -0.189713 0.012092
-0.00252293 0 0.00234014 0.0347149 -0.153696 0.0118737
-0.00355263 -5.42101e-20 0 0 0 0
0.00120442 1.35525e-20 0.0035713 0.0313295 -0.233088 0.0187114
-0.00127507 -9.03502e-21 0.00357065 0.0347086 -0.214478 0.0203281
0.00362707 -4.51751e-21 0.00117131 0.0199807 -0.138212 0.00705558
0.00385067 -5.42101e-20 0 0 0 0
-0.00376956 -4.51751e-21 0.00117017 0.032745 -0.0914046 0.00298207
-0.00399133 0 0 0 0 0
-2.29192e-05 -1.0842e-19 0.00480025 0.0354799 -0.242568 0.0232549
0.00481724 0 0 0 0 0
-0.00501448 0 0 0 0 0
0.00367197 -1.35525e-20 0.00357105 0.028947 -0.247176 0.0150899
-0.00376301 4.51751e-21 0.00356998 0.0398309 -0.193039 0.0193468
0.00245907 -1.0842e-19 0.00480044 0.0330872 -0.253756 0.0187188
0.00487218 1.0842e-19 0.00233996 0.0242927 -0.205033 0.00991027
-0.00251212 0 0.00479977 0.0390072 -0.227234 0.0256769
-0.00501145 0 0.00233967 0.0422908 -0.139555 0.00946577
0.00575627 -5.42101e-20 0 0 0 0
-0.00604431 0 0 0 0 0
0.00605007 -1.807e-20 0.00116989 0.0179967 -0.153172 0.00596083
0.00122797 -4.51751e-21 0.006084 0.0368491 -0.261447 0.0237287
-0.001262 -9.03502e-21 0.00608355 0.0391155 -0.253834 0.0295657
0.00627263 5.42101e-20 0 0 0 0
-0.00625929 -4.51751e-21 0.00116985 0.0424043 -0.0894495 0.000658674
-0.00647612 1.35525e-19 0 0 0 0
0.00493143 -2.1684e-19 0.00479869 0.0315847 -0.261262 0.0130659
-0.00500606 0 0.00479935 0.0443495 -0.209127 0.0253663
0.00612525 -9.03502e-21 0.00356686 0.0275023 -0.256802 0.0105494
0.00371201 -1.35525e-20 0.00608361 0.0353564 -0.265456 0.0166287
-0.00375618 0 0.00608307 0.04233 -0.241001 0.0329638
-0.00625636 0 0.00356948 0.0479795 -0.173539 0.0159374
0.00720746 0 0 0 0 0
-8.80336e-06 0 0.00736662 0.0421894 -0.25908 0.0270009
-0.00750642 -1.0842e-19 0 0 0 0
0.00730091 1.0842e-19 0.00233311 0.0230849 -0.217154 0.00676644
0.00248389 -1.0842e-19 0.00736673 0.0407654 -0.26293 0.0195503
-0.00250453 1.0842e-19 0.00736633 0.0443018 -0.252244 0.0331649
-0.00750536 1.0842e-19 0.00233933 0.0527548 -0.132211 0.00648794
0.00810899 2.71051e-20 0 0 0 0
0.00844495 -4.51751e-21 0.00116271 0.0170325 -0.165644 0.00361776
-0.00854047 8.13152e-20 0 0 0 0
0.00866226 5.42101e-20 0 0 0 0
0.0061894 1.35525e-20 0.00607973 0.0346817 -0.267593 0.0092904
-0.00625302 -1.35525e-20 0.00608271 0.0469886 -0.223546 0.0330279
0.00124214 1.807e-20 0.00865691 0.0459813 -0.260663 0.02298
-0.00125418 4.51751e-21 0.00865666 0.047232 -0.258118 0.031225
0.00739431 0 0.00479014 0.0310888 -0.266046 0.00718103
-0.0087541 0 0.00116965 0.0532148 -0.0947045 -0.000537891
0.00497255 0 0.00736563 0.0400137 -0.265215 0.0117262
-0.00500221 -1.0842e-19 0.00736611 0.0472932 -0.241321 0.0369541
-0.00750287 -1.0842e-19 0.00479904 0.0523834 -0.191607 0.0224332
-0.00896833 0 0 0 0 0
0.00856709 0 0.00355042 0.027183 -0.262881 0.0058754
0.00373618 9.03502e-21 0.00865671 0.0452619 -0.262476 0.0144951
-0.00375209 0 0.00865641 0.0489961 -0.253303 0.0383066
-0.00875292 0 0.00356915 0.0598538 -0.160626 0.0112229
0.00955779 0 0 0 0 0
-2.33168e-06 -1.0842e-19 0.00994661 0.0525774 -0.256833 0.0265218
0.00971438 0 0.00230723 0.0228314 -0.224176 0.00303001
-0.0100026 1.0842e-19 0 0 0 0
0.00249558 0 0.00994668 0.0518203 -0.258969 0.0178928
-0.00250115 0 0.00994648 0.0537154 -0.253928 0.0346602
-0.0100023 0 0.00233912 0.0644738 -0.130942 0.00415491
0.0103892 -8.13152e-20 0 0 0 0
0.00745704 0 0.00736086 0.0400642 -0.266769 0.00408149
-0.00750103 1.0842e-19 0.00736595 0.0516718 -0.22664 0.0374698
0.00866276 -4.51751e-21 0.00606706 0.0350603 -0.268842 0.00226421
-0.0087514 1.35525e-20 0.00608247 0.0541255 -0.204567 0.0296708
0.00622747 9.03502e-21 0.00865489 0.0451142 -0.264186 0.00624026
-0.006251 9.03502e-21 0.00865624 0.0513663 -0.24449 0.0429038
0.0107996 -2.25875e-20 0.00114301 0.0166773 -0.168381 0.000574941
0.00985495 0 0.00476418 0.0316451 -0.268871 0.00143336
0.010977 8.13152e-20 0 0 0 0
-0.0110388 -2.71051e-20 0 0 0 0
-0.0100013 0 0.00479884 0.063616 -0.178645 0.0179772
0.00499216 0 0.00994634 0.051505 -0.260921 0.00922607
-0.00500053 -1.0842e-19 0.0099464 0.055214 -0.249054 0.0414506
0.00124803 -9.03502e-21 0.0112174 0.0583376 -0.255138 0.0214658
-0.001251 4.51751e-21 0.0112172 0.0590354 -0.253008 0.03026
-0.0112517 1.35525e-20 0.00116954 0.0612167 -0.100058 -0.000155501
-0.0114646 5.42101e-20 0 0 0 0
0.0110102 -1.807e-20 0.0035042 0.0278138 -0.265514 0.00112192
0.0118003 1.0842e-19 0 0 0 0
-0.0112513 9.03502e-21 0.00356894 0.0745684 -0.156901 0.00740796
0.00374639 4.51751e-21 0.0112173 0.057935 -0.257354 0.0125365
-0.00375048 0 0.0112171 0.0599387 -0.250619 0.0386108
0.00871575 4.51751e-21 0.0086503 0.0457 -0.265732 -0.00163276
-0.00875046 9.03502e-21 0.00865614 0.0547277 -0.231046 0.0437083
0.012129 -1.0842e-19 0.00223333 0.0212308 -0.224551 -0.000603142
0.0099385 0 0.00735088 0.040963 -0.267946 -0.00318412
-0.0100005 1.0842e-19 0.00736585 0.0582901 -0.210636 0.034482
0.0074867 0 0.00994503 0.0517531 -0.262704 0.000721203
-0.00750024 0 0.00994635 0.0571826 -0.240912 0.0456459
-3.82247e-07 -2.1684e-19 0.0124879 0.0659688 -0.250851 0.025166
-0.012501 0 0 0 0 0
0.0126142 0 0 0 0 0
0.0111384 -4.51751e-21 0.00604172 0.0363884 -0.269879 -0.00430503
-0.012501 0 0.00233899 0.0757524 -0.133533 0.00322179
0.00249923 1.0842e-19 0.0124879 0.0655552 -0.253169 0.0161736
-0.00250018 -1.0842e-19 0.0124878 0.0665609 -0.248548 0.0338046
-0.0112506 0 0.00608232 0.0648319 -0.189277 0.0239884
0.00624356 -4.51751e-21 0.0112169 0.0579126 -0.259486 0.00356652
-0.00625022 -1.35525e-20 0.0112171 0.060982 -0.246811 0.0456649
0.0131915 -2.71051e-20 0 0 0 0
0.0123278 -1.0842e-19 0.00471106 0.0329037 -0.270889 -0.00364718
0.0132267 9.03502e-21 0.00104247 0.0105021 -0.162701 -0.00211288
-0.0125005 1.0842e-19 0.00479871 0.0774881 -0.173082 0.0136437
0.00499843 -1.0842e-19 0.0124878 0.065417 -0.25543 0.00696843
-0.00500008 0 0.0124878 0.0672271 -0.245847 0.041683
-0.0135382 2.71051e-20 0 0 0 0
0.00124969 -4.51751e-21 0.0137434 0.0731723 -0.24878 0.0199549
-0.00125016 0 0.0137433 0.0735459 -0.24633 0.0288818
-0.0137506 1.807e-20 0.00116948 0.0669487 -0.103297 0.000945694
0.0135067 9.03502e-21 0.00337591 0.0280532 -0.267373 -0.00210225
-0.013963 8.13152e-20 0 0 0 0
0.00997739 -1.0842e-19 0.00994339 0.0526282 -0.264127 -0.007531
-0.0100001 0 0.00994633 0.0600316 -0.229241 0.0459628
0.014125 -5.42101e-20 0 0 0 0
0.0111994 -1.807e-20 0.00864583 0.046951 -0.266907 -0.00911754
-0.0112502 -4.51751e-21 0.00865607 0.0599744 -0.215046 0.0400782
-0.0137505 -4.51751e-21 0.00356883 0.0899228 -0.161016 0.00582233
0.00873818 -1.35525e-20 0.0112161 0.0584463 -0.26124 -0.00534866
-0.00875009 -9.03502e-21 0.0112171 0.0621776 -0.23994 0.0499235
0.00374931 -4.51751e-21 0.0137434 0.0729702 -0.251251 0.0106488
-0.00375007 4.51751e-21 0.0137433 0.0739754 -0.244059 0.03736
0.0143989 0 0 0 0 0
0.0124168 -1.0842e-19 0.00734439 0.0427154 -0.268941 -0.00989232
0.0144673 2.71051e-20 0.000330796 0.00192314 -0.0616416 -0.000160023
-0.0125002 0 0.00736579 0.0678371 -0.197519 0.0287938
0.00749644 -1.0842e-19 0.0124877 0.0656767 -0.257405 -0.00233239
-0.00750003 -1.0842e-19 0.0124878 0.067881 -0.241718 0.0478544
0.014749 0 0.000698994 0.00467242 -0.130982 -0.000376145
0.0148911 0 0 0 0 0
0.0136237 4.51751e-21 0.0060267 0.0387358 -0.270946 -0.0100883
0.0148703 -1.807e-20 0.00154753 0.0144004 -0.191114 -0.000253927
0.0149756 -5.42101e-20 0.000309223 0.00179772 -0.0576216 -0.000149587
-2.93175e-08 0 0.0149988 0.0816945 -0.243815 0.0236688
-0.0150003 1.0842e-19 0 0 0 0
-0.0137503 -9.03502e-21 0.00608223 0.0789329 -0.182443 0.0179962
0.00624827 0 0.0137433 0.0730272 -0.253463 0.00104522
-0.00625003 9.03502e-21 0.0137433 0.0743221 -0.241643 0.0450038
0.0151457 2.71051e-20 0 0 0 0
-0.0150004 1.0842e-19 0.00233892 0.0860962 -0.138208 0.00324582
0.00249992 -1.0842e-19 0.0149988 0.0815126 -0.246307 0.0144439
-0.00250001 -1.0842e-19 0.0149988 0.0819437 -0.241384 0.0323662
0.0153731 3.01167e-21 0.000848982 0.00864934 -0.146108 0.00100168
0.0154079 0 0 0 0 0
0.0154333 2.71051e-20 0.000196582 0.00111518 -0.0405392 0.000981986
0.0148306 0 0.004694 0.0355801 -0.271725 -0.00757348
0.0155974 0 0.00145938 0.0187158 -0.222687 0.00163143
-0.0150002 -1.0842e-19 0.00479864 0.0919031 -0.174284 0.0101786
0.0157765 -2.71051e-20 0.000438014 0.0030226 -0.0896103 0.00179503
0.00499965 1.0842e-19 0.0149988 0.0814806 -0.248651 0.00477607
-0.00500001 0 0.0149988 0.0821371 -0.239032 0.04036
0.0112268 -1.35525e-20 0.0112162 0.059573 -0.262451 -0.0140761
-0.01125 -9.03502e-21 0.0112171 0.0638654 -0.229231 0.0496966
0.0124603 -1.0842e-19 0.0099452 0.054154 -0.265142 -0.0153427
-0.0125 -1.0842e-19 0.00994631 0.0645378 -0.215987 0.0418127
0.00999097 -1.0842e-19 0.0124877 0.066416 -0.258915 -0.0115624
-0.01 0 0.0124878 0.0685784 -0.234996 0.0508337
-0.016038 -5.42101e-20 0 0 0 0
0.0160421 2.71051e-20 0 0 0 0
0.0160727 2.71051e-20 0.000187423 0.00106322 -0.0386504 0.000936232
0.0136832 -4.51751e-21 0.0086521 0.048989 -0.267753 -0.0159749
-0.0137501 9.03502e-21 0.00865604 0.0681374 -0.201383 0.0328267
0.0161756 0 0.00179843 0.0224678 -0.2351 0.000445013
0.0162555 -9.03502e-21 0.000985774 0.013255 -0.16533 0.00142447
0.00874511 1.35525e-20 0.0137433 0.0734674 -0.255252 -0.00865372
0.0162903 2.71051e-20 0 0 0 0
-0.0162502 0 0.00116945 0.073173 -0.106655 0.00184654
-0.00875001 0 0.0137433 0.0744336 -0.238059 0.0507566
0.00124997 0 0.0162494 0.0900784 -0.241268 0.0183618
-0.00125001 1.807e-20 0.0162494 0.0901946 -0.238706 0.0273836
-0.0164624 -2.71051e-20 0 0 0 0
0.0161381 -8.13152e-21 0.00328259 0.0318451 -0.267879 -0.00467189
0.0165248 0 0 0 0 0
0.0165235 2.71051e-20 0.000214492 0.00357359 -0.0498916 0.000828441
0.0149084 0 0.00736477 0.0456708 -0.269394 -0.0155795
-0.0162502 9.03502e-21 0.00356877 0.103072 -0.16783 0.00519195
0.00374983 -4.51751e-21 0.0162494 0.0900248 -0.243749 0.00872687
-0.00375 0 0.0162494 0.0902926 -0.236276 0.035756
-0.0150001 -2.1684e-19 0.00736576 0.0796414 -0.19046 0.0217151
0.00749843 0 0.0149988 0.0816847 -0.250665 -0.00515525
-0.0075 0 0.0149988 0.0821107 -0.236325 0.0470635
0.0168483 5.42101e-20 0.000518488 0.0083679 -0.119145 0.00184064
0.0168009 0 0.00159734 0.0239378 -0.238908 0.000482589
0.0171763 2.71051e-20 0 0 0 0
0.0171798 0 0.000213918 0.00356404 -0.0497582 0.000826226
0.0162492 7.7443e-21 0.00607578 0.0430909 -0.270796 -0.0145328
-0.0162501 1.35525e-20 0.00608218 0.0934324 -0.183231 0.0125497
0.017409 0 0 0 0 0
0.00624914 -9.03502e-21 0.0162494 0.0900768 -0.245955 -0.00138634
-0.00625 0 0.0162494 0.0902256 -0.234003 0.0432868
0.0174064 0 0.00108106 0.018603 -0.183881 0.00048616
-1.02401e-14 0 0.0175 0.0994106 -0.23559 0.0220248
-0.0175001 0 0 0 0 0
0.0174597 -4.51751e-21 0.00218801 0.0295342 -0.25337 -0.00207526
0.017634 2.71051e-20 0 0 0 0
0.0176441 0 0.000226518 0.00554978 -0.0550593 0.000179425
0.0124768 0 0.0124885 0.0676263 -0.259968 -0.0204403
-0.0175001 -1.0842e-19 0.00233889 0.0952063 -0.143632 0.00297737
-0.0125 0 0.0124878 0.0697513 -0.22554 0.0491621
0.00249998 -1.0842e-19 0.0175 0.099414 -0.238081 0.0126373
-0.0025 0 0.0175 0.099377 -0.233102 0.0307005
0.013712 1.35525e-20 0.0112202 0.0613127 -0.263237 -0.022217
-0.01375 4.51751e-21 0.0112171 0.06695 -0.216504 0.0441807
0.011236 9.03502e-21 0.0137435 0.074313 -0.256532 -0.018198
-0.01125 0 0.0137433 0.0743149 -0.232031 0.0528938
0.0149484 0 0.00995676 0.0565968 -0.265644 -0.0223732
0.0179798 0 0.000551805 0.0133533 -0.133412 0.000780062
-0.015 0 0.0099463 0.0712327 -0.20466 0.033771
0.00999396 0 0.0149988 0.0821802 -0.25225 -0.0150743
-0.01 0 0.0149988 0.0817374 -0.23238 0.0512669
0.0177172 -9.03502e-21 0.00353836 0.0369109 -0.271238 -0.00748718
0.0179881 -5.42101e-20 0.00171051 0.0294577 -0.249116 -0.00121656
-0.0175001 -1.0842e-19 0.00479861 0.103864 -0.178293 0.0067153
0.0175164 0 0.00482374 0.0412098 -0.271957 -0.0123393
0.00499976 0 0.0175 0.09942 -0.240406 0.00265092
-0.005 0 0.0175 0.0992187 -0.230731 0.038538
0.0182698 -2.71051e-20 0 0 0 0
0.0180402 0 0.00291708 0.0349719 -0.269216 -0.00516244
0.0182858 0 0.000227338 0.00556988 -0.0552588 0.000180075
-0.01625 -4.51751e-21 0.00865603 0.0786844 -0.193847 0.0235628
0.00874647 -9.03502e-21 0.0162494 0.0903103 -0.247799 -0.0116855
-0.00875 -9.03502e-21 0.0162494 0.0897792 -0.231443 0.0492663
0.0162929 -6.45358e-21 0.00868413 0.0526108 -0.267796 -0.0224617
0.018496 -2.71051e-20 0 0 0 0
0.0180113 0 0.00422619 0.0401026 -0.272993 -0.0106851
-0.018538 -2.71051e-20 0 0 0 0
0.0185987 9.03502e-21 0.00110122 0.0212262 -0.190741 -0.00096852
0.0187236 0 0 0 0 0
0.0187582 0 0.000214893 0.00460274 -0.0556276 -0.000859915
0.0177321 -2.71051e-20 0.00614951 0.0459114 -0.270403 -0.0171525
-0.01875 0 0.00116944 0.0804702 -0.111806 0.00195637
0.00124999 0 0.01875 0.10884 -0.232352 0.0165994
-0.00125 1.807e-20 0.01875 0.108723 -0.229844 0.0256707
0.0186544 -4.51751e-21 0.00230765 0.0335033 -0.259482 -0.0039025
0.0180198 0 0.00548223 0.0439522 -0.270848 -0.0153333
-0.0189621 -5.42101e-20 0 0 0 0
-0.0175 0 0.00736574 0.0911517 -0.188661 0.013855
0.0186737 9.03502e-21 0.00359745 0.03904 -0.270666 -0.00886943
0.00749863 0 0.0175 0.0994598 -0.242457 -0.00769894
-0.0075 0 0.0175 0.0987568 -0.228353 0.0451314
0.0175523 -1.807e-20 0.00743048 0.0501033 -0.269129 -0.0211674
-0.01875 9.03502e-21 0.00356874 0.112084 -0.173179 0.00334809
0.00374987 -9.03502e-21 0.01875 0.108887 -0.234767 0.00679072
-0.00375 1.807e-20 0.01875 0.108511 -0.227393 0.0339159
0.0191417 0 0.000523466 0.011653 -0.134769 -0.00148867
0.0180335 0 0.00682266 0.0487693 -0.269813 -0.019821
0.0186794 -1.807e-20 0.00489465 0.043422 -0.271399 -0.0139168
0.0193409 0 0 0 0 0
0.019272 5.42101e-20 0.00165716 0.031128 -0.250532 -0.00198655
0.0193788 -2.71051e-20 0.000199 0.00426233 -0.0515134 -0.000796316
0.0137222 2.25875e-20 0.0137444 0.0754816 -0.257437 -0.0272326
-0.01375 9.03502e-21 0.0137433 0.0744471 -0.223293 0.0497556
0.0149636 0 0.0124914 0.0694476 -0.260596 -0.0285215
0.0124806 -2.1684e-19 0.0149989 0.082916 -0.253438 -0.0246546
0.0192887 -5.42101e-20 0.00296028 0.0384238 -0.269068 -0.00724534
-0.015 0 0.0124878 0.0721718 -0.215075 0.0423197
-0.0125 0 0.0149988 0.0811487 -0.226442 0.0513781
0.0195825 0 0 0 0 0
0.0186882 4.51751e-21 0.00618728 0.0477258 -0.270072 -0.0185839
-0.01875 -9.03502e-21 0.00608217 0.104227 -0.185992 0.006589
-0.01625 0 0.011217 0.0722296 -0.205591 0.034159
0.0112379 9.03502e-21 0.0162494 0.0907483 -0.249225 -0.0218051
0.0180425 0 0.00805496 0.0526553 -0.268303 -0.0239492
-0.01125 9.03502e-21 0.0162494 0.0887893 -0.227739 0.0523144
0.00624921 -1.807e-20 0.01875 0.108844 -0.236969 -0.00357624
-0.00625 1.807e-20 0.01875 0.108085 -0.225086 0.0411687
0.0193156 1.0842e-19 0.00426883 0.0426368 -0.271421 -0.0124101
0.0177574 0 0.0087192 0.0549853 -0.267494 -0.0257404
0.0197848 0 0 0 0 0
0.0163125 1.41979e-20 0.0112323 0.064158 -0.263495 -0.0298821
0.0197851 -2.71051e-20 0.00105651 0.0207609 -0.180508 -0.0013107
0.0199433 2.25875e-21 0.000343781 0.00762037 -0.086002 -0.000669764
0.0199517 -2.03288e-20 0 0 0 0
-0.02 0 0 0 0 0
-1.024e-14 0 0.02 0.118852 -0.225983 0.0201875
0.0199137 -1.35525e-20 0.002322 0.0362619 -0.260167 -0.0051138
0.0193276 5.42101e-20 0.00556506 0.0469413 -0.270347 -0.0172113
0.0186907 0 0.007459 0.0519961 -0.268817 -0.022958
-0.0175 -1.0842e-19 0.00994629 0.0793725 -0.197525 0.0230599
-0.02 -1.0842e-19 0.00233888 0.102147 -0.148823 0.00148217
0.0198262 -4.51751e-21 0.00353876 0.0416365 -0.270217 -0.0100469
0.0201482 0 0 0 0 0
0.00999425 1.0842e-19 0.0175 0.0995611 -0.244182 -0.0180573
0.00249998 -1.0842e-19 0.02 0.118969 -0.228411 0.0107651
-0.0025 0 0.02 0.118572 -0.223543 0.0287933
-0.01 0 0.0175 0.0977798 -0.225496 0.0495536
0.017571 9.03502e-21 0.00998358 0.0601242 -0.265578 -0.029523
0.0202492 0 0.000417568 0.010156 -0.102521 0.000156258
0.0197197 0 0.00492314 0.0457141 -0.270604 -0.0153351
0.0198624 -1.35525e-20 0.00431664 0.0438557 -0.270951 -0.0129766
0.0203337 0 0 0 0 0
0.0180485 5.42101e-20 0.00938017 0.058094 -0.266549 -0.0285534
0.0203539 -1.12938e-21 0.000720236 0.0183912 -0.166192 -0.000312922
0.0204602 -4.51751e-21 0.00021777 0.00555392 -0.05243 -7.19806e-05
0.0193297 0 0.00683974 0.0510912 -0.269299 -0.0218687
0.0205466 1.35525e-20 0 0 0 0
-0.02 -1.0842e-19 0.00479859 0.111279 -0.181413 0.00204485
0.0205431 0 0.00166059 0.0339405 -0.251534 -0.0028478
0.00499976 0 0.02 0.1189 -0.230725 0.000691376
-0.005 0 0.02 0.11807 -0.221181 0.0364136
0.018691 1.807e-20 0.00873215 0.0566356 -0.267182 -0.0273839
0.0206055 -1.35525e-20 0.00113383 0.0255937 -0.206183 -0.00121049
0.020248 4.51751e-21 0.00398707 0.0435909 -0.270786 -0.0117952
0.0198777 1.35525e-20 0.00559885 0.0481267 -0.270059 -0.0179445
-0.01875 0 0.00865601 0.0888249 -0.19135 0.0131283
0.0197161 9.03502e-21 0.00622263 0.0499008 -0.269615 -0.0201326
0.00874659 0 0.01875 0.108722 -0.238919 -0.014174
-0.00875 1.807e-20 0.01875 0.107207 -0.22275 0.0468848
0.0206918 0 0.000485439 0.0121887 -0.113861 0.000124121
0.0207292 0 0 0 0 0
0.0202493 0 0.00468188 0.0460116 -0.270495 -0.0149567
0.020562 0 0.00303088 0.0417048 -0.269729 -0.00848557
0.0205791 -1.35525e-20 0.0036086 0.0433362 -0.270168 -0.0106388
0.0209125 -1.35525e-20 0 0 0 0
0.0180516 0 0.0105934 0.0631647 -0.264506 -0.0322652
0.0202818 -2.25875e-21 0.00528131 0.0479206 -0.27008 -0.0171697
0.0193324 5.42101e-20 0.00810405 0.0554675 -0.267845 -0.0262135
0.0209518 -2.25875e-21 0.000794603 0.0210318 -0.178059 -0.00091939
0.0210055 0 0.000255445 0.00599665 -0.0592996 -0.000392003
0.0177662 9.03502e-21 0.0112451 0.0659267 -0.263396 -0.0336761
0.0198824 0 0.0068589 0.0521866 -0.269015 -0.0226111
-0.021038 -1.35525e-19 0 0 0 0
0.0205908 -4.51751e-21 0.00435357 0.0455885 -0.27039 -0.0137322
0.020941 9.03502e-21 0.00237638 0.0396363 -0.263788 -0.00613812
0.0197229 0 0.00748077 0.0541054 -0.268367 -0.0246735
0.0210741 1.54886e-20 0.00124456 0.029096 -0.221417 -0.00184353
0.0211253 0 0 0 0 0
0.02028 9.03502e-21 0.00593584 0.0500218 -0.269591 -0.0196404
0.0211074 1.35525e-20 0.00172891 0.0361289 -0.254054 -0.00341957
0.0149672 0 0.0149992 0.0839726 -0.254289 -0.0334776
0.0186932 4.51751e-21 0.00999396 0.0617379 -0.26529 -0.0316037
0.0206045 0 0.00499039 0.047732 -0.269969 -0.0165246
-0.015 0 0.0149988 0.0809399 -0.218806 0.0462451
0.0137244 -1.35525e-20 0.0162495 0.0912697 -0.250343 -0.0313782
-0.02125 -4.51751e-21 0.00116944 0.0868217 -0.118037 0.00109428
-0.01625 9.03502e-21 0.0137433 0.0758111 -0.213643 0.040973
0.0212778 0 0.000537366 0.0141726 -0.123309 -0.000310489
-0.01375 -1.807e-20 0.0162494 0.0874339 -0.222198 0.050743
0.00124999 1.807e-20 0.02125 0.129096 -0.221999 0.0147043
-0.00125 -2.71051e-20 0.02125 0.128829 -0.219578 0.0237197
0.0209137 2.25875e-21 0.00401727 0.0453104 -0.270296 -0.0124696
0.0202812 1.12938e-21 0.00654348 0.0518948 -0.269098 -0.0219364
0.021312 0 0 0 0 0
-0.02 0 0.00736573 0.0996334 -0.188786 0.00505903
0.0163191 -2.58143e-21 0.0137469 0.0773514 -0.257978 -0.0359225
0.0210372 -1.16165e-20 0.00357854 0.0442853 -0.269853 -0.0108309
0.0211194 0 0.00306084 0.0430156 -0.269417 -0.00895459
0.00749863 0 0.02 0.118613 -0.232873 -0.00976806
-0.0075 0 0.02 0.117169 -0.218864 0.0426748
0.0206095 2.71051e-20 0.0056213 0.0496305 -0.269596 -0.0188166
0.0209335 -2.25875e-21 0.00469187 0.0475551 -0.269838 -0.0157529
-0.021462 -1.35525e-19 0 0 0 0
0.0198906 -1.35525e-20 0.00811521 0.0565748 -0.267537 -0.0271379
0.019334 5.42101e-20 0.00936858 0.0602505 -0.266045 -0.0307826
0.012481 -1.0842e-19 0.0175 0.099673 -0.245606 -0.0280426
-0.0175 0 0.0124878 0.0762898 -0.20619 0.0311344
-0.0125 0 0.0175 0.0962411 -0.22156 0.0504267
0.0215095 1.35525e-20 0 0 0 0
0.0202822 -1.12938e-21 0.00718905 0.0540533 -0.268473 -0.0242569
0.0206114 0 0.00624672 0.0515868 -0.269121 -0.021172
-0.02125 -4.51751e-21 0.00356873 0.11639 -0.176124 -0.000421081
0.0175768 2.71051e-20 0.0124975 0.0719171 -0.260887 -0.0367569
0.0215533 -6.77626e-21 0.00086045 0.023975 -0.186645 -0.00104924
0.00374987 -9.03502e-21 0.02125 0.129108 -0.22438 0.00492718
-0.00375 1.807e-20 0.02125 0.128328 -0.217193 0.0318118
0.0197282 1.807e-20 0.00874265 0.0586764 -0.266725 -0.0292302
0.0209184 4.51751e-21 0.00530361 0.049263 -0.269603 -0.0178496
0.0215457 0 0.00146101 0.0346323 -0.243004 -0.00228309
0.0215987 4.51751e-21 0.000276646 0.00695677 -0.063331 -0.00013852
0.0215159 4.51751e-21 0.00210555 0.0405014 -0.264848 -0.00503955
0.0180546 0 0.0118959 0.0693194 -0.262197 -0.0362322
0.021231 0 0.0043614 0.0470553 -0.269703 -0.0144198
0.0215157 -1.12938e-21 0.00273879 0.0427909 -0.268228 -0.00805664
0.0217116 1.35525e-20 0 0 0 0
0.0206127 0 0.00687123 0.0536049 -0.268565 -0.0235027
0.0202827 2.25875e-21 0.00779649 0.0561636 -0.267704 -0.0265302
0.0209271 -6.77626e-21 0.00593526 0.0512311 -0.269123 -0.0203704
0.0212132 2.71051e-20 0.00496926 0.0489338 -0.269458 -0.016987
0.0215326 -3.38813e-21 0.00340415 0.0450517 -0.269766 -0.0105464
0.0186946 9.03502e-21 0.011248 0.0672217 -0.263137 -0.035553
-0.01875 9.03502e-21 0.011217 0.079073 -0.19878 0.0212849
0.0112381 0 0.01875 0.108536 -0.240597 -0.0245725
-0.01125 1.807e-20 0.01875 0.10563 -0.21993 0.0499697
0.0218884 0 0.00056802 0.0158986 -0.127712 -0.000302472
0.0215249 -1.12938e-21 0.00403417 0.0466988 -0.269491 -0.0132896
0.0218693 -2.71051e-20 0.00116661 0.0306325 -0.219965 -0.00163667
0.0219118 0 0 0 0 0
0.021857 0 0.00180024 0.0388818 -0.256573 -0.00394142
0.020929 -2.25875e-21 0.0065602 0.0532279 -0.268639 -0.0226617
0.0206135 2.71051e-20 0.00749641 0.0557223 -0.26788 -0.0258253
0.0202832 -2.25875e-21 0.00844256 0.0585118 -0.266909 -0.0288964
0.0212419 0 0.00562259 0.0508821 -0.269097 -0.0194355
0.0218488 0 0.00244594 0.0426443 -0.267176 -0.00687664
0.0198921 -1.35525e-20 0.00937253 0.0612487 -0.265761 -0.0316786
0.0215471 4.51751e-21 0.00467385 0.0486154 -0.269362 -0.0160069
0.0193355 -5.42101e-20 0.0106231 0.0654437 -0.264059 -0.0348525
0.0218549 2.71051e-20 0.00309251 0.0447665 -0.268907 -0.00961782
-0.02125 1.807e-20 0.00608216 0.109638 -0.187008 -0.000772521
0.0197292 -9.03502e-21 0.00999813 0.0635577 -0.264838 -0.033585
0.0221193 -1.35525e-20 0 0 0 0
0.0209299 0 0.00718499 0.0552624 -0.268011 -0.0250795
0.0212453 0 0.0062492 0.0528489 -0.26863 -0.0218465
0.00624921 -1.807e-20 0.02125 0.128788 -0.226653 -0.00538829
-0.00625 1.807e-20 0.02125 0.127483 -0.214894 0.03874
0.0206142 0 0.00812214 0.0579569 -0.267105 -0.0281736
0.0218602 0 0.0037332 0.046613 -0.269316 -0.012248
0.0215479 -4.51751e-21 0.00530169 0.0505194 -0.26905 -0.0184404
0.0221931 2.25875e-21 0.000875308 0.0257035 -0.189494 -0.000764201
0.0222091 9.03502e-21 0.000287223 0.00760269 -0.0652839 6.58495e-05
0.0202837 -1.58113e-20 0.00905069 0.0607237 -0.265999 -0.0311121
0.0221806 -2.25875e-21 0.001495 0.0372091 -0.246201 -0.00270082
0.0221729 -2.25875e-21 0.00213628 0.0422439 -0.26512 -0.00567148
0.0218648 2.71051e-20 0.0043649 0.048397 -0.26915 -0.0149454
0.0180554 -5.42101e-20 0.0131005 0.0752658 -0.25957 -0.0393085
0.0223146 1.35525e-20 0 0 0 0
0.0212462 -2.71051e-20 0.00687392 0.0548642 -0.268082 -0.0242295
-0.02 0 0.00994629 0.087163 -0.194068 0.0108031
0.0209305 4.51751e-21 0.00781023 0.0574801 -0.267289 -0.0273861
0.0221717 -4.51751e-21 0.00278024 0.0446252 -0.268174 -0.00849526
0.00999425 1.0842e-19 0.02 0.11811 -0.234834 -0.0202383
0.0215574 6.77626e-21 0.00593597 0.0524824 -0.268616 -0.0209675
-0.01 0 0.02 0.11562 -0.216377 0.0468088
0.0206151 -2.71051e-20 0.00874856 0.060212 -0.266273 -0.0304664
0.021869 0 0.00499521 0.0502696 -0.268944 -0.0175194
0.0221756 2.25875e-21 0.0034203 0.0464728 -0.26901 -0.0112016
0.0177686 9.03502e-21 0.0137495 0.0784583 -0.258125 -0.0402988
0.020284 0 0.00969614 0.0631663 -0.265093 -0.0333577
0.0186955 9.03502e-21 0.0124995 0.0731021 -0.260713 -0.0391711
-0.0225 0 0 0 0 0
-1.02401e-14 0 0.0225 0.139228 -0.215147 0.0182603
0.0225117 0 0.000578583 0.0171237 -0.129992 -0.00021506
0.0225229 2.71051e-20 0 0 0 0
0.0212467 2.71051e-20 0.00749879 0.0569916 -0.267422 -0.0266165
0.0225008 -5.42101e-20 0.00118742 0.0327851 -0.222398 -0.00177673
0.0215594 -2.25875e-21 0.00656172 0.05447 -0.26812 -0.0233609
0.0221795 0 0.00405365 0.0482304 -0.268927 -0.0138884
0.0198927 0 0.0106245 0.0663277 -0.263759 -0.0358936
0.0209311 0 0.00843592 0.0596901 -0.266503 -0.0297734
0.0224935 0 0.00182613 0.041014 -0.257762 -0.0043729
0.02187 2.71051e-20 0.00562207 0.0521778 -0.268576 -0.0200179
-0.0225 0 0.00233887 0.10577 -0.153241 -0.00120582
0.0224908 0 0.0024723 0.0444326 -0.266975 -0.00730932
0.00249998 -1.0842e-19 0.0225 0.139313 -0.217565 0.0090164
-0.0025 0 0.0225 0.138758 -0.212756 0.0266515
0.0206154 2.71051e-20 0.00937446 0.0625202 -0.265374 -0.0327146
0.0221823 2.25875e-21 0.00468259 0.0500481 -0.268808 -0.0165089
0.0193362 0 0.0118745 0.0709289 -0.261792 -0.0388682
0.0224923 -2.71051e-20 0.0031118 0.0463883 -0.268473 -0.0100901
0.0197298 9.03502e-21 0.0112496 0.0688142 -0.262727 -0.0377032
0.02156 2.25875e-21 0.00718659 0.0565257 -0.267523 -0.0258016
0.0227337 0 0 0 0 0
0.021247 -2.71051e-20 0.00812398 0.0592044 -0.266685 -0.0289806
0.0218727 -2.71051e-20 0.00624927 0.0541261 -0.268122 -0.0224845
0.0202841 -6.77626e-21 0.0103026 0.0656247 -0.264045 -0.0354617
0.0224952 2.71051e-20 0.00374415 0.0481342 -0.268743 -0.0127889
0.0209317 0 0.00906182 0.0619723 -0.265659 -0.0319981
0.0221841 -6.77626e-21 0.00531005 0.0519009 -0.268515 -0.0190522
0.0228272 4.51751e-21 0.000290736 0.00793771 -0.065725 0.000137196
0.0228187 0 0.000886665 0.0273495 -0.191126 -0.000798798
0.0228117 -4.51751e-21 0.00151191 0.0392077 -0.247756 -0.00310364
0.0228077 -2.25875e-21 0.00215451 0.0441477 -0.26475 -0.0060423
0.0206155 0 0.00999985 0.0649297 -0.264396 -0.0349088
0.0224972 -2.71051e-20 0.00437224 0.0498838 -0.268623 -0.0154533
0.0218735 0 0.00687445 0.056142 -0.267581 -0.0249269
0.0229286 2.71051e-20 0 0 0 0
0.0215604 -2.25875e-21 0.0078116 0.0587197 -0.266836 -0.0281787
-0.02125 1.35525e-20 0.00865601 0.0961176 -0.190634 0.00177567
0.022185 2.25875e-21 0.00593627 0.053808 -0.268112 -0.0215686
0.022807 2.25875e-21 0.00279629 0.0463175 -0.267874 -0.00891353
0.0212475 2.71051e-20 0.00874944 0.0614397 -0.265891 -0.0313008
0.00874659 9.03502e-21 0.02125 0.128086 -0.228822 -0.0159169
-0.01625 9.03502e-21 0.0162494 0.0864878 -0.215254 0.0435986
-0.00875 0 0.02125 0.126041 -0.212602 0.0439725
-0.0225 0 0.00479859 0.114054 -0.182878 -0.00386666
0.0149676 0 0.0175 0.099855 -0.246773 -0.0372667
0.0163205 -7.7443e-21 0.0162497 0.0921119 -0.251227 -0.0406955
0.0224981 -2.71051e-20 0.00499856 0.0516888 -0.268414 -0.0180554
-0.0175 0 0.0149988 0.0819548 -0.211042 0.0360378
0.00499976 0 0.0225 0.138974 -0.219963 -0.000851629
-0.005 0 0.0225 0.137844 -0.210433 0.0339267
-0.015 0 0.0175 0.0945323 -0.216373 0.0465161
0.0202842 -4.51751e-21 0.0109469 0.0682742 -0.263029 -0.0376113
0.0209319 2.25875e-21 0.00968728 0.06427 -0.264724 -0.0343
0.0228084 -2.25875e-21 0.0034307 0.0480532 -0.268499 -0.011666
0.018056 -5.42101e-20 0.0143983 0.0821126 -0.256648 -0.0425795
0.0175779 0 0.0149998 0.0853166 -0.254976 -0.0426311
0.0218739 -2.71051e-20 0.00749941 0.0582625 -0.266948 -0.0273573
0.0221861 6.77626e-21 0.00656201 0.055773 -0.267613 -0.024035
0.0231393 2.71051e-20 0 0 0 0
0.0231335 2.71051e-20 0.000583267 0.018123 -0.130827 -0.000249469
0.0215608 -2.25875e-21 0.00843687 0.0609263 -0.266094 -0.030552
0.0231277 -2.71051e-20 0.00119646 0.034689 -0.223615 -0.00197905
0.0198929 0 0.0118749 0.071696 -0.261549 -0.0399336
0.0228102 -2.25875e-21 0.00405972 0.0497608 -0.268447 -0.0143714
0.0224985 0 0.00562421 0.0535484 -0.268067 -0.0206069
0.0206155 5.42101e-20 0.010625 0.0674542 -0.263357 -0.0370593
0.0231238 0 0.00183721 0.0429902 -0.25808 -0.00471339
0.0186957 -4.51751e-21 0.0137498 0.0793573 -0.257984 -0.0424615
0.0212477 0 0.00937484 0.0637156 -0.265017 -0.0335838
0.0137246 -9.03502e-21 0.01875 0.108212 -0.24206 -0.034378
-0.01875 1.807e-20 0.0137433 0.0790499 -0.205728 0.0278917
-0.01375 -1.807e-20 0.01875 0.103369 -0.216147 0.0489933
0.0231223 2.71051e-20 0.00248253 0.0462173 -0.266602 -0.00767404
0.0228112 -4.51751e-21 0.00468621 0.0515063 -0.268292 -0.0170166
0.0221866 6.77626e-21 0.00718706 0.0578334 -0.267037 -0.0265069
0.0231227 2.71051e-20 0.00311907 0.0480251 -0.268067 -0.0105081
0.0218741 0 0.00812449 0.0604544 -0.266249 -0.0297504
0.0209319 -4.51751e-21 0.0103125 0.0667445 -0.263701 -0.036442
0.0202842 -6.77626e-21 0.0115529 0.0708432 -0.261912 -0.0395948
0.0233506 -1.35525e-20 0 0 0 0
0.022499 0 0.00624956 0.0554668 -0.267619 -0.0231225
0.01973 9.03502e-21 0.0124999 0.0744348 -0.260388 -0.0415142
0.0193365 0 0.0131249 0.0768984 -0.259295 -0.042334
0.0215611 0 0.00906223 0.0631771 -0.265282 -0.0328544
0.0228116 2.25875e-21 0.00531183 0.0533171 -0.268003 -0.0196173
0.0231237 2.71051e-20 0.00374822 0.0497011 -0.268268 -0.0132487
0.0234469 -6.77626e-21 0.000292113 0.00823752 -0.0658107 0.000125703
0.0234425 2.25875e-21 0.00089102 0.0289192 -0.191763 -0.000907905
0.0212478 2.71051e-20 0.00999997 0.0660802 -0.264048 -0.0358249
0.0206155 0 0.01125 0.0700272 -0.262297 -0.0391307
0.0234387 0 0.00151844 0.0412254 -0.248279 -0.00337787
0.0221868 -6.77626e-21 0.00781209 0.0599917 -0.266376 -0.0289331
0.0224994 -2.71051e-20 0.00687472 0.0574686 -0.267085 -0.0256155
0.0231244 -2.71051e-20 0.0043744 0.0513972 -0.268142 -0.0159427
0.0234365 0 0.0021615 0.0460056 -0.264336 -0.00636703
-0.023538 -5.42101e-20 0 0 0 0
0.0235476 0 0 0 0 0
0.0218744 0 0.00874973 0.0626721 -0.26549 -0.0321053
0.0228118 2.25875e-21 0.00593712 0.0551854 -0.267608 -0.0221791
0.012481 -1.0842e-19 0.02 0.11738 -0.236621 -0.0303208
-0.02 0 0.0124878 0.081692 -0.200342 0.0172966
-0.0125 0 0.02 0.113311 -0.213406 0.0476928