# UMean  POINT_DATA 43176
# x  y  z  UMean_x  UMean_y  UMean_z
6.77626e-21 0.000951594 0 0 0 0
0 0.000952378 6.05115e-05 0.00127973 -0.00651221 0.000361459
1.35525e-20 0.00101666 0 0 0 0
6.77626e-21 0.00108259 0 0 0 0
1.35525e-20 0.00108205 6.12824e-05 0.00112926 -0.00710239 0.000392304
1.0842e-19 -0.000230001 0.00117134 0.0267692 -0.117064 0.00612335
6.77626e-21 -0.00142666 0 0 0 0
6.77626e-21 -0.001427 4.90487e-05 0.00103731 -0.0052786 0.000292987
6.77626e-21 -0.00147935 0 0 0 0
0 -0.00153146 0 0 0 0
0 -0.00153095 4.85233e-05 0.00117018 -0.00482616 0.000251877
0 0.00226609 0.00117164 0.0232899 -0.126433 0.00696666
2.25875e-21 0.00102252 0.00234126 0.0282416 -0.175509 0.0128914
2.25875e-21 -0.00147475 0.00234099 0.0320139 -0.167137 0.012772
0 -0.00272686 0.00117106 0.0307375 -0.108694 0.00491718
0 0.00343106 0 0 0 0
1.35525e-20 0.00343226 7.48638e-05 0.00137953 -0.00867643 0.000479247
1.35525e-20 0.00351169 0 0 0 0
1.0842e-19 -0.000223755 0.00357153 0.0333088 -0.2267 0.0199447
-1.35525e-20 0.00359276 7.59703e-05 0.00121023 -0.00940762 0.000491469
-1.35525e-20 0.00359358 0 0 0 0
-6.77626e-21 -0.00393441 0 0 0 0
0 -0.00393462 3.89347e-05 0.000938941 -0.00387247 0.000202104
0 -0.00397618 0 0 0 0
-6.77626e-21 -0.00401725 3.85806e-05 0.00105999 -0.00355743 0.000157581
-6.77626e-21 -0.00401757 0 0 0 0
4.51751e-21 0.00351914 0.00234148 0.0248673 -0.183419 0.0124957
0 0.00227377 0.00357189 0.0297053 -0.233898 0.0187914
0 -0.00272176 0.00357118 0.0373446 -0.218079 0.0203838
-5.64689e-22 -0.00397255 0.00234072 0.0363931 -0.15897 0.0121218
-2.1684e-19 0.00476133 0.00117192 0.0201272 -0.135999 0.00740279
0 0.00102955 0.00480054 0.0340132 -0.244558 0.0224035
-5.64689e-22 -0.00146894 0.00480032 0.0375107 -0.240016 0.0243827
-1.0842e-19 -0.00522433 0.0011708 0.0355963 -0.102483 0.00346392
0 0.00590658 0 0 0 0
1.35525e-20 0.0059084 9.18337e-05 0.00146294 -0.011372 0.000594093
5.64689e-22 0.00352769 0.00480072 0.030884 -0.247684 0.0199025
0 0.0047708 0.00357214 0.026456 -0.239447 0.0170561
-1.35525e-20 0.00600567 0 0 0 0
-1.0842e-19 -0.000217791 0.00608418 0.0380511 -0.258913 0.027208
-1.35525e-20 0.00610537 9.33789e-05 0.00127046 -0.0122463 0.000578935
1.35525e-20 0.00610661 0 0 0 0
0 -0.00396773 0.00480011 0.0414535 -0.234083 0.0256792
0 -0.00522013 0.00357084 0.0419923 -0.208509 0.0200156
0 -0.00644084 0 0 0 0
0 -0.00644097 3.05957e-05 0.000840608 -0.00282116 0.000124967
0 0.00601513 0.00234156 0.0218023 -0.190479 0.0116471
-6.77626e-21 -0.00647363 0 0 0 0
0 0.00228097 0.00608442 0.0350579 -0.25931 0.0237795
0 -0.00650597 3.03603e-05 0.000961484 -0.00263895 8.34688e-05
0 -0.00650617 0 0 0 0
0 -0.00271679 0.00608392 0.0413958 -0.257048 0.030144
-1.12938e-21 -0.00647075 0.00234045 0.0417092 -0.15188 0.0109733
0 0.00725575 0.00117208 0.0172097 -0.145212 0.00743192
8.47033e-22 0.00103463 0.00736665 0.0410007 -0.258965 0.0253815
8.47033e-22 -0.00146474 0.00736653 0.0438575 -0.259284 0.0292324
0 0.00602547 0.00480075 0.0280866 -0.249512 0.0170447
-2.1684e-19 0.0047795 0.00608458 0.0323994 -0.258574 0.020054
0 -0.00772224 0.00117057 0.0417936 -0.0995075 0.00192087
1.0842e-19 -0.00521598 0.00608368 0.0451239 -0.253442 0.0323624
-2.82344e-22 -0.00646674 0.0047999 0.0459848 -0.22698 0.0261461
0 0.00726737 0.00357211 0.0235284 -0.243379 0.0149011
-5.64689e-22 0.00353384 0.00736675 0.0384384 -0.257839 0.0213288
0 -0.00396424 0.00736643 0.047027 -0.258509 0.0326981
0 0.0083778 0 0 0 0
0 0.00838051 0.000111807 0.00152117 -0.0146631 0.000693185
-1.35525e-20 0.00849876 0 0 0 0
0 -0.00771879 0.00357053 0.0475401 -0.198758 0.0187869
0 0.00862057 0.000113948 0.00129868 -0.0156912 0.000643188
1.35525e-20 0.00862241 0 0 0 0
0 -0.000214113 0.00865697 0.0466665 -0.259825 0.0275416
2.25875e-21 0.00851059 0.00234127 0.0189975 -0.196504 0.0104363
-3.38813e-21 -0.0089461 0 0 0 0
-3.38813e-21 -0.00894617 2.37524e-05 0.000752218 -0.00206459 6.53019e-05
-2.1684e-19 0.00228541 0.0086571 0.0442495 -0.257837 0.0229811
-3.38813e-21 -0.00897154 0 0 0 0
0 -0.00899669 2.35989e-05 0.000879258 -0.00200086 3.22741e-05
0 -0.00899681 0 0 0 0
-2.1684e-19 -0.00271373 0.00865684 0.0493351 -0.261389 0.0320302
2.25875e-21 -0.00896926 0.00234021 0.0482404 -0.146663 0.00942365
-1.0842e-19 0.00727782 0.00608447 0.0300575 -0.257048 0.0162026
2.82344e-22 0.00603292 0.00736677 0.0361549 -0.256169 0.0172169
2.25875e-21 0.00852298 0.0048004 0.0256012 -0.250237 0.0139927
-1.41172e-22 -0.00646384 0.00736632 0.0505391 -0.256373 0.0355575
-2.1684e-19 0.00974959 0.00117197 0.0144578 -0.153745 0.00708703
-1.0842e-19 -0.00771532 0.00608345 0.0493048 -0.248007 0.0336455
0 0.00478485 0.00865718 0.0420731 -0.255651 0.0184752
7.75035e-20 0.00103451 0.00994923 0.0515851 -0.256047 0.0245777
-7.41154e-20 -0.00146477 0.00994448 0.0539749 -0.257947 0.0292446
-2.1684e-19 -0.00521343 0.00865671 0.0522677 -0.262208 0.0362597
-2.82344e-22 -0.00896592 0.00479971 0.0513097 -0.219164 0.0256858
0 -0.0102205 0.00117037 0.0493963 -0.10017 0.000509979
0 0.00976367 0.00357144 0.0209099 -0.245813 0.0124959
7.24213e-20 0.0035336 0.00994335 0.0493816 -0.254008 0.0199558
0 0.00354007 0.00994334 0.0493991 -0.253996 0.0199455
5.14573e-20 -0.00396419 0.00994489 0.0565696 -0.25953 0.0338452
1.0842e-19 -0.0102177 0.00357025 0.0543025 -0.189775 0.0167593
0 0.0108441 0 0 0 0
0 0.0108481 0.000135646 0.00154598 -0.0186791 0.000765667
0 0.0109914 0 0 0 0
0 0.01114 0.000138658 0.00129068 -0.0198698 0.000676734
-2.71051e-20 0.0111428 0 0 0 0
0 -0.000212546 0.0112174 0.0587633 -0.25429 0.026279
-9.03502e-21 0.0110059 0.00234034 0.016414 -0.201399 0.00897214
5.64689e-22 0.00853188 0.00736656 0.0341362 -0.25416 0.0131566
0 0.00728421 0.00865713 0.0401203 -0.253407 0.0141016
1.0842e-19 0.00228732 0.0112174 0.0566033 -0.252265 0.021503
0 -0.0114503 0 0 0 0
0 -0.0114503 1.81853e-05 0.000677556 -0.00154186 2.48704e-05
0 -0.0114698 0 0 0 0
3.38813e-21 -0.011489 1.80881e-05 0.000801525 -0.00155977 2.1985e-06
0 -0.0114891 0 0 0 0
1.0842e-19 0.00977602 0.00608381 0.0280169 -0.255022 0.0123729
1.0842e-19 -0.00271244 0.0112173 0.0610772 -0.256312 0.0311231
-1.0842e-19 -0.00771318 0.0086566 0.0554714 -0.261899 0.0399757
4.23516e-22 -0.00895974 0.00736235 0.0544405 -0.252703 0.037561
4.23516e-22 -0.00896729 0.00736236 0.0544616 -0.252714 0.0375732
9.31736e-21 0.00603252 0.00994255 0.0473836 -0.251909 0.0154257
0 0.00604059 0.00994254 0.047406 -0.251894 0.0154128
2.82344e-22 -0.011468 0.00234 0.0559914 -0.143736 0.00765262
7.05155e-20 -0.00646371 0.00994772 0.0593729 -0.260549 0.038217
2.1684e-19 -0.0102148 0.00608326 0.0540853 -0.240926 0.0338093
-1.12938e-21 0.0110204 0.0047994 0.0234143 -0.250065 0.0108981
2.1684e-19 0.00478716 0.0112174 0.054598 -0.25027 0.0168236
0 0.0122435 0.00117144 0.0118227 -0.161224 0.00643287
0 -0.00521236 0.0112172 0.0635419 -0.258239 0.0359635
5.64689e-22 -0.0114652 0.00479955 0.0576556 -0.211299 0.024299
-2.37169e-20 0.00103742 0.0124875 0.0650692 -0.250051 0.0231609
9.53971e-20 -0.00146246 0.0124882 0.0672361 -0.25198 0.0279875
0 0.01226 0.00356989 0.0185876 -0.246961 0.0100108
0 -0.012719 0.0011702 0.0578412 -0.103827 -0.000542252
8.35386e-20 0.00353726 0.0124884 0.063034 -0.248134 0.0183918
-1.0842e-19 0.00978349 0.0086568 0.0383848 -0.251159 0.0099072
1.20596e-19 -0.00396235 0.0124875 0.0695281 -0.2539 0.0328413
1.41172e-22 0.00853624 0.00994662 0.0456009 -0.249781 0.0110174
0 -0.0127167 0.00357001 0.0624904 -0.182541 0.0141406
5.64689e-22 0.0110308 0.00736595 0.0323718 -0.25195 0.00923299
0 0.0133043 0 0 0 0
0 0.0133101 0.00016476 0.00153365 -0.0236103 0.000804127
1.0842e-19 0.00728695 0.0112174 0.0527563 -0.24829 0.0122519
-1.05879e-22 -0.00896334 0.00994548 0.0623909 -0.260692 0.0421297
1.0842e-19 -0.010213 0.0086565 0.058974 -0.260088 0.0428737
2.71051e-20 0.0134843 0 0 0 0
0 -0.00771229 0.0112172 0.0661556 -0.259872 0.0406631
4.23516e-20 -0.0114661 0.00736317 0.0589028 -0.247557 0.0385139
-2.71051e-20 0.0136661 0.000169324 0.0012505 -0.0250074 0.000673007
-2.71051e-20 0.0136704 0 0 0 0
-1.0842e-19 0.0122743 0.00608241 0.0262645 -0.252701 0.00868548
0 0.0135014 0.00233865 0.0140587 -0.205107 0.00735417
-1.0842e-19 -0.000212091 0.0137434 0.0734487 -0.247749 0.0248455
8.49151e-20 0.00603705 0.0124872 0.061139 -0.246221 0.0136924
0 0.00228788 0.0137434 0.0714038 -0.245926 0.0200175
0 -0.0139536 0 0 0 0
-1.69407e-21 -0.0139536 1.37177e-05 0.000607862 -0.0011829 1.6673e-06
0 -0.0139682 0 0 0 0
0 -0.0139828 1.36577e-05 0.000711449 -0.00123336 -1.07344e-05
0 -0.0139828 0 0 0 0
0 -0.00271207 0.0137433 0.0755975 -0.249598 0.0297046
8.63709e-20 -0.00646227 0.0124876 0.0719376 -0.25573 0.0376513
0 -0.0127143 0.00608309 0.0597033 -0.232746 0.0327675
-2.82344e-22 -0.0139669 0.00233981 0.0646333 -0.143013 0.00590308
6.77626e-21 0.0135179 0.00479763 0.0215328 -0.249189 0.00787773
0 0.00478783 0.0137434 0.0694736 -0.244101 0.0152235
2.1684e-19 -0.00521206 0.0137433 0.077839 -0.251479 0.0345768
0 -0.0139646 0.0047994 0.0652149 -0.204202 0.0221259
-1.0842e-19 0.0147376 0.00117073 0.00934775 -0.167402 0.00552739
8.47033e-22 0.0110359 0.00994643 0.0439964 -0.247649 0.00677626
1.0842e-19 0.00978668 0.0112174 0.0510862 -0.246297 0.00779654
0 0.0122827 0.00865616 0.0368599 -0.248913 0.00591724
3.23725e-20 0.00103796 0.0149988 0.0808416 -0.243073 0.0216558
1.40363e-19 -0.00146203 0.0149988 0.0828959 -0.244859 0.026504
1.05879e-22 0.00853678 0.012487 0.0593951 -0.244284 0.00907236
1.0842e-19 -0.0102122 0.0112172 0.0689106 -0.260921 0.0449967
-1.25255e-19 -0.011463 0.00994715 0.0656487 -0.259643 0.0452917
0 0.0147565 0.00356775 0.0166138 -0.247032 0.00755324
-1.0842e-19 -0.0152176 0.00117005 0.0661622 -0.108991 -0.00106987
-1.24937e-20 -0.0089622 0.0124877 0.0744534 -0.257311 0.0422833
-1.0842e-19 -0.0127128 0.00865642 0.0628515 -0.256545 0.0446344
5.64689e-22 0.0135297 0.00736494 0.03086 -0.249625 0.00550048
1.54206e-19 0.00353794 0.0149988 0.0788826 -0.241281 0.0168107
3.20185e-20 -0.00396203 0.0149988 0.0850353 -0.246661 0.0313458
-1.0842e-19 0.00728776 0.0137434 0.067671 -0.242246 0.0104703
0 -0.0152158 0.00356979 0.072119 -0.177884 0.0113042
0 0.0157567 0 0 0 0
2.1684e-19 -0.00771205 0.0137433 0.080158 -0.253356 0.0394051
0 0.0157653 0.000200597 0.00148146 -0.0296261 0.000797306
-1.25784e-19 -0.0139652 0.00736838 0.0640707 -0.241234 0.0382328
1.0842e-19 0.0147725 0.00608051 0.0248045 -0.250233 0.00520933
-2.71051e-20 0.0159775 0 0 0 0
-4.51751e-21 0.0159972 0.00233633 0.0120462 -0.20768 0.0056326
6.61744e-24 0.00603803 0.0149987 0.0770292 -0.239459 0.0119758
-2.71051e-20 0.0162004 0.000207421 0.00122894 -0.0312963 0.000602655
-2.71051e-20 0.0162074 0 0 0 0
1.0842e-19 -0.000212011 0.0162494 0.0902327 -0.240186 0.0233145
3.1466e-20 -0.00646202 0.0149988 0.0872452 -0.248478 0.0361524
0 -0.0152138 0.00608293 0.066467 -0.224373 0.0305824
1.0842e-19 0.00228798 0.0162494 0.0882597 -0.238442 0.0184467
-1.69407e-21 -0.016456 0 0 0 0
-1.69407e-21 -0.016456 1.01993e-05 0.000531299 -0.000921055 -8.0163e-06
-1.69407e-21 -0.0164669 0 0 0 0
-1.0842e-19 -0.00271201 0.0162494 0.0922834 -0.241916 0.0281526
0 -0.0164778 1.01638e-05 0.000604457 -0.000968656 -1.17688e-05
-1.69407e-21 -0.0164778 0 0 0 0
-2.82344e-22 -0.0164659 0.00233964 0.0736697 -0.144054 0.0044342
-2.1684e-19 0.0122863 0.0112172 0.0495992 -0.244252 0.00346993
2.13876e-20 0.0110365 0.0124868 0.0578134 -0.242297 0.00454602
4.51751e-21 0.0160154 0.00479528 0.0199922 -0.247796 0.00499182
1.41172e-22 0.0135355 0.00994611 0.0425928 -0.245477 0.00270582
-1.0842e-19 0.00978761 0.0137434 0.06601 -0.240331 0.00576999
0 0.00478796 0.0162494 0.0863721 -0.236665 0.013556
9.40604e-20 -0.0114622 0.0124877 0.077063 -0.2584 0.046519
-1.0842e-19 -0.0127122 0.0112171 0.0718104 -0.261014 0.0486459
0 -0.005212 0.0162494 0.0943999 -0.243661 0.0329509
1.0842e-19 -0.010212 0.0137433 0.0825344 -0.255119 0.0440712
1.0842e-19 0.0147819 0.00865531 0.0355545 -0.246644 0.00213567
1.35525e-19 -0.0139628 0.00994585 0.0692116 -0.257188 0.0473776
0 -0.0164641 0.00479927 0.0740896 -0.198712 0.0194531
0 0.00853784 0.0149987 0.0752924 -0.237584 0.00716386
-1.0842e-19 0.0172319 0.0011701 0.00732266 -0.172256 0.00437779
2.5861e-20 -0.00896199 0.0149988 0.0895055 -0.250272 0.0408538
0 -0.0152126 0.00865635 0.0672588 -0.251347 0.0449816
7.78528e-20 0.001038 0.0175 0.0985905 -0.234875 0.0200128
1.20623e-19 -0.001462 0.0175 0.100566 -0.236599 0.0248587
1.0842e-19 0.017253 0.0035653 0.0150689 -0.246321 0.00515105
0 0.0160286 0.00736361 0.029608 -0.247233 0.00198812
0 -0.0177165 0.00116993 0.0735402 -0.114116 -0.00103426
1.0842e-19 0.0072879 0.0162494 0.0845789 -0.234833 0.00865396
-7.22278e-20 0.003538 0.0175 0.0966827 -0.23312 0.0151228
1.11741e-19 -0.003962 0.0175 0.102601 -0.238313 0.0296473
1.0842e-19 -0.007712 0.0162494 0.0965626 -0.245428 0.0376784
1.3129e-19 -0.0164645 0.0073643 0.0702144 -0.234396 0.0366971
-1.0842e-19 -0.0177151 0.00356961 0.0829818 -0.176281 0.00871428
-2.71051e-20 0.0182028 0 0 0 0
-2.71051e-20 0.0182155 0.000241221 0.0014292 -0.0363961 0.00070086
0 0.0172707 0.00607818 0.0236435 -0.247717 0.00198049
-1.14138e-19 0.013536 0.0124864 0.0564023 -0.240233 0.00013258
1.0842e-19 0.0122874 0.0137434 0.0645016 -0.238335 0.00114609
2.71051e-20 0.0184707 0 0 0 0
5.42854e-20 0.00603798 0.0175 0.094847 -0.231319 0.0102019
-2.1684e-19 0.0147859 0.011217 0.0483033 -0.242125 -0.000715337
0 0.0110381 0.0149986 0.0736823 -0.235639 0.00239693
0 0.0184934 0.00233259 0.0104589 -0.20926 0.00386813
7.03336e-20 -0.006462 0.0175 0.104684 -0.240031 0.0343552
1.0842e-19 -0.012712 0.0137433 0.084943 -0.25657 0.0483639
1.0842e-19 -0.0177135 0.0060828 0.0746726 -0.21696 0.0274982
-1.85818e-20 -0.0139621 0.0124877 0.0797624 -0.258704 0.0500512
-2.71051e-20 0.0187394 0.000249081 0.00123339 -0.0381819 0.000439933
2.71051e-20 0.0187499 0 0 0 0
0 -0.000212006 0.01875 0.10889 -0.2313 0.021582
-5.64689e-22 0.016035 0.00994571 0.0413993 -0.243242 -0.00118207
-5.58926e-21 -0.011462 0.0149988 0.0917891 -0.251938 0.0453154
1.0842e-19 0.00228798 0.01875 0.106977 -0.229573 0.0167083
1.0842e-19 -0.0152122 0.0112171 0.0748828 -0.259821 0.051223
1.0842e-19 -0.002712 0.01875 0.110855 -0.232997 0.0263858
0 -0.0189578 0 0 0 0
0 -0.0189578 7.48767e-06 0.000445305 -0.000713612 -8.6701e-06
0 -0.0189658 0 0 0 0
2.1684e-19 0.00978778 0.0162494 0.0828887 -0.232936 0.00376162
0 -0.0189738 7.46722e-06 0.000490508 -0.000745055 -7.29986e-06
-1.69407e-21 -0.0189738 0 0 0 0
-4.23516e-22 -0.0189651 0.0023395 0.0826894 -0.146359 0.00343507
-9.03502e-21 0.0185135 0.0047916 0.0187863 -0.246049 0.00228832
-1.0842e-19 -0.010212 0.0162494 0.098746 -0.247195 0.0422624
2.60463e-20 -0.0164626 0.00994597 0.0732142 -0.253336 0.0480834
0 0.0172808 0.0086543 0.0344791 -0.244331 -0.00142999
0 0.00478797 0.01875 0.105119 -0.227801 0.0117802
1.0842e-19 -0.005212 0.01875 0.112865 -0.23468 0.0311
0 0.00853794 0.0175 0.0930872 -0.229459 0.0052696
1.69407e-20 -0.0189602 0.00479567 0.0842325 -0.195453 0.0166252
-4.23516e-22 -0.0189672 0.00479567 0.0842397 -0.19553 0.0166553
1.58078e-19 -0.008962 0.0175 0.10679 -0.241752 0.0389337
1.0842e-19 -0.0177125 0.00865629 0.0724507 -0.244976 0.0437641
-1.0842e-19 0.0197268 0.0011683 0.00577086 -0.175868 0.00309782
-3.38813e-21 0.0185276 0.00736167 0.0286066 -0.244795 -0.00128028
0 0.001038 0.02 0.118054 -0.225277 0.0181911
1.47606e-20 -0.001462 0.02 0.119976 -0.226977 0.0229994
0 0.0197514 0.00356002 0.0138908 -0.24505 0.00289358
0 0.00728791 0.01875 0.103315 -0.225977 0.00681728
-2.1684e-19 0.0147871 0.0137433 0.0631496 -0.236245 -0.00337305
2.64698e-23 0.013538 0.0149986 0.0722047 -0.233611 -0.00229413
-2.1684e-19 -0.0202155 0.00116983 0.0797478 -0.118311 -0.000557686
1.0842e-19 -0.007712 0.01875 0.114905 -0.236358 0.0356918
-1.57772e-30 0.003538 0.02 0.116164 -0.223541 0.0133155
-1.86347e-20 0.016039 0.0124859 0.0551688 -0.238074 -0.0041426
7.26331e-20 -0.0189639 0.00736469 0.0775819 -0.227957 0.0340314
1.0842e-19 0.0122876 0.0162494 0.0813082 -0.230964 -0.0010901
3.28979e-21 -0.003962 0.02 0.121928 -0.228651 0.0277163
-2.81134e-20 -0.013962 0.0149988 0.0940636 -0.253302 0.0493165
0 -0.015212 0.0137433 0.0873618 -0.257427 0.0519709
-1.0842e-19 -0.0202144 0.00356944 0.094687 -0.17771 0.00675374
-1.0842e-19 0.0172851 0.0112168 0.0472075 -0.239897 -0.00473516
1.0842e-19 -0.012712 0.0162494 0.100912 -0.24888 0.0465663
2.71051e-20 0.0206492 0 0 0 0
-1.4792e-19 -0.0164621 0.0124879 0.0825791 -0.257947 0.0525026
0 0.0206673 0.000280665 0.00138979 -0.0430235 0.000495718
0 0.0197697 0.00607424 0.0227298 -0.245183 -0.000967376
5.9557e-22 0.0110378 0.0174999 0.0914068 -0.227535 0.00035405
0 0.006038 0.02 0.114303 -0.221761 0.00839531
-6.1939e-20 -0.011462 0.0175 0.108886 -0.243442 0.0432883
-5.42101e-20 0.0209637 0 0 0 0
-2.1684e-19 -0.0177121 0.0112171 0.0782291 -0.257155 0.0523285
3.28979e-21 -0.006462 0.02 0.123899 -0.230309 0.0323084
-2.82344e-22 0.0185343 0.00994519 0.0404203 -0.240925 -0.00486768
0 -0.0202132 0.00608269 0.0844631 -0.211647 0.023895
-9.03502e-21 0.0209903 0.00232545 0.00917885 -0.209895 0.00218399
0 0.00978779 0.01875 0.101563 -0.224092 0.00184537
0 -0.000212006 0.02125 0.129124 -0.22097 0.0196477
2.71051e-20 0.0212775 0.000287875 0.00112863 -0.0446046 0.000213277
-2.71051e-20 0.0212916 0 0 0 0
0 -0.010212 0.01875 0.116944 -0.23803 0.0401023
-1.0842e-19 0.00228798 0.02125 0.127225 -0.219266 0.0148264
5.41042e-20 -0.0189619 0.00994606 0.0778667 -0.248416 0.0471961
-1.0842e-19 -0.002712 0.02125 0.131036 -0.222641 0.0243822
8.47033e-22 -0.0214591 5.43834e-06 0.000208387 -0.000316528 -3.10126e-06
8.47033e-22 -0.0214707 0 0.000268623 -0.000391591 -1.67521e-06
0 0.0210123 0.00478532 0.0178872 -0.24406 -0.00017752
0 0.0197796 0.008653 0.0336285 -0.241942 -0.00476398
-1.41172e-22 -0.0214644 0.00233938 0.0915039 -0.149541 0.00294751
6.61744e-24 0.00853794 0.02 0.112465 -0.219932 0.00345565
0 0.00478797 0.02125 0.125334 -0.217524 0.00994709
1.0842e-19 -0.005212 0.02125 0.132957 -0.224289 0.0289972
-9.67102e-20 -0.008962 0.02 0.125866 -0.231951 0.0367232
-5.29396e-23 0.016038 0.0149984 0.0708634 -0.231492 -0.0068709
1.0842e-19 0.0147873 0.0162494 0.0798391 -0.22891 -0.0058604
-1.0842e-19 -0.0202124 0.00865623 0.0787263 -0.238311 0.0410069
5.12455e-20 -0.0214607 0.00479643 0.0954253 -0.194924 0.0140341
-1.0842e-19 0.0172864 0.0137433 0.0619599 -0.234054 -0.00775006
-5.2119e-20 0.0135377 0.0174999 0.0898071 -0.225542 -0.00450788
0 0.0222219 0.00116339 0.00426979 -0.17788 0.00186219
1.0842e-19 -0.015212 0.0162494 0.103017 -0.250342 0.0503671
-3.67355e-20 -0.016462 0.0149988 0.0963042 -0.254132 0.0525392
-1.12938e-21 0.0210266 0.00735887 0.0278436 -0.242297 -0.0042972
-1.28749e-19 0.0185339 0.012485 0.0541176 -0.235811 -0.00824527
0 -0.013962 0.0175 0.110926 -0.245019 0.0472577
-1.0842e-19 0.0122876 0.01875 0.0998642 -0.222149 -0.00310136
1.0842e-19 -0.017712 0.0137433 0.0897943 -0.257393 0.0544822
0 0.00728791 0.02125 0.123442 -0.215741 0.0050365
-5.3507e-20 0.001038 0.0225 0.138427 -0.214466 0.0163142
-2.1684e-19 0.0222501 0.00355028 0.0130727 -0.243432 0.000893342
1.47606e-20 -0.001462 0.0225 0.140356 -0.216107 0.0210012
0 -0.007712 0.02125 0.134871 -0.225911 0.0334446
0 -0.012712 0.01875 0.118939 -0.239664 0.0442226
7.7927e-20 -0.0214634 0.00736691 0.0862983 -0.222874 0.0304875
-3.63298e-21 -0.018962 0.0124878 0.0856024 -0.25599 0.0534775
-1.0842e-19 0.0197839 0.0112166 0.0463152 -0.237558 -0.00855877
1.0842e-19 -0.0227147 0.00116974 0.0851626 -0.121498 0.000140965
-5.80944e-20 0.003538 0.0225 0.136472 -0.212796 0.0115554
-4.37413e-20 0.011038 0.0199999 0.110645 -0.218056 -0.00147305
-3.54881e-20 -0.003962 0.0225 0.142256 -0.217725 0.0255767
-1.0842e-19 -0.0227139 0.00356931 0.106715 -0.181611 0.00555396
3.28979e-21 -0.011462 0.02 0.127788 -0.233564 0.0408734
-2.1684e-19 0.0222687 0.00606848 0.0220703 -0.24261 -0.00364735
0 0.0230907 0 0 0 0
1.0842e-19 -0.0202121 0.0112171 0.0820358 -0.253157 0.0516371
0 0.0231152 0.000321554 0.00126068 -0.0498231 0.00023823
1.12938e-21 0.0210335 0.00994459 0.0396549 -0.238505 -0.00833481
-7.02516e-20 0.00603798 0.0225 0.134486 -0.211097 0.00675807
-1.0842e-19 0.00978779 0.02125 0.121538 -0.21392 0.000123156
3.28979e-21 -0.006462 0.0225 0.144112 -0.21932 0.0299894
-5.42101e-20 0.0234563 0 0 0 0
1.0842e-19 -0.0227129 0.00608259 0.0956728 -0.209176 0.0201665
0 -0.010212 0.02125 0.136745 -0.227506 0.0376542
4.51751e-21 0.0234867 0.00231572 0.00813191 -0.209612 0.000588951
-1.58183e-19 -0.0214623 0.00994613 0.0834106 -0.243075 0.0446526
1.0842e-19 0.0172867 0.0162494 0.0784852 -0.226771 -0.0105013
1.11491e-19 0.0160373 0.0175003 0.0882891 -0.223479 -0.00927088
1.0842e-19 -0.000212006 0.02375 0.149673 -0.209617 0.0177127
0 0.0238222 0.000334698 0.000940899 -0.0519002 -9.81791e-05
1.25043e-19 0.0185361 0.0149979 0.0696616 -0.229281 -0.0112879
2.71051e-20 0.0238446 0 0 0 0
-1.0842e-19 0.00228798 0.02375 0.147688 -0.20801 0.0130701
1.0842e-19 0.0147874 0.01875 0.0982143 -0.220148 -0.00798108
0 0.0222784 0.00865156 0.0330035 -0.239447 -0.00787301
-1.0842e-19 -0.002712 0.02375 0.151594 -0.211202 0.0222621
0 -0.02396 3.91345e-06 0.000181426 -0.000259437 -2.61257e-07
-4.51751e-21 0.0235099 0.00477762 0.0173073 -0.241919 -0.00243675
-9.67102e-20 -0.016462 0.0175 0.112862 -0.246353 0.0505943
2.1684e-19 -0.017712 0.0162494 0.105024 -0.251375 0.0533383
6.61744e-24 0.00853794 0.0225 0.13246 -0.209369 0.00195162
0 -0.0239602 0.00233583 0.10007 -0.15325 0.00284316
3.38813e-20 -0.0239674 0.00234276 0.100116 -0.153365 0.00285543
-1.0842e-19 0.0197854 0.0137433 0.0609347 -0.231762 -0.011941
0 -0.015212 0.01875 0.120833 -0.241191 0.0478749
-3.35372e-20 0.0135377 0.0199999 0.10884 -0.216135 -0.00635364
-1.74279e-20 -0.018962 0.0149988 0.0985175 -0.254195 0.0545854
8.08456e-20 -0.008962 0.0225 0.145895 -0.220891 0.0341695
0 0.00478797 0.02375 0.14564 -0.206385 0.008378
1.0842e-19 -0.0227123 0.00865619 0.0863098 -0.232416 0.0369184
-1.0842e-19 -0.005212 0.02375 0.15344 -0.212768 0.0266651
-1.91544e-20 -0.013962 0.02 0.129611 -0.23511 0.0446191
1.39337e-19 -0.0239649 0.00479702 0.107199 -0.196767 0.0117529
2.1684e-19 -0.020212 0.0137433 0.0923063 -0.25625 0.0554502
3.854e-20 0.0210324 0.0124842 0.0532294 -0.233452 -0.0121299
-6.77626e-21 0.0210325 0.0124911 0.0532538 -0.233437 -0.0121428
1.0842e-19 0.0122876 0.02125 0.119614 -0.212064 -0.00476012
2.25875e-21 0.0235251 0.00735571 0.0273258 -0.239737 -0.00708439
2.1684e-19 0.0247144 0.00115991 0.00295179 -0.178485 0.000573637
0 -0.012712 0.02125 0.138526 -0.229055 0.0415143
2.65062e-20 -0.021462 0.0124878 0.0889974 -0.252938 0.052643
0 0.00728791 0.02375 0.143525 -0.20474 0.00367053
-1.0842e-19 0.0222828 0.0112165 0.0456239 -0.2351 -0.0121621
0 -0.007712 0.02375 0.155183 -0.214313 0.0308508
0 0.024745 0.00354107 0.0126478 -0.241618 -0.00100665
5.82295e-20 0.001038 0.025 0.15768 -0.203294 0.0145713
5.35381e-20 -0.001462 0.025 0.159628 -0.204817 0.018979
-2.4339e-20 0.0110378 0.0224999 0.130388 -0.207615 -0.00283451
-6.52215e-20 -0.0239631 0.00736519 0.0962348 -0.219827 0.0263505
0 -0.025214 0.00116967 0.0904536 -0.124184 0.000860276
-4.17705e-20 0.003538 0.025 0.155622 -0.201766 0.0100812
-1.91544e-20 -0.011462 0.0225 0.147558 -0.222432 0.0380171
3.28979e-21 -0.003962 0.025 0.161456 -0.206337 0.023248
0 -0.0227121 0.0112171 0.0865598 -0.248337 0.0489908
1.0842e-19 -0.0252134 0.00356919 0.118494 -0.187057 0.00493106
1.11173e-19 0.0185364 0.0174993 0.0868553 -0.221348 -0.0138819
0 0.0247657 0.00606274 0.0216854 -0.24003 -0.00612288
0 0.0172867 0.01875 0.0966157 -0.218091 -0.0127423
0 0.0255124 0 0 0 0
1.12938e-21 0.0235324 0.00994397 0.0391017 -0.235977 -0.0115726
5.42101e-20 0.0255491 0.000373423 0.00104976 -0.0579051 -0.000109539
-1.0842e-19 0.0197856 0.0162494 0.0772475 -0.22455 -0.0149614
1.11491e-19 0.0160373 0.0199997 0.107051 -0.214174 -0.0111415
0 0.00978779 0.02375 0.141335 -0.203076 -0.00102398
-7.02541e-20 0.00603798 0.025 0.15346 -0.200229 0.00555372
0 -0.017712 0.01875 0.12257 -0.242508 0.0507975
-4.93547e-20 -0.018962 0.0175 0.114658 -0.247285 0.0529648
3.28979e-21 -0.006462 0.025 0.16314 -0.207857 0.0273072
3.55754e-20 0.0210351 0.0149975 0.0685976 -0.22698 -0.0154968
1.0842e-19 -0.010212 0.02375 0.15678 -0.215836 0.0347284
2.1684e-19 0.0147874 0.02125 0.117668 -0.21018 -0.00957348
-1.91544e-20 -0.016462 0.02 0.131274 -0.23653 0.0477538
0 -0.020212 0.0162494 0.106927 -0.251769 0.055072
0 -0.0252127 0.0060825 0.10775 -0.209586 0.0165507
7.12566e-20 -0.0239623 0.00994618 0.0900182 -0.238116 0.0405523
0 0.0259495 0 0 0 0
-2.71051e-20 0.0259804 0.00230532 0.00745887 -0.208476 -0.000974707
0 -0.015212 0.02125 0.140147 -0.230533 0.0448647
-1.0842e-19 0.0222843 0.0137433 0.0600689 -0.229368 -0.0159045
5.68163e-20 -0.021462 0.0149988 0.100773 -0.253344 0.0550328
0 0.0247764 0.00865012 0.0326056 -0.236857 -0.0107579
-1.0842e-19 -0.000212006 0.02625 0.167692 -0.198498 0.0158916
-3.35372e-20 0.0135377 0.0224999 0.128266 -0.205844 -0.00756756
1.0842e-19 0.00228798 0.02625 0.165667 -0.197054 0.011611
5.42101e-20 0.0263739 0.000391789 0.00101139 -0.0600562 -0.000541993
-1.0842e-19 -0.002712 0.02625 0.169556 -0.199952 0.0200497
5.42101e-20 0.0264109 0 0 0 0
8.2321e-21 0.00853794 0.025 0.151193 -0.198683 0.00102416
0 0.0260059 0.00476911 0.0169613 -0.23971 -0.00453093
0 -0.0264606 2.79231e-06 0.000137355 -0.000189037 9.81542e-07
5.84013e-20 -0.013962 0.0225 0.149045 -0.22393 0.041393
0 -0.022712 0.0137433 0.0950497 -0.25399 0.0544754
3.28979e-21 -0.008962 0.025 0.164646 -0.209382 0.0310687
5.59042e-20 -0.0264607 0.00234175 0.108527 -0.157559 0.0029094
-2.20229e-20 0.0235308 0.0124833 0.052534 -0.230977 -0.0157803
2.5411e-21 0.0235308 0.0124918 0.0525639 -0.230959 -0.0157962
1.0842e-19 -0.0252122 0.00865616 0.0951804 -0.228173 0.0317998
0 0.00478797 0.02625 0.163494 -0.195615 0.00726567
0 0.0122876 0.02375 0.139064 -0.201402 -0.00567782
1.0842e-19 -0.005212 0.02625 0.171236 -0.201426 0.024015
-9.21148e-20 -0.0264613 0.00479744 0.118933 -0.20039 0.009709
0 -0.012712 0.02375 0.158181 -0.217333 0.0381715
-2.75848e-20 -0.023962 0.0124878 0.0929807 -0.249177 0.0498127
1.12938e-21 0.0260223 0.00735219 0.0270305 -0.237123 -0.0096382
-2.1684e-19 0.0247812 0.0112164 0.0451286 -0.23253 -0.015516
0 0.0272032 0.00115759 0.00251228 -0.177472 -0.00076215
0 0.00728791 0.02625 0.161181 -0.194177 0.00290052
1.0842e-19 0.0197857 0.01875 0.0950711 -0.215985 -0.0173249
-1.43996e-20 0.0185378 0.0199993 0.105281 -0.21218 -0.0157833
-4.37413e-20 0.011038 0.0249999 0.148821 -0.19713 -0.00347819
1.0842e-19 -0.007712 0.02625 0.172702 -0.202924 0.027698
-6.35275e-21 0.0210376 0.0174989 0.0855057 -0.219156 -0.018283
-1.0842e-19 0.0172867 0.02125 0.115705 -0.208278 -0.0142706
1.0842e-19 0.0272397 0.00352904 0.0123034 -0.239772 -0.00278656
8.34327e-20 -0.0264628 0.00736639 0.106946 -0.218966 0.0218238
-9.67102e-20 -0.011462 0.025 0.165934 -0.210914 0.0344222
-3.71772e-20 0.001038 0.0275 0.173527 -0.193075 0.0129145
1.47606e-20 -0.001462 0.0275 0.17539 -0.194503 0.0168312
8.08456e-20 -0.018962 0.02 0.132725 -0.237742 0.0500001
0 -0.020212 0.01875 0.124111 -0.243491 0.0526516
-1.0842e-19 0.0222846 0.0162494 0.0761215 -0.222253 -0.0191853
-1.0842e-19 -0.025212 0.0112171 0.0920291 -0.24346 0.0444374
3.12343e-20 0.0160379 0.0224997 0.126098 -0.204066 -0.0122093
-1.0842e-19 -0.017712 0.02125 0.141545 -0.231891 0.047478
1.39773e-19 -0.021462 0.0175 0.116325 -0.247664 0.053978
3.57788e-20 0.003538 0.0275 0.171473 -0.191682 0.0088818
1.0842e-19 -0.0277135 0.00116961 0.0961597 -0.126988 0.00143939
-3.54881e-20 -0.003962 0.0275 0.177047 -0.195976 0.020566
-5.64689e-22 0.0260298 0.00994338 0.0387545 -0.233351 -0.0145516
5.84013e-20 -0.016462 0.0225 0.1503 -0.225366 0.0441116
1.49925e-19 0.0235338 0.014997 0.0676683 -0.224594 -0.0194502
0 0.0272619 0.0060552 0.0214783 -0.23742 -0.0083652
0 -0.022712 0.0162494 0.10879 -0.251374 0.0551335
0 0.0279286 0 0 0 0
1.0842e-19 -0.0277131 0.00356909 0.129492 -0.193041 0.00446331
0 0.0147874 0.02375 0.136716 -0.199731 -0.0102603
5.42101e-20 0.0279823 0.000421403 0.00108783 -0.0645956 -0.00058296
0 0.00978779 0.02625 0.158732 -0.192739 -0.00145068
-7.02533e-20 0.00603798 0.0275 0.16924 -0.190313 0.00478762
0 -0.010212 0.02625 0.173919 -0.204456 0.0309974
0 -0.015212 0.02375 0.159328 -0.218801 0.0410214
-6.35958e-21 -0.006462 0.0275 0.178476 -0.197504 0.0240407
1.47595e-20 -0.023962 0.0149988 0.103219 -0.251614 0.0535233
1.08354e-19 -0.0264622 0.00994621 0.0976711 -0.234238 0.0351108
1.0842e-19 0.0247828 0.0137434 0.05936 -0.226878 -0.0195969
0 -0.0277125 0.00608242 0.119843 -0.212178 0.0130372
5.42101e-20 0.0284251 0 0 0 0
-3.35372e-20 0.0135377 0.0249999 0.146347 -0.195581 -0.00792515
1.35525e-20 0.0284741 0.00227875 0.00688045 -0.206422 -0.00222786
1.0842e-19 0.0272718 0.00864862 0.0324138 -0.234184 -0.0133679
-1.91544e-20 -0.013962 0.025 0.166966 -0.21246 0.0372325
0 -0.025212 0.0137433 0.0982543 -0.250896 0.0513224
1.0842e-19 -0.000212016 0.0287506 0.181326 -0.189061 0.013927
6.61744e-24 0.00853794 0.0275 0.166835 -0.188963 0.000675454
0 0.00228797 0.0287506 0.179426 -0.187688 0.0102281
5.64689e-22 0.0260327 0.0124876 0.0520422 -0.228387 -0.0191651
0 -0.00271201 0.0287506 0.182991 -0.190502 0.017456
4.51751e-21 0.0285046 0.00475129 0.0167461 -0.237422 -0.00634092
-5.42101e-20 0.0288977 0.000401716 0.000630156 -0.0628303 -0.000751717
-3.54881e-20 -0.008962 0.0275 0.179658 -0.199099 0.0271647
0 0.0289345 0 0 0 0
0 -0.0289611 1.97592e-06 0.000103196 -0.00013652 1.41479e-06
-1.0842e-19 0.0122876 0.02625 0.156153 -0.191304 -0.00576097
8.99973e-20 0.0210354 0.0199989 0.103538 -0.210164 -0.0202189
-1.0842e-19 -0.0277122 0.00865612 0.104979 -0.22596 0.0259359
1.0842e-19 0.0197857 0.02125 0.113734 -0.20637 -0.0187975
1.82112e-20 -0.0289611 0.00234099 0.116718 -0.162031 0.00282959
1.0842e-19 0.0222847 0.01875 0.0935813 -0.213839 -0.0216653
2.1684e-19 0.00478795 0.0287506 0.177307 -0.186369 0.00642215
-1.47172e-20 0.0185378 0.0224993 0.123895 -0.202292 -0.016714
-1.0842e-19 -0.012712 0.02625 0.174856 -0.206033 0.0337912
0 -0.00521201 0.0287506 0.184407 -0.192024 0.0207427
-1.02157e-19 -0.026462 0.0124878 0.097744 -0.245288 0.0449947