# Force       
# CofR        : (0.000000e+00 0.000000e+00 0.000000e+00)
#
# Time        	(total_x total_y total_z)	(pressure_x pressure_y pressure_z)	(viscous_x viscous_y viscous_z)
1             	(2.166029e+01 2.088124e+01 -4.675216e+02)	(2.162730e+01 2.088137e+01 -4.675217e+02)	(3.299682e-02 -1.303099e-04 1.220658e-04)
2             	(2.236627e+01 2.127732e+01 -4.672824e+02)	(2.235099e+01 2.129025e+01 -4.672828e+02)	(1.528065e-02 -1.292296e-02 4.612329e-04)
3             	(1.745999e+01 1.642922e+01 -4.673789e+02)	(1.745771e+01 1.645118e+01 -4.673792e+02)	(2.278842e-03 -2.195942e-02 3.052624e-04)
4             	(9.112004e+00 8.357541e+00 -4.677388e+02)	(9.115513e+00 8.382802e+00 -4.677389e+02)	(-3.508703e-03 -2.526117e-02 1.446559e-04)
5             	(2.300697e-01 -2.128110e-01 -4.682282e+02)	(2.334611e-01 -1.896536e-01 -4.682282e+02)	(-3.391468e-03 -2.315743e-02 3.471517e-05)
6             	(-6.021673e+00 -6.156217e+00 -4.686445e+02)	(-6.021950e+00 -6.138494e+00 -4.686445e+02)	(2.768014e-04 -1.772295e-02 -2.262024e-05)
7             	(-8.503157e+00 -8.382791e+00 -4.689512e+02)	(-8.508868e+00 -8.372021e+00 -4.689514e+02)	(5.711877e-03 -1.076965e-02 2.203673e-04)
8             	(-8.056202e+00 -7.788174e+00 -4.690404e+02)	(-8.067043e+00 -7.783856e+00 -4.690409e+02)	(1.084115e-02 -4.318036e-03 5.236849e-04)
9             	(-5.822837e+00 -5.496538e+00 -4.690390e+02)	(-5.836870e+00 -5.496699e+00 -4.690397e+02)	(1.403288e-02 1.609373e-04 6.862095e-04)
10            	(-2.450917e+00 -2.195611e+00 -4.689581e+02)	(-2.465759e+00 -2.197644e+00 -4.689587e+02)	(1.484244e-02 2.032721e-03 6.088767e-04)
11            	(7.731696e-01 8.793507e-01 -4.687470e+02)	(7.594717e-01 8.777017e-01 -4.687474e+02)	(1.369788e-02 1.649000e-03 4.448097e-04)
12            	(2.879041e+00 2.832824e+00 -4.685487e+02)	(2.867744e+00 2.832981e+00 -4.685489e+02)	(1.129708e-02 -1.575017e-04 2.463994e-04)
13            	(3.721303e+00 3.558942e+00 -4.684388e+02)	(3.712799e+00 3.561429e+00 -4.684389e+02)	(8.503375e-03 -2.486533e-03 7.431866e-05)
14            	(3.570260e+00 3.358019e+00 -4.683914e+02)	(3.564254e+00 3.362561e+00 -4.683913e+02)	(6.005547e-03 -4.542504e-03 -7.386943e-05)
15            	(2.766082e+00 2.545024e+00 -4.683835e+02)	(2.761795e+00 2.550859e+00 -4.683833e+02)	(4.286732e-03 -5.835096e-03 -1.695190e-04)
16            	(1.708605e+00 1.519599e+00 -4.683862e+02)	(1.705167e+00 1.525782e+00 -4.683860e+02)	(3.437485e-03 -6.182706e-03 -1.885870e-04)
17            	(6.833094e-01 5.566434e-01 -4.683943e+02)	(6.800252e-01 5.623840e-01 -4.683942e+02)	(3.284191e-03 -5.740610e-03 -1.634761e-04)
18            	(-2.816934e-02 -8.957429e-02 -4.684063e+02)	(-3.172669e-02 -8.474242e-02 -4.684062e+02)	(3.557347e-03 -4.831873e-03 -1.297917e-04)
19            	(-3.422840e-01 -3.577029e-01 -4.684503e+02)	(-3.462753e-01 -3.539175e-01 -4.684503e+02)	(3.991357e-03 -3.785464e-03 -9.530611e-05)
20            	(-3.818461e-01 -3.685790e-01 -4.684740e+02)	(-3.862080e-01 -3.657244e-01 -4.684739e+02)	(4.361933e-03 -2.854606e-03 -5.352773e-05)
21            	(-2.268512e-01 -1.909613e-01 -4.685119e+02)	(-2.313737e-01 -1.887939e-01 -4.685119e+02)	(4.522504e-03 -2.167440e-03 -1.971039e-05)
22            	(8.409229e-02 1.117159e-01 -4.685168e+02)	(7.961656e-02 1.134940e-01 -4.685168e+02)	(4.475734e-03 -1.778130e-03 3.681988e-06)
23            	(4.220395e-01 4.353836e-01 -4.685171e+02)	(4.177965e-01 4.370205e-01 -4.685172e+02)	(4.243015e-03 -1.636857e-03 1.434456e-05)
24            	(7.260620e-01 7.207433e-01 -4.685165e+02)	(7.221592e-01 7.224054e-01 -4.685165e+02)	(3.902780e-03 -1.662136e-03 8.612916e-06)
25            	(9.286111e-01 9.067312e-01 -4.685151e+02)	(9.250677e-01 9.084804e-01 -4.685151e+02)	(3.543396e-03 -1.749235e-03 -4.944673e-06)
26            	(1.011906e+00 9.816426e-01 -4.685139e+02)	(1.008674e+00 9.834474e-01 -4.685139e+02)	(3.231979e-03 -1.804724e-03 -1.728291e-05)
27            	(9.830628e-01 9.526540e-01 -4.685138e+02)	(9.800910e-01 9.544757e-01 -4.685138e+02)	(2.971797e-03 -1.821697e-03 -2.605052e-05)
28            	(9.444555e-01 9.133054e-01 -4.685142e+02)	(9.416764e-01 9.150742e-01 -4.685142e+02)	(2.779112e-03 -1.768853e-03 -3.104273e-05)
29            	(8.913137e-01 8.595434e-01 -4.685121e+02)	(8.886545e-01 8.611925e-01 -4.685121e+02)	(2.659145e-03 -1.649142e-03 -3.188351e-05)
30            	(8.280979e-01 7.920453e-01 -4.684814e+02)	(8.254818e-01 7.935281e-01 -4.684813e+02)	(2.616089e-03 -1.482810e-03 -2.433269e-05)
31            	(7.586737e-01 7.247095e-01 -4.684598e+02)	(7.560761e-01 7.260044e-01 -4.684597e+02)	(2.597602e-03 -1.294895e-03 -1.501626e-05)
32            	(7.416777e-01 7.123755e-01 -4.684603e+02)	(7.391202e-01 7.134812e-01 -4.684603e+02)	(2.557546e-03 -1.105723e-03 -3.107501e-06)
33            	(6.758396e-01 6.571709e-01 -4.684572e+02)	(6.733531e-01 6.581229e-01 -4.684572e+02)	(2.486448e-03 -9.519707e-04 9.093726e-06)
34            	(6.824512e-01 6.659540e-01 -4.684574e+02)	(6.800671e-01 6.667985e-01 -4.684575e+02)	(2.384147e-03 -8.444932e-04 1.957872e-05)
35            	(6.884080e-01 6.748469e-01 -4.684573e+02)	(6.861463e-01 6.756315e-01 -4.684574e+02)	(2.261779e-03 -7.845865e-04 2.899337e-05)
36            	(6.929691e-01 6.831062e-01 -4.684570e+02)	(6.908492e-01 6.838642e-01 -4.684571e+02)	(2.119927e-03 -7.580125e-04 3.577351e-05)
37            	(6.955582e-01 6.903341e-01 -4.684566e+02)	(6.935872e-01 6.910858e-01 -4.684566e+02)	(1.971067e-03 -7.516743e-04 3.939140e-05)
38            	(7.006089e-01 7.003166e-01 -4.684566e+02)	(6.987832e-01 7.010696e-01 -4.684566e+02)	(1.825690e-03 -7.529781e-04 3.964552e-05)
39            	(7.086155e-01 7.131290e-01 -4.684568e+02)	(7.069234e-01 7.138798e-01 -4.684568e+02)	(1.692162e-03 -7.507243e-04 3.817650e-05)
40            	(7.232241e-01 7.320644e-01 -4.684577e+02)	(7.216472e-01 7.328031e-01 -4.684578e+02)	(1.576890e-03 -7.387111e-04 3.638805e-05)
41            	(7.482526e-01 7.604503e-01 -4.684611e+02)	(7.467728e-01 7.611620e-01 -4.684611e+02)	(1.479726e-03 -7.116853e-04 3.666627e-05)
42            	(7.706087e-01 7.854422e-01 -4.684824e+02)	(7.692040e-01 7.861213e-01 -4.684824e+02)	(1.404728e-03 -6.790674e-04 4.055089e-05)
43            	(7.699290e-01 7.920667e-01 -4.684983e+02)	(7.686051e-01 7.926920e-01 -4.684984e+02)	(1.323929e-03 -6.252536e-04 4.556330e-05)
44            	(7.842151e-01 8.074093e-01 -4.685014e+02)	(7.829667e-01 8.079778e-01 -4.685014e+02)	(1.248384e-03 -5.685598e-04 5.180213e-05)
45            	(7.933394e-01 8.174035e-01 -4.685039e+02)	(7.921617e-01 8.179196e-01 -4.685039e+02)	(1.177724e-03 -5.160469e-04 5.771033e-05)
46            	(7.993910e-01 8.245578e-01 -4.685059e+02)	(7.982815e-01 8.250261e-01 -4.685059e+02)	(1.109487e-03 -4.683125e-04 6.044188e-05)
47            	(8.037643e-01 8.303533e-01 -4.685075e+02)	(8.027206e-01 8.307812e-01 -4.685076e+02)	(1.043647e-03 -4.279022e-04 6.068471e-05)
48            	(8.070709e-01 8.354759e-01 -4.685089e+02)	(8.060900e-01 8.358694e-01 -4.685089e+02)	(9.809018e-04 -3.934353e-04 5.954464e-05)
49            	(8.098148e-01 8.403255e-01 -4.685100e+02)	(8.088919e-01 8.406866e-01 -4.685100e+02)	(9.228992e-04 -3.610697e-04 5.772133e-05)
50            	(8.118972e-01 8.447485e-01 -4.685107e+02)	(8.110264e-01 8.450784e-01 -4.685108e+02)	(8.707165e-04 -3.299883e-04 5.486171e-05)
51            	(8.139902e-01 8.493031e-01 -4.685112e+02)	(8.131657e-01 8.496009e-01 -4.685112e+02)	(8.244860e-04 -2.978469e-04 5.035771e-05)
52            	(8.169715e-01 8.548015e-01 -4.685115e+02)	(8.161877e-01 8.550664e-01 -4.685115e+02)	(7.837255e-04 -2.649083e-04 4.491279e-05)
53            	(8.200625e-01 8.603788e-01 -4.685116e+02)	(8.193152e-01 8.606103e-01 -4.685116e+02)	(7.473053e-04 -2.314471e-04 3.819283e-05)
54            	(8.236824e-01 8.663232e-01 -4.685115e+02)	(8.229683e-01 8.665219e-01 -4.685115e+02)	(7.141543e-04 -1.987632e-04 3.046427e-05)
55            	(8.274569e-01 8.722050e-01 -4.685113e+02)	(8.267739e-01 8.723738e-01 -4.685113e+02)	(6.829919e-04 -1.688042e-04 2.250184e-05)
56            	(8.310823e-01 8.776770e-01 -4.685110e+02)	(8.304306e-01 8.778189e-01 -4.685110e+02)	(6.516528e-04 -1.418744e-04 1.545899e-05)
57            	(8.347668e-01 8.829071e-01 -4.685106e+02)	(8.341467e-01 8.830241e-01 -4.685106e+02)	(6.201646e-04 -1.170386e-04 1.047306e-05)
58            	(8.429954e-01 8.916491e-01 -4.685081e+02)	(8.424038e-01 8.917422e-01 -4.685081e+02)	(5.916636e-04 -9.308000e-05 9.115206e-06)
59            	(8.496275e-01 8.989688e-01 -4.685046e+02)	(8.490623e-01 8.990376e-01 -4.685047e+02)	(5.652572e-04 -6.878332e-05 9.889044e-06)
60            	(8.540469e-01 9.044098e-01 -4.685014e+02)	(8.535060e-01 9.044546e-01 -4.685014e+02)	(5.408798e-04 -4.475274e-05 1.253351e-05)
61            	(8.590111e-01 9.102889e-01 -4.684981e+02)	(8.584923e-01 9.103111e-01 -4.684981e+02)	(5.187772e-04 -2.224534e-05 1.584435e-05)
62            	(8.613311e-01 9.141558e-01 -4.684976e+02)	(8.608335e-01 9.141574e-01 -4.684977e+02)	(4.976752e-04 -1.598663e-06 1.983625e-05)
63            	(8.637671e-01 9.181002e-01 -4.684973e+02)	(8.632885e-01 9.180840e-01 -4.684973e+02)	(4.785997e-04 1.626311e-05 2.420960e-05)
64            	(8.666165e-01 9.223682e-01 -4.684971e+02)	(8.661545e-01 9.223368e-01 -4.684971e+02)	(4.619647e-04 3.131220e-05 2.914844e-05)
65            	(8.749331e-01 9.309407e-01 -4.684945e+02)	(8.744829e-01 9.308984e-01 -4.684945e+02)	(4.502567e-04 4.226358e-05 3.426096e-05)
66            	(8.812682e-01 9.377363e-01 -4.684937e+02)	(8.808264e-01 9.376865e-01 -4.684937e+02)	(4.418462e-04 4.972034e-05 3.910470e-05)
67            	(8.844533e-01 9.420991e-01 -4.684936e+02)	(8.840195e-01 9.420434e-01 -4.684937e+02)	(4.338072e-04 5.562247e-05 4.296594e-05)
68            	(8.877227e-01 9.464369e-01 -4.684936e+02)	(8.872960e-01 9.463779e-01 -4.684936e+02)	(4.267379e-04 5.903183e-05 4.611832e-05)
69            	(8.909686e-01 9.506272e-01 -4.684935e+02)	(8.905475e-01 9.505678e-01 -4.684936e+02)	(4.211224e-04 5.938591e-05 4.819467e-05)
70            	(8.955256e-01 9.555457e-01 -4.684933e+02)	(8.951075e-01 9.554893e-01 -4.684934e+02)	(4.180880e-04 5.646921e-05 4.902388e-05)
71            	(8.994236e-01 9.597864e-01 -4.684931e+02)	(8.990064e-01 9.597353e-01 -4.684932e+02)	(4.172742e-04 5.106840e-05 4.925390e-05)
72            	(9.026632e-01 9.634108e-01 -4.684930e+02)	(9.022455e-01 9.633668e-01 -4.684931e+02)	(4.177576e-04 4.399668e-05 4.937025e-05)
73            	(9.053942e-01 9.664843e-01 -4.684929e+02)	(9.049749e-01 9.664485e-01 -4.684930e+02)	(4.193204e-04 3.582378e-05 4.951662e-05)
74            	(9.076985e-01 9.690945e-01 -4.684929e+02)	(9.072767e-01 9.690674e-01 -4.684929e+02)	(4.218083e-04 2.703792e-05 4.990319e-05)
75            	(9.096821e-01 9.713420e-01 -4.684929e+02)	(9.092570e-01 9.713240e-01 -4.684930e+02)	(4.250794e-04 1.802716e-05 5.042192e-05)
76            	(9.114760e-01 9.733539e-01 -4.684930e+02)	(9.110470e-01 9.733447e-01 -4.684931e+02)	(4.290018e-04 9.131874e-06 5.041081e-05)
77            	(9.132072e-01 9.752589e-01 -4.684933e+02)	(9.127738e-01 9.752587e-01 -4.684933e+02)	(4.334147e-04 2.034799e-07 4.976806e-05)
78            	(9.149519e-01 9.771508e-01 -4.684936e+02)	(9.145137e-01 9.771594e-01 -4.684937e+02)	(4.382137e-04 -8.585682e-06 4.813340e-05)
79            	(9.167678e-01 9.791039e-01 -4.684940e+02)	(9.163241e-01 9.791209e-01 -4.684941e+02)	(4.436558e-04 -1.706441e-05 4.553906e-05)
80            	(9.186739e-01 9.811515e-01 -4.684945e+02)	(9.182245e-01 9.811766e-01 -4.684946e+02)	(4.494380e-04 -2.517637e-05 4.207203e-05)
81            	(9.206384e-01 9.832333e-01 -4.684951e+02)	(9.201829e-01 9.832666e-01 -4.684951e+02)	(4.554261e-04 -3.330204e-05 3.814967e-05)
82            	(9.225880e-01 9.853022e-01 -4.684957e+02)	(9.221264e-01 9.853440e-01 -4.684957e+02)	(4.616149e-04 -4.173231e-05 3.397980e-05)
83            	(9.245336e-01 9.873994e-01 -4.684963e+02)	(9.240658e-01 9.874495e-01 -4.684963e+02)	(4.677830e-04 -5.005496e-05 3.011609e-05)
84            	(9.264069e-01 9.894515e-01 -4.684969e+02)	(9.259335e-01 9.895096e-01 -4.684969e+02)	(4.734299e-04 -5.807871e-05 2.687589e-05)
85            	(9.280157e-01 9.912460e-01 -4.684975e+02)	(9.275374e-01 9.913119e-01 -4.684975e+02)	(4.783546e-04 -6.592508e-05 2.449491e-05)
86            	(9.293725e-01 9.927777e-01 -4.684982e+02)	(9.288900e-01 9.928513e-01 -4.684982e+02)	(4.825608e-04 -7.357674e-05 2.298218e-05)
87            	(9.303831e-01 9.939147e-01 -4.684988e+02)	(9.298968e-01 9.939959e-01 -4.684989e+02)	(4.862303e-04 -8.113038e-05 2.217057e-05)
88            	(9.296826e-01 9.934007e-01 -4.684987e+02)	(9.291934e-01 9.934896e-01 -4.684987e+02)	(4.892068e-04 -8.889221e-05 2.179967e-05)
89            	(9.289581e-01 9.926984e-01 -4.684986e+02)	(9.284663e-01 9.927957e-01 -4.684986e+02)	(4.917839e-04 -9.728050e-05 2.164254e-05)
90            	(9.298155e-01 9.931741e-01 -4.684990e+02)	(9.293206e-01 9.932810e-01 -4.684990e+02)	(4.948577e-04 -1.068949e-04 2.145157e-05)
91            	(9.306542e-01 9.935139e-01 -4.684992e+02)	(9.301557e-01 9.936318e-01 -4.684993e+02)	(4.984963e-04 -1.178803e-04 2.099376e-05)
92            	(9.313153e-01 9.934828e-01 -4.684994e+02)	(9.308122e-01 9.936129e-01 -4.684995e+02)	(5.030256e-04 -1.300851e-04 2.012207e-05)
93            	(9.316801e-01 9.929666e-01 -4.684996e+02)	(9.311712e-01 9.931100e-01 -4.684996e+02)	(5.088487e-04 -1.434408e-04 1.876338e-05)
94            	(9.317199e-01 9.920162e-01 -4.684997e+02)	(9.312037e-01 9.921739e-01 -4.684997e+02)	(5.161680e-04 -1.576372e-04 1.686294e-05)
95            	(9.315766e-01 9.908546e-01 -4.684997e+02)	(9.310517e-01 9.910270e-01 -4.684997e+02)	(5.248381e-04 -1.723574e-04 1.444610e-05)
96            	(9.314566e-01 9.897286e-01 -4.684997e+02)	(9.309219e-01 9.899158e-01 -4.684997e+02)	(5.346687e-04 -1.872384e-04 1.154355e-05)
97            	(9.306369e-01 9.882044e-01 -4.684996e+02)	(9.300921e-01 9.884061e-01 -4.684996e+02)	(5.447913e-04 -2.016375e-04 8.288520e-06)
98            	(9.310666e-01 9.875878e-01 -4.684996e+02)	(9.305106e-01 9.878039e-01 -4.684996e+02)	(5.559517e-04 -2.160672e-04 4.696109e-06)
99            	(9.317419e-01 9.872254e-01 -4.684995e+02)	(9.311739e-01 9.874558e-01 -4.684995e+02)	(5.680298e-04 -2.304178e-04 8.856253e-07)
100           	(9.313716e-01 9.861712e-01 -4.684994e+02)	(9.307918e-01 9.864152e-01 -4.684994e+02)	(5.797802e-04 -2.439404e-04 -2.966201e-06)
101           	(9.325674e-01 9.862855e-01 -4.684993e+02)	(9.319752e-01 9.865428e-01 -4.684993e+02)	(5.921945e-04 -2.572857e-04 -6.752161e-06)
102           	(9.339273e-01 9.865687e-01 -4.684991e+02)	(9.333221e-01 9.868390e-01 -4.684991e+02)	(6.051694e-04 -2.702404e-04 -1.025555e-05)
103           	(9.337115e-01 9.856890e-01 -4.684989e+02)	(9.330940e-01 9.859712e-01 -4.684989e+02)	(6.174987e-04 -2.821837e-04 -1.338148e-05)
104           	(9.358200e-01 9.866122e-01 -4.684987e+02)	(9.351894e-01 9.869062e-01 -4.684986e+02)	(6.306046e-04 -2.939453e-04 -1.606855e-05)
105           	(9.379887e-01 9.875936e-01 -4.684983e+02)	(9.373443e-01 9.878991e-01 -4.684983e+02)	(6.443912e-04 -3.055582e-04 -1.823647e-05)
106           	(9.401298e-01 9.885684e-01 -4.684979e+02)	(9.394713e-01 9.888853e-01 -4.684979e+02)	(6.584459e-04 -3.168727e-04 -1.987989e-05)
107           	(9.398699e-01 9.876969e-01 -4.684976e+02)	(9.391986e-01 9.880242e-01 -4.684976e+02)	(6.713445e-04 -3.273571e-04 -2.098000e-05)
108           	(9.396919e-01 9.868126e-01 -4.684973e+02)	(9.390084e-01 9.871500e-01 -4.684972e+02)	(6.834940e-04 -3.373415e-04 -2.164414e-05)
109           	(9.423091e-01 9.880338e-01 -4.684967e+02)	(9.416122e-01 9.883817e-01 -4.684967e+02)	(6.969304e-04 -3.479553e-04 -2.184894e-05)
110           	(9.451872e-01 9.894785e-01 -4.684960e+02)	(9.444759e-01 9.898375e-01 -4.684960e+02)	(7.112994e-04 -3.589911e-04 -2.160708e-05)
111           	(9.450947e-01 9.886662e-01 -4.684957e+02)	(9.443702e-01 9.890356e-01 -4.684957e+02)	(7.244847e-04 -3.694204e-04 -2.098438e-05)
112           	(9.450416e-01 9.878435e-01 -4.684954e+02)	(9.443048e-01 9.882229e-01 -4.684954e+02)	(7.367480e-04 -3.794539e-04 -2.006860e-05)
113           	(9.488989e-01 9.900288e-01 -4.684947e+02)	(9.481482e-01 9.904193e-01 -4.684946e+02)	(7.507444e-04 -3.904710e-04 -1.881321e-05)
114           	(9.489621e-01 9.893155e-01 -4.684944e+02)	(9.481982e-01 9.897167e-01 -4.684944e+02)	(7.638633e-04 -4.011580e-04 -1.728522e-05)
115           	(9.526625e-01 9.914365e-01 -4.684937e+02)	(9.518843e-01 9.918491e-01 -4.684937e+02)	(7.781917e-04 -4.125859e-04 -1.567822e-05)
116           	(9.526576e-01 9.907012e-01 -4.684934e+02)	(9.518660e-01 9.911249e-01 -4.684934e+02)	(7.915330e-04 -4.237253e-04 -1.390509e-05)
117           	(9.525371e-01 9.898618e-01 -4.684931e+02)	(9.517330e-01 9.902963e-01 -4.684931e+02)	(8.040731e-04 -4.345190e-04 -1.216348e-05)
118           	(9.559809e-01 9.917491e-01 -4.684924e+02)	(9.551627e-01 9.921955e-01 -4.684924e+02)	(8.181954e-04 -4.463557e-04 -1.053377e-05)
119           	(9.556859e-01 9.908104e-01 -4.684920e+02)	(9.548545e-01 9.912682e-01 -4.684920e+02)	(8.313961e-04 -4.577350e-04 -9.030801e-06)
120           	(9.588727e-01 9.924318e-01 -4.684912e+02)	(9.580267e-01 9.929019e-01 -4.684912e+02)	(8.460749e-04 -4.700429e-04 -7.588641e-06)
121           	(9.586698e-01 9.916958e-01 -4.684908e+02)	(9.578100e-01 9.921777e-01 -4.684908e+02)	(8.597983e-04 -4.819044e-04 -6.201788e-06)
122           	(9.614588e-01 9.930719e-01 -4.684900e+02)	(9.605839e-01 9.935667e-01 -4.684900e+02)	(8.749259e-04 -4.947906e-04 -4.892570e-06)
123           	(9.615942e-01 9.927418e-01 -4.684897e+02)	(9.607050e-01 9.932491e-01 -4.684897e+02)	(8.891919e-04 -5.072912e-04 -3.849894e-06)
124           	(9.642324e-01 9.941285e-01 -4.684892e+02)	(9.633282e-01 9.946491e-01 -4.684892e+02)	(9.042795e-04 -5.206159e-04 -3.107081e-06)
125           	(9.645842e-01 9.940410e-01 -4.684889e+02)	(9.636660e-01 9.945744e-01 -4.684889e+02)	(9.182899e-04 -5.333847e-04 -2.958092e-06)
126           	(9.668398e-01 9.951340e-01 -4.684886e+02)	(9.659071e-01 9.956808e-01 -4.684886e+02)	(9.327267e-04 -5.467330e-04 -3.201830e-06)
127           	(9.675366e-01 9.950765e-01 -4.684884e+02)	(9.665899e-01 9.956365e-01 -4.684884e+02)	(9.467410e-04 -5.600608e-04 -3.885373e-06)
128           	(9.686545e-01 9.952216e-01 -4.684882e+02)	(9.676939e-01 9.957953e-01 -4.684882e+02)	(9.606287e-04 -5.736715e-04 -4.870708e-06)
129           	(9.698129e-01 9.953524e-01 -4.684881e+02)	(9.688382e-01 9.959399e-01 -4.684881e+02)	(9.746961e-04 -5.875782e-04 -6.228960e-06)
130           	(9.710124e-01 9.954694e-01 -4.684881e+02)	(9.700236e-01 9.960711e-01 -4.684881e+02)	(9.888512e-04 -6.017342e-04 -7.881781e-06)
131           	(9.722547e-01 9.955800e-01 -4.684881e+02)	(9.712516e-01 9.961961e-01 -4.684881e+02)	(1.003149e-03 -6.161305e-04 -9.880398e-06)
132           	(9.734019e-01 9.955842e-01 -4.684881e+02)	(9.723844e-01 9.962148e-01 -4.684881e+02)	(1.017440e-03 -6.306422e-04 -1.218409e-05)
133           	(9.744114e-01 9.954448e-01 -4.684881e+02)	(9.733798e-01 9.960901e-01 -4.684881e+02)	(1.031600e-03 -6.452438e-04 -1.480684e-05)
134           	(9.748489e-01 9.951793e-01 -4.684881e+02)	(9.738045e-01 9.958384e-01 -4.684881e+02)	(1.044450e-03 -6.590834e-04 -1.774765e-05)
135           	(9.752916e-01 9.943609e-01 -4.684880e+02)	(9.742342e-01 9.950341e-01 -4.684880e+02)	(1.057441e-03 -6.732805e-04 -2.097999e-05)
136           	(9.754282e-01 9.936915e-01 -4.684880e+02)	(9.743586e-01 9.943785e-01 -4.684880e+02)	(1.069551e-03 -6.870176e-04 -2.448040e-05)
137           	(9.753231e-01 9.922565e-01 -4.684880e+02)	(9.742412e-01 9.929577e-01 -4.684879e+02)	(1.081914e-03 -7.011820e-04 -2.823549e-05)
138           	(9.753864e-01 9.909208e-01 -4.684880e+02)	(9.742915e-01 9.916366e-01 -4.684879e+02)	(1.094863e-03 -7.158433e-04 -3.219061e-05)
139           	(9.756400e-01 9.897522e-01 -4.684880e+02)	(9.745318e-01 9.904830e-01 -4.684880e+02)	(1.108165e-03 -7.308007e-04 -3.636728e-05)
140           	(9.757894e-01 9.889822e-01 -4.684881e+02)	(9.746691e-01 9.897271e-01 -4.684880e+02)	(1.120261e-03 -7.448855e-04 -4.081016e-05)
141           	(9.765668e-01 9.881538e-01 -4.684884e+02)	(9.754340e-01 9.889133e-01 -4.684884e+02)	(1.132815e-03 -7.595111e-04 -4.550657e-05)
142           	(9.774817e-01 9.874727e-01 -4.684889e+02)	(9.763356e-01 9.882476e-01 -4.684888e+02)	(1.146119e-03 -7.749015e-04 -5.041831e-05)
143           	(9.785873e-01 9.870269e-01 -4.684895e+02)	(9.774276e-01 9.878174e-01 -4.684895e+02)	(1.159647e-03 -7.905359e-04 -5.555874e-05)
144           	(9.796226e-01 9.866104e-01 -4.684905e+02)	(9.784494e-01 9.874166e-01 -4.684904e+02)	(1.173148e-03 -8.062285e-04 -6.092858e-05)
145           	(9.806601e-01 9.863847e-01 -4.684922e+02)	(9.794741e-01 9.872061e-01 -4.684921e+02)	(1.185964e-03 -8.214856e-04 -6.643811e-05)
146           	(9.742996e-01 9.803679e-01 -4.684974e+02)	(9.731056e-01 9.812023e-01 -4.684974e+02)	(1.194047e-03 -8.343937e-04 -7.209214e-05)
147           	(9.736591e-01 9.784696e-01 -4.684999e+02)	(9.724560e-01 9.793176e-01 -4.684998e+02)	(1.203062e-03 -8.479871e-04 -7.759437e-05)
148           	(9.710918e-01 9.745574e-01 -4.684998e+02)	(9.698782e-01 9.754199e-01 -4.684998e+02)	(1.213604e-03 -8.624143e-04 -8.301199e-05)
149           	(9.678476e-01 9.698749e-01 -4.684998e+02)	(9.666223e-01 9.707524e-01 -4.684997e+02)	(1.225324e-03 -8.774881e-04 -8.810567e-05)
150           	(9.643400e-01 9.648977e-01 -4.684998e+02)	(9.631018e-01 9.657907e-01 -4.684997e+02)	(1.238162e-03 -8.930454e-04 -9.294110e-05)
151           	(9.608974e-01 9.600152e-01 -4.684999e+02)	(9.596455e-01 9.609241e-01 -4.684998e+02)	(1.251941e-03 -9.089561e-04 -9.735766e-05)
152           	(9.517909e-01 9.509913e-01 -4.685066e+02)	(9.505286e-01 9.519140e-01 -4.685065e+02)	(1.262285e-03 -9.227473e-04 -1.014904e-04)
153           	(9.488980e-01 9.468263e-01 -4.685067e+02)	(9.476237e-01 9.477636e-01 -4.685066e+02)	(1.274246e-03 -9.373133e-04 -1.051669e-04)
154           	(9.461679e-01 9.429045e-01 -4.685068e+02)	(9.448803e-01 9.438566e-01 -4.685067e+02)	(1.287595e-03 -9.521099e-04 -1.086674e-04)
155           	(9.435218e-01 9.391256e-01 -4.685069e+02)	(9.422203e-01 9.400924e-01 -4.685068e+02)	(1.301461e-03 -9.668621e-04 -1.118452e-04)
156           	(9.409164e-01 9.354273e-01 -4.685068e+02)	(9.396009e-01 9.364087e-01 -4.685067e+02)	(1.315586e-03 -9.813754e-04 -1.148280e-04)
157           	(9.381647e-01 9.315546e-01 -4.685068e+02)	(9.368347e-01 9.325505e-01 -4.685067e+02)	(1.329988e-03 -9.958570e-04 -1.175324e-04)
158           	(9.360643e-01 9.286319e-01 -4.685096e+02)	(9.347203e-01 9.296416e-01 -4.685095e+02)	(1.343968e-03 -1.009691e-03 -1.200692e-04)
159           	(9.339747e-01 9.254760e-01 -4.685094e+02)	(9.326164e-01 9.264995e-01 -4.685093e+02)	(1.358309e-03 -1.023554e-03 -1.224380e-04)
160           	(9.324835e-01 9.229055e-01 -4.685092e+02)	(9.311103e-01 9.239430e-01 -4.685091e+02)	(1.373204e-03 -1.037457e-03 -1.247637e-04)
161           	(9.316795e-01 9.209985e-01 -4.685091e+02)	(9.302910e-01 9.220499e-01 -4.685089e+02)	(1.388594e-03 -1.051414e-03 -1.270807e-04)
162           	(9.318723e-01 9.198411e-01 -4.685091e+02)	(9.304672e-01 9.209070e-01 -4.685090e+02)	(1.405128e-03 -1.065836e-03 -1.294671e-04)
163           	(9.329948e-01 9.196160e-01 -4.685093e+02)	(9.315723e-01 9.206966e-01 -4.685092e+02)	(1.422457e-03 -1.080581e-03 -1.319331e-04)
164           	(9.346061e-01 9.199629e-01 -4.685094e+02)	(9.331662e-01 9.210582e-01 -4.685093e+02)	(1.439979e-03 -1.095337e-03 -1.345331e-04)
165           	(9.367546e-01 9.208476e-01 -4.685096e+02)	(9.352971e-01 9.219579e-01 -4.685095e+02)	(1.457524e-03 -1.110206e-03 -1.372415e-04)
166           	(9.389284e-01 9.218555e-01 -4.685098e+02)	(9.374536e-01 9.229804e-01 -4.685096e+02)	(1.474781e-03 -1.124928e-03 -1.400782e-04)
167           	(9.410698e-01 9.228794e-01 -4.685100e+02)	(9.395783e-01 9.240190e-01 -4.685099e+02)	(1.491536e-03 -1.139608e-03 -1.429906e-04)
168           	(9.417902e-01 9.228993e-01 -4.685099e+02)	(9.402834e-01 9.240528e-01 -4.685098e+02)	(1.506748e-03 -1.153511e-03 -1.460097e-04)
169           	(9.421410e-01 9.225262e-01 -4.685098e+02)	(9.406202e-01 9.236932e-01 -4.685097e+02)	(1.520851e-03 -1.167044e-03 -1.490723e-04)
170           	(9.420956e-01 9.216320e-01 -4.685097e+02)	(9.405611e-01 9.228125e-01 -4.685096e+02)	(1.534466e-03 -1.180496e-03 -1.521885e-04)
171           	(9.416934e-01 9.200330e-01 -4.685096e+02)	(9.401448e-01 9.212276e-01 -4.685095e+02)	(1.548610e-03 -1.194585e-03 -1.553055e-04)
172           	(9.408583e-01 9.179974e-01 -4.685095e+02)	(9.392951e-01 9.192065e-01 -4.685093e+02)	(1.563127e-03 -1.209096e-03 -1.584555e-04)
173           	(9.396612e-01 9.155893e-01 -4.685093e+02)	(9.380832e-01 9.168132e-01 -4.685091e+02)	(1.577998e-03 -1.223907e-03 -1.615477e-04)
174           	(9.382783e-01 9.130017e-01 -4.685090e+02)	(9.366851e-01 9.142407e-01 -4.685089e+02)	(1.593198e-03 -1.239005e-03 -1.646173e-04)
175           	(9.369920e-01 9.105497e-01 -4.685088e+02)	(9.353832e-01 9.118039e-01 -4.685086e+02)	(1.608747e-03 -1.254248e-03 -1.676169e-04)
176           	(9.360214e-01 9.084688e-01 -4.685086e+02)	(9.343969e-01 9.097384e-01 -4.685084e+02)	(1.624517e-03 -1.269536e-03 -1.705827e-04)
177           	(9.354235e-01 9.068235e-01 -4.685084e+02)	(9.337831e-01 9.081082e-01 -4.685082e+02)	(1.640401e-03 -1.284730e-03 -1.734874e-04)
178           	(9.351697e-01 9.055133e-01 -4.685083e+02)	(9.335133e-01 9.068132e-01 -4.685082e+02)	(1.656423e-03 -1.299942e-03 -1.763728e-04)
179           	(9.353460e-01 9.046456e-01 -4.685084e+02)	(9.336734e-01 9.059607e-01 -4.685082e+02)	(1.672594e-03 -1.315124e-03 -1.792068e-04)
180           	(9.359188e-01 9.042740e-01 -4.685085e+02)	(9.342303e-01 9.056041e-01 -4.685084e+02)	(1.688584e-03 -1.330096e-03 -1.820324e-04)
181           	(9.367462e-01 9.042578e-01 -4.685088e+02)	(9.350419e-01 9.056024e-01 -4.685086e+02)	(1.704242e-03 -1.344652e-03 -1.847885e-04)
182           	(9.376577e-01 9.043848e-01 -4.685091e+02)	(9.359382e-01 9.057437e-01 -4.685090e+02)	(1.719501e-03 -1.358819e-03 -1.874993e-04)
183           	(9.383238e-01 9.043577e-01 -4.685096e+02)	(9.365895e-01 9.057302e-01 -4.685094e+02)	(1.734324e-03 -1.372474e-03 -1.901033e-04)
184           	(9.385093e-01 9.039255e-01 -4.685100e+02)	(9.367607e-01 9.053112e-01 -4.685098e+02)	(1.748606e-03 -1.385668e-03 -1.926221e-04)
185           	(9.381200e-01 9.029737e-01 -4.685105e+02)	(9.363575e-01 9.043721e-01 -4.685103e+02)	(1.762470e-03 -1.398397e-03 -1.949894e-04)
186           	(9.373290e-01 9.016787e-01 -4.685108e+02)	(9.355531e-01 9.030894e-01 -4.685106e+02)	(1.775888e-03 -1.410763e-03 -1.972223e-04)
187           	(9.362062e-01 9.000512e-01 -4.685112e+02)	(9.344171e-01 9.014741e-01 -4.685110e+02)	(1.789114e-03 -1.422883e-03 -1.992365e-04)
188           	(9.350701e-01 8.984433e-01 -4.685115e+02)	(9.332679e-01 8.998782e-01 -4.685113e+02)	(1.802198e-03 -1.434880e-03 -2.010440e-04)
189           	(9.338289e-01 8.966900e-01 -4.685118e+02)	(9.320135e-01 8.981370e-01 -4.685116e+02)	(1.815412e-03 -1.446928e-03 -2.026014e-04)
190           	(9.330433e-01 8.960042e-01 -4.685153e+02)	(9.312162e-01 8.974621e-01 -4.685151e+02)	(1.827080e-03 -1.457950e-03 -2.039823e-04)
191           	(9.312912e-01 8.936778e-01 -4.685155e+02)	(9.294517e-01 8.951475e-01 -4.685153e+02)	(1.839491e-03 -1.469666e-03 -2.050990e-04)
192           	(9.295718e-01 8.913719e-01 -4.685157e+02)	(9.277192e-01 8.928541e-01 -4.685155e+02)	(1.852602e-03 -1.482183e-03 -2.060619e-04)
193           	(9.280070e-01 8.892236e-01 -4.685159e+02)	(9.261408e-01 8.907188e-01 -4.685157e+02)	(1.866258e-03 -1.495233e-03 -2.068868e-04)
194           	(9.266827e-01 8.873380e-01 -4.685161e+02)	(9.248024e-01 8.888468e-01 -4.685159e+02)	(1.880275e-03 -1.508860e-03 -2.076304e-04)
195           	(9.256584e-01 8.857992e-01 -4.685165e+02)	(9.237639e-01 8.873221e-01 -4.685163e+02)	(1.894466e-03 -1.522941e-03 -2.082864e-04)
196           	(9.225489e-01 8.833384e-01 -4.685207e+02)	(9.206433e-01 8.848738e-01 -4.685205e+02)	(1.905565e-03 -1.535387e-03 -2.089337e-04)
197           	(9.215581e-01 8.819207e-01 -4.685209e+02)	(9.196407e-01 8.834694e-01 -4.685207e+02)	(1.917450e-03 -1.548688e-03 -2.095190e-04)
198           	(9.206317e-01 8.806112e-01 -4.685211e+02)	(9.187017e-01 8.821740e-01 -4.685209e+02)	(1.929994e-03 -1.562771e-03 -2.102064e-04)
199           	(9.197927e-01 8.794317e-01 -4.685212e+02)	(9.178499e-01 8.810089e-01 -4.685210e+02)	(1.942732e-03 -1.577168e-03 -2.109848e-04)
200           	(9.190477e-01 8.783850e-01 -4.685213e+02)	(9.170923e-01 8.799768e-01 -4.685211e+02)	(1.955368e-03 -1.591776e-03 -2.119023e-04)
201           	(9.184548e-01 8.775678e-01 -4.685213e+02)	(9.164872e-01 8.791742e-01 -4.685211e+02)	(1.967665e-03 -1.606362e-03 -2.129835e-04)
202           	(9.184327e-01 8.774748e-01 -4.685214e+02)	(9.164536e-01 8.790954e-01 -4.685211e+02)	(1.979146e-03 -1.620622e-03 -2.143100e-04)
203           	(9.175104e-01 8.762769e-01 -4.685214e+02)	(9.155200e-01 8.779120e-01 -4.685211e+02)	(1.990427e-03 -1.635056e-03 -2.159070e-04)
204           	(9.164797e-01 8.749505e-01 -4.685213e+02)	(9.144783e-01 8.766001e-01 -4.685211e+02)	(2.001405e-03 -1.649680e-03 -2.178426e-04)
205           	(9.158970e-01 8.741868e-01 -4.685213e+02)	(9.138852e-01 8.758508e-01 -4.685211e+02)	(2.011777e-03 -1.663967e-03 -2.201365e-04)
206           	(9.150785e-01 8.731550e-01 -4.685213e+02)	(9.130569e-01 8.748330e-01 -4.685211e+02)	(2.021591e-03 -1.678056e-03 -2.228404e-04)
207           	(9.131696e-01 8.708533e-01 -4.685212e+02)	(9.111383e-01 8.725457e-01 -4.685209e+02)	(2.031397e-03 -1.692402e-03 -2.259237e-04)
208           	(9.120720e-01 8.695299e-01 -4.685211e+02)	(9.100315e-01 8.712363e-01 -4.685209e+02)	(2.040567e-03 -1.706378e-03 -2.293900e-04)
209           	(9.108239e-01 8.680563e-01 -4.685210e+02)	(9.087746e-01 8.697763e-01 -4.685208e+02)	(2.049318e-03 -1.719998e-03 -2.331500e-04)
210           	(9.094669e-01 8.664839e-01 -4.685210e+02)	(9.074093e-01 8.682172e-01 -4.685207e+02)	(2.057562e-03 -1.733357e-03 -2.371786e-04)