# Force       
# CofR        : (0.000000e+00 0.000000e+00 0.000000e+00)
#
# Time        	(total_x total_y total_z)	(pressure_x pressure_y pressure_z)	(viscous_x viscous_y viscous_z)
1             	(2.348418e+01 2.207580e+01 -4.688697e+02)	(2.344833e+01 2.207612e+01 -4.688698e+02)	(3.585265e-02 -3.222277e-04 1.635573e-04)
2             	(2.391220e+01 2.232870e+01 -4.686330e+02)	(2.389525e+01 2.234144e+01 -4.686335e+02)	(1.695652e-02 -1.274453e-02 5.197234e-04)
3             	(1.843691e+01 1.713715e+01 -4.687348e+02)	(1.843376e+01 1.715884e+01 -4.687352e+02)	(3.156509e-03 -2.168765e-02 3.990757e-04)
4             	(9.530952e+00 8.732821e+00 -4.691398e+02)	(9.534227e+00 8.757885e+00 -4.691399e+02)	(-3.275136e-03 -2.506453e-02 1.714231e-04)
5             	(9.349152e-02 -2.009781e-01 -4.696642e+02)	(9.713431e-02 -1.777480e-01 -4.696641e+02)	(-3.642791e-03 -2.323015e-02 -3.728777e-05)
6             	(-6.708387e+00 -6.598333e+00 -4.700981e+02)	(-6.708698e+00 -6.580332e+00 -4.700980e+02)	(3.106447e-04 -1.800085e-02 -1.553096e-04)
7             	(-9.388215e+00 -9.011844e+00 -4.704043e+02)	(-9.394263e+00 -9.000752e+00 -4.704043e+02)	(6.048238e-03 -1.109210e-02 4.173079e-05)
8             	(-8.925633e+00 -8.454506e+00 -4.704828e+02)	(-8.937243e+00 -8.450054e+00 -4.704832e+02)	(1.161051e-02 -4.452045e-03 3.752319e-04)
9             	(-6.518066e+00 -6.062304e+00 -4.704744e+02)	(-6.533145e+00 -6.062514e+00 -4.704750e+02)	(1.507827e-02 2.104874e-04 5.806827e-04)
10            	(-2.807393e+00 -2.497945e+00 -4.703670e+02)	(-2.823387e+00 -2.500160e+00 -4.703675e+02)	(1.599476e-02 2.214117e-03 5.426755e-04)
11            	(7.538024e-01 8.642815e-01 -4.701418e+02)	(7.390159e-01 8.623452e-01 -4.701422e+02)	(1.478648e-02 1.936262e-03 4.072127e-04)
12            	(3.064207e+00 2.998246e+00 -4.699285e+02)	(3.052020e+00 2.998047e+00 -4.699288e+02)	(1.218705e-02 1.990162e-04 2.255225e-04)
13            	(4.065875e+00 3.890401e+00 -4.698081e+02)	(4.056799e+00 3.892506e+00 -4.698082e+02)	(9.076452e-03 -2.105361e-03 6.405334e-05)
14            	(3.889389e+00 3.668803e+00 -4.697811e+02)	(3.883106e+00 3.673010e+00 -4.697810e+02)	(6.282796e-03 -4.206316e-03 -7.470773e-05)
15            	(3.086341e+00 2.871728e+00 -4.697862e+02)	(3.082007e+00 2.877269e+00 -4.697860e+02)	(4.333655e-03 -5.541247e-03 -1.672561e-04)
16            	(1.935736e+00 1.771300e+00 -4.697913e+02)	(1.932377e+00 1.777250e+00 -4.697911e+02)	(3.359126e-03 -5.949424e-03 -1.811168e-04)
17            	(8.055054e-01 7.123262e-01 -4.698045e+02)	(8.023207e-01 7.179151e-01 -4.698043e+02)	(3.184790e-03 -5.588888e-03 -1.645863e-04)
18            	(-3.026034e-03 -2.895514e-02 -4.698289e+02)	(-6.534308e-03 -2.419495e-02 -4.698287e+02)	(3.508274e-03 -4.760190e-03 -1.450987e-04)
19            	(-4.015454e-01 -3.742662e-01 -4.699056e+02)	(-4.055448e-01 -3.704918e-01 -4.699055e+02)	(3.999359e-03 -3.774449e-03 -1.240553e-04)
20            	(-4.072060e-01 -3.650472e-01 -4.699336e+02)	(-4.116465e-01 -3.621492e-01 -4.699335e+02)	(4.440516e-03 -2.897978e-03 -1.012547e-04)
21            	(-1.424395e-01 -1.043491e-01 -4.699407e+02)	(-1.471173e-01 -1.020919e-01 -4.699407e+02)	(4.677806e-03 -2.257214e-03 -8.519767e-05)
22            	(2.170331e-01 2.400660e-01 -4.699429e+02)	(2.123541e-01 2.419512e-01 -4.699428e+02)	(4.679025e-03 -1.885218e-03 -8.200156e-05)
23            	(6.044982e-01 6.083184e-01 -4.699420e+02)	(6.000237e-01 6.100599e-01 -4.699419e+02)	(4.474489e-03 -1.741552e-03 -9.312561e-05)
24            	(9.406451e-01 9.237925e-01 -4.699413e+02)	(9.364948e-01 9.255416e-01 -4.699412e+02)	(4.150230e-03 -1.749087e-03 -1.162211e-04)
25            	(1.118806e+00 1.091536e+00 -4.699390e+02)	(1.115008e+00 1.093360e+00 -4.699388e+02)	(3.798147e-03 -1.823603e-03 -1.438094e-04)
26            	(1.173383e+00 1.144868e+00 -4.699248e+02)	(1.169896e+00 1.146754e+00 -4.699247e+02)	(3.487668e-03 -1.885952e-03 -1.684169e-04)
27            	(1.126961e+00 1.102824e+00 -4.699274e+02)	(1.123721e+00 1.104720e+00 -4.699272e+02)	(3.240004e-03 -1.895512e-03 -1.872441e-04)
28            	(1.050375e+00 1.032459e+00 -4.699266e+02)	(1.047296e+00 1.034298e+00 -4.699264e+02)	(3.079518e-03 -1.839089e-03 -1.992308e-04)
29            	(9.537433e-01 9.437975e-01 -4.698989e+02)	(9.507368e-01 9.455172e-01 -4.698987e+02)	(3.006521e-03 -1.719652e-03 -2.005520e-04)
30            	(8.569325e-01 8.565890e-01 -4.698810e+02)	(8.539544e-01 8.581489e-01 -4.698808e+02)	(2.978086e-03 -1.559844e-03 -1.985195e-04)
31            	(7.612259e-01 7.719032e-01 -4.698745e+02)	(7.582673e-01 7.732855e-01 -4.698743e+02)	(2.958593e-03 -1.382305e-03 -1.948520e-04)
32            	(7.454303e-01 7.602144e-01 -4.698749e+02)	(7.425105e-01 7.614287e-01 -4.698747e+02)	(2.919738e-03 -1.214299e-03 -1.912564e-04)
33            	(7.478656e-01 7.637381e-01 -4.698749e+02)	(7.450114e-01 7.648168e-01 -4.698747e+02)	(2.854120e-03 -1.078623e-03 -1.878865e-04)
34            	(7.545675e-01 7.710766e-01 -4.698739e+02)	(7.518168e-01 7.720539e-01 -4.698737e+02)	(2.750754e-03 -9.772866e-04 -1.856787e-04)
35            	(7.599089e-01 7.767226e-01 -4.698726e+02)	(7.572943e-01 7.776311e-01 -4.698724e+02)	(2.614600e-03 -9.085079e-04 -1.854795e-04)
36            	(7.654431e-01 7.830028e-01 -4.698710e+02)	(7.629899e-01 7.838678e-01 -4.698708e+02)	(2.453201e-03 -8.649879e-04 -1.865548e-04)
37            	(7.719526e-01 7.902520e-01 -4.698693e+02)	(7.696724e-01 7.910876e-01 -4.698691e+02)	(2.280199e-03 -8.356544e-04 -1.872001e-04)
38            	(7.907665e-01 8.078706e-01 -4.698696e+02)	(7.886550e-01 8.086854e-01 -4.698694e+02)	(2.111510e-03 -8.148892e-04 -1.858938e-04)
39            	(8.233271e-01 8.381357e-01 -4.698725e+02)	(8.213687e-01 8.389310e-01 -4.698724e+02)	(1.958393e-03 -7.953012e-04 -1.814674e-04)
40            	(8.523868e-01 8.656090e-01 -4.698922e+02)	(8.505584e-01 8.663812e-01 -4.698920e+02)	(1.828457e-03 -7.721237e-04 -1.726940e-04)
41            	(8.613084e-01 8.793256e-01 -4.699079e+02)	(8.596083e-01 8.800537e-01 -4.699078e+02)	(1.700115e-03 -7.281053e-04 -1.611716e-04)
42            	(8.828970e-01 9.018730e-01 -4.699112e+02)	(8.813071e-01 9.025464e-01 -4.699111e+02)	(1.589862e-03 -6.733680e-04 -1.478971e-04)
43            	(8.986221e-01 9.190837e-01 -4.699138e+02)	(8.971291e-01 9.196966e-01 -4.699137e+02)	(1.492980e-03 -6.129145e-04 -1.351690e-04)
44            	(9.102129e-01 9.326343e-01 -4.699158e+02)	(9.088059e-01 9.331861e-01 -4.699157e+02)	(1.407077e-03 -5.518198e-04 -1.235196e-04)
45            	(9.192322e-01 9.441552e-01 -4.699173e+02)	(9.179020e-01 9.446479e-01 -4.699172e+02)	(1.330129e-03 -4.927371e-04 -1.144454e-04)
46            	(9.272059e-01 9.551875e-01 -4.699185e+02)	(9.259457e-01 9.556253e-01 -4.699184e+02)	(1.260213e-03 -4.377777e-04 -1.093889e-04)
47            	(9.344579e-01 9.660385e-01 -4.699194e+02)	(9.332628e-01 9.664262e-01 -4.699193e+02)	(1.195101e-03 -3.876634e-04 -1.081245e-04)
48            	(9.379826e-01 9.734420e-01 -4.699197e+02)	(9.368487e-01 9.737842e-01 -4.699196e+02)	(1.133872e-03 -3.421581e-04 -1.093356e-04)
49            	(9.447361e-01 9.843018e-01 -4.699203e+02)	(9.436604e-01 9.846011e-01 -4.699202e+02)	(1.075676e-03 -2.993223e-04 -1.106683e-04)
50            	(9.515610e-01 9.951129e-01 -4.699210e+02)	(9.505405e-01 9.953716e-01 -4.699209e+02)	(1.020457e-03 -2.586416e-04 -1.110242e-04)
51            	(9.578085e-01 1.005030e+00 -4.699215e+02)	(9.568401e-01 1.005248e+00 -4.699214e+02)	(9.684738e-04 -2.186857e-04 -1.096528e-04)
52            	(9.633041e-01 1.013726e+00 -4.699219e+02)	(9.623847e-01 1.013905e+00 -4.699218e+02)	(9.193865e-04 -1.783886e-04 -1.071189e-04)
53            	(9.670318e-01 1.020204e+00 -4.699222e+02)	(9.661579e-01 1.020342e+00 -4.699221e+02)	(8.738650e-04 -1.372869e-04 -1.039296e-04)
54            	(9.701745e-01 1.025766e+00 -4.699223e+02)	(9.693428e-01 1.025861e+00 -4.699222e+02)	(8.316362e-04 -9.533880e-05 -1.001076e-04)
55            	(9.728338e-01 1.030576e+00 -4.699223e+02)	(9.720417e-01 1.030629e+00 -4.699222e+02)	(7.921403e-04 -5.285411e-05 -9.537420e-05)
56            	(9.819707e-01 1.040403e+00 -4.699200e+02)	(9.812126e-01 1.040415e+00 -4.699199e+02)	(7.580769e-04 -1.200488e-05 -8.958106e-05)
57            	(9.897875e-01 1.048867e+00 -4.699164e+02)	(9.890596e-01 1.048840e+00 -4.699163e+02)	(7.278718e-04 2.692022e-05 -8.292779e-05)
58            	(9.936994e-01 1.053758e+00 -4.699128e+02)	(9.930003e-01 1.053695e+00 -4.699127e+02)	(6.991111e-04 6.333645e-05 -7.570636e-05)
59            	(9.942167e-01 1.055621e+00 -4.699122e+02)	(9.935465e-01 1.055524e+00 -4.699121e+02)	(6.702594e-04 9.664637e-05 -6.832075e-05)
60            	(9.950559e-01 1.057489e+00 -4.699093e+02)	(9.944139e-01 1.057363e+00 -4.699093e+02)	(6.419970e-04 1.256356e-04 -6.125540e-05)
61            	(9.950010e-01 1.058618e+00 -4.699087e+02)	(9.943868e-01 1.058467e+00 -4.699086e+02)	(6.142632e-04 1.500484e-04 -5.486706e-05)
62            	(9.946576e-01 1.059410e+00 -4.699081e+02)	(9.940706e-01 1.059241e+00 -4.699081e+02)	(5.870649e-04 1.698150e-04 -4.925274e-05)
63            	(9.934612e-01 1.059260e+00 -4.699076e+02)	(9.929006e-01 1.059075e+00 -4.699076e+02)	(5.606227e-04 1.846413e-04 -4.445453e-05)
64            	(9.918201e-01 1.058575e+00 -4.699072e+02)	(9.912846e-01 1.058380e+00 -4.699072e+02)	(5.355431e-04 1.949175e-04 -4.034813e-05)
65            	(9.901013e-01 1.057735e+00 -4.699069e+02)	(9.895891e-01 1.057534e+00 -4.699069e+02)	(5.121755e-04 2.007000e-04 -3.676142e-05)
66            	(9.887272e-01 1.057167e+00 -4.699067e+02)	(9.882362e-01 1.056965e+00 -4.699067e+02)	(4.909806e-04 2.023092e-04 -3.343653e-05)
67            	(9.904982e-01 1.059331e+00 -4.699065e+02)	(9.900253e-01 1.059131e+00 -4.699065e+02)	(4.729299e-04 1.999394e-04 -2.995461e-05)
68            	(9.922871e-01 1.061359e+00 -4.699064e+02)	(9.918288e-01 1.061165e+00 -4.699064e+02)	(4.583776e-04 1.940666e-04 -2.586439e-05)
69            	(9.936593e-01 1.062906e+00 -4.699064e+02)	(9.932121e-01 1.062721e+00 -4.699063e+02)	(4.471393e-04 1.851198e-04 -2.087446e-05)
70            	(9.947551e-01 1.064103e+00 -4.699064e+02)	(9.943161e-01 1.063929e+00 -4.699064e+02)	(4.390874e-04 1.740595e-04 -1.460582e-05)
71            	(9.955416e-01 1.064953e+00 -4.699064e+02)	(9.951077e-01 1.064791e+00 -4.699064e+02)	(4.339074e-04 1.615892e-04 -7.390044e-06)
72            	(9.963874e-01 1.065803e+00 -4.699065e+02)	(9.959562e-01 1.065655e+00 -4.699065e+02)	(4.311963e-04 1.484364e-04 4.526823e-07)
73            	(9.975299e-01 1.066900e+00 -4.699066e+02)	(9.970993e-01 1.066765e+00 -4.699066e+02)	(4.305741e-04 1.354162e-04 8.356569e-06)
74            	(9.965212e-01 1.066017e+00 -4.699064e+02)	(9.960898e-01 1.065894e+00 -4.699064e+02)	(4.314374e-04 1.230181e-04 1.573725e-05)
75            	(9.989458e-01 1.068317e+00 -4.699067e+02)	(9.985117e-01 1.068206e+00 -4.699067e+02)	(4.341857e-04 1.114657e-04 2.190995e-05)
76            	(1.001680e+00 1.070912e+00 -4.699071e+02)	(1.001241e+00 1.070811e+00 -4.699072e+02)	(4.388165e-04 1.007636e-04 2.642080e-05)
77            	(1.003665e+00 1.072576e+00 -4.699081e+02)	(1.003219e+00 1.072486e+00 -4.699082e+02)	(4.456479e-04 9.034000e-05 2.895970e-05)
78            	(1.001633e+00 1.071177e+00 -4.699110e+02)	(1.001181e+00 1.071095e+00 -4.699110e+02)	(4.522581e-04 8.141269e-05 2.938941e-05)
79            	(1.004244e+00 1.073392e+00 -4.699118e+02)	(1.003783e+00 1.073320e+00 -4.699118e+02)	(4.614621e-04 7.205037e-05 2.774695e-05)
80            	(1.007231e+00 1.075966e+00 -4.699125e+02)	(1.006758e+00 1.075904e+00 -4.699125e+02)	(4.729060e-04 6.242852e-05 2.428057e-05)
81            	(1.010478e+00 1.078777e+00 -4.699131e+02)	(1.009992e+00 1.078724e+00 -4.699132e+02)	(4.858155e-04 5.288335e-05 1.951826e-05)
82            	(1.013926e+00 1.081794e+00 -4.699137e+02)	(1.013426e+00 1.081750e+00 -4.699137e+02)	(4.993319e-04 4.351728e-05 1.403742e-05)
83            	(1.017418e+00 1.084907e+00 -4.699141e+02)	(1.016905e+00 1.084873e+00 -4.699141e+02)	(5.125343e-04 3.459552e-05 8.592327e-06)
84            	(1.020735e+00 1.087905e+00 -4.699145e+02)	(1.020210e+00 1.087879e+00 -4.699145e+02)	(5.248253e-04 2.617677e-05 3.713050e-06)
85            	(1.023787e+00 1.090666e+00 -4.699147e+02)	(1.023251e+00 1.090648e+00 -4.699147e+02)	(5.358598e-04 1.816724e-05 -1.276621e-07)
86            	(1.026705e+00 1.093246e+00 -4.699150e+02)	(1.026159e+00 1.093236e+00 -4.699150e+02)	(5.456416e-04 1.044979e-05 -2.498474e-06)
87            	(1.029456e+00 1.095616e+00 -4.699153e+02)	(1.028901e+00 1.095613e+00 -4.699153e+02)	(5.541880e-04 2.706312e-06 -3.321110e-06)
88            	(1.032016e+00 1.097675e+00 -4.699155e+02)	(1.031454e+00 1.097680e+00 -4.699155e+02)	(5.617421e-04 -5.633421e-06 -2.862712e-06)
89            	(1.034385e+00 1.099404e+00 -4.699156e+02)	(1.033816e+00 1.099419e+00 -4.699156e+02)	(5.687292e-04 -1.497513e-05 -1.642258e-06)
90            	(1.036518e+00 1.100882e+00 -4.699156e+02)	(1.035943e+00 1.100907e+00 -4.699156e+02)	(5.752305e-04 -2.533548e-05 -2.438224e-07)
91            	(1.038414e+00 1.102187e+00 -4.699155e+02)	(1.037832e+00 1.102223e+00 -4.699155e+02)	(5.811255e-04 -3.637601e-05 9.827710e-07)
92            	(1.037995e+00 1.101731e+00 -4.699155e+02)	(1.037410e+00 1.101778e+00 -4.699155e+02)	(5.851196e-04 -4.720771e-05 1.831477e-06)
93            	(1.037540e+00 1.101231e+00 -4.699155e+02)	(1.036952e+00 1.101289e+00 -4.699155e+02)	(5.875444e-04 -5.773284e-05 2.435480e-06)
94            	(1.037016e+00 1.100614e+00 -4.699155e+02)	(1.036427e+00 1.100681e+00 -4.699155e+02)	(5.888259e-04 -6.787765e-05 2.869881e-06)
95            	(1.040334e+00 1.103140e+00 -4.699150e+02)	(1.039743e+00 1.103218e+00 -4.699150e+02)	(5.908321e-04 -7.804476e-05 3.251201e-06)
96            	(1.039627e+00 1.102202e+00 -4.699149e+02)	(1.039035e+00 1.102289e+00 -4.699149e+02)	(5.916803e-04 -8.742846e-05 3.578775e-06)
97            	(1.038882e+00 1.101131e+00 -4.699147e+02)	(1.038291e+00 1.101227e+00 -4.699147e+02)	(5.914673e-04 -9.602718e-05 3.950025e-06)
98            	(1.038163e+00 1.099982e+00 -4.699146e+02)	(1.037572e+00 1.100086e+00 -4.699146e+02)	(5.907414e-04 -1.040965e-04 4.314544e-06)
99            	(1.042844e+00 1.103036e+00 -4.699125e+02)	(1.042252e+00 1.103149e+00 -4.699125e+02)	(5.925408e-04 -1.129786e-04 4.548195e-06)
100           	(1.042543e+00 1.102161e+00 -4.699122e+02)	(1.041949e+00 1.102282e+00 -4.699122e+02)	(5.938120e-04 -1.212760e-04 4.670349e-06)
101           	(1.042459e+00 1.101423e+00 -4.699120e+02)	(1.041865e+00 1.101552e+00 -4.699120e+02)	(5.945928e-04 -1.289320e-04 4.758372e-06)
102           	(1.042592e+00 1.100813e+00 -4.699117e+02)	(1.041996e+00 1.100950e+00 -4.699117e+02)	(5.956413e-04 -1.362868e-04 4.948264e-06)
103           	(1.047968e+00 1.104298e+00 -4.699097e+02)	(1.047368e+00 1.104442e+00 -4.699097e+02)	(6.000336e-04 -1.444837e-04 5.252985e-06)
104           	(1.048505e+00 1.104011e+00 -4.699094e+02)	(1.047900e+00 1.104164e+00 -4.699094e+02)	(6.046901e-04 -1.521251e-04 5.862369e-06)
105           	(1.049096e+00 1.103728e+00 -4.699091e+02)	(1.048487e+00 1.103887e+00 -4.699091e+02)	(6.095042e-04 -1.592418e-04 7.405287e-06)
106           	(1.049652e+00 1.103351e+00 -4.699088e+02)	(1.049036e+00 1.103517e+00 -4.699088e+02)	(6.152320e-04 -1.662048e-04 9.991891e-06)
107           	(1.053941e+00 1.105847e+00 -4.699078e+02)	(1.053317e+00 1.106022e+00 -4.699078e+02)	(6.242211e-04 -1.741748e-04 1.359571e-05)
108           	(1.054359e+00 1.105234e+00 -4.699075e+02)	(1.053725e+00 1.105416e+00 -4.699075e+02)	(6.340887e-04 -1.819576e-04 1.781873e-05)
109           	(1.057424e+00 1.106465e+00 -4.699066e+02)	(1.056777e+00 1.106655e+00 -4.699067e+02)	(6.465604e-04 -1.906299e-04 2.253434e-05)
110           	(1.057752e+00 1.105761e+00 -4.699063e+02)	(1.057093e+00 1.105960e+00 -4.699063e+02)	(6.593933e-04 -1.990678e-04 2.738597e-05)
111           	(1.059919e+00 1.106166e+00 -4.699056e+02)	(1.059245e+00 1.106375e+00 -4.699057e+02)	(6.740142e-04 -2.084687e-04 3.222810e-05)
112           	(1.060230e+00 1.105436e+00 -4.699053e+02)	(1.059541e+00 1.105654e+00 -4.699053e+02)	(6.885177e-04 -2.177997e-04 3.668216e-05)
113           	(1.060361e+00 1.104523e+00 -4.699050e+02)	(1.059659e+00 1.104750e+00 -4.699050e+02)	(7.025106e-04 -2.271859e-04 4.055678e-05)
114           	(1.061891e+00 1.104414e+00 -4.699045e+02)	(1.061173e+00 1.104651e+00 -4.699046e+02)	(7.178170e-04 -2.378565e-04 4.378329e-05)
115           	(1.062534e+00 1.103602e+00 -4.699041e+02)	(1.061800e+00 1.103851e+00 -4.699042e+02)	(7.336799e-04 -2.493954e-04 4.633555e-05)
116           	(1.062926e+00 1.102699e+00 -4.699038e+02)	(1.062177e+00 1.102960e+00 -4.699038e+02)	(7.493049e-04 -2.614491e-04 4.833458e-05)
117           	(1.063429e+00 1.102037e+00 -4.699034e+02)	(1.062665e+00 1.102311e+00 -4.699035e+02)	(7.644072e-04 -2.739015e-04 4.986157e-05)
118           	(1.064279e+00 1.101840e+00 -4.699031e+02)	(1.063500e+00 1.102127e+00 -4.699032e+02)	(7.786680e-04 -2.867093e-04 5.097475e-05)
119           	(1.064994e+00 1.101689e+00 -4.699029e+02)	(1.064202e+00 1.101988e+00 -4.699029e+02)	(7.918233e-04 -2.997931e-04 5.171022e-05)
120           	(1.065831e+00 1.101788e+00 -4.699027e+02)	(1.065027e+00 1.102101e+00 -4.699027e+02)	(8.038593e-04 -3.130674e-04 5.199655e-05)
121           	(1.066767e+00 1.102094e+00 -4.699026e+02)	(1.065952e+00 1.102420e+00 -4.699026e+02)	(8.149991e-04 -3.263917e-04 5.173756e-05)
122           	(1.067586e+00 1.102404e+00 -4.699025e+02)	(1.066761e+00 1.102744e+00 -4.699026e+02)	(8.254217e-04 -3.395191e-04 5.087646e-05)
123           	(1.068379e+00 1.102728e+00 -4.699025e+02)	(1.067544e+00 1.103080e+00 -4.699026e+02)	(8.354458e-04 -3.522956e-04 4.940331e-05)
124           	(1.069140e+00 1.103036e+00 -4.699026e+02)	(1.068294e+00 1.103401e+00 -4.699026e+02)	(8.454269e-04 -3.645754e-04 4.741468e-05)
125           	(1.070210e+00 1.103576e+00 -4.699028e+02)	(1.069354e+00 1.103952e+00 -4.699029e+02)	(8.558252e-04 -3.764144e-04 4.500641e-05)
126           	(1.070843e+00 1.103765e+00 -4.699030e+02)	(1.069977e+00 1.104153e+00 -4.699030e+02)	(8.664927e-04 -3.875184e-04 4.223603e-05)
127           	(1.071419e+00 1.103858e+00 -4.699031e+02)	(1.070542e+00 1.104256e+00 -4.699032e+02)	(8.775742e-04 -3.979506e-04 3.921829e-05)
128           	(1.072003e+00 1.103891e+00 -4.699033e+02)	(1.071114e+00 1.104299e+00 -4.699034e+02)	(8.892598e-04 -4.078217e-04 3.603532e-05)
129           	(1.072702e+00 1.103945e+00 -4.699036e+02)	(1.071801e+00 1.104362e+00 -4.699036e+02)	(9.016401e-04 -4.172552e-04 3.275541e-05)
130           	(1.073864e+00 1.104277e+00 -4.699040e+02)	(1.072949e+00 1.104703e+00 -4.699040e+02)	(9.149974e-04 -4.265251e-04 2.942658e-05)
131           	(1.075184e+00 1.104694e+00 -4.699045e+02)	(1.074255e+00 1.105130e+00 -4.699045e+02)	(9.291841e-04 -4.356819e-04 2.610465e-05)
132           	(1.076141e+00 1.104996e+00 -4.699047e+02)	(1.075197e+00 1.105441e+00 -4.699047e+02)	(9.431987e-04 -4.442228e-04 2.278608e-05)
133           	(1.077112e+00 1.105143e+00 -4.699049e+02)	(1.076155e+00 1.105595e+00 -4.699049e+02)	(9.572991e-04 -4.526750e-04 1.957276e-05)
134           	(1.077981e+00 1.105050e+00 -4.699052e+02)	(1.077009e+00 1.105511e+00 -4.699052e+02)	(9.716796e-04 -4.614255e-04 1.654707e-05)
135           	(1.078802e+00 1.104577e+00 -4.699055e+02)	(1.077815e+00 1.105048e+00 -4.699055e+02)	(9.869020e-04 -4.711296e-04 1.381695e-05)
136           	(1.079688e+00 1.104356e+00 -4.699057e+02)	(1.078686e+00 1.104837e+00 -4.699057e+02)	(1.002160e-03 -4.812746e-04 1.143418e-05)
137           	(1.080592e+00 1.103917e+00 -4.699060e+02)	(1.079574e+00 1.104410e+00 -4.699060e+02)	(1.017744e-03 -4.922740e-04 9.488823e-06)
138           	(1.081495e+00 1.103589e+00 -4.699062e+02)	(1.080462e+00 1.104093e+00 -4.699062e+02)	(1.033310e-03 -5.038790e-04 7.996650e-06)
139           	(1.082494e+00 1.103435e+00 -4.699064e+02)	(1.081446e+00 1.103951e+00 -4.699064e+02)	(1.048509e-03 -5.159111e-04 6.890033e-06)
140           	(1.083433e+00 1.103296e+00 -4.699065e+02)	(1.082369e+00 1.103824e+00 -4.699065e+02)	(1.063125e-03 -5.282026e-04 6.095068e-06)
141           	(1.084068e+00 1.103011e+00 -4.699065e+02)	(1.082991e+00 1.103551e+00 -4.699065e+02)	(1.076854e-03 -5.404749e-04 5.553762e-06)
142           	(1.084270e+00 1.102264e+00 -4.699064e+02)	(1.083180e+00 1.102817e+00 -4.699064e+02)	(1.089906e-03 -5.528177e-04 5.231726e-06)
143           	(1.083978e+00 1.100955e+00 -4.699063e+02)	(1.082876e+00 1.101521e+00 -4.699063e+02)	(1.102680e-03 -5.654443e-04 5.095974e-06)
144           	(1.083266e+00 1.099135e+00 -4.699061e+02)	(1.082151e+00 1.099714e+00 -4.699061e+02)	(1.115531e-03 -5.784439e-04 5.102111e-06)
145           	(1.082248e+00 1.096914e+00 -4.699060e+02)	(1.081119e+00 1.097506e+00 -4.699060e+02)	(1.128798e-03 -5.919836e-04 5.168857e-06)
146           	(1.081073e+00 1.094463e+00 -4.699059e+02)	(1.079931e+00 1.095069e+00 -4.699059e+02)	(1.142657e-03 -6.061283e-04 5.173655e-06)
147           	(1.079881e+00 1.091952e+00 -4.699059e+02)	(1.078724e+00 1.092573e+00 -4.699059e+02)	(1.157154e-03 -6.209214e-04 4.961088e-06)
148           	(1.078215e+00 1.088646e+00 -4.699063e+02)	(1.077042e+00 1.089283e+00 -4.699063e+02)	(1.173048e-03 -6.370536e-04 4.401231e-06)
149           	(1.076736e+00 1.085509e+00 -4.699068e+02)	(1.075546e+00 1.086164e+00 -4.699068e+02)	(1.190131e-03 -6.543514e-04 3.336797e-06)
150           	(1.070171e+00 1.078722e+00 -4.699122e+02)	(1.068967e+00 1.079392e+00 -4.699122e+02)	(1.203754e-03 -6.703216e-04 1.545900e-06)
151           	(1.071501e+00 1.078599e+00 -4.699146e+02)	(1.070282e+00 1.079286e+00 -4.699146e+02)	(1.218617e-03 -6.870938e-04 -7.374109e-07)
152           	(1.071601e+00 1.077402e+00 -4.699173e+02)	(1.070367e+00 1.078107e+00 -4.699173e+02)	(1.234180e-03 -7.044802e-04 -3.689875e-06)
153           	(1.069568e+00 1.074344e+00 -4.699208e+02)	(1.068319e+00 1.075066e+00 -4.699208e+02)	(1.249033e-03 -7.219363e-04 -7.166856e-06)
154           	(1.066964e+00 1.070397e+00 -4.699210e+02)	(1.065699e+00 1.071137e+00 -4.699210e+02)	(1.264394e-03 -7.400679e-04 -1.097783e-05)
155           	(1.064251e+00 1.066370e+00 -4.699212e+02)	(1.062971e+00 1.067128e+00 -4.699212e+02)	(1.280150e-03 -7.586243e-04 -1.513367e-05)
156           	(1.061313e+00 1.062158e+00 -4.699215e+02)	(1.060017e+00 1.062935e+00 -4.699215e+02)	(1.295969e-03 -7.772773e-04 -1.953133e-05)
157           	(1.057903e+00 1.057521e+00 -4.699219e+02)	(1.056591e+00 1.058317e+00 -4.699218e+02)	(1.311838e-03 -7.959689e-04 -2.406878e-05)
158           	(1.048955e+00 1.049004e+00 -4.699274e+02)	(1.047632e+00 1.049816e+00 -4.699273e+02)	(1.322980e-03 -8.118392e-04 -2.877699e-05)
159           	(1.046566e+00 1.045545e+00 -4.699276e+02)	(1.045230e+00 1.046373e+00 -4.699275e+02)	(1.335422e-03 -8.280257e-04 -3.323252e-05)
160           	(1.044151e+00 1.042084e+00 -4.699277e+02)	(1.042802e+00 1.042928e+00 -4.699276e+02)	(1.349271e-03 -8.443218e-04 -3.768914e-05)
161           	(1.041774e+00 1.038697e+00 -4.699277e+02)	(1.040411e+00 1.039557e+00 -4.699277e+02)	(1.363734e-03 -8.602945e-04 -4.205310e-05)
162           	(1.039511e+00 1.035448e+00 -4.699277e+02)	(1.038132e+00 1.036324e+00 -4.699276e+02)	(1.378547e-03 -8.758572e-04 -4.632419e-05)
163           	(1.037433e+00 1.032400e+00 -4.699276e+02)	(1.036040e+00 1.033291e+00 -4.699276e+02)	(1.393550e-03 -8.910178e-04 -5.050551e-05)
164           	(1.035420e+00 1.029368e+00 -4.699275e+02)	(1.034011e+00 1.030274e+00 -4.699275e+02)	(1.408803e-03 -9.059519e-04 -5.458073e-05)
165           	(1.033887e+00 1.026832e+00 -4.699274e+02)	(1.032463e+00 1.027752e+00 -4.699273e+02)	(1.424211e-03 -9.206413e-04 -5.854842e-05)
166           	(1.032945e+00 1.024883e+00 -4.699273e+02)	(1.031505e+00 1.025818e+00 -4.699273e+02)	(1.439724e-03 -9.351097e-04 -6.241891e-05)
167           	(1.032564e+00 1.023317e+00 -4.699274e+02)	(1.031109e+00 1.024266e+00 -4.699274e+02)	(1.455807e-03 -9.498372e-04 -6.618664e-05)
168           	(1.033020e+00 1.022611e+00 -4.699276e+02)	(1.031548e+00 1.023576e+00 -4.699275e+02)	(1.472192e-03 -9.646130e-04 -6.987707e-05)
169           	(1.033974e+00 1.022433e+00 -4.699278e+02)	(1.032486e+00 1.023413e+00 -4.699277e+02)	(1.488562e-03 -9.793437e-04 -7.350233e-05)
170           	(1.034960e+00 1.022324e+00 -4.699279e+02)	(1.033455e+00 1.023318e+00 -4.699279e+02)	(1.504636e-03 -9.939390e-04 -7.706164e-05)
171           	(1.035777e+00 1.022013e+00 -4.699281e+02)	(1.034257e+00 1.023021e+00 -4.699280e+02)	(1.520446e-03 -1.008523e-03 -8.054446e-05)
172           	(1.036334e+00 1.021407e+00 -4.699282e+02)	(1.034798e+00 1.022431e+00 -4.699281e+02)	(1.536064e-03 -1.023160e-03 -8.395135e-05)
173           	(1.036646e+00 1.020616e+00 -4.699283e+02)	(1.035095e+00 1.021654e+00 -4.699282e+02)	(1.551352e-03 -1.037736e-03 -8.729150e-05)
174           	(1.036811e+00 1.019733e+00 -4.699283e+02)	(1.035244e+00 1.020785e+00 -4.699282e+02)	(1.566268e-03 -1.052146e-03 -9.058156e-05)
175           	(1.036907e+00 1.018736e+00 -4.699284e+02)	(1.035326e+00 1.019802e+00 -4.699283e+02)	(1.581089e-03 -1.066562e-03 -9.384734e-05)
176           	(1.036949e+00 1.017648e+00 -4.699285e+02)	(1.035353e+00 1.018729e+00 -4.699284e+02)	(1.595952e-03 -1.081031e-03 -9.712041e-05)
177           	(1.036929e+00 1.016483e+00 -4.699286e+02)	(1.035318e+00 1.017578e+00 -4.699285e+02)	(1.610892e-03 -1.095563e-03 -1.004518e-04)
178           	(1.036830e+00 1.015257e+00 -4.699287e+02)	(1.035204e+00 1.016367e+00 -4.699286e+02)	(1.625856e-03 -1.110094e-03 -1.039003e-04)
179           	(1.037034e+00 1.014680e+00 -4.699287e+02)	(1.035394e+00 1.015804e+00 -4.699286e+02)	(1.640058e-03 -1.123906e-03 -1.075541e-04)
180           	(1.036345e+00 1.012862e+00 -4.699288e+02)	(1.034690e+00 1.014000e+00 -4.699287e+02)	(1.654510e-03 -1.138061e-03 -1.113978e-04)
181           	(1.035352e+00 1.010719e+00 -4.699289e+02)	(1.033683e+00 1.011872e+00 -4.699288e+02)	(1.669302e-03 -1.152493e-03 -1.154808e-04)
182           	(1.035045e+00 1.009719e+00 -4.699289e+02)	(1.033361e+00 1.010886e+00 -4.699288e+02)	(1.683277e-03 -1.166117e-03 -1.198398e-04)
183           	(1.033402e+00 1.006973e+00 -4.699290e+02)	(1.031705e+00 1.008154e+00 -4.699289e+02)	(1.697649e-03 -1.180283e-03 -1.243860e-04)
184           	(1.031778e+00 1.004319e+00 -4.699291e+02)	(1.030065e+00 1.005514e+00 -4.699290e+02)	(1.712281e-03 -1.194678e-03 -1.290972e-04)
185           	(1.031382e+00 1.003366e+00 -4.699291e+02)	(1.029656e+00 1.004574e+00 -4.699290e+02)	(1.726100e-03 -1.208285e-03 -1.339376e-04)
186           	(1.029695e+00 1.000603e+00 -4.699295e+02)	(1.027954e+00 1.001826e+00 -4.699294e+02)	(1.740584e-03 -1.222636e-03 -1.387817e-04)
187           	(1.023713e+00 9.954248e-01 -4.699353e+02)	(1.021962e+00 9.966592e-01 -4.699352e+02)	(1.750398e-03 -1.234345e-03 -1.436812e-04)
188           	(1.022747e+00 9.933823e-01 -4.699358e+02)	(1.020985e+00 9.946298e-01 -4.699356e+02)	(1.762411e-03 -1.247469e-03 -1.482443e-04)
189           	(1.022476e+00 9.920841e-01 -4.699363e+02)	(1.020700e+00 9.933455e-01 -4.699362e+02)	(1.776568e-03 -1.261471e-03 -1.527788e-04)
190           	(1.022858e+00 9.915342e-01 -4.699370e+02)	(1.021067e+00 9.928099e-01 -4.699368e+02)	(1.791768e-03 -1.275742e-03 -1.571401e-04)
191           	(1.023603e+00 9.914642e-01 -4.699377e+02)	(1.021796e+00 9.927543e-01 -4.699376e+02)	(1.807431e-03 -1.290096e-03 -1.613244e-04)
192           	(1.025895e+00 9.933017e-01 -4.699403e+02)	(1.024072e+00 9.946056e-01 -4.699402e+02)	(1.822532e-03 -1.303928e-03 -1.653546e-04)
193           	(1.025219e+00 9.920532e-01 -4.699406e+02)	(1.023382e+00 9.933710e-01 -4.699405e+02)	(1.837245e-03 -1.317790e-03 -1.692245e-04)
194           	(1.024268e+00 9.906045e-01 -4.699408e+02)	(1.022416e+00 9.919362e-01 -4.699406e+02)	(1.851717e-03 -1.331728e-03 -1.729315e-04)
195           	(1.023174e+00 9.890284e-01 -4.699410e+02)	(1.021308e+00 9.903741e-01 -4.699408e+02)	(1.866041e-03 -1.345736e-03 -1.764952e-04)
196           	(1.022048e+00 9.874434e-01 -4.699412e+02)	(1.020168e+00 9.888032e-01 -4.699410e+02)	(1.880364e-03 -1.359856e-03 -1.799390e-04)
197           	(1.020931e+00 9.859009e-01 -4.699414e+02)	(1.019036e+00 9.872750e-01 -4.699412e+02)	(1.894773e-03 -1.374080e-03 -1.832966e-04)
198           	(1.021196e+00 9.859463e-01 -4.699415e+02)	(1.019287e+00 9.873343e-01 -4.699413e+02)	(1.908973e-03 -1.387970e-03 -1.866214e-04)
199           	(1.021220e+00 9.857633e-01 -4.699415e+02)	(1.019297e+00 9.871649e-01 -4.699414e+02)	(1.922971e-03 -1.401599e-03 -1.899366e-04)
200           	(1.020935e+00 9.852829e-01 -4.699416e+02)	(1.018998e+00 9.866979e-01 -4.699414e+02)	(1.936867e-03 -1.415017e-03 -1.932717e-04)
201           	(1.020309e+00 9.844727e-01 -4.699416e+02)	(1.018358e+00 9.859009e-01 -4.699414e+02)	(1.950634e-03 -1.428207e-03 -1.966550e-04)
202           	(1.019326e+00 9.833200e-01 -4.699415e+02)	(1.017362e+00 9.847611e-01 -4.699413e+02)	(1.964248e-03 -1.441134e-03 -2.001358e-04)
203           	(1.017990e+00 9.818241e-01 -4.699415e+02)	(1.016012e+00 9.832780e-01 -4.699413e+02)	(1.977682e-03 -1.453813e-03 -2.037491e-04)
204           	(1.016425e+00 9.801166e-01 -4.699414e+02)	(1.014434e+00 9.815829e-01 -4.699412e+02)	(1.990899e-03 -1.466237e-03 -2.075389e-04)
205           	(1.012533e+00 9.759424e-01 -4.699412e+02)	(1.010529e+00 9.774213e-01 -4.699410e+02)	(2.004135e-03 -1.478837e-03 -2.115099e-04)
206           	(1.011109e+00 9.744452e-01 -4.699411e+02)	(1.009092e+00 9.759362e-01 -4.699409e+02)	(2.017034e-03 -1.491016e-03 -2.156999e-04)
207           	(1.007561e+00 9.707967e-01 -4.699410e+02)	(1.005531e+00 9.722996e-01 -4.699408e+02)	(2.029325e-03 -1.502899e-03 -2.201059e-04)
208           	(1.004643e+00 9.678306e-01 -4.699409e+02)	(1.002602e+00 9.693450e-01 -4.699406e+02)	(2.041131e-03 -1.514476e-03 -2.246813e-04)
209           	(1.002851e+00 9.660032e-01 -4.699408e+02)	(1.000799e+00 9.675288e-01 -4.699406e+02)	(2.052488e-03 -1.525629e-03 -2.293873e-04)
210           	(1.002456e+00 9.655184e-01 -4.699409e+02)	(1.000393e+00 9.670549e-01 -4.699407e+02)	(2.063672e-03 -1.536552e-03 -2.341857e-04)