# Force       
# CofR        : (0.000000e+00 0.000000e+00 0.000000e+00)
#
# Time        	(total_x total_y total_z)	(pressure_x pressure_y pressure_z)	(viscous_x viscous_y viscous_z)
1             	(2.166284e+01 2.088128e+01 -4.675182e+02)	(2.162984e+01 2.088142e+01 -4.675183e+02)	(3.299746e-02 -1.316872e-04 1.219575e-04)
2             	(2.236380e+01 2.127317e+01 -4.672798e+02)	(2.234852e+01 2.128609e+01 -4.672802e+02)	(1.528150e-02 -1.292422e-02 4.614207e-04)
3             	(1.748044e+01 1.645510e+01 -4.673731e+02)	(1.747817e+01 1.647706e+01 -4.673734e+02)	(2.270921e-03 -2.195727e-02 3.059586e-04)
4             	(9.143450e+00 8.397549e+00 -4.677345e+02)	(9.146979e+00 8.422809e+00 -4.677346e+02)	(-3.529106e-03 -2.526061e-02 1.449863e-04)
5             	(2.613409e-01 -1.784328e-01 -4.682285e+02)	(2.647452e-01 -1.552751e-01 -4.682285e+02)	(-3.404326e-03 -2.315776e-02 3.120247e-05)
6             	(-6.031557e+00 -6.165160e+00 -4.686510e+02)	(-6.031823e+00 -6.147444e+00 -4.686510e+02)	(2.665693e-04 -1.771573e-02 -3.236857e-05)
7             	(-8.524229e+00 -8.403666e+00 -4.689601e+02)	(-8.529939e+00 -8.392919e+00 -4.689603e+02)	(5.709437e-03 -1.074721e-02 2.038747e-04)
8             	(-8.086595e+00 -7.824912e+00 -4.690484e+02)	(-8.097445e+00 -7.820619e+00 -4.690489e+02)	(1.084955e-02 -4.292331e-03 5.034744e-04)
9             	(-5.839753e+00 -5.524927e+00 -4.690488e+02)	(-5.853796e+00 -5.525098e+00 -4.690494e+02)	(1.404362e-02 1.705255e-04 6.630620e-04)
10            	(-2.451567e+00 -2.209709e+00 -4.689514e+02)	(-2.466419e+00 -2.211732e+00 -4.689520e+02)	(1.485268e-02 2.023250e-03 5.899397e-04)
11            	(7.693944e-01 8.658873e-01 -4.687455e+02)	(7.556829e-01 8.642624e-01 -4.687459e+02)	(1.371152e-02 1.624991e-03 4.339797e-04)
12            	(2.866338e+00 2.816456e+00 -4.685476e+02)	(2.855028e+00 2.816641e+00 -4.685478e+02)	(1.130973e-02 -1.853684e-04 2.460425e-04)
13            	(3.716210e+00 3.555418e+00 -4.684391e+02)	(3.707704e+00 3.557930e+00 -4.684392e+02)	(8.506585e-03 -2.511221e-03 8.144981e-05)
14            	(3.573599e+00 3.367681e+00 -4.683964e+02)	(3.567604e+00 3.372238e+00 -4.683963e+02)	(5.994964e-03 -4.556625e-03 -6.011928e-05)
15            	(2.778315e+00 2.565033e+00 -4.683877e+02)	(2.774049e+00 2.570867e+00 -4.683875e+02)	(4.266078e-03 -5.833512e-03 -1.514349e-04)
16            	(1.728809e+00 1.547386e+00 -4.683883e+02)	(1.725399e+00 1.553549e+00 -4.683882e+02)	(3.410400e-03 -6.162975e-03 -1.702909e-04)
17            	(7.087853e-01 5.879054e-01 -4.683943e+02)	(7.055338e-01 5.936105e-01 -4.683941e+02)	(3.251510e-03 -5.705119e-03 -1.476694e-04)
18            	(5.347040e-03 -5.249918e-02 -4.684423e+02)	(1.825949e-03 -4.771314e-02 -4.684422e+02)	(3.521091e-03 -4.786042e-03 -1.190901e-04)
19            	(-3.355853e-01 -3.484631e-01 -4.684737e+02)	(-3.395358e-01 -3.447280e-01 -4.684737e+02)	(3.950462e-03 -3.735086e-03 -8.926090e-05)
20            	(-3.721691e-01 -3.605834e-01 -4.684775e+02)	(-3.764911e-01 -3.577757e-01 -4.684775e+02)	(4.322047e-03 -2.807658e-03 -4.999903e-05)
21            	(-2.245781e-01 -1.939451e-01 -4.685025e+02)	(-2.290657e-01 -1.918173e-01 -4.685025e+02)	(4.487557e-03 -2.127798e-03 -1.348686e-05)
22            	(6.040578e-02 8.472054e-02 -4.685036e+02)	(5.596761e-02 8.646519e-02 -4.685036e+02)	(4.438177e-03 -1.744642e-03 1.102686e-05)
23            	(3.812344e-01 3.935928e-01 -4.685032e+02)	(3.770363e-01 3.951993e-01 -4.685032e+02)	(4.198089e-03 -1.606509e-03 2.192064e-05)
24            	(6.902990e-01 6.851765e-01 -4.685028e+02)	(6.864478e-01 6.868105e-01 -4.685028e+02)	(3.851191e-03 -1.634049e-03 1.604724e-05)
25            	(9.057067e-01 8.845835e-01 -4.685022e+02)	(9.022202e-01 8.863070e-01 -4.685022e+02)	(3.486505e-03 -1.723465e-03 1.155155e-06)
26            	(1.007447e+00 9.783083e-01 -4.685019e+02)	(1.004272e+00 9.800868e-01 -4.685019e+02)	(3.174748e-03 -1.778520e-03 -1.355078e-05)
27            	(9.966812e-01 9.653004e-01 -4.685013e+02)	(9.937594e-01 9.670983e-01 -4.685013e+02)	(2.921780e-03 -1.797898e-03 -2.540774e-05)
28            	(9.612104e-01 9.295070e-01 -4.685016e+02)	(9.584736e-01 9.312540e-01 -4.685016e+02)	(2.736820e-03 -1.747067e-03 -3.288610e-05)
29            	(9.229568e-01 8.904234e-01 -4.685018e+02)	(9.203337e-01 8.920562e-01 -4.685018e+02)	(2.623021e-03 -1.632745e-03 -3.610501e-05)
30            	(8.699428e-01 8.383818e-01 -4.685002e+02)	(8.673783e-01 8.398469e-01 -4.685002e+02)	(2.564444e-03 -1.465088e-03 -3.420780e-05)
31            	(7.545707e-01 7.295082e-01 -4.684907e+02)	(7.520364e-01 7.307796e-01 -4.684906e+02)	(2.534268e-03 -1.271384e-03 -2.579306e-05)
32            	(6.611385e-01 6.426530e-01 -4.684812e+02)	(6.586412e-01 6.437345e-01 -4.684812e+02)	(2.497334e-03 -1.081452e-03 -1.457991e-05)
33            	(6.669895e-01 6.490150e-01 -4.684814e+02)	(6.645474e-01 6.499421e-01 -4.684814e+02)	(2.442115e-03 -9.271021e-04 -3.097325e-06)
34            	(6.764884e-01 6.599197e-01 -4.684814e+02)	(6.741270e-01 6.607405e-01 -4.684814e+02)	(2.361477e-03 -8.207685e-04 7.862534e-06)
35            	(6.852862e-01 6.712974e-01 -4.684811e+02)	(6.830358e-01 6.720594e-01 -4.684811e+02)	(2.250427e-03 -7.620207e-04 1.601801e-05)
36            	(6.912367e-01 6.807951e-01 -4.684806e+02)	(6.891203e-01 6.815332e-01 -4.684806e+02)	(2.116476e-03 -7.381041e-04 2.081795e-05)
37            	(6.938238e-01 6.878893e-01 -4.684800e+02)	(6.918510e-01 6.886236e-01 -4.684800e+02)	(1.972800e-03 -7.343485e-04 2.162734e-05)
38            	(6.928128e-01 6.921128e-01 -4.684790e+02)	(6.909826e-01 6.928507e-01 -4.684790e+02)	(1.830278e-03 -7.379902e-04 1.871742e-05)
39            	(6.898716e-01 6.946299e-01 -4.684781e+02)	(6.881746e-01 6.953666e-01 -4.684782e+02)	(1.696986e-03 -7.367528e-04 1.411669e-05)
40            	(6.983102e-01 7.068776e-01 -4.684728e+02)	(6.967279e-01 7.076053e-01 -4.684728e+02)	(1.582330e-03 -7.276704e-04 9.295221e-06)
41            	(7.075919e-01 7.203879e-01 -4.684710e+02)	(7.061080e-01 7.210913e-01 -4.684710e+02)	(1.483918e-03 -7.034182e-04 7.115824e-06)
42            	(7.217699e-01 7.381145e-01 -4.684696e+02)	(7.203697e-01 7.387843e-01 -4.684696e+02)	(1.400201e-03 -6.697626e-04 8.405282e-06)
43            	(7.419847e-01 7.610140e-01 -4.684687e+02)	(7.406569e-01 7.616370e-01 -4.684687e+02)	(1.327849e-03 -6.230872e-04 1.207574e-05)
44            	(7.672558e-01 7.878430e-01 -4.684685e+02)	(7.659930e-01 7.884141e-01 -4.684685e+02)	(1.262795e-03 -5.711379e-04 1.761141e-05)
45            	(7.935252e-01 8.149729e-01 -4.684691e+02)	(7.923239e-01 8.154920e-01 -4.684691e+02)	(1.201337e-03 -5.190491e-04 2.337509e-05)
46            	(8.170184e-01 8.389070e-01 -4.684704e+02)	(8.158760e-01 8.393785e-01 -4.684705e+02)	(1.142394e-03 -4.715020e-04 2.655556e-05)
47            	(8.355064e-01 8.579095e-01 -4.684724e+02)	(8.344203e-01 8.583404e-01 -4.684725e+02)	(1.086089e-03 -4.308551e-04 2.710834e-05)
48            	(8.492321e-01 8.725132e-01 -4.684751e+02)	(8.481997e-01 8.729091e-01 -4.684751e+02)	(1.032357e-03 -3.958715e-04 2.605909e-05)
49            	(8.516844e-01 8.784588e-01 -4.684843e+02)	(8.507072e-01 8.788194e-01 -4.684843e+02)	(9.772158e-04 -3.606533e-04 2.379804e-05)
50            	(8.523746e-01 8.827650e-01 -4.684927e+02)	(8.514513e-01 8.830906e-01 -4.684927e+02)	(9.233521e-04 -3.256071e-04 2.019611e-05)
51            	(8.520046e-01 8.856436e-01 -4.684994e+02)	(8.511311e-01 8.859336e-01 -4.684994e+02)	(8.734523e-04 -2.900978e-04 1.466706e-05)
52            	(8.545790e-01 8.899806e-01 -4.685014e+02)	(8.537470e-01 8.902384e-01 -4.685015e+02)	(8.319796e-04 -2.578470e-04 7.481642e-06)
53            	(8.548981e-01 8.921713e-01 -4.685025e+02)	(8.541010e-01 8.923990e-01 -4.685025e+02)	(7.970192e-04 -2.277406e-04 -1.251599e-06)
54            	(8.553834e-01 8.945352e-01 -4.685035e+02)	(8.546182e-01 8.947353e-01 -4.685035e+02)	(7.651838e-04 -2.000494e-04 -1.132466e-05)
55            	(8.558229e-01 8.968770e-01 -4.685045e+02)	(8.550882e-01 8.970527e-01 -4.685045e+02)	(7.346137e-04 -1.757467e-04 -2.154199e-05)
56            	(8.546238e-01 8.976715e-01 -4.685045e+02)	(8.539196e-01 8.978261e-01 -4.685045e+02)	(7.042140e-04 -1.546287e-04 -3.054195e-05)
57            	(8.509906e-01 8.967663e-01 -4.685080e+02)	(8.503193e-01 8.968999e-01 -4.685080e+02)	(6.712617e-04 -1.335052e-04 -3.683326e-05)
58            	(8.454859e-01 8.940777e-01 -4.685110e+02)	(8.448483e-01 8.941891e-01 -4.685109e+02)	(6.376149e-04 -1.113639e-04 -3.971579e-05)
59            	(8.409328e-01 8.918875e-01 -4.685128e+02)	(8.403276e-01 8.919750e-01 -4.685128e+02)	(6.051881e-04 -8.751110e-05 -3.976419e-05)
60            	(8.406948e-01 8.928584e-01 -4.685125e+02)	(8.401183e-01 8.929220e-01 -4.685124e+02)	(5.765149e-04 -6.358779e-05 -3.759603e-05)
61            	(8.403610e-01 8.937795e-01 -4.685122e+02)	(8.398094e-01 8.938196e-01 -4.685122e+02)	(5.516134e-04 -4.014329e-05 -3.380495e-05)
62            	(8.400686e-01 8.947698e-01 -4.685120e+02)	(8.395383e-01 8.947879e-01 -4.685119e+02)	(5.303105e-04 -1.805950e-05 -2.851053e-05)
63            	(8.413762e-01 8.973936e-01 -4.685119e+02)	(8.408636e-01 8.973910e-01 -4.685119e+02)	(5.125825e-04 2.581882e-06 -2.230604e-05)
64            	(8.438169e-01 9.010524e-01 -4.685119e+02)	(8.433185e-01 9.010316e-01 -4.685119e+02)	(4.984065e-04 2.084528e-05 -1.598251e-05)
65            	(8.472659e-01 9.056165e-01 -4.685120e+02)	(8.467786e-01 9.055802e-01 -4.685120e+02)	(4.873212e-04 3.628581e-05 -9.996974e-06)
66            	(8.515170e-01 9.108337e-01 -4.685120e+02)	(8.510385e-01 9.107853e-01 -4.685120e+02)	(4.785472e-04 4.844425e-05 -4.293713e-06)
67            	(8.630383e-01 9.218378e-01 -4.685092e+02)	(8.625639e-01 9.217817e-01 -4.685092e+02)	(4.744550e-04 5.616846e-05 6.921772e-07)
68            	(8.755369e-01 9.336528e-01 -4.685060e+02)	(8.750624e-01 9.335938e-01 -4.685060e+02)	(4.744131e-04 5.898695e-05 5.684541e-06)
69            	(8.875445e-01 9.450876e-01 -4.685028e+02)	(8.870680e-01 9.450297e-01 -4.685028e+02)	(4.764648e-04 5.792801e-05 9.769604e-06)
70            	(8.920283e-01 9.504797e-01 -4.685026e+02)	(8.915517e-01 9.504246e-01 -4.685027e+02)	(4.765860e-04 5.510620e-05 1.282687e-05)
71            	(8.960878e-01 9.554507e-01 -4.685024e+02)	(8.956126e-01 9.554001e-01 -4.685024e+02)	(4.751970e-04 5.055701e-05 1.503670e-05)
72            	(9.061154e-01 9.650218e-01 -4.684988e+02)	(9.056393e-01 9.649792e-01 -4.684988e+02)	(4.760585e-04 4.263042e-05 1.655432e-05)
73            	(9.138339e-01 9.725381e-01 -4.684958e+02)	(9.133557e-01 9.725058e-01 -4.684958e+02)	(4.782253e-04 3.225683e-05 1.765629e-05)
74            	(9.151455e-01 9.747543e-01 -4.684955e+02)	(9.146668e-01 9.747326e-01 -4.684955e+02)	(4.787099e-04 2.174816e-05 1.843066e-05)
75            	(9.156041e-01 9.760776e-01 -4.684952e+02)	(9.151261e-01 9.760662e-01 -4.684952e+02)	(4.779560e-04 1.139380e-05 1.864694e-05)
76            	(9.155260e-01 9.767827e-01 -4.684949e+02)	(9.150487e-01 9.767818e-01 -4.684949e+02)	(4.772216e-04 9.383369e-07 1.823430e-05)
77            	(9.153286e-01 9.772470e-01 -4.684947e+02)	(9.148519e-01 9.772562e-01 -4.684947e+02)	(4.766966e-04 -9.225602e-06 1.703058e-05)
78            	(9.149978e-01 9.774513e-01 -4.684945e+02)	(9.145209e-01 9.774707e-01 -4.684946e+02)	(4.768918e-04 -1.937270e-05 1.508396e-05)
79            	(9.164963e-01 9.788389e-01 -4.684942e+02)	(9.160169e-01 9.788692e-01 -4.684942e+02)	(4.794460e-04 -3.032827e-05 1.237101e-05)
80            	(9.176322e-01 9.799696e-01 -4.684940e+02)	(9.171486e-01 9.800112e-01 -4.684940e+02)	(4.836749e-04 -4.153323e-05 8.898893e-06)
81            	(9.173408e-01 9.800693e-01 -4.684939e+02)	(9.168528e-01 9.801214e-01 -4.684939e+02)	(4.880126e-04 -5.202037e-05 5.128698e-06)
82            	(9.173062e-01 9.803711e-01 -4.684938e+02)	(9.168137e-01 9.804330e-01 -4.684938e+02)	(4.924619e-04 -6.188407e-05 1.349830e-06)
83            	(9.185661e-01 9.817237e-01 -4.684938e+02)	(9.180686e-01 9.817953e-01 -4.684938e+02)	(4.975563e-04 -7.155016e-05 -1.964256e-06)
84            	(9.201636e-01 9.833258e-01 -4.684937e+02)	(9.196606e-01 9.834067e-01 -4.684937e+02)	(5.030131e-04 -8.090267e-05 -4.489209e-06)
85            	(9.220842e-01 9.851486e-01 -4.684937e+02)	(9.215757e-01 9.852385e-01 -4.684937e+02)	(5.085864e-04 -8.997881e-05 -6.034978e-06)
86            	(9.242683e-01 9.871275e-01 -4.684937e+02)	(9.237541e-01 9.872265e-01 -4.684937e+02)	(5.141414e-04 -9.899423e-05 -6.679363e-06)
87            	(9.266658e-01 9.891908e-01 -4.684937e+02)	(9.261462e-01 9.892989e-01 -4.684937e+02)	(5.195477e-04 -1.081114e-04 -6.513390e-06)
88            	(9.291961e-01 9.912654e-01 -4.684938e+02)	(9.286713e-01 9.913829e-01 -4.684938e+02)	(5.247947e-04 -1.174972e-04 -5.769036e-06)
89            	(9.317823e-01 9.932706e-01 -4.684940e+02)	(9.312524e-01 9.933979e-01 -4.684939e+02)	(5.299279e-04 -1.272620e-04 -4.649664e-06)
90            	(9.342816e-01 9.950851e-01 -4.684942e+02)	(9.337466e-01 9.952228e-01 -4.684942e+02)	(5.350240e-04 -1.376931e-04 -3.529073e-06)
91            	(9.365952e-01 9.966213e-01 -4.684944e+02)	(9.360549e-01 9.967705e-01 -4.684944e+02)	(5.402966e-04 -1.491436e-04 -2.750935e-06)
92            	(9.385837e-01 9.977893e-01 -4.684947e+02)	(9.380377e-01 9.979511e-01 -4.684947e+02)	(5.460180e-04 -1.617291e-04 -2.572068e-06)
93            	(9.401087e-01 9.984439e-01 -4.684950e+02)	(9.395562e-01 9.986194e-01 -4.684950e+02)	(5.525064e-04 -1.754210e-04 -3.161038e-06)
94            	(9.410835e-01 9.985372e-01 -4.684953e+02)	(9.405236e-01 9.987272e-01 -4.684953e+02)	(5.598746e-04 -1.900219e-04 -4.531202e-06)
95            	(9.415200e-01 9.981156e-01 -4.684956e+02)	(9.409519e-01 9.983207e-01 -4.684956e+02)	(5.681033e-04 -2.051265e-04 -6.661805e-06)
96            	(9.415280e-01 9.973013e-01 -4.684960e+02)	(9.409509e-01 9.975218e-01 -4.684960e+02)	(5.771228e-04 -2.204858e-04 -9.430442e-06)
97            	(9.401494e-01 9.954093e-01 -4.684959e+02)	(9.395632e-01 9.956447e-01 -4.684959e+02)	(5.861587e-04 -2.353640e-04 -1.263213e-05)
98            	(9.387452e-01 9.934582e-01 -4.684959e+02)	(9.381499e-01 9.937079e-01 -4.684959e+02)	(5.953464e-04 -2.497192e-04 -1.611662e-05)
99            	(9.382956e-01 9.921159e-01 -4.684964e+02)	(9.376900e-01 9.923799e-01 -4.684964e+02)	(6.056142e-04 -2.640013e-04 -1.970510e-05)
100           	(9.369882e-01 9.902059e-01 -4.684963e+02)	(9.363721e-01 9.904834e-01 -4.684963e+02)	(6.161680e-04 -2.774921e-04 -2.322180e-05)
101           	(9.357619e-01 9.883243e-01 -4.684963e+02)	(9.351351e-01 9.886145e-01 -4.684962e+02)	(6.268583e-04 -2.901894e-04 -2.648669e-05)
102           	(9.346468e-01 9.864901e-01 -4.684962e+02)	(9.340089e-01 9.867924e-01 -4.684961e+02)	(6.379237e-04 -3.022875e-04 -2.929838e-05)
103           	(9.347445e-01 9.855249e-01 -4.684967e+02)	(9.340946e-01 9.858392e-01 -4.684967e+02)	(6.499701e-04 -3.142960e-04 -3.160714e-05)
104           	(9.349847e-01 9.847091e-01 -4.684971e+02)	(9.343220e-01 9.850353e-01 -4.684971e+02)	(6.627554e-04 -3.261570e-04 -3.338210e-05)
105           	(9.353499e-01 9.840572e-01 -4.684975e+02)	(9.346740e-01 9.843950e-01 -4.684975e+02)	(6.758800e-04 -3.377522e-04 -3.467687e-05)
106           	(9.349154e-01 9.829513e-01 -4.684973e+02)	(9.342271e-01 9.832999e-01 -4.684973e+02)	(6.883389e-04 -3.485682e-04 -3.558706e-05)
107           	(9.345618e-01 9.819028e-01 -4.684971e+02)	(9.338614e-01 9.822617e-01 -4.684971e+02)	(7.003229e-04 -3.588622e-04 -3.619858e-05)
108           	(9.342619e-01 9.808654e-01 -4.684970e+02)	(9.335498e-01 9.812342e-01 -4.684969e+02)	(7.120942e-04 -3.687946e-04 -3.663069e-05)
109           	(9.340280e-01 9.798336e-01 -4.684968e+02)	(9.333042e-01 9.802121e-01 -4.684967e+02)	(7.237753e-04 -3.785381e-04 -3.689167e-05)
110           	(9.357125e-01 9.801190e-01 -4.684968e+02)	(9.349759e-01 9.805079e-01 -4.684968e+02)	(7.366700e-04 -3.889133e-04 -3.705350e-05)
111           	(9.376622e-01 9.806446e-01 -4.684968e+02)	(9.369118e-01 9.810444e-01 -4.684967e+02)	(7.503817e-04 -3.997947e-04 -3.709486e-05)
112           	(9.403910e-01 9.819470e-01 -4.684968e+02)	(9.396267e-01 9.823579e-01 -4.684967e+02)	(7.643666e-04 -4.109011e-04 -3.706231e-05)
113           	(9.436219e-01 9.838383e-01 -4.684968e+02)	(9.428436e-01 9.842604e-01 -4.684967e+02)	(7.782781e-04 -4.220745e-04 -3.687040e-05)
114           	(9.469252e-01 9.859558e-01 -4.684967e+02)	(9.461334e-01 9.863890e-01 -4.684967e+02)	(7.918299e-04 -4.332367e-04 -3.655306e-05)
115           	(9.473494e-01 9.858556e-01 -4.684966e+02)	(9.465458e-01 9.862994e-01 -4.684965e+02)	(8.036144e-04 -4.438311e-04 -3.601476e-05)
116           	(9.503721e-01 9.877882e-01 -4.684964e+02)	(9.495566e-01 9.882429e-01 -4.684963e+02)	(8.154733e-04 -4.546514e-04 -3.522312e-05)
117           	(9.504631e-01 9.874039e-01 -4.684962e+02)	(9.496369e-01 9.878690e-01 -4.684961e+02)	(8.262521e-04 -4.651424e-04 -3.408533e-05)
118           	(9.530057e-01 9.886941e-01 -4.684957e+02)	(9.521676e-01 9.891704e-01 -4.684957e+02)	(8.380496e-04 -4.763064e-04 -3.274295e-05)
119           	(9.550951e-01 9.895617e-01 -4.684951e+02)	(9.542444e-01 9.900498e-01 -4.684951e+02)	(8.506671e-04 -4.880951e-04 -3.121175e-05)
120           	(9.583143e-01 9.914627e-01 -4.684945e+02)	(9.574498e-01 9.919630e-01 -4.684944e+02)	(8.644618e-04 -5.002879e-04 -2.954356e-05)
121           	(9.611072e-01 9.930379e-01 -4.684937e+02)	(9.602284e-01 9.935507e-01 -4.684936e+02)	(8.788318e-04 -5.127399e-04 -2.773425e-05)
122           	(9.612181e-01 9.927684e-01 -4.684933e+02)	(9.603261e-01 9.932927e-01 -4.684933e+02)	(8.919967e-04 -5.243109e-04 -2.596752e-05)
123           	(9.612734e-01 9.924085e-01 -4.684930e+02)	(9.603691e-01 9.929441e-01 -4.684929e+02)	(9.042695e-04 -5.355348e-04 -2.429642e-05)
124           	(9.612976e-01 9.916182e-01 -4.684924e+02)	(9.603806e-01 9.921654e-01 -4.684924e+02)	(9.169935e-04 -5.472530e-04 -2.287416e-05)
125           	(9.633802e-01 9.923827e-01 -4.684917e+02)	(9.624489e-01 9.929428e-01 -4.684917e+02)	(9.313345e-04 -5.600737e-04 -2.185268e-05)
126           	(9.636975e-01 9.918441e-01 -4.684914e+02)	(9.627520e-01 9.924168e-01 -4.684913e+02)	(9.454338e-04 -5.727173e-04 -2.128869e-05)
127           	(9.641890e-01 9.914313e-01 -4.684911e+02)	(9.632299e-01 9.920166e-01 -4.684910e+02)	(9.591600e-04 -5.852951e-04 -2.101346e-05)
128           	(9.648441e-01 9.911231e-01 -4.684908e+02)	(9.638712e-01 9.917210e-01 -4.684908e+02)	(9.728830e-04 -5.979296e-04 -2.101754e-05)
129           	(9.656440e-01 9.908972e-01 -4.684906e+02)	(9.646573e-01 9.915079e-01 -4.684906e+02)	(9.866637e-04 -6.106526e-04 -2.124185e-05)
130           	(9.665664e-01 9.907340e-01 -4.684905e+02)	(9.655659e-01 9.913575e-01 -4.684905e+02)	(1.000532e-03 -6.234739e-04 -2.163505e-05)
131           	(9.675893e-01 9.906183e-01 -4.684903e+02)	(9.665748e-01 9.912547e-01 -4.684903e+02)	(1.014538e-03 -6.363328e-04 -2.217582e-05)
132           	(9.686794e-01 9.905249e-01 -4.684901e+02)	(9.676507e-01 9.911741e-01 -4.684901e+02)	(1.028665e-03 -6.492597e-04 -2.286559e-05)
133           	(9.694719e-01 9.905732e-01 -4.684901e+02)	(9.684301e-01 9.912345e-01 -4.684901e+02)	(1.041782e-03 -6.613379e-04 -2.375857e-05)
134           	(9.700338e-01 9.902852e-01 -4.684900e+02)	(9.689796e-01 9.909581e-01 -4.684899e+02)	(1.054184e-03 -6.729547e-04 -2.484172e-05)
135           	(9.726294e-01 9.910317e-01 -4.684896e+02)	(9.715608e-01 9.917176e-01 -4.684895e+02)	(1.068665e-03 -6.858847e-04 -2.613113e-05)
136           	(9.730399e-01 9.900403e-01 -4.684892e+02)	(9.719565e-01 9.907394e-01 -4.684892e+02)	(1.083479e-03 -6.990489e-04 -2.765274e-05)
137           	(9.735473e-01 9.891969e-01 -4.684889e+02)	(9.724492e-01 9.899092e-01 -4.684888e+02)	(1.098170e-03 -7.122841e-04 -2.937954e-05)
138           	(9.743437e-01 9.886316e-01 -4.684886e+02)	(9.732308e-01 9.893573e-01 -4.684886e+02)	(1.112864e-03 -7.257402e-04 -3.132793e-05)
139           	(9.751784e-01 9.881999e-01 -4.684884e+02)	(9.740511e-01 9.889392e-01 -4.684884e+02)	(1.127299e-03 -7.392639e-04 -3.359466e-05)
140           	(9.758680e-01 9.880765e-01 -4.684884e+02)	(9.747279e-01 9.888285e-01 -4.684883e+02)	(1.140076e-03 -7.519446e-04 -3.620394e-05)
141           	(9.765955e-01 9.874246e-01 -4.684883e+02)	(9.754426e-01 9.881897e-01 -4.684883e+02)	(1.152837e-03 -7.651161e-04 -3.921368e-05)
142           	(9.772039e-01 9.866376e-01 -4.684883e+02)	(9.760381e-01 9.874167e-01 -4.684883e+02)	(1.165822e-03 -7.790728e-04 -4.258681e-05)
143           	(9.776290e-01 9.856730e-01 -4.684884e+02)	(9.764502e-01 9.864664e-01 -4.684884e+02)	(1.178810e-03 -7.933716e-04 -4.634783e-05)
144           	(9.778439e-01 9.845093e-01 -4.684886e+02)	(9.766521e-01 9.853174e-01 -4.684885e+02)	(1.191728e-03 -8.080175e-04 -5.038710e-05)
145           	(9.778940e-01 9.832019e-01 -4.684888e+02)	(9.766895e-01 9.840247e-01 -4.684887e+02)	(1.204491e-03 -8.228338e-04 -5.468277e-05)
146           	(9.776556e-01 9.815357e-01 -4.684890e+02)	(9.764382e-01 9.823738e-01 -4.684889e+02)	(1.217368e-03 -8.381262e-04 -5.907279e-05)
147           	(9.781232e-01 9.803348e-01 -4.684900e+02)	(9.768922e-01 9.811890e-01 -4.684899e+02)	(1.230957e-03 -8.541455e-04 -6.353374e-05)
148           	(9.788778e-01 9.796114e-01 -4.684926e+02)	(9.776332e-01 9.804817e-01 -4.684925e+02)	(1.244521e-03 -8.703614e-04 -6.794377e-05)
149           	(9.696799e-01 9.707545e-01 -4.684989e+02)	(9.684265e-01 9.716387e-01 -4.684988e+02)	(1.253367e-03 -8.842438e-04 -7.229348e-05)
150           	(9.674665e-01 9.673086e-01 -4.685021e+02)	(9.662032e-01 9.682076e-01 -4.685021e+02)	(1.263287e-03 -8.990273e-04 -7.635155e-05)
151           	(9.643232e-01 9.628250e-01 -4.685022e+02)	(9.630481e-01 9.637396e-01 -4.685021e+02)	(1.275100e-03 -9.145995e-04 -8.022497e-05)
152           	(9.608373e-01 9.580642e-01 -4.685023e+02)	(9.595494e-01 9.589948e-01 -4.685022e+02)	(1.287878e-03 -9.306058e-04 -8.382496e-05)
153           	(9.571953e-01 9.532120e-01 -4.685024e+02)	(9.558940e-01 9.541586e-01 -4.685023e+02)	(1.301333e-03 -9.466189e-04 -8.721123e-05)
154           	(9.479453e-01 9.442206e-01 -4.685077e+02)	(9.466342e-01 9.451808e-01 -4.685077e+02)	(1.311112e-03 -9.602634e-04 -9.034348e-05)
155           	(9.445143e-01 9.396259e-01 -4.685078e+02)	(9.431916e-01 9.406005e-01 -4.685077e+02)	(1.322686e-03 -9.746264e-04 -9.328289e-05)
156           	(9.411861e-01 9.351376e-01 -4.685078e+02)	(9.398503e-01 9.361269e-01 -4.685077e+02)	(1.335782e-03 -9.893453e-04 -9.610179e-05)
157           	(9.380727e-01 9.308641e-01 -4.685077e+02)	(9.367229e-01 9.318682e-01 -4.685076e+02)	(1.349839e-03 -1.004150e-03 -9.886960e-05)
158           	(9.353627e-01 9.269888e-01 -4.685076e+02)	(9.339980e-01 9.280078e-01 -4.685075e+02)	(1.364649e-03 -1.019051e-03 -1.015649e-04)
159           	(9.328615e-01 9.231419e-01 -4.685078e+02)	(9.314808e-01 9.241763e-01 -4.685077e+02)	(1.380717e-03 -1.034420e-03 -1.042928e-04)
160           	(9.316979e-01 9.206360e-01 -4.685081e+02)	(9.303001e-01 9.216860e-01 -4.685080e+02)	(1.397772e-03 -1.050038e-03 -1.070612e-04)
161           	(9.319214e-01 9.195649e-01 -4.685084e+02)	(9.305060e-01 9.206305e-01 -4.685083e+02)	(1.415427e-03 -1.065610e-03 -1.099808e-04)
162           	(9.331681e-01 9.196333e-01 -4.685087e+02)	(9.317350e-01 9.207141e-01 -4.685086e+02)	(1.433119e-03 -1.080858e-03 -1.130279e-04)
163           	(9.350202e-01 9.203656e-01 -4.685090e+02)	(9.335696e-01 9.214614e-01 -4.685089e+02)	(1.450610e-03 -1.095716e-03 -1.162632e-04)
164           	(9.370610e-01 9.213435e-01 -4.685093e+02)	(9.355933e-01 9.224537e-01 -4.685092e+02)	(1.467680e-03 -1.110202e-03 -1.196183e-04)
165           	(9.390612e-01 9.223010e-01 -4.685097e+02)	(9.375769e-01 9.234254e-01 -4.685095e+02)	(1.484336e-03 -1.124397e-03 -1.231695e-04)
166           	(9.405818e-01 9.229609e-01 -4.685098e+02)	(9.390817e-01 9.240990e-01 -4.685097e+02)	(1.500060e-03 -1.138041e-03 -1.268120e-04)
167           	(9.419339e-01 9.233642e-01 -4.685100e+02)	(9.404186e-01 9.245157e-01 -4.685098e+02)	(1.515248e-03 -1.151512e-03 -1.306078e-04)
168           	(9.430329e-01 9.234258e-01 -4.685102e+02)	(9.415027e-01 9.245909e-01 -4.685100e+02)	(1.530247e-03 -1.165102e-03 -1.344782e-04)
169           	(9.437656e-01 9.230051e-01 -4.685104e+02)	(9.422203e-01 9.241842e-01 -4.685102e+02)	(1.545320e-03 -1.179048e-03 -1.384856e-04)
170           	(9.440284e-01 9.221396e-01 -4.685105e+02)	(9.424681e-01 9.233328e-01 -4.685103e+02)	(1.560340e-03 -1.193210e-03 -1.425483e-04)
171           	(9.437486e-01 9.207200e-01 -4.685105e+02)	(9.421733e-01 9.219277e-01 -4.685104e+02)	(1.575255e-03 -1.207628e-03 -1.467179e-04)
172           	(9.429440e-01 9.187810e-01 -4.685105e+02)	(9.413539e-01 9.200033e-01 -4.685104e+02)	(1.590067e-03 -1.222259e-03 -1.509216e-04)
173           	(9.415987e-01 9.162820e-01 -4.685104e+02)	(9.399939e-01 9.175191e-01 -4.685102e+02)	(1.604795e-03 -1.237142e-03 -1.552031e-04)
174           	(9.398986e-01 9.134335e-01 -4.685102e+02)	(9.382791e-01 9.146857e-01 -4.685100e+02)	(1.619552e-03 -1.252197e-03 -1.594743e-04)
175           	(9.381105e-01 9.105240e-01 -4.685100e+02)	(9.364762e-01 9.117914e-01 -4.685098e+02)	(1.634339e-03 -1.267376e-03 -1.637534e-04)
176           	(9.364531e-01 9.077846e-01 -4.685098e+02)	(9.348039e-01 9.090671e-01 -4.685096e+02)	(1.649228e-03 -1.282532e-03 -1.679675e-04)
177           	(9.350407e-01 9.053340e-01 -4.685096e+02)	(9.333766e-01 9.066317e-01 -4.685094e+02)	(1.664151e-03 -1.297617e-03 -1.721408e-04)
178           	(9.339349e-01 9.032359e-01 -4.685094e+02)	(9.322558e-01 9.045484e-01 -4.685092e+02)	(1.679116e-03 -1.312505e-03 -1.762144e-04)
179           	(9.331830e-01 9.015408e-01 -4.685093e+02)	(9.314890e-01 9.028680e-01 -4.685091e+02)	(1.694030e-03 -1.327201e-03 -1.802416e-04)
180           	(9.328039e-01 9.002684e-01 -4.685093e+02)	(9.310949e-01 9.016100e-01 -4.685091e+02)	(1.708934e-03 -1.341592e-03 -1.841567e-04)
181           	(9.328094e-01 8.993349e-01 -4.685094e+02)	(9.310854e-01 9.006908e-01 -4.685092e+02)	(1.724017e-03 -1.355926e-03 -1.880141e-04)
182           	(9.331563e-01 8.987976e-01 -4.685096e+02)	(9.314171e-01 9.001676e-01 -4.685094e+02)	(1.739261e-03 -1.370035e-03 -1.917555e-04)
183           	(9.337759e-01 8.985438e-01 -4.685099e+02)	(9.320212e-01 8.999278e-01 -4.685097e+02)	(1.754649e-03 -1.384033e-03 -1.954542e-04)
184           	(9.343980e-01 8.983836e-01 -4.685104e+02)	(9.326280e-01 8.997813e-01 -4.685102e+02)	(1.770055e-03 -1.397741e-03 -1.990620e-04)
185           	(9.359916e-01 8.995643e-01 -4.685125e+02)	(9.342070e-01 9.009749e-01 -4.685123e+02)	(1.784596e-03 -1.410662e-03 -2.026655e-04)
186           	(9.354444e-01 8.984485e-01 -4.685128e+02)	(9.336455e-01 8.998719e-01 -4.685126e+02)	(1.798861e-03 -1.423391e-03 -2.062105e-04)
187           	(9.345069e-01 8.969929e-01 -4.685130e+02)	(9.326940e-01 8.984291e-01 -4.685128e+02)	(1.812873e-03 -1.436216e-03 -2.097301e-04)
188           	(9.330935e-01 8.956460e-01 -4.685162e+02)	(9.312681e-01 8.970940e-01 -4.685160e+02)	(1.825375e-03 -1.448021e-03 -2.131846e-04)
189           	(9.316756e-01 8.937716e-01 -4.685163e+02)	(9.298375e-01 8.952318e-01 -4.685161e+02)	(1.838139e-03 -1.460163e-03 -2.165254e-04)
190           	(9.301794e-01 8.917870e-01 -4.685163e+02)	(9.283280e-01 8.932599e-01 -4.685161e+02)	(1.851385e-03 -1.472833e-03 -2.196985e-04)
191           	(9.287224e-01 8.898042e-01 -4.685164e+02)	(9.268573e-01 8.912902e-01 -4.685162e+02)	(1.865086e-03 -1.485987e-03 -2.226897e-04)
192           	(9.282899e-01 8.890447e-01 -4.685165e+02)	(9.264112e-01 8.905439e-01 -4.685163e+02)	(1.878703e-03 -1.499139e-03 -2.254539e-04)
193           	(9.270258e-01 8.871911e-01 -4.685166e+02)	(9.251329e-01 8.887041e-01 -4.685164e+02)	(1.892892e-03 -1.513071e-03 -2.279915e-04)
194           	(9.259085e-01 8.854748e-01 -4.685168e+02)	(9.240010e-01 8.870025e-01 -4.685166e+02)	(1.907506e-03 -1.527739e-03 -2.302844e-04)
195           	(9.249814e-01 8.839733e-01 -4.685170e+02)	(9.230590e-01 8.855163e-01 -4.685167e+02)	(1.922399e-03 -1.542994e-03 -2.323876e-04)
196           	(9.241431e-01 8.825660e-01 -4.685172e+02)	(9.222055e-01 8.841248e-01 -4.685170e+02)	(1.937539e-03 -1.558770e-03 -2.342953e-04)
197           	(9.234843e-01 8.814142e-01 -4.685175e+02)	(9.215316e-01 8.829891e-01 -4.685172e+02)	(1.952642e-03 -1.574930e-03 -2.360815e-04)
198           	(9.229411e-01 8.804648e-01 -4.685177e+02)	(9.209735e-01 8.820561e-01 -4.685175e+02)	(1.967553e-03 -1.591274e-03 -2.377467e-04)
199           	(9.224558e-01 8.796680e-01 -4.685180e+02)	(9.204738e-01 8.812757e-01 -4.685177e+02)	(1.982058e-03 -1.607688e-03 -2.393481e-04)
200           	(9.219739e-01 8.789647e-01 -4.685182e+02)	(9.199779e-01 8.805887e-01 -4.685179e+02)	(1.996052e-03 -1.624015e-03 -2.408635e-04)
201           	(9.214374e-01 8.782724e-01 -4.685184e+02)	(9.194279e-01 8.799126e-01 -4.685182e+02)	(2.009447e-03 -1.640228e-03 -2.423495e-04)
202           	(9.207730e-01 8.774860e-01 -4.685187e+02)	(9.187508e-01 8.791422e-01 -4.685184e+02)	(2.022219e-03 -1.656171e-03 -2.437499e-04)
203           	(9.206106e-01 8.773997e-01 -4.685187e+02)	(9.185766e-01 8.790709e-01 -4.685185e+02)	(2.034039e-03 -1.671287e-03 -2.451003e-04)
204           	(9.201564e-01 8.769913e-01 -4.685187e+02)	(9.181110e-01 8.786772e-01 -4.685185e+02)	(2.045331e-03 -1.685884e-03 -2.464439e-04)
205           	(9.191529e-01 8.759437e-01 -4.685188e+02)	(9.170967e-01 8.776439e-01 -4.685185e+02)	(2.056192e-03 -1.700214e-03 -2.478414e-04)
206           	(9.178469e-01 8.745192e-01 -4.685187e+02)	(9.157800e-01 8.762336e-01 -4.685185e+02)	(2.066894e-03 -1.714422e-03 -2.493107e-04)
207           	(9.155494e-01 8.718710e-01 -4.685188e+02)	(9.134715e-01 8.736000e-01 -4.685186e+02)	(2.077920e-03 -1.728963e-03 -2.508850e-04)
208           	(9.141262e-01 8.702638e-01 -4.685188e+02)	(9.120375e-01 8.720070e-01 -4.685186e+02)	(2.088670e-03 -1.743172e-03 -2.525505e-04)
209           	(9.126753e-01 8.686153e-01 -4.685189e+02)	(9.105762e-01 8.703724e-01 -4.685186e+02)	(2.099162e-03 -1.757077e-03 -2.543059e-04)
210           	(9.122121e-01 8.680108e-01 -4.685189e+02)	(9.101028e-01 8.697815e-01 -4.685186e+02)	(2.109258e-03 -1.770659e-03 -2.561400e-04)