# Moment      
# CofR        : (0.000000e+00 0.000000e+00 0.000000e+00)
#
# Time        	(total_x total_y total_z)	(pressure_x pressure_y pressure_z)	(viscous_x viscous_y viscous_z)
1             	(-4.777744e-01 5.385307e-01 -3.622544e-02)	(-4.777887e-01 5.378182e-01 -3.626875e-02)	(1.427795e-05 7.124773e-04 4.330686e-05)
2             	(-4.926071e-01 5.495213e-01 -5.463282e-02)	(-4.929199e-01 5.492688e-01 -5.466382e-02)	(3.128735e-04 2.524716e-04 3.099938e-05)
3             	(-3.863831e-01 4.252349e-01 -8.905212e-02)	(-3.869033e-01 4.253147e-01 -8.906722e-02)	(5.202024e-04 -7.984556e-05 1.510558e-05)
4             	(-2.040618e-01 2.179635e-01 -1.415347e-01)	(-2.046594e-01 2.181940e-01 -1.415241e-01)	(5.976126e-04 -2.305355e-04 -1.058142e-05)
5             	(-7.564212e-03 -6.268987e-04 -1.999066e-01)	(-8.119048e-03 -4.141635e-04 -1.998673e-01)	(5.548363e-04 -2.127352e-04 -3.928964e-05)
6             	(1.292362e-01 -1.558296e-01 -2.272157e-01)	(1.288079e-01 -1.557287e-01 -2.271394e-01)	(4.282890e-04 -1.008748e-04 -7.634095e-05)
7             	(1.819646e-01 -2.156571e-01 -2.206828e-01)	(1.817073e-01 -2.157173e-01 -2.205744e-01)	(2.572727e-04 6.014696e-05 -1.084110e-04)
8             	(1.716814e-01 -2.018107e-01 -1.837175e-01)	(1.715833e-01 -2.020278e-01 -1.835911e-01)	(9.817337e-05 2.170760e-04 -1.264484e-04)
9             	(1.216337e-01 -1.437293e-01 -1.255569e-01)	(1.216487e-01 -1.440510e-01 -1.254311e-01)	(-1.497291e-05 3.217085e-04 -1.258366e-04)
10            	(4.792909e-02 -5.789471e-02 -6.899068e-02)	(4.799772e-02 -5.825445e-02 -6.887565e-02)	(-6.863257e-05 3.597442e-04 -1.150278e-04)
11            	(-2.091122e-02 2.318839e-02 -2.881416e-02)	(-2.084295e-02 2.284555e-02 -2.871529e-02)	(-6.827815e-05 3.428413e-04 -9.887333e-05)
12            	(-6.534631e-02 7.517573e-02 -1.980156e-02)	(-6.531645e-02 7.488794e-02 -1.973088e-02)	(-2.985399e-05 2.877833e-04 -7.068087e-05)
13            	(-8.265851e-02 9.575977e-02 -3.109918e-02)	(-8.268544e-02 9.554363e-02 -3.106835e-02)	(2.692835e-05 2.161387e-04 -3.083580e-05)
14            	(-7.974752e-02 9.085317e-02 -5.612004e-02)	(-7.982821e-02 9.070570e-02 -5.613488e-02)	(8.069442e-05 1.474718e-04 1.484542e-05)
15            	(-6.224829e-02 7.032912e-02 -8.680793e-02)	(-6.236563e-02 7.023084e-02 -8.685129e-02)	(1.173401e-04 9.827325e-05 4.335608e-05)
16            	(-3.960629e-02 4.374427e-02 -1.155670e-01)	(-3.973905e-02 4.366931e-02 -1.156154e-01)	(1.327630e-04 7.496154e-05 4.836546e-05)
17            	(-1.809973e-02 1.807893e-02 -1.328465e-01)	(-1.822901e-02 1.800725e-02 -1.328812e-01)	(1.292791e-04 7.168483e-05 3.470385e-05)
18            	(-3.552066e-03 5.796568e-04 -1.365177e-01)	(-3.666895e-03 4.987236e-04 -1.365290e-01)	(1.148284e-04 8.093313e-05 1.135344e-05)
19            	(3.514318e-03 -7.562622e-03 -1.296879e-01)	(3.418004e-03 -7.656864e-03 -1.296741e-01)	(9.631461e-05 9.424217e-05 -1.389130e-05)
20            	(4.261409e-03 -8.003062e-03 -1.165121e-01)	(4.182298e-03 -8.108323e-03 -1.164787e-01)	(7.911036e-05 1.052613e-04 -3.341092e-05)
21            	(4.545246e-04 -4.343215e-03 -1.010363e-01)	(3.892635e-04 -4.452946e-03 -1.009919e-01)	(6.526109e-05 1.097317e-04 -4.446458e-05)
22            	(-5.484539e-03 3.145412e-03 -8.887702e-02)	(-5.540955e-03 3.037345e-03 -8.883012e-02)	(5.641536e-05 1.080670e-04 -4.690065e-05)
23            	(-1.235599e-02 1.128572e-02 -8.058571e-02)	(-1.240786e-02 1.118443e-02 -8.054316e-02)	(5.187040e-05 1.012857e-04 -4.254949e-05)
24            	(-1.883936e-02 1.913117e-02 -7.696732e-02)	(-1.888919e-02 1.903973e-02 -7.693383e-02)	(4.983717e-05 9.143895e-05 -3.348933e-05)
25            	(-2.325441e-02 2.461862e-02 -7.786624e-02)	(-2.330256e-02 2.453792e-02 -7.784644e-02)	(4.815149e-05 8.070482e-05 -1.979896e-05)
26            	(-2.545634e-02 2.708756e-02 -8.179167e-02)	(-2.550138e-02 2.701658e-02 -8.179177e-02)	(4.503963e-05 7.097966e-05 9.894723e-08)
27            	(-2.518372e-02 2.679909e-02 -8.479772e-02)	(-2.522525e-02 2.673590e-02 -8.481088e-02)	(4.152869e-05 6.319357e-05 1.315830e-05)
28            	(-2.443353e-02 2.585269e-02 -8.826629e-02)	(-2.447103e-02 2.579477e-02 -8.828786e-02)	(3.750251e-05 5.792373e-05 2.157298e-05)
29            	(-2.356422e-02 2.488096e-02 -9.190998e-02)	(-2.359752e-02 2.482575e-02 -9.193606e-02)	(3.329982e-05 5.521403e-05 2.607713e-05)
30            	(-2.244213e-02 2.350193e-02 -9.591848e-02)	(-2.247060e-02 2.344801e-02 -9.594758e-02)	(2.847570e-05 5.391775e-05 2.910393e-05)
31            	(-1.998416e-02 2.061480e-02 -9.806795e-02)	(-2.000741e-02 2.056195e-02 -9.809942e-02)	(2.325341e-05 5.285004e-05 3.146597e-05)
32            	(-1.801741e-02 1.828087e-02 -9.862300e-02)	(-1.803590e-02 1.822949e-02 -9.865591e-02)	(1.848589e-05 5.137731e-05 3.290875e-05)
33            	(-1.810424e-02 1.848415e-02 -9.987191e-02)	(-1.811929e-02 1.843457e-02 -9.990574e-02)	(1.505803e-05 4.958035e-05 3.383328e-05)
34            	(-1.829923e-02 1.877268e-02 -1.004226e-01)	(-1.831229e-02 1.872549e-02 -1.004571e-01)	(1.305959e-05 4.718586e-05 3.453789e-05)
35            	(-1.851297e-02 1.903540e-02 -1.002826e-01)	(-1.852525e-02 1.899131e-02 -1.003173e-01)	(1.228665e-05 4.409303e-05 3.466088e-05)
36            	(-1.868693e-02 1.922403e-02 -9.963261e-02)	(-1.869933e-02 1.918345e-02 -9.966707e-02)	(1.240030e-05 4.058406e-05 3.446493e-05)
37            	(-1.881598e-02 1.931951e-02 -9.865127e-02)	(-1.882921e-02 1.928223e-02 -9.868546e-02)	(1.323441e-05 3.727296e-05 3.419158e-05)
38            	(-1.888932e-02 1.931650e-02 -9.747683e-02)	(-1.890399e-02 1.928186e-02 -9.751026e-02)	(1.466537e-05 3.464562e-05 3.343551e-05)
39            	(-1.893189e-02 1.925834e-02 -9.632720e-02)	(-1.894820e-02 1.922552e-02 -9.635935e-02)	(1.630668e-05 3.281634e-05 3.214869e-05)
40            	(-1.914935e-02 1.953084e-02 -9.518074e-02)	(-1.916730e-02 1.949898e-02 -9.521063e-02)	(1.795140e-05 3.185490e-05 2.989322e-05)
41            	(-1.946474e-02 1.975705e-02 -9.450403e-02)	(-1.948382e-02 1.972572e-02 -9.453101e-02)	(1.907715e-05 3.133214e-05 2.698120e-05)
42            	(-1.991006e-02 2.007236e-02 -9.429083e-02)	(-1.992984e-02 2.004129e-02 -9.431381e-02)	(1.977393e-05 3.106329e-05 2.298127e-05)
43            	(-2.050687e-02 2.050504e-02 -9.456595e-02)	(-2.052691e-02 2.047402e-02 -9.458532e-02)	(2.003408e-05 3.102772e-05 1.936813e-05)
44            	(-2.120308e-02 2.105378e-02 -9.532901e-02)	(-2.122300e-02 2.102286e-02 -9.534483e-02)	(1.992334e-05 3.091977e-05 1.582264e-05)
45            	(-2.191091e-02 2.162242e-02 -9.626222e-02)	(-2.193057e-02 2.159172e-02 -9.627451e-02)	(1.965906e-05 3.070083e-05 1.228736e-05)
46            	(-2.253999e-02 2.212743e-02 -9.711460e-02)	(-2.255938e-02 2.209705e-02 -9.712359e-02)	(1.938995e-05 3.038107e-05 8.980438e-06)
47            	(-2.306032e-02 2.250375e-02 -9.767090e-02)	(-2.307937e-02 2.247394e-02 -9.767701e-02)	(1.904113e-05 2.981124e-05 6.108341e-06)
48            	(-2.349111e-02 2.275058e-02 -9.791751e-02)	(-2.350934e-02 2.272191e-02 -9.792150e-02)	(1.822944e-05 2.866875e-05 3.991721e-06)
49            	(-2.383401e-02 2.260869e-02 -9.786746e-02)	(-2.385069e-02 2.258196e-02 -9.787046e-02)	(1.667910e-05 2.673164e-05 3.002131e-06)
50            	(-2.413684e-02 2.242521e-02 -9.753285e-02)	(-2.415133e-02 2.240108e-02 -9.753610e-02)	(1.449886e-05 2.413129e-05 3.245793e-06)
51            	(-2.437402e-02 2.224773e-02 -9.693972e-02)	(-2.438601e-02 2.222646e-02 -9.694431e-02)	(1.199412e-05 2.127306e-05 4.587892e-06)
52            	(-2.455611e-02 2.223047e-02 -9.626370e-02)	(-2.456559e-02 2.221198e-02 -9.627035e-02)	(9.478262e-06 1.849406e-05 6.656042e-06)
53            	(-2.467749e-02 2.216866e-02 -9.544597e-02)	(-2.468453e-02 2.215277e-02 -9.545514e-02)	(7.045483e-06 1.589458e-05 9.170879e-06)
54            	(-2.479473e-02 2.211906e-02 -9.470790e-02)	(-2.479949e-02 2.210555e-02 -9.471949e-02)	(4.758710e-06 1.350952e-05 1.159500e-05)
55            	(-2.491051e-02 2.206931e-02 -9.414570e-02)	(-2.491305e-02 2.205810e-02 -9.415926e-02)	(2.542286e-06 1.120762e-05 1.355963e-05)
56            	(-2.499040e-02 2.197943e-02 -9.377964e-02)	(-2.499077e-02 2.197052e-02 -9.379464e-02)	(3.708319e-07 8.904636e-06 1.500276e-05)
57            	(-2.506540e-02 2.179566e-02 -9.365226e-02)	(-2.506354e-02 2.178918e-02 -9.366834e-02)	(-1.857462e-06 6.489784e-06 1.607328e-05)
58            	(-2.509528e-02 2.156976e-02 -9.361061e-02)	(-2.509115e-02 2.156575e-02 -9.362775e-02)	(-4.138372e-06 4.007368e-06 1.714123e-05)
59            	(-2.510829e-02 2.139543e-02 -9.359400e-02)	(-2.510181e-02 2.139395e-02 -9.361249e-02)	(-6.476925e-06 1.488013e-06 1.849798e-05)
60            	(-2.513645e-02 2.138459e-02 -9.358911e-02)	(-2.512774e-02 2.138548e-02 -9.360915e-02)	(-8.709488e-06 -8.980269e-07 2.004808e-05)
61            	(-2.515707e-02 2.137772e-02 -9.362739e-02)	(-2.514634e-02 2.138077e-02 -9.364914e-02)	(-1.072958e-05 -3.052973e-06 2.175047e-05)
62            	(-2.517232e-02 2.137880e-02 -9.367826e-02)	(-2.515978e-02 2.138378e-02 -9.370194e-02)	(-1.254040e-05 -4.985903e-06 2.367562e-05)
63            	(-2.522441e-02 2.142008e-02 -9.376675e-02)	(-2.521026e-02 2.142678e-02 -9.379255e-02)	(-1.414292e-05 -6.692576e-06 2.579337e-05)
64            	(-2.529370e-02 2.149581e-02 -9.386881e-02)	(-2.527822e-02 2.150394e-02 -9.389688e-02)	(-1.548646e-05 -8.125612e-06 2.807243e-05)
65            	(-2.537766e-02 2.160246e-02 -9.398316e-02)	(-2.536114e-02 2.161172e-02 -9.401356e-02)	(-1.652696e-05 -9.258982e-06 3.040096e-05)
66            	(-2.547021e-02 2.173516e-02 -9.408022e-02)	(-2.545284e-02 2.174538e-02 -9.411287e-02)	(-1.737117e-05 -1.021311e-05 3.265343e-05)
67            	(-2.563884e-02 2.210358e-02 -9.413045e-02)	(-2.562082e-02 2.211453e-02 -9.416526e-02)	(-1.802009e-05 -1.094720e-05 3.480599e-05)
68            	(-2.582595e-02 2.249604e-02 -9.415879e-02)	(-2.580731e-02 2.250771e-02 -9.419540e-02)	(-1.864645e-05 -1.166816e-05 3.660454e-05)
69            	(-2.601552e-02 2.286507e-02 -9.415371e-02)	(-2.599634e-02 2.287738e-02 -9.419178e-02)	(-1.917221e-05 -1.231418e-05 3.807157e-05)
70            	(-2.612980e-02 2.298521e-02 -9.415149e-02)	(-2.611016e-02 2.299817e-02 -9.419069e-02)	(-1.964193e-05 -1.296113e-05 3.919492e-05)
71            	(-2.623299e-02 2.309623e-02 -9.408540e-02)	(-2.621294e-02 2.310982e-02 -9.412549e-02)	(-2.005546e-05 -1.359714e-05 4.009879e-05)
72            	(-2.638282e-02 2.341307e-02 -9.387676e-02)	(-2.636246e-02 2.342719e-02 -9.391758e-02)	(-2.036392e-05 -1.412299e-05 4.081702e-05)
73            	(-2.649108e-02 2.366737e-02 -9.360584e-02)	(-2.647047e-02 2.368194e-02 -9.364718e-02)	(-2.060602e-05 -1.456999e-05 4.133958e-05)
74            	(-2.651439e-02 2.372712e-02 -9.335550e-02)	(-2.649356e-02 2.374212e-02 -9.339719e-02)	(-2.083224e-05 -1.499792e-05 4.169239e-05)
75            	(-2.650620e-02 2.377683e-02 -9.306190e-02)	(-2.648518e-02 2.379218e-02 -9.310386e-02)	(-2.101813e-05 -1.535732e-05 4.196642e-05)
76            	(-2.647291e-02 2.382421e-02 -9.274919e-02)	(-2.645178e-02 2.383980e-02 -9.279129e-02)	(-2.112767e-05 -1.558774e-05 4.210850e-05)
77            	(-2.642478e-02 2.387794e-02 -9.244527e-02)	(-2.640363e-02 2.389360e-02 -9.248740e-02)	(-2.115134e-05 -1.566508e-05 4.212181e-05)
78            	(-2.636504e-02 2.393395e-02 -9.216843e-02)	(-2.634394e-02 2.394956e-02 -9.221042e-02)	(-2.110063e-05 -1.560121e-05 4.199024e-05)
79            	(-2.630711e-02 2.406023e-02 -9.190334e-02)	(-2.628619e-02 2.407557e-02 -9.194510e-02)	(-2.092551e-05 -1.533466e-05 4.176482e-05)
80            	(-2.625569e-02 2.416525e-02 -9.168440e-02)	(-2.623506e-02 2.418012e-02 -9.172582e-02)	(-2.062402e-05 -1.487155e-05 4.142020e-05)
81            	(-2.620773e-02 2.420807e-02 -9.153229e-02)	(-2.618749e-02 2.422235e-02 -9.157334e-02)	(-2.023794e-05 -1.427986e-05 4.104297e-05)
82            	(-2.617085e-02 2.425084e-02 -9.140201e-02)	(-2.615106e-02 2.426445e-02 -9.144267e-02)	(-1.979227e-05 -1.360313e-05 4.065619e-05)
83            	(-2.615602e-02 2.432765e-02 -9.126959e-02)	(-2.613673e-02 2.434052e-02 -9.130986e-02)	(-1.929580e-05 -1.286713e-05 4.027089e-05)
84            	(-2.615037e-02 2.440934e-02 -9.113144e-02)	(-2.613160e-02 2.442145e-02 -9.117135e-02)	(-1.876505e-05 -1.210957e-05 3.991221e-05)
85            	(-2.615117e-02 2.449757e-02 -9.097908e-02)	(-2.613297e-02 2.450892e-02 -9.101870e-02)	(-1.819753e-05 -1.134130e-05 3.961766e-05)
86            	(-2.615474e-02 2.459305e-02 -9.081297e-02)	(-2.613715e-02 2.460361e-02 -9.085232e-02)	(-1.758147e-05 -1.055847e-05 3.934765e-05)
87            	(-2.615635e-02 2.469757e-02 -9.062004e-02)	(-2.613944e-02 2.470732e-02 -9.065910e-02)	(-1.690641e-05 -9.754045e-06 3.906003e-05)
88            	(-2.615312e-02 2.481031e-02 -9.040453e-02)	(-2.613694e-02 2.481924e-02 -9.044324e-02)	(-1.617441e-05 -8.929149e-06 3.871427e-05)
89            	(-2.614178e-02 2.493078e-02 -9.016128e-02)	(-2.612643e-02 2.493884e-02 -9.019954e-02)	(-1.535742e-05 -8.052191e-06 3.825608e-05)
90            	(-2.612069e-02 2.505433e-02 -8.989644e-02)	(-2.610622e-02 2.506147e-02 -8.993413e-02)	(-1.447249e-05 -7.135575e-06 3.769006e-05)
91            	(-2.608905e-02 2.517732e-02 -8.961447e-02)	(-2.607552e-02 2.518351e-02 -8.965153e-02)	(-1.353267e-05 -6.189035e-06 3.706452e-05)
92            	(-2.604841e-02 2.529275e-02 -8.932849e-02)	(-2.603586e-02 2.529796e-02 -8.936490e-02)	(-1.254364e-05 -5.212733e-06 3.641461e-05)
93            	(-2.599599e-02 2.539664e-02 -8.902929e-02)	(-2.598449e-02 2.540084e-02 -8.906503e-02)	(-1.150478e-05 -4.198694e-06 3.573538e-05)
94            	(-2.593371e-02 2.548388e-02 -8.872487e-02)	(-2.592329e-02 2.548703e-02 -8.875994e-02)	(-1.042244e-05 -3.143793e-06 3.506877e-05)
95            	(-2.586498e-02 2.555247e-02 -8.842397e-02)	(-2.585567e-02 2.555453e-02 -8.845840e-02)	(-9.317131e-06 -2.062295e-06 3.443368e-05)
96            	(-2.579342e-02 2.560432e-02 -8.813039e-02)	(-2.578522e-02 2.560529e-02 -8.816424e-02)	(-8.204121e-06 -9.650834e-07 3.385173e-05)
97            	(-2.571573e-02 2.560347e-02 -8.784159e-02)	(-2.570860e-02 2.560336e-02 -8.787492e-02)	(-7.124401e-06 1.030429e-07 3.333634e-05)
98            	(-2.563819e-02 2.560050e-02 -8.754592e-02)	(-2.563208e-02 2.559939e-02 -8.757884e-02)	(-6.110580e-06 1.116440e-06 3.291241e-05)
99            	(-2.555944e-02 2.563622e-02 -8.724512e-02)	(-2.555428e-02 2.563414e-02 -8.727772e-02)	(-5.161610e-06 2.084326e-06 3.259522e-05)
100           	(-2.548560e-02 2.563303e-02 -8.691391e-02)	(-2.548130e-02 2.563005e-02 -8.694626e-02)	(-4.299349e-06 2.984231e-06 3.235114e-05)
101           	(-2.541108e-02 2.563324e-02 -8.655384e-02)	(-2.540756e-02 2.562942e-02 -8.658602e-02)	(-3.518339e-06 3.814870e-06 3.217800e-05)
102           	(-2.533528e-02 2.563862e-02 -8.616137e-02)	(-2.533249e-02 2.563401e-02 -8.619340e-02)	(-2.783053e-06 4.607493e-06 3.202928e-05)
103           	(-2.526328e-02 2.569004e-02 -8.576174e-02)	(-2.526120e-02 2.568466e-02 -8.579364e-02)	(-2.078974e-06 5.375052e-06 3.189973e-05)
104           	(-2.519689e-02 2.574286e-02 -8.533546e-02)	(-2.519549e-02 2.573674e-02 -8.536722e-02)	(-1.397703e-06 6.122642e-06 3.175863e-05)
105           	(-2.513836e-02 2.579472e-02 -8.488667e-02)	(-2.513762e-02 2.578787e-02 -8.491826e-02)	(-7.411576e-07 6.843521e-06 3.159838e-05)
106           	(-2.508895e-02 2.580746e-02 -8.441866e-02)	(-2.508882e-02 2.579995e-02 -8.445007e-02)	(-1.289808e-07 7.509879e-06 3.140606e-05)
107           	(-2.504012e-02 2.582292e-02 -8.392814e-02)	(-2.504057e-02 2.581479e-02 -8.395933e-02)	(4.499989e-07 8.131312e-06 3.118902e-05)
108           	(-2.498929e-02 2.584193e-02 -8.341428e-02)	(-2.499029e-02 2.583322e-02 -8.344522e-02)	(9.990395e-07 8.714140e-06 3.093341e-05)
109           	(-2.493538e-02 2.586573e-02 -8.287586e-02)	(-2.493690e-02 2.585646e-02 -8.290650e-02)	(1.528410e-06 9.268027e-06 3.064296e-05)
110           	(-2.488224e-02 2.596607e-02 -8.229779e-02)	(-2.488429e-02 2.595625e-02 -8.232811e-02)	(2.052041e-06 9.816858e-06 3.032784e-05)
111           	(-2.483683e-02 2.607072e-02 -8.169100e-02)	(-2.483940e-02 2.606035e-02 -8.172099e-02)	(2.576581e-06 1.036265e-05 2.999037e-05)
112           	(-2.481381e-02 2.619005e-02 -8.110366e-02)	(-2.481690e-02 2.617916e-02 -8.113328e-02)	(3.088609e-06 1.088710e-05 2.962123e-05)
113           	(-2.481284e-02 2.631333e-02 -8.055856e-02)	(-2.481643e-02 2.630194e-02 -8.058776e-02)	(3.593309e-06 1.139012e-05 2.919226e-05)
114           	(-2.482707e-02 2.642848e-02 -8.006872e-02)	(-2.483115e-02 2.641662e-02 -8.009740e-02)	(4.081653e-06 1.185839e-05 2.868139e-05)
115           	(-2.481769e-02 2.644546e-02 -7.966178e-02)	(-2.482224e-02 2.643319e-02 -7.968986e-02)	(4.550255e-06 1.226686e-05 2.807879e-05)
116           	(-2.482902e-02 2.655241e-02 -7.920405e-02)	(-2.483403e-02 2.653976e-02 -7.923149e-02)	(5.010608e-06 1.264763e-05 2.744264e-05)
117           	(-2.480952e-02 2.656483e-02 -7.879149e-02)	(-2.481499e-02 2.655184e-02 -7.881822e-02)	(5.464119e-06 1.298848e-05 2.672668e-05)
118           	(-2.478730e-02 2.667864e-02 -7.823911e-02)	(-2.479320e-02 2.666533e-02 -7.826514e-02)	(5.905676e-06 1.330906e-05 2.602968e-05)
119           	(-2.475256e-02 2.678408e-02 -7.765151e-02)	(-2.475889e-02 2.677048e-02 -7.767687e-02)	(6.333904e-06 1.360484e-05 2.535542e-05)
120           	(-2.473765e-02 2.692138e-02 -7.710848e-02)	(-2.474439e-02 2.690749e-02 -7.713313e-02)	(6.744929e-06 1.388662e-05 2.465259e-05)
121           	(-2.471866e-02 2.704476e-02 -7.654258e-02)	(-2.472580e-02 2.703061e-02 -7.656655e-02)	(7.141200e-06 1.414981e-05 2.397190e-05)
122           	(-2.469738e-02 2.706218e-02 -7.601571e-02)	(-2.470486e-02 2.704784e-02 -7.603898e-02)	(7.478013e-06 1.434208e-05 2.326411e-05)
123           	(-2.467138e-02 2.708084e-02 -7.549505e-02)	(-2.467915e-02 2.706636e-02 -7.551765e-02)	(7.772156e-06 1.447651e-05 2.259726e-05)
124           	(-2.461279e-02 2.712111e-02 -7.488975e-02)	(-2.462081e-02 2.710654e-02 -7.491173e-02)	(8.023385e-06 1.456838e-05 2.198800e-05)
125           	(-2.456684e-02 2.723504e-02 -7.432575e-02)	(-2.457507e-02 2.722040e-02 -7.434720e-02)	(8.234329e-06 1.463699e-05 2.144317e-05)
126           	(-2.451416e-02 2.728229e-02 -7.375481e-02)	(-2.452253e-02 2.726765e-02 -7.377575e-02)	(8.367935e-06 1.463671e-05 2.094166e-05)
127           	(-2.446291e-02 2.733522e-02 -7.319645e-02)	(-2.447137e-02 2.732063e-02 -7.321696e-02)	(8.458815e-06 1.459527e-05 2.051271e-05)
128           	(-2.441224e-02 2.739393e-02 -7.264974e-02)	(-2.442076e-02 2.737940e-02 -7.266986e-02)	(8.516521e-06 1.452747e-05 2.012396e-05)
129           	(-2.436157e-02 2.745804e-02 -7.211209e-02)	(-2.437013e-02 2.744358e-02 -7.213187e-02)	(8.558669e-06 1.445069e-05 1.977447e-05)
130           	(-2.431067e-02 2.752676e-02 -7.158286e-02)	(-2.431927e-02 2.751238e-02 -7.160232e-02)	(8.593700e-06 1.437387e-05 1.946606e-05)
131           	(-2.425967e-02 2.759912e-02 -7.106207e-02)	(-2.426829e-02 2.758482e-02 -7.108125e-02)	(8.626384e-06 1.430263e-05 1.917725e-05)
132           	(-2.420824e-02 2.767404e-02 -7.054809e-02)	(-2.421690e-02 2.765980e-02 -7.056700e-02)	(8.657990e-06 1.423831e-05 1.891270e-05)
133           	(-2.418530e-02 2.771667e-02 -7.011628e-02)	(-2.419396e-02 2.770252e-02 -7.013490e-02)	(8.662138e-06 1.415090e-05 1.862413e-05)
134           	(-2.414832e-02 2.775986e-02 -6.965673e-02)	(-2.415697e-02 2.774581e-02 -6.967506e-02)	(8.647051e-06 1.404670e-05 1.833689e-05)
135           	(-2.408403e-02 2.790383e-02 -6.915270e-02)	(-2.409269e-02 2.788984e-02 -6.917076e-02)	(8.656107e-06 1.398739e-05 1.806287e-05)
136           	(-2.400291e-02 2.797091e-02 -6.857671e-02)	(-2.401156e-02 2.795698e-02 -6.859452e-02)	(8.656101e-06 1.392860e-05 1.781020e-05)
137           	(-2.393057e-02 2.803504e-02 -6.802139e-02)	(-2.393923e-02 2.802117e-02 -6.803896e-02)	(8.652893e-06 1.386876e-05 1.757264e-05)
138           	(-2.386708e-02 2.810385e-02 -6.750645e-02)	(-2.387573e-02 2.809003e-02 -6.752377e-02)	(8.651962e-06 1.381438e-05 1.732642e-05)
139           	(-2.381434e-02 2.816596e-02 -6.700097e-02)	(-2.382298e-02 2.815220e-02 -6.701803e-02)	(8.640712e-06 1.375216e-05 1.705708e-05)
140           	(-2.379628e-02 2.819715e-02 -6.661136e-02)	(-2.380487e-02 2.818350e-02 -6.662811e-02)	(8.595090e-06 1.364922e-05 1.675710e-05)
141           	(-2.373503e-02 2.825988e-02 -6.611703e-02)	(-2.374358e-02 2.824634e-02 -6.613349e-02)	(8.543837e-06 1.353707e-05 1.646140e-05)
142           	(-2.367144e-02 2.831886e-02 -6.564790e-02)	(-2.367994e-02 2.830543e-02 -6.566409e-02)	(8.502932e-06 1.343060e-05 1.619192e-05)
143           	(-2.360530e-02 2.837176e-02 -6.520738e-02)	(-2.361376e-02 2.835844e-02 -6.522328e-02)	(8.454863e-06 1.331708e-05 1.590649e-05)
144           	(-2.353582e-02 2.841826e-02 -6.479392e-02)	(-2.354423e-02 2.840505e-02 -6.480954e-02)	(8.412760e-06 1.320916e-05 1.561168e-05)
145           	(-2.346428e-02 2.845948e-02 -6.442266e-02)	(-2.347265e-02 2.844638e-02 -6.443796e-02)	(8.371020e-06 1.309955e-05 1.530046e-05)
146           	(-2.337958e-02 2.849848e-02 -6.404799e-02)	(-2.338793e-02 2.848547e-02 -6.406299e-02)	(8.356998e-06 1.301178e-05 1.500203e-05)
147           	(-2.329355e-02 2.856688e-02 -6.368764e-02)	(-2.330193e-02 2.855392e-02 -6.370234e-02)	(8.376466e-06 1.295540e-05 1.469546e-05)
148           	(-2.323067e-02 2.863038e-02 -6.333136e-02)	(-2.323909e-02 2.861746e-02 -6.334575e-02)	(8.426333e-06 1.292227e-05 1.438915e-05)
149           	(-2.304752e-02 2.838224e-02 -6.303052e-02)	(-2.305595e-02 2.836944e-02 -6.304454e-02)	(8.435596e-06 1.279136e-05 1.402834e-05)
150           	(-2.292305e-02 2.837171e-02 -6.270199e-02)	(-2.293156e-02 2.835899e-02 -6.271568e-02)	(8.514997e-06 1.271972e-05 1.369177e-05)
151           	(-2.276455e-02 2.834832e-02 -6.241188e-02)	(-2.277319e-02 2.833563e-02 -6.242513e-02)	(8.635119e-06 1.269758e-05 1.324303e-05)
152           	(-2.260319e-02 2.831304e-02 -6.214465e-02)	(-2.261199e-02 2.830032e-02 -6.215746e-02)	(8.800128e-06 1.271798e-05 1.280907e-05)
153           	(-2.244380e-02 2.826989e-02 -6.188268e-02)	(-2.245278e-02 2.825713e-02 -6.189504e-02)	(8.982885e-06 1.275646e-05 1.235814e-05)
154           	(-2.225786e-02 2.802038e-02 -6.156853e-02)	(-2.226699e-02 2.800766e-02 -6.158051e-02)	(9.131643e-06 1.272090e-05 1.197357e-05)
155           	(-2.210600e-02 2.798094e-02 -6.132064e-02)	(-2.211530e-02 2.796823e-02 -6.133225e-02)	(9.299426e-06 1.271282e-05 1.160702e-05)
156           	(-2.195761e-02 2.794304e-02 -6.103367e-02)	(-2.196709e-02 2.793031e-02 -6.104494e-02)	(9.475274e-06 1.272765e-05 1.127693e-05)
157           	(-2.181550e-02 2.790911e-02 -6.069259e-02)	(-2.182514e-02 2.789637e-02 -6.070362e-02)	(9.638530e-06 1.273880e-05 1.103145e-05)
158           	(-2.168431e-02 2.788339e-02 -6.029522e-02)	(-2.169410e-02 2.787065e-02 -6.030612e-02)	(9.791261e-06 1.274721e-05 1.089117e-05)
159           	(-2.154444e-02 2.787207e-02 -5.990808e-02)	(-2.155437e-02 2.785932e-02 -5.991892e-02)	(9.927965e-06 1.275026e-05 1.083504e-05)
160           	(-2.144069e-02 2.788853e-02 -5.948834e-02)	(-2.145074e-02 2.787578e-02 -5.949920e-02)	(1.004323e-05 1.274539e-05 1.086023e-05)
161           	(-2.137838e-02 2.793088e-02 -5.906860e-02)	(-2.138849e-02 2.791817e-02 -5.907953e-02)	(1.011542e-05 1.270966e-05 1.092734e-05)
162           	(-2.135359e-02 2.798725e-02 -5.865855e-02)	(-2.136374e-02 2.797461e-02 -5.866956e-02)	(1.014545e-05 1.264182e-05 1.100779e-05)
163           	(-2.135089e-02 2.805180e-02 -5.830807e-02)	(-2.136101e-02 2.803927e-02 -5.831914e-02)	(1.012362e-05 1.252804e-05 1.107618e-05)
164           	(-2.135865e-02 2.811620e-02 -5.801400e-02)	(-2.136872e-02 2.810382e-02 -5.802513e-02)	(1.006370e-05 1.237900e-05 1.113366e-05)
165           	(-2.136732e-02 2.817821e-02 -5.777783e-02)	(-2.137728e-02 2.816602e-02 -5.778900e-02)	(9.960052e-06 1.218716e-05 1.116769e-05)
166           	(-2.137936e-02 2.821824e-02 -5.758499e-02)	(-2.138918e-02 2.820628e-02 -5.759618e-02)	(9.822556e-06 1.195880e-05 1.119259e-05)
167           	(-2.137884e-02 2.826069e-02 -5.743161e-02)	(-2.138849e-02 2.824899e-02 -5.744282e-02)	(9.652934e-06 1.169528e-05 1.121321e-05)
168           	(-2.136403e-02 2.830324e-02 -5.730704e-02)	(-2.137350e-02 2.829182e-02 -5.731828e-02)	(9.472304e-06 1.142115e-05 1.123727e-05)
169           	(-2.133043e-02 2.834432e-02 -5.718706e-02)	(-2.133971e-02 2.833319e-02 -5.719833e-02)	(9.276749e-06 1.113243e-05 1.126696e-05)
170           	(-2.128712e-02 2.837329e-02 -5.710589e-02)	(-2.129619e-02 2.836245e-02 -5.711719e-02)	(9.076576e-06 1.084216e-05 1.130080e-05)
171           	(-2.123016e-02 2.838972e-02 -5.702648e-02)	(-2.123902e-02 2.837918e-02 -5.703784e-02)	(8.866049e-06 1.054169e-05 1.135744e-05)
172           	(-2.116157e-02 2.839285e-02 -5.693840e-02)	(-2.117023e-02 2.838260e-02 -5.694983e-02)	(8.660375e-06 1.024826e-05 1.142717e-05)
173           	(-2.107906e-02 2.838364e-02 -5.682074e-02)	(-2.108751e-02 2.837368e-02 -5.683227e-02)	(8.452345e-06 9.952456e-06 1.152817e-05)
174           	(-2.098848e-02 2.836568e-02 -5.667519e-02)	(-2.099673e-02 2.835601e-02 -5.668683e-02)	(8.255956e-06 9.673039e-06 1.163690e-05)
175           	(-2.089736e-02 2.834471e-02 -5.650939e-02)	(-2.090543e-02 2.833531e-02 -5.652115e-02)	(8.069689e-06 9.407836e-06 1.175790e-05)
176           	(-2.081179e-02 2.832538e-02 -5.633328e-02)	(-2.081969e-02 2.831621e-02 -5.634514e-02)	(7.906487e-06 9.175423e-06 1.186126e-05)
177           	(-2.073480e-02 2.831019e-02 -5.615302e-02)	(-2.074256e-02 2.830121e-02 -5.616498e-02)	(7.763455e-06 8.971373e-06 1.196141e-05)
178           	(-2.066804e-02 2.830049e-02 -5.597511e-02)	(-2.067569e-02 2.829168e-02 -5.598715e-02)	(7.652212e-06 8.811074e-06 1.204405e-05)
179           	(-2.061285e-02 2.829727e-02 -5.580804e-02)	(-2.062041e-02 2.828858e-02 -5.582017e-02)	(7.569006e-06 8.687420e-06 1.213843e-05)
180           	(-2.056954e-02 2.830115e-02 -5.565984e-02)	(-2.057707e-02 2.829254e-02 -5.567208e-02)	(7.524001e-06 8.614417e-06 1.223391e-05)
181           	(-2.053029e-02 2.831828e-02 -5.552017e-02)	(-2.053780e-02 2.830969e-02 -5.553253e-02)	(7.511729e-06 8.583051e-06 1.235975e-05)
182           	(-2.050308e-02 2.834098e-02 -5.541030e-02)	(-2.051061e-02 2.833238e-02 -5.542279e-02)	(7.534035e-06 8.599206e-06 1.249845e-05)
183           	(-2.048276e-02 2.837009e-02 -5.533998e-02)	(-2.049033e-02 2.836145e-02 -5.535266e-02)	(7.577692e-06 8.644483e-06 1.267817e-05)
184           	(-2.046902e-02 2.839491e-02 -5.529478e-02)	(-2.047666e-02 2.838619e-02 -5.530767e-02)	(7.640130e-06 8.718721e-06 1.288111e-05)
185           	(-2.050923e-02 2.842094e-02 -5.542366e-02)	(-2.051692e-02 2.841216e-02 -5.543677e-02)	(7.696469e-06 8.787485e-06 1.310468e-05)
186           	(-2.047921e-02 2.841132e-02 -5.537552e-02)	(-2.048696e-02 2.840246e-02 -5.538889e-02)	(7.755881e-06 8.860490e-06 1.337034e-05)
187           	(-2.044179e-02 2.839169e-02 -5.532067e-02)	(-2.044961e-02 2.838275e-02 -5.533439e-02)	(7.821708e-06 8.934837e-06 1.372442e-05)
188           	(-2.043682e-02 2.833076e-02 -5.540923e-02)	(-2.044469e-02 2.832177e-02 -5.542330e-02)	(7.875094e-06 8.988871e-06 1.406986e-05)
189           	(-2.038806e-02 2.830102e-02 -5.532571e-02)	(-2.039600e-02 2.829197e-02 -5.534016e-02)	(7.940324e-06 9.050215e-06 1.445158e-05)
190           	(-2.033446e-02 2.827164e-02 -5.522969e-02)	(-2.034249e-02 2.826250e-02 -5.524454e-02)	(8.033748e-06 9.137496e-06 1.485262e-05)
191           	(-2.027917e-02 2.824492e-02 -5.512466e-02)	(-2.028733e-02 2.823568e-02 -5.513991e-02)	(8.152386e-06 9.244718e-06 1.525609e-05)
192           	(-2.026702e-02 2.822869e-02 -5.513878e-02)	(-2.027531e-02 2.821932e-02 -5.515440e-02)	(8.292120e-06 9.366963e-06 1.562411e-05)
193           	(-2.021246e-02 2.820891e-02 -5.501252e-02)	(-2.022093e-02 2.819940e-02 -5.502850e-02)	(8.466175e-06 9.510664e-06 1.598076e-05)
194           	(-2.016121e-02 2.819260e-02 -5.488359e-02)	(-2.016989e-02 2.818291e-02 -5.489992e-02)	(8.681675e-06 9.683762e-06 1.633109e-05)
195           	(-2.011686e-02 2.817904e-02 -5.476494e-02)	(-2.012579e-02 2.816916e-02 -5.478160e-02)	(8.929200e-06 9.874928e-06 1.666125e-05)
196           	(-2.007491e-02 2.816743e-02 -5.465313e-02)	(-2.008412e-02 2.815734e-02 -5.467009e-02)	(9.211415e-06 1.008871e-05 1.696027e-05)
197           	(-2.004348e-02 2.815567e-02 -5.457171e-02)	(-2.005300e-02 2.814536e-02 -5.458896e-02)	(9.517818e-06 1.031059e-05 1.724439e-05)
198           	(-2.002157e-02 2.814198e-02 -5.452418e-02)	(-2.003142e-02 2.813144e-02 -5.454167e-02)	(9.848480e-06 1.054254e-05 1.749173e-05)
199           	(-2.000773e-02 2.812525e-02 -5.451068e-02)	(-2.001792e-02 2.811447e-02 -5.452839e-02)	(1.019513e-05 1.077254e-05 1.771193e-05)
200           	(-1.999960e-02 2.810513e-02 -5.452631e-02)	(-2.001016e-02 2.809412e-02 -5.454421e-02)	(1.056478e-05 1.100975e-05 1.789667e-05)
201           	(-1.999385e-02 2.808160e-02 -5.456549e-02)	(-2.000481e-02 2.807035e-02 -5.458354e-02)	(1.095513e-05 1.124828e-05 1.805061e-05)
202           	(-1.998636e-02 2.805455e-02 -5.462021e-02)	(-1.999772e-02 2.804307e-02 -5.463837e-02)	(1.136338e-05 1.148692e-05 1.816324e-05)
203           	(-2.000589e-02 2.802918e-02 -5.479640e-02)	(-2.001766e-02 2.801747e-02 -5.481467e-02)	(1.176969e-05 1.171268e-05 1.827804e-05)
204           	(-2.001477e-02 2.799985e-02 -5.495473e-02)	(-2.002697e-02 2.798789e-02 -5.497310e-02)	(1.220175e-05 1.195719e-05 1.837395e-05)
205           	(-2.000248e-02 2.796334e-02 -5.506455e-02)	(-2.001514e-02 2.795113e-02 -5.508303e-02)	(1.265954e-05 1.221541e-05 1.847745e-05)
206           	(-1.997609e-02 2.792475e-02 -5.513473e-02)	(-1.998924e-02 2.791224e-02 -5.515328e-02)	(1.315727e-05 1.250654e-05 1.855504e-05)
207           	(-1.990485e-02 2.787812e-02 -5.508022e-02)	(-1.991855e-02 2.786529e-02 -5.509883e-02)	(1.369571e-05 1.283150e-05 1.860414e-05)
208           	(-1.987056e-02 2.784021e-02 -5.513116e-02)	(-1.988483e-02 2.782702e-02 -5.514974e-02)	(1.426532e-05 1.318642e-05 1.858845e-05)
209           	(-1.983478e-02 2.780209e-02 -5.518892e-02)	(-1.984963e-02 2.778854e-02 -5.520742e-02)	(1.485001e-05 1.355521e-05 1.849418e-05)