# Moment      
# CofR        : (0.000000e+00 0.000000e+00 0.000000e+00)
#
# Time        	(total_x total_y total_z)	(pressure_x pressure_y pressure_z)	(viscous_x viscous_y viscous_z)
1             	(-4.778577e-01 5.383869e-01 -3.518717e-02)	(-4.778720e-01 5.376744e-01 -3.523061e-02)	(1.425524e-05 7.124658e-04 4.343659e-05)
2             	(-4.926880e-01 5.496005e-01 -5.251593e-02)	(-4.930008e-01 5.493481e-01 -5.254683e-02)	(3.128234e-04 2.524205e-04 3.090178e-05)
3             	(-3.855768e-01 4.249368e-01 -8.998522e-02)	(-3.860970e-01 4.250166e-01 -8.999981e-02)	(5.201693e-04 -7.973932e-05 1.458881e-05)
4             	(-2.029423e-01 2.173790e-01 -1.461923e-01)	(-2.035399e-01 2.176091e-01 -1.461817e-01)	(5.975568e-04 -2.301096e-04 -1.064485e-05)
5             	(-6.812102e-03 -1.443377e-03 -2.036265e-01)	(-7.366409e-03 -1.230350e-03 -2.035869e-01)	(5.543070e-04 -2.130271e-04 -3.959592e-05)
6             	(1.288754e-01 -1.557434e-01 -2.300748e-01)	(1.284480e-01 -1.556415e-01 -2.299982e-01)	(4.274310e-04 -1.019237e-04 -7.650583e-05)
7             	(1.813928e-01 -2.152286e-01 -2.217573e-01)	(1.811363e-01 -2.152872e-01 -2.216479e-01)	(2.565133e-04 5.855166e-05 -1.094176e-04)
8             	(1.705757e-01 -2.013155e-01 -1.831676e-01)	(1.704781e-01 -2.015307e-01 -1.830395e-01)	(9.753358e-05 2.151993e-04 -1.281377e-04)
9             	(1.206093e-01 -1.436709e-01 -1.238105e-01)	(1.206250e-01 -1.439909e-01 -1.236830e-01)	(-1.569050e-05 3.200619e-04 -1.275751e-04)
10            	(4.722949e-02 -5.824163e-02 -6.630437e-02)	(4.729901e-02 -5.860010e-02 -6.618777e-02)	(-6.952460e-05 3.584728e-04 -1.165959e-04)
11            	(-2.153185e-02 2.298071e-02 -2.638566e-02)	(-2.146262e-02 2.263879e-02 -2.628604e-02)	(-6.923241e-05 3.419146e-04 -9.962162e-05)
12            	(-6.582892e-02 7.538693e-02 -1.846238e-02)	(-6.579829e-02 7.509969e-02 -1.839212e-02)	(-3.062526e-05 2.872459e-04 -7.026514e-05)
13            	(-8.270492e-02 9.591820e-02 -3.018215e-02)	(-8.273117e-02 9.570239e-02 -3.015227e-02)	(2.625411e-05 2.158083e-04 -2.987788e-05)
14            	(-7.935548e-02 9.093277e-02 -5.636112e-02)	(-7.943563e-02 9.078544e-02 -5.637658e-02)	(8.014476e-05 1.473218e-04 1.545875e-05)
15            	(-6.158251e-02 7.022179e-02 -8.854737e-02)	(-6.169957e-02 7.012356e-02 -8.859131e-02)	(1.170601e-04 9.822617e-05 4.394250e-05)
16            	(-3.868771e-02 4.351262e-02 -1.177701e-01)	(-3.882059e-02 4.343759e-02 -1.178189e-01)	(1.328841e-04 7.502933e-05 4.885636e-05)
17            	(-1.708617e-02 1.773400e-02 -1.348155e-01)	(-1.721602e-02 1.766204e-02 -1.348508e-01)	(1.298510e-04 7.196302e-05 3.529282e-05)
18            	(-2.430759e-03 1.363301e-05 -1.371738e-01)	(-2.546456e-03 -6.765713e-05 -1.371862e-01)	(1.156967e-04 8.129015e-05 1.232594e-05)
19            	(3.956905e-03 -7.501908e-03 -1.301370e-01)	(3.859621e-03 -7.596558e-03 -1.301243e-01)	(9.728393e-05 9.464985e-05 -1.274524e-05)
20            	(4.546452e-03 -8.139390e-03 -1.162520e-01)	(4.466339e-03 -8.245138e-03 -1.162199e-01)	(8.011309e-05 1.057480e-04 -3.207774e-05)
21            	(2.700306e-04 -4.508495e-03 -1.009689e-01)	(2.034970e-04 -4.619169e-03 -1.009256e-01)	(6.653364e-05 1.106745e-04 -4.332410e-05)
22            	(-6.168807e-03 3.675413e-03 -8.868859e-02)	(-6.226816e-03 3.565762e-03 -8.864255e-02)	(5.800899e-05 1.096507e-04 -4.603404e-05)
23            	(-1.329072e-02 1.232851e-02 -7.935485e-02)	(-1.334447e-02 1.222499e-02 -7.931347e-02)	(5.375065e-05 1.035228e-04 -4.138043e-05)
24            	(-1.956177e-02 2.011789e-02 -7.531969e-02)	(-1.961375e-02 2.002359e-02 -7.528786e-02)	(5.198158e-05 9.429297e-05 -3.182239e-05)
25            	(-2.362461e-02 2.532945e-02 -7.645068e-02)	(-2.367512e-02 2.524532e-02 -7.643345e-02)	(5.051125e-05 8.413334e-05 -1.723381e-05)
26            	(-2.534985e-02 2.738403e-02 -8.109141e-02)	(-2.539750e-02 2.730915e-02 -8.109441e-02)	(4.765592e-05 7.488237e-05 2.998257e-06)
27            	(-2.475646e-02 2.660130e-02 -8.395060e-02)	(-2.480072e-02 2.653403e-02 -8.396708e-02)	(4.425873e-05 6.727350e-05 1.647608e-05)
28            	(-2.390664e-02 2.559414e-02 -8.775612e-02)	(-2.394700e-02 2.553202e-02 -8.778082e-02)	(4.035646e-05 6.212385e-05 2.470031e-05)
29            	(-2.271653e-02 2.423756e-02 -9.218326e-02)	(-2.275268e-02 2.417808e-02 -9.221236e-02)	(3.614640e-05 5.948515e-05 2.910260e-05)
30            	(-2.085987e-02 2.298298e-02 -9.580532e-02)	(-2.089161e-02 2.292398e-02 -9.583740e-02)	(3.173401e-05 5.899650e-05 3.207285e-05)
31            	(-1.922975e-02 2.135300e-02 -9.761346e-02)	(-1.925674e-02 2.129430e-02 -9.764745e-02)	(2.699224e-05 5.870196e-05 3.399271e-05)
32            	(-1.917172e-02 2.070976e-02 -1.006158e-01)	(-1.919426e-02 2.065204e-02 -1.006511e-01)	(2.254663e-05 5.771746e-05 3.534399e-05)
33            	(-1.813700e-02 1.885213e-02 -9.939377e-02)	(-1.815642e-02 1.879631e-02 -9.943013e-02)	(1.942046e-05 5.582386e-05 3.636831e-05)
34            	(-1.834380e-02 1.901000e-02 -1.000725e-01)	(-1.836120e-02 1.895697e-02 -1.001091e-01)	(1.739523e-05 5.302411e-05 3.659941e-05)
35            	(-1.853708e-02 1.916733e-02 -1.001011e-01)	(-1.855360e-02 1.911768e-02 -1.001377e-01)	(1.652716e-05 4.964597e-05 3.657568e-05)
36            	(-1.870137e-02 1.930431e-02 -9.960654e-02)	(-1.871785e-02 1.925841e-02 -9.964306e-02)	(1.647881e-05 4.589713e-05 3.651207e-05)
37            	(-1.884059e-02 1.939410e-02 -9.871795e-02)	(-1.885776e-02 1.935169e-02 -9.875443e-02)	(1.716813e-05 4.241591e-05 3.648453e-05)
38            	(-1.903202e-02 1.955621e-02 -9.758384e-02)	(-1.905054e-02 1.951649e-02 -9.761985e-02)	(1.851829e-05 3.972085e-05 3.601527e-05)
39            	(-1.927843e-02 1.980209e-02 -9.630954e-02)	(-1.929860e-02 1.976415e-02 -9.634436e-02)	(2.016780e-05 3.793927e-05 3.481915e-05)
40            	(-1.966514e-02 2.021269e-02 -9.518065e-02)	(-1.968697e-02 2.017560e-02 -9.521336e-02)	(2.183142e-05 3.709400e-05 3.270871e-05)
41            	(-2.028645e-02 2.086447e-02 -9.481806e-02)	(-2.030955e-02 2.082760e-02 -9.484788e-02)	(2.310454e-05 3.686785e-05 2.982061e-05)
42            	(-2.079046e-02 2.149045e-02 -9.495712e-02)	(-2.081453e-02 2.145336e-02 -9.498263e-02)	(2.407453e-05 3.709375e-05 2.551755e-05)
43            	(-2.126095e-02 2.116040e-02 -9.598221e-02)	(-2.128521e-02 2.112341e-02 -9.600414e-02)	(2.425523e-05 3.699489e-05 2.192867e-05)
44            	(-2.168594e-02 2.144306e-02 -9.687776e-02)	(-2.171001e-02 2.140638e-02 -9.689638e-02)	(2.407230e-05 3.668778e-05 1.862072e-05)
45            	(-2.198860e-02 2.159760e-02 -9.758113e-02)	(-2.201221e-02 2.156157e-02 -9.759656e-02)	(2.361448e-05 3.603262e-05 1.543524e-05)
46            	(-2.223674e-02 2.166575e-02 -9.800708e-02)	(-2.225987e-02 2.163052e-02 -9.801977e-02)	(2.312294e-05 3.522565e-05 1.269159e-05)
47            	(-2.246348e-02 2.168283e-02 -9.819404e-02)	(-2.248596e-02 2.164874e-02 -9.820418e-02)	(2.247548e-05 3.408816e-05 1.014587e-05)
48            	(-2.268681e-02 2.166176e-02 -9.814926e-02)	(-2.270820e-02 2.162934e-02 -9.815730e-02)	(2.139549e-05 3.241982e-05 8.047101e-06)
49            	(-2.291145e-02 2.161934e-02 -9.790730e-02)	(-2.293118e-02 2.158913e-02 -9.791405e-02)	(1.973454e-05 3.021198e-05 6.752629e-06)
50            	(-2.313097e-02 2.155588e-02 -9.752010e-02)	(-2.314862e-02 2.152825e-02 -9.752673e-02)	(1.765518e-05 2.763640e-05 6.625221e-06)
51            	(-2.335301e-02 2.149314e-02 -9.700697e-02)	(-2.336839e-02 2.146812e-02 -9.701459e-02)	(1.538908e-05 2.501785e-05 7.615252e-06)
52            	(-2.359174e-02 2.145718e-02 -9.640948e-02)	(-2.360482e-02 2.143470e-02 -9.641895e-02)	(1.308410e-05 2.247611e-05 9.462016e-06)
53            	(-2.382066e-02 2.143531e-02 -9.578327e-02)	(-2.383155e-02 2.141513e-02 -9.579515e-02)	(1.089465e-05 2.017296e-05 1.187348e-05)
54            	(-2.404404e-02 2.144014e-02 -9.516430e-02)	(-2.405292e-02 2.142199e-02 -9.517882e-02)	(8.878639e-06 1.814876e-05 1.452880e-05)
55            	(-2.425382e-02 2.146055e-02 -9.461198e-02)	(-2.426078e-02 2.144429e-02 -9.462905e-02)	(6.964181e-06 1.626197e-05 1.707368e-05)
56            	(-2.444114e-02 2.148988e-02 -9.415282e-02)	(-2.444623e-02 2.147551e-02 -9.417194e-02)	(5.093435e-06 1.437645e-05 1.912174e-05)
57            	(-2.460644e-02 2.153674e-02 -9.379022e-02)	(-2.460960e-02 2.152435e-02 -9.381107e-02)	(3.159740e-06 1.239252e-05 2.084166e-05)
58            	(-2.480888e-02 2.173878e-02 -9.351480e-02)	(-2.480989e-02 2.172856e-02 -9.353746e-02)	(1.005493e-06 1.021607e-05 2.266362e-05)
59            	(-2.497820e-02 2.190174e-02 -9.331627e-02)	(-2.497692e-02 2.189380e-02 -9.334093e-02)	(-1.280248e-06 7.933878e-06 2.465739e-05)
60            	(-2.510808e-02 2.200637e-02 -9.316020e-02)	(-2.510443e-02 2.200081e-02 -9.318702e-02)	(-3.653692e-06 5.566749e-06 2.681692e-05)
61            	(-2.523355e-02 2.213896e-02 -9.305458e-02)	(-2.522774e-02 2.213556e-02 -9.308354e-02)	(-5.807637e-06 3.403076e-06 2.896321e-05)
62            	(-2.533084e-02 2.218858e-02 -9.297275e-02)	(-2.532311e-02 2.218715e-02 -9.300366e-02)	(-7.726572e-06 1.431671e-06 3.090638e-05)
63            	(-2.542240e-02 2.224866e-02 -9.297969e-02)	(-2.541303e-02 2.224897e-02 -9.301246e-02)	(-9.377161e-06 -3.128102e-07 3.277550e-05)
64            	(-2.551513e-02 2.232526e-02 -9.307226e-02)	(-2.550433e-02 2.232714e-02 -9.310689e-02)	(-1.079816e-05 -1.882546e-06 3.463484e-05)
65            	(-2.565970e-02 2.258360e-02 -9.319195e-02)	(-2.564779e-02 2.258676e-02 -9.322847e-02)	(-1.190858e-05 -3.166175e-06 3.651205e-05)
66            	(-2.577205e-02 2.278448e-02 -9.343474e-02)	(-2.575930e-02 2.278868e-02 -9.347293e-02)	(-1.275191e-05 -4.202839e-06 3.819698e-05)
67            	(-2.586454e-02 2.287186e-02 -9.367186e-02)	(-2.585118e-02 2.287688e-02 -9.371161e-02)	(-1.335819e-05 -5.016485e-06 3.974740e-05)
68            	(-2.595499e-02 2.296271e-02 -9.388965e-02)	(-2.594117e-02 2.296842e-02 -9.393064e-02)	(-1.381977e-05 -5.712973e-06 4.099757e-05)
69            	(-2.603886e-02 2.305603e-02 -9.404669e-02)	(-2.602473e-02 2.306231e-02 -9.408857e-02)	(-1.413024e-05 -6.278136e-06 4.188584e-05)
70            	(-2.611332e-02 2.320747e-02 -9.409369e-02)	(-2.609902e-02 2.321417e-02 -9.413619e-02)	(-1.429845e-05 -6.696965e-06 4.250134e-05)
71            	(-2.616982e-02 2.334486e-02 -9.401337e-02)	(-2.615540e-02 2.335191e-02 -9.405626e-02)	(-1.441291e-05 -7.053560e-06 4.288547e-05)
72            	(-2.621228e-02 2.346569e-02 -9.381739e-02)	(-2.619771e-02 2.347314e-02 -9.386046e-02)	(-1.457104e-05 -7.450813e-06 4.307259e-05)
73            	(-2.623583e-02 2.358001e-02 -9.352983e-02)	(-2.622104e-02 2.358790e-02 -9.357299e-02)	(-1.479072e-05 -7.887649e-06 4.316574e-05)
74            	(-2.624221e-02 2.369015e-02 -9.317373e-02)	(-2.622711e-02 2.369853e-02 -9.321695e-02)	(-1.510076e-05 -8.379575e-06 4.321901e-05)
75            	(-2.623489e-02 2.379755e-02 -9.277950e-02)	(-2.621940e-02 2.380646e-02 -9.282278e-02)	(-1.549280e-05 -8.910031e-06 4.328146e-05)
76            	(-2.621831e-02 2.390399e-02 -9.237647e-02)	(-2.620244e-02 2.391336e-02 -9.241984e-02)	(-1.587399e-05 -9.366098e-06 4.336672e-05)
77            	(-2.619744e-02 2.401067e-02 -9.198947e-02)	(-2.618122e-02 2.402040e-02 -9.203286e-02)	(-1.621992e-05 -9.731110e-06 4.339401e-05)
78            	(-2.617782e-02 2.411611e-02 -9.164114e-02)	(-2.616134e-02 2.412607e-02 -9.168452e-02)	(-1.648240e-05 -9.959096e-06 4.338019e-05)
79            	(-2.616334e-02 2.421962e-02 -9.134700e-02)	(-2.614670e-02 2.422965e-02 -9.139039e-02)	(-1.663528e-05 -1.002301e-05 4.338588e-05)
80            	(-2.615653e-02 2.431996e-02 -9.111355e-02)	(-2.613985e-02 2.432989e-02 -9.115697e-02)	(-1.667896e-05 -9.932191e-06 4.341366e-05)
81            	(-2.615573e-02 2.441661e-02 -9.093568e-02)	(-2.613909e-02 2.442634e-02 -9.097910e-02)	(-1.663453e-05 -9.730106e-06 4.342218e-05)
82            	(-2.616068e-02 2.450700e-02 -9.080972e-02)	(-2.614415e-02 2.451646e-02 -9.085314e-02)	(-1.653135e-05 -9.462965e-06 4.341796e-05)
83            	(-2.617364e-02 2.459010e-02 -9.071910e-02)	(-2.615728e-02 2.459924e-02 -9.076244e-02)	(-1.636558e-05 -9.137953e-06 4.334588e-05)
84            	(-2.619250e-02 2.466460e-02 -9.065159e-02)	(-2.617632e-02 2.467342e-02 -9.069480e-02)	(-1.617914e-05 -8.817880e-06 4.320158e-05)
85            	(-2.620965e-02 2.472842e-02 -9.060202e-02)	(-2.619365e-02 2.473696e-02 -9.064503e-02)	(-1.599640e-05 -8.544977e-06 4.300902e-05)
86            	(-2.622295e-02 2.478383e-02 -9.054270e-02)	(-2.620713e-02 2.479215e-02 -9.058547e-02)	(-1.581531e-05 -8.321279e-06 4.276339e-05)
87            	(-2.622677e-02 2.483100e-02 -9.046049e-02)	(-2.621115e-02 2.483912e-02 -9.050289e-02)	(-1.561482e-05 -8.122867e-06 4.240673e-05)
88            	(-2.619478e-02 2.483366e-02 -9.033278e-02)	(-2.617941e-02 2.484158e-02 -9.037469e-02)	(-1.536431e-05 -7.922395e-06 4.191058e-05)
89            	(-2.615044e-02 2.484354e-02 -9.015234e-02)	(-2.613540e-02 2.485123e-02 -9.019362e-02)	(-1.503907e-05 -7.690209e-06 4.127431e-05)
90            	(-2.611696e-02 2.490841e-02 -8.991921e-02)	(-2.610233e-02 2.491582e-02 -8.995968e-02)	(-1.463230e-05 -7.406129e-06 4.047665e-05)
91            	(-2.607768e-02 2.497532e-02 -8.965846e-02)	(-2.606353e-02 2.498239e-02 -8.969803e-02)	(-1.414567e-05 -7.066926e-06 3.957126e-05)
92            	(-2.602281e-02 2.504468e-02 -8.936153e-02)	(-2.600922e-02 2.505135e-02 -8.940011e-02)	(-1.359109e-05 -6.669636e-06 3.858760e-05)
93            	(-2.595034e-02 2.511296e-02 -8.902781e-02)	(-2.593737e-02 2.511916e-02 -8.906541e-02)	(-1.297033e-05 -6.203067e-06 3.760160e-05)
94            	(-2.586596e-02 2.517501e-02 -8.866774e-02)	(-2.585369e-02 2.518065e-02 -8.870439e-02)	(-1.227196e-05 -5.640969e-06 3.665658e-05)
95            	(-2.577920e-02 2.523002e-02 -8.829506e-02)	(-2.576771e-02 2.523500e-02 -8.833086e-02)	(-1.149881e-05 -4.981761e-06 3.579433e-05)
96            	(-2.569765e-02 2.528123e-02 -8.791894e-02)	(-2.568698e-02 2.528546e-02 -8.795397e-02)	(-1.067105e-05 -4.236933e-06 3.503549e-05)
97            	(-2.562444e-02 2.529784e-02 -8.753828e-02)	(-2.561462e-02 2.530128e-02 -8.757268e-02)	(-9.819564e-06 -3.440854e-06 3.440123e-05)
98            	(-2.555612e-02 2.536118e-02 -8.715828e-02)	(-2.554717e-02 2.536378e-02 -8.719217e-02)	(-8.954992e-06 -2.598163e-06 3.388666e-05)
99            	(-2.549504e-02 2.542928e-02 -8.677233e-02)	(-2.548694e-02 2.543100e-02 -8.680583e-02)	(-8.097518e-06 -1.727005e-06 3.349195e-05)
100           	(-2.543567e-02 2.545419e-02 -8.637015e-02)	(-2.542839e-02 2.545506e-02 -8.640332e-02)	(-7.280864e-06 -8.733439e-07 3.317491e-05)
101           	(-2.538379e-02 2.553706e-02 -8.597637e-02)	(-2.537729e-02 2.553709e-02 -8.600927e-02)	(-6.499741e-06 -2.789152e-08 3.290059e-05)
102           	(-2.533722e-02 2.562266e-02 -8.557912e-02)	(-2.533148e-02 2.562184e-02 -8.561176e-02)	(-5.738609e-06 8.177778e-07 3.264441e-05)
103           	(-2.528511e-02 2.564842e-02 -8.516474e-02)	(-2.528010e-02 2.564679e-02 -8.519715e-02)	(-5.013160e-06 1.630952e-06 3.240348e-05)
104           	(-2.525221e-02 2.575371e-02 -8.476830e-02)	(-2.524790e-02 2.575127e-02 -8.480047e-02)	(-4.310325e-06 2.432460e-06 3.217573e-05)
105           	(-2.522315e-02 2.585805e-02 -8.437417e-02)	(-2.521952e-02 2.585483e-02 -8.440612e-02)	(-3.626907e-06 3.218842e-06 3.195001e-05)
106           	(-2.519750e-02 2.595822e-02 -8.397911e-02)	(-2.519453e-02 2.595424e-02 -8.401081e-02)	(-2.968255e-06 3.974517e-06 3.170446e-05)
107           	(-2.515632e-02 2.597248e-02 -8.358167e-02)	(-2.515398e-02 2.596780e-02 -8.361308e-02)	(-2.335001e-06 4.677576e-06 3.140902e-05)
108           	(-2.510989e-02 2.599369e-02 -8.314599e-02)	(-2.510818e-02 2.598835e-02 -8.317706e-02)	(-1.717633e-06 5.338267e-06 3.107416e-05)
109           	(-2.507976e-02 2.611573e-02 -8.268801e-02)	(-2.507868e-02 2.610972e-02 -8.271871e-02)	(-1.080186e-06 6.010939e-06 3.070028e-05)
110           	(-2.505474e-02 2.624420e-02 -8.220197e-02)	(-2.505432e-02 2.623751e-02 -8.223227e-02)	(-4.207129e-07 6.694645e-06 3.029888e-05)
111           	(-2.501043e-02 2.626699e-02 -8.171597e-02)	(-2.501066e-02 2.625965e-02 -8.174583e-02)	(2.360300e-07 7.344255e-06 2.985783e-05)
112           	(-2.496245e-02 2.629409e-02 -8.120112e-02)	(-2.496335e-02 2.628613e-02 -8.123053e-02)	(8.958670e-07 7.967757e-06 2.941382e-05)
113           	(-2.494288e-02 2.645803e-02 -8.065155e-02)	(-2.494448e-02 2.644940e-02 -8.068052e-02)	(1.599408e-06 8.633710e-06 2.896493e-05)
114           	(-2.489790e-02 2.648736e-02 -8.013478e-02)	(-2.490020e-02 2.647808e-02 -8.016327e-02)	(2.302793e-06 9.275513e-06 2.848708e-05)
115           	(-2.488198e-02 2.664220e-02 -7.960807e-02)	(-2.488500e-02 2.663227e-02 -7.963608e-02)	(3.019652e-06 9.931462e-06 2.801415e-05)
116           	(-2.483904e-02 2.666722e-02 -7.910293e-02)	(-2.484277e-02 2.665666e-02 -7.913046e-02)	(3.727918e-06 1.055524e-05 2.752204e-05)
117           	(-2.479240e-02 2.669069e-02 -7.858462e-02)	(-2.479680e-02 2.667956e-02 -7.861163e-02)	(4.399598e-06 1.112926e-05 2.701348e-05)
118           	(-2.476814e-02 2.684213e-02 -7.802929e-02)	(-2.477318e-02 2.683044e-02 -7.805582e-02)	(5.048518e-06 1.168945e-05 2.652801e-05)
119           	(-2.472030e-02 2.686027e-02 -7.746498e-02)	(-2.472593e-02 2.684810e-02 -7.749099e-02)	(5.630912e-06 1.217296e-05 2.601217e-05)
120           	(-2.468593e-02 2.700940e-02 -7.684881e-02)	(-2.469212e-02 2.699675e-02 -7.687433e-02)	(6.192825e-06 1.264459e-05 2.552495e-05)
121           	(-2.464810e-02 2.702461e-02 -7.628360e-02)	(-2.465480e-02 2.701155e-02 -7.630860e-02)	(6.703731e-06 1.305436e-05 2.500108e-05)
122           	(-2.461557e-02 2.715656e-02 -7.568904e-02)	(-2.462277e-02 2.714310e-02 -7.571352e-02)	(7.206996e-06 1.346227e-05 2.448630e-05)
123           	(-2.459277e-02 2.717450e-02 -7.517063e-02)	(-2.460042e-02 2.716070e-02 -7.519455e-02)	(7.646129e-06 1.379926e-05 2.391293e-05)
124           	(-2.457032e-02 2.729297e-02 -7.463273e-02)	(-2.457838e-02 2.727886e-02 -7.465610e-02)	(8.053966e-06 1.411128e-05 2.337251e-05)
125           	(-2.455565e-02 2.731371e-02 -7.415976e-02)	(-2.456402e-02 2.729938e-02 -7.418255e-02)	(8.362691e-06 1.432643e-05 2.279068e-05)
126           	(-2.452975e-02 2.741942e-02 -7.366075e-02)	(-2.453839e-02 2.740490e-02 -7.368300e-02)	(8.642461e-06 1.451915e-05 2.225351e-05)
127           	(-2.449796e-02 2.746622e-02 -7.311936e-02)	(-2.450684e-02 2.745155e-02 -7.314109e-02)	(8.880188e-06 1.467147e-05 2.172647e-05)
128           	(-2.445742e-02 2.753666e-02 -7.258938e-02)	(-2.446654e-02 2.752184e-02 -7.261062e-02)	(9.113837e-06 1.482008e-05 2.123765e-05)
129           	(-2.441318e-02 2.761143e-02 -7.205301e-02)	(-2.442251e-02 2.759647e-02 -7.207376e-02)	(9.331512e-06 1.496005e-05 2.075028e-05)
130           	(-2.436616e-02 2.768963e-02 -7.151316e-02)	(-2.437570e-02 2.767453e-02 -7.153343e-02)	(9.544783e-06 1.510115e-05 2.026890e-05)
131           	(-2.431769e-02 2.777015e-02 -7.097091e-02)	(-2.432743e-02 2.775492e-02 -7.099068e-02)	(9.741387e-06 1.523191e-05 1.977754e-05)
132           	(-2.426794e-02 2.784717e-02 -7.044343e-02)	(-2.427786e-02 2.783182e-02 -7.046270e-02)	(9.920800e-06 1.535002e-05 1.926895e-05)
133           	(-2.421628e-02 2.791938e-02 -6.992628e-02)	(-2.422635e-02 2.790393e-02 -6.994503e-02)	(1.007635e-05 1.544655e-05 1.874896e-05)
134           	(-2.418807e-02 2.795139e-02 -6.949040e-02)	(-2.419826e-02 2.793589e-02 -6.950860e-02)	(1.019426e-05 1.550076e-05 1.819943e-05)
135           	(-2.411578e-02 2.801454e-02 -6.897731e-02)	(-2.412608e-02 2.799900e-02 -6.899496e-02)	(1.029618e-05 1.554033e-05 1.765556e-05)
136           	(-2.407450e-02 2.804286e-02 -6.855762e-02)	(-2.408487e-02 2.802730e-02 -6.857472e-02)	(1.037713e-05 1.555730e-05 1.710501e-05)
137           	(-2.398575e-02 2.809471e-02 -6.803392e-02)	(-2.399621e-02 2.807913e-02 -6.805049e-02)	(1.045662e-05 1.557493e-05 1.657368e-05)
138           	(-2.389847e-02 2.815147e-02 -6.754530e-02)	(-2.390902e-02 2.813586e-02 -6.756135e-02)	(1.054983e-05 1.561231e-05 1.604803e-05)
139           	(-2.381711e-02 2.821083e-02 -6.705947e-02)	(-2.382776e-02 2.819517e-02 -6.707499e-02)	(1.065193e-05 1.566563e-05 1.552656e-05)
140           	(-2.377707e-02 2.823575e-02 -6.666957e-02)	(-2.378780e-02 2.822005e-02 -6.668456e-02)	(1.073141e-05 1.569462e-05 1.498937e-05)
141           	(-2.370008e-02 2.831131e-02 -6.620974e-02)	(-2.371090e-02 2.829559e-02 -6.622423e-02)	(1.081469e-05 1.572817e-05 1.448849e-05)
142           	(-2.363024e-02 2.838652e-02 -6.576869e-02)	(-2.364116e-02 2.837074e-02 -6.578273e-02)	(1.091597e-05 1.577963e-05 1.404493e-05)
143           	(-2.357149e-02 2.846078e-02 -6.536840e-02)	(-2.358250e-02 2.844495e-02 -6.538203e-02)	(1.101142e-05 1.582661e-05 1.363051e-05)
144           	(-2.352042e-02 2.852637e-02 -6.500212e-02)	(-2.353151e-02 2.851052e-02 -6.501536e-02)	(1.108871e-05 1.585584e-05 1.324333e-05)
145           	(-2.348367e-02 2.858222e-02 -6.459870e-02)	(-2.349481e-02 2.856636e-02 -6.461158e-02)	(1.114343e-05 1.585992e-05 1.288054e-05)
146           	(-2.338026e-02 2.838966e-02 -6.429798e-02)	(-2.339138e-02 2.837392e-02 -6.431055e-02)	(1.112382e-05 1.573866e-05 1.257183e-05)
147           	(-2.329889e-02 2.841032e-02 -6.390499e-02)	(-2.331002e-02 2.839468e-02 -6.391733e-02)	(1.113284e-05 1.564454e-05 1.233553e-05)
148           	(-2.316098e-02 2.839358e-02 -6.352620e-02)	(-2.317213e-02 2.837801e-02 -6.353830e-02)	(1.115034e-05 1.556381e-05 1.209390e-05)
149           	(-2.299837e-02 2.836708e-02 -6.316414e-02)	(-2.300957e-02 2.835156e-02 -6.317604e-02)	(1.120498e-05 1.552138e-05 1.189767e-05)
150           	(-2.282685e-02 2.833622e-02 -6.283178e-02)	(-2.283812e-02 2.832073e-02 -6.284349e-02)	(1.126830e-05 1.548795e-05 1.170974e-05)
151           	(-2.265970e-02 2.830483e-02 -6.253351e-02)	(-2.267106e-02 2.828935e-02 -6.254503e-02)	(1.135784e-05 1.548099e-05 1.151580e-05)
152           	(-2.246474e-02 2.806694e-02 -6.227657e-02)	(-2.247613e-02 2.805156e-02 -6.228789e-02)	(1.139426e-05 1.538062e-05 1.131583e-05)
153           	(-2.232247e-02 2.804097e-02 -6.206635e-02)	(-2.233393e-02 2.802565e-02 -6.207747e-02)	(1.146531e-05 1.531690e-05 1.112819e-05)
154           	(-2.219084e-02 2.801404e-02 -6.184899e-02)	(-2.220236e-02 2.799879e-02 -6.185991e-02)	(1.152319e-05 1.525051e-05 1.091473e-05)
155           	(-2.206603e-02 2.798569e-02 -6.159742e-02)	(-2.207761e-02 2.797051e-02 -6.160819e-02)	(1.158153e-05 1.518413e-05 1.076744e-05)
156           	(-2.194516e-02 2.795630e-02 -6.129135e-02)	(-2.195677e-02 2.794121e-02 -6.130205e-02)	(1.161050e-05 1.508488e-05 1.070022e-05)
157           	(-2.181680e-02 2.792675e-02 -6.091465e-02)	(-2.182843e-02 2.791178e-02 -6.092540e-02)	(1.162897e-05 1.496996e-05 1.074828e-05)
158           	(-2.172737e-02 2.789647e-02 -6.057713e-02)	(-2.173898e-02 2.788165e-02 -6.058801e-02)	(1.161135e-05 1.481316e-05 1.088709e-05)
159           	(-2.161984e-02 2.787903e-02 -6.009271e-02)	(-2.163141e-02 2.786440e-02 -6.010384e-02)	(1.157315e-05 1.463438e-05 1.112935e-05)
160           	(-2.152745e-02 2.787472e-02 -5.959346e-02)	(-2.153895e-02 2.786029e-02 -5.960490e-02)	(1.150571e-05 1.442980e-05 1.144054e-05)
161           	(-2.145231e-02 2.788539e-02 -5.911581e-02)	(-2.146372e-02 2.787119e-02 -5.912760e-02)	(1.140910e-05 1.420262e-05 1.179528e-05)
162           	(-2.138447e-02 2.793050e-02 -5.874615e-02)	(-2.139575e-02 2.791654e-02 -5.875830e-02)	(1.128389e-05 1.396010e-05 1.214386e-05)
163           	(-2.134270e-02 2.799394e-02 -5.842043e-02)	(-2.135384e-02 2.798023e-02 -5.843292e-02)	(1.113378e-05 1.370586e-05 1.249047e-05)
164           	(-2.132179e-02 2.806179e-02 -5.810539e-02)	(-2.133274e-02 2.804836e-02 -5.811820e-02)	(1.095083e-05 1.342610e-05 1.280995e-05)
165           	(-2.131610e-02 2.814004e-02 -5.786316e-02)	(-2.132685e-02 2.812691e-02 -5.787626e-02)	(1.074723e-05 1.312824e-05 1.310646e-05)
166           	(-2.131983e-02 2.821236e-02 -5.763820e-02)	(-2.133035e-02 2.819956e-02 -5.765155e-02)	(1.051711e-05 1.280504e-05 1.335226e-05)
167           	(-2.132722e-02 2.828060e-02 -5.746071e-02)	(-2.133750e-02 2.826814e-02 -5.747428e-02)	(1.027527e-05 1.246563e-05 1.356560e-05)
168           	(-2.133340e-02 2.829209e-02 -5.735938e-02)	(-2.134340e-02 2.828001e-02 -5.737311e-02)	(1.000058e-05 1.208206e-05 1.372725e-05)
169           	(-2.132671e-02 2.829823e-02 -5.729595e-02)	(-2.133642e-02 2.828655e-02 -5.730981e-02)	(9.715819e-06 1.167844e-05 1.385097e-05)
170           	(-2.130052e-02 2.830200e-02 -5.721594e-02)	(-2.130995e-02 2.829073e-02 -5.722988e-02)	(9.426724e-06 1.126729e-05 1.394221e-05)
171           	(-2.123688e-02 2.831795e-02 -5.706308e-02)	(-2.124604e-02 2.830707e-02 -5.707710e-02)	(9.159312e-06 1.088036e-05 1.401503e-05)
172           	(-2.116272e-02 2.832367e-02 -5.693413e-02)	(-2.117162e-02 2.831316e-02 -5.694821e-02)	(8.906414e-06 1.051168e-05 1.407746e-05)
173           	(-2.107932e-02 2.832110e-02 -5.681047e-02)	(-2.108799e-02 2.831093e-02 -5.682459e-02)	(8.678431e-06 1.017457e-05 1.411723e-05)
174           	(-2.099199e-02 2.831375e-02 -5.668017e-02)	(-2.100046e-02 2.830389e-02 -5.669432e-02)	(8.468992e-06 9.860910e-06 1.414815e-05)
175           	(-2.090987e-02 2.830673e-02 -5.654280e-02)	(-2.091815e-02 2.829714e-02 -5.655695e-02)	(8.286438e-06 9.582764e-06 1.415048e-05)
176           	(-2.083953e-02 2.830430e-02 -5.640385e-02)	(-2.084765e-02 2.829497e-02 -5.641798e-02)	(8.126834e-06 9.334975e-06 1.412944e-05)
177           	(-2.078294e-02 2.830739e-02 -5.626678e-02)	(-2.079093e-02 2.829826e-02 -5.628086e-02)	(7.997479e-06 9.126738e-06 1.407792e-05)
178           	(-2.073314e-02 2.831988e-02 -5.612580e-02)	(-2.074104e-02 2.831092e-02 -5.613982e-02)	(7.896952e-06 8.954183e-06 1.401961e-05)
179           	(-2.069412e-02 2.834241e-02 -5.599905e-02)	(-2.070195e-02 2.833358e-02 -5.601300e-02)	(7.832547e-06 8.826928e-06 1.395663e-05)
180           	(-2.067219e-02 2.836913e-02 -5.588742e-02)	(-2.067998e-02 2.836040e-02 -5.590134e-02)	(7.792858e-06 8.729492e-06 1.391810e-05)
181           	(-2.066361e-02 2.839705e-02 -5.579347e-02)	(-2.067139e-02 2.838838e-02 -5.580737e-02)	(7.780751e-06 8.666963e-06 1.389580e-05)
182           	(-2.066047e-02 2.842498e-02 -5.573031e-02)	(-2.066825e-02 2.841636e-02 -5.574424e-02)	(7.783531e-06 8.623078e-06 1.392663e-05)
183           	(-2.065680e-02 2.844392e-02 -5.567324e-02)	(-2.066460e-02 2.843532e-02 -5.568724e-02)	(7.801972e-06 8.601047e-06 1.400090e-05)
184           	(-2.064516e-02 2.844971e-02 -5.561465e-02)	(-2.065299e-02 2.844113e-02 -5.562879e-02)	(7.826141e-06 8.585300e-06 1.414370e-05)
185           	(-2.062147e-02 2.844147e-02 -5.554809e-02)	(-2.062933e-02 2.843289e-02 -5.556242e-02)	(7.860537e-06 8.583023e-06 1.433055e-05)
186           	(-2.059034e-02 2.842290e-02 -5.545869e-02)	(-2.059824e-02 2.841432e-02 -5.547327e-02)	(7.899290e-06 8.582582e-06 1.457326e-05)
187           	(-2.054872e-02 2.839900e-02 -5.536368e-02)	(-2.055668e-02 2.839040e-02 -5.537852e-02)	(7.954770e-06 8.598886e-06 1.483384e-05)
188           	(-2.050804e-02 2.837433e-02 -5.526572e-02)	(-2.051606e-02 2.836570e-02 -5.528083e-02)	(8.026250e-06 8.626806e-06 1.511046e-05)
189           	(-2.046043e-02 2.835062e-02 -5.516193e-02)	(-2.046856e-02 2.834194e-02 -5.517730e-02)	(8.124615e-06 8.678737e-06 1.537454e-05)
190           	(-2.047225e-02 2.830372e-02 -5.519353e-02)	(-2.048047e-02 2.829501e-02 -5.520915e-02)	(8.219991e-06 8.712174e-06 1.561559e-05)
191           	(-2.040408e-02 2.827473e-02 -5.508387e-02)	(-2.041243e-02 2.826596e-02 -5.509970e-02)	(8.352601e-06 8.776265e-06 1.583124e-05)
192           	(-2.033612e-02 2.824677e-02 -5.497681e-02)	(-2.034464e-02 2.823791e-02 -5.499287e-02)	(8.521452e-06 8.868564e-06 1.606340e-05)
193           	(-2.027329e-02 2.822111e-02 -5.487503e-02)	(-2.028201e-02 2.821213e-02 -5.489129e-02)	(8.718453e-06 8.984316e-06 1.626551e-05)
194           	(-2.021945e-02 2.819845e-02 -5.478138e-02)	(-2.022838e-02 2.818934e-02 -5.479783e-02)	(8.934904e-06 9.109774e-06 1.644779e-05)
195           	(-2.017788e-02 2.817891e-02 -5.470428e-02)	(-2.018705e-02 2.816967e-02 -5.472088e-02)	(9.165119e-06 9.238983e-06 1.659965e-05)
196           	(-2.016829e-02 2.805536e-02 -5.479998e-02)	(-2.017765e-02 2.804606e-02 -5.481672e-02)	(9.356311e-06 9.299101e-06 1.674564e-05)
197           	(-2.013379e-02 2.803244e-02 -5.475146e-02)	(-2.014337e-02 2.802306e-02 -5.476838e-02)	(9.576919e-06 9.384162e-06 1.692125e-05)
198           	(-2.010446e-02 2.800844e-02 -5.472177e-02)	(-2.011427e-02 2.799896e-02 -5.473887e-02)	(9.811346e-06 9.477522e-06 1.709788e-05)
199           	(-2.008042e-02 2.798431e-02 -5.471051e-02)	(-2.009049e-02 2.797472e-02 -5.472778e-02)	(1.006428e-05 9.586311e-06 1.727170e-05)
200           	(-2.006134e-02 2.796062e-02 -5.471687e-02)	(-2.007167e-02 2.795092e-02 -5.473432e-02)	(1.033068e-05 9.700441e-06 1.744926e-05)
201           	(-2.005157e-02 2.793672e-02 -5.475660e-02)	(-2.006219e-02 2.792689e-02 -5.477421e-02)	(1.061906e-05 9.830833e-06 1.760846e-05)
202           	(-2.006752e-02 2.791797e-02 -5.487313e-02)	(-2.007844e-02 2.790800e-02 -5.489089e-02)	(1.092217e-05 9.966351e-06 1.775227e-05)
203           	(-2.004424e-02 2.789063e-02 -5.491090e-02)	(-2.005550e-02 2.788050e-02 -5.492877e-02)	(1.125920e-05 1.012992e-05 1.787058e-05)
204           	(-2.001610e-02 2.786250e-02 -5.495049e-02)	(-2.002772e-02 2.785218e-02 -5.496847e-02)	(1.162692e-05 1.031572e-05 1.798080e-05)
205           	(-2.000857e-02 2.783786e-02 -5.505660e-02)	(-2.002059e-02 2.782733e-02 -5.507463e-02)	(1.202186e-05 1.052830e-05 1.803258e-05)
206           	(-1.999184e-02 2.781039e-02 -5.515575e-02)	(-2.000428e-02 2.779963e-02 -5.517378e-02)	(1.244100e-05 1.076232e-05 1.803080e-05)
207           	(-1.993170e-02 2.777002e-02 -5.516886e-02)	(-1.994460e-02 2.775898e-02 -5.518683e-02)	(1.289901e-05 1.103601e-05 1.797017e-05)
208           	(-1.990637e-02 2.773750e-02 -5.527870e-02)	(-1.991975e-02 2.772618e-02 -5.529656e-02)	(1.337301e-05 1.132683e-05 1.785866e-05)
209           	(-1.987657e-02 2.770229e-02 -5.539485e-02)	(-1.989043e-02 2.769065e-02 -5.541251e-02)	(1.386217e-05 1.163859e-05 1.766348e-05)