# Moment      
# CofR        : (0.000000e+00 0.000000e+00 0.000000e+00)
#
# Time        	(total_x total_y total_z)	(pressure_x pressure_y pressure_z)	(viscous_x viscous_y viscous_z)
1             	(-5.036044e-01 5.792266e-01 4.276861e-03)	(-5.036172e-01 5.784473e-01 4.260267e-03)	(1.276561e-05 7.793444e-04 1.659405e-05)
2             	(-5.142511e-01 5.844331e-01 -1.434773e-02)	(-5.145488e-01 5.841609e-01 -1.434516e-02)	(2.976933e-04 2.722111e-04 -2.563793e-06)
3             	(-3.993401e-01 4.458782e-01 -4.929350e-02)	(-3.998425e-01 4.459639e-01 -4.928002e-02)	(5.024239e-04 -8.570231e-05 -1.348823e-05)
4             	(-2.081934e-01 2.257852e-01 -9.620681e-02)	(-2.087798e-01 2.260290e-01 -9.616870e-02)	(5.864929e-04 -2.438277e-04 -3.811254e-05)
5             	(-4.839113e-03 -7.500425e-03 -1.501484e-01)	(-5.397078e-03 -7.277614e-03 -1.500176e-01)	(5.579659e-04 -2.228117e-04 -1.308304e-04)
6             	(1.405166e-01 -1.758959e-01 -1.838688e-01)	(1.400773e-01 -1.757998e-01 -1.836366e-01)	(4.393119e-04 -9.609361e-05 -2.322629e-04)
7             	(1.961335e-01 -2.413608e-01 -1.811035e-01)	(1.958593e-01 -2.414396e-01 -1.807692e-01)	(2.741849e-04 7.878337e-05 -3.342768e-04)
8             	(1.856011e-01 -2.276525e-01 -1.497160e-01)	(1.854904e-01 -2.278979e-01 -1.493614e-01)	(1.106598e-04 2.453860e-04 -3.546528e-04)
9             	(1.336601e-01 -1.654573e-01 -9.637716e-02)	(1.336689e-01 -1.658113e-01 -9.601710e-02)	(-8.828408e-06 3.539369e-04 -3.600662e-04)
10            	(5.550654e-02 -7.051181e-02 -4.086434e-02)	(5.557449e-02 -7.090175e-02 -4.052633e-02)	(-6.795023e-05 3.899350e-04 -3.380135e-04)
11            	(-1.876832e-02 2.000756e-02 -9.489936e-04)	(-1.869722e-02 1.963922e-02 -6.608127e-04)	(-7.110008e-05 3.683436e-04 -2.881809e-04)
12            	(-6.663192e-02 7.796687e-02 1.287213e-02)	(-6.659738e-02 7.765988e-02 1.307840e-02)	(-3.453375e-05 3.069881e-04 -2.062691e-04)
13            	(-8.765293e-02 1.020788e-01 4.850994e-03)	(-8.767349e-02 1.018522e-01 4.969063e-03)	(2.056035e-05 2.266003e-04 -1.180691e-04)
14            	(-8.371954e-02 9.657839e-02 -1.878025e-02)	(-8.379418e-02 9.642767e-02 -1.873819e-02)	(7.464055e-05 1.507230e-04 -4.206601e-05)
15            	(-6.678254e-02 7.544947e-02 -4.851903e-02)	(-6.689416e-02 7.535357e-02 -4.851723e-02)	(1.116166e-04 9.589870e-05 -1.802897e-06)
16            	(-4.282534e-02 4.581344e-02 -7.545765e-02)	(-4.295172e-02 4.574550e-02 -7.546159e-02)	(1.263725e-04 6.793947e-05 3.942257e-06)
17            	(-1.952590e-02 1.696195e-02 -9.276624e-02)	(-1.964816e-02 1.689999e-02 -9.275217e-02)	(1.222544e-04 6.196014e-05 -1.406843e-05)
18            	(-3.017538e-03 -3.471416e-03 -9.690533e-02)	(-3.123992e-03 -3.540824e-03 -9.686519e-02)	(1.064543e-04 6.940840e-05 -4.013768e-05)
19            	(4.605348e-03 -1.360001e-02 -9.183991e-02)	(4.518417e-03 -1.368209e-02 -9.177911e-02)	(8.693096e-05 8.208489e-05 -6.080029e-05)
20            	(4.849509e-03 -1.329264e-02 -8.098054e-02)	(4.780325e-03 -1.338610e-02 -8.090989e-02)	(6.918373e-05 9.346117e-05 -7.065076e-05)
21            	(-7.376652e-04 -6.370840e-03 -6.834025e-02)	(-7.935737e-04 -6.470413e-03 -6.827201e-02)	(5.590856e-05 9.957356e-05 -6.823483e-05)
22            	(-8.207585e-03 2.931077e-03 -5.692417e-02)	(-8.255331e-03 2.831260e-03 -5.686951e-02)	(4.774578e-05 9.981712e-05 -5.466081e-05)
23            	(-1.630532e-02 1.284966e-02 -4.880718e-02)	(-1.634922e-02 1.275444e-02 -4.877484e-02)	(4.390924e-05 9.521789e-05 -3.234026e-05)
24            	(-2.323984e-02 2.145885e-02 -4.592124e-02)	(-2.328234e-02 2.137128e-02 -4.591594e-02)	(4.249957e-05 8.757092e-05 -5.302339e-06)
25            	(-2.690341e-02 2.605316e-02 -4.654886e-02)	(-2.694604e-02 2.597335e-02 -4.656928e-02)	(4.263066e-05 7.980315e-05 2.041235e-05)
26            	(-2.807037e-02 2.746828e-02 -4.948921e-02)	(-2.811303e-02 2.739484e-02 -4.953249e-02)	(4.265961e-05 7.343622e-05 4.328288e-05)
27            	(-2.718119e-02 2.625102e-02 -5.368523e-02)	(-2.722319e-02 2.618198e-02 -5.374536e-02)	(4.199035e-05 6.903953e-05 6.012510e-05)
28            	(-2.560198e-02 2.432947e-02 -5.801180e-02)	(-2.564241e-02 2.426237e-02 -5.808199e-02)	(4.042998e-05 6.710373e-05 7.018688e-05)
29            	(-2.325085e-02 2.226985e-02 -6.001393e-02)	(-2.328938e-02 2.220204e-02 -6.008778e-02)	(3.853254e-05 6.780621e-05 7.385741e-05)
30            	(-2.109838e-02 2.003822e-02 -6.148904e-02)	(-2.113474e-02 1.996862e-02 -6.156051e-02)	(3.636131e-05 6.960464e-05 7.147009e-05)
31            	(-1.915177e-02 1.768359e-02 -6.149951e-02)	(-1.918581e-02 1.761234e-02 -6.156639e-02)	(3.404106e-05 7.125298e-05 6.688278e-05)
32            	(-1.898262e-02 1.719553e-02 -6.284956e-02)	(-1.901419e-02 1.712394e-02 -6.290995e-02)	(3.156558e-05 7.158848e-05 6.039523e-05)
33            	(-1.900723e-02 1.731174e-02 -6.279352e-02)	(-1.903663e-02 1.724134e-02 -6.284724e-02)	(2.939990e-05 7.039707e-05 5.371846e-05)
34            	(-1.907577e-02 1.757616e-02 -6.162297e-02)	(-1.910334e-02 1.750861e-02 -6.166958e-02)	(2.756997e-05 6.754604e-05 4.660640e-05)
35            	(-1.908118e-02 1.782997e-02 -6.013697e-02)	(-1.910749e-02 1.776639e-02 -6.017707e-02)	(2.630127e-05 6.358331e-05 4.010224e-05)
36            	(-1.913173e-02 1.805723e-02 -5.844349e-02)	(-1.915746e-02 1.799809e-02 -5.847771e-02)	(2.572784e-05 5.913899e-05 3.422147e-05)
37            	(-1.922841e-02 1.828385e-02 -5.677411e-02)	(-1.925404e-02 1.822912e-02 -5.680322e-02)	(2.562779e-05 5.473300e-05 2.910845e-05)
38            	(-1.953385e-02 1.884224e-02 -5.536824e-02)	(-1.955953e-02 1.879160e-02 -5.539267e-02)	(2.567899e-05 5.063789e-05 2.443228e-05)
39            	(-2.015347e-02 1.971627e-02 -5.481938e-02)	(-2.017911e-02 1.966918e-02 -5.483861e-02)	(2.563460e-05 4.708890e-05 1.923011e-05)
40            	(-2.073760e-02 2.047668e-02 -5.422624e-02)	(-2.076297e-02 2.043241e-02 -5.424009e-02)	(2.537237e-05 4.426505e-05 1.384831e-05)
41            	(-2.135587e-02 2.039426e-02 -5.590016e-02)	(-2.138033e-02 2.035269e-02 -5.590823e-02)	(2.445960e-05 4.157090e-05 8.065486e-06)
42            	(-2.198197e-02 2.081901e-02 -5.732929e-02)	(-2.200541e-02 2.077940e-02 -5.733242e-02)	(2.344005e-05 3.961176e-05 3.124537e-06)
43            	(-2.247443e-02 2.111129e-02 -5.853810e-02)	(-2.249719e-02 2.107276e-02 -5.853632e-02)	(2.275791e-05 3.852534e-05 -1.780971e-06)
44            	(-2.286456e-02 2.132096e-02 -5.951699e-02)	(-2.288706e-02 2.128279e-02 -5.951032e-02)	(2.250117e-05 3.817246e-05 -6.669804e-06)
45            	(-2.319663e-02 2.147968e-02 -6.025018e-02)	(-2.321940e-02 2.144119e-02 -6.023904e-02)	(2.276727e-05 3.849061e-05 -1.114646e-05)
46            	(-2.351250e-02 2.161860e-02 -6.079377e-02)	(-2.353608e-02 2.157921e-02 -6.077899e-02)	(2.358338e-05 3.938564e-05 -1.477406e-05)
47            	(-2.382312e-02 2.174159e-02 -6.119803e-02)	(-2.384795e-02 2.170094e-02 -6.118070e-02)	(2.482855e-05 4.065054e-05 -1.732276e-05)
48            	(-2.404389e-02 2.178349e-02 -6.136098e-02)	(-2.407017e-02 2.174147e-02 -6.134250e-02)	(2.627390e-05 4.201966e-05 -1.847378e-05)
49            	(-2.434923e-02 2.190028e-02 -6.151063e-02)	(-2.437685e-02 2.185706e-02 -6.149262e-02)	(2.762640e-05 4.321450e-05 -1.801040e-05)
50            	(-2.465174e-02 2.202026e-02 -6.154243e-02)	(-2.468064e-02 2.197600e-02 -6.152646e-02)	(2.889782e-05 4.425901e-05 -1.597477e-05)
51            	(-2.493463e-02 2.212441e-02 -6.144252e-02)	(-2.496460e-02 2.207930e-02 -6.143002e-02)	(2.996998e-05 4.510969e-05 -1.250831e-05)
52            	(-2.519203e-02 2.220659e-02 -6.121909e-02)	(-2.522277e-02 2.216088e-02 -6.121103e-02)	(3.073678e-05 4.570977e-05 -8.058540e-06)
53            	(-2.540308e-02 2.223959e-02 -6.090233e-02)	(-2.543425e-02 2.219353e-02 -6.089919e-02)	(3.116325e-05 4.605907e-05 -3.134048e-06)
54            	(-2.560563e-02 2.224486e-02 -6.053597e-02)	(-2.563693e-02 2.219866e-02 -6.053775e-02)	(3.129717e-05 4.620416e-05 1.784069e-06)
55            	(-2.580417e-02 2.222433e-02 -6.014321e-02)	(-2.583531e-02 2.217821e-02 -6.014935e-02)	(3.114120e-05 4.612518e-05 6.138579e-06)
56            	(-2.607940e-02 2.240127e-02 -5.984159e-02)	(-2.611014e-02 2.235539e-02 -5.985126e-02)	(3.073707e-05 4.587555e-05 9.673110e-06)
57            	(-2.633776e-02 2.253096e-02 -5.950871e-02)	(-2.636783e-02 2.248556e-02 -5.952101e-02)	(3.007340e-05 4.540096e-05 1.230726e-05)
58            	(-2.653148e-02 2.254684e-02 -5.917837e-02)	(-2.656063e-02 2.250221e-02 -5.919250e-02)	(2.914317e-05 4.462400e-05 1.413217e-05)
59            	(-2.666606e-02 2.246866e-02 -5.890774e-02)	(-2.669402e-02 2.242516e-02 -5.892300e-02)	(2.795660e-05 4.350194e-05 1.525927e-05)
60            	(-2.677779e-02 2.242142e-02 -5.877174e-02)	(-2.680433e-02 2.237937e-02 -5.878767e-02)	(2.654295e-05 4.204840e-05 1.592828e-05)
61            	(-2.686390e-02 2.236095e-02 -5.872915e-02)	(-2.688892e-02 2.232059e-02 -5.874541e-02)	(2.501504e-05 4.036064e-05 1.625826e-05)
62            	(-2.692214e-02 2.231368e-02 -5.883407e-02)	(-2.694562e-02 2.227514e-02 -5.885048e-02)	(2.347025e-05 3.853769e-05 1.641066e-05)
63            	(-2.693399e-02 2.227010e-02 -5.907830e-02)	(-2.695603e-02 2.223339e-02 -5.909472e-02)	(2.203651e-05 3.670813e-05 1.642084e-05)
64            	(-2.691230e-02 2.223678e-02 -5.941474e-02)	(-2.693312e-02 2.220178e-02 -5.943110e-02)	(2.081796e-05 3.500332e-05 1.636583e-05)
65            	(-2.686905e-02 2.221943e-02 -5.981903e-02)	(-2.688892e-02 2.218594e-02 -5.983542e-02)	(1.987126e-05 3.349545e-05 1.639229e-05)
66            	(-2.681849e-02 2.222399e-02 -6.026452e-02)	(-2.683765e-02 2.219183e-02 -6.028114e-02)	(1.915652e-05 3.216729e-05 1.662564e-05)
67            	(-2.681007e-02 2.232647e-02 -6.067835e-02)	(-2.682868e-02 2.229549e-02 -6.069558e-02)	(1.860888e-05 3.098286e-05 1.723028e-05)
68            	(-2.678744e-02 2.244008e-02 -6.102412e-02)	(-2.680560e-02 2.241018e-02 -6.104230e-02)	(1.815754e-05 2.989961e-05 1.818673e-05)
69            	(-2.675090e-02 2.254586e-02 -6.127186e-02)	(-2.676864e-02 2.251700e-02 -6.129138e-02)	(1.774061e-05 2.886074e-05 1.952466e-05)
70            	(-2.670531e-02 2.264540e-02 -6.137977e-02)	(-2.672266e-02 2.261752e-02 -6.140092e-02)	(1.734586e-05 2.787557e-05 2.114745e-05)
71            	(-2.665611e-02 2.273256e-02 -6.132713e-02)	(-2.667301e-02 2.270568e-02 -6.135005e-02)	(1.690228e-05 2.687985e-05 2.292439e-05)
72            	(-2.661243e-02 2.281539e-02 -6.109829e-02)	(-2.662881e-02 2.278953e-02 -6.112304e-02)	(1.638021e-05 2.585854e-05 2.475036e-05)
73            	(-2.658188e-02 2.289789e-02 -6.072606e-02)	(-2.659761e-02 2.287312e-02 -6.075253e-02)	(1.573165e-05 2.477553e-05 2.647102e-05)
74            	(-2.651896e-02 2.291412e-02 -6.023374e-02)	(-2.653388e-02 2.289052e-02 -6.026173e-02)	(1.492736e-05 2.360012e-05 2.798724e-05)
75            	(-2.652765e-02 2.301663e-02 -5.970324e-02)	(-2.654159e-02 2.299431e-02 -5.973251e-02)	(1.393632e-05 2.231551e-05 2.926565e-05)
76            	(-2.654795e-02 2.312207e-02 -5.914108e-02)	(-2.656071e-02 2.310114e-02 -5.917131e-02)	(1.276151e-05 2.092873e-05 3.023065e-05)
77            	(-2.653699e-02 2.321892e-02 -5.854524e-02)	(-2.654842e-02 2.319945e-02 -5.857613e-02)	(1.143548e-05 1.946716e-05 3.089404e-05)
78            	(-2.649871e-02 2.317420e-02 -5.795559e-02)	(-2.650868e-02 2.315629e-02 -5.798685e-02)	(9.962767e-06 1.790944e-05 3.125828e-05)
79            	(-2.650345e-02 2.328379e-02 -5.746179e-02)	(-2.651187e-02 2.326745e-02 -5.749324e-02)	(8.411008e-06 1.634733e-05 3.145394e-05)
80            	(-2.651954e-02 2.339971e-02 -5.701875e-02)	(-2.652636e-02 2.338490e-02 -5.705030e-02)	(6.817339e-06 1.481576e-05 3.155014e-05)
81            	(-2.654322e-02 2.351997e-02 -5.661925e-02)	(-2.654844e-02 2.350662e-02 -5.665083e-02)	(5.221527e-06 1.334415e-05 3.157952e-05)
82            	(-2.657571e-02 2.364117e-02 -5.628142e-02)	(-2.657937e-02 2.362921e-02 -5.631303e-02)	(3.657039e-06 1.195564e-05 3.160835e-05)
83            	(-2.661619e-02 2.375774e-02 -5.601423e-02)	(-2.661837e-02 2.374705e-02 -5.604588e-02)	(2.180005e-06 1.069301e-05 3.165498e-05)
84            	(-2.665861e-02 2.386543e-02 -5.580247e-02)	(-2.665942e-02 2.385586e-02 -5.583418e-02)	(8.174938e-07 9.567470e-06 3.170981e-05)
85            	(-2.669749e-02 2.396466e-02 -5.562300e-02)	(-2.669708e-02 2.395607e-02 -5.565476e-02)	(-4.072200e-07 8.593084e-06 3.176128e-05)
86            	(-2.672858e-02 2.406417e-02 -5.544515e-02)	(-2.672712e-02 2.405637e-02 -5.547692e-02)	(-1.460946e-06 7.795341e-06 3.176727e-05)
87            	(-2.675113e-02 2.416318e-02 -5.525024e-02)	(-2.674878e-02 2.415601e-02 -5.528197e-02)	(-2.341991e-06 7.163932e-06 3.172761e-05)
88            	(-2.675877e-02 2.426517e-02 -5.500388e-02)	(-2.675569e-02 2.425851e-02 -5.503557e-02)	(-3.074978e-06 6.658310e-06 3.168621e-05)
89            	(-2.675105e-02 2.437011e-02 -5.470191e-02)	(-2.674735e-02 2.436388e-02 -5.473355e-02)	(-3.705433e-06 6.227779e-06 3.164850e-05)
90            	(-2.673844e-02 2.446835e-02 -5.437165e-02)	(-2.673416e-02 2.446253e-02 -5.440329e-02)	(-4.282334e-06 5.819500e-06 3.163472e-05)
91            	(-2.672792e-02 2.455478e-02 -5.403644e-02)	(-2.672310e-02 2.454936e-02 -5.406808e-02)	(-4.820912e-06 5.421392e-06 3.164539e-05)
92            	(-2.670526e-02 2.455609e-02 -5.371852e-02)	(-2.669994e-02 2.455106e-02 -5.375020e-02)	(-5.319147e-06 5.028631e-06 3.168163e-05)
93            	(-2.668131e-02 2.455689e-02 -5.340121e-02)	(-2.667560e-02 2.455217e-02 -5.343297e-02)	(-5.716915e-06 4.715020e-06 3.175949e-05)
94            	(-2.665227e-02 2.455848e-02 -5.307660e-02)	(-2.664630e-02 2.455394e-02 -5.310848e-02)	(-5.968508e-06 4.540119e-06 3.187753e-05)
95            	(-2.666741e-02 2.468282e-02 -5.280560e-02)	(-2.666138e-02 2.467824e-02 -5.283762e-02)	(-6.028334e-06 4.580285e-06 3.202616e-05)
96            	(-2.662726e-02 2.468388e-02 -5.245521e-02)	(-2.662135e-02 2.467908e-02 -5.248743e-02)	(-5.908715e-06 4.795651e-06 3.222025e-05)
97            	(-2.658131e-02 2.468684e-02 -5.209231e-02)	(-2.657570e-02 2.468166e-02 -5.212478e-02)	(-5.607719e-06 5.179790e-06 3.246987e-05)
98            	(-2.653079e-02 2.469327e-02 -5.171918e-02)	(-2.652565e-02 2.468756e-02 -5.175194e-02)	(-5.146279e-06 5.709737e-06 3.275889e-05)
99            	(-2.652888e-02 2.488059e-02 -5.129448e-02)	(-2.652433e-02 2.487420e-02 -5.132758e-02)	(-4.544197e-06 6.393229e-06 3.309538e-05)
100           	(-2.648639e-02 2.489573e-02 -5.093493e-02)	(-2.648254e-02 2.488860e-02 -5.096831e-02)	(-3.853856e-06 7.134377e-06 3.338403e-05)
101           	(-2.644615e-02 2.491718e-02 -5.057770e-02)	(-2.644303e-02 2.490929e-02 -5.061129e-02)	(-3.117573e-06 7.886346e-06 3.358860e-05)
102           	(-2.640733e-02 2.494543e-02 -5.022554e-02)	(-2.640500e-02 2.493677e-02 -5.025923e-02)	(-2.333884e-06 8.658058e-06 3.368658e-05)
103           	(-2.641616e-02 2.514900e-02 -4.984657e-02)	(-2.641465e-02 2.513952e-02 -4.988021e-02)	(-1.508219e-06 9.482011e-06 3.364291e-05)
104           	(-2.638740e-02 2.518447e-02 -4.953678e-02)	(-2.638675e-02 2.517416e-02 -4.957017e-02)	(-6.519430e-07 1.031109e-05 3.338800e-05)
105           	(-2.635631e-02 2.522358e-02 -4.923312e-02)	(-2.635662e-02 2.521236e-02 -4.926604e-02)	(3.086546e-07 1.121206e-05 3.291612e-05)
106           	(-2.631915e-02 2.526556e-02 -4.892731e-02)	(-2.632056e-02 2.525334e-02 -4.895952e-02)	(1.408200e-06 1.222658e-05 3.221253e-05)
107           	(-2.630895e-02 2.543830e-02 -4.863348e-02)	(-2.631162e-02 2.542490e-02 -4.866477e-02)	(2.669514e-06 1.340654e-05 3.128716e-05)
108           	(-2.626003e-02 2.548297e-02 -4.829133e-02)	(-2.626406e-02 2.546831e-02 -4.832145e-02)	(4.024755e-06 1.466768e-05 3.012428e-05)
109           	(-2.621326e-02 2.563274e-02 -4.792388e-02)	(-2.621872e-02 2.561672e-02 -4.795265e-02)	(5.461839e-06 1.601953e-05 2.876380e-05)
110           	(-2.615944e-02 2.567788e-02 -4.755119e-02)	(-2.616636e-02 2.566050e-02 -4.757844e-02)	(6.919294e-06 1.738261e-05 2.724685e-05)
111           	(-2.609385e-02 2.580515e-02 -4.712537e-02)	(-2.610222e-02 2.578640e-02 -4.715104e-02)	(8.374853e-06 1.874458e-05 2.566274e-05)
112           	(-2.603916e-02 2.584990e-02 -4.671385e-02)	(-2.604891e-02 2.582988e-02 -4.673792e-02)	(9.753593e-06 2.001809e-05 2.406908e-05)
113           	(-2.597888e-02 2.589150e-02 -4.628348e-02)	(-2.598988e-02 2.587035e-02 -4.630603e-02)	(1.100125e-05 2.114226e-05 2.255212e-05)
114           	(-2.590602e-02 2.599820e-02 -4.581790e-02)	(-2.591814e-02 2.597607e-02 -4.583907e-02)	(1.211572e-05 2.213006e-05 2.117945e-05)
115           	(-2.582269e-02 2.607740e-02 -4.530752e-02)	(-2.583577e-02 2.605444e-02 -4.532751e-02)	(1.307525e-05 2.295483e-05 1.998917e-05)
116           	(-2.574391e-02 2.614378e-02 -4.475754e-02)	(-2.575779e-02 2.612017e-02 -4.477655e-02)	(1.387793e-05 2.360503e-05 1.901440e-05)
117           	(-2.567567e-02 2.620795e-02 -4.419271e-02)	(-2.569020e-02 2.618387e-02 -4.421098e-02)	(1.452721e-05 2.408493e-05 1.826805e-05)
118           	(-2.562272e-02 2.627618e-02 -4.364833e-02)	(-2.563774e-02 2.625178e-02 -4.366612e-02)	(1.502628e-05 2.439534e-05 1.778789e-05)
119           	(-2.557864e-02 2.633334e-02 -4.307950e-02)	(-2.559402e-02 2.630879e-02 -4.309708e-02)	(1.538042e-05 2.454213e-05 1.757920e-05)
120           	(-2.554522e-02 2.638874e-02 -4.251652e-02)	(-2.556080e-02 2.636422e-02 -4.253412e-02)	(1.557996e-05 2.452088e-05 1.760924e-05)
121           	(-2.551982e-02 2.644345e-02 -4.196040e-02)	(-2.553544e-02 2.641911e-02 -4.197822e-02)	(1.561646e-05 2.433452e-05 1.781030e-05)
122           	(-2.549859e-02 2.649131e-02 -4.138748e-02)	(-2.551408e-02 2.646732e-02 -4.140558e-02)	(1.548945e-05 2.399349e-05 1.810176e-05)
123           	(-2.547650e-02 2.653981e-02 -4.081528e-02)	(-2.549171e-02 2.651629e-02 -4.083369e-02)	(1.521043e-05 2.351840e-05 1.840933e-05)
124           	(-2.545184e-02 2.658979e-02 -4.023758e-02)	(-2.546665e-02 2.656684e-02 -4.025625e-02)	(1.481225e-05 2.294915e-05 1.866422e-05)
125           	(-2.542610e-02 2.665382e-02 -3.969470e-02)	(-2.544043e-02 2.663149e-02 -3.971352e-02)	(1.433055e-05 2.232731e-05 1.882033e-05)
126           	(-2.539684e-02 2.670259e-02 -3.909623e-02)	(-2.541063e-02 2.668091e-02 -3.911509e-02)	(1.379163e-05 2.167958e-05 1.886041e-05)
127           	(-2.536428e-02 2.675097e-02 -3.849330e-02)	(-2.537751e-02 2.672993e-02 -3.851207e-02)	(1.323036e-05 2.104102e-05 1.876998e-05)
128           	(-2.532947e-02 2.680032e-02 -3.789068e-02)	(-2.534214e-02 2.677988e-02 -3.790922e-02)	(1.267496e-05 2.044106e-05 1.854329e-05)
129           	(-2.529468e-02 2.685283e-02 -3.729505e-02)	(-2.530683e-02 2.683293e-02 -3.731324e-02)	(1.214795e-05 1.990243e-05 1.818504e-05)
130           	(-2.526174e-02 2.692111e-02 -3.675688e-02)	(-2.527340e-02 2.690166e-02 -3.677457e-02)	(1.166793e-05 1.944589e-05 1.769291e-05)
131           	(-2.523283e-02 2.699110e-02 -3.623249e-02)	(-2.524408e-02 2.697202e-02 -3.624958e-02)	(1.125043e-05 1.908287e-05 1.708680e-05)
132           	(-2.522078e-02 2.703273e-02 -3.566844e-02)	(-2.523167e-02 2.701393e-02 -3.568482e-02)	(1.089277e-05 1.879910e-05 1.637708e-05)
133           	(-2.519809e-02 2.708164e-02 -3.512154e-02)	(-2.520871e-02 2.706303e-02 -3.513711e-02)	(1.061602e-05 1.860814e-05 1.557447e-05)
134           	(-2.516303e-02 2.713482e-02 -3.461561e-02)	(-2.517347e-02 2.711630e-02 -3.463032e-02)	(1.043626e-05 1.852094e-05 1.470885e-05)
135           	(-2.510027e-02 2.720560e-02 -3.418108e-02)	(-2.511065e-02 2.718705e-02 -3.419489e-02)	(1.037628e-05 1.855527e-05 1.381122e-05)
136           	(-2.505307e-02 2.726846e-02 -3.377310e-02)	(-2.506351e-02 2.724976e-02 -3.378599e-02)	(1.043536e-05 1.869797e-05 1.289080e-05)
137           	(-2.498617e-02 2.734639e-02 -3.343222e-02)	(-2.499679e-02 2.732744e-02 -3.344419e-02)	(1.062491e-05 1.895149e-05 1.196378e-05)
138           	(-2.492505e-02 2.742125e-02 -3.314915e-02)	(-2.493599e-02 2.740195e-02 -3.316020e-02)	(1.093719e-05 1.930054e-05 1.105060e-05)
139           	(-2.486885e-02 2.749771e-02 -3.289199e-02)	(-2.488020e-02 2.747800e-02 -3.290216e-02)	(1.134947e-05 1.971520e-05 1.016953e-05)
140           	(-2.481306e-02 2.757276e-02 -3.264363e-02)	(-2.482490e-02 2.755259e-02 -3.265296e-02)	(1.183735e-05 2.016769e-05 9.330357e-06)
141           	(-2.475746e-02 2.763695e-02 -3.236812e-02)	(-2.476984e-02 2.761632e-02 -3.237665e-02)	(1.237920e-05 2.063393e-05 8.533038e-06)
142           	(-2.468561e-02 2.769607e-02 -3.206574e-02)	(-2.469857e-02 2.767497e-02 -3.207352e-02)	(1.296233e-05 2.110188e-05 7.781349e-06)
143           	(-2.459396e-02 2.774985e-02 -3.170352e-02)	(-2.460753e-02 2.772828e-02 -3.171059e-02)	(1.357916e-05 2.156737e-05 7.073144e-06)
144           	(-2.448460e-02 2.779909e-02 -3.129813e-02)	(-2.449882e-02 2.777707e-02 -3.130452e-02)	(1.421809e-05 2.202529e-05 6.389996e-06)
145           	(-2.436237e-02 2.784427e-02 -3.085585e-02)	(-2.437724e-02 2.782180e-02 -3.086157e-02)	(1.486585e-05 2.246850e-05 5.721863e-06)
146           	(-2.423504e-02 2.788523e-02 -3.039462e-02)	(-2.425054e-02 2.786234e-02 -3.039968e-02)	(1.550136e-05 2.288409e-05 5.059332e-06)
147           	(-2.411060e-02 2.792129e-02 -2.994127e-02)	(-2.412670e-02 2.789803e-02 -2.994568e-02)	(1.610044e-05 2.325576e-05 4.403692e-06)
148           	(-2.395665e-02 2.795652e-02 -2.952426e-02)	(-2.397331e-02 2.793293e-02 -2.952803e-02)	(1.665446e-05 2.358428e-05 3.766441e-06)
149           	(-2.381440e-02 2.798842e-02 -2.910286e-02)	(-2.383154e-02 2.796457e-02 -2.910602e-02)	(1.713884e-05 2.385150e-05 3.157166e-06)
150           	(-2.366297e-02 2.782066e-02 -2.869651e-02)	(-2.368045e-02 2.779672e-02 -2.869906e-02)	(1.748131e-05 2.394314e-05 2.547041e-06)
151           	(-2.362142e-02 2.789053e-02 -2.834685e-02)	(-2.363916e-02 2.786656e-02 -2.834880e-02)	(1.773717e-05 2.397205e-05 1.952210e-06)
152           	(-2.356674e-02 2.791850e-02 -2.801177e-02)	(-2.358464e-02 2.789457e-02 -2.801317e-02)	(1.790409e-05 2.392941e-05 1.393587e-06)
153           	(-2.348113e-02 2.788201e-02 -2.770988e-02)	(-2.349910e-02 2.785823e-02 -2.771074e-02)	(1.796933e-05 2.378233e-05 8.672532e-07)
154           	(-2.335666e-02 2.784972e-02 -2.737862e-02)	(-2.337463e-02 2.782615e-02 -2.737901e-02)	(1.796708e-05 2.357289e-05 3.847982e-07)
155           	(-2.323334e-02 2.781182e-02 -2.707130e-02)	(-2.325124e-02 2.778852e-02 -2.707126e-02)	(1.789933e-05 2.330560e-05 -3.943986e-08)
156           	(-2.310639e-02 2.776782e-02 -2.677316e-02)	(-2.312416e-02 2.774484e-02 -2.677276e-02)	(1.777190e-05 2.298367e-05 -4.003671e-07)
157           	(-2.296804e-02 2.771391e-02 -2.646603e-02)	(-2.298563e-02 2.769129e-02 -2.646533e-02)	(1.759848e-05 2.261919e-05 -6.951608e-07)
158           	(-2.281631e-02 2.744847e-02 -2.619364e-02)	(-2.283363e-02 2.742636e-02 -2.619271e-02)	(1.731947e-05 2.211038e-05 -9.343707e-07)
159           	(-2.270797e-02 2.741722e-02 -2.597282e-02)	(-2.272501e-02 2.739560e-02 -2.597168e-02)	(1.704163e-05 2.162180e-05 -1.139528e-06)
160           	(-2.259932e-02 2.738568e-02 -2.574448e-02)	(-2.261607e-02 2.736453e-02 -2.574319e-02)	(1.675082e-05 2.115028e-05 -1.291446e-06)
161           	(-2.249454e-02 2.735300e-02 -2.550663e-02)	(-2.251098e-02 2.733231e-02 -2.550523e-02)	(1.644429e-05 2.068439e-05 -1.395096e-06)
162           	(-2.239555e-02 2.732056e-02 -2.525282e-02)	(-2.241167e-02 2.730034e-02 -2.525136e-02)	(1.612446e-05 2.022295e-05 -1.457273e-06)
163           	(-2.230353e-02 2.729038e-02 -2.497955e-02)	(-2.231932e-02 2.727062e-02 -2.497807e-02)	(1.579779e-05 1.976896e-05 -1.481053e-06)
164           	(-2.220946e-02 2.726416e-02 -2.466701e-02)	(-2.222493e-02 2.724483e-02 -2.466553e-02)	(1.547585e-05 1.933117e-05 -1.478699e-06)
165           	(-2.213003e-02 2.724659e-02 -2.434838e-02)	(-2.214520e-02 2.722768e-02 -2.434692e-02)	(1.516589e-05 1.891557e-05 -1.459205e-06)
166           	(-2.206648e-02 2.724122e-02 -2.403078e-02)	(-2.208135e-02 2.722269e-02 -2.402935e-02)	(1.487256e-05 1.852560e-05 -1.432818e-06)
167           	(-2.200337e-02 2.725794e-02 -2.371808e-02)	(-2.201798e-02 2.723976e-02 -2.371667e-02)	(1.461035e-05 1.817583e-05 -1.410220e-06)
168           	(-2.196500e-02 2.729036e-02 -2.344775e-02)	(-2.197937e-02 2.727250e-02 -2.344635e-02)	(1.437361e-05 1.786058e-05 -1.402930e-06)
169           	(-2.194346e-02 2.733039e-02 -2.322052e-02)	(-2.195762e-02 2.731282e-02 -2.321911e-02)	(1.416007e-05 1.757287e-05 -1.408868e-06)
170           	(-2.192737e-02 2.736732e-02 -2.304173e-02)	(-2.194134e-02 2.735002e-02 -2.304030e-02)	(1.396636e-05 1.730466e-05 -1.426555e-06)
171           	(-2.190537e-02 2.740134e-02 -2.288341e-02)	(-2.191917e-02 2.738428e-02 -2.288196e-02)	(1.379544e-05 1.705605e-05 -1.452006e-06)
172           	(-2.187404e-02 2.743145e-02 -2.274222e-02)	(-2.188768e-02 2.741462e-02 -2.274073e-02)	(1.364681e-05 1.682558e-05 -1.494790e-06)
173           	(-2.183987e-02 2.745410e-02 -2.262237e-02)	(-2.185339e-02 2.743749e-02 -2.262081e-02)	(1.351746e-05 1.660896e-05 -1.562307e-06)
174           	(-2.180487e-02 2.747188e-02 -2.253709e-02)	(-2.181827e-02 2.745547e-02 -2.253542e-02)	(1.340283e-05 1.640206e-05 -1.667702e-06)
175           	(-2.176346e-02 2.749170e-02 -2.246146e-02)	(-2.177676e-02 2.747549e-02 -2.245966e-02)	(1.330224e-05 1.620612e-05 -1.805181e-06)
176           	(-2.171783e-02 2.751233e-02 -2.239807e-02)	(-2.173104e-02 2.749631e-02 -2.239610e-02)	(1.321160e-05 1.601900e-05 -1.969411e-06)
177           	(-2.167035e-02 2.753141e-02 -2.235023e-02)	(-2.168347e-02 2.751558e-02 -2.234808e-02)	(1.312283e-05 1.583379e-05 -2.145433e-06)
178           	(-2.162374e-02 2.754631e-02 -2.231978e-02)	(-2.163676e-02 2.753067e-02 -2.231746e-02)	(1.302355e-05 1.563927e-05 -2.317433e-06)
179           	(-2.161517e-02 2.754578e-02 -2.241134e-02)	(-2.162806e-02 2.753037e-02 -2.240887e-02)	(1.288639e-05 1.540812e-05 -2.471321e-06)
180           	(-2.155590e-02 2.754507e-02 -2.236141e-02)	(-2.156863e-02 2.752992e-02 -2.235884e-02)	(1.272389e-05 1.515329e-05 -2.565143e-06)
181           	(-2.148859e-02 2.753740e-02 -2.228775e-02)	(-2.150112e-02 2.752252e-02 -2.228517e-02)	(1.252793e-05 1.487139e-05 -2.579091e-06)
182           	(-2.147743e-02 2.751711e-02 -2.236951e-02)	(-2.148970e-02 2.750257e-02 -2.236697e-02)	(1.226973e-05 1.453330e-05 -2.536493e-06)
183           	(-2.139873e-02 2.749090e-02 -2.224538e-02)	(-2.141070e-02 2.747674e-02 -2.224298e-02)	(1.197726e-05 1.416360e-05 -2.396894e-06)
184           	(-2.132610e-02 2.746121e-02 -2.211927e-02)	(-2.133776e-02 2.744745e-02 -2.211709e-02)	(1.165256e-05 1.376829e-05 -2.175934e-06)
185           	(-2.132140e-02 2.743346e-02 -2.218937e-02)	(-2.133269e-02 2.742013e-02 -2.218743e-02)	(1.128191e-05 1.333140e-05 -1.932492e-06)
186           	(-2.124107e-02 2.740742e-02 -2.201538e-02)	(-2.125198e-02 2.739453e-02 -2.201375e-02)	(1.090414e-05 1.288976e-05 -1.625873e-06)
187           	(-2.119210e-02 2.718963e-02 -2.207958e-02)	(-2.120256e-02 2.717729e-02 -2.207825e-02)	(1.045957e-05 1.234133e-05 -1.335100e-06)
188           	(-2.112088e-02 2.718901e-02 -2.193653e-02)	(-2.113094e-02 2.717716e-02 -2.193551e-02)	(1.006184e-05 1.185509e-05 -1.025120e-06)
189           	(-2.107097e-02 2.720146e-02 -2.184318e-02)	(-2.108067e-02 2.719003e-02 -2.184248e-02)	(9.696282e-06 1.143127e-05 -6.929048e-07)
190           	(-2.104651e-02 2.722189e-02 -2.180982e-02)	(-2.105587e-02 2.721084e-02 -2.180944e-02)	(9.355183e-06 1.104903e-05 -3.782304e-07)
191           	(-2.104222e-02 2.724224e-02 -2.182660e-02)	(-2.105126e-02 2.723154e-02 -2.182651e-02)	(9.035829e-06 1.069688e-05 -8.309957e-08)
192           	(-2.110505e-02 2.727781e-02 -2.207017e-02)	(-2.111378e-02 2.726746e-02 -2.207031e-02)	(8.725637e-06 1.035343e-05 1.394651e-07)
193           	(-2.108396e-02 2.725294e-02 -2.204628e-02)	(-2.109239e-02 2.724293e-02 -2.204668e-02)	(8.429836e-06 1.001596e-05 4.044748e-07)
194           	(-2.105969e-02 2.721993e-02 -2.201818e-02)	(-2.106785e-02 2.721023e-02 -2.201889e-02)	(8.162102e-06 9.700047e-06 7.075727e-07)
195           	(-2.102967e-02 2.718621e-02 -2.197993e-02)	(-2.103759e-02 2.717680e-02 -2.198095e-02)	(7.917374e-06 9.403483e-06 1.023568e-06)
196           	(-2.099698e-02 2.715421e-02 -2.193943e-02)	(-2.100468e-02 2.714508e-02 -2.194076e-02)	(7.694564e-06 9.127808e-06 1.332949e-06)
197           	(-2.096398e-02 2.712377e-02 -2.190464e-02)	(-2.097147e-02 2.711490e-02 -2.190627e-02)	(7.489337e-06 8.871585e-06 1.624531e-06)
198           	(-2.097851e-02 2.711661e-02 -2.198578e-02)	(-2.098580e-02 2.710798e-02 -2.198764e-02)	(7.288822e-06 8.625876e-06 1.859769e-06)
199           	(-2.098659e-02 2.710472e-02 -2.206325e-02)	(-2.099367e-02 2.709634e-02 -2.206532e-02)	(7.084439e-06 8.381572e-06 2.065938e-06)
200           	(-2.098697e-02 2.708609e-02 -2.213446e-02)	(-2.099384e-02 2.707795e-02 -2.213673e-02)	(6.872212e-06 8.136414e-06 2.272483e-06)
201           	(-2.097933e-02 2.705945e-02 -2.219604e-02)	(-2.098598e-02 2.705157e-02 -2.219854e-02)	(6.645632e-06 7.884642e-06 2.503133e-06)
202           	(-2.096377e-02 2.702409e-02 -2.224378e-02)	(-2.097017e-02 2.701647e-02 -2.224655e-02)	(6.397346e-06 7.620236e-06 2.768912e-06)
203           	(-2.094017e-02 2.698011e-02 -2.227287e-02)	(-2.094629e-02 2.697278e-02 -2.227595e-02)	(6.122574e-06 7.338325e-06 3.075964e-06)
204           	(-2.091198e-02 2.693023e-02 -2.228644e-02)	(-2.091780e-02 2.692320e-02 -2.228986e-02)	(5.816407e-06 7.034209e-06 3.418017e-06)
205           	(-2.081524e-02 2.683456e-02 -2.216497e-02)	(-2.082073e-02 2.682785e-02 -2.216880e-02)	(5.482738e-06 6.707691e-06 3.823270e-06)
206           	(-2.079575e-02 2.678431e-02 -2.218667e-02)	(-2.080086e-02 2.677795e-02 -2.219088e-02)	(5.115243e-06 6.357753e-06 4.213183e-06)
207           	(-2.072391e-02 2.668439e-02 -2.213502e-02)	(-2.072862e-02 2.667842e-02 -2.213964e-02)	(4.709654e-06 5.970541e-06 4.624505e-06)
208           	(-2.067210e-02 2.659572e-02 -2.213003e-02)	(-2.067637e-02 2.659017e-02 -2.213506e-02)	(4.275541e-06 5.556747e-06 5.034061e-06)
209           	(-2.064927e-02 2.653209e-02 -2.218237e-02)	(-2.065308e-02 2.652697e-02 -2.218779e-02)	(3.817079e-06 5.122020e-06 5.421320e-06)