# Probe 0 (-1 0.395 0)
# Probe 1 (1 0.395 0)
#       Probe             0             1
#        Time
  0.000600024       898.492       897.662
   0.00132009        893.16       892.355
   0.00218416        905.06       904.448
   0.00322105       905.376       904.153
   0.00446527       906.049       904.636
   0.00595826       907.287       905.586
   0.00775017       908.685       906.705
   0.00990014       910.109        907.88
    0.0124803       911.486       909.003
    0.0155763        912.76       910.026
    0.0192904       913.824       910.869
    0.0237454       914.561       911.426
    0.0290905       914.833       911.587
    0.0351305       914.545       911.309
    0.0421929       913.749       910.493
    0.0485409       912.781       909.601
     0.055717       911.555       908.358
    0.0604756       910.965       907.627
     0.066007       909.704       906.407
    0.0724483       908.761       905.445
    0.0775493       908.035       904.753
     0.083273       907.113       903.737
    0.0884595       906.469       902.967
    0.0924045       905.948       902.251
     0.096957       905.305       901.488
     0.102275       904.598       900.605
      0.10827       903.748       899.602
     0.112487       903.104       898.845
     0.117546       902.348       898.006
     0.123436       901.401       896.945
     0.130218       900.242       895.718
     0.138188       898.825       894.195
     0.142805       898.074       893.455
     0.148017       897.108       892.335
     0.153898       896.098       891.227
      0.16025       895.005       890.033
     0.166728       893.889       888.877
     0.172725        892.88       887.865
     0.178692       891.951       886.829
     0.181896       891.714       886.596
     0.185521       891.055       885.831
     0.189598       890.358       885.126
     0.194175       889.663       884.385
      0.19937       888.876       883.599
     0.205401       888.017       882.735
     0.212231       887.133       881.867
     0.219916       886.223       881.004
     0.225209       885.946       880.803
     0.231215       885.167        879.98
     0.233741       885.772       880.784
     0.236771        884.59       879.601
     0.240407       884.212       879.255
      0.24477       883.853       878.962
     0.249647       883.708       878.773
     0.255336       883.426       878.562
     0.257981       883.933       879.092
     0.261155       882.886       878.395
     0.264837       882.838       878.499
     0.269076       882.646       878.377
      0.27385       882.568       878.376
     0.279579        882.48       878.481
     0.285225       882.445       878.642
     0.291562       882.389       878.804
     0.298718       882.362       879.031
     0.302497       882.647       879.407
     0.304653       882.708       879.746
      0.30724       882.471       879.614
     0.310229       882.416        879.63
      0.31362       882.363       879.707
     0.317516       882.341       879.837
     0.322179       882.342       880.004
     0.327775       882.367       880.224
     0.332415        882.47        880.52
     0.335424       882.571       880.789
     0.338821        882.49       880.756
     0.342868       882.467       880.888
     0.347724        882.47       881.062
     0.352928       882.503       881.309
     0.359018       882.582       881.601
     0.365924       882.766       881.978
     0.373609       883.014       882.424
     0.382273       883.294       883.022
     0.387932       883.629        883.48
      0.39432       883.698       883.897
     0.401562       883.853       884.299
     0.404478       884.292       884.662
     0.407739       884.122       884.717
     0.411461       884.207       884.851
     0.415777       884.303       885.001
     0.420957       884.451       885.182
     0.426974       884.633       885.441
     0.433709       884.884         885.7
     0.439897        885.14       885.842
     0.446977       885.397       886.005
     0.453472       885.677       886.093
     0.454832       886.173       885.872
     0.456393       886.282       886.161
     0.458215       886.246       886.148
     0.460312        886.28       886.202
      0.46274        886.36       886.219
     0.465556       886.517       886.235
     0.468825       886.678       886.272
     0.472589       886.892       886.309
     0.476828       887.162       886.357
     0.481486       887.468       886.402
     0.486686       887.845       886.481
      0.49264       888.332       886.547
     0.499511       888.953       886.632
      0.50762       889.766       886.666
     0.516605       890.844       886.683
     0.519204       892.319        886.47
     0.521584       892.239       886.658
     0.524299       892.493        886.72
     0.527559       892.915        886.75
     0.531472       893.482       886.773
     0.536166       894.205       886.781
     0.541718       895.162       886.774
     0.548382       896.446       886.741
     0.552256       897.807       886.786
     0.556695       898.711       886.688
     0.561643       899.998       886.662
     0.566636       901.517       886.633
     0.572198       903.299       886.586
      0.57502       905.051       886.612
     0.578236       905.986       886.556
     0.581873       907.291       886.554
     0.586234       908.991       886.532
     0.591216       911.207       886.516
     0.592868       913.792       886.675
     0.594052       914.888       886.562
     0.595374       915.002       886.539
     0.596898       915.358       886.507
     0.598726       915.956       886.504
      0.60092       916.906       886.499
     0.603553       918.244       886.512
     0.606711       919.987       886.533
     0.610502       922.298       886.571
      0.61505       925.332        886.62
     0.620511       929.293       886.654
     0.627067       934.515       886.678
     0.634607       941.321       886.773
     0.643183       950.061       886.932
     0.652717       961.304       887.161
     0.660782       972.825       887.411
     0.669358       985.894       887.726
     0.677734       1000.09       888.061
     0.685048       1013.51       888.403
     0.690234       1023.67       888.694
     0.696098       1034.44       888.872
      0.70276       1047.62       889.132
     0.708341       1059.28       889.395
     0.714708       1073.79       889.654
     0.719507       1084.38       889.939
     0.725222       1099.07       890.126
     0.729313       1108.37       890.378
     0.734063       1122.65       890.546
     0.739409       1138.32       890.793
     0.745401       1155.87       891.091
     0.749743       1165.79       891.346
     0.754784       1180.72       891.577
       0.7606       1197.37       891.861
     0.765701       1209.72       892.089
     0.771542       1224.84       892.427
     0.778077       1240.14       892.791
     0.784583       1254.34       893.175
     0.791179       1267.84       893.604
     0.795744       1277.44       893.898
     0.798752       1283.68       894.135
     0.802343       1290.25       894.351
     0.806486       1297.84        894.57
     0.811443       1305.82       894.811
     0.817359       1314.32       895.093
      0.82425       1322.98       895.404
     0.832099       1331.13       895.738
     0.836852       1336.39       895.898
      0.84238       1340.66       896.093
     0.848728       1345.54       896.298
     0.851385       1346.38       896.263
     0.854562       1349.09       896.421
     0.858372       1352.09       896.529
     0.862723        1355.9       896.629
      0.86794       1361.57       896.754
     0.874201       1368.05       896.885
     0.881205       1374.27       897.019
     0.889493       1380.96       897.233
     0.891459       1379.22       897.088
     0.893728       1383.83       897.274
      0.89628       1385.89        897.34
     0.899265       1388.39       897.395
     0.902651       1390.68       897.425
     0.906672       1392.03       897.458
     0.911426       1392.88       897.494
     0.917128       1393.57       897.524
     0.923899       1393.59       897.554
     0.931845       1393.24       897.551
     0.935166       1392.49       897.404
     0.939015       1392.79       897.477
     0.943386        1392.1       897.427
     0.948352       1391.44       897.389
     0.953879       1390.76        897.32
     0.960182       1390.03        897.22
     0.967747       1389.19       897.083
     0.976828       1387.95       896.899
     0.981294       1386.56       896.684
     0.986459        1386.1       896.587
     0.991546       1385.12       896.433
     0.996992        1384.1       896.315
      1.00319       1382.92       896.188
      1.01028       1381.54       896.013
      1.01842       1379.82       895.768
      1.02806       1377.81       895.453
      1.03937       1375.51       895.044
      1.04576       1373.83       894.747
      1.05131       1372.51       894.499
      1.05673       1371.41       894.267
      1.06283        1370.4        894.01
      1.07008       1369.26       893.683
      1.07877       1368.12       893.256
      1.08304       1367.21       892.951
      1.08807       1366.64       892.709
      1.09396       1366.22       892.391
      1.10071       1365.86       891.993
       1.1067       1365.47       891.597
      1.11366       1365.45       891.154
      1.12172       1365.53       890.627
      1.13139       1365.95       889.974
      1.14217       1366.69       889.204
      1.14801       1366.98       888.772
      1.14978       1367.01       888.473
       1.1519       1367.01       888.368
      1.15445        1367.3       888.232
      1.15751       1367.71       888.037
      1.16117       1368.22       887.781
      1.16557       1368.86       887.458
      1.17084       1369.63       887.058
      1.17694       1370.58        886.59
      1.18393       1371.68       886.048
      1.18957       1372.48       885.645
      1.19379       1373.11       885.313
      1.19857       1373.86       884.889
      1.20422       1374.78       884.437
      1.21088       1375.83       883.905
      1.21854       1376.92       883.301
      1.22719       1378.04       882.639
      1.23689       1379.08       881.918
      1.24122       1379.35       881.649
      1.24622       1379.82       881.288
      1.25179       1380.24       880.927
      1.25637       1380.48       880.667
      1.26097       1380.71       880.404
      1.26542       1380.86       880.171
      1.27026       1380.99       879.915
      1.27569       1381.05       879.644
      1.28174       1381.01       879.373
      1.28879       1380.84       879.089
      1.29684       1380.51       878.842
      1.30588       1379.98       878.636
      1.31465        1379.3       878.564
       1.3241       1378.42       878.407
      1.32691       1378.15       879.093
      1.32926       1377.89        878.56
      1.33189       1377.64        878.45
       1.3349       1377.33       878.398
      1.33799          1377       878.431
      1.34162        1376.6        878.42
      1.34592       1376.14       878.452
      1.35091       1375.59       878.549
      1.35678       1374.94       878.691
      1.36354       1374.22       878.889
      1.37118        1373.4       879.165
       1.3797       1372.54        879.55
      1.38849       1371.75       880.025
      1.39611       1371.19       880.515
      1.40461       1370.58       881.061
      1.41331       1370.12       881.681
      1.41917       1369.91       882.195
      1.42488       1369.76       882.638
      1.43067       1369.65       883.092
      1.43468       1369.63       883.494
       1.4392        1369.6       883.829
      1.44446       1369.62       884.238
      1.45041       1369.69       884.729
      1.45725       1369.82       885.314
      1.46498       1370.04        885.99
      1.46855       1370.16       886.408
      1.47274       1370.32       886.751
      1.47759       1370.52       887.157
      1.48312       1370.77       887.633
      1.48956       1371.08       888.192
      1.49692       1371.43        888.83
      1.50518       1371.85       889.539
      1.51394       1372.28       890.277
      1.52253       1372.69       890.978
      1.53099       1373.05       891.638
      1.53933       1373.34       892.258
      1.54755       1373.57       892.835
      1.55569       1373.72       893.376
      1.56375       1373.79        893.88
      1.56688       1373.61       894.001
      1.57062       1373.79       894.226
      1.57511       1373.84       894.502
       1.5804       1373.79       894.802
      1.58396       1373.69       894.947
      1.58813       1373.61       895.156
       1.5931       1373.48       895.404
      1.59886       1373.29       895.663
      1.60541       1373.03       895.927
      1.61276       1372.67       896.188
      1.62077       1372.15       896.439
      1.62883       1371.59       896.642
      1.63696       1370.96       896.835
      1.64516       1370.26        897.04
       1.6534       1369.51       897.274
      1.66164       1368.71       897.486
      1.66989       1367.88       897.663
      1.67813       1367.02       897.758
      1.68553       1366.25       897.817
      1.69375       1365.35       897.879
      1.70206       1364.46       897.902
      1.71041       1363.59       897.906
      1.71431       1363.23       897.835
      1.71897       1362.74       897.885
      1.72436       1362.19        897.89
       1.7288       1361.76       897.869
      1.73401       1361.25       897.858
      1.73999       1360.68       897.839
      1.74578       1360.15       897.809
      1.75241       1359.56        897.78
      1.75986       1358.93       897.752
      1.76798       1358.28       897.733
      1.77622       1357.67       897.723
      1.78445       1357.08       897.726
      1.79267       1356.53       897.751
      1.80089       1356.01       897.798
      1.80912       1355.52       897.886
      1.81734       1355.06       898.037
      1.82557       1354.62        898.27
      1.83379       1354.21       898.557
      1.84201       1353.81        898.91
      1.85022       1353.44       899.361
      1.85836       1353.08       899.893
      1.86643       1352.76       900.467
      1.87447       1352.44       901.054
      1.88246       1352.14       901.805
      1.89041       1351.82       902.679
      1.89833       1351.51       903.668
      1.90622       1351.24        904.78
      1.91409       1350.98        906.06
      1.92194       1350.72        907.45
      1.92977       1350.47       909.021
      1.93759       1350.24       910.745
      1.94334       1350.05       912.376
      1.94987       1349.87       913.979
      1.95301       1349.75       915.528
      1.95661       1349.67       916.387
      1.96079       1349.56       917.548
      1.96574       1349.44       919.025
      1.97146        1349.3       920.891
      1.97793       1349.14       923.183
      1.98516       1348.97       925.961
      1.99269       1348.79       929.178
      2.00019       1348.62       932.698
      2.00766       1348.46       936.502
      2.01506        1348.3         940.6
      2.02243       1348.16       945.006
      2.02979       1348.02       949.741
      2.03708       1347.87       954.821
      2.04433       1347.79       960.251
      2.05152       1347.68       966.025
      2.05866       1347.59       972.181
      2.06575       1347.53       978.723
      2.07278       1347.46       985.676
      2.07977       1347.42       993.048
      2.08672       1347.41       1000.84
      2.09362       1347.38       1009.05
      2.10051       1347.39       1017.72
      2.10737       1347.42       1026.87
       2.1142       1347.44       1036.45
      2.12103       1347.49       1046.52
      2.12783       1347.57       1057.09
      2.13462       1347.64       1068.18
      2.14141       1347.73       1079.75
       2.1482       1347.84       1091.78
      2.15498       1347.96       1104.33
      2.16177        1348.1       1117.34
      2.16856       1348.23       1130.75
      2.17535        1348.4       1144.54
      2.18215       1348.59       1158.61
      2.18898       1348.74       1172.97
      2.19583       1348.93       1187.52
      2.20272       1349.13       1202.21
      2.20968       1349.34       1216.76
      2.21669       1349.56       1231.56
      2.22377        1349.8       1246.13
      2.23095       1350.04       1260.46
      2.23808       1350.29       1274.42
      2.24517       1350.55       1287.76
      2.25219       1350.81       1300.44
      2.25917       1351.08       1312.42
      2.26612       1351.35        1323.8
      2.27303       1351.62       1334.55
       2.2799        1351.9       1344.62
      2.28675       1352.18       1354.17
       2.2936       1352.46       1363.14
      2.30043       1352.75       1371.56
      2.30727       1353.05       1379.49
       2.3141       1353.35       1386.87
      2.32094       1353.65       1393.77
      2.32775       1353.96       1400.13
      2.33128       1354.13       1404.16
      2.33547       1354.31       1407.37
      2.34035       1354.53       1411.06
       2.3459       1354.78       1415.19
      2.35213       1355.07       1419.22
      2.35887       1355.38       1423.32
       2.3656       1355.69       1427.12
      2.37234       1355.99        1430.5
       2.3791        1356.3       1433.46
      2.38587       1356.59       1436.09
      2.39266       1356.89       1438.31
      2.39947       1357.17       1440.21
      2.40629       1357.45       1441.77
      2.41312       1357.73          1443
      2.41992       1357.99       1443.93
      2.42671       1358.24       1444.59
      2.43349       1358.49       1444.97
      2.44026       1358.72       1445.15
      2.44696       1358.94       1445.12
      2.45361       1359.14       1444.91
       2.4602       1359.34       1444.54
      2.46675       1359.52          1444
      2.47325        1359.7       1443.35
      2.47969       1359.86       1442.52
       2.4861       1360.01       1441.61
      2.49247       1360.15       1440.49
       2.4988       1360.28       1439.31
       2.5051        1360.4       1438.01
      2.51137       1360.51       1436.67
      2.51761       1360.62       1435.22
      2.52381       1360.72       1433.65
         2.53       1360.82       1432.01
      2.53616       1360.92        1430.3
      2.54231       1361.02        1428.5
      2.54842       1361.11       1426.62
      2.55452       1361.22       1424.65
       2.5606       1361.33       1422.65
      2.56667       1361.44       1420.59
      2.57272       1361.54       1418.46
      2.57876       1361.66        1416.3
       2.5848        1361.8       1414.08
      2.59082       1361.94       1411.84
      2.59683       1362.09       1409.56
      2.60284       1362.26       1407.22
      2.60813        1362.4       1405.22
      2.61402       1362.59       1402.81
      2.62002       1362.79       1400.39
      2.62484       1362.95       1398.53
      2.63027       1363.14       1396.22
      2.63625       1363.36       1393.71
      2.64223       1363.59       1391.23
      2.64822       1363.84       1388.73
       2.6542       1364.09       1386.22
      2.66019       1364.34        1383.7
      2.66617       1364.59       1381.19
      2.67216       1364.86       1378.66
      2.67814       1365.12       1376.16
      2.68412       1365.38       1373.66
      2.69008       1365.64        1371.2
        2.696        1365.9       1368.79
      2.70189       1366.18       1366.42
      2.70776       1366.43       1364.11
      2.71357       1366.69       1361.87
      2.71936       1366.95       1359.73
      2.72512       1367.21       1357.66
      2.73087       1367.45       1355.67
       2.7366        1367.7       1353.76
      2.74231       1367.95       1351.96
      2.74801       1368.25       1350.28
       2.7537       1368.51       1348.66
      2.75937       1368.77       1347.12
      2.76502       1369.05       1345.69
      2.77065       1369.31       1344.37
      2.77626       1369.59       1343.09
      2.78185       1369.87       1341.93
      2.78742       1370.16       1340.87
      2.79299       1370.45       1339.87
      2.79855       1370.75       1338.94
      2.80411       1371.06       1338.13
      2.80966       1371.34       1337.36
       2.8152       1371.63       1336.66
      2.82073       1371.97       1336.06
      2.82625        1372.3       1335.51
      2.83177       1372.63       1335.01
      2.83727       1372.95        1334.6
      2.84278       1373.28       1334.24
      2.84826       1373.62       1333.95
      2.85375       1373.97       1333.67
      2.85924       1374.32       1333.46
      2.86473       1374.66       1333.33
      2.87022       1375.02       1333.23
      2.87571       1375.38       1333.21
      2.88119       1375.74       1333.22
      2.88666        1376.1       1333.26
      2.89213       1376.46       1333.35
      2.89761       1376.82       1333.46
      2.90308       1377.19       1333.63
      2.90856       1377.55       1333.82
      2.91403       1377.92       1334.06
       2.9173       1378.15       1334.02
      2.92097        1378.4       1334.16
      2.92434       1378.62       1334.35
      2.92821       1378.88       1334.61
      2.93264       1379.17       1334.97
      2.93761        1379.5        1335.4
      2.94307       1379.86        1335.9
      2.94851       1380.21       1336.33
      2.95395       1380.57       1336.78
      2.95938       1380.92       1337.24
      2.96481       1381.27       1337.71
      2.97022       1381.62       1338.18
      2.97563       1381.97       1338.67
      2.98103        1382.3       1339.17
      2.98641       1382.64       1339.68
       2.9918       1382.97       1340.21
      2.99717        1383.3       1340.73
      3.00252       1383.63       1341.26
      3.00786       1383.96       1341.79
       3.0132       1384.28       1342.32
      3.01853       1384.59       1342.86
      3.02384       1384.92       1343.38
      3.02914       1385.23       1343.91
      3.03444       1385.54       1344.42
      3.03972       1385.84       1344.94
      3.04499       1386.15       1345.47
      3.05026       1386.46       1345.99
      3.05552       1386.77       1346.51
      3.06076       1387.07       1347.02
        3.066       1387.37       1347.55
      3.07123       1387.67       1348.06
      3.07645       1387.97       1348.59
      3.08167       1388.27       1349.13
      3.08688       1388.57       1349.66
      3.09208       1388.87       1350.18
      3.09728       1389.17       1350.74
      3.10246       1389.47       1351.29
      3.10764       1389.76       1351.85
      3.11283       1390.06        1352.4
        3.118       1390.36       1352.98
      3.12317       1390.65       1353.57
      3.12834       1390.94       1354.16
       3.1335       1391.23       1354.75
      3.13865       1391.52       1355.35
      3.14379        1391.8       1355.96
      3.14892       1392.09       1356.57
      3.15404       1392.37       1357.17
      3.15913       1392.65       1357.76
      3.16422       1392.92       1358.38
      3.16931       1393.19       1358.99
      3.17438       1393.46       1359.59
      3.17943       1393.72       1360.19
      3.18449       1393.98        1360.8
      3.18953       1394.24       1361.39
      3.19458       1394.49       1361.97
      3.19961       1394.73       1362.55
      3.20464       1394.98       1363.12
      3.20966       1395.22       1363.67
      3.21469       1395.45       1364.22
      3.21971       1395.68       1364.77
      3.22472       1395.91       1365.29
      3.22974       1396.12       1365.81
      3.23475       1396.34        1366.3
      3.23977       1396.56       1366.79
      3.24478       1396.76       1367.27
       3.2498       1396.97       1367.74
      3.25483       1397.16        1368.2
      3.25986       1397.36       1368.65
      3.26489       1397.53       1369.08
      3.26991        1397.7       1369.51
      3.27494       1397.86       1369.91
      3.27999       1398.03       1370.31
      3.28503       1398.19        1370.7
      3.29008       1398.34       1371.07
      3.29514       1398.49       1371.42
      3.30019       1398.62       1371.77
      3.30525       1398.75        1372.1
      3.31031       1398.87       1372.42
      3.31537          1399       1372.73
      3.32045       1399.11       1373.03
      3.32552       1399.21       1373.32
      3.33059        1399.3       1373.59
      3.33567       1399.39       1373.85
      3.34074       1399.48       1374.11
      3.34582       1399.56       1374.35
      3.35089       1399.63       1374.58
      3.35596        1399.7        1374.8
      3.36104       1399.76       1375.01
      3.36611       1399.81       1375.21
      3.37117       1399.86        1375.4
      3.37623        1399.9       1375.57
      3.38129       1399.94       1375.74
      3.38635       1399.97        1375.9
      3.39139          1400       1376.04
      3.39643       1400.02       1376.18
      3.40147       1400.04        1376.3
      3.40652       1400.06       1376.41
      3.41156       1400.07       1376.51
       3.4166       1400.07       1376.61
      3.42165       1400.08       1376.69
      3.42669       1400.08       1376.76
      3.43173       1400.08       1376.82
      3.43677       1400.07       1376.87
      3.44182       1400.07        1376.9
      3.44686       1400.06       1376.93
      3.45192       1400.05       1376.95
      3.45698       1400.04       1376.96
      3.46205       1400.03       1376.95
      3.46713       1400.02       1376.94
       3.4722          1400       1376.92
       3.4773       1399.99       1376.89
      3.48239       1399.98       1376.84
       3.4875       1399.97        1376.8
      3.49261       1399.96       1376.72
      3.49772       1399.95       1376.64
      3.50283       1399.94       1376.58
      3.50796       1399.93       1376.47
      3.51308       1399.91       1376.37
      3.51821       1399.91       1376.26
      3.52334        1399.9       1376.14
      3.52848       1399.89       1376.02
      3.53363       1399.89       1375.87
      3.53877       1399.88       1375.72
      3.54392       1399.88       1375.58
      3.54906       1399.88       1375.44
      3.55421       1399.88       1375.26
      3.55935       1399.88       1375.09
       3.5645       1399.89       1374.92
      3.56966        1399.9       1374.71
      3.57483       1399.91       1374.52
      3.57999       1399.92       1374.33
      3.58515       1399.94       1374.12
      3.59032       1399.97       1373.89
      3.59548       1399.99       1373.66
      3.60064       1400.03       1373.44
      3.60581       1400.07       1373.19
      3.61097       1400.11       1372.94
      3.61614       1400.16       1372.68
       3.6213       1400.21        1372.4
      3.62646       1400.27       1372.12
      3.63163       1400.34       1371.84
      3.63679       1400.42       1371.55
      3.64195        1400.5       1371.24
      3.64712       1400.59       1370.93
       3.6523       1400.68       1370.62
      3.65748       1400.78       1370.29
      3.66267       1400.89       1369.97
      3.66785          1401       1369.62
      3.67304       1401.12       1369.27
      3.67822       1401.25       1368.91
       3.6834       1401.38       1368.55
      3.68859       1401.52       1368.18
      3.69377       1401.67       1367.81
      3.69897       1401.83       1367.42
      3.70418       1401.99       1366.99
      3.70938       1402.16       1366.58
      3.71459       1402.33       1366.16
      3.71979       1402.51       1365.73
      3.72499        1402.7       1365.29
       3.7302        1402.9       1364.84
       3.7354       1403.11       1364.37
      3.74061       1403.32        1363.9
      3.74581       1403.54       1363.42
      3.75101       1403.77       1362.93
      3.75622       1404.01       1362.42
      3.76142       1404.25       1361.91
      3.76665        1404.5       1361.38
      3.77187       1404.76       1360.85
       3.7771       1405.03        1360.3
      3.78233       1405.31       1359.75
      3.78755       1405.59       1359.18
       3.7928       1405.88       1358.59
      3.79805       1406.18          1358
       3.8033       1406.49        1357.4
      3.80855        1406.8       1356.79
      3.81382       1407.12       1356.17
      3.81909       1407.44       1355.53
      3.82436       1407.77       1354.89
      3.82966        1408.1       1354.23
      3.83495       1408.44       1353.57
      3.84025       1408.78        1352.9
      3.84555       1409.13       1352.21
      3.85087       1409.48       1351.51
      3.85619       1409.82       1350.81
      3.86151       1410.18       1350.11
      3.86683       1410.53       1349.39
      3.87217       1410.88       1348.67
      3.87752       1411.24       1347.94
      3.88286       1411.59       1347.21
      3.88821       1411.95       1346.47
      3.89355        1412.3       1345.74
       3.8989       1412.65          1345
      3.90358       1412.95        1344.4
       3.9088        1413.3       1343.64
      3.91415       1413.65       1342.89
       3.9195       1413.99       1342.16
      3.92485       1414.33       1341.44
       3.9302       1414.66       1340.72
      3.93555       1414.99       1339.99
       3.9409       1415.32       1339.28
      3.94625       1415.64       1338.57
       3.9516       1415.95       1337.88
      3.95694       1416.27       1337.19