# k  POINT_DATA 38412
# x  y  z  k
0 -0.000876977 7.72851e-09 0.000202121
-1.0842e-19 0.000373007 0.00116944 0.000201908
0 0.00162301 7.22625e-09 0.000201687
-2.1684e-19 -0.00212699 0.00116944 0.000202334
6.51843e-20 -0.000876996 0.00233887 0.000224959
1.1324e-19 0.00162301 0.00233887 0.000224623
0 0.00287301 0.00116943 0.000201466
1.65436e-24 -0.00337698 7.72879e-09 0.000202539
1.0842e-19 0.000373004 0.00356872 0.000248046
-1.03398e-25 0.00162301 0.00347077 0.000231638
0 -0.000876997 0.0039882 0.000235062
-2.99957e-20 -0.003377 0.00233887 0.000225283
0 0.00412303 6.77238e-09 0.000201235
2.1684e-19 -0.002127 0.00356872 0.000248278
1.0842e-19 0.002873 0.00356872 0.000247808
-5.64216e-20 0.00412301 0.00233887 0.000224276
0 -0.004627 0.00116943 0.000202744
0 -0.000876998 0.00479858 0.000240027
-5.16988e-26 0.00412301 0.00276507 0.000226949
0 0.001623 0.00479858 0.000239867
2.58494e-26 -0.003377 0.00418769 0.000236483
-1.0842e-19 0.00537301 0.00116944 0.000201005
0 -0.004627 0.00356872 0.000248506
-5.16988e-26 -0.003377 0.00479858 0.000240184
1.65436e-24 -0.005877 7.46194e-09 0.00020294
0 0.000373001 0.00608215 0.000231732
6.46235e-27 0.00566877 0.00233887 0.000224055
-3.8015e-20 -0.005877 0.00233887 0.000225597
1.03398e-25 0.004123 0.00479858 0.000239703
1.0842e-19 -0.002127 0.00608215 0.000231816
1.0842e-19 0.005373 0.00356873 0.000247565
0 0.00662302 6.54409e-09 0.000200766
-1.0842e-19 0.002873 0.00608215 0.000231648
-3.61892e-25 0.006623 0.00230816 0.000223614
-1.29247e-26 0.006623 0.00233887 0.000223918
0 -0.005877 0.00394677 0.000235233
-2.1684e-19 -0.00712701 0.00116943 0.000203137
0 -0.000876999 0.00736572 0.000226449
-5.16988e-26 0.001623 0.00736572 0.000226409
0 -0.005877 0.00479858 0.000240338
-1.0842e-19 -0.004627 0.00608215 0.000231898
1.0842e-19 0.007873 0.00116944 0.000200527
-2.1684e-19 -0.007127 0.00356872 0.000248729
0 -0.003377 0.00736572 0.00022649
-1.0842e-19 0.005373 0.00608215 0.000231562
1.03398e-25 0.006623 0.00479858 0.000239536
1.65436e-24 -0.008377 7.22726e-09 0.000203326
-1.03398e-25 0.004123 0.00736572 0.000226367
0 0.007873 0.00356873 0.000247316
1.0842e-19 0.000373 0.00865601 0.000221117
-1.33241e-19 -0.008377 0.00233887 0.000225901
0 -0.002127 0.008656 0.000221115
0 -0.008377 0.00311946 0.000230531
-1.0842e-19 0.002873 0.008656 0.000221119
0 0.009123 5.99077e-09 0.000200277
0 -0.007127 0.00608215 0.00023198
-5.16988e-26 0.009123 0.00221178 0.000222282
5.16988e-26 0.009123 0.00233887 0.000223547
0 -0.005877 0.00736572 0.000226532
0 -0.008377 0.00479858 0.00024049
-1.0842e-19 -0.009627 0.00116943 0.000203514
0 -0.004627 0.00865601 0.000221115
1.98693e-20 0.006623 0.00736572 0.000226326
1.0842e-19 0.007873 0.00608215 0.000231475
0 -0.000877 0.00994629 0.000216601
0 0.001623 0.00994629 0.00021663
0 0.005373 0.008656 0.000221123
0 -0.009627 0.00356873 0.000248947
0 0.009123 0.00479858 0.000239366
0 0.010373 0.00116944 0.000200028
0 -0.003377 0.00994629 0.000216573
-4.24601e-20 0.004123 0.00994629 0.00021666
0 -0.010877 7.09664e-09 0.000203695
0 0.010373 0.00356873 0.000247061
-7.0609e-20 -0.010877 0.00233887 0.000226194
-5.16988e-26 -0.008377 0.00736572 0.000226573
4.52364e-26 -0.010877 0.00251816 0.000227247
2.1684e-19 -0.007127 0.008656 0.000221116
1.0842e-19 0.000373 0.011217 0.000212137
0 -0.009627 0.00608215 0.000232062
0 -0.002127 0.011217 0.000212082
0 -0.005877 0.00994629 0.000216548
2.1684e-19 0.002873 0.011217 0.000212194
0 0.011623 5.20219e-09 0.000199769
-2.1684e-19 0.007873 0.008656 0.000221126
1.03398e-25 0.009123 0.00736572 0.000226285
4.1359e-25 0.011623 0.0019339 0.000219112
0 0.011623 0.00233887 0.000223163
0 -0.010877 0.00479858 0.000240639
2.58494e-26 0.006623 0.00994629 0.000216692
0 0.010373 0.00608215 0.000231388
-2.1684e-19 -0.004627 0.011217 0.00021203
-1.0842e-19 -0.012127 0.00116943 0.000203877
-1.0842e-19 0.005373 0.011217 0.000212252
0 -0.000877 0.0124878 0.000207366
2.06795e-25 0.011623 0.00479858 0.000239193
0 0.001623 0.0124878 0.00020744
0 -0.012127 0.00356872 0.000249161
-1.0842e-19 0.012873 0.00116944 0.00019951
0 -0.003377 0.0124878 0.000207295
0 -0.009627 0.008656 0.000221117
0 -0.008377 0.00994629 0.000216524
0 -0.010877 0.00736572 0.000226615
-2.35175e-20 0.004123 0.0124878 0.000207516
0 -0.007127 0.011217 0.000211979
-1.0842e-19 0.012873 0.00356872 0.000246801
0 -0.013377 6.94728e-09 0.00020405
2.58494e-26 0.009123 0.00994629 0.000216725
1.0842e-19 0.010373 0.008656 0.000221131
0 -0.012127 0.00608215 0.000232143
9.65629e-20 -0.013377 0.00233887 0.000226478
9.04729e-26 -0.013377 0.00281502 0.000229248
-1.0842e-19 0.007873 0.011217 0.000212313
-1.0842e-19 0.000373 0.0137433 0.000202688
0 0.011623 0.00736572 0.000226243
0 -0.005877 0.0124878 0.000207227
0 -0.002127 0.0137433 0.000202598
-1.0842e-19 0.002873 0.0137433 0.000202781
0 0.014123 4.00393e-09 0.00019924
0 0.006623 0.0124878 0.000207595
-4.1359e-25 0.014123 0.00137285 0.000213049
1.03398e-25 -0.013377 0.00479858 0.000240786
1.0842e-19 0.012873 0.00608215 0.000231299
-4.1359e-25 0.014123 0.00233887 0.000222766
1.0842e-19 -0.004627 0.0137433 0.000202511
-1.0842e-19 -0.014627 0.00116943 0.000204224
-1.29247e-26 -0.010877 0.00994629 0.000216501
1.0842e-19 0.005373 0.0137433 0.000202877
-4.1359e-25 0.0147726 0 0.000199097
-2.1684e-19 -0.009627 0.011217 0.000211932
0 -0.012127 0.008656 0.00022112
2.06795e-25 0.014123 0.00479858 0.000239016
0 -0.000877 0.0149988 0.000197246
-1.26722e-19 -0.008377 0.0124878 0.000207161
0 -0.014627 0.00356872 0.000249371
0 0.001623 0.0149988 0.00019735
0 -0.013377 0.00736572 0.000226658
-1.0842e-19 0.010373 0.011217 0.000212376
0 0.011623 0.00994629 0.00021676
0 -0.003377 0.0149988 0.000197144
-1.0842e-19 0.015373 0.00116944 0.00019897
0 0.009123 0.0124878 0.000207676
1.0842e-19 -0.007127 0.0137433 0.000202427
-1.0842e-19 0.012873 0.008656 0.000221138
-3.93026e-20 0.004123 0.0149988 0.000197458
1.0842e-19 0.015373 0.00356872 0.000246535
0 0.007873 0.0137433 0.000202976
0 -0.014627 0.00608215 0.000232224
-8.27181e-25 -0.015877 6.63832e-09 0.000204391
0 0.014123 0.00736572 0.000226203
-1.41409e-20 -0.015877 0.00233887 0.000226753
1.9387e-26 -0.015877 0.00252442 0.000227823
0 -0.005877 0.0149988 0.000197046
1.0842e-19 0.000373 0.0162494 0.000191914
0 -0.002127 0.0162494 0.000191798
8.07794e-28 0.006623 0.0149988 0.000197569
1.0842e-19 0.002873 0.0162494 0.000192033
0 -0.012127 0.011217 0.000211886
0 0.015373 0.00608215 0.000231209
0 -0.010877 0.0124878 0.000207097
0 -0.015877 0.00479858 0.000240931
-1.65436e-24 0.016623 1.14059e-08 0.00019869
0 -0.013377 0.00994629 0.000216481
1.0842e-19 -0.009627 0.0137433 0.000202345
-8.27181e-25 0.016623 0.00233887 0.000222355
0 -0.004627 0.0162494 0.000191686
0 -0.014627 0.008656 0.000221125
-6.46235e-27 0.011623 0.0124878 0.000207761
0 0.012873 0.011217 0.000212443
0 0.005373 0.0162494 0.000192156
1.0842e-19 -0.017127 0.00116943 0.000204557
-2.01948e-28 -0.008377 0.0149988 0.000196951
-1.0842e-19 0.010373 0.0137433 0.000203079
-2.58494e-26 0.014123 0.00994629 0.000216798
0 0.016623 0.00479858 0.000238836
-2.1684e-19 -0.017127 0.00356872 0.000249577
0 -0.015877 0.00736572 0.000226702
3.17122e-28 -0.000877 0.0174912 0.00018566
3.28979e-21 -0.000877 0.0175 0.000185619
-8.07794e-28 0.009123 0.0149988 0.000197685
2.35081e-28 0.001623 0.0174922 0.000185783
-1.57772e-30 0.001623 0.0175 0.000185747
-1.0842e-19 0.015373 0.00865601 0.000221147
0 -0.007127 0.0162494 0.000191577
-2.8399e-28 -0.003377 0.0174891 0.000185546
0 -0.003377 0.0175 0.000185495
1.0842e-19 0.017873 0.00116944 0.00019841
-2.00371e-28 0.004123 0.0174928 0.000185912
-1.57772e-30 0.004123 0.0175 0.000185878
0 0.007873 0.0162494 0.000192283
1.0842e-19 -0.017127 0.00608215 0.000232306
0 0.016623 0.00736572 0.000226162
1.0842e-19 0.017873 0.00356872 0.000246263
-3.23117e-27 -0.013377 0.0124878 0.000207037
0 -0.012127 0.0137433 0.000202267
8.27181e-25 -0.018377 6.50332e-09 0.000204719
-1.0842e-19 -0.014627 0.011217 0.000211843
1.29373e-28 -0.005877 0.0174846 0.000185447
8.08456e-20 -0.005877 0.0175 0.000185375
1.25722e-19 -0.018377 0.00233887 0.00022702
0 -0.010877 0.0149988 0.000196859
-2.58494e-26 -0.018377 0.0024529 0.000227672
-2.2877e-28 0.006623 0.0174931 0.000186046
0 0.006623 0.0175 0.000186014
0 -0.015877 0.00994629 0.000216463
-1.0842e-19 0.000373 0.01875 0.000179451
1.0842e-19 0.012873 0.0137433 0.000203186
0 0.014123 0.0124878 0.00020785
0 -0.002127 0.01875 0.000179316
-1.0842e-19 0.017873 0.00608215 0.000231119
1.0842e-19 -0.009627 0.0162494 0.000191471
1.03398e-25 0.0189403 0 0.00019816
0 0.002873 0.01875 0.000179591
4.03897e-28 0.011623 0.0149988 0.000197804
0 -0.018377 0.00479858 0.000241075
0 0.015373 0.011217 0.000212512
2.06795e-25 0.019123 8.99002e-10 0.000198118
0 0.019123 0.000443798 0.000202637
-1.0842e-19 -0.017127 0.008656 0.000221132
1.91219e-20 0.019123 0.00233887 0.00022193
-1.0842e-19 0.010373 0.0162494 0.000192415
1.03398e-25 0.0193061 0 0.000198075
-1.0842e-19 -0.004627 0.01875 0.000179184
0 0.016623 0.00994629 0.000216839
3.15544e-29 -0.008377 0.0174794 0.000185354
3.28979e-21 -0.008377 0.0175 0.000185258
1.0842e-19 0.005373 0.01875 0.000179735
0 -0.019627 0.00116943 0.00020488
0 0.019123 0.00479858 0.000238653
-5.52203e-29 0.009123 0.0174927 0.000186188
-9.67102e-20 0.009123 0.0175 0.000186154
-5.16988e-26 -0.018377 0.00736572 0.000226747
-1.0842e-19 0.017873 0.008656 0.000221156
1.0842e-19 -0.019627 0.00356872 0.000249781
-9.67102e-20 -0.000877 0.02 0.00017227
-1.0842e-19 -0.007127 0.01875 0.000179056
3.28979e-21 0.001623 0.02 0.000172416
-1.0842e-19 -0.014627 0.0137433 0.000202192
0 -0.013377 0.0149988 0.000196771
0 -0.015877 0.0124878 0.00020698
1.0842e-19 -0.012127 0.0162494 0.000191369
3.28979e-21 -0.003377 0.02 0.000172128
0 0.007873 0.01875 0.000179883
1.0842e-19 0.020373 0.00116944 0.000197827
3.28979e-21 0.004123 0.02 0.000172566
0 -0.017127 0.011217 0.000211803
0 0.019123 0.00736572 0.000226122
0 -0.019627 0.00608215 0.000232388
1.57772e-30 -0.010877 0.0174793 0.000185242
0 0.014123 0.0149988 0.000197928
0 -0.010877 0.0175 0.000185145
1.0842e-19 0.015373 0.0137433 0.000203297
0 0.020373 0.00356872 0.000245985
-1.0842e-19 0.012873 0.0162494 0.000192551
6.46235e-27 0.016623 0.0124878 0.000207942
3.28979e-21 -0.005877 0.02 0.000171991
0 -0.020877 7.37805e-09 0.000205034
0 -0.018377 0.00994629 0.000216448
-2.99767e-28 0.011623 0.0174915 0.000186338
8.0752e-20 -0.020877 0.00233887 0.00022728
-9.67043e-20 0.011623 0.0175 0.000186299
3.28979e-21 0.006623 0.02 0.00017272
0 -0.009627 0.01875 0.000178932
1.0842e-19 0.017873 0.011217 0.000212585
1.0842e-19 0.000373 0.02125 0.000165232
0 0.020373 0.00608215 0.000231029
-5.16988e-26 -0.020877 0.00408776 0.00023719
-1.0842e-19 -0.002127 0.02125 0.00016508
0 -0.020877 0.00479858 0.000241218
0 0.010373 0.01875 0.000180037
-1.0842e-19 0.002873 0.02125 0.000165388
0 -0.019627 0.00865601 0.000221141
-5.04618e-20 0.019123 0.00994629 0.000216881
0 0.021623 1.1374e-08 0.000197524
-1.91544e-20 -0.008377 0.02 0.000171857
1.0842e-19 -0.004627 0.02125 0.000164932
1.62598e-19 0.021623 0.00233888 0.000221491
4.03897e-28 -0.015877 0.0149988 0.000196686
0 -0.014627 0.0162494 0.000191271
-1.0842e-19 0.005373 0.02125 0.000165548
0 -0.017127 0.0137433 0.00020212
3.28979e-21 0.009123 0.02 0.00017288
8.83524e-29 -0.013377 0.0174821 0.00018512
8.08456e-20 -0.013377 0.0175 0.000185036
-1.0842e-19 0.020373 0.008656 0.000221168
0 -0.020877 0.00736572 0.000226793
4.1359e-25 0.021623 0.00479858 0.000238466
1.0842e-19 -0.022127 0.00116943 0.000205189
3.23117e-27 -0.018377 0.0124878 0.000206925
0 -0.012127 0.01875 0.000178812
1.0842e-19 0.015373 0.0162494 0.000192692
0 0.016623 0.0149988 0.000198057
0 -0.022127 0.00356872 0.000249981
1.0842e-19 -0.007127 0.02125 0.00016479
-2.11415e-28 0.014123 0.0174909 0.000186491
0 0.014123 0.0175 0.00018645
8.08456e-20 -0.000877 0.0225 0.000157222
-1.0842e-19 0.017873 0.0137433 0.000203413
8.08456e-20 0.001623 0.0225 0.000157383
0 -0.019627 0.011217 0.000211766
0 0.007873 0.02125 0.000165714
-1.0842e-19 0.012873 0.01875 0.000180196
3.28979e-21 -0.003377 0.0225 0.000157066
-9.67102e-20 -0.010877 0.02 0.000171728
-6.46235e-27 0.019123 0.0124878 0.000208039
-4.67455e-20 0.021623 0.00736572 0.000226083
8.08456e-20 0.004123 0.0225 0.000157549
-1.0842e-19 0.022873 0.00116944 0.000197221
1.0842e-19 -0.022127 0.00608215 0.000232471
0 -0.020877 0.00994629 0.000216435
3.28979e-21 0.011623 0.02 0.000173046
1.0842e-19 0.022873 0.00356872 0.0002457
3.28979e-21 -0.005877 0.0225 0.000156915
1.0842e-19 0.020373 0.011217 0.000212662
-2.58494e-26 -0.0227717 0.00479858 0.000241325
-1.0842e-19 -0.009627 0.02125 0.000164651
-1.65436e-24 -0.023377 8.97906e-09 0.000205338
8.08456e-20 0.006623 0.0225 0.000157719
1.25775e-19 -0.023377 0.00233887 0.000227531
1.0842e-19 -0.017127 0.0162494 0.000191176
7.09975e-29 -0.015877 0.017484 0.000185006
5.84013e-20 -0.015877 0.0175 0.000184931
0 0.010373 0.02125 0.000165886
1.0842e-19 0.022873 0.00608215 0.000230937
0 -0.018377 0.0149988 0.000196604
0 0.000373 0.02375 0.000149372
0 -0.022127 0.008656 0.000221152
0 -0.014627 0.01875 0.000178695
-6.33372e-20 0.021623 0.00994629 0.000216927
1.0842e-19 -0.002127 0.02375 0.000149207
1.29247e-26 -0.023377 0.00479858 0.000241359
0 0.002873 0.02375 0.000149542
1.0842e-19 -0.019627 0.0137433 0.000202052
-1.91544e-20 -0.008377 0.0225 0.000156769
8.08456e-20 -0.013377 0.02 0.000171603
1.29247e-26 -0.023377 0.00594996 0.000234848
0 0.024123 1.13291e-08 0.000196906
8.04638e-29 0.016623 0.0174918 0.000186643
1.58401e-19 0.016623 0.0175 0.000186606
-2.1684e-19 0.017873 0.0162494 0.00019284
-1.0842e-19 -0.004627 0.02375 0.000149047
-9.11371e-20 0.024123 0.00233888 0.000221037
-1.0842e-19 0.015373 0.01875 0.000180361
-9.67102e-20 0.009123 0.0225 0.000157896
0 0.019123 0.0149988 0.000198191
-1.03437e-19 -0.020877 0.0124878 0.000206874
-1.0842e-19 0.005373 0.02375 0.000149717
0 0.022873 0.00865601 0.000221182
0 -0.012127 0.02125 0.000164516
8.08456e-20 0.014123 0.02 0.000173217
0 -0.023377 0.00736572 0.000226841
0 0.020373 0.0137433 0.000203534
9.7039e-20 0.024123 0.00479858 0.000238275
1.0842e-19 -0.024627 0.00116943 0.000205487
1.0842e-19 -0.007127 0.02375 0.000148892
1.0842e-19 -0.022127 0.011217 0.000211732
-1.0842e-19 0.012873 0.02125 0.000166064
1.0842e-19 -0.024627 0.00356872 0.000250179
-1.23312e-19 0.021623 0.0124878 0.00020814
-1.91544e-20 -0.010877 0.0225 0.000156626
3.28979e-21 -0.000877 0.025 0.000140666
0 0.007873 0.02375 0.000149898
-1.91544e-20 0.001623 0.025 0.000140839
0 0.024123 0.00736572 0.000226045
3.28979e-21 -0.003377 0.025 0.000140498
8.08456e-20 0.011623 0.0225 0.00015808
-1.91544e-20 0.004123 0.025 0.000141017
-1.73549e-29 -0.018377 0.0174852 0.000184899
0 -0.024627 0.00608215 0.000232554
0 -0.018377 0.0175 0.000184829
1.0842e-19 -0.017127 0.01875 0.000178583
1.0842e-19 0.025373 0.00116944 0.000196591
1.29247e-26 -0.023377 0.00994629 0.000216425
-1.0842e-19 0.022873 0.011217 0.000212742
0 -0.019627 0.0162494 0.000191085
8.08456e-20 -0.015877 0.02 0.000171482
0 0.025373 0.00356873 0.000245408
-1.0842e-19 -0.009627 0.02375 0.000148742
-9.67102e-20 -0.005877 0.025 0.000140335
0 -0.020877 0.0149988 0.000196527
1.0842e-19 -0.014627 0.02125 0.000164387
-1.91544e-20 0.006623 0.025 0.000141201
0 -0.025877 1.00763e-08 0.000205629
0 0.017873 0.01875 0.000180532
0 0.010373 0.02375 0.000150087
-1.54617e-28 0.019123 0.0174929 0.000186801
-1.91468e-20 0.019123 0.0175 0.000186769
-1.09365e-19 -0.025877 0.00233887 0.000227776
-1.91544e-20 0.016623 0.02 0.000173396
-1.0842e-19 -0.022127 0.0137433 0.000201987
0 0.020373 0.0162494 0.000192993
1.0842e-19 0.025373 0.00608215 0.000230845
5.16988e-26 0.024123 0.00994629 0.000216976
-1.0842e-19 -0.024627 0.008656 0.000221165
8.08456e-20 -0.013377 0.0225 0.000156488
-1.0842e-19 0.015373 0.02125 0.000166249
0 0.000373 0.02625 0.000132131
0 0.021623 0.0149988 0.000198332
-3.60172e-20 -0.025877 0.00479858 0.0002415
0 -0.002127 0.02625 0.000131954
-1.91544e-20 -0.008377 0.025 0.000140176
-1.0842e-19 0.002873 0.02625 0.000132313
-3.41447e-20 -0.023377 0.0124878 0.000206826
-1.91544e-20 0.014123 0.0225 0.000158271
-1.91544e-20 0.009123 0.025 0.000141391
0 0.026623 3.78395e-10 0.000196263
-1.0842e-19 -0.004627 0.02625 0.000131783
-1.0842e-19 -0.012127 0.02375 0.000148596
1.0842e-19 0.022873 0.0137433 0.00020366
-8.27181e-25 0.026623 0.00233887 0.000220566
-1.0842e-19 0.005373 0.02625 0.000132499
-1.0842e-19 0.025373 0.008656 0.000221198
1.05013e-26 -0.0257893 0.00736572 0.000226888
7.92252e-21 -0.025877 0.00736572 0.00022689
-8.07794e-28 -0.025877 0.00770613 0.000225508
0 0.012873 0.02375 0.000150284
0 0.026623 0.00479858 0.00023808
1.0842e-19 -0.024627 0.011217 0.000211701
0 -0.019627 0.01875 0.000178475
0 -0.027127 0.00116944 0.000205772
-9.67102e-20 -0.018377 0.02 0.000171365
1.29247e-26 0.024123 0.0124878 0.000208246
0 -0.007127 0.02625 0.000131617
-2.8399e-29 -0.020877 0.0174855 0.000184801
0 -0.020877 0.0175 0.000184732
-1.91544e-20 -0.010877 0.025 0.000140023
-1.0842e-19 -0.017127 0.02125 0.000164261
2.1684e-19 -0.027127 0.00356872 0.000250375
0 0.007873 0.02625 0.000132692
1.0842e-19 -0.022127 0.0162494 0.000190998
8.08456e-20 -0.000877 0.0275 0.00012285
-9.67102e-20 -0.015877 0.0225 0.000156356
8.08456e-20 0.001623 0.0275 0.000123027
5.84013e-20 0.011623 0.025 0.000141588
0 0.026623 0.00736572 0.000226007
-1.91544e-20 0.019123 0.02 0.000173582
-1.0842e-19 0.020373 0.01875 0.000180712
8.08456e-20 -0.003377 0.0275 0.000122679
0 -0.025877 0.00994629 0.000216417
-1.0842e-19 0.025373 0.011217 0.000212827
0 0.017873 0.02125 0.000166441
2.01948e-28 -0.023377 0.0149988 0.000196453
-1.0842e-19 -0.027127 0.00608215 0.000232638
-1.91544e-20 0.004123 0.0275 0.000123208
6.15312e-29 0.021623 0.0174934 0.000186969
-1.57772e-30 0.021623 0.0175 0.000186939
1.0842e-19 -0.014627 0.02375 0.000148455
1.0842e-19 0.027873 0.00116944 0.000195935
1.0842e-19 -0.009627 0.02625 0.000131456
-1.91544e-20 0.016623 0.0225 0.00015847
0 0.022873 0.0162494 0.000193154
0 0.027873 0.00356873 0.000245109
-9.67102e-20 -0.005877 0.0275 0.000122512
1.0842e-19 -0.024627 0.0137433 0.000201926
0 0.010373 0.02625 0.000132889
-1.91544e-20 0.006623 0.0275 0.000123394
-1.0842e-19 0.015373 0.02375 0.000150488
1.58401e-19 -0.013377 0.025 0.000139875
0 -0.028377 1.04784e-08 0.000205909
0 0.024123 0.0149988 0.000198478
0 0.026623 0.00994629 0.000217027
1.05603e-19 -0.028377 0.00233887 0.000228013
-2.1684e-19 -0.027127 0.008656 0.00022118
0 0.027873 0.00608215 0.000230753
5.84013e-20 0.014123 0.025 0.000141792
0 -0.025877 0.0124878 0.000206781
8.08456e-20 -0.008377 0.0275 0.00012235
0 0.000373 0.02875 0.000113744
-4.29502e-20 -0.028377 0.00479858 0.00024164
1.0842e-19 -0.002127 0.02875 0.000113573
-1.0842e-19 0.025373 0.0137433 0.000203792
1.0842e-19 0.002873 0.02875 0.00011392
-1.91544e-20 -0.020877 0.02 0.000171254
1.0842e-19 -0.012127 0.02625 0.0001313
0 -0.019627 0.02125 0.000164141
-1.91544e-20 0.009123 0.0275 0.000123585
-1.0842e-19 -0.022127 0.01875 0.000178372
8.08456e-20 -0.018377 0.0225 0.000156228
-1.0842e-19 -0.004627 0.02875 0.000113405
0 0.029123 1.56263e-08 0.000195594
0 0.027873 0.008656 0.000221215
-6.31089e-30 -0.023377 0.0174839 0.000184715
5.84047e-20 -0.023377 0.0175 0.000184639
-8.27181e-25 0.029123 0.00233888 0.000220079
-1.0842e-19 0.012873 0.02625 0.000133092
1.0842e-19 0.005373 0.02875 0.000114101
0 -0.017127 0.02375 0.00014832
-5.60997e-20 -0.028377 0.00736572 0.00022694
2.1684e-19 -0.027127 0.011217 0.000211672
0 0.026623 0.0124878 0.000208356
-1.0842e-19 0.020373 0.02125 0.000166641
1.58401e-19 0.021623 0.02 0.000173775
1.0842e-19 -0.024627 0.0162494 0.000190915
0 0.029123 0.00479858 0.000237881
-1.91544e-20 0.019123 0.0225 0.000158676
5.84013e-20 -0.010877 0.0275 0.000122193
-1.0842e-19 0.022873 0.01875 0.000180898
8.08456e-20 -0.015877 0.025 0.000139732
0 -0.007127 0.02875 0.000113243
1.0842e-19 -0.029627 0.00116944 0.000206046
-1.0842e-19 0.017873 0.02375 0.000150701
-3.12389e-28 0.024123 0.0174941 0.00018712
0 0.007873 0.02875 0.000114285
1.0842e-19 -0.029627 0.00356873 0.000250568
8.08456e-20 0.011623 0.0275 0.000123781
0 -0.025877 0.0149988 0.000196382
8.07794e-28 -0.028377 0.00976037 0.00021717
-1.91544e-20 -0.000877 0.03 0.000104165
8.08456e-20 0.016623 0.025 0.000142004
2.06795e-25 0.029123 0.00736572 0.00022597
8.08456e-20 0.001623 0.03 0.000104329
0 0.027873 0.011217 0.000212915
0 -0.014627 0.02625 0.000131149
0 -0.028377 0.00994629 0.000216411
1.0842e-19 0.025373 0.0162494 0.000193321
-1.91544e-20 -0.003377 0.03 0.000104006
-1.0842e-19 -0.029627 0.00608215 0.000232722
-1.91544e-20 0.004123 0.03 0.000104497
0 -0.009627 0.02875 0.000113085
2.1684e-19 0.030373 0.00116944 0.000195252
1.0842e-19 -0.027127 0.0137433 0.000201867
-1.0842e-19 0.015373 0.02625 0.000133303
0 0.026623 0.0149988 0.000198631
-1.0842e-19 0.010373 0.02875 0.000114474
-1.91544e-20 -0.005877 0.03 0.000103851
-1.91544e-20 -0.013377 0.0275 0.000122042
0 0.030373 0.00356873 0.000244802
0 -0.022127 0.02125 0.000164025
8.08456e-20 -0.020877 0.0225 0.000156106
-1.91544e-20 0.006623 0.03 0.00010467
-1.91544e-20 -0.023377 0.02 0.000171147
0 0.029123 0.00994629 0.000217082
1.0842e-19 -0.019627 0.02375 0.00014819
0 -0.029627 0.008656 0.000221197
0 -0.030877 1.0238e-08 0.000206177
8.08456e-20 0.014123 0.0275 0.000123984
-1.0842e-19 -0.024627 0.01875 0.000178273
1.54549e-19 -0.030877 0.00233887 0.000228243
0 0.030373 0.00608215 0.000230659
-8.07794e-28 -0.028377 0.0124878 0.000206739
-9.67102e-20 -0.018377 0.025 0.000139596
0 0.027873 0.0137433 0.000203929
1.58401e-19 -0.008377 0.03 0.000103701
0 -0.012127 0.02875 0.000112933
1.58401e-19 0.021623 0.0225 0.000158892
0 0.022873 0.02125 0.00016685
5.20648e-29 -0.025877 0.017478 0.000184654
1.58401e-19 -0.025877 0.0175 0.00018455
0 -0.030877 0.00479858 0.000241778
0 0.000373 0.03125 9.47485e-05
0 0.020373 0.02375 0.000150923
0 -0.002127 0.03125 9.45975e-05
8.08456e-20 0.024123 0.02 0.000173977
0 -0.017127 0.02625 0.000131006
-1.91544e-20 0.009123 0.03 0.000104847
1.0842e-19 0.002873 0.03125 9.49039e-05
0 0.019123 0.025 0.000142225
0 0.012873 0.02875 0.000114669
-1.0842e-19 0.025373 0.01875 0.000181093
0 0.030373 0.00865601 0.000221235
0 -0.004627 0.03125 9.44501e-05
0 -0.027127 0.0162494 0.000190836
0 0.031623 1.58158e-08 0.000194897
0 -0.029627 0.011217 0.000211645
0 0.029123 0.0124878 0.000208471
0 0.005373 0.03125 9.50639e-05
-8.27181e-25 0.031623 0.00233888 0.000219573
0 -0.030877 0.00736572 0.000226991
8.08456e-20 -0.015877 0.0275 0.000121898
0 0.017873 0.02625 0.000133523
-3.69187e-28 0.026623 0.017495 0.000187304
5.84013e-20 -0.010877 0.03 0.000103555
0 0.031623 0.00479858 0.000237677
1.0842e-19 -0.007127 0.03125 9.43069e-05
-1.00974e-28 -0.028377 0.0149988 0.000196315
-9.67102e-20 0.016623 0.0275 0.000124195
-1.0842e-19 -0.032127 0.00116943 0.000206309
-9.67102e-20 0.011623 0.03 0.00010503
-1.0842e-19 0.007873 0.03125 9.5229e-05
1.0842e-19 -0.014627 0.02875 0.000112787
-1.0842e-19 0.027873 0.0162494 0.000193495
-3.23117e-27 -0.030877 0.00950556 0.000218215
-2.1684e-19 -0.032127 0.00356872 0.000250757
-2.1684e-19 0.030373 0.011217 0.000213007
-7.49898e-20 -0.030877 0.00994629 0.000216407
3.28979e-21 -0.023377 0.0225 0.000155988
1.0842e-19 -0.022127 0.02375 0.000148066
2.06795e-25 0.031623 0.00736572 0.000225932
8.08456e-20 -0.000877 0.0325 8.54167e-05
1.0842e-19 -0.024627 0.02125 0.000163915
8.08456e-20 0.001623 0.0325 8.55637e-05
-9.67102e-20 -0.020877 0.025 0.000139464
1.0842e-19 0.015373 0.02875 0.000114872
0 -0.0318135 0.00736572 0.00022701
0 -0.029627 0.0137433 0.000201812
-9.67102e-20 -0.003377 0.0325 8.52734e-05
1.0842e-19 -0.032127 0.00608215 0.000232807
1.0842e-19 -0.009627 0.03125 9.41678e-05
8.08456e-20 -0.025877 0.02 0.000171044
8.07794e-28 0.029123 0.0149988 0.000198789
-1.91544e-20 0.004123 0.0325 8.57148e-05
1.0842e-19 -0.019627 0.02625 0.000130868
1.58401e-19 -0.013377 0.03 0.000103415
-1.0842e-19 0.032873 0.00116944 0.000194542
-1.0842e-19 0.010373 0.03125 9.53994e-05
1.0842e-19 0.022873 0.02375 0.000151154
0 -0.027127 0.01875 0.000178178
1.58401e-19 0.024123 0.0225 0.000159117
-9.67102e-20 -0.005877 0.0325 8.51341e-05
8.08456e-20 0.021623 0.025 0.000142455
1.0842e-19 0.032873 0.00356873 0.000244486
8.08456e-20 -0.018377 0.0275 0.000121759
-1.0842e-19 0.025373 0.02125 0.000167068
0 0.031623 0.00994629 0.00021714
-9.67102e-20 0.014123 0.03 0.00010522
-1.91544e-20 0.006623 0.0325 8.58699e-05
0 0.020373 0.02625 0.000133752
1.0842e-19 -0.032127 0.008656 0.000221216
-1.91544e-20 0.026623 0.02 0.000174188
0 -0.030877 0.0124878 0.0002067
-3.15544e-29 -0.028377 0.0174661 0.000184625
0 0.030373 0.0137433 0.000204072
0 -0.028377 0.0175 0.000184465
1.65436e-24 -0.033377 9.23372e-09 0.000206436
0 0.032873 0.00608215 0.000230563
1.37375e-19 -0.033377 0.00233887 0.000228467
-1.0842e-19 -0.017127 0.02875 0.000112651
-1.57772e-30 0.019123 0.0275 0.000124416
-1.0842e-19 -0.012127 0.03125 9.40339e-05
8.08456e-20 -0.008377 0.0325 8.49988e-05
-1.0842e-19 0.027873 0.01875 0.000181296
3.86894e-20 -0.033377 0.00479858 0.000241914
0 0.000373 0.03375 7.62299e-05
-1.91544e-20 0.009123 0.0325 8.60298e-05
0 -0.029627 0.0162494 0.00019076
0 0.012873 0.03125 9.55765e-05
1.0842e-19 -0.002127 0.03375 7.60908e-05
0 0.017873 0.02875 0.000115084
0 0.002873 0.03375 7.63727e-05
-1.91544e-20 -0.015877 0.03 0.000103283
0 -0.033377 0.00627875 0.00023334
-1.53039e-28 0.029123 0.0174956 0.000187496
2.1684e-19 0.032873 0.008656 0.000221257
0 0.031623 0.0124878 0.000208592
-1.0842e-19 -0.032127 0.011217 0.000211622
0 -0.004627 0.03375 7.59553e-05
0 0.034123 1.53106e-08 0.000194173
-1.0842e-19 0.005373 0.03375 7.65186e-05
1.29247e-26 -0.033377 0.00736572 0.000227043
-8.27181e-25 0.034123 0.00233888 0.000219049
1.0842e-19 -0.024627 0.02375 0.000147945
-3.54881e-20 -0.023377 0.025 0.000139337
-1.91544e-20 -0.010877 0.0325 8.48683e-05
3.28979e-21 -0.025877 0.0225 0.000155874
-9.67102e-20 0.016623 0.03 0.000105418
-2.01948e-28 -0.030877 0.0149988 0.000196251
0 -0.022127 0.02625 0.000130734
-1.29247e-26 -0.0340738 0.00479858 0.000241952
1.0842e-19 0.030373 0.0162494 0.000193676
0 0.034123 0.00479858 0.000237468
0 -0.027127 0.02125 0.000163808
0 -0.007127 0.03375 7.5824e-05
0 -0.014627 0.03125 9.39078e-05
1.58401e-19 0.011623 0.0325 8.6195e-05
-1.91544e-20 -0.020877 0.0275 0.000121623
0 -0.034627 0.00116943 0.000206564
0 0.007873 0.03375 7.66684e-05
8.08456e-20 -0.028377 0.02 0.000170945
0 0.032873 0.011217 0.000213104
1.58401e-19 0.024123 0.025 0.000142695
1.0842e-19 0.025373 0.02375 0.000151395
-2.1684e-19 -0.034627 0.00356872 0.000250944
0 -0.019627 0.02875 0.000112513
0 0.022873 0.02625 0.000133992
0 0.015373 0.03125 9.57612e-05
2.55634e-21 -0.033377 0.00994629 0.000216406
8.08456e-20 0.026623 0.0225 0.000159351
2.06795e-25 0.034123 0.00736572 0.000225895
1.0842e-19 -0.032127 0.0137433 0.00020176
-1.91544e-20 0.021623 0.0275 0.000124646
0 0.031623 0.0149988 0.000198955
-3.54881e-20 -0.000877 0.035 6.73455e-05
3.28979e-21 0.001623 0.035 6.7483e-05
-1.0842e-19 0.027873 0.02125 0.000167295
1.0842e-19 -0.029627 0.01875 0.000178087
-1.0842e-19 -0.009627 0.03375 7.56967e-05
1.58401e-19 -0.013377 0.0325 8.47449e-05
0 -0.034627 0.00608215 0.000232892
-1.13044e-19 -0.003377 0.035 6.72116e-05
-1.91544e-20 -0.018377 0.03 0.000103152
-1.0842e-19 0.020373 0.02875 0.000115305
-3.54881e-20 0.004123 0.035 6.7624e-05
0 0.010373 0.03375 7.68224e-05
-1.91544e-20 0.029123 0.02 0.000174408
0 0.035373 0.00116944 0.000193803
-1.91544e-20 0.014123 0.0325 8.63667e-05
0 -0.030877 0.0174648 0.00018455
-3.54881e-20 -0.005877 0.035 6.70816e-05
3.28979e-21 -0.030877 0.0175 0.000184383
-5.16988e-26 0.034123 0.00994629 0.000217201
1.0842e-19 0.035373 0.00356873 0.000244161
8.08456e-20 0.019123 0.03 0.000105625
-3.54881e-20 0.006623 0.035 6.77682e-05
-1.0842e-19 0.032873 0.0137433 0.000204222
0 -0.017127 0.03125 9.37847e-05
5.79455e-20 -0.033377 0.0124878 0.000206663
-1.0842e-19 -0.034627 0.008656 0.000221236
0 0.030373 0.01875 0.000181508
0 -0.012127 0.03375 7.55749e-05
0 -0.035877 8.16855e-09 0.000206686
-2.1684e-19 0.035373 0.00608215 0.000230466
7.2795e-21 -0.035877 0.00233887 0.000228684
-3.54881e-20 -0.025877 0.025 0.000139214
-9.67102e-20 -0.008377 0.035 6.69557e-05
0 -0.024627 0.02625 0.000130604
1.0842e-19 0.017873 0.03125 9.59542e-05
1.0842e-19 -0.032127 0.0162494 0.000190688
0 -0.027127 0.02375 0.000147829
1.58401e-19 -0.023377 0.0275 0.000121492
2.58494e-26 -0.035877 0.00410813 0.000238298
-1.0842e-19 0.012873 0.03375 7.69819e-05
-3.58143e-28 0.031623 0.0174955 0.000187697
3.28979e-21 0.009123 0.035 6.79161e-05
1.58401e-19 -0.015877 0.0325 8.46251e-05
5.16988e-26 -0.035877 0.00479858 0.00024205
8.08456e-20 -0.028377 0.0225 0.000155765
0 0.000373 0.03625 5.85967e-05
0 -0.022127 0.02875 0.000112379
0 -0.002127 0.03625 5.84646e-05
0 0.034123 0.0124878 0.000208718
0 0.002873 0.03625 5.8733e-05
1.0842e-19 -0.034627 0.011217 0.000211601
1.0842e-19 0.035373 0.008656 0.00022128
-1.0842e-19 -0.029627 0.02125 0.000163705
-1.57772e-30 0.016623 0.0325 8.65456e-05
0 0.025373 0.02625 0.000134242
8.08456e-20 0.026623 0.025 0.000142947
0 -0.004627 0.03625 5.83357e-05
5.84013e-20 -0.020877 0.03 0.000103024
-1.91544e-20 0.024123 0.0275 0.000124887
0 -0.033377 0.0149988 0.00019619
1.0842e-19 0.027873 0.02375 0.000151647
3.30872e-24 0.036623 1.42928e-08 0.000193419
0 -0.035877 0.00736572 0.000227096
0 0.005373 0.03625 5.88717e-05
-1.91544e-20 -0.010877 0.035 6.6835e-05
-1.0842e-19 0.032873 0.0162494 0.000193866
0 0.036623 0.00233888 0.000218505
-1.0842e-19 0.022873 0.02875 0.000115536
0 -0.014627 0.03375 7.5463e-05
-3.54881e-20 -0.030877 0.02 0.00017085
1.58401e-19 0.029123 0.0225 0.000159596
3.28979e-21 0.011623 0.035 6.80687e-05
0 -0.019627 0.03125 9.36612e-05
0 0.036623 0.00479858 0.000237253
0 -0.007127 0.03625 5.82115e-05
-1.91544e-20 0.021623 0.03 0.000105841
0 0.030373 0.02125 0.000167533
0 0.015373 0.03375 7.71472e-05
-1.0842e-19 0.007873 0.03625 5.90141e-05
0 0.035373 0.011217 0.000213206
1.0842e-19 -0.037127 0.00116943 0.000206808
-1.0842e-19 -0.032127 0.01875 0.000178
1.0406e-19 -0.035877 0.00994629 0.000216406
0 -0.034627 0.0137433 0.000201711