# k  POINT_DATA 34437
# x  y  z  k
-8.07264e-09 0 0 0.000201968
0.000876982 0 0 0.000202069
-0.000876992 -5.42101e-20 0 0.000201873
0.001623 1.0842e-19 0 0.000202154
-0.00162301 -5.42101e-20 0 0.00020179
0.00124999 3.61401e-20 0.00116944 0.000205083
-0.00125 2.71051e-20 0.00116944 0.000204823
-6.79893e-10 0 0.00233887 0.000224841
0.00249999 1.0842e-19 0 0.000202251
-0.00249999 0 0 0.000201692
-0.00337698 0 0 0.000201599
0.00337699 1.0842e-19 0 0.000202354
0.0025 0 0.00233887 0.000224967
-0.0025 -1.0842e-19 0.00233887 0.000224719
-0.00125 1.807e-20 0.00356872 0.000244001
0.00125 0 0.00356872 0.000243978
-0.00375 0 0.00116943 0.000204571
0.00375 3.61401e-20 0.00116943 0.000205348
-0.004123 -5.42101e-20 0 0.000201519
0.00412301 -5.42101e-20 0 0.000202441
4.48412e-10 -1.0842e-19 0.00479858 0.000239971
-0.00499999 -1.0842e-19 0 0.000201423
0.00500001 0 0 0.000202539
-0.00375 0 0.00356872 0.000244026
0.00375 9.03502e-21 0.00356872 0.000243955
0.0025 -1.0842e-19 0.00479858 0.000239861
-0.0025 -1.0842e-19 0.00479858 0.000240081
-0.005 1.0842e-19 0.00233887 0.000224601
0.005 -1.0842e-19 0.00233887 0.000225095
-0.00587699 -1.0842e-19 0 0.000201333
0.00587701 0 0 0.000202645
-0.00125 0 0.00608215 0.000232217
0.00125 0 0.00608215 0.000232037
-0.00625 9.03502e-21 0.00116943 0.000204325
0.00625001 -4.51751e-20 0.00116944 0.000205618
-0.006623 5.42101e-20 0 0.000201254
0.00662301 -5.42101e-20 0 0.000202733
0.005 1.0842e-19 0.00479858 0.000239753
-0.005 -1.0842e-19 0.00479858 0.000240191
-0.00375 0 0.00608215 0.000232398
0.00375 -1.807e-20 0.00608215 0.000231857
-0.00625 9.03502e-21 0.00356872 0.000244052
0.00625 -2.71051e-20 0.00356872 0.000243933
3.68934e-10 1.0842e-19 0.00736572 0.000226435
-0.00750001 1.0842e-19 0 0.000201161
0.00750002 1.0842e-19 0 0.000202834
0.0025 1.0842e-19 0.00736572 0.000226219
-0.0025 1.0842e-19 0.00736572 0.000226652
-0.0075 1.0842e-19 0.00233887 0.000224487
0.00750001 1.0842e-19 0.00233887 0.000225227
-0.00837701 0 0 0.000201072
0.00837702 -5.42101e-20 0 0.000202942
-0.00625 0 0.00608215 0.000232579
0.00625 3.61401e-20 0.00608215 0.00023168
-0.00125 3.61401e-20 0.008656 0.000221345
0.00125 -1.807e-20 0.008656 0.000221101
-0.00875 9.03502e-21 0.00116944 0.000204084
0.00875001 1.807e-20 0.00116944 0.000205895
0.005 1.0842e-19 0.00736572 0.000226005
-0.005 1.0842e-19 0.00736572 0.00022687
0.0075 1.0842e-19 0.00479858 0.000239645
-0.0075 1.0842e-19 0.00479858 0.000240303
-0.009123 0 0 0.000200995
0.009123 1.0842e-19 0 0.000203032
0.00375 1.807e-20 0.008656 0.000220859
-0.00375 0 0.008656 0.00022159
-0.00875 -9.03502e-21 0.00356873 0.00024408
0.00875 1.807e-20 0.00356873 0.000243913
1.46183e-10 1.0842e-19 0.00994629 0.000216611
0.01 1.0842e-19 0 0.000203135
-0.01 -1.0842e-19 0 0.000200903
0.0025 1.0842e-19 0.00994629 0.000216358
-0.0025 1.0842e-19 0.00994629 0.000216865
0.01 1.0842e-19 0.00233887 0.000225363
-0.01 -1.0842e-19 0.00233887 0.000224376
0.0075 1.0842e-19 0.00736572 0.000225792
-0.0075 1.0842e-19 0.00736572 0.00022709
-0.00875 2.71051e-20 0.00608215 0.000232762
0.00875 9.03502e-21 0.00608215 0.000231501
0.00625 -1.807e-20 0.008656 0.000220619
-0.00625 9.03502e-21 0.008656 0.000221838
0.010877 5.42101e-20 0 0.000203245
-0.010877 1.0842e-19 0 0.000200816
0.01 1.0842e-19 0.00479858 0.000239537
-0.01 1.0842e-19 0.00479858 0.000240416
0.005 1.0842e-19 0.00994629 0.000216108
-0.005 1.0842e-19 0.00994629 0.000217122
-0.00125 0 0.011217 0.000212225
0.00125 1.807e-20 0.011217 0.000211966
-0.01125 2.71051e-20 0.00116944 0.000203848
0.01125 -7.22801e-20 0.00116944 0.000206178
-0.011623 -1.0842e-19 0 0.000200741
0.011623 5.42101e-20 0 0.000203338
-0.01125 0 0.00356873 0.000244109
0.01125 3.61401e-20 0.00356873 0.000243894
0.00375 3.61401e-20 0.011217 0.000211711
-0.00375 3.61401e-20 0.011217 0.000212485
0.00875 3.61401e-20 0.008656 0.00022038
-0.00875 3.61401e-20 0.00865601 0.000222088
0.01 1.0842e-19 0.00736572 0.000225579
-0.01 1.0842e-19 0.00736572 0.000227311
0.0075 1.0842e-19 0.00994629 0.000215859
-0.0075 1.0842e-19 0.00994629 0.000217382
3.19516e-11 1.0842e-19 0.0124878 0.000207392
0.0125 1.0842e-19 0 0.000203443
-0.0125 -1.0842e-19 0 0.000200651
0.0125 1.0842e-19 0.00233887 0.000225503
-0.0125 0 0.00233887 0.000224269
0.0025 1.0842e-19 0.0124878 0.000207142
-0.0025 1.0842e-19 0.0124878 0.000207645
-0.01125 -9.03502e-21 0.00608215 0.000232945
0.01125 -1.807e-20 0.00608215 0.000231324
0.00625 -1.807e-20 0.011217 0.000211457
-0.00625 1.807e-20 0.011217 0.000212749
0.013377 5.42101e-20 0 0.000203555
-0.013377 0 0 0.000200567
0.0125 1.0842e-19 0.00479858 0.00023943
-0.0125 1.0842e-19 0.00479858 0.00024053
0.005 1.0842e-19 0.0124878 0.000206895
-0.005 1.0842e-19 0.0124878 0.0002079
-0.01375 0 0.00116944 0.000203618
0.01375 -1.807e-20 0.00116944 0.000206466
-0.00125 -1.807e-20 0.0137433 0.000202707
0.00125 -3.61401e-20 0.0137433 0.000202467
0.01 1.0842e-19 0.00994629 0.000215612
-0.01 1.0842e-19 0.00994629 0.000217643
-0.014123 1.6263e-19 0 0.000200493
0.014123 5.42101e-20 0 0.000203649
-0.01125 3.61401e-20 0.008656 0.000222339
0.01125 0 0.008656 0.000220143
-0.01375 0 0.00356873 0.000244139
0.01375 3.61401e-20 0.00356873 0.000243875
-0.00875 0 0.011217 0.000213015
0.00875 3.61401e-20 0.011217 0.000211206
0.00375 -1.807e-20 0.0137433 0.00020223
-0.00375 -1.807e-20 0.0137433 0.00020295
0.0125 1.0842e-19 0.00736572 0.000225367
-0.0125 1.0842e-19 0.00736572 0.000227534
0.0075 1.0842e-19 0.0124878 0.00020665
-0.0075 1.0842e-19 0.0124878 0.000208157
3.04086e-12 1.0842e-19 0.0149988 0.000197283
0.015 1.0842e-19 0 0.000203756
-0.015 -1.0842e-19 0 0.000200405
0.01375 0 0.00608215 0.000231146
-0.01375 -2.71051e-20 0.00608215 0.00023313
0.00625 0 0.0137433 0.000201994
-0.00625 -1.807e-20 0.0137433 0.000203195
0.015 1.0842e-19 0.00233887 0.000225645
-0.015 -1.0842e-19 0.00233887 0.000224164
0.0025 1.0842e-19 0.0149988 0.000197064
-0.0025 1.0842e-19 0.0149988 0.000197504
0.015 1.0842e-19 0.00479858 0.000239323
-0.015 -1.0842e-19 0.00479858 0.000240645
0.005 1.0842e-19 0.0149988 0.000196848
-0.005 1.0842e-19 0.0149988 0.000197727
0.015877 5.42101e-20 0 0.000203871
-0.015877 1.6263e-19 0 0.000200322
0.01125 0 0.011217 0.000210957
-0.01125 0 0.011217 0.000213284
0.0125 1.0842e-19 0.00994629 0.000215367
-0.0125 1.0842e-19 0.00994629 0.000217908
0.01 1.0842e-19 0.0124878 0.000206408
-0.01 1.0842e-19 0.0124878 0.000208417
0.01375 0 0.008656 0.000219906
-0.01375 0 0.00865601 0.000222593
-0.01625 0 0.00116944 0.000203393
0.01625 1.807e-20 0.00116944 0.000206761
0.00875 -1.807e-20 0.0137433 0.000201761
-0.00875 3.61401e-20 0.0137433 0.000203443
-0.00125 3.61401e-20 0.0162494 0.000191884
0.00125 0 0.0162494 0.000191688
-0.016623 0 0 0.00020025
0.016623 -5.42101e-20 0 0.000203968
0.01625 1.807e-20 0.00356873 0.000243857
-0.01625 9.03502e-21 0.00356873 0.000244171
0.00375 0 0.0162494 0.000191494
-0.00375 3.61401e-20 0.0162494 0.000192083
0.015 1.0842e-19 0.00736572 0.000225156
-0.015 1.0842e-19 0.00736572 0.000227759
0.0075 1.0842e-19 0.0149988 0.000196634
-0.0075 1.0842e-19 0.0149988 0.000197953
0.01625 -1.807e-20 0.00608215 0.000230969
-0.01625 9.03502e-21 0.00608215 0.000233316
0.00625 3.61401e-20 0.0162494 0.000191301
-0.00625 0 0.0162494 0.000192284
0.0175 1.0842e-19 0 0.000204077
-0.0175 -1.0842e-19 0 0.000200164
-1.024e-14 1.0842e-19 0.0175 0.000185664
0.0175 1.0842e-19 0.00233887 0.000225792
-0.0175 -1.0842e-19 0.00233887 0.000224064
0.0125 1.0842e-19 0.0124878 0.000206167
-0.0125 1.0842e-19 0.0124878 0.00020868
0.0025 1.0842e-19 0.0175 0.000185499
-0.0025 1.0842e-19 0.0175 0.000185831
0.01375 3.61401e-20 0.011217 0.000210709
-0.01375 1.807e-20 0.011217 0.000213555
-0.01125 -1.807e-20 0.0137433 0.000203693
0.01125 3.61401e-20 0.0137433 0.000201531
0.015 1.0842e-19 0.00994629 0.000215124
-0.015 1.0842e-19 0.00994629 0.000218174
0.01 1.0842e-19 0.0149988 0.000196423
-0.01 1.0842e-19 0.0149988 0.000198182
0.0175 1.0842e-19 0.00479858 0.000239216
-0.0175 1.0842e-19 0.00479858 0.000240761
0.005 1.0842e-19 0.0175 0.000185335
-0.005 1.0842e-19 0.0175 0.000186001
0.018377 -5.42101e-20 0 0.000204193
-0.018377 -5.42101e-20 0 0.000200083
0.01625 1.807e-20 0.008656 0.000219671
-0.01625 3.61401e-20 0.00865601 0.000222849
0.00875 3.61401e-20 0.0162494 0.000191111
-0.00875 0 0.0162494 0.000192488
-0.01875 9.03502e-21 0.00116944 0.000203173
0.01875 -1.807e-20 0.00116944 0.000207061
0.00125 0 0.01875 0.00017925
-0.00125 -1.807e-20 0.01875 0.000179384
0.0175 1.0842e-19 0.00736572 0.000224945
-0.0175 1.0842e-19 0.00736572 0.000227985
0.0075 1.0842e-19 0.0175 0.000185174
-0.0075 1.0842e-19 0.0175 0.000186172
0.01875 -9.03502e-21 0.00356873 0.00024384
-0.01875 9.03502e-21 0.00356873 0.000244205
-0.00375 0 0.01875 0.00017952
0.00375 3.61401e-20 0.01875 0.000179118
-0.019123 5.42101e-20 0 0.000200013
0.019123 0 0 0.000204292
0.01375 3.61401e-20 0.0137433 0.000201304
-0.01375 0 0.0137433 0.000203947
0.015 1.0842e-19 0.0124878 0.000205929
-0.015 1.0842e-19 0.0124878 0.000208946
0.0125 1.0842e-19 0.0149988 0.000196213
-0.0125 1.0842e-19 0.0149988 0.000198412
0.01875 0 0.00608215 0.000230791
-0.01875 3.61401e-20 0.00608215 0.000233504
0.01625 0 0.011217 0.000210464
-0.01625 -1.807e-20 0.011217 0.00021383
-0.01125 0 0.0162494 0.000192693
0.01125 3.61401e-20 0.0162494 0.000190924
0.00625 0 0.01875 0.000178987
-0.00625 -1.807e-20 0.01875 0.000179657
0.02 0 0 0.000204404
-0.02 1.0842e-19 0 0.000199929
-1.02401e-14 1.0842e-19 0.02 0.000172321
0.0175 1.0842e-19 0.00994629 0.000214882
-0.0175 1.0842e-19 0.00994629 0.000218444
0.02 1.0842e-19 0.00233887 0.000225941
-0.02 0 0.00233887 0.000223967
0.01 1.0842e-19 0.0175 0.000185015
0.0025 1.0842e-19 0.02 0.000172225
-0.0025 1.0842e-19 0.02 0.000172419
-0.01 1.0842e-19 0.0175 0.000186345
0.02 1.0842e-19 0.00479858 0.000239109
-0.02 1.0842e-19 0.00479858 0.000240879
0.005 1.0842e-19 0.02 0.00017213
-0.005 1.0842e-19 0.02 0.000172517
0.01875 1.807e-20 0.008656 0.000219437
-0.01875 0 0.008656 0.000223108
0.00875 1.807e-20 0.01875 0.000178858
-0.00875 0 0.01875 0.000179796
0.020877 1.6263e-19 0 0.000204523
-0.020877 -1.0842e-19 0 0.00019985
0.015 1.0842e-19 0.0149988 0.000196007
-0.015 1.0842e-19 0.0149988 0.000198646
-0.02125 1.807e-20 0.00116944 0.000202958
0.02125 1.807e-20 0.00116944 0.000207368
0.01625 -1.807e-20 0.0137433 0.000201078
-0.01625 -1.807e-20 0.0137433 0.000204203
0.01375 3.61401e-20 0.0162494 0.000190738
-0.01375 0 0.0162494 0.000192902
0.00125 0 0.02125 0.000165073
-0.00125 0 0.02125 0.000165131
0.02 1.0842e-19 0.00736572 0.000224734
-0.02 1.0842e-19 0.00736572 0.000228214
0.0075 1.0842e-19 0.02 0.000172037
-0.0075 1.0842e-19 0.02 0.000172617
0.0175 1.0842e-19 0.0124878 0.000205693
-0.0175 1.0842e-19 0.0124878 0.000209215
0.0125 1.0842e-19 0.0175 0.000184857
-0.0125 1.0842e-19 0.0175 0.00018652
0.02125 0 0.00356872 0.000243824
-0.02125 -1.807e-20 0.00356873 0.00024424
-0.00375 3.61401e-20 0.02125 0.000165191
0.00375 -1.807e-20 0.02125 0.000165016
-0.021623 0 0 0.000199781
0.021623 -5.42101e-20 0 0.000204623
0.01875 1.807e-20 0.011217 0.000210221
-0.01875 3.61401e-20 0.011217 0.000214107
0.01125 0 0.01875 0.000178732
-0.01125 -1.807e-20 0.01875 0.000179936
0.02125 0 0.00608215 0.000230614
-0.02125 0 0.00608215 0.000233693
0.00625 -1.807e-20 0.02125 0.00016496
-0.00625 3.61401e-20 0.02125 0.000165251
0.02 1.0842e-19 0.00994629 0.000214642
-0.02 1.0842e-19 0.00994629 0.000218716
0.01 1.0842e-19 0.02 0.000171946
-0.01 1.0842e-19 0.02 0.000172719
0.0225 0 0 0.000204737
-0.0225 -1.0842e-19 0 0.0001997
-1.02402e-14 1.0842e-19 0.0225 0.000157279
0.0225 -1.0842e-19 0.00233887 0.000226094
-0.0225 1.0842e-19 0.00233887 0.000223873
0.0025 1.0842e-19 0.0225 0.000157262
-0.0025 1.0842e-19 0.0225 0.000157297
0.02125 0 0.008656 0.000219203
-0.02125 0 0.008656 0.000223369
0.01625 0 0.0162494 0.000190555
-0.01625 0 0.0162494 0.000193112
-0.00875 -1.807e-20 0.02125 0.000165313
0.00875 0 0.02125 0.000164905
0.0225 1.0842e-19 0.00479858 0.000239002
-0.0225 1.0842e-19 0.00479858 0.000240999
0.0175 1.0842e-19 0.0149988 0.000195802
-0.0175 1.0842e-19 0.0149988 0.000198882
0.005 1.0842e-19 0.0225 0.000157246
-0.005 1.0842e-19 0.0225 0.000157315
0.015 1.0842e-19 0.0175 0.000184702
-0.015 1.0842e-19 0.0175 0.000186698
-0.01875 0 0.0137433 0.000204463
0.01875 0 0.0137433 0.000200855
-0.01375 0 0.01875 0.000180079
0.01375 -1.807e-20 0.01875 0.000178606
0.023377 -5.42101e-20 0 0.000204858
-0.023377 -1.6263e-19 0 0.000199623
0.02 1.0842e-19 0.0124878 0.000205459
-0.02 1.0842e-19 0.0124878 0.000209487
0.0125 1.0842e-19 0.02 0.000171856
-0.0125 1.0842e-19 0.02 0.000172821
0.0225 1.0842e-19 0.00736572 0.000224524
-0.0225 1.0842e-19 0.00736572 0.000228445
0.0075 1.0842e-19 0.0225 0.000157232
-0.0075 1.0842e-19 0.0225 0.000157334
0.02375 0 0.00116944 0.000207681
-0.02375 0 0.00116944 0.00020275
0.00125 3.61401e-20 0.02375 0.000149269
-0.00125 0 0.02375 0.000149245
0.02375 0 0.00356872 0.000243808
-0.02375 9.03502e-21 0.00356873 0.000244276
0.02125 0 0.011217 0.000209979
-0.02125 1.807e-20 0.011217 0.000214387
0.01125 0 0.02125 0.000164852
-0.01125 0 0.02125 0.000165375
0.00375 3.61401e-20 0.02375 0.000149294
-0.00375 -1.807e-20 0.02375 0.000149221
-0.024123 1.0842e-19 0 0.000199556
0.024123 -5.42101e-20 0 0.000204961
0.02375 0 0.00608215 0.000230435
-0.02375 0 0.00608215 0.000233885
0.00625 -1.807e-20 0.02375 0.00014932
-0.00625 3.61401e-20 0.02375 0.000149198
0.0225 1.0842e-19 0.00994629 0.000214402
-0.0225 1.0842e-19 0.00994629 0.000218992
0.01 1.0842e-19 0.0225 0.000157218
-0.01 1.0842e-19 0.0225 0.000157353
0.0175 1.0842e-19 0.0175 0.000184549
-0.0175 1.0842e-19 0.0175 0.000186877
0.01875 0 0.0162494 0.000190374
-0.01875 -1.807e-20 0.0162494 0.000193325
-0.01625 3.61401e-20 0.01875 0.000180222
0.01625 3.61401e-20 0.01875 0.000178483
0.02 1.0842e-19 0.0149988 0.0001956
-0.02 1.0842e-19 0.0149988 0.000199121
0.015 1.0842e-19 0.02 0.000171768
-0.015 1.0842e-19 0.02 0.000172925
0.025 0 0 0.000205077
-0.025 1.0842e-19 0 0.000199476
-1.02401e-14 1.0842e-19 0.025 0.000140726
0.025 -1.0842e-19 0.00233887 0.000226251
-0.025 1.0842e-19 0.00233887 0.000223783
0.0025 1.0842e-19 0.025 0.000140793
-0.0025 1.0842e-19 0.025 0.000140661
-0.02375 1.807e-20 0.008656 0.000223634
0.02375 0 0.00865601 0.000218971
0.02125 0 0.0137433 0.000200634
-0.02125 3.61401e-20 0.0137433 0.000204724
0.01375 3.61401e-20 0.02125 0.0001648
-0.00875 0 0.02375 0.000149174
0.00875 0 0.02375 0.000149346
-0.01375 -1.807e-20 0.02125 0.000165438
0.025 1.0842e-19 0.00479858 0.000238895
-0.025 1.0842e-19 0.00479858 0.00024112
0.005 1.0842e-19 0.025 0.00014086
-0.005 1.0842e-19 0.025 0.000140595
0.0225 1.0842e-19 0.0124878 0.000205227
-0.0225 1.0842e-19 0.0124878 0.000209762
0.0125 1.0842e-19 0.0225 0.000157205
-0.0125 1.0842e-19 0.0225 0.000157374
0.025877 0 0 0.000205202
-0.025877 1.0842e-19 0 0.000199401
0.025 1.0842e-19 0.00736572 0.000224314
-0.025 1.0842e-19 0.00736572 0.000228678
0.0075 1.0842e-19 0.025 0.000140927
-0.0075 1.0842e-19 0.025 0.000140529
0.02375 -1.807e-20 0.011217 0.000209739
-0.02375 3.61401e-20 0.011217 0.000214672
0.02625 0 0.00116944 0.000208001
-0.02625 0 0.00116944 0.000202546
0.00125 -1.807e-20 0.02625 0.000132084
0.01125 -1.807e-20 0.02375 0.000149373
-0.01125 3.61401e-20 0.02375 0.000149152
-0.00125 -1.807e-20 0.02625 0.000131976
0.02625 0 0.00356872 0.000243793
-0.02625 9.03502e-21 0.00356873 0.000244315
0.00375 0 0.02625 0.000132191
0.01875 3.61401e-20 0.01875 0.000178362
-0.00375 -1.807e-20 0.02625 0.000131869
-0.01875 3.61401e-20 0.01875 0.000180368
0.02 1.0842e-19 0.0175 0.000184398
0.0175 1.0842e-19 0.02 0.000171681
-0.0175 1.0842e-19 0.02 0.00017303
-0.02 1.0842e-19 0.0175 0.000187058
-0.026623 1.0842e-19 0 0.000199335
0.026623 0 0 0.000205306
0.02125 0 0.0162494 0.000190196
-0.02125 0 0.0162494 0.00019354
0.01625 0 0.02125 0.00016475
-0.01625 3.61401e-20 0.02125 0.000165502
0.025 1.0842e-19 0.00994629 0.000214164
-0.025 1.0842e-19 0.00994629 0.000219271
0.01 1.0842e-19 0.025 0.000140995
-0.01 1.0842e-19 0.025 0.000140464
0.02625 1.807e-20 0.00608215 0.000230256
-0.02625 9.03502e-21 0.00608215 0.000234078
0.00625 0 0.02625 0.0001323
-0.00625 3.61401e-20 0.02625 0.000131762
0.0225 1.0842e-19 0.0149988 0.0001954
-0.0225 1.0842e-19 0.0149988 0.000199362
0.015 1.0842e-19 0.0225 0.000157193
-0.015 1.0842e-19 0.0225 0.000157394
0.02375 0 0.0137433 0.000200415
-0.02375 -1.807e-20 0.0137433 0.000204989
-0.01375 0 0.02375 0.00014913
0.01375 3.61401e-20 0.02375 0.000149401
0.0275 2.1684e-19 0 0.000205424
-0.0275 1.0842e-19 0 0.000199258
-1.02402e-14 1.0842e-19 0.0275 0.000122912
-0.0275 1.0842e-19 0.00233887 0.000223696
0.0275 -1.0842e-19 0.00233887 0.000226412
0.0025 1.0842e-19 0.0275 0.000123059
-0.0025 1.0842e-19 0.0275 0.000122765
0.02625 3.61401e-20 0.008656 0.000218739
-0.02625 0 0.008656 0.000223901
0.00875 0 0.02625 0.000132408
-0.00875 3.61401e-20 0.02625 0.000131655
0.0275 1.0842e-19 0.00479858 0.000238788
-0.0275 1.0842e-19 0.00479858 0.000241243
0.025 1.0842e-19 0.0124878 0.000204997
-0.025 1.0842e-19 0.0124878 0.00021004
0.005 1.0842e-19 0.0275 0.000123207
-0.005 1.0842e-19 0.0275 0.000122618
0.0125 1.0842e-19 0.025 0.000141063
-0.0125 1.0842e-19 0.025 0.000140399
0.02 1.0842e-19 0.02 0.000171596
-0.02 1.0842e-19 0.02 0.000173136
0.01875 -1.807e-20 0.02125 0.000164701
-0.01875 -1.807e-20 0.02125 0.000165566
0.02125 0 0.01875 0.000178243
-0.02125 3.61401e-20 0.01875 0.000180514
0.028377 0 0 0.00020555
-0.028377 1.0842e-19 0 0.000199185
0.0275 1.0842e-19 0.00736572 0.000224103
-0.0275 1.0842e-19 0.00736572 0.000228914
0.0075 1.0842e-19 0.0275 0.000123355
-0.0075 1.0842e-19 0.0275 0.000122471
0.0225 1.0842e-19 0.0175 0.000184249
0.0175 1.0842e-19 0.0225 0.000157183
-0.0175 1.0842e-19 0.0225 0.000157416
-0.0225 1.0842e-19 0.0175 0.000187241
-0.02625 3.61401e-20 0.011217 0.000214959
0.02625 3.61401e-20 0.011217 0.000209501
0.01125 0 0.02625 0.000132517
-0.01125 3.61401e-20 0.02625 0.000131548
0.02875 9.03502e-21 0.00116944 0.000208326
-0.02875 -9.03502e-21 0.00116944 0.000202348
-0.02375 3.61401e-20 0.0162494 0.000193757
0.02375 0 0.0162494 0.000190018
0.00125 3.61401e-20 0.02875 0.000113771
0.01625 3.61401e-20 0.02375 0.000149431
-0.01625 3.61401e-20 0.02375 0.000149108
-0.00125 3.61401e-20 0.02875 0.000113586
0.02875 9.03502e-21 0.00356872 0.000243778
-0.02875 1.807e-20 0.00356873 0.000244355
-0.00375 0 0.02875 0.000113402
0.00375 3.61401e-20 0.02875 0.000113956
-0.029123 5.42101e-20 0 0.000199121
0.029123 -1.0842e-19 0 0.000205656
0.025 1.0842e-19 0.0149988 0.000195202
-0.025 1.0842e-19 0.0149988 0.000199606
0.015 1.0842e-19 0.025 0.000141133
-0.015 1.0842e-19 0.025 0.000140334
0.0275 1.0842e-19 0.00994629 0.000213927
-0.0275 1.0842e-19 0.00994629 0.000219552
0.01 1.0842e-19 0.0275 0.000123503
-0.01 1.0842e-19 0.0275 0.000122324
-0.02875 1.807e-20 0.00608215 0.000234274
0.02875 3.61401e-20 0.00608215 0.000230077
0.00625 3.61401e-20 0.02875 0.000114141
-0.00625 1.807e-20 0.02875 0.000113217
-0.02625 -1.807e-20 0.0137433 0.000205257
0.02625 0 0.0137433 0.000200198
0.01375 3.61401e-20 0.02625 0.000132627
-0.01375 3.61401e-20 0.02625 0.00013144
0.03 -1.0842e-19 0 0.000205777
-0.03 1.0842e-19 0 0.000199046
-1.02403e-14 1.0842e-19 0.03 0.000104223
0.02875 0 0.008656 0.000218507
-0.02875 0 0.008656 0.000224171
-0.02125 0 0.02125 0.000165632
-0.00875 -1.807e-20 0.02875 0.000113033
0.02125 1.807e-20 0.02125 0.000164653
0.00875 3.61401e-20 0.02875 0.000114327
0.03 1.0842e-19 0.00233887 0.000226575
-0.03 1.0842e-19 0.00233887 0.000223613
0.02 1.0842e-19 0.0225 0.000157174
0.0225 1.0842e-19 0.02 0.000171513
0.0025 1.0842e-19 0.03 0.000104435
-0.0025 1.0842e-19 0.03 0.000104011
-0.02 1.0842e-19 0.0225 0.000157437
-0.0225 1.0842e-19 0.02 0.000173244
0.0275 1.0842e-19 0.0124878 0.000204769
-0.0275 1.0842e-19 0.0124878 0.000210321
0.0125 1.0842e-19 0.0275 0.000123652
-0.0125 1.0842e-19 0.0275 0.000122177
0.02375 -1.807e-20 0.01875 0.000178125
0.01875 0 0.02375 0.00014946
-0.01875 3.61401e-20 0.02375 0.000149086
-0.02375 3.61401e-20 0.01875 0.000180663
0.03 1.0842e-19 0.00479858 0.000238681
-0.03 1.0842e-19 0.00479858 0.000241367
0.005 1.0842e-19 0.03 0.000104648
-0.005 1.0842e-19 0.03 0.000103799
0.025 1.0842e-19 0.0175 0.000184102
0.0175 1.0842e-19 0.025 0.000141203
-0.0175 1.0842e-19 0.025 0.000140269
-0.025 1.0842e-19 0.0175 0.000187425
-0.02875 0 0.011217 0.000215248
0.02875 1.807e-20 0.011217 0.000209264
0.02625 3.61401e-20 0.0162494 0.000189844
-0.02625 0 0.0162494 0.000193977
-0.01125 -1.807e-20 0.02875 0.000112848
0.01125 0 0.02875 0.000114513
0.01625 -1.807e-20 0.02625 0.000132737
-0.01625 0 0.02625 0.000131333
0.030877 0 0 0.000205906
-0.030877 1.0842e-19 0 0.000198974
0.03 1.0842e-19 0.00736572 0.000223893
-0.03 1.0842e-19 0.00736572 0.000229153
0.0075 1.0842e-19 0.03 0.000104861
-0.0075 1.0842e-19 0.03 0.000103588
0.03125 -1.807e-20 0.00116944 0.000208658
-0.03125 -1.807e-20 0.00116944 0.000202154
0.00125 0 0.03125 9.48748e-05
-0.00125 0 0.03125 9.46388e-05
0.0275 1.0842e-19 0.0149988 0.000195006
-0.0275 1.0842e-19 0.0149988 0.000199853
0.015 1.0842e-19 0.0275 0.000123801
-0.015 1.0842e-19 0.0275 0.000122029
0.03125 1.807e-20 0.00356873 0.000243765
-0.03125 -1.807e-20 0.00356873 0.000244398
0.00375 -1.807e-20 0.03125 9.51116e-05
-0.00375 3.61401e-20 0.03125 9.44031e-05
0.03 1.0842e-19 0.00994629 0.000213691
-0.03 1.0842e-19 0.00994629 0.000219837
0.01 1.0842e-19 0.03 0.000105076
-0.01 1.0842e-19 0.03 0.000103376
-0.031623 1.0842e-19 0 0.000198911
0.031623 0 0 0.000206015
0.0225 1.0842e-19 0.0225 0.000157166
-0.0225 1.0842e-19 0.0225 0.000157459
0.03125 9.03502e-21 0.00608215 0.000229898
-0.03125 -1.807e-20 0.00608215 0.000234471
0.02875 3.61401e-20 0.0137433 0.000199983
-0.02875 -1.807e-20 0.0137433 0.000205528
0.00625 0 0.03125 9.53493e-05
-0.00625 3.61401e-20 0.03125 9.41678e-05
0.01375 -1.807e-20 0.02875 0.000114699
-0.01375 3.61401e-20 0.02875 0.000112664
0.02375 3.61401e-20 0.02125 0.000164607
0.02125 3.61401e-20 0.02375 0.000149492
-0.02125 3.61401e-20 0.02375 0.000149064
-0.02375 3.61401e-20 0.02125 0.000165698
0.025 1.0842e-19 0.02 0.000171431
0.02 1.0842e-19 0.025 0.000141274
-0.02 1.0842e-19 0.025 0.000140204
-0.025 1.0842e-19 0.02 0.000173352
-0.01875 3.61401e-20 0.02625 0.000131225
-0.02625 -1.807e-20 0.01875 0.000180812
0.02625 1.807e-20 0.01875 0.000178009
0.01875 0 0.02625 0.000132848
0.03125 3.61401e-20 0.008656 0.000218276
-0.03125 9.03502e-21 0.008656 0.000224444
0.00875 -1.807e-20 0.03125 9.55879e-05
-0.00875 0 0.03125 9.39327e-05
0.03 1.0842e-19 0.0124878 0.000204543
-0.03 1.0842e-19 0.0124878 0.000210606
0.0125 1.0842e-19 0.03 0.00010529
-0.0125 1.0842e-19 0.03 0.000103165
0.0325 1.0842e-19 0 0.000206138
-0.0325 1.0842e-19 0 0.000198838
-1.02402e-14 1.0842e-19 0.0325 8.54682e-05
0.0325 1.0842e-19 0.00233887 0.000226743
-0.0325 1.0842e-19 0.00233887 0.000223534
0.0275 1.0842e-19 0.0175 0.000183957
0.0025 1.0842e-19 0.0325 8.57204e-05
0.0175 1.0842e-19 0.0275 0.00012395
-0.0025 1.0842e-19 0.0325 8.52167e-05
-0.0175 1.0842e-19 0.0275 0.000121882
-0.0275 1.0842e-19 0.0175 0.000187612
0.0325 1.0842e-19 0.00479858 0.000238574
-0.0325 1.0842e-19 0.00479858 0.000241494
0.005 1.0842e-19 0.0325 8.59732e-05
-0.005 1.0842e-19 0.0325 8.49656e-05
-0.02875 0 0.0162494 0.000194199
0.02875 3.61401e-20 0.0162494 0.000189671
0.01625 0 0.02875 0.000114886
-0.01625 3.61401e-20 0.02875 0.000112479
0.03125 1.807e-20 0.011217 0.000209028
-0.03125 -1.807e-20 0.011217 0.000215543
0.01125 3.61401e-20 0.03125 9.58275e-05
-0.01125 0 0.03125 9.36978e-05
0.0325 1.0842e-19 0.00736572 0.000223682
-0.0325 1.0842e-19 0.00736572 0.000229394
0.0075 1.0842e-19 0.0325 8.62268e-05
-0.0075 1.0842e-19 0.0325 8.4715e-05
-0.033377 5.42101e-20 0 0.000198768
0.033377 -5.42101e-20 0 0.00020627
0.03 1.0842e-19 0.0149988 0.000194813
-0.03 1.0842e-19 0.0149988 0.000200102
0.015 1.0842e-19 0.03 0.000105506
-0.015 1.0842e-19 0.03 0.000102953
0.02375 -1.807e-20 0.02375 0.000149524
-0.02375 3.61401e-20 0.02375 0.000149042
0.025 1.0842e-19 0.0225 0.00015716
0.0225 1.0842e-19 0.025 0.000141346
-0.0225 1.0842e-19 0.025 0.000140138
-0.025 1.0842e-19 0.0225 0.000157482
0.03375 3.61401e-20 0.00116944 0.000208997
-0.03375 -9.03502e-21 0.00116944 0.000201966
0.00125 -1.807e-20 0.03375 7.63996e-05
0.02625 0 0.02125 0.000164562
0.02125 0 0.02625 0.000132959
-0.02125 3.61401e-20 0.02625 0.000131117
-0.02625 -1.807e-20 0.02125 0.000165764
-0.00125 0 0.03375 7.6134e-05
0.03375 -9.03502e-21 0.00356873 0.000243752
-0.03375 2.71051e-20 0.00356872 0.000244443
0.00375 0 0.03375 7.66656e-05
-0.00375 -1.807e-20 0.03375 7.58691e-05
0.0325 1.0842e-19 0.00994629 0.000213456
-0.0325 1.0842e-19 0.00994629 0.000220125
0.0275 1.0842e-19 0.02 0.000171352
0.02 1.0842e-19 0.0275 0.0001241
-0.02 1.0842e-19 0.0275 0.000121734
-0.0275 1.0842e-19 0.02 0.000173461
0.01 1.0842e-19 0.0325 8.64812e-05
-0.01 1.0842e-19 0.0325 8.44648e-05
0.034123 5.42101e-20 0 0.000206381
-0.034123 0 0 0.000198708
0.03125 3.61401e-20 0.0137433 0.000199771
-0.03125 3.61401e-20 0.0137433 0.000205802
-0.01375 0 0.03125 9.34632e-05
0.01375 3.61401e-20 0.03125 9.60682e-05
0.03375 0 0.00608215 0.000229717
-0.03375 -3.61401e-20 0.00608215 0.000234671
-0.01875 3.61401e-20 0.02875 0.000112294
0.02875 1.807e-20 0.01875 0.000177896
-0.02875 3.61401e-20 0.01875 0.000180964
0.00625 3.61401e-20 0.03375 7.69322e-05
-0.00625 3.61401e-20 0.03375 7.56049e-05
0.01875 3.61401e-20 0.02875 0.000115072
0.03 1.0842e-19 0.0175 0.000183815
0.0175 1.0842e-19 0.03 0.000105722
-0.0175 1.0842e-19 0.03 0.000102742
-0.03 1.0842e-19 0.0175 0.000187801
0.0325 1.0842e-19 0.0124878 0.000204318
-0.0325 1.0842e-19 0.0124878 0.000210894
0.0125 1.0842e-19 0.0325 8.67367e-05
-0.0125 1.0842e-19 0.0325 8.42149e-05
-0.03375 1.807e-20 0.008656 0.000224721
0.03375 0 0.008656 0.000218045
0.00875 0 0.03375 7.71995e-05
-0.00875 3.61401e-20 0.03375 7.53412e-05
-0.035 0 0 0.000198636
0.035 1.0842e-19 0 0.000206507
-1.02399e-14 1.0842e-19 0.035 6.73937e-05
-0.035 -1.0842e-19 0.00233887 0.000223458
0.035 1.0842e-19 0.00233887 0.000226914
0.0025 1.0842e-19 0.035 6.76705e-05
-0.0025 1.0842e-19 0.035 6.71177e-05
0.03125 0 0.0162494 0.000189502
-0.03125 -1.807e-20 0.0162494 0.000194422
-0.01625 -1.807e-20 0.03125 9.32286e-05
0.01625 -1.807e-20 0.03125 9.63098e-05
0.035 1.0842e-19 0.00479858 0.000238465
-0.035 1.0842e-19 0.00479858 0.000241623
0.025 1.0842e-19 0.025 0.000141419
0.005 1.0842e-19 0.035 6.79478e-05
-0.005 1.0842e-19 0.035 6.68425e-05
-0.025 1.0842e-19 0.025 0.000140073
0.02625 -1.807e-20 0.02375 0.000149558
0.02375 -1.807e-20 0.02625 0.000133072
-0.02375 -1.807e-20 0.02625 0.000131008
-0.02625 0 0.02375 0.00014902
0.0275 1.0842e-19 0.0225 0.000157155
0.0225 1.0842e-19 0.0275 0.00012425
-0.0225 1.0842e-19 0.0275 0.000121585
-0.0275 1.0842e-19 0.0225 0.000157504
-0.03375 -1.807e-20 0.011217 0.000215839
0.03375 0 0.011217 0.000208795
0.01125 0 0.03375 7.74674e-05
-0.01125 -1.807e-20 0.03375 7.5078e-05
0.02875 -1.807e-20 0.02125 0.00016452
0.02125 0 0.02875 0.00011526
-0.02125 0 0.02875 0.000112108
-0.02875 0 0.02125 0.000165831
0.035 1.0842e-19 0.00736572 0.000223471
-0.035 1.0842e-19 0.00736572 0.000229638
0.0325 1.0842e-19 0.0149988 0.000194621
-0.0325 1.0842e-19 0.0149988 0.000200354
0.015 1.0842e-19 0.0325 8.69934e-05
-0.015 1.0842e-19 0.0325 8.39653e-05
0.0075 1.0842e-19 0.035 6.82259e-05
-0.0075 1.0842e-19 0.035 6.6568e-05
-0.035877 1.6263e-19 0 0.000198569
0.035877 0 0 0.000206643
0.03 1.0842e-19 0.02 0.000171274
0.02 1.0842e-19 0.03 0.000105938
-0.02 1.0842e-19 0.03 0.00010253
-0.03 1.0842e-19 0.02 0.000173571
0.03625 0 0.00116944 0.000209345
-0.03625 -1.807e-20 0.00116944 0.000201784
0.00125 3.61401e-20 0.03625 5.87875e-05
-0.00125 0 0.03625 5.85021e-05
0.035 1.0842e-19 0.00994629 0.000213222
-0.035 1.0842e-19 0.00994629 0.000220417
0.01 1.0842e-19 0.035 6.85046e-05
-0.01 1.0842e-19 0.035 6.62942e-05
0.03625 0 0.00356873 0.000243739
-0.03625 -9.03502e-21 0.00356872 0.000244489
0.03375 0 0.0137433 0.00019956
-0.03375 0 0.0137433 0.000206079
-0.01875 3.61401e-20 0.03125 9.29939e-05
0.03125 1.807e-20 0.01875 0.000177784
0.01875 0 0.03125 9.65526e-05
-0.03125 0 0.01875 0.000181116
0.01375 -1.807e-20 0.03375 7.77367e-05
-0.01375 0 0.03375 7.48152e-05
0.00375 0 0.03625 5.90736e-05
-0.00375 3.61401e-20 0.03625 5.82179e-05
0.036623 -1.0842e-19 0 0.000206756
-0.036623 5.42101e-20 0 0.00019851
0.03625 3.61401e-20 0.00608215 0.000229536
-0.03625 -3.61401e-20 0.00608215 0.000234873
-0.00625 0 0.03625 5.79345e-05
0.00625 3.61401e-20 0.03625 5.93604e-05
0.0325 1.0842e-19 0.0175 0.000183674
0.0175 1.0842e-19 0.0325 8.72514e-05
-0.0175 1.0842e-19 0.0325 8.37158e-05
-0.0325 1.0842e-19 0.0175 0.000187991
-0.02625 -1.807e-20 0.02625 0.000130899
0.02625 -1.807e-20 0.02625 0.000133185
0.035 1.0842e-19 0.0124878 0.000204095
-0.035 1.0842e-19 0.0124878 0.000211185
0.025 1.0842e-19 0.0275 0.000124402
0.0275 1.0842e-19 0.025 0.000141493
0.0125 1.0842e-19 0.035 6.87843e-05
-0.0125 1.0842e-19 0.035 6.60211e-05
-0.025 1.0842e-19 0.0275 0.000121436
-0.0275 1.0842e-19 0.025 0.000140007
-0.03625 1.807e-20 0.008656 0.000225001
0.03625 3.61401e-20 0.008656 0.000217814
0.02375 -1.807e-20 0.02875 0.000115447
-0.02875 0 0.02375 0.000148998
0.02875 0 0.02375 0.000149592
-0.02375 0 0.02875 0.000111922
0.00875 3.61401e-20 0.03625 5.96481e-05
-0.00875 3.61401e-20 0.03625 5.76521e-05
0.03375 -1.807e-20 0.0162494 0.000189333
-0.03375 -1.807e-20 0.0162494 0.000194648
0.01625 0 0.03375 7.80073e-05
-0.01625 0 0.03375 7.45529e-05
0.0375 -1.0842e-19 0 0.000206884
-0.0375 1.0842e-19 0 0.00019844
0.03 1.0842e-19 0.0225 0.000157151
0.0225 1.0842e-19 0.03 0.000106156
-1.02397e-14 1.0842e-19 0.0375 5.02795e-05
-0.0225 1.0842e-19 0.03 0.000102318
-0.03 1.0842e-19 0.0225 0.000157527
0.0375 1.0842e-19 0.00233887 0.00022709
-0.0375 0 0.00233887 0.000223386
0.0025 1.0842e-19 0.0375 5.05657e-05
-0.0025 1.0842e-19 0.0375 4.99947e-05
-0.03125 -1.807e-20 0.02125 0.000165899
-0.02125 3.61401e-20 0.03125 9.27593e-05
0.03125 -1.807e-20 0.02125 0.000164478
0.02125 -1.807e-20 0.03125 9.67965e-05
0.0375 1.0842e-19 0.00479858 0.000238356
-0.0375 -1.0842e-19 0.00479858 0.000241754
0.005 1.0842e-19 0.0375 5.08531e-05