# kMean  POINT_DATA 38412
# x  y  z  kMean
0 -0.000876977 7.72851e-09 0.000200022
-1.0842e-19 0.000373007 0.00116944 0.000199801
0 0.00162301 7.22625e-09 0.000199577
-2.1684e-19 -0.00212699 0.00116944 0.000200244
6.51843e-20 -0.000876996 0.00233887 0.00022211
1.1324e-19 0.00162301 0.00233887 0.000221768
0 0.00287301 0.00116943 0.000199352
1.65436e-24 -0.00337698 7.72879e-09 0.000200466
1.0842e-19 0.000373004 0.00356872 0.000244436
-1.03398e-25 0.00162301 0.00347077 0.000228018
0 -0.000876997 0.0039882 0.000231092
-2.99957e-20 -0.003377 0.00233887 0.000222448
0 0.00412303 6.77238e-09 0.000199102
2.1684e-19 -0.002127 0.00356872 0.000244668
1.0842e-19 0.002873 0.00356872 0.000244194
-5.64216e-20 0.00412301 0.00233887 0.00022141
0 -0.004627 0.00116943 0.000200689
0 -0.000876998 0.00479858 0.000235505
-5.16988e-26 0.00412301 0.00276507 0.000223799
0 0.001623 0.00479858 0.00023535
2.58494e-26 -0.003377 0.00418769 0.000232378
-1.0842e-19 0.00537301 0.00116944 0.000198852
0 -0.004627 0.00356872 0.000244895
-5.16988e-26 -0.003377 0.00479858 0.000235659
1.65436e-24 -0.005877 7.46194e-09 0.000200884
0 0.000373001 0.00608215 0.000226289
6.46235e-27 0.00566877 0.00233887 0.000221182
-3.8015e-20 -0.005877 0.00233887 0.000222765
1.03398e-25 0.004123 0.00479858 0.000235197
1.0842e-19 -0.002127 0.00608215 0.000226365
1.0842e-19 0.005373 0.00356873 0.000243956
0 0.00662302 6.54409e-09 0.000198606
-1.0842e-19 0.002873 0.00608215 0.000226223
-3.61892e-25 0.006623 0.00230816 0.000220747
-1.29247e-26 0.006623 0.00233887 0.000221042
0 -0.005877 0.00394677 0.000231289
-2.1684e-19 -0.00712701 0.00116943 0.000201078
0 -0.000876999 0.00736572 0.000220166
-5.16988e-26 0.001623 0.00736572 0.000220136
0 -0.005877 0.00479858 0.000235806
-1.0842e-19 -0.004627 0.00608215 0.000226445
1.0842e-19 0.007873 0.00116944 0.000198359
-2.1684e-19 -0.007127 0.00356872 0.000245097
0 -0.003377 0.00736572 0.000220204
-1.0842e-19 0.005373 0.00608215 0.00022616
1.03398e-25 0.006623 0.00479858 0.000235044
1.65436e-24 -0.008377 7.22726e-09 0.000201265
-1.03398e-25 0.004123 0.00736572 0.000220113
0 0.007873 0.00356873 0.000243718
1.0842e-19 0.000373 0.00865601 0.000213997
-1.33241e-19 -0.008377 0.00233887 0.000223059
0 -0.002127 0.008656 0.000213993
0 -0.008377 0.00311946 0.000227149
-1.0842e-19 0.002873 0.008656 0.000214012
0 0.009123 5.99077e-09 0.000198097
0 -0.007127 0.00608215 0.000226521
-5.16988e-26 0.009123 0.00221178 0.000219436
5.16988e-26 0.009123 0.00233887 0.000220662
0 -0.005877 0.00736572 0.000220238
0 -0.008377 0.00479858 0.000235948
-1.0842e-19 -0.009627 0.00116943 0.000201452
0 -0.004627 0.00865601 0.000213991
1.98693e-20 0.006623 0.00736572 0.00022009
1.0842e-19 0.007873 0.00608215 0.000226088
0 -0.000877 0.00994629 0.000209103
0 0.001623 0.00994629 0.000209138
0 0.005373 0.008656 0.000214036
0 -0.009627 0.00356873 0.000245309
0 0.009123 0.00479858 0.000234885
0 0.010373 0.00116944 0.000197834
0 -0.003377 0.00994629 0.000209073
-4.24601e-20 0.004123 0.00994629 0.000209182
0 -0.010877 7.09664e-09 0.000201636
0 0.010373 0.00356873 0.00024346
-7.0609e-20 -0.010877 0.00233887 0.00022335
-5.16988e-26 -0.008377 0.00736572 0.000220271
4.52364e-26 -0.010877 0.00251816 0.000224278
2.1684e-19 -0.007127 0.008656 0.000213975
1.0842e-19 0.000373 0.011217 0.000204265
0 -0.009627 0.00608215 0.000226596
0 -0.002127 0.011217 0.000204208
0 -0.005877 0.00994629 0.000209039
2.1684e-19 0.002873 0.011217 0.000204331
0 0.011623 5.20219e-09 0.00019756
-2.1684e-19 0.007873 0.008656 0.000214054
1.03398e-25 0.009123 0.00736572 0.000220065
4.1359e-25 0.011623 0.0019339 0.000216332
0 0.011623 0.00233887 0.000220263
0 -0.010877 0.00479858 0.000236088
2.58494e-26 0.006623 0.00994629 0.000209227
0 0.010373 0.00608215 0.000226022
-2.1684e-19 -0.004627 0.011217 0.000204151
-1.0842e-19 -0.012127 0.00116943 0.000201821
-1.0842e-19 0.005373 0.011217 0.000204402
0 -0.000877 0.0124878 0.000199421
2.06795e-25 0.011623 0.00479858 0.000234719
0 0.001623 0.0124878 0.000199499
0 -0.012127 0.00356872 0.000245513
-1.0842e-19 0.012873 0.00116944 0.000197286
0 -0.003377 0.0124878 0.000199348
0 -0.009627 0.008656 0.000213972
0 -0.008377 0.00994629 0.000209005
0 -0.010877 0.00736572 0.000220305
-2.35175e-20 0.004123 0.0124878 0.000199583
0 -0.007127 0.011217 0.000204091
-1.0842e-19 0.012873 0.00356872 0.0002432
0 -0.013377 6.94728e-09 0.000202014
2.58494e-26 0.009123 0.00994629 0.000209272
1.0842e-19 0.010373 0.008656 0.000214074
0 -0.012127 0.00608215 0.000226664
9.65629e-20 -0.013377 0.00233887 0.000223644
9.04729e-26 -0.013377 0.00281502 0.00022608
-1.0842e-19 0.007873 0.011217 0.000204469
-1.0842e-19 0.000373 0.0137433 0.000194673
0 0.011623 0.00736572 0.00022004
0 -0.005877 0.0124878 0.000199273
0 -0.002127 0.0137433 0.00019458
-1.0842e-19 0.002873 0.0137433 0.000194769
0 0.014123 4.00393e-09 0.00019701
0 0.006623 0.0124878 0.000199671
-4.1359e-25 0.014123 0.00137285 0.000210422
1.03398e-25 -0.013377 0.00479858 0.000236229
1.0842e-19 0.012873 0.00608215 0.000225947
-4.1359e-25 0.014123 0.00233887 0.00021986
1.0842e-19 -0.004627 0.0137433 0.000194492
-1.0842e-19 -0.014627 0.00116943 0.000202207
-1.29247e-26 -0.010877 0.00994629 0.000208975
1.0842e-19 0.005373 0.0137433 0.000194872
-4.1359e-25 0.0147726 0 0.000196863
-2.1684e-19 -0.009627 0.011217 0.000204034
0 -0.012127 0.008656 0.000213965
2.06795e-25 0.014123 0.00479858 0.000234553
0 -0.000877 0.0149988 0.000189275
-1.26722e-19 -0.008377 0.0124878 0.000199201
0 -0.014627 0.00356872 0.000245726
0 0.001623 0.0149988 0.000189382
0 -0.013377 0.00736572 0.000220339
-1.0842e-19 0.010373 0.011217 0.000204543
0 0.011623 0.00994629 0.000209321
0 -0.003377 0.0149988 0.000189171
-1.0842e-19 0.015373 0.00116944 0.000196733
0 0.009123 0.0124878 0.00019976
1.0842e-19 -0.007127 0.0137433 0.0001944
-1.0842e-19 0.012873 0.008656 0.000214095
-3.93026e-20 0.004123 0.0149988 0.000189492
1.0842e-19 0.015373 0.00356872 0.000242951
0 0.007873 0.0137433 0.000194982
0 -0.014627 0.00608215 0.000226743
-8.27181e-25 -0.015877 6.63832e-09 0.000202391
0 0.014123 0.00736572 0.000220012
-1.41409e-20 -0.015877 0.00233887 0.000223934
1.9387e-26 -0.015877 0.00252442 0.000224872
0 -0.005877 0.0149988 0.000189071
1.0842e-19 0.000373 0.0162494 0.000183989
0 -0.002127 0.0162494 0.000183873
8.07794e-28 0.006623 0.0149988 0.000189608
1.0842e-19 0.002873 0.0162494 0.000184111
0 -0.012127 0.011217 0.000203983
0 0.015373 0.00608215 0.000225867
0 -0.010877 0.0124878 0.000199133
0 -0.015877 0.00479858 0.000236365
-1.65436e-24 0.016623 1.14059e-08 0.000196444
0 -0.013377 0.00994629 0.000208949
1.0842e-19 -0.009627 0.0137433 0.000194319
-8.27181e-25 0.016623 0.00233887 0.000219447
0 -0.004627 0.0162494 0.000183757
0 -0.014627 0.008656 0.00021396
-6.46235e-27 0.011623 0.0124878 0.000199853
0 0.012873 0.011217 0.000204622
0 0.005373 0.0162494 0.00018423
1.0842e-19 -0.017127 0.00116943 0.000202575
-2.01948e-28 -0.008377 0.0149988 0.000188975
-1.0842e-19 0.010373 0.0137433 0.000195087
-2.58494e-26 0.014123 0.00994629 0.00020937
0 0.016623 0.00479858 0.000234383
-2.1684e-19 -0.017127 0.00356872 0.000245916
0 -0.015877 0.00736572 0.000220371
3.17122e-28 -0.000877 0.0174912 0.000177854
3.28979e-21 -0.000877 0.0175 0.000177814
-8.07794e-28 0.009123 0.0149988 0.00018973
2.35081e-28 0.001623 0.0174922 0.000177977
-1.57772e-30 0.001623 0.0175 0.000177942
-1.0842e-19 0.015373 0.00865601 0.00021412
0 -0.007127 0.0162494 0.000183651
-2.8399e-28 -0.003377 0.0174891 0.000177738
0 -0.003377 0.0175 0.000177688
1.0842e-19 0.017873 0.00116944 0.000196155
-2.00371e-28 0.004123 0.0174928 0.000178104
-1.57772e-30 0.004123 0.0175 0.000178071
0 0.007873 0.0162494 0.000184361
1.0842e-19 -0.017127 0.00608215 0.000226803
0 0.016623 0.00736572 0.000219983
1.0842e-19 0.017873 0.00356872 0.000242684
-3.23117e-27 -0.013377 0.0124878 0.00019907
0 -0.012127 0.0137433 0.000194237
8.27181e-25 -0.018377 6.50332e-09 0.000202737
-1.0842e-19 -0.014627 0.011217 0.00020394
1.29373e-28 -0.005877 0.0174846 0.000177639
8.08456e-20 -0.005877 0.0175 0.000177569
1.25722e-19 -0.018377 0.00233887 0.000224206
0 -0.010877 0.0149988 0.000188883
-2.58494e-26 -0.018377 0.0024529 0.000224776
-2.2877e-28 0.006623 0.0174931 0.000178238
0 0.006623 0.0175 0.000178207
0 -0.015877 0.00994629 0.000208924
-1.0842e-19 0.000373 0.01875 0.000171766
1.0842e-19 0.012873 0.0137433 0.000195199
0 0.014123 0.0124878 0.000199948
0 -0.002127 0.01875 0.000171629
-1.0842e-19 0.017873 0.00608215 0.000225788
1.0842e-19 -0.009627 0.0162494 0.000183545
1.03398e-25 0.0189403 0 0.000195911
0 0.002873 0.01875 0.000171902
4.03897e-28 0.011623 0.0149988 0.000189853
0 -0.018377 0.00479858 0.000236497
0 0.015373 0.011217 0.000204693
2.06795e-25 0.019123 8.99002e-10 0.000195869
0 0.019123 0.000443798 0.000200262
-1.0842e-19 -0.017127 0.008656 0.000213956
1.91219e-20 0.019123 0.00233887 0.000219024
-1.0842e-19 0.010373 0.0162494 0.000184503
1.03398e-25 0.0193061 0 0.000195824
-1.0842e-19 -0.004627 0.01875 0.000171497
0 0.016623 0.00994629 0.000209419
3.15544e-29 -0.008377 0.0174794 0.000177548
3.28979e-21 -0.008377 0.0175 0.000177454
1.0842e-19 0.005373 0.01875 0.000172044
0 -0.019627 0.00116943 0.000202898
0 0.019123 0.00479858 0.000234213
-5.52203e-29 0.009123 0.0174927 0.000178385
-9.67102e-20 0.009123 0.0175 0.000178352
-5.16988e-26 -0.018377 0.00736572 0.000220402
-1.0842e-19 0.017873 0.008656 0.000214138
1.0842e-19 -0.019627 0.00356872 0.000246124
-9.67102e-20 -0.000877 0.02 0.000164768
-1.0842e-19 -0.007127 0.01875 0.000171372
3.28979e-21 0.001623 0.02 0.000164912
-1.0842e-19 -0.014627 0.0137433 0.000194159
0 -0.013377 0.0149988 0.000188792
0 -0.015877 0.0124878 0.00019901
1.0842e-19 -0.012127 0.0162494 0.000183445
3.28979e-21 -0.003377 0.02 0.000164626
0 0.007873 0.01875 0.000172195
1.0842e-19 0.020373 0.00116944 0.000195582
3.28979e-21 0.004123 0.02 0.00016506
0 -0.017127 0.011217 0.000203892
0 0.019123 0.00736572 0.000219955
0 -0.019627 0.00608215 0.00022687
1.57772e-30 -0.010877 0.0174793 0.000177437
0 0.014123 0.0149988 0.000189981
0 -0.010877 0.0175 0.000177342
1.0842e-19 0.015373 0.0137433 0.000195317
0 0.020373 0.00356872 0.000242417
-1.0842e-19 0.012873 0.0162494 0.000184638
6.46235e-27 0.016623 0.0124878 0.000200044
3.28979e-21 -0.005877 0.02 0.00016449
0 -0.020877 7.37805e-09 0.000203055
0 -0.018377 0.00994629 0.000208902
-2.99767e-28 0.011623 0.0174915 0.000178539
8.0752e-20 -0.020877 0.00233887 0.000224466
-9.67043e-20 0.011623 0.0175 0.0001785
3.28979e-21 0.006623 0.02 0.000165214
0 -0.009627 0.01875 0.000171249
1.0842e-19 0.017873 0.011217 0.000204773
1.0842e-19 0.000373 0.02125 0.000157911
0 0.020373 0.00608215 0.000225724
-5.16988e-26 -0.020877 0.00408776 0.000233116
-1.0842e-19 -0.002127 0.02125 0.000157765
0 -0.020877 0.00479858 0.000236632
0 0.010373 0.01875 0.000172351
-1.0842e-19 0.002873 0.02125 0.000158068
0 -0.019627 0.00865601 0.000213957
-5.04618e-20 0.019123 0.00994629 0.000209466
0 0.021623 1.1374e-08 0.000195257
-1.91544e-20 -0.008377 0.02 0.00016436
1.0842e-19 -0.004627 0.02125 0.000157615
1.62598e-19 0.021623 0.00233888 0.000218579
4.03897e-28 -0.015877 0.0149988 0.000188706
0 -0.014627 0.0162494 0.000183343
-1.0842e-19 0.005373 0.02125 0.000158226
0 -0.017127 0.0137433 0.000194089
3.28979e-21 0.009123 0.02 0.000165374
8.83524e-29 -0.013377 0.0174821 0.000177315
8.08456e-20 -0.013377 0.0175 0.000177232
-1.0842e-19 0.020373 0.008656 0.000214149
0 -0.020877 0.00736572 0.000220436
4.1359e-25 0.021623 0.00479858 0.000234038
1.0842e-19 -0.022127 0.00116943 0.000203212
3.23117e-27 -0.018377 0.0124878 0.000198954
0 -0.012127 0.01875 0.00017113
1.0842e-19 0.015373 0.0162494 0.000184786
0 0.016623 0.0149988 0.000190113
0 -0.022127 0.00356872 0.000246318
1.0842e-19 -0.007127 0.02125 0.000157478
-2.11415e-28 0.014123 0.0174909 0.000178693
0 0.014123 0.0175 0.000178652
8.08456e-20 -0.000877 0.0225 0.000150157
-1.0842e-19 0.017873 0.0137433 0.000195432
8.08456e-20 0.001623 0.0225 0.000150314
0 -0.019627 0.011217 0.000203857
0 0.007873 0.02125 0.00015839
-1.0842e-19 0.012873 0.01875 0.000172509
3.28979e-21 -0.003377 0.0225 0.000150002
-9.67102e-20 -0.010877 0.02 0.000164233
-6.46235e-27 0.019123 0.0124878 0.000200143
-4.67455e-20 0.021623 0.00736572 0.000219927
8.08456e-20 0.004123 0.0225 0.000150478
-1.0842e-19 0.022873 0.00116944 0.000194932
1.0842e-19 -0.022127 0.00608215 0.000226942
0 -0.020877 0.00994629 0.000208881
3.28979e-21 0.011623 0.02 0.00016554
1.0842e-19 0.022873 0.00356872 0.000242133
3.28979e-21 -0.005877 0.0225 0.000149854
1.0842e-19 0.020373 0.011217 0.000204852
-2.58494e-26 -0.0227717 0.00479858 0.000236732
-1.0842e-19 -0.009627 0.02125 0.00015734
-1.65436e-24 -0.023377 8.97906e-09 0.000203369
8.08456e-20 0.006623 0.0225 0.000150648
1.25775e-19 -0.023377 0.00233887 0.00022472
1.0842e-19 -0.017127 0.0162494 0.000183247
7.09975e-29 -0.015877 0.017484 0.000177199
5.84013e-20 -0.015877 0.0175 0.000177125
0 0.010373 0.02125 0.000158559
1.0842e-19 0.022873 0.00608215 0.00022564
0 -0.018377 0.0149988 0.000188625
0 0.000373 0.02375 0.000142557
0 -0.022127 0.008656 0.000213953
0 -0.014627 0.01875 0.000171013
-6.33372e-20 0.021623 0.00994629 0.000209517
1.0842e-19 -0.002127 0.02375 0.000142394
1.29247e-26 -0.023377 0.00479858 0.000236764
0 0.002873 0.02375 0.000142722
1.0842e-19 -0.019627 0.0137433 0.000194021
-1.91544e-20 -0.008377 0.0225 0.000149711
8.08456e-20 -0.013377 0.02 0.000164111
1.29247e-26 -0.023377 0.00594996 0.000229457
0 0.024123 1.13291e-08 0.000194599
8.04638e-29 0.016623 0.0174918 0.000178847
1.58401e-19 0.016623 0.0175 0.00017881
-2.1684e-19 0.017873 0.0162494 0.000184932
-1.0842e-19 -0.004627 0.02375 0.000142235
-9.11371e-20 0.024123 0.00233888 0.000218108
-1.0842e-19 0.015373 0.01875 0.000172676
-9.67102e-20 0.009123 0.0225 0.000150824
0 0.019123 0.0149988 0.000190248
-1.03437e-19 -0.020877 0.0124878 0.0001989
-1.0842e-19 0.005373 0.02375 0.000142896
0 0.022873 0.00865601 0.000214173
0 -0.012127 0.02125 0.000157214
8.08456e-20 0.014123 0.02 0.000165712
0 -0.023377 0.00736572 0.000220471
0 0.020373 0.0137433 0.000195557
9.7039e-20 0.024123 0.00479858 0.000233855
1.0842e-19 -0.024627 0.00116943 0.000203526
1.0842e-19 -0.007127 0.02375 0.000142087
1.0842e-19 -0.022127 0.011217 0.000203811
-1.0842e-19 0.012873 0.02125 0.000158738
1.0842e-19 -0.024627 0.00356872 0.00024651
-1.23312e-19 0.021623 0.0124878 0.00020025
-1.91544e-20 -0.010877 0.0225 0.000149573
3.28979e-21 -0.000877 0.025 0.000134165
0 0.007873 0.02375 0.000143078
-1.91544e-20 0.001623 0.025 0.000134334
0 0.024123 0.00736572 0.0002199
3.28979e-21 -0.003377 0.025 0.000134
8.08456e-20 0.011623 0.0225 0.000151007
-1.91544e-20 0.004123 0.025 0.000134507
-1.73549e-29 -0.018377 0.0174852 0.000177093
0 -0.024627 0.00608215 0.000227009
0 -0.018377 0.0175 0.000177024
1.0842e-19 -0.017127 0.01875 0.000170898
1.0842e-19 0.025373 0.00116944 0.000194266
1.29247e-26 -0.023377 0.00994629 0.000208861
-1.0842e-19 0.022873 0.011217 0.000204943
0 -0.019627 0.0162494 0.000183159
8.08456e-20 -0.015877 0.02 0.00016399
0 0.025373 0.00356873 0.000241852
-1.0842e-19 -0.009627 0.02375 0.00014194
-9.67102e-20 -0.005877 0.025 0.000133842
0 -0.020877 0.0149988 0.000188546
1.0842e-19 -0.014627 0.02125 0.000157085
-1.91544e-20 0.006623 0.025 0.000134687
0 -0.025877 1.00763e-08 0.000203674
0 0.017873 0.01875 0.00017285
0 0.010373 0.02375 0.000143268
-1.54617e-28 0.019123 0.0174929 0.000179005
-1.91468e-20 0.019123 0.0175 0.000178973
-1.09365e-19 -0.025877 0.00233887 0.000224968
-1.91544e-20 0.016623 0.02 0.00016589
-1.0842e-19 -0.022127 0.0137433 0.000193953
0 0.020373 0.0162494 0.000185085
1.0842e-19 0.025373 0.00608215 0.000225562
5.16988e-26 0.024123 0.00994629 0.000209576
-1.0842e-19 -0.024627 0.008656 0.000213958
8.08456e-20 -0.013377 0.0225 0.00014944
-1.0842e-19 0.015373 0.02125 0.000158924
0 0.000373 0.02625 0.00012594
0 0.021623 0.0149988 0.000190391
-3.60172e-20 -0.025877 0.00479858 0.000236895
0 -0.002127 0.02625 0.000125769
-1.91544e-20 -0.008377 0.025 0.000133689
-1.0842e-19 0.002873 0.02625 0.000126117
-3.41447e-20 -0.023377 0.0124878 0.000198847
-1.91544e-20 0.014123 0.0225 0.000151197
-1.91544e-20 0.009123 0.025 0.000134874
0 0.026623 3.78395e-10 0.000193925
-1.0842e-19 -0.004627 0.02625 0.000125604
-1.0842e-19 -0.012127 0.02375 0.000141798
1.0842e-19 0.022873 0.0137433 0.000195686
-8.27181e-25 0.026623 0.00233887 0.000217629
-1.0842e-19 0.005373 0.02625 0.000126293
-1.0842e-19 0.025373 0.008656 0.000214204
1.05013e-26 -0.0257893 0.00736572 0.000220509
7.92252e-21 -0.025877 0.00736572 0.000220511
-8.07794e-28 -0.025877 0.00770613 0.000218972
0 0.012873 0.02375 0.000143461
0 0.026623 0.00479858 0.000233676
1.0842e-19 -0.024627 0.011217 0.000203775
0 -0.019627 0.01875 0.000170794
0 -0.027127 0.00116944 0.000203823
-9.67102e-20 -0.018377 0.02 0.000163875
1.29247e-26 0.024123 0.0124878 0.000200363
0 -0.007127 0.02625 0.000125443
-2.8399e-29 -0.020877 0.0174855 0.000176995
0 -0.020877 0.0175 0.000176928
-1.91544e-20 -0.010877 0.025 0.00013354
-1.0842e-19 -0.017127 0.02125 0.000156964
2.1684e-19 -0.027127 0.00356872 0.000246695
0 0.007873 0.02625 0.000126481
1.0842e-19 -0.022127 0.0162494 0.000183067
8.08456e-20 -0.000877 0.0275 0.000117018
-9.67102e-20 -0.015877 0.0225 0.000149311
8.08456e-20 0.001623 0.0275 0.000117188
5.84013e-20 0.011623 0.025 0.000135067
0 0.026623 0.00736572 0.000219878
-1.91544e-20 0.019123 0.02 0.000166074
-1.0842e-19 0.020373 0.01875 0.000173026
8.08456e-20 -0.003377 0.0275 0.000116853
0 -0.025877 0.00994629 0.000208847
-1.0842e-19 0.025373 0.011217 0.000205033
0 0.017873 0.02125 0.000159111
2.01948e-28 -0.023377 0.0149988 0.000188471
-1.0842e-19 -0.027127 0.00608215 0.000227086
-1.91544e-20 0.004123 0.0275 0.000117361
6.15312e-29 0.021623 0.0174934 0.000179173
-1.57772e-30 0.021623 0.0175 0.000179144
1.0842e-19 -0.014627 0.02375 0.000141663
1.0842e-19 0.027873 0.00116944 0.000193583
1.0842e-19 -0.009627 0.02625 0.000125286
-1.91544e-20 0.016623 0.0225 0.000151392
0 0.022873 0.0162494 0.000185251
0 0.027873 0.00356873 0.000241572
-9.67102e-20 -0.005877 0.0275 0.000116693
1.0842e-19 -0.024627 0.0137433 0.000193889
0 0.010373 0.02625 0.000126669
-1.91544e-20 0.006623 0.0275 0.000117541
-1.0842e-19 0.015373 0.02375 0.000143664
1.58401e-19 -0.013377 0.025 0.000133397
0 -0.028377 1.04784e-08 0.000203959
0 0.024123 0.0149988 0.000190543
0 0.026623 0.00994629 0.000209639
1.05603e-19 -0.028377 0.00233887 0.000225203
-2.1684e-19 -0.027127 0.008656 0.000213966
0 0.027873 0.00608215 0.000225486
5.84013e-20 0.014123 0.025 0.000135268
0 -0.025877 0.0124878 0.000198798
8.08456e-20 -0.008377 0.0275 0.000116538
0 0.000373 0.02875 0.000108262
-4.29502e-20 -0.028377 0.00479858 0.000237023
1.0842e-19 -0.002127 0.02875 0.000108099
-1.0842e-19 0.025373 0.0137433 0.000195827
1.0842e-19 0.002873 0.02875 0.000108432
-1.91544e-20 -0.020877 0.02 0.000163765
1.0842e-19 -0.012127 0.02625 0.000125137
0 -0.019627 0.02125 0.000156844
-1.91544e-20 0.009123 0.0275 0.000117727
-1.0842e-19 -0.022127 0.01875 0.000170692
8.08456e-20 -0.018377 0.0225 0.000149186
-1.0842e-19 -0.004627 0.02875 0.000107939
0 0.029123 1.56263e-08 0.000193233
0 0.027873 0.008656 0.000214239
-6.31089e-30 -0.023377 0.0174839 0.000176911
5.84047e-20 -0.023377 0.0175 0.000176836
-8.27181e-25 0.029123 0.00233888 0.000217136
-1.0842e-19 0.012873 0.02625 0.000126871
1.0842e-19 0.005373 0.02875 0.000108604
0 -0.017127 0.02375 0.000141531
-5.60997e-20 -0.028377 0.00736572 0.000220551
2.1684e-19 -0.027127 0.011217 0.000203743
0 0.026623 0.0124878 0.00020048
-1.0842e-19 0.020373 0.02125 0.000159307
1.58401e-19 0.021623 0.02 0.000166267
1.0842e-19 -0.024627 0.0162494 0.000182989
0 0.029123 0.00479858 0.000233494
-1.91544e-20 0.019123 0.0225 0.000151594
5.84013e-20 -0.010877 0.0275 0.000116387
-1.0842e-19 0.022873 0.01875 0.000173214
8.08456e-20 -0.015877 0.025 0.000133259
0 -0.007127 0.02875 0.000107786
1.0842e-19 -0.029627 0.00116944 0.000204095
-1.0842e-19 0.017873 0.02375 0.000143871
-3.12389e-28 0.024123 0.0174941 0.000179328
0 0.007873 0.02875 0.000108786
1.0842e-19 -0.029627 0.00356873 0.00024688
8.08456e-20 0.011623 0.0275 0.000117917
0 -0.025877 0.0149988 0.000188399
8.07794e-28 -0.028377 0.00976037 0.00020968
-1.91544e-20 -0.000877 0.03 9.90867e-05
8.08456e-20 0.016623 0.025 0.000135475
2.06795e-25 0.029123 0.00736572 0.000219861
8.08456e-20 0.001623 0.03 9.92444e-05
0 0.027873 0.011217 0.000205129
0 -0.014627 0.02625 0.00012499
0 -0.028377 0.00994629 0.000208836
1.0842e-19 0.025373 0.0162494 0.000185422
-1.91544e-20 -0.003377 0.03 9.89339e-05
-1.0842e-19 -0.029627 0.00608215 0.000227149
-1.91544e-20 0.004123 0.03 9.94068e-05
0 -0.009627 0.02875 0.000107636
2.1684e-19 0.030373 0.00116944 0.000192882
1.0842e-19 -0.027127 0.0137433 0.000193825
-1.0842e-19 0.015373 0.02625 0.000127075
0 0.026623 0.0149988 0.0001907
-1.0842e-19 0.010373 0.02875 0.000108971
-1.91544e-20 -0.005877 0.03 9.87862e-05
-1.91544e-20 -0.013377 0.0275 0.000116242
0 0.030373 0.00356873 0.000241271
0 -0.022127 0.02125 0.00015673
8.08456e-20 -0.020877 0.0225 0.000149066
-1.91544e-20 0.006623 0.03 9.95746e-05
-1.91544e-20 -0.023377 0.02 0.00016366
0 0.029123 0.00994629 0.000209708
1.0842e-19 -0.019627 0.02375 0.000141406
0 -0.029627 0.008656 0.000213978
0 -0.030877 1.0238e-08 0.000204236
8.08456e-20 0.014123 0.0275 0.000118115
-1.0842e-19 -0.024627 0.01875 0.000170596
1.54549e-19 -0.030877 0.00233887 0.000225435
0 0.030373 0.00608215 0.000225421
-8.07794e-28 -0.028377 0.0124878 0.000198752
-9.67102e-20 -0.018377 0.025 0.000133128
0 0.027873 0.0137433 0.000195969
1.58401e-19 -0.008377 0.03 9.86442e-05
0 -0.012127 0.02875 0.000107491
1.58401e-19 0.021623 0.0225 0.000151807
0 0.022873 0.02125 0.000159518
5.20648e-29 -0.025877 0.017478 0.00017685
1.58401e-19 -0.025877 0.0175 0.000176748
0 -0.030877 0.00479858 0.000237154
0 0.000373 0.03125 9.0066e-05
0 0.020373 0.02375 0.000144087
0 -0.002127 0.03125 8.99199e-05
8.08456e-20 0.024123 0.02 0.000166468
0 -0.017127 0.02625 0.000124853
-1.91544e-20 0.009123 0.03 9.97472e-05
1.0842e-19 0.002873 0.03125 9.02176e-05
0 0.019123 0.025 0.000135691
0 0.012873 0.02875 0.000109158
-1.0842e-19 0.025373 0.01875 0.000173408
0 0.030373 0.00865601 0.000214279
0 -0.004627 0.03125 8.97777e-05
0 -0.027127 0.0162494 0.000182907
0 0.031623 1.58158e-08 0.000192515
0 -0.029627 0.011217 0.000203709
0 0.029123 0.0124878 0.000200603
0 0.005373 0.03125 9.03741e-05
-8.27181e-25 0.031623 0.00233888 0.000216625
0 -0.030877 0.00736572 0.000220596
8.08456e-20 -0.015877 0.0275 0.000116103
0 0.017873 0.02625 0.000127293
-3.69187e-28 0.026623 0.017495 0.000179512
5.84013e-20 -0.010877 0.03 9.8506e-05
0 0.031623 0.00479858 0.000233308
1.0842e-19 -0.007127 0.03125 8.96423e-05
-1.00974e-28 -0.028377 0.0149988 0.000188329
-9.67102e-20 0.016623 0.0275 0.000118322
-1.0842e-19 -0.032127 0.00116943 0.000204377
-9.67102e-20 0.011623 0.03 9.99237e-05
-1.0842e-19 0.007873 0.03125 9.05349e-05
1.0842e-19 -0.014627 0.02875 0.00010735
-1.0842e-19 0.027873 0.0162494 0.000185596
-3.23117e-27 -0.030877 0.00950556 0.000210838
-2.1684e-19 -0.032127 0.00356872 0.000247065
-2.1684e-19 0.030373 0.011217 0.000205235
-7.49898e-20 -0.030877 0.00994629 0.000208829
3.28979e-21 -0.023377 0.0225 0.00014895
1.0842e-19 -0.022127 0.02375 0.000141284
2.06795e-25 0.031623 0.00736572 0.000219846
8.08456e-20 -0.000877 0.0325 8.11592e-05
1.0842e-19 -0.024627 0.02125 0.000156621
8.08456e-20 0.001623 0.0325 8.13019e-05
-9.67102e-20 -0.020877 0.025 0.000133
1.0842e-19 0.015373 0.02875 0.000109358
0 -0.0318135 0.00736572 0.000220614
0 -0.029627 0.0137433 0.000193774
-9.67102e-20 -0.003377 0.0325 8.10217e-05
1.0842e-19 -0.032127 0.00608215 0.000227237
1.0842e-19 -0.009627 0.03125 8.95124e-05
8.08456e-20 -0.025877 0.02 0.000163559
8.07794e-28 0.029123 0.0149988 0.000190861
-1.91544e-20 0.004123 0.0325 8.14486e-05
1.0842e-19 -0.019627 0.02625 0.000124722
1.58401e-19 -0.013377 0.03 9.8373e-05
-1.0842e-19 0.032873 0.00116944 0.000192148
-1.0842e-19 0.010373 0.03125 9.06971e-05
1.0842e-19 0.022873 0.02375 0.000144315
0 -0.027127 0.01875 0.000170501
1.58401e-19 0.024123 0.0225 0.000152029
-9.67102e-20 -0.005877 0.0325 8.08891e-05
8.08456e-20 0.021623 0.025 0.000135916
1.0842e-19 0.032873 0.00356873 0.000240969
8.08456e-20 -0.018377 0.0275 0.00011597
-1.0842e-19 0.025373 0.02125 0.00015973
0 0.031623 0.00994629 0.000209781
-9.67102e-20 0.014123 0.03 0.000100109
-1.91544e-20 0.006623 0.0325 8.16e-05
0 0.020373 0.02625 0.000127516
1.0842e-19 -0.032127 0.008656 0.000213995
-1.91544e-20 0.026623 0.02 0.000166676
0 -0.030877 0.0124878 0.000198711
-3.15544e-29 -0.028377 0.0174661 0.000176819
0 0.030373 0.0137433 0.000196118
0 -0.028377 0.0175 0.000176661
1.65436e-24 -0.033377 9.23372e-09 0.000204524
0 0.032873 0.00608215 0.000225347
1.37375e-19 -0.033377 0.00233887 0.000225675
-1.0842e-19 -0.017127 0.02875 0.00010722
-1.57772e-30 0.019123 0.0275 0.000118538
-1.0842e-19 -0.012127 0.03125 8.93853e-05
8.08456e-20 -0.008377 0.0325 8.07614e-05
-1.0842e-19 0.027873 0.01875 0.00017361
3.86894e-20 -0.033377 0.00479858 0.000237292
0 0.000373 0.03375 7.23922e-05
-1.91544e-20 0.009123 0.0325 8.17554e-05
0 -0.029627 0.0162494 0.000182827
0 0.012873 0.03125 9.08694e-05
1.0842e-19 -0.002127 0.03375 7.22588e-05
0 0.017873 0.02875 0.000109563
0 0.002873 0.03375 7.25318e-05
-1.91544e-20 -0.015877 0.03 9.82465e-05
0 -0.033377 0.00627875 0.000227693
-1.53039e-28 0.029123 0.0174956 0.000179703
2.1684e-19 0.032873 0.008656 0.000214317
0 0.031623 0.0124878 0.000200732
-1.0842e-19 -0.032127 0.011217 0.000203687
0 -0.004627 0.03375 7.21304e-05
0 0.034123 1.53106e-08 0.000191766
-1.0842e-19 0.005373 0.03375 7.2671e-05
1.29247e-26 -0.033377 0.00736572 0.000220645
-8.27181e-25 0.034123 0.00233888 0.000216096
1.0842e-19 -0.024627 0.02375 0.000141164
-3.54881e-20 -0.023377 0.025 0.000132876
-1.91544e-20 -0.010877 0.0325 8.06379e-05
3.28979e-21 -0.025877 0.0225 0.000148839
-9.67102e-20 0.016623 0.03 0.000100302
-2.01948e-28 -0.030877 0.0149988 0.000188264
0 -0.022127 0.02625 0.000124588
-1.29247e-26 -0.0340738 0.00479858 0.000237328
1.0842e-19 0.030373 0.0162494 0.000185778
0 0.034123 0.00479858 0.00023312
0 -0.027127 0.02125 0.000156516
0 -0.007127 0.03375 7.20059e-05
0 -0.014627 0.03125 8.92663e-05
1.58401e-19 0.011623 0.0325 8.19145e-05
-1.91544e-20 -0.020877 0.0275 0.000115838
0 -0.034627 0.00116943 0.000204672
0 0.007873 0.03375 7.28201e-05
8.08456e-20 -0.028377 0.02 0.000163461
0 0.032873 0.011217 0.000205341
1.58401e-19 0.024123 0.025 0.000136151
1.0842e-19 0.025373 0.02375 0.000144551
-2.1684e-19 -0.034627 0.00356872 0.000247265
0 -0.019627 0.02875 0.000107086
0 0.022873 0.02625 0.000127749
0 0.015373 0.03125 9.10507e-05
2.55634e-21 -0.033377 0.00994629 0.000208823
8.08456e-20 0.026623 0.0225 0.000152259
2.06795e-25 0.034123 0.00736572 0.000219831
1.0842e-19 -0.032127 0.0137433 0.000193716
-1.91544e-20 0.021623 0.0275 0.000118761
0 0.031623 0.0149988 0.00019103
-3.54881e-20 -0.000877 0.035 6.39408e-05
3.28979e-21 0.001623 0.035 6.40732e-05
-1.0842e-19 0.027873 0.02125 0.000159956
1.0842e-19 -0.029627 0.01875 0.000170409
-1.0842e-19 -0.009627 0.03375 7.18853e-05
1.58401e-19 -0.013377 0.0325 8.05208e-05
0 -0.034627 0.00608215 0.000227316
-1.13044e-19 -0.003377 0.035 6.38128e-05
-1.91544e-20 -0.018377 0.03 9.81218e-05
-1.0842e-19 0.020373 0.02875 0.000109779
-3.54881e-20 0.004123 0.035 6.42088e-05
0 0.010373 0.03375 7.29698e-05
-1.91544e-20 0.029123 0.02 0.000166895
0 0.035373 0.00116944 0.000191384
-1.91544e-20 0.014123 0.0325 8.20808e-05
0 -0.030877 0.0174648 0.000176743
-3.54881e-20 -0.005877 0.035 6.36899e-05
3.28979e-21 -0.030877 0.0175 0.000176579
-5.16988e-26 0.034123 0.00994629 0.000209856
1.0842e-19 0.035373 0.00356873 0.000240661
8.08456e-20 0.019123 0.03 0.000100502
-3.54881e-20 0.006623 0.035 6.43485e-05
-1.0842e-19 0.032873 0.0137433 0.000196273
0 -0.017127 0.03125 8.91496e-05
5.79455e-20 -0.033377 0.0124878 0.00019867
-1.0842e-19 -0.034627 0.008656 0.000214007
0 0.030373 0.01875 0.000173819
0 -0.012127 0.03375 7.17688e-05
0 -0.035877 8.16855e-09 0.000204797
-2.1684e-19 0.035373 0.00608215 0.00022528
7.2795e-21 -0.035877 0.00233887 0.000225903
-3.54881e-20 -0.025877 0.025 0.000132758
-9.67102e-20 -0.008377 0.035 6.35714e-05
0 -0.024627 0.02625 0.000124466
1.0842e-19 0.017873 0.03125 9.1236e-05
1.0842e-19 -0.032127 0.0162494 0.000182755
0 -0.027127 0.02375 0.000141054
1.58401e-19 -0.023377 0.0275 0.000115713
2.58494e-26 -0.035877 0.00410813 0.000234187
-1.0842e-19 0.012873 0.03375 7.31219e-05
-3.58143e-28 0.031623 0.0174955 0.000179903
3.28979e-21 0.009123 0.035 6.44921e-05
1.58401e-19 -0.015877 0.0325 8.04078e-05
5.16988e-26 -0.035877 0.00479858 0.00023742
8.08456e-20 -0.028377 0.0225 0.000148733
0 0.000373 0.03625 5.56192e-05
0 -0.022127 0.02875 0.000106958
0 -0.002127 0.03625 5.54932e-05
0 0.034123 0.0124878 0.000200864
0 0.002873 0.03625 5.57496e-05
1.0842e-19 -0.034627 0.011217 0.000203658
1.0842e-19 0.035373 0.008656 0.000214363
-1.0842e-19 -0.029627 0.02125 0.000156415
-1.57772e-30 0.016623 0.0325 8.22536e-05
0 0.025373 0.02625 0.000127991
8.08456e-20 0.026623 0.025 0.000136398
0 -0.004627 0.03625 5.5369e-05
5.84013e-20 -0.020877 0.03 9.79991e-05
-1.91544e-20 0.024123 0.0275 0.000118994
0 -0.033377 0.0149988 0.0001882
1.0842e-19 0.027873 0.02375 0.000144799
3.30872e-24 0.036623 1.42928e-08 0.000190994
0 -0.035877 0.00736572 0.000220688
0 0.005373 0.03625 5.58828e-05
-1.91544e-20 -0.010877 0.035 6.34559e-05
-1.0842e-19 0.032873 0.0162494 0.000185966
0 0.036623 0.00233888 0.000215547
-1.0842e-19 0.022873 0.02875 0.000110002
0 -0.014627 0.03375 7.1663e-05
-3.54881e-20 -0.030877 0.02 0.000163367
1.58401e-19 0.029123 0.0225 0.000152501
3.28979e-21 0.011623 0.035 6.46388e-05
0 -0.019627 0.03125 8.90318e-05
0 0.036623 0.00479858 0.000232923
0 -0.007127 0.03625 5.52544e-05
-1.91544e-20 0.021623 0.03 0.000100713
0 0.030373 0.02125 0.000160193
0 0.015373 0.03375 7.32812e-05
-1.0842e-19 0.007873 0.03625 5.60203e-05
0 0.035373 0.011217 0.00020545
1.0842e-19 -0.037127 0.00116943 0.000204923
-1.0842e-19 -0.032127 0.01875 0.000170325
1.0406e-19 -0.035877 0.00994629 0.000208816
0 -0.034627 0.0137433 0.000193659