# omega  POINT_DATA 38412
# x  y  z  omega
0 -0.000876977 7.72851e-09 79.7041
-1.0842e-19 0.000373007 0.00116944 79.6846
0 0.00162301 7.22625e-09 79.6646
-2.1684e-19 -0.00212699 0.00116944 79.7235
6.51843e-20 -0.000876996 0.00233887 54.8026
1.1324e-19 0.00162301 0.00233887 54.7862
0 0.00287301 0.00116943 79.6447
1.65436e-24 -0.00337698 7.72879e-09 79.7423
1.0842e-19 0.000373004 0.00356872 29.5059
-1.03398e-25 0.00162301 0.00347077 40.0473
0 -0.000876997 0.0039882 33.3106
-2.99957e-20 -0.003377 0.00233887 54.8187
0 0.00412303 6.77238e-09 79.6236
2.1684e-19 -0.002127 0.00356872 29.4993
1.0842e-19 0.002873 0.00356872 29.5134
-5.64216e-20 0.00412301 0.00233887 54.7696
0 -0.004627 0.00116943 79.761
0 -0.000876998 0.00479858 22.7507
-5.16988e-26 0.00412301 0.00276507 49.224
0 0.001623 0.00479858 22.7574
2.58494e-26 -0.003377 0.00418769 30.7107
-1.0842e-19 0.00537301 0.00116944 79.6026
0 -0.004627 0.00356872 29.4934
-5.16988e-26 -0.003377 0.00479858 22.7448
1.65436e-24 -0.005877 7.46194e-09 79.7789
0 0.000373001 0.00608215 15.9043
6.46235e-27 0.00566877 0.00233887 54.759
-3.8015e-20 -0.005877 0.00233887 54.8345
1.03398e-25 0.004123 0.00479858 22.7648
1.0842e-19 -0.002127 0.00608215 15.8984
1.0842e-19 0.005373 0.00356873 29.5219
0 0.00662302 6.54409e-09 79.5807
-1.0842e-19 0.002873 0.00608215 15.9107
-3.61892e-25 0.006623 0.00230816 55.0785
-1.29247e-26 0.006623 0.00233887 54.7524
0 -0.005877 0.00394677 33.8542
-2.1684e-19 -0.00712701 0.00116943 79.7967
0 -0.000876999 0.00736572 13.3448
-5.16988e-26 0.001623 0.00736572 13.3505
0 -0.005877 0.00479858 22.7395
-1.0842e-19 -0.004627 0.00608215 15.893
1.0842e-19 0.007873 0.00116944 79.5589
-2.1684e-19 -0.007127 0.00356872 29.4883
0 -0.003377 0.00736572 13.3396
-1.0842e-19 0.005373 0.00608215 15.9178
1.03398e-25 0.006623 0.00479858 22.773
1.65436e-24 -0.008377 7.22726e-09 79.8138
-1.03398e-25 0.004123 0.00736572 13.3566
0 0.007873 0.00356873 29.5314
1.0842e-19 0.000373 0.00865601 10.7861
-1.33241e-19 -0.008377 0.00233887 54.8498
0 -0.002127 0.008656 10.7811
0 -0.008377 0.00311946 44.6581
-1.0842e-19 0.002873 0.008656 10.7915
0 0.009123 5.99077e-09 79.5362
0 -0.007127 0.00608215 15.8881
-5.16988e-26 0.009123 0.00221178 56.0827
5.16988e-26 0.009123 0.00233887 54.735
0 -0.005877 0.00736572 13.3347
0 -0.008377 0.00479858 22.7349
-1.0842e-19 -0.009627 0.00116943 79.8309
0 -0.004627 0.00865601 10.7765
1.98693e-20 0.006623 0.00736572 13.3633
1.0842e-19 0.007873 0.00608215 15.9255
0 -0.000877 0.00994629 9.55233
0 0.001623 0.00994629 9.5571
0 0.005373 0.008656 10.7972
0 -0.009627 0.00356873 29.4843
0 0.009123 0.00479858 22.7821
0 0.010373 0.00116944 79.5136
0 -0.003377 0.00994629 9.54788
-4.24601e-20 0.004123 0.00994629 9.5622
0 -0.010877 7.09664e-09 79.8474
0 0.010373 0.00356873 29.5423
-7.0609e-20 -0.010877 0.00233887 54.8649
-5.16988e-26 -0.008377 0.00736572 13.3303
4.52364e-26 -0.010877 0.00251816 52.5227
2.1684e-19 -0.007127 0.008656 10.7722
1.0842e-19 0.000373 0.011217 8.32959
0 -0.009627 0.00608215 15.8837
0 -0.002127 0.011217 8.32538
0 -0.005877 0.00994629 9.54372
2.1684e-19 0.002873 0.011217 8.33409
0 0.011623 5.20219e-09 79.49
-2.1684e-19 0.007873 0.008656 10.8034
1.03398e-25 0.009123 0.00736572 13.3705
4.1359e-25 0.011623 0.0019339 59.0067
0 0.011623 0.00233887 54.7174
0 -0.010877 0.00479858 22.7309
2.58494e-26 0.006623 0.00994629 9.56765
0 0.010373 0.00608215 15.9339
-2.1684e-19 -0.004627 0.011217 8.32143
-1.0842e-19 -0.012127 0.00116943 79.8638
-1.0842e-19 0.005373 0.011217 8.33887
0 -0.000877 0.0124878 7.62969
2.06795e-25 0.011623 0.00479858 22.7922
0 0.001623 0.0124878 7.63373
0 -0.012127 0.00356872 29.4808
-1.0842e-19 0.012873 0.00116944 79.4663
0 -0.003377 0.0124878 7.6259
0 -0.009627 0.008656 10.7682
0 -0.008377 0.00994629 9.53986
0 -0.010877 0.00736572 13.3264
-2.35175e-20 0.004123 0.0124878 7.63802
0 -0.007127 0.011217 8.31774
-1.0842e-19 0.012873 0.00356872 29.5543
0 -0.013377 6.94728e-09 79.8796
2.58494e-26 0.009123 0.00994629 9.57345
1.0842e-19 0.010373 0.008656 10.81
0 -0.012127 0.00608215 15.8798
9.65629e-20 -0.013377 0.00233887 54.8796
9.04729e-26 -0.013377 0.00281502 48.6556
-1.0842e-19 0.007873 0.011217 8.34394
-1.0842e-19 0.000373 0.0137433 6.93655
0 0.011623 0.00736572 13.3783
0 -0.005877 0.0124878 7.62234
0 -0.002127 0.0137433 6.93295
-1.0842e-19 0.002873 0.0137433 6.94038
0 0.014123 4.00393e-09 79.4417
0 0.006623 0.0124878 7.64256
-4.1359e-25 0.014123 0.00137285 64.9186
1.03398e-25 -0.013377 0.00479858 22.7276
1.0842e-19 0.012873 0.00608215 15.9428
-4.1359e-25 0.014123 0.00233887 54.6994
1.0842e-19 -0.004627 0.0137433 6.92954
-1.0842e-19 -0.014627 0.00116943 79.8953
-1.29247e-26 -0.010877 0.00994629 9.5363
1.0842e-19 0.005373 0.0137433 6.94443
-4.1359e-25 0.0147726 0 79.4287
-2.1684e-19 -0.009627 0.011217 8.3143
0 -0.012127 0.008656 10.7646
2.06795e-25 0.014123 0.00479858 22.8032
0 -0.000877 0.0149988 6.48501
-1.26722e-19 -0.008377 0.0124878 7.61901
0 -0.014627 0.00356872 29.4782
0 0.001623 0.0149988 6.4885
0 -0.013377 0.00736572 13.3228
-1.0842e-19 0.010373 0.011217 8.3493
0 0.011623 0.00994629 9.57963
0 -0.003377 0.0149988 6.48171
-1.0842e-19 0.015373 0.00116944 79.4171
0 0.009123 0.0124878 7.64736
1.0842e-19 -0.007127 0.0137433 6.92635
-1.0842e-19 0.012873 0.008656 10.8171
-3.93026e-20 0.004123 0.0149988 6.49219
1.0842e-19 0.015373 0.00356872 29.5677
0 0.007873 0.0137433 6.9487
0 -0.014627 0.00608215 15.8763
-8.27181e-25 -0.015877 6.63832e-09 79.9105
0 0.014123 0.00736572 13.3867
-1.41409e-20 -0.015877 0.00233887 54.8941
1.9387e-26 -0.015877 0.00252442 52.4673
0 -0.005877 0.0149988 6.4786
1.0842e-19 0.000373 0.0162494 6.03745
0 -0.002127 0.0162494 6.03428
8.07794e-28 0.006623 0.0149988 6.49609
1.0842e-19 0.002873 0.0162494 6.04081
0 -0.012127 0.011217 8.31108
0 0.015373 0.00608215 15.9527
0 -0.010877 0.0124878 7.61589
0 -0.015877 0.00479858 22.7249
-1.65436e-24 0.016623 1.14059e-08 79.3915
0 -0.013377 0.00994629 9.53301
1.0842e-19 -0.009627 0.0137433 6.92335
-8.27181e-25 0.016623 0.00233887 54.681
0 -0.004627 0.0162494 6.03127
0 -0.014627 0.008656 10.7612
-6.46235e-27 0.011623 0.0124878 7.65244
0 0.012873 0.011217 8.35499
0 0.005373 0.0162494 6.04435
1.0842e-19 -0.017127 0.00116943 79.9256
-2.01948e-28 -0.008377 0.0149988 6.47568
-1.0842e-19 0.010373 0.0137433 6.95321
-2.58494e-26 0.014123 0.00994629 9.58622
0 0.016623 0.00479858 22.8154
-2.1684e-19 -0.017127 0.00356872 29.4763
0 -0.015877 0.00736572 13.3196
3.17122e-28 -0.000877 0.0174912 5.71765
3.28979e-21 -0.000877 0.0175 5.71495
-8.07794e-28 0.009123 0.0149988 6.5002
2.35081e-28 0.001623 0.0174922 5.72047
-1.57772e-30 0.001623 0.0175 5.71807
-1.0842e-19 0.015373 0.00865601 10.8247
0 -0.007127 0.0162494 6.02843
-2.8399e-28 -0.003377 0.0174891 5.71536
0 -0.003377 0.0175 5.712
1.0842e-19 0.017873 0.00116944 79.3658
-2.00371e-28 0.004123 0.0174928 5.72356
-1.57772e-30 0.004123 0.0175 5.72135
0 0.007873 0.0162494 6.04808
1.0842e-19 -0.017127 0.00608215 15.8733
0 0.016623 0.00736572 13.3957
1.0842e-19 0.017873 0.00356872 29.5824
-3.23117e-27 -0.013377 0.0124878 7.61297
0 -0.012127 0.0137433 6.92052
8.27181e-25 -0.018377 6.50332e-09 79.9403
-1.0842e-19 -0.014627 0.011217 8.30809
1.29373e-28 -0.005877 0.0174846 5.71393
8.08456e-20 -0.005877 0.0175 5.70921
1.25722e-19 -0.018377 0.00233887 54.9082
0 -0.010877 0.0149988 6.47292
-2.58494e-26 -0.018377 0.0024529 53.4161
-2.2877e-28 0.006623 0.0174931 5.72693
0 0.006623 0.0175 5.72481
0 -0.015877 0.00994629 9.52996
-1.0842e-19 0.000373 0.01875 5.39553
1.0842e-19 0.012873 0.0137433 6.95796
0 0.014123 0.0124878 7.6578
0 -0.002127 0.01875 5.39265
-1.0842e-19 0.017873 0.00608215 15.9634
1.0842e-19 -0.009627 0.0162494 6.02576
1.03398e-25 0.0189403 0 79.343
0 0.002873 0.01875 5.39858
4.03897e-28 0.011623 0.0149988 6.50453
0 -0.018377 0.00479858 22.7226
0 0.015373 0.011217 8.36101
2.06795e-25 0.019123 8.99002e-10 79.3392
0 0.019123 0.000443798 74.6568
-1.0842e-19 -0.017127 0.008656 10.7581
1.91219e-20 0.019123 0.00233887 54.6623
-1.0842e-19 0.010373 0.0162494 6.05201
1.03398e-25 0.0193061 0 79.3352
-1.0842e-19 -0.004627 0.01875 5.38991
0 0.016623 0.00994629 9.59323
3.15544e-29 -0.008377 0.0174794 5.71289
3.28979e-21 -0.008377 0.0175 5.70656
1.0842e-19 0.005373 0.01875 5.40178
0 -0.019627 0.00116943 79.9549
0 0.019123 0.00479858 22.8287
-5.52203e-29 0.009123 0.0174927 5.73072
-9.67102e-20 0.009123 0.0175 5.72846
-5.16988e-26 -0.018377 0.00736572 13.3167
-1.0842e-19 0.017873 0.008656 10.8327
1.0842e-19 -0.019627 0.00356872 29.4748
-9.67102e-20 -0.000877 0.02 5.14638
-1.0842e-19 -0.007127 0.01875 5.38731
3.28979e-21 0.001623 0.02 5.14925
-1.0842e-19 -0.014627 0.0137433 6.91787
0 -0.013377 0.0149988 6.47031
0 -0.015877 0.0124878 7.61024
1.0842e-19 -0.012127 0.0162494 6.02322
3.28979e-21 -0.003377 0.02 5.14365
0 0.007873 0.01875 5.40515
1.0842e-19 0.020373 0.00116944 79.3126
3.28979e-21 0.004123 0.02 5.15229
0 -0.017127 0.011217 8.30531
0 0.019123 0.00736572 13.4054
0 -0.019627 0.00608215 15.8706
1.57772e-30 -0.010877 0.0174793 5.71042
0 0.014123 0.0149988 6.50909
0 -0.010877 0.0175 5.70405
1.0842e-19 0.015373 0.0137433 6.96297
0 0.020373 0.00356872 29.5985
-1.0842e-19 0.012873 0.0162494 6.05613
6.46235e-27 0.016623 0.0124878 7.66347
3.28979e-21 -0.005877 0.02 5.14105
0 -0.020877 7.37805e-09 79.9689
0 -0.018377 0.00994629 9.52715
-2.99767e-28 0.011623 0.0174915 5.73492
8.0752e-20 -0.020877 0.00233887 54.9221
-9.67043e-20 0.011623 0.0175 5.73229
3.28979e-21 0.006623 0.02 5.15547
0 -0.009627 0.01875 5.38484
1.0842e-19 0.017873 0.011217 8.36739
1.0842e-19 0.000373 0.02125 4.90002
0 0.020373 0.00608215 15.9749
-5.16988e-26 -0.020877 0.00408776 32.0264
-1.0842e-19 -0.002127 0.02125 4.8973
0 -0.020877 0.00479858 22.7207
0 0.010373 0.01875 5.4087
-1.0842e-19 0.002873 0.02125 4.90288
0 -0.019627 0.00865601 10.7554
-5.04618e-20 0.019123 0.00994629 9.60068
0 0.021623 1.1374e-08 79.2849
-1.91544e-20 -0.008377 0.02 5.13858
1.0842e-19 -0.004627 0.02125 4.89471
1.62598e-19 0.021623 0.00233888 54.6433
4.03897e-28 -0.015877 0.0149988 6.46785
0 -0.014627 0.0162494 6.02081
-1.0842e-19 0.005373 0.02125 4.90589
0 -0.017127 0.0137433 6.91537
3.28979e-21 0.009123 0.02 5.15882
8.83524e-29 -0.013377 0.0174821 5.70718
8.08456e-20 -0.013377 0.0175 5.70166
-1.0842e-19 0.020373 0.008656 10.8413
0 -0.020877 0.00736572 13.3141
4.1359e-25 0.021623 0.00479858 22.8431
1.0842e-19 -0.022127 0.00116943 79.983
3.23117e-27 -0.018377 0.0124878 7.60768
0 -0.012127 0.01875 5.38249
1.0842e-19 0.015373 0.0162494 6.06047
0 0.016623 0.0149988 6.51388
0 -0.022127 0.00356872 29.4739
1.0842e-19 -0.007127 0.02125 4.89225
-2.11415e-28 0.014123 0.0174909 5.73913
0 0.014123 0.0175 5.7363
8.08456e-20 -0.000877 0.0225 4.69601
-1.0842e-19 0.017873 0.0137433 6.96824
8.08456e-20 0.001623 0.0225 4.69877
0 -0.019627 0.011217 8.30271
0 0.007873 0.02125 4.90906
-1.0842e-19 0.012873 0.01875 5.41241
3.28979e-21 -0.003377 0.0225 4.69338
-9.67102e-20 -0.010877 0.02 5.13622
-6.46235e-27 0.019123 0.0124878 7.66947
-4.67455e-20 0.021623 0.00736572 13.4159
8.08456e-20 0.004123 0.0225 4.70168
-1.0842e-19 0.022873 0.00116944 79.2572
1.0842e-19 -0.022127 0.00608215 15.8683
0 -0.020877 0.00994629 9.52456
3.28979e-21 0.011623 0.02 5.16234
1.0842e-19 0.022873 0.00356872 29.616
3.28979e-21 -0.005877 0.0225 4.69089
1.0842e-19 0.020373 0.011217 8.37416
-2.58494e-26 -0.0227717 0.00479858 22.7197
-1.0842e-19 -0.009627 0.02125 4.8899
-1.65436e-24 -0.023377 8.97906e-09 79.9964
8.08456e-20 0.006623 0.0225 4.70474
1.25775e-19 -0.023377 0.00233887 54.9356
1.0842e-19 -0.017127 0.0162494 6.01852
7.09975e-29 -0.015877 0.017484 5.7043
5.84013e-20 -0.015877 0.0175 5.69939
0 0.010373 0.02125 4.91238
1.0842e-19 0.022873 0.00608215 15.9873
0 -0.018377 0.0149988 6.46551
0 0.000373 0.02375 4.49468
0 -0.022127 0.008656 10.7528
0 -0.014627 0.01875 5.38024
-6.33372e-20 0.021623 0.00994629 9.60862
1.0842e-19 -0.002127 0.02375 4.49202
1.29247e-26 -0.023377 0.00479858 22.7193
0 0.002873 0.02375 4.49748
1.0842e-19 -0.019627 0.0137433 6.91301
-1.91544e-20 -0.008377 0.0225 4.68851
8.08456e-20 -0.013377 0.02 5.13397
1.29247e-26 -0.023377 0.00594996 18.5
0 0.024123 1.13291e-08 79.2284
8.04638e-29 0.016623 0.0174918 5.74304
1.58401e-19 0.016623 0.0175 5.74052
-2.1684e-19 0.017873 0.0162494 6.06502
-1.0842e-19 -0.004627 0.02375 4.48949
-9.11371e-20 0.024123 0.00233888 54.624
-1.0842e-19 0.015373 0.01875 5.41631
-9.67102e-20 0.009123 0.0225 4.70797
0 0.019123 0.0149988 6.51892
-1.03437e-19 -0.020877 0.0124878 7.60528
-1.0842e-19 0.005373 0.02375 4.50044
0 0.022873 0.00865601 10.8506
0 -0.012127 0.02125 4.88765
8.08456e-20 0.014123 0.02 5.16602
0 -0.023377 0.00736572 13.3118
0 0.020373 0.0137433 6.97381
9.7039e-20 0.024123 0.00479858 22.8587
1.0842e-19 -0.024627 0.00116943 80.0099
1.0842e-19 -0.007127 0.02375 4.48708
1.0842e-19 -0.022127 0.011217 8.30029
-1.0842e-19 0.012873 0.02125 4.91586
1.0842e-19 -0.024627 0.00356872 29.4734
-1.23312e-19 0.021623 0.0124878 7.67581
-1.91544e-20 -0.010877 0.0225 4.68622
3.28979e-21 -0.000877 0.025 4.3215
0 0.007873 0.02375 4.50356
-1.91544e-20 0.001623 0.025 4.32425
0 0.024123 0.00736572 13.4271
3.28979e-21 -0.003377 0.025 4.31888
8.08456e-20 0.011623 0.0225 4.71136
-1.91544e-20 0.004123 0.025 4.32715
-1.73549e-29 -0.018377 0.0174852 5.70177
0 -0.024627 0.00608215 15.8664
0 -0.018377 0.0175 5.69721
1.0842e-19 -0.017127 0.01875 5.37808
1.0842e-19 0.025373 0.00116944 79.1996
1.29247e-26 -0.023377 0.00994629 9.52218
-1.0842e-19 0.022873 0.011217 8.38134
0 -0.019627 0.0162494 6.01634
8.08456e-20 -0.015877 0.02 5.13181
0 0.025373 0.00356873 29.6353
-1.0842e-19 -0.009627 0.02375 4.48478
-9.67102e-20 -0.005877 0.025 4.31639
0 -0.020877 0.0149988 6.4633
1.0842e-19 -0.014627 0.02125 4.88549
-1.91544e-20 0.006623 0.025 4.33021
0 -0.025877 1.00763e-08 80.0228
0 0.017873 0.01875 5.42039
0 0.010373 0.02375 4.50687
-1.54617e-28 0.019123 0.0174929 5.74714
-1.91468e-20 0.019123 0.0175 5.74494
-1.09365e-19 -0.025877 0.00233887 54.9487
-1.91544e-20 0.016623 0.02 5.16988
-1.0842e-19 -0.022127 0.0137433 6.91078
0 0.020373 0.0162494 6.06979
1.0842e-19 0.025373 0.00608215 16.0007
5.16988e-26 0.024123 0.00994629 9.61707
-1.0842e-19 -0.024627 0.008656 10.7505
8.08456e-20 -0.013377 0.0225 4.68403
-1.0842e-19 0.015373 0.02125 4.9195
0 0.000373 0.02625 4.151
0 0.021623 0.0149988 6.52422
-3.60172e-20 -0.025877 0.00479858 22.7183
0 -0.002127 0.02625 4.14829
-1.91544e-20 -0.008377 0.025 4.314
-1.0842e-19 0.002873 0.02625 4.15384
-3.41447e-20 -0.023377 0.0124878 7.60302
-1.91544e-20 0.014123 0.0225 4.71492
-1.91544e-20 0.009123 0.025 4.33344
0 0.026623 3.78395e-10 79.1695
-1.0842e-19 -0.004627 0.02625 4.14572
-1.0842e-19 -0.012127 0.02375 4.48256
1.0842e-19 0.022873 0.0137433 6.97966
-8.27181e-25 0.026623 0.00233887 54.6043
-1.0842e-19 0.005373 0.02625 4.15683
-1.0842e-19 0.025373 0.008656 10.8604
1.05013e-26 -0.0257893 0.00736572 13.3099
7.92252e-21 -0.025877 0.00736572 13.3098
-8.07794e-28 -0.025877 0.00770613 12.8099
0 0.012873 0.02375 4.51034
0 0.026623 0.00479858 22.8758
1.0842e-19 -0.024627 0.011217 8.29804
0 -0.019627 0.01875 5.37601
0 -0.027127 0.00116944 80.0357
-9.67102e-20 -0.018377 0.02 5.12973
1.29247e-26 0.024123 0.0124878 7.68251
0 -0.007127 0.02625 4.14325
-2.8399e-29 -0.020877 0.0174855 5.69959
0 -0.020877 0.0175 5.69513
-1.91544e-20 -0.010877 0.025 4.31171
-1.0842e-19 -0.017127 0.02125 4.88341
2.1684e-19 -0.027127 0.00356872 29.4735
0 0.007873 0.02625 4.16
1.0842e-19 -0.022127 0.0162494 6.01425
8.08456e-20 -0.000877 0.0275 4.00042
-9.67102e-20 -0.015877 0.0225 4.68193
8.08456e-20 0.001623 0.0275 4.00315
5.84013e-20 0.011623 0.025 4.33684
0 0.026623 0.00736572 13.4391
-1.91544e-20 0.019123 0.02 5.17392
-1.0842e-19 0.020373 0.01875 5.42465
8.08456e-20 -0.003377 0.0275 3.99782
0 -0.025877 0.00994629 9.51999
-1.0842e-19 0.025373 0.011217 8.38893
0 0.017873 0.02125 4.92332
2.01948e-28 -0.023377 0.0149988 6.46119
-1.0842e-19 -0.027127 0.00608215 15.8647
-1.91544e-20 0.004123 0.0275 4.00601
6.15312e-29 0.021623 0.0174934 5.75161
-1.57772e-30 0.021623 0.0175 5.74956
1.0842e-19 -0.014627 0.02375 4.48043
1.0842e-19 0.027873 0.00116944 79.1395
1.0842e-19 -0.009627 0.02625 4.14089
-1.91544e-20 0.016623 0.0225 4.71865
0 0.022873 0.0162494 6.0748
0 0.027873 0.00356873 29.6564
-9.67102e-20 -0.005877 0.0275 3.99533
1.0842e-19 -0.024627 0.0137433 6.90866
0 0.010373 0.02625 4.16332
-1.91544e-20 0.006623 0.0275 4.00902
-1.0842e-19 0.015373 0.02375 4.51399
1.58401e-19 -0.013377 0.025 4.30951
0 -0.028377 1.04784e-08 80.048
0 0.024123 0.0149988 6.52979
0 0.026623 0.00994629 9.62606
1.05603e-19 -0.028377 0.00233887 54.9617
-2.1684e-19 -0.027127 0.008656 10.7483
0 0.027873 0.00608215 16.0152
5.84013e-20 0.014123 0.025 4.34041
0 -0.025877 0.0124878 7.6009
8.08456e-20 -0.008377 0.0275 3.99294
0 0.000373 0.02875 3.8525
-4.29502e-20 -0.028377 0.00479858 22.7178
1.0842e-19 -0.002127 0.02875 3.84988
-1.0842e-19 0.025373 0.0137433 6.98584
1.0842e-19 0.002873 0.02875 3.85524
-1.91544e-20 -0.020877 0.02 5.12773
1.0842e-19 -0.012127 0.02625 4.13861
0 -0.019627 0.02125 4.88141
-1.91544e-20 0.009123 0.0275 4.01218
-1.0842e-19 -0.022127 0.01875 5.37403
8.08456e-20 -0.018377 0.0225 4.6799
-1.0842e-19 -0.004627 0.02875 3.84738
0 0.029123 1.56263e-08 79.1082
0 0.027873 0.008656 10.8709
-6.31089e-30 -0.023377 0.0174839 5.69809
5.84047e-20 -0.023377 0.0175 5.69314
-8.27181e-25 0.029123 0.00233888 54.5844
-1.0842e-19 0.012873 0.02625 4.16682
1.0842e-19 0.005373 0.02875 3.85811
0 -0.017127 0.02375 4.47838
-5.60997e-20 -0.028377 0.00736572 13.308
2.1684e-19 -0.027127 0.011217 8.29593
0 0.026623 0.0124878 7.68959
-1.0842e-19 0.020373 0.02125 4.9273
1.58401e-19 0.021623 0.02 5.17813
1.0842e-19 -0.024627 0.0162494 6.01226
0 0.029123 0.00479858 22.8944
-1.91544e-20 0.019123 0.0225 4.72254
5.84013e-20 -0.010877 0.0275 3.99064
-1.0842e-19 0.022873 0.01875 5.42912
8.08456e-20 -0.015877 0.025 4.3074
0 -0.007127 0.02875 3.84497
1.0842e-19 -0.029627 0.00116944 80.0604
-1.0842e-19 0.017873 0.02375 4.51779
-3.12389e-28 0.024123 0.0174941 5.75471
0 0.007873 0.02875 3.86112
1.0842e-19 -0.029627 0.00356873 29.4743
8.08456e-20 0.011623 0.0275 4.01549
0 -0.025877 0.0149988 6.45919
8.07794e-28 -0.028377 0.00976037 9.79103
-1.91544e-20 -0.000877 0.03 3.7205
8.08456e-20 0.016623 0.025 4.34413
2.06795e-25 0.029123 0.00736572 13.4521
8.08456e-20 0.001623 0.03 3.723
0 0.027873 0.011217 8.397
0 -0.014627 0.02625 4.13643
0 -0.028377 0.00994629 9.51797
1.0842e-19 0.025373 0.0162494 6.08006
-1.91544e-20 -0.003377 0.03 3.71811
-1.0842e-19 -0.029627 0.00608215 15.8634
-1.91544e-20 0.004123 0.03 3.72561
0 -0.009627 0.02875 3.84265
2.1684e-19 0.030373 0.00116944 79.0769
1.0842e-19 -0.027127 0.0137433 6.90665
-1.0842e-19 0.015373 0.02625 4.17047
0 0.026623 0.0149988 6.53566
-1.0842e-19 0.010373 0.02875 3.86426
-1.91544e-20 -0.005877 0.03 3.71581
-1.91544e-20 -0.013377 0.0275 3.98843
0 0.030373 0.00356873 29.6795
0 -0.022127 0.02125 4.87948
8.08456e-20 -0.020877 0.0225 4.67797
-1.91544e-20 0.006623 0.03 3.72835
-1.91544e-20 -0.023377 0.02 5.12582
0 0.029123 0.00994629 9.63564
1.0842e-19 -0.019627 0.02375 4.47641
0 -0.029627 0.008656 10.7465
0 -0.030877 1.0238e-08 80.0724
8.08456e-20 0.014123 0.0275 4.01896
-1.0842e-19 -0.024627 0.01875 5.37212
1.54549e-19 -0.030877 0.00233887 54.9745
0 0.030373 0.00608215 16.0308
-8.07794e-28 -0.028377 0.0124878 7.59891
-9.67102e-20 -0.018377 0.025 4.30539
0 0.027873 0.0137433 6.99234
1.58401e-19 -0.008377 0.03 3.7136
0 -0.012127 0.02875 3.84042
1.58401e-19 0.021623 0.0225 4.7266
0 0.022873 0.02125 4.93146
5.20648e-29 -0.025877 0.017478 5.69797
1.58401e-19 -0.025877 0.0175 5.69123
0 -0.030877 0.00479858 22.7177
0 0.000373 0.03125 3.59093
0 0.020373 0.02375 4.52175
0 -0.002127 0.03125 3.58868
8.08456e-20 0.024123 0.02 5.18254
0 -0.017127 0.02625 4.13434
-1.91544e-20 0.009123 0.03 3.73123
1.0842e-19 0.002873 0.03125 3.5933
0 0.019123 0.025 4.34802
0 0.012873 0.02875 3.86754
-1.0842e-19 0.025373 0.01875 5.43379
0 0.030373 0.00865601 10.8821
0 -0.004627 0.03125 3.5865
0 -0.027127 0.0162494 6.01036
0 0.031623 1.58158e-08 79.0443
0 -0.029627 0.011217 8.29397
0 0.029123 0.0124878 7.69708
0 0.005373 0.03125 3.59579
-8.27181e-25 0.031623 0.00233888 54.5641
0 -0.030877 0.00736572 13.3066
8.08456e-20 -0.015877 0.0275 3.98636
0 0.017873 0.02625 4.17428
-3.69187e-28 0.026623 0.017495 5.75975
5.84013e-20 -0.010877 0.03 3.71147
0 0.031623 0.00479858 22.9146
1.0842e-19 -0.007127 0.03125 3.5844
-1.00974e-28 -0.028377 0.0149988 6.45728
-9.67102e-20 0.016623 0.0275 4.02258
-1.0842e-19 -0.032127 0.00116943 80.0843
-9.67102e-20 0.011623 0.03 3.73425
-1.0842e-19 0.007873 0.03125 3.59839
1.0842e-19 -0.014627 0.02875 3.83827
-1.0842e-19 0.027873 0.0162494 6.08558
-3.23117e-27 -0.030877 0.00950556 10.1635
-2.1684e-19 -0.032127 0.00356872 29.4755
-2.1684e-19 0.030373 0.011217 8.40551
-7.49898e-20 -0.030877 0.00994629 9.51612
3.28979e-21 -0.023377 0.0225 4.6761
1.0842e-19 -0.022127 0.02375 4.47457
2.06795e-25 0.031623 0.00736572 13.466
8.08456e-20 -0.000877 0.0325 3.47566
1.0842e-19 -0.024627 0.02125 4.87765
8.08456e-20 0.001623 0.0325 3.47782
-9.67102e-20 -0.020877 0.025 4.30345
1.0842e-19 0.015373 0.02875 3.87099
0 -0.0318135 0.00736572 13.3061
0 -0.029627 0.0137433 6.90476
-9.67102e-20 -0.003377 0.0325 3.47359
1.0842e-19 -0.032127 0.00608215 15.8624
1.0842e-19 -0.009627 0.03125 3.58238
8.08456e-20 -0.025877 0.02 5.12398
8.07794e-28 0.029123 0.0149988 6.54183
-1.91544e-20 0.004123 0.0325 3.48009
1.0842e-19 -0.019627 0.02625 4.13242
1.58401e-19 -0.013377 0.03 3.70944
-1.0842e-19 0.032873 0.00116944 79.0117
-1.0842e-19 0.010373 0.03125 3.60114
1.0842e-19 0.022873 0.02375 4.52588
0 -0.027127 0.01875 5.37029
1.58401e-19 0.024123 0.0225 4.73083
-9.67102e-20 -0.005877 0.0325 3.47159
8.08456e-20 0.021623 0.025 4.35208
1.0842e-19 0.032873 0.00356873 29.7045
8.08456e-20 -0.018377 0.0275 3.98437
-1.0842e-19 0.025373 0.02125 4.93579
0 0.031623 0.00994629 9.64581
-9.67102e-20 0.014123 0.03 3.73741
-1.91544e-20 0.006623 0.0325 3.48246
0 0.020373 0.02625 4.17827
1.0842e-19 -0.032127 0.008656 10.7448
-1.91544e-20 0.026623 0.02 5.18715
0 -0.030877 0.0124878 7.59704
-3.15544e-29 -0.028377 0.0174661 5.6998
0 0.030373 0.0137433 6.99921
0 -0.028377 0.0175 5.6894
1.65436e-24 -0.033377 9.23372e-09 80.0958
0 0.032873 0.00608215 16.0475
1.37375e-19 -0.033377 0.00233887 54.9869
-1.0842e-19 -0.017127 0.02875 3.8364
-1.57772e-30 0.019123 0.0275 4.02638
-1.0842e-19 -0.012127 0.03125 3.58043
8.08456e-20 -0.008377 0.0325 3.46966
-1.0842e-19 0.027873 0.01875 5.43869
3.86894e-20 -0.033377 0.00479858 22.7179
0 0.000373 0.03375 3.36249
-1.91544e-20 0.009123 0.0325 3.48496
0 -0.029627 0.0162494 6.00854
0 0.012873 0.03125 3.60403
1.0842e-19 -0.002127 0.03375 3.36053
0 0.017873 0.02875 3.87459
0 0.002873 0.03375 3.36455
-1.91544e-20 -0.015877 0.03 3.70755
0 -0.033377 0.00627875 17.2908
-1.53039e-28 0.029123 0.0174956 5.76507
2.1684e-19 0.032873 0.008656 10.894
0 0.031623 0.0124878 7.70499
-1.0842e-19 -0.032127 0.011217 8.29214
0 -0.004627 0.03375 3.35863
0 0.034123 1.53106e-08 78.9778
-1.0842e-19 0.005373 0.03375 3.3667
1.29247e-26 -0.033377 0.00736572 13.3053
-8.27181e-25 0.034123 0.00233888 54.5435
1.0842e-19 -0.024627 0.02375 4.47268
-3.54881e-20 -0.023377 0.025 4.30152
-1.91544e-20 -0.010877 0.0325 3.4678
3.28979e-21 -0.025877 0.0225 4.67426
-9.67102e-20 0.016623 0.03 3.74073
-2.01948e-28 -0.030877 0.0149988 6.45547
0 -0.022127 0.02625 4.1304
-1.29247e-26 -0.0340738 0.00479858 22.718
1.0842e-19 0.030373 0.0162494 6.09139
0 0.034123 0.00479858 22.9363
0 -0.027127 0.02125 4.87584
0 -0.007127 0.03375 3.3568
0 -0.014627 0.03125 3.57863
1.58401e-19 0.011623 0.0325 3.48759
-1.91544e-20 -0.020877 0.0275 3.98235
0 -0.034627 0.00116943 80.1074
0 0.007873 0.03375 3.36896
8.08456e-20 -0.028377 0.02 5.12219
0 0.032873 0.011217 8.41453
1.58401e-19 0.024123 0.025 4.35631
1.0842e-19 0.025373 0.02375 4.53019
-2.1684e-19 -0.034627 0.00356872 29.4769
0 -0.019627 0.02875 3.83432
0 0.022873 0.02625 4.18242
0 0.015373 0.03125 3.60707
2.55634e-21 -0.033377 0.00994629 9.51441
8.08456e-20 0.026623 0.0225 4.73525
2.06795e-25 0.034123 0.00736572 13.4808
1.0842e-19 -0.032127 0.0137433 6.90296
-1.91544e-20 0.021623 0.0275 4.03034
0 0.031623 0.0149988 6.54834
-3.54881e-20 -0.000877 0.035 3.24895
3.28979e-21 0.001623 0.035 3.25097
-1.0842e-19 0.027873 0.02125 4.94033
1.0842e-19 -0.029627 0.01875 5.36853
-1.0842e-19 -0.009627 0.03375 3.35503
1.58401e-19 -0.013377 0.0325 3.46607
0 -0.034627 0.00608215 15.8616
-1.13044e-19 -0.003377 0.035 3.247
-1.91544e-20 -0.018377 0.03 3.70565
-1.0842e-19 0.020373 0.02875 3.87836
-3.54881e-20 0.004123 0.035 3.25308
0 0.010373 0.03375 3.37133
-1.91544e-20 0.029123 0.02 5.19198
0 0.035373 0.00116944 78.9439
-1.91544e-20 0.014123 0.0325 3.49036
0 -0.030877 0.0174648 5.69844
-3.54881e-20 -0.005877 0.035 3.24513
3.28979e-21 -0.030877 0.0175 5.68765
-5.16988e-26 0.034123 0.00994629 9.6566
1.0842e-19 0.035373 0.00356873 29.7315
8.08456e-20 0.019123 0.03 3.74421
-3.54881e-20 0.006623 0.035 3.25527
-1.0842e-19 0.032873 0.0137433 7.00646
0 -0.017127 0.03125 3.57688
5.79455e-20 -0.033377 0.0124878 7.59528
-1.0842e-19 -0.034627 0.008656 10.7432
0 0.030373 0.01875 5.44383
0 -0.012127 0.03375 3.35333
0 -0.035877 8.16855e-09 80.1184
-2.1684e-19 0.035373 0.00608215 16.0655
7.2795e-21 -0.035877 0.00233887 54.9991
-3.54881e-20 -0.025877 0.025 4.29965
-9.67102e-20 -0.008377 0.035 3.24331
0 -0.024627 0.02625 4.12843
1.0842e-19 0.017873 0.03125 3.61027
1.0842e-19 -0.032127 0.0162494 6.0068
0 -0.027127 0.02375 4.47087
1.58401e-19 -0.023377 0.0275 3.98036
2.58494e-26 -0.035877 0.00410813 31.7797
-1.0842e-19 0.012873 0.03375 3.37384
-3.58143e-28 0.031623 0.0174955 5.77068
3.28979e-21 0.009123 0.035 3.25758
1.58401e-19 -0.015877 0.0325 3.46438
5.16988e-26 -0.035877 0.00479858 22.7184
8.08456e-20 -0.028377 0.0225 4.6725
0 0.000373 0.03625 3.13738
0 -0.022127 0.02875 3.83224
0 -0.002127 0.03625 3.13539
0 0.034123 0.0124878 7.71336
0 0.002873 0.03625 3.13946
1.0842e-19 -0.034627 0.011217 8.29043
1.0842e-19 0.035373 0.008656 10.9067
-1.0842e-19 -0.029627 0.02125 4.87411
-1.57772e-30 0.016623 0.0325 3.49327
0 0.025373 0.02625 4.18674
8.08456e-20 0.026623 0.025 4.36071
0 -0.004627 0.03625 3.13346
5.84013e-20 -0.020877 0.03 3.70369
-1.91544e-20 0.024123 0.0275 4.03446
0 -0.033377 0.0149988 6.45374
1.0842e-19 0.027873 0.02375 4.53468
3.30872e-24 0.036623 1.42928e-08 78.9085
0 -0.035877 0.00736572 13.3042
0 0.005373 0.03625 3.1416
-1.91544e-20 -0.010877 0.035 3.24157
-1.0842e-19 0.032873 0.0162494 6.0975
0 0.036623 0.00233888 54.5225
-1.0842e-19 0.022873 0.02875 3.88229
0 -0.014627 0.03375 3.35187
-3.54881e-20 -0.030877 0.02 5.12048
1.58401e-19 0.029123 0.0225 4.73987
3.28979e-21 0.011623 0.035 3.25999
0 -0.019627 0.03125 3.57497
0 0.036623 0.00479858 22.9597
0 -0.007127 0.03625 3.13161
-1.91544e-20 0.021623 0.03 3.74785
0 0.030373 0.02125 4.94508
0 0.015373 0.03375 3.37648
-1.0842e-19 0.007873 0.03625 3.14384
0 0.035373 0.011217 8.4241
1.0842e-19 -0.037127 0.00116943 80.1295
-1.0842e-19 -0.032127 0.01875 5.36683
1.0406e-19 -0.035877 0.00994629 9.51286
0 -0.034627 0.0137433 6.90126
8.07794e-28 0.034123 0.0149988 6.55521
-2.1684e-19 -0.037127 0.00356872 29.4787
0 0.020373 0.03125 3.61362
8.08456e-20 -0.018377 0.0325 3.46262
0 0.036623 0.00736572 13.4967
8.08456e-20 0.031623 0.02 5.19704
-1.91544e-20 -0.013377 0.035 3.23993
-1.0842e-19 -0.009627 0.03625 3.1298
-1.13044e-19 -0.000877 0.0375 3.00446
6.45119e-20 0.001623 0.0375 3.00666
-2.1684e-19 -0.037127 0.00608215 15.8609
6.45119e-20 -0.003377 0.0375 3.00233
-6.94198e-29 -0.033377 0.0174789 5.69245
0 -0.033377 0.0175 5.68597
0 0.010373 0.03625 3.14617
-1.91544e-20 0.019123 0.0325 3.49632
6.45119e-20 0.004123 0.0375 3.00894
-3.54881e-20 0.014123 0.035 3.26253
0 -0.027127 0.02625 4.12661
8.08456e-20 -0.025877 0.0275 3.97849
-1.91544e-20 -0.028377 0.025 4.29789
0 0.032873 0.01875 5.44922
1.0842e-19 -0.017127 0.03375 3.35012
0 -0.024627 0.02875 3.83035
0 0.037873 0.00116944 78.8732
0 0.035373 0.0137433 7.01412
0 0.036623 0.00994629 9.66811
3.28979e-21 -0.005877 0.0375 3.00028
-1.0842e-19 -0.029627 0.02375 4.46917
-3.23117e-27 -0.035877 0.0124878 7.59362
-4.15987e-20 -0.023377 0.03 3.70185
0 0.037873 0.00356873 29.7608
-3.54881e-20 0.006623 0.0375 3.0113
-1.0842e-19 -0.037127 0.008656 10.7419
0 0.017873 0.03375 3.37924
-1.91544e-20 -0.030877 0.0225 4.67082
-1.0842e-19 -0.012127 0.03625 3.12812
-1.0842e-19 -0.034627 0.0162494 6.00514
5.84013e-20 0.026623 0.0275 4.03876
-1.0842e-19 0.027873 0.02625 4.19124
0 -0.022127 0.03125 3.57322
1.0842e-19 0.025373 0.02875 3.88639
-3.187e-28 0.034123 0.017495 5.77661
1.0842e-19 0.037873 0.00608215 16.0848
0 -0.038377 7.78739e-09 80.14
1.58401e-19 0.029123 0.025 4.3653
1.58401e-19 -0.008377 0.0375 2.99829
-1.91544e-20 -0.015877 0.035 3.23828
4.13287e-20 -0.038377 0.00233887 55.011
-1.0842e-19 0.012873 0.03625 3.14863
3.28979e-21 0.024123 0.03 3.75165
0 -0.032127 0.02125 4.87245
-5.16988e-26 -0.038377 0.00366689 37.5764
0 0.030373 0.02375 4.53937
-3.54881e-20 0.009123 0.0375 3.01376
-1.91544e-20 -0.020877 0.0325 3.46092
1.03398e-25 -0.038377 0.00479858 22.7191
0 0.036623 0.0124878 7.72224
1.0842e-19 0.022873 0.03125 3.61712
-3.54881e-20 0.016623 0.035 3.26519
-1.0842e-19 0.000373 0.0387501 2.87368
0 -0.037127 0.011217 8.28883
1.0842e-19 -0.002127 0.0387501 2.87137
8.08456e-20 0.031623 0.0225 4.74469
0 0.037873 0.008656 10.9203
0 0.002873 0.0387501 2.8761
-4.03897e-28 -0.035877 0.0149988 6.4521
-9.67102e-20 -0.033377 0.02 5.11885
0 0.035373 0.0162494 6.10394
1.0842e-19 -0.004627 0.0387501 2.86911
8.08456e-20 0.021623 0.0325 3.49952
1.0842e-19 -0.019627 0.03375 3.34849
-1.91544e-20 -0.010877 0.0375 2.99638
-5.16988e-26 -0.038377 0.00736572 13.3033
-1.0842e-19 -0.014627 0.03625 3.1264
1.0842e-19 0.005373 0.0387501 2.87858
1.65436e-24 0.039123 1.26008e-08 78.8364
1.0842e-19 0.032873 0.02125 4.95005
0 0.039123 0.00233887 54.5013
-3.54881e-20 0.011623 0.0375 3.01633
-1.0842e-19 0.015373 0.03625 3.15118
-1.0842e-19 -0.034627 0.01875 5.36522
0 -0.007127 0.0387501 2.86694
0 0.039123 0.00479858 22.985
0 0.020373 0.03375 3.38215
-1.0842e-19 0.037873 0.011217 8.43428
8.08456e-20 -0.028377 0.0275 3.97673