# p  POINT_DATA 38412
# x  y  z  p
0 -0.000876977 7.72851e-09 0.00631054
-1.0842e-19 0.000373007 0.00116944 0.00631812
0 0.00162301 7.22625e-09 0.00632588
-2.1684e-19 -0.00212699 0.00116944 0.00630297
6.51843e-20 -0.000876996 0.00233887 0.00631068
1.1324e-19 0.00162301 0.00233887 0.00632602
0 0.00287301 0.00116943 0.00633364
1.65436e-24 -0.00337698 7.72879e-09 0.00629557
1.0842e-19 0.000373004 0.00356872 0.00631839
-1.03398e-25 0.00162301 0.00347077 0.00632604
0 -0.000876997 0.0039882 0.00631071
-2.99957e-20 -0.003377 0.00233887 0.0062957
0 0.00412303 6.77238e-09 0.00634159
2.1684e-19 -0.002127 0.00356872 0.00630322
1.0842e-19 0.002873 0.00356872 0.00633392
-5.64216e-20 0.00412301 0.00233887 0.00634172
0 -0.004627 0.00116943 0.00628817
0 -0.000876998 0.00479858 0.00631073
-5.16988e-26 0.00412301 0.00276507 0.00634173
0 0.001623 0.00479858 0.00632607
2.58494e-26 -0.003377 0.00418769 0.00629574
-1.0842e-19 0.00537301 0.00116944 0.00634953
0 -0.004627 0.00356872 0.00628842
-5.16988e-26 -0.003377 0.00479858 0.00629575
1.65436e-24 -0.005877 7.46194e-09 0.00628095
0 0.000373001 0.00608215 0.00631822
6.46235e-27 0.00566877 0.00233887 0.00635167
-3.8015e-20 -0.005877 0.00233887 0.00628107
1.03398e-25 0.004123 0.00479858 0.00634177
1.0842e-19 -0.002127 0.00608215 0.00630308
1.0842e-19 0.005373 0.00356873 0.00634981
0 0.00662302 6.54409e-09 0.00635767
-1.0842e-19 0.002873 0.00608215 0.00633374
-3.61892e-25 0.006623 0.00230816 0.00635781
-1.29247e-26 0.006623 0.00233887 0.00635781
0 -0.005877 0.00394677 0.00628111
-2.1684e-19 -0.00712701 0.00116943 0.00627373
0 -0.000876999 0.00736572 0.00631045
-5.16988e-26 0.001623 0.00736572 0.00632577
0 -0.005877 0.00479858 0.00628113
-1.0842e-19 -0.004627 0.00608215 0.00628828
1.0842e-19 0.007873 0.00116944 0.00636581
-2.1684e-19 -0.007127 0.00356872 0.00627398
0 -0.003377 0.00736572 0.00629548
-1.0842e-19 0.005373 0.00608215 0.00634964
1.03398e-25 0.006623 0.00479858 0.00635787
1.65436e-24 -0.008377 7.22726e-09 0.00626669
-1.03398e-25 0.004123 0.00736572 0.00634146
0 0.007873 0.00356873 0.00636611
1.0842e-19 0.000373 0.00865601 0.00631782
-1.33241e-19 -0.008377 0.00233887 0.00626681
0 -0.002127 0.008656 0.00630268
0 -0.008377 0.00311946 0.00626683
-1.0842e-19 0.002873 0.008656 0.0063333
0 0.009123 5.99077e-09 0.00637414
0 -0.007127 0.00608215 0.00627384
-5.16988e-26 0.009123 0.00221178 0.00637428
5.16988e-26 0.009123 0.00233887 0.00637429
0 -0.005877 0.00736572 0.00628088
0 -0.008377 0.00479858 0.00626686
-1.0842e-19 -0.009627 0.00116943 0.00625964
0 -0.004627 0.00865601 0.0062879
1.98693e-20 0.006623 0.00736572 0.00635753
1.0842e-19 0.007873 0.00608215 0.00636591
0 -0.000877 0.00994629 0.00630991
0 0.001623 0.00994629 0.0063252
0 0.005373 0.008656 0.00634917
0 -0.009627 0.00356873 0.00625989
0 0.009123 0.00479858 0.00637434
0 0.010373 0.00116944 0.00638247
0 -0.003377 0.00994629 0.00629497
-4.24601e-20 0.004123 0.00994629 0.00634085
0 -0.010877 7.09664e-09 0.00625277
0 0.010373 0.00356873 0.00638278
-7.0609e-20 -0.010877 0.00233887 0.00625289
-5.16988e-26 -0.008377 0.00736572 0.00626663
4.52364e-26 -0.010877 0.00251816 0.00625289
2.1684e-19 -0.007127 0.008656 0.00627349
1.0842e-19 0.000373 0.011217 0.00631712
0 -0.009627 0.00608215 0.00625975
0 -0.002127 0.011217 0.00630202
0 -0.005877 0.00994629 0.00628039
2.1684e-19 0.002873 0.011217 0.00633257
0 0.011623 5.20219e-09 0.006391
-2.1684e-19 0.007873 0.008656 0.00636542
1.03398e-25 0.009123 0.00736572 0.00637399
4.1359e-25 0.011623 0.0019339 0.00639113
0 0.011623 0.00233887 0.00639116
0 -0.010877 0.00479858 0.00625295
2.58494e-26 0.006623 0.00994629 0.00635689
0 0.010373 0.00608215 0.00638257
-2.1684e-19 -0.004627 0.011217 0.00628728
-1.0842e-19 -0.012127 0.00116943 0.00624589
-1.0842e-19 0.005373 0.011217 0.00634839
0 -0.000877 0.0124878 0.00630913
2.06795e-25 0.011623 0.00479858 0.00639121
0 0.001623 0.0124878 0.00632438
0 -0.012127 0.00356872 0.00624613
-1.0842e-19 0.012873 0.00116944 0.00639953
0 -0.003377 0.0124878 0.00629423
0 -0.009627 0.008656 0.00625943
0 -0.008377 0.00994629 0.00626617
0 -0.010877 0.00736572 0.00625272
-2.35175e-20 0.004123 0.0124878 0.00633999
0 -0.007127 0.011217 0.0062729
-1.0842e-19 0.012873 0.00356872 0.00639985
0 -0.013377 6.94728e-09 0.00623919
2.58494e-26 0.009123 0.00994629 0.00637331
1.0842e-19 0.010373 0.008656 0.00638205
0 -0.012127 0.00608215 0.00624601
9.65629e-20 -0.013377 0.00233887 0.0062393
9.04729e-26 -0.013377 0.00281502 0.00623931
-1.0842e-19 0.007873 0.011217 0.00636459
-1.0842e-19 0.000373 0.0137433 0.00631622
0 0.011623 0.00736572 0.00639083
0 -0.005877 0.0124878 0.0062797
0 -0.002127 0.0137433 0.00630117
-1.0842e-19 0.002873 0.0137433 0.00633162
0 0.014123 4.00393e-09 0.00640826
0 0.006623 0.0124878 0.00635597
-4.1359e-25 0.014123 0.00137285 0.00640835
1.03398e-25 -0.013377 0.00479858 0.00623936
1.0842e-19 0.012873 0.00608215 0.00639963
-4.1359e-25 0.014123 0.00233887 0.00640842
1.0842e-19 -0.004627 0.0137433 0.00628648
-1.0842e-19 -0.014627 0.00116943 0.00623248
-1.29247e-26 -0.010877 0.00994629 0.00625228
1.0842e-19 0.005373 0.0137433 0.00634739
-4.1359e-25 0.0147726 0 0.00641285
-2.1684e-19 -0.009627 0.011217 0.00625886
0 -0.012127 0.008656 0.00624569
2.06795e-25 0.014123 0.00479858 0.00640847
0 -0.000877 0.0149988 0.00630816
-1.26722e-19 -0.008377 0.0124878 0.00626551
0 -0.014627 0.00356872 0.00623271
0 0.001623 0.0149988 0.00632335
0 -0.013377 0.00736572 0.00623914
-1.0842e-19 0.010373 0.011217 0.00638118
0 0.011623 0.00994629 0.00639011
0 -0.003377 0.0149988 0.00629332
-1.0842e-19 0.015373 0.00116944 0.006417
0 0.009123 0.0124878 0.00637234
1.0842e-19 -0.007127 0.0137433 0.00627215
-1.0842e-19 0.012873 0.008656 0.00639908
-3.93026e-20 0.004123 0.0149988 0.00633891
1.0842e-19 0.015373 0.00356872 0.00641731
0 0.007873 0.0137433 0.00636354
0 -0.014627 0.00608215 0.00623259
-8.27181e-25 -0.015877 6.63832e-09 0.00622594
0 0.014123 0.00736572 0.00640807
-1.41409e-20 -0.015877 0.00233887 0.00622605
1.9387e-26 -0.015877 0.00252442 0.00622605
0 -0.005877 0.0149988 0.00627884
1.0842e-19 0.000373 0.0162494 0.00631512
0 -0.002127 0.0162494 0.00630014
8.07794e-28 0.006623 0.0149988 0.00635483
1.0842e-19 0.002873 0.0162494 0.00633046
0 -0.012127 0.011217 0.00624516
0 0.015373 0.00608215 0.00641709
0 -0.010877 0.0124878 0.00625166
0 -0.015877 0.00479858 0.0062261
-1.65436e-24 0.016623 1.14059e-08 0.00642593
0 -0.013377 0.00994629 0.00623873
1.0842e-19 -0.009627 0.0137433 0.00625815
-8.27181e-25 0.016623 0.00233887 0.00642609
0 -0.004627 0.0162494 0.00628551
0 -0.014627 0.008656 0.00623229
-6.46235e-27 0.011623 0.0124878 0.00638909
0 0.012873 0.011217 0.00639816
0 0.005373 0.0162494 0.00634617
1.0842e-19 -0.017127 0.00116943 0.0062194
-2.01948e-28 -0.008377 0.0149988 0.0062647
-1.0842e-19 0.010373 0.0137433 0.00638005
-2.58494e-26 0.014123 0.00994629 0.00640731
0 0.016623 0.00479858 0.00642613
-2.1684e-19 -0.017127 0.00356872 0.00621962
0 -0.015877 0.00736572 0.0062259
3.17122e-28 -0.000877 0.0174912 0.00630701
3.28979e-21 -0.000877 0.0175 0.006307
-8.07794e-28 0.009123 0.0149988 0.00637112
2.35081e-28 0.001623 0.0174922 0.00632213
-1.57772e-30 0.001623 0.0175 0.00632213
-1.0842e-19 0.015373 0.00865601 0.0064165
0 -0.007127 0.0162494 0.00627123
-2.8399e-28 -0.003377 0.0174891 0.00629224
0 -0.003377 0.0175 0.00629223
1.0842e-19 0.017873 0.00116944 0.00643486
-2.00371e-28 0.004123 0.0174928 0.00633761
-1.57772e-30 0.004123 0.0175 0.00633761
0 0.007873 0.0162494 0.00636223
1.0842e-19 -0.017127 0.00608215 0.0062195
0 0.016623 0.00736572 0.00642572
1.0842e-19 0.017873 0.00356872 0.00643519
-3.23117e-27 -0.013377 0.0124878 0.00623814
0 -0.012127 0.0137433 0.00624448
8.27181e-25 -0.018377 6.50332e-09 0.00621301
-1.0842e-19 -0.014627 0.011217 0.00623178
1.29373e-28 -0.005877 0.0174846 0.00627782
8.08456e-20 -0.005877 0.0175 0.00627781
1.25722e-19 -0.018377 0.00233887 0.00621312
0 -0.010877 0.0149988 0.00625089
-2.58494e-26 -0.018377 0.0024529 0.00621312
-2.2877e-28 0.006623 0.0174931 0.00635346
0 0.006623 0.0175 0.00635346
0 -0.015877 0.00994629 0.0062255
-1.0842e-19 0.000373 0.01875 0.00631383
1.0842e-19 0.012873 0.0137433 0.00639697
0 0.014123 0.0124878 0.00640623
0 -0.002127 0.01875 0.00629892
-1.0842e-19 0.017873 0.00608215 0.00643494
1.0842e-19 -0.009627 0.0162494 0.00625727
1.03398e-25 0.0189403 0 0.00644267
0 0.002873 0.01875 0.00632909
4.03897e-28 0.011623 0.0149988 0.0063878
0 -0.018377 0.00479858 0.00621317
0 0.015373 0.011217 0.00641553
2.06795e-25 0.019123 8.99002e-10 0.006444
0 0.019123 0.000443798 0.00644403
-1.0842e-19 -0.017127 0.008656 0.00621922
1.91219e-20 0.019123 0.00233887 0.00644416
-1.0842e-19 0.010373 0.0162494 0.00637868
1.03398e-25 0.0193061 0 0.00644535
-1.0842e-19 -0.004627 0.01875 0.00628436
0 0.016623 0.00994629 0.00642492
3.15544e-29 -0.008377 0.0174794 0.00626373
3.28979e-21 -0.008377 0.0175 0.00626372
1.0842e-19 0.005373 0.01875 0.00634472
0 -0.019627 0.00116943 0.00620663
0 0.019123 0.00479858 0.00644421
-5.52203e-29 0.009123 0.0174927 0.00636968
-9.67102e-20 0.009123 0.0175 0.00636967
-5.16988e-26 -0.018377 0.00736572 0.00621298
-1.0842e-19 0.017873 0.008656 0.00643434
1.0842e-19 -0.019627 0.00356872 0.00620685
-9.67102e-20 -0.000877 0.02 0.00630566
-1.0842e-19 -0.007127 0.01875 0.00627014
3.28979e-21 0.001623 0.02 0.00632071
-1.0842e-19 -0.014627 0.0137433 0.00623114
0 -0.013377 0.0149988 0.00623741
0 -0.015877 0.0124878 0.00622495
1.0842e-19 -0.012127 0.0162494 0.00624365
3.28979e-21 -0.003377 0.02 0.00629097
0 0.007873 0.01875 0.00636071
1.0842e-19 0.020373 0.00116944 0.00645314
3.28979e-21 0.004123 0.02 0.00633611
0 -0.017127 0.011217 0.00621874
0 0.019123 0.00736572 0.00644376
0 -0.019627 0.00608215 0.00620674
1.57772e-30 -0.010877 0.0174793 0.00624997
0 0.014123 0.0149988 0.00640487
0 -0.010877 0.0175 0.00624996
1.0842e-19 0.015373 0.0137433 0.00641427
0 0.020373 0.00356872 0.00645348
-1.0842e-19 0.012873 0.0162494 0.00639551
6.46235e-27 0.016623 0.0124878 0.00642377
3.28979e-21 -0.005877 0.02 0.00627662
0 -0.020877 7.37805e-09 0.0062004
0 -0.018377 0.00994629 0.00621261
-2.99767e-28 0.011623 0.0174915 0.00638627
8.0752e-20 -0.020877 0.00233887 0.00620051
-9.67043e-20 0.011623 0.0175 0.00638626
3.28979e-21 0.006623 0.02 0.00635187
0 -0.009627 0.01875 0.00625625
1.0842e-19 0.017873 0.011217 0.00643331
1.0842e-19 0.000373 0.02125 0.00631236
0 0.020373 0.00608215 0.00645322
-5.16988e-26 -0.020877 0.00408776 0.00620055
-1.0842e-19 -0.002127 0.02125 0.00629753
0 -0.020877 0.00479858 0.00620056
0 0.010373 0.01875 0.00637707
-1.0842e-19 0.002873 0.02125 0.00632754
0 -0.019627 0.00865601 0.00620648
-5.04618e-20 0.019123 0.00994629 0.00644292
0 0.021623 1.1374e-08 0.00646249
-1.91544e-20 -0.008377 0.02 0.00626259
1.0842e-19 -0.004627 0.02125 0.00628305
1.62598e-19 0.021623 0.00233888 0.00646266
4.03897e-28 -0.015877 0.0149988 0.00622426
0 -0.014627 0.0162494 0.00623036
-1.0842e-19 0.005373 0.02125 0.00634307
0 -0.017127 0.0137433 0.00621814
3.28979e-21 0.009123 0.02 0.00636799
8.83524e-29 -0.013377 0.0174821 0.00623654
8.08456e-20 -0.013377 0.0175 0.00623654
-1.0842e-19 0.020373 0.008656 0.00645257
0 -0.020877 0.00736572 0.00620038
4.1359e-25 0.021623 0.00479858 0.0064627
1.0842e-19 -0.022127 0.00116943 0.00619417
3.23117e-27 -0.018377 0.0124878 0.00621208
0 -0.012127 0.01875 0.00624269
1.0842e-19 0.015373 0.0162494 0.00641273
0 0.016623 0.0149988 0.00642233
0 -0.022127 0.00356872 0.00619439
1.0842e-19 -0.007127 0.02125 0.0062689
-2.11415e-28 0.014123 0.0174909 0.00640324
0 0.014123 0.0175 0.00640324
8.08456e-20 -0.000877 0.0225 0.00630415
-1.0842e-19 0.017873 0.0137433 0.00643198
8.08456e-20 0.001623 0.0225 0.0063191
0 -0.019627 0.011217 0.00620601
0 0.007873 0.02125 0.00635896
-1.0842e-19 0.012873 0.01875 0.0063938
3.28979e-21 -0.003377 0.0225 0.00628954
-9.67102e-20 -0.010877 0.02 0.00624891
-6.46235e-27 0.019123 0.0124878 0.00644171
-4.67455e-20 0.021623 0.00736572 0.00646223
8.08456e-20 0.004123 0.0225 0.0063344
-1.0842e-19 0.022873 0.00116944 0.00647184
1.0842e-19 -0.022127 0.00608215 0.00619428
0 -0.020877 0.00994629 0.00620003
3.28979e-21 0.011623 0.02 0.00638448
1.0842e-19 0.022873 0.00356872 0.0064722
3.28979e-21 -0.005877 0.0225 0.00627527
1.0842e-19 0.020373 0.011217 0.00645148
-2.58494e-26 -0.0227717 0.00479858 0.00619124
-1.0842e-19 -0.009627 0.02125 0.00625508
-1.65436e-24 -0.023377 8.97906e-09 0.0061881
8.08456e-20 0.006623 0.0225 0.00635006
1.25775e-19 -0.023377 0.00233887 0.00618821
1.0842e-19 -0.017127 0.0162494 0.0062174
7.09975e-29 -0.015877 0.017484 0.00622345
5.84013e-20 -0.015877 0.0175 0.00622344
0 0.010373 0.02125 0.00637522
1.0842e-19 0.022873 0.00608215 0.00647191
0 -0.018377 0.0149988 0.00621143
0 0.000373 0.02375 0.00631072
0 -0.022127 0.008656 0.00619403
0 -0.014627 0.01875 0.00622945
-6.33372e-20 0.021623 0.00994629 0.00646133
1.0842e-19 -0.002127 0.02375 0.00629598
1.29247e-26 -0.023377 0.00479858 0.00618826
0 0.002873 0.02375 0.00632579
1.0842e-19 -0.019627 0.0137433 0.00620544
-1.91544e-20 -0.008377 0.0225 0.00626133
8.08456e-20 -0.013377 0.02 0.00623554
1.29247e-26 -0.023377 0.00594996 0.00618818
0 0.024123 1.13291e-08 0.0064814
8.04638e-29 0.016623 0.0174918 0.00642061
1.58401e-19 0.016623 0.0175 0.0064206
-2.1684e-19 0.017873 0.0162494 0.00643034
-1.0842e-19 -0.004627 0.02375 0.00628159
-9.11371e-20 0.024123 0.00233888 0.00648158
-1.0842e-19 0.015373 0.01875 0.00641091
-9.67102e-20 0.009123 0.0225 0.00636607
0 0.019123 0.0149988 0.00644018
-1.03437e-19 -0.020877 0.0124878 0.00619952
-1.0842e-19 0.005373 0.02375 0.00634121
0 0.022873 0.00865601 0.00647122
0 -0.012127 0.02125 0.0062416
8.08456e-20 0.014123 0.02 0.00640135
0 -0.023377 0.00736572 0.00618809
0 0.020373 0.0137433 0.00645008
9.7039e-20 0.024123 0.00479858 0.00648161
1.0842e-19 -0.024627 0.00116943 0.00618203
1.0842e-19 -0.007127 0.02375 0.00626753
1.0842e-19 -0.022127 0.011217 0.00619359
-1.0842e-19 0.012873 0.02125 0.00639183
1.0842e-19 -0.024627 0.00356872 0.00618223
-1.23312e-19 0.021623 0.0124878 0.00646005
-1.91544e-20 -0.010877 0.0225 0.00624771
3.28979e-21 -0.000877 0.025 0.00630246
0 0.007873 0.02375 0.00635699
-1.91544e-20 0.001623 0.025 0.00631732
0 0.024123 0.00736572 0.00648111
3.28979e-21 -0.003377 0.025 0.00628795
8.08456e-20 0.011623 0.0225 0.00638245
-1.91544e-20 0.004123 0.025 0.00633251
-1.73549e-29 -0.018377 0.0174852 0.00621066
0 -0.024627 0.00608215 0.00618214
0 -0.018377 0.0175 0.00621066
1.0842e-19 -0.017127 0.01875 0.00621655
1.0842e-19 0.025373 0.00116944 0.00649096
1.29247e-26 -0.023377 0.00994629 0.00618775
-1.0842e-19 0.022873 0.011217 0.00647008
0 -0.019627 0.0162494 0.00620475
8.08456e-20 -0.015877 0.02 0.0062225
0 0.025373 0.00356873 0.00649132
-1.0842e-19 -0.009627 0.02375 0.00625378
-9.67102e-20 -0.005877 0.025 0.00627377
0 -0.020877 0.0149988 0.00619891
1.0842e-19 -0.014627 0.02125 0.00622843
-1.91544e-20 0.006623 0.025 0.00634805
0 -0.025877 1.00763e-08 0.00617611
0 0.017873 0.01875 0.00642842
0 0.010373 0.02375 0.00637313
-1.54617e-28 0.019123 0.0174929 0.00643836
-1.91468e-20 0.019123 0.0175 0.00643835
-1.09365e-19 -0.025877 0.00233887 0.00617621
-1.91544e-20 0.016623 0.02 0.0064186
-1.0842e-19 -0.022127 0.0137433 0.00619306
0 0.020373 0.0162494 0.00644835
1.0842e-19 0.025373 0.00608215 0.00649103
5.16988e-26 0.024123 0.00994629 0.00648017
-1.0842e-19 -0.024627 0.008656 0.0061819
8.08456e-20 -0.013377 0.0225 0.00623442
-1.0842e-19 0.015373 0.02125 0.00640883
0 0.000373 0.02625 0.00630889
0 0.021623 0.0149988 0.00645844
-3.60172e-20 -0.025877 0.00479858 0.00617627
0 -0.002127 0.02625 0.00629426
-1.91544e-20 -0.008377 0.025 0.00625991
-1.0842e-19 0.002873 0.02625 0.00632386
-3.41447e-20 -0.023377 0.0124878 0.00618728
-1.91544e-20 0.014123 0.0225 0.0063992
-1.91544e-20 0.009123 0.025 0.00636394
0 0.026623 3.78395e-10 0.00650074
-1.0842e-19 -0.004627 0.02625 0.00627996
-1.0842e-19 -0.012127 0.02375 0.00624037
1.0842e-19 0.022873 0.0137433 0.00646859
-8.27181e-25 0.026623 0.00233887 0.00650092
-1.0842e-19 0.005373 0.02625 0.00633917
-1.0842e-19 0.025373 0.008656 0.0064903
1.05013e-26 -0.0257893 0.00736572 0.00617652
7.92252e-21 -0.025877 0.00736572 0.0061761
-8.07794e-28 -0.025877 0.00770613 0.00617606
0 0.012873 0.02375 0.00638963
0 0.026623 0.00479858 0.00650096
1.0842e-19 -0.024627 0.011217 0.00618149
0 -0.019627 0.01875 0.00620394
0 -0.027127 0.00116944 0.00617018
-9.67102e-20 -0.018377 0.02 0.00620977
1.29247e-26 0.024123 0.0124878 0.00647882
0 -0.007127 0.02625 0.00626599
-2.8399e-29 -0.020877 0.0174855 0.00619818
0 -0.020877 0.0175 0.00619818
-1.91544e-20 -0.010877 0.025 0.00624638
-1.0842e-19 -0.017127 0.02125 0.00621557
2.1684e-19 -0.027127 0.00356872 0.00617038
0 0.007873 0.02625 0.00635482
1.0842e-19 -0.022127 0.0162494 0.0061924
8.08456e-20 -0.000877 0.0275 0.00630061
-9.67102e-20 -0.015877 0.0225 0.00622144
8.08456e-20 0.001623 0.0275 0.00631535
5.84013e-20 0.011623 0.025 0.00638019
0 0.026623 0.00736572 0.00650043
-1.91544e-20 0.019123 0.02 0.00643623
-1.0842e-19 0.020373 0.01875 0.00644631
8.08456e-20 -0.003377 0.0275 0.0062862
0 -0.025877 0.00994629 0.00617578
-1.0842e-19 0.025373 0.011217 0.00648909
0 0.017873 0.02125 0.00642622
2.01948e-28 -0.023377 0.0149988 0.00618669
-1.0842e-19 -0.027127 0.00608215 0.00617029
-1.91544e-20 0.004123 0.0275 0.00633042
6.15312e-29 0.021623 0.0174934 0.00645651
-1.57772e-30 0.021623 0.0175 0.0064565
1.0842e-19 -0.014627 0.02375 0.00622727
1.0842e-19 0.027873 0.00116944 0.00651052
1.0842e-19 -0.009627 0.02625 0.00625234
-1.91544e-20 0.016623 0.0225 0.00641633
0 0.022873 0.0162494 0.00646676
0 0.027873 0.00356873 0.00651089
-9.67102e-20 -0.005877 0.0275 0.00627212
1.0842e-19 -0.024627 0.0137433 0.00618098
0 0.010373 0.02625 0.00637083
-1.91544e-20 0.006623 0.0275 0.00634584
-1.0842e-19 0.015373 0.02375 0.0064065
1.58401e-19 -0.013377 0.025 0.00623316
0 -0.028377 1.04784e-08 0.00616441
0 0.024123 0.0149988 0.00647711
0 0.026623 0.00994629 0.00649943
1.05603e-19 -0.028377 0.00233887 0.00616451
-2.1684e-19 -0.027127 0.008656 0.00617006
0 0.027873 0.00608215 0.00651059
5.84013e-20 0.014123 0.025 0.00639681
0 -0.025877 0.0124878 0.00617533
8.08456e-20 -0.008377 0.0275 0.00625836
0 0.000373 0.02875 0.0063069
-4.29502e-20 -0.028377 0.00479858 0.00616456
1.0842e-19 -0.002127 0.02875 0.00629238
-1.0842e-19 0.025373 0.0137433 0.00648752
1.0842e-19 0.002873 0.02875 0.00632174
-1.91544e-20 -0.020877 0.02 0.00619734
1.0842e-19 -0.012127 0.02625 0.00623901
0 -0.019627 0.02125 0.00620301
-1.91544e-20 0.009123 0.0275 0.0063616
-1.0842e-19 -0.022127 0.01875 0.00619164
8.08456e-20 -0.018377 0.0225 0.00620876
-1.0842e-19 -0.004627 0.02875 0.0062782
0 0.029123 1.56263e-08 0.00652051
0 0.027873 0.008656 0.00650981
-6.31089e-30 -0.023377 0.0174839 0.00618601
5.84047e-20 -0.023377 0.0175 0.00618601
-8.27181e-25 0.029123 0.00233888 0.0065207
-1.0842e-19 0.012873 0.02625 0.00638719
1.0842e-19 0.005373 0.02875 0.00633692
0 -0.017127 0.02375 0.00621448
-5.60997e-20 -0.028377 0.00736572 0.00616441
2.1684e-19 -0.027127 0.011217 0.00616967
0 0.026623 0.0124878 0.00649799
-1.0842e-19 0.020373 0.02125 0.00644397
1.58401e-19 0.021623 0.02 0.00645425
1.0842e-19 -0.024627 0.0162494 0.00618036
0 0.029123 0.00479858 0.00652074
-1.91544e-20 0.019123 0.0225 0.00643382
5.84013e-20 -0.010877 0.0275 0.00624492
-1.0842e-19 0.022873 0.01875 0.0064646
8.08456e-20 -0.015877 0.025 0.00622025
0 -0.007127 0.02875 0.00626433
1.0842e-19 -0.029627 0.00116944 0.00615863
-1.0842e-19 0.017873 0.02375 0.00642374
-3.12389e-28 0.024123 0.0174941 0.00647506
0 0.007873 0.02875 0.00635244
1.0842e-19 -0.029627 0.00356873 0.00615882
8.08456e-20 0.011623 0.0275 0.00637771
0 -0.025877 0.0149988 0.00617478
8.07794e-28 -0.028377 0.00976037 0.00616412
-1.91544e-20 -0.000877 0.03 0.00629859
8.08456e-20 0.016623 0.025 0.00641379
2.06795e-25 0.029123 0.00736572 0.00652018
8.08456e-20 0.001623 0.03 0.00631321
0 0.027873 0.011217 0.00650853
0 -0.014627 0.02625 0.00622599
0 -0.028377 0.00994629 0.0061641
1.0842e-19 0.025373 0.0162494 0.00648558
-1.91544e-20 -0.003377 0.03 0.00628431
-1.0842e-19 -0.029627 0.00608215 0.00615874
-1.91544e-20 0.004123 0.03 0.00632816
0 -0.009627 0.02875 0.00625078
2.1684e-19 0.030373 0.00116944 0.00653051
1.0842e-19 -0.027127 0.0137433 0.00616919
-1.0842e-19 0.015373 0.02625 0.00640391
0 0.026623 0.0149988 0.00649619
-1.0842e-19 0.010373 0.02875 0.0063683
-1.91544e-20 -0.005877 0.03 0.00627034
-1.91544e-20 -0.013377 0.0275 0.00623179
0 0.030373 0.00356873 0.00653091
0 -0.022127 0.02125 0.00619077
8.08456e-20 -0.020877 0.0225 0.00619639
-1.91544e-20 0.006623 0.03 0.00634344
-1.91544e-20 -0.023377 0.02 0.00618522
0 0.029123 0.00994629 0.00651912
1.0842e-19 -0.019627 0.02375 0.00620199
0 -0.029627 0.008656 0.00615852
0 -0.030877 1.0238e-08 0.00615301
8.08456e-20 0.014123 0.0275 0.00639417
-1.0842e-19 -0.024627 0.01875 0.00617964
1.54549e-19 -0.030877 0.00233887 0.0061531
0 0.030373 0.00608215 0.00653057
-8.07794e-28 -0.028377 0.0124878 0.00616367
-9.67102e-20 -0.018377 0.025 0.00620765
0 0.027873 0.0137433 0.00650686
1.58401e-19 -0.008377 0.03 0.00625668
0 -0.012127 0.02875 0.00623754
1.58401e-19 0.021623 0.0225 0.0064517
0 0.022873 0.02125 0.00646213
5.20648e-29 -0.025877 0.017478 0.00617414
1.58401e-19 -0.025877 0.0175 0.00617413
0 -0.030877 0.00479858 0.00615316
0 0.000373 0.03125 0.00630474
0 0.020373 0.02375 0.00644135
0 -0.002127 0.03125 0.00629034
8.08456e-20 0.024123 0.02 0.00647268
0 -0.017127 0.02625 0.00621327
-1.91544e-20 0.009123 0.03 0.00635905
1.0842e-19 0.002873 0.03125 0.00631945
0 0.019123 0.025 0.00643114
0 0.012873 0.02875 0.0063845
-1.0842e-19 0.025373 0.01875 0.00648329
0 0.030373 0.00865601 0.00652976
0 -0.004627 0.03125 0.00627629
0 -0.027127 0.0162494 0.0061686
0 0.031623 1.58158e-08 0.00654072
0 -0.029627 0.011217 0.00615815
0 0.029123 0.0124878 0.0065176
0 0.005373 0.03125 0.00633451
-8.27181e-25 0.031623 0.00233888 0.00654092
0 -0.030877 0.00736572 0.00615301
8.08456e-20 -0.015877 0.0275 0.00621896
0 0.017873 0.02625 0.006421
-3.69187e-28 0.026623 0.017495 0.00649402
5.84013e-20 -0.010877 0.03 0.00624334
0 0.031623 0.00479858 0.00654095
1.0842e-19 -0.007127 0.03125 0.00626253
-1.00974e-28 -0.028377 0.0149988 0.00616315
-9.67102e-20 0.016623 0.0275 0.00641099
-1.0842e-19 -0.032127 0.00116943 0.00614738
-9.67102e-20 0.011623 0.03 0.00637501
-1.0842e-19 0.007873 0.03125 0.00634987
1.0842e-19 -0.014627 0.02875 0.00622461
-1.0842e-19 0.027873 0.0162494 0.00650481
-3.23117e-27 -0.030877 0.00950556 0.00615277
-2.1684e-19 -0.032127 0.00356872 0.00614757
-2.1684e-19 0.030373 0.011217 0.0065284
-7.49898e-20 -0.030877 0.00994629 0.00615272
3.28979e-21 -0.023377 0.0225 0.00618433
1.0842e-19 -0.022127 0.02375 0.0061898
2.06795e-25 0.031623 0.00736572 0.00654036
8.08456e-20 -0.000877 0.0325 0.00629643
1.0842e-19 -0.024627 0.02125 0.00617883
8.08456e-20 0.001623 0.0325 0.00631091
-9.67102e-20 -0.020877 0.025 0.00619534
1.0842e-19 0.015373 0.02875 0.00640106
0 -0.0318135 0.00736572 0.00614884
0 -0.029627 0.0137433 0.00615769
-9.67102e-20 -0.003377 0.0325 0.00628227
1.0842e-19 -0.032127 0.00608215 0.00614748
1.0842e-19 -0.009627 0.03125 0.00624909
8.08456e-20 -0.025877 0.02 0.00617339
8.07794e-28 0.029123 0.0149988 0.00651569
-1.91544e-20 0.004123 0.0325 0.00632572
1.0842e-19 -0.019627 0.02625 0.00620085
1.58401e-19 -0.013377 0.03 0.0062303
-1.0842e-19 0.032873 0.00116944 0.00655094
-1.0842e-19 0.010373 0.03125 0.00636559
1.0842e-19 0.022873 0.02375 0.00645935
0 -0.027127 0.01875 0.00616792
1.58401e-19 0.024123 0.0225 0.00646998
-9.67102e-20 -0.005877 0.0325 0.00626842
8.08456e-20 0.021623 0.025 0.00644886
1.0842e-19 0.032873 0.00356873 0.00655135
8.08456e-20 -0.018377 0.0275 0.00620643
-1.0842e-19 0.025373 0.02125 0.00648068
0 0.031623 0.00994629 0.00653924
-9.67102e-20 0.014123 0.03 0.0063913
-1.91544e-20 0.006623 0.0325 0.00634085
0 0.020373 0.02625 0.00643844
1.0842e-19 -0.032127 0.008656 0.00614728
-1.91544e-20 0.026623 0.02 0.00649149
0 -0.030877 0.0124878 0.00615231
-3.15544e-29 -0.028377 0.0174661 0.00616255
0 0.030373 0.0137433 0.00652663
0 -0.028377 0.0175 0.00616254
1.65436e-24 -0.033377 9.23372e-09 0.00614189
0 0.032873 0.00608215 0.00655099
1.37375e-19 -0.033377 0.00233887 0.00614198
-1.0842e-19 -0.017127 0.02875 0.00621197
-1.57772e-30 0.019123 0.0275 0.00642816
-1.0842e-19 -0.012127 0.03125 0.00623594
8.08456e-20 -0.008377 0.0325 0.00625488
-1.0842e-19 0.027873 0.01875 0.00650239
3.86894e-20 -0.033377 0.00479858 0.00614204
0 0.000373 0.03375 0.00630244
-1.91544e-20 0.009123 0.0325 0.0063563
0 -0.029627 0.0162494 0.00615714
0 0.012873 0.03125 0.00638162
1.0842e-19 -0.002127 0.03375 0.00628818
0 0.017873 0.02875 0.00641797
0 0.002873 0.03375 0.006317
-1.91544e-20 -0.015877 0.03 0.00621757
0 -0.033377 0.00627875 0.00614195
-1.53039e-28 0.029123 0.0174956 0.00651339
2.1684e-19 0.032873 0.008656 0.00655013
0 0.031623 0.0124878 0.00653763
-1.0842e-19 -0.032127 0.011217 0.00614692
0 -0.004627 0.03375 0.00627426
0 0.034123 1.53106e-08 0.00656138
-1.0842e-19 0.005373 0.03375 0.0063319
1.29247e-26 -0.033377 0.00736572 0.00614189
-8.27181e-25 0.034123 0.00233888 0.00656158
1.0842e-19 -0.024627 0.02375 0.00617792
-3.54881e-20 -0.023377 0.025 0.00618334
-1.91544e-20 -0.010877 0.0325 0.00624164
3.28979e-21 -0.025877 0.0225 0.00617255
-9.67102e-20 0.016623 0.03 0.00640794
-2.01948e-28 -0.030877 0.0149988 0.00615182
0 -0.022127 0.02625 0.00618873
-1.29247e-26 -0.0340738 0.00479858 0.00613901
1.0842e-19 0.030373 0.0162494 0.00652446
0 0.034123 0.00479858 0.00656161
0 -0.027127 0.02125 0.00616716
0 -0.007127 0.03375 0.00626061
0 -0.014627 0.03125 0.00622311
1.58401e-19 0.011623 0.0325 0.00637209
-1.91544e-20 -0.020877 0.0275 0.0061942
0 -0.034627 0.00116943 0.0061364
0 0.007873 0.03375 0.00634709
8.08456e-20 -0.028377 0.02 0.00616184
0 0.032873 0.011217 0.00654869
1.58401e-19 0.024123 0.025 0.00646696
1.0842e-19 0.025373 0.02375 0.00647774
-2.1684e-19 -0.034627 0.00356872 0.00613658
0 -0.019627 0.02875 0.00619963
0 0.022873 0.02625 0.00645627
0 0.015373 0.03125 0.00639801
2.55634e-21 -0.033377 0.00994629 0.00614162
8.08456e-20 0.026623 0.0225 0.00648864
2.06795e-25 0.034123 0.00736572 0.00656098
1.0842e-19 -0.032127 0.0137433 0.00614649
-1.91544e-20 0.021623 0.0275 0.00644571
0 0.031623 0.0149988 0.00653561
-3.54881e-20 -0.000877 0.035 0.00629416
3.28979e-21 0.001623 0.035 0.0063085
-1.0842e-19 0.027873 0.02125 0.00649961
1.0842e-19 -0.029627 0.01875 0.0061565
-1.0842e-19 -0.009627 0.03375 0.00624729
1.58401e-19 -0.013377 0.0325 0.00622871
0 -0.034627 0.00608215 0.0061365
-1.13044e-19 -0.003377 0.035 0.00628014
-1.91544e-20 -0.018377 0.03 0.00620512
-1.0842e-19 0.020373 0.02875 0.00643524
-3.54881e-20 0.004123 0.035 0.00632316
0 0.010373 0.03375 0.00636265
-1.91544e-20 0.029123 0.02 0.00651072
0 0.035373 0.00116944 0.00657182
-1.91544e-20 0.014123 0.0325 0.00638821
0 -0.030877 0.0174648 0.00615125
-3.54881e-20 -0.005877 0.035 0.00626642
3.28979e-21 -0.030877 0.0175 0.00615124
-5.16988e-26 0.034123 0.00994629 0.0065598
1.0842e-19 0.035373 0.00356873 0.00657224
8.08456e-20 0.019123 0.03 0.00642494
-3.54881e-20 0.006623 0.035 0.00633812
-1.0842e-19 0.032873 0.0137433 0.00654682
0 -0.017127 0.03125 0.00621057
5.79455e-20 -0.033377 0.0124878 0.00614123
-1.0842e-19 -0.034627 0.008656 0.00613631
0 0.030373 0.01875 0.0065219
0 -0.012127 0.03375 0.00623424
0 -0.035877 8.16855e-09 0.00613105
-2.1684e-19 0.035373 0.00608215 0.00657186
7.2795e-21 -0.035877 0.00233887 0.00613114
-3.54881e-20 -0.025877 0.025 0.00617162
-9.67102e-20 -0.008377 0.035 0.006253
0 -0.024627 0.02625 0.0061769
1.0842e-19 0.017873 0.03125 0.00641473
1.0842e-19 -0.032127 0.0162494 0.00614597
0 -0.027127 0.02375 0.0061663
1.58401e-19 -0.023377 0.0275 0.00618226
2.58494e-26 -0.035877 0.00410813 0.00613118
-1.0842e-19 0.012873 0.03375 0.0063785
-3.58143e-28 0.031623 0.0174955 0.00653318
3.28979e-21 0.009123 0.035 0.00635341
1.58401e-19 -0.015877 0.0325 0.00621607
5.16988e-26 -0.035877 0.00479858 0.00613119
8.08456e-20 -0.028377 0.0225 0.00616105
0 0.000373 0.03625 0.00630009
0 -0.022127 0.02875 0.00618758
0 -0.002127 0.03625 0.00628594
0 0.034123 0.0124878 0.00655809
0 0.002873 0.03625 0.00631448
1.0842e-19 -0.034627 0.011217 0.00613597
1.0842e-19 0.035373 0.008656 0.00657095
-1.0842e-19 -0.029627 0.02125 0.00615578
-1.57772e-30 0.016623 0.0325 0.00640467
0 0.025373 0.02625 0.00647447
8.08456e-20 0.026623 0.025 0.00648544
0 -0.004627 0.03625 0.00627218
5.84013e-20 -0.020877 0.03 0.00619297
-1.91544e-20 0.024123 0.0275 0.00646362
0 -0.033377 0.0149988 0.00614077
1.0842e-19 0.027873 0.02375 0.00649651
3.30872e-24 0.036623 1.42928e-08 0.00658249
0 -0.035877 0.00736572 0.00613106
0 0.005373 0.03625 0.00632924
-1.91544e-20 -0.010877 0.035 0.00623987
-1.0842e-19 0.032873 0.0162494 0.00654453
0 0.036623 0.00233888 0.0065827
-1.0842e-19 0.022873 0.02875 0.00645287
0 -0.014627 0.03375 0.00622152
-3.54881e-20 -0.030877 0.02 0.00615058
1.58401e-19 0.029123 0.0225 0.00650769
3.28979e-21 0.011623 0.035 0.00636902
0 -0.019627 0.03125 0.00619831
0 0.036623 0.00479858 0.00658273
0 -0.007127 0.03625 0.00625864
-1.91544e-20 0.021623 0.03 0.00644229
0 0.030373 0.02125 0.00651896
0 0.015373 0.03375 0.00639472
-1.0842e-19 0.007873 0.03625 0.00634425
0 0.035373 0.011217 0.00656943
1.0842e-19 -0.037127 0.00116943 0.00612569
-1.0842e-19 -0.032127 0.01875 0.00614537
1.0406e-19 -0.035877 0.00994629 0.0061308
0 -0.034627 0.0137433 0.00613556
8.07794e-28 0.034123 0.0149988 0.00655595
-2.1684e-19 -0.037127 0.00356872 0.00612588
0 0.020373 0.03125 0.00643181
8.08456e-20 -0.018377 0.0325 0.00620371
0 0.036623 0.00736572 0.00658206
8.08456e-20 0.031623 0.02 0.00653035
-1.91544e-20 -0.013377 0.035 0.00622703
-1.0842e-19 -0.009627 0.03625 0.00624544
-1.13044e-19 -0.000877 0.0375 0.00629179
6.45119e-20 0.001623 0.0375 0.00630599
-2.1684e-19 -0.037127 0.00608215 0.0061258
6.45119e-20 -0.003377 0.0375 0.00627791
-6.94198e-29 -0.033377 0.0174789 0.00614023
0 -0.033377 0.0175 0.00614023
0 0.010373 0.03625 0.00635965
-1.91544e-20 0.019123 0.0325 0.00642147
6.45119e-20 0.004123 0.0375 0.00632049
-3.54881e-20 0.014123 0.035 0.00638496
0 -0.027127 0.02625 0.00616536
8.08456e-20 -0.025877 0.0275 0.0061706