# p  POINT_DATA 34437
# x  y  z  p
-8.07264e-09 0 0 0.00631592
0.000876982 0 0 0.00630911
-0.000876992 -5.42101e-20 0 0.00632261
0.001623 1.0842e-19 0 0.00630331
-0.00162301 -5.42101e-20 0 0.00632832
0.00124999 3.61401e-20 0.00116944 0.00630623
-0.00125 2.71051e-20 0.00116944 0.00632548
-6.79893e-10 0 0.00233887 0.00631606
0.00249999 1.0842e-19 0 0.0062965
-0.00249999 0 0 0.00633502
-0.00337698 0 0 0.0063416
0.00337699 1.0842e-19 0 0.00628956
0.0025 0 0.00233887 0.00629664
-0.0025 -1.0842e-19 0.00233887 0.00633515
-0.00125 1.807e-20 0.00356872 0.0063257
0.00125 0 0.00356872 0.00630645
-0.00375 0 0.00116943 0.00634442
0.00375 3.61401e-20 0.00116943 0.00628663
-0.004123 -5.42101e-20 0 0.00634721
0.00412301 -5.42101e-20 0 0.00628366
4.48412e-10 -1.0842e-19 0.00479858 0.00631611
-0.00499999 -1.0842e-19 0 0.0063538
0.00500001 0 0 0.00627674
-0.00375 0 0.00356872 0.00634464
0.00375 9.03502e-21 0.00356872 0.00628687
0.0025 -1.0842e-19 0.00479858 0.00629669
-0.0025 -1.0842e-19 0.00479858 0.0063352
-0.005 1.0842e-19 0.00233887 0.00635393
0.005 -1.0842e-19 0.00233887 0.00627688
-0.00587699 -1.0842e-19 0 0.00636027
0.00587701 0 0 0.00626969
-0.00125 0 0.00608215 0.00632555
0.00125 0 0.00608215 0.0063063
-0.00625 9.03502e-21 0.00116943 0.00636305
0.00625001 -4.51751e-20 0.00116944 0.00626671
-0.006623 5.42101e-20 0 0.0063658
0.00662301 -5.42101e-20 0 0.00626369
0.005 1.0842e-19 0.00479858 0.00627694
-0.005 -1.0842e-19 0.00479858 0.00635397
-0.00375 0 0.00608215 0.00634448
0.00375 -1.807e-20 0.00608215 0.00628671
-0.00625 9.03502e-21 0.00356872 0.00636325
0.00625 -2.71051e-20 0.00356872 0.00626695
3.68934e-10 1.0842e-19 0.00736572 0.00631582
-0.00750001 1.0842e-19 0 0.00637228
0.00750002 1.0842e-19 0 0.00625665
0.0025 1.0842e-19 0.00736572 0.0062964
-0.0025 1.0842e-19 0.00736572 0.00633491
-0.0075 1.0842e-19 0.00233887 0.0063724
0.00750001 1.0842e-19 0.00233887 0.00625679
-0.00837701 0 0 0.00637864
0.00837702 -5.42101e-20 0 0.00624947
-0.00625 0 0.00608215 0.00636309
0.00625 3.61401e-20 0.00608215 0.00626679
-0.00125 3.61401e-20 0.008656 0.00632515
0.00125 -1.807e-20 0.008656 0.00630589
-0.00875 9.03502e-21 0.00116944 0.00638137
0.00875001 1.807e-20 0.00116944 0.00624644
0.005 1.0842e-19 0.00736572 0.00627664
-0.005 1.0842e-19 0.00736572 0.00635369
0.0075 1.0842e-19 0.00479858 0.00625685
-0.0075 1.0842e-19 0.00479858 0.00637243
-0.009123 0 0 0.00638407
0.009123 1.0842e-19 0 0.00624336
0.00375 1.807e-20 0.008656 0.00628629
-0.00375 0 0.008656 0.00634408
-0.00875 -9.03502e-21 0.00356873 0.00638156
0.00875 1.807e-20 0.00356873 0.00624668
1.46183e-10 1.0842e-19 0.00994629 0.00631527
0.01 1.0842e-19 0 0.00623619
-0.01 -1.0842e-19 0 0.00639045
0.0025 1.0842e-19 0.00994629 0.00629584
-0.0025 1.0842e-19 0.00994629 0.00633437
0.01 1.0842e-19 0.00233887 0.00623634
-0.01 -1.0842e-19 0.00233887 0.00639056
0.0075 1.0842e-19 0.00736572 0.00625654
-0.0075 1.0842e-19 0.00736572 0.00637215
-0.00875 2.71051e-20 0.00608215 0.00638141
0.00875 9.03502e-21 0.00608215 0.00624652
0.00625 -1.807e-20 0.008656 0.00626635
-0.00625 9.03502e-21 0.008656 0.0063627
0.010877 5.42101e-20 0 0.00622889
-0.010877 1.0842e-19 0 0.00639671
0.01 1.0842e-19 0.00479858 0.0062364
-0.01 1.0842e-19 0.00479858 0.00639059
0.005 1.0842e-19 0.00994629 0.00627606
-0.005 1.0842e-19 0.00994629 0.00635316
-0.00125 0 0.011217 0.00632447
0.00125 1.807e-20 0.011217 0.00630519
-0.01125 2.71051e-20 0.00116944 0.0063994
0.01125 -7.22801e-20 0.00116944 0.0062258
-0.011623 -1.0842e-19 0 0.00640205
0.011623 5.42101e-20 0 0.00622267
-0.01125 0 0.00356873 0.00639958
0.01125 3.61401e-20 0.00356873 0.00622605
0.00375 3.61401e-20 0.011217 0.00628558
-0.00375 3.61401e-20 0.011217 0.00634342
0.00875 3.61401e-20 0.008656 0.00624607
-0.00875 3.61401e-20 0.00865601 0.00638103
0.01 1.0842e-19 0.00736572 0.00623609
-0.01 1.0842e-19 0.00736572 0.00639032
0.0075 1.0842e-19 0.00994629 0.00625595
-0.0075 1.0842e-19 0.00994629 0.00637164
3.19516e-11 1.0842e-19 0.0124878 0.00631448
0.0125 1.0842e-19 0 0.00621537
-0.0125 -1.0842e-19 0 0.00640832
0.0125 1.0842e-19 0.00233887 0.00621553
-0.0125 0 0.00233887 0.00640843
0.0025 1.0842e-19 0.0124878 0.00629502
-0.0025 1.0842e-19 0.0124878 0.0063336
-0.01125 -9.03502e-21 0.00608215 0.00639943
0.01125 -1.807e-20 0.00608215 0.00622589
0.00625 -1.807e-20 0.011217 0.00626562
-0.00625 1.807e-20 0.011217 0.00636206
0.013377 5.42101e-20 0 0.00620793
-0.013377 0 0 0.00641448
0.0125 1.0842e-19 0.00479858 0.00621559
-0.0125 1.0842e-19 0.00479858 0.00640846
0.005 1.0842e-19 0.0124878 0.00627523
-0.005 1.0842e-19 0.0124878 0.00635241
-0.01375 0 0.00116944 0.00641712
0.01375 -1.807e-20 0.00116944 0.00620479
-0.00125 -1.807e-20 0.0137433 0.00632359
0.00125 -3.61401e-20 0.0137433 0.00630428
0.01 1.0842e-19 0.00994629 0.00623548
-0.01 1.0842e-19 0.00994629 0.00638982
-0.014123 1.6263e-19 0 0.00641973
0.014123 5.42101e-20 0 0.00620161
-0.01125 3.61401e-20 0.008656 0.00639905
0.01125 0 0.008656 0.00622543
-0.01375 0 0.00356873 0.0064173
0.01375 3.61401e-20 0.00356873 0.00620506
-0.00875 0 0.011217 0.0063804
0.00875 3.61401e-20 0.011217 0.00624532
0.00375 -1.807e-20 0.0137433 0.00628464
-0.00375 -1.807e-20 0.0137433 0.00634257
0.0125 1.0842e-19 0.00736572 0.00621528
-0.0125 1.0842e-19 0.00736572 0.0064082
0.0075 1.0842e-19 0.0124878 0.00625509
-0.0075 1.0842e-19 0.0124878 0.00637091
3.04086e-12 1.0842e-19 0.0149988 0.00631349
0.015 1.0842e-19 0 0.00619418
-0.015 -1.0842e-19 0 0.00642591
0.01375 0 0.00608215 0.00620489
-0.01375 -2.71051e-20 0.00608215 0.00641715
0.00625 0 0.0137433 0.00626466
-0.00625 -1.807e-20 0.0137433 0.00636123
0.015 1.0842e-19 0.00233887 0.00619434
-0.015 -1.0842e-19 0.00233887 0.00642601
0.0025 1.0842e-19 0.0149988 0.006294
-0.0025 1.0842e-19 0.0149988 0.00633264
0.015 1.0842e-19 0.00479858 0.00619442
-0.015 -1.0842e-19 0.00479858 0.00642604
0.005 1.0842e-19 0.0149988 0.00627418
-0.005 1.0842e-19 0.0149988 0.00635148
0.015877 5.42101e-20 0 0.00618661
-0.015877 1.6263e-19 0 0.00643197
0.01125 0 0.011217 0.00622465
-0.01125 0 0.011217 0.00639843
0.0125 1.0842e-19 0.00994629 0.00621465
-0.0125 1.0842e-19 0.00994629 0.0064077
0.01 1.0842e-19 0.0124878 0.00623459
-0.01 1.0842e-19 0.0124878 0.00638911
0.01375 0 0.008656 0.00620443
-0.01375 0 0.00865601 0.00641678
-0.01625 0 0.00116944 0.00643457
0.01625 1.807e-20 0.00116944 0.00618342
0.00875 -1.807e-20 0.0137433 0.00624433
-0.00875 3.61401e-20 0.0137433 0.00637959
-0.00125 3.61401e-20 0.0162494 0.00632252
0.00125 0 0.0162494 0.00630318
-0.016623 0 0 0.00643714
0.016623 -5.42101e-20 0 0.00618017
0.01625 1.807e-20 0.00356873 0.00618369
-0.01625 9.03502e-21 0.00356873 0.00643474
0.00375 0 0.0162494 0.00628351
-0.00375 3.61401e-20 0.0162494 0.00634153
0.015 1.0842e-19 0.00736572 0.00619409
-0.015 1.0842e-19 0.00736572 0.00642578
0.0075 1.0842e-19 0.0149988 0.00625401
-0.0075 1.0842e-19 0.0149988 0.00637001
0.01625 -1.807e-20 0.00608215 0.00618353
-0.01625 9.03502e-21 0.00608215 0.0064346
0.00625 3.61401e-20 0.0162494 0.00626349
-0.00625 0 0.0162494 0.00636023
0.0175 1.0842e-19 0 0.00617261
-0.0175 -1.0842e-19 0 0.00644321
-1.024e-14 1.0842e-19 0.0175 0.00631231
0.0175 1.0842e-19 0.00233887 0.00617278
-0.0175 -1.0842e-19 0.00233887 0.00644332
0.0125 1.0842e-19 0.0124878 0.00621374
-0.0125 1.0842e-19 0.0124878 0.00640701
0.0025 1.0842e-19 0.0175 0.00629279
-0.0025 1.0842e-19 0.0175 0.0063315
0.01375 3.61401e-20 0.011217 0.00620363
-0.01375 1.807e-20 0.011217 0.00641618
-0.01125 -1.807e-20 0.0137433 0.00639766
0.01125 3.61401e-20 0.0137433 0.00622365
0.015 1.0842e-19 0.00994629 0.00619345
-0.015 1.0842e-19 0.00994629 0.0064253
0.01 1.0842e-19 0.0149988 0.00623348
-0.01 1.0842e-19 0.0149988 0.00638823
0.0175 1.0842e-19 0.00479858 0.00617286
-0.0175 1.0842e-19 0.00479858 0.00644334
0.005 1.0842e-19 0.0175 0.00627292
-0.005 1.0842e-19 0.0175 0.00635037
0.018377 -5.42101e-20 0 0.0061649
-0.018377 -5.42101e-20 0 0.00644918
0.01625 1.807e-20 0.008656 0.00618305
-0.01625 3.61401e-20 0.00865601 0.00643424
0.00875 3.61401e-20 0.0162494 0.00624313
-0.00875 0 0.0162494 0.00637861
-0.01875 9.03502e-21 0.00116944 0.00645174
0.01875 -1.807e-20 0.00116944 0.00616165
0.00125 0 0.01875 0.00630189
-0.00125 -1.807e-20 0.01875 0.00632127
0.0175 1.0842e-19 0.00736572 0.00617253
-0.0175 1.0842e-19 0.00736572 0.00644309
0.0075 1.0842e-19 0.0175 0.00625272
-0.0075 1.0842e-19 0.0175 0.00636893
0.01875 -9.03502e-21 0.00356873 0.00616193
-0.01875 9.03502e-21 0.00356873 0.00645191
-0.00375 0 0.01875 0.00634031
0.00375 3.61401e-20 0.01875 0.00628218
-0.019123 5.42101e-20 0 0.00645427
0.019123 0 0 0.00615835
0.01375 3.61401e-20 0.0137433 0.00620259
-0.01375 0 0.0137433 0.00641543
0.015 1.0842e-19 0.0124878 0.00619252
-0.015 1.0842e-19 0.0124878 0.00642463
0.0125 1.0842e-19 0.0149988 0.0062126
-0.0125 1.0842e-19 0.0149988 0.00640616
0.01875 0 0.00608215 0.00616177
-0.01875 3.61401e-20 0.00608215 0.00645176
0.01625 0 0.011217 0.00618223
-0.01625 -1.807e-20 0.011217 0.00643366
-0.01125 0 0.0162494 0.00639671
0.01125 3.61401e-20 0.0162494 0.00622241
0.00625 0 0.01875 0.00626212
-0.00625 -1.807e-20 0.01875 0.00635905
0.02 0 0 0.00615065
-0.02 1.0842e-19 0 0.00646024
-1.02401e-14 1.0842e-19 0.02 0.00631094
0.0175 1.0842e-19 0.00994629 0.00617187
-0.0175 1.0842e-19 0.00994629 0.00644262
0.02 1.0842e-19 0.00233887 0.00615082
-0.02 0 0.00233887 0.00646034
0.01 1.0842e-19 0.0175 0.00623216
0.0025 1.0842e-19 0.02 0.00629138
-0.0025 1.0842e-19 0.02 0.00633017
-0.01 1.0842e-19 0.0175 0.00638719
0.02 1.0842e-19 0.00479858 0.00615091
-0.02 1.0842e-19 0.00479858 0.00646037
0.005 1.0842e-19 0.02 0.00627147
-0.005 1.0842e-19 0.02 0.00634909
0.01875 1.807e-20 0.008656 0.00616128
-0.01875 0 0.008656 0.00645141
0.00875 1.807e-20 0.01875 0.00624172
-0.00875 0 0.01875 0.00637747
0.020877 1.6263e-19 0 0.0061428
-0.020877 -1.0842e-19 0 0.00646612
0.015 1.0842e-19 0.0149988 0.00619135
-0.015 1.0842e-19 0.0149988 0.00642381
-0.02125 1.807e-20 0.00116944 0.00646864
0.02125 1.807e-20 0.00116944 0.00613949
0.01625 -1.807e-20 0.0137433 0.00618117
-0.01625 -1.807e-20 0.0137433 0.00643292
0.01375 3.61401e-20 0.0162494 0.00620132
-0.01375 0 0.0162494 0.00641451
0.00125 0 0.02125 0.00630041
-0.00125 0 0.02125 0.00631983
0.02 1.0842e-19 0.00736572 0.00615057
-0.02 1.0842e-19 0.00736572 0.00646012
0.0075 1.0842e-19 0.02 0.00625122
-0.0075 1.0842e-19 0.02 0.00636769
0.0175 1.0842e-19 0.0124878 0.00617092
-0.0175 1.0842e-19 0.0124878 0.00644197
0.0125 1.0842e-19 0.0175 0.00621123
-0.0125 1.0842e-19 0.0175 0.00640515
0.02125 0 0.00356872 0.00613979
-0.02125 -1.807e-20 0.00356873 0.0064688
-0.00375 3.61401e-20 0.02125 0.00633892
0.00375 -1.807e-20 0.02125 0.00628065
-0.021623 0 0 0.00647113
0.021623 -5.42101e-20 0 0.00613612
0.01875 1.807e-20 0.011217 0.00616044
-0.01875 3.61401e-20 0.011217 0.00645084
0.01125 0 0.01875 0.00622095
-0.01125 -1.807e-20 0.01875 0.0063956
0.02125 0 0.00608215 0.00613962
-0.02125 0 0.00608215 0.00646866
0.00625 -1.807e-20 0.02125 0.00626055
-0.00625 3.61401e-20 0.02125 0.0063577
0.02 1.0842e-19 0.00994629 0.0061499
-0.02 1.0842e-19 0.00994629 0.00645966
0.01 1.0842e-19 0.02 0.00623061
-0.01 1.0842e-19 0.02 0.00638598
0.0225 0 0 0.00612829
-0.0225 -1.0842e-19 0 0.00647701
-1.02402e-14 1.0842e-19 0.0225 0.0063094
0.0225 -1.0842e-19 0.00233887 0.00612847
-0.0225 1.0842e-19 0.00233887 0.00647711
0.0025 1.0842e-19 0.0225 0.00628978
-0.0025 1.0842e-19 0.0225 0.00632868
0.02125 0 0.008656 0.00613912
-0.02125 0 0.008656 0.00646832
0.01625 0 0.0162494 0.00617985
-0.01625 0 0.0162494 0.00643203
-0.00875 -1.807e-20 0.02125 0.00637617
0.00875 0 0.02125 0.00624009
0.0225 1.0842e-19 0.00479858 0.00612857
-0.0225 1.0842e-19 0.00479858 0.00647713
0.0175 1.0842e-19 0.0149988 0.00616971
-0.0175 1.0842e-19 0.0149988 0.00644117
0.005 1.0842e-19 0.0225 0.00626983
-0.005 1.0842e-19 0.0225 0.00634763
0.015 1.0842e-19 0.0175 0.00618994
-0.015 1.0842e-19 0.0175 0.00642283
-0.01875 0 0.0137433 0.00645013
0.01875 0 0.0137433 0.00615935
-0.01375 0 0.01875 0.00641345
0.01375 -1.807e-20 0.01875 0.00619982
0.023377 -5.42101e-20 0 0.0061203
-0.023377 -1.6263e-19 0 0.00648279
0.02 1.0842e-19 0.0124878 0.00614892
-0.02 1.0842e-19 0.0124878 0.00645903
0.0125 1.0842e-19 0.02 0.00620964
-0.0125 1.0842e-19 0.02 0.00640399
0.0225 1.0842e-19 0.00736572 0.00612823
-0.0225 1.0842e-19 0.00736572 0.00647689
0.0075 1.0842e-19 0.0225 0.00624952
-0.0075 1.0842e-19 0.0225 0.00636628
0.02375 0 0.00116944 0.00611693
-0.02375 0 0.00116944 0.00648527
0.00125 3.61401e-20 0.02375 0.00629875
-0.00125 0 0.02375 0.00631822
0.02375 0 0.00356872 0.00611724
-0.02375 9.03502e-21 0.00356873 0.00648543
0.02125 0 0.011217 0.00613827
-0.02125 1.807e-20 0.011217 0.00646776
0.01125 0 0.02125 0.00621928
-0.01125 0 0.02125 0.00639434
0.00375 3.61401e-20 0.02375 0.00627894
-0.00375 -1.807e-20 0.02375 0.00633736
-0.024123 1.0842e-19 0 0.00648773
0.024123 -5.42101e-20 0 0.0061135
0.02375 0 0.00608215 0.00611708
-0.02375 0 0.00608215 0.00648529
0.00625 -1.807e-20 0.02375 0.00625878
-0.00625 3.61401e-20 0.02375 0.00635619
0.0225 1.0842e-19 0.00994629 0.00612754
-0.0225 1.0842e-19 0.00994629 0.00647644
0.01 1.0842e-19 0.0225 0.00622886
-0.01 1.0842e-19 0.0225 0.00638462
0.0175 1.0842e-19 0.0175 0.00616826
-0.0175 1.0842e-19 0.0175 0.00644022
0.01875 0 0.0162494 0.00615801
-0.01875 -1.807e-20 0.0162494 0.00644927
-0.01625 3.61401e-20 0.01875 0.006431
0.01625 3.61401e-20 0.01875 0.00617831
0.02 1.0842e-19 0.0149988 0.00614769
-0.02 1.0842e-19 0.0149988 0.00645825
0.015 1.0842e-19 0.02 0.0061883
-0.015 1.0842e-19 0.02 0.0064217
0.025 0 0 0.00610553
-0.025 1.0842e-19 0 0.00649352
-1.02401e-14 1.0842e-19 0.025 0.00630767
0.025 -1.0842e-19 0.00233887 0.00610572
-0.025 1.0842e-19 0.00233887 0.00649361
0.0025 1.0842e-19 0.025 0.00628801
-0.0025 1.0842e-19 0.025 0.00632701
-0.02375 1.807e-20 0.008656 0.00648495
0.02375 0 0.00865601 0.00611657
0.02125 0 0.0137433 0.00613715
-0.02125 3.61401e-20 0.0137433 0.00646707
0.01375 3.61401e-20 0.02125 0.0061981
-0.00875 0 0.02375 0.00637472
0.00875 0 0.02375 0.00623827
-0.01375 -1.807e-20 0.02125 0.00641222
0.025 1.0842e-19 0.00479858 0.00610581
-0.025 1.0842e-19 0.00479858 0.00649363
0.005 1.0842e-19 0.025 0.006268
-0.005 1.0842e-19 0.025 0.00634602
0.0225 1.0842e-19 0.0124878 0.00612654
-0.0225 1.0842e-19 0.0124878 0.00647582
0.0125 1.0842e-19 0.0225 0.00620784
-0.0125 1.0842e-19 0.0225 0.00640267
0.025877 0 0 0.00609739
-0.025877 1.0842e-19 0 0.00649921
0.025 1.0842e-19 0.00736572 0.00610547
-0.025 1.0842e-19 0.00736572 0.00649339
0.0075 1.0842e-19 0.025 0.00624763
-0.0075 1.0842e-19 0.025 0.00636472
0.02375 -1.807e-20 0.011217 0.00611569
-0.02375 3.61401e-20 0.011217 0.00648441
0.02625 0 0.00116944 0.00609396
-0.02625 0 0.00116944 0.00650166
0.00125 -1.807e-20 0.02625 0.00629691
0.01125 -1.807e-20 0.02375 0.0062174
-0.01125 3.61401e-20 0.02375 0.00639293
-0.00125 -1.807e-20 0.02625 0.00631644
0.02625 0 0.00356872 0.00609428
-0.02625 9.03502e-21 0.00356873 0.0065018
0.00375 0 0.02625 0.00627704
0.01875 3.61401e-20 0.01875 0.00615642
-0.00375 -1.807e-20 0.02625 0.00633564
-0.01875 3.61401e-20 0.01875 0.00644827
0.02 1.0842e-19 0.0175 0.0061462
0.0175 1.0842e-19 0.02 0.00616658
-0.0175 1.0842e-19 0.02 0.00643913
-0.02 1.0842e-19 0.0175 0.00645734
-0.026623 1.0842e-19 0 0.00650407
0.026623 0 0 0.00609047
0.02125 0 0.0162494 0.00613576
-0.02125 0 0.0162494 0.00646624
0.01625 0 0.02125 0.00617653
-0.01625 3.61401e-20 0.02125 0.00642981
0.025 1.0842e-19 0.00994629 0.00610477
-0.025 1.0842e-19 0.00994629 0.00649295
0.01 1.0842e-19 0.025 0.00622692
-0.01 1.0842e-19 0.025 0.00638311
0.02625 1.807e-20 0.00608215 0.00609411
-0.02625 9.03502e-21 0.00608215 0.00650166
0.00625 0 0.02625 0.00625683
-0.00625 3.61401e-20 0.02625 0.00635452
0.0225 1.0842e-19 0.0149988 0.00612527
-0.0225 1.0842e-19 0.0149988 0.00647507
0.015 1.0842e-19 0.0225 0.00618645
-0.015 1.0842e-19 0.0225 0.00642042
0.02375 0 0.0137433 0.00611455
-0.02375 -1.807e-20 0.0137433 0.00648374
-0.01375 0 0.02375 0.00641086
0.01375 3.61401e-20 0.02375 0.00619617
0.0275 2.1684e-19 0 0.00608235
-0.0275 1.0842e-19 0 0.00650977
-1.02402e-14 1.0842e-19 0.0275 0.00630578
-0.0275 1.0842e-19 0.00233887 0.00650986
0.0275 -1.0842e-19 0.00233887 0.00608254
0.0025 1.0842e-19 0.0275 0.00628605
-0.0025 1.0842e-19 0.0275 0.00632517
0.02625 3.61401e-20 0.008656 0.0060936
-0.02625 0 0.008656 0.00650133
0.00875 0 0.02625 0.00623626
-0.00875 3.61401e-20 0.02625 0.0063731
0.0275 1.0842e-19 0.00479858 0.00608265
-0.0275 1.0842e-19 0.00479858 0.00650987
0.025 1.0842e-19 0.0124878 0.00610374
-0.025 1.0842e-19 0.0124878 0.00649235
0.005 1.0842e-19 0.0275 0.00626598
-0.005 1.0842e-19 0.0275 0.00634424
0.0125 1.0842e-19 0.025 0.00620584
-0.0125 1.0842e-19 0.025 0.00640121
0.02 1.0842e-19 0.02 0.00614447
-0.02 1.0842e-19 0.02 0.00645628
0.01875 -1.807e-20 0.02125 0.0061546
-0.01875 -1.807e-20 0.02125 0.00644712
0.02125 0 0.01875 0.00613413
-0.02125 3.61401e-20 0.01875 0.00646527
0.028377 0 0 0.00607406
-0.028377 1.0842e-19 0 0.00651537
0.0275 1.0842e-19 0.00736572 0.0060823
-0.0275 1.0842e-19 0.00736572 0.00650963
0.0075 1.0842e-19 0.0275 0.00624556
-0.0075 1.0842e-19 0.0275 0.006363
0.0225 1.0842e-19 0.0175 0.00612374
0.0175 1.0842e-19 0.0225 0.00616467
-0.0175 1.0842e-19 0.0225 0.0064379
-0.0225 1.0842e-19 0.0175 0.00647419
-0.02625 3.61401e-20 0.011217 0.0065008
0.02625 3.61401e-20 0.011217 0.00609271
0.01125 0 0.02625 0.00621533
-0.01125 3.61401e-20 0.02625 0.00639137
0.02875 9.03502e-21 0.00116944 0.00607057
-0.02875 -9.03502e-21 0.00116944 0.00651778
-0.02375 3.61401e-20 0.0162494 0.00648293
0.02375 0 0.0162494 0.00611312
0.00125 3.61401e-20 0.02875 0.00629491
0.01625 3.61401e-20 0.02375 0.00617455
-0.01625 3.61401e-20 0.02375 0.00642849
-0.00125 3.61401e-20 0.02875 0.0063145
0.02875 9.03502e-21 0.00356872 0.0060709
-0.02875 1.807e-20 0.00356873 0.00651792
-0.00375 0 0.02875 0.00633376
0.00375 3.61401e-20 0.02875 0.00627498
-0.029123 5.42101e-20 0 0.00652016
0.029123 -1.0842e-19 0 0.00606701
0.025 1.0842e-19 0.0149988 0.00610244
-0.025 1.0842e-19 0.0149988 0.00649163
0.015 1.0842e-19 0.025 0.00618438
-0.015 1.0842e-19 0.025 0.00641901
0.0275 1.0842e-19 0.00994629 0.00608159
-0.0275 1.0842e-19 0.00994629 0.00650921
0.01 1.0842e-19 0.0275 0.00622478
-0.01 1.0842e-19 0.0275 0.00638145
-0.02875 1.807e-20 0.00608215 0.00651778
0.02875 3.61401e-20 0.00608215 0.00607074
0.00625 3.61401e-20 0.02875 0.0062547
-0.00625 1.807e-20 0.02875 0.0063527
-0.02625 -1.807e-20 0.0137433 0.00650015
0.02625 0 0.0137433 0.00609153
0.01375 3.61401e-20 0.02625 0.00619403
-0.01375 3.61401e-20 0.02625 0.00640934
0.03 -1.0842e-19 0 0.00605874
-0.03 1.0842e-19 0 0.00652577
-1.02403e-14 1.0842e-19 0.03 0.00630372
0.02875 0 0.008656 0.00607021
-0.02875 0 0.008656 0.00651745
-0.02125 0 0.02125 0.00646416
-0.00875 -1.807e-20 0.02875 0.00637133
0.02125 1.807e-20 0.02125 0.00613225
0.00875 3.61401e-20 0.02875 0.00623407
0.03 1.0842e-19 0.00233887 0.00605894
-0.03 1.0842e-19 0.00233887 0.00652585
0.02 1.0842e-19 0.0225 0.0061425
0.0225 1.0842e-19 0.02 0.00612196
0.0025 1.0842e-19 0.03 0.00628393
-0.0025 1.0842e-19 0.03 0.00632318
-0.02 1.0842e-19 0.0225 0.00645509
-0.0225 1.0842e-19 0.02 0.00647316
0.0275 1.0842e-19 0.0124878 0.00608053
-0.0275 1.0842e-19 0.0124878 0.00650863
0.0125 1.0842e-19 0.0275 0.00620363
-0.0125 1.0842e-19 0.0275 0.0063996
0.02375 -1.807e-20 0.01875 0.00611145
0.01875 0 0.02375 0.00615255
-0.01875 3.61401e-20 0.02375 0.00644584
-0.02375 3.61401e-20 0.01875 0.006482
0.03 1.0842e-19 0.00479858 0.00605906
-0.03 1.0842e-19 0.00479858 0.00652587
0.005 1.0842e-19 0.03 0.0062638
-0.005 1.0842e-19 0.03 0.00634231
0.025 1.0842e-19 0.0175 0.00610087
0.0175 1.0842e-19 0.025 0.00616255
-0.0175 1.0842e-19 0.025 0.00643652
-0.025 1.0842e-19 0.0175 0.00649077
-0.02875 0 0.011217 0.00651694
0.02875 1.807e-20 0.011217 0.00606929
0.02625 3.61401e-20 0.0162494 0.00609006
-0.02625 0 0.0162494 0.00649937
-0.01125 -1.807e-20 0.02875 0.00638966
0.01125 0 0.02875 0.00621306
0.01625 -1.807e-20 0.02625 0.00617235
-0.01625 0 0.02625 0.00642702
0.030877 0 0 0.0060503
-0.030877 1.0842e-19 0 0.00653129
0.03 1.0842e-19 0.00736572 0.00605871
-0.03 1.0842e-19 0.00736572 0.00652563
0.0075 1.0842e-19 0.03 0.00624331
-0.0075 1.0842e-19 0.03 0.00636112
0.03125 -1.807e-20 0.00116944 0.00604674
-0.03125 -1.807e-20 0.00116944 0.00653366
0.00125 0 0.03125 0.00629274
-0.00125 0 0.03125 0.00631239
0.0275 1.0842e-19 0.0149988 0.00607919
-0.0275 1.0842e-19 0.0149988 0.00650792
0.015 1.0842e-19 0.0275 0.00618211
-0.015 1.0842e-19 0.0275 0.00641745
0.03125 1.807e-20 0.00356873 0.0060471
-0.03125 -1.807e-20 0.00356873 0.00653379
0.00375 -1.807e-20 0.03125 0.00627275
-0.00375 3.61401e-20 0.03125 0.00633172
0.03 1.0842e-19 0.00994629 0.00605798
-0.03 1.0842e-19 0.00994629 0.00652521
0.01 1.0842e-19 0.03 0.00622246
-0.01 1.0842e-19 0.03 0.00637964
-0.031623 1.0842e-19 0 0.006536
0.031623 0 0 0.00604313
0.0225 1.0842e-19 0.0225 0.00611994
-0.0225 1.0842e-19 0.0225 0.00647201
0.03125 9.03502e-21 0.00608215 0.00604693
-0.03125 -1.807e-20 0.00608215 0.00653365
0.02875 3.61401e-20 0.0137433 0.00606809
-0.02875 -1.807e-20 0.0137433 0.00651631
0.00625 0 0.03125 0.0062524
-0.00625 3.61401e-20 0.03125 0.00635072
0.01375 -1.807e-20 0.02875 0.0061917
-0.01375 3.61401e-20 0.02875 0.00640769
0.02375 3.61401e-20 0.02125 0.00610952
0.02125 3.61401e-20 0.02375 0.00613015
-0.02125 3.61401e-20 0.02375 0.00646292
-0.02375 3.61401e-20 0.02125 0.00648093
0.025 1.0842e-19 0.02 0.00609904
0.02 1.0842e-19 0.025 0.00614032
-0.02 1.0842e-19 0.025 0.00645376
-0.025 1.0842e-19 0.02 0.00648978
-0.01875 3.61401e-20 0.02625 0.00644443
-0.02625 -1.807e-20 0.01875 0.00649846
0.02625 1.807e-20 0.01875 0.00608834
0.01875 0 0.02625 0.00615029
0.03125 3.61401e-20 0.008656 0.0060464
-0.03125 9.03502e-21 0.008656 0.00653333
0.00875 -1.807e-20 0.03125 0.0062317
-0.00875 0 0.03125 0.00636941
0.03 1.0842e-19 0.0124878 0.0060569
-0.03 1.0842e-19 0.0124878 0.00652465
0.0125 1.0842e-19 0.03 0.00620125
-0.0125 1.0842e-19 0.03 0.00639784
0.0325 1.0842e-19 0 0.0060347
-0.0325 1.0842e-19 0 0.00654152
-1.02402e-14 1.0842e-19 0.0325 0.00630151
0.0325 1.0842e-19 0.00233887 0.00603491
-0.0325 1.0842e-19 0.00233887 0.00654161
0.0275 1.0842e-19 0.0175 0.00607758
0.0025 1.0842e-19 0.0325 0.00628165
0.0175 1.0842e-19 0.0275 0.00616021
-0.0025 1.0842e-19 0.0325 0.00632103
-0.0175 1.0842e-19 0.0275 0.00643501
-0.0275 1.0842e-19 0.0175 0.00650709
0.0325 1.0842e-19 0.00479858 0.00603503
-0.0325 1.0842e-19 0.00479858 0.00654162
0.005 1.0842e-19 0.0325 0.00626144
-0.005 1.0842e-19 0.0325 0.00634023
-0.02875 0 0.0162494 0.00651556
0.02875 3.61401e-20 0.0162494 0.00606659
0.01625 0 0.02875 0.00616995
-0.01625 3.61401e-20 0.02875 0.00642543
0.03125 1.807e-20 0.011217 0.00604546
-0.03125 -1.807e-20 0.011217 0.00653283
0.01125 3.61401e-20 0.03125 0.00621063
-0.01125 0 0.03125 0.00638781
0.0325 1.0842e-19 0.00736572 0.00603468
-0.0325 1.0842e-19 0.00736572 0.00654138
0.0075 1.0842e-19 0.0325 0.00624088
-0.0075 1.0842e-19 0.0325 0.00635912
-0.033377 5.42101e-20 0 0.00654696
0.033377 -5.42101e-20 0 0.0060261
0.03 1.0842e-19 0.0149988 0.00605553
-0.03 1.0842e-19 0.0149988 0.00652397
0.015 1.0842e-19 0.03 0.00617966
-0.015 1.0842e-19 0.03 0.00641575
0.02375 -1.807e-20 0.02375 0.00610736
-0.02375 3.61401e-20 0.02375 0.00647973
0.025 1.0842e-19 0.0225 0.00609696
0.0225 1.0842e-19 0.025 0.00611769
-0.0225 1.0842e-19 0.025 0.00647073
-0.025 1.0842e-19 0.0225 0.00648866
0.03375 3.61401e-20 0.00116944 0.00602247
-0.03375 -9.03502e-21 0.00116944 0.00654929
0.00125 -1.807e-20 0.03375 0.00629043
0.02625 0 0.02125 0.00608636
0.02125 0 0.02625 0.00612783
-0.02125 3.61401e-20 0.02625 0.00646155
-0.02625 -1.807e-20 0.02125 0.00649743
-0.00125 0 0.03375 0.00631015
0.03375 -9.03502e-21 0.00356873 0.00602284
-0.03375 2.71051e-20 0.00356872 0.00654943
0.00375 0 0.03375 0.00627036
-0.00375 -1.807e-20 0.03375 0.00632956
0.0325 1.0842e-19 0.00994629 0.00603393
-0.0325 1.0842e-19 0.00994629 0.00654098
0.0275 1.0842e-19 0.02 0.0060757
0.02 1.0842e-19 0.0275 0.00613791
-0.02 1.0842e-19 0.0275 0.0064523
-0.0275 1.0842e-19 0.02 0.00650614
0.01 1.0842e-19 0.0325 0.00621996
-0.01 1.0842e-19 0.0325 0.00637769
0.034123 5.42101e-20 0 0.00601879
-0.034123 0 0 0.0065516
0.03125 3.61401e-20 0.0137433 0.00604422
-0.03125 3.61401e-20 0.0137433 0.00653223
-0.01375 0 0.03125 0.00640589
0.01375 3.61401e-20 0.03125 0.0061892
0.03375 0 0.00608215 0.00602268
-0.03375 -3.61401e-20 0.00608215 0.00654928
-0.01875 3.61401e-20 0.02875 0.00644288
0.02875 1.807e-20 0.01875 0.00606482
-0.02875 3.61401e-20 0.01875 0.00651468
0.00625 3.61401e-20 0.03375 0.00624993
-0.00625 3.61401e-20 0.03375 0.00634863
0.01875 3.61401e-20 0.02875 0.00614782
0.03 1.0842e-19 0.0175 0.00605387
0.0175 1.0842e-19 0.03 0.00615768
-0.0175 1.0842e-19 0.03 0.00643337
-0.03 1.0842e-19 0.0175 0.00652317
0.0325 1.0842e-19 0.0124878 0.00603283
-0.0325 1.0842e-19 0.0124878 0.00654043
0.0125 1.0842e-19 0.0325 0.00619867
-0.0125 1.0842e-19 0.0325 0.00639596
-0.03375 1.807e-20 0.008656 0.00654897
0.03375 0 0.008656 0.00602213
0.00875 0 0.03375 0.00622915
-0.00875 3.61401e-20 0.03375 0.00636739
-0.035 0 0 0.00655704
0.035 1.0842e-19 0 0.0060102
-1.02399e-14 1.0842e-19 0.035 0.0062992
-0.035 -1.0842e-19 0.00233887 0.00655712
0.035 1.0842e-19 0.00233887 0.00601042
0.0025 1.0842e-19 0.035 0.00627926
-0.0025 1.0842e-19 0.035 0.0063188
0.03125 0 0.0162494 0.00604269
-0.03125 -1.807e-20 0.0162494 0.00653149
-0.01625 -1.807e-20 0.03125 0.00642369
0.01625 -1.807e-20 0.03125 0.00616737
0.035 1.0842e-19 0.00479858 0.00601055
-0.035 1.0842e-19 0.00479858 0.00655713
0.025 1.0842e-19 0.025 0.00609465
0.005 1.0842e-19 0.035 0.00625897
-0.005 1.0842e-19 0.035 0.00633807
-0.025 1.0842e-19 0.025 0.00648742
0.02625 -1.807e-20 0.02375 0.00608414
0.02375 -1.807e-20 0.02625 0.00610497
-0.02375 -1.807e-20 0.02625 0.00647841
-0.02625 0 0.02375 0.00649627
0.0275 1.0842e-19 0.0225 0.00607357
0.0225 1.0842e-19 0.0275 0.00611522
-0.0225 1.0842e-19 0.0275 0.00646932
-0.0275 1.0842e-19 0.0225 0.00650506
-0.03375 -1.807e-20 0.011217 0.00654849
0.03375 0 0.011217 0.00602118
0.01125 0 0.03375 0.006208
-0.01125 -1.807e-20 0.03375 0.00638585
0.02875 -1.807e-20 0.02125 0.00606278
0.02125 0 0.02875 0.00612528
-0.02125 0 0.02875 0.00646006
-0.02875 0 0.02125 0.00651368
0.035 1.0842e-19 0.00736572 0.00601019
-0.035 1.0842e-19 0.00736572 0.0065569
0.0325 1.0842e-19 0.0149988 0.00603142
-0.0325 1.0842e-19 0.0149988 0.00653977
0.015 1.0842e-19 0.0325 0.00617701
-0.015 1.0842e-19 0.0325 0.00641393
0.0075 1.0842e-19 0.035 0.00623833
-0.0075 1.0842e-19 0.035 0.00635702
-0.035877 1.6263e-19 0 0.0065624
0.035877 0 0 0.00600144
0.03 1.0842e-19 0.02 0.00605194
0.02 1.0842e-19 0.03 0.00613531
-0.02 1.0842e-19 0.03 0.00645072
-0.03 1.0842e-19 0.02 0.00652225
0.03625 0 0.00116944 0.00599774
-0.03625 -1.807e-20 0.00116944 0.00656469
0.00125 3.61401e-20 0.03625 0.00628804
-0.00125 0 0.03625 0.00630785
0.035 1.0842e-19 0.00994629 0.00600943
-0.035 1.0842e-19 0.00994629 0.0065565
0.01 1.0842e-19 0.035 0.00621733
-0.01 1.0842e-19 0.035 0.00637566
0.03625 0 0.00356873 0.00599812
-0.03625 -9.03502e-21 0.00356872 0.00656482
0.03375 0 0.0137433 0.00601991
-0.03375 0 0.0137433 0.00654789
-0.01875 3.61401e-20 0.03125 0.0064412
0.03125 1.807e-20 0.01875 0.00604086
0.01875 0 0.03125 0.00614516
-0.03125 0 0.01875 0.00653065
0.01375 -1.807e-20 0.03375 0.00618649
-0.01375 0 0.03375 0.006404
0.00375 0 0.03625 0.0062679
-0.00375 3.61401e-20 0.03625 0.00632733
0.036623 -1.0842e-19 0 0.00599399
-0.036623 5.42101e-20 0 0.00656697
0.03625 3.61401e-20 0.00608215 0.00599796
-0.03625 -3.61401e-20 0.00608215 0.00656468
-0.00625 0 0.03625 0.00634647
0.00625 3.61401e-20 0.03625 0.00624739
0.0325 1.0842e-19 0.0175 0.00602972
0.0175 1.0842e-19 0.0325 0.00615495
-0.0175 1.0842e-19 0.0325 0.00643161
-0.0325 1.0842e-19 0.0175 0.00653899
-0.02625 -1.807e-20 0.02625 0.00649499
0.02625 -1.807e-20 0.02625 0.00608168
0.035 1.0842e-19 0.0124878 0.00600831
-0.035 1.0842e-19 0.0124878 0.00655597
0.025 1.0842e-19 0.0275 0.00609211
0.0275 1.0842e-19 0.025 0.00607119
0.0125 1.0842e-19 0.035 0.00619596
-0.0125 1.0842e-19 0.035 0.006394
-0.025 1.0842e-19 0.0275 0.00648606
-0.0275 1.0842e-19 0.025 0.00650386
-0.03625 1.807e-20 0.008656 0.00656437
0.03625 3.61401e-20 0.008656 0.00599741
0.02375 -1.807e-20 0.02875 0.00610234
-0.02875 0 0.02375 0.00651256
0.02875 0 0.02375 0.0060605
-0.02375 0 0.02875 0.00647696
0.00875 3.61401e-20 0.03625 0.00622652
-0.00875 3.61401e-20 0.03625 0.00636531
0.03375 -1.807e-20 0.0162494 0.00601834
-0.03375 -1.807e-20 0.0162494 0.00654718
0.01625 0 0.03375 0.00616459
-0.01625 0 0.03375 0.00642186
0.0375 -1.0842e-19 0 0.00598523
-0.0375 1.0842e-19 0 0.00657233
0.03 1.0842e-19 0.0225 0.00604974
0.0225 1.0842e-19 0.03 0.00611254
-1.02397e-14 1.0842e-19 0.0375 0.00629677
-0.0225 1.0842e-19 0.03 0.00646778
-0.03 1.0842e-19 0.0225 0.0065212
0.0375 1.0842e-19 0.00233887 0.00598546
-0.0375 0 0.00233887 0.00657241
0.0025 1.0842e-19 0.0375 0.00627676
-0.0025 1.0842e-19 0.0375 0.00631645
-0.03125 -1.807e-20 0.02125 0.00652968
-0.02125 3.61401e-20 0.03125 0.00645843
0.03125 -1.807e-20 0.02125 0.00603877
0.02125 -1.807e-20 0.03125 0.00612256
0.0375 1.0842e-19 0.00479858 0.0059856
-0.0375 -1.0842e-19 0.00479858 0.00657241
0.005 1.0842e-19 0.0375 0.0062564
-0.005 1.0842e-19 0.0375 0.0063358
0.03625 0 0.011217 0.00599644
-0.03625 -1.807e-20 0.011217 0.0065639
0.01125 3.61401e-20 0.03625 0.0062053
-0.01125 0 0.03625 0.00638384
0.035 1.0842e-19 0.0149988 0.00600687
-0.035 1.0842e-19 0.0149988 0.00655533
0.015 1.0842e-19 0.035 0.00617421
-0.015 1.0842e-19 0.035 0.00641203
0.0325 1.0842e-19 0.02 0.00602774
0.02 1.0842e-19 0.0325 0.0061325
-0.02 1.0842e-19 0.0325 0.00644901
-0.0325 1.0842e-19 0.02 0.0065381
0.0375 1.0842e-19 0.00736572 0.00598524
-0.0375 1.0842e-19 0.00736572 0.00657218
0.0075 1.0842e-19 0.0375 0.00623567
-0.0075 1.0842e-19 0.0375 0.00635482
-0.038377 -1.0842e-19 0 0.0065776
0.038377 -1.0842e-19 0 0.00597629
0.01875 -1.807e-20 0.03375 0.0061423
0.03375 0 0.01875 0.00601647
-0.01875 0 0.03375 0.00643942
-0.03375 0 0.01875 0.00654636