# pMean  POINT_DATA 34437
# x  y  z  pMean
-8.07264e-09 0 0 0.00640817
0.000876982 0 0 0.0064016
-0.000876992 -5.42101e-20 0 0.00641461
0.001623 1.0842e-19 0 0.00639602
-0.00162301 -5.42101e-20 0 0.0064201
0.00124999 3.61401e-20 0.00116944 0.00639883
-0.00125 2.71051e-20 0.00116944 0.00641738
-6.79893e-10 0 0.00233887 0.00640831
0.00249999 1.0842e-19 0 0.00638949
-0.00249999 0 0 0.00642655
-0.00337698 0 0 0.00643287
0.00337699 1.0842e-19 0 0.00638283
0.0025 0 0.00233887 0.00638964
-0.0025 -1.0842e-19 0.00233887 0.00642668
-0.00125 1.807e-20 0.00356872 0.00641759
0.00125 0 0.00356872 0.00639909
-0.00375 0 0.00116943 0.00643559
0.00375 3.61401e-20 0.00116943 0.00638001
-0.004123 -5.42101e-20 0 0.00643828
0.00412301 -5.42101e-20 0 0.00637716
4.48412e-10 -1.0842e-19 0.00479858 0.00640838
-0.00499999 -1.0842e-19 0 0.00644464
0.00500001 0 0 0.00637052
-0.00375 0 0.00356872 0.00643579
0.00375 9.03502e-21 0.00356872 0.00638025
0.0025 -1.0842e-19 0.00479858 0.00638971
-0.0025 -1.0842e-19 0.00479858 0.00642671
-0.005 1.0842e-19 0.00233887 0.00644475
0.005 -1.0842e-19 0.00233887 0.00637065
-0.00587699 -1.0842e-19 0 0.00645087
0.00587701 0 0 0.00636375
-0.00125 0 0.00608215 0.00641743
0.00125 0 0.00608215 0.00639894
-0.00625 9.03502e-21 0.00116943 0.00645355
0.00625001 -4.51751e-20 0.00116944 0.00636088
-0.006623 5.42101e-20 0 0.0064562
0.00662301 -5.42101e-20 0 0.00635797
0.005 1.0842e-19 0.00479858 0.00637068
-0.005 -1.0842e-19 0.00479858 0.00644477
-0.00375 0 0.00608215 0.00643562
0.00375 -1.807e-20 0.00608215 0.00638007
-0.00625 9.03502e-21 0.00356872 0.00645372
0.00625 -2.71051e-20 0.00356872 0.00636107
3.68934e-10 1.0842e-19 0.00736572 0.00640806
-0.00750001 1.0842e-19 0 0.00646245
0.00750002 1.0842e-19 0 0.00635118
0.0025 1.0842e-19 0.00736572 0.00638938
-0.0025 1.0842e-19 0.00736572 0.00642641
-0.0075 1.0842e-19 0.00233887 0.00646255
0.00750001 1.0842e-19 0.00233887 0.00635129
-0.00837701 0 0 0.00646858
0.00837702 -5.42101e-20 0 0.00634425
-0.00625 0 0.00608215 0.00645355
0.00625 3.61401e-20 0.00608215 0.00636085
-0.00125 3.61401e-20 0.008656 0.00641699
0.00125 -1.807e-20 0.008656 0.00639846
-0.00875 9.03502e-21 0.00116944 0.00647121
0.00875001 1.807e-20 0.00116944 0.00634131
0.005 1.0842e-19 0.00736572 0.00637033
-0.005 1.0842e-19 0.00736572 0.00644447
0.0075 1.0842e-19 0.00479858 0.00635129
-0.0075 1.0842e-19 0.00479858 0.00646256
-0.009123 0 0 0.00647382
0.009123 1.0842e-19 0 0.00633834
0.00375 1.807e-20 0.008656 0.00637959
-0.00375 0 0.008656 0.00643519
-0.00875 -9.03502e-21 0.00356873 0.00647136
0.00875 1.807e-20 0.00356873 0.00634148
1.46183e-10 1.0842e-19 0.00994629 0.00640745
0.01 1.0842e-19 0 0.00633141
-0.01 -1.0842e-19 0 0.00647995
0.0025 1.0842e-19 0.00994629 0.00638874
-0.0025 1.0842e-19 0.00994629 0.00642582
0.01 1.0842e-19 0.00233887 0.00633152
-0.01 -1.0842e-19 0.00233887 0.00648004
0.0075 1.0842e-19 0.00736572 0.00635092
-0.0075 1.0842e-19 0.00736572 0.00646225
-0.00875 2.71051e-20 0.00608215 0.00647118
0.00875 9.03502e-21 0.00608215 0.00634126
0.00625 -1.807e-20 0.008656 0.00636035
-0.00625 9.03502e-21 0.008656 0.00645313
0.010877 5.42101e-20 0 0.00632433
-0.010877 1.0842e-19 0 0.00648598
0.01 1.0842e-19 0.00479858 0.00633152
-0.01 1.0842e-19 0.00479858 0.00648003
0.005 1.0842e-19 0.00994629 0.00636968
-0.005 1.0842e-19 0.00994629 0.0064439
-0.00125 0 0.011217 0.00641623
0.00125 1.807e-20 0.011217 0.0063977
-0.01125 2.71051e-20 0.00116944 0.00648855
0.01125 -7.22801e-20 0.00116944 0.00632133
-0.011623 -1.0842e-19 0 0.0064911
0.011623 5.42101e-20 0 0.0063183
-0.01125 0 0.00356873 0.00648869
0.01125 3.61401e-20 0.00356873 0.00632152
0.00375 3.61401e-20 0.011217 0.0063788
-0.00375 3.61401e-20 0.011217 0.00643447
0.00875 3.61401e-20 0.008656 0.00634076
-0.00875 3.61401e-20 0.00865601 0.00647076
0.01 1.0842e-19 0.00736572 0.00633116
-0.01 1.0842e-19 0.00736572 0.00647972
0.0075 1.0842e-19 0.00994629 0.00635025
-0.0075 1.0842e-19 0.00994629 0.00646169
3.19516e-11 1.0842e-19 0.0124878 0.00640659
0.0125 1.0842e-19 0 0.00631124
-0.0125 -1.0842e-19 0 0.00649711
0.0125 1.0842e-19 0.00233887 0.00631136
-0.0125 0 0.00233887 0.0064972
0.0025 1.0842e-19 0.0124878 0.00638787
-0.0025 1.0842e-19 0.0124878 0.00642498
-0.01125 -9.03502e-21 0.00608215 0.0064885
0.01125 -1.807e-20 0.00608215 0.00632131
0.00625 -1.807e-20 0.011217 0.00635954
-0.00625 1.807e-20 0.011217 0.00645242
0.013377 5.42101e-20 0 0.00630402
-0.013377 0 0 0.006503
0.0125 1.0842e-19 0.00479858 0.00631138
-0.0125 1.0842e-19 0.00479858 0.00649719
0.005 1.0842e-19 0.0124878 0.00636878
-0.005 1.0842e-19 0.0124878 0.00644309
-0.01375 0 0.00116944 0.00650553
0.01375 -1.807e-20 0.00116944 0.00630097
-0.00125 -1.807e-20 0.0137433 0.0064153
0.00125 -3.61401e-20 0.0137433 0.00639674
0.01 1.0842e-19 0.00994629 0.00633047
-0.01 1.0842e-19 0.00994629 0.00647917
-0.014123 1.6263e-19 0 0.00650803
0.014123 5.42101e-20 0 0.00629788
-0.01125 3.61401e-20 0.008656 0.00648808
0.01125 0 0.008656 0.0063208
-0.01375 0 0.00356873 0.00650569
0.01375 3.61401e-20 0.00356873 0.00630119
-0.00875 0 0.011217 0.00647006
0.00875 3.61401e-20 0.011217 0.00633993
0.00375 -1.807e-20 0.0137433 0.00637782
-0.00375 -1.807e-20 0.0137433 0.00643355
0.0125 1.0842e-19 0.00736572 0.00631101
-0.0125 1.0842e-19 0.00736572 0.00649689
0.0075 1.0842e-19 0.0124878 0.00634933
-0.0075 1.0842e-19 0.0124878 0.0064609
3.04086e-12 1.0842e-19 0.0149988 0.00640555
0.015 1.0842e-19 0 0.00629068
-0.015 -1.0842e-19 0 0.00651393
0.01375 0 0.00608215 0.00630098
-0.01375 -2.71051e-20 0.00608215 0.00650551
0.00625 0 0.0137433 0.00635853
-0.00625 -1.807e-20 0.0137433 0.00645153
0.015 1.0842e-19 0.00233887 0.00629082
-0.015 -1.0842e-19 0.00233887 0.00651403
0.0025 1.0842e-19 0.0149988 0.0063868
-0.0025 1.0842e-19 0.0149988 0.00642397
0.015 1.0842e-19 0.00479858 0.00629085
-0.015 -1.0842e-19 0.00479858 0.00651404
0.005 1.0842e-19 0.0149988 0.00636767
-0.005 1.0842e-19 0.0149988 0.0064421
0.015877 5.42101e-20 0 0.00628332
-0.015877 1.6263e-19 0 0.00651972
0.01125 0 0.011217 0.00631995
-0.01125 0 0.011217 0.00648741
0.0125 1.0842e-19 0.00994629 0.00631032
-0.0125 1.0842e-19 0.00994629 0.00649634
0.01 1.0842e-19 0.0124878 0.00632951
-0.01 1.0842e-19 0.0124878 0.0064784
0.01375 0 0.008656 0.00630046
-0.01375 0 0.00865601 0.0065051
-0.01625 0 0.00116944 0.00652221
0.01625 1.807e-20 0.00116944 0.00628021
0.00875 -1.807e-20 0.0137433 0.00633888
-0.00875 3.61401e-20 0.0137433 0.00646921
-0.00125 3.61401e-20 0.0162494 0.00641419
0.00125 0 0.0162494 0.00639559
-0.016623 0 0 0.00652467
0.016623 -5.42101e-20 0 0.00627706
0.01625 1.807e-20 0.00356873 0.00628046
-0.01625 9.03502e-21 0.00356873 0.00652238
0.00375 0 0.0162494 0.00637662
-0.00375 3.61401e-20 0.0162494 0.00643248
0.015 1.0842e-19 0.00736572 0.00629048
-0.015 1.0842e-19 0.00736572 0.00651375
0.0075 1.0842e-19 0.0149988 0.00634818
-0.0075 1.0842e-19 0.0149988 0.00645994
0.01625 -1.807e-20 0.00608215 0.00628026
-0.01625 9.03502e-21 0.00608215 0.00652222
0.00625 3.61401e-20 0.0162494 0.00635729
-0.00625 0 0.0162494 0.00645048
0.0175 1.0842e-19 0 0.00626973
-0.0175 -1.0842e-19 0 0.00653048
-1.024e-14 1.0842e-19 0.0175 0.00640433
0.0175 1.0842e-19 0.00233887 0.00626988
-0.0175 -1.0842e-19 0.00233887 0.00653058
0.0125 1.0842e-19 0.0124878 0.00630933
-0.0125 1.0842e-19 0.0124878 0.00649559
0.0025 1.0842e-19 0.0175 0.00638553
-0.0025 1.0842e-19 0.0175 0.0064228
0.01375 3.61401e-20 0.011217 0.00629959
-0.01375 1.807e-20 0.011217 0.00650443
-0.01125 -1.807e-20 0.0137433 0.00648656
0.01125 3.61401e-20 0.0137433 0.00631887
0.015 1.0842e-19 0.00994629 0.00628977
-0.015 1.0842e-19 0.00994629 0.00651322
0.01 1.0842e-19 0.0149988 0.00632834
-0.01 1.0842e-19 0.0149988 0.00647747
0.0175 1.0842e-19 0.00479858 0.00626993
-0.0175 1.0842e-19 0.00479858 0.0065306
0.005 1.0842e-19 0.0175 0.00636636
-0.005 1.0842e-19 0.0175 0.00644096
0.018377 -5.42101e-20 0 0.00626224
-0.018377 -5.42101e-20 0 0.00653618
0.01625 1.807e-20 0.008656 0.00627972
-0.01625 3.61401e-20 0.00865601 0.00652183
0.00875 3.61401e-20 0.0162494 0.00633761
-0.00875 0 0.0162494 0.0064682
-0.01875 9.03502e-21 0.00116944 0.00653863
0.01875 -1.807e-20 0.00116944 0.00625907
0.00125 0 0.01875 0.00639424
-0.00125 -1.807e-20 0.01875 0.0064129
0.0175 1.0842e-19 0.00736572 0.00626956
-0.0175 1.0842e-19 0.00736572 0.00653032
0.0075 1.0842e-19 0.0175 0.00634684
-0.0075 1.0842e-19 0.0175 0.00645883
0.01875 -9.03502e-21 0.00356873 0.00625934
-0.01875 9.03502e-21 0.00356873 0.00653879
-0.00375 0 0.01875 0.00643124
0.00375 3.61401e-20 0.01875 0.00637524
-0.019123 5.42101e-20 0 0.00654105
0.019123 0 0 0.00625586
0.01375 3.61401e-20 0.0137433 0.00629847
-0.01375 0 0.0137433 0.00650362
0.015 1.0842e-19 0.0124878 0.00628876
-0.015 1.0842e-19 0.0124878 0.00651249
0.0125 1.0842e-19 0.0149988 0.00630812
-0.0125 1.0842e-19 0.0149988 0.00649469
0.01875 0 0.00608215 0.00625913
-0.01875 3.61401e-20 0.00608215 0.00653863
0.01625 0 0.011217 0.00627884
-0.01625 -1.807e-20 0.011217 0.00652118
-0.01125 0 0.0162494 0.00648558
0.01125 3.61401e-20 0.0162494 0.00631757
0.00625 0 0.01875 0.00635587
-0.00625 -1.807e-20 0.01875 0.00644928
0.02 0 0 0.00624839
-0.02 1.0842e-19 0 0.00654677
-1.02401e-14 1.0842e-19 0.02 0.00640293
0.0175 1.0842e-19 0.00994629 0.00626884
-0.0175 1.0842e-19 0.00994629 0.00652981
0.02 1.0842e-19 0.00233887 0.00624855
-0.02 0 0.00233887 0.00654687
0.01 1.0842e-19 0.0175 0.00632695
0.0025 1.0842e-19 0.02 0.00638407
-0.0025 1.0842e-19 0.02 0.00642145
-0.01 1.0842e-19 0.0175 0.0064764
0.02 1.0842e-19 0.00479858 0.00624861
-0.02 1.0842e-19 0.00479858 0.00654688
0.005 1.0842e-19 0.02 0.00636487
-0.005 1.0842e-19 0.02 0.00643966
0.01875 1.807e-20 0.008656 0.0062586
-0.01875 0 0.008656 0.00653826
0.00875 1.807e-20 0.01875 0.00633615
-0.00875 0 0.01875 0.00646703
0.020877 1.6263e-19 0 0.00624076
-0.020877 -1.0842e-19 0 0.00655238
0.015 1.0842e-19 0.0149988 0.00628752
-0.015 1.0842e-19 0.0149988 0.00651162
-0.02125 1.807e-20 0.00116944 0.0065548
0.02125 1.807e-20 0.00116944 0.00623753
0.01625 -1.807e-20 0.0137433 0.00627769
-0.01625 -1.807e-20 0.0137433 0.00652039
0.01375 3.61401e-20 0.0162494 0.00629713
-0.01375 0 0.0162494 0.00650266
0.00125 0 0.02125 0.00639273
-0.00125 0 0.02125 0.00641144
0.02 1.0842e-19 0.00736572 0.00624823
-0.02 1.0842e-19 0.00736572 0.00654662
0.0075 1.0842e-19 0.02 0.0063453
-0.0075 1.0842e-19 0.02 0.00645757
0.0175 1.0842e-19 0.0124878 0.0062678
-0.0175 1.0842e-19 0.0124878 0.0065291
0.0125 1.0842e-19 0.0175 0.00630669
-0.0125 1.0842e-19 0.0175 0.00649365
0.02125 0 0.00356872 0.0062378
-0.02125 -1.807e-20 0.00356873 0.00655496
-0.00375 3.61401e-20 0.02125 0.00642983
0.00375 -1.807e-20 0.02125 0.00637368
-0.021623 0 0 0.00655718
0.021623 -5.42101e-20 0 0.00623426
0.01875 1.807e-20 0.011217 0.00625769
-0.01875 3.61401e-20 0.011217 0.00653764
0.01125 0 0.01875 0.00631606
-0.01125 -1.807e-20 0.01875 0.00648445
0.02125 0 0.00608215 0.0062376
-0.02125 0 0.00608215 0.00655479
0.00625 -1.807e-20 0.02125 0.00635427
-0.00625 3.61401e-20 0.02125 0.00644792
0.02 1.0842e-19 0.00994629 0.00624749
-0.02 1.0842e-19 0.00994629 0.00654612
0.01 1.0842e-19 0.02 0.00632537
-0.01 1.0842e-19 0.02 0.00647516
0.0225 0 0 0.00622664
-0.0225 -1.0842e-19 0 0.00656281
-1.02402e-14 1.0842e-19 0.0225 0.00640135
0.0225 -1.0842e-19 0.00233887 0.0062268
-0.0225 1.0842e-19 0.00233887 0.0065629
0.0025 1.0842e-19 0.0225 0.00638244
-0.0025 1.0842e-19 0.0225 0.00641993
0.02125 0 0.008656 0.00623705
-0.02125 0 0.008656 0.00655442
0.01625 0 0.0162494 0.00627632
-0.01625 0 0.0162494 0.00651946
-0.00875 -1.807e-20 0.02125 0.00646569
0.00875 0 0.02125 0.00633449
0.0225 1.0842e-19 0.00479858 0.00622687
-0.0225 1.0842e-19 0.00479858 0.00656291
0.0175 1.0842e-19 0.0149988 0.00626652
-0.0175 1.0842e-19 0.0149988 0.00652826
0.005 1.0842e-19 0.0225 0.00636319
-0.005 1.0842e-19 0.0225 0.00643819
0.015 1.0842e-19 0.0175 0.00628605
-0.015 1.0842e-19 0.0175 0.00651061
-0.01875 0 0.0137433 0.00653687
0.01875 0 0.0137433 0.00625652
-0.01375 0 0.01875 0.00650157
0.01375 -1.807e-20 0.01875 0.00629558
0.023377 -5.42101e-20 0 0.00621884
-0.023377 -1.6263e-19 0 0.00656834
0.02 1.0842e-19 0.0124878 0.00624643
-0.02 1.0842e-19 0.0124878 0.00654543
0.0125 1.0842e-19 0.02 0.00630506
-0.0125 1.0842e-19 0.02 0.00649246
0.0225 1.0842e-19 0.00736572 0.00622648
-0.0225 1.0842e-19 0.00736572 0.00656264
0.0075 1.0842e-19 0.0225 0.00634357
-0.0075 1.0842e-19 0.0225 0.00645614
0.02375 0 0.00116944 0.00621556
-0.02375 0 0.00116944 0.00657071
0.00125 3.61401e-20 0.02375 0.00639104
-0.00125 0 0.02375 0.00640981
0.02375 0 0.00356872 0.00621584
-0.02375 9.03502e-21 0.00356873 0.00657085
0.02125 0 0.011217 0.00623613
-0.02125 1.807e-20 0.011217 0.00655381
0.01125 0 0.02125 0.00631435
-0.01125 0 0.02125 0.00648315
0.00375 3.61401e-20 0.02375 0.00637193
-0.00375 -1.807e-20 0.02375 0.00642826
-0.024123 1.0842e-19 0 0.00657305
0.024123 -5.42101e-20 0 0.00621222
0.02375 0 0.00608215 0.00621565
-0.02375 0 0.00608215 0.00657068
0.00625 -1.807e-20 0.02375 0.00635247
-0.00625 3.61401e-20 0.02375 0.00644639
0.0225 1.0842e-19 0.00994629 0.00622573
-0.0225 1.0842e-19 0.00994629 0.00656215
0.01 1.0842e-19 0.0225 0.00632359
-0.01 1.0842e-19 0.0225 0.00647378
0.0175 1.0842e-19 0.0175 0.00626502
-0.0175 1.0842e-19 0.0175 0.00652727
0.01875 0 0.0162494 0.00625509
-0.01875 -1.807e-20 0.0162494 0.00653597
-0.01625 3.61401e-20 0.01875 0.00651839
0.01625 3.61401e-20 0.01875 0.00627472
0.02 1.0842e-19 0.0149988 0.00624512
-0.02 1.0842e-19 0.0149988 0.00654461
0.015 1.0842e-19 0.02 0.00628437
-0.015 1.0842e-19 0.02 0.00650945
0.025 0 0 0.00620445
-0.025 1.0842e-19 0 0.00657856
-1.02401e-14 1.0842e-19 0.025 0.0063996
0.025 -1.0842e-19 0.00233887 0.00620462
-0.025 1.0842e-19 0.00233887 0.00657865
0.0025 1.0842e-19 0.025 0.00638064
-0.0025 1.0842e-19 0.025 0.00641823
-0.02375 1.807e-20 0.008656 0.00657033
0.02375 0 0.00865601 0.00621509
0.02125 0 0.0137433 0.00623493
-0.02125 3.61401e-20 0.0137433 0.00655308
0.01375 3.61401e-20 0.02125 0.00629383
-0.00875 0 0.02375 0.00646421
0.00875 0 0.02375 0.00633265
-0.01375 -1.807e-20 0.02125 0.00650033
0.025 1.0842e-19 0.00479858 0.0062047
-0.025 1.0842e-19 0.00479858 0.00657866
0.005 1.0842e-19 0.025 0.00636133
-0.005 1.0842e-19 0.025 0.00643655
0.0225 1.0842e-19 0.0124878 0.00622465
-0.0225 1.0842e-19 0.0124878 0.00656148
0.0125 1.0842e-19 0.0225 0.00630323
-0.0125 1.0842e-19 0.0225 0.00649112
0.025877 0 0 0.0061965
-0.025877 1.0842e-19 0 0.00658398
0.025 1.0842e-19 0.00736572 0.00620431
-0.025 1.0842e-19 0.00736572 0.0065784
0.0075 1.0842e-19 0.025 0.00634165
-0.0075 1.0842e-19 0.025 0.00645455
0.02375 -1.807e-20 0.011217 0.00621414
-0.02375 3.61401e-20 0.011217 0.00656974
0.02625 0 0.00116944 0.00619315
-0.02625 0 0.00116944 0.00658631
0.00125 -1.807e-20 0.02625 0.00638918
0.01125 -1.807e-20 0.02375 0.00631244
-0.01125 3.61401e-20 0.02375 0.00648172
-0.00125 -1.807e-20 0.02625 0.00640801
0.02625 0 0.00356872 0.00619345
-0.02625 9.03502e-21 0.00356873 0.00658645
0.00375 0 0.02625 0.00637002
0.01875 3.61401e-20 0.01875 0.00625346
-0.00375 -1.807e-20 0.02625 0.00642651
-0.01875 3.61401e-20 0.01875 0.00653495
0.02 1.0842e-19 0.0175 0.00624357
0.0175 1.0842e-19 0.02 0.00626329
-0.0175 1.0842e-19 0.02 0.00652616
-0.02 1.0842e-19 0.0175 0.00654366
-0.026623 1.0842e-19 0 0.00658861
0.026623 0 0 0.00618975
0.02125 0 0.0162494 0.00623347
-0.02125 0 0.0162494 0.0065522
0.01625 0 0.02125 0.00627292
-0.01625 3.61401e-20 0.02125 0.0065172
0.025 1.0842e-19 0.00994629 0.00620354
-0.025 1.0842e-19 0.00994629 0.00657792
0.01 1.0842e-19 0.025 0.00632161
-0.01 1.0842e-19 0.025 0.00647225
0.02625 1.807e-20 0.00608215 0.00619326
-0.02625 9.03502e-21 0.00608215 0.0065863
0.00625 0 0.02625 0.0063505
-0.00625 3.61401e-20 0.02625 0.00644469
0.0225 1.0842e-19 0.0149988 0.00622331
-0.0225 1.0842e-19 0.0149988 0.00656069
0.015 1.0842e-19 0.0225 0.00628248
-0.015 1.0842e-19 0.0225 0.00650816
0.02375 0 0.0137433 0.00621291
-0.02375 -1.807e-20 0.0137433 0.00656901
-0.01375 0 0.02375 0.00649894
0.01375 3.61401e-20 0.02375 0.00629186
0.0275 2.1684e-19 0 0.00618183
-0.0275 1.0842e-19 0 0.00659404
-1.02402e-14 1.0842e-19 0.0275 0.00639768
-0.0275 1.0842e-19 0.00233887 0.00659413
0.0275 -1.0842e-19 0.00233887 0.00618201
0.0025 1.0842e-19 0.0275 0.00637866
-0.0025 1.0842e-19 0.0275 0.00641639
0.02625 3.61401e-20 0.008656 0.00619268
-0.02625 0 0.008656 0.00658595
0.00875 0 0.02625 0.0063306
-0.00875 3.61401e-20 0.02625 0.00646257
0.0275 1.0842e-19 0.00479858 0.00618209
-0.0275 1.0842e-19 0.00479858 0.00659415
0.025 1.0842e-19 0.0124878 0.00620244
-0.025 1.0842e-19 0.0124878 0.00657727
0.005 1.0842e-19 0.0275 0.00635929
-0.005 1.0842e-19 0.0275 0.00643476
0.0125 1.0842e-19 0.025 0.00630119
-0.0125 1.0842e-19 0.025 0.00648963
0.02 1.0842e-19 0.02 0.0062418
-0.02 1.0842e-19 0.02 0.00654258
0.01875 -1.807e-20 0.02125 0.0062516
-0.01875 -1.807e-20 0.02125 0.00653378
0.02125 0 0.01875 0.00623179
-0.02125 3.61401e-20 0.01875 0.0065512
0.028377 0 0 0.00617373
-0.028377 1.0842e-19 0 0.00659937
0.0275 1.0842e-19 0.00736572 0.0061817
-0.0275 1.0842e-19 0.00736572 0.00659389
0.0075 1.0842e-19 0.0275 0.00633955
-0.0075 1.0842e-19 0.0275 0.00645281
0.0225 1.0842e-19 0.0175 0.00622172
0.0175 1.0842e-19 0.0225 0.00626134
-0.0175 1.0842e-19 0.0225 0.0065249
-0.0225 1.0842e-19 0.0175 0.00655977
-0.02625 3.61401e-20 0.011217 0.00658537
0.02625 3.61401e-20 0.011217 0.00619172
0.01125 0 0.02625 0.00631034
-0.01125 3.61401e-20 0.02625 0.00648014
0.02875 9.03502e-21 0.00116944 0.00617032
-0.02875 -9.03502e-21 0.00116944 0.00660167
-0.02375 3.61401e-20 0.0162494 0.00656816
0.02375 0 0.0162494 0.00621143
0.00125 3.61401e-20 0.02875 0.00638714
0.01625 3.61401e-20 0.02375 0.00627089
-0.01625 3.61401e-20 0.02375 0.00651585
-0.00125 3.61401e-20 0.02875 0.00640605
0.02875 9.03502e-21 0.00356872 0.00617062
-0.02875 1.807e-20 0.00356873 0.00660181
-0.00375 0 0.02875 0.00642462
0.00375 3.61401e-20 0.02875 0.00636792
-0.029123 5.42101e-20 0 0.00660393
0.029123 -1.0842e-19 0 0.00616685
0.025 1.0842e-19 0.0149988 0.00620106
-0.025 1.0842e-19 0.0149988 0.0065765
0.015 1.0842e-19 0.025 0.00628038
-0.015 1.0842e-19 0.025 0.00650672
0.0275 1.0842e-19 0.00994629 0.00618092
-0.0275 1.0842e-19 0.00994629 0.00659342
0.01 1.0842e-19 0.0275 0.00631944
-0.01 1.0842e-19 0.0275 0.00647056
-0.02875 1.807e-20 0.00608215 0.00660168
0.02875 3.61401e-20 0.00608215 0.00617042
0.00625 3.61401e-20 0.02875 0.00634833
-0.00625 1.807e-20 0.02875 0.00644286
-0.02625 -1.807e-20 0.0137433 0.00658467
0.02625 0 0.0137433 0.00619047
0.01375 3.61401e-20 0.02625 0.0062897
-0.01375 3.61401e-20 0.02625 0.0064974
0.03 -1.0842e-19 0 0.00615878
-0.03 1.0842e-19 0 0.00660929
-1.02403e-14 1.0842e-19 0.03 0.00639561
0.02875 0 0.008656 0.00616985
-0.02875 0 0.008656 0.00660131
-0.02125 0 0.02125 0.00655008
-0.00875 -1.807e-20 0.02875 0.00646079
0.02125 1.807e-20 0.02125 0.00622988
0.00875 3.61401e-20 0.02875 0.00632838
0.03 1.0842e-19 0.00233887 0.00615896
-0.03 1.0842e-19 0.00233887 0.00660938
0.02 1.0842e-19 0.0225 0.0062398
0.0225 1.0842e-19 0.02 0.00621989
0.0025 1.0842e-19 0.03 0.00637651
-0.0025 1.0842e-19 0.03 0.00641438
-0.02 1.0842e-19 0.0225 0.00654136
-0.0225 1.0842e-19 0.02 0.00655872
0.0275 1.0842e-19 0.0124878 0.00617979
-0.0275 1.0842e-19 0.0124878 0.00659279
0.0125 1.0842e-19 0.0275 0.00629896
-0.0125 1.0842e-19 0.0275 0.006488
0.02375 -1.807e-20 0.01875 0.00620969
0.01875 0 0.02375 0.00624952
-0.01875 3.61401e-20 0.02375 0.00653248
-0.02375 3.61401e-20 0.01875 0.0065672
0.03 1.0842e-19 0.00479858 0.00615904
-0.03 1.0842e-19 0.00479858 0.00660939
0.005 1.0842e-19 0.03 0.00635708
-0.005 1.0842e-19 0.03 0.00643282
0.025 1.0842e-19 0.0175 0.00619944
0.0175 1.0842e-19 0.025 0.00625918
-0.0175 1.0842e-19 0.025 0.00652351
-0.025 1.0842e-19 0.0175 0.00657561
-0.02875 0 0.011217 0.00660075
0.02875 1.807e-20 0.011217 0.00616886
0.02625 3.61401e-20 0.0162494 0.00618895
-0.02625 0 0.0162494 0.00658386
-0.01125 -1.807e-20 0.02875 0.00647841
0.01125 0 0.02875 0.00630804
0.01625 -1.807e-20 0.02625 0.00626866
-0.01625 0 0.02625 0.00651437
0.030877 0 0 0.00615052
-0.030877 1.0842e-19 0 0.00661455
0.03 1.0842e-19 0.00736572 0.00615865
-0.03 1.0842e-19 0.00736572 0.00660913
0.0075 1.0842e-19 0.03 0.00633727
-0.0075 1.0842e-19 0.03 0.00645093
0.03125 -1.807e-20 0.00116944 0.00614705
-0.03125 -1.807e-20 0.00116944 0.00661681
0.00125 0 0.03125 0.00638497
-0.00125 0 0.03125 0.00640393
0.0275 1.0842e-19 0.0149988 0.00617839
-0.0275 1.0842e-19 0.0149988 0.00659205
0.015 1.0842e-19 0.0275 0.00627808
-0.015 1.0842e-19 0.0275 0.00650515
0.03125 1.807e-20 0.00356873 0.00614736
-0.03125 -1.807e-20 0.00356873 0.00661694
0.00375 -1.807e-20 0.03125 0.00636567
-0.00375 3.61401e-20 0.03125 0.00642257
0.03 1.0842e-19 0.00994629 0.00615786
-0.03 1.0842e-19 0.00994629 0.00660867
0.01 1.0842e-19 0.03 0.0063171
-0.01 1.0842e-19 0.03 0.00646873
-0.031623 1.0842e-19 0 0.00661904
0.031623 0 0 0.00614352
0.0225 1.0842e-19 0.0225 0.00621784
-0.0225 1.0842e-19 0.0225 0.00655755
0.03125 9.03502e-21 0.00608215 0.00614716
-0.03125 -1.807e-20 0.00608215 0.0066168
0.02875 3.61401e-20 0.0137433 0.00616759
-0.02875 -1.807e-20 0.0137433 0.00660008
0.00625 0 0.03125 0.00634602
-0.00625 3.61401e-20 0.03125 0.00644088
0.01375 -1.807e-20 0.02875 0.00628734
-0.01375 3.61401e-20 0.02875 0.00649573
0.02375 3.61401e-20 0.02125 0.00620773
0.02125 3.61401e-20 0.02375 0.00622773
-0.02125 3.61401e-20 0.02375 0.00654882
-0.02375 3.61401e-20 0.02125 0.00656611
0.025 1.0842e-19 0.02 0.00619756
0.02 1.0842e-19 0.025 0.00623758
-0.02 1.0842e-19 0.025 0.00654002
-0.025 1.0842e-19 0.02 0.00657459
-0.01875 3.61401e-20 0.02625 0.00653105
-0.02625 -1.807e-20 0.01875 0.00658292
0.02625 1.807e-20 0.01875 0.00618718
0.01875 0 0.02625 0.00624723
0.03125 3.61401e-20 0.008656 0.00614659
-0.03125 9.03502e-21 0.008656 0.00661644
0.00875 -1.807e-20 0.03125 0.00632599
-0.00875 0 0.03125 0.00645886
0.03 1.0842e-19 0.0124878 0.00615671
-0.03 1.0842e-19 0.0124878 0.00660806
0.0125 1.0842e-19 0.03 0.00629654
-0.0125 1.0842e-19 0.03 0.00648623
0.0325 1.0842e-19 0 0.0061353
-0.0325 1.0842e-19 0 0.00662432
-1.02402e-14 1.0842e-19 0.0325 0.00639338
0.0325 1.0842e-19 0.00233887 0.00613549
-0.0325 1.0842e-19 0.00233887 0.00662439
0.0275 1.0842e-19 0.0175 0.00617672
0.0025 1.0842e-19 0.0325 0.00637421
0.0175 1.0842e-19 0.0275 0.00625682
-0.0025 1.0842e-19 0.0325 0.00641223
-0.0175 1.0842e-19 0.0275 0.00652199
-0.0275 1.0842e-19 0.0175 0.00659118
0.0325 1.0842e-19 0.00479858 0.00613558
-0.0325 1.0842e-19 0.00479858 0.00662439
0.005 1.0842e-19 0.0325 0.00635471
-0.005 1.0842e-19 0.0325 0.00643073
-0.02875 0 0.0162494 0.00659929
0.02875 3.61401e-20 0.0162494 0.00616602
0.01625 0 0.02875 0.00626623
-0.01625 3.61401e-20 0.02875 0.00651276
0.03125 1.807e-20 0.011217 0.00614558
-0.03125 -1.807e-20 0.011217 0.0066159
0.01125 3.61401e-20 0.03125 0.00630558
-0.01125 0 0.03125 0.00647654
0.0325 1.0842e-19 0.00736572 0.00613519
-0.0325 1.0842e-19 0.00736572 0.00662413
0.0075 1.0842e-19 0.0325 0.00633483
-0.0075 1.0842e-19 0.0325 0.00644891
-0.033377 5.42101e-20 0 0.00662949
0.033377 -5.42101e-20 0 0.00612689
0.03 1.0842e-19 0.0149988 0.00615527
-0.03 1.0842e-19 0.0149988 0.00660734
0.015 1.0842e-19 0.03 0.0062756
-0.015 1.0842e-19 0.03 0.00650343
0.02375 -1.807e-20 0.02375 0.00620553
-0.02375 3.61401e-20 0.02375 0.00656489
0.025 1.0842e-19 0.0225 0.00619545
0.0225 1.0842e-19 0.025 0.00621555
-0.0225 1.0842e-19 0.025 0.00655624
-0.025 1.0842e-19 0.0225 0.00657346
0.03375 3.61401e-20 0.00116944 0.00612336
-0.03375 -9.03502e-21 0.00116944 0.00663171
0.00125 -1.807e-20 0.03375 0.00638263
0.02625 0 0.02125 0.00618516
0.02125 0 0.02625 0.00622538
-0.02125 3.61401e-20 0.02625 0.00654743
-0.02625 -1.807e-20 0.02125 0.00658186
-0.00125 0 0.03375 0.00640169
0.03375 -9.03502e-21 0.00356873 0.00612369
-0.03375 2.71051e-20 0.00356872 0.00663183
0.00375 0 0.03375 0.00636326
-0.00375 -1.807e-20 0.03375 0.0064204
0.0325 1.0842e-19 0.00994629 0.00613439
-0.0325 1.0842e-19 0.00994629 0.00662368
0.0275 1.0842e-19 0.02 0.0061748
0.02 1.0842e-19 0.0275 0.00623514
-0.02 1.0842e-19 0.0275 0.00653855
-0.0275 1.0842e-19 0.02 0.0065902
0.01 1.0842e-19 0.0325 0.00631458
-0.01 1.0842e-19 0.0325 0.00646678
0.034123 5.42101e-20 0 0.00611976
-0.034123 0 0 0.00663391
0.03125 3.61401e-20 0.0137433 0.00614428
-0.03125 3.61401e-20 0.0137433 0.00661523
-0.01375 0 0.03125 0.00649392
0.01375 3.61401e-20 0.03125 0.0062848
0.03375 0 0.00608215 0.0061235
-0.03375 -3.61401e-20 0.00608215 0.00663167
-0.01875 3.61401e-20 0.02875 0.00652948
0.02875 1.807e-20 0.01875 0.00616421
-0.02875 3.61401e-20 0.01875 0.00659838
0.00625 3.61401e-20 0.03375 0.00634354
-0.00625 3.61401e-20 0.03375 0.00643877
0.01875 3.61401e-20 0.02875 0.00624472
0.03 1.0842e-19 0.0175 0.00615356
0.0175 1.0842e-19 0.03 0.00625426
-0.0175 1.0842e-19 0.03 0.00652033
-0.03 1.0842e-19 0.0175 0.0066065
0.0325 1.0842e-19 0.0124878 0.00613321
-0.0325 1.0842e-19 0.0124878 0.00662308
0.0125 1.0842e-19 0.0325 0.00629394
-0.0125 1.0842e-19 0.0325 0.00648434
-0.03375 1.807e-20 0.008656 0.00663133
0.03375 0 0.008656 0.00612291
0.00875 0 0.03375 0.00632343
-0.00875 3.61401e-20 0.03375 0.00645684
-0.035 0 0 0.0066391
0.035 1.0842e-19 0 0.00611139
-1.02399e-14 1.0842e-19 0.035 0.00639105
-0.035 -1.0842e-19 0.00233887 0.00663917
0.035 1.0842e-19 0.00233887 0.0061116
0.0025 1.0842e-19 0.035 0.0063718
-0.0025 1.0842e-19 0.035 0.00640998
0.03125 0 0.0162494 0.00614267
-0.03125 -1.807e-20 0.0162494 0.00661447
-0.01625 -1.807e-20 0.03125 0.00651101
0.01625 -1.807e-20 0.03125 0.00626362
0.035 1.0842e-19 0.00479858 0.0061117
-0.035 1.0842e-19 0.00479858 0.00663915
0.025 1.0842e-19 0.025 0.0061931
0.005 1.0842e-19 0.035 0.00635222
-0.005 1.0842e-19 0.035 0.00642855
-0.025 1.0842e-19 0.025 0.0065722
0.02625 -1.807e-20 0.02375 0.0061829
0.02375 -1.807e-20 0.02625 0.00620311
-0.02375 -1.807e-20 0.02625 0.00656355
-0.02625 0 0.02375 0.00658069
0.0275 1.0842e-19 0.0225 0.00617263
0.0225 1.0842e-19 0.0275 0.00621305
-0.0225 1.0842e-19 0.0275 0.00655482
-0.0275 1.0842e-19 0.0225 0.0065891
-0.03375 -1.807e-20 0.011217 0.00663079
0.03375 0 0.011217 0.00612189
0.01125 0 0.03375 0.00630294
-0.01125 -1.807e-20 0.03375 0.00647458
0.02875 -1.807e-20 0.02125 0.00616213
0.02125 0 0.02875 0.00622281
-0.02125 0 0.02875 0.00654593
-0.02875 0 0.02125 0.00659737
0.035 1.0842e-19 0.00736572 0.0061113
-0.035 1.0842e-19 0.00736572 0.00663889
0.0325 1.0842e-19 0.0149988 0.00613173
-0.0325 1.0842e-19 0.0149988 0.00662238
0.015 1.0842e-19 0.0325 0.00627292
-0.015 1.0842e-19 0.0325 0.0065016
0.0075 1.0842e-19 0.035 0.00633227
-0.0075 1.0842e-19 0.035 0.0064468
-0.035877 1.6263e-19 0 0.00664419
0.035877 0 0 0.00610284
0.03 1.0842e-19 0.02 0.00615159
0.02 1.0842e-19 0.03 0.00623251
-0.02 1.0842e-19 0.03 0.00653694
-0.03 1.0842e-19 0.02 0.00660556
0.03625 0 0.00116944 0.00609923
-0.03625 -1.807e-20 0.00116944 0.00664638
0.00125 3.61401e-20 0.03625 0.00638023
-0.00125 0 0.03625 0.00639937
0.035 1.0842e-19 0.00994629 0.00611048
-0.035 1.0842e-19 0.00994629 0.00663845
0.01 1.0842e-19 0.035 0.00631193
-0.01 1.0842e-19 0.035 0.00646474
0.03625 0 0.00356873 0.00609958
-0.03625 -9.03502e-21 0.00356872 0.00664649
0.03375 0 0.0137433 0.00612054
-0.03375 0 0.0137433 0.00663015
-0.01875 3.61401e-20 0.03125 0.0065278
0.03125 1.807e-20 0.01875 0.00614081
0.01875 0 0.03125 0.00624204
-0.03125 0 0.01875 0.0066136
0.01375 -1.807e-20 0.03375 0.00628208
-0.01375 0 0.03375 0.00649203
0.00375 0 0.03625 0.00636078
-0.00375 3.61401e-20 0.03625 0.00641817
0.036623 -1.0842e-19 0 0.00609556
-0.036623 5.42101e-20 0 0.00664854
0.03625 3.61401e-20 0.00608215 0.0060994
-0.03625 -3.61401e-20 0.00608215 0.00664631
-0.00625 0 0.03625 0.00643661
0.00625 3.61401e-20 0.03625 0.00634099
0.0325 1.0842e-19 0.0175 0.00612997
0.0175 1.0842e-19 0.0325 0.00625151
-0.0175 1.0842e-19 0.0325 0.00651856
-0.0325 1.0842e-19 0.0175 0.00662157
-0.02625 -1.807e-20 0.02625 0.00657938
0.02625 -1.807e-20 0.02625 0.00618041
0.035 1.0842e-19 0.0124878 0.00610927
-0.035 1.0842e-19 0.0124878 0.00663786
0.025 1.0842e-19 0.0275 0.00619053
0.0275 1.0842e-19 0.025 0.00617022
0.0125 1.0842e-19 0.035 0.00629121
-0.0125 1.0842e-19 0.035 0.00648237
-0.025 1.0842e-19 0.0275 0.00657082
-0.0275 1.0842e-19 0.025 0.00658788
-0.03625 1.807e-20 0.008656 0.00664597
0.03625 3.61401e-20 0.008656 0.00609878
0.02375 -1.807e-20 0.02875 0.00620047
-0.02875 0 0.02375 0.00659622
0.02875 0 0.02375 0.00615982
-0.02375 0 0.02875 0.00656209
0.00875 3.61401e-20 0.03625 0.00632079
-0.00875 3.61401e-20 0.03625 0.00645474
0.03375 -1.807e-20 0.0162494 0.00611889
-0.03375 -1.807e-20 0.0162494 0.0066294
0.01625 0 0.03375 0.00626082
-0.01625 0 0.03375 0.00650916
0.0375 -1.0842e-19 0 0.00608701
-0.0375 1.0842e-19 0 0.00665362
0.03 1.0842e-19 0.0225 0.00614936
0.0225 1.0842e-19 0.03 0.00621035
-1.02397e-14 1.0842e-19 0.0375 0.00638861
-0.0225 1.0842e-19 0.03 0.00655327
-0.03 1.0842e-19 0.0225 0.00660449
0.0375 1.0842e-19 0.00233887 0.00608722
-0.0375 0 0.00233887 0.00665368
0.0025 1.0842e-19 0.0375 0.00636929
-0.0025 1.0842e-19 0.0375 0.00640762
-0.03125 -1.807e-20 0.02125 0.0066126
-0.02125 3.61401e-20 0.03125 0.00654428
0.03125 -1.807e-20 0.02125 0.00613868
0.02125 -1.807e-20 0.03125 0.00622004
0.0375 1.0842e-19 0.00479858 0.00608734
-0.0375 -1.0842e-19 0.00479858 0.00665366
0.005 1.0842e-19 0.0375 0.00634963
-0.005 1.0842e-19 0.0375 0.00642627
0.03625 0 0.011217 0.00609773
-0.03625 -1.807e-20 0.011217 0.00664544
0.01125 3.61401e-20 0.03625 0.00630022
-0.01125 0 0.03625 0.00647255
0.035 1.0842e-19 0.0149988 0.00610775
-0.035 1.0842e-19 0.0149988 0.00663717
0.015 1.0842e-19 0.035 0.00627012
-0.015 1.0842e-19 0.035 0.00649969
0.0325 1.0842e-19 0.02 0.00612794
0.02 1.0842e-19 0.0325 0.00622968
-0.02 1.0842e-19 0.0325 0.00653522
-0.0325 1.0842e-19 0.02 0.00662065
0.0375 1.0842e-19 0.00736572 0.00608693
-0.0375 1.0842e-19 0.00736572 0.0066534
0.0075 1.0842e-19 0.0375 0.0063296
-0.0075 1.0842e-19 0.0375 0.00644459
-0.038377 -1.0842e-19 0 0.00665861
0.038377 -1.0842e-19 0 0.00607827
0.01875 -1.807e-20 0.03375 0.00623915
0.03375 0 0.01875 0.00611697
-0.01875 0 0.03375 0.00652601
-0.03375 0 0.01875 0.00662855