# pMean  POINT_DATA 38412
# x  y  z  pMean
0 -0.000876977 7.72851e-09 0.00640257
-1.0842e-19 0.000373007 0.00116944 0.00641046
0 0.00162301 7.22625e-09 0.00641853
-2.1684e-19 -0.00212699 0.00116944 0.00639468
6.51843e-20 -0.000876996 0.00233887 0.00640271
1.1324e-19 0.00162301 0.00233887 0.00641868
0 0.00287301 0.00116943 0.00642661
1.65436e-24 -0.00337698 7.72879e-09 0.00638698
1.0842e-19 0.000373004 0.00356872 0.00641075
-1.03398e-25 0.00162301 0.00347077 0.00641871
0 -0.000876997 0.0039882 0.00640275
-2.99957e-20 -0.003377 0.00233887 0.00638712
0 0.00412303 6.77238e-09 0.00643488
2.1684e-19 -0.002127 0.00356872 0.00639496
1.0842e-19 0.002873 0.00356872 0.00642692
-5.64216e-20 0.00412301 0.00233887 0.00643503
0 -0.004627 0.00116943 0.00637927
0 -0.000876998 0.00479858 0.00640277
-5.16988e-26 0.00412301 0.00276507 0.00643504
0 0.001623 0.00479858 0.00641875
2.58494e-26 -0.003377 0.00418769 0.00638717
-1.0842e-19 0.00537301 0.00116944 0.00644315
0 -0.004627 0.00356872 0.00637956
-5.16988e-26 -0.003377 0.00479858 0.00638718
1.65436e-24 -0.005877 7.46194e-09 0.00637175
0 0.000373001 0.00608215 0.00641058
6.46235e-27 0.00566877 0.00233887 0.00644538
-3.8015e-20 -0.005877 0.00233887 0.00637189
1.03398e-25 0.004123 0.00479858 0.0064351
1.0842e-19 -0.002127 0.00608215 0.0063948
1.0842e-19 0.005373 0.00356873 0.00644347
0 0.00662302 6.54409e-09 0.00645161
-1.0842e-19 0.002873 0.00608215 0.00642674
-3.61892e-25 0.006623 0.00230816 0.00645176
-1.29247e-26 0.006623 0.00233887 0.00645177
0 -0.005877 0.00394677 0.00637194
-2.1684e-19 -0.00712701 0.00116943 0.00636423
0 -0.000876999 0.00736572 0.00640246
-5.16988e-26 0.001623 0.00736572 0.00641842
0 -0.005877 0.00479858 0.00637196
-1.0842e-19 -0.004627 0.00608215 0.00637941
1.0842e-19 0.007873 0.00116944 0.00646007
-2.1684e-19 -0.007127 0.00356872 0.00636451
0 -0.003377 0.00736572 0.00638689
-1.0842e-19 0.005373 0.00608215 0.00644327
1.03398e-25 0.006623 0.00479858 0.00645182
1.65436e-24 -0.008377 7.22726e-09 0.00635689
-1.03398e-25 0.004123 0.00736572 0.00643475
0 0.007873 0.00356873 0.00646038
1.0842e-19 0.000373 0.00865601 0.00641012
-1.33241e-19 -0.008377 0.00233887 0.00635702
0 -0.002127 0.008656 0.00639436
0 -0.008377 0.00311946 0.00635704
-1.0842e-19 0.002873 0.008656 0.00642625
0 0.009123 5.99077e-09 0.00646874
0 -0.007127 0.00608215 0.00636437
-5.16988e-26 0.009123 0.00221178 0.00646888
5.16988e-26 0.009123 0.00233887 0.00646889
0 -0.005877 0.00736572 0.00637169
0 -0.008377 0.00479858 0.00635709
-1.0842e-19 -0.009627 0.00116943 0.00634954
0 -0.004627 0.00865601 0.006379
1.98693e-20 0.006623 0.00736572 0.00645146
1.0842e-19 0.007873 0.00608215 0.00646018
0 -0.000877 0.00994629 0.00640186
0 0.001623 0.00994629 0.00641778
0 0.005373 0.008656 0.00644276
0 -0.009627 0.00356873 0.0063498
0 0.009123 0.00479858 0.00646895
0 0.010373 0.00116944 0.0064774
0 -0.003377 0.00994629 0.00638632
-4.24601e-20 0.004123 0.00994629 0.00643408
0 -0.010877 7.09664e-09 0.00634237
0 0.010373 0.00356873 0.00647772
-7.0609e-20 -0.010877 0.00233887 0.0063425
-5.16988e-26 -0.008377 0.00736572 0.00635683
4.52364e-26 -0.010877 0.00251816 0.0063425
2.1684e-19 -0.007127 0.008656 0.00636398
1.0842e-19 0.000373 0.011217 0.00640935
0 -0.009627 0.00608215 0.00634967
0 -0.002127 0.011217 0.00639364
0 -0.005877 0.00994629 0.00637115
2.1684e-19 0.002873 0.011217 0.00642542
0 0.011623 5.20219e-09 0.00648626
-2.1684e-19 0.007873 0.008656 0.00645965
1.03398e-25 0.009123 0.00736572 0.00646857
4.1359e-25 0.011623 0.0019339 0.0064864
0 0.011623 0.00233887 0.00648642
0 -0.010877 0.00479858 0.00634256
2.58494e-26 0.006623 0.00994629 0.00645076
0 0.010373 0.00608215 0.00647751
-2.1684e-19 -0.004627 0.011217 0.00637831
-1.0842e-19 -0.012127 0.00116943 0.0063352
-1.0842e-19 0.005373 0.011217 0.00644191
0 -0.000877 0.0124878 0.00640103
2.06795e-25 0.011623 0.00479858 0.00648648
0 0.001623 0.0124878 0.00641689
0 -0.012127 0.00356872 0.00633546
-1.0842e-19 0.012873 0.00116944 0.00649513
0 -0.003377 0.0124878 0.00638553
0 -0.009627 0.008656 0.00634931
0 -0.008377 0.00994629 0.00635632
0 -0.010877 0.00736572 0.00634232
-2.35175e-20 0.004123 0.0124878 0.00643315
0 -0.007127 0.011217 0.00636333
-1.0842e-19 0.012873 0.00356872 0.00649547
0 -0.013377 6.94728e-09 0.0063282
2.58494e-26 0.009123 0.00994629 0.00646783
1.0842e-19 0.010373 0.008656 0.00647694
0 -0.012127 0.00608215 0.00633532
9.65629e-20 -0.013377 0.00233887 0.00632833
9.04729e-26 -0.013377 0.00281502 0.00632835
-1.0842e-19 0.007873 0.011217 0.00645875
-1.0842e-19 0.000373 0.0137433 0.00640839
0 0.011623 0.00736572 0.00648607
0 -0.005877 0.0124878 0.00637039
0 -0.002127 0.0137433 0.00639274
-1.0842e-19 0.002873 0.0137433 0.00642443
0 0.014123 4.00393e-09 0.00650419
0 0.006623 0.0124878 0.00644978
-4.1359e-25 0.014123 0.00137285 0.0065043
1.03398e-25 -0.013377 0.00479858 0.0063284
1.0842e-19 0.012873 0.00608215 0.00649522
-4.1359e-25 0.014123 0.00233887 0.00650437
1.0842e-19 -0.004627 0.0137433 0.00637744
-1.0842e-19 -0.014627 0.00116943 0.00632121
-1.29247e-26 -0.010877 0.00994629 0.00634184
1.0842e-19 0.005373 0.0137433 0.00644084
-4.1359e-25 0.0147726 0 0.00650896
-2.1684e-19 -0.009627 0.011217 0.00634868
0 -0.012127 0.008656 0.006335
2.06795e-25 0.014123 0.00479858 0.00650441
0 -0.000877 0.0149988 0.00640001
-1.26722e-19 -0.008377 0.0124878 0.0063556
0 -0.014627 0.00356872 0.00632147
0 0.001623 0.0149988 0.00641582
0 -0.013377 0.00736572 0.00632817
-1.0842e-19 0.010373 0.011217 0.00647598
0 0.011623 0.00994629 0.00648529
0 -0.003377 0.0149988 0.00638456
-1.0842e-19 0.015373 0.00116944 0.00651327
0 0.009123 0.0124878 0.00646679
1.0842e-19 -0.007127 0.0137433 0.00636251
-1.0842e-19 0.012873 0.008656 0.00649463
-3.93026e-20 0.004123 0.0149988 0.006432
1.0842e-19 0.015373 0.00356872 0.00651362
0 0.007873 0.0137433 0.00645762
0 -0.014627 0.00608215 0.00632134
-8.27181e-25 -0.015877 6.63832e-09 0.00631438
0 0.014123 0.00736572 0.00650398
-1.41409e-20 -0.015877 0.00233887 0.00631451
1.9387e-26 -0.015877 0.00252442 0.00631451
0 -0.005877 0.0149988 0.00636947
1.0842e-19 0.000373 0.0162494 0.00640725
0 -0.002127 0.0162494 0.00639165
8.07794e-28 0.006623 0.0149988 0.00644857
1.0842e-19 0.002873 0.0162494 0.00642321
0 -0.012127 0.011217 0.0063344
0 0.015373 0.00608215 0.00651335
0 -0.010877 0.0124878 0.00634116
0 -0.015877 0.00479858 0.00631458
-1.65436e-24 0.016623 1.14059e-08 0.00652254
0 -0.013377 0.00994629 0.00632772
1.0842e-19 -0.009627 0.0137433 0.00634791
-8.27181e-25 0.016623 0.00233887 0.00652271
0 -0.004627 0.0162494 0.00637641
0 -0.014627 0.008656 0.00632102
-6.46235e-27 0.011623 0.0124878 0.00648419
0 0.012873 0.011217 0.00649362
0 0.005373 0.0162494 0.00643955
1.0842e-19 -0.017127 0.00116943 0.00630755
-2.01948e-28 -0.008377 0.0149988 0.00635473
-1.0842e-19 0.010373 0.0137433 0.0064748
-2.58494e-26 0.014123 0.00994629 0.00650315
0 0.016623 0.00479858 0.00652276
-2.1684e-19 -0.017127 0.00356872 0.00630781
0 -0.015877 0.00736572 0.00631436
3.17122e-28 -0.000877 0.0174912 0.00639881
3.28979e-21 -0.000877 0.0175 0.0063988
-8.07794e-28 0.009123 0.0149988 0.00646551
2.35081e-28 0.001623 0.0174922 0.00641455
-1.57772e-30 0.001623 0.0175 0.00641455
-1.0842e-19 0.015373 0.00865601 0.00651272
0 -0.007127 0.0162494 0.00636153
-2.8399e-28 -0.003377 0.0174891 0.00638343
0 -0.003377 0.0175 0.00638342
1.0842e-19 0.017873 0.00116944 0.00653182
-2.00371e-28 0.004123 0.0174928 0.00643066
-1.57772e-30 0.004123 0.0175 0.00643066
0 0.007873 0.0162494 0.00645627
1.0842e-19 -0.017127 0.00608215 0.0063077
0 0.016623 0.00736572 0.0065223
1.0842e-19 0.017873 0.00356872 0.00653217
-3.23117e-27 -0.013377 0.0124878 0.00632707
0 -0.012127 0.0137433 0.00633367
8.27181e-25 -0.018377 6.50332e-09 0.00630088
-1.0842e-19 -0.014627 0.011217 0.00632046
1.29373e-28 -0.005877 0.0174846 0.0063684
8.08456e-20 -0.005877 0.0175 0.0063684
1.25722e-19 -0.018377 0.00233887 0.00630101
0 -0.010877 0.0149988 0.00634034
-2.58494e-26 -0.018377 0.0024529 0.00630101
-2.2877e-28 0.006623 0.0174931 0.00644714
0 0.006623 0.0175 0.00644714
0 -0.015877 0.00994629 0.00631392
-1.0842e-19 0.000373 0.01875 0.00640592
1.0842e-19 0.012873 0.0137433 0.00649237
0 0.014123 0.0124878 0.00650199
0 -0.002127 0.01875 0.0063904
-1.0842e-19 0.017873 0.00608215 0.00653192
1.0842e-19 -0.009627 0.0162494 0.006347
1.03398e-25 0.0189403 0 0.00653994
0 0.002873 0.01875 0.00642181
4.03897e-28 0.011623 0.0149988 0.00648283
0 -0.018377 0.00479858 0.00630108
0 0.015373 0.011217 0.00651166
2.06795e-25 0.019123 8.99002e-10 0.00654131
0 0.019123 0.000443798 0.00654134
-1.0842e-19 -0.017127 0.008656 0.00630738
1.91219e-20 0.019123 0.00233887 0.00654148
-1.0842e-19 0.010373 0.0162494 0.00647335
1.03398e-25 0.0193061 0 0.00654271
-1.0842e-19 -0.004627 0.01875 0.00637523
0 0.016623 0.00994629 0.00652143
3.15544e-29 -0.008377 0.0174794 0.00635373
3.28979e-21 -0.008377 0.0175 0.00635372
1.0842e-19 0.005373 0.01875 0.00643806
0 -0.019627 0.00116943 0.00629422
0 0.019123 0.00479858 0.00654153
-5.52203e-29 0.009123 0.0174927 0.006464
-9.67102e-20 0.009123 0.0175 0.00646399
-5.16988e-26 -0.018377 0.00736572 0.00630087
-1.0842e-19 0.017873 0.008656 0.00653123
1.0842e-19 -0.019627 0.00356872 0.00629446
-9.67102e-20 -0.000877 0.02 0.00639743
-1.0842e-19 -0.007127 0.01875 0.00636042
3.28979e-21 0.001623 0.02 0.00641309
-1.0842e-19 -0.014627 0.0137433 0.00631977
0 -0.013377 0.0149988 0.00632629
0 -0.015877 0.0124878 0.0063133
1.0842e-19 -0.012127 0.0162494 0.0063328
3.28979e-21 -0.003377 0.02 0.00638213
0 0.007873 0.01875 0.00645468
1.0842e-19 0.020373 0.00116944 0.0065508
3.28979e-21 0.004123 0.02 0.00642912
0 -0.017127 0.011217 0.00630683
0 0.019123 0.00736572 0.00654105
0 -0.019627 0.00608215 0.00629435
1.57772e-30 -0.010877 0.0174793 0.0063394
0 0.014123 0.0149988 0.00650056
0 -0.010877 0.0175 0.00633939
1.0842e-19 0.015373 0.0137433 0.00651033
0 0.020373 0.00356872 0.00655116
-1.0842e-19 0.012873 0.0162494 0.00649083
6.46235e-27 0.016623 0.0124878 0.0065202
3.28979e-21 -0.005877 0.02 0.00636718
0 -0.020877 7.37805e-09 0.00628771
0 -0.018377 0.00994629 0.00630045
-2.99767e-28 0.011623 0.0174915 0.00648124
8.0752e-20 -0.020877 0.00233887 0.00628783
-9.67043e-20 0.011623 0.0175 0.00648123
3.28979e-21 0.006623 0.02 0.0064455
0 -0.009627 0.01875 0.00634595
1.0842e-19 0.017873 0.011217 0.00653012
1.0842e-19 0.000373 0.02125 0.00640442
0 0.020373 0.00608215 0.00655089
-5.16988e-26 -0.020877 0.00408776 0.00628788
-1.0842e-19 -0.002127 0.02125 0.00638898
0 -0.020877 0.00479858 0.0062879
0 0.010373 0.01875 0.00647168
-1.0842e-19 0.002873 0.02125 0.00642022
0 -0.019627 0.00865601 0.00629405
-5.04618e-20 0.019123 0.00994629 0.00654012
0 0.021623 1.1374e-08 0.00656051
-1.91544e-20 -0.008377 0.02 0.00635257
1.0842e-19 -0.004627 0.02125 0.0063739
1.62598e-19 0.021623 0.00233888 0.00656069
4.03897e-28 -0.015877 0.0149988 0.00631257
0 -0.014627 0.0162494 0.00631895
-1.0842e-19 0.005373 0.02125 0.00643637
0 -0.017127 0.0137433 0.00630617
3.28979e-21 0.009123 0.02 0.00646226
8.83524e-29 -0.013377 0.0174821 0.0063254
8.08456e-20 -0.013377 0.0175 0.00632539
-1.0842e-19 0.020373 0.008656 0.00655017
0 -0.020877 0.00736572 0.0062877
4.1359e-25 0.021623 0.00479858 0.00656073
1.0842e-19 -0.022127 0.00116943 0.0062812
3.23117e-27 -0.018377 0.0124878 0.00629986
0 -0.012127 0.01875 0.00633182
1.0842e-19 0.015373 0.0162494 0.00650873
0 0.016623 0.0149988 0.00651869
0 -0.022127 0.00356872 0.00628145
1.0842e-19 -0.007127 0.02125 0.00635915
-2.11415e-28 0.014123 0.0174909 0.00649888
0 0.014123 0.0175 0.00649887
8.08456e-20 -0.000877 0.0225 0.00639589
-1.0842e-19 0.017873 0.0137433 0.0065287
8.08456e-20 0.001623 0.0225 0.00641145
0 -0.019627 0.011217 0.00629354
0 0.007873 0.02125 0.00645289
-1.0842e-19 0.012873 0.01875 0.00648908
3.28979e-21 -0.003377 0.0225 0.00638067
-9.67102e-20 -0.010877 0.02 0.0063383
-6.46235e-27 0.019123 0.0124878 0.00653882
-4.67455e-20 0.021623 0.00736572 0.00656022
8.08456e-20 0.004123 0.0225 0.00642738
-1.0842e-19 0.022873 0.00116944 0.00657021
1.0842e-19 -0.022127 0.00608215 0.00628134
0 -0.020877 0.00994629 0.00628731
3.28979e-21 0.011623 0.02 0.0064794
1.0842e-19 0.022873 0.00356872 0.00657058
3.28979e-21 -0.005877 0.0225 0.0063658
1.0842e-19 0.020373 0.011217 0.00654899
-2.58494e-26 -0.0227717 0.00479858 0.00627815
-1.0842e-19 -0.009627 0.02125 0.00634476
-1.65436e-24 -0.023377 8.97906e-09 0.00627486
8.08456e-20 0.006623 0.0225 0.00644366
1.25775e-19 -0.023377 0.00233887 0.00627497
1.0842e-19 -0.017127 0.0162494 0.0063054
7.09975e-29 -0.015877 0.017484 0.00631172
5.84013e-20 -0.015877 0.0175 0.00631171
0 0.010373 0.02125 0.00646978
1.0842e-19 0.022873 0.00608215 0.00657028
0 -0.018377 0.0149988 0.00629916
0 0.000373 0.02375 0.00640274
0 -0.022127 0.008656 0.00628107
0 -0.014627 0.01875 0.006318
-6.33372e-20 0.021623 0.00994629 0.00655924
1.0842e-19 -0.002127 0.02375 0.0063874
1.29247e-26 -0.023377 0.00479858 0.00627504
0 0.002873 0.02375 0.00641843
1.0842e-19 -0.019627 0.0137433 0.00629291
-1.91544e-20 -0.008377 0.0225 0.00635127
8.08456e-20 -0.013377 0.02 0.00632436
1.29247e-26 -0.023377 0.00594996 0.00627496
0 0.024123 1.13291e-08 0.00658014
8.04638e-29 0.016623 0.0174918 0.00651691
1.58401e-19 0.016623 0.0175 0.0065169
-2.1684e-19 0.017873 0.0162494 0.006527
-1.0842e-19 -0.004627 0.02375 0.00637239
-9.11371e-20 0.024123 0.00233888 0.00658033
-1.0842e-19 0.015373 0.01875 0.00650686
-9.67102e-20 0.009123 0.0225 0.00646031
0 0.019123 0.0149988 0.00653722
-1.03437e-19 -0.020877 0.0124878 0.00628675
-1.0842e-19 0.005373 0.02375 0.00643449
0 0.022873 0.00865601 0.00656954
0 -0.012127 0.02125 0.00633069
8.08456e-20 0.014123 0.02 0.00649694
0 -0.023377 0.00736572 0.00627486
0 0.020373 0.0137433 0.0065475
9.7039e-20 0.024123 0.00479858 0.00658036
1.0842e-19 -0.024627 0.00116943 0.00626851
1.0842e-19 -0.007127 0.02375 0.00635774
1.0842e-19 -0.022127 0.011217 0.00628058
-1.0842e-19 0.012873 0.02125 0.00648707
1.0842e-19 -0.024627 0.00356872 0.00626874
-1.23312e-19 0.021623 0.0124878 0.00655787
-1.91544e-20 -0.010877 0.0225 0.00633708
3.28979e-21 -0.000877 0.025 0.00639417
0 0.007873 0.02375 0.0064509
-1.91544e-20 0.001623 0.025 0.00640964
0 0.024123 0.00736572 0.00657982
3.28979e-21 -0.003377 0.025 0.00637905
8.08456e-20 0.011623 0.0225 0.00647734
-1.91544e-20 0.004123 0.025 0.00642545
-1.73549e-29 -0.018377 0.0174852 0.00629836
0 -0.024627 0.00608215 0.00626863
0 -0.018377 0.0175 0.00629835
1.0842e-19 -0.017127 0.01875 0.0063045
1.0842e-19 0.025373 0.00116944 0.00659007
1.29247e-26 -0.023377 0.00994629 0.00627448
-1.0842e-19 0.022873 0.011217 0.00656829
0 -0.019627 0.0162494 0.00629219
8.08456e-20 -0.015877 0.02 0.00631074
0 0.025373 0.00356873 0.00659046
-1.0842e-19 -0.009627 0.02375 0.00634344
-9.67102e-20 -0.005877 0.025 0.00636428
0 -0.020877 0.0149988 0.00628609
1.0842e-19 -0.014627 0.02125 0.00631694
-1.91544e-20 0.006623 0.025 0.00644162
0 -0.025877 1.00763e-08 0.00626232
0 0.017873 0.01875 0.00652503
0 0.010373 0.02375 0.00646767
-1.54617e-28 0.019123 0.0174929 0.00653534
-1.91468e-20 0.019123 0.0175 0.00653534
-1.09365e-19 -0.025877 0.00233887 0.00626243
-1.91544e-20 0.016623 0.02 0.00651485
-1.0842e-19 -0.022127 0.0137433 0.00627998
0 0.020373 0.0162494 0.00654571
1.0842e-19 0.025373 0.00608215 0.00659012
5.16988e-26 0.024123 0.00994629 0.00657879
-1.0842e-19 -0.024627 0.008656 0.00626839
8.08456e-20 -0.013377 0.0225 0.00632321
-1.0842e-19 0.015373 0.02125 0.00650473
0 0.000373 0.02625 0.0064009
0 0.021623 0.0149988 0.00655618
-3.60172e-20 -0.025877 0.00479858 0.0062625
0 -0.002127 0.02625 0.00638565
-1.91544e-20 -0.008377 0.025 0.00634984
-1.0842e-19 0.002873 0.02625 0.00641647
-3.41447e-20 -0.023377 0.0124878 0.00627395
-1.91544e-20 0.014123 0.0225 0.00649475
-1.91544e-20 0.009123 0.025 0.00645815
0 0.026623 3.78395e-10 0.00660021
-1.0842e-19 -0.004627 0.02625 0.00637076
-1.0842e-19 -0.012127 0.02375 0.00632944
1.0842e-19 0.022873 0.0137433 0.00656671
-8.27181e-25 0.026623 0.00233887 0.00660041
-1.0842e-19 0.005373 0.02625 0.0064324
-1.0842e-19 0.025373 0.008656 0.00658933
1.05013e-26 -0.0257893 0.00736572 0.00626276
7.92252e-21 -0.025877 0.00736572 0.00626232
-8.07794e-28 -0.025877 0.00770613 0.00626227
0 0.012873 0.02375 0.00648483
0 0.026623 0.00479858 0.00660044
1.0842e-19 -0.024627 0.011217 0.0062679
0 -0.019627 0.01875 0.00629134
0 -0.027127 0.00116944 0.00625612
-9.67102e-20 -0.018377 0.02 0.00629744
1.29247e-26 0.024123 0.0124878 0.00657734
0 -0.007127 0.02625 0.00635621
-2.8399e-29 -0.020877 0.0174855 0.00628533
0 -0.020877 0.0175 0.00628532
-1.91544e-20 -0.010877 0.025 0.00633573
-1.0842e-19 -0.017127 0.02125 0.0063035
2.1684e-19 -0.027127 0.00356872 0.00625635
0 0.007873 0.02625 0.00644868
1.0842e-19 -0.022127 0.0162494 0.00627928
8.08456e-20 -0.000877 0.0275 0.0063923
-9.67102e-20 -0.015877 0.0225 0.00630966
8.08456e-20 0.001623 0.0275 0.00640765
5.84013e-20 0.011623 0.025 0.00647505
0 0.026623 0.00736572 0.00659986
-1.91544e-20 0.019123 0.02 0.00653316
-1.0842e-19 0.020373 0.01875 0.00654362
8.08456e-20 -0.003377 0.0275 0.00637729
0 -0.025877 0.00994629 0.00626196
-1.0842e-19 0.025373 0.011217 0.00658801
0 0.017873 0.02125 0.00652277
2.01948e-28 -0.023377 0.0149988 0.00627332
-1.0842e-19 -0.027127 0.00608215 0.00625625
-1.91544e-20 0.004123 0.0275 0.00642334
6.15312e-29 0.021623 0.0174934 0.00655419
-1.57772e-30 0.021623 0.0175 0.00655418
1.0842e-19 -0.014627 0.02375 0.00631577
1.0842e-19 0.027873 0.00116944 0.00661036
1.0842e-19 -0.009627 0.02625 0.00634198
-1.91544e-20 0.016623 0.0225 0.00651253
0 0.022873 0.0162494 0.00656482
0 0.027873 0.00356873 0.00661076
-9.67102e-20 -0.005877 0.0275 0.00636262
1.0842e-19 -0.024627 0.0137433 0.00626735
0 0.010373 0.02625 0.00646533
-1.91544e-20 0.006623 0.0275 0.00643938
-1.0842e-19 0.015373 0.02375 0.00650235
1.58401e-19 -0.013377 0.025 0.00632194
0 -0.028377 1.04784e-08 0.00625008
0 0.024123 0.0149988 0.00657555
0 0.026623 0.00994629 0.00659877
1.05603e-19 -0.028377 0.00233887 0.0062502
-2.1684e-19 -0.027127 0.008656 0.006256
0 0.027873 0.00608215 0.00661042
5.84013e-20 0.014123 0.025 0.00649231
0 -0.025877 0.0124878 0.00626145
8.08456e-20 -0.008377 0.0275 0.00634828
0 0.000373 0.02875 0.00639888
-4.29502e-20 -0.028377 0.00479858 0.00625027
1.0842e-19 -0.002127 0.02875 0.00638376
-1.0842e-19 0.025373 0.0137433 0.00658636
1.0842e-19 0.002873 0.02875 0.00641434
-1.91544e-20 -0.020877 0.02 0.00628446
1.0842e-19 -0.012127 0.02625 0.00632806
0 -0.019627 0.02125 0.00629041
-1.91544e-20 0.009123 0.0275 0.00645577
-1.0842e-19 -0.022127 0.01875 0.00627849
8.08456e-20 -0.018377 0.0225 0.00629642
-1.0842e-19 -0.004627 0.02875 0.00636897
0 0.029123 1.56263e-08 0.00662073
0 0.027873 0.008656 0.00660956
-6.31089e-30 -0.023377 0.0174839 0.0062726
5.84047e-20 -0.023377 0.0175 0.00627259
-8.27181e-25 0.029123 0.00233888 0.00662093
-1.0842e-19 0.012873 0.02625 0.00648234
1.0842e-19 0.005373 0.02875 0.00643014
0 -0.017127 0.02375 0.0063024
-5.60997e-20 -0.028377 0.00736572 0.0062501
2.1684e-19 -0.027127 0.011217 0.00625555
0 0.026623 0.0124878 0.00659724
-1.0842e-19 0.020373 0.02125 0.00654123
1.58401e-19 0.021623 0.02 0.00655188
1.0842e-19 -0.024627 0.0162494 0.00626667
0 0.029123 0.00479858 0.00662096
-1.91544e-20 0.019123 0.0225 0.00653071
5.84013e-20 -0.010877 0.0275 0.00633425
-1.0842e-19 0.022873 0.01875 0.00656259
8.08456e-20 -0.015877 0.025 0.00630846
0 -0.007127 0.02875 0.00635452
1.0842e-19 -0.029627 0.00116944 0.00624404
-1.0842e-19 0.017873 0.02375 0.00652026
-3.12389e-28 0.024123 0.0174941 0.00657343
0 0.007873 0.02875 0.00644629
1.0842e-19 -0.029627 0.00356873 0.00624427
8.08456e-20 0.011623 0.0275 0.00647252
0 -0.025877 0.0149988 0.00626086
8.07794e-28 -0.028377 0.00976037 0.00624977
-1.91544e-20 -0.000877 0.03 0.00639027
8.08456e-20 0.016623 0.025 0.00650995
2.06795e-25 0.029123 0.00736572 0.00662034
8.08456e-20 0.001623 0.03 0.00640549
0 0.027873 0.011217 0.00660818
0 -0.014627 0.02625 0.00631446
0 -0.028377 0.00994629 0.00624975
1.0842e-19 0.025373 0.0162494 0.00658433
-1.91544e-20 -0.003377 0.03 0.00637537
-1.0842e-19 -0.029627 0.00608215 0.00624418
-1.91544e-20 0.004123 0.03 0.00642105
0 -0.009627 0.02875 0.00634039
2.1684e-19 0.030373 0.00116944 0.0066311
1.0842e-19 -0.027127 0.0137433 0.00625503
-1.0842e-19 0.015373 0.02625 0.00649972
0 0.026623 0.0149988 0.00659534
-1.0842e-19 0.010373 0.02875 0.00646277
-1.91544e-20 -0.005877 0.03 0.00636081
-1.91544e-20 -0.013377 0.0275 0.00632054
0 0.030373 0.00356873 0.00663151
0 -0.022127 0.02125 0.0062776
8.08456e-20 -0.020877 0.0225 0.0062835
-1.91544e-20 0.006623 0.03 0.00643695
-1.91544e-20 -0.023377 0.02 0.00627178
0 0.029123 0.00994629 0.00661919
1.0842e-19 -0.019627 0.02375 0.00628936
0 -0.029627 0.008656 0.00624394
0 -0.030877 1.0238e-08 0.00623814
8.08456e-20 0.014123 0.0275 0.00648963
-1.0842e-19 -0.024627 0.01875 0.00626594
1.54549e-19 -0.030877 0.00233887 0.00623825
0 0.030373 0.00608215 0.00663115
-8.07794e-28 -0.028377 0.0124878 0.00624927
-9.67102e-20 -0.018377 0.025 0.00629529
0 0.027873 0.0137433 0.00660642
1.58401e-19 -0.008377 0.03 0.00634657
0 -0.012127 0.02875 0.00632657
1.58401e-19 0.021623 0.0225 0.00654928
0 0.022873 0.02125 0.00656006
5.20648e-29 -0.025877 0.017478 0.00626018
1.58401e-19 -0.025877 0.0175 0.00626018
0 -0.030877 0.00479858 0.00623832
0 0.000373 0.03125 0.00639672
0 0.020373 0.02375 0.00653857
0 -0.002127 0.03125 0.00638171
8.08456e-20 0.024123 0.02 0.00657099
0 -0.017127 0.02625 0.00630118
-1.91544e-20 0.009123 0.03 0.00645319
1.0842e-19 0.002873 0.03125 0.00641203
0 0.019123 0.025 0.00652798
0 0.012873 0.02875 0.00647962
-1.0842e-19 0.025373 0.01875 0.00658198
0 0.030373 0.00865601 0.00663025
0 -0.004627 0.03125 0.00636704
0 -0.027127 0.0162494 0.0062544
0 0.031623 1.58158e-08 0.00664169
0 -0.029627 0.011217 0.0062435
0 0.029123 0.0124878 0.00661757
0 0.005373 0.03125 0.0064277
-8.27181e-25 0.031623 0.00233888 0.0066419
0 -0.030877 0.00736572 0.00623816
8.08456e-20 -0.015877 0.0275 0.00630714
0 0.017873 0.02625 0.00651748
-3.69187e-28 0.026623 0.017495 0.0065931
5.84013e-20 -0.010877 0.03 0.00633265
0 0.031623 0.00479858 0.00664193
1.0842e-19 -0.007127 0.03125 0.00635269
-1.00974e-28 -0.028377 0.0149988 0.0062487
-9.67102e-20 0.016623 0.0275 0.00650712
-1.0842e-19 -0.032127 0.00116943 0.00623224
-9.67102e-20 0.011623 0.03 0.00646979
-1.0842e-19 0.007873 0.03125 0.00644368
1.0842e-19 -0.014627 0.02875 0.00631307
-1.0842e-19 0.027873 0.0162494 0.00660428
-3.23117e-27 -0.030877 0.00950556 0.00623788
-2.1684e-19 -0.032127 0.00356872 0.00623245
-2.1684e-19 0.030373 0.011217 0.00662878
-7.49898e-20 -0.030877 0.00994629 0.00623783
3.28979e-21 -0.023377 0.0225 0.00627087
1.0842e-19 -0.022127 0.02375 0.00627662
2.06795e-25 0.031623 0.00736572 0.00664128
8.08456e-20 -0.000877 0.0325 0.00638809
1.0842e-19 -0.024627 0.02125 0.00626509
8.08456e-20 0.001623 0.0325 0.00640318
-9.67102e-20 -0.020877 0.025 0.00628243
1.0842e-19 0.015373 0.02875 0.00649684
0 -0.0318135 0.00736572 0.00623379
0 -0.029627 0.0137433 0.006243
-9.67102e-20 -0.003377 0.0325 0.00637332
1.0842e-19 -0.032127 0.00608215 0.00623236
1.0842e-19 -0.009627 0.03125 0.00633868
8.08456e-20 -0.025877 0.02 0.00625941
8.07794e-28 0.029123 0.0149988 0.00661556
-1.91544e-20 0.004123 0.0325 0.00641859
1.0842e-19 -0.019627 0.02625 0.00628822
1.58401e-19 -0.013377 0.03 0.00631904
-1.0842e-19 0.032873 0.00116944 0.00665229
-1.0842e-19 0.010373 0.03125 0.00646003
1.0842e-19 0.022873 0.02375 0.00655725
0 -0.027127 0.01875 0.0062537
1.58401e-19 0.024123 0.0225 0.00656824
-9.67102e-20 -0.005877 0.0325 0.00635887
8.08456e-20 0.021623 0.025 0.00654639
1.0842e-19 0.032873 0.00356873 0.00665273
8.08456e-20 -0.018377 0.0275 0.00629406
-1.0842e-19 0.025373 0.02125 0.00657931
0 0.031623 0.00994629 0.00664006
-9.67102e-20 0.014123 0.03 0.00648674
-1.91544e-20 0.006623 0.0325 0.00643434
0 0.020373 0.02625 0.00653562
1.0842e-19 -0.032127 0.008656 0.00623214
-1.91544e-20 0.026623 0.02 0.00659051
0 -0.030877 0.0124878 0.00623737
-3.15544e-29 -0.028377 0.0174661 0.00624807
0 0.030373 0.0137433 0.00662691
0 -0.028377 0.0175 0.00624806
1.65436e-24 -0.033377 9.23372e-09 0.00622649
0 0.032873 0.00608215 0.00665234
1.37375e-19 -0.033377 0.00233887 0.0062266
-1.0842e-19 -0.017127 0.02875 0.00629985
-1.57772e-30 0.019123 0.0275 0.00652497
-1.0842e-19 -0.012127 0.03125 0.00632496
8.08456e-20 -0.008377 0.0325 0.00634475
-1.0842e-19 0.027873 0.01875 0.00660179
3.86894e-20 -0.033377 0.00479858 0.00622666
0 0.000373 0.03375 0.0063944
-1.91544e-20 0.009123 0.0325 0.00645043
0 -0.029627 0.0162494 0.00624241
0 0.012873 0.03125 0.00647672
1.0842e-19 -0.002127 0.03375 0.00637952
0 0.017873 0.02875 0.00651442
0 0.002873 0.03375 0.00640956
-1.91544e-20 -0.015877 0.03 0.00630573
0 -0.033377 0.00627875 0.00622657
-1.53039e-28 0.029123 0.0174956 0.00661319
2.1684e-19 0.032873 0.008656 0.00665139
0 0.031623 0.0124878 0.00663835
-1.0842e-19 -0.032127 0.011217 0.00623173
0 -0.004627 0.03375 0.006365
0 0.034123 1.53106e-08 0.00666312
-1.0842e-19 0.005373 0.03375 0.00642508
1.29247e-26 -0.033377 0.00736572 0.00622651
-8.27181e-25 0.034123 0.00233888 0.00666333
1.0842e-19 -0.024627 0.02375 0.00626417
-3.54881e-20 -0.023377 0.025 0.00626987
-1.91544e-20 -0.010877 0.0325 0.00633094
3.28979e-21 -0.025877 0.0225 0.00625855
-9.67102e-20 0.016623 0.03 0.00650405
-2.01948e-28 -0.030877 0.0149988 0.00623683
0 -0.022127 0.02625 0.00627553
-1.29247e-26 -0.0340738 0.00479858 0.0062235
1.0842e-19 0.030373 0.0162494 0.00662465
0 0.034123 0.00479858 0.00666336
0 -0.027127 0.02125 0.00625289
0 -0.007127 0.03375 0.00635076
0 -0.014627 0.03125 0.00631156
1.58401e-19 0.011623 0.0325 0.00646686
-1.91544e-20 -0.020877 0.0275 0.00628128
0 -0.034627 0.00116943 0.00622074
0 0.007873 0.03375 0.0064409
8.08456e-20 -0.028377 0.02 0.00624733
0 0.032873 0.011217 0.00664985
1.58401e-19 0.024123 0.025 0.00656518
1.0842e-19 0.025373 0.02375 0.00657633
-2.1684e-19 -0.034627 0.00356872 0.00622095
0 -0.019627 0.02875 0.00628698
0 0.022873 0.02625 0.00655413
0 0.015373 0.03125 0.00649377
2.55634e-21 -0.033377 0.00994629 0.00622619
8.08456e-20 0.026623 0.0225 0.0065876
2.06795e-25 0.034123 0.00736572 0.00666267
1.0842e-19 -0.032127 0.0137433 0.00623126
-1.91544e-20 0.021623 0.0275 0.0065432
0 0.031623 0.0149988 0.00663622
-3.54881e-20 -0.000877 0.035 0.00638581
3.28979e-21 0.001623 0.035 0.00640075
-1.0842e-19 0.027873 0.02125 0.00659897
1.0842e-19 -0.029627 0.01875 0.00624174
-1.0842e-19 -0.009627 0.03375 0.00633687
1.58401e-19 -0.013377 0.0325 0.00631743
0 -0.034627 0.00608215 0.00622088
-1.13044e-19 -0.003377 0.035 0.00637117
-1.91544e-20 -0.018377 0.03 0.00629273
-1.0842e-19 0.020373 0.02875 0.00653237
-3.54881e-20 0.004123 0.035 0.00641602
0 0.010373 0.03375 0.00645709
-1.91544e-20 0.029123 0.02 0.00661045
0 0.035373 0.00116944 0.00667394
-1.91544e-20 0.014123 0.0325 0.00648363
0 -0.030877 0.0174648 0.00623623
-3.54881e-20 -0.005877 0.035 0.00635686
3.28979e-21 -0.030877 0.0175 0.00623622
-5.16988e-26 0.034123 0.00994629 0.00666139
1.0842e-19 0.035373 0.00356873 0.00667439
8.08456e-20 0.019123 0.03 0.00652171
-3.54881e-20 0.006623 0.035 0.0064316
-1.0842e-19 0.032873 0.0137433 0.00664787
0 -0.017127 0.03125 0.00629843
5.79455e-20 -0.033377 0.0124878 0.00622575
-1.0842e-19 -0.034627 0.008656 0.00622065
0 0.030373 0.01875 0.00662202
0 -0.012127 0.03375 0.00632323
0 -0.035877 8.16855e-09 0.00621512
-2.1684e-19 0.035373 0.00608215 0.00667398
7.2795e-21 -0.035877 0.00233887 0.00621523
-3.54881e-20 -0.025877 0.025 0.0062576
-9.67102e-20 -0.008377 0.035 0.00634286
0 -0.024627 0.02625 0.00626314
1.0842e-19 0.017873 0.03125 0.00651114
1.0842e-19 -0.032127 0.0162494 0.00623069
0 -0.027127 0.02375 0.00625204
1.58401e-19 -0.023377 0.0275 0.00626878
2.58494e-26 -0.035877 0.00410813 0.00621529
-1.0842e-19 0.012873 0.03375 0.00647358
-3.58143e-28 0.031623 0.0174955 0.0066337
3.28979e-21 0.009123 0.035 0.00644752
1.58401e-19 -0.015877 0.0325 0.00630422
5.16988e-26 -0.035877 0.00479858 0.00621531
8.08456e-20 -0.028377 0.0225 0.00624653
0 0.000373 0.03625 0.00639203
0 -0.022127 0.02875 0.00627437
0 -0.002127 0.03625 0.00637727
0 0.034123 0.0124878 0.00665958
0 0.002873 0.03625 0.00640701
1.0842e-19 -0.034627 0.011217 0.00622024
1.0842e-19 0.035373 0.008656 0.00667298
-1.0842e-19 -0.029627 0.02125 0.006241
-1.57772e-30 0.016623 0.0325 0.00650074
0 0.025373 0.02625 0.00657302
8.08456e-20 0.026623 0.025 0.00658436
0 -0.004627 0.03625 0.0063629
5.84013e-20 -0.020877 0.03 0.00628003
-1.91544e-20 0.024123 0.0275 0.00656181
0 -0.033377 0.0149988 0.00622524
1.0842e-19 0.027873 0.02375 0.0065958
3.30872e-24 0.036623 1.42928e-08 0.006685
0 -0.035877 0.00736572 0.00621515
0 0.005373 0.03625 0.0064224
-1.91544e-20 -0.010877 0.035 0.00632915
-1.0842e-19 0.032873 0.0162494 0.00664546
0 0.036623 0.00233888 0.00668522
-1.0842e-19 0.022873 0.02875 0.00655069
0 -0.014627 0.03375 0.00630994
-3.54881e-20 -0.030877 0.02 0.00623555
1.58401e-19 0.029123 0.0225 0.00660737
3.28979e-21 0.011623 0.035 0.00646377
0 -0.019627 0.03125 0.00628565
0 0.036623 0.00479858 0.00668524
0 -0.007127 0.03625 0.00634876
-1.91544e-20 0.021623 0.03 0.00653975
0 0.030373 0.02125 0.00661903
0 0.015373 0.03375 0.00649044
-1.0842e-19 0.007873 0.03625 0.00643802
0 0.035373 0.011217 0.00667135
1.0842e-19 -0.037127 0.00116943 0.00620951
-1.0842e-19 -0.032127 0.01875 0.00623007
1.0406e-19 -0.035877 0.00994629 0.00621484
0 -0.034627 0.0137433 0.00621979
8.07794e-28 0.034123 0.0149988 0.00665732
-2.1684e-19 -0.037127 0.00356872 0.00620973
0 0.020373 0.03125 0.00652891
8.08456e-20 -0.018377 0.0325 0.00629131
0 0.036623 0.00736572 0.00668451
8.08456e-20 0.031623 0.02 0.00663081
-1.91544e-20 -0.013377 0.035 0.00631575
-1.0842e-19 -0.009627 0.03625 0.00633502
-1.13044e-19 -0.000877 0.0375 0.00638342
6.45119e-20 0.001623 0.0375 0.00639822
-2.1684e-19 -0.037127 0.00608215 0.00620967
6.45119e-20 -0.003377 0.0375 0.00636893
-6.94198e-29 -0.033377 0.0174789 0.00622468
0 -0.033377 0.0175 0.00622467
0 0.010373 0.03625 0.00645406
-1.91544e-20 0.019123 0.0325 0.00651821
6.45119e-20 0.004123 0.0375 0.00641333
-3.54881e-20 0.014123 0.035 0.00648036
0 -0.027127 0.02625 0.00625106
8.08456e-20 -0.025877 0.0275 0.00625657