# U  POINT_DATA 38412
# x  y  z  U_x  U_y  U_z
0 -0.000876977 7.72851e-09 2.81236e-07 -5.36416e-08 1.45808e-10
-1.0842e-19 0.000373007 0.00116944 0.0667588 -0.0127771 3.51251e-05
0 0.00162301 7.22625e-09 2.6236e-07 -5.07419e-08 1.43111e-10
-2.1684e-19 -0.00212699 0.00116944 0.0669071 -0.0126302 3.35113e-05
6.51843e-20 -0.000876996 0.00233887 0.0824449 -0.014148 6.51163e-05
1.1324e-19 0.00162301 0.00233887 0.0822929 -0.0143043 6.82816e-05
0 0.00287301 0.00116943 0.0666045 -0.012925 3.68918e-05
1.65436e-24 -0.00337698 7.72879e-09 2.81862e-07 -5.30209e-08 1.39229e-10
1.0842e-19 0.000373004 0.00356872 0.0982317 -0.0156977 9.86753e-05
-1.03398e-25 0.00162301 0.00347077 0.0929022 -0.0150725 9.7414e-05
0 -0.000876997 0.0039882 0.0979037 -0.0152632 0.00010565
-2.99957e-20 -0.003377 0.00233887 0.0825915 -0.0139927 6.21535e-05
0 0.00412303 6.77238e-09 2.45297e-07 -4.8108e-08 1.40929e-10
2.1684e-19 -0.002127 0.00356872 0.098382 -0.0155331 9.41397e-05
1.0842e-19 0.002873 0.00356872 0.0980764 -0.0158638 0.000103467
-5.64216e-20 0.00412301 0.00233887 0.0821352 -0.0144615 7.16318e-05
0 -0.004627 0.00116943 0.0670497 -0.0124844 3.20403e-05
0 -0.000876998 0.00479858 0.105499 -0.0158112 0.000125565
-5.16988e-26 0.00412301 0.00276507 0.0861303 -0.0147519 8.31261e-05
0 0.001623 0.00479858 0.105348 -0.0159738 0.000131589
2.58494e-26 -0.003377 0.00418769 0.09992 -0.015238 0.000105536
-1.0842e-19 0.00537301 0.00116944 0.0664441 -0.0130738 3.87464e-05
0 -0.004627 0.00356872 0.0985272 -0.0153692 8.98632e-05
-5.16988e-26 -0.003377 0.00479858 0.105646 -0.0156495 0.000119871
1.65436e-24 -0.005877 7.46194e-09 2.72702e-07 -5.05934e-08 1.28385e-10
0 0.000373001 0.00608215 0.112721 -0.0160894 0.000158735
6.46235e-27 0.00566877 0.00233887 0.0820341 -0.0145593 7.38148e-05
-3.8015e-20 -0.005877 0.00233887 0.0827329 -0.0138385 5.93507e-05
1.03398e-25 0.004123 0.00479858 0.105191 -0.0161372 0.000137968
1.0842e-19 -0.002127 0.00608215 0.112869 -0.0159301 0.000151553
1.0842e-19 0.005373 0.00356873 0.0979157 -0.0160303 0.000108504
0 0.00662302 6.54409e-09 2.29984e-07 -4.5765e-08 1.39329e-10
-1.0842e-19 0.002873 0.00608215 0.112569 -0.0162497 0.000166358
-3.61892e-25 0.006623 0.00230816 0.0808952 -0.0144277 7.41753e-05
-1.29247e-26 0.006623 0.00233887 0.0819717 -0.0146197 7.51623e-05
0 -0.005877 0.00394677 0.0978036 -0.0149173 9.53827e-05
-2.1684e-19 -0.00712701 0.00116943 0.0671867 -0.0123395 3.05852e-05
0 -0.000876999 0.00736572 0.117448 -0.0159383 0.000179939
-5.16988e-26 0.001623 0.00736572 0.1173 -0.0160946 0.000188589
0 -0.005877 0.00479858 0.105788 -0.0154888 0.000114471
-1.0842e-19 -0.004627 0.00608215 0.113012 -0.0157713 0.000144733
1.0842e-19 0.007873 0.00116944 0.0662772 -0.0132236 4.06376e-05
-2.1684e-19 -0.007127 0.00356872 0.0986678 -0.0152067 8.58115e-05
0 -0.003377 0.00736572 0.117592 -0.0157827 0.000171784
-1.0842e-19 0.005373 0.00608215 0.112412 -0.0164104 0.000174466
1.03398e-25 0.006623 0.00479858 0.10503 -0.0163015 0.000144759
1.65436e-24 -0.008377 7.22726e-09 2.64657e-07 -4.84281e-08 1.18575e-10
-1.03398e-25 0.004123 0.00736572 0.117147 -0.0162516 0.000197797
0 0.007873 0.00356873 0.0977495 -0.0161982 0.000113897
1.0842e-19 0.000373 0.00865601 0.122037 -0.0159428 0.000209567
-1.33241e-19 -0.008377 0.00233887 0.082869 -0.0136853 5.66663e-05
0 -0.002127 0.008656 0.122181 -0.0157905 0.000199991
0 -0.008377 0.00311946 0.0901858 -0.0142069 7.33847e-05
-1.0842e-19 0.002873 0.008656 0.121888 -0.0160962 0.00021979
0 0.009123 5.99077e-09 2.09992e-07 -4.23776e-08 1.33927e-10
0 -0.007127 0.00608215 0.113151 -0.0156136 0.000138247
-5.16988e-26 0.009123 0.00221178 0.0773571 -0.0139758 7.46246e-05
5.16988e-26 0.009123 0.00233887 0.081802 -0.0147789 7.89126e-05
0 -0.005877 0.00736572 0.117732 -0.0156279 0.000164038
0 -0.008377 0.00479858 0.105925 -0.0153289 0.000109347
-1.0842e-19 -0.009627 0.00116943 0.067318 -0.0121956 2.91644e-05
0 -0.004627 0.00865601 0.122321 -0.0156387 0.000190944
1.98693e-20 0.006623 0.00736572 0.11699 -0.0164093 0.000207576
1.0842e-19 0.007873 0.00608215 0.11225 -0.0165725 0.000183139
0 -0.000877 0.00994629 0.125547 -0.0157181 0.000227444
0 0.001623 0.00994629 0.125403 -0.0158678 0.000238489
0 0.005373 0.008656 0.121735 -0.0162497 0.000230673
0 -0.009627 0.00356873 0.0988034 -0.0150448 8.19618e-05
0 0.009123 0.00479858 0.104863 -0.0164669 0.000151972
0 0.010373 0.00116944 0.0661033 -0.0133741 4.26941e-05
0 -0.003377 0.00994629 0.125688 -0.0155691 0.000217025
-4.24601e-20 0.004123 0.00994629 0.125254 -0.016018 0.000250216
0 -0.010877 7.09664e-09 2.60374e-07 -4.6993e-08 1.1109e-10
0 0.010373 0.00356873 0.0975779 -0.0163671 0.000119614
-7.0609e-20 -0.010877 0.00233887 0.0829999 -0.0135331 5.41294e-05
-5.16988e-26 -0.008377 0.00736572 0.117867 -0.0154737 0.000156668
4.52364e-26 -0.010877 0.00251816 0.0846806 -0.0136524 5.78014e-05
2.1684e-19 -0.007127 0.008656 0.122458 -0.0154877 0.000182311
1.0842e-19 0.000373 0.011217 0.128897 -0.0156433 0.000255914
0 -0.009627 0.00608215 0.113285 -0.0154564 0.000132105
0 -0.002127 0.011217 0.129038 -0.0154972 0.000244066
0 -0.005877 0.00994629 0.125824 -0.0154208 0.000207158
2.1684e-19 0.002873 0.011217 0.128752 -0.0157902 0.000268435
0 0.011623 5.20219e-09 1.81857e-07 -3.72205e-08 1.22295e-10
-2.1684e-19 0.007873 0.008656 0.121578 -0.0164042 0.00024213
1.03398e-25 0.009123 0.00736572 0.116828 -0.0165678 0.000217895
4.1359e-25 0.011623 0.0019339 0.0674929 -0.0123524 6.85173e-05
0 0.011623 0.00233887 0.0816261 -0.0149391 8.28651e-05
0 -0.010877 0.00479858 0.106058 -0.01517 0.000104507
2.58494e-26 0.006623 0.00994629 0.1251 -0.0161687 0.000262617
0 0.010373 0.00608215 0.112083 -0.0167349 0.000192255
-2.1684e-19 -0.004627 0.011217 0.129174 -0.0153516 0.000232871
-1.0842e-19 -0.012127 0.00116943 0.0674439 -0.0120528 2.78729e-05
-1.0842e-19 0.005373 0.011217 0.128602 -0.0159373 0.000281703
0 -0.000877 0.0124878 0.131724 -0.0154004 0.000271285
2.06795e-25 0.011623 0.00479858 0.104691 -0.0166331 0.000159504
0 0.001623 0.0124878 0.131582 -0.0155441 0.000284486
0 -0.012127 0.00356872 0.0989345 -0.0148843 7.83385e-05
-1.0842e-19 0.012873 0.00116944 0.0659224 -0.0135255 4.49004e-05
0 -0.003377 0.0124878 0.131861 -0.0152573 0.000258778
0 -0.009627 0.008656 0.122589 -0.015337 0.000174086
0 -0.008377 0.00994629 0.125957 -0.0152731 0.000197792
0 -0.010877 0.00736572 0.117998 -0.0153203 0.0001497
-2.35175e-20 0.004123 0.0124878 0.131437 -0.0156882 0.000298432
0 -0.007127 0.011217 0.129308 -0.0152068 0.000222291
-1.0842e-19 0.012873 0.00356872 0.0974006 -0.0165373 0.000125502
0 -0.013377 6.94728e-09 2.55363e-07 -4.546e-08 1.04043e-10
2.58494e-26 0.009123 0.00994629 0.124943 -0.01632 0.000275671
1.0842e-19 0.010373 0.008656 0.121415 -0.016559 0.000254165
0 -0.012127 0.00608215 0.113416 -0.0153003 0.000126326
9.65629e-20 -0.013377 0.00233887 0.0831261 -0.0133819 5.17864e-05
9.04729e-26 -0.013377 0.00281502 0.0875901 -0.0136975 6.11131e-05
-1.0842e-19 0.007873 0.011217 0.128449 -0.016085 0.000295688
-1.0842e-19 0.000373 0.0137433 0.1344 -0.0153015 0.000299419
0 0.011623 0.00736572 0.116661 -0.0167268 0.000228739
0 -0.005877 0.0124878 0.131995 -0.0151147 0.000246961
0 -0.002127 0.0137433 0.134537 -0.0151609 0.000285566
-1.0842e-19 0.002873 0.0137433 0.134258 -0.0154426 0.000313993
0 0.014123 4.00393e-09 1.35293e-07 -2.80694e-08 9.57645e-11
0 0.006623 0.0124878 0.131287 -0.0158327 0.000313176
-4.1359e-25 0.014123 0.00137285 0.0478052 -0.00886335 5.10882e-05
1.03398e-25 -0.013377 0.00479858 0.106187 -0.015012 9.99663e-05
1.0842e-19 0.012873 0.00608215 0.111911 -0.0168983 0.00020171
-4.1359e-25 0.014123 0.00233887 0.0814436 -0.0151001 8.70368e-05
1.0842e-19 -0.004627 0.0137433 0.134672 -0.0150207 0.000272441
-1.0842e-19 -0.014627 0.00116943 0.0675646 -0.0119108 2.67115e-05
-1.29247e-26 -0.010877 0.00994629 0.126086 -0.0151258 0.000188925
1.0842e-19 0.005373 0.0137433 0.134112 -0.015584 0.000329406
-4.1359e-25 0.0147726 0 0 0 0
-2.1684e-19 -0.009627 0.011217 0.129437 -0.0150622 0.000212273
0 -0.012127 0.008656 0.122718 -0.0151872 0.000166356
2.06795e-25 0.014123 0.00479858 0.104514 -0.0168003 0.00016744
0 -0.000877 0.0149988 0.136819 -0.0150568 0.000313643
-1.26722e-19 -0.008377 0.0124878 0.132125 -0.0149727 0.000235816
0 -0.014627 0.00356872 0.0990612 -0.0147245 7.50065e-05
0 0.001623 0.0149988 0.136681 -0.0151952 0.000328787
0 -0.013377 0.00736572 0.118125 -0.0151676 0.000143123
-1.0842e-19 0.010373 0.011217 0.128291 -0.0162331 0.000310411
0 0.011623 0.00994629 0.12478 -0.0164717 0.000289467
0 -0.003377 0.0149988 0.136954 -0.0149189 0.000299284
-1.0842e-19 0.015373 0.00116944 0.0657342 -0.0136777 4.71915e-05
0 0.009123 0.0124878 0.131134 -0.0159777 0.00032872
1.0842e-19 -0.007127 0.0137433 0.134802 -0.0148811 0.000260083
-1.0842e-19 0.012873 0.008656 0.121248 -0.0167145 0.00026694
-3.93026e-20 0.004123 0.0149988 0.136539 -0.0153339 0.000344759
1.0842e-19 0.015373 0.00356872 0.097217 -0.0167078 0.000131865
0 0.007873 0.0137433 0.133962 -0.0157259 0.000345706
0 -0.014627 0.00608215 0.113542 -0.0151446 0.000120867
-8.27181e-25 -0.015877 6.63832e-09 2.44436e-07 -4.29221e-08 9.52095e-11
0 0.014123 0.00736572 0.116488 -0.0168867 0.000240189
-1.41409e-20 -0.015877 0.00233887 0.0832476 -0.0132318 4.96042e-05
1.9387e-26 -0.015877 0.00252442 0.0849874 -0.0133542 5.30813e-05
0 -0.005877 0.0149988 0.137085 -0.0147814 0.000285715
1.0842e-19 0.000373 0.0162494 0.139099 -0.0149505 0.000342589
0 -0.002127 0.0162494 0.139234 -0.0148148 0.000326943
8.07794e-28 0.006623 0.0149988 0.136393 -0.015473 0.000361631
1.0842e-19 0.002873 0.0162494 0.138961 -0.0150865 0.000359088
0 -0.012127 0.011217 0.129563 -0.0149182 0.000202788
0 0.015373 0.00608215 0.111734 -0.0170627 0.000211801
0 -0.010877 0.0124878 0.132251 -0.014831 0.000225271
0 -0.015877 0.00479858 0.106311 -0.0148549 9.56968e-05
-1.65436e-24 0.016623 1.14059e-08 4.15885e-07 -8.68286e-08 3.03497e-10
0 -0.013377 0.00994629 0.126211 -0.0149792 0.000180535
1.0842e-19 -0.009627 0.0137433 0.134929 -0.0147418 0.000248463
-8.27181e-25 0.016623 0.00233887 0.0812542 -0.0152621 9.14935e-05
0 -0.004627 0.0162494 0.139365 -0.0146795 0.00031213
0 -0.014627 0.008656 0.122842 -0.015038 0.000159015
-6.46235e-27 0.011623 0.0124878 0.130975 -0.0161231 0.000345156
0 0.012873 0.011217 0.128128 -0.0163818 0.000326048
0 0.005373 0.0162494 0.138818 -0.0152229 0.000376489
1.0842e-19 -0.017127 0.00116943 0.0676806 -0.0117699 2.55818e-05
-2.01948e-28 -0.008377 0.0149988 0.137212 -0.0146443 0.000272928
-1.0842e-19 0.010373 0.0137433 0.133808 -0.0158681 0.000362866
-2.58494e-26 0.014123 0.00994629 0.124613 -0.0166241 0.000304074
0 0.016623 0.00479858 0.10433 -0.0169683 0.000175954
-2.1684e-19 -0.017127 0.00356872 0.0991839 -0.0145662 7.18676e-05
0 -0.015877 0.00736572 0.118249 -0.0150157 0.000136879
3.17122e-28 -0.000877 0.0174912 0.14124 -0.014711 0.000356141
3.28979e-21 -0.000877 0.0175 0.141255 -0.0147098 0.000356291
-8.07794e-28 0.009123 0.0149988 0.136243 -0.0156124 0.000379441
2.35081e-28 0.001623 0.0174922 0.141106 -0.0148444 0.000373088
-1.57772e-30 0.001623 0.0175 0.14112 -0.0148433 0.000373227
-1.0842e-19 0.015373 0.00865601 0.121076 -0.0168707 0.000280423
0 -0.007127 0.0162494 0.139493 -0.0145446 0.000298154
-2.8399e-28 -0.003377 0.0174891 0.141368 -0.0145781 0.000340071
0 -0.003377 0.0175 0.141387 -0.0145766 0.00034025
1.0842e-19 0.017873 0.00116944 0.0655383 -0.0138309 4.9582e-05
-2.00371e-28 0.004123 0.0174928 0.140968 -0.0149782 0.000390956
-1.57772e-30 0.004123 0.0175 0.140981 -0.0149772 0.000391089
0 0.007873 0.0162494 0.138672 -0.0153596 0.000394859
1.0842e-19 -0.017127 0.00608215 0.113665 -0.0149903 0.000115689
0 0.016623 0.00736572 0.116311 -0.0170472 0.000252342
1.0842e-19 0.017873 0.00356872 0.0970272 -0.01688 0.000138715
-3.23117e-27 -0.013377 0.0124878 0.132374 -0.0146899 0.000215257
0 -0.012127 0.0137433 0.135052 -0.014603 0.000237416
8.27181e-25 -0.018377 6.50332e-09 2.3987e-07 -4.15475e-08 8.91592e-11
-1.0842e-19 -0.014627 0.011217 0.129686 -0.0147748 0.000193794
1.29373e-28 -0.005877 0.0174846 0.141488 -0.0144458 0.00032484
8.08456e-20 -0.005877 0.0175 0.141515 -0.0144437 0.000325082
1.25722e-19 -0.018377 0.00233887 0.0833647 -0.0130827 4.74908e-05
0 -0.010877 0.0149988 0.137336 -0.0145077 0.000260825
-2.58494e-26 -0.018377 0.0024529 0.0844341 -0.0131576 4.95375e-05
-2.2877e-28 0.006623 0.0174931 0.140826 -0.0151124 0.000409798
0 0.006623 0.0175 0.140838 -0.0151114 0.000409931
0 -0.015877 0.00994629 0.126333 -0.0148334 0.000172563
-1.0842e-19 0.000373 0.01875 0.143278 -0.0146025 0.00038647
1.0842e-19 0.012873 0.0137433 0.13365 -0.0160107 0.000381078
0 0.014123 0.0124878 0.130813 -0.0162689 0.00036256
0 -0.002127 0.01875 0.14341 -0.0144714 0.000369154
-1.0842e-19 0.017873 0.00608215 0.111551 -0.0172275 0.000222608
1.0842e-19 -0.009627 0.0162494 0.139617 -0.0144101 0.000284961
1.03398e-25 0.0189403 0 0 0 0
0 0.002873 0.01875 0.143142 -0.0147339 0.000404752
4.03897e-28 0.011623 0.0149988 0.136089 -0.0157522 0.000398294
0 -0.018377 0.00479858 0.106432 -0.0146989 9.1639e-05
0 0.015373 0.011217 0.127961 -0.0165309 0.000342567
2.06795e-25 0.019123 8.99002e-10 3.17841e-08 -6.78476e-09 2.49964e-11
0 0.019123 0.000443798 0.0153806 -0.00292689 1.82522e-05
-1.0842e-19 -0.017127 0.008656 0.122964 -0.0148897 0.000152013
1.91219e-20 0.019123 0.00233887 0.0810578 -0.015425 9.61916e-05
-1.0842e-19 0.010373 0.0162494 0.138522 -0.0154964 0.000414268
1.03398e-25 0.0193061 0 0 0 0
-1.0842e-19 -0.004627 0.01875 0.143538 -0.0143406 0.000352766
0 0.016623 0.00994629 0.124441 -0.016777 0.000319496
3.15544e-29 -0.008377 0.0174794 0.141604 -0.0143139 0.000310435
3.28979e-21 -0.008377 0.0175 0.14164 -0.0143112 0.000310747
1.0842e-19 0.005373 0.01875 0.143002 -0.0148656 0.000424019
0 -0.019627 0.00116943 0.0677922 -0.0116302 2.44307e-05
0 0.019123 0.00479858 0.104141 -0.0171372 0.000184992
-5.52203e-29 0.009123 0.0174927 0.140678 -0.0152469 0.000429696
-9.67102e-20 0.009123 0.0175 0.140691 -0.0152458 0.000429844
-5.16988e-26 -0.018377 0.00736572 0.118369 -0.0148647 0.000130983
-1.0842e-19 0.017873 0.008656 0.1209 -0.0170276 0.00029466
1.0842e-19 -0.019627 0.00356872 0.0993023 -0.0144085 6.88027e-05
-9.67102e-20 -0.000877 0.02 0.145243 -0.0143685 0.000399911
-1.0842e-19 -0.007127 0.01875 0.143664 -0.0142101 0.00033727
3.28979e-21 0.001623 0.02 0.14511 -0.0144976 0.00041851
-1.0842e-19 -0.014627 0.0137433 0.135172 -0.0144649 0.00022689
0 -0.013377 0.0149988 0.137457 -0.0143716 0.000249308
0 -0.015877 0.0124878 0.132494 -0.0145495 0.000205748
1.0842e-19 -0.012127 0.0162494 0.139739 -0.0142761 0.000272413
3.28979e-21 -0.003377 0.02 0.145372 -0.0142396 0.000382293
0 0.007873 0.01875 0.142859 -0.0149976 0.000444348
1.0842e-19 0.020373 0.00116944 0.0653347 -0.0139848 5.20994e-05
3.28979e-21 0.004123 0.02 0.144974 -0.014627 0.000438142
0 -0.017127 0.011217 0.129805 -0.0146322 0.00018525
0 0.019123 0.00736572 0.116129 -0.0172084 0.00026525
0 -0.019627 0.00608215 0.113784 -0.0148367 0.000110812
1.57772e-30 -0.010877 0.0174793 0.141725 -0.0141819 0.000296852
0 0.014123 0.0149988 0.13593 -0.0158923 0.000418258
0 -0.010877 0.0175 0.141762 -0.0141792 0.000297153
1.0842e-19 0.015373 0.0137433 0.133487 -0.0161537 0.000400316
0 0.020373 0.00356872 0.096831 -0.0170529 0.000145821
-1.0842e-19 0.012873 0.0162494 0.138367 -0.0156339 0.000434893
6.46235e-27 0.016623 0.0124878 0.130645 -0.0164152 0.000380932
3.28979e-21 -0.005877 0.02 0.145498 -0.0141111 0.000365617
0 -0.020877 7.37805e-09 2.72575e-07 -4.65714e-08 9.67224e-11
0 -0.018377 0.00994629 0.126452 -0.0146881 0.000165032
-2.99767e-28 0.011623 0.0174915 0.140525 -0.0153819 0.000450759
8.0752e-20 -0.020877 0.00233887 0.0834776 -0.0129346 4.54729e-05
-9.67043e-20 0.011623 0.0175 0.140541 -0.0153806 0.000450938
3.28979e-21 0.006623 0.02 0.144834 -0.0147567 0.000458863
0 -0.009627 0.01875 0.143786 -0.0140801 0.000322595
1.0842e-19 0.017873 0.011217 0.12779 -0.0166805 0.000359997
1.0842e-19 0.000373 0.02125 0.147078 -0.0142636 0.000431445
0 0.020373 0.00608215 0.111362 -0.017393 0.000234059
-5.16988e-26 -0.020877 0.00408776 0.0998814 -0.0140787 7.55597e-05
-1.0842e-19 -0.002127 0.02125 0.147207 -0.0141366 0.000412577
0 -0.020877 0.00479858 0.106549 -0.0145437 8.77882e-05
0 0.010373 0.01875 0.142712 -0.0151298 0.000465891
-1.0842e-19 0.002873 0.02125 0.146945 -0.0143906 0.000451375
0 -0.019627 0.00865601 0.123081 -0.0147418 0.000145483
-5.04618e-20 0.019123 0.00994629 0.124264 -0.0169305 0.000335819
0 0.021623 1.1374e-08 3.92539e-07 -8.42921e-08 3.18161e-10
-1.91544e-20 -0.008377 0.02 0.14562 -0.0139829 0.000349844
1.0842e-19 -0.004627 0.02125 0.147333 -0.01401 0.000394676
1.62598e-19 0.021623 0.00233888 0.0808542 -0.015589 0.000101107
4.03897e-28 -0.015877 0.0149988 0.137574 -0.014236 0.00023838
0 -0.014627 0.0162494 0.139856 -0.0141426 0.000260469
-1.0842e-19 0.005373 0.02125 0.146809 -0.014518 0.000472423
0 -0.017127 0.0137433 0.135289 -0.0143272 0.000216925
3.28979e-21 0.009123 0.02 0.144691 -0.0148866 0.000480763
8.83524e-29 -0.013377 0.0174821 0.141848 -0.0140499 0.000283985
8.08456e-20 -0.013377 0.0175 0.14188 -0.0140476 0.000284235
-1.0842e-19 0.020373 0.008656 0.120717 -0.017185 0.000309804
0 -0.020877 0.00736572 0.118486 -0.0147144 0.000125433
4.1359e-25 0.021623 0.00479858 0.103945 -0.0173071 0.000194484
1.0842e-19 -0.022127 0.00116943 0.0678994 -0.0114916 2.3416e-05
3.23117e-27 -0.018377 0.0124878 0.13261 -0.0144096 0.000196758
0 -0.012127 0.01875 0.143904 -0.0139504 0.000308637
1.0842e-19 0.015373 0.0162494 0.138208 -0.0157714 0.000456673
0 0.016623 0.0149988 0.135767 -0.0160328 0.000439327
0 -0.022127 0.00356872 0.0994168 -0.014252 6.59319e-05
1.0842e-19 -0.007127 0.02125 0.147456 -0.0138836 0.000377755
-2.11415e-28 0.014123 0.0174909 0.14037 -0.015517 0.000473052
0 0.014123 0.0175 0.140386 -0.0155157 0.000473253
8.08456e-20 -0.000877 0.0225 0.148893 -0.0140376 0.000444639
-1.0842e-19 0.017873 0.0137433 0.13332 -0.0162972 0.000420605
8.08456e-20 0.001623 0.0225 0.148764 -0.0141627 0.000464782
0 -0.019627 0.011217 0.12992 -0.0144899 0.000177211
0 0.007873 0.02125 0.146668 -0.0146456 0.000494661
-1.0842e-19 0.012873 0.01875 0.142561 -0.0152625 0.000488693
3.28979e-21 -0.003377 0.0225 0.14902 -0.0139128 0.000425555
-9.67102e-20 -0.010877 0.02 0.14574 -0.013855 0.000334887
-6.46235e-27 0.019123 0.0124878 0.130474 -0.0165619 0.00040037
-4.67455e-20 0.021623 0.00736572 0.11594 -0.0173703 0.000278914
8.08456e-20 0.004123 0.0225 0.14863 -0.0142879 0.00048606
-1.0842e-19 0.022873 0.00116944 0.0651231 -0.0141397 5.47688e-05
1.0842e-19 -0.022127 0.00608215 0.113899 -0.0146839 0.000106196
0 -0.020877 0.00994629 0.126566 -0.0145434 0.000157936
3.28979e-21 0.011623 0.02 0.144543 -0.0150168 0.000503914
1.0842e-19 0.022873 0.00356872 0.0966282 -0.0172273 0.000153263
3.28979e-21 -0.005877 0.0225 0.149143 -0.0137882 0.000407484
1.0842e-19 0.020373 0.011217 0.127613 -0.0168305 0.000378461
-2.58494e-26 -0.0227717 0.00479858 0.106634 -0.0144269 8.50166e-05
-1.0842e-19 -0.009627 0.02125 0.147576 -0.0137577 0.000361756
-1.65436e-24 -0.023377 8.97906e-09 3.32239e-07 -5.59961e-08 1.12766e-10
8.08456e-20 0.006623 0.0225 0.148493 -0.0144133 0.00050854
1.25775e-19 -0.023377 0.00233887 0.0835865 -0.0127877 4.3567e-05
1.0842e-19 -0.017127 0.0162494 0.139972 -0.0140096 0.000249193
7.09975e-29 -0.015877 0.017484 0.141967 -0.0139185 0.000271799
5.84013e-20 -0.015877 0.0175 0.141996 -0.0139164 0.000272014
0 0.010373 0.02125 0.146524 -0.0147736 0.000518153
1.0842e-19 0.022873 0.00608215 0.111168 -0.0175597 0.00024609
0 -0.018377 0.0149988 0.137689 -0.0141008 0.000228066
0 0.000373 0.02375 0.150581 -0.0139367 0.000477421
0 -0.022127 0.008656 0.123195 -0.0145948 0.000139301
0 -0.014627 0.01875 0.14402 -0.0138212 0.000295416
-6.33372e-20 0.021623 0.00994629 0.124082 -0.0170844 0.00035313
1.0842e-19 -0.002127 0.02375 0.150708 -0.0138137 0.000457113
1.29247e-26 -0.023377 0.00479858 0.106662 -0.0143896 8.41312e-05
0 0.002873 0.02375 0.150451 -0.0140599 0.000498886
1.0842e-19 -0.019627 0.0137433 0.135403 -0.01419 0.00020752
-1.91544e-20 -0.008377 0.0225 0.149263 -0.0136639 0.000390378
8.08456e-20 -0.013377 0.02 0.145856 -0.0137275 0.000320693
1.29247e-26 -0.023377 0.00594996 0.112015 -0.0144682 0.000100299
0 0.024123 1.13291e-08 4.0066e-07 -8.72156e-08 3.41862e-10
8.04638e-29 0.016623 0.0174918 0.140212 -0.0156522 0.000496617
1.58401e-19 0.016623 0.0175 0.140227 -0.0156509 0.000496804
-2.1684e-19 0.017873 0.0162494 0.138045 -0.0159094 0.000479636
-1.0842e-19 -0.004627 0.02375 0.150832 -0.013691 0.000437857
-9.11371e-20 0.024123 0.00233888 0.0806431 -0.0157539 0.000106322
-1.0842e-19 0.015373 0.01875 0.142406 -0.015395 0.000512744
-9.67102e-20 0.009123 0.0225 0.148353 -0.014539 0.00053229
0 0.019123 0.0149988 0.135599 -0.0161737 0.0004616
-1.03437e-19 -0.020877 0.0124878 0.132723 -0.0142702 0.000188257
-1.0842e-19 0.005373 0.02375 0.150317 -0.0141833 0.000521557
0 0.022873 0.00865601 0.12053 -0.0173429 0.000325843
0 -0.012127 0.02125 0.147693 -0.0136319 0.00034656
8.08456e-20 0.014123 0.02 0.144392 -0.0151471 0.000528361
0 -0.023377 0.00736572 0.118598 -0.0145649 0.000120178
0 0.020373 0.0137433 0.133148 -0.0164409 0.000442162
9.7039e-20 0.024123 0.00479858 0.103743 -0.017478 0.000204497
1.0842e-19 -0.024627 0.00116943 0.0680025 -0.0113542 2.24295e-05
1.0842e-19 -0.007127 0.02375 0.150952 -0.0135684 0.000419647
1.0842e-19 -0.022127 0.011217 0.130033 -0.0143485 0.000169584
-1.0842e-19 0.012873 0.02125 0.146376 -0.0149015 0.00054292
1.0842e-19 -0.024627 0.00356872 0.0995277 -0.0140967 6.31515e-05
-1.23312e-19 0.021623 0.0124878 0.130297 -0.016709 0.000420971
-1.91544e-20 -0.010877 0.0225 0.149381 -0.01354 0.000374165
3.28979e-21 -0.000877 0.025 0.152272 -0.0137197 0.000490221
0 0.007873 0.02375 0.15018 -0.0143066 0.00054552
-1.91544e-20 0.001623 0.025 0.152145 -0.0138409 0.000511808
0 0.024123 0.00736572 0.115746 -0.0175329 0.000293344
3.28979e-21 -0.003377 0.025 0.152396 -0.0135986 0.000469777
8.08456e-20 0.011623 0.0225 0.148208 -0.0146648 0.000557354
-1.91544e-20 0.004123 0.025 0.152014 -0.0139622 0.000534617
-1.73549e-29 -0.018377 0.0174852 0.142082 -0.0137875 0.000260308
0 -0.024627 0.00608215 0.114011 -0.0145321 0.000101812
0 -0.018377 0.0175 0.142108 -0.0137856 0.0002605
1.0842e-19 -0.017127 0.01875 0.144133 -0.0136923 0.000282973
1.0842e-19 0.025373 0.00116944 0.0649028 -0.0142952 5.76455e-05
1.29247e-26 -0.023377 0.00994629 0.126678 -0.0143995 0.000151224
-1.0842e-19 0.022873 0.011217 0.127431 -0.0169811 0.000398041
0 -0.019627 0.0162494 0.140083 -0.0138769 0.000238585
8.08456e-20 -0.015877 0.02 0.145969 -0.0136004 0.000307286
0 0.025373 0.00356873 0.0964184 -0.0174026 0.000161214
-1.0842e-19 -0.009627 0.02375 0.15107 -0.0134461 0.000402355
-9.67102e-20 -0.005877 0.025 0.152517 -0.0134778 0.000450408
0 -0.020877 0.0149988 0.1378 -0.0139662 0.000218312
1.0842e-19 -0.014627 0.02125 0.147806 -0.0135066 0.000332158
-1.91544e-20 0.006623 0.025 0.15188 -0.0140836 0.000558714
0 -0.025877 1.00763e-08 3.73392e-07 -6.20804e-08 1.21305e-10
0 0.017873 0.01875 0.142247 -0.0155279 0.000538156
0 0.010373 0.02375 0.150039 -0.0144302 0.000570827
-1.54617e-28 0.019123 0.0174929 0.140051 -0.0157876 0.000521501
-1.91468e-20 0.019123 0.0175 0.140063 -0.0157865 0.000521673
-1.09365e-19 -0.025877 0.00233887 0.0836914 -0.0126419 4.17646e-05
-1.91544e-20 0.016623 0.02 0.144236 -0.0152775 0.000554192
-1.0842e-19 -0.022127 0.0137433 0.135513 -0.0140534 0.00019859
0 0.020373 0.0162494 0.137877 -0.0160477 0.000503917
1.0842e-19 0.025373 0.00608215 0.110967 -0.0177272 0.000258785
5.16988e-26 0.024123 0.00994629 0.123895 -0.017239 0.000371464
-1.0842e-19 -0.024627 0.008656 0.123306 -0.0144485 0.000133464
8.08456e-20 -0.013377 0.0225 0.149495 -0.0134163 0.000358798
-1.0842e-19 0.015373 0.02125 0.146224 -0.0150295 0.000569087
0 0.000373 0.02625 0.153837 -0.0136238 0.000524002
0 0.021623 0.0149988 0.135428 -0.0163148 0.000485166
-3.60172e-20 -0.025877 0.00479858 0.106771 -0.0142364 8.06728e-05
0 -0.002127 0.02625 0.153962 -0.0135045 0.000502347
-1.91544e-20 -0.008377 0.025 0.152635 -0.0133572 0.000432043
-1.0842e-19 0.002873 0.02625 0.15371 -0.0137431 0.000546925
-3.41447e-20 -0.023377 0.0124878 0.132833 -0.0141314 0.000180211
-1.91544e-20 0.014123 0.0225 0.148059 -0.0147907 0.00058381
-1.91544e-20 0.009123 0.025 0.151742 -0.0142052 0.000584178
0 0.026623 3.78395e-10 1.33364e-08 -2.94469e-09 1.20124e-11
-1.0842e-19 -0.004627 0.02625 0.154083 -0.0133854 0.000481792
-1.0842e-19 -0.012127 0.02375 0.151184 -0.0133242 0.000385989
1.0842e-19 0.022873 0.0137433 0.132972 -0.0165852 0.000464952
-8.27181e-25 0.026623 0.00233887 0.0804239 -0.0159196 0.000111883
-1.0842e-19 0.005373 0.02625 0.153578 -0.0138626 0.0005711
-1.0842e-19 0.025373 0.008656 0.120336 -0.0175015 0.000342805
1.05013e-26 -0.0257893 0.00736572 0.118704 -0.0144213 0.00011539
7.92252e-21 -0.025877 0.00736572 0.118708 -0.0144161 0.000115216
-8.07794e-28 -0.025877 0.00770613 0.119774 -0.014395 0.00011913
0 0.012873 0.02375 0.149893 -0.014554 0.000597517
0 0.026623 0.00479858 0.103535 -0.0176499 0.000215139
1.0842e-19 -0.024627 0.011217 0.130142 -0.0142076 0.000162392
0 -0.019627 0.01875 0.144243 -0.0135637 0.000271245
0 -0.027127 0.00116944 0.0681012 -0.0112178 2.15208e-05
-9.67102e-20 -0.018377 0.02 0.146079 -0.0134736 0.000294644
1.29247e-26 0.024123 0.0124878 0.130115 -0.0168567 0.000442755
0 -0.007127 0.02625 0.154201 -0.0132665 0.000462336
-2.8399e-29 -0.020877 0.0174855 0.142192 -0.0136571 0.000249429
0 -0.020877 0.0175 0.142217 -0.0136553 0.00024961
-1.91544e-20 -0.010877 0.025 0.15275 -0.0132368 0.000414642
-1.0842e-19 -0.017127 0.02125 0.147917 -0.0133815 0.000318597
2.1684e-19 -0.027127 0.00356872 0.0996348 -0.0139424 6.05902e-05
0 0.007873 0.02625 0.153444 -0.0139821 0.000596679
1.0842e-19 -0.022127 0.0162494 0.140192 -0.0137449 0.000228514
8.08456e-20 -0.000877 0.0275 0.155429 -0.013415 0.000536311
-9.67102e-20 -0.015877 0.0225 0.149606 -0.0132929 0.00034427
8.08456e-20 0.001623 0.0275 0.155305 -0.0135324 0.000559237
5.84013e-20 0.011623 0.025 0.1516 -0.0143268 0.000611062
0 0.026623 0.00736572 0.115547 -0.0176964 0.000308605
-1.91544e-20 0.019123 0.02 0.144077 -0.0154082 0.000581476
-1.0842e-19 0.020373 0.01875 0.142083 -0.0156609 0.000564972
8.08456e-20 -0.003377 0.0275 0.155549 -0.0132976 0.000514585
0 -0.025877 0.00994629 0.126787 -0.0142563 0.00014489
-1.0842e-19 0.025373 0.011217 0.127244 -0.0171322 0.000418778
0 0.017873 0.02125 0.146068 -0.0151578 0.000596783
2.01948e-28 -0.023377 0.0149988 0.137908 -0.0138321 0.000209066
-1.0842e-19 -0.027127 0.00608215 0.114119 -0.0143807 9.76817e-05
-1.91544e-20 0.004123 0.0275 0.155177 -0.01365 0.000583455
6.15312e-29 0.021623 0.0174934 0.139884 -0.0159232 0.000547767
-1.57772e-30 0.021623 0.0175 0.139896 -0.0159221 0.000547933
1.0842e-19 -0.014627 0.02375 0.151296 -0.0132025 0.000370487
1.0842e-19 0.027873 0.00116944 0.0646735 -0.0144514 6.06588e-05
1.0842e-19 -0.009627 0.02625 0.154317 -0.0131479 0.000443836
-1.91544e-20 0.016623 0.0225 0.147907 -0.0149167 0.000611789
0 0.022873 0.0162494 0.137706 -0.016186 0.000529551
0 0.027873 0.00356873 0.0962013 -0.0175788 0.000169703
-9.67102e-20 -0.005877 0.0275 0.155667 -0.0131804 0.000493966
1.0842e-19 -0.024627 0.0137433 0.135621 -0.0139173 0.000190162
0 0.010373 0.02625 0.153306 -0.0141019 0.000623688
-1.91544e-20 0.006623 0.0275 0.155047 -0.0137675 0.000609029
-1.0842e-19 0.015373 0.02375 0.149744 -0.0146778 0.000625718
1.58401e-19 -0.013377 0.025 0.152862 -0.0131167 0.000398177
0 -0.028377 1.04784e-08 3.88845e-07 -6.37754e-08 1.21276e-10
0 0.024123 0.0149988 0.135251 -0.0164563 0.000510044
0 0.026623 0.00994629 0.123702 -0.017394 0.00039083
1.05603e-19 -0.028377 0.00233887 0.0837923 -0.0124971 4.01302e-05
-2.1684e-19 -0.027127 0.008656 0.123414 -0.014303 0.000127961
0 0.027873 0.00608215 0.110761 -0.0178957 0.00027229
5.84013e-20 0.014123 0.025 0.151455 -0.0144485 0.000639436
0 -0.025877 0.0124878 0.13294 -0.0139932 0.000172617
8.08456e-20 -0.008377 0.0275 0.155783 -0.0130634 0.000474429
0 0.000373 0.02875 0.156898 -0.0133237 0.000570882
-4.29502e-20 -0.028377 0.00479858 0.106877 -0.0140841 7.74597e-05
1.0842e-19 -0.002127 0.02875 0.157018 -0.013208 0.000548012
-1.0842e-19 0.025373 0.0137433 0.13279 -0.0167297 0.00048897
1.0842e-19 0.002873 0.02875 0.156774 -0.0134392 0.00059514
-1.91544e-20 -0.020877 0.02 0.146186 -0.0133472 0.000282668
1.0842e-19 -0.012127 0.02625 0.15443 -0.0130293 0.000426387
0 -0.019627 0.02125 0.148025 -0.0132568 0.000305763
-1.91544e-20 0.009123 0.0275 0.154913 -0.013885 0.000636055
-1.0842e-19 -0.022127 0.01875 0.14435 -0.0134357 0.000260092
8.08456e-20 -0.018377 0.0225 0.149714 -0.0131698 0.000330537
-1.0842e-19 -0.004627 0.02875 0.157136 -0.0130927 0.000526189
0 0.029123 1.56263e-08 5.48777e-07 -1.22918e-07 5.22167e-10
0 0.027873 0.008656 0.120138 -0.0176607 0.000360696
-6.31089e-30 -0.023377 0.0174839 0.142295 -0.0135274 0.000239068
5.84047e-20 -0.023377 0.0175 0.142323 -0.0135255 0.000239263
-8.27181e-25 0.029123 0.00233888 0.0801964 -0.0160863 0.000117792
-1.0842e-19 0.012873 0.02625 0.153165 -0.0142213 0.000652217
1.0842e-19 0.005373 0.02875 0.156647 -0.013555 0.000620654
0 -0.017127 0.02375 0.151404 -0.0130811 0.000355837
-5.60997e-20 -0.028377 0.00736572 0.118814 -0.0142681 0.000110534
2.1684e-19 -0.027127 0.011217 0.130248 -0.0140673 0.000155594
0 0.026623 0.0124878 0.129928 -0.0170046 0.000465752
-1.0842e-19 0.020373 0.02125 0.145909 -0.0152862 0.000625993
1.58401e-19 0.021623 0.02 0.143913 -0.0155389 0.000610271
1.0842e-19 -0.024627 0.0162494 0.140298 -0.0136132 0.000218959
0 0.029123 0.00479858 0.103319 -0.0178228 0.000226446
-1.91544e-20 0.019123 0.0225 0.14775 -0.0150428 0.00064134
5.84013e-20 -0.010877 0.0275 0.155895 -0.0129465 0.000455963
-1.0842e-19 0.022873 0.01875 0.141915 -0.0157941 0.000593282
8.08456e-20 -0.015877 0.025 0.152971 -0.0129969 0.000382589
0 -0.007127 0.02875 0.157251 -0.0129773 0.000505547
1.0842e-19 -0.029627 0.00116944 0.0681956 -0.0110824 2.07476e-05
-1.0842e-19 0.017873 0.02375 0.149591 -0.0148017 0.000655569
-3.12389e-28 0.024123 0.0174941 0.139722 -0.0160582 0.000575644