# U  POINT_DATA 34437
# x  y  z  U_x  U_y  U_z
-8.07264e-09 0 0 0 0 0
0.000876982 0 0 0 0 0
-0.000876992 -5.42101e-20 0 0 0 0
0.001623 1.0842e-19 0 0 0 0
-0.00162301 -5.42101e-20 0 0 0 0
0.00124999 3.61401e-20 0.00116944 0.0601285 -0.0113313 3.48009e-05
-0.00125 2.71051e-20 0.00116944 0.0600592 -0.0112392 3.40528e-05
-6.79893e-10 0 0.00233887 0.0823916 -0.0142028 6.62267e-05
0.00249999 1.0842e-19 0 0 0 0
-0.00249999 0 0 0 0 0
-0.00337698 0 0 0 0 0
0.00337699 1.0842e-19 0 0 0 0
0.0025 0 0.00233887 0.082482 -0.014321 6.79085e-05
-0.0025 -1.0842e-19 0.00233887 0.082303 -0.0140854 6.46078e-05
-0.00125 1.807e-20 0.00356872 0.0970725 -0.015442 9.64258e-05
0.00125 0 0.00356872 0.0971724 -0.0155724 9.90263e-05
-0.00375 0 0.00116943 0.0599913 -0.0111475 3.3355e-05
0.00375 3.61401e-20 0.00116943 0.0601995 -0.0114243 3.55803e-05
-0.004123 -5.42101e-20 0 0 0 0
0.00412301 -5.42101e-20 0 0 0 0
4.48412e-10 -1.0842e-19 0.00479858 0.105446 -0.0158682 0.000127678
-0.00499999 -1.0842e-19 0 0 0 0
0.00500001 0 0 0 0 0
-0.00375 0 0.00356872 0.0969744 -0.0153125 9.3917e-05
0.00375 9.03502e-21 0.00356872 0.097274 -0.0157037 0.000101721
0.0025 -1.0842e-19 0.00479858 0.10555 -0.0160024 0.000131339
-0.0025 -1.0842e-19 0.00479858 0.105344 -0.0157349 0.000124139
-0.005 1.0842e-19 0.00233887 0.0822162 -0.0139688 6.30402e-05
0.005 -1.0842e-19 0.00233887 0.0825741 -0.01444 6.96654e-05
-0.00587699 -1.0842e-19 0 0 0 0
0.00587701 0 0 0 0 0
-0.00125 0 0.00608215 0.112346 -0.015963 0.000154751
0.00125 0 0.00608215 0.112451 -0.016098 0.000159346
-0.00625 9.03502e-21 0.00116943 0.0599251 -0.0110567 3.26689e-05
0.00625001 -4.51751e-20 0.00116944 0.0602719 -0.0115175 3.64221e-05
-0.006623 5.42101e-20 0 0 0 0
0.00662301 -5.42101e-20 0 0 0 0
0.005 1.0842e-19 0.00479858 0.105657 -0.0161375 0.000135133
-0.005 -1.0842e-19 0.00479858 0.105243 -0.0156027 0.000120703
-0.00375 0 0.00608215 0.112242 -0.0158287 0.000150293
0.00375 -1.807e-20 0.00608215 0.112559 -0.016234 0.000164107
-0.00625 9.03502e-21 0.00356872 0.0968782 -0.0151842 9.14628e-05
0.00625 -2.71051e-20 0.00356872 0.0973776 -0.015836 0.000104531
3.68934e-10 1.0842e-19 0.00736572 0.117396 -0.0159931 0.000182974
-0.00750001 1.0842e-19 0 0 0 0
0.00750002 1.0842e-19 0 0 0 0
0.0025 1.0842e-19 0.00736572 0.117503 -0.0161282 0.000188601
-0.0025 1.0842e-19 0.00736572 0.117291 -0.015859 0.000177522
-0.0075 1.0842e-19 0.00233887 0.0821311 -0.0138532 6.15088e-05
0.00750001 1.0842e-19 0.00233887 0.0826681 -0.0145597 7.15144e-05
-0.00837701 0 0 0 0 0
0.00837702 -5.42101e-20 0 0 0 0
-0.00625 0 0.00608215 0.11214 -0.0156958 0.000145965
0.00625 3.61401e-20 0.00608215 0.112668 -0.016371 0.000169024
-0.00125 3.61401e-20 0.008656 0.121846 -0.0158434 0.000204646
0.00125 -1.807e-20 0.008656 0.121952 -0.0159769 0.000211088
-0.00875 9.03502e-21 0.00116944 0.0598605 -0.0109664 3.19921e-05
0.00875001 1.807e-20 0.00116944 0.0603458 -0.0116111 3.73209e-05
0.005 1.0842e-19 0.00736572 0.117611 -0.0162642 0.000194419
-0.005 1.0842e-19 0.00736572 0.117188 -0.0157259 0.000172236
0.0075 1.0842e-19 0.00479858 0.105765 -0.0162737 0.000139074
-0.0075 1.0842e-19 0.00479858 0.105144 -0.0154717 0.000117361
-0.009123 0 0 0 0 0
0.009123 1.0842e-19 0 0 0 0
0.00375 1.807e-20 0.008656 0.122059 -0.0161116 0.000217729
-0.00375 0 0.008656 0.121743 -0.0157107 0.000198405
-0.00875 -9.03502e-21 0.00356873 0.0967836 -0.0150569 8.90732e-05
0.00875 1.807e-20 0.00356873 0.0974832 -0.0159692 0.000107457
1.46183e-10 1.0842e-19 0.00994629 0.125497 -0.0157706 0.000231319
0.01 1.0842e-19 0 0 0 0
-0.01 -1.0842e-19 0 0 0 0
0.0025 1.0842e-19 0.00994629 0.125602 -0.0159033 0.000238706
-0.0025 1.0842e-19 0.00994629 0.125393 -0.0156389 0.000224151
0.01 1.0842e-19 0.00233887 0.082764 -0.01468 7.34404e-05
-0.01 -1.0842e-19 0.00233887 0.0820476 -0.0137385 6.00164e-05
0.0075 1.0842e-19 0.00736572 0.117721 -0.0164012 0.000200435
-0.0075 1.0842e-19 0.00736572 0.117087 -0.0155941 0.000167107
-0.00875 2.71051e-20 0.00608215 0.11204 -0.0155641 0.00014176
0.00875 9.03502e-21 0.00608215 0.112779 -0.016509 0.000174126
0.00625 -1.807e-20 0.008656 0.122168 -0.0162471 0.000224609
-0.00625 9.03502e-21 0.008656 0.121641 -0.0155792 0.000192354
0.010877 5.42101e-20 0 0 0 0
-0.010877 1.0842e-19 0 0 0 0
0.01 1.0842e-19 0.00479858 0.105874 -0.0164109 0.000143154
-0.01 1.0842e-19 0.00479858 0.105047 -0.0153418 0.000114113
0.005 1.0842e-19 0.00994629 0.125708 -0.0160369 0.000246329
-0.005 1.0842e-19 0.00994629 0.125292 -0.0155081 0.000217198
-0.00125 0 0.011217 0.12878 -0.0155533 0.000249963
0.00125 1.807e-20 0.011217 0.128883 -0.0156841 0.000258034
-0.01125 2.71051e-20 0.00116944 0.0597971 -0.0108766 3.13286e-05
0.01125 -7.22801e-20 0.00116944 0.0604212 -0.0117052 3.8241e-05
-0.011623 -1.0842e-19 0 0 0 0
0.011623 5.42101e-20 0 0 0 0
-0.01125 0 0.00356873 0.0966908 -0.0149307 8.67467e-05
0.01125 3.61401e-20 0.00356873 0.0975907 -0.0161034 0.000110488
0.00375 3.61401e-20 0.011217 0.128987 -0.0158157 0.000266342
-0.00375 3.61401e-20 0.011217 0.128679 -0.0154236 0.000242127
0.00875 3.61401e-20 0.008656 0.122279 -0.0163837 0.000231707
-0.00875 3.61401e-20 0.00865601 0.121541 -0.0154489 0.000186483
0.01 1.0842e-19 0.00736572 0.117833 -0.0165392 0.000206644
-0.01 1.0842e-19 0.00736572 0.116987 -0.0154634 0.000162132
0.0075 1.0842e-19 0.00994629 0.125817 -0.0161715 0.000254198
-0.0075 1.0842e-19 0.00994629 0.125192 -0.0153785 0.000210455
3.19516e-11 1.0842e-19 0.0124878 0.131674 -0.0154508 0.000275916
0.0125 1.0842e-19 0 0 0 0
-0.0125 -1.0842e-19 0 0 0 0
0.0125 1.0842e-19 0.00233887 0.0828618 -0.014801 7.54237e-05
-0.0125 0 0.00233887 0.0819658 -0.0136246 5.85731e-05
0.0025 1.0842e-19 0.0124878 0.131775 -0.0155803 0.000284836
-0.0025 1.0842e-19 0.0124878 0.131575 -0.0153221 0.00026726
-0.01125 -9.03502e-21 0.00608215 0.111941 -0.0154335 0.000137679
0.01125 -1.807e-20 0.00608215 0.112892 -0.0166482 0.000179386
0.00625 -1.807e-20 0.011217 0.129093 -0.0159483 0.000274922
-0.00625 1.807e-20 0.011217 0.12858 -0.0152949 0.000234522
0.013377 5.42101e-20 0 0 0 0
-0.013377 0 0 0 0 0
0.0125 1.0842e-19 0.00479858 0.105986 -0.016549 0.000147361
-0.0125 1.0842e-19 0.00479858 0.104951 -0.015213 0.000110969
0.005 1.0842e-19 0.0124878 0.131878 -0.0157108 0.000294032
-0.005 1.0842e-19 0.0124878 0.131477 -0.0151944 0.000258858
-0.01375 0 0.00116944 0.059735 -0.0107875 3.0689e-05
0.01375 -1.807e-20 0.00116944 0.0604982 -0.0117995 3.91783e-05
-0.00125 -1.807e-20 0.0137433 0.13432 -0.0152162 0.000292632
0.00125 -3.61401e-20 0.0137433 0.134418 -0.0153437 0.000302095
0.01 1.0842e-19 0.00994629 0.125927 -0.0163071 0.000262311
-0.01 1.0842e-19 0.00994629 0.125094 -0.0152501 0.000203919
-0.014123 1.6263e-19 0 0 0 0
0.014123 5.42101e-20 0 0 0 0
-0.01125 3.61401e-20 0.008656 0.121442 -0.0153196 0.000180795
0.01125 0 0.008656 0.122391 -0.0165212 0.000239022
-0.01375 0 0.00356873 0.0965996 -0.0148055 8.45128e-05
0.01375 3.61401e-20 0.00356873 0.0977004 -0.0162384 0.000113606
-0.00875 0 0.011217 0.128483 -0.0151673 0.000227155
0.00875 3.61401e-20 0.011217 0.129201 -0.0160817 0.000283769
0.00375 -1.807e-20 0.0137433 0.134517 -0.0154719 0.000311857
-0.00375 -1.807e-20 0.0137433 0.134224 -0.0150895 0.000283439
0.0125 1.0842e-19 0.00736572 0.117947 -0.0166783 0.000213042
-0.0125 1.0842e-19 0.00736572 0.116889 -0.0153338 0.000157309
0.0075 1.0842e-19 0.0124878 0.131983 -0.0158421 0.000303513
-0.0075 1.0842e-19 0.0124878 0.131381 -0.0150678 0.000250709
3.04086e-12 1.0842e-19 0.0149988 0.136771 -0.0151054 0.000318956
0.015 1.0842e-19 0 0 0 0
-0.015 -1.0842e-19 0 0 0 0
0.01375 0 0.00608215 0.113006 -0.0167882 0.00018481
-0.01375 -2.71051e-20 0.00608215 0.111844 -0.015304 0.000133731
0.00625 0 0.0137433 0.13462 -0.0156011 0.000321908
-0.00625 -1.807e-20 0.0137433 0.13413 -0.0149638 0.000274523
0.015 1.0842e-19 0.00233887 0.0829616 -0.0149227 7.74566e-05
-0.015 -1.0842e-19 0.00233887 0.0818856 -0.0135115 5.71874e-05
0.0025 1.0842e-19 0.0149988 0.136867 -0.0152316 0.0003292
-0.0025 1.0842e-19 0.0149988 0.136677 -0.0149799 0.000309021
0.015 1.0842e-19 0.00479858 0.1061 -0.0166881 0.000151696
-0.015 -1.0842e-19 0.00479858 0.104857 -0.0150852 0.000107937
0.005 1.0842e-19 0.0149988 0.136965 -0.0153587 0.000339763
-0.005 1.0842e-19 0.0149988 0.136584 -0.0148553 0.000299385
0.015877 5.42101e-20 0 0 0 0
-0.015877 1.6263e-19 0 0 0 0
0.01125 0 0.011217 0.129311 -0.0162162 0.000292888
-0.01125 0 0.011217 0.128387 -0.0150409 0.000220017
0.0125 1.0842e-19 0.00994629 0.12604 -0.0164437 0.000270669
-0.0125 1.0842e-19 0.00994629 0.124997 -0.0151226 0.000197586
0.01 1.0842e-19 0.0124878 0.13209 -0.0159744 0.000313285
-0.01 1.0842e-19 0.0124878 0.131287 -0.0149423 0.00024281
0.01375 0 0.008656 0.122506 -0.0166598 0.000246554
-0.01375 0 0.00865601 0.121345 -0.0151913 0.000175274
-0.01625 0 0.00116944 0.0596741 -0.0106988 3.00786e-05
0.01625 1.807e-20 0.00116944 0.0605769 -0.0118942 4.01237e-05
0.00875 -1.807e-20 0.0137433 0.134723 -0.0157312 0.00033227
-0.00875 3.61401e-20 0.0137433 0.134037 -0.0148394 0.000265886
-0.00125 3.61401e-20 0.0162494 0.139039 -0.0148684 0.000334991
0.00125 0 0.0162494 0.139132 -0.0149926 0.000345666
-0.016623 0 0 0 0 0
0.016623 -5.42101e-20 0 0 0 0
0.01625 1.807e-20 0.00356873 0.0978121 -0.0163743 0.000116815
-0.01625 9.03502e-21 0.00356873 0.0965099 -0.0146814 8.23637e-05
0.00375 0 0.0162494 0.139227 -0.0151176 0.000356679
-0.00375 3.61401e-20 0.0162494 0.138949 -0.0147448 0.000324641
0.015 1.0842e-19 0.00736572 0.118063 -0.0168183 0.000219633
-0.015 1.0842e-19 0.00736572 0.116793 -0.0152053 0.000152645
0.0075 1.0842e-19 0.0149988 0.137065 -0.0154867 0.000350646
-0.0075 1.0842e-19 0.0149988 0.136493 -0.0147317 0.000290041
0.01625 -1.807e-20 0.00608215 0.113123 -0.0169293 0.000190404
-0.01625 9.03502e-21 0.00608215 0.111749 -0.0151755 0.000129925
0.00625 3.61401e-20 0.0162494 0.139323 -0.0152435 0.000368032
-0.00625 0 0.0162494 0.13886 -0.0146223 0.000314607
0.0175 1.0842e-19 0 0 0 0
-0.0175 -1.0842e-19 0 0 0 0
-1.024e-14 1.0842e-19 0.0175 0.141208 -0.0147566 0.000362232
0.0175 1.0842e-19 0.00233887 0.0830634 -0.0150449 7.95415e-05
-0.0175 -1.0842e-19 0.00233887 0.0818069 -0.0133992 5.58572e-05
0.0125 1.0842e-19 0.0124878 0.132198 -0.0161075 0.000323351
-0.0125 1.0842e-19 0.0124878 0.131194 -0.0148177 0.000235154
0.0025 1.0842e-19 0.0175 0.141299 -0.0148796 0.000373624
-0.0025 1.0842e-19 0.0175 0.141119 -0.0146343 0.000351188
0.01375 3.61401e-20 0.011217 0.129422 -0.0163515 0.000302277
-0.01375 1.807e-20 0.011217 0.128293 -0.0149153 0.000213101
-0.01125 -1.807e-20 0.0137433 0.133946 -0.0147158 0.000257507
0.01125 3.61401e-20 0.0137433 0.134828 -0.0158622 0.000342948
0.015 1.0842e-19 0.00994629 0.126154 -0.0165811 0.000279276
-0.015 1.0842e-19 0.00994629 0.124902 -0.0149962 0.00019145
0.01 1.0842e-19 0.0149988 0.137167 -0.0156156 0.00036186
-0.01 1.0842e-19 0.0149988 0.136404 -0.0146092 0.000280979
0.0175 1.0842e-19 0.00479858 0.106216 -0.0168282 0.00015616
-0.0175 1.0842e-19 0.00479858 0.104764 -0.0149585 0.000105016
0.005 1.0842e-19 0.0175 0.141391 -0.0150035 0.000385372
-0.005 1.0842e-19 0.0175 0.141032 -0.0145129 0.000340481
0.018377 -5.42101e-20 0 0 0 0
-0.018377 -5.42101e-20 0 0 0 0
0.01625 1.807e-20 0.008656 0.122623 -0.0167993 0.000254312
-0.01625 3.61401e-20 0.00865601 0.121249 -0.0150642 0.000169937
0.00875 3.61401e-20 0.0162494 0.139421 -0.0153702 0.000379715
-0.00875 0 0.0162494 0.138773 -0.0145008 0.000304877
-0.01875 9.03502e-21 0.00116944 0.0596146 -0.0106109 2.94976e-05
0.01875 -1.807e-20 0.00116944 0.0606572 -0.0119893 4.10961e-05
0.00125 0 0.01875 0.143316 -0.0146441 0.000389848
-0.00125 -1.807e-20 0.01875 0.143229 -0.014523 0.000378122
0.0175 1.0842e-19 0.00736572 0.118181 -0.0169594 0.000226425
-0.0175 1.0842e-19 0.00736572 0.116697 -0.0150778 0.000148136
0.0075 1.0842e-19 0.0175 0.141486 -0.0151282 0.000397479
-0.0075 1.0842e-19 0.0175 0.140947 -0.0143924 0.0003301
0.01875 -9.03502e-21 0.00356873 0.0979259 -0.0165111 0.000120115
-0.01875 9.03502e-21 0.00356873 0.0964218 -0.0145582 8.03e-05
-0.00375 0 0.01875 0.143144 -0.0144027 0.000366758
0.00375 3.61401e-20 0.01875 0.143405 -0.0147659 0.000401942
-0.019123 5.42101e-20 0 0 0 0
0.019123 0 0 0 0 0
0.01375 3.61401e-20 0.0137433 0.134935 -0.015994 0.000353942
-0.01375 0 0.0137433 0.133856 -0.0145932 0.00024939
0.015 1.0842e-19 0.0124878 0.132309 -0.0162416 0.000333716
-0.015 1.0842e-19 0.0124878 0.131103 -0.0146941 0.000227734
0.0125 1.0842e-19 0.0149988 0.13727 -0.0157453 0.000373413
-0.0125 1.0842e-19 0.0149988 0.136317 -0.0144876 0.000272194
0.01875 0 0.00608215 0.113242 -0.0170713 0.000196168
-0.01875 3.61401e-20 0.00608215 0.111655 -0.0150481 0.000126251
0.01625 0 0.011217 0.129536 -0.0164878 0.000311941
-0.01625 -1.807e-20 0.011217 0.128201 -0.0147907 0.000206398
-0.01125 0 0.0162494 0.138687 -0.0143803 0.000295441
0.01125 3.61401e-20 0.0162494 0.139521 -0.0154978 0.000391762
0.00625 0 0.01875 0.143496 -0.0148886 0.000414411
-0.00625 -1.807e-20 0.01875 0.143061 -0.0142833 0.00035574
0.02 0 0 0 0 0
-0.02 1.0842e-19 0 0 0 0
-1.02401e-14 1.0842e-19 0.02 0.145196 -0.0144138 0.000406436
0.0175 1.0842e-19 0.00994629 0.126271 -0.0167195 0.000288137
-0.0175 1.0842e-19 0.00994629 0.124809 -0.0148708 0.000185506
0.02 1.0842e-19 0.00233887 0.0831673 -0.0151678 8.1683e-05
-0.02 0 0.00233887 0.0817296 -0.0132879 5.45865e-05
0.01 1.0842e-19 0.0175 0.141582 -0.0152538 0.000409957
0.0025 1.0842e-19 0.02 0.145282 -0.0145337 0.000418823
-0.0025 1.0842e-19 0.02 0.145113 -0.0142946 0.000394427
-0.01 1.0842e-19 0.0175 0.140863 -0.0142729 0.000320037
0.02 1.0842e-19 0.00479858 0.106335 -0.0169691 0.000160752
-0.02 1.0842e-19 0.00479858 0.104673 -0.0148329 0.000102212
0.005 1.0842e-19 0.02 0.145369 -0.0146544 0.0004316
-0.005 1.0842e-19 0.02 0.145031 -0.0141762 0.000382787
0.01875 1.807e-20 0.008656 0.122742 -0.0169397 0.000262297
-0.01875 0 0.008656 0.121155 -0.014938 0.000164771
0.00875 1.807e-20 0.01875 0.143588 -0.015012 0.000427268
-0.00875 0 0.01875 0.142979 -0.0141647 0.000345058
0.020877 1.6263e-19 0 0 0 0
-0.020877 -1.0842e-19 0 0 0 0
0.015 1.0842e-19 0.0149988 0.137376 -0.0158758 0.00038531
-0.015 1.0842e-19 0.0149988 0.136231 -0.014367 0.000263679
-0.02125 1.807e-20 0.00116944 0.0595563 -0.0105236 2.89444e-05
0.02125 1.807e-20 0.00116944 0.0607393 -0.0120846 4.20986e-05
0.01625 -1.807e-20 0.0137433 0.135045 -0.0161268 0.000365262
-0.01625 -1.807e-20 0.0137433 0.133769 -0.0144716 0.000241516
0.01375 3.61401e-20 0.0162494 0.139623 -0.0156262 0.00040417
-0.01375 0 0.0162494 0.138603 -0.0142608 0.000286292
0.00125 0 0.02125 0.147118 -0.0143045 0.000435042
-0.00125 0 0.02125 0.147037 -0.0141865 0.000422406
0.02 1.0842e-19 0.00736572 0.118302 -0.0171013 0.000233416
-0.02 1.0842e-19 0.00736572 0.116604 -0.0149513 0.000143778
0.0075 1.0842e-19 0.02 0.145458 -0.0147758 0.000444779
-0.0075 1.0842e-19 0.02 0.144952 -0.0140587 0.000371507
0.0175 1.0842e-19 0.0124878 0.132422 -0.0163766 0.000344385
-0.0175 1.0842e-19 0.0124878 0.131014 -0.0145715 0.000220539
0.0125 1.0842e-19 0.0175 0.14168 -0.0153801 0.000422815
-0.0125 1.0842e-19 0.0175 0.140782 -0.0141542 0.000310285
0.02125 0 0.00356872 0.098042 -0.0166486 0.000123511
-0.02125 -1.807e-20 0.00356873 0.0963352 -0.0144362 7.83353e-05
-0.00375 3.61401e-20 0.02125 0.146957 -0.0140691 0.000410156
0.00375 -1.807e-20 0.02125 0.147202 -0.0144232 0.00044808
-0.021623 0 0 0 0 0
0.021623 -5.42101e-20 0 0 0 0
0.01875 1.807e-20 0.011217 0.129653 -0.0166249 0.000321881
-0.01875 3.61401e-20 0.011217 0.12811 -0.0146672 0.0001999
0.01125 0 0.01875 0.143683 -0.0151363 0.000440514
-0.01125 -1.807e-20 0.01875 0.142899 -0.0140471 0.000334709
0.02125 0 0.00608215 0.113364 -0.0172144 0.000202095
-0.02125 0 0.00608215 0.111562 -0.0149217 0.000122719
0.00625 -1.807e-20 0.02125 0.147288 -0.0145426 0.000461531
-0.00625 3.61401e-20 0.02125 0.146879 -0.0139527 0.000398287
0.02 1.0842e-19 0.00994629 0.126389 -0.0168588 0.000297255
-0.02 1.0842e-19 0.00994629 0.124717 -0.0147465 0.000179741
0.01 1.0842e-19 0.02 0.145549 -0.0148981 0.000458368
-0.01 1.0842e-19 0.02 0.144874 -0.0139421 0.00036058
0.0225 0 0 0 0 0
-0.0225 -1.0842e-19 0 0 0 0
-1.02402e-14 1.0842e-19 0.0225 0.148848 -0.0140815 0.000451705
0.0225 -1.0842e-19 0.00233887 0.0832732 -0.0152911 8.38823e-05
-0.0225 1.0842e-19 0.00233887 0.0816539 -0.0131775 5.33741e-05
0.0025 1.0842e-19 0.0225 0.148928 -0.0141984 0.000464966
-0.0025 1.0842e-19 0.0225 0.14877 -0.0139653 0.000438854
0.02125 0 0.008656 0.122863 -0.017081 0.000270511
-0.02125 0 0.008656 0.121062 -0.014813 0.000159763
0.01625 0 0.0162494 0.139728 -0.0157555 0.000416953
-0.01625 0 0.0162494 0.138521 -0.014142 0.000277431
-0.00875 -1.807e-20 0.02125 0.146802 -0.0138371 0.000386793
0.00875 0 0.02125 0.147375 -0.0146628 0.000475409
0.0225 1.0842e-19 0.00479858 0.106455 -0.0171109 0.00016547
-0.0225 1.0842e-19 0.00479858 0.104584 -0.0147084 9.9518e-05
0.0175 1.0842e-19 0.0149988 0.137484 -0.0160073 0.000397559
-0.0175 1.0842e-19 0.0149988 0.136147 -0.0142473 0.000255428
0.005 1.0842e-19 0.0225 0.14901 -0.0143159 0.000478649
-0.005 1.0842e-19 0.0225 0.148693 -0.0138498 0.000426405
0.015 1.0842e-19 0.0175 0.141781 -0.0155072 0.000436063
-0.015 1.0842e-19 0.0175 0.140701 -0.0140365 0.000300839
-0.01875 0 0.0137433 0.133683 -0.0143509 0.000233886
0.01875 0 0.0137433 0.135157 -0.0162603 0.000376919
-0.01375 0 0.01875 0.142821 -0.0139304 0.000324691
0.01375 -1.807e-20 0.01875 0.14378 -0.0152612 0.000454171
0.023377 -5.42101e-20 0 0 0 0
-0.023377 -1.6263e-19 0 0 0 0
0.02 1.0842e-19 0.0124878 0.132537 -0.0165124 0.000355362
-0.02 1.0842e-19 0.0124878 0.130926 -0.0144499 0.000213564
0.0125 1.0842e-19 0.02 0.145642 -0.015021 0.000472377
-0.0125 1.0842e-19 0.02 0.144797 -0.0138264 0.00035
0.0225 1.0842e-19 0.00736572 0.118424 -0.0172441 0.000240604
-0.0225 1.0842e-19 0.00736572 0.116511 -0.014826 0.000139561
0.0075 1.0842e-19 0.0225 0.149094 -0.0144342 0.000492766
-0.0075 1.0842e-19 0.0225 0.148618 -0.0137352 0.000414349
0.02375 0 0.00116944 0.060823 -0.0121802 4.31293e-05
-0.02375 0 0.00116944 0.0594994 -0.010437 2.84147e-05
0.00125 3.61401e-20 0.02375 0.150622 -0.0139768 0.000481183
-0.00125 0 0.02375 0.150546 -0.0138618 0.000467738
0.02375 0 0.00356872 0.0981603 -0.0167869 0.000126993
-0.02375 9.03502e-21 0.00356873 0.09625 -0.0143151 7.64587e-05
0.02125 0 0.011217 0.129771 -0.0167629 0.00033211
-0.02125 1.807e-20 0.011217 0.12802 -0.0145447 0.000193592
0.01125 0 0.02125 0.147465 -0.0147837 0.000489718
-0.01125 0 0.02125 0.146728 -0.0137223 0.000375666
0.00375 3.61401e-20 0.02375 0.150701 -0.0140925 0.000495057
-0.00375 -1.807e-20 0.02375 0.150471 -0.0137473 0.000454716
-0.024123 1.0842e-19 0 0 0 0
0.024123 -5.42101e-20 0 0 0 0
0.02375 0 0.00608215 0.113487 -0.0173581 0.000208176
-0.02375 0 0.00608215 0.111471 -0.0147966 0.000119307
0.00625 -1.807e-20 0.02375 0.150782 -0.0142089 0.000509371
-0.00625 3.61401e-20 0.02375 0.150397 -0.0136337 0.000442112
0.0225 1.0842e-19 0.00994629 0.12651 -0.016999 0.000306635
-0.0225 1.0842e-19 0.00994629 0.124626 -0.0146232 0.000174151
0.01 1.0842e-19 0.0225 0.14918 -0.0145533 0.000507329
-0.01 1.0842e-19 0.0225 0.148545 -0.0136215 0.000402679
0.0175 1.0842e-19 0.0175 0.141884 -0.0156351 0.000449704
-0.0175 1.0842e-19 0.0175 0.140623 -0.0139197 0.000291692
0.01875 0 0.0162494 0.139834 -0.0158855 0.000430111
-0.01875 -1.807e-20 0.0162494 0.138441 -0.0140242 0.000268849
-0.01625 3.61401e-20 0.01875 0.142745 -0.0138146 0.000314992
0.01625 3.61401e-20 0.01875 0.143879 -0.015387 0.000468244
0.02 1.0842e-19 0.0149988 0.137594 -0.0161394 0.000410165
-0.02 1.0842e-19 0.0149988 0.136064 -0.0141285 0.000247434
0.015 1.0842e-19 0.02 0.145737 -0.0151448 0.000486814
-0.015 1.0842e-19 0.02 0.144723 -0.0137115 0.000339757
0.025 0 0 0 0 0
-0.025 1.0842e-19 0 0 0 0
-1.02401e-14 1.0842e-19 0.025 0.152227 -0.0137622 0.000497793
0.025 -1.0842e-19 0.00233887 0.0833814 -0.015415 8.61445e-05
-0.025 1.0842e-19 0.00233887 0.0815796 -0.0130681 5.22153e-05
0.0025 1.0842e-19 0.025 0.152303 -0.0138761 0.000511828
-0.0025 1.0842e-19 0.025 0.152153 -0.0136489 0.0004842
-0.02375 1.807e-20 0.008656 0.120971 -0.0146891 0.000154897
0.02375 0 0.00865601 0.122987 -0.0172232 0.000278957
0.02125 0 0.0137433 0.135271 -0.0163947 0.000388909
-0.02125 3.61401e-20 0.0137433 0.133598 -0.0142312 0.000226491
0.01375 3.61401e-20 0.02125 0.147556 -0.0149054 0.000504473
-0.00875 0 0.02375 0.150325 -0.013521 0.000429912
0.00875 0 0.02375 0.150865 -0.0143259 0.000524136
-0.01375 -1.807e-20 0.02125 0.146655 -0.0136085 0.000364899
0.025 1.0842e-19 0.00479858 0.106578 -0.0172535 0.000170322
-0.025 1.0842e-19 0.00479858 0.104495 -0.014585 9.69151e-05
0.005 1.0842e-19 0.025 0.15238 -0.0139906 0.00052631
-0.005 1.0842e-19 0.025 0.152081 -0.0135363 0.000471044
0.0225 1.0842e-19 0.0124878 0.132654 -0.016649 0.000366654
-0.0225 1.0842e-19 0.0124878 0.130839 -0.0143293 0.000206804
0.0125 1.0842e-19 0.0225 0.149268 -0.014673 0.000522345
-0.0125 1.0842e-19 0.0225 0.148474 -0.0135086 0.000391385
0.025877 0 0 0 0 0
-0.025877 1.0842e-19 0 0 0 0
0.025 1.0842e-19 0.00736572 0.118549 -0.0173878 0.000247991
-0.025 1.0842e-19 0.00736572 0.11642 -0.0147017 0.00013547
0.0075 1.0842e-19 0.025 0.15246 -0.0141059 0.00054125
-0.0075 1.0842e-19 0.025 0.152011 -0.0134246 0.000458313
0.02375 -1.807e-20 0.011217 0.129891 -0.0169018 0.000342632
-0.02375 3.61401e-20 0.011217 0.127932 -0.0144233 0.00018748
0.02625 0 0.00116944 0.0609086 -0.012276 4.41891e-05
-0.02625 0 0.00116944 0.0594436 -0.0103511 2.79193e-05
0.00125 -1.807e-20 0.02625 0.153879 -0.0136629 0.000527901
0.01125 -1.807e-20 0.02375 0.150949 -0.0144438 0.000539369
-0.01125 3.61401e-20 0.02375 0.150256 -0.0134091 0.00041811
-0.00125 -1.807e-20 0.02625 0.153807 -0.0135508 0.000513746
0.02625 0 0.00356872 0.0982809 -0.0169261 0.000130594
-0.02625 9.03502e-21 0.00356873 0.0961664 -0.0141952 7.46438e-05
0.00375 0 0.02625 0.153954 -0.0137756 0.000542508
0.01875 3.61401e-20 0.01875 0.14398 -0.0155135 0.000482722
-0.00375 -1.807e-20 0.02625 0.153736 -0.0134392 0.000500048
-0.01875 3.61401e-20 0.01875 0.14267 -0.0136997 0.000305598
0.02 1.0842e-19 0.0175 0.141988 -0.0157637 0.000463745
0.0175 1.0842e-19 0.02 0.145834 -0.0152692 0.000501681
-0.0175 1.0842e-19 0.02 0.14465 -0.0135975 0.00032984
-0.02 1.0842e-19 0.0175 0.140546 -0.0138038 0.000282833
-0.026623 1.0842e-19 0 0 0 0
0.026623 0 0 0 0 0
0.02125 0 0.0162494 0.139943 -0.0160162 0.000443649
-0.02125 0 0.0162494 0.138362 -0.0139073 0.000260539
0.01625 0 0.02125 0.14765 -0.0150279 0.000519671
-0.01625 3.61401e-20 0.02125 0.146584 -0.0134954 0.000354469
0.025 1.0842e-19 0.00994629 0.126633 -0.01714 0.000316279
-0.025 1.0842e-19 0.00994629 0.124537 -0.0145009 0.000168731
0.01 1.0842e-19 0.025 0.152542 -0.0142218 0.000556662
-0.01 1.0842e-19 0.025 0.151942 -0.0133137 0.000445995
0.02625 1.807e-20 0.00608215 0.113613 -0.0175028 0.000214433
-0.02625 9.03502e-21 0.00608215 0.11138 -0.0146723 0.000115994
0.00625 0 0.02625 0.15403 -0.013889 0.00055758
-0.00625 3.61401e-20 0.02625 0.153666 -0.0133286 0.000486795
0.0225 1.0842e-19 0.0149988 0.137707 -0.0162724 0.000423137
-0.0225 1.0842e-19 0.0149988 0.135983 -0.0140107 0.00023969
0.015 1.0842e-19 0.0225 0.149358 -0.0147934 0.000537821
-0.015 1.0842e-19 0.0225 0.148404 -0.0133966 0.00038045
0.02375 0 0.0137433 0.135386 -0.0165299 0.000401244
-0.02375 -1.807e-20 0.0137433 0.133515 -0.0141125 0.000219326
-0.01375 0 0.02375 0.150188 -0.0132981 0.000406683
0.01375 3.61401e-20 0.02375 0.151036 -0.0145622 0.000555075
0.0275 2.1684e-19 0 0 0 0
-0.0275 1.0842e-19 0 0 0 0
-1.02402e-14 1.0842e-19 0.0275 0.155385 -0.0134562 0.000544353
-0.0275 1.0842e-19 0.00233887 0.0815068 -0.0129595 5.11008e-05
0.0275 -1.0842e-19 0.00233887 0.0834917 -0.0155394 8.84663e-05
0.0025 1.0842e-19 0.0275 0.155457 -0.0135672 0.000559051
-0.0025 1.0842e-19 0.0275 0.155315 -0.0133458 0.000530118
0.02625 3.61401e-20 0.008656 0.123112 -0.0173663 0.00028763
-0.02625 0 0.008656 0.120881 -0.0145661 0.000150179
0.00875 0 0.02625 0.154109 -0.0140031 0.000573127
-0.00875 3.61401e-20 0.02625 0.153599 -0.0132187 0.000473976
0.0275 1.0842e-19 0.00479858 0.106703 -0.017397 0.000175316
-0.0275 1.0842e-19 0.00479858 0.104409 -0.0144626 9.43949e-05
0.025 1.0842e-19 0.0124878 0.132773 -0.0167864 0.000378274
-0.025 1.0842e-19 0.0124878 0.130754 -0.0142097 0.000200255
0.005 1.0842e-19 0.0275 0.15553 -0.0136788 0.000574217
-0.005 1.0842e-19 0.0275 0.155247 -0.013236 0.00051634
0.0125 1.0842e-19 0.025 0.152625 -0.0143384 0.000572558
-0.0125 1.0842e-19 0.025 0.151876 -0.0132035 0.000434077
0.02 1.0842e-19 0.02 0.145934 -0.0153943 0.000516987
-0.02 1.0842e-19 0.02 0.144578 -0.0134844 0.00032024
0.01875 -1.807e-20 0.02125 0.147746 -0.0151509 0.000535317
-0.01875 -1.807e-20 0.02125 0.146514 -0.0133832 0.000344374
0.02125 0 0.01875 0.144083 -0.0156407 0.000497632
-0.02125 3.61401e-20 0.01875 0.142596 -0.0135856 0.000296498
0.028377 0 0 0 0 0
-0.028377 1.0842e-19 0 0 0 0
0.0275 1.0842e-19 0.00736572 0.118676 -0.0175324 0.000255587
-0.0275 1.0842e-19 0.00736572 0.116331 -0.0145785 0.000131504
0.0075 1.0842e-19 0.0275 0.155606 -0.0137911 0.000589865
-0.0075 1.0842e-19 0.0275 0.15518 -0.0131271 0.000503012
0.0225 1.0842e-19 0.0175 0.142095 -0.015893 0.000478202
0.0175 1.0842e-19 0.0225 0.149451 -0.0149145 0.000553763
-0.0175 1.0842e-19 0.0225 0.148336 -0.0132853 0.000369866
-0.0225 1.0842e-19 0.0175 0.14047 -0.0136888 0.000274252
-0.02625 3.61401e-20 0.011217 0.127844 -0.0143028 0.000181561
0.02625 3.61401e-20 0.011217 0.130014 -0.0170415 0.000353454
0.01125 0 0.02625 0.15419 -0.0141178 0.000589167
-0.01125 3.61401e-20 0.02625 0.153534 -0.0131095 0.000461578
0.02875 9.03502e-21 0.00116944 0.0609961 -0.0123721 4.52546e-05
-0.02875 -9.03502e-21 0.00116944 0.0593891 -0.0102658 2.74416e-05
-0.02375 3.61401e-20 0.0162494 0.138284 -0.0137914 0.000252483
0.02375 0 0.0162494 0.140053 -0.0161477 0.000457591
0.00125 3.61401e-20 0.02875 0.156939 -0.0133619 0.000574823
0.01625 3.61401e-20 0.02375 0.151124 -0.0146813 0.000571259
-0.01625 3.61401e-20 0.02375 0.150121 -0.0131878 0.000395619
-0.00125 3.61401e-20 0.02875 0.15687 -0.0132527 0.000560069
0.02875 9.03502e-21 0.00356872 0.098404 -0.0170659 0.000134278
-0.02875 1.807e-20 0.00356873 0.096084 -0.0140761 7.28935e-05
-0.00375 0 0.02875 0.156802 -0.013144 0.000545781
0.00375 3.61401e-20 0.02875 0.15701 -0.0134718 0.000590049
-0.029123 5.42101e-20 0 0 0 0
0.029123 -1.0842e-19 0 0 0 0
0.025 1.0842e-19 0.0149988 0.137821 -0.016406 0.00043649
-0.025 1.0842e-19 0.0149988 0.135903 -0.0138939 0.000232185
0.015 1.0842e-19 0.025 0.152711 -0.0144556 0.000588946
-0.015 1.0842e-19 0.025 0.151811 -0.0130941 0.000422541
0.0275 1.0842e-19 0.00994629 0.126759 -0.0172819 0.000326197
-0.0275 1.0842e-19 0.00994629 0.124449 -0.0143797 0.000163478
0.01 1.0842e-19 0.0275 0.155684 -0.013904 0.000606012
-0.01 1.0842e-19 0.0275 0.155115 -0.0130189 0.000490122
-0.02875 1.807e-20 0.00608215 0.111292 -0.0145494 0.000112789
0.02875 3.61401e-20 0.00608215 0.113741 -0.0176483 0.000220875
0.00625 3.61401e-20 0.02875 0.157083 -0.0135823 0.000605754
-0.00625 1.807e-20 0.02875 0.156736 -0.0130359 0.000531955
-0.02625 -1.807e-20 0.0137433 0.133433 -0.0139947 0.000212383
0.02625 0 0.0137433 0.135504 -0.0166658 0.000413941
0.01375 3.61401e-20 0.02625 0.154272 -0.0142331 0.000605709
-0.01375 3.61401e-20 0.02625 0.15347 -0.0130011 0.00044958
0.03 -1.0842e-19 0 0 0 0
-0.03 1.0842e-19 0 0 0 0
-1.02403e-14 1.0842e-19 0.03 0.15836 -0.013163 0.000590649
0.02875 0 0.008656 0.12324 -0.0175102 0.000296555
-0.02875 0 0.008656 0.120792 -0.0144442 0.000145599
-0.02125 0 0.02125 0.146446 -0.0132719 0.000334603
-0.00875 -1.807e-20 0.02875 0.156672 -0.0129288 0.000518585
0.02125 1.807e-20 0.02125 0.147844 -0.0152746 0.000551429
0.00875 3.61401e-20 0.02875 0.157158 -0.0136932 0.000621972
0.03 1.0842e-19 0.00233887 0.0836044 -0.0156642 9.08429e-05
-0.03 1.0842e-19 0.00233887 0.0814353 -0.0128517 5.00294e-05
0.02 1.0842e-19 0.0225 0.149545 -0.0150362 0.000570179
0.0225 1.0842e-19 0.02 0.146036 -0.0155201 0.000532748
0.0025 1.0842e-19 0.03 0.158429 -0.0132711 0.000605939
-0.0025 1.0842e-19 0.03 0.158293 -0.0130554 0.000575844
-0.02 1.0842e-19 0.0225 0.14827 -0.0131748 0.000359626
-0.0225 1.0842e-19 0.02 0.144508 -0.0133721 0.000310945
0.0275 1.0842e-19 0.0124878 0.132895 -0.0169246 0.000390231
-0.0275 1.0842e-19 0.0124878 0.130671 -0.0140911 0.000193911
0.0125 1.0842e-19 0.0275 0.155764 -0.0140174 0.000622667
-0.0125 1.0842e-19 0.0275 0.155053 -0.0129115 0.000477657
0.02375 -1.807e-20 0.01875 0.144188 -0.0157686 0.000512983
0.01875 0 0.02375 0.151216 -0.0148011 0.00058793
-0.01875 3.61401e-20 0.02375 0.150056 -0.0130783 0.000384916
-0.02375 3.61401e-20 0.01875 0.142524 -0.0134724 0.000287686
0.03 1.0842e-19 0.00479858 0.106831 -0.0175413 0.000180448
-0.03 1.0842e-19 0.00479858 0.104323 -0.0143413 9.19605e-05
0.005 1.0842e-19 0.03 0.1585 -0.0133798 0.000621722
-0.005 1.0842e-19 0.03 0.158227 -0.0129485 0.000561518
0.025 1.0842e-19 0.0175 0.142205 -0.016023 0.000493081
0.0175 1.0842e-19 0.025 0.152798 -0.0145734 0.000605835
-0.0175 1.0842e-19 0.025 0.151747 -0.0129855 0.000411379
-0.025 1.0842e-19 0.0175 0.140396 -0.0135747 0.000265939
-0.02875 0 0.011217 0.127759 -0.0141834 0.000175818
0.02875 1.807e-20 0.011217 0.130139 -0.017182 0.000364594
0.02625 3.61401e-20 0.0162494 0.140167 -0.0162799 0.00047194
-0.02625 0 0.0162494 0.138207 -0.0136764 0.000244676
-0.01125 -1.807e-20 0.02875 0.15661 -0.0128224 0.000505658
0.01125 0 0.02875 0.157235 -0.013805 0.000638702
0.01625 -1.807e-20 0.02625 0.154356 -0.0143491 0.000622762
-0.01625 0 0.02625 0.153407 -0.0128933 0.00043797
0.030877 0 0 0 0 0
-0.030877 1.0842e-19 0 0 0 0
0.03 1.0842e-19 0.00736572 0.118805 -0.0176779 0.000263397
-0.03 1.0842e-19 0.00736572 0.116242 -0.0144564 0.000127667
0.0075 1.0842e-19 0.03 0.158573 -0.0134891 0.000638011
-0.0075 1.0842e-19 0.03 0.158164 -0.0128424 0.000547666
0.03125 -1.807e-20 0.00116944 0.0610855 -0.0124683 4.63466e-05
-0.03125 -1.807e-20 0.00116944 0.0593358 -0.0101812 2.69912e-05
0.00125 0 0.03125 0.159826 -0.0130741 0.000620839
-0.00125 0 0.03125 0.159759 -0.0129676 0.000605524
0.0275 1.0842e-19 0.0149988 0.137938 -0.0165405 0.000450228