# UMean  POINT_DATA 34437
# x  y  z  UMean_x  UMean_y  UMean_z
-8.07264e-09 0 0 0 0 0
0.000876982 0 0 0 0 0
-0.000876992 -5.42101e-20 0 0 0 0
0.001623 1.0842e-19 0 0 0 0
-0.00162301 -5.42101e-20 0 0 0 0
0.00124999 3.61401e-20 0.00116944 0.0596302 -0.0111021 3.51897e-05
-0.00125 2.71051e-20 0.00116944 0.0595662 -0.0110066 3.46539e-05
-6.79893e-10 0 0.00233887 0.081927 -0.0138747 6.70569e-05
0.00249999 1.0842e-19 0 0 0 0
-0.00249999 0 0 0 0 0
-0.00337698 0 0 0 0 0
0.00337699 1.0842e-19 0 0 0 0
0.0025 0 0.00233887 0.0820114 -0.0139963 6.84844e-05
-0.0025 -1.0842e-19 0.00233887 0.0818446 -0.013754 6.55507e-05
-0.00125 1.807e-20 0.00356872 0.0967327 -0.0150433 9.76633e-05
0.00125 0 0.00356872 0.0968255 -0.0151766 0.000100028
-0.00375 0 0.00116943 0.0595029 -0.0109118 3.38836e-05
0.00375 3.61401e-20 0.00116943 0.0596979 -0.0111978 3.57858e-05
-0.004123 -5.42101e-20 0 0 0 0
0.00412301 -5.42101e-20 0 0 0 0
4.48412e-10 -1.0842e-19 0.00479858 0.105197 -0.0154331 0.000128985
-0.00499999 -1.0842e-19 0 0 0 0
0.00500001 0 0 0 0 0
-0.00375 0 0.00356872 0.0966414 -0.0149111 9.50992e-05
0.00375 9.03502e-21 0.00356872 0.0969201 -0.0153111 0.000102538
0.0025 -1.0842e-19 0.00479858 0.105294 -0.0155699 0.000132545
-0.0025 -1.0842e-19 0.00479858 0.105102 -0.0152977 0.000125474
-0.005 1.0842e-19 0.00233887 0.0817638 -0.0136343 6.39038e-05
0.005 -1.0842e-19 0.00233887 0.0820979 -0.0141187 7.02197e-05
-0.00587699 -1.0842e-19 0 0 0 0
0.00587701 0 0 0 0 0
-0.00125 0 0.00608215 0.112187 -0.0154966 0.000156196
0.00125 0 0.00608215 0.112285 -0.0156337 0.000160838
-0.00625 9.03502e-21 0.00116943 0.0594415 -0.0108177 3.31158e-05
0.00625001 -4.51751e-20 0.00116944 0.0597655 -0.0112946 3.67374e-05
-0.006623 5.42101e-20 0 0 0 0
0.00662301 -5.42101e-20 0 0 0 0
0.005 1.0842e-19 0.00479858 0.105393 -0.0157079 0.000136395
-0.005 -1.0842e-19 0.00479858 0.105008 -0.0151634 0.000121969
-0.00375 0 0.00608215 0.11209 -0.0153611 0.000151666
0.00375 -1.807e-20 0.00608215 0.112385 -0.0157719 0.000165669
-0.00625 9.03502e-21 0.00356872 0.096552 -0.0147801 9.25397e-05
0.00625 -2.71051e-20 0.00356872 0.0970167 -0.0154467 0.000105524
3.68934e-10 1.0842e-19 0.00736572 0.117292 -0.0155097 0.000184548
-0.00750001 1.0842e-19 0 0 0 0
0.00750002 1.0842e-19 0 0 0 0
0.0025 1.0842e-19 0.00736572 0.117392 -0.0156465 0.000190281
-0.0025 1.0842e-19 0.00736572 0.117195 -0.0153742 0.000178999
-0.0075 1.0842e-19 0.00233887 0.0816848 -0.0135154 6.2268e-05
0.00750001 1.0842e-19 0.00233887 0.0821859 -0.014242 7.22823e-05
-0.00837701 0 0 0 0 0
0.00837702 -5.42101e-20 0 0 0 0
-0.00625 0 0.00608215 0.111995 -0.0152264 0.000147283
0.00625 3.61401e-20 0.00608215 0.112486 -0.0159113 0.000170784
-0.00125 3.61401e-20 0.008656 0.121795 -0.0153446 0.000206209
0.00125 -1.807e-20 0.008656 0.121893 -0.0154796 0.000212803
-0.00875 9.03502e-21 0.00116944 0.0593815 -0.0107241 3.23015e-05
0.00875001 1.807e-20 0.00116944 0.0598352 -0.0113916 3.78238e-05
0.005 1.0842e-19 0.00736572 0.117493 -0.0157844 0.000196233
-0.005 1.0842e-19 0.00736572 0.117098 -0.01524 0.000173631
0.0075 1.0842e-19 0.00479858 0.105494 -0.0158469 0.000140549
-0.0075 1.0842e-19 0.00479858 0.104916 -0.0150301 0.000118545
-0.009123 0 0 0 0 0
0.009123 1.0842e-19 0 0 0 0
0.00375 1.807e-20 0.008656 0.121994 -0.0156156 0.000219611
-0.00375 0 0.008656 0.121698 -0.015211 0.000199854
-0.00875 -9.03502e-21 0.00356873 0.0964642 -0.01465 9.0033e-05
0.00875 1.807e-20 0.00356873 0.0971155 -0.0155833 0.000108731
1.46183e-10 1.0842e-19 0.00994629 0.12546 -0.0152629 0.000232747
0.01 1.0842e-19 0 0 0 0
-0.01 -1.0842e-19 0 0 0 0
0.0025 1.0842e-19 0.00994629 0.125558 -0.0153967 0.000240247
-0.0025 1.0842e-19 0.00994629 0.125363 -0.0151303 0.000225472
0.01 1.0842e-19 0.00233887 0.082276 -0.0143662 7.44562e-05
-0.01 -1.0842e-19 0.00233887 0.0816073 -0.0133974 6.062e-05
0.0075 1.0842e-19 0.00736572 0.117596 -0.0159235 0.000202413
-0.0075 1.0842e-19 0.00736572 0.117004 -0.0151066 0.00016842
-0.00875 2.71051e-20 0.00608215 0.111902 -0.0150928 0.000142994
0.00875 9.03502e-21 0.00608215 0.11259 -0.016052 0.000176088
0.00625 -1.807e-20 0.008656 0.122095 -0.0157527 0.000226615
-0.00625 9.03502e-21 0.008656 0.121603 -0.0150784 0.000193722
0.010877 5.42101e-20 0 0 0 0
-0.010877 1.0842e-19 0 0 0 0
0.01 1.0842e-19 0.00479858 0.105596 -0.0159871 0.000144851
-0.01 1.0842e-19 0.00479858 0.104825 -0.0148979 0.000115177
0.005 1.0842e-19 0.00994629 0.125659 -0.0155316 0.000247979
-0.005 1.0842e-19 0.00994629 0.125268 -0.0149988 0.000218419
-0.00125 0 0.011217 0.128755 -0.0150376 0.000251033
0.00125 1.807e-20 0.011217 0.128852 -0.0151691 0.000259169
-0.01125 2.71051e-20 0.00116944 0.0593225 -0.0106313 3.14483e-05
0.01125 -7.22801e-20 0.00116944 0.0599061 -0.0114894 3.89456e-05
-0.011623 -1.0842e-19 0 0 0 0
0.011623 5.42101e-20 0 0 0 0
-0.01125 0 0.00356873 0.0963781 -0.0145211 8.75439e-05
0.01125 3.61401e-20 0.00356873 0.0972163 -0.015721 0.000112019
0.00375 3.61401e-20 0.011217 0.12895 -0.0153017 0.000267549
-0.00375 3.61401e-20 0.011217 0.12866 -0.0149074 0.00024311
0.00875 3.61401e-20 0.008656 0.122199 -0.015891 0.000233852
-0.00875 3.61401e-20 0.00865601 0.121509 -0.0149469 0.000187737
0.01 1.0842e-19 0.00736572 0.1177 -0.0160637 0.000208787
-0.01 1.0842e-19 0.00736572 0.116911 -0.0149745 0.000163325
0.0075 1.0842e-19 0.00994629 0.125761 -0.0156676 0.000255967
-0.0075 1.0842e-19 0.00994629 0.125175 -0.0148683 0.000211571
3.19516e-11 1.0842e-19 0.0124878 0.131632 -0.0149314 0.000276044
0.0125 1.0842e-19 0 0 0 0
-0.0125 -1.0842e-19 0 0 0 0
0.0125 1.0842e-19 0.00233887 0.0823679 -0.0144912 7.66376e-05
-0.0125 0 0.00233887 0.0815314 -0.0132804 5.89954e-05
0.0025 1.0842e-19 0.0124878 0.131728 -0.0150617 0.000285045
-0.0025 1.0842e-19 0.0124878 0.131538 -0.0148024 0.000267305
-0.01125 -9.03502e-21 0.00608215 0.11181 -0.0149604 0.000138776
0.01125 -1.807e-20 0.00608215 0.112695 -0.0161935 0.000181526
0.00625 -1.807e-20 0.011217 0.12905 -0.0154354 0.000276204
-0.00625 1.807e-20 0.011217 0.128567 -0.014778 0.000235401
0.013377 5.42101e-20 0 0 0 0
-0.013377 0 0 0 0 0
0.0125 1.0842e-19 0.00479858 0.105701 -0.0161283 0.000149242
-0.0125 1.0842e-19 0.00479858 0.104737 -0.0147669 0.000111884
0.005 1.0842e-19 0.0124878 0.131825 -0.0151931 0.000294338
-0.005 1.0842e-19 0.0124878 0.131446 -0.0146744 0.000258804
-0.01375 0 0.00116944 0.0592649 -0.0105391 3.06806e-05
0.01375 -1.807e-20 0.00116944 0.0599785 -0.0115876 4.00402e-05
-0.00125 -1.807e-20 0.0137433 0.134262 -0.0146939 0.000291686
0.00125 -3.61401e-20 0.0137433 0.134354 -0.0148219 0.000301231
0.01 1.0842e-19 0.00994629 0.125865 -0.0158047 0.000264225
-0.01 1.0842e-19 0.00994629 0.125083 -0.0147389 0.000204915
-0.014123 1.6263e-19 0 0 0 0
0.014123 5.42101e-20 0 0 0 0
-0.01125 3.61401e-20 0.008656 0.121417 -0.0148164 0.000181915
0.01125 0 0.008656 0.122305 -0.0160304 0.000241305
-0.01375 0 0.00356873 0.0962937 -0.0143933 8.51659e-05
0.01375 3.61401e-20 0.00356873 0.0973193 -0.0158595 0.00011531
-0.00875 0 0.011217 0.128475 -0.0146497 0.000227934
0.00875 3.61401e-20 0.011217 0.129152 -0.0155702 0.000285172
0.00375 -1.807e-20 0.0137433 0.134449 -0.0149509 0.000311086
-0.00375 -1.807e-20 0.0137433 0.13417 -0.0145673 0.000282423
0.0125 1.0842e-19 0.00736572 0.117807 -0.016205 0.000215341
-0.0125 1.0842e-19 0.00736572 0.11682 -0.0148434 0.000158363
0.0075 1.0842e-19 0.0124878 0.131924 -0.0153254 0.00030395
-0.0075 1.0842e-19 0.0124878 0.131355 -0.0145472 0.000250547
3.04086e-12 1.0842e-19 0.0149988 0.136686 -0.0145833 0.000317199
0.015 1.0842e-19 0 0 0 0
-0.015 -1.0842e-19 0 0 0 0
0.01375 0 0.00608215 0.112803 -0.0163364 0.000187099
-0.01375 -2.71051e-20 0.00608215 0.11172 -0.0148291 0.00013469
0.00625 0 0.0137433 0.134545 -0.015081 0.000321284
-0.00625 -1.807e-20 0.0137433 0.134081 -0.0144415 0.000273411
0.015 1.0842e-19 0.00233887 0.0824618 -0.0146169 7.87954e-05
-0.015 -1.0842e-19 0.00233887 0.0814569 -0.0131644 5.7528e-05
0.0025 1.0842e-19 0.0149988 0.136777 -0.0147101 0.000327561
-0.0025 1.0842e-19 0.0149988 0.136596 -0.0144577 0.000307174
0.015 1.0842e-19 0.00479858 0.105808 -0.0162706 0.000153723
-0.015 -1.0842e-19 0.00479858 0.104649 -0.0146371 0.000108762
0.005 1.0842e-19 0.0149988 0.136869 -0.0148379 0.000338258
-0.005 1.0842e-19 0.0149988 0.136509 -0.0143331 0.000297464
0.015877 5.42101e-20 0 0 0 0
-0.015877 1.6263e-19 0 0 0 0
0.01125 0 0.011217 0.129256 -0.0157059 0.000294434
-0.01125 0 0.011217 0.128385 -0.0145225 0.000220686
0.0125 1.0842e-19 0.00994629 0.125971 -0.0159428 0.000272746
-0.0125 1.0842e-19 0.00994629 0.124992 -0.0146106 0.000198444
0.01 1.0842e-19 0.0124878 0.132025 -0.0154588 0.000313884
-0.01 1.0842e-19 0.0124878 0.131267 -0.0144211 0.000242544
0.01375 0 0.008656 0.122413 -0.0161708 0.000249001
-0.01375 0 0.00865601 0.121326 -0.0146871 0.00017626
-0.01625 0 0.00116944 0.0592079 -0.0104478 3.00864e-05
0.01625 1.807e-20 0.00116944 0.0600526 -0.0116863 4.10694e-05
0.00875 -1.807e-20 0.0137433 0.134643 -0.015212 0.000331822
-0.00875 3.61401e-20 0.0137433 0.133993 -0.0143164 0.000264675
-0.00125 3.61401e-20 0.0162494 0.138931 -0.0143469 0.000332345
0.00125 0 0.0162494 0.139019 -0.0144714 0.000343144
-0.016623 0 0 0 0 0
0.016623 -5.42101e-20 0 0 0 0
0.01625 1.807e-20 0.00356873 0.0974243 -0.0159991 0.000118647
-0.01625 9.03502e-21 0.00356873 0.0962109 -0.0142667 8.3034e-05
0.00375 0 0.0162494 0.139108 -0.014597 0.000354294
-0.00375 3.61401e-20 0.0162494 0.138846 -0.0142235 0.000321929
0.015 1.0842e-19 0.00736572 0.117916 -0.0163474 0.00022208
-0.015 1.0842e-19 0.00736572 0.11673 -0.0147136 0.000153573
0.0075 1.0842e-19 0.0149988 0.136964 -0.0149666 0.000349301
-0.0075 1.0842e-19 0.0149988 0.136423 -0.0142093 0.000288034
0.01625 -1.807e-20 0.00608215 0.112913 -0.0164802 0.000192809
-0.01625 9.03502e-21 0.00608215 0.111631 -0.0146991 0.000130793
0.00625 3.61401e-20 0.0162494 0.139199 -0.0147235 0.00036579
-0.00625 0 0.0162494 0.138763 -0.014101 0.000311834
0.0175 1.0842e-19 0 0 0 0
-0.0175 -1.0842e-19 0 0 0 0
-1.024e-14 1.0842e-19 0.0175 0.141071 -0.0142375 0.000358947
0.0175 1.0842e-19 0.00233887 0.0825577 -0.0147434 8.09578e-05
-0.0175 -1.0842e-19 0.00233887 0.081384 -0.0130494 5.6224e-05
0.0125 1.0842e-19 0.0124878 0.132129 -0.0155932 0.000324132
-0.0125 1.0842e-19 0.0124878 0.131179 -0.0142961 0.000234778
0.0025 1.0842e-19 0.0175 0.141156 -0.0143609 0.000370474
-0.0025 1.0842e-19 0.0175 0.140987 -0.0141151 0.000347818
0.01375 3.61401e-20 0.011217 0.129362 -0.0158427 0.000303987
-0.01375 1.807e-20 0.011217 0.128296 -0.0143963 0.000213625
-0.01125 -1.807e-20 0.0137433 0.133908 -0.0141925 0.000256214
0.01125 3.61401e-20 0.0137433 0.134743 -0.0153441 0.000342688
0.015 1.0842e-19 0.00994629 0.126079 -0.016082 0.000281523
-0.015 1.0842e-19 0.00994629 0.124903 -0.0144834 0.000192163
0.01 1.0842e-19 0.0149988 0.13706 -0.0150964 0.000360692
-0.01 1.0842e-19 0.0149988 0.136339 -0.0140864 0.000278884
0.0175 1.0842e-19 0.00479858 0.105918 -0.0164139 0.000158313
-0.0175 1.0842e-19 0.00479858 0.104564 -0.0145086 0.00010584
0.005 1.0842e-19 0.0175 0.141244 -0.0144853 0.000382362
-0.005 1.0842e-19 0.0175 0.140906 -0.0139937 0.000337071
0.018377 -5.42101e-20 0 0 0 0
-0.018377 -5.42101e-20 0 0 0 0
0.01625 1.807e-20 0.008656 0.122524 -0.0163122 0.000256908
-0.01625 3.61401e-20 0.00865601 0.121238 -0.014559 0.000170767
0.00875 3.61401e-20 0.0162494 0.139292 -0.0148511 0.000377642
-0.00875 0 0.0162494 0.13868 -0.0139793 0.000302028
-0.01875 9.03502e-21 0.00116944 0.0591533 -0.0103571 2.95308e-05
0.01875 -1.807e-20 0.00116944 0.0601284 -0.0117853 4.20785e-05
0.00125 0 0.01875 0.14315 -0.0141276 0.000385949
-0.00125 -1.807e-20 0.01875 0.143069 -0.0140063 0.000374104
0.0175 1.0842e-19 0.00736572 0.118028 -0.0164908 0.000229008
-0.0175 1.0842e-19 0.00736572 0.116642 -0.014585 0.000148987
0.0075 1.0842e-19 0.0175 0.141333 -0.0146106 0.000394606
-0.0075 1.0842e-19 0.0175 0.140826 -0.0138731 0.00032664
0.01875 -9.03502e-21 0.00356873 0.0975316 -0.0161397 0.000122059
-0.01875 9.03502e-21 0.00356873 0.0961293 -0.0141413 8.10447e-05
-0.00375 0 0.01875 0.142989 -0.0138861 0.000362702
0.00375 3.61401e-20 0.01875 0.143234 -0.0142499 0.000398173
-0.019123 5.42101e-20 0 0 0 0
0.019123 0 0 0 0 0
0.01375 3.61401e-20 0.0137433 0.134845 -0.015477 0.000353884
-0.01375 0 0.0137433 0.133823 -0.0140698 0.000248005
0.015 1.0842e-19 0.0124878 0.132234 -0.0157286 0.000334691
-0.015 1.0842e-19 0.0124878 0.131094 -0.0141722 0.000227235
0.0125 1.0842e-19 0.0149988 0.137159 -0.015227 0.000372432
-0.0125 1.0842e-19 0.0149988 0.136257 -0.0139646 0.000270024
0.01875 0 0.00608215 0.113025 -0.0166251 0.000198679
-0.01875 3.61401e-20 0.00608215 0.111545 -0.0145702 0.000127104
0.01625 0 0.011217 0.12947 -0.0159804 0.000313832
-0.01625 -1.807e-20 0.011217 0.12821 -0.0142714 0.000206765
-0.01125 0 0.0162494 0.1386 -0.0138585 0.000292513
0.01125 3.61401e-20 0.0162494 0.139387 -0.0149794 0.000389858
0.00625 0 0.01875 0.143319 -0.0143731 0.000410767
-0.00625 -1.807e-20 0.01875 0.142911 -0.0137666 0.00035164
0.02 0 0 0 0 0
-0.02 1.0842e-19 0 0 0 0
-1.02401e-14 1.0842e-19 0.02 0.145008 -0.0139006 0.00040185
0.0175 1.0842e-19 0.00994629 0.126189 -0.0162221 0.000290551
-0.0175 1.0842e-19 0.00994629 0.124816 -0.0143574 0.000186088
0.02 1.0842e-19 0.00233887 0.0826556 -0.0148706 8.315e-05
-0.02 0 0.00233887 0.0813128 -0.0129354 5.50167e-05
0.01 1.0842e-19 0.0175 0.141424 -0.0147368 0.000407226
0.0025 1.0842e-19 0.02 0.145088 -0.0140208 0.000414364
-0.0025 1.0842e-19 0.02 0.14493 -0.0137814 0.000389762
-0.01 1.0842e-19 0.0175 0.140747 -0.0137534 0.0003165
0.02 1.0842e-19 0.00479858 0.106029 -0.0165583 0.00016302
-0.02 1.0842e-19 0.00479858 0.10448 -0.0143811 0.000103059
0.005 1.0842e-19 0.02 0.14517 -0.0141419 0.000427266
-0.005 1.0842e-19 0.02 0.144854 -0.0136631 0.000378085
0.01875 1.807e-20 0.008656 0.122635 -0.0164548 0.000265031
-0.01875 0 0.008656 0.12115 -0.0144321 0.000165485
0.00875 1.807e-20 0.01875 0.143407 -0.0144972 0.000423735
-0.00875 0 0.01875 0.142835 -0.013648 0.000340901
0.020877 1.6263e-19 0 0 0 0
-0.020877 -1.0842e-19 0 0 0 0
0.015 1.0842e-19 0.0149988 0.137259 -0.0153586 0.000384524
-0.015 1.0842e-19 0.0149988 0.136176 -0.0138439 0.000261441
-0.02125 1.807e-20 0.00116944 0.0590989 -0.0102673 2.90567e-05
0.02125 1.807e-20 0.00116944 0.0602058 -0.0118847 4.30882e-05
0.01625 -1.807e-20 0.0137433 0.134949 -0.015611 0.000365425
-0.01625 -1.807e-20 0.0137433 0.133741 -0.013948 0.000240031
0.01375 3.61401e-20 0.0162494 0.139484 -0.0151087 0.000402459
-0.01375 0 0.0162494 0.138521 -0.0137387 0.000283331
0.00125 0 0.02125 0.146903 -0.0137948 0.000429846
-0.00125 0 0.02125 0.146827 -0.0136767 0.000417097
0.02 1.0842e-19 0.00736572 0.118141 -0.0166352 0.000236131
-0.02 1.0842e-19 0.00736572 0.116555 -0.0144575 0.00014459
0.0075 1.0842e-19 0.02 0.145254 -0.0142639 0.000440553
-0.0075 1.0842e-19 0.02 0.144779 -0.0135456 0.00036676
0.0175 1.0842e-19 0.0124878 0.132341 -0.0158649 0.000345562
-0.0175 1.0842e-19 0.0124878 0.13101 -0.0140493 0.000219919
0.0125 1.0842e-19 0.0175 0.141517 -0.0148638 0.000420238
-0.0125 1.0842e-19 0.0175 0.140671 -0.0136347 0.000306675
0.02125 0 0.00356872 0.0976412 -0.0162813 0.000125555
-0.02125 -1.807e-20 0.00356873 0.0960498 -0.014017 7.9117e-05
-0.00375 3.61401e-20 0.02125 0.146752 -0.0135596 0.000404807
0.00375 -1.807e-20 0.02125 0.146981 -0.0139139 0.000443014
-0.021623 0 0 0 0 0
0.021623 -5.42101e-20 0 0 0 0
0.01875 1.807e-20 0.011217 0.129581 -0.0161191 0.000323964
-0.01875 3.61401e-20 0.011217 0.128124 -0.0141474 0.000200133
0.01125 0 0.01875 0.143496 -0.0146221 0.000437123
-0.01125 -1.807e-20 0.01875 0.142759 -0.0135304 0.000330457
0.02125 0 0.00608215 0.113139 -0.0167709 0.00020471
-0.02125 0 0.00608215 0.111458 -0.0144427 0.000123536
0.00625 -1.807e-20 0.02125 0.147062 -0.0140339 0.000456586
-0.00625 3.61401e-20 0.02125 0.146679 -0.0134433 0.0003929
0.02 1.0842e-19 0.00994629 0.126302 -0.0163633 0.000299838
-0.02 1.0842e-19 0.00994629 0.12473 -0.0142325 0.000180228
0.01 1.0842e-19 0.02 0.14534 -0.0143867 0.000454255
-0.01 1.0842e-19 0.02 0.144706 -0.013429 0.000355771
0.0225 0 0 0 0 0
-0.0225 -1.0842e-19 0 0 0 0
-1.02402e-14 1.0842e-19 0.0225 0.148611 -0.0135764 0.000445939
0.0225 -1.0842e-19 0.00233887 0.0827559 -0.0149984 8.53952e-05
-0.0225 1.0842e-19 0.00233887 0.0812431 -0.0128224 5.38849e-05
0.0025 1.0842e-19 0.0225 0.148686 -0.0136934 0.000459306
-0.0025 1.0842e-19 0.0225 0.148537 -0.0134603 0.000433024
0.02125 0 0.008656 0.12275 -0.0165983 0.000273375
-0.02125 0 0.008656 0.121064 -0.0143063 0.000160429
0.01625 0 0.0162494 0.139583 -0.0152387 0.000415422
-0.01625 0 0.0162494 0.138444 -0.0136201 0.000274432
-0.00875 -1.807e-20 0.02125 0.146608 -0.0133277 0.000381358
0.00875 0 0.02125 0.147144 -0.0141546 0.000470573
0.0225 1.0842e-19 0.00479858 0.106143 -0.0167037 0.000167848
-0.0225 1.0842e-19 0.00479858 0.104397 -0.0142549 0.000100363
0.0175 1.0842e-19 0.0149988 0.137362 -0.015491 0.000396973
-0.0175 1.0842e-19 0.0149988 0.136097 -0.0137241 0.00025311
0.005 1.0842e-19 0.0225 0.148763 -0.0138113 0.000473095
-0.005 1.0842e-19 0.0225 0.148466 -0.0133451 0.000420531
0.015 1.0842e-19 0.0175 0.141612 -0.0149917 0.000433644
-0.015 1.0842e-19 0.0175 0.140595 -0.0135169 0.000297173
-0.01875 0 0.0137433 0.13366 -0.0138272 0.000232295
0.01875 0 0.0137433 0.135056 -0.0157457 0.000377298
-0.01375 0 0.01875 0.142686 -0.0134135 0.000320354
0.01375 -1.807e-20 0.01875 0.143588 -0.0147477 0.000450912
0.023377 -5.42101e-20 0 0 0 0
-0.023377 -1.6263e-19 0 0 0 0
0.02 1.0842e-19 0.0124878 0.132451 -0.0160021 0.000356752
-0.02 1.0842e-19 0.0124878 0.130927 -0.0139275 0.000212827
0.0125 1.0842e-19 0.02 0.145428 -0.0145103 0.000468386
-0.0125 1.0842e-19 0.02 0.144635 -0.0133132 0.000345117
0.0225 1.0842e-19 0.00736572 0.118256 -0.0167807 0.00024345
-0.0225 1.0842e-19 0.00736572 0.11647 -0.0143313 0.000140344
0.0075 1.0842e-19 0.0225 0.148842 -0.01393 0.000487311
-0.0075 1.0842e-19 0.0225 0.148396 -0.0132305 0.000408418
0.02375 0 0.00116944 0.0602853 -0.0119845 4.41298e-05
-0.02375 0 0.00116944 0.0590469 -0.0101781 2.86605e-05
0.00125 3.61401e-20 0.02375 0.150359 -0.0134763 0.000474857
-0.00125 0 0.02375 0.150287 -0.0133612 0.00046134
0.02375 0 0.00356872 0.0977531 -0.0164236 0.000129119
-0.02375 9.03502e-21 0.00356873 0.0959715 -0.0138938 7.72388e-05
0.02125 0 0.011217 0.129693 -0.0162588 0.000334391
-0.02125 1.807e-20 0.011217 0.128041 -0.0140247 0.000193719
0.01125 0 0.02125 0.147228 -0.0142762 0.000484999
-0.01125 0 0.02125 0.146538 -0.0132131 0.000370181
0.00375 3.61401e-20 0.02375 0.150432 -0.0135922 0.000488832
-0.00375 -1.807e-20 0.02375 0.150217 -0.0132473 0.0004483
-0.024123 1.0842e-19 0 0 0 0
0.024123 -5.42101e-20 0 0 0 0
0.02375 0 0.00608215 0.113256 -0.0169179 0.000210915
-0.02375 0 0.00608215 0.111375 -0.0143163 0.00012006
0.00625 -1.807e-20 0.02375 0.150508 -0.013709 0.00050324
-0.00625 3.61401e-20 0.02375 0.150148 -0.0131337 0.000435641
0.0225 1.0842e-19 0.00994629 0.126417 -0.0165054 0.000309387
-0.0225 1.0842e-19 0.00994629 0.124646 -0.0141088 0.000174573
0.01 1.0842e-19 0.0225 0.148923 -0.0140495 0.000501979
-0.01 1.0842e-19 0.0225 0.148329 -0.0131168 0.000396687
0.0175 1.0842e-19 0.0175 0.14171 -0.0151204 0.00044745
-0.0175 1.0842e-19 0.0175 0.140522 -0.0134001 0.000287965
0.01875 0 0.0162494 0.139684 -0.0153697 0.000428775
-0.01875 -1.807e-20 0.0162494 0.138369 -0.0135023 0.00026578
-0.01625 3.61401e-20 0.01875 0.142615 -0.0132978 0.000310596
0.01625 3.61401e-20 0.01875 0.143682 -0.0148743 0.000465105
0.02 1.0842e-19 0.0149988 0.137467 -0.0156243 0.000409785
-0.02 1.0842e-19 0.0149988 0.13602 -0.0136054 0.000245026
0.015 1.0842e-19 0.02 0.145518 -0.0146347 0.000482948
-0.015 1.0842e-19 0.02 0.144565 -0.0131984 0.00033481
0.025 0 0 0 0 0
-0.025 1.0842e-19 0 0 0 0
-1.02401e-14 1.0842e-19 0.025 0.151943 -0.0132668 0.000490885
0.025 -1.0842e-19 0.00233887 0.0828585 -0.0151267 8.77205e-05
-0.025 1.0842e-19 0.00233887 0.0811751 -0.0127103 5.27749e-05
0.0025 1.0842e-19 0.025 0.152013 -0.0133809 0.000504999
-0.0025 1.0842e-19 0.025 0.151874 -0.0131537 0.000477252
-0.02375 1.807e-20 0.008656 0.12098 -0.0141818 0.000155555
0.02375 0 0.00865601 0.122866 -0.0167428 0.000281976
0.02125 0 0.0137433 0.135165 -0.0158813 0.000389526
-0.02125 3.61401e-20 0.0137433 0.13358 -0.0137076 0.000224791
0.01375 3.61401e-20 0.02125 0.147315 -0.0143985 0.000499862
-0.00875 0 0.02375 0.150082 -0.0130212 0.000423374
0.00875 0 0.02375 0.150587 -0.0138265 0.000518117
-0.01375 -1.807e-20 0.02125 0.14647 -0.0130992 0.000359339
0.025 1.0842e-19 0.00479858 0.106259 -0.0168499 0.00017281
-0.025 1.0842e-19 0.00479858 0.104316 -0.01413 9.77368e-05
0.005 1.0842e-19 0.025 0.152086 -0.0134957 0.000519572
-0.005 1.0842e-19 0.025 0.151807 -0.0130414 0.000464062
0.0225 1.0842e-19 0.0124878 0.132563 -0.0161402 0.000368259
-0.0225 1.0842e-19 0.0124878 0.130846 -0.0138068 0.000205958
0.0125 1.0842e-19 0.0225 0.149006 -0.0141698 0.000517103
-0.0125 1.0842e-19 0.0225 0.148262 -0.013004 0.00038533
0.025877 0 0 0 0 0
-0.025877 1.0842e-19 0 0 0 0
0.025 1.0842e-19 0.00736572 0.118374 -0.0169271 0.000250987
-0.025 1.0842e-19 0.00736572 0.116386 -0.0142063 0.000136236
0.0075 1.0842e-19 0.025 0.152161 -0.0136113 0.000534608
-0.0075 1.0842e-19 0.025 0.151741 -0.0129297 0.000451269
0.02375 -1.807e-20 0.011217 0.129809 -0.0163993 0.000345105
-0.02375 3.61401e-20 0.011217 0.127958 -0.013903 0.000187515
0.02625 0 0.00116944 0.0603668 -0.0120844 4.52499e-05
-0.02625 0 0.00116944 0.0589961 -0.0100896 2.8231e-05
0.00125 -1.807e-20 0.02625 0.153569 -0.013173 0.00052043
0.01125 -1.807e-20 0.02375 0.150666 -0.0139447 0.000533454
-0.01125 3.61401e-20 0.02375 0.150018 -0.0129092 0.000411501
-0.00125 -1.807e-20 0.02625 0.153501 -0.0130608 0.000506211
0.02625 0 0.00356872 0.0978677 -0.0165668 0.000132764
-0.02625 9.03502e-21 0.00356873 0.0958946 -0.0137719 7.53899e-05
0.00375 0 0.02625 0.153639 -0.0132859 0.000535116
0.01875 3.61401e-20 0.01875 0.143778 -0.0150015 0.00047973
-0.00375 -1.807e-20 0.02625 0.153435 -0.0129496 0.0004925
-0.01875 3.61401e-20 0.01875 0.142545 -0.0131829 0.000301149
0.02 1.0842e-19 0.0175 0.14181 -0.0152499 0.000461659
0.0175 1.0842e-19 0.02 0.14561 -0.0147598 0.00049795
-0.0175 1.0842e-19 0.02 0.144497 -0.0130845 0.000324838
-0.02 1.0842e-19 0.0175 0.14045 -0.0132843 0.000279037
-0.026623 1.0842e-19 0 0 0 0
0.026623 0 0 0 0 0
0.02125 0 0.0162494 0.139788 -0.0155013 0.000442488
-0.02125 0 0.0162494 0.138295 -0.0133857 0.000257392
0.01625 0 0.02125 0.147403 -0.0145215 0.000515175
-0.01625 3.61401e-20 0.02125 0.146404 -0.0129865 0.000348872
0.025 1.0842e-19 0.00994629 0.126533 -0.0166484 0.000319211
-0.025 1.0842e-19 0.00994629 0.124563 -0.0139862 0.000169102
0.01 1.0842e-19 0.025 0.152237 -0.0137276 0.000550119
-0.01 1.0842e-19 0.025 0.151678 -0.0128189 0.000438881
0.02625 1.807e-20 0.00608215 0.113374 -0.0170658 0.000217312
-0.02625 9.03502e-21 0.00608215 0.111291 -0.0141913 0.000116709
0.00625 0 0.02625 0.15371 -0.0133996 0.000550286
-0.00625 3.61401e-20 0.02625 0.153371 -0.0128389 0.000479206
0.0225 1.0842e-19 0.0149988 0.137575 -0.0157584 0.000422959
-0.0225 1.0842e-19 0.0149988 0.135944 -0.0134877 0.000237186
0.015 1.0842e-19 0.0225 0.149091 -0.0142908 0.000532693
-0.015 1.0842e-19 0.0225 0.148197 -0.012892 0.000374342
0.02375 0 0.0137433 0.135276 -0.0160178 0.000402072
-0.02375 -1.807e-20 0.0137433 0.133502 -0.0135889 0.000217519
-0.01375 0 0.02375 0.149955 -0.0127982 0.00040002
0.01375 3.61401e-20 0.02375 0.150748 -0.0140638 0.000549259
0.0275 2.1684e-19 0 0 0 0
-0.0275 1.0842e-19 0 0 0 0
-1.02402e-14 1.0842e-19 0.0275 0.155052 -0.0129722 0.000536258
-0.0275 1.0842e-19 0.00233887 0.0811083 -0.0125993 5.17401e-05
0.0275 -1.0842e-19 0.00233887 0.0829634 -0.0152556 9.01086e-05
0.0025 1.0842e-19 0.0275 0.155119 -0.0130833 0.000551021
-0.0025 1.0842e-19 0.0275 0.154987 -0.012862 0.000522002
0.02625 3.61401e-20 0.008656 0.122985 -0.0168881 0.000290853
-0.02625 0 0.008656 0.120896 -0.0140584 0.000150845
0.00875 0 0.02625 0.153784 -0.0135139 0.00056592
-0.00875 3.61401e-20 0.02625 0.153309 -0.012729 0.00046632
0.0275 1.0842e-19 0.00479858 0.106378 -0.016997 0.000177914
-0.0275 1.0842e-19 0.00479858 0.104236 -0.0140062 9.52356e-05
0.025 1.0842e-19 0.0124878 0.132677 -0.0162792 0.000380083
-0.025 1.0842e-19 0.0124878 0.130766 -0.0136872 0.000199302
0.005 1.0842e-19 0.0275 0.155188 -0.0131951 0.000566264
-0.005 1.0842e-19 0.0275 0.154924 -0.0127525 0.00050822
0.0125 1.0842e-19 0.025 0.152316 -0.0138446 0.000566114
-0.0125 1.0842e-19 0.025 0.151616 -0.0127089 0.000426896
0.02 1.0842e-19 0.02 0.145705 -0.0148857 0.000513396
-0.02 1.0842e-19 0.02 0.144431 -0.0129716 0.00031518
0.01875 -1.807e-20 0.02125 0.147494 -0.0146453 0.000530952
-0.01875 -1.807e-20 0.02125 0.146339 -0.0128744 0.000338726
0.02125 0 0.01875 0.143876 -0.0151295 0.000494767
-0.02125 3.61401e-20 0.01875 0.142476 -0.0130691 0.000291996
0.028377 0 0 0 0 0
-0.028377 1.0842e-19 0 0 0 0
0.0275 1.0842e-19 0.00736572 0.118495 -0.0170745 0.000258748
-0.0275 1.0842e-19 0.00736572 0.116303 -0.0140824 0.000132268
0.0075 1.0842e-19 0.0275 0.155259 -0.0133076 0.000581993
-0.0075 1.0842e-19 0.0275 0.154862 -0.0126437 0.000494857
0.0225 1.0842e-19 0.0175 0.141912 -0.0153802 0.000476274
0.0175 1.0842e-19 0.0225 0.149178 -0.0144125 0.000548751
-0.0175 1.0842e-19 0.0225 0.148134 -0.0127809 0.00036371
-0.0225 1.0842e-19 0.0175 0.14038 -0.0131695 0.000270383
-0.02625 3.61401e-20 0.011217 0.127877 -0.0137825 0.000181496
0.02625 3.61401e-20 0.011217 0.129925 -0.0165407 0.000356113
0.01125 0 0.02625 0.15386 -0.0136289 0.000582053
-0.01125 3.61401e-20 0.02625 0.153248 -0.0126201 0.000453856
0.02875 9.03502e-21 0.00116944 0.0604502 -0.0121846 4.63369e-05
-0.02875 -9.03502e-21 0.00116944 0.0589461 -0.010002 2.78823e-05
-0.02375 3.61401e-20 0.0162494 0.138222 -0.0132699 0.000249265
0.02375 0 0.0162494 0.139893 -0.0156339 0.000456598
0.00125 3.61401e-20 0.02875 0.156579 -0.012884 0.000566133
0.01625 3.61401e-20 0.02375 0.150832 -0.0141834 0.000565553
-0.01625 3.61401e-20 0.02375 0.149893 -0.012688 0.000388916
-0.00125 3.61401e-20 0.02875 0.156515 -0.0127748 0.000551335
0.02875 9.03502e-21 0.00356872 0.0979846 -0.0167107 0.000136541
-0.02875 1.807e-20 0.00356873 0.0958186 -0.0136512 7.3726e-05
-0.00375 0 0.02875 0.156452 -0.0126666 0.000537081
0.00375 3.61401e-20 0.02875 0.156645 -0.0129941 0.000581423
-0.029123 5.42101e-20 0 0 0 0
0.029123 -1.0842e-19 0 0 0 0
0.025 1.0842e-19 0.0149988 0.137684 -0.0158933 0.000436497
-0.025 1.0842e-19 0.0149988 0.13587 -0.0133711 0.000229591
0.015 1.0842e-19 0.025 0.152397 -0.0139623 0.000582601
-0.015 1.0842e-19 0.025 0.151556 -0.0125997 0.000415311
0.0275 1.0842e-19 0.00994629 0.126652 -0.0167924 0.000329312
-0.0275 1.0842e-19 0.00994629 0.124481 -0.0138648 0.000163803
0.01 1.0842e-19 0.0275 0.155332 -0.0134208 0.000598224
-0.01 1.0842e-19 0.0275 0.154802 -0.0125356 0.000481917
-0.02875 1.807e-20 0.00608215 0.11121 -0.0140673 0.000113516
0.02875 3.61401e-20 0.00608215 0.113496 -0.0172145 0.000223872
0.00625 3.61401e-20 0.02875 0.156713 -0.0131047 0.000597206
-0.00625 1.807e-20 0.02875 0.156391 -0.0125589 0.000523253
-0.02625 -1.807e-20 0.0137433 0.133425 -0.0134714 0.000210478
0.02625 0 0.0137433 0.135389 -0.0161551 0.000414964
0.01375 3.61401e-20 0.02625 0.153937 -0.0137447 0.00059869
-0.01375 3.61401e-20 0.02625 0.153188 -0.0125118 0.000441796
0.03 -1.0842e-19 0 0 0 0
-0.03 1.0842e-19 0 0 0 0
-1.02403e-14 1.0842e-19 0.03 0.157976 -0.0126924 0.000581406
0.02875 0 0.008656 0.123106 -0.0170344 0.000299963
-0.02875 0 0.008656 0.120814 -0.0139362 0.000146267
-0.02125 0 0.02125 0.146276 -0.0127633 0.000328903
-0.00875 -1.807e-20 0.02875 0.156332 -0.0124518 0.000509855
0.02125 1.807e-20 0.02125 0.147587 -0.0147698 0.000547194
0.00875 3.61401e-20 0.02875 0.156784 -0.0132161 0.000613502
0.03 1.0842e-19 0.00233887 0.0830706 -0.0153849 9.25597e-05
-0.03 1.0842e-19 0.00233887 0.0810429 -0.0124894 5.08217e-05
0.02 1.0842e-19 0.0225 0.149268 -0.0145349 0.000565289
0.0225 1.0842e-19 0.02 0.145801 -0.0150123 0.000529293
0.0025 1.0842e-19 0.03 0.158041 -0.0128005 0.000596745
-0.0025 1.0842e-19 0.03 0.157914 -0.012585 0.000566601
-0.02 1.0842e-19 0.0225 0.148073 -0.0126707 0.000353422
-0.0225 1.0842e-19 0.02 0.144366 -0.0128596 0.000305824
0.0275 1.0842e-19 0.0124878 0.132793 -0.016419 0.00039222
-0.0275 1.0842e-19 0.0124878 0.130688 -0.0135687 0.00019286
0.0125 1.0842e-19 0.0275 0.155407 -0.0135346 0.000614969
-0.0125 1.0842e-19 0.0275 0.154744 -0.0124283 0.000469397
0.02375 -1.807e-20 0.01875 0.143977 -0.0152583 0.000510249
0.01875 0 0.02375 0.150918 -0.0143036 0.000582317
-0.01875 3.61401e-20 0.02375 0.149833 -0.0125787 0.000378174
-0.02375 3.61401e-20 0.01875 0.142409 -0.0129562 0.000283117
0.03 1.0842e-19 0.00479858 0.106499 -0.017145 0.000183167
-0.03 1.0842e-19 0.00479858 0.104157 -0.0138836 9.28642e-05
0.005 1.0842e-19 0.03 0.158107 -0.0129093 0.000612577
-0.005 1.0842e-19 0.03 0.157853 -0.0124784 0.000552293
0.025 1.0842e-19 0.0175 0.142016 -0.0155112 0.000491306
0.0175 1.0842e-19 0.025 0.15248 -0.0140806 0.000599583
-0.0175 1.0842e-19 0.025 0.151497 -0.0124913 0.000404108
-0.025 1.0842e-19 0.0175 0.140311 -0.0130557 0.000261998
-0.02875 0 0.011217 0.127797 -0.013663 0.000175677
0.02875 1.807e-20 0.011217 0.130044 -0.016683 0.00036741
0.02625 3.61401e-20 0.0162494 0.140002 -0.015767 0.000471096
-0.02625 0 0.0162494 0.138152 -0.0131552 0.000241402
-0.01125 -1.807e-20 0.02875 0.156274 -0.0123454 0.000496885
0.01125 0 0.02875 0.156856 -0.0133279 0.000630304
0.01625 -1.807e-20 0.02625 0.154017 -0.0138611 0.000615825
-0.01625 0 0.02625 0.153131 -0.0124046 0.000430166
0.030877 0 0 0 0 0
-0.030877 1.0842e-19 0 0 0 0
0.03 1.0842e-19 0.00736572 0.118617 -0.0172227 0.000266696
-0.03 1.0842e-19 0.00736572 0.116221 -0.0139598 0.000128422
0.0075 1.0842e-19 0.03 0.158175 -0.0130188 0.000628902
-0.0075 1.0842e-19 0.03 0.157794 -0.0123723 0.000538434
0.03125 -1.807e-20 0.00116944 0.0605355 -0.0122849 4.74664e-05
-0.03125 -1.807e-20 0.00116944 0.0588979 -0.0099151 2.75974e-05
0.00125 0 0.03125 0.159414 -0.0126107 0.000611032
-0.00125 0 0.03125 0.159351 -0.0125044 0.000595713