# UMean  POINT_DATA 38412
# x  y  z  UMean_x  UMean_y  UMean_z
0 -0.000876977 7.72851e-09 2.78755e-07 -5.25862e-08 1.47307e-10
-1.0842e-19 0.000373007 0.00116944 0.0661697 -0.0125221 3.56618e-05
0 0.00162301 7.22625e-09 2.60022e-07 -4.97384e-08 1.44682e-10
-2.1684e-19 -0.00212699 0.00116944 0.066322 -0.0123794 3.39628e-05
6.51843e-20 -0.000876996 0.00233887 0.0819816 -0.0138218 6.59174e-05
1.1324e-19 0.00162301 0.00233887 0.0818259 -0.0139727 6.91657e-05
0 0.00287301 0.00116943 0.0660106 -0.0126656 3.74996e-05
1.65436e-24 -0.00337698 7.72879e-09 2.79398e-07 -5.19827e-08 1.40044e-10
1.0842e-19 0.000373004 0.00356872 0.0978927 -0.015294 9.98446e-05
-1.03398e-25 0.00162301 0.00347077 0.0925346 -0.0146913 9.8561e-05
0 -0.000876997 0.0039882 0.0975847 -0.0148656 0.000106736
-2.99957e-20 -0.003377 0.00233887 0.0821312 -0.0136719 6.28408e-05
0 0.00412303 6.77238e-09 2.43087e-07 -4.71513e-08 1.42046e-10
2.1684e-19 -0.002127 0.00356872 0.0980459 -0.0151355 9.51961e-05
1.0842e-19 0.002873 0.00356872 0.0977342 -0.0154531 0.0001047
-5.64216e-20 0.00412301 0.00233887 0.0816633 -0.0141245 7.24953e-05
0 -0.004627 0.00116943 0.0664684 -0.0122378 3.22982e-05
0 -0.000876998 0.00479858 0.105251 -0.0153784 0.000126792
-5.16988e-26 0.00412301 0.00276507 0.0856959 -0.0143959 8.41194e-05
0 0.001623 0.00479858 0.105097 -0.0155343 0.000133044
2.58494e-26 -0.003377 0.00418769 0.0996206 -0.0148381 0.000106514
-1.0842e-19 0.00537301 0.00116944 0.0658452 -0.0128099 3.91442e-05
0 -0.004627 0.00356872 0.0981924 -0.0149785 9.08571e-05
-5.16988e-26 -0.003377 0.00479858 0.1054 -0.0152235 0.000120945
1.65436e-24 -0.005877 7.46194e-09 2.70339e-07 -4.96077e-08 1.28836e-10
0 0.000373001 0.00608215 0.112563 -0.0156209 0.000160262
6.46235e-27 0.00566877 0.00233887 0.0815587 -0.0142189 7.46915e-05
-3.8015e-20 -0.005877 0.00233887 0.082276 -0.0135227 6.0032e-05
1.03398e-25 0.004123 0.00479858 0.104936 -0.0156911 0.00013958
1.0842e-19 -0.002127 0.00608215 0.112713 -0.0154681 0.000152709
1.0842e-19 0.005373 0.00356873 0.0975671 -0.0156137 0.000109731
0 0.00662302 6.54409e-09 2.27886e-07 -4.48493e-08 1.40602e-10
-1.0842e-19 0.002873 0.00608215 0.112408 -0.015774 0.000168259
-3.61892e-25 0.006623 0.00230816 0.0804239 -0.0140897 7.50485e-05
-1.29247e-26 0.006623 0.00233887 0.081494 -0.0142772 7.60472e-05
0 -0.005877 0.00394677 0.097486 -0.0145337 9.63271e-05
-2.1684e-19 -0.00712701 0.00116943 0.0666093 -0.012097 3.09474e-05
0 -0.000876999 0.00736572 0.117345 -0.0154573 0.000181388
-5.16988e-26 0.001623 0.00736572 0.117195 -0.0156066 0.000190397
0 -0.005877 0.00479858 0.105544 -0.0150692 0.000115555
-1.0842e-19 -0.004627 0.00608215 0.112857 -0.0153167 0.000145824
1.0842e-19 0.007873 0.00116944 0.065672 -0.012955 4.12873e-05
-2.1684e-19 -0.007127 0.00356872 0.0983376 -0.0148211 8.69347e-05
0 -0.003377 0.00736572 0.117491 -0.0153087 0.000172958
-1.0842e-19 0.005373 0.00608215 0.112245 -0.0159282 0.000176566
1.03398e-25 0.006623 0.00479858 0.10477 -0.0158487 0.000146376
1.65436e-24 -0.008377 7.22726e-09 2.62384e-07 -4.74893e-08 1.19127e-10
-1.03398e-25 0.004123 0.00736572 0.117039 -0.0157566 0.000199857
0 0.007873 0.00356873 0.0973957 -0.0157749 0.000115173
1.0842e-19 0.000373 0.00865601 0.121987 -0.0154429 0.000211295
-1.33241e-19 -0.008377 0.00233887 0.0824159 -0.0133744 5.74186e-05
0 -0.002127 0.008656 0.122134 -0.015297 0.000201376
0 -0.008377 0.00311946 0.0898001 -0.0138635 7.42712e-05
-1.0842e-19 0.002873 0.008656 0.121837 -0.0155884 0.000221865
0 0.009123 5.99077e-09 2.08052e-07 -4.15246e-08 1.35594e-10
0 -0.007127 0.00608215 0.112998 -0.0151654 0.000139374
-5.16988e-26 0.009123 0.00221178 0.0769004 -0.0136465 7.55374e-05
5.16988e-26 0.009123 0.00233887 0.0813191 -0.0144307 7.98778e-05
0 -0.005877 0.00736572 0.117632 -0.0151607 0.000165099
0 -0.008377 0.00479858 0.105684 -0.0149156 0.000110523
-1.0842e-19 -0.009627 0.00116943 0.0667449 -0.0119571 2.94952e-05
0 -0.004627 0.00865601 0.122276 -0.0151524 0.000192006
1.98693e-20 0.006623 0.00736572 0.116878 -0.0159069 0.000209647
1.0842e-19 0.007873 0.00608215 0.112081 -0.0160823 0.000185015
0 -0.000877 0.00994629 0.125511 -0.0152129 0.000228811
0 0.001623 0.00994629 0.125365 -0.0153554 0.000240031
0 0.005373 0.008656 0.121681 -0.0157353 0.000232838
0 -0.009627 0.00356873 0.0984756 -0.0146658 8.31677e-05
0 0.009123 0.00479858 0.104599 -0.016007 0.000153497
0 0.010373 0.00116944 0.0654919 -0.0131009 4.33843e-05
0 -0.003377 0.00994629 0.125654 -0.0150709 0.000218134
-4.24601e-20 0.004123 0.00994629 0.125214 -0.0154984 0.000251834
0 -0.010877 7.09664e-09 2.5816e-07 -4.60863e-08 1.1166e-10
0 0.010373 0.00356873 0.0972207 -0.0159368 0.000120868
-7.0609e-20 -0.010877 0.00233887 0.082551 -0.0132272 5.48844e-05
-5.16988e-26 -0.008377 0.00736572 0.11777 -0.0150132 0.000157776
4.52364e-26 -0.010877 0.00251816 0.0842471 -0.0133391 5.8589e-05
2.1684e-19 -0.007127 0.008656 0.122415 -0.0150077 0.000183273
1.0842e-19 0.000373 0.011217 0.128872 -0.0151263 0.000257146
0 -0.009627 0.00608215 0.113135 -0.0150152 0.00013335
0 -0.002127 0.011217 0.129015 -0.014987 0.00024519
0 -0.005877 0.00994629 0.125793 -0.0149293 0.000207988
2.1684e-19 0.002873 0.011217 0.128727 -0.0152656 0.000269572
0 0.011623 5.20219e-09 1.80155e-07 -3.64672e-08 1.23692e-10
-2.1684e-19 0.007873 0.008656 0.121522 -0.0158816 0.000244271
1.03398e-25 0.009123 0.00736572 0.116713 -0.0160579 0.000219919
4.1359e-25 0.011623 0.0019339 0.0670896 -0.0120597 6.94425e-05
0 0.011623 0.00233887 0.0811384 -0.014585 8.3984e-05
0 -0.010877 0.00479858 0.10582 -0.014763 0.000105709
2.58494e-26 0.006623 0.00994629 0.125059 -0.0156418 0.000264278
0 0.010373 0.00608215 0.111908 -0.0162381 0.000193955
-2.1684e-19 -0.004627 0.011217 0.129154 -0.0148486 0.00023374
-1.0842e-19 -0.012127 0.00116943 0.0668759 -0.0118181 2.81832e-05
-1.0842e-19 0.005373 0.011217 0.128575 -0.015406 0.000282806
0 -0.000877 0.0124878 0.131682 -0.0148835 0.000271405
2.06795e-25 0.011623 0.00479858 0.104423 -0.0161661 0.000161272
0 0.001623 0.0124878 0.13154 -0.0150201 0.000284629
0 -0.012127 0.00356872 0.0986116 -0.0145107 7.95253e-05
-1.0842e-19 0.012873 0.00116944 0.065305 -0.0132477 4.55779e-05
0 -0.003377 0.0124878 0.13182 -0.0147474 0.000258802
0 -0.009627 0.008656 0.122547 -0.0148643 0.000175183
0 -0.008377 0.00994629 0.125927 -0.0147882 0.000198516
0 -0.010877 0.00736572 0.117903 -0.0148665 0.000150812
-2.35175e-20 0.004123 0.0124878 0.131393 -0.0151572 0.000298647
0 -0.007127 0.011217 0.12929 -0.0147099 0.00022272
-1.0842e-19 0.012873 0.00356872 0.0970399 -0.0160997 0.00012737
0 -0.013377 6.94728e-09 2.53214e-07 -4.45873e-08 1.04342e-10
2.58494e-26 0.009123 0.00994629 0.124899 -0.0157855 0.000277562
1.0842e-19 0.010373 0.008656 0.121356 -0.0160292 0.000256546
0 -0.012127 0.00608215 0.113268 -0.0148653 0.000127498
9.65629e-20 -0.013377 0.00233887 0.0826816 -0.013081 5.24151e-05
9.04729e-26 -0.013377 0.00281502 0.0871862 -0.0133772 6.18242e-05
-1.0842e-19 0.007873 0.011217 0.128421 -0.0155461 0.000296927
-1.0842e-19 0.000373 0.0137433 0.13434 -0.0147779 0.000298488
0 0.011623 0.00736572 0.116541 -0.0162097 0.00023096
0 -0.005877 0.0124878 0.131956 -0.0146116 0.00024669
0 -0.002127 0.0137433 0.134477 -0.0146442 0.000284629
-1.0842e-19 0.002873 0.0137433 0.134198 -0.014912 0.000313136
0 0.014123 4.00393e-09 1.34013e-07 -2.74989e-08 9.65524e-11
0 0.006623 0.0124878 0.131243 -0.0152946 0.000313523
-4.1359e-25 0.014123 0.00137285 0.0475156 -0.00865225 5.1837e-05
1.03398e-25 -0.013377 0.00479858 0.105952 -0.0146113 0.00010102
1.0842e-19 0.012873 0.00608215 0.111733 -0.0163939 0.000203968
-4.1359e-25 0.014123 0.00233887 0.0809504 -0.0147405 8.83125e-05
1.0842e-19 -0.004627 0.0137433 0.134612 -0.0145111 0.00027149
-1.0842e-19 -0.014627 0.00116943 0.0670013 -0.0116803 2.68971e-05
-1.29247e-26 -0.010877 0.00994629 0.126057 -0.0146478 0.000189601
1.0842e-19 0.005373 0.0137433 0.134051 -0.0150465 0.000328891
-4.1359e-25 0.0147726 0 0 0 0
-2.1684e-19 -0.009627 0.011217 0.12942 -0.0145723 0.000212685
0 -0.012127 0.008656 0.122677 -0.014721 0.000167288
2.06795e-25 0.014123 0.00479858 0.104241 -0.016326 0.000169704
0 -0.000877 0.0149988 0.136734 -0.0145371 0.000311862
-1.26722e-19 -0.008377 0.0124878 0.132088 -0.0144762 0.000235221
0 -0.014627 0.00356872 0.0987413 -0.0143574 7.58511e-05
0 0.001623 0.0149988 0.136596 -0.0146687 0.000327076
0 -0.013377 0.00736572 0.118032 -0.0147207 0.000144144
-1.0842e-19 0.010373 0.011217 0.12826 -0.0156869 0.000312218
0 0.011623 0.00994629 0.124733 -0.0159299 0.000291657
0 -0.003377 0.0149988 0.136869 -0.014406 0.000297448
-1.0842e-19 0.015373 0.00116944 0.0651113 -0.0133955 4.76725e-05
0 0.009123 0.0124878 0.131087 -0.0154323 0.000329374
1.0842e-19 -0.007127 0.0137433 0.134745 -0.0143781 0.000258661
-1.0842e-19 0.012873 0.008656 0.121185 -0.0161772 0.000269486
-3.93026e-20 0.004123 0.0149988 0.136453 -0.0148005 0.000343233
1.0842e-19 0.015373 0.00356872 0.0968491 -0.0162643 0.000133964
0 0.007873 0.0137433 0.1339 -0.0151813 0.000345276
0 -0.014627 0.00608215 0.113396 -0.014717 0.000121881
-8.27181e-25 -0.015877 6.63832e-09 2.42399e-07 -4.2103e-08 9.55495e-11
0 0.014123 0.00736572 0.116366 -0.0163618 0.000242808
-1.41409e-20 -0.015877 0.00233887 0.0828073 -0.0129358 5.01377e-05
1.9387e-26 -0.015877 0.00252442 0.0845629 -0.0130508 5.36405e-05
0 -0.005877 0.0149988 0.137001 -0.0142753 0.000283681
1.0842e-19 0.000373 0.0162494 0.138989 -0.0144279 0.000339993
0 -0.002127 0.0162494 0.139124 -0.0142989 0.000324283
8.07794e-28 0.006623 0.0149988 0.136306 -0.0149326 0.000360355
1.0842e-19 0.002873 0.0162494 0.13885 -0.0145572 0.000356632
0 -0.012127 0.011217 0.129546 -0.0144351 0.000203055
0 0.015373 0.00608215 0.111553 -0.0165503 0.000214643
0 -0.010877 0.0124878 0.132215 -0.0143414 0.000224535
0 -0.015877 0.00479858 0.10608 -0.0144605 9.65698e-05
-1.65436e-24 0.016623 1.14059e-08 4.11938e-07 -8.50085e-08 3.0815e-10
0 -0.013377 0.00994629 0.126184 -0.0145081 0.000181144
1.0842e-19 -0.009627 0.0137433 0.134873 -0.0142456 0.000246676
-8.27181e-25 0.016623 0.00233887 0.0807552 -0.0148968 9.2729e-05
0 -0.004627 0.0162494 0.139256 -0.0141703 0.000309337
0 -0.014627 0.008656 0.122804 -0.014579 0.000159978
-6.46235e-27 0.011623 0.0124878 0.130927 -0.0155704 0.000346175
0 0.012873 0.011217 0.128096 -0.0158278 0.000328077
0 0.005373 0.0162494 0.138707 -0.0146866 0.000374213
1.0842e-19 -0.017127 0.00116943 0.0671211 -0.0115435 2.59894e-05
-2.01948e-28 -0.008377 0.0149988 0.13713 -0.014145 0.000270564
-1.0842e-19 0.010373 0.0137433 0.133744 -0.0153164 0.000362871
-2.58494e-26 0.014123 0.00994629 0.124564 -0.0160745 0.000306506
0 0.016623 0.00479858 0.104053 -0.0164869 0.000178345
-2.1684e-19 -0.017127 0.00356872 0.0988694 -0.0142041 7.25717e-05
0 -0.015877 0.00736572 0.118158 -0.0145754 0.000137909
3.17122e-28 -0.000877 0.0174912 0.141103 -0.0141941 0.000352819
3.28979e-21 -0.000877 0.0175 0.141118 -0.0141929 0.000352963
-8.07794e-28 0.009123 0.0149988 0.136155 -0.0150651 0.000378541
2.35081e-28 0.001623 0.0174922 0.14097 -0.014321 0.000369886
-1.57772e-30 0.001623 0.0175 0.140983 -0.0143199 0.000370019
-1.0842e-19 0.015373 0.00865601 0.12101 -0.0163255 0.000283254
0 -0.007127 0.0162494 0.139384 -0.0140422 0.000295188
-2.8399e-28 -0.003377 0.0174891 0.141231 -0.0140678 0.000336623
0 -0.003377 0.0175 0.14125 -0.0140663 0.000336794
1.0842e-19 0.017873 0.00116944 0.0649099 -0.013544 5.02319e-05
-2.00371e-28 0.004123 0.0174928 0.140832 -0.0144481 0.000387917
-1.57772e-30 0.004123 0.0175 0.140844 -0.0144471 0.000388046
0 0.007873 0.0162494 0.13856 -0.0148163 0.000392978
1.0842e-19 -0.017127 0.00608215 0.113522 -0.0145686 0.000116621
0 0.016623 0.00736572 0.116186 -0.0165146 0.000255317
1.0842e-19 0.017873 0.00356872 0.0966543 -0.0164292 0.000140449
-3.23117e-27 -0.013377 0.0124878 0.132339 -0.0142071 0.000214484
0 -0.012127 0.0137433 0.134997 -0.0141137 0.000235586
8.27181e-25 -0.018377 6.50332e-09 2.37887e-07 -4.0759e-08 8.98967e-11
-1.0842e-19 -0.014627 0.011217 0.129671 -0.0142986 0.00019407
1.29373e-28 -0.005877 0.0174846 0.141352 -0.0139421 0.000321232
8.08456e-20 -0.005877 0.0175 0.141379 -0.01394 0.000321464
1.25722e-19 -0.018377 0.00233887 0.0829277 -0.0127914 4.80657e-05
0 -0.010877 0.0149988 0.137255 -0.014015 0.000258318
-2.58494e-26 -0.018377 0.0024529 0.0840068 -0.0128618 5.01235e-05
-2.2877e-28 0.006623 0.0174931 0.140688 -0.0145754 0.000407056
0 0.006623 0.0175 0.1407 -0.0145744 0.000407185
0 -0.015877 0.00994629 0.126308 -0.0143688 0.000173234
-1.0842e-19 0.000373 0.01875 0.143115 -0.0140848 0.00038252
1.0842e-19 0.012873 0.0137433 0.133584 -0.015452 0.000381321
0 0.014123 0.0124878 0.130763 -0.0157088 0.000363823
0 -0.002127 0.01875 0.143246 -0.0139602 0.000365051
-1.0842e-19 0.017873 0.00608215 0.111367 -0.0167078 0.000225514
1.0842e-19 -0.009627 0.0162494 0.13951 -0.0139143 0.000281685
1.03398e-25 0.0189403 0 0 0 0
0 0.002873 0.01875 0.142979 -0.0142097 0.000400925
4.03897e-28 0.011623 0.0149988 0.136 -0.0151977 0.00039772
0 -0.018377 0.00479858 0.106203 -0.0143103 9.24528e-05
0 0.015373 0.011217 0.127927 -0.0159693 0.000344889
2.06795e-25 0.019123 8.99002e-10 3.14759e-08 -6.64546e-09 2.53078e-11
0 0.019123 0.000443798 0.015285 -0.00285648 1.84951e-05
-1.0842e-19 -0.017127 0.008656 0.122928 -0.0144366 0.000153221
1.91219e-20 0.019123 0.00233887 0.0805536 -0.015054 9.74712e-05
-1.0842e-19 0.010373 0.0162494 0.138409 -0.0149467 0.000412974
1.03398e-25 0.0193061 0 0 0 0
-1.0842e-19 -0.004627 0.01875 0.143375 -0.0138359 0.000348501
0 0.016623 0.00994629 0.12439 -0.0162197 0.000322286
3.15544e-29 -0.008377 0.0174794 0.141469 -0.0138168 0.000306649
3.28979e-21 -0.008377 0.0175 0.141505 -0.0138141 0.000306949
1.0842e-19 0.005373 0.01875 0.142839 -0.0143349 0.000420406
0 -0.019627 0.00116943 0.0672361 -0.0114076 2.4824e-05
0 0.019123 0.00479858 0.10386 -0.0166488 0.000187319
-5.52203e-29 0.009123 0.0174927 0.14054 -0.0147031 0.000427388
-9.67102e-20 0.009123 0.0175 0.140553 -0.0147021 0.000427531
-5.16988e-26 -0.018377 0.00736572 0.11828 -0.0144305 0.000131961
-1.0842e-19 0.017873 0.008656 0.120832 -0.0164743 0.000297985
1.0842e-19 -0.019627 0.00356872 0.0989884 -0.0140525 6.96029e-05
-9.67102e-20 -0.000877 0.02 0.145055 -0.0138576 0.000395272
-1.0842e-19 -0.007127 0.01875 0.143501 -0.0137118 0.000332824
3.28979e-21 0.001623 0.02 0.144923 -0.0139803 0.000414024
-1.0842e-19 -0.014627 0.0137433 0.135118 -0.013982 0.000225093
0 -0.013377 0.0149988 0.137376 -0.0138854 0.000246853
0 -0.015877 0.0124878 0.132459 -0.0140731 0.000204977
1.0842e-19 -0.012127 0.0162494 0.139631 -0.0137867 0.000269278
3.28979e-21 -0.003377 0.02 0.145184 -0.0137351 0.000377583
0 0.007873 0.01875 0.142695 -0.01446 0.000441134
1.0842e-19 0.020373 0.00116944 0.0647006 -0.0136932 5.29939e-05
3.28979e-21 0.004123 0.02 0.144786 -0.0141033 0.000433874
0 -0.017127 0.011217 0.129791 -0.0141623 0.000185493
0 0.019123 0.00736572 0.116001 -0.0166682 0.000268403
0 -0.019627 0.00608215 0.113642 -0.0144211 0.000111632
1.57772e-30 -0.010877 0.0174793 0.141591 -0.0136911 0.000293079
0 0.014123 0.0149988 0.13584 -0.0153306 0.000417842
0 -0.010877 0.0175 0.141627 -0.0136884 0.00029337
1.0842e-19 0.015373 0.0137433 0.133421 -0.0155874 0.00040078
0 0.020373 0.00356872 0.0964538 -0.0165954 0.000147678
-1.0842e-19 0.012873 0.0162494 0.138254 -0.0150763 0.000433648
6.46235e-27 0.016623 0.0124878 0.130594 -0.0158474 0.000382534
3.28979e-21 -0.005877 0.02 0.14531 -0.0136128 0.00036079
0 -0.020877 7.37805e-09 2.7034e-07 -4.56919e-08 9.73366e-11
0 -0.018377 0.00994629 0.126427 -0.01423 0.000165656
-2.99767e-28 0.011623 0.0174915 0.140387 -0.0148309 0.000448678
8.0752e-20 -0.020877 0.00233887 0.0830428 -0.0126482 4.60011e-05
-9.67043e-20 0.011623 0.0175 0.140402 -0.0148297 0.000448852
3.28979e-21 0.006623 0.02 0.144646 -0.0142263 0.000454822
0 -0.009627 0.01875 0.143623 -0.013588 0.000318091
1.0842e-19 0.017873 0.011217 0.127753 -0.0161113 0.000362682
1.0842e-19 0.000373 0.02125 0.146865 -0.0137528 0.000426182
0 0.020373 0.00608215 0.111174 -0.0168665 0.000236883
-5.16988e-26 -0.020877 0.00408776 0.0995938 -0.0137239 7.62478e-05
-1.0842e-19 -0.002127 0.02125 0.146994 -0.0136326 0.000407335
0 -0.020877 0.00479858 0.106321 -0.0141611 8.85412e-05
0 0.010373 0.01875 0.142547 -0.0145853 0.000463033
-1.0842e-19 0.002873 0.02125 0.146732 -0.013874 0.00044647
0 -0.019627 0.00865601 0.123045 -0.0142955 0.000146432
-5.04618e-20 0.019123 0.00994629 0.124211 -0.0163653 0.000338957
0 0.021623 1.1374e-08 3.88727e-07 -8.25058e-08 3.25316e-10
-1.91544e-20 -0.008377 0.02 0.145432 -0.0134909 0.00034482
1.0842e-19 -0.004627 0.02125 0.14712 -0.0135117 0.000389446
1.62598e-19 0.021623 0.00233888 0.0803457 -0.015212 0.000102654
4.03897e-28 -0.015877 0.0149988 0.137494 -0.013756 0.000235933
0 -0.014627 0.0162494 0.139751 -0.0136594 0.000257412
-1.0842e-19 0.005373 0.02125 0.146596 -0.0139946 0.000467697
0 -0.017127 0.0137433 0.135235 -0.0138507 0.000215126
3.28979e-21 0.009123 0.02 0.144502 -0.0143494 0.000476954
8.83524e-29 -0.013377 0.0174821 0.141715 -0.0135653 0.000280326
8.08456e-20 -0.013377 0.0175 0.141746 -0.013563 0.000280568
-1.0842e-19 0.020373 0.008656 0.120648 -0.0166238 0.000313364
0 -0.020877 0.00736572 0.118397 -0.0142865 0.000126281
4.1359e-25 0.021623 0.00479858 0.103661 -0.0168113 0.000196908
1.0842e-19 -0.022127 0.00116943 0.0673471 -0.0112728 2.36374e-05
3.23117e-27 -0.018377 0.0124878 0.132576 -0.0139396 0.000195927
0 -0.012127 0.01875 0.143743 -0.0134646 0.000304418
1.0842e-19 0.015373 0.0162494 0.138094 -0.0152071 0.00045555
0 0.016623 0.0149988 0.135676 -0.0154636 0.000439191
0 -0.022127 0.00356872 0.0991039 -0.0139016 6.6637e-05
1.0842e-19 -0.007127 0.02125 0.147243 -0.013392 0.000372388
-2.11415e-28 0.014123 0.0174909 0.14023 -0.0149589 0.000471063
0 0.014123 0.0175 0.140246 -0.0149576 0.000471258
8.08456e-20 -0.000877 0.0225 0.148656 -0.0135347 0.000438811
-1.0842e-19 0.017873 0.0137433 0.133253 -0.0157232 0.000421548
8.08456e-20 0.001623 0.0225 0.148527 -0.0136535 0.000459131
0 -0.019627 0.011217 0.129906 -0.0140268 0.000177312
0 0.007873 0.02125 0.146454 -0.0141157 0.000490053
-1.0842e-19 0.012873 0.01875 0.142397 -0.0147104 0.000485745
3.28979e-21 -0.003377 0.0225 0.148783 -0.013416 0.000419652
-9.67102e-20 -0.010877 0.02 0.145552 -0.0133692 0.000329845
-6.46235e-27 0.019123 0.0124878 0.130421 -0.0159865 0.000402302
-4.67455e-20 0.021623 0.00736572 0.11581 -0.0168225 0.000282092
8.08456e-20 0.004123 0.0225 0.148393 -0.0137725 0.000480631
-1.0842e-19 0.022873 0.00116944 0.0644839 -0.0138433 5.59519e-05
1.0842e-19 -0.022127 0.00608215 0.113758 -0.0142744 0.000106882
0 -0.020877 0.00994629 0.126541 -0.0140918 0.000158468
3.28979e-21 0.011623 0.02 0.144354 -0.0144725 0.000500229
1.0842e-19 0.022873 0.00356872 0.0962487 -0.0167622 0.000155533
3.28979e-21 -0.005877 0.0225 0.148906 -0.0132977 0.000401474
1.0842e-19 0.020373 0.011217 0.127575 -0.0162538 0.000381448
-2.58494e-26 -0.0227717 0.00479858 0.106408 -0.0140486 8.57692e-05
-1.0842e-19 -0.009627 0.02125 0.147363 -0.0132717 0.000355978
-1.65436e-24 -0.023377 8.97906e-09 3.29537e-07 -5.49439e-08 1.12997e-10
8.08456e-20 0.006623 0.0225 0.148256 -0.0138915 0.000503265
1.25775e-19 -0.023377 0.00233887 0.0831545 -0.0125059 4.40438e-05
1.0842e-19 -0.017127 0.0162494 0.139866 -0.0135324 0.000246061
7.09975e-29 -0.015877 0.017484 0.141834 -0.0134399 0.000268025
5.84013e-20 -0.015877 0.0175 0.141862 -0.0134379 0.000268232
0 0.010373 0.02125 0.146311 -0.0142366 0.000513595
1.0842e-19 0.022873 0.00608215 0.110978 -0.017025 0.000248847
0 -0.018377 0.0149988 0.137608 -0.0136272 0.000225525
0 0.000373 0.02375 0.15032 -0.0134351 0.000471072
0 -0.022127 0.008656 0.123159 -0.0141547 0.000140238
0 -0.014627 0.01875 0.143859 -0.0133414 0.000291157
-6.33372e-20 0.021623 0.00994629 0.124028 -0.0165116 0.000356473
1.0842e-19 -0.002127 0.02375 0.150447 -0.0133184 0.000450658
1.29247e-26 -0.023377 0.00479858 0.106436 -0.0140126 8.48837e-05
0 0.002873 0.02375 0.15019 -0.0135522 0.000492801
1.0842e-19 -0.019627 0.0137433 0.135348 -0.0137199 0.000205658
-1.91544e-20 -0.008377 0.0225 0.149026 -0.0131796 0.000384206
8.08456e-20 -0.013377 0.02 0.145668 -0.0132478 0.000315717
1.29247e-26 -0.023377 0.00594996 0.111852 -0.0140711 0.000101086
0 0.024123 1.13291e-08 3.96725e-07 -8.53582e-08 3.50096e-10
8.04638e-29 0.016623 0.0174918 0.140073 -0.0150869 0.000494855
1.58401e-19 0.016623 0.0175 0.140087 -0.0150856 0.000495037
-2.1684e-19 0.017873 0.0162494 0.137931 -0.0153372 0.000478813
-1.0842e-19 -0.004627 0.02375 0.15057 -0.0132016 0.000431169
-9.11371e-20 0.024123 0.00233888 0.08013 -0.0153708 0.000108085
-1.0842e-19 0.015373 0.01875 0.142241 -0.0148364 0.00051008
-9.67102e-20 0.009123 0.0225 0.148115 -0.0140106 0.000527115
0 0.019123 0.0149988 0.135509 -0.0155968 0.000461726
-1.03437e-19 -0.020877 0.0124878 0.132689 -0.0138067 0.000187404
-1.0842e-19 0.005373 0.02375 0.150057 -0.0136692 0.000515555
0 0.022873 0.00865601 0.120458 -0.0167743 0.000329413
0 -0.012127 0.02125 0.147479 -0.0131524 0.000340892
8.08456e-20 0.014123 0.02 0.144203 -0.0145959 0.00052485
0 -0.023377 0.00736572 0.118512 -0.014143 0.000121009
0 0.020373 0.0137433 0.133081 -0.0158592 0.000443282
9.7039e-20 0.024123 0.00479858 0.103456 -0.0169746 0.000207151
1.0842e-19 -0.024627 0.00116943 0.0674538 -0.0111391 2.2599e-05
1.0842e-19 -0.007127 0.02375 0.15069 -0.0130855 0.000412893
1.0842e-19 -0.022127 0.011217 0.130018 -0.0138914 0.000169729
-1.0842e-19 0.012873 0.02125 0.146163 -0.0143577 0.000538544
1.0842e-19 -0.024627 0.00356872 0.0992177 -0.0137517 6.39716e-05
-1.23312e-19 0.021623 0.0124878 0.130244 -0.0161258 0.000423091
-1.91544e-20 -0.010877 0.0225 0.149143 -0.0130616 0.000367886
3.28979e-21 -0.000877 0.025 0.151987 -0.0132265 0.000483245
0 0.007873 0.02375 0.149919 -0.0137865 0.000539756
-1.91544e-20 0.001623 0.025 0.15186 -0.0133416 0.000505023
0 0.024123 0.00736572 0.115614 -0.0169773 0.000296621
3.28979e-21 -0.003377 0.025 0.152111 -0.0131115 0.000462627
8.08456e-20 0.011623 0.0225 0.147971 -0.0141297 0.000552292
-1.91544e-20 0.004123 0.025 0.15173 -0.0134568 0.000528007
-1.73549e-29 -0.018377 0.0174852 0.141948 -0.0133151 0.000256289
0 -0.024627 0.00608215 0.113873 -0.0141282 0.00010261
0 -0.018377 0.0175 0.141974 -0.0133133 0.000256473
1.0842e-19 -0.017127 0.01875 0.143972 -0.0132184 0.000278292
1.0842e-19 0.025373 0.00116944 0.0642578 -0.013994 5.87497e-05
1.29247e-26 -0.023377 0.00994629 0.126654 -0.013954 0.000151723
-1.0842e-19 0.022873 0.011217 0.127393 -0.0163962 0.0004013
0 -0.019627 0.0162494 0.139977 -0.013406 0.000235213
8.08456e-20 -0.015877 0.02 0.145782 -0.0131267 0.00030212
0 0.025373 0.00356873 0.096034 -0.0169303 0.000163729
-1.0842e-19 -0.009627 0.02375 0.150807 -0.0129694 0.000395565
-9.67102e-20 -0.005877 0.025 0.152231 -0.0129967 0.000443116
0 -0.020877 0.0149988 0.13772 -0.0134988 0.000215692
1.0842e-19 -0.014627 0.02125 0.147594 -0.0130328 0.000326401
-1.91544e-20 0.006623 0.025 0.151596 -0.013572 0.000552252
0 -0.025877 1.00763e-08 3.70381e-07 -6.09199e-08 1.21497e-10
0 0.017873 0.01875 0.142082 -0.0149619 0.000535695
0 0.010373 0.02375 0.149778 -0.0139037 0.000565057
-1.54617e-28 0.019123 0.0174929 0.139911 -0.0152148 0.000519948
-1.91468e-20 0.019123 0.0175 0.139924 -0.0152137 0.000520114
-1.09365e-19 -0.025877 0.00233887 0.0832632 -0.0123646 4.222e-05
-1.91544e-20 0.016623 0.02 0.144047 -0.0147194 0.000550923
-1.0842e-19 -0.022127 0.0137433 0.13546 -0.0135898 0.000196802
0 0.020373 0.0162494 0.137763 -0.0154679 0.000503185
1.0842e-19 0.025373 0.00608215 0.110775 -0.0171845 0.000261869
5.16988e-26 0.024123 0.00994629 0.123839 -0.0166581 0.000374904
-1.0842e-19 -0.024627 0.008656 0.123273 -0.0140146 0.000134364
8.08456e-20 -0.013377 0.0225 0.149257 -0.0129439 0.000352474
-1.0842e-19 0.015373 0.02125 0.146011 -0.0144792 0.000565033
0 0.000373 0.02625 0.15353 -0.0131328 0.000516523
0 0.021623 0.0149988 0.135336 -0.0157303 0.00048538
-3.60172e-20 -0.025877 0.00479858 0.106548 -0.0138653 8.14181e-05
0 -0.002127 0.02625 0.153653 -0.0130196 0.000494728
-1.91544e-20 -0.008377 0.025 0.152349 -0.0128821 0.000424703
-1.0842e-19 0.002873 0.02625 0.153402 -0.0132463 0.000539698
-3.41447e-20 -0.023377 0.0124878 0.1328 -0.0136742 0.000179344
-1.91544e-20 0.014123 0.0225 0.147822 -0.0142489 0.000579026
-1.91544e-20 0.009123 0.025 0.151459 -0.0136872 0.000577808
0 0.026623 3.78395e-10 1.32037e-08 -2.88163e-09 1.22849e-11
-1.0842e-19 -0.004627 0.02625 0.153774 -0.0129065 0.000473956
-1.0842e-19 -0.012127 0.02375 0.150922 -0.0128531 0.00037911
1.0842e-19 0.022873 0.0137433 0.132904 -0.0159955 0.000466076
-8.27181e-25 0.026623 0.00233887 0.0799052 -0.0155306 0.000113714
-1.0842e-19 0.005373 0.02625 0.153272 -0.0133595 0.000563974
-1.0842e-19 0.025373 0.008656 0.120263 -0.0169247 0.000346505
1.05013e-26 -0.0257893 0.00736572 0.11862 -0.0140056 0.000116189
7.92252e-21 -0.025877 0.00736572 0.118624 -0.0140006 0.000116014
-8.07794e-28 -0.025877 0.00770613 0.119698 -0.0139764 0.000119877
0 0.012873 0.02375 0.149632 -0.0140208 0.000591972
0 0.026623 0.00479858 0.103244 -0.0171388 0.000218002
1.0842e-19 -0.024627 0.011217 0.130131 -0.0137567 0.000162411
0 -0.019627 0.01875 0.144081 -0.0130964 0.000266319
0 -0.027127 0.00116944 0.0675567 -0.0110064 2.17406e-05
-9.67102e-20 -0.018377 0.02 0.145892 -0.0130061 0.0002892
1.29247e-26 0.024123 0.0124878 0.130062 -0.0162653 0.00044496
0 -0.007127 0.02625 0.153892 -0.0127935 0.000454446
-2.8399e-29 -0.020877 0.0174855 0.142058 -0.013191 0.00024526
0 -0.020877 0.0175 0.142083 -0.0131892 0.000245433
-1.91544e-20 -0.010877 0.025 0.152464 -0.0127676 0.000407266
-1.0842e-19 -0.017127 0.02125 0.147704 -0.0129141 0.000312629
2.1684e-19 -0.027127 0.00356872 0.0993292 -0.0136029 6.12107e-05
0 0.007873 0.02625 0.153139 -0.0134729 0.000589724
1.0842e-19 -0.022127 0.0162494 0.140086 -0.0132799 0.000225058
8.08456e-20 -0.000877 0.0275 0.155096 -0.0129331 0.000528138
-9.67102e-20 -0.015877 0.0225 0.149368 -0.0128265 0.000337821
8.08456e-20 0.001623 0.0275 0.154972 -0.0130446 0.000551285
5.84013e-20 0.011623 0.025 0.151317 -0.0138024 0.000604801
0 0.026623 0.00736572 0.115413 -0.0171325 0.000312098
-1.91544e-20 0.019123 0.02 0.143887 -0.0148429 0.000578438
-1.0842e-19 0.020373 0.01875 0.141919 -0.0150878 0.000562755
8.08456e-20 -0.003377 0.0275 0.155216 -0.0128217 0.000506251
0 -0.025877 0.00994629 0.126765 -0.0138172 0.000145298
-1.0842e-19 0.025373 0.011217 0.127205 -0.0165391 0.00042201
0 0.017873 0.02125 0.145855 -0.0146003 0.000592886
2.01948e-28 -0.023377 0.0149988 0.137829 -0.013371 0.00020645
-1.0842e-19 -0.027127 0.00608215 0.113984 -0.0139839 9.84248e-05
-1.91544e-20 0.004123 0.0275 0.154846 -0.0131561 0.000575664
6.15312e-29 0.021623 0.0174934 0.139744 -0.0153431 0.000546402
-1.57772e-30 0.021623 0.0175 0.139756 -0.0153421 0.000546564
1.0842e-19 -0.014627 0.02375 0.151033 -0.0127373 0.000363496
1.0842e-19 0.027873 0.00116944 0.0640216 -0.0141452 6.17745e-05
1.0842e-19 -0.009627 0.02625 0.154007 -0.0126803 0.000435908
-1.91544e-20 0.016623 0.0225 0.14767 -0.0143682 0.000607233
0 0.022873 0.0162494 0.13759 -0.015599 0.000528895
0 0.027873 0.00356873 0.0958121 -0.0170995 0.000172312
-9.67102e-20 -0.005877 0.0275 0.155334 -0.0127104 0.000485598
1.0842e-19 -0.024627 0.0137433 0.135569 -0.0134602 0.000188327
0 0.010373 0.02625 0.153001 -0.0135858 0.000616695
-1.91544e-20 0.006623 0.0275 0.154716 -0.0132676 0.000601361
-1.0842e-19 0.015373 0.02375 0.149483 -0.0141381 0.000620555
1.58401e-19 -0.013377 0.025 0.152576 -0.0126533 0.000390697
0 -0.028377 1.04784e-08 3.85739e-07 -6.25906e-08 1.21414e-10
0 0.024123 0.0149988 0.135158 -0.015864 0.000510377
0 0.026623 0.00994629 0.123645 -0.016805 0.000394397
1.05603e-19 -0.028377 0.00233887 0.0833686 -0.0122246 4.04704e-05
-2.1684e-19 -0.027127 0.008656 0.123384 -0.0138756 0.000128715
0 0.027873 0.00608215 0.110566 -0.0173444 0.000275542
5.84013e-20 0.014123 0.025 0.151172 -0.0139176 0.000633447
0 -0.025877 0.0124878 0.132909 -0.0135425 0.000171685
8.08456e-20 -0.008377 0.0275 0.155448 -0.012599 0.000466035
0 0.000373 0.02875 0.15654 -0.0128447 0.000562182
-4.29502e-20 -0.028377 0.00479858 0.106658 -0.013719 7.80029e-05
1.0842e-19 -0.002127 0.02875 0.15666 -0.0127354 0.000539119
-1.0842e-19 0.025373 0.0137433 0.132721 -0.0161318 0.000490181
1.0842e-19 0.002873 0.02875 0.156418 -0.0129547 0.000586738
-1.91544e-20 -0.020877 0.02 0.146 -0.0128858 0.000277089
1.0842e-19 -0.012127 0.02625 0.15412 -0.0125677 0.000418483
0 -0.019627 0.02125 0.147812 -0.0127955 0.000299561
-1.91544e-20 0.009123 0.0275 0.154583 -0.013379 0.000628487
-1.0842e-19 -0.022127 0.01875 0.144188 -0.0129745 0.000255136
8.08456e-20 -0.018377 0.0225 0.149477 -0.0127094 0.000323946
-1.0842e-19 -0.004627 0.02875 0.156777 -0.0126255 0.000517203
0 0.029123 1.56263e-08 5.43238e-07 -1.20271e-07 5.33852e-10
0 0.027873 0.008656 0.120062 -0.0170757 0.000364634
-6.31089e-30 -0.023377 0.0174839 0.142162 -0.0130674 0.000234897
5.84047e-20 -0.023377 0.0175 0.14219 -0.0130655 0.000235081
-8.27181e-25 0.029123 0.00233888 0.0796723 -0.015691 0.000119711
-1.0842e-19 0.012873 0.02625 0.152859 -0.0136994 0.000645481
1.0842e-19 0.005373 0.02875 0.156291 -0.0130641 0.000612247
0 -0.017127 0.02375 0.151142 -0.0126217 0.00034876
-5.60997e-20 -0.028377 0.00736572 0.118733 -0.013859 0.000111187
2.1684e-19 -0.027127 0.011217 0.130238 -0.0136232 0.000155556
0 0.026623 0.0124878 0.129873 -0.0164052 0.000468086
-1.0842e-19 0.020373 0.02125 0.145694 -0.0147215 0.000622415
1.58401e-19 0.021623 0.02 0.143723 -0.0149664 0.00060756
1.0842e-19 -0.024627 0.0162494 0.140193 -0.0131546 0.000215577
0 0.029123 0.00479858 0.103025 -0.0173038 0.000229444
-1.91544e-20 0.019123 0.0225 0.147513 -0.0144873 0.000636956
5.84013e-20 -0.010877 0.0275 0.15556 -0.0124879 0.000447445
-1.0842e-19 0.022873 0.01875 0.141751 -0.0152136 0.00059141
8.08456e-20 -0.015877 0.025 0.152685 -0.0125392 0.000375011
0 -0.007127 0.02875 0.156892 -0.0125161 0.000496788
1.0842e-19 -0.029627 0.00116944 0.0676558 -0.010875 2.09349e-05
-1.0842e-19 0.017873 0.02375 0.14933 -0.0142551 0.000650458
-3.12389e-28 0.024123 0.0174941 0.139581 -0.0154707 0.000574526