# Wall shear stress
# Time        	patch         	min           	max           
500           	cylinder	(-6.169660e-04 -1.225629e-03 -3.337963e-04)	(2.189021e-04 1.301773e-03 5.701417e-04)
1000          	cylinder	(-5.807248e-04 -1.241577e-03 -3.358019e-04)	(2.092912e-04 1.256852e-03 5.605825e-04)
