# k  POINT_DATA 29169
# x  y  z  k
0.0199996 0 6.27196e-08 2.49655e-12
-0.0199996 0 6.27196e-08 1.17978e-06
0.0199996 0 0.000164442 2.53532e-12
-0.0199996 0 0.00016442 1.20188e-06
0.0199996 6.77626e-21 0.000494346 4.9256e-12
-0.0199996 -3.38813e-21 0.000494294 1.3824e-06
0.0199996 -6.77626e-21 0.000661321 7.67495e-12
-0.0199996 6.77626e-21 0.000661243 1.55515e-06
-0.0199996 6.77626e-21 0.000837166 1.80339e-06
0.0199996 -3.38813e-21 0.000837249 1.08888e-11
-0.0199996 6.77626e-21 0.0011807 1.88915e-06
0.0199996 3.38813e-21 0.00118076 1.31714e-11
-0.0199996 0 0.00135636 1.73642e-06
0.0199996 -6.77626e-21 0.00135644 1.26553e-11
-0.0199996 -3.38813e-21 0.00154016 1.67401e-06
0.0199996 -3.38813e-21 0.00154025 1.28355e-11
0.0200767 0 6.659e-05 2.41102e-12
-0.0200767 0 6.65901e-05 1.16873e-06
-0.0200781 0 6.52655e-08 1.1688e-06
0.0200781 0 6.52657e-08 2.41127e-12
0.0200799 -6.77626e-21 0.000590246 6.22911e-12
-0.0200799 0 0.000590204 1.4561e-06
-0.0200759 0 0.000728756 1.63643e-06
0.0200759 6.77626e-21 0.000728801 8.77672e-12
-0.0199996 -3.38813e-21 0.00190617 1.81364e-06
0.0199996 -3.38813e-21 0.00190619 1.32852e-11
0.0199996 -6.77626e-21 0.002087 1.43769e-11
-0.0199996 6.77626e-21 0.002087 2.09206e-06
-0.0200757 -6.77626e-21 0.00127189 1.77231e-06
0.0200757 -6.77626e-21 0.00127193 1.23887e-11
-0.0200724 6.77626e-21 0.00141167 1.67905e-06
0.0200724 1.35525e-20 0.00141172 1.22687e-11
-0.0201349 4.06576e-20 6.62424e-08 1.45725e-06
0.0201349 0 6.62432e-08 3.34066e-12
-0.0201347 -1.35525e-20 0.00065509 1.56189e-06
0.0201347 0 0.000655092 7.24487e-12
-0.0200697 6.77626e-21 0.00197791 1.89305e-06
0.0200697 6.77626e-21 0.00197791 1.29799e-11
-0.0201289 -2.03288e-20 0.00132685 1.50958e-06
0.0201289 2.71051e-20 0.00132685 1.06292e-11
-0.0200872 0 0.00211021 2.0109e-06
0.0200872 6.77626e-21 0.00211021 1.34396e-11
-0.0201043 0 0.00206082 1.98911e-06
0.0201043 0 0.00206081 1.31463e-11
0.0201292 0 0.00199355 1.17957e-11
-0.0201291 -6.77626e-21 0.00199358 1.78728e-06
-0.0201574 0 0.00212882 2.19855e-06
0.0201575 -6.77626e-21 0.00212883 1.46049e-11
-0.020211 6.77626e-21 0.00203552 2.10002e-06
0.020211 -6.77626e-21 0.0020355 1.21525e-11
0.0203752 1.69407e-20 7.14249e-08 2.36731e-12
-0.0203752 -1.35525e-20 7.14223e-08 1.17472e-06
0.0203552 6.77626e-22 0.000964574 9.57285e-12
-0.0203552 0 0.000964653 1.66009e-06
-0.0203848 -1.807e-21 0.00031854 1.23427e-06
0.0203848 4.51751e-22 0.000318497 2.74383e-12
0.0203485 1.8823e-22 0.00158862 8.82398e-12
-0.0203485 -9.41148e-22 0.00158869 1.31057e-06
-0.0204541 -5.0822e-21 7.18949e-08 1.59797e-06
0.0204542 1.69407e-21 7.18988e-08 3.99021e-12
0.0203479 3.38813e-21 0.0020921 1.13331e-11
-0.0203479 -6.77626e-21 0.00209212 2.30145e-06
-0.0203454 0 0.00217864 2.43227e-06
0.0203454 -1.35525e-20 0.00217865 1.29649e-11
0.0204014 0 0.00198909 1.16908e-11
-0.0204014 -1.35525e-20 0.00198912 2.34088e-06
0.0204481 -5.42101e-20 0.00220585 1.81777e-11
-0.0204481 -2.71051e-20 0.00220584 2.87218e-06
-0.0206171 6.77626e-21 7.35947e-08 2.7776e-06
0.0206171 -6.77626e-21 7.35999e-08 8.32334e-12
0.0206345 2.25875e-21 0.00124186 7.51742e-12
-0.0206345 -2.25875e-21 0.00124198 1.3727e-06
0.0206729 0 7.48669e-08 8.17046e-12
-0.0206729 6.77626e-21 7.48621e-08 2.74685e-06
0.0206741 6.77626e-21 7.00031e-05 8.15782e-12
-0.0206742 6.77626e-21 7.0039e-05 2.74361e-06
0.0206667 4.51751e-21 0.000657407 7.65302e-12
-0.0206667 -7.90564e-21 0.000657517 2.03057e-06
0.0206275 1.35525e-21 0.0016945 8.93092e-12
-0.0206275 -4.06576e-21 0.00169457 1.60368e-06
0.0205976 0 0.00224546 1.9149e-11
-0.0205976 -1.35525e-20 0.00224545 3.50743e-06
0.020822 6.77626e-21 8.13398e-08 9.30656e-12
-0.0208222 0 8.13398e-08 3.40755e-06
-0.0208462 1.35525e-20 0.000330944 3.59425e-06
0.0208462 0 0.000330924 1.25818e-11
0.0208502 2.71051e-20 0.000953835 8.63233e-12
-0.0208502 -1.35525e-20 0.000953873 1.88055e-06
0.0208443 -1.35525e-20 0.00153528 8.08168e-12
-0.0208443 2.71051e-20 0.00153531 1.44605e-06
0.0208065 -1.41172e-21 0.00198301 1.73272e-11
-0.0208065 2.82344e-22 0.00198302 3.61553e-06
0.0209014 -6.77626e-21 0.00232595 2.43386e-11
-0.0209014 6.77626e-21 0.00232594 3.96005e-06
0.0210643 -1.35525e-20 9.1532e-05 1.3046e-11
-0.0210643 0 9.15048e-05 4.54125e-06
0.021067 1.35525e-20 7.81651e-08 1.28745e-11
-0.021067 0 7.81689e-08 4.51719e-06
-0.0209629 4.06576e-20 0.00234223 3.95712e-06
0.0209629 -6.77626e-21 0.00234225 2.56891e-11
-0.0210006 -6.77626e-21 0.00235224 4.06467e-06
0.0210006 0 0.00235226 2.61127e-11
-0.0211368 1.35525e-20 7.77042e-08 4.79923e-06
0.0211368 0 7.76997e-08 1.26876e-11
-0.021129 -9.03502e-21 0.00122302 1.05808e-06
0.021129 -4.51751e-21 0.00122304 4.90607e-12
-0.0211316 -1.16165e-20 0.00168768 1.54139e-06
0.0211316 -5.80823e-21 0.00168768 8.32581e-12
-0.0210928 -3.38813e-21 0.00225831 4.08838e-06
0.0210928 3.38813e-21 0.0022583 2.5275e-11
-0.0212074 -2.25875e-21 0.000639305 3.16534e-06
0.0212074 4.51751e-21 0.000639333 9.25439e-12
-0.0212432 1.35525e-20 6.9493e-08 5.33397e-06
0.0212432 0 6.94858e-08 1.18075e-11
-0.0212484 0 0.000106497 5.38693e-06
0.0212484 -6.77626e-21 0.000106548 1.19126e-11
-0.0211906 0 0.00240258 4.25502e-06
0.0211906 0 0.00240261 2.91371e-11
0.0213439 5.64689e-21 0.0020251 2.14954e-11
-0.0213439 -4.51751e-21 0.00202507 3.72932e-06
-0.021371 0 0.00245037 4.50708e-06
0.021371 -6.77626e-21 0.00245038 3.31259e-11
-0.0213837 0 0.00242601 4.48406e-06
0.0213837 0 0.00242602 3.25453e-11
-0.0214676 -6.77626e-21 0.00151459 8.94285e-07
0.0214676 -9.03502e-21 0.00151465 5.01127e-12
-0.0215176 1.35525e-20 0.000962569 1.34863e-06
0.0215177 6.77626e-21 0.000962662 4.33221e-12
-0.0215442 1.0842e-20 0.000394958 5.91643e-06
0.0215442 -5.42101e-21 0.000395018 1.16702e-11
0.0214146 0 0.00239563 2.99955e-11
-0.0214146 0 0.00239562 4.24068e-06
0.0214166 -6.77626e-21 0.00246246 3.24373e-11
-0.0214166 -2.71051e-20 0.00246245 4.55892e-06
0.0216582 1.35525e-20 0.000128741 1.25561e-11
-0.0216582 0 0.000128718 7.04649e-06
0.0216619 -1.35525e-20 1.14562e-08 1.24442e-11
-0.021662 0 1.14549e-08 7.02272e-06
-0.0217415 -2.71051e-20 0.000612322 4.15102e-06
0.0217415 0 0.000612439 9.91178e-12
-0.021737 0 0.00121881 9.52364e-07
0.021737 0 0.00121894 4.53616e-12
0.021641 0 0.0025219 2.99564e-11
-0.021641 0 0.00252189 4.48577e-06
0.02179 1.35525e-20 2.38075e-09 1.41163e-11
-0.02179 1.35525e-20 2.38045e-09 7.44449e-06
-0.02171 -2.71051e-20 0.0018706 1.96166e-06
0.02171 -2.71051e-20 0.00187066 1.08866e-11
0.0216778 1.8823e-21 0.00229009 2.63537e-11
-0.0216778 -3.76459e-22 0.00229005 4.16751e-06
-0.0219185 0 2.30219e-09 8.29266e-06
0.0219185 -1.35525e-20 2.30245e-09 1.30258e-11
-0.0219202 1.35525e-20 0.000137029 8.37403e-06
0.0219202 0 0.000137066 1.31833e-11
-0.0218192 0 0.00256913 4.44167e-06
0.0218192 0 0.00256913 2.65505e-11
-0.0219845 5.42101e-21 0.00039594 8.17267e-06
0.0219845 5.42101e-21 0.000396027 1.34436e-11
0.0219638 0 0.00229016 1.68208e-11
-0.0219638 1.12938e-21 0.00229013 3.30494e-06
-0.022074 0 0.000916488 2.0397e-06
0.022074 -2.25875e-21 0.000916652 5.1156e-12
0.0219561 -1.35525e-20 0.0025286 2.08369e-11
-0.0219561 0 0.00252859 4.03868e-06
-0.0220578 0 0.00154542 9.45592e-07
0.0220578 -2.25875e-21 0.00154554 4.40378e-12
0.0219647 6.77626e-21 0.00260764 2.07427e-11
-0.0219647 -1.35525e-20 0.00260764 4.04584e-06
-0.0220662 4.51751e-21 0.00204922 1.81352e-06
0.0220662 -4.51751e-21 0.00204927 7.87318e-12
0.0222375 -1.35525e-20 0.000149298 1.55034e-11
-0.0222375 0 0.000149261 1.01632e-05
0.0222467 0 3.22502e-09 1.54118e-11
-0.0222467 1.35525e-20 3.22489e-09 1.01363e-05
0.0221408 1.89735e-20 0.00250166 2.02664e-11
-0.0221408 -5.42101e-21 0.00250165 4.20989e-06
-0.0221237 -1.35525e-20 0.00264976 4.34845e-06
0.0221238 0 0.00264976 2.18615e-11
-0.0223263 -1.93608e-20 0.000544368 7.49288e-06
0.0223263 7.7443e-21 0.000544521 1.32199e-11
-0.0223861 1.35525e-20 3.11769e-09 1.04904e-05
0.0223861 1.35525e-20 3.11777e-09 1.87508e-11
-0.0223888 0 0.00123026 1.24667e-06
0.0223888 2.71051e-20 0.00123046 6.47251e-12
-0.0223621 0 0.00189307 1.99023e-06
0.0223621 0 0.00189318 1.07851e-11
0.022297 0 0.00269561 4.01921e-11
-0.022297 1.35525e-20 0.00269561 5.88231e-06
0.0223597 2.11758e-22 0.00232885 1.88936e-11
-0.0223597 7.05861e-23 0.00232881 3.77544e-06
-0.0225373 -1.35525e-20 3.03035e-09 1.11363e-05
0.0225373 0 3.03039e-09 1.70843e-11
-0.0225385 0 0.000146287 1.11295e-05
0.0225385 1.35525e-20 0.000146333 1.70683e-11
-0.0227012 -2.25875e-21 0.000916023 2.72885e-06
0.0227012 6.77626e-21 0.000916234 7.40835e-12
-0.0226844 -4.51751e-21 0.00155903 1.03171e-06
0.0226844 2.25875e-21 0.00155921 6.82969e-12
-0.0227492 -9.03502e-21 0.000352645 1.07394e-05
0.0227492 4.51751e-21 0.000352762 1.66703e-11
0.0226132 -1.2282e-20 0.00277935 3.72732e-11
-0.0226133 1.82112e-20 0.00277937 6.88216e-06
-0.0226206 1.52466e-20 0.00278132 6.90659e-06
0.0226206 -9.74088e-21 0.00278132 3.74023e-11
-0.0227194 6.77626e-21 0.00213973 2.37282e-06
0.0227194 -9.03502e-21 0.00213981 1.17318e-11
-0.0226786 0 0.00257495 6.3555e-06
0.0226786 0 0.00257497 3.37167e-11
-0.0228459 1.35525e-20 3.06872e-09 1.23646e-05
0.0228459 0 3.06855e-09 1.81624e-11
-0.0230054 -2.71051e-20 2.97301e-09 1.27252e-05
0.0230055 2.71051e-20 2.97281e-09 2.25044e-11
-0.0230123 2.71051e-20 0.000601967 7.46997e-06
0.0230123 0 0.000602177 1.74674e-11
-0.023008 0 0.00123165 1.4764e-06
0.023008 0 0.0012319 1.26931e-11
-0.0229679 2.71051e-20 0.00191396 1.84928e-06
0.0229679 5.42101e-20 0.0019141 1.49698e-11
0.0229069 -2.71051e-20 0.00285715 6.12993e-11
-0.0229069 0 0.00285715 7.23054e-06
-0.0230246 -2.71051e-20 0.0024179 4.61033e-06
0.0230246 2.71051e-20 0.00241795 3.06863e-11
-0.0231706 2.71051e-20 2.61999e-09 1.3426e-05
0.0231707 -1.35525e-20 2.6198e-09 2.01738e-11
-0.0232775 -6.77626e-21 0.000961767 2.82676e-06
0.0232775 4.51751e-21 0.000962019 1.25334e-11
-0.0231303 1.35525e-20 0.00291661 9.12728e-06
0.0231303 4.06576e-20 0.00291662 5.75303e-11
-0.0233249 6.77626e-21 0.000300575 1.27832e-05
0.023325 2.25875e-21 0.000300687 2.01998e-11
-0.0233201 0 0.00155413 1.11858e-06
0.0233201 1.12938e-20 0.00155433 1.32225e-11
-0.0233275 4.51751e-21 0.00215862 2.18759e-06
0.0233275 1.58113e-20 0.00215872 1.40042e-11
-0.0232742 1.12938e-21 0.00268392 9.1275e-06
0.0232742 1.807e-21 0.00268395 4.62009e-11
-0.023471 0 1.49916e-09 1.43651e-05
0.023471 0 1.49905e-09 2.13462e-11
0.0233563 -6.77626e-21 0.0029773 7.03042e-11
-0.0233564 -6.77626e-21 0.00297732 9.36013e-06
-0.0236362 -2.71051e-20 1.14287e-09 1.43981e-05
0.0236362 -2.71051e-20 1.14277e-09 2.69109e-11
-0.0236942 -6.77626e-21 0.000643529 7.82259e-06
0.0236943 0 0.000643725 2.29633e-11
-0.0235255 -5.42101e-20 0.00302244 8.97227e-06
0.0235255 1.35525e-20 0.00302244 8.39387e-11
-0.0236289 2.71051e-20 0.00246429 4.86073e-06
0.0236289 0 0.00246434 3.87184e-11
-0.0237458 -4.51751e-21 0.00121852 1.82334e-06
0.0237458 -4.51751e-21 0.00121876 2.77703e-11
0.023712 3.67854e-20 0.00179082 2.48528e-11
-0.023712 1.54886e-20 0.00179064 1.20086e-06
-0.0238007 1.35525e-20 1.02427e-09 1.49048e-05
0.0238007 1.35525e-20 1.02417e-09 2.33312e-11
-0.0236242 0 0.00304884 9.75165e-06
0.0236242 0 0.00304886 9.54872e-11
-0.0238637 8.13152e-21 0.000205193 1.50102e-05
0.0238637 1.0842e-20 0.000205258 2.34076e-11
0.0238647 0 0.00216536 2.26208e-11
-0.0238648 9.03502e-21 0.00216526 2.01329e-06
-0.0239679 -2.71051e-20 0.000897771 2.7493e-06
0.023968 0 0.00089799 2.96092e-11
-0.0239683 0 0.00153338 1.04544e-06
0.0239683 0 0.00153358 3.06563e-11
-0.0238625 -5.29396e-23 0.00276289 1.04263e-05
0.0238638 5.29396e-23 0.00276308 9.66193e-11
-0.0238739 -4.23516e-21 0.00276895 1.04342e-05
0.0238718 5.82335e-21 0.00276533 9.73944e-11
0.024114 0 6.40638e-10 2.59992e-11
-0.024114 0 6.40703e-10 1.55579e-05
-0.0241188 2.71051e-20 0.000144133 1.55479e-05
0.0241188 0 0.000144175 2.5933e-11
0.023916 0 0.00312792 1.12391e-10
-0.0239161 0 0.00312794 9.33326e-06
-0.0239647 0 0.00314097 9.01277e-06
0.0239647 0 0.00314096 1.11281e-10
-0.0242749 0 5.21808e-10 1.53139e-05
0.0242749 0 5.21745e-10 4.85199e-11
-0.0242836 -4.51751e-21 0.000580904 9.39838e-06
0.0242836 2.25875e-21 0.000581052 5.43375e-11
-0.0242888 0 0.00120234 2.13739e-06
0.0242889 1.12938e-20 0.00120253 6.52257e-11
-0.0242868 -9.03502e-21 0.00186197 1.45917e-06
0.0242869 0 0.00186211 4.02373e-11
-0.0241659 0 0.003195 7.60419e-06
0.0241661 1.69407e-21 0.00319503 1.03035e-10
0.0241862 4.23516e-22 0.00320043 1.02294e-10
-0.0241863 -4.23516e-22 0.00320044 7.48928e-06
0.0241881 5.50571e-21 0.00319265 1.01905e-10
-0.0241882 0 0.0031926 7.46846e-06
-0.0244313 2.71051e-20 0.000134539 1.5746e-05
0.0244313 0 0.00013457 3.23157e-11
-0.0244331 0 4.67599e-10 1.57594e-05
0.0244331 0 4.67535e-10 3.25044e-11
-0.0243349 2.25875e-21 0.00249839 4.11748e-06
0.0243349 -4.51751e-21 0.00249847 4.39956e-11
0.0242974 4.51751e-21 0.0029262 8.7812e-11
-0.0242974 0 0.00292619 7.2084e-06
-0.0243695 6.77626e-21 0.00315162 7.42968e-06
0.0243695 0 0.00315166 8.99782e-11
-0.0246008 -2.71051e-20 0.000284661 1.60419e-05
0.0246009 0 0.000284725 3.43209e-11
-0.0243971 -6.77626e-21 0.00325796 7.73369e-06
0.0243971 -6.77626e-21 0.00325796 9.21857e-11
-0.0246107 -2.71051e-20 0.000878458 3.23615e-06
0.0246107 2.71051e-20 0.000878612 1.08358e-10
-0.0246166 -2.71051e-20 0.00151509 1.44222e-06
0.0246166 0 0.00151523 7.48261e-11
0.0244715 -6.77626e-21 0.00314417 7.84004e-11
-0.0244715 0 0.00314413 6.93804e-06
0.024504 -6.77626e-21 0.00290416 6.59622e-11
-0.024504 -3.38813e-21 0.00290416 6.24002e-06
0.024478 -6.77626e-21 0.00323287 8.27515e-11
-0.024478 6.77626e-21 0.00323286 7.3996e-06
0.0244844 6.77626e-21 0.00328126 8.22798e-11
-0.0244844 0 0.00328126 7.39477e-06
-0.0246093 0 0.00219408 1.71837e-06
0.0246093 -5.42101e-20 0.00219416 3.17941e-11
-0.0247622 -1.35525e-20 2.5336e-10 1.63237e-05
0.0247622 0 2.5332e-10 3.89592e-11
-0.0247664 1.35525e-20 0.000132487 1.63207e-05
0.0247664 2.71051e-20 0.000132517 3.88904e-11
0.0246224 -2.03288e-20 0.00297464 6.27939e-11
-0.0246224 -6.77626e-21 0.00297462 6.30194e-06
-0.0249174 0 1.99007e-10 1.59612e-05
0.0249175 1.35525e-20 1.98966e-10 1.103e-10
0.0247048 1.35525e-20 0.00334016 7.7202e-11
-0.0247048 0 0.00334016 7.41589e-06
-0.0249272 2.25875e-21 0.00056588 1.008e-05
0.0249272 1.12938e-20 0.000565967 1.18385e-10
-0.0249353 9.03502e-21 0.00118332 2.64868e-06
0.0249353 2.25875e-21 0.00118344 1.53599e-10
0.0247708 -1.35525e-20 0.00325092 7.6424e-11
-0.0247708 -1.35525e-20 0.00325093 7.43467e-06
-0.0249332 -4.51751e-21 0.0018542 1.85407e-06
0.0249332 0 0.00185429 8.901e-11
-0.0249124 1.12938e-20 0.00254742 3.30776e-06
0.0249124 1.12938e-20 0.00254746 4.53034e-11
-0.02507 0 0.000129685 1.64847e-05
0.02507 0 0.000129701 5.20103e-11
-0.0250722 0 1.71469e-10 1.6493e-05
0.0250723 0 1.71434e-10 5.24485e-11
0.0248681 0 0.00338376 1.31111e-10
-0.0248681 -5.42101e-20 0.00338375 9.03327e-06
-0.024966 -1.807e-21 0.00300203 5.85273e-06
0.024966 -1.807e-21 0.00300205 6.18875e-11
-0.0252401 -2.71051e-20 0.000277338 1.67405e-05
0.0252401 0 0.000277376 5.59759e-11
-0.0252519 0 0.000862008 3.74164e-06
0.0252519 0 0.000862093 2.14624e-10
-0.0252581 2.71051e-20 0.0015011 2.02841e-06
0.0252581 0 0.00150118 1.74505e-10
-0.025094 0 0.00344393 9.8072e-06
0.025094 2.03288e-20 0.00344395 1.22138e-10
-0.0252522 0 0.00218233 2.19505e-06
0.0252522 -5.42101e-20 0.00218237 6.80168e-11
-0.0253959 0 6.82351e-11 1.69189e-05
0.0253959 0 6.82188e-11 5.66311e-11
-0.0254017 -1.35525e-20 0.000130113 1.6921e-05
0.0254017 -1.35525e-20 0.000130131 5.62951e-11
-0.0252838 0 0.00277254 2.5317e-06
0.0252839 0 0.00277257 2.69342e-11
-0.0252273 0 0.00330818 9.50414e-06
0.0252273 0 0.00330821 1.17796e-10
-0.0252595 6.77626e-21 0.00348812 1.03093e-05
0.0252596 6.77626e-21 0.00348815 1.35664e-10
-0.0255539 0 4.13675e-11 1.65298e-05
0.0255539 2.71051e-20 4.13565e-11 1.27138e-10
-0.0255655 -2.25875e-21 0.000552596 1.08068e-05
0.0255655 2.25875e-21 0.000552632 1.51055e-10
-0.0255758 2.25875e-21 0.00116683 3.40777e-06
0.0255758 -4.51751e-21 0.00116688 2.22645e-10
-0.0255762 -2.25875e-21 0.00183976 2.57168e-06
0.0255763 0 0.0018398 1.50469e-10
-0.0255827 -2.25875e-21 0.00249854 2.70353e-06
0.0255827 -4.51751e-21 0.00249856 6.11931e-11
-0.0257081 1.35525e-20 0.000131339 1.71339e-05
0.0257081 2.71051e-20 0.000131348 5.43989e-11
-0.0257119 -2.71051e-20 3.51853e-11 1.71396e-05
0.0257119 0 3.51759e-11 5.48685e-11
-0.0254803 -1.35525e-20 0.00354694 1.02629e-05
0.0254804 1.35525e-20 0.00354697 1.94869e-10
-0.0255732 -1.12938e-21 0.00306848 6.71299e-06
0.0255733 0 0.0030685 9.41704e-11
-0.0258709 2.71051e-20 0.000270934 1.73026e-05
0.0258709 2.71051e-20 0.000270944 5.36684e-11
-0.0258866 -2.71051e-20 0.000846945 4.58739e-06
0.0258867 0 0.00084698 2.25511e-10
-0.0258956 -5.42101e-20 0.00148553 3.06319e-06
0.0258957 -2.71051e-20 0.00148556 2.40458e-10
-0.025711 0 0.0036084 1.21527e-05
0.025711 -1.35525e-20 0.0036084 2.36147e-10
-0.0258953 5.42101e-20 0.00216695 2.99188e-06
0.0258954 0 0.00216699 1.13688e-10
-0.0260182 1.35525e-20 1.4385e-11 1.73017e-05
0.0260182 -1.35525e-20 1.43834e-11 8.75381e-11
-0.0257708 1.01644e-20 0.00362432 1.22504e-05
0.025771 -1.01644e-20 0.00362438 2.41111e-10
0.0260277 1.35525e-20 0.000129333 8.84981e-11
-0.0260277 1.35525e-20 0.000129319 1.73031e-05
-0.0258188 4.51751e-21 0.00342146 1.14286e-05
0.0258189 -4.51751e-21 0.00342152 2.04626e-10
-0.0259037 0 0.00281559 3.15904e-06
0.0259038 2.71051e-20 0.0028156 4.22732e-11
-0.0261762 2.71051e-20 8.34289e-12 1.69609e-05
0.0261762 0 8.34292e-12 1.71866e-10
-0.0261907 6.77626e-21 0.000536235 1.15794e-05
0.0261907 4.51751e-21 0.000536244 3.93312e-10
-0.0262092 -7.90564e-21 0.00114363 4.66346e-06
0.0262093 1.12938e-21 0.00114365 4.85213e-10
-0.0260128 0 0.00368882 1.0398e-05
0.026013 -1.35525e-20 0.00368885 2.2304e-10
-0.026215 1.12938e-21 0.00181908 3.62689e-06
0.026215 0 0.0018191 2.44676e-10
-0.0263228 -1.35525e-20 0.000121177 1.73655e-05
0.0263228 1.35525e-20 0.000121199 2.05854e-10
-0.0263263 1.35525e-20 7.18223e-12 1.73667e-05
0.0263263 -2.71051e-20 7.1822e-12 2.0972e-10
-0.0262139 1.12938e-21 0.00250529 3.28058e-06
0.026214 -3.38813e-21 0.0025053 9.82232e-11
-0.0261378 -2.71051e-20 0.00372349 9.38328e-06
0.0261379 -1.35525e-20 0.00372351 2.17666e-10
-0.0261644 4.06576e-20 0.00360602 9.561e-06
0.0261645 -1.35525e-20 0.00360608 2.06551e-10
-0.0262302 -1.50584e-21 0.0032085 7.04951e-06
0.0262302 1.8823e-21 0.00320851 1.16746e-10
-0.0264875 0 0.000258943 1.73662e-05
0.0264876 0 0.000258951 2.36727e-10
-0.0265116 0 0.000819231 6.00017e-06
0.0265116 0 0.000819229 1.05337e-09
-0.0265313 0 0.00145474 4.74684e-06
0.0265313 2.71051e-20 0.00145476 4.34925e-10
-0.026307 0 0.00376734 9.1446e-06
0.026307 -6.77626e-21 0.00376734 1.90838e-10
-0.0265288 0 0.00214917 3.73426e-06
0.0265289 0 0.00214918 1.96098e-10
0.0266623 1.35525e-20 2.30473e-12 1.34763e-09
-0.0266624 -1.35525e-20 2.30271e-12 1.71904e-05
0.0266707 -1.35525e-20 0.000106431 1.38286e-09
-0.0266707 -1.35525e-20 0.000106394 1.71834e-05
-0.0265278 0 0.00283317 3.32274e-06
0.0265278 -2.71051e-20 0.00283318 5.17221e-11
-0.0264226 0 0.00379806 8.89825e-06
0.0264228 6.77626e-21 0.00379808 1.83058e-10
-0.0265365 -2.82344e-21 0.00359658 8.80969e-06
0.0265365 1.69407e-21 0.00359658 1.59394e-10
-0.0267959 -1.35525e-20 1.18602e-12 1.72715e-05
0.0267959 0 1.1879e-12 2.27855e-09
-0.0268045 -1.12938e-21 0.0005015 1.27532e-05
0.0268045 -3.38813e-21 0.000501498 4.36937e-09
-0.0268426 1.12938e-21 0.00108827 6.93452e-06
0.0268426 -2.25875e-21 0.00108827 3.19922e-09
-0.0269065 1.35525e-20 8.39063e-05 1.76169e-05
0.0269065 0 8.3937e-05 4.35468e-09
-0.0269105 2.71051e-20 1.09878e-12 1.75969e-05
0.0269105 0 1.1004e-12 4.28046e-09
-0.0268569 0 0.00177521 5.17101e-06
0.0268569 -5.64689e-22 0.00177521 5.97886e-10
-0.0268455 1.12938e-21 0.00249636 3.8704e-06
0.0268456 -1.12938e-21 0.00249637 2.01801e-10
-0.0268309 1.807e-21 0.00322447 6.4241e-06
0.0268309 9.48677e-21 0.00322448 1.17433e-10
0.0267577 8.47033e-22 0.00386138 2.29966e-10
-0.0267577 0 0.00386154 9.92801e-06
-0.0267686 0 0.00388947 9.97274e-06
0.0267686 0 0.00388946 2.34875e-10
-0.0267817 0 0.00389295 1.00373e-05
0.0267818 0 0.00389296 2.38254e-10
-0.0267895 -1.69407e-21 0.00389519 1.00566e-05
0.0267897 0 0.00389521 2.40732e-10
-0.0267977 0 0.00388306 1.00861e-05
0.0267979 0 0.00388302 2.41651e-10
-0.0268077 8.47033e-22 0.00390073 1.00389e-05
0.0268079 -1.01644e-20 0.00390078 2.41715e-10
-0.0270953 0 0.00023099 1.73578e-05
0.0270953 -2.71051e-20 0.000230989 5.4711e-09
-0.0271307 2.71051e-20 0.000745242 9.15559e-06
0.0271307 2.71051e-20 0.000745245 1.0653e-08
-0.0271876 0 0.00136721 7.66858e-06
0.0271876 0 0.00136721 1.35505e-09
-0.02717 2.71051e-20 0.00211415 4.75869e-06
0.02717 0 0.00211415 4.67113e-10
-0.0270374 -9.68038e-21 0.00364688 1.00774e-05
0.0270374 -1.93608e-21 0.00364689 2.50345e-10
-0.0271535 0 0.00283769 3.74657e-06
0.0271535 -2.71051e-20 0.0028377 1.1069e-10
0.0273865 -6.02335e-21 0.0004332 3.97925e-08
-0.0273866 -1.50584e-21 0.000433203 1.75398e-05
-0.0272025 -1.35525e-20 0.00404241 1.10049e-05
0.0272025 0 0.00404243 3.13948e-10
0.0275127 0 2.93966e-06 5.19037e-08
-0.0275208 4.23516e-22 1.06317e-13 2.12872e-05
-0.0275278 4.23516e-22 1.05538e-13 2.12637e-05
0.027528 -4.23516e-22 1.05132e-13 5.11883e-08
-0.0275176 -4.14105e-21 0.000876077 1.53869e-05
0.0275176 -2.44698e-21 0.00087607 2.7732e-08
-0.0275406 0 1.8613e-05 2.12936e-05
0.027541 0 1.89803e-05 5.03664e-08
-0.0272667 1.35525e-20 0.00395781 1.09114e-05
0.0272668 -2.71051e-20 0.00395784 3.09243e-10
0.0275129 -7.05861e-23 0.00171283 2.30864e-09
-0.0275266 -1.41172e-22 0.00170612 7.93389e-06
-0.0274757 3.38813e-21 0.00247994 4.66576e-06
0.0274757 -2.25875e-21 0.00247995 4.58183e-10
-0.0274313 2.25875e-21 0.00322709 5.70529e-06
0.0274313 0 0.0032271 1.49441e-10
-0.0273527 1.35525e-20 0.00409792 1.10213e-05
0.0273528 1.35525e-20 0.00409794 4.11001e-10
-0.0274774 1.12938e-21 0.00369772 8.28648e-06
0.0274774 1.12938e-21 0.00369774 2.19737e-10
-0.0278217 0 0.00130219 1.28576e-05
0.0278218 -2.71051e-20 0.00130219 5.15731e-09
-0.0277987 0 0.00208828 6.15694e-06
0.0277987 -2.71051e-20 0.00208828 1.07621e-09
-0.0278795 -3.76459e-21 0.000330555 2.10002e-05
0.0278795 0 0.000330552 2.72927e-08
-0.0275673 -1.69407e-20 0.00417883 1.18134e-05
0.0275674 1.69407e-20 0.00417885 4.56036e-10
-0.0277779 0 0.0028342 4.08299e-06
0.027778 0 0.00283422 2.12628e-10
-0.0276683 -3.38813e-21 0.00421687 1.17945e-05
0.0276684 1.01644e-20 0.00421691 4.63224e-10
-0.0277108 0 0.00403356 1.12381e-05
0.0277109 0 0.00403359 3.98812e-10
-0.0278036 -2.71051e-20 0.00346787 3.95527e-06
0.0278037 2.71051e-20 0.00346788 7.24725e-11
0.0280306 1.35525e-20 3.72316e-14 2.19717e-08
-0.0280306 1.35525e-20 3.73072e-14 2.07655e-05
-0.0281597 -3.61401e-21 0.000826379 2.24697e-05
0.0281598 1.35525e-21 0.000826365 1.5332e-08
-0.0281239 3.38813e-22 0.00170643 1.05778e-05
0.0281239 -4.51751e-22 0.00170641 2.73064e-09
-0.0281926 2.71051e-20 2.34313e-14 2.59708e-05
0.0281927 -2.71051e-20 2.34156e-14 1.92406e-08
-0.0281037 -5.64689e-22 0.00246047 5.7216e-06
0.0281037 -5.64689e-22 0.00246047 6.57738e-10
-0.0278976 0 0.00430333 1.06521e-05
0.0278978 1.35525e-20 0.00430337 4.36384e-10
-0.0280998 -3.95282e-21 0.00316536 4.43338e-06
0.0280999 -5.64689e-22 0.00316537 1.55116e-10
-0.0280091 2.71051e-20 0.00434531 1.02391e-05
0.0280092 -2.71051e-20 0.00434535 4.29988e-10
-0.0280389 -1.35525e-20 0.00423697 1.03021e-05
0.028039 0 0.00423702 4.08397e-10
-0.0281246 -2.82344e-22 0.0038468 7.74722e-06
0.0281246 9.41148e-23 0.00384682 2.21042e-10
-0.0283974 1.35525e-20 1.6465e-14 2.38115e-05
0.0283975 -2.03288e-20 1.64528e-14 9.89957e-09
-0.0284432 2.71051e-20 0.0012926 1.70363e-05
0.0284432 0 0.0012926 4.26769e-09
-0.0284192 2.71051e-20 0.0020741 7.70274e-06
0.0284192 -2.71051e-20 0.00207411 1.08399e-09
-0.0284972 -1.41172e-22 0.000323921 2.58064e-05
0.0284983 7.05861e-23 0.000322966 9.5044e-09
-0.0281711 -1.35525e-20 0.00440642 9.99866e-06
0.0281712 6.77626e-21 0.00440645 3.89529e-10
0.0285522 0 6.7283e-15 8.44856e-09
-0.0285522 2.71051e-20 6.71898e-15 2.50293e-05
-0.0284166 0 0.00281021 5.00136e-06
0.0284166 0 0.00281021 2.82684e-10
-0.0284105 -2.71051e-20 0.00349464 4.75388e-06
0.0284105 5.42101e-20 0.00349465 7.48557e-11
-0.0282899 -6.77626e-21 0.00445124 9.68867e-06
0.02829 -6.77626e-21 0.00445126 3.76997e-10
-0.0284185 -1.12938e-21 0.00424829 9.40619e-06
0.0284186 -2.82344e-21 0.00424831 3.25961e-10
-0.0287651 2.71051e-20 2.83612e-16 3.26684e-05
0.0287651 0 2.95993e-16 9.53613e-09
0.0287466 -6.21157e-22 0.00168414 2.08025e-09
-0.0287466 2.82344e-22 0.00168414 1.34296e-05
-0.0288079 -9.03502e-22 0.000872612 2.71728e-05
0.0288079 -6.32451e-21 0.000872602 6.87019e-09
-0.0287473 7.52918e-22 0.0024227 6.78816e-06
0.0287474 0 0.0024227 5.95e-10
-0.0287216 -1.12938e-21 0.00316753 4.98104e-06
0.0287216 3.38813e-21 0.00316754 1.8013e-10
0.0285807 0 0.0045608 4.59576e-10
-0.0285808 1.69407e-21 0.00456081 1.13386e-05
-0.0287115 -2.25875e-21 0.0038813 7.51758e-06
0.0287115 0 0.00388131 2.06288e-10
0.0286395 0 0.00458294 4.66679e-10
-0.0286395 0 0.00458293 1.15607e-05
0.0286465 -3.38813e-21 0.00457502 4.67656e-10
-0.0286466 0 0.00457502 1.15927e-05
-0.0290133 -1.35525e-20 1.86899e-16 3.40889e-05
0.0290135 0 1.94633e-16 8.72478e-09
-0.0286559 -3.38813e-21 0.00458911 1.17294e-05
0.0286559 0 0.00458914 4.81604e-10
-0.0286628 3.38813e-21 0.00455184 1.14735e-05
0.0286628 3.38813e-21 0.00455182 4.58556e-10
-0.0290304 -3.38813e-21 8.06872e-05 3.47215e-05
0.0290304 -1.69407e-21 8.001e-05 8.92942e-09
-0.0290331 -3.95282e-21 0.000330818 3.60299e-05
0.0290331 -2.82344e-21 0.000330829 1.01839e-08
0.0290394 0 1.6645e-16 9.39885e-09
-0.0290395 -1.01644e-20 1.59042e-16 3.44431e-05
-0.0286826 3.38813e-21 0.00457911 1.19337e-05
0.0286827 0 0.00457912 4.7866e-10
-0.0286988 -1.69407e-21 0.00460526 1.21837e-05
0.0286989 0 0.00460531 4.86904e-10
-0.0290348 2.71051e-20 0.00281401 5.68082e-06
0.0290349 -2.71051e-20 0.00281402 2.83856e-10
-0.029155 0 0.00144553 2.0391e-05
0.029155 2.71051e-20 0.00144554 1.47024e-09
-0.0291572 2.71051e-20 0.00194761 1.08036e-05
0.0291573 2.71051e-20 0.00194759 9.04903e-10
-0.0289114 1.74247e-20 0.00431134 1.14988e-05
0.0289115 -7.7443e-21 0.00431137 4.8265e-10
-0.0290289 0 0.00350519 4.49988e-06
0.0290289 -2.71051e-20 0.0035052 9.19018e-11
-0.0293191 1.35525e-20 1.46697e-16 4.19069e-05
0.0293192 0 1.49488e-16 2.81707e-08
0.0293261 -8.04681e-21 0.00083995 1.45676e-08
-0.0293263 -5.0822e-21 0.000839937 3.32005e-05
-0.029346 -1.3129e-20 0.000822089 3.36817e-05
0.0293461 -4.23516e-22 0.000821754 1.52271e-08
-0.0293459 0 0.000843819 3.34221e-05
0.029346 3.09167e-20 0.000843906 1.47741e-08
-0.0293596 8.47033e-22 0.000839783 3.37499e-05
0.02936 4.65868e-21 0.000839793 1.52902e-08
-0.029022 1.35525e-20 0.00472698 1.43602e-05
0.029022 1.35525e-20 0.00472701 5.80155e-10
-0.0293681 0 0.00167839 1.66917e-05
0.0293682 1.35525e-20 0.00167839 2.03675e-09
-0.0293492 7.90564e-22 0.00243747 8.01162e-06
0.0293492 4.51751e-22 0.00243747 6.58251e-10
-0.0291129 0 0.00461943 1.39751e-05
0.029113 -2.71051e-20 0.00461946 5.81203e-10
-0.0293461 1.12938e-21 0.00316205 5.67253e-06
0.0293461 0 0.00316205 2.2095e-10
0.0295421 -1.01644e-20 1.67699e-17 6.0892e-08
-0.0295423 3.38813e-21 1.51529e-17 4.58515e-05
-0.0293068 2.25875e-21 0.00388259 6.85383e-06
0.0293068 0 0.00388261 1.93401e-10
-0.0295827 0 0.00139945 2.399e-05
0.0295827 0 0.00139947 4.29295e-09
-0.029224 -1.35525e-20 0.00480306 1.38143e-05
0.0292241 -1.35525e-20 0.00480312 7.40378e-10
-0.0296229 2.25875e-21 0.000312396 4.79397e-05
0.0296231 2.25875e-21 0.000312322 6.18919e-08
-0.0295757 -5.42101e-20 0.00193306 1.27689e-05
0.0295757 -2.71051e-20 0.00193306 1.40564e-09
-0.0296592 -6.77626e-21 -6.00186e-17 4.9906e-05
0.0296598 6.77626e-21 -5.89086e-17 6.58767e-08
-0.0293408 3.16226e-21 0.00435957 1.05153e-05
0.0293409 4.06576e-21 0.00435961 4.40044e-10
-0.0296739 5.42101e-20 0.00278626 7.22849e-06
0.0296739 -2.71051e-20 0.00278626 4.04981e-10
-0.0294232 6.77626e-21 0.0048781 1.55734e-05
0.0294234 2.03288e-20 0.00487815 9.61258e-10
-0.029651 -2.71051e-20 0.00350308 5.31458e-06
0.029651 2.71051e-20 0.00350309 1.13183e-10
-0.0298815 0 -1.91561e-16 6.19616e-05
0.0298818 1.35525e-20 -1.91567e-16 5.58137e-08
-0.0295072 1.35525e-20 0.00479828 1.58102e-05
0.0295074 -6.77626e-21 0.00479831 9.82909e-10
-0.0295244 -1.35525e-20 0.0049162 1.56342e-05
0.0295246 6.77626e-21 0.00491626 1.00748e-09
-0.0295732 0 0.00467621 1.4938e-05
0.0295734 4.51751e-21 0.00467625 8.63064e-10
-0.0296719 0 0.00412281 5.52496e-06
0.0296719 0 0.00412282 1.20485e-10
-0.0299617 7.52918e-22 0.000815835 5.01226e-05
0.0299618 -3.76459e-21 0.000815876 3.99398e-08
-0.0299758 0 0.000107543 6.99684e-05
0.0299759 -2.71051e-20 0.000107299 6.08393e-08
-0.0299859 -1.35525e-20 2.26926e-16 6.99596e-05
0.029986 -2.71051e-20 2.28937e-16 6.08347e-08
-0.0300036 1.12938e-21 0.00165375 2.11418e-05
0.0300036 3.76459e-22 0.00165376 5.85149e-09
0.0300698 2.71051e-20 -5.95075e-16 7.5793e-08
-0.0300699 2.71051e-20 -5.95895e-16 6.86561e-05
-0.0299914 0 0.00233928 1.12955e-05
0.0299915 0 0.00233928 1.23369e-09
-0.0297028 -2.71051e-20 0.00498341 1.47895e-05
0.029703 0 0.00498346 9.36277e-10
-0.0299738 -2.25875e-21 0.00312121 7.185e-06
0.0299738 1.807e-21 0.00312121 3.73584e-10
0.030181 -1.35525e-20 0.000217163 8.95257e-08
-0.0301813 0 0.000217574 7.40618e-05
-0.0299672 -3.38813e-21 0.00382607 5.92774e-06
0.0299673 -1.12938e-21 0.00382608 1.25379e-10
0.0302278 0 -3.28141e-16 9.26182e-08
-0.0302282 0 -3.2848e-16 7.42316e-05
-0.0298589 -2.03288e-20 0.00504218 1.39973e-05
0.0298591 6.77626e-21 0.00504224 8.8973e-10
-0.0299001 0 0.00489103 1.39502e-05
0.0299002 1.35525e-20 0.00489108 8.31825e-10
-0.0299789 2.25875e-21 0.00451145 1.0708e-05
0.029979 0 0.00451148 4.51641e-10
-0.0302909 2.71051e-20 0.00277109 8.85194e-06
0.0302909 0 0.0027711 6.29427e-10
-0.0304299 0 0.000466563 8.30794e-05
0.0304299 -2.71051e-20 0.000466598 1.00503e-07
-0.0304045 0 0.00137206 3.14206e-05
0.0304046 2.71051e-20 0.00137208 1.34592e-08
-0.0304135 2.71051e-20 0.00193181 1.8849e-05
0.0304135 2.71051e-20 0.00193181 2.60725e-09
-0.0302817 2.71051e-20 0.00348658 6.33262e-06
0.0302818 2.71051e-20 0.00348658 1.69123e-10