# omega  POINT_DATA 29169
# x  y  z  omega
0.0199996 0 6.27196e-08 1583.18
-0.0199996 0 6.27196e-08 1583.18
0.0199996 0 0.000164442 1568.91
-0.0199996 0 0.00016442 1568.91
0.0199996 6.77626e-21 0.000494346 1896.37
-0.0199996 -3.38813e-21 0.000494294 1896.4
0.0199996 -6.77626e-21 0.000661321 2207.98
-0.0199996 6.77626e-21 0.000661243 2208
-0.0199996 6.77626e-21 0.000837166 2477.06
0.0199996 -3.38813e-21 0.000837249 2477.02
-0.0199996 6.77626e-21 0.0011807 2989.06
0.0199996 3.38813e-21 0.00118076 2988.88
-0.0199996 0 0.00135636 3181.1
0.0199996 -6.77626e-21 0.00135644 3180.94
-0.0199996 -3.38813e-21 0.00154016 3279.08
0.0199996 -3.38813e-21 0.00154025 3278.94
0.0200767 0 6.659e-05 1612.08
-0.0200767 0 6.65901e-05 1612.05
-0.0200781 0 6.52655e-08 1611.96
0.0200781 0 6.52657e-08 1612
0.0200799 -6.77626e-21 0.000590246 2137.61
-0.0200799 0 0.000590204 2137.62
-0.0200759 0 0.000728756 2382.82
0.0200759 6.77626e-21 0.000728801 2382.81
-0.0199996 -3.38813e-21 0.00190617 2676.75
0.0199996 -3.38813e-21 0.00190619 2676.48
0.0199996 -6.77626e-21 0.002087 2075.85
-0.0199996 6.77626e-21 0.002087 2076.27
-0.0200757 -6.77626e-21 0.00127189 3192.17
0.0200757 -6.77626e-21 0.00127193 3192
-0.0200724 6.77626e-21 0.00141167 3315.93
0.0200724 1.35525e-20 0.00141172 3315.78
-0.0201349 4.06576e-20 6.62424e-08 1554.62
0.0201349 0 6.62432e-08 1554.67
-0.0201347 -1.35525e-20 0.00065509 2096.41
0.0201347 0 0.000655092 2089.91
-0.0200697 6.77626e-21 0.00197791 2390.61
0.0200697 6.77626e-21 0.00197791 2390.21
-0.0201289 -2.03288e-20 0.00132685 2963.59
0.0201289 2.71051e-20 0.00132685 2952.29
-0.0200872 0 0.00211021 1879.36
0.0200872 6.77626e-21 0.00211021 1878.84
-0.0201043 0 0.00206082 1993.65
0.0201043 0 0.00206081 1993.14
0.0201292 0 0.00199355 2043.1
-0.0201291 -6.77626e-21 0.00199358 2054.86
-0.0201574 0 0.00212882 1993.36
0.0201575 -6.77626e-21 0.00212883 1992.84
-0.020211 6.77626e-21 0.00203552 1890.99
0.020211 -6.77626e-21 0.0020355 1890.36
0.0203752 1.69407e-20 7.14249e-08 1742.94
-0.0203752 -1.35525e-20 7.14223e-08 1742.76
0.0203552 6.77626e-22 0.000964574 3100.7
-0.0203552 0 0.000964653 3107.75
-0.0203848 -1.807e-21 0.00031854 1711.79
0.0203848 4.51751e-22 0.000318497 1710.51
0.0203485 1.8823e-22 0.00158862 3638.2
-0.0203485 -9.41148e-22 0.00158869 3649.77
-0.0204541 -5.0822e-21 7.18949e-08 1615.75
0.0204542 1.69407e-21 7.18988e-08 1615.78
0.0203479 3.38813e-21 0.0020921 1513.89
-0.0203479 -6.77626e-21 0.00209212 1514.69
-0.0203454 0 0.00217864 1487.53
0.0203454 -1.35525e-20 0.00217865 1486.76
0.0204014 0 0.00198909 1616.47
-0.0204014 -1.35525e-20 0.00198912 1617.23
0.0204481 -5.42101e-20 0.00220585 1621.86
-0.0204481 -2.71051e-20 0.00220584 1622.47
-0.0206171 6.77626e-21 7.35947e-08 1208.93
0.0206171 -6.77626e-21 7.35999e-08 1208.86
0.0206345 2.25875e-21 0.00124186 1469.97
-0.0206345 -2.25875e-21 0.00124198 1503.86
0.0206729 0 7.48669e-08 1156.64
-0.0206729 6.77626e-21 7.48621e-08 1156.71
0.0206741 6.77626e-21 7.00031e-05 1156.63
-0.0206742 6.77626e-21 7.0039e-05 1156.7
0.0206667 4.51751e-21 0.000657407 1232.8
-0.0206667 -7.90564e-21 0.000657517 1252
0.0206275 1.35525e-21 0.0016945 1577.54
-0.0206275 -4.06576e-21 0.00169457 1614.16
0.0205976 0 0.00224546 1116.95
-0.0205976 -1.35525e-20 0.00224545 1117.55
0.020822 6.77626e-21 8.13398e-08 1102.36
-0.0208222 0 8.13398e-08 1102.56
-0.0208462 1.35525e-20 0.000330944 971.519
0.0208462 0 0.000330924 971.207
0.0208502 2.71051e-20 0.000953835 992.29
-0.0208502 -1.35525e-20 0.000953873 1002.65
0.0208443 -1.35525e-20 0.00153528 1098.03
-0.0208443 2.71051e-20 0.00153531 1115.64
0.0208065 -1.41172e-21 0.00198301 1032.51
-0.0208065 2.82344e-22 0.00198302 1033.25
0.0209014 -6.77626e-21 0.00232595 1139.23
-0.0209014 6.77626e-21 0.00232594 1139.83
0.0210643 -1.35525e-20 9.1532e-05 939.891
-0.0210643 0 9.15048e-05 940.454
0.021067 1.35525e-20 7.81651e-08 942.915
-0.021067 0 7.81689e-08 943.477
-0.0209629 4.06576e-20 0.00234223 1216.12
0.0209629 -6.77626e-21 0.00234225 1215.56
-0.0210006 -6.77626e-21 0.00235224 1147.37
0.0210006 0 0.00235226 1146.79
-0.0211368 1.35525e-20 7.77042e-08 980.027
0.0211368 0 7.76997e-08 979.398
-0.021129 -9.03502e-21 0.00122302 694.594
0.021129 -4.51751e-21 0.00122304 680.257
-0.0211316 -1.16165e-20 0.00168768 863.078
0.0211316 -5.80823e-21 0.00168768 846.767
-0.0210928 -3.38813e-21 0.00225831 1083.88
0.0210928 3.38813e-21 0.0022583 1083.3
-0.0212074 -2.25875e-21 0.000639305 780.421
0.0212074 4.51751e-21 0.000639333 770.711
-0.0212432 1.35525e-20 6.9493e-08 955.042
0.0212432 0 6.94858e-08 954.293
-0.0212484 0 0.000106497 952.903
0.0212484 -6.77626e-21 0.000106548 952.145
-0.0211906 0 0.00240258 1187.41
0.0211906 0 0.00240261 1186.9
0.0213439 5.64689e-21 0.0020251 822.688
-0.0213439 -4.51751e-21 0.00202507 827.342
-0.021371 0 0.00245037 1196.46
0.021371 -6.77626e-21 0.00245038 1195.98
-0.0213837 0 0.00242601 1193.63
0.0213837 0 0.00242602 1193.16
-0.0214676 -6.77626e-21 0.00151459 454.334
0.0214676 -9.03502e-21 0.00151465 435.121
-0.0215176 1.35525e-20 0.000962569 420.687
0.0215177 6.77626e-21 0.000962662 398.534
-0.0215442 1.0842e-20 0.000394958 785.119
0.0215442 -5.42101e-21 0.000395018 781.796
0.0214146 0 0.00239563 1130.61
-0.0214146 0 0.00239562 1133.43
0.0214166 -6.77626e-21 0.00246246 1242.37
-0.0214166 -2.71051e-20 0.00246245 1242.86
0.0216582 1.35525e-20 0.000128741 851.5
-0.0216582 0 0.000128718 852.651
0.0216619 -1.35525e-20 1.14562e-08 851.647
-0.021662 0 1.14549e-08 852.799
-0.0217415 -2.71051e-20 0.000612322 589.457
0.0217415 0 0.000612439 579.394
-0.021737 0 0.00121881 349.825
0.021737 0 0.00121894 337.001
0.021641 0 0.0025219 1431.14
-0.021641 0 0.00252189 1431.55
0.02179 1.35525e-20 2.38075e-09 854.997
-0.02179 1.35525e-20 2.38045e-09 856.252
-0.02171 -2.71051e-20 0.0018706 712.419
0.02171 -2.71051e-20 0.00187066 690.986
0.0216778 1.8823e-21 0.00229009 1335.72
-0.0216778 -3.76459e-22 0.00229005 1336.35
-0.0219185 0 2.30219e-09 846.044
0.0219185 -1.35525e-20 2.30245e-09 844.661
-0.0219202 1.35525e-20 0.000137029 845.586
0.0219202 0 0.000137066 844.193
-0.0218192 0 0.00256913 1744.83
0.0218192 0 0.00256913 1744.52
-0.0219845 5.42101e-21 0.00039594 761.706
0.0219845 5.42101e-21 0.000396027 758.091
0.0219638 0 0.00229016 1417.88
-0.0219638 1.12938e-21 0.00229013 1425.11
-0.022074 0 0.000916488 295.643
0.022074 -2.25875e-21 0.000916652 271.622
0.0219561 -1.35525e-20 0.0025286 2038.03
-0.0219561 0 0.00252859 2038.28
-0.0220578 0 0.00154542 284.879
0.0220578 -2.25875e-21 0.00154554 254.834
0.0219647 6.77626e-21 0.00260764 2159.14
-0.0219647 -1.35525e-20 0.00260764 2159.41
-0.0220662 4.51751e-21 0.00204922 642.19
0.0220662 -4.51751e-21 0.00204927 619.813
0.0222375 -1.35525e-20 0.000149298 828.629
-0.0222375 0 0.000149261 830.345
0.0222467 0 3.22502e-09 828.6
-0.0222467 1.35525e-20 3.22489e-09 830.318
0.0221408 1.89735e-20 0.00250166 2103.76
-0.0221408 -5.42101e-21 0.00250165 2104
-0.0221237 -1.35525e-20 0.00264976 2244.62
0.0221238 0 0.00264976 2244.36
-0.0223263 -1.93608e-20 0.000544368 626.536
0.0223263 7.7443e-21 0.000544521 616.739
-0.0223861 1.35525e-20 3.11769e-09 838.84
0.0223861 1.35525e-20 3.11777e-09 837.033
-0.0223888 0 0.00123026 205.284
0.0223888 2.71051e-20 0.00123046 177.653
-0.0223621 0 0.00189307 506.3
0.0223621 0 0.00189318 478.637
0.022297 0 0.00269561 1712.51
-0.022297 1.35525e-20 0.00269561 1713.02
0.0223597 2.11758e-22 0.00232885 1292.75
-0.0223597 7.05861e-23 0.00232881 1310.27
-0.0225373 -1.35525e-20 3.03035e-09 849.701
0.0225373 0 3.03039e-09 847.806
-0.0225385 0 0.000146287 849.621
0.0225385 1.35525e-20 0.000146333 847.727
-0.0227012 -2.25875e-21 0.000916023 256.472
0.0227012 6.77626e-21 0.000916234 233.939
-0.0226844 -4.51751e-21 0.00155903 209.94
0.0226844 2.25875e-21 0.00155921 184.323
-0.0227492 -9.03502e-21 0.000352645 776.054
0.0227492 4.51751e-21 0.000352762 770.844
0.0226132 -1.2282e-20 0.00277935 1838.07
-0.0226133 1.82112e-20 0.00277937 1838.7
-0.0226206 1.52466e-20 0.00278132 1838.31
0.0226206 -9.74088e-21 0.00278132 1837.67
-0.0227194 6.77626e-21 0.00213973 565.179
0.0227194 -9.03502e-21 0.00213981 511.384
-0.0226786 0 0.00257495 1722.9
0.0226786 0 0.00257497 1721.07
-0.0228459 1.35525e-20 3.06872e-09 867.811
0.0228459 0 3.06855e-09 865.68
-0.0230054 -2.71051e-20 2.97301e-09 874.49
0.0230055 2.71051e-20 2.97281e-09 872.263
-0.0230123 2.71051e-20 0.000601967 533.122
0.0230123 0 0.000602177 520.255
-0.023008 0 0.00123165 165.733
0.023008 0 0.0012319 139.001
-0.0229679 2.71051e-20 0.00191396 390.444
0.0229679 5.42101e-20 0.0019141 359.84
0.0229069 -2.71051e-20 0.00285715 1487.84
-0.0229069 0 0.00285715 1488.47
-0.0230246 -2.71051e-20 0.0024179 1058.54
0.0230246 2.71051e-20 0.00241795 1039.67
-0.0231706 2.71051e-20 2.61999e-09 881.026
0.0231707 -1.35525e-20 2.6198e-09 878.722
-0.0232775 -6.77626e-21 0.000961767 220.088
0.0232775 4.51751e-21 0.000962019 196.788
-0.0231303 1.35525e-20 0.00291661 1367.84
0.0231303 4.06576e-20 0.00291662 1366.85
-0.0233249 6.77626e-21 0.000300575 813.729
0.023325 2.25875e-21 0.000300687 809.226
-0.0233201 0 0.00155413 165.364
0.0233201 1.12938e-20 0.00155433 134.868
-0.0233275 4.51751e-21 0.00215862 421.149
0.0233275 1.58113e-20 0.00215872 380.327
-0.0232742 1.12938e-21 0.00268392 1342.74
0.0232742 1.807e-21 0.00268395 1341.17
-0.023471 0 1.49916e-09 894.372
0.023471 0 1.49905e-09 891.94
0.0233563 -6.77626e-21 0.0029773 1299.06
-0.0233564 -6.77626e-21 0.00297732 1300.05
-0.0236362 -2.71051e-20 1.14287e-09 909.475
0.0236362 -2.71051e-20 1.14277e-09 907.019
-0.0236942 -6.77626e-21 0.000643529 497.47
0.0236943 0 0.000643725 484.587
-0.0235255 -5.42101e-20 0.00302244 1303.85
0.0235255 1.35525e-20 0.00302244 1302.93
-0.0236289 2.71051e-20 0.00246429 853.561
0.0236289 0 0.00246434 834.216
-0.0237458 -4.51751e-21 0.00121852 146.681
0.0237458 -4.51751e-21 0.00121876 121.931
0.023712 3.67854e-20 0.00179082 136.879
-0.023712 1.54886e-20 0.00179064 165.941
-0.0238007 1.35525e-20 1.02427e-09 918.785
0.0238007 1.35525e-20 1.02417e-09 916.312
-0.0236242 0 0.00304884 1088.97
0.0236242 0 0.00304886 1087.78
-0.0238637 8.13152e-21 0.000205193 922.723
0.0238637 1.0842e-20 0.000205258 920.241
0.0238647 0 0.00216536 274.338
-0.0238648 9.03502e-21 0.00216526 297.242
-0.0239679 -2.71051e-20 0.000897771 174.693
0.023968 0 0.00089799 157.158
-0.0239683 0 0.00153338 106.497
0.0239683 0 0.00153358 79.4233
-0.0238625 -5.29396e-23 0.00276289 844.288
0.0238638 5.29396e-23 0.00276308 841.963
-0.0238739 -4.23516e-21 0.00276895 836.042
0.0238718 5.82335e-21 0.00276533 834.722
0.024114 0 6.40638e-10 940.522
-0.024114 0 6.40703e-10 942.999
-0.0241188 2.71051e-20 0.000144133 942.976
0.0241188 0 0.000144175 940.498
0.023916 0 0.00312792 1050.45
-0.0239161 0 0.00312794 1051.58
-0.0239647 0 0.00314097 1110.3
0.0239647 0 0.00314096 1109.3
-0.0242749 0 5.21808e-10 973.884
0.0242749 0 5.21745e-10 971.441
-0.0242836 -4.51751e-21 0.000580904 577.248
0.0242836 2.25875e-21 0.000581052 566.414
-0.0242888 0 0.00120234 141.475
0.0242889 1.12938e-20 0.00120253 117.995
-0.0242868 -9.03502e-21 0.00186197 147.543
0.0242869 0 0.00186211 115.028
-0.0241659 0 0.003195 1248.65
0.0241661 1.69407e-21 0.00319503 1247.94
0.0241862 4.23516e-22 0.00320043 1264
-0.0241863 -4.23516e-22 0.00320044 1264.82
0.0241881 5.50571e-21 0.00319265 1261.59
-0.0241882 0 0.0031926 1262.39
-0.0244313 2.71051e-20 0.000134539 978.611
0.0244313 0 0.00013457 976.173
-0.0244331 0 4.67599e-10 979.332
0.0244331 0 4.67535e-10 976.895
-0.0243349 2.25875e-21 0.00249839 579.428
0.0243349 -4.51751e-21 0.00249847 555.981
0.0242974 4.51751e-21 0.0029262 1209.82
-0.0242974 0 0.00292619 1212.79
-0.0243695 6.77626e-21 0.00315162 1485.06
0.0243695 0 0.00315166 1484.3
-0.0246008 -2.71051e-20 0.000284661 990.868
0.0246009 0 0.000284725 988.452
-0.0243971 -6.77626e-21 0.00325796 1591.73
0.0243971 -6.77626e-21 0.00325796 1590.88
-0.0246107 -2.71051e-20 0.000878458 184.698
0.0246107 2.71051e-20 0.000878612 162.905
-0.0246166 -2.71051e-20 0.00151509 98.1124
0.0246166 0 0.00151523 70.2521
0.0244715 -6.77626e-21 0.00314417 1492.49
-0.0244715 0 0.00314413 1495.57
0.024504 -6.77626e-21 0.00290416 1240.54
-0.024504 -3.38813e-21 0.00290416 1247.91
0.024478 -6.77626e-21 0.00323287 1728.77
-0.024478 6.77626e-21 0.00323286 1729.64
0.0244844 6.77626e-21 0.00328126 1792.52
-0.0244844 0 0.00328126 1793.4
-0.0246093 0 0.00219408 176.293
0.0246093 -5.42101e-20 0.00219416 126.497
-0.0247622 -1.35525e-20 2.5336e-10 1003.52
0.0247622 0 2.5332e-10 1001.12
-0.0247664 1.35525e-20 0.000132487 1003.25
0.0247664 2.71051e-20 0.000132517 1000.84
0.0246224 -2.03288e-20 0.00297464 1367.95
-0.0246224 -6.77626e-21 0.00297462 1374.04
-0.0249174 0 1.99007e-10 1045.46
0.0249175 1.35525e-20 1.98966e-10 1043.12
0.0247048 1.35525e-20 0.00334016 2081.87
-0.0247048 0 0.00334016 2082.74
-0.0249272 2.25875e-21 0.00056588 614.599
0.0249272 1.12938e-20 0.000565967 601.308
-0.0249353 9.03502e-21 0.00118332 144.375
0.0249353 2.25875e-21 0.00118344 117.204
0.0247708 -1.35525e-20 0.00325092 2041.79
-0.0247708 -1.35525e-20 0.00325093 2042.65
-0.0249332 -4.51751e-21 0.0018542 128.832
0.0249332 0 0.00185429 90.1742
-0.0249124 1.12938e-20 0.00254742 487.508
0.0249124 1.12938e-20 0.00254746 450.971
-0.02507 0 0.000129685 1034.71
0.02507 0 0.000129701 1032.36
-0.0250722 0 1.71469e-10 1035.91
0.0250723 0 1.71434e-10 1033.55
0.0248681 0 0.00338376 1730.55
-0.0248681 -5.42101e-20 0.00338375 1731.6
-0.024966 -1.807e-21 0.00300203 1321.17
0.024966 -1.807e-21 0.00300205 1304.19
-0.0252401 -2.71051e-20 0.000277338 1045.25
0.0252401 0 0.000277376 1042.91
-0.0252519 0 0.000862008 196.66
0.0252519 0 0.000862093 168.389
-0.0252581 2.71051e-20 0.0015011 96.6176
0.0252581 0 0.00150118 64.5535
-0.025094 0 0.00344393 1629.94
0.025094 2.03288e-20 0.00344395 1628.86
-0.0252522 0 0.00218233 140.233
0.0252522 -5.42101e-20 0.00218237 95.3882
-0.0253959 0 6.82351e-11 1059.36
0.0253959 0 6.82188e-11 1057.06
-0.0254017 -1.35525e-20 0.000130113 1058.75
0.0254017 -1.35525e-20 0.000130131 1056.44
-0.0252838 0 0.00277254 382.486
0.0252839 0 0.00277257 325.23
-0.0252273 0 0.00330818 1754.81
0.0252273 0 0.00330821 1753.75
-0.0252595 6.77626e-21 0.00348812 1627.24
0.0252596 6.77626e-21 0.00348815 1626.12
-0.0255539 0 4.13675e-11 1112.71
0.0255539 2.71051e-20 4.13565e-11 1110.48
-0.0255655 -2.25875e-21 0.000552596 651.076
0.0255655 2.25875e-21 0.000552632 634.764
-0.0255758 2.25875e-21 0.00116683 150.156
0.0255758 -4.51751e-21 0.00116688 118.069
-0.0255762 -2.25875e-21 0.00183976 111.862
0.0255763 0 0.0018398 73.6709
-0.0255827 -2.25875e-21 0.00249854 244.223
0.0255827 -4.51751e-21 0.00249856 187.265
-0.0257081 1.35525e-20 0.000131339 1085.7
0.0257081 2.71051e-20 0.000131348 1083.44
-0.0257119 -2.71051e-20 3.51853e-11 1087.87
0.0257119 0 3.51759e-11 1085.62
-0.0254803 -1.35525e-20 0.00354694 1643.18
0.0254804 1.35525e-20 0.00354697 1642.04
-0.0255732 -1.12938e-21 0.00306848 1097.84
0.0255733 0 0.0030685 1065.2
-0.0258709 2.71051e-20 0.000270934 1095.51
0.0258709 2.71051e-20 0.000270944 1093.3
-0.0258866 -2.71051e-20 0.000846945 208.607
0.0258867 0 0.00084698 174.312
-0.0258956 -5.42101e-20 0.00148553 96.899
0.0258957 -2.71051e-20 0.00148556 61.246
-0.025711 0 0.0036084 1158.68
0.025711 -1.35525e-20 0.0036084 1157.48
-0.0258953 5.42101e-20 0.00216695 112.658
0.0258954 0 0.00216699 72.5849
-0.0260182 1.35525e-20 1.4385e-11 1123.21
0.0260182 -1.35525e-20 1.43834e-11 1120.99
-0.0257708 1.01644e-20 0.00362432 1127.21
0.025771 -1.01644e-20 0.00362438 1125.92
0.0260277 1.35525e-20 0.000129333 1120.39
-0.0260277 1.35525e-20 0.000129319 1122.6
-0.0258188 4.51751e-21 0.00342146 1349.92
0.0258189 -4.51751e-21 0.00342152 1348.68
-0.0259037 0 0.00281559 318.142
0.0259038 2.71051e-20 0.0028156 233.643
-0.0261762 2.71051e-20 8.34289e-12 1196.16
0.0261762 0 8.34292e-12 1193.99
-0.0261907 6.77626e-21 0.000536235 702.317
0.0261907 4.51751e-21 0.000536244 681.268
-0.0262092 -7.90564e-21 0.00114363 160.796
0.0262093 1.12938e-21 0.00114365 121.386
-0.0260128 0 0.00368882 1498.77
0.026013 -1.35525e-20 0.00368885 1497.62
-0.026215 1.12938e-21 0.00181908 104.041
0.026215 0 0.0018191 62.7532
-0.0263228 -1.35525e-20 0.000121177 1177.29
0.0263228 1.35525e-20 0.000121199 1175.07
-0.0263263 1.35525e-20 7.18223e-12 1180.06
0.0263263 -2.71051e-20 7.1822e-12 1177.84
-0.0262139 1.12938e-21 0.00250529 197.648
0.026214 -3.38813e-21 0.0025053 136.504
-0.0261378 -2.71051e-20 0.00372349 1613.13
0.0261379 -1.35525e-20 0.00372351 1612.1
-0.0261644 4.06576e-20 0.00360602 1613.66
0.0261645 -1.35525e-20 0.00360608 1612.6
-0.0262302 -1.50584e-21 0.0032085 1000.53
0.0262302 1.8823e-21 0.00320851 965.637
-0.0264875 0 0.000258943 1199.96
0.0264876 0 0.000258951 1197.73
-0.0265116 0 0.000819231 232.926
0.0265116 0 0.000819229 186.077
-0.0265313 0 0.00145474 102.518
0.0265313 2.71051e-20 0.00145476 59.2372
-0.026307 0 0.00376734 1972.14
0.026307 -6.77626e-21 0.00376734 1971.04
-0.0265288 0 0.00214917 104.501
0.0265289 0 0.00214918 58.1826
0.0266623 1.35525e-20 2.30473e-12 1282.04
-0.0266624 -1.35525e-20 2.30271e-12 1284.24
0.0266707 -1.35525e-20 0.000106431 1283.14
-0.0266707 -1.35525e-20 0.000106394 1285.34
-0.0265278 0 0.00283317 239.384
0.0265278 -2.71051e-20 0.00283318 168.579
-0.0264226 0 0.00379806 2020.63
0.0264228 6.77626e-21 0.00379808 2019.62
-0.0265365 -2.82344e-21 0.00359658 1821.02
0.0265365 1.69407e-21 0.00359658 1815.92
-0.0267959 -1.35525e-20 1.18602e-12 1392.77
0.0267959 0 1.1879e-12 1390.61
-0.0268045 -1.12938e-21 0.0005015 831.677
0.0268045 -3.38813e-21 0.000501498 800.915
-0.0268426 1.12938e-21 0.00108827 185.79
0.0268426 -2.25875e-21 0.00108827 134.312
-0.0269065 1.35525e-20 8.39063e-05 1425.2
0.0269065 0 8.3937e-05 1423.02
-0.0269105 2.71051e-20 1.09878e-12 1421.28
0.0269105 0 1.1004e-12 1419.11
-0.0268569 0 0.00177521 101.101
0.0268569 -5.64689e-22 0.00177521 56.2587
-0.0268455 1.12938e-21 0.00249636 153.946
0.0268456 -1.12938e-21 0.00249637 99.5383
-0.0268309 1.807e-21 0.00322447 745.191
0.0268309 9.48677e-21 0.00322448 698.154
0.0267577 8.47033e-22 0.00386138 1980.5
-0.0267577 0 0.00386154 1981.74
-0.0267686 0 0.00388947 1989.38
0.0267686 0 0.00388946 1988.17
-0.0267817 0 0.00389295 1985.19
0.0267818 0 0.00389296 1983.95
-0.0267895 -1.69407e-21 0.00389519 1976.03
0.0267897 0 0.00389521 1974.74
-0.0267977 0 0.00388306 1961.87
0.0267979 0 0.00388302 1960.5
-0.0268077 8.47033e-22 0.00390073 1985.78
0.0268079 -1.01644e-20 0.00390078 1984.55
-0.0270953 0 0.00023099 1513.01
0.0270953 -2.71051e-20 0.000230989 1510.88
-0.0271307 2.71051e-20 0.000745242 300.467
0.0271307 2.71051e-20 0.000745245 229.288
-0.0271876 0 0.00136721 110.878
0.0271876 0 0.00136721 60.4393
-0.02717 2.71051e-20 0.00211415 87.7926
0.02717 0 0.00211415 47.6076
-0.0270374 -9.68038e-21 0.00364688 1338.97
0.0270374 -1.93608e-21 0.00364689 1320.4
-0.0271535 0 0.00283769 175.453
0.0271535 -2.71051e-20 0.0028377 116.303
0.0273865 -6.02335e-21 0.0004332 872.034
-0.0273866 -1.50584e-21 0.000433203 893.627
-0.0272025 -1.35525e-20 0.00404241 1857.57
0.0272025 0 0.00404243 1856.16
0.0275127 0 2.93966e-06 1180.7
-0.0275208 4.23516e-22 1.06317e-13 1183.31
-0.0275278 4.23516e-22 1.05538e-13 1173.67
0.027528 -4.23516e-22 1.05132e-13 1170.87
-0.0275176 -4.14105e-21 0.000876077 331.685
0.0275176 -2.44698e-21 0.00087607 296.104
-0.0275406 0 1.8613e-05 1158.95
0.027541 0 1.89803e-05 1155.86
-0.0272667 1.35525e-20 0.00395781 1831.74
0.0272668 -2.71051e-20 0.00395784 1830.36
0.0275129 -7.05861e-23 0.00171283 56.8418
-0.0275266 -1.41172e-22 0.00170612 104.832
-0.0274757 3.38813e-21 0.00247994 126.607
0.0274757 -2.25875e-21 0.00247995 73.5176
-0.0274313 2.25875e-21 0.00322709 506.856
0.0274313 0 0.0032271 447.549
-0.0273527 1.35525e-20 0.00409792 1616.07
0.0273528 1.35525e-20 0.00409794 1614.73
-0.0274774 1.12938e-21 0.00369772 1262.03
0.0274774 1.12938e-21 0.00369774 1228.68
-0.0278217 0 0.00130219 126.691
0.0278218 -2.71051e-20 0.00130219 68.1141
-0.0277987 0 0.00208828 84.8945
0.0277987 -2.71051e-20 0.00208828 41.4392
-0.0278795 -3.76459e-21 0.000330555 798.815
0.0278795 0 0.000330552 795.191
-0.0275673 -1.69407e-20 0.00417883 1380.63
0.0275674 1.69407e-20 0.00417885 1379.18
-0.0277779 0 0.0028342 153.751
0.027778 0 0.00283422 84.8302
-0.0276683 -3.38813e-21 0.00421687 1409.63
0.0276684 1.01644e-20 0.00421691 1408.18
-0.0277108 0 0.00403356 1621.38
0.0277109 0 0.00403359 1620
-0.0278036 -2.71051e-20 0.00346787 387.237
0.0278037 2.71051e-20 0.00346788 308.994
0.0280306 1.35525e-20 3.72316e-14 923.002
-0.0280306 1.35525e-20 3.73072e-14 925.663
-0.0281597 -3.61401e-21 0.000826379 338.639
0.0281598 1.35525e-21 0.000826365 309.829
-0.0281239 3.38813e-22 0.00170643 104.67
0.0281239 -4.51751e-22 0.00170641 54.066
-0.0281926 2.71051e-20 2.34313e-14 956.81
0.0281927 -2.71051e-20 2.34156e-14 953.535
-0.0281037 -5.64689e-22 0.00246047 108.808
0.0281037 -5.64689e-22 0.00246047 55.9601
-0.0278976 0 0.00430333 1710.74
0.0278978 1.35525e-20 0.00430337 1709.39
-0.0280998 -3.95282e-21 0.00316536 250.692
0.0280999 -5.64689e-22 0.00316537 169.8
-0.0280091 2.71051e-20 0.00434531 1767.37
0.0280092 -2.71051e-20 0.00434535 1766.09
-0.0280389 -1.35525e-20 0.00423697 1805.55
0.028039 0 0.00423702 1804.26
-0.0281246 -2.82344e-22 0.0038468 1215.3
0.0281246 9.41148e-23 0.00384682 1169.41
-0.0283974 1.35525e-20 1.6465e-14 868.017
0.0283975 -2.03288e-20 1.64528e-14 864.972
-0.0284432 2.71051e-20 0.0012926 127.091
0.0284432 0 0.0012926 69.6358
-0.0284192 2.71051e-20 0.0020741 78.9226
0.0284192 -2.71051e-20 0.00207411 36.7385
-0.0284972 -1.41172e-22 0.000323921 760.19
0.0284983 7.05861e-23 0.000322966 756.833
-0.0281711 -1.35525e-20 0.00440642 2034.39
0.0281712 6.77626e-21 0.00440645 2033.02
0.0285522 0 6.7283e-15 864.495
-0.0285522 2.71051e-20 6.71898e-15 867.698
-0.0284166 0 0.00281021 116.015
0.0284166 0 0.00281021 59.4974
-0.0284105 -2.71051e-20 0.00349464 322.179
0.0284105 5.42101e-20 0.00349465 204.309
-0.0282899 -6.77626e-21 0.00445124 2046.31
0.02829 -6.77626e-21 0.00445126 2044.91
-0.0284185 -1.12938e-21 0.00424829 1926.44
0.0284186 -2.82344e-21 0.00424831 1920.1
-0.0287651 2.71051e-20 2.83612e-16 968.171
0.0287651 0 2.95993e-16 964.071
0.0287466 -6.21157e-22 0.00168414 51.5569
-0.0287466 2.82344e-22 0.00168414 100.868
-0.0288079 -9.03502e-22 0.000872612 348.977
0.0288079 -6.32451e-21 0.000872602 307.279
-0.0287473 7.52918e-22 0.0024227 101.408
0.0287474 0 0.0024227 50.4477
-0.0287216 -1.12938e-21 0.00316753 189.256
0.0287216 3.38813e-21 0.00316754 112.535
0.0285807 0 0.0045608 1943.97
-0.0285808 1.69407e-21 0.00456081 1945.42
-0.0287115 -2.25875e-21 0.0038813 833.64
0.0287115 0 0.00388131 766.618
0.0286395 0 0.00458294 1963.59
-0.0286395 0 0.00458293 1965.04
0.0286465 -3.38813e-21 0.00457502 1950.88
-0.0286466 0 0.00457502 1952.35
-0.0290133 -1.35525e-20 1.86899e-16 795.008
0.0290135 0 1.94633e-16 790.561
-0.0286559 -3.38813e-21 0.00458911 1913.93
0.0286559 0 0.00458914 1912.4
-0.0286628 3.38813e-21 0.00455184 1870.46
0.0286628 3.38813e-21 0.00455182 1864.72
-0.0290304 -3.38813e-21 8.06872e-05 771.775
0.0290304 -1.69407e-21 8.001e-05 767.454
-0.0290331 -3.95282e-21 0.000330818 727.685
0.0290331 -2.82344e-21 0.000330829 720.573
0.0290394 0 1.6645e-16 794.938
-0.0290395 -1.01644e-20 1.59042e-16 799.477
-0.0286826 3.38813e-21 0.00457911 1902.34
0.0286827 0 0.00457912 1900.78
-0.0286988 -1.69407e-21 0.00460526 1889.86
0.0286989 0 0.00460531 1888.25
-0.0290348 2.71051e-20 0.00281401 105.739
0.0290349 -2.71051e-20 0.00281402 47.8205
-0.029155 0 0.00144553 113.075
0.029155 2.71051e-20 0.00144554 57.3416
-0.0291572 2.71051e-20 0.00194761 76.4066
0.0291573 2.71051e-20 0.00194759 38.2417
-0.0289114 1.74247e-20 0.00431134 1301.45
0.0289115 -7.7443e-21 0.00431137 1274.21
-0.0290289 0 0.00350519 203.139
0.0290289 -2.71051e-20 0.0035052 130.628
-0.0293191 1.35525e-20 1.46697e-16 952.681
0.0293192 0 1.49488e-16 947.258
0.0293261 -8.04681e-21 0.00083995 336.003
-0.0293263 -5.0822e-21 0.000839937 395.699
-0.029346 -1.3129e-20 0.000822089 403.439
0.0293461 -4.23516e-22 0.000821754 344.179
-0.0293459 0 0.000843819 396.549
0.029346 3.09167e-20 0.000843906 336.177
-0.0293596 8.47033e-22 0.000839783 396.869
0.02936 4.65868e-21 0.000839793 336.765
-0.029022 1.35525e-20 0.00472698 1704.23
0.029022 1.35525e-20 0.00472701 1702.45
-0.0293681 0 0.00167839 95.1444
0.0293682 1.35525e-20 0.00167839 49.0961
-0.0293492 7.90564e-22 0.00243747 87.9566
0.0293492 4.51751e-22 0.00243747 40.6357
-0.0291129 0 0.00461943 1674.53
0.029113 -2.71051e-20 0.00461946 1672.82
-0.0293461 1.12938e-21 0.00316205 143.413
0.0293461 0 0.00316205 77.0135
0.0295421 -1.01644e-20 1.67699e-17 741.905
-0.0295423 3.38813e-21 1.51529e-17 747.704
-0.0293068 2.25875e-21 0.00388259 521.572
0.0293068 0 0.00388261 446.735
-0.0295827 0 0.00139945 111.524
0.0295827 0 0.00139947 62.8794
-0.029224 -1.35525e-20 0.00480306 1562.35
0.0292241 -1.35525e-20 0.00480312 1560.69
-0.0296229 2.25875e-21 0.000312396 717.794
0.0296231 2.25875e-21 0.000312322 709.677
-0.0295757 -5.42101e-20 0.00193306 75.0495
0.0295757 -2.71051e-20 0.00193306 36.0714
-0.0296592 -6.77626e-21 -6.00186e-17 727.01
0.0296598 6.77626e-21 -5.89086e-17 720.555
-0.0293408 3.16226e-21 0.00435957 1150.92
0.0293409 4.06576e-21 0.00435961 1108.79
-0.0296739 5.42101e-20 0.00278626 85.1417
0.0296739 -2.71051e-20 0.00278626 37.754
-0.0294232 6.77626e-21 0.0048781 1190.41
0.0294234 2.03288e-20 0.00487815 1188.59
-0.029651 -2.71051e-20 0.00350308 174.519
0.029651 2.71051e-20 0.00350309 87.533
-0.0298815 0 -1.91561e-16 803.153
0.0298818 1.35525e-20 -1.91567e-16 795.012
-0.0295072 1.35525e-20 0.00479828 1100.99
0.0295074 -6.77626e-21 0.00479831 1099.12
-0.0295244 -1.35525e-20 0.0049162 1164.42
0.0295246 6.77626e-21 0.00491626 1162.59
-0.0295732 0 0.00467621 1308.75
0.0295734 4.51751e-21 0.00467625 1306.95
-0.0296719 0 0.00412281 378.478
0.0296719 0 0.00412282 288.916
-0.0299617 7.52918e-22 0.000815835 385.605
0.0299618 -3.76459e-21 0.000815876 341.715
-0.0299758 0 0.000107543 649.04
0.0299759 -2.71051e-20 0.000107299 640.265
-0.0299859 -1.35525e-20 2.26926e-16 649.293
0.029986 -2.71051e-20 2.28937e-16 640.51
-0.0300036 1.12938e-21 0.00165375 95.7295
0.0300036 3.76459e-22 0.00165376 51.3643
0.0300698 2.71051e-20 -5.95075e-16 570.119
-0.0300699 2.71051e-20 -5.95895e-16 578.55
-0.0299914 0 0.00233928 79.0554
0.0299915 0 0.00233928 35.2469
-0.0297028 -2.71051e-20 0.00498341 1431.59
0.029703 0 0.00498346 1429.83
-0.0299738 -2.25875e-21 0.00312121 113.246
0.0299738 1.807e-21 0.00312121 53.878
0.030181 -1.35525e-20 0.000217163 479.887
-0.0301813 0 0.000217574 488.809
-0.0299672 -3.38813e-21 0.00382607 252.383
0.0299673 -1.12938e-21 0.00382608 161.003
0.0302278 0 -3.28141e-16 470.165
-0.0302282 0 -3.2848e-16 479.083
-0.0298589 -2.03288e-20 0.00504218 1524.81
0.0298591 6.77626e-21 0.00504224 1523.1
-0.0299001 0 0.00489103 1573.24
0.0299002 1.35525e-20 0.00489108 1571.54
-0.0299789 2.25875e-21 0.00451145 1065.48
0.029979 0 0.00451148 1014.77
-0.0302909 2.71051e-20 0.00277109 76.2482
0.0302909 0 0.0027711 31.6572
-0.0304299 0 0.000466563 380.269
0.0304299 -2.71051e-20 0.000466598 370.073
-0.0304045 0 0.00137206 115.084
0.0304046 2.71051e-20 0.00137208 68.1581
-0.0304135 2.71051e-20 0.00193181 75.9887
0.0304135 2.71051e-20 0.00193181 34.6798
-0.0302817 2.71051e-20 0.00348658 122.267
0.0302818 2.71051e-20 0.00348658 60.6694
-0.0300763 -3.38813e-21 0.00512403 1859.59
0.0300764 0 0.00512407 1857.81
-0.0300986 0 0.00513244 1865.17
0.0300987 0 0.00513249 1863.4
-0.0301131 1.69407e-21 0.00510514 1861.75
0.0301132 0 0.00510518 1859.99
-0.0302754 2.71051e-20 0.00415049 313.225
0.0302754 0 0.00415051 188.053
-0.0301558 0 0.00515398 1848.13
0.0301559 -5.0822e-21 0.00515403 1846.29
-0.0306238 6.77626e-21 0.000140979 363.737
0.0306241 6.77626e-21 0.000140662 353.11
-0.0306244 -6.77626e-21 -1.79493e-16 365.919
0.0306248 0 -1.79033e-16 355.372
-0.0306423 0 0.00151867 116.063
0.0306423 -2.90411e-21 0.00151863 76.6297
-0.0306825 0 0.000897082 241.163
0.0306825 -6.77626e-21 0.000897119 215.708
0.0306215 0 0.00240218 31.0333
-0.0306215 1.05879e-22 0.00240216 72.8807
-0.0303176 -9.03502e-21 0.00489734 1685.61
0.0303177 0 0.00489738 1671.67
-0.0306274 -1.05879e-21 0.00240029 72.8476
0.0306275 1.37643e-21 0.00240029 31.0235
-0.0307421 -1.35525e-20 1.71584e-17 353.329
0.0307421 0 1.7217e-17 342.599
-0.0306034 -1.12938e-21 0.00312872 93.3099
0.0306034 -1.12938e-21 0.00312872 41.4068
-0.0305867 -1.12938e-21 0.00382867 187.182
0.0305868 0 0.00382868 105.557
0.030858 0 0.000201871 329.233
-0.0308582 1.35525e-20 0.00020222 340.467
-0.0304244 0 0.00525515 1927.33
0.0304245 -6.77626e-21 0.0052552 1925.29
-0.0308404 0 0.00193363 75.7543
0.0308404 2.71051e-20 0.00193363 33.5004
-0.0304578 6.77626e-21 0.00521938 1874.36
0.0304579 -6.77626e-21 0.00521942 1872.32
-0.0305717 -5.42101e-21 0.00453515 752.164
0.0305717 -1.35525e-21 0.00453517 676.011
0.0309075 -6.77626e-21 1.5826e-17 325.947
-0.0309077 1.35525e-20 1.57859e-17 337.209
-0.0308851 0 0.00139414 104.674
0.0308852 0 0.00139415 66.4783
-0.0304977 0 0.00528273 1730.15
0.0304978 0 0.00528278 1727.97
-0.0305279 6.77626e-21 0.00512532 1582.31
0.030528 0 0.00512536 1561.71
-0.0306501 0 0.00495208 1297.17
0.0306502 1.35525e-20 0.00495211 1265.49
-0.0306111 0 0.00523694 1696.43
0.0306112 0 0.00523698 1694.08
-0.0309389 2.71051e-20 0.00275384 66.5822
0.0309389 0 0.00275384 27.3229
-0.0309045 -5.42101e-20 0.00347726 106.957
0.0309046 2.71051e-20 0.00347727 45.3295
-0.0311021 -4.51751e-21 0.000526104 306.989
0.0311022 -4.51751e-21 0.000526118 293.244
-0.031117 -1.35525e-20 1.03361e-17 324.178
0.0311171 2.71051e-20 1.03377e-17 312.469
-0.0306846 3.38813e-21 0.00535314 1650.19
0.0306847 6.77626e-21 0.00535319 1647.57
-0.030891 0 0.00416128 196.394
0.030891 -2.71051e-20 0.0041613 120.512
-0.0308345 0 0.00486794 890.195
0.0308346 0 0.00486797 812.854
-0.0312314 -2.82344e-21 0.00167876 86.9446
0.0312314 0 0.00167877 47.4538
-0.030812 -2.71051e-20 0.00540114 1588.92
0.0308122 0 0.00540119 1586.11
-0.0308871 0 0.00520301 1497.04
0.0308872 2.71051e-21 0.00520305 1494.44
-0.0313262 0 1.23102e-17 328.961
0.0313263 0 1.22962e-17 317.09
-0.0312895 -1.12938e-21 0.00228791 69.9586