# omega  POINT_DATA 14232
# x  y  z  omega
0 -0.0115468 6.39774e-08 1225.08
0 0.0115468 6.39774e-08 1224.75
0 -0.0115468 0.000159933 1228.92
6.77626e-21 0.0115468 0.000159966 1228.59
1.35525e-20 -0.0115468 0.000505149 1408.7
0 0.0115468 0.000505252 1408.37
0 -0.0115468 0.000661354 1594.96
0 0.0115468 0.00066149 1594.66
-6.77626e-21 -0.0115468 0.000824682 1791.35
0 0.0115468 0.000824823 1791.05
6.77626e-21 -0.0115467 0.00119323 2063.7
-6.77626e-21 0.0115467 0.00119337 2063.4
0 0.0116176 9.48413e-05 1208.6
0 -0.0116176 9.48284e-05 1208.91
0 0.0116191 6.70002e-08 1208.91
0 -0.0116191 6.70007e-08 1209.23
0 -0.0115467 0.00135636 2165.25
0 0.0115467 0.0013565 2164.98
0 -0.0116144 0.000567788 1454.58
0 0.0116144 0.000567904 1454.28
-1.35525e-20 -0.0116106 0.000748384 1683.83
0 0.0116106 0.000748514 1683.54
0 -0.0115467 0.00152899 2308.17
6.77626e-21 0.0115467 0.00152911 2307.94
-1.35525e-20 -0.0116105 0.00124699 2052.42
1.35525e-20 0.0116105 0.00124712 2052.12
0 -0.0116054 0.00142615 2204.31
-1.35525e-20 0.0116054 0.00142627 2204.06
6.77626e-21 -0.0115467 0.00190899 2029.11
0 0.0115467 0.00190902 2028.82
1.35525e-20 0.0117276 6.6334e-08 1116.51
-1.35525e-20 -0.0117276 6.63364e-08 1116.88
-6.77626e-21 -0.0117103 0.000650495 1309.74
2.03288e-20 0.0117103 0.000650588 1307.51
-1.35525e-20 0.0115467 0.002087 1518.11
1.35525e-20 -0.0115467 0.002087 1518.45
0 -0.011609 0.00193563 1819.13
0 0.011609 0.00193565 1818.82
-6.77626e-21 -0.0117025 0.00130867 1656.36
6.77626e-21 0.0117025 0.00130876 1656.66
0 0.0116004 0.00211165 1320.76
-1.35525e-20 -0.0116004 0.00211165 1321.16
0 0.0116425 0.00204727 1361.36
-1.35525e-20 -0.0116425 0.00204727 1361.76
1.35525e-20 0.0116584 0.00213829 1403.14
-1.35525e-20 -0.0116585 0.00213829 1403.57
-1.35525e-20 -0.0117067 0.00192898 1327.91
-1.35525e-20 0.0117067 0.00192897 1324.43
4.51751e-21 -0.0118537 0.000959072 1497.34
4.51751e-21 0.0118537 0.000959138 1496.44
-4.51751e-21 0.0119178 0.000318651 1050.5
-1.12938e-20 -0.0119179 0.00031862 1051.46
1.35525e-20 0.011932 7.04551e-08 1045.54
-1.35525e-20 -0.011932 7.04586e-08 1045.89
2.71051e-21 -0.0118325 0.00163065 1790.82
0 0.0118325 0.00163068 1788.58
-1.35525e-20 -0.0118724 0.00142181 1417.38
0 0.0118724 0.00142183 1417.87
-1.35525e-20 0.0117615 0.0021856 1169.89
0 -0.0117616 0.0021856 1170.37
-5.42101e-20 0.0118132 0.00220929 1298.4
-2.71051e-20 -0.0118132 0.00220929 1298.85
-3.76459e-22 0.0118989 0.00195768 1168.66
-2.63521e-21 -0.0118989 0.00195769 1169.45
0 -0.0119718 0.0015384 1069.31
6.77626e-21 0.0119718 0.0015384 1102.64
0 0.0120982 7.96187e-08 972.159
0 -0.0120983 7.96213e-08 972.696
4.06576e-21 -0.0120695 0.00085261 836.164
-2.71051e-21 0.0120694 0.000852623 863.273
0 0.0122081 0.000167123 913.203
-2.71051e-20 -0.0122082 0.000167145 913.78
0 0.012221 7.14632e-08 913.139
0 -0.012221 7.14627e-08 913.715
2.71051e-21 0.0121684 0.00122551 658.547
-1.95759e-21 -0.0121684 0.00122551 652.656
-2.71051e-20 0.012025 0.00230651 1802.98
6.77626e-21 -0.0120251 0.00230652 1803.53
3.22679e-21 0.0122349 0.000642359 720.511
1.29072e-21 -0.0122349 0.000642359 724.716
-1.01644e-20 0.0120594 0.00232227 1833.63
0 -0.0120594 0.00232227 1834.13
0 0.0122855 6.71739e-08 907.595
2.71051e-20 -0.0122856 6.71709e-08 908.297
1.97641e-21 0.0122109 0.00173628 875.917
-2.82344e-22 -0.0122109 0.0017363 882.066
-5.42101e-21 0.0121468 0.002146 1735.89
8.13152e-21 -0.0121468 0.00214601 1736.36
-6.77626e-21 0.0122263 0.00229071 1916.97
6.77626e-21 -0.0122264 0.00229075 1917.45
0 0.0124605 5.58013e-08 887.065
0 -0.0124606 5.57971e-08 887.893
0 0.0125121 0.000225139 867.345
0 -0.0125121 0.00022516 868.245
0 0.0122889 0.00242764 2001.59
0 -0.012289 0.00242766 2002.02
0 0.0125901 0.000921782 204.001
-2.71051e-20 -0.0125902 0.000921784 234.643
-1.35525e-20 0.012401 0.00241701 2276.14
0 -0.0124011 0.00241703 2276.33
-6.77626e-21 0.0123956 0.00247648 2359.86
-6.77626e-21 -0.0123956 0.00247647 2360.01
-3.38813e-21 0.0124525 0.00218686 1571.6
-1.69407e-21 -0.0124525 0.00218688 1578.43
0 0.0125382 0.00209403 929.97
2.71051e-20 -0.0125382 0.00209406 946.438
1.0842e-20 0.0126447 0.00162116 302.589
2.71051e-20 -0.0126447 0.00162119 332.754
1.35525e-20 -0.012772 0.000141272 845.657
0 0.0127721 0.000141226 844.456
1.35525e-20 -0.0127747 1.51153e-08 845.794
1.35525e-20 0.0127748 1.5111e-08 844.594
-2.71051e-21 -0.0126131 0.00241882 2395.09
-1.35525e-20 0.0126131 0.00241885 2394.95
1.35525e-20 -0.0125862 0.00256375 2570.05
-2.71051e-20 0.0125863 0.00256377 2569.86
0 -0.0129279 4.53095e-09 845.968
0 0.0129279 4.5309e-09 844.576
9.03502e-21 0.0129181 0.000605376 518.812
-1.88079e-37 -0.0129182 0.000605392 533.294
-2.25875e-21 0.0129069 0.00122274 167.354
0 -0.012907 0.00122277 198.454
0 -0.0127463 0.00263701 1908.07
-2.71051e-20 0.0127464 0.00263706 1907.52
-9.03502e-21 0.0128745 0.00194112 461.049
-4.51751e-21 -0.0128746 0.00194114 487.662
0 0.0130689 3.79654e-09 858.17
0 -0.0130689 3.79638e-09 859.677
2.71051e-20 0.0130684 0.000129725 857.912
-1.35525e-20 -0.0130685 0.000129752 859.416
-4.51751e-21 0.0129105 0.00229689 1350.34
-2.25875e-21 -0.0129106 0.00229692 1361.74
-8.13152e-21 0.0131166 0.0016405 245.167
8.13152e-21 -0.0131166 0.00164056 274.379
0 0.013248 0.000302964 872.072
2.71051e-20 -0.013248 0.000302967 873.772
-6.77626e-21 -0.0129823 0.00274604 1655.48
2.71051e-20 0.0129824 0.00274607 1654.49
0 0.0132464 0.000911472 152.108
-2.71051e-20 -0.0132464 0.000911494 177.236
9.03502e-21 0.0131304 0.00262467 1650.01
0 -0.0131304 0.00262473 1651
2.71051e-20 0.0132415 0.00211425 286.102
0 -0.0132416 0.0021143 311.985
1.35525e-20 0.0131185 0.00280836 1559.28
0 -0.0131186 0.00280842 1560.33
-1.35525e-20 -0.013437 2.08369e-09 889.692
-1.35525e-20 0.013437 2.0834e-09 887.875
0 -0.0134397 0.000120667 889.7
-1.35525e-20 0.0134397 0.000120639 887.882
-1.35525e-20 0.0135679 1.40563e-09 898.208
0 -0.0135679 1.40572e-09 900.11
0 0.0135763 0.00059667 529.157
0 -0.0135763 0.000596688 542.8
9.03502e-21 0.0135724 0.00122413 121.224
2.25875e-21 -0.0135724 0.00122416 150.39
2.71051e-20 0.0133498 0.00291517 1383.74
-2.71051e-20 -0.0133499 0.00291524 1384.92
6.77626e-21 0.0134778 0.00238384 832.609
-6.77626e-21 -0.013478 0.00238391 849.654
-4.51751e-21 0.0135676 0.00185527 160.492
-6.77626e-21 -0.0135677 0.00185532 192.245
1.35525e-20 0.0136939 1.2223e-09 908.254
0 -0.013694 1.22233e-09 910.225
0 0.0136952 0.000110039 908.019
-1.35525e-20 -0.0136952 0.000110069 909.988
2.03288e-20 -0.0135431 0.00300575 879.123
3.72694e-20 0.0135431 0.00300574 877.304
0 -0.0139035 0.000294194 926.898
0 0.0139035 0.000294183 924.805
1.69407e-20 0.0135877 0.0030267 854.542
-1.69407e-20 -0.013588 0.00302686 856.216
0 0.0139156 0.000900746 150.07
0 -0.0139156 0.000900767 176.187
-4.51751e-21 0.0136798 0.00276423 945.133
-4.51751e-21 -0.0136798 0.00276433 948.394
2.71051e-20 0.0139125 0.00154327 75.0915
0 -0.0139126 0.00154331 105.701
-2.71051e-20 0.0138987 0.00219587 165.072
-2.71051e-20 -0.0138988 0.00219593 201.372
0 -0.0141099 3.98855e-10 952.244
-1.35525e-20 0.01411 3.98723e-10 950.076
1.35525e-20 -0.0141138 9.87932e-05 952.308
1.35525e-20 0.0141138 9.87563e-05 950.139
-1.35525e-20 0.0138003 0.00312616 1143.66
-1.35525e-20 -0.0138004 0.00312625 1144.98
0 -0.0142228 2.30732e-10 975.973
0 0.0142228 2.30673e-10 973.781
-2.25875e-21 0.0142415 0.000580992 566.925
-4.51751e-21 -0.0142415 0.000581005 579.063
-1.12938e-21 0.0142522 0.0012064 112.87
1.12938e-21 -0.0142522 0.00120643 141.219
-1.35525e-20 0.0143301 2.07135e-10 984.301
0 -0.0143301 2.07176e-10 986.532
0 0.0143313 8.88715e-05 984.075
0 -0.0143313 8.89061e-05 986.305
-6.77626e-21 0.013971 0.00320516 1156.94
-1.35525e-20 -0.0139711 0.00320521 1158.29
2.25875e-21 0.0142439 0.0018749 100.032
-1.12938e-21 -0.014244 0.00187495 137.457
0 0.0140732 0.00302489 1203.69
-2.71051e-21 -0.0140733 0.003025 1205.02
9.03502e-22 0.0141848 0.00260879 620.276
-9.03502e-22 -0.014185 0.00260885 652.824
6.77626e-21 0.0140966 0.0032633 1324.7
0 -0.014097 0.00326346 1326.3
0 0.0142071 0.00316519 1429.82
-1.35525e-20 -0.0142074 0.00316541 1431.27
0 -0.0145609 0.000281732 1011.98
-2.71051e-20 0.0145609 0.000281727 1009.68
0 0.0145815 0.000874352 161.983
0 -0.0145815 0.000874372 180.527
-1.35525e-20 0.0142355 0.00332755 1666.8
2.71051e-20 -0.0142357 0.00332766 1668.03
0 0.0145904 0.00151948 62.7264
2.71051e-20 -0.0145905 0.00151951 100.698
0 0.0145713 0.00221296 93.1196
0 -0.0145714 0.00221301 136.542
0 0.014357 0.00338361 1735.17
1.35525e-20 -0.0143572 0.00338367 1736.41
4.51751e-21 0.0144398 0.00302856 1232.33
-6.02335e-21 -0.0144401 0.00302864 1262.29
-1.35525e-20 0.0143822 0.00330545 1732.49
-1.35525e-20 -0.0143823 0.00330556 1733.72
-1.35525e-20 -0.0147852 4.2202e-11 1058.43
0 0.0147853 4.21645e-11 1056.09
-1.35525e-20 -0.0147878 7.95663e-05 1058.46
-1.35525e-20 0.0147879 7.95165e-05 1056.13
-1.35525e-20 -0.0148815 2.04947e-11 1094.58
1.35525e-20 0.0148815 2.04768e-11 1092.21
2.71051e-20 0.0146213 0.00280153 324.347
0 -0.0146214 0.00280159 416.316
-2.25875e-21 -0.0149014 0.000554709 650.927
-4.51751e-21 0.0149014 0.000554705 632.062
0 0.0145853 0.00326151 2023.97
-2.71051e-20 -0.0145855 0.00326159 2025.21
1.12938e-21 0.014922 0.00116916 116.107
-1.12938e-21 -0.014922 0.00116918 154.778
0 0.0149733 1.85798e-11 1102.26
-1.35525e-20 -0.0149733 1.85939e-11 1104.64
0 0.0149737 7.37377e-05 1102.02
0 -0.0149738 7.37977e-05 1104.41
2.71051e-20 0.0146077 0.00349933 1678.21
1.35525e-20 -0.014608 0.00349943 1679.56
-1.12938e-21 0.0149197 0.00184904 68.1155
0 -0.0149198 0.00184907 111.878
0 0.0146661 0.00343238 1668.13
0 -0.0146663 0.00343252 1669.49
0 0.0149194 0.00252068 168.029
-1.12938e-21 -0.0149195 0.00252073 233.024
2.71051e-20 0.0147321 0.00355666 1559.36
0 -0.0147322 0.00355672 1560.83
-2.25875e-21 0.0148879 0.00309611 948.382
0 -0.0148881 0.00309617 988.52
0 -0.0152102 0.000264579 1149.3
2.71051e-20 0.0152103 0.00026457 1146.91
0 -0.0152372 0.000832817 232.004
2.71051e-20 0.0152372 0.000832812 179.714
0 0.0148481 0.0036099 1178.12
0 -0.0148482 0.00360994 1180.03
0 0.0148927 0.003477 1285.11
1.35525e-20 -0.0148928 0.00347709 1286.9
-2.71051e-20 0.0152552 0.00147323 57.91
2.71051e-20 -0.0152552 0.00147325 104.024
2.71051e-20 0.0152472 0.00216851 58.6516
5.42101e-20 -0.0152472 0.00216853 106.261
0 -0.0154526 2.80546e-12 1266.21
0 0.0154528 2.79932e-12 1263.89
0 -0.0154539 6.4364e-05 1266.33
0 0.0154541 6.42863e-05 1264.01
-2.71051e-20 0.0150217 0.00368977 1050.8
2.71051e-20 -0.0150218 0.00368985 1052.69
0 0.0150964 0.00340472 1037.5
2.71051e-20 -0.0150966 0.00340477 1039.39
0 0.0152384 0.002848 176.296
0 -0.0152385 0.00284804 251.014
0 -0.0155344 1.12584e-12 1329.97
0 0.0155345 1.12356e-12 1327.52
2.71051e-20 0.015136 0.00358108 1113.83
0 -0.0151361 0.00358119 1115.65
0 -0.0155483 0.000512811 800.62
0 0.0155483 0.000512813 767.233
0 -0.0156089 5.68786e-05 1357.49
6.77626e-21 0.0156089 5.68083e-05 1355.08
0 -0.0156116 1.05395e-12 1354.51
6.77626e-21 0.0156116 1.052e-12 1352.09
1.35525e-20 0.0151553 0.00375102 1261.67
-1.35525e-20 -0.0151554 0.00375107 1263.31
-1.12938e-21 -0.0156 0.0011003 194.116
0 0.0156 0.0011003 134.976
0 0.0155873 0.00178843 54.8679
-1.12938e-21 -0.0155873 0.00178845 103.824
0 0.0152736 0.00381163 1266.57
-1.35525e-20 -0.0152737 0.00381166 1268.22
1.35525e-20 0.015311 0.00369351 1276.46
-4.06576e-20 -0.0153111 0.00369356 1278.11
3.38813e-21 0.0155683 0.00250748 93.5068
2.25875e-21 -0.0155684 0.00250751 151
0 -0.015842 0.000233949 1472.58
-5.42101e-20 0.0158421 0.000233943 1470.24
-4.51751e-22 0.0155232 0.00325344 680.818
1.35525e-21 -0.0155233 0.00325348 731.597
0 -0.0158871 0.000762453 292.892
2.71051e-20 0.0158872 0.000762453 216.07
-1.35525e-20 0.0154852 0.00363865 1417.55
-1.35525e-20 -0.0154853 0.00363869 1419.1
6.77626e-21 0.0154927 0.00391521 1586.07
0 -0.0154927 0.00391527 1587.58
2.71051e-20 -0.0159268 0.00138123 122.984
0 0.0159268 0.00138123 60.4144
0 0.0155593 0.00385214 1652.14
1.35525e-20 -0.0155593 0.00385222 1653.6
2.71051e-20 0.0158993 0.00212235 43.2679
2.71051e-20 -0.0158994 0.00212237 84.1274
0 0.0155754 0.0039559 1810.52
0 -0.0155754 0.00395594 1811.82
0 0.0158855 0.00284661 91.5381
0 -0.0158856 0.00284663 156.67
6.77626e-21 0.0156482 0.00400349 1832.18
1.35525e-20 -0.0156482 0.00400353 1833.51
5.64689e-22 -0.0161504 0.000464681 815.477
-3.95282e-21 0.0161505 0.000464663 777.722
-1.35525e-20 0.0156709 0.00394832 1836.47
0 -0.0156709 0.00394837 1837.78
2.25875e-21 0.0157655 0.00368363 1339.97
0 -0.0157655 0.00368367 1382.1
4.23516e-21 0.0162446 7.65639e-14 1141.39
0 -0.0162451 7.54652e-14 1145.22
8.47033e-22 -0.0162671 1.41525e-05 1131.39
0 -0.0162672 1.73772e-06 1141.94
7.19978e-21 0.0162672 1.45818e-05 1126.03
0 0.0162715 1.44085e-06 1137.94
0 0.0159384 0.00346448 346.502
2.71051e-20 -0.0159385 0.00346452 471.213
-2.25875e-22 -0.0162375 0.00174474 105.848
3.95282e-22 0.0162375 0.00174473 55.7074
2.25875e-21 -0.0163344 0.000944398 304.279
-6.77626e-21 0.0163345 0.00094441 244.372
0 0.015896 0.00392573 2210.16
-2.71051e-20 -0.0158961 0.00392576 2211.31
-8.87368e-22 -0.0162554 0.00244443 118.994
5.64689e-22 0.0162554 0.0024444 64.4156
-1.35525e-20 -0.0159402 0.00419462 1860.68
0 0.0159403 0.00419464 1859.43
5.64689e-22 0.0162141 0.0031706 171.277
-5.64689e-22 -0.0162141 0.00317063 256.401
0 -0.0159991 0.00414939 1868.75
0 0.0159991 0.00414944 1867.52
1.35525e-20 -0.016026 0.00425069 1835.63
0 0.0160261 0.00425068 1834.45
9.41148e-23 -0.0166367 0.000352811 699.772
-1.8823e-22 0.0166369 0.00035298 689.961
0 0.0160816 0.0042869 1922.82
-1.35525e-20 -0.0160816 0.00428693 1923.99
0 0.016105 0.00423208 1920.75
1.35525e-20 -0.016105 0.00423207 1921.92
0 0.016226 0.00384224 1173.19
1.90582e-21 -0.0162262 0.00384229 1222.11
-6.35275e-22 0.0162339 0.00382556 1140.26
0 -0.016234 0.00382567 1190.51
1.05879e-22 0.0162401 0.00384589 1170.1
5.29396e-22 -0.0162402 0.00384591 1219.05
-6.77626e-21 -0.0167083 1.01691e-14 823.321
-6.77626e-21 0.0167085 1.01518e-14 816.953
2.71051e-20 -0.0166691 0.00146462 101.354
-2.71051e-20 0.0166691 0.0014646 56.2037
-2.71051e-20 0.0165265 0.00282081 55.218
2.71051e-20 -0.0165265 0.00282082 112.834
-1.35525e-20 0.0161983 0.00436312 1986.84
6.77626e-21 -0.0161984 0.00436321 1987.98
0 0.0166645 0.00194624 38.9754
0 -0.0166645 0.00194624 84.9399
0 0.0165187 0.00350446 168.989
0 -0.0165187 0.00350448 257.984
1.35525e-20 -0.0169424 1.10016e-15 875.808
-1.35525e-20 0.0169426 1.10457e-15 867.758
0 0.0163499 0.0044621 1856.41
1.35525e-20 -0.0163499 0.00446215 1857.48
-3.10579e-21 0.0169272 0.000866318 314.161
2.82344e-22 -0.0169272 0.000866359 379.213
0 -0.0168736 0.00168495 93.7734
1.35525e-20 0.0168736 0.00168495 48.939
0 0.0164548 0.00427999 1670.16
0 -0.0164549 0.00428004 1674.93
1.41172e-22 0.0168849 0.00243443 41.2414
-4.23516e-22 -0.0168849 0.00243444 92.5019
-6.77626e-21 -0.0164962 0.00455767 1931.67
6.77626e-21 0.0164963 0.00455763 1930.45
5.64689e-22 0.0168359 0.00316003 86.3334
0 -0.0168359 0.00316005 157.94
2.03288e-20 -0.0171338 1.74503e-16 667.646
0 0.0171342 1.75422e-16 657.234
-5.42101e-20 -0.0170775 0.00142438 103.45
-2.71051e-20 0.0170775 0.00142436 63.0383
0 -0.0171371 0.000271939 657.727
-8.13152e-21 0.0171374 0.000272002 647.096
-2.71051e-20 -0.0170666 0.00192551 82.7794
-2.71051e-20 0.0170666 0.00192552 35.8319
0 0.0167863 0.00388665 554.556
1.12938e-21 -0.0167864 0.00388666 622.753
0 0.0166207 0.00463877 2063.28
1.35525e-20 -0.0166207 0.00463882 2064.57
-2.71051e-20 0.0166524 0.00459992 2028.6
1.35525e-20 -0.0166524 0.00459996 2029.9
0 0.0166794 0.00467712 1805.7
1.35525e-20 -0.0166795 0.00467717 1807.16
4.70574e-23 0.0168452 0.00433528 1269.26
-1.8823e-22 -0.0168452 0.00433533 1303.17
0 0.0171764 0.00277493 35.833
2.71051e-20 -0.0171764 0.00277494 87.4585
0 0.0174301 3.02821e-16 591.804
-1.35525e-20 -0.0174308 3.00143e-16 602.664
0 0.0168042 0.00464355 1610.81
1.35525e-20 -0.0168042 0.0046436 1612.4
-6.77626e-21 0.0167886 0.00474831 1536.11
-1.35525e-20 -0.0167887 0.00474841 1537.78
-6.77626e-21 0.017449 0.000139075 583.694
0 -0.0174496 0.000138384 594.624
0 0.0171294 0.00350658 82.436
-5.42101e-20 -0.0171294 0.00350658 169.513
6.77626e-21 0.0175668 -2.95376e-17 609.63
-6.77626e-21 -0.0175669 -2.94894e-17 619.974
-1.55289e-21 -0.0175583 0.000896637 363.412
8.47033e-22 0.0175583 0.000896566 317.864
4.23516e-22 0.0175189 0.00167533 58.4388
-5.64689e-22 -0.0175189 0.00167527 102.554
0 -0.0176062 4.62633e-05 554.065
0 0.0176064 4.65549e-05 543.191
0 -0.0176089 -8.34911e-18 553.692
-6.77626e-21 0.0176091 -8.34566e-18 542.81
-5.42101e-20 0.0171399 0.00413685 281.882
2.71051e-20 -0.01714 0.00413687 372.067
0 -0.0176343 -4.66438e-18 542.649
6.77626e-21 0.0176347 -4.59267e-18 531.492
2.71051e-20 0.0170445 0.00462908 1580.98
-2.71051e-20 -0.0170446 0.00462915 1582.82
5.64689e-22 0.0175376 0.00228764 34.458
5.64689e-22 -0.0175376 0.00228764 80.6752
1.35525e-20 0.0170023 0.00488776 1353.42
1.35525e-20 -0.0170024 0.00488785 1355.39
0 -0.0176972 4.73616e-05 513.812
0 0.017698 4.76654e-05 501.92
0 -0.0177005 -1.62469e-17 513.875
6.77626e-21 0.0177013 -1.6206e-17 501.983
9.03502e-22 0.0174646 0.00310785 47.2289
1.91994e-21 -0.0174646 0.00310784 107.089
0 0.0171112 0.00481659 1369.25
-1.35525e-20 -0.0171113 0.00481669 1371.2
0 0.0171346 0.00497401 1442.11
1.35525e-20 -0.0171347 0.00497414 1444
-4.51751e-21 0.0174342 0.00383429 138.953
1.12938e-21 -0.0174342 0.0038343 223.478
-2.71051e-20 0.0172171 0.00502787 1443.08
-1.35525e-20 -0.0172173 0.005028 1444.92
1.35525e-20 0.0172554 0.00493142 1437.6
0 -0.0172556 0.00493155 1439.44
-3.76459e-22 0.0174076 0.00453333 874.721
-1.69407e-21 -0.0174076 0.00453337 917.902
-2.71051e-20 0.0177905 0.00276845 28.4111
2.71051e-20 -0.0177905 0.00276845 69.7425
0 0.0177573 0.00348298 46.7173
-2.71051e-20 -0.0177574 0.003483 110.535
-6.77626e-21 0.017378 0.00513278 1528.19
6.77626e-21 -0.0173781 0.00513291 1530.11
0 0.0174497 0.00517959 1494.83
6.77626e-21 -0.0174498 0.00517965 1496.76
0 0.0177264 0.00417356 133.041
-2.71051e-20 -0.0177264 0.00417357 228.431
6.77626e-21 0.0175029 0.00510088 1458.03
0 -0.0175029 0.005101 1459.97
5.42101e-20 -0.0181611 0.00171797 83.9262
0 0.0181612 0.00171798 40.3082
6.77626e-21 -0.0175201 0.0052255 1518.25
1.35525e-20 0.0175201 0.00522553 1516.12
-5.42101e-20 -0.0182822 0.000515621 318.19
0 0.0182823 0.000515628 302.979
1.05879e-22 0.0181327 0.00240414 29.1615
-1.2282e-20 -0.0181332 0.00240535 70.1201
-1.05879e-21 -0.0181316 0.00242435 70.3675
1.05879e-22 0.0181316 0.0024249 29.2496
-3.01167e-21 0.0176138 0.0049468 1278.14
0 -0.0176139 0.00494683 1286.67
0 0.0180947 0.00311468 32.173
0 -0.0180947 0.00311469 78.683
0 0.0180563 0.00382343 68.6703
2.25875e-21 -0.0180564 0.00382344 138.015
0 -0.0177083 0.00534827 1658.43
0 0.0177083 0.00534827 1655.81
0 -0.0177632 0.00528867 1612.93
0 0.0177632 0.00528872 1610.3
-4.51751e-21 0.0179883 0.0045481 396.124
-2.25875e-21 -0.0179884 0.00454809 470.916
2.71051e-20 0.0178024 0.00540967 1373.73
2.71051e-20 -0.0178025 0.0054097 1376.43
2.71051e-20 -0.0184402 0.00274762 62.2682
0 0.0184402 0.00274761 23.3123
2.25875e-21 0.0180053 0.00502464 974.951
-1.807e-21 -0.0180053 0.00502466 1016.65
0 0.0183918 0.00345434 30.654
2.71051e-20 -0.0183918 0.00345433 73.1704
6.77626e-21 0.0179451 0.00550277 1067.29
6.77626e-21 -0.0179453 0.00550285 1070.4
-2.71051e-20 0.0183611 0.00415361 63.4905
0 -0.0183611 0.00415361 138.926
0 0.0188421 7.04156e-05 279.877
-1.35525e-20 -0.0188422 7.03634e-05 296.049
0 0.0188477 1.10464e-18 279.851
0 -0.0188477 1.06275e-18 296.024
1.12938e-21 -0.0188602 0.00112833 189.084
4.51751e-21 0.0188602 0.00112834 158.94
-6.77626e-21 -0.0180592 0.00557717 1057.21
1.35525e-20 0.0180593 0.00557723 1053.86
0 0.0181347 0.00538311 1136.98
-4.51751e-21 -0.0181348 0.00538307 1140.21
-1.35525e-20 -0.018942 6.21258e-19 290.27
-1.35525e-20 0.018942 6.17799e-19 273.905
-1.12938e-21 -0.0188166 0.00228404 69.2503
-4.51751e-21 0.0188167 0.00228404 29.0021
0 0.0183535 0.00480356 209.096
0 -0.0183536 0.00480356 336.687
-5.64689e-22 -0.0187311 0.00307208 63.8307
-1.41172e-22 0.0187311 0.00307209 24.9654
0 -0.0190249 8.52317e-05 285.085
1.35525e-20 0.019025 8.52886e-05 268.408
0 -0.0190315 5.66653e-19 285.013
1.35525e-20 0.0190316 5.63374e-19 268.332
-1.35525e-20 -0.0182205 0.00568238 1240.78
-1.35525e-20 0.0182205 0.00568238 1237.43
-4.5881e-22 0.0187398 0.00374577 39.9504
-1.76465e-22 -0.0187398 0.00374577 90.6695
-1.12938e-21 0.0186713 0.00447942 102.977
-1.12938e-21 -0.0186713 0.00447942 187.554
-1.35525e-20 0.0183608 0.00577389 1189.95
6.77626e-21 -0.0183608 0.00577392 1193.41
1.35525e-20 0.018471 0.00561106 1256.15
1.6263e-20 -0.018471 0.00561103 1259.52
3.61401e-21 -0.0186129 0.00519728 747.28
2.71051e-21 0.0186129 0.00519728 675.797
0 -0.0191646 0.00284903 55.4167
-2.71051e-20 0.0191646 0.00284904 19.9683
-6.77626e-21 -0.0184854 0.00585516 1309.38
1.35525e-20 0.0184855 0.00585524 1306.07
2.71051e-20 0.0191555 0.0033016 21.7428
-2.71051e-20 -0.0191555 0.00330159 58.02
-2.71051e-20 -0.0190101 0.00412452 85.2305
-2.71051e-20 0.0190101 0.00412452 38.3716
0 -0.0185922 0.00576694 1399.15
0 0.0185922 0.00576709 1395.81
0 -0.0186006 0.00593031 1651.85
1.35525e-20 0.0186007 0.00593035 1648.35
0 -0.0195235 0.000571337 262.804
0 0.0195235 0.000571339 245.159
-5.42101e-20 -0.0194631 0.0017685 83.6965
0 0.0194631 0.0017685 38.3474
1.69407e-21 -0.0194127 0.0024132 63.7312
0 0.0194127 0.00241321 25.6248
0 -0.0189749 0.00481043 178.292
-2.71051e-20 0.0189749 0.00481044 94.4937
0 -0.0193686 0.00306998 55.3151
0 0.0193686 0.00306998 19.7958
-4.51751e-21 -0.0188275 0.00563325 1231.41
1.50584e-21 0.0188275 0.00563327 1178.15
2.03288e-20 0.0187165 0.00600599 1554.16
-6.77626e-21 -0.0187166 0.00600601 1557.98
1.35525e-20 0.018758 0.00590207 1576.64
0 -0.0187581 0.00590201 1580.36
-1.27055e-21 0.0193727 0.00376105 26.5292
8.47033e-22 -0.0193727 0.00376105 65.0947
-2.71051e-20 -0.0190128 0.00540896 479.005
-2.71051e-20 0.0190128 0.00540898 314.929
0 -0.0195979 0.00284199 53.1808
0 0.0195979 0.00284199 18.6049
-2.25875e-21 -0.0193152 0.00445137 106.709
-2.25875e-21 0.0193152 0.00445138 51.7769
0 -0.0189326 0.00587663 1769.72
0 0.0189326 0.00587667 1766.12
6.77626e-21 -0.0188663 0.00610385 1530.13
-2.71051e-20 0.0188665 0.006104 1526.09
5.42101e-20 -0.0195614 0.00328798 54.2657
2.71051e-20 0.0195614 0.00328799 18.1574
0 -0.0189889 0.00604035 1540.29
-2.71051e-20 0.0189891 0.00604056 1536.29
0 -0.0192967 0.00511377 256.567
2.25875e-21 0.0192967 0.00511379 154.072
0 -0.0190006 0.00619146 1617.33
1.35525e-20 0.0190007 0.00619154 1613.49
0 0.0200621 6.76767e-05 241.998
-1.35525e-20 -0.0200621 6.76484e-05 259.643
-1.35525e-20 0.020064 4.17066e-20 242.023
-1.35525e-20 -0.020064 4.17839e-20 259.667
0 0.0196641 0.0040803 24.7258
0 -0.0196641 0.0040803 59.4367
0 -0.0190835 0.00626078 1595.74
-1.35525e-20 0.0190836 0.0062608 1592.12
0 -0.0191312 0.00616555 1590.6
1.35525e-20 0.0191312 0.00616565 1586.93
-6.77626e-21 0.0201001 0.00115692 141.875
1.12938e-21 -0.0201001 0.00115692 173.255
0 0.020134 -1.86019e-22 241.839
0 -0.020134 -2.64365e-22 259.47
1.8823e-21 -0.0192828 0.00579514 1021.32
1.8823e-21 0.0192828 0.00579515 955.854
0 -0.0196202 0.00477317 102.953
0 0.0196202 0.00477318 49.2591
0 -0.0201991 6.47227e-05 258.276
0 0.0201991 6.47462e-05 240.594
0 -0.020202 -1.30738e-21 258.271
0 0.020202 -1.26102e-21 240.588
-1.12938e-21 0.0200841 0.00236289 27.3222
2.25875e-21 -0.0200841 0.00236289 67.698
2.82344e-22 0.0200029 0.003057 17.423
1.41172e-22 -0.0200038 0.00305581 53.3902
-1.35525e-20 0.0192378 0.00638357 1576.81
-1.35525e-20 -0.0192378 0.00638366 1580.96
0 -0.0195958 0.00544032 241.663
5.42101e-20 0.0195959 0.00544034 139.594
0 -0.0193039 0.00643681 1522.72
0 0.0193041 0.00643685 1518.36
0 0.0200275 0.00361572 19.5459
-5.64689e-22 -0.0200275 0.00361572 54.7106
6.77626e-21 -0.0193634 0.00636556 1489.62
0 0.0193636 0.00636543 1485.19
0 -0.0193735 0.00649738 1557.7
0 0.0193738 0.00649756 1553.29
-1.01644e-21 -0.01996 0.00438812 68.6528
1.01644e-21 0.01996 0.00438813 29.4952
0 -0.0194904 0.00622237 1320.55
0 0.0194905 0.00622241 1304.48
2.25875e-21 -0.019924 0.00509886 134.865
0 0.019924 0.00509886 70.425
0 -0.0195415 0.00664813 1634.5
-1.35525e-20 0.0195417 0.00664818 1629.42
0 0.0202851 0.004065 18.3755
-2.71051e-20 -0.0202851 0.004065 51.4099
-2.25875e-21 -0.0198605 0.00581199 479.477
2.25875e-21 0.0198605 0.00581203 394.862
2.71051e-20 -0.0196164 0.00659812 1606.51
-1.35525e-20 0.0196165 0.00659819 1601.48
0 0.0207232 0.000580771 237.182
5.42101e-20 -0.0207232 0.000580775 254.864
0 -0.0196177 0.00671647 1475.68
0 0.0196179 0.00671645 1470.77
-5.42101e-20 0.020698 0.00176856 39.9391
0 -0.020698 0.00176856 85.7115
2.71051e-20 0.020263 0.00474092 29.3065
2.71051e-20 -0.020263 0.00474092 66.0157
0 -0.0196919 0.00678279 1676.84
0 0.019692 0.0067827 1672.05
0 -0.0197373 0.00670394 1643.67
-2.71051e-20 0.0197374 0.00670392 1638.88
-5.42101e-20 0.0206519 0.00305779 14.8046
-5.42101e-20 -0.0206519 0.0030578 52.6544
-2.42009e-22 -0.0199196 0.00639126 1092.58
0 0.0199197 0.00639124 1029.96
0 -0.0202264 0.00542436 126.851
-2.71051e-20 0.0202264 0.00542437 62.0734
0 0.0206219 0.00374923 15.9732
0 -0.0206228 0.00375111 50.7052
-1.35525e-20 0.0198641 0.00693674 1705.56
1.35525e-20 -0.0198641 0.00693696 1710.59
0 0.0205958 0.00438945 20.3126
0 -0.0205958 0.00438945 54.5454
2.71051e-20 -0.0202261 0.00606702 312.654
2.71051e-20 0.0202262 0.00606702 180.016
-6.77626e-21 -0.019943 0.00700755 1717.12
-6.77626e-21 0.0199432 0.00700748 1712.13
-6.77626e-21 -0.0200066 0.00693929 1679.41
6.77626e-21 0.0200069 0.00693907 1674.35
0 -0.0205707 0.00506212 78.7142
0 0.0205707 0.00506212 35.6584
6.77626e-21 -0.0200222 0.00707844 1743.94
6.77626e-21 0.0200226 0.00707852 1738.98
0 -0.0201294 0.00680929 1502.25
-1.50584e-21 0.0201295 0.00680925 1479.61
0 0.0212882 4.76335e-05 236.518
0 -0.0212882 4.76249e-05 253.757
0 0.0212888 7.24532e-22 236.52
-6.77626e-21 -0.0212888 7.03329e-22 253.76
0 -0.0209335 0.00403737 48.5694
0 0.0209335 0.00403737 14.0463
0 -0.0205488 0.00572803 164.938
0 0.0205489 0.00572802 87.2458
-6.77626e-21 -0.0213388 -2.81944e-23 253.67
0 0.0213388 -2.94246e-23 236.472
1.12938e-21 0.0213183 0.00116254 139.098
-3.38813e-21 -0.0213183 0.00116254 171.194
0 -0.0213864 4.64669e-05 253.555
-6.77626e-21 0.0213864 4.6476e-05 236.366
-6.77626e-21 -0.0213874 -2.6147e-23 253.555
-6.77626e-21 0.0213874 -2.73181e-23 236.366
-2.71051e-20 0.0208978 0.00471075 19.6218
-2.71051e-20 -0.0208978 0.00471075 52.3322
-5.64689e-22 0.0212954 0.00239197 27.2328
0 -0.0212954 0.00239197 70.7457
2.71051e-20 -0.0201947 0.00723274 1793.37
1.35525e-20 0.020195 0.00723268 1788.11
-2.25875e-21 -0.0204968 0.00642258 554.104
-9.03502e-21 0.0204969 0.00642257 449.196
1.35525e-20 -0.0202705 0.00718367 1763.17
-1.35525e-20 0.0202707 0.00718366 1757.98
2.71051e-20 -0.0202683 0.00729857 1613.5
-2.71051e-20 0.0202686 0.00729845 1608.53
-2.71051e-20 -0.0208996 0.00536218 71.2526
-2.71051e-20 0.0208996 0.00536217 32.3259
0 -0.0203418 0.00736426 1816.76
2.71051e-20 0.020342 0.00736407 1812.25
-5.64689e-23 0.0213396 0.00363556 13.7164
-5.64689e-23 -0.0213396 0.00363555 50.7843
1.35525e-20 -0.0203851 0.00728766 1783.01
1.35525e-20 0.0203852 0.00728755 1778.45
-9.41148e-22 -0.0212333 0.00436374 49.8608
3.76459e-22 0.0212333 0.00436374 15.4222
-2.71051e-20 -0.0208556 0.00604666 144.194
2.71051e-20 0.0208557 0.00604664 71.4473
-4.03349e-22 -0.0205628 0.00698693 1196.76
-3.22679e-22 0.0205629 0.00698685 1123.42
-6.77626e-21 0.0205132 0.00751715 1849.33
-6.77626e-21 -0.0205131 0.00751749 1854.11
1.69407e-21 -0.0212965 0.00494792 57.241
-1.12938e-21 0.0212965 0.00494792 22.0312
0 -0.0208609 0.00667564 341.852
2.71051e-20 0.020861 0.00667559 196.171
0 -0.0205926 0.00758859 1857.75
-5.42101e-20 0.0219386 0.000582608 235.688
-5.42101e-20 -0.0219387 0.000582603 252.424
0 0.0205929 0.00758842 1853.06
3.38813e-21 -0.0211971 0.00569346 86.8563
3.38813e-21 0.0211971 0.00569344 40.2664
0 -0.0206536 0.00752336 1817.6
0 0.0206541 0.00752303 1812.81
0 0.0219221 0.0017777 39.4786
0 -0.0219221 0.0017777 88.2981
0 -0.0206735 0.00766098 1896.19
6.77626e-21 0.0206741 0.007661 1891.63
6.02335e-21 -0.0207724 0.00739837 1625.16
-1.05409e-20 0.0207727 0.00739825 1601.47
-2.25875e-21 -0.0211741 0.0063493 182.89
0 0.0211742 0.00634926 96.6073
5.42101e-20 0.0219191 0.00301936 14.004
-5.42101e-20 -0.0219191 0.00301937 55.325
-2.71051e-20 -0.0215298 0.00535617 54.6867
-2.71051e-20 0.0215298 0.00535616 21.2396
0 -0.020847 0.00781616 1964.72
0 0.0208475 0.00781602 1959.81
6.77626e-21 -0.0211304 0.00702575 607.816
-9.03502e-21 0.0211305 0.00702568 491.909
-1.6263e-19 -0.0218756 0.00434045 48.0447
-5.42101e-20 0.0218756 0.00434044 11.0376
0 -0.020919 0.00777037 1934.95
0 0.0209193 0.00777028 1930.12
5.42101e-20 -0.0215089 0.00600419 78.8035
-2.71051e-20 0.021509 0.00600416 36.6864
-2.71051e-20 -0.0209199 0.00788136 1781.93
0 0.0209203 0.00788115 1777.38
3.76459e-22 0.0218609 0.00500982 16.2631
2.63521e-21 -0.0218609 0.00500984 50.5739
4.06576e-20 -0.020991 0.0079449 1995.38
0 0.0209913 0.00794461 1991.25
0 -0.0210297 0.00787225 1961.31
0 0.02103 0.00787205 1957.14
0 -0.0214833 0.00666114 160.64
0 0.0214834 0.00666109 78.0979
1.6134e-22 -0.0211968 0.00757914 1319.83
5.64689e-22 0.0211971 0.00757898 1243.61
-3.38813e-21 0.0225192 3.03446e-05 235.658
0 -0.0225192 3.03421e-05 251.643
0 0.0225194 -1.09695e-24 235.658
-6.77626e-21 -0.0225194 -1.05873e-24 251.643
0 0.0225512 2.58741e-25 235.649
0 -0.0225512 2.58697e-25 251.582
0 0.0218404 0.00566341 23.7452
-5.64689e-22 -0.0218404 0.00566343 59.2425
5.64689e-22 0.0225415 0.00116563 138.525
0 -0.0225415 0.00116563 173.017
0 -0.0225819 2.96728e-05 251.509
-3.38813e-21 0.0225819 2.96744e-05 235.618
-3.38813e-21 -0.0225822 2.38921e-25 251.508
-3.38813e-21 0.0225822 2.39138e-25 235.618
-1.35525e-20 0.0211522 0.00808853 2040.15
-2.03288e-20 -0.0211521 0.00808899 2044.24
1.69407e-21 0.0225347 0.00238614 26.672
-2.25875e-21 -0.0225347 0.00238614 75.3247
-2.71051e-20 -0.0214888 0.00728091 388.748
-2.71051e-20 0.021489 0.00728079 219.481
-2.25875e-21 0.0218198 0.00631442 43.8
4.51751e-21 -0.0218198 0.00631445 94.2521