# U  POINT_DATA 29169
# x  y  z  U_x  U_y  U_z
0.0199996 0 6.27196e-08 0 0 0
-0.0199996 0 6.27196e-08 0 0 0
0.0199996 0 0.000164442 0 0 0
-0.0199996 0 0.00016442 0 0 0
0.0199996 6.77626e-21 0.000494346 0 0 0
-0.0199996 -3.38813e-21 0.000494294 0 0 0
0.0199996 -6.77626e-21 0.000661321 0 0 0
-0.0199996 6.77626e-21 0.000661243 0 0 0
-0.0199996 6.77626e-21 0.000837166 0 0 0
0.0199996 -3.38813e-21 0.000837249 0 0 0
-0.0199996 6.77626e-21 0.0011807 0 0 0
0.0199996 3.38813e-21 0.00118076 0 0 0
-0.0199996 0 0.00135636 0 0 0
0.0199996 -6.77626e-21 0.00135644 0 0 0
-0.0199996 -3.38813e-21 0.00154016 0 0 0
0.0199996 -3.38813e-21 0.00154025 0 0 0
0.0200767 0 6.659e-05 1.10499e-06 -3.74021e-07 -6.40426e-08
-0.0200767 0 6.65901e-05 0.00078798 -0.000452842 -2.77667e-06
-0.0200781 0 6.52655e-08 0 0 0
0.0200781 0 6.52657e-08 0 0 0
0.0200799 -6.77626e-21 0.000590246 1.15031e-06 -3.89363e-07 -6.66695e-08
-0.0200799 0 0.000590204 0.000820284 -0.000471406 -2.8905e-06
-0.0200759 0 0.000728756 0.00156422 -0.000953419 2.63568e-05
0.0200759 6.77626e-21 0.000728801 3.61559e-06 -1.85782e-06 1.36628e-07
-0.0199996 -3.38813e-21 0.00190617 0 0 0
0.0199996 -3.38813e-21 0.00190619 0 0 0
0.0199996 -6.77626e-21 0.002087 0 0 0
-0.0199996 6.77626e-21 0.002087 0 0 0
-0.0200757 -6.77626e-21 0.00127189 0.001561 -0.000951452 2.63024e-05
0.0200757 -6.77626e-21 0.00127193 3.60833e-06 -1.85409e-06 1.36353e-07
-0.0200724 6.77626e-21 0.00141167 0.00141285 -0.000873549 3.89357e-05
0.0200724 1.35525e-20 0.00141172 3.50313e-06 -1.69989e-06 -1.14028e-07
-0.0201349 4.06576e-20 6.62424e-08 0 0 0
0.0201349 0 6.62432e-08 0 0 0
-0.0201347 -1.35525e-20 0.00065509 0.00191244 -0.0010811 2.00009e-05
0.0201347 0 0.000655092 3.4313e-06 -1.70886e-06 2.55086e-08
-0.0200697 6.77626e-21 0.00197791 0.00135987 -0.000840794 3.74758e-05
0.0200697 6.77626e-21 0.00197791 3.37153e-06 -1.63603e-06 -1.09744e-07
-0.0201289 -2.03288e-20 0.00132685 0.00251324 -0.00147685 2.42466e-05
0.0201289 2.71051e-20 0.00132685 6.48329e-06 -3.30146e-06 5.26898e-08
-0.0200872 0 0.00211021 0 0 0
0.0200872 6.77626e-21 0.00211021 0 0 0
-0.0201043 0 0.00206082 0.00120215 -0.00077767 1.71838e-05
0.0201043 0 0.00206081 2.41724e-06 -1.27589e-06 1.63049e-07
0.0201292 0 0.00199355 5.43463e-06 -2.72244e-06 8.73925e-09
-0.0201291 -6.77626e-21 0.00199358 0.00214765 -0.00125697 -6.83472e-06
-0.0201574 0 0.00212882 0 0 0
0.0201575 -6.77626e-21 0.00212883 0 0 0
-0.020211 6.77626e-21 0.00203552 0.00256191 -0.00145763 -3.83586e-05
0.020211 -6.77626e-21 0.0020355 5.3211e-06 -1.9633e-06 8.06841e-07
0.0203752 1.69407e-20 7.14249e-08 0 0 0
-0.0203752 -1.35525e-20 7.14223e-08 0 0 0
0.0203552 6.77626e-22 0.000964574 1.45631e-05 -6.93364e-06 -1.0541e-06
-0.0203552 0 0.000964653 0.00651243 -0.00363547 0.000147524
-0.0203848 -1.807e-21 0.00031854 0.00347268 -0.00197571 5.59587e-05
0.0203848 4.51751e-22 0.000318497 4.30186e-06 -2.05581e-06 -5.8207e-07
0.0203485 1.8823e-22 0.00158862 1.45646e-05 -6.43639e-06 8.67398e-07
-0.0203485 -9.41148e-22 0.00158869 0.00598602 -0.00333242 -0.000147899
-0.0204541 -5.0822e-21 7.18949e-08 0 0 0
0.0204542 1.69407e-21 7.18988e-08 0 0 0
0.0203479 3.38813e-21 0.0020921 4.31582e-06 -1.59238e-06 6.54409e-07
-0.0203479 -6.77626e-21 0.00209212 0.00207776 -0.00118217 -3.11097e-05
-0.0203454 0 0.00217864 0 0 0
0.0203454 -1.35525e-20 0.00217865 0 0 0
0.0204014 0 0.00198909 1.01164e-05 -3.73259e-06 1.53395e-06
-0.0204014 -1.35525e-20 0.00198912 0.00487079 -0.00277129 -7.29287e-05
0.0204481 -5.42101e-20 0.00220585 0 0 0
-0.0204481 -2.71051e-20 0.00220584 0 0 0
-0.0206171 6.77626e-21 7.35947e-08 0 0 0
0.0206171 -6.77626e-21 7.35999e-08 0 0 0
0.0206345 2.25875e-21 0.00124186 2.55469e-05 -1.14966e-05 2.43972e-07
-0.0206345 -2.25875e-21 0.00124198 0.0106587 -0.00615428 2.68068e-05
0.0206729 0 7.48669e-08 0 0 0
-0.0206729 6.77626e-21 7.48621e-08 0 0 0
0.0206741 6.77626e-21 7.00031e-05 1.13167e-06 -5.88417e-07 -7.39997e-08
-0.0206742 6.77626e-21 7.0039e-05 0.000872264 -0.000528925 2.56955e-06
0.0206667 4.51751e-21 0.000657407 1.56638e-05 -6.61298e-06 -4.06457e-07
-0.0206667 -7.90564e-21 0.000657517 0.00866472 -0.00486461 6.20545e-05
0.0206275 1.35525e-21 0.0016945 2.31654e-05 -9.87757e-06 1.00466e-06
-0.0206275 -4.06576e-21 0.00169457 0.00934978 -0.00532085 -9.14749e-05
0.0205976 0 0.00224546 0 0 0
-0.0205976 -1.35525e-20 0.00224545 0 0 0
0.020822 6.77626e-21 8.13398e-08 0 0 0
-0.0208222 0 8.13398e-08 0 0 0
-0.0208462 1.35525e-20 0.000330944 0.00599235 -0.00346161 4.66605e-06
0.0208462 0 0.000330924 6.16238e-06 -2.23459e-06 -2.31106e-07
0.0208502 2.71051e-20 0.000953835 2.58385e-05 -9.76575e-06 -5.04345e-07
-0.0208502 -1.35525e-20 0.000953873 0.0123278 -0.00725439 -1.02316e-05
0.0208443 -1.35525e-20 0.00153528 2.97916e-05 -1.12075e-05 1.09674e-06
-0.0208443 2.71051e-20 0.00153531 0.0122362 -0.00720375 -7.24128e-06
0.0208065 -1.41172e-21 0.00198301 1.79551e-05 -6.41532e-06 2.36616e-06
-0.0208065 2.82344e-22 0.00198302 0.00854169 -0.00524901 8.47288e-05
0.0209014 -6.77626e-21 0.00232595 0 0 0
-0.0209014 6.77626e-21 0.00232594 0 0 0
0.0210643 -1.35525e-20 9.1532e-05 1.96621e-06 -4.38872e-07 -2.51531e-08
-0.0210643 0 9.15048e-05 0.00226307 -0.00126879 -1.14583e-06
0.021067 1.35525e-20 7.81651e-08 0 0 0
-0.021067 0 7.81689e-08 0 0 0
-0.0209629 4.06576e-20 0.00234223 0 0 0
0.0209629 -6.77626e-21 0.00234225 0 0 0
-0.0210006 -6.77626e-21 0.00235224 0 0 0
0.0210006 0 0.00235226 0 0 0
-0.0211368 1.35525e-20 7.77042e-08 0 0 0
0.0211368 0 7.76997e-08 0 0 0
-0.021129 -9.03502e-21 0.00122302 0.0155538 -0.00924659 3.96807e-05
0.021129 -4.51751e-21 0.00122304 3.30991e-05 -1.32747e-05 2.56007e-07
-0.0211316 -1.16165e-20 0.00168768 0.0140203 -0.00841442 8.87081e-05
0.0211316 -5.80823e-21 0.00168768 3.18584e-05 -1.27857e-05 3.07471e-07
-0.0210928 -3.38813e-21 0.00225831 0.00373218 -0.00215041 7.42325e-05
0.0210928 3.38813e-21 0.0022583 7.36974e-06 -2.5509e-06 2.06206e-07
-0.0212074 -2.25875e-21 0.000639305 0.0120235 -0.00712713 1.5218e-05
0.0212074 4.51751e-21 0.000639333 1.81453e-05 -7.62034e-06 2.44826e-07
-0.0212432 1.35525e-20 6.9493e-08 0 0 0
0.0212432 0 6.94858e-08 0 0 0
-0.0212484 0 0.000106497 0.00315051 -0.00184956 1.44337e-06
0.0212484 -6.77626e-21 0.000106548 1.93736e-06 -7.26742e-07 -9.70912e-08
-0.0211906 0 0.00240258 0 0 0
0.0211906 0 0.00240261 0 0 0
0.0213439 5.64689e-21 0.0020251 2.63935e-05 -9.33596e-06 7.88564e-07
-0.0213439 -4.51751e-21 0.00202507 0.0125943 -0.00726555 0.000182254
-0.021371 0 0.00245037 0 0 0
0.021371 -6.77626e-21 0.00245038 0 0 0
-0.0213837 0 0.00242601 0.00106777 -0.000621125 1.94968e-05
0.0213837 0 0.00242602 2.79387e-06 -1.17182e-06 1.29254e-07
-0.0214676 -6.77626e-21 0.00151459 0.0195369 -0.011406 2.86648e-05
0.0214676 -9.03502e-21 0.00151465 4.14556e-05 -1.61943e-05 3.9457e-07
-0.0215176 1.35525e-20 0.000962569 0.0185433 -0.0108497 4.12043e-05
0.0215177 6.77626e-21 0.000962662 3.27883e-05 -1.4229e-05 3.54051e-08
-0.0215442 1.0842e-20 0.000394958 0.00993862 -0.00582344 1.93583e-05
0.0215442 -5.42101e-21 0.000395018 8.47249e-06 -3.55016e-06 -1.30804e-07
0.0214146 0 0.00239563 4.72208e-06 -1.66655e-06 2.60175e-07
-0.0214146 0 0.00239562 0.00197672 -0.00114558 3.8065e-06
0.0214166 -6.77626e-21 0.00246246 0 0 0
-0.0214166 -2.71051e-20 0.00246245 0 0 0
0.0216582 1.35525e-20 0.000128741 2.3422e-06 -8.78605e-07 -1.1738e-07
-0.0216582 0 0.000128718 0.00380999 -0.00223671 1.7455e-06
0.0216619 -1.35525e-20 1.14562e-08 0 0 0
-0.021662 0 1.14549e-08 0 0 0
-0.0217415 -2.71051e-20 0.000612322 0.0148811 -0.00860184 3.14689e-05
0.0217415 0 0.000612439 1.97387e-05 -8.04471e-06 3.22158e-07
-0.021737 0 0.00121881 0.0213756 -0.0124789 1.55708e-05
0.021737 0 0.00121894 4.15326e-05 -1.71526e-05 1.06172e-06
0.021641 0 0.0025219 0 0 0
-0.021641 0 0.00252189 0 0 0
0.02179 1.35525e-20 2.38075e-09 0 0 0
-0.02179 1.35525e-20 2.38045e-09 0 0 0
-0.02171 -2.71051e-20 0.0018706 0.0174472 -0.01021 2.06812e-05
0.02171 -2.71051e-20 0.00187066 3.77429e-05 -1.45283e-05 1.57056e-06
0.0216778 1.8823e-21 0.00229009 1.97794e-05 -5.66216e-06 1.37325e-06
-0.0216778 -3.76459e-22 0.00229005 0.00922959 -0.00529819 0.000137073
-0.0219185 0 2.30219e-09 0 0 0
0.0219185 -1.35525e-20 2.30245e-09 0 0 0
-0.0219202 1.35525e-20 0.000137029 0.00473226 -0.00274378 4.99642e-06
0.0219202 0 0.000137066 2.14632e-06 -4.30701e-07 -4.63987e-08
-0.0218192 0 0.00256913 0 0 0
0.0218192 0 0.00256913 0 0 0
-0.0219845 5.42101e-21 0.00039594 0.0111779 -0.00646703 1.61624e-05
0.0219845 5.42101e-21 0.000396027 8.21374e-06 -2.80835e-06 4.0776e-08
0.0219638 0 0.00229016 2.32027e-05 -7.13166e-06 1.70177e-06
-0.0219638 1.12938e-21 0.00229013 0.0115599 -0.00682167 0.000169596
-0.022074 0 0.000916488 0.0227862 -0.0131707 -1.64696e-05
0.022074 -2.25875e-21 0.000916652 3.48817e-05 -1.31924e-05 7.98758e-07
0.0219561 -1.35525e-20 0.0025286 6.21088e-06 -1.60572e-06 5.56553e-07
-0.0219561 0 0.00252859 0.00345857 -0.00198019 4.83373e-05
-0.0220578 0 0.00154542 0.0255463 -0.0148231 -7.04488e-05
0.0220578 -2.25875e-21 0.00154554 4.87278e-05 -1.80222e-05 3.44071e-06
0.0219647 6.77626e-21 0.00260764 0 0 0
-0.0219647 -1.35525e-20 0.00260764 0 0 0
-0.0220662 4.51751e-21 0.00204922 0.0181353 -0.0106835 0.000126885
0.0220662 -4.51751e-21 0.00204927 3.69176e-05 -1.20056e-05 2.85057e-06
0.0222375 -1.35525e-20 0.000149298 2.33784e-06 -4.69133e-07 -5.05389e-08
-0.0222375 0 0.000149261 0.00515467 -0.0029887 5.44241e-06
0.0222467 0 3.22502e-09 0 0 0
-0.0222467 1.35525e-20 3.22489e-09 0 0 0
0.0221408 1.89735e-20 0.00250166 1.19411e-05 -3.41393e-06 9.02251e-07
-0.0221408 -5.42101e-21 0.00250165 0.00670488 -0.00394992 0.000138402
-0.0221237 -1.35525e-20 0.00264976 0 0 0
0.0221238 0 0.00264976 0 0 0
-0.0223263 -1.93608e-20 0.000544368 0.0153717 -0.00888049 -1.00521e-05
0.0223263 7.7443e-21 0.000544521 1.54222e-05 -4.73651e-06 3.71187e-07
-0.0223861 1.35525e-20 3.11769e-09 0 0 0
0.0223861 1.35525e-20 3.11777e-09 0 0 0
-0.0223888 0 0.00123026 0.0276887 -0.0159787 -3.34842e-05
0.0223888 2.71051e-20 0.00123046 4.76344e-05 -1.6232e-05 2.72375e-06
-0.0223621 0 0.00189307 0.0237593 -0.0138108 3.54644e-05
0.0223621 0 0.00189318 4.92726e-05 -1.655e-05 3.73095e-06
0.022297 0 0.00269561 0 0 0
-0.022297 1.35525e-20 0.00269561 0 0 0
0.0223597 2.11758e-22 0.00232885 2.95864e-05 -9.07541e-06 2.53485e-06
-0.0223597 7.05861e-23 0.00232881 0.0147229 -0.00862177 0.000103863
-0.0225373 -1.35525e-20 3.03035e-09 0 0 0
0.0225373 0 3.03039e-09 0 0 0
-0.0225385 0 0.000146287 0.00560712 -0.00323396 -2.51662e-05
0.0225385 1.35525e-20 0.000146333 2.25384e-06 -1.12431e-07 -1.1677e-08
-0.0227012 -2.25875e-21 0.000916023 0.0272439 -0.015653 -4.87908e-05
0.0227012 6.77626e-21 0.000916234 3.8666e-05 -1.17734e-05 2.00999e-06
-0.0226844 -4.51751e-21 0.00155903 0.0318234 -0.0183225 2.13341e-06
0.0226844 2.25875e-21 0.00155921 5.66813e-05 -1.75073e-05 4.09796e-06
-0.0227492 -9.03502e-21 0.000352645 0.0117671 -0.00679257 -3.06874e-05
0.0227492 4.51751e-21 0.000352762 8.16584e-06 -1.65485e-06 1.64238e-07
0.0226132 -1.2282e-20 0.00277935 0 0 0
-0.0226133 1.82112e-20 0.00277937 0 0 0
-0.0226206 1.52466e-20 0.00278132 0 0 0
0.0226206 -9.74088e-21 0.00278132 0 0 0
-0.0227194 6.77626e-21 0.00213973 0.023665 -0.0137272 3.45994e-05
0.0227194 -9.03502e-21 0.00213981 4.90372e-05 -1.45318e-05 4.55058e-06
-0.0226786 0 0.00257495 0.0106933 -0.00624588 -9.93795e-05
0.0226786 0 0.00257497 2.05339e-05 -5.42785e-06 2.49774e-06
-0.0228459 1.35525e-20 3.06872e-09 0 0 0
0.0228459 0 3.06855e-09 0 0 0
-0.0230054 -2.71051e-20 2.97301e-09 0 0 0
0.0230055 2.71051e-20 2.97281e-09 0 0 0
-0.0230123 2.71051e-20 0.000601967 0.0208671 -0.0120092 1.6897e-05
0.0230123 0 0.000602177 2.385e-05 -5.97937e-06 7.32009e-07
-0.023008 0 0.00123165 0.0329555 -0.0189823 -7.82072e-06
0.023008 0 0.0012319 5.49304e-05 -1.55212e-05 3.43486e-06
-0.0229679 2.71051e-20 0.00191396 0.0297791 -0.0171817 1.10615e-06
0.0229679 5.42101e-20 0.0019141 6.18215e-05 -1.77679e-05 5.2764e-06
0.0229069 -2.71051e-20 0.00285715 0 0 0
-0.0229069 0 0.00285715 0 0 0
-0.0230246 -2.71051e-20 0.0024179 0.0193547 -0.0112266 5.2092e-05
0.0230246 2.71051e-20 0.00241795 4.24618e-05 -1.17109e-05 4.30906e-06
-0.0231706 2.71051e-20 2.61999e-09 0 0 0
0.0231707 -1.35525e-20 2.6198e-09 0 0 0
-0.0232775 -6.77626e-21 0.000961767 0.0318912 -0.0183279 3.43138e-05
0.0232775 4.51751e-21 0.000962019 4.54361e-05 -1.09347e-05 1.80887e-06
-0.0231303 1.35525e-20 0.00291661 0 0 0
0.0231303 4.06576e-20 0.00291662 0 0 0
-0.0233249 6.77626e-21 0.000300575 0.0116101 -0.00666531 4.4294e-05
0.023325 2.25875e-21 0.000300687 7.3524e-06 -4.53097e-07 -8.71217e-08
-0.0233201 0 0.00155413 0.0374078 -0.0215827 -1.55323e-05
0.0233201 1.12938e-20 0.00155433 6.70152e-05 -1.64155e-05 5.14545e-06
-0.0233275 4.51751e-21 0.00215862 0.0301105 -0.0174355 -4.06591e-05
0.0233275 1.58113e-20 0.00215872 6.37424e-05 -1.75782e-05 7.03477e-06
-0.0232742 1.12938e-21 0.00268392 0.0138898 -0.00841734 8.32843e-05
0.0232742 1.807e-21 0.00268395 2.54243e-05 -7.54449e-06 3.21343e-06
-0.023471 0 1.49916e-09 0 0 0
0.023471 0 1.49905e-09 0 0 0
0.0233563 -6.77626e-21 0.0029773 0 0 0
-0.0233564 -6.77626e-21 0.00297732 0 0 0
-0.0236362 -2.71051e-20 1.14287e-09 0 0 0
0.0236362 -2.71051e-20 1.14277e-09 0 0 0
-0.0236942 -6.77626e-21 0.000643529 0.0249733 -0.0142865 1.05551e-05
0.0236943 0 0.000643725 2.93291e-05 -5.00211e-06 7.72423e-07
-0.0235255 -5.42101e-20 0.00302244 0 0 0
0.0235255 1.35525e-20 0.00302244 0 0 0
-0.0236289 2.71051e-20 0.00246429 0.0242505 -0.0140159 5.33293e-05
0.0236289 0 0.00246434 5.61703e-05 -1.39627e-05 5.93183e-06
-0.0237458 -4.51751e-21 0.00121852 0.0388357 -0.0223038 -2.57863e-05
0.0237458 -4.51751e-21 0.00121876 6.39743e-05 -1.29449e-05 4.19052e-06
0.023712 3.67854e-20 0.00179082 7.80968e-05 -1.69688e-05 7.10421e-06
-0.023712 1.54886e-20 0.00179064 0.0398304 -0.0229647 -3.10034e-05
-0.0238007 1.35525e-20 1.02427e-09 0 0 0
0.0238007 1.35525e-20 1.02417e-09 0 0 0
-0.0236242 0 0.00304884 0 0 0
0.0236242 0 0.00304886 0 0 0
-0.0238637 8.13152e-21 0.000205193 0.00882078 -0.00499966 -2.20068e-06
0.0238637 1.0842e-20 0.000205258 3.07675e-06 1.19497e-06 -2.75583e-07
0.0238647 0 0.00216536 7.95398e-05 -1.80951e-05 8.38714e-06
-0.0238648 9.03502e-21 0.00216526 0.0362658 -0.020862 -4.56727e-05
-0.0239679 -2.71051e-20 0.000897771 0.0363262 -0.0207417 -3.81156e-05
0.023968 0 0.00089799 5.07038e-05 -8.52169e-06 1.9331e-06
-0.0239683 0 0.00153338 0.0446879 -0.0256947 -3.10602e-05
0.0239683 0 0.00153358 8.24987e-05 -1.56935e-05 6.87954e-06
-0.0238625 -5.29396e-23 0.00276289 0.0181161 -0.0101162 7.21178e-05
0.0238638 5.29396e-23 0.00276308 4.05095e-05 -1.00755e-05 4.04226e-06
-0.0238739 -4.23516e-21 0.00276895 0.0181436 -0.0101192 7.16201e-05
0.0238718 5.82335e-21 0.00276533 4.06694e-05 -1.00912e-05 4.04749e-06
0.024114 0 6.40638e-10 0 0 0
-0.024114 0 6.40703e-10 0 0 0
-0.0241188 2.71051e-20 0.000144133 0.0064871 -0.00367736 5.19686e-07
0.0241188 0 0.000144175 2.32489e-06 8.1379e-07 -2.24315e-07
0.023916 0 0.00312792 0 0 0
-0.0239161 0 0.00312794 0 0 0
-0.0239647 0 0.00314097 0 0 0
0.0239647 0 0.00314096 0 0 0
-0.0242749 0 5.21808e-10 0 0 0
0.0242749 0 5.21745e-10 0 0 0
-0.0242836 -4.51751e-21 0.000580904 0.0250149 -0.0142999 -3.03077e-05
0.0242836 2.25875e-21 0.000581052 2.73821e-05 -2.03164e-06 9.43256e-07
-0.0242888 0 0.00120234 0.0422493 -0.0242987 -1.67429e-05
0.0242889 1.12938e-20 0.00120253 6.92884e-05 -1.02436e-05 4.77924e-06
-0.0242868 -9.03502e-21 0.00186197 0.0439932 -0.025389 -6.56372e-05
0.0242869 0 0.00186211 9.08915e-05 -1.69037e-05 8.75922e-06
-0.0241659 0 0.003195 0 0 0
0.0241661 1.69407e-21 0.00319503 0 0 0
0.0241862 4.23516e-22 0.00320043 0 0 0
-0.0241863 -4.23516e-22 0.00320044 0 0 0
0.0241881 5.50571e-21 0.00319265 1.24767e-06 -1.76182e-07 1.52904e-07
-0.0241882 0 0.0031926 0.000456708 -0.000253853 5.47719e-06
-0.0244313 2.71051e-20 0.000134539 0.0062728 -0.00364289 -5.70384e-05
0.0244313 0 0.00013457 1.68562e-06 1.28336e-06 -1.40332e-07
-0.0244331 0 4.67599e-10 0 0 0
0.0244331 0 4.67535e-10 0 0 0
-0.0243349 2.25875e-21 0.00249839 0.0309765 -0.0178402 1.71657e-05
0.0243349 -4.51751e-21 0.00249847 7.63753e-05 -1.55125e-05 8.01694e-06
0.0242974 4.51751e-21 0.0029262 4.04213e-05 -6.30307e-06 4.90538e-06
-0.0242974 0 0.00292619 0.0153414 -0.00863696 0.000184805
-0.0243695 6.77626e-21 0.00315162 0.00538995 -0.00299591 6.46404e-05
0.0243695 0 0.00315166 1.48298e-05 -2.0941e-06 1.81742e-06
-0.0246008 -2.71051e-20 0.000284661 0.0128894 -0.00741973 -7.91186e-05
0.0246009 0 0.000284725 3.25028e-06 2.8824e-06 -2.33847e-07
-0.0243971 -6.77626e-21 0.00325796 0 0 0
0.0243971 -6.77626e-21 0.00325796 0 0 0
-0.0246107 -2.71051e-20 0.000878458 0.0390229 -0.0223599 7.30833e-06
0.0246107 2.71051e-20 0.000878612 5.27566e-05 -4.34715e-06 2.49245e-06
-0.0246166 -2.71051e-20 0.00151509 0.0494678 -0.0286911 -5.91214e-06
0.0246166 0 0.00151523 9.21863e-05 -1.23816e-05 7.88618e-06
0.0244715 -6.77626e-21 0.00314417 1.94892e-05 -3.16309e-06 2.16616e-06
-0.0244715 0 0.00314413 0.00679915 -0.00385824 8.85174e-05
0.024504 -6.77626e-21 0.00290416 4.88719e-05 -8.38852e-06 5.56116e-06
-0.024504 -3.38813e-21 0.00290416 0.0180939 -0.0103354 0.000237163
0.024478 -6.77626e-21 0.00323287 7.23366e-06 -7.90107e-07 9.07867e-07
-0.024478 6.77626e-21 0.00323286 0.00264129 -0.00144478 4.9074e-05
0.0244844 6.77626e-21 0.00328126 0 0 0
-0.0244844 0 0.00328126 0 0 0
-0.0246093 0 0.00219408 0.0446833 -0.0258109 -0.000170523
0.0246093 -5.42101e-20 0.00219416 0.000105134 -2.02755e-05 1.1298e-05
-0.0247622 -1.35525e-20 2.5336e-10 0 0 0
0.0247622 0 2.5332e-10 0 0 0
-0.0247664 1.35525e-20 0.000132487 0.00617716 -0.00358734 -5.61687e-05
0.0247664 2.71051e-20 0.000132517 1.65991e-06 1.26379e-06 -1.38191e-07
0.0246224 -2.03288e-20 0.00297464 4.69759e-05 -8.21358e-06 5.32581e-06
-0.0246224 -6.77626e-21 0.00297462 0.0165072 -0.0094577 0.000296504
-0.0249174 0 1.99007e-10 0 0 0
0.0249175 1.35525e-20 1.98966e-10 0 0 0
0.0247048 1.35525e-20 0.00334016 0 0 0
-0.0247048 0 0.00334016 0 0 0
-0.0249272 2.25875e-21 0.00056588 0.0261833 -0.0151714 -6.77437e-05
0.0249272 1.12938e-20 0.000565967 2.79537e-05 5.75205e-07 1.5269e-06
-0.0249353 9.03502e-21 0.00118332 0.0457215 -0.0264769 -3.6382e-05
0.0249353 2.25875e-21 0.00118344 7.57398e-05 -6.45405e-06 5.67407e-06
0.0247708 -1.35525e-20 0.00325092 1.65644e-05 -1.80928e-06 2.07893e-06
-0.0247708 -1.35525e-20 0.00325093 0.00604582 -0.00330705 0.000112329
-0.0249332 -4.51751e-21 0.0018542 0.0496834 -0.0287637 -0.000151792
0.0249332 0 0.00185429 0.000107329 -1.58872e-05 1.04867e-05
-0.0249124 1.12938e-20 0.00254742 0.0359453 -0.020737 -5.54356e-05
0.0249124 1.12938e-20 0.00254746 9.58578e-05 -1.745e-05 1.03389e-05
-0.02507 0 0.000129685 0.00613089 -0.00380572 -0.000121211
0.02507 0 0.000129701 1.35893e-06 1.10209e-06 2.65032e-07
-0.0250722 0 1.71469e-10 0 0 0
0.0250723 0 1.71434e-10 0 0 0
0.0248681 0 0.00338376 0 0 0
-0.0248681 -5.42101e-20 0.00338375 0 0 0
-0.024966 -1.807e-21 0.00300203 0.0205753 -0.0118055 0.000129323
0.024966 -1.807e-21 0.00300205 5.89614e-05 -9.92128e-06 6.98044e-06
-0.0252401 -2.71051e-20 0.000277338 0.0128796 -0.00782448 -0.000182717
0.0252401 0 0.000277376 2.81641e-06 2.56253e-06 4.75451e-07
-0.0252519 0 0.000862008 0.0412247 -0.0238658 -5.75782e-06
0.0252519 0 0.000862093 5.50971e-05 1.13857e-06 3.55177e-06
-0.0252581 2.71051e-20 0.0015011 0.0537031 -0.0313035 -0.000146354
0.0252581 0 0.00150118 0.000104405 -1.04821e-05 8.94715e-06
-0.025094 0 0.00344393 0 0 0
0.025094 2.03288e-20 0.00344395 0 0 0
-0.0252522 0 0.00218233 0.051458 -0.0295971 -0.000280782
0.0252522 -5.42101e-20 0.00218237 0.000128664 -2.05441e-05 1.38129e-05
-0.0253959 0 6.82351e-11 0 0 0
0.0253959 0 6.82188e-11 0 0 0
-0.0254017 -1.35525e-20 0.000130113 0.00615115 -0.0038183 -0.000121611
0.0254017 -1.35525e-20 0.000130131 1.36343e-06 1.10574e-06 2.6591e-07
-0.0252838 0 0.00277254 0.0342707 -0.0197919 -6.33897e-05
0.0252839 0 0.00277257 0.000101577 -1.93221e-05 1.19294e-05
-0.0252273 0 0.00330818 0.00980728 -0.00565626 4.34797e-05
0.0252273 0 0.00330821 2.91816e-05 -5.33298e-06 4.0603e-06
-0.0252595 6.77626e-21 0.00348812 0 0 0
0.0252596 6.77626e-21 0.00348815 0 0 0
-0.0255539 0 4.13675e-11 0 0 0
0.0255539 2.71051e-20 4.13565e-11 0 0 0
-0.0255655 -2.25875e-21 0.000552596 0.0270763 -0.015982 -5.99583e-05
0.0255655 2.25875e-21 0.000552632 2.82702e-05 1.51066e-06 2.4739e-06
-0.0255758 2.25875e-21 0.00116683 0.0486707 -0.0283795 -0.000160248
0.0255758 -4.51751e-21 0.00116688 8.16539e-05 -4.11588e-06 7.88901e-06
-0.0255762 -2.25875e-21 0.00183976 0.0551478 -0.0319544 -0.000307625
0.0255763 0 0.0018398 0.000124733 -1.5495e-05 1.35717e-05
-0.0255827 -2.25875e-21 0.00249854 0.0459577 -0.026498 -0.00026256
0.0255827 -4.51751e-21 0.00249856 0.00012788 -2.20901e-05 1.52491e-05
-0.0257081 1.35525e-20 0.000131339 0.00641276 -0.00409092 1.96207e-05
0.0257081 2.71051e-20 0.000131348 1.79125e-06 3.15586e-07 3.68568e-07
-0.0257119 -2.71051e-20 3.51853e-11 0 0 0
0.0257119 0 3.51759e-11 0 0 0
-0.0254803 -1.35525e-20 0.00354694 0 0 0
0.0254804 1.35525e-20 0.00354697 0 0 0
-0.0255732 -1.12938e-21 0.00306848 0.0260681 -0.015061 -0.000115339
0.0255733 0 0.0030685 8.15363e-05 -1.60423e-05 1.0396e-05
-0.0258709 2.71051e-20 0.000270934 0.0130999 -0.00815593 4.28097e-05
0.0258709 2.71051e-20 0.000270944 3.48637e-06 1.14408e-06 5.75329e-07
-0.0258866 -2.71051e-20 0.000846945 0.0429471 -0.0252029 -7.98096e-05
0.0258867 0 0.00084698 5.44212e-05 9.54919e-07 5.69838e-06
-0.0258956 -5.42101e-20 0.00148553 0.0573889 -0.0334903 -0.000417779
0.0258957 -2.71051e-20 0.00148556 0.000114388 -8.56233e-06 1.3742e-05
-0.025711 0 0.0036084 0 0 0
0.025711 -1.35525e-20 0.0036084 0 0 0
-0.0258953 5.42101e-20 0.00216695 0.0583148 -0.0336017 -0.000386645
0.0258954 0 0.00216699 0.000152271 -2.27245e-05 1.78437e-05
-0.0260182 1.35525e-20 1.4385e-11 0 0 0
0.0260182 -1.35525e-20 1.43834e-11 0 0 0
-0.0257708 1.01644e-20 0.00362432 0 0 0
0.025771 -1.01644e-20 0.00362438 0 0 0
0.0260277 1.35525e-20 0.000129333 1.76377e-06 3.10745e-07 3.62915e-07
-0.0260277 1.35525e-20 0.000129319 0.00631415 -0.00402801 1.9319e-05
-0.0258188 4.51751e-21 0.00342146 0.0125151 -0.00722399 -7.81281e-05
0.0258189 -4.51751e-21 0.00342152 4.52932e-05 -1.09916e-05 5.24605e-06
-0.0259037 0 0.00281559 0.041898 -0.0242121 -0.000342212
0.0259038 2.71051e-20 0.0028156 0.000134752 -2.68096e-05 1.7846e-05
-0.0261762 2.71051e-20 8.34289e-12 0 0 0
0.0261762 0 8.34292e-12 0 0 0
-0.0261907 6.77626e-21 0.000536235 0.0276918 -0.0163758 7.79148e-05
0.0261907 4.51751e-21 0.000536244 2.61591e-05 6.46704e-07 3.06591e-06
-0.0262092 -7.90564e-21 0.00114363 0.0509541 -0.0297816 -0.000287766
0.0262093 1.12938e-21 0.00114365 8.41353e-05 -3.84153e-06 1.11028e-05
-0.0260128 0 0.00368882 0 0 0
0.026013 -1.35525e-20 0.00368885 0 0 0
-0.026215 1.12938e-21 0.00181908 0.0600791 -0.0347586 -0.000472388
0.026215 0 0.0018191 0.000140373 -1.40774e-05 1.83294e-05
-0.0263228 -1.35525e-20 0.000121177 0.00625873 -0.00373096 0.000344445
0.0263228 1.35525e-20 0.000121199 9.41079e-07 2.14916e-09 -2.32698e-07
-0.0263263 1.35525e-20 7.18223e-12 0 0 0
0.0263263 -2.71051e-20 7.1822e-12 0 0 0
-0.0262139 1.12938e-21 0.00250529 0.0530595 -0.0304889 -0.000475782
0.026214 -3.38813e-21 0.0025053 0.000156115 -2.49986e-05 2.0992e-05
-0.0261378 -2.71051e-20 0.00372349 0 0 0
0.0261379 -1.35525e-20 0.00372351 0 0 0
-0.0261644 4.06576e-20 0.00360602 0.00816948 -0.00435879 -1.29455e-05
0.0261645 -1.35525e-20 0.00360608 3.58444e-05 -5.58483e-06 4.93436e-06
-0.0262302 -1.50584e-21 0.0032085 0.0283857 -0.0162262 -0.000212826
0.0262302 1.8823e-21 0.00320851 0.000100939 -1.90771e-05 1.45924e-05
-0.0264875 0 0.000258943 0.0132273 -0.00778735 0.000508784
0.0264876 0 0.000258951 2.20338e-06 7.48598e-07 -5.8803e-07
-0.0265116 0 0.000819231 0.0437666 -0.025732 -0.000136747
0.0265116 0 0.000819229 4.75399e-05 -7.01851e-07 7.19263e-06
-0.0265313 0 0.00145474 0.0603558 -0.0350745 -0.000523081
0.0265313 2.71051e-20 0.00145476 0.000121946 -7.57003e-06 1.83973e-05
-0.026307 0 0.00376734 0 0 0
0.026307 -6.77626e-21 0.00376734 0 0 0
-0.0265288 0 0.00214917 0.0643019 -0.036903 -0.000570082
0.0265289 0 0.00214918 0.000173174 -1.79087e-05 2.3486e-05
0.0266623 1.35525e-20 2.30473e-12 0 0 0
-0.0266624 -1.35525e-20 2.30271e-12 0 0 0
0.0266707 -1.35525e-20 0.000106431 8.26411e-07 1.88729e-09 -2.04345e-07
-0.0266707 -1.35525e-20 0.000106394 0.00549522 -0.00327581 0.000302425
-0.0265278 0 0.00283317 0.0494219 -0.028198 -0.000621929
0.0265278 -2.71051e-20 0.00283318 0.000168992 -3.28812e-05 2.51259e-05
-0.0264226 0 0.00379806 0 0 0
0.0264228 6.77626e-21 0.00379808 0 0 0
-0.0265365 -2.82344e-21 0.00359658 0.0131549 -0.0074547 0.000197368
0.0265365 1.69407e-21 0.00359658 5.53918e-05 -7.88643e-06 9.61888e-06
-0.0267959 -1.35525e-20 1.18602e-12 0 0 0
0.0267959 0 1.1879e-12 0 0 0
-0.0268045 -1.12938e-21 0.0005015 0.0270857 -0.0157707 0.000156346
0.0268045 -3.38813e-21 0.000501498 1.54432e-05 -1.95316e-06 5.90078e-06
-0.0268426 1.12938e-21 0.00108827 0.0517362 -0.0302152 -0.000350189
0.0268426 -2.25875e-21 0.00108827 7.50517e-05 -4.83807e-06 1.62991e-05
-0.0269065 1.35525e-20 8.39063e-05 0.00482815 -0.0027352 0.000359457
0.0269065 0 8.3937e-05 -1.21482e-06 -5.30168e-07 8.08094e-08
-0.0269105 2.71051e-20 1.09878e-12 0 0 0
0.0269105 0 1.1004e-12 0 0 0
-0.0268569 0 0.00177521 0.0643361 -0.0372917 -0.000615681
0.0268569 -5.64689e-22 0.00177521 0.000148943 -1.09962e-05 2.30006e-05
-0.0268455 1.12938e-21 0.00249636 0.0601573 -0.0345281 -0.000703564
0.0268456 -1.12938e-21 0.00249637 0.000182192 -2.5503e-05 2.64074e-05
-0.0268309 1.807e-21 0.00322447 0.0353291 -0.020121 -0.000349733
0.0268309 9.48677e-21 0.00322448 0.000135657 -2.58408e-05 2.04652e-05
0.0267577 8.47033e-22 0.00386138 5.49018e-06 -6.71282e-07 1.01831e-06
-0.0267577 0 0.00386154 0.00134234 -0.000769555 3.11473e-05
-0.0267686 0 0.00388947 0 0 0
0.0267686 0 0.00388946 0 0 0
-0.0267817 0 0.00389295 0 0 0
0.0267818 0 0.00389296 0 0 0
-0.0267895 -1.69407e-21 0.00389519 0 0 0
0.0267897 0 0.00389521 0 0 0
-0.0267977 0 0.00388306 0.000850829 -0.00048642 8.01987e-06
0.0267979 0 0.00388302 3.89102e-06 -8.98748e-07 6.72497e-07
-0.0268077 8.47033e-22 0.00390073 0 0 0
0.0268079 -1.01644e-20 0.00390078 0 0 0
-0.0270953 0 0.00023099 0.0127055 -0.00710625 0.000456716
0.0270953 -2.71051e-20 0.000230989 -2.19075e-06 -4.58334e-07 -1.28519e-07
-0.0271307 2.71051e-20 0.000745242 0.041 -0.0238952 -0.000177673
0.0271307 2.71051e-20 0.000745245 1.73226e-05 -7.76503e-06 1.755e-05
-0.0271876 0 0.00136721 0.0621069 -0.0362927 -0.000561211
0.0271876 0 0.00136721 0.0001127 -3.63723e-06 2.31252e-05
-0.02717 2.71051e-20 0.00211415 0.0705633 -0.0408858 -0.000820206
0.02717 0 0.00211415 0.000187448 -1.5267e-05 2.74004e-05
-0.0270374 -9.68038e-21 0.00364688 0.0197206 -0.0111777 -2.23149e-05
0.0270374 -1.93608e-21 0.00364689 9.11515e-05 -1.98334e-05 1.52625e-05
-0.0271535 0 0.00283769 0.0575663 -0.0328402 -0.00081766
0.0271535 -2.71051e-20 0.0028377 0.000201614 -3.5583e-05 2.97198e-05
0.0273865 -6.02335e-21 0.0004332 7.58666e-06 -3.85215e-07 4.34501e-06
-0.0273866 -1.50584e-21 0.000433203 0.0240729 -0.0138445 -8.63502e-05
-0.0272025 -1.35525e-20 0.00404241 0 0 0
0.0272025 0 0.00404243 0 0 0
0.0275127 0 2.93966e-06 2.91727e-09 -5.73654e-09 5.08092e-09
-0.0275208 4.23516e-22 1.06317e-13 8.42111e-05 -4.73743e-05 3.2516e-06
-0.0275278 4.23516e-22 1.05538e-13 0 0 0
0.027528 -4.23516e-22 1.05132e-13 0 0 0
-0.0275176 -4.14105e-21 0.000876077 0.0438391 -0.0257033 -0.000287456
0.0275176 -2.44698e-21 0.00087607 5.1995e-05 6.95762e-07 9.82245e-06
-0.0275406 0 1.8613e-05 0.00119323 -0.00071109 -1.77904e-05
0.027541 0 1.89803e-05 1.8479e-07 -2.44373e-08 -2.82076e-07
-0.0272667 1.35525e-20 0.00395781 0.00685106 -0.00382477 -0.00010384
0.0272668 -2.71051e-20 0.00395784 3.16961e-05 -5.91481e-06 6.14281e-06
0.0275129 -7.05861e-23 0.00171283 0.000151509 -6.65224e-06 2.3641e-05
-0.0275266 -1.41172e-22 0.00170612 0.0676589 -0.0394934 -0.000699386
-0.0274757 3.38813e-21 0.00247994 0.0668396 -0.0385821 -0.000994469
0.0274757 -2.25875e-21 0.00247995 0.00020666 -2.60139e-05 3.1232e-05
-0.0274313 2.25875e-21 0.00322709 0.0440686 -0.0250617 -0.000723352
0.0274313 0 0.0032271 0.000179061 -3.40124e-05 2.76654e-05
-0.0273527 1.35525e-20 0.00409792 0 0 0
0.0273528 1.35525e-20 0.00409794 0 0 0
-0.0274774 1.12938e-21 0.00369772 0.0250664 -0.014192 -0.000292029
0.0274774 1.12938e-21 0.00369774 0.000115572 -2.30475e-05 1.95216e-05
-0.0278217 0 0.00130219 0.0627996 -0.0368751 -0.000327062
0.0278218 -2.71051e-20 0.00130219 0.000111276 2.67643e-06 1.36762e-05
-0.0277987 0 0.00208828 0.0759266 -0.0443469 -0.00108216
0.0277987 -2.71051e-20 0.00208828 0.000199687 -1.26731e-05 3.10296e-05
-0.0278795 -3.76459e-21 0.000330555 0.02034 -0.0120752 -0.00029632
0.0278795 0 0.000330552 4.03173e-06 4.19208e-07 -3.93598e-06
-0.0275673 -1.69407e-20 0.00417883 0 0 0
0.0275674 1.69407e-20 0.00417885 0 0 0
-0.0277779 0 0.0028342 0.0641309 -0.0367612 -0.00126626
0.027778 0 0.00283422 0.000238744 -4.00816e-05 3.67092e-05
-0.0276683 -3.38813e-21 0.00421687 0 0 0
0.0276684 1.01644e-20 0.00421691 0 0 0
-0.0277108 0 0.00403356 0.0109611 -0.00629782 -7.42606e-05
0.0277109 0 0.00403359 5.76661e-05 -1.34947e-05 9.66455e-06
-0.0278036 -2.71051e-20 0.00346787 0.0412197 -0.0232204 -0.000870866
0.0278037 2.71051e-20 0.00346788 0.000189934 -3.9119e-05 3.1777e-05
0.0280306 1.35525e-20 3.72316e-14 0 0 0
-0.0280306 1.35525e-20 3.73072e-14 0 0 0
-0.0281597 -3.61401e-21 0.000826379 0.043135 -0.0256719 -0.000419634
0.0281598 1.35525e-21 0.000826365 5.01422e-05 1.0173e-05 3.34659e-06
-0.0281239 3.38813e-22 0.00170643 0.0713098 -0.0416739 -0.000889498
0.0281239 -4.51751e-22 0.00170641 0.000164849 -1.33641e-06 2.43395e-05
-0.0281926 2.71051e-20 2.34313e-14 0 0 0
0.0281927 -2.71051e-20 2.34156e-14 0 0 0
-0.0281037 -5.64689e-22 0.00246047 0.0730573 -0.04231 -0.00128181
0.0281037 -5.64689e-22 0.00246047 0.000235445 -2.66408e-05 3.69057e-05
-0.0278976 0 0.00430333 0 0 0
0.0278978 1.35525e-20 0.00430337 0 0 0
-0.0280998 -3.95282e-21 0.00316536 0.0563462 -0.0319961 -0.00126393
0.0280999 -5.64689e-22 0.00316537 0.000237643 -4.33014e-05 3.93723e-05
-0.0280091 2.71051e-20 0.00434531 0 0 0