# k  POINT_DATA 52106
# x  y  z  k
0.015557 -1.35525e-20 5.70113e-08 1.18476e-08
-0.015557 1.35525e-20 5.70113e-08 5.72628e-10
-0.015557 -6.77626e-21 0.000135948 5.7521e-10
0.015557 0 0.000135964 1.17483e-08
-0.015557 6.77626e-21 0.000527058 6.71905e-10
0.015557 6.77626e-21 0.000527125 8.86323e-09
-0.015557 1.35525e-20 0.000659558 7.36537e-10
0.015557 -1.35525e-20 0.000659639 6.70586e-09
-0.0155569 0 0.000798557 8.14752e-10
0.015557 0 0.000798637 4.39379e-09
-0.0155569 6.77626e-21 0.00121614 9.04172e-10
0.0155569 0 0.00121623 1.31241e-09
-0.0155569 -6.77626e-21 0.00135476 8.88955e-10
0.0155569 0 0.00135485 1.23046e-09
-0.0156159 6.77626e-21 6.65977e-05 5.65906e-10
0.0156159 -6.77626e-21 6.66114e-05 1.1444e-08
0.015617 -6.77626e-21 5.8671e-08 1.14475e-08
-0.015617 0 5.86705e-08 5.66013e-10
-0.0156133 0 0.000593966 6.95955e-10
0.0156133 6.77626e-21 0.00059404 7.58855e-09
0.0156101 0 0.000721026 5.38291e-09
-0.0156101 6.77626e-21 0.000720945 7.66747e-10
-0.0155569 -6.77626e-21 0.00150199 8.90007e-10
0.0155569 0 0.00150206 1.18698e-09
-0.0156099 -6.77626e-21 0.00127797 8.8617e-10
0.0156099 6.77626e-21 0.00127806 1.27068e-09
0.0156067 -6.77626e-21 0.00140498 1.20718e-09
-0.0156067 0 0.00140489 8.79646e-10
-0.0156758 -6.77626e-21 6.25738e-08 9.51994e-10
0.0156758 6.77626e-21 6.25741e-08 2.1472e-08
-0.0155569 1.35525e-20 0.00193255 1.02431e-09
0.0155569 0 0.00193257 1.52853e-09
-0.0156643 -2.71051e-20 0.000653593 8.40864e-10
0.0156643 1.35525e-20 0.000653701 1.19778e-08
0.015557 -6.77626e-21 0.002087 1.90682e-09
-0.015557 6.77626e-21 0.002087 1.17483e-09
0.0156581 2.03288e-20 0.00132521 1.47641e-09
-0.0156581 0 0.00132509 7.72289e-10
0.0156109 0 0.00197556 1.66808e-09
-0.0156109 0 0.00197554 1.05933e-09
-0.01562 0 0.00210848 1.16265e-09
0.01562 -6.77626e-21 0.00210848 1.96504e-09
0.0156426 0 0.00205604 1.91095e-09
-0.0156426 0 0.00205603 1.13777e-09
0.0156707 0 0.00197912 1.73123e-09
-0.0156707 -6.77626e-21 0.00197907 9.84209e-10
-0.0156949 0 0.00213398 1.34409e-09
0.0156949 0 0.00213398 2.13279e-09
0.015885 6.77626e-21 7.41484e-08 1.90161e-08
-0.015885 6.77626e-21 7.41473e-08 8.66469e-10
-0.01589 0 0.00034758 8.25215e-10
0.01589 -2.25875e-21 0.000347688 1.66423e-08
-0.0158834 2.71051e-21 0.000956113 8.73229e-10
0.0158834 -4.51751e-22 0.000956328 5.08379e-09
0.0158471 2.25875e-21 0.00154379 1.37015e-09
-0.0158471 2.25875e-21 0.00154362 7.1818e-10
-0.0158414 2.82344e-21 0.00196386 1.10749e-09
0.0158414 -1.12938e-21 0.00196392 1.94613e-09
-0.015839 0 0.00218308 1.39835e-09
0.015839 -1.35525e-20 0.00218308 2.35583e-09
-0.0159079 -4.06576e-20 0.00220656 1.86274e-09
0.0159079 0 0.00220656 2.74377e-09
-0.0160357 0 0.00166133 8.60836e-10
0.0160357 1.12938e-21 0.00166159 1.68487e-09
-0.0161335 0 1.64555e-05 2.95614e-09
0.0161337 -4.23516e-22 1.6266e-05 4.63922e-08
-0.0161343 -4.23516e-22 5.30999e-08 2.95981e-09
0.0161345 0 5.30909e-08 4.6447e-08
-0.0159895 -4.06576e-20 0.00223438 2.03853e-09
0.0159896 0 0.00223438 2.97674e-09
-0.0161453 0 5.24551e-08 3.07716e-09
0.0161479 0 3.0392e-06 4.81222e-08
-0.0161363 -2.25875e-21 0.000658258 1.64188e-09
0.0161363 0 0.00065863 2.492e-08
-0.016108 0 0.00123662 7.29542e-10
0.0161079 -2.25875e-21 0.00123704 3.09621e-09
-0.0162278 -1.8823e-21 0.00195621 1.85658e-09
0.0162278 1.12938e-21 0.00195641 2.77701e-09
0.0161979 6.77626e-21 0.00230534 3.2221e-09
-0.0161979 0 0.00230537 2.33653e-09
-0.0162561 6.77626e-21 0.00232518 2.45759e-09
0.0162561 6.77626e-21 0.00232518 3.25983e-09
-0.016267 0 0.00230119 2.43804e-09
0.016267 0 0.00230117 3.25977e-09
-0.0162975 1.35525e-20 0.00227122 2.26811e-09
0.0162975 -6.77626e-21 0.00227118 3.17439e-09
-0.0162994 1.35525e-20 0.00233991 2.4439e-09
0.0162994 6.77626e-21 0.00233992 3.31123e-09
0.0164713 1.35525e-20 0.000318776 6.34073e-08
-0.0164713 0 0.00031848 5.28501e-09
0.0164838 9.03502e-21 0.000934132 1.16294e-08
-0.0164839 -4.51751e-21 0.000933459 1.06265e-09
-0.0165151 2.71051e-20 8.91788e-08 5.59745e-09
0.0165151 0 8.91806e-08 7.32165e-08
0.0164768 9.03502e-21 0.00151147 2.49957e-09
-0.0164769 0 0.00151089 6.8621e-10
0.0166394 0 9.23357e-08 5.97521e-08
-0.0166394 0 9.23334e-08 5.41972e-09
-0.0165053 0 0.00241002 2.52909e-09
0.0165054 1.35525e-20 0.00241002 3.62157e-09
0.0167038 2.71051e-20 0.000635416 3.4866e-08
-0.0167039 0 0.000634646 3.22258e-09
0.0165943 5.64689e-22 0.00217414 3.48689e-09
-0.0165943 1.12938e-21 0.00217395 2.28209e-09
0.0167298 0 0.00122679 5.1174e-09
-0.0167299 0 0.00122589 7.7996e-10
0.0166885 0 0.00181391 2.8669e-09
-0.0166886 -2.71051e-20 0.00181341 1.10126e-09
-0.0166608 -1.35525e-20 0.00246303 2.37112e-09
0.016661 0 0.00246306 3.53455e-09
0.0168423 -1.35525e-20 7.0937e-08 4.7291e-08
-0.0168423 1.35525e-20 7.09338e-08 6.50169e-09
0.0169749 -2.25875e-21 0.000303039 4.95346e-08
-0.016975 4.51751e-21 0.000302648 6.86702e-09
-0.0168731 1.12938e-21 0.0022093 1.60178e-09
0.0168731 1.12938e-21 0.00220951 2.85061e-09
0.016996 -4.51751e-21 0.000918683 1.32513e-08
-0.0169961 0 0.000917792 1.15459e-09
0.0168625 -2.03288e-20 0.00253161 3.27379e-09
-0.0168625 0 0.00253162 2.01459e-09
0.0169886 -4.51751e-21 0.00152442 2.83555e-09
-0.0169887 4.51751e-21 0.00152371 4.00111e-10
0.0170875 0 2.4605e-08 6.22131e-08
-0.0170875 0 2.46021e-08 7.546e-09
0.0169822 4.51751e-21 0.00199465 2.19443e-09
-0.0169822 4.51751e-21 0.00199427 7.12942e-10
-0.0169516 -9.03502e-21 0.00241979 2.15634e-09
0.0169517 9.03502e-21 0.00241989 3.66708e-09
-0.0169616 -1.35525e-20 0.00256534 2.21463e-09
0.0169617 -2.03288e-20 0.00256538 3.76381e-09
0.0172725 2.71051e-20 0.000609814 4.63552e-08
-0.0172727 0 0.000608963 4.30901e-09
0.017301 2.71051e-20 3.86873e-09 8.33172e-08
-0.0173011 2.71051e-20 3.86453e-09 7.94439e-09
0.0172756 0 0.0012186 5.8849e-09
-0.0172758 5.42101e-20 0.00121766 7.2868e-10
0.0172503 0 0.00183262 3.96246e-09
-0.0172504 2.71051e-20 0.00183214 8.67272e-10
-0.0171625 0 0.00263367 3.73074e-09
0.0171625 0 0.00263369 6.46936e-09
-0.0172627 -3.38813e-21 0.00228337 2.11425e-09
0.0172628 -5.64689e-22 0.00228356 4.37323e-09
0.0175152 -1.35525e-20 3.90438e-09 6.03409e-08
-0.0175152 0 3.90115e-09 9.89651e-09
0.0176166 -6.77626e-21 0.000304265 4.13509e-08
-0.0176168 4.51751e-21 0.000303958 1.02978e-08
0.0176138 1.12938e-21 0.000914505 1.20053e-08
-0.0176139 0 0.000913847 1.82264e-09
0.0175986 1.12938e-21 0.00154662 3.88373e-09
-0.0175987 1.12938e-21 0.0015461 4.97389e-10
0.0174824 0 0.00274279 7.2589e-09
-0.0174824 -1.01644e-20 0.0027428 3.84764e-09
-0.0174954 -1.69407e-21 0.00274721 3.8763e-09
0.0174955 3.72694e-20 0.00274726 7.38344e-09
0.0177275 -1.35525e-20 5.30347e-09 3.59376e-08
-0.0177276 4.06576e-20 5.30237e-09 1.12898e-08
-0.0176266 -1.807e-20 0.00211798 1.19335e-09
0.0176266 2.25875e-21 0.00211823 4.25351e-09
-0.0175733 2.25875e-21 0.00255362 3.76265e-09
0.0175734 -4.51751e-21 0.0025537 7.74928e-09
0.0179395 0 5.36713e-09 3.5179e-08
-0.0179395 0 5.36695e-09 1.13507e-08
0.0179446 -2.71051e-20 0.000602236 2.27025e-08
-0.0179448 -2.71051e-20 0.000601852 6.52291e-09
0.0179404 2.71051e-20 0.00122938 7.95893e-09
-0.0179405 0 0.00122893 1.03086e-09
-0.0179 -2.71051e-20 0.00190852 1.20821e-09
0.0179 -2.71051e-20 0.00190875 7.09552e-09
-0.0177928 0 0.00284873 5.58756e-09
0.0177928 2.71051e-20 0.00284875 1.37366e-08
-0.0179476 2.71051e-20 0.0024258 3.30832e-09
0.0179477 2.71051e-20 0.00242589 1.02814e-08
0.0181451 0 4.40341e-09 3.37148e-08
-0.0181451 0 4.40324e-09 1.18022e-08
-0.0180159 4.06576e-20 0.00292502 6.37059e-09
0.018016 0 0.00292506 1.86372e-08
0.0182715 -2.25875e-21 0.000300999 3.46057e-08
-0.0182716 -4.51751e-21 0.000300875 1.12769e-08
0.0182775 0 0.000913342 1.39531e-08
-0.0182775 -6.77626e-21 0.00091307 2.52098e-09
-0.0182702 -4.51751e-21 0.00156202 6.67364e-10
0.0182702 2.25875e-21 0.00156224 7.45228e-09
-0.0182366 -1.12938e-20 0.00214879 1.10029e-09
0.0182366 4.51751e-21 0.00214891 6.88556e-09
0.0181444 -6.77626e-21 0.00296949 1.98026e-08
-0.0181446 -6.77626e-21 0.00296953 6.42471e-09
-0.0181872 -6.77626e-22 0.00270867 5.9995e-09
0.0181872 6.77626e-22 0.00270873 1.9209e-08
0.0183921 1.35525e-20 2.43155e-09 4.21741e-08
-0.0183922 1.35525e-20 2.43148e-09 1.2422e-08
-0.0185886 0 1.46532e-09 1.27763e-08
0.0185886 0 1.46539e-09 5.59776e-08
-0.0183446 -1.35525e-20 0.00303802 6.34607e-09
0.0183446 0 0.00303804 2.16448e-08
0.0185996 -2.71051e-20 0.000595038 3.61189e-08
-0.0185997 0 0.000594918 7.38546e-09
-0.0186737 1.16165e-20 0.00129278 1.02439e-09
0.0186737 1.16165e-20 0.00129291 1.46125e-08
-0.0187703 -1.35525e-20 1.23409e-09 1.32048e-08
0.0187703 1.35525e-20 1.23413e-09 7.25751e-08
0.0185175 2.03288e-20 0.00309812 2.37788e-08
-0.0185175 6.77626e-21 0.00309812 6.42052e-09
-0.0187148 -4.51751e-21 0.00187601 6.01018e-10
0.0187148 4.51751e-21 0.00187608 1.24652e-08
-0.0186674 7.52918e-21 0.00253515 3.04034e-09
0.0186674 -3.01167e-21 0.00253519 1.62331e-08
0.018823 -1.35525e-20 0.000903657 2.18009e-08
-0.018823 4.51751e-21 0.00090356 2.83691e-09
0.0188705 -4.51751e-21 0.0002483 8.21384e-08
-0.0188706 2.25875e-21 0.000248266 1.2641e-08
-0.0186437 0 0.002939 6.36344e-09
0.0186438 0 0.00293906 2.5675e-08
-0.0189391 2.71051e-20 0.00154412 6.05954e-10
0.0189391 2.71051e-20 0.00154419 1.50895e-08
0.0187701 -9.74088e-21 0.00318665 2.49206e-08
-0.0187699 -8.47033e-22 0.00318654 6.0076e-09
0.0188367 -1.35525e-20 0.00285269 2.25545e-08
-0.0188367 -1.35525e-20 0.00285269 4.84007e-09
0.0190684 0 6.42265e-10 1.11575e-07
-0.0190684 1.35525e-20 6.42229e-10 1.35551e-08
-0.018947 0 0.00220299 5.65906e-10
0.018947 0 0.00220303 1.33418e-08
-0.0189611 -6.77626e-21 0.00294132 5.1158e-09
0.0189611 -6.77626e-21 0.00294137 2.48019e-08
-0.0192376 0 4.16948e-10 1.35643e-08
0.0192376 -2.71051e-20 4.16969e-10 1.66167e-07
0.0192505 -2.25875e-21 0.000578858 1.03611e-07
-0.0192506 1.12938e-20 0.000578833 7.93495e-09
-0.0192654 -6.77626e-21 0.00120337 1.49786e-09
0.0192654 -4.51751e-21 0.0012034 2.90723e-08
-0.0192728 4.51751e-21 0.00186871 6.68975e-10
0.0192728 1.12938e-20 0.00186874 2.71505e-08
-0.0190865 0 0.00329541 5.65747e-09
0.0190867 2.71051e-20 0.00329547 2.59869e-08
-0.0193938 0 3.58644e-10 1.33257e-08
0.0193938 -2.71051e-20 3.58662e-10 2.4151e-07
0.0193936 -2.71051e-20 0.000130553 2.3968e-07
-0.0193936 1.35525e-20 0.000130545 1.3324e-08
-0.0191339 1.35525e-20 0.00323263 5.75321e-09
0.019134 0 0.00323272 2.69847e-08
-0.0192591 4.51751e-21 0.00254519 1.96633e-09
0.0192591 2.25875e-21 0.00254522 2.52211e-08
-0.0192048 0 0.003336 7.39409e-09
0.0192049 1.35525e-20 0.00333604 3.21692e-08
-0.0193217 4.51751e-22 0.00298746 4.47327e-09
0.0193218 -9.03502e-22 0.0029875 2.5348e-08
0.0195688 0 0.000280898 2.70197e-07
-0.0195688 2.71051e-20 0.00028089 1.34422e-08
0.0195891 -2.71051e-20 0.000871761 4.34945e-08
-0.0195891 5.42101e-20 0.000871755 2.409e-09
-0.019374 0 0.0032822 7.60127e-09
0.019374 -1.35525e-20 0.00328227 3.4731e-08
-0.0196057 -2.71051e-20 0.00151348 9.2403e-10
0.0196057 0 0.0015135 3.74352e-08
-0.0193742 -2.71051e-20 0.00339404 7.96473e-09
0.0193743 0 0.00339406 3.54797e-08
-0.0196063 2.71051e-20 0.0021914 5.64085e-10
0.0196063 2.71051e-20 0.00219141 4.11881e-08
0.0197445 0 1.1881e-10 2.69827e-07
-0.0197445 0 1.1881e-10 1.28746e-08
0.0197496 1.35525e-20 0.000118775 2.686e-07
-0.0197497 2.71051e-20 0.000118767 1.2866e-08
-0.0196349 0 0.00277709 1.20746e-09
0.019635 0 0.00277712 1.73923e-08
-0.0195953 1.35525e-20 0.00324376 7.41253e-09
0.0195954 0 0.0032438 3.52378e-08
-0.0198869 1.35525e-20 6.23641e-11 1.29079e-08
0.0198869 1.35525e-20 6.23597e-11 2.56233e-07
0.0199025 0 0.000551642 1.46073e-07
-0.0199025 6.77626e-21 0.00055164 8.03858e-09
-0.0196372 -2.71051e-20 0.00348423 9.31408e-09
0.0196374 0 0.0034843 4.38142e-08
-0.0199263 7.90564e-21 0.00116493 2.56192e-09
0.0199263 -2.25875e-21 0.00116493 5.35252e-08
-0.0197065 0 0.0033997 9.31852e-09
0.0197066 1.35525e-20 0.00339978 4.52889e-08
-0.0200175 0 0.000104927 1.09995e-08
0.0200175 -1.35525e-20 0.000104918 2.19348e-07
-0.020018 0 5.47768e-11 1.09828e-08
0.0200181 0 5.47745e-11 2.19478e-07
-0.0199354 0 0.00184109 1.07213e-09
0.0199355 -5.64689e-21 0.0018411 7.2395e-08
-0.0199397 0 0.00250609 1.10234e-09
0.0199397 -1.12938e-21 0.0025061 5.79852e-08
-0.0198048 -1.35525e-20 0.00354162 1.07406e-08
0.0198049 2.71051e-20 0.00354168 5.1876e-08
-0.0199176 0 0.00307583 5.91364e-09
0.0199177 2.25875e-21 0.00307587 4.45411e-08
-0.0202108 0 0.000262551 1.04532e-08
0.0202108 2.71051e-20 0.000262544 2.15624e-07
-0.0202372 2.71051e-20 0.000828952 4.81594e-09
0.0202372 0 0.00082895 4.96219e-08
-0.0199793 1.35525e-20 0.00344741 1.21998e-08
0.0199793 -1.35525e-20 0.00344747 6.35525e-08
-0.0199876 -6.77626e-21 0.00360417 1.3663e-08
0.0199877 1.35525e-20 0.00360422 7.01132e-08
-0.0202612 -2.71051e-20 0.00146953 1.85549e-09
0.0202612 0 0.00146953 8.19817e-08
-0.0202614 -2.71051e-20 0.00216708 9.50045e-10
0.0202614 2.71051e-20 0.0021671 1.27078e-07
-0.020424 0 1.48382e-11 1.33044e-08
0.0204241 0 1.48336e-11 3.4108e-07
-0.0204263 -1.35525e-20 8.83618e-05 1.33344e-08
0.0204264 0 8.83583e-05 3.41794e-07
-0.0201258 -2.71051e-20 0.00365147 1.45857e-08
0.020126 2.03288e-20 0.00365154 7.68048e-08
-0.0202574 -2.71051e-20 0.00283409 1.674e-09
0.0202575 5.42101e-20 0.00283411 5.34686e-08
-0.02023 -1.35525e-20 0.00346726 1.36356e-08
0.0202301 -8.13152e-21 0.00346732 7.4664e-08
-0.0205366 0 8.07587e-12 1.60419e-08
0.0205367 -1.35525e-20 8.0725e-12 4.55633e-07
-0.0205431 -1.12938e-21 0.000507235 1.562e-08
0.0205431 1.12938e-21 0.000507233 2.5188e-07
-0.0205806 1.12938e-21 0.00109806 8.7277e-09
0.0205806 -1.12938e-21 0.00109806 1.02249e-07
-0.0206332 0 7.2332e-05 1.82264e-08
0.0206332 0 7.23425e-05 4.88389e-07
-0.0206362 0 7.47893e-12 1.8105e-08
0.0206362 1.35525e-20 7.47568e-12 4.84101e-07
-0.0203258 -1.35525e-20 0.00371988 1.34997e-08
0.020326 2.71051e-20 0.00371994 7.31234e-08
-0.0205919 -2.25875e-21 0.00179229 2.30305e-09
0.0205919 -3.38813e-21 0.00179229 1.74941e-07
-0.0205776 1.12938e-21 0.00251302 1.42174e-09
0.0205777 0 0.00251303 1.6025e-07
-0.0204396 1.35525e-20 0.00376155 1.33027e-08
0.0204398 0 0.00376163 7.31273e-08
-0.0204726 -1.35525e-20 0.00364922 1.31344e-08
0.0204728 4.06576e-20 0.00364928 7.39374e-08
-0.0205732 -1.50584e-21 0.00324396 7.6366e-09
0.0205733 -2.25875e-21 0.003244 8.5286e-08
-0.0208433 -2.71051e-20 0.000231572 2.1099e-08
0.0208434 2.71051e-20 0.000231569 6.16445e-07
-0.0208763 -2.71051e-20 0.000747796 2.43085e-08
0.0208763 0 0.000747794 1.01199e-07
-0.0209307 2.71051e-20 0.00137566 4.80494e-09
0.0209307 2.71051e-20 0.00137566 1.71574e-07
-0.0206256 0 0.00382199 1.24838e-08
0.0206258 6.77626e-21 0.00382207 7.1218e-08
-0.0209018 2.71051e-20 0.00213753 1.75114e-09
0.0209018 -2.71051e-20 0.00213753 3.15563e-07
-0.0207137 0 0.00385276 1.26117e-08
0.0207138 0 0.00385283 7.34154e-08
-0.0208885 0 0.00285883 1.32695e-09
0.0208886 0 0.00285885 1.58705e-07
-0.0207601 -6.77626e-21 0.00376298 1.26807e-08
0.0207602 0 0.00376308 7.55494e-08
0.0211429 9.03502e-21 0.0004345 3.63668e-07
-0.0211429 3.01167e-21 0.000434502 1.16849e-07
-0.020841 -5.27043e-21 0.00362679 1.20803e-08
0.0208411 2.25875e-21 0.00362684 7.82801e-08
-0.0208387 -6.77626e-21 0.00389825 1.24413e-08
0.0208388 1.35525e-20 0.0038983 7.29038e-08
-0.0212597 0 5.25669e-13 1.69522e-07
0.0212601 -1.05879e-20 5.19801e-13 4.93362e-07
-0.0212767 2.5411e-21 1.41099e-05 1.7188e-07
-0.0212768 0 1.74179e-06 1.72819e-07
0.0212769 -8.47033e-21 1.38726e-05 4.91722e-07
0.0212813 0 1.45875e-06 4.96654e-07
0.0212895 0 2.69474e-13 4.97099e-07
-0.0212896 0 2.7104e-13 1.73755e-07
-0.0212723 -5.64689e-22 0.000878984 8.56082e-08
0.0212724 -2.25875e-21 0.000878975 2.11824e-07
-0.0212427 -1.12938e-22 0.00171816 9.10223e-09
0.0212427 9.03502e-22 0.00171814 3.67041e-07
-0.0212146 1.12938e-21 0.00249693 1.99051e-09
0.0212146 -1.12938e-21 0.00249694 3.93998e-07
-0.0210353 0 0.00398139 1.16704e-08
0.0210355 0 0.00398146 6.9918e-08
-0.021178 2.25875e-21 0.00323686 4.51268e-09
0.0211781 0 0.00323687 1.81477e-07
-0.0210737 1.35525e-20 0.00393726 1.17986e-08
0.0210738 0 0.00393731 7.17389e-08
-0.0211186 1.35525e-20 0.00402021 1.31248e-08
0.0211188 0 0.0040203 7.74527e-08
-0.0212476 8.06698e-23 0.00368161 8.76074e-09
0.0212478 -4.03349e-22 0.00368166 8.23066e-08
-0.0215747 0 0.00130736 1.45546e-08
0.0215747 2.71051e-20 0.00130737 3.33325e-07
-0.0212486 1.35525e-20 0.00397488 1.39513e-08
0.0212488 0 0.00397493 8.41872e-08
-0.0212527 1.35525e-20 0.00408538 1.47709e-08
0.021253 -6.77626e-21 0.00408549 8.64878e-08
-0.0216407 7.52918e-22 0.00033173 2.90499e-07
0.0216408 7.52918e-22 0.000331723 3.47117e-07
-0.0215441 -2.71051e-20 0.00209926 3.63629e-09
0.0215442 2.71051e-20 0.00209926 6.68179e-07
-0.0215225 2.71051e-20 0.00284518 1.33296e-09
0.0215225 0 0.0028452 4.42552e-07
-0.0217961 0 7.94919e-14 2.65187e-07
0.0217961 1.35525e-20 7.91737e-14 4.24342e-07
-0.0215506 -2.71051e-20 0.00347094 2.12099e-09
0.0215507 0 0.00347097 9.53569e-08
-0.0214959 0 0.00395189 1.33586e-08
0.0214961 1.35525e-20 0.00395193 8.22326e-08
-0.0214983 6.77626e-21 0.00420475 1.55262e-08
0.0214984 6.77626e-21 0.00420479 9.14502e-08
-0.0218606 -1.41172e-22 0.00170493 1.00688e-08
0.0218606 8.9409e-22 0.0017049 6.70477e-07
-0.0219212 -3.38813e-21 0.000827127 1.03477e-07
0.0219212 4.51751e-22 0.00082711 3.23887e-07
-0.0219609 1.35525e-20 4.02034e-14 1.90351e-07
0.021961 -1.35525e-20 4.01314e-14 4.7525e-07
-0.0218494 -1.12938e-21 0.00247003 3.04537e-09
0.0218494 -5.64689e-22 0.00247004 8.34865e-07
-0.0216145 1.35525e-20 0.00413981 1.49805e-08
0.0216145 1.35525e-20 0.00413983 9.13185e-08
-0.0216502 1.35525e-20 0.00427857 1.47607e-08
0.0216503 0 0.00427863 8.86545e-08
-0.0218421 -1.69407e-21 0.00317495 1.9272e-09
0.0218422 -3.38813e-21 0.00317496 4.49465e-07
-0.0217324 0 0.00431835 1.47466e-08
0.0217325 0 0.00431843 8.92155e-08
-0.0217583 -1.35525e-20 0.00423555 1.45431e-08
0.0217584 1.35525e-20 0.0042356 8.96066e-08
-0.0221733 0 2.81576e-14 2.52568e-07
0.0221735 -6.77626e-21 2.80965e-14 3.50611e-07
-0.021866 7.05861e-23 0.00385234 8.47484e-09
0.0218668 0 0.00385247 1.25716e-07
-0.0222021 -2.71051e-20 0.00129532 1.953e-08
0.0222022 -2.71051e-20 0.00129532 5.76438e-07
0.0222506 -7.05861e-23 0.000330091 2.72687e-07
-0.0222517 -3.5293e-23 0.000328747 2.80926e-07
-0.0221694 5.42101e-20 0.00208071 5.14046e-09
0.0221694 0 0.00208072 1.16294e-06
-0.0218631 -1.35525e-20 0.00438174 1.39697e-08
0.0218633 1.35525e-20 0.00438183 8.65068e-08
0.0223211 0 1.21342e-14 3.25371e-07
-0.0223212 6.77626e-21 1.21355e-14 2.4831e-07
-0.0221597 -5.42101e-20 0.00282094 2.15837e-09
0.0221598 0 0.00282094 1.0671e-06
-0.0221457 -2.71051e-20 0.00350913 2.09747e-09
0.0221457 2.71051e-20 0.00350915 2.74997e-07
-0.0220148 -2.03288e-20 0.00445531 1.39656e-08
0.0220149 6.77626e-21 0.00445537 8.91772e-08
-0.0225415 0 1.22277e-15 1.64579e-07
0.0225416 0 1.23378e-15 4.42779e-07
-0.0221394 0 0.00425961 1.34971e-08
0.0221395 1.12938e-21 0.00425967 9.519e-08
-0.0224964 -2.96462e-20 0.00168456 1.19301e-08
0.0224964 -4.23516e-22 0.0016846 1.1287e-06
-0.0225021 0 0.00168479 1.19039e-08
0.0225021 0 0.00168483 1.13372e-06
0.0225129 0 0.00168799 1.14367e-06
-0.022513 0 0.00168798 1.19599e-08
-0.022576 5.42101e-21 0.000874276 8.50998e-08
0.0225761 4.51751e-21 0.000874269 5.51416e-07
-0.0225135 -1.6134e-22 0.00242345 4.86498e-09
0.0225136 8.87368e-22 0.00242345 1.42355e-06
-0.0224593 -1.12938e-21 0.00318123 2.69534e-09
0.0224593 0 0.00318124 9.644e-07
-0.0223019 -3.38813e-21 0.00459436 1.6558e-08
0.022302 -3.38813e-21 0.00459437 1.06429e-07
-0.0224349 -9.03502e-22 0.00390505 8.52979e-09
0.022435 6.77626e-21 0.00390508 2.75177e-07
-0.0228059 -1.27055e-20 8.70915e-16 1.99711e-07
0.0228061 4.23516e-22 8.77264e-16 3.49433e-07
-0.022811 -8.47033e-22 2.46647e-05 2.00789e-07
0.0228111 0 2.39222e-05 3.46859e-07
-0.0223412 0 0.00461337 1.6683e-08
0.0223413 3.38813e-21 0.00461342 1.07547e-07
0.0228141 4.23516e-22 8.58194e-16 3.50631e-07
-0.0228142 2.5411e-20 8.51408e-16 2.00142e-07
-0.0228118 -5.64689e-22 0.000334117 1.94309e-07
0.0228118 5.64689e-22 0.000334137 3.76051e-07
-0.022347 0 0.00460685 1.67395e-08
0.0223471 0 0.00460689 1.08094e-07
-0.0223545 0 0.00461977 1.69782e-08
0.0223546 0 0.00461984 1.0931e-07
-0.0223623 -3.38813e-21 0.00458505 1.65139e-08
0.0223624 1.69407e-21 0.00458505 1.10528e-07
-0.0223809 0 0.0046121 1.70385e-08
0.022381 0 0.00461216 1.10004e-07
-0.0223957 -1.69407e-21 0.00463972 1.71421e-08
0.0223958 0 0.00463983 1.09974e-07
-0.0225314 1.35525e-20 0.00433167 1.73243e-08
0.0225315 0 0.00433171 1.38454e-07
-0.0227767 -2.71051e-20 0.00282452 3.72594e-09
0.0227767 0 0.00282454 1.88308e-06
-0.0229169 2.71051e-20 0.00145351 1.42571e-08
0.022917 0 0.00145354 1.61742e-06
-0.0229127 2.71051e-20 0.001952 1.02651e-08
0.0229127 0 0.001952 1.86653e-06
-0.0227583 0 0.00352775 2.79044e-09
0.0227583 -2.71051e-20 0.00352777 6.85182e-07
-0.0226788 1.35525e-20 0.00436549 1.81919e-08
0.0226789 -6.77626e-21 0.00436553 1.53915e-07
-0.0231146 0 6.24631e-16 2.35624e-07
0.0231146 0 6.26477e-16 4.69251e-07
-0.0231263 5.64689e-22 0.000857356 1.19753e-07
0.0231264 1.12938e-21 0.000857382 7.20829e-07
-0.0231204 0 0.00168686 1.3742e-08
0.0231204 0 0.00168687 1.77097e-06
-0.0226912 0 0.00478277 1.91658e-08
0.0226912 1.35525e-20 0.00478283 1.22364e-07
-0.0231332 4.23516e-22 0.00244156 7.57803e-09
0.0231332 -8.47033e-22 0.00244157 2.37542e-06
-0.0227888 -1.35525e-20 0.00466799 1.98144e-08
0.0227889 -1.35525e-20 0.00466803 1.316e-07
-0.0230834 -1.12938e-21 0.00317456 4.5964e-09
0.0230835 1.12938e-21 0.00317458 1.80097e-06
-0.023319 0 3.10972e-16 3.63871e-07
0.0233191 6.77626e-21 3.12101e-16 3.63048e-07
-0.0230283 9.03502e-21 0.00391292 7.9375e-09
0.0230284 0 0.00391294 6.3172e-07
-0.02333 2.71051e-20 0.00142276 2.0283e-08
0.02333 0 0.00142278 1.7498e-06
-0.0233168 0 0.00194192 1.17997e-08
0.0233168 2.71051e-20 0.00194194 2.20333e-06
-0.0228965 -2.71051e-20 0.0048822 2.29899e-08
0.0228966 0 0.00488226 1.48883e-07
-0.0234102 2.25875e-21 0.000267243 3.59897e-07
0.0234102 -4.51751e-21 0.000267244 3.89599e-07
-0.0229986 7.52918e-22 0.0043906 1.44463e-08
0.0229987 -3.76459e-21 0.00439064 1.97872e-07
0.0235162 1.35525e-20 1.75957e-16 4.18246e-07
-0.0235162 6.77626e-21 1.74954e-16 3.5658e-07
-0.0234234 2.71051e-20 0.00278585 7.27419e-09
0.0234234 0 0.00278586 3.15188e-06
-0.0230651 1.35525e-20 0.00496382 2.78544e-08
0.0230652 -2.71051e-20 0.00496388 1.77719e-07
-0.0233787 2.71051e-20 0.00352562 4.49978e-09
0.0233787 -2.71051e-20 0.00352564 1.49569e-06
-0.0237161 1.35525e-20 -1.12817e-16 2.59896e-07
0.0237161 1.35525e-20 -1.126e-16 5.86226e-07
-0.0232668 -3.61401e-21 0.00471662 2.6774e-08
0.0232669 -1.35525e-21 0.00471667 1.99044e-07
-0.0233857 2.71051e-20 0.00417634 5.07266e-09
0.0233857 -2.71051e-20 0.00417637 3.08278e-07
-0.0232203 -6.77626e-21 0.00503892 2.93814e-08
0.0232204 -1.35525e-20 0.00503899 1.86966e-07
-0.0237642 -2.82344e-21 0.000871716 1.56072e-07
0.0237642 2.82344e-22 0.000871732 1.18712e-06
-0.0237897 -2.71051e-20 9.69712e-05 2.74196e-07
0.0237897 1.35525e-20 9.70283e-05 5.2396e-07
-0.0237941 1.35525e-20 4.97248e-16 2.74517e-07
0.0237942 -1.35525e-20 5.01214e-16 5.22791e-07
-0.0237454 -2.82344e-22 0.00168598 1.69289e-08
0.0237454 -1.83524e-21 0.00168599 2.4756e-06
-0.0238504 1.35525e-20 -3.63004e-16 2.67494e-07
0.0238505 0 -3.63597e-16 5.51138e-07
-0.0237771 1.35525e-21 0.00232532 1.17787e-08
0.0237772 4.06576e-21 0.00232532 3.33852e-06
-0.023345 2.71051e-20 0.00509928 2.80067e-08
0.0233451 1.35525e-20 0.00509935 1.80556e-07
-0.0237118 -5.64689e-21 0.00315193 8.76744e-09
0.0237118 -3.38813e-21 0.00315194 3.042e-06
-0.0239754 0 0.000105727 2.39013e-07
0.0239757 0 0.000105814 6.33207e-07
-0.0240029 1.35525e-20 2.3863e-16 2.36672e-07
-0.0236913 7.90564e-21 0.0038564 6.5674e-09
0.0236913 -2.25875e-21 0.00385642 1.31511e-06
0.0240032 -1.35525e-20 2.38694e-16 6.39699e-07
-0.0235265 -2.03288e-20 0.00518714 2.71898e-08
0.0235266 -1.35525e-20 0.0051872 1.79125e-07
-0.0237117 0 0.00456148 1.52002e-08
0.0237118 9.03502e-21 0.00456152 3.17393e-07
-0.0235865 6.77626e-21 0.00521624 2.6445e-08
0.0235867 -6.77626e-21 0.00521631 1.75982e-07
-0.0236569 -1.6263e-20 0.00499193 2.63322e-08
0.023657 -5.42101e-21 0.00499199 1.83248e-07
-0.0240359 -2.71051e-20 0.0027785 1.28853e-08
0.024036 0 0.00277852 4.5715e-06
-0.0240146 -2.71051e-20 0.00349448 1.00211e-08
0.0240147 2.71051e-20 0.0034945 2.89228e-06
-0.0237108 6.77626e-21 0.00516871 2.49091e-08
0.023711 0 0.00516878 1.71999e-07
-0.0237215 0 0.00528159 2.35161e-08
0.0237217 0 0.00528165 1.63046e-07
-0.0238516 -3.38813e-21 0.00489348 1.97285e-08
0.0238517 3.38813e-21 0.00489352 1.97707e-07
-0.0239976 -5.42101e-20 0.00419241 6.61136e-09
0.0239977 -2.71051e-20 0.00419244 6.65078e-07
-0.0238168 0 0.00514856 2.18932e-08
0.0238169 -6.77626e-21 0.00514863 1.68994e-07
-0.0238281 6.77626e-21 0.00525503 2.22446e-08
0.0238283 6.77626e-21 0.00525509 1.58134e-07
-0.0238429 1.35525e-20 0.00534032 2.0988e-08
0.023843 -6.77626e-21 0.00534036 1.48693e-07
-0.0243893 0 0.00171905 1.99575e-08
0.0243893 -5.42101e-20 0.00171905 3.81783e-06
-0.0239789 -2.71051e-20 0.00489875 1.73183e-08
0.023979 0 0.00489881 1.85611e-07
-0.0243696 -1.41172e-22 0.00243113 1.81869e-08
0.0243706 -1.41172e-22 0.00243196 4.9882e-06
-0.0244866 5.42101e-20 0.00051268 1.43486e-07
0.0244867 -5.42101e-20 0.000512684 9.35713e-07
-0.0243442 0 0.00312516 1.68019e-08
0.0243442 -3.38813e-21 0.00312517 4.49615e-06
-0.0239577 3.38813e-20 0.00539588 1.96082e-08
0.0239578 -2.71051e-20 0.00539595 1.42107e-07
-0.0240298 2.71051e-21 0.00521691 2.10786e-08
0.02403 -1.0842e-20 0.00521698 1.5812e-07
-0.0243197 0 0.00383765 1.33993e-08
0.0243198 -1.12938e-21 0.00383767 2.32409e-06
-0.0242836 -9.03502e-21 0.00455364 1.30807e-08
0.0242836 -6.77626e-21 0.00455368 5.95525e-07
-0.0241601 1.35525e-20 0.00549389 2.33245e-08
0.0241602 0 0.00549396 1.71203e-07
-0.0242635 3.01167e-21 0.00502115 1.6926e-08
0.0242637 3.01167e-21 0.00502121 1.99054e-07
-0.0246819 0 0.00275432 2.233e-08
0.0246819 -2.71051e-20 0.00275433 6.09164e-06
-0.0246457 2.71051e-20 0.00346491 2.13121e-08
0.0246458 0 0.00346492 4.3779e-06
-0.0243131 0 0.00556792 2.77489e-08
0.0243132 -1.35525e-20 0.00556799 1.96302e-07
-0.0249638 1.35525e-20 3.14502e-16 1.33928e-07
0.0249638 1.35525e-20 3.14469e-16 1.18709e-06
-0.0249658 1.35525e-20 0.000127061 1.32994e-07
0.0249658 4.06576e-20 0.000127084 1.19926e-06
-0.0246319 2.71051e-20 0.00416571 1.5058e-08
0.0246319 -2.71051e-20 0.00416574 1.40363e-06
-0.0250669 -6.77626e-21 0.00111391 7.72932e-08
0.025067 -6.77626e-21 0.00111391 2.96974e-06
-0.0245277 0 0.00533379 2.8006e-08
0.0245278 -4.51751e-22 0.00533385 2.15227e-07
-0.0246411 0 0.00480622 8.92097e-09
0.0246412 0 0.00480627 2.55417e-07
-0.0251264 0 -5.57162e-18 1.40873e-07
0.0251265 2.71051e-20 -5.54308e-18 1.25421e-06
-0.0244892 6.77626e-21 0.00565317 2.93622e-08
0.0244893 0 0.00565322 2.08906e-07
-0.0250457 2.25875e-21 0.00228488 3.25104e-08
0.0250457 0 0.00228489 6.06773e-06
-0.0249744 -1.41172e-21 0.00307726 3.33396e-08
0.0249744 1.12938e-21 0.00307727 6.03986e-06
-0.0245965 1.35525e-20 0.00570515 2.78535e-08
0.0245966 -2.71051e-20 0.00570519 2.03479e-07
-0.0252751 -2.71051e-20 0.000134701 1.23297e-07
-0.0249934 0 0.00376622 3.05672e-08
0.0252752 0 0.000134716 1.36801e-06
0.0249934 8.47033e-22 0.00376624 3.6143e-06
-0.0252845 1.35525e-20 -2.40066e-18 1.2328e-07
0.0252846 0 -2.39523e-18 1.36972e-06
-0.0249434 -1.12938e-21 0.00449176 2.0289e-08
0.0249434 -3.38813e-21 0.00449179 1.10364e-06
-0.0247822 3.38813e-21 0.00579502 2.6652e-08
0.0247823 -1.35525e-20 0.00579507 2.01408e-07
-0.0249665 3.01167e-21 0.00518177 1.96443e-08
0.0249666 -1.50584e-21 0.00518182 2.7192e-07
-0.0248296 -6.77626e-21 0.00581795 2.59559e-08
0.0248297 -3.38813e-21 0.00581801 1.98484e-07
-0.0249104 -5.42101e-21 0.00560274 2.58648e-08
0.0249105 -8.13152e-21 0.00560279 2.03989e-07
-0.0254015 0 0.00285469 5.95425e-08
0.0254015 5.42101e-20 0.0028547 8.25188e-06
-0.0252645 0 0.00414474 3.72085e-08
0.0252645 -2.71051e-20 0.00414475 2.33802e-06
-0.0254031 -5.42101e-20 0.00331055 5.90226e-08
0.0254031 2.71051e-20 0.00331056 7.44252e-06
-0.0249624 0 0.00577193 2.41766e-08
0.0249625 -6.77626e-21 0.00577202 1.92737e-07
-0.0249739 0 0.00588778 2.25238e-08
0.024974 0 0.00588783 1.83715e-07
-0.0252501 0 0.00482067 1.97902e-08
0.0252501 -2.71051e-20 0.00482071 4.79227e-07
-0.0257173 0 0.000556257 1.10695e-07
0.0257173 0 0.000556256 1.65106e-06
-0.0250723 6.77626e-21 0.00575396 2.15715e-08
0.0250724 1.35525e-20 0.00575407 1.829e-07
-0.0256699 -5.42101e-20 0.00175088 2.89816e-08
0.0256699 5.42101e-20 0.00175088 5.81231e-06
-0.0256382 -8.47033e-22 0.0024157 5.01515e-08
0.0256382 -1.97641e-21 0.00241571 7.48026e-06
-0.0250837 6.77626e-21 0.00586274 2.11484e-08
0.0250838 1.35525e-20 0.00586281 1.76922e-07
-0.0256079 0 0.00307876 6.39764e-08
0.0256079 0 0.00307876 8.03344e-06
-0.025098 6.77626e-21 0.00594767 1.97408e-08
0.025098 0 0.0059477 1.67158e-07
-0.0251925 2.25875e-21 0.00555311 2.04677e-08
0.0251926 1.12938e-20 0.00555317 1.93334e-07
-0.0252316 -2.71051e-20 0.00551486 1.8993e-08
0.0252317 0 0.00551494 1.82416e-07
-0.0255924 -1.50584e-21 0.0037929 6.43189e-08
0.0255924 4.51751e-21 0.00379291 4.66798e-06
-0.0252102 -2.71051e-20 0.00600189 1.8167e-08
0.0252104 -6.77626e-21 0.00600198 1.59823e-07
-0.0252817 8.13152e-21 0.00582896 1.9798e-08
0.0252819 8.13152e-21 0.00582905 1.75204e-07
-0.0255735 -1.12938e-21 0.00447397 5.30413e-08
0.0255735 0 0.00447399 1.88479e-06
-0.0258318 -2.71051e-20 0.0028448 7.41176e-08
0.0258318 -5.42101e-20 0.0028448 9.16054e-06
-0.0257993 0 0.00329834 7.56563e-08
0.0257993 2.71051e-20 0.00329835 8.24904e-06
-0.0255336 4.51751e-21 0.0051788 3.06704e-08
0.0255337 -2.25875e-21 0.00517885 4.32358e-07
-0.025412 4.06576e-20 0.00609921 2.09766e-08
0.0254122 1.35525e-20 0.00609928 1.95034e-07
-0.0255488 2.25875e-21 0.00563576 2.0389e-08
0.0255489 6.77626e-21 0.00563582 1.90699e-07
0.0262229 0 -2.45033e-18 1.96295e-06
-0.0262229 1.35525e-20 -2.47165e-18 1.09378e-07
0.0262242 0 0.000110099 1.96722e-06
-0.0262242 1.35525e-20 0.000110093 1.0926e-07
-0.025914 -2.71051e-20 0.00409942 9.34343e-08
0.025914 -2.71051e-20 0.00409944 3.85001e-06
-0.0255675 0 0.00617785 2.48474e-08
0.0255677 0 0.00617797 2.2068e-07