# kMean  POINT_DATA 27788
# x  y  z  kMean
4.23516e-22 -0.0130568 4.20108e-06 3.89843e-08
0 0.0130568 4.20422e-06 3.48243e-08
0 0.0130538 6.6649e-06 3.3979e-08
-4.23516e-22 -0.0130538 6.66028e-06 3.81591e-08
1.69407e-21 -0.0130538 0.000644839 3.74695e-08
0 0.0130538 0.000645282 2.66096e-08
0 -0.0130538 0.000659278 3.7911e-08
-8.47033e-22 0.0130538 0.000659736 2.64479e-08
0 -0.0130538 0.000674531 3.74987e-08
-8.47033e-22 0.0130538 0.000674994 2.59588e-08
0 -0.0130603 0.000649722 3.75463e-08
0 0.0130603 0.000650171 2.65281e-08
0 -0.0130603 0.000668856 3.7554e-08
0 0.0130603 0.000669319 2.60819e-08
-5.92923e-21 -0.0130709 0.000658157 4.03232e-08
1.60936e-20 0.0130709 0.000658618 2.94403e-08
0 -0.0130538 0.00133809 3.56657e-08
1.69407e-21 0.0130538 0.00133857 1.76965e-08
0 -0.0130538 0.00135468 3.60706e-08
0 0.0130538 0.00135516 1.78894e-08
0 -0.0130538 0.00137216 3.5567e-08
0 0.0130538 0.00137263 1.76418e-08
-1.69407e-21 -0.0130609 0.00134164 3.56991e-08
1.69407e-21 0.0130609 0.00134212 1.77094e-08
-1.69407e-21 -0.0130605 0.00136331 3.56223e-08
0 0.0130605 0.00136378 1.76675e-08
5.0822e-21 -0.0130744 0.00134748 3.48498e-08
1.69407e-21 0.0130744 0.00134796 1.73307e-08
0 -0.0130556 0.00208219 4.47482e-08
0 0.0130577 0.00208858 2.20569e-08
-4.23516e-22 -0.0130676 0.00208095 4.51314e-08
3.81165e-21 0.0130676 0.00208095 2.22037e-08
-6.77626e-21 -0.0133442 8.05862e-08 7.97692e-08
0 0.0133442 8.05859e-08 7.65304e-08
-3.38813e-21 -0.0133452 0.000326479 7.5738e-08
-5.64689e-21 0.0133452 0.000326736 7.14085e-08
-2.25875e-21 -0.0133372 0.000959829 4.11852e-08
-5.64689e-21 0.0133372 0.000960365 2.48702e-08
-4.51751e-21 -0.0132973 0.00155417 3.33345e-08
0 0.0132973 0.00155454 1.64766e-08
3.04932e-20 0.0132406 0.00216284 2.68813e-08
0 -0.0132406 0.00216285 5.65708e-08
6.77626e-21 -0.0132805 0.00206428 5.32082e-08
-3.38813e-21 0.0132805 0.00206425 2.52332e-08
-2.71051e-20 0.0133174 0.00219404 3.47918e-08
0 -0.0133175 0.00219406 7.27003e-08
-4.51751e-21 -0.0133831 0.00186918 4.90425e-08
0 0.0133831 0.00186936 2.33086e-08
1.35525e-20 -0.0135632 9.24961e-08 2.13212e-07
-2.71051e-20 0.0135632 9.24953e-08 1.92399e-07
-6.77626e-21 -0.0134965 0.00146605 2.18544e-08
6.77626e-21 0.0134965 0.00146649 1.03304e-08
0 -0.0136117 8.70388e-05 2.49725e-07
6.77626e-21 0.0136117 8.71003e-05 2.29912e-07
6.77626e-21 -0.0136152 8.46271e-08 2.47584e-07
0 0.0136152 8.46271e-08 2.26986e-07
1.35525e-20 -0.0136416 8.0639e-08 2.32197e-07
0 0.0136416 8.06395e-08 1.94867e-07
6.77626e-22 -0.0136355 0.000678728 1.08931e-07
2.48463e-21 0.0136355 0.000679269 8.59535e-08
-1.35525e-20 0.0134811 0.00226049 4.55022e-08
0 -0.0134812 0.00226053 9.62196e-08
2.82344e-21 -0.0136197 0.00118987 2.14307e-08
1.12938e-21 0.0136197 0.00119045 1.16241e-08
-7.52918e-22 -0.0136061 0.00162976 2.8317e-08
-4.51751e-21 0.0136061 0.00163011 1.32983e-08
1.35525e-20 0.0137235 7.39497e-08 1.73876e-07
1.35525e-20 -0.0137235 7.39483e-08 2.56898e-07
6.77626e-21 0.0137252 9.16823e-05 1.7345e-07
-6.77626e-21 -0.0137253 9.16246e-05 2.59056e-07
0 -0.0137103 0.00202484 1.00568e-07
-3.38813e-22 0.0137102 0.00202496 4.73226e-08
-6.77626e-21 0.0136752 0.0023393 5.32465e-08
6.77626e-21 -0.0136753 0.00233933 1.14245e-07
-6.77626e-21 0.0137679 0.00237692 5.49023e-08
1.35525e-20 -0.013768 0.00237696 1.18492e-07
-1.35525e-20 -0.0139849 0.000399002 2.96694e-07
0 0.0139849 0.000399313 1.72765e-07
-9.03502e-21 -0.013986 0.000912946 5.82375e-08
9.03502e-21 0.013986 0.000913447 3.68645e-08
-1.35525e-20 -0.0139545 0.00150378 2.1496e-08
-4.51751e-21 0.0139546 0.00150416 1.0065e-08
1.35525e-20 -0.0140935 0.000126371 3.55918e-07
-1.35525e-20 0.0140935 0.000126457 2.09876e-07
0 -0.0141015 1.51513e-08 3.55666e-07
0 0.0141015 1.51514e-08 2.11503e-07
2.5411e-21 -0.0139607 0.00245511 1.3606e-07
0 0.0139609 0.00245518 6.02598e-08
-2.71051e-20 -0.0141702 0.000612039 1.81213e-07
-2.71051e-20 0.0141702 0.000612472 1.21614e-07
2.71051e-20 0.0139759 0.00246127 6.05425e-08
1.69407e-20 -0.013976 0.00246129 1.37033e-07
9.31736e-21 0.0139805 0.00244911 6.05374e-08
5.92923e-21 -0.0139806 0.00244893 1.37077e-07
-2.71051e-20 -0.0141582 0.00121268 2.45059e-08
0 0.0141582 0.00121315 1.2688e-08
1.35525e-20 -0.0142137 6.98307e-09 3.54752e-07
0 0.0142137 6.98407e-09 2.40052e-07
2.71051e-20 -0.0141062 0.00185461 5.2964e-08
0 0.0141062 0.00185482 2.42371e-08
0 0.0140936 0.00222224 5.75158e-08
-4.51751e-21 -0.0140936 0.00222217 1.29086e-07
-1.35525e-20 0.0143442 6.46477e-09 2.34354e-07
0 -0.0143442 6.46386e-09 3.57791e-07
1.35525e-20 0.0141438 0.00239267 6.07584e-08
-6.77626e-21 -0.0141439 0.00239256 1.35938e-07
0 0.014345 0.000135164 2.33788e-07
-1.35525e-20 -0.014345 0.00013509 3.58094e-07
-1.35525e-20 0.0141782 0.00254345 6.09766e-08
-1.35525e-20 -0.0141783 0.00254345 1.3455e-07
-2.43945e-20 0.0144148 0.000393235 1.81197e-07
-2.71051e-21 -0.0144148 0.000392975 3.09806e-07
0 0.014293 0.00252719 5.82568e-08
6.77626e-21 -0.0142931 0.00252719 1.29518e-07
-2.03288e-20 0.0142857 0.00258696 5.72953e-08
0 -0.0142858 0.00258699 1.2765e-07
-2.25875e-21 -0.0145008 0.000915389 7.6042e-08
4.51751e-21 0.0145008 0.000915765 4.37444e-08
1.69407e-21 0.0143708 0.00229756 4.96022e-08
0 -0.0143708 0.00229749 1.09721e-07
-2.25875e-21 -0.0144715 0.00154752 2.45178e-08
0 0.0144715 0.0015478 1.14626e-08
1.35525e-20 -0.0144657 0.00205596 5.41976e-08
-4.51751e-21 0.0144657 0.00205609 2.43865e-08
0 0.0146705 0.00015054 2.06532e-07
1.35525e-20 -0.0146705 0.000150448 3.71896e-07
-1.35525e-20 0.01468 6.30535e-09 2.06299e-07
1.35525e-20 -0.01468 6.30475e-09 3.71995e-07
-2.71051e-20 -0.0144708 0.00266175 1.28801e-07
1.35525e-20 0.0144708 0.00266174 5.75834e-08
2.71051e-21 0.0145057 0.00250599 5.95357e-08
-2.71051e-21 -0.0145058 0.00250596 1.31803e-07
0 0.0148233 5.71582e-09 2.07874e-07
0 -0.0148234 5.71538e-09 3.79769e-07
6.77626e-21 -0.0148745 0.000558342 2.41628e-07
-4.51751e-21 0.0148745 0.000558581 1.34553e-07
0 -0.0147686 0.00191048 5.08674e-08
0 0.0147686 0.00191064 2.31848e-08
0 0.0146404 0.00273044 8.33767e-08
0 -0.0146404 0.00273047 1.82014e-07
-2.12968e-20 -0.0148827 0.00116851 4.30021e-08
5.80823e-21 0.0148827 0.00116882 2.28799e-08
1.35525e-20 0.0149747 4.96127e-09 2.16711e-07
2.71051e-20 -0.0149747 4.9609e-09 3.88094e-07
1.35525e-20 0.0149752 0.000142336 2.16536e-07
-1.35525e-20 -0.0149752 0.000142287 3.87958e-07
-2.25875e-21 -0.0148161 0.00236406 1.08178e-07
4.51751e-21 0.0148161 0.00236412 5.01311e-08
-9.03502e-21 -0.0150223 0.00156473 2.82013e-08
0 0.0150222 0.00156494 1.37454e-08
-2.71051e-20 0.0151424 0.000304981 2.28045e-07
0 -0.0151424 0.000304874 3.93934e-07
-1.35525e-20 0.0148918 0.00283394 9.64812e-08
-1.35525e-20 -0.0148918 0.00283398 1.98009e-07
2.71051e-20 -0.0151422 0.000920422 5.87619e-08
0 0.0151422 0.000920657 3.20298e-08
8.13152e-21 0.0150419 0.00210501 1.896e-08
-1.0842e-20 -0.0150419 0.00210492 3.86616e-08
-4.51751e-21 -0.015053 0.00270398 1.96173e-07
0 0.015053 0.00270402 9.42839e-08
0 -0.0150244 0.00288816 2.06293e-07
-2.71051e-20 0.0150245 0.0028882 1.00239e-07
1.35525e-20 0.0153086 2.24203e-09 2.33178e-07
1.35525e-20 -0.0153086 2.24182e-09 4.01826e-07
0 0.0153121 0.000140875 2.33156e-07
-1.35525e-20 -0.0153122 0.000140824 4.01817e-07
0 -0.0154577 1.48782e-09 4.05684e-07
-1.35525e-20 0.0154577 1.48795e-09 2.35587e-07
4.51751e-21 -0.0154655 0.000604019 2.35832e-07
2.25875e-21 0.0154655 0.000604165 1.35851e-07
-1.12938e-20 -0.0154631 0.00123933 4.00001e-08
-6.77626e-21 0.0154631 0.0012395 2.1627e-08
0 -0.0152755 0.00299148 2.26609e-07
2.71051e-20 0.0152755 0.0029915 1.05751e-07
2.25875e-21 -0.015469 0.0018808 2.25007e-08
2.25875e-21 0.015469 0.00188091 1.12268e-08
0 -0.0156043 1.3028e-09 4.09816e-07
-1.35525e-20 0.0156043 1.30289e-09 2.3776e-07
-2.71051e-20 -0.0156046 0.000132299 4.09642e-07
1.35525e-20 0.0156046 0.000132329 2.37626e-07
0 0.0153937 0.00303998 9.52723e-08
2.71051e-20 -0.0153938 0.00303999 2.04102e-07
1.35525e-20 0.0154261 0.0029384 9.51311e-08
-1.35525e-20 -0.0154261 0.00293835 2.04153e-07
2.25875e-21 -0.0155039 0.00256159 1.19911e-07
-7.52918e-22 0.0155039 0.00256162 5.60853e-08
0 0.0157872 0.000299952 2.43036e-07
0 -0.0157872 0.000299901 4.18e-07
-2.71051e-20 -0.0157971 0.000915013 6.43995e-08
0 0.0157971 0.000915131 3.5484e-08
0 -0.0157989 0.00156074 1.93117e-08
-2.71051e-20 0.0157989 0.00156083 1.02451e-08
6.77626e-21 0.0156182 0.00313283 9.24734e-08
-6.77626e-21 -0.0156183 0.00313287 1.97334e-07
-2.71051e-20 -0.015809 0.0022127 2.29523e-08
0 0.015809 0.00221276 1.08623e-08
0 0.0159653 5.84461e-10 2.57008e-07
-1.35525e-20 -0.0159653 5.84404e-10 4.25924e-07
-1.35525e-20 0.0159712 0.000124971 2.57178e-07
-1.35525e-20 -0.0159712 0.000124945 4.26007e-07
0 -0.0156925 0.00316351 2.01861e-07
6.77626e-21 0.0156925 0.00316352 9.46282e-08
0 -0.01572 0.00310334 2.04305e-07
-6.77626e-21 0.0157201 0.00310327 9.56254e-08
-1.20467e-20 -0.0157996 0.00293416 1.95029e-07
0 0.0157996 0.00293419 9.07808e-08
-6.77626e-21 -0.015781 0.00319986 1.99089e-07
-2.03288e-20 0.0157812 0.00319994 9.3973e-08
0 -0.0161034 4.04832e-10 4.33676e-07
0 0.0161034 4.0486e-10 2.65387e-07
-9.03502e-21 -0.016119 0.000594184 2.52371e-07
-6.77626e-21 0.016119 0.000594247 1.55157e-07
-4.51751e-21 -0.0161299 0.00122524 4.40508e-08
0 0.0161299 0.00122532 2.54181e-08
0 -0.0162343 3.59803e-10 4.38733e-07
-1.35525e-20 0.0162343 3.59826e-10 2.80819e-07
-1.35525e-20 -0.0162345 0.00011328 4.38532e-07
0 0.0162345 0.000113292 2.80461e-07
0 -0.0161352 0.00188661 2.12136e-08
4.51751e-21 0.0161352 0.00188666 1.16046e-08
2.25875e-21 -0.0161278 0.00255594 7.46996e-08
6.77626e-21 0.0161278 0.00255599 3.47484e-08
1.35525e-20 -0.0159975 0.00328828 1.85368e-07
0 0.0159976 0.00328832 8.86666e-08
0 -0.0160352 0.00323057 1.88525e-07
4.06576e-20 0.0160353 0.00323064 9.01081e-08
0 -0.0160906 0.00332631 2.22284e-07
1.35525e-20 0.0160907 0.00332633 1.08813e-07
-2.71051e-20 -0.0164377 0.00029234 4.46852e-07
-2.71051e-20 0.0164377 0.000292357 2.95193e-07
-2.71051e-20 -0.0164552 0.000897699 6.915e-08
0 0.0164552 0.000897745 4.14042e-08
-1.35525e-21 -0.0162066 0.0029897 1.49089e-07
2.25875e-21 0.0162067 0.00298974 7.15058e-08
-2.71051e-20 -0.0164658 0.00154123 2.24581e-08
0 0.0164658 0.00154127 1.40446e-08
1.35525e-20 0.0162526 0.00328164 1.16801e-07
0 -0.0162527 0.0032816 2.35252e-07
0 0.0162526 0.00339239 1.21206e-07
1.35525e-20 -0.0162526 0.00339241 2.41824e-07
0 -0.0164656 0.00220947 1.98454e-08
0 0.0164656 0.00220951 1.11364e-08
0 0.0166389 1.04271e-10 3.06845e-07
0 -0.0166389 1.04267e-10 4.55896e-07
0 0.0166447 0.000100575 3.06882e-07
-1.35525e-20 -0.0166447 0.000100568 4.55951e-07
-2.71051e-20 -0.0165065 0.00278869 4.24477e-08
-2.71051e-20 0.0165065 0.00278872 2.06864e-08
0 -0.0167551 6.1842e-11 4.6466e-07
1.35525e-20 0.0167551 6.18409e-11 3.18918e-07
-2.25875e-21 -0.0167741 0.000577096 2.69932e-07
4.51751e-21 0.0167741 0.000577118 1.84419e-07
2.71051e-20 -0.0164727 0.00325225 2.32315e-07
2.71051e-20 0.0164728 0.00325227 1.17773e-07
1.12938e-21 -0.0167927 0.00119999 4.88078e-08
1.12938e-21 0.0167928 0.00120002 3.29736e-08
0 -0.0164932 0.00349062 2.70861e-07
1.35525e-20 0.0164934 0.00349067 1.40961e-07
-1.35525e-20 -0.0168627 5.6253e-11 4.68384e-07
-1.35525e-20 0.0168627 5.62518e-11 3.31072e-07
0 -0.0168631 9.00351e-05 4.68229e-07
-1.35525e-20 0.0168631 9.00377e-05 3.30727e-07
-1.12938e-21 -0.0167971 0.00186718 2.41183e-08
3.38813e-21 0.0167971 0.0018672 1.77163e-08
0 -0.0165645 0.00339838 2.72265e-07
0 0.0165646 0.00339847 1.41982e-07
2.25875e-21 -0.0168038 0.00251859 3.42054e-08
-1.12938e-21 0.0168039 0.00251861 2.06939e-08
-2.71051e-20 -0.0166657 0.003561 2.94092e-07
0 0.0166658 0.00356102 1.57254e-07
0 -0.0167839 0.00309024 1.76003e-07
-6.77626e-21 0.016784 0.00309026 9.38236e-08
5.42101e-20 0.0170872 0.000280478 3.42098e-07
2.71051e-20 -0.0170872 0.000280474 4.77325e-07
0 -0.0171093 0.000869706 7.40297e-08
0 0.0171094 0.000869716 5.16599e-08
0 -0.0171238 0.0015109 2.86759e-08
2.71051e-20 0.0171238 0.00151092 2.41912e-08
-6.77626e-21 0.0168547 0.00363794 2.02453e-07
2.03288e-20 -0.0168548 0.00363795 3.67986e-07
2.71051e-20 -0.0171215 0.00218644 2.54553e-08
-2.71051e-20 0.0171216 0.00218645 2.14344e-08
0 -0.0173128 1.50028e-11 4.92054e-07
-1.35525e-20 0.0173128 1.50016e-11 3.08007e-07
1.35525e-20 0.017316 7.61098e-05 3.07569e-07
0 -0.017316 7.61078e-05 4.92073e-07
4.51751e-21 -0.0169937 0.00347014 3.56789e-07
0 0.0169937 0.00347019 1.96181e-07
-2.03288e-20 -0.0169518 0.00367748 3.80986e-07
2.03288e-20 0.0169519 0.00367752 2.11457e-07
-5.42101e-20 -0.0171192 0.00284365 4.79917e-08
2.71051e-20 0.0171192 0.00284368 2.94621e-08
0 0.0174041 1.00273e-11 3.06622e-07
0 -0.0174041 1.00286e-11 5.03713e-07
-1.12938e-21 -0.0174225 0.000552281 2.91527e-07
0 0.0174225 0.000552286 1.70073e-07
1.12938e-21 -0.0174464 0.00116236 5.6928e-08
0 0.0174464 0.00116237 4.4675e-08
0 -0.0174883 9.27754e-12 5.04571e-07
1.35525e-20 0.0174883 9.27624e-12 2.59579e-07
0 -0.0174886 6.91534e-05 5.04498e-07
1.35525e-20 0.0174886 6.91578e-05 2.59717e-07
1.12938e-21 -0.0174523 0.00183361 3.42767e-08
-1.12938e-21 0.0174523 0.00183363 3.84347e-08
4.06576e-20 0.0171554 0.00376035 1.94356e-07
1.35525e-20 -0.0171554 0.00376034 3.44148e-07
2.25875e-21 -0.0174395 0.00252755 4.16983e-08
2.25875e-21 0.0174395 0.00252757 3.91444e-08
0 -0.0172701 0.00381183 3.28639e-07
0 0.0172701 0.00381183 1.90057e-07
1.35525e-20 0.0173096 0.0036891 1.90874e-07
-1.35525e-20 -0.0173096 0.00368906 3.32199e-07
1.50584e-21 -0.0174174 0.00327288 2.10089e-07
4.89397e-21 0.0174174 0.00327291 1.23503e-07
2.71051e-20 -0.0177262 0.000264489 5.18707e-07
2.71051e-20 0.0177262 0.000264491 2.24631e-07
0 -0.0177529 0.000830839 8.1904e-08
2.71051e-20 0.0177529 0.000830843 5.05958e-08
0 -0.0177737 0.00146633 4.16907e-08
0 0.0177737 0.00146634 5.07583e-08
-2.03288e-20 0.0174674 0.00388876 1.75857e-07
-1.35525e-20 -0.0174675 0.00388877 3.01775e-07
-2.71051e-20 -0.0177694 0.00215825 4.10406e-08
0 0.0177694 0.00215826 5.67404e-08
-6.77626e-21 -0.0175188 0.00391124 3.01533e-07
0 0.017519 0.0039113 1.75846e-07
-3.38813e-21 -0.0175509 0.00385321 3.05787e-07
-3.38813e-21 0.0175511 0.00385308 1.77648e-07
-5.42101e-20 -0.0177413 0.00287705 5.15554e-08
2.71051e-20 0.0177414 0.00287708 4.92635e-08
-6.77626e-21 0.0179809 1.39465e-12 3.85741e-07
-6.77626e-21 -0.0179809 1.39504e-12 5.65573e-07
1.35525e-20 0.017982 5.25092e-05 3.86074e-07
6.77626e-21 -0.017982 5.25067e-05 5.65627e-07
0 -0.0175787 0.00394073 2.91655e-07
-1.35525e-20 0.017579 0.0039409 1.72321e-07
-4.51751e-21 -0.01766 0.00367697 3.00596e-07
3.01167e-21 0.01766 0.00367702 1.72945e-07
-6.77626e-21 -0.0180462 7.99821e-13 5.87035e-07
6.77626e-21 0.0180462 7.99456e-13 4.4677e-07
-2.25875e-21 -0.0180586 0.000513285 3.46237e-07
-3.38813e-21 0.0180586 0.000513288 2.61627e-07
6.77626e-21 -0.0181035 4.49129e-05 5.9614e-07
0 0.0181035 4.49204e-05 4.88066e-07
0 -0.0181053 7.64927e-13 5.95084e-07
0 0.0181054 7.64553e-13 4.85528e-07
-2.25875e-22 0.0181062 0.00109872 8.57973e-08
2.25875e-22 -0.0181062 0.00109871 8.48155e-08
0 -0.0181012 0.00178214 5.88617e-08
-1.69407e-21 0.0181012 0.00178214 1.00029e-07
-1.12938e-21 -0.0180748 0.00251396 6.19099e-08
-1.12938e-21 0.0180748 0.00251397 1.04022e-07
-1.35525e-20 -0.0177924 0.00406323 2.49494e-07
0 0.0177926 0.00406332 1.5329e-07
0 -0.0178459 0.00400227 2.55129e-07
0 0.017846 0.00400239 1.56412e-07
-4.51751e-21 -0.0180178 0.00326611 1.35059e-07
-6.77626e-21 0.0180179 0.00326616 1.13008e-07
0 -0.0183483 0.000235222 6.42805e-07
2.71051e-20 0.0183483 0.000235228 6.47898e-07
0 -0.0178961 0.00412296 2.71294e-07
0 0.0178962 0.004123 1.68277e-07
2.71051e-20 0.0183931 0.00076447 9.88574e-08
0 -0.0183931 0.000764464 1.17857e-07
-2.25875e-22 -0.0180567 0.00374589 2.05147e-07
-4.51751e-22 0.0180567 0.00374594 1.34029e-07
2.71051e-20 -0.0184337 0.00138079 7.28212e-08
0 0.0184337 0.0013808 1.21692e-07
0 -0.0184036 0.00212468 7.97145e-08
2.71051e-20 0.0184036 0.00212468 1.69616e-07
3.38813e-21 -0.0185327 3.11692e-13 6.17076e-07
-6.77626e-21 0.0185328 3.11508e-13 4.95613e-07
0 0.0180755 0.00422628 1.81033e-07
1.35525e-20 -0.0180755 0.00422633 2.80927e-07
2.71051e-20 -0.0183781 0.00285998 7.51701e-08
5.42101e-20 0.0183781 0.00285999 1.41243e-07
-5.64689e-22 -0.0186584 0.000460862 4.46088e-07
2.25875e-21 0.0186584 0.000460867 3.76421e-07
1.35525e-20 -0.0181752 0.00428374 2.76697e-07
6.77626e-21 0.0181755 0.00428388 1.80131e-07
0 -0.0182334 0.00409647 2.72917e-07
-4.51751e-21 0.0182335 0.00409657 1.74787e-07
0 -0.0183786 0.00352144 6.9994e-08
-2.71051e-20 0.0183786 0.00352149 7.65155e-08
3.38813e-21 -0.018738 2.24864e-13 6.33349e-07
0 0.018738 2.24779e-13 5.28181e-07
3.38813e-21 -0.0187383 1.85704e-05 6.33546e-07
3.38813e-21 0.0187383 1.85635e-05 5.28085e-07
-3.38813e-21 -0.0187394 0.000144213 5.78507e-07
-3.38813e-21 0.0187394 0.000144178 4.79268e-07
-3.38813e-21 -0.0187638 5.24913e-14 6.35812e-07
-3.38813e-21 0.0187638 5.2518e-14 5.24133e-07
3.38813e-21 0.018782 1.52393e-05 5.38345e-07
0 -0.018782 1.5244e-05 6.41849e-07
-3.38813e-21 0.0187835 4.19052e-14 5.39002e-07
3.38813e-21 -0.0187835 4.18701e-14 6.42038e-07
5.64689e-23 0.0187413 0.0017483 2.75228e-07
5.64689e-23 -0.0187413 0.00174835 1.13467e-07
3.38813e-21 0.0188423 3.06821e-14 5.29712e-07
0 -0.0188423 3.06421e-14 6.51608e-07
-4.51751e-21 0.0188305 0.000950992 2.2795e-07
-2.25875e-21 -0.0188305 0.000950983 2.55389e-07
0 -0.0183688 0.00439528 2.54933e-07
0 0.0183689 0.00439535 1.64735e-07
-5.64689e-22 -0.0187533 0.00244388 1.29423e-07
0 0.0187533 0.00244392 3.26163e-07
0 -0.0186868 0.0032017 1.05741e-07
-2.25875e-21 0.0186868 0.00320172 2.25816e-07
1.35525e-20 -0.0184806 0.00445983 2.45446e-07
1.35525e-20 0.0184807 0.00445985 1.60619e-07
-1.35525e-20 -0.0185303 0.00433131 2.47796e-07
1.35525e-20 0.0185303 0.00433142 1.61182e-07
-7.52918e-22 -0.0186604 0.00393307 1.76141e-07
2.25875e-21 0.0186604 0.0039331 1.58062e-07
1.12938e-21 -0.0191244 0.000340856 6.17584e-07
-2.82344e-22 0.0191244 0.000340868 3.59437e-07
1.35525e-20 0.0192203 9.49176e-15 4.15501e-07
0 -0.0192203 9.47246e-15 6.61498e-07
0 0.0191645 0.00146332 5.16867e-07
-2.71051e-20 -0.0191645 0.00146333 1.72835e-07
0 -0.0190143 0.00283766 1.82167e-07
0 0.0190143 0.00283768 4.63831e-07
-1.69407e-21 0.0186824 0.00457622 1.44992e-07
1.01644e-20 -0.0186825 0.00457626 2.26327e-07
1.69407e-21 -0.0187038 0.00458858 2.26391e-07
0 0.0187039 0.00458863 1.44665e-07
-2.71051e-20 0.01916 0.00195764 5.77106e-07
0 -0.01916 0.00195763 1.91001e-07
1.69407e-21 -0.0187213 0.00456183 2.27843e-07
0 0.0187215 0.00456168 1.4532e-07
-1.18585e-20 -0.0187278 0.00460243 2.23738e-07
-8.47033e-21 0.0187281 0.00460258 1.43552e-07
0 -0.0189854 0.00354595 1.02125e-07
0 0.0189854 0.00354598 2.42543e-07
0 -0.0188773 0.00434108 2.27132e-07
-3.01167e-21 0.0188774 0.00434115 1.49256e-07
-3.59989e-21 -0.0193794 0.000836844 4.31795e-07
-1.69407e-21 0.0193797 0.000837393 3.46557e-07
-5.73865e-20 -0.0193888 0.000856836 4.25101e-07
2.75286e-21 0.0193834 0.000855823 3.46565e-07
-2.11758e-21 0.0194038 0.000856698 3.62153e-07
-2.32934e-21 -0.0194042 0.000856742 4.31646e-07
-1.35525e-20 0.0194237 1.55386e-15 4.5362e-07
1.35525e-20 -0.0194238 1.53919e-15 7.73049e-07
0 -0.0193728 0.00168997 2.19336e-07
0 0.0193728 0.00168998 6.29174e-07
1.41172e-21 0.0193778 0.00244583 1.00195e-06
2.82344e-22 -0.0193778 0.00244582 3.04629e-07
-1.35525e-20 -0.0189666 0.0047402 1.93739e-07
-1.35525e-20 0.0189667 0.00474028 1.25546e-07
-1.12938e-21 -0.0193197 0.00318392 2.48969e-07
-2.25875e-21 0.0193197 0.00318394 7.93173e-07
0 -0.0190326 0.00467124 1.98258e-07
1.35525e-20 0.0190327 0.00467137 1.286e-07
-2.71051e-20 0.0195819 0.00142144 6.61814e-07
0 -0.0195819 0.00142144 2.52617e-07
0 -0.0192551 0.00392917 1.76704e-07
9.03502e-21 0.0192551 0.00392922 3.96259e-07
6.77626e-21 -0.0196529 3.98809e-16 7.48917e-07
-6.77626e-21 0.019653 4.05019e-16 3.52579e-07
-2.71051e-20 -0.0195685 0.0019371 2.83226e-07
2.71051e-20 0.0195685 0.00193711 8.71163e-07
2.71051e-20 -0.0190799 0.00480555 2.12814e-07
-2.71051e-20 0.0190799 0.00480559 1.41425e-07
0 0.0197212 0.00026999 3.77465e-07
-2.25875e-21 -0.0197213 0.000269871 8.05291e-07
0 -0.0192753 0.0044119 1.77256e-07
-9.03502e-22 0.0192753 0.00441194 1.79637e-07
-3.38813e-21 0.019834 4.73089e-16 4.03984e-07
-3.38813e-21 -0.0198344 4.6802e-16 8.45129e-07
-6.77626e-21 0.0192476 0.00490233 1.6016e-07
0 -0.0192477 0.00490234 2.28037e-07
0 -0.0196698 0.00278682 4.48282e-07
0 0.0196698 0.00278683 1.47842e-06
-2.71051e-20 -0.0196164 0.00353233 2.67561e-07
0 0.0196164 0.00353236 9.90521e-07
-1.35525e-20 -0.0193208 0.00494455 2.22721e-07
-1.35525e-20 0.019321 0.00494463 1.58358e-07
4.51751e-21 -0.0194217 0.00475372 2.16225e-07
4.51751e-21 0.0194217 0.0047538 1.50833e-07
0 0.0200351 -3.30531e-17 5.04878e-07
-1.35525e-20 -0.0200351 -3.31475e-17 1.00875e-06
2.25875e-21 0.0200397 0.000879641 9.73212e-07
-2.5411e-21 -0.0200397 0.000879689 7.22711e-07
0 -0.0196209 0.00418595 1.17431e-07
-2.71051e-20 0.019621 0.00418598 3.15935e-07
-2.82344e-22 0.0200082 0.001684 1.8407e-06
5.64689e-22 -0.0200082 0.00168399 3.60223e-07
0 -0.0200926 6.73445e-05 1.02237e-06
0 0.0200927 6.74618e-05 4.78821e-07
0 -0.0200965 -8.39099e-19 1.02288e-06
0 0.0200966 -7.09534e-19 4.79199e-07
0 -0.0201334 8.4998e-18 1.0424e-06
0 0.0201335 8.62606e-18 4.93966e-07
2.71051e-20 -0.0195081 0.00505258 1.96057e-07
-1.35525e-20 0.0195081 0.00505262 1.39988e-07
0 0.0200347 0.00229462 2.53084e-06
-2.25875e-21 -0.0200347 0.0022946 5.48373e-07
9.03502e-22 -0.0199605 0.00311668 5.89534e-07
-1.12938e-21 0.0199605 0.00311671 2.56119e-06
0 -0.020225 6.93279e-05 1.11226e-06
0 0.0202253 6.94576e-05 5.04607e-07
-1.35525e-20 -0.0202304 -1.78061e-17 1.11233e-06
1.35525e-20 0.0202307 -1.76953e-17 5.04596e-07
-1.12938e-21 -0.0199314 0.00385542 3.54066e-07
3.38813e-21 0.0199314 0.00385544 1.56294e-06
-6.77626e-21 0.0196737 0.00514811 1.46631e-07
-1.35525e-20 -0.0196737 0.00514812 1.93407e-07
1.807e-21 -0.0198941 0.00456695 1.811e-07
-9.03502e-22 0.0198941 0.00456697 4.70125e-07
0 -0.0197657 0.00520119 1.82922e-07
1.35525e-20 0.0197657 0.00520124 1.43525e-07
9.03502e-21 -0.0198219 0.00501114 1.79758e-07
0 0.0198219 0.00501119 1.37654e-07
-2.71051e-20 -0.0202897 0.00277314 8.97305e-07
0 0.0202897 0.00277314 4.2023e-06
0 -0.0202612 0.00349046 7.53743e-07
2.71051e-20 0.0202612 0.00349047 3.54523e-06
0 0.0199065 0.00528242 1.22736e-07
2.71051e-20 -0.0199065 0.00528242 1.4183e-07
0 -0.0202451 0.00417935 3.03166e-07
0 0.0202451 0.00417938 1.51806e-06
5.42101e-20 0.0206574 0.00171968 4.11644e-06
5.42101e-20 -0.0206574 0.00171968 5.60849e-07
4.51751e-21 -0.0201293 0.004986 1.32293e-07
1.50584e-21 0.0201293 0.00498603 2.05225e-07
0 0.0200532 0.00536706 1.37424e-07
-6.77626e-21 -0.0200532 0.00536708 1.31733e-07
0 -0.0206314 0.00242245 1.16199e-06
-5.64689e-22 0.0206314 0.00242249 6.57876e-06
5.42101e-20 0.0207755 0.000514881 8.12786e-07
0 -0.0207756 0.000514862 1.47074e-06
0 -0.0205987 0.00311576 1.28537e-06
-1.12938e-21 0.0205987 0.00311576 7.01592e-06
-2.71051e-20 -0.0203105 0.00476265 9.79846e-08
0 0.0203105 0.00476269 3.59722e-07
-6.77626e-21 -0.0201708 0.00543492 1.26838e-07
2.03288e-20 0.0201709 0.00543498 1.4723e-07
-4.51751e-21 -0.0202177 0.00527681 1.27227e-07
-4.51751e-21 0.0202177 0.00527687 1.3694e-07
-1.12938e-21 -0.0205738 0.00381737 9.71131e-07
1.12938e-21 0.0205738 0.00381738 5.24036e-06
4.51751e-21 -0.0205819 0.00447085 4.5229e-07
0 0.0205819 0.00447087 2.29327e-06
0 -0.0203369 0.00553075 1.21057e-07
0 0.0203371 0.00553081 1.51492e-07
-2.71051e-20 -0.0209426 0.00274697 1.74954e-06
0 0.0209426 0.00274698 1.01856e-05
0 -0.0209032 0.00344943 1.71684e-06
8.13152e-20 0.0209032 0.00344944 9.94567e-06
-1.35525e-20 -0.0204447 0.0055929 1.22311e-07
-1.35525e-20 0.0204447 0.00559292 1.63758e-07
1.35525e-20 -0.0204858 0.00548981 1.22058e-07
0 0.0204858 0.00548988 1.62171e-07
7.52918e-22 -0.0206004 0.00512924 1.59214e-07
2.25875e-21 0.0206004 0.00512925 5.03886e-07
2.71051e-20 -0.0208995 0.004126 1.11208e-06
-2.71051e-20 0.0208995 0.00412602 5.93835e-06
1.35525e-20 0.0213128 8.97542e-05 3.54262e-06
1.35525e-20 -0.0213128 8.9712e-05 1.4134e-06
1.35525e-20 0.0213193 -2.80333e-18 3.54156e-06
-1.35525e-20 -0.0213194 -2.88788e-18 1.4134e-06
4.51751e-21 0.0213562 0.00112751 6.65976e-06
-2.25875e-21 -0.0213563 0.0011275 1.0742e-06
2.03288e-20 0.0206272 0.00569817 1.79776e-07
-6.77626e-21 -0.0206273 0.00569821 1.11465e-07
2.71051e-20 -0.0208932 0.00478631 3.50767e-07
0 0.0208932 0.00478633 1.64626e-06
1.12938e-21 0.0213143 0.00228572 1.2077e-05
3.38813e-21 -0.0213143 0.00228571 1.59348e-06
0 0.02144 1.08456e-18 3.93788e-06
-1.35525e-20 -0.0214401 1.08449e-18 1.41081e-06
0 -0.0206784 0.00572772 1.11952e-07
0 0.0206785 0.00572775 1.85433e-07
1.41172e-22 -0.0212371 0.00307351 2.13574e-06
-2.82344e-22 0.0212371 0.00307352 1.30718e-05
0 -0.0207149 0.00567146 1.13392e-07
0 0.020715 0.00567136 1.861e-07
6.77626e-21 -0.0207375 0.00576179 1.0954e-07
6.77626e-21 0.0207376 0.00576188 2.06513e-07
1.50584e-21 -0.0208293 0.00551232 1.19036e-07
3.01167e-21 0.0208293 0.00551235 2.16593e-07
0 -0.0215471 0.000109115 1.41511e-06
0 0.0215471 0.000109145 4.23053e-06
0 0.0215566 9.65884e-19 4.23065e-06
-1.35525e-20 -0.0215566 9.65605e-19 1.41507e-06
4.94103e-22 -0.0212592 0.00373091 2.14399e-06
-5.99982e-22 0.0212592 0.00373092 1.20988e-05
-3.38813e-21 -0.0212042 0.00445828 1.37588e-06
0 0.0212042 0.00445829 7.08094e-06
0 -0.0209535 0.0058866 9.5284e-08
-1.35525e-20 0.0209535 0.00588664 2.54404e-07
2.25875e-21 -0.0211675 0.00514624 4.68676e-07
-2.25875e-21 0.0211675 0.00514627 2.02685e-06
-1.35525e-20 -0.0210048 0.00583271 9.76936e-08
0 0.0210048 0.00583278 2.62861e-07
0 0.0216644 0.00284434 1.87872e-05
2.71051e-20 -0.0216644 0.00284434 2.81397e-06
2.71051e-20 -0.0210555 0.00594567 1.09142e-07
0 0.0210555 0.00594567 3.34922e-07
-2.71051e-20 0.0216616 0.00329946 1.92517e-05
-2.71051e-20 -0.0216616 0.00329945 3.15175e-06
0 -0.0215297 0.00411132 2.80255e-06
-2.71051e-20 0.0215297 0.00411133 1.51568e-05
1.12938e-21 -0.0212154 0.00559337 1.58383e-07
1.12938e-21 0.0212154 0.0055934 5.74137e-07
5.42101e-20 0.0219546 0.00177015 1.48374e-05
5.42101e-20 -0.0219546 0.00177015 8.72171e-07
-5.42101e-20 0.0220217 0.000571054 6.83575e-06
0 -0.0220218 0.000571066 1.36398e-06
0 -0.0215068 0.00478713 1.30056e-06
2.71051e-20 0.0215068 0.00478716 5.95671e-06
-5.64689e-22 0.0219097 0.00242093 1.93331e-05
0 -0.0219097 0.00242092 2.45394e-06
6.77626e-21 0.021227 0.00604556 5.13684e-07
-6.77626e-21 -0.0212271 0.00604561 1.21569e-07
0 -0.0218721 0.0030677 3.45163e-06
0 0.0218721 0.0030677 2.17365e-05
0 -0.0215266 0.00539882 3.06453e-07
0 0.0215266 0.00539885 1.30626e-06
-4.51751e-21 -0.021392 0.00594167 1.17829e-07
-9.03502e-21 0.021392 0.00594175 5.1048e-07
0 0.0218838 0.00375445 2.05368e-05
4.23516e-22 -0.0218838 0.00375445 4.32684e-06
-1.35525e-20 -0.0213574 0.00612127 1.23786e-07
0 0.0213576 0.00612138 5.85284e-07
-1.12938e-21 -0.0218345 0.00443965 3.4784e-06
0 0.0218345 0.00443967 1.47314e-05
-2.71051e-20 -0.0221011 0.00283877 3.75523e-06
2.71051e-20 0.0221011 0.00283877 2.52498e-05
0 -0.0220656 0.0032889 4.25228e-06
-2.71051e-20 0.0220656 0.00328891 2.49812e-05
1.12938e-21 -0.0218182 0.00510344 1.66281e-06
2.25875e-21 0.0218183 0.00510346 6.37635e-06
0 -0.0215448 0.00623065 1.1925e-07
-1.35525e-20 0.0215448 0.00623071 5.75147e-07
-1.35525e-20 0.0225384 9.17221e-05 1.78905e-05
0 -0.0225384 9.1706e-05 1.20066e-06
1.35525e-20 0.0225403 1.79113e-19 1.78069e-05
0 -0.0225404 1.78128e-19 1.20193e-06
0 0.0216442 0.0063096 5.97322e-07
-1.35525e-20 -0.0216442 0.00630959 1.24112e-07
-2.71051e-20 -0.0221735 0.00407695 5.93088e-06
0 0.0221736 0.00407697 2.30307e-05
0 0.0216896 0.0061912 5.96398e-07
-1.35525e-20 -0.0216897 0.00619112 1.22457e-07
3.76459e-22 -0.0218103 0.00580094 4.00325e-07
-7.52918e-22 0.0218103 0.00580096 1.39849e-06
0 0.0225989 0.00115695 2.25095e-05
4.51751e-21 -0.0225989 0.00115695 1.07033e-06
0 0.0226373 8.21489e-20 1.96947e-05
0 -0.0226373 8.09862e-20 1.16922e-06
5.42101e-20 -0.0221353 0.00476853 3.91493e-06
-2.71051e-20 0.0221353 0.00476855 1.49328e-05
2.25875e-21 0.022582 0.00236336 2.66277e-05
-4.51751e-21 -0.022582 0.00236336 2.96876e-06
5.50571e-21 0.0225009 0.00305827 2.68186e-05
8.89385e-21 -0.022501 0.00305827 4.64656e-06
-3.38813e-20 0.0225096 0.00305557 2.69171e-05
-1.65171e-20 -0.0225142 0.0030581 4.6673e-06
0 -0.0227255 8.81878e-05 1.15266e-06
-1.35525e-20 0.0227256 8.82072e-05 2.09762e-05
-1.35525e-20 -0.0227307 3.10197e-20 1.15247e-06
-1.35525e-20 0.0227308 3.16342e-20 2.09869e-05
0 0.0218385 0.00644695 6.14779e-07
3.38813e-21 -0.0218386 0.00644701 1.1175e-07
0 -0.0221179 0.00543869 1.30738e-06
0 0.0221179 0.00543873 3.96393e-06
1.69407e-21 -0.0218565 0.0064596 1.11906e-07
1.69407e-21 0.0218565 0.00645965 6.19579e-07
0 -0.0218724 0.00643784 1.12274e-07
0 0.0218726 0.00643772 6.2221e-07
0 -0.0218744 0.00647341 1.10902e-07
3.38813e-21 0.0218746 0.00647358 6.17264e-07
0 -0.0225287 0.00364569 6.63239e-06
-1.807e-21 0.0225287 0.00364571 2.56767e-05
1.12938e-21 -0.0224649 0.00441818 7.0952e-06
-5.64689e-22 0.022465 0.00441819 2.17597e-05
-3.01167e-21 -0.0220386 0.00622588 1.44836e-07
-3.01167e-21 0.0220386 0.00622594 7.02885e-07
0 -0.0224373 0.00510162 4.59858e-06
-1.12938e-21 0.0224374 0.00510164 1.25156e-05
0 -0.022069 0.00662861 9.37118e-08
-1.35525e-20 0.0220691 0.00662869 5.99216e-07
-1.35525e-20 -0.0221728 0.00656824 9.59894e-08
-2.71051e-20 0.0221729 0.00656835 6.08622e-07
-4.51751e-21 -0.0223901 0.00581141 1.64292e-06
0 0.0223901 0.00581147 3.73378e-06
2.71051e-20 -0.0227864 0.00407104 9.74296e-06
0 0.0227864 0.00407104 2.69457e-05
-1.35525e-20 -0.0221653 0.00670526 9.39583e-08
-1.35525e-20 0.0221653 0.0067053 5.60194e-07
0 0.0232274 0.000581677 3.26226e-05
0 -0.0232275 0.000581678 9.80404e-07
0 -0.0227665 0.00474853 8.72363e-06
-5.42101e-20 0.0227666 0.00474854 2.19981e-05
0 0.0231993 0.00176868 3.60932e-05
0 -0.0231993 0.00176868 1.05323e-06
-1.35525e-20 -0.0222608 0.00678087 9.52149e-08
-1.35525e-20 0.0222609 0.00678088 5.22331e-07
-1.35525e-20 -0.0223061 0.0066761 9.70227e-08
1.35525e-20 0.0223061 0.00667615 5.50199e-07
7.26028e-22 -0.0224559 0.00637514 3.63999e-07
-8.06698e-22 0.0224559 0.00637519 1.00193e-06