# kMean  POINT_DATA 52106
# x  y  z  kMean
0.015557 -1.35525e-20 5.70113e-08 1.62808e-08
-0.015557 1.35525e-20 5.70113e-08 3.95262e-10
-0.015557 -6.77626e-21 0.000135948 3.96619e-10
0.015557 0 0.000135964 1.67522e-08
-0.015557 6.77626e-21 0.000527058 4.77618e-10
0.015557 6.77626e-21 0.000527125 1.4426e-08
-0.015557 1.35525e-20 0.000659558 5.33397e-10
0.015557 -1.35525e-20 0.000659639 1.23789e-08
-0.0155569 0 0.000798557 5.9862e-10
0.015557 0 0.000798637 1.08229e-08
-0.0155569 6.77626e-21 0.00121614 6.74654e-10
0.0155569 0 0.00121623 8.27553e-09
-0.0155569 -6.77626e-21 0.00135476 6.63845e-10
0.0155569 0 0.00135485 8.09786e-09
-0.0156159 6.77626e-21 6.65977e-05 3.90277e-10
0.0156159 -6.77626e-21 6.66114e-05 1.64064e-08
0.015617 -6.77626e-21 5.8671e-08 1.64103e-08
-0.015617 0 5.86705e-08 3.90349e-10
-0.0156133 0 0.000593966 4.99154e-10
0.0156133 6.77626e-21 0.00059404 1.3302e-08
0.0156101 0 0.000721026 1.15256e-08
-0.0156101 6.77626e-21 0.000720945 5.59099e-10
-0.0155569 -6.77626e-21 0.00150199 6.64218e-10
0.0155569 0 0.00150206 8.10277e-09
-0.0156099 -6.77626e-21 0.00127797 6.60639e-10
0.0156099 6.77626e-21 0.00127806 8.12649e-09
0.0156067 -6.77626e-21 0.00140498 8.04348e-09
-0.0156067 0 0.00140489 6.55869e-10
-0.0156758 -6.77626e-21 6.25738e-08 6.54489e-10
0.0156758 6.77626e-21 6.25741e-08 3.82678e-08
-0.0155569 1.35525e-20 0.00193255 7.63676e-10
0.0155569 0 0.00193257 9.31669e-09
-0.0156643 -2.71051e-20 0.000653593 6.02154e-10
0.0156643 1.35525e-20 0.000653701 2.12048e-08
0.015557 -6.77626e-21 0.002087 1.06593e-08
-0.015557 6.77626e-21 0.002087 8.77236e-10
0.0156581 2.03288e-20 0.00132521 7.24973e-09
-0.0156581 0 0.00132509 5.75585e-10
0.0156109 0 0.00197556 9.6705e-09
-0.0156109 0 0.00197554 7.88876e-10
-0.01562 0 0.00210848 8.6589e-10
0.01562 -6.77626e-21 0.00210848 1.05725e-08
0.0156426 0 0.00205604 1.03768e-08
-0.0156426 0 0.00205603 8.46934e-10
0.0156707 0 0.00197912 9.02941e-09
-0.0156707 -6.77626e-21 0.00197907 7.32758e-10
-0.0156949 0 0.00213398 1.00246e-09
0.0156949 0 0.00213398 1.21648e-08
0.015885 6.77626e-21 7.41484e-08 3.41086e-08
-0.015885 6.77626e-21 7.41473e-08 5.96054e-10
-0.01589 0 0.00034758 5.72345e-10
0.01589 -2.25875e-21 0.000347688 2.79206e-08
-0.0158834 2.71051e-21 0.000956113 6.40288e-10
0.0158834 -4.51751e-22 0.000956328 1.24962e-08
0.0158471 2.25875e-21 0.00154379 6.83215e-09
-0.0158471 2.25875e-21 0.00154362 5.32927e-10
-0.0158414 2.82344e-21 0.00196386 8.20128e-10
0.0158414 -1.12938e-21 0.00196392 1.03587e-08
-0.015839 0 0.00218308 1.0399e-09
0.015839 -1.35525e-20 0.00218308 1.28367e-08
-0.0159079 -4.06576e-20 0.00220656 1.39047e-09
0.0159079 0 0.00220656 1.67446e-08
-0.0160357 0 0.00166133 6.38265e-10
0.0160357 1.12938e-21 0.00166159 8.09145e-09
-0.0161335 0 1.64555e-05 2.06644e-09
0.0161337 -4.23516e-22 1.6266e-05 8.31021e-08
-0.0161343 -4.23516e-22 5.30999e-08 2.06901e-09
0.0161345 0 5.30909e-08 8.32047e-08
-0.0159895 -4.06576e-20 0.00223438 1.51957e-09
0.0159896 0 0.00223438 1.84777e-08
-0.0161453 0 5.24551e-08 2.15134e-09
0.0161479 0 3.0392e-06 8.62282e-08
-0.0161363 -2.25875e-21 0.000658258 1.16369e-09
0.0161363 0 0.00065863 4.03062e-08
-0.016108 0 0.00123662 5.38352e-10
0.0161079 -2.25875e-21 0.00123704 7.69047e-09
-0.0162278 -1.8823e-21 0.00195621 1.37686e-09
0.0162278 1.12938e-21 0.00195641 1.72206e-08
0.0161979 6.77626e-21 0.00230534 2.09038e-08
-0.0161979 0 0.00230537 1.73684e-09
-0.0162561 6.77626e-21 0.00232518 1.82594e-09
0.0162561 6.77626e-21 0.00232518 2.18628e-08
-0.016267 0 0.00230119 1.81097e-09
0.016267 0 0.00230117 2.17337e-08
-0.0162975 1.35525e-20 0.00227122 1.68425e-09
0.0162975 -6.77626e-21 0.00227118 2.03435e-08
-0.0162994 1.35525e-20 0.00233991 1.81971e-09
0.0162994 6.77626e-21 0.00233992 2.17943e-08
0.0164713 1.35525e-20 0.000318776 8.40087e-08
-0.0164713 0 0.00031848 3.7515e-09
0.0164838 9.03502e-21 0.000934132 1.5022e-08
-0.0164839 -4.51751e-21 0.000933459 7.683e-10
-0.0165151 2.71051e-20 8.91788e-08 3.96896e-09
0.0165151 0 8.91806e-08 9.32265e-08
0.0164768 9.03502e-21 0.00151147 6.86205e-09
-0.0164769 0 0.00151089 5.07078e-10
0.0166394 0 9.23357e-08 8.3848e-08
-0.0166394 0 9.23334e-08 3.84678e-09
-0.0165053 0 0.00241002 1.88961e-09
0.0165054 1.35525e-20 0.00241002 2.25537e-08
0.0167038 2.71051e-20 0.000635416 4.76736e-08
-0.0167039 0 0.000634646 2.29988e-09
0.0165943 5.64689e-22 0.00217414 2.07289e-08
-0.0165943 1.12938e-21 0.00217395 1.68957e-09
0.0167298 0 0.00122679 8.63955e-09
-0.0167299 0 0.00122589 5.7183e-10
0.0166885 0 0.00181391 1.03673e-08
-0.0166886 -2.71051e-20 0.00181341 8.15812e-10
-0.0166608 -1.35525e-20 0.00246303 1.77445e-09
0.016661 0 0.00246306 2.12871e-08
0.0168423 -1.35525e-20 7.0937e-08 8.35005e-08
-0.0168423 1.35525e-20 7.09338e-08 4.60354e-09
0.0169749 -2.25875e-21 0.000303039 8.71367e-08
-0.016975 4.51751e-21 0.000302648 4.86379e-09
-0.0168731 1.12938e-21 0.0022093 1.18773e-09
0.0168731 1.12938e-21 0.00220951 1.48544e-08
0.016996 -4.51751e-21 0.000918683 1.60034e-08
-0.0169961 0 0.000917792 8.29007e-10
0.0168625 -2.03288e-20 0.00253161 1.84025e-08
-0.0168625 0 0.00253162 1.50726e-09
0.0169886 -4.51751e-21 0.00152442 4.32397e-09
-0.0169887 4.51751e-21 0.00152371 2.96161e-10
0.0170875 0 2.4605e-08 1.00602e-07
-0.0170875 0 2.46021e-08 5.34068e-09
0.0169822 4.51751e-21 0.00199465 6.89225e-09
-0.0169822 4.51751e-21 0.00199427 5.27103e-10
-0.0169516 -9.03502e-21 0.00241979 1.61102e-09
0.0169517 9.03502e-21 0.00241989 1.96656e-08
-0.0169616 -1.35525e-20 0.00256534 1.66114e-09
0.0169617 -2.03288e-20 0.00256538 2.00389e-08
0.0172725 2.71051e-20 0.000609814 6.17696e-08
-0.0172727 0 0.000608963 3.08053e-09
0.017301 2.71051e-20 3.86873e-09 1.17484e-07
-0.0173011 2.71051e-20 3.86453e-09 5.65036e-09
0.0172756 0 0.0012186 8.19207e-09
-0.0172758 5.42101e-20 0.00121766 5.36003e-10
0.0172503 0 0.00183262 8.50247e-09
-0.0172504 2.71051e-20 0.00183214 6.49326e-10
-0.0171625 0 0.00263367 2.84755e-09
0.0171625 0 0.00263369 3.19102e-08
-0.0172627 -3.38813e-21 0.00228337 1.58584e-09
0.0172628 -5.64689e-22 0.00228356 1.91233e-08
0.0175152 -1.35525e-20 3.90438e-09 1.19824e-07
-0.0175152 0 3.90115e-09 6.99763e-09
0.0176166 -6.77626e-21 0.000304265 1.10409e-07
-0.0176168 4.51751e-21 0.000303958 7.28954e-09
0.0176138 1.12938e-21 0.000914505 2.03029e-08
-0.0176139 0 0.000913847 1.3087e-09
0.0175986 1.12938e-21 0.00154662 5.46914e-09
-0.0175987 1.12938e-21 0.0015461 3.71113e-10
0.0174824 0 0.00274279 3.40194e-08
-0.0174824 -1.01644e-20 0.0027428 2.92315e-09
-0.0174954 -1.69407e-21 0.00274721 2.9456e-09
0.0174955 3.72694e-20 0.00274726 3.4254e-08
0.0177275 -1.35525e-20 5.30347e-09 1.14376e-07
-0.0177276 4.06576e-20 5.30237e-09 7.99955e-09
-0.0176266 -1.807e-20 0.00211798 8.99612e-10
0.0176266 2.25875e-21 0.00211823 1.12841e-08
-0.0175733 2.25875e-21 0.00255362 2.85166e-09
0.0175734 -4.51751e-21 0.0025537 3.31952e-08
0.0179395 0 5.36713e-09 1.10452e-07
-0.0179395 0 5.36695e-09 8.13497e-09
0.0179446 -2.71051e-20 0.000602236 6.38902e-08
-0.0179448 -2.71051e-20 0.000601852 4.68624e-09
0.0179404 2.71051e-20 0.00122938 1.11128e-08
-0.0179405 0 0.00122893 7.62148e-10
-0.0179 -2.71051e-20 0.00190852 9.11165e-10
0.0179 -2.71051e-20 0.00190875 1.21639e-08
-0.0177928 0 0.00284873 4.34532e-09
0.0177928 2.71051e-20 0.00284875 4.4773e-08
-0.0179476 2.71051e-20 0.0024258 2.54286e-09
0.0179477 2.71051e-20 0.00242589 2.80205e-08
0.0181451 0 4.40341e-09 1.14868e-07
-0.0181451 0 4.40324e-09 8.47309e-09
-0.0180159 4.06576e-20 0.00292502 4.95549e-09
0.018016 0 0.00292506 5.03397e-08
0.0182715 -2.25875e-21 0.000300999 1.09251e-07
-0.0182716 -4.51751e-21 0.000300875 8.11681e-09
0.0182775 0 0.000913342 2.5273e-08
-0.0182775 -6.77626e-21 0.00091307 1.83175e-09
-0.0182702 -4.51751e-21 0.00156202 5.06425e-10
0.0182702 2.25875e-21 0.00156224 7.93237e-09
-0.0182366 -1.12938e-20 0.00214879 8.44726e-10
0.0182366 4.51751e-21 0.00214891 1.06243e-08
0.0181444 -6.77626e-21 0.00296949 5.02467e-08
-0.0181446 -6.77626e-21 0.00296953 5.00878e-09
-0.0181872 -6.77626e-22 0.00270867 4.64458e-09
0.0181872 6.77626e-22 0.00270873 4.79429e-08
0.0183921 1.35525e-20 2.43155e-09 1.19956e-07
-0.0183922 1.35525e-20 2.43148e-09 8.95651e-09
-0.0185886 0 1.46532e-09 9.28848e-09
0.0185886 0 1.46539e-09 1.25409e-07
-0.0183446 -1.35525e-20 0.00303802 4.97816e-09
0.0183446 0 0.00303804 4.87135e-08
0.0185996 -2.71051e-20 0.000595038 7.29111e-08
-0.0185997 0 0.000594918 5.38911e-09
-0.0186737 1.16165e-20 0.00129278 7.85172e-10
0.0186737 1.16165e-20 0.00129291 1.34557e-08
-0.0187703 -1.35525e-20 1.23409e-09 9.61965e-09
0.0187703 1.35525e-20 1.23413e-09 1.31429e-07
0.0185175 2.03288e-20 0.00309812 4.92145e-08
-0.0185175 6.77626e-21 0.00309812 5.04517e-09
-0.0187148 -4.51751e-21 0.00187601 4.77415e-10
0.0187148 4.51751e-21 0.00187608 9.85236e-09
-0.0186674 7.52918e-21 0.00253515 2.37633e-09
0.0186674 -3.01167e-21 0.00253519 2.55968e-08
0.018823 -1.35525e-20 0.000903657 2.8946e-08
-0.018823 4.51751e-21 0.00090356 2.09548e-09
0.0188705 -4.51751e-21 0.0002483 1.26013e-07
-0.0188706 2.25875e-21 0.000248266 9.24432e-09
-0.0186437 0 0.002939 4.9964e-09
0.0186438 0 0.00293906 4.85083e-08
-0.0189391 2.71051e-20 0.00154412 4.87652e-10
0.0189391 2.71051e-20 0.00154419 1.11797e-08
0.0187701 -9.74088e-21 0.00318665 4.48347e-08
-0.0187699 -8.47033e-22 0.00318654 4.75844e-09
0.0188367 -1.35525e-20 0.00285269 3.69438e-08
-0.0188367 -1.35525e-20 0.00285269 3.81458e-09
0.0190684 0 6.42265e-10 1.35069e-07
-0.0190684 1.35525e-20 6.42229e-10 9.96348e-09
-0.018947 0 0.00220299 4.52997e-10
0.018947 0 0.00220303 1.00785e-08
-0.0189611 -6.77626e-21 0.00294132 4.04175e-09
0.0189611 -6.77626e-21 0.00294137 3.83065e-08
-0.0192376 0 4.16948e-10 1.00871e-08
0.0192376 -2.71051e-20 4.16969e-10 1.47194e-07
0.0192505 -2.25875e-21 0.000578858 8.12611e-08
-0.0192506 1.12938e-20 0.000578833 5.91886e-09
-0.0192654 -6.77626e-21 0.00120337 1.19774e-09
0.0192654 -4.51751e-21 0.0012034 2.0361e-08
-0.0192728 4.51751e-21 0.00186871 5.62017e-10
0.0192728 1.12938e-20 0.00186874 1.77537e-08
-0.0190865 0 0.00329541 4.55636e-09
0.0190867 2.71051e-20 0.00329547 4.08759e-08
-0.0193938 0 3.58644e-10 9.91952e-09
0.0193938 -2.71051e-20 3.58662e-10 1.38473e-07
0.0193936 -2.71051e-20 0.000130553 1.383e-07
-0.0193936 1.35525e-20 0.000130545 9.91616e-09
-0.0191339 1.35525e-20 0.00323263 4.63045e-09
0.019134 0 0.00323272 4.15659e-08
-0.0192591 4.51751e-21 0.00254519 1.56225e-09
0.0192591 2.25875e-21 0.00254522 2.26047e-08
-0.0192048 0 0.003336 6.05476e-09
0.0192049 1.35525e-20 0.00333604 5.11161e-08
-0.0193217 4.51751e-22 0.00298746 3.60321e-09
0.0193218 -9.03502e-22 0.0029875 3.37268e-08
0.0195688 0 0.000280898 1.39321e-07
-0.0195688 2.71051e-20 0.00028089 1.00632e-08
0.0195891 -2.71051e-20 0.000871761 2.51403e-08
-0.0195891 5.42101e-20 0.000871755 1.93845e-09
-0.019374 0 0.0032822 6.2021e-09
0.019374 -1.35525e-20 0.00328227 5.24325e-08
-0.0196057 -2.71051e-20 0.00151348 8.07913e-10
0.0196057 0 0.0015135 2.38991e-08
-0.0193742 -2.71051e-20 0.00339404 6.52072e-09
0.0193743 0 0.00339406 5.44043e-08
-0.0196063 2.71051e-20 0.0021914 4.83921e-10
0.0196063 2.71051e-20 0.00219141 2.53539e-08
0.0197445 0 1.1881e-10 1.50673e-07
-0.0197445 0 1.1881e-10 9.68544e-09
0.0197496 1.35525e-20 0.000118775 1.50705e-07
-0.0197497 2.71051e-20 0.000118767 9.67875e-09
-0.0196349 0 0.00277709 9.88585e-10
0.019635 0 0.00277712 1.42318e-08
-0.0195953 1.35525e-20 0.00324376 6.08615e-09
0.0195954 0 0.0032438 5.04491e-08
-0.0198869 1.35525e-20 6.23641e-11 9.91442e-09
0.0198869 1.35525e-20 6.23597e-11 1.84327e-07
0.0199025 0 0.000551642 9.66908e-08
-0.0199025 6.77626e-21 0.00055164 6.27157e-09
-0.0196372 -2.71051e-20 0.00348423 7.73263e-09
0.0196374 0 0.0034843 6.12659e-08
-0.0199263 7.90564e-21 0.00116493 2.23034e-09
0.0199263 -2.25875e-21 0.00116493 3.48305e-08
-0.0197065 0 0.0033997 7.74419e-09
0.0197066 1.35525e-20 0.00339978 6.11664e-08
-0.0200175 0 0.000104927 8.35018e-09
0.0200175 -1.35525e-20 0.000104918 1.61061e-07
-0.020018 0 5.47768e-11 8.33862e-09
0.0200181 0 5.47745e-11 1.61163e-07
-0.0199354 0 0.00184109 9.69392e-10
0.0199355 -5.64689e-21 0.0018411 4.30446e-08
-0.0199397 0 0.00250609 9.40217e-10
0.0199397 -1.12938e-21 0.0025061 3.50609e-08
-0.0198048 -1.35525e-20 0.00354162 9.0739e-09
0.0198049 2.71051e-20 0.00354168 6.77141e-08
-0.0199176 0 0.00307583 4.94488e-09
0.0199177 2.25875e-21 0.00307587 4.51485e-08
-0.0202108 0 0.000262551 7.9861e-09
0.0202108 2.71051e-20 0.000262544 1.72581e-07
-0.0202372 2.71051e-20 0.000828952 4.21533e-09
0.0202372 0 0.00082895 3.79288e-08
-0.0199793 1.35525e-20 0.00344741 1.03125e-08
0.0199793 -1.35525e-20 0.00344747 7.60019e-08
-0.0199876 -6.77626e-21 0.00360417 1.16025e-08
0.0199877 1.35525e-20 0.00360422 8.37646e-08
-0.0202612 -2.71051e-20 0.00146953 1.72259e-09
0.0202612 0 0.00146953 5.13803e-08
-0.0202614 -2.71051e-20 0.00216708 8.65012e-10
0.0202614 2.71051e-20 0.0021671 7.1272e-08
-0.020424 0 1.48382e-11 1.02319e-08
0.0204241 0 1.48336e-11 2.54349e-07
-0.0204263 -1.35525e-20 8.83618e-05 1.02546e-08
0.0204264 0 8.83583e-05 2.54895e-07
-0.0201258 -2.71051e-20 0.00365147 1.2435e-08
0.020126 2.03288e-20 0.00365154 8.81389e-08
-0.0202574 -2.71051e-20 0.00283409 1.41886e-09
0.0202575 5.42101e-20 0.00283411 3.32704e-08
-0.02023 -1.35525e-20 0.00346726 1.16004e-08
0.0202301 -8.13152e-21 0.00346732 8.30535e-08
-0.0205366 0 8.07587e-12 1.27342e-08
0.0205367 -1.35525e-20 8.0725e-12 3.20904e-07
-0.0205431 -1.12938e-21 0.000507235 1.26539e-08
0.0205431 1.12938e-21 0.000507233 1.89661e-07
-0.0205806 1.12938e-21 0.00109806 7.61871e-09
0.0205806 -1.12938e-21 0.00109806 6.85445e-08
-0.0206332 0 7.2332e-05 1.40532e-08
0.0206332 0 7.23425e-05 3.65849e-07
-0.0206362 0 7.47893e-12 1.39569e-08
0.0206362 1.35525e-20 7.47568e-12 3.62624e-07
-0.0203258 -1.35525e-20 0.00371988 1.15954e-08
0.020326 2.71051e-20 0.00371994 7.97321e-08
-0.0205919 -2.25875e-21 0.00179229 2.20444e-09
0.0205919 -3.38813e-21 0.00179229 9.74637e-08
-0.0205776 1.12938e-21 0.00251302 1.26841e-09
0.0205777 0 0.00251303 8.62673e-08
-0.0204396 1.35525e-20 0.00376155 1.14535e-08
0.0204398 0 0.00376163 7.77213e-08
-0.0204726 -1.35525e-20 0.00364922 1.12891e-08
0.0204728 4.06576e-20 0.00364928 7.71649e-08
-0.0205732 -1.50584e-21 0.00324396 6.53111e-09
0.0205733 -2.25875e-21 0.003244 6.55741e-08
-0.0208433 -2.71051e-20 0.000231572 1.63164e-08
0.0208434 2.71051e-20 0.000231569 4.48832e-07
-0.0208763 -2.71051e-20 0.000747796 2.03898e-08
0.0208763 0 0.000747794 8.34796e-08
-0.0209307 2.71051e-20 0.00137566 4.72251e-09
0.0209307 2.71051e-20 0.00137566 1.01019e-07
-0.0206256 0 0.00382199 1.08388e-08
0.0206258 6.77626e-21 0.00382207 7.15485e-08
-0.0209018 2.71051e-20 0.00213753 1.65756e-09
0.0209018 -2.71051e-20 0.00213753 1.65419e-07
-0.0207137 0 0.00385276 1.09801e-08
0.0207138 0 0.00385283 7.1319e-08
-0.0208885 0 0.00285883 1.15609e-09
0.0208886 0 0.00285885 8.22837e-08
-0.0207601 -6.77626e-21 0.00376298 1.10255e-08
0.0207602 0 0.00376308 7.17721e-08
0.0211429 9.03502e-21 0.0004345 3.07932e-07
-0.0211429 3.01167e-21 0.000434502 1.02e-07
-0.020841 -5.27043e-21 0.00362679 1.04756e-08
0.0208411 2.25875e-21 0.00362684 7.00775e-08
-0.0208387 -6.77626e-21 0.00389825 1.09179e-08
0.0208388 1.35525e-20 0.0038983 6.95544e-08
-0.0212597 0 5.25669e-13 1.49729e-07
0.0212601 -1.05879e-20 5.19801e-13 4.21751e-07
-0.0212767 2.5411e-21 1.41099e-05 1.51852e-07
-0.0212768 0 1.74179e-06 1.52675e-07
0.0212769 -8.47033e-21 1.38726e-05 4.21284e-07
0.0212813 0 1.45875e-06 4.25091e-07
0.0212895 0 2.69474e-13 4.25844e-07
-0.0212896 0 2.7104e-13 1.5396e-07
-0.0212723 -5.64689e-22 0.000878984 7.90847e-08
0.0212724 -2.25875e-21 0.000878975 1.76107e-07
-0.0212427 -1.12938e-22 0.00171816 8.73213e-09
0.0212427 9.03502e-22 0.00171814 1.97538e-07
-0.0212146 1.12938e-21 0.00249693 1.85035e-09
0.0212146 -1.12938e-21 0.00249694 2.0413e-07
-0.0210353 0 0.00398139 1.03792e-08
0.0210355 0 0.00398146 6.38711e-08
-0.021178 2.25875e-21 0.00323686 3.90735e-09
0.0211781 0 0.00323687 1.03024e-07
-0.0210737 1.35525e-20 0.00393726 1.04876e-08
0.0210738 0 0.00393731 6.45951e-08
-0.0211186 1.35525e-20 0.00402021 1.17713e-08
0.0211188 0 0.0040203 7.02385e-08
-0.0212476 8.06698e-23 0.00368161 7.75907e-09
0.0212478 -4.03349e-22 0.00368166 6.22277e-08
-0.0215747 0 0.00130736 1.43458e-08
0.0215747 2.71051e-20 0.00130737 1.84341e-07
-0.0212486 1.35525e-20 0.00397488 1.25606e-08
0.0212488 0 0.00397493 7.41564e-08
-0.0212527 1.35525e-20 0.00408538 1.33841e-08
0.021253 -6.77626e-21 0.00408549 7.74486e-08
-0.0216407 7.52918e-22 0.00033173 2.81392e-07
0.0216408 7.52918e-22 0.000331723 3.65181e-07
-0.0215441 -2.71051e-20 0.00209926 3.4772e-09
0.0215442 2.71051e-20 0.00209926 3.40824e-07
-0.0215225 2.71051e-20 0.00284518 1.19811e-09
0.0215225 0 0.0028452 2.33127e-07
-0.0217961 0 7.94919e-14 2.62311e-07
0.0217961 1.35525e-20 7.91737e-14 4.08885e-07
-0.0215506 -2.71051e-20 0.00347094 1.88603e-09
0.0215507 0 0.00347097 5.67274e-08
-0.0214959 0 0.00395189 1.21432e-08
0.0214961 1.35525e-20 0.00395193 6.96978e-08
-0.0214983 6.77626e-21 0.00420475 1.42449e-08
0.0214984 6.77626e-21 0.00420479 7.94569e-08
-0.0218606 -1.41172e-22 0.00170493 9.74e-09
0.0218606 8.9409e-22 0.0017049 3.57834e-07
-0.0219212 -3.38813e-21 0.000827127 1.09222e-07
0.0219212 4.51751e-22 0.00082711 2.62093e-07
-0.0219609 1.35525e-20 4.02034e-14 2.01448e-07
0.021961 -1.35525e-20 4.01314e-14 4.29726e-07
-0.0218494 -1.12938e-21 0.00247003 2.84929e-09
0.0218494 -5.64689e-22 0.00247004 4.36302e-07
-0.0216145 1.35525e-20 0.00413981 1.37467e-08
0.0216145 1.35525e-20 0.00413983 7.67623e-08
-0.0216502 1.35525e-20 0.00427857 1.36227e-08
0.0216503 0 0.00427863 7.41258e-08
-0.0218421 -1.69407e-21 0.00317495 1.72372e-09
0.0218422 -3.38813e-21 0.00317496 2.48024e-07
-0.0217324 0 0.00431835 1.36428e-08
0.0217325 0 0.00431843 7.30751e-08
-0.0217583 -1.35525e-20 0.00423555 1.34335e-08
0.0217584 1.35525e-20 0.0042356 7.2615e-08
-0.0221733 0 2.81576e-14 2.97882e-07
0.0221735 -6.77626e-21 2.80965e-14 4.11673e-07
-0.021866 7.05861e-23 0.00385234 7.75939e-09
0.0218668 0 0.00385247 8.5809e-08
-0.0222021 -2.71051e-20 0.00129532 1.87644e-08
0.0222022 -2.71051e-20 0.00129532 3.3868e-07
0.0222506 -7.05861e-23 0.000330091 3.89643e-07
-0.0222517 -3.5293e-23 0.000328747 3.39218e-07
-0.0221694 5.42101e-20 0.00208071 4.87205e-09
0.0221694 0 0.00208072 5.98811e-07
-0.0218631 -1.35525e-20 0.00438174 1.30148e-08
0.0218633 1.35525e-20 0.00438183 6.86071e-08
0.0223211 0 1.21342e-14 4.20595e-07
-0.0223212 6.77626e-21 1.21355e-14 3.07023e-07
-0.0221597 -5.42101e-20 0.00282094 1.93658e-09
0.0221598 0 0.00282094 5.73094e-07
-0.0221457 -2.71051e-20 0.00350913 1.8772e-09
0.0221457 2.71051e-20 0.00350915 1.70474e-07
-0.0220148 -2.03288e-20 0.00445531 1.3074e-08
0.0220149 6.77626e-21 0.00445537 6.77256e-08
-0.0225415 0 1.22277e-15 2.25258e-07
0.0225416 0 1.23378e-15 4.78576e-07
-0.0221394 0 0.00425961 1.25842e-08
0.0221395 1.12938e-21 0.00425967 6.88523e-08
-0.0224964 -2.96462e-20 0.00168456 1.14449e-08
0.0224964 -4.23516e-22 0.0016846 5.87861e-07
-0.0225021 0 0.00168479 1.1421e-08
0.0225021 0 0.00168483 5.90645e-07
0.0225129 0 0.00168799 5.9643e-07
-0.022513 0 0.00168798 1.14728e-08
-0.022576 5.42101e-21 0.000874276 1.08513e-07
0.0225761 4.51751e-21 0.000874269 3.72021e-07
-0.0225135 -1.6134e-22 0.00242345 4.48147e-09
0.0225136 8.87368e-22 0.00242345 7.8783e-07
-0.0224593 -1.12938e-21 0.00318123 2.40047e-09
0.0224593 0 0.00318124 5.73719e-07
-0.0223019 -3.38813e-21 0.00459436 1.58959e-08
0.022302 -3.38813e-21 0.00459437 7.78249e-08
-0.0224349 -9.03502e-22 0.00390505 7.96586e-09
0.022435 6.77626e-21 0.00390508 1.8615e-07
-0.0228059 -1.27055e-20 8.70915e-16 3.70093e-07
0.0228061 4.23516e-22 8.77264e-16 4.13372e-07
-0.022811 -8.47033e-22 2.46647e-05 3.73052e-07
0.0228111 0 2.39222e-05 4.1156e-07
-0.0223412 0 0.00461337 1.60596e-08
0.0223413 3.38813e-21 0.00461342 7.81569e-08
0.0228141 4.23516e-22 8.58194e-16 4.13615e-07
-0.0228142 2.5411e-20 8.51408e-16 3.70301e-07
-0.0228118 -5.64689e-22 0.000334117 3.3722e-07
0.0228118 5.64689e-22 0.000334137 4.13778e-07
-0.022347 0 0.00460685 1.61133e-08
0.0223471 0 0.00460689 7.84562e-08
-0.0223545 0 0.00461977 1.63637e-08
0.0223546 0 0.00461984 7.94892e-08
-0.0223623 -3.38813e-21 0.00458505 1.58913e-08
0.0223624 1.69407e-21 0.00458505 8.00501e-08
-0.0223809 0 0.0046121 1.64331e-08
0.022381 0 0.00461216 8.00293e-08
-0.0223957 -1.69407e-21 0.00463972 1.65695e-08
0.0223958 0 0.00463983 8.05677e-08
-0.0225314 1.35525e-20 0.00433167 1.66214e-08
0.0225315 0 0.00433171 9.47696e-08
-0.0227767 -2.71051e-20 0.00282452 3.28423e-09
0.0227767 0 0.00282454 1.10384e-06
-0.0229169 2.71051e-20 0.00145351 1.38286e-08
0.022917 0 0.00145354 7.30994e-07
-0.0229127 2.71051e-20 0.001952 9.53897e-09
0.0229127 0 0.001952 9.68564e-07
-0.0227583 0 0.00352775 2.49706e-09
0.0227583 -2.71051e-20 0.00352777 4.77083e-07
-0.0226788 1.35525e-20 0.00436549 1.75647e-08
0.0226789 -6.77626e-21 0.00436553 1.0766e-07
-0.0231146 0 6.24631e-16 2.58662e-07
0.0231146 0 6.26477e-16 4.82751e-07
-0.0231263 5.64689e-22 0.000857356 1.29471e-07
0.0231264 1.12938e-21 0.000857382 4.6894e-07
-0.0231204 0 0.00168686 1.30334e-08
0.0231204 0 0.00168687 9.15764e-07
-0.0226912 0 0.00478277 1.8924e-08
0.0226912 1.35525e-20 0.00478283 8.94897e-08
-0.0231332 4.23516e-22 0.00244156 6.90295e-09
0.0231332 -8.47033e-22 0.00244157 1.41416e-06
-0.0227888 -1.35525e-20 0.00466799 1.95535e-08
0.0227889 -1.35525e-20 0.00466803 9.17148e-08
-0.0230834 -1.12938e-21 0.00317456 4.06433e-09
0.0230835 1.12938e-21 0.00317458 1.15275e-06
-0.023319 0 3.10972e-16 3.07135e-07
0.0233191 6.77626e-21 3.12101e-16 4.16716e-07
-0.0230283 9.03502e-21 0.00391292 7.4323e-09
0.0230284 0 0.00391294 4.54939e-07
-0.02333 2.71051e-20 0.00142276 1.9251e-08
0.02333 0 0.00142278 8.66224e-07
-0.0233168 0 0.00194192 1.0923e-08
0.0233168 2.71051e-20 0.00194194 1.20913e-06
-0.0228965 -2.71051e-20 0.0048822 2.32516e-08
0.0228966 0 0.00488226 1.00814e-07
-0.0234102 2.25875e-21 0.000267243 2.94121e-07
0.0234102 -4.51751e-21 0.000267244 4.28956e-07
-0.0229986 7.52918e-22 0.0043906 1.41826e-08
0.0229987 -3.76459e-21 0.00439064 1.44861e-07
0.0235162 1.35525e-20 1.75957e-16 4.39411e-07
-0.0235162 6.77626e-21 1.74954e-16 2.85007e-07
-0.0234234 2.71051e-20 0.00278585 6.46309e-09
0.0234234 0 0.00278586 1.96356e-06
-0.0230651 1.35525e-20 0.00496382 2.86062e-08
0.0230652 -2.71051e-20 0.00496388 1.20174e-07
-0.0233787 2.71051e-20 0.00352562 3.94005e-09
0.0233787 -2.71051e-20 0.00352564 1.08409e-06
-0.0237161 1.35525e-20 -1.12817e-16 2.23758e-07
0.0237161 1.35525e-20 -1.126e-16 5.11565e-07
-0.0232668 -3.61401e-21 0.00471662 2.73789e-08
0.0232669 -1.35525e-21 0.00471667 1.33667e-07
-0.0233857 2.71051e-20 0.00417634 4.89586e-09
0.0233857 -2.71051e-20 0.00417637 2.52134e-07
-0.0232203 -6.77626e-21 0.00503892 3.04653e-08
0.0232204 -1.35525e-20 0.00503899 1.23707e-07
-0.0237642 -2.82344e-21 0.000871716 1.35525e-07
0.0237642 2.82344e-22 0.000871732 7.24085e-07
-0.0237897 -2.71051e-20 9.69712e-05 2.42359e-07
0.0237897 1.35525e-20 9.70283e-05 4.8928e-07
-0.0237941 1.35525e-20 4.97248e-16 2.42733e-07
0.0237942 -1.35525e-20 5.01214e-16 4.88645e-07
-0.0237454 -2.82344e-22 0.00168598 1.6166e-08
0.0237454 -1.83524e-21 0.00168599 1.28971e-06
-0.0238504 1.35525e-20 -3.63004e-16 2.34268e-07
0.0238505 0 -3.63597e-16 4.96657e-07
-0.0237771 1.35525e-21 0.00232532 1.08995e-08
0.0237772 4.06576e-21 0.00232532 2.02473e-06
-0.023345 2.71051e-20 0.00509928 2.92545e-08
0.0233451 1.35525e-20 0.00509935 1.15225e-07
-0.0237118 -5.64689e-21 0.00315193 7.81564e-09
0.0237118 -3.38813e-21 0.00315194 2.06922e-06
-0.0239754 0 0.000105727 2.09447e-07
0.0239757 0 0.000105814 5.17535e-07
-0.0240029 1.35525e-20 2.3863e-16 2.07589e-07
-0.0236913 7.90564e-21 0.0038564 5.99576e-09
0.0236913 -2.25875e-21 0.00385642 1.04025e-06
0.0240032 -1.35525e-20 2.38694e-16 5.17704e-07
-0.0235265 -2.03288e-20 0.00518714 2.85569e-08
0.0235266 -1.35525e-20 0.0051872 1.08297e-07
-0.0237117 0 0.00456148 1.55149e-08
0.0237118 9.03502e-21 0.00456152 2.73404e-07
-0.0235865 6.77626e-21 0.00521624 2.78931e-08
0.0235867 -6.77626e-21 0.00521631 1.05557e-07
-0.0236569 -1.6263e-20 0.00499193 2.76193e-08
0.023657 -5.42101e-21 0.00499199 1.05612e-07
-0.0240359 -2.71051e-20 0.0027785 1.16355e-08
0.024036 0 0.00277852 2.98148e-06
-0.0240146 -2.71051e-20 0.00349448 8.88347e-09
0.0240147 2.71051e-20 0.0034945 2.22541e-06
-0.0237108 6.77626e-21 0.00516871 2.64083e-08
0.023711 0 0.00516878 1.00428e-07
-0.0237215 0 0.00528159 2.51495e-08
0.0237217 0 0.00528165 9.58015e-08
-0.0238516 -3.38813e-21 0.00489348 2.07704e-08
0.0238517 3.38813e-21 0.00489352 1.37912e-07
-0.0239976 -5.42101e-20 0.00419241 6.19653e-09
0.0239977 -2.71051e-20 0.00419244 6.80241e-07
-0.0238168 0 0.00514856 2.32941e-08
0.0238169 -6.77626e-21 0.00514863 1.05778e-07
-0.0238281 6.77626e-21 0.00525503 2.38859e-08
0.0238283 6.77626e-21 0.00525509 9.17304e-08
-0.0238429 1.35525e-20 0.00534032 2.27188e-08
0.023843 -6.77626e-21 0.00534036 8.77138e-08
-0.0243893 0 0.00171905 1.94226e-08
0.0243893 -5.42101e-20 0.00171905 1.89253e-06
-0.0239789 -2.71051e-20 0.00489875 1.81757e-08
0.023979 0 0.00489881 1.35592e-07
-0.0243696 -1.41172e-22 0.00243113 1.69146e-08
0.0243706 -1.41172e-22 0.00243196 3.28894e-06
-0.0244866 5.42101e-20 0.00051268 1.37104e-07
0.0244867 -5.42101e-20 0.000512684 6.45366e-07
-0.0243442 0 0.00312516 1.52299e-08
0.0243442 -3.38813e-21 0.00312517 3.34128e-06
-0.0239577 3.38813e-20 0.00539588 2.15339e-08
0.0239578 -2.71051e-20 0.00539595 8.36521e-08
-0.0240298 2.71051e-21 0.00521691 2.28868e-08
0.02403 -1.0842e-20 0.00521698 8.83049e-08
-0.0243197 0 0.00383765 1.21585e-08
0.0243198 -1.12938e-21 0.00383767 2.06372e-06
-0.0242836 -9.03502e-21 0.00455364 1.29427e-08
0.0242836 -6.77626e-21 0.00455368 6.64636e-07
-0.0241601 1.35525e-20 0.00549389 2.63873e-08
0.0241602 0 0.00549396 9.97863e-08
-0.0242635 3.01167e-21 0.00502115 1.82201e-08
0.0242637 3.01167e-21 0.00502121 1.82362e-07
-0.0246819 0 0.00275432 2.05952e-08
0.0246819 -2.71051e-20 0.00275433 4.40292e-06
-0.0246457 2.71051e-20 0.00346491 1.92118e-08
0.0246458 0 0.00346492 3.72559e-06
-0.0243131 0 0.00556792 3.19801e-08
0.0243132 -1.35525e-20 0.00556799 1.21525e-07
-0.0249638 1.35525e-20 3.14502e-16 1.31443e-07
0.0249638 1.35525e-20 3.14469e-16 7.39848e-07
-0.0249658 1.35525e-20 0.000127061 1.30899e-07
0.0249658 4.06576e-20 0.000127084 7.47752e-07
-0.0246319 2.71051e-20 0.00416571 1.38041e-08
0.0246319 -2.71051e-20 0.00416574 1.6624e-06
-0.0250669 -6.77626e-21 0.00111391 7.72752e-08
0.025067 -6.77626e-21 0.00111391 1.62028e-06
-0.0245277 0 0.00533379 3.20502e-08
0.0245278 -4.51751e-22 0.00533385 1.44873e-07
-0.0246411 0 0.00480622 9.08723e-09
0.0246412 0 0.00480627 3.688e-07
-0.0251264 0 -5.57162e-18 1.39207e-07
0.0251265 2.71051e-20 -5.54308e-18 7.83067e-07
-0.0244892 6.77626e-21 0.00565317 3.43608e-08
0.0244893 0 0.00565322 1.28712e-07
-0.0250457 2.25875e-21 0.00228488 3.07467e-08
0.0250457 0 0.00228489 4.00465e-06
-0.0249744 -1.41172e-21 0.00307726 3.08491e-08
0.0249744 1.12938e-21 0.00307727 4.59164e-06
-0.0245965 1.35525e-20 0.00570515 3.29103e-08
0.0245966 -2.71051e-20 0.00570519 1.21582e-07
-0.0252751 -2.71051e-20 0.000134701 1.24664e-07
-0.0249934 0 0.00376622 2.80638e-08
0.0252752 0 0.000134716 8.21873e-07
0.0249934 8.47033e-22 0.00376624 3.43464e-06
-0.0252845 1.35525e-20 -2.40066e-18 1.24634e-07
0.0252846 0 -2.39523e-18 8.21741e-07
-0.0249434 -1.12938e-21 0.00449176 1.89862e-08
0.0249434 -3.38813e-21 0.00449179 1.57377e-06
-0.0247822 3.38813e-21 0.00579502 3.18112e-08
0.0247823 -1.35525e-20 0.00579507 1.1566e-07
-0.0249665 3.01167e-21 0.00518177 2.15502e-08
0.0249666 -1.50584e-21 0.00518182 3.88773e-07
-0.0248296 -6.77626e-21 0.00581795 3.11135e-08
0.0248297 -3.38813e-21 0.00581801 1.13922e-07
-0.0249104 -5.42101e-21 0.00560274 3.07768e-08
0.0249105 -8.13152e-21 0.00560279 1.12535e-07
-0.0254015 0 0.00285469 5.55395e-08
0.0254015 5.42101e-20 0.0028547 5.96132e-06
-0.0252645 0 0.00414474 3.39854e-08
0.0252645 -2.71051e-20 0.00414475 3.33446e-06
-0.0254031 -5.42101e-20 0.00331055 5.48749e-08
0.0254031 2.71051e-20 0.00331056 5.73425e-06
-0.0249624 0 0.00577193 2.917e-08
0.0249625 -6.77626e-21 0.00577202 1.08934e-07
-0.0249739 0 0.00588778 2.74852e-08
0.024974 0 0.00588783 1.05006e-07
-0.0252501 0 0.00482067 1.88804e-08
0.0252501 -2.71051e-20 0.00482071 1.02651e-06
-0.0257173 0 0.000556257 1.17313e-07
0.0257173 0 0.000556256 9.43e-07
-0.0250723 6.77626e-21 0.00575396 2.59872e-08
0.0250724 1.35525e-20 0.00575407 1.24362e-07
-0.0256699 -5.42101e-20 0.00175088 2.86075e-08
0.0256699 5.42101e-20 0.00175088 3.11899e-06
-0.0256382 -8.47033e-22 0.0024157 4.73507e-08
0.0256382 -1.97641e-21 0.00241571 5.25765e-06
-0.0250837 6.77626e-21 0.00586274 2.59561e-08
0.0250838 1.35525e-20 0.00586281 1.01268e-07
-0.0256079 0 0.00307876 5.95994e-08
0.0256079 0 0.00307876 6.24741e-06
-0.025098 6.77626e-21 0.00594767 2.44998e-08
0.025098 0 0.0059477 9.8035e-08
-0.0251925 2.25875e-21 0.00555311 2.41548e-08
0.0251926 1.12938e-20 0.00555317 1.78484e-07
-0.0252316 -2.71051e-20 0.00551486 2.20418e-08
0.0252317 0 0.00551494 1.79245e-07
-0.0255924 -1.50584e-21 0.0037929 5.86761e-08
0.0255924 4.51751e-21 0.00379291 5.05384e-06
-0.0252102 -2.71051e-20 0.00600189 2.29796e-08
0.0252104 -6.77626e-21 0.00600198 9.60749e-08
-0.0252817 8.13152e-21 0.00582896 2.46374e-08
0.0252819 8.13152e-21 0.00582905 9.97088e-08
-0.0255735 -1.12938e-21 0.00447397 4.82629e-08
0.0255735 0 0.00447399 3.10182e-06
-0.0258318 -2.71051e-20 0.0028448 6.92256e-08
0.0258318 -5.42101e-20 0.0028448 6.99387e-06
-0.0257993 0 0.00329834 7.02906e-08
0.0257993 2.71051e-20 0.00329835 6.78172e-06
-0.0255336 4.51751e-21 0.0051788 3.01135e-08
0.0255337 -2.25875e-21 0.00517885 1.00532e-06
-0.025412 4.06576e-20 0.00609921 2.74552e-08
0.0254122 1.35525e-20 0.00609928 1.22683e-07
-0.0255488 2.25875e-21 0.00563576 2.3545e-08
0.0255489 6.77626e-21 0.00563582 2.77501e-07
0.0262229 0 -2.45033e-18 1.06752e-06
-0.0262229 1.35525e-20 -2.47165e-18 1.14292e-07
0.0262242 0 0.000110099 1.06998e-06
-0.0262242 1.35525e-20 0.000110093 1.14218e-07
-0.025914 -2.71051e-20 0.00409942 8.40468e-08
0.025914 -2.71051e-20 0.00409944 5.61267e-06
-0.0255675 0 0.00617785 3.33157e-08