# omega  POINT_DATA 52106
# x  y  z  omega
0.015557 -1.35525e-20 5.70113e-08 1597.19
-0.015557 1.35525e-20 5.70113e-08 1597.35
-0.015557 -6.77626e-21 0.000135948 1592.59
0.015557 0 0.000135964 1592.46
-0.015557 6.77626e-21 0.000527058 1977.39
0.015557 6.77626e-21 0.000527125 1977.38
-0.015557 1.35525e-20 0.000659558 2219.68
0.015557 -1.35525e-20 0.000659639 2219.74
-0.0155569 0 0.000798557 2449.4
0.015557 0 0.000798637 2449.59
-0.0155569 6.77626e-21 0.00121614 3070.97
0.0155569 0 0.00121623 3071.34
-0.0155569 -6.77626e-21 0.00135476 3221.64
0.0155569 0 0.00135485 3221.99
-0.0156159 6.77626e-21 6.65977e-05 1608.7
0.0156159 -6.77626e-21 6.66114e-05 1608.54
0.015617 -6.77626e-21 5.8671e-08 1608.36
-0.015617 0 5.86705e-08 1608.52
-0.0156133 0 0.000593966 2123.98
0.0156133 6.77626e-21 0.00059404 2123.98
0.0156101 0 0.000721026 2356.8
-0.0156101 6.77626e-21 0.000720945 2356.7
-0.0155569 -6.77626e-21 0.00150199 3342.36
0.0155569 0 0.00150206 3342.88
-0.0156099 -6.77626e-21 0.00127797 3185.73
0.0156099 6.77626e-21 0.00127806 3186.07
0.0156067 -6.77626e-21 0.00140498 3322.34
-0.0156067 0 0.00140489 3321.93
-0.0156758 -6.77626e-21 6.25738e-08 1527.25
0.0156758 6.77626e-21 6.25741e-08 1527
-0.0155569 1.35525e-20 0.00193255 2632.77
0.0155569 0 0.00193257 2633.5
-0.0156643 -2.71051e-20 0.000653593 2047.24
0.0156643 1.35525e-20 0.000653701 2047.44
0.015557 -6.77626e-21 0.002087 2021.71
-0.015557 6.77626e-21 0.002087 2021.12
0.0156581 2.03288e-20 0.00132521 2916.25
-0.0156581 0 0.00132509 2913.52
0.0156109 0 0.00197556 2366.9
-0.0156109 0 0.00197554 2366.22
-0.01562 0 0.00210848 1781.44
0.01562 -6.77626e-21 0.00210848 1782.03
0.0156426 0 0.00205604 1892.26
-0.0156426 0 0.00205603 1891.63
0.0156707 0 0.00197912 1952.44
-0.0156707 -6.77626e-21 0.00197907 1950
-0.0156949 0 0.00213398 1855.88
0.0156949 0 0.00213398 1856.52
0.015885 6.77626e-21 7.41484e-08 1598.19
-0.015885 6.77626e-21 7.41473e-08 1598.55
-0.01589 0 0.00034758 1569.07
0.01589 -2.25875e-21 0.000347688 1568.78
-0.0158834 2.71051e-21 0.000956113 2636.48
0.0158834 -4.51751e-22 0.000956328 2637.38
0.0158471 2.25875e-21 0.00154379 3304.88
-0.0158471 2.25875e-21 0.00154362 3302.64
-0.0158414 2.82344e-21 0.00196386 1786.65
0.0158414 -1.12938e-21 0.00196392 1787.46
-0.015839 0 0.00218308 1343.29
0.015839 -1.35525e-20 0.00218308 1344.09
-0.0159079 -4.06576e-20 0.00220656 1410.48
0.0159079 0 0.00220656 1411.17
-0.0160357 0 0.00166133 1689.05
0.0160357 1.12938e-21 0.00166159 1694.2
-0.0161335 0 1.64555e-05 1144.83
0.0161337 -4.23516e-22 1.6266e-05 1143.83
-0.0161343 -4.23516e-22 5.30999e-08 1144
0.0161345 0 5.30909e-08 1143
-0.0159895 -4.06576e-20 0.00223438 1085.14
0.0159896 0 0.00223438 1086.03
-0.0161453 0 5.24551e-08 1114.72
0.0161479 0 3.0392e-06 1114.05
-0.0161363 -2.25875e-21 0.000658258 1119.69
0.0161363 0 0.00065863 1119.33
-0.016108 0 0.00123662 1269.78
0.0161079 -2.25875e-21 0.00123704 1275.55
-0.0162278 -1.8823e-21 0.00195621 950.457
0.0162278 1.12938e-21 0.00195641 952.016
0.0161979 6.77626e-21 0.00230534 1287.44
-0.0161979 0 0.00230537 1286.09
-0.0162561 6.77626e-21 0.00232518 1312.72
0.0162561 6.77626e-21 0.00232518 1314.17
-0.016267 0 0.00230119 1307.33
0.016267 0 0.00230117 1308.8
-0.0162975 1.35525e-20 0.00227122 1229.15
0.0162975 -6.77626e-21 0.00227118 1230.45
-0.0162994 1.35525e-20 0.00233991 1379.46
0.0162994 6.77626e-21 0.00233992 1380.97
0.0164713 1.35525e-20 0.000318776 822.936
-0.0164713 0 0.00031848 824.049
0.0164838 9.03502e-21 0.000934132 514.929
-0.0164839 -4.51751e-21 0.000933459 514.786
-0.0165151 2.71051e-20 8.91788e-08 849.363
0.0165151 0 8.91806e-08 847.995
0.0164768 9.03502e-21 0.00151147 548.749
-0.0164769 0 0.00151089 541.34
0.0166394 0 9.23357e-08 895.099
-0.0166394 0 9.23334e-08 896.493
-0.0165053 0 0.00241002 1712.3
0.0165054 1.35525e-20 0.00241002 1714.13
0.0167038 2.71051e-20 0.000635416 675.707
-0.0167039 0 0.000634646 676.494
0.0165943 5.64689e-22 0.00217414 1543.51
-0.0165943 1.12938e-21 0.00217395 1541.46
0.0167298 0 0.00122679 479.603
-0.0167299 0 0.00122589 479.037
0.0166885 0 0.00181391 786.331
-0.0166886 -2.71051e-20 0.00181341 785.314
-0.0166608 -1.35525e-20 0.00246303 1984.4
0.016661 0 0.00246306 1986.51
0.0168423 -1.35525e-20 7.0937e-08 873.529
-0.0168423 1.35525e-20 7.09338e-08 875.334
0.0169749 -2.25875e-21 0.000303039 829.153
-0.016975 4.51751e-21 0.000302648 831.092
-0.0168731 1.12938e-21 0.0022093 1590.74
0.0168731 1.12938e-21 0.00220951 1591.09
0.016996 -4.51751e-21 0.000918683 261.163
-0.0169961 0 0.000917792 263.175
0.0168625 -2.03288e-20 0.00253161 2593.5
-0.0168625 0 0.00253162 2591.65
0.0169886 -4.51751e-21 0.00152442 259.298
-0.0169887 4.51751e-21 0.00152371 260.545
0.0170875 0 2.4605e-08 846.479
-0.0170875 0 2.46021e-08 848.622
0.0169822 4.51751e-21 0.00199465 608.922
-0.0169822 4.51751e-21 0.00199427 611.591
-0.0169516 -9.03502e-21 0.00241979 2449.29
0.0169517 9.03502e-21 0.00241989 2451.31
-0.0169616 -1.35525e-20 0.00256534 2614.21
0.0169617 -2.03288e-20 0.00256538 2615.9
0.0172725 2.71051e-20 0.000609814 523.962
-0.0172727 0 0.000608963 525.818
0.017301 2.71051e-20 3.86873e-09 856.604
-0.0173011 2.71051e-20 3.86453e-09 858.631
0.0172756 0 0.0012186 221.333
-0.0172758 5.42101e-20 0.00121766 222.799
0.0172503 0 0.00183262 446.628
-0.0172504 2.71051e-20 0.00183214 446.777
-0.0171625 0 0.00263367 1879.94
0.0171625 0 0.00263369 1881.35
-0.0172627 -3.38813e-21 0.00228337 1390.71
0.0172628 -5.64689e-22 0.00228356 1390.51
0.0175152 -1.35525e-20 3.90438e-09 845.833
-0.0175152 0 3.90115e-09 847.702
0.0176166 -6.77626e-21 0.000304265 804.892
-0.0176168 4.51751e-21 0.000303958 806.506
0.0176138 1.12938e-21 0.000914505 195.592
-0.0176139 0 0.000913847 196.583
0.0175986 1.12938e-21 0.00154662 148.955
-0.0175987 1.12938e-21 0.0015461 151.387
0.0174824 0 0.00274279 1914.43
-0.0174824 -1.01644e-20 0.0027428 1913.71
-0.0174954 -1.69407e-21 0.00274721 1908.23
0.0174955 3.72694e-20 0.00274726 1908.85
0.0177275 -1.35525e-20 5.30347e-09 845.34
-0.0177276 4.06576e-20 5.30237e-09 846.86
-0.0176266 -1.807e-20 0.00211798 456.748
0.0176266 2.25875e-21 0.00211823 455.602
-0.0175733 2.25875e-21 0.00255362 1792.44
0.0175734 -4.51751e-21 0.0025537 1793.05
0.0179395 0 5.36713e-09 865.316
-0.0179395 0 5.36695e-09 866.503
0.0179446 -2.71051e-20 0.000602236 514.352
-0.0179448 -2.71051e-20 0.000601852 515.288
0.0179404 2.71051e-20 0.00122938 133.49
-0.0179405 0 0.00122893 134.687
-0.0179 -2.71051e-20 0.00190852 339.359
0.0179 -2.71051e-20 0.00190875 337.895
-0.0177928 0 0.00284873 1476.76
0.0177928 2.71051e-20 0.00284875 1477.16
-0.0179476 2.71051e-20 0.0024258 1018.49
0.0179477 2.71051e-20 0.00242589 1017.53
0.0181451 0 4.40341e-09 876.72
-0.0181451 0 4.40324e-09 877.661
-0.0180159 4.06576e-20 0.00292502 1300.08
0.018016 0 0.00292506 1300.24
0.0182715 -2.25875e-21 0.000300999 822.425
-0.0182716 -4.51751e-21 0.000300875 823.152
0.0182775 0 0.000913342 208.306
-0.0182775 -6.77626e-21 0.00091307 208.885
-0.0182702 -4.51751e-21 0.00156202 122.254
0.0182702 2.25875e-21 0.00156224 120.935
-0.0182366 -1.12938e-20 0.00214879 325.176
0.0182366 4.51751e-21 0.00214891 323.352
0.0181444 -6.77626e-21 0.00296949 1344.32
-0.0181446 -6.77626e-21 0.00296953 1344.25
-0.0181872 -6.77626e-22 0.00270867 1268.45
0.0181872 6.77626e-22 0.00270873 1268.6
0.0183921 1.35525e-20 2.43155e-09 890.476
-0.0183922 1.35525e-20 2.43148e-09 891.107
-0.0185886 0 1.46532e-09 909.315
0.0185886 0 1.46539e-09 908.848
-0.0183446 -1.35525e-20 0.00303802 1510.09
0.0183446 0 0.00303804 1510.26
0.0185996 -2.71051e-20 0.000595038 533.157
-0.0185997 0 0.000594918 533.491
-0.0186737 1.16165e-20 0.00129278 101.728
0.0186737 1.16165e-20 0.00129291 101.025
-0.0187703 -1.35525e-20 1.23409e-09 918.866
0.0187703 1.35525e-20 1.23413e-09 918.531
0.0185175 2.03288e-20 0.00309812 1580.11
-0.0185175 6.77626e-21 0.00309812 1579.98
-0.0187148 -4.51751e-21 0.00187601 130.149
0.0187148 4.51751e-21 0.00187608 129.002
-0.0186674 7.52918e-21 0.00253515 828.495
0.0186674 -3.01167e-21 0.00253519 826.723
0.018823 -1.35525e-20 0.000903657 215.033
-0.018823 4.51751e-21 0.00090356 215.335
0.0188705 -4.51751e-21 0.0002483 879.927
-0.0188706 2.25875e-21 0.000248266 880.17
-0.0186437 0 0.002939 1595.4
0.0186438 0 0.00293906 1595.55
-0.0189391 2.71051e-20 0.00154412 71.8473
0.0189391 2.71051e-20 0.00154419 71.0268
0.0187701 -9.74088e-21 0.00318665 1897.44
-0.0187699 -8.47033e-22 0.00318654 1897.46
0.0188367 -1.35525e-20 0.00285269 1437.5
-0.0188367 -1.35525e-20 0.00285269 1439.18
0.0190684 0 6.42265e-10 946.865
-0.0190684 1.35525e-20 6.42229e-10 947.019
-0.018947 0 0.00220299 146.761
0.018947 0 0.00220303 146.536
-0.0189611 -6.77626e-21 0.00294132 1579.63
0.0189611 -6.77626e-21 0.00294137 1577.94
-0.0192376 0 4.16948e-10 986.118
0.0192376 -2.71051e-20 4.16969e-10 986.01
0.0192505 -2.25875e-21 0.000578858 571.084
-0.0192506 1.12938e-20 0.000578833 571.082
-0.0192654 -6.77626e-21 0.00120337 111.095
0.0192654 -4.51751e-21 0.0012034 110.942
-0.0192728 4.51751e-21 0.00186871 95.5151
0.0192728 1.12938e-20 0.00186874 95.2321
-0.0190865 0 0.00329541 2296.26
0.0190867 2.71051e-20 0.00329547 2296.15
-0.0193938 0 3.58644e-10 997.979
0.0193938 -2.71051e-20 3.58662e-10 997.905
0.0193936 -2.71051e-20 0.000130553 997.069
-0.0193936 1.35525e-20 0.000130545 997.143
-0.0191339 1.35525e-20 0.00323263 2257.39
0.019134 0 0.00323272 2257.32
-0.0192591 4.51751e-21 0.00254519 511.917
0.0192591 2.25875e-21 0.00254522 510.811
-0.0192048 0 0.003336 1959.66
0.0192049 1.35525e-20 0.00333604 1959.78
-0.0193217 4.51751e-22 0.00298746 1432.22
0.0193218 -9.03502e-22 0.0029875 1431.07
0.0195688 0 0.000280898 1015.84
-0.0195688 2.71051e-20 0.00028089 1015.86
0.0195891 -2.71051e-20 0.000871761 158.512
-0.0195891 5.42101e-20 0.000871755 158.168
-0.019374 0 0.0032822 1880.55
0.019374 -1.35525e-20 0.00328227 1880.68
-0.0196057 -2.71051e-20 0.00151348 62.7335
0.0196057 0 0.0015135 62.6833
-0.0193742 -2.71051e-20 0.00339404 1831.56
0.0193743 0 0.00339406 1831.7
-0.0196063 2.71051e-20 0.0021914 96.3515
0.0196063 2.71051e-20 0.00219141 96.4545
0.0197445 0 1.1881e-10 1055.17
-0.0197445 0 1.1881e-10 1055.17
0.0197496 1.35525e-20 0.000118775 1055.3
-0.0197497 2.71051e-20 0.000118767 1055.29
-0.0196349 0 0.00277709 335.267
0.019635 0 0.00277712 335.544
-0.0195953 1.35525e-20 0.00324376 2117.9
0.0195954 0 0.0032438 2117.93
-0.0198869 1.35525e-20 6.23641e-11 1114.14
0.0198869 1.35525e-20 6.23597e-11 1114.16
0.0199025 0 0.000551642 639.355
-0.0199025 6.77626e-21 0.00055164 638.989
-0.0196372 -2.71051e-20 0.00348423 1743.1
0.0196374 0 0.0034843 1743.11
-0.0199263 7.90564e-21 0.00116493 114.249
0.0199263 -2.25875e-21 0.00116493 114.845
-0.0197065 0 0.0033997 1767.2
0.0197066 1.35525e-20 0.00339978 1767.19
-0.0200175 0 0.000104927 1126.9
0.0200175 -1.35525e-20 0.000104918 1126.96
-0.020018 0 5.47768e-11 1127.66
0.0200181 0 5.47745e-11 1127.71
-0.0199354 0 0.00184109 71.7059
0.0199355 -5.64689e-21 0.0018411 71.6462
-0.0199397 0 0.00250609 185.14
0.0199397 -1.12938e-21 0.0025061 184.078
-0.0198048 -1.35525e-20 0.00354162 1705.1
0.0198049 2.71051e-20 0.00354168 1705.11
-0.0199176 0 0.00307583 1075.94
0.0199177 2.25875e-21 0.00307587 1075.32
-0.0202108 0 0.000262551 1165.23
0.0202108 2.71051e-20 0.000262544 1165.32
-0.0202372 2.71051e-20 0.000828952 174.635
0.0202372 0 0.00082895 175.712
-0.0199793 1.35525e-20 0.00344741 1460.89
0.0199793 -1.35525e-20 0.00344747 1460.91
-0.0199876 -6.77626e-21 0.00360417 1259.27
0.0199877 1.35525e-20 0.00360422 1259.34
-0.0202612 -2.71051e-20 0.00146953 58.4445
0.0202612 0 0.00146953 59.4831
-0.0202614 -2.71051e-20 0.00216708 68.2369
0.0202614 2.71051e-20 0.0021671 66.9722
-0.020424 0 1.48382e-11 1269.02
0.0204241 0 1.48336e-11 1269.12
-0.0204263 -1.35525e-20 8.83618e-05 1269.35
0.0204264 0 8.83583e-05 1269.45
-0.0201258 -2.71051e-20 0.00365147 1142.98
0.020126 2.03288e-20 0.00365154 1143
-0.0202574 -2.71051e-20 0.00283409 220.109
0.0202575 5.42101e-20 0.00283411 216.628
-0.02023 -1.35525e-20 0.00346726 1260.87
0.0202301 -8.13152e-21 0.00346732 1260.87
-0.0205366 0 8.07587e-12 1362.61
0.0205367 -1.35525e-20 8.0725e-12 1362.7
-0.0205431 -1.12938e-21 0.000507235 782.421
0.0205431 1.12938e-21 0.000507233 783.553
-0.0205806 1.12938e-21 0.00109806 130.031
0.0205806 -1.12938e-21 0.00109806 131.682
-0.0206332 0 7.2332e-05 1399.34
0.0206332 0 7.23425e-05 1399.44
-0.0206362 0 7.47893e-12 1394.39
0.0206362 1.35525e-20 7.47568e-12 1394.49
-0.0203258 -1.35525e-20 0.00371988 1410.72
0.020326 2.71051e-20 0.00371994 1410.73
-0.0205919 -2.25875e-21 0.00179229 59.4782
0.0205919 -3.38813e-21 0.00179229 59.3753
-0.0205776 1.12938e-21 0.00251302 123.49
0.0205777 0 0.00251303 121.791
-0.0204396 1.35525e-20 0.00376155 1491.07
0.0204398 0 0.00376163 1491.04
-0.0204726 -1.35525e-20 0.00364922 1487.34
0.0204728 4.06576e-20 0.00364928 1487.31
-0.0205732 -1.50584e-21 0.00324396 888.51
0.0205733 -2.25875e-21 0.003244 887.814
-0.0208433 -2.71051e-20 0.000231572 1504.37
0.0208434 2.71051e-20 0.000231569 1504.47
-0.0208763 -2.71051e-20 0.000747796 226.004
0.0208763 0 0.000747794 229.148
-0.0209307 2.71051e-20 0.00137566 60.1225
0.0209307 2.71051e-20 0.00137566 61.7205
-0.0206256 0 0.00382199 1770.13
0.0206258 6.77626e-21 0.00382207 1770.21
-0.0209018 2.71051e-20 0.00213753 51.4118
0.0209018 -2.71051e-20 0.00213753 49.7484
-0.0207137 0 0.00385276 1789.94
0.0207138 0 0.00385283 1790.06
-0.0208885 0 0.00285883 143.881
0.0208886 0 0.00285885 143.494
-0.0207601 -6.77626e-21 0.00376298 1751.36
0.0207602 0 0.00376308 1751.5
0.0211429 9.03502e-21 0.0004345 861.184
-0.0211429 3.01167e-21 0.000434502 859.293
-0.020841 -5.27043e-21 0.00362679 1573.81
0.0208411 2.25875e-21 0.00362684 1573.88
-0.0208387 -6.77626e-21 0.00389825 1915.83
0.0208388 1.35525e-20 0.0038983 1915.91
-0.0212597 0 5.25669e-13 1178.13
0.0212601 -1.05879e-20 5.19801e-13 1178.1
-0.0212767 2.5411e-21 1.41099e-05 1164.34
-0.0212768 0 1.74179e-06 1176.17
0.0212769 -8.47033e-21 1.38726e-05 1164.59
0.0212813 0 1.45875e-06 1176.16
0.0212895 0 2.69474e-13 1174.51
-0.0212896 0 2.7104e-13 1174.49
-0.0212723 -5.64689e-22 0.000878984 294.563
0.0212724 -2.25875e-21 0.000878975 297.202
-0.0212427 -1.12938e-22 0.00171816 62.7036
0.0212427 9.03502e-22 0.00171814 63.0172
-0.0212146 1.12938e-21 0.00249693 83.0961
0.0212146 -1.12938e-21 0.00249694 81.4814
-0.0210353 0 0.00398139 2212.5
0.0210355 0 0.00398146 2212.75
-0.021178 2.25875e-21 0.00323686 562.793
0.0211781 0 0.00323687 563.103
-0.0210737 1.35525e-20 0.00393726 2176.78
0.0210738 0 0.00393731 2177.02
-0.0211186 1.35525e-20 0.00402021 1960.35
0.0211188 0 0.0040203 1960.43
-0.0212476 8.06698e-23 0.00368161 1434.56
0.0212478 -4.03349e-22 0.00368166 1435.76
-0.0215747 0 0.00130736 66.5415
0.0215747 2.71051e-20 0.00130737 69.5091
-0.0212486 1.35525e-20 0.00397488 1818.5
0.0212488 0 0.00397493 1818.47
-0.0212527 1.35525e-20 0.00408538 1714.54
0.021253 -6.77626e-21 0.00408549 1714.42
-0.0216407 7.52918e-22 0.00033173 790.217
0.0216408 7.52918e-22 0.000331723 790.564
-0.0215441 -2.71051e-20 0.00209926 42.014
0.0215442 2.71051e-20 0.00209926 40.0472
-0.0215225 2.71051e-20 0.00284518 91.117
0.0215225 0 0.0028452 88.5841
-0.0217961 0 7.94919e-14 916.235
0.0217961 1.35525e-20 7.91737e-14 916.118
-0.0215506 -2.71051e-20 0.00347094 338.018
0.0215507 0 0.00347097 343.066
-0.0214959 0 0.00395189 2117.92
0.0214961 1.35525e-20 0.00395193 2117.81
-0.0214983 6.77626e-21 0.00420475 1678.59
0.0214984 6.77626e-21 0.00420479 1678.4
-0.0218606 -1.41172e-22 0.00170493 53.521
0.0218606 8.9409e-22 0.0017049 54.0163
-0.0219212 -3.38813e-21 0.000827127 308.186
0.0219212 4.51751e-22 0.00082711 312.511
-0.0219609 1.35525e-20 4.02034e-14 946.21
0.021961 -1.35525e-20 4.01314e-14 946.09
-0.0218494 -1.12938e-21 0.00247003 57.3453
0.0218494 -5.64689e-22 0.00247004 55.0867
-0.0216145 1.35525e-20 0.00413981 1777.22
0.0216145 1.35525e-20 0.00413983 1777.08
-0.0216502 1.35525e-20 0.00427857 1859.72
0.0216503 0 0.00427863 1859.6
-0.0218421 -1.69407e-21 0.00317495 176.882
0.0218422 -3.38813e-21 0.00317496 175.455
-0.0217324 0 0.00431835 1878.82
0.0217325 0 0.00431843 1878.73
-0.0217583 -1.35525e-20 0.00423555 1902.83
0.0217584 1.35525e-20 0.0042356 1902.76
-0.0221733 0 2.81576e-14 854.647
0.0221735 -6.77626e-21 2.80965e-14 854.378
-0.021866 7.05861e-23 0.00385234 1218.01
0.0218668 0 0.00385247 1218.34
-0.0222021 -2.71051e-20 0.00129532 68.9321
0.0222022 -2.71051e-20 0.00129532 71.4185
0.0222506 -7.05861e-23 0.000330091 746.774
-0.0222517 -3.5293e-23 0.000328747 747.203
-0.0221694 5.42101e-20 0.00208071 36.0113
0.0221694 0 0.00208072 34.9571
-0.0218631 -1.35525e-20 0.00438174 2058.88
0.0218633 1.35525e-20 0.00438183 2058.83
0.0223211 0 1.21342e-14 851.009
-0.0223212 6.77626e-21 1.21355e-14 851.291
-0.0221597 -5.42101e-20 0.00282094 59.1984
0.0221598 0 0.00282094 55.7581
-0.0221457 -2.71051e-20 0.00350913 198.45
0.0221457 2.71051e-20 0.00350915 192.958
-0.0220148 -2.03288e-20 0.00445531 2029.71
0.0220149 6.77626e-21 0.00445537 2029.6
-0.0225415 0 1.22277e-15 947.988
0.0225416 0 1.23378e-15 947.803
-0.0221394 0 0.00425961 1892.14
0.0221395 1.12938e-21 0.00425967 1892.08
-0.0224964 -2.96462e-20 0.00168456 51.1212
0.0224964 -4.23516e-22 0.0016846 51.8415
-0.0225021 0 0.00168479 50.9928
0.0225021 0 0.00168483 51.6864
0.0225129 0 0.00168799 51.7172
-0.022513 0 0.00168798 51.0128
-0.022576 5.42101e-21 0.000874276 297.002
0.0225761 4.51751e-21 0.000874269 302.806
-0.0225135 -1.6134e-22 0.00242345 47.2333
0.0225136 8.87368e-22 0.00242345 45.173
-0.0224593 -1.12938e-21 0.00318123 106.04
0.0224593 0 0.00318124 102.25
-0.0223019 -3.38813e-21 0.00459436 1876.19
0.022302 -3.38813e-21 0.00459437 1876.14
-0.0224349 -9.03502e-22 0.00390505 717.686
0.022435 6.77626e-21 0.00390508 716.358
-0.0228059 -1.27055e-20 8.70915e-16 763.322
0.0228061 4.23516e-22 8.77264e-16 763.067
-0.022811 -8.47033e-22 2.46647e-05 755.995
0.0228111 0 2.39222e-05 755.962
-0.0223412 0 0.00461337 1888.33
0.0223413 3.38813e-21 0.00461342 1888.29
0.0228141 4.23516e-22 8.58194e-16 763.654
-0.0228142 2.5411e-20 8.51408e-16 763.925
-0.0228118 -5.64689e-22 0.000334117 692.589
0.0228118 5.64689e-22 0.000334137 692.965
-0.022347 0 0.00460685 1877.76
0.0223471 0 0.00460689 1877.69
-0.0223545 0 0.00461977 1841.59
0.0223546 0 0.00461984 1841.45
-0.0223623 -3.38813e-21 0.00458505 1797.17
0.0223624 1.69407e-21 0.00458505 1796.98
-0.0223809 0 0.0046121 1824.55
0.022381 0 0.00461216 1824.39
-0.0223957 -1.69407e-21 0.00463972 1808.05
0.0223958 0 0.00463983 1807.85
-0.0225314 1.35525e-20 0.00433167 1283.66
0.0225315 0 0.00433171 1283.7
-0.0227767 -2.71051e-20 0.00282452 44.3375
0.0227767 0 0.00282454 40.4592
-0.0229169 2.71051e-20 0.00145351 56.8626
0.022917 0 0.00145354 57.5945
-0.0229127 2.71051e-20 0.001952 38.4175
0.0229127 0 0.001952 39.0737
-0.0227583 0 0.00352775 116.437
0.0227583 -2.71051e-20 0.00352777 114.078
-0.0226788 1.35525e-20 0.00436549 1112.79
0.0226789 -6.77626e-21 0.00436553 1112
-0.0231146 0 6.24631e-16 875.551
0.0231146 0 6.26477e-16 875.521
-0.0231263 5.64689e-22 0.000857356 321.653
0.0231264 1.12938e-21 0.000857382 328.561
-0.0231204 0 0.00168686 49.1713
0.0231204 0 0.00168687 50.0835
-0.0226912 0 0.00478277 1560.61
0.0226912 1.35525e-20 0.00478283 1560.53
-0.0231332 4.23516e-22 0.00244156 37.6388
0.0231332 -8.47033e-22 0.00244157 35.7393
-0.0227888 -1.35525e-20 0.00466799 1511.66
0.0227889 -1.35525e-20 0.00466803 1511.58
-0.0230834 -1.12938e-21 0.00317456 67.075
0.0230835 1.12938e-21 0.00317458 64.0466
-0.023319 0 3.10972e-16 671.11
0.0233191 6.77626e-21 3.12101e-16 671.168
-0.0230283 9.03502e-21 0.00391292 364.079
0.0230284 0 0.00391294 363.812
-0.02333 2.71051e-20 0.00142276 63.5326
0.02333 0 0.00142278 64.6038
-0.0233168 0 0.00194192 36.1004
0.0233168 2.71051e-20 0.00194194 37.3083
-0.0228965 -2.71051e-20 0.0048822 1381.67
0.0228966 0 0.00488226 1381.6
-0.0234102 2.25875e-21 0.000267243 648.304
0.0234102 -4.51751e-21 0.000267244 648.377
-0.0229986 7.52918e-22 0.0043906 937.877
0.0229987 -3.76459e-21 0.00439064 938.658
0.0235162 1.35525e-20 1.75957e-16 633.664
-0.0235162 6.77626e-21 1.74954e-16 633.555
-0.0234234 2.71051e-20 0.00278585 33.8077
0.0234234 0 0.00278586 30.1765
-0.0230651 1.35525e-20 0.00496382 1090.71
0.0230652 -2.71051e-20 0.00496388 1090.67
-0.0233787 2.71051e-20 0.00352562 70.7566
0.0233787 -2.71051e-20 0.00352564 68.5116
-0.0237161 1.35525e-20 -1.12817e-16 687.991
0.0237161 1.35525e-20 -1.126e-16 688.186
-0.0232668 -3.61401e-21 0.00471662 979.377
0.0232669 -1.35525e-21 0.00471667 979.616
-0.0233857 2.71051e-20 0.00417634 230.94
0.0233857 -2.71051e-20 0.00417637 236.266
-0.0232203 -6.77626e-21 0.00503892 1023.48
0.0232204 -1.35525e-20 0.00503899 1023.46
-0.0237642 -2.82344e-21 0.000871716 328.402
0.0237642 2.82344e-22 0.000871732 331.777
-0.0237897 -2.71051e-20 9.69712e-05 560.407
0.0237897 1.35525e-20 9.70283e-05 560.504
-0.0237941 1.35525e-20 4.97248e-16 561.458
0.0237942 -1.35525e-20 5.01214e-16 561.555
-0.0237454 -2.82344e-22 0.00168598 47.501
0.0237454 -1.83524e-21 0.00168599 48.6517
-0.0238504 1.35525e-20 -3.63004e-16 536.819
0.0238505 0 -3.63597e-16 536.883
-0.0237771 1.35525e-21 0.00232532 35.1464
0.0237772 4.06576e-21 0.00232532 33.6307
-0.023345 2.71051e-20 0.00509928 1144.36
0.0233451 1.35525e-20 0.00509935 1144.35
-0.0237118 -5.64689e-21 0.00315193 45.1429
0.0237118 -3.38813e-21 0.00315194 42.1931
-0.0239754 0 0.000105727 476.035
0.0239757 0 0.000105814 476.065
-0.0240029 1.35525e-20 2.3863e-16 471.693
-0.0236913 7.90564e-21 0.0038564 122.827
0.0236913 -2.25875e-21 0.00385642 123.827
0.0240032 -1.35525e-20 2.38694e-16 471.72
-0.0235265 -2.03288e-20 0.00518714 1207.51
0.0235266 -1.35525e-20 0.0051872 1207.55
-0.0237117 0 0.00456148 712.434
0.0237118 9.03502e-21 0.00456152 715.413
-0.0235865 6.77626e-21 0.00521624 1255.91
0.0235867 -6.77626e-21 0.00521631 1255.94
-0.0236569 -1.6263e-20 0.00499193 1233.45
0.023657 -5.42101e-21 0.00499199 1233.45
-0.0240359 -2.71051e-20 0.0027785 28.7421
0.024036 0 0.00277852 25.7546
-0.0240146 -2.71051e-20 0.00349448 46.634
0.0240147 2.71051e-20 0.0034945 43.7066
-0.0237108 6.77626e-21 0.00516871 1344.8
0.023711 0 0.00516878 1344.77
-0.0237215 0 0.00528159 1449.44
0.0237217 0 0.00528165 1449.36
-0.0238516 -3.38813e-21 0.00489348 1098.99
0.0238517 3.38813e-21 0.00489352 1100.9
-0.0239976 -5.42101e-20 0.00419241 129.198
0.0239977 -2.71051e-20 0.00419244 132.54
-0.0238168 0 0.00514856 1302.78
0.0238169 -6.77626e-21 0.00514863 1303.76
-0.0238281 6.77626e-21 0.00525503 1523.61
0.0238283 6.77626e-21 0.00525509 1523.45
-0.0238429 1.35525e-20 0.00534032 1618.2
0.023843 -6.77626e-21 0.00534036 1617.94
-0.0243893 0 0.00171905 41.0747
0.0243893 -5.42101e-20 0.00171905 42.22
-0.0239789 -2.71051e-20 0.00489875 878.152
0.023979 0 0.00489881 882.279
-0.0243696 -1.41172e-22 0.00243113 30.4183
0.0243706 -1.41172e-22 0.00243196 28.6141
-0.0244866 5.42101e-20 0.00051268 306.376
0.0244867 -5.42101e-20 0.000512684 306.48
-0.0243442 0 0.00312516 33.6672
0.0243442 -3.38813e-21 0.00312517 31.1105
-0.0239577 3.38813e-20 0.00539588 1720.55
0.0239578 -2.71051e-20 0.00539595 1720.26
-0.0240298 2.71051e-21 0.00521691 1594.75
0.02403 -1.0842e-20 0.00521698 1594.52
-0.0243197 0 0.00383765 71.8004
0.0243198 -1.12938e-21 0.00383767 72.6189
-0.0242836 -9.03502e-21 0.00455364 394.818
0.0242836 -6.77626e-21 0.00455368 401.334
-0.0241601 1.35525e-20 0.00549389 1509.38
0.0241602 0 0.00549396 1509.27
-0.0242635 3.01167e-21 0.00502115 988.313
0.0242637 3.01167e-21 0.00502121 993.427
-0.0246819 0 0.00275432 25.5811
0.0246819 -2.71051e-20 0.00275433 23.2655
-0.0246457 2.71051e-20 0.00346491 33.6015
0.0246458 0 0.00346492 31.5715
-0.0243131 0 0.00556792 1204.66
0.0243132 -1.35525e-20 0.00556799 1204.58
-0.0249638 1.35525e-20 3.14502e-16 292.818
0.0249638 1.35525e-20 3.14469e-16 292.957
-0.0249658 1.35525e-20 0.000127061 291.514
0.0249658 4.06576e-20 0.000127084 291.653
-0.0246319 2.71051e-20 0.00416571 73.4565
0.0246319 -2.71051e-20 0.00416574 78.1237
-0.0250669 -6.77626e-21 0.00111391 166.154
0.025067 -6.77626e-21 0.00111391 166.499
-0.0245277 0 0.00533379 1032.89
0.0245278 -4.51751e-22 0.00533385 1033.63
-0.0246411 0 0.00480622 245.157
0.0246412 0 0.00480627 260.126
-0.0251264 0 -5.57162e-18 309.034
0.0251265 2.71051e-20 -5.54308e-18 309.183
-0.0244892 6.77626e-21 0.00565317 1095.27
0.0244893 0 0.00565322 1095.22
-0.0250457 2.25875e-21 0.00228488 31.235
0.0250457 0 0.00228489 30.2818
-0.0249744 -1.41172e-21 0.00307726 28.0116
0.0249744 1.12938e-21 0.00307727 26.042
-0.0245965 1.35525e-20 0.00570515 1205.25
0.0245966 -2.71051e-20 0.00570519 1205.24
-0.0252751 -2.71051e-20 0.000134701 276.87
-0.0249934 0 0.00376622 47.4978
0.0252752 0 0.000134716 277.029
0.0249934 8.47033e-22 0.00376624 48.8869
-0.0252845 1.35525e-20 -2.40066e-18 276.808
0.0252846 0 -2.39523e-18 276.967
-0.0249434 -1.12938e-21 0.00449176 130.285
0.0249434 -3.38813e-21 0.00449179 139.142
-0.0247822 3.38813e-21 0.00579502 1269.5
0.0247823 -1.35525e-20 0.00579507 1269.54
-0.0249665 3.01167e-21 0.00518177 746.822
0.0249666 -1.50584e-21 0.00518182 753.462
-0.0248296 -6.77626e-21 0.00581795 1311.55
0.0248297 -3.38813e-21 0.00581801 1311.61
-0.0249104 -5.42101e-21 0.00560274 1294.07
0.0249105 -8.13152e-21 0.00560279 1294.12
-0.0254015 0 0.00285469 22.412
0.0254015 5.42101e-20 0.0028547 21.0498
-0.0252645 0 0.00414474 49.7392
0.0252645 -2.71051e-20 0.00414475 54.2654
-0.0254031 -5.42101e-20 0.00331055 26.1746
0.0254031 2.71051e-20 0.00331056 24.4759
-0.0249624 0 0.00577193 1415.25
0.0249625 -6.77626e-21 0.00577202 1415.3
-0.0249739 0 0.00588778 1535.67
0.024974 0 0.00588783 1535.66
-0.0252501 0 0.00482067 137.893
0.0252501 -2.71051e-20 0.00482071 148.359
-0.0257173 0 0.000556257 259.216
0.0257173 0 0.000556256 259.412
-0.0250723 6.77626e-21 0.00575396 1371.24
0.0250724 1.35525e-20 0.00575407 1372.65
-0.0256699 -5.42101e-20 0.00175088 41.5257
0.0256699 5.42101e-20 0.00175088 41.2436
-0.0256382 -8.47033e-22 0.0024157 28.3858
0.0256382 -1.97641e-21 0.00241571 27.3379
-0.0250837 6.77626e-21 0.00586274 1620.56
0.0250838 1.35525e-20 0.00586281 1620.51
-0.0256079 0 0.00307876 23.3579
0.0256079 0 0.00307876 22.2098
-0.025098 6.77626e-21 0.00594767 1727.52
0.025098 0 0.0059477 1727.37
-0.0251925 2.25875e-21 0.00555311 1158.42
0.0251926 1.12938e-20 0.00555317 1162.2
-0.0252316 -2.71051e-20 0.00551486 916.174
0.0252317 0 0.00551494 921.41
-0.0255924 -1.50584e-21 0.0037929 35.1963
0.0255924 4.51751e-21 0.00379291 37.8858
-0.0252102 -2.71051e-20 0.00600189 1837.54
0.0252104 -6.77626e-21 0.00600198 1837.46
-0.0252817 8.13152e-21 0.00582896 1695.76
0.0252819 8.13152e-21 0.00582905 1695.73
-0.0255735 -1.12938e-21 0.00447397 76.3369
0.0255735 0 0.00447399 84.9925
-0.0258318 -2.71051e-20 0.0028448 21.4789
0.0258318 -5.42101e-20 0.0028448 20.5586
-0.0257993 0 0.00329834 22.3992
0.0257993 2.71051e-20 0.00329835 22.053
-0.0255336 4.51751e-21 0.0051788 414.653
0.0255337 -2.25875e-21 0.00517885 427.549
-0.025412 4.06576e-20 0.00609921 1584.68
0.0254122 1.35525e-20 0.00609928 1584.67
-0.0255488 2.25875e-21 0.00563576 1021.44
0.0255489 6.77626e-21 0.00563582 1030.37
0.0262229 0 -2.45033e-18 253.522
-0.0262229 1.35525e-20 -2.47165e-18 253.287
0.0262242 0 0.000110099 253.348
-0.0262242 1.35525e-20 0.000110093 253.113
-0.025914 -2.71051e-20 0.00409942 33.0623
0.025914 -2.71051e-20 0.00409944 38.5599
-0.0255675 0 0.00617785 1254.66
0.0255677 0 0.00617797 1254.47
-0.025876 -2.71051e-20 0.00480446 79.2482
0.025876 0 0.00480449 93.2579
0.0263176 6.77626e-21 0.00114406 147.12
-0.0263176 0 0.00114406 147.833
-0.0263544 -1.35525e-20 1.26633e-19 252.72
0.0263544 -1.35525e-20 1.28683e-19 252.964
-0.0263095 -1.12938e-21 0.00235736 30.6258
0.0263095 0 0.00235737 29.5099
-0.0262443 0 0.00306374 21.2778
0.0262457 0 0.00306373 20.7756
-0.0262456 0 0.00305714 21.3672
0.0262456 6.67038e-21 0.00305717 20.8564
0.0262459 2.11758e-22 0.00308325 21.0701
-0.0262459 0 0.00308332 21.4527
-0.0258908 -2.71051e-20 0.00543286 260.26
0.0258909 0 0.00543291 286.066
-0.0257782 -4.51751e-22 0.00595398 1085.1
0.0257783 -1.35525e-21 0.00595406 1086.48
-0.0264724 -1.35525e-20 0.000113035 247.371
0.0264724 -1.35525e-20 0.000113038 247.626
-0.0264809 -1.35525e-20 1.33508e-19 247.332
0.0264809 0 1.34472e-19 247.587
-0.0257322 0 0.00626847 1114.39
0.0257323 0 0.00626852 1114.32
-0.0262544 -4.70574e-22 0.00364382 27.6502
0.0262544 8.47033e-22 0.00364383 30.8096
-0.0262049 -2.25875e-21 0.00444578 47.4258
0.026205 3.38813e-21 0.0044458 56.8851
-0.0258428 -1.35525e-20 0.00632526 1211.93
0.025843 -1.35525e-20 0.00632535 1211.92
-0.0261907 3.38813e-21 0.00512142 136.708
0.0261908 -3.38813e-21 0.00512145 155.284
-0.0260126 1.69407e-21 0.00644125 1237.63
0.0260127 5.0822e-21 0.00644133 1237.62
-0.0260426 -1.69407e-21 0.00646012 1248.76
0.0260428 3.38813e-21 0.00646024 1248.78
-0.0265279 2.71051e-20 0.00408779 26.5144
0.026528 0 0.0040878 31.8022
-0.0262146 5.27043e-21 0.00581641 760.716
0.0262147 -2.25875e-21 0.00581648 772.495
-0.0261568 -2.1684e-20 0.00624565 1277.71
0.026157 8.13152e-21 0.00624574 1277.71
-0.0265114 2.71051e-20 0.0047731 49.7906
0.0265114 2.71051e-20 0.00477312 62.846
0.0269562 0 0.000576391 241.125
-0.0269562 1.0842e-19 0.000576396 240.83
-0.0261882 0 0.00642613 1313.29
0.0261883 -6.77626e-21 0.00642626 1313.32
0.0269247 0 0.00175757 39.3409
-0.0269247 0 0.00175757 42.6142
-0.0261875 0 0.00655335 1367.9
0.0261876 0 0.00655342 1367.92
-0.0264989 0 0.00545186 140.573
0.026499 0 0.0054519 161.412
-0.0268811 -1.0842e-19 0.00306205 19.1175
0.0268811 -1.0842e-19 0.00306205 19.1081
-0.02635 3.38813e-21 0.00616024 1094.81
0.0263501 0 0.00616028 1099.76
-0.0262995 6.77626e-21 0.00641282 1245.74
0.0262996 -1.35525e-20 0.00641295 1247.83
-0.0263015 6.77626e-21 0.00652542 1406.68
0.0263016 1.35525e-20 0.00652551 1406.72
-0.0268577 0 0.00373171 22.8783
0.0268577 3.95282e-22 0.00373171 26.5775
-0.0263055 -3.38813e-21 0.00663191 1463.83
0.0263056 6.77626e-21 0.00663195 1463.87
-0.0264848 0 0.00617549 915.661
0.0264849 0 0.00617557 923.324
-0.0268382 0 0.0044189 32.8936
0.0268382 0 0.00441892 41.7536
-0.0263807 1.35525e-20 0.00668199 1519.89
0.0263808 -2.03288e-20 0.00668208 1520.01
-0.0265072 0 0.00650855 1479.44