# p  POINT_DATA 52106
# x  y  z  p
0.015557 -1.35525e-20 5.70113e-08 -0.00371128
-0.015557 1.35525e-20 5.70113e-08 0.00971632
-0.015557 -6.77626e-21 0.000135948 0.0097163
0.015557 0 0.000135964 -0.00371154
-0.015557 6.77626e-21 0.000527058 0.0097163
0.015557 6.77626e-21 0.000527125 -0.00371155
-0.015557 1.35525e-20 0.000659558 0.00971632
0.015557 -1.35525e-20 0.000659639 -0.00371134
-0.0155569 0 0.000798557 0.00971629
0.015557 0 0.000798637 -0.00371157
-0.0155569 6.77626e-21 0.00121614 0.00971629
0.0155569 0 0.00121623 -0.00371158
-0.0155569 -6.77626e-21 0.00135476 0.00971632
0.0155569 0 0.00135485 -0.00371137
-0.0156159 6.77626e-21 6.65977e-05 0.00971625
0.0156159 -6.77626e-21 6.66114e-05 -0.0037111
0.015617 -6.77626e-21 5.8671e-08 -0.0037111
-0.015617 0 5.86705e-08 0.00971625
-0.0156133 0 0.000593966 0.00971625
0.0156133 6.77626e-21 0.00059404 -0.00371114
0.0156101 0 0.000721026 -0.00371116
-0.0156101 6.77626e-21 0.000720945 0.00971625
-0.0155569 -6.77626e-21 0.00150199 0.00971629
0.0155569 0 0.00150206 -0.00371157
-0.0156099 -6.77626e-21 0.00127797 0.00971625
0.0156099 6.77626e-21 0.00127806 -0.00371116
0.0156067 -6.77626e-21 0.00140498 -0.00371118
-0.0156067 0 0.00140489 0.00971625
-0.0156758 -6.77626e-21 6.25738e-08 0.0097162
0.0156758 6.77626e-21 6.25741e-08 -0.00371065
-0.0155569 1.35525e-20 0.00193255 0.00971631
0.0155569 0 0.00193257 -0.00371158
-0.0156643 -2.71051e-20 0.000653593 0.00971621
0.0156643 1.35525e-20 0.000653701 -0.00371073
0.015557 -6.77626e-21 0.002087 -0.00371131
-0.015557 6.77626e-21 0.002087 0.00971635
0.0156581 2.03288e-20 0.00132521 -0.00371075
-0.0156581 0 0.00132509 0.00971622
0.0156109 0 0.00197556 -0.00371117
-0.0156109 0 0.00197554 0.00971627
-0.01562 0 0.00210848 0.00971633
0.01562 -6.77626e-21 0.00210848 -0.00371107
0.0156426 0 0.00205604 -0.00371092
-0.0156426 0 0.00205603 0.00971629
0.0156707 0 0.00197912 -0.00371071
-0.0156707 -6.77626e-21 0.00197907 0.00971623
-0.0156949 0 0.00213398 0.00971622
0.0156949 0 0.00213398 -0.00371066
0.015885 6.77626e-21 7.41484e-08 -0.00370905
-0.015885 6.77626e-21 7.41473e-08 0.00971603
-0.01589 0 0.00034758 0.00971601
0.01589 -2.25875e-21 0.000347688 -0.00370897
-0.0158834 2.71051e-21 0.000956113 0.009716
0.0158834 -4.51751e-22 0.000956328 -0.003709
0.0158471 2.25875e-21 0.00154379 -0.00370919
-0.0158471 2.25875e-21 0.00154362 0.00971603
-0.0158414 2.82344e-21 0.00196386 0.00971598
0.0158414 -1.12938e-21 0.00196392 -0.00370952
-0.015839 0 0.00218308 0.00971601
0.015839 -1.35525e-20 0.00218308 -0.00370979
-0.0159079 -4.06576e-20 0.00220656 0.009716
0.0159079 0 0.00220656 -0.00370985
-0.0160357 0 0.00166133 0.00971578
0.0160357 1.12938e-21 0.00166159 -0.00370885
-0.0161335 0 1.64555e-05 0.00971585
0.0161337 -4.23516e-22 1.6266e-05 -0.00370777
-0.0161343 -4.23516e-22 5.30999e-08 0.00971585
0.0161345 0 5.30909e-08 -0.00370777
-0.0159895 -4.06576e-20 0.00223438 0.00971585
0.0159896 0 0.00223438 -0.00370946
-0.0161453 0 5.24551e-08 0.00971583
0.0161479 0 3.0392e-06 -0.00370772
-0.0161363 -2.25875e-21 0.000658258 0.00971572
0.0161363 0 0.00065863 -0.00370844
-0.016108 0 0.00123662 0.00971577
0.0161079 -2.25875e-21 0.00123704 -0.00370876
-0.0162278 -1.8823e-21 0.00195621 0.00971555
0.0162278 1.12938e-21 0.00195641 -0.00370839
0.0161979 6.77626e-21 0.00230534 -0.0037086
-0.0161979 0 0.00230537 0.00971566
-0.0162561 6.77626e-21 0.00232518 0.00971565
0.0162561 6.77626e-21 0.00232518 -0.00370826
-0.016267 0 0.00230119 0.00971562
0.016267 0 0.00230117 -0.00370825
-0.0162975 1.35525e-20 0.00227122 0.00971556
0.0162975 -6.77626e-21 0.00227118 -0.0037082
-0.0162994 1.35525e-20 0.00233991 0.00971557
0.0162994 6.77626e-21 0.00233992 -0.0037082
0.0164713 1.35525e-20 0.000318776 -0.00370685
-0.0164713 0 0.00031848 0.00971545
0.0164838 9.03502e-21 0.000934132 -0.00370741
-0.0164839 -4.51751e-21 0.000933459 0.00971541
-0.0165151 2.71051e-20 8.91788e-08 0.00971537
0.0165151 0 8.91806e-08 -0.00370696
0.0164768 9.03502e-21 0.00151147 -0.00370732
-0.0164769 0 0.00151089 0.00971542
0.0166394 0 9.23357e-08 -0.00370742
-0.0166394 0 9.23334e-08 0.00971521
-0.0165053 0 0.00241002 0.00971529
0.0165054 1.35525e-20 0.00241002 -0.00370795
0.0167038 2.71051e-20 0.000635416 -0.0037071
-0.0167039 0 0.000634646 0.00971522
0.0165943 5.64689e-22 0.00217414 -0.00370778
-0.0165943 1.12938e-21 0.00217395 0.00971512
0.0167298 0 0.00122679 -0.003707
-0.0167299 0 0.00122589 0.00971517
0.0166885 0 0.00181391 -0.00370703
-0.0166886 -2.71051e-20 0.00181341 0.00971523
-0.0166608 -1.35525e-20 0.00246303 0.00971527
0.016661 0 0.00246306 -0.00370721
0.0168423 -1.35525e-20 7.0937e-08 -0.00370715
-0.0168423 1.35525e-20 7.09338e-08 0.00971501
0.0169749 -2.25875e-21 0.000303039 -0.00370674
-0.016975 4.51751e-21 0.000302648 0.00971493
-0.0168731 1.12938e-21 0.0022093 0.00971503
0.0168731 1.12938e-21 0.00220951 -0.00370654
0.016996 -4.51751e-21 0.000918683 -0.00370646
-0.0169961 0 0.000917792 0.00971496
0.0168625 -2.03288e-20 0.00253161 -0.00370636
-0.0168625 0 0.00253162 0.00971508
0.0169886 -4.51751e-21 0.00152442 -0.00370638
-0.0169887 4.51751e-21 0.00152371 0.00971497
0.0170875 0 2.4605e-08 -0.00370609
-0.0170875 0 2.46021e-08 0.00971483
0.0169822 4.51751e-21 0.00199465 -0.00370608
-0.0169822 4.51751e-21 0.00199427 0.00971492
-0.0169516 -9.03502e-21 0.00241979 0.00971501
0.0169517 9.03502e-21 0.00241989 -0.00370604
-0.0169616 -1.35525e-20 0.00256534 0.00971502
0.0169617 -2.03288e-20 0.00256538 -0.00370594
0.0172725 2.71051e-20 0.000609814 -0.00370501
-0.0172727 0 0.000608963 0.00971471
0.017301 2.71051e-20 3.86873e-09 -0.00370475
-0.0173011 2.71051e-20 3.86453e-09 0.00971467
0.0172756 0 0.0012186 -0.00370515
-0.0172758 5.42101e-20 0.00121766 0.00971468
0.0172503 0 0.00183262 -0.0037051
-0.0172504 2.71051e-20 0.00183214 0.00971473
-0.0171625 0 0.00263367 0.00971484
0.0171625 0 0.00263369 -0.00370522
-0.0172627 -3.38813e-21 0.00228337 0.00971473
0.0172628 -5.64689e-22 0.00228356 -0.00370497
0.0175152 -1.35525e-20 3.90438e-09 -0.00370387
-0.0175152 0 3.90115e-09 0.00971448
0.0176166 -6.77626e-21 0.000304265 -0.00370352
-0.0176168 4.51751e-21 0.000303958 0.00971439
0.0176138 1.12938e-21 0.000914505 -0.00370397
-0.0176139 0 0.000913847 0.00971439
0.0175986 1.12938e-21 0.00154662 -0.00370409
-0.0175987 1.12938e-21 0.0015461 0.00971436
0.0174824 0 0.00274279 -0.00370426
-0.0174824 -1.01644e-20 0.0027428 0.00971442
-0.0174954 -1.69407e-21 0.00274721 0.0097144
0.0174955 3.72694e-20 0.00274726 -0.00370422
0.0177275 -1.35525e-20 5.30347e-09 -0.00370311
-0.0177276 4.06576e-20 5.30237e-09 0.00971428
-0.0176266 -1.807e-20 0.00211798 0.00971438
0.0176266 2.25875e-21 0.00211823 -0.0037037
-0.0175733 2.25875e-21 0.00255362 0.00971436
0.0175734 -4.51751e-21 0.0025537 -0.00370398
0.0179395 0 5.36713e-09 -0.00370229
-0.0179395 0 5.36695e-09 0.00971407
0.0179446 -2.71051e-20 0.000602236 -0.00370251
-0.0179448 -2.71051e-20 0.000601852 0.00971407
0.0179404 2.71051e-20 0.00122938 -0.00370277
-0.0179405 0 0.00122893 0.00971407
-0.0179 -2.71051e-20 0.00190852 0.0097141
0.0179 -2.71051e-20 0.00190875 -0.00370289
-0.0177928 0 0.00284873 0.0097142
0.0177928 2.71051e-20 0.00284875 -0.00370313
-0.0179476 2.71051e-20 0.0024258 0.00971405
0.0179477 2.71051e-20 0.00242589 -0.00370273
0.0181451 0 4.40341e-09 -0.00370156
-0.0181451 0 4.40324e-09 0.00971388
-0.0180159 4.06576e-20 0.00292502 0.00971403
0.018016 0 0.00292506 -0.00370219
0.0182715 -2.25875e-21 0.000300999 -0.00370123
-0.0182716 -4.51751e-21 0.000300875 0.00971376
0.0182775 0 0.000913342 -0.00370162
-0.0182775 -6.77626e-21 0.00091307 0.00971376
-0.0182702 -4.51751e-21 0.00156202 0.00971376
0.0182702 2.25875e-21 0.00156224 -0.00370169
-0.0182366 -1.12938e-20 0.00214879 0.0097138
0.0182366 4.51751e-21 0.00214891 -0.00370174
0.0181444 -6.77626e-21 0.00296949 -0.00370179
-0.0181446 -6.77626e-21 0.00296953 0.00971392
-0.0181872 -6.77626e-22 0.00270867 0.00971388
0.0181872 6.77626e-22 0.00270873 -0.00370176
0.0183921 1.35525e-20 2.43155e-09 -0.00370083
-0.0183922 1.35525e-20 2.43148e-09 0.00971365
-0.0185886 0 1.46532e-09 0.00971345
0.0185886 0 1.46539e-09 -0.00370018
-0.0183446 -1.35525e-20 0.00303802 0.00971372
0.0183446 0 0.00303804 -0.00370134
0.0185996 -2.71051e-20 0.000595038 -0.00370042
-0.0185997 0 0.000594918 0.00971345
-0.0186737 1.16165e-20 0.00129278 0.00971335
0.0186737 1.16165e-20 0.00129291 -0.00370036
-0.0187703 -1.35525e-20 1.23409e-09 0.00971328
0.0187703 1.35525e-20 1.23413e-09 -0.00369954
0.0185175 2.03288e-20 0.00309812 -0.00370144
-0.0185175 6.77626e-21 0.00309812 0.00971324
-0.0187148 -4.51751e-21 0.00187601 0.00971333
0.0187148 4.51751e-21 0.00187608 -0.00370035
-0.0186674 7.52918e-21 0.00253515 0.00971339
0.0186674 -3.01167e-21 0.00253519 -0.00370067
0.018823 -1.35525e-20 0.000903657 -0.00370002
-0.018823 4.51751e-21 0.00090356 0.00971326
0.0188705 -4.51751e-21 0.0002483 -0.00369926
-0.0188706 2.25875e-21 0.000248266 0.00971318
-0.0186437 0 0.002939 0.00971329
0.0186438 0 0.00293906 -0.00370075
-0.0189391 2.71051e-20 0.00154412 0.00971314
0.0189391 2.71051e-20 0.00154419 -0.00369972
0.0187701 -9.74088e-21 0.00318665 -0.00370016
-0.0187699 -8.47033e-22 0.00318654 0.00971332
0.0188367 -1.35525e-20 0.00285269 -0.00369983
-0.0188367 -1.35525e-20 0.00285269 0.00971333
0.0190684 0 6.42265e-10 -0.00369865
-0.0190684 1.35525e-20 6.42229e-10 0.00971299
-0.018947 0 0.00220299 0.00971314
0.018947 0 0.00220303 -0.00369985
-0.0189611 -6.77626e-21 0.00294132 0.00971336
0.0189611 -6.77626e-21 0.00294137 -0.00369923
-0.0192376 0 4.16948e-10 0.00971282
0.0192376 -2.71051e-20 4.16969e-10 -0.00369798
0.0192505 -2.25875e-21 0.000578858 -0.00369842
-0.0192506 1.12938e-20 0.000578833 0.00971283
-0.0192654 -6.77626e-21 0.00120337 0.00971282
0.0192654 -4.51751e-21 0.0012034 -0.00369892
-0.0192728 4.51751e-21 0.00186871 0.00971282
0.0192728 1.12938e-20 0.00186874 -0.00369904
-0.0190865 0 0.00329541 0.00971304
0.0190867 2.71051e-20 0.00329547 -0.00369955
-0.0193938 0 3.58644e-10 0.00971269
0.0193938 -2.71051e-20 3.58662e-10 -0.00369722
0.0193936 -2.71051e-20 0.000130553 -0.00369724
-0.0193936 1.35525e-20 0.000130545 0.00971269
-0.0191339 1.35525e-20 0.00323263 0.00971299
0.019134 0 0.00323272 -0.00369948
-0.0192591 4.51751e-21 0.00254519 0.00971283
0.0192591 2.25875e-21 0.00254522 -0.00369917
-0.0192048 0 0.003336 0.00971293
0.0192049 1.35525e-20 0.00333604 -0.00369938
-0.0193217 4.51751e-22 0.00298746 0.00971279
0.0193218 -9.03502e-22 0.0029875 -0.0036991
0.0195688 0 0.000280898 -0.00369674
-0.0195688 2.71051e-20 0.00028089 0.00971252
0.0195891 -2.71051e-20 0.000871761 -0.00369809
-0.0195891 5.42101e-20 0.000871755 0.00971252
-0.019374 0 0.0032822 0.00971278
0.019374 -1.35525e-20 0.00328227 -0.00369897
-0.0196057 -2.71051e-20 0.00151348 0.00971248
0.0196057 0 0.0015135 -0.00369811
-0.0193742 -2.71051e-20 0.00339404 0.00971279
0.0193743 0 0.00339406 -0.00369892
-0.0196063 2.71051e-20 0.0021914 0.0097125
0.0196063 2.71051e-20 0.00219141 -0.00369846
0.0197445 0 1.1881e-10 -0.00369653
-0.0197445 0 1.1881e-10 0.00971234
0.0197496 1.35525e-20 0.000118775 -0.00369653
-0.0197497 2.71051e-20 0.000118767 0.00971234
-0.0196349 0 0.00277709 0.00971249
0.019635 0 0.00277712 -0.00369844
-0.0195953 1.35525e-20 0.00324376 0.00971258
0.0195954 0 0.0032438 -0.00369862
-0.0198869 1.35525e-20 6.23641e-11 0.00971215
0.0198869 1.35525e-20 6.23597e-11 -0.00369629
0.0199025 0 0.000551642 -0.00369692
-0.0199025 6.77626e-21 0.00055164 0.0097122
-0.0196372 -2.71051e-20 0.00348423 0.00971254
0.0196374 0 0.0034843 -0.00369855
-0.0199263 7.90564e-21 0.00116493 0.0097122
0.0199263 -2.25875e-21 0.00116493 -0.00369743
-0.0197065 0 0.0033997 0.00971247
0.0197066 1.35525e-20 0.00339978 -0.00369851
-0.0200175 0 0.000104927 0.00971207
0.0200175 -1.35525e-20 0.000104918 -0.00369624
-0.020018 0 5.47768e-11 0.00971207
0.0200181 0 5.47745e-11 -0.00369623
-0.0199354 0 0.00184109 0.00971218
0.0199355 -5.64689e-21 0.0018411 -0.00369766
-0.0199397 0 0.00250609 0.0097122
0.0199397 -1.12938e-21 0.0025061 -0.00369793
-0.0198048 -1.35525e-20 0.00354162 0.00971237
0.0198049 2.71051e-20 0.00354168 -0.00369846
-0.0199176 0 0.00307583 0.00971225
0.0199177 2.25875e-21 0.00307587 -0.00369816
-0.0202108 0 0.000262551 0.00971187
0.0202108 2.71051e-20 0.000262544 -0.00369604
-0.0202372 2.71051e-20 0.000828952 0.00971191
0.0202372 0 0.00082895 -0.00369684
-0.0199793 1.35525e-20 0.00344741 0.00971222
0.0199793 -1.35525e-20 0.00344747 -0.00369817
-0.0199876 -6.77626e-21 0.00360417 0.00971222
0.0199877 1.35525e-20 0.00360422 -0.00369808
-0.0202612 -2.71051e-20 0.00146953 0.00971188
0.0202612 0 0.00146953 -0.00369667
-0.0202614 -2.71051e-20 0.00216708 0.00971185
0.0202614 2.71051e-20 0.0021671 -0.00369735
-0.020424 0 1.48382e-11 0.00971178
0.0204241 0 1.48336e-11 -0.00369566
-0.0204263 -1.35525e-20 8.83618e-05 0.00971178
0.0204264 0 8.83583e-05 -0.00369566
-0.0201258 -2.71051e-20 0.00365147 0.0097121
0.020126 2.03288e-20 0.00365154 -0.00369796
-0.0202574 -2.71051e-20 0.00283409 0.00971194
0.0202575 5.42101e-20 0.00283411 -0.00369739
-0.02023 -1.35525e-20 0.00346726 0.00971198
0.0202301 -8.13152e-21 0.00346732 -0.00369797
-0.0205366 0 8.07587e-12 0.0097117
0.0205367 -1.35525e-20 8.0725e-12 -0.00369539
-0.0205431 -1.12938e-21 0.000507235 0.00971176
0.0205431 1.12938e-21 0.000507233 -0.00369585
-0.0205806 1.12938e-21 0.00109806 0.0097116
0.0205806 -1.12938e-21 0.00109806 -0.00369614
-0.0206332 0 7.2332e-05 0.0097118
0.0206332 0 7.23425e-05 -0.00369584
-0.0206362 0 7.47893e-12 0.0097118
0.0206362 1.35525e-20 7.47568e-12 -0.00369583
-0.0203258 -1.35525e-20 0.00371988 0.0097119
0.020326 2.71051e-20 0.00371994 -0.00369794
-0.0205919 -2.25875e-21 0.00179229 0.00971153
0.0205919 -3.38813e-21 0.00179229 -0.00369663
-0.0205776 1.12938e-21 0.00251302 0.00971161
0.0205777 0 0.00251303 -0.00369718
-0.0204396 1.35525e-20 0.00376155 0.00971151
0.0204398 0 0.00376163 -0.00369821
-0.0204726 -1.35525e-20 0.00364922 0.00971154
0.0204728 4.06576e-20 0.00364928 -0.00369813
-0.0205732 -1.50584e-21 0.00324396 0.00971165
0.0205733 -2.25875e-21 0.003244 -0.00369761
-0.0208433 -2.71051e-20 0.000231572 0.00971171
0.0208434 2.71051e-20 0.000231569 -0.00369542
-0.0208763 -2.71051e-20 0.000747796 0.00971155
0.0208763 0 0.000747794 -0.0036952
-0.0209307 2.71051e-20 0.00137566 0.0097111
0.0209307 2.71051e-20 0.00137566 -0.00369578
-0.0206256 0 0.00382199 0.00971165
0.0206258 6.77626e-21 0.00382207 -0.0036977
-0.0209018 2.71051e-20 0.00213753 0.00971129
0.0209018 -2.71051e-20 0.00213753 -0.00369666
-0.0207137 0 0.00385276 0.00971171
0.0207138 0 0.00385283 -0.00369741
-0.0208885 0 0.00285883 0.00971137
0.0208886 0 0.00285885 -0.00369724
-0.0207601 -6.77626e-21 0.00376298 0.00971175
0.0207602 0 0.00376308 -0.00369728
0.0211429 9.03502e-21 0.0004345 -0.00369419
-0.0211429 3.01167e-21 0.000434502 0.00971131
-0.020841 -5.27043e-21 0.00362679 0.00971179
0.0208411 2.25875e-21 0.00362684 -0.00369702
-0.0208387 -6.77626e-21 0.00389825 0.00971146
0.0208388 1.35525e-20 0.0038983 -0.00369782
-0.0212597 0 5.25669e-13 0.0097111
0.0212601 -1.05879e-20 5.19801e-13 -0.00369318
-0.0212767 2.5411e-21 1.41099e-05 0.00971108
-0.0212768 0 1.74179e-06 0.00971108
0.0212769 -8.47033e-21 1.38726e-05 -0.00369314
0.0212813 0 1.45875e-06 -0.0036931
0.0212895 0 2.69474e-13 -0.00369308
-0.0212896 0 2.7104e-13 0.00971106
-0.0212723 -5.64689e-22 0.000878984 0.00971096
0.0212724 -2.25875e-21 0.000878975 -0.00369467
-0.0212427 -1.12938e-22 0.00171816 0.00971095
0.0212427 9.03502e-22 0.00171814 -0.00369568
-0.0212146 1.12938e-21 0.00249693 0.00971103
0.0212146 -1.12938e-21 0.00249694 -0.00369694
-0.0210353 0 0.00398139 0.00971129
0.0210355 0 0.00398146 -0.003698
-0.021178 2.25875e-21 0.00323686 0.00971108
0.0211781 0 0.00323687 -0.00369764
-0.0210737 1.35525e-20 0.00393726 0.00971125
0.0210738 0 0.00393731 -0.00369803
-0.0211186 1.35525e-20 0.00402021 0.0097112
0.0211188 0 0.0040203 -0.00369814
-0.0212476 8.06698e-23 0.00368161 0.00971105
0.0212478 -4.03349e-22 0.00368166 -0.00369798
-0.0215747 0 0.00130736 0.00971073
0.0215747 2.71051e-20 0.00130737 -0.00369421
-0.0212486 1.35525e-20 0.00397488 0.00971109
0.0212488 0 0.00397493 -0.00369821
-0.0212527 1.35525e-20 0.00408538 0.0097111
0.021253 -6.77626e-21 0.00408549 -0.00369826
-0.0216407 7.52918e-22 0.00033173 0.00970924
0.0216408 7.52918e-22 0.000331723 -0.00369339
-0.0215441 -2.71051e-20 0.00209926 0.00971071
0.0215442 2.71051e-20 0.00209926 -0.00369612
-0.0215225 2.71051e-20 0.00284518 0.00971073
0.0215225 0 0.0028452 -0.00369765
-0.0217961 0 7.94919e-14 0.00970921
0.0217961 1.35525e-20 7.91737e-14 -0.00369251
-0.0215506 -2.71051e-20 0.00347094 0.00971071
0.0215507 0 0.00347097 -0.00369801
-0.0214959 0 0.00395189 0.00971086
0.0214961 1.35525e-20 0.00395193 -0.00369845
-0.0214983 6.77626e-21 0.00420475 0.0097108
0.0214984 6.77626e-21 0.00420479 -0.0036988
-0.0218606 -1.41172e-22 0.00170493 0.00971042
0.0218606 8.9409e-22 0.0017049 -0.00369512
-0.0219212 -3.38813e-21 0.000827127 0.00970997
0.0219212 4.51751e-22 0.00082711 -0.00369388
-0.0219609 1.35525e-20 4.02034e-14 0.00970965
0.021961 -1.35525e-20 4.01314e-14 -0.00369127
-0.0218494 -1.12938e-21 0.00247003 0.00971042
0.0218494 -5.64689e-22 0.00247004 -0.003697
-0.0216145 1.35525e-20 0.00413981 0.00971065
0.0216145 1.35525e-20 0.00413983 -0.00369901
-0.0216502 1.35525e-20 0.00427857 0.00971058
0.0216503 0 0.00427863 -0.00369919
-0.0218421 -1.69407e-21 0.00317495 0.00971043
0.0218422 -3.38813e-21 0.00317496 -0.00369819
-0.0217324 0 0.00431835 0.00971021
0.0217325 0 0.00431843 -0.00369972
-0.0217583 -1.35525e-20 0.00423555 0.00971024
0.0217584 1.35525e-20 0.0042356 -0.00369967
-0.0221733 0 2.81576e-14 0.00970909
0.0221735 -6.77626e-21 2.80965e-14 -0.00369263
-0.021866 7.05861e-23 0.00385234 0.00971037
0.0218668 0 0.00385247 -0.00369909
-0.0222021 -2.71051e-20 0.00129532 0.00970993
0.0222022 -2.71051e-20 0.00129532 -0.00369378
0.0222506 -7.05861e-23 0.000330091 -0.0036932
-0.0222517 -3.5293e-23 0.000328747 0.00970897
-0.0221694 5.42101e-20 0.00208071 0.00971019
0.0221694 0 0.00208072 -0.00369587
-0.0218631 -1.35525e-20 0.00438174 0.00971032
0.0218633 1.35525e-20 0.00438183 -0.00369973
0.0223211 0 1.21342e-14 -0.00369275
-0.0223212 6.77626e-21 1.21355e-14 0.00970887
-0.0221597 -5.42101e-20 0.00282094 0.00971008
0.0221598 0 0.00282094 -0.00369826
-0.0221457 -2.71051e-20 0.00350913 0.0097102
0.0221457 2.71051e-20 0.00350915 -0.00369882
-0.0220148 -2.03288e-20 0.00445531 0.00971036
0.0220149 6.77626e-21 0.00445537 -0.00369976
-0.0225415 0 1.22277e-15 0.00970873
0.0225416 0 1.23378e-15 -0.00369182
-0.0221394 0 0.00425961 0.00971038
0.0221395 1.12938e-21 0.00425967 -0.00369966
-0.0224964 -2.96462e-20 0.00168456 0.00970976
0.0224964 -4.23516e-22 0.0016846 -0.00369516
-0.0225021 0 0.00168479 0.00970976
0.0225021 0 0.00168483 -0.00369518
0.0225129 0 0.00168799 -0.00369521
-0.022513 0 0.00168798 0.00970974
-0.022576 5.42101e-21 0.000874276 0.00970924
0.0225761 4.51751e-21 0.000874269 -0.00369461
-0.0225135 -1.6134e-22 0.00242345 0.00970974
0.0225136 8.87368e-22 0.00242345 -0.00369779
-0.0224593 -1.12938e-21 0.00318123 0.00970981
0.0224593 0 0.00318124 -0.00369936
-0.0223019 -3.38813e-21 0.00459436 0.0097101
0.022302 -3.38813e-21 0.00459437 -0.00370085
-0.0224349 -9.03502e-22 0.00390505 0.00970992
0.022435 6.77626e-21 0.00390508 -0.00370032
-0.0228059 -1.27055e-20 8.70915e-16 0.00970653
0.0228061 4.23516e-22 8.77264e-16 -0.00369601
-0.022811 -8.47033e-22 2.46647e-05 0.0097065
0.0228111 0 2.39222e-05 -0.00369609
-0.0223412 0 0.00461337 0.00971009
0.0223413 3.38813e-21 0.00461342 -0.00370095
0.0228141 4.23516e-22 8.58194e-16 -0.00369607
-0.0228142 2.5411e-20 8.51408e-16 0.00970652
-0.0228118 -5.64689e-22 0.000334117 0.00970696
0.0228118 5.64689e-22 0.000334137 -0.00369576
-0.022347 0 0.00460685 0.00971008
0.0223471 0 0.00460689 -0.00370096
-0.0223545 0 0.00461977 0.00971007
0.0223546 0 0.00461984 -0.00370101
-0.0223623 -3.38813e-21 0.00458505 0.00971007
0.0223624 1.69407e-21 0.00458505 -0.00370097
-0.0223809 0 0.0046121 0.00971001
0.022381 0 0.00461216 -0.00370116
-0.0223957 -1.69407e-21 0.00463972 0.00970996
0.0223958 0 0.00463983 -0.00370133
-0.0225314 1.35525e-20 0.00433167 0.00971006
0.0225315 0 0.00433171 -0.00370084
-0.0227767 -2.71051e-20 0.00282452 0.0097095
0.0227767 0 0.00282454 -0.0036994
-0.0229169 2.71051e-20 0.00145351 0.00970951
0.022917 0 0.00145354 -0.00369444
-0.0229127 2.71051e-20 0.001952 0.00970915
0.0229127 0 0.001952 -0.00369675
-0.0227583 0 0.00352775 0.00970948
0.0227583 -2.71051e-20 0.00352777 -0.00370086
-0.0226788 1.35525e-20 0.00436549 0.00970984
0.0226789 -6.77626e-21 0.00436553 -0.0037015
-0.0231146 0 6.24631e-16 0.00970757
0.0231146 0 6.26477e-16 -0.00369575
-0.0231263 5.64689e-22 0.000857356 0.00970845
0.0231264 1.12938e-21 0.000857382 -0.00369688
-0.0231204 0 0.00168686 0.00970909
0.0231204 0 0.00168687 -0.00369689
-0.0226912 0 0.00478277 0.00970932
0.0226912 1.35525e-20 0.00478283 -0.00370334
-0.0231332 4.23516e-22 0.00244156 0.00970904
0.0231332 -8.47033e-22 0.00244157 -0.00369983
-0.0227888 -1.35525e-20 0.00466799 0.00970928
0.0227889 -1.35525e-20 0.00466803 -0.00370347
-0.0230834 -1.12938e-21 0.00317456 0.0097092
0.0230835 1.12938e-21 0.00317458 -0.00370137
-0.023319 0 3.10972e-16 0.00970718
0.0233191 6.77626e-21 3.12101e-16 -0.00369807
-0.0230283 9.03502e-21 0.00391292 0.0097093
0.0230284 0 0.00391294 -0.00370259
-0.02333 2.71051e-20 0.00142276 0.00970885
0.02333 0 0.00142278 -0.00369713
-0.0233168 0 0.00194192 0.00970893
0.0233168 2.71051e-20 0.00194194 -0.00369871
-0.0228965 -2.71051e-20 0.0048822 0.00970952
0.0228966 0 0.00488226 -0.00370363
-0.0234102 2.25875e-21 0.000267243 0.00970739
0.0234102 -4.51751e-21 0.000267244 -0.00369814
-0.0229986 7.52918e-22 0.0043906 0.00970931
0.0229987 -3.76459e-21 0.00439064 -0.00370342
0.0235162 1.35525e-20 1.75957e-16 -0.00369845
-0.0235162 6.77626e-21 1.74954e-16 0.00970754
-0.0234234 2.71051e-20 0.00278585 0.00970883
0.0234234 0 0.00278586 -0.00370173
-0.0230651 1.35525e-20 0.00496382 0.0097094
0.0230652 -2.71051e-20 0.00496388 -0.00370448
-0.0233787 2.71051e-20 0.00352562 0.00970898
0.0233787 -2.71051e-20 0.00352564 -0.00370348
-0.0237161 1.35525e-20 -1.12817e-16 0.00970863
0.0237161 1.35525e-20 -1.126e-16 -0.00369792
-0.0232668 -3.61401e-21 0.00471662 0.00970914
0.0232669 -1.35525e-21 0.00471667 -0.00370509
-0.0233857 2.71051e-20 0.00417634 0.00970899
0.0233857 -2.71051e-20 0.00417637 -0.00370464
-0.0232203 -6.77626e-21 0.00503892 0.00970919
0.0232204 -1.35525e-20 0.00503899 -0.00370534
-0.0237642 -2.82344e-21 0.000871716 0.0097085
0.0237642 2.82344e-22 0.000871732 -0.00369841
-0.0237897 -2.71051e-20 9.69712e-05 0.00970905
0.0237897 1.35525e-20 9.70283e-05 -0.0036983
-0.0237941 1.35525e-20 4.97248e-16 0.00970906
0.0237942 -1.35525e-20 5.01214e-16 -0.00369831
-0.0237454 -2.82344e-22 0.00168598 0.00970853
0.0237454 -1.83524e-21 0.00168599 -0.00369912
-0.0238504 1.35525e-20 -3.63004e-16 0.00970889
0.0238505 0 -3.63597e-16 -0.00369823
-0.0237771 1.35525e-21 0.00232532 0.00970858
0.0237772 4.06576e-21 0.00232532 -0.00370161
-0.023345 2.71051e-20 0.00509928 0.00970906
0.0233451 1.35525e-20 0.00509935 -0.00370611
-0.0237118 -5.64689e-21 0.00315193 0.00970868
0.0237118 -3.38813e-21 0.00315194 -0.00370378
-0.0239754 0 0.000105727 0.00970839
0.0239757 0 0.000105814 -0.00369839
-0.0240029 1.35525e-20 2.3863e-16 0.00970836
-0.0236913 7.90564e-21 0.0038564 0.0097087
0.0236913 -2.25875e-21 0.00385642 -0.00370572
0.0240032 -1.35525e-20 2.38694e-16 -0.00369846
-0.0235265 -2.03288e-20 0.00518714 0.00970829
0.0235266 -1.35525e-20 0.0051872 -0.00370797
-0.0237117 0 0.00456148 0.00970865
0.0237118 9.03502e-21 0.00456152 -0.00370722
-0.0235865 6.77626e-21 0.00521624 0.00970833
0.0235867 -6.77626e-21 0.00521631 -0.00370823
-0.0236569 -1.6263e-20 0.00499193 0.00970849
0.023657 -5.42101e-21 0.00499199 -0.00370803
-0.0240359 -2.71051e-20 0.0027785 0.00970848
0.024036 0 0.00277852 -0.00370358
-0.0240146 -2.71051e-20 0.00349448 0.00970844
0.0240147 2.71051e-20 0.0034945 -0.00370631
-0.0237108 6.77626e-21 0.00516871 0.00970843
0.023711 0 0.00516878 -0.00370857
-0.0237215 0 0.00528159 0.0097086
0.0237217 0 0.00528165 -0.00370851
-0.0238516 -3.38813e-21 0.00489348 0.00970862
0.0238517 3.38813e-21 0.00489352 -0.00370845
-0.0239976 -5.42101e-20 0.00419241 0.0097084
0.0239977 -2.71051e-20 0.00419244 -0.0037085
-0.0238168 0 0.00514856 0.00970851
0.0238169 -6.77626e-21 0.00514863 -0.00370884
-0.0238281 6.77626e-21 0.00525503 0.00970845
0.0238283 6.77626e-21 0.00525509 -0.00370915
-0.0238429 1.35525e-20 0.00534032 0.00970839
0.023843 -6.77626e-21 0.00534036 -0.00370942
-0.0243893 0 0.00171905 0.00970794
0.0243893 -5.42101e-20 0.00171905 -0.00370076
-0.0239789 -2.71051e-20 0.00489875 0.00970878
0.023979 0 0.00489881 -0.00370873
-0.0243696 -1.41172e-22 0.00243113 0.00970795
0.0243706 -1.41172e-22 0.00243196 -0.00370431
-0.0244866 5.42101e-20 0.00051268 0.00970787
0.0244867 -5.42101e-20 0.000512684 -0.00369859
-0.0243442 0 0.00312516 0.00970805
0.0243442 -3.38813e-21 0.00312517 -0.0037066
-0.0239577 3.38813e-20 0.00539588 0.00970823
0.0239578 -2.71051e-20 0.00539595 -0.00371031
-0.0240298 2.71051e-21 0.00521691 0.00970838
0.02403 -1.0842e-20 0.00521698 -0.00371011
-0.0243197 0 0.00383765 0.00970813
0.0243198 -1.12938e-21 0.00383767 -0.00370929
-0.0242836 -9.03502e-21 0.00455364 0.00970811
0.0242836 -6.77626e-21 0.00455368 -0.00371101
-0.0241601 1.35525e-20 0.00549389 0.00970827
0.0241602 0 0.00549396 -0.0037114
-0.0242635 3.01167e-21 0.00502115 0.00970806
0.0242637 3.01167e-21 0.00502121 -0.00371171
-0.0246819 0 0.00275432 0.00970745
0.0246819 -2.71051e-20 0.00275433 -0.00370696
-0.0246457 2.71051e-20 0.00346491 0.00970784
0.0246458 0 0.00346492 -0.00370951
-0.0243131 0 0.00556792 0.0097081
0.0243132 -1.35525e-20 0.00556799 -0.00371262
-0.0249638 1.35525e-20 3.14502e-16 0.00970744
0.0249638 1.35525e-20 3.14469e-16 -0.0037005
-0.0249658 1.35525e-20 0.000127061 0.00970744
0.0249658 4.06576e-20 0.000127084 -0.00370049
-0.0246319 2.71051e-20 0.00416571 0.00970783
0.0246319 -2.71051e-20 0.00416574 -0.0037128
-0.0250669 -6.77626e-21 0.00111391 0.00970732
0.025067 -6.77626e-21 0.00111391 -0.00370241
-0.0245277 0 0.00533379 0.00970783
0.0245278 -4.51751e-22 0.00533385 -0.00371396
-0.0246411 0 0.00480622 0.00970771
0.0246412 0 0.00480627 -0.00371404
-0.0251264 0 -5.57162e-18 0.00970732
0.0251265 2.71051e-20 -5.54308e-18 -0.0037014
-0.0244892 6.77626e-21 0.00565317 0.00970783
0.0244893 0 0.00565322 -0.00371406
-0.0250457 2.25875e-21 0.00228488 0.00970726
0.0250457 0 0.00228489 -0.00370732
-0.0249744 -1.41172e-21 0.00307726 0.00970734
0.0249744 1.12938e-21 0.00307727 -0.00371002
-0.0245965 1.35525e-20 0.00570515 0.0097077
0.0245966 -2.71051e-20 0.00570519 -0.003715
-0.0252751 -2.71051e-20 0.000134701 0.00970718
-0.0249934 0 0.00376622 0.00970738
0.0252752 0 0.000134716 -0.00370196
0.0249934 8.47033e-22 0.00376624 -0.00371339
-0.0252845 1.35525e-20 -2.40066e-18 0.00970717
0.0252846 0 -2.39523e-18 -0.00370202
-0.0249434 -1.12938e-21 0.00449176 0.00970741
0.0249434 -3.38813e-21 0.00449179 -0.00371572
-0.0247822 3.38813e-21 0.00579502 0.00970698
0.0247823 -1.35525e-20 0.00579507 -0.00371717
-0.0249665 3.01167e-21 0.00518177 0.00970732
0.0249666 -1.50584e-21 0.00518182 -0.00371711
-0.0248296 -6.77626e-21 0.00581795 0.00970699
0.0248297 -3.38813e-21 0.00581801 -0.00371751
-0.0249104 -5.42101e-21 0.00560274 0.00970714
0.0249105 -8.13152e-21 0.00560279 -0.00371776
-0.0254015 0 0.00285469 0.00970704
0.0254015 5.42101e-20 0.0028547 -0.00371252
-0.0252645 0 0.00414474 0.00970703
0.0252645 -2.71051e-20 0.00414475 -0.00371725
-0.0254031 -5.42101e-20 0.00331055 0.00970683
0.0254031 2.71051e-20 0.00331056 -0.00371359
-0.0249624 0 0.00577193 0.00970706
0.0249625 -6.77626e-21 0.00577202 -0.0037183
-0.0249739 0 0.00588778 0.0097072
0.024974 0 0.00588783 -0.00371816
-0.0252501 0 0.00482067 0.00970705
0.0252501 -2.71051e-20 0.00482071 -0.0037189
-0.0257173 0 0.000556257 0.00970679
0.0257173 0 0.000556256 -0.00370357
-0.0250723 6.77626e-21 0.00575396 0.00970711
0.0250724 1.35525e-20 0.00575407 -0.00371894
-0.0256699 -5.42101e-20 0.00175088 0.00970669
0.0256699 5.42101e-20 0.00175088 -0.00370693
-0.0256382 -8.47033e-22 0.0024157 0.00970672
0.0256382 -1.97641e-21 0.00241571 -0.00371272
-0.0250837 6.77626e-21 0.00586274 0.00970705
0.0250838 1.35525e-20 0.00586281 -0.00371916
-0.0256079 0 0.00307876 0.00970675
0.0256079 0 0.00307876 -0.00371558
-0.025098 6.77626e-21 0.00594767 0.00970699
0.025098 0 0.0059477 -0.00371937
-0.0251925 2.25875e-21 0.00555311 0.0097071
0.0251926 1.12938e-20 0.00555317 -0.00371963
-0.0252316 -2.71051e-20 0.00551486 0.00970734
0.0252317 0 0.00551494 -0.00371957
-0.0255924 -1.50584e-21 0.0037929 0.00970673
0.0255924 4.51751e-21 0.00379291 -0.00371895
-0.0252102 -2.71051e-20 0.00600189 0.00970683
0.0252104 -6.77626e-21 0.00600198 -0.00372043
-0.0252817 8.13152e-21 0.00582896 0.00970695
0.0252819 8.13152e-21 0.00582905 -0.00372061
-0.0255735 -1.12938e-21 0.00447397 0.00970675
0.0255735 0 0.00447399 -0.00372105
-0.0258318 -2.71051e-20 0.0028448 0.00970658
0.0258318 -5.42101e-20 0.0028448 -0.00371706
-0.0257993 0 0.00329834 0.00970669
0.0257993 2.71051e-20 0.00329835 -0.00371808
-0.0255336 4.51751e-21 0.0051788 0.00970671
0.0255337 -2.25875e-21 0.00517885 -0.00372224
-0.025412 4.06576e-20 0.00609921 0.00970669
0.0254122 1.35525e-20 0.00609928 -0.00372167
-0.0255488 2.25875e-21 0.00563576 0.0097066
0.0255489 6.77626e-21 0.00563582 -0.00372318
0.0262229 0 -2.45033e-18 -0.0037061
-0.0262229 1.35525e-20 -2.47165e-18 0.00970627
0.0262242 0 0.000110099 -0.0037061
-0.0262242 1.35525e-20 0.000110093 0.00970627
-0.025914 -2.71051e-20 0.00409942 0.00970652
0.025914 -2.71051e-20 0.00409944 -0.00372349
-0.0255675 0 0.00617785 0.00970652
0.0255677 0 0.00617797 -0.00372326
-0.025876 -2.71051e-20 0.00480446 0.00970639
0.025876 0 0.00480449 -0.00372465
0.0263176 6.77626e-21 0.00114406 -0.00370865
-0.0263176 0 0.00114406 0.00970608
-0.0263544 -1.35525e-20 1.26633e-19 0.00970613
0.0263544 -1.35525e-20 1.28683e-19 -0.00370679
-0.0263095 -1.12938e-21 0.00235736 0.00970601
0.0263095 0 0.00235737 -0.00371596