# pMean  POINT_DATA 27788
# x  y  z  pMean
4.23516e-22 -0.0130568 4.20108e-06 0.00968328
0 0.0130568 4.20422e-06 -0.00386445
0 0.0130538 6.6649e-06 -0.00386445
-4.23516e-22 -0.0130538 6.66028e-06 0.00968327
1.69407e-21 -0.0130538 0.000644839 0.00968355
0 0.0130538 0.000645282 -0.00386452
0 -0.0130538 0.000659278 0.00968352
-8.47033e-22 0.0130538 0.000659736 -0.00386449
0 -0.0130538 0.000674531 0.00968354
-8.47033e-22 0.0130538 0.000674994 -0.0038645
0 -0.0130603 0.000649722 0.00968356
0 0.0130603 0.000650171 -0.00386453
0 -0.0130603 0.000668856 0.00968355
0 0.0130603 0.000669319 -0.00386451
-5.92923e-21 -0.0130709 0.000658157 0.00968359
1.60936e-20 0.0130709 0.000658618 -0.00386454
0 -0.0130538 0.00133809 0.00968383
1.69407e-21 0.0130538 0.00133857 -0.00386458
0 -0.0130538 0.00135468 0.00968381
0 0.0130538 0.00135516 -0.00386457
0 -0.0130538 0.00137216 0.00968383
0 0.0130538 0.00137263 -0.00386458
-1.69407e-21 -0.0130609 0.00134164 0.00968385
1.69407e-21 0.0130609 0.00134212 -0.0038646
-1.69407e-21 -0.0130605 0.00136331 0.00968384
0 0.0130605 0.00136378 -0.00386459
5.0822e-21 -0.0130744 0.00134748 0.00968391
1.69407e-21 0.0130744 0.00134796 -0.00386464
0 -0.0130556 0.00208219 0.00968414
0 0.0130577 0.00208858 -0.00386472
-4.23516e-22 -0.0130676 0.00208095 0.00968422
3.81165e-21 0.0130676 0.00208095 -0.00386477
-6.77626e-21 -0.0133442 8.05862e-08 0.00968368
0 0.0133442 8.05859e-08 -0.00386481
-3.38813e-21 -0.0133452 0.000326479 0.0096837
-5.64689e-21 0.0133452 0.000326736 -0.00386467
-2.25875e-21 -0.0133372 0.000959829 0.00968467
-5.64689e-21 0.0133372 0.000960365 -0.00386528
-4.51751e-21 -0.0132973 0.00155417 0.00968463
0 0.0132973 0.00155454 -0.00386523
3.04932e-20 0.0132406 0.00216284 -0.00386577
0 -0.0132406 0.00216285 0.00968559
6.77626e-21 -0.0132805 0.00206428 0.00968584
-3.38813e-21 0.0132805 0.00206425 -0.00386595
-2.71051e-20 0.0133174 0.00219404 -0.00386557
0 -0.0133175 0.00219406 0.00968526
-4.51751e-21 -0.0133831 0.00186918 0.00968598
0 0.0133831 0.00186936 -0.0038661
1.35525e-20 -0.0135632 9.24961e-08 0.0096861
-2.71051e-20 0.0135632 9.24953e-08 -0.00386638
-6.77626e-21 -0.0134965 0.00146605 0.00968522
6.77626e-21 0.0134965 0.00146649 -0.00386575
0 -0.0136117 8.70388e-05 0.00968622
6.77626e-21 0.0136117 8.71003e-05 -0.00386581
6.77626e-21 -0.0136152 8.46271e-08 0.00968627
0 0.0136152 8.46271e-08 -0.00386588
1.35525e-20 -0.0136416 8.0639e-08 0.00968661
0 0.0136416 8.06395e-08 -0.00386672
6.77626e-22 -0.0136355 0.000678728 0.00968665
2.48463e-21 0.0136355 0.000679269 -0.0038666
-1.35525e-20 0.0134811 0.00226049 -0.00386611
0 -0.0134812 0.00226053 0.00968595
2.82344e-21 -0.0136197 0.00118987 0.00968659
1.12938e-21 0.0136197 0.00119045 -0.00386661
-7.52918e-22 -0.0136061 0.00162976 0.00968673
-4.51751e-21 0.0136061 0.00163011 -0.00386666
1.35525e-20 0.0137235 7.39497e-08 -0.00386694
1.35525e-20 -0.0137235 7.39483e-08 0.00968712
6.77626e-21 0.0137252 9.16823e-05 -0.00386694
-6.77626e-21 -0.0137253 9.16246e-05 0.00968712
0 -0.0137103 0.00202484 0.00968699
-3.38813e-22 0.0137102 0.00202496 -0.00386689
-6.77626e-21 0.0136752 0.0023393 -0.00386684
6.77626e-21 -0.0136753 0.00233933 0.00968685
-6.77626e-21 0.0137679 0.00237692 -0.0038672
1.35525e-20 -0.013768 0.00237696 0.00968733
-1.35525e-20 -0.0139849 0.000399002 0.00968873
0 0.0139849 0.000399313 -0.00386828
-9.03502e-21 -0.013986 0.000912946 0.009688
9.03502e-21 0.013986 0.000913447 -0.00386776
-1.35525e-20 -0.0139545 0.00150378 0.00968783
-4.51751e-21 0.0139546 0.00150416 -0.00386764
1.35525e-20 -0.0140935 0.000126371 0.00968938
-1.35525e-20 0.0140935 0.000126457 -0.00386825
0 -0.0141015 1.51513e-08 0.00968944
0 0.0141015 1.51514e-08 -0.0038683
2.5411e-21 -0.0139607 0.00245511 0.00969014
0 0.0139609 0.00245518 -0.00386902
-2.71051e-20 -0.0141702 0.000612039 0.00968941
-2.71051e-20 0.0141702 0.000612472 -0.00386855
2.71051e-20 0.0139759 0.00246127 -0.00386913
1.69407e-20 -0.013976 0.00246129 0.00969031
9.31736e-21 0.0139805 0.00244911 -0.00386916
5.92923e-21 -0.0139806 0.00244893 0.00969036
-2.71051e-20 -0.0141582 0.00121268 0.00968908
0 0.0141582 0.00121315 -0.00386848
1.35525e-20 -0.0142137 6.98307e-09 0.00969
0 0.0142137 6.98407e-09 -0.00386877
2.71051e-20 -0.0141062 0.00185461 0.00968888
0 0.0141062 0.00185482 -0.00386833
0 0.0140936 0.00222224 -0.00386918
-4.51751e-21 -0.0140936 0.00222217 0.00969027
-1.35525e-20 0.0143442 6.46477e-09 -0.00386924
0 -0.0143442 6.46386e-09 0.00969065
1.35525e-20 0.0141438 0.00239267 -0.00386913
-6.77626e-21 -0.0141439 0.00239256 0.00969
0 0.014345 0.000135164 -0.00386924
-1.35525e-20 -0.014345 0.00013509 0.00969065
-1.35525e-20 0.0141782 0.00254345 -0.00386865
-1.35525e-20 -0.0141783 0.00254345 0.00968904
-2.43945e-20 0.0144148 0.000393235 -0.00386941
-2.71051e-21 -0.0144148 0.000392975 0.00969083
0 0.014293 0.00252719 -0.00386903
6.77626e-21 -0.0142931 0.00252719 0.00968947
-2.03288e-20 0.0142857 0.00258696 -0.003869
0 -0.0142858 0.00258699 0.00968941
-2.25875e-21 -0.0145008 0.000915389 0.00969088
4.51751e-21 0.0145008 0.000915765 -0.00386975
1.69407e-21 0.0143708 0.00229756 -0.00386922
0 -0.0143708 0.00229749 0.00968975
-2.25875e-21 -0.0144715 0.00154752 0.00969066
0 0.0144715 0.0015478 -0.00386963
1.35525e-20 -0.0144657 0.00205596 0.00968998
-4.51751e-21 0.0144657 0.00205609 -0.00386939
0 0.0146705 0.00015054 -0.00387037
1.35525e-20 -0.0146705 0.000150448 0.00969222
-1.35525e-20 0.01468 6.30535e-09 -0.00387041
1.35525e-20 -0.01468 6.30475e-09 0.00969228
-2.71051e-20 -0.0144708 0.00266175 0.00969012
1.35525e-20 0.0144708 0.00266174 -0.00386963
2.71051e-21 0.0145057 0.00250599 -0.00386949
-2.71051e-21 -0.0145058 0.00250596 0.0096899
0 0.0148233 5.71582e-09 -0.00387091
0 -0.0148234 5.71538e-09 0.00969294
6.77626e-21 -0.0148745 0.000558342 0.00969291
-4.51751e-21 0.0148745 0.000558581 -0.00387106
0 -0.0147686 0.00191048 0.00969183
0 0.0147686 0.00191064 -0.0038707
0 0.0146404 0.00273044 -0.00387015
0 -0.0146404 0.00273047 0.00969079
-2.12968e-20 -0.0148827 0.00116851 0.00969276
5.80823e-21 0.0148827 0.00116882 -0.00387124
1.35525e-20 0.0149747 4.96127e-09 -0.00387145
2.71051e-20 -0.0149747 4.9609e-09 0.00969372
1.35525e-20 0.0149752 0.000142336 -0.00387146
-1.35525e-20 -0.0149752 0.000142287 0.00969372
-2.25875e-21 -0.0148161 0.00236406 0.00969164
4.51751e-21 0.0148161 0.00236412 -0.00387077
-9.03502e-21 -0.0150223 0.00156473 0.00969312
0 0.0150222 0.00156494 -0.00387155
-2.71051e-20 0.0151424 0.000304981 -0.00387208
0 -0.0151424 0.000304874 0.00969457
-1.35525e-20 0.0148918 0.00283394 -0.00387058
-1.35525e-20 -0.0148918 0.00283398 0.00969106
2.71051e-20 -0.0151422 0.000920422 0.00969389
0 0.0151422 0.000920657 -0.00387205
8.13152e-21 0.0150419 0.00210501 -0.00387172
-1.0842e-20 -0.0150419 0.00210492 0.00969304
-4.51751e-21 -0.015053 0.00270398 0.00969187
0 0.015053 0.00270402 -0.00387122
0 -0.0150244 0.00288816 0.00969156
-2.71051e-20 0.0150245 0.0028882 -0.00387107
1.35525e-20 0.0153086 2.24203e-09 -0.00387271
1.35525e-20 -0.0153086 2.24182e-09 0.00969542
0 0.0153121 0.000140875 -0.00387273
-1.35525e-20 -0.0153122 0.000140824 0.00969543
0 -0.0154577 1.48782e-09 0.0096961
-1.35525e-20 0.0154577 1.48795e-09 -0.00387328
4.51751e-21 -0.0154655 0.000604019 0.00969578
2.25875e-21 0.0154655 0.000604165 -0.00387328
-1.12938e-20 -0.0154631 0.00123933 0.00969528
-6.77626e-21 0.0154631 0.0012395 -0.00387322
0 -0.0152755 0.00299148 0.00969326
2.71051e-20 0.0152755 0.0029915 -0.00387255
2.25875e-21 -0.015469 0.0018808 0.00969499
2.25875e-21 0.015469 0.00188091 -0.00387326
0 -0.0156043 1.3028e-09 0.00969686
-1.35525e-20 0.0156043 1.30289e-09 -0.00387386
-2.71051e-20 -0.0156046 0.000132299 0.00969687
1.35525e-20 0.0156046 0.000132329 -0.00387386
0 0.0153937 0.00303998 -0.00387343
2.71051e-20 -0.0153938 0.00303999 0.00969407
1.35525e-20 0.0154261 0.0029384 -0.00387344
-1.35525e-20 -0.0154261 0.00293835 0.00969414
2.25875e-21 -0.0155039 0.00256159 0.0096943
-7.52918e-22 0.0155039 0.00256162 -0.00387328
0 0.0157872 0.000299952 -0.00387456
0 -0.0157872 0.000299901 0.00969778
-2.71051e-20 -0.0157971 0.000915013 0.00969694
0 0.0157971 0.000915131 -0.00387447
0 -0.0157989 0.00156074 0.00969663
-2.71051e-20 0.0157989 0.00156083 -0.00387445
6.77626e-21 0.0156182 0.00313283 -0.00387361
-6.77626e-21 -0.0156183 0.00313287 0.00969396
-2.71051e-20 -0.015809 0.0022127 0.00969615
0 0.015809 0.00221276 -0.00387454
0 0.0159653 5.84461e-10 -0.00387519
-1.35525e-20 -0.0159653 5.84404e-10 0.00969856
-1.35525e-20 0.0159712 0.000124971 -0.00387521
-1.35525e-20 -0.0159712 0.000124945 0.00969859
0 -0.0156925 0.00316351 0.0096938
6.77626e-21 0.0156925 0.00316352 -0.0038736
0 -0.01572 0.00310334 0.00969381
-6.77626e-21 0.0157201 0.00310327 -0.00387359
-1.20467e-20 -0.0157996 0.00293416 0.0096938
0 0.0157996 0.00293419 -0.00387356
-6.77626e-21 -0.015781 0.00319986 0.00969469
-2.03288e-20 0.0157812 0.00319994 -0.00387428
0 -0.0161034 4.04832e-10 0.00969905
0 0.0161034 4.0486e-10 -0.00387568
-9.03502e-21 -0.016119 0.000594184 0.00969879
-6.77626e-21 0.016119 0.000594247 -0.0038757
-4.51751e-21 -0.0161299 0.00122524 0.00969827
0 0.0161299 0.00122532 -0.00387568
0 -0.0162343 3.59803e-10 0.00969966
-1.35525e-20 0.0162343 3.59826e-10 -0.00387614
-1.35525e-20 -0.0162345 0.00011328 0.00969967
0 0.0162345 0.000113292 -0.00387614
0 -0.0161352 0.00188661 0.00969785
4.51751e-21 0.0161352 0.00188666 -0.00387572
2.25875e-21 -0.0161278 0.00255594 0.00969708
6.77626e-21 0.0161278 0.00255599 -0.00387571
1.35525e-20 -0.0159975 0.00328828 0.00969592
0 0.0159976 0.00328832 -0.00387532
0 -0.0160352 0.00323057 0.00969613
4.06576e-20 0.0160353 0.00323064 -0.00387545
0 -0.0160906 0.00332631 0.00969632
1.35525e-20 0.0160907 0.00332633 -0.00387565
-2.71051e-20 -0.0164377 0.00029234 0.00970057
-2.71051e-20 0.0164377 0.000292357 -0.00387686
-2.71051e-20 -0.0164552 0.000897699 0.00969991
0 0.0164552 0.000897745 -0.00387694
-1.35525e-21 -0.0162066 0.0029897 0.00969696
2.25875e-21 0.0162067 0.00298974 -0.00387603
-2.71051e-20 -0.0164658 0.00154123 0.00969961
0 0.0164658 0.00154127 -0.00387687
1.35525e-20 0.0162526 0.00328164 -0.00387633
0 -0.0162527 0.0032816 0.00969712
0 0.0162526 0.00339239 -0.00387632
1.35525e-20 -0.0162526 0.00339241 0.00969701
0 -0.0164656 0.00220947 0.00969904
0 0.0164656 0.00220951 -0.00387702
0 0.0166389 1.04271e-10 -0.00387752
0 -0.0166389 1.04267e-10 0.00970172
0 0.0166447 0.000100575 -0.00387754
-1.35525e-20 -0.0166447 0.000100568 0.00970176
-2.71051e-20 -0.0165065 0.00278869 0.00969832
-2.71051e-20 0.0165065 0.00278872 -0.00387708
0 -0.0167551 6.1842e-11 0.00970231
1.35525e-20 0.0167551 6.18409e-11 -0.00387786
-2.25875e-21 -0.0167741 0.000577096 0.00970199
4.51751e-21 0.0167741 0.000577118 -0.00387804
2.71051e-20 -0.0164727 0.00325225 0.00969815
2.71051e-20 0.0164728 0.00325227 -0.00387721
1.12938e-21 -0.0167927 0.00119999 0.00970129
1.12938e-21 0.0167928 0.00120002 -0.0038782
0 -0.0164932 0.00349062 0.00969803
1.35525e-20 0.0164934 0.00349067 -0.00387725
-1.35525e-20 -0.0168627 5.6253e-11 0.00970317
-1.35525e-20 0.0168627 5.62518e-11 -0.00387814
0 -0.0168631 9.00351e-05 0.00970317
-1.35525e-20 0.0168631 9.00377e-05 -0.00387814
-1.12938e-21 -0.0167971 0.00186718 0.0097008
3.38813e-21 0.0167971 0.0018672 -0.00387821
0 -0.0165645 0.00339838 0.00969845
0 0.0165646 0.00339847 -0.00387753
2.25875e-21 -0.0168038 0.00251859 0.00970013
-1.12938e-21 0.0168039 0.00251861 -0.00387823
-2.71051e-20 -0.0166657 0.003561 0.00969871
0 0.0166658 0.00356102 -0.00387792
0 -0.0167839 0.00309024 0.0096996
-6.77626e-21 0.016784 0.00309026 -0.00387825
5.42101e-20 0.0170872 0.000280478 -0.00387889
2.71051e-20 -0.0170872 0.000280474 0.00970445
0 -0.0171093 0.000869706 0.00970302
0 0.0171094 0.000869716 -0.00387946
0 -0.0171238 0.0015109 0.00970255
2.71051e-20 0.0171238 0.00151092 -0.00387948
-6.77626e-21 0.0168547 0.00363794 -0.00387863
2.03288e-20 -0.0168548 0.00363795 0.00969966
2.71051e-20 -0.0171215 0.00218644 0.00970196
-2.71051e-20 0.0171216 0.00218645 -0.00387946
0 -0.0173128 1.50028e-11 0.00970488
-1.35525e-20 0.0173128 1.50016e-11 -0.00388004
1.35525e-20 0.017316 7.61098e-05 -0.00388005
0 -0.017316 7.61078e-05 0.00970489
4.51751e-21 -0.0169937 0.00347014 0.00970039
0 0.0169937 0.00347019 -0.00387915
-2.03288e-20 -0.0169518 0.00367748 0.00970005
2.03288e-20 0.0169519 0.00367752 -0.003879
-5.42101e-20 -0.0171192 0.00284365 0.0097012
2.71051e-20 0.0171192 0.00284368 -0.00387937
0 0.0174041 1.00273e-11 -0.00388039
0 -0.0174041 1.00286e-11 0.00970462
-1.12938e-21 -0.0174225 0.000552281 0.0097046
0 0.0174225 0.000552286 -0.0038807
1.12938e-21 -0.0174464 0.00116236 0.00970408
0 0.0174464 0.00116237 -0.00388066
0 -0.0174883 9.27754e-12 0.00970512
1.35525e-20 0.0174883 9.27624e-12 -0.00388106
0 -0.0174886 6.91534e-05 0.00970512
1.35525e-20 0.0174886 6.91578e-05 -0.00388106
1.12938e-21 -0.0174523 0.00183361 0.00970362
-1.12938e-21 0.0174523 0.00183363 -0.0038805
4.06576e-20 0.0171554 0.00376035 -0.00387979
1.35525e-20 -0.0171554 0.00376034 0.00970057
2.25875e-21 -0.0174395 0.00252755 0.00970296
2.25875e-21 0.0174395 0.00252757 -0.00388056
0 -0.0172701 0.00381183 0.00970188
0 0.0172701 0.00381183 -0.00388116
1.35525e-20 0.0173096 0.0036891 -0.00388114
-1.35525e-20 -0.0173096 0.00368906 0.00970204
1.50584e-21 -0.0174174 0.00327288 0.00970214
4.89397e-21 0.0174174 0.00327291 -0.00388072
2.71051e-20 -0.0177262 0.000264489 0.0097056
2.71051e-20 0.0177262 0.000264491 -0.00388225
0 -0.0177529 0.000830839 0.00970536
2.71051e-20 0.0177529 0.000830843 -0.00388217
0 -0.0177737 0.00146633 0.00970525
0 0.0177737 0.00146634 -0.00388145
-2.03288e-20 0.0174674 0.00388876 -0.00388113
-1.35525e-20 -0.0174675 0.00388877 0.00970157
-2.71051e-20 -0.0177694 0.00215825 0.00970464
0 0.0177694 0.00215826 -0.00388152
-6.77626e-21 -0.0175188 0.00391124 0.00970148
0 0.017519 0.0039113 -0.00388108
-3.38813e-21 -0.0175509 0.00385321 0.00970155
-3.38813e-21 0.0175511 0.00385308 -0.00388105
-5.42101e-20 -0.0177413 0.00287705 0.00970399
2.71051e-20 0.0177414 0.00287708 -0.00388183
-6.77626e-21 0.0179809 1.39465e-12 -0.00388383
-6.77626e-21 -0.0179809 1.39504e-12 0.00970738
1.35525e-20 0.017982 5.25092e-05 -0.00388384
6.77626e-21 -0.017982 5.25067e-05 0.00970738
0 -0.0175787 0.00394073 0.009702
-1.35525e-20 0.017579 0.0039409 -0.0038816
-4.51751e-21 -0.01766 0.00367697 0.00970167
3.01167e-21 0.01766 0.00367702 -0.00388089
-6.77626e-21 -0.0180462 7.99821e-13 0.00970736
6.77626e-21 0.0180462 7.99456e-13 -0.00388414
-2.25875e-21 -0.0180586 0.000513285 0.00970708
-3.38813e-21 0.0180586 0.000513288 -0.00388384
6.77626e-21 -0.0181035 4.49129e-05 0.00970836
0 0.0181035 4.49204e-05 -0.0038852
0 -0.0181053 7.64927e-13 0.00970835
0 0.0181054 7.64553e-13 -0.00388517
-2.25875e-22 0.0181062 0.00109872 -0.00388335
2.25875e-22 -0.0181062 0.00109871 0.00970674
0 -0.0181012 0.00178214 0.00970617
-1.69407e-21 0.0181012 0.00178214 -0.00388298
-1.12938e-21 -0.0180748 0.00251396 0.00970539
-1.12938e-21 0.0180748 0.00251397 -0.00388289
-1.35525e-20 -0.0177924 0.00406323 0.00970283
0 0.0177926 0.00406332 -0.00388262
0 -0.0178459 0.00400227 0.00970318
0 0.017846 0.00400239 -0.00388281
-4.51751e-21 -0.0180178 0.00326611 0.00970454
-6.77626e-21 0.0180179 0.00326616 -0.00388296
0 -0.0183483 0.000235222 0.0097101
2.71051e-20 0.0183483 0.000235228 -0.00388677
0 -0.0178961 0.00412296 0.00970334
0 0.0178962 0.004123 -0.00388305
2.71051e-20 0.0183931 0.00076447 -0.00388421
0 -0.0183931 0.000764464 0.00970739
-2.25875e-22 -0.0180567 0.00374589 0.00970424
-4.51751e-22 0.0180567 0.00374594 -0.00388335
2.71051e-20 -0.0184337 0.00138079 0.00970839
0 0.0184337 0.0013808 -0.00388509
0 -0.0184036 0.00212468 0.00970639
2.71051e-20 0.0184036 0.00212468 -0.00388385
3.38813e-21 -0.0185327 3.11692e-13 0.00970858
-6.77626e-21 0.0185328 3.11508e-13 -0.00388589
0 0.0180755 0.00422628 -0.00388389
1.35525e-20 -0.0180755 0.00422633 0.00970405
2.71051e-20 -0.0183781 0.00285998 0.00970648
5.42101e-20 0.0183781 0.00285999 -0.00388437
-5.64689e-22 -0.0186584 0.000460862 0.00970898
2.25875e-21 0.0186584 0.000460867 -0.00388624
1.35525e-20 -0.0181752 0.00428374 0.00970449
6.77626e-21 0.0181755 0.00428388 -0.00388437
0 -0.0182334 0.00409647 0.00970498
-4.51751e-21 0.0182335 0.00409657 -0.00388446
0 -0.0183786 0.00352144 0.0097056
-2.71051e-20 0.0183786 0.00352149 -0.00388428
3.38813e-21 -0.018738 2.24864e-13 0.009709
0 0.018738 2.24779e-13 -0.00388643
3.38813e-21 -0.0187383 1.85704e-05 0.00970899
3.38813e-21 0.0187383 1.85635e-05 -0.00388644
-3.38813e-21 -0.0187394 0.000144213 0.00970896
-3.38813e-21 0.0187394 0.000144178 -0.00388652
-3.38813e-21 -0.0187638 5.24913e-14 0.00970897
-3.38813e-21 0.0187638 5.2518e-14 -0.00388663
3.38813e-21 0.018782 1.52393e-05 -0.00388653
0 -0.018782 1.5244e-05 0.00970861
-3.38813e-21 0.0187835 4.19052e-14 -0.00388653
3.38813e-21 -0.0187835 4.18701e-14 0.00970861
5.64689e-23 0.0187413 0.0017483 -0.00388596
5.64689e-23 -0.0187413 0.00174835 0.00970886
3.38813e-21 0.0188423 3.06821e-14 -0.00388705
0 -0.0188423 3.06421e-14 0.00970907
-4.51751e-21 0.0188305 0.000950992 -0.00388664
-2.25875e-21 -0.0188305 0.000950983 0.00970986
0 -0.0183688 0.00439528 0.00970541
0 0.0183689 0.00439535 -0.00388523
-5.64689e-22 -0.0187533 0.00244388 0.00970844
0 0.0187533 0.00244392 -0.00388589
0 -0.0186868 0.0032017 0.0097076
-2.25875e-21 0.0186868 0.00320172 -0.00388568
1.35525e-20 -0.0184806 0.00445983 0.00970691
1.35525e-20 0.0184807 0.00445985 -0.00388652
-1.35525e-20 -0.0185303 0.00433131 0.00970708
1.35525e-20 0.0185303 0.00433142 -0.00388651
-7.52918e-22 -0.0186604 0.00393307 0.00970713
2.25875e-21 0.0186604 0.0039331 -0.00388612
1.12938e-21 -0.0191244 0.000340856 0.00971146
-2.82344e-22 0.0191244 0.000340868 -0.00388953
1.35525e-20 0.0192203 9.49176e-15 -0.00388977
0 -0.0192203 9.47246e-15 0.00971138
0 0.0191645 0.00146332 -0.00388703
-2.71051e-20 -0.0191645 0.00146333 0.00971
0 -0.0190143 0.00283766 0.00970936
0 0.0190143 0.00283768 -0.00388684
-1.69407e-21 0.0186824 0.00457622 -0.00388688
1.01644e-20 -0.0186825 0.00457626 0.00970689
1.69407e-21 -0.0187038 0.00458858 0.0097069
0 0.0187039 0.00458863 -0.0038869
-2.71051e-20 0.01916 0.00195764 -0.00388823
0 -0.01916 0.00195763 0.00971083
1.69407e-21 -0.0187213 0.00456183 0.00970694
0 0.0187215 0.00456168 -0.0038869
-1.18585e-20 -0.0187278 0.00460243 0.00970709
-8.47033e-21 0.0187281 0.00460258 -0.0038871
0 -0.0189854 0.00354595 0.00970905
0 0.0189854 0.00354598 -0.00388732
0 -0.0188773 0.00434108 0.00970727
-3.01167e-21 0.0188774 0.00434115 -0.00388683
-3.59989e-21 -0.0193794 0.000836844 0.00971268
-1.69407e-21 0.0193797 0.000837393 -0.00388929
-5.73865e-20 -0.0193888 0.000856836 0.0097127
2.75286e-21 0.0193834 0.000855823 -0.00388926
-2.11758e-21 0.0194038 0.000856698 -0.00388932
-2.32934e-21 -0.0194042 0.000856742 0.00971276
-1.35525e-20 0.0194237 1.55386e-15 -0.00389009
1.35525e-20 -0.0194238 1.53919e-15 0.00971098
0 -0.0193728 0.00168997 0.00971163
0 0.0193728 0.00168998 -0.00388743
1.41172e-21 0.0193778 0.00244583 -0.00388822
2.82344e-22 -0.0193778 0.00244582 0.00971174
-1.35525e-20 -0.0189666 0.0047402 0.00970814
-1.35525e-20 0.0189667 0.00474028 -0.00388837
-1.12938e-21 -0.0193197 0.00318392 0.00971077
-2.25875e-21 0.0193197 0.00318394 -0.00388826
0 -0.0190326 0.00467124 0.00970854
1.35525e-20 0.0190327 0.00467137 -0.00388855
-2.71051e-20 0.0195819 0.00142144 -0.00388682
0 -0.0195819 0.00142144 0.00971249
0 -0.0192551 0.00392917 0.00971004
9.03502e-21 0.0192551 0.00392922 -0.00388858
6.77626e-21 -0.0196529 3.98809e-16 0.00971228
-6.77626e-21 0.019653 4.05019e-16 -0.0038914
-2.71051e-20 -0.0195685 0.0019371 0.00971187
2.71051e-20 0.0195685 0.00193711 -0.00388689
2.71051e-20 -0.0190799 0.00480555 0.00970876
-2.71051e-20 0.0190799 0.00480559 -0.00388899
0 0.0197212 0.00026999 -0.00389161
-2.25875e-21 -0.0197213 0.000269871 0.00971258
0 -0.0192753 0.0044119 0.00970975
-9.03502e-22 0.0192753 0.00441194 -0.00388912
-3.38813e-21 0.019834 4.73089e-16 -0.00389202
-3.38813e-21 -0.0198344 4.6802e-16 0.00971321
-6.77626e-21 0.0192476 0.00490233 -0.00389003
0 -0.0192477 0.00490234 0.00970933
0 -0.0196698 0.00278682 0.00971269
0 0.0196698 0.00278683 -0.00388912
-2.71051e-20 -0.0196164 0.00353233 0.00971214
0 0.0196164 0.00353236 -0.0038898
-1.35525e-20 -0.0193208 0.00494455 0.00970972
-1.35525e-20 0.019321 0.00494463 -0.00389047
4.51751e-21 -0.0194217 0.00475372 0.00971024
4.51751e-21 0.0194217 0.0047538 -0.00389045
0 0.0200351 -3.30531e-17 -0.00389247
-1.35525e-20 -0.0200351 -3.31475e-17 0.0097143
2.25875e-21 0.0200397 0.000879641 -0.00389151
-2.5411e-21 -0.0200397 0.000879689 0.0097148
0 -0.0196209 0.00418595 0.00971145
-2.71051e-20 0.019621 0.00418598 -0.00389016
-2.82344e-22 0.0200082 0.001684 -0.00388923
5.64689e-22 -0.0200082 0.00168399 0.00971435
0 -0.0200926 6.73445e-05 0.00971473
0 0.0200927 6.74618e-05 -0.00389246
0 -0.0200965 -8.39099e-19 0.00971472
0 0.0200966 -7.09534e-19 -0.00389246
0 -0.0201334 8.4998e-18 0.00971513
0 0.0201335 8.62606e-18 -0.00389282
2.71051e-20 -0.0195081 0.00505258 0.00971097
-1.35525e-20 0.0195081 0.00505262 -0.00389176
0 0.0200347 0.00229462 -0.00389007
-2.25875e-21 -0.0200347 0.0022946 0.0097143
9.03502e-22 -0.0199605 0.00311668 0.0097139
-1.12938e-21 0.0199605 0.00311671 -0.00389077
0 -0.020225 6.93279e-05 0.00971596
0 0.0202253 6.94576e-05 -0.00389366
-1.35525e-20 -0.0202304 -1.78061e-17 0.00971596
1.35525e-20 0.0202307 -1.76953e-17 -0.00389366
-1.12938e-21 -0.0199314 0.00385542 0.00971352
3.38813e-21 0.0199314 0.00385544 -0.00389186
-6.77626e-21 0.0196737 0.00514811 -0.00389297
-1.35525e-20 -0.0196737 0.00514812 0.00971255
1.807e-21 -0.0198941 0.00456695 0.00971328
-9.03502e-22 0.0198941 0.00456697 -0.00389293
0 -0.0197657 0.00520119 0.00971303
1.35525e-20 0.0197657 0.00520124 -0.00389363
9.03502e-21 -0.0198219 0.00501114 0.00971328
0 0.0198219 0.00501119 -0.00389345
-2.71051e-20 -0.0202897 0.00277314 0.00971528
0 0.0202897 0.00277314 -0.00389142
0 -0.0202612 0.00349046 0.00971541
2.71051e-20 0.0202612 0.00349047 -0.00389297
0 0.0199065 0.00528242 -0.00389472
2.71051e-20 -0.0199065 0.00528242 0.00971322
0 -0.0202451 0.00417935 0.00971514
0 0.0202451 0.00417938 -0.00389461
5.42101e-20 0.0206574 0.00171968 -0.00389331
5.42101e-20 -0.0206574 0.00171968 0.00971712
4.51751e-21 -0.0201293 0.004986 0.00971466
1.50584e-21 0.0201293 0.00498603 -0.00389531
0 0.0200532 0.00536706 -0.00389582
-6.77626e-21 -0.0200532 0.00536708 0.00971329
0 -0.0206314 0.00242245 0.00971664
-5.64689e-22 0.0206314 0.00242249 -0.00389364
5.42101e-20 0.0207755 0.000514881 -0.00389739
0 -0.0207756 0.000514862 0.00971992
0 -0.0205987 0.00311576 0.00971671
-1.12938e-21 0.0205987 0.00311576 -0.00389411
-2.71051e-20 -0.0203105 0.00476265 0.00971574
0 0.0203105 0.00476269 -0.003896
-6.77626e-21 -0.0201708 0.00543492 0.00971402
2.03288e-20 0.0201709 0.00543498 -0.0038971
-4.51751e-21 -0.0202177 0.00527681 0.00971452
-4.51751e-21 0.0202177 0.00527687 -0.00389674
-1.12938e-21 -0.0205738 0.00381737 0.00971707
1.12938e-21 0.0205738 0.00381738 -0.00389587
4.51751e-21 -0.0205819 0.00447085 0.00971741
0 0.0205819 0.00447087 -0.00389776
0 -0.0203369 0.00553075 0.00971598
0 0.0203371 0.00553081 -0.00389941
-2.71051e-20 -0.0209426 0.00274697 0.00971766
0 0.0209426 0.00274698 -0.0038959
0 -0.0209032 0.00344943 0.00971857
8.13152e-20 0.0209032 0.00344944 -0.0038962
-1.35525e-20 -0.0204447 0.0055929 0.00971743
-1.35525e-20 0.0204447 0.00559292 -0.00390018
1.35525e-20 -0.0204858 0.00548981 0.00971761
0 0.0204858 0.00548988 -0.00390023
7.52918e-22 -0.0206004 0.00512924 0.00971774
2.25875e-21 0.0206004 0.00512925 -0.00389991
2.71051e-20 -0.0208995 0.004126 0.00971924
-2.71051e-20 0.0208995 0.00412602 -0.00389981
1.35525e-20 0.0213128 8.97542e-05 -0.00390055
1.35525e-20 -0.0213128 8.9712e-05 0.00972224
1.35525e-20 0.0213193 -2.80333e-18 -0.00390055
-1.35525e-20 -0.0213194 -2.88788e-18 0.00972225
4.51751e-21 0.0213562 0.00112751 -0.00389933
-2.25875e-21 -0.0213563 0.0011275 0.00972147
2.03288e-20 0.0206272 0.00569817 -0.00390316
-6.77626e-21 -0.0206273 0.00569821 0.00971845
2.71051e-20 -0.0208932 0.00478631 0.00971962
0 0.0208932 0.00478633 -0.00390096
1.12938e-21 0.0213143 0.00228572 -0.00389975
3.38813e-21 -0.0213143 0.00228571 0.00972057
0 0.02144 1.08456e-18 -0.00390101
-1.35525e-20 -0.0214401 1.08449e-18 0.00972263
0 -0.0206784 0.00572772 0.00971881
0 0.0206785 0.00572775 -0.00390415
1.41172e-22 -0.0212371 0.00307351 0.00972037
-2.82344e-22 0.0212371 0.00307352 -0.00389985
0 -0.0207149 0.00567146 0.00971902
0 0.020715 0.00567136 -0.00390443
6.77626e-21 -0.0207375 0.00576179 0.00971932
6.77626e-21 0.0207376 0.00576188 -0.00390439
1.50584e-21 -0.0208293 0.00551232 0.00971962
3.01167e-21 0.0208293 0.00551235 -0.00390539
0 -0.0215471 0.000109115 0.00972305
0 0.0215471 0.000109145 -0.00390175
0 0.0215566 9.65884e-19 -0.00390178
-1.35525e-20 -0.0215566 9.65605e-19 0.0097231
4.94103e-22 -0.0212592 0.00373091 0.00972107
-5.99982e-22 0.0212592 0.00373092 -0.00390121
-3.38813e-21 -0.0212042 0.00445828 0.00972136
0 0.0212042 0.00445829 -0.0039032
0 -0.0209535 0.0058866 0.00972078
-1.35525e-20 0.0209535 0.00588664 -0.00390627
2.25875e-21 -0.0211675 0.00514624 0.00972184
-2.25875e-21 0.0211675 0.00514627 -0.00390542
-1.35525e-20 -0.0210048 0.00583271 0.00972116
0 0.0210048 0.00583278 -0.00390647
0 0.0216644 0.00284434 -0.00390755
2.71051e-20 -0.0216644 0.00284434 0.00972329
2.71051e-20 -0.0210555 0.00594567 0.00972182
0 0.0210555 0.00594567 -0.00390808
-2.71051e-20 0.0216616 0.00329946 -0.00390501
-2.71051e-20 -0.0216616 0.00329945 0.00972288
0 -0.0215297 0.00411132 0.00972292
-2.71051e-20 0.0215297 0.00411133 -0.00390509
1.12938e-21 -0.0212154 0.00559337 0.0097226
1.12938e-21 0.0212154 0.0055934 -0.00390764
5.42101e-20 0.0219546 0.00177015 -0.00390178
5.42101e-20 -0.0219546 0.00177015 0.00972378
-5.42101e-20 0.0220217 0.000571054 -0.00390463
0 -0.0220218 0.000571066 0.00972501
0 -0.0215068 0.00478713 0.00972376
2.71051e-20 0.0215068 0.00478716 -0.00390709
-5.64689e-22 0.0219097 0.00242093 -0.00390547
0 -0.0219097 0.00242092 0.00972414
6.77626e-21 0.021227 0.00604556 -0.00390924
-6.77626e-21 -0.0212271 0.00604561 0.00972289
0 -0.0218721 0.0030677 0.00972388
0 0.0218721 0.0030677 -0.00390354
0 -0.0215266 0.00539882 0.00972463
0 0.0215266 0.00539885 -0.00391002
-4.51751e-21 -0.021392 0.00594167 0.0097242
-9.03502e-21 0.021392 0.00594175 -0.00391088
0 0.0218838 0.00375445 -0.00390716
4.23516e-22 -0.0218838 0.00375445 0.00972486
-1.35525e-20 -0.0213574 0.00612127 0.00972407
0 0.0213576 0.00612138 -0.00391157
-1.12938e-21 -0.0218345 0.00443965 0.00972515
0 0.0218345 0.00443967 -0.00391116
-2.71051e-20 -0.0221011 0.00283877 0.00972358
2.71051e-20 0.0221011 0.00283877 -0.0039077
0 -0.0220656 0.0032889 0.00972406
-2.71051e-20 0.0220656 0.00328891 -0.00389569
1.12938e-21 -0.0218182 0.00510344 0.00972633
2.25875e-21 0.0218183 0.00510346 -0.00391305
0 -0.0215448 0.00623065 0.00972637
-1.35525e-20 0.0215448 0.00623071 -0.00391736
-1.35525e-20 0.0225384 9.17221e-05 -0.0039091
0 -0.0225384 9.1706e-05 0.00972765
1.35525e-20 0.0225403 1.79113e-19 -0.00390909
0 -0.0225404 1.78128e-19 0.00972766
0 0.0216442 0.0063096 -0.00391788
-1.35525e-20 -0.0216442 0.00630959 0.00972754
-2.71051e-20 -0.0221735 0.00407695 0.0097262
0 0.0221736 0.00407697 -0.003916
0 0.0216896 0.0061912 -0.00391787
-1.35525e-20 -0.0216897 0.00619112 0.00972776
3.76459e-22 -0.0218103 0.00580094 0.0097277
-7.52918e-22 0.0218103 0.00580096 -0.00391728
0 0.0225989 0.00115695 -0.00391025
4.51751e-21 -0.0225989 0.00115695 0.00972763
0 0.0226373 8.21489e-20 -0.00390981
0 -0.0226373 8.09862e-20 0.00972813
5.42101e-20 -0.0221353 0.00476853 0.00972782
-2.71051e-20 0.0221353 0.00476855 -0.00391646
2.25875e-21 0.022582 0.00236336 -0.00391695
-4.51751e-21 -0.022582 0.00236336 0.00972713
5.50571e-21 0.0225009 0.00305827 -0.00391446
8.89385e-21 -0.022501 0.00305827 0.00972671
-3.38813e-20 0.0225096 0.00305557 -0.00391462
-1.65171e-20 -0.0225142 0.0030581 0.00972675
0 -0.0227255 8.81878e-05 0.00972856
-1.35525e-20 0.0227256 8.82072e-05 -0.00391048
-1.35525e-20 -0.0227307 3.10197e-20 0.00972859
-1.35525e-20 0.0227308 3.16342e-20 -0.0039105
0 0.0218385 0.00644695 -0.00392266
3.38813e-21 -0.0218386 0.00644701 0.00972941
0 -0.0221179 0.00543869 0.00972915
0 0.0221179 0.00543873 -0.00391908
1.69407e-21 -0.0218565 0.0064596 0.00972963
1.69407e-21 0.0218565 0.00645965 -0.00392347
0 -0.0218724 0.00643784 0.00972975
0 0.0218726 0.00643772 -0.00392386
0 -0.0218744 0.00647341 0.00972979
3.38813e-21 0.0218746 0.00647358 -0.00392328
0 -0.0225287 0.00364569 0.00972823
-1.807e-21 0.0225287 0.00364571 -0.00391745
1.12938e-21 -0.0224649 0.00441818 0.00972936
-5.64689e-22 0.022465 0.00441819 -0.00391978
-3.01167e-21 -0.0220386 0.00622588 0.00973104
-3.01167e-21 0.0220386 0.00622594 -0.00392859
0 -0.0224373 0.00510162 0.00973092
-1.12938e-21 0.0224374 0.00510164 -0.00392178
0 -0.022069 0.00662861 0.00973144
-1.35525e-20 0.0220691 0.00662869 -0.0039229
-1.35525e-20 -0.0221728 0.00656824 0.00973237
-2.71051e-20 0.0221729 0.00656835 -0.00392431
-4.51751e-21 -0.0223901 0.00581141 0.00973257
0 0.0223901 0.00581147 -0.00392646
2.71051e-20 -0.0227864 0.00407104 0.00973081
0 0.0227864 0.00407104 -0.00392353
-1.35525e-20 -0.0221653 0.00670526 0.00973295
-1.35525e-20 0.0221653 0.0067053 -0.00392677
0 0.0232274 0.000581677 -0.00391505
0 -0.0232275 0.000581678 0.00973108
0 -0.0227665 0.00474853 0.00973269
-5.42101e-20 0.0227666 0.00474854 -0.00392302
0 0.0231993 0.00176868 -0.0039196
0 -0.0231993 0.00176868 0.00973066
-1.35525e-20 -0.0222608 0.00678087 0.00973398
-1.35525e-20 0.0222609 0.00678088 -0.00392711
-1.35525e-20 -0.0223061 0.0066761 0.00973424
1.35525e-20 0.0223061 0.00667615 -0.00392742
7.26028e-22 -0.0224559 0.00637514 0.00973485
-8.06698e-22 0.0224559 0.00637519 -0.00392952
0 0.023153 0.00306261 -0.00394382
5.42101e-20 -0.023153 0.00306261 0.009731
-2.71051e-20 -0.0227373 0.00543366 0.00973407
0 0.0227374 0.0054337 -0.00392855
-1.41172e-22 0.0231517 0.00371753 -0.00395911
-2.82344e-22 -0.0231517 0.00371752 0.00973237
1.86347e-20 0.0224506 0.00693113 -0.00393116
-6.77626e-21 -0.0224506 0.00693118 0.00973642