# U  POINT_DATA 27788
# x  y  z  U_x  U_y  U_z
4.23516e-22 -0.0130568 4.20108e-06 -5.86325e-08 2.48922e-08 -2.3207e-09
0 0.0130568 4.20422e-06 -3.42928e-08 6.39227e-07 -9.67459e-08
0 0.0130538 6.6649e-06 0 0 0
-4.23516e-22 -0.0130538 6.66028e-06 0 0 0
1.69407e-21 -0.0130538 0.000644839 0 0 0
0 0.0130538 0.000645282 0 0 0
0 -0.0130538 0.000659278 0 0 0
-8.47033e-22 0.0130538 0.000659736 0 0 0
0 -0.0130538 0.000674531 0 0 0
-8.47033e-22 0.0130538 0.000674994 0 0 0
0 -0.0130603 0.000649722 -3.05192e-07 1.29568e-07 -1.20796e-08
0 0.0130603 0.000650171 -1.78555e-07 3.32831e-06 -5.03733e-07
0 -0.0130603 0.000668856 -1.90953e-05 1.50263e-05 3.4098e-08
0 0.0130603 0.000669319 -6.53881e-05 5.27289e-05 -3.55998e-06
-5.92923e-21 -0.0130709 0.000658157 -2.54765e-05 2.10142e-05 3.78859e-08
1.60936e-20 0.0130709 0.000658618 -0.000101155 8.66124e-05 -6.29308e-06
0 -0.0130538 0.00133809 0 0 0
1.69407e-21 0.0130538 0.00133857 0 0 0
0 -0.0130538 0.00135468 0 0 0
0 0.0130538 0.00135516 0 0 0
0 -0.0130538 0.00137216 0 0 0
0 0.0130538 0.00137263 0 0 0
-1.69407e-21 -0.0130609 0.00134164 -2.08073e-05 1.63735e-05 3.71552e-08
1.69407e-21 0.0130609 0.00134212 -7.12409e-05 5.74485e-05 -3.87863e-06
-1.69407e-21 -0.0130605 0.00136331 -2.09601e-05 1.70961e-05 3.70938e-07
0 0.0130605 0.00136378 -6.87673e-05 5.72691e-05 -6.4014e-07
5.0822e-21 -0.0130744 0.00134748 -6.5215e-05 5.46321e-05 5.20133e-08
1.69407e-21 0.0130744 0.00134796 -0.00019669 0.000165048 -7.03143e-06
0 -0.0130556 0.00208219 -5.52376e-06 4.54086e-06 -1.84225e-09
0 0.0130577 0.00208858 -1.76354e-05 1.46105e-05 -1.11237e-07
-4.23516e-22 -0.0130676 0.00208095 -2.76622e-05 2.45938e-05 -5.4403e-07
3.81165e-21 0.0130676 0.00208095 -9.40935e-05 8.53128e-05 4.80593e-06
-6.77626e-21 -0.0133442 8.05862e-08 0 0 0
0 0.0133442 8.05859e-08 0 0 0
-3.38813e-21 -0.0133452 0.000326479 -4.98021e-05 4.39064e-05 3.34031e-06
-5.64689e-21 0.0133452 0.000326736 -0.000258377 0.000267065 -1.06866e-05
-2.25875e-21 -0.0133372 0.000959829 -0.000777493 0.000653794 -5.59926e-06
-5.64689e-21 0.0133372 0.000960365 -0.00265295 0.00220698 -7.83287e-05
-4.51751e-21 -0.0132973 0.00155417 -0.000778579 0.000647342 -1.26444e-05
0 0.0132973 0.00155454 -0.00249191 0.00207185 4.26322e-06
3.04932e-20 0.0132406 0.00216284 0 0 0
0 -0.0132406 0.00216285 0 0 0
6.77626e-21 -0.0132805 0.00206428 -0.000271822 0.000241671 -5.3459e-06
-3.38813e-21 0.0132805 0.00206425 -0.000925152 0.000838817 4.72532e-05
-2.71051e-20 0.0133174 0.00219404 0 0 0
0 -0.0133175 0.00219406 0 0 0
-4.51751e-21 -0.0133831 0.00186918 -0.000739871 0.000638769 -1.12266e-05
0 0.0133831 0.00186936 -0.00243003 0.00213894 8.36828e-05
1.35525e-20 -0.0135632 9.24961e-08 0 0 0
-2.71051e-20 0.0135632 9.24953e-08 0 0 0
-6.77626e-21 -0.0134965 0.00146605 -0.00125879 0.0010657 -1.60757e-05
6.77626e-21 0.0134965 0.00146649 -0.00371347 0.00312844 -4.08881e-05
0 -0.0136117 8.70388e-05 -3.04532e-06 3.42291e-06 5.21759e-06
6.77626e-21 0.0136117 8.71003e-05 -0.000446484 0.000460877 -1.50763e-05
6.77626e-21 -0.0136152 8.46271e-08 0 0 0
0 0.0136152 8.46271e-08 0 0 0
1.35525e-20 -0.0136416 8.0639e-08 0 0 0
0 0.0136416 8.06395e-08 0 0 0
6.77626e-22 -0.0136355 0.000678728 -0.000851103 0.000693474 1.34655e-05
2.48463e-21 0.0136355 0.000679269 -0.00337218 0.00283386 -0.000148178
-1.35525e-20 0.0134811 0.00226049 0 0 0
0 -0.0134812 0.00226053 0 0 0
2.82344e-21 -0.0136197 0.00118987 -0.00149331 0.00122149 1.60211e-05
1.12938e-21 0.0136197 0.00119045 -0.00450467 0.00375119 -0.000143411
-7.52918e-22 -0.0136061 0.00162976 -0.00144582 0.00118275 -3.79385e-07
-4.51751e-21 0.0136061 0.00163011 -0.00421174 0.00351683 -4.31324e-05
1.35525e-20 0.0137235 7.39497e-08 0 0 0
1.35525e-20 -0.0137235 7.39483e-08 0 0 0
6.77626e-21 0.0137252 9.16823e-05 -0.000890039 0.000753848 -1.97799e-05
-6.77626e-21 -0.0137253 9.16246e-05 -4.13642e-06 2.13086e-06 -2.34182e-06
0 -0.0137103 0.00202484 -0.00117447 0.000916691 1.0374e-05
-3.38813e-22 0.0137102 0.00202496 -0.00367404 0.00301795 3.81578e-05
-6.77626e-21 0.0136752 0.0023393 0 0 0
6.77626e-21 -0.0136753 0.00233933 0 0 0
-6.77626e-21 0.0137679 0.00237692 0 0 0
1.35525e-20 -0.013768 0.00237696 0 0 0
-1.35525e-20 -0.0139849 0.000399002 -0.000314488 0.00024766 1.38584e-06
0 0.0139849 0.000399313 -0.00332679 0.00274169 -0.000104976
-9.03502e-21 -0.013986 0.000912946 -0.00173026 0.0013603 4.79475e-05
9.03502e-21 0.013986 0.000913447 -0.00584992 0.0048063 -0.000225385
-1.35525e-20 -0.0139545 0.00150378 -0.00221187 0.0017458 4.96669e-05
-4.51751e-21 0.0139546 0.00150416 -0.00632466 0.00517432 -0.000145491
1.35525e-20 -0.0140935 0.000126371 -5.70891e-06 2.94092e-06 -3.23208e-06
-1.35525e-20 0.0140935 0.000126457 -0.00122846 0.00104048 -2.73008e-05
0 -0.0141015 1.51513e-08 0 0 0
0 0.0141015 1.51514e-08 0 0 0
2.5411e-21 -0.0139607 0.00245511 0 0 0
0 0.0139609 0.00245518 0 0 0
-2.71051e-20 -0.0141702 0.000612039 -0.00107621 0.000848547 3.17038e-05
-2.71051e-20 0.0141702 0.000612472 -0.00484041 0.00394482 -0.000180041
2.71051e-20 0.0139759 0.00246127 0 0 0
1.69407e-20 -0.013976 0.00246129 0 0 0
9.31736e-21 0.0139805 0.00244911 -0.000195206 0.000172546 2.32581e-06
5.92923e-21 -0.0139806 0.00244893 -7.11008e-05 5.7899e-05 1.90678e-06
-2.71051e-20 -0.0141582 0.00121268 -0.00233807 0.00184227 6.24967e-05
0 0.0141582 0.00121315 -0.00683826 0.00550916 -0.000219767
1.35525e-20 -0.0142137 6.98307e-09 0 0 0
0 0.0142137 6.98407e-09 0 0 0
2.71051e-20 -0.0141062 0.00185461 -0.00206609 0.00160674 4.73611e-05
0 0.0141062 0.00185482 -0.00572973 0.00458744 -0.00010665
0 0.0140936 0.00222224 -0.00373395 0.00322246 2.45429e-05
-4.51751e-21 -0.0140936 0.00222217 -0.00132083 0.00106048 3.36158e-05
-1.35525e-20 0.0143442 6.46477e-09 0 0 0
0 -0.0143442 6.46386e-09 0 0 0
1.35525e-20 0.0141438 0.00239267 -0.00190791 0.00168644 2.27321e-05
-6.77626e-21 -0.0141439 0.00239256 -0.000684165 0.000557132 1.83479e-05
0 0.014345 0.000135164 -0.00176245 0.00147616 -4.14054e-05
-1.35525e-20 -0.014345 0.00013509 -6.32489e-05 5.22504e-05 -4.92507e-06
-1.35525e-20 0.0141782 0.00254345 0 0 0
-1.35525e-20 -0.0141783 0.00254345 0 0 0
-2.43945e-20 0.0144148 0.000393235 -0.00408753 0.00339675 -0.000103519
-2.71051e-21 -0.0144148 0.000392975 -0.000380748 0.000306679 -1.14387e-06
0 0.014293 0.00252719 -0.00102973 0.000784296 -2.31507e-05
6.77626e-21 -0.0142931 0.00252719 -0.000363518 0.000258682 1.94107e-05
-2.03288e-20 0.0142857 0.00258696 0 0 0
0 -0.0142858 0.00258699 0 0 0
-2.25875e-21 -0.0145008 0.000915389 -0.0023798 0.00186016 9.40934e-05
4.51751e-21 0.0145008 0.000915765 -0.00775875 0.00622601 -0.000285383
1.69407e-21 0.0143708 0.00229756 -0.00446571 0.00351129 -7.7182e-05
0 -0.0143708 0.00229749 -0.0016021 0.00119641 5.72199e-05
-2.25875e-21 -0.0144715 0.00154752 -0.00320704 0.00249673 0.000100265
0 0.0144715 0.0015478 -0.00860746 0.00680138 -0.000244069
1.35525e-20 -0.0144657 0.00205596 -0.00252409 0.00189711 8.99062e-05
-4.51751e-21 0.0144657 0.00205609 -0.00674521 0.00526429 -0.00016484
0 0.0146705 0.00015054 -0.00196296 0.0016441 -4.61159e-05
1.35525e-20 -0.0146705 0.000150448 -7.04401e-05 5.81912e-05 -5.48503e-06
-1.35525e-20 0.01468 6.30535e-09 0 0 0
1.35525e-20 -0.01468 6.30475e-09 0 0 0
-2.71051e-20 -0.0144708 0.00266175 0 0 0
1.35525e-20 0.0144708 0.00266174 0 0 0
2.71051e-21 0.0145057 0.00250599 -0.0029153 0.00220626 -6.03069e-05
-2.71051e-21 -0.0145058 0.00250596 -0.00100051 0.000712067 4.47857e-05
0 0.0148233 5.71582e-09 0 0 0
0 -0.0148234 5.71538e-09 0 0 0
6.77626e-21 -0.0148745 0.000558342 -0.00139475 0.00108018 4.49612e-05
-4.51751e-21 0.0148745 0.000558581 -0.00629606 0.00508735 -0.000193006
0 -0.0147686 0.00191048 -0.00334213 0.00253856 0.000118116
0 0.0147686 0.00191064 -0.00835583 0.0064634 -0.000262364
0 0.0146404 0.00273044 0 0 0
0 -0.0146404 0.00273047 0 0 0
-2.12968e-20 -0.0148827 0.00116851 -0.00340225 0.00262044 0.000129212
5.80823e-21 0.0148827 0.00116882 -0.009564 0.00751851 -0.000346999
1.35525e-20 0.0149747 4.96127e-09 0 0 0
2.71051e-20 -0.0149747 4.9609e-09 0 0 0
1.35525e-20 0.0149752 0.000142336 -0.00206927 0.00172917 -3.55314e-05
-1.35525e-20 -0.0149752 0.000142287 -0.000101398 8.03238e-05 -1.14321e-05
-2.25875e-21 -0.0148161 0.00236406 -0.00231306 0.00173098 9.95279e-05
4.51751e-21 0.0148161 0.00236412 -0.00595515 0.00461635 -0.000179128
-9.03502e-21 -0.0150223 0.00156473 -0.00418071 0.00320446 0.000135526
0 0.0150222 0.00156494 -0.0103335 0.00793683 -0.000348555
-2.71051e-20 0.0151424 0.000304981 -0.00440973 0.00366816 -6.06615e-05
0 -0.0151424 0.000304874 -0.000220849 0.000178421 -1.70374e-05
-1.35525e-20 0.0148918 0.00283394 0 0 0
-1.35525e-20 -0.0148918 0.00283398 0 0 0
2.71051e-20 -0.0151422 0.000920422 -0.00335467 0.00257747 0.000140042
0 0.0151422 0.000920657 -0.00988915 0.00776696 -0.000389424
8.13152e-21 0.0150419 0.00210501 -0.00900308 0.00689078 -0.000356927
-1.0842e-20 -0.0150419 0.00210492 -0.00376072 0.0028352 0.00015498
-4.51751e-21 -0.015053 0.00270398 -0.00122328 0.0009331 6.35911e-05
0 0.015053 0.00270402 -0.00331084 0.00259118 -0.00010032
0 -0.0150244 0.00288816 0 0 0
-2.71051e-20 0.0150245 0.0028882 0 0 0
1.35525e-20 0.0153086 2.24203e-09 0 0 0
1.35525e-20 -0.0153086 2.24182e-09 0 0 0
0 0.0153121 0.000140875 -0.00204806 0.00171145 -3.51672e-05
-1.35525e-20 -0.0153122 0.000140824 -0.000100357 7.94996e-05 -1.13148e-05
0 -0.0154577 1.48782e-09 0 0 0
-1.35525e-20 0.0154577 1.48795e-09 0 0 0
4.51751e-21 -0.0154655 0.000604019 -0.00196317 0.00149967 7.60536e-05
2.25875e-21 0.0154655 0.000604165 -0.00739623 0.00591984 -0.000220012
-1.12938e-20 -0.0154631 0.00123933 -0.00443117 0.00338484 0.000161654
-6.77626e-21 0.0154631 0.0012395 -0.0111054 0.00852044 -0.000419971
0 -0.0152755 0.00299148 0 0 0
2.71051e-20 0.0152755 0.0029915 0 0 0
2.25875e-21 -0.015469 0.0018808 -0.00488559 0.00370407 0.000173629
2.25875e-21 0.015469 0.00188091 -0.0110945 0.00834925 -0.000445741
0 -0.0156043 1.3028e-09 0 0 0
-1.35525e-20 0.0156043 1.30289e-09 0 0 0
-2.71051e-20 -0.0156046 0.000132299 -0.000144339 0.000107878 3.55081e-07
1.35525e-20 0.0156046 0.000132329 -0.00204047 0.00174147 -1.21409e-05
0 0.0153937 0.00303998 0 0 0
2.71051e-20 -0.0153938 0.00303999 0 0 0
1.35525e-20 0.0154261 0.0029384 -0.00203342 0.00172522 -5.04147e-05
-1.35525e-20 -0.0154261 0.00293835 -0.000834156 0.000622574 4.18444e-05
2.25875e-21 -0.0155039 0.00256159 -0.00303859 0.00225579 0.000131007
-7.52918e-22 0.0155039 0.00256162 -0.00709789 0.00540493 -0.000284196
0 0.0157872 0.000299952 -0.00464824 0.00395053 -1.70201e-05
0 -0.0157872 0.000299901 -0.000330725 0.000252999 1.83865e-06
-2.71051e-20 -0.0157971 0.000915013 -0.00404529 0.00306528 0.000184416
0 0.0157971 0.000915131 -0.0108145 0.00843092 -0.000422403
0 -0.0157989 0.00156074 -0.00575083 0.00438634 0.000176409
-2.71051e-20 0.0157989 0.00156083 -0.0126143 0.00940172 -0.000498347
6.77626e-21 0.0156182 0.00313283 0 0 0
-6.77626e-21 -0.0156183 0.00313287 0 0 0
-2.71051e-20 -0.015809 0.0022127 -0.00532079 0.00399418 0.000206935
0 0.015809 0.00221276 -0.0114221 0.00845674 -0.000532029
0 0.0159653 5.84461e-10 0 0 0
-1.35525e-20 -0.0159653 5.84404e-10 0 0 0
-1.35525e-20 0.0159712 0.000124971 -0.00192703 0.00164465 -1.14659e-05
-1.35525e-20 -0.0159712 0.000124945 -0.000136316 0.000101882 3.35344e-07
0 -0.0156925 0.00316351 0 0 0
6.77626e-21 0.0156925 0.00316352 0 0 0
0 -0.01572 0.00310334 -0.000552835 0.000375748 2.66476e-05
-6.77626e-21 0.0157201 0.00310327 -0.00143913 0.00103176 -6.81206e-05
-1.20467e-20 -0.0157996 0.00293416 -0.00202682 0.00141778 9.46869e-05
0 0.0157996 0.00293419 -0.00504918 0.00373312 -0.000220498
-6.77626e-21 -0.015781 0.00319986 0 0 0
-2.03288e-20 0.0157812 0.00319994 0 0 0
0 -0.0161034 4.04832e-10 0 0 0
0 0.0161034 4.0486e-10 0 0 0
-9.03502e-21 -0.016119 0.000594184 -0.00236884 0.00177898 9.177e-05
-6.77626e-21 0.016119 0.000594247 -0.00778802 0.00630477 -0.000203588
-4.51751e-21 -0.0161299 0.00122524 -0.00523087 0.00396831 0.000175185
0 0.0161299 0.00122532 -0.0120109 0.00913502 -0.000463497
0 -0.0162343 3.59803e-10 0 0 0
-1.35525e-20 0.0162343 3.59826e-10 0 0 0
-1.35525e-20 -0.0162345 0.00011328 -0.000281837 0.000199083 8.05908e-06
0 0.0162345 0.000113292 -0.00179808 0.00160928 -6.91724e-07
0 -0.0161352 0.00188661 -0.00604332 0.0045848 0.000189355
4.51751e-21 0.0161352 0.00188666 -0.0125721 0.00926335 -0.000537489
2.25875e-21 -0.0161278 0.00255594 -0.00447359 0.00333241 0.000163001
6.77626e-21 0.0161278 0.00255599 -0.00949006 0.0069997 -0.000422719
1.35525e-20 -0.0159975 0.00328828 0 0 0
0 0.0159976 0.00328832 0 0 0
0 -0.0160352 0.00323057 -0.000563435 0.000410666 2.34166e-05
4.06576e-20 0.0160353 0.00323064 -0.00139673 0.00109547 -2.46833e-05
0 -0.0160906 0.00332631 0 0 0
1.35525e-20 0.0160907 0.00332633 0 0 0
-2.71051e-20 -0.0164377 0.00029234 -0.000677669 0.000488848 1.40584e-05
-2.71051e-20 0.0164377 0.000292357 -0.00467608 0.00416743 5.04226e-06
-2.71051e-20 -0.0164552 0.000897699 -0.00455517 0.00340902 0.000173679
0 0.0164552 0.000897745 -0.0112208 0.00882902 -0.000392824
-1.35525e-21 -0.0162066 0.0029897 -0.00269311 0.00196849 0.000106463
2.25875e-21 0.0162067 0.00298974 -0.00614521 0.00464154 -0.000233877
-2.71051e-20 -0.0164658 0.00154123 -0.00663228 0.0050578 0.000168209
0 0.0164658 0.00154127 -0.0134596 0.00991967 -0.000547006
1.35525e-20 0.0162526 0.00328164 -0.00220045 0.00168396 -7.90711e-05
0 -0.0162527 0.0032816 -0.000909244 0.00066502 4.33012e-05
0 0.0162526 0.00339239 0 0 0
1.35525e-20 -0.0162526 0.00339241 0 0 0
0 -0.0164656 0.00220947 -0.00652067 0.00493929 0.000207848
0 0.0164656 0.00220951 -0.0128679 0.00932517 -0.00058106
0 0.0166389 1.04271e-10 0 0 0
0 -0.0166389 1.04267e-10 0 0 0
0 0.0166447 0.000100575 -0.00159625 0.00142865 -6.1408e-07
-1.35525e-20 -0.0166447 0.000100568 -0.000250211 0.000176743 7.15474e-06
-2.71051e-20 -0.0165065 0.00278869 -0.00458139 0.00340154 0.000155205
-2.71051e-20 0.0165065 0.00278872 -0.00976862 0.00717275 -0.000444021
0 -0.0167551 6.1842e-11 0 0 0
1.35525e-20 0.0167551 6.18409e-11 0 0 0
-2.25875e-21 -0.0167741 0.000577096 -0.00260156 0.00192301 8.4072e-05
4.51751e-21 0.0167741 0.000577118 -0.00780374 0.00646747 -0.00015133
2.71051e-20 -0.0164727 0.00325225 -0.00186271 0.00135034 8.76868e-05
2.71051e-20 0.0164728 0.00325227 -0.00452845 0.00349834 -0.000133715
1.12938e-21 -0.0167927 0.00119999 -0.00578895 0.00437469 0.000161172
1.12938e-21 0.0167928 0.00120002 -0.0123395 0.00939876 -0.000398514
0 -0.0164932 0.00349062 0 0 0
1.35525e-20 0.0164934 0.00349067 0 0 0
-1.35525e-20 -0.0168627 5.6253e-11 0 0 0
-1.35525e-20 0.0168627 5.62518e-11 0 0 0
0 -0.0168631 9.00351e-05 -0.000153952 9.89646e-05 -4.2421e-06
-1.35525e-20 0.0168631 9.00377e-05 -0.00139688 0.00130317 6.78705e-06
-1.12938e-21 -0.0167971 0.00186718 -0.00694853 0.00530265 0.000167894
3.38813e-21 0.0167971 0.0018672 -0.0133571 0.00969249 -0.000486348
0 -0.0165645 0.00339838 -0.000995502 0.000728109 4.74091e-05
0 0.0165646 0.00339847 -0.00240948 0.00184393 -8.65826e-05
2.25875e-21 -0.0168038 0.00251859 -0.00602244 0.00456576 0.000163951
-1.12938e-21 0.0168039 0.00251861 -0.0118247 0.00854458 -0.000453344
-2.71051e-20 -0.0166657 0.003561 0 0 0
0 0.0166658 0.00356102 0 0 0
0 -0.0167839 0.00309024 -0.00356184 0.00264834 0.000122667
-6.77626e-21 0.016784 0.00309026 -0.00766164 0.00567896 -0.000272797
5.42101e-20 0.0170872 0.000280478 -0.00440838 0.00412077 2.61331e-05
2.71051e-20 -0.0170872 0.000280474 -0.000512484 0.000343095 -9.19816e-06
0 -0.0171093 0.000869706 -0.00479925 0.0035548 0.000164914
0 0.0171094 0.000869716 -0.011127 0.0089167 -0.000256328
0 -0.0171238 0.0015109 -0.00721612 0.00551205 0.000140606
2.71051e-20 0.0171238 0.00151092 -0.0135974 0.0099542 -0.000405078
-6.77626e-21 0.0168547 0.00363794 0 0 0
2.03288e-20 -0.0168548 0.00363795 0 0 0
2.71051e-20 -0.0171215 0.00218644 -0.00744856 0.00571733 0.000156226
-2.71051e-20 0.0171216 0.00218645 -0.0135267 0.00958548 -0.000417588
0 -0.0173128 1.50028e-11 0 0 0
-1.35525e-20 0.0173128 1.50016e-11 0 0 0
1.35525e-20 0.017316 7.61098e-05 -0.00118079 0.00110158 5.73716e-06
0 -0.017316 7.61078e-05 -0.000130138 8.3656e-05 -3.5859e-06
4.51751e-21 -0.0169937 0.00347014 -0.0017621 0.00127362 8.4646e-05
0 0.0169937 0.00347019 -0.00403329 0.00302386 -0.000135514
-2.03288e-20 -0.0169518 0.00367748 0 0 0
2.03288e-20 0.0169519 0.00367752 0 0 0
-5.42101e-20 -0.0171192 0.00284365 -0.00572737 0.00435398 0.000138637
2.71051e-20 0.0171192 0.00284368 -0.0113904 0.00825261 -0.000378066
0 0.0174041 1.00273e-11 0 0 0
0 -0.0174041 1.00286e-11 0 0 0
-1.12938e-21 -0.0174225 0.000552281 -0.00265563 0.00193923 6.09918e-05
0 0.0174225 0.000552286 -0.00745617 0.00636569 -1.91083e-05
1.12938e-21 -0.0174464 0.00116236 -0.00607072 0.00459204 0.000122692
0 0.0174464 0.00116237 -0.0120951 0.00931261 -0.000159476
0 -0.0174883 9.27754e-12 0 0 0
1.35525e-20 0.0174883 9.27624e-12 0 0 0
0 -0.0174886 6.91534e-05 -0.000157169 8.6679e-05 -4.82307e-06
1.35525e-20 0.0174886 6.91578e-05 -0.00103811 0.000997949 2.93402e-05
1.12938e-21 -0.0174523 0.00183361 -0.00754575 0.0058166 0.000110162
-1.12938e-21 0.0174523 0.00183363 -0.0133919 0.00965444 -0.000166048
4.06576e-20 0.0171554 0.00376035 0 0 0
1.35525e-20 -0.0171554 0.00376034 0 0 0
2.25875e-21 -0.0174395 0.00252755 -0.00691804 0.00535071 0.000103424
2.25875e-21 0.0174395 0.00252757 -0.012483 0.00893697 -0.000133768
0 -0.0172701 0.00381183 0 0 0
0 0.0172701 0.00381183 0 0 0
1.35525e-20 0.0173096 0.0036891 -0.00264786 0.00217992 1.57155e-05
-1.35525e-20 -0.0173096 0.00368906 -0.00117184 0.000888383 2.47007e-05
1.50584e-21 -0.0174174 0.00327288 -0.00398177 0.00301336 8.87762e-05
4.89397e-21 0.0174174 0.00327291 -0.00812912 0.00609192 -6.07671e-05
2.71051e-20 -0.0177262 0.000264489 -0.000612537 0.000371336 -3.78305e-06
2.71051e-20 0.0177262 0.000264491 -0.00402085 0.0039227 8.83444e-05
0 -0.0177529 0.000830839 -0.00483874 0.00359435 9.9048e-05
2.71051e-20 0.0177529 0.000830843 -0.0105053 0.0086797 5.21149e-05
0 -0.0177737 0.00146633 -0.00748136 0.00574823 9.02454e-05
0 0.0177737 0.00146634 -0.0132152 0.00972765 -4.13116e-05
-2.03288e-20 0.0174674 0.00388876 0 0 0
-1.35525e-20 -0.0174675 0.00388877 0 0 0
-2.71051e-20 -0.0177694 0.00215825 -0.00803443 0.006281 5.63365e-05
0 0.0177694 0.00215826 -0.0132308 0.00935017 0.000187958
-6.77626e-21 -0.0175188 0.00391124 0 0 0
0 0.017519 0.0039113 0 0 0
-3.38813e-21 -0.0175509 0.00385321 -0.00062127 0.000428558 2.49176e-05
-3.38813e-21 0.0175511 0.00385308 -0.00148546 0.00109687 -1.65958e-05
-5.42101e-20 -0.0177413 0.00287705 -0.00658534 0.00514973 6.08667e-05
2.71051e-20 0.0177414 0.00287708 -0.0119074 0.00862725 8.53825e-05
-6.77626e-21 0.0179809 1.39465e-12 0 0 0
-6.77626e-21 -0.0179809 1.39504e-12 0 0 0
1.35525e-20 0.017982 5.25092e-05 -0.000788201 0.00075771 2.2277e-05
6.77626e-21 -0.017982 5.25067e-05 -0.000119335 6.58136e-05 -3.66205e-06
0 -0.0175787 0.00394073 0 0 0
-1.35525e-20 0.017579 0.0039409 0 0 0
-4.51751e-21 -0.01766 0.00367697 -0.00250676 0.00178345 8.10918e-05
3.01167e-21 0.01766 0.00367702 -0.00578 0.00438402 4.01692e-06
-6.77626e-21 -0.0180462 7.99821e-13 0 0 0
6.77626e-21 0.0180462 7.99456e-13 0 0 0
-2.25875e-21 -0.0180586 0.000513285 -0.00245803 0.00180523 3.99222e-05
-3.38813e-21 0.0180586 0.000513288 -0.00671419 0.00573705 0.000166912
6.77626e-21 -0.0181035 4.49129e-05 -1.56711e-05 9.8594e-06 -8.86127e-06
0 0.0181035 4.49204e-05 -0.000640291 0.000549762 1.47228e-05
0 -0.0181053 7.64927e-13 0 0 0
0 0.0181054 7.64553e-13 0 0 0
-2.25875e-22 0.0181062 0.00109872 -0.0111243 0.00855319 0.00029816
2.25875e-22 -0.0181062 0.00109871 -0.00602869 0.00457929 7.79992e-05
0 -0.0181012 0.00178214 -0.00781506 0.00610085 3.43178e-05
-1.69407e-21 0.0181012 0.00178214 -0.0125265 0.00888079 0.000484752
-1.12938e-21 -0.0180748 0.00251396 -0.0074908 0.00594638 -9.104e-06
-1.12938e-21 0.0180748 0.00251397 -0.0119609 0.00846455 0.00062089
-1.35525e-20 -0.0177924 0.00406323 0 0 0
0 0.0177926 0.00406332 0 0 0
0 -0.0178459 0.00400227 -0.000691064 0.000509856 2.07026e-05
0 0.017846 0.00400239 -0.00159906 0.0013397 6.56984e-05
-4.51751e-21 -0.0180178 0.00326611 -0.00504061 0.00397664 -3.68509e-06
-6.77626e-21 0.0180179 0.00326616 -0.00909567 0.00694642 0.00048971
0 -0.0183483 0.000235222 -7.09962e-05 4.58407e-05 -2.31492e-05
2.71051e-20 0.0183483 0.000235228 -0.00334649 0.00306488 9.05467e-05
0 -0.0178961 0.00412296 0 0 0
0 0.0178962 0.004123 0 0 0
2.71051e-20 0.0183931 0.00076447 -0.00932024 0.00756249 0.000427711
0 -0.0183931 0.000764464 -0.00452831 0.0033732 9.00219e-05
-2.25875e-22 -0.0180567 0.00374589 -0.00302457 0.00234164 1.86003e-05
-4.51751e-22 0.0180567 0.00374594 -0.00624188 0.00516815 0.000336563
2.71051e-20 -0.0184337 0.00138079 -0.00745776 0.00575289 4.82234e-05
0 0.0184337 0.0013808 -0.0118442 0.0085159 0.000682069
0 -0.0184036 0.00212468 -0.00827776 0.00660563 -5.48277e-05
2.71051e-20 0.0184036 0.00212468 -0.0117999 0.00791984 0.00110948
3.38813e-21 -0.0185327 3.11692e-13 0 0 0
-6.77626e-21 0.0185328 3.11508e-13 0 0 0
0 0.0180755 0.00422628 0 0 0
1.35525e-20 -0.0180755 0.00422633 0 0 0
2.71051e-20 -0.0183781 0.00285998 -0.00710525 0.00578211 -0.000100728
5.42101e-20 0.0183781 0.00285999 -0.0109215 0.0079509 0.00111518
-5.64689e-22 -0.0186584 0.000460862 -0.00236293 0.00173347 -2.13451e-05
2.25875e-21 0.0186584 0.000460867 -0.00597663 0.00498187 0.000350745
1.35525e-20 -0.0181752 0.00428374 0 0 0
6.77626e-21 0.0181755 0.00428388 0 0 0
0 -0.0182334 0.00409647 -0.00142301 0.00111027 2.23047e-05
-4.51751e-21 0.0182335 0.00409657 -0.00306659 0.00278678 0.000226311
0 -0.0183786 0.00352144 -0.00482664 0.00389687 -6.73536e-05
-2.71051e-20 0.0183786 0.00352149 -0.00882418 0.00734724 0.000791093
3.38813e-21 -0.018738 2.24864e-13 0 0 0
0 0.018738 2.24779e-13 0 0 0
3.38813e-21 -0.0187383 1.85704e-05 -4.42354e-06 3.0009e-06 6.5323e-07
3.38813e-21 0.0187383 1.85635e-05 -0.000263408 0.000261708 8.57993e-06
-3.38813e-21 -0.0187394 0.000144213 -0.000697785 0.000508509 -8.84543e-06
-3.38813e-21 0.0187394 0.000144178 -0.00186957 0.00158989 0.000104119
-3.38813e-21 -0.0187638 5.24913e-14 0 0 0
-3.38813e-21 0.0187638 5.2518e-14 0 0 0
3.38813e-21 0.018782 1.52393e-05 -0.000206373 0.000213178 2.35725e-05
0 -0.018782 1.5244e-05 -9.64928e-06 3.65786e-06 5.10313e-06
-3.38813e-21 0.0187835 4.19052e-14 0 0 0
3.38813e-21 -0.0187835 4.18701e-14 0 0 0
5.64689e-23 0.0187413 0.0017483 -0.0109526 0.00765729 0.00130442
5.64689e-23 -0.0187413 0.00174835 -0.00772916 0.00612954 -4.41822e-05
3.38813e-21 0.0188423 3.06821e-14 0 0 0
0 -0.0188423 3.06421e-14 0 0 0
-4.51751e-21 0.0188305 0.000950992 -0.00901883 0.00693339 0.000752407
-2.25875e-21 -0.0188305 0.000950983 -0.00519575 0.00394512 -3.31488e-05
0 -0.0183688 0.00439528 0 0 0
0 0.0183689 0.00439535 0 0 0
-5.64689e-22 -0.0187533 0.00244388 -0.00755498 0.00618689 -0.000147544
0 0.0187533 0.00244392 -0.0101221 0.00713969 0.00159406
0 -0.0186868 0.0032017 -0.00609571 0.00507256 -0.000174252
-2.25875e-21 0.0186868 0.00320172 -0.00895381 0.00712552 0.00142146
1.35525e-20 -0.0184806 0.00445983 0 0 0
1.35525e-20 0.0184807 0.00445985 0 0 0
-1.35525e-20 -0.0185303 0.00433131 -0.001008 0.000851091 -3.57185e-05
1.35525e-20 0.0185303 0.00433142 -0.00210993 0.00223536 0.000352463
-7.52918e-22 -0.0186604 0.00393307 -0.00330223 0.00273084 -7.93681e-05
2.25875e-21 0.0186604 0.0039331 -0.00584748 0.00545941 0.000864621
1.12938e-21 -0.0191244 0.000340856 -0.00201269 0.00143584 -0.000159022
-2.82344e-22 0.0191244 0.000340868 -0.00488612 0.00375545 0.000308612
1.35525e-20 0.0192203 9.49176e-15 0 0 0
0 -0.0192203 9.47246e-15 0 0 0
0 0.0191645 0.00146332 -0.00950002 0.00662854 0.00192789
-2.71051e-20 -0.0191645 0.00146333 -0.00736659 0.00578587 -5.13544e-05
0 -0.0190143 0.00283766 -0.0071573 0.00606813 -0.000299199
0 0.0190143 0.00283768 -0.00835684 0.00614959 0.0021908
-1.69407e-21 0.0186824 0.00457622 0 0 0
1.01644e-20 -0.0186825 0.00457626 0 0 0
1.69407e-21 -0.0187038 0.00458858 0 0 0
0 0.0187039 0.00458863 0 0 0
-2.71051e-20 0.01916 0.00195764 -0.00913403 0.00608139 0.00220835
0 -0.01916 0.00195763 -0.00788005 0.00642084 -0.000130788
1.69407e-21 -0.0187213 0.00456183 -0.00023859 0.000185534 -3.28272e-07
0 0.0187215 0.00456168 -0.000504042 0.000492782 6.62004e-05
-1.18585e-20 -0.0187278 0.00460243 0 0 0
-8.47033e-21 0.0187281 0.00460258 0 0 0
0 -0.0189854 0.00354595 -0.00543652 0.00467425 -0.000244702
0 0.0189854 0.00354598 -0.00769369 0.00698043 0.00167866
0 -0.0188773 0.00434108 -0.00211407 0.00169554 -3.42855e-05
-3.01167e-21 0.0188774 0.00434115 -0.00419985 0.00428917 0.000691318
-3.59989e-21 -0.0193794 0.000836844 -0.00447722 0.00338525 -9.3034e-05
-1.69407e-21 0.0193797 0.000837393 -0.00726435 0.00522762 0.00107289
-5.73865e-20 -0.0193888 0.000856836 -0.00456298 0.00345343 -8.94353e-05
2.75286e-21 0.0193834 0.000855823 -0.0073402 0.00527375 0.00109902
-2.11758e-21 0.0194038 0.000856698 -0.00729608 0.0052245 0.00111004
-2.32934e-21 -0.0194042 0.000856742 -0.00456397 0.00345587 -8.82573e-05
-1.35525e-20 0.0194237 1.55386e-15 0 0 0
1.35525e-20 -0.0194238 1.53919e-15 0 0 0
0 -0.0193728 0.00168997 -0.00753808 0.00605834 -9.67285e-05
0 0.0193728 0.00168998 -0.00878055 0.00584021 0.00227203
1.41172e-21 0.0193778 0.00244583 -0.00686428 0.00482669 0.00271377
2.82344e-22 -0.0193778 0.00244582 -0.00725983 0.00617923 -0.000303688
-1.35525e-20 -0.0189666 0.0047402 0 0 0
-1.35525e-20 0.0189667 0.00474028 0 0 0
-1.12938e-21 -0.0193197 0.00318392 -0.00620422 0.005451 -0.000374921
-2.25875e-21 0.0193197 0.00318394 -0.00611107 0.00528616 0.00243625
0 -0.0190326 0.00467124 -0.000643552 0.000532789 -1.83549e-05
1.35525e-20 0.0190327 0.00467137 -0.00123899 0.00145835 0.00031557
-2.71051e-20 0.0195819 0.00142144 -0.00819782 0.00521843 0.00234896
0 -0.0195819 0.00142144 -0.007218 0.00569352 -4.01238e-05
0 -0.0192551 0.00392917 -0.00404859 0.00360969 -0.000268522
9.03502e-21 0.0192551 0.00392922 -0.00498235 0.00547556 0.00161183
6.77626e-21 -0.0196529 3.98809e-16 0 0 0
-6.77626e-21 0.019653 4.05019e-16 0 0 0
-2.71051e-20 -0.0195685 0.0019371 -0.007693 0.00632909 -0.000165371
2.71051e-20 0.0195685 0.00193711 -0.00757929 0.00464891 0.00282271
2.71051e-20 -0.0190799 0.00480555 0 0 0
-2.71051e-20 0.0190799 0.00480559 0 0 0
0 0.0197212 0.00026999 -0.00381306 0.00230707 0.000345935
-2.25875e-21 -0.0197213 0.000269871 -0.00172166 0.00120795 -6.48826e-05
0 -0.0192753 0.0044119 -0.00245744 0.00218595 -0.000154213
-9.03502e-22 0.0192753 0.00441194 -0.00379171 0.00462367 0.00104039
-3.38813e-21 0.019834 4.73089e-16 0 0 0
-3.38813e-21 -0.0198344 4.6802e-16 0 0 0
-6.77626e-21 0.0192476 0.00490233 0 0 0
0 -0.0192477 0.00490234 0 0 0
0 -0.0196698 0.00278682 -0.00680802 0.0060497 -0.00048133
0 0.0196698 0.00278683 -0.00426367 0.0032581 0.00344612
-2.71051e-20 -0.0196164 0.00353233 -0.00546883 0.00505753 -0.000478818
0 0.0196164 0.00353236 -0.00417669 0.00476015 0.00246983
-1.35525e-20 -0.0193208 0.00494455 0 0 0
-1.35525e-20 0.019321 0.00494463 0 0 0
4.51751e-21 -0.0194217 0.00475372 -0.00123643 0.00113681 -8.00078e-05
4.51751e-21 0.0194217 0.0047538 -0.00189027 0.00267353 0.000620205
0 0.0200351 -3.30531e-17 0 0 0
-1.35525e-20 -0.0200351 -3.31475e-17 0 0 0
2.25875e-21 0.0200397 0.000879641 -0.00509406 0.0029531 0.00142966
-2.5411e-21 -0.0200397 0.000879689 -0.00426177 0.00329141 -2.62879e-05
0 -0.0196209 0.00418595 -0.00377436 0.00355188 -0.000365468
-2.71051e-20 0.019621 0.00418598 -0.00420575 0.00591533 0.00168539
-2.82344e-22 0.0200082 0.001684 -0.00550289 0.00301787 0.002824
5.64689e-22 -0.0200082 0.00168399 -0.0070638 0.00579795 -8.97003e-05
0 -0.0200926 6.73445e-05 -0.000413297 0.000321834 7.17549e-06
0 0.0200927 6.74618e-05 -0.000940712 0.000702089 9.25072e-05
0 -0.0200965 -8.39099e-19 0 0 0
0 0.0200966 -7.09534e-19 0 0 0
0 -0.0201334 8.4998e-18 0 0 0
0 0.0201335 8.62606e-18 0 0 0
2.71051e-20 -0.0195081 0.00505258 0 0 0
-1.35525e-20 0.0195081 0.00505262 0 0 0
0 0.0200347 0.00229462 -0.00296219 0.00184049 0.00321134
-2.25875e-21 -0.0200347 0.0022946 -0.0067343 0.00589814 -0.000336
9.03502e-22 -0.0199605 0.00311668 -0.00589598 0.00548531 -0.000530866
-1.12938e-21 0.0199605 0.00311671 -0.00156306 0.0020335 0.00297476
0 -0.020225 6.93279e-05 -0.00046054 0.000327352 8.61352e-07
0 0.0202253 6.94576e-05 -0.000612798 0.000378933 0.000128528
-1.35525e-20 -0.0202304 -1.78061e-17 0 0 0
1.35525e-20 0.0202307 -1.76953e-17 0 0 0
-1.12938e-21 -0.0199314 0.00385542 -0.0044946 0.00441347 -0.000551784
3.38813e-21 0.0199314 0.00385544 -0.00199664 0.00393844 0.00207037
-6.77626e-21 0.0196737 0.00514811 0 0 0
-1.35525e-20 -0.0196737 0.00514812 0 0 0
1.807e-21 -0.0198941 0.00456695 -0.00256292 0.00261231 -0.000345168
-9.03502e-22 0.0198941 0.00456697 -0.00224011 0.00423589 0.00115823
0 -0.0197657 0.00520119 0 0 0
1.35525e-20 0.0197657 0.00520124 0 0 0
9.03502e-21 -0.0198219 0.00501114 -0.00101964 0.0010793 -0.000136101
0 0.0198219 0.00501119 -0.00139904 0.00240773 0.000613277
-2.71051e-20 -0.0202897 0.00277314 -0.00606449 0.00567123 -0.000515646
0 0.0202897 0.00277314 0.00120049 -0.000551573 0.00334563
0 -0.0202612 0.00349046 -0.00496097 0.00502482 -0.000712884
2.71051e-20 0.0202612 0.00349047 0.00136775 0.000849902 0.00254065
0 0.0199065 0.00528242 0 0 0
2.71051e-20 -0.0199065 0.00528242 0 0 0
0 -0.0202451 0.00417935 -0.00383013 0.00408705 -0.000666467
0 0.0202451 0.00417938 -0.000746895 0.0040236 0.00164008
5.42101e-20 0.0206574 0.00171968 -8.8286e-05 -0.00150433 0.00347336
5.42101e-20 -0.0206574 0.00171968 -0.00627911 0.00535591 -6.22301e-05
4.51751e-21 -0.0201293 0.004986 -0.0016693 0.00183121 -0.00027264
1.50584e-21 0.0201293 0.00498603 -0.00158155 0.00343908 0.000751898
0 0.0200532 0.00536706 0 0 0
-6.77626e-21 -0.0200532 0.00536708 0 0 0
0 -0.0206314 0.00242245 -0.00561882 0.00532737 -0.000408375
-5.64689e-22 0.0206314 0.00242249 0.00353769 -0.00283618 0.00346662
5.42101e-20 0.0207755 0.000514881 -0.0035176 0.000955988 0.00105742
0 -0.0207756 0.000514862 -0.00336456 0.00237191 2.438e-05
0 -0.0205987 0.00311576 -0.00498662 0.00507251 -0.000621018
-1.12938e-21 0.0205987 0.00311576 0.0046624 -0.00252584 0.00298748
-2.71051e-20 -0.0203105 0.00476265 -0.0025023 0.00278619 -0.000478177
0 0.0203105 0.00476269 -0.00147396 0.0043524 0.000938947