# U  POINT_DATA 52106
# x  y  z  U_x  U_y  U_z
0.015557 -1.35525e-20 5.70113e-08 0 0 0
-0.015557 1.35525e-20 5.70113e-08 0 0 0
-0.015557 -6.77626e-21 0.000135948 0 0 0
0.015557 0 0.000135964 0 0 0
-0.015557 6.77626e-21 0.000527058 0 0 0
0.015557 6.77626e-21 0.000527125 0 0 0
-0.015557 1.35525e-20 0.000659558 0 0 0
0.015557 -1.35525e-20 0.000659639 0 0 0
-0.0155569 0 0.000798557 0 0 0
0.015557 0 0.000798637 0 0 0
-0.0155569 6.77626e-21 0.00121614 0 0 0
0.0155569 0 0.00121623 0 0 0
-0.0155569 -6.77626e-21 0.00135476 0 0 0
0.0155569 0 0.00135485 0 0 0
-0.0156159 6.77626e-21 6.65977e-05 -2.97598e-06 1.98344e-06 6.84629e-08
0.0156159 -6.77626e-21 6.66114e-05 -2.44496e-06 1.33804e-06 2.64848e-08
0.015617 -6.77626e-21 5.8671e-08 0 0 0
-0.015617 0 5.86705e-08 0 0 0
-0.0156133 0 0.000593966 -2.8497e-06 1.89928e-06 6.55578e-08
0.0156133 6.77626e-21 0.00059404 -2.34118e-06 1.28124e-06 2.53606e-08
0.0156101 0 0.000721026 -1.64895e-05 2.4783e-06 9.5194e-07
-0.0156101 6.77626e-21 0.000720945 -2.66096e-05 2.27159e-05 3.1164e-07
-0.0155569 -6.77626e-21 0.00150199 0 0 0
0.0155569 0 0.00150206 0 0 0
-0.0156099 -6.77626e-21 0.00127797 -2.6488e-05 2.26121e-05 3.10216e-07
0.0156099 6.77626e-21 0.00127806 -1.64142e-05 2.46698e-06 9.47592e-07
0.0156067 -6.77626e-21 0.00140498 -1.62159e-05 3.50892e-06 -4.30287e-06
-0.0156067 0 0.00140489 -2.67566e-05 2.24425e-05 -7.64652e-07
-0.0156758 -6.77626e-21 6.25738e-08 0 0 0
0.0156758 6.77626e-21 6.25741e-08 0 0 0
-0.0155569 1.35525e-20 0.00193255 0 0 0
0.0155569 0 0.00193257 0 0 0
-0.0156643 -2.71051e-20 0.000653593 -2.66839e-05 2.27629e-05 2.29275e-07
0.0156643 1.35525e-20 0.000653701 5.68799e-06 -7.12141e-06 -2.58588e-07
0.015557 -6.77626e-21 0.002087 0 0 0
-0.015557 6.77626e-21 0.002087 0 0 0
0.0156581 2.03288e-20 0.00132521 3.09205e-05 -3.2913e-05 8.56124e-07
-0.0156581 0 0.00132509 -5.14706e-05 4.41292e-05 3.13457e-08
0.0156109 0 0.00197556 -1.75874e-05 3.80569e-06 -4.66679e-06
-0.0156109 0 0.00197554 -2.90191e-05 2.43403e-05 -8.29311e-07
-0.01562 0 0.00210848 0 0 0
0.01562 -6.77626e-21 0.00210848 0 0 0
0.0156426 0 0.00205604 -3.49416e-05 3.06201e-05 2.31959e-06
-0.0156426 0 0.00205603 -2.72964e-05 2.4933e-05 -9.00819e-07
0.0156707 0 0.00197912 1.22174e-05 -1.58172e-05 2.37506e-06
-0.0156707 -6.77626e-21 0.00197907 -5.23961e-05 4.48138e-05 -7.50109e-07
-0.0156949 0 0.00213398 0 0 0
0.0156949 0 0.00213398 0 0 0
0.015885 6.77626e-21 7.41484e-08 0 0 0
-0.015885 6.77626e-21 7.41473e-08 0 0 0
-0.01589 0 0.00034758 -3.0655e-05 2.53226e-05 -1.02893e-07
0.01589 -2.25875e-21 0.000347688 -6.3217e-06 3.4681e-07 5.86226e-07
-0.0158834 2.71051e-21 0.000956113 -0.000138941 0.000113836 -4.20287e-07
0.0158834 -4.51751e-22 0.000956328 -5.57062e-06 -2.27063e-05 -2.1e-06
0.0158471 2.25875e-21 0.00154379 7.42629e-06 -2.87495e-05 1.84197e-05
-0.0158471 2.25875e-21 0.00154362 -0.000145199 0.000121376 1.4148e-06
-0.0158414 2.82344e-21 0.00196386 -9.45963e-05 7.55742e-05 9.47671e-07
0.0158414 -1.12938e-21 0.00196392 -8.93856e-05 6.61071e-05 1.33276e-05
-0.015839 0 0.00218308 0 0 0
0.015839 -1.35525e-20 0.00218308 0 0 0
-0.0159079 -4.06576e-20 0.00220656 0 0 0
0.0159079 0 0.00220656 0 0 0
-0.0160357 0 0.00166133 -0.000211736 0.000176476 2.63243e-06
0.0160357 1.12938e-21 0.00166159 2.29361e-05 -6.03222e-05 1.8739e-05
-0.0161335 0 1.64555e-05 -6.37593e-07 5.32631e-07 7.30792e-09
0.0161337 -4.23516e-22 1.6266e-05 -5.2324e-07 2.86374e-07 5.51825e-08
-0.0161343 -4.23516e-22 5.30999e-08 0 0 0
0.0161345 0 5.30909e-08 0 0 0
-0.0159895 -4.06576e-20 0.00223438 0 0 0
0.0159896 0 0.00223438 0 0 0
-0.0161453 0 5.24551e-08 -4.07167e-08 3.9721e-08 -8.85152e-10
0.0161479 0 3.0392e-06 -1.15256e-08 -2.62253e-09 -4.33149e-10
-0.0161363 -2.25875e-21 0.000658258 -0.000134413 0.000111359 -1.53367e-06
0.0161363 0 0.00065863 7.78649e-06 -2.80309e-05 2.75118e-07
-0.016108 0 0.00123662 -0.000237555 0.00020168 8.44415e-07
0.0161079 -2.25875e-21 0.00123704 7.11231e-05 -0.000105772 8.92714e-06
-0.0162278 -1.8823e-21 0.00195621 -0.000198619 0.000163697 3.36196e-06
0.0162278 1.12938e-21 0.00195641 -9.07177e-05 7.09619e-06 1.54278e-05
0.0161979 6.77626e-21 0.00230534 0 0 0
-0.0161979 0 0.00230537 0 0 0
-0.0162561 6.77626e-21 0.00232518 0 0 0
0.0162561 6.77626e-21 0.00232518 0 0 0
-0.016267 0 0.00230119 -2.31273e-05 2.19762e-05 -4.20241e-07
0.016267 0 0.00230117 -1.78192e-05 1.79156e-05 -1.01936e-06
-0.0162975 1.35525e-20 0.00227122 -4.16884e-05 3.47169e-05 7.1131e-08
0.0162975 -6.77626e-21 0.00227118 -2.78123e-05 -1.90448e-06 -4.5107e-06
-0.0162994 1.35525e-20 0.00233991 0 0 0
0.0162994 6.77626e-21 0.00233992 0 0 0
0.0164713 1.35525e-20 0.000318776 4.21561e-06 -1.85673e-05 1.69409e-06
-0.0164713 0 0.00031848 -3.05081e-05 2.71123e-05 1.33895e-07
0.0164838 9.03502e-21 0.000934132 -0.000102781 -3.59037e-05 2.29409e-05
-0.0164839 -4.51751e-21 0.000933459 -0.000278782 0.000240329 2.96358e-06
-0.0165151 2.71051e-20 8.91788e-08 0 0 0
0.0165151 0 8.91806e-08 0 0 0
0.0164768 9.03502e-21 0.00151147 -0.000100664 -8.92713e-05 2.84265e-07
-0.0164769 0 0.00151089 -0.000347876 0.000298448 4.38862e-06
0.0166394 0 9.23357e-08 0 0 0
-0.0166394 0 9.23334e-08 0 0 0
-0.0165053 0 0.00241002 0 0 0
0.0165054 1.35525e-20 0.00241002 0 0 0
0.0167038 2.71051e-20 0.000635416 -4.03587e-05 -6.39124e-05 1.38689e-05
-0.0167039 0 0.000634646 -0.000180706 0.000157015 2.34275e-06
0.0165943 5.64689e-22 0.00217414 -0.000137385 -1.46341e-05 -6.10334e-05
-0.0165943 1.12938e-21 0.00217395 -0.000226256 0.000175438 7.87752e-07
0.0167298 0 0.00122679 -4.82633e-05 -0.000179499 -1.88467e-05
-0.0167299 0 0.00122589 -0.000387936 0.000330891 3.60134e-07
0.0166885 0 0.00181391 -8.51736e-05 -0.000131256 -6.08277e-05
-0.0166886 -2.71051e-20 0.00181341 -0.00034761 0.000297637 -2.50321e-06
-0.0166608 -1.35525e-20 0.00246303 0 0 0
0.016661 0 0.00246306 0 0 0
0.0168423 -1.35525e-20 7.0937e-08 0 0 0
-0.0168423 1.35525e-20 7.09338e-08 0 0 0
0.0169749 -2.25875e-21 0.000303039 5.64397e-06 -1.80705e-05 1.75799e-06
-0.016975 4.51751e-21 0.000302648 -2.56226e-05 2.24751e-05 4.07637e-07
-0.0168731 1.12938e-21 0.0022093 -0.000266783 0.000223167 -2.63672e-06
0.0168731 1.12938e-21 0.00220951 -0.000115039 -7.41353e-05 -7.51313e-05
0.016996 -4.51751e-21 0.000918683 -0.000119282 -0.000135671 5.21065e-06
-0.0169961 0 0.000917792 -0.000384152 0.000315632 -3.02384e-06
0.0168625 -2.03288e-20 0.00253161 0 0 0
-0.0168625 0 0.00253162 0 0 0
0.0169886 -4.51751e-21 0.00152442 -7.38681e-05 -0.000259488 -8.91219e-05
-0.0169887 4.51751e-21 0.00152371 -0.000507261 0.000417198 2.85258e-07
0.0170875 0 2.4605e-08 0 0 0
-0.0170875 0 2.46021e-08 0 0 0
0.0169822 4.51751e-21 0.00199465 -8.01045e-05 -0.000205784 -9.28611e-05
-0.0169822 4.51751e-21 0.00199427 -0.000396809 0.000333118 -2.95897e-06
-0.0169516 -9.03502e-21 0.00241979 -0.000120027 0.000104218 -3.14753e-06
0.0169517 9.03502e-21 0.00241989 -5.19918e-05 -3.07166e-05 -3.85335e-05
-0.0169616 -1.35525e-20 0.00256534 0 0 0
0.0169617 -2.03288e-20 0.00256538 0 0 0
0.0172725 2.71051e-20 0.000609814 -2.53184e-05 -0.000152587 8.61142e-06
-0.0172727 0 0.000608963 -0.000226879 0.000191187 -1.94509e-07
0.017301 2.71051e-20 3.86873e-09 0 0 0
-0.0173011 2.71051e-20 3.86453e-09 0 0 0
0.0172756 0 0.0012186 1.27628e-05 -0.000416733 -3.80899e-05
-0.0172758 5.42101e-20 0.00121766 -0.000510497 0.000427906 -6.97828e-08
0.0172503 0 0.00183262 -5.29366e-05 -0.000373869 -9.3297e-05
-0.0172504 2.71051e-20 0.00183214 -0.000507824 0.000427861 -2.16188e-08
-0.0171625 0 0.00263367 0 0 0
0.0171625 0 0.00263369 0 0 0
-0.0172627 -3.38813e-21 0.00228337 -0.000336261 0.000286745 -5.35486e-07
0.0172628 -5.64689e-22 0.00228356 -8.51582e-05 -0.000179395 -8.14624e-05
0.0175152 -1.35525e-20 3.90438e-09 0 0 0
-0.0175152 0 3.90115e-09 0 0 0
0.0176166 -6.77626e-21 0.000304265 7.22546e-07 -2.48067e-05 5.6865e-07
-0.0176168 4.51751e-21 0.000303958 -3.19313e-05 2.71807e-05 -4.11245e-08
0.0176138 1.12938e-21 0.000914505 -0.000193002 -0.000285222 6.48589e-06
-0.0176139 0 0.000913847 -0.000484347 0.000409381 -4.88405e-07
0.0175986 1.12938e-21 0.00154662 -9.79991e-05 -0.000534019 -9.56354e-05
-0.0175987 1.12938e-21 0.0015461 -0.00067373 0.000568784 7.81821e-07
0.0174824 0 0.00274279 0 0 0
-0.0174824 -1.01644e-20 0.0027428 0 0 0
-0.0174954 -1.69407e-21 0.00274721 0 0 0
0.0174955 3.72694e-20 0.00274726 0 0 0
0.0177275 -1.35525e-20 5.30347e-09 0 0 0
-0.0177276 4.06576e-20 5.30237e-09 0 0 0
-0.0176266 -1.807e-20 0.00211798 -0.000548296 0.000462692 1.45033e-06
0.0176266 2.25875e-21 0.00211823 -5.85256e-05 -0.00046663 -0.000117708
-0.0175733 2.25875e-21 0.00255362 -0.000238666 0.000200131 4.18629e-06
0.0175734 -4.51751e-21 0.0025537 -4.198e-05 -0.000145529 -5.7593e-05
0.0179395 0 5.36713e-09 0 0 0
-0.0179395 0 5.36695e-09 0 0 0
0.0179446 -2.71051e-20 0.000602236 -5.59607e-05 -0.000242192 3.40075e-06
-0.0179448 -2.71051e-20 0.000601852 -0.000271812 0.000229948 -4.2358e-07
0.0179404 2.71051e-20 0.00122938 -3.71717e-05 -0.000674227 -5.22496e-05
-0.0179405 0 0.00122893 -0.000655031 0.000552885 1.68322e-07
-0.0179 -2.71051e-20 0.00190852 -0.000680716 0.000571378 3.37574e-07
0.0179 -2.71051e-20 0.00190875 -5.30985e-06 -0.000726683 -0.000130799
-0.0177928 0 0.00284873 0 0 0
0.0177928 2.71051e-20 0.00284875 0 0 0
-0.0179476 2.71051e-20 0.0024258 -0.000467906 0.000393126 -5.32913e-07
0.0179477 2.71051e-20 0.00242589 8.31535e-06 -0.000473324 -0.000122303
0.0181451 0 4.40341e-09 0 0 0
-0.0181451 0 4.40324e-09 0 0 0
-0.0180159 4.06576e-20 0.00292502 0 0 0
0.018016 0 0.00292506 0 0 0
0.0182715 -2.25875e-21 0.000300999 4.5105e-06 -5.86287e-05 2.82824e-08
-0.0182716 -4.51751e-21 0.000300875 -5.19706e-05 4.416e-05 -1.56238e-07
0.0182775 0 0.000913342 -1.27836e-05 -0.000667145 -7.34001e-06
-0.0182775 -6.77626e-21 0.00091307 -0.000566999 0.000481286 -9.11889e-07
-0.0182702 -4.51751e-21 0.00156202 -0.000829623 0.000701972 -5.56408e-07
0.0182702 2.25875e-21 0.00156224 0.000156498 -0.00112123 -0.000129043
-0.0182366 -1.12938e-20 0.00214879 -0.000739619 0.000621719 -3.51316e-06
0.0182366 4.51751e-21 0.00214891 0.000138654 -0.000955452 -0.000183108
0.0181444 -6.77626e-21 0.00296949 0 0 0
-0.0181446 -6.77626e-21 0.00296953 0 0 0
-0.0181872 -6.77626e-22 0.00270867 -0.000321394 0.000277101 -1.42849e-06
0.0181872 6.77626e-22 0.00270873 7.02519e-05 -0.000365688 -0.000110098
0.0183921 1.35525e-20 2.43155e-09 0 0 0
-0.0183922 1.35525e-20 2.43148e-09 0 0 0
-0.0185886 0 1.46532e-09 0 0 0
0.0185886 0 1.46539e-09 0 0 0
-0.0183446 -1.35525e-20 0.00303802 0 0 0
0.0183446 0 0.00303804 0 0 0
0.0185996 -2.71051e-20 0.000595038 3.78829e-05 -0.000443186 2.42037e-07
-0.0185997 0 0.000594918 -0.000316774 0.000268898 -1.12594e-06
-0.0186737 1.16165e-20 0.00129278 -0.000865561 0.000732192 -9.5845e-07
0.0186737 1.16165e-20 0.00129291 0.000300548 -0.00142787 -0.000112893
-0.0187703 -1.35525e-20 1.23409e-09 0 0 0
0.0187703 1.35525e-20 1.23413e-09 0 0 0
0.0185175 2.03288e-20 0.00309812 0 0 0
-0.0185175 6.77626e-21 0.00309812 0 0 0
-0.0187148 -4.51751e-21 0.00187601 -0.000940546 0.000793176 -9.62414e-07
0.0187148 4.51751e-21 0.00187608 0.000388751 -0.00157955 -0.000207592
-0.0186674 7.52918e-21 0.00253515 -0.000621385 0.000521757 -2.68152e-06
0.0186674 -3.01167e-21 0.00253519 0.000230901 -0.000950679 -0.000188255
0.018823 -1.35525e-20 0.000903657 0.000169052 -0.00102002 -1.22932e-05
-0.018823 4.51751e-21 0.00090356 -0.000628418 0.000533832 -2.48451e-06
0.0188705 -4.51751e-21 0.0002483 1.05534e-05 -5.80218e-05 -1.5506e-06
-0.0188706 2.25875e-21 0.000248266 -4.35467e-05 3.70185e-05 -1.97848e-08
-0.0186437 0 0.002939 -0.000293135 0.00024227 -2.50073e-06
0.0186438 0 0.00293906 0.000109538 -0.000407092 -0.000115386
-0.0189391 2.71051e-20 0.00154412 -0.00102609 0.00086716 -9.7481e-07
0.0189391 2.71051e-20 0.00154419 0.00052432 -0.0018986 -0.000181509
0.0187701 -9.74088e-21 0.00318665 6.82951e-07 -1.41128e-06 -3.24261e-07
-0.0187699 -8.47033e-22 0.00318654 -8.10469e-07 7.37662e-07 -1.13969e-08
0.0188367 -1.35525e-20 0.00285269 0.000219945 -0.000677886 -0.000149579
-0.0188367 -1.35525e-20 0.00285269 -0.000432271 0.000370778 -3.8987e-06
0.0190684 0 6.42265e-10 0 0 0
-0.0190684 1.35525e-20 6.42229e-10 0 0 0
-0.018947 0 0.00220299 -0.000984112 0.000829433 -6.7333e-07
0.018947 0 0.00220303 0.000495588 -0.00174811 -0.000276105
-0.0189611 -6.77626e-21 0.00294132 -0.000401252 0.000352095 -4.5909e-06
0.0189611 -6.77626e-21 0.00294137 0.000237182 -0.000648063 -0.000143089
-0.0192376 0 4.16948e-10 0 0 0
0.0192376 -2.71051e-20 4.16969e-10 0 0 0
0.0192505 -2.25875e-21 0.000578858 0.000155687 -0.000667525 7.02533e-06
-0.0192506 1.12938e-20 0.000578833 -0.000347717 0.000297045 -1.28735e-06
-0.0192654 -6.77626e-21 0.00120337 -0.000896625 0.00076156 -1.38066e-06
0.0192654 -4.51751e-21 0.0012034 0.000499796 -0.00180581 -9.09527e-05
-0.0192728 4.51751e-21 0.00186871 -0.00109739 0.000927418 -1.25464e-07
0.0192728 1.12938e-20 0.00186874 0.000676045 -0.00221167 -0.000259916
-0.0190865 0 0.00329541 0 0 0
0.0190867 2.71051e-20 0.00329547 0 0 0
-0.0193938 0 3.58644e-10 0 0 0
0.0193938 -2.71051e-20 3.58662e-10 0 0 0
0.0193936 -2.71051e-20 0.000130553 6.33301e-07 -6.26183e-07 -4.07625e-06
-0.0193936 1.35525e-20 0.000130545 -3.29815e-06 2.75814e-06 -6.44479e-08
-0.0191339 1.35525e-20 0.00323263 -0.000112615 9.5907e-05 -1.6913e-06
0.019134 0 0.00323272 4.3407e-05 -0.000167519 -4.35177e-05
-0.0192591 4.51751e-21 0.00254519 -0.000850999 0.000718607 -1.89462e-06
0.0192591 2.25875e-21 0.00254522 0.00050107 -0.00161511 -0.000273315
-0.0192048 0 0.003336 0 0 0
0.0192049 1.35525e-20 0.00333604 0 0 0
-0.0193217 4.51751e-22 0.00298746 -0.000512912 0.000436551 -4.06232e-06
0.0193218 -9.03502e-22 0.0029875 0.000327501 -0.000935256 -0.000191064
0.0195688 0 0.000280898 9.56232e-07 -8.88786e-07 -6.29862e-06
-0.0195688 2.71051e-20 0.00028089 -6.88748e-06 5.7581e-06 -3.19902e-08
0.0195891 -2.71051e-20 0.000871761 0.000438786 -0.00158954 3.63033e-05
-0.0195891 5.42101e-20 0.000871755 -0.000727579 0.000624734 -2.17288e-06
-0.019374 0 0.0032822 -0.000179744 0.00015537 -2.08588e-06
0.019374 -1.35525e-20 0.00328227 8.8404e-05 -0.000292718 -7.98346e-05
-0.0196057 -2.71051e-20 0.00151348 -0.00117016 0.000991493 7.64371e-07
0.0196057 0 0.0015135 0.0008532 -0.00264548 -0.000223062
-0.0193742 -2.71051e-20 0.00339404 0 0 0
0.0193743 0 0.00339406 0 0 0
-0.0196063 2.71051e-20 0.0021914 -0.00122018 0.00103141 2.05944e-07
0.0196063 2.71051e-20 0.00219141 0.000852102 -0.00260328 -0.000358855
0.0197445 0 1.1881e-10 0 0 0
-0.0197445 0 1.1881e-10 0 0 0
0.0197496 1.35525e-20 0.000118775 5.76164e-07 -5.69689e-07 -3.70848e-06
-0.0197497 2.71051e-20 0.000118767 -3.00059e-06 2.5093e-06 -5.86333e-08
-0.0196349 0 0.00277709 -0.000877151 0.000744116 -3.55579e-06
0.019635 0 0.00277712 0.000601938 -0.00174928 -0.000325011
-0.0195953 1.35525e-20 0.00324376 -0.00034816 0.000303344 -5.11442e-06
0.0195954 0 0.0032438 0.000236828 -0.000624904 -0.000148663
-0.0198869 1.35525e-20 6.23641e-11 0 0 0
0.0198869 1.35525e-20 6.23597e-11 0 0 0
0.0199025 0 0.000551642 0.000250331 -0.000854613 1.06584e-05
-0.0199025 6.77626e-21 0.00055164 -0.000360616 0.000307375 -1.31942e-06
-0.0196372 -2.71051e-20 0.00348423 0 0 0
0.0196374 0 0.0034843 0 0 0
-0.0199263 7.90564e-21 0.00116493 -0.000981059 0.000832587 -4.40763e-07
0.0199263 -2.25875e-21 0.00116493 0.00074826 -0.00235236 -0.000109681
-0.0197065 0 0.0033997 -0.000174156 0.00015054 -2.02104e-06
0.0197066 1.35525e-20 0.00339978 8.56828e-05 -0.000283708 -7.73771e-05
-0.0200175 0 0.000104927 -2.80485e-06 2.3056e-06 1.17277e-07
0.0200175 -1.35525e-20 0.000104918 -9.48229e-07 -8.7165e-08 -5.08824e-06
-0.020018 0 5.47768e-11 0 0 0
0.0200181 0 5.47745e-11 0 0 0
-0.0199354 0 0.00184109 -0.00128677 0.00108926 2.39578e-06
0.0199355 -5.64689e-21 0.0018411 0.000997168 -0.00299341 -0.000326825
-0.0199397 0 0.00250609 -0.00116126 0.000982416 1.03217e-06
0.0199397 -1.12938e-21 0.0025061 0.000869195 -0.00253661 -0.000391544
-0.0198048 -1.35525e-20 0.00354162 0 0 0
0.0198049 2.71051e-20 0.00354168 0 0 0
-0.0199176 0 0.00307583 -0.000692304 0.000589595 -1.6166e-06
0.0199177 2.25875e-21 0.00307587 0.000515542 -0.00140587 -0.000271739
-0.0202108 0 0.000262551 -6.9264e-06 5.64684e-06 3.8191e-07
0.0202108 2.71051e-20 0.000262544 -7.592e-07 -4.6707e-08 -8.94273e-06
-0.0202372 2.71051e-20 0.000828952 -0.000734123 0.000621864 -3.5784e-06
0.0202372 0 0.00082895 0.000600809 -0.0019149 2.03348e-05
-0.0199793 1.35525e-20 0.00344741 -0.000267422 0.000232949 -2.0081e-06
0.0199793 -1.35525e-20 0.00344747 0.00020554 -0.000520537 -0.000117951
-0.0199876 -6.77626e-21 0.00360417 0 0 0
0.0199877 1.35525e-20 0.00360422 0 0 0
-0.0202612 -2.71051e-20 0.00146953 -0.00130635 0.00110488 3.39003e-06
0.0202612 0 0.00146953 0.00111899 -0.00330562 -0.000275608
-0.0202614 -2.71051e-20 0.00216708 -0.00145724 0.00123554 5.18912e-06
0.0202614 2.71051e-20 0.0021671 0.00116738 -0.00344738 -0.000449738
-0.020424 0 1.48382e-11 0 0 0
0.0204241 0 1.48336e-11 0 0 0
-0.0204263 -1.35525e-20 8.83618e-05 -2.36205e-06 1.94161e-06 9.8762e-08
0.0204264 0 8.83583e-05 -7.98566e-07 -7.34073e-08 -4.28514e-06
-0.0201258 -2.71051e-20 0.00365147 0 0 0
0.020126 2.03288e-20 0.00365154 0 0 0
-0.0202574 -2.71051e-20 0.00283409 -0.00113946 0.000960046 2.74217e-06
0.0202575 5.42101e-20 0.00283411 0.00087187 -0.00246616 -0.000444536
-0.02023 -1.35525e-20 0.00346726 -0.00037085 0.000321966 -1.84158e-06
0.0202301 -8.13152e-21 0.00346732 0.000304289 -0.000732539 -0.000158089
-0.0205366 0 8.07587e-12 0 0 0
0.0205367 -1.35525e-20 8.0725e-12 0 0 0
-0.0205431 -1.12938e-21 0.000507235 -0.000340778 0.00029385 1.33758e-06
0.0205431 1.12938e-21 0.000507233 0.00030604 -0.000952781 -4.59468e-06
-0.0205806 1.12938e-21 0.00109806 -0.00101729 0.000863446 4.78474e-06
0.0205806 -1.12938e-21 0.00109806 0.000898574 -0.00274371 -0.00014628
-0.0206332 0 7.2332e-05 -1.81434e-06 1.05271e-06 8.07798e-07
0.0206332 0 7.23425e-05 3.72126e-06 1.58774e-06 -3.90778e-06
-0.0206362 0 7.47893e-12 0 0 0
0.0206362 1.35525e-20 7.47568e-12 0 0 0
-0.0203258 -1.35525e-20 0.00371988 0 0 0
0.020326 2.71051e-20 0.00371994 0 0 0
-0.0205919 -2.25875e-21 0.00179229 -0.00145723 0.00123043 6.08988e-06
0.0205919 -3.38813e-21 0.00179229 0.00122614 -0.00367743 -0.000394629
-0.0205776 1.12938e-21 0.00251302 -0.00142567 0.00120107 4.37997e-06
0.0205777 0 0.00251303 0.0011578 -0.00333114 -0.000501921
-0.0204396 1.35525e-20 0.00376155 0 0 0
0.0204398 0 0.00376163 0 0 0
-0.0204726 -1.35525e-20 0.00364922 -0.000245905 0.00019275 -2.9372e-07
0.0204728 4.06576e-20 0.00364928 0.000191908 -0.000465327 -0.000120373
-0.0205732 -1.50584e-21 0.00324396 -0.000838998 0.000703326 1.06512e-06
0.0205733 -2.25875e-21 0.003244 0.000720003 -0.00181541 -0.00035275
-0.0208433 -2.71051e-20 0.000231572 -6.15819e-06 4.39631e-06 1.45957e-06
0.0208434 2.71051e-20 0.000231569 1.16706e-05 1.7464e-06 -1.11555e-05
-0.0208763 -2.71051e-20 0.000747796 -0.000659063 0.000580027 6.8811e-06
0.0208763 0 0.000747794 0.000673739 -0.00202157 -1.86949e-05
-0.0209307 2.71051e-20 0.00137566 -0.00137509 0.00115445 1.21122e-05
0.0209307 2.71051e-20 0.00137566 0.00122149 -0.00377035 -0.000316454
-0.0206256 0 0.00382199 0 0 0
0.0206258 6.77626e-21 0.00382207 0 0 0
-0.0209018 2.71051e-20 0.00213753 -0.0016883 0.00142515 4.32783e-06
0.0209018 -2.71051e-20 0.00213753 0.00138285 -0.00419158 -0.000534492
-0.0207137 0 0.00385276 0 0 0
0.0207138 0 0.00385283 0 0 0
-0.0208885 0 0.00285883 -0.00145418 0.00121439 5.44392e-06
0.0208886 0 0.00285885 0.00120986 -0.0033085 -0.000586915
-0.0207601 -6.77626e-21 0.00376298 -0.000203432 0.000180931 -2.55203e-06
0.0207602 0 0.00376308 0.000241104 -0.0004617 -0.000103603
0.0211429 9.03502e-21 0.0004345 0.000286316 -0.000838975 1.67657e-05
-0.0211429 3.01167e-21 0.000434502 -0.000240666 0.000204307 5.45353e-07
-0.020841 -5.27043e-21 0.00362679 -0.000527279 0.000456512 -4.5105e-06
0.0208411 2.25875e-21 0.00362684 0.000558134 -0.00114958 -0.000262534
-0.0208387 -6.77626e-21 0.00389825 0 0 0
0.0208388 1.35525e-20 0.0038983 0 0 0
-0.0212597 0 5.25669e-13 0 0 0
0.0212601 -1.05879e-20 5.19801e-13 0 0 0
-0.0212767 2.5411e-21 1.41099e-05 -7.86364e-06 6.57548e-06 2.23215e-08
-0.0212768 0 1.74179e-06 -2.44928e-08 2.42714e-08 -1.05889e-08
0.0212769 -8.47033e-21 1.38726e-05 1.01574e-05 -2.7198e-05 9.15511e-07
0.0212813 0 1.45875e-06 3.23644e-08 -8.47747e-08 -1.38663e-07
0.0212895 0 2.69474e-13 0 0 0
-0.0212896 0 2.7104e-13 0 0 0
-0.0212723 -5.64689e-22 0.000878984 -0.000800545 0.000672057 3.92537e-06
0.0212724 -2.25875e-21 0.000878975 0.000793186 -0.002404 -8.75822e-05
-0.0212427 -1.12938e-22 0.00171816 -0.00157969 0.0013283 9.037e-06
0.0212427 9.03502e-22 0.00171814 0.00130791 -0.00416908 -0.00042259
-0.0212146 1.12938e-21 0.00249693 -0.00170828 0.00142752 1.28268e-05
0.0212146 -1.12938e-21 0.00249694 0.00138971 -0.00412145 -0.000591472
-0.0210353 0 0.00398139 0 0 0
0.0210355 0 0.00398146 0 0 0
-0.021178 2.25875e-21 0.00323686 -0.00119178 0.000987857 9.07834e-06
0.0211781 0 0.00323687 0.00104881 -0.00266868 -0.000495347
-0.0210737 1.35525e-20 0.00393726 -0.00011806 9.71723e-05 -5.76509e-07
0.0210738 0 0.00393731 0.000106086 -0.000226146 -5.57501e-05
-0.0211186 1.35525e-20 0.00402021 0 0 0
0.0211188 0 0.0040203 0 0 0
-0.0212476 8.06698e-23 0.00368161 -0.000720033 0.000595737 3.16725e-06
0.0212478 -4.03349e-22 0.00368166 0.000763988 -0.00157118 -0.000320883
-0.0215747 0 0.00130736 -0.00145057 0.00122518 5.62057e-07
0.0215747 2.71051e-20 0.00130737 0.0012071 -0.00410032 -0.000311303
-0.0212486 1.35525e-20 0.00397488 -0.000213482 0.000175416 1.47285e-06
0.0212488 0 0.00397493 0.000243927 -0.000424727 -0.000101531
-0.0212527 1.35525e-20 0.00408538 0 0 0
0.021253 -6.77626e-21 0.00408549 0 0 0
-0.0216407 7.52918e-22 0.00033173 -3.30029e-05 3.20841e-05 1.09215e-05
0.0216408 7.52918e-22 0.000331723 0.000153717 -0.000419358 8.42274e-05
-0.0215441 -2.71051e-20 0.00209926 -0.00191454 0.00160113 1.99702e-05
0.0215442 2.71051e-20 0.00209926 0.00144958 -0.00483854 -0.000575944
-0.0215225 2.71051e-20 0.00284518 -0.00179103 0.00148241 2.16722e-05
0.0215225 0 0.0028452 0.00150884 -0.00419154 -0.000667755
-0.0217961 0 7.94919e-14 0 0 0
0.0217961 1.35525e-20 7.91737e-14 0 0 0
-0.0215506 -2.71051e-20 0.00347094 -0.00122701 0.00101165 1.40985e-05
0.0215507 0 0.00347097 0.00122586 -0.00273705 -0.000534058
-0.0214959 0 0.00395189 -0.000493573 0.000409341 1.14272e-06
0.0214961 1.35525e-20 0.00395193 0.000645026 -0.00105705 -0.000219382
-0.0214983 6.77626e-21 0.00420475 0 0 0
0.0214984 6.77626e-21 0.00420479 0 0 0
-0.0218606 -1.41172e-22 0.00170493 -0.00176155 0.00146789 1.5396e-05
0.0218606 8.9409e-22 0.0017049 0.00134375 -0.00463892 -0.000460331
-0.0219212 -3.38813e-21 0.000827127 -0.000786214 0.00064461 1.04327e-06
0.0219212 4.51751e-22 0.00082711 0.00082152 -0.00254789 -3.56928e-05
-0.0219609 1.35525e-20 4.02034e-14 0 0 0
0.021961 -1.35525e-20 4.01314e-14 0 0 0
-0.0218494 -1.12938e-21 0.00247003 -0.00199434 0.00165277 2.90103e-05
0.0218494 -5.64689e-22 0.00247004 0.00153163 -0.00483152 -0.000645803
-0.0216145 1.35525e-20 0.00413981 -0.000238836 0.000196249 1.64777e-06
0.0216145 1.35525e-20 0.00413983 0.000272879 -0.000475139 -0.000113581
-0.0216502 1.35525e-20 0.00427857 0 0 0
0.0216503 0 0.00427863 0 0 0
-0.0218421 -1.69407e-21 0.00317495 -0.00167124 0.00137502 2.89855e-05
0.0218422 -3.38813e-21 0.00317496 0.0015138 -0.0038343 -0.000634114
-0.0217324 0 0.00431835 0 0 0
0.0217325 0 0.00431843 0 0 0
-0.0217583 -1.35525e-20 0.00423555 -0.000200583 0.000154229 3.14252e-06
0.0217584 1.35525e-20 0.0042356 0.000250167 -0.000386998 -8.67971e-05
-0.0221733 0 2.81576e-14 0 0 0
0.0221735 -6.77626e-21 2.80965e-14 0 0 0
-0.021866 7.05861e-23 0.00385234 -0.000902333 0.000740283 1.63241e-05
0.0218668 0 0.00385247 0.00102245 -0.00198792 -0.000366646
-0.0222021 -2.71051e-20 0.00129532 -0.00154396 0.00127324 7.34029e-06
0.0222022 -2.71051e-20 0.00129532 0.00120764 -0.00435092 -0.00033004
0.0222506 -7.05861e-23 0.000330091 0.000346997 -0.000718222 0.000117737
-0.0222517 -3.5293e-23 0.000328747 -8.97075e-06 -9.82147e-06 8.89511e-06
-0.0221694 5.42101e-20 0.00208071 -0.00214471 0.00177593 3.40984e-05
0.0221694 0 0.00208072 0.00144317 -0.00531684 -0.000608277
-0.0218631 -1.35525e-20 0.00438174 0 0 0
0.0218633 1.35525e-20 0.00438183 0 0 0
0.0223211 0 1.21342e-14 0 0 0
-0.0223212 6.77626e-21 1.21355e-14 0 0 0
-0.0221597 -5.42101e-20 0.00282094 -0.00213063 0.00175475 4.01658e-05
0.0221598 0 0.00282094 0.00171287 -0.00499197 -0.000728661
-0.0221457 -2.71051e-20 0.00350913 -0.00161208 0.00131266 4.22262e-05
0.0221457 2.71051e-20 0.00350915 0.00161417 -0.00357875 -0.000626478
-0.0220148 -2.03288e-20 0.00445531 0 0 0
0.0220149 6.77626e-21 0.00445537 0 0 0
-0.0225415 0 1.22277e-15 0 0 0
0.0225416 0 1.23378e-15 0 0 0
-0.0221394 0 0.00425961 -0.000495672 0.000426357 7.14007e-06
0.0221395 1.12938e-21 0.00425967 0.000724142 -0.00114939 -0.000216488
-0.0224964 -2.96462e-20 0.00168456 -0.00191176 0.00157475 2.65459e-05
0.0224964 -4.23516e-22 0.0016846 0.00133894 -0.00505113 -0.000482806
-0.0225021 0 0.00168479 -0.00191561 0.00157794 2.68814e-05
0.0225021 0 0.00168483 0.0013405 -0.0050579 -0.000484138
0.0225129 0 0.00168799 0.00133924 -0.00506499 -0.000484846
-0.022513 0 0.00168798 -0.00191832 0.00158005 2.71544e-05
-0.022576 5.42101e-21 0.000874276 -0.000880866 0.000714577 -6.13377e-07
0.0225761 4.51751e-21 0.000874269 0.000949315 -0.00292439 -4.61114e-05
-0.0225135 -1.6134e-22 0.00242345 -0.00221931 0.00182742 4.42244e-05
0.0225136 8.87368e-22 0.00242345 0.00164294 -0.00537669 -0.000666756
-0.0224593 -1.12938e-21 0.00318123 -0.0020388 0.0016655 4.84406e-05
0.0224593 0 0.00318124 0.00180569 -0.00463865 -0.000714633
-0.0223019 -3.38813e-21 0.00459436 0 0 0
0.022302 -3.38813e-21 0.00459437 0 0 0
-0.0224349 -9.03502e-22 0.00390505 -0.00124936 0.00101838 3.68568e-05
0.022435 6.77626e-21 0.00390508 0.00139369 -0.00271536 -0.000472656
-0.0228059 -1.27055e-20 8.70915e-16 0 0 0
0.0228061 4.23516e-22 8.77264e-16 0 0 0
-0.022811 -8.47033e-22 2.46647e-05 -9.08878e-07 6.96817e-07 1.87486e-06
0.0228111 0 2.39222e-05 3.2088e-05 -4.98651e-05 1.0627e-05
-0.0223412 0 0.00461337 0 0 0
0.0223413 3.38813e-21 0.00461342 0 0 0
0.0228141 4.23516e-22 8.58194e-16 0 0 0
-0.0228142 2.5411e-20 8.51408e-16 0 0 0
-0.0228118 -5.64689e-22 0.000334117 -9.97956e-05 8.21736e-05 1.92297e-05
0.0228118 5.64689e-22 0.000334137 0.00043789 -0.000852492 0.000108579
-0.022347 0 0.00460685 -1.9791e-05 1.61747e-05 1.67029e-07
0.0223471 0 0.00460689 2.57044e-05 -3.89134e-05 -7.60548e-06
-0.0223545 0 0.00461977 0 0 0
0.0223546 0 0.00461984 0 0 0
-0.0223623 -3.38813e-21 0.00458505 -7.558e-05 6.19041e-05 2.45274e-06
0.0223624 1.69407e-21 0.00458505 9.38236e-05 -0.000157852 -2.91028e-05
-0.0223809 0 0.0046121 -4.24327e-05 3.5011e-05 2.04384e-06
0.022381 0 0.00461216 6.3776e-05 -8.91457e-05 -1.0166e-05
-0.0223957 -1.69407e-21 0.00463972 0 0 0
0.0223958 0 0.00463983 0 0 0
-0.0225314 1.35525e-20 0.00433167 -0.000748637 0.000624665 2.26375e-05
0.0225315 0 0.00433171 0.00107922 -0.0016287 -0.000272663
-0.0227767 -2.71051e-20 0.00282452 -0.0024253 0.00198758 5.52663e-05
0.0227767 0 0.00282454 0.00186652 -0.00563012 -0.000772489
-0.0229169 2.71051e-20 0.00145351 -0.00189795 0.00154973 2.99293e-05
0.022917 0 0.00145354 0.00104127 -0.00505988 -0.000516004
-0.0229127 2.71051e-20 0.001952 -0.00225952 0.00185679 5.30778e-05
0.0229127 0 0.001952 0.00123878 -0.00567122 -0.000586758
-0.0227583 0 0.00352775 -0.00201602 0.00163196 5.63054e-05
0.0227583 -2.71051e-20 0.00352777 0.00202201 -0.00442962 -0.00073379
-0.0226788 1.35525e-20 0.00436549 -0.000814431 0.000676048 3.15609e-05
0.0226789 -6.77626e-21 0.00436553 0.00117123 -0.00175774 -0.000280445
-0.0231146 0 6.24631e-16 0 0 0
0.0231146 0 6.26477e-16 0 0 0
-0.0231263 5.64689e-22 0.000857356 -0.000825039 0.000674414 1.07776e-05
0.0231264 1.12938e-21 0.000857382 0.00099739 -0.00296802 -6.28778e-05
-0.0231204 0 0.00168686 -0.00209819 0.00172192 4.38923e-05
0.0231204 0 0.00168687 0.00121463 -0.00546104 -0.000547755
-0.0226912 0 0.00478277 0 0 0
0.0226912 1.35525e-20 0.00478283 0 0 0
-0.0231332 4.23516e-22 0.00244156 -0.00249217 0.00203589 6.2061e-05
0.0231332 -8.47033e-22 0.00244157 0.00172823 -0.00595188 -0.000730253
-0.0227888 -1.35525e-20 0.00466799 -0.000335863 0.000277118 1.61774e-05
0.0227889 -1.35525e-20 0.00466803 0.000503905 -0.000704355 -8.03232e-05
-0.0230834 -1.12938e-21 0.00317456 -0.00239522 0.00194223 6.75999e-05
0.0230835 1.12938e-21 0.00317458 0.00204314 -0.00536139 -0.000799523
-0.023319 0 3.10972e-16 0 0 0
0.0233191 6.77626e-21 3.12101e-16 0 0 0
-0.0230283 9.03502e-21 0.00391292 -0.00171245 0.00137143 6.27264e-05
0.0230284 0 0.00391294 0.00188793 -0.00362935 -0.000631668
-0.02333 2.71051e-20 0.00142276 -0.0019283 0.00158744 4.3077e-05
0.02333 0 0.00142278 0.000995132 -0.00512475 -0.000527615
-0.0233168 0 0.00194192 -0.00239152 0.00196103 5.83051e-05
0.0233168 2.71051e-20 0.00194194 0.00117768 -0.0059047 -0.000635029
-0.0228965 -2.71051e-20 0.0048822 0 0 0
0.0228966 0 0.00488226 0 0 0
-0.0234102 2.25875e-21 0.000267243 -1.81168e-05 1.76271e-05 2.30757e-05
0.0234102 -4.51751e-21 0.000267244 0.000503813 -0.00101105 7.63294e-05
-0.0229986 7.52918e-22 0.0043906 -0.00105369 0.000839811 4.36081e-05
0.0229987 -3.76459e-21 0.00439064 0.0014726 -0.00220903 -0.000372825
0.0235162 1.35525e-20 1.75957e-16 0 0 0
-0.0235162 6.77626e-21 1.74954e-16 0 0 0
-0.0234234 2.71051e-20 0.00278585 -0.00272717 0.0022119 7.53847e-05
0.0234234 0 0.00278586 0.00195687 -0.0062204 -0.000854368
-0.0230651 1.35525e-20 0.00496382 0 0 0
0.0230652 -2.71051e-20 0.00496388 0 0 0
-0.0233787 2.71051e-20 0.00352562 -0.00242367 0.00194818 8.2416e-05
0.0233787 -2.71051e-20 0.00352564 0.0023451 -0.00522849 -0.000828951
-0.0237161 1.35525e-20 -1.12817e-16 0 0 0
0.0237161 1.35525e-20 -1.126e-16 0 0 0
-0.0232668 -3.61401e-21 0.00471662 -0.000726811 0.000573701 3.09762e-05
0.0232669 -1.35525e-21 0.00471667 0.00118468 -0.00152588 -0.000231021
-0.0233857 2.71051e-20 0.00417634 -0.00172445 0.00135378 7.44837e-05
0.0233857 -2.71051e-20 0.00417637 0.00224018 -0.00356734 -0.000666336
-0.0232203 -6.77626e-21 0.00503892 0 0 0
0.0232204 -1.35525e-20 0.00503899 0 0 0