# Force       
# CofR        : (0.000000e+00 0.000000e+00 0.000000e+00)
#
# Time        	(total_x total_y total_z)	(pressure_x pressure_y pressure_z)	(viscous_x viscous_y viscous_z)
2532.01       	(3.403672e-01 -1.222272e-05 8.702264e-02)	(3.341946e-01 -1.018489e-05 8.636480e-02)	(6.172595e-03 -2.037831e-06 6.578309e-04)
2532.01       	(3.403609e-01 -1.374868e-05 8.703979e-02)	(3.341883e-01 -1.170469e-05 8.638194e-02)	(6.172604e-03 -2.043989e-06 6.578529e-04)
2532.02       	(3.403681e-01 -1.222563e-05 8.702352e-02)	(3.341955e-01 -1.017783e-05 8.636566e-02)	(6.172617e-03 -2.047801e-06 6.578599e-04)
2532.02       	(3.403618e-01 -1.375245e-05 8.704062e-02)	(3.341892e-01 -1.169851e-05 8.638274e-02)	(6.172625e-03 -2.053949e-06 6.578816e-04)
2532.03       	(3.403690e-01 -1.222791e-05 8.702438e-02)	(3.341963e-01 -1.017016e-05 8.636649e-02)	(6.172638e-03 -2.057749e-06 6.578883e-04)
2532.03       	(3.403628e-01 -1.375499e-05 8.704143e-02)	(3.341902e-01 -1.169110e-05 8.638352e-02)	(6.172647e-03 -2.063887e-06 6.579096e-04)
2532.04       	(3.403699e-01 -1.222914e-05 8.702522e-02)	(3.341972e-01 -1.016146e-05 8.636730e-02)	(6.172660e-03 -2.067675e-06 6.579160e-04)
2532.04       	(3.403638e-01 -1.375792e-05 8.704223e-02)	(3.341911e-01 -1.168412e-05 8.638429e-02)	(6.172668e-03 -2.073803e-06 6.579371e-04)
2532.05       	(3.403708e-01 -1.223108e-05 8.702603e-02)	(3.341981e-01 -1.015349e-05 8.636809e-02)	(6.172681e-03 -2.077581e-06 6.579432e-04)
2532.05       	(3.403647e-01 -1.376071e-05 8.704300e-02)	(3.341920e-01 -1.167701e-05 8.638504e-02)	(6.172690e-03 -2.083699e-06 6.579638e-04)
2532.06       	(3.403717e-01 -1.223313e-05 8.702682e-02)	(3.341990e-01 -1.014566e-05 8.636885e-02)	(6.172702e-03 -2.087467e-06 6.579696e-04)
2532.06       	(3.403657e-01 -1.376302e-05 8.704376e-02)	(3.341930e-01 -1.166944e-05 8.638577e-02)	(6.172711e-03 -2.093576e-06 6.579900e-04)
2532.07       	(3.403726e-01 -1.223425e-05 8.702760e-02)	(3.341999e-01 -1.013692e-05 8.636960e-02)	(6.172724e-03 -2.097332e-06 6.579954e-04)
2532.07       	(3.403666e-01 -1.376382e-05 8.704450e-02)	(3.341939e-01 -1.166039e-05 8.638648e-02)	(6.172732e-03 -2.103429e-06 6.580154e-04)
2532.08       	(3.403736e-01 -1.223457e-05 8.702835e-02)	(3.342008e-01 -1.012739e-05 8.637033e-02)	(6.172745e-03 -2.107172e-06 6.580205e-04)
2532.08       	(3.403676e-01 -1.376387e-05 8.704522e-02)	(3.341948e-01 -1.165061e-05 8.638718e-02)	(6.172753e-03 -2.113257e-06 6.580401e-04)
2532.09       	(3.403745e-01 -1.223434e-05 8.702907e-02)	(3.342017e-01 -1.011735e-05 8.637103e-02)	(6.172766e-03 -2.116986e-06 6.580448e-04)
2532.09       	(3.403685e-01 -1.376389e-05 8.704592e-02)	(3.341957e-01 -1.164083e-05 8.638786e-02)	(6.172774e-03 -2.123061e-06 6.580641e-04)
2532.1        	(3.403754e-01 -1.223409e-05 8.702978e-02)	(3.342026e-01 -1.010731e-05 8.637171e-02)	(6.172787e-03 -2.126777e-06 6.580685e-04)
2532.1        	(3.403694e-01 -1.376299e-05 8.704661e-02)	(3.341966e-01 -1.163015e-05 8.638852e-02)	(6.172795e-03 -2.132840e-06 6.580874e-04)
2532.11       	(3.403764e-01 -1.223317e-05 8.703046e-02)	(3.342036e-01 -1.009662e-05 8.637237e-02)	(6.172808e-03 -2.136543e-06 6.580914e-04)
2532.11       	(3.403704e-01 -1.376178e-05 8.704728e-02)	(3.341976e-01 -1.161919e-05 8.638917e-02)	(6.172816e-03 -2.142595e-06 6.581099e-04)
2532.12       	(3.403773e-01 -1.223211e-05 8.703112e-02)	(3.342045e-01 -1.008582e-05 8.637301e-02)	(6.172828e-03 -2.146284e-06 6.581136e-04)
2532.12       	(3.403713e-01 -1.376052e-05 8.704793e-02)	(3.341985e-01 -1.160820e-05 8.638979e-02)	(6.172836e-03 -2.152325e-06 6.581318e-04)
2532.13       	(3.403782e-01 -1.223031e-05 8.703176e-02)	(3.342054e-01 -1.007431e-05 8.637363e-02)	(6.172848e-03 -2.155999e-06 6.581351e-04)
2532.13       	(3.403722e-01 -1.375870e-05 8.704856e-02)	(3.341993e-01 -1.159667e-05 8.639041e-02)	(6.172856e-03 -2.162029e-06 6.581529e-04)
2532.14       	(3.403792e-01 -1.222789e-05 8.703238e-02)	(3.342063e-01 -1.006220e-05 8.637423e-02)	(6.172868e-03 -2.165688e-06 6.581559e-04)
2532.15       	(3.403731e-01 -1.375658e-05 8.704919e-02)	(3.342002e-01 -1.158487e-05 8.639102e-02)	(6.172876e-03 -2.171707e-06 6.581734e-04)
2532.15       	(3.403801e-01 -1.222439e-05 8.703298e-02)	(3.342072e-01 -1.004904e-05 8.637481e-02)	(6.172888e-03 -2.175349e-06 6.581759e-04)
2532.16       	(3.403740e-01 -1.375401e-05 8.704981e-02)	(3.342011e-01 -1.157265e-05 8.639162e-02)	(6.172896e-03 -2.181357e-06 6.581931e-04)
2532.16       	(3.403810e-01 -1.222032e-05 8.703356e-02)	(3.342081e-01 -1.003533e-05 8.637537e-02)	(6.172907e-03 -2.184981e-06 6.581953e-04)
2532.17       	(3.403748e-01 -1.375180e-05 8.705042e-02)	(3.342019e-01 -1.156082e-05 8.639220e-02)	(6.172915e-03 -2.190979e-06 6.582122e-04)
2532.17       	(3.403819e-01 -1.221597e-05 8.703412e-02)	(3.342090e-01 -1.002139e-05 8.637590e-02)	(6.172926e-03 -2.194584e-06 6.582140e-04)
2532.18       	(3.403758e-01 -1.374553e-05 8.705102e-02)	(3.342029e-01 -1.154496e-05 8.639279e-02)	(6.172934e-03 -2.200569e-06 6.582306e-04)
2532.18       	(3.403828e-01 -1.221490e-05 8.703465e-02)	(3.342099e-01 -1.001075e-05 8.637642e-02)	(6.172945e-03 -2.204155e-06 6.582321e-04)
2532.19       	(3.403766e-01 -1.374442e-05 8.705160e-02)	(3.342037e-01 -1.153429e-05 8.639336e-02)	(6.172952e-03 -2.210133e-06 6.582483e-04)
2532.19       	(3.403837e-01 -1.220870e-05 8.703517e-02)	(3.342107e-01 -9.995007e-06 8.637692e-02)	(6.172963e-03 -2.213697e-06 6.582495e-04)
2532.2        	(3.403774e-01 -1.374252e-05 8.705218e-02)	(3.342044e-01 -1.152285e-05 8.639391e-02)	(6.172970e-03 -2.219668e-06 6.582654e-04)
2532.2        	(3.403846e-01 -1.220084e-05 8.703568e-02)	(3.342116e-01 -9.977636e-06 8.637741e-02)	(6.172981e-03 -2.223206e-06 6.582662e-04)
2532.21       	(3.403782e-01 -1.374164e-05 8.705275e-02)	(3.342052e-01 -1.151247e-05 8.639446e-02)	(6.172988e-03 -2.229171e-06 6.582819e-04)
2532.21       	(3.403854e-01 -1.219122e-05 8.703616e-02)	(3.342124e-01 -9.958540e-06 8.637788e-02)	(6.172998e-03 -2.232682e-06 6.582824e-04)
2532.22       	(3.403790e-01 -1.374103e-05 8.705331e-02)	(3.342060e-01 -1.150239e-05 8.639501e-02)	(6.173005e-03 -2.238643e-06 6.582978e-04)
2532.22       	(3.403862e-01 -1.217962e-05 8.703662e-02)	(3.342132e-01 -9.937493e-06 8.637833e-02)	(6.173015e-03 -2.242124e-06 6.582980e-04)
2532.23       	(3.403797e-01 -1.374125e-05 8.705387e-02)	(3.342067e-01 -1.149317e-05 8.639555e-02)	(6.173022e-03 -2.248083e-06 6.583132e-04)
2532.23       	(3.403871e-01 -1.216598e-05 8.703707e-02)	(3.342140e-01 -9.914447e-06 8.637875e-02)	(6.173032e-03 -2.251530e-06 6.583130e-04)
2532.24       	(3.403805e-01 -1.374201e-05 8.705442e-02)	(3.342074e-01 -1.148452e-05 8.639609e-02)	(6.173038e-03 -2.257490e-06 6.583280e-04)
2532.24       	(3.403878e-01 -1.214544e-05 8.703748e-02)	(3.342148e-01 -9.884540e-06 8.637916e-02)	(6.173048e-03 -2.260896e-06 6.583275e-04)
2532.25       	(3.403812e-01 -1.374578e-05 8.705498e-02)	(3.342082e-01 -1.147892e-05 8.639664e-02)	(6.173054e-03 -2.266864e-06 6.583423e-04)
2532.25       	(3.403886e-01 -1.212859e-05 8.703788e-02)	(3.342155e-01 -9.858359e-06 8.637954e-02)	(6.173064e-03 -2.270230e-06 6.583415e-04)
2532.26       	(3.403819e-01 -1.375013e-05 8.705554e-02)	(3.342089e-01 -1.147393e-05 8.639719e-02)	(6.173070e-03 -2.276206e-06 6.583561e-04)
2532.26       	(3.403894e-01 -1.210517e-05 8.703824e-02)	(3.342163e-01 -9.825641e-06 8.637988e-02)	(6.173080e-03 -2.279526e-06 6.583549e-04)
2532.27       	(3.403827e-01 -1.375814e-05 8.705612e-02)	(3.342096e-01 -1.147263e-05 8.639775e-02)	(6.173085e-03 -2.285515e-06 6.583694e-04)
2532.27       	(3.403901e-01 -1.207624e-05 8.703856e-02)	(3.342170e-01 -9.787459e-06 8.638020e-02)	(6.173095e-03 -2.288784e-06 6.583679e-04)
2532.28       	(3.403834e-01 -1.376687e-05 8.705670e-02)	(3.342103e-01 -1.147208e-05 8.639831e-02)	(6.173100e-03 -2.294790e-06 6.583823e-04)
2532.28       	(3.403909e-01 -1.204035e-05 8.703886e-02)	(3.342178e-01 -9.742342e-06 8.638048e-02)	(6.173109e-03 -2.298004e-06 6.583804e-04)
2532.29       	(3.403850e-01 -1.377865e-05 8.705719e-02)	(3.342119e-01 -1.147463e-05 8.639879e-02)	(6.173114e-03 -2.304025e-06 6.583947e-04)
2532.3        	(3.403907e-01 -1.198310e-05 8.703919e-02)	(3.342175e-01 -9.675924e-06 8.638080e-02)	(6.173124e-03 -2.307181e-06 6.583925e-04)
2532.3        	(3.403857e-01 -1.380157e-05 8.705781e-02)	(3.342125e-01 -1.148833e-05 8.639940e-02)	(6.173128e-03 -2.313238e-06 6.584067e-04)
2532.31       	(3.403915e-01 -1.193889e-05 8.703939e-02)	(3.342184e-01 -9.622567e-06 8.638099e-02)	(6.173138e-03 -2.316325e-06 6.584041e-04)
2532.31       	(3.403863e-01 -1.382356e-05 8.705844e-02)	(3.342132e-01 -1.150114e-05 8.640002e-02)	(6.173142e-03 -2.322419e-06 6.584183e-04)
2532.32       	(3.403922e-01 -1.188174e-05 8.703961e-02)	(3.342191e-01 -9.556321e-06 8.638120e-02)	(6.173151e-03 -2.325421e-06 6.584154e-04)
2532.32       	(3.403870e-01 -1.385411e-05 8.705902e-02)	(3.342138e-01 -1.152254e-05 8.640059e-02)	(6.173155e-03 -2.331566e-06 6.584295e-04)
2532.33       	(3.403929e-01 -1.182487e-05 8.703982e-02)	(3.342198e-01 -9.490391e-06 8.638139e-02)	(6.173165e-03 -2.334481e-06 6.584262e-04)
2532.33       	(3.403878e-01 -1.389204e-05 8.705961e-02)	(3.342146e-01 -1.155136e-05 8.640117e-02)	(6.173168e-03 -2.340688e-06 6.584404e-04)
2532.34       	(3.403934e-01 -1.176065e-05 8.703999e-02)	(3.342202e-01 -9.417144e-06 8.638156e-02)	(6.173178e-03 -2.343502e-06 6.584367e-04)
2532.34       	(3.403886e-01 -1.393974e-05 8.706023e-02)	(3.342154e-01 -1.158996e-05 8.640178e-02)	(6.173181e-03 -2.349783e-06 6.584509e-04)
2532.35       	(3.403940e-01 -1.167818e-05 8.704011e-02)	(3.342208e-01 -9.325711e-06 8.638167e-02)	(6.173190e-03 -2.352471e-06 6.584468e-04)
2532.35       	(3.403891e-01 -1.400422e-05 8.706089e-02)	(3.342159e-01 -1.164537e-05 8.640243e-02)	(6.173193e-03 -2.358853e-06 6.584611e-04)
2532.36       	(3.403949e-01 -1.158798e-05 8.704016e-02)	(3.342217e-01 -9.226574e-06 8.638170e-02)	(6.173203e-03 -2.361403e-06 6.584565e-04)
2532.36       	(3.403895e-01 -1.406782e-05 8.706160e-02)	(3.342163e-01 -1.169994e-05 8.640312e-02)	(6.173205e-03 -2.367886e-06 6.584709e-04)
2532.37       	(3.403955e-01 -1.151017e-05 8.704016e-02)	(3.342223e-01 -9.139866e-06 8.638169e-02)	(6.173215e-03 -2.370309e-06 6.584659e-04)
2532.37       	(3.403899e-01 -1.412415e-05 8.706231e-02)	(3.342167e-01 -1.174726e-05 8.640383e-02)	(6.173217e-03 -2.376885e-06 6.584805e-04)
2532.38       	(3.403964e-01 -1.142241e-05 8.704012e-02)	(3.342232e-01 -9.043249e-06 8.638165e-02)	(6.173226e-03 -2.379164e-06 6.584749e-04)
2532.38       	(3.403902e-01 -1.417291e-05 8.706294e-02)	(3.342170e-01 -1.178709e-05 8.640445e-02)	(6.173229e-03 -2.385821e-06 6.584896e-04)
2532.39       	(3.403971e-01 -1.138295e-05 8.704030e-02)	(3.342238e-01 -8.994914e-06 8.638181e-02)	(6.173238e-03 -2.388039e-06 6.584837e-04)
2532.39       	(3.403905e-01 -1.417428e-05 8.706333e-02)	(3.342173e-01 -1.177958e-05 8.640483e-02)	(6.173240e-03 -2.394695e-06 6.584983e-04)
2532.4        	(3.403979e-01 -1.137109e-05 8.704059e-02)	(3.342246e-01 -8.974196e-06 8.638210e-02)	(6.173249e-03 -2.396897e-06 6.584923e-04)
2532.4        	(3.403911e-01 -1.416004e-05 8.706365e-02)	(3.342178e-01 -1.175651e-05 8.640514e-02)	(6.173251e-03 -2.403531e-06 6.585068e-04)
2532.41       	(3.403984e-01 -1.136392e-05 8.704088e-02)	(3.342252e-01 -8.958200e-06 8.638238e-02)	(6.173260e-03 -2.405723e-06 6.585005e-04)
2532.41       	(3.403916e-01 -1.414560e-05 8.706396e-02)	(3.342183e-01 -1.173327e-05 8.640544e-02)	(6.173262e-03 -2.412334e-06 6.585148e-04)
2532.42       	(3.403990e-01 -1.135627e-05 8.704116e-02)	(3.342257e-01 -8.941752e-06 8.638265e-02)	(6.173271e-03 -2.414515e-06 6.585084e-04)
2532.42       	(3.403921e-01 -1.413098e-05 8.706425e-02)	(3.342189e-01 -1.170988e-05 8.640573e-02)	(6.173272e-03 -2.421104e-06 6.585226e-04)
2532.43       	(3.403996e-01 -1.134846e-05 8.704143e-02)	(3.342263e-01 -8.925185e-06 8.638291e-02)	(6.173282e-03 -2.423273e-06 6.585160e-04)
2532.44       	(3.403927e-01 -1.411676e-05 8.706454e-02)	(3.342194e-01 -1.168692e-05 8.640601e-02)	(6.173283e-03 -2.429841e-06 6.585300e-04)
2532.44       	(3.404001e-01 -1.134022e-05 8.704167e-02)	(3.342268e-01 -8.908223e-06 8.638315e-02)	(6.173292e-03 -2.431998e-06 6.585233e-04)
2532.45       	(3.403932e-01 -1.410233e-05 8.706481e-02)	(3.342199e-01 -1.166379e-05 8.640627e-02)	(6.173293e-03 -2.438545e-06 6.585372e-04)
2532.45       	(3.404007e-01 -1.133145e-05 8.704191e-02)	(3.342274e-01 -8.890757e-06 8.638338e-02)	(6.173302e-03 -2.440690e-06 6.585302e-04)
2532.46       	(3.403937e-01 -1.408779e-05 8.706507e-02)	(3.342204e-01 -1.164057e-05 8.640653e-02)	(6.173303e-03 -2.447215e-06 6.585440e-04)
2532.46       	(3.404012e-01 -1.132260e-05 8.704213e-02)	(3.342279e-01 -8.873254e-06 8.638359e-02)	(6.173312e-03 -2.449348e-06 6.585369e-04)
2532.47       	(3.403942e-01 -1.407353e-05 8.706532e-02)	(3.342209e-01 -1.161768e-05 8.640677e-02)	(6.173313e-03 -2.455852e-06 6.585504e-04)
2532.47       	(3.404018e-01 -1.131356e-05 8.704234e-02)	(3.342284e-01 -8.855588e-06 8.638379e-02)	(6.173322e-03 -2.457974e-06 6.585431e-04)
2532.48       	(3.403949e-01 -1.405738e-05 8.706555e-02)	(3.342216e-01 -1.159292e-05 8.640700e-02)	(6.173323e-03 -2.464456e-06 6.585566e-04)
2532.48       	(3.404021e-01 -1.130583e-05 8.704252e-02)	(3.342288e-01 -8.839258e-06 8.638398e-02)	(6.173332e-03 -2.466567e-06 6.585491e-04)
2532.49       	(3.403954e-01 -1.404297e-05 8.706577e-02)	(3.342221e-01 -1.156994e-05 8.640721e-02)	(6.173333e-03 -2.473029e-06 6.585623e-04)
2532.49       	(3.404026e-01 -1.129631e-05 8.704270e-02)	(3.342293e-01 -8.821181e-06 8.638414e-02)	(6.173341e-03 -2.475128e-06 6.585547e-04)
2532.5        	(3.403959e-01 -1.402866e-05 8.706598e-02)	(3.342225e-01 -1.154709e-05 8.640741e-02)	(6.173342e-03 -2.481570e-06 6.585678e-04)
2532.5        	(3.404032e-01 -1.128669e-05 8.704285e-02)	(3.342298e-01 -8.803031e-06 8.638429e-02)	(6.173351e-03 -2.483657e-06 6.585599e-04)
2532.51       	(3.403963e-01 -1.401432e-05 8.706617e-02)	(3.342230e-01 -1.152424e-05 8.640760e-02)	(6.173351e-03 -2.490079e-06 6.585729e-04)
2532.51       	(3.404037e-01 -1.127703e-05 8.704299e-02)	(3.342303e-01 -8.784876e-06 8.638442e-02)	(6.173360e-03 -2.492154e-06 6.585648e-04)
2532.52       	(3.403967e-01 -1.399965e-05 8.706635e-02)	(3.342234e-01 -1.150109e-05 8.640778e-02)	(6.173360e-03 -2.498557e-06 6.585776e-04)
2532.52       	(3.404042e-01 -1.126695e-05 8.704310e-02)	(3.342308e-01 -8.766329e-06 8.638453e-02)	(6.173369e-03 -2.500620e-06 6.585693e-04)
2532.53       	(3.403972e-01 -1.398423e-05 8.706652e-02)	(3.342238e-01 -1.147723e-05 8.640794e-02)	(6.173369e-03 -2.507002e-06 6.585819e-04)
2532.53       	(3.404047e-01 -1.125735e-05 8.704320e-02)	(3.342313e-01 -8.748300e-06 8.638463e-02)	(6.173378e-03 -2.509053e-06 6.585734e-04)
2532.54       	(3.403976e-01 -1.396936e-05 8.706667e-02)	(3.342242e-01 -1.145395e-05 8.640809e-02)	(6.173378e-03 -2.515417e-06 6.585859e-04)
2532.54       	(3.404052e-01 -1.124786e-05 8.704328e-02)	(3.342318e-01 -8.730399e-06 8.638471e-02)	(6.173387e-03 -2.517457e-06 6.585772e-04)
2532.55       	(3.403980e-01 -1.395474e-05 8.706680e-02)	(3.342246e-01 -1.143093e-05 8.640821e-02)	(6.173387e-03 -2.523803e-06 6.585895e-04)
2532.55       	(3.404057e-01 -1.123776e-05 8.704336e-02)	(3.342323e-01 -8.711929e-06 8.638478e-02)	(6.173395e-03 -2.525831e-06 6.585805e-04)
2532.56       	(3.403984e-01 -1.393999e-05 8.706691e-02)	(3.342250e-01 -1.140784e-05 8.640832e-02)	(6.173396e-03 -2.532159e-06 6.585927e-04)
2532.56       	(3.404062e-01 -1.122750e-05 8.704341e-02)	(3.342328e-01 -8.693322e-06 8.638483e-02)	(6.173404e-03 -2.534175e-06 6.585835e-04)
2532.57       	(3.403988e-01 -1.392497e-05 8.706701e-02)	(3.342254e-01 -1.138448e-05 8.640841e-02)	(6.173404e-03 -2.540485e-06 6.585954e-04)
2532.58       	(3.404066e-01 -1.121680e-05 8.704345e-02)	(3.342332e-01 -8.674309e-06 8.638486e-02)	(6.173412e-03 -2.542489e-06 6.585860e-04)
2532.58       	(3.403992e-01 -1.390951e-05 8.706709e-02)	(3.342258e-01 -1.136073e-05 8.640849e-02)	(6.173412e-03 -2.548781e-06 6.585978e-04)
2532.59       	(3.404071e-01 -1.120569e-05 8.704346e-02)	(3.342337e-01 -8.654914e-06 8.638487e-02)	(6.173420e-03 -2.550772e-06 6.585882e-04)
2532.59       	(3.403996e-01 -1.389425e-05 8.706715e-02)	(3.342262e-01 -1.133721e-05 8.640855e-02)	(6.173420e-03 -2.557047e-06 6.585997e-04)
2532.6        	(3.404075e-01 -1.119461e-05 8.704346e-02)	(3.342341e-01 -8.635586e-06 8.638487e-02)	(6.173428e-03 -2.559025e-06 6.585899e-04)
2532.6        	(3.404000e-01 -1.387937e-05 8.706719e-02)	(3.342266e-01 -1.131409e-05 8.640859e-02)	(6.173428e-03 -2.565284e-06 6.586012e-04)
2532.61       	(3.404080e-01 -1.118303e-05 8.704344e-02)	(3.342345e-01 -8.615781e-06 8.638485e-02)	(6.173436e-03 -2.567250e-06 6.585911e-04)
2532.61       	(3.404004e-01 -1.386386e-05 8.706722e-02)	(3.342269e-01 -1.129037e-05 8.640862e-02)	(6.173436e-03 -2.573491e-06 6.586023e-04)
2532.62       	(3.404084e-01 -1.117129e-05 8.704340e-02)	(3.342350e-01 -8.595844e-06 8.638481e-02)	(6.173444e-03 -2.575445e-06 6.585919e-04)
2532.62       	(3.404007e-01 -1.384775e-05 8.706723e-02)	(3.342272e-01 -1.126608e-05 8.640863e-02)	(6.173443e-03 -2.581669e-06 6.586029e-04)
2532.63       	(3.404089e-01 -1.115969e-05 8.704334e-02)	(3.342354e-01 -8.576082e-06 8.638475e-02)	(6.173451e-03 -2.583612e-06 6.585923e-04)
2532.63       	(3.404010e-01 -1.383160e-05 8.706722e-02)	(3.342275e-01 -1.124178e-05 8.640862e-02)	(6.173451e-03 -2.589819e-06 6.586031e-04)
2532.64       	(3.404093e-01 -1.114804e-05 8.704326e-02)	(3.342358e-01 -8.556291e-06 8.638467e-02)	(6.173458e-03 -2.591750e-06 6.585923e-04)
2532.64       	(3.404013e-01 -1.381505e-05 8.706720e-02)	(3.342279e-01 -1.121711e-05 8.640860e-02)	(6.173458e-03 -2.597940e-06 6.586029e-04)
2532.65       	(3.404097e-01 -1.113628e-05 8.704317e-02)	(3.342362e-01 -8.536416e-06 8.638457e-02)	(6.173466e-03 -2.599860e-06 6.585917e-04)
2532.65       	(3.404016e-01 -1.379848e-05 8.706716e-02)	(3.342282e-01 -1.119245e-05 8.640856e-02)	(6.173465e-03 -2.606034e-06 6.586022e-04)
2532.66       	(3.404101e-01 -1.112394e-05 8.704305e-02)	(3.342366e-01 -8.516003e-06 8.638446e-02)	(6.173472e-03 -2.607942e-06 6.585908e-04)
2532.66       	(3.404019e-01 -1.378165e-05 8.706710e-02)	(3.342285e-01 -1.116755e-05 8.640850e-02)	(6.173472e-03 -2.614100e-06 6.586010e-04)
2532.67       	(3.404105e-01 -1.111136e-05 8.704291e-02)	(3.342370e-01 -8.495359e-06 8.638432e-02)	(6.173479e-03 -2.615997e-06 6.585893e-04)
2532.67       	(3.404022e-01 -1.376538e-05 8.706702e-02)	(3.342288e-01 -1.114324e-05 8.640843e-02)	(6.173478e-03 -2.622139e-06 6.585994e-04)
2532.68       	(3.404109e-01 -1.109789e-05 8.704276e-02)	(3.342374e-01 -8.473866e-06 8.638417e-02)	(6.173486e-03 -2.624024e-06 6.585875e-04)
2532.68       	(3.404025e-01 -1.374856e-05 8.706693e-02)	(3.342290e-01 -1.111841e-05 8.640833e-02)	(6.173485e-03 -2.630150e-06 6.585973e-04)
2532.69       	(3.404113e-01 -1.108376e-05 8.704259e-02)	(3.342378e-01 -8.451734e-06 8.638400e-02)	(6.173492e-03 -2.632022e-06 6.585851e-04)
2532.69       	(3.404028e-01 -1.373153e-05 8.706682e-02)	(3.342293e-01 -1.109340e-05 8.640823e-02)	(6.173491e-03 -2.638133e-06 6.585947e-04)
2532.7        	(3.404116e-01 -1.106908e-05 8.704240e-02)	(3.342381e-01 -8.429083e-06 8.638381e-02)	(6.173498e-03 -2.639992e-06 6.585823e-04)
2532.7        	(3.404031e-01 -1.371436e-05 8.706669e-02)	(3.342296e-01 -1.106827e-05 8.640810e-02)	(6.173497e-03 -2.646088e-06 6.585917e-04)
2532.71       	(3.404120e-01 -1.105440e-05 8.704219e-02)	(3.342385e-01 -8.406468e-06 8.638361e-02)	(6.173504e-03 -2.647935e-06 6.585790e-04)
2532.72       	(3.404033e-01 -1.369704e-05 8.706655e-02)	(3.342298e-01 -1.104302e-05 8.640796e-02)	(6.173503e-03 -2.654015e-06 6.585883e-04)
2532.72       	(3.404123e-01 -1.103935e-05 8.704196e-02)	(3.342388e-01 -8.383501e-06 8.638339e-02)	(6.173510e-03 -2.655849e-06 6.585753e-04)
2532.73       	(3.404035e-01 -1.367877e-05 8.706638e-02)	(3.342300e-01 -1.101686e-05 8.640780e-02)	(6.173508e-03 -2.661914e-06 6.585844e-04)
2532.73       	(3.404126e-01 -1.102423e-05 8.704171e-02)	(3.342391e-01 -8.360495e-06 8.638314e-02)	(6.173515e-03 -2.663736e-06 6.585712e-04)
2532.74       	(3.404038e-01 -1.366085e-05 8.706620e-02)	(3.342303e-01 -1.099106e-05 8.640762e-02)	(6.173514e-03 -2.669786e-06 6.585800e-04)
2532.74       	(3.404129e-01 -1.100878e-05 8.704145e-02)	(3.342394e-01 -8.337183e-06 8.638288e-02)	(6.173520e-03 -2.671594e-06 6.585666e-04)
2532.75       	(3.404040e-01 -1.364278e-05 8.706601e-02)	(3.342305e-01 -1.096515e-05 8.640743e-02)	(6.173519e-03 -2.677630e-06 6.585752e-04)
2532.75       	(3.404132e-01 -1.099293e-05 8.704117e-02)	(3.342397e-01 -8.313508e-06 8.638261e-02)	(6.173525e-03 -2.679425e-06 6.585615e-04)
2532.76       	(3.404043e-01 -1.362454e-05 8.706579e-02)	(3.342307e-01 -1.093909e-05 8.640722e-02)	(6.173524e-03 -2.685446e-06 6.585700e-04)
2532.76       	(3.404135e-01 -1.097699e-05 8.704087e-02)	(3.342400e-01 -8.289761e-06 8.638231e-02)	(6.173530e-03 -2.687229e-06 6.585560e-04)
2532.77       	(3.404045e-01 -1.360608e-05 8.706557e-02)	(3.342309e-01 -1.091285e-05 8.640700e-02)	(6.173528e-03 -2.693235e-06 6.585643e-04)
2532.77       	(3.404138e-01 -1.096105e-05 8.704055e-02)	(3.342402e-01 -8.266042e-06 8.638200e-02)	(6.173535e-03 -2.695006e-06 6.585501e-04)
2532.78       	(3.404047e-01 -1.358762e-05 8.706532e-02)	(3.342311e-01 -1.088662e-05 8.640676e-02)	(6.173533e-03 -2.700999e-06 6.585582e-04)
2532.78       	(3.404140e-01 -1.094437e-05 8.704022e-02)	(3.342405e-01 -8.241613e-06 8.638168e-02)	(6.173539e-03 -2.702757e-06 6.585437e-04)
2532.79       	(3.404049e-01 -1.356865e-05 8.706506e-02)	(3.342313e-01 -1.085991e-05 8.640651e-02)	(6.173537e-03 -2.708735e-06 6.585517e-04)
2532.79       	(3.404143e-01 -1.092753e-05 8.703987e-02)	(3.342407e-01 -8.217050e-06 8.638134e-02)	(6.173543e-03 -2.710480e-06 6.585369e-04)
2532.8        	(3.404050e-01 -1.354932e-05 8.706478e-02)	(3.342315e-01 -1.083288e-05 8.640624e-02)	(6.173541e-03 -2.716443e-06 6.585447e-04)
2532.8        	(3.404146e-01 -1.091235e-05 8.703951e-02)	(3.342410e-01 -8.194175e-06 8.638098e-02)	(6.173547e-03 -2.718175e-06 6.585297e-04)
2532.81       	(3.404052e-01 -1.353043e-05 8.706449e-02)	(3.342317e-01 -1.080630e-05 8.640595e-02)	(6.173544e-03 -2.724126e-06 6.585373e-04)
2532.81       	(3.404148e-01 -1.089465e-05 8.703913e-02)	(3.342412e-01 -8.168806e-06 8.638061e-02)	(6.173550e-03 -2.725846e-06 6.585221e-04)
2532.82       	(3.404053e-01 -1.350841e-05 8.706418e-02)	(3.342317e-01 -1.077663e-05 8.640565e-02)	(6.173548e-03 -2.731780e-06 6.585296e-04)
2532.82       	(3.404150e-01 -1.087754e-05 8.703876e-02)	(3.342414e-01 -8.144054e-06 8.638024e-02)	(6.173554e-03 -2.733489e-06 6.585141e-04)
2532.83       	(3.404055e-01 -1.348784e-05 8.706382e-02)	(3.342319e-01 -1.074843e-05 8.640530e-02)	(6.173551e-03 -2.739408e-06 6.585214e-04)
2532.83       	(3.404151e-01 -1.085963e-05 8.703839e-02)	(3.342416e-01 -8.118529e-06 8.637988e-02)	(6.173557e-03 -2.741106e-06 6.585058e-04)
2532.84       	(3.404056e-01 -1.346714e-05 8.706345e-02)	(3.342321e-01 -1.072013e-05 8.640493e-02)	(6.173554e-03 -2.747010e-06 6.585128e-04)
2532.84       	(3.404153e-01 -1.084157e-05 8.703800e-02)	(3.342417e-01 -8.092874e-06 8.637951e-02)	(6.173559e-03 -2.748697e-06 6.584970e-04)
2532.85       	(3.404057e-01 -1.344618e-05 8.706306e-02)	(3.342322e-01 -1.069159e-05 8.640455e-02)	(6.173556e-03 -2.754585e-06 6.585039e-04)
2532.85       	(3.404154e-01 -1.082322e-05 8.703761e-02)	(3.342418e-01 -8.066959e-06 8.637912e-02)	(6.173562e-03 -2.756260e-06 6.584879e-04)
2532.86       	(3.404059e-01 -1.342530e-05 8.706266e-02)	(3.342323e-01 -1.066317e-05 8.640416e-02)	(6.173559e-03 -2.762134e-06 6.584946e-04)
2532.87       	(3.404155e-01 -1.080490e-05 8.703720e-02)	(3.342420e-01 -8.041099e-06 8.637872e-02)	(6.173564e-03 -2.763798e-06 6.584784e-04)
2532.87       	(3.404060e-01 -1.340415e-05 8.706224e-02)	(3.342324e-01 -1.063449e-05 8.640375e-02)	(6.173561e-03 -2.769656e-06 6.584850e-04)
2532.88       	(3.404156e-01 -1.078607e-05 8.703678e-02)	(3.342421e-01 -8.014763e-06 8.637831e-02)	(6.173566e-03 -2.771309e-06 6.584686e-04)
2532.88       	(3.404061e-01 -1.338305e-05 8.706181e-02)	(3.342325e-01 -1.060589e-05 8.640334e-02)	(6.173563e-03 -2.777153e-06 6.584750e-04)
2532.89       	(3.404157e-01 -1.076700e-05 8.703634e-02)	(3.342421e-01 -7.988207e-06 8.637788e-02)	(6.173568e-03 -2.778794e-06 6.584584e-04)
2532.89       	(3.404061e-01 -1.336051e-05 8.706137e-02)	(3.342326e-01 -1.057588e-05 8.640291e-02)	(6.173565e-03 -2.784623e-06 6.584646e-04)
2532.9        	(3.404158e-01 -1.074804e-05 8.703590e-02)	(3.342422e-01 -7.961784e-06 8.637745e-02)	(6.173570e-03 -2.786254e-06 6.584479e-04)
2532.9        	(3.404062e-01 -1.333916e-05 8.706092e-02)	(3.342327e-01 -1.054709e-05 8.640246e-02)	(6.173566e-03 -2.792068e-06 6.584540e-04)
2532.91       	(3.404159e-01 -1.072886e-05 8.703544e-02)	(3.342423e-01 -7.935177e-06 8.637700e-02)	(6.173571e-03 -2.793687e-06 6.584371e-04)
2532.91       	(3.404063e-01 -1.331747e-05 8.706045e-02)	(3.342327e-01 -1.051799e-05 8.640201e-02)	(6.173568e-03 -2.799487e-06 6.584430e-04)
2532.92       	(3.404159e-01 -1.070976e-05 8.703497e-02)	(3.342423e-01 -7.908659e-06 8.637654e-02)	(6.173573e-03 -2.801096e-06 6.584259e-04)
2532.92       	(3.404064e-01 -1.329558e-05 8.705997e-02)	(3.342328e-01 -1.048869e-05 8.640154e-02)	(6.173569e-03 -2.806881e-06 6.584316e-04)
2532.93       	(3.404160e-01 -1.069042e-05 8.703449e-02)	(3.342424e-01 -7.881945e-06 8.637608e-02)	(6.173574e-03 -2.808479e-06 6.584145e-04)
2532.93       	(3.404064e-01 -1.327368e-05 8.705949e-02)	(3.342329e-01 -1.045943e-05 8.640107e-02)	(6.173570e-03 -2.814250e-06 6.584200e-04)
2532.94       	(3.404160e-01 -1.067095e-05 8.703400e-02)	(3.342424e-01 -7.855108e-06 8.637560e-02)	(6.173574e-03 -2.815838e-06 6.584027e-04)
2532.94       	(3.404065e-01 -1.325157e-05 8.705899e-02)	(3.342329e-01 -1.042997e-05 8.640058e-02)	(6.173570e-03 -2.821594e-06 6.584081e-04)
2532.95       	(3.404160e-01 -1.065128e-05 8.703350e-02)	(3.342424e-01 -7.828113e-06 8.637511e-02)	(6.173575e-03 -2.823170e-06 6.583907e-04)
2532.95       	(3.404065e-01 -1.322951e-05 8.705848e-02)	(3.342329e-01 -1.040060e-05 8.640009e-02)	(6.173571e-03 -2.828912e-06 6.583959e-04)
2532.96       	(3.404160e-01 -1.063162e-05 8.703299e-02)	(3.342424e-01 -7.801145e-06 8.637461e-02)	(6.173575e-03 -2.830478e-06 6.583783e-04)
2532.96       	(3.404065e-01 -1.320752e-05 8.705796e-02)	(3.342329e-01 -1.037131e-05 8.639958e-02)	(6.173571e-03 -2.836205e-06 6.583834e-04)
2532.97       	(3.404160e-01 -1.061188e-05 8.703247e-02)	(3.342424e-01 -7.774124e-06 8.637411e-02)	(6.173576e-03 -2.837761e-06 6.583657e-04)
2532.97       	(3.404065e-01 -1.318536e-05 8.705744e-02)	(3.342330e-01 -1.034189e-05 8.639907e-02)	(6.173571e-03 -2.843474e-06 6.583707e-04)
2532.98       	(3.404160e-01 -1.059381e-05 8.703195e-02)	(3.342425e-01 -7.748797e-06 8.637359e-02)	(6.173576e-03 -2.845017e-06 6.583528e-04)
2532.98       	(3.404065e-01 -1.316360e-05 8.705690e-02)	(3.342329e-01 -1.031289e-05 8.639854e-02)	(6.173571e-03 -2.850717e-06 6.583577e-04)
2532.99       	(3.404160e-01 -1.057395e-05 8.703141e-02)	(3.342424e-01 -7.721701e-06 8.637307e-02)	(6.173575e-03 -2.852250e-06 6.583397e-04)
2532.99       	(3.404065e-01 -1.314141e-05 8.705636e-02)	(3.342329e-01 -1.028347e-05 8.639801e-02)	(6.173571e-03 -2.857935e-06 6.583444e-04)
2533          	(3.404159e-01 -1.055426e-05 8.703087e-02)	(3.342424e-01 -7.694799e-06 8.637255e-02)	(6.173575e-03 -2.859458e-06 6.583263e-04)
2533.01       	(3.404065e-01 -1.311943e-05 8.705580e-02)	(3.342329e-01 -1.025431e-05 8.639747e-02)	(6.173571e-03 -2.865129e-06 6.583309e-04)
2533.01       	(3.404159e-01 -1.053430e-05 8.703032e-02)	(3.342423e-01 -7.667658e-06 8.637201e-02)	(6.173575e-03 -2.866641e-06 6.583126e-04)
2533.02       	(3.404064e-01 -1.309746e-05 8.705524e-02)	(3.342329e-01 -1.022516e-05 8.639693e-02)	(6.173570e-03 -2.872298e-06 6.583171e-04)
2533.02       	(3.404158e-01 -1.051444e-05 8.702977e-02)	(3.342423e-01 -7.640640e-06 8.637147e-02)	(6.173574e-03 -2.873799e-06 6.582988e-04)
2533.03       	(3.404065e-01 -1.307503e-05 8.705468e-02)	(3.342329e-01 -1.019559e-05 8.639637e-02)	(6.173569e-03 -2.879441e-06 6.583031e-04)
2533.03       	(3.404157e-01 -1.049438e-05 8.702921e-02)	(3.342421e-01 -7.613449e-06 8.637092e-02)	(6.173573e-03 -2.880932e-06 6.582847e-04)
2533.04       	(3.404064e-01 -1.305301e-05 8.705410e-02)	(3.342329e-01 -1.016645e-05 8.639581e-02)	(6.173568e-03 -2.886561e-06 6.582889e-04)
2533.04       	(3.404156e-01 -1.047436e-05 8.702864e-02)	(3.342420e-01 -7.586319e-06 8.637037e-02)	(6.173572e-03 -2.888041e-06 6.582703e-04)
2533.05       	(3.404064e-01 -1.303101e-05 8.705352e-02)	(3.342328e-01 -1.013735e-05 8.639525e-02)	(6.173567e-03 -2.893655e-06 6.582744e-04)
2533.05       	(3.404155e-01 -1.045440e-05 8.702806e-02)	(3.342419e-01 -7.559277e-06 8.636981e-02)	(6.173571e-03 -2.895125e-06 6.582558e-04)
2533.06       	(3.404061e-01 -1.300932e-05 8.705294e-02)	(3.342326e-01 -1.010859e-05 8.639468e-02)	(6.173566e-03 -2.900726e-06 6.582598e-04)
2533.06       	(3.404155e-01 -1.043482e-05 8.702748e-02)	(3.342419e-01 -7.532635e-06 8.636924e-02)	(6.173569e-03 -2.902184e-06 6.582410e-04)
2533.07       	(3.404061e-01 -1.298749e-05 8.705234e-02)	(3.342325e-01 -1.007972e-05 8.639410e-02)	(6.173564e-03 -2.907771e-06 6.582449e-04)
2533.07       	(3.404153e-01 -1.041478e-05 8.702690e-02)	(3.342418e-01 -7.505561e-06 8.636867e-02)	(6.173568e-03 -2.909219e-06 6.582261e-04)
2533.08       	(3.404059e-01 -1.296587e-05 8.705174e-02)	(3.342324e-01 -1.005107e-05 8.639351e-02)	(6.173563e-03 -2.914793e-06 6.582299e-04)
2533.08       	(3.404152e-01 -1.039484e-05 8.702631e-02)	(3.342416e-01 -7.478607e-06 8.636809e-02)	(6.173566e-03 -2.916230e-06 6.582109e-04)
2533.09       	(3.404058e-01 -1.294448e-05 8.705114e-02)	(3.342323e-01 -1.002269e-05 8.639293e-02)	(6.173561e-03 -2.921790e-06 6.582146e-04)
2533.09       	(3.404151e-01 -1.037470e-05 8.702571e-02)	(3.342415e-01 -7.451481e-06 8.636751e-02)	(6.173564e-03 -2.923215e-06 6.581955e-04)