# Moment bins 
# bins        : 20
# start       : -2.499802e-02
# end         : 2.503768e-02
# delta       : 2.501785e-03
# direction   : (1.000000e+00 0.000000e+00 0.000000e+00)
# x co-ords  :	-2.249623e-02	-1.999445e-02	-1.749266e-02	-1.499088e-02	-1.248909e-02	-9.987306e-03	-7.485521e-03	-4.983736e-03	-2.481951e-03	1.983393e-05	2.521619e-03	5.023404e-03	7.525189e-03	1.002697e-02	1.252876e-02	1.503054e-02	1.753233e-02	2.003411e-02	2.253590e-02	2.503768e-02
# y co-ords  :	-0.000000e+00	-0.000000e+00	-0.000000e+00	-0.000000e+00	-0.000000e+00	-0.000000e+00	-0.000000e+00	-0.000000e+00	-0.000000e+00	0.000000e+00	0.000000e+00	0.000000e+00	0.000000e+00	0.000000e+00	0.000000e+00	0.000000e+00	0.000000e+00	0.000000e+00	0.000000e+00	0.000000e+00
# z co-ords  :	-0.000000e+00	-0.000000e+00	-0.000000e+00	-0.000000e+00	-0.000000e+00	-0.000000e+00	-0.000000e+00	-0.000000e+00	-0.000000e+00	0.000000e+00	0.000000e+00	0.000000e+00	0.000000e+00	0.000000e+00	0.000000e+00	0.000000e+00	0.000000e+00	0.000000e+00	0.000000e+00	0.000000e+00
#
# Time        	0:(total_x total_y total_z)	0:(pressure_x pressure_y pressure_z)	0:(viscous_x viscous_y viscous_z)	1:(total_x total_y total_z)	1:(pressure_x pressure_y pressure_z)	1:(viscous_x viscous_y viscous_z)	2:(total_x total_y total_z)	2:(pressure_x pressure_y pressure_z)	2:(viscous_x viscous_y viscous_z)	3:(total_x total_y total_z)	3:(pressure_x pressure_y pressure_z)	3:(viscous_x viscous_y viscous_z)	4:(total_x total_y total_z)	4:(pressure_x pressure_y pressure_z)	4:(viscous_x viscous_y viscous_z)	5:(total_x total_y total_z)	5:(pressure_x pressure_y pressure_z)	5:(viscous_x viscous_y viscous_z)	6:(total_x total_y total_z)	6:(pressure_x pressure_y pressure_z)	6:(viscous_x viscous_y viscous_z)	7:(total_x total_y total_z)	7:(pressure_x pressure_y pressure_z)	7:(viscous_x viscous_y viscous_z)	8:(total_x total_y total_z)	8:(pressure_x pressure_y pressure_z)	8:(viscous_x viscous_y viscous_z)	9:(total_x total_y total_z)	9:(pressure_x pressure_y pressure_z)	9:(viscous_x viscous_y viscous_z)	10:(total_x total_y total_z)	10:(pressure_x pressure_y pressure_z)	10:(viscous_x viscous_y viscous_z)	11:(total_x total_y total_z)	11:(pressure_x pressure_y pressure_z)	11:(viscous_x viscous_y viscous_z)	12:(total_x total_y total_z)	12:(pressure_x pressure_y pressure_z)	12:(viscous_x viscous_y viscous_z)	13:(total_x total_y total_z)	13:(pressure_x pressure_y pressure_z)	13:(viscous_x viscous_y viscous_z)	14:(total_x total_y total_z)	14:(pressure_x pressure_y pressure_z)	14:(viscous_x viscous_y viscous_z)	15:(total_x total_y total_z)	15:(pressure_x pressure_y pressure_z)	15:(viscous_x viscous_y viscous_z)	16:(total_x total_y total_z)	16:(pressure_x pressure_y pressure_z)	16:(viscous_x viscous_y viscous_z)	17:(total_x total_y total_z)	17:(pressure_x pressure_y pressure_z)	17:(viscous_x viscous_y viscous_z)	18:(total_x total_y total_z)	18:(pressure_x pressure_y pressure_z)	18:(viscous_x viscous_y viscous_z)	19:(total_x total_y total_z)	19:(pressure_x pressure_y pressure_z)	19:(viscous_x viscous_y viscous_z)
2532.01       	(2.673212e-04 -2.806611e+01 -3.896784e-04)	(2.673834e-04 -2.806611e+01 -3.897206e-04)	(-6.216376e-08 -3.377085e-06 4.218785e-08)	(2.960568e-04 -3.899987e+01 -4.629486e-04)	(2.961251e-04 -3.899990e+01 -4.630177e-04)	(-6.835791e-08 2.183109e-05 6.904733e-08)	(1.776188e-04 -4.622424e+01 -1.539163e-04)	(1.776878e-04 -4.622429e+01 -1.540145e-04)	(-6.900185e-08 5.227320e-05 9.822087e-08)	(2.120100e-04 -5.176583e+01 -1.534337e-04)	(2.120780e-04 -5.176591e+01 -1.535607e-04)	(-6.795439e-08 7.947709e-05 1.270447e-07)	(6.956588e-04 -5.622828e+01 -4.226028e-04)	(6.957284e-04 -5.622839e+01 -4.227610e-04)	(-6.954220e-08 1.061323e-04 1.581773e-07)	(1.270615e-03 -5.943720e+01 -5.556948e-04)	(1.270686e-03 -5.943732e+01 -5.558861e-04)	(-7.109719e-08 1.265935e-04 1.912635e-07)	(-5.413161e-05 -6.183960e+01 -6.740266e-04)	(-5.405696e-05 -6.183975e+01 -6.742515e-04)	(-7.465489e-08 1.419863e-04 2.248514e-07)	(-1.636301e-04 -6.350396e+01 -3.525719e-06)	(-1.635574e-04 -6.350410e+01 -3.790643e-06)	(-7.264311e-08 1.476826e-04 2.649242e-07)	(-5.782251e-05 -6.446788e+01 -3.200061e-06)	(-5.775034e-05 -6.446803e+01 -3.493599e-06)	(-7.217250e-08 1.478806e-04 2.935384e-07)	(-2.441370e-05 -6.481773e+01 -1.148154e-05)	(-2.434324e-05 -6.481788e+01 -1.180367e-05)	(-7.046137e-08 1.471018e-04 3.221350e-07)	(-3.123374e-05 -6.446765e+01 -1.278917e-05)	(-3.115988e-05 -6.446780e+01 -1.314016e-05)	(-7.385949e-08 1.464455e-04 3.509869e-07)	(-1.054255e-05 -6.350390e+01 -1.891658e-05)	(-1.045983e-05 -6.350404e+01 -1.928424e-05)	(-8.272571e-08 1.452140e-04 3.676605e-07)	(7.021802e-04 -6.183874e+01 1.552556e-03)	(7.022649e-04 -6.183888e+01 1.552206e-03)	(-8.474227e-08 1.433838e-04 3.502479e-07)	(1.349668e-03 -5.943690e+01 5.180444e-04)	(1.349753e-03 -5.943704e+01 5.177256e-04)	(-8.558842e-08 1.412243e-04 3.188402e-07)	(7.518520e-04 -5.622821e+01 4.533692e-04)	(7.519425e-04 -5.622835e+01 4.530752e-04)	(-9.045794e-08 1.396047e-04 2.939732e-07)	(2.295954e-04 -5.176496e+01 1.455237e-04)	(2.296951e-04 -5.176509e+01 1.452498e-04)	(-9.969005e-08 1.378805e-04 2.738345e-07)	(9.120287e-05 -4.622341e+01 9.611198e-05)	(9.131524e-05 -4.622354e+01 9.585300e-05)	(-1.123741e-07 1.354959e-04 2.589851e-07)	(-1.896094e-05 -3.899665e+01 -1.855081e-05)	(-1.883154e-05 -3.899679e+01 -1.878021e-05)	(-1.294048e-07 1.320818e-04 2.293997e-07)	(-3.876113e-06 -2.806368e+01 5.123539e-06)	(-3.694873e-06 -2.806381e+01 4.958855e-06)	(-1.812397e-07 1.284634e-04 1.646835e-07)	(-1.817748e-05 9.158974e-03 8.574799e-06)	(-1.794467e-05 9.023166e-03 8.505106e-06)	(-2.328094e-07 1.358077e-04 6.969364e-08)
2532.01       	(2.673074e-04 -2.806611e+01 -3.897832e-04)	(2.673697e-04 -2.806610e+01 -3.898254e-04)	(-6.229147e-08 -3.376617e-06 4.218392e-08)	(2.960158e-04 -3.899987e+01 -4.630890e-04)	(2.960844e-04 -3.899989e+01 -4.631581e-04)	(-6.852507e-08 2.183159e-05 6.904299e-08)	(1.775445e-04 -4.622423e+01 -1.540823e-04)	(1.776137e-04 -4.622428e+01 -1.541805e-04)	(-6.918115e-08 5.227369e-05 9.822555e-08)	(2.119041e-04 -5.176582e+01 -1.536195e-04)	(2.119722e-04 -5.176590e+01 -1.537466e-04)	(-6.812579e-08 7.947757e-05 1.270791e-07)	(6.955239e-04 -5.622828e+01 -4.228138e-04)	(6.955936e-04 -5.622838e+01 -4.229720e-04)	(-6.969397e-08 1.061328e-04 1.582700e-07)	(1.270464e-03 -5.943719e+01 -5.559318e-04)	(1.270535e-03 -5.943731e+01 -5.561233e-04)	(-7.122407e-08 1.265940e-04 1.914297e-07)	(-5.428975e-05 -6.183960e+01 -6.742906e-04)	(-5.421499e-05 -6.183974e+01 -6.745157e-04)	(-7.475942e-08 1.419868e-04 2.251092e-07)	(-1.637711e-04 -6.350395e+01 -3.814602e-06)	(-1.636983e-04 -6.350409e+01 -4.079904e-06)	(-7.272639e-08 1.476830e-04 2.653021e-07)	(-5.790043e-05 -6.446787e+01 -3.508943e-06)	(-5.782819e-05 -6.446802e+01 -3.802988e-06)	(-7.224142e-08 1.478810e-04 2.940453e-07)	(-2.441862e-05 -6.481772e+01 -1.179858e-05)	(-2.434810e-05 -6.481787e+01 -1.212136e-05)	(-7.052674e-08 1.471022e-04 3.227827e-07)	(-3.113160e-05 -6.446764e+01 -1.309524e-05)	(-3.105769e-05 -6.446779e+01 -1.344701e-05)	(-7.391447e-08 1.464459e-04 3.517755e-07)	(-1.026064e-05 -6.350389e+01 -1.918138e-05)	(-1.017785e-05 -6.350403e+01 -1.954996e-05)	(-8.278694e-08 1.452144e-04 3.685736e-07)	(7.026386e-04 -6.183873e+01 1.552367e-03)	(7.027234e-04 -6.183887e+01 1.552016e-03)	(-8.481918e-08 1.433843e-04 3.512941e-07)	(1.350296e-03 -5.943689e+01 5.179674e-04)	(1.350382e-03 -5.943703e+01 5.176474e-04)	(-8.567642e-08 1.412248e-04 3.199912e-07)	(7.526904e-04 -5.622821e+01 4.534609e-04)	(7.527810e-04 -5.622835e+01 4.531657e-04)	(-9.055494e-08 1.396051e-04 2.952061e-07)	(2.306646e-04 -5.176495e+01 1.458646e-04)	(2.307644e-04 -5.176509e+01 1.455895e-04)	(-9.978320e-08 1.378810e-04 2.751361e-07)	(9.251527e-05 -4.622340e+01 9.678734e-05)	(9.262768e-05 -4.622354e+01 9.652702e-05)	(-1.124140e-07 1.354964e-04 2.603143e-07)	(-1.747046e-05 -3.899665e+01 -1.746565e-05)	(-1.734116e-05 -3.899678e+01 -1.769635e-05)	(-1.293049e-07 1.320823e-04 2.307019e-07)	(-2.214919e-06 -2.806368e+01 6.823666e-06)	(-2.034030e-06 -2.806380e+01 6.657757e-06)	(-1.808892e-07 1.284639e-04 1.659093e-07)	(-1.642180e-05 9.158804e-03 1.172199e-05)	(-1.618978e-05 9.022996e-03 1.165123e-05)	(-2.320216e-07 1.358080e-04 7.076474e-08)
2532.02       	(2.673207e-04 -2.806611e+01 -3.896777e-04)	(2.673830e-04 -2.806611e+01 -3.897199e-04)	(-6.225345e-08 -3.376192e-06 4.217920e-08)	(2.960558e-04 -3.899987e+01 -4.629479e-04)	(2.961242e-04 -3.899990e+01 -4.630169e-04)	(-6.846083e-08 2.183204e-05 6.904351e-08)	(1.776173e-04 -4.622424e+01 -1.539157e-04)	(1.776864e-04 -4.622429e+01 -1.540139e-04)	(-6.910264e-08 5.227411e-05 9.822814e-08)	(2.120081e-04 -5.176583e+01 -1.534332e-04)	(2.120762e-04 -5.176591e+01 -1.535603e-04)	(-6.804847e-08 7.947796e-05 1.270635e-07)	(6.956564e-04 -5.622828e+01 -4.226026e-04)	(6.957261e-04 -5.622839e+01 -4.227608e-04)	(-6.963232e-08 1.061331e-04 1.582049e-07)	(1.270612e-03 -5.943720e+01 -5.556947e-04)	(1.270683e-03 -5.943732e+01 -5.558860e-04)	(-7.118702e-08 1.265943e-04 1.912969e-07)	(-5.413520e-05 -6.183960e+01 -6.740267e-04)	(-5.406046e-05 -6.183975e+01 -6.742516e-04)	(-7.474682e-08 1.419871e-04 2.248891e-07)	(-1.636345e-04 -6.350396e+01 -3.525828e-06)	(-1.635617e-04 -6.350410e+01 -3.790790e-06)	(-7.273723e-08 1.476833e-04 2.649624e-07)	(-5.782787e-05 -6.446788e+01 -3.200160e-06)	(-5.775561e-05 -6.446803e+01 -3.493730e-06)	(-7.226682e-08 1.478813e-04 2.935701e-07)	(-2.442025e-05 -6.481773e+01 -1.148165e-05)	(-2.434970e-05 -6.481788e+01 -1.180380e-05)	(-7.055063e-08 1.471025e-04 3.221551e-07)	(-3.124169e-05 -6.446765e+01 -1.278931e-05)	(-3.116775e-05 -6.446780e+01 -1.314031e-05)	(-7.393450e-08 1.464462e-04 3.509932e-07)	(-1.055187e-05 -6.350390e+01 -1.891682e-05)	(-1.046909e-05 -6.350404e+01 -1.928447e-05)	(-8.278648e-08 1.452148e-04 3.676511e-07)	(7.021696e-04 -6.183874e+01 1.552556e-03)	(7.022544e-04 -6.183888e+01 1.552206e-03)	(-8.478765e-08 1.433847e-04 3.502316e-07)	(1.349656e-03 -5.943690e+01 5.180439e-04)	(1.349742e-03 -5.943704e+01 5.177251e-04)	(-8.561674e-08 1.412252e-04 3.188182e-07)	(7.518391e-04 -5.622821e+01 4.533685e-04)	(7.519296e-04 -5.622835e+01 4.530745e-04)	(-9.047303e-08 1.396056e-04 2.939361e-07)	(2.295813e-04 -5.176496e+01 1.455226e-04)	(2.296810e-04 -5.176509e+01 1.452488e-04)	(-9.969392e-08 1.378814e-04 2.737853e-07)	(9.118757e-05 -4.622341e+01 9.611037e-05)	(9.129990e-05 -4.622354e+01 9.585145e-05)	(-1.123314e-07 1.354968e-04 2.589145e-07)	(-1.897748e-05 -3.899665e+01 -1.855328e-05)	(-1.884820e-05 -3.899679e+01 -1.878256e-05)	(-1.292802e-07 1.320828e-04 2.292830e-07)	(-3.894218e-06 -2.806368e+01 5.119589e-06)	(-3.713167e-06 -2.806381e+01 4.955064e-06)	(-1.810509e-07 1.284644e-04 1.645254e-07)	(-1.819743e-05 9.158998e-03 8.563830e-06)	(-1.796451e-05 9.023190e-03 8.494468e-06)	(-2.329210e-07 1.358085e-04 6.936177e-08)
2532.02       	(2.673069e-04 -2.806611e+01 -3.897825e-04)	(2.673693e-04 -2.806610e+01 -3.898247e-04)	(-6.238100e-08 -3.375727e-06 4.217530e-08)	(2.960147e-04 -3.899987e+01 -4.630882e-04)	(2.960834e-04 -3.899989e+01 -4.631572e-04)	(-6.862787e-08 2.183254e-05 6.903913e-08)	(1.775429e-04 -4.622423e+01 -1.540815e-04)	(1.776121e-04 -4.622428e+01 -1.541798e-04)	(-6.928183e-08 5.227460e-05 9.823276e-08)	(2.119019e-04 -5.176582e+01 -1.536189e-04)	(2.119702e-04 -5.176590e+01 -1.537460e-04)	(-6.821975e-08 7.947844e-05 1.270978e-07)	(6.955212e-04 -5.622828e+01 -4.228133e-04)	(6.955909e-04 -5.622838e+01 -4.229716e-04)	(-6.978399e-08 1.061336e-04 1.582976e-07)	(1.270461e-03 -5.943719e+01 -5.559315e-04)	(1.270532e-03 -5.943731e+01 -5.561230e-04)	(-7.131380e-08 1.265948e-04 1.914631e-07)	(-5.429381e-05 -6.183960e+01 -6.742905e-04)	(-5.421896e-05 -6.183974e+01 -6.745156e-04)	(-7.485118e-08 1.419875e-04 2.251471e-07)	(-1.637760e-04 -6.350395e+01 -3.814503e-06)	(-1.637032e-04 -6.350409e+01 -4.079844e-06)	(-7.282027e-08 1.476837e-04 2.653406e-07)	(-5.790635e-05 -6.446787e+01 -3.508840e-06)	(-5.783401e-05 -6.446802e+01 -3.802917e-06)	(-7.233548e-08 1.478817e-04 2.940775e-07)	(-2.442575e-05 -6.481772e+01 -1.179849e-05)	(-2.435513e-05 -6.481787e+01 -1.212129e-05)	(-7.061575e-08 1.471029e-04 3.228037e-07)	(-3.114011e-05 -6.446764e+01 -1.309517e-05)	(-3.106612e-05 -6.446779e+01 -1.344696e-05)	(-7.398929e-08 1.464467e-04 3.517831e-07)	(-1.027046e-05 -6.350389e+01 -1.918140e-05)	(-1.018761e-05 -6.350403e+01 -1.954997e-05)	(-8.284760e-08 1.452152e-04 3.685661e-07)	(7.026276e-04 -6.183873e+01 1.552367e-03)	(7.027124e-04 -6.183887e+01 1.552015e-03)	(-8.486451e-08 1.433851e-04 3.512801e-07)	(1.350284e-03 -5.943689e+01 5.179673e-04)	(1.350370e-03 -5.943703e+01 5.176473e-04)	(-8.570473e-08 1.412257e-04 3.199719e-07)	(7.526772e-04 -5.622821e+01 4.534607e-04)	(7.527677e-04 -5.622835e+01 4.531655e-04)	(-9.057006e-08 1.396060e-04 2.951722e-07)	(2.306503e-04 -5.176495e+01 1.458641e-04)	(2.307501e-04 -5.176509e+01 1.455890e-04)	(-9.978713e-08 1.378819e-04 2.750903e-07)	(9.249987e-05 -4.622340e+01 9.678648e-05)	(9.261224e-05 -4.622354e+01 9.652623e-05)	(-1.123713e-07 1.354973e-04 2.602473e-07)	(-1.748702e-05 -3.899665e+01 -1.746711e-05)	(-1.735784e-05 -3.899678e+01 -1.769770e-05)	(-1.291803e-07 1.320833e-04 2.305888e-07)	(-2.232960e-06 -2.806368e+01 6.821119e-06)	(-2.052260e-06 -2.806380e+01 6.655364e-06)	(-1.807000e-07 1.284649e-04 1.657547e-07)	(-1.644164e-05 9.158830e-03 1.171335e-05)	(-1.620950e-05 9.023021e-03 1.164292e-05)	(-2.321330e-07 1.358089e-04 7.043595e-08)
2532.03       	(2.673202e-04 -2.806611e+01 -3.896770e-04)	(2.673826e-04 -2.806611e+01 -3.897192e-04)	(-6.234250e-08 -3.375305e-06 4.217064e-08)	(2.960548e-04 -3.899987e+01 -4.629471e-04)	(2.961233e-04 -3.899990e+01 -4.630162e-04)	(-6.856302e-08 2.183298e-05 6.903974e-08)	(1.776159e-04 -4.622424e+01 -1.539151e-04)	(1.776851e-04 -4.622429e+01 -1.540133e-04)	(-6.920263e-08 5.227502e-05 9.823542e-08)	(2.120062e-04 -5.176583e+01 -1.534328e-04)	(2.120744e-04 -5.176591e+01 -1.535598e-04)	(-6.814173e-08 7.947883e-05 1.270822e-07)	(6.956540e-04 -5.622828e+01 -4.226023e-04)	(6.957238e-04 -5.622839e+01 -4.227605e-04)	(-6.972166e-08 1.061340e-04 1.582325e-07)	(1.270609e-03 -5.943720e+01 -5.556946e-04)	(1.270680e-03 -5.943732e+01 -5.558859e-04)	(-7.127609e-08 1.265951e-04 1.913303e-07)	(-5.413879e-05 -6.183960e+01 -6.740267e-04)	(-5.406395e-05 -6.183975e+01 -6.742516e-04)	(-7.483788e-08 1.419878e-04 2.249268e-07)	(-1.636388e-04 -6.350396e+01 -3.525915e-06)	(-1.635660e-04 -6.350410e+01 -3.790916e-06)	(-7.283037e-08 1.476840e-04 2.650007e-07)	(-5.783321e-05 -6.446788e+01 -3.200240e-06)	(-5.776085e-05 -6.446803e+01 -3.493842e-06)	(-7.236013e-08 1.478820e-04 2.936020e-07)	(-2.442677e-05 -6.481773e+01 -1.148174e-05)	(-2.435613e-05 -6.481788e+01 -1.180391e-05)	(-7.063891e-08 1.471032e-04 3.221759e-07)	(-3.124958e-05 -6.446765e+01 -1.278943e-05)	(-3.117558e-05 -6.446780e+01 -1.314043e-05)	(-7.400866e-08 1.464470e-04 3.510009e-07)	(-1.056111e-05 -6.350390e+01 -1.891704e-05)	(-1.047827e-05 -6.350404e+01 -1.928468e-05)	(-8.284658e-08 1.452155e-04 3.676442e-07)	(7.021592e-04 -6.183874e+01 1.552556e-03)	(7.022440e-04 -6.183888e+01 1.552205e-03)	(-8.483243e-08 1.433855e-04 3.502186e-07)	(1.349644e-03 -5.943690e+01 5.180435e-04)	(1.349730e-03 -5.943704e+01 5.177247e-04)	(-8.564450e-08 1.412260e-04 3.188001e-07)	(7.518263e-04 -5.622821e+01 4.533679e-04)	(7.519168e-04 -5.622835e+01 4.530740e-04)	(-9.048758e-08 1.396064e-04 2.939037e-07)	(2.295673e-04 -5.176496e+01 1.455217e-04)	(2.296670e-04 -5.176509e+01 1.452479e-04)	(-9.969729e-08 1.378823e-04 2.737412e-07)	(9.117245e-05 -4.622341e+01 9.610889e-05)	(9.128473e-05 -4.622354e+01 9.585004e-05)	(-1.122881e-07 1.354978e-04 2.588491e-07)	(-1.899384e-05 -3.899665e+01 -1.855557e-05)	(-1.886468e-05 -3.899679e+01 -1.878474e-05)	(-1.291549e-07 1.320838e-04 2.291715e-07)	(-3.912135e-06 -2.806368e+01 5.115903e-06)	(-3.731274e-06 -2.806381e+01 4.951531e-06)	(-1.808611e-07 1.284654e-04 1.643723e-07)	(-1.821718e-05 9.159023e-03 8.553338e-06)	(-1.798415e-05 9.023213e-03 8.484304e-06)	(-2.330323e-07 1.358094e-04 6.903443e-08)
2532.03       	(2.673064e-04 -2.806611e+01 -3.897817e-04)	(2.673689e-04 -2.806610e+01 -3.898239e-04)	(-6.246991e-08 -3.374843e-06 4.216675e-08)	(2.960136e-04 -3.899987e+01 -4.630873e-04)	(2.960824e-04 -3.899989e+01 -4.631563e-04)	(-6.872994e-08 2.183348e-05 6.903533e-08)	(1.775412e-04 -4.622423e+01 -1.540807e-04)	(1.776106e-04 -4.622428e+01 -1.541790e-04)	(-6.938173e-08 5.227551e-05 9.823995e-08)	(2.118998e-04 -5.176582e+01 -1.536182e-04)	(2.119681e-04 -5.176590e+01 -1.537453e-04)	(-6.831293e-08 7.947930e-05 1.271165e-07)	(6.955184e-04 -5.622828e+01 -4.228127e-04)	(6.955883e-04 -5.622838e+01 -4.229711e-04)	(-6.987329e-08 1.061344e-04 1.583253e-07)	(1.270457e-03 -5.943719e+01 -5.559311e-04)	(1.270529e-03 -5.943731e+01 -5.561226e-04)	(-7.140282e-08 1.265956e-04 1.914966e-07)	(-5.429789e-05 -6.183960e+01 -6.742902e-04)	(-5.422295e-05 -6.183974e+01 -6.745154e-04)	(-7.494214e-08 1.419883e-04 2.251849e-07)	(-1.637809e-04 -6.350395e+01 -3.814299e-06)	(-1.637080e-04 -6.350409e+01 -4.079679e-06)	(-7.291324e-08 1.476844e-04 2.653790e-07)	(-5.791225e-05 -6.446787e+01 -3.508633e-06)	(-5.783983e-05 -6.446802e+01 -3.802743e-06)	(-7.242860e-08 1.478824e-04 2.941098e-07)	(-2.443285e-05 -6.481772e+01 -1.179830e-05)	(-2.436214e-05 -6.481787e+01 -1.212112e-05)	(-7.070388e-08 1.471036e-04 3.228253e-07)	(-3.114856e-05 -6.446764e+01 -1.309500e-05)	(-3.107450e-05 -6.446779e+01 -1.344679e-05)	(-7.406336e-08 1.464474e-04 3.517921e-07)	(-1.028019e-05 -6.350389e+01 -1.918130e-05)	(-1.019728e-05 -6.350403e+01 -1.954986e-05)	(-8.290768e-08 1.452159e-04 3.685610e-07)	(7.026167e-04 -6.183873e+01 1.552367e-03)	(7.027016e-04 -6.183887e+01 1.552016e-03)	(-8.490937e-08 1.433859e-04 3.512696e-07)	(1.350272e-03 -5.943689e+01 5.179673e-04)	(1.350358e-03 -5.943703e+01 5.176473e-04)	(-8.573261e-08 1.412265e-04 3.199568e-07)	(7.526641e-04 -5.622821e+01 4.534606e-04)	(7.527547e-04 -5.622835e+01 4.531654e-04)	(-9.058477e-08 1.396069e-04 2.951430e-07)	(2.306361e-04 -5.176495e+01 1.458639e-04)	(2.307359e-04 -5.176509e+01 1.455888e-04)	(-9.979068e-08 1.378828e-04 2.750499e-07)	(9.248473e-05 -4.622340e+01 9.678589e-05)	(9.259706e-05 -4.622354e+01 9.652570e-05)	(-1.123281e-07 1.354982e-04 2.601858e-07)	(-1.750329e-05 -3.899665e+01 -1.746823e-05)	(-1.737424e-05 -3.899678e+01 -1.769871e-05)	(-1.290549e-07 1.320843e-04 2.304813e-07)	(-2.250689e-06 -2.806368e+01 6.819037e-06)	(-2.070179e-06 -2.806380e+01 6.653432e-06)	(-1.805099e-07 1.284659e-04 1.656056e-07)	(-1.646115e-05 9.158856e-03 1.170549e-05)	(-1.622891e-05 9.023047e-03 1.163538e-05)	(-2.322439e-07 1.358098e-04 7.011229e-08)
2532.04       	(2.673197e-04 -2.806611e+01 -3.896764e-04)	(2.673822e-04 -2.806611e+01 -3.897185e-04)	(-6.243100e-08 -3.374424e-06 4.216216e-08)	(2.960538e-04 -3.899987e+01 -4.629464e-04)	(2.961224e-04 -3.899990e+01 -4.630155e-04)	(-6.866454e-08 2.183392e-05 6.903600e-08)	(1.776144e-04 -4.622424e+01 -1.539145e-04)	(1.776837e-04 -4.622429e+01 -1.540127e-04)	(-6.930193e-08 5.227592e-05 9.824265e-08)	(2.120043e-04 -5.176583e+01 -1.534323e-04)	(2.120726e-04 -5.176591e+01 -1.535594e-04)	(-6.823429e-08 7.947969e-05 1.271009e-07)	(6.956516e-04 -5.622828e+01 -4.226020e-04)	(6.957214e-04 -5.622839e+01 -4.227603e-04)	(-6.981038e-08 1.061348e-04 1.582602e-07)	(1.270606e-03 -5.943720e+01 -5.556946e-04)	(1.270677e-03 -5.943732e+01 -5.558859e-04)	(-7.136457e-08 1.265959e-04 1.913638e-07)	(-5.414243e-05 -6.183960e+01 -6.740268e-04)	(-5.406750e-05 -6.183975e+01 -6.742518e-04)	(-7.492830e-08 1.419886e-04 2.249645e-07)	(-1.636433e-04 -6.350396e+01 -3.526058e-06)	(-1.635704e-04 -6.350410e+01 -3.791097e-06)	(-7.292278e-08 1.476847e-04 2.650389e-07)	(-5.783861e-05 -6.446788e+01 -3.200377e-06)	(-5.776615e-05 -6.446803e+01 -3.494011e-06)	(-7.245271e-08 1.478827e-04 2.936340e-07)	(-2.443335e-05 -6.481773e+01 -1.148188e-05)	(-2.436263e-05 -6.481788e+01 -1.180408e-05)	(-7.072655e-08 1.471039e-04 3.221971e-07)	(-3.125754e-05 -6.446765e+01 -1.278961e-05)	(-3.118345e-05 -6.446780e+01 -1.314062e-05)	(-7.408233e-08 1.464477e-04 3.510097e-07)	(-1.057040e-05 -6.350390e+01 -1.891730e-05)	(-1.048749e-05 -6.350404e+01 -1.928494e-05)	(-8.290636e-08 1.452162e-04 3.676394e-07)	(7.021487e-04 -6.183874e+01 1.552555e-03)	(7.022335e-04 -6.183888e+01 1.552205e-03)	(-8.487703e-08 1.433863e-04 3.502088e-07)	(1.349633e-03 -5.943690e+01 5.180431e-04)	(1.349718e-03 -5.943704e+01 5.177243e-04)	(-8.567215e-08 1.412269e-04 3.187861e-07)	(7.518135e-04 -5.622821e+01 4.533672e-04)	(7.519040e-04 -5.622835e+01 4.530734e-04)	(-9.050207e-08 1.396073e-04 2.938760e-07)	(2.295532e-04 -5.176496e+01 1.455208e-04)	(2.296529e-04 -5.176509e+01 1.452471e-04)	(-9.970061e-08 1.378832e-04 2.737025e-07)	(9.115733e-05 -4.622341e+01 9.610748e-05)	(9.126957e-05 -4.622354e+01 9.584869e-05)	(-1.122446e-07 1.354987e-04 2.587896e-07)	(-1.901018e-05 -3.899665e+01 -1.855772e-05)	(-1.888115e-05 -3.899679e+01 -1.878679e-05)	(-1.290291e-07 1.320847e-04 2.290661e-07)	(-3.930024e-06 -2.806368e+01 5.112457e-06)	(-3.749353e-06 -2.806381e+01 4.948232e-06)	(-1.806705e-07 1.284664e-04 1.642252e-07)	(-1.823690e-05 9.159047e-03 8.543356e-06)	(-1.800375e-05 9.023237e-03 8.474644e-06)	(-2.331434e-07 1.358103e-04 6.871255e-08)
2532.04       	(2.673059e-04 -2.806611e+01 -3.897809e-04)	(2.673685e-04 -2.806610e+01 -3.898231e-04)	(-6.255835e-08 -3.373966e-06 4.215829e-08)	(2.960125e-04 -3.899987e+01 -4.630864e-04)	(2.960814e-04 -3.899989e+01 -4.631554e-04)	(-6.883141e-08 2.183441e-05 6.903157e-08)	(1.775396e-04 -4.622423e+01 -1.540799e-04)	(1.776091e-04 -4.622428e+01 -1.541781e-04)	(-6.948099e-08 5.227640e-05 9.824713e-08)	(2.118976e-04 -5.176582e+01 -1.536174e-04)	(2.119660e-04 -5.176590e+01 -1.537446e-04)	(-6.840549e-08 7.948015e-05 1.271351e-07)	(6.955157e-04 -5.622828e+01 -4.228122e-04)	(6.955857e-04 -5.622838e+01 -4.229705e-04)	(-6.996203e-08 1.061353e-04 1.583529e-07)	(1.270454e-03 -5.943719e+01 -5.559307e-04)	(1.270526e-03 -5.943731e+01 -5.561223e-04)	(-7.149131e-08 1.265963e-04 1.915302e-07)	(-5.430198e-05 -6.183960e+01 -6.742900e-04)	(-5.422695e-05 -6.183974e+01 -6.745152e-04)	(-7.503252e-08 1.419890e-04 2.252227e-07)	(-1.637858e-04 -6.350395e+01 -3.814103e-06)	(-1.637128e-04 -6.350409e+01 -4.079521e-06)	(-7.300553e-08 1.476851e-04 2.654174e-07)	(-5.791816e-05 -6.446787e+01 -3.508436e-06)	(-5.784563e-05 -6.446802e+01 -3.802578e-06)	(-7.252104e-08 1.478831e-04 2.941422e-07)	(-2.443992e-05 -6.481772e+01 -1.179811e-05)	(-2.436913e-05 -6.481787e+01 -1.212096e-05)	(-7.079140e-08 1.471043e-04 3.228472e-07)	(-3.115697e-05 -6.446764e+01 -1.309484e-05)	(-3.108283e-05 -6.446779e+01 -1.344664e-05)	(-7.413697e-08 1.464481e-04 3.518021e-07)	(-1.028986e-05 -6.350389e+01 -1.918121e-05)	(-1.020689e-05 -6.350403e+01 -1.954977e-05)	(-8.296748e-08 1.452167e-04 3.685580e-07)	(7.026059e-04 -6.183873e+01 1.552367e-03)	(7.026908e-04 -6.183887e+01 1.552016e-03)	(-8.495403e-08 1.433867e-04 3.512621e-07)	(1.350260e-03 -5.943689e+01 5.179673e-04)	(1.350346e-03 -5.943703e+01 5.176474e-04)	(-8.576037e-08 1.412274e-04 3.199455e-07)	(7.526512e-04 -5.622821e+01 4.534605e-04)	(7.527418e-04 -5.622835e+01 4.531654e-04)	(-9.059940e-08 1.396078e-04 2.951186e-07)	(2.306221e-04 -5.176495e+01 1.458636e-04)	(2.307219e-04 -5.176509e+01 1.455886e-04)	(-9.979416e-08 1.378837e-04 2.750148e-07)	(9.246973e-05 -4.622340e+01 9.678532e-05)	(9.258201e-05 -4.622354e+01 9.652519e-05)	(-1.122848e-07 1.354992e-04 2.601300e-07)	(-1.751943e-05 -3.899665e+01 -1.746933e-05)	(-1.739050e-05 -3.899678e+01 -1.769971e-05)	(-1.289291e-07 1.320852e-04 2.303797e-07)	(-2.268286e-06 -2.806368e+01 6.816973e-06)	(-2.087967e-06 -2.806380e+01 6.651510e-06)	(-1.803190e-07 1.284669e-04 1.654623e-07)	(-1.648054e-05 9.158882e-03 1.169758e-05)	(-1.624818e-05 9.023072e-03 1.162779e-05)	(-2.323547e-07 1.358106e-04 6.979376e-08)
2532.05       	(2.673193e-04 -2.806611e+01 -3.896758e-04)	(2.673818e-04 -2.806611e+01 -3.897180e-04)	(-6.251895e-08 -3.373550e-06 4.215377e-08)	(2.960528e-04 -3.899987e+01 -4.629459e-04)	(2.961215e-04 -3.899990e+01 -4.630149e-04)	(-6.876536e-08 2.183485e-05 6.903234e-08)	(1.776129e-04 -4.622424e+01 -1.539141e-04)	(1.776823e-04 -4.622429e+01 -1.540123e-04)	(-6.940047e-08 5.227682e-05 9.824992e-08)	(2.120024e-04 -5.176583e+01 -1.534321e-04)	(2.120708e-04 -5.176591e+01 -1.535592e-04)	(-6.832611e-08 7.948054e-05 1.271196e-07)	(6.956493e-04 -5.622828e+01 -4.226020e-04)	(6.957192e-04 -5.622839e+01 -4.227603e-04)	(-6.989843e-08 1.061356e-04 1.582879e-07)	(1.270603e-03 -5.943720e+01 -5.556947e-04)	(1.270675e-03 -5.943732e+01 -5.558861e-04)	(-7.145239e-08 1.265967e-04 1.913973e-07)	(-5.414597e-05 -6.183960e+01 -6.740271e-04)	(-5.407096e-05 -6.183975e+01 -6.742521e-04)	(-7.501798e-08 1.419893e-04 2.250021e-07)	(-1.636476e-04 -6.350396e+01 -3.526434e-06)	(-1.635746e-04 -6.350410e+01 -3.791511e-06)	(-7.301435e-08 1.476854e-04 2.650769e-07)	(-5.784387e-05 -6.446788e+01 -3.200752e-06)	(-5.777133e-05 -6.446803e+01 -3.494418e-06)	(-7.254444e-08 1.478834e-04 2.936659e-07)	(-2.443978e-05 -6.481773e+01 -1.148227e-05)	(-2.436896e-05 -6.481788e+01 -1.180449e-05)	(-7.081339e-08 1.471045e-04 3.222187e-07)	(-3.126531e-05 -6.446765e+01 -1.279002e-05)	(-3.119115e-05 -6.446780e+01 -1.314104e-05)	(-7.415533e-08 1.464484e-04 3.510195e-07)	(-1.057948e-05 -6.350390e+01 -1.891780e-05)	(-1.049652e-05 -6.350404e+01 -1.928544e-05)	(-8.296560e-08 1.452170e-04 3.676366e-07)	(7.021384e-04 -6.183874e+01 1.552555e-03)	(7.022233e-04 -6.183888e+01 1.552204e-03)	(-8.492115e-08 1.433870e-04 3.502017e-07)	(1.349621e-03 -5.943690e+01 5.180424e-04)	(1.349707e-03 -5.943704e+01 5.177236e-04)	(-8.569935e-08 1.412277e-04 3.187755e-07)	(7.518009e-04 -5.622821e+01 4.533664e-04)	(7.518914e-04 -5.622835e+01 4.530725e-04)	(-9.051612e-08 1.396082e-04 2.938525e-07)	(2.295394e-04 -5.176496e+01 1.455196e-04)	(2.296391e-04 -5.176509e+01 1.452459e-04)	(-9.970348e-08 1.378841e-04 2.736686e-07)	(9.114241e-05 -4.622341e+01 9.610584e-05)	(9.125461e-05 -4.622354e+01 9.584710e-05)	(-1.122006e-07 1.354996e-04 2.587350e-07)	(-1.902633e-05 -3.899665e+01 -1.856012e-05)	(-1.889743e-05 -3.899679e+01 -1.878908e-05)	(-1.289027e-07 1.320857e-04 2.289658e-07)	(-3.947731e-06 -2.806368e+01 5.108755e-06)	(-3.767252e-06 -2.806381e+01 4.944672e-06)	(-1.804790e-07 1.284674e-04 1.640831e-07)	(-1.825644e-05 9.159072e-03 8.533056e-06)	(-1.802319e-05 9.023261e-03 8.464661e-06)	(-2.332543e-07 1.358112e-04 6.839508e-08)
2532.05       	(2.673054e-04 -2.806611e+01 -3.897802e-04)	(2.673680e-04 -2.806610e+01 -3.898224e-04)	(-6.264616e-08 -3.373095e-06 4.214995e-08)	(2.960115e-04 -3.899987e+01 -4.630855e-04)	(2.960804e-04 -3.899989e+01 -4.631546e-04)	(-6.893209e-08 2.183534e-05 6.902792e-08)	(1.775380e-04 -4.622423e+01 -1.540791e-04)	(1.776076e-04 -4.622428e+01 -1.541774e-04)	(-6.957942e-08 5.227730e-05 9.825436e-08)	(2.118955e-04 -5.176582e+01 -1.536168e-04)	(2.119640e-04 -5.176590e+01 -1.537439e-04)	(-6.849722e-08 7.948100e-05 1.271538e-07)	(6.955130e-04 -5.622828e+01 -4.228117e-04)	(6.955830e-04 -5.622838e+01 -4.229701e-04)	(-7.005001e-08 1.061361e-04 1.583808e-07)	(1.270451e-03 -5.943719e+01 -5.559304e-04)	(1.270522e-03 -5.943731e+01 -5.561220e-04)	(-7.157904e-08 1.265971e-04 1.915639e-07)	(-5.430599e-05 -6.183960e+01 -6.742898e-04)	(-5.423087e-05 -6.183974e+01 -6.745150e-04)	(-7.512204e-08 1.419897e-04 2.252606e-07)	(-1.637907e-04 -6.350395e+01 -3.813983e-06)	(-1.637176e-04 -6.350409e+01 -4.079439e-06)	(-7.309687e-08 1.476858e-04 2.654558e-07)	(-5.792392e-05 -6.446787e+01 -3.508319e-06)	(-5.785130e-05 -6.446802e+01 -3.802493e-06)	(-7.261250e-08 1.478838e-04 2.941747e-07)	(-2.444682e-05 -6.481772e+01 -1.179801e-05)	(-2.437594e-05 -6.481787e+01 -1.212088e-05)	(-7.087798e-08 1.471049e-04 3.228697e-07)	(-3.116516e-05 -6.446764e+01 -1.309475e-05)	(-3.109095e-05 -6.446779e+01 -1.344657e-05)	(-7.420976e-08 1.464487e-04 3.518134e-07)	(-1.029925e-05 -6.350389e+01 -1.918119e-05)	(-1.021622e-05 -6.350403e+01 -1.954975e-05)	(-8.302655e-08 1.452174e-04 3.685570e-07)	(7.025954e-04 -6.183873e+01 1.552367e-03)	(7.026804e-04 -6.183887e+01 1.552016e-03)	(-8.499802e-08 1.433875e-04 3.512575e-07)	(1.350248e-03 -5.943689e+01 5.179673e-04)	(1.350334e-03 -5.943703e+01 5.176473e-04)	(-8.578747e-08 1.412282e-04 3.199379e-07)	(7.526387e-04 -5.622821e+01 4.534604e-04)	(7.527293e-04 -5.622835e+01 4.531653e-04)	(-9.061335e-08 1.396087e-04 2.950985e-07)	(2.306085e-04 -5.176495e+01 1.458634e-04)	(2.307083e-04 -5.176509e+01 1.455884e-04)	(-9.979691e-08 1.378845e-04 2.749847e-07)	(9.245524e-05 -4.622340e+01 9.678485e-05)	(9.256748e-05 -4.622354e+01 9.652478e-05)	(-1.122406e-07 1.355001e-04 2.600794e-07)	(-1.753502e-05 -3.899665e+01 -1.747025e-05)	(-1.740622e-05 -3.899678e+01 -1.770053e-05)	(-1.288023e-07 1.320862e-04 2.302835e-07)	(-2.285295e-06 -2.806368e+01 6.815210e-06)	(-2.105168e-06 -2.806380e+01 6.649886e-06)	(-1.801267e-07 1.284679e-04 1.653242e-07)	(-1.649932e-05 9.158908e-03 1.169027e-05)	(-1.626685e-05 9.023097e-03 1.162079e-05)	(-2.324647e-07 1.358115e-04 6.948002e-08)