# Moment      
# CofR        : (0.000000e+00 0.000000e+00 0.000000e+00)
#
# Time        	(total_x total_y total_z)	(pressure_x pressure_y pressure_z)	(viscous_x viscous_y viscous_z)
2532.01       	(-1.817748e-05 9.158974e-03 8.574799e-06)	(-1.794467e-05 9.023166e-03 8.505106e-06)	(-2.328094e-07 1.358077e-04 6.969364e-08)
2532.01       	(-1.642180e-05 9.158804e-03 1.172199e-05)	(-1.618978e-05 9.022996e-03 1.165123e-05)	(-2.320216e-07 1.358080e-04 7.076474e-08)
2532.02       	(-1.819743e-05 9.158998e-03 8.563830e-06)	(-1.796451e-05 9.023190e-03 8.494468e-06)	(-2.329210e-07 1.358085e-04 6.936177e-08)
2532.02       	(-1.644164e-05 9.158830e-03 1.171335e-05)	(-1.620950e-05 9.023021e-03 1.164292e-05)	(-2.321330e-07 1.358089e-04 7.043595e-08)
2532.03       	(-1.821718e-05 9.159023e-03 8.553338e-06)	(-1.798415e-05 9.023213e-03 8.484304e-06)	(-2.330323e-07 1.358094e-04 6.903443e-08)
2532.03       	(-1.646115e-05 9.158856e-03 1.170549e-05)	(-1.622891e-05 9.023047e-03 1.163538e-05)	(-2.322439e-07 1.358098e-04 7.011229e-08)
2532.04       	(-1.823690e-05 9.159047e-03 8.543356e-06)	(-1.800375e-05 9.023237e-03 8.474644e-06)	(-2.331434e-07 1.358103e-04 6.871255e-08)
2532.04       	(-1.648054e-05 9.158882e-03 1.169758e-05)	(-1.624818e-05 9.023072e-03 1.162779e-05)	(-2.323547e-07 1.358106e-04 6.979376e-08)
2532.05       	(-1.825644e-05 9.159072e-03 8.533056e-06)	(-1.802319e-05 9.023261e-03 8.464661e-06)	(-2.332543e-07 1.358112e-04 6.839508e-08)
2532.05       	(-1.649932e-05 9.158908e-03 1.169027e-05)	(-1.626685e-05 9.023097e-03 1.162079e-05)	(-2.324647e-07 1.358115e-04 6.948002e-08)
2532.06       	(-1.827520e-05 9.159098e-03 8.523961e-06)	(-1.804183e-05 9.023286e-03 8.455877e-06)	(-2.333635e-07 1.358120e-04 6.808332e-08)
2532.06       	(-1.651754e-05 9.158935e-03 1.168363e-05)	(-1.628497e-05 9.023122e-03 1.161446e-05)	(-2.325725e-07 1.358124e-04 6.917231e-08)
2532.07       	(-1.829404e-05 9.159123e-03 8.514763e-06)	(-1.806057e-05 9.023310e-03 8.446986e-06)	(-2.334710e-07 1.358129e-04 6.777701e-08)
2532.07       	(-1.653607e-05 9.158961e-03 1.167685e-05)	(-1.630339e-05 9.023147e-03 1.160798e-05)	(-2.326792e-07 1.358133e-04 6.886951e-08)
2532.08       	(-1.831320e-05 9.159148e-03 8.505112e-06)	(-1.807963e-05 9.023335e-03 8.437637e-06)	(-2.335781e-07 1.358138e-04 6.747486e-08)
2532.08       	(-1.655474e-05 9.158987e-03 1.166977e-05)	(-1.632196e-05 9.023172e-03 1.160120e-05)	(-2.327860e-07 1.358141e-04 6.857034e-08)
2532.09       	(-1.833228e-05 9.159174e-03 8.495783e-06)	(-1.809860e-05 9.023359e-03 8.428607e-06)	(-2.336851e-07 1.358147e-04 6.717634e-08)
2532.09       	(-1.657261e-05 9.159012e-03 1.166394e-05)	(-1.633972e-05 9.023197e-03 1.159566e-05)	(-2.328918e-07 1.358150e-04 6.827591e-08)
2532.1        	(-1.835095e-05 9.159199e-03 8.487276e-06)	(-1.811716e-05 9.023384e-03 8.420393e-06)	(-2.337909e-07 1.358155e-04 6.688307e-08)
2532.1        	(-1.659031e-05 9.159038e-03 1.165836e-05)	(-1.635731e-05 9.023222e-03 1.159038e-05)	(-2.329963e-07 1.358159e-04 6.798666e-08)
2532.11       	(-1.836969e-05 9.159225e-03 8.478602e-06)	(-1.813580e-05 9.023408e-03 8.412007e-06)	(-2.338955e-07 1.358164e-04 6.659448e-08)
2532.11       	(-1.660743e-05 9.159063e-03 1.165327e-05)	(-1.637433e-05 9.023246e-03 1.158557e-05)	(-2.330992e-07 1.358168e-04 6.770222e-08)
2532.12       	(-1.838847e-05 9.159250e-03 8.470098e-06)	(-1.815448e-05 9.023433e-03 8.403787e-06)	(-2.339987e-07 1.358173e-04 6.631058e-08)
2532.12       	(-1.662402e-05 9.159088e-03 1.164901e-05)	(-1.639082e-05 9.023271e-03 1.158159e-05)	(-2.332003e-07 1.358176e-04 6.742291e-08)
2532.13       	(-1.840741e-05 9.159276e-03 8.461690e-06)	(-1.817331e-05 9.023458e-03 8.395658e-06)	(-2.341003e-07 1.358181e-04 6.603153e-08)
2532.13       	(-1.664027e-05 9.159113e-03 1.164522e-05)	(-1.640697e-05 9.023295e-03 1.157807e-05)	(-2.332997e-07 1.358185e-04 6.714854e-08)
2532.14       	(-1.842634e-05 9.159301e-03 8.453237e-06)	(-1.819214e-05 9.023482e-03 8.387480e-06)	(-2.342003e-07 1.358190e-04 6.575704e-08)
2532.15       	(-1.665592e-05 9.159137e-03 1.164193e-05)	(-1.642252e-05 9.023318e-03 1.157505e-05)	(-2.333969e-07 1.358193e-04 6.687885e-08)
2532.15       	(-1.844551e-05 9.159326e-03 8.444525e-06)	(-1.821121e-05 9.023506e-03 8.379039e-06)	(-2.342985e-07 1.358198e-04 6.548666e-08)
2532.16       	(-1.667107e-05 9.159161e-03 1.163950e-05)	(-1.643758e-05 9.023341e-03 1.157288e-05)	(-2.334919e-07 1.358202e-04 6.661373e-08)
2532.16       	(-1.846495e-05 9.159351e-03 8.435943e-06)	(-1.823056e-05 9.023531e-03 8.370723e-06)	(-2.343949e-07 1.358207e-04 6.522058e-08)
2532.17       	(-1.668550e-05 9.159185e-03 1.163794e-05)	(-1.645191e-05 9.023364e-03 1.157158e-05)	(-2.335846e-07 1.358210e-04 6.635344e-08)
2532.17       	(-1.848437e-05 9.159377e-03 8.427748e-06)	(-1.824988e-05 9.023555e-03 8.362788e-06)	(-2.344890e-07 1.358215e-04 6.495923e-08)
2532.18       	(-1.670011e-05 9.159212e-03 1.163493e-05)	(-1.646644e-05 9.023390e-03 1.156883e-05)	(-2.336753e-07 1.358219e-04 6.609657e-08)
2532.18       	(-1.850410e-05 9.159401e-03 8.418915e-06)	(-1.826952e-05 9.023579e-03 8.354213e-06)	(-2.345817e-07 1.358224e-04 6.470158e-08)
2532.19       	(-1.671351e-05 9.159234e-03 1.163446e-05)	(-1.647975e-05 9.023412e-03 1.156862e-05)	(-2.337634e-07 1.358227e-04 6.584496e-08)
2532.19       	(-1.852437e-05 9.159425e-03 8.410109e-06)	(-1.828970e-05 9.023602e-03 8.345661e-06)	(-2.346725e-07 1.358232e-04 6.444754e-08)
2532.2        	(-1.672640e-05 9.159256e-03 1.163420e-05)	(-1.649255e-05 9.023433e-03 1.156860e-05)	(-2.338493e-07 1.358235e-04 6.559699e-08)
2532.2        	(-1.854533e-05 9.159449e-03 8.400650e-06)	(-1.831057e-05 9.023625e-03 8.336454e-06)	(-2.347618e-07 1.358240e-04 6.419634e-08)
2532.21       	(-1.673788e-05 9.159277e-03 1.163602e-05)	(-1.650395e-05 9.023453e-03 1.157067e-05)	(-2.339322e-07 1.358243e-04 6.535356e-08)
2532.21       	(-1.856675e-05 9.159472e-03 8.391170e-06)	(-1.833190e-05 9.023648e-03 8.327220e-06)	(-2.348487e-07 1.358248e-04 6.394953e-08)
2532.22       	(-1.674845e-05 9.159298e-03 1.163843e-05)	(-1.651444e-05 9.023473e-03 1.157332e-05)	(-2.340121e-07 1.358251e-04 6.511457e-08)
2532.22       	(-1.858963e-05 9.159495e-03 8.379495e-06)	(-1.835469e-05 9.023669e-03 8.315790e-06)	(-2.349343e-07 1.358256e-04 6.370498e-08)
2532.23       	(-1.675748e-05 9.159319e-03 1.164236e-05)	(-1.652339e-05 9.023493e-03 1.157748e-05)	(-2.340892e-07 1.358259e-04 6.487910e-08)
2532.23       	(-1.861384e-05 9.159517e-03 8.366283e-06)	(-1.837882e-05 9.023691e-03 8.302820e-06)	(-2.350185e-07 1.358264e-04 6.346262e-08)
2532.24       	(-1.676502e-05 9.159339e-03 1.164761e-05)	(-1.653085e-05 9.023513e-03 1.158296e-05)	(-2.341636e-07 1.358267e-04 6.464658e-08)
2532.24       	(-1.864019e-05 9.159539e-03 8.350632e-06)	(-1.840509e-05 9.023712e-03 8.287412e-06)	(-2.351022e-07 1.358271e-04 6.322047e-08)
2532.25       	(-1.676990e-05 9.159360e-03 1.165620e-05)	(-1.653567e-05 9.023533e-03 1.159178e-05)	(-2.342349e-07 1.358274e-04 6.441729e-08)
2532.25       	(-1.866828e-05 9.159559e-03 8.332274e-06)	(-1.843309e-05 9.023732e-03 8.269293e-06)	(-2.351844e-07 1.358279e-04 6.298064e-08)
2532.26       	(-1.677196e-05 9.159380e-03 1.166711e-05)	(-1.653765e-05 9.023552e-03 1.160292e-05)	(-2.343023e-07 1.358282e-04 6.419216e-08)
2532.26       	(-1.869932e-05 9.159581e-03 8.309662e-06)	(-1.846406e-05 9.023752e-03 8.246919e-06)	(-2.352656e-07 1.358286e-04 6.274221e-08)
2532.27       	(-1.677063e-05 9.159400e-03 1.168188e-05)	(-1.653626e-05 9.023571e-03 1.161791e-05)	(-2.343657e-07 1.358289e-04 6.397111e-08)
2532.27       	(-1.873351e-05 9.159602e-03 8.282999e-06)	(-1.849817e-05 9.023773e-03 8.220494e-06)	(-2.353457e-07 1.358294e-04 6.250496e-08)
2532.28       	(-1.676630e-05 9.159420e-03 1.169921e-05)	(-1.653187e-05 9.023591e-03 1.163546e-05)	(-2.344251e-07 1.358296e-04 6.375352e-08)
2532.28       	(-1.877066e-05 9.159624e-03 8.253157e-06)	(-1.853523e-05 9.023794e-03 8.190888e-06)	(-2.354249e-07 1.358301e-04 6.226887e-08)
2532.29       	(-1.676931e-05 9.159463e-03 1.170450e-05)	(-1.653483e-05 9.023632e-03 1.164096e-05)	(-2.344829e-07 1.358304e-04 6.354052e-08)
2532.3        	(-1.880337e-05 9.159616e-03 8.245233e-06)	(-1.856787e-05 9.023786e-03 8.183199e-06)	(-2.355042e-07 1.358308e-04 6.203413e-08)
2532.3        	(-1.675686e-05 9.159482e-03 1.172968e-05)	(-1.652233e-05 9.023651e-03 1.166635e-05)	(-2.345333e-07 1.358311e-04 6.332984e-08)
2532.31       	(-1.884771e-05 9.159639e-03 8.208080e-06)	(-1.861213e-05 9.023808e-03 8.146283e-06)	(-2.355823e-07 1.358315e-04 6.179737e-08)
2532.31       	(-1.674109e-05 9.159499e-03 1.175978e-05)	(-1.650651e-05 9.023667e-03 1.169665e-05)	(-2.345793e-07 1.358318e-04 6.312209e-08)
2532.32       	(-1.889745e-05 9.159660e-03 8.166234e-06)	(-1.866178e-05 9.023827e-03 8.104673e-06)	(-2.356612e-07 1.358322e-04 6.156063e-08)
2532.32       	(-1.672005e-05 9.159518e-03 1.179483e-05)	(-1.648543e-05 9.023685e-03 1.173191e-05)	(-2.346209e-07 1.358325e-04 6.291817e-08)
2532.33       	(-1.895190e-05 9.159679e-03 8.120868e-06)	(-1.871616e-05 9.023846e-03 8.059544e-06)	(-2.357405e-07 1.358329e-04 6.132398e-08)
2532.33       	(-1.669275e-05 9.159541e-03 1.183571e-05)	(-1.645809e-05 9.023708e-03 1.177299e-05)	(-2.346568e-07 1.358331e-04 6.271831e-08)
2532.34       	(-1.901241e-05 9.159691e-03 8.070318e-06)	(-1.877659e-05 9.023858e-03 8.009231e-06)	(-2.358200e-07 1.358336e-04 6.108650e-08)
2532.34       	(-1.665897e-05 9.159563e-03 1.188327e-05)	(-1.642429e-05 9.023729e-03 1.182075e-05)	(-2.346870e-07 1.358338e-04 6.252276e-08)
2532.35       	(-1.908008e-05 9.159708e-03 8.011584e-06)	(-1.884418e-05 9.023874e-03 7.950737e-06)	(-2.359011e-07 1.358343e-04 6.084676e-08)
2532.35       	(-1.661761e-05 9.159576e-03 1.193959e-05)	(-1.638290e-05 9.023741e-03 1.187726e-05)	(-2.347112e-07 1.358345e-04 6.233191e-08)
2532.36       	(-1.915491e-05 9.159732e-03 7.944394e-06)	(-1.891893e-05 9.023897e-03 7.883789e-06)	(-2.359833e-07 1.358349e-04 6.060507e-08)
2532.36       	(-1.657011e-05 9.159587e-03 1.200189e-05)	(-1.633538e-05 9.023751e-03 1.193975e-05)	(-2.347307e-07 1.358351e-04 6.214432e-08)
2532.37       	(-1.923369e-05 9.159750e-03 7.877499e-06)	(-1.899762e-05 9.023915e-03 7.817134e-06)	(-2.360646e-07 1.358356e-04 6.036486e-08)
2532.37       	(-1.651895e-05 9.159598e-03 1.206593e-05)	(-1.628420e-05 9.023762e-03 1.200397e-05)	(-2.347460e-07 1.358358e-04 6.195910e-08)
2532.38       	(-1.931667e-05 9.159774e-03 7.805165e-06)	(-1.908052e-05 9.023937e-03 7.745042e-06)	(-2.361461e-07 1.358362e-04 6.012256e-08)
2532.38       	(-1.648146e-05 9.159608e-03 1.211740e-05)	(-1.624669e-05 9.023771e-03 1.205564e-05)	(-2.347745e-07 1.358364e-04 6.176288e-08)
2532.39       	(-1.935727e-05 9.159793e-03 7.776087e-06)	(-1.912107e-05 9.023956e-03 7.716184e-06)	(-2.361991e-07 1.358368e-04 5.990331e-08)
2532.39       	(-1.648769e-05 9.159616e-03 1.212646e-05)	(-1.625287e-05 9.023779e-03 1.206490e-05)	(-2.348179e-07 1.358370e-04 6.155448e-08)
2532.4        	(-1.937220e-05 9.159814e-03 7.771210e-06)	(-1.913596e-05 9.023977e-03 7.711518e-06)	(-2.362419e-07 1.358375e-04 5.969237e-08)
2532.4        	(-1.650481e-05 9.159631e-03 1.212349e-05)	(-1.626995e-05 9.023793e-03 1.206214e-05)	(-2.348619e-07 1.358376e-04 6.134401e-08)
2532.41       	(-1.938434e-05 9.159830e-03 7.770216e-06)	(-1.914806e-05 9.023992e-03 7.710733e-06)	(-2.362827e-07 1.358381e-04 5.948288e-08)
2532.41       	(-1.652218e-05 9.159646e-03 1.212043e-05)	(-1.628728e-05 9.023808e-03 1.205929e-05)	(-2.349040e-07 1.358382e-04 6.113472e-08)
2532.42       	(-1.939675e-05 9.159846e-03 7.769263e-06)	(-1.916042e-05 9.024007e-03 7.709989e-06)	(-2.363220e-07 1.358387e-04 5.927451e-08)
2532.42       	(-1.653958e-05 9.159661e-03 1.211753e-05)	(-1.630464e-05 9.023822e-03 1.205660e-05)	(-2.349447e-07 1.358388e-04 6.092656e-08)
2532.43       	(-1.940919e-05 9.159862e-03 7.768327e-06)	(-1.917283e-05 9.024022e-03 7.709260e-06)	(-2.363600e-07 1.358393e-04 5.906726e-08)
2532.44       	(-1.655688e-05 9.159675e-03 1.211487e-05)	(-1.632190e-05 9.023836e-03 1.205415e-05)	(-2.349842e-07 1.358394e-04 6.071964e-08)
2532.44       	(-1.942188e-05 9.159877e-03 7.767284e-06)	(-1.918548e-05 9.024037e-03 7.708422e-06)	(-2.363970e-07 1.358398e-04 5.886117e-08)
2532.45       	(-1.657414e-05 9.159690e-03 1.211236e-05)	(-1.633912e-05 9.023850e-03 1.205184e-05)	(-2.350226e-07 1.358400e-04 6.051389e-08)
2532.45       	(-1.943463e-05 9.159892e-03 7.766239e-06)	(-1.919820e-05 9.024052e-03 7.707583e-06)	(-2.364330e-07 1.358404e-04 5.865616e-08)
2532.46       	(-1.659141e-05 9.159703e-03 1.210986e-05)	(-1.635635e-05 9.023863e-03 1.204955e-05)	(-2.350601e-07 1.358406e-04 6.030916e-08)
2532.46       	(-1.944745e-05 9.159907e-03 7.765311e-06)	(-1.921098e-05 9.024066e-03 7.706859e-06)	(-2.364684e-07 1.358410e-04 5.845226e-08)
2532.47       	(-1.660864e-05 9.159717e-03 1.210756e-05)	(-1.637354e-05 9.023876e-03 1.204746e-05)	(-2.350969e-07 1.358411e-04 6.010568e-08)
2532.47       	(-1.946037e-05 9.159922e-03 7.764415e-06)	(-1.922386e-05 9.024080e-03 7.706165e-06)	(-2.365030e-07 1.358415e-04 5.824959e-08)
2532.48       	(-1.662605e-05 9.159737e-03 1.210421e-05)	(-1.639091e-05 9.023895e-03 1.204431e-05)	(-2.351332e-07 1.358417e-04 5.990256e-08)
2532.48       	(-1.947313e-05 9.159931e-03 7.764477e-06)	(-1.923659e-05 9.024089e-03 7.706428e-06)	(-2.365369e-07 1.358421e-04 5.804818e-08)
2532.49       	(-1.664325e-05 9.159750e-03 1.210202e-05)	(-1.640808e-05 9.023908e-03 1.204232e-05)	(-2.351686e-07 1.358422e-04 5.970156e-08)
2532.49       	(-1.948599e-05 9.159946e-03 7.763733e-06)	(-1.924942e-05 9.024103e-03 7.705885e-06)	(-2.365700e-07 1.358426e-04 5.784801e-08)
2532.5        	(-1.666052e-05 9.159763e-03 1.209992e-05)	(-1.642531e-05 9.023920e-03 1.204042e-05)	(-2.352033e-07 1.358428e-04 5.950188e-08)
2532.5        	(-1.949891e-05 9.159960e-03 7.763236e-06)	(-1.926231e-05 9.024117e-03 7.705587e-06)	(-2.366027e-07 1.358432e-04 5.764936e-08)
2532.51       	(-1.667805e-05 9.159775e-03 1.209794e-05)	(-1.644281e-05 9.023932e-03 1.203863e-05)	(-2.352378e-07 1.358433e-04 5.930380e-08)
2532.51       	(-1.951199e-05 9.159975e-03 7.762805e-06)	(-1.927536e-05 9.024131e-03 7.705353e-06)	(-2.366353e-07 1.358437e-04 5.745227e-08)
2532.52       	(-1.669562e-05 9.159787e-03 1.209561e-05)	(-1.646035e-05 9.023944e-03 1.203651e-05)	(-2.352722e-07 1.358438e-04 5.910698e-08)
2532.52       	(-1.952511e-05 9.159989e-03 7.762872e-06)	(-1.928844e-05 9.024145e-03 7.705615e-06)	(-2.366679e-07 1.358442e-04 5.725682e-08)
2532.53       	(-1.671357e-05 9.159799e-03 1.209320e-05)	(-1.647827e-05 9.023955e-03 1.203428e-05)	(-2.353070e-07 1.358443e-04 5.891180e-08)
2532.53       	(-1.953794e-05 9.160003e-03 7.763285e-06)	(-1.930124e-05 9.024158e-03 7.706222e-06)	(-2.367005e-07 1.358447e-04 5.706313e-08)
2532.54       	(-1.673123e-05 9.159810e-03 1.209117e-05)	(-1.649589e-05 9.023966e-03 1.203245e-05)	(-2.353414e-07 1.358448e-04 5.871860e-08)
2532.54       	(-1.955123e-05 9.160017e-03 7.763224e-06)	(-1.931450e-05 9.024172e-03 7.706353e-06)	(-2.367331e-07 1.358452e-04 5.687112e-08)
2532.55       	(-1.674842e-05 9.159822e-03 1.208982e-05)	(-1.651304e-05 9.023977e-03 1.203130e-05)	(-2.353753e-07 1.358453e-04 5.852745e-08)
2532.55       	(-1.956481e-05 9.160030e-03 7.762512e-06)	(-1.932804e-05 9.024184e-03 7.705832e-06)	(-2.367655e-07 1.358457e-04 5.668066e-08)
2532.56       	(-1.676551e-05 9.159834e-03 1.208866e-05)	(-1.653010e-05 9.023988e-03 1.203032e-05)	(-2.354091e-07 1.358458e-04 5.833792e-08)
2532.56       	(-1.957870e-05 9.160043e-03 7.761878e-06)	(-1.934190e-05 9.024197e-03 7.705387e-06)	(-2.367979e-07 1.358462e-04 5.649177e-08)
2532.57       	(-1.678275e-05 9.159845e-03 1.208780e-05)	(-1.654731e-05 9.023999e-03 1.202965e-05)	(-2.354431e-07 1.358463e-04 5.815017e-08)
2532.58       	(-1.959267e-05 9.160056e-03 7.761273e-06)	(-1.935584e-05 9.024209e-03 7.704968e-06)	(-2.368307e-07 1.358466e-04 5.630473e-08)
2532.58       	(-1.680030e-05 9.159856e-03 1.208726e-05)	(-1.656482e-05 9.024009e-03 1.202929e-05)	(-2.354775e-07 1.358467e-04 5.796453e-08)
2532.59       	(-1.960693e-05 9.160068e-03 7.760901e-06)	(-1.937007e-05 9.024221e-03 7.704782e-06)	(-2.368642e-07 1.358471e-04 5.611993e-08)
2532.59       	(-1.681749e-05 9.159867e-03 1.208661e-05)	(-1.658198e-05 9.024019e-03 1.202883e-05)	(-2.355124e-07 1.358472e-04 5.778090e-08)
2532.6        	(-1.962117e-05 9.160081e-03 7.760210e-06)	(-1.938427e-05 9.024233e-03 7.704273e-06)	(-2.368979e-07 1.358475e-04 5.593678e-08)
2532.6        	(-1.683472e-05 9.159877e-03 1.208631e-05)	(-1.659918e-05 9.024030e-03 1.202871e-05)	(-2.355475e-07 1.358476e-04 5.759910e-08)
2532.61       	(-1.963559e-05 9.160093e-03 7.759399e-06)	(-1.939866e-05 9.024245e-03 7.703644e-06)	(-2.369321e-07 1.358480e-04 5.575527e-08)
2532.61       	(-1.685204e-05 9.159887e-03 1.208648e-05)	(-1.661646e-05 9.024039e-03 1.202906e-05)	(-2.355831e-07 1.358481e-04 5.741924e-08)
2532.62       	(-1.965016e-05 9.160105e-03 7.758338e-06)	(-1.941320e-05 9.024256e-03 7.702763e-06)	(-2.369668e-07 1.358484e-04 5.557541e-08)
2532.62       	(-1.686928e-05 9.159896e-03 1.208654e-05)	(-1.663366e-05 9.024047e-03 1.202930e-05)	(-2.356190e-07 1.358485e-04 5.724091e-08)
2532.63       	(-1.966497e-05 9.160117e-03 7.757377e-06)	(-1.942797e-05 9.024268e-03 7.701980e-06)	(-2.370021e-07 1.358488e-04 5.539722e-08)
2532.63       	(-1.688656e-05 9.159905e-03 1.208619e-05)	(-1.665090e-05 9.024056e-03 1.202912e-05)	(-2.356556e-07 1.358489e-04 5.706398e-08)
2532.64       	(-1.967986e-05 9.160129e-03 7.756749e-06)	(-1.944282e-05 9.024280e-03 7.701528e-06)	(-2.370379e-07 1.358492e-04 5.522069e-08)
2532.64       	(-1.690381e-05 9.159914e-03 1.208593e-05)	(-1.666812e-05 9.024064e-03 1.202904e-05)	(-2.356926e-07 1.358493e-04 5.688870e-08)
2532.65       	(-1.969483e-05 9.160140e-03 7.756458e-06)	(-1.945776e-05 9.024291e-03 7.701412e-06)	(-2.370743e-07 1.358496e-04 5.504603e-08)
2532.65       	(-1.692109e-05 9.159923e-03 1.208577e-05)	(-1.668536e-05 9.024073e-03 1.202905e-05)	(-2.357301e-07 1.358497e-04 5.671530e-08)
2532.66       	(-1.970992e-05 9.160152e-03 7.756344e-06)	(-1.947281e-05 9.024302e-03 7.701471e-06)	(-2.371111e-07 1.358500e-04 5.487324e-08)
2532.66       	(-1.693837e-05 9.159931e-03 1.208577e-05)	(-1.670260e-05 9.024081e-03 1.202923e-05)	(-2.357681e-07 1.358500e-04 5.654378e-08)
2532.67       	(-1.972511e-05 9.160163e-03 7.755602e-06)	(-1.948796e-05 9.024312e-03 7.700901e-06)	(-2.371484e-07 1.358504e-04 5.470180e-08)
2532.67       	(-1.695547e-05 9.159939e-03 1.208592e-05)	(-1.671966e-05 9.024089e-03 1.202955e-05)	(-2.358063e-07 1.358504e-04 5.637364e-08)
2532.68       	(-1.974050e-05 9.160173e-03 7.754453e-06)	(-1.950331e-05 9.024322e-03 7.699922e-06)	(-2.371862e-07 1.358507e-04 5.453151e-08)
2532.68       	(-1.697286e-05 9.159947e-03 1.208665e-05)	(-1.673702e-05 9.024097e-03 1.203044e-05)	(-2.358452e-07 1.358507e-04 5.620518e-08)
2532.69       	(-1.975613e-05 9.160183e-03 7.753194e-06)	(-1.951891e-05 9.024332e-03 7.698831e-06)	(-2.372249e-07 1.358511e-04 5.436275e-08)
2532.69       	(-1.699019e-05 9.159955e-03 1.208763e-05)	(-1.675431e-05 9.024104e-03 1.203159e-05)	(-2.358848e-07 1.358511e-04 5.603839e-08)
2532.7        	(-1.977197e-05 9.160193e-03 7.752136e-06)	(-1.953471e-05 9.024342e-03 7.697940e-06)	(-2.372644e-07 1.358514e-04 5.419574e-08)
2532.7        	(-1.700755e-05 9.159963e-03 1.208870e-05)	(-1.677163e-05 9.024111e-03 1.203283e-05)	(-2.359253e-07 1.358514e-04 5.587332e-08)
2532.71       	(-1.978785e-05 9.160202e-03 7.751086e-06)	(-1.955054e-05 9.024351e-03 7.697056e-06)	(-2.373047e-07 1.358517e-04 5.403036e-08)
2532.72       	(-1.702484e-05 9.159970e-03 1.208973e-05)	(-1.678888e-05 9.024118e-03 1.203402e-05)	(-2.359664e-07 1.358517e-04 5.570978e-08)
2532.72       	(-1.980388e-05 9.160212e-03 7.750190e-06)	(-1.956653e-05 9.024360e-03 7.696323e-06)	(-2.373457e-07 1.358520e-04 5.386654e-08)
2532.73       	(-1.704246e-05 9.159975e-03 1.209057e-05)	(-1.680646e-05 9.024123e-03 1.203502e-05)	(-2.360085e-07 1.358520e-04 5.554759e-08)
2532.73       	(-1.982000e-05 9.160221e-03 7.749247e-06)	(-1.958262e-05 9.024368e-03 7.695543e-06)	(-2.373877e-07 1.358523e-04 5.370405e-08)
2532.74       	(-1.705992e-05 9.159982e-03 1.209170e-05)	(-1.682386e-05 9.024130e-03 1.203631e-05)	(-2.360513e-07 1.358523e-04 5.538677e-08)
2532.74       	(-1.983620e-05 9.160229e-03 7.748489e-06)	(-1.959877e-05 9.024377e-03 7.694947e-06)	(-2.374305e-07 1.358526e-04 5.354289e-08)
2532.75       	(-1.707735e-05 9.159989e-03 1.209298e-05)	(-1.684125e-05 9.024136e-03 1.203775e-05)	(-2.360947e-07 1.358525e-04 5.522730e-08)
2532.75       	(-1.985249e-05 9.160237e-03 7.747788e-06)	(-1.961502e-05 9.024384e-03 7.694405e-06)	(-2.374740e-07 1.358528e-04 5.338302e-08)
2532.76       	(-1.709476e-05 9.159995e-03 1.209432e-05)	(-1.685862e-05 9.024142e-03 1.203926e-05)	(-2.361389e-07 1.358528e-04 5.506912e-08)
2532.76       	(-1.986883e-05 9.160245e-03 7.747084e-06)	(-1.963131e-05 9.024392e-03 7.693860e-06)	(-2.375181e-07 1.358531e-04 5.322439e-08)
2532.77       	(-1.711219e-05 9.160001e-03 1.209577e-05)	(-1.687601e-05 9.024148e-03 1.204086e-05)	(-2.361836e-07 1.358530e-04 5.491216e-08)
2532.77       	(-1.988506e-05 9.160252e-03 7.746219e-06)	(-1.964750e-05 9.024399e-03 7.693153e-06)	(-2.375626e-07 1.358533e-04 5.306670e-08)
2532.78       	(-1.712933e-05 9.160007e-03 1.209693e-05)	(-1.689310e-05 9.024153e-03 1.204218e-05)	(-2.362283e-07 1.358533e-04 5.475582e-08)
2532.78       	(-1.990160e-05 9.160260e-03 7.745565e-06)	(-1.966399e-05 9.024406e-03 7.692656e-06)	(-2.376075e-07 1.358535e-04 5.290977e-08)
2532.79       	(-1.714690e-05 9.160012e-03 1.209838e-05)	(-1.691063e-05 9.024158e-03 1.204378e-05)	(-2.362740e-07 1.358535e-04 5.460045e-08)
2532.79       	(-1.991825e-05 9.160266e-03 7.744990e-06)	(-1.968060e-05 9.024413e-03 7.692237e-06)	(-2.376534e-07 1.358537e-04 5.275378e-08)
2532.8        	(-1.716472e-05 9.160017e-03 1.209991e-05)	(-1.692839e-05 9.024163e-03 1.204547e-05)	(-2.363207e-07 1.358537e-04 5.444601e-08)
2532.8        	(-1.993464e-05 9.160274e-03 7.745675e-06)	(-1.969694e-05 9.024420e-03 7.693076e-06)	(-2.376999e-07 1.358539e-04 5.259881e-08)
2532.81       	(-1.718255e-05 9.160021e-03 1.210158e-05)	(-1.694618e-05 9.024167e-03 1.204729e-05)	(-2.363681e-07 1.358539e-04 5.429257e-08)
2532.81       	(-1.995096e-05 9.160280e-03 7.745112e-06)	(-1.971322e-05 9.024426e-03 7.692667e-06)	(-2.377470e-07 1.358541e-04 5.244479e-08)
2532.82       	(-1.720076e-05 9.160023e-03 1.210236e-05)	(-1.696435e-05 9.024169e-03 1.204822e-05)	(-2.364163e-07 1.358540e-04 5.413970e-08)
2532.82       	(-1.996718e-05 9.160285e-03 7.744921e-06)	(-1.972939e-05 9.024431e-03 7.692629e-06)	(-2.377947e-07 1.358543e-04 5.229170e-08)
2532.83       	(-1.721921e-05 9.160028e-03 1.210357e-05)	(-1.698275e-05 9.024174e-03 1.204958e-05)	(-2.364654e-07 1.358542e-04 5.398770e-08)
2532.83       	(-1.998306e-05 9.160289e-03 7.745036e-06)	(-1.974521e-05 9.024435e-03 7.692896e-06)	(-2.378429e-07 1.358544e-04 5.213963e-08)
2532.84       	(-1.723779e-05 9.160032e-03 1.210468e-05)	(-1.700128e-05 9.024178e-03 1.205085e-05)	(-2.365150e-07 1.358544e-04 5.383656e-08)
2532.84       	(-1.999903e-05 9.160293e-03 7.745213e-06)	(-1.976114e-05 9.024439e-03 7.693225e-06)	(-2.378917e-07 1.358546e-04 5.198838e-08)
2532.85       	(-1.725641e-05 9.160036e-03 1.210581e-05)	(-1.701985e-05 9.024182e-03 1.205213e-05)	(-2.365653e-07 1.358545e-04 5.368617e-08)
2532.85       	(-2.001502e-05 9.160297e-03 7.745322e-06)	(-1.977708e-05 9.024442e-03 7.693484e-06)	(-2.379412e-07 1.358547e-04 5.183777e-08)
2532.86       	(-1.727505e-05 9.160040e-03 1.210708e-05)	(-1.703843e-05 9.024185e-03 1.205355e-05)	(-2.366162e-07 1.358546e-04 5.353651e-08)
2532.87       	(-2.003104e-05 9.160300e-03 7.745526e-06)	(-1.979305e-05 9.024445e-03 7.693838e-06)	(-2.379913e-07 1.358548e-04 5.168792e-08)
2532.87       	(-1.729383e-05 9.160043e-03 1.210839e-05)	(-1.705716e-05 9.024188e-03 1.205500e-05)	(-2.366679e-07 1.358547e-04 5.338754e-08)
2532.88       	(-2.004708e-05 9.160303e-03 7.745616e-06)	(-1.980904e-05 9.024448e-03 7.694078e-06)	(-2.380421e-07 1.358549e-04 5.153858e-08)
2532.88       	(-1.731262e-05 9.160046e-03 1.210984e-05)	(-1.707590e-05 9.024191e-03 1.205660e-05)	(-2.367202e-07 1.358548e-04 5.323908e-08)
2532.89       	(-2.006307e-05 9.160305e-03 7.745656e-06)	(-1.982497e-05 9.024450e-03 7.694267e-06)	(-2.380936e-07 1.358550e-04 5.138967e-08)
2532.89       	(-1.733143e-05 9.160047e-03 1.211113e-05)	(-1.709465e-05 9.024192e-03 1.205804e-05)	(-2.367731e-07 1.358549e-04 5.309115e-08)
2532.9        	(-2.007906e-05 9.160308e-03 7.745606e-06)	(-1.984091e-05 9.024453e-03 7.694365e-06)	(-2.381456e-07 1.358551e-04 5.124116e-08)
2532.9        	(-1.735028e-05 9.160049e-03 1.211274e-05)	(-1.711345e-05 9.024194e-03 1.205980e-05)	(-2.368265e-07 1.358550e-04 5.294355e-08)
2532.91       	(-2.009504e-05 9.160309e-03 7.746119e-06)	(-1.985684e-05 9.024454e-03 7.695026e-06)	(-2.381981e-07 1.358551e-04 5.109337e-08)
2532.91       	(-1.736906e-05 9.160052e-03 1.211400e-05)	(-1.713218e-05 9.024197e-03 1.206120e-05)	(-2.368805e-07 1.358550e-04 5.279634e-08)
2532.92       	(-2.011101e-05 9.160311e-03 7.746759e-06)	(-1.987276e-05 9.024456e-03 7.695813e-06)	(-2.382511e-07 1.358552e-04 5.094595e-08)
2532.92       	(-1.738794e-05 9.160053e-03 1.211515e-05)	(-1.715100e-05 9.024198e-03 1.206250e-05)	(-2.369350e-07 1.358551e-04 5.264933e-08)
2532.93       	(-2.012700e-05 9.160312e-03 7.747455e-06)	(-1.988870e-05 9.024457e-03 7.696656e-06)	(-2.383045e-07 1.358552e-04 5.079877e-08)
2532.93       	(-1.740680e-05 9.160055e-03 1.211638e-05)	(-1.716981e-05 9.024200e-03 1.206388e-05)	(-2.369900e-07 1.358551e-04 5.250259e-08)
2532.94       	(-2.014296e-05 9.160313e-03 7.748214e-06)	(-1.990460e-05 9.024457e-03 7.697562e-06)	(-2.383585e-07 1.358553e-04 5.065186e-08)
2532.94       	(-1.742555e-05 9.160056e-03 1.211766e-05)	(-1.718850e-05 9.024201e-03 1.206530e-05)	(-2.370453e-07 1.358551e-04 5.235610e-08)
2532.95       	(-2.015885e-05 9.160313e-03 7.749064e-06)	(-1.992043e-05 9.024458e-03 7.698559e-06)	(-2.384127e-07 1.358553e-04 5.050523e-08)
2532.95       	(-1.744435e-05 9.160057e-03 1.211886e-05)	(-1.720725e-05 9.024201e-03 1.206665e-05)	(-2.371010e-07 1.358551e-04 5.220977e-08)
2532.96       	(-2.017486e-05 9.160313e-03 7.750032e-06)	(-1.993639e-05 9.024458e-03 7.699673e-06)	(-2.384673e-07 1.358553e-04 5.035869e-08)
2532.96       	(-1.746308e-05 9.160057e-03 1.212018e-05)	(-1.722592e-05 9.024202e-03 1.206811e-05)	(-2.371570e-07 1.358551e-04 5.206362e-08)
2532.97       	(-2.019079e-05 9.160313e-03 7.751066e-06)	(-1.995227e-05 9.024458e-03 7.700854e-06)	(-2.385222e-07 1.358553e-04 5.021247e-08)
2532.97       	(-1.748189e-05 9.160057e-03 1.212148e-05)	(-1.724467e-05 9.024202e-03 1.206957e-05)	(-2.372133e-07 1.358551e-04 5.191771e-08)
2532.98       	(-2.020666e-05 9.160314e-03 7.753192e-06)	(-1.996808e-05 9.024459e-03 7.703125e-06)	(-2.385775e-07 1.358553e-04 5.006648e-08)
2532.98       	(-1.750060e-05 9.160057e-03 1.212300e-05)	(-1.726333e-05 9.024202e-03 1.207123e-05)	(-2.372700e-07 1.358551e-04 5.177212e-08)
2532.99       	(-2.022249e-05 9.160313e-03 7.754343e-06)	(-1.998386e-05 9.024458e-03 7.704422e-06)	(-2.386330e-07 1.358552e-04 4.992083e-08)
2532.99       	(-1.751932e-05 9.160057e-03 1.212433e-05)	(-1.728200e-05 9.024201e-03 1.207270e-05)	(-2.373269e-07 1.358551e-04 5.162675e-08)
2533          	(-2.023827e-05 9.160312e-03 7.755620e-06)	(-1.999959e-05 9.024457e-03 7.705844e-06)	(-2.386887e-07 1.358552e-04 4.977545e-08)
2533.01       	(-1.753809e-05 9.160056e-03 1.212576e-05)	(-1.730071e-05 9.024201e-03 1.207428e-05)	(-2.373841e-07 1.358550e-04 5.148160e-08)
2533.01       	(-2.025425e-05 9.160310e-03 7.756958e-06)	(-2.001550e-05 9.024455e-03 7.707328e-06)	(-2.387448e-07 1.358551e-04 4.963028e-08)
2533.02       	(-1.755674e-05 9.160055e-03 1.212719e-05)	(-1.731930e-05 9.024200e-03 1.207586e-05)	(-2.374416e-07 1.358550e-04 5.133660e-08)
2533.02       	(-2.027015e-05 9.160308e-03 7.758374e-06)	(-2.003135e-05 9.024453e-03 7.708889e-06)	(-2.388012e-07 1.358551e-04 4.948532e-08)
2533.03       	(-1.757529e-05 9.160056e-03 1.212692e-05)	(-1.733779e-05 9.024202e-03 1.207572e-05)	(-2.374993e-07 1.358549e-04 5.119063e-08)
2533.03       	(-2.028614e-05 9.160304e-03 7.760943e-06)	(-2.004728e-05 9.024449e-03 7.711603e-06)	(-2.388579e-07 1.358550e-04 4.934059e-08)
2533.04       	(-1.759380e-05 9.160055e-03 1.212842e-05)	(-1.735624e-05 9.024200e-03 1.207738e-05)	(-2.375572e-07 1.358548e-04 5.104606e-08)
2533.04       	(-2.030200e-05 9.160302e-03 7.762470e-06)	(-2.006308e-05 9.024447e-03 7.713274e-06)	(-2.389146e-07 1.358549e-04 4.919607e-08)
2533.05       	(-1.761228e-05 9.160053e-03 1.212993e-05)	(-1.737466e-05 9.024198e-03 1.207902e-05)	(-2.376152e-07 1.358547e-04 5.090168e-08)
2533.05       	(-2.031781e-05 9.160299e-03 7.764068e-06)	(-2.007884e-05 9.024444e-03 7.715016e-06)	(-2.389715e-07 1.358548e-04 4.905179e-08)
2533.06       	(-1.763075e-05 9.160047e-03 1.213306e-05)	(-1.739308e-05 9.024192e-03 1.208230e-05)	(-2.376732e-07 1.358546e-04 5.075858e-08)
2533.06       	(-2.033353e-05 9.160298e-03 7.764844e-06)	(-2.009450e-05 9.024443e-03 7.715936e-06)	(-2.390284e-07 1.358547e-04 4.890779e-08)
2533.07       	(-1.764920e-05 9.160044e-03 1.213455e-05)	(-1.741147e-05 9.024190e-03 1.208394e-05)	(-2.377314e-07 1.358545e-04 5.061459e-08)
2533.07       	(-2.034932e-05 9.160295e-03 7.766706e-06)	(-2.011024e-05 9.024440e-03 7.717942e-06)	(-2.390853e-07 1.358546e-04 4.876408e-08)
2533.08       	(-1.766748e-05 9.160041e-03 1.213631e-05)	(-1.742969e-05 9.024187e-03 1.208584e-05)	(-2.377894e-07 1.358544e-04 5.047104e-08)
2533.08       	(-2.036505e-05 9.160291e-03 7.768542e-06)	(-2.012591e-05 9.024437e-03 7.719921e-06)	(-2.391422e-07 1.358545e-04 4.862075e-08)
2533.09       	(-1.768563e-05 9.160038e-03 1.213814e-05)	(-1.744778e-05 9.024184e-03 1.208781e-05)	(-2.378473e-07 1.358543e-04 5.032788e-08)
2533.09       	(-2.038084e-05 9.160288e-03 7.770345e-06)	(-2.014165e-05 9.024433e-03 7.721867e-06)	(-2.391990e-07 1.358544e-04 4.847779e-08)