# Wall shear stress
# Time        	patch         	min           	max           
5             	obstacle	(-1.536102e-02 -1.052862e-02 -6.587304e-03)	(6.002596e-03 9.755279e-03 6.397552e-03)
10            	obstacle	(-3.439527e-01 -3.537220e-01 -3.119537e-01)	(1.476012e-01 1.408528e-01 1.750168e-01)
15            	obstacle	(-2.652476e-02 -1.866480e-02 -1.308968e-02)	(9.317933e-03 6.368797e-03 9.929375e-03)
20            	obstacle	(-6.787644e-02 -8.434912e-02 -6.775242e-02)	(4.332958e-02 1.957855e-02 2.389087e-02)
25            	obstacle	(-1.770313e-02 -1.613809e-02 -1.222236e-02)	(4.327553e-03 6.659135e-03 7.276716e-03)
