# k  POINT_DATA 34169
# x  y  z  k
0 -1.85076e-05 6.54374e-09 0.00180506
-1.65436e-24 0.00114845 0 0.00178845
0 0.00123149 0.00116943 0.00178822
0 -0.0012685 0.00116944 0.00182191
-2.58494e-25 -1.85056e-05 0.00219071 0.0012252
0 -1.85055e-05 0.00233887 0.00118598
0 -0.000603648 0.00233887 0.00118795
1.65436e-24 0.00248149 7.47496e-09 0.00176948
0 -0.00251848 9.1726e-09 0.00183696
-2.06683e-20 0.00248149 0.00233887 0.00117844
0 -0.0025185 0.00233887 0.00119437
0 0.00371837 0 0.00174876
0 0.0012315 0.00356873 0.000566099
-1.0842e-19 -0.0012685 0.00356873 0.000547892
0 0.00373149 0.00116943 0.00175074
0 -0.0037685 0.00116944 0.00185201
-4.9658e-20 -1.85024e-05 0.00479858 0.000462951
0 0.00498151 7.6335e-09 0.0017276
0 -0.00501848 1.11264e-08 0.00186472
1.0842e-19 0.0037315 0.00356872 0.000589796
-2.1684e-19 -0.0037685 0.00356872 0.000535107
9.26277e-21 0.0024815 0.00479858 0.000484156
7.51248e-26 -0.0025185 0.00479221 0.000448099
0 -0.0025185 0.00479858 0.00044616
7.27014e-27 -0.00254754 0.00479858 0.000446025
0 0.0049216 0.00233887 0.00117001
-3.23117e-27 0.0049815 0.00233887 0.0011698
0 -0.0050185 0.00233887 0.00120398
3.23117e-27 0.0049815 0.00257695 0.00110586
-1.0842e-19 0.0012315 0.00608215 0.000377323
0 -0.0012685 0.00608215 0.000357771
0 0.0062315 0.00116943 0.00170445
0 -0.0062685 0.00116943 0.00187743
0 0.0049815 0.00479858 0.000509149
5.16988e-26 -0.0050185 0.00479858 0.000434588
-1.0842e-19 0.0037315 0.00608215 0.000400696
-2.1684e-19 -0.0037685 0.00608215 0.000341112
0 0.0062315 0.00356872 0.000616375
0 -0.0062685 0.00356872 0.000530226
1.27958e-19 -1.85008e-05 0.00736572 0.000378449
0 0.00748152 1.05804e-08 0.00167735
0 -0.00751848 1.07668e-08 0.00188771
-2.58494e-26 0.00580956 0.00479858 0.000518277
-3.36443e-20 0.0024815 0.00736572 0.000398365
8.49695e-20 -0.0025185 0.00736572 0.00036145
-2.05331e-20 0.0074815 0.00233887 0.00115775
0 -0.0075185 0.00233887 0.00121485
-2.58494e-26 -0.0050185 0.00708651 0.000356871
0 0.0062315 0.00608215 0.000427013
0 -0.0062685 0.00608215 0.00032907
-2.1684e-19 0.0012315 0.008656 0.000397972
-1.0842e-19 -0.0012685 0.00865601 0.00038077
1.0842e-19 0.0087315 0.00116944 0.00165024
0 -0.0087685 0.00116943 0.00189799
0 0.0074815 0.00479858 0.00053671
1.62448e-19 0.0049815 0.00736572 0.00042109
0 -0.0050185 0.00736572 0.000347387
2.58494e-26 -0.0075185 0.00479858 0.000429073
-6.46235e-27 0.00528894 0.00736572 0.000424225
0 0.0037315 0.008656 0.000417503
0 0.0087315 0.00356873 0.000643301
0 -0.0037685 0.008656 0.00036619
-2.1684e-19 -0.0087685 0.00356872 0.000532213
1.29247e-26 -0.0075185 0.00648561 0.000368431
-8.08278e-20 -1.85002e-05 0.00994629 0.000424257
1.65436e-24 0.0099815 1.38294e-08 0.00161948
-1.65436e-24 -0.0100185 9.43505e-09 0.00190388
1.00403e-19 0.0024815 0.00994629 0.000442688
-8.27181e-25 0.0099815 0.00233887 0.00114073
-7.30726e-20 -0.0025185 0.00994629 0.000406911
-2.06795e-25 -0.0100185 0.00233887 0.00122542
-1.61559e-27 0.0049815 0.00900557 0.000446972
0 0.0074815 0.00736572 0.000446577
0 -0.0075185 0.00736572 0.000336795
-6.46235e-27 -0.00947855 0.00479858 0.000429181
1.0842e-19 0.0087315 0.00608215 0.000457457
0 0.0062315 0.008656 0.000439175
0 -0.0087685 0.00608215 0.000321829
1.0842e-19 -0.0062685 0.008656 0.000353221
0 0.00400269 0.00994629 0.000454329
1.29247e-26 -0.0100185 0.00470539 0.000459376
0 0.0099815 0.00479858 0.000565028
6.46235e-27 -0.0100185 0.00479858 0.000429211
0 0.0049815 0.00994629 0.000461819
6.83146e-20 -0.0050185 0.00994629 0.000390972
0 0.0012315 0.011217 0.000468391
1.0842e-19 -0.0012685 0.011217 0.000449532
0 0.0112315 0.00116943 0.00158872
0 -0.0112685 0.00116944 0.00190977
0 0.0112315 0.00356872 0.000665318
-1.0842e-19 -0.0112685 0.00356873 0.000539984
1.0842e-19 0.0037315 0.011217 0.000486521
2.1684e-19 -0.0037685 0.011217 0.000430803
1.0842e-19 0.0087315 0.008656 0.000462679
-1.0842e-19 -0.0087685 0.00865601 0.000343102
0 0.0099815 0.00736572 0.00047454
-5.17539e-20 -0.0100185 0.00736572 0.00033015
-1.29247e-26 0.0074815 0.00994629 0.000481535
1.03847e-19 -0.0075185 0.00994629 0.000377022
0 0.0124815 1.62363e-08 0.00154955
-2.40255e-20 -1.85e-05 0.0124878 0.000476558
1.65436e-24 -0.0125185 8.85477e-09 0.00191051
0 0.0124815 0.00233888 0.00111502
0 0.0024815 0.0124878 0.000497554
-2.06795e-25 -0.0125185 0.00233887 0.00123367
-1.2277e-19 -0.0025185 0.0124878 0.000455793
0 0.0112315 0.00608215 0.000491453
0 -0.0112685 0.00608215 0.000319727
1.0842e-19 0.0062315 0.011217 0.000503726
2.01948e-28 0.00299048 0.0124878 0.000501733
-1.0842e-19 -0.0062685 0.011217 0.000413349
0 0.0124815 0.00479858 0.000592397
-7.10858e-26 -0.0125185 0.00470415 0.000464525
-6.46235e-27 -0.0125185 0.00479858 0.000433819
0 0.0049815 0.0124878 0.000518079
3.68881e-20 -0.0050185 0.0124878 0.000436226
-1.0842e-19 0.0137315 0.00116943 0.00151038
2.1684e-19 0.0012315 0.0137433 0.000505754
0 -0.0012685 0.0137433 0.000482413
-1.0842e-19 -0.0137685 0.00116944 0.00191125
1.9387e-26 -0.0130041 0.00479858 0.000435293
-2.58494e-26 0.0099815 0.00994629 0.000501567
-3.84674e-21 -0.0100185 0.00994629 0.000365753
-2.1684e-19 0.0112315 0.008656 0.000486572
-2.1684e-19 0.0137315 0.00356873 0.000681744
1.0842e-19 -0.0112685 0.00865601 0.000335977
1.0842e-19 0.0087315 0.011217 0.000520238
-2.1684e-19 -0.0137685 0.00356872 0.000552021
1.0842e-19 -0.0087685 0.011217 0.000398113
-1.0842e-19 0.0037315 0.0137433 0.000529387
1.0842e-19 -0.0037685 0.0137433 0.000460297
0 0.0124815 0.00736572 0.000504261
-3.59216e-20 -0.0125185 0.00736572 0.00032707
3.23117e-27 0.0074815 0.0124878 0.000537786
-1.95644e-20 -0.0075185 0.0124878 0.000418784
0 0.0149815 1.68918e-08 0.00145351
-3.71475e-20 -1.85e-05 0.0149988 0.000491485
-1.0842e-19 0.0137315 0.00608215 0.000528728
0 -0.0150185 9.26868e-09 0.0019094
2.1684e-19 -0.0137685 0.00608215 0.000320303
0 0.0062315 0.0137433 0.000552493
0 -0.0062685 0.0137433 0.000440342
8.27181e-25 0.0149815 0.00233888 0.00107526
2.06795e-25 -0.0150185 0.00233887 0.0012399
1.4527e-19 0.0024815 0.0149988 0.000515496
1.28828e-19 -0.0025185 0.0149988 0.000468642
7.88861e-29 0.00254987 0.0149988 0.000516162
0 0.0149815 0.00479858 0.000620191
-5.16988e-26 -0.0150185 0.00479858 0.000441407
0 0.0049815 0.0149988 0.000539859
1.43184e-19 -0.0050185 0.0149988 0.000447842
0 0.0112315 0.011217 0.000536495
-2.1684e-19 -0.0112685 0.011217 0.000385548
-5.16988e-26 0.0124815 0.00994629 0.00052149
0 0.0099815 0.0124878 0.000556574
5.35398e-21 -0.0125185 0.00994629 0.000357483
3.33886e-20 -0.0100185 0.0124878 0.000404027
-1.0842e-19 0.0137315 0.008656 0.00051027
0 -0.0137685 0.008656 0.000332301
-1.0842e-19 0.0162315 0.00116944 0.00139664
2.1684e-19 0.0087315 0.0137433 0.000574476
0 0.0012315 0.0162494 0.000500871
1.0842e-19 -0.0012685 0.0162494 0.000476909
0 -0.0087685 0.0137433 0.000423225
-1.0842e-19 -0.0162685 0.00116944 0.00190754
2.58494e-26 -0.0150185 0.00699134 0.000343262
0 0.0162315 0.00356873 0.000700181
0 -0.0162685 0.00356872 0.000567327
-1.0842e-19 0.0037315 0.0162494 0.000525979
-2.1684e-19 -0.0037685 0.0162494 0.000454959
-1.09656e-19 0.0149815 0.00736572 0.00053484
0 -0.0150185 0.00736572 0.000326506
-4.03897e-28 0.0074815 0.0149988 0.000563908
7.17699e-20 -0.0075185 0.0149988 0.000429757
-6.46235e-27 -0.0156476 0.00736572 0.000326805
1.0842e-19 0.0162315 0.00608215 0.000568065
2.1684e-19 -0.0162685 0.00608215 0.00032256
-1.0842e-19 0.0062315 0.0162494 0.000551577
-2.1684e-19 -0.0062685 0.0162494 0.000435776
0 0.0174815 1.67042e-08 0.00130838
-1.91555e-20 -1.85e-05 0.0175 0.000472582
0 -0.0175185 1.03701e-08 0.0019028
0 0.0174815 0.00233888 0.00101407
0 0.0124815 0.0124878 0.000574311
4.1359e-25 -0.0175185 0.00233887 0.00124523
1.58401e-19 0.0024815 0.0175 0.000496666
8.08441e-20 -0.0025185 0.0175 0.000450722
-1.17075e-19 -0.0125185 0.0124878 0.000392112
-2.1684e-19 0.0137315 0.011217 0.000552379
0 0.0112315 0.0137433 0.000594856
1.0842e-19 -0.0137685 0.011217 0.000375863
0 -0.0112685 0.0137433 0.000409122
0 0.0149815 0.00994629 0.000540669
-9.59889e-21 -0.0150185 0.00994629 0.000352016
8.07794e-28 0.0099815 0.0149988 0.000587079
-6.56678e-20 -0.0100185 0.0149988 0.000414646
0 0.0174815 0.00479858 0.000651607
0 -0.0175185 0.00479858 0.000451789
-4.57539e-29 0.0049815 0.0174753 0.000522366
-1.57772e-30 0.0049815 0.0175 0.000522191
8.08441e-20 -0.0050185 0.0175 0.000431651
-1.0842e-19 0.0162315 0.008656 0.000532247
1.0842e-19 -0.0162685 0.00865601 0.000330877
2.1684e-19 0.0087315 0.0162494 0.000577084
0 -0.0087685 0.0162494 0.00041969
0 0.0187315 0.00116944 0.00122011
-1.0842e-19 0.0012315 0.01875 0.000467451
0 -0.0012685 0.01875 0.000445102
0 -0.0187685 0.00116943 0.00189806
0 0.0174815 0.00736572 0.000564538
0 -0.0175185 0.00736572 0.000327697
-9.15079e-29 0.0074815 0.0174897 0.000548407
-1.57772e-30 0.0074815 0.0175 0.000548343
1.42064e-19 -0.0075185 0.0175 0.000415552
-1.0842e-19 0.0187315 0.00356873 0.000729916
-1.0842e-19 -0.0187685 0.00356872 0.00058692
0 0.0037315 0.01875 0.000492369
0 -0.0037685 0.01875 0.000425926
-1.0842e-19 0.0137315 0.0137433 0.00061327
-2.1684e-19 -0.0137685 0.0137433 0.000397824
6.46235e-27 0.0149815 0.0124878 0.000590786
0 0.0124815 0.0149988 0.000608824
3.30689e-20 -0.0150185 0.0124878 0.000382889
6.97801e-20 -0.0125185 0.0149988 0.000402366
0 -0.016963 0.00994629 0.000349301
0 0.0187315 0.00608215 0.000606433
0 -0.0187685 0.00608215 0.000326728
-1.0842e-19 0.0162315 0.011217 0.000567574
0 0.0112315 0.0162494 0.000601894
1.0842e-19 0.0062315 0.01875 0.000518844
-1.0842e-19 -0.0162685 0.011217 0.00036881
-1.0842e-19 -0.0062685 0.01875 0.000409947
0 -0.0112685 0.0162494 0.000406552
0 0.0199815 1.72687e-08 0.00112899
1.58401e-19 -1.85e-05 0.02 0.000429207
0 -0.0200185 1.16628e-08 0.00188985
-5.16988e-26 0.0174815 0.00994629 0.000558233
0 0.0199815 0.00233888 0.000941134
-1.41995e-29 0.0099815 0.0174933 0.000574384
-1.61559e-27 -0.0175185 0.00994629 0.000348526
-1.57772e-30 0.0099815 0.0175 0.00057435
-1.91544e-20 0.0024815 0.02 0.000449716
0 -0.0200185 0.00233887 0.0012488
-4.15987e-20 -0.0025185 0.02 0.000411378
4.20638e-20 -0.0100185 0.0175 0.000402261
0 0.0199815 0.00479858 0.000687599
-2.06795e-25 -0.0200185 0.00479858 0.000464628
-9.67102e-20 0.0049815 0.02 0.000472555
1.58401e-19 -0.0050185 0.02 0.000396279
-1.0842e-19 0.0187315 0.00865601 0.000551324
1.0842e-19 -0.0187685 0.008656 0.000330634
0 0.0087315 0.01875 0.000545873
0 -0.0087685 0.01875 0.000396798
0 0.0149815 0.0149988 0.000628779
4.61343e-20 -0.0150185 0.0149988 0.000392566
1.0842e-19 0.0212315 0.00116944 0.00103787
-1.0842e-19 0.0162315 0.0137433 0.000629671
0 0.0137315 0.0162494 0.000625262
0 0.0012315 0.02125 0.000410183
-1.0842e-19 -0.0012685 0.02125 0.000394094
0 0.0199815 0.00736572 0.00059154
-1.0842e-19 -0.0162685 0.0137433 0.000388976
0 -0.0137685 0.0162494 0.000395969
0 -0.0212685 0.00116943 0.00188164
0 -0.0200185 0.00736572 0.000330383
8.08456e-20 0.0074815 0.02 0.000497126
8.08456e-20 -0.0075185 0.02 0.000383689
2.01948e-28 -0.0175185 0.0122529 0.000373372
0 0.0174815 0.0124878 0.000605989
0 0.0124815 0.0175 0.000599465
-2.01948e-28 -0.0175185 0.0124878 0.000375902
8.08456e-20 -0.0125185 0.0175 0.000391417
0 0.0212315 0.00356873 0.000770623
0 -0.0212685 0.00356872 0.000608075
0 0.0037315 0.02125 0.00042886
-1.0842e-19 -0.0037685 0.02125 0.000380392
1.0842e-19 0.0187315 0.011217 0.000581613
0 0.0112315 0.01875 0.000572555
0 -0.0187685 0.011217 0.000363595
0 -0.0112685 0.01875 0.00038601
1.00974e-28 -0.0181344 0.0124878 0.000374644
0 0.0212315 0.00608215 0.000641611
0 -0.0212685 0.00608215 0.000332948
0 0.0062315 0.02125 0.000450146
0 -0.0062685 0.02125 0.000368853
0 0.0199815 0.00994629 0.000573555
-1.91544e-20 0.0099815 0.02 0.000522654
-6.46235e-27 -0.0200185 0.00994629 0.000346491
3.28979e-21 -0.0100185 0.02 0.000373228
-3.30872e-24 0.0224815 1.82997e-08 0.000975239
-1.91544e-20 -1.85e-05 0.0225 0.000373785
-1.65436e-24 -0.0225185 1.24017e-08 0.00187259
8.27181e-25 0.0224815 0.00233888 0.00088486
8.08456e-20 0.0024815 0.0225 0.000388377
0 -0.0225185 0.00233887 0.001251
5.84013e-20 -0.0025185 0.0225 0.000361225
1.0842e-19 0.0212315 0.008656 0.000566672
-1.0842e-19 -0.0212685 0.008656 0.000331225
0 0.0162315 0.0162494 0.000646893
-1.0842e-19 0.0087315 0.02125 0.00047364
0 0.0224815 0.00479858 0.000724262
1.0842e-19 -0.0087685 0.02125 0.00035916
0 -0.0162685 0.0162494 0.000387499
2.06795e-25 -0.0225185 0.00479858 0.000479398
-1.41995e-28 0.0149815 0.0174942 0.000623107
0 0.0174815 0.0149988 0.000647081
8.08456e-20 0.0049815 0.0225 0.000405142
5.84013e-20 -0.0050185 0.0225 0.000350481
8.08443e-20 -0.0150185 0.0175 0.000382596
1.27468e-19 -0.0175185 0.0149988 0.000384836
1.0842e-19 0.0187315 0.0137433 0.000644843
1.0842e-19 0.0137315 0.01875 0.00059814
0 -0.0137685 0.01875 0.00037714
0 -0.0187685 0.0137433 0.000382147
0 0.0199815 0.0124878 0.000620252
1.58401e-19 0.0124815 0.02 0.00054831
4.03897e-28 -0.0200185 0.0124878 0.000370796
-3.54881e-20 -0.0125185 0.02 0.000364499
0 0.0224815 0.00736572 0.000613471
0 -0.0225185 0.00736572 0.000334687
-1.91544e-20 0.0074815 0.0225 0.000424016
1.58401e-19 -0.0075185 0.0225 0.000341305
0 0.0237315 0.00116944 0.000912606
0 0.0012315 0.02375 0.000350912
1.0842e-19 -0.0012685 0.02375 0.000339951
1.0842e-19 -0.0237685 0.00116943 0.00186354
0 0.0237315 0.00356873 0.000815448
0 0.0212315 0.011217 0.000594458
0 -0.0237685 0.00356872 0.000630862
0 0.0112315 0.02125 0.000498547
-1.0842e-19 0.0037315 0.02375 0.000363553
-2.1684e-19 -0.0212685 0.011217 0.000360347
-1.0842e-19 -0.0037685 0.02375 0.000330464
0 -0.0112685 0.02125 0.000350944
1.0842e-19 0.0237315 0.00608215 0.000667378
-2.1684e-19 -0.0237685 0.00608215 0.00034166
0 0.0062315 0.02375 0.00037801
0 -0.0062685 0.02375 0.000322215
2.58494e-26 0.0224815 0.00994629 0.000586501
-1.91544e-20 0.0099815 0.0225 0.000444645
0 -0.0225185 0.00994629 0.000345878
1.58401e-19 -0.0100185 0.0225 0.000333433
-6.31089e-30 -0.0196434 0.0149988 0.000379695
-4.40184e-28 0.0174815 0.0174936 0.000645081
-3.54802e-20 0.0174815 0.0175 0.000645076
8.08443e-20 -0.0175185 0.0175 0.000375389
0 0.0187315 0.0162494 0.000666889
0 0.0162315 0.01875 0.000622129
1.0842e-19 -0.0162685 0.01875 0.000369778
1.0842e-19 -0.0187685 0.0162494 0.000380724
0 0.0249815 1.76875e-08 0.000885291
0 0.0199815 0.0149988 0.000664354
1.58401e-19 0.0149815 0.02 0.000573322
-1.91544e-20 -1.85e-05 0.025 0.000317083
-3.54881e-20 -0.0150185 0.02 0.000357151
6.31089e-30 -0.0200185 0.0149988 0.000378788
1.65436e-24 -0.0250185 1.26415e-08 0.00185674
0 0.0249815 0.00233888 0.000863088
-1.91544e-20 0.0024815 0.025 0.000327061
1.58401e-19 -0.0025185 0.025 0.000308338
0 -0.0250185 0.00233887 0.0012552
0 0.0237315 0.00865601 0.000578073
1.0842e-19 0.0212315 0.0137433 0.000659833
1.0842e-19 -0.0237685 0.008656 0.000332906
0 0.0137315 0.02125 0.000523999
0 0.0087315 0.02375 0.000394268
0 -0.0087685 0.02375 0.000314995
0 -0.0137685 0.02125 0.000343902
-1.0842e-19 -0.0212685 0.0137433 0.000377022
4.1359e-25 0.0249815 0.00479858 0.00075833
0 -0.0250185 0.00479858 0.000496908
1.58401e-19 0.0049815 0.025 0.000338404
-1.91544e-20 -0.0050185 0.025 0.000300647
0 0.0224815 0.0124878 0.000634252
1.58401e-19 0.0124815 0.0225 0.00046646
8.08456e-20 -0.0125185 0.0225 0.000326614
8.07794e-28 -0.0225185 0.0124878 0.000367388
-1.03398e-25 0.0249815 0.00736572 0.000628617
5.16988e-26 -0.0250185 0.00736572 0.000341197
1.58401e-19 0.0074815 0.025 0.000351166
8.08456e-20 -0.0075185 0.025 0.000293838
0 0.0237315 0.011217 0.000606653
0 0.0262315 0.00116943 0.000857977
1.0842e-19 0.0112315 0.02375 0.000412125
1.0842e-19 0.0012315 0.02625 0.000292574
0 -0.0012685 0.02625 0.000284895
1.0842e-19 -0.0237685 0.011217 0.000358891
-1.0842e-19 -0.0112685 0.02375 0.000308632
0 -0.0200185 0.0170411 0.000371148
0 -0.0262685 0.00116943 0.00184994
0 0.0262315 0.00356873 0.000865612
0 0.0187315 0.01875 0.000644396
1.0842e-19 -0.0262685 0.00356872 0.000657198
0 0.0037315 0.02625 0.000301207
0 -0.0037685 0.02625 0.000278041
0 -0.0187685 0.01875 0.00036356
-1.78283e-28 0.0199815 0.017493 0.000665543
-3.54808e-20 0.0199815 0.0175 0.000665546
-9.67102e-20 0.0174815 0.02 0.00059711
3.28979e-21 -0.0175185 0.02 0.000350878
0 -0.0200185 0.0175 0.000369432
1.0842e-19 0.0212315 0.0162494 0.000685818
-1.0842e-19 0.0162315 0.02125 0.000549023
0 -0.0162685 0.02125 0.000337786
0 -0.0212685 0.0162494 0.000375258
0 0.0249815 0.00994629 0.000597488
-1.91544e-20 0.0099815 0.025 0.000365307
-1.29247e-26 -0.0250185 0.00994629 0.000346753
-1.0842e-19 0.0262315 0.00608215 0.000682505
1.58401e-19 -0.0100185 0.025 0.000287779
0 -0.0262685 0.00608215 0.000353661
-1.0842e-19 0.0062315 0.02625 0.000310845
0 -0.0062685 0.02625 0.000271867
0 0.0224815 0.0149988 0.000681434
-1.91544e-20 0.0149815 0.0225 0.000488759
3.28979e-21 -0.0150185 0.0225 0.000320639
0 -0.0225185 0.0149988 0.00037406
1.0842e-19 0.0237315 0.0137433 0.000675787
0 0.0137315 0.02375 0.000431168
0 -0.0137685 0.02375 0.000302979
0 -0.0237685 0.0137433 0.000373226
0 0.0274815 1.36323e-09 0.000848645
1.58401e-19 -1.85e-05 0.0275 0.000260602
1.65436e-24 -0.0275185 1.29131e-08 0.00184756
0 0.0274815 0.00233887 0.000868806
-1.91571e-20 0.0024815 0.0275 0.000267602
1.584e-19 -0.0025185 0.0275 0.000254285
-8.53899e-21 -0.0275185 0.00233886 0.00126417
-2.1684e-19 0.0262315 0.008656 0.000586344
2.1684e-19 -0.0262685 0.008656 0.000336539
1.0842e-19 0.0087315 0.02625 0.00032154
0 -0.0087685 0.02625 0.000266275
-5.16988e-26 0.0274815 0.00479858 0.000788019
-3.23117e-27 0.0249815 0.0124878 0.000648581
2.63192e-20 -0.0275185 0.00479858 0.000517585
-9.67102e-20 0.0124815 0.025 0.000380656
5.84013e-20 0.0049815 0.0275 0.00027535
-1.91544e-20 -0.0050185 0.0275 0.00024856
1.58401e-19 -0.0125185 0.025 0.000282358
1.61559e-27 -0.0250185 0.0124878 0.000365254
5.16988e-26 0.0278127 0.00479858 0.000791133
3.28979e-21 0.0199815 0.02 0.000619377
2.58494e-26 0.0273129 0.00736572 0.000636733
-9.67102e-20 -0.0200185 0.02 0.000345424
0 0.0212315 0.01875 0.000665086
1.0842e-19 0.0187315 0.02125 0.000572893
1.0842e-19 -0.0187685 0.02125 0.000332391
0 -0.0212685 0.01875 0.000358187
-2.58494e-26 0.0274815 0.00708861 0.000653587
-3.15544e-30 -0.0225185 0.0173267 0.000365069
0 0.0274815 0.00736572 0.00063732
-1.21485e-28 0.0224815 0.0174925 0.00068492
-5.16988e-26 -0.0275185 0.00736572 0.000350501
-1.57772e-30 0.0224815 0.0175 0.00068493
-9.67102e-20 0.0174815 0.0225 0.000510827
1.58401e-19 0.0074815 0.0275 0.000283886
4.2064e-20 -0.0075185 0.0275 0.000243348
3.28979e-21 -0.0175185 0.0225 0.000315333
-1.57772e-30 -0.0225185 0.0175 0.0003644
0 0.0262315 0.011217 0.000618721
1.0842e-19 0.0112315 0.02625 0.000333297
-1.0842e-19 -0.0262685 0.011217 0.000358552
0 -0.0112685 0.02625 0.000261215
-7.88861e-30 0.0074815 0.0276324 0.000280576
1.0842e-19 0.0287315 0.00116943 0.000839314
0 0.0237315 0.0162494 0.000704261
0 0.0162315 0.02375 0.000450847
1.0842e-19 0.0012315 0.0287506 0.000235262
-1.0842e-19 -0.0012685 0.0287506 0.000229668
0 -0.0162685 0.02375 0.000297891
0 -0.0237685 0.0162494 0.000370733
1.0842e-19 -0.0287685 0.00116943 0.00184517
1.0842e-19 0.0287315 0.00356873 0.000912965
1.0842e-19 -0.0287685 0.00356872 0.000685705
0 0.0037315 0.0287506 0.000241356
1.0842e-19 -0.0037685 0.0287506 0.000224528
-4.03897e-28 0.0249815 0.0149988 0.000698869
0 0.0274815 0.00969854 0.000610073
3.28979e-21 0.0149815 0.025 0.000396904
-1.91544e-20 -0.0150185 0.025 0.000277462
0 -0.0250185 0.0149988 0.000370268
0 0.0274815 0.00994629 0.000607179
8.08456e-20 0.0099815 0.0275 0.000293229
-1.29247e-26 -0.0275185 0.00994629 0.000349112
8.08456e-20 -0.0100185 0.0275 0.000238596
0 0.0275288 0.00994629 0.000607349
9.30856e-29 0.0099815 0.0275163 0.000292802
0 0.0287315 0.00608215 0.000688067
0 -0.0287685 0.00608215 0.000369331
0 0.0062315 0.0287506 0.000247984
1.0842e-19 -0.0062685 0.0287506 0.000219797
0 0.0293435 0.00233887 0.000886475
-1.0842e-19 0.0262315 0.0137433 0.000692868
1.0842e-19 0.0137315 0.02625 0.000346036
0 -0.0137685 0.02625 0.000256609
-1.0842e-19 -0.0262685 0.0137433 0.000370293
-1.65436e-24 0.0299815 1.10974e-08 0.000849599
1.09589e-19 -1.85e-05 0.0300012 0.000205101
1.0842e-19 0.0287315 0.008656 0.000592189
-1.65436e-24 -0.0300185 1.29568e-08 0.00184688
1.0842e-19 0.0212315 0.02125 0.000595133
0 -0.0287685 0.008656 0.000342436
0 0.0087315 0.0287506 0.000255163
1.0842e-19 -0.0087685 0.0287506 0.000215446
-1.03398e-24 0.0299815 0.00217865 0.00088959
0 -0.0212685 0.02125 0.00032756
0 0.0299815 0.00233887 0.00089253
-1.91544e-20 0.0224815 0.02 0.000640072
-3.54881e-20 0.0199815 0.0225 0.000532065
-1.09081e-19 0.0024815 0.0300012 0.000210108
-2.05885e-20 -0.0025185 0.0300012 0.000200473
-5.82335e-21 -0.0300185 0.00233886 0.00127904
6.45119e-20 -0.0200185 0.0225 0.000310561
1.58401e-19 -0.0225185 0.02 0.000340583
-1.61559e-27 0.0274815 0.0124878 0.000663413
3.28979e-21 0.0124815 0.0275 0.00030336
2.24036e-28 0.0124815 0.0275129 0.000303004
-1.91544e-20 -0.0125185 0.0275 0.000234251
0 -0.0275185 0.0124878 0.000363886
0 0.0237315 0.01875 0.000684559
1.0842e-19 0.0187315 0.02375 0.000470546
0 -0.0187685 0.02375 0.000293265
-1.0842e-19 -0.0237685 0.01875 0.000353423
2.36834e-20 0.0299815 0.00479858 0.000811522
3.4018e-20 -0.0300185 0.00479858 0.000541661
1.25384e-20 0.0049815 0.0300012 0.000215522
1.22849e-19 -0.0050185 0.0300012 0.000196194
0 0.0249815 0.0174915 0.000703568
-1.57772e-30 0.0249815 0.0175 0.000703585
2.68213e-29 -0.0250185 0.0174512 0.000360216
-3.54881e-20 0.0174815 0.025 0.000413636
-9.67102e-20 -0.0175185 0.025 0.000272993
0 -0.0250185 0.0175 0.000360016
-1.00974e-28 0.00711119 0.0300012 0.000220493
0 0.0287315 0.011217 0.000631274
0 0.0262315 0.0162494 0.000722521
0 0.0162315 0.02625 0.000359566
-1.0842e-19 0.0112315 0.0287506 0.000262903
5.80184e-20 0.0299815 0.00736572 0.000639752
-2.1684e-19 -0.0287685 0.011217 0.00035882
2.1684e-19 -0.0112685 0.0287506 0.00021144
0 -0.0162685 0.02625 0.000252368
2.1684e-19 -0.0262685 0.0162494 0.000366821
1.03398e-25 -0.0300185 0.00736572 0.000362566
-2.52435e-29 0.0074815 0.0300012 0.000221357
6.28265e-20 -0.0075185 0.0300012 0.000192238
-2.1684e-19 0.0312315 0.00116943 0.000859885
0 0.0012315 0.0312567 0.000179715
0 -0.0012685 0.0312567 0.00017569
0 -0.0312685 0.00116943 0.00184858
-4.03897e-28 0.0274815 0.0149988 0.000716638
3.28979e-21 0.0149815 0.0275 0.0003142
1.58401e-19 -0.0150185 0.0275 0.000230251
-4.73317e-29 0.0149815 0.0275251 0.000313468
-2.01948e-28 -0.0275185 0.0149988 0.000367057
0 0.0287473 0.0124878 0.000671078
1.0842e-19 0.0312315 0.00356873 0.000959332
0 -0.0312685 0.00356872 0.000718522
-1.0842e-19 0.0037315 0.0312567 0.000184029
-1.0842e-19 -0.0037685 0.0312567 0.000171939
-1.24835e-19 0.0299815 0.00994629 0.000616168
0 0.0099815 0.0300012 0.00022762
0 -0.0300185 0.00994629 0.000352716
-4.58756e-20 -0.0100185 0.0300012 0.000188579
-9.67102e-20 0.0224815 0.0225 0.000552025
0 0.0312315 0.00608215 0.000682121
3.28979e-21 -0.0225185 0.0225 0.000306214
0 0.0287315 0.0137433 0.000710475
0 -0.0312685 0.00608215 0.000388449
0 0.0237315 0.02125 0.000615511
0 0.0212315 0.02375 0.000489689
0 0.0137315 0.0287506 0.000271194
-1.0842e-19 0.0062315 0.0312567 0.000188643
1.0842e-19 -0.0137685 0.0287506 0.000207733
-1.0842e-19 -0.0062685 0.0312567 0.000168447
-1.0842e-19 -0.0212685 0.02375 0.000289028
-1.0842e-19 -0.0237685 0.02125 0.000323164
0 -0.0287685 0.0137433 0.000367834
8.08456e-20 0.0249815 0.02 0.000659242
6.45119e-20 0.0199815 0.025 0.000430388
3.28979e-21 -0.0200185 0.025 0.000268887
8.08456e-20 -0.0250185 0.02 0.000336195
1.0842e-19 0.0262315 0.01875 0.000703001
0 0.0187315 0.02625 0.000373584
1.0842e-19 -0.0187685 0.02625 0.000248448
0 -0.0262685 0.01875 0.000349092
1.0842e-19 0.0312315 0.00865601 0.000596466
0 -0.0312685 0.008656 0.000349991
1.0842e-19 0.0087315 0.0312567 0.000193559
0 -0.0087685 0.0312567 0.000165198
0 0.0299815 0.0124878 0.000678552
0 0.0324815 6.81881e-09 0.00089869
0 0.0124815 0.0300012 0.000234306
-4.1359e-25 0.0324815 0.00123728 0.000919423
-4.41356e-20 -0.0125185 0.0300012 0.000185186
3.06077e-20 -1.85e-05 0.0325122 0.000152267
0 -0.0300185 0.0124878 0.000362973
-1.65436e-24 -0.0325185 1.24576e-08 0.00185347
1.35199e-19 0.0324815 0.00233888 0.000937881
1.43573e-28 0.0274815 0.01749 0.000721655
0 0.0274815 0.0175 0.000721675
-3.54881e-20 0.0174815 0.0275 0.000325589
2.20881e-29 -0.0275185 0.0174791 0.000356162
0 -0.0325185 0.00233887 0.00130066
8.08408e-20 -0.0175185 0.0275 0.000226545
3.88783e-20 0.0024815 0.0325122 0.000155773
1.16914e-20 -0.0025185 0.0325122 0.000148986
8.08473e-20 -0.0275185 0.0175 0.00035607
1.75834e-20 0.0324815 0.0047986 0.000827616
2.06795e-25 -0.0325185 0.00479858 0.000570302
3.85759e-20 0.0049815 0.0325122 0.000159516
3.62211e-20 -0.0050185 0.0325122 0.000145922
1.0842e-19 0.0287315 0.0162494 0.000740649
0 0.0162315 0.0287506 0.000279992
1.0842e-19 -0.0162685 0.0287506 0.000204285
0 -0.0287685 0.0162494 0.000363285
0 0.0312315 0.011217 0.000644516
-2.1684e-19 0.0112315 0.0312567 0.000198773
0 -0.0312685 0.011217 0.000359551
-2.1684e-19 -0.0112685 0.0312567 0.00016217
-2.30254e-20 0.0324815 0.00736572 0.000636704
0 -0.0325185 0.00736572 0.000376617
0 0.0073948 0.0325122 0.000163358
4.03897e-28 0.0299815 0.0146113 0.000725666
0 0.0074815 0.0325122 0.000163496
5.61066e-20 -0.0075185 0.0325122 0.000143061
-3.02923e-28 0.0074815 0.0326133 0.000161461
4.03897e-28 0.0299815 0.0149988 0.000734264
0 0.0149815 0.0300012 0.000241393
4.03897e-28 -0.0150185 0.0300012 0.000182027
0 -0.0300185 0.0149988 0.000364191
0 0.0237315 0.02375 0.000507767
0 -0.0237685 0.02375 0.000285105
8.08456e-20 0.0249815 0.0225 0.000570379
6.45119e-20 0.0224815 0.025 0.000446708
3.28979e-21 -0.0225185 0.025 0.000265086
3.28979e-21 -0.0250185 0.0225 0.000302201
0 0.0337315 0.00116943 0.000937496
-1.0842e-19 0.0262315 0.02125 0.000633898
-1.0842e-19 0.0212315 0.02625 0.000387733
1.0842e-19 -0.0212685 0.02625 0.000244809
1.0842e-19 -0.0262685 0.02125 0.000319102
-1.0842e-19 -0.0337685 0.00116943 0.00185835
0 0.0012315 0.033783 0.000128104
0 -0.0012685 0.0337829 0.000125351
-1.0842e-19 0.0337315 0.00356873 0.000996066
-1.0842e-19 -0.0337685 0.00356872 0.000759486
8.10828e-20 0.0324815 0.00994629 0.000624664
0 0.0037315 0.0337829 0.000131034
3.28979e-21 0.0274815 0.02 0.000676922
1.0842e-19 -0.0037685 0.0337829 0.000122764
0 0.0199815 0.0275 0.000337299
0 -0.0325185 0.00994629 0.000357045
0 0.0099815 0.0325122 0.000167713
4.20627e-20 -0.0200185 0.0275 0.000223099
-3.54881e-20 -0.0275185 0.02 0.000332147
4.30448e-20 -0.0100185 0.0325122 0.000140389
0 0.0312315 0.0137433 0.000727611
-1.0842e-19 0.0137315 0.0312567 0.000204268
1.0842e-19 -0.0137685 0.0312567 0.00015934
0 -0.0312685 0.0137433 0.000365657
-5.04871e-29 0.016433 0.0300012 0.000245711
1.0842e-19 0.0337315 0.00608216 0.000668606
0 0.0287315 0.01875 0.000720532
1.0842e-19 -0.0337685 0.00608215 0.000409877
0 0.0187315 0.0287506 0.0002892
1.0842e-19 -0.0187685 0.0287506 0.00020107
-1.0842e-19 -0.0287685 0.01875 0.000345085
0 0.0062315 0.0337829 0.000134139
1.0842e-19 -0.0062685 0.033783 0.000120339
0 0.0346215 0 0.000983821
1.68816e-28 0.0299815 0.0174883 0.000739122
6.45159e-20 0.0299815 0.0175 0.000739144
2.48505e-20 0.0174815 0.0300012 0.000248831
1.57772e-29 -0.0300185 0.0174847 0.000352495
-4.80688e-21 -0.0175185 0.0300012 0.000179076
0 -0.0300185 0.0175 0.000352423
4.3716e-20 0.0324815 0.0124878 0.000693627
0 0.0337315 0.00865601 0.000599485
5.69964e-20 0.0124815 0.0325122 0.000172156
0 -0.0325185 0.0124878 0.000362342
1.34854e-19 -0.0125185 0.0325122 0.000137888
0 -0.0337685 0.00865601 0.000358068
1.0842e-19 0.0087315 0.0337829 0.000137418
0 -0.0087685 0.0337829 0.000118065
0 0.0349815 1.1472e-09 0.000998143
0 -0.0350185 1.15898e-08 0.00186866
-8.37003e-20 -1.85003e-05 0.0350537 0.000104973
3.35174e-20 0.0349815 0.00233889 0.00100326
-4.1359e-25 -0.0350185 0.00233887 0.00132927
-1.68335e-19 0.0024815 0.0350537 0.000107281
3.19886e-20 -0.0025185 0.0350537 0.000102799
0 0.0312315 0.0162494 0.00075828
-1.0842e-19 0.0162315 0.0312567 0.000210026
-1.0842e-19 -0.0162685 0.0312567 0.000156688
0 -0.0312685 0.0162494 0.000359994
-4.19546e-20 0.0349815 0.00479858 0.000833739
-9.67102e-20 0.0249815 0.025 0.000462166
2.06795e-25 -0.0350185 0.00479858 0.000602345
6.45119e-20 -0.0250185 0.025 0.000261533
0 0.0262315 0.02375 0.000524341
1.0842e-19 0.0237315 0.02625 0.000401644
8.55341e-20 0.0049815 0.0350537 0.000109728
-6.75119e-20 -0.0050185 0.0350537 0.000100755
1.0842e-19 -0.0237685 0.02625 0.000241402
0 -0.0262685 0.02375 0.000281436
8.08456e-20 0.0274815 0.0225 0.00058689
-9.67102e-20 0.0224815 0.0275 0.000349066
-3.54881e-20 -0.0225185 0.0275 0.000219876
-1.13044e-19 -0.0275185 0.0225 0.000298458
-1.0842e-19 0.0337315 0.011217 0.000657912
-1.0842e-19 -0.0337685 0.011217 0.000360541
0 0.0112315 0.0337829 0.000140868
-1.0842e-19 -0.0112685 0.033783 0.000115932
0 0.0287315 0.02125 0.000650257
0 0.0212315 0.0287506 0.000298664
0 0.0324815 0.0149166 0.000749388
8.95944e-20 0.0349815 0.00736572 0.000628712
1.0842e-19 -0.0212685 0.0287506 0.000198061
1.0842e-19 -0.0287685 0.02125 0.000315311
0 0.0324815 0.0149988 0.000751276
-5.16988e-26 -0.0350185 0.00736572 0.000391272
0 0.0149815 0.0325122 0.00017681
0 -0.0325185 0.0149988 0.000361524
-6.60995e-20 -0.0150185 0.0325122 0.000135543
-1.99102e-20 0.0074815 0.0350537 0.000112313
-3.61791e-21 -0.0075185 0.0350537 9.88341e-05
0 0.00784127 0.0350537 0.000112704
3.28979e-21 0.0299815 0.02 0.000693172
-1.99815e-20 0.0199815 0.0300012 0.000256534
-6.02612e-20 -0.0200185 0.0300012 0.000176311
3.28979e-21 -0.0300185 0.02 0.000328368
0 0.0362314 0.00116944 0.00105879
-1.0842e-19 -0.0362685 0.00116943 0.00187898
-8.07794e-28 0.0161197 0.0325122 0.000179013
1.0842e-19 0.0012315 0.036344 8.39646e-05
-1.0842e-19 -0.0012685 0.036344 8.22425e-05
4.11191e-21 0.0349815 0.00994629 0.000633015
-1.29247e-26 -0.0350185 0.00994629 0.000361286
-1.0842e-19 0.0362315 0.00356874 0.00102084
-1.0842e-19 0.0337315 0.0137433 0.000744125
0 0.0312315 0.01875 0.00073712
-1.0842e-19 0.0187315 0.0312567 0.000216012
1.0842e-19 -0.0362685 0.00356872 0.000803011
1.29247e-26 0.0099815 0.0350537 0.000115033